/*--------------------------------*- C++ -*----------------------------------*\
| =========                 |                                                 |
| \\      /  F ield         | OpenFOAM: The Open Source CFD Toolbox           |
|  \\    /   O peration     | Version:  2012                                  |
|   \\  /    A nd           | Website:  www.openfoam.com                      |
|    \\/     M anipulation  |                                                 |
\*---------------------------------------------------------------------------*/
FoamFile
{
    version     2.0;
    format      ascii;
    class       surfaceScalarField;
    location    "7000";
    object      phi;
}
// * * * * * * * * * * * * * * * * * * * * * * * * * * * * * * * * * * * * * //

dimensions      [0 3 -1 0 0 0 0];
oriented        oriented;


internalField   nonuniform List<scalar> 
5116
(
1.12521e-08
-3.70605e-18
1.01926e-22
9.56144e-23
4.08561e-23
3.44105e-08
-3.70751e-18
5.46823e-22
8.92356e-22
1.17178e-22
5.85766e-08
-3.70902e-18
5.64449e-22
1.7082e-21
1.22351e-22
8.37853e-08
-3.71057e-18
5.76955e-22
2.5454e-21
1.27742e-22
1.10072e-07
-3.71214e-18
5.90716e-22
3.37501e-21
1.33359e-22
1.37475e-07
-3.71377e-18
6.05465e-22
4.26822e-21
1.39212e-22
1.66031e-07
-3.71541e-18
6.20716e-22
5.13154e-21
1.4531e-22
1.9578e-07
-3.71711e-18
6.36348e-22
6.02926e-21
1.51664e-22
2.26762e-07
-3.71885e-18
6.52376e-22
6.94887e-21
1.58283e-22
2.5902e-07
-3.72061e-18
6.68813e-22
7.87992e-21
1.65178e-22
2.92596e-07
-3.72239e-18
6.85669e-22
8.81569e-21
1.7236e-22
3.27536e-07
-3.72425e-18
7.02952e-22
9.78601e-21
1.7984e-22
3.63885e-07
-3.72619e-18
7.20672e-22
1.08316e-20
1.8763e-22
4.01691e-07
-3.7281e-18
7.38841e-22
1.17731e-20
1.95741e-22
4.41002e-07
-3.73e-18
7.57465e-22
1.27294e-20
2.04187e-22
4.81869e-07
-3.73198e-18
7.76555e-22
1.38056e-20
2.12981e-22
5.24345e-07
-3.73416e-18
7.96124e-22
1.48382e-20
2.22133e-22
5.68482e-07
-3.7362e-18
8.16186e-22
1.58269e-20
2.31657e-22
6.14336e-07
-3.73858e-18
8.36748e-22
1.69085e-20
2.4157e-22
6.61964e-07
-3.74067e-18
8.57833e-22
1.77929e-20
2.51887e-22
7.11424e-07
-3.7429e-18
8.79444e-22
1.89457e-20
2.62625e-22
7.62778e-07
-3.74538e-18
9.016e-22
2.02164e-20
2.73797e-22
8.16086e-07
-3.74785e-18
9.24316e-22
2.13331e-20
2.85416e-22
8.71413e-07
-3.75009e-18
9.47608e-22
2.24916e-20
2.97503e-22
9.28825e-07
-3.75241e-18
9.71484e-22
2.35957e-20
3.1007e-22
9.8839e-07
-3.75512e-18
9.95954e-22
2.47956e-20
3.23139e-22
1.05018e-06
-3.75778e-18
1.02104e-21
2.60537e-20
3.36721e-22
1.11426e-06
-3.76021e-18
1.04675e-21
2.70529e-20
3.50835e-22
1.1807e-06
-3.7626e-18
1.0731e-21
2.81084e-20
3.65503e-22
1.24959e-06
-3.76506e-18
1.10008e-21
2.92951e-20
3.80739e-22
1.32099e-06
-3.76795e-18
1.12772e-21
3.07864e-20
3.9656e-22
1.39499e-06
-3.77082e-18
1.15602e-21
3.20157e-20
4.12967e-22
1.47167e-06
-3.77382e-18
1.185e-21
3.34084e-20
4.29984e-22
1.55111e-06
-3.7768e-18
1.21464e-21
3.45023e-20
4.47626e-22
1.63339e-06
-3.77955e-18
1.24497e-21
3.56704e-20
4.65922e-22
1.71859e-06
-3.78261e-18
1.27597e-21
3.6697e-20
4.84874e-22
1.8068e-06
-3.7857e-18
1.30765e-21
3.7954e-20
5.04504e-22
1.89812e-06
-3.78899e-18
1.33999e-21
3.95114e-20
5.24817e-22
1.99261e-06
-3.79275e-18
1.37299e-21
4.12048e-20
5.45815e-22
2.09039e-06
-3.79642e-18
1.40664e-21
4.30543e-20
5.67486e-22
2.19152e-06
-3.80022e-18
1.44091e-21
4.44236e-20
5.89826e-22
2.2961e-06
-3.80368e-18
1.47578e-21
4.58932e-20
6.12859e-22
2.40421e-06
-3.80732e-18
1.51118e-21
4.73434e-20
6.36571e-22
2.51595e-06
-3.81074e-18
1.54709e-21
4.85492e-20
6.60959e-22
2.6314e-06
-3.81421e-18
1.58343e-21
4.99472e-20
6.86002e-22
2.75064e-06
-3.81733e-18
1.62013e-21
5.08613e-20
7.11673e-22
2.87374e-06
-3.82197e-18
1.65711e-21
5.26258e-20
7.37979e-22
3.0008e-06
-3.82605e-18
1.69432e-21
5.41762e-20
7.64845e-22
3.13188e-06
-3.83022e-18
1.73166e-21
5.55143e-20
7.92263e-22
3.26706e-06
-3.83446e-18
1.76902e-21
5.68898e-20
8.20192e-22
3.40639e-06
-3.83809e-18
1.80631e-21
5.80636e-20
8.48603e-22
3.54996e-06
-3.84154e-18
1.84338e-21
5.91769e-20
8.77442e-22
3.6978e-06
-3.84535e-18
1.88008e-21
6.00888e-20
9.0668e-22
3.84997e-06
-3.8493e-18
1.91631e-21
6.10311e-20
9.36291e-22
4.00652e-06
-3.85289e-18
1.95192e-21
6.09688e-20
9.66173e-22
4.16749e-06
-3.856e-18
1.9868e-21
6.20033e-20
9.9633e-22
4.3329e-06
-3.86229e-18
2.0208e-21
6.37114e-20
1.02666e-21
4.5028e-06
-3.86741e-18
2.0539e-21
6.63139e-20
1.05703e-21
4.6772e-06
-3.87194e-18
2.08599e-21
6.70916e-20
1.08732e-21
4.85611e-06
-3.87671e-18
2.11687e-21
6.90863e-20
1.11758e-21
5.03955e-06
-3.88195e-18
2.14648e-21
6.97297e-20
1.14765e-21
5.22752e-06
-3.88577e-18
2.17472e-21
7.16204e-20
1.17748e-21
5.42003e-06
-3.88975e-18
2.20148e-21
7.13457e-20
1.20687e-21
5.61707e-06
-3.89279e-18
2.22665e-21
7.19537e-20
1.23602e-21
5.81863e-06
-3.89687e-18
2.25011e-21
7.28053e-20
1.26482e-21
6.02472e-06
-3.90097e-18
2.27178e-21
7.3634e-20
1.29319e-21
6.23532e-06
-3.90389e-18
2.2917e-21
7.36499e-20
1.3211e-21
6.45042e-06
-3.90938e-18
2.30978e-21
7.54721e-20
1.34846e-21
6.67001e-06
-3.9144e-18
2.32616e-21
7.6285e-20
1.37528e-21
6.89408e-06
-3.91756e-18
2.34076e-21
7.76014e-20
1.40166e-21
7.12263e-06
-3.92271e-18
2.35347e-21
7.88139e-20
1.42748e-21
7.35565e-06
-3.9277e-18
2.36436e-21
7.97041e-20
1.45278e-21
7.59313e-06
-3.93297e-18
2.37337e-21
8.06587e-20
1.47761e-21
7.83508e-06
-3.935e-18
2.38057e-21
8.20189e-20
1.50206e-21
8.08149e-06
-3.93818e-18
2.38571e-21
8.22635e-20
1.5263e-21
8.33239e-06
-3.94213e-18
2.38895e-21
8.41031e-20
1.55021e-21
8.58777e-06
-3.94656e-18
2.39046e-21
8.54311e-20
1.57383e-21
8.84765e-06
-3.95082e-18
2.39032e-21
8.53199e-20
1.5972e-21
9.11206e-06
-3.9568e-18
2.38863e-21
8.47714e-20
1.62037e-21
9.38102e-06
-3.9601e-18
2.38571e-21
8.443e-20
1.64353e-21
9.65455e-06
-3.96355e-18
2.38132e-21
8.51299e-20
1.66655e-21
9.9327e-06
-3.96925e-18
2.37571e-21
8.3005e-20
1.68934e-21
1.02155e-05
-3.97307e-18
2.36928e-21
8.30949e-20
1.71212e-21
1.0503e-05
-3.97878e-18
2.36197e-21
8.50502e-20
1.73486e-21
1.07952e-05
-3.98476e-18
2.3539e-21
8.60893e-20
1.7575e-21
1.10923e-05
-3.98756e-18
2.34518e-21
8.76457e-20
1.78009e-21
1.13942e-05
-3.99371e-18
2.33558e-21
8.88601e-20
1.80243e-21
1.1701e-05
-3.99793e-18
2.32535e-21
9.04233e-20
1.82445e-21
1.20127e-05
-4.0022e-18
2.31449e-21
8.95684e-20
1.84631e-21
1.23296e-05
-4.00699e-18
2.30295e-21
9.01362e-20
1.86814e-21
1.26515e-05
-4.01098e-18
2.29077e-21
9.07439e-20
1.88979e-21
1.29787e-05
-4.01424e-18
2.27768e-21
9.28262e-20
1.91152e-21
1.33111e-05
-4.01895e-18
2.26331e-21
9.22168e-20
1.93353e-21
1.36489e-05
-4.02354e-18
2.24778e-21
8.96728e-20
1.95635e-21
1.39921e-05
-4.02495e-18
2.23119e-21
8.90494e-20
1.97992e-21
1.43409e-05
-4.03144e-18
2.21312e-21
9.17463e-20
2.00372e-21
1.46953e-05
-4.03138e-18
2.19442e-21
8.95839e-20
2.02792e-21
1.50555e-05
-4.03017e-18
2.17403e-21
8.78134e-20
2.05385e-21
1.54214e-05
-4.03761e-18
2.15196e-21
8.82922e-20
2.0807e-21
1.57933e-05
-4.03922e-18
2.13023e-21
8.78816e-20
2.10792e-21
1.61713e-05
-4.04318e-18
2.10786e-21
9.11597e-20
2.13484e-21
1.65553e-05
-4.0419e-18
2.08553e-21
8.41852e-20
2.16138e-21
1.69457e-05
-4.04207e-18
2.06147e-21
8.08338e-20
2.18904e-21
1.73424e-05
-4.04653e-18
2.03563e-21
8.45476e-20
2.21747e-21
1.77455e-05
-4.04674e-18
2.00973e-21
8.45166e-20
2.24445e-21
1.81553e-05
-4.04735e-18
1.98241e-21
8.3506e-20
2.2703e-21
1.85718e-05
-4.05684e-18
1.95389e-21
8.84666e-20
2.29631e-21
1.89951e-05
-4.05608e-18
1.92641e-21
8.94439e-20
2.31929e-21
1.94253e-05
-4.05622e-18
1.89715e-21
8.82731e-20
2.34123e-21
1.98627e-05
-4.05387e-18
1.86647e-21
8.37021e-20
2.36292e-21
2.03073e-05
-4.05653e-18
1.83422e-21
8.43678e-20
2.38381e-21
2.07592e-05
-4.05476e-18
1.79961e-21
7.93081e-20
2.40512e-21
2.12186e-05
-4.05481e-18
1.76156e-21
7.63146e-20
2.42716e-21
2.16857e-05
-4.05987e-18
1.721e-21
7.53373e-20
2.44862e-21
2.21604e-05
-4.0596e-18
1.67899e-21
7.19902e-20
2.47023e-21
2.26431e-05
-4.06525e-18
1.6342e-21
7.41695e-20
2.49336e-21
2.31339e-05
-4.06503e-18
1.59038e-21
7.07378e-20
2.51734e-21
2.36328e-05
-4.05888e-18
1.54384e-21
7.27528e-20
2.5431e-21
2.41401e-05
-4.05716e-18
1.49413e-21
6.51433e-20
2.56824e-21
2.46558e-05
-4.06505e-18
1.44217e-21
7.36993e-20
2.5967e-21
2.51802e-05
-4.06561e-18
1.39134e-21
7.35258e-20
2.62243e-21
2.57134e-05
-4.06783e-18
1.33888e-21
6.96729e-20
2.64843e-21
2.62556e-05
-4.06788e-18
1.28641e-21
6.85278e-20
2.67569e-21
2.68068e-05
-4.07411e-18
1.23258e-21
7.29023e-20
2.70198e-21
2.73674e-05
-4.0732e-18
1.17812e-21
6.83839e-20
2.72717e-21
2.79374e-05
-4.07101e-18
1.12207e-21
6.7089e-20
2.75444e-21
2.8517e-05
-4.07504e-18
1.06507e-21
6.71009e-20
2.78271e-21
2.91064e-05
-4.07104e-18
1.0094e-21
6.09333e-20
2.80824e-21
2.97057e-05
-4.06506e-18
9.50849e-22
6.27976e-20
2.83529e-21
3.03152e-05
-4.06157e-18
8.88152e-22
6.47272e-20
2.85993e-21
3.0935e-05
-4.06684e-18
8.24845e-22
6.05232e-20
2.88189e-21
3.15653e-05
-4.06704e-18
7.64507e-22
5.27675e-20
2.90339e-21
3.22063e-05
-4.06663e-18
7.02029e-22
5.29431e-20
2.92776e-21
3.28581e-05
-4.07058e-18
6.36192e-22
5.11238e-20
2.95216e-21
3.3521e-05
-4.06321e-18
5.69705e-22
4.5584e-20
2.97584e-21
3.41952e-05
-4.07085e-18
4.98615e-22
3.48929e-20
3.00302e-21
3.48808e-05
-4.07046e-18
4.27421e-22
3.33603e-20
3.03291e-21
3.55781e-05
-4.07881e-18
3.56113e-22
3.4601e-20
3.06319e-21
3.62872e-05
-4.07243e-18
2.89246e-22
2.7641e-20
3.09092e-21
3.70084e-05
-4.06189e-18
2.20293e-22
1.86315e-20
3.12036e-21
3.77418e-05
-4.05863e-18
1.40988e-22
9.76694e-21
3.1495e-21
3.84878e-05
-4.05161e-18
5.70734e-23
2.61238e-21
3.18075e-21
3.92464e-05
-4.0453e-18
-3.49537e-23
-1.17548e-20
3.21338e-21
4.00179e-05
-4.0466e-18
-1.35121e-22
-1.6157e-20
3.24729e-21
4.08026e-05
-4.04443e-18
-2.36199e-22
-3.08251e-20
3.27876e-21
4.16007e-05
-4.03915e-18
-3.37192e-22
-3.88027e-20
3.30811e-21
4.24123e-05
-4.03872e-18
-4.40447e-22
-4.98524e-20
3.33299e-21
4.32378e-05
-4.02334e-18
-5.42261e-22
-6.19186e-20
3.35201e-21
4.40773e-05
-4.0277e-18
-6.51923e-22
-6.90624e-20
3.36565e-21
4.49311e-05
-4.01643e-18
-7.60957e-22
-8.37437e-20
3.37612e-21
4.57995e-05
-4.01955e-18
-8.73683e-22
-9.858e-20
3.38723e-21
4.66827e-05
-4.00549e-18
-9.84729e-22
-1.08598e-19
3.39744e-21
4.75809e-05
-3.99607e-18
-1.10271e-21
-1.29985e-19
3.40324e-21
4.84945e-05
-3.97528e-18
-1.22033e-21
-1.40533e-19
3.4035e-21
4.94236e-05
-3.96152e-18
-1.34394e-21
-1.59028e-19
3.39409e-21
5.03685e-05
-3.94722e-18
-1.47615e-21
-1.74836e-19
3.38335e-21
5.13295e-05
-3.9364e-18
-1.61988e-21
-1.9359e-19
3.36833e-21
5.23069e-05
-3.92091e-18
-1.75092e-21
-2.09929e-19
3.35313e-21
5.33009e-05
-3.89546e-18
-1.88894e-21
-2.26357e-19
3.33309e-21
5.43119e-05
-3.86354e-18
-2.03356e-21
-2.53023e-19
3.29911e-21
5.534e-05
-3.84486e-18
-2.18436e-21
-2.64845e-19
3.2594e-21
5.63857e-05
-3.8352e-18
-2.33729e-21
-2.87724e-19
3.22975e-21
5.74491e-05
-3.83257e-18
-2.47746e-21
-2.9751e-19
3.20461e-21
5.85306e-05
-3.80313e-18
-2.59577e-21
-3.3003e-19
3.14699e-21
5.96305e-05
-3.7935e-18
-2.73563e-21
-3.50825e-19
3.09103e-21
6.07491e-05
-3.78025e-18
-2.86717e-21
-3.71449e-19
3.03047e-21
6.18867e-05
-3.75128e-18
-3.00419e-21
-3.98175e-19
2.95827e-21
6.30437e-05
-3.73914e-18
-3.16423e-21
-4.1545e-19
2.89966e-21
6.42203e-05
-3.70967e-18
-3.32494e-21
-4.32352e-19
2.81696e-21
6.54168e-05
-3.69976e-18
-3.50598e-21
-4.45521e-19
2.7471e-21
6.66337e-05
-3.6744e-18
-3.69563e-21
-4.68953e-19
2.67307e-21
6.78712e-05
-3.65769e-18
-3.89499e-21
-4.78875e-19
2.58851e-21
6.91297e-05
-3.62394e-18
-4.09224e-21
-5.06659e-19
2.49277e-21
7.04095e-05
-3.61516e-18
-4.3043e-21
-5.10595e-19
2.39688e-21
7.17111e-05
-3.59136e-18
-4.4794e-21
-5.319e-19
2.26146e-21
7.30346e-05
-3.56187e-18
-4.68194e-21
-5.58011e-19
2.11861e-21
7.43806e-05
-3.54831e-18
-4.89642e-21
-5.66582e-19
1.96598e-21
7.57493e-05
-3.5222e-18
-5.07718e-21
-5.87867e-19
1.78026e-21
7.71412e-05
-3.49264e-18
-5.26979e-21
-6.17695e-19
1.59523e-21
7.85566e-05
-3.46243e-18
-5.4835e-21
-6.32452e-19
1.43486e-21
7.9996e-05
-3.42586e-18
-5.69803e-21
-6.58835e-19
1.25833e-21
8.14596e-05
-3.40381e-18
-5.91805e-21
-6.8283e-19
1.07056e-21
8.2948e-05
-3.36614e-18
-6.12704e-21
-7.06237e-19
8.92276e-22
8.44615e-05
-3.32646e-18
-6.34679e-21
-7.20988e-19
7.579e-22
8.60005e-05
-3.28378e-18
-6.56504e-21
-7.45338e-19
5.90921e-22
8.75655e-05
-3.25553e-18
-6.8012e-21
-7.67598e-19
4.19245e-22
8.91568e-05
-3.21853e-18
-7.02821e-21
-7.86585e-19
2.35169e-22
9.0775e-05
-3.20376e-18
-7.26844e-21
-8.11359e-19
6.76799e-23
9.24203e-05
-3.16976e-18
-7.47725e-21
-8.26461e-19
-9.7181e-23
9.40934e-05
-3.12905e-18
-7.71898e-21
-8.56986e-19
-2.85867e-22
9.57946e-05
-3.08851e-18
-7.97544e-21
-8.74063e-19
-4.54032e-22
9.75243e-05
-3.04075e-18
-8.23482e-21
-9.04134e-19
-6.27934e-22
9.92832e-05
-3.00337e-18
-8.52745e-21
-9.27037e-19
-7.76111e-22
0.000101072
-2.95759e-18
-8.83079e-21
-9.41543e-19
-9.01825e-22
0.00010289
-2.9264e-18
-9.1782e-21
-9.5155e-19
-1.02096e-21
0.000104739
-2.88769e-18
-9.51872e-21
-9.69641e-19
-1.17013e-21
0.000106619
-2.85007e-18
-9.87644e-21
-9.94156e-19
-1.27002e-21
0.00010853
-2.81551e-18
-1.01847e-20
-1.02592e-18
-1.32516e-21
0.000110473
-2.77379e-18
-1.05174e-20
-1.04946e-18
-1.36486e-21
0.000112449
-2.72836e-18
-1.09079e-20
-1.06802e-18
-1.40054e-21
0.000114458
-2.6575e-18
-1.12877e-20
-1.09368e-18
-1.46297e-21
0.0001165
-2.62175e-18
-1.17044e-20
-1.10855e-18
-1.55308e-21
0.000118577
-2.56529e-18
-1.21065e-20
-1.1236e-18
-1.69514e-21
0.000120688
-2.52758e-18
-1.26235e-20
-1.15128e-18
-1.82102e-21
0.000122835
-2.51335e-18
-1.31885e-20
-1.14563e-18
-1.88626e-21
0.000125017
-2.50833e-18
-1.37688e-20
-1.14817e-18
-1.99666e-21
0.000127235
-2.49466e-18
-1.43455e-20
-1.16007e-18
-2.13638e-21
0.000129491
-2.4784e-18
-1.4807e-20
-1.15874e-18
-2.2073e-21
0.000131784
-2.47757e-18
-1.52955e-20
-1.15735e-18
-2.35755e-21
0.000134115
-2.46874e-18
-1.56852e-20
-1.16307e-18
-2.46937e-21
0.000136485
-2.42971e-18
-1.5981e-20
-1.15164e-18
-2.6355e-21
0.000138894
-2.43053e-18
-1.62071e-20
-1.13431e-18
-2.85083e-21
0.000141343
-2.40606e-18
-1.62861e-20
-1.13568e-18
-3.26592e-21
0.000143833
-2.38806e-18
-1.62987e-20
-1.13228e-18
-3.66964e-21
0.000146365
-2.38117e-18
-1.62906e-20
-1.13528e-18
-4.02253e-21
0.000148938
-2.32714e-18
-1.61218e-20
-1.14038e-18
-4.38152e-21
0.000151553
-2.32834e-18
-1.60627e-20
-1.14054e-18
-4.64928e-21
0.000154212
-2.30429e-18
-1.59893e-20
-1.15307e-18
-5.01343e-21
0.000156915
-2.28463e-18
-1.60192e-20
-1.17044e-18
-5.41546e-21
0.000159663
-2.26139e-18
-1.59308e-20
-1.18287e-18
-5.6243e-21
0.000162456
-2.24512e-18
-1.58277e-20
-1.16743e-18
-5.87437e-21
0.000165295
-2.22934e-18
-1.56238e-20
-1.18288e-18
-6.1616e-21
0.000168181
-2.23148e-18
-1.54281e-20
-1.19849e-18
-6.33079e-21
0.000171114
-2.19596e-18
-1.51511e-20
-1.21766e-18
-6.47585e-21
0.000174096
-2.16601e-18
-1.51594e-20
-1.23237e-18
-6.5273e-21
0.000177127
-2.15552e-18
-1.51932e-20
-1.23599e-18
-6.53773e-21
0.000180207
-2.14667e-18
-1.51161e-20
-1.24206e-18
-6.47219e-21
0.000183339
-2.15049e-18
-1.51411e-20
-1.24238e-18
-6.09969e-21
0.000186521
-2.13611e-18
-1.49706e-20
-1.24652e-18
-5.81088e-21
0.000189756
-2.12595e-18
-1.45358e-20
-1.26141e-18
-5.64335e-21
0.000193044
-2.13625e-18
-1.39786e-20
-1.27194e-18
-5.314e-21
0.000196386
-2.12979e-18
-1.3333e-20
-1.27445e-18
-4.8433e-21
0.000199782
-2.10393e-18
-1.25998e-20
-1.25785e-18
-4.38157e-21
0.000203234
-2.07809e-18
-1.19301e-20
-1.25136e-18
-4.25124e-21
0.000206743
-2.04782e-18
-1.15101e-20
-1.24781e-18
-4.17684e-21
0.000210308
-2.01548e-18
-1.12124e-20
-1.27067e-18
-4.04714e-21
0.000213932
-2.00261e-18
-1.09804e-20
-1.24092e-18
-3.77518e-21
0.000217615
-1.98015e-18
-1.06259e-20
-1.20382e-18
-3.81277e-21
0.000221359
-1.97536e-18
-1.04342e-20
-1.20829e-18
-4.2837e-21
0.000225162
-1.95183e-18
-1.00004e-20
-1.1862e-18
-4.43305e-21
0.000229028
-1.95931e-18
-9.58788e-21
-1.17305e-18
-4.47537e-21
0.000232957
-1.95275e-18
-8.84972e-21
-1.15645e-18
-4.48121e-21
0.00023695
-1.94811e-18
-8.14935e-21
-1.12987e-18
-4.73179e-21
0.000241007
-1.87493e-18
-7.43631e-21
-1.15892e-18
-4.99325e-21
0.00024513
-1.86812e-18
-7.30546e-21
-1.17774e-18
-4.97641e-21
0.00024932
-1.81388e-18
-6.8668e-21
-1.20027e-18
-5.00645e-21
0.000253577
-1.78152e-18
-6.07409e-21
-1.20886e-18
-5.04298e-21
0.000257904
-1.63805e-18
-5.54576e-21
-1.19468e-18
-5.5033e-21
0.0002623
-1.6606e-18
-6.21348e-21
-1.22491e-18
-6.34013e-21
0.000266767
-1.57962e-18
-5.30366e-21
-1.21421e-18
-7.12711e-21
0.000271307
-1.53008e-18
-4.2863e-21
-1.24563e-18
-7.5417e-21
0.000275919
-1.43803e-18
-3.22458e-21
-1.23258e-18
-7.39935e-21
0.000280605
-1.43167e-18
-3.77998e-21
-1.23105e-18
-6.60122e-21
0.000285367
-1.40215e-18
-3.98474e-21
-1.19314e-18
-5.77829e-21
0.000290205
-1.42107e-18
-4.67372e-21
-1.12724e-18
-4.88302e-21
0.000295121
-1.33216e-18
-3.94166e-21
-1.17197e-18
-4.2048e-21
0.000300115
-1.30802e-18
-3.99792e-21
-1.1839e-18
-3.82276e-21
0.00030519
-1.35238e-18
-4.09547e-21
-1.13536e-18
-3.13434e-21
0.000310345
-1.27486e-18
-2.6974e-21
-1.0773e-18
-2.69651e-21
0.000315583
-1.24856e-18
-1.85098e-21
-1.07916e-18
-2.79172e-21
0.000320904
-1.25933e-18
-1.97171e-21
-1.07357e-18
-1.42902e-21
0.00032631
-1.16278e-18
-1.32416e-21
-1.1059e-18
-6.02489e-22
0.000331801
-1.15372e-18
-1.05109e-21
-1.11212e-18
2.81697e-22
0.00033738
-1.09911e-18
-1.20035e-21
-1.09813e-18
1.27649e-21
0.000343047
-1.10508e-18
-1.20504e-21
-1.03692e-18
1.81187e-21
0.000348804
-1.03657e-18
-6.87687e-22
-1.04254e-18
5.39471e-22
0.000354651
-1.0484e-18
-1.09383e-21
-1.00611e-18
-6.13935e-23
0.000360591
-1.01313e-18
-1.40128e-21
-1.00925e-18
-3.60115e-22
0.000366625
-9.70267e-19
-1.50792e-21
-9.35321e-19
2.89182e-22
0.000372753
-9.25572e-19
5.06753e-22
-9.43422e-19
-1.51761e-21
0.000378977
-8.46813e-19
1.87054e-21
-9.42563e-19
-2.03576e-21
0.000385299
-8.33515e-19
6.01289e-22
-9.42555e-19
-2.49359e-21
0.000391719
-8.87645e-19
-1.41231e-21
-9.92974e-19
-3.68963e-21
0.00039824
-8.797e-19
-3.27552e-21
-1.02251e-18
-4.13907e-21
0.000404862
-9.00519e-19
-6.73478e-21
-1.0421e-18
-4.09742e-21
0.000411586
-9.70827e-19
-9.70512e-21
-9.79083e-19
-4.24548e-21
0.000418415
-9.99657e-19
-1.18863e-20
-9.81998e-19
-6.31654e-21
0.00042535
-1.06584e-18
-1.38524e-20
-9.97934e-19
-8.55538e-21
0.000432391
-1.05079e-18
-1.28741e-20
-1.04304e-18
-1.04029e-20
0.00043954
-1.07355e-18
-1.17702e-20
-1.12073e-18
-9.76558e-21
0.000446799
-1.01599e-18
-1.05933e-20
-1.04476e-18
-7.72537e-21
0.000454169
-1.00005e-18
-1.06925e-20
-1.07734e-18
-9.16413e-21
0.00046165
-1.09292e-18
-1.16504e-20
-9.71157e-19
-1.16014e-20
0.000469246
-1.08209e-18
-1.28733e-20
-9.92393e-19
-1.51982e-20
0.000476956
-1.04277e-18
-1.2819e-20
-9.52061e-19
-1.66066e-20
0.000484783
-1.05191e-18
-1.48541e-20
-9.52476e-19
-1.83534e-20
0.000492726
-9.33436e-19
-1.42311e-20
-1.03981e-18
-2.32016e-20
0.000500789
-1.02208e-18
-1.4991e-20
-1.0204e-18
-2.47081e-20
0.000508971
-1.10681e-18
-1.76403e-20
-1.02375e-18
-2.30666e-20
0.000517275
-1.05373e-18
-1.67101e-20
-1.05002e-18
-2.33091e-20
0.000525701
-9.94173e-19
-1.76232e-20
-9.99805e-19
-2.45395e-20
0.00053425
-9.34746e-19
-2.22293e-20
-1.00709e-18
-2.41239e-20
0.000542923
-8.7037e-19
-2.61848e-20
-1.02333e-18
-2.0642e-20
0.000551723
-9.37317e-19
-3.29057e-20
-1.0011e-18
-1.85321e-20
0.000560648
-1.07417e-18
-3.81561e-20
-1.05004e-18
-2.1476e-20
0.000569701
-1.03716e-18
-3.64783e-20
-1.07453e-18
-2.54587e-20
0.000578882
-1.04558e-18
-3.87667e-20
-1.00286e-18
-3.28192e-20
0.000588192
-1.00543e-18
-4.03278e-20
-1.09594e-18
-3.67633e-20
0.000597632
-1.04105e-18
-3.8517e-20
-1.02934e-18
-3.20387e-20
0.000607201
-1.11335e-18
-3.72102e-20
-1.07246e-18
-3.70627e-20
0.000616901
-1.07596e-18
-3.09699e-20
-1.06722e-18
-3.96564e-20
0.000626732
-1.14212e-18
-2.70382e-20
-1.07745e-18
-3.90834e-20
0.000636693
-1.16031e-18
-2.21094e-20
-1.08795e-18
-4.2024e-20
0.000646784
-1.13132e-18
-2.85532e-20
-1.06626e-18
-4.6518e-20
0.000657006
-1.17853e-18
-4.07158e-20
-1.23481e-18
-5.06197e-20
0.000667357
-1.21281e-18
-4.43394e-20
-1.23986e-18
-4.77367e-20
0.000677837
-1.19691e-18
-4.41219e-20
-1.22482e-18
-3.60855e-20
0.000688444
-1.22462e-18
-4.16546e-20
-1.1647e-18
-3.40212e-20
0.000699178
-1.20125e-18
-3.70279e-20
-1.16703e-18
-3.76632e-20
0.000710035
-1.12336e-18
-3.52523e-20
-1.17299e-18
-4.01836e-20
0.000721015
-1.1354e-18
-4.00583e-20
-1.17645e-18
-4.1644e-20
0.000732115
-1.16196e-18
-4.81077e-20
-1.14268e-18
-4.67501e-20
0.000743331
-1.1527e-18
-4.47971e-20
-1.25416e-18
-4.943e-20
0.00075466
-1.10321e-18
-4.68758e-20
-1.1819e-18
-4.98927e-20
0.000766099
-1.30654e-18
-5.06677e-20
-1.22435e-18
-4.77461e-20
0.000777643
-1.21362e-18
-3.66555e-20
-1.19926e-18
-5.12827e-20
0.000789287
-1.19954e-18
-2.58742e-20
-1.19785e-18
-4.67311e-20
0.000801027
-1.13877e-18
-1.42753e-20
-1.16003e-18
-4.0466e-20
0.000812856
-1.09005e-18
-1.72559e-21
-1.04906e-18
-4.54804e-20
0.000824771
-4.97825e-21
-1.05217e-18
-4.3755e-20
-1.0361e-18
1.12521e-08
9.05411e-23
5.20598e-23
3.44105e-08
5.91826e-22
2.14201e-22
5.85766e-08
1.10996e-21
3.8549e-22
8.37853e-08
1.63685e-21
5.62371e-22
1.10072e-07
2.18144e-21
7.48582e-22
1.37475e-07
2.7381e-21
9.47549e-22
1.66031e-07
3.26625e-21
1.15986e-21
1.9578e-07
3.84746e-21
1.36419e-21
2.26762e-07
4.44306e-21
1.57053e-21
2.5902e-07
5.13256e-21
1.76341e-21
2.92596e-07
5.69881e-21
2.06769e-21
3.27536e-07
6.3197e-21
2.2256e-21
3.63885e-07
7.01899e-21
2.48111e-21
4.01691e-07
7.66998e-21
2.76502e-21
4.41002e-07
8.31736e-21
3.0407e-21
4.81869e-07
9.13564e-21
3.32463e-21
5.24345e-07
9.85463e-21
3.59807e-21
5.68482e-07
1.05243e-20
3.91448e-21
6.14336e-07
1.14636e-20
4.32029e-21
6.61964e-07
1.2159e-20
4.6155e-21
7.11424e-07
1.30608e-20
4.93658e-21
7.62778e-07
1.38917e-20
5.22224e-21
8.16086e-07
1.49826e-20
5.61761e-21
8.71413e-07
1.57261e-20
5.96419e-21
9.28825e-07
1.64098e-20
6.6249e-21
9.8839e-07
1.73601e-20
7.06667e-21
1.05018e-06
1.79979e-20
7.55891e-21
1.11426e-06
1.89361e-20
8.06873e-21
1.1807e-06
1.97268e-20
8.54968e-21
1.24959e-06
2.0664e-20
9.06303e-21
1.32099e-06
2.16774e-20
9.40403e-21
1.39499e-06
2.27979e-20
9.86681e-21
1.47167e-06
2.38462e-20
1.01591e-20
1.55111e-06
2.51216e-20
1.08567e-20
1.63339e-06
2.62881e-20
1.15495e-20
1.71859e-06
2.74518e-20
1.2681e-20
1.8068e-06
2.86226e-20
1.35598e-20
1.89812e-06
2.99032e-20
1.42556e-20
1.99261e-06
3.15069e-20
1.47262e-20
2.09039e-06
3.30371e-20
1.54311e-20
2.19152e-06
3.48266e-20
1.63294e-20
2.2961e-06
3.59112e-20
1.68762e-20
2.40421e-06
3.69402e-20
1.81649e-20
2.51595e-06
3.78944e-20
1.91998e-20
2.6314e-06
3.93548e-20
1.99138e-20
2.75064e-06
4.05807e-20
2.12356e-20
2.87374e-06
4.18795e-20
2.19971e-20
3.0008e-06
4.29512e-20
2.34318e-20
3.13188e-06
4.45188e-20
2.47113e-20
3.26706e-06
4.57341e-20
2.62111e-20
3.40639e-06
4.70737e-20
2.72668e-20
3.54996e-06
4.79731e-20
2.8632e-20
3.6978e-06
4.93926e-20
3.00678e-20
3.84997e-06
5.0669e-20
3.10287e-20
4.00652e-06
5.26275e-20
3.28625e-20
4.16749e-06
5.49162e-20
3.44346e-20
4.3329e-06
5.658e-20
3.57892e-20
4.5028e-06
5.91652e-20
3.70458e-20
4.6772e-06
6.09128e-20
3.91831e-20
4.85611e-06
6.2627e-20
4.10616e-20
5.03955e-06
6.39918e-20
4.23772e-20
5.22752e-06
6.6794e-20
4.29645e-20
5.42003e-06
6.8433e-20
4.50857e-20
5.61707e-06
6.98362e-20
4.67263e-20
5.81863e-06
6.97761e-20
4.81015e-20
6.02472e-06
7.07524e-20
5.03966e-20
6.23532e-06
7.20789e-20
5.16727e-20
6.45042e-06
7.35465e-20
5.44851e-20
6.67001e-06
7.48405e-20
5.73232e-20
6.89408e-06
7.72711e-20
5.89999e-20
7.12263e-06
7.96279e-20
6.09949e-20
7.35565e-06
8.13515e-20
6.26424e-20
7.59313e-06
8.35321e-20
6.44103e-20
7.83508e-06
8.50921e-20
6.78725e-20
8.08149e-06
8.68784e-20
6.81892e-20
8.33239e-06
8.85936e-20
7.08408e-20
8.58777e-06
9.02987e-20
7.35668e-20
8.84765e-06
9.2705e-20
7.44681e-20
9.11206e-06
9.62438e-20
7.66785e-20
9.38102e-06
9.8192e-20
7.76985e-20
9.65455e-06
9.99959e-20
8.05179e-20
9.9327e-06
1.02375e-19
8.26558e-20
1.02155e-05
1.05439e-19
8.47066e-20
1.0503e-05
1.06574e-19
8.76275e-20
1.07952e-05
1.07829e-19
9.12364e-20
1.10923e-05
1.10019e-19
9.41355e-20
1.13942e-05
1.10706e-19
9.69431e-20
1.1701e-05
1.12303e-19
1.0135e-19
1.20127e-05
1.14329e-19
1.03189e-19
1.23296e-05
1.17202e-19
1.04526e-19
1.26515e-05
1.19235e-19
1.07459e-19
1.29787e-05
1.198e-19
1.09957e-19
1.33111e-05
1.20203e-19
1.12788e-19
1.36489e-05
1.22087e-19
1.15461e-19
1.39921e-05
1.24089e-19
1.15409e-19
1.43409e-05
1.26125e-19
1.17546e-19
1.46953e-05
1.25487e-19
1.23509e-19
1.50555e-05
1.2534e-19
1.26499e-19
1.54214e-05
1.30564e-19
1.33228e-19
1.57933e-05
1.33312e-19
1.35245e-19
1.61713e-05
1.37549e-19
1.3907e-19
1.65553e-05
1.38413e-19
1.42013e-19
1.69457e-05
1.3867e-19
1.45927e-19
1.73424e-05
1.45324e-19
1.47145e-19
1.77455e-05
1.48815e-19
1.48261e-19
1.81553e-05
1.51325e-19
1.56216e-19
1.85718e-05
1.55602e-19
1.56972e-19
1.89951e-05
1.54522e-19
1.64822e-19
1.94253e-05
1.54141e-19
1.72608e-19
1.98627e-05
1.55249e-19
1.74267e-19
2.03073e-05
1.49277e-19
1.84639e-19
2.07592e-05
1.45628e-19
1.90588e-19
2.12186e-05
1.467e-19
1.9122e-19
2.16857e-05
1.48143e-19
1.93492e-19
2.21604e-05
1.48786e-19
1.9844e-19
2.26431e-05
1.59503e-19
2.05904e-19
2.31339e-05
1.59414e-19
2.1246e-19
2.36328e-05
1.60955e-19
2.14184e-19
2.41401e-05
1.60972e-19
2.21695e-19
2.46558e-05
1.65445e-19
2.24047e-19
2.51802e-05
1.66274e-19
2.28686e-19
2.57134e-05
1.69229e-19
2.35793e-19
2.62556e-05
1.67188e-19
2.42066e-19
2.68068e-05
1.61497e-19
2.51403e-19
2.73674e-05
1.61949e-19
2.60669e-19
2.79374e-05
1.65253e-19
2.7143e-19
2.8517e-05
1.65814e-19
2.75544e-19
2.91064e-05
1.61242e-19
2.87479e-19
2.97057e-05
1.55551e-19
2.90538e-19
3.03152e-05
1.57357e-19
2.92775e-19
3.0935e-05
1.61928e-19
2.97665e-19
3.15653e-05
1.59744e-19
3.07343e-19
3.22063e-05
1.58427e-19
3.14389e-19
3.28581e-05
1.62239e-19
3.13283e-19
3.3521e-05
1.67232e-19
3.21334e-19
3.41952e-05
1.67931e-19
3.25741e-19
3.48808e-05
1.77899e-19
3.29544e-19
3.55781e-05
1.89272e-19
3.29139e-19
3.62872e-05
2.00225e-19
3.37027e-19
3.70084e-05
1.98749e-19
3.38467e-19
3.77418e-05
2.00589e-19
3.41768e-19
3.84878e-05
1.98139e-19
3.50981e-19
3.92464e-05
1.93792e-19
3.53668e-19
4.00179e-05
1.91161e-19
3.5434e-19
4.08026e-05
1.9009e-19
3.53019e-19
4.16007e-05
1.85016e-19
3.61108e-19
4.24123e-05
1.83e-19
3.64398e-19
4.32378e-05
1.84499e-19
3.63245e-19
4.40773e-05
1.79552e-19
3.65838e-19
4.49311e-05
1.81443e-19
3.69379e-19
4.57995e-05
1.78584e-19
3.67403e-19
4.66827e-05
1.7736e-19
3.70083e-19
4.75809e-05
1.78399e-19
3.67747e-19
4.84945e-05
1.8198e-19
3.65752e-19
4.94236e-05
1.77913e-19
3.68884e-19
5.03685e-05
1.67315e-19
3.72826e-19
5.13295e-05
1.82935e-19
3.73426e-19
5.23069e-05
1.79897e-19
3.71592e-19
5.33009e-05
1.80177e-19
3.7328e-19
5.43119e-05
1.76766e-19
3.74231e-19
5.534e-05
1.65317e-19
3.92272e-19
5.63857e-05
1.66625e-19
3.9633e-19
5.74491e-05
1.80605e-19
3.8177e-19
5.85306e-05
1.85839e-19
3.81157e-19
5.96305e-05
2.00537e-19
3.84792e-19
6.07491e-05
1.99118e-19
3.81645e-19
6.18867e-05
1.95043e-19
4.0065e-19
6.30437e-05
1.91888e-19
3.91628e-19
6.42203e-05
1.86435e-19
4.17051e-19
6.54168e-05
1.71681e-19
4.29463e-19
6.66337e-05
1.68589e-19
4.17984e-19
6.78712e-05
1.67838e-19
4.21847e-19
6.91297e-05
1.70122e-19
4.25356e-19
7.04095e-05
1.87015e-19
4.22614e-19
7.17111e-05
1.73432e-19
4.18219e-19
7.30346e-05
1.8282e-19
4.0877e-19
7.43806e-05
2.06462e-19
4.11713e-19
7.57493e-05
2.0667e-19
4.0979e-19
7.71412e-05
2.03316e-19
4.10109e-19
7.85566e-05
2.11653e-19
4.16087e-19
7.9996e-05
2.22557e-19
4.11519e-19
8.14596e-05
2.30774e-19
4.0597e-19
8.2948e-05
2.29352e-19
4.16531e-19
8.44615e-05
2.27029e-19
4.02169e-19
8.60005e-05
2.15932e-19
4.03417e-19
8.75655e-05
2.02137e-19
3.95763e-19
8.91568e-05
1.83135e-19
4.06231e-19
9.0775e-05
1.72456e-19
4.03772e-19
9.24203e-05
1.5121e-19
3.96907e-19
9.40934e-05
1.47235e-19
3.94645e-19
9.57946e-05
1.51889e-19
3.9171e-19
9.75243e-05
1.47269e-19
3.88733e-19
9.92832e-05
1.42854e-19
3.81042e-19
0.000101072
1.41062e-19
3.71933e-19
0.00010289
1.52013e-19
3.5584e-19
0.000104739
1.59796e-19
3.61361e-19
0.000106619
1.91044e-19
3.62404e-19
0.00010853
1.90763e-19
3.60149e-19
0.000110473
1.92723e-19
3.5966e-19
0.000112449
2.19974e-19
3.57216e-19
0.000114458
2.46796e-19
3.60591e-19
0.0001165
2.59904e-19
3.59253e-19
0.000118577
2.52067e-19
3.63046e-19
0.000120688
2.46989e-19
3.53071e-19
0.000122835
2.31642e-19
3.44578e-19
0.000125017
2.15475e-19
3.34104e-19
0.000127235
2.35756e-19
3.36361e-19
0.000129491
2.12492e-19
3.12861e-19
0.000131784
2.06239e-19
3.21724e-19
0.000134115
1.9068e-19
2.89284e-19
0.000136485
1.85854e-19
2.98797e-19
0.000138894
1.56724e-19
2.74878e-19
0.000141343
1.40266e-19
2.62604e-19
0.000143833
1.21188e-19
2.60216e-19
0.000146365
1.25262e-19
2.38348e-19
0.000148938
1.04426e-19
2.40963e-19
0.000151553
6.28819e-20
2.13507e-19
0.000154212
2.22193e-20
1.87871e-19
0.000156915
2.61693e-20
2.0163e-19
0.000159663
1.8387e-20
1.905e-19
0.000162456
3.10151e-20
2.17433e-19
0.000165295
2.66346e-20
2.04831e-19
0.000168181
2.04449e-20
1.77306e-19
0.000171114
-1.04361e-20
1.95634e-19
0.000174096
5.99605e-21
1.82282e-19
0.000177127
2.0463e-20
1.51259e-19
0.000180207
-1.7431e-23
1.77619e-19
0.000183339
1.02851e-20
1.65324e-19
0.000186521
4.03458e-20
1.31507e-19
0.000189756
4.85541e-20
1.17743e-19
0.000193044
3.02858e-20
1.1131e-19
0.000196386
2.70686e-20
1.0539e-19
0.000199782
2.71493e-20
8.20201e-20
0.000203234
4.14872e-23
7.96601e-20
0.000206743
-4.88285e-21
6.89296e-20
0.000210308
1.49606e-21
5.32238e-20
0.000213932
9.91671e-21
5.43704e-20
0.000217615
-1.4749e-20
4.20175e-20
0.000221359
-2.44559e-20
4.44494e-20
0.000225162
-5.33085e-20
5.04476e-20
0.000229028
-6.93363e-20
7.7381e-20
0.000232957
-1.17574e-19
5.68171e-20
0.00023695
-1.43881e-19
7.23986e-20
0.000241007
-1.5332e-19
5.65862e-20
0.00024513
-1.48088e-19
4.93925e-22
0.00024932
-1.06124e-19
2.15391e-20
0.000253577
-1.45044e-19
1.83984e-20
0.000257904
-1.46121e-19
-2.85447e-20
0.0002623
-5.66958e-20
-7.2205e-20
0.000266767
-1.30161e-20
-4.82369e-20
0.000271307
-9.90891e-23
-6.98772e-20
0.000275919
-8.23215e-20
-2.23658e-20
0.000280605
-8.38933e-20
-4.82818e-20
0.000285367
-1.17866e-19
-3.80197e-20
0.000290205
-5.55044e-20
1.74731e-20
0.000295121
-4.29752e-20
-3.01344e-20
0.000300115
-2.68149e-20
-2.99221e-20
0.00030519
-7.46104e-22
-2.12687e-20
0.000310345
2.20163e-20
-1.39285e-20
0.000315583
-1.70356e-20
6.60413e-20