/*--------------------------------*- C++ -*----------------------------------*\
| =========                 |                                                 |
| \\      /  F ield         | OpenFOAM: The Open Source CFD Toolbox           |
|  \\    /   O peration     | Version:  2012                                  |
|   \\  /    A nd           | Website:  www.openfoam.com                      |
|    \\/     M anipulation  |                                                 |
\*---------------------------------------------------------------------------*/
FoamFile
{
    version     2.0;
    format      ascii;
    class       volTensorField;
    location    "12000";
    object      grad(U);
}
// * * * * * * * * * * * * * * * * * * * * * * * * * * * * * * * * * * * * * //

dimensions      [0 0 -1 0 0 0 0];


internalField   nonuniform List<tensor> 
2560
(
(0 -1.28767e-14 1.25302e-13 409.936 0 3.12975 0.59431 -5.42101e-20 0.0052973)
(0 0 0 409.457 0.0222659 0.000253081 0.59431 -0.000381871 -0.00528151)
(0 1.40814e-19 9.99212e-16 408.38 0.00111462 -8.19967e-21 1.78647 6.13333e-05 8.67362e-19)
(0 -1.0561e-19 1.12651e-18 407.912 0.139752 -0.000166352 1.78648 6.04718e-05 -0.00754028)
(-7.67177e-17 -1.04097e-19 1.11036e-18 407.01 -0.0775819 -1.6176 2.43916 2.93143e-05 0.00529623)
(0 2.38555e-19 -2.22073e-18 406.567 0.0562411 -5.49066e-05 2.4366 2.80327e-05 -0.00528042)
(2.42114e-16 -1.01378e-18 1.09445e-18 405.637 -0.0409926 -1.27615 2.46629 -1.68699e-06 0.00274072)
(0 2.03606e-19 -1.09445e-18 405.229 0.0314634 -1.8853e-05 2.46393 -3.16403e-06 -0.00273254)
(1.10465e-15 -4.74395e-19 1.07876e-18 404.274 -0.0164593 -0.607944 2.49377 1.07959e-06 0.00144738)
(0 5.42114e-19 -5.39382e-19 403.906 0.0172144 -5.80953e-06 2.49163 -8.65731e-07 -0.00144306)
(1.66749e-15 -2.03263e-19 1.32913e-19 402.798 -0.0104601 -0.270903 2.52004 7.802e-07 0.000881337)
(4.63149e-15 2.71017e-19 -1.32913e-19 402.473 0.0104856 -1.03084e-06 2.51814 -9.5593e-07 -0.000878706)
(3.23072e-16 -2.03292e-19 0 401.005 -0.0072549 -0.135611 2.54401 1.27016e-06 0.000606501)
(1.92828e-15 3.3881e-19 -1.31008e-19 400.723 0.00715997 -3.24167e-07 2.54234 -6.65297e-07 -0.00060469)
(-9.23626e-16 2.70997e-19 -1.2913e-19 398.808 -0.00542235 -0.0770464 2.56552 5.46712e-07 0.000454099)
(3.6953e-15 -2.03279e-19 6.4565e-20 398.567 0.00550171 -1.20608e-07 2.56409 -1.34683e-06 -0.000452743)
(3.18393e-15 -2.03286e-19 1.27279e-19 396.415 -0.00427746 -0.0482493 2.5872 1.59467e-06 0.000360152)
(0 2.71059e-19 -1.27279e-19 396.214 0.00423149 -3.55763e-08 2.58601 -4.25333e-07 -0.000359076)
(0 2.71002e-19 -1.25455e-19 394.256 -0.00350323 -0.0324444 2.61198 4.26445e-07 0.000250447)
(0 -2.03252e-19 6.27275e-20 394.091 0.00363066 -3.28765e-08 2.61101 -1.60963e-06 -0.000296652)
(-1.45224e-15 -4.7434e-19 8.21315e-20 392.394 -0.00298182 -0.0230002 2.6379 2.07437e-06 0.000176862)
(-2.026e-15 5.42086e-19 -1.23657e-19 392.265 0.00296361 -3.42024e-09 2.63714 -8.55519e-08 -0.000252568)
(3.62843e-15 -9.48653e-19 2.56285e-19 390.687 -0.00263671 -0.0169752 2.66515 3.73783e-07 0.000130515)
(0 8.81045e-19 -2.13298e-19 390.589 0.00269773 2.06019e-09 2.66458 -1.93953e-06 -0.000220038)
(0 -1.35507e-19 6.00689e-20 389.239 -0.00242743 -0.0129595 2.6951 2.33779e-06 9.96708e-05)
(0 2.03202e-19 -6.00689e-20 389.17 0.0409671 0.000143302 2.69472 4.87512e-07 -0.000195195)
(-3.93523e-15 4.73663e-19 -4.30636e-20 387.93 -0.00239658 -0.0100922 2.7248 0.000134018 7.86361e-05)
(7.98054e-15 2.52778e-34 0 387.887 -1.38801e-17 1.81938e-06 2.72458 0 -0.000175099)
(0 -3.83663e-17 -1.45898e-19 386.314 -0.000263061 -0.00807496 2.75097 -9.32152e-07 6.2241e-05)
(0 -5.83593e-19 1.45898e-19 386.294 0.118945 0.0001968 2.75091 -0.000267306 -0.000160083)
(-2.36854e-15 0 1.56916e-20 384.044 -0.00286785 -0.00650128 2.77175 0.000559907 5.214e-05)
(9.47412e-15 -4.81482e-35 -2.87614e-20 384.044 -2.15331e-17 6.48051e-06 2.77181 -5.37393e-35 -0.000145879)
(0 -3.4215e-17 -1.41746e-19 381.015 3.30984e-17 -0.00527651 2.78705 0 4.12702e-05)
(-1.02349e-14 7.35825e-16 1.41746e-19 381.032 0.0865714 -0.000221794 2.78723 -0.00031575 -0.000136793)
(0 1.5648e-18 -8.38287e-20 377.635 -0.00213458 -0.00443263 2.80254 0.000913211 3.56691e-05)
(-1.09998e-14 -3.79399e-19 8.38287e-20 377.666 -3.4193e-17 2.27593e-06 2.80282 0 -0.000127499)
(3.61004e-15 0 6.8856e-20 374.888 -0.000470771 -0.00372307 2.82714 -0.000153266 2.98978e-05)
(0 1.16495e-29 -8.26272e-20 374.93 3.71854e-17 -4.6809e-06 2.8275 0 -0.000120448)
(3.13209e-15 1.30309e-18 -5.56648e-20 373.559 -0.00238162 -0.0031555 2.86425 0.00104812 2.59814e-05)
(-1.25281e-14 -5.80733e-19 9.50168e-20 373.61 -3.62958e-20 8.47072e-07 2.86467 0 -0.000113583)
(0 -2.14068e-19 -1.20413e-19 373.518 -0.000216105 -0.00269351 2.90931 -0.000612988 2.2064e-05)
(0 3.16004e-19 1.20413e-19 373.575 4.16136e-17 -5.88468e-06 2.90978 0 -0.000108475)
(-6.29846e-17 -6.33001e-19 1.53199e-21 374.011 -0.00230934 -0.00231509 2.95594 0.00118199 1.95497e-05)
(-3.45703e-15 -1.54074e-33 -3.95625e-20 374.074 -4.15924e-17 -1.77185e-07 2.95646 2.92822e-34 -0.000103228)
(6.50362e-15 2.79408e-20 1.31465e-19 374.443 0.000290287 -0.00206345 3.00145 -0.00106777 1.67331e-05)
(0 0 -1.42984e-19 374.509 -1.44312e-35 0.000271077 3.002 2.1684e-19 -9.94376e-05)
(0 1.84496e-18 -5.12488e-20 374.686 -0.00266649 -0.00173038 3.04648 0.00158291 1.60899e-05)
(-1.56831e-14 -6.58197e-19 8.96854e-20 374.755 -5.48498e-20 5.26488e-06 3.04705 -2.1684e-19 -9.39547e-05)
(4.12596e-15 -8.08229e-19 -6.45373e-20 374.842 0.000462232 -0.00151259 3.09194 -0.00193728 1.18084e-05)
(0 4.81482e-35 7.57714e-20 374.911 3.6493e-32 8.52706e-05 3.09252 -2.1684e-19 -9.2484e-05)
(-8.66842e-15 3.5849e-18 -9.54197e-20 374.947 -0.00310606 -0.00129752 3.13749 0.00230873 1.29689e-05)
(0 9.62965e-35 7.46854e-20 375.016 -7.70769e-17 1.08718e-05 3.13807 -4.33681e-19 -8.74059e-05)
(1.36373e-14 1.57045e-18 1.18693e-19 374.914 0.000941259 -0.00105546 3.18197 -0.00273994 8.55528e-06)
(3.63655e-14 0 -8.58842e-20 374.983 9.71445e-17 -0.000260338 3.18254 -3.84124e-30 -8.71008e-05)
(0 -3.48288e-18 8.46532e-20 374.62 -0.00332687 -0.00097623 3.22433 0.00283186 9.23937e-06)
(1.90425e-14 0 -8.46532e-20 374.686 -9.18649e-17 6.98229e-06 3.22489 0 -8.40503e-05)
(4.97883e-15 -1.14432e-18 -2.52505e-20 374.027 0.00156912 -0.000850771 3.2648 -0.00299868 7.44113e-06)
(0 4.16428e-19 1.192e-20 374.09 1.04107e-19 2.79404e-06 3.26534 -4.33681e-19 -8.29246e-05)
(-1.03992e-14 0 -2.0337e-20 373.333 -0.00373404 -0.000742475 3.30648 0.00309676 7.31766e-06)
(-4.15963e-14 -4.2948e-18 0 373.392 -6.83152e-18 1.80736e-06 3.30699 -4.33681e-19 -8.03495e-05)
(-5.42216e-15 -1.11175e-18 -6.81968e-20 373.098 0.00219367 -0.00064935 3.35621 -0.00326875 5.73915e-06)
(-2.776e-14 2.26956e-18 3.47422e-20 373.152 1.0397e-16 -1.13853e-05 3.35667 0 -7.96738e-05)
(0 3.65273e-18 -9.13181e-20 374.175 -0.00428632 -0.000570359 3.42299 0.00336892 5.85702e-06)
(-2.25829e-14 -1.40174e-18 9.13181e-20 374.223 1.16812e-19 -1.90182e-06 3.42341 -4.33681e-19 -7.75001e-05)
(0 2.16022e-18 4.50047e-20 377.404 0.00297006 -0.00049964 3.51431 -0.00354058 4.46582e-06)
(2.34824e-14 0 -4.50047e-20 377.446 -1.22909e-19 -1.41391e-05 3.51467 -4.33681e-19 -7.71206e-05)
(-6.09807e-15 0 -9.82125e-21 383.237 -0.00499472 -0.000438445 3.63282 0.00364213 4.71934e-06)
(0 -9.62965e-35 -1.10899e-20 383.273 -1.08362e-16 -1.28336e-06 3.63313 0 -7.52662e-05)
(-6.33036e-15 -2.79833e-18 -6.46293e-20 391.54 0.00378652 -0.00045797 3.77548 -0.00381155 3.44723e-06)
(0 0 5.46548e-20 391.57 1.37455e-17 0.000321292 3.77574 -4.33681e-19 -7.51016e-05)
(-6.57022e-15 4.13733e-18 -6.3107e-20 401.661 -0.00596794 -0.000323802 3.93491 0.00423341 5.22965e-06)
(-2.62808e-14 -2.34885e-18 3.23229e-20 401.686 -4.4041e-19 6.72326e-06 3.93513 8.67362e-19 -7.15623e-05)
(6.82009e-15 1.35934e-18 2.71548e-17 412.668 0.00466761 -0.000196041 4.10196 -0.00472826 9.54352e-07)
(0 -1.73334e-33 -3.18596e-20 412.689 5.55112e-17 0.00103773 4.10215 -1.88647e-34 -7.35609e-05)
(7.08164e-15 -4.01958e-18 3.90428e-20 423.628 -0.00698536 -0.000209508 4.26828 0.00615257 9.0951e-06)
(0 -7.70372e-34 -3.1403e-20 423.646 0 2.15002e-05 4.26844 0 -6.39336e-05)
(-7.35556e-15 -2.64131e-18 0 433.858 0.00561484 -2.03288e-18 4.42865 -0.00768434 1.92105e-50)
(0 1.06671e-18 2.06353e-20 433.872 2.22311e-16 0.00042875 4.42878 0 -7.25558e-05)
(0 6.50864e-18 -3.05093e-20 443.144 -0.00786651 -9.77205e-05 4.58351 0.00948828 1.00098e-05)
(0 -1.31647e-18 5.08488e-20 443.155 -4.44089e-16 2.73371e-05 4.5836 1.73472e-18 -6.04284e-05)
(-7.93753e-15 -1.28307e-18 2.55256e-18 451.947 0.00646699 1.93801e-18 4.7413 -0.0114533 -1.35525e-20)
(3.17501e-14 0 0 451.953 -7.94881e-19 -0.000323241 4.74134 1.10312e-33 -7.20949e-05)
(0 -1.26468e-17 4.94016e-20 461.505 -0.0085463 -1.84269e-06 4.91929 0.012901 7.34205e-06)
(3.29673e-14 6.31089e-30 -4.94016e-20 461.507 -7.78051e-16 2.23124e-05 4.91928 1.50891e-29 -6.219e-05)
(8.5524e-15 -4.98622e-18 1.75049e-17 473.699 0.00720209 3.79973e-18 5.141 -0.0145524 0)
(-3.42096e-14 8.07936e-18 5.84323e-20 473.695 0 -0.000721535 5.14093 -1.73472e-18 -7.21138e-05)
(8.8691e-15 -9.82951e-18 3.75517e-20 490.566 -0.0090989 6.99536e-05 5.42939 0.0152746 4.22368e-06)
(0 0 -2.87974e-20 490.556 -3.88578e-16 1.16512e-05 5.42926 -1.73472e-18 -6.71011e-05)
(7.26543e-16 2.42216e-18 4.48469e-18 513.59 0.00783403 -5.04512e-21 5.79848 -0.0162158 0)
(-9.92116e-15 0 -3.78462e-20 513.575 4.11907e-16 -0.000310426 5.79829 3.46945e-18 -7.25044e-05)
(-2.44379e-16 4.77488e-18 -1.87112e-20 543.118 -0.00971359 0.000123348 6.24795 0.0166376 3.13886e-06)
(3.81385e-14 -2.77334e-32 9.32594e-21 543.099 -4.02456e-16 7.03501e-06 6.24772 0 -6.97087e-05)
(0 4.70645e-18 5.56019e-18 578.223 0.00851995 1.82959e-18 6.76384 -0.0172792 0)
(3.95862e-14 0 -3.67691e-20 578.203 8.46545e-16 0.000151697 6.76361 -5.27522e-33 -7.31952e-05)
(-1.02882e-14 0 -9.02491e-21 617.054 -0.0104296 0.000172343 7.32367 0.0178578 4.60748e-06)
(0 -7.70372e-34 -1.81211e-20 617.036 0 9.10839e-06 7.32349 0 -6.9436e-05)
(-1.07156e-14 0 0 657.493 0.0092703 -1.0842e-19 7.90519 -0.0186613 0)
(0 3.08149e-32 -1.78613e-20 657.482 4.47421e-16 0.00325171 7.9051 6.34562e-34 -7.41879e-05)
(0 -4.50697e-18 1.76053e-20 697.694 -0.0103775 0.000240439 8.48947 0.0224269 2.42838e-05)
(0 4.62223e-32 -1.76053e-20 697.692 -6.69246e-16 5.55831e-05 8.48953 1.25093e-33 -4.69925e-05)
(-1.1694e-14 4.44237e-18 1.50217e-17 735.839 0.00975519 -1.72946e-18 9.05251 -0.0265003 0)
(0 1.54074e-33 -4.33825e-20 735.852 -6.16503e-34 -0.00125066 9.05279 3.46945e-18 -7.56762e-05)
(0 2.18935e-17 -6.84172e-20 769.146 -0.0096169 0.00036947 9.5494 0.0289346 1.82632e-05)
(-4.90125e-14 -2.00758e-17 5.13129e-20 769.181 -5.57119e-16 9.82378e-05 9.54997 0 -5.79568e-05)
(-1.28678e-14 2.15797e-17 6.19399e-18 792.537 0.00897722 0.000635651 9.89569 -0.0316833 3.89847e-06)
(3.37925e-14 0 -5.05774e-20 792.6 1.38338e-15 -0.00133081 9.89667 -1.07203e-29 -7.75839e-05)
(-1.74247e-14 2.55245e-17 -6.64701e-20 797.469 -0.00886176 0.000670545 9.95278 0.032505 1.28552e-05)
(1.74247e-14 0 6.64701e-20 797.57 -9.22026e-31 0.000216396 9.95431 -6.25979e-34 -7.14977e-05)
(-1.42966e-14 -1.67724e-17 -5.91088e-20 771.491 0.00606688 0.000861803 9.52485 -0.0336033 8.87718e-06)
(5.71852e-14 0 4.9138e-20 771.64 7.38783e-16 0.000964774 9.52706 0 -8.05166e-05)
(3.02321e-14 -1.65321e-17 4.53383e-20 699.358 -0.00889552 0.00127537 8.38298 0.0347308 2.39036e-05)
(6.04626e-14 -4.31408e-32 -3.22892e-20 699.562 -7.19235e-16 0.000381233 8.38602 9.93934e-33 -7.07093e-05)
(0 8.14755e-18 4.77396e-20 565.996 0.00172768 0.0015721 6.31254 -0.03618 1.69054e-05)
(0 -5.23853e-32 -4.77396e-20 566.265 7.77156e-16 0.00122873 6.31651 -2.2614e-33 -8.64246e-05)
(-1.6858e-14 -8.03078e-18 1.08297e-20 360.886 -0.0077789 0.00207459 3.1808 0.0376932 3.795e-05)
(0 1.17097e-31 -3.13702e-20 361.223 -1.66795e-15 0.000393545 3.18576 6.93889e-18 -7.27251e-05)
(-1.7297e-12 -1.58314e-17 -5.13416e-20 0.426998 -0.00123153 0.00233515 0.00285574 -0.0396809 2.44217e-05)
(0 3.08149e-33 6.18412e-20 5.67757e-30 5.55112e-17 0.000665364 -1.42109e-14 3.82135e-33 -9.77827e-05)
(2.23195e-12 0 9.9716e-21 -146.472 -0.0027177 0.00258409 0.993841 0.0414331 4.58673e-05)
(0 1.99482e-34 -1.52387e-20 -145.593 -2.87484e-18 0.000113384 0.987877 6.93889e-18 -8.3606e-05)
(-4.77021e-14 7.6904e-18 2.61618e-21 -632.376 -0.00185502 0.00260464 6.00239 -0.0438139 2.5707e-05)
(9.63128e-14 6.16298e-33 -6.00812e-20 -631.839 8.83331e-16 -0.000627131 5.99545 4.44273e-33 -0.000114871)
(-1.46521e-14 2.27405e-17 -3.87827e-20 -1010.34 0.0045958 0.00233697 11.4497 0.0454465 3.96791e-05)
(0 -6.18486e-32 0 -1009.75 -8.91332e-16 -0.000319308 11.4418 0 -0.000105556)
(-2.54827e-14 -2.24146e-17 -1.19441e-19 -1352.15 -0.00302539 0.00207686 16.8136 -0.0477006 1.90343e-05)
(-5.09701e-14 2.64804e-17 8.7557e-20 -1351.52 3.31005e-18 -0.00168783 16.805 -6.93889e-18 -0.000133689)
(-3.62633e-14 -3.68222e-17 5.57423e-20 -1623.68 0.00946474 0.00143086 21.5432 0.0488857 2.21312e-05)
(9.98162e-14 0 -8.63021e-20 -1623.02 -9.40298e-16 -0.000576688 21.5338 4.43279e-30 -0.000132011)
(4.70999e-15 -5.08123e-17 -2.0003e-19 -1801.46 -0.00709931 0.001055 25.1706 -0.0505262 8.54756e-06)
(-6.31011e-14 1.40245e-17 1.41775e-19 -1800.78 1.93e-15 -0.00141258 25.1608 0 -0.000148244)
(-6.13091e-15 -5.0084e-17 2.08341e-18 -1876.05 0.010474 2.80537e-18 27.3981 0.0512573 0)
(2.45291e-14 0 -1.39743e-19 -1875.39 9.50803e-16 0.00156458 27.3881 2.82324e-30 -0.000149895)
(4.07744e-15 1.41046e-17 7.34442e-20 -1851.86 -0.011719 -0.000115073 28.1315 -0.0509254 5.39351e-06)
(0 0 -5.50962e-20 -1851.25 3.48232e-17 0.000399395 28.1219 -6.93889e-18 -0.000137371)
(0 -4.86586e-17 2.03195e-20 -1744.09 0.00978442 -3.38906e-20 27.4691 0.0511621 2.71051e-20)
(9.0592e-15 0 -1.35766e-19 -1743.59 9.15934e-16 0.000830979 27.4605 4.50418e-30 -0.000146178)
(0 6.8516e-18 8.02922e-20 -1573.91 -0.0139164 -0.000438335 25.6487 -0.050635 1.39867e-05)
(6.45856e-15 6.16298e-33 -8.02922e-20 -1573.59 -8.88178e-16 0.000141415 25.6422 6.93889e-18 -0.000127866)
(-3.45774e-15 6.7534e-18 0 -1363.69 0.00921295 -6.9815e-34 19.4703 0.0506215 0)
(0 1.2326e-32 2.63805e-20 -1363.62 -2.77556e-17 6.4422e-05 19.4703 -6.93889e-18 -0.000141921)
(0 -3.99396e-17 -1.30012e-19 -1133.48 -0.0133162 -0.000375098 9.58975 -0.0501825 1.40412e-05)
(0 1.59549e-14 1.30012e-19 -1133.72 -1.72085e-15 -4.49004e-06 9.5897 6.93889e-18 -0.000123768)
(0 0 4.81482e-34 -899.058 0.00859805 -3.45009e-18 1.45196 0.0501511 8.9289e-36)
(0 0 2.56297e-20 -899.658 8.95138e-16 0.00315587 1.45192 0 -0.000139202)
(0 4.04198e-19 -2.52624e-20 -671.619 -0.0101355 -0.0167063 -4.91053 -0.00288558 -3.57625e-05)
(0 0 0 -672.498 0 1.19262e-18 -4.91057 -1.10413e-28 2.60811e-33)
(0 1.19521e-18 -1.55627e-21 -458.341 0.00874514 -0.000232037 -5.95463 0.00247023 3.12355e-06)
(-1.97973e-15 0 0 -459.348 -5.51687e-17 -0.0041652 -5.97201 -5.70326e-34 -3.12351e-06)
(1.33501e-15 -1.35409e-16 0 -263.389 3.29597e-17 -0.000216677 -2.90025 0 -3.15036e-06)
(0 0 -9.40395e-38 -264.421 -0.00174537 -5.18897e-20 -2.91767 -1.4706e-05 4.23516e-22)
(-2.42433e-12 1.35473e-18 0 -14.401 0.00758105 -0.000213079 -0.123103 0.00173354 2.45192e-06)
(4.78348e-12 -4.83304e-15 0 -16.3727 0 -0.000299422 -0.139957 4.33681e-19 -2.45188e-06)
(-1.94848e-15 -2.21036e-16 0 3.89696e-15 3.91895e-19 -0.000189262 0 0 -2.48841e-06)
(4.01247e-12 1.90759e-19 -3.45338e-22 0.102317 -0.0619521 -1.38979e-20 -0.000887346 -0.00141455 0)
(0 -1.88025e-19 1.46895e-21 194.562 0.00638549 -0.000183233 -2.35197 0.00117758 1.69144e-06)
(-1.5403e-15 1.54074e-33 -1.46895e-21 193.684 -1.40409e-17 -0.000276015 -2.33599 -9.86495e-34 -1.6914e-06)
(1.76358e-16 -9.07968e-17 1.44789e-21 303.873 7.35602e-19 -0.000160184 -4.51111 -1.0842e-19 -1.72688e-06)
(0 5.55991e-19 -2.39657e-22 303.081 -0.0401562 2.39657e-22 -4.49623 -0.000952078 0)
(1.51457e-16 5.48022e-19 -1.42714e-21 392.676 0.00536082 -0.000152472 -6.35232 0.000795033 1.03342e-06)
(0 -1.87792e-15 1.42714e-21 391.998 -1.02984e-17 -0.000229725 -6.33894 -1.0842e-19 -1.03337e-06)
(0 -2.24317e-16 0 462.495 7.77648e-19 -0.000129331 -3.50469 0 -1.06231e-06)
(7.37508e-16 0 -5.89717e-22 461.982 -0.0232475 -2.94858e-22 -3.50466 -0.000649152 0)
(0 -5.32425e-19 0 515.32 0.00457508 -0.000117359 1.05492 0.000555103 4.95147e-07)
(0 0 0 515.033 -7.66688e-20 -0.000172359 1.05495 0 -8.21602e-08)
(0 -5.89468e-17 0 553.457 6.93889e-18 -9.27545e-05 6.10342 0 -5.13822e-07)
(0 -6.1226e-19 3.85186e-34 553.402 -0.0110902 0 6.10345 -0.000472946 4.26815e-34)
(1.87641e-17 7.75909e-19 3.36766e-22 579.219 0.00390848 -8.24748e-05 11.3902 0.000425364 1.15098e-07)
(7.304e-17 -9.72343e-19 -6.80013e-22 579.337 6.18885e-18 1.15604e-05 11.3938 0 6.96079e-07)
(0 -4.8436e-17 0 594.626 -5.63785e-18 -6.60514e-05 11.7654 5.42101e-20 -1.21518e-07)
(0 8.49765e-20 6.63879e-22 594.858 -0.00295189 4.0976e-05 11.7708 -0.000385867 9.0088e-07)
(-1.54291e-15 -1.2145e-18 -1.96309e-21 601.255 0.00333927 -2.14475e-06 11.9876 0.000374854 -5.76457e-07)
(6.16823e-15 0 -9.62965e-35 601.547 5.16394e-20 3.24462e-22 11.9938 5.42101e-20 4.23516e-22)
(-2.36419e-15 -7.97637e-17 6.44985e-22 600.139 -5.25425e-18 7.90654e-05 12.065 0 -1.91498e-09)
(-9.45328e-15 -2.47674e-19 -6.71513e-22 600.45 -0.00130939 -3.75472e-06 12.0713 -0.000363763 3.90479e-07)
(3.21115e-15 -4.88249e-19 -6.35741e-22 591.772 0.00281518 9.33933e-05 11.9961 0.000343168 -2.79791e-09)
(1.28413e-14 0 1.33539e-21 592.074 4.33681e-19 1.22221e-05 12.0021 0 2.52427e-07)
(-4.07489e-15 -6.60087e-17 6.26629e-22 576.208 4.42386e-18 0.000119633 11.7718 0 -3.78915e-09)
(1.62965e-14 -1.12292e-18 -3.43092e-22 576.487 -0.00251091 1.24098e-05 11.7772 -0.000316559 2.59549e-07)
(-4.94637e-15 7.90589e-20 0 553.242 0.0023159 0.000140816 11.3794 0.000300775 -3.75736e-09)
(0 -1.22615e-16 0 553.49 3.86179e-18 6.77361e-05 11.3842 0 4.09787e-07)
(-5.8156e-15 -2.83263e-17 0 522.617 3.50744e-18 0.000166614 10.8068 0 -5.37714e-09)
(0 2.7274e-19 0 522.833 -0.00221746 0.000128153 10.8111 -0.000276761 5.38924e-09)
(-6.67097e-15 -6.52876e-19 0 484.244 0.00187616 0.000180768 10.0477 0.000262015 -4.54343e-09)
(1.66143e-14 1.2326e-32 0 484.432 1.80892e-19 0.000180899 10.0515 0 4.43548e-09)
(7.49896e-15 -7.41826e-17 0 438.421 -6.10495e-18 0.000191335 9.10613 0 -6.81519e-09)
(0 5.29956e-19 0 438.584 -0.00196417 0.000191424 9.10948 -0.00024387 6.83081e-09)
(9.78098e-15 -4.47738e-19 0 385.97 0.00155688 0.000185961 7.99947 0.00022647 -5.49253e-09)
(-9.78098e-15 -8.66668e-34 0 386.112 3.06677e-18 0.000186079 8.00244 2.71051e-20 5.3771e-09)
(-9.01193e-15 -2.02761e-17 0 328.271 2.95247e-20 0.000173654 6.75848 0 -8.14737e-09)
(0 5.5165e-19 0 328.396 -0.00169434 0.000173743 6.76113 -0.000215887 8.17063e-09)
(9.50261e-15 -1.37748e-18 2.2656e-21 267.207 0.00133081 0.000145439 5.4267 0.000194898 -6.47025e-09)
(7.73238e-14 2.46519e-32 0 267.317 2.38524e-18 0.00014554 5.42907 -2.71051e-20 6.34434e-09)
(-9.36642e-15 -1.54397e-17 -2.23313e-21 205.072 0 0.000113596 4.05862 -2.71051e-20 -9.33018e-09)
(4.0928e-14 1.4292e-19 0 205.169 -0.00136829 0.000113679 4.06072 -0.000191199 9.36472e-09)
(-2.91651e-14 1.05654e-18 -2.20112e-21 144.364 0.00119737 7.33117e-05 2.71315 0.000169023 -7.40152e-09)
(-3.35697e-14 -1.13161e-16 0 144.447 -2.62846e-19 7.33934e-05 2.71498 0 7.26082e-09)
(-1.96462e-15 -1.13919e-17 3.84072e-19 87.5269 -1.95156e-18 3.48422e-06 1.44909 0 -1.03167e-08)
(-4.4257e-14 -5.90124e-19 -1.68317e-18 87.5985 -0.00108128 -5.75541e-24 1.45066 -0.000168037 0)
(2.35603e-13 4.10588e-19 0 26.504 0.00110117 -3.36763e-07 0.320373 0.000148418 -8.22222e-09)
(0 -2.73725e-19 0 26.6121 1.47763e-18 -2.74295e-07 0.32168 0 8.06177e-09)
(-1.57772e-30 -1.84219e-17 5.43525e-19 -9.28645e-13 1.6263e-18 -3.64387e-06 -1.58047e-30 0 -1.10945e-08)
(-2.30041e-13 -4.72154e-19 0 -0.0120746 -0.000876745 -1.23295e-22 0.000148077 -0.000145762 -1.07557e-39)
(-6.17073e-15 1.46264e-18 -4.15524e-21 -39.9665 0.0009828 -4.94984e-05 0.628823 0.000131506 -8.9262e-09)
(0 0 0 -39.9305 3.55242e-20 -4.94511e-05 0.627789 2.71051e-20 8.73942e-09)
(-1.71785e-14 -1.55134e-17 0 -64.0101 -1.40946e-18 -5.95666e-05 1.36552 0 -1.16987e-08)
(1.05664e-13 1.68742e-18 0 -63.9856 -0.000737657 -5.95154e-05 1.36477 -0.000125117 1.18056e-08)
(0 -3.39106e-19 0 -78.1619 0.000808388 -6.48096e-05 1.87005 0.000116972 -9.55755e-09)
(1.0382e-13 0 0 -78.1487 1.22407e-18 -6.47697e-05 1.86958 9.14109e-35 9.33626e-09)
(-2.13516e-14 3.12964e-34 0 -82.777 1.22152e-18 -6.14507e-05 2.13573 -1.35525e-20 -1.22186e-08)
(0 -6.36659e-20 0 -82.7743 -0.000651194 -6.14001e-05 2.13553 -0.000107762 1.23683e-08)
(-1.05212e-14 1.41195e-19 0 -78.5768 0.000648159 -5.63968e-05 2.16642 0.000103708 -1.02099e-08)
(8.41697e-14 -3.37038e-34 0 -78.584 -1.0842e-18 -5.63549e-05 2.16649 -3.49859e-35 9.94299e-09)
(1.04107e-14 -1.71843e-17 0 -66.5548 -1.05926e-18 -4.71454e-05 1.97522 -1.35525e-20 -1.27701e-08)
(0 6.03076e-19 0 -66.5706 -0.000588427 -4.70867e-05 1.97554 -9.36362e-05 1.29758e-08)
(-1.03554e-14 0 0 -47.8744 0.0005322 -3.88965e-05 1.58212 9.12595e-05 -1.1003e-08)
(0 0 0 -47.8975 7.61484e-35 -3.88421e-05 1.58265 1.35525e-20 1.06761e-08)
(-1.03643e-14 0 0 -21.3353 5.42101e-20 -2.87389e-05 1.01192 -1.35525e-20 -1.34939e-08)
(4.14569e-14 -5.55866e-19 0 -21.3973 -0.000518535 -2.86623e-05 1.01264 -8.18213e-05 1.37725e-08)
(-1.11242e-13 5.47899e-19 0 0.0140548 0.000459197 -1.99014e-05 0.540236 7.99563e-05 -1.2081e-08)
(4.1638e-14 6.01853e-36 0 7.50758e-13 8.13152e-19 -1.98251e-05 0.5393 0 1.16755e-08)
(-2.06401e-14 -1.50463e-36 0 35.0692 0 -5.58949e-06 1.45381 0 -1.45275e-08)
(0 5.83834e-20 0 35.0358 -0.000428356 -4.73733e-06 1.45285 -7.13328e-05 1.49006e-08)
(-1.02886e-14 5.46693e-19 0 67.0301 0.000390131 3.49747e-06 2.40705 7.05171e-05 -1.35865e-08)
(0 -1.47158e-17 -1.79833e-21 66.9974 -7.04731e-19 3.60399e-06 2.40613 0 1.30784e-08)
(0 -6.10299e-18 1.77256e-21 98.6883 5.42101e-20 1.87232e-05 3.35653 -6.77626e-21 -1.60064e-08)
(-4.12958e-14 6.73571e-19 0 98.6583 -0.000351796 1.88598e-05 3.3557 -6.22136e-05 1.65012e-08)
(1.0432e-14 -4.05339e-19 0 128.508 0.000352476 3.61351e-05 4.25514 6.27312e-05 -1.56497e-08)
(4.17284e-14 0 0 128.482 0 3.62764e-05 4.25446 0 1.50079e-08)
(1.06164e-14 -8.77075e-18 0 154.95 -4.33681e-19 5.60854e-05 5.05399 0 -1.8019e-08)
(-4.24657e-14 6.06183e-19 0 154.93 -0.000337958 5.62579e-05 5.0535 -5.36798e-05 1.86706e-08)
(-1.08767e-14 5.36387e-19 0 176.549 0.000281027 7.48441e-05 5.70509 5.48608e-05 -1.83441e-08)
(4.35069e-14 1.20371e-34 0 176.537 -4.33681e-19 7.50212e-05 5.70481 6.77626e-21 1.75285e-08)
(-1.4035e-14 -1.60464e-18 0 192.002 0 9.55244e-05 6.16393 0 -2.06012e-08)
(0 -4.01544e-19 0 191.996 -0.000277837 9.573e-05 6.16387 -4.6834e-05 2.14543e-08)
(-2.76676e-14 5.34315e-19 -3.29824e-21 200.255 0.000224339 0.000115053 6.39345 4.83915e-05 -2.167e-08)
(4.64188e-14 0 0 200.257 -8.10724e-35 0.000115259 6.3936 -2.02681e-35 2.06284e-08)
(1.20519e-14 -5.26393e-18 0 200.619 -3.52366e-19 0.000135805 6.36782 0 -2.36746e-08)
(0 4.74641e-19 0 200.627 -0.000232125 0.000136034 6.36817 -4.13765e-05 2.47874e-08)
(0 6.79327e-19 0 192.854 0.000213759 0.000157483 6.07597 4.30111e-05 -2.55133e-08)
(-5.01369e-14 -6.73125e-18 0 192.867 -1.04081e-20 0.000157706 6.07648 6.77626e-21 2.41775e-08)
(-1.32475e-14 -1.20707e-18 -6.31689e-21 177.22 2.71051e-19 0.000183497 5.52326 0 -2.70515e-08)
(0 2.71626e-19 0 177.237 -0.000174719 0.000183733 5.5239 -3.59443e-05 2.84988e-08)
(-1.30576e-14 4.04713e-19 0 154.492 0.000224771 0.000215124 4.73329 3.92093e-05 -2.96641e-08)
(0 -6.86977e-18 0 154.513 1.84971e-20 0.000215346 4.73402 0 2.79458e-08)
(1.39909e-14 -2.38237e-19 0 125.933 -1.35525e-20 0.000256024 3.74642 -3.38813e-21 -3.04355e-08)
(0 -1.22129e-18 0 125.956 -0.000120227 0.00025625 3.74721 -2.98545e-05 3.23129e-08)
(1.44076e-14 4.11342e-19 0 93.1959 0.00021881 0.000306594 2.61738 3.70163e-05 -3.38408e-08)
(0 -6.41469e-18 0 93.2193 -2.43945e-19 0.000306797 2.61819 0 3.16254e-08)
(-2.95134e-14 0 0 58.1965 2.98156e-19 0.000368684 1.41075 2.83174e-36 -3.34897e-08)
(5.90264e-14 0 0 58.2197 -9.71734e-05 0.000368882 1.41155 -2.36803e-05 3.59174e-08)
(7.85993e-14 0 0 11.0694 0.000154898 0.000438623 0.194752 3.54722e-05 -3.77766e-08)
(0 0 0 11.1122 -1.5007e-34 0.000438792 0.195504 3.38813e-21 3.49167e-08)
(2.60261e-13 -1.93265e-18 0 -0.0198803 -9.48677e-20 0.000514401 0.000354852 0 -3.59229e-08)
(-1.57772e-30 -3.38877e-19 0 -8.43769e-13 -0.000126963 0.000514562 0 -1.94914e-05 3.90507e-08)
(0 5.36715e-19 0 -40.9233 3.95457e-05 0.000587998 0.964015 3.27736e-05 -4.13073e-08)
(-2.39484e-14 -4.60831e-19 0 -40.9057 2.01866e-19 0.000588129 0.963332 0 3.76145e-08)
(-2.36051e-14 -2.35853e-18 -1.12558e-20 -66.5928 3.09093e-20 0.000651649 2.00784 0 -3.75827e-08)
(0 -3.37674e-19 0 -66.5781 -0.000224843 0.000651772 2.00724 -1.9305e-05 4.15987e-08)
(2.32668e-14 5.4363e-19 0 -86.8734 -7.69599e-05 0.000695932 2.8924 2.63943e-05 -4.44416e-08)
(9.07794e-14 3.85186e-34 0 -86.8616 -1.35525e-19 0.00069603 2.89191 7.47232e-34 3.96779e-08)
(-2.78197e-14 0 0 -101.487 5.42101e-20 0.000711441 3.58972 -3.38813e-21 -3.84764e-08)
(5.56397e-14 0 0 -101.478 -0.00032693 0.000711535 3.58934 -2.34125e-05 4.36215e-08)
(3.61612e-14 -4.06897e-19 0 -110.65 -0.000180649 0.000688259 4.09054 1.59896e-05 -4.73545e-08)
(0 0 0 -110.644 0 0.000688336 4.09026 8.47033e-22 4.12227e-08)
(0 -4.17164e-18 0 -114.99 1.15594e-19 0.000622166 4.40322 -3.38813e-21 -3.87275e-08)
(-6.39709e-14 -6.90576e-20 0 -114.987 -0.000345262 0.000622243 4.40304 -3.15789e-05 4.5316e-08)
(-1.28714e-14 -1.0845e-18 0 -115.421 -0.000157455 0.000512283 4.55071 4.63825e-06 -5.0311e-08)
(5.14856e-14 0 0 -115.42 1.79962e-31 0.00051235 4.55063 -5.09093e-06 4.24451e-08)
(0 -2.52495e-18 0 -113.024 -2.43945e-19 0.000362939 4.56653 6.77626e-21 -3.84531e-08)
(0 -3.35461e-19 0 -113.024 -0.000255751 0.000363008 4.56651 -3.90394e-05 4.68968e-08)
(0 -4.06958e-19 1.0312e-19 -108.916 -2.68071e-05 0.000178032 4.49052 -3.34802e-06 -5.35779e-08)
(0 -3.93065e-21 0 -108.917 -1.93381e-19 0.000178311 4.49055 -1.41617e-05 4.35285e-08)
(-1.19661e-14 1.36922e-34 0 -104.121 4.94454e-19 -9.0512e-06 4.36381 1.38106e-36 -3.76753e-08)
(0 0 -9.43426e-38 -104.122 -5.87351e-05 -3.39905e-22 4.36386 -4.13845e-05 0)
(-1.30203e-14 -1.49254e-18 1.97688e-20 -99.4834 0.000172494 -0.00021059 4.2237 -3.28506e-06 -5.73535e-08)
(9.35394e-14 -2.13637e-21 0 -99.4845 -1.0842e-19 -0.000210528 4.22376 -1.53942e-05 4.45666e-08)
(0 -4.19625e-21 0 -95.6153 2.33625e-19 -0.000389559 4.10072 0 -3.6258e-08)
(0 -3.40996e-19 0 -95.616 0.000138484 -0.000389497 4.10076 -3.54551e-05 5.01528e-08)
(-1.00696e-14 5.42575e-19 -1.92062e-20 -92.8811 0.00031214 -0.000536926 4.01664 5.35441e-06 -6.17587e-08)
(0 -1.54813e-19 0 -92.881 -1.0842e-19 -0.000536872 4.01665 -8.31178e-06 4.55417e-08)
(-3.26582e-14 7.07177e-35 1.89309e-20 -91.4036 1.28832e-19 -0.00064215 3.98361 2.15531e-36 -3.39295e-08)
(8.70887e-14 1.62569e-18 0 -91.4027 0.000228552 -0.000642098 3.98359 -2.33519e-05 5.17252e-08)
(-1.9566e-14 -1.6263e-18 0 -91.0954 0.000324707 -0.00070085 4.00424 1.84425e-05 -6.68675e-08)
(1.04409e-13 3.08149e-33 0 -91.0938 5.58168e-20 -0.000700809 4.00419 4.48734e-33 4.63468e-08)
(-1.03133e-14 0 0 -91.7094 3.98081e-20 -0.00071379 4.07279 2.48462e-37 -3.03444e-08)
(-9.64278e-15 -6.77061e-19 0 -91.7072 0.000184438 -0.000713752 4.0727 -1.03615e-05 5.3068e-08)
(1.00089e-14 -1.62704e-18 0 -92.8933 0.000228928 -0.000686691 4.17716 3.02638e-05 -7.27844e-08)
(8.00715e-14 1.54074e-33 0 -92.8907 0 -0.000686667 4.17705 1.69407e-21 4.68533e-08)
(0 -5.47701e-34 0 -94.2467 0 -0.000628013 4.30092 1.38355e-06 -2.51388e-08)
(3.87734e-14 1.08385e-18 0 -94.244 6.76473e-05 -0.000627993 4.30079 -1.38383e-06 5.40472e-08)
(9.36891e-15 -5.41588e-19 0 -95.3802 8.4212e-05 -0.000549623 4.42574 3.74526e-05 -7.97194e-08)
(0 0 0 -95.3776 -1.01644e-19 -0.000549617 4.42561 -7.51604e-35 4.69852e-08)
(1.80785e-14 -1.22237e-21 0 -95.957 3.72694e-20 -0.000461489 4.53416 2.20202e-06 -1.79674e-08)
(2.70553e-14 -5.42505e-19 0 -95.9547 -4.59831e-05 -0.000461486 4.53404 1.0371e-06 5.46038e-08)
(0 6.78037e-19 0 -95.7191 -1.40648e-05 -0.000372871 4.61075 3.99891e-05 -8.80405e-08)
(-8.97128e-15 4.91641e-36 -4.27784e-21 -95.7172 -8.85662e-21 -0.000372878 4.61065 0 4.67638e-08)
(8.8427e-15 -8.85067e-19 0 -94.5105 -1.48133e-20 -0.000290461 4.6438 0 -8.48372e-09)
(3.35275e-14 5.41824e-19 0 -94.5093 -0.000110851 -0.000228181 4.64373 -1.245e-06 5.47527e-08)
(1.61265e-14 -5.4237e-19 0 -92.2832 -5.32904e-05 -0.000218845 4.62641 4.0104e-05 -9.82903e-08)
(0 0 0 -92.2828 -8.13152e-20 -5.85203e-05 4.62637 7.5269e-35 1.58487e-06)
(1.63478e-14 -1.28458e-18 -2.04826e-21 -89.0862 -5.95005e-20 -0.00015966 4.55658 0 3.68925e-09)
(3.10271e-14 9.48666e-19 6.06621e-21 -89.0865 -0.000118185 1.02837e-05 4.55658 -5.56349e-06 5.01961e-07)
(0 -9.47876e-19 -6.05672e-21 -85.0527 -4.70735e-05 -0.000113218 4.43681 4.06938e-05 -1.11163e-07)
(2.98621e-14 0 9.01793e-21 -85.0537 -3.65904e-20 1.01239e-05 4.43685 3.94448e-34 5.35261e-07)
(-7.19159e-15 -1.6164e-19 0 -80.385 6.77626e-21 -5.98813e-05 4.2739 -3.38813e-21 1.90224e-08)
(-2.87663e-14 1.35318e-19 -1.73282e-21 -80.3865 -9.73378e-05 9.95222e-06 4.27397 -9.70307e-06 4.98698e-07)
(-1.51627e-14 0 -1.96145e-21 -75.3296 -2.2414e-05 -7.29188e-06 4.07819 4.34108e-05 3.5292e-07)
(0 0 0 -75.3315 -1.35525e-20 9.7389e-06 4.07829 -4.23516e-22 5.28287e-07)
(-6.69773e-15 -1.62781e-19 0 -70.1544 -1.35525e-19 6.3812e-06 3.86223 0 1.24232e-06)
(-2.67909e-14 3.38334e-19 -4.64277e-21 -70.1566 -7.347e-05 9.52729e-06 3.86235 -1.26648e-05 4.90507e-07)
(7.99277e-15 -5.42091e-19 -1.90563e-21 -65.1328 -6.16276e-07 7.01068e-06 3.64008 4.87277e-05 1.4447e-06)
(0 -9.62965e-35 3.81125e-21 -65.135 6.89927e-22 9.24929e-06 3.6402 2.11758e-22 5.13374e-07)
(0 -1.172e-19 -1.87831e-21 -60.5291 1.69407e-21 6.18733e-06 3.42647 0 2.09586e-06)
(5.80209e-14 5.42833e-19 1.3346e-20 -60.531 -5.40404e-05 9.00476e-06 3.42659 -1.45086e-05 4.77758e-07)
(-6.06971e-15 6.09571e-19 3.70278e-21 -56.5865 1.43353e-05 6.95598e-06 3.23618 5.67742e-05 2.02398e-06)
(2.42788e-14 -3.99059e-23 1.17428e-21 -56.5879 0 8.66923e-06 3.23628 -2.87552e-07 4.90663e-07)
(-7.65401e-15 0 5.47457e-21 -53.5188 -2.12605e-19 9.09484e-06 3.08326 -2.95636e-34 2.53563e-06)