/*--------------------------------*- C++ -*----------------------------------*\
| =========                 |                                                 |
| \\      /  F ield         | OpenFOAM: The Open Source CFD Toolbox           |
|  \\    /   O peration     | Version:  2012                                  |
|   \\  /    A nd           | Website:  www.openfoam.com                      |
|    \\/     M anipulation  |                                                 |
\*---------------------------------------------------------------------------*/
FoamFile
{
    version     2.0;
    format      ascii;
    class       volScalarField;
    location    "12000";
    object      nut;
}
// * * * * * * * * * * * * * * * * * * * * * * * * * * * * * * * * * * * * * //

dimensions      [0 2 -1 0 0 0 0];


internalField   nonuniform List<scalar> 
2560
(
8.99626e-09
8.98917e-09
1.48208e-06
1.48098e-06
3.00153e-05
2.99948e-05
0.000176402
0.000176311
0.000486884
0.000486698
0.000921833
0.000921553
0.00144321
0.00144284
0.00202954
0.00202908
0.00266853
0.00266798
0.00335246
0.00335181
0.00407605
0.00407531
0.00483547
0.00483464
0.0056278
0.00562687
0.00645071
0.00644968
0.00730228
0.00730114
0.00818088
0.00817965
0.00908515
0.0090838
0.0100138
0.0100124
0.0109659
0.0109643
0.0119403
0.0119386
0.0129361
0.0129343
0.0139525
0.0139506
0.0149887
0.0149866
0.0160439
0.0160417
0.0171173
0.017115
0.0182083
0.0182058
0.0193161
0.0193136
0.0204402
0.0204375
0.0215798
0.021577
0.0227343
0.0227314
0.0239032
0.0239
0.0250856
0.0250824
0.0262812
0.0262778
0.0274891
0.0274855
0.0287086
0.0287049
0.0299392
0.0299353
0.0311799
0.0311759
0.0324301
0.032426
0.0336891
0.0336847
0.0349559
0.0349515
0.03623
0.0362254
0.0375106
0.0375058
0.0387969
0.0387919
0.040088
0.0400829
0.0413831
0.0413779
0.0426811
0.0426757
0.0439806
0.043975
0.04528
0.0452742
0.0465777
0.0465718
0.0478718
0.0478657
0.0491602
0.049154
0.0504412
0.0504347
0.0517126
0.051706
0.0529733
0.0529665
0.0542226
0.0542156
0.0554618
0.0554546
0.0566945
0.056687
0.0579266
0.057919
0.0591651
0.0591572
0.0604142
0.0604061
0.061672
0.0616636
0.0629207
0.0629121
0.0641318
0.064123
0.0652678
0.065259
0.0662905
0.0662816
0.067169
0.0671603
0.0678871
0.0678785
0.0684446
0.0684364
0.0688561
0.0688482
0.069146
0.0691385
0.0693436
0.0693365
0.0694787
0.0694721
0.0695781
0.0695718
0.0696639
0.0696578
0.0697525
0.0697466
0.0698547
0.0698489
0.069977
0.0699714
0.0701205
0.070115
0.0702827
0.0702774
0.0704591
0.070454
0.0706437
0.0706389
0.07083
0.0708256
0.0710114
0.0710073
0.0711816
0.071178
0.0713352
0.0713319
0.0714672
0.0714643
0.0715735
0.071571
0.071651
0.0716487
0.0716973
0.0716952
0.071711
0.0717092
0.0716922
0.0716906
0.0716421
0.0716406
0.0715635
0.0715621
0.0714606
0.0714593
0.0713385
0.0713373
0.0712033
0.0712021
0.071061
0.0710599
0.0709173
0.0709162
0.0707769
0.0707759
0.0706433
0.0706424
0.070519
0.070518
0.0704048
0.0704039
0.0703009
0.0703001
0.0702075
0.0702066
0.0701244
0.0701235
0.070052
0.0700512
0.0699914
0.0699906
0.0699439
0.0699431
0.0699113
0.0699106
0.0698955
0.0698948
0.0698979
0.0698972
0.069919
0.0699183
0.0699584
0.0699578
0.0700144
0.0700138
0.0700838
0.0700832
0.0701624
0.0701619
0.0702456
0.070245
0.0703286
0.0703281
0.0704081
0.0704077
0.0704823
0.0704819
0.0705518
0.0705514
0.0706197
0.0706193
0.0706912
0.0706908
0.070773
0.0707727
0.0708722
0.0708718
0.0709948
0.0709945
0.0711459
0.0711456
0.0713273
0.071327
0.0715389
0.0715385
0.0717786
0.0717782
0.0720437
0.0720433
0.0723311
0.0723308
0.0726385
0.0726381
0.0729645
0.0729641
0.073309
0.0733086
0.0736727
0.0736723
0.0740574
0.074057
0.0744651
0.0744646
0.0748977
0.0748972
0.0753572
0.0753567
0.0758451
0.0758446
0.0763624
0.0763619
0.0769096
0.0769091
0.0774868
0.0774862
0.0780935
0.0780929
0.0787291
0.0787285
0.0793929
0.0793922
0.0800844
0.0800837
0.0808034
0.0808026
0.0815503
0.0815495
0.0823264
0.0823256
0.0831335
0.0831326
0.0839741
0.0839731
0.0848514
0.0848503
0.0857687
0.0857676
0.0867298
0.0867286
0.087738
0.0877367
0.0887965
0.0887951
0.0899082
0.0899066
0.0910749
0.0910732
0.0922981
0.0922962
0.0935781
0.0935761
0.0949145
0.0949123
0.0963053
0.0963029
0.0977473
0.0977448
0.0992358
0.099233
0.100764
0.100761
0.102323
0.10232
0.103902
0.103898
0.105488
0.105484
0.107066
0.107063
0.108623
0.108619
0.110142
0.110138
0.111612
0.111608
0.113023
0.11302
0.114371
0.114369
0.115659
0.115658
0.116895
0.116895
0.118096
0.118097
0.119284
0.119284
0.120482
0.120483
0.121719
0.121719
0.123017
0.123017
0.124395
0.124395
0.125862
0.125862
0.127418
0.127417
0.129048
0.129047
0.130733
0.130732
0.132445
0.132444
0.134156
0.134155
0.135835
0.135835
0.13746
0.137461
0.139011
0.139013
0.140477
0.14048
0.141853
0.141856
0.14314
0.143143
0.144346
0.14435
0.145486
0.145489
0.146576
0.146578
0.147633
0.147635
0.148678
0.14868
0.149731
0.149733
0.150811
0.150812
0.151934
0.151936
0.153119
0.153119
0.154378
0.154378
0.155724
0.155724
0.157167
0.157168
0.158717
0.158717
0.16038
0.16038
0.162158
0.162157
0.164052
0.164052
0.166059
0.166058
0.16817
0.168169
0.170371
0.170369
0.17264
0.172638
0.174949
0.174948
0.177265
0.177263
0.179547
0.179545
0.181752
0.18175
0.183839
0.183836
0.18577
0.185767
0.187515
0.187512
0.189058
0.189055
0.190401
0.190398
0.191563
0.191561
0.192585
0.192583
0.193514
0.193513
0.194406
0.194406
0.195321
0.195321
0.196308
0.196308
0.197404
0.197404
0.198623
0.198622
0.19996
0.199959
0.201394
0.201393
0.202896
0.202895
0.204439
0.204438
0.206004
0.206004
0.207586
0.207587
0.209195
0.209196
0.210849
0.21085
0.212578
0.212579
0.214415
0.214415
0.21639
0.21639
0.218529
0.218529
0.22085
0.22085
0.223366
0.223366
0.226087
0.226087
0.229019
0.229019
0.232169
0.232169
0.235545
0.235545
0.239157
0.239157
0.243011
0.243011
0.247115
0.247115
0.251474
0.251474
0.256089
0.256089
0.26096
0.260959
0.266084
0.266084
0.271459
0.271458
0.277081
0.277081
0.28295
0.28295
0.289064
0.289064
0.295427
0.295427
0.302042
0.302042
0.308916
0.308916
0.316057
0.316057
0.323473
0.323473
0.33117
0.33117
0.339154
0.339153
0.347426
0.347426
0.355987
0.355987
0.364833
0.364833
0.373961
0.37396
0.383362
0.383362
0.393032
0.393032
0.402963
0.402963
0.413149
0.413149
0.423582
0.423582
0.434254
0.434254
0.445159
0.445159
0.456286
0.456286
0.467628
0.467628
0.479173
0.479173
0.49091
0.49091
0.50283
0.50283
0.51492
0.514919
0.52717
0.52717
0.53957
0.53957
0.552114
0.552114
0.564794
0.564794
0.577604
0.577604
0.590538
0.590538
0.60359
0.60359
0.616749
0.616749
0.630005
0.630004
0.643342
0.643342
0.656746
0.656746
0.670202
0.670202
0.683692
0.683692
0.697204
0.697204
0.710727
0.710727
0.724251
0.724251
0.737769
0.737769
0.751276
0.751276
0.764769
0.764769
0.778242
0.778242
0.791692
0.791692
0.805113
0.805113
0.818498
0.818498
0.831839
0.831839
0.845127
0.845127
0.858349
0.858349
0.871486
0.871486
0.884506
0.884506
0.897344
0.897344
0.909864
0.909864
0.921769
0.921769
0.932389
0.932389
0.940259
0.940259
0.940016
0.940016
8.98916e-09
8.99627e-09
1.48098e-06
1.48208e-06
2.99948e-05
3.00153e-05
0.000176311
0.000176403
0.000486697
0.000486884
0.000921553
0.000921834
0.00144284
0.00144321
0.00202908
0.00202954
0.00266798
0.00266853
0.00335181
0.00335246
0.00407531
0.00407605
0.00483464
0.00483547
0.00562687
0.0056278
0.00644968
0.00645071
0.00730114
0.00730228
0.00817964
0.00818089
0.0090838
0.00908515
0.0100124
0.0100138
0.0109643
0.0109659
0.0119386
0.0119403
0.0129343
0.0129361
0.0139506
0.0139525
0.0149866
0.0149887
0.0160417
0.0160439
0.017115
0.0171173
0.0182058
0.0182083
0.0193136
0.0193161
0.0204375
0.0204402
0.021577
0.0215798
0.0227313
0.0227343
0.0239
0.0239032
0.0250824
0.0250856
0.0262778
0.0262812
0.0274855
0.0274891
0.0287049
0.0287086
0.0299353
0.0299392
0.0311759
0.0311799
0.032426
0.0324301
0.0336847
0.0336891
0.0349515
0.0349559
0.0362254
0.03623
0.0375058
0.0375106
0.0387919
0.0387969
0.0400829
0.040088
0.0413779
0.0413832
0.0426757
0.0426811
0.043975
0.0439806
0.0452742
0.04528
0.0465718
0.0465777
0.0478657
0.0478718
0.049154
0.0491602
0.0504347
0.0504412
0.051706
0.0517126
0.0529665
0.0529733
0.0542156
0.0542226
0.0554545
0.0554618
0.056687
0.0566945
0.0579189
0.0579266
0.0591572
0.0591651
0.0604061
0.0604142
0.0616636
0.061672
0.0629121
0.0629207
0.064123
0.0641318
0.065259
0.0652678
0.0662816
0.0662905
0.0671603
0.067169
0.0678785
0.0678871
0.0684364
0.0684446
0.0688482
0.0688561
0.0691385
0.069146
0.0693365
0.0693436
0.069472
0.0694787
0.0695718
0.0695781
0.0696578
0.0696639
0.0697465
0.0697525
0.0698489
0.0698547
0.0699714
0.069977
0.070115
0.0701205
0.0702773
0.0702827
0.070454
0.0704591
0.0706389
0.0706437
0.0708255
0.07083
0.0710073
0.0710114
0.0711779
0.0711816
0.0713319
0.0713352
0.0714643
0.0714672
0.071571
0.0715735
0.0716487
0.071651
0.0716952
0.0716973
0.0717092
0.071711
0.0716905
0.0716922
0.0716406
0.0716421
0.0715621
0.0715635
0.0714593
0.0714606
0.0713373
0.0713385
0.0712021
0.0712033
0.0710599
0.071061
0.0709162
0.0709172
0.0707759
0.0707769
0.0706423
0.0706433
0.070518
0.070519
0.0704038
0.0704048
0.0703
0.0703009
0.0702066
0.0702074
0.0701235
0.0701243
0.0700512
0.070052
0.0699906
0.0699914
0.0699431
0.0699439
0.0699106
0.0699113
0.0698948
0.0698955
0.0698971
0.0698978
0.0699183
0.069919
0.0699578
0.0699584
0.0700138
0.0700144
0.0700832
0.0700838
0.0701618
0.0701624
0.070245
0.0702455
0.0703281
0.0703286
0.0704076
0.0704081
0.0704819
0.0704823
0.0705514
0.0705518
0.0706193
0.0706196
0.0706908
0.0706911
0.0707726
0.070773
0.0708717
0.0708721
0.0709944
0.0709948
0.0711455
0.0711458
0.0713269
0.0713273
0.0715384
0.0715388
0.0717781
0.0717785
0.0720432
0.0720436
0.0723306
0.072331
0.072638
0.0726384
0.072964
0.0729644
0.0733085
0.0733089
0.0736722
0.0736726
0.0740569
0.0740573
0.0744645
0.0744649
0.0748971
0.0748976
0.0753566
0.0753571
0.0758445
0.075845
0.0763617
0.0763623
0.0769089
0.0769095
0.0774861
0.0774866
0.0780927
0.0780933
0.0787283
0.0787289
0.079392
0.0793927
0.0800835
0.0800842
0.0808024
0.0808032
0.0815493
0.0815501
0.0823253
0.0823262
0.0831323
0.0831333
0.0839729
0.0839739
0.0848501
0.0848512
0.0857673
0.0857685
0.0867283
0.0867296
0.0877364
0.0877378
0.0887948
0.0887963
0.0899063
0.0899079
0.0910729
0.0910746
0.0922959
0.0922978
0.0935758
0.0935779
0.094912
0.0949142
0.0963026
0.096305
0.0977444
0.097747
0.0992327
0.0992355
0.100761
0.100764
0.102319
0.102323
0.103898
0.103901
0.105484
0.105487
0.107062
0.107066
0.108618
0.108622
0.110138
0.110142
0.111608
0.111612
0.113019
0.113023
0.114368
0.114371
0.115657
0.115658
0.116895
0.116895
0.118096
0.118096
0.119284
0.119283
0.120482
0.120482
0.121719
0.121718
0.123017
0.123017
0.124394
0.124395
0.125861
0.125862
0.127416
0.127417
0.129046
0.129047
0.130731
0.130732
0.132444
0.132445
0.134154
0.134155
0.135834
0.135834
0.13746
0.137459
0.139012
0.13901
0.140479
0.140476
0.141855
0.141852
0.143142
0.143139
0.144349
0.144346
0.145489
0.145486
0.146578
0.146575
0.147635
0.147632
0.14868
0.148678
0.149732
0.149731
0.150812
0.15081
0.151935
0.151934
0.153119
0.153118
0.154378
0.154377
0.155723
0.155723
0.157167
0.157167
0.158716
0.158717
0.160378
0.160379
0.162156
0.162157
0.16405
0.164051
0.166057
0.166058
0.168167
0.168169
0.170368
0.170369
0.172636
0.172638
0.174946
0.174947
0.177261
0.177263
0.179543
0.179545
0.181748
0.181751
0.183835
0.183838
0.185765
0.185769
0.18751
0.187514
0.189054
0.189058
0.190397
0.190401
0.191561
0.191564
0.192584
0.192585
0.193514
0.193514
0.194407
0.194407
0.195321
0.195321
0.196308
0.196308
0.197404
0.197404
0.198622
0.198623
0.199958
0.199959
0.201392
0.201393
0.202895
0.202896
0.204438
0.204438
0.206003
0.206003
0.207586
0.207586
0.209196
0.209195
0.21085
0.210849
0.212579
0.212578
0.214416
0.214415
0.216391
0.21639
0.218529
0.218529
0.22085
0.22085
0.223366
0.223366
0.226087
0.226087
0.229019
0.229019
0.232169
0.232169
0.235545
0.235545
0.239156
0.239156
0.243011
0.243011
0.247115
0.247115
0.251473
0.251474
0.256088
0.256088
0.260958
0.260959
0.266083
0.266083
0.271458
0.271458
0.27708
0.277081
0.282949
0.282949
0.289064
0.289064
0.295426
0.295427
0.302042
0.302042
0.308916
0.308917
0.316057
0.316058
0.323473
0.323473
0.33117
0.33117
0.339153
0.339154
0.347426
0.347426
0.355987
0.355987
0.364833
0.364833
0.37396
0.37396
0.383362
0.383362
0.393032
0.393032
0.402963
0.402963
0.413148
0.413149
0.423581
0.423582
0.434254
0.434254
0.445158
0.445159
0.456286
0.456286
0.467627
0.467628
0.479172
0.479172
0.49091
0.49091
0.502829
0.50283
0.514919
0.514919
0.527169
0.52717
0.53957
0.53957
0.552114
0.552114
0.564793
0.564794
0.577604
0.577604
0.590538
0.590538
0.603589
0.60359
0.616748
0.616749
0.630004
0.630004
0.643341
0.643342
0.656745
0.656746
0.670201
0.670201
0.683691
0.683692
0.697204
0.697204
0.710726
0.710727
0.72425
0.724251
0.737768
0.737769
0.751276
0.751276
0.764768
0.764769
0.778241
0.778242
0.791691
0.791691
0.805111
0.805111
0.818495
0.818496
0.831836
0.831836
0.845123
0.845123
0.858344
0.858344
0.87148
0.87148
0.884497
0.884497
0.897332
0.897333
0.90985
0.90985
0.921752
0.921752
0.93237
0.93237
0.94024
0.940239
0.94
0.939999
0.940017
0.940017
0.940262
0.940262
0.932395
0.932395
0.921774
0.921774
0.909871
0.909871
0.897351
0.897351
0.884514
0.884514
0.871496
0.871496
0.858359
0.858359
0.845137
0.845137
0.831849
0.831849
0.818508
0.818508
0.805124
0.805124
0.791703
0.791703
0.778254
0.778254
0.764782
0.764782
0.75129
0.75129
0.737784
0.737784
0.724266
0.724266
0.710742
0.710742
0.69722
0.69722
0.683709
0.683708
0.670219
0.670219
0.656765
0.656764
0.643361
0.643361
0.630024
0.630023
0.616768
0.616768
0.60361
0.60361
0.590559
0.590559
0.577625
0.577625
0.564815
0.564815
0.552136
0.552136
0.539593
0.539592
0.527192
0.527192
0.514942
0.514941
0.502851
0.502851
0.490931
0.490931
0.479193
0.479193
0.467648
0.467648
0.456306
0.456306
0.445178
0.445178
0.434274
0.434273
0.423601
0.4236
0.413167
0.413167
0.402981
0.402981
0.393049
0.393049
0.383379
0.383379
0.373976
0.373976
0.364849
0.364848
0.356002
0.356001
0.34744
0.34744
0.339167
0.339167
0.331182
0.331182
0.323485
0.323485
0.316068
0.316068
0.308926
0.308926
0.302051
0.302051
0.295435
0.295435
0.289072
0.289071
0.282956
0.282956
0.277086
0.277086
0.271463
0.271462
0.266087
0.266087
0.260962
0.260961
0.25609
0.25609
0.251475
0.251475
0.247116
0.247116
0.243011
0.243011
0.239156
0.239156
0.235544
0.235544
0.232167
0.232167
0.229016
0.229016
0.226084
0.226084
0.223362
0.223363
0.220845
0.220846
0.218524
0.218524
0.216384
0.216385
0.214409
0.21441
0.212572
0.212573
0.210843
0.210844
0.20919
0.209191
0.207582
0.207583
0.206
0.206
0.204436
0.204436
0.202894
0.202893
0.201393
0.201392
0.199959
0.199958
0.198623
0.198622
0.197404
0.197404
0.196308
0.196308
0.195322
0.195322
0.194408
0.194408
0.193516
0.193516
0.192588
0.192587
0.191568
0.191566
0.190406
0.190403
0.189064
0.18906
0.18752
0.187517
0.185775
0.185772
0.183845
0.183842
0.181758
0.181755
0.179552
0.17955
0.17727
0.177268
0.174955
0.174953
0.172645
0.172644
0.170376
0.170375
0.168175
0.168174
0.166064
0.166063
0.164057
0.164056
0.162162
0.162162
0.160384
0.160384
0.158721
0.158721
0.157171
0.157171
0.155727
0.155728
0.154381
0.154381
0.153122
0.153123
0.151937
0.151938
0.150813
0.150815
0.149734
0.149735
0.14868
0.148682
0.147635
0.147637
0.146577
0.14658
0.145488
0.145491
0.144348
0.144351
0.143141
0.143144
0.141854
0.141857
0.140478
0.140481
0.139012
0.139014
0.13746
0.137462
0.135836
0.135836
0.134156
0.134155
0.132445
0.132444
0.130733
0.130732
0.129048
0.129047
0.127417
0.127416
0.125862
0.125861
0.124395
0.124395
0.123017
0.123017
0.121718
0.121719
0.120482
0.120482
0.119283
0.119283
0.118096
0.118096
0.116895
0.116895
0.115658
0.115657
0.114371
0.114368
0.113023
0.11302
0.111612
0.111608
0.110142
0.110138
0.108622
0.108618
0.107066
0.107062
0.105487
0.105483
0.103901
0.103898
0.102322
0.102319
0.100763
0.10076
0.0992349
0.099232
0.0977463
0.0977436
0.0963041
0.0963017
0.0949132
0.0949109
0.0935767
0.0935746
0.0922965
0.0922946
0.0910732
0.0910714
0.0899063
0.0899046
0.0887945
0.0887929
0.0877357
0.0877343
0.0867273
0.086726
0.0857661
0.0857649
0.0848485
0.0848474
0.083971
0.08397
0.0831302
0.0831292
0.0823228
0.0823219
0.0815465
0.0815456
0.0807992
0.0807984
0.0800799
0.0800792
0.0793882
0.0793874
0.0787241
0.0787234
0.0780882
0.0780875
0.0774812
0.0774806
0.0769039
0.0769033
0.0763564
0.0763559
0.0758389
0.0758384
0.0753508
0.0753503
0.0748911
0.0748906
0.0744583
0.0744578
0.0740505
0.07405
0.0736656
0.0736651
0.0733015
0.0733011
0.0729568
0.0729564
0.0726305
0.0726301
0.0723228
0.0723224
0.0720351
0.0720347
0.0717697
0.0717694
0.0715298
0.0715294
0.0713181
0.0713177
0.0711365
0.0711361
0.0709852
0.0709848
0.0708624
0.070862
0.0707631
0.0707627
0.0706811
0.0706807
0.0706095
0.0706091
0.0705415
0.0705411
0.0704719
0.0704714
0.0703976
0.0703971
0.070318
0.0703175
0.0702348
0.0702343
0.0701517
0.0701511
0.070073
0.0700724
0.0700035
0.0700029
0.0699474
0.0699468
0.0699079
0.0699072
0.0698866
0.069886
0.0698842
0.0698835
0.0698999
0.0698992
0.0699324
0.0699316
0.0699798
0.069979
0.0700403
0.0700395
0.0701126
0.0701118
0.0701956
0.0701948
0.070289
0.0702881
0.0703928
0.0703919
0.070507
0.070506
0.0706312
0.0706303
0.0707647
0.0707637
0.070905
0.070904
0.0710487
0.0710476
0.0711909
0.0711898
0.0713261
0.0713249
0.0714481
0.0714468
0.0715511
0.0715497
0.0716297
0.0716282
0.07168
0.0716783
0.0716989
0.0716971
0.0716852
0.0716831
0.0716389
0.0716365
0.0715613
0.0715586
0.0714548
0.0714518
0.0713227
0.0713193
0.071169
0.0711651
0.0709986
0.0709943
0.070817
0.0708123
0.0706305
0.0706255
0.0704457
0.0704404
0.0702691
0.0702636
0.0701068
0.0701011
0.0699632
0.0699573
0.0698408
0.0698347
0.0697384
0.0697322
0.0696497
0.0696433
0.0695639
0.0695572
0.0694645
0.0694575
0.0693293
0.0693219
0.0691317
0.0691238
0.068842
0.0688337
0.0684309
0.0684222
0.0678737
0.0678647
0.067156
0.0671467
0.0662777
0.0662684
0.0652552
0.0652459
0.0641192
0.06411
0.0629083
0.0628993
0.0616599
0.0616511
0.0604024
0.0603938
0.0591534
0.0591451
0.0579151
0.057907
0.0566831
0.0566753
0.0554507
0.0554431
0.0542117
0.0542043
0.0529627
0.0529555
0.0517024
0.0516955
0.0504313
0.0504245
0.0491508
0.0491442
0.0478626
0.0478561
0.0465688
0.0465626
0.0452714
0.0452654
0.0439723
0.0439664
0.0426731
0.0426674
0.0413755
0.04137
0.0400807
0.0400753
0.0387898
0.0387846
0.0375038
0.0374988
0.0362235
0.0362187
0.0349497
0.034945
0.0336831
0.0336786
0.0324245
0.0324201
0.0311745
0.0311703
0.029934
0.0299299
0.0287037
0.0286998
0.0274844
0.0274806
0.0262767
0.0262731
0.0250814
0.025078
0.0238991
0.0238958
0.0227305
0.0227274
0.0215762
0.0215732
0.0204368
0.0204339
0.0193129
0.0193102
0.0182053
0.0182027
0.0171145
0.0171121
0.0160412
0.016039
0.0149863
0.0149841
0.0139503
0.0139482
0.012934
0.0129321
0.0119383
0.0119366
0.0109641
0.0109625
0.0100122
0.0100107
0.00908366
0.00908225
0.00817954
0.00817824
0.00730106
0.00729987
0.00644963
0.00644855
0.00562685
0.00562587
0.00483464
0.00483376
0.00407532
0.00407455
0.00335184
0.00335117
0.00266802
0.00266745
0.00202913
0.00202865
0.00144289
0.0014425
0.000921604
0.00092131
0.000486739
0.000486544
0.000176334
0.000176238
3.00006e-05
2.99791e-05
1.48131e-06
1.48016e-06
8.99175e-09
8.98432e-09
0.94
0.94
0.940242
0.940242
0.932376
0.932376
0.921758
0.921758
0.909857
0.909857
0.89734
0.89734
0.884505
0.884506
0.871489
0.871489
0.858354
0.858354
0.845133
0.845134
0.831846
0.831847
0.818506
0.818506
0.805122
0.805122
0.791702
0.791702
0.778253
0.778254
0.764781
0.764781
0.75129
0.75129
0.737783
0.737783
0.724265
0.724266
0.710742
0.710742
0.697219
0.69722
0.683708
0.683708
0.670218
0.670218
0.656764
0.656764
0.64336
0.64336
0.630023
0.630023
0.616768
0.616768
0.603609
0.603609
0.590558
0.590558
0.577624
0.577625
0.564815
0.564815
0.552135
0.552136
0.539592
0.539593
0.527191
0.527192
0.514941
0.514941
0.50285
0.502851
0.490931
0.490931
0.479192
0.479193
0.467647
0.467648
0.456306
0.456306
0.445178
0.445178
0.434273
0.434273
0.4236
0.4236
0.413167
0.413167
0.402981
0.402981
0.393049
0.393049
0.383378
0.383379
0.373976
0.373976
0.364848
0.364849
0.356001
0.356002
0.34744
0.34744
0.339167
0.339167
0.331182
0.331183
0.323485
0.323485
0.316068
0.316069
0.308926
0.308927
0.302051
0.302051
0.295435
0.295435
0.289071
0.289071
0.282955
0.282956
0.277085
0.277086
0.271462
0.271462
0.266086
0.266086
0.260961
0.260961
0.256089
0.25609
0.251474
0.251474
0.247115
0.247115
0.24301
0.24301
0.239155
0.239155
0.235543
0.235544
0.232166
0.232167
0.229016
0.229016
0.226084
0.226083
0.223363
0.223362
0.220846
0.220845
0.218524
0.218524
0.216385
0.216385
0.21441
0.214409
0.212573
0.212572
0.210845
0.210843
0.209191
0.20919
0.207582
0.207581
0.206
0.206
0.204435
0.204436
0.202893
0.202894
0.201391
0.201392
0.199957
0.199959
0.198622
0.198622
0.197404
0.197404
0.196308
0.196309
0.195322
0.195322
0.194409
0.194409
0.193516
0.193517
0.192587
0.192589
0.191566
0.191569
0.190402
0.190406
0.18906
0.189064
0.187516
0.18752
0.185771
0.185774
0.18384
0.183843
0.181753
0.181756
0.179548
0.179551
0.177266
0.177269
0.174951
0.174953
0.172642
0.172643
0.170373
0.170374
0.168172
0.168173
0.166061
0.166062
0.164055
0.164055
0.16216
0.162161
0.160382
0.160383
0.15872
0.15872
0.157171
0.15717
0.155727
0.155726
0.154381
0.15438
0.153122
0.153121
0.151938
0.151937
0.150814
0.150813
0.149735
0.149733
0.148682
0.14868
0.147637
0.147634
0.14658
0.146577
0.145491
0.145487
0.144351
0.144347
0.143144
0.14314
0.141857
0.141853
0.140481
0.140477
0.139013
0.139011
0.137461
0.13746
0.135835
0.135835
0.134154
0.134155
0.132443
0.132444
0.130731
0.130732
0.129046
0.129047
0.127416
0.127417
0.125861
0.125861
0.124394
0.124394
0.123016
0.123016
0.121718
0.121718
0.120482
0.120481
0.119283
0.119283
0.118096
0.118096
0.116894
0.116895
0.115657
0.115658
0.114368
0.11437
0.113019
0.113022
0.111608
0.111612
0.110138
0.110142
0.108618
0.108622
0.107062
0.107066
0.105483
0.105487
0.103897
0.103901
0.102318
0.102322
0.10076
0.100763
0.0992317
0.0992346
0.0977433
0.0977461
0.0963013
0.0963039
0.0949106
0.0949129
0.0935743
0.0935765
0.0922943
0.0922963
0.0910711
0.0910729
0.0899043
0.089906
0.0887927
0.0887943
0.0877341
0.0877355
0.0867258
0.0867271
0.0857646
0.0857659
0.0848472
0.0848483
0.0839698
0.0839708
0.083129
0.08313
0.0823217
0.0823226
0.0815454
0.0815463
0.0807982
0.080799
0.080079
0.0800797
0.0793873
0.079388
0.0787232
0.0787239
0.0780874
0.078088
0.0774805
0.0774811
0.0769031
0.0769037
0.0763557
0.0763563
0.0758383
0.0758388
0.0753502
0.0753507
0.0748905
0.074891
0.0744577
0.0744582
0.0740499
0.0740504
0.073665
0.0736655
0.073301
0.0733014
0.0729563
0.0729567
0.07263
0.0726304
0.0723223
0.0723227
0.0720346
0.072035
0.0717693
0.0717697
0.0715294
0.0715298
0.0713177
0.071318
0.0711361
0.0711364
0.0709848
0.0709852
0.0708619
0.0708623
0.0707626
0.070763
0.0706807
0.0706811
0.0706091
0.0706095
0.070541
0.0705415
0.0704714
0.0704719
0.0703971
0.0703976
0.0703175
0.070318
0.0702343
0.0702348
0.0701511
0.0701517
0.0700724
0.070073
0.0700029
0.0700035
0.0699468
0.0699474
0.0699072
0.0699079
0.0698859
0.0698866
0.0698835
0.0698842
0.0698991
0.0698999
0.0699316
0.0699324
0.069979
0.0699798
0.0700395
0.0700403
0.0701117
0.0701126
0.0701947
0.0701956
0.0702881
0.070289
0.0703918
0.0703928
0.070506
0.070507
0.0706302
0.0706312
0.0707637
0.0707647
0.0709039
0.070905
0.0710475
0.0710487
0.0711897
0.0711909
0.0713248
0.0713261
0.0714468
0.0714481
0.0715497
0.0715511
0.0716282
0.0716298
0.0716783
0.07168
0.071697
0.0716989
0.0716831
0.0716852
0.0716365
0.0716389
0.0715586
0.0715613
0.0714518
0.0714548
0.0713192
0.0713227
0.0711651
0.071169
0.0709943
0.0709986
0.0708123
0.070817
0.0706255
0.0706306
0.0704403
0.0704457
0.0702635
0.0702692
0.070101
0.0701069
0.0699573
0.0699633
0.0698347
0.0698408
0.0697322
0.0697385
0.0696433
0.0696498
0.0695572
0.069564
0.0694574
0.0694645
0.0693219
0.0693294
0.0691238
0.0691318
0.0688337
0.0688421
0.0684222
0.068431
0.0678647
0.0678737
0.0671467
0.067156
0.0662683
0.0662777
0.0652459
0.0652553
0.06411
0.0641193
0.0628992
0.0629083
0.0616511
0.06166
0.0603938
0.0604025
0.0591451
0.0591535
0.057907
0.0579151
0.0566753
0.0566832
0.055443
0.0554507
0.0542043
0.0542118
0.0529555
0.0529628
0.0516955
0.0517025
0.0504245
0.0504314
0.0491442
0.0491508
0.0478561
0.0478626
0.0465626
0.0465688
0.0452654
0.0452715
0.0439664
0.0439724
0.0426674
0.0426732
0.04137
0.0413756
0.0400753
0.0400807
0.0387846
0.0387899
0.0374988
0.0375039
0.0362187
0.0362236
0.034945
0.0349498
0.0336786
0.0336832
0.0324201
0.0324245
0.0311703
0.0311745
0.0299299
0.029934
0.0286998
0.0287037
0.0274806
0.0274844
0.0262731
0.0262767
0.025078
0.0250814
0.0238959
0.0238992
0.0227274
0.0227305
0.0215732
0.0215762
0.0204339
0.0204368
0.0193102
0.019313
0.0182027
0.0182053
0.0171121
0.0171145
0.016039
0.0160413
0.0149841
0.0149863
0.0139482
0.0139503
0.0129321
0.012934
0.0119366
0.0119384
0.0109625
0.0109641
0.0100107
0.0100122
0.00908225
0.00908368
0.00817824
0.00817955
0.00729988
0.00730108
0.00644855
0.00644964
0.00562587
0.00562686
0.00483376
0.00483465
0.00407455
0.00407533
0.00335117
0.00335185
0.00266745
0.00266803
0.00202865
0.00202914
0.0014425
0.00144289
0.000921311
0.000921607
0.000486544
0.000486741
0.000176238
0.000176335
2.99791e-05
3.00008e-05
1.48016e-06
1.48132e-06
8.98432e-09
8.9918e-09
)
;

boundaryField
{
    walls
    {
        type            nutUWallFunction;
        blending        stepwise;
        Cmu             0.09;
        kappa           0.41;
        E               9.8;
        value           uniform 0;
    }
    inlet
    {
        type            cyclic;
    }
    outlet
    {
        type            cyclic;
    }
    sides
    {
        type            empty;
    }
}


// ************************************************************************* //
