/*--------------------------------*- C++ -*----------------------------------*\
| =========                 |                                                 |
| \\      /  F ield         | OpenFOAM: The Open Source CFD Toolbox           |
|  \\    /   O peration     | Version:  2012                                  |
|   \\  /    A nd           | Website:  www.openfoam.com                      |
|    \\/     M anipulation  |                                                 |
\*---------------------------------------------------------------------------*/
FoamFile
{
    version     2.0;
    format      ascii;
    class       volScalarField;
    location    "12000";
    object      omega;
}
// * * * * * * * * * * * * * * * * * * * * * * * * * * * * * * * * * * * * * //

dimensions      [0 0 -1 0 0 0 0];


internalField   nonuniform List<scalar> 
2560
(
1.52417e+06
1.52417e+06
264054
264057
87461.4
87464.3
41356.5
41357.4
25370.6
25370.4
18271.9
18271.3
14409.7
14409.1
11999.1
11998.5
10350.5
10349.9
9149.3
9148.71
8233.17
8232.62
7510.02
7509.51
6923.8
6923.32
6438.41
6437.96
6029.54
6029.12
5680.22
5679.82
5378.21
5377.83
5114.46
5114.1
4882.14
4881.8
4675.99
4675.67
4491.87
4491.56
4326.51
4326.21
4177.25
4176.96
4041.93
4041.66
3918.79
3918.52
3806.34
3806.09
3703.36
3703.11
3608.8
3608.55
3521.77
3521.53
3441.51
3441.28
3367.39
3367.16
3298.82
3298.6
3235.32
3235.1
3176.45
3176.24
3121.84
3121.63
3071.14
3070.93
3024.04
3023.84
2980.28
2980.07
2939.59
2939.39
2901.78
2901.58
2866.64
2866.44
2834
2833.81
2803.71
2803.51
2775.61
2775.41
2749.56
2749.36
2725.42
2725.23
2703.05
2702.85
2682.28
2682.08
2662.98
2662.77
2644.96
2644.76
2628.09
2627.89
2612.22
2612.01
2597.19
2596.98
2582.92
2582.7
2569.34
2569.12
2556.5
2556.28
2544.58
2544.36
2533.88
2533.65
2524.75
2524.51
2517.42
2517.17
2511.85
2511.59
2507.27
2507.01
2502.44
2502.18
2495.71
2495.44
2485.37
2485.1
2470.08
2469.81
2449.1
2448.85
2422.44
2422.19
2390.68
2390.45
2354.83
2354.62
2316.08
2315.89
2275.6
2275.41
2234.39
2234.22
2193.26
2193.1
2152.79
2152.64
2113.33
2113.18
2075.06
2074.92
2038
2037.87
2002.05
2001.93
1967.06
1966.94
1932.82
1932.71
1899.14
1899.04
1865.83
1865.74
1832.71
1832.63
1799.63
1799.57
1766.49
1766.44
1733.2
1733.15
1699.68
1699.64
1665.9
1665.87
1631.87
1631.85
1597.61
1597.59
1563.18
1563.16
1528.67
1528.65
1494.2
1494.19
1459.91
1459.9
1425.94
1425.93
1392.43
1392.42
1359.49
1359.49
1327.22
1327.21
1295.66
1295.66
1264.85
1264.85
1234.79
1234.79
1205.46
1205.46
1176.85
1176.84
1148.92
1148.92
1121.68
1121.67
1095.11
1095.11
1069.22
1069.22
1044.03
1044.03
1019.54
1019.54
995.744
995.745
972.639
972.64
950.194
950.195
928.362
928.364
907.08
907.082
886.275
886.278
865.869
865.872
845.794
845.797
825.995
825.998
806.446
806.45
787.15
787.155
768.14
768.144
749.469
749.473
731.203
731.207
713.406
713.411
696.129
696.133
679.403
679.407
663.227
663.231
647.577
647.581
632.416
632.42
617.699
617.703
603.381
603.385
589.426
589.43
575.81
575.814
562.519
562.523
549.548
549.551
536.898
536.901
524.573
524.576
512.576
512.579
500.908
500.911
489.569
489.572
478.553
478.556
467.851
467.854
457.452
457.455
447.343
447.345
437.508
437.511
427.935
427.937
418.61
418.612
409.523
409.525
400.668
400.67
392.042
392.044
383.648
383.65
375.489
375.491
367.573
367.574
359.908
359.909
352.502
352.503
345.363
345.364
338.498
338.498
331.909
331.909
325.601
325.6
319.571
319.57
313.817
313.815
308.331
308.329
303.104
303.102
298.122
298.119
293.366
293.362
288.812
288.807
284.431
284.426
280.189
280.183
276.046
276.04
271.961
271.954
267.891
267.883
263.795
263.787
259.64
259.633
255.401
255.395
251.07
251.066
246.652
246.65
242.17
242.17
237.658
237.659
233.165
233.166
228.742
228.744
224.444
224.446
220.316
220.317
216.387
216.388
212.674
212.674
209.173
209.173
205.857
205.856
202.689
202.688
199.623
199.622
196.609
196.608
193.6
193.6
190.559
190.561
187.459
187.462
184.283
184.287
181.024
181.028
177.685
177.69
174.281
174.286
170.829
170.834
167.352
167.356
163.872
163.876
160.415
160.418
157
157.003
153.65
153.652
150.38
150.382
147.205
147.207
144.138
144.139
141.187
141.188
138.36
138.361
135.661
135.662
133.094
133.095
130.658
130.659
128.352
128.353
126.171
126.172
124.107
124.107
122.145
122.145
120.27
120.27
118.459
118.458
116.686
116.686
114.924
114.923
113.14
113.139
111.308
111.307
109.403
109.401
107.406
107.405
105.31
105.308
103.117
103.116
100.842
100.841
98.5093
98.5089
96.148
96.1481
93.7886
93.7889
91.4611
91.4614
89.1892
89.1894
86.9881
86.9883
84.861
84.861
82.8021
82.802
80.7991
80.799
78.8369
78.8367
76.9011
76.9011
74.9827
74.9829
73.0785
73.079
71.1902
71.1908
69.323
69.3235
67.4855
67.486
65.6867
65.6871
63.934
63.9344
62.2324
62.2327
60.5845
60.5848
58.9911
58.9913
57.4515
57.4517
55.9645
55.9647
54.5293
54.5294
53.145
53.1452
51.8112
51.8113
50.5272
50.5273
49.2922
49.2923
48.105
48.105
46.9638
46.9639
45.8667
45.8668
44.8115
44.8115
43.7959
43.7959
42.8178
42.8178
41.8754
41.8755
40.9675
40.9676
40.0931
40.0931
39.2516
39.2517
38.4429
38.4429
37.667
37.667
36.9238
36.9239
36.2136
36.2136
35.536
35.536
34.8907
34.8907
34.277
34.277
33.6941
33.6941
33.141
33.141
32.6166
32.6166
32.1201
32.1202
31.6506
31.6506
31.2071
31.2071
30.789
30.789
30.3953
30.3953
30.0255
30.0255
29.6788
29.6788
29.3545
29.3545
29.0519
29.0519
28.7703
28.7703
28.509
28.509
28.2674
28.2674
28.0451
28.0451
27.8416
27.8416
27.6566
27.6566
27.49
27.49
27.3416
27.3416
27.2115
27.2115
27.0996
27.0996
27.0057
27.0057
26.9297
26.9297
26.8713
26.8713
26.8301
26.8301
26.806
26.806
26.7986
26.7986
26.8077
26.8077
26.8335
26.8335
26.876
26.876
26.9355
26.9355
27.0122
27.0122
27.1068
27.1068
27.2196
27.2196
27.3512
27.3512
27.5021
27.5021
27.6728
27.6728
27.8638
27.8638
28.0758
28.0758
28.3091
28.3091
28.564
28.564
28.8403
28.8403
29.1366
29.1366
29.4491
29.4491
29.7677
29.7677
30.0689
30.0689
30.2997
30.2997
30.2699
30.2699
1.52417e+06
1.52417e+06
264057
264054
87464.3
87461.4
41357.4
41356.5
25370.4
25370.6
18271.3
18271.9
14409.1
14409.7
11998.5
11999.1
10349.9
10350.5
9148.71
9149.3
8232.62
8233.17
7509.51
7510.02
6923.32
6923.8
6437.96
6438.41
6029.12
6029.54
5679.82
5680.22
5377.83
5378.21
5114.1
5114.46
4881.8
4882.14
4675.67
4675.99
4491.56
4491.87
4326.21
4326.51
4176.96
4177.25
4041.66
4041.93
3918.52
3918.79
3806.09
3806.34
3703.11
3703.36
3608.55
3608.8
3521.53
3521.77
3441.28
3441.51
3367.16
3367.39
3298.6
3298.82
3235.1
3235.32
3176.24
3176.46
3121.63
3121.84
3070.93
3071.14
3023.84
3024.04
2980.07
2980.28
2939.39
2939.6
2901.58
2901.78
2866.44
2866.64
2833.81
2834.01
2803.51
2803.71
2775.41
2775.61
2749.36
2749.56
2725.23
2725.42
2702.85
2703.05
2682.08
2682.29
2662.77
2662.98
2644.76
2644.96
2627.89
2628.1
2612.01
2612.22
2596.98
2597.19
2582.7
2582.92
2569.12
2569.34
2556.28
2556.5
2544.36
2544.58
2533.65
2533.88
2524.51
2524.75
2517.17
2517.42
2511.59
2511.85
2507.01
2507.27
2502.17
2502.44
2495.44
2495.71
2485.1
2485.37
2469.81
2470.08
2448.85
2449.11
2422.19
2422.44
2390.45
2390.68
2354.62
2354.83
2315.89
2316.08
2275.41
2275.6
2234.22
2234.39
2193.1
2193.26
2152.64
2152.79
2113.18
2113.33
2074.92
2075.06
2037.87
2038
2001.93
2002.05
1966.94
1967.06
1932.71
1932.82
1899.04
1899.14
1865.74
1865.83
1832.63
1832.71
1799.57
1799.63
1766.44
1766.49
1733.15
1733.2
1699.64
1699.68
1665.87
1665.9
1631.85
1631.87
1597.59
1597.61
1563.16
1563.18
1528.65
1528.67
1494.19
1494.2
1459.9
1459.91
1425.93
1425.94
1392.42
1392.43
1359.49
1359.49
1327.21
1327.22
1295.66
1295.66
1264.85
1264.85
1234.79
1234.79
1205.46
1205.46
1176.84
1176.85
1148.92
1148.92
1121.67
1121.68
1095.11
1095.11
1069.22
1069.22
1044.03
1044.03
1019.54
1019.54
995.745
995.744
972.64
972.639
950.195
950.194
928.364
928.362
907.082
907.08
886.278
886.275
865.872
865.869
845.797
845.793
825.998
825.995
806.45
806.446
787.154
787.15
768.144
768.14
749.473
749.469
731.207
731.203
713.411
713.406
696.133
696.129
679.407
679.403
663.231
663.227
647.581
647.577
632.42
632.416
617.702
617.698
603.384
603.38
589.43
589.426
575.814
575.81
562.522
562.519
549.551
549.547
536.901
536.897
524.576
524.572
512.578
512.575
500.911
500.908
489.572
489.568
478.555
478.552
467.853
467.85
457.454
457.452
447.345
447.342
437.51
437.508
427.937
427.934
418.611
418.609
409.524
409.522
400.669
400.667
392.043
392.042
383.649
383.647
375.49
375.489
367.574
367.573
359.908
359.907
352.502
352.502
345.363
345.363
338.497
338.497
331.908
331.909
325.599
325.6
319.569
319.571
313.814
313.816
308.328
308.331
303.101
303.104
298.118
298.121
293.361
293.365
288.806
288.811
284.425
284.43
280.182
280.188
276.039
276.045
271.953
271.96
267.883
267.89
263.787
263.794
259.632
259.639
255.395
255.401
251.065
251.07
246.65
246.652
242.169
242.169
237.659
237.658
233.166
233.164
228.744
228.742
224.445
224.444
220.316
220.315
216.387
216.387
212.674
212.673
209.172
209.172
205.855
205.856
202.687
202.688
199.621
199.622
196.607
196.607
193.599
193.599
190.56
190.558
187.462
187.458
184.286
184.282
181.028
181.023
177.69
177.685
174.285
174.28
170.833
170.829
167.355
167.351
163.876
163.872
160.417
160.414
157.003
157
153.652
153.649
150.382
150.379
147.207
147.205
144.139
144.137
141.188
141.187
138.361
138.359
135.662
135.661
133.094
133.093
130.658
130.657
128.352
128.352
126.171
126.17
124.105
124.105
122.144
122.144
120.268
120.269
118.457
118.458
116.684
116.685
114.921
114.922
113.138
113.139
111.306
111.307
109.4
109.402
107.404
107.406
105.308
105.31
103.115
103.117
100.841
100.842
98.5089
98.5095
96.1483
96.1482
93.7892
93.7889
91.4616
91.4613
89.1896
89.1893
86.9883
86.9882
84.8609
84.8609
82.8018
82.8019
80.7987
80.7989
78.8363
78.8366
76.9008
76.9009
74.9827
74.9825
73.0789
73.0784
71.1908
71.1901
69.3236
69.323
67.4861
67.4855
65.6873
65.6868
63.9345
63.934
62.2329
62.2325
60.5849
60.5846
58.9914
58.9912
57.4517
57.4515
55.9648
55.9645
54.5295
54.5293
53.1452
53.145
51.8113
51.8111
50.5272
50.5271
49.2922
49.2921
48.105
48.1049
46.9638
46.9637
45.8667
45.8666
44.8115
44.8114
43.7958
43.7957
42.8177
42.8177
41.8754
41.8754
40.9676
40.9675
40.0931
40.0931
39.2517
39.2516
38.443
38.4429
37.667
37.667
36.9239
36.9239
36.2137
36.2136
35.5361
35.536
34.8908
34.8907
34.2771
34.277
33.6941
33.6941
33.141
33.141
32.6167
32.6166
32.1202
32.1201
31.6506
31.6506
31.2071
31.2071
30.789
30.7889
30.3953
30.3953
30.0255
30.0255
29.6788
29.6788
29.3545
29.3545
29.0519
29.0519
28.7703
28.7703
28.509
28.509
28.2674
28.2674
28.0451
28.0451
27.8416
27.8416
27.6566
27.6566
27.49
27.49
27.3416
27.3416
27.2115
27.2115
27.0996
27.0996
27.0057
27.0057
26.9297
26.9297
26.8713
26.8713
26.8301
26.8301
26.806
26.806
26.7985
26.7985
26.8077
26.8077
26.8335
26.8335
26.876
26.876
26.9354
26.9355
27.0122
27.0122
27.1068
27.1068
27.2196
27.2196
27.3511
27.3512
27.502
27.502
27.6727
27.6727
27.8638
27.8638
28.0757
28.0757
28.3089
28.3089
28.5638
28.5638
28.84
28.84
29.1363
29.1363
29.4487
29.4487
29.7672
29.7672
30.0683
30.0682
30.299
30.299
30.2693
30.2693
30.2699
30.2699
30.2997
30.2997
30.069
30.069
29.7679
29.7679
29.4493
29.4493
29.1368
29.1368
28.8404
28.8404
28.5642
28.5642
28.3093
28.3093
28.076
28.076
27.864
27.864
27.6729
27.6729
27.5022
27.5022
27.3513
27.3513
27.2197
27.2197
27.1069
27.1069
27.0124
27.0124
26.9356
26.9356
26.8761
26.8761
26.8336
26.8336
26.8078
26.8078
26.7986
26.7986
26.8061
26.8061
26.8302
26.8302
26.8713
26.8713
26.9297
26.9297
27.0057
27.0057
27.0996
27.0996
27.2115
27.2115
27.3416
27.3416
27.4899
27.4899
27.6565
27.6565
27.8415
27.8415
28.0449
28.0449
28.2672
28.2672
28.5087
28.5087
28.7699
28.7699
29.0514
29.0514
29.354
29.354
29.6782
29.6782
30.0249
30.0249
30.3946
30.3946
30.7882
30.7882
31.2063
31.2063
31.6496
31.6497
32.1191
32.1191
32.6155
32.6155
33.1398
33.1398
33.6928
33.6928
34.2756
34.2756
34.8892
34.8892
35.5344
35.5345
36.2119
36.2119
36.9221
36.9221
37.6651
37.6651
38.4409
38.4409
39.2495
39.2495
40.0909
40.0909
40.9652
40.9652
41.8729
41.873
42.8151
42.8151
43.793
43.793
44.8085
44.8086
45.8636
45.8637
46.9606
46.9607
48.1017
48.1018
49.2889
49.2889
50.5237
50.5238
51.8076
51.8077
53.1414
53.1415
54.5255
54.5257
55.9607
55.9608
57.4475
57.4477
58.987
58.9873
60.5803
60.5806
62.2281
62.2284
63.9296
63.93
65.6822
65.6826
67.481
67.4815
69.3185
69.3191
71.186
71.1865
73.0745
73.075
74.979
74.9792
76.8977
76.8976
78.8337
78.8335
80.7962
80.796
82.7993
82.7992
84.8583
84.8583
86.9856
86.9857
89.1867
89.187
91.4588
91.4591
93.7865
93.7868
96.1462
96.1463
98.5079
98.5074
100.841
100.84
103.116
103.115
105.309
105.308
107.405
107.404
109.402
109.4
111.307
111.306
113.139
113.138
114.922
114.921
116.685
116.684
118.457
118.457
120.268
120.268
122.143
122.143
124.104
124.104
126.169
126.169
128.349
128.35
130.655
130.656
133.09
133.091
135.657
135.658
138.356
138.357
141.182
141.184
144.133
144.135
147.2
147.202
150.374
150.376
153.643
153.646
156.994
156.997
160.408
160.411
163.865
163.869
167.344
167.348
170.821
170.826
174.273
174.278
177.677
177.682
181.015
181.02
184.274
184.278
187.45
187.453
190.549
190.551
193.589
193.59
196.597
196.596
199.611
199.61
202.677
202.676
205.845
205.844
209.16
209.16
212.662
212.662
216.375
216.375
220.303
220.304
224.431
224.433
228.729
228.731
233.151
233.153
237.644
237.645
242.155
242.156
246.638
246.636
251.056
251.052
255.387
255.381
259.625
259.618
263.78
263.772
267.875
267.867
271.945
271.938
276.029
276.023
280.172
280.165
284.413
284.408
288.794
288.789
293.347
293.343
298.103
298.099
303.084
303.081
308.31
308.308
313.795
313.793
319.549
319.547
325.577
325.577
331.885
331.885
338.472
338.472
345.337
345.337
352.474
352.475
359.879
359.88
367.543
367.544
375.458
375.459
383.615
383.617
392.008
392.01
400.631
400.633
409.484
409.487
418.57
418.572
427.893
427.896
437.465
437.467
447.297
447.3
457.404
457.407
467.802
467.805
478.502
478.505
489.516
489.52
500.854
500.857
512.52
512.523
524.515
524.519
536.839
536.842
549.486
549.49
562.455
562.459
575.743
575.747
589.356
589.36
603.308
603.312
617.623
617.627
632.337
632.342
647.496
647.5
663.143
663.148
679.317
679.322
696.04
696.045
713.315
713.32
731.109
731.114
749.372
749.377
768.041
768.046
787.049
787.054
806.342
806.347
825.889
825.893
845.686
845.689
865.759
865.763
886.163
886.166
906.966
906.969
928.246
928.248
950.075
950.077
972.517
972.519
995.619
995.621
1019.41
1019.41
1043.9
1043.9
1069.09
1069.09
1094.97
1094.97
1121.54
1121.54
1148.78
1148.78
1176.7
1176.7
1205.31
1205.31
1234.64
1234.64
1264.7
1264.7
1295.5
1295.5
1327.06
1327.05
1359.33
1359.32
1392.26
1392.25
1425.77
1425.76
1459.74
1459.73
1494.02
1494.01
1528.49
1528.48
1563
1562.98
1597.43
1597.41
1631.7
1631.67
1665.73
1665.69
1699.49
1699.46
1733.01
1732.96
1766.3
1766.24
1799.43
1799.36
1832.5
1832.42
1865.61
1865.52
1898.92
1898.81
1932.59
1932.47
1966.82
1966.69
2001.81
2001.67
2037.75
2037.61
2074.8
2074.65
2113.06
2112.91
2152.52
2152.36
2192.99
2192.82
2234.11
2233.93
2275.31
2275.12
2315.79
2315.59
2354.54
2354.31
2390.39
2390.15
2422.16
2421.9
2448.83
2448.56
2469.81
2469.53
2485.11
2484.83
2495.45
2495.16
2502.18
2501.9
2507.01
2506.73
2511.59
2511.32
2517.16
2516.9
2524.49
2524.23
2533.62
2533.37
2544.32
2544.08
2556.24
2556.01
2569.08
2568.85
2582.66
2582.44
2596.95
2596.73
2611.98
2611.76
2627.86
2627.65
2644.73
2644.52
2662.75
2662.54
2682.06
2681.85
2702.83
2702.62
2725.2
2724.99
2749.34
2749.13
2775.39
2775.18
2803.49
2803.28
2833.79
2833.57
2866.42
2866.21
2901.56
2901.35
2939.37
2939.15
2980.05
2979.83
3023.81
3023.59
3070.9
3070.68
3121.6
3121.37
3176.2
3175.97
3235.06
3234.83
3298.55
3298.31
3367.11
3366.87
3441.23
3440.98
3521.47
3521.22
3608.49
3608.23
3703.04
3702.78
3806.02
3805.74
3918.45
3918.17
4041.58
4041.28
4176.88
4176.57
4326.12
4325.81
4491.47
4491.14
4675.56
4675.22
4881.69
4881.33
5113.98
5113.6
5377.7
5377.3
5679.69
5679.26
6028.97
6028.53
6437.8
6437.32
6923.14
6922.64
7509.32
7508.78
8232.42
8231.83
9148.48
9147.86
10349.6
10348.9
11998.1
11997.4
14408.6
14407.9
18270.7
18270.1
25369.5
25369.3
41355.9
41356.8
87462
87465
264055
264058
1.52418e+06
1.52418e+06
30.2693
30.2693
30.299
30.299
30.0684
30.0684
29.7673
29.7673
29.4488
29.4488
29.1364
29.1364
28.8402
28.8402
28.564
28.564
28.3091
28.3091
28.0759
28.0759
27.8639
27.8639
27.6728
27.6728
27.5021
27.5021
27.3513
27.3513
27.2197
27.2197
27.1069
27.1069
27.0124
27.0124
26.9356
26.9356
26.8761
26.8761
26.8336
26.8336
26.8078
26.8078
26.7986
26.7986
26.806
26.806
26.8302
26.8302
26.8713
26.8713
26.9297
26.9297
27.0057
27.0057
27.0996
27.0996
27.2115
27.2115
27.3416
27.3416
27.4899
27.4899
27.6565
27.6565
27.8415
27.8415
28.0449
28.0449
28.2672
28.2672
28.5087
28.5087
28.7699
28.7699
29.0514
29.0514
29.354
29.354
29.6782
29.6782
30.0249
30.0249
30.3946
30.3946
30.7882
30.7882
31.2063
31.2063
31.6497
31.6496
32.1191
32.1191
32.6155
32.6155
33.1398
33.1398
33.6928
33.6928
34.2757
34.2757
34.8893
34.8893
35.5345
35.5345
36.212
36.2119
36.9222
36.9221
37.6652
37.6651
38.441
38.4409
39.2496
39.2495
40.0909
40.0909
40.9652
40.9651
41.8729
41.8729
42.815
42.815
43.793
43.7929
44.8085
44.8084
45.8636
45.8635
46.9606
46.9605
48.1017
48.1016
49.2889
49.2888
50.5238
50.5237
51.8077
51.8076
53.1415
53.1414
54.5257
54.5255
55.9609
55.9607
57.4478
57.4475
58.9874
58.9871
60.5807
60.5804
62.2286
62.2282
63.9301
63.9296
65.6828
65.6822
67.4816
67.481
69.3192
69.3185
71.1865
71.1859
73.0749
73.0744
74.979
74.9788
76.8973
76.8974
78.8331
78.8334
80.7957
80.7959
82.799
82.7991
84.8582
84.8582
86.9857
86.9856
89.1871
89.1869
91.4593
91.459
93.787
93.7868
96.1464
96.1464
98.5075
98.508
100.84
100.841
103.114
103.116
105.307
105.309
107.403
107.405
109.399
109.401
111.305
111.306
113.137
113.138
114.92
114.921
116.683
116.684
118.455
118.456
120.266
120.267
122.142
122.142
124.103
124.103
126.168
126.168
128.349
128.348
130.655
130.654
133.09
133.09
135.658
135.657
138.356
138.355
141.184
141.182
144.134
144.132
147.202
147.199
150.376
150.374
153.646
153.643
156.997
156.993
160.411
160.407
163.869
163.865
167.348
167.344
170.826
170.821
174.277
174.272
177.681
177.676
181.019
181.014
184.277
184.273
187.452
187.449
190.55
190.548
193.589
193.588
196.595
196.596
199.609
199.61
202.675
202.676
205.843
205.844
209.159
209.16
212.661
212.661
216.375
216.374
220.303
220.302
224.432
224.431
228.73
228.729
233.152
233.151
237.645
237.644
242.155
242.155
246.636
246.638
251.051
251.056
255.381
255.387
259.617
259.625
263.772
263.78
267.867
267.875
271.937
271.944
276.022
276.029
280.165
280.171
284.407
284.413
288.788
288.793
293.342
293.347
298.099
298.102
303.081
303.084
308.307
308.31
313.793
313.795
319.547
319.548
325.576
325.577
331.884
331.884
338.472
338.472
345.337
345.336
352.475
352.474
359.88
359.879
367.544
367.543
375.459
375.457
383.616
383.615
392.009
392.007
400.633
400.631
409.486
409.484
418.572
418.569
427.895
427.893
437.467
437.464
447.299
447.297
457.407
457.404
467.804
467.801
478.505
478.502
489.519
489.516
500.857
500.854
512.523
512.519
524.519
524.515
536.842
536.838
549.49
549.486
562.459
562.455
575.747
575.743
589.36
589.356
603.312
603.308
617.627
617.623
632.342
632.337
647.5
647.496
663.148
663.143
679.321
679.317
696.045
696.04
713.32
713.315
731.114
731.109
749.377
749.373
768.046
768.042
787.054
787.05
806.347
806.343
825.893
825.89
845.689
845.686
865.763
865.76
886.166
886.164
906.969
906.967
928.248
928.246
950.077
950.076
972.519
972.518
995.621
995.62
1019.41
1019.41
1043.9
1043.9
1069.09
1069.09
1094.97
1094.97
1121.54
1121.54
1148.78
1148.78
1176.7
1176.7
1205.31
1205.32
1234.64
1234.64
1264.7
1264.7
1295.5
1295.5
1327.05
1327.06
1359.32
1359.33
1392.26
1392.26
1425.76
1425.77
1459.73
1459.74
1494.01
1494.02
1528.48
1528.49
1562.98
1563
1597.41
1597.44
1631.67
1631.7
1665.69
1665.73
1699.46
1699.5
1732.96
1733.01
1766.24
1766.3
1799.36
1799.44
1832.42
1832.5
1865.52
1865.62
1898.81
1898.92
1932.47
1932.59
1966.69
1966.82
2001.67
2001.81
2037.61
2037.75
2074.65
2074.8
2112.91
2113.06
2152.36
2152.52
2192.82
2192.99
2233.93
2234.11
2275.12
2275.31
2315.59
2315.8
2354.32
2354.54
2390.15
2390.39
2421.9
2422.16
2448.57
2448.84
2469.54
2469.82
2484.83
2485.11
2495.16
2495.45
2501.9
2502.18
2506.73
2507.01
2511.32
2511.59
2516.9
2517.17
2524.24
2524.49
2533.38
2533.62
2544.08
2544.32
2556.01
2556.24
2568.86
2569.08
2582.44
2582.67
2596.73
2596.95
2611.77
2611.98
2627.65
2627.87
2644.52
2644.74
2662.54
2662.75
2681.85
2682.07
2702.62
2702.83
2725
2725.21
2749.14
2749.35
2775.18
2775.4
2803.28
2803.5
2833.58
2833.79
2866.21
2866.43
2901.35
2901.56
2939.16
2939.37
2979.83
2980.05
3023.59
3023.81
3070.68
3070.91
3121.38
3121.6
3175.98
3176.21
3234.83
3235.06
3298.32
3298.55
3366.87
3367.11
3440.98
3441.23
3521.22
3521.48
3608.24
3608.5
3702.78
3703.05
3805.75
3806.02
3918.17
3918.45
4041.29
4041.58
4176.58
4176.88
4325.81
4326.13
4491.14
4491.47
4675.22
4675.57
4881.33
4881.7
5113.61
5113.99
5377.31
5377.71
5679.27
5679.69
6028.53
6028.98
6437.33
6437.81
6922.64
6923.15
7508.78
7509.33
8231.84
8232.42
9147.86
9148.49
10348.9
10349.6
11997.4
11998.2
14407.9
14408.7
18270.1
18270.7
25369.3
25369.5
41356.9
41355.9
87465
87462
264058
264055
1.52418e+06
1.52418e+06
)
;

boundaryField
{
    walls
    {
        blending        binomial2;
        n               2;
        beta1           0.075;
        type            omegaWallFunction;
        value           nonuniform List<scalar> 8(1.52417e+06 1.52417e+06 1.52417e+06 1.52417e+06 1.52418e+06 1.52418e+06 1.52418e+06 1.52418e+06);
    }
    inlet
    {
        type            cyclic;
    }
    outlet
    {
        type            cyclic;
    }
    sides
    {
        type            empty;
    }
}


// ************************************************************************* //
