/*--------------------------------*- C++ -*----------------------------------*\
| =========                 |                                                 |
| \\      /  F ield         | OpenFOAM: The Open Source CFD Toolbox           |
|  \\    /   O peration     | Version:  2012                                  |
|   \\  /    A nd           | Website:  www.openfoam.com                      |
|    \\/     M anipulation  |                                                 |
\*---------------------------------------------------------------------------*/
FoamFile
{
    version     2.0;
    format      ascii;
    class       volScalarField;
    location    "12000";
    object      p;
}
// * * * * * * * * * * * * * * * * * * * * * * * * * * * * * * * * * * * * * //

dimensions      [0 2 -2 0 0 0 0];


internalField   nonuniform List<scalar> 
2560
(
3.60524e-09
-1.07784
-3.68841e-05
-1.07787
-4.00608e-05
-1.07788
-3.25163e-05
-1.07788
-2.99619e-05
-1.07788
-2.93772e-05
-1.07788
-2.89636e-05
-1.07788
-2.88848e-05
-1.07788
-2.88227e-05
-1.07788
-2.88722e-05
-1.07788
-2.91931e-05
-1.07788
-2.94067e-05
-1.07788
-3.15715e-05
-1.07788
-4.14606e-05
-1.07724
-8.58308e-05
-1.078
-0.000175765
-1.07634
-0.00035783
-1.07855
-0.000571298
-1.07856
-0.000827646
-1.07942
-0.00106463
-1.07944
-0.00134279
-1.08039
-0.00158238
-1.0804
-0.00186521
-1.08139
-0.00210179
-1.07849
-0.00246308
-1.08266
-0.0028433
-1.079
-0.00345027
-1.0846
-0.00406415
-1.08465
-0.00490299
-1.08711
-0.00563507
-1.08724
-0.00655909
-1.0899
-0.00724498
-1.09002
-0.00812287
-1.09264
-0.00865197
-1.0927
-0.00946528
-1.09522
-0.00990423
-1.08974
-0.010857
-1.09807
-0.0114643
-1.07436
-0.0128533
-1.10238
-0.0138658
-1.0715
-0.0158449
-1.10879
-0.0173069
-1.08532
-0.0198018
-1.11705
-0.0215519
-1.10907
-0.0243501
-1.12627
-0.026185
-1.12517
-0.0291542
-1.13591
-0.0310101
-1.13174
-0.0342219
-1.14607
-0.0362815
-1.06939
-0.0400814
-1.15922
-0.0432698
-1.11612
-0.0494934
-1.17709
-0.0573724
-1.17856
-0.0714219
-1.20767
-0.0913994
-1.214
-0.121452
-1.26684
-0.160695
-1.28187
-0.209934
-1.36517
-0.265331
-1.38889
-0.322658
-1.48857
-0.376225
-1.51368
-0.419453
-1.59667
-0.449572
-1.61227
-0.462197
-1.65093
-0.460751
-1.64924
-0.444106
-1.6091
-0.420071
-1.59783
-0.38824
-1.53797
-0.35675
-1.52438
-0.323641
-1.46523
-0.295113
-1.45309
-0.267678
-0.263328
-0.245586
-0.250266
-0.225015
-0.220841
-0.209121
-0.211657
-0.194468
-0.190381
-0.183683
-0.183982
-0.173841
-0.169784
-0.167144
-0.165629
-0.161097
-0.15704
-0.157528
-0.154627
-0.154262
-0.150194
-0.152828
-0.149016
-0.151423
-0.14735
-0.151422
-0.146999
-0.151417
-0.147324
-0.152723
-0.148635
-0.154289
-0.150205
-0.157364
-0.153288
-0.161151
-0.15708
-0.166745
-0.162683
-0.173437
-0.169383
-0.182055
-0.178011
-0.191831
-0.187795
-0.203272
-0.199249
-0.215519
-0.211505
-0.228798
-0.224797
-0.242242
-0.238252
-0.255956
-0.25198
-0.269191
-0.265225
-0.282084
-0.278133
-0.294089
-0.290148
-0.305445
-0.301519
-0.31582
-0.311906
-0.325527
-0.321627
-0.334376
-0.330487
-0.342691
-0.338816
-0.350344
-0.34648
-0.357627
-0.353778
-0.364439
-0.360602
-0.371038
-0.367215
-0.377358
-0.373548
-0.383641
-0.379846
-0.389865
-0.386084
-0.396284
-0.392519
-0.4029
-0.399151
-0.409936
-0.406204
-0.417406
-0.413692
-0.425501
-0.421806
-0.434243
-0.430567
-0.443818
-0.440163
-0.45429
-0.450656
-0.465896
-0.462285
-0.478798
-0.475209
-0.493323
-0.489758
-0.509742
-0.506201
-0.528446
-0.524929
-0.549742
-0.546248
-0.573962
-0.570493
-0.601278
-0.597833
-0.631789
-0.628369
-0.665344
-0.661947
-0.701632
-0.69826
-0.74007
-0.736721
-0.779927
-0.776602
-0.82027
-0.816967
-0.860121
-0.856841
-0.898462
-0.895205
-0.9344
-0.931165
-0.967168
-0.963956
-0.996251
-0.993061
-1.02134
-1.01818
-1.04241
-1.03926
-1.0596
-1.05647
-1.07325
-1.07014
-1.08379
-1.0807
-1.09172
-1.08865
-1.09752
-1.09448
-1.10167
-1.09864
-1.10456
-1.10156
-1.10654
-1.10355
-1.10786
-1.10489
-1.10873
-1.10578
-1.10929
-1.10636
-1.10966
-1.10674
-1.10988
-1.10698
-1.11002
-1.10713
-1.11009
-1.10722
-1.11013
-1.10728
-1.11013
-1.10729
-1.1101
-1.10728
-1.11006
-1.10725
-1.11
-1.10721
-1.10993
-1.10715
-1.10985
-1.10708
-1.10976
-1.10701
-1.10967
-1.10693
-1.10958
-1.10685
-1.10949
-1.10677
-1.10939
-1.10668
-1.10931
-1.10661
-1.10923
-1.10653
-1.10916
-1.10647
-1.10909
-1.10641
-1.10904
-1.10635
-1.10899
-1.10631
-1.10895
-1.10627
-1.10892
-1.10624
-1.1089
-1.10622
-1.10887
-1.1062
-1.10886
-1.10619
-1.10884
-1.10619
-1.10883
-1.10618
-1.10881
-1.10618
-1.1088
-1.10617
-1.10878
-1.10616
-1.10876
-1.10615
-1.10873
-1.10613
-1.10869
-1.10609
-1.10864
-1.10604
-1.10856
-1.10597
-1.10846
-1.10586
-1.10831
-1.10571
-1.10811
-1.10552
-1.10783
-1.10525
-1.10748
-1.10491
-1.10701
-1.10445
-1.10642
-1.10387
-1.10568
-1.10314
-1.10475
-1.10223
-1.10362
-1.10112
-1.10225
-1.09977
-1.10062
-1.09817
-1.09871
-1.09628
-1.09651
-1.0941
-1.094
-1.09162
-1.09118
-1.08882
-1.08805
-1.08573
-1.08464
-1.08234
-1.08096
-1.07868
-1.07703
-1.07479
-1.07289
-1.07068
-1.06857
-1.06638
-1.06409
-1.06193
-1.05947
-1.05733
-1.05473
-1.05262
-1.04987
-1.04778
-1.0449
-1.04283
-1.0398
-1.03776
-1.03457
-1.03254
-1.02919
-1.02718
-1.02365
-1.02165
-1.01794
-1.01595
-1.01206
-1.01007
-1.00602
-1.00403
-0.999825
-0.997837
-0.993499
-0.991514
-0.987074
-0.985094
-0.980577
-0.978603
-0.974046
-0.972079
-0.967505
-0.965547
-0.960989
-0.959038
-0.954514
-0.95257
-0.948095
-0.946159
-0.941738
-0.939806
-0.935446
-0.933518
-0.929212
-0.927285
-0.923031
-0.921104
-0.916888
-0.914964
-0.910778
-0.908858
-0.904685
-0.902771
-0.898609
-0.896702
-0.892538
-0.890639
-0.886475
-0.884584
-0.880407
-0.878525
-0.874339
-0.872467
-0.86826
-0.866397
-0.862172
-0.860319
-0.856063
-0.854218
-0.84993
-0.848094
-0.843757
-0.84193
-0.837544
-0.835725
-0.83127
-0.82946
-0.824938
-0.823137
-0.818526
-0.816735
-0.812042
-0.81026
-0.805467
-0.803697
-0.798812
-0.797053
-0.792058
-0.790311
-0.785223
-0.783489
-0.778285
-0.776566
-0.771266
-0.769563
-0.764148
-0.762461
-0.756948
-0.755278
-0.749653
-0.748002
-0.742287
-0.740654
-0.734832
-0.733219
-0.727318
-0.725724
-0.719731
-0.718159
-0.712106
-0.710554
-0.704428
-0.702897
-0.696734
-0.695223
-0.689008
-0.687519
-0.681288
-0.679818
-0.673551
-0.672102
-0.665831
-0.664402
-0.658101
-0.656693
-0.650387
-0.648998
-0.642655
-0.641286
-0.634932
-0.633582
-0.627178
-0.625848
-0.619423
-0.618111
-0.61163
-0.610338
-0.603839
-0.602564
-0.596019
-0.594764
-0.588223
-0.586983
-0.580428
-0.579207
-0.572698
-0.571491
-0.565016
-0.563828
-0.557453
-0.556279
-0.54999
-0.548834
-0.542698
-0.541555
-0.535549
-0.534425
-0.52861
-0.527498
-0.521843
-0.520752
-0.515306
-0.514228
-0.508949
-0.507893
-0.502824
-0.501781
-0.496872
-0.495853
-0.491137
-0.490132
-0.485554
-0.484577
-0.480166
-0.479204
-0.474902
-0.47397
-0.469806
-0.468889
-0.464802
-0.463919
-0.459942
-0.459074
-0.455156
-0.454326
-0.45051
-0.449693
-0.445946
-0.445172
-0.441554
-0.440792
-0.437298
-0.436584
-0.433297
-0.432593
-0.429537
-0.428889
-0.426164
-0.425525
-0.423184
-0.422591
-0.420734
-0.42015
-0.418832
-0.418283
-0.417578
-0.417036
-0.416986
-0.416461
-1.08153
-0.000469829
-1.08156
-0.000506705
-1.08157
-0.000509867
-1.08157
-0.000502291
-1.08157
-0.000499724
-1.08158
-0.000499056
-1.08158
-0.000498389
-1.08158
-0.000497841
-1.08158
-0.000497368
-1.08158
-0.000497012
-1.08158
-0.000496701
-1.08158
-0.000496798
-1.08158
-0.000500129
-1.08093
-0.000513012
-1.08169
-0.000559692
-1.08003
-0.000649422
-1.08224
-0.000830708
-1.08225
-0.00104359
-1.08312
-0.00129922
-1.08314
-0.00153582
-1.08408
-0.00181361
-1.08409
-0.00205293
-1.08509
-0.00233548
-1.08219
-0.00257182
-1.08636
-0.00293291
-1.0827
-0.00331295
-1.08829
-0.00391978
-1.08835
-0.00453356
-1.09081
-0.00537233
-1.09093
-0.00610439
-1.09359
-0.00702841
-1.09371
-0.00771432
-1.09634
-0.00859223
-1.09639
-0.00912138
-1.09891
-0.00993473
-1.09344
-0.0103737
-1.10176
-0.0113266
-1.07805
-0.0119339
-1.10607
-0.0133229
-1.07519
-0.0143355
-1.11249
-0.0163147
-1.08901
-0.0177767
-1.12074
-0.0202717
-1.11276
-0.0220218
-1.12997
-0.0248201
-1.12887
-0.026655
-1.13961
-0.0296242
-1.13543
-0.0314802
-1.14976
-0.0346921
-1.07308
-0.0367517
-1.16291
-0.0405516
-1.11981
-0.04374
-1.18078
-0.0499637
-1.18225
-0.0578427
-1.21136
-0.0718922
-1.2177
-0.0918697
-1.27053
-0.121922
-1.28556
-0.161165
-1.36886
-0.210404
-1.39258
-0.265801
-1.49226
-0.323128
-1.51738
-0.376695
-1.60036
-0.419923
-1.61596
-0.450042
-1.65462
-0.462667
-1.65294
-0.461221
-1.61279
-0.444576
-1.60153
-0.420541
-1.54166
-0.38871
-1.52807
-0.35722
-1.46892
-0.324111
-1.45678
-0.295584
-0.26702
-0.268149
-0.253958
-0.246056
-0.224533
-0.225485
-0.215349
-0.209592
-0.194073
-0.194938
-0.187674
-0.184154
-0.173476
-0.174312
-0.169321
-0.167615
-0.160732
-0.161568
-0.158319
-0.157999
-0.153886
-0.154732
-0.152708
-0.153299
-0.151042
-0.151894
-0.150691
-0.151893
-0.151016
-0.151887
-0.152327
-0.153194
-0.153897
-0.154759
-0.15698
-0.157835
-0.160772
-0.161622
-0.166375
-0.167215
-0.173075
-0.173908
-0.181703
-0.182525
-0.191488
-0.192302
-0.202941
-0.203743
-0.215197
-0.21599
-0.22849
-0.229269
-0.241944
-0.242713
-0.255672
-0.256427
-0.268917
-0.269662
-0.281825
-0.282555
-0.293841
-0.29456
-0.305211
-0.305916
-0.315598
-0.316291
-0.325319
-0.325998
-0.33418
-0.334847
-0.342508
-0.343161
-0.350173
-0.350814
-0.35747
-0.358098
-0.364295
-0.36491
-0.370907
-0.371508
-0.377241
-0.377829
-0.383539
-0.384112
-0.389777
-0.390336
-0.396212
-0.396754
-0.402844
-0.403371
-0.409897
-0.410406
-0.417384
-0.417876
-0.425499
-0.425971
-0.43426
-0.434714
-0.443856
-0.444288
-0.454349
-0.45476
-0.465978
-0.466367
-0.478902
-0.479268
-0.49345
-0.493793
-0.509894
-0.510213
-0.528621
-0.528916
-0.549942
-0.550212
-0.574186
-0.574432
-0.601528
-0.601748
-0.632061
-0.632259
-0.665642
-0.665814
-0.701951
-0.702102
-0.740416
-0.74054
-0.780293
-0.780397
-0.820663
-0.82074
-0.860532
-0.86059
-0.898901
-0.898932
-0.934856
-0.934868
-0.967653
-0.967638
-0.996751
-0.99672
-1.02187
-1.02181
-1.04295
-1.04288
-1.06017
-1.06007
-1.07383
-1.07372
-1.0844
-1.08426
-1.09234
-1.09218
-1.09818
-1.09799
-1.10233
-1.10214
-1.10526
-1.10503
-1.10724
-1.10701
-1.1086
-1.10833
-1.10946
-1.1092
-1.11007
-1.10976
-1.11042
-1.11012
-1.11069
-1.11035
-1.11081
-1.11048
-1.11094
-1.11056
-1.11098
-1.11059
-1.11101
-1.1106
-1.111
-1.11057
-1.11095
-1.11052
-1.11093
-1.11047
-1.11084
-1.11039
-1.1108
-1.11032
-1.1107
-1.11023
-1.11065
-1.11014
-1.11054
-1.11004
-1.11048
-1.10995
-1.11038
-1.10986
-1.11032
-1.10978
-1.11023
-1.10969
-1.11018
-1.10962
-1.1101
-1.10956
-1.11006
-1.10951
-1.11001
-1.10946
-1.10998
-1.10942
-1.10994
-1.10939
-1.10993
-1.10936
-1.1099
-1.10934
-1.1099
-1.10932
-1.10989
-1.1093
-1.10989
-1.10929
-1.10988
-1.10928
-1.10987
-1.10926
-1.10986
-1.10925
-1.10985
-1.10923
-1.10982
-1.1092
-1.10979
-1.10916
-1.10973
-1.1091
-1.10967
-1.10903
-1.10955
-1.10892
-1.10942
-1.10877
-1.10921
-1.10857
-1.10895
-1.1083
-1.1086
-1.10794
-1.10815
-1.10748
-1.10757
-1.10689
-1.10684
-1.10614
-1.10593
-1.10521
-1.10482
-1.10408
-1.10347
-1.10271
-1.10187
-1.10108
-1.09999
-1.09918
-1.09781
-1.09697
-1.09532
-1.09446
-1.09253
-1.09163
-1.08943
-1.08851
-1.08604
-1.08509
-1.08239
-1.08142
-1.07849
-1.07748
-1.07439
-1.07335
-1.07009
-1.06902
-1.06564
-1.06454
-1.06104
-1.05991
-1.05634
-1.05518
-1.05149
-1.05031
-1.04656
-1.04535
-1.04147
-1.04024
-1.03627
-1.03502
-1.03089
-1.02963
-1.02538
-1.0241
-1.01966
-1.01838
-1.0138
-1.01251
-1.00774
-1.00645
-1.00157
-1.00028
-0.995225
-0.993928
-0.988828
-0.987526
-0.982312
-0.981003
-0.975816
-0.974498
-0.969255
-0.967929
-0.962778
-0.961442
-0.956278
-0.954933
-0.949902
-0.948549
-0.943513
-0.942154
-0.937265
-0.935902
-0.93099
-0.929625
-0.924854
-0.923489
-0.918665
-0.917297
-0.912611
-0.911238
-0.90647
-0.90509
-0.90046
-0.899072
-0.894337
-0.892938
-0.888349
-0.886939
-0.882221
-0.8808
-0.876238
-0.874805
-0.870091
-0.868646
-0.864098
-0.862641
-0.85791
-0.856441
-0.851882
-0.850401
-0.845618
-0.844126
-0.839522
-0.838018
-0.833146
-0.831629
-0.826945
-0.825415
-0.820417
-0.818874
-0.81408
-0.812523
-0.807375
-0.805803
-0.800886
-0.799296
-0.793987
-0.792379
-0.787338
-0.785709
-0.780239
-0.778589
-0.77343
-0.771755
-0.766132
-0.764432
-0.759168
-0.757438
-0.751672
-0.749915
-0.744568
-0.742777
-0.736889
-0.735068
-0.729666
-0.727807
-0.721829
-0.719938
-0.714526
-0.712594
-0.706568
-0.704604
-0.699229
-0.697221
-0.69119
-0.689149
-0.68386
-0.681774
-0.675773
-0.673655
-0.668484
-0.666317
-0.660363
-0.658166
-0.653121
-0.650872
-0.644956
-0.642677
-0.63775
-0.635417
-0.629515
-0.627155
-0.622328
-0.619909
-0.614003
-0.61156
-0.606832
-0.604326
-0.598425
-0.595899
-0.591305
-0.588712
-0.582863
-0.580255
-0.57587
-0.57319
-0.567476
-0.564788
-0.560717
-0.55795
-0.552473
-0.549704
-0.546057
-0.543201
-0.538054
-0.535201
-0.532069
-0.529117
-0.524371
-0.521429
-0.518875
-0.515817
-0.511503
-0.508463
-0.506512
-0.503335
-0.499456
-0.496305
-0.494958
-0.491642
-0.488176
-0.4849
-0.484137
-0.480659
-0.477569
-0.47415
-0.473942
-0.470279
-0.46752
-0.463944
-0.464263
-0.460388
-0.457932
-0.454182
-0.455033
-0.450918
-0.448786
-0.444847
-0.446301
-0.441913
-0.440208
-0.436066
-0.438294
-0.433591
-0.406602
-0.42816
-0.404919
-0.426233
-0.400133
-0.421836
-0.39888
-0.42055
-0.395585
-0.417593
-0.394913
-0.417077
-0.393382
-0.416009
-0.416987
-0.41646
-0.41758
-0.417033
-0.418836
-0.418279
-0.420738
-0.420145
-0.42319
-0.422585
-0.426168
-0.425516
-0.429546
-0.428883
-0.433303
-0.432583
-0.437306
-0.436574
-0.441563
-0.440782
-0.445957
-0.445162
-0.45052
-0.449682
-0.455168
-0.454315
-0.459955
-0.459063
-0.464816
-0.463908
-0.469818
-0.468874
-0.474915
-0.473955
-0.480179
-0.479188
-0.485567
-0.48456
-0.491152
-0.490117
-0.496887
-0.495836
-0.50284
-0.501764
-0.508965
-0.507874
-0.51532
-0.514207
-0.521858
-0.520731
-0.528628
-0.52748
-0.535564
-0.534402
-0.542717
-0.541536
-0.550008
-0.548813
-0.557468
-0.556254
-0.565036
-0.563807
-0.572717
-0.571469
-0.580452
-0.579188
-0.588242
-0.586959
-0.596045
-0.594745
-0.603858
-0.602538
-0.61165
-0.610311
-0.619445
-0.618085
-0.627197
-0.625818
-0.634957
-0.633557
-0.642677
-0.641258
-0.650412
-0.64897
-0.658125
-0.656664
-0.665858
-0.664375
-0.673574
-0.67207
-0.681316
-0.67979
-0.689033
-0.687485
-0.69676
-0.69519
-0.704454
-0.702862
-0.712134
-0.710521
-0.719757
-0.718122
-0.727351
-0.725693
-0.734863
-0.733185
-0.742313
-0.740614
-0.749685
-0.747966
-0.756979
-0.75524
-0.764183
-0.762426
-0.771298
-0.769524
-0.778317
-0.776527
-0.785251
-0.783446
-0.792098
-0.790279
-0.798846
-0.797013
-0.805505
-0.803661
-0.812078
-0.810221
-0.818565
-0.816698
-0.82497
-0.823093
-0.8313
-0.829414
-0.837582
-0.835687
-0.843793
-0.841889
-0.849971
-0.848058
-0.856096
-0.854173
-0.862204
-0.860271
-0.868296
-0.866354
-0.87437
-0.872419
-0.880439
-0.878478
-0.886509
-0.884538
-0.892577
-0.890598
-0.898651
-0.896663
-0.90473
-0.902734
-0.91082
-0.908819
-0.916926
-0.914921
-0.923071
-0.921063
-0.929248
-0.927239
-0.935482
-0.933472
-0.94178
-0.939766
-0.94813
-0.946111
-0.954545
-0.952519
-0.961032
-0.958998
-0.967545
-0.965503
-0.974076
-0.972026
-0.980616
-0.978557
-0.987112
-0.985047
-0.993534
-0.991464
-0.999861
-0.997788
-1.00607
-1.00399
-1.01211
-1.01004
-1.01798
-1.0159
-1.0237
-1.02161
-1.02924
-1.02713
-1.03461
-1.03249
-1.03984
-1.03771
-1.04495
-1.04279
-1.04992
-1.04774
-1.05478
-1.05257
-1.05952
-1.05729
-1.06414
-1.06188
-1.06861
-1.06633
-1.07295
-1.07063
-1.07708
-1.07473
-1.081
-1.07863
-1.08469
-1.08228
-1.0881
-1.08567
-1.09122
-1.08876
-1.09405
-1.09156
-1.09656
-1.09405
-1.09876
-1.09622
-1.10067
-1.09811
-1.1023
-1.09971
-1.10367
-1.10106
-1.1048
-1.10217
-1.10573
-1.10308
-1.10648
-1.10381
-1.10707
-1.10439
-1.10753
-1.10484
-1.10789
-1.10519
-1.10816
-1.10545
-1.10836
-1.10565
-1.10851
-1.1058
-1.10862
-1.1059
-1.10869
-1.10598
-1.10875
-1.10603
-1.10879
-1.10606
-1.10881
-1.10608
-1.10884
-1.1061
-1.10885
-1.10611
-1.10887
-1.10611
-1.10888
-1.10611
-1.10889
-1.10612
-1.10891
-1.10613
-1.10893
-1.10614
-1.10895
-1.10615
-1.10898
-1.10618
-1.10901
-1.1062
-1.10905
-1.10624
-1.10909
-1.10629
-1.10915
-1.10634
-1.10921
-1.1064
-1.10928
-1.10647
-1.10936
-1.10654
-1.10945
-1.10662
-1.10954
-1.1067
-1.10964
-1.10679
-1.10972
-1.10686
-1.10982
-1.10695
-1.1099
-1.10701
-1.10999
-1.10709
-1.11005
-1.10714
-1.11012
-1.10719
-1.11016
-1.10721
-1.11019
-1.10723
-1.11018
-1.1072
-1.11016
-1.10716
-1.11007
-1.10706
-1.10995
-1.10692
-1.10971
-1.10666
-1.10936
-1.1063
-1.10879
-1.10571
-1.10793
-1.10483
-1.1066
-1.10348
-1.10464
-1.1015
-1.10172
-1.09855
-1.0976
-1.09442
-1.09176
-1.08856
-1.08386
-1.08063
-1.07332
-1.07007
-1.05964
-1.05637
-1.0424
-1.03911
-1.0214
-1.01809
-0.996427
-0.993089
-0.967124
-0.963762
-0.934447
-0.931062
-0.898509
-0.895101
-0.86027
-0.856837
-0.820403
-0.816946
-0.780176
-0.776694
-0.740309
-0.736803
-0.70163
-0.698098
-0.665385
-0.661828
-0.632018
-0.628436
-0.601287
-0.59768
-0.573922
-0.570288
-0.549866
-0.546207
-0.528596
-0.524911
-0.50988
-0.50617
-0.493373
-0.489637
-0.47892
-0.47516
-0.466015
-0.46223
-0.454401
-0.450594
-0.443871
-0.440041
-0.434362
-0.430511
-0.425632
-0.421759
-0.417459
-0.413568
-0.410067
-0.406155
-0.403027
-0.399098
-0.396372
-0.392425
-0.389931
-0.385969
-0.38374
-0.379761
-0.37742
-0.373428
-0.371126
-0.367116
-0.364568
-0.360547
-0.357684
-0.353646
-0.35044
-0.346392
-0.34282
-0.338754
-0.334431
-0.330356
-0.325629
-0.321534
-0.315992
-0.31189
-0.305537
-0.301414
-0.294102
-0.289973
-0.282222
-0.278071
-0.269282
-0.265126
-0.256023
-0.251844
-0.242305
-0.238123
-0.228901
-0.224695
-0.21568
-0.211474
-0.203328
-0.199096
-0.192005
-0.187776
-0.1822
-0.177943
-0.173573
-0.169325
-0.166912
-0.162633
-0.16125
-0.156985
-0.157455
-0.153158
-0.154375
-0.150099
-0.152833
-0.148522
-0.151527
-0.147243
-0.15154
-0.14692
-0.151523
-0.147269
-0.152938
-0.148938
-0.154366
-0.150119
-0.157657
-0.154528
-0.161183
-0.156945
-0.167299
-0.165614
-0.173994
-0.169759
-0.183799
-0.183973
-0.194655
-0.190396
-0.209332
-0.210946
-0.225032
-0.220686
-0.245704
-1.41809
-0.267668
-1.4269
-0.295311
-1.47727
-0.323825
-1.48882
-0.356528
-1.54836
-0.388093
-1.56181
-0.420433
-1.62263
-0.443957
-1.63383
-0.460944
-1.67412
-0.462386
-1.67583
-0.449521
-1.63729
-0.419959
-1.62163
-0.375723
-1.53799
-0.323148
-1.51326
-0.266111
-1.41309
-0.210191
-1.38936
-0.161171
-1.30569
-0.121608
-1.29067
-0.0916998
-1.23758
-0.071608
-1.23129
-0.0576094
-1.20197
-0.049714
-1.20051
-0.0433358
-1.12302
-0.0402077
-1.18227
-0.0364267
-1.10034
-0.0344184
-1.16935
-0.0311467
-1.15175
-0.0292654
-1.15906
-0.0263463
-1.1495
-0.0244966
-1.14949
-0.0216866
-1.13194
-0.0199345
-1.14026
-0.0174517
-1.11046
-0.0159998
-1.13205
-0.0139863
-1.09273
-0.0129955
-1.12558
-0.011597
-1.09864
-0.0110109
-1.1213
-0.0100318
-1.11225
-0.00961604
-1.11843
-0.0087892
-1.11592
-0.00826348
-1.11586
-0.00738052
-1.11325
-0.0067108
-1.11314
-0.00579488
-1.1105
-0.00505545
-1.11037
-0.00420173
-1.10791
-0.0035941
-1.10785
-0.00298662
-1.10245
-0.00259919
-1.10591
-0.00224529
-1.10177
-0.00200879
-1.10465
-0.00172389
-1.10365
-0.00149001
-1.10364
-0.00121563
-1.1027
-0.00097718
-1.10268
-0.000717578
-1.10181
-0.00050866
-1.1018
-0.000327337
-1.09959
-0.0002356
-1.10124
-0.00018845
-1.10046
-0.000176816
-1.10113
-0.000174377
-1.10113
-0.000174252
-1.10113
-0.0001749
-1.10113
-0.000174781
-1.10113
-0.00017526
-1.10113
-0.000175437
-1.10113
-0.000176169
-1.10113
-0.000176848
-1.10112
-0.000179695
-1.10112
-0.000187482
-1.10112
-0.000184215
-1.10111
-0.000146958
-1.10109
-0.393382
-0.41601
-0.394911
-0.417078
-0.395583
-0.417595
-0.398878
-0.420552
-0.400131
-0.42184
-0.404917
-0.426234
-0.4066
-0.428165
-0.438256
-0.433592
-0.440169
-0.436068
-0.446264
-0.441916
-0.448749
-0.444852
-0.454995
-0.450922
-0.457894
-0.454187
-0.464225
-0.460394
-0.467482
-0.46395
-0.473902
-0.470284
-0.477528
-0.474155
-0.484096
-0.480665
-0.488134
-0.484904
-0.494918
-0.491649
-0.499414
-0.496312
-0.50647
-0.503342
-0.51146
-0.50847
-0.51883
-0.515822
-0.524325
-0.521435
-0.532028
-0.529127
-0.538008
-0.535207
-0.546014
-0.54321
-0.552429
-0.549713
-0.560669
-0.557955
-0.567432
-0.564798
-0.575825
-0.5732
-0.582821
-0.580269
-0.591258
-0.588721
-0.598383
-0.595914
-0.606783
-0.604334
-0.613954
-0.611569
-0.622279
-0.619919
-0.629464
-0.627163
-0.637703
-0.63543
-0.644905
-0.642688
-0.653072
-0.650885
-0.660312
-0.658178
-0.668434
-0.666332
-0.675719
-0.673666
-0.68381
-0.68179
-0.691135
-0.689161
-0.699175
-0.697235
-0.706512
-0.704616
-0.714472
-0.71261
-0.721771
-0.71995
-0.729614
-0.727827
-0.736834
-0.735085
-0.744507
-0.742789
-0.751616
-0.749933
-0.75911
-0.757455
-0.766077
-0.764453
-0.773372
-0.771773
-0.78018
-0.778607
-0.787276
-0.785724
-0.793935
-0.792405
-0.800827
-0.799316
-0.80732
-0.805827
-0.814022
-0.812544
-0.820361
-0.818899
-0.826882
-0.825434
-0.833081
-0.831646
-0.839465
-0.838043
-0.845559
-0.844148
-0.851827
-0.850429
-0.857846
-0.85646
-0.864032
-0.862658
-0.870029
-0.868668
-0.876172
-0.874823
-0.882156
-0.880819
-0.888284
-0.88696
-0.894277
-0.892964
-0.900403
-0.8991
-0.906416
-0.905122
-0.912554
-0.911267
-0.918604
-0.917322
-0.924794
-0.923515
-0.930925
-0.929647
-0.9372
-0.935923
-0.943454
-0.942182
-0.949835
-0.94857
-0.956208
-0.954951
-0.962719
-0.961471
-0.969193
-0.967954
-0.975743
-0.974514
-0.982248
-0.981027
-0.988761
-0.987549
-0.995155
-0.993947
-1.0015
-1.0003
-1.00769
-1.00648
-1.01375
-1.01255
-1.01959
-1.0184
-1.02532
-1.02413
-1.03083
-1.02966
-1.0362
-1.03505
-1.0414
-1.04026
-1.04649
-1.04538
-1.05143
-1.05034
-1.05627
-1.05521
-1.06098
-1.05995
-1.06558
-1.06458
-1.07002
-1.06904
-1.07433
-1.07339
-1.07842
-1.07751
-1.08232
-1.08144
-1.08597
-1.08512
-1.08936
-1.08855
-1.09245
-1.09166
-1.09525
-1.0945
-1.09773
-1.097
-1.09991
-1.09921
-1.10179
-1.10111
-1.1034
-1.10275
-1.10475
-1.10411
-1.10586
-1.10525
-1.10677
-1.10618
-1.10749
-1.10693
-1.10808
-1.10751
-1.10852
-1.10798
-1.10888
-1.10834
-1.10913
-1.10861
-1.10934
-1.10881
-1.10947
-1.10896
-1.10959
-1.10907
-1.10965
-1.10914
-1.10972
-1.1092
-1.10974
-1.10924
-1.10978
-1.10926
-1.10979
-1.10929
-1.1098
-1.1093
-1.1098
-1.10932
-1.10981
-1.10933
-1.10981
-1.10935
-1.10983
-1.10936
-1.10983
-1.10938
-1.10985
-1.1094
-1.10986
-1.10943
-1.1099
-1.10946
-1.10993
-1.1095
-1.10999
-1.10954
-1.11002
-1.1096
-1.1101
-1.10966
-1.11015
-1.10974
-1.11024
-1.10981
-1.1103
-1.1099
-1.1104
-1.10999
-1.11046
-1.11009
-1.11057
-1.11018
-1.11061
-1.11027
-1.11072
-1.11036
-1.11076
-1.11044
-1.11085
-1.11051
-1.11087
-1.11057
-1.11092
-1.11061
-1.11093
-1.11065
-1.11089
-1.11064
-1.11086
-1.11061
-1.11071
-1.11052
-1.11061
-1.1104
-1.1103
-1.11016
-1.10998
-1.10982
-1.10935
-1.10924
-1.10851
-1.10839
-1.10712
-1.10705
-1.10518
-1.1051
-1.1022
-1.10217
-1.09809
-1.09806
-1.09221
-1.09222
-1.0843
-1.08431
-1.07372
-1.07377
-1.06004
-1.0601
-1.04276
-1.04285
-1.02175
-1.02186
-0.996742
-0.996877
-0.967426
-0.967576
-0.934716
-0.934898
-0.898764
-0.898962
-0.860493
-0.860721
-0.820608
-0.820855
-0.780351
-0.780627
-0.740466
-0.740761
-0.701757
-0.70208
-0.665492
-0.665836
-0.632096
-0.632468
-0.601344
-0.601738
-0.57395
-0.574372
-0.549873
-0.550317
-0.528575
-0.529045
-0.509838
-0.510331
-0.493303
-0.493822
-0.478829
-0.47937
-0.465898
-0.466464
-0.454265
-0.454851
-0.443711
-0.44432
-0.434184
-0.434811
-0.425432
-0.42608
-0.417243
-0.417908
-0.40983
-0.410514
-0.402776
-0.403475
-0.396102
-0.396819
-0.389649
-0.390379
-0.383441
-0.384187
-0.37711
-0.377867
-0.370798
-0.371571
-0.364231
-0.365015
-0.35733
-0.358129
-0.350077
-0.350887
-0.342439
-0.343265
-0.334042
-0.334877
-0.325221
-0.326073
-0.315577
-0.316438
-0.305101
-0.30598
-0.29366
-0.294548
-0.281758
-0.282664
-0.268813
-0.269727
-0.25553
-0.256464
-0.241809
-0.242749
-0.22838
-0.229342
-0.215158
-0.216124
-0.202779
-0.203768
-0.191457
-0.192448
-0.181622
-0.182639
-0.173
-0.174016
-0.166305
-0.16735
-0.160653
-0.161692
-0.156823
-0.157892
-0.153764
-0.154817
-0.152195
-0.153269
-0.150929
-0.151968
-0.150629
-0.151976
-0.150979
-0.151975
-0.152638
-0.153373
-0.15377
-0.154817
-0.15811
-0.158091
-0.160484
-0.161634
-0.169124
-0.167731
-0.173329
-0.174445
-0.187636
-0.18423
-0.194143
-0.195106
-0.215347
-0.20976
-0.22447
-0.225484
-0.253726
-0.24613
-0.266766
-0.268083
-1.4863
-0.295754
-1.49846
-0.324242
-1.55743
-0.356967
-1.5709
-0.388511
-1.63174
-0.42087
-1.64294
-0.444376
-1.68323
-0.461379
-1.68494
-0.462806
-1.6464
-0.449954
-1.63075
-0.420379
-1.54711
-0.376153
-1.52239
-0.323568
-1.42222
-0.26654
-1.39849
-0.210612
-1.31481
-0.161598
-1.29978
-0.122029
-1.24668
-0.0921257
-1.24039
-0.0720288
-1.21107
-0.0580342
-1.20962
-0.0501346
-1.13214
-0.0437595
-1.19139
-0.040628
-1.10946
-0.0368494
-1.17847
-0.0348384
-1.16088
-0.0315685
-1.16818
-0.029685
-1.15863
-0.0267672
-1.15862
-0.0249158
-1.14107
-0.0221067
-1.14939
-0.0203533
-1.11959
-0.0178711
-1.14117
-0.0164181
-1.10186
-0.014405
-1.13471
-0.0134133
-1.10777
-0.012015
-1.13043
-0.0114281
-1.12139
-0.0104492
-1.12757
-0.0100328
-1.12505
-0.00920601
-1.12499
-0.00867975
-1.12238
-0.00779674
-1.12226
-0.00712656
-1.11963
-0.00621053
-1.11949
-0.0054707
-1.11704
-0.00461684
-1.11698
-0.00400888
-1.11158
-0.00340123
-1.11505
-0.00301355
-1.1109
-0.00265948
-1.11378
-0.00242279
-1.11279
-0.00213774
-1.11277
-0.00190371
-1.11183
-0.00162919
-1.11181
-0.00139061
-1.11094
-0.0011308
-1.11093
-0.00092176
-1.10872
-0.00074025
-1.11037
-0.000648538
-1.10959
-0.000601085
-1.11026
-0.000589367
-1.11026
-0.000586911
-1.11026
-0.000586702
-1.11026
-0.000587324
-1.11026
-0.000587124
-1.11025
-0.000587634
-1.11025
-0.000587753
-1.11025
-0.000588469
-1.11025
-0.000589122
-1.11025
-0.00059197
-1.11025
-0.000599771
-1.11024
-0.000596508
-1.11021
-0.000559235
)
;

boundaryField
{
    walls
    {
        type            zeroGradient;
    }
    inlet
    {
        type            cyclic;
    }
    outlet
    {
        type            cyclic;
    }
    sides
    {
        type            empty;
    }
}


// ************************************************************************* //
