/*--------------------------------*- C++ -*----------------------------------*\
| =========                 |                                                 |
| \\      /  F ield         | OpenFOAM: The Open Source CFD Toolbox           |
|  \\    /   O peration     | Version:  2012                                  |
|   \\  /    A nd           | Website:  www.openfoam.com                      |
|    \\/     M anipulation  |                                                 |
\*---------------------------------------------------------------------------*/
FoamFile
{
    version     2.0;
    format      ascii;
    class       surfaceScalarField;
    location    "12000";
    object      phi;
}
// * * * * * * * * * * * * * * * * * * * * * * * * * * * * * * * * * * * * * //

dimensions      [0 3 -1 0 0 0 0];
oriented        oriented;


internalField   nonuniform List<scalar> 
5116
(
2.22712e-07
-2.29528e-08
7.66877e-09
2.29313e-08
-7.63925e-09
6.66961e-07
-5.62161e-08
1.11064e-08
5.61419e-08
-1.10637e-08
1.12232e-06
-7.98186e-08
7.89133e-09
7.97365e-08
-7.86099e-09
1.59543e-06
-9.22426e-08
4.14327e-09
9.21256e-08
-4.12734e-09
2.0892e-06
-9.88668e-08
2.21988e-09
9.87627e-08
-2.21134e-09
2.60349e-06
-1.02977e-07
1.37136e-09
1.02864e-07
-1.36609e-09
3.13797e-06
-1.05828e-07
9.57423e-10
1.05726e-07
-9.53742e-10
3.69245e-06
-1.07989e-07
7.27255e-10
1.07902e-07
-7.24459e-10
4.26688e-06
-1.09737e-07
5.85177e-10
1.09651e-07
-5.82929e-10
4.86178e-06
-1.11163e-07
4.90472e-10
1.11119e-07
-4.88587e-10
5.47831e-06
-1.12435e-07
4.23656e-10
1.12386e-07
-4.22027e-10
6.11728e-06
-1.13543e-07
3.74454e-10
1.13508e-07
-3.73014e-10
6.77957e-06
-1.14561e-07
3.37006e-10
1.14515e-07
-3.35707e-10
7.4664e-06
-1.15506e-07
3.0757e-10
1.15436e-07
-3.06383e-10
8.17838e-06
-1.16366e-07
2.84451e-10
1.16287e-07
-2.83353e-10
8.91538e-06
-1.17172e-07
2.65113e-10
1.1708e-07
-2.64089e-10
9.67684e-06
-1.17923e-07
2.50072e-10
1.17827e-07
-2.49109e-10
1.04621e-05
-1.18637e-07
2.37125e-10
1.18537e-07
-2.36212e-10
1.12718e-05
-1.19315e-07
2.26449e-10
1.19214e-07
-2.25578e-10
1.21087e-05
-1.19969e-07
2.17295e-10
1.19866e-07
-2.16458e-10
1.29766e-05
-1.20596e-07
2.0971e-10
1.20493e-07
-2.08903e-10
1.38782e-05
-1.21207e-07
2.03112e-10
1.21104e-07
-2.02331e-10
1.48148e-05
-1.21797e-07
1.97667e-10
1.21695e-07
-1.96907e-10
1.57872e-05
-1.22375e-07
1.92367e-10
1.22272e-07
-1.91626e-10
1.67964e-05
-1.2294e-07
1.89021e-10
1.22838e-07
-1.88296e-10
1.78433e-05
-1.23494e-07
1.84934e-10
1.23392e-07
-1.84221e-10
1.89291e-05
-1.24041e-07
1.82941e-10
1.23939e-07
-1.82239e-10
2.00546e-05
-1.24581e-07
1.80491e-10
1.24479e-07
-1.79798e-10
2.12203e-05
-1.25115e-07
1.78838e-10
1.25015e-07
-1.78154e-10
2.24268e-05
-1.25646e-07
1.77212e-10
1.25546e-07
-1.76533e-10
2.36755e-05
-1.26173e-07
1.76325e-10
1.26074e-07
-1.75651e-10
2.49699e-05
-1.26698e-07
1.75392e-10
1.26601e-07
-1.74721e-10
2.63161e-05
-1.27222e-07
1.75136e-10
1.27126e-07
-1.74467e-10
2.77227e-05
-1.27745e-07
1.74804e-10
1.27653e-07
-1.74136e-10
2.91997e-05
-1.28269e-07
1.75087e-10
1.28177e-07
-1.74419e-10
3.07566e-05
-1.2879e-07
1.74394e-10
1.28705e-07
-1.73725e-10
3.24011e-05
-1.29317e-07
1.76079e-10
1.29232e-07
-1.75408e-10
3.41385e-05
-1.29834e-07
1.72864e-10
1.29753e-07
-1.7219e-10
3.59716e-05
-1.30368e-07
1.78128e-10
1.30284e-07
-1.7745e-10
3.79018e-05
-1.30888e-07
1.74058e-10
1.30806e-07
-1.73376e-10
3.99304e-05
-1.31431e-07
1.81223e-10
1.31347e-07
-1.80536e-10
4.20616e-05
-1.31966e-07
1.78643e-10
1.3188e-07
-1.7795e-10
4.43053e-05
-1.3252e-07
1.85301e-10
1.32433e-07
-1.84601e-10
4.66801e-05
-1.33076e-07
1.8563e-10
1.32989e-07
-1.84923e-10
4.9213e-05
-1.33646e-07
1.90273e-10
1.33559e-07
-1.89557e-10
5.19376e-05
-1.34221e-07
1.92154e-10
1.34139e-07
-1.9143e-10
5.4889e-05
-1.34808e-07
1.96116e-10
1.34728e-07
-1.95382e-10
5.80992e-05
-1.354e-07
1.97851e-10
1.35336e-07
-1.97106e-10
6.15937e-05
-1.36007e-07
2.02887e-10
1.35945e-07
-2.0213e-10
6.53911e-05
-1.36581e-07
1.91601e-10
1.36528e-07
-1.90832e-10
6.95035e-05
-1.37213e-07
2.11014e-10
1.37156e-07
-2.10233e-10
7.39344e-05
-1.37829e-07
2.05914e-10
1.3777e-07
-2.05118e-10
7.867e-05
-1.38489e-07
2.20417e-10
1.38424e-07
-2.19607e-10
8.36624e-05
-1.39158e-07
2.2343e-10
1.3909e-07
-2.22604e-10
8.88061e-05
-1.39849e-07
2.31001e-10
1.39778e-07
-2.30158e-10
9.39105e-05
-1.40547e-07
2.33017e-10
1.40475e-07
-2.32156e-10
9.8681e-05
-1.41274e-07
2.42853e-10
1.412e-07
-2.41974e-10
0.000102717
-1.42001e-07
2.42979e-10
1.41928e-07
-2.4208e-10
0.000105542
-1.42768e-07
2.55947e-10
1.42692e-07
-2.55028e-10
0.000106656
-1.4353e-07
2.54604e-10
1.43455e-07
-2.53664e-10
0.000105626
-1.44339e-07
2.70264e-10
1.44261e-07
-2.69302e-10
0.000102166
-1.45148e-07
2.69934e-10
1.45069e-07
-2.6895e-10
9.62077e-05
-1.46005e-07
2.8624e-10
1.45919e-07
-2.85232e-10
8.79298e-05
-1.46873e-07
2.90143e-10
1.46785e-07
-2.89108e-10
7.77374e-05
-1.47787e-07
3.05007e-10
1.47689e-07
-3.03943e-10
6.62e-05
-1.48728e-07
3.14297e-10
1.48623e-07
-3.132e-10
5.39664e-05
-1.49681e-07
3.18336e-10
1.49565e-07
-3.17202e-10
4.16782e-05
-1.50679e-07
3.33301e-10
1.50553e-07
-3.32127e-10
2.98997e-05
-1.5169e-07
3.37734e-10
1.51547e-07
-3.36515e-10
1.90786e-05
-1.52758e-07
3.56613e-10
1.52609e-07
-3.55346e-10
9.53362e-06
-1.53845e-07
3.63042e-10
1.53685e-07
-3.61723e-10
1.46472e-06
-1.54994e-07
3.83751e-10
1.54837e-07
-3.82376e-10
-5.02471e-06
-1.54991e-07
-2.25349e-13
1.54839e-07
1.65822e-12
-9.90197e-06
-1.54997e-07
3.00815e-12
1.54852e-07
-1.51375e-12
-1.31863e-05
-1.54994e-07
-1.80043e-13
1.54853e-07
1.73857e-12
-1.49322e-05
-1.54999e-07
2.43262e-12
1.54863e-07
-8.07483e-13
-1.52206e-05
-1.54995e-07
-1.61167e-13
1.5486e-07
1.85528e-12
-1.41529e-05
-1.54997e-07
1.69262e-12
1.54865e-07
7.29222e-14
-1.18461e-05
-1.54994e-07
-1.63e-13
1.54861e-07
2.0025e-12
-8.42657e-06
-1.54993e-07
1.00026e-12
1.54861e-07
9.15943e-13
-4.02512e-06
-1.5499e-07
-1.77994e-13
1.54854e-07
2.17387e-12
1.22925e-06
-1.54987e-07
3.91655e-13
1.5485e-07
1.68719e-12
7.21521e-06
-1.54983e-07
-1.9935e-13
1.54843e-07
2.36472e-12
1.38229e-05
-1.54979e-07
-6.95972e-14
1.54835e-07
2.32547e-12
2.09547e-05
-1.54975e-07
-2.20342e-13
1.54826e-07
2.57103e-12
2.85231e-05
-1.54969e-07
-4.36203e-13
1.54816e-07
2.88645e-12
3.64466e-05
-1.54965e-07
-2.51246e-13
1.54807e-07
2.80617e-12
4.46437e-05
-1.54959e-07
-2.59608e-13
1.54795e-07
2.92467e-12
5.30269e-05
-1.54954e-07
-2.67242e-13
1.54786e-07
3.04855e-12
6.14976e-05
-1.54949e-07
-2.73972e-13
1.54774e-07
3.17775e-12
6.9943e-05
-1.54943e-07
-2.81103e-13
1.54764e-07
3.31425e-12
7.82353e-05
-1.54937e-07
-2.86383e-13
1.54752e-07
3.45587e-12
8.62355e-05
-1.5493e-07
-2.93094e-13
1.54742e-07
3.60652e-12
9.37993e-05
-1.54924e-07
-2.969e-13
1.54729e-07
3.76179e-12
0.000100787
-1.54917e-07
-3.0275e-13
1.54719e-07
3.9272e-12
0.000107073
-1.54909e-07
-3.04931e-13
1.54706e-07
4.09678e-12
0.000112557
-1.54902e-07
-3.09585e-13
1.54694e-07
4.27721e-12
0.000117173
-1.54894e-07
-3.1001e-13
1.5468e-07
4.46144e-12
0.000120898
-1.54886e-07
-3.13204e-13
1.54667e-07
4.65705e-12
0.000123751
-1.54877e-07
-3.11818e-13
1.54653e-07
4.8563e-12
0.000125797
-1.54868e-07
-3.13403e-13
1.54639e-07
5.06755e-12
0.000127137
-1.54859e-07
-3.10221e-13
1.54623e-07
5.28264e-12
0.000127909
-1.54849e-07
-3.10107e-13
1.54608e-07
5.51051e-12
0.000128272
-1.54839e-07
-3.05149e-13
1.54591e-07
5.7427e-12
0.000128403
-1.54829e-07
-3.0321e-13
1.54574e-07
5.98844e-12
0.000128486
-1.54818e-07
-2.96377e-13
1.54556e-07
6.23902e-12
0.000128703
-1.54806e-07
-2.92331e-13
1.54538e-07
6.50372e-12
0.000129233
-1.54794e-07
-2.83313e-13
1.54519e-07
6.77353e-12
0.000130241
-1.54782e-07
-2.76627e-13
1.54499e-07
7.0577e-12
0.000131878
-1.54769e-07
-2.64813e-13
1.54478e-07
7.34698e-12
0.000134274
-1.54756e-07
-2.54625e-13
1.54457e-07
7.6506e-12
0.000137532
-1.54742e-07
-2.39077e-13
1.54434e-07
7.95925e-12
0.000141725
-1.54727e-07
-2.24159e-13
1.54411e-07
8.28232e-12
0.000146889
-1.54712e-07
-2.03568e-13
1.54387e-07
8.61062e-12
0.000153017
-1.54696e-07
-1.82294e-13
1.54361e-07
8.95389e-12
0.000160052
-1.5468e-07
-1.55008e-13
1.54335e-07
9.30319e-12
0.000167888
-1.54663e-07
-1.25383e-13
1.54308e-07
9.66863e-12
0.000176368
-1.54646e-07
-8.94141e-14
1.5428e-07
1.00413e-11
0.000185287
-1.54628e-07
-4.9119e-14
1.54251e-07
1.04316e-11
0.000194403
-1.54609e-07
-2.298e-15
1.54221e-07
1.08301e-11
0.000203446
-1.54589e-07
5.11172e-14
1.54189e-07
1.12471e-11
0.000212137
-1.54569e-07
1.10891e-13
1.54157e-07
1.16722e-11
0.000220206
-1.54548e-07
1.79719e-13
1.54122e-07
1.21154e-11
0.000227411
-1.54526e-07
2.54084e-13
1.54088e-07
1.25655e-11
0.000233555
-1.54504e-07
3.40096e-13
1.54051e-07
1.30323e-11
0.000238503
-1.54481e-07
4.29908e-13
1.54014e-07
1.3504e-11
0.000242188
-1.54457e-07
5.34197e-13
1.53974e-07
1.39916e-11
0.000244619
-1.54433e-07
6.39484e-13
1.53934e-07
1.44829e-11
0.000245871
-1.54407e-07
7.62662e-13
1.53892e-07
1.49907e-11
0.000246077
-1.54381e-07
8.8298e-13
1.53849e-07
1.55028e-11
0.000245413
-1.54354e-07
1.02567e-12
1.53804e-07
1.60337e-11
0.000244077
-1.54326e-07
1.16056e-12
1.53759e-07
1.657e-11
0.000242269
-1.54298e-07
1.32388e-12
1.53711e-07
1.71279e-11
0.000240175
-1.54269e-07
1.4731e-12
1.53662e-07
1.76919e-11
0.00023795
-1.54239e-07
1.65886e-12
1.53611e-07
1.82798e-11
0.000235705
-1.54207e-07
1.82237e-12
1.53559e-07
1.88731e-11
0.000233508
-1.54176e-07
2.03302e-12
1.53505e-07
1.94916e-11
0.000231381
-1.54143e-07
2.21062e-12
1.53449e-07
2.01136e-11
0.000229305
-1.54109e-07
2.44918e-12
1.53392e-07
2.07621e-11
0.000227234
-1.54075e-07
2.64016e-12
1.53333e-07
2.14113e-11
0.000225098
-1.54039e-07
2.91012e-12
1.53272e-07
2.20886e-11
0.000222824
-1.54003e-07
3.11288e-12
1.53209e-07
2.27641e-11
0.00022034
-1.53966e-07
3.41816e-12
1.53144e-07
2.347e-11
0.000217588
-1.53927e-07
3.62995e-12
1.53078e-07
2.41722e-11
0.000214531
-1.53888e-07
3.97508e-12
1.53009e-07
2.49081e-11
0.000211155
-1.53848e-07
4.19186e-12
1.52939e-07
2.56391e-11
0.000207474
-1.53807e-07
4.58228e-12
1.52866e-07
2.64076e-11
0.000203525
-1.53765e-07
4.79849e-12
1.52791e-07
2.71703e-11
0.000199368
-1.53722e-07
5.24104e-12
1.52714e-07
2.79744e-11
0.000195073
-1.53678e-07
5.44935e-12
1.52636e-07
2.87714e-11
0.000190722
-1.53633e-07
5.95272e-12
1.52554e-07
2.96126e-11
0.000186394
-1.53586e-07
6.14352e-12
1.52471e-07
3.04448e-11
0.000182164
-1.53539e-07
6.71882e-12
1.52385e-07
3.13221e-11
0.000178095
-1.5349e-07
6.87961e-12
1.52297e-07
3.21883e-11
0.00017423
-1.53441e-07
7.54096e-12
1.52207e-07
3.30978e-11
0.000170591
-1.5339e-07
7.65574e-12
1.52114e-07
3.39949e-11
0.000167177
-1.53339e-07
8.42092e-12
1.52018e-07
3.49308e-11
0.00016396
-1.53286e-07
8.46913e-12
1.5192e-07
3.58556e-11
0.000160885
-1.53232e-07
9.36158e-12
1.5182e-07
3.68113e-11
0.000157869
-1.53177e-07
9.63834e-12
1.51717e-07
3.77625e-11
0.000154807
-1.53121e-07
1.03572e-11
1.51611e-07
3.87331e-11
0.000151565
-1.53064e-07
1.08906e-11
1.51503e-07
3.9712e-11
0.000147991
-1.53005e-07
1.1119e-11
1.51393e-07
4.06973e-11
0.000143915
-1.52946e-07
1.18695e-11
1.51279e-07
4.17088e-11
0.000139154
-1.52885e-07
1.19492e-11
1.51163e-07
4.27164e-11
0.000133526
-1.52823e-07
1.28938e-11
1.51044e-07
4.37713e-11
0.00012685
-1.5276e-07
1.30133e-11
1.50922e-07
4.48187e-11
0.000118966
-1.52695e-07
1.39597e-11
1.50798e-07
4.5937e-11
0.000109743
-1.52629e-07
1.41431e-11
1.5067e-07
4.7053e-11
9.9094e-05
-1.52562e-07
1.50626e-11
1.50539e-07
4.82662e-11
8.69861e-05
-1.52493e-07
1.53048e-11
1.50405e-07
4.94916e-11
7.34548e-05
-1.52423e-07
1.61985e-11
1.50267e-07
5.08418e-11
5.86124e-05
-1.5235e-07
1.64942e-11
1.50125e-07
5.22261e-11
4.26534e-05
-1.52276e-07
1.73624e-11
1.4998e-07
5.37604e-11
2.58552e-05
-1.522e-07
1.77053e-11
1.4983e-07
5.5354e-11
8.57477e-06
-1.52121e-07
1.85453e-11
1.49675e-07
5.71131e-11
-8.76062e-06
-1.5204e-07
1.89257e-11
1.49515e-07
5.89504e-11
-2.5668e-05
-1.51956e-07
1.97937e-11
1.4935e-07
6.08818e-11
-4.16297e-05
-1.5187e-07
2.03363e-11
1.4918e-07
6.28371e-11
-5.61134e-05
-1.51781e-07
2.12909e-11
1.49005e-07
6.48664e-11
-6.86014e-05
-1.51689e-07
2.19967e-11
1.48824e-07
6.69089e-11
-7.86181e-05
-1.51595e-07
2.30169e-11
1.48637e-07
6.8999e-11
-8.5751e-05
-1.51498e-07
2.38708e-11
1.48445e-07
7.10884e-11
-8.96782e-05
-1.51398e-07
2.49208e-11
1.48247e-07
7.3209e-11
-9.01838e-05
-1.51296e-07
2.5858e-11
1.48043e-07
7.53289e-11
-8.71668e-05
-1.51192e-07
2.69399e-11
1.47834e-07
7.7487e-11
-8.06501e-05
-1.51084e-07
2.78417e-11
1.47619e-07
7.96724e-11
-7.07749e-05
-1.50975e-07
2.90217e-11
1.47397e-07
8.19318e-11
-5.77917e-05
-1.50861e-07
2.97527e-11
1.4717e-07
8.42752e-11
-4.20409e-05
-1.50746e-07
3.11349e-11
1.46935e-07
8.67438e-11
-2.3927e-05
-1.50626e-07
3.19081e-11
1.46695e-07
8.93713e-11
-3.90385e-06
-1.50503e-07
3.32558e-11
1.46446e-07
9.21704e-11
1.75532e-05
-1.50376e-07
3.40516e-11
1.46189e-07
9.5198e-11
3.99716e-05
-1.50245e-07
3.55671e-11
1.45924e-07
9.82001e-11
6.2896e-05
-1.50109e-07
3.66667e-11
1.4565e-07
1.0144e-10
8.59098e-05
-1.49971e-07
3.84493e-11
1.45368e-07
1.04621e-10
0.000108643
-1.49827e-07
3.99047e-11
1.45077e-07
1.08071e-10
0.000130776
-1.49681e-07
4.19898e-11
1.44777e-07
1.11411e-10
0.000152048
-1.4953e-07
4.38383e-11
1.44467e-07
1.15041e-10
0.000172252
-1.49376e-07
4.62461e-11
1.44148e-07
1.18493e-10
0.000191232
-1.49218e-07
4.8513e-11
1.43819e-07
1.22257e-10
0.000208881
-1.49057e-07
5.12506e-11
1.43481e-07
1.25761e-10
0.000225129
-1.48892e-07
5.39509e-11
1.43133e-07
1.29603e-10
0.000239932
-1.48725e-07
5.7014e-11
1.42776e-07
1.33092e-10
0.000253265
-1.48555e-07
6.01547e-11
1.42409e-07
1.36958e-10
0.000265106
-1.48383e-07
6.35291e-11
1.42032e-07
1.40367e-10
0.000275424
-1.48208e-07
6.71105e-11
1.41647e-07
1.44215e-10
0.000284166
-1.48032e-07
7.07732e-11
1.41252e-07
1.47487e-10
0.000291244
-1.47853e-07
7.479e-11
1.40848e-07
1.51291e-10
0.000296526
-1.47674e-07
7.87086e-11
1.40435e-07
1.54387e-10
0.000299834
-1.47494e-07
8.31497e-11
1.40014e-07
1.58149e-10
0.000300946
-1.47313e-07
8.72822e-11
1.39585e-07
1.61062e-10
0.000299599
-1.47131e-07
9.2132e-11
1.39147e-07
1.64828e-10
0.000295512
-1.46949e-07
9.64291e-11
1.387e-07
1.67598e-10
0.000288403
-1.46767e-07
1.01674e-10
1.38246e-07
1.71479e-10
0.000278019
-1.46584e-07
1.06086e-10
1.37783e-07
1.74217e-10
0.000264169
-1.46402e-07
1.11723e-10
1.37311e-07
1.78413e-10
0.000246752
-1.46219e-07
1.1621e-10
1.3683e-07
1.81315e-10
0.000225792
-1.46035e-07
1.22263e-10
1.36338e-07
1.86119e-10
0.000201464
-1.4585e-07
1.268e-10
1.35836e-07
1.89456e-10
0.000174113
-1.45663e-07
1.33318e-10
1.35322e-07
1.95235e-10
0.000144262
-1.45473e-07
1.37886e-10
1.34794e-07
1.99312e-10
0.000112614
-1.4528e-07
1.44936e-10
1.34251e-07
2.06457e-10
8.00343e-05
-1.45082e-07
1.49494e-10
1.33691e-07
2.11541e-10
4.75247e-05
-1.44879e-07
1.57126e-10
1.33112e-07
2.20382e-10
1.618e-05
-1.44668e-07
1.61576e-10
1.32512e-07
2.26606e-10
-1.28637e-05
-1.44451e-07
1.69783e-10
1.31888e-07
2.37293e-10
-3.84938e-05
-1.44224e-07
1.74413e-10
1.31243e-07
2.44022e-10
-5.97041e-05
-1.43992e-07
1.84219e-10
1.30572e-07
2.55487e-10
-7.56524e-05
-1.43751e-07
1.89359e-10
1.29878e-07
2.61986e-10
-8.57393e-05
-1.43505e-07
2.00651e-10
1.29159e-07
2.7424e-10
-8.96573e-05
-1.4325e-07
2.05892e-10
1.28417e-07
2.80335e-10
-8.74261e-05
-1.42992e-07
2.18479e-10
1.27647e-07
2.93532e-10
-7.94138e-05
-1.42723e-07
2.23394e-10
1.26856e-07
2.99259e-10
-6.63011e-05
-1.42452e-07
2.37164e-10
1.26034e-07
3.13831e-10
-4.90398e-05
-1.42168e-07
2.41394e-10
1.25188e-07
3.19428e-10
-2.87823e-05
-1.4188e-07
2.5636e-10
1.24309e-07
3.35994e-10
-6.79968e-06
-1.41577e-07
2.59592e-10
1.23404e-07
3.4171e-10
1.562e-05
-1.4127e-07
2.75809e-10
1.22461e-07
3.60801e-10
3.72675e-05
-1.40946e-07
2.78564e-10
1.21492e-07
3.65663e-10
5.70936e-05
-1.4062e-07
2.97524e-10
1.20483e-07
3.86318e-10
7.42891e-05
-1.40277e-07
2.99934e-10
1.1945e-07
3.89624e-10
8.83242e-05
-1.39935e-07
3.21831e-10
1.18375e-07
4.12012e-10
9.89621e-05
-1.39576e-07
3.23361e-10
1.17279e-07
4.13313e-10
0.000106258
-1.39221e-07
3.48261e-10
1.16139e-07
4.37667e-10
0.00011053
-1.38848e-07
3.48251e-10
1.1498e-07
4.36554e-10
0.000112307
-1.38482e-07
3.76248e-10
1.13775e-07
4.63248e-10
0.000112262
-1.38095e-07
3.74019e-10
1.12554e-07
4.59335e-10
0.000111145
-1.3772e-07
4.05326e-10
1.11285e-07
4.8883e-10
0.000109705
-1.3732e-07
4.00231e-10
1.10004e-07
4.81662e-10
0.00010865
-1.36937e-07
4.35212e-10
1.08671e-07
5.14416e-10
0.000108595
-1.36526e-07
4.26644e-10
1.07329e-07
5.03383e-10
0.000110018
-1.36135e-07
4.65834e-10
1.05933e-07
5.39806e-10
0.00011325
-1.35713e-07
4.53233e-10
1.04534e-07
5.24136e-10
0.000118484
-1.35318e-07
4.97355e-10
1.03077e-07
5.64634e-10
0.000125785
-1.34888e-07
4.80209e-10
1.01623e-07
5.4344e-10
0.000135096
-1.34491e-07
5.30174e-10
1.00108e-07
5.88478e-10
0.000146259
-1.34056e-07
5.07983e-10
9.8604e-08
5.60805e-10
0.000159031
-1.33662e-07
5.64861e-10
9.70347e-08
6.10957e-10
0.000173123
-1.33227e-07
5.37065e-10
9.54859e-08
5.75786e-10
0.000188189
-1.32842e-07
6.02034e-10
9.38675e-08
6.31757e-10
0.000203845
-1.3241e-07
5.67937e-10
9.228e-08
5.87999e-10
0.000219688
-1.32041e-07
6.42235e-10
9.06181e-08
6.50635e-10
0.000235282
-1.3162e-07
6.00938e-10
8.89987e-08
5.97127e-10
0.000250219
-1.31273e-07
6.85824e-10
8.7299e-08
6.67436e-10
0.000264107
-1.30868e-07
6.36188e-10
8.56548e-08
6.02959e-10
0.000276592
-1.30552e-07
7.3294e-10
8.39232e-08
6.8215e-10
0.000287408
-1.30169e-07
6.73584e-10
8.2261e-08
6.05456e-10
0.00029641
-1.29889e-07
7.83536e-10
8.05027e-08
6.94971e-10
0.000303565
-1.29533e-07
7.12875e-10
7.88288e-08
6.04784e-10
0.000308956
-1.29295e-07
8.37499e-10
7.7048e-08
7.06302e-10
0.000312777
-1.2897e-07
7.53788e-10
7.53676e-08
6.01266e-10
0.000315319
-1.28781e-07
8.9478e-10
7.35672e-08
7.16674e-10
0.000316919
-1.2849e-07
7.96136e-10
7.18843e-08
5.95252e-10
0.000317895
-1.28353e-07
9.55496e-10
7.00659e-08
7.2659e-10
0.000318528
-1.28098e-07
8.39895e-10
6.83837e-08
5.86972e-10
0.000319009
-1.28018e-07
1.01996e-09
6.6548e-08
7.3642e-10
0.000319398
-1.27801e-07
8.85193e-10
6.48691e-08
5.76482e-10
0.000319664
-1.27783e-07
1.08866e-09
6.30163e-08
7.46413e-10
0.00031968
-1.27606e-07
9.32237e-10
6.13433e-08
5.63739e-10
0.000319231
-1.27655e-07
1.16213e-09
5.94731e-08
7.56802e-10
0.00031812
-1.2752e-07
9.81203e-10
5.78081e-08
5.48708e-10
0.000316175
-1.27639e-07
1.24091e-09
5.59192e-08
7.67926e-10
0.000313305
-1.27548e-07
1.03215e-09
5.42639e-08
5.31447e-10
0.000309544
-1.27744e-07
1.32542e-09
5.23542e-08
7.80264e-10
0.000305052
-1.27696e-07
1.08504e-09
5.07094e-08
5.12079e-10
0.000300129
-1.27972e-07
1.41614e-09
4.87758e-08
7.94346e-10
0.000295178
-1.27969e-07
1.13982e-09
4.7142e-08
4.90639e-10
0.000290711
-1.28331e-07
1.51363e-09
4.51803e-08
8.10565e-10
0.000287283
-1.28372e-07
1.19662e-09
4.3558e-08
4.66878e-10
0.000285407
-1.28826e-07
1.61884e-09
4.15643e-08
8.28956e-10
0.000285565
-1.28912e-07
1.25591e-09
3.9955e-08
4.40075e-10
0.000288174
-1.29466e-07
1.73321e-09
3.79265e-08
8.49067e-10
0.000293502
-1.29601e-07
1.31864e-09
3.63339e-08
4.08977e-10
0.000301663
-1.30265e-07
1.85888e-09
3.42696e-08
8.69941e-10
0.000312635
-1.30454e-07
1.3863e-09
3.27004e-08
3.71824e-10
0.00032626
-1.31244e-07
1.99866e-09
3.06019e-08
8.90205e-10
0.000342246
-1.31495e-07
1.46074e-09
2.90663e-08
3.26485e-10
0.000360196
-1.32431e-07
2.1559e-09
2.69384e-08
9.08213e-10
0.000379646
-1.32757e-07
1.54395e-09
2.54503e-08
2.70621e-10
0.000400061
-1.33864e-07
2.33421e-09
2.33007e-08
9.22185e-10
0.000420915
-1.34281e-07
1.63776e-09
2.18776e-08
2.01872e-10
0.000441731
-1.35588e-07
2.53726e-09
1.97168e-08
9.30349e-10
0.00046207
-1.36112e-07
1.74368e-09
1.83794e-08
1.18018e-10
0.000481606
-1.37653e-07
2.76869e-09
1.62203e-08
9.31005e-10
0.000500205
-1.38305e-07
1.86281e-09
1.49925e-08
1.70278e-11
0.000517892
-1.40118e-07
3.0323e-09
1.28505e-08
9.2246e-10
0.000534911
-1.40919e-07
1.99604e-09
1.17587e-08
-1.03071e-10
0.000551754
-1.43047e-07
3.33247e-09
9.65162e-09
9.02641e-10
0.000569194
-1.44021e-07
2.14446e-09
8.72589e-09
-2.44599e-10
0.00058836
-1.46515e-07
3.67511e-09
6.67633e-09
8.68265e-10
0.000610846
-1.4769e-07
2.31013e-09
5.95239e-09
-4.10993e-10
0.000638964
-1.50611e-07
4.06919e-09
3.9917e-09
8.13189e-10
0.000675965
-1.30362e-07
-1.91643e-08
3.51588e-09
-6.08316e-10
0.000726645
-1.11046e-07
-1.82196e-08
1.81184e-09
6.07746e-10
0.000798436
-8.97029e-08
-2.02982e-08
1.43064e-09
-6.63761e-10
0.000902954
-6.88702e-08
-1.97753e-08
1.05681e-11
3.62931e-10
0.00105695
-4.61964e-08
-2.16499e-08
-3.70762e-10
-6.42143e-10
0.00128395
-2.335e-08
-2.18034e-08
-1.45321e-09
3.96864e-11
0.00168701
-2.34923e-08
1.18791e-09
-4.49507e-10
-2.04881e-09
2.07404e-07
2.30065e-08
-2.29815e-08
6.4479e-07
5.63261e-08
-5.62968e-08
1.10657e-06
7.99982e-08
-7.99342e-08
1.58715e-06
9.24279e-08
-9.23607e-08
2.08477e-06
9.90868e-08
-9.89911e-08
2.60075e-06
1.03201e-07
-1.03107e-07
3.13605e-06
1.06073e-07
-1.05953e-07
3.69099e-06
1.08256e-07
-1.08148e-07
4.2657e-06
1.10011e-07
-1.09879e-07
4.86079e-06
1.11484e-07
-1.11341e-07
5.47745e-06
1.12755e-07
-1.12597e-07
6.11652e-06
1.1388e-07
-1.13691e-07
6.77889e-06
1.14891e-07
-1.14698e-07
7.46578e-06
1.15815e-07
-1.15611e-07
8.17779e-06
1.16668e-07
-1.16466e-07
8.91483e-06
1.17464e-07
-1.17272e-07
9.67632e-06
1.18214e-07
-1.18024e-07
1.04616e-05
1.18926e-07
-1.1874e-07
1.12714e-05
1.19605e-07
-1.19419e-07
1.21083e-05
1.20259e-07
-1.20069e-07
1.29762e-05
1.20888e-07
-1.20696e-07
1.38777e-05
1.21501e-07
-1.21302e-07
1.48144e-05
1.22094e-07
-1.21893e-07
1.57868e-05
1.22674e-07
-1.22467e-07
1.6796e-05
1.23241e-07
-1.23033e-07
1.78429e-05
1.23796e-07
-1.23585e-07
1.89287e-05
1.24346e-07
-1.24134e-07
2.00542e-05
1.24888e-07
-1.24673e-07
2.12199e-05
1.25425e-07
-1.2521e-07
2.24264e-05
1.25958e-07
-1.2574e-07
2.36751e-05
1.26488e-07
-1.26269e-07
2.49695e-05
1.27017e-07
-1.26794e-07
2.63157e-05
1.27543e-07
-1.27319e-07
2.77223e-05
1.28072e-07
-1.27842e-07
2.91993e-05
1.28598e-07
-1.28367e-07
3.07562e-05
1.29127e-07
-1.28889e-07
3.24007e-05
1.29655e-07
-1.29417e-07
3.41381e-05
1.30178e-07
-1.29935e-07
3.59712e-05
1.30712e-07
-1.30468e-07
3.79014e-05
1.31235e-07
-1.3099e-07
3.993e-05
1.31777e-07
-1.31533e-07
4.20612e-05
1.32312e-07
-1.32068e-07
4.43049e-05
1.32868e-07
-1.32623e-07
4.66797e-05
1.33425e-07
-1.33179e-07
4.92126e-05
1.33997e-07
-1.33749e-07
5.19372e-05
1.34579e-07
-1.34324e-07
5.48886e-05
1.35169e-07
-1.34912e-07
5.80988e-05
1.35779e-07
-1.35504e-07
6.15933e-05
1.3639e-07
-1.36112e-07
6.53907e-05
1.36975e-07
-1.36686e-07
6.9503e-05
1.37606e-07
-1.37318e-07
7.3934e-05
1.38221e-07
-1.37935e-07
7.86696e-05
1.38877e-07
-1.38595e-07
8.3662e-05
1.39546e-07
-1.39264e-07
8.88056e-05
1.40236e-07
-1.39956e-07
9.391e-05
1.40935e-07
-1.40654e-07
9.86805e-05
1.41662e-07
-1.41382e-07
0.000102717
1.42392e-07
-1.4211e-07
0.000105541
1.43159e-07
-1.42877e-07
0.000106656
1.43924e-07
-1.43639e-07
0.000105626
1.44733e-07
-1.44449e-07
0.000102166
1.45543e-07
-1.45258e-07
9.62072e-05
1.46396e-07
-1.46115e-07
8.79293e-05
1.47265e-07
-1.46985e-07
7.77369e-05
1.48171e-07
-1.47898e-07
6.61995e-05
1.49108e-07
-1.4884e-07
5.39659e-05
1.50053e-07
-1.49794e-07
4.16776e-05
1.51044e-07
-1.50793e-07
2.98992e-05
1.52041e-07
-1.51804e-07
1.9078e-05
1.53106e-07
-1.52873e-07
9.533e-06
1.54186e-07
-1.5396e-07
1.46405e-06
1.55341e-07
-1.5511e-07
-5.02462e-06
1.55347e-07
-1.55108e-07
-9.9019e-06
1.55364e-07
-1.55115e-07
-1.31862e-05
1.55368e-07
-1.55113e-07
-1.49321e-05
1.55382e-07
-1.55118e-07
-1.52206e-05
1.55384e-07
-1.55116e-07
-1.41529e-05
1.55394e-07
-1.55119e-07
-1.18461e-05
1.55394e-07
-1.55116e-07
-8.42659e-06
1.55399e-07
-1.55117e-07
-4.02516e-06
1.55397e-07
-1.55114e-07
1.22919e-06
1.55399e-07
-1.55113e-07
7.21514e-06
1.55396e-07
-1.5511e-07
1.38228e-05
1.55395e-07
-1.55107e-07
2.09546e-05
1.55392e-07
-1.55104e-07
2.8523e-05
1.55388e-07
-1.551e-07
3.64465e-05
1.55385e-07
-1.55096e-07
4.46436e-05
1.5538e-07
-1.55093e-07
5.30268e-05
1.55378e-07
-1.55089e-07
6.14975e-05
1.55373e-07
-1.55085e-07
6.99429e-05
1.55372e-07
-1.55081e-07
7.82352e-05
1.55367e-07
-1.55076e-07
8.62354e-05
1.55366e-07
-1.55072e-07
9.37992e-05
1.55362e-07
-1.55067e-07
0.000100787
1.55361e-07
-1.55062e-07
0.000107073
1.55357e-07
-1.55057e-07
0.000112557
1.55356e-07
-1.55051e-07
0.000117173
1.55353e-07
-1.55046e-07
0.000120898
1.55351e-07
-1.5504e-07
0.000123751
1.55348e-07
-1.55034e-07
0.000125797
1.55346e-07
-1.55027e-07
0.000127137
1.55343e-07
-1.55021e-07
0.000127909
1.55341e-07
-1.55014e-07
0.000128272
1.55338e-07
-1.55007e-07
0.000128403
1.55336e-07
-1.54999e-07
0.000128486
1.55333e-07
-1.54992e-07
0.000128703
1.55331e-07
-1.54984e-07
0.000129233
1.55328e-07
-1.54975e-07
0.000130241
1.55326e-07
-1.54966e-07
0.000131878
1.55323e-07
-1.54957e-07
0.000134274
1.5532e-07
-1.54948e-07
0.000137532
1.55317e-07
-1.54938e-07
0.000141725
1.55315e-07
-1.54928e-07
0.000146889
1.55312e-07
-1.54918e-07
0.000153017
1.55309e-07
-1.54907e-07
0.000160052
1.55306e-07
-1.54895e-07
0.000167888
1.55304e-07
-1.54884e-07
0.000176368
1.55301e-07
-1.54872e-07
0.000185287
1.55298e-07
-1.54859e-07
0.000194403
1.55296e-07
-1.54846e-07
0.000203446
1.55293e-07
-1.54833e-07
0.000212137
1.5529e-07
-1.54819e-07
0.000220206
1.55288e-07
-1.54805e-07
0.000227411
1.55285e-07
-1.5479e-07
0.000233555
1.55283e-07
-1.54775e-07
0.000238503
1.55281e-07
-1.5476e-07
0.000242189
1.55279e-07
-1.54744e-07
0.00024462
1.55277e-07
-1.54727e-07
0.000245871
1.55276e-07
-1.5471e-07
0.000246078
1.55274e-07
-1.54693e-07
0.000245413
1.55273e-07
-1.54676e-07
0.000244077
1.55273e-07
-1.54658e-07
0.00024227
1.55272e-07
-1.54639e-07
0.000240176
1.55272e-07
-1.5462e-07
0.000237951
1.55272e-07
-1.54601e-07
0.000235706
1.55272e-07
-1.54581e-07
0.000233509
1.55273e-07
-1.54561e-07
0.000231382
1.55275e-07
-1.54541e-07
0.000229306
1.55276e-07
-1.5452e-07
0.000227235
1.55279e-07
-1.54499e-07
0.0002251
1.55281e-07
-1.54477e-07
0.000222826
1.55284e-07
-1.54455e-07
0.000220342
1.55288e-07
-1.54432e-07
0.00021759
1.55293e-07
-1.54409e-07
0.000214532
1.55297e-07
-1.54386e-07
0.000211156
1.55303e-07
-1.54362e-07
0.000207475
1.55309e-07
-1.54338e-07
0.000203527
1.55316e-07
-1.54313e-07
0.000199369
1.55324e-07
-1.54288e-07
0.000195075
1.55333e-07
-1.54263e-07
0.000190723
1.55342e-07
-1.54237e-07
0.000186396
1.55352e-07
-1.54211e-07
0.000182166
1.55363e-07
-1.54185e-07
0.000178097
1.55375e-07
-1.54158e-07
0.000174232
1.55388e-07
-1.54131e-07
0.000170593
1.55401e-07
-1.54103e-07
0.000167179
1.55416e-07
-1.54075e-07
0.000163962
1.55431e-07
-1.54046e-07
0.000160887
1.55449e-07
-1.54018e-07
0.000157872
1.55467e-07
-1.53989e-07
0.000154809
1.55486e-07
-1.5396e-07
0.000151568
1.55507e-07
-1.53931e-07
0.000147994
1.55529e-07
-1.53901e-07
0.000143918
1.55552e-07
-1.53871e-07
0.000139158
1.55576e-07
-1.53841e-07
0.000133529
1.55601e-07
-1.5381e-07
0.000126854
1.55627e-07
-1.53778e-07
0.00011897
1.55655e-07
-1.53747e-07
0.000109748
1.55684e-07
-1.53715e-07
9.90992e-05
1.55715e-07
-1.53683e-07
8.69916e-05
1.55746e-07
-1.53649e-07
7.34607e-05
1.55779e-07
-1.53616e-07
5.86186e-05
1.55813e-07
-1.53582e-07
4.26598e-05
1.55849e-07
-1.53547e-07
2.58618e-05
1.55886e-07
-1.53511e-07
8.5813e-06
1.55924e-07
-1.53474e-07
-8.75427e-06
1.55964e-07
-1.53436e-07
-2.5662e-05
1.56005e-07
-1.53397e-07
-4.16243e-05
1.56047e-07
-1.53356e-07
-5.61088e-05
1.56091e-07
-1.53315e-07
-6.85978e-05
1.56137e-07
-1.53272e-07
-7.86157e-05
1.56186e-07
-1.53229e-07
-8.57501e-05
1.56236e-07
-1.53184e-07
-8.9679e-05
1.56289e-07
-1.53139e-07
-9.01864e-05
1.56344e-07
-1.53093e-07
-8.71713e-05
1.56401e-07
-1.53046e-07
-8.06567e-05
1.5646e-07
-1.52998e-07
-7.07835e-05
1.56522e-07
-1.5295e-07
-5.78023e-05
1.56586e-07
-1.529e-07
-4.20534e-05
1.56653e-07
-1.52849e-07
-2.39413e-05
1.56721e-07
-1.52797e-07
-3.91976e-06
1.56793e-07
-1.52743e-07
1.7536e-05
1.56866e-07
-1.52687e-07
3.99532e-05
1.56943e-07
-1.52631e-07
6.28768e-05
1.57022e-07
-1.52571e-07
8.58901e-05
1.57105e-07
-1.52512e-07
0.000108623
1.57192e-07
-1.52451e-07
0.000130756
1.57283e-07
-1.52389e-07
0.000152028
1.5738e-07
-1.52326e-07
0.000172233
1.57482e-07
-1.52264e-07
0.000191214
1.57589e-07
-1.522e-07
0.000208864
1.57704e-07
-1.52138e-07
0.000225113
1.57825e-07
-1.52075e-07
0.000239918
1.57954e-07
-1.52015e-07
0.000253253
1.58091e-07
-1.51954e-07
0.000265096
1.58237e-07
-1.51896e-07
0.000275417
1.58392e-07
-1.51839e-07
0.000284161
1.58556e-07
-1.51785e-07
0.000291243
1.58731e-07
-1.51734e-07
0.000296528
1.58916e-07
-1.51686e-07
0.000299841
1.59113e-07
-1.51641e-07
0.000300957
1.59321e-07
-1.51601e-07
0.000299615
1.59542e-07
-1.51563e-07
0.000295533
1.59774e-07
-1.51532e-07
0.00028843
1.6002e-07
-1.51504e-07
0.000278053
1.60278e-07
-1.51482e-07
0.000264209
1.60551e-07
-1.51464e-07
0.000246799
1.60836e-07
-1.51452e-07
0.000225846
1.61137e-07
-1.51443e-07
0.000201524
1.61451e-07
-1.51441e-07
0.000174179
1.6178e-07
-1.51441e-07
0.000144333
1.62123e-07
-1.51447e-07
0.000112688
1.62483e-07
-1.51455e-07
8.01099e-05
1.62856e-07
-1.51467e-07
4.76e-05
1.63246e-07
-1.51479e-07
1.62525e-05
1.6365e-07
-1.51495e-07
-1.27964e-05
1.64072e-07
-1.5151e-07
-3.84346e-05
1.64509e-07
-1.51528e-07
-5.96554e-05
1.64966e-07
-1.51546e-07
-7.56168e-05
1.65441e-07
-1.51569e-07
-8.57187e-05
1.65941e-07
-1.51594e-07
-8.96532e-05
1.66459e-07
-1.51626e-07
-8.74391e-05
1.67004e-07
-1.51658e-07
-7.94438e-05
1.67568e-07
-1.51699e-07
-6.63471e-05
1.68161e-07
-1.51741e-07
-4.90997e-05
1.68771e-07
-1.51791e-07
-2.88535e-05
1.69412e-07
-1.51839e-07
-6.87872e-06
1.7007e-07
-1.51896e-07
1.5537e-05
1.70759e-07
-1.51948e-07
3.71844e-05
1.71467e-07
-1.52011e-07
5.70142e-05
1.7221e-07
-1.5207e-07
7.4217e-05
1.72973e-07
-1.52144e-07
8.82619e-05
1.73778e-07
-1.52215e-07
9.89117e-05
1.74604e-07
-1.52304e-07
0.00010622
1.75477e-07
-1.5239e-07
0.000110505
1.76371e-07
-1.525e-07
0.000112293
1.77315e-07
-1.52604e-07
0.000112257
1.78279e-07
-1.52735e-07
0.000111145
1.79298e-07
-1.5286e-07
0.000109708
1.80335e-07
-1.53015e-07
0.000108651
1.81431e-07
-1.53161e-07
0.000108591
1.82542e-07
-1.53342e-07
0.000110005
1.83716e-07
-1.5351e-07
0.000113226
1.84903e-07
-1.53719e-07
0.000118446
1.86158e-07
-1.53913e-07
0.000125733
1.87422e-07
-1.54153e-07
0.000135028
1.88763e-07
-1.54375e-07
0.000146176
1.90108e-07
-1.54651e-07
0.000158934
1.91539e-07
-1.54906e-07
0.000173015
1.92972e-07
-1.55226e-07
0.000188071