/*--------------------------------*- C++ -*----------------------------------*\
| =========                 |                                                 |
| \\      /  F ield         | OpenFOAM: The Open Source CFD Toolbox           |
|  \\    /   O peration     | Version:  2012                                  |
|   \\  /    A nd           | Website:  www.openfoam.com                      |
|    \\/     M anipulation  |                                                 |
\*---------------------------------------------------------------------------*/
FoamFile
{
    version     2.0;
    format      ascii;
    class       volSymmTensorField;
    location    "12000";
    object      turbulenceProperties:R;
}
// * * * * * * * * * * * * * * * * * * * * * * * * * * * * * * * * * * * * * //

dimensions      [0 2 -2 0 0 0 0];


internalField   nonuniform List<symmTensor> 
2560
(
(0.00914122 -3.6879e-06 -5.34657e-09 0.00914122 -2.8156e-08 0.00914122)
(0.00913402 -3.68068e-06 -5.34236e-09 0.00913402 1.15772e-12 0.00913402)
(0.260899 -0.000605251 -2.64769e-06 0.260899 -9.09007e-11 0.260899)
(0.260709 -0.000604111 -2.64574e-06 0.260709 1.56807e-10 0.260709)
(1.75012 -0.0122165 -7.32122e-05 1.75012 4.85518e-05 1.75012)
(1.74898 -0.0121949 -7.30853e-05 1.74898 8.06077e-10 1.74898)
(4.86359 -0.0715554 -0.00043506 4.8636 0.000225116 4.86359)
(4.86118 -0.0714463 -0.000434418 4.86117 3.88184e-09 4.86118)
(8.23503 -0.196834 -0.00121417 8.23504 0.000295998 8.23502)
(8.23181 -0.19658 -0.00121267 8.23179 3.24883e-09 8.23181)
(11.2291 -0.371313 -0.00232306 11.2291 0.000249727 11.2291)
(11.2253 -0.370901 -0.0023206 11.2253 1.83091e-09 11.2253)
(13.8641 -0.578733 -0.00367153 13.8642 0.000195713 13.8641)
(13.8599 -0.578177 -0.00366819 13.8599 1.42763e-09 13.8599)
(16.2351 -0.809398 -0.00520682 16.2352 0.000156368 16.2351)
(16.2306 -0.808725 -0.00520275 16.2306 2.97754e-09 16.2306)
(18.4137 -1.05785 -0.00690402 18.4137 0.000128751 18.4137)
(18.4088 -1.05709 -0.00689941 18.4088 1.2297e-09 18.4088)
(20.4484 -1.32172 -0.00875656 20.4484 0.000108767 20.4484)
(20.4432 -1.32092 -0.00875162 20.4432 5.50536e-09 20.4432)
(22.3725 -1.59942 -0.0107522 22.3725 9.37415e-05 22.3725)
(22.367 -1.5986 -0.0107472 22.367 3.62589e-10 22.367)
(24.2097 -1.88915 -0.0128873 24.2097 8.20815e-05 24.2097)
(24.2038 -1.88836 -0.0128823 24.2038 9.36696e-09 24.2038)
(25.9772 -2.19056 -0.0151675 25.9772 7.29201e-05 25.9772)
(25.9712 -2.18981 -0.0151628 25.9708 -8.09087e-07 25.9712)
(27.6882 -2.50243 -0.0175769 27.6882 6.42371e-05 27.6882)
(27.6818 -2.50175 -0.0175727 27.6818 -1.17344e-08 27.6818)
(29.3529 -2.82097 -0.0200884 29.3529 5.89724e-05 29.3529)
(29.3469 -2.82039 -0.0200848 29.3451 5.14777e-07 29.3469)
(30.9795 -3.14182 -0.0226753 30.9795 4.86057e-05 30.9795)
(30.9726 -3.14135 -0.0226725 30.9726 -5.30083e-08 30.9726)
(32.5745 -3.46158 -0.0253207 32.5745 4.79379e-05 32.5745)
(32.568 -3.46122 -0.0253186 32.5664 4.88294e-06 32.568)
(34.1436 -3.78157 -0.0280642 34.1436 3.52429e-05 34.1436)
(34.1362 -3.78134 -0.0280629 34.1362 -2.27875e-08 34.1363)
(35.6913 -4.11098 -0.0310021 35.6914 4.25074e-05 35.6913)
(35.6838 -4.11085 -0.0310016 35.6838 5.13229e-08 35.6838)
(37.2218 -4.4604 -0.0341999 37.2218 2.51627e-05 37.2218)
(37.2139 -4.46039 -0.0342001 37.2139 -1.01129e-08 37.2139)
(38.7383 -4.83187 -0.0376351 38.7383 4.27732e-05 38.7383)
(38.7302 -4.83194 -0.037636 38.7302 7.61143e-08 38.7302)
(40.2438 -5.21839 -0.0412428 40.2439 1.58096e-05 40.2438)
(40.2355 -5.21855 -0.0412443 40.2355 2.47183e-09 40.2355)
(41.741 -5.61241 -0.0449879 41.741 4.69328e-05 41.741)
(41.7324 -5.61264 -0.0449899 41.7324 -4.06254e-06 41.7324)
(43.2321 -6.01141 -0.0488774 43.2322 2.366e-06 43.2321)
(43.2233 -6.0117 -0.0488798 43.2233 -8.44575e-08 43.2233)
(44.7193 -6.41627 -0.0529257 44.7193 5.90525e-05 44.7193)
(44.7103 -6.4166 -0.0529284 44.7103 -1.4594e-06 44.7103)
(46.2046 -6.82713 -0.0571282 46.2047 -1.84124e-05 46.2046)
(46.1953 -6.82748 -0.0571311 46.1953 -1.9793e-07 46.1953)
(47.6897 -7.24189 -0.0614632 47.6897 7.33125e-05 47.6897)
(47.6801 -7.24225 -0.0614661 47.6801 5.02806e-06 47.6802)
(49.1763 -7.65731 -0.0659059 49.1764 -3.79295e-05 49.1763)
(49.1665 -7.65765 -0.0659086 49.1665 -1.427e-07 49.1665)
(50.666 -8.07142 -0.0704538 50.666 8.30703e-05 50.666)
(50.6559 -8.07172 -0.0704561 50.6559 -6.02868e-08 50.6559)
(52.1603 -8.48748 -0.0751707 52.1605 -5.35231e-05 52.1603)
(52.15 -8.48771 -0.0751723 52.15 -4.10838e-08 52.15)
(53.6608 -8.91822 -0.080224 53.6607 9.3655e-05 53.6608)
(53.6501 -8.91835 -0.0802246 53.6501 2.72108e-07 53.6501)
(55.1686 -9.38641 -0.0858679 55.1688 -7.02036e-05 55.1686)
(55.1578 -9.38641 -0.0858672 55.1578 4.77022e-08 55.1578)
(56.6853 -9.91861 -0.09236 56.6852 0.000106182 56.6853)
(56.6741 -9.91844 -0.0923576 56.6741 3.71544e-07 56.6741)
(58.2117 -10.5348 -0.0998628 58.212 -8.80662e-05 58.2117)
(58.2004 -10.5344 -0.0998585 58.2004 3.52739e-08 58.2004)
(59.7493 -11.2406 -0.108389 59.7491 0.000122572 59.7493)
(59.7374 -11.24 -0.108382 59.7374 -9.22267e-06 59.7375)
(61.2981 -12.0254 -0.117808 61.2985 -0.00011705 61.2981)
(61.2862 -12.0246 -0.117799 61.2862 -2.01263e-07 61.2862)
(62.8597 -12.8669 -0.127899 62.8594 0.000153539 62.8597)
(62.8472 -12.866 -0.127888 62.8472 -3.23521e-05 62.8472)
(64.4337 -13.7383 -0.138421 64.4341 -0.000192734 64.4337)
(64.4211 -13.7371 -0.138408 64.4211 -6.97165e-07 64.4211)
(66.0216 -14.6163 -0.149197 66.0212 0.000258878 66.0216)
(66.0084 -14.6149 -0.149182 66.0084 -1.44423e-05 66.0084)
(67.6228 -15.4905 -0.160221 67.6234 -0.000328256 67.6228)
(67.6097 -15.4889 -0.160204 67.6097 -9.55473e-07 67.6097)
(69.2392 -16.374 -0.171777 69.2387 0.000414955 69.2392)
(69.2253 -16.3722 -0.171757 69.2253 1.17095e-05 69.2254)
(70.8699 -17.3113 -0.184525 70.8706 -0.000483854 70.8699)
(70.8561 -17.3092 -0.184501 70.8561 -8.36846e-07 70.8561)
(72.5169 -18.378 -0.199455 72.5164 0.000564586 72.5169)
(72.5024 -18.3756 -0.199427 72.5024 2.79897e-05 72.5024)
(74.1789 -19.6658 -0.217654 74.1796 -0.000615134 74.1789)
(74.1644 -19.6629 -0.217621 74.1644 -4.67014e-07 74.1644)
(75.8572 -21.254 -0.23996 75.8566 0.000671063 75.8572)
(75.8419 -21.2507 -0.239921 75.8419 1.28448e-05 75.8419)
(77.5491 -23.1809 -0.266669 77.5499 -0.000715377 77.5491)
(77.5339 -23.1771 -0.266626 77.5339 -3.00224e-07 77.5339)
(79.2547 -25.4306 -0.297477 79.2539 0.00075995 79.2547)
(79.2385 -25.4265 -0.29743 79.2385 -6.67086e-06 79.2385)
(80.9689 -27.9402 -0.331616 80.9699 -0.000816404 80.9689)
(80.9529 -27.9358 -0.331565 80.9529 -4.12375e-07 80.9529)
(82.6905 -30.6245 -0.368206 82.6896 0.0008692 82.6905)
(82.6734 -30.6201 -0.368155 82.6734 -0.000151438 82.6734)
(84.4124 -33.3998 -0.406406 84.4134 -0.00108513 84.4124)
(84.3955 -33.3955 -0.406357 84.3955 -2.66052e-06 84.3955)
(86.1322 -36.174 -0.445024 86.1312 0.00130276 86.1322)
(86.1142 -36.1701 -0.444981 86.1142 6.14748e-05 86.1142)
(87.8418 -38.7966 -0.481683 87.8428 -0.00147813 87.8418)
(87.824 -38.7934 -0.48165 87.824 -4.9546e-06 87.824)
(89.5388 -40.9842 -0.511732 89.5378 0.00160556 89.5388)
(89.5198 -40.9822 -0.511718 89.5198 6.88109e-05 89.5198)
(91.2167 -42.2445 -0.527232 91.2176 -0.00175742 91.2167)
(91.1978 -42.2445 -0.527245 91.1978 -1.14617e-05 91.1978)
(92.8776 -41.8322 -0.516462 92.8769 0.00177533 92.8776)
(92.8576 -41.8349 -0.516515 92.8576 -5.23058e-05 92.8576)
(94.525 -38.7876 -0.464935 94.526 -0.00199696 94.525)
(94.5049 -38.7939 -0.465043 94.5049 -2.11411e-05 94.5049)
(96.1758 -32.0888 -0.357886 96.1756 0.00196208 96.1758)
(96.1547 -32.0999 -0.358064 96.1547 -6.96531e-05 96.1547)
(97.8525 -20.9049 -0.184253 97.8534 -0.00230361 97.8525)
(97.8309 -20.9217 -0.184516 97.8309 -2.27937e-05 97.8309)
(99.5845 -0.0252634 -0.00016896 99.5847 0.00220957 99.5845)
(99.5618 -3.36051e-31 8.40671e-16 99.5618 -3.93611e-05 99.5618)
(101.392 8.849 -0.0600422 101.392 -0.00265927 101.392)
(101.368 8.79471 -0.0596738 101.368 -6.8491e-06 101.368)
(103.274 38.9999 -0.370179 103.274 0.00254146 103.274)
(103.249 38.9615 -0.369701 103.249 3.86712e-05 103.249)
(105.173 63.5711 -0.72042 105.172 -0.00300657 105.173)
(105.147 63.5252 -0.719828 105.147 2.00883e-05 105.148)
(106.991 86.7158 -1.07829 106.991 0.00292593 106.991)
(106.965 86.6633 -1.07759 106.965 0.000108229 106.965)
(108.593 105.974 -1.40608 108.592 -0.00328405 108.593)
(108.566 105.917 -1.40528 108.566 3.76341e-05 108.567)
(109.837 119.42 -1.66857 109.838 0.00327947 109.837)
(109.811 119.359 -1.6677 109.811 9.36283e-05 109.811)
(110.609 126.012 -1.8403 110.607 -0.00344291 110.609)
(110.582 125.952 -1.8394 110.582 -0.000105078 110.582)
(110.841 125.717 -1.90977 110.843 0.00346499 110.841)
(110.816 125.66 -1.90888 110.816 -2.71103e-05 110.816)
(110.536 119.374 -1.88011 110.534 -0.00350177 110.536)
(110.511 119.325 -1.8793 110.511 -5.68692e-05 110.511)
(109.741 108.373 -1.76607 109.743 0.00351671 109.741)
(109.719 108.339 -1.76542 109.719 -9.73614e-06 109.719)
(108.552 94.2938 -1.34629 108.551 -0.00350027 108.552)
(108.53 94.2788 -1.34614 108.53 -4.45404e-06 108.53)
(107.07 78.5995 -0.664988 107.072 0.00350584 107.07)
(107.05 78.6085 -0.664917 107.05 3.11324e-07 107.05)
(105.404 62.4654 -0.10088 105.403 -0.00348443 105.404)
(105.385 62.5011 -0.100868 105.385 -0.000219245 105.385)
(103.643 46.73 0.341666 103.644 0.00136316 103.643)
(103.626 46.7869 0.341637 103.626 -8.29729e-20 103.626)
(101.861 31.9298 0.414823 101.86 -0.000155921 101.861)
(101.845 31.9972 0.415997 101.845 0.000290139 101.845)
(100.108 18.372 0.2023 100.108 1.51137e-05 100.108)
(100.093 18.4425 0.203498 100.093 1.02569e-06 100.093)
(98.4176 1.00598 0.00859933 98.4165 -0.000106211 98.4176)
(98.4023 1.14361 0.00977584 98.4023 2.09143e-05 98.4023)
(96.8044 -2.57231e-16 -0 96.8044 1.3244e-05 96.8044)
(96.7871 -0.00715926 6.20888e-05 96.7958 9.89781e-05 96.7871)
(95.2708 -13.6428 0.164921 95.2699 -6.97241e-05 95.2708)
(95.2567 -13.5802 0.163788 95.2567 1.93528e-05 95.2567)
(93.8065 -21.357 0.317053 93.8065 1.12581e-05 93.8065)
(93.7915 -21.2997 0.315983 93.7971 6.69095e-05 93.7915)
(92.3983 -27.6676 0.447579 92.3976 -4.52742e-05 92.3983)
(92.3857 -27.6178 0.446603 92.3857 1.6185e-05 92.3857)
(91.0278 -32.6724 0.247584 91.0278 9.13642e-06 91.0278)
(91.0152 -32.6339 0.247565 91.0185 4.58554e-05 91.0152)
(89.6777 -36.5001 -0.07472 89.6771 -3.10054e-05 89.6777)
(89.667 -36.4775 -0.0747176 89.667 1.22074e-05 89.667)
(88.33 -39.3018 -0.433412 88.33 6.58663e-06 88.33)
(88.3201 -39.2956 -0.43339 88.3217 3.35827e-05 88.3201)
(86.9702 -41.2297 -0.810772 86.9697 -2.44074e-05 86.9702)
(86.9618 -41.236 -0.810991 86.9618 -8.22843e-07 86.9618)
(85.5848 -42.4178 -0.83929 85.5848 4.71179e-06 85.5848)
(85.5776 -42.4323 -0.839634 85.578 2.46017e-05 85.5776)
(84.1644 -42.97 -0.856722 84.1639 -2.66365e-05 84.1644)
(84.1581 -42.9891 -0.857128 84.1581 -3.89727e-21 84.1581)
(82.7007 -42.9541 -0.863537 82.7007 -5.65899e-06 82.7007)
(82.6954 -42.9748 -0.863956 82.6956 2.63036e-05 82.6954)
(81.1892 -42.4011 -0.859532 81.1888 -3.12801e-05 81.1892)
(81.1847 -42.4214 -0.859935 81.1847 -8.75697e-07 81.1847)
(79.6272 -41.3126 -0.844003 79.6272 -8.57736e-06 79.6272)
(79.6233 -41.3314 -0.844372 79.6237 2.18061e-05 79.6233)
(78.0156 -39.6736 -0.816025 78.0153 -3.16669e-05 78.0156)
(78.0123 -39.6903 -0.816355 78.0123 -4.8573e-06 78.0123)
(76.3575 -37.4675 -0.774761 76.3575 -1.19449e-05 76.3575)
(76.3546 -37.4822 -0.775053 76.3549 1.06538e-05 76.3546)
(74.6597 -34.6923 -0.719837 74.6594 -3.17219e-05 74.6597)
(74.6572 -34.705 -0.720094 74.6572 -1.29597e-05 74.6572)
(72.9313 -31.3749 -0.651667 72.9313 -1.36926e-05 72.9313)
(72.9291 -31.386 -0.651894 72.9294 3.75315e-06 72.9291)
(71.1843 -27.5816 -0.571646 71.1841 -2.94726e-05 71.1843)
(71.1824 -27.5913 -0.571849 71.1824 -1.32971e-05 71.1824)
(69.4319 -23.4183 -0.48214 69.4319 -1.23882e-05 69.4319)
(69.4302 -23.4269 -0.482321 69.4304 3.00643e-06 69.4302)
(67.6878 -19.026 -0.386399 67.6876 -2.42331e-05 67.6878)
(67.6863 -19.0335 -0.386561 67.6863 -1.03628e-05 67.6863)
(65.9649 -14.5726 -0.288409 65.9649 -8.07226e-06 65.9649)
(65.9635 -14.5793 -0.288554 65.9637 5.5086e-06 65.9635)
(64.2743 -10.2379 -0.192409 64.2741 -1.71857e-05 64.2743)
(64.273 -10.2437 -0.192536 64.273 -5.20479e-06 64.273)
(62.6242 -6.19488 -0.102562 62.6242 -2.46602e-07 62.6242)
(62.623 -6.19986 -0.102672 62.6231 1.1893e-05 62.623)
(61.0199 -1.87233 -0.0226322 61.0197 -1.0461e-05 61.0199)
(61.0188 -1.87994 -0.0227243 61.0188 1.93769e-08 61.0188)
(59.4641 6.54884e-14 -3.83288e-20 59.4641 2.56962e-07 59.4641)
(59.4631 0.000851478 -1.04421e-05 59.4632 1.02788e-05 59.4631)
(57.9569 2.81383 -0.0442722 57.9568 -5.77375e-06 57.9569)
(57.956 2.81126 -0.0441988 57.956 3.48155e-06 57.956)
(56.4968 4.49997 -0.0959975 56.4968 4.18759e-06 56.4968)
(56.496 4.49819 -0.0959432 56.4961 1.29796e-05 56.496)
(55.0823 5.48755 -0.131292 55.0822 -3.66219e-06 55.0823)
(55.0815 5.48655 -0.131257 55.0815 4.54726e-06 55.0815)
(53.7116 5.80468 -0.149766 53.7116 4.30919e-06 53.7116)
(53.7108 5.80443 -0.149751 53.7109 1.18623e-05 53.7108)
(52.3838 5.50447 -0.151762 52.3837 -3.31425e-06 52.3838)
(52.3831 5.5049 -0.151765 52.3831 3.94773e-06 52.3831)
(51.0988 4.65826 -0.138249 51.0988 3.29977e-06 51.0988)
(51.0982 4.65932 -0.138269 51.0982 9.84928e-06 51.0982)
(49.8571 3.34852 -0.11066 49.857 -3.66247e-06 49.8571)
(49.8566 3.3501 -0.110696 49.8566 2.71674e-06 49.8566)
(48.6597 1.49158 -0.070745 48.6597 2.00917e-06 48.6597)
(48.6592 1.4959 -0.0707943 48.6592 7.72397e-06 48.6592)
(47.5074 -0.00098237 -0.0377601 47.5073 -4.19757e-06 47.5074)
(47.5069 -5.24741e-14 -0.0376942 47.5069 1.38567e-06 47.5069)
(46.4002 -2.45127 -0.101618 46.4002 3.90694e-07 46.4002)
(46.3998 -2.4489 -0.10155 46.3999 5.31709e-06 46.3998)
(45.3373 -4.68667 -0.168299 45.3373 -5.17502e-06 45.3373)
(45.3369 -4.68434 -0.168233 45.3369 -2.51985e-07 45.3369)
(44.3161 -6.90408 -0.234817 44.3161 -1.30985e-06 44.3161)
(44.3157 -6.90192 -0.234758 44.3158 3.03293e-06 44.3157)
(43.3325 -8.9974 -0.297921 43.3324 -6.92206e-06 43.3325)
(43.3322 -8.99554 -0.297871 43.3322 -2.53985e-06 43.3322)
(42.3811 -10.8595 -0.354203 42.3811 -3.93068e-06 42.3811)
(42.3808 -10.858 -0.354165 42.3809 -1.80681e-07 42.3808)
(41.4555 -12.3871 -0.400283 41.4555 -9.10041e-06 41.4555)
(41.4553 -12.3861 -0.40026 41.4553 -5.26363e-06 41.4553)
(40.549 -13.4873 -0.432989 40.549 -6.71017e-06 40.549)
(40.5488 -13.4868 -0.432981 40.5488 -3.4347e-06 40.5488)
(39.6557 -14.0837 -0.449643 39.6557 -1.14948e-05 39.6557)
(39.6555 -14.0837 -0.44965 39.6555 -8.10594e-06 39.6555)
(38.7712 -14.1252 -0.448347 38.7712 -9.56177e-06 38.7712)
(38.7711 -14.1257 -0.448368 38.7711 -6.66459e-06 38.7711)
(37.8935 -13.5928 -0.428249 37.8934 -1.41313e-05 37.8935)
(37.8934 -13.5937 -0.428282 37.8934 -1.11154e-05 37.8934)
(37.0233 -12.5032 -0.389676 37.0233 -1.2946e-05 37.0233)
(37.0232 -12.5043 -0.389719 37.0233 -1.04267e-05 37.0232)
(36.1639 -10.9102 -0.334263 36.1638 -1.79609e-05 36.1639)
(36.1639 -10.9116 -0.334313 36.1639 -1.52076e-05 36.1639)
(35.3206 -8.90235 -0.264839 35.3206 -1.80987e-05 35.3206)
(35.3206 -8.9039 -0.264893 35.3206 -1.60041e-05 35.3206)
(34.4996 -6.59575 -0.18524 34.4996 -2.43184e-05 34.4996)
(34.4997 -6.59738 -0.185297 34.4997 -2.17128e-05 34.4997)
(33.7071 -4.12451 -0.0999832 33.7071 -2.61294e-05 33.7071)
(33.7071 -4.12613 -0.100039 33.7071 -2.44651e-05 33.7071)
(32.9477 -0.785873 -0.0138264 32.9477 -3.36583e-05 32.9477)
(32.9477 -0.788905 -0.0138797 32.9477 -3.11518e-05 32.9477)
(32.2245 0.0014144 -2.52463e-05 32.2245 -3.65975e-05 32.2245)
(32.2245 6.00305e-14 -0 32.2246 -3.5222e-05 32.2245)
(31.5375 2.91895 -0.0687606 31.5375 -4.4278e-05 31.5375)
(31.5375 2.91768 -0.0687115 31.5375 -4.19495e-05 31.5375)
(30.8846 4.76398 -0.143638 30.8846 -4.66182e-05 30.8846)
(30.8846 4.76289 -0.143595 30.8847 -4.52457e-05 30.8846)
(30.2626 6.23565 -0.207613 30.2626 -5.18476e-05 30.2626)
(30.2627 6.23477 -0.207576 30.2627 -4.99598e-05 30.2627)
(29.6675 7.31146 -0.258617 29.6675 -5.12549e-05 29.6675)
(29.6675 7.3108 -0.258588 29.6676 -4.95747e-05 29.6675)
(29.0955 8.00344 -0.295873 29.0955 -5.09391e-05 29.0955)
(29.0955 8.00298 -0.295852 29.0955 -4.97879e-05 29.0955)
(28.5434 8.3527 -0.319843 28.5434 -4.51932e-05 28.5434)
(28.5434 8.35242 -0.319829 28.5434 -4.29047e-05 28.5434)
(28.0091 8.42167 -0.332041 28.0092 -3.77169e-05 28.0091)
(28.0092 8.42153 -0.332033 28.0092 -3.70117e-05 28.0092)
(27.4918 8.28569 -0.334767 27.4918 -2.66067e-05 27.4918)
(27.4918 8.28566 -0.334764 27.4919 -2.37497e-05 27.4918)
(26.9911 8.02411 -0.330829 26.9911 -1.28694e-05 26.9911)
(26.9912 8.02413 -0.330829 26.9912 -1.20933e-05 26.9912)
(26.5075 7.71093 -0.323172 26.5075 6.70309e-07 26.5075)
(26.5075 7.71098 -0.323175 26.5075 3.06481e-06 26.5075)
(26.0416 7.40804 -0.314518 26.0415 1.59262e-05 26.0416)
(26.0416 7.40808 -0.314521 26.0416 1.68232e-05 26.0416)
(25.5938 7.16137 -0.307135 25.5938 2.91771e-05 25.5938)
(25.5938 7.16137 -0.307136 25.5938 3.18277e-05 25.5938)
(25.1647 6.99926 -0.302682 25.1647 4.00578e-05 25.1647)
(25.1647 6.99921 -0.302682 25.1647 4.10833e-05 25.1647)
(24.7543 6.93251 -0.302138 24.7543 4.8704e-05 24.7543)
(24.7543 6.9324 -0.302134 24.7542 5.04708e-05 24.7543)
(24.3623 6.95627 -0.305774 24.3623 5.21103e-05 24.3623)
(24.3623 6.9561 -0.305767 24.3623 5.35151e-05 24.3623)
(23.9882 7.05333 -0.313237 23.9882 5.48973e-05 23.9882)
(23.9881 7.05312 -0.313228 23.9881 5.56909e-05 23.9881)
(23.631 7.198 -0.323675 23.631 5.08644e-05 23.631)
(23.631 7.19775 -0.323664 23.631 5.32072e-05 23.631)
(23.2897 7.36005 -0.335874 23.2897 4.89357e-05 23.2897)
(23.2897 7.35978 -0.335861 23.2897 4.91498e-05 23.2897)
(22.9631 7.5092 -0.348435 22.9631 4.03228e-05 22.9631)
(22.963 7.50893 -0.348422 22.963 4.32705e-05 22.963)
(22.65 7.61831 -0.35998 22.65 3.64642e-05 22.65)
(22.6499 7.61806 -0.359967 22.6499 3.65561e-05 22.6499)
(22.3494 7.6656 -0.369249 22.3494 2.66586e-05 22.3494)
(22.3493 7.66539 -0.369238 22.3493 2.98615e-05 22.3493)
(22.0605 7.63676 -0.375235 22.0605 2.34702e-05 22.0605)
(22.0604 7.6366 -0.375225 22.0605 1.85383e-05 22.0604)
(21.783 7.52573 -0.377285 21.7831 1.45764e-05 21.783)
(21.7829 7.52562 -0.377278 21.7829 4.7723e-06 21.7829)
(21.517 7.33415 -0.375127 21.517 1.31443e-05 21.517)
(21.5168 7.3341 -0.375123 21.5168 -3.88594e-07 21.5168)
(21.2627 7.07073 -0.368848 21.2627 6.02918e-06 21.2627)
(21.2625 7.07073 -0.368846 21.2625 -8.41623e-07 21.2625)
(21.0209 6.75026 -0.358897 21.0209 5.02848e-06 21.0209)
(21.0207 6.75031 -0.358898 21.0208 -2.09218e-08 21.0207)
(20.7927 6.39182 -0.34604 20.7927 -3.06474e-06 20.7927)
(20.7925 6.3919 -0.346044 20.7925 -8.26349e-07 20.7925)
(20.5792 6.01705 -0.331259 20.5792 -5.47308e-07 20.5792)
(20.579 6.01716 -0.331264 20.579 2.69096e-07 20.579)
(20.3816 5.64895 -0.315703 20.3816 -4.83418e-06 20.3816)
(20.3814 5.64906 -0.315709 20.3814 -8.02177e-07 20.3814)
(20.201 5.3107 -0.300632 20.201 -5.42864e-07 20.201)
(20.2007 5.31079 -0.300637 20.2007 4.82886e-07 20.2007)
(20.0383 5.02469 -0.287362 20.0383 -5.65902e-06 20.0383)
(20.038 5.02473 -0.287366 20.038 -7.44252e-07 20.038)
(19.8942 4.81178 -0.27721 19.8942 -8.17701e-07 19.8942)
(19.8939 4.81175 -0.277211 19.8939 6.38255e-07 19.8939)
(19.7694 4.69057 -0.271478 19.7694 -6.46093e-06 19.7694)
(19.769 4.69045 -0.271474 19.769 -5.86838e-07 19.769)
(19.6639 4.67695 -0.271363 19.6639 -8.31379e-07 19.6639)
(19.6634 4.67671 -0.271352 19.6634 7.92633e-07 19.6634)
(19.5776 4.78416 -0.277984 19.5776 -6.82121e-06 19.5776)
(19.5771 4.78377 -0.277965 19.5771 -5.57007e-07 19.5771)
(19.5101 5.02137 -0.292349 19.5101 -5.45096e-07 19.5101)
(19.5095 5.0208 -0.29232 19.5095 9.87375e-07 19.5095)
(19.4604 5.39251 -0.315189 19.4604 -6.78766e-06 19.4604)
(19.4597 5.39173 -0.315148 19.4597 -4.48427e-07 19.4597)
(19.4271 5.89574 -0.346948 19.4271 -5.41367e-07 19.4271)
(19.4264 5.89471 -0.346893 19.4264 1.08804e-06 19.4264)
(19.4083 6.52224 -0.387682 19.4082 -6.6105e-06 19.4083)
(19.4075 6.52093 -0.387609 19.4075 -3.43412e-07 19.4075)
(19.4012 7.25516 -0.436956 19.4012 -5.36059e-07 19.4012)
(19.4003 7.25348 -0.436861 19.4003 1.16374e-06 19.4003)
(19.4025 8.06901 -0.493739 19.4025 -6.32654e-06 19.4025)
(19.4016 8.06685 -0.493617 19.4016 -2.5799e-07 19.4016)
(19.408 8.92975 -0.556364 19.408 -5.26708e-07 19.408)
(19.407 8.92695 -0.556204 19.407 1.20313e-06 19.407)
(19.4129 9.79499 -0.622492 19.4129 -6.09012e-06 19.4129)
(19.4119 9.79123 -0.62228 19.4119 -2.07569e-07 19.4119)
(19.4119 10.6155 -0.689087 19.4119 -5.13276e-07 19.4119)
(19.4107 10.6102 -0.688795 19.4107 1.19703e-06 19.4107)
(19.3993 11.3372 -0.752568 19.3993 -5.91509e-06 19.3993)
(19.3981 11.3298 -0.75215 19.3981 -2.01987e-07 19.3981)
(19.3699 11.9045 -0.808885 19.3699 -4.94949e-07 19.3699)
(19.3687 11.8939 -0.808274 19.3687 1.14449e-06 19.3687)
(19.3193 12.2635 -0.853791 19.3192 -5.79287e-06 19.3192)
(19.3181 12.2494 -0.852919 19.3181 -2.4148e-07 19.3181)
(19.2441 12.3655 -0.655094 19.2441 -4.69332e-07 19.2441)
(19.2432 12.3502 -0.65505 19.2432 1.06093e-06 19.2432)
(19.1434 12.1701 -0.216768 19.1434 -5.71463e-06 19.1434)
(19.1427 12.1619 -0.216729 19.1427 -3.06735e-07 19.1427)
(19.0183 11.6536 0.220548 19.0183 -4.74289e-07 19.0183)
(19.018 11.6603 0.220583 19.018 1.03101e-06 19.018)
(18.8723 10.815 0.643938 18.8723 -5.80849e-06 18.8723)
(18.8723 10.8317 0.643967 18.8723 -2.26152e-07 18.8723)
(18.711 9.66584 0.683015 18.711 -5.95624e-07 18.711)
(18.7112 9.68217 0.68412 18.7112 1.17251e-06 18.7112)
(18.5418 8.22857 0.571961 18.5418 -5.99156e-06 18.5418)
(18.542 8.24102 0.572751 18.542 -6.33897e-08 18.542)
(18.3729 6.54364 0.440034 18.3729 -6.89982e-07 18.3729)
(18.3731 6.55231 0.440585 18.3731 1.3862e-06 18.3731)
(18.2127 4.66381 0.290977 18.2127 -6.21628e-06 18.2127)
(18.2129 4.66992 0.291385 18.2129 1.56965e-07 18.2129)
(18.0684 2.65159 0.129633 18.0684 -7.42408e-07 18.0684)
(18.0685 2.65625 0.129968 18.0685 1.66994e-06 18.0685)
(17.9451 -1.10561e-16 -6.32926e-22 17.945 -6.46851e-06 17.945)
(17.9451 0.00345642 0.000140481 17.9451 4.11981e-07 17.9451)
(17.8451 -0.949407 0.0391483 17.8451 -7.51931e-07 17.8451)
(17.845 -0.941788 0.0388342 17.845 1.98481e-06 17.845)
(17.7682 -3.49013 0.2111 17.7682 -6.70564e-06 17.7682)
(17.7681 -3.48578 0.210768 17.7681 6.56372e-07 17.7681)
(17.7103 -5.34745 0.37889 17.7103 -6.75954e-07 17.7103)
(17.7101 -5.34186 0.378488 17.7101 2.27228e-06 17.7101)
(17.6655 -7.00963 0.536956 17.6655 -6.85872e-06 17.6655)
(17.6652 -7.00163 0.536401 17.6652 8.27268e-07 17.6652)
(17.6261 -8.43069 0.680134 17.6261 -5.40714e-07 17.6261)
(17.6259 -8.41887 0.679298 17.6259 2.49074e-06 17.6259)
(17.5841 -9.57862 0.804141 17.5841 -6.99616e-06 17.5841)
(17.5839 -9.56286 0.802895 17.5839 8.926e-07 17.5839)
(17.5318 -10.4326 0.578445 17.5318 -7.59871e-07 17.5318)
(17.5318 -10.4179 0.578391 17.5318 2.63075e-06 17.5318)
(17.4628 -10.9834 0.0943287 17.4628 -7.03534e-06 17.4628)
(17.4631 -10.9829 0.0942622 17.4631 8.65114e-07 17.4631)
(17.3726 -11.2477 -0.421537 17.3726 -1.2374e-06 17.3726)
(17.3732 -11.2618 -0.421602 17.3732 2.84137e-06 17.3732)
(17.2583 -11.2537 -0.956424 17.2583 -7.35853e-06 17.2583)
(17.2591 -11.269 -0.956488 17.2591 1.02981e-06 17.2591)
(17.1191 -11.028 -1.03737 17.1191 -1.87496e-06 17.1191)
(17.12 -11.0393 -1.03823 17.12 3.22809e-06 17.12)
(16.9559 -10.6055 -1.0032 16.9559 -7.77727e-06 16.9559)
(16.9567 -10.6128 -1.00375 16.9567 1.21912e-06 16.9567)
(16.7712 -10.0243 -0.954039 16.7712 -2.50726e-06 16.7712)
(16.772 -10.0289 -0.954397 16.7721 3.68124e-06 16.772)
(16.5689 -9.32386 -0.893265 16.5689 -8.24569e-06 16.5689)
(16.5696 -9.32692 -0.893515 16.5696 1.4486e-06 16.5696)
(16.3531 -8.54228 -0.824022 16.3531 -3.12786e-06 16.3531)
(16.3538 -8.54444 -0.824208 16.3538 4.21204e-06 16.3538)
(16.1286 -7.71249 -0.749094 16.1286 -8.77463e-06 16.1286)
(16.1292 -7.7141 -0.749239 16.1292 1.71797e-06 16.1292)
(15.9001 -6.86273 -0.671039 15.9001 -3.70671e-06 15.9001)
(15.9006 -6.86398 -0.671154 15.9006 4.85269e-06 15.9006)
(15.6719 -6.01577 -0.591825 15.6719 -1.2073e-05 15.6719)
(15.6723 -6.01676 -0.591919 15.6723 1.99932e-06 15.6723)
(15.448 -5.18741 -0.512799 15.448 -1.14619e-05 15.448)
(15.4484 -5.18821 -0.512876 15.4484 5.58571e-06 15.4484)
(15.2319 -4.38722 -0.43478 15.2319 -1.97112e-05 15.2319)
(15.2322 -4.38788 -0.434845 15.2322 2.30837e-06 15.2322)
(15.0266 -3.61882 -0.357924 15.0266 -1.54554e-05 15.0266)
(15.0268 -3.61937 -0.357981 15.0269 6.39863e-06 15.0268)
(14.8344 -2.87993 -0.281789 14.8344 -2.23616e-05 14.8344)
(14.8347 -2.8804 -0.281838 14.8347 2.62028e-06 14.8347)
(14.6574 -2.16309 -0.205333 14.6574 -1.73607e-05 14.6574)
(14.6576 -2.16351 -0.205378 14.6576 7.30764e-06 14.6576)
(14.4971 -1.45651 -0.127023 14.4971 -2.4112e-05 14.4971)
(14.4973 -1.4569 -0.127066 14.4973 -3.31982e-06 14.4973)
(14.3545 -0.745206 -0.0449296 14.3545 -1.80317e-05 14.3545)
(14.3546 -0.745573 -0.044972 14.3547 -4.73831e-06 14.3546)
(14.2304 -0.00173535 -0.000102657 14.2304 -2.4606e-05 14.2304)
(14.2304 -0.0017573 -0.000103956 14.2304 -9.77489e-06 14.2304)
(14.1248 0.723038 -0.0433941 14.1248 -1.74153e-05 14.1248)
(14.1249 0.722298 -0.0433498 14.1249 -3.11237e-06 14.1249)
(14.0377 1.5705 -0.140057 14.0377 -2.40497e-05 14.0377)
(14.0377 1.57009 -0.14001 14.0377 -7.99944e-06 14.0377)
(13.9679 2.44177 -0.246168 13.9679 -1.58742e-05 13.9679)
(13.9679 2.44131 -0.246115 13.9679 -1.28228e-07 13.9679)
(13.914 3.36823 -0.362546 13.914 -2.32254e-05 13.914)
(13.9139 3.36772 -0.362486 13.9139 -5.79058e-06 13.9139)
(13.8733 4.34115 -0.489023 13.8733 -1.42356e-05 13.8733)
(13.8732 4.34057 -0.488954 13.8732 3.09453e-06 13.8732)
(13.8422 5.3423 -0.624212 13.8422 -2.30497e-05 13.8422)
(13.8421 5.34162 -0.624131 13.8421 -4.06146e-06 13.8421)
(13.8162 6.34347 -0.765336 13.8162 -1.35187e-05 13.8162)
(13.816 6.34268 -0.76524 13.816 5.53946e-06 13.816)
(13.7896 7.30747 -0.908108 13.7896 -2.4457e-05 13.7896)
(13.7894 7.30653 -0.907994 13.7894 -3.75338e-06 13.7894)
(13.7561 8.18977 -1.04692 13.7561 -1.42248e-05 13.7561)
(13.7558 8.18862 -1.04678 13.7559 6.6962e-06 13.7558)
(13.709 8.94135 -1.17494 13.709 -2.76396e-05 13.709)
(13.7087 8.93992 -1.17476 13.7087 -5.07827e-06 13.7087)
(13.6419 9.51277 -1.28466 13.6419 -1.6133e-05 13.6419)
(13.6415 9.51087 -1.28444 13.6415 6.76449e-06 13.6415)
(13.5491 9.85774 -1.36841 13.5491 -3.19916e-05 13.5491)
(13.5487 9.85503 -1.36811 13.5487 -7.45905e-06 13.5487)
(13.4268 9.93811 -1.41885 13.4268 -1.84512e-05 13.4268)
(13.4264 9.93386 -1.41839 13.4264 6.51147e-06 13.4264)
(13.2732 9.72788 -1.42989 13.2732 -3.63499e-05 13.2732)
(13.2727 9.72094 -1.42913 13.2727 -9.75721e-06 13.2727)
(13.0891 9.2162 -0.986297 13.0891 -1.9904e-05 13.0891)
(13.0886 9.20626 -0.986151 13.0887 7.20019e-06 13.0886)
(12.8784 8.4078 -0.333559 12.8784 -3.95275e-05 12.8784)
(12.8781 8.40025 -0.333356 12.8781 -1.07876e-05 12.8781)
(12.6476 7.32606 0.261311 12.6476 -1.95287e-05 12.6476)
(12.6474 7.33087 0.261541 12.6475 9.93914e-06 12.6474)
(12.404 6.02272 0.776172 12.404 -4.10848e-05 12.404)
(12.404 6.03557 0.776332 12.404 -9.83154e-06 12.404)
(12.1554 4.56014 0.593518 12.1554 -1.69148e-05 12.1554)
(12.1554 4.56986 0.594641 12.1555 1.50286e-05 12.1554)
(11.9095 3.00278 0.350279 11.9095 -4.14274e-05 11.9095)
(11.9095 3.0084 0.350923 11.9095 -7.78289e-06 11.9095)
(11.6724 1.28604 0.103019 11.6724 -1.27676e-05 11.6724)
(11.6724 1.29154 0.10346 11.6724 2.17004e-05 11.6724)
(11.4479 -0.00022398 1.8203e-05 11.4479 -4.16638e-05 11.4479)
(11.4479 -2.96965e-15 7.08626e-31 11.4479 -5.37482e-06 11.4479)
(11.2369 -1.47902 0.136444 11.2369 -8.44575e-06 11.2369)
(11.2368 -1.47649 0.136054 11.2369 2.88334e-05 11.2368)
(11.0381 -2.6663 0.355286 11.038 -4.30554e-05 11.0381)
(11.038 -2.66298 0.354838 11.038 -3.79347e-06 11.038)
(10.8483 -3.60464 0.542048 10.8483 -5.30282e-06 10.8483)
(10.8482 -3.59942 0.541379 10.8482 3.51262e-05 10.8482)
(10.6638 -4.25988 0.687723 10.6638 -4.66906e-05 10.6638)
(10.6637 -4.25237 0.68661 10.6637 -4.09799e-06 10.6637)
(10.4811 -4.61602 0.539661 10.4811 -4.28256e-06 10.4811)
(10.481 -4.60953 0.539442 10.481 4.05367e-05 10.481)
(10.2978 -4.67847 0.127312 10.2978 -5.24011e-05 10.2978)
(10.2978 -4.67961 0.12704 10.2978 -4.70456e-06 10.2978)
(10.1134 -4.47898 -0.287633 10.1134 -5.17028e-06 10.1134)
(10.1135 -4.48616 -0.28785 10.1135 4.56278e-05 10.1135)
(9.92843 -4.06409 -0.682897 9.92842 -5.97628e-05 9.92843)
(9.92855 -4.0705 -0.683046 9.92855 -5.61323e-06 9.92855)
(9.74445 -3.48757 -0.587728 9.74445 -6.34859e-06 9.74445)
(9.74456 -3.49173 -0.588309 9.7446 5.12126e-05 9.74456)
(9.56396 -2.8114 -0.462382 9.56395 -6.80861e-05 9.56396)
(9.56406 -2.81393 -0.462745 9.56406 -6.69856e-06 9.56406)
(9.38946 -2.09765 -0.331916 9.38946 -7.08013e-06 9.38946)
(9.38954 -2.09925 -0.332159 9.38957 5.81687e-05 9.38954)
(9.22311 -1.40369 -0.206725 9.2231 -7.68926e-05 9.22311)
(9.22318 -1.40477 -0.206896 9.22318 -7.18119e-06 9.22318)
(9.06637 -0.77868 -0.0958073 9.06637 -7.3795e-06 9.06637)
(9.06642 -0.779435 -0.0959302 9.06646 6.6826e-05 9.06642)
(8.92005 -0.0593225 -0.005901 8.92004 -8.68187e-05 8.92005)
(8.92009 -0.0601844 -0.00598674 8.92009 -7.36551e-06 8.92009)
(8.78441 0.000260002 -2.62393e-05 8.78441 -7.44658e-06 8.78441)
(8.78444 2.73439e-15 7.32323e-21 8.78448 7.72908e-05 8.78444)
(8.65935 0.378037 -0.0593161 8.65934 -9.83749e-05 8.65935)
(8.65938 0.377845 -0.0592619 8.65938 -7.51632e-06 8.65938)
(8.54462 0.489017 -0.0970133 8.54462 -7.67836e-06 8.54462)
(8.54463 0.488966 -0.096989 8.54467 8.94076e-05 8.54463)
(8.44001 0.474172 -0.107703 8.44 -0.000112184 8.44001)
(8.44002 0.474247 -0.107707 8.44002 -8.00468e-06 8.44003)
(8.34538 0.351781 -0.0934084 8.34538 -8.46057e-06 8.34538)
(8.34538 0.351959 -0.093437 8.34542 0.000103059 8.34538)
(8.26066 0.049849 -0.0576454 8.26065 -0.000128756 8.26066)
(8.26067 0.0504023 -0.0576939 8.26067 -8.8734e-06 8.26067)
(8.18578 -0.00435116 -0.0568676 8.18578 -9.41462e-06 8.18578)
(8.18577 -0.00376719 -0.0568037 8.18582 0.000119089 8.18577)
(8.12058 -0.408857 -0.125256 8.12057 -0.00014828 8.12058)
(8.12058 -0.408577 -0.125196 8.12058 -9.9475e-06 8.12058)
(8.06477 -0.711329 -0.195327 8.06477 -1.05252e-05 8.06477)
(8.06476 -0.711086 -0.195278 8.0648 0.000137841 8.06476)
(8.01795 -1.00373 -0.262953 8.01794 -0.000170866 8.01795)