/*--------------------------------*- C++ -*----------------------------------*\
| =========                 |                                                 |
| \\      /  F ield         | OpenFOAM: The Open Source CFD Toolbox           |
|  \\    /   O peration     | Version:  2012                                  |
|   \\  /    A nd           | Website:  www.openfoam.com                      |
|    \\/     M anipulation  |                                                 |
\*---------------------------------------------------------------------------*/
FoamFile
{
    version     2.0;
    format      ascii;
    class       volVectorField;
    location    "12000";
    object      U;
}
// * * * * * * * * * * * * * * * * * * * * * * * * * * * * * * * * * * * * * //

dimensions      [0 1 -1 0 0 0 0];


internalField   nonuniform List<vector> 
2560
(
(0.029733 -2.63714e-05 0.000529785)
(0.0296981 -1.18208e-05 5.48072e-08)
(0.0893761 -1.24114e-05 0.000756304)
(0.0892716 1.84857e-05 1.81967e-08)
(0.149685 -2.62447e-05 0.00052963)
(0.149513 2.90841e-05 6.12425e-09)
(0.210664 -3.54966e-05 0.000274074)
(0.210428 3.52124e-05 1.89198e-09)
(0.272322 -3.85948e-05 0.000144738)
(0.272026 3.85761e-05 4.44743e-10)
(0.334666 -4.05366e-05 8.81338e-05)
(0.334317 4.04818e-05 1.18199e-10)
(0.397667 -4.18452e-05 6.06503e-05)
(0.39727 4.1835e-05 1.26389e-10)
(0.461267 -4.28246e-05 4.54099e-05)
(0.460829 4.2739e-05 1.49964e-11)
(0.525405 -4.35803e-05 3.60153e-05)
(0.524931 4.35968e-05 8.90987e-11)
(0.590085 -4.42136e-05 2.97541e-05)
(0.589581 4.41115e-05 2.27439e-12)
(0.655384 -4.47344e-05 2.53325e-05)
(0.654857 4.47949e-05 7.94439e-11)
(0.721332 -4.52106e-05 2.20697e-05)
(0.720785 4.51e-05 -1.20829e-20)
(0.787961 -4.56287e-05 1.95779e-05)
(0.7874 4.57126e-05 8.13032e-11)
(0.855338 -4.60463e-05 1.7612e-05)
(0.854768 5.92971e-05 4.96913e-08)
(0.923458 -4.64658e-05 1.6056e-05)
(0.922882 1.97623e-05 -3.08355e-37)
(0.992232 -4.64891e-05 1.47525e-05)
(0.991655 0.000102326 1.20657e-07)
(1.06153 -4.75039e-05 1.37207e-05)
(1.06095 -3.96573e-05 5.92224e-10)
(1.1312 -4.68048e-05 1.2829e-05)
(1.13063 0.000137971 4.09198e-08)
(1.20127 -4.83097e-05 1.20816e-05)
(1.2007 -5.21413e-05 8.54112e-10)
(1.27194 -4.6961e-05 1.1432e-05)
(1.27139 0.000151616 3.97324e-08)
(1.34355 -4.9243e-05 1.08804e-05)
(1.34301 -6.45677e-05 6.13755e-10)
(1.41628 -4.70119e-05 1.03917e-05)
(1.41575 0.000165052 3.80107e-08)
(1.49018 -5.01873e-05 9.97335e-06)
(1.48966 -7.68815e-05 3.8033e-21)
(1.56522 -4.68494e-05 9.5711e-06)
(1.56471 0.00020498 1.47163e-07)
(1.64138 -5.13197e-05 9.27589e-06)
(1.64089 -0.000142569 1.51339e-21)
(1.71868 -4.65938e-05 8.95166e-06)
(1.7182 0.000277305 1.84464e-07)
(1.79712 -5.26878e-05 8.73778e-06)
(1.79665 -0.000221468 1.86594e-09)
(1.87666 -4.61057e-05 8.5068e-06)
(1.87622 0.000329128 7.66227e-08)
(1.95727 -5.42161e-05 8.32077e-06)
(1.95684 -0.000245814 3.78552e-09)
(2.03889 -4.53023e-05 8.13783e-06)
(2.03847 0.000354813 7.89024e-08)
(2.12156 -5.60007e-05 7.99435e-06)
(2.12115 -0.000271038 3.49431e-09)
(2.20546 -4.41603e-05 7.84792e-06)
(2.20506 0.000380885 7.48794e-08)
(2.29104 -5.81283e-05 7.73628e-06)
(2.29065 -0.000296094 1.58868e-09)
(2.37889 -4.25825e-05 7.6183e-06)
(2.37851 0.000406627 6.9401e-08)
(2.46971 -6.06997e-05 7.53211e-06)
(2.46934 -0.000320622 1.2072e-21)
(2.5641 -4.05152e-05 7.40137e-06)
(2.56374 0.000463686 2.23473e-07)
(2.66247 -6.38777e-05 7.37751e-06)
(2.66211 -0.000409116 2.74846e-21)
(2.76502 -3.78867e-05 7.15014e-06)
(2.76467 0.000652973 7.35573e-07)
(2.87173 -6.77307e-05 7.27659e-06)
(2.87138 -0.000700872 0)
(2.98245 -3.46189e-05 7.02635e-06)
(2.9821 0.000983274 9.62666e-07)
(3.09703 -7.22403e-05 7.23019e-06)
(3.09669 -0.00107326 -5.23717e-37)
(3.21557 -3.07122e-05 7.04832e-06)
(3.21522 0.00132063 8.0874e-07)
(3.33855 -7.73485e-05 7.23187e-06)
(3.3382 -0.00137806 0)
(3.46707 -2.6183e-05 7.1652e-06)
(3.46673 0.00155347 4.34682e-07)
(3.60281 -8.30286e-05 7.27079e-06)
(3.60246 -0.00153873 2.61086e-21)
(3.74777 -2.10447e-05 7.26133e-06)
(3.74742 0.00168463 2.7015e-07)
(3.90397 -8.93538e-05 7.3398e-06)
(3.90361 -0.00163874 3.71867e-21)
(4.07306 -1.52248e-05 7.3239e-06)
(4.0727 0.00180082 3.60015e-07)
(4.25616 -9.64261e-05 7.43908e-06)
(4.25579 -0.00176988 -2.04144e-37)
(4.45379 -8.63856e-06 6.98089e-06)
(4.45341 0.00225115 2.26132e-06)
(4.66602 -0.000103842 7.58799e-06)
(4.66565 -0.00254636 1.1205e-21)
(4.89234 -1.39934e-06 7.3597e-06)
(4.89197 0.00289467 1.54358e-06)
(5.13107 -0.000111187 7.81628e-06)
(5.13072 -0.00305732 3.73726e-08)
(5.37846 5.74286e-06 7.91374e-06)
(5.37814 0.00324457 7.43358e-07)
(5.62728 -0.000118441 8.23512e-06)
(5.627 -0.00324207 1.62732e-07)
(5.8654 1.14063e-05 8.45705e-06)
(5.86517 0.00346148 1.36526e-06)
(6.07498 -0.000126068 9.05464e-06)
(6.07482 -0.00349211 3.91181e-07)
(6.23279 1.4536e-05 9.47727e-06)
(6.23274 0.00375459 2.18361e-06)
(6.31231 -0.000133278 1.0426e-05)
(6.31238 -0.003835 6.26432e-07)
(6.28747 1.58558e-05 1.10366e-05)
(6.28768 0.00412727 2.65448e-06)
(6.13741 -0.000137304 1.21832e-05)
(6.1378 -0.00424427 6.74435e-07)
(5.85116 1.67966e-05 1.28259e-05)
(5.85175 0.00452766 2.24842e-06)
(5.43082 -0.000136311 1.38179e-05)
(5.43163 -0.00463393 4.26923e-07)
(4.89225 1.68637e-05 1.42938e-05)
(4.89328 0.00487151 1.07031e-06)
(4.26298 -0.000131686 1.4847e-05)
(4.26426 -0.00492112 8.30679e-21)
(3.57803 1.38086e-05 1.50607e-05)
(3.57956 0.00511173 4.81741e-08)
(2.87474 -0.000125995 1.49259e-05)
(2.87651 -0.00496674 1.16537e-06)
(2.18801 6.98036e-06 1.49757e-05)
(2.19 0.00510903 3.33922e-07)
(1.54679 -0.000120423 1.4626e-05)
(1.54894 -0.00494327 1.81492e-06)
(0.972396 -1.99791e-06 1.46396e-05)
(0.974627 0.00506394 4.22447e-07)
(0.478383 -0.00011487 1.42886e-05)
(0.480584 -0.00490357 1.88604e-06)
(0.0715774 -1.10239e-05 1.43442e-05)
(0.0736115 0.00502593 3.97568e-07)
(-0.246388 -0.000109392 9.23425e-07)
(-0.244672 -0.000181532 4.47253e-06)
(-0.477577 -1.79507e-05 7.64377e-07)
(-0.476263 0.000264773 4.52022e-07)
(-0.626443 -0.000103407 7.31631e-07)
(-0.625563 -0.000103086 1.04667e-06)
(-0.698949 -2.37148e-05 5.80961e-07)
(-0.698505 0.000196864 3.35769e-07)
(-0.702026 -9.80378e-05 5.50354e-07)
(-0.702004 -4.33691e-05 7.99193e-07)
(-0.643227 -2.86882e-05 4.16075e-07)
(-0.643605 0.000146239 2.46931e-07)
(-0.530449 -9.3387e-05 3.89914e-07)
(-0.531199 -1.7718e-06 5.62602e-07)
(-0.371641 -3.29925e-05 2.72427e-07)
(-0.372725 0.000112285 1.69085e-07)
(-0.174551 -8.93749e-05 2.52534e-07)
(-0.175914 2.45096e-05 3.58765e-07)
(0.0535255 -3.67505e-05 1.53022e-07)
(0.0519706 9.20461e-05 1.44802e-07)
(0.305988 -8.58444e-05 1.43788e-07)
(0.304359 3.86004e-05 2.00041e-07)
(0.577075 -3.99413e-05 6.47986e-08)
(0.575469 8.22588e-05 1.93901e-07)
(0.86183 -8.27345e-05 6.52291e-08)
(0.860315 4.41995e-05 2.11303e-07)
(1.15597 -4.26561e-05 2.89346e-11)
(1.15459 7.99179e-05 2.33825e-07)
(1.45566 -7.99955e-05 6.40437e-08)
(1.45443 4.36719e-05 2.24063e-07)
(1.75728 -4.50359e-05 7.88927e-08)
(1.75621 7.91235e-05 2.30178e-07)
(2.05718 -7.76214e-05 1.59453e-07)
(2.05627 4.60196e-05 2.36488e-07)
(2.35148 -4.71549e-05 2.01994e-07)
(2.3507 7.69965e-05 2.42977e-07)
(2.63596 -7.56237e-05 3.07239e-07)
(2.6353 4.80032e-05 3.0778e-07)
(2.90613 -4.90887e-05 3.7861e-07)
(2.90558 7.50472e-05 3.79058e-07)
(3.15732 -7.39744e-05 5.02291e-07)
(3.15687 4.96446e-05 5.02977e-07)
(3.38498 -5.08587e-05 5.87383e-07)
(3.3846 7.32549e-05 5.87925e-07)
(3.58496 -7.25722e-05 7.08687e-07)
(3.58466 5.10425e-05 7.09506e-07)
(3.75393 -5.24281e-05 7.8233e-07)
(3.75369 7.16586e-05 7.82969e-07)
(3.88959 -7.13357e-05 8.74761e-07)
(3.88942 5.22767e-05 8.75699e-07)
(3.99106 -5.37113e-05 9.13434e-07)
(3.99094 7.0345e-05 9.14165e-07)
(4.05889 -7.01756e-05 9.6092e-07)
(4.05881 5.3435e-05 9.61958e-07)
(4.09512 -5.47303e-05 9.56274e-07)
(4.09508 6.92933e-05 9.57086e-07)
(4.10312 -6.90594e-05 9.60578e-07)
(4.10312 5.45489e-05 9.61695e-07)
(4.0874 -5.55642e-05 9.22045e-07)
(4.08743 6.84246e-05 9.22925e-07)
(4.05327 -6.8024e-05 8.99105e-07)
(4.05331 5.55808e-05 9.00285e-07)
(4.00651 -5.62791e-05 8.46643e-07)
(4.00657 6.76735e-05 8.47583e-07)
(3.95312 -6.7152e-05 8.16267e-07)
(3.95318 5.64474e-05 8.17502e-07)
(3.89896 -5.69305e-05 7.66664e-07)
(3.89902 6.69845e-05 7.67666e-07)
(3.84958 -6.64401e-05 7.42109e-07)
(3.84963 5.71516e-05 7.43403e-07)
(3.81003 -5.75414e-05 7.03514e-07)
(3.81006 6.63349e-05 7.04592e-07)
(3.78473 -6.58421e-05 6.89513e-07)
(3.78475 5.77393e-05 6.90885e-07)
(3.77739 -5.80953e-05 6.63872e-07)
(3.77738 6.57409e-05 6.65051e-07)
(3.79089 -6.53088e-05 6.61892e-07)
(3.79087 5.82595e-05 6.63373e-07)
(3.82724 -5.85564e-05 6.52334e-07)
(3.82719 6.52384e-05 6.53656e-07)
(3.88741 -6.48422e-05 6.67095e-07)
(3.88734 5.87101e-05 6.68732e-07)
(3.97133 -5.89354e-05 6.79622e-07)
(3.97123 6.48166e-05 6.8114e-07)
(4.07771 -6.44028e-05 7.20764e-07)
(4.07759 5.91301e-05 7.22614e-07)
(4.20406 -5.93193e-05 7.63822e-07)
(4.20393 6.43883e-05 7.65596e-07)
(4.34668 -6.40456e-05 8.34943e-07)
(4.34655 5.94646e-05 8.37066e-07)
(4.50078 -5.96341e-05 9.11446e-07)
(4.50065 6.40275e-05 9.13535e-07)
(4.66062 -6.37556e-05 1.01548e-06)
(4.66049 5.97283e-05 1.01793e-06)
(4.81981 -5.98957e-05 1.12747e-06)
(4.81969 6.37182e-05 1.12992e-06)
(4.97171 -6.34643e-05 1.26978e-06)
(4.97161 5.99896e-05 1.27259e-06)
(5.10979 -6.00797e-05 1.42794e-06)
(5.1097 6.34843e-05 1.43077e-06)
(5.22813 -6.31376e-05 1.62732e-06)
(5.22805 6.02825e-05 1.63051e-06)
(5.32179 -6.01852e-05 1.85952e-06)
(5.32173 6.33269e-05 1.86273e-06)
(5.38722 -6.28038e-05 2.15182e-06)
(5.38719 6.05786e-05 2.15535e-06)
(5.42249 -6.02608e-05 2.49927e-06)
(5.42248 6.31971e-05 2.50283e-06)
(5.42736 -6.25662e-05 2.92407e-06)
(5.42736 6.07743e-05 2.9279e-06)
(5.40326 -6.03972e-05 3.41795e-06)
(5.40328 6.30041e-05 3.42179e-06)
(5.35306 -6.25256e-05 3.98943e-06)
(5.3531 6.07688e-05 3.9935e-06)
(5.28075 -6.07217e-05 4.61557e-06)
(5.2808 6.26205e-05 4.61963e-06)
(5.19101 -6.26964e-05 5.28694e-06)
(5.19107 6.05477e-05 5.29119e-06)
(5.08875 -6.12525e-05 5.96096e-06)
(5.08881 6.20279e-05 5.9652e-06)
(4.97867 -6.30665e-05 6.6072e-06)
(4.97874 6.01229e-05 6.6116e-06)
(4.8649 -6.1837e-05 7.17138e-06)
(4.86497 6.13787e-05 7.17577e-06)
(4.75074 -6.33975e-05 7.61798e-06)
(4.75081 5.97329e-05 7.62251e-06)
(4.63847 -6.2261e-05 7.89731e-06)
(4.63854 6.08865e-05 7.90183e-06)
(4.52938 -6.34689e-05 7.98777e-06)
(4.52945 5.95981e-05 7.99244e-06)
(4.42378 -6.22924e-05 7.86683e-06)
(4.42385 6.07832e-05 7.87149e-06)
(4.32127 -6.31225e-05 7.54575e-06)
(4.32133 5.98769e-05 7.55054e-06)
(4.22085 -6.19074e-05 7.03862e-06)
(4.22092 6.10925e-05 7.04341e-06)
(4.12126 -6.24632e-05 6.38849e-06)
(4.12133 6.04641e-05 6.3934e-06)
(4.02115 -6.13154e-05 5.63495e-06)
(4.02122 6.16046e-05 5.63985e-06)
(3.91933 -6.17549e-05 4.83471e-06)
(3.91941 6.10955e-05 4.83972e-06)
(3.81491 -6.08063e-05 4.02979e-06)
(3.81498 6.20297e-05 4.03478e-06)
(3.70738 -6.12426e-05 3.26839e-06)
(3.70746 6.1526e-05 3.27345e-06)
(3.59674 -6.05532e-05 2.57669e-06)
(3.59682 6.21948e-05 2.58172e-06)
(3.48338 -6.10534e-05 1.9784e-06)
(3.48347 6.16283e-05 1.98348e-06)
(3.36812 -6.05629e-05 1.47794e-06)
(3.3682 6.20927e-05 1.48298e-06)
(3.25202 -6.10948e-05 1.07788e-06)
(3.25211 6.14948e-05 1.08294e-06)
(3.13636 -6.0731e-05 7.66313e-07)
(3.13645 6.18275e-05 9.25183e-07)
(3.02245 -6.12336e-05 5.33995e-07)
(3.02254 6.12585e-05 9.38584e-07)
(2.91153 -6.09213e-05 3.63773e-07)
(2.91161 6.15353e-05 9.51133e-07)
(2.80468 -6.13596e-05 2.44441e-07)
(2.80477 6.10295e-05 9.64514e-07)
(2.70272 -6.10616e-05 2.08808e-07)
(2.70281 6.1288e-05 9.76982e-07)
(2.60617 -6.14234e-05 2.256e-07)
(2.60625 6.0857e-05 9.90189e-07)
(2.51517 -6.11408e-05 2.25752e-07)
(2.51524 6.10964e-05 1.00245e-06)
(2.4295 -6.14292e-05 2.44756e-07)
(2.42958 6.07366e-05 1.01529e-06)
(2.3486 -6.11676e-05 2.42629e-07)
(2.34867 6.09518e-05 1.02723e-06)
(2.27152 -6.13927e-05 2.64352e-07)
(2.27159 6.06525e-05 1.0395e-06)
(2.197 -6.11763e-05 2.68266e-07)
(2.19707 6.08196e-05 1.05107e-06)
(2.1235 -6.13517e-05 2.84143e-07)
(2.12357 6.05669e-05 1.06264e-06)
(2.04923 -6.11055e-05 2.94493e-07)
(2.04931 6.07615e-05 1.07388e-06)
(1.97223 -6.13331e-05 2.96359e-07)
(1.97231 6.04528e-05 1.08475e-06)
(1.89041 -6.10719e-05 3.11828e-07)
(1.8905 6.06603e-05 1.09578e-06)
(1.80167 -6.12709e-05 3.09424e-07)
(1.80177 6.03757e-05 1.10617e-06)
(1.704 -6.10363e-05 3.29098e-07)
(1.70412 6.05553e-05 1.11724e-06)
(1.59559 -6.12085e-05 3.27387e-07)
(1.59573 6.02921e-05 1.12758e-06)
(1.47496 -6.09979e-05 3.46162e-07)
(1.47513 6.04471e-05 1.13915e-06)
(1.34109 -6.11457e-05 3.45684e-07)
(1.34129 6.02017e-05 1.1501e-06)
(1.19357 -6.09568e-05 3.62882e-07)
(1.19381 6.03355e-05 1.16285e-06)
(1.03266 -6.10821e-05 3.63432e-07)
(1.03297 6.01041e-05 1.17528e-06)
(0.859456 -6.0913e-05 3.79142e-07)
(0.859854 6.02197e-05 1.19004e-06)
(0.675856 -6.10171e-05 3.80528e-07)
(0.676386 5.99992e-05 1.20492e-06)
(0.484614 -6.08659e-05 3.94817e-07)
(0.485334 6.00997e-05 1.22254e-06)
(0.289283 -6.09501e-05 3.96847e-07)
(0.290245 5.98861e-05 1.24074e-06)
(0.0941266 -6.08146e-05 4.09717e-07)
(0.0953172 5.9975e-05 1.26181e-06)
(-0.0959947 -6.08844e-05 4.12131e-07)
(-0.0947788 5.9769e-05 1.28373e-06)
(-0.275958 -6.07535e-05 4.24856e-07)
(-0.274986 5.98389e-05 1.30678e-06)
(-0.440714 -6.08099e-05 4.30248e-07)
(-0.44003 5.96388e-05 1.32942e-06)
(-0.585302 -6.06921e-05 4.43987e-07)
(-0.584852 5.97011e-05 1.35268e-06)
(-0.705177 -6.07314e-05 4.52131e-07)
(-0.704891 5.94986e-05 1.37528e-06)
(-0.796483 -6.0626e-05 4.6632e-07)
(-0.796312 5.95563e-05 1.39791e-06)
(-0.856248 -6.06493e-05 4.76688e-07)
(-0.85616 5.93475e-05 1.4196e-06)
(-0.882592 -6.05553e-05 4.90522e-07)
(-0.882573 5.94048e-05 1.441e-06)
(-0.874816 -6.0563e-05 5.01674e-07)
(-0.874859 5.91859e-05 1.46147e-06)
(-0.833397 -6.04826e-05 5.15174e-07)
(-0.833505 5.92439e-05 1.4818e-06)
(-0.759996 -6.04723e-05 5.24787e-07)
(-0.760181 5.90137e-05 1.50175e-06)
(-0.657314 -6.04065e-05 5.39188e-07)
(-0.657605 5.90749e-05 1.5222e-06)
(-0.528934 -6.03785e-05 5.44846e-07)
(-0.529382 5.88286e-05 1.5433e-06)
(-0.379082 -6.03271e-05 5.61987e-07)
(-0.379761 5.88969e-05 1.56574e-06)
(-0.212364 -6.02811e-05 5.6769e-07)
(-0.213331 5.863e-05 1.59004e-06)
(-0.033646 -6.02452e-05 5.8319e-07)
(-0.0348124 5.87075e-05 1.61633e-06)
(0.152197 -6.01879e-05 5.88589e-07)
(0.151214 5.84268e-05 1.64549e-06)
(0.340858 -6.01416e-05 6.05974e-07)
(0.340155 5.8489e-05 1.67305e-06)
(0.528353 -6.00961e-05 6.15756e-07)
(0.527873 5.8212e-05 1.70347e-06)
(0.711179 -6.00329e-05 6.36439e-07)
(0.710845 5.82605e-05 1.73172e-06)
(0.886392 -5.99993e-05 6.51061e-07)
(0.88615 5.79816e-05 1.76318e-06)
(1.05163 -5.99192e-05 6.75261e-07)
(1.05144 5.80173e-05 1.79162e-06)
(1.20512 -5.98926e-05 6.94882e-07)
(1.20498 5.77397e-05 1.82348e-06)
(1.34567 -5.97956e-05 7.22542e-07)
(1.34555 5.77638e-05 1.85129e-06)
(1.47252 -5.97821e-05 7.47095e-07)
(1.47243 5.74799e-05 1.88271e-06)
(1.58535 -5.96521e-05 7.77941e-07)
(1.58528 5.75099e-05 1.90893e-06)
(1.68417 -5.96595e-05 9.02e-07)
(1.68411 5.72107e-05 1.93904e-06)
(1.76918 -5.94971e-05 1.09652e-06)
(1.76913 5.72477e-05 1.96271e-06)
(1.84072 -5.95202e-05 1.31227e-06)
(1.84068 5.69371e-05 1.99078e-06)
(1.89915 -5.93274e-05 1.54869e-06)
(1.89913 5.69813e-05 2.01108e-06)
(1.94479 -5.93697e-05 1.79933e-06)
(1.94477 5.66545e-05 2.03661e-06)
(1.97775 -5.91514e-05 2.06114e-06)
(1.97774 5.67032e-05 2.05296e-06)
(1.99796 -5.92079e-05 2.32611e-06)
(1.99795 5.63644e-05 2.30633e-06)
(2.00503 -5.89902e-05 2.58821e-06)
(2.00503 5.63939e-05 2.56734e-06)
(1.99834 -5.90416e-05 2.84244e-06)
(1.99835 5.60615e-05 2.82124e-06)
(1.977 -5.88465e-05 3.08142e-06)
(1.97701 5.60521e-05 3.05946e-06)
(1.93994 -5.88936e-05 3.30417e-06)
(1.93996 5.57246e-05 3.28216e-06)
(1.88604 -5.87117e-05 3.50791e-06)
(1.88608 5.56878e-05 3.48555e-06)
(1.81429 -5.87662e-05 3.6943e-06)
(1.81433 5.53524e-05 3.67227e-06)
(1.72389 -5.85898e-05 3.86648e-06)
(1.72394 5.52977e-05 3.84463e-06)
(1.61453 -5.86512e-05 4.03052e-06)
(1.61459 5.49532e-05 4.00949e-06)
(1.48646 -5.84594e-05 4.19428e-06)
(1.48653 5.49029e-05 4.17406e-06)
(1.34068 -5.85401e-05 4.36319e-06)
(1.34078 5.45343e-05 4.34434e-06)
(1.17907 -5.83061e-05 4.54778e-06)
(1.17919 5.45153e-05 4.53042e-06)
(1.00437 -5.84179e-05 4.7489e-06)
(1.00452 5.41071e-05 4.73345e-06)
(0.820218 -5.81345e-05 4.97533e-06)
(0.820401 5.41262e-05 4.96202e-06)
(0.631053 -5.82648e-05 5.22392e-06)
(0.631295 5.36856e-05 5.21298e-06)
(0.441973 -5.7951e-05 5.49543e-06)
(0.442312 5.37225e-05 5.48716e-06)
(0.258533 -5.80835e-05 5.78356e-06)
(0.259034 5.32587e-05 5.77787e-06)
(0.0864832 -5.77633e-05 6.08085e-06)
(0.0872005 5.32874e-05 6.0781e-06)
(-0.0684461 -5.78964e-05 6.37897e-06)
(-0.0676559 5.28097e-05 6.37866e-06)
(-0.200985 -5.75513e-05 6.66909e-06)
(-0.20046 5.28146e-05 6.66679e-06)
(-0.307 -5.77301e-05 6.93795e-06)
(-0.306719 5.22688e-05 6.93265e-06)
(-0.383324 -5.73247e-05 7.185e-06)
(-0.383188 5.2328e-05 7.17852e-06)
(-0.428158 -5.75906e-05 7.39407e-06)
(-0.428104 5.16496e-05 7.38533e-06)
(-0.441278 -5.7096e-05 7.57659e-06)
(-0.44128 5.17961e-05 7.56789e-06)
(-0.424104 -5.74487e-05 7.72048e-06)
(-0.424155 5.09815e-05 7.71055e-06)
(-0.379684 -5.68903e-05 7.84177e-06)
(-0.379791 5.11932e-05 7.83329e-06)
(-0.312397 -5.72813e-05 7.9419e-06)
(-0.312587 5.02863e-05 7.93328e-06)
(-0.227659 -5.6673e-05 8.03453e-06)
(-0.227985 5.05513e-05 8.02865e-06)
(-0.131542 -5.70922e-05 8.12261e-06)
(-0.13205 4.9556e-05 8.11744e-06)
(-0.0303875 -5.6439e-05 8.21756e-06)
(-0.0309903 4.98693e-05 8.21604e-06)
(0.0697203 -5.68845e-05 8.32027e-06)
(0.0692626 4.88e-05 8.31987e-06)
(0.163566 -5.61512e-05 8.44164e-06)
(0.163274 4.91417e-05 8.43795e-06)
(0.246859 -5.66734e-05 8.57021e-06)
(0.24668 4.79822e-05 8.56469e-06)
(0.316545 -5.58233e-05 8.72045e-06)
(0.316434 4.83952e-05 8.71189e-06)
(0.370923 -5.6451e-05 8.87041e-06)
(0.370855 4.711e-05 8.86057e-06)
(0.409624 -5.54871e-05 9.0351e-06)
(0.409583 4.75918e-05 9.02286e-06)
(0.433507 -5.6226e-05 9.19402e-06)
(0.433486 4.61768e-05 9.18126e-06)
(0.444467 -5.51284e-05 9.36629e-06)
(0.444461 4.67484e-05 9.35193e-06)
(0.445135 -5.60075e-05 9.52709e-06)
(0.445138 4.51755e-05 9.51294e-06)
(0.438576 -5.4757e-05 9.70285e-06)
(0.438585 4.58574e-05 9.68773e-06)
(0.427986 -5.57859e-05 9.86769e-06)
(0.427998 4.41174e-05 9.85326e-06)
(0.416389 -5.43841e-05 1.00513e-05)
(0.4164 4.49086e-05 1.00362e-05)
(0.406475 -5.55517e-05 1.02309e-05)
(0.406483 4.30131e-05 1.02166e-05)
(0.400449 -5.39828e-05 1.04355e-05)
(0.400452 4.39305e-05 1.04205e-05)
(0.399884 -5.53274e-05 1.06335e-05)
(0.39988 4.18416e-05 1.0619e-05)
(0.405734 -5.35614e-05 1.0862e-05)
(0.405724 4.29163e-05 1.08465e-05)
(0.418406 -5.50953e-05 1.10839e-05)
(0.41839 4.06231e-05 1.10684e-05)
(0.437824 -5.31167e-05 1.13364e-05)
(0.437803 4.18728e-05 1.13193e-05)
(0.463494 -5.48722e-05 1.15734e-05)
(0.46347 3.93452e-05 1.15559e-05)
(0.4946 -5.26608e-05 1.18392e-05)
(0.494574 4.07928e-05 1.18196e-05)
(0.530082 -5.46657e-05 1.20827e-05)
(0.530056 3.80064e-05 1.20622e-05)
(0.568783 -5.21759e-05 1.23575e-05)
(0.568757 3.97012e-05 1.23345e-05)
(0.609415 -5.44935e-05 1.25975e-05)
(0.609391 3.65968e-05 1.25732e-05)
(0.650652 -5.16807e-05 1.28721e-05)
(0.65063 3.85874e-05 1.2845e-05)
(0.691169 -5.4329e-05 1.31069e-05)
(0.69115 3.51524e-05 1.30785e-05)
(0.72962 -5.12096e-05 1.33727e-05)
(0.729603 3.7427e-05 1.33415e-05)
(0.764815 -5.41566e-05 1.36009e-05)
(0.764801 3.3699e-05 1.35686e-05)
(0.795694 -5.07501e-05 1.38536e-05)
(0.795683 3.62423e-05 1.38186e-05)
(0.821362 -5.40248e-05 1.40584e-05)
(0.821353 3.21989e-05 1.40227e-05)
(0.841247 -5.02882e-05 1.42916e-05)
(0.841241 3.50574e-05 1.42535e-05)
(0.85516 -5.39171e-05 1.44671e-05)
(0.855156 3.0679e-05 1.4429e-05)
(0.86325 -4.98515e-05 1.46639e-05)
(0.863248 3.38544e-05 1.46238e-05)
(0.865987 -5.38518e-05 1.47936e-05)
(0.865987 2.91303e-05 1.47542e-05)
(0.864132 -4.94385e-05 1.49465e-05)
(0.864133 3.26424e-05 1.49054e-05)
(0.858669 -5.38233e-05 1.50288e-05)
(0.858671 2.75662e-05 1.4989e-05)
(0.850656 -4.90546e-05 1.51372e-05)
(0.850659 3.1422e-05 1.50959e-05)
(0.841046 -5.38521e-05 1.51732e-05)
(0.841049 2.5972e-05 1.51337e-05)
(0.830642 -4.86911e-05 1.52514e-05)
(0.830646 3.02063e-05 1.52101e-05)
(0.819973 -5.39263e-05 1.52612e-05)
(0.819976 2.43645e-05 1.52224e-05)
(0.809205 -4.83713e-05 1.53279e-05)
(0.809208 2.89759e-05 1.52869e-05)
(0.798272 -5.40257e-05 1.53408e-05)
(0.798276 2.27683e-05 1.53027e-05)
(0.786869 -4.80842e-05 1.54224e-05)
(0.786872 2.77448e-05 1.53815e-05)
(0.774504 -5.41762e-05 1.54523e-05)
(0.774508 2.11614e-05 1.5415e-05)
(0.760744 -4.7812e-05 1.55656e-05)
(0.760748 2.65338e-05 1.5525e-05)
(0.745257 -5.43726e-05 1.56172e-05)
(0.745262 1.95533e-05 1.5581e-05)
(0.727908 -4.75776e-05 1.57495e-05)
(0.727914 2.53221e-05 1.57093e-05)
(0.708862 -5.46068e-05 1.58038e-05)
(0.708868 1.79552e-05 1.57693e-05)
(0.688561 -4.7394e-05 1.59235e-05)
(0.688567 2.40982e-05 1.58842e-05)
(0.66774 -5.48865e-05 1.59413e-05)
(0.667745 1.63615e-05 1.59087e-05)
(0.647313 -4.72728e-05 1.60058e-05)
(0.647318 2.28505e-05 1.59673e-05)
(0.628379 -5.52154e-05 1.59466e-05)
(0.628383 1.47701e-05 1.59162e-05)
(0.612071 -4.72144e-05 1.59214e-05)
(0.612075 2.15783e-05 1.58835e-05)
(0.59936 -5.56131e-05 1.57537e-05)
(0.599362 1.31628e-05 1.57251e-05)
(0.591097 -4.72174e-05 1.56261e-05)
(0.591098 2.02836e-05 1.5588e-05)
(0.587947 -5.60729e-05 1.5353e-05)
(0.587947 1.155e-05 1.53255e-05)
(0.590237 -4.72813e-05 1.51379e-05)
(0.590235 1.89694e-05 1.50984e-05)
(0.597954 -5.65915e-05 1.47808e-05)
(0.597951 9.94159e-06 1.47534e-05)
(0.610821 -4.74295e-05 1.45034e-05)
(0.610817 1.76183e-05 1.44609e-05)
(0.628306 -5.71582e-05 1.41025e-05)
(0.628301 8.36052e-06 1.40743e-05)
(0.649645 -4.76595e-05 1.38075e-05)
(0.649639 1.62439e-05 1.37604e-05)
(0.673919 -5.77849e-05 1.33988e-05)
(0.673913 6.81315e-06 1.33689e-05)
(0.700127 -4.79966e-05 1.31175e-05)
(0.700122 1.48369e-05 1.30643e-05)
(0.727202 -5.84735e-05 1.27346e-05)
(0.727196 5.32266e-06 1.27026e-05)
(0.754141 -4.84572e-05 1.24969e-05)
(0.754137 1.34023e-05 1.24364e-05)
(0.780093 -5.92396e-05 1.21614e-05)
(0.780089 3.90523e-06 1.21276e-05)
(0.804317 -4.90666e-05 1.19837e-05)
(0.804313 1.19405e-05 1.19147e-05)
(0.826307 -6.00987e-05 1.17068e-05)
(0.826304 2.58303e-06 1.16721e-05)
(0.845916 -4.9841e-05 1.15976e-05)
(0.845913 1.04653e-05 1.1519e-05)
(0.863275 -6.10649e-05 1.13725e-05)
(0.863273 1.38528e-06 1.13381e-05)
(0.878864 -5.08077e-05 1.13082e-05)
(0.878861 8.98255e-06 1.12189e-05)
(0.893544 -6.21598e-05 1.10882e-05)
(0.893542 3.39079e-07 1.10556e-05)
(0.908577 -5.20017e-05 1.10033e-05)
(0.908574 7.49487e-06 1.09013e-05)
(0.92571 -6.33987e-05 1.15646e-05)
(0.925707 -5.15176e-07 1.06705e-05)
(0.947313 -5.34753e-05 1.04805e-05)
(0.94731 5.99393e-06 1.03625e-05)
(0.976717 -6.48105e-05 1.24402e-05)
(0.976712 -1.13895e-06 9.93622e-06)
(1.01847 -5.52929e-05 9.46608e-06)
(1.01846 4.47291e-06 9.32601e-06)
(1.07914 -4.8965e-05 8.59284e-06)
(1.07913 -1.52259e-06 8.56822e-06)
(1.16876 -3.95177e-05 7.68245e-06)
(1.16875 3.1206e-06 7.56453e-06)
(1.30281 -3.21873e-05 6.39789e-06)
(1.3028 -1.86177e-06 6.37364e-06)
(1.50313 -2.26496e-05 5.03655e-06)
(1.50313 1.96546e-06 4.94506e-06)
(1.79979 -1.42532e-05 3.38192e-06)
(1.79979 -2.21239e-06 3.36149e-06)
(2.33089 -4.55185e-06 1.62952e-06)
(2.33089 8.10087e-07 1.5831e-06)
(0.029698 -1.1805e-05 -5.47756e-08)
(0.029733 -2.63663e-05 -0.000528205)
(0.0892713 1.85448e-05 -1.82085e-08)
(0.089376 -1.24385e-05 -0.000754046)
(0.149512 2.91761e-05 -6.15003e-09)
(0.149685 -2.62808e-05 -0.000528048)
(0.210427 3.53279e-05 -1.89908e-09)
(0.210664 -3.55288e-05 -0.000273256)
(0.272025 3.87028e-05 -4.45622e-10)
(0.272321 -3.86627e-05 -0.000144306)
(0.334316 4.06146e-05 -1.18397e-10)
(0.334665 -4.05774e-05 -8.78707e-05)
(0.397269 4.19722e-05 -1.26866e-10)
(0.397666 -4.19015e-05 -6.04692e-05)
(0.460827 4.28793e-05 -1.53253e-11)
(0.461266 -4.28737e-05 -4.52743e-05)
(0.52493 4.37398e-05 -8.97461e-11)
(0.525404 -4.36393e-05 -3.59077e-05)
(0.58958 4.42563e-05 -2.5753e-12)
(0.590084 -4.42725e-05 -2.96652e-05)
(0.654855 4.49419e-05 -7.97643e-11)
(0.655384 -4.48035e-05 -2.52569e-05)
(0.720783 4.5248e-05 2.51663e-22)
(0.721331 -4.5294e-05 -2.20038e-05)
(0.787398 4.58625e-05 -8.11979e-11)
(0.78796 -4.56638e-05 -1.95196e-05)
(0.854766 5.94481e-05 -4.96926e-08)
(0.855337 -4.59791e-05 -1.75596e-05)
(0.92288 1.9914e-05 -5.76497e-19)
(0.923457 -4.6493e-05 -1.60083e-05)
(0.991653 0.00010248 -1.20654e-07)
(0.992231 -4.65203e-05 -1.47085e-05)
(1.06095 -3.95028e-05 -5.92335e-10)
(1.06153 -4.7551e-05 -1.36799e-05)
(1.13063 0.000138126 -4.09227e-08)
(1.1312 -4.68423e-05 -1.27908e-05)
(1.2007 -5.19857e-05 -8.54212e-10)
(1.20126 -4.83556e-05 -1.20456e-05)
(1.27139 0.000151773 -3.97327e-08)
(1.27194 -4.70004e-05 -1.1398e-05)
(1.343 -6.44105e-05 -6.13786e-10)
(1.34355 -4.92847e-05 -1.08481e-05)
(1.41575 0.000165211 -3.8011e-08)
(1.41628 -4.70498e-05 -1.03608e-05)
(1.48966 -7.67227e-05 6.04944e-19)
(1.49018 -5.0226e-05 -9.94376e-06)
(1.56471 0.00020514 -1.47163e-07)
(1.56522 -4.68861e-05 -9.54263e-06)
(1.64089 -0.000142409 -1.51339e-21)
(1.64138 -5.13569e-05 -9.2484e-06)
(1.7182 0.000277467 -1.84465e-07)
(1.71868 -4.66303e-05 -8.92505e-06)
(1.79665 -0.000221306 -1.86594e-09)
(1.79711 -5.27249e-05 -8.71195e-06)
(1.87621 0.000329292 -7.66228e-08)
(1.87666 -4.61426e-05 -8.48165e-06)
(1.95684 -0.000245652 -3.78555e-09)
(1.95727 -5.42537e-05 -8.29624e-06)
(2.03847 0.000354978 -7.89027e-08)
(2.03889 -4.53399e-05 -8.11386e-06)
(2.12114 -0.000270874 -3.49429e-09)
(2.12155 -5.60389e-05 -7.97087e-06)
(2.20506 0.000381052 -7.48798e-08)
(2.20546 -4.41986e-05 -7.82489e-06)
(2.29065 -0.000295929 -1.58871e-09)
(2.29103 -5.81672e-05 -7.71365e-06)
(2.37851 0.000406795 -6.94012e-08)
(2.37889 -4.26215e-05 -7.59602e-06)
(2.46934 -0.000320455 -4.85129e-19)
(2.46971 -6.07391e-05 -7.51016e-06)
(2.56373 0.000463856 -2.23473e-07)
(2.5641 -4.05547e-05 -7.3797e-06)
(2.66211 -0.000408949 -3.92638e-21)
(2.66247 -6.39175e-05 -7.35609e-06)
(2.76467 0.000653144 -7.35573e-07)
(2.76502 -3.79267e-05 -7.12893e-06)
(2.87138 -0.000700703 -3.50549e-19)
(2.87173 -6.7771e-05 -7.25558e-06)
(2.9821 0.000983447 -9.62666e-07)
(2.98244 -3.46592e-05 -7.00551e-06)
(3.09669 -0.00107309 -2.27663e-21)
(3.09703 -7.22809e-05 -7.20949e-06)
(3.21522 0.00132081 -8.08741e-07)
(3.21556 -3.07529e-05 -7.02774e-06)
(3.3382 -0.00137789 -2.99924e-18)
(3.33855 -7.73894e-05 -7.21138e-06)
(3.46673 0.00155364 -4.34683e-07)
(3.46707 -2.62239e-05 -7.14479e-06)
(3.60246 -0.00153856 2.61086e-21)
(3.60281 -8.30698e-05 -7.25044e-06)
(3.74742 0.00168481 -2.70151e-07)
(3.74777 -2.10859e-05 -7.24102e-06)
(3.90361 -0.00163857 1.08802e-34)
(3.90397 -8.93954e-05 -7.31952e-06)
(4.0727 0.001801 -3.60017e-07)
(4.07306 -1.52664e-05 -7.30362e-06)
(4.25579 -0.0017697 -4.46461e-21)
(4.25616 -9.64679e-05 -7.41879e-06)
(4.45341 0.00225133 -2.26132e-06)
(4.45379 -8.68041e-06 -6.96057e-06)
(4.66565 -0.00254618 -4.48201e-21)
(4.66602 -0.000103884 -7.56762e-06)
(4.89197 0.00289486 -1.54358e-06)
(4.89234 -1.4415e-06 -7.33926e-06)
(5.13072 -0.00305715 -3.73728e-08)
(5.13107 -0.00011123 -7.79576e-06)
(5.37814 0.00324475 -7.43359e-07)
(5.37846 5.70039e-06 -7.89313e-06)
(5.627 -0.00324189 -1.62732e-07)
(5.62728 -0.000118484 -8.21439e-06)
(5.86517 0.00346167 -1.36526e-06)
(5.86541 1.13635e-05 -8.43619e-06)
(6.07483 -0.00349193 -3.91182e-07)
(6.07498 -0.000126111 -9.03364e-06)
(6.23274 0.00375478 -2.18361e-06)
(6.23279 1.44929e-05 -9.45612e-06)
(6.31238 -0.00383481 -6.26433e-07)
(6.31231 -0.000133321 -1.04047e-05)
(6.28769 0.00412746 -2.65448e-06)
(6.28747 1.58123e-05 -1.10151e-05)
(6.1378 -0.00424409 -6.74436e-07)
(6.13741 -0.000137348 -1.21616e-05)
(5.85176 0.00452786 -2.24843e-06)
(5.85117 1.67528e-05 -1.28041e-05)
(5.43163 -0.00463375 -4.26924e-07)
(5.43083 -0.000136356 -1.37958e-05)
(4.89329 0.00487171 -1.07031e-06)
(4.89225 1.68195e-05 -1.42714e-05)
(4.26427 -0.00492093 -2.73383e-18)
(4.26299 -0.00013173 -1.48244e-05)
(3.57957 0.00511193 -4.81735e-08)
(3.57803 1.37639e-05 -1.50377e-05)
(2.87652 -0.00496655 -1.16537e-06)
(2.87474 -0.00012604 -1.49025e-05)
(2.19 0.00510923 -3.33922e-07)
(2.18802 6.93518e-06 -1.49518e-05)
(1.54895 -0.00494308 -1.81492e-06)
(1.5468 -0.000120469 -1.46015e-05)
(0.974635 0.00506415 -4.22447e-07)
(0.9724 -2.0436e-06 -1.46145e-05)
(0.480592 -0.00490338 -1.88604e-06)
(0.478386 -0.000114917 -1.42629e-05)
(0.0736186 0.00502613 -3.97568e-07)
(0.0715802 -1.10701e-05 -1.43178e-05)
(-0.244666 -0.000181327 -4.49968e-06)
(-0.246386 -0.000109439 -9.23422e-07)
(-0.476258 0.000264973 -4.52022e-07)
(-0.477575 -1.79975e-05 -7.64374e-07)
(-0.62556 -0.000102878 -1.04667e-06)
(-0.626441 -0.000103454 -7.31628e-07)
(-0.698503 0.000197068 -3.35768e-07)
(-0.698947 -2.37623e-05 -5.80957e-07)
(-0.702003 -4.31572e-05 -7.99194e-07)
(-0.702025 -9.8086e-05 -5.50351e-07)
(-0.643605 0.000146446 -2.46931e-07)
(-0.643226 -2.87365e-05 -4.16071e-07)
(-0.5312 -1.55618e-06 -5.62602e-07)
(-0.530449 -9.3436e-05 -3.89911e-07)
(-0.372728 0.000112496 -1.69085e-07)
(-0.371641 -3.30415e-05 -2.72423e-07)
(-0.175917 2.47292e-05 -3.58765e-07)
(-0.174552 -8.94247e-05 -2.52531e-07)
(0.0519666 9.22608e-05 -1.03507e-07)
(0.0535247 -3.68004e-05 -1.53018e-07)
(0.304354 3.88245e-05 -1.9517e-07)
(0.305987 -8.58951e-05 -1.43785e-07)
(0.575464 8.24778e-05 -5.32887e-08)
(0.577074 -3.99922e-05 -6.47942e-08)
(0.86031 4.44283e-05 -7.73809e-08)
(0.861828 -8.27861e-05 -6.52264e-08)
(1.15458 8.01415e-05 -5.76746e-08)
(1.15596 -4.27078e-05 -2.56325e-11)
(1.45442 4.39058e-05 -6.42352e-08)
(1.45565 -8.00483e-05 -6.40461e-08)
(1.75621 7.93527e-05 -7.91725e-08)
(1.75728 -4.50887e-05 -7.88968e-08)
(2.05626 4.6258e-05 -1.59832e-07)
(2.05718 -7.76755e-05 -1.59456e-07)
(2.35069 7.72324e-05 -2.0237e-07)
(2.35148 -4.72086e-05 -2.01998e-07)
(2.6353 4.82466e-05 -3.07776e-07)
(2.63596 -7.56793e-05 -3.07241e-07)
(2.90557 7.52902e-05 -3.79064e-07)
(2.90613 -4.91435e-05 -3.78614e-07)
(3.15686 4.98934e-05 -5.02972e-07)
(3.15732 -7.40316e-05 -5.02293e-07)
(3.3846 7.35057e-05 -5.87933e-07)
(3.38497 -5.09147e-05 -5.87388e-07)
(3.58466 5.12974e-05 -7.09502e-07)
(3.58496 -7.26312e-05 -7.08689e-07)
(3.75369 7.19179e-05 -7.82977e-07)
(3.75392 -5.24854e-05 -7.82334e-07)
(3.88942 5.25382e-05 -8.75694e-07)