/*--------------------------------*- C++ -*----------------------------------*\
| =========                 |                                                 |
| \\      /  F ield         | OpenFOAM: The Open Source CFD Toolbox           |
|  \\    /   O peration     | Version:  2012                                  |
|   \\  /    A nd           | Website:  www.openfoam.com                      |
|    \\/     M anipulation  |                                                 |
\*---------------------------------------------------------------------------*/
FoamFile
{
    version     2.0;
    format      ascii;
    class       volTensorField;
    location    "9000";
    object      grad(U);
}
// * * * * * * * * * * * * * * * * * * * * * * * * * * * * * * * * * * * * * //

dimensions      [0 0 -1 0 0 0 0];


internalField   nonuniform List<tensor> 
40
(
(0 0 1.76893e-28 52.8247 8.70401e-14 0 4.82857 5.13006e-15 0)
(0 0 -2.80772e-30 52.8247 7.86232e-14 6.91399e-15 4.82857 4.1682e-15 -5.95877e-16)
(3.34027e-15 1.01219e-29 -1.99773e-30 14.1011 -5.24395e-30 -2.29174e-14 6.11742 0 4.72905e-15)
(1.6425e-14 3.29952e-29 1.99773e-30 14.1011 6.61964e-15 8.16972e-16 6.11742 2.87178e-15 6.30393e-15)
(-2.10599e-15 -9.83737e-31 -2.55994e-31 1.93716 0 0 2.77793 6.39381e-15 1.26734e-14)
(0 1.12309e-30 0 1.93716 -5.77974e-15 -1.24201e-16 2.77793 8.48257e-15 9.03783e-15)
(3.19892e-15 4.33982e-30 1.77576e-31 0.319874 -1.87386e-16 1.02439e-15 2.76744 8.12932e-16 -1.1017e-15)
(9.20082e-15 1.54143e-44 1.4013e-45 0.319874 1.42769e-29 1.40504e-30 2.76744 -1.57772e-30 1.08453e-46)
(1.17083e-15 -2.59576e-30 5.59644e-44 6.52256e-16 -1.07005e-16 1.25979e-29 7.10465e-15 -1.46799e-15 3.9443e-31)
(-1.57772e-30 -1.87457e-29 4.49235e-31 -5.25907e-29 -4.92426e-17 -1.09765e-17 -7.75181e-19 -6.75551e-16 5.47859e-17)
(0 -3.50965e-31 1.0882e-30 52.8247 2.24908e-14 -7.93219e-30 -4.82857 -5.13006e-15 -1.96033e-15)
(0 0 -7.0193e-31 52.8247 1.74053e-14 8.56579e-15 -4.82857 -4.1682e-15 5.95877e-16)
(8.88874e-16 -8.87878e-31 -1.77576e-30 14.1011 4.95242e-15 4.14141e-14 -6.11742 -1.50493e-14 -4.72905e-15)
(1.6234e-14 0 0 14.1011 6.34429e-15 2.63779e-14 -6.11742 -1.42359e-14 -6.30393e-15)
(5.05794e-15 1.12309e-30 3.611e-30 1.93716 2.12953e-15 0 -2.77793 -6.39381e-15 -5.7876e-30)
(0 0 0 1.93716 2.51771e-15 4.71365e-15 -2.77793 -8.48257e-15 -9.03783e-15)
(-2.3002e-15 -1.39639e-30 8.75812e-46 0.319874 -5.31356e-16 7.88861e-31 -2.76744 -2.30517e-15 -1.93428e-29)
(0 2.06546e-31 1.11007e-31 0.319874 -4.60603e-17 -9.91416e-16 -2.76744 -1.99822e-16 -1.08791e-15)
(3.41081e-16 -4.82298e-30 2.24617e-31 -1.38778e-17 0 -7.01321e-17 -3.55271e-15 0 2.84236e-15)
(8.88178e-15 -1.88958e-29 9.23729e-62 6.52256e-16 -4.43564e-17 0 -1.06581e-14 6.08518e-16 1.67088e-46)
(2.87862e-15 3.16213e-32 2.3513e-33 -1.34492e-08 2.10388e-16 1.78411e-17 1.84508e-07 -2.07829e-15 -2.03243e-16)
(1.15052e-14 0 0 -1.34492e-08 2.42588e-16 -4.47549e-45 1.84508e-07 -2.08651e-15 -3.95986e-16)
(2.3002e-15 0 -2.66364e-31 -0.319874 2.47736e-16 -2.00017e-16 2.76744 -7.98749e-16 -1.11244e-16)
(9.20082e-15 0 2.66364e-31 -0.319874 2.6795e-16 -4.39814e-16 2.76744 -6.50174e-16 1.61622e-16)
(-4.21198e-15 7.01929e-32 -3.75512e-31 -1.93716 -1.93237e-16 3.08958e-18 2.77793 2.95319e-17 5.54867e-18)
(0 0 3.729e-31 -1.93716 0 -1.20279e-15 2.77793 4.93038e-32 -2.80768e-16)
(-2.43612e-15 -1.10985e-31 0 -14.1011 5.42226e-16 0 6.11742 -4.9199e-16 2.46519e-32)
(-1.8083e-15 -1.52304e-43 -1.99335e-43 -14.1011 -1.71432e-29 -2.24474e-29 6.11742 0 9.86076e-32)
(0 -4.00355e-44 -1.75482e-31 -52.8247 -2.25398e-30 1.00019e-15 4.82857 -2.0833e-47 -4.26751e-17)
(0 4.5927e-32 1.75482e-31 -52.8247 2.16653e-15 8.81702e-15 4.82857 -1.03698e-16 -4.5999e-16)
(0 0 0 -1.34494e-08 1.62688e-16 7.4039e-17 -1.84508e-07 2.07829e-15 2.03243e-16)
(-1.55515e-14 0 0 -1.34492e-08 1.76206e-16 0 -1.84508e-07 2.08651e-15 5.04299e-32)
(0 -1.77576e-31 0 -0.319874 1.84093e-16 2.93163e-16 -2.76744 7.98749e-16 1.11244e-16)
(9.20082e-15 0 0 -0.319874 2.17664e-16 3.46626e-16 -2.76744 6.50174e-16 -1.61622e-16)
(0 8.77412e-32 1.75482e-32 -1.93716 -9.42914e-17 1.70908e-16 -2.77793 -2.95319e-17 -1.25601e-16)
(0 -8.77412e-32 -1.75482e-32 -1.93716 -1.1917e-16 4.2572e-16 -2.77793 -2.82082e-16 2.80768e-16)
(-1.99932e-15 -1.13199e-44 1.10985e-31 -14.1011 1.97215e-31 4.86478e-16 -6.11742 2.04093e-29 -2.07798e-16)
(-1.99932e-15 0 -1.66477e-31 -14.1011 4.50042e-16 5.92213e-16 -6.11742 6.43385e-16 8.42452e-16)
(0 -3.21373e-33 0 -52.8247 3.93102e-16 -1.25534e-15 -4.82857 -5.39289e-17 4.26751e-17)
(-7.90302e-16 2.19353e-32 2.55346e-31 -52.8247 1.23551e-15 0 -4.82857 1.03698e-16 4.5999e-16)
)
;

boundaryField
{
    walls
    {
        type            extrapolatedCalculated;
        value           nonuniform List<tensor> 8((0 0 1.76893e-28 70.3933 1.11856e-13 1.54669e-13 4.82857 5.13006e-15 0) (0 -3.50965e-31 1.0882e-30 70.3933 3.77216e-14 -9.75119e-14 -4.82857 -5.13006e-15 -1.96033e-15) (0 0 -2.80772e-30 70.3933 9.63181e-14 1.06496e-28 4.82857 4.1682e-15 -5.95877e-16) (0 0 -7.0193e-31 70.3933 2.52141e-14 -1.7374e-14 -4.82857 -4.1682e-15 5.95877e-16) (0 -4.00355e-44 -1.75482e-31 -70.3933 -2.16777e-15 4.5489e-15 4.82857 -2.0833e-47 -4.26751e-17) (0 -3.21373e-33 0 -70.3933 -1.77467e-15 -3.30462e-15 -4.82857 -5.39289e-17 4.26751e-17) (0 4.5927e-32 1.75482e-31 -70.3933 1.99239e-15 2.2412e-14 4.82857 -1.03698e-16 -4.5999e-16) (-7.90302e-16 2.19353e-32 2.55346e-31 -70.3933 1.03114e-15 -9.00009e-15 -4.82857 1.03698e-16 4.5999e-16));
    }
    inlet
    {
        type            cyclic;
    }
    outlet
    {
        type            cyclic;
    }
    sides
    {
        type            empty;
    }
}


// ************************************************************************* //
