/*--------------------------------*- C++ -*----------------------------------*\
| =========                 |                                                 |
| \\      /  F ield         | OpenFOAM: The Open Source CFD Toolbox           |
|  \\    /   O peration     | Version:  2012                                  |
|   \\  /    A nd           | Website:  www.openfoam.com                      |
|    \\/     M anipulation  |                                                 |
\*---------------------------------------------------------------------------*/
FoamFile
{
    version     2.0;
    format      ascii;
    class       volVectorField;
    location    "9000";
    object      U;
}
// * * * * * * * * * * * * * * * * * * * * * * * * * * * * * * * * * * * * * //

dimensions      [0 1 -1 0 0 0 0];


internalField   nonuniform List<vector> 
40
(
(0.241428 3.83632e-16 5.30471e-16)
(0.241428 3.30343e-16 3.63917e-31)
(0.744724 1.27191e-15 -1.58561e-17)
(0.744724 1.20012e-15 1.974e-16)
(0.89766 2.86973e-16 -3.57332e-16)
(0.89766 4.85201e-16 -3.53072e-16)
(0.967108 6.25147e-16 1.28875e-31)
(0.967108 6.45471e-16 1.11435e-16)
(1.03629 -1.71427e-15 -2.05112e-16)
(1.03629 -1.71887e-15 -1.04023e-16)
(0.241428 1.29374e-16 -3.34437e-16)
(0.241428 8.64771e-17 -5.95877e-17)
(0.744724 2.33013e-16 4.88761e-16)
(0.744724 2.23471e-16 4.32993e-16)
(0.89766 3.52408e-16 1.62467e-15)
(0.89766 3.63056e-16 1.25686e-15)
(0.967108 5.82846e-16 -1.1017e-16)
(0.967108 6.40475e-16 -2.64365e-18)
(1.03629 -1.75097e-15 -7.91233e-17)
(1.03629 -1.73576e-15 1.09502e-16)
(1.03629 -1.05826e-16 2.02187e-16)
(1.03629 -1.0546e-16 2.08306e-16)
(0.967108 -3.36694e-17 2.01977e-17)
(0.967108 -2.22599e-17 5.39798e-17)
(0.89766 1.42433e-17 2.06411e-17)
(0.89766 2.79316e-17 -2.27883e-17)
(0.744724 -1.83545e-17 2.07798e-17)
(0.744724 -4.02472e-17 -1.07106e-16)
(0.241428 7.43482e-18 -1.56014e-17)
(0.241428 -6.83332e-18 -7.68667e-17)
(1.03629 -1.02003e-16 -2.22511e-16)
(1.03629 -1.03191e-16 -2.47904e-16)
(0.967108 -4.62055e-17 -3.13221e-17)
(0.967108 -4.27576e-17 -3.78176e-17)
(0.89766 -1.12901e-17 -8.081e-18)
(0.89766 2.76562e-19 -5.28846e-18)
(0.744724 -3.08445e-17 2.27911e-30)
(0.744724 -2.40914e-17 2.28613e-17)
(0.241428 6.0866e-18 1.13339e-17)
(0.241428 -3.5365e-18 3.08677e-17)
)
;

boundaryField
{
    walls
    {
        type            fixedValue;
        value           uniform (0 0 0);
    }
    inlet
    {
        type            cyclic;
    }
    outlet
    {
        type            cyclic;
    }
    sides
    {
        type            empty;
    }
}


// ************************************************************************* //
