/*--------------------------------*- C++ -*----------------------------------*\
| =========                 |                                                 |
| \\      /  F ield         | OpenFOAM: The Open Source CFD Toolbox           |
|  \\    /   O peration     | Version:  2012                                  |
|   \\  /    A nd           | Website:  www.openfoam.com                      |
|    \\/     M anipulation  |                                                 |
\*---------------------------------------------------------------------------*/
FoamFile
{
    version     2.0;
    format      ascii;
    class       volTensorField;
    location    "9000";
    object      grad(U);
}
// * * * * * * * * * * * * * * * * * * * * * * * * * * * * * * * * * * * * * //

dimensions      [0 0 -1 0 0 0 0];


internalField   nonuniform List<tensor> 
5120
(
(0 -1.79291e-24 -5.35147e-27 37.265 -2.84418e-11 -5.37703e-13 0.0270292 -1.03145e-14 -1.4629e-16)
(0 -4.26248e-28 -2.79339e-27 37.265 -9.5175e-16 -8.16857e-15 0.0270292 -3.77831e-19 -2.96208e-18)
(-1.81166e-17 1.12104e-44 4.28284e-31 37.2607 9.69355e-27 -1.55155e-13 0.0812785 1.35971e-44 -2.26694e-16)
(1.81166e-17 -2.47154e-29 -2.57452e-31 37.2607 -3.68554e-15 -1.15694e-14 0.0812785 -2.84256e-18 -1.95335e-17)
(3.23815e-17 -1.51865e-29 -4.44282e-27 37.2538 1.05254e-11 -2.01011e-14 0.110033 -3.98862e-14 -2.95818e-17)
(0 8.17931e-30 2.55603e-31 37.2538 -4.32207e-15 -3.6595e-16 0.110033 -6.21178e-18 -1.98048e-17)
(-3.57147e-17 2.43617e-29 5.07536e-31 37.244 3.8612e-12 -1.61553e-14 0.110795 -2.20078e-14 -6.63379e-17)
(0 -1.62411e-29 -3.80652e-31 37.244 -4.45547e-15 -3.55049e-16 0.110795 -9.79101e-18 -2.00698e-17)
(5.41616e-17 -7.0302e-29 -8.4566e-31 37.2313 1.02199e-13 -2.32472e-14 0.111554 -8.09469e-16 -7.25181e-17)
(7.48136e-17 5.64358e-29 7.55837e-31 37.2313 -4.50715e-15 -3.43533e-16 0.111554 -1.34491e-17 -2.03285e-17)
(-2.63392e-17 -1.36475e-27 4.68523e-31 37.2157 -2.48141e-14 -2.26462e-14 0.11231 -3.73157e-17 -6.36727e-17)
(7.01533e-17 -2.40131e-29 -2.50136e-31 37.2157 -4.51445e-15 -3.31313e-16 0.11231 -1.71448e-17 -2.058e-17)
(-3.40279e-17 1.96182e-44 5.91989e-31 37.1972 3.91193e-27 -2.09613e-14 0.113062 0 -6.33253e-17)
(0 -1.58938e-29 -4.9668e-31 37.1972 -4.47537e-15 -3.18784e-16 0.113062 -2.08391e-17 -2.08236e-17)
(-4.17693e-17 3.74719e-29 9.59765e-31 37.1758 1.86755e-14 -2.12195e-14 0.11381 -7.32464e-17 -6.61789e-17)
(-1.67077e-16 -3.15593e-29 -8.62949e-31 37.1758 -4.46664e-15 -3.06586e-16 0.11381 -2.45633e-17 -2.10596e-17)
(-4.95632e-17 5.91597e-30 9.85466e-32 37.1517 8.93414e-15 -2.1837e-14 0.114554 -4.0605e-17 -6.80538e-17)
(0 7.83316e-30 2.44786e-31 37.1517 -4.52055e-15 -2.94098e-16 0.114554 -2.83124e-17 -2.12884e-17)
(-1.83225e-16 4.29464e-29 1.05145e-30 37.1247 4.50559e-15 -2.21849e-14 0.115294 -1.42156e-17 -6.93011e-17)
(-2.29637e-16 -3.11077e-29 -8.506e-31 37.1247 -4.5269e-15 -2.80689e-16 0.115294 -3.21378e-17 -2.15089e-17)
(0 0 -2.41283e-31 37.095 5.15527e-15 -2.24128e-14 0.116031 -1.36774e-17 -7.04682e-17)
(5.22457e-16 7.72107e-30 4.82567e-31 37.095 -4.57957e-15 -2.66646e-16 0.116031 -3.59382e-17 -2.17202e-17)
(7.32567e-17 -1.35838e-29 -1.04306e-31 37.0625 6.35356e-15 -2.26267e-14 0.116764 -1.8488e-17 -7.16556e-17)
(-2.93027e-16 1.53313e-29 2.39551e-31 37.0625 -4.75343e-15 -2.52761e-16 0.116764 -3.99743e-17 -2.19208e-17)
(1.62515e-16 1.09972e-29 2.63066e-31 37.0273 6.95822e-15 -2.2841e-14 0.117492 -2.14297e-17 -7.28518e-17)
(3.25031e-16 -2.28317e-29 -4.75661e-31 37.0273 -4.74741e-15 -2.38536e-16 0.117492 -4.41812e-17 -2.21119e-17)
(0 0 -1.18061e-31 36.9895 7.26503e-15 -2.30537e-14 0.118217 -2.25956e-17 -7.40565e-17)
(3.57239e-16 7.55593e-30 3.54184e-31 36.9895 -4.70462e-15 -2.23154e-16 0.118217 -4.81836e-17 -2.22933e-17)
(-1.66529e-16 2.40908e-29 5.92895e-31 36.9489 7.50267e-15 -2.32633e-14 0.118937 -2.37029e-17 -7.52597e-17)
(0 -1.50033e-29 -3.51641e-31 36.9489 -4.75285e-15 -2.07461e-16 0.118937 -5.22792e-17 -2.24646e-17)
(-3.67613e-16 2.82586e-29 5.7797e-31 36.9057 7.59144e-15 -2.3472e-14 0.119653 -2.44545e-17 -7.64856e-17)
(4.22265e-16 0 0 36.9057 -4.65666e-15 -1.91217e-16 0.119653 -5.64359e-17 -2.26242e-17)
(1.1377e-16 -5.91456e-30 -2.30149e-31 36.8599 7.57091e-15 -2.36837e-14 0.120364 -2.4623e-17 -7.77357e-17)
(9.10161e-16 0 1.15536e-31 36.8599 -4.60162e-15 -1.74729e-16 0.120364 -6.04028e-17 -2.27698e-17)
(1.29148e-16 -1.46824e-29 -3.4412e-31 36.8115 7.59971e-15 -2.38974e-14 0.121071 -2.46753e-17 -7.9003e-17)
(-1.29148e-16 1.46824e-29 4.58826e-31 36.8115 -4.73557e-15 -1.57939e-16 0.121071 -6.45206e-17 -2.29039e-17)
(-2.56441e-16 2.9154e-29 9.11063e-31 36.7606 7.69654e-15 -2.41098e-14 0.121774 -2.517e-17 -8.02721e-17)
(0 -1.4577e-29 -2.27766e-31 36.7606 -4.79567e-15 -1.40851e-16 0.121774 -6.89537e-17 -2.30256e-17)
(-4.04661e-16 4.8006e-29 1.37308e-30 36.7071 7.74802e-15 -2.43226e-14 0.122472 -2.56755e-17 -8.15714e-17)
(1.273e-16 -3.61808e-29 -1.13065e-30 36.7071 -4.8523e-15 -1.24044e-16 0.122472 -7.33199e-17 -2.31328e-17)
(-1.47082e-16 2.02803e-29 5.72502e-31 36.6511 7.81141e-15 -2.45388e-14 0.123165 -2.58793e-17 -8.28916e-17)
(0 -7.1842e-30 -2.24506e-31 36.6511 -4.91905e-15 -1.06516e-16 0.123165 -7.77914e-17 -2.32258e-17)
(5.62023e-16 -2.60876e-29 -9.2028e-31 36.5926 7.81601e-15 -2.47578e-14 0.123854 -2.64747e-17 -8.42394e-17)
(6.22132e-16 1.42652e-29 6.68682e-31 36.5926 -4.80717e-15 -8.73505e-17 0.123854 -8.23436e-17 -2.33051e-17)
(0 0 0 36.5317 7.73521e-15 -2.49766e-14 0.124537 -2.62861e-17 -8.5588e-17)
(0 7.08139e-30 2.21294e-31 36.5317 -4.84991e-15 -6.73011e-17 0.124537 -8.67703e-17 -2.33684e-17)
(2.47365e-16 0 2.19704e-31 36.4684 7.84127e-15 -2.51966e-14 0.125216 -2.63077e-17 -8.69744e-17)
(-6.90318e-16 0 -2.19704e-31 36.4684 -4.95291e-15 -4.84343e-17 0.125216 -9.13775e-17 -2.34154e-17)
(0 2.79202e-29 8.72507e-31 36.4026 7.95781e-15 -2.54183e-14 0.12589 -2.73967e-17 -8.83656e-17)
(0 -1.39601e-29 -6.5438e-31 36.4026 -4.974e-15 -3.09684e-17 0.12589 -9.59563e-17 -2.3447e-17)
(-8.13277e-16 4.54452e-29 1.05596e-30 36.3346 7.91688e-15 -2.5639e-14 0.12656 -2.74964e-17 -8.97756e-17)
(2.43825e-16 -2.77197e-29 -6.49681e-31 36.3346 -5.03269e-15 -1.09876e-17 0.12656 -1.00732e-16 -2.34631e-17)
(0 -1.37603e-29 -6.45016e-31 36.2641 7.89723e-15 -2.58638e-14 0.127224 -2.7509e-17 -9.12276e-17)
(1.58805e-15 1.37603e-29 6.45016e-31 36.2641 -5.00075e-15 1.13961e-17 0.127224 -1.0565e-16 -2.34603e-17)
(3.30929e-17 -9.23611e-31 -7.29904e-32 36.1914 7.89658e-15 -2.60926e-14 0.127883 -2.77577e-17 -9.26974e-17)
(8.28973e-16 6.83076e-30 2.13461e-31 36.1914 -4.98368e-15 3.35091e-17 0.127883 -1.10224e-16 -2.34371e-17)
(0 6.78171e-30 0 36.1164 7.9971e-15 -2.63201e-14 0.128536 -2.79038e-17 -9.41735e-17)
(8.64105e-16 0 2.11929e-31 36.1164 -5.03198e-15 5.51252e-17 0.128536 -1.14977e-16 -2.3394e-17)
(0 2.69321e-29 6.3122e-31 36.0392 8.11178e-15 -2.65487e-14 0.129185 -2.88769e-17 -9.56837e-17)
(-8.99421e-16 -4.03981e-29 -8.41627e-31 36.0392 -5.15388e-15 7.59389e-17 0.129185 -1.19966e-16 -2.33342e-17)
(-4.6746e-16 2.51793e-29 9.23403e-31 35.9597 8.14185e-15 -2.6779e-14 0.129828 -2.91319e-17 -9.72053e-17)
(0 -1.33693e-29 -6.26687e-31 35.9597 -5.11885e-15 9.71663e-17 0.129828 -1.25015e-16 -2.3255e-17)
(0 1.32733e-29 4.14791e-31 35.8781 8.20346e-15 -2.70095e-14 0.130466 -2.95134e-17 -9.87512e-17)
(7.37093e-16 -6.63666e-30 -2.07396e-31 35.8781 -4.96061e-15 1.20041e-16 0.130466 -1.30015e-16 -2.31557e-17)
(4.83445e-16 -6.52045e-29 -2.00698e-30 35.7943 8.18299e-15 -2.72457e-14 0.131098 -3.00035e-17 -1.00349e-16)
(1.00646e-15 5.2712e-29 1.64725e-30 35.7943 -5.02773e-15 1.43084e-16 0.131098 -1.34934e-16 -2.30329e-17)
(-5.2125e-16 -1.43613e-29 -7.08876e-31 35.7084 8.07408e-15 -2.74822e-14 0.131725 -2.97918e-17 -1.01932e-16)
(1.85483e-15 1.30834e-29 8.17711e-31 35.7084 -5.10327e-15 1.67504e-16 0.131725 -1.39923e-16 -2.28894e-17)
(-2.69679e-16 1.88915e-29 9.71321e-31 35.6204 7.9123e-15 -2.77152e-14 0.132347 -2.96346e-17 -1.03539e-16)
(1.07872e-15 -1.29894e-29 -8.11839e-31 35.6204 -4.81068e-15 1.93695e-16 0.132347 -1.44903e-16 -2.27191e-17)
(-1.03811e-16 -1.39895e-29 -4.81265e-31 35.5303 7.70804e-15 -2.79538e-14 0.132963 -2.90206e-17 -1.052e-16)
(1.77647e-15 1.93442e-29 6.04507e-31 35.5303 -4.44372e-15 2.19252e-16 0.132963 -1.49534e-16 -2.25215e-17)
(0 -1.92053e-29 -4.00111e-31 35.4382 7.70437e-15 -2.8197e-14 0.133573 -2.85341e-17 -1.06878e-16)
(0 1.92053e-29 4.00111e-31 35.4382 -4.41573e-15 2.41918e-16 0.133573 -1.54293e-16 -2.22997e-17)
(-7.44353e-16 3.13231e-29 5.65537e-31 35.3441 7.81936e-15 -2.84382e-14 0.134178 -2.94142e-17 -1.08561e-16)
(0 -1.90674e-29 -1.98619e-31 35.3441 -4.48156e-15 2.60542e-16 0.134178 -1.59105e-16 -2.20555e-17)
(-3.0633e-16 -4.11005e-31 3.68528e-31 35.2481 7.93471e-15 -2.86785e-14 0.134777 -2.98226e-17 -1.1027e-16)
(0 1.89305e-29 0 35.2481 -4.56113e-15 2.83897e-16 0.134777 -1.63831e-16 -2.17959e-17)
(4.4085e-16 0 -3.91553e-31 35.15 8.098e-15 -2.9084e-14 0.13537 -3.07246e-17 -1.13264e-16)
(0 0 3.91553e-31 35.15 -4.73765e-15 2.44371e-16 0.13537 -1.6883e-16 -2.15105e-17)
(3.24912e-16 2.52019e-29 1.18397e-30 35.0501 7.915e-15 -3.02273e-14 0.135957 -3.15151e-17 -1.20754e-16)
(-1.29965e-15 -3.10993e-29 -1.36059e-30 35.0501 -4.53842e-15 -6.23161e-17 0.135957 -1.74259e-16 -2.13231e-17)
(3.34265e-16 -2.44227e-29 -3.73005e-31 34.9483 7.6203e-15 -3.12242e-14 0.136538 -2.9749e-17 -1.22709e-16)
(0 1.85256e-29 1.92975e-31 34.9483 -4.23773e-15 -3.20523e-16 0.136538 -1.78702e-16 -2.16274e-17)
(0 0 0 34.8446 7.62381e-15 -3.15004e-14 0.137114 -2.96665e-17 -1.24685e-16)
(0 6.13085e-30 1.91589e-31 34.8446 -4.31761e-15 -3.23538e-16 0.137114 -1.82888e-16 -2.13142e-17)
(4.28323e-16 -1.21737e-29 -3.80427e-31 34.7391 7.65764e-15 -3.17778e-14 0.137683 -3.02085e-17 -1.26692e-16)
(-4.28323e-16 1.21737e-29 3.80427e-31 34.7391 -4.34474e-15 -3.23872e-16 0.137683 -1.87899e-16 -2.09428e-17)
(-3.6257e-16 -2.43206e-29 -3.75958e-31 34.6319 7.89467e-15 -3.20568e-14 0.138246 -3.03657e-17 -1.28726e-16)
(0 2.41725e-29 5.66542e-31 34.6319 -4.63725e-15 -3.29177e-16 0.138246 -1.93024e-16 -2.05523e-17)
(-3.72085e-16 1.18937e-29 1.94219e-31 34.5228 8.15217e-15 -3.2337e-14 0.138804 -3.25425e-17 -1.30789e-16)
(0 0 3.74983e-31 34.5228 -5.02171e-15 -3.33515e-16 0.138804 -1.98638e-16 -2.01337e-17)
(-3.8164e-16 -6.35159e-32 1.98097e-31 34.412 8.08853e-15 -3.26187e-14 0.139355 -3.28805e-17 -1.3288e-16)
(0 1.19133e-29 7.4458e-31 34.412 -4.86776e-15 -3.33041e-16 0.139355 -2.04226e-16 -1.96858e-17)
(4.16151e-16 -1.77416e-29 -3.69617e-31 34.2995 8.03288e-15 -3.29025e-14 0.1399 -3.24987e-17 -1.35006e-16)
(0 1.77416e-29 7.39233e-31 34.2995 -4.50487e-15 -3.32148e-16 0.1399 -2.09698e-16 -1.91944e-17)
(4.13163e-16 -1.17428e-29 -7.33925e-31 34.1854 8.25228e-15 -3.31883e-14 0.140438 -3.29031e-17 -1.37161e-16)
(0 1.17428e-29 1.10089e-30 34.1854 -4.80445e-15 -3.35768e-16 0.140438 -2.14751e-16 -1.86779e-17)
(-8.21076e-16 7.00735e-29 2.24231e-30 34.0696 8.50389e-15 -3.34746e-14 0.140971 -3.47762e-17 -1.3934e-16)
(-1.64215e-15 -5.82924e-29 -1.82164e-30 34.0696 -5.25913e-15 -3.42791e-16 0.140971 -2.20657e-16 -1.81317e-17)
(-4.20247e-16 -2.30473e-29 -1.23229e-30 33.9521 8.48465e-15 -3.37623e-14 0.141497 -3.54666e-17 -1.41554e-16)
(2.54747e-15 2.89369e-29 1.44684e-30 33.9521 -5.02953e-15 -3.47411e-16 0.141497 -2.26685e-16 -1.75632e-17)
(4.29993e-16 -4.61095e-29 -2.37352e-30 33.8331 8.46848e-15 -3.40519e-14 0.142016 -3.51205e-17 -1.43798e-16)
(1.71997e-15 3.44749e-29 1.79557e-30 33.8331 -5.15783e-15 -3.45368e-16 0.142016 -2.3233e-16 -1.69497e-17)
(-4.39776e-16 -5.52143e-30 2.23193e-31 33.7125 8.6208e-15 -3.43432e-14 0.14253 -3.58455e-17 -1.46077e-16)
(0 1.71137e-29 3.56535e-31 33.7125 -5.25946e-15 -3.46023e-16 0.14253 -2.38832e-16 -1.62929e-17)
(3.9854e-16 -1.13272e-29 -3.53975e-31 33.5904 8.67172e-15 -3.4636e-14 0.143036 -3.69206e-17 -1.48384e-16)
(1.79838e-15 1.13272e-29 3.53975e-31 33.5904 -5.11449e-15 -3.46664e-16 0.143036 -2.44748e-16 -1.55999e-17)
(-9.18903e-16 5.11318e-29 2.57285e-30 33.4668 8.53859e-15 -3.49292e-14 0.143537 -3.68003e-17 -1.50718e-16)
(-1.83781e-15 -3.93605e-29 -2.1086e-30 33.4668 -5.21125e-15 -3.50229e-16 0.143537 -2.50868e-16 -1.48587e-17)
(-9.38686e-16 2.29346e-29 8.2231e-31 33.3417 8.57072e-15 -3.52232e-14 0.14403 -3.63126e-17 -1.53083e-16)
(1.87737e-15 0 0 33.3417 -4.96367e-15 -3.5479e-16 0.14403 -2.57499e-16 -1.40964e-17)
(0 0 0 33.2151 8.48082e-15 -3.55189e-14 0.144517 -3.76127e-17 -1.55484e-16)
(0 5.54246e-30 6.92807e-31 33.2151 -5.3301e-15 -3.52631e-16 0.144517 -2.63967e-16 -1.32923e-17)
(-1.26366e-15 1.68882e-29 1.27783e-30 33.0871 8.13345e-15 -3.58162e-14 0.144997 -3.6056e-17 -1.57917e-16)
(-1.95692e-15 0 -6.87832e-31 33.0871 -5.94905e-15 -3.60401e-16 0.144997 -2.71402e-16 -1.24359e-17)
(0 -4.91683e-29 -2.73157e-30 32.9577 8.28794e-15 -3.61158e-14 0.145471 -3.51083e-17 -1.6039e-16)
(1.99691e-15 4.91683e-29 2.73157e-30 32.9577 -5.13355e-15 -3.71805e-16 0.145471 -2.78338e-16 -1.15538e-17)
(0 -5.42391e-29 -2.37296e-30 32.827 8.6227e-15 -3.64162e-14 0.145937 -3.79459e-17 -1.62886e-16)
(4.07404e-15 5.42391e-29 2.37296e-30 32.827 -4.49795e-15 -3.67625e-16 0.145937 -2.83833e-16 -1.06214e-17)
(0 1.61549e-29 6.73121e-31 32.6948 8.3679e-15 -3.6717e-14 0.146397 -3.86004e-17 -1.65418e-16)
(0 -1.07699e-29 -3.3656e-31 32.6948 -5.20386e-15 -3.60383e-16 0.146397 -2.90584e-16 -9.62275e-18)
(-5.29414e-16 -2.61983e-29 -1.73909e-30 32.5614 8.08147e-15 -3.70198e-14 0.14685 -3.62104e-17 -1.67988e-16)
(-2.11765e-15 1.60389e-29 1.00243e-30 32.5614 -5.50578e-15 -3.71297e-16 0.14685 -2.97715e-16 -8.57947e-18)
(0 2.65395e-29 9.95232e-31 32.4266 8.50958e-15 -3.73238e-14 0.147295 -3.65718e-17 -1.70587e-16)
(2.15817e-15 -1.59237e-29 -6.63488e-31 32.4266 -4.89752e-15 -3.8338e-16 0.147295 -3.03203e-16 -7.51912e-18)
(0 1.58094e-29 9.88086e-31 32.2906 8.67276e-15 -3.76277e-14 0.147734 -4.06336e-17 -1.73214e-16)
(2.19881e-15 -1.05396e-29 -6.58724e-31 32.2906 -4.86539e-15 -3.80992e-16 0.147734 -3.08592e-16 -6.39222e-18)
(1.76439e-16 -2.55154e-29 -2.00757e-30 32.1533 8.13971e-15 -3.79339e-14 0.148166 -3.85991e-17 -1.75891e-16)
(-7.36331e-16 3.13917e-29 2.28898e-30 32.1533 -4.85782e-15 -3.79951e-16 0.148166 -3.15767e-16 -5.19762e-18)
(0 -4.1555e-29 -2.27254e-30 32.0147 8.09585e-15 -3.82419e-14 0.14859 -3.63003e-17 -1.78594e-16)
(2.28046e-15 4.1555e-29 2.27254e-30 32.0147 -4.58667e-15 -3.86537e-16 0.14859 -3.22112e-16 -3.96214e-18)
(-5.80367e-16 1.61886e-29 9.36891e-31 31.875 8.56998e-15 -3.85498e-14 0.149007 -3.87513e-17 -1.8133e-16)
(-7.25794e-16 0 0 31.875 -5.12237e-15 -3.89452e-16 0.149007 -3.28842e-16 -2.68844e-18)
(-1.29932e-16 1.4607e-29 1.6222e-30 31.734 9.04974e-15 -3.88586e-14 0.149417 -4.12701e-17 -1.84101e-16)
(0 -1.02401e-29 -9.60008e-31 31.734 -5.30032e-15 -3.90958e-16 0.149417 -3.35796e-16 -1.34905e-18)
(-6.00962e-16 5.16213e-29 2.20969e-30 31.5919 9.3764e-15 -3.91675e-14 0.149819 -4.38418e-17 -1.86899e-16)
(-2.40385e-15 -3.55829e-29 -1.58852e-30 31.5919 -5.14955e-15 -3.9164e-16 0.149819 -3.41808e-16 3.48457e-20)
(-1.22261e-15 3.69751e-29 1.88009e-30 31.4486 9.36739e-15 -3.94757e-14 0.150214 -4.49745e-17 -1.89725e-16)
(-2.44521e-15 -2.52339e-29 -1.26169e-30 31.4486 -5.75024e-15 -3.94887e-16 0.150214 -3.48677e-16 1.49063e-18)
(-1.24334e-15 5.18235e-29 3.13533e-30 31.3042 9.26011e-15 -3.97835e-14 0.150602 -4.4392e-17 -1.92581e-16)
(-2.48669e-15 -4.00843e-29 -2.50527e-30 31.3042 -6.12156e-15 -4.06601e-16 0.150602 -3.56546e-16 2.99256e-18)
(7.00106e-16 -9.94911e-30 0 31.1587 9.11729e-15 -4.00912e-14 0.150982 -4.45928e-17 -1.95469e-16)
(2.52828e-15 9.94911e-30 0 31.1587 -5.5797e-15 -4.13491e-16 0.150982 -3.64883e-16 4.54065e-18)
(-6.42495e-16 1.5745e-29 3.26969e-31 31.0121 9.01411e-15 -4.03991e-14 0.151354 -4.36492e-17 -1.9839e-16)
(2.56998e-15 0 6.17354e-31 31.0121 -5.33547e-15 -4.12119e-16 0.151354 -3.72186e-16 6.15208e-18)
(0 9.80673e-30 -6.12921e-31 30.8644 9.20755e-15 -4.07068e-14 0.151718 -4.42307e-17 -2.01338e-16)
(2.61179e-15 0 1.22584e-30 30.8644 -5.59585e-15 -4.10982e-16 0.151718 -3.80414e-16 7.83729e-18)
(-1.32685e-15 2.14658e-29 6.78565e-31 30.7156 9.09245e-15 -4.10139e-14 0.152075 -4.61892e-17 -2.04318e-16)
(2.6537e-15 -9.73631e-30 0 30.7156 -5.67679e-15 -4.15463e-16 0.152075 -3.88575e-16 9.58062e-18)
(-6.73928e-16 1.03075e-30 3.45583e-31 30.5658 9.09769e-15 -4.13211e-14 0.152423 -4.37303e-17 -2.07332e-16)
(2.69571e-15 1.44996e-29 0 30.5658 -5.76225e-15 -4.22516e-16 0.152423 -3.96051e-16 1.13791e-17)
(1.35066e-15 -9.59698e-30 -1.19962e-30 30.415 9.44773e-15 -4.16281e-14 0.152764 -4.69122e-17 -2.10377e-16)
(2.73783e-15 9.59698e-30 1.19962e-30 30.415 -5.47183e-15 -4.19405e-16 0.152764 -4.05005e-16 1.3239e-17)
(0 0 -5.95504e-31 30.2632 9.41426e-15 -4.19352e-14 0.153096 -4.78901e-17 -2.13457e-16)
(2.78005e-15 0 5.95504e-31 30.2632 -5.03337e-15 -4.21007e-16 0.153096 -4.12447e-16 1.52095e-17)
(-6.65663e-16 1.41895e-29 5.91228e-31 30.1104 9.55244e-15 -4.22421e-14 0.15342 -4.72539e-17 -2.16567e-16)
(2.82236e-15 -4.72982e-30 0 30.1104 -5.57626e-15 -4.31635e-16 0.15342 -4.189e-16 1.72173e-17)
(-1.37707e-15 2.46418e-29 1.54574e-30 29.9566 9.78571e-15 -4.25483e-14 0.153736 -4.99971e-17 -2.19706e-16)
(0 -9.39172e-30 -1.17396e-30 29.9566 -5.91536e-15 -4.3551e-16 0.153736 -4.28242e-16 1.92976e-17)
(7.26816e-16 1.27916e-29 7.86951e-31 29.8019 9.67714e-15 -4.28535e-14 0.154044 -5.03404e-17 -2.22874e-16)
(1.59499e-15 -9.32428e-30 -5.82767e-31 29.8019 -5.83228e-15 -4.3906e-16 0.154044 -4.36568e-16 2.14542e-17)
(-6.51426e-16 2.7772e-29 1.73575e-30 29.6462 9.42432e-15 -4.31575e-14 0.154343 -4.95977e-17 -2.2607e-16)
(-2.29843e-15 -3.70293e-29 -2.31433e-30 29.6462 -6.09411e-15 -4.29821e-16 0.154343 -4.44316e-16 2.36977e-17)
(0 1.83817e-29 3.44657e-30 29.4896 9.82542e-15 -4.34601e-14 0.154633 -4.84318e-17 -2.29292e-16)
(-2.99253e-15 -1.83817e-29 -3.44657e-30 29.4896 -6.69983e-15 -4.2762e-16 0.154633 -4.52882e-16 2.60591e-17)
(7.58824e-16 2.15221e-29 3.02219e-30 29.332 1.03893e-14 -4.37604e-14 0.154915 -5.45354e-17 -2.32533e-16)
(-6.07059e-15 -2.73745e-29 -3.42182e-30 29.332 -7.08903e-15 -4.53152e-16 0.154915 -4.63959e-16 2.84484e-17)
(0 0 0 29.1736 9.47052e-15 -3.86656e-14 0.155188 -5.51075e-17 -1.7827e-16)
(6.15628e-15 0 0 29.1736 -6.27662e-15 -4.75042e-16 0.155188 -4.7476e-16 3.08655e-17)
(4.85563e-16 -1.21373e-29 -1.25481e-30 29.0143 8.8599e-15 -2.59403e-14 0.155452 -4.55253e-17 -9.91731e-17)
(6.24214e-15 1.79885e-29 1.68642e-30 29.0143 -6.55246e-15 -4.66937e-16 0.155452 -4.83536e-16 3.33844e-17)
(-7.91018e-16 5.84972e-30 -6.81664e-31 28.8541 9.8032e-15 -1.84748e-14 0.155708 -4.93464e-17 -1.0006e-16)
(0 8.92968e-30 2.23242e-30 28.8541 -7.54236e-15 -4.56795e-16 0.155708 -4.9546e-16 3.60786e-17)
(-8.01789e-16 4.13096e-29 3.20799e-30 28.6931 1.02272e-14 -1.85093e-14 0.155954 -5.63955e-17 -1.00989e-16)
(0 -3.54622e-29 -2.77049e-30 28.6931 -7.62835e-15 -4.68629e-16 0.155954 -5.08677e-16 3.8844e-17)
(-2.05133e-15 3.22518e-29 2.64094e-30 28.5312 9.99455e-15 -1.85562e-14 0.156191 -5.46846e-17 -1.02027e-16)
(1.23876e-15 -2.64057e-29 -2.20047e-30 28.5312 -7.35926e-15 -4.74708e-16 0.156191 -5.23028e-16 4.16695e-17)
(-4.06477e-16 1.16327e-29 6.48852e-31 28.3685 1.03083e-14 -1.85984e-14 0.156419 -5.466e-17 -1.02922e-16)
(3.29353e-15 -1.74774e-29 -1.09234e-30 28.3685 -7.15333e-15 -4.80151e-16 0.156419 -5.34295e-16 4.45989e-17)
(1.66841e-15 2.30188e-29 1.27596e-30 28.205 1.06912e-14 -1.86374e-14 0.156637 -5.89486e-17 -1.03943e-16)
(0 -3.47037e-29 -2.71123e-30 28.205 -7.24869e-15 -4.69793e-16 0.156637 -5.45335e-16 4.75999e-17)
(0 1.72273e-29 2.69176e-30 28.0407 1.07058e-14 -1.86671e-14 0.156846 -5.97188e-17 -1.0475e-16)
(-4.59245e-15 -8.61363e-30 -1.61506e-30 28.0407 -6.73425e-15 -4.63859e-16 0.156846 -5.57899e-16 5.07785e-17)
(8.55902e-16 2.83678e-29 2.21974e-30 27.8756 1.073e-14 -1.86989e-14 0.157045 -5.99685e-17 -1.05811e-16)
(-3.42361e-15 -3.42071e-29 -2.67243e-30 27.8756 -6.23636e-15 -4.75346e-16 0.157045 -5.66903e-16 5.40065e-17)
(8.66773e-16 1.1143e-29 1.66675e-30 27.7097 1.04094e-14 -1.87355e-14 0.157235 -6.08583e-17 -1.06687e-16)
(0 -1.69807e-29 -1.0613e-30 27.7097 -5.74689e-15 -4.82257e-16 0.157235 -5.76916e-16 5.73502e-17)
(1.18633e-15 -1.68588e-29 -1.58051e-30 27.5431 1.03076e-14 -1.87518e-14 0.157415 -5.71903e-17 -1.07535e-16)
(2.3243e-15 1.68588e-29 2.10735e-30 27.5431 -4.89832e-15 -4.90729e-16 0.157415 -5.85924e-16 6.07768e-17)
(-2.95493e-15 -1.34372e-29 -1.68326e-30 27.3758 1.05519e-14 -1.6411e-14 0.157585 -6.05747e-17 -8.12041e-17)
(3.55423e-15 2.51066e-29 2.61527e-30 27.3758 -5.18971e-15 -4.82811e-16 0.157585 -5.94415e-16 6.43046e-17)
(-1.79894e-15 3.65926e-29 3.54067e-30 27.2077 1.04159e-14 -1.17417e-14 0.157746 -6.0842e-17 -5.47839e-17)
(-3.59788e-15 -2.49263e-29 -2.59649e-30 27.2077 -6.5243e-15 -4.82304e-16 0.157746 -6.06783e-16 6.79594e-17)
(-9.10395e-16 3.05792e-29 3.56704e-30 27.0389 1.02109e-14 -9.36347e-15 0.157896 -5.98724e-17 -5.45203e-17)
(-3.64158e-15 -2.47473e-29 -3.09342e-30 27.0389 -6.69231e-15 -4.99263e-16 0.157896 -6.18445e-16 7.16853e-17)
(2.3129e-16 -1.8739e-29 -1.06047e-30 26.8695 9.92178e-15 -9.26561e-15 0.158036 -5.93234e-17 -5.44244e-17)
(3.68533e-15 2.45696e-29 2.04747e-30 26.8695 -5.92202e-15 -5.12688e-16 0.158036 -6.27855e-16 7.55104e-17)
(-1.14435e-15 -1.62621e-29 -2.03277e-30 26.6993 9.80049e-15 -9.18571e-15 0.158166 -5.73297e-17 -5.43621e-17)
(3.72912e-15 1.62621e-29 2.03277e-30 26.6993 -6.01478e-15 -5.05176e-16 0.158166 -6.3814e-16 7.94557e-17)
(0 -1.61453e-29 -1.51363e-30 26.5285 9.84894e-15 -9.09274e-15 0.158285 -5.8743e-17 -5.41016e-17)
(0 1.61453e-29 2.01817e-30 26.5285 -5.88683e-15 -4.9032e-16 0.158285 -6.49582e-16 8.35732e-17)
(-2.08218e-15 2.18556e-29 1.98246e-30 26.3571 9.38467e-15 -8.97303e-15 0.158395 -5.87421e-17 -5.37078e-17)
(0 -8.0147e-30 -5.00919e-31 26.3571 -4.77919e-15 -5.00189e-16 0.158395 -6.58585e-16 8.78194e-17)
(-1.93037e-15 3.69353e-30 4.65129e-31 26.185 8.82968e-15 -8.84869e-15 0.158493 -5.39974e-17 -5.33769e-17)
(3.86073e-15 7.95715e-30 4.97322e-31 26.185 -4.19887e-15 -5.14434e-16 0.158493 -6.68334e-16 9.21172e-17)
(0 2.37e-29 1.48125e-30 26.0123 9.00748e-15 -8.73164e-15 0.158582 -5.28542e-17 -5.30556e-17)
(2.79285e-15 -1.58e-29 -4.93751e-31 26.0123 -4.35344e-15 -5.12734e-16 0.158582 -6.77597e-16 9.65075e-17)
(-1.22053e-15 1.77078e-29 9.86384e-31 25.839 9.01784e-15 -8.61491e-15 0.158659 -5.69564e-17 -5.27134e-17)
(3.94865e-15 -7.84328e-30 0 25.839 -4.41188e-15 -5.07106e-16 0.158659 -6.85893e-16 1.01012e-16)
(1.09592e-15 -3.11478e-29 -9.7337e-31 25.6652 8.38461e-15 -8.47106e-15 0.158726 -5.37492e-17 -5.20405e-17)
(0 3.11478e-29 1.46005e-30 25.6652 -4.26356e-15 -5.11695e-16 0.158726 -6.96682e-16 1.0562e-16)
(0 2.31931e-29 3.38233e-30 25.4908 8.27877e-15 -8.32095e-15 0.158782 -4.99242e-17 -5.16023e-17)
(0 -2.31931e-29 -3.38233e-30 25.4908 -4.44134e-15 -5.18237e-16 0.158782 -7.03424e-16 1.1033e-16)
(1.02018e-15 -2.11703e-29 -2.40759e-30 25.3158 8.53562e-15 -8.19483e-15 0.158828 -5.32065e-17 -5.12079e-17)
(0 1.53511e-29 2.3986e-30 25.3158 -4.57127e-15 -5.23516e-16 0.158828 -7.10517e-16 1.15155e-16)
(-2.06239e-15 2.68768e-29 1.93286e-30 25.1404 8.53509e-15 -8.07612e-15 0.158862 -5.3883e-17 -5.0846e-17)
(4.12478e-15 -7.62041e-30 0 25.1404 -4.19007e-15 -5.37469e-16 0.158862 -7.20942e-16 1.20039e-16)
(0 7.56569e-30 1.89142e-30 24.9644 8.96281e-15 -7.95508e-15 0.158886 -5.39723e-17 -5.04052e-17)
(4.16886e-15 0 -9.45711e-31 24.9644 -4.13663e-15 -5.45244e-16 0.158886 -7.29727e-16 1.2502e-16)
(1.05324e-15 1.67201e-29 1.85698e-30 24.788 9.22693e-15 -9.35731e-15 0.158899 -6.01291e-17 -6.96259e-17)
(3.15583e-15 -1.50227e-29 -9.3892e-31 24.788 -4.55247e-15 -5.49998e-16 0.158899 -7.39414e-16 1.30152e-16)
(0 2.98297e-29 3.26262e-30 24.6111 9.21202e-15 -1.29357e-14 0.1589 -5.81541e-17 -9.75112e-17)
(0 -2.98297e-29 -3.26262e-30 24.6111 -4.9513e-15 -5.4889e-16 0.1589 -7.4866e-16 1.35393e-16)
(1.07529e-15 -3.54262e-29 -4.19335e-30 24.4338 1.01463e-14 -1.50415e-14 0.158891 -6.08088e-17 -9.81249e-17)
(4.30117e-15 2.96155e-29 3.70193e-30 24.4338 -5.27836e-15 -5.586e-16 0.158891 -7.58258e-16 1.40761e-16)
(3.31076e-15 2.08743e-29 2.16128e-30 24.256 1.07483e-14 -1.50295e-14 0.15887 -7.11932e-17 -9.87691e-17)
(0 -3.67535e-29 -3.21593e-30 24.256 -5.66744e-15 -5.7345e-16 0.15887 -7.71108e-16 1.46194e-16)
(-1.02709e-15 7.29792e-30 1.36836e-30 24.0779 1.0093e-14 -1.50095e-14 0.158839 -6.96071e-17 -9.92843e-17)
(4.38939e-15 0 0 24.0779 -5.59786e-15 -5.74556e-16 0.158839 -7.80594e-16 1.51803e-16)
(0 -2.8982e-29 -4.52844e-30 23.8994 9.58246e-15 -1.49822e-14 0.158796 -6.35496e-17 -9.98382e-17)
(4.4335e-15 2.8982e-29 4.52844e-30 23.8994 -5.19748e-15 -5.8132e-16 0.158796 -7.90497e-16 1.57557e-16)
(-1.1194e-15 5.80279e-30 4.97189e-31 23.7205 1.00174e-14 -1.49735e-14 0.158742 -6.38071e-17 -1.00609e-16)
(4.47761e-15 7.19348e-30 1.79837e-30 23.7205 -5.13887e-15 -5.77845e-16 0.158742 -8.03002e-16 1.63443e-16)
(-8.79819e-16 3.70512e-29 3.96518e-30 23.5414 1.08533e-14 -1.49594e-14 0.158677 -7.03157e-17 -1.01097e-16)
(0 -2.85673e-29 -3.57091e-30 23.5414 -5.84504e-15 -5.76425e-16 0.158677 -8.14895e-16 1.69523e-16)
(0 0 -8.86317e-31 23.3619 1.08211e-14 -1.49231e-14 0.1586 -7.60454e-17 -1.01575e-16)
(0 7.09054e-30 1.77263e-30 23.3619 -5.67142e-15 -6.00391e-16 0.1586 -8.27854e-16 1.75685e-16)
(0 -2.11189e-29 -3.51981e-30 23.1821 9.95145e-15 -1.4899e-14 0.158513 -7.08973e-17 -1.02234e-16)
(9.21971e-15 2.11189e-29 3.51981e-30 23.1821 -4.61566e-15 -6.06264e-16 0.158513 -8.39322e-16 1.8192e-16)
(-1.96725e-15 1.39781e-29 8.73634e-31 23.0021 9.67527e-15 -1.48812e-14 0.158414 -6.52102e-17 -1.02803e-16)
(0 -6.98907e-30 0 23.0021 -5.52952e-15 -5.8273e-16 0.158414 -8.50957e-16 1.88372e-16)
(0 1.38778e-29 1.73472e-30 22.8219 9.99921e-15 -1.48371e-14 0.158304 -6.81076e-17 -1.03105e-16)
(-5.6745e-15 -6.93888e-30 -8.6736e-31 22.8219 -5.88569e-15 -5.87814e-16 0.158304 -8.64421e-16 1.95035e-16)
(-1.18549e-15 2.64575e-29 3.088e-30 22.6415 1.00647e-14 -1.47941e-14 0.158182 -7.06686e-17 -1.03692e-16)
(4.74194e-15 -1.37781e-29 -8.61132e-31 22.6415 -4.92809e-15 -6.18148e-16 0.158182 -8.75683e-16 2.01724e-16)
(-7.28692e-16 2.84097e-29 2.05906e-30 22.4608 9.57105e-15 -1.47671e-14 0.15805 -7.00145e-17 -1.04221e-16)
(1.92517e-15 -3.41979e-29 -3.41979e-30 22.4608 -4.66307e-15 -6.14887e-16 0.15805 -8.88137e-16 2.08456e-16)
(1.20747e-15 -3.97397e-29 -4.751e-30 22.2801 8.19455e-15 -1.47262e-14 0.157906 -6.47199e-17 -1.04615e-16)
(4.82987e-15 2.03714e-29 4.24404e-30 22.2801 -3.27545e-15 -5.83895e-16 0.157906 -9.01362e-16 2.15392e-16)
(1.89762e-15 -1.34834e-29 -8.42714e-31 22.0992 7.61604e-15 -1.46511e-14 0.157751 -5.14402e-17 -1.04657e-16)
(0 1.34834e-29 1.68543e-30 22.0992 -3.39849e-15 -5.85614e-16 0.157751 -9.08303e-16 2.22491e-16)
(-1.884e-15 2.67732e-29 2.50999e-30 21.9182 8.18986e-15 -1.45719e-14 0.157585 -5.73663e-17 -1.0499e-16)
(-3.03366e-15 -3.34665e-29 -3.34665e-30 21.9182 -4.56949e-15 -5.97203e-16 0.157585 -9.19846e-16 2.29635e-16)
(-1.85065e-15 1.0707e-29 7.00716e-31 21.7371 7.86506e-15 -1.45151e-14 0.157408 -6.04724e-17 -1.05351e-16)
(4.9615e-15 0 0 21.7371 -3.47277e-15 -6.13124e-16 0.157408 -9.29106e-16 2.36895e-16)
(-2.50264e-15 -2.142e-29 -2.27567e-30 21.5559 7.8393e-15 -1.44664e-14 0.157219 -5.34754e-17 -1.058e-16)
(3.14825e-15 2.63901e-29 2.47407e-30 21.5559 -3.12304e-15 -6.21024e-16 0.157219 -9.38558e-16 2.44135e-16)
(0 -2.62006e-29 -8.18767e-31 21.3748 8.42172e-15 -1.44073e-14 0.15702 -6.09731e-17 -1.06009e-16)
(5.04904e-15 2.62006e-29 1.63753e-30 21.3748 -3.56506e-15 -6.01676e-16 0.15702 -9.51254e-16 2.51544e-16)
(0 -6.5031e-30 -2.43866e-30 21.1936 8.73957e-15 -1.43452e-14 0.15681 -6.28451e-17 -1.06413e-16)
(0 6.5031e-30 2.43866e-30 21.1936 -3.90402e-15 -5.96768e-16 0.15681 -9.58916e-16 2.5908e-16)
(0 1.93692e-29 4.03525e-30 21.0125 8.94214e-15 -1.4294e-14 0.156589 -6.65819e-17 -1.06781e-16)
(0 -1.93692e-29 -4.03525e-30 21.0125 -4.09047e-15 -6.02019e-16 0.156589 -9.6921e-16 2.66691e-16)
(-2.58999e-15 1.15519e-29 1.03147e-30 20.8314 8.49478e-15 -1.42299e-14 0.156356 -6.67899e-17 -1.06992e-16)
(0 0 0 20.8314 -3.44924e-15 -6.17513e-16 0.156356 -9.81167e-16 2.74367e-16)
(2.61175e-15 -3.06429e-29 -2.62449e-30 20.6505 8.50927e-15 -1.41523e-14 0.156113 -6.08036e-17 -1.07153e-16)
(5.22351e-15 1.9092e-29 1.591e-30 20.6505 -3.02726e-15 -6.39762e-16 0.156113 -9.90265e-16 2.82097e-16)
(0 -2.52732e-29 -3.15916e-30 20.4696 9.22201e-15 -1.41027e-14 0.15586 -6.79795e-17 -1.07787e-16)
(5.26698e-15 2.52732e-29 3.15916e-30 20.4696 -3.9927e-15 -6.38101e-16 0.15586 -9.96174e-16 2.89951e-16)
(0 -2.50918e-29 -3.13647e-30 20.2888 8.8851e-15 -1.40503e-14 0.155595 -7.25885e-17 -1.07901e-16)
(-1.76568e-15 2.50918e-29 3.13647e-30 20.2888 -4.49329e-15 -6.36263e-16 0.155595 -1.00861e-15 2.98037e-16)
(0 0 -7.78487e-31 20.1082 8.13696e-15 -1.39874e-14 0.15532 -6.37758e-17 -1.08375e-16)
(5.35372e-15 0 7.78487e-31 20.1082 -3.18726e-15 -6.46615e-16 0.15532 -1.01866e-15 3.06157e-16)
(-1.34925e-15 -2.51477e-29 -3.34406e-30 19.9279 8.12026e-15 -1.39502e-14 0.155034 -6.20326e-17 -1.08886e-16)
(3.65658e-15 3.09159e-29 3.86448e-30 19.9279 -3.47547e-15 -6.55672e-16 0.155034 -1.0232e-15 3.14373e-16)
(0 -1.22775e-29 -1.53469e-30 19.7477 8.78045e-15 -1.38957e-14 0.154738 -6.44408e-17 -1.09091e-16)
(0 1.22775e-29 1.53469e-30 19.7477 -4.81838e-15 -6.71768e-16 0.154738 -1.03379e-15 3.22673e-16)
(4.45715e-15 -1.76223e-29 -4.09163e-30 19.5677 9.50568e-15 -1.38426e-14 0.154432 -7.33267e-17 -1.09626e-16)
(5.4833e-15 6.09469e-30 3.04734e-30 19.5677 -4.72304e-15 -6.72245e-16 0.154432 -1.04709e-15 3.31159e-16)
(1.70318e-15 -1.81528e-29 -7.56366e-31 19.3881 9.28026e-15 -1.38122e-14 0.154115 -7.68765e-17 -1.10188e-16)
(-1.70318e-15 1.81528e-29 7.56366e-31 19.3881 -4.8833e-15 -6.95327e-16 0.154115 -1.05998e-15 3.39848e-16)
(-1.39233e-15 4.18052e-29 3.52746e-30 19.2087 9.50633e-15 -1.37954e-14 0.153788 -7.07908e-17 -1.10948e-16)
(0 -3.60448e-29 -3.00374e-30 19.2087 -4.27933e-15 -7.32841e-16 0.153788 -1.07264e-15 3.48509e-16)
(0 -3.5786e-29 -2.98217e-30 19.0296 1.03662e-14 -1.38047e-14 0.153451 -8.16296e-17 -1.11938e-16)
(1.12243e-14 3.5786e-29 2.98217e-30 19.0296 -4.0541e-15 -7.20589e-16 0.153451 -1.08124e-15 3.57315e-16)