/*--------------------------------*- C++ -*----------------------------------*\
| =========                 |                                                 |
| \\      /  F ield         | OpenFOAM: The Open Source CFD Toolbox           |
|  \\    /   O peration     | Version:  2012                                  |
|   \\  /    A nd           | Website:  www.openfoam.com                      |
|    \\/     M anipulation  |                                                 |
\*---------------------------------------------------------------------------*/
FoamFile
{
    version     2.0;
    format      ascii;
    class       volVectorField;
    location    "9000";
    object      U;
}
// * * * * * * * * * * * * * * * * * * * * * * * * * * * * * * * * * * * * * //

dimensions      [0 1 -1 0 0 0 0];


internalField   nonuniform List<vector> 
5120
(
(0.00135146 -1.03143e-15 -1.70643e-17)
(0.00135146 -3.45149e-20 -2.96219e-19)
(0.00406392 -5.83009e-15 -6.92365e-17)
(0.00406392 -2.64374e-19 -1.95351e-18)
(0.00679561 -4.83293e-15 -7.49039e-17)
(0.00679561 -5.73286e-19 -1.98073e-18)
(0.00954644 -4.28273e-15 -7.56434e-17)
(0.00954644 -9.00496e-19 -2.00737e-18)
(0.0123163 -4.2625e-15 -7.73019e-17)
(0.0123163 -1.23374e-18 -2.03336e-18)
(0.0151052 -4.26757e-15 -7.91148e-17)
(0.0151052 -1.57344e-18 -2.05865e-18)
(0.0179129 -4.2685e-15 -8.07066e-17)
(0.0179129 -1.91263e-18 -2.08318e-18)
(0.0207395 -4.26667e-15 -8.22898e-17)
(0.0207395 -2.25132e-18 -2.10694e-18)
(0.0235847 -4.26565e-15 -8.39442e-17)
(0.0235847 -2.59409e-18 -2.12995e-18)
(0.0264486 -4.2653e-15 -8.56456e-17)
(0.0264486 -2.94602e-18 -2.15213e-18)
(0.0293309 -4.26496e-15 -8.73781e-17)
(0.0293309 -3.29475e-18 -2.17339e-18)
(0.0322317 -4.26449e-15 -8.91398e-17)
(0.0322317 -3.66003e-18 -2.19369e-18)
(0.0351508 -4.26396e-15 -9.09312e-17)
(0.0351508 -4.04122e-18 -2.21308e-18)
(0.0380881 -4.26339e-15 -9.27525e-17)
(0.0380881 -4.41085e-18 -2.23142e-18)
(0.0410435 -4.2628e-15 -9.46039e-17)
(0.0410435 -4.79074e-18 -2.24862e-18)
(0.0440169 -4.26219e-15 -9.64854e-17)
(0.0440169 -5.17349e-18 -2.2647e-18)
(0.0470082 -4.26157e-15 -9.83975e-17)
(0.0470082 -5.54329e-18 -2.27952e-18)
(0.0500173 -4.26096e-15 -1.00341e-16)
(0.0500173 -5.92261e-18 -2.29314e-18)
(0.0530441 -4.26033e-15 -1.02316e-16)
(0.0530441 -6.31983e-18 -2.30542e-18)
(0.0560885 -4.25969e-15 -1.04323e-16)
(0.0560885 -6.71461e-18 -2.3164e-18)
(0.0591502 -4.25904e-15 -1.06362e-16)
(0.0591502 -7.12705e-18 -2.32604e-18)
(0.0622294 -4.25838e-15 -1.08434e-16)
(0.0622294 -7.53879e-18 -2.33424e-18)
(0.0653257 -4.25772e-15 -1.1054e-16)
(0.0653257 -7.93827e-18 -2.34078e-18)
(0.0684391 -4.25706e-15 -1.1268e-16)
(0.0684391 -8.36328e-18 -2.34567e-18)
(0.0715696 -4.25638e-15 -1.14854e-16)
(0.0715696 -8.78625e-18 -2.34907e-18)
(0.0747168 -4.25569e-15 -1.17064e-16)
(0.0747168 -9.22109e-18 -2.35101e-18)
(0.0778808 -4.255e-15 -1.19308e-16)
(0.0778808 -9.66043e-18 -2.35097e-18)
(0.0810614 -4.25431e-15 -1.21589e-16)
(0.0810614 -1.0096e-17 -2.34901e-18)
(0.0842585 -4.25361e-15 -1.23906e-16)
(0.0842585 -1.05387e-17 -2.34506e-18)
(0.0874719 -4.25289e-15 -1.2626e-16)
(0.0874719 -1.09891e-17 -2.33922e-18)
(0.0907015 -4.25216e-15 -1.28653e-16)
(0.0907015 -1.14601e-17 -2.33147e-18)
(0.0939472 -4.25142e-15 -1.31083e-16)
(0.0939472 -1.19108e-17 -2.32171e-18)
(0.0972088 -4.25067e-15 -1.33551e-16)
(0.0972088 -1.23599e-17 -2.30969e-18)
(0.100486 -4.24993e-15 -1.3606e-16)
(0.100486 -1.28294e-17 -2.29557e-18)
(0.103779 -4.24919e-15 -1.38608e-16)
(0.103779 -1.32989e-17 -2.27886e-18)
(0.107088 -4.24846e-15 -1.41197e-16)
(0.107088 -1.37208e-17 -2.25966e-18)
(0.110412 -4.24775e-15 -1.43827e-16)
(0.110412 -1.41284e-17 -2.23792e-18)
(0.113752 -4.24701e-15 -1.46499e-16)
(0.113752 -1.45511e-17 -2.21416e-18)
(0.117106 -4.24627e-15 -1.49213e-16)
(0.117106 -1.49771e-17 -2.18857e-18)
(0.120475 -4.2455e-15 -1.5197e-16)
(0.120475 -1.54213e-17 -2.16e-18)
(0.12386 -4.24471e-15 -1.54801e-16)
(0.12386 -1.58875e-17 -2.14166e-18)
(0.127259 -4.24397e-15 -1.5782e-16)
(0.127259 -1.62994e-17 -2.17223e-18)
(0.130672 -4.24323e-15 -1.60888e-16)
(0.130672 -1.67135e-17 -2.20414e-18)
(0.1341 -4.24247e-15 -1.64005e-16)
(0.1341 -1.71471e-17 -2.23575e-18)
(0.137542 -4.24171e-15 -1.67172e-16)
(0.137542 -1.75727e-17 -2.26819e-18)
(0.140998 -4.2409e-15 -1.7039e-16)
(0.140998 -1.80711e-17 -2.30132e-18)
(0.144468 -4.24008e-15 -1.7366e-16)
(0.144468 -1.85802e-17 -2.33511e-18)
(0.147952 -4.23926e-15 -1.76982e-16)
(0.147952 -1.90546e-17 -2.36862e-18)
(0.15145 -4.23844e-15 -1.80357e-16)
(0.15145 -1.9497e-17 -2.40271e-18)
(0.15496 -4.23757e-15 -1.83786e-16)
(0.15496 -2.00399e-17 -2.43746e-18)
(0.158485 -4.23668e-15 -1.8727e-16)
(0.158485 -2.0583e-17 -2.4735e-18)
(0.162022 -4.23581e-15 -1.90809e-16)
(0.162022 -2.10859e-17 -2.50972e-18)
(0.165573 -4.23491e-15 -1.94404e-16)
(0.165573 -2.16638e-17 -2.54586e-18)
(0.169136 -4.23399e-15 -1.98056e-16)
(0.169136 -2.21955e-17 -2.58274e-18)
(0.172712 -4.23307e-15 -2.01765e-16)
(0.172712 -2.27509e-17 -2.61953e-18)
(0.1763 -4.23216e-15 -2.05533e-16)
(0.1763 -2.33111e-17 -2.65772e-18)
(0.179901 -4.23122e-15 -2.0936e-16)
(0.179901 -2.3821e-17 -2.69603e-18)
(0.183514 -4.23032e-15 -2.13247e-16)
(0.183514 -2.44692e-17 -2.7343e-18)
(0.187139 -4.22944e-15 -2.17195e-16)
(0.187139 -2.51224e-17 -2.77488e-18)
(0.190776 -4.22849e-15 -2.21205e-16)
(0.190776 -2.55996e-17 -2.81622e-18)
(0.194424 -4.22753e-15 -2.25277e-16)
(0.194424 -2.61207e-17 -2.85646e-18)
(0.198084 -4.22662e-15 -2.29413e-16)
(0.198084 -2.67633e-17 -2.89678e-18)
(0.201755 -4.22571e-15 -2.33612e-16)
(0.201755 -2.73602e-17 -2.94007e-18)
(0.205437 -4.22469e-15 -2.37877e-16)
(0.205437 -2.78736e-17 -2.98372e-18)
(0.209131 -4.22373e-15 -2.42207e-16)
(0.209131 -2.84718e-17 -3.02709e-18)
(0.212835 -4.22282e-15 -2.46605e-16)
(0.212835 -2.8991e-17 -3.07114e-18)
(0.21655 -4.22185e-15 -2.51069e-16)
(0.21655 -2.95348e-17 -3.11667e-18)
(0.220275 -4.22082e-15 -2.55603e-16)
(0.220275 -3.0187e-17 -3.16204e-18)
(0.22401 -4.21972e-15 -2.60205e-16)
(0.22401 -3.07807e-17 -3.20859e-18)
(0.227756 -4.2186e-15 -2.64878e-16)
(0.227756 -3.14065e-17 -3.25478e-18)
(0.231511 -4.21749e-15 -2.69621e-16)
(0.231511 -3.21526e-17 -3.30278e-18)
(0.235276 -4.21637e-15 -2.74435e-16)
(0.235276 -3.2877e-17 -3.35247e-18)
(0.239051 -4.21528e-15 -2.79322e-16)
(0.239051 -3.35024e-17 -3.40283e-18)
(0.242835 -4.21418e-15 -2.84282e-16)
(0.242835 -3.41776e-17 -3.45291e-18)
(0.246628 -4.21302e-15 -2.89315e-16)
(0.246628 -3.48762e-17 -3.50373e-18)
(0.250429 -4.21193e-15 -2.94423e-16)
(0.250429 -3.55813e-17 -3.55564e-18)
(0.25424 -4.21075e-15 -2.99607e-16)
(0.25424 -3.63113e-17 -3.60896e-18)
(0.258059 -4.20956e-15 -3.04866e-16)
(0.258059 -3.69536e-17 -3.66084e-18)
(0.261887 -4.20838e-15 -3.10202e-16)
(0.261887 -3.7583e-17 -3.71534e-18)
(0.265722 -4.20713e-15 -3.15617e-16)
(0.265722 -3.83733e-17 -3.77069e-18)
(0.269565 -4.20587e-15 -3.21109e-16)
(0.269565 -3.90991e-17 -3.82698e-18)
(0.273417 -4.20463e-15 -3.26681e-16)
(0.273417 -3.98793e-17 -3.88406e-18)
(0.277275 -4.20342e-15 -3.32333e-16)
(0.277275 -4.0684e-17 -3.93875e-18)
(0.281141 -4.20205e-15 -3.38065e-16)
(0.281141 -4.16347e-17 -3.99607e-18)
(0.285014 -4.20068e-15 -3.43878e-16)
(0.285014 -4.25542e-17 -4.05832e-18)
(0.288893 -4.19954e-15 -3.48335e-16)
(0.288893 -4.3302e-17 -4.12232e-18)
(0.29278 -4.1983e-15 -3.50814e-16)
(0.29278 -4.4309e-17 -4.18329e-18)
(0.296672 -4.19689e-15 -3.53316e-16)
(0.296672 -4.53355e-17 -4.24547e-18)
(0.300571 -4.19553e-15 -3.55841e-16)
(0.300571 -4.63805e-17 -4.31056e-18)
(0.304476 -4.19416e-15 -3.58391e-16)
(0.304476 -4.73481e-17 -4.37531e-18)
(0.308387 -4.19269e-15 -3.60964e-16)
(0.308387 -4.83513e-17 -4.44284e-18)
(0.312302 -4.19119e-15 -3.63563e-16)
(0.312302 -4.93595e-17 -4.50565e-18)
(0.316224 -4.18969e-15 -3.66182e-16)
(0.316224 -5.02329e-17 -4.5725e-18)
(0.32015 -4.18817e-15 -3.68827e-16)
(0.32015 -5.11151e-17 -4.63947e-18)
(0.324081 -4.18674e-15 -3.71494e-16)
(0.324081 -5.1862e-17 -4.70926e-18)
(0.328016 -4.18523e-15 -3.74183e-16)
(0.328016 -5.25137e-17 -4.77962e-18)
(0.331956 -4.18371e-15 -3.76213e-16)
(0.331956 -5.33555e-17 -4.84814e-18)
(0.335899 -4.18221e-15 -3.77582e-16)
(0.335899 -5.44048e-17 -4.91937e-18)
(0.339847 -4.18073e-15 -3.78945e-16)
(0.339847 -5.53081e-17 -4.99385e-18)
(0.343798 -4.1793e-15 -3.80306e-16)
(0.343798 -5.61454e-17 -5.07008e-18)
(0.347752 -4.17783e-15 -3.81665e-16)
(0.347752 -5.70893e-17 -5.14341e-18)
(0.351709 -4.17636e-15 -3.83017e-16)
(0.351709 -5.79004e-17 -5.21631e-18)
(0.355669 -4.17501e-15 -3.8436e-16)
(0.355669 -5.85242e-17 -5.29367e-18)
(0.359631 -4.17369e-15 -3.85695e-16)
(0.359631 -5.91709e-17 -5.37195e-18)
(0.363596 -4.17226e-15 -3.87021e-16)
(0.363596 -5.98509e-17 -5.44992e-18)
(0.367562 -4.17092e-15 -3.88339e-16)
(0.367562 -6.0525e-17 -5.5276e-18)
(0.37153 -4.16967e-15 -3.8964e-16)
(0.37153 -6.1169e-17 -5.60812e-18)
(0.3755 -4.16834e-15 -3.9093e-16)
(0.3755 -6.19084e-17 -5.68898e-18)
(0.379471 -4.16699e-15 -3.9221e-16)
(0.379471 -6.26026e-17 -5.77233e-18)
(0.383442 -4.16564e-15 -3.93481e-16)
(0.383442 -6.32319e-17 -5.85878e-18)
(0.387414 -4.16414e-15 -3.94741e-16)
(0.387414 -6.39191e-17 -5.94583e-18)
(0.391387 -4.16269e-15 -3.96482e-16)
(0.391387 -6.46913e-17 -6.03507e-18)
(0.395359 -4.16117e-15 -3.9892e-16)
(0.395359 -6.55176e-17 -6.12302e-18)
(0.399331 -4.15939e-15 -4.01373e-16)
(0.399331 -6.64078e-17 -6.21672e-18)
(0.403303 -4.15765e-15 -4.03842e-16)
(0.403303 -6.7374e-17 -6.31083e-18)
(0.407274 -4.15606e-15 -4.06324e-16)
(0.407274 -6.82541e-17 -6.40626e-18)
(0.411244 -4.15446e-15 -4.0882e-16)
(0.411244 -6.91008e-17 -6.50399e-18)
(0.415213 -4.15271e-15 -4.11335e-16)
(0.415213 -6.9974e-17 -6.59963e-18)
(0.41918 -4.1508e-15 -4.13863e-16)
(0.41918 -7.10719e-17 -6.69831e-18)
(0.423145 -4.14903e-15 -4.16402e-16)
(0.423145 -7.18986e-17 -6.80351e-18)
(0.427107 -4.1474e-15 -4.18958e-16)
(0.427107 -7.26501e-17 -6.90563e-18)
(0.431068 -4.1457e-15 -4.21528e-16)
(0.431068 -7.38047e-17 -7.00422e-18)
(0.435025 -4.14393e-15 -4.24106e-16)
(0.435025 -7.46912e-17 -7.10959e-18)
(0.43898 -4.14218e-15 -4.26698e-16)
(0.43898 -7.55267e-17 -7.22025e-18)
(0.442931 -4.14056e-15 -4.29304e-16)
(0.442931 -7.63324e-17 -7.326e-18)
(0.446879 -4.13928e-15 -4.31919e-16)
(0.446879 -7.66863e-17 -7.42724e-18)
(0.450823 -4.13784e-15 -4.34535e-16)
(0.450823 -7.75478e-17 -7.53514e-18)
(0.454762 -4.13633e-15 -4.3716e-16)
(0.454762 -7.83295e-17 -7.64204e-18)
(0.458697 -4.13499e-15 -4.39794e-16)
(0.458697 -7.88048e-17 -7.7573e-18)
(0.462628 -4.13347e-15 -4.42439e-16)
(0.462628 -7.94698e-17 -7.86863e-18)
(0.466553 -4.1319e-15 -4.45089e-16)
(0.466553 -8.0115e-17 -7.97843e-18)
(0.470474 -4.13023e-15 -4.47749e-16)
(0.470474 -8.09156e-17 -8.08956e-18)
(0.474388 -4.12857e-15 -4.50419e-16)
(0.474388 -8.164e-17 -8.20291e-18)
(0.478297 -4.12704e-15 -4.53094e-16)
(0.478297 -8.22105e-17 -8.3215e-18)
(0.4822 -4.12535e-15 -4.55773e-16)
(0.4822 -8.27851e-17 -8.44494e-18)
(0.486097 -4.12353e-15 -4.58467e-16)
(0.486097 -8.37331e-17 -8.56461e-18)
(0.489986 -4.12194e-15 -4.61165e-16)
(0.489986 -8.45089e-17 -8.68914e-18)
(0.493869 -4.12039e-15 -4.63874e-16)
(0.493869 -8.4964e-17 -8.81457e-18)
(0.497745 -4.11877e-15 -4.66596e-16)
(0.497745 -8.58637e-17 -8.94444e-18)
(0.501614 -4.11694e-15 -4.69324e-16)
(0.501614 -8.68539e-17 -9.07802e-18)
(0.505475 -4.11502e-15 -4.72064e-16)
(0.505475 -8.77289e-17 -9.20998e-18)
(0.509327 -4.11325e-15 -4.74819e-16)
(0.509327 -8.87975e-17 -9.35471e-18)
(0.513172 -4.11121e-15 -4.77593e-16)
(0.513172 -8.94423e-17 -9.50367e-18)
(0.517008 -4.10907e-15 -4.80391e-16)
(0.517008 -9.04351e-17 -9.64554e-18)
(0.520836 -4.10702e-15 -4.83204e-16)
(0.520836 -9.181e-17 -9.79821e-18)
(0.524655 -4.10491e-15 -4.8604e-16)
(0.524655 -9.28416e-17 -9.95565e-18)
(0.528464 -4.10272e-15 -4.88897e-16)
(0.528464 -9.37993e-17 -1.01161e-17)
(0.532264 -4.10056e-15 -4.91782e-16)
(0.532264 -9.47903e-17 -1.02664e-17)
(0.536055 -4.09874e-15 -4.94673e-16)
(0.536055 -9.58984e-17 -1.04253e-17)
(0.539835 -4.09689e-15 -4.97573e-16)
(0.539835 -9.6582e-17 -1.06046e-17)
(0.543606 -4.09449e-15 -5.00506e-16)
(0.543606 -9.7736e-17 -1.07788e-17)
(0.547366 -4.09215e-15 -5.03465e-16)
(0.547366 -9.92519e-17 -1.09541e-17)
(0.551116 -4.08996e-15 -5.06447e-16)
(0.551116 -1.0038e-16 -1.11448e-17)
(0.554854 -4.08714e-15 -5.09464e-16)
(0.554854 -1.0165e-16 -1.1317e-17)
(0.558582 -4.08433e-15 -5.12501e-16)
(0.558582 -1.02999e-16 -1.14963e-17)
(0.562299 -4.08176e-15 -5.15556e-16)
(0.562299 -1.04496e-16 -1.16927e-17)
(0.566004 -4.07949e-15 -5.18648e-16)
(0.566004 -1.05846e-16 -1.18973e-17)
(0.569697 -4.07732e-15 -5.21767e-16)
(0.569697 -1.071e-16 -1.21006e-17)
(0.573379 -4.07473e-15 -5.24919e-16)
(0.573379 -1.08545e-16 -1.22865e-17)
(0.577049 -4.07242e-15 -5.2809e-16)
(0.577049 -1.10141e-16 -1.24817e-17)
(0.580706 -4.07068e-15 -5.31276e-16)
(0.580706 -1.11193e-16 -1.26904e-17)
(0.584351 -4.06905e-15 -5.3448e-16)
(0.584351 -1.11869e-16 -1.29012e-17)
(0.587983 -4.06741e-15 -5.37708e-16)
(0.587983 -1.12705e-16 -1.31036e-17)
(0.591603 -4.06555e-15 -5.4095e-16)
(0.591603 -1.13174e-16 -1.33148e-17)
(0.595209 -4.06362e-15 -5.44217e-16)
(0.595209 -1.13968e-16 -1.35327e-17)
(0.598802 -4.06191e-15 -5.47499e-16)
(0.598802 -1.14933e-16 -1.37516e-17)
(0.602382 -4.06022e-15 -5.50801e-16)
(0.602382 -1.15982e-16 -1.39678e-17)
(0.605948 -4.05831e-15 -5.54114e-16)
(0.605948 -1.17218e-16 -1.41995e-17)
(0.609501 -4.05595e-15 -5.5746e-16)
(0.609501 -1.18083e-16 -1.44504e-17)
(0.61304 -4.0533e-15 -5.60851e-16)
(0.61304 -1.19142e-16 -1.46869e-17)
(0.616565 -4.05072e-15 -5.64273e-16)
(0.616565 -1.20189e-16 -1.49148e-17)
(0.620075 -4.04789e-15 -5.67707e-16)
(0.620075 -1.21325e-16 -1.51637e-17)
(0.623572 -4.04508e-15 -5.71179e-16)
(0.623572 -1.22437e-16 -1.54119e-17)
(0.627053 -4.04268e-15 -5.74674e-16)
(0.627053 -1.23467e-16 -1.56774e-17)
(0.630521 -4.0403e-15 -5.78207e-16)
(0.630521 -1.24144e-16 -1.59247e-17)
(0.633973 -4.03747e-15 -5.8175e-16)
(0.633973 -1.24993e-16 -1.61975e-17)
(0.637411 -4.0345e-15 -5.85341e-16)
(0.637411 -1.26102e-16 -1.64753e-17)
(0.640833 -4.03184e-15 -5.88982e-16)
(0.640833 -1.27475e-16 -1.67382e-17)
(0.644241 -4.02921e-15 -5.92652e-16)
(0.644241 -1.28846e-16 -1.70236e-17)
(0.647633 -4.02704e-15 -5.96369e-16)
(0.647633 -1.29569e-16 -1.72938e-17)
(0.651009 -4.02473e-15 -6.00104e-16)
(0.651009 -1.30883e-16 -1.76181e-17)
(0.654371 -4.02236e-15 -6.039e-16)
(0.654371 -1.31757e-16 -1.79295e-17)
(0.657716 -4.01976e-15 -6.07748e-16)
(0.657716 -1.33834e-16 -1.82241e-17)
(0.661046 -4.01729e-15 -6.11633e-16)
(0.661046 -1.35831e-16 -1.85519e-17)
(0.66436 -4.01509e-15 -6.15554e-16)
(0.66436 -1.364e-16 -1.88789e-17)
(0.667658 -4.01237e-15 -6.19527e-16)
(0.667658 -1.3813e-16 -1.92223e-17)
(0.67094 -4.0095e-15 -6.23577e-16)
(0.67094 -1.3984e-16 -1.95735e-17)
(0.674206 -4.00675e-15 -6.27694e-16)
(0.674206 -1.41784e-16 -1.99203e-17)
(0.677456 -4.00436e-15 -6.31851e-16)
(0.677456 -1.43445e-16 -2.02878e-17)
(0.680689 -4.00193e-15 -6.3606e-16)
(0.680689 -1.44998e-16 -2.06557e-17)
(0.683906 -3.99921e-15 -6.40308e-16)
(0.683906 -1.46743e-16 -2.10406e-17)
(0.687107 -3.99707e-15 -6.4462e-16)
(0.687107 -1.47487e-16 -2.14195e-17)
(0.690291 -3.99588e-15 -6.4896e-16)
(0.690291 -1.47936e-16 -2.18e-17)
(0.693458 -3.99426e-15 -6.53319e-16)
(0.693458 -1.48657e-16 -2.21804e-17)
(0.696609 -3.99231e-15 -6.57709e-16)
(0.696609 -1.49826e-16 -2.25888e-17)
(0.699743 -3.99094e-15 -6.6212e-16)
(0.699743 -1.5048e-16 -2.30001e-17)
(0.70286 -3.98945e-15 -6.6654e-16)
(0.70286 -1.51233e-16 -2.34333e-17)
(0.705961 -3.98724e-15 -6.71023e-16)
(0.705961 -1.52051e-16 -2.38639e-17)
(0.709044 -3.98459e-15 -6.7556e-16)
(0.709044 -1.53399e-16 -2.4293e-17)
(0.712111 -3.98205e-15 -6.80117e-16)
(0.712111 -1.54596e-16 -2.47277e-17)
(0.71516 -3.97972e-15 -6.84697e-16)
(0.71516 -1.55592e-16 -2.51846e-17)
(0.718192 -3.9775e-15 -6.89309e-16)
(0.718192 -1.57292e-16 -2.56861e-17)
(0.721208 -3.97508e-15 -6.93995e-16)
(0.721208 -1.5801e-16 -2.61766e-17)
(0.724206 -3.97254e-15 -6.98743e-16)
(0.724206 -1.59336e-16 -2.66572e-17)
(0.727187 -3.9697e-15 -7.03546e-16)
(0.727187 -1.61187e-16 -2.7156e-17)
(0.730151 -3.96702e-15 -7.08397e-16)
(0.730151 -1.6262e-16 -2.76546e-17)
(0.733097 -3.96478e-15 -7.13289e-16)
(0.733097 -1.64088e-16 -2.81793e-17)
(0.736026 -3.96201e-15 -7.18245e-16)
(0.736026 -1.65864e-16 -2.87272e-17)
(0.738938 -3.95911e-15 -7.23299e-16)
(0.738938 -1.67783e-16 -2.92915e-17)
(0.741833 -3.95673e-15 -7.28432e-16)
(0.741833 -1.69413e-16 -2.98532e-17)
(0.74471 -3.95455e-15 -7.33633e-16)
(0.74471 -1.71447e-16 -3.04581e-17)
(0.74757 -3.95161e-15 -7.38913e-16)
(0.74757 -1.73834e-16 -3.10858e-17)
(0.750413 -3.94824e-15 -7.44315e-16)
(0.750413 -1.75262e-16 -3.16776e-17)
(0.753238 -3.94487e-15 -7.4979e-16)
(0.753238 -1.77694e-16 -3.22495e-17)
(0.756046 -3.94075e-15 -7.55312e-16)
(0.756046 -1.80951e-16 -3.29068e-17)
(0.758836 -3.93648e-15 -7.60933e-16)
(0.758836 -1.82738e-16 -3.35858e-17)
(0.76161 -3.93282e-15 -7.66671e-16)
(0.76161 -1.85367e-16 -3.42539e-17)
(0.764365 -3.92956e-15 -7.72491e-16)
(0.764365 -1.87408e-16 -3.49141e-17)
(0.767104 -3.92736e-15 -7.78378e-16)
(0.767104 -1.88236e-16 -3.55785e-17)
(0.769825 -3.92518e-15 -7.84321e-16)
(0.769825 -1.89546e-16 -3.62251e-17)
(0.772528 -3.92307e-15 -7.90271e-16)
(0.772528 -1.89892e-16 -3.68979e-17)
(0.775214 -3.92093e-15 -7.96242e-16)
(0.775214 -1.90527e-16 -3.76131e-17)
(0.777883 -3.91845e-15 -8.02259e-16)
(0.777883 -1.92203e-16 -3.83456e-17)
(0.780535 -3.91636e-15 -8.08332e-16)
(0.780535 -1.94025e-16 -3.90989e-17)
(0.783169 -3.9141e-15 -8.14447e-16)
(0.783169 -1.95318e-16 -3.98745e-17)
(0.785786 -3.91139e-15 -8.20642e-16)
(0.785786 -1.9713e-16 -4.06175e-17)
(0.788385 -3.90874e-15 -8.26863e-16)
(0.788385 -1.99151e-16 -4.14111e-17)
(0.790967 -3.90594e-15 -8.33172e-16)
(0.790967 -2.011e-16 -4.22139e-17)
(0.793532 -3.90312e-15 -8.39543e-16)
(0.793532 -2.03114e-16 -4.30158e-17)
(0.79608 -3.90049e-15 -8.45949e-16)
(0.79608 -2.05056e-16 -4.38746e-17)
(0.798611 -3.89845e-15 -8.52451e-16)
(0.798611 -2.06865e-16 -4.47497e-17)
(0.801124 -3.89625e-15 -8.59017e-16)
(0.801124 -2.07378e-16 -4.56129e-17)
(0.80362 -3.89437e-15 -8.65671e-16)
(0.80362 -2.08141e-16 -4.64956e-17)
(0.806099 -3.8925e-15 -8.72383e-16)
(0.806099 -2.09267e-16 -4.73347e-17)
(0.808561 -3.88951e-15 -8.79093e-16)
(0.808561 -2.09756e-16 -4.81501e-17)
(0.811006 -3.88671e-15 -8.85784e-16)
(0.811006 -2.0994e-16 -4.90977e-17)
(0.813434 -3.88488e-15 -8.92515e-16)
(0.813434 -2.10587e-16 -5.0069e-17)
(0.815845 -3.8825e-15 -8.99284e-16)
(0.815845 -2.11807e-16 -5.1031e-17)
(0.818239 -3.87968e-15 -9.06126e-16)
(0.818239 -2.13378e-16 -5.19868e-17)
(0.820616 -3.8773e-15 -9.12977e-16)
(0.820616 -2.15295e-16 -5.29695e-17)
(0.822976 -3.87483e-15 -9.19853e-16)
(0.822976 -2.16058e-16 -5.39349e-17)
(0.825319 -3.8719e-15 -9.26742e-16)
(0.825319 -2.16615e-16 -5.49414e-17)
(0.827646 -3.86864e-15 -9.3363e-16)
(0.827646 -2.17969e-16 -5.59934e-17)
(0.829955 -3.86477e-15 -9.40572e-16)
(0.829955 -2.19632e-16 -5.70275e-17)
(0.832248 -3.86033e-15 -9.47548e-16)
(0.832248 -2.21383e-16 -5.81569e-17)
(0.834525 -3.85568e-15 -9.546e-16)
(0.834525 -2.23604e-16 -5.92603e-17)
(0.836785 -3.85143e-15 -9.61673e-16)
(0.836785 -2.26385e-16 -6.0376e-17)
(0.839028 -3.84725e-15 -9.68749e-16)
(0.839028 -2.28953e-16 -6.15575e-17)
(0.841254 -3.84292e-15 -9.7588e-16)
(0.841254 -2.31569e-16 -6.27587e-17)
(0.843465 -3.83885e-15 -9.83047e-16)
(0.843465 -2.3451e-16 -6.39016e-17)
(0.845658 -3.83406e-15 -9.90186e-16)
(0.845658 -2.37987e-16 -6.52195e-17)
(0.847836 -3.82866e-15 -9.97453e-16)
(0.847836 -2.40841e-16 -6.66059e-17)
(0.849997 -3.82323e-15 -1.00484e-15)
(0.849997 -2.43744e-16 -6.79854e-17)
(0.852142 -3.81793e-15 -1.01236e-15)
(0.852142 -2.46946e-16 -6.93413e-17)
(0.85427 -3.81327e-15 -1.02001e-15)
(0.85427 -2.51142e-16 -7.071e-17)
(0.856383 -3.80901e-15 -1.02773e-15)
(0.856383 -2.55099e-16 -7.21781e-17)
(0.858479 -3.80437e-15 -1.03558e-15)
(0.858479 -2.58302e-16 -7.36846e-17)
(0.860559 -3.80064e-15 -1.04354e-15)
(0.860559 -2.60919e-16 -7.51753e-17)
(0.862623 -3.79863e-15 -1.05157e-15)
(0.862623 -2.62242e-16 -7.66701e-17)
(0.864672 -3.79772e-15 -1.05959e-15)
(0.864672 -2.6379e-16 -7.82325e-17)
(0.866704 -3.79644e-15 -1.06763e-15)
(0.866704 -2.65723e-16 -7.98289e-17)
(0.868721 -3.79486e-15 -1.07569e-15)
(0.868721 -2.68026e-16 -8.14291e-17)
(0.870721 -3.79274e-15 -1.08378e-15)
(0.870721 -2.70549e-16 -8.31071e-17)
(0.872706 -3.78965e-15 -1.0919e-15)
(0.872706 -2.72299e-16 -8.48333e-17)
(0.874676 -3.78674e-15 -1.10009e-15)
(0.874676 -2.7442e-16 -8.65062e-17)
(0.87663 -3.78383e-15 -1.10827e-15)
(0.87663 -2.77127e-16 -8.82218e-17)
(0.878568 -3.77981e-15 -1.11637e-15)
(0.878568 -2.7903e-16 -9.00965e-17)
(0.880491 -3.77499e-15 -1.12457e-15)
(0.880491 -2.8154e-16 -9.19039e-17)
(0.882398 -3.76972e-15 -1.13279e-15)
(0.882398 -2.86557e-16 -9.37597e-17)
(0.88429 -3.76485e-15 -1.141e-15)
(0.88429 -2.90553e-16 -9.57554e-17)
(0.886167 -3.76116e-15 -1.1493e-15)
(0.886167 -2.92983e-16 -9.77548e-17)
(0.888028 -3.75654e-15 -1.15763e-15)
(0.888028 -2.95182e-16 -9.96884e-17)
(0.889875 -3.75141e-15 -1.1659e-15)
(0.889875 -2.98805e-16 -1.01703e-16)
(0.891706 -3.74657e-15 -1.17418e-15)
(0.891706 -3.0247e-16 -1.03861e-16)
(0.893522 -3.7412e-15 -1.18251e-15)
(0.893522 -3.05534e-16 -1.06037e-16)
(0.895323 -3.73572e-15 -1.19088e-15)
(0.895323 -3.09923e-16 -1.08207e-16)
(0.897109 -3.73157e-15 -1.19926e-15)
(0.897109 -3.14537e-16 -1.10488e-16)
(0.898881 -3.72747e-15 -1.20776e-15)
(0.898881 -3.17297e-16 -1.1285e-16)
(0.900637 -3.7201e-15 -1.21636e-15)
(0.900637 -3.21438e-16 -1.15118e-16)
(0.902379 -3.71297e-15 -1.22492e-15)
(0.902379 -3.27331e-16 -1.17589e-16)
(0.904106 -3.70689e-15 -1.23363e-15)
(0.904106 -3.30229e-16 -1.20211e-16)
(0.905818 -3.70242e-15 -1.24252e-15)
(0.905818 -3.32084e-16 -1.22654e-16)
(0.907516 -3.69702e-15 -1.25128e-15)
(0.907516 -3.35606e-16 -1.25146e-16)
(0.9092 -3.6929e-15 -1.25999e-15)
(0.9092 -3.38236e-16 -1.27736e-16)
(0.910868 -3.68847e-15 -1.26873e-15)
(0.910868 -3.40123e-16 -1.30453e-16)
(0.912523 -3.68335e-15 -1.27748e-15)
(0.912523 -3.43984e-16 -1.33157e-16)
(0.914163 -3.67793e-15 -1.28617e-15)
(0.914163 -3.49459e-16 -1.35892e-16)
(0.915789 -3.67187e-15 -1.29486e-15)
(0.915789 -3.56168e-16 -1.38768e-16)
(0.9174 -3.66594e-15 -1.30358e-15)
(0.9174 -3.58842e-16 -1.41759e-16)
(0.918998 -3.66018e-15 -1.3124e-15)
(0.918998 -3.63746e-16 -1.44662e-16)
(0.920581 -3.65475e-15 -1.32118e-15)
(0.920581 -3.69521e-16 -1.47606e-16)
(0.922151 -3.64814e-15 -1.32981e-15)
(0.922151 -3.73742e-16 -1.50703e-16)
(0.923706 -3.64067e-15 -1.33844e-15)
(0.923706 -3.76966e-16 -1.5375e-16)
(0.925247 -3.63358e-15 -1.34708e-15)
(0.925247 -3.85041e-16 -1.56951e-16)
(0.926775 -3.62664e-15 -1.35569e-15)
(0.926775 -3.90451e-16 -1.60304e-16)
(0.928289 -3.61885e-15 -1.3643e-15)
(0.928289 -3.9631e-16 -1.63647e-16)
(0.929789 -3.6107e-15 -1.37304e-15)
(0.929789 -4.02372e-16 -1.66907e-16)
(0.931275 -3.60274e-15 -1.3818e-15)
(0.931275 -4.10175e-16 -1.70357e-16)
(0.932748 -3.59519e-15 -1.3906e-15)
(0.932748 -4.15379e-16 -1.73972e-16)
(0.934207 -3.58892e-15 -1.39939e-15)
(0.934207 -4.18e-16 -1.77578e-16)
(0.935653 -3.58297e-15 -1.40823e-15)
(0.935653 -4.23276e-16 -1.8116e-16)
(0.937085 -3.57572e-15 -1.41699e-15)
(0.937085 -4.29496e-16 -1.85029e-16)
(0.938503 -3.56896e-15 -1.42561e-15)
(0.938503 -4.34637e-16 -1.88945e-16)
(0.939909 -3.5624e-15 -1.4343e-15)
(0.939909 -4.38557e-16 -1.92714e-16)
(0.941301 -3.55439e-15 -1.44296e-15)
(0.941301 -4.45669e-16 -1.96685e-16)
(0.94268 -3.5456e-15 -1.45155e-15)
(0.94268 -4.54179e-16 -2.0079e-16)
(0.944045 -3.5375e-15 -1.46022e-15)
(0.944045 -4.5688e-16 -2.04886e-16)
(0.945397 -3.53256e-15 -1.46881e-15)
(0.945397 -4.57366e-16 -2.09091e-16)
(0.946737 -3.52803e-15 -1.47705e-15)
(0.946737 -4.60809e-16 -2.13552e-16)
(0.948063 -3.52313e-15 -1.48495e-15)
(0.948063 -4.6313e-16 -2.18189e-16)
(0.949376 -3.51704e-15 -1.49272e-15)
(0.949376 -4.66552e-16 -2.22669e-16)
(0.950677 -3.51008e-15 -1.50028e-15)
(0.950677 -4.74172e-16 -2.27325e-16)
(0.951964 -3.50404e-15 -1.50788e-15)
(0.951964 -4.80599e-16 -2.31919e-16)
(0.953238 -3.49798e-15 -1.51548e-15)
(0.953238 -4.84836e-16 -2.36471e-16)
(0.9545 -3.49032e-15 -1.52288e-15)
(0.9545 -4.91839e-16 -2.41322e-16)
(0.955749 -3.48142e-15 -1.53019e-15)
(0.955749 -4.97803e-16 -2.46273e-16)
(0.956985 -3.47346e-15 -1.53745e-15)
(0.956985 -5.03713e-16 -2.51089e-16)
(0.958209 -3.46564e-15 -1.54455e-15)
(0.958209 -5.12009e-16 -2.56248e-16)
(0.959419 -3.45615e-15 -1.55123e-15)
(0.959419 -5.20362e-16 -2.61626e-16)
(0.960618 -3.4484e-15 -1.558e-15)
(0.960618 -5.27183e-16 -2.66843e-16)
(0.961803 -3.44111e-15 -1.5647e-15)
(0.961803 -5.36177e-16 -2.71931e-16)
(0.962977 -3.43032e-15 -1.57138e-15)
(0.962977 -5.46257e-16 -2.77258e-16)
(0.964137 -3.41938e-15 -1.57802e-15)
(0.964137 -5.54731e-16 -2.82775e-16)
(0.965286 -3.4085e-15 -1.5847e-15)
(0.965286 -5.64497e-16 -2.8828e-16)
(0.966421 -3.39871e-15 -1.5913e-15)
(0.966421 -5.73014e-16 -2.93808e-16)
(0.967545 -3.38797e-15 -1.59767e-15)
(0.967545 -5.81199e-16 -2.99689e-16)
(0.968656 -3.37684e-15 -1.60371e-15)
(0.968656 -5.8954e-16 -3.05762e-16)
(0.969755 -3.36742e-15 -1.60957e-15)
(0.969755 -5.99468e-16 -3.11683e-16)
(0.970841 -3.35801e-15 -1.61537e-15)
(0.970841 -6.08445e-16 -3.17682e-16)
(0.971916 -3.34976e-15 -1.62095e-15)
(0.971916 -6.18373e-16 -3.23842e-16)
(0.972978 -3.33958e-15 -1.62651e-15)
(0.972978 -6.29956e-16 -3.29908e-16)
(0.974028 -3.32829e-15 -1.63195e-15)
(0.974028 -6.39762e-16 -3.36131e-16)
(0.975066 -3.31783e-15 -1.6372e-15)
(0.975066 -6.5131e-16 -3.42382e-16)
(0.976091 -3.30521e-15 -1.64233e-15)
(0.976091 -6.64037e-16 -3.48804e-16)
(0.977105 -3.29336e-15 -1.64721e-15)
(0.977105 -6.73442e-16 -3.55429e-16)
(0.978106 -3.28326e-15 -1.65186e-15)
(0.978106 -6.81906e-16 -3.61931e-16)
(0.979096 -3.27344e-15 -1.65622e-15)
(0.979096 -6.94747e-16 -3.68691e-16)
(0.980073 -3.26315e-15 -1.66045e-15)
(0.980073 -7.03834e-16 -3.75352e-16)
(0.981039 -3.25374e-15 -1.66431e-15)
(0.981039 -7.10293e-16 -3.82117e-16)
(0.981992 -3.24479e-15 -1.6678e-15)
(0.981992 -7.20121e-16 -3.89232e-16)
(0.982934 -3.23515e-15 -1.6706e-15)
(0.982934 -7.26597e-16 -3.96763e-16)
(0.983864 -3.22565e-15 -1.67318e-15)
(0.983864 -7.32935e-16 -4.03772e-16)
(0.984781 -3.21507e-15 -1.67574e-15)
(0.984781 -7.41352e-16 -4.10758e-16)
(0.985687 -3.20417e-15 -1.67767e-15)
(0.985687 -7.49365e-16 -4.18449e-16)
(0.986581 -3.19273e-15 -1.67927e-15)
(0.986581 -7.57041e-16 -4.25886e-16)
(0.987463 -3.18065e-15 -1.68063e-15)
(0.987463 -7.66107e-16 -4.33369e-16)
(0.988333 -3.16846e-15 -1.68178e-15)
(0.988333 -7.75163e-16 -4.40931e-16)
(0.989191 -3.15832e-15 -1.68261e-15)
(0.989191 -7.84037e-16 -4.48646e-16)
(0.990038 -3.14627e-15 -1.68315e-15)
(0.990038 -7.92633e-16 -4.56241e-16)
(0.990872 -3.13281e-15 -1.68359e-15)
(0.990872 -8.00395e-16 -4.63901e-16)
(0.991695 -3.12031e-15 -1.68323e-15)
(0.991695 -8.07671e-16 -4.72283e-16)
(0.992506 -3.10591e-15 -1.68267e-15)
(0.992506 -8.16805e-16 -4.80437e-16)
(0.993305 -3.09381e-15 -1.6819e-15)
(0.993305 -8.25665e-16 -4.88435e-16)
(0.994092 -3.08165e-15 -1.68071e-15)
(0.994092 -8.35687e-16 -4.96487e-16)
(0.994868 -3.0681e-15 -1.67927e-15)
(0.994868 -8.47137e-16 -5.04706e-16)
(0.995631 -3.05793e-15 -1.67758e-15)
(0.995631 -8.55436e-16 -5.12817e-16)
(0.996383 -3.04584e-15 -1.67561e-15)
(0.996383 -8.64946e-16 -5.20947e-16)
(0.997123 -3.03142e-15 -1.67327e-15)
(0.997123 -8.74346e-16 -5.2925e-16)
(0.997851 -3.01796e-15 -1.67056e-15)
(0.997851 -8.8357e-16 -5.37356e-16)
(0.998568 -3.00486e-15 -1.66736e-15)
(0.998568 -8.95488e-16 -5.45955e-16)
(0.999272 -2.99171e-15 -1.66386e-15)
(0.999272 -9.05625e-16 -5.54313e-16)
(0.999965 -2.97822e-15 -1.66008e-15)
(0.999965 -9.14367e-16 -5.62574e-16)
(1.00065 -2.96441e-15 -1.65558e-15)
(1.00065 -9.24014e-16 -5.77691e-16)
(1.00131 -2.94868e-15 -1.65055e-15)
(1.00131 -9.31847e-16 -5.96898e-16)
(1.00197 -2.93246e-15 -1.64543e-15)
(1.00197 -9.40647e-16 -6.15636e-16)
(1.00262 -2.91624e-15 -1.63953e-15)
(1.00262 -9.50202e-16 -6.34868e-16)
(1.00325 -2.89931e-15 -1.63323e-15)
(1.00325 -9.6091e-16 -6.53935e-16)
(1.00387 -2.88246e-15 -1.62642e-15)
(1.00387 -9.72362e-16 -6.73195e-16)
(1.00448 -2.86502e-15 -1.61896e-15)
(1.00448 -9.84368e-16 -6.92785e-16)
(1.00508 -2.84653e-15 -1.61162e-15)
(1.00508 -9.93819e-16 -7.12085e-16)
(1.00566 -2.83022e-15 -1.60448e-15)
(1.00566 -1.00145e-15 -7.30982e-16)
(1.00624 -2.81408e-15 -1.59599e-15)
(1.00624 -1.01041e-15 -7.50436e-16)
(1.0068 -2.79404e-15 -1.58658e-15)
(1.0068 -1.02234e-15 -7.7005e-16)
(1.00735 -2.77436e-15 -1.58799e-15)
(1.00735 -1.03501e-15 -7.89637e-16)
(1.00789 -2.75426e-15 -1.58964e-15)
(1.00789 -1.04956e-15 -8.09186e-16)
(1.00842 -2.73264e-15 -1.59046e-15)
(1.00842 -1.0622e-15 -8.2835e-16)
(1.00893 -2.71529e-15 -1.59083e-15)
(1.00893 -1.07187e-15 -8.47236e-16)
(1.00943 -2.70039e-15 -1.5906e-15)
(1.00943 -1.08678e-15 -8.65709e-16)
(1.00992 -2.68611e-15 -1.5901e-15)
(1.00992 -1.09656e-15 -8.84246e-16)
(1.0104 -2.67063e-15 -1.58949e-15)
(1.0104 -1.1063e-15 -9.0264e-16)
(1.01087 -2.65508e-15 -1.58773e-15)
(1.01087 -1.1187e-15 -9.20277e-16)
(1.01132 -2.63951e-15 -1.58543e-15)
(1.01132 -1.12964e-15 -9.37274e-16)
(1.01177 -2.62234e-15 -1.58282e-15)
(1.01177 -1.14267e-15 -9.5424e-16)
(1.0122 -2.61033e-15 -1.58006e-15)
(1.0122 -1.15212e-15 -9.70266e-16)
(1.01262 -2.59806e-15 -1.57563e-15)
(1.01262 -1.16086e-15 -9.86594e-16)
(1.01302 -2.58189e-15 -1.57053e-15)
(1.01302 -1.16956e-15 -1.00236e-15)
(1.01342 -2.56926e-15 -1.56486e-15)
(1.01342 -1.17771e-15 -1.01766e-15)
(1.0138 -2.55829e-15 -1.55891e-15)
(1.0138 -1.18494e-15 -1.03188e-15)
(1.01418 -2.54644e-15 -1.55225e-15)
(1.01418 -1.19572e-15 -1.04603e-15)
(1.01454 -2.53361e-15 -1.54395e-15)
(1.01454 -1.20463e-15 -1.06022e-15)
(1.01489 -2.51903e-15 -1.53471e-15)
(1.01489 -1.21212e-15 -1.07316e-15)
(1.01522 -2.50081e-15 -1.52473e-15)
(1.01522 -1.22079e-15 -1.08528e-15)
(1.01555 -2.48478e-15 -1.51418e-15)
(1.01555 -1.22621e-15 -1.09699e-15)
(1.01587 -2.47524e-15 -1.50316e-15)
(1.01587 -1.23449e-15 -1.10781e-15)
(1.01617 -2.46771e-15 -1.49136e-15)
(1.01617 -1.24574e-15 -1.11777e-15)
(1.01646 -2.45362e-15 -1.47827e-15)
(1.01646 -1.25975e-15 -1.12657e-15)
(1.01675 -2.43701e-15 -1.46416e-15)
(1.01675 -1.26587e-15 -1.13435e-15)