/*--------------------------------*- C++ -*----------------------------------*\
| =========                 |                                                 |
| \\      /  F ield         | OpenFOAM: The Open Source CFD Toolbox           |
|  \\    /   O peration     | Version:  2012                                  |
|   \\  /    A nd           | Website:  www.openfoam.com                      |
|    \\/     M anipulation  |                                                 |
\*---------------------------------------------------------------------------*/
FoamFile
{
    version     2.0;
    format      ascii;
    class       surfaceScalarField;
    location    "13000";
    object      phi;
}
// * * * * * * * * * * * * * * * * * * * * * * * * * * * * * * * * * * * * * //

dimensions      [0 3 -1 0 0 0 0];
oriented        oriented;


internalField   nonuniform List<scalar> 
316
(
4.6983e-06
4.14352e-18
1.52184e-20
-1.66939e-20
1.57391e-20
1.95687e-05
3.75018e-18
1.82275e-19
1.08292e-19
8.89855e-20
4.67435e-05
3.18573e-18
2.64427e-19
2.50272e-19
1.43528e-19
9.17601e-05
2.59902e-18
3.05046e-19
3.58441e-19
1.82335e-19
0.000154292
2.0622e-18
2.9846e-19
3.95069e-19
1.93537e-19
0.000232932
1.51243e-18
2.7179e-19
5.00792e-19
1.91496e-19
0.000332054
1.07868e-18
2.31681e-19
4.94985e-19
1.76783e-19
0.000458632
7.0856e-19
1.7054e-19
5.11437e-19
1.44632e-19
0.000621227
5.41752e-19
9.96473e-20
5.25692e-19
9.04398e-20
0.000830507
5.50188e-19
3.28124e-20
5.97926e-19
3.02511e-20
0.00110002
6.04557e-19
-1.43754e-20
7.03717e-19
-2.69647e-20
0.00144716
8.17009e-19
-4.1552e-20
8.46824e-19
-7.59052e-20
0.00189431
9.75108e-19
-2.54654e-20
1.07568e-18
-9.19754e-20
0.00247027
1.2436e-18
1.21839e-19
1.07547e-18
-2.52826e-20
0.00321204
1.35919e-18
1.05989e-19
1.43538e-18
-1.29605e-20
0.00416698
1.56016e-18
4.01759e-19
1.5487e-18
4.07757e-19
0.00539535
1.5165e-18
-3.43335e-19
1.46867e-18
4.00653e-20
0.00697294
1.8641e-18
-2.20858e-20
1.91121e-18
2.64555e-19
0.00899253
1.40905e-18
5.18853e-19
1.29623e-18
4.31473e-19
0.011556
-1.40459e-18
4.12074e-19
6.37219e-19
4.76214e-19
4.6983e-06
1.64181e-20
1.4487e-20
1.95687e-05
1.80361e-19
1.26241e-19
4.67435e-05
4.12385e-19
3.22823e-19
9.17601e-05
6.83163e-19
5.50122e-19
0.000154292
9.32323e-19
8.01248e-19
0.000232932
1.1726e-18
1.07577e-18
0.000332054
1.33407e-18
1.31238e-18
0.000458632
1.56277e-18
1.51202e-18
0.000621227
1.67597e-18
1.69579e-18
0.000830507
1.6553e-18
1.65425e-18
0.00110002
1.49426e-18
1.52188e-18
0.00144716
1.52125e-18
1.48358e-18
0.00189431
1.61047e-18
1.62948e-18
0.00247027
1.55638e-18
1.45068e-18
0.00321204
1.68701e-18
1.84144e-18
0.00416698
1.43893e-18
1.53916e-18
0.00539535
1.64164e-18
1.57817e-18
0.00697294
1.94221e-18
1.93375e-18
0.00899253
1.19571e-18
1.21053e-18
0.011556
4.11623e-19
3.90726e-19
0.011556
6.78951e-19
4.32238e-19
6.97107e-19
3.43952e-19
0.00899253
8.16426e-19
-6.55094e-19
7.26271e-19
-5.93252e-20
0.00697294
2.26088e-19
-3.206e-19
3.38774e-19
1.31128e-20
0.00539535
-1.05321e-19
-1.77367e-19
-1.05855e-19
-3.95969e-19
0.00416698
-8.77828e-20
-1.07961e-19
-1.49543e-19
-8.1294e-20
0.00321204
-2.59743e-19
-8.32227e-20
-2.7649e-19
-1.27161e-19
0.00247027
-9.28697e-21
-3.0969e-21
-4.55576e-20
-3.25784e-20
0.00189431
-9.07243e-20
-1.87576e-20
-1.04566e-19
-7.3114e-20
0.00144716
-2.14346e-20
3.61602e-20
-9.87805e-20
2.183e-20
0.00110002
-1.35744e-19
1.08333e-20
4.15931e-20
1.18963e-20
0.000830507
-1.06139e-19
1.17594e-20
-3.24111e-20
-6.21262e-22
0.000621227
-1.33066e-20
5.03258e-21
4.08977e-22
5.23731e-21
0.000458632
1.11366e-20
1.95908e-21
-1.83568e-21
3.5766e-21
0.000332054
-1.23032e-20
1.84133e-21
2.37759e-20
2.93599e-21
0.000232932
-1.81454e-22
1.32768e-21
-6.71672e-21
2.26805e-21
0.000154292
1.52232e-20
1.15718e-21
-1.04806e-20
2.74918e-21
9.17601e-05
1.35916e-20
1.17241e-21
-6.28133e-21
2.67183e-21
4.67435e-05
4.08786e-21
8.31669e-22
3.97905e-21
2.10953e-21
1.95687e-05
1.53292e-22
5.12921e-22
5.50519e-22
1.27322e-21
4.6983e-06
1.75244e-23
1.70306e-22
0.011556
6.34788e-19
6.93963e-19
0.00899253
8.73548e-19
7.62231e-19
0.00697294
2.44011e-19
2.68643e-19
0.00539535
-5.18025e-20
2.01462e-20
0.00416698
-3.45207e-20
-1.16823e-19
0.00321204
-1.54176e-19
-1.5943e-19
0.00247027
3.62203e-20
-5.24327e-20
0.00189431
3.12647e-20
5.43095e-20
0.00144716
-1.26678e-19
-1.68346e-19
0.00110002
-1.40107e-19
-4.38228e-20
0.000830507
-1.39909e-19
5.97597e-21
0.000621227
-3.65593e-20
-2.49031e-20
0.000458632
-2.52778e-21
-3.19385e-20
0.000332054
-6.32098e-20
-2.57238e-20
0.000232932
-4.44151e-20
2.28521e-21
0.000154292
2.43247e-21
-9.26966e-21
9.17601e-05
-1.33401e-20
-2.28614e-21
4.67435e-05
-2.65292e-21
-2.2132e-21
1.95687e-05
-1.28443e-22
4.25003e-23
4.6983e-06
)
;

boundaryField
{
    walls
    {
        type            calculated;
        value           uniform 0;
    }
    inlet
    {
        type            cyclic;
        value           nonuniform List<scalar> 
80
(
-4.6983e-06
-1.95687e-05
-4.67435e-05
-9.17601e-05
-0.000154292
-0.000232932
-0.000332054
-0.000458632
-0.000621227
-0.000830507
-0.00110002
-0.00144716
-0.00189431
-0.00247027
-0.00321204
-0.00416698
-0.00539535
-0.00697294
-0.00899253
-0.011556
-4.6983e-06
-1.95687e-05
-4.67435e-05
-9.17601e-05
-0.000154292
-0.000232932
-0.000332054
-0.000458632
-0.000621227
-0.000830507
-0.00110002
-0.00144716
-0.00189431
-0.00247027
-0.00321204
-0.00416698
-0.00539535
-0.00697294
-0.00899253
-0.011556
-0.011556
-0.00899253
-0.00697294
-0.00539535
-0.00416698
-0.00321204
-0.00247027
-0.00189431
-0.00144716
-0.00110002
-0.000830507
-0.000621227
-0.000458632
-0.000332054
-0.000232932
-0.000154292
-9.17601e-05
-4.67435e-05
-1.95687e-05
-4.6983e-06
-0.011556
-0.00899253
-0.00697294
-0.00539535
-0.00416698
-0.00321204
-0.00247027
-0.00189431
-0.00144716
-0.00110002
-0.000830507
-0.000621227
-0.000458632
-0.000332054
-0.000232932
-0.000154292
-9.17601e-05
-4.67435e-05
-1.95687e-05
-4.6983e-06
)
;
    }
    outlet
    {
        type            cyclic;
        value           nonuniform List<scalar> 
80
(
4.6983e-06
1.95687e-05
4.67435e-05
9.17601e-05
0.000154292
0.000232932
0.000332054
0.000458632
0.000621227
0.000830507
0.00110002
0.00144716
0.00189431
0.00247027
0.00321204
0.00416698
0.00539535
0.00697294
0.00899253
0.011556
4.6983e-06
1.95687e-05
4.67435e-05
9.17601e-05
0.000154292
0.000232932
0.000332054
0.000458632
0.000621227
0.000830507
0.00110002
0.00144716
0.00189431
0.00247027
0.00321204
0.00416698
0.00539535
0.00697294
0.00899253
0.011556
0.011556
0.00899253
0.00697294
0.00539535
0.00416698
0.00321204
0.00247027
0.00189431
0.00144716
0.00110002
0.000830507
0.000621227
0.000458632
0.000332054
0.000232932
0.000154292
9.17601e-05
4.67435e-05
1.95687e-05
4.6983e-06
0.011556
0.00899253
0.00697294
0.00539535
0.00416698
0.00321204
0.00247027
0.00189431
0.00144716
0.00110002
0.000830507
0.000621227
0.000458632
0.000332054
0.000232932
0.000154292
9.17601e-05
4.67435e-05
1.95687e-05
4.6983e-06
)
;
    }
    sides
    {
        type            empty;
        value           nonuniform List<scalar> 0();
    }
}


// ************************************************************************* //
