/*--------------------------------*- C++ -*----------------------------------*\
| =========                 |                                                 |
| \\      /  F ield         | OpenFOAM: The Open Source CFD Toolbox           |
|  \\    /   O peration     | Version:  2106                                  |
|   \\  /    A nd           | Website:  www.openfoam.com                      |
|    \\/     M anipulation  |                                                 |
\*---------------------------------------------------------------------------*/
FoamFile
{
    version     2.0;
    format      ascii;
    arch        "LSB;label=32;scalar=64";
    class       volScalarField;
    location    "15000";
    object      p;
}
// * * * * * * * * * * * * * * * * * * * * * * * * * * * * * * * * * * * * * //

dimensions      [0 2 -2 0 0 0 0];

internalField   nonuniform List<scalar> 
2560
(
2.20605e-15
-4.9779e-15
4.76292e-15
-4.97866e-15
4.80912e-15
-4.9798e-15
4.14151e-15
-4.98153e-15
3.63802e-15
-4.98387e-15
3.28105e-15
-4.98685e-15
2.95414e-15
-4.99045e-15
2.62871e-15
-4.99468e-15
2.30676e-15
-4.99956e-15
1.99057e-15
-5.00507e-15
1.68026e-15
-5.01123e-15
1.3756e-15
-5.01801e-15
1.07653e-15
-5.02539e-15
7.83033e-16
-5.0334e-15
4.94982e-16
-5.042e-15
2.12305e-16
-5.05118e-15
-6.50728e-17
-5.06091e-15
-3.37208e-16
-5.07127e-15
-6.04216e-16
-5.08224e-15
-8.66019e-16
-5.09382e-15
-1.12287e-15
-5.10601e-15
-1.37494e-15
-5.11864e-15
-1.62219e-15
-5.13178e-15
-1.8646e-15
-5.14546e-15
-2.10242e-15
-5.15972e-15
-2.33566e-15
-5.17463e-15
-2.56449e-15
-5.19006e-15
-2.78879e-15
-5.20588e-15
-3.00876e-15
-5.2221e-15
-3.2246e-15
-5.23884e-15
-3.43642e-15
-5.25616e-15
-3.64429e-15
-5.27424e-15
-3.8485e-15
-5.2927e-15
-4.04894e-15
-5.31157e-15
-4.24569e-15
-5.33097e-15
-4.43917e-15
-5.35088e-15
-4.6294e-15
-5.3714e-15
-4.81638e-15
-5.39246e-15
-5.00028e-15
-5.41409e-15
-5.18138e-15
-5.4363e-15
-5.35994e-15
-5.459e-15
-5.53602e-15
-5.4822e-15
-5.70964e-15
-5.50606e-15
-5.88114e-15
-5.53059e-15
-6.0505e-15
-5.55601e-15
-6.21797e-15
-5.58222e-15
-6.38402e-15
-5.60904e-15
-6.54849e-15
-5.63659e-15
-6.71191e-15
-5.66477e-15
-6.87436e-15
-5.69383e-15
-7.03553e-15
-5.72366e-15
-7.19618e-15
-5.75439e-15
-7.35648e-15
-5.78593e-15
-7.51634e-15
-5.81829e-15
-7.67616e-15
-5.85138e-15
-7.83607e-15
-5.88495e-15
-7.99598e-15
-5.9194e-15
-8.15599e-15
-5.95487e-15
-8.31649e-15
-5.99136e-15
-8.47782e-15
-6.02841e-15
-8.63946e-15
-6.06652e-15
-8.80164e-15
-6.10558e-15
-8.96469e-15
-6.14587e-15
-9.12843e-15
-6.18727e-15
-9.29333e-15
-6.22926e-15
-9.45961e-15
-6.27223e-15
-9.62704e-15
-6.3162e-15
-9.79542e-15
-6.36088e-15
-9.96535e-15
-6.40656e-15
-1.0136e-14
-6.45235e-15
-1.03086e-14
-6.49912e-15
-1.04827e-14
-6.54713e-15
-1.06578e-14
-6.5964e-15
-1.08335e-14
-6.64721e-15
-1.10104e-14
-6.69895e-15
-1.11888e-14
-6.75222e-15
-1.13688e-14
-6.80701e-15
-1.15499e-14
-6.86268e-15
-1.17327e-14
-6.91984e-15
-1.19167e-14
-6.97814e-15
-1.2103e-14
-7.03688e-15
-1.22917e-14
-7.09841e-15
-1.24803e-14
-7.16272e-15
-1.26709e-14
-7.22667e-15
-1.28644e-14
-7.29052e-15
-1.30589e-14
-7.35565e-15
-1.32551e-14
-7.42236e-15
-1.34528e-14
-7.49175e-15
-1.3652e-14
-7.5619e-15
-1.3853e-14
-7.632e-15
-1.40563e-14
-7.70311e-15
-1.42616e-14
-7.77555e-15
-1.44697e-14
-7.84767e-15
-1.46798e-14
-7.92096e-15
-1.48912e-14
-7.99698e-15
-1.51065e-14
-8.07321e-15
-1.53206e-14
-8.14873e-15
-1.55396e-14
-8.22256e-15
-1.57643e-14
-8.29794e-15
-1.5989e-14
-8.37647e-15
-1.62136e-14
-8.45725e-15
-1.64391e-14
-8.5393e-15
-1.66691e-14
-8.62339e-15
-1.68992e-14
-8.70766e-15
-1.71287e-14
-8.79284e-15
-1.73593e-14
-8.87972e-15
-1.75922e-14
-8.96725e-15
-1.78255e-14
-9.05529e-15
-1.80603e-14
-9.14647e-15
-1.82968e-14
-9.23692e-15
-1.8534e-14
-9.32928e-15
-1.87731e-14
-9.42054e-15
-1.90133e-14
-9.51725e-15
-1.92527e-14
-9.61443e-15
-1.94935e-14
-9.70991e-15
-1.97378e-14
-9.80544e-15
-1.99808e-14
-9.90379e-15
-2.02246e-14
-1.00028e-14
-2.04715e-14
-1.01022e-14
-2.07166e-14
-1.02027e-14
-2.09622e-14
-1.03115e-14
-2.12125e-14
-1.0422e-14
-2.14627e-14
-1.05372e-14
-2.17129e-14
-1.06548e-14
-2.19624e-14
-1.07777e-14
-2.22146e-14
-1.08983e-14
-2.24677e-14
-1.10226e-14
-2.27197e-14
-1.11504e-14
-2.29666e-14
-1.12879e-14
-2.32152e-14
-1.14305e-14
-2.34592e-14
-1.15759e-14
-2.37077e-14
-1.1717e-14
-2.395e-14
-1.18625e-14
-2.41908e-14
-1.20141e-14
-2.44372e-14
-1.21627e-14
-2.46807e-14
-1.23123e-14
-2.4926e-14
-1.24672e-14
-2.51782e-14
-1.26201e-14
-2.54263e-14
-1.27637e-14
-2.56731e-14
-1.2916e-14
-2.59259e-14
-1.3079e-14
-2.61737e-14
-1.32336e-14
-2.64216e-14
-1.33863e-14
-2.6663e-14
-1.35555e-14
-2.68985e-14
-1.37267e-14
-2.71332e-14
-1.38994e-14
-2.73582e-14
-1.40755e-14
-2.75788e-14
-1.42641e-14
-2.77979e-14
-1.44577e-14
-2.80184e-14
-1.46534e-14
-2.82361e-14
-1.48532e-14
-2.84444e-14
-1.50518e-14
-2.86534e-14
-1.52486e-14
-2.88591e-14
-1.54529e-14
-2.90766e-14
-1.56619e-14
-2.92921e-14
-1.58799e-14
-2.95062e-14
-1.60991e-14
-2.97171e-14
-1.63041e-14
-2.99206e-14
-1.65091e-14
-3.0125e-14
-1.67336e-14
-3.03284e-14
-1.6967e-14
-3.05292e-14
-1.7204e-14
-3.07207e-14
-1.74465e-14
-3.09009e-14
-1.76889e-14
-3.10884e-14
-1.79383e-14
-3.12638e-14
-1.81943e-14
-3.14278e-14
-1.84514e-14
-3.15963e-14
-1.87091e-14
-3.1755e-14
-1.8972e-14
-3.19096e-14
-1.92346e-14
-3.20558e-14
-1.94913e-14
-3.21894e-14
-1.97468e-14
-3.23212e-14
-2.0011e-14
-3.24521e-14
-2.02732e-14
-3.25674e-14
-2.05381e-14
-3.26782e-14
-2.08158e-14
-3.2785e-14
-2.10956e-14
-3.28836e-14
-2.13722e-14
-3.29796e-14
-2.164e-14
-3.30738e-14
-2.19041e-14
-3.31618e-14
-2.21693e-14
-3.32495e-14
-2.24407e-14
-3.33376e-14
-2.27129e-14
-3.34163e-14
-2.29701e-14
-3.34915e-14
-2.32224e-14
-3.35693e-14
-2.34908e-14
-3.36449e-14
-2.37594e-14
-3.37245e-14
-2.40281e-14
-3.37983e-14
-2.42969e-14
-3.3872e-14
-2.45553e-14
-3.39413e-14
-2.4819e-14
-3.40068e-14
-2.50933e-14
-3.40691e-14
-2.53731e-14
-3.41181e-14
-2.56374e-14
-3.4165e-14
-2.58919e-14
-3.42103e-14
-2.61788e-14
-3.42596e-14
-2.64512e-14
-3.43027e-14
-2.66936e-14
-3.4335e-14
-2.69484e-14
-3.43671e-14
-2.72163e-14
-3.43942e-14
-2.74607e-14
-3.44429e-14
-2.7698e-14
-3.44873e-14
-2.79393e-14
-3.45277e-14
-2.81797e-14
-3.45645e-14
-2.84198e-14
-3.45979e-14
-2.86602e-14
-3.46388e-14
-2.88806e-14
-3.46769e-14
-2.91026e-14
-3.47126e-14
-2.93268e-14
-3.47461e-14
-2.95433e-14
-3.47881e-14
-2.97425e-14
-3.4839e-14
-2.99562e-14
-3.48885e-14
-3.01851e-14
-3.49366e-14
-3.03882e-14
-3.49734e-14
-3.05869e-14
-3.50094e-14
-3.07507e-14
-3.50449e-14
-3.09426e-14
-3.50904e-14
-3.11528e-14
-3.51458e-14
-3.13509e-14
-3.52008e-14
-3.15169e-14
-3.52455e-14
-3.17135e-14
-3.53006e-14
-3.19205e-14
-3.53657e-14
-3.20977e-14
-3.54205e-14
-3.22558e-14
-3.54856e-14
-3.24365e-14
-3.55304e-14
-3.26505e-14
-3.55952e-14
-3.28273e-14
-3.5649e-14
-3.29983e-14
-3.57122e-14
-3.31642e-14
-3.57845e-14
-3.33462e-14
-3.58354e-14
-3.35551e-14
-3.58944e-14
-3.37517e-14
-3.59608e-14
-3.38864e-14
-3.60244e-14
-3.4071e-14
-3.60946e-14
-3.42662e-14
-3.61706e-14
-3.44227e-14
-3.62219e-14
-3.46018e-14
-3.62976e-14
-3.47644e-14
-3.63671e-14
-3.49617e-14
-3.6449e-14
-3.51455e-14
-3.65223e-14
-3.53175e-14
-3.66058e-14
-3.55088e-14
-3.66881e-14
-3.56914e-14
-3.67879e-14
-3.58571e-14
-3.68748e-14
-3.60269e-14
-3.69675e-14
-3.61438e-14
-3.70661e-14
-3.62658e-14
-3.71509e-14
-3.64316e-14
-3.72787e-14
-3.66033e-14
-3.73907e-14
-3.6782e-14
-3.74671e-14
-3.69692e-14
-3.75633e-14
-3.70714e-14
-3.766e-14
-3.72222e-14
-3.77753e-14
-3.73085e-14
-3.78722e-14
-3.74241e-14
-3.79695e-14
-3.76069e-14
-3.80459e-14
-3.77837e-14
-3.81177e-14
-3.79203e-14
-3.82204e-14
-3.80008e-14
-3.82984e-14
-3.81545e-14
-3.84043e-14
-3.82724e-14
-3.85012e-14
-3.84288e-14
-3.86418e-14
-3.85517e-14
-3.87354e-14
-3.86222e-14
-3.88558e-14
-3.8675e-14
-3.89149e-14
-3.87431e-14
-3.90557e-14
-3.88434e-14
-3.91006e-14
-3.89738e-14
-3.91177e-14
-3.90311e-14
-3.91753e-14
-3.90696e-14
-3.92206e-14
-3.91057e-14
-3.9271e-14
-3.91905e-14
-3.92901e-14
-3.92553e-14
-3.92582e-14
-3.92506e-14
-3.92244e-14
-3.9213e-14
-3.91713e-14
-3.91591e-14
-3.91487e-14
-3.91721e-14
-3.91538e-14
-3.91849e-14
-3.91188e-14
-3.91809e-14
-3.90756e-14
-3.91122e-14
-3.90076e-14
-3.90595e-14
-3.89627e-14
-3.90704e-14
-3.89528e-14
-3.90979e-14
-3.89437e-14
-3.9112e-14
-3.8933e-14
-3.90502e-14
-3.8954e-14
-3.89575e-14
-3.90284e-14
-3.89359e-14
-3.90202e-14
-3.89614e-14
-3.9023e-14
-3.88943e-14
-3.90413e-14
-3.88844e-14
-3.89841e-14
-3.88987e-14
-3.89702e-14
-3.89123e-14
-3.88772e-14
-3.88983e-14
-3.89091e-14
-3.88642e-14
-3.89496e-14
-3.88361e-14
-3.89165e-14
-3.88067e-14
-3.884e-14
-3.88325e-14
-3.88873e-14
-3.88355e-14
-3.8862e-14
-3.88123e-14
-3.88777e-14
-3.88213e-14
-3.88812e-14
-3.88626e-14
-3.89011e-14
-3.88286e-14
-3.88882e-14
-3.87949e-14
-3.88425e-14
-3.87841e-14
-3.88684e-14
-3.87985e-14
-3.8778e-14
-3.88095e-14
-3.87719e-14
-3.87746e-14
-3.8744e-14
-3.87723e-14
-3.86927e-14
-3.87267e-14
-3.86722e-14
-3.86907e-14
-3.86823e-14
-3.86633e-14
-3.87026e-14
-3.86666e-14
-3.86624e-14
-3.86473e-14
-3.86304e-14
-3.86333e-14
-3.86542e-14
-3.86275e-14
-3.86392e-14
-3.86488e-14
-3.86321e-14
-3.86304e-14
-3.86074e-14
-3.86186e-14
-3.86109e-14
-3.86167e-14
-3.85971e-14
-3.86005e-14
-1.64218e-14
-1.74007e-14
-1.64222e-14
-1.74008e-14
-1.64227e-14
-1.7401e-14
-1.64236e-14
-1.74013e-14
-1.64247e-14
-1.74018e-14
-1.64262e-14
-1.74024e-14
-1.6428e-14
-1.74031e-14
-1.64301e-14
-1.74039e-14
-1.64325e-14
-1.74048e-14
-1.64353e-14
-1.74059e-14
-1.64384e-14
-1.74071e-14
-1.64418e-14
-1.74085e-14
-1.64456e-14
-1.74099e-14
-1.64496e-14
-1.74116e-14
-1.64539e-14
-1.74133e-14
-1.64585e-14
-1.74152e-14
-1.64635e-14
-1.74172e-14
-1.64687e-14
-1.74195e-14
-1.64742e-14
-1.74219e-14
-1.648e-14
-1.74245e-14
-1.6486e-14
-1.74273e-14
-1.64924e-14
-1.74302e-14
-1.64989e-14
-1.74332e-14
-1.65058e-14
-1.74365e-14
-1.65127e-14
-1.744e-14
-1.652e-14
-1.74439e-14
-1.65275e-14
-1.74478e-14
-1.65353e-14
-1.74519e-14
-1.65432e-14
-1.74561e-14
-1.65514e-14
-1.74606e-14
-1.656e-14
-1.74655e-14
-1.65688e-14
-1.74705e-14
-1.65778e-14
-1.74756e-14
-1.6587e-14
-1.74809e-14
-1.65965e-14
-1.74864e-14
-1.66062e-14
-1.74923e-14
-1.66162e-14
-1.74983e-14
-1.66265e-14
-1.75045e-14
-1.6637e-14
-1.75113e-14
-1.66478e-14
-1.75183e-14
-1.66587e-14
-1.75256e-14
-1.667e-14
-1.7533e-14
-1.66816e-14
-1.75409e-14
-1.66932e-14
-1.75492e-14
-1.67052e-14
-1.75576e-14
-1.67176e-14
-1.75664e-14
-1.67303e-14
-1.75755e-14
-1.67434e-14
-1.75847e-14
-1.67569e-14
-1.75947e-14
-1.6771e-14
-1.7605e-14
-1.67854e-14
-1.76157e-14
-1.68004e-14
-1.76267e-14
-1.68156e-14
-1.7638e-14
-1.68315e-14
-1.76498e-14
-1.68478e-14
-1.76618e-14
-1.68646e-14
-1.76743e-14
-1.68819e-14
-1.76874e-14
-1.68997e-14
-1.77008e-14
-1.69182e-14
-1.77144e-14
-1.69372e-14
-1.77289e-14
-1.69567e-14
-1.77438e-14
-1.69768e-14
-1.77592e-14
-1.69977e-14
-1.77749e-14
-1.70191e-14
-1.77916e-14
-1.70412e-14
-1.78089e-14
-1.70634e-14
-1.78269e-14
-1.70862e-14
-1.78461e-14
-1.71099e-14
-1.78652e-14
-1.71344e-14
-1.78859e-14
-1.71595e-14
-1.79074e-14
-1.71853e-14
-1.79294e-14
-1.72116e-14
-1.79523e-14
-1.72386e-14
-1.79755e-14
-1.72663e-14
-1.79993e-14
-1.72951e-14
-1.80233e-14
-1.73247e-14
-1.80487e-14
-1.73541e-14
-1.8075e-14
-1.73843e-14
-1.81017e-14
-1.74156e-14
-1.81295e-14
-1.7449e-14
-1.81583e-14
-1.74825e-14
-1.8188e-14
-1.75169e-14
-1.82184e-14
-1.75513e-14
-1.82496e-14
-1.7587e-14
-1.82814e-14
-1.7623e-14
-1.8314e-14
-1.76603e-14
-1.83479e-14
-1.76987e-14
-1.83816e-14
-1.7738e-14
-1.84166e-14
-1.77777e-14
-1.84522e-14
-1.78181e-14
-1.84877e-14
-1.78583e-14
-1.85246e-14
-1.79007e-14
-1.8561e-14
-1.7944e-14
-1.85985e-14
-1.7988e-14
-1.86394e-14
-1.80328e-14
-1.86799e-14
-1.80775e-14
-1.872e-14
-1.8123e-14
-1.87595e-14
-1.81683e-14
-1.88011e-14
-1.82135e-14
-1.88474e-14
-1.82611e-14
-1.88933e-14
-1.83093e-14
-1.89388e-14
-1.83607e-14
-1.89848e-14
-1.84111e-14
-1.90314e-14
-1.84593e-14
-1.90803e-14
-1.85099e-14
-1.91289e-14
-1.85592e-14
-1.9179e-14
-1.86117e-14
-1.92316e-14
-1.86665e-14
-1.92794e-14
-1.87208e-14
-1.93306e-14
-1.87745e-14
-1.93817e-14
-1.88315e-14
-1.94288e-14
-1.88906e-14
-1.94786e-14
-1.89511e-14
-1.95302e-14
-1.90108e-14
-1.95817e-14
-1.90707e-14
-1.96321e-14
-1.91297e-14
-1.96824e-14
-1.91908e-14
-1.97327e-14
-1.92519e-14
-1.9783e-14
-1.93151e-14
-1.98303e-14
-1.93791e-14
-1.98796e-14
-1.94431e-14
-1.99311e-14
-1.95068e-14
-1.99858e-14
-1.95723e-14
-2.00406e-14
-1.96375e-14
-2.00925e-14
-1.97022e-14
-2.01456e-14
-1.97675e-14
-2.02001e-14
-1.98365e-14
-2.0256e-14
-1.99069e-14
-2.03089e-14
-1.99788e-14
-2.03655e-14
-2.00455e-14
-2.04257e-14
-2.01178e-14
-2.04809e-14
-2.01913e-14
-2.0531e-14
-2.02637e-14
-2.0585e-14
-2.03371e-14
-2.0645e-14
-2.04091e-14
-2.07e-14
-2.04797e-14
-2.07544e-14
-2.05487e-14
-2.08106e-14
-2.06205e-14
-2.08662e-14
-2.06927e-14
-2.09214e-14
-2.07653e-14
-2.09808e-14
-2.08311e-14
-2.1049e-14
-2.09086e-14
-2.11123e-14
-2.09836e-14
-2.11705e-14
-2.10584e-14
-2.12332e-14
-2.11351e-14
-2.13003e-14
-2.1216e-14
-2.13649e-14
-2.1301e-14
-2.14221e-14
-2.13827e-14
-2.14742e-14
-2.14658e-14
-2.15261e-14
-2.15526e-14
-2.1585e-14
-2.16429e-14
-2.16412e-14
-2.17318e-14
-2.17019e-14
-2.18215e-14
-2.17598e-14
-2.1907e-14
-2.1815e-14
-2.1993e-14
-2.18795e-14
-2.20793e-14
-2.19461e-14
-2.21632e-14
-2.20097e-14
-2.2257e-14
-2.20679e-14
-2.23455e-14
-2.2128e-14
-2.24285e-14
-2.21924e-14
-2.25133e-14
-2.22637e-14
-2.26021e-14
-2.23317e-14
-2.26771e-14
-2.24114e-14
-2.27607e-14
-2.24828e-14
-2.28375e-14
-2.25482e-14
-2.29274e-14
-2.26226e-14
-2.30302e-14
-2.26858e-14
-2.31306e-14
-2.27578e-14
-2.32283e-14
-2.28385e-14
-2.33281e-14
-2.29226e-14
-2.34349e-14
-2.29948e-14
-2.35331e-14
-2.30803e-14
-2.36276e-14
-2.31792e-14
-2.37232e-14
-2.32706e-14
-2.38351e-14
-2.33493e-14
-2.39425e-14
-2.34408e-14
-2.40399e-14
-2.35295e-14
-2.41529e-14
-2.35994e-14
-2.42504e-14
-2.36814e-14
-2.43475e-14
-2.37803e-14
-2.44388e-14
-2.38701e-14
-2.455e-14
-2.39557e-14
-2.466e-14
-2.40418e-14
-2.47687e-14
-2.41387e-14
-2.48758e-14
-2.42407e-14
-2.49704e-14
-2.43267e-14
-2.50681e-14
-2.44172e-14
-2.51632e-14
-2.45119e-14
-2.52608e-14
-2.46157e-14
-2.53603e-14
-2.47124e-14
-2.54614e-14
-2.48227e-14
-2.55691e-14
-2.4941e-14
-2.56778e-14
-2.50511e-14
-2.57869e-14
-2.51527e-14
-2.58963e-14
-2.5261e-14
-2.60004e-14
-2.53861e-14
-2.6104e-14
-2.55117e-14
-2.62384e-14
-2.56112e-14
-2.63664e-14
-2.57207e-14
-2.64721e-14
-2.58501e-14
-2.6592e-14
-2.59622e-14
-2.67153e-14
-2.60667e-14
-2.68524e-14
-2.61737e-14
-2.69767e-14
-2.62928e-14
-2.70933e-14
-2.64233e-14
-2.72124e-14
-2.65437e-14
-2.73335e-14
-2.66638e-14
-2.74565e-14
-2.67934e-14
-2.75705e-14
-2.69319e-14
-2.77065e-14
-2.70684e-14
-2.78537e-14
-2.72127e-14
-2.80223e-14
-2.73431e-14
-2.81601e-14
-2.75006e-14
-2.82772e-14
-2.76636e-14
-2.84146e-14
-2.78213e-14
-2.85823e-14
-2.79734e-14
-2.87387e-14
-2.81504e-14
-2.89041e-14
-2.83206e-14
-2.90472e-14
-2.84833e-14
-2.91988e-14
-2.86693e-14
-2.93581e-14
-2.8868e-14
-2.95455e-14
-2.90583e-14
-2.97193e-14
-2.92397e-14
-2.98999e-14
-2.94426e-14
-3.00767e-14
-2.9636e-14
-3.02596e-14
-2.98298e-14
-3.04691e-14
-3.00336e-14
-3.06437e-14
-3.02469e-14
-3.08238e-14
-3.04287e-14
-3.09991e-14
-3.06194e-14
-3.11797e-14
-3.08491e-14
-3.13545e-14
-3.10872e-14
-3.15532e-14
-3.12834e-14
-3.17353e-14
-3.14882e-14
-3.19309e-14
-3.17012e-14
-3.21194e-14
-3.19121e-14
-3.22906e-14
-3.2131e-14
-3.2494e-14
-3.2328e-14
-3.26795e-14
-3.25128e-14
-3.28873e-14
-3.27045e-14
-3.30878e-14
-3.2912e-14
-3.32812e-14
-3.31152e-14
-3.34773e-14
-3.33235e-14
-3.3676e-14
-3.3497e-14
-3.38582e-14
-3.36839e-14
-3.40339e-14
-3.39226e-14
-3.42602e-14
-3.41559e-14
-3.44593e-14
-3.43649e-14
-3.46703e-14
-3.45495e-14
-3.48357e-14
-3.47474e-14
-3.50319e-14
-3.49585e-14
-3.52204e-14
-3.51634e-14
-3.54011e-14
-3.53437e-14
-3.55742e-14
-3.55184e-14
-3.57586e-14
-3.56686e-14
-3.59741e-14
-3.58501e-14
-3.6128e-14
-3.60232e-14
-3.62769e-14
-3.61689e-14
-3.6477e-14
-3.63237e-14
-3.66741e-14
-3.64865e-14
-3.68149e-14
-3.66552e-14
-3.69909e-14
-3.68673e-14
-3.7183e-14
-3.70684e-14
-3.73178e-14
-3.72591e-14
-3.74848e-14
-3.74062e-14
-3.76664e-14
-3.75643e-14
-3.78287e-14
-3.77152e-14
-3.79721e-14
-3.78409e-14
-3.80986e-14
-3.79755e-14
-3.82096e-14
-3.80844e-14
-3.83235e-14
-3.81859e-14
-3.84241e-14
-3.82976e-14
-3.85117e-14
-3.83846e-14
-3.85876e-14
-3.83952e-14
-3.86052e-14
-3.84125e-14
-3.86344e-14
-3.84712e-14
-3.86585e-14
-3.85226e-14
-3.86771e-14
-3.85684e-14
-3.86724e-14
-3.85764e-14
-3.86946e-14
-3.85973e-14
-3.86787e-14
-3.86491e-14
-3.86719e-14
-3.86879e-14
-3.86399e-14
-3.87166e-14
-3.86597e-14
-3.87386e-14
-3.87147e-14
-3.87379e-14
-3.87612e-14
-3.87452e-14
-3.88182e-14
-3.87607e-14
-3.88087e-14
-3.87983e-14
-3.88242e-14
-3.87981e-14
-3.88657e-14
-3.87618e-14
-3.88155e-14
-3.87451e-14
-3.87646e-14
-3.87178e-14
-3.87403e-14
-3.86801e-14
-3.8776e-14
-3.86296e-14
-3.87877e-14
-3.86485e-14
-3.87743e-14
-3.86781e-14
-3.87044e-14
-3.86646e-14
-3.86617e-14
-3.86697e-14
-3.86956e-14
-3.86392e-14
-3.86407e-14
-3.86247e-14
-3.85766e-14
-3.86279e-14
-3.8578e-14
-3.86812e-14
-3.8637e-14
-3.8709e-14
-3.86475e-14
-3.87118e-14
-3.86409e-14
-3.87175e-14
-3.86682e-14
-3.87272e-14
-3.86825e-14
-3.86848e-14
-3.86378e-14
-3.86646e-14
-3.85577e-14
-3.86414e-14
-3.85649e-14
-3.85972e-14
-3.85613e-14
-3.85515e-14
-3.85253e-14
-3.85493e-14
-3.85772e-14
-3.85426e-14
-3.85513e-14
-3.8524e-14
-3.85491e-14
-3.85446e-14
-3.8515e-14
-3.85333e-14
-3.85436e-14
-3.8541e-14
-3.85411e-14
-3.85167e-14
-3.85126e-14
-3.85053e-14
-3.85262e-14
-3.85081e-14
-3.85886e-14
-3.85681e-14
-3.85858e-14
-3.8538e-14
-3.85196e-14
-3.85069e-14
-3.85294e-14
-3.85027e-14
-3.85469e-14
-3.84992e-14
-3.84764e-14
-3.8443e-14
-3.84658e-14
-3.83845e-14
-3.84495e-14
-3.83699e-14
-3.83491e-14
-3.83261e-14
-3.82794e-14
-3.82327e-14
-3.82686e-14
-3.8212e-14
-3.82176e-14
-3.81865e-14
-3.81782e-14
-3.81592e-14
-3.81992e-14
-3.81338e-14
-3.81813e-14
-3.80789e-14
-3.8126e-14
-3.80732e-14
-3.80779e-14
-3.80674e-14
-3.80315e-14
-3.80637e-14
-3.80385e-14
-3.80365e-14
-3.8049e-14
-3.80645e-14
-3.80935e-14
-3.80386e-14
-3.80369e-14
-3.80114e-14
-3.79882e-14
-3.79553e-14
-3.79746e-14
-3.79264e-14
-3.79975e-14
-3.78957e-14
-3.79455e-14
-3.78872e-14
-3.79023e-14
-3.78753e-14
-3.7893e-14
-3.78913e-14
-3.78534e-14
-3.78169e-14
-3.78471e-14
-3.77705e-14
-3.78787e-14
-3.78112e-14
-3.78251e-14
-3.77878e-14
-3.7775e-14
-3.77339e-14
-3.77925e-14
-3.76797e-14
-3.77394e-14
-3.76518e-14
-3.77087e-14
-3.76206e-14
-3.77178e-14
-3.7603e-14
-3.77525e-14
-3.75648e-14
-3.77194e-14
-3.75828e-14
-3.76806e-14
-3.75957e-14
-3.77158e-14
-3.75903e-14
-3.76957e-14
-3.75482e-14
-3.76027e-14
-3.7534e-14
-3.76328e-14
-3.75185e-14
-3.75707e-14
-3.74989e-14
-3.75653e-14
-3.74775e-14
-3.75838e-14
-3.74694e-14
-3.75593e-14
-3.74389e-14
-3.74728e-14
-3.74205e-14
-3.73895e-14
-3.73827e-14
-3.73772e-14
-3.73625e-14
-3.74017e-14
-3.73426e-14
-3.73764e-14
-3.73211e-14
-3.73189e-14
-3.72636e-14
-3.73175e-14
-3.72245e-14
-3.73392e-14
-3.71479e-14
-3.72976e-14
-3.70654e-14
-3.72838e-14
-3.70117e-14
-3.72621e-14
-3.69859e-14
-3.72507e-14
-3.69694e-14
-3.71938e-14
-3.69256e-14
-3.70894e-14
-3.6948e-14
-3.70628e-14
-3.69492e-14
-3.70202e-14
-3.68931e-14
-3.69623e-14
-3.68537e-14
-3.69071e-14
-3.68319e-14
-3.68914e-14
-3.68287e-14
-3.68585e-14
-3.67872e-14
-3.6828e-14
-3.67257e-14
-3.67814e-14
-3.67017e-14
-3.67372e-14
-3.664e-14
-3.67151e-14
-3.65784e-14
-3.66968e-14
-3.65151e-14
-3.66638e-14
-3.64874e-14
-3.66352e-14
-3.64568e-14
-3.65915e-14
-3.63843e-14
-3.65523e-14
-3.63473e-14
-3.65271e-14
-3.6376e-14
-3.65148e-14
-3.63834e-14
-3.64756e-14
-3.63303e-14
-3.64487e-14
-3.62854e-14
-3.64246e-14
-3.62582e-14
-3.64035e-14
-3.6249e-14
-3.63853e-14
-3.62283e-14
-3.63799e-14
-3.61958e-14
-3.63478e-14
-3.62013e-14
-3.63284e-14
-3.62052e-14
-3.63417e-14
-3.61982e-14
-3.63172e-14
-3.61801e-14
-3.62952e-14
-3.61811e-14
-3.6255e-14
-3.61709e-14
-3.62266e-14
-3.61399e-14
-3.62101e-14
-3.61084e-14
-3.61852e-14
-3.61069e-14
-3.61619e-14
-3.61052e-14
-3.61501e-14
-3.60521e-14
-3.61298e-14
-3.60295e-14
-3.61112e-14
-3.60064e-14
-3.60942e-14
-3.59933e-14
-3.60787e-14
-3.60006e-14
-3.60644e-14
-3.59665e-14
-3.60412e-14
-3.59323e-14
-3.60298e-14
-3.59186e-14
-3.60199e-14
-3.59043e-14
-3.60114e-14
-3.58893e-14
-3.59939e-14
-3.58527e-14
-3.59779e-14
-3.58361e-14
-3.5953e-14
-3.58396e-14
-3.59502e-14
-3.58322e-14
-3.59381e-14
-3.58136e-14
-3.59378e-14
-3.57944e-14
-3.59389e-14
-3.57744e-14
-3.59414e-14
-3.57956e-14
-3.59349e-14
-3.58057e-14
-3.59295e-14
-3.57838e-14
-3.59358e-14
-3.57613e-14
-3.59437e-14
-3.57802e-14
-3.59423e-14
-3.57986e-14
-3.59421e-14
-3.58062e-14
-3.59535e-14
-3.57976e-14
-3.59504e-14
-3.57887e-14
-3.59432e-14
-3.57793e-14
-3.59372e-14
-3.57749e-14
-3.59219e-14
-3.57754e-14
-3.59181e-14
-3.57703e-14
-3.59205e-14
-3.57491e-14
-3.59029e-14
-3.57538e-14
-3.58808e-14
-3.57689e-14
-3.58963e-14
-3.57681e-14
-3.59019e-14
-3.57619e-14
-3.58871e-14
-3.57608e-14
-3.58835e-14
-3.57595e-14
-3.58857e-14
-3.57687e-14
-3.58831e-14
-3.57673e-14
-3.58757e-14
-3.57606e-14
-3.58688e-14
-3.57801e-14
-3.58726e-14
-3.57997e-14
-3.58766e-14
-3.57933e-14
-3.58704e-14
-3.57817e-14
-3.58697e-14
-3.57651e-14
-3.58694e-14
-3.57641e-14
-3.58745e-14
-3.57631e-14
-3.58695e-14
-3.57622e-14
-3.58649e-14
-3.57666e-14
-3.58604e-14
-3.57606e-14
-3.58562e-14
-3.57495e-14
-3.58523e-14
-3.57437e-14
-3.58434e-14
-3.5738e-14
-3.58451e-14
-3.57323e-14
-3.58367e-14
-3.57216e-14
-3.58285e-14
-3.5716e-14
-3.58308e-14
-3.57207e-14
-3.58333e-14
-3.57202e-14
-3.5831e-14
-3.57146e-14
-3.58289e-14
-3.56988e-14
-3.58221e-14
-3.56881e-14
-3.58205e-14
-3.56722e-14
-3.58143e-14
-3.56563e-14
-3.58058e-14
-3.56529e-14
-3.58002e-14
-3.56468e-14
-3.57949e-14
-3.56406e-14
-3.57874e-14
-3.56293e-14
-3.57777e-14
-3.56179e-14
-3.57807e-14
-3.56088e-14
-3.5779e-14
-3.56021e-14
-3.57702e-14
-3.55903e-14
-3.57618e-14
-3.55807e-14
-3.57488e-14
-3.55613e-14
-3.5741e-14
-3.55563e-14
-3.57433e-14
-3.55608e-14
-3.57433e-14
-3.55603e-14
-3.57389e-14
-3.55548e-14
-3.57275e-14
-3.5549e-14
-3.5726e-14
-3.55407e-14
-3.57247e-14
-3.55394e-14
-3.5719e-14
-3.55402e-14
-3.57111e-14
-3.55385e-14
-3.57059e-14
-3.55437e-14
-3.57009e-14
-3.5551e-14
-3.56962e-14
-3.55419e-14
-3.5687e-14
-3.5535e-14
-3.5685e-14
-3.55326e-14
-3.56808e-14
-3.55301e-14
-3.56769e-14
-3.55252e-14
-3.56732e-14
-3.55224e-14
-3.56719e-14
-3.55242e-14
-3.56708e-14
-3.55213e-14
-3.56698e-14
-3.5516e-14
-3.56668e-14
-3.5513e-14
-3.56662e-14
-3.55098e-14
-3.56679e-14
-3.55044e-14
-3.56676e-14
-3.55033e-14
-3.56653e-14
-3.55042e-14
-3.56631e-14
-3.55029e-14
-3.56632e-14
-3.54973e-14
-3.56635e-14
-3.54937e-14
-3.56639e-14
-3.54922e-14
-3.56655e-14
-3.54906e-14
-3.56662e-14
-3.54869e-14
-3.5667e-14
-3.5481e-14
-3.5669e-14
-3.54802e-14
-3.5671e-14
-3.54794e-14
-3.56722e-14
-3.54795e-14
-3.56735e-14
-3.54765e-14
-3.56759e-14
-3.54724e-14
-3.56774e-14
-3.54693e-14
-3.5679e-14
-3.54691e-14
-3.56797e-14
-3.54697e-14
-3.56796e-14
-3.54713e-14
-3.56795e-14
-3.54728e-14
-3.56796e-14
-3.54722e-14
-3.56788e-14
-3.54726e-14
-3.56791e-14
-3.54738e-14
-3.56776e-14
-3.54768e-14
-3.56753e-14
-3.54769e-14
-3.56749e-14
-3.5477e-14
-3.56764e-14
-3.54798e-14
-3.56771e-14
-3.54815e-14
-3.56761e-14
-3.5485e-14
-3.5676e-14
-3.54858e-14
-3.56769e-14
-3.54873e-14
-3.56778e-14
-3.54905e-14
-3.56788e-14
-3.54937e-14
-3.56798e-14
-3.54959e-14
-3.56808e-14
-3.54973e-14
-3.56819e-14
-3.5501e-14
-3.56839e-14
-3.55039e-14
-3.56843e-14
-3.55059e-14
-3.56855e-14
-3.55062e-14
-3.56875e-14
-3.55061e-14
-3.56881e-14
-3.55088e-14
-3.56901e-14
-3.55128e-14
-3.56907e-14
-3.55157e-14
-3.5691e-14
-3.55174e-14
-3.56913e-14
-3.55187e-14
-3.5692e-14
-3.55195e-14
-3.56923e-14
-3.55207e-14
-3.56931e-14
-3.55233e-14
-3.56938e-14
-3.55248e-14
-3.56936e-14
-3.55255e-14
-3.56931e-14
-3.55266e-14
-3.56922e-14
-3.5528e-14
-3.56924e-14
-3.55286e-14
-3.56927e-14
-3.55296e-14
-3.56926e-14
-3.55312e-14
-3.56925e-14
-3.55321e-14
-3.56922e-14
-3.5533e-14
-3.56922e-14
-3.55335e-14
-3.56926e-14
-3.55344e-14
-3.56926e-14
-3.55352e-14
-3.56924e-14
-3.55357e-14
-3.56919e-14
-3.55362e-14
-3.56915e-14
-3.55375e-14
-3.56911e-14
-3.55382e-14
-3.56912e-14
-3.55378e-14
-3.56911e-14
-3.55374e-14
-3.56908e-14
-3.55372e-14
-3.56905e-14
-3.55375e-14
-3.56903e-14
-3.55377e-14
-3.56899e-14
-3.55376e-14
-3.56898e-14
-3.55375e-14
-3.56897e-14
-3.55372e-14
-3.56896e-14
-3.55364e-14
-3.56895e-14
-3.55357e-14
-3.56896e-14
-3.55354e-14
-3.56896e-14
-3.55352e-14
-3.56892e-14
-3.55349e-14
-3.56893e-14
-3.55348e-14
-3.56895e-14
-3.55346e-14
-3.56894e-14
-3.55344e-14
-3.56891e-14
-3.55342e-14
-3.56891e-14
-3.55342e-14
-3.56891e-14
-3.55343e-14
-3.5689e-14
-3.55343e-14
-3.5689e-14
-3.55342e-14
-3.56891e-14
-3.55341e-14
-3.5689e-14
-3.5534e-14
-3.56889e-14
-3.55339e-14
-3.56887e-14
-3.5534e-14
-3.56886e-14
-3.55341e-14
-3.56886e-14
-3.55341e-14
-3.56886e-14
-3.55341e-14
-3.56884e-14
-3.55342e-14
-3.56883e-14
-3.55343e-14
-3.56882e-14
-3.55345e-14
-3.56881e-14
-3.55346e-14
-3.5688e-14
-3.55345e-14
-3.56879e-14
-3.55345e-14
-3.56878e-14
-3.55345e-14
-3.56879e-14
-3.55344e-14
-3.56879e-14
-3.55345e-14
-3.56878e-14
-3.55345e-14
-3.56877e-14
-3.55346e-14
-3.56877e-14
-3.55347e-14
-3.56876e-14
-3.55348e-14
-3.56876e-14
-3.55347e-14
-3.56875e-14
-3.55347e-14
-3.56874e-14
-3.55346e-14
-3.56874e-14
-3.55346e-14
-3.56874e-14
-3.55346e-14
-3.56874e-14
-3.55346e-14
-3.56874e-14
-3.55345e-14
-3.56874e-14
-3.55344e-14
-3.56874e-14
-3.55344e-14
-3.56874e-14
-3.55343e-14
-3.56874e-14
-3.55343e-14
-3.56874e-14
-3.55343e-14
-3.56874e-14
-3.55343e-14
-3.56874e-14
-3.55344e-14
-3.56874e-14
-3.55344e-14
-3.56874e-14
-3.55343e-14
-3.56874e-14
-3.55343e-14
-3.56875e-14
-3.55343e-14
-3.56875e-14
-3.55343e-14
-3.56875e-14
-3.55343e-14
-3.56875e-14
-3.55343e-14
-3.56875e-14
-3.55343e-14
-3.56875e-14
-3.55343e-14
-3.56875e-14
-3.55343e-14
-3.56875e-14
-3.55343e-14
-3.85614e-14
-3.85001e-14
-3.85557e-14
-3.84517e-14
-3.85155e-14
-3.84527e-14
-3.84846e-14
-3.84394e-14
-3.84819e-14
-3.8439e-14
-3.84057e-14
-3.84027e-14
-3.83494e-14
-3.83123e-14
-3.83406e-14
-3.82617e-14
-3.83093e-14
-3.82436e-14
-3.82582e-14
-3.8211e-14
-3.81854e-14
-3.81706e-14
-3.80823e-14
-3.81517e-14
-3.80938e-14
-3.8086e-14
-3.80747e-14
-3.80411e-14
-3.80791e-14
-3.79596e-14
-3.80912e-14
-3.79661e-14
-3.80603e-14
-3.8008e-14
-3.8006e-14
-3.80415e-14
-3.79742e-14
-3.805e-14
-3.79032e-14
-3.80385e-14
-3.7925e-14
-3.79537e-14
-3.79076e-14
-3.79528e-14
-3.79089e-14
-3.79244e-14
-3.79052e-14
-3.78666e-14
-3.78725e-14
-3.78612e-14
-3.78352e-14
-3.78534e-14
-3.78514e-14
-3.78755e-14
-3.7894e-14
-3.78696e-14
-3.78477e-14
-3.78001e-14
-3.78043e-14
-3.77564e-14
-3.77934e-14
-3.77394e-14
-3.77832e-14
-3.76847e-14
-3.77156e-14
-3.76506e-14
-3.77446e-14
-3.76092e-14
-3.77015e-14
-3.75722e-14
-3.76331e-14
-3.75244e-14
-3.7633e-14
-3.7515e-14
-3.76536e-14
-3.74959e-14
-3.75989e-14
-3.74982e-14
-3.75626e-14
-3.74926e-14
-3.75432e-14
-3.74637e-14
-3.75566e-14
-3.74604e-14
-3.75212e-14
-3.74498e-14
-3.74702e-14
-3.74504e-14
-3.74669e-14
-3.74314e-14
-3.74456e-14
-3.74603e-14
-3.74209e-14
-3.74725e-14
-3.74419e-14
-3.74352e-14
-3.74086e-14
-3.73974e-14
-3.73393e-14
-3.73583e-14
-3.73382e-14
-3.73194e-14
-3.7337e-14
-3.72963e-14
-3.73005e-14
-3.72173e-14
-3.72835e-14
-3.7115e-14
-3.7218e-14
-3.71111e-14
-3.71902e-14
-3.70833e-14
-3.71816e-14
-3.70324e-14
-3.7176e-14
-3.6994e-14
-3.71562e-14
-3.70042e-14
-3.71578e-14
-3.69731e-14
-3.71636e-14
-3.69179e-14
-3.71207e-14
-3.68549e-14
-3.70857e-14
-3.68013e-14
-3.70027e-14
-3.67749e-14
-3.69629e-14
-3.67217e-14
-3.69105e-14
-3.66979e-14
-3.68633e-14
-3.67237e-14
-3.68001e-14
-3.67068e-14
-3.67573e-14
-3.6572e-14
-3.67179e-14
-3.64688e-14
-3.6664e-14
-3.64145e-14
-3.66341e-14
-3.64486e-14
-3.66071e-14
-3.64386e-14
-3.65632e-14
-3.64048e-14
-3.65409e-14
-3.63668e-14
-3.6521e-14
-3.63439e-14
-3.65038e-14
-3.62778e-14
-3.64805e-14
-3.62461e-14
-3.64708e-14
-3.62385e-14
-3.64647e-14
-3.62254e-14
-3.64329e-14
-3.62073e-14
-3.63747e-14
-3.61648e-14
-3.63494e-14
-3.61281e-14
-3.6317e-14
-3.61369e-14
-3.62867e-14
-3.61322e-14
-3.6258e-14
-3.61147e-14
-3.62407e-14
-3.60743e-14
-3.6225e-14
-3.60608e-14
-3.62007e-14
-3.60848e-14
-3.6177e-14
-3.60965e-14
-3.61536e-14
-3.6076e-14
-3.61203e-14
-3.60335e-14
-3.60872e-14
-3.60097e-14
-3.60646e-14
-3.60049e-14
-3.60419e-14
-3.5968e-14
-3.60091e-14
-3.59294e-14
-3.60072e-14
-3.58995e-14
-3.59954e-14
-3.58781e-14
-3.59843e-14
-3.58445e-14
-3.59739e-14
-3.58087e-14
-3.59543e-14
-3.57911e-14
-3.59252e-14
-3.57919e-14
-3.59281e-14
-3.58116e-14
-3.59106e-14
-3.58299e-14
-3.59038e-14
-3.58159e-14
-3.58973e-14
-3.578e-14
-3.58808e-14
-3.57532e-14
-3.5865e-14
-3.57565e-14
-3.58497e-14
-3.57586e-14
-3.58346e-14
-3.57388e-14
-3.58303e-14
-3.57181e-14
-3.58265e-14
-3.56962e-14
-3.58231e-14
-3.56837e-14
-3.58203e-14
-3.5691e-14
-3.58179e-14
-3.5676e-14
-3.58161e-14
-3.56387e-14
-3.5815e-14
-3.56315e-14
-3.58146e-14
-3.5644e-14
-3.582e-14
-3.56286e-14
-3.58157e-14
-3.5617e-14
-3.57962e-14
-3.56143e-14
-3.57984e-14
-3.56049e-14
-3.57853e-14
-3.56047e-14
-3.57992e-14
-3.55979e-14
-3.58137e-14
-3.55949e-14
-3.58079e-14
-3.55906e-14
-3.58134e-14
-3.5569e-14
-3.58197e-14
-3.55566e-14
-3.58218e-14
-3.55689e-14
-3.58301e-14
-3.55849e-14
-3.58391e-14
-3.55733e-14
-3.58492e-14
-3.55603e-14
-3.58445e-14
-3.55616e-14
-3.5867e-14
-3.55615e-14
-3.58696e-14
-3.55494e-14
-3.58785e-14
-3.55411e-14
-3.58782e-14
-3.55574e-14
-3.58893e-14
-3.55617e-14
-3.58859e-14
-3.55542e-14
-3.5873e-14
-3.55349e-14
-3.58769e-14
-3.55246e-14
-3.58766e-14
-3.55234e-14
-3.58825e-14
-3.55156e-14
-3.58842e-14
-3.55117e-14
-3.58818e-14
-3.55012e-14
-3.58856e-14
-3.54894e-14
-3.58852e-14
-3.54763e-14
-3.58911e-14
-3.54619e-14
-3.58775e-14
-3.54668e-14
-3.58597e-14
-3.54909e-14
-3.58531e-14
-3.55087e-14
-3.58422e-14
-3.5505e-14
-3.58269e-14
-3.55106e-14
-3.58174e-14
-3.55154e-14
-3.58136e-14
-3.55091e-14
-3.58003e-14
-3.55021e-14
-3.57926e-14
-3.54994e-14
-3.57854e-14
-3.5501e-14
-3.57787e-14
-3.55045e-14
-3.577e-14
-3.55024e-14
-3.57618e-14
-3.54947e-14
-3.57565e-14
-3.54939e-14
-3.57466e-14
-3.54976e-14
-3.57371e-14
-3.55008e-14
-3.57231e-14
-3.54937e-14
-3.57143e-14
-3.54935e-14
-3.57033e-14
-3.55003e-14
-3.57e-14
-3.55068e-14
-3.56896e-14
-3.55154e-14