/*--------------------------------*- C++ -*----------------------------------*\
| =========                 |                                                 |
| \\      /  F ield         | OpenFOAM: The Open Source CFD Toolbox           |
|  \\    /   O peration     | Version:  2106                                  |
|   \\  /    A nd           | Website:  www.openfoam.com                      |
|    \\/     M anipulation  |                                                 |
\*---------------------------------------------------------------------------*/
FoamFile
{
    version     2.0;
    format      ascii;
    arch        "LSB;label=32;scalar=64";
    class       volTensorField;
    location    "11000";
    object      grad(U);
}
// * * * * * * * * * * * * * * * * * * * * * * * * * * * * * * * * * * * * * //

dimensions      [0 0 -1 0 0 0 0];

internalField   nonuniform List<tensor> 
2560
(
(-1.82862e-17 6.23671e-30 3.04527e-32 92.7845 -1.16403e-11 2.8239e-14 0.134317 -1.01984e-14 -8.17534e-17)
(0 -4.15781e-30 1.7183e-26 92.7845 -1.31015e-15 1.09787e-13 0.134317 -6.76041e-18 7.72346e-16)
(-7.20966e-17 -2.82544e-25 5.66942e-26 92.772 -2.13687e-12 9.09263e-14 0.404867 -6.27628e-15 2.67064e-16)
(0 0 5.12277e-31 92.772 5.7024e-15 1.73507e-13 0.404867 1.03452e-17 3.40183e-15)
(-1.70029e-17 4.2039e-45 3.64935e-31 92.759 1.17166e-27 4.77778e-14 0.556795 3.15544e-30 3.02677e-16)
(0 8.07896e-30 -5.04935e-31 92.759 4.82978e-15 1.05821e-14 0.556795 2.4441e-17 3.50084e-15)
(5.45283e-17 -1.39842e-29 6.44472e-31 92.7443 7.75525e-13 5.06704e-14 0.564795 -8.36244e-15 3.10122e-16)
(0 1.19448e-29 -4.97698e-31 92.7443 5.74417e-15 1.07007e-14 0.564795 3.47163e-17 3.60251e-15)
(2.76163e-16 -1.96226e-29 1.47169e-30 92.7248 4.59755e-14 5.10588e-14 0.572865 -9.62367e-16 3.16343e-16)
(0 1.56981e-29 -9.81129e-31 92.7248 5.80241e-15 1.0832e-14 0.572865 3.64838e-17 3.70682e-15)
(4.03432e-16 -1.86155e-29 1.61104e-31 92.6939 -5.35674e-14 5.13753e-14 0.580952 -2.57459e-16 3.23174e-16)
(1.04982e-15 1.55193e-29 -9.67067e-31 92.6939 6.05473e-15 1.09332e-14 0.580952 3.88968e-17 3.81362e-15)
(-1.70428e-16 -6.44435e-31 -1.68703e-31 92.6394 -3.039e-14 5.15973e-14 0.588953 -1.25352e-16 3.28433e-16)
(6.81713e-16 7.65944e-30 -4.76603e-31 92.6394 6.12108e-15 1.09679e-14 0.588953 4.0379e-17 3.9224e-15)
(-2.10219e-16 6.93111e-30 -1.11646e-30 92.5413 -1.86877e-14 5.14202e-14 0.596704 -1.13986e-16 3.30355e-16)
(5.7642e-16 4.06304e-32 4.69772e-31 92.5413 5.92451e-15 1.08901e-14 0.596704 4.9534e-17 4.03232e-15)
(2.50617e-16 -1.05836e-29 1.11198e-30 92.3699 -1.78602e-14 5.05955e-14 0.603961 -1.18189e-16 3.27257e-16)
(0 7.40863e-30 -9.26079e-31 92.3699 5.71997e-15 1.06424e-14 0.603961 5.86708e-17 4.14193e-15)
(0 7.30244e-30 -4.56403e-31 92.0844 -1.84086e-14 4.88818e-14 0.610392 -1.2461e-16 3.17269e-16)
(0 -3.65122e-30 0 92.0844 5.84539e-15 1.01699e-14 0.610392 7.1642e-17 4.24914e-15)
(-3.33268e-16 -1.48152e-29 1.14289e-30 91.6333 -1.88632e-14 4.60369e-14 0.615574 -1.27778e-16 2.98507e-16)
(0 2.15933e-29 -1.34958e-30 91.6333 6.04427e-15 9.40715e-15 0.615574 8.55161e-17 4.35115e-15)
(8.74743e-16 -2.09181e-29 2.87908e-30 90.9564 -1.91831e-14 4.18665e-14 0.619018 -1.32633e-16 2.69545e-16)
(-4.99239e-16 1.77365e-29 -1.77365e-30 90.9564 5.86848e-15 8.30786e-15 0.619018 9.92024e-17 4.44434e-15)
(4.92084e-16 -6.99293e-30 8.74117e-31 89.991 -1.96338e-14 3.62847e-14 0.620216 -1.37771e-16 2.29828e-16)
(0 6.99293e-30 -8.74117e-31 89.991 5.82919e-15 6.86341e-15 0.620216 1.17913e-16 4.52467e-15)
(-4.61537e-16 6.63286e-30 -6.75305e-31 88.6799 -2.00987e-14 2.9373e-14 0.6187 -1.43062e-16 1.80177e-16)
(1.36112e-15 7.03867e-32 0 88.6799 5.74603e-15 5.09284e-15 0.6187 1.35059e-16 4.58794e-15)
(0 2.37787e-29 -2.54772e-30 86.9808 -2.07443e-14 2.14057e-14 0.614127 -1.51023e-16 1.22812e-16)
(0 -2.37787e-29 2.54772e-30 86.9808 5.63386e-15 3.06588e-15 0.614127 1.55003e-16 4.63031e-15)
(-5.48798e-16 9.88858e-30 -2.69909e-31 84.8759 -2.10699e-14 1.28289e-14 0.606335 -1.51969e-16 6.1223e-17)
(2.19519e-15 -6.6196e-30 0 84.8759 5.65523e-15 8.97769e-16 0.606335 1.72564e-16 4.64892e-15)
(0 2.3102e-29 1.57184e-28 82.3765 -2.08996e-14 -7.73785e-29 0.595387 -1.52945e-16 0)
(-2.36956e-15 -2.31808e-29 2.47521e-30 82.3765 5.23029e-15 -1.27013e-15 0.595387 1.94967e-16 4.64238e-15)
(0 2.60238e-29 2.83309e-28 79.5235 -2.13114e-14 -1.21878e-16 0.581562 -1.6256e-16 4.50987e-19)
(-2.54249e-15 -2.61015e-29 2.43974e-30 79.5235 5.45418e-15 -3.28678e-15 0.581562 2.21589e-16 4.61095e-15)
(9.02509e-16 -9.61907e-30 1.60318e-30 76.3821 -2.16235e-14 -1.10853e-14 0.565312 -1.62147e-16 5.81555e-17)
(0 9.61907e-30 -1.60318e-30 76.3821 5.99667e-15 -5.04958e-15 0.565312 2.46537e-16 4.55655e-15)
(7.19972e-16 9.43457e-30 -2.10621e-30 73.0323 -2.07984e-14 -1.69497e-14 0.547194 -1.5466e-16 1.08671e-16)
(-2.87989e-15 -1.90444e-29 2.3703e-30 73.0323 5.26721e-15 -6.46527e-15 0.547194 2.71329e-16 4.48225e-15)
(0 2.18057e-29 -2.33633e-30 69.559 -1.99368e-14 -2.13836e-14 0.527797 -1.53481e-16 1.49851e-16)
(0 -2.18057e-29 2.33633e-30 69.559 4.60458e-15 -7.5005e-15 0.527797 2.9586e-16 4.39209e-15)
(9.28466e-16 -2.92653e-30 -2.47722e-31 66.0426 -1.95666e-14 -2.44141e-14 0.50768 -1.53344e-16 1.80886e-16)
(-1.72851e-15 1.22818e-29 -7.67614e-31 66.0426 4.99084e-15 -8.19363e-15 0.50768 3.13111e-16 4.29016e-15)
(1.3771e-17 -3.00712e-29 2.78576e-30 62.5527 -1.84395e-14 -2.61776e-14 0.487334 -1.39916e-16 2.02107e-16)
(0 3.3291e-29 -2.64814e-30 62.5527 4.26227e-15 -8.58118e-15 0.487334 3.26126e-16 4.18043e-15)
(-1.67932e-15 1.19323e-29 -1.49154e-30 59.1454 -1.63194e-14 -2.68703e-14 0.467156 -1.23367e-16 2.14445e-16)
(-1.81954e-15 -1.7983e-29 2.23731e-30 59.1454 2.6244e-15 -8.70651e-15 0.467156 3.57741e-16 4.0663e-15)
(8.22388e-17 2.02959e-29 -1.60832e-30 55.862 -1.57567e-14 -2.67149e-14 0.447451 -1.34734e-16 2.19289e-16)
(8.27626e-16 -2.35225e-29 1.8377e-30 55.862 2.42699e-15 -8.62234e-15 0.447451 4.01958e-16 3.95071e-15)
(-1.8871e-15 3.83408e-29 -2.26144e-30 52.7303 -1.61333e-14 -2.59278e-14 0.428435 -1.33283e-16 2.18164e-16)
(0 -3.18799e-29 1.81136e-30 52.7303 3.5097e-15 -8.37951e-15 0.428435 4.49173e-16 3.83602e-15)
(4.53556e-15 -3.82712e-29 2.8068e-30 49.7671 -1.53193e-14 -2.46933e-14 0.410251 -1.24862e-16 2.12541e-16)
(7.80644e-15 3.15432e-29 -2.14248e-30 49.7671 4.99383e-15 -8.01124e-15 0.410251 4.66618e-16 3.72396e-15)
(0 -2.25256e-29 2.11177e-30 46.98 -1.48665e-14 -2.31631e-14 0.392981 -1.29387e-16 2.03596e-16)
(4.02667e-15 2.82326e-29 -2.11177e-30 46.98 5.66675e-15 -7.58402e-15 0.392981 4.61832e-16 3.61581e-15)
(1.0362e-15 7.85932e-30 -4.77692e-31 44.3702 -1.39791e-14 -2.1462e-14 0.376663 -1.13012e-16 1.92412e-16)
(0 -8.32602e-30 0 44.3702 4.38612e-15 -7.15825e-15 0.376663 4.63507e-16 3.51221e-15)
(-2.12894e-15 6.49238e-30 -4.28557e-31 41.9341 -1.21653e-14 -1.96726e-14 0.361302 -1.01021e-16 1.79833e-16)
(-8.51575e-15 -1.83737e-31 0 41.9341 2.30278e-15 -6.71405e-15 0.361302 4.73497e-16 3.41347e-15)
(-1.09154e-15 1.13369e-29 -5.49924e-31 39.6648 -1.14551e-14 -1.78602e-14 0.34688 -1.03548e-16 1.66325e-16)
(-4.36616e-15 -5.47668e-30 0 39.6648 1.83694e-15 -6.22226e-15 0.34688 5.00833e-16 3.31994e-15)
(-1.49616e-15 2.39194e-29 -1.32885e-30 37.5538 -1.13588e-14 -1.60765e-14 0.333363 -1.02224e-16 1.52501e-16)
(-2.97379e-15 -2.39982e-29 1.32885e-30 37.5538 2.83255e-15 -5.73027e-15 0.333363 5.26721e-16 3.23193e-15)
(0 -2.61962e-29 1.30981e-30 35.5912 -1.1295e-14 -1.4352e-14 0.320708 -1.054e-16 1.38648e-16)
(4.5695e-15 2.62837e-29 -1.30981e-30 35.5912 3.16745e-15 -5.27641e-15 0.320708 5.26594e-16 3.14925e-15)
(-1.16627e-15 -1.91033e-30 4.34739e-31 33.767 -1.1168e-14 -1.27035e-14 0.308865 -1.02833e-16 1.25042e-16)
(0 1.03283e-29 -9.68276e-31 33.767 2.91007e-15 -4.86849e-15 0.308865 5.1841e-16 3.07164e-15)
(-2.62198e-15 2.36161e-29 -1.16509e-30 32.0711 -1.08811e-14 -1.11433e-14 0.297785 -1.0302e-16 1.11745e-16)
(1.43274e-15 -2.03605e-29 9.54398e-31 32.0711 2.7966e-15 -4.49802e-15 0.297785 5.32208e-16 2.99883e-15)
(-1.21134e-15 2.33265e-29 -8.37987e-31 30.4936 -1.07473e-14 -9.68334e-15 0.287416 -1.03259e-16 9.89754e-17)
(-4.84537e-15 -1.51501e-29 0 30.4936 2.55118e-15 -4.14559e-15 0.287416 5.53227e-16 2.93067e-15)
(1.23263e-15 -1.31514e-29 1.13845e-30 29.0252 -1.03146e-14 -8.32036e-15 0.277708 -9.75501e-17 8.67928e-17)
(0 9.89052e-30 -9.27237e-31 29.0252 2.7165e-15 -3.81658e-15 0.277708 5.74726e-16 2.86677e-15)
(1.25317e-15 -1.78849e-29 1.4304e-30 27.6573 -1.01672e-14 -7.05003e-15 0.268613 -1.03351e-16 7.5141e-17)
(0 1.46231e-29 -1.2186e-30 27.6573 3.13667e-15 -3.53189e-15 0.268613 5.77965e-16 2.80694e-15)
(-1.27299e-15 8.06831e-30 -1.11345e-30 26.3815 -1.0231e-14 -5.86922e-15 0.260087 -1.01696e-16 6.40568e-17)
(-1.35235e-15 -4.80452e-30 3.00283e-31 26.3815 2.78694e-15 -3.28312e-15 0.260087 5.63762e-16 2.75073e-15)
(-1.33297e-15 9.47132e-30 -8.87936e-31 25.1904 -9.91001e-15 -4.77353e-15 0.252086 -9.98036e-17 5.35032e-17)
(1.33297e-15 -1.89426e-29 1.47989e-30 25.1904 2.01304e-15 -3.0102e-15 0.252086 5.7796e-16 2.69804e-15)
(-1.31068e-15 7.93583e-30 -7.98241e-31 24.0772 -9.64532e-15 -3.75597e-15 0.244572 -9.9175e-17 4.3491e-17)
(5.24272e-15 1.12532e-31 0 24.0772 2.44135e-15 -2.75073e-15 0.244572 6.03897e-16 2.6489e-15)
(0 -1.84035e-29 1.43778e-30 23.0354 -9.59695e-15 -2.81322e-15 0.237508 -1.01707e-16 3.39256e-17)
(5.31452e-15 1.8526e-29 -1.43778e-30 23.0354 2.86835e-15 -2.55364e-15 0.237508 6.02087e-16 2.6028e-15)
(1.34603e-15 5.79822e-30 -6.32683e-31 22.0593 -9.97837e-15 -1.94241e-15 0.23086 -1.10238e-16 2.48898e-17)
(-5.38414e-15 -1.82645e-29 8.50302e-31 22.0593 2.80245e-15 -2.40823e-15 0.23086 6.14626e-16 2.55936e-15)
(1.36292e-15 -1.22156e-29 7.78041e-31 21.1437 -9.79803e-15 -1.13592e-15 0.224597 -1.00774e-16 1.6294e-17)
(0 8.93989e-30 -5.58743e-31 21.1437 3.02719e-15 -2.25684e-15 0.224597 6.34568e-16 2.51826e-15)
(-1.39182e-16 3.28035e-30 3.29594e-31 20.2838 -8.53197e-15 -3.83351e-16 0.21869 -8.55947e-17 8.11834e-18)
(-1.24014e-15 4.40588e-30 -1.10147e-30 20.2838 2.3079e-15 -2.06271e-15 0.21869 6.21003e-16 2.47978e-15)
(1.39527e-15 1.06099e-30 -3.20685e-31 19.4751 -7.865e-15 3.21484e-16 0.213115 -8.88285e-17 7.38662e-18)
(4.35873e-15 -4.20315e-30 5.42841e-31 19.4751 1.88934e-15 -1.88182e-15 0.213115 6.34271e-16 2.44355e-15)
(2.4097e-15 -8.56098e-30 5.35061e-31 18.7139 -7.75614e-15 9.75689e-16 0.207846 -8.56352e-17 1.46153e-17)
(5.64318e-15 8.70003e-30 -1.07012e-30 18.7139 2.09048e-15 -1.73039e-15 0.207846 6.51615e-16 2.40954e-15)
(-1.42591e-15 3.28765e-30 -2.22614e-31 17.9963 -6.88085e-15 1.58742e-15 0.202861 -7.1308e-17 2.16666e-17)
(0 4.21914e-30 -5.27392e-31 17.9963 1.66254e-15 -1.64036e-15 0.202861 6.51897e-16 2.37761e-15)
(-1.44064e-15 7.44872e-30 -2.23192e-31 17.3192 -5.6589e-15 2.164e-15 0.198141 -5.96431e-17 2.84915e-17)
(0 0 0 17.3192 1.14106e-15 -1.5473e-15 0.198141 6.62887e-16 2.34701e-15)
(2.30757e-15 -4.09906e-30 5.12383e-31 16.6795 -4.3585e-15 2.70208e-15 0.193667 -4.26253e-17 3.50339e-17)
(-2.30757e-15 4.09906e-30 -5.12383e-31 16.6795 3.75588e-16 -1.40802e-15 0.193667 6.84841e-16 2.31831e-15)
(-3.74353e-15 -3.43886e-29 -2.25035e-31 16.0746 5.51934e-28 3.20285e-15 0.189422 -3.15544e-30 4.13481e-17)
(0 1.21209e-29 -1.01008e-30 16.0746 -1.47994e-15 -1.27241e-15 0.189422 7.38328e-16 2.29121e-15)
(0 2.78768e-29 -1.4934e-30 15.5019 -1.81273e-17 3.67836e-15 0.185391 -1.45397e-18 4.7642e-17)
(-5.93096e-15 -2.39691e-29 1.4934e-30 15.5019 -2.33039e-15 -1.12113e-15 0.185391 8.15349e-16 2.26578e-15)
(7.13627e-16 -1.63343e-29 1.24437e-30 14.9591 -1.25791e-15 4.12417e-15 0.181559 -2.96084e-17 5.35755e-17)
(3.77478e-15 2.36014e-29 -1.472e-30 14.9591 -1.77019e-15 -9.83654e-16 0.181559 8.60306e-16 2.24204e-15)
(0 2.70835e-29 -1.4509e-30 14.4442 -2.97466e-15 4.53763e-15 0.177913 -4.45351e-17 5.94027e-17)
(0 -2.70835e-29 1.4509e-30 14.4442 -1.87422e-15 -8.86044e-16 0.177913 9.23704e-16 2.21952e-15)
(-1.52207e-15 7.10641e-30 -1.18439e-30 13.9552 -3.12523e-15 4.9267e-15 0.174442 -3.43055e-17 6.50408e-17)
(6.08827e-15 -3.81361e-30 9.53403e-31 13.9552 -1.41706e-15 -7.81886e-16 0.174442 9.66925e-16 2.1982e-15)
(3.06926e-15 -1.03491e-29 1.40553e-30 13.4905 -2.15546e-15 5.29616e-15 0.171133 -2.08154e-17 7.06763e-17)
(6.13852e-15 3.75895e-30 -9.39738e-31 13.4905 -1.12223e-15 -7.06998e-16 0.171133 9.75541e-16 2.17831e-15)
(2.08577e-15 -7.41016e-30 4.63135e-31 13.0483 -1.63025e-15 5.64067e-15 0.167976 -2.15608e-17 7.59651e-17)
(0 7.41016e-30 -9.2627e-31 13.0483 -2.34715e-15 -6.36771e-16 0.167976 9.8054e-16 2.15912e-15)
(-1.55902e-15 -1.0232e-29 2.19275e-31 12.6273 -2.4053e-16 5.97077e-15 0.164964 -1.5856e-18 8.15142e-17)
(0 3.65198e-30 -9.12994e-31 12.6273 -2.6432e-15 -5.53713e-16 0.164964 9.80804e-16 2.14131e-15)
(-5.16814e-15 1.73917e-29 -1.37918e-30 12.2261 -6.65724e-16 6.29573e-15 0.162085 -1.63301e-17 8.69469e-17)
(8.30986e-15 -1.79982e-29 1.34986e-30 12.2261 -2.53648e-15 -4.79132e-16 0.162085 9.82402e-16 2.12408e-15)
(-1.58249e-15 3.2963e-30 -2.42235e-31 11.8434 -1.2286e-15 6.59932e-15 0.159333 -1.70199e-17 9.22015e-17)
(0 3.54804e-30 -4.43505e-31 11.8434 -2.91782e-15 -4.18519e-16 0.159333 9.88007e-16 2.10779e-15)
(-1.59391e-15 -7.19425e-30 1.92155e-31 11.478 -8.50579e-16 6.8886e-15 0.1567 -6.32396e-18 9.75173e-17)
(6.37565e-15 1.39888e-29 -8.74297e-31 11.478 -1.84746e-15 -3.83772e-16 0.1567 9.91176e-16 2.09223e-15)
(-1.60514e-15 1.019e-29 -6.78831e-31 11.129 -6.02814e-16 7.16507e-15 0.154178 -1.05466e-17 1.02682e-16)
(-1.94052e-15 -3.44706e-30 0 11.129 -2.29606e-15 -3.23861e-16 0.154178 1.00415e-15 2.07737e-15)
(-5.14505e-15 -2.8026e-45 -1.77617e-30 10.7952 1.64859e-30 7.42578e-15 0.151763 0 1.07817e-16)
(-4.55197e-15 -1.0193e-29 1.27412e-30 10.7952 -2.83311e-15 -2.70132e-16 0.151763 1.0038e-15 2.06356e-15)
(-3.25404e-15 -6.80894e-30 1.16594e-30 10.4759 -7.17527e-16 7.67507e-15 0.149447 -2.46949e-17 1.1291e-16)
(1.30162e-14 1.00469e-29 -1.25586e-30 10.4759 -1.46898e-15 -1.94833e-16 0.149447 1.00567e-15 2.0497e-15)
(-6.77138e-15 3.2973e-29 -2.83617e-30 10.1702 -3.04122e-15 7.90737e-15 0.147224 -6.43103e-17 1.17801e-16)
(-6.5508e-15 -2.31067e-29 2.0631e-30 10.1702 -7.52496e-16 -1.43015e-16 0.147224 1.0105e-15 2.03723e-15)
(-1.64821e-15 -1.94853e-29 1.77228e-30 9.87724 -4.61163e-15 8.11745e-15 0.145091 -7.22347e-17 1.2248e-16)
(6.59285e-15 2.92829e-29 -2.03353e-30 9.87724 8.10084e-16 -1.79214e-16 0.145091 1.01296e-15 2.02495e-15)
(5.26935e-15 -9.70243e-30 1.06681e-30 9.59636 -5.84169e-15 8.31144e-15 0.143042 -1.03398e-16 1.27119e-16)
(-3.61078e-15 6.41404e-30 -8.01755e-31 9.59636 1.69545e-15 -1.60042e-16 0.143042 1.03068e-15 2.01227e-15)
(0 -2.21274e-29 1.58053e-30 9.32687 -6.76598e-15 8.4917e-15 0.141072 -1.02712e-16 1.31599e-16)
(6.67505e-15 2.21274e-29 -1.58053e-30 9.32687 2.2741e-15 -1.07809e-16 0.141072 1.0506e-15 2.00088e-15)
(1.75401e-15 -9.34724e-30 1.16841e-30 9.06815 -5.66133e-15 8.66121e-15 0.139178 -7.20375e-17 1.3612e-16)
(6.71526e-15 9.34724e-30 -1.16841e-30 9.06815 2.40716e-15 -1.38621e-16 0.139178 1.07664e-15 1.98932e-15)
(-3.45774e-15 1.53555e-29 -1.53555e-30 8.81961 -3.43898e-15 8.83337e-15 0.137355 -3.55309e-17 1.40892e-16)
(6.7549e-15 -9.21327e-30 3.83886e-31 8.81961 2.64284e-16 -1.34714e-16 0.137355 1.09696e-15 1.97753e-15)
(0 2.42166e-29 -1.51354e-30 8.58072 -2.41638e-15 9.00536e-15 0.1356 -4.13807e-17 1.45618e-16)
(0 -2.42166e-29 1.51354e-30 8.58072 -1.18766e-15 -1.01399e-16 0.1356 1.10355e-15 1.96643e-15)
(-3.41629e-15 6.60893e-30 -1.31425e-30 8.35095 -2.63547e-15 9.17495e-15 0.133909 -4.3694e-17 1.50532e-16)
(0 0 7.45922e-31 8.35095 -1.07019e-15 -1.02137e-16 0.133909 1.09803e-15 1.95538e-15)
(3.31119e-15 -2.35274e-29 1.47046e-30 8.12985 -1.95235e-15 9.34124e-15 0.13228 -2.00624e-17 1.55369e-16)
(3.55946e-15 2.35274e-29 -3.33539e-30 8.12985 -1.06497e-15 -2.85268e-17 0.13228 1.09818e-15 1.94466e-15)
(0 1.15951e-29 -7.24693e-31 7.91696 -1.46815e-15 9.49655e-15 0.130708 -2.8772e-17 1.60139e-16)
(6.90823e-15 -5.79755e-30 3.62347e-31 7.91696 -1.82538e-15 -1.39594e-17 0.130708 1.10698e-15 1.93435e-15)
(-1.73634e-15 -2.82194e-30 5.79376e-32 7.71187 3.92656e-28 7.76647e-15 0.129192 0 1.01187e-16)
(0 2.85723e-30 -3.57153e-31 7.71187 -2.30646e-15 -8.55302e-17 0.129192 1.10642e-15 1.92419e-15)
(1.60083e-16 7.95842e-30 -7.54545e-31 7.5142 6.64252e-16 5.60137e-15 0.127729 -9.73408e-18 9.02606e-17)
(0 -5.63255e-30 7.04069e-31 7.5142 -2.11279e-15 -1.72653e-16 0.127729 1.10142e-15 1.91288e-15)
(0 -8.32773e-30 1.04097e-30 7.32358 3.23326e-16 5.36081e-15 0.126316 -1.30022e-17 9.57459e-17)
(3.1254e-15 8.32773e-30 -7.93554e-31 7.32358 -2.90972e-15 -1.19893e-16 0.126316 1.10911e-15 1.90178e-15)
(0 -1.09445e-29 6.84031e-31 7.13967 -1.09802e-15 5.48013e-15 0.124951 -3.70042e-17 9.71344e-17)
(1.5403e-15 1.09445e-29 -6.84031e-31 7.13967 -3.01687e-15 -7.62142e-17 0.124951 1.1089e-15 1.89152e-15)
(-5.08295e-16 3.90676e-30 -6.02835e-31 6.96214 -2.21822e-15 5.588e-15 0.123632 -4.22379e-17 1.0243e-16)
(0 8.09073e-30 -6.74227e-31 6.96214 -1.5806e-15 -1.5424e-16 0.123632 1.11771e-15 1.88056e-15)
(-1.78113e-15 1.02295e-43 -9.66027e-31 6.79071 7.33991e-28 5.78372e-15 0.122356 -3.15544e-30 1.07122e-16)
(0 -5.31651e-30 6.64564e-31 6.79071 -1.0866e-15 -1.82801e-16 0.122356 1.12892e-15 1.86922e-15)
(1.78979e-15 -8.54632e-30 9.5682e-31 6.62508 1.26542e-15 5.93114e-15 0.121122 -1.25892e-17 1.10888e-16)
(-8.63417e-15 0 -6.55039e-31 6.62508 -2.22028e-15 -1.94431e-16 0.121122 1.13021e-15 1.85813e-15)
(2.90775e-15 -1.03304e-29 6.45651e-31 6.46499 1.30924e-15 6.06398e-15 0.119927 -3.40728e-17 1.15249e-16)
(-7.19344e-15 1.03304e-29 -6.45651e-31 6.46499 -3.14908e-15 -1.70217e-16 0.119927 1.12485e-15 1.8463e-15)
(-1.80684e-15 1.34869e-29 -2.21204e-30 6.31019 1.09142e-15 6.13717e-15 0.118771 -1.46037e-17 1.16925e-16)
(1.44547e-14 -5.09117e-30 1.27279e-30 6.31019 -2.25562e-15 -7.39769e-17 0.118771 1.12287e-15 1.83487e-15)
(1.81524e-15 1.17542e-29 -9.51567e-31 6.16043 2.17074e-15 6.24493e-15 0.117651 -2.67712e-17 1.22791e-16)
(7.26095e-15 -2.00728e-29 2.5091e-30 6.16043 -3.67701e-15 -7.94612e-17 0.117651 1.13175e-15 1.82e-15)
(0 4.94628e-30 0 6.01551 2.5747e-15 6.46238e-15 0.116566 -5.67557e-17 1.28879e-16)
(0 0 -6.18285e-31 6.01551 -5.06198e-15 -1.17349e-16 0.116566 1.11069e-15 1.80116e-15)
(-1.83179e-15 -1.62085e-29 1.52409e-30 5.87521 2.22862e-15 6.59355e-15 0.115515 -4.33988e-17 1.31607e-16)
(7.32715e-15 2.43769e-29 -2.43769e-30 5.87521 -4.3669e-15 -1.12308e-16 0.115515 1.10643e-15 1.78252e-15)
(-1.83994e-15 8.09682e-30 -1.50651e-30 5.73932 2.83028e-15 6.6162e-15 0.114496 -4.46478e-17 1.33568e-16)
(-7.35978e-15 0 6.00689e-31 5.73932 -5.11222e-15 -1.91639e-16 0.114496 1.08777e-15 1.76407e-15)
(1.84803e-15 -1.74954e-29 1.48985e-30 5.60767 3.93233e-15 6.70296e-15 0.113507 -6.89582e-17 1.39016e-16)
(7.3921e-15 1.42099e-29 -1.18416e-30 5.60767 -4.16328e-15 -2.12427e-16 0.113507 1.06955e-15 1.74361e-15)
(-1.85604e-15 2.66222e-29 -3.22448e-30 5.48007 4.0492e-15 6.84539e-15 0.112547 -9.1091e-17 1.43399e-16)
(7.42414e-15 -2.33437e-29 2.91797e-30 5.48007 -3.85663e-15 -1.84567e-16 0.112547 1.08083e-15 1.7244e-15)
(-1.86397e-15 7.88028e-30 -3.07351e-31 5.35635 3.87663e-15 6.96701e-15 0.111616 -7.58346e-17 1.48215e-16)
(0 -4.60183e-30 0 5.35635 -5.93175e-15 -2.83672e-16 0.111616 1.06066e-15 1.70479e-15)
(-1.87184e-15 3.2755e-30 2.58568e-31 5.23636 4.59345e-15 7.09866e-15 0.110713 -8.64844e-17 1.5323e-16)
(0 4.53588e-30 -1.13397e-30 5.23636 -5.50203e-15 -3.18848e-16 0.110713 1.04169e-15 1.68458e-15)
(-1.87965e-15 -1.0144e-29 1.36661e-30 5.11994 5.25869e-15 7.14907e-15 0.109835 -1.08713e-16 1.54744e-16)
(7.51859e-15 1.34126e-29 -2.23543e-30 5.11994 -4.6342e-15 -2.7897e-16 0.109835 1.02711e-15 1.6642e-15)
(1.88739e-15 -7.66878e-30 8.62315e-31 5.00696 4.60999e-15 7.12335e-15 0.108982 -1.17883e-16 1.56586e-16)
(0 4.40679e-30 -5.50848e-31 5.00696 -5.63419e-15 -3.63833e-16 0.108982 1.00133e-15 1.64383e-15)
(2.44524e-15 -8.68725e-30 5.42953e-31 4.89727 4.03987e-15 7.27179e-15 0.108153 -8.3341e-17 1.65907e-16)
(0 8.68725e-30 -5.42953e-31 4.89727 -6.78778e-15 -4.27699e-16 0.108153 9.77171e-16 1.62291e-15)
(-1.90268e-15 -1.02448e-30 -3.13925e-31 4.79074 5.64852e-15 7.38143e-15 0.107348 -9.58743e-17 1.66141e-16)
(0 8.56274e-30 -1.07034e-30 4.79074 -7.23011e-15 -3.46077e-16 0.107348 9.46252e-16 1.60245e-15)
(0 -3.37601e-29 3.16501e-30 4.68726 7.65712e-15 7.45663e-15 0.106564 -1.58672e-16 1.74224e-16)
(1.52819e-14 3.79801e-29 -9.82617e-30 4.68726 -6.33789e-15 -1.16936e-16 0.106564 9.17857e-16 1.5816e-15)
(0 4.15952e-30 -1.03988e-30 4.58671 8.29307e-15 7.61625e-15 0.105802 -1.91018e-16 1.78452e-16)
(7.67096e-15 0 -5.19941e-31 4.58671 -6.63325e-15 -1.75226e-16 0.105802 8.89066e-16 1.56267e-15)
(3.82859e-16 2.78256e-29 -3.9063e-30 4.48897 5.19208e-15 7.46865e-15 0.105061 -1.92979e-16 1.72344e-16)
(-1.00088e-14 -2.04995e-29 3.07493e-30 4.48897 -6.6587e-15 -4.44979e-16 0.105061 8.63042e-16 1.54363e-15)
(-1.93257e-15 7.28717e-30 -1.32992e-30 4.39394 6.17244e-16 7.4023e-15 0.10434 -4.98857e-17 1.80494e-16)
(-7.7303e-15 -4.04115e-30 5.05143e-31 4.39394 -3.3157e-15 -6.23228e-16 0.10434 8.32523e-16 1.52329e-15)
(0 -7.28675e-44 -9.95806e-31 4.30152 2.62498e-28 7.51012e-15 0.103638 -1.11093e-45 1.82644e-16)
(0 -7.96645e-30 0 4.30152 -2.36508e-16 -5.13664e-16 0.103638 8.46336e-16 1.50154e-15)
(0 7.35039e-30 -1.4723e-30 4.21162 2.41793e-15 7.69818e-15 0.102954 -2.96523e-17 1.95073e-16)
(5.57857e-15 -7.85227e-30 4.90767e-31 4.21162 -1.09089e-15 -3.71123e-16 0.102954 8.55453e-16 1.4797e-15)
(-2.24106e-16 2.38565e-29 -4.02936e-30 4.12414 4.41741e-15 7.79396e-15 0.102288 -9.90552e-17 1.92796e-16)
(0 -2.32192e-29 3.38613e-30 4.12414 -3.30054e-15 -3.3103e-16 0.102288 8.439e-16 1.45669e-15)
(0 -3.8144e-29 5.2448e-30 4.03899 3.67668e-15 7.71066e-15 0.10164 -1.20946e-16 1.96551e-16)
(1.5693e-14 3.8144e-29 -5.2448e-30 4.03899 -2.60278e-15 -2.80383e-16 0.10164 8.2589e-16 1.43342e-15)
(0 -7.51946e-30 1.4099e-30 3.9561 2.12738e-15 7.8146e-15 0.101008 -6.42848e-17 2.03806e-16)
(1.57501e-14 7.51946e-30 -1.4099e-30 3.9561 -3.21406e-15 -3.08396e-16 0.101008 8.39954e-16 1.41061e-15)
(-3.95171e-15 1.01677e-29 -6.58265e-31 3.87538 1.89888e-15 7.91214e-15 0.100392 -4.45484e-17 2.07415e-16)
(0 -3.70584e-30 0 3.87538 -4.61675e-15 -4.81305e-16 0.100392 8.27303e-16 1.3879e-15)
(-1.98291e-15 6.88042e-30 -3.31179e-31 3.79676 3.45369e-15 7.94377e-15 0.0997912 -5.42061e-17 2.11456e-16)
(1.58632e-14 0 -9.13182e-31 3.79676 -4.27023e-15 -5.32119e-16 0.0997912 8.08034e-16 1.36208e-15)
(-3.69198e-17 -1.40133e-29 2.13321e-30 3.72017 5.08938e-15 8.00026e-15 0.0992055 -1.28428e-16 2.16535e-16)
(2.02683e-15 1.08011e-29 -1.80019e-30 3.72017 -5.85425e-15 -4.10187e-16 0.0992055 8.05174e-16 1.33624e-15)
(-1.99687e-15 3.20604e-30 -1.2217e-30 3.64553 4.91634e-15 8.11065e-15 0.0986343 -1.43927e-16 2.23684e-16)
(0 3.54877e-30 0 3.64553 -5.7386e-15 -4.26613e-16 0.0986343 7.72263e-16 1.31052e-15)
(-2.0038e-15 1.37002e-29 -2.08603e-30 3.57278 4.9431e-15 8.16496e-15 0.098077 -1.22731e-16 2.2589e-16)
(8.01518e-15 -1.04937e-29 1.74895e-30 3.57278 -3.25163e-15 -5.09921e-16 0.098077 7.46242e-16 1.28389e-15)
(-6.97516e-17 1.00926e-29 -1.20069e-30 3.50186 5.31086e-15 8.26233e-15 0.0975332 -1.49628e-16 2.35716e-16)
(6.10178e-15 -3.44778e-30 0 3.50186 -3.42542e-15 -5.02404e-16 0.0975332 7.47648e-16 1.25536e-15)
(-4.03504e-15 9.78599e-30 -1.53335e-30 3.43271 4.97591e-15 8.31667e-15 0.0970024 -1.47018e-16 2.35609e-16)
(0 -3.39836e-30 8.4959e-31 3.43271 -4.2423e-15 -4.71381e-16 0.0970024 7.24883e-16 1.22665e-15)
(-2.02432e-15 1.65909e-29 -2.01913e-30 3.36526 5.10854e-15 8.26913e-15 0.0964842 -1.3489e-16 2.39867e-16)
(-1.88569e-15 -1.0049e-29 8.37413e-31 3.36526 -4.98433e-15 -6.1542e-16 0.0964842 6.93221e-16 1.19944e-15)
(1.85866e-15 -6.60329e-30 8.25411e-31 3.29947 5.90372e-15 8.38826e-15 0.0959782 -1.59007e-16 2.4951e-16)
(-8.12434e-15 6.60329e-30 -2.47623e-30 3.29947 -5.53134e-15 -5.96668e-16 0.0959782 6.62325e-16 1.1677e-15)
(2.03781e-15 -6.4304e-30 2.78958e-30 3.23528 6.13874e-15 8.5337e-15 0.095484 -1.85564e-16 2.55563e-16)
(8.15126e-15 3.25432e-30 -2.44074e-30 3.23528 -5.16938e-15 -3.86009e-16 0.095484 6.40303e-16 1.13751e-15)
(2.38744e-16 -9.58842e-30 2.75742e-30 3.17263 5.99895e-15 8.60954e-15 0.0950013 -1.77674e-16 2.61406e-16)
(-6.37226e-15 6.41536e-30 -2.40576e-30 3.17263 -5.52001e-15 -3.58983e-16 0.0950013 6.03089e-16 1.10774e-15)
(-2.05116e-15 6.33002e-30 -2.72648e-30 3.11149 5.77518e-15 8.61002e-15 0.0945296 -1.82545e-16 2.63079e-16)
(8.20466e-15 0 1.58085e-30 3.11149 -4.55923e-15 -4.52863e-16 0.0945296 5.73727e-16 1.07794e-15)
(1.75437e-15 3.11639e-30 -7.79098e-31 3.0518 6.34395e-15 8.73636e-15 0.0940685 -1.69149e-16 2.76928e-16)
(-1.75437e-15 0 0 3.0518 -3.85804e-15 -4.81509e-16 0.0940685 5.81166e-16 1.04614e-15)
(0 1.84303e-29 -3.07172e-30 2.99352 7.87439e-15 8.85368e-15 0.0936179 -2.23298e-16 2.78195e-16)
(6.52828e-15 -9.21517e-30 1.53586e-30 2.99352 -3.90854e-15 -3.9209e-16 0.0936179 5.56904e-16 1.01447e-15)
(2.07093e-15 -9.18968e-30 2.63552e-30 2.9366 7.43106e-15 8.73701e-15 0.0931773 -2.70758e-16 2.77565e-16)
(0 6.0554e-30 -2.27077e-30 2.9366 -4.63841e-15 -3.44e-16 0.0931773 5.43052e-16 9.82458e-16)
(0 2.9843e-30 -1.49215e-30 2.88101 5.97431e-15 8.87641e-15 0.0927465 -2.01434e-16 2.95406e-16)
(-1.16699e-14 0 7.46076e-31 2.88101 -5.3168e-15 -4.73953e-16 0.0927465 5.08018e-16 9.52382e-16)
(-3.31187e-15 5.88306e-30 0 2.8267 5.40942e-15 8.94135e-15 0.0923251 -1.83995e-16 2.89978e-16)
(0 2.94153e-30 -2.20615e-30 2.8267 -4.19818e-15 -5.71963e-16 0.0923251 4.69991e-16 9.18288e-16)
(0 2.89937e-30 -2.17453e-30 2.77364 4.62092e-15 8.81674e-15 0.0919129 -1.7008e-16 2.95722e-16)
(0 0 1.44969e-30 2.77364 -3.99621e-15 -5.26073e-16 0.0919129 4.65951e-16 8.84248e-16)
(2.09685e-15 1.97293e-29 -3.90823e-30 2.72178 3.85617e-15 8.81619e-15 0.0915095 -1.36627e-16 2.98436e-16)
(0 -2.28625e-29 4.28672e-30 2.72178 -4.73985e-15 -5.05718e-16 0.0915095 4.79015e-16 8.50111e-16)
(2.10326e-15 8.13378e-30 -1.02798e-30 2.6711 3.56454e-15 8.9604e-15 0.0911147 -1.23149e-16 3.14316e-16)
(0 -5.63371e-30 7.04214e-31 2.6711 -4.02473e-15 -5.60939e-16 0.0911147 4.68768e-16 8.16183e-16)
(-4.21926e-15 6.26558e-30 -2.15699e-30 2.62155 3.91552e-15 9.17768e-15 0.0907283 -1.20545e-16 3.22359e-16)
(8.43853e-15 0 1.38824e-30 2.62155 -3.32217e-15 -5.3501e-16 0.0907283 4.55221e-16 7.79112e-16)
(-2.11598e-15 -2.35152e-30 -3.89339e-31 2.57311 5.11373e-15 9.19313e-15 0.09035 -1.5128e-16 3.24619e-16)
(0 8.21007e-30 -6.84172e-31 2.57311 -4.26449e-15 -4.21098e-16 0.09035 4.41359e-16 7.43638e-16)
(0 0 -6.74366e-31 2.52574 6.19517e-15 9.22516e-15 0.0899796 -2.09013e-16 3.34105e-16)
(0 0 6.74366e-31 2.52574 -3.83783e-15 -4.52365e-16 0.0899796 4.05168e-16 7.0889e-16)
(0 1.06352e-29 -1.9941e-30 2.47942 6.48221e-15 9.50218e-15 0.0896167 -2.33486e-16 3.5434e-16)
(0 -1.06352e-29 6.64701e-31 2.47942 -4.91448e-15 -3.74812e-16 0.0896167 3.86354e-16 6.70987e-16)
(-5.90128e-15 1.04828e-29 -1.96552e-30 2.43411 6.72057e-15 9.59754e-15 0.0892613 -2.36078e-16 3.50951e-16)
(0 0 0 2.43411 -6.13832e-15 -1.50042e-16 0.0892613 3.27522e-16 6.34988e-16)
(0 5.16627e-30 -2.58314e-30 2.38978 6.49838e-15 9.57307e-15 0.0889131 -2.57969e-16 3.62882e-16)
(1.42205e-14 -5.16627e-30 1.66692e-31 2.38978 -4.21321e-15 4.47148e-30 0.0889131 2.77412e-16 6.00571e-16)
(-4.29464e-15 1.06931e-30 -9.17661e-31 2.34641 5.81379e-15 1.6982e-15 0.0885719 -2.26307e-16 3.21138e-17)
(8.58929e-15 5.09222e-30 0 2.34641 -3.92688e-15 2.43639e-16 0.0885719 2.53586e-16 5.63943e-16)
(2.15351e-15 -8.09526e-30 4.57713e-31 2.30398 5.62537e-15 -9.86076e-32 0.0882374 -2.13366e-16 3.9443e-31)
(0 5.01924e-30 -2.50962e-30 2.30398 -5.88735e-15 5.00483e-17 0.0882374 2.08203e-16 5.19251e-16)
(0 4.9473e-30 -1.23683e-30 2.26245 5.64089e-15 -1.99695e-15 0.0879096 -2.18371e-16 7.28442e-17)
(-1.14238e-14 0 1.41819e-30 2.26245 -5.50332e-15 0 0.0879096 1.24376e-16 4.66945e-16)
(-2.16583e-15 -1.15693e-29 3.22977e-30 2.2218 6.22674e-15 -2.15175e-15 0.0875881 -2.20834e-16 8.27054e-17)
(5.91814e-15 1.95056e-29 -4.87639e-30 2.2218 -3.17811e-15 2.20709e-16 0.0875881 7.04758e-17 4.13314e-16)
(0 4.8065e-30 -2.40325e-30 2.18201 7.50873e-15 -2.17742e-15 0.0872729 -2.71381e-16 8.7294e-17)
(-2.70582e-15 0 1.20163e-30 2.18201 -4.26833e-15 2.64001e-15 0.0872729 4.28363e-17 3.62329e-16)
(2.66704e-15 -9.47523e-30 2.36881e-30 2.14306 7.50997e-15 -2.3122e-15 0.0869637 -3.30787e-16 8.72003e-17)
(0 9.47523e-30 -2.36881e-30 2.14306 -6.66218e-15 5.62293e-15 0.0869637 -1.61189e-17 3.57034e-16)
(-2.18412e-15 7.69393e-30 -1.56148e-30 2.10492 6.1286e-15 -2.67284e-15 0.0866604 -2.79432e-16 1.00889e-16)
(0 -4.66971e-30 1.16743e-30 2.10492 -5.88845e-15 6.265e-15 0.0866604 -1.10519e-16 3.64614e-16)
(8.01917e-16 -2.61729e-29 4.99404e-30 2.06757 6.59449e-15 -2.80934e-15 0.0863628 -2.25705e-16 1.19719e-16)
(1.75214e-14 3.22195e-29 -5.75348e-30 2.06757 -4.07408e-15 6.20282e-15 0.0863628 -1.74851e-16 3.69922e-16)
(-2.554e-15 4.53681e-30 -2.26841e-30 2.03099 9.21623e-15 -2.57665e-15 0.0860707 -3.26889e-16 1.1535e-16)
(0 0 1.1342e-30 2.03099 -6.28901e-15 6.26545e-15 0.0860707 -2.06076e-16 3.76056e-16)
(0 1.34154e-29 -3.35384e-30 1.99516 9.97027e-15 -2.74041e-15 0.0857841 -4.56526e-16 1.03327e-16)
(0 -4.47179e-30 1.11795e-30 1.99516 -7.60777e-15 6.41925e-15 0.0857841 -3.17171e-16 3.84649e-16)
(-6.62464e-15 -1.31577e-29 4.48202e-30 1.96006 8.33755e-15 -2.96752e-15 0.0855027 -4.01887e-16 1.32937e-16)
(1.76657e-14 2.64462e-29 -6.61154e-30 1.96006 -4.43691e-15 6.43882e-15 0.0855027 -3.75515e-16 3.89153e-16)
(0 -3.04117e-29 7.60291e-30 1.92568 7.5924e-15 -2.71247e-15 0.0852264 -3.2618e-16 1.26346e-16)
(1.77135e-14 3.04117e-29 -7.60291e-30 1.92568 -5.39033e-15 6.35499e-15 0.0852264 -3.74794e-16 3.91028e-16)
(-2.22014e-15 1.15142e-29 -3.532e-30 1.89199 7.66087e-15 -2.83143e-15 0.0849551 -3.47114e-16 1.14054e-16)
(0 -4.28225e-30 2.14113e-30 1.89199 -6.7243e-15 6.52383e-15 0.0849551 -4.90117e-16 3.96113e-16)
(2.22607e-15 -3.2484e-29 6.63441e-30 1.85898 7.98239e-15 -2.96402e-15 0.0846885 -3.41938e-16 1.40825e-16)
(1.78086e-14 2.95462e-29 -6.33132e-30 1.85898 -4.04832e-15 6.63231e-15 0.0846885 -5.94089e-16 4.045e-16)
(0 -1.66415e-29 3.12029e-30 1.82663 8.09144e-15 -2.94128e-15 0.0844267 -3.86837e-16 1.29583e-16)