/*--------------------------------*- C++ -*----------------------------------*\
| =========                 |                                                 |
| \\      /  F ield         | OpenFOAM: The Open Source CFD Toolbox           |
|  \\    /   O peration     | Version:  2106                                  |
|   \\  /    A nd           | Website:  www.openfoam.com                      |
|    \\/     M anipulation  |                                                 |
\*---------------------------------------------------------------------------*/
FoamFile
{
    version     2.0;
    format      ascii;
    arch        "LSB;label=32;scalar=64";
    class       surfaceScalarField;
    location    "13000";
    object      phi;
}
// * * * * * * * * * * * * * * * * * * * * * * * * * * * * * * * * * * * * * //

dimensions      [0 3 -1 0 0 0 0];

oriented        oriented;

internalField   nonuniform List<scalar> 
5116
(
2.67697e-08
-1.0532e-17
-6.65312e-22
-1.39748e-21
-1.90898e-24
8.18637e-08
-1.05285e-17
-1.14148e-21
-3.77519e-21
-8.60918e-24
1.39353e-07
-1.05248e-17
-1.18279e-21
-6.22744e-21
-9.01619e-24
1.99319e-07
-1.0521e-17
-1.23864e-21
-8.8205e-21
-9.45604e-24
2.61846e-07
-1.0517e-17
-1.29607e-21
-1.15157e-20
-9.93238e-24
3.27019e-07
-1.05129e-17
-1.35523e-21
-1.42717e-20
-1.04498e-23
3.94928e-07
-1.05086e-17
-1.41727e-21
-1.72106e-20
-1.10119e-23
4.65663e-07
-1.0504e-17
-1.48235e-21
-2.02577e-20
-1.16218e-23
5.39319e-07
-1.04994e-17
-1.55043e-21
-2.34462e-20
-1.22825e-23
6.15991e-07
-1.04942e-17
-1.62153e-21
-2.68594e-20
-1.29989e-23
6.95777e-07
-1.0489e-17
-1.6957e-21
-3.03259e-20
-1.37746e-23
7.78774e-07
-1.04837e-17
-1.773e-21
-3.40324e-20
-1.461e-23
8.65082e-07
-1.04781e-17
-1.85347e-21
-3.76408e-20
-1.55102e-23
9.54799e-07
-1.04724e-17
-1.93713e-21
-4.15226e-20
-1.64817e-23
1.04802e-06
-1.04659e-17
-2.02396e-21
-4.58708e-20
-1.75258e-23
1.14484e-06
-1.04594e-17
-2.11391e-21
-5.01576e-20
-1.86422e-23
1.24535e-06
-1.04527e-17
-2.20684e-21
-5.47371e-20
-1.98404e-23
1.34962e-06
-1.04451e-17
-2.30259e-21
-5.99302e-20
-2.11174e-23
1.45773e-06
-1.04381e-17
-2.40086e-21
-6.48138e-20
-2.24751e-23
1.56973e-06
-1.04304e-17
-2.5013e-21
-6.99868e-20
-2.39195e-23
1.68567e-06
-1.04223e-17
-2.60342e-21
-7.5407e-20
-2.54524e-23
1.80556e-06
-1.04135e-17
-2.70667e-21
-8.12255e-20
-2.7073e-23
1.92942e-06
-1.04063e-17
-2.8104e-21
-8.5993e-20
-2.87791e-23
2.05721e-06
-1.0397e-17
-2.91383e-21
-9.22088e-20
-3.05729e-23
2.1889e-06
-1.03875e-17
-3.01618e-21
-9.86556e-20
-3.24336e-23
2.32441e-06
-1.0378e-17
-3.11658e-21
-1.05275e-19
-3.43572e-23
2.46364e-06
-1.0368e-17
-3.21417e-21
-1.11724e-19
-3.63516e-23
2.60647e-06
-1.03576e-17
-3.30812e-21
-1.18965e-19
-3.84053e-23
2.75277e-06
-1.03474e-17
-3.3977e-21
-1.25469e-19
-4.05024e-23
2.90236e-06
-1.03365e-17
-3.48225e-21
-1.32688e-19
-4.26399e-23
3.05509e-06
-1.0325e-17
-3.56129e-21
-1.40276e-19
-4.48031e-23
3.21078e-06
-1.03137e-17
-3.63446e-21
-1.48229e-19
-4.69917e-23
3.36924e-06
-1.03025e-17
-3.70161e-21
-1.55638e-19
-4.91795e-23
3.5303e-06
-1.0291e-17
-3.76271e-21
-1.633e-19
-5.13639e-23
3.6938e-06
-1.02788e-17
-3.8179e-21
-1.71273e-19
-5.35464e-23
3.85958e-06
-1.02664e-17
-3.86748e-21
-1.78817e-19
-5.57288e-23
4.0275e-06
-1.0256e-17
-3.91181e-21
-1.85426e-19
-5.79231e-23
4.19745e-06
-1.0244e-17
-3.95129e-21
-1.93639e-19
-6.01868e-23
4.36932e-06
-1.02309e-17
-3.98648e-21
-2.01097e-19
-6.24617e-23
4.54303e-06
-1.02189e-17
-4.01791e-21
-2.08997e-19
-6.47734e-23
4.71851e-06
-1.02064e-17
-4.04612e-21
-2.17323e-19
-6.71297e-23
4.89573e-06
-1.01934e-17
-4.07162e-21
-2.25019e-19
-6.95096e-23
5.07464e-06
-1.01803e-17
-4.09496e-21
-2.33281e-19
-7.19508e-23
5.25523e-06
-1.0169e-17
-4.11662e-21
-2.40952e-19
-7.44409e-23
5.43751e-06
-1.01555e-17
-4.13695e-21
-2.49399e-19
-7.70503e-23
5.62148e-06
-1.01415e-17
-4.1564e-21
-2.58212e-19
-7.97266e-23
5.80716e-06
-1.01291e-17
-4.17536e-21
-2.66464e-19
-8.24672e-23
5.9946e-06
-1.01154e-17
-4.19404e-21
-2.75038e-19
-8.53445e-23
6.18383e-06
-1.01018e-17
-4.21276e-21
-2.83574e-19
-8.83162e-23
6.37488e-06
-1.00885e-17
-4.23173e-21
-2.92392e-19
-9.14533e-23
6.56783e-06
-1.00742e-17
-4.25117e-21
-3.00687e-19
-9.47406e-23
6.76272e-06
-1.00598e-17
-4.27122e-21
-3.09977e-19
-9.82123e-23
6.95961e-06
-1.00472e-17
-4.29205e-21
-3.18807e-19
-1.0187e-22
7.15856e-06
-1.00345e-17
-4.31367e-21
-3.27214e-19
-1.05695e-22
7.35966e-06
-1.00216e-17
-4.33622e-21
-3.36173e-19
-1.09764e-22
7.56295e-06
-1.00088e-17
-4.35979e-21
-3.45589e-19
-1.14021e-22
7.76852e-06
-9.99636e-18
-4.38445e-21
-3.5615e-19
-1.18453e-22
7.97644e-06
-9.98329e-18
-4.41027e-21
-3.63976e-19
-1.2317e-22
8.18677e-06
-9.96826e-18
-4.43725e-21
-3.74597e-19
-1.28239e-22
8.3996e-06
-9.95537e-18
-4.46567e-21
-3.83651e-19
-1.33408e-22
8.615e-06
-9.9454e-18
-4.49533e-21
-3.89338e-19
-1.38876e-22
8.83304e-06
-9.93045e-18
-4.526e-21
-3.99473e-19
-1.44822e-22
9.05381e-06
-9.91496e-18
-4.55792e-21
-4.10885e-19
-1.51117e-22
9.27737e-06
-9.9003e-18
-4.59115e-21
-4.21299e-19
-1.57571e-22
9.50381e-06
-9.88668e-18
-4.62562e-21
-4.28852e-19
-1.64239e-22
9.7332e-06
-9.87364e-18
-4.66124e-21
-4.35253e-19
-1.71291e-22
9.96562e-06
-9.85994e-18
-4.69795e-21
-4.45385e-19
-1.7867e-22
1.02012e-05
-9.84377e-18
-4.73568e-21
-4.56744e-19
-1.86493e-22
1.04399e-05
-9.82931e-18
-4.77475e-21
-4.67587e-19
-1.94139e-22
1.06819e-05
-9.81173e-18
-4.81518e-21
-4.78831e-19
-2.01603e-22
1.09272e-05
-9.79254e-18
-4.85703e-21
-4.92632e-19
-2.0888e-22
1.1176e-05
-9.7759e-18
-4.90068e-21
-5.03482e-19
-2.15856e-22
1.14282e-05
-9.7597e-18
-4.94558e-21
-5.1592e-19
-2.22843e-22
1.16841e-05
-9.74196e-18
-4.9919e-21
-5.26518e-19
-2.29457e-22
1.19436e-05
-9.72938e-18
-5.03975e-21
-5.36108e-19
-2.35691e-22
1.22069e-05
-9.7162e-18
-5.08866e-21
-5.42716e-19
-2.41833e-22
1.2474e-05
-9.70302e-18
-5.13863e-21
-5.52023e-19
-2.48103e-22
1.27451e-05
-9.68705e-18
-5.18953e-21
-5.59715e-19
-2.54363e-22
1.30201e-05
-9.67198e-18
-5.2416e-21
-5.71762e-19
-2.60611e-22
1.32992e-05
-9.65646e-18
-5.29479e-21
-5.81707e-19
-2.66372e-22
1.35825e-05
-9.64086e-18
-5.34928e-21
-5.91722e-19
-2.7209e-22
1.38701e-05
-9.62301e-18
-5.40464e-21
-6.02013e-19
-2.7798e-22
1.4162e-05
-9.6087e-18
-5.46102e-21
-6.10526e-19
-2.84006e-22
1.44583e-05
-9.59189e-18
-5.51864e-21
-6.21985e-19
-2.89712e-22
1.47592e-05
-9.57655e-18
-5.57762e-21
-6.32483e-19
-2.95324e-22
1.50646e-05
-9.55928e-18
-5.63742e-21
-6.43292e-19
-3.01081e-22
1.53748e-05
-9.54432e-18
-5.69802e-21
-6.48921e-19
-3.07464e-22
1.56897e-05
-9.52739e-18
-5.75929e-21
-6.60609e-19
-3.15181e-22
1.60095e-05
-9.51475e-18
-5.82113e-21
-6.63315e-19
-3.23204e-22
1.63343e-05
-9.49905e-18
-5.88301e-21
-6.75062e-19
-3.3264e-22
1.66642e-05
-9.48193e-18
-5.94606e-21
-6.82853e-19
-3.42474e-22
1.69992e-05
-9.46253e-18
-6.00944e-21
-6.9322e-19
-3.53848e-22
1.73395e-05
-9.44936e-18
-6.07316e-21
-7.04382e-19
-3.6621e-22
1.76851e-05
-9.43374e-18
-6.13664e-21
-7.15436e-19
-3.78948e-22
1.80362e-05
-9.41658e-18
-6.20042e-21
-7.26345e-19
-3.92958e-22
1.83929e-05
-9.39915e-18
-6.26498e-21
-7.36179e-19
-4.07563e-22
1.87552e-05
-9.38205e-18
-6.32977e-21
-7.49256e-19
-4.22824e-22
1.91233e-05
-9.36209e-18
-6.39529e-21
-7.63173e-19
-4.3727e-22
1.94972e-05
-9.34676e-18
-6.46201e-21
-7.72497e-19
-4.51568e-22
1.98771e-05
-9.32642e-18
-6.52992e-21
-7.83483e-19
-4.66706e-22
2.02631e-05
-9.30772e-18
-6.59931e-21
-7.94634e-19
-4.82921e-22
2.06553e-05
-9.28351e-18
-6.66876e-21
-8.07606e-19
-4.99792e-22
2.10538e-05
-9.26223e-18
-6.73985e-21
-8.23537e-19
-5.17279e-22
2.14586e-05
-9.24066e-18
-6.81231e-21
-8.36514e-19
-5.34617e-22
2.187e-05
-9.21983e-18
-6.88557e-21
-8.54023e-19
-5.51868e-22
2.22881e-05
-9.19595e-18
-6.95936e-21
-8.67493e-19
-5.69509e-22
2.27128e-05
-9.17373e-18
-7.03342e-21
-8.85069e-19
-5.8753e-22
2.31445e-05
-9.1489e-18
-7.10761e-21
-9.02225e-19
-6.05857e-22
2.35831e-05
-9.11885e-18
-7.184e-21
-9.22621e-19
-6.23063e-22
2.40289e-05
-9.09445e-18
-7.2632e-21
-9.36416e-19
-6.38353e-22
2.44818e-05
-9.07645e-18
-7.34274e-21
-9.47164e-19
-6.54371e-22
2.49422e-05
-9.05469e-18
-7.42117e-21
-9.56155e-19
-6.71061e-22
2.541e-05
-9.03776e-18
-7.49979e-21
-9.65332e-19
-6.89298e-22
2.58854e-05
-9.01441e-18
-7.57769e-21
-9.7784e-19
-7.09382e-22
2.63686e-05
-8.99268e-18
-7.65633e-21
-9.90883e-19
-7.30127e-22
2.68597e-05
-8.96971e-18
-7.7347e-21
-1.00186e-18
-7.52005e-22
2.73587e-05
-8.94799e-18
-7.81118e-21
-1.01601e-18
-7.74334e-22
2.78659e-05
-8.9193e-18
-7.88739e-21
-1.02937e-18
-7.94857e-22
2.83814e-05
-8.89972e-18
-7.96504e-21
-1.04311e-18
-8.14482e-22
2.89054e-05
-8.87154e-18
-8.04132e-21
-1.05837e-18
-8.31939e-22
2.94379e-05
-8.84017e-18
-8.1183e-21
-1.07739e-18
-8.48355e-22
2.99791e-05
-8.81651e-18
-8.19689e-21
-1.0952e-18
-8.61355e-22
3.05292e-05
-8.78773e-18
-8.27618e-21
-1.11646e-18
-8.73673e-22
3.10883e-05
-8.75442e-18
-8.35614e-21
-1.13083e-18
-8.85105e-22
3.16565e-05
-8.72597e-18
-8.4397e-21
-1.15263e-18
-8.98984e-22
3.22341e-05
-8.69786e-18
-8.5228e-21
-1.17237e-18
-9.10025e-22
3.28212e-05
-8.66581e-18
-8.60499e-21
-1.19419e-18
-9.18582e-22
3.34178e-05
-8.63093e-18
-8.68601e-21
-1.21706e-18
-9.2794e-22
3.40243e-05
-8.59428e-18
-8.769e-21
-1.22887e-18
-9.35152e-22
3.46408e-05
-8.56004e-18
-8.85629e-21
-1.25301e-18
-9.4562e-22
3.52674e-05
-8.52386e-18
-8.94467e-21
-1.27873e-18
-9.56909e-22
3.59042e-05
-8.49776e-18
-9.03578e-21
-1.30028e-18
-9.65044e-22
3.65516e-05
-8.47499e-18
-9.12581e-21
-1.31331e-18
-9.74819e-22
3.72096e-05
-8.4459e-18
-9.2121e-21
-1.32374e-18
-9.89741e-22
3.78784e-05
-8.42692e-18
-9.29684e-21
-1.33481e-18
-1.01101e-21
3.85582e-05
-8.40065e-18
-9.38388e-21
-1.3434e-18
-1.0335e-21
3.92492e-05
-8.37249e-18
-9.4758e-21
-1.36019e-18
-1.059e-21
3.99516e-05
-8.34569e-18
-9.5719e-21
-1.37393e-18
-1.08382e-21
4.06656e-05
-8.32513e-18
-9.66898e-21
-1.38577e-18
-1.10693e-21
4.13913e-05
-8.29515e-18
-9.76156e-21
-1.39161e-18
-1.12776e-21
4.21289e-05
-8.2714e-18
-9.85646e-21
-1.41399e-18
-1.15155e-21
4.28787e-05
-8.2456e-18
-9.94934e-21
-1.43289e-18
-1.16982e-21
4.36408e-05
-8.22098e-18
-1.00453e-20
-1.44874e-18
-1.18748e-21
4.44155e-05
-8.18936e-18
-1.0145e-20
-1.46815e-18
-1.19947e-21
4.5203e-05
-8.15336e-18
-1.025e-20
-1.49671e-18
-1.20738e-21
4.60034e-05
-8.11629e-18
-1.03599e-20
-1.52605e-18
-1.20777e-21
4.6817e-05
-8.08255e-18
-1.04714e-20
-1.54505e-18
-1.20718e-21
4.76441e-05
-8.05194e-18
-1.05872e-20
-1.56716e-18
-1.20937e-21
4.84847e-05
-8.01868e-18
-1.07042e-20
-1.59245e-18
-1.21323e-21
4.93392e-05
-7.97352e-18
-1.08239e-20
-1.62432e-18
-1.21545e-21
5.02077e-05
-7.93794e-18
-1.09499e-20
-1.64438e-18
-1.21618e-21
5.10906e-05
-7.89025e-18
-1.1074e-20
-1.68153e-18
-1.21602e-21
5.19881e-05
-7.85663e-18
-1.121e-20
-1.70437e-18
-1.21111e-21
5.29003e-05
-7.80263e-18
-1.13498e-20
-1.73312e-18
-1.21167e-21
5.38275e-05
-7.7738e-18
-1.15013e-20
-1.75153e-18
-1.21171e-21
5.477e-05
-7.74945e-18
-1.16469e-20
-1.76713e-18
-1.22742e-21
5.5728e-05
-7.72842e-18
-1.17791e-20
-1.78144e-18
-1.26155e-21
5.67019e-05
-7.69832e-18
-1.18913e-20
-1.80149e-18
-1.29761e-21
5.76917e-05
-7.65892e-18
-1.19976e-20
-1.81432e-18
-1.33619e-21
5.86979e-05
-7.60897e-18
-1.21063e-20
-1.836e-18
-1.38747e-21
5.97206e-05
-7.55894e-18
-1.22189e-20
-1.85492e-18
-1.43577e-21
6.07602e-05
-7.53449e-18
-1.23319e-20
-1.8781e-18
-1.47715e-21
6.18168e-05
-7.52733e-18
-1.24382e-20
-1.89588e-18
-1.49991e-21
6.28909e-05
-7.49578e-18
-1.25233e-20
-1.92006e-18
-1.52798e-21
6.39827e-05
-7.47275e-18
-1.26179e-20
-1.94208e-18
-1.54752e-21
6.50924e-05
-7.42954e-18
-1.2699e-20
-1.96743e-18
-1.555e-21
6.62204e-05
-7.40346e-18
-1.27798e-20
-1.98736e-18
-1.56701e-21
6.7367e-05
-7.36332e-18
-1.28674e-20
-2.00963e-18
-1.56976e-21
6.85324e-05
-7.32594e-18
-1.29587e-20
-2.03032e-18
-1.56806e-21
6.9717e-05
-7.28953e-18
-1.30603e-20
-2.05822e-18
-1.55537e-21
7.09211e-05
-7.24143e-18
-1.31797e-20
-2.08354e-18
-1.54586e-21
7.21449e-05
-7.19724e-18
-1.33129e-20
-2.10152e-18
-1.53004e-21
7.3389e-05
-7.15568e-18
-1.34601e-20
-2.13588e-18
-1.52331e-21
7.46534e-05
-7.11976e-18
-1.36181e-20
-2.16108e-18
-1.51944e-21
7.59387e-05
-7.07226e-18
-1.37212e-20
-2.19034e-18
-1.55281e-21
7.7245e-05
-7.03471e-18
-1.38344e-20
-2.21629e-18
-1.56799e-21
7.85729e-05
-6.98553e-18
-1.39353e-20
-2.25334e-18
-1.5814e-21
7.99226e-05
-6.93467e-18
-1.40253e-20
-2.27707e-18
-1.58328e-21
8.12944e-05
-6.88122e-18
-1.41058e-20
-2.32547e-18
-1.5588e-21
8.26887e-05
-6.82653e-18
-1.41928e-20
-2.34105e-18
-1.49333e-21
8.4106e-05
-6.78982e-18
-1.42936e-20
-2.3762e-18
-1.46484e-21
8.55465e-05
-6.74135e-18
-1.43511e-20
-2.39393e-18
-1.43611e-21
8.70107e-05
-6.68995e-18
-1.44078e-20
-2.4182e-18
-1.44383e-21
8.84989e-05
-6.63034e-18
-1.44439e-20
-2.42711e-18
-1.44414e-21
9.00115e-05
-6.58993e-18
-1.44718e-20
-2.44123e-18
-1.48468e-21
9.1549e-05
-6.53478e-18
-1.44911e-20
-2.47081e-18
-1.59056e-21
9.31116e-05
-6.48084e-18
-1.45108e-20
-2.50264e-18
-1.69733e-21
9.46999e-05
-6.43142e-18
-1.45536e-20
-2.53095e-18
-1.81562e-21
9.63142e-05
-6.37477e-18
-1.45751e-20
-2.55333e-18
-1.90298e-21
9.7955e-05
-6.32461e-18
-1.46213e-20
-2.59174e-18
-1.99164e-21
9.96227e-05
-6.27806e-18
-1.46618e-20
-2.60896e-18
-2.03001e-21
0.000101318
-6.22113e-18
-1.46852e-20
-2.62009e-18
-2.09541e-21
0.00010304
-6.17243e-18
-1.47018e-20
-2.65452e-18
-2.22841e-21
0.000104791
-6.11818e-18
-1.47407e-20
-2.67672e-18
-2.31042e-21
0.000106571
-6.05858e-18
-1.47794e-20
-2.6838e-18
-2.37722e-21
0.00010838
-6.0164e-18
-1.48214e-20
-2.71109e-18
-2.4974e-21
0.000110218
-5.95594e-18
-1.48443e-20
-2.73298e-18
-2.60484e-21
0.000112086
-5.91145e-18
-1.48194e-20
-2.76592e-18
-2.69909e-21
0.000113985
-5.84862e-18
-1.48041e-20
-2.7871e-18
-2.77986e-21
0.000115915
-5.80479e-18
-1.48668e-20
-2.80807e-18
-2.84672e-21
0.000117877
-5.71781e-18
-1.48905e-20
-2.82791e-18
-2.90964e-21
0.00011987
-5.67236e-18
-1.49661e-20
-2.85096e-18
-3.0403e-21
0.000121897
-5.5979e-18
-1.49745e-20
-2.88554e-18
-3.22243e-21
0.000123956
-5.51334e-18
-1.50886e-20
-2.8938e-18
-3.37464e-21
0.000126049
-5.44534e-18
-1.52937e-20
-2.92358e-18
-3.54021e-21
0.000128176
-5.37384e-18
-1.5515e-20
-2.92951e-18
-3.65317e-21
0.000130337
-5.33881e-18
-1.56951e-20
-2.94236e-18
-3.85649e-21
0.000132534
-5.27581e-18
-1.58041e-20
-2.95797e-18
-4.09679e-21
0.000134767
-5.23217e-18
-1.58909e-20
-2.97633e-18
-4.32414e-21
0.000137036
-5.18187e-18
-1.59625e-20
-2.99878e-18
-4.56792e-21
0.000139342
-5.10575e-18
-1.60465e-20
-3.01224e-18
-4.7735e-21
0.000141686
-5.04362e-18
-1.62142e-20
-3.01915e-18
-5.02986e-21
0.000144068
-5.01986e-18
-1.64635e-20
-3.02514e-18
-5.34378e-21
0.000146489
-4.95893e-18
-1.67711e-20
-3.02075e-18
-5.55236e-21
0.000148949
-4.88509e-18
-1.70356e-20
-3.051e-18
-5.7999e-21
0.000151449
-4.81172e-18
-1.71986e-20
-3.06175e-18
-5.8882e-21
0.000153989
-4.76244e-18
-1.73923e-20
-3.06777e-18
-6.00014e-21
0.000156571
-4.71244e-18
-1.78132e-20
-3.07202e-18
-6.25763e-21
0.000159195
-4.6924e-18
-1.82776e-20
-3.05232e-18
-6.60057e-21
0.000161862
-4.64217e-18
-1.86041e-20
-3.06036e-18
-7.07621e-21
0.000164571
-4.62058e-18
-1.90291e-20
-3.08736e-18
-7.48001e-21
0.000167325
-4.56596e-18
-1.94043e-20
-3.09902e-18
-7.70083e-21
0.000170123
-4.54156e-18
-1.97577e-20
-3.08728e-18
-7.7496e-21
0.000172967
-4.5035e-18
-2.02359e-20
-3.0918e-18
-7.75001e-21
0.000175857
-4.4377e-18
-2.07137e-20
-3.11321e-18
-7.86831e-21
0.000178794
-4.38278e-18
-2.11542e-20
-3.11378e-18
-7.91671e-21
0.000181778
-4.33451e-18
-2.12682e-20
-3.11392e-18
-7.91586e-21
0.00018481
-4.30305e-18
-2.15233e-20
-3.11161e-18
-7.89194e-21
0.000187892
-4.23971e-18
-2.17417e-20
-3.0966e-18
-8.05308e-21
0.000191023
-4.23891e-18
-2.19739e-20
-3.11441e-18
-8.29914e-21
0.000194205
-4.20982e-18
-2.19282e-20
-3.10452e-18
-8.31001e-21
0.000197438
-4.19305e-18
-2.15956e-20
-3.08793e-18
-8.24409e-21
0.000200724
-4.12758e-18
-2.10903e-20
-3.05995e-18
-8.31876e-21
0.000204062
-4.08727e-18
-2.08956e-20
-3.0643e-18
-8.70827e-21
0.000207454
-4.07216e-18
-2.07958e-20
-3.04666e-18
-8.92739e-21
0.000210901
-4.0006e-18
-2.06534e-20
-3.04744e-18
-9.2093e-21
0.000214404
-3.9648e-18
-2.05188e-20
-3.00765e-18
-9.52871e-21
0.000217962
-3.91877e-18
-2.01285e-20
-3.01509e-18
-1.03058e-20
0.000221578
-3.89525e-18
-2.01151e-20
-3.02979e-18
-1.11083e-20
0.000225253
-3.87298e-18
-2.00941e-20
-3.03299e-18
-1.15346e-20
0.000228986
-3.83902e-18
-2.01271e-20
-3.0265e-18
-1.15867e-20
0.000232779
-3.84383e-18
-2.03633e-20
-3.01183e-18
-1.1901e-20
0.000236633
-3.83876e-18
-2.0332e-20
-3.00697e-18
-1.20406e-20
0.000240548
-3.7816e-18
-2.0664e-20
-3.00105e-18
-1.20962e-20
0.000244527
-3.73922e-18
-2.13527e-20
-3.03537e-18
-1.21343e-20
0.000248569
-3.67268e-18
-2.14896e-20
-3.0518e-18
-1.18993e-20
0.000252675
-3.62268e-18
-2.12546e-20
-3.0013e-18
-1.20178e-20
0.000256848
-3.47356e-18
-2.17969e-20
-3.04778e-18
-1.31025e-20
0.000261087
-3.44624e-18
-2.35409e-20
-2.99156e-18
-1.34017e-20
0.000265393
-3.40325e-18
-2.53999e-20
-2.96294e-18
-1.37805e-20
0.000269768
-3.3773e-18
-2.6091e-20
-3.0114e-18
-1.48414e-20
0.000274213
-3.32986e-18
-2.64047e-20
-2.91652e-18
-1.48267e-20
0.000278729
-3.36451e-18
-2.63206e-20
-2.90229e-18
-1.57317e-20
0.000283316
-3.26083e-18
-2.51657e-20
-2.865e-18
-1.68088e-20
0.000287976
-3.22799e-18
-2.47067e-20
-2.84094e-18
-1.84355e-20
0.00029271
-3.16661e-18
-2.32221e-20
-2.89283e-18
-1.93234e-20
0.00029752
-3.0872e-18
-2.2139e-20
-2.84759e-18
-1.99323e-20
0.000302405
-3.07398e-18
-2.24853e-20
-2.85357e-18
-2.0299e-20
0.000307367
-3.07834e-18
-2.14328e-20
-2.8138e-18
-1.96287e-20
0.000312408
-2.98408e-18
-1.93727e-20
-2.82147e-18
-1.9427e-20
0.000317528
-2.98842e-18
-1.8997e-20
-2.73624e-18
-1.79665e-20
0.000322729
-2.8408e-18
-1.75888e-20
-2.76868e-18
-1.55633e-20
0.000328012
-2.78843e-18
-1.8027e-20
-2.76613e-18
-1.33417e-20
0.000333378
-2.75539e-18
-1.89634e-20
-2.71282e-18
-1.13437e-20
0.000338828
-2.80291e-18
-1.99249e-20
-2.59518e-18
-1.03576e-20
0.000344363
-2.65627e-18
-1.88112e-20
-2.59807e-18
-1.10507e-20
0.000349985
-2.66632e-18
-1.84761e-20
-2.54761e-18
-1.15037e-20
0.000355695
-2.65623e-18
-1.71266e-20
-2.50377e-18
-1.14346e-20
0.000361493
-2.56246e-18
-1.38364e-20
-2.47624e-18
-1.10494e-20
0.000367382
-2.47956e-18
-1.20542e-20
-2.4734e-18
-1.12794e-20
0.000373363
-2.43197e-18
-1.18863e-20
-2.43775e-18
-1.08359e-20
0.000379436
-2.4123e-18
-1.25823e-20
-2.43603e-18
-1.11066e-20
0.000385603
-2.45571e-18
-1.36858e-20
-2.40566e-18
-1.13323e-20
0.000391866
-2.41057e-18
-1.36315e-20
-2.38207e-18
-1.12378e-20
0.000398225
-2.34529e-18
-1.34257e-20
-2.36207e-18
-1.12835e-20
0.000404681
-2.35615e-18
-1.26492e-20
-2.35102e-18
-9.19443e-21
0.000411237
-2.2825e-18
-1.07486e-20
-2.36743e-18
-6.71132e-21
0.000417893
-2.34297e-18
-1.0672e-20
-2.25944e-18
-4.86959e-21
0.000424651
-2.32651e-18
-8.3587e-21
-2.19677e-18
-5.08611e-21
0.000431512
-2.26094e-18
-7.07524e-21
-2.1697e-18
-5.69544e-21
0.000438477
-2.28078e-18
-7.34387e-21
-2.17434e-18
-5.83593e-21
0.000445547
-2.15049e-18
-5.22905e-21
-2.25004e-18
-8.20157e-21
0.000452724
-2.16151e-18
-5.60538e-21
-2.15981e-18
-1.13626e-20
0.000460009
-2.14214e-18
-4.54121e-21
-2.11691e-18
-1.73543e-20
0.000467403
-2.02258e-18
-3.72498e-21
-2.18414e-18
-2.17593e-20
0.000474908
-2.03043e-18
-6.39074e-21
-2.12264e-18
-2.07456e-20
0.000482525
-1.97902e-18
-6.95363e-21
-2.1079e-18
-2.35043e-20
0.000490254
-1.96208e-18
-1.05272e-20
-2.01383e-18
-2.3127e-20
0.000498097
-1.90087e-18
-1.30703e-20
-1.98138e-18
-2.1804e-20
0.000506056
-1.96686e-18
-1.26264e-20
-1.96135e-18
-2.09973e-20
0.000514131
-1.7977e-18
-1.24503e-20
-2.01434e-18
-1.94911e-20
0.000522323
-1.92822e-18
-1.67204e-20
-1.85235e-18
-1.17242e-20
0.000530634
-1.76115e-18
-1.37347e-20
-1.87635e-18
-8.12297e-21
0.000539065
-1.68983e-18
-1.42234e-20
-1.88047e-18
-4.89955e-21
0.000547616
-1.69795e-18
-1.84301e-20
-1.78977e-18
1.56952e-21
0.000556288
-1.82307e-18
-2.15765e-20
-1.58099e-18
5.72979e-21
0.000565083
-1.63229e-18
-1.69387e-20
-1.63294e-18
-2.47017e-21
0.000574001
-1.59718e-18
-1.57353e-20
-1.63687e-18
9.63006e-22
0.000583042
-1.53748e-18
-4.96902e-21
-1.51456e-18
4.26076e-21
0.000592208
-1.48901e-18
-4.53558e-21
-1.51566e-18
8.58181e-22
0.000601499
-1.45268e-18
-8.72464e-21
-1.50136e-18
9.93496e-22
0.000610916
-1.54286e-18
-1.06961e-20
-1.56848e-18
3.85364e-23
0.000620458
-1.59993e-18
-6.61967e-21
-1.41374e-18
-1.54788e-21
0.000630126
-1.56216e-18
-5.79621e-21
-1.4729e-18
-8.61838e-21
0.00063992
-1.70882e-18
-8.78596e-21
-1.45732e-18
-1.32713e-20
0.00064984
-1.54707e-18
-2.09709e-21
-1.59958e-18
-1.59599e-20
0.000659885
-1.48021e-18
1.44142e-22
-1.58633e-18
-9.72309e-21
0.000670056
-1.45883e-18
1.79474e-21
-1.36918e-18
-3.44252e-21
0.000680351
-1.40472e-18
2.42512e-21
-1.35301e-18
-6.42661e-21
0.000690769
-1.32155e-18
9.30444e-21
-1.38318e-18
-6.06444e-21
0.00070131
-1.25214e-18
1.06966e-20
-1.32304e-18
-1.41507e-21
0.000711973
-1.37775e-18
5.8015e-21
-1.35938e-18
1.74574e-21
0.000722755
-1.26191e-18
9.37572e-21
-1.42557e-18
3.28898e-22
0.000733655
-1.26751e-18
-1.09061e-21
-1.41041e-18
-8.83366e-22
0.000744671
-1.37566e-18
-7.71163e-21
-1.31441e-18
-2.27435e-21
0.0007558
-1.28125e-18
-1.18601e-20
-1.39677e-18
-1.14048e-20
0.00076704
-1.38657e-18
-2.23453e-20
-1.29294e-18
-6.92912e-21
0.000778389
-1.35915e-18
-1.4532e-20
-1.2472e-18
-1.19846e-20
0.000789842
-1.28338e-18
-6.3182e-21
-1.18585e-18
-2.50904e-20
0.000801397
-1.83555e-21
-1.19458e-18
-2.2636e-20
-1.09746e-18
2.67697e-08
-5.94297e-22
-7.39756e-23
8.18637e-08
-1.58926e-21
-2.32223e-22
1.39353e-07
-2.5928e-21
-4.06721e-22
1.99319e-07
-3.74343e-21
-5.27006e-22
2.61846e-07
-4.84465e-21
-7.17453e-22
3.27019e-07
-6.07418e-21
-8.60615e-22
3.94928e-07
-7.34805e-21
-1.00123e-21
4.65663e-07
-8.62805e-21
-1.13726e-21
5.39319e-07
-9.92422e-21
-1.44181e-21
6.15991e-07
-1.1212e-20
-1.7972e-21
6.95777e-07
-1.28056e-20
-1.79233e-21
7.78774e-07
-1.4491e-20
-1.98601e-21
8.65082e-07
-1.62499e-20
-2.14636e-21
9.54799e-07
-1.80327e-20
-2.28603e-21
1.04802e-06
-1.9734e-20
-2.4847e-21
1.14484e-06
-2.13648e-20
-2.87648e-21
1.24535e-06
-2.35242e-20
-2.80835e-21
1.34962e-06
-2.5549e-20
-3.20125e-21
1.45773e-06
-2.73917e-20
-3.42923e-21
1.56973e-06
-2.94551e-20
-3.71679e-21
1.68567e-06
-3.12505e-20
-4.05986e-21
1.80556e-06
-3.37605e-20
-4.69632e-21
1.92942e-06
-3.60847e-20
-4.53005e-21
2.05721e-06
-3.94362e-20
-4.38417e-21
2.1889e-06
-4.22387e-20
-3.8795e-21
2.32441e-06
-4.54092e-20
-4.19942e-21
2.46364e-06
-4.91106e-20
-4.30631e-21
2.60647e-06
-5.21917e-20
-4.71639e-21
2.75277e-06
-5.56437e-20
-4.72203e-21
2.90236e-06
-5.9038e-20
-5.10646e-21
3.05509e-06
-6.17147e-20
-5.85481e-21
3.21078e-06
-6.52055e-20
-6.04642e-21
3.36924e-06
-6.88226e-20
-6.46733e-21
3.5303e-06
-7.18677e-20
-7.09513e-21
3.6938e-06
-7.5575e-20
-7.32395e-21
3.85958e-06
-7.80985e-20
-7.49247e-21
4.0275e-06
-8.0115e-20
-9.62539e-21
4.19745e-06
-8.35165e-20
-1.12851e-20
4.36932e-06
-8.59089e-20
-1.21832e-20
4.54303e-06
-8.87615e-20
-1.2756e-20
4.71851e-06
-9.07694e-20
-1.37948e-20
4.89573e-06
-9.3818e-20
-1.60901e-20
5.07464e-06
-9.80867e-20
-1.69858e-20
5.25523e-06
-1.00881e-19
-1.90051e-20
5.43751e-06
-1.03703e-19
-1.98038e-20
5.62148e-06
-1.0757e-19
-1.99941e-20
5.80716e-06
-1.10372e-19
-2.16407e-20
5.9946e-06
-1.13555e-19
-2.17768e-20
6.18383e-06
-1.16774e-19
-2.30569e-20
6.37488e-06
-1.21251e-19
-2.41306e-20
6.56783e-06
-1.23742e-19
-2.56993e-20
6.76272e-06
-1.27099e-19
-2.82442e-20
6.95961e-06
-1.29506e-19
-2.96389e-20
7.15856e-06
-1.32749e-19
-3.06769e-20
7.35966e-06
-1.35647e-19
-3.04527e-20
7.56295e-06
-1.38758e-19
-3.10221e-20
7.76852e-06
-1.42157e-19
-3.39008e-20
7.97644e-06
-1.43785e-19
-3.55614e-20
8.18677e-06
-1.49735e-19
-3.54189e-20
8.3996e-06
-1.53158e-19
-3.80816e-20
8.615e-06
-1.5587e-19
-4.02011e-20
8.83304e-06
-1.58889e-19
-4.21118e-20
9.05381e-06
-1.63244e-19
-4.21137e-20
9.27737e-06
-1.67277e-19
-4.3177e-20
9.50381e-06
-1.71077e-19
-4.4441e-20
9.7332e-06
-1.74996e-19
-4.41766e-20
9.96562e-06
-1.76979e-19
-4.99753e-20
1.02012e-05
-1.79921e-19
-4.93068e-20
1.04399e-05
-1.83723e-19
-5.1344e-20
1.06819e-05
-1.84899e-19
-5.3914e-20
1.09272e-05
-1.8971e-19
-5.69808e-20
1.1176e-05
-1.88709e-19
-6.2145e-20
1.14282e-05
-1.92065e-19
-6.3566e-20
1.16841e-05
-1.96072e-19
-6.31686e-20
1.19436e-05
-1.99694e-19
-6.5871e-20
1.22069e-05
-2.04379e-19
-6.72926e-20
1.2474e-05
-2.07722e-19
-6.90415e-20
1.27451e-05
-2.11684e-19
-7.06959e-20
1.30201e-05
-2.16313e-19
-7.09026e-20
1.32992e-05
-2.23501e-19
-7.34534e-20
1.35825e-05
-2.27127e-19
-7.66014e-20
1.38701e-05
-2.30085e-19
-7.90113e-20
1.4162e-05
-2.38158e-19
-7.67544e-20
1.44583e-05
-2.45916e-19
-7.99327e-20
1.47592e-05
-2.51182e-19
-8.13804e-20
1.50646e-05
-2.54445e-19
-8.46497e-20
1.53748e-05
-2.59643e-19
-8.75433e-20
1.56897e-05
-2.62802e-19
-8.65312e-20
1.60095e-05
-2.64963e-19
-8.79284e-20
1.63343e-05
-2.75584e-19
-8.64087e-20
1.66642e-05
-2.79881e-19
-8.88294e-20
1.69992e-05
-2.83459e-19
-9.13447e-20
1.73395e-05
-2.88388e-19
-9.04342e-20
1.76851e-05
-2.94067e-19
-9.52039e-20
1.80362e-05
-2.9984e-19
-9.6903e-20
1.83929e-05
-3.0009e-19
-1.03131e-19
1.87552e-05
-3.0469e-19
-1.03398e-19
1.91233e-05
-3.09623e-19
-1.06388e-19
1.94972e-05
-3.16818e-19
-1.0668e-19
1.98771e-05
-3.21846e-19
-1.0958e-19
2.02631e-05
-3.23071e-19
-1.09617e-19
2.06553e-05
-3.29758e-19
-1.10571e-19
2.10538e-05
-3.38359e-19
-1.12095e-19
2.14586e-05
-3.4315e-19
-1.08767e-19
2.187e-05
-3.45512e-19
-1.12564e-19
2.22881e-05
-3.45021e-19
-1.14418e-19
2.27128e-05
-3.4743e-19
-1.1754e-19
2.31445e-05
-3.58899e-19
-1.14879e-19
2.35831e-05
-3.68212e-19
-1.1402e-19
2.40289e-05
-3.72492e-19
-1.18722e-19
2.44818e-05
-3.76817e-19
-1.20483e-19
2.49422e-05
-3.81727e-19
-1.22983e-19
2.541e-05
-3.85932e-19
-1.26897e-19
2.58854e-05
-3.90084e-19
-1.32511e-19
2.63686e-05
-3.92694e-19
-1.40955e-19
2.68597e-05
-3.8895e-19
-1.43925e-19
2.73587e-05
-3.93937e-19
-1.42864e-19
2.78659e-05
-3.99885e-19
-1.48271e-19
2.83814e-05
-4.05132e-19
-1.48249e-19
2.89054e-05
-4.0865e-19
-1.51208e-19
2.94379e-05
-4.12256e-19
-1.48837e-19
2.99791e-05
-4.22437e-19
-1.50262e-19
3.05292e-05
-4.28723e-19
-1.48973e-19
3.10883e-05
-4.39738e-19
-1.55604e-19
3.16565e-05
-4.41732e-19
-1.53757e-19
3.22341e-05
-4.47525e-19
-1.48246e-19
3.28212e-05
-4.53164e-19
-1.53738e-19
3.34178e-05
-4.64103e-19
-1.52275e-19
3.40243e-05
-4.77962e-19
-1.59461e-19
3.46408e-05
-4.83966e-19
-1.70425e-19
3.52674e-05
-4.90255e-19
-1.68689e-19
3.59042e-05
-4.96663e-19
-1.73613e-19
3.65516e-05
-5.01165e-19
-1.77547e-19
3.72096e-05
-5.03e-19
-1.86061e-19
3.78784e-05
-5.19503e-19
-1.8363e-19
3.85582e-05
-5.28632e-19
-1.8465e-19
3.92492e-05
-5.30066e-19
-1.94561e-19
3.99516e-05
-5.27116e-19
-2.04021e-19
4.06656e-05
-5.22609e-19
-2.04893e-19
4.13913e-05
-5.26847e-19
-2.10514e-19
4.21289e-05
-5.31042e-19
-2.17722e-19
4.28787e-05
-5.42089e-19
-2.24207e-19
4.36408e-05
-5.52299e-19
-2.17936e-19
4.44155e-05
-5.59845e-19
-2.26269e-19
4.5203e-05
-5.64659e-19
-2.28599e-19
4.60034e-05
-5.64337e-19
-2.36628e-19
4.6817e-05
-5.7232e-19
-2.40044e-19
4.76441e-05
-5.76587e-19
-2.45895e-19
4.84847e-05
-5.84366e-19
-2.51508e-19
4.93392e-05
-5.90414e-19
-2.56679e-19
5.02077e-05
-5.92112e-19
-2.52244e-19
5.10906e-05
-6.03491e-19
-2.57909e-19
5.19881e-05
-6.19649e-19
-2.60162e-19
5.29003e-05
-6.27795e-19
-2.64455e-19
5.38275e-05
-6.3683e-19
-2.75396e-19
5.477e-05
-6.42654e-19
-2.82708e-19
5.5728e-05
-6.41951e-19
-2.77712e-19
5.67019e-05
-6.44381e-19
-2.84942e-19
5.76917e-05
-6.47906e-19
-2.92591e-19
5.86979e-05
-6.50774e-19
-2.97876e-19
5.97206e-05
-6.53092e-19
-3.12727e-19
6.07602e-05
-6.6912e-19
-3.14136e-19
6.18168e-05
-6.76828e-19
-3.23094e-19
6.28909e-05
-6.82418e-19
-3.2169e-19
6.39827e-05
-6.71119e-19
-3.20826e-19
6.50924e-05
-6.57033e-19
-3.42665e-19
6.62204e-05
-6.68325e-19
-3.42647e-19
6.7367e-05
-6.66901e-19
-3.52837e-19
6.85324e-05
-6.77538e-19
-3.51578e-19
6.9717e-05
-6.97713e-19
-3.6337e-19
7.09211e-05
-7.0545e-19
-3.67156e-19
7.21449e-05
-7.1877e-19
-3.70555e-19
7.3389e-05
-7.36964e-19
-3.77466e-19
7.46534e-05
-7.14103e-19
-4.04783e-19
7.59387e-05
-7.29847e-19
-4.03367e-19
7.7245e-05
-7.38572e-19
-4.11042e-19
7.85729e-05
-7.3955e-19
-4.12691e-19
7.99226e-05
-7.38017e-19
-4.07327e-19
8.12944e-05
-7.46009e-19
-4.17462e-19
8.26887e-05
-7.6032e-19
-4.25088e-19
8.4106e-05
-7.54861e-19
-4.2354e-19
8.55465e-05
-7.64014e-19
-4.39118e-19
8.70107e-05
-7.64908e-19
-4.43139e-19
8.84989e-05
-7.73861e-19
-4.51355e-19
9.00115e-05
-8.02824e-19
-4.69924e-19
9.1549e-05
-8.1882e-19
-4.77951e-19
9.31116e-05
-8.44896e-19
-4.99133e-19
9.46999e-05
-8.51117e-19
-4.90081e-19
9.63142e-05
-8.73018e-19
-4.91251e-19
9.7955e-05
-8.83726e-19
-4.80928e-19
9.96227e-05
-8.90549e-19
-4.82433e-19
0.000101318
-8.94703e-19
-4.98988e-19
0.00010304
-9.2197e-19
-4.95513e-19
0.000104791
-9.25462e-19
-4.9904e-19
0.000106571
-9.19767e-19
-5.10195e-19
0.00010838
-9.23044e-19
-5.19013e-19
0.000110218
-9.02544e-19
-5.24247e-19
0.000112086
-9.16722e-19
-5.28488e-19
0.000113985
-9.25092e-19
-5.27905e-19
0.000115915
-9.08147e-19
-5.29149e-19
0.000117877
-8.85526e-19
-5.45846e-19
0.00011987
-8.58822e-19
-5.66488e-19
0.000121897
-8.70507e-19
-5.80327e-19
0.000123956
-8.76164e-19
-5.92266e-19
0.000126049
-8.78665e-19
-5.96542e-19
0.000128176
-8.6973e-19
-6.21786e-19
0.000130337
-8.94494e-19
-6.47227e-19
0.000132534
-8.93981e-19
-6.5089e-19
0.000134767
-9.03301e-19
-6.6468e-19
0.000137036
-9.18553e-19
-6.72814e-19
0.000139342
-9.37439e-19
-6.77297e-19
0.000141686
-9.74553e-19
-6.89847e-19
0.000144068
-1.04011e-18
-6.93796e-19
0.000146489
-1.03084e-18
-7.1878e-19
0.000148949
-9.93321e-19
-7.14624e-19
0.000151449
-9.89163e-19
-7.25219e-19
0.000153989
-1.04158e-18
-7.49293e-19
0.000156571
-1.05295e-18
-7.71308e-19
0.000159195
-1.06006e-18
-8.04432e-19
0.000161862
-1.07773e-18
-8.07926e-19
0.000164571
-1.08408e-18
-7.94871e-19
0.000167325
-1.05791e-18
-8.07932e-19
0.000170123
-1.09519e-18
-8.17926e-19
0.000172967
-1.09302e-18
-8.29637e-19
0.000175857
-1.06224e-18
-8.4038e-19
0.000178794
-1.00738e-18
-8.62599e-19
0.000181778
-1.03945e-18
-8.64722e-19
0.00018481
-1.05485e-18
-8.8538e-19
0.000187892
-1.05066e-18
-9.02014e-19
0.000191023
-1.05523e-18
-9.2663e-19
0.000194205
-1.02547e-18
-9.40623e-19
0.000197438
-1.02613e-18
-9.51433e-19
0.000200724
-1.04524e-18
-9.62357e-19
0.000204062
-1.06309e-18