/*--------------------------------*- C++ -*----------------------------------*\
| =========                 |                                                 |
| \\      /  F ield         | OpenFOAM: The Open Source CFD Toolbox           |
|  \\    /   O peration     | Version:  2012                                  |
|   \\  /    A nd           | Website:  www.openfoam.com                      |
|    \\/     M anipulation  |                                                 |
\*---------------------------------------------------------------------------*/
FoamFile
{
    version     2.0;
    format      ascii;
    class       volTensorField;
    location    "18000";
    object      grad(U);
}
// * * * * * * * * * * * * * * * * * * * * * * * * * * * * * * * * * * * * * //

dimensions      [0 0 -1 0 0 0 0];


internalField   nonuniform List<tensor> 
320
(
(0 -1.02334e-26 1.60673e-30 35.7196 -2.09517e-12 -4.69766e-13 0.401626 -1.17439e-14 -1.46069e-15)
(0 -4.91509e-28 -1.07115e-30 35.7196 0 7.6338e-16 0.401626 8.62817e-32 3.58184e-16)
(-2.67923e-16 -1.28028e-26 1.14222e-29 35.6745 1.21103e-27 -3.66763e-13 1.25425 -1.26218e-29 -6.48158e-15)
(0 -7.61482e-29 -9.51852e-30 35.6745 -4.01034e-14 1.00787e-15 1.25425 -5.74822e-16 -2.38958e-15)
(0 -1.35334e-29 -3.38335e-30 35.6001 5.87319e-13 -2.02255e-13 2.1505 -3.84198e-14 -8.59865e-15)
(-3.43631e-17 2.70668e-29 3.38335e-30 35.6001 -4.26218e-14 8.77337e-16 2.1505 -1.15692e-15 -2.97264e-15)
(-1.23606e-16 2.85954e-29 9.01959e-30 35.3813 2.02379e-13 -2.07545e-13 2.39697 -2.78198e-14 -1.11051e-14)
(-4.94424e-16 0 -6.01306e-30 35.3813 -5.24118e-14 1.35326e-15 2.39697 -2.03047e-15 -3.64684e-15)
(0 0 2.67167e-30 34.6452 2.36658e-28 -1.92529e-13 2.61057 0 -1.35613e-14)
(0 -5.34335e-29 -8.01502e-30 34.6452 -6.15289e-14 1.31229e-15 2.61057 -3.18646e-15 -4.37251e-15)
(0 -1.89929e-29 -7.12234e-30 32.6978 1.089e-13 -1.44669e-13 2.69972 -8.1851e-15 -9.68169e-15)
(-3.43247e-15 2.84894e-29 1.18706e-29 32.6978 -6.65451e-14 1.17801e-15 2.69972 -4.72984e-15 -5.03118e-15)
(0 0 0 29.0462 1.10869e-13 -7.98887e-14 2.59748 -9.56463e-15 -4.60493e-15)
(2.52231e-15 1.68775e-29 4.21939e-30 29.0462 -6.42571e-14 1.43894e-15 2.59748 -6.4764e-15 -5.44304e-15)
(-2.74482e-15 5.76784e-29 2.43204e-29 24.1651 1.06961e-13 -2.7599e-14 2.35314 -1.07475e-14 -1.41764e-15)
(1.05538e-15 -4.49934e-29 -2.62461e-29 24.1651 -5.94234e-14 2.01622e-15 2.35314 -8.34035e-15 -5.53668e-15)
(-1.87566e-15 4.66459e-29 2.33229e-29 19.2107 9.5383e-14 -9.5674e-15 2.07208 -1.12592e-14 -7.55431e-16)
(-4.18804e-15 -3.33185e-29 -1.99911e-29 19.2107 -5.38873e-14 2.7053e-15 2.07208 -1.0338e-14 -5.42223e-15)
(0 1.1843e-29 8.88228e-30 15.0091 8.18022e-14 -8.64806e-15 1.81821 -1.07656e-14 -1.54107e-15)
(0 0 -5.92152e-30 15.0091 -4.73736e-14 3.35261e-15 1.81821 -1.23384e-14 -5.2255e-15)
(-1.3813e-15 5.48666e-30 2.61609e-30 11.745 7.18273e-14 -1.47087e-14 1.6084 -1.05034e-14 -2.84245e-15)
(5.52521e-15 1.0524e-29 5.262e-30 11.745 -4.23213e-14 3.97063e-15 1.6084 -1.42706e-14 -5.02275e-15)
(0 0 0 9.27966 6.24457e-14 -2.12555e-14 1.43932 -1.05296e-14 -4.24399e-15)
(0 9.35188e-30 4.67594e-30 9.27966 -3.70522e-14 4.60715e-15 1.43932 -1.63724e-14 -4.79497e-15)
(7.03968e-16 -1.16292e-29 -2.24849e-29 7.41707 5.27414e-14 0 1.30291 -1.00163e-14 -3.15544e-30)
(6.5407e-15 1.66206e-29 0 7.41707 -2.99744e-14 -2.30657e-45 1.30291 -1.84118e-14 -3.29565e-15)
(1.74104e-15 2.58594e-30 -1.51368e-28 5.99371 4.57987e-14 1.46697e-14 1.19157 -9.51057e-15 -1.53033e-15)
(0 -7.38474e-30 -3.69237e-30 5.99371 -2.34378e-14 -2.28693e-14 1.19157 -2.0309e-14 -2.65899e-15)
(-1.83653e-15 -2.1721e-29 -9.84338e-30 4.88996 3.98401e-14 9.13134e-14 1.0992 -9.60585e-15 -1.85009e-14)
(1.09981e-14 2.6249e-29 9.84338e-30 4.88996 -1.82956e-14 -2.44061e-14 1.0992 -2.20657e-14 -2.31128e-15)
(0 -5.83137e-30 -2.91569e-30 4.02139 3.21889e-14 7.92674e-14 1.02123 -9.07063e-15 -1.33966e-14)
(0 5.83137e-30 8.74706e-30 4.02139 -1.39717e-14 -2.11493e-14 1.02123 -2.35705e-14 -2.24555e-15)
(2.91715e-15 0 -2.59095e-30 3.32866 2.58282e-14 5.92463e-14 0.954248 -7.86811e-15 -8.55849e-15)
(8.01515e-15 0 0 3.32866 -1.05093e-14 -1.27923e-14 0.954248 -2.47238e-14 -3.61768e-15)
(0 9.20952e-30 2.30238e-30 2.76961 2.27716e-14 2.1394e-14 0.895715 -7.46737e-15 -5.39914e-15)
(-2.59225e-15 0 2.30238e-30 2.76961 -7.6141e-15 -2.26771e-15 0.895715 -2.60609e-14 -3.98962e-15)
(-2.30353e-15 8.18379e-30 -3.50325e-46 2.31391 2.00474e-14 1.08621e-30 0.843762 -7.79034e-15 7.88861e-31)
(1.71799e-14 8.18379e-30 0 2.31391 -4.94194e-15 1.99925e-15 0.843762 -2.72837e-14 -3.28596e-15)
(-4.2595e-15 3.84367e-30 -1.81808e-30 1.93936 1.5164e-14 1.07306e-14 0.797004 -7.27646e-15 -4.97048e-15)
(2.04697e-15 0 1.81808e-30 1.93936 -4.3586e-15 2.48917e-15 0.797004 -2.09687e-14 -2.66424e-15)
(2.27374e-15 -1.04106e-29 -5.52143e-32 1.62942 9.71938e-15 8.06227e-15 0.754423 -5.46775e-15 -3.90837e-15)
(0 6.46235e-30 0 1.62942 -9.09414e-16 3.25502e-15 0.754423 -1.34075e-14 -2.02458e-15)
(4.66303e-15 -8.20632e-30 -1.43565e-30 1.3716 6.62144e-15 6.70901e-15 0.715273 -3.69694e-15 -3.42598e-15)
(0 0 0 1.3716 1.85322e-15 1.31605e-15 0.715273 -1.11447e-14 -1.30732e-15)
(0 0 0 1.15626 5.94646e-15 3.94252e-15 0.679014 -3.39118e-15 -1.63255e-15)
(-9.54472e-15 1.20022e-29 1.92285e-31 1.15626 7.48186e-16 -4.69484e-17 0.679014 -8.25319e-15 -5.79649e-16)
(0 -9.06931e-30 0 0.97585 4.22649e-15 1.54969e-15 0.645256 -3.81546e-15 2.3589e-17)
(9.75193e-15 -1.42546e-29 -4.6294e-31 0.97585 1.77466e-15 5.96547e-16 0.645256 -4.83571e-15 -2.4985e-16)
(-4.97427e-15 8.55005e-30 0 0.824376 3.41341e-15 2.20681e-15 0.613705 -1.81045e-15 1.24562e-15)
(0 0 0 0.824376 1.85705e-15 4.68048e-16 0.613705 -5.14046e-15 -3.21899e-16)
(0 0 0 0.69698 4.58284e-15 2.41759e-15 0.584134 -3.51036e-15 1.71955e-15)
(0 0 1.29692e-30 0.69698 1.80633e-15 2.49976e-16 0.584134 -2.26801e-15 8.28422e-16)
(3.5826e-15 -6.36397e-30 -1.59099e-30 0.589681 3.59954e-15 1.79406e-15 0.55634 -4.43157e-15 2.08029e-15)
(0 0 0 0.589681 2.01564e-15 1.80527e-15 0.55634 -2.58589e-15 9.90112e-16)
(0 -5.65518e-30 0 0.499179 2.9233e-15 3.0686e-17 0.530118 -2.42161e-15 2.96383e-15)
(0 0 0 0.499179 1.55138e-15 -9.07776e-16 0.530118 -1.23861e-15 1.63784e-15)
(0 0 2.51266e-30 0.422714 3.72584e-15 -4.36466e-15 0.505234 -4.04576e-15 2.94308e-15)
(1.06428e-14 -1.58784e-29 -2.51266e-30 0.422714 3.20509e-15 -3.0891e-15 0.505234 -2.19941e-15 2.08554e-15)
(0 0 0 0.357962 3.44095e-15 -4.72765e-15 0.481402 -5.15848e-15 7.75528e-16)
(1.07962e-14 -8.89313e-30 0 0.357962 4.10736e-15 -3.40909e-16 0.481402 -5.87892e-15 1.70149e-15)
(0 0 0 0.302955 2.87251e-15 -3.32364e-15 0.458251 -4.28782e-15 -2.62807e-15)
(6.47483e-15 -1.26422e-29 0 0.302955 3.63739e-15 -3.65327e-15 0.458251 -5.43177e-15 -1.11336e-15)
(0 0 0 0.256017 2.58402e-15 -7.16189e-16 0.435287 -4.65632e-15 -1.72778e-15)
(1.8195e-14 -1.90135e-29 -2.38221e-44 0.256017 3.01289e-15 -1.04069e-29 0.435287 -5.89369e-15 0)
(0 0 -3.13355e-30 0.215711 1.6337e-15 2.30424e-16 0.411839 -4.35842e-15 1.24475e-15)
(0 0 3.13355e-30 0.215711 1.53202e-15 2.16449e-16 0.411839 -4.559e-15 9.73586e-16)
(-2.83615e-15 3.02175e-30 -1.43998e-31 0.180787 1.73885e-15 1.65437e-15 0.386956 -1.92429e-15 -4.79311e-16)
(0 0 0 0.180787 1.15078e-15 1.2046e-29 0.386956 -1.2735e-15 0)
(-2.78594e-15 2.47441e-30 1.23721e-30 0.150123 2.82878e-15 -1.77002e-15 0.359223 -6.4072e-15 -2.24133e-15)
(-5.57188e-15 0 0 0.150123 2.98595e-15 1.48872e-15 0.359223 -5.65307e-15 -1.15108e-15)
(0 8.73285e-32 -2.39844e-31 0.12265 7.64726e-16 -4.1921e-15 0.326378 -7.76399e-15 -9.34541e-16)
(6.63402e-15 -2.2247e-30 0 0.12265 6.69858e-16 -6.79239e-15 0.326378 -9.44462e-15 2.52421e-15)
(-2.92479e-15 2.22855e-30 0 0.0972232 6.79554e-16 4.18608e-16 0.284463 -1.07171e-15 3.41355e-16)
(0 0 -2.52234e-44 0.0972232 5.95252e-16 5.80703e-30 0.284463 -9.38758e-16 1.97215e-31)
(-2.95265e-15 1.60028e-30 0 0.0723863 1.55883e-15 -1.45406e-15 0.225954 -4.09332e-15 7.50817e-16)
(-1.57204e-14 4.09812e-30 0 0.0723863 1.612e-15 7.47028e-16 0.225954 -7.02006e-15 1.13328e-15)
(0 0 0 0.0460878 4.36812e-16 -3.67303e-16 0.136982 -7.15319e-15 4.11209e-15)
(0 -1.51691e-43 4.57799e-31 0.0460878 3.41464e-29 -1.49243e-15 0.136982 -4.26074e-15 8.7103e-16)
(3.01218e-15 -1.6482e-30 -6.64881e-31 3.9517e-15 1.09343e-16 0 7.10642e-15 -2.45747e-16 -3.9443e-31)
(0 0 0 0 -2.79236e-16 2.18489e-15 9.96345e-19 -2.13566e-15 1.01205e-15)
(0 0 0 35.7196 -1.04403e-15 1.29557e-13 -0.401626 1.17439e-14 1.46069e-15)
(0 -4.26661e-29 -1.0375e-28 35.7196 -8.28603e-16 -7.97379e-14 -0.401626 -1.86228e-17 -3.58184e-16)
(-2.67923e-16 5.94908e-32 -4.43206e-30 35.6745 -1.58173e-14 7.77684e-14 -1.25425 7.66031e-14 6.48158e-15)
(2.67923e-16 -5.94908e-32 4.4493e-30 35.6745 -7.05599e-15 -9.32526e-14 -1.25425 5.74822e-16 2.35853e-15)
(0 0 -1.48022e-30 35.6001 -1.78104e-14 4.0616e-14 -2.1505 6.71985e-14 8.59865e-15)
(-3.43631e-17 0 1.06221e-30 35.6001 -7.91824e-15 -4.48619e-14 -2.1505 1.15692e-15 2.77334e-15)
(4.23131e-16 -1.87908e-31 2.44281e-30 35.3813 -2.25215e-14 4.01413e-14 -2.39697 6.05568e-14 1.11051e-14)
(7.12923e-17 1.87908e-31 -4.25773e-30 35.3813 -1.04336e-14 -4.49646e-14 -2.39697 2.03047e-15 3.00078e-15)
(2.60287e-16 0 0 34.6452 -2.52591e-14 3.44014e-14 -2.61057 6.19093e-14 1.39823e-14)
(0 0 0 34.6452 -1.27292e-14 -3.98294e-14 -2.61057 3.18646e-15 2.72534e-15)
(-2.39194e-16 2.96764e-31 -4.00632e-30 32.6978 -2.62241e-14 2.21233e-14 -2.69972 6.03645e-14 1.68011e-14)
(-3.43247e-15 -5.93528e-31 6.61213e-30 32.6978 -1.42702e-14 -2.79299e-14 -2.69972 4.72984e-15 1.74851e-15)
(0 1.05485e-30 -2.85768e-29 29.0462 -2.54506e-14 7.55497e-17 -2.59748 5.85393e-14 1.89111e-14)
(-1.18765e-15 -5.27423e-31 -7.37481e-30 29.0462 -1.46914e-14 -1.18304e-14 -2.59748 6.4764e-15 5.39995e-16)
(-1.68945e-15 9.37362e-31 -1.4013e-44 24.1651 -2.36033e-14 -2.16805e-28 -2.35314 5.645e-14 2.00615e-14)
(-4.43427e-15 0 0 24.1651 -1.56022e-14 0 -2.35314 8.34035e-15 3.91968e-29)
(2.92267e-15 -3.33185e-30 9.57906e-30 19.2107 -2.0717e-14 -7.77671e-15 -2.07208 5.42511e-14 2.06069e-14)
(-4.18804e-15 1.66592e-30 -5.84926e-30 19.2107 -1.52755e-14 2.59403e-15 -2.07208 1.0338e-14 2.03754e-16)
(0 0 0 15.0091 -1.7037e-14 -7.88818e-15 -1.81821 5.21392e-14 2.10585e-14)
(4.90408e-15 7.4019e-31 -4.70973e-30 15.0091 -1.31442e-14 2.78329e-15 -1.81821 1.23384e-14 4.08074e-16)
(-4.44337e-15 1.3155e-30 -3.78207e-30 11.745 -1.45365e-14 -6.52514e-15 -1.6084 5.00389e-14 2.16933e-14)
(0 0 2.95988e-30 11.745 -1.26513e-14 1.89064e-15 -1.6084 1.42706e-14 3.1036e-16)
(0 0 1.16899e-30 9.27966 -1.31165e-14 -5.5276e-15 -1.43932 4.79458e-14 2.26307e-14)
(-6.06549e-15 0 -8.52364e-29 9.27966 -1.32649e-14 2.90163e-15 -1.43932 1.63724e-14 2.39025e-16)
(-1.63518e-15 0 2.01265e-30 7.41707 -1.10983e-14 -4.7197e-15 -1.30291 4.59831e-14 2.39204e-14)
(8.87984e-15 0 -3.50591e-30 7.41707 -1.2581e-14 3.14387e-14 -1.30291 1.84118e-14 3.29565e-15)
(1.74104e-15 0 2.30773e-30 5.99371 -9.83756e-15 -3.66534e-15 -1.19157 4.40896e-14 2.37454e-14)
(6.96414e-15 0 -2.30773e-30 5.99371 -1.16674e-14 3.24687e-14 -1.19157 2.0309e-14 2.65899e-15)
(3.68364e-15 0 0 4.88996 -1.04029e-14 -3.08913e-15 -1.0992 4.22338e-14 1.85009e-14)
(-1.84711e-15 1.64056e-30 0 4.88996 -9.61367e-15 2.80695e-14 -1.0992 2.20657e-14 2.31128e-15)
(0 0 7.28922e-31 4.02139 -9.80111e-15 -3.88858e-15 -1.02123 4.06498e-14 1.33966e-14)
(0 0 -7.28922e-31 4.02139 -6.30547e-15 1.19023e-14 -1.02123 2.35705e-14 2.24555e-15)
(0 0 -1.29547e-30 3.32866 -7.54426e-15 -4.78575e-15 -0.954248 3.92894e-14 8.55849e-15)
(0 2.59095e-30 6.47737e-31 3.32866 -6.16935e-15 6.64104e-16 -0.954248 2.47238e-14 3.61768e-15)
(2.07812e-15 0 5.75595e-31 2.76961 -5.56519e-15 -4.5932e-15 -0.895715 3.79318e-14 5.39914e-15)
(0 0 -5.75595e-31 2.76961 -7.72761e-15 3.87142e-15 -0.895715 2.60609e-14 3.98962e-15)
(0 2.04595e-30 -1.02297e-30 2.31391 -4.29913e-15 -3.57234e-15 -0.843762 3.64006e-14 5.96758e-15)
(8.58994e-15 -2.04595e-30 1.02297e-30 2.31391 -6.26746e-15 5.06625e-15 -0.843762 2.72837e-14 3.28596e-15)
(-1.65548e-16 0 4.5452e-31 1.93936 -3.34194e-15 -2.79639e-15 -0.797004 3.4973e-14 4.97048e-15)
(-2.04697e-15 3.63616e-30 -4.5452e-31 1.93936 -5.84998e-15 3.45955e-15 -0.797004 2.81503e-14 2.66424e-15)
(2.27374e-15 0 8.07794e-31 1.62942 -2.44944e-15 -1.63759e-15 -0.754423 3.39179e-14 4.30623e-15)
(-1.81899e-14 0 -8.07794e-31 1.62942 -5.92455e-15 2.41713e-15 -0.754423 2.94734e-14 2.02458e-15)
(4.66303e-15 0 0 1.3716 -2.90542e-15 3.0555e-15 -0.715273 3.32633e-14 3.42598e-15)
(0 0 0 1.3716 -3.36593e-15 2.85222e-15 -0.715273 2.97159e-14 1.30732e-15)
(0 0 1.27575e-30 1.15626 -4.15704e-15 7.50941e-15 -0.679014 3.29404e-14 1.63255e-15)
(-1.90894e-14 0 1.05097e-45 1.15626 -3.299e-15 -1.57772e-30 -0.679014 2.98744e-14 9.26039e-16)
(-2.43798e-15 4.53466e-30 -2.26733e-30 0.97585 -3.25282e-15 6.99658e-15 -0.645256 3.27297e-14 -2.3589e-17)
(-1.95039e-14 -4.53466e-30 2.26733e-30 0.97585 -4.33295e-15 1.02191e-15 -0.645256 3.05144e-14 1.08381e-15)
(2.48713e-15 0 1.02367e-30 0.824376 -1.17737e-15 0 -0.613705 3.26152e-14 -5.32481e-30)
(-9.94854e-15 4.0296e-30 0 0.824376 -3.2778e-15 4.47322e-15 -0.613705 3.07178e-14 3.21899e-16)
(0 3.5808e-30 -1.7904e-30 0.69698 -9.15121e-16 -4.62241e-16 -0.584134 3.18355e-14 -7.25824e-16)
(-1.01353e-14 -3.5808e-30 1.53927e-30 0.69698 -2.23832e-15 8.73913e-16 -0.584134 3.10662e-14 -3.76027e-16)
(0 0 0 0.589681 -1.13304e-15 7.11992e-16 -0.55634 2.96141e-14 -1.49765e-15)
(-1.03128e-14 7.16626e-30 0 0.589681 -1.80406e-15 -1.92839e-16 -0.55634 2.94264e-14 -9.90112e-16)
(2.05733e-15 -1.22627e-30 2.29303e-31 0.499179 -1.32673e-15 1.65058e-15 -0.530118 2.62484e-14 -2.13768e-15)
(3.18358e-15 0 0 0.499179 -1.45723e-15 2.93976e-15 -0.530118 2.65091e-14 -1.63784e-15)
(-2.82901e-15 0 0 0.422714 -1.58808e-15 1.00241e-15 -0.505234 2.01921e-14 -1.1325e-15)
(0 0 -1.25633e-30 0.422714 -1.57814e-15 3.2729e-15 -0.505234 2.28236e-14 -2.08554e-15)
(0 0 2.23281e-30 0.357962 3.25452e-16 -3.2403e-15 -0.481402 1.31569e-14 -7.75528e-16)
(0 0 0 0.357962 -4.1819e-16 -7.88861e-31 -0.481402 1.45036e-14 0)
(0 -3.96826e-30 0 0.302955 1.49182e-15 -2.13831e-15 -0.458251 1.19356e-14 2.62807e-15)
(6.47483e-15 -5.80929e-30 0 0.302955 1.16877e-15 -4.3006e-15 -0.458251 1.05922e-14 1.11336e-15)
(9.51157e-15 -8.29258e-30 -8.81573e-31 0.256017 0 4.79532e-15 -0.435287 8.75261e-15 3.30507e-15)
(7.11239e-15 -7.21525e-30 8.81573e-31 0.256017 7.91701e-16 5.11911e-15 -0.435287 6.84548e-15 4.50922e-15)
(2.80412e-15 -3.08359e-30 9.02591e-31 0.215711 5.53372e-16 2.92166e-16 -0.411839 3.00452e-15 -2.87312e-16)
(2.24329e-14 -2.4551e-29 7.00649e-46 0.215711 1.34155e-15 5.98616e-45 -0.411839 2.81121e-15 8.77883e-31)
(-3.43409e-15 1.73214e-31 -9.27645e-31 0.180787 2.20833e-15 -2.24574e-15 -0.386956 4.9572e-15 4.79311e-16)
(-3.13512e-15 5.56909e-30 0 0.180787 2.21932e-15 -3.96994e-15 -0.386956 6.55498e-15 5.13502e-15)
(8.0907e-17 4.426e-31 3.09301e-30 0.150123 2.05137e-15 1.25915e-15 -0.359223 6.02502e-15 2.24133e-15)
(-1.14674e-14 8.3517e-30 -4.33022e-30 0.150123 1.74895e-15 4.6762e-15 -0.359223 5.69537e-15 1.15108e-15)
(5.79266e-15 -3.75688e-30 6.18437e-32 0.12265 6.75435e-16 7.8338e-15 -0.326378 4.07886e-15 9.34541e-16)
(1.15853e-14 -7.43101e-30 0 0.12265 8.05178e-16 6.99658e-15 -0.326378 3.86388e-15 -2.52421e-15)
(2.92479e-15 -2.25568e-30 0 0.0972232 4.88608e-16 6.82451e-16 -0.284463 9.46573e-16 -3.41355e-16)
(-1.16992e-14 1.0707e-29 1.49953e-31 0.0972232 6.3035e-16 4.93038e-32 -0.284463 1.1284e-15 1.30763e-15)
(2.95265e-15 -1.86162e-30 0 0.0723863 1.07443e-15 3.48064e-15 -0.225954 2.21024e-15 -7.50817e-16)
(-1.57204e-14 8.09054e-30 -3.47261e-30 0.0723863 1.17077e-15 5.70386e-16 -0.225954 2.95581e-15 -1.13328e-15)
(2.98068e-15 -9.45588e-31 0 0.0460878 1.08481e-15 -1.32081e-43 -0.136982 5.61809e-15 1.45266e-29)
(0 1.54292e-30 -6.17168e-30 0.0460878 6.43907e-16 3.06689e-15 -0.136982 5.50586e-15 -8.7103e-16)
(2.93299e-15 -1.07712e-30 -5.48431e-30 3.9517e-15 9.55428e-16 -6.19384e-15 -7.10144e-15 2.88708e-15 2.39549e-15)
(0 0 1.94899e-30 -3.53618e-31 1.11307e-45 -4.09403e-16 0 1.57772e-30 -9.20131e-16)
(-6.09459e-15 5.60111e-31 0 -1.5354e-09 4.88661e-16 4.57779e-15 3.45038e-09 -5.3473e-15 2.01517e-17)
(3.0834e-15 0 0 -1.53522e-09 3.86096e-46 5.16785e-15 3.45039e-09 2.16937e-46 -4.01429e-15)
(-2.98068e-15 1.1342e-30 0 -0.0460878 2.96772e-16 -3.94078e-16 0.136982 -5.92707e-16 -1.2373e-15)
(8.44837e-15 0 0 -0.0460878 5.15085e-16 1.58214e-15 0.136982 -7.6297e-15 4.2206e-16)
(2.95265e-15 -5.13687e-31 -1.25849e-31 -0.0723863 1.27284e-15 -1.99335e-16 0.225954 -4.10145e-15 -2.2568e-16)
(-1.18106e-14 4.62372e-30 9.08761e-32 -0.0723863 5.50174e-16 -1.31458e-15 0.225954 -9.76416e-16 -1.1916e-15)
(-2.92479e-15 5.58663e-32 8.97707e-44 -0.0972232 1.29755e-15 1.0108e-29 0.284463 -4.88803e-15 4.34064e-47)
(2.33984e-14 -4.05078e-31 0 -0.0972232 1.65696e-15 1.22296e-15 0.284463 -4.69759e-15 -8.46686e-16)
(0 5.49705e-31 0 -0.12265 9.71371e-16 1.64534e-15 0.326378 -3.38589e-15 1.78629e-16)
(-1.65366e-14 -3.674e-31 0 -0.12265 0 1.07345e-15 0.326378 -2.23543e-15 -4.56151e-16)
(2.86685e-15 0 0 -0.150123 3.69663e-16 8.91307e-16 0.359223 -1.86294e-15 1.62812e-16)
(-1.14674e-14 1.17734e-30 0 -0.150123 8.4619e-17 -1.41773e-15 0.359223 -1.0538e-16 -6.65269e-16)
(0 -9.72346e-63 -2.78454e-30 -0.180787 0 -3.57868e-16 0.386956 1.21543e-62 1.19476e-15)
(0 -5.75314e-32 0 -0.180787 2.71171e-31 2.51038e-31 0.386956 -8.35436e-16 3.85538e-47)
(3.52806e-15 1.93011e-31 -6.87496e-32 -0.215711 -1.96272e-31 4.59719e-30 0.411839 -1.39079e-15 0)
(0 0 0 -0.215711 1.74678e-29 1.6798e-15 0.411839 0 -2.2927e-16)
(-2.77066e-15 0 0 -0.256017 -5.42342e-31 -6.68169e-16 0.435287 -5.6762e-47 1.61661e-15)
(0 -2.45222e-31 -8.81573e-31 -0.256017 -2.95823e-31 1.31619e-15 0.435287 -1.76701e-15 6.55929e-16)
(1.73219e-15 0 -1.96225e-30 -0.302955 2.66543e-15 -1.56843e-29 0.458251 -1.73404e-15 -1.97215e-31)
(6.47483e-15 -1.24716e-43 2.97619e-30 -0.302955 -1.40487e-29 1.15193e-16 0.458251 -1.97215e-31 4.92049e-16)
(5.02785e-15 -7.15149e-31 -1.11641e-30 -0.357962 -6.20909e-16 3.14272e-15 0.481402 4.28456e-16 -8.59413e-16)
(-2.41064e-14 9.76855e-31 0 -0.357962 -1.27584e-15 6.72806e-17 0.481402 -7.937e-16 -7.83151e-16)
(2.82901e-15 -1.50007e-31 -6.28166e-31 -0.422714 -1.08209e-15 3.68511e-15 0.505234 -6.63527e-16 -2.44829e-16)
(0 0 6.28166e-31 -0.422714 4.93038e-31 3.39583e-15 0.505234 0 -1.49536e-16)
(0 0 0 -0.499179 1.64371e-15 1.92547e-15 0.530118 -1.05624e-15 3.09045e-16)
(1.04818e-14 -1.99459e-31 0 -0.499179 2.09714e-15 2.14431e-15 0.530118 -1.06157e-15 2.7353e-16)
(2.57821e-15 1.20736e-31 0 -0.589681 5.07057e-16 7.54578e-16 0.55634 -3.66132e-16 1.49615e-16)
(6.73025e-15 0 0 -0.589681 7.70372e-34 -8.36287e-18 0.55634 -6.02035e-16 7.92775e-16)
(2.53382e-15 0 0 -0.69698 8.93761e-16 9.42639e-16 0.584134 -3.5233e-16 -1.39565e-16)
(2.02706e-14 0 -1.75162e-46 -0.69698 5.42342e-31 2.95823e-31 0.584134 9.86076e-32 4.93038e-32)
(0 0 0 -0.824376 3.72536e-16 1.63725e-15 0.613705 -2.95104e-16 1.51998e-16)
(-9.94854e-15 0 0 -0.824376 1.34769e-18 1.33262e-15 0.613705 -2.46777e-16 -2.24899e-16)
(-1.14803e-16 1.41243e-31 2.83416e-31 -0.97585 5.87097e-17 1.32424e-15 0.645256 -5.76476e-16 3.26305e-16)
(1.23047e-14 5.27239e-44 -2.83416e-31 -0.97585 -5.94122e-30 1.06639e-15 0.645256 9.86076e-32 -4.03754e-17)
(-2.38618e-15 0 0 -1.15626 4.55549e-16 2.3644e-16 0.679014 -5.45803e-16 7.12638e-17)
(9.54472e-15 0 0 -1.15626 0 1.03472e-15 0.679014 -3.66334e-16 5.56141e-17)
(-2.33152e-15 4.7066e-35 0 -1.3716 6.33931e-16 -8.89826e-16 0.715273 -2.33547e-16 1.57554e-16)
(0 0 0 -1.3716 -1.94222e-16 -6.02492e-16 0.715273 -5.53551e-16 4.13722e-17)
(2.27374e-15 2.52436e-32 -4.1717e-31 -1.62942 1.14688e-15 -7.21106e-16 0.754423 -3.11893e-16 -6.79823e-18)
(9.09494e-15 -2.52436e-32 -1.00974e-31 -1.62942 8.94066e-17 -1.36033e-15 0.754423 -4.5891e-16 -2.2139e-16)
(-2.21252e-15 1.89877e-31 -1.1363e-31 -1.93936 -1.58179e-31 -8.08112e-16 0.797004 -3.08149e-33 1.37941e-16)
(-4.09395e-15 7.81206e-32 1.1363e-31 -1.93936 -4.12552e-16 -7.56787e-30 0.797004 -2.17145e-16 9.86076e-32)
(1.56047e-16 6.39359e-32 0 -2.31391 -7.18784e-16 -1.11002e-15 0.843762 8.95874e-18 -8.96176e-17)
(-2.30353e-15 -2.76537e-44 1.27872e-31 -2.31391 -3.11443e-30 1.21302e-15 0.843762 0 -1.91404e-16)
(2.59225e-15 1.79873e-32 -3.22614e-31 -2.76961 -1.89177e-15 -3.01544e-16 0.895715 -1.1449e-16 -5.04481e-17)
(-2.59225e-15 -2.6981e-32 1.43899e-31 -2.76961 9.96496e-16 -3.16876e-17 0.895715 -2.14027e-16 -2.11782e-16)
(9.13363e-16 -8.09671e-32 1.35203e-44 -3.32866 -2.13792e-15 -1.52218e-30 0.954248 -2.88426e-16 -2.46519e-32)
(0 1.29359e-32 1.61934e-31 -3.32866 7.39557e-32 1.23443e-16 0.954248 -9.32126e-17 -3.05494e-16)
(0 2.29244e-44 0 -4.02139 -2.57612e-30 1.66061e-15 1.02123 -4.93038e-32 -1.72253e-16)
(0 -9.11152e-32 0 -4.02139 9.41338e-16 5.26913e-16 1.02123 -2.26734e-16 -2.53364e-16)
(1.83653e-15 5.12676e-32 1.02535e-31 -4.88996 1.30863e-15 2.04072e-15 1.0992 -3.06724e-16 -5.96163e-17)
(-9.19325e-15 -1.09242e-33 0 -4.88996 -9.86076e-32 -2.85041e-17 1.0992 -7.87169e-18 -2.42359e-16)
(1.74104e-15 -6.17502e-34 0 -5.99371 1.32075e-15 1.10556e-15 1.19157 -2.64952e-16 -1.85894e-17)
(6.96414e-15 0 6.225e-33 -5.99371 -4.60276e-16 -1.98293e-16 1.19157 4.26879e-18 -6.59257e-17)
(-2.33914e-15 -3.24621e-32 1.29849e-31 -7.41707 1.33488e-15 5.04403e-16 1.30291 -1.38347e-16 -1.63006e-17)
(0 4.54878e-30 4.37906e-47 -7.41707 -2.26416e-17 -3.63616e-31 1.30291 2.0989e-18 -3.53212e-47)
(0 0 0 -9.27966 -3.9767e-16 4.06611e-16 1.43932 -1.60376e-17 6.76548e-18)
(0 0 0 -9.27966 -2.31903e-16 2.99274e-16 1.43932 -9.81087e-17 -2.4653e-17)
(-2.7626e-15 -6.84228e-48 0 -11.745 -4.93038e-31 1.24344e-16 1.6084 2.46519e-32 -4.4228e-18)
(5.52521e-15 6.16641e-32 -5.53915e-32 -11.745 7.46236e-16 3.03501e-16 1.6084 3.50357e-17 -7.87047e-17)
(0 6.93928e-32 0 -15.0091 8.40902e-16 -1.50458e-16 1.81821 -8.99685e-17 -1.59728e-17)
(-4.90408e-15 -7.21474e-31 1.59133e-31 -15.0091 -1.04461e-30 -2.95731e-16 1.81821 0 -8.50845e-17)
(-1.04701e-15 6.50752e-33 0 -19.2107 6.30107e-16 -1.08799e-16 2.07208 -9.73707e-17 -6.49062e-18)
(0 1.3015e-32 0 -19.2107 -3.47768e-16 -2.59525e-16 2.07208 2.84895e-17 -1.50015e-17)
(8.44723e-16 -2.89499e-30 0 -24.1651 4.87078e-16 3.64755e-17 2.35314 -2.50191e-17 -1.03266e-17)
(0 2.92926e-32 3.42114e-48 -24.1651 -7.51142e-16 -3.31353e-30 2.35314 -1.82063e-17 2.46519e-32)
(-6.30578e-16 1.2175e-30 0 -29.0462 4.41512e-16 4.88081e-16 2.59748 -3.95335e-17 -1.63932e-17)
(2.52231e-15 -2.10195e-45 -9.44642e-32 -29.0462 2.47826e-31 7.33245e-16 2.59748 -2.71383e-46 -4.27342e-17)
(6.68253e-16 -4.63694e-33 -7.4191e-32 -32.6978 -1.8734e-16 1.19593e-15 2.69972 -2.74286e-17 -1.38463e-17)
(1.04798e-15 4.63694e-33 -6.10801e-32 -32.6978 6.05479e-16 1.44121e-15 2.69972 2.65533e-18 -8.84453e-17)
(2.60287e-16 -1.53596e-30 0 -34.6452 -4.68338e-31 1.88168e-15 2.61057 0 -1.43462e-17)
(1.04115e-15 0 -1.72512e-32 -34.6452 6.90592e-44 2.10561e-15 2.61057 3.85186e-34 -1.42212e-16)
(-1.23606e-16 -2.93037e-33 0 -35.3813 3.82399e-16 2.213e-15 2.39697 -2.37741e-17 -9.48701e-18)
(0 5.87213e-33 0 -35.3813 -2.3062e-16 2.39756e-15 2.39697 7.74309e-18 -1.44855e-16)
(8.59076e-18 -2.47804e-33 0 -35.6001 4.83134e-16 2.12403e-15 2.1505 -1.39863e-17 -6.77288e-18)
(3.43631e-17 3.30406e-33 0 -35.6001 -1.48474e-16 2.38197e-15 2.1505 6.23785e-18 -1.17357e-16)
(0 2.39648e-34 -6.15557e-30 -35.6745 2.95793e-16 4.32844e-15 1.25425 -3.51243e-18 -5.62005e-18)
(0 -4.79296e-34 2.97454e-32 -35.6745 -9.60703e-17 4.93839e-15 1.25425 1.85139e-18 -9.41667e-17)
(0 -2.61512e-34 0 -35.7196 8.5017e-17 5.75987e-15 0.401627 -1.86491e-18 -1.05902e-17)
(0 4.57646e-34 -5.7743e-29 -35.7196 -6.25973e-17 3.84974e-15 0.401627 1.42217e-18 -1.73525e-17)
(-7.62025e-17 8.87934e-31 -1.37108e-30 -1.53521e-09 2.71442e-16 -4.09546e-15 -3.45039e-09 5.53193e-15 -2.01517e-17)
(-3.0834e-15 2.74215e-30 0 -1.53541e-09 1.27593e-15 -5.31396e-15 -3.45038e-09 5.9621e-15 4.01429e-15)
(-2.98068e-15 -5.61146e-31 0 -0.0460878 2.06708e-16 3.37989e-16 -0.136982 2.0082e-15 1.2373e-15)
(0 0 0 -0.0460878 -1.38051e-30 -3.4745e-16 -0.136982 5.20173e-15 -4.2206e-16)
(-6.86246e-15 9.67637e-31 -8.75812e-46 -0.0723863 5.73183e-16 9.86076e-32 -0.225954 1.01725e-15 2.2568e-16)
(-1.18106e-14 3.76228e-30 0 -0.0723863 3.40876e-16 9.5531e-16 -0.225954 6.04967e-16 1.1916e-15)
(-7.32464e-15 2.94881e-30 -1.95392e-30 -0.0972232 1.42477e-15 -7.85784e-16 -0.284463 5.16144e-15 1.1269e-15)
(0 0 0 -0.0972232 1.74595e-15 -7.54918e-16 -0.284463 5.06246e-15 8.46686e-16)
(2.89633e-15 -5.49705e-31 1.09941e-30 -0.12265 1.46538e-15 -7.80657e-16 -0.326378 3.46892e-15 -1.78629e-16)
(0 1.20627e-30 -1.09941e-30 -0.12265 1.54093e-16 -9.69235e-16 -0.326378 2.23543e-15 4.56151e-16)
(-2.78594e-15 0 0 -0.150123 2.74715e-45 -2.57481e-17 -0.359223 1.86294e-15 -1.62812e-16)
(-1.14674e-14 1.41184e-30 0 -0.150123 5.66053e-17 1.23178e-16 -0.359223 2.33237e-16 6.65269e-16)
(6.27023e-15 0 0 -0.180787 -3.31336e-16 1.17718e-44 -0.386956 1.54739e-15 7.46276e-46)
(-6.27023e-15 3.24005e-31 0 -0.180787 6.72048e-17 4.28269e-16 -0.386956 7.43715e-17 2.00183e-15)
(6.33218e-15 0 0 -0.215711 -7.31172e-16 -2.64563e-16 -0.411839 1.39079e-15 4.95393e-16)
(-1.47445e-14 0 -7.83386e-31 -0.215711 -7.9302e-45 9.69639e-16 -0.411839 4.15349e-16 2.2927e-16)
(6.74091e-15 -3.47702e-31 2.00912e-31 -0.256017 7.61177e-17 -7.39439e-16 -0.435287 7.21326e-16 -6.46167e-16)
(-1.50529e-14 0 8.75812e-47 -0.256017 2.78635e-16 -1.97215e-31 -0.435287 1.76701e-15 -1.25232e-29)
(0 0 0 -0.302955 2.45612e-15 -1.61401e-15 -0.458251 1.73404e-15 1.76589e-15)
(-1.54106e-14 1.80491e-31 0 -0.302955 1.3463e-15 -2.0528e-15 -0.458251 1.25729e-15 -4.92049e-16)
(3.7027e-16 0 0 -0.357962 0 -6.86619e-47 -0.481402 0 8.59413e-16)
(2.51392e-15 2.09326e-31 0 -0.357962 3.61356e-16 -8.33922e-16 -0.481402 7.937e-16 7.83151e-16)
(5.32139e-15 1.078e-31 0 -0.422714 -2.96814e-16 -1.78541e-15 -0.505234 1.08635e-15 2.44829e-16)
(-1.84565e-14 4.31864e-31 0 -0.422714 -9.76294e-16 -1.69284e-15 -0.505234 2.09048e-15 1.49536e-16)
(2.62046e-15 0 0 -0.499179 -1.34476e-15 -1.27878e-15 -0.530118 1.05624e-15 -3.09045e-16)
(1.04818e-14 -3.50325e-46 -7.06897e-31 -0.499179 6.16298e-33 -4.04566e-16 -0.530118 -3.9443e-31 -2.7353e-16)
(-1.00439e-15 -9.93973e-33 3.97748e-31 -0.589681 1.00146e-15 -1.69686e-15 -0.55634 8.57552e-16 -1.49615e-16)
(3.5826e-15 0 -1.75162e-46 -0.589681 3.9496e-16 3.18893e-44 -0.55634 6.02035e-16 -1.56904e-29)
(2.53382e-15 1.08105e-31 0 -0.69698 0 -8.57507e-16 -0.584134 3.5233e-16 1.39565e-16)
(0 -4.24425e-31 0 -0.69698 4.28498e-16 -2.66123e-15 -0.584134 1.84374e-16 3.85089e-16)
(0 0 -3.50325e-46 -0.824376 -1.02026e-15 -2.23688e-45 -0.613705 2.95104e-16 -6.34326e-31)
(-1.2217e-14 0 0 -0.824376 -2.46519e-32 -4.27312e-16 -0.613705 2.46777e-16 2.24899e-16)
(2.43798e-15 -1.96398e-31 0 -0.97585 -5.46669e-16 -1.63637e-15 -0.645256 1.85742e-16 -3.26305e-16)
(0 0 0 -0.97585 -6.16921e-16 -2.56161e-16 -0.645256 4.37982e-16 4.03754e-17)
(2.38618e-15 -1.70622e-60 0 -1.15626 0 -7.28682e-16 -0.679014 -1.32134e-29 -7.12638e-17)
(0 -7.97345e-32 -1.59469e-31 -1.15626 -4.96492e-16 -7.85497e-16 -0.679014 3.66334e-16 -5.56141e-17)
(5.56431e-15 7.87156e-32 0 -1.3716 0 5.43785e-16 -0.715273 2.33886e-16 -1.57554e-16)
(6.09327e-15 0 0 -1.3716 -9.2225e-45 -4.84573e-16 -0.715273 -1.83874e-31 -4.13722e-17)
(0 -1.00974e-31 0 -1.62942 9.65531e-18 1.01202e-15 -0.754423 1.92982e-16 6.79823e-18)
(0 1.00974e-31 0 -1.62942 1.35797e-15 -7.33675e-16 -0.754423 3.69692e-16 2.2139e-16)
(2.21252e-15 0 1.10915e-31 -1.93936 9.63908e-16 4.93038e-32 -0.797004 -1.78093e-17 0)
(-8.85009e-15 7.2917e-31 1.1363e-31 -1.93936 5.40766e-16 -1.06215e-16 -0.797004 2.17145e-16 4.5934e-16)
(-2.14749e-15 -6.39359e-32 -2.55744e-31 -2.31391 -1.98302e-17 -3.05047e-16 -0.843762 -8.95874e-18 8.96176e-17)
(-8.58994e-15 1.80439e-31 0 -2.31391 -1.05308e-16 1.15975e-17 -0.843762 1.40781e-16 1.91404e-16)
(4.67037e-15 2.93383e-32 0 -2.76961 9.64104e-17 -2.45853e-45 -0.895715 6.66698e-17 1.38979e-16)
(-2.59225e-15 -1.65674e-30 -2.15848e-31 -2.76961 2.92505e-16 -6.76109e-16 -0.895715 4.89358e-17 2.11782e-16)
(-2.91715e-15 2.17281e-31 -5.38263e-31 -3.32866 1.95929e-16 -5.325e-16 -0.954248 2.88426e-16 1.71382e-16)
(-8.01515e-15 -2.02418e-32 5.6677e-31 -3.32866 -3.43893e-16 -3.45292e-16 -0.954248 9.32126e-17 3.05494e-16)
(1.92363e-15 2.10889e-31 -2.73346e-31 -4.02139 -1.59634e-30 -7.63923e-16 -1.02123 3.79904e-16 1.72253e-16)
(-7.69451e-15 7.00649e-46 2.73346e-31 -4.02139 -3.22474e-45 -6.73679e-17 -1.02123 1.2326e-30 2.53364e-16)
(3.67307e-15 0 5.12676e-32 -4.88996 -3.85349e-16 -7.67743e-16 -1.0992 3.06724e-16 5.96163e-17)
(-7.34614e-15 0 -5.12676e-32 -4.88996 1.24825e-15 -6.56266e-17 -1.0992 7.87169e-18 2.42359e-16)
(0 1.44233e-31 -3.4616e-31 -5.99371 3.46299e-16 -7.12235e-16 -1.19157 1.71084e-16 1.85894e-17)
(-2.07862e-15 -1.15387e-31 2.88466e-31 -5.99371 1.39528e-15 2.03139e-16 -1.19157 -4.26879e-18 2.62574e-16)
(-7.03968e-16 1.62311e-32 0 -7.41707 1.39269e-15 -2.17673e-16 -1.30291 1.38347e-16 1.63006e-17)
(-6.5407e-15 -4.90454e-45 0 -7.41707 0 5.60551e-16 -1.30291 -8.85003e-30 2.44133e-16)
(0 8.90264e-33 -2.49606e-45 -9.27966 0 0 -1.43932 1.60376e-17 -4.4828e-30)
(-6.06549e-15 -7.00649e-46 0 -9.27966 2.46519e-32 4.79055e-16 -1.43932 -3.48645e-31 2.15171e-16)
(1.48112e-15 -3.85401e-33 1.23328e-31 -11.745 -5.5148e-16 -4.35263e-16 -1.6084 1.16783e-16 4.4228e-18)
(0 1.57351e-29 -1.23328e-31 -11.745 1.71992e-16 -2.16582e-16 -1.6084 -1.259e-17 1.78489e-16)
(-1.22602e-15 0 4.62619e-32 -15.0091 -5.32363e-16 1.37737e-16 -1.81821 1.12655e-16 1.59728e-17)
(0 7.95126e-33 -9.25237e-32 -15.0091 -8.25192e-17 -3.28028e-16 -1.81821 -3.70905e-17 2.05077e-16)
(1.04701e-15 3.98316e-33 4.11044e-31 -19.2107 -1.07785e-16 0 -2.07208 5.5735e-17 6.49062e-18)
(-6.0637e-15 2.02908e-30 0 -19.2107 -6.93107e-16 1.99899e-16 -2.07208 -3.68792e-17 2.19765e-16)
(8.44723e-16 -2.3636e-33 1.64823e-31 -24.1651 3.18458e-16 -1.70818e-16 -2.35314 6.54107e-17 1.03266e-17)
(-4.43427e-15 8.44905e-33 0 -24.1651 -2.27533e-16 -1.31402e-17 -2.35314 1.61781e-17 2.18454e-16)
(1.26116e-15 -6.50099e-33 0 -29.0462 3.23506e-16 -5.54063e-16 -2.59748 3.09569e-17 1.63932e-17)
(2.52231e-15 3.26264e-30 0 -29.0462 5.65594e-16 -2.84121e-16 -2.59748 1.67269e-17 2.12906e-16)