/*--------------------------------*- C++ -*----------------------------------*\
| =========                 |                                                 |
| \\      /  F ield         | OpenFOAM: The Open Source CFD Toolbox           |
|  \\    /   O peration     | Version:  2012                                  |
|   \\  /    A nd           | Website:  www.openfoam.com                      |
|    \\/     M anipulation  |                                                 |
\*---------------------------------------------------------------------------*/
FoamFile
{
    version     2.0;
    format      ascii;
    class       volTensorField;
    location    "15000";
    object      grad(U);
}
// * * * * * * * * * * * * * * * * * * * * * * * * * * * * * * * * * * * * * //

dimensions      [0 0 -1 0 0 0 0];


internalField   nonuniform List<tensor> 
2560
(
(-9.14312e-18 -6.71513e-18 0 29.238 -2.80531e-05 -0.000318454 0.0423267 -8.1215e-08 -2.16735e-07)
(0 1.39513e-22 -3.61853e-17 29.238 -0.000312562 -0.000311398 0.0423267 -1.20056e-06 -2.24263e-07)
(-1.80242e-17 1.82698e-17 -2.89757e-17 29.2331 -3.28499e-25 -4.83699e-05 0.12758 5.29396e-23 -1.4207e-07)
(0 6.49279e-24 -4.69129e-23 29.2331 2.21058e-21 -4.88956e-05 0.12758 2.33927e-08 -1.43614e-07)
(-5.35857e-18 0 1.50769e-22 29.2286 -4.20296e-05 -2.42594e-05 0.175447 1.37008e-07 -1.47125e-07)
(0 0 0 29.2286 3.97374e-05 -2.45191e-05 0.175447 1.18412e-07 -1.48676e-07)
(1.71826e-17 3.33999e-23 -1.55331e-22 29.2239 -1.2339e-05 -2.46606e-05 0.177969 3.07448e-08 -1.51118e-07)
(0 -3.33999e-23 0 29.2239 -1.52432e-05 -2.49282e-05 0.177969 4.67485e-10 -1.52804e-07)
(6.90408e-17 3.29212e-23 -5.2674e-22 29.2191 6.34541e-06 -2.49818e-05 0.180526 2.58789e-08 -1.55404e-07)
(0 -1.64606e-23 0 29.2191 7.36664e-06 -2.52609e-05 0.180526 -7.75138e-09 -1.57142e-07)
(1.09396e-16 3.24494e-23 -1.64628e-22 29.2134 8.2326e-06 -2.53303e-05 0.183111 3.53586e-08 -1.59914e-07)
(3.30756e-16 -1.62247e-23 -1.3525e-21 29.2134 8.70194e-06 -2.5616e-05 0.183111 -1.18152e-09 -1.61732e-07)
(-5.36883e-17 1.59922e-23 1.69438e-22 29.206 6.96067e-06 -2.56925e-05 0.185721 3.78623e-08 -1.64564e-07)
(2.14753e-16 -1.59922e-23 -6.95879e-22 29.206 7.38877e-06 -2.59883e-05 0.185721 7.53854e-10 -1.66482e-07)
(-6.621e-17 0 1.74383e-22 29.1966 6.8128e-06 -2.60554e-05 0.188353 3.83107e-08 -1.69281e-07)
(2.6484e-16 0 -7.1608e-22 29.1966 6.91386e-06 -2.63686e-05 0.188353 4.49824e-10 -1.71377e-07)
(2.09244e-16 3.1074e-23 -1.7946e-22 29.1853 6.89255e-06 -2.6416e-05 0.191013 3.86411e-08 -1.74106e-07)
(0 -3.1074e-23 0 29.1853 6.52696e-06 -2.67572e-05 0.191013 -9.38142e-10 -1.76447e-07)
(0 -3.06287e-23 0 29.1732 8.13479e-06 -2.67748e-05 0.19371 3.76386e-08 -1.79005e-07)
(-1.28466e-16 -3.06287e-23 0 29.1732 6.5433e-06 -2.71618e-05 0.19371 -4.97159e-09 -1.81772e-07)
(-2.31478e-16 0 6.73047e-22 29.1603 1.40591e-05 -2.71299e-05 0.196434 4.12394e-08 -1.83992e-07)
(0 -3.01897e-23 -4.83035e-22 29.1603 1.16097e-05 -2.75946e-05 0.196434 -6.63881e-09 -1.87447e-07)
(2.42912e-16 4.97735e-19 2.80566e-22 29.1457 7.06734e-06 -2.74387e-05 0.199185 2.39816e-08 -1.8847e-07)
(0 -5.9514e-23 -4.76112e-22 29.1457 2.7439e-05 -2.80262e-05 0.199185 3.04181e-08 -1.92997e-07)
(0 0 0 29.1296 0.000171643 -2.75259e-05 0.201965 1.22681e-07 -1.90591e-07)
(0 0 0 29.1296 4.16887e-05 -2.82845e-05 0.201965 1.15499e-07 -1.96521e-07)
(-1.45164e-16 2.68273e-18 2.07256e-22 29.1113 6.76299e-21 -2.70564e-05 0.204762 0 -1.87385e-07)
(5.80654e-16 0 -8.48709e-22 29.1113 2.03094e-05 -2.79323e-05 0.204762 -3.42981e-07 -1.93694e-07)
(0 0 0 29.0891 -0.000165384 -2.57177e-05 0.207564 2.50136e-07 -1.77062e-07)
(0 -1.24902e-18 0 29.0891 -2.91966e-05 -2.65433e-05 0.207564 1.03458e-07 -1.82447e-07)
(-1.72997e-16 0 2.15965e-22 29.0617 -5.82665e-05 -2.36346e-05 0.210363 -8.69377e-09 -1.627e-07)
(6.91989e-16 0 -8.70931e-22 29.0617 -6.30401e-05 -2.43275e-05 0.210363 -5.60185e-08 -1.67274e-07)
(-2.32237e-16 -4.15272e-23 0 29.0284 -1.82822e-05 -2.15385e-05 0.213156 -2.42857e-07 -1.51447e-07)
(-5.16589e-16 4.15272e-23 8.72691e-22 29.0284 -1.52508e-05 -2.21282e-05 0.213156 -2.95123e-07 -1.55473e-07)
(0 0 0 28.9902 3.87786e-05 -2.01309e-05 0.215956 -1.88003e-07 -1.46481e-07)
(-8.06434e-16 0 8.76953e-22 28.9902 4.06833e-05 -2.06576e-05 0.215956 -2.31653e-07 -1.50249e-07)
(2.25627e-16 3.00652e-19 -8.607e-22 28.9496 2.65045e-05 -1.94122e-05 0.218786 -1.05994e-08 -1.45011e-07)
(0 0 0 28.9496 3.49803e-05 -1.9905e-05 0.218786 -5.33763e-08 -1.48644e-07)
(2.30984e-16 5.10284e-19 -2.22929e-22 28.9086 0 -1.89881e-05 0.221653 0 -1.44264e-07)
(-9.23937e-16 0 9.01548e-22 28.9086 5.35097e-06 -1.94644e-05 0.221653 -3.208e-08 -1.47888e-07)
(0 0 0 28.8664 1.83803e-05 -1.87046e-05 0.224538 -4.07934e-08 -1.44846e-07)
(0 0 0 28.8664 1.87133e-05 -1.91744e-05 0.224538 -7.96221e-08 -1.48484e-07)
(-2.61145e-16 0 1.05507e-21 28.8203 6.01428e-05 -1.85242e-05 0.227418 8.18847e-08 -1.45641e-07)
(0 0 -8.2422e-22 28.8203 6.04253e-05 -1.89924e-05 0.227418 4.31571e-08 -1.49344e-07)
(1.49407e-16 2.03102e-22 2.35173e-22 28.7683 6.77249e-05 -1.79626e-05 0.230282 3.58759e-07 -1.40088e-07)
(0 0 0 28.7683 6.79496e-05 -1.84319e-05 0.230282 3.20158e-07 -1.43852e-07)
(0 2.19806e-18 0 28.7096 2.03099e-20 -1.60961e-05 0.233125 0 -1.19562e-07)
(-1.16845e-15 -2.10457e-22 9.62811e-22 28.7096 2.14296e-05 -1.65682e-05 0.233125 1.27645e-07 -1.2342e-07)
(3.07897e-16 9.51844e-19 -2.33045e-22 28.644 -2.60589e-05 -1.22539e-05 0.235946 1.0668e-07 -1.03666e-07)
(0 -1.21193e-18 0 28.644 -3.09522e-05 -1.27291e-05 0.235946 1.26712e-07 -8.47411e-08)
(-1.46353e-15 0 4.36997e-22 28.5712 -6.8582e-05 -6.63221e-06 0.238736 1.31658e-07 -1.0759e-07)
(8.15764e-16 0 0 28.5712 -6.84055e-05 -7.10954e-06 0.238736 9.32518e-08 -3.29983e-08)
(1.0202e-15 9.58529e-23 -1.36516e-21 28.4904 -5.25638e-05 -2.28386e-07 0.241486 -2.04359e-07 -1.11597e-07)
(2.72053e-15 0 -1.20371e-35 28.4904 -5.25841e-05 -5.18808e-20 0.241486 -2.4305e-07 2.11758e-22)
(0 0 7.55832e-22 28.4009 -1.66351e-05 5.75969e-06 0.244187 -3.98855e-07 -1.15649e-07)
(1.42579e-15 0 -3.42011e-20 28.4009 -1.65343e-05 5.02545e-06 0.244187 -4.38147e-07 -2.14837e-08)
(3.73024e-16 0 -9.80031e-22 28.302 1.06994e-05 1.04848e-05 0.246832 -4.38195e-07 -1.19767e-07)
(0 0 7.44999e-22 28.302 1.1045e-05 1.00082e-05 0.246832 -4.77368e-07 -6.91813e-08)
(-7.79585e-16 0 5.31912e-22 28.1937 2.383e-05 3.00093e-06 0.249421 -4.00919e-07 -1.23917e-07)
(-3.11834e-15 0 2.16353e-21 28.1937 2.3912e-05 6.5517e-06 0.249421 -4.39749e-07 -1.04704e-07)
(-4.06746e-16 0 1.71305e-22 28.0772 3.64076e-05 -6.47999e-05 0.251967 -3.28492e-07 -1.10747e-06)
(-1.62699e-15 0 6.81836e-22 28.0772 3.63295e-05 -6.11115e-05 0.251967 -3.68329e-07 -1.10926e-06)
(0 0 -1.42685e-21 27.9544 5.8787e-05 -0.000122595 0.254487 -1.80272e-07 -1.11357e-06)
(-1.69552e-15 0 2.42782e-21 27.9544 5.89246e-05 -0.000122793 0.254487 -2.20513e-07 -1.11535e-06)
(0 0 0 27.8273 8.21909e-05 -0.000116355 0.256993 9.69958e-08 -1.02438e-06)
(1.76476e-15 0 -1.37288e-21 27.8273 8.23059e-05 -0.000116552 0.256993 5.66784e-08 -1.02623e-06)
(-4.58678e-16 0 4.42266e-22 27.6964 8.59651e-05 -0.000100866 0.259484 4.639e-07 -8.55256e-07)
(0 0 0 27.6964 8.60915e-05 -0.000101052 0.259484 4.23159e-07 -8.56882e-07)
(-4.76343e-16 -5.309e-23 5.33823e-22 27.5609 6.11012e-05 -8.0144e-05 0.261938 3.98929e-07 -6.59519e-07)
(0 0 0 27.5609 6.11887e-05 -8.03119e-05 0.261938 3.98482e-07 -6.61069e-07)
(-4.94187e-16 5.48959e-19 6.08283e-22 27.418 -9.58872e-23 -6.10063e-05 0.264324 1.05879e-22 -5.10322e-07)
(-1.97675e-15 -4.23776e-22 3.77613e-21 27.418 1.90475e-05 -6.11757e-05 0.264324 1.16218e-07 -5.12024e-07)
(5.12212e-16 1.13662e-18 -6.61928e-22 27.2645 -7.47029e-06 -5.02373e-05 0.2666 3.63663e-08 -4.67615e-07)
(0 0 0 27.2645 -2.06271e-05 -5.0409e-05 0.2666 1.15885e-07 -4.69255e-07)
(5.30416e-16 3.02907e-23 -6.99e-22 27.0969 -4.61826e-05 -5.20328e-05 0.268731 3.70278e-07 -5.61e-07)
(0 0 0 27.0969 -4.61289e-05 -5.21846e-05 0.268731 3.68024e-07 -5.62356e-07)
(-5.48791e-16 0 7.29721e-22 26.9124 -5.63225e-05 -6.72034e-05 0.270687 2.50674e-07 -7.87586e-07)
(0 0 1.2897e-21 26.9124 -5.63394e-05 -6.73385e-05 0.270687 2.07312e-07 -7.88938e-07)
(0 0 0 26.71 -5.38174e-05 -9.37591e-05 0.272455 -1.11256e-07 -1.12135e-06)
(0 0 0 26.71 -5.37718e-05 -9.3885e-05 0.272455 -1.5507e-07 -1.12256e-06)
(-5.86013e-16 0 -1.64211e-18 26.4901 -3.83183e-05 -3.22098e-05 0.274048 -4.35848e-07 -1.66122e-07)
(2.34405e-15 0 3.76158e-37 26.4901 -3.83125e-05 -5.16312e-22 0.274048 -4.80337e-07 -8.47033e-22)
(0 0 -4.81482e-35 26.256 -8.87108e-06 0 0.275501 -6.48165e-07 0)
(2.41931e-15 0 -4.42148e-21 26.256 -8.8521e-06 1.55435e-05 0.275501 -6.93414e-07 -1.12938e-07)
(6.23754e-16 0 2.78466e-22 26.0127 2.70388e-05 2.2506e-05 0.27687 -6.7291e-07 -2.04105e-06)
(-2.49501e-15 0 2.49995e-21 26.0127 2.70623e-05 2.26157e-05 0.27687 -7.18792e-07 -2.05664e-06)
(1.27187e-15 0 -5.6175e-22 25.7656 5.24039e-05 1.17177e-05 0.27821 -5.08632e-07 -5.55083e-06)
(-6.29089e-16 0 0 25.7656 5.23765e-05 1.18012e-05 0.27821 -5.55256e-07 -5.5662e-06)
(-6.61898e-16 0 1.80081e-22 25.5189 6.06652e-05 6.49566e-06 0.279549 -2.59559e-07 -9.16342e-06)
(0 0 0 25.5189 6.05888e-05 6.55087e-06 0.279549 -3.07099e-07 -9.17855e-06)
(-5.41258e-16 0 0 25.2733 7.27468e-05 8.64971e-06 0.280874 7.59814e-11 -1.10439e-05)
(2.72445e-15 0 0 25.2733 7.28692e-05 8.67879e-06 0.280874 -4.843e-08 -1.10478e-05)
(1.20485e-15 0 0 25.026 5.85628e-05 1.83329e-05 0.282134 3.73168e-07 -1.09932e-05)
(2.80171e-15 0 0 25.026 5.85656e-05 1.83481e-05 0.282134 3.44384e-07 -1.09966e-05)
(-7.19849e-16 0 0 24.7716 6.16639e-05 3.49665e-05 0.283254 5.01466e-07 -1.0873e-05)
(0 0 0 24.7716 6.13399e-05 3.49673e-05 0.283254 4.51309e-07 -1.08759e-05)
(-7.39377e-16 0 0 24.5042 0.000199171 6.98323e-05 0.284162 9.38014e-07 -1.06467e-05)
(0 0 0 24.5042 0.000199159 6.98104e-05 0.284162 8.86171e-07 -1.0649e-05)
(1.15378e-15 0 -1.10033e-21 24.2189 0.000403333 0.000150726 0.284801 2.6533e-06 -1.01672e-05)
(-1.15378e-15 0 0 24.2189 0.000403407 0.000150686 0.284801 2.6014e-06 -1.01691e-05)
(3.5852e-16 -1.08456e-21 -1.08456e-21 23.9112 0.000585382 0.000310257 0.2851 5.5273e-06 -9.11223e-06)
(-1.13725e-15 0 1.08456e-21 23.9112 0.00058521 0.000310201 0.2851 5.47422e-06 -9.11369e-06)
(-2.24189e-15 -2.13804e-21 0 23.5741 0.000687784 0.000573977 0.284932 8.56756e-06 -6.98416e-06)
(-2.07318e-15 -4.77673e-22 0 23.5741 0.000687746 0.000573906 0.284932 8.56893e-06 -6.98519e-06)
(-8.18425e-16 -1.06062e-21 0 23.194 0.000596414 0.000772493 0.284059 6.04552e-06 -3.16307e-06)
(3.2737e-15 4.2127e-21 0 23.194 0.000596389 0.000767616 0.284059 6.04352e-06 -3.16366e-06)
(0 3.99958e-18 0 22.7476 -2.31257e-21 0.000645526 0.282087 3.38813e-21 1.04175e-07)
(0 -1.43735e-17 0 22.7476 1.92795e-05 0.000640687 0.282087 1.19961e-07 1.03766e-07)
(-8.58486e-16 -1.97048e-21 0 22.2003 -0.000254576 0.000535038 0.278459 1.60706e-06 1.01389e-07)
(3.43395e-15 7.84935e-21 0 22.2003 -0.000254888 0.000535042 0.278459 1.60903e-06 1.00995e-07)
(1.75726e-15 0 0 21.5095 -0.00140463 0.000607834 0.272527 9.6154e-06 9.28192e-08)
(3.51453e-15 0 0 21.5095 -0.00140456 0.000607852 0.272527 9.55775e-06 9.2423e-08)
(0 0 0 20.6337 -0.00212165 0.000587557 0.263687 -2.22871e-06 7.34582e-08)
(0 0 0 20.6337 -0.00212152 0.000587603 0.263687 -2.28662e-06 7.30917e-08)
(-9.18745e-16 0 0 19.5447 -0.0023184 0.000447241 0.251587 -1.78353e-05 3.45147e-08)
(0 0 0 19.5447 -0.00231819 0.000447331 0.251587 -1.78924e-05 3.41964e-08)
(-1.87664e-15 3.49107e-21 -2.43226e-18 18.2425 -0.0018545 7.37644e-05 0.236322 -1.98561e-05 -3.94223e-08)
(3.75328e-15 -7.02061e-21 0 18.2425 -0.00185393 7.41844e-05 0.236322 -1.98423e-05 -3.96699e-08)
(-9.57184e-16 4.87355e-21 2.93039e-18 16.7647 -0.000833603 -2.29368e-08 0.218556 -6.67327e-06 -1.76727e-07)
(0 0 0 16.7647 -0.0008322 0 0.218556 -6.67263e-06 -1.76896e-07)
(-9.74993e-16 -5.70398e-19 0 15.1878 0.000384003 -0.000494117 0.199508 -2.64342e-06 -4.29153e-07)
(3.89997e-15 -2.19253e-20 0 15.1878 0.000384675 -0.000493545 0.199508 -2.64804e-06 -4.29154e-07)
(-1.9617e-15 2.65533e-21 0 13.6177 0.00149402 -0.0007957 0.180777 -1.41255e-05 -8.85e-07)
(0 0 0 13.6177 0.00149986 -0.000794594 0.180777 -1.41836e-05 -8.84446e-07)
(-2.0126e-15 0 0 12.1709 0.00172025 -0.00100901 0.16405 -1.57851e-05 -1.71262e-06)
(-4.02521e-15 0 0 12.1709 0.00172865 -0.00100695 0.16405 -1.57584e-05 -1.71067e-06)
(-2.03906e-15 0 0 10.9521 -0.0130244 -0.00100022 0.150772 1.33782e-05 -3.57849e-06)
(8.15622e-15 4.50219e-16 0 10.9521 -0.0130954 -0.000996174 0.150772 1.36156e-05 -3.57833e-06)
(-3.09367e-15 5.77779e-34 9.51498e-22 10.0343 3.48061e-18 0.000321347 0.141885 5.39639e-34 -3.23689e-06)
(-4.12489e-15 5.94949e-16 1.11006e-21 10.0343 -0.000909603 0.000314767 0.141885 -6.63379e-06 -3.51577e-06)
(-1.04165e-15 0 0 9.44848 0.0177507 0.00104451 0.137726 0.000183211 5.41803e-06)
(4.16658e-15 0 0 9.44848 0.0175619 0.00103598 0.137726 0.000186579 5.4158e-06)
(1.05116e-15 0 1.34015e-17 9.1844 0.0103971 3.61007e-05 0.138055 -1.40792e-06 2.70997e-07)
(0 0 0 9.1844 0.0101862 4.39717e-05 0.138055 -1.03578e-06 3.30082e-07)
(0 4.23953e-18 0 9.19898 0.00340736 6.7242e-05 0.142208 2.509e-05 1.78838e-06)
(4.24064e-15 5.55926e-18 8.15429e-23 9.19898 0.00341274 6.98376e-05 0.142208 2.51295e-05 1.80808e-06)
(8.77005e-16 0 1.90809e-18 9.43058 -0.00041889 6.99353e-06 0.149309 6.44086e-06 5.40362e-08)
(4.27617e-15 7.01167e-21 5.19168e-22 9.43058 -0.000422647 8.46071e-06 0.149309 6.45554e-06 6.53725e-08)
(0 -1.64878e-21 0 9.81308 -0.000653594 -2.02419e-34 0.158454 1.07874e-05 1.05879e-22)
(4.31253e-15 3.79943e-22 -1.38487e-21 9.81308 -0.000655291 -8.87083e-07 0.158454 1.08058e-05 6.9538e-09)
(0 0 0 10.2863 -0.00052263 -0.000111241 0.168846 5.50577e-06 1.92778e-07)
(0 0 0 10.2863 -0.000524046 -0.000110925 0.168846 5.45607e-06 1.92841e-07)
(-2.19575e-15 0 0 10.8019 -0.000345194 -0.000146066 0.179858 1.43417e-06 3.10507e-08)
(0 0 0 10.8019 -0.000345651 -0.000145898 0.179858 1.37881e-06 3.12032e-08)
(0 0 0 11.3246 -0.000183391 -0.00015458 0.19103 -9.86998e-07 -5.91562e-08)
(4.43521e-15 0 0 11.3246 -0.000183592 -0.000154489 0.19103 -1.04493e-06 -5.89432e-08)
(0 0 0 11.8302 -6.04413e-05 -0.000146958 0.202047 -2.01808e-06 -1.09203e-07)
(4.48212e-15 0 -1.55627e-21 11.8302 -6.04694e-05 -0.00014691 0.202047 -2.0769e-06 -1.08968e-07)
(-1.13307e-15 0 0 12.3033 3.53034e-06 -0.000132007 0.212684 -2.18255e-06 -1.36951e-07)
(0 0 0 12.3033 3.64005e-06 -0.000131982 0.212684 -2.24127e-06 -1.36706e-07)
(1.14643e-15 0 0 12.7334 2.54961e-05 -0.000115658 0.222779 -2.01232e-06 -1.52061e-07)
(0 0 -7.55988e-22 12.7334 2.56143e-05 -0.000115647 0.222779 -2.07036e-06 -1.5181e-07)
(0 2.94047e-19 0 13.1138 8.09206e-06 -0.000100712 0.232206 -1.72512e-06 -1.60256e-07)
(0 -3.49765e-19 0 13.1138 1.1944e-05 -0.000100709 0.232206 -1.7824e-06 -1.60008e-07)
(1.5403e-15 0 0 13.44 1.12308e-05 -8.76247e-05 0.240869 -1.65119e-06 -1.64509e-07)
(0 0 0 13.44 1.14103e-05 -8.76278e-05 0.240869 -1.70737e-06 -1.64275e-07)
(-8.64009e-16 4.29708e-20 3.61973e-22 13.7096 8.60598e-06 -7.59115e-05 0.248706 -1.44252e-06 -1.66789e-07)
(0 -4.21947e-20 0 13.7096 1.08965e-05 -7.59203e-05 0.248706 -1.49742e-06 -1.66564e-07)
(-1.20741e-15 0 0 13.9223 -4.17164e-20 -1.50285e-07 0.255685 -1.35598e-06 -1.68021e-07)
(0 0 0 13.9223 -8.55886e-07 -1.84561e-06 0.255685 -1.4094e-06 -1.67806e-07)
(1.2243e-15 0 0 14.0793 -2.90422e-06 8.27553e-05 0.261805 -1.36738e-06 7.32955e-07)
(-4.89719e-15 0 -7.03343e-22 14.0793 -2.13259e-06 8.10789e-05 0.261805 -1.41878e-06 7.28584e-07)
(1.45388e-15 0 6.93262e-22 14.1837 2.8518e-05 8.44787e-05 0.267096 -1.31715e-06 1.37995e-06)
(-4.96692e-15 0 -2.76589e-22 14.1837 2.7364e-05 8.44578e-05 0.267096 -1.36522e-06 1.37871e-06)
(-1.25964e-15 7.9946e-22 -9.2376e-22 14.2396 1.16401e-20 6.45446e-05 0.271605 -7.93603e-07 1.05938e-06)
(1.00771e-14 0 1.91624e-21 14.2396 6.01674e-06 6.45739e-05 0.271605 -8.39913e-07 1.06175e-06)
(1.27796e-15 0 3.9739e-22 14.2516 0.000315783 4.44938e-05 0.275383 -1.5119e-06 6.45255e-07)
(5.11184e-15 0 1.59766e-21 14.2516 0.000290989 4.40932e-05 0.275383 -1.55365e-06 6.27364e-07)
(0 5.65775e-22 0 14.2238 -5.42101e-20 3.44473e-05 0.27847 0 6.96384e-07)
(0 0 0 14.2238 -9.06842e-05 3.40949e-05 0.27847 1.09977e-06 7.00716e-07)
(-1.31563e-15 -2.80747e-18 -1.88079e-37 14.1594 -4.884e-05 6.20048e-22 0.280888 -4.82333e-07 0)
(3.89021e-15 9.81545e-22 2.44254e-21 14.1594 -0.000226698 -5.74156e-06 0.280888 -1.4045e-06 6.69395e-08)
(-1.33488e-15 7.00269e-18 2.42631e-22 14.0605 1.23402e-22 -6.41786e-05 0.282634 0 1.02247e-06)
(-5.3395e-15 -6.9142e-18 -2.30111e-21 14.0605 3.03161e-05 -6.24262e-05 0.282634 3.03748e-07 9.39364e-07)
(1.35434e-15 0 2.0482e-22 13.9278 -1.08616e-05 -8.25504e-05 0.283683 2.98987e-07 1.55348e-06)
(5.41737e-15 0 8.11224e-22 13.9278 -5.31299e-06 -8.28644e-05 0.283683 2.9015e-07 1.56706e-06)
(-4.00225e-15 3.69891e-19 -2.5132e-23 13.7614 -1.20541e-20 -9.52094e-05 0.283996 -1.05879e-22 1.80485e-06)
(8.1242e-15 3.27838e-22 1.0087e-22 13.7614 8.05689e-06 -9.52234e-05 0.283996 8.30897e-08 1.80394e-06)
(-1.39375e-15 -4.80652e-23 0 13.5605 -1.42994e-05 -6.78146e-05 0.283528 2.78628e-07 7.4587e-07)
(0 0 0 13.5605 -1.3777e-05 -6.80101e-05 0.283528 2.37903e-07 7.45534e-07)
(-1.41361e-15 -2.62991e-23 0 13.325 -2.2963e-05 7.44888e-06 0.282241 3.2012e-07 1.54008e-07)
(0 0 0 13.325 -2.33297e-05 7.27569e-06 0.282241 3.39415e-07 1.53917e-07)
(1.08339e-15 0 0 13.0551 -3.51304e-05 4.92413e-05 0.280121 2.30681e-07 1.52736e-07)
(3.21707e-15 0 0 13.0551 -3.50512e-05 4.92231e-05 0.280121 1.91894e-07 1.52629e-07)
(1.45333e-15 0 0 12.7524 -3.93624e-05 4.974e-05 0.277187 -1.50047e-07 1.51354e-07)
(0 0 0 12.7524 -3.93204e-05 4.97333e-05 0.277187 -1.88407e-07 1.51251e-07)
(2.44524e-15 0 5.82992e-22 12.4206 -3.77686e-05 4.72181e-05 0.273504 -5.33228e-07 1.49929e-07)
(0 0 0 12.4206 -3.76524e-05 4.72174e-05 0.273504 -5.70683e-07 1.49827e-07)
(-1.49265e-15 0 0 12.0646 -3.63998e-05 4.16203e-05 0.269176 -8.91188e-07 1.48447e-07)
(0 0 0 12.0646 -3.63048e-05 4.16228e-05 0.269176 -9.27517e-07 1.48354e-07)
(2.37565e-15 0 0 11.6911 -2.54263e-05 3.33271e-05 0.26435 -1.25709e-06 1.46931e-07)
(1.2096e-14 0 0 11.6911 -2.52987e-05 3.33308e-05 0.26435 -1.29221e-06 1.46841e-07)
(-2.3416e-15 -6.97852e-23 -5.58282e-22 11.3083 -1.09933e-05 2.33579e-05 0.259205 -1.37501e-06 1.45376e-07)
(6.12423e-15 0 0 11.3083 -1.08471e-05 2.33634e-05 0.259205 -1.40872e-06 1.45282e-07)
(-1.54978e-15 -6.8785e-23 0 10.9244 -1.17325e-06 1.27536e-05 0.253932 -1.41716e-06 1.43756e-07)
(-6.1991e-15 0 0 10.9244 -1.09494e-06 1.27602e-05 0.253932 -1.44961e-06 1.43683e-07)
(-3.84308e-15 0 3.00542e-20 10.5479 1.21254e-05 1.69407e-21 0.248724 -1.30929e-06 0)
(-6.27247e-15 0 -1.01988e-19 10.5479 1.22441e-05 4.2349e-07 0.248724 -1.34057e-06 5.04568e-09)
(0 0 4.00432e-20 10.1863 1.83846e-05 -4.43844e-06 0.243759 -1.03512e-06 5.36507e-08)
(0 0 -1.06924e-21 10.1863 1.8512e-05 -4.43176e-06 0.243759 -1.06504e-06 5.357e-08)
(0 0 0 9.84573 2.13796e-05 -1.30018e-05 0.239181 -7.73693e-07 1.38734e-07)
(6.41446e-15 0 -1.05391e-21 9.84573 2.14737e-05 -1.2996e-05 0.239181 -8.02363e-07 1.38673e-07)
(-5.57763e-16 -2.59702e-22 -1.03881e-21 9.53066 2.39889e-05 -1.74789e-05 0.235105 -4.20041e-07 1.36963e-07)
(0 0 0 9.53066 2.40952e-05 -1.74731e-05 0.235105 -4.47499e-07 1.36908e-07)
(0 0 0 9.24381 1.84615e-05 -1.9628e-05 0.2316 -8.75983e-08 1.35197e-07)
(1.31006e-14 0 0 9.24381 1.85556e-05 -1.96223e-05 0.2316 -1.1386e-07 1.35146e-07)
(2.11654e-15 0 0 8.98614 1.26723e-05 -1.98982e-05 0.228696 1.33483e-07 1.33348e-07)
(1.32324e-14 0 0 8.98614 1.27667e-05 -1.98927e-05 0.228696 1.08384e-07 1.33302e-07)
(-3.34048e-15 -6.05033e-23 0 8.75705 7.73335e-06 -1.87454e-05 0.226392 1.06153e-07 1.31516e-07)
(0 0 0 8.75705 7.82386e-06 -1.874e-05 0.226392 1.08362e-07 1.31472e-07)
(-1.68619e-15 1.07145e-20 0 8.55478 4.56355e-21 -1.67117e-05 0.224653 0 1.29588e-07)
(1.34895e-14 4.13199e-22 0 8.55478 1.10399e-06 -1.67064e-05 0.224653 2.51341e-08 1.29553e-07)
(1.70195e-15 5.30871e-23 0 8.37665 -2.01069e-06 -1.42794e-05 0.223426 5.33541e-08 1.27697e-07)
(0 0 0 8.37665 -1.92609e-06 -1.42744e-05 0.223426 5.13054e-08 1.27662e-07)
(-1.71756e-15 3.87106e-21 0 8.21938 -3.99549e-06 -1.17297e-05 0.222637 5.42091e-08 1.25697e-07)
(0 0 0 8.21938 -3.81271e-06 -1.17245e-05 0.222637 5.17292e-08 1.25667e-07)
(-1.73307e-15 -2.99048e-23 0 8.07927 -5.2888e-06 -9.24875e-06 0.2222 1.84398e-07 1.23744e-07)
(6.93228e-15 1.09668e-22 0 8.07927 -5.22088e-06 -9.24378e-06 0.2222 1.82582e-07 1.23717e-07)
(-1.74851e-15 -3.9051e-23 0 7.95237 -2.69813e-06 -6.75423e-06 0.222018 1.06237e-07 1.21676e-07)
(6.99406e-15 1.46847e-22 -4.62753e-22 7.95237 -2.62544e-06 -6.7494e-06 0.222018 1.04312e-07 1.21653e-07)
(-3.52785e-15 -1.00441e-22 0 7.83448 -1.88906e-06 -4.06256e-06 0.22198 4.40322e-08 1.19674e-07)
(0 0 0 7.83448 -1.82203e-06 -4.05796e-06 0.22198 4.1895e-08 1.19652e-07)
(-1.77933e-15 -4.8689e-23 -5.78784e-24 7.72121 -2.37453e-06 -1.15371e-06 0.221962 6.31635e-08 7.58368e-08)
(0 0 0 7.72121 -2.31088e-06 -1.14918e-06 0.221962 6.15054e-08 7.57863e-08)
(3.71732e-15 0 4.43139e-22 7.60799 1.58587e-06 2.1815e-06 0.22183 1.67686e-07 1.15491e-07)
(-7.179e-15 -1.28343e-22 0 7.60799 1.64668e-06 2.18581e-06 0.22183 1.69225e-07 1.15472e-07)
(1.8102e-15 1.90369e-20 0 7.49017 5.0822e-21 6.14003e-06 0.22144 0 1.13302e-07)
(7.24079e-15 3.53505e-21 0 7.49017 6.43846e-07 6.14432e-06 0.22144 9.52581e-09 1.13288e-07)
(3.63144e-15 5.29846e-23 0 7.36308 -5.64889e-06 1.03059e-05 0.220642 1.29955e-07 1.11213e-07)
(-9.10846e-15 -2.0504e-22 0 7.36308 -5.5891e-06 1.03102e-05 0.220642 1.28143e-07 1.11197e-07)
(-1.84117e-15 -3.25418e-23 0 7.22233 -3.78127e-06 1.44089e-05 0.219291 2.09787e-07 1.08968e-07)
(7.36468e-15 1.23686e-22 -4.24357e-22 7.22233 -3.73775e-06 1.44131e-05 0.219291 2.0801e-07 1.08959e-07)
(0 2.12764e-20 0 7.06403 -1.24077e-06 1.85589e-05 0.217252 1.91699e-08 1.06838e-07)
(-1.75437e-15 0 -4.18275e-22 7.06403 -1.18464e-06 1.85625e-05 0.217252 1.83027e-08 1.06827e-07)
(-1.72923e-15 -2.0614e-22 -8.2456e-22 6.88511 -5.42081e-06 2.26414e-05 0.214415 2.05237e-07 1.04553e-07)
(4.0301e-15 1.05502e-22 0 6.88511 -5.36513e-06 2.26453e-05 0.214415 2.02944e-07 1.04539e-07)
(1.88753e-15 3.319e-23 0 6.68362 -2.44796e-06 2.6715e-05 0.210706 1.34127e-07 1.02394e-07)
(0 0 0 6.68362 -2.41346e-06 2.67189e-05 0.210706 1.32938e-07 1.02384e-07)
(0 0 0 6.45901 -2.8216e-07 3.11014e-05 0.206095 2.07705e-08 1.00068e-07)
(-7.61117e-15 -2.03993e-22 -8.01093e-22 6.45901 -2.38317e-07 3.1105e-05 0.206095 1.97667e-08 1.00059e-07)
(-1.65593e-15 -3.94806e-22 -7.89611e-22 6.21226 3.36369e-06 3.61924e-05 0.200605 2.19064e-07 9.78891e-08)
(0 0 0 6.21226 3.40685e-06 3.61958e-05 0.200605 2.20052e-07 9.78753e-08)
(-1.6322e-15 0 0 5.94594 7.51944e-06 4.25447e-05 0.194313 2.80867e-07 9.55291e-08)
(0 0 0 5.94594 7.55482e-06 4.25482e-05 0.194313 2.82231e-07 9.55171e-08)
(1.9471e-15 5.6265e-23 0 5.66406 9.27524e-06 5.06267e-05 0.187347 3.44667e-07 9.33317e-08)
(0 0 0 5.66406 9.31267e-06 5.063e-05 0.187347 3.45824e-07 9.3316e-08)
(1.96113e-15 7.14267e-23 0 5.37183 1.14689e-05 6.08078e-05 0.17988 4.40169e-07 9.09452e-08)
(0 0 -1.51229e-21 5.37183 1.15018e-05 6.0811e-05 0.17988 4.41259e-07 9.09296e-08)
(-3.94939e-15 -2.92559e-22 0 5.07525 8.57693e-06 7.31522e-05 0.172113 1.52702e-07 8.87358e-08)
(7.89877e-15 5.80537e-22 0 5.07525 8.60904e-06 7.31552e-05 0.172113 1.53839e-07 8.87155e-08)
(-1.98773e-15 -1.64309e-22 0 4.78058 4.02491e-06 8.7244e-05 0.164261 1.30388e-07 8.63264e-08)
(0 0 0 4.78058 4.05576e-06 8.72471e-05 0.164261 1.31421e-07 8.63044e-08)
(0 4.47625e-20 0 4.49384 -4.49246e-07 0.000102372 0.156533 8.01879e-09 8.41052e-08)
(-3.03708e-15 0 0 4.49384 -1.10114e-20 0.000102375 0.156533 0 8.40794e-08)
(0 0 0 4.2203 -1.48057e-05 0.000117178 0.149114 3.02608e-07 8.16813e-08)
(0 0 -2.85487e-21 4.2203 -1.47778e-05 0.000117181 0.149114 3.01648e-07 8.16524e-08)
(-2.95064e-15 -3.51744e-22 -2.81395e-21 3.96404 -2.48926e-05 0.000129917 0.142149 7.73253e-07 7.94658e-08)
(-2.95064e-15 0 0 3.96404 -2.48669e-05 0.000129919 0.142149 7.7219e-07 7.94296e-08)
(0 0 0 3.72772 -3.56622e-05 0.000138823 0.135735 4.31137e-07 7.7037e-08)
(1.62732e-14 0 0 3.72772 -3.56386e-05 0.000138826 0.135735 4.26886e-07 7.69968e-08)
(-4.08876e-15 0 0 3.51251 -4.74279e-05 0.000141863 0.129916 -3.43104e-07 7.48282e-08)
(8.17752e-15 0 0 3.51251 -4.74043e-05 0.000141866 0.129916 -3.46805e-07 7.47796e-08)
(2.05412e-15 0 0 3.31805 -5.38744e-05 0.000137191 0.12468 -1.30846e-06 7.2401e-08)
(0 0 0 3.31805 -5.38533e-05 0.000137194 0.12468 -1.31164e-06 7.23463e-08)
(0 0 0 3.14278 -5.30996e-05 0.000123821 0.119976 -2.02641e-06 7.02087e-08)
(-1.10388e-14 1.63981e-22 0 3.14278 -5.30792e-05 0.000123823 0.119976 -2.06391e-06 7.0143e-08)
(-2.07234e-15 1.94318e-22 0 2.98425 -4.72176e-05 0.000101704 0.115719 -1.92178e-06 6.77931e-08)
(8.28937e-15 -7.57834e-22 0 2.98425 -4.72004e-05 0.000101707 0.115719 -1.95897e-06 6.77194e-08)
(0 0 0 2.83948 -3.64733e-05 7.16325e-05 0.111804 -1.81995e-06 6.56309e-08)
(0 0 0 2.83948 -3.64531e-05 7.16346e-05 0.111804 -1.85621e-06 6.55418e-08)
(2.66704e-15 0 4.55151e-20 2.70533 -1.91765e-05 3.24799e-05 0.108123 -1.71987e-06 6.32423e-08)
(0 0 0 2.70533 -1.91575e-05 3.24982e-05 0.108123 -1.75618e-06 6.31396e-08)
(-2.09718e-15 4.54274e-22 -2.29221e-37 2.57889 1.60814e-06 -8.39394e-22 0.104574 -1.62313e-06 1.32349e-23)
(0 0 0 2.57889 1.61793e-06 -1.91645e-08 0.104574 -1.6585e-06 3.95202e-10)
(-1.6187e-15 2.38255e-22 9.8844e-21 2.45775 2.23481e-05 -4.33332e-05 0.101079 -1.5296e-06 5.87419e-08)
(1.68394e-14 -3.38629e-21 0 2.45775 2.23647e-05 -4.3331e-05 0.101079 -1.56391e-06 5.86107e-08)
(0 0 0 2.34013 3.97649e-05 -7.91104e-05 0.0975789 -1.43745e-06 5.66588e-08)
(-2.554e-15 0 -4.87137e-21 2.34013 3.9781e-05 -7.91085e-05 0.0975789 -1.47168e-06 5.65036e-08)
(-2.51739e-15 3.00097e-22 -4.80155e-21 2.22494 5.14924e-05 -0.000108462 0.0940453 -2.0234e-06 5.43469e-08)
(0 0 -4.80155e-21 2.22494 5.15034e-05 -0.00010846 0.0940453 -2.02372e-06 5.41708e-08)
(-6.38011e-15 0 0 2.11177 5.66654e-05 -0.000129372 0.0904752 -1.64908e-06 5.23212e-08)
(1.70136e-14 0 0 2.11177 5.66773e-05 -0.00012937 0.0904752 -1.64781e-06 5.21167e-08)
(0 0 0 2.00079 5.47849e-05 -0.000140915 0.0868893 -3.59194e-07 5.00665e-08)
(1.70678e-14 0 0 2.00079 5.4795e-05 -0.000140913 0.0868893 -3.57462e-07 4.98333e-08)
(-2.14e-15 0 0 1.89263 4.69109e-05 -0.000143321 0.0833259 8.19886e-07 4.81062e-08)
(0 0 0 1.89263 4.69219e-05 -0.00014332 0.0833259 8.22144e-07 4.78365e-08)
(-2.29876e-16 5.08563e-23 0 1.7882 3.64343e-05 -0.000137676 0.0798353 1.42248e-06 4.59202e-08)
(1.95463e-14 4.09661e-22 0 1.7882 3.64423e-05 -0.000137674 0.0798353 1.42272e-06 4.5613e-08)
(0 0 0 1.68854 2.23129e-05 -0.00012578 0.0764727 6.37678e-07 4.40419e-08)
(8.6091e-15 1.04594e-21 0 1.68854 2.23211e-05 -0.000125778 0.0764727 6.38206e-07 4.36855e-08)
(2.15802e-15 1.81976e-20 0 1.59464 7.75781e-06 -0.000109905 0.07329 1.82174e-07 4.19393e-08)
(0 0 0 1.59464 7.76882e-06 -0.000109903 0.07329 1.82432e-07 4.15308e-08)
(4.32704e-15 1.18717e-20 0 1.50734 -8.84855e-07 -9.21542e-05 0.0703324 2.10809e-08 4.01408e-08)
(6.37864e-15 0 -1.08501e-21 1.50734 -1.73642e-20 -9.2153e-05 0.0703324 0 3.96792e-08)
(0 0 0 1.42721 -9.94125e-06 -7.43117e-05 0.067634 3.30481e-07 3.81288e-08)
(-2.24282e-15 0 0 1.42721 -9.93497e-06 -7.43105e-05 0.067634 3.30334e-07 3.75995e-08)
(2.21067e-15 0 0 1.35456 -1.49365e-05 -5.77775e-05 0.0652142 6.32842e-07 3.64323e-08)
(8.69521e-15 1.0491e-21 0 1.35456 -1.49327e-05 -5.77767e-05 0.0652142 6.3238e-07 3.58249e-08)
(4.35725e-15 3.55683e-22 0 1.28933 -1.70089e-05 -4.34171e-05 0.0630774 8.33694e-07 3.45289e-08)
(0 0 0 1.28933 -1.70073e-05 -4.3416e-05 0.0630774 8.33789e-07 3.38379e-08)
(2.18326e-15 1.16886e-22 0 1.23122 -1.66109e-05 -3.15979e-05 0.0612147 8.59114e-07 3.29208e-08)
(8.73304e-15 4.71448e-22 0 1.23122 -1.66083e-05 -3.15973e-05 0.0612147 8.58857e-07 3.21441e-08)
(-2.11698e-15 0 0 1.17965 -1.5136e-05 -2.23362e-05 0.0596043 8.17641e-07 3.11482e-08)
(1.08679e-14 2.75265e-22 0 1.17965 -1.51359e-05 -2.23356e-05 0.0596043 8.17643e-07 3.02697e-08)
(-2.19206e-15 -3.11086e-23 0 1.13385 -1.24466e-05 -1.53914e-05 0.058214 7.32108e-07 2.95846e-08)
(-8.76824e-15 -1.28689e-22 0 1.13385 -1.24481e-05 -1.53913e-05 0.058214 7.32095e-07 2.86498e-08)
(-6.30972e-15 -1.39697e-22 -1.22591e-22 1.09293 -9.88788e-06 -1.03773e-05 0.0570048 5.60083e-07 2.80159e-08)
(0 0 0 1.09293 -9.89075e-06 -1.0377e-05 0.0570048 5.60255e-07 2.69731e-08)
(-2.20037e-15 0 0 1.05594 -7.60037e-06 -6.90844e-06 0.0559339 4.67682e-07 2.62762e-08)
(-8.80148e-15 0 0 1.05594 -7.60416e-06 -6.90877e-06 0.0559339 4.74204e-07 2.53729e-08)
(0 0 0 1.02193 -5.34227e-06 2.85253e-07 0.0549566 2.89065e-07 2.51994e-08)
(0 0 0 1.02193 -5.34842e-06 7.48102e-07 0.0549566 3.06172e-07 2.42024e-08)
(0 0 0 0.98997 -3.77363e-06 5.67586e-06 0.0540286 2.30136e-07 1.55621e-07)
(1.96362e-14 0 1.17395e-22 0.98997 -3.78175e-06 6.09848e-06 0.0540286 2.24888e-07 1.68447e-07)
(-2.21221e-15 0 -2.94117e-23 0.959239 -2.12415e-06 1.87188e-06 0.053109 4.71284e-08 5.22709e-08)
(8.84882e-15 0 1.14793e-22 0.959239 -2.13184e-06 2.47069e-06 0.053109 9.0268e-08 6.89923e-08)
(0 0 -1.14054e-22 0.929006 -2.88664e-06 5.89905e-08 0.0521603 2.57174e-07 6.30197e-08)
(-1.26911e-14 -1.58709e-23 -1.30956e-22 0.929006 -2.89405e-06 -2.06465e-21 0.0521603 1.52861e-07 -5.29396e-23)
(-1.88608e-15 5.26964e-24 -1.12419e-22 0.898674 -9.91366e-07 -6.90988e-07 0.0511522 -3.05881e-07 4.62975e-08)
(0 -7.02618e-24 0 0.898674 -9.91171e-07 -1.30044e-06 0.0511522 -2.28382e-07 7.273e-08)
(-1.4946e-15 -1.3851e-23 -7.27184e-23 0.867798 1.23181e-06 -7.02471e-07 0.0500606 4.81772e-07 3.30492e-08)
(8.89393e-15 0 1.04313e-22 0.867798 1.23584e-06 -1.32042e-06 0.0500606 1.33867e-07 7.68099e-08)
(3.6648e-15 1.12984e-20 0 0.836071 -6.76533e-07 -7.788e-07 0.0488689 -4.4735e-08 4.90028e-08)
(0 0 0 0.836071 -1.36226e-07 -1.13531e-06 0.0488689 4.03014e-09 7.72082e-08)
(1.80614e-15 -9.34339e-21 0 0.803373 0 -8.33059e-07 0.0475728 4.32639e-08 4.31154e-08)
(0 0 0 0.803373 -6.97219e-07 -9.43715e-07 0.0475728 1.44758e-08 5.6995e-08)
(-4.46837e-15 0 -1.5068e-22 0.769788 1.73846e-07 -8.806e-07 0.04618 -6.70652e-09 5.69999e-08)