/*--------------------------------*- C++ -*----------------------------------*\
| =========                 |                                                 |
| \\      /  F ield         | OpenFOAM: The Open Source CFD Toolbox           |
|  \\    /   O peration     | Version:  2012                                  |
|   \\  /    A nd           | Website:  www.openfoam.com                      |
|    \\/     M anipulation  |                                                 |
\*---------------------------------------------------------------------------*/
FoamFile
{
    version     2.0;
    format      ascii;
    class       volScalarField;
    location    "15000";
    object      p;
}
// * * * * * * * * * * * * * * * * * * * * * * * * * * * * * * * * * * * * * //

dimensions      [0 2 -2 0 0 0 0];


internalField   nonuniform List<scalar> 
2560
(
-3.11593e-09
-9.08021e-08
-1.01374e-07
-1.7569e-07
-1.16983e-07
-1.80553e-07
-1.17536e-07
-1.74266e-07
-1.23344e-07
-1.73525e-07
-1.32011e-07
-1.76488e-07
-1.41636e-07
-1.81174e-07
-1.52062e-07
-1.871e-07
-1.63777e-07
-1.94311e-07
-1.76811e-07
-2.02732e-07
-1.90974e-07
-2.11839e-07
-2.05799e-07
-2.20378e-07
-2.28796e-07
-2.32207e-07
-2.86495e-07
-2.73946e-07
-4.40153e-07
-4.11347e-07
-7.64742e-07
-7.24432e-07
-1.28855e-06
-1.24186e-06
-1.96256e-06
-1.911e-06
-2.70831e-06
-2.65248e-06
-3.48287e-06
-3.42349e-06
-4.27393e-06
-4.2113e-06
-5.06454e-06
-4.99886e-06
-5.84888e-06
-5.78015e-06
-6.67896e-06
-6.60733e-06
-7.67412e-06
-7.59978e-06
-8.96732e-06
-8.89035e-06
-1.06346e-05
-1.05549e-05
-1.2661e-05
-1.25788e-05
-1.49591e-05
-1.48743e-05
-1.74085e-05
-1.73212e-05
-1.98883e-05
-1.97985e-05
-2.22904e-05
-2.21981e-05
-2.45346e-05
-2.444e-05
-2.65951e-05
-2.64981e-05
-2.85294e-05
-2.84299e-05
-3.04844e-05
-3.03827e-05
-3.26701e-05
-3.25661e-05
-3.53092e-05
-3.52029e-05
-3.85888e-05
-3.84802e-05
-4.26264e-05
-4.25154e-05
-4.74537e-05
-4.73404e-05
-5.30148e-05
-5.28991e-05
-5.9181e-05
-5.9063e-05
-6.57863e-05
-6.56658e-05
-7.26747e-05
-7.25518e-05
-7.97379e-05
-7.96125e-05
-8.69319e-05
-8.68038e-05
-9.4302e-05
-9.41712e-05
-0.00010197
-0.000101836
-0.000110146
-0.000110009
-0.000119382
-0.000119243
-0.000130987
-0.000130845
-0.000147465
-0.00014732
-0.000172867
-0.000172719
-0.000212795
-0.000212644
-0.000273693
-0.000273539
-0.000361292
-0.000361134
-0.000478474
-0.000478312
-0.00062312
-0.000622956
-0.000786943
-0.000786778
-0.000955983
-0.000955817
-0.00111288
-0.00111272
-0.0012404
-0.00124025
-0.00132529
-0.00132517
-0.00136292
-0.00136283
-0.0013452
-0.00134519
-0.00128685
-0.00128691
-0.0012103
-0.00121038
-0.00111835
-0.00111844
-0.00102113
-0.00102123
-0.000926379
-0.000926479
-0.000838833
-0.000838931
-0.00076083
-0.000760924
-0.000692999
-0.000693088
-0.00063497
-0.000635054
-0.000585951
-0.00058603
-0.000545074
-0.000545146
-0.000511527
-0.000511594
-0.000484545
-0.000484607
-0.000463385
-0.000463441
-0.00044734
-0.000447391
-0.000435673
-0.000435719
-0.000427604
-0.000427648
-0.000422512
-0.00042255
-0.00041967
-0.000419731
-0.000418935
-0.000418987
-0.000420216
-0.000420253
-0.000423432
-0.00042349
-0.000429127
-0.000429184
-0.000437741
-0.000437797
-0.000449863
-0.000449916
-0.000466026
-0.000466075
-0.000486623
-0.000486668
-0.000511802
-0.000511843
-0.000541413
-0.00054145
-0.000575006
-0.000575038
-0.000611828
-0.000611856
-0.000650912
-0.000650936
-0.000691196
-0.000691216
-0.000731613
-0.00073163
-0.000771218
-0.000771231
-0.000809248
-0.000809258
-0.000845165
-0.000845172
-0.000878687
-0.000878691
-0.000909742
-0.000909743
-0.000938418
-0.000938416
-0.000964919
-0.000964915
-0.0009895
-0.000989493
-0.00101243
-0.00101242
-0.00103398
-0.00103397
-0.00105439
-0.00105438
-0.00107393
-0.00107392
-0.00109286
-0.00109285
-0.00111148
-0.00111146
-0.0011301
-0.00113008
-0.00114912
-0.0011491
-0.00116889
-0.00116886
-0.00118973
-0.00118971
-0.001212
-0.00121197
-0.00123598
-0.00123595
-0.00126199
-0.00126196
-0.00129034
-0.00129031
-0.00132144
-0.00132141
-0.0013558
-0.00135577
-0.00139407
-0.00139403
-0.00143705
-0.00143702
-0.00148569
-0.00148566
-0.00154102
-0.00154099
-0.00160405
-0.00160402
-0.00167567
-0.00167564
-0.00175648
-0.00175645
-0.00184668
-0.00184664
-0.00194591
-0.00194587
-0.00205316
-0.00205313
-0.0021668
-0.00216677
-0.0022846
-0.00228456
-0.00240385
-0.00240382
-0.00252163
-0.00252159
-0.00263496
-0.00263493
-0.00274117
-0.00274114
-0.00283805
-0.00283801
-0.00292401
-0.00292397
-0.0029982
-0.00299816
-0.00306048
-0.00306044
-0.00311132
-0.00311128
-0.00315169
-0.00315165
-0.00318288
-0.00318284
-0.00320634
-0.00320631
-0.00322355
-0.00322351
-0.00323585
-0.00323581
-0.00324444
-0.0032444
-0.00325032
-0.00325028
-0.00325427
-0.00325423
-0.00325688
-0.00325684
-0.00325858
-0.00325855
-0.00325968
-0.00325965
-0.00326039
-0.00326035
-0.00326082
-0.00326079
-0.00326108
-0.00326104
-0.00326121
-0.00326118
-0.00326125
-0.00326121
-0.0032612
-0.00326116
-0.00326109
-0.00326106
-0.00326095
-0.00326092
-0.00326077
-0.00326074
-0.00326056
-0.00326053
-0.00326033
-0.0032603
-0.00326009
-0.00326005
-0.00325983
-0.0032598
-0.00325957
-0.00325954
-0.00325932
-0.00325929
-0.00325909
-0.00325905
-0.00325886
-0.00325883
-0.00325866
-0.00325863
-0.00325848
-0.00325845
-0.00325832
-0.00325829
-0.00325819
-0.00325816
-0.00325808
-0.00325805
-0.00325799
-0.00325797
-0.00325792
-0.0032579
-0.00325787
-0.00325784
-0.00325783
-0.0032578
-0.00325779
-0.00325777
-0.00325777
-0.00325774
-0.00325774
-0.00325772
-0.00325771
-0.00325769
-0.00325768
-0.00325765
-0.00325763
-0.0032576
-0.00325755
-0.00325753
-0.00325745
-0.00325742
-0.00325729
-0.00325727
-0.00325707
-0.00325705
-0.00325676
-0.00325673
-0.00325632
-0.0032563
-0.00325573
-0.00325571
-0.00325494
-0.00325492
-0.0032539
-0.00325388
-0.00325255
-0.00325253
-0.00325082
-0.0032508
-0.00324863
-0.00324862
-0.00324593
-0.00324591
-0.0032426
-0.00324259
-0.0032386
-0.00323858
-0.00323382
-0.00323381
-0.00322822
-0.00322821
-0.00322175
-0.00322173
-0.00321436
-0.00321435
-0.00320607
-0.00320606
-0.00319688
-0.00319687
-0.00318684
-0.00318683
-0.003176
-0.00317599
-0.00316445
-0.00316444
-0.00315227
-0.00315226
-0.00313953
-0.00313953
-0.00312633
-0.00312632
-0.00311273
-0.00311272
-0.00309876
-0.00309875
-0.00308445
-0.00308444
-0.00306979
-0.00306979
-0.00305477
-0.00305476
-0.00303934
-0.00303934
-0.00302347
-0.00302347
-0.00300712
-0.00300712
-0.00299027
-0.00299027
-0.00297291
-0.0029729
-0.00295506
-0.00295506
-0.00293676
-0.00293676
-0.00291808
-0.00291808
-0.00289911
-0.0028991
-0.00287993
-0.00287992
-0.00286064
-0.00286064
-0.00284134
-0.00284133
-0.0028221
-0.00282209
-0.00280298
-0.00280298
-0.00278403
-0.00278403
-0.00276526
-0.00276526
-0.00274668
-0.00274668
-0.00272827
-0.00272827
-0.00271001
-0.00271001
-0.00269187
-0.00269187
-0.00267382
-0.00267382
-0.00265584
-0.00265584
-0.0026379
-0.0026379
-0.00261998
-0.00261998
-0.00260208
-0.00260208
-0.00258417
-0.00258417
-0.00256626
-0.00256626
-0.00254832
-0.00254832
-0.00253034
-0.00253034
-0.00251232
-0.00251232
-0.00249421
-0.00249421
-0.00247599
-0.00247599
-0.00245764
-0.00245764
-0.00243913
-0.00243913
-0.00242043
-0.00242043
-0.00240152
-0.00240152
-0.00238237
-0.00238237
-0.00236297
-0.00236297
-0.00234332
-0.00234332
-0.0023234
-0.0023234
-0.00230322
-0.00230322
-0.00228276
-0.00228276
-0.00226203
-0.00226203
-0.00224105
-0.00224105
-0.00221979
-0.00221979
-0.00219828
-0.00219828
-0.00217654
-0.00217654
-0.00215456
-0.00215456
-0.00213238
-0.00213238
-0.00211001
-0.00211001
-0.0020875
-0.0020875
-0.00206487
-0.00206487
-0.00204216
-0.00204216
-0.00201939
-0.00201939
-0.00199659
-0.00199659
-0.00197379
-0.00197379
-0.00195099
-0.00195099
-0.00192821
-0.00192821
-0.00190543
-0.00190543
-0.00188264
-0.00188264
-0.00185983
-0.00185983
-0.00183698
-0.00183698
-0.00181408
-0.00181408
-0.00179111
-0.00179111
-0.0017681
-0.0017681
-0.00174505
-0.00174505
-0.00172202
-0.00172202
-0.00169905
-0.00169905
-0.00167621
-0.00167621
-0.00165357
-0.00165357
-0.00163122
-0.00163122
-0.00160924
-0.00160924
-0.00158769
-0.00158769
-0.00156663
-0.00156663
-0.00154612
-0.00154612
-0.00152619
-0.00152619
-0.00150687
-0.00150687
-0.00148815
-0.00148815
-0.00147005
-0.00147005
-0.00145253
-0.00145253
-0.00143559
-0.00143559
-0.00141916
-0.00141916
-0.00140325
-0.00140325
-0.00138776
-0.00138776
-0.00137271
-0.00137271
-0.00135799
-0.00135799
-0.00134365
-0.00134365
-0.00132957
-0.00132957
-0.00131587
-0.00131587
-0.00130244
-0.00130244
-0.00128951
-0.00128951
-0.00127697
-0.00127697
-0.00126521
-0.00126521
-0.00125414
-0.00125414
-0.00124424
-0.00124424
-0.00123545
-0.00123545
-0.00122828
-0.00122828
-0.00122266
-0.00122266
-0.00121901
-0.00121901
-0.00121726
-0.00121726
2.81923e-05
2.84407e-05
2.81067e-05
2.83362e-05
2.81028e-05
2.83178e-05
2.8112e-05
2.83206e-05
2.8117e-05
2.83234e-05
2.8121e-05
2.83263e-05
2.8126e-05
2.83309e-05
2.81322e-05
2.8337e-05
2.81393e-05
2.83445e-05
2.81474e-05
2.83537e-05
2.8157e-05
2.83654e-05
2.81693e-05
2.83807e-05
2.81806e-05
2.8394e-05
2.81642e-05
2.83797e-05
2.80545e-05
2.82725e-05
2.77711e-05
2.79916e-05
2.72858e-05
2.75097e-05
2.66509e-05
2.6877e-05
2.59462e-05
2.61736e-05
2.52145e-05
2.54428e-05
2.44686e-05
2.46976e-05
2.37254e-05
2.39549e-05
2.2991e-05
2.3221e-05
2.22134e-05
2.24439e-05
2.12734e-05
2.15045e-05
2.00381e-05
2.02697e-05
1.84316e-05
1.86638e-05
1.64687e-05
1.67015e-05
1.42374e-05
1.44708e-05
1.18578e-05
1.20918e-05
9.45127e-06
9.68593e-06
7.12578e-06
7.36114e-06
4.96183e-06
5.19792e-06
2.98537e-06
3.2222e-06
1.1393e-06
1.37689e-06
-7.23365e-07
-4.84991e-07
-2.81198e-06
-2.57269e-06
-5.34928e-06
-5.10903e-06
-8.52179e-06
-8.28058e-06
-1.24468e-05
-1.22045e-05
-1.71554e-05
-1.69122e-05
-2.25915e-05
-2.23471e-05
-2.86257e-05
-2.83801e-05
-3.50916e-05
-3.48448e-05
-4.18324e-05
-4.15843e-05
-4.87395e-05
-4.84899e-05
-5.57679e-05
-5.55168e-05
-6.29625e-05
-6.271e-05
-7.04443e-05
-7.01901e-05
-7.84235e-05
-7.81675e-05
-8.74515e-05
-8.71936e-05
-9.88368e-05
-9.8577e-05
-0.000115085
-0.000114823
-0.000140247
-0.000139983
-0.000179929
-0.000179663
-0.000240585
-0.000240316
-0.000327958
-0.000327687
-0.000444959
-0.000444686
-0.000589519
-0.000589244
-0.000753442
-0.000753166
-0.000922937
-0.000922662
-0.00108096
-0.00108069
-0.00121083
-0.00121057
-0.00130037
-0.00130012
-0.00134782
-0.00134764
-0.00134549
-0.00134539
-0.00129958
-0.00129954
-0.00122875
-0.00122875
-0.00113978
-0.00113979
-0.00104403
-0.00104404
-0.000949865
-0.000949878
-0.000862416
-0.000862427
-0.000784227
-0.000784234
-0.000716049
-0.000716053
-0.000657581
-0.000657579
-0.00060807
-0.000608064
-0.00056667
-0.00056666
-0.000532585
-0.000532569
-0.000505054
-0.000505033
-0.000483338
-0.000483313
-0.000466733
-0.000466703
-0.0004545
-0.000454467
-0.000445857
-0.000445819
-0.000440163
-0.000440129
-0.000436666
-0.000436613
-0.000435303
-0.000435299
-0.000436061
-0.000436123
-0.000438779
-0.000438837
-0.000443962
-0.000444025
-0.000452073
-0.000452134
-0.000463699
-0.000463757
-0.000479373
-0.000479428
-0.000499491
-0.000499542
-0.000524201
-0.000524248
-0.000553351
-0.000553394
-0.000586494
-0.000586533
-0.000622876
-0.000622912
-0.000661531
-0.000661563
-0.000701397
-0.000701425
-0.000741407
-0.000741432
-0.000780615
-0.000780636
-0.000818259
-0.000818277
-0.000853802
-0.000853817
-0.00088696
-0.000886972
-0.000917662
-0.000917671
-0.000945996
-0.000946002
-0.000972166
-0.00097217
-0.000996425
-0.000996427
-0.00101905
-0.00101905
-0.00104029
-0.00104029
-0.00106042
-0.00106041
-0.00107968
-0.00107967
-0.00109834
-0.00109833
-0.00111669
-0.00111668
-0.00113507
-0.00113506
-0.00115385
-0.00115384
-0.00117338
-0.00117337
-0.00119401
-0.00119399
-0.00121606
-0.00121604
-0.00123984
-0.00123982
-0.00126565
-0.00126563
-0.00129382
-0.0012938
-0.00132475
-0.00132472
-0.00135894
-0.00135891
-0.00139704
-0.00139702
-0.00143987
-0.00143984
-0.00148837
-0.00148834
-0.00154356
-0.00154353
-0.00160646
-0.00160643
-0.00167795
-0.00167793
-0.00175864
-0.00175862
-0.00184873
-0.0018487
-0.00194785
-0.00194782
-0.00205501
-0.00205498
-0.00216855
-0.00216852
-0.00228626
-0.00228623
-0.00240543
-0.0024054
-0.00252312
-0.00252309
-0.00263639
-0.00263636
-0.00274253
-0.0027425
-0.00283933
-0.0028393
-0.00292523
-0.0029252
-0.00299936
-0.00299934
-0.00306159
-0.00306156
-0.00311238
-0.00311235
-0.0031527
-0.00315267
-0.00318384
-0.00318382
-0.00320727
-0.00320724
-0.00322443
-0.0032244
-0.00323669
-0.00323667
-0.00324525
-0.00324523
-0.0032511
-0.00325108
-0.00325502
-0.003255
-0.0032576
-0.00325758
-0.00325928
-0.00325926
-0.00326035
-0.00326033
-0.00326103
-0.00326101
-0.00326145
-0.00326143
-0.00326168
-0.00326166
-0.00326182
-0.00326179
-0.00326185
-0.00326181
-0.00326177
-0.00326173
-0.00326166
-0.00326162
-0.0032615
-0.00326146
-0.00326131
-0.00326127
-0.00326109
-0.00326105
-0.00326085
-0.00326081
-0.00326059
-0.00326055
-0.00326033
-0.00326029
-0.00326006
-0.00326003
-0.00325981
-0.00325977
-0.00325956
-0.00325953
-0.00325933
-0.0032593
-0.00325912
-0.00325909
-0.00325894
-0.0032589
-0.00325878
-0.00325874
-0.00325864
-0.00325861
-0.00325852
-0.0032585
-0.00325843
-0.0032584
-0.00325836
-0.00325833
-0.0032583
-0.00325827
-0.00325826
-0.00325823
-0.00325822
-0.0032582
-0.00325819
-0.00325817
-0.00325816
-0.00325814
-0.00325813
-0.00325811
-0.0032581
-0.00325807
-0.00325804
-0.00325802
-0.00325797
-0.00325795
-0.00325786
-0.00325784
-0.0032577
-0.00325768
-0.00325748
-0.00325746
-0.00325717
-0.00325715
-0.00325673
-0.00325671
-0.00325614
-0.00325612
-0.00325535
-0.00325533
-0.00325431
-0.00325429
-0.00325295
-0.00325294
-0.00325122
-0.00325121
-0.00324904
-0.00324903
-0.00324633
-0.00324632
-0.00324301
-0.003243
-0.003239
-0.00323899
-0.00323423
-0.00323421
-0.00322863
-0.00322861
-0.00322215
-0.00322214
-0.00321477
-0.00321476
-0.00320648
-0.00320646
-0.00319729
-0.00319728
-0.00318724
-0.00318723
-0.00317641
-0.0031764
-0.00316486
-0.00316485
-0.00315267
-0.00315266
-0.00313994
-0.00313993
-0.00312674
-0.00312673
-0.00311313
-0.00311313
-0.00309917
-0.00309916
-0.00308485
-0.00308485
-0.0030702
-0.00307019
-0.00305517
-0.00305517
-0.00303975
-0.00303974
-0.00302388
-0.00302387
-0.00300753
-0.00300752
-0.00299068
-0.00299067
-0.00297331
-0.00297331
-0.00295547
-0.00295546
-0.00293717
-0.00293716
-0.00291849
-0.00291848
-0.00289951
-0.00289951
-0.00288033
-0.00288033
-0.00286105
-0.00286105
-0.00284174
-0.00284174
-0.0028225
-0.0028225
-0.00280339
-0.00280339
-0.00278444
-0.00278443
-0.00276567
-0.00276567
-0.00274708
-0.00274708
-0.00272868
-0.00272867
-0.00271041
-0.00271041
-0.00269227
-0.00269227
-0.00267423
-0.00267423
-0.00265624
-0.00265624
-0.0026383
-0.0026383
-0.00262039
-0.00262039
-0.00260248
-0.00260248
-0.00258458
-0.00258458
-0.00256666
-0.00256666
-0.00254872
-0.00254872
-0.00253075
-0.00253075
-0.00251272
-0.00251272
-0.00249461
-0.00249461
-0.0024764
-0.0024764
-0.00245805
-0.00245805
-0.00243954
-0.00243954
-0.00242084
-0.00242084
-0.00240192
-0.00240192
-0.00238277
-0.00238277
-0.00236338
-0.00236338
-0.00234373
-0.00234373
-0.00232381
-0.00232381
-0.00230362
-0.00230362
-0.00228316
-0.00228316
-0.00226244
-0.00226244
-0.00224145
-0.00224145
-0.0022202
-0.0022202
-0.00219869
-0.00219869
-0.00217694
-0.00217694
-0.00215497
-0.00215497
-0.00213278
-0.00213278
-0.00211042
-0.00211042
-0.00208791
-0.00208791
-0.00206528
-0.00206528
-0.00204256
-0.00204256
-0.00201979
-0.00201979
-0.001997
-0.001997
-0.00197419
-0.00197419
-0.0019514
-0.0019514
-0.00192862
-0.00192862
-0.00190584
-0.00190584
-0.00188305
-0.00188305
-0.00186024
-0.00186024
-0.00183739
-0.00183739
-0.00181449
-0.00181449
-0.00179152
-0.00179152
-0.00176851
-0.00176851
-0.00174546
-0.00174546
-0.00172243
-0.00172243
-0.00169946
-0.00169946
-0.00167662
-0.00167662
-0.00165398
-0.00165398
-0.00163164
-0.00163164
-0.00160964
-0.00160964
-0.00158811
-0.00158811
-0.00156702
-0.00156702
-0.00154655
-0.00154655
-0.00152658
-0.00152658
-0.00150731
-0.00150731
-0.00148852
-0.00148852
-0.00147051
-0.00147051
-0.00145288
-0.00145288
-0.00143608
-0.00143608
-0.00141947
-0.00141947
-0.00140379
-0.00140379
-0.001388
-0.001388
-0.00137334
-0.00137334
-0.00135813
-0.00135813
-0.00134442
-0.00134442
-0.00132954
-0.00132954
-0.00131685
-0.00131685
-0.00130215
-0.00130215
-0.00129081
-0.00129081
-0.00127627
-0.00127627
-0.00126703
-0.00126703
-0.00125279
-0.00125279
-0.00124688
-0.00124688
-0.00123309
-0.00123309
-0.00122938
-0.00122938
-0.0012189
-0.0012189
-0.00121696
-0.00121696
-0.0012118
-0.0012118
-0.00121726
-0.00121726
-0.00121901
-0.00121901
-0.00122266
-0.00122266
-0.00122828
-0.00122828
-0.00123545
-0.00123545
-0.00124424
-0.00124424
-0.00125414
-0.00125414
-0.00126521
-0.00126521
-0.00127697
-0.00127697
-0.00128951
-0.00128951
-0.00130244
-0.00130244
-0.00131587
-0.00131587
-0.00132957
-0.00132957
-0.00134366
-0.00134366
-0.00135799
-0.00135799
-0.00137271
-0.00137271
-0.00138775
-0.00138775
-0.00140324
-0.00140324
-0.00141915
-0.00141915
-0.00143559
-0.00143559
-0.00145253
-0.00145253
-0.00147005
-0.00147005
-0.00148815
-0.00148815
-0.00150686
-0.00150686
-0.00152618
-0.00152618
-0.00154612
-0.00154612
-0.00156662
-0.00156662
-0.00158769
-0.00158769
-0.00160923
-0.00160923
-0.00163122
-0.00163122
-0.00165358
-0.00165358
-0.00167621
-0.00167621
-0.00169906
-0.00169906
-0.00172202
-0.00172202
-0.00174507
-0.00174507
-0.00176809
-0.00176809
-0.00179111
-0.00179111
-0.00181408
-0.00181408
-0.00183697
-0.00183697
-0.00185984
-0.00185984
-0.00188264
-0.00188264
-0.00190543
-0.00190543
-0.00192821
-0.00192821
-0.00195099
-0.00195099
-0.00197378
-0.00197378
-0.00199659
-0.00199659
-0.00201938
-0.00201938
-0.00204215
-0.00204215
-0.00206487
-0.00206487
-0.0020875
-0.0020875
-0.00211
-0.00211
-0.00213238
-0.00213238
-0.00215456
-0.00215456
-0.00217652
-0.00217652
-0.00219828
-0.00219828
-0.00221979
-0.00221979
-0.00224105
-0.00224105
-0.00226203
-0.00226203
-0.00228275
-0.00228275
-0.00230321
-0.00230321
-0.00232341
-0.00232341
-0.00234332
-0.00234332
-0.00236298
-0.00236298
-0.00238237
-0.00238237
-0.00240153
-0.00240153
-0.00242043
-0.00242043
-0.00243912
-0.00243912
-0.00245765
-0.00245765
-0.002476
-0.002476
-0.00249422
-0.00249422
-0.00251231
-0.00251231
-0.00253033
-0.00253033
-0.00254832
-0.00254831
-0.00256624
-0.00256624
-0.00258416
-0.00258416
-0.00260207
-0.00260207
-0.00261999
-0.00261998
-0.00263791
-0.00263791
-0.00265586
-0.00265586
-0.00267384
-0.00267384
-0.00269187
-0.00269187
-0.00271001
-0.00271001
-0.00272826
-0.00272826
-0.00274667
-0.00274667
-0.00276527
-0.00276527
-0.00278402
-0.00278402
-0.00280296
-0.00280296
-0.00282211
-0.00282211
-0.00284134
-0.00284134
-0.00286062
-0.00286062
-0.00287992
-0.00287992
-0.0028991
-0.0028991
-0.00291806
-0.00291806
-0.00293675
-0.00293675
-0.00295508
-0.00295508
-0.00297293
-0.00297293
-0.00299027
-0.00299026
-0.00300713
-0.00300713
-0.00302348
-0.00302348
-0.00303933
-0.00303933
-0.00305476
-0.00305476
-0.0030698
-0.0030698
-0.00308445
-0.00308445
-0.00309877
-0.00309877
-0.00311275
-0.00311275
-0.00312634
-0.00312634
-0.00313952
-0.00313952
-0.00315228
-0.00315227
-0.00316445
-0.00316444
-0.00317598
-0.00317598
-0.00318683
-0.00318683
-0.00319687
-0.00319687
-0.00320606
-0.00320605
-0.00321436
-0.00321436
-0.00322174
-0.00322174
-0.00322821
-0.00322821
-0.00323381
-0.00323381
-0.00323859
-0.00323859
-0.0032426
-0.0032426
-0.00324592
-0.00324592
-0.00324863
-0.00324863
-0.00325081
-0.00325081
-0.00325254
-0.00325254
-0.00325389
-0.00325389
-0.00325494
-0.00325493
-0.00325573
-0.00325573
-0.00325632
-0.00325631
-0.00325675
-0.00325675
-0.00325706
-0.00325706
-0.00325729
-0.00325729
-0.00325744
-0.00325744
-0.00325755
-0.00325755
-0.00325762
-0.00325762
-0.00325768
-0.00325767
-0.00325771
-0.00325771
-0.00325774
-0.00325774
-0.00325777
-0.00325777
-0.0032578
-0.00325779
-0.00325783
-0.00325783
-0.00325787
-0.00325787
-0.00325793
-0.00325793
-0.003258
-0.003258
-0.00325809
-0.00325809
-0.0032582
-0.0032582
-0.00325834
-0.00325834
-0.0032585
-0.00325849
-0.00325868
-0.00325868
-0.00325888
-0.00325888
-0.00325911
-0.00325911
-0.00325935
-0.00325935
-0.0032596
-0.0032596
-0.00325986
-0.00325986
-0.00326012
-0.00326012
-0.00326038
-0.00326037
-0.00326061
-0.00326061
-0.00326083
-0.00326082
-0.00326101
-0.00326101
-0.00326116
-0.00326116
-0.00326127
-0.00326127
-0.00326133
-0.00326133
-0.00326131
-0.0032613
-0.00326118
-0.00326118
-0.00326093
-0.00326093
-0.00326051
-0.00326051
-0.00325982
-0.00325981
-0.00325873
-0.00325872
-0.00325704
-0.00325704
-0.00325445
-0.00325444
-0.00325052
-0.00325052
-0.00324465
-0.00324465
-0.00323605
-0.00323605
-0.0032238
-0.00322379
-0.00320658
-0.00320658
-0.00318315
-0.00318314
-0.003152
-0.003152
-0.00311156
-0.00311156
-0.00306058
-0.00306058
-0.00299861
-0.00299861
-0.0029246
-0.0029246
-0.00283827
-0.00283827
-0.00274146
-0.00274146
-0.00263548
-0.00263548
-0.00252232
-0.00252231
-0.00240466
-0.00240466
-0.00228572
-0.00228571
-0.00216792
-0.00216792
-0.00205367
-0.00205367
-0.0019466
-0.0019466
-0.00184785
-0.00184785
-0.0017572
-0.0017572
-0.00167627
-0.00167626
-0.00160514
-0.00160513
-0.00154232
-0.00154232
-0.00148694
-0.00148694
-0.00143822
-0.00143822
-0.00139541
-0.00139541
-0.0013573
-0.0013573
-0.00132293
-0.00132293
-0.00129182
-0.00129181
-0.0012637
-0.0012637
-0.00123781
-0.00123781
-0.00121378
-0.00121378
-0.00119176
-0.00119176
-0.00117107
-0.00117106
-0.00115127
-0.00115127
-0.00113234
-0.00113234
-0.00111389
-0.00111388
-0.00109534
-0.00109534
-0.00107661
-0.00107661
-0.00105729
-0.00105729
-0.00103687
-0.00103687
-0.00101556
-0.00101556
-0.000992857
-0.000992854
-0.000968273
-0.00096827
-0.000942045
-0.000942042
-0.000913738
-0.000913736
-0.000882615
-0.000882613
-0.000849132
-0.000849129
-0.000813637
-0.000813634
-0.000775771
-0.000775769
-0.000736242
-0.00073624
-0.000696024
-0.000696022
-0.000656114
-0.000656112
-0.000617298
-0.000617296
-0.00058057
-0.000580568
-0.000547375
-0.000547372
-0.000518016
-0.000518014
-0.000493029
-0.000493027
-0.000472718
-0.000472716
-0.000456668
-0.000456665
-0.00044472
-0.000444719
-0.000436377
-0.000436372
-0.000430996
-0.000431006
-0.000427985
-0.000427953
-0.000427021
-0.000427004
-0.000428033
-0.00042806
-0.00043107
-0.000431078
-0.000436533
-0.000436545
-0.000444878
-0.000444889
-0.000456804
-0.000456816
-0.000473254
-0.000473266
-0.00049471
-0.000494722
-0.000521899
-0.000521911
-0.000555924
-0.000555935
-0.000596995
-0.000597007
-0.000645992
-0.000646004
-0.000704128
-0.000704139
-0.000772103
-0.000772115
-0.000850621
-0.000850633
-0.000937973
-0.000937986
-0.00103147
-0.00103148
-0.00112838
-0.00112839
-0.00121934
-0.00121937
-0.00129229
-0.0012923
-0.00134965
-0.00134951
-0.00135616
-0.0013561
-0.00130559
-0.00130573
-0.0012186
-0.00121873
-0.00108949
-0.00108961
-0.000933314
-0.000933435
-0.000765039
-0.00076516
-0.000600481
-0.000600602
-0.000455539
-0.00045566
-0.000338246
-0.000338367
-0.000250662
-0.000250783
-0.000189886
-0.000190007
-0.000150085
-0.000150206
-0.000124687
-0.000124809
-0.000108088
-0.000108209
-9.65876e-05
-9.67087e-05
-8.76009e-05
-8.77221e-05
-7.95798e-05
-7.9701e-05
-7.19141e-05
-7.20353e-05
-6.45785e-05
-6.46998e-05
-5.75262e-05
-5.76474e-05
-5.05533e-05
-5.06745e-05
-4.37013e-05
-4.38226e-05
-3.71621e-05
-3.72836e-05
-3.10919e-05
-3.12133e-05
-2.55926e-05
-2.5714e-05
-2.07939e-05
-2.09154e-05
-1.68118e-05
-1.69333e-05
-1.36062e-05
-1.37276e-05
-1.10247e-05
-1.11463e-05
-8.88258e-06
-9.00413e-06
-6.97966e-06
-7.10122e-06
-5.08839e-06
-5.20993e-06
-3.0599e-06
-3.18141e-06
-8.64087e-07
-9.85603e-07
1.46878e-06
1.34721e-06
3.89126e-06
3.76967e-06
6.32299e-06
6.2014e-06
8.61245e-06
8.49086e-06
1.06098e-05
1.04882e-05
1.22468e-05
1.21252e-05
1.35149e-05
1.33933e-05
1.44763e-05
1.43546e-05
1.52756e-05
1.51539e-05
1.60328e-05
1.59112e-05
1.67891e-05
1.66675e-05
1.75482e-05
1.74265e-05
1.83033e-05
1.81816e-05
1.90315e-05
1.89098e-05
1.96803e-05
1.95587e-05
2.01791e-05
2.00575e-05
2.04804e-05
2.03587e-05
2.06066e-05
2.04849e-05
2.06358e-05
2.05141e-05
2.06355e-05
2.05138e-05
2.06335e-05
2.05116e-05
2.06331e-05
2.05111e-05
2.06333e-05
2.0511e-05
2.06333e-05
2.0511e-05
2.06333e-05
2.0511e-05
2.06335e-05
2.0511e-05
2.0634e-05
2.0511e-05
2.06324e-05
2.0511e-05
2.0625e-05
2.0512e-05
2.06306e-05
2.05282e-05
2.07181e-05
2.0624e-05
-0.0012118
-0.0012118
-0.00121695
-0.00121695
-0.00121889
-0.00121889
-0.00122939
-0.00122939
-0.00123309
-0.00123309
-0.00124687
-0.00124687
-0.0012528
-0.0012528
-0.00126703
-0.00126703
-0.00127627
-0.00127627
-0.00129081
-0.00129081
-0.00130215
-0.00130215
-0.00131685
-0.00131685
-0.00132955
-0.00132955
-0.00134442
-0.00134442
-0.00135813
-0.00135813
-0.00137334
-0.00137334
-0.001388
-0.001388
-0.00140379
-0.00140379
-0.00141946
-0.00141946
-0.00143609
-0.00143609
-0.00145288
-0.00145288
-0.00147051
-0.00147051
-0.00148852
-0.00148852
-0.0015073
-0.0015073
-0.00152657
-0.00152657
-0.00154655
-0.00154655
-0.00156702
-0.00156702
-0.00158811
-0.00158811
-0.00160964
-0.00160964
-0.00163163
-0.00163163
-0.00165398
-0.00165398
-0.00167663
-0.00167663
-0.00169947
-0.00169947
-0.00172243
-0.00172243
-0.00174547
-0.00174547
-0.0017685
-0.0017685
-0.00179151
-0.00179151
-0.00181449
-0.00181449
-0.00183738
-0.00183738
-0.00186025
-0.00186025
-0.00188305
-0.00188305
-0.00190584
-0.00190584
-0.00192862
-0.00192862
-0.0019514
-0.0019514
-0.00197419
-0.00197419
-0.001997
-0.001997
-0.00201979
-0.00201979
-0.00204256
-0.00204256
-0.00206527
-0.00206527
-0.00208791
-0.00208791
-0.00211041
-0.00211041
-0.00213279
-0.00213279
-0.00215497
-0.00215497
-0.00217693
-0.00217693
-0.00219869
-0.00219869
-0.0022202
-0.0022202
-0.00224146
-0.00224146
-0.00226244
-0.00226244
-0.00228316
-0.00228316
-0.00230361
-0.00230361
-0.00232382
-0.00232382
-0.00234373
-0.00234373
-0.00236339
-0.00236339
-0.00238278
-0.00238278
-0.00240193
-0.00240193
-0.00242083
-0.00242083
-0.00243953
-0.00243953
-0.00245806
-0.00245806
-0.0024764
-0.0024764
-0.00249463
-0.00249463
-0.00251271
-0.00251271
-0.00253074
-0.00253073
-0.00254872
-0.00254872
-0.00256665
-0.00256665
-0.00258456
-0.00258456
-0.00260247
-0.00260247
-0.00262039
-0.00262039
-0.00263832
-0.00263832
-0.00265626
-0.00265626
-0.00267424
-0.00267424
-0.00269228
-0.00269228
-0.00271042
-0.00271042
-0.00272867
-0.00272867
-0.00274708
-0.00274708
-0.00276568
-0.00276568
-0.00278443
-0.00278443
-0.00280337
-0.00280337
-0.00282251
-0.00282251
-0.00284174
-0.00284174
-0.00286102
-0.00286102
-0.00288033
-0.00288033
-0.00289951
-0.00289951
-0.00291847
-0.00291847
-0.00293715
-0.00293715
-0.00295549
-0.00295549
-0.00297333
-0.00297333
-0.00299067
-0.00299067
-0.00300754
-0.00300754
-0.00302389
-0.00302388
-0.00303973
-0.00303973
-0.00305516
-0.00305516
-0.00307021
-0.00307021
-0.00308486
-0.00308486
-0.00309917
-0.00309917
-0.00311316
-0.00311316
-0.00312674
-0.00312674
-0.00313993
-0.00313993
-0.00315268
-0.00315268
-0.00316485
-0.00316485
-0.00317638
-0.00317638
-0.00318723
-0.00318723
-0.00319728
-0.00319728
-0.00320646
-0.00320646
-0.00321477
-0.00321477
-0.00322215
-0.00322215
-0.00322861
-0.00322861
-0.00323422
-0.00323422
-0.003239
-0.003239
-0.00324301
-0.003243
-0.00324633
-0.00324633
-0.00324904
-0.00324904
-0.00325122
-0.00325122
-0.00325294
-0.00325294
-0.0032543
-0.0032543
-0.00325534
-0.00325534
-0.00325613
-0.00325613
-0.00325672
-0.00325672
-0.00325716
-0.00325715
-0.00325747
-0.00325747
-0.00325769
-0.00325769
-0.00325785
-0.00325785
-0.00325796
-0.00325796
-0.00325803
-0.00325803
-0.00325808
-0.00325808
-0.00325812
-0.00325812
-0.00325815
-0.00325815
-0.00325817
-0.00325817
-0.0032582
-0.0032582
-0.00325823
-0.00325823
-0.00325828
-0.00325828
-0.00325833
-0.00325833
-0.00325841
-0.00325841
-0.0032585
-0.0032585
-0.00325861
-0.00325861
-0.00325874
-0.00325874
-0.0032589
-0.0032589
-0.00325908
-0.00325908
-0.00325929
-0.00325929
-0.00325951
-0.00325951
-0.00325976
-0.00325975
-0.00326001
-0.00326001
-0.00326027
-0.00326027
-0.00326053
-0.00326053
-0.00326078
-0.00326078
-0.00326102
-0.00326102
-0.00326123
-0.00326123
-0.00326142
-0.00326141
-0.00326157
-0.00326157
-0.00326168
-0.00326166
-0.00326174
-0.00326177
-0.00326171
-0.00326174
-0.00326157
-0.00326157
-0.00326133
-0.00326134
-0.0032609
-0.00326091
-0.00326021
-0.00326022
-0.00325912
-0.00325912
-0.00325744
-0.00325744
-0.00325484
-0.00325484
-0.00325091
-0.00325092
-0.00324505
-0.00324505
-0.00323644
-0.00323645
-0.00322419
-0.0032242
-0.00320697
-0.00320698
-0.00318354
-0.00318355
-0.00315239
-0.0031524
-0.00311196
-0.00311196
-0.00306097
-0.00306098
-0.002999
-0.00299901
-0.00292499
-0.002925
-0.00283867
-0.00283867
-0.00274185
-0.00274186
-0.00263587
-0.00263588
-0.00252271
-0.00252271
-0.00240506
-0.00240506
-0.00228611
-0.00228612
-0.00216831
-0.00216832
-0.00205406
-0.00205407
-0.00194699
-0.001947
-0.00184824
-0.00184825
-0.00175759
-0.0017576
-0.00167666
-0.00167667
-0.00160553
-0.00160554
-0.00154271
-0.00154272
-0.00148733
-0.00148734
-0.00143861
-0.00143862
-0.0013958
-0.00139581
-0.00135769
-0.0013577
-0.00132332
-0.00132333
-0.00129221
-0.00129222
-0.00126409
-0.0012641
-0.0012382
-0.00123821
-0.00121417
-0.00121418
-0.00119215
-0.00119216
-0.00117146
-0.00117146
-0.00115166
-0.00115167
-0.00113273
-0.00113274
-0.00111428
-0.00111429
-0.00109573
-0.00109574
-0.001077
-0.00107701
-0.00105768
-0.00105769
-0.00103726
-0.00103727
-0.00101595
-0.00101596
-0.000993248
-0.000993257
-0.000968663
-0.000968672
-0.000942435
-0.000942445
-0.000914129
-0.000914138
-0.000883005
-0.000883015
-0.000849522
-0.000849531
-0.000814027
-0.000814036
-0.000776162
-0.000776171
-0.000736632
-0.000736641
-0.000696414
-0.000696423
-0.000656505
-0.000656514
-0.000617688
-0.000617698
-0.000580961
-0.00058097
-0.000547765
-0.000547774
-0.000518406
-0.000518415
-0.000493419
-0.000493429
-0.000473109
-0.000473118
-0.000457058
-0.000457067
-0.00044511
-0.00044512
-0.000436767
-0.000436776
-0.000431387
-0.000431396
-0.000428377
-0.000428384
-0.000427412
-0.00042742
-0.000428425
-0.000428433
-0.000431462
-0.00043147
-0.000436925
-0.000436933
-0.00044527
-0.000445278
-0.000457196
-0.000457204
-0.000473646
-0.000473653
-0.000495102
-0.00049511
-0.000522291
-0.000522298