/*--------------------------------*- C++ -*----------------------------------*\
| =========                 |                                                 |
| \\      /  F ield         | OpenFOAM: The Open Source CFD Toolbox           |
|  \\    /   O peration     | Version:  2106                                  |
|   \\  /    A nd           | Website:  www.openfoam.com                      |
|    \\/     M anipulation  |                                                 |
\*---------------------------------------------------------------------------*/
FoamFile
{
    version     2.0;
    format      ascii;
    arch        "LSB;label=32;scalar=64";
    class       volTensorField;
    location    "20000";
    object      grad(U);
}
// * * * * * * * * * * * * * * * * * * * * * * * * * * * * * * * * * * * * * //

dimensions      [0 0 -1 0 0 0 0];

internalField   nonuniform List<tensor> 
2560
(
(0 -3.47673e-25 0 49.4097 -4.03897e-28 7.93893e-14 0.0715269 0 7.10829e-17)
(0 -5.59562e-29 0 49.4097 0 9.48933e-14 0.0715269 -1.39893e-29 7.31266e-17)
(-3.60483e-17 5.12277e-31 0 49.4024 -2.6537e-12 3.16862e-14 0.2156 -3.28366e-15 1.59422e-16)
(0 0 4.84619e-32 49.4024 -1.55822e-15 8.02814e-15 0.2156 -4.45142e-18 2.35798e-17)
(-9.05495e-18 -1.3998e-25 -6.31169e-32 49.3951 3.27293e-32 3.15578e-15 0.296498 0 1.63598e-16)
(0 6.05922e-30 6.31169e-32 49.3951 8.89035e-16 4.00615e-15 0.296498 7.08489e-19 2.41754e-17)
(2.90367e-17 -2.02951e-30 -6.22122e-32 49.3876 9.9698e-13 3.0744e-15 0.300764 -1.18509e-14 1.68888e-16)
(0 1.99079e-30 6.22122e-32 49.3876 -3.51717e-16 4.04801e-15 0.300764 1.14222e-18 2.47804e-17)
(1.38082e-16 -9.81129e-30 1.22641e-31 49.38 -2.55174e-14 2.43785e-15 0.30509 -4.37697e-16 1.72932e-16)
(0 7.84903e-30 0 49.38 -2.68645e-16 4.08942e-15 0.30509 1.67717e-18 2.53954e-17)
(2.0597e-16 -7.4742e-30 6.04417e-32 49.3722 -4.81805e-14 2.21051e-15 0.309476 -1.6e-16 1.76418e-16)
(5.58938e-16 5.8024e-30 3.13405e-31 49.3722 -2.23205e-16 4.12992e-15 0.309476 2.41642e-18 2.60141e-17)
(4.34276e-17 -4.53416e-28 0 49.3639 -3.26139e-15 2.19569e-15 0.313922 -1.02962e-17 1.79873e-16)
(2.28746e-16 3.81283e-30 1.30249e-31 49.3639 -3.15775e-16 4.16893e-15 0.313922 3.01645e-18 2.66355e-17)
(-1.11882e-16 -2.23312e-29 5.87215e-32 49.3551 -2.23616e-16 2.21825e-15 0.318428 -7.1622e-19 1.83412e-16)
(4.47527e-16 -1.87909e-30 7.54081e-32 49.3551 -2.74751e-16 4.20631e-15 0.318428 3.72059e-18 2.72586e-17)
(3.94012e-16 -5.40178e-30 5.78799e-32 49.3454 -1.08174e-15 2.24182e-15 0.32299 -1.34359e-17 1.87039e-16)
(0 3.70431e-30 1.1576e-31 49.3454 -1.76392e-16 4.24237e-15 0.32299 4.39167e-18 2.78878e-17)
(-2.56932e-16 1.82561e-30 5.70503e-32 49.3341 -2.10385e-15 2.26847e-15 0.327606 -1.43137e-17 1.90762e-16)
(0 0 -5.70503e-32 49.3341 -1.25614e-16 4.27592e-15 0.327606 5.45751e-18 2.85027e-17)
(-1.772e-16 -5.49961e-30 -5.62327e-32 49.3206 -1.98504e-15 2.29753e-15 0.33227 -1.22283e-17 1.94589e-16)
(-2.53249e-16 8.99723e-30 0 49.3206 -8.22898e-17 4.30574e-15 0.33227 6.78226e-18 2.91066e-17)
(4.49223e-16 -1.23404e-29 -5.54267e-32 49.3038 -1.73756e-15 2.32558e-15 0.336974 -1.13496e-17 1.98522e-16)
(0 1.06419e-29 1.10853e-31 49.3038 -2.97011e-16 4.33096e-15 0.336974 7.71831e-18 2.96825e-17)
(2.46042e-16 -6.99293e-30 0 49.2824 -1.58394e-15 2.35052e-15 0.341706 -1.04557e-17 2.02555e-16)
(0 6.99293e-30 1.09265e-31 49.2824 -4.76769e-16 4.34954e-15 0.341706 8.07267e-18 3.02168e-17)
(-2.45381e-16 5.14486e-30 0 49.2545 -1.66741e-15 2.37134e-15 0.346452 -1.28567e-17 2.06694e-16)
(9.81524e-16 -1.72318e-30 1.59934e-31 49.2545 -4.4732e-16 4.36004e-15 0.346452 8.22717e-18 3.06998e-17)
(0 1.01909e-29 0 49.2179 -2.03362e-15 2.3853e-15 0.351193 -1.59903e-17 2.10929e-16)
(0 -1.01909e-29 0 49.2179 -2.72559e-16 4.36036e-15 0.351193 8.51061e-18 3.11065e-17)
(-2.92478e-16 3.37301e-30 0 49.1698 -2.06254e-15 2.39134e-15 0.355904 -1.36522e-17 2.15243e-16)
(1.16991e-15 -1.67414e-30 1.69563e-31 49.1698 -1.25648e-16 4.34795e-15 0.355904 1.01208e-17 3.14194e-17)
(0 1.32011e-29 0 49.1068 -1.85138e-15 2.38926e-15 0.360555 -1.33557e-17 2.19619e-16)
(-1.26611e-15 -1.32011e-29 -1.74575e-31 49.1068 -3.81584e-16 4.31963e-15 0.360555 1.20967e-17 3.16015e-17)
(0 9.75894e-30 0 49.0248 -1.93187e-15 2.3762e-15 0.365107 -1.52522e-17 2.24035e-16)
(-1.36366e-15 -9.75894e-30 -1.79708e-31 49.0248 -3.48751e-16 4.27217e-15 0.365107 1.26304e-17 3.16322e-17)
(1.35376e-15 -3.20636e-30 1.00199e-31 48.919 -2.03473e-15 2.34865e-15 0.369517 -1.53027e-17 2.28496e-16)
(-4.51255e-16 3.20636e-30 0 48.919 -8.74463e-17 4.20377e-15 0.369517 1.56238e-17 3.14927e-17)
(-4.98881e-16 6.20167e-30 1.97525e-31 48.7842 -1.98398e-15 2.30495e-15 0.373733 -1.49202e-17 2.3296e-16)
(-6.73198e-16 -1.10614e-29 -3.87839e-31 48.7842 -2.34933e-16 4.10957e-15 0.373733 1.78731e-17 3.11131e-17)
(0 1.24604e-29 9.7347e-32 48.6144 -1.93094e-15 2.24425e-15 0.377698 -1.49252e-17 2.37409e-16)
(0 -1.24604e-29 -9.7347e-32 48.6144 -3.63407e-16 3.98488e-15 0.377698 1.81829e-17 3.04741e-17)
(-4.41777e-16 1.63354e-31 0 48.4033 -2.24405e-15 2.16361e-15 0.381346 -2.03028e-17 2.41789e-16)
(0 4.60569e-30 0 48.4033 -3.52305e-16 3.82861e-15 0.381346 1.98485e-17 2.95562e-17)
(3.84084e-16 -1.34347e-29 0 48.1442 -3.12618e-15 2.05926e-15 0.38461 -2.94985e-17 2.46041e-16)
(0 1.51323e-29 9.45766e-32 48.1442 -4.12447e-16 3.63958e-15 0.38461 2.18524e-17 2.83377e-17)
(0 5.96615e-30 0 47.8306 -3.17607e-15 1.9287e-15 0.387419 -2.17087e-17 2.50123e-16)
(-1.97633e-15 -1.04408e-29 -2.12314e-31 47.8306 -4.05678e-16 3.41823e-15 0.387419 2.29009e-17 2.68232e-17)
(5.20649e-16 8.59105e-30 1.8377e-31 47.4562 -2.45962e-15 1.7762e-15 0.389702 -1.85452e-17 2.53952e-16)
(0 -1.02911e-29 -1.8377e-31 47.4562 -4.06011e-16 3.16435e-15 0.389702 2.55589e-17 2.49804e-17)
(-1.09491e-15 1.78901e-29 1.81136e-31 47.0154 -2.52274e-15 1.6046e-15 0.391391 -2.34008e-17 2.57559e-16)
(0 -1.44909e-29 -1.81136e-31 47.0154 -3.11671e-16 2.87595e-15 0.391391 2.81819e-17 2.27828e-17)
(1.72341e-15 -1.93831e-29 -1.7854e-31 46.5035 -2.79842e-15 1.41269e-15 0.392427 -2.37689e-17 2.60836e-16)
(4.59576e-15 1.57115e-29 6.3567e-31 46.5035 -1.36447e-16 2.55552e-15 0.392427 3.02309e-17 2.0272e-17)
(0 -1.12628e-29 -1.75981e-31 45.9173 -2.53844e-15 1.20512e-15 0.392759 -1.96082e-17 2.63696e-16)
(2.40662e-15 1.40785e-29 2.33675e-31 45.9173 -3.65454e-16 2.20765e-15 0.392759 3.36937e-17 1.74583e-17)
(6.28964e-16 1.07423e-30 1.73459e-31 45.2552 -2.22622e-15 9.87806e-16 0.392352 -1.90093e-17 2.66142e-16)
(0 -1.38767e-30 -1.73459e-31 45.2552 -5.75048e-16 1.84099e-15 0.392352 3.68411e-17 1.44586e-17)
(-1.3127e-15 6.66357e-31 0 44.5175 -2.27589e-15 7.64474e-16 0.391185 -2.10631e-17 2.68138e-16)
(-5.25081e-15 2.73556e-30 -4.85827e-31 44.5175 1.04234e-16 1.46611e-15 0.391185 3.85152e-17 1.13235e-17)
(-6.83763e-16 4.39792e-30 0 43.7063 -2.17386e-15 5.39571e-16 0.389255 -1.7731e-17 2.69729e-16)
(-3.49401e-15 0 -2.46938e-31 43.7063 5.8711e-16 1.08939e-15 0.389255 4.26634e-17 8.10635e-18)
(0 1.32885e-29 8.30534e-32 42.8257 -2.23155e-15 3.16673e-16 0.386575 -2.27328e-17 2.70803e-16)
(-2.84458e-15 -1.32885e-29 -3.33581e-31 42.8257 2.02889e-16 7.14312e-16 0.386575 4.80988e-17 4.81065e-18)
(0 -1.04785e-29 0 41.8816 -2.33394e-15 1.01895e-16 0.383178 -2.01461e-17 2.71302e-16)
(2.95376e-15 1.04785e-29 1.33406e-30 41.8816 -2.81963e-16 3.38759e-16 0.383178 5.10984e-17 1.55659e-18)
(-7.65593e-16 -8.79756e-31 0 40.8812 -1.88221e-15 -9.65617e-17 0.37911 -1.4914e-17 2.7141e-16)
(0 2.58207e-30 0 40.8812 -8.8753e-16 -1.36882e-29 0.37911 5.01349e-17 0)
(-7.92549e-16 1.18821e-29 7.95332e-32 39.833 -1.65206e-15 -2.76113e-16 0.374428 -1.63507e-17 2.71114e-16)
(0 -1.01803e-29 -7.95332e-32 39.833 -8.52283e-16 -3.24716e-16 0.374428 5.14096e-17 1.58502e-18)
(-8.19255e-16 4.20837e-30 0 38.746 -2.50728e-15 -4.39442e-16 0.369202 -3.18846e-17 2.7035e-16)
(-3.27702e-15 0 -3.31249e-31 38.746 1.66107e-16 -6.16402e-16 0.369202 5.58282e-17 4.57968e-18)
(2.23763e-15 -6.64538e-30 0 37.6299 -3.36258e-15 -5.89099e-16 0.363504 -3.36057e-17 2.69173e-16)
(-1.39197e-15 4.94526e-30 0 37.6299 7.77156e-16 -8.70959e-16 0.363504 6.42087e-17 7.27059e-18)
(8.71733e-16 -9.01206e-30 -1.52324e-31 36.4939 -3.49656e-15 -7.22023e-16 0.357412 -3.54847e-17 2.67673e-16)
(0 7.31157e-30 1.52324e-31 36.4939 3.91682e-16 -1.09264e-15 0.357412 7.09686e-17 9.70673e-18)
(-8.97423e-16 6.50544e-30 0 35.3472 -3.66868e-15 -8.3514e-16 0.351002 -3.80649e-17 2.65803e-16)
(-1.35235e-15 -2.40226e-30 -7.50706e-32 35.3472 -1.68696e-16 -1.2825e-15 0.351002 7.29137e-17 1.18948e-17)
(0 4.73566e-30 0 34.1982 -3.226e-15 -9.26929e-16 0.344348 -2.74571e-17 2.63681e-16)
(0 -9.47132e-30 -1.47989e-31 34.1982 -2.48578e-16 -1.44235e-15 0.344348 7.67673e-17 1.38241e-17)
(-9.47544e-16 4.03691e-30 0 33.0546 -2.75854e-15 -9.95762e-16 0.33752 -2.9466e-17 2.61372e-16)
(3.79017e-15 -2.33389e-30 1.68068e-31 33.0546 5.59262e-16 -1.57112e-15 0.33752 8.26688e-17 1.55173e-17)
(1.29503e-15 -1.15022e-29 -2.15666e-31 31.9231 -2.94863e-15 -1.04701e-15 0.33058 -3.22691e-17 2.58928e-16)
(2.59267e-15 1.15022e-29 4.53998e-31 31.9231 1.06817e-15 -1.66868e-15 0.33058 8.8546e-17 1.69048e-17)
(9.95836e-16 2.83206e-30 0 30.8094 -3.38051e-15 -1.08356e-15 0.323586 -3.95665e-17 2.56159e-16)
(-3.98334e-15 -9.06988e-30 -3.06551e-31 30.8094 1.18559e-15 -1.73769e-15 0.323586 9.11117e-17 1.80288e-17)
(1.01926e-15 -3.93901e-30 0 29.7184 -3.55239e-15 -1.10417e-15 0.316589 -3.69442e-17 2.5328e-16)
(0 2.23497e-30 0 29.7184 1.48471e-15 -1.7813e-15 0.316589 9.86826e-17 1.8876e-17)
(-1.04219e-15 -4.96858e-31 0 28.6539 -2.86388e-15 -1.10884e-15 0.30963 -2.55678e-17 2.5047e-16)
(0 4.40588e-30 0 28.6539 7.13131e-16 -1.80744e-15 0.30963 1.03712e-16 1.95033e-17)
(1.06463e-15 2.63782e-30 0 27.6189 -2.70313e-15 -1.10171e-15 0.302747 -3.44358e-17 2.47567e-16)
(4.25854e-15 -2.17137e-30 9.22872e-32 27.6189 2.72265e-16 -1.82302e-15 0.302747 1.08189e-16 2.00043e-17)
(1.20485e-15 -2.14024e-30 0 26.6158 -3.14647e-15 -1.0888e-15 0.29597 -3.6363e-17 2.44669e-16)
(4.34633e-15 2.14024e-30 2.25446e-31 26.6158 6.55559e-16 -1.82717e-15 0.29597 1.15561e-16 2.04227e-17)
(-1.10804e-15 1.70572e-30 0 25.6461 -3.1627e-15 -1.06515e-15 0.289321 -3.58177e-17 2.41767e-16)
(0 0 0 25.6461 4.03193e-16 -1.8161e-15 0.289321 1.19267e-16 2.06844e-17)
(-1.12902e-15 -3.72866e-31 0 24.7106 -2.93354e-15 -1.03359e-15 0.282821 -3.20833e-17 2.38961e-16)
(0 4.15867e-30 0 24.7106 4.36601e-17 -1.79424e-15 0.282821 1.23504e-16 2.07664e-17)
(1.15378e-15 -2.04953e-30 0 23.81 -2.48001e-15 -1.00337e-15 0.276485 -2.6135e-17 2.362e-16)
(0 2.04953e-30 1.28096e-31 23.81 2.77851e-16 -1.7671e-15 0.276485 1.31381e-16 2.07804e-17)
(-2.30681e-15 -3.10186e-31 -6.31299e-32 22.9442 -1.78274e-15 -9.69633e-16 0.270322 -1.62836e-17 2.33386e-16)
(0 6.06047e-30 0 22.9442 3.40874e-16 -1.73482e-15 0.270322 1.37468e-16 2.07324e-17)
(-1.12095e-15 1.19472e-29 0 22.113 -1.29554e-15 -9.3079e-16 0.264339 -1.50342e-17 2.30679e-16)
(-4.75661e-15 -9.95601e-30 -2.75787e-31 22.113 4.65788e-16 -1.69597e-15 0.264339 1.40082e-16 2.06143e-17)
(-1.2083e-15 -1.00663e-29 -1.22666e-31 21.3159 -1.38309e-15 -8.95246e-16 0.258543 -1.89239e-17 2.28019e-16)
(3.72831e-15 1.37386e-29 2.7275e-31 21.3159 5.27711e-16 -1.65296e-15 0.258543 1.4378e-16 2.03936e-17)
(0 1.35417e-29 1.20908e-31 20.5521 -1.36508e-15 -8.58562e-16 0.252934 -1.50231e-17 2.25472e-16)
(0 -1.35417e-29 -1.20908e-31 20.5521 -6.78407e-16 -1.61069e-15 0.252934 1.46572e-16 2.01553e-17)
(-2.31876e-15 7.4307e-30 0 19.8206 -1.09866e-15 -8.16387e-16 0.247512 -1.27021e-17 2.23062e-16)
(6.05471e-15 -5.72042e-30 2.07293e-31 19.8206 -9.4474e-16 -1.57131e-15 0.247512 1.50412e-16 1.99312e-17)
(2.52644e-15 -3.77979e-29 0 19.1205 -2.67227e-28 -7.75768e-16 0.242278 0 2.20755e-16)
(5.05288e-15 5.63843e-30 2.05219e-31 19.1205 -1.19219e-15 -1.53024e-15 0.242278 1.54858e-16 1.97442e-17)
(0 -3.70508e-30 1.15784e-31 18.4507 -2.58702e-16 -7.30967e-16 0.237227 -7.38208e-18 2.18434e-16)
(0 3.70508e-30 0 18.4507 -2.84704e-15 -1.49225e-15 0.237227 1.51984e-16 1.94552e-17)
(7.5801e-16 -1.94761e-30 0 17.8099 -1.92362e-15 -6.83963e-16 0.232357 -4.36021e-17 2.16372e-16)
(-2.05588e-15 5.47796e-30 0 17.8099 -1.29634e-15 -1.46044e-15 0.232357 1.47378e-16 1.9328e-17)
(-2.62929e-15 1.06061e-29 5.62443e-32 17.1971 -3.77573e-15 -6.4815e-16 0.227663 -5.75056e-17 2.14388e-16)
(5.25858e-15 -1.07989e-29 8.67359e-32 17.1971 1.48395e-15 -1.42449e-15 0.227663 1.52834e-16 1.91803e-17)
(-1.33107e-15 3.4791e-30 0 16.611 -4.14105e-15 -6.16535e-16 0.22314 -5.48664e-17 2.12355e-16)
(0 0 0 16.611 1.65426e-15 -1.38772e-15 0.22314 1.6065e-16 1.89254e-17)
(-1.34716e-15 -4.32696e-32 0 16.0505 -4.11118e-15 -5.8651e-16 0.218785 -5.83618e-17 2.1053e-16)
(5.38863e-15 3.49719e-30 1.95396e-31 16.0505 1.75579e-15 -1.35811e-15 0.218785 1.65871e-16 1.87371e-17)
(-1.36292e-15 5.15206e-30 5.38604e-32 15.5143 -4.44337e-15 -5.57823e-16 0.21459 -6.5821e-17 2.08875e-16)
(0 -1.72353e-30 -5.38604e-32 15.5143 8.64773e-16 -1.33136e-15 0.21459 1.77453e-16 1.86584e-17)
(-2.75674e-15 8.5045e-30 1.06177e-31 15.0014 -5.16615e-15 -5.30863e-16 0.21055 -8.07054e-17 2.07393e-16)
(-5.51348e-15 -5.09649e-30 -2.97379e-31 15.0014 1.62971e-15 -1.30113e-15 0.21055 1.78577e-16 1.85332e-17)
(-2.78704e-15 -6.63578e-30 -5.23275e-32 14.5106 -5.77656e-15 -5.11075e-16 0.20666 -8.54285e-17 2.05752e-16)
(1.11482e-14 8.37241e-30 3.78238e-31 14.5106 4.00142e-15 -1.26954e-15 0.20666 1.93162e-16 1.83421e-17)
(-4.22514e-15 1.83432e-29 5.15775e-32 14.0408 -4.83472e-15 -4.93047e-16 0.202915 -5.53945e-17 2.03972e-16)
(-5.63352e-15 -1.32039e-29 -2.90155e-31 14.0408 2.75049e-15 -1.23527e-15 0.202915 2.18269e-16 1.81612e-17)
(-1.42296e-15 -1.12991e-29 -1.01677e-31 13.5911 -3.65004e-15 -4.67308e-16 0.199308 -5.26136e-17 2.02189e-16)
(5.69184e-15 1.46414e-29 2.86722e-31 13.5911 1.16484e-15 -1.2061e-15 0.199308 2.24377e-16 1.78724e-17)
(1.43727e-15 -3.31655e-30 -5.01097e-32 13.1604 -4.33824e-15 1.56318e-15 0.195833 -7.78319e-17 2.01005e-16)
(0 1.60351e-30 5.01097e-32 13.1604 1.25454e-15 -1.19215e-15 0.195833 2.33369e-16 1.78235e-17)
(0 -1.10637e-29 0 12.7479 -4.52122e-15 4.03435e-15 0.192487 -5.97695e-17 1.82077e-16)
(5.8053e-15 1.10637e-29 1.80535e-31 12.7479 1.50699e-15 -1.17204e-15 0.192487 2.47589e-16 1.7974e-17)
(0 -4.67362e-30 0 12.3525 -3.22341e-15 4.39236e-15 0.189262 -3.97097e-17 9.54379e-17)
(5.86052e-15 4.67362e-30 1.78488e-31 12.3525 1.09921e-15 -1.14982e-15 0.189262 2.56702e-16 1.77286e-17)
(-1.72887e-15 7.67773e-30 -9.59716e-32 11.9735 -2.4781e-15 4.30822e-15 0.186155 -3.79808e-17 6.82718e-17)
(4.18591e-15 -4.60664e-30 1.76282e-31 11.9735 8.3121e-16 -1.14033e-15 0.186155 2.61294e-16 1.78086e-17)
(0 1.21083e-29 -9.45961e-32 11.61 -2.73623e-15 4.30047e-15 0.183159 -4.9144e-17 6.85355e-17)
(0 -1.21083e-29 9.45961e-32 11.61 3.53906e-16 -1.12355e-15 0.183159 2.71904e-16 7.54172e-17)
(-3.01027e-15 4.93421e-30 -5.98917e-32 11.2613 -2.95874e-15 4.23208e-15 0.180272 -4.6327e-17 6.80485e-17)
(0 -1.49184e-30 0 11.2613 -2.93286e-16 -1.11194e-15 0.180272 2.69106e-16 1.61745e-16)
(0 -1.17637e-29 0 10.9267 -2.86362e-15 4.13819e-15 0.177487 -4.74462e-17 6.74462e-17)
(6.07213e-15 1.17637e-29 4.1899e-32 10.9267 5.06833e-16 -1.10546e-15 0.177487 2.68786e-16 2.47891e-16)
(0 2.89877e-30 0 10.6053 -3.01955e-15 4.05316e-15 0.1748 -5.29017e-17 6.71969e-17)
(6.12288e-15 -1.44939e-30 -9.05867e-32 10.6053 6.99129e-16 -1.0983e-15 0.1748 2.80531e-16 3.19158e-16)
(-1.54321e-15 1.02388e-30 -3.72173e-32 10.2967 -2.04626e-15 3.99648e-15 0.172208 -1.72412e-17 6.74978e-17)
(0 1.42861e-30 0 10.2967 1.35763e-16 -1.09309e-15 0.172208 2.8593e-16 3.14721e-16)
(1.55551e-15 3.90662e-30 3.93885e-32 10.0001 -9.1535e-16 3.98699e-15 0.169705 -1.40341e-17 6.88383e-17)
(0 -5.63255e-30 0 10.0001 -3.41118e-17 -1.08778e-15 0.169705 2.91959e-16 3.10317e-16)
(1.5627e-15 0 8.67472e-32 9.71495 -1.74131e-15 3.94734e-15 0.167289 -4.66071e-17 6.80896e-17)
(0 0 0 9.71495 -4.30807e-16 -1.085e-15 0.167289 3.08375e-16 3.05705e-16)
(0 0 0 9.44074 -3.84736e-15 3.85233e-15 0.164956 -8.91053e-17 6.74868e-17)
(0 0 0 9.44074 -4.0291e-17 -1.08369e-15 0.164956 3.16503e-16 3.01188e-16)
(1.37206e-15 7.39013e-31 7.46079e-32 9.17693 -5.17158e-15 3.7289e-15 0.162702 -9.55992e-17 6.56449e-17)
(-3.03645e-15 2.69691e-30 0 9.17693 1.35832e-15 -1.08246e-15 0.162702 3.19953e-16 2.9648e-16)
(-1.6029e-15 4.38578e-30 -4.90171e-32 8.92302 -3.67678e-15 3.67721e-15 0.160523 -3.71722e-17 6.75776e-17)
(0 -2.65826e-30 0 8.92302 1.6565e-15 -1.07616e-15 0.160523 3.38085e-16 2.91322e-16)
(1.61433e-15 -4.34668e-30 5.13638e-32 8.67854 -2.28815e-15 3.6837e-15 0.158417 -4.69934e-17 6.7808e-17)
(-6.45732e-15 2.62016e-30 0 8.67854 -5.15519e-17 -1.06746e-15 0.158417 3.47381e-16 2.86143e-16)
(1.45388e-15 -7.74781e-30 0 8.44304 -3.28208e-15 3.58291e-15 0.15638 -7.55906e-17 6.57719e-17)
(-7.9563e-15 7.74781e-30 -1.61413e-31 8.44304 -3.81633e-16 -1.05866e-15 0.15638 3.41201e-16 2.80831e-16)
(-1.63673e-15 9.3694e-30 -2.15061e-31 8.2161 -2.99641e-15 3.54751e-15 0.154411 -3.74849e-17 6.84454e-17)
(1.02278e-14 -5.09117e-30 0 8.2161 1.17334e-15 -1.05888e-15 0.154411 3.46999e-16 2.755e-16)
(1.64771e-15 7.75135e-31 -1.7705e-31 7.99734 -1.71991e-15 3.59726e-15 0.152504 -2.84583e-17 6.96217e-17)
(6.59084e-15 -7.52731e-30 2.35228e-31 7.99734 -1.59857e-16 -1.06062e-15 0.152504 3.6364e-16 2.69727e-16)
(0 -2.47314e-30 0 7.78636 -2.20943e-15 3.55394e-15 0.150659 -5.77816e-17 6.87516e-17)
(0 4.94628e-30 -1.54571e-31 7.78636 -5.78789e-16 -1.05842e-15 0.150659 3.49437e-16 2.6381e-16)
(-1.66925e-15 -1.82307e-29 1.65455e-31 7.58283 -1.22333e-15 3.4804e-15 0.148873 -1.20814e-17 6.87348e-17)
(6.677e-15 1.46262e-29 -3.8089e-31 7.58283 2.22736e-16 -1.04851e-15 0.148873 3.5893e-16 2.57365e-16)
(-1.67982e-15 -2.383e-44 -2.15078e-31 7.38641 1.71713e-28 3.52916e-15 0.147143 1.57772e-30 7.27341e-17)
(-9.42454e-15 -2.40276e-30 0 7.38641 -2.61807e-15 -1.02571e-15 0.147143 3.66508e-16 2.50596e-16)
(1.69026e-15 -6.46632e-30 2.15541e-31 7.19676 2.44343e-15 3.56353e-15 0.145467 -4.4655e-17 7.2156e-17)
(6.76105e-15 4.73664e-30 -1.4802e-31 7.19676 -3.77985e-15 -1.00658e-15 0.145467 3.53446e-16 2.43799e-16)
(-4.32885e-15 1.10636e-29 -2.15333e-31 7.01361 2.70234e-15 3.59981e-15 0.143843 -5.47683e-17 7.6372e-17)
(9.4306e-15 -9.3375e-30 1.45898e-31 7.01361 -3.1006e-15 -9.99899e-16 0.143843 3.56027e-16 2.36864e-16)
(-1.71078e-15 -5.77551e-31 -7.18026e-32 6.83665 2.48097e-15 3.70189e-15 0.142269 -5.67213e-17 7.85729e-17)
(0 2.30092e-30 0 6.83665 -3.93695e-15 -9.90737e-16 0.142269 3.3088e-16 2.29431e-16)
(-1.72086e-15 1.72323e-30 -7.43546e-32 6.66563 8.20479e-16 3.73028e-15 0.140742 -4.70407e-17 7.98236e-17)
(0 2.26794e-30 0 6.66563 -2.25805e-15 -9.71584e-16 0.140742 3.11508e-16 2.21731e-16)
(-1.73084e-15 -2.75098e-30 3.42338e-31 6.50028 -1.87367e-15 3.76081e-15 0.139262 -6.84817e-17 8.21992e-17)
(6.92334e-15 6.7063e-30 -4.19144e-31 6.50028 1.45986e-15 -9.40998e-16 0.139262 3.22937e-16 2.13846e-16)
(1.7407e-15 -6.1264e-30 3.55002e-31 6.34037 -3.53303e-15 3.77859e-15 0.137825 -8.60515e-17 8.29447e-17)
(0 4.40679e-30 -2.75424e-31 6.34037 2.33733e-15 -8.92086e-16 0.137825 3.43528e-16 2.0604e-16)
(2.44524e-15 -4.34363e-30 2.71477e-31 6.18565 -3.63118e-15 3.76598e-15 0.136432 -7.48713e-17 8.40437e-17)
(0 4.34363e-30 -2.71477e-31 6.18565 6.41227e-16 -8.46434e-16 0.136432 3.64714e-16 1.98872e-16)
(6.50087e-16 -2.55124e-30 4.90406e-32 6.03593 -2.80935e-15 3.80708e-15 0.135079 -5.13343e-17 8.72368e-17)
(-2.4102e-15 6.42206e-30 -1.33793e-31 6.03593 4.30178e-16 -8.1826e-16 0.135079 3.73412e-16 1.9146e-16)
(0 -1.76578e-29 7.91252e-31 5.89098 -1.19115e-15 3.80029e-15 0.133765 -1.35905e-17 8.61937e-17)
(1.41573e-14 1.477e-29 -7.91252e-31 5.89098 2.32425e-15 -8.00808e-16 0.133765 3.93076e-16 1.83839e-16)
(-2.3416e-15 2.07976e-30 -2.5997e-31 5.75061 -1.11864e-15 3.78348e-15 0.132489 -3.83836e-17 8.90082e-17)
(7.1165e-15 2.07976e-30 0 5.75061 1.78178e-15 -7.91381e-16 0.132489 4.30679e-16 1.7596e-16)
(-4.09653e-15 1.40284e-29 1.89167e-29 5.61463 -2.94543e-15 1.4248e-15 0.131249 -1.00425e-16 1.67324e-17)
(-7.15396e-15 -1.22997e-29 6.40611e-31 5.61463 1.79473e-16 -7.78441e-16 0.131249 4.37394e-16 1.68588e-16)
(-1.79776e-15 7.79934e-30 6.34963e-46 5.48288 -3.74309e-15 -8.97329e-30 0.130045 -7.77996e-17 0)
(-7.19106e-15 -4.04115e-30 2.52572e-31 5.48288 1.24215e-15 -7.61939e-16 0.130045 4.47221e-16 1.62091e-16)
(0 3.98323e-30 -2.48952e-31 5.35517 -2.61362e-15 -2.0987e-15 0.128874 -4.8359e-17 4.98717e-17)
(0 -1.99161e-30 1.24476e-31 5.35517 3.286e-15 -7.52692e-16 0.128874 4.82928e-16 1.56126e-16)
(0 -1.23851e-29 -2.45383e-31 5.23134 -3.62128e-16 -2.10102e-15 0.127736 -4.44096e-18 5.1615e-17)
(5.05398e-15 -1.96307e-30 1.22692e-31 5.23134 2.29453e-15 -7.34404e-16 0.127736 5.24184e-16 1.50212e-16)
(-3.53472e-16 1.56671e-29 -7.52012e-31 5.11126 -3.41102e-16 -2.17367e-15 0.12663 -1.25936e-17 5.14476e-17)
(0 -1.35445e-29 7.256e-31 5.11126 -8.47716e-16 -7.19233e-16 0.12663 5.43891e-16 1.44671e-16)
(0 -1.9072e-29 8.344e-31 4.99476 -1.19341e-15 -2.27908e-15 0.125553 -4.79177e-17 5.67688e-17)
(1.4672e-14 1.9072e-29 -8.344e-31 4.99476 -4.29039e-16 -7.38452e-16 0.125553 5.29271e-16 1.39943e-16)
(0 -3.75973e-30 2.34983e-31 4.88171 -2.01162e-15 -2.24078e-15 0.124506 -5.51803e-17 5.83152e-17)
(1.47429e-14 3.75973e-30 -2.34983e-31 4.88171 -2.42893e-17 -7.60326e-16 0.124506 5.51059e-16 1.34846e-16)
(-3.70328e-15 5.3343e-30 -1.75902e-31 4.77198 -2.18438e-15 -2.20194e-15 0.123487 -5.83651e-17 5.64556e-17)
(0 -1.85292e-30 0 4.77198 -8.07011e-16 -7.58361e-16 0.123487 5.66534e-16 1.29307e-16)
(-1.86035e-15 1.74564e-30 -8.57324e-32 4.66545 -1.74114e-15 -2.19243e-15 0.122495 -3.32566e-17 5.79905e-17)
(1.48828e-14 1.82636e-30 -1.14148e-31 4.66545 6.78751e-16 -7.68426e-16 0.122495 5.62957e-16 1.23944e-16)
(1.86898e-15 -5.34779e-30 4.21304e-31 4.56199 -9.53653e-16 -2.12536e-15 0.12153 -1.76439e-17 5.76043e-17)
(0 3.60038e-30 -3.37535e-31 4.56199 2.57946e-16 -7.89244e-16 0.12153 5.84705e-16 1.17501e-16)
(-1.87755e-15 -2.86931e-32 -8.20309e-32 4.46148 -7.12348e-16 -2.06277e-15 0.12059 -2.10399e-17 5.60754e-17)
(0 3.54877e-30 -1.10899e-31 4.46148 -1.15877e-15 -7.94374e-16 0.12059 5.85531e-16 1.09947e-16)
(-1.88604e-15 5.24187e-30 -4.08061e-31 4.36383 -9.37618e-16 -2.0182e-15 0.119674 -3.06542e-17 5.58704e-17)
(7.54416e-15 -3.49791e-30 3.27929e-31 4.36383 4.12588e-16 -8.07511e-16 0.119674 5.77452e-16 1.0194e-16)
(-1.89447e-15 3.4666e-30 -2.93803e-31 4.26893 -1.26689e-15 -1.95906e-15 0.118782 -4.01833e-17 5.5246e-17)
(7.57787e-15 0 1.07743e-31 4.26893 1.58431e-15 -8.21234e-16 0.118782 6.06116e-16 9.30661e-17)
(-3.80566e-15 3.49265e-30 -1.53171e-31 4.17667 -1.18434e-15 -1.90418e-15 0.117913 -2.68399e-17 5.41793e-17)
(0 0 0 4.17667 1.16075e-15 -8.21947e-16 0.117913 6.21886e-16 8.34282e-17)
(-1.91113e-15 3.42422e-30 -2.8419e-31 4.08696 -7.19375e-16 -1.88889e-15 0.117066 -1.4432e-17 5.37318e-17)
(-1.88569e-15 0 1.04677e-31 4.08696 2.0431e-16 -8.11585e-16 0.117066 6.25467e-16 7.33646e-17)
(1.85866e-15 -7.35106e-30 3.09529e-31 3.99971 -1.63832e-16 -1.89166e-15 0.116241 -2.38918e-18 5.48805e-17)
(-7.67747e-15 4.95247e-30 -3.09529e-31 3.99971 -5.36389e-16 -7.94815e-16 0.116241 6.33724e-16 6.34009e-17)
(1.92754e-15 -3.5025e-30 3.75942e-31 3.91484 1.18428e-28 -1.87726e-15 0.115436 1.57772e-30 5.54688e-17)
(7.71018e-15 6.50865e-30 -3.05093e-31 3.91484 -8.73725e-16 -7.97421e-16 0.115436 6.44499e-16 5.40084e-17)
(1.93566e-15 -8.16163e-30 2.69428e-31 3.83225 4.19803e-16 -1.88093e-15 0.114651 -2.62571e-17 5.56299e-17)
(-7.74266e-15 6.41536e-30 -2.0048e-31 3.83225 -1.6278e-15 -8.11392e-16 0.114651 6.36635e-16 4.40428e-17)
(-1.94373e-15 6.49151e-30 -1.65494e-31 3.75188 -2.06827e-16 -1.84568e-15 0.113886 -1.1422e-17 5.73159e-17)
(7.7749e-15 -3.16171e-30 0 3.75188 -8.8735e-16 -8.22536e-16 0.113886 6.34879e-16 3.39641e-17)
(3.50874e-15 0 -2.92162e-31 3.67365 9.86076e-32 -1.76025e-15 0.11314 1.57772e-30 5.50964e-17)
(-3.50874e-15 -3.11639e-30 1.94774e-31 3.67365 -6.54721e-16 -8.34241e-16 0.11314 6.50079e-16 2.29539e-17)
(-3.45845e-15 4.60759e-30 -3.83966e-31 3.59747 1.33362e-15 -1.70579e-15 0.112412 -3.9506e-17 5.3677e-17)
(7.83873e-15 0 1.91983e-31 3.59747 -1.77468e-15 -8.49924e-16 0.112412 6.43905e-16 1.10801e-17)
(1.96758e-15 -6.28097e-30 2.50905e-31 3.52329 6.42989e-16 -1.6607e-15 0.111701 -4.41435e-17 5.32706e-17)
(0 4.54155e-30 -1.89231e-31 3.52329 -2.43108e-15 -8.61464e-16 0.111701 6.4515e-16 -1.55192e-18)
(0 4.47646e-30 -2.79779e-31 3.45104 -1.14536e-16 -1.55702e-15 0.111008 -3.80592e-18 5.23606e-17)
(-9.58173e-15 -2.9843e-30 1.86519e-31 3.45104 -2.01844e-15 -8.38878e-16 0.111008 6.3982e-16 -1.34708e-17)
(-1.65593e-15 4.4123e-30 -9.19229e-32 3.38065 -9.52633e-17 -1.47037e-15 0.110331 -2.42133e-18 4.80913e-17)
(0 2.94153e-30 -1.83846e-31 3.38065 -4.40472e-16 -7.96811e-16 0.110331 6.5271e-16 -2.47718e-17)
(0 2.89937e-30 -2.71816e-31 3.31205 -1.77885e-15 -1.40903e-15 0.10967 -1.16564e-16 4.81802e-17)
(-1.6322e-15 -1.44969e-30 9.06054e-32 3.31205 2.5356e-15 -7.75209e-16 0.10967 6.76411e-16 -2.58237e-17)
(1.99867e-15 9.70452e-30 -3.0111e-31 3.2452 -3.8127e-15 -1.24796e-15 0.109025 -1.40554e-16 4.53959e-17)
(0 -1.14313e-29 3.57227e-31 3.2452 3.90854e-15 -7.5858e-16 0.109025 7.37631e-16 -2.52945e-17)
(2.00633e-15 1.07807e-30 -1.64431e-31 3.18004 -3.18367e-15 -1.07858e-15 0.108395 -7.66575e-17 3.86578e-17)
(0 -2.81686e-30 1.3204e-31 3.18004 2.71778e-15 -7.51023e-16 0.108395 8.01612e-16 -2.60597e-17)
(-4.02786e-15 6.25505e-30 -1.10206e-31 3.11651 -2.46914e-15 -1.1212e-15 0.10778 -9.47467e-17 3.50602e-17)
(8.05573e-15 -2.77648e-30 -2.12746e-32 3.11651 2.95396e-15 -7.47842e-16 0.10778 8.62877e-16 -2.58132e-17)
(-2.02149e-15 1.74548e-30 -5.26191e-32 3.05455 -2.47138e-15 -1.24185e-15 0.107179 -7.90624e-17 4.2768e-17)
(0 2.73669e-30 -8.55215e-32 3.05455 2.27344e-15 -7.47713e-16 0.107179 9.2647e-16 -2.68139e-17)
(0 -2.58787e-29 -1.26444e-31 2.99413 -9.86076e-29 -1.26178e-15 0.106591 0 4.46401e-17)
(0 0 1.26444e-31 2.99413 1.06646e-15 -7.76536e-16 0.106591 9.35179e-16 -2.86422e-17)
(0 5.33038e-31 -1.66175e-31 2.93518 2.32261e-17 -1.24543e-15 0.106017 -4.206e-19 4.54542e-17)
(0 -2.6588e-30 1.24631e-31 2.93518 6.50917e-16 -8.12824e-16 0.106017 9.6093e-16 -3.02471e-17)
(-2.95064e-15 7.86209e-30 -2.4569e-31 2.87767 -2.72733e-16 -1.92104e-15 0.105457 -4.45827e-17 4.47547e-17)
(-2.95064e-15 -2.6207e-30 1.22845e-31 2.87767 1.43741e-15 -8.36269e-16 0.105457 9.59508e-16 -3.12167e-17)
(0 5.16627e-30 -2.01807e-31 2.82156 -2.01392e-15 -2.52959e-15 0.104908 -1.06014e-16 9.67969e-17)
(1.35022e-14 -2.58314e-30 3.25605e-32 2.82156 3.17214e-15 -8.57678e-16 0.104908 9.76296e-16 -3.27408e-17)
(-4.11734e-15 3.51452e-30 -6.92548e-32 2.76678 -2.07488e-15 -2.44472e-15 0.104373 -5.05337e-17 9.17676e-17)
(8.23468e-15 0 -4.9998e-32 2.76678 2.27672e-15 -9.04284e-16 0.104373 1.02752e-15 -3.56822e-17)
(2.06599e-15 -9.04497e-30 1.48855e-31 2.71332 9.86076e-32 -2.37885e-15 0.103849 0 9.31663e-17)
(0 5.01924e-30 -1.17638e-31 2.71332 4.32265e-16 -9.27334e-16 0.103849 1.03225e-15 -3.54817e-17)
(0 2.47365e-30 -9.6627e-32 2.66112 4.64335e-16 -2.40115e-15 0.103337 -1.23711e-17 8.93634e-17)
(-8.29305e-15 0 6.75665e-32 2.66112 6.8581e-16 -8.96634e-16 0.103337 1.02721e-15 -3.43198e-17)
(-2.0805e-15 -7.99525e-30 2.99482e-31 2.61015 7.43046e-16 -2.40294e-15 0.102836 -2.38639e-17 9.76444e-17)
(8.32201e-15 1.2191e-29 -4.16665e-31 2.61015 1.44066e-15 -9.08327e-16 0.102836 1.04838e-15 -3.74514e-17)
(0 7.20975e-30 -1.68979e-31 2.56038 5.10375e-16 -2.29659e-15 0.102346 -3.49089e-17 9.21242e-17)
(0 -7.20975e-30 9.3877e-32 2.56038 2.85571e-18 -9.27457e-16 0.102346 1.08162e-15 -3.68694e-17)
(0 -7.10642e-30 9.25315e-32 2.51176 -2.52858e-16 -2.37073e-15 0.101866 -2.65734e-17 9.19195e-17)
(0 7.10642e-30 -1.29544e-31 2.51176 -1.62931e-15 -9.1325e-16 0.101866 1.09223e-15 -3.73851e-17)
(-2.10201e-15 1.75378e-30 -1.99564e-32 2.46426 -5.10422e-16 -2.37656e-15 0.101398 -1.5449e-17 1.00895e-16)
(0 0 0 2.46426 -3.69349e-16 -9.13015e-16 0.101398 1.07024e-15 -3.79299e-17)
(-1.62708e-15 4.2039e-45 2.70523e-31 2.41786 7.01241e-30 -2.18815e-15 0.100939 -1.57772e-30 9.50961e-17)
(1.68729e-14 1.84111e-29 -5.48501e-31 2.41786 1.78285e-15 -9.33713e-16 0.100939 1.08095e-15 -4.02249e-17)
(0 4.53681e-30 -8.86096e-32 2.37251 1.453e-15 -2.1582e-15 0.10049 -3.28824e-17 8.79692e-17)
(0 -4.53681e-30 6.20267e-32 2.37251 -2.88009e-16 -9.15641e-16 0.10049 1.13755e-15 -3.74955e-17)
(0 6.70768e-30 -7.86057e-32 2.3282 1.38115e-15 -2.3097e-15 0.100051 -9.08993e-17 9.53202e-17)
(0 -2.23589e-30 6.11377e-32 2.3282 -2.13579e-15 -8.76065e-16 0.100051 1.1211e-15 -3.79695e-17)
(-3.90932e-15 -1.24181e-29 2.77143e-31 2.28488 3.28287e-16 -2.2308e-15 0.0996205 -2.76116e-17 1.24349e-16)
(1.70417e-14 1.76308e-29 -6.12947e-31 2.28488 9.3568e-17 -8.86932e-16 0.0996205 1.11167e-15 -3.95504e-17)
(0 -1.86135e-29 3.39416e-31 2.24253 3.98929e-17 -2.13258e-15 0.0991995 -8.84227e-19 1.94136e-16)
(1.70974e-14 1.73781e-29 -5.98492e-31 2.24253 -9.48719e-16 -9.33816e-16 0.0991995 1.15489e-15 -4.32687e-17)
(-2.14412e-15 6.50437e-30 -1.3382e-31 2.20113 5.10326e-16 -2.14521e-15 0.0987874 -1.14759e-17 1.84016e-16)
(0 -4.28225e-30 1.3382e-31 2.20113 -2.90253e-15 -9.54474e-16 0.0987874 1.13383e-15 -4.25806e-17)
(2.15103e-15 -1.65019e-29 2.96781e-31 2.16064 1.42529e-15 -2.1419e-15 0.0983838 -5.89252e-17 1.77712e-16)
(1.72083e-14 1.47731e-29 -5.83797e-31 2.16064 -1.47064e-15 -9.60916e-16 0.0983838 1.08772e-15 -4.51283e-17)
(2.34209e-15 -1.0401e-29 1.95018e-31 2.12104 1.28602e-15 -1.07957e-15 0.0979886 -7.12314e-17 1.67776e-16)
(6.28957e-15 1.0401e-29 -3.45273e-31 2.12104 -1.69719e-15 -9.9799e-16 0.0979886 1.08779e-15 -4.72854e-17)
(2.16477e-15 -5.82777e-30 1.28149e-31 2.08232 2.0116e-15 2.95667e-17 0.0976016 -4.76642e-17 1.83962e-16)
(0 4.10075e-30 -1.28149e-31 2.08232 -1.45482e-15 -1.03066e-15 0.0976016 1.06011e-15 -4.95414e-17)
(4.34318e-15 -1.40024e-30 -3.1578e-32 2.04443 2.39976e-15 1.08007e-17 0.0972225 -1.41967e-16 1.91965e-16)
(6.41093e-15 -2.02099e-30 -1.05157e-31 2.04443 -2.45594e-16 -1.03167e-15 0.0972225 1.06522e-15 -4.87676e-17)
(0 1.99202e-30 -9.33761e-32 2.00737 1.67162e-15 3.01326e-17 0.0968511 -8.63198e-17 1.81621e-16)
(0 0 6.22507e-32 2.00737 -1.11326e-15 -1.00748e-15 0.0968511 1.11004e-15 -4.86366e-17)