/*--------------------------------*- C++ -*----------------------------------*\
| =========                 |                                                 |
| \\      /  F ield         | OpenFOAM: The Open Source CFD Toolbox           |
|  \\    /   O peration     | Version:  2012                                  |
|   \\  /    A nd           | Website:  www.openfoam.com                      |
|    \\/     M anipulation  |                                                 |
\*---------------------------------------------------------------------------*/
FoamFile
{
    version     2.0;
    format      ascii;
    class       volScalarField;
    location    "11400";
    object      p;
}
// * * * * * * * * * * * * * * * * * * * * * * * * * * * * * * * * * * * * * //

dimensions      [0 2 -2 0 0 0 0];


internalField   nonuniform List<scalar> 
2560
(
1.01453e-08
-0.981598
-3.6674e-05
-0.981626
-4.05206e-05
-0.981632
-3.3638e-05
-0.981635
-3.05616e-05
-0.981637
-2.9825e-05
-0.981638
-2.92534e-05
-0.981638
-2.91085e-05
-0.981639
-2.86206e-05
-0.981639
-2.86911e-05
-0.981639
-2.80866e-05
-0.98164
-2.83497e-05
-0.98164
-3.12029e-05
-0.981639
-4.27522e-05
-0.981048
-8.7451e-05
-0.981755
-0.000178957
-0.980345
-0.000358699
-0.982297
-0.000574269
-0.982311
-0.000827242
-0.983164
-0.00106763
-0.983184
-0.0013412
-0.984119
-0.001586
-0.984136
-0.00186234
-0.985126
-0.00210651
-0.982475
-0.00245872
-0.986392
-0.00284956
-0.983399
-0.00344419
-0.988308
-0.00407235
-0.98837
-0.00489489
-0.990811
-0.00564586
-0.990939
-0.00654848
-0.993583
-0.00725909
-0.993706
-0.00810912
-0.996323
-0.00867022
-0.996381
-0.00944764
-0.998895
-0.00992756
-0.993957
-0.0108347
-1.00174
-0.0114935
-0.979954
-0.0128259
-1.00602
-0.013901
-0.977648
-0.0158128
-1.0124
-0.0173476
-0.990917
-0.0197656
-1.02063
-0.0215976
-1.01353
-0.0243102
-1.02984
-0.0262356
-1.02907
-0.0291106
-1.03947
-0.0310658
-1.03619
-0.0341751
-1.04961
-0.0363418
-0.977133
-0.0400338
-1.06271
-0.0433301
-1.03268
-0.0494517
-1.08031
-0.0574239
-1.08182
-0.0713923
-1.1107
-0.0914395
-1.11708
-0.121437
-1.16969
-0.160721
-1.18476
-0.209937
-1.26788
-0.26534
-1.29162
-0.32268
-1.39118
-0.376216
-1.41631
-0.419496
-1.49922
-0.449544
-1.51483
-0.462261
-1.55347
-0.460706
-1.55178
-0.444188
-1.51165
-0.420011
-1.50039
-0.388336
-1.44056
-0.356679
-1.42696
-0.323747
-1.36787
-0.295036
-1.35572
-0.267769
-0.263693
-0.245519
-0.250627
-0.225096
-0.221235
-0.209064
-0.212047
-0.194539
-0.190795
-0.183634
-0.184394
-0.173905
-0.170211
-0.167103
-0.166055
-0.161154
-0.157473
-0.157493
-0.15506
-0.154312
-0.15063
-0.152799
-0.149452
-0.151468
-0.147786
-0.151399
-0.147434
-0.151461
-0.147758
-0.152705
-0.14906
-0.154329
-0.150638
-0.15735
-0.153711
-0.161188
-0.157511
-0.166735
-0.163104
-0.173473
-0.169812
-0.182049
-0.17843
-0.191865
-0.188223
-0.20327
-0.199667
-0.215552
-0.211931
-0.2288
-0.225214
-0.242274
-0.238676
-0.255962
-0.252396
-0.269222
-0.265648
-0.282093
-0.278547
-0.29412
-0.290569
-0.305457
-0.301932
-0.315852
-0.312325
-0.325543
-0.322039
-0.334408
-0.330904
-0.342709
-0.339226
-0.350377
-0.346896
-0.357649
-0.354187
-0.364473
-0.361015
-0.371062
-0.367623
-0.377394
-0.37396
-0.383668
-0.380252
-0.389902
-0.386493
-0.396314
-0.392924
-0.40294
-0.399558
-0.409969
-0.406606
-0.417447
-0.414096
-0.425538
-0.422206
-0.434287
-0.430969
-0.443858
-0.440561
-0.454336
-0.451055
-0.46594
-0.46268
-0.478847
-0.475605
-0.49337
-0.49015
-0.509795
-0.506593
-0.528497
-0.525318
-0.549797
-0.546638
-0.574016
-0.570879
-0.601337
-0.598219
-0.631847
-0.628751
-0.665406
-0.66233
-0.701694
-0.698639
-0.740135
-0.7371
-0.779992
-0.776978
-0.820338
-0.817343
-0.860189
-0.857215
-0.898534
-0.895578
-0.934472
-0.931536
-0.967243
-0.964326
-0.996326
-0.993428
-1.02142
-1.01854
-1.04249
-1.03963
-1.05968
-1.05684
-1.07333
-1.0705
-1.08387
-1.08106
-1.0918
-1.08901
-1.09761
-1.09483
-1.10176
-1.099
-1.10465
-1.10191
-1.10663
-1.10391
-1.10795
-1.10525
-1.10882
-1.10613
-1.10939
-1.10671
-1.10975
-1.10709
-1.10998
-1.10733
-1.11011
-1.10748
-1.11019
-1.10757
-1.11023
-1.10762
-1.11023
-1.10764
-1.1102
-1.10762
-1.11016
-1.10759
-1.1101
-1.10755
-1.11003
-1.10749
-1.10995
-1.10743
-1.10987
-1.10735
-1.10978
-1.10727
-1.10968
-1.10719
-1.10959
-1.10711
-1.1095
-1.10702
-1.10941
-1.10695
-1.10933
-1.10687
-1.10926
-1.10681
-1.1092
-1.10675
-1.10914
-1.10669
-1.1091
-1.10665
-1.10906
-1.10661
-1.10903
-1.10658
-1.109
-1.10656
-1.10898
-1.10654
-1.10896
-1.10653
-1.10895
-1.10652
-1.10894
-1.10651
-1.10892
-1.10651
-1.10891
-1.1065
-1.1089
-1.10649
-1.10888
-1.10648
-1.10885
-1.10646
-1.10881
-1.10642
-1.10876
-1.10637
-1.10868
-1.10629
-1.10857
-1.10619
-1.10843
-1.10604
-1.10822
-1.10585
-1.10795
-1.10558
-1.10759
-1.10523
-1.10713
-1.10478
-1.10654
-1.1042
-1.10579
-1.10347
-1.10487
-1.10256
-1.10373
-1.10145
-1.10237
-1.1001
-1.10074
-1.09849
-1.09884
-1.09661
-1.09663
-1.09443
-1.09412
-1.09194
-1.0913
-1.08914
-1.08818
-1.08605
-1.08477
-1.08266
-1.08109
-1.079
-1.07716
-1.0751
-1.07302
-1.07099
-1.0687
-1.06669
-1.06422
-1.06224
-1.0596
-1.05764
-1.05486
-1.05293
-1.05001
-1.04809
-1.04504
-1.04314
-1.03994
-1.03806
-1.03471
-1.03285
-1.02933
-1.02748
-1.02379
-1.02196
-1.01808
-1.01625
-1.0122
-1.01038
-1.00615
-1.00434
-0.999958
-0.998147
-0.993634
-0.991823
-0.987211
-0.985401
-0.980715
-0.978908
-0.974185
-0.972383
-0.967646
-0.965848
-0.961132
-0.959338
-0.954658
-0.952868
-0.948241
-0.946455
-0.941885
-0.940101
-0.935595
-0.933811
-0.929361
-0.927578
-0.923178
-0.921399
-0.917034
-0.915259
-0.910923
-0.909155
-0.904829
-0.903069
-0.898752
-0.897001
-0.89268
-0.890939
-0.886616
-0.884885
-0.880546
-0.878826
-0.874478
-0.872769
-0.868398
-0.866699
-0.86231
-0.860622
-0.856199
-0.854522
-0.850067
-0.848399
-0.843892
-0.842235
-0.837679
-0.836031
-0.831404
-0.829767
-0.825071
-0.823444
-0.818658
-0.817042
-0.812174
-0.810569
-0.805598
-0.804005
-0.798943
-0.797363
-0.792188
-0.790621
-0.785353
-0.7838
-0.778414
-0.776876
-0.771396
-0.769874
-0.764276
-0.76277
-0.757078
-0.755589
-0.749782
-0.748312
-0.742416
-0.740965
-0.73496
-0.733528
-0.727448
-0.726035
-0.71986
-0.718468
-0.712236
-0.710864
-0.704557
-0.703205
-0.696865
-0.695533
-0.689137
-0.687826
-0.681419
-0.680128
-0.67368
-0.672409
-0.665963
-0.664711
-0.65823
-0.656999
-0.650518
-0.649306
-0.642784
-0.641593
-0.635064
-0.633891
-0.627307
-0.626154
-0.619555
-0.61842
-0.611759
-0.610644
-0.60397
-0.602873
-0.596148
-0.59507
-0.588353
-0.587292
-0.580556
-0.579514
-0.572827
-0.571801
-0.565143
-0.564135
-0.557582
-0.556589
-0.550116
-0.549142
-0.542826
-0.541867
-0.535673
-0.534734
-0.528736
-0.527811
-0.521966
-0.521062
-0.515431
-0.514542
-0.509071
-0.508204
-0.502948
-0.502096
-0.496992
-0.496165
-0.49126
-0.490449
-0.485674
-0.48489
-0.480288
-0.479521
-0.475021
-0.474285
-0.469926
-0.469206
-0.46492
-0.464235
-0.460062
-0.459393
-0.455273
-0.454643
-0.450628
-0.450013
-0.446062
-0.44549
-0.441671
-0.441113
-0.437412
-0.436904
-0.433412
-0.432915
-0.42965
-0.429211
-0.426277
-0.425849
-0.423296
-0.422914
-0.420846
-0.420474
-0.418944
-0.418606
-0.417691
-0.41736
-0.417099
-0.416784
-0.985033
-0.000523475
-0.985061
-0.000560165
-0.985067
-0.000564009
-0.98507
-0.000557116
-0.985072
-0.000554067
-0.985073
-0.000553308
-0.985074
-0.000552675
-0.985074
-0.000552184
-0.985074
-0.000551643
-0.985075
-0.000551246
-0.985075
-0.000550554
-0.985076
-0.000550365
-0.985075
-0.000552995
-0.984484
-0.000565855
-0.985191
-0.000611194
-0.98378
-0.000703459
-0.985733
-0.000882596
-0.985746
-0.001098
-0.986599
-0.0013504
-0.98662
-0.0015907
-0.987555
-0.00186391
-0.987571
-0.00210871
-0.988561
-0.00238486
-0.985911
-0.00262907
-0.989828
-0.00298119
-0.986835
-0.00337209
-0.991744
-0.00396668
-0.991806
-0.0045949
-0.994247
-0.00541744
-0.994375
-0.00616849
-0.997019
-0.00707113
-0.997141
-0.00778182
-0.999759
-0.00863188
-0.999817
-0.00919306
-1.00233
-0.00997052
-0.997393
-0.0104505
-1.00518
-0.0113577
-0.98339
-0.0120166
-1.00946
-0.013349
-0.981083
-0.0144242
-1.01584
-0.0163361
-0.994353
-0.0178709
-1.02406
-0.0202889
-1.01697
-0.022121
-1.03327
-0.0248336
-1.03251
-0.0267591
-1.04291
-0.0296342
-1.03963
-0.0315895
-1.05305
-0.0346988
-0.980569
-0.0368656
-1.06615
-0.0405576
-1.03611
-0.0438541
-1.08374
-0.0499757
-1.08526
-0.057948
-1.11413
-0.0719164
-1.12051
-0.0919637
-1.17313
-0.121961
-1.1882
-0.161245
-1.27132
-0.210461
-1.29506
-0.265865
-1.39461
-0.323205
-1.41975
-0.376741
-1.50266
-0.420021
-1.51827
-0.450069
-1.55691
-0.462785
-1.55522
-0.461231
-1.51509
-0.444713
-1.50382
-0.420536
-1.444
-0.388862
-1.43039
-0.357204
-1.3713
-0.324273
-1.35916
-0.295561
-0.267128
-0.268295
-0.254062
-0.246044
-0.22467
-0.225621
-0.215482
-0.209589
-0.19423
-0.195065
-0.18783
-0.18416
-0.173646
-0.174431
-0.16949
-0.167628
-0.160908
-0.16168
-0.158495
-0.158019
-0.154065
-0.154838
-0.152887
-0.153325
-0.151221
-0.151994
-0.150869
-0.151925
-0.151193
-0.151988
-0.152495
-0.153231
-0.154073
-0.154856
-0.157146
-0.157877
-0.160946
-0.161715
-0.166539
-0.167261
-0.173247
-0.173999
-0.181865
-0.182575
-0.191658
-0.192391
-0.203102
-0.203797
-0.215366
-0.216078
-0.228649
-0.229327
-0.242111
-0.2428
-0.255831
-0.256488
-0.269083
-0.269749
-0.281982
-0.28262
-0.294005
-0.294647
-0.305367
-0.305984
-0.31576
-0.316379
-0.325474
-0.326069
-0.33434
-0.334935
-0.342662
-0.343236
-0.350331
-0.350903
-0.357623
-0.358175
-0.364451
-0.365
-0.371058
-0.371589
-0.377395
-0.37792
-0.383688
-0.384195
-0.389929
-0.390429
-0.396359
-0.396841
-0.402994
-0.403466
-0.410042
-0.410496
-0.417532
-0.417974
-0.425642
-0.426064
-0.434405
-0.434813
-0.443996
-0.444384
-0.454491
-0.454863
-0.466116
-0.466466
-0.479041
-0.479373
-0.493585
-0.493896
-0.51003
-0.510321
-0.528754
-0.529023
-0.550074
-0.550324
-0.574315
-0.574543
-0.601656
-0.601863
-0.632187
-0.632373
-0.665767
-0.665932
-0.702075
-0.70222
-0.740537
-0.740661
-0.780414
-0.780518
-0.820781
-0.820864
-0.86065
-0.860715
-0.899016
-0.89906
-0.934971
-0.934997
-0.967764
-0.967769
-0.996864
-0.996852
-1.02198
-1.02195
-1.04306
-1.04301
-1.06028
-1.0602
-1.07394
-1.07385
-1.0845
-1.0844
-1.09244
-1.09232
-1.09828
-1.09813
-1.10244
-1.10228
-1.10535
-1.10518
-1.10734
-1.10715
-1.10869
-1.10848
-1.10956
-1.10935
-1.11016
-1.10991
-1.11052
-1.11027
-1.11078
-1.1105
-1.11091
-1.11064
-1.11102
-1.11071
-1.11105
-1.11075
-1.11109
-1.11075
-1.11108
-1.11072
-1.11103
-1.11068
-1.111
-1.11062
-1.11093
-1.11055
-1.11088
-1.11048
-1.11079
-1.11039
-1.11072
-1.1103
-1.11063
-1.1102
-1.11056
-1.11011
-1.11046
-1.11002
-1.1104
-1.10994
-1.11031
-1.10986
-1.11025
-1.10978
-1.11019
-1.10972
-1.11014
-1.10967
-1.11009
-1.10962
-1.11006
-1.10958
-1.11002
-1.10955
-1.11001
-1.10952
-1.10999
-1.1095
-1.10998
-1.10949
-1.10997
-1.10947
-1.10996
-1.10946
-1.10995
-1.10945
-1.10995
-1.10943
-1.10994
-1.10942
-1.10993
-1.1094
-1.1099
-1.10937
-1.10987
-1.10933
-1.10981
-1.10928
-1.10974
-1.1092
-1.10963
-1.1091
-1.10949
-1.10895
-1.10929
-1.10874
-1.10903
-1.10847
-1.10868
-1.10811
-1.10823
-1.10765
-1.10765
-1.10706
-1.10692
-1.10631
-1.10601
-1.10539
-1.10489
-1.10425
-1.10355
-1.10289
-1.10194
-1.10126
-1.10006
-1.09935
-1.09788
-1.09715
-1.09539
-1.09464
-1.09259
-1.09181
-1.0895
-1.08869
-1.08611
-1.08528
-1.08246
-1.0816
-1.07856
-1.07767
-1.07445
-1.07354
-1.07015
-1.06921
-1.0657
-1.06473
-1.0611
-1.0601
-1.05639
-1.05537
-1.05155
-1.05051
-1.04661
-1.04554
-1.04152
-1.04044
-1.03632
-1.03521
-1.03095
-1.02982
-1.02543
-1.02429
-1.01972
-1.01857
-1.01386
-1.0127
-1.0078
-1.00664
-1.00163
-1.00046
-0.995284
-0.994122
-0.988881
-0.987716
-0.982369
-0.9812
-0.975865
-0.974692
-0.969308
-0.968129
-0.962823
-0.961639
-0.956327
-0.955138
-0.949942
-0.94875
-0.943558
-0.942364
-0.9373
-0.936106
-0.931034
-0.929837
-0.924891
-0.923691
-0.918713
-0.917506
-0.912651
-0.911436
-0.906521
-0.905296
-0.900503
-0.899266
-0.894391
-0.893142
-0.888393
-0.887131
-0.882277
-0.881001
-0.876285
-0.874994
-0.87015
-0.868845
-0.864146
-0.862827
-0.857971
-0.856638
-0.851932
-0.850584
-0.845682
-0.844321
-0.839574
-0.838198
-0.833213
-0.831823
-0.826998
-0.825593
-0.820486
-0.819066
-0.814135
-0.812697
-0.807447
-0.805992
-0.800942
-0.799468
-0.794061
-0.792567
-0.787396
-0.785879
-0.780316
-0.778776
-0.773489
-0.771923
-0.76621
-0.764617
-0.759227
-0.757604
-0.751752
-0.750099
-0.744628
-0.742941
-0.73697
-0.73525
-0.729727
-0.72797
-0.721911
-0.72012
-0.714588
-0.712756
-0.706651
-0.704784
-0.699292
-0.697382
-0.691275
-0.689329
-0.683924
-0.681934
-0.675859
-0.673833
-0.668548
-0.666475
-0.660451
-0.658341
-0.653188
-0.651028
-0.645046
-0.642851
-0.637819
-0.635571
-0.629608
-0.627325
-0.622399
-0.62006
-0.614099
-0.611726
-0.606907
-0.604474
-0.598524
-0.59606
-0.591384
-0.588857
-0.582966
-0.580411
-0.575954
-0.573331
-0.567584
-0.564937
-0.560808
-0.558086
-0.552587
-0.549846
-0.546155
-0.543331
-0.538173
-0.535335
-0.532175
-0.529242
-0.524497
-0.521554
-0.518988
-0.515935
-0.511636
-0.508578
-0.506635
-0.503446
-0.499597
-0.49641
-0.49509
-0.491747
-0.488325
-0.484994
-0.484278
-0.480757
-0.477726
-0.474233
-0.474094
-0.47037
-0.467687
-0.464015
-0.464425
-0.460471
-0.458108
-0.45424
-0.455207
-0.450992
-0.448972
-0.444891
-0.446488
-0.441978
-0.440406
-0.436094
-0.438495
-0.433646
-0.407881
-0.428173
-0.406205
-0.426264
-0.401405
-0.421851
-0.400157
-0.420566
-0.39685
-0.41761
-0.39618
-0.417089
-0.394646
-0.416024
-0.4171
-0.416784
-0.417693
-0.417357
-0.418948
-0.418603
-0.42085
-0.420469
-0.423301
-0.422909
-0.426281
-0.425841
-0.429658
-0.429206
-0.433418
-0.432906
-0.437419
-0.436895
-0.441679
-0.441104
-0.446072
-0.445482
-0.450638
-0.450003
-0.455284
-0.454633
-0.460074
-0.459383
-0.464933
-0.464225
-0.469938
-0.469194
-0.475033
-0.474271
-0.480301
-0.479507
-0.485686
-0.484875
-0.491275
-0.490435
-0.497007
-0.49615
-0.502964
-0.502081
-0.509087
-0.508188
-0.515446
-0.514523
-0.521981
-0.521043
-0.528755
-0.527796
-0.535689
-0.534714
-0.542845
-0.54185
-0.550134
-0.549123
-0.557597
-0.556567
-0.565164
-0.564117
-0.572848
-0.571782
-0.580581
-0.579497
-0.588374
-0.587271
-0.596175
-0.595054
-0.60399
-0.602849
-0.61178
-0.61062
-0.619577
-0.618396
-0.627327
-0.626127
-0.635089
-0.633868
-0.642808
-0.641567
-0.650544
-0.649282
-0.658256
-0.656973
-0.665991
-0.664687
-0.673705
-0.67238
-0.681448
-0.680102
-0.689163
-0.687796
-0.696892
-0.695503
-0.704584
-0.703174
-0.712266
-0.710834
-0.719887
-0.718434
-0.727482
-0.726008
-0.734993
-0.733498
-0.742444
-0.740929
-0.749815
-0.74828
-0.75711
-0.755556
-0.764313
-0.762741
-0.771429
-0.769839
-0.778447
-0.776841
-0.785384
-0.783761
-0.79223
-0.790593
-0.798979
-0.797328
-0.805638
-0.803974
-0.812212
-0.810535
-0.818699
-0.817011
-0.825106
-0.823406
-0.831437
-0.829726
-0.83772
-0.835998
-0.843931
-0.842199
-0.850111
-0.848368
-0.856236
-0.854482
-0.862345
-0.86058
-0.868437
-0.866662
-0.874513
-0.872726
-0.880582
-0.878784
-0.886653
-0.884844
-0.892723
-0.890903
-0.898798
-0.896967
-0.904877
-0.903037
-0.910969
-0.909121
-0.917076
-0.915221
-0.923222
-0.921362
-0.929401
-0.927537
-0.935635
-0.93377
-0.941931
-0.940066
-0.94828
-0.946412
-0.954693
-0.952823
-0.961178
-0.959304
-0.967689
-0.96581
-0.974219
-0.972335
-0.980756
-0.978868
-0.987251
-0.98536
-0.993671
-0.991778
-0.999997
-0.998104
-1.0062
-1.00431
-1.01225
-1.01035
-1.01812
-1.01621
-1.02384
-1.02192
-1.02938
-1.02745
-1.03475
-1.03281
-1.03998
-1.03802
-1.04509
-1.04311
-1.05005
-1.04805
-1.05491
-1.05289
-1.05966
-1.05761
-1.06427
-1.0622
-1.06875
-1.06665
-1.07308
-1.07095
-1.07721
-1.07506
-1.08113
-1.07895
-1.08481
-1.08261
-1.08823
-1.086
-1.09135
-1.08909
-1.09418
-1.09189
-1.09669
-1.09438
-1.09889
-1.09656
-1.10079
-1.09844
-1.10242
-1.10005
-1.10379
-1.1014
-1.10492
-1.10251
-1.10585
-1.10342
-1.1066
-1.10415
-1.10719
-1.10473
-1.10765
-1.10518
-1.10801
-1.10553
-1.10828
-1.10579
-1.10848
-1.10599
-1.10863
-1.10614
-1.10874
-1.10624
-1.10882
-1.10632
-1.10887
-1.10637
-1.10891
-1.1064
-1.10893
-1.10643
-1.10896
-1.10644
-1.10897
-1.10645
-1.10898
-1.10646
-1.109
-1.10646
-1.10901
-1.10647
-1.10902
-1.10648
-1.10904
-1.10649
-1.10906
-1.1065
-1.10909
-1.10653
-1.10912
-1.10656
-1.10916
-1.1066
-1.1092
-1.10664
-1.10926
-1.10669
-1.10932
-1.10675
-1.1094
-1.10682
-1.10947
-1.10689
-1.10956
-1.10697
-1.10965
-1.10705
-1.10975
-1.10714
-1.10984
-1.10722
-1.10993
-1.1073
-1.11001
-1.10737
-1.1101
-1.10744
-1.11016
-1.10749
-1.11022
-1.10754
-1.11026
-1.10756
-1.1103
-1.10759
-1.11029
-1.10756
-1.11026
-1.10752
-1.11017
-1.10742
-1.11005
-1.10728
-1.10981
-1.10703
-1.10946
-1.10666
-1.10889
-1.10607
-1.10803
-1.1052
-1.10669
-1.10384
-1.10473
-1.10187
-1.10181
-1.09892
-1.09769
-1.09479
-1.09185
-1.08893
-1.08394
-1.081
-1.0734
-1.07044
-1.05972
-1.05675
-1.04248
-1.03948
-1.02148
-1.01847
-0.9965
-0.993466
-0.967198
-0.964144
-0.934516
-0.931442
-0.898579
-0.895485
-0.860335
-0.857221
-0.820468
-0.817333
-0.780237
-0.777081
-0.74037
-0.737193
-0.701686
-0.698488
-0.665441
-0.662222
-0.63207
-0.628829
-0.601339
-0.598076
-0.573969
-0.570684
-0.549913
-0.546606
-0.528638
-0.52531
-0.509923
-0.506573
-0.49341
-0.490039
-0.478958
-0.475565
-0.466047
-0.462634
-0.454435
-0.451002
-0.443898
-0.440447
-0.434392
-0.430921
-0.425654
-0.422167
-0.417486
-0.413981
-0.410084
-0.406565
-0.40305
-0.399514
-0.396385
-0.392837
-0.38995
-0.386387
-0.383749
-0.380175
-0.377436
-0.373847
-0.37113
-0.367532
-0.364582
-0.360969
-0.357684
-0.354064
-0.350451
-0.346816
-0.342815
-0.339173
-0.334439
-0.330782
-0.325619
-0.321956
-0.315998
-0.312318
-0.305522
-0.301837
-0.294106
-0.290404
-0.282203
-0.278497
-0.269284
-0.26556
-0.255999
-0.252271
-0.242305
-0.238558
-0.228872
-0.225124
-0.215679
-0.211911
-0.203293
-0.199527
-0.192002
-0.188216
-0.182159
-0.178378
-0.17357
-0.169768
-0.166865
-0.163072
-0.161247
-0.157433
-0.157402
-0.153601
-0.154373
-0.15055
-0.152774
-0.148967
-0.151525
-0.147689
-0.151474
-0.14736
-0.151527
-0.147705
-0.152865
-0.149366
-0.154372
-0.150547
-0.157576
-0.154958
-0.161192
-0.157387
-0.16721
-0.166063
-0.174007
-0.170215
-0.183701
-0.184417
-0.194672
-0.19083
-0.209223
-0.211345
-0.225055
-0.221074
-0.245583
-1.31789
-0.267708
-1.32671
-0.295166
-1.37702
-0.323877
-1.38858
-0.356388
-1.44805
-0.38813
-1.46152
-0.420302
-1.5223
-0.443975
-1.53351
-0.460826
-1.57378
-0.462381
-1.57549
-0.44942
-1.53697
-0.419929
-1.52131
-0.375638
-1.43774
-0.323093
-1.41299
-0.266041
-1.31295
-0.210114
-1.2892
-0.161115
-1.20571
-0.12151
-1.19066
-0.091655
-1.13779
-0.0714916
-1.13145
-0.0575737
-1.10237
-0.0495819
-1.10086
-0.0433067
-1.03793
-0.0400667
-1.08291
-0.0363943
-1.00468
-0.0342758
-1.07004
-0.0311069
-1.05362
-0.0291237
-1.05977
-0.0262987
-1.05021
-0.0243561
-1.0502
-0.0216316
-1.03382
-0.0197953
-1.04099
-0.0173894
-1.01304
-0.0158625
-1.0328
-0.0139163
-0.996191
-0.0128608
-1.02638
-0.0115188
-1.00131
-0.0108791
-1.02213
-0.00994568
-1.01368
-0.00948704
-1.01927
-0.008696
-1.01676
-0.00813657
-1.0167
-0.00728124
-1.0141
-0.00658526
-1.01398
-0.00569038
-1.01136
-0.00493065
-1.01122
-0.00409275
-1.00878
-0.00346953
-1.00872
-0.00287379
-1.00398
-0.00247454
-1.0068
-0.00212909
-1.0029
-0.00188384
-1.00554
-0.00160484
-1.00454
-0.00136458
-1.00453
-0.00109427
-1.0036
-0.000851144
-1.00357
-0.000594307
-1.00272
-0.000381852
-1.00271
-0.000202749
-1.00076
-0.000108206
-1.00216
-6.25875e-05
-1.00143
-5.04498e-05
-1.00204
-4.78645e-05
-1.00204
-4.77957e-05
-1.00204
-4.85516e-05
-1.00204
-4.86492e-05
-1.00204
-4.92949e-05
-1.00204
-4.94894e-05
-1.00204
-5.02069e-05
-1.00204
-5.09416e-05
-1.00204
-5.42722e-05
-1.00204
-6.13559e-05
-1.00203
-5.73779e-05
-1.00203
-2.02887e-05
-1.002
-0.394645
-0.416025
-0.396178
-0.417089
-0.396848
-0.417612
-0.400155
-0.420567
-0.401403
-0.421854
-0.406203
-0.426265
-0.407879
-0.428178
-0.438464
-0.433648
-0.440375
-0.436097
-0.446459
-0.441982
-0.448943
-0.444896
-0.455177
-0.450997
-0.458078
-0.454246
-0.464395
-0.460478
-0.467656
-0.464022
-0.474062
-0.470376
-0.477693
-0.474239
-0.484245
-0.480764
-0.48829
-0.485
-0.495058
-0.491756
-0.499563
-0.496419
-0.506601
-0.503455
-0.511601
-0.508587
-0.518952
-0.515942
-0.52446
-0.521562
-0.532142
-0.529254
-0.538135
-0.535343
-0.54612
-0.543343
-0.55255
-0.549857
-0.560768
-0.558094
-0.567548
-0.56495
-0.575918
-0.573343
-0.582932
-0.580427
-0.591346
-0.588869
-0.598491
-0.596078
-0.606867
-0.604486
-0.614058
-0.611738
-0.62236
-0.620074
-0.629565
-0.627336
-0.637781
-0.635588
-0.645004
-0.642865
-0.653148
-0.651045
-0.66041
-0.658357
-0.668509
-0.666493
-0.675815
-0.673848
-0.683884
-0.681953
-0.691229
-0.689345
-0.699247
-0.697399
-0.706605
-0.704801
-0.714543
-0.712776
-0.721863
-0.720136
-0.729685
-0.727994
-0.736925
-0.735272
-0.744578
-0.742958
-0.751706
-0.750121
-0.75918
-0.757625
-0.766166
-0.764642
-0.773441
-0.771945
-0.780266
-0.778797
-0.787344
-0.785898
-0.794019
-0.792597
-0.800894
-0.799493
-0.807402
-0.806021
-0.814087
-0.812724
-0.820441
-0.819095
-0.826946
-0.825616
-0.833158
-0.831844
-0.839527
-0.838228
-0.845633
-0.844348
-0.851887
-0.850617
-0.857918
-0.856662
-0.86409
-0.862849
-0.870098
-0.868872
-0.876228
-0.875017
-0.882222
-0.881025
-0.888339
-0.887156
-0.894341
-0.893172
-0.900456
-0.8993
-0.906477
-0.905332
-0.912604
-0.91147
-0.918662
-0.917536
-0.924841
-0.923722
-0.930979
-0.929865
-0.937246
-0.936133
-0.94351
-0.942397
-0.949887
-0.948776
-0.956268
-0.955161
-0.962775
-0.961673
-0.969257
-0.96816
-0.975804
-0.974713
-0.982316
-0.98123
-0.988827
-0.987744
-0.995227
-0.994146
-1.00157
-1.00049
-1.00776
-1.00668
-1.01381
-1.01274
-1.01966
-1.0186
-1.02538
-1.02433
-1.0309
-1.02986
-1.03627
-1.03524
-1.04147
-1.04046
-1.04656
-1.04558
-1.0515
-1.05054
-1.05634
-1.05541
-1.06106
-1.06015
-1.06565
-1.06477
-1.07009
-1.06924
-1.0744
-1.07358
-1.0785
-1.0777
-1.0824
-1.08163
-1.08605
-1.08531
-1.08944
-1.08873
-1.09253
-1.09185
-1.09533
-1.09468
-1.09782
-1.09719
-1.1
-1.09939
-1.10188
-1.1013
-1.10349
-1.10293
-1.10483
-1.10429
-1.10595
-1.10543
-1.10686
-1.10636
-1.10759
-1.1071
-1.10817
-1.10769
-1.10862
-1.10816
-1.10897
-1.10852
-1.10923
-1.10879
-1.10943
-1.10899
-1.10957
-1.10914
-1.10968
-1.10925
-1.10975
-1.10932
-1.10981
-1.10938
-1.10984
-1.10941
-1.10986
-1.10944
-1.10987
-1.10946
-1.10989
-1.10948
-1.10989
-1.10949
-1.1099
-1.1095
-1.1099
-1.10952
-1.10992
-1.10953
-1.10992
-1.10955
-1.10995
-1.10957
-1.10996
-1.1096
-1.11
-1.10963
-1.11003
-1.10967
-1.11008
-1.10971
-1.11013
-1.10977
-1.1102
-1.10983
-1.11025
-1.1099
-1.11034
-1.10998
-1.1104
-1.11007
-1.1105
-1.11016
-1.11057
-1.11025
-1.11067
-1.11034
-1.11073
-1.11044
-1.11082
-1.11052
-1.11086
-1.1106
-1.11094
-1.11067
-1.11097
-1.11073
-1.11102
-1.11077
-1.11103
-1.1108
-1.111
-1.11079
-1.11096
-1.11077
-1.11082
-1.11068
-1.11072
-1.11056
-1.11043
-1.11032
-1.11009
-1.10997
-1.10948
-1.10939
-1.10863
-1.10854
-1.10726
-1.1072
-1.1053
-1.10524
-1.10234
-1.10231
-1.09822
-1.0982
-1.09235
-1.09236
-1.08443
-1.08445
-1.07386
-1.07391
-1.06018
-1.06023
-1.0429
-1.04298
-1.02189
-1.02199
-0.996886
-0.997008
-0.96757
-0.967707
-0.934863
-0.935024
-0.89891
-0.899088
-0.860642
-0.860843
-0.820758
-0.820977
-0.780503
-0.780745
-0.740618
-0.74088
-0.701911
-0.702195
-0.665647
-0.665951
-0.632252
-0.632579
-0.601502
-0.601849
-0.574108
-0.574478
-0.550032
-0.550424
-0.528734
-0.529148
-0.509998
-0.510434
-0.493464
-0.49392
-0.478992
-0.47947
-0.46606
-0.466558
-0.454429
-0.454947
-0.443874
-0.44441
-0.434349
-0.434905
-0.425596
-0.426166
-0.417411
-0.417999
-0.409995
-0.410597
-0.402945
-0.403563
-0.396269
-0.396898
-0.38982
-0.390465
-0.38361
-0.384262
-0.377284
-0.377952
-0.370969
-0.371644
-0.364408
-0.365098
-0.357504
-0.358199
-0.350257
-0.350968
-0.342616
-0.343331
-0.334227
-0.334957
-0.325402
-0.326135
-0.315766
-0.316517
-0.305286
-0.306039
-0.293854
-0.294626
-0.281947
-0.28272
-0.269011
-0.269805
-0.255723
-0.256516
-0.24201
-0.242827
-0.228576
-0.22939
-0.215364
-0.216202
-0.20298
-0.203812
-0.191668
-0.192528
-0.18183
-0.182678
-0.173221
-0.174097
-0.166524
-0.167384
-0.160884
-0.161775
-0.157051
-0.157922
-0.153994
-0.154903
-0.152404
-0.153294
-0.151117
-0.152058
-0.150773
-0.151994
-0.151117
-0.152062
-0.152786
-0.153385
-0.153999
-0.15491
-0.158452
-0.158097
-0.160901
-0.161733
-0.169594
-0.16773
-0.173706
-0.174551
-0.187852
-0.18422
-0.194206
-0.195219
-0.215241
-0.209741
-0.224399
-0.225606
-0.253706
-0.2461
-0.266855
-0.268215
-1.38647
-0.295712
-1.39861
-0.324389
-1.4575
-0.356932
-1.47094
-0.388647
-1.53172
-0.420845
-1.54291
-0.444495
-1.58319
-0.461369
-1.5849
-0.462906
-1.54638
-0.449962
-1.53072
-0.420456
-1.44715
-0.37618
-1.4224
-0.323624
-1.32234
-0.266583
-1.29857
-0.210648
-1.21505
-0.161657
-1.2
-0.122046
-1.14713
-0.0921984
-1.14081
-0.0720298
-1.11174
-0.058118
-1.11023
-0.0501222
-1.04731
-0.043852
-1.09228
-0.0406091
-1.01405
-0.0369405
-1.07941
-0.03482
-1.063
-0.0316542
-1.06915
-0.0296696
-1.05959
-0.0268471
-1.05958
-0.0249035
-1.0432
-0.0221811
-1.05037
-0.0203443
-1.02241
-0.01794
-1.04218
-0.0164128
-1.00557
-0.014468
-1.03575
-0.0134125
-1.01069
-0.0120716
-1.0315
-0.0114321
-1.02305
-0.0104996
-1.02864
-0.0100412
-1.02613
-0.00925097
-1.02608
-0.00869187
-1.02348
-0.00783724
-1.02336
-0.00714166
-1.02074
-0.00624738
-1.0206
-0.00548809
-1.01817
-0.00465072
-1.0181
-0.00402795
-1.01336
-0.00343269
-1.01618
-0.00303388
-1.01229
-0.00268883
-1.01492
-0.00244398
-1.01393
-0.00216531
-1.01391
-0.00192537
-1.01298
-0.00165528
-1.01296
-0.0014124
-1.01211
-0.00115568
-1.01209
-0.000943413
-1.01014
-0.000764337
-1.01155
-0.000670097
-1.01082
-0.000624606
-1.01143
-0.000612849
-1.01143
-0.000610463
-1.01143
-0.000610456
-1.01143
-0.000611268
-1.01143
-0.000611399
-1.01143
-0.000612134
-1.01143
-0.000612334
-1.01143
-0.000613076
-1.01143
-0.000613818
-1.01143
-0.000617164
-1.01142
-0.000624263
-1.01142
-0.000620286
-1.01139
-0.000583179
)
;

boundaryField
{
    walls
    {
        type            zeroGradient;
    }
    inlet
    {
        type            cyclic;
    }
    outlet
    {
        type            cyclic;
    }
    sides
    {
        type            empty;
    }
}


// ************************************************************************* //
