/*--------------------------------*- C++ -*----------------------------------*\
| =========                 |                                                 |
| \\      /  F ield         | OpenFOAM: The Open Source CFD Toolbox           |
|  \\    /   O peration     | Version:  2012                                  |
|   \\  /    A nd           | Website:  www.openfoam.com                      |
|    \\/     M anipulation  |                                                 |
\*---------------------------------------------------------------------------*/
FoamFile
{
    version     2.0;
    format      ascii;
    class       volScalarField;
    location    "17000";
    object      omega;
}
// * * * * * * * * * * * * * * * * * * * * * * * * * * * * * * * * * * * * * //

dimensions      [0 0 -1 0 0 0 0];


internalField   nonuniform List<scalar> 
2560
(
1.52415e+06
1.52415e+06
265169
265169
89885
89885
42384.8
42384.8
24022.6
24022.6
15256
15256
10456.1
10456.1
7565.98
7565.98
5700.52
5700.52
4431.2
4431.2
3531
3531
2870.97
2870.97
2373.65
2373.65
1990.29
1990.29
1689.01
1689.01
1448.29
1448.29
1253.19
1253.19
1093.07
1093.07
960.205
960.205
848.873
848.873
754.768
754.768
674.601
674.601
605.824
605.824
546.443
546.443
494.875
494.875
449.857
449.857
410.365
410.365
375.568
375.568
344.783
344.783
317.444
317.444
293.082
293.082
271.303
271.303
251.775
251.775
234.215
234.215
218.386
218.386
204.08
204.08
191.122
191.122
179.358
179.358
168.655
168.655
158.898
158.898
149.985
149.985
141.827
141.827
134.345
134.345
127.47
127.47
121.139
121.139
115.298
115.298
109.895
109.895
104.886
104.886
100.23
100.23
95.8913
95.8913
91.8364
91.8364
88.0361
88.0361
84.4644
84.4644
81.0981
81.0981
77.9175
77.9175
74.9063
74.9063
72.052
72.052
69.3461
69.3461
66.7841
66.7841
64.3645
64.3645
62.0881
62.0881
59.9562
59.9562
57.9697
57.9697
56.1275
56.1275
54.4264
54.4264
52.8611
52.8611
51.4249
51.4249
50.1092
50.1092
48.9051
48.9051
47.8028
47.8028
46.7924
46.7924
45.8642
45.8642
45.0085
45.0085
44.2161
44.2161
43.4786
43.4786
42.7877
42.7877
42.1361
42.1361
41.517
41.517
40.9245
40.9245
40.3531
40.3531
39.7982
39.7982
39.2556
39.2556
38.7218
38.7218
38.1939
38.1939
37.6694
37.6694
37.1461
37.1461
36.6224
36.6224
36.0969
36.0969
35.5684
35.5684
35.0363
35.0363
34.5001
34.5001
33.9598
33.9598
33.4155
33.4155
32.8677
32.8677
32.3172
32.3172
31.7649
31.7649
31.212
31.212
30.6596
30.6596
30.1089
30.1089
29.561
29.561
29.017
29.017
28.4778
28.4778
27.9441
27.9441
27.4163
27.4163
26.8948
26.8948
26.3796
26.3796
25.8708
25.8708
25.368
25.368
24.871
24.871
24.3792
24.3792
23.8922
23.8922
23.4093
23.4093
22.9298
22.9298
22.4532
22.4532
21.9788
21.9788
21.5061
21.5061
21.0346
21.0346
20.5641
20.5641
20.0945
20.0945
19.6258
19.6258
19.1583
19.1583
18.6923
18.6923
18.2286
18.2286
17.7677
17.7677
17.3105
17.3105
16.8578
16.8578
16.4105
16.4105
15.9692
15.9692
15.5347
15.5347
15.1075
15.1075
14.6882
14.6882
14.2771
14.2771
13.8745
13.8745
13.4806
13.4806
13.0954
13.0954
12.7191
12.7191
12.3516
12.3516
11.9931
11.9931
11.6433
11.6433
11.3024
11.3024
10.9704
10.9704
10.6473
10.6473
10.333
10.333
10.0276
10.0276
9.73106
9.73106
9.44341
9.44341
9.16463
9.16463
8.89467
8.89467
8.6335
8.6335
8.38103
8.38103
8.1372
8.1372
7.9019
7.9019
7.67502
7.67502
7.45643
7.45643
7.24601
7.24601
7.0436
7.0436
6.84907
6.84907
6.66227
6.66227
6.48305
6.48305
6.31126
6.31126
6.14674
6.14674
5.98934
5.98934
5.83893
5.83893
5.69534
5.69534
5.55843
5.55843
5.42806
5.42806
5.30406
5.30406
5.1863
5.1863
5.0746
5.0746
4.96883
4.96883
4.86879
4.86879
4.77434
4.77434
4.68529
4.68529
4.60145
4.60145
4.52265
4.52265
4.44868
4.44868
4.37933
4.37933
4.31438
4.31438
4.25358
4.25358
4.19667
4.19667
4.14336
4.14336
4.09332
4.09332
4.04621
4.04621
4.00163
4.00163
3.95919
3.95919
3.91847
3.91847
3.87903
3.87903
3.84046
3.84046
3.80233
3.80233
3.76427
3.76427
3.72593
3.72593
3.68699
3.68699
3.64721
3.64721
3.60638
3.60638
3.56436
3.56436
3.52104
3.52104
3.47637
3.47637
3.43035
3.43035
3.38301
3.38301
3.33442
3.33442
3.28466
3.28466
3.23387
3.23387
3.18216
3.18216
3.12969
3.12969
3.07661
3.07661
3.02309
3.02309
2.96928
2.96928
2.91536
2.91536
2.86149
2.86149
2.80786
2.80786
2.75461
2.75461
2.70192
2.70192
2.64994
2.64994
2.59883
2.59883
2.54873
2.54873
2.49977
2.49977
2.45207
2.45207
2.40572
2.40572
2.36083
2.36083
2.31744
2.31744
2.27561
2.27561
2.23538
2.23538
2.19675
2.19675
2.15974
2.15974
2.12432
2.12432
2.09046
2.09046
2.05812
2.05812
2.02723
2.02723
1.99771
1.99771
1.96946
1.96946
1.94235
1.94235
1.91625
1.91625
1.89101
1.89101
1.8665
1.8665
1.84255
1.84255
1.81904
1.81904
1.79584
1.79584
1.77285
1.77285
1.75001
1.75001
1.72727
1.72727
1.7046
1.7046
1.68199
1.68199
1.65947
1.65947
1.63703
1.63703
1.61472
1.61472
1.59256
1.59256
1.57057
1.57057
1.54876
1.54876
1.52715
1.52715
1.50575
1.50575
1.48454
1.48454
1.46353
1.46353
1.4427
1.4427
1.42202
1.42202
1.40149
1.40149
1.38109
1.38109
1.36079
1.36079
1.34057
1.34057
1.32043
1.32043
1.30035
1.30035
1.28032
1.28032
1.26035
1.26035
1.24043
1.24043
1.22058
1.22058
1.20081
1.20081
1.18114
1.18114
1.16159
1.16159
1.1422
1.1422
1.12298
1.12298
1.10397
1.10397
1.0852
1.0852
1.0667
1.0667
1.04851
1.04851
1.03063
1.03063
1.01311
1.01311
0.995952
0.995952
0.979188
0.979188
0.962834
0.962834
0.946907
0.946907
0.931423
0.931423
0.916399
0.916399
0.901851
0.901851
0.887792
0.887792
0.874237
0.874237
0.861196
0.861196
0.848678
0.848678
0.836689
0.836689
0.825232
0.825232
0.814305
0.814305
0.803902
0.803902
0.794015
0.794015
0.784629
0.784629
0.775727
0.775727
0.767288
0.767288
0.759288
0.759288
0.751701
0.751701
0.744503
0.744503
0.737666
0.737666
0.731165
0.731165
0.72498
0.72498
0.719089
0.719089
0.713479
0.713479
0.708137
0.708137
0.703054
0.703054
0.698227
0.698227
0.693651
0.693651
0.689326
0.689326
0.68525
0.68525
0.681419
0.681419
0.677831
0.677831
0.674477
0.674477
0.671348
0.671348
0.668432
0.668432
0.665718
0.665718
0.663198
0.663198
0.660872
0.660872
0.658755
0.658755
0.65689
0.65689
0.655357
0.655357
0.654181
0.654181
1.52415e+06
1.52415e+06
265169
265169
89885
89885
42384.8
42384.8
24022.6
24022.6
15256
15256
10456.1
10456.1
7565.98
7565.98
5700.52
5700.52
4431.2
4431.2
3531
3531
2870.97
2870.97
2373.65
2373.65
1990.29
1990.29
1689.01
1689.01
1448.29
1448.29
1253.19
1253.19
1093.07
1093.07
960.205
960.205
848.873
848.873
754.768
754.768
674.601
674.601
605.824
605.824
546.443
546.443
494.875
494.875
449.857
449.857
410.365
410.365
375.568
375.568
344.783
344.783
317.444
317.444
293.082
293.082
271.303
271.303
251.775
251.775
234.215
234.215
218.386
218.386
204.08
204.08
191.122
191.122
179.358
179.358
168.655
168.655
158.898
158.898
149.985
149.985
141.827
141.827
134.345
134.345
127.47
127.47
121.139
121.139
115.298
115.298
109.895
109.895
104.886
104.886
100.23
100.23
95.8913
95.8913
91.8364
91.8364
88.0361
88.0361
84.4644
84.4644
81.0981
81.0981
77.9175
77.9175
74.9063
74.9063
72.052
72.052
69.3461
69.3461
66.7841
66.7841
64.3645
64.3645
62.0881
62.0881
59.9562
59.9562
57.9697
57.9697
56.1275
56.1275
54.4264
54.4264
52.8611
52.8611
51.4249
51.4249
50.1092
50.1092
48.9051
48.9051
47.8028
47.8028
46.7924
46.7924
45.8642
45.8642
45.0085
45.0085
44.2161
44.2161
43.4786
43.4786
42.7877
42.7877
42.1361
42.1361
41.517
41.517
40.9245
40.9245
40.3531
40.3531
39.7982
39.7982
39.2556
39.2556
38.7218
38.7218
38.1939
38.1939
37.6694
37.6694
37.1461
37.1461
36.6224
36.6224
36.0969
36.0969
35.5684
35.5684
35.0363
35.0363
34.5001
34.5001
33.9598
33.9598
33.4155
33.4155
32.8677
32.8677
32.3172
32.3172
31.7649
31.7649
31.212
31.212
30.6596
30.6596
30.1089
30.1089
29.561
29.561
29.017
29.017
28.4778
28.4778
27.9441
27.9441
27.4163
27.4163
26.8948
26.8948
26.3796
26.3796
25.8708
25.8708
25.368
25.368
24.871
24.871
24.3792
24.3792
23.8922
23.8922
23.4093
23.4093
22.9298
22.9298
22.4532
22.4532
21.9788
21.9788
21.5061
21.5061
21.0346
21.0346
20.5641
20.5641
20.0945
20.0945
19.6258
19.6258
19.1583
19.1583
18.6923
18.6923
18.2286
18.2286
17.7677
17.7677
17.3105
17.3105
16.8578
16.8578
16.4105
16.4105
15.9692
15.9692
15.5347
15.5347
15.1075
15.1075
14.6882
14.6882
14.2771
14.2771
13.8745
13.8745
13.4806
13.4806
13.0954
13.0954
12.7191
12.7191
12.3516
12.3516
11.9931
11.9931
11.6433
11.6433
11.3024
11.3024
10.9704
10.9704
10.6473
10.6473
10.333
10.333
10.0276
10.0276
9.73106
9.73106
9.44341
9.44341
9.16463
9.16463
8.89467
8.89467
8.6335
8.6335
8.38103
8.38103
8.1372
8.1372
7.9019
7.9019
7.67502
7.67502
7.45643
7.45643
7.246
7.246
7.0436
7.0436
6.84907
6.84907
6.66227
6.66227
6.48305
6.48305
6.31126
6.31126
6.14674
6.14674
5.98934
5.98934
5.83893
5.83893
5.69534
5.69534
5.55843
5.55843
5.42806
5.42806
5.30406
5.30406
5.1863
5.1863
5.0746
5.0746
4.96882
4.96882
4.86879
4.86879
4.77434
4.77434
4.68529
4.68529
4.60145
4.60145
4.52265
4.52265
4.44868
4.44868
4.37933
4.37933
4.31438
4.31438
4.25358
4.25358
4.19667
4.19667
4.14336
4.14336
4.09332
4.09332
4.04621
4.04621
4.00163
4.00163
3.95919
3.95919
3.91847
3.91847
3.87903
3.87903
3.84046
3.84046
3.80233
3.80233
3.76427
3.76427
3.72592
3.72592
3.68699
3.68699
3.64721
3.64721
3.60638
3.60638
3.56436
3.56436
3.52103
3.52103
3.47637
3.47637
3.43035
3.43035
3.38301
3.38301
3.33442
3.33442
3.28466
3.28466
3.23387
3.23387
3.18216
3.18216
3.12969
3.12969
3.07661
3.07661
3.02308
3.02308
2.96928
2.96928
2.91536
2.91536
2.86149
2.86149
2.80786
2.80786
2.75461
2.75461
2.70192
2.70192
2.64994
2.64994
2.59883
2.59883
2.54873
2.54873
2.49977
2.49977
2.45207
2.45207
2.40572
2.40572
2.36083
2.36083
2.31744
2.31744
2.27561
2.27561
2.23538
2.23538
2.19675
2.19675
2.15974
2.15974
2.12432
2.12432
2.09046
2.09046
2.05812
2.05812
2.02723
2.02723
1.99771
1.99771
1.96946
1.96946
1.94235
1.94235
1.91625
1.91625
1.89101
1.89101
1.8665
1.8665
1.84255
1.84255
1.81904
1.81904
1.79584
1.79584
1.77285
1.77285
1.75001
1.75001
1.72727
1.72727
1.7046
1.7046
1.68199
1.68199
1.65947
1.65947
1.63703
1.63703
1.61472
1.61472
1.59256
1.59256
1.57057
1.57057
1.54876
1.54876
1.52715
1.52715
1.50575
1.50575
1.48454
1.48454
1.46353
1.46353
1.4427
1.4427
1.42202
1.42202
1.40149
1.40149
1.38109
1.38109
1.36079
1.36079
1.34057
1.34057
1.32043
1.32043
1.30035
1.30035
1.28032
1.28032
1.26035
1.26035
1.24043
1.24043
1.22058
1.22058
1.20081
1.20081
1.18114
1.18114
1.16159
1.16159
1.1422
1.1422
1.12298
1.12298
1.10397
1.10397
1.0852
1.0852
1.0667
1.0667
1.04851
1.04851
1.03063
1.03063
1.01311
1.01311
0.995952
0.995952
0.979188
0.979188
0.962834
0.962834
0.946907
0.946907
0.931423
0.931423
0.916399
0.916399
0.901851
0.901851
0.887793
0.887793
0.874237
0.874237
0.861196
0.861196
0.848678
0.848678
0.836689
0.836689
0.825232
0.825232
0.814305
0.814305
0.803902
0.803902
0.794015
0.794015
0.784629
0.784629
0.775727
0.775727
0.767288
0.767288
0.759288
0.759288
0.751701
0.751701
0.744503
0.744503
0.737665
0.737665
0.731165
0.731165
0.72498
0.72498
0.719089
0.719089
0.713479
0.713479
0.708137
0.708137
0.703054
0.703054
0.698226
0.698226
0.693651
0.693651
0.689326
0.689326
0.685249
0.685249
0.681419
0.681419
0.677831
0.677831
0.674477
0.674477
0.671348
0.671348
0.668432
0.668432
0.665718
0.665718
0.663198
0.663198
0.660872
0.660872
0.658756
0.658756
0.65689
0.65689
0.655357
0.655357
0.654181
0.654181
0.654181
0.654181
0.655357
0.655357
0.656891
0.656891
0.658756
0.658756
0.660873
0.660873
0.663199
0.663199
0.665719
0.665719
0.668433
0.668433
0.671349
0.671349
0.674477
0.674477
0.67783
0.67783
0.681418
0.681418
0.685248
0.685248
0.689324
0.689324
0.69365
0.69365
0.698226
0.698226
0.703055
0.703055
0.708138
0.708138
0.713481
0.713481
0.719091
0.719091
0.724982
0.724982
0.731168
0.731168
0.737669
0.737669
0.744506
0.744506
0.751705
0.751705
0.759291
0.759291
0.767291
0.767291
0.775729
0.775729
0.784631
0.784631
0.794017
0.794017
0.803903
0.803903
0.814305
0.814305
0.825232
0.825232
0.836689
0.836689
0.848678
0.848678
0.861197
0.861197
0.874238
0.874238
0.887794
0.887794
0.901853
0.901853
0.916401
0.916401
0.931425
0.931425
0.946908
0.946908
0.962836
0.962836
0.97919
0.97919
0.995954
0.995954
1.01311
1.01311
1.03063
1.03063
1.04851
1.04851
1.06671
1.06671
1.0852
1.0852
1.10397
1.10397
1.12298
1.12298
1.1422
1.1422
1.16159
1.16159
1.18114
1.18114
1.20081
1.20081
1.22058
1.22058
1.24043
1.24043
1.26034
1.26034
1.28032
1.28032
1.30034
1.30034
1.32042
1.32042
1.34057
1.34057
1.36078
1.36078
1.38108
1.38108
1.40149
1.40149
1.42202
1.42202
1.44269
1.44269
1.46353
1.46353
1.48454
1.48454
1.50575
1.50575
1.52715
1.52715
1.54876
1.54876
1.57057
1.57057
1.59256
1.59256
1.61472
1.61472
1.63703
1.63703
1.65946
1.65946
1.68199
1.68199
1.7046
1.7046
1.72727
1.72727
1.75001
1.75001
1.77285
1.77285
1.79584
1.79584
1.81904
1.81904
1.84255
1.84255
1.8665
1.8665
1.89102
1.89102
1.91625
1.91625
1.94235
1.94235
1.96946
1.96946
1.99772
1.99772
2.02724
2.02724
2.05813
2.05813
2.09047
2.09047
2.12433
2.12433
2.15975
2.15975
2.19676
2.19676
2.23538
2.23538
2.27562
2.27562
2.31744
2.31744
2.36083
2.36083
2.40573
2.40573
2.45208
2.45208
2.49978
2.49978
2.54874
2.54874
2.59885
2.59885
2.64996
2.64996
2.70193
2.70193
2.75463
2.75463
2.80787
2.80787
2.86151
2.86151
2.91538
2.91538
2.9693
2.9693
3.02311
3.02311
3.07663
3.07663
3.12971
3.12971
3.18219
3.18219
3.23389
3.23389
3.28469
3.28469
3.33444
3.33444
3.38304
3.38304
3.43038
3.43038
3.4764
3.4764
3.52107
3.52107
3.56439
3.56439
3.60642
3.60642
3.64725
3.64725
3.68703
3.68703
3.72596
3.72596
3.76431
3.76431
3.80237
3.80237
3.8405
3.8405
3.87908
3.87908
3.91852
3.91852
3.95925
3.95925
4.00169
4.00169
4.04627
4.04627
4.09339
4.09339
4.14343
4.14343
4.19674
4.19674
4.25365
4.25365
4.31445
4.31445
4.37941
4.37941
4.44876
4.44876
4.52274
4.52274
4.60154
4.60154
4.68538
4.68538
4.77444
4.77444
4.8689
4.8689
4.96893
4.96893
5.07472
5.07472
5.18641
5.18641
5.30418
5.30418
5.42818
5.42818
5.55856
5.55856
5.69548
5.69548
5.83907
5.83907
5.98949
5.98949
6.14689
6.14689
6.31141
6.31141
6.48321
6.48321
6.66244
6.66244
6.84925
6.84925
7.04378
7.04378
7.24619
7.24619
7.45662
7.45662
7.67521
7.67521
7.9021
7.9021
8.13741
8.13741
8.38124
8.38124
8.63371
8.63371
8.89489
8.89489
9.16485
9.16485
9.44364
9.44364
9.73129
9.73129
10.0278
10.0278
10.3332
10.3332
10.6475
10.6475
10.9707
10.9707
11.3027
11.3027
11.6436
11.6436
11.9933
11.9933
12.3519
12.3519
12.7193
12.7193
13.0957
13.0957
13.4808
13.4808
13.8748
13.8748
14.2774
14.2774
14.6885
14.6885
15.1078
15.1078
15.5349
15.5349
15.9694
15.9694
16.4107
16.4107
16.8581
16.8581
17.3108
17.3108
17.768
17.768
18.2289
18.2289
18.6926
18.6926
19.1586
19.1586
19.6261
19.6261
20.0948
20.0948
20.5645
20.5645
21.035
21.035
21.5064
21.5064
21.9792
21.9792
22.4536
22.4536
22.9302
22.9302
23.4097
23.4097
23.8926
23.8926
24.3797
24.3797
24.8714
24.8714
25.3684
25.3684
25.8712
25.8712
26.38
26.38
26.8952
26.8952
27.4167
27.4167
27.9445
27.9445
28.4782
28.4782
29.0174
29.0174
29.5614
29.5614
30.1092
30.1092
30.6599
30.6599
31.2123
31.2123
31.7652
31.7652
32.3174
32.3174
32.8679
32.8679
33.4157
33.4157
33.96
33.96
34.5003
34.5003
35.0365
35.0365
35.5686
35.5686
36.097
36.097
36.6226
36.6226
37.1463
37.1463
37.6695
37.6695
38.194
38.194
38.7218
38.7218
39.2555
39.2555
39.7981
39.7981
40.353
40.353
40.9243
40.9243
41.5168
41.5168
42.1358
42.1358
42.7874
42.7874
43.4782
43.4782
44.2158
44.2158
45.0081
45.0081
45.8637
45.8637
46.7918
46.7918
47.8021
47.8021
48.9043
48.9043
50.1083
50.1083
51.4238
51.4238
52.8599
52.8599
54.4249
54.4249
56.1258
56.1258
57.9679
57.9679
59.9542
59.9542
62.0858
62.0858
64.362
64.362
66.7815
66.7815
69.3435
69.3435
72.0494
72.0494
74.9038
74.9038
77.9151
77.9151
81.0958
81.0958
84.4623
84.4623
88.0342
88.0342
91.8347
91.8347
95.8897
95.8897
100.229
100.229
104.885
104.885
109.894
109.894
115.297
115.297
121.139
121.139
127.469
127.469
134.345
134.345
141.826
141.826
149.985
149.985
158.898
158.898
168.655
168.655
179.358
179.358
191.122
191.122
204.08
204.08
218.386
218.386
234.215
234.215
251.775
251.775
271.303
271.303
293.082
293.082
317.444
317.444
344.783
344.783
375.568
375.568
410.365
410.365
449.857
449.857
494.875
494.875
546.443
546.443
605.824
605.824
674.601
674.601
754.768
754.768
848.873
848.873
960.205
960.205
1093.07
1093.07
1253.19
1253.19
1448.29
1448.29
1689.01
1689.01
1990.29
1990.29
2373.65
2373.65
2870.97
2870.97
3531
3531
4431.2
4431.2
5700.53
5700.53
7565.98
7565.98
10456.1
10456.1
15256
15256
24022.6
24022.6
42384.8
42384.8
89885.2
89885.2
265169
265169
1.52416e+06
1.52416e+06
0.654181
0.654181
0.655358
0.655358
0.656891
0.656891
0.658757
0.658757
0.660873
0.660873
0.663199
0.663199
0.665719
0.665719
0.668433
0.668433
0.671349
0.671349
0.674477
0.674477
0.67783
0.67783
0.681418
0.681418
0.685248
0.685248
0.689324
0.689324
0.69365
0.69365
0.698226
0.698226
0.703055
0.703055
0.708138
0.708138
0.713481
0.713481
0.719091
0.719091
0.724982
0.724982
0.731168
0.731168
0.737669
0.737669
0.744506
0.744506
0.751705
0.751705
0.759291
0.759291
0.76729
0.76729
0.775729
0.775729
0.784631
0.784631
0.794017
0.794017
0.803903
0.803903
0.814305
0.814305
0.825232
0.825232
0.836689
0.836689
0.848678
0.848678
0.861197
0.861197
0.874238
0.874238
0.887794
0.887794
0.901853
0.901853
0.916401
0.916401
0.931425
0.931425
0.946909
0.946909
0.962836
0.962836
0.97919
0.97919
0.995954
0.995954
1.01311
1.01311
1.03063
1.03063
1.04851
1.04851
1.06671
1.06671
1.0852
1.0852
1.10397
1.10397
1.12298
1.12298
1.1422
1.1422
1.16159
1.16159
1.18114
1.18114
1.20081
1.20081
1.22058
1.22058
1.24043
1.24043
1.26034
1.26034
1.28032
1.28032
1.30034
1.30034
1.32042
1.32042
1.34057
1.34057
1.36078
1.36078
1.38108
1.38108
1.40149
1.40149
1.42202
1.42202
1.44269
1.44269
1.46353
1.46353
1.48454
1.48454
1.50575
1.50575
1.52715
1.52715
1.54876
1.54876
1.57057
1.57057
1.59256
1.59256
1.61472
1.61472
1.63703
1.63703
1.65946
1.65946
1.68199
1.68199
1.7046
1.7046
1.72727
1.72727
1.75001
1.75001
1.77285
1.77285
1.79584
1.79584
1.81904
1.81904
1.84255
1.84255
1.8665
1.8665
1.89102
1.89102
1.91625
1.91625
1.94235
1.94235
1.96946
1.96946
1.99772
1.99772
2.02724
2.02724
2.05813
2.05813
2.09047
2.09047
2.12433
2.12433
2.15975
2.15975
2.19676
2.19676
2.23538
2.23538
2.27562
2.27562
2.31744
2.31744
2.36083
2.36083
2.40573
2.40573
2.45208
2.45208
2.49978
2.49978
2.54874
2.54874
2.59885
2.59885
2.64996
2.64996
2.70193
2.70193
2.75463
2.75463
2.80787
2.80787
2.86151
2.86151
2.91538
2.91538
2.9693
2.9693
3.0231
3.0231
3.07663
3.07663
3.12971
3.12971
3.18219
3.18219
3.23389
3.23389
3.28469
3.28469
3.33444
3.33444
3.38304
3.38304
3.43038
3.43038
3.4764
3.4764
3.52107
3.52107
3.56439
3.56439
3.60642
3.60642
3.64725
3.64725
3.68703
3.68703
3.72596
3.72596
3.76431
3.76431
3.80237
3.80237
3.8405
3.8405
3.87908
3.87908
3.91852
3.91852
3.95925
3.95925
4.00169
4.00169
4.04627
4.04627
4.09339
4.09339
4.14343
4.14343
4.19674
4.19674
4.25365
4.25365
4.31445
4.31445
4.37941
4.37941
4.44876
4.44876
4.52274
4.52274
4.60154
4.60154
4.68538
4.68538
4.77444
4.77444
4.8689
4.8689
4.96893
4.96893
5.07472
5.07472
5.18641
5.18641
5.30418
5.30418
5.42818
5.42818
5.55856
5.55856
5.69547
5.69547
5.83907
5.83907
5.98949
5.98949
6.14689
6.14689
6.31141
6.31141
6.48321
6.48321
6.66244
6.66244
6.84924
6.84924
7.04378
7.04378
7.24619
7.24619
7.45662
7.45662
7.67521
7.67521
7.9021
7.9021
8.1374
8.1374
8.38124
8.38124
8.63371
8.63371
8.89489
8.89489
9.16485
9.16485
9.44364
9.44364
9.73129
9.73129
10.0278
10.0278
10.3332
10.3332
10.6475
10.6475
10.9707
10.9707
11.3027
11.3027
11.6436
11.6436
11.9933
11.9933
12.3519
12.3519
12.7193
12.7193
13.0957
13.0957
13.4808
13.4808
13.8748
13.8748
14.2774
14.2774
14.6885
14.6885
15.1078
15.1078
15.5349
15.5349
15.9694
15.9694
16.4107
16.4107
16.8581
16.8581
17.3108
17.3108
17.768
17.768
18.2289
18.2289
18.6926
18.6926
19.1586
19.1586
19.6261
19.6261
20.0948
20.0948
20.5645
20.5645
21.035
21.035
21.5064
21.5064
21.9792
21.9792
22.4536
22.4536
22.9302
22.9302
23.4097
23.4097
23.8926
23.8926
24.3797
24.3797
24.8714
24.8714
25.3684
25.3684
25.8712
25.8712
26.38
26.38
26.8952
26.8952
27.4167
27.4167
27.9445
27.9445
28.4782
28.4782
29.0174
29.0174
29.5614
29.5614
30.1092
30.1092
30.6599
30.6599
31.2123
31.2123
31.7652
31.7652
32.3174
32.3174
32.8679
32.8679
33.4157
33.4157
33.96
33.96
34.5003
34.5003
35.0365
35.0365
35.5686
35.5686
36.097
36.097
36.6226
36.6226
37.1462
37.1462
37.6695
37.6695
38.194
38.194
38.7218
38.7218
39.2555
39.2555
39.7981
39.7981
40.353
40.353
40.9243
40.9243
41.5168
41.5168
42.1358
42.1358
42.7874
42.7874
43.4782
43.4782
44.2158
44.2158
45.0081
45.0081
45.8637
45.8637
46.7918
46.7918
47.8021
47.8021
48.9043
48.9043
50.1083
50.1083
51.4238
51.4238
52.8599
52.8599
54.4249
54.4249
56.1258
56.1258
57.9679
57.9679
59.9542
59.9542
62.0858
62.0858
64.362
64.362
66.7815
66.7815
69.3435
69.3435
72.0494
72.0494
74.9038
74.9038
77.9151
77.9151
81.0958
81.0958
84.4623
84.4623
88.0342
88.0342
91.8347
91.8347
95.8897
95.8897
100.229
100.229
104.885
104.885
109.894
109.894
115.297
115.297
121.139
121.139
127.469
127.469
134.345
134.345
141.826
141.826
149.985
149.985
158.898
158.898
168.655
168.655
179.358
179.358
191.122
191.122
204.08
204.08
218.386
218.386
234.215
234.215
251.775
251.775
271.303
271.303
293.082
293.082
317.444
317.444
344.783
344.783
375.568
375.568
410.365
410.365
449.857
449.857
494.875
494.875
546.443
546.443
605.824
605.824
674.601
674.601
754.768
754.768
848.873
848.873
960.205
960.205
1093.07
1093.07
1253.19
1253.19
1448.29
1448.29
1689.01
1689.01
1990.29
1990.29
2373.65
2373.65
2870.97
2870.97
3531
3531
4431.2
4431.2
5700.53
5700.53
7565.98
7565.98
10456.1
10456.1
15256
15256
24022.6
24022.6
42384.8
42384.8
89885.2
89885.2
265169
265169
1.52416e+06
1.52416e+06
)
;

boundaryField
{
    walls
    {
        blending        binomial2;
        n               2;
        beta1           0.075;
        type            omegaWallFunction;
        value           nonuniform List<scalar> 8(1.52415e+06 1.52415e+06 1.52415e+06 1.52415e+06 1.52416e+06 1.52416e+06 1.52416e+06 1.52416e+06);
    }
    inlet
    {
        type            cyclic;
    }
    outlet
    {
        type            cyclic;
    }
    sides
    {
        type            empty;
    }
}


// ************************************************************************* //
