/*--------------------------------*- C++ -*----------------------------------*\
| =========                 |                                                 |
| \\      /  F ield         | OpenFOAM: The Open Source CFD Toolbox           |
|  \\    /   O peration     | Version:  2012                                  |
|   \\  /    A nd           | Website:  www.openfoam.com                      |
|    \\/     M anipulation  |                                                 |
\*---------------------------------------------------------------------------*/
FoamFile
{
    version     2.0;
    format      ascii;
    class       surfaceScalarField;
    location    "17000";
    object      phi;
}
// * * * * * * * * * * * * * * * * * * * * * * * * * * * * * * * * * * * * * //

dimensions      [0 3 -1 0 0 0 0];
oriented        oriented;


internalField   nonuniform List<scalar> 
5116
(
1.52382e-08
7.15467e-12
-3.20325e-13
4.91457e-13
-3.23095e-13
4.65983e-08
9.65435e-12
-1.78252e-12
2.63652e-12
-1.791e-12
7.93219e-08
1.14214e-11
-1.86192e-12
4.72811e-12
-1.86958e-12
1.13455e-07
1.41263e-11
-1.94492e-12
7.06395e-12
-1.95204e-12
1.49045e-07
1.60348e-11
-2.03171e-12
9.29796e-12
-2.03854e-12
1.86141e-07
1.89318e-11
-2.12249e-12
1.18423e-11
-2.12917e-12
2.24793e-07
2.09694e-11
-2.21747e-12
1.42162e-11
-2.22407e-12
2.65049e-07
2.40668e-11
-2.31685e-12
1.69837e-11
-2.32343e-12
3.0696e-07
2.62628e-11
-2.42086e-12
1.95334e-11
-2.42745e-12
3.50581e-07
2.95814e-11
-2.52973e-12
2.25455e-11
-2.53634e-12
3.95966e-07
3.19491e-11
-2.64372e-12
2.52738e-11
-2.65037e-12
4.43173e-07
3.55098e-11
-2.76313e-12
2.85472e-11
-2.76983e-12
4.92259e-07
3.80853e-11
-2.88834e-12
3.14906e-11
-2.89499e-12
5.43283e-07
4.19155e-11
-3.01968e-12
3.50467e-11
-3.02615e-12
5.96305e-07
4.47188e-11
-3.15713e-12
3.82083e-11
-3.16339e-12
6.51381e-07
4.88423e-11
-3.30058e-12
4.20665e-11
-3.30671e-12
7.08568e-07
5.19061e-11
-3.45029e-12
4.54866e-11
-3.45641e-12
7.67925e-07
5.6347e-11
-3.6066e-12
4.96745e-11
-3.61271e-12
8.29513e-07
5.96912e-11
-3.76982e-12
5.33651e-11
-3.77589e-12
8.93402e-07
6.44742e-11
-3.94013e-12
5.79061e-11
-3.94619e-12
9.59663e-07
6.81339e-11
-4.11777e-12
6.19091e-11
-4.1238e-12
1.02837e-06
7.3287e-11
-4.30284e-12
6.68313e-11
-4.30884e-12
1.09958e-06
7.72866e-11
-4.49546e-12
7.11607e-11
-4.50143e-12
1.17337e-06
8.28367e-11
-4.69562e-12
7.64889e-11
-4.70156e-12
1.2498e-06
8.72118e-11
-4.9033e-12
8.11863e-11
-4.90919e-12
1.32893e-06
9.3187e-11
-5.11829e-12
8.69486e-11
-5.12414e-12
1.41083e-06
9.79628e-11
-5.34035e-12
9.20303e-11
-5.34613e-12
1.49557e-06
1.04388e-10
-5.56901e-12
9.82489e-11
-5.57474e-12
1.5832e-06
1.09595e-10
-5.80375e-12
1.03752e-10
-5.80942e-12
1.67379e-06
1.1649e-10
-6.04379e-12
1.10447e-10
-6.04938e-12
1.76741e-06
1.22146e-10
-6.28822e-12
1.16379e-10
-6.29373e-12
1.86411e-06
1.29526e-10
-6.53587e-12
1.23562e-10
-6.54129e-12
1.96397e-06
1.35648e-10
-6.78545e-12
1.29945e-10
-6.79077e-12
2.06707e-06
1.43515e-10
-7.03538e-12
1.37619e-10
-7.0406e-12
2.17349e-06
1.50101e-10
-7.28403e-12
1.44445e-10
-7.28912e-12
2.28331e-06
1.58447e-10
-7.52953e-12
1.52599e-10
-7.53448e-12
2.39658e-06
1.65491e-10
-7.77e-12
1.59864e-10
-7.77482e-12
2.51337e-06
1.74292e-10
-8.00343e-12
1.68474e-10
-8.00811e-12
2.63371e-06
1.81764e-10
-8.22802e-12
1.76143e-10
-8.23252e-12
2.75765e-06
1.90982e-10
-8.44194e-12
1.85168e-10
-8.44628e-12
2.8852e-06
1.98848e-10
-8.64374e-12
1.9321e-10
-8.64789e-12
3.0164e-06
2.08431e-10
-8.83213e-12
2.02598e-10
-8.8361e-12
3.15129e-06
2.16637e-10
-9.00633e-12
2.10956e-10
-9.01009e-12
3.28993e-06
2.26526e-10
-9.16582e-12
2.20647e-10
-9.16937e-12
3.43239e-06
2.3502e-10
-9.31067e-12
2.29272e-10
-9.314e-12
3.57877e-06
2.45156e-10
-9.44126e-12
2.39205e-10
-9.44436e-12
3.72915e-06
2.53887e-10
-9.55849e-12
2.48042e-10
-9.56136e-12
3.88359e-06
2.64214e-10
-9.6635e-12
2.58161e-10
-9.66613e-12
4.04215e-06
2.73138e-10
-9.75778e-12
2.67171e-10
-9.76018e-12
4.20484e-06
2.8361e-10
-9.8429e-12
2.77432e-10
-9.84507e-12
4.37164e-06
2.92696e-10
-9.92072e-12
2.86579e-10
-9.92265e-12
4.54253e-06
3.03284e-10
-9.99285e-12
2.9695e-10
-9.99455e-12
4.71741e-06
3.1251e-10
-1.00608e-11
3.06218e-10
-1.00623e-11
4.89608e-06
3.23197e-10
-1.01258e-11
3.16683e-10
-1.0127e-11
5.07819e-06
3.32561e-10
-1.01879e-11
3.26066e-10
-1.01889e-11
5.26311e-06
3.43333e-10
-1.02458e-11
3.36611e-10
-1.02466e-11
5.44994e-06
3.52815e-10
-1.02962e-11
3.46092e-10
-1.02967e-11
5.63746e-06
3.63637e-10
-1.03315e-11
3.56681e-10
-1.03318e-11
5.82424e-06
3.73175e-10
-1.03371e-11
3.66199e-10
-1.03373e-11
6.0088e-06
3.83914e-10
-1.02855e-11
3.76703e-10
-1.02854e-11
6.18988e-06
3.93249e-10
-1.01256e-11
3.86006e-10
-1.01255e-11
6.36666e-06
4.03426e-10
-9.76361e-12
3.95952e-10
-9.76349e-12
6.539e-06
4.1168e-10
-9.03032e-12
4.0418e-10
-9.03055e-12
6.70751e-06
4.19644e-10
-7.60841e-12
4.11958e-10
-7.61009e-12
6.87352e-06
4.23432e-10
-4.59618e-12
4.15799e-10
-4.59747e-12
7.03886e-06
4.23545e-10
1.26178e-13
4.15883e-10
1.2358e-13
7.20564e-06
4.18744e-10
3.92639e-12
4.1131e-10
3.92087e-12
7.37597e-06
4.13232e-10
5.65436e-12
4.05886e-10
5.64874e-12
7.55178e-06
4.05801e-10
6.54428e-12
3.98721e-10
6.5383e-12
7.73466e-06
3.98914e-10
6.97804e-12
3.91942e-10
6.9719e-12
7.92586e-06
3.90893e-10
7.15628e-12
3.84189e-10
7.15018e-12
8.12628e-06
3.83752e-10
7.19251e-12
3.77151e-10
7.18652e-12
8.33653e-06
3.7575e-10
7.15097e-12
3.69403e-10
7.14513e-12
8.55705e-06
3.68692e-10
7.06824e-12
3.62437e-10
7.06255e-12
8.78807e-06
3.60904e-10
6.96485e-12
3.54887e-10
6.95932e-12
9.02976e-06
3.54021e-10
6.85252e-12
3.48083e-10
6.84717e-12
9.28216e-06
3.46469e-10
6.73767e-12
3.40752e-10
6.73248e-12
9.54526e-06
3.39771e-10
6.62387e-12
3.34119e-10
6.61883e-12
9.81896e-06
3.32472e-10
6.51278e-12
3.27026e-10
6.50788e-12
1.01031e-05
3.2595e-10
6.40511e-12
3.20553e-10
6.40034e-12
1.03976e-05
3.1887e-10
6.30062e-12
3.13665e-10
6.29595e-12
1.07021e-05
3.12506e-10
6.19835e-12
3.07338e-10
6.19383e-12
1.10165e-05
3.05651e-10
6.09627e-12
3.00667e-10
6.09159e-12
1.13406e-05
2.99447e-10
5.98892e-12
2.9449e-10
5.9849e-12
1.16743e-05
2.92826e-10
5.85683e-12
2.88061e-10
5.84998e-12
1.20172e-05
2.86789e-10
5.74926e-12
2.82083e-10
5.74554e-12
1.23693e-05
2.80327e-10
5.68455e-12
2.75866e-10
5.68566e-12
1.27303e-05
2.74348e-10
5.61359e-12
2.69989e-10
5.61267e-12
1.31e-05
2.68015e-10
5.54178e-12
2.63928e-10
5.54134e-12
1.3478e-05
2.6212e-10
5.47193e-12
2.58137e-10
5.47135e-12
1.38642e-05
2.55939e-10
5.40369e-12
2.52233e-10
5.40323e-12
1.4258e-05
2.50128e-10
5.33716e-12
2.46518e-10
5.33678e-12
1.46589e-05
2.4408e-10
5.27211e-12
2.40743e-10
5.27185e-12
1.50667e-05
2.3835e-10
5.20837e-12
2.35096e-10
5.20822e-12
1.54807e-05
2.32449e-10
5.14568e-12
2.29466e-10
5.14565e-12
1.59007e-05
2.26799e-10
5.0838e-12
2.23886e-10
5.08389e-12
1.63262e-05
2.21026e-10
5.02248e-12
2.1838e-10
5.02268e-12
1.67571e-05
2.15456e-10
4.96146e-12
2.12864e-10
4.96179e-12
1.71934e-05
2.09826e-10
4.90056e-12
2.07501e-10
4.90099e-12
1.76349e-05
2.04339e-10
4.83951e-12
2.02053e-10
4.84005e-12
1.8082e-05
1.98841e-10
4.77818e-12
1.96819e-10
4.77883e-12
1.8535e-05
1.93441e-10
4.71636e-12
1.91441e-10
4.71712e-12
1.89942e-05
1.8809e-10
4.65399e-12
1.86357e-10
4.65486e-12
1.94602e-05
1.82785e-10
4.59091e-12
1.81058e-10
4.59188e-12
1.99334e-05
1.77574e-10
4.52714e-12
1.76112e-10
4.52822e-12
2.04146e-05
1.72369e-10
4.46257e-12
1.70896e-10
4.46375e-12
2.09042e-05
1.67314e-10
4.3973e-12
1.66109e-10
4.39857e-12
2.14027e-05
1.62217e-10
4.33124e-12
1.60986e-10
4.33261e-12
2.19108e-05
1.57311e-10
4.26457e-12
1.56347e-10
4.26605e-12
2.24288e-05
1.52328e-10
4.19723e-12
1.5132e-10
4.19881e-12
2.29572e-05
1.47585e-10
4.12945e-12
1.46849e-10
4.13113e-12
2.34962e-05
1.42724e-10
4.06116e-12
1.41926e-10
4.06294e-12
2.40461e-05
1.38136e-10
3.99266e-12
1.37613e-10
3.99454e-12
2.46069e-05
1.33401e-10
3.92386e-12
1.32796e-10
3.92585e-12
2.51786e-05
1.28977e-10
3.85509e-12
1.28655e-10
3.85718e-12
2.5761e-05
1.24373e-10
3.78621e-12
1.23952e-10
3.78842e-12
2.63538e-05
1.20108e-10
3.71758e-12
1.19972e-10
3.7199e-12
2.69562e-05
1.15638e-10
3.64904e-12
1.15382e-10
3.65147e-12
2.75678e-05
1.11534e-10
3.5809e-12
1.11574e-10
3.58346e-12
2.81877e-05
1.072e-10
3.51293e-12
1.07101e-10
3.51562e-12
2.88151e-05
1.03253e-10
3.44546e-12
1.03455e-10
3.44828e-12
2.94489e-05
9.90579e-11
3.37817e-12
9.9101e-11
3.38114e-12
3.00883e-05
9.52666e-11
3.31138e-12
9.5624e-11
3.31451e-12
3.07325e-05
9.12138e-11
3.24471e-12
9.13906e-11
3.248e-12
3.13809e-05
8.7577e-11
3.17848e-12
8.80749e-11
3.18194e-12
3.20329e-05
8.36687e-11
3.11225e-12
8.39635e-11
3.11591e-12
3.26883e-05
8.0182e-11
3.04638e-12
8.08151e-11
3.05025e-12
3.33471e-05
7.64213e-11
2.98041e-12
7.6829e-11
2.98451e-12
3.40093e-05
7.30867e-11
2.91475e-12
7.38428e-11
2.91908e-12
3.46754e-05
6.94777e-11
2.84889e-12
6.99842e-11
2.85349e-12
3.53458e-05
6.62906e-11
2.7833e-12
6.71647e-11
2.7882e-12
3.60211e-05
6.2837e-11
2.7175e-12
6.34371e-11
2.72273e-12
3.67018e-05
5.98018e-11
2.65202e-12
6.07808e-11
2.6576e-12
3.73886e-05
5.65077e-11
2.58634e-12
5.71861e-11
2.59233e-12
3.80819e-05
5.36146e-11
2.52107e-12
5.46962e-11
2.52749e-12
3.87821e-05
5.04826e-11
2.45566e-12
5.12371e-11
2.46257e-12
3.94894e-05
4.77379e-11
2.39075e-12
4.89106e-11
2.39822e-12
4.0204e-05
4.47721e-11
2.32581e-12
4.55886e-11
2.3339e-12
4.09259e-05
4.21651e-11
2.26152e-12
4.34262e-11
2.27028e-12
4.16552e-05
3.93666e-11
2.19726e-12
4.02425e-11
2.2068e-12
4.23916e-05
3.69049e-11
2.13375e-12
3.82409e-11
2.14416e-12
4.31352e-05
3.42767e-11
2.07036e-12
3.51952e-11
2.08175e-12
4.38858e-05
3.19434e-11
2.00782e-12
3.33537e-11
2.02032e-12
4.46434e-05
2.94849e-11
1.94547e-12
3.04458e-11
1.95924e-12
4.54082e-05
2.72888e-11
1.88408e-12
2.87604e-11
1.89927e-12
4.61802e-05
2.50024e-11
1.82294e-12
2.59891e-11
1.83976e-12
4.69596e-05
2.29272e-11
1.76285e-12
2.44569e-11
1.78151e-12
4.77469e-05
2.08112e-11
1.70309e-12
2.182e-11
1.72385e-12
4.85422e-05
1.88666e-11
1.64448e-12
2.04356e-11
1.66763e-12
4.93462e-05
1.6922e-11
1.58627e-12
1.79296e-11
1.61214e-12
5.01591e-05
1.50858e-11
1.52928e-12
1.66896e-11
1.55824e-12
5.09816e-05
1.33088e-11
1.47282e-12
1.43103e-11
1.50527e-12
5.1814e-05
1.1592e-11
1.41761e-12
1.32071e-11
1.45401e-12
5.26567e-05
9.98256e-12
1.36324e-12
1.09494e-11
1.40392e-12
5.35103e-05
8.36425e-12
1.3099e-12
9.97707e-12
1.35536e-12
5.4375e-05
6.91695e-12
1.2585e-12
7.83469e-12
1.30838e-12
5.5251e-05
5.40845e-12
1.2069e-12
6.98455e-12
1.26165e-12
5.61386e-05
4.11775e-12
1.16209e-12
4.95138e-12
1.21758e-12
5.7038e-05
2.69071e-12
1.11121e-12
4.22433e-12
1.16769e-12
5.79492e-05
1.53221e-12
1.08831e-12
2.30509e-12
1.12063e-12
5.88723e-05
1.43192e-13
1.07626e-12
1.70122e-12
1.06851e-12
5.98073e-05
-9.15276e-13
1.04894e-12
-9.72987e-14
1.01534e-12
6.0754e-05
-2.26982e-12
1.02599e-12
-5.86848e-13
9.7886e-13
6.17126e-05
-3.21125e-12
9.88734e-13
-2.29685e-12
9.41666e-13
6.26828e-05
-4.49587e-12
9.56549e-13
-2.69768e-12
9.10278e-13
6.36648e-05
-5.31403e-12
9.21623e-13
-4.33127e-12
8.79249e-13
6.46585e-05
-6.55259e-12
8.89958e-13
-4.65166e-12
8.51419e-13
6.56643e-05
-7.25709e-12
8.58658e-13
-6.21667e-12
8.24467e-13
6.66823e-05
-8.44027e-12
8.30067e-13
-6.46859e-12
7.99914e-13
6.77132e-05
-9.03933e-12
8.02707e-13
-7.97236e-12
7.76419e-13
6.87578e-05
-1.01919e-11
7.77834e-13
-8.1618e-12
7.55058e-13
6.98171e-05
-1.06989e-11
7.54422e-13
-9.61098e-12
7.34823e-13
7.08926e-05
-1.18132e-11
7.33359e-13
-9.74879e-12
7.16616e-13
7.19859e-05
-1.22382e-11
7.13758e-13
-1.11502e-11
6.99525e-13
7.30992e-05
-1.33354e-11
6.96377e-13
-1.12453e-11
6.84391e-13
7.42347e-05
-1.36917e-11
6.80417e-13
-1.26054e-11
6.70357e-13
7.5395e-05
-1.47654e-11
6.66558e-13
-1.26668e-11
6.58218e-13
7.6583e-05
-1.50627e-11
6.54037e-13
-1.39913e-11
6.47131e-13
7.78016e-05
-1.61294e-11
6.43496e-13
-1.40282e-11
6.37874e-13
7.90539e-05
-1.63799e-11
6.3423e-13
-1.53227e-11
6.29637e-13
8.03427e-05
-1.74352e-11
6.26839e-13
-1.53419e-11
6.23171e-13
8.16708e-05
-1.76488e-11
6.20651e-13
-1.66111e-11
6.17679e-13
8.30409e-05
-1.87032e-11
6.16245e-13
-1.66255e-11
6.13906e-13
8.4455e-05
-1.88909e-11
6.13008e-13
-1.7875e-11
6.11097e-13
8.5915e-05
-1.99428e-11
6.11482e-13
-1.78884e-11
6.09973e-13
8.74223e-05
-2.01138e-11
6.1109e-13
-1.9122e-11
6.09797e-13
8.89776e-05
-2.11708e-11
6.12357e-13
-1.91469e-11
6.11276e-13
9.05814e-05
-2.1335e-11
6.14755e-13
-2.03699e-11
6.13722e-13
9.22335e-05
-2.23986e-11
6.18775e-13
-2.04075e-11
6.17806e-13
9.39332e-05
-2.25654e-11
6.23919e-13
-2.16232e-11
6.22858e-13
9.56797e-05
-2.36379e-11
6.30654e-13
-2.16897e-11
6.29528e-13
9.74717e-05
-2.38147e-11
6.38515e-13
-2.29048e-11
6.37206e-13
9.93075e-05
-2.49006e-11
6.47942e-13
-2.29992e-11
6.46485e-13
0.000101185
-2.50953e-11
6.58489e-13
-2.42181e-11
6.56788e-13
0.000103104
-2.62041e-11
6.70585e-13
-2.43476e-11
6.68673e-13
0.00010506
-2.64231e-11
6.83786e-13
-2.55775e-11
6.81626e-13
0.000107053
-2.75604e-11
6.98519e-13
-2.57413e-11
6.96134e-13
0.000109081
-2.78101e-11
7.1434e-13
-2.69879e-11
7.11729e-13
0.000111142
-2.89798e-11
7.31676e-13
-2.71976e-11
7.28842e-13
0.000113233
-2.92655e-11
7.50091e-13
-2.84689e-11
7.4709e-13
0.000115355
-3.04732e-11
7.70012e-13
-2.87246e-11
7.66824e-13
0.000117505
-3.08011e-11
7.90979e-13
-3.00261e-11
7.87707e-13
0.000119681
-3.20524e-11
8.13468e-13
-3.03363e-11
8.10048e-13
0.000121884
-3.24283e-11
8.36984e-13
-3.16748e-11
8.33583e-13
0.000124111
-3.37294e-11
8.62009e-13
-3.20396e-11
8.58535e-13
0.000126362
-3.41603e-11
8.88071e-13
-3.34194e-11
8.84726e-13
0.000128635
-3.55101e-11
9.15577e-13
-3.38532e-11
9.12252e-13
0.00013093
-3.60023e-11
9.44145e-13
-3.52801e-11
9.41071e-13
0.000133246
-3.74085e-11
9.7414e-13
-3.57818e-11
9.71167e-13
0.000135581
-3.79709e-11
1.00512e-12
-3.72572e-11
1.00251e-12
0.000137935
-3.94249e-11
1.03755e-12
-3.78471e-11
1.0351e-12
0.000140306
-4.00642e-11
1.0709e-12
-3.93751e-11
1.06886e-12
0.000142694
-4.15769e-11
1.10567e-12
-4.00486e-11
1.10382e-12
0.000145098
-4.23033e-11
1.14129e-12
-4.1628e-11
1.1399e-12
0.000147517
-4.38628e-11
1.17822e-12
-4.24072e-11
1.17704e-12
0.000149952
-4.46821e-11
1.21602e-12
-4.40415e-11
1.21527e-12
0.000152402
-4.63021e-11
1.25496e-12
-4.49182e-11
1.2544e-12
0.000154868
-4.72236e-11
1.29469e-12
-4.66054e-11
1.29453e-12
0.000157352
-4.8892e-11
1.33548e-12
-4.75998e-11
1.33549e-12
0.000159856
-4.99194e-11
1.37692e-12
-4.93437e-11
1.3773e-12
0.000162383
-5.16516e-11
1.41941e-12
-5.04452e-11
1.41992e-12
0.000164938
-5.27921e-11
1.4625e-12
-5.22446e-11
1.46334e-12
0.000167526
-5.45777e-11
1.50647e-12
-5.34703e-11
1.50743e-12
0.000170151
-5.58328e-11
1.55108e-12
-5.53302e-11
1.55232e-12
0.000172821
-5.76874e-11
1.59657e-12
-5.66688e-11
1.59788e-12
0.000175542
-5.90623e-11
1.64265e-12
-5.85897e-11
1.64419e-12
0.000178321
-6.09784e-11
1.68975e-12
-6.00554e-11
1.69133e-12
0.000181165
-6.24735e-11
1.73751e-12
-6.20436e-11
1.73927e-12
0.000184079
-6.44664e-11
1.78627e-12
-6.36266e-11
1.78806e-12
0.00018707
-6.60861e-11
1.83591e-12
-6.56849e-11
1.83785e-12
0.000190141
-6.81517e-11
1.88675e-12
-6.73974e-11
1.8887e-12
0.000193298
-6.9897e-11
1.93876e-12
-6.9534e-11
1.94083e-12
0.00019654
-7.20512e-11
1.99234e-12
-7.13699e-11
1.99439e-12
0.000199869
-7.39276e-11
2.04731e-12
-7.35907e-11
2.04944e-12
0.000203285
-7.61707e-11
2.1042e-12
-7.55622e-11
2.10629e-12
0.000206785
-7.81819e-11
2.1629e-12
-7.7878e-11
2.16505e-12
0.000210366
-8.05305e-11
2.22379e-12
-7.99835e-11
2.2259e-12
0.000214026
-8.26843e-11
2.287e-12
-8.24037e-11
2.28915e-12
0.000217759
-8.51436e-11
2.35268e-12
-8.46567e-11
2.35478e-12
0.000221562
-8.74468e-11
2.42093e-12
-8.71945e-11
2.42306e-12
0.000225432
-9.00342e-11
2.49191e-12
-8.95982e-11
2.49399e-12
0.000229365
-9.24968e-11
2.56568e-12
-9.22652e-11
2.56779e-12
0.00023336
-9.52205e-11
2.64241e-12
-9.48337e-11
2.64445e-12
0.000237415
-9.78518e-11
2.72209e-12
-9.76446e-11
2.72415e-12
0.000241531
-1.00729e-10
2.80484e-12
-1.00384e-10
2.80682e-12
0.000245708
-1.03541e-10
2.89068e-12
-1.03352e-10
2.89267e-12
0.000249947
-1.06582e-10
2.97978e-12
-1.06277e-10
2.9817e-12
0.000254252
-1.09585e-10
3.07213e-12
-1.09417e-10
3.07405e-12
0.000258625
-1.12808e-10
3.16791e-12
-1.12537e-10
3.16976e-12
0.00026307
-1.16014e-10
3.26719e-12
-1.15862e-10
3.26903e-12
0.000267588
-1.19431e-10
3.37011e-12
-1.19193e-10
3.37187e-12
0.000272184
-1.22854e-10
3.47678e-12
-1.2272e-10
3.47852e-12
0.00027686
-1.26484e-10
3.5874e-12
-1.26273e-10
3.58907e-12
0.000281618
-1.30139e-10
3.70209e-12
-1.30019e-10
3.70375e-12
0.00028646
-1.33996e-10
3.8212e-12
-1.33811e-10
3.82278e-12
0.000291388
-1.379e-10
3.94473e-12
-1.37795e-10
3.94629e-12
0.000296402
-1.42004e-10
4.07309e-12
-1.41842e-10
4.07457e-12
0.000301503
-1.46175e-10
4.20636e-12
-1.46083e-10
4.20782e-12
0.000306692
-1.50547e-10
4.34492e-12
-1.50406e-10
4.34631e-12
0.000311967
-1.55005e-10
4.48872e-12
-1.54925e-10
4.49008e-12
0.000317329
-1.59666e-10
4.63845e-12
-1.59544e-10
4.63973e-12
0.000322776
-1.64434e-10
4.79397e-12
-1.64364e-10
4.79522e-12
0.000328308
-1.69409e-10
4.95582e-12
-1.69304e-10
4.957e-12
0.000333923
-1.7451e-10
5.12371e-12
-1.7445e-10
5.12486e-12
0.00033962
-1.79825e-10
5.29847e-12
-1.79735e-10
5.29956e-12
0.000345398
-1.85285e-10
5.47959e-12
-1.85234e-10
5.48064e-12
0.000351255
-1.90968e-10
5.66836e-12
-1.90891e-10
5.66935e-12
0.000357191
-1.96814e-10
5.86325e-12
-1.9677e-10
5.86421e-12
0.000363205
-2.02893e-10
6.06668e-12
-2.02827e-10
6.06757e-12
0.000369296
-2.09154e-10
6.27574e-12
-2.09117e-10
6.2766e-12
0.000375466
-2.15658e-10
6.49464e-12
-2.15603e-10
6.49544e-12
0.000381714
-2.22364e-10
6.71791e-12
-2.22333e-10
6.71868e-12
0.000388044
-2.29325e-10
6.95321e-12
-2.29279e-10
6.95392e-12
0.000394456
-2.36505e-10
7.19038e-12
-2.3648e-10
7.19106e-12
0.000400952
-2.43955e-10
7.44338e-12
-2.43917e-10
7.444e-12
0.000407534
-2.5164e-10
7.69366e-12
-2.5162e-10
7.69425e-12
0.000414204
-2.59612e-10
7.96625e-12
-2.59581e-10
7.96679e-12
0.000420965
-2.67833e-10
8.2277e-12
-2.67815e-10
8.22821e-12
0.000427817
-2.7636e-10
8.5232e-12
-2.76335e-10
8.52366e-12
0.000434762
-2.85146e-10
8.79201e-12
-2.85132e-10
8.79245e-12
0.000441802
-2.94266e-10
9.11613e-12
-2.94245e-10
9.11652e-12
0.000448938
-3.03646e-10
9.38551e-12
-3.03635e-10
9.38588e-12
0.000456173
-3.13397e-10
9.74806e-12
-3.13381e-10
9.7484e-12
0.000463509
-3.23399e-10
1.00056e-11
-3.2339e-10
1.00059e-11
0.00047095
-3.33824e-10
1.04232e-11
-3.33812e-10
1.04234e-11
0.000478501
-3.44468e-10
1.06473e-11
-3.44462e-10
1.06476e-11
0.000486166
-3.5562e-10
1.11494e-11
-3.5561e-10
1.11496e-11
0.000493952
-3.66919e-10
1.13024e-11
-3.66914e-10
1.13027e-11
0.000501866
-3.78861e-10
1.19396e-11
-3.78853e-10
1.19398e-11
0.000509914
-3.90815e-10
1.19568e-11
-3.90811e-10
1.19569e-11
0.000518106
-4.03634e-10
1.28175e-11
-4.03629e-10
1.28176e-11
0.000526448
-4.16218e-10
1.25859e-11
-4.16216e-10
1.25861e-11
0.000534947
-4.30039e-10
1.38196e-11
-4.30035e-10
1.38197e-11
0.000543609
-4.43188e-10
1.31502e-11
-4.43186e-10
1.31503e-11
0.000552442
-4.582e-10
1.50101e-11
-4.58196e-10
1.50102e-11
0.000561448
-4.71777e-10
1.3579e-11
-4.71776e-10
1.35791e-11
0.000570632
-4.88272e-10
1.64937e-11
-4.8827e-10
1.64938e-11
0.000579997
-5.02024e-10
1.37529e-11
-5.02023e-10
1.37529e-11
0.000589544
-5.20469e-10
1.84441e-11
-5.20467e-10
1.84442e-11
0.000599274
-5.33937e-10
1.34689e-11
-5.33937e-10
1.34689e-11
0.000609187
-5.55083e-10
2.11449e-11
-5.55082e-10
2.1145e-11
0.000619283
-5.67468e-10
1.23848e-11
-5.67467e-10
1.23849e-11
0.000629562
-5.92516e-10
2.5048e-11
-5.92515e-10
2.5048e-11
0.000640024
-6.02446e-10
9.92972e-12
-6.02445e-10
9.92975e-12
0.00065067
-6.33364e-10
3.09187e-11
-6.33364e-10
3.09187e-11
0.000661502
-6.38519e-10
5.15419e-12
-6.38519e-10
5.15421e-12
0.000672524
-6.78518e-10
3.99998e-11
-6.78518e-10
3.99998e-11
0.00068374
-6.75008e-10
-3.51017e-12
-6.75008e-10
-3.51016e-12
0.000695155
-7.29337e-10
5.4329e-11
-7.29336e-10
5.4329e-11
0.000706778
-7.10691e-10
-1.86461e-11
-7.10691e-10
-1.86461e-11
0.000718614
-7.8793e-10
7.72399e-11
-7.87929e-10
7.72399e-11
0.000730672
-7.43429e-10
-4.45003e-11
-7.43429e-10
-4.45003e-11
0.000742958
-8.57625e-10
1.14196e-10
-8.57624e-10
1.14196e-10
0.000755475
-7.69572e-10
-8.80532e-11
-7.69572e-10
-8.80532e-11
0.000768223
-9.43747e-10
1.74177e-10
-9.43747e-10
1.74177e-10
0.000781195
-7.82969e-10
-1.60778e-10
-7.82969e-10
-1.60778e-10
0.000794378
-8.39802e-10
5.68337e-11
-8.39802e-10
5.68337e-11
0.000807743
-5.712e-10
-2.68602e-10
-5.712e-10
-2.68602e-10
0.000821243
-4.11589e-10
-1.59611e-10
-4.11589e-10
-1.59611e-10
0.000835022
-4.09135e-10
-2.454e-12
-4.09135e-10
-2.45404e-12
1.52382e-08
-4.53505e-13
-4.65234e-13
4.65983e-08
-2.51515e-12
-2.57714e-12
7.93218e-08
-4.54188e-12
-4.64484e-12
1.13455e-07
-6.79404e-12
-6.94595e-12
1.49045e-07
-8.96826e-12
-9.15944e-12
1.86141e-07
-1.14254e-11
-1.16677e-11
2.24793e-07
-1.37453e-11
-1.40265e-11
2.65049e-07
-1.64208e-11
-1.67567e-11
3.0696e-07
-1.89189e-11
-1.92951e-11
3.50581e-07
-2.1833e-11
-2.22688e-11
3.95966e-07
-2.4514e-11
-2.49921e-11
4.43173e-07
-2.76834e-11
-2.82275e-11
4.92259e-07
-3.05814e-11
-3.11729e-11
5.43283e-07
-3.40279e-11
-3.46951e-11
5.96305e-07
-3.71504e-11
-3.78719e-11
6.5138e-07
-4.08938e-11
-4.17017e-11
7.08568e-07
-4.42777e-11
-4.51466e-11
7.67925e-07
-4.8344e-11
-4.93087e-11
8.29513e-07
-5.20038e-11
-5.3034e-11
8.93402e-07
-5.64168e-11
-5.75512e-11
9.59663e-07
-6.03915e-11
-6.15966e-11
1.02837e-06
-6.51791e-11
-6.6497e-11
1.09958e-06
-6.94866e-11
-7.08794e-11
1.17337e-06
-7.4674e-11
-7.61884e-11
1.2498e-06
-7.93532e-11
-8.09481e-11
1.32893e-06
-8.49679e-11
-8.6694e-11
1.41083e-06
-9.00386e-11
-9.18501e-11
1.49557e-06
-9.61035e-11
-9.80562e-11
1.5832e-06
-1.01599e-10
-1.03644e-10
1.67379e-06
-1.08135e-10
-1.10331e-10
1.76741e-06
-1.14069e-10
-1.16362e-10
1.86411e-06
-1.21087e-10
-1.23543e-10
1.96397e-06
-1.27478e-10
-1.30038e-10
2.06707e-06
-1.34982e-10
-1.37716e-10
2.17349e-06
-1.41826e-10
-1.4467e-10
2.28331e-06
-1.49806e-10
-1.52834e-10
2.39658e-06
-1.57096e-10
-1.60241e-10
2.51337e-06
-1.65528e-10
-1.68868e-10
2.63371e-06
-1.73235e-10
-1.76696e-10
2.75765e-06
-1.8208e-10
-1.85747e-10
2.8852e-06
-1.90168e-10
-1.93962e-10
3.0164e-06
-1.99374e-10
-2.03383e-10
3.15129e-06
-2.0779e-10
-2.11929e-10
3.28993e-06
-2.17299e-10
-2.21661e-10
3.43239e-06
-2.25991e-10
-2.30488e-10
3.57877e-06
-2.35742e-10
-2.40469e-10
3.72915e-06
-2.4466e-10
-2.49524e-10
3.88359e-06
-2.54599e-10
-2.59698e-10
4.04215e-06
-2.63697e-10
-2.68937e-10
4.20484e-06
-2.73779e-10
-2.7926e-10
4.37164e-06
-2.83028e-10
-2.8865e-10
4.54253e-06
-2.93223e-10
-2.99092e-10
4.71741e-06
-3.026e-10
-3.08612e-10
4.89608e-06
-3.12891e-10
-3.19155e-10
5.07818e-06
-3.22394e-10
-3.28804e-10
5.26311e-06
-3.32769e-10
-3.39434e-10
5.44994e-06
-3.42376e-10
-3.49191e-10
5.63746e-06
-3.52798e-10
-3.59874e-10
5.82424e-06
-3.62452e-10
-3.69679e-10
6.0088e-06
-3.72792e-10
-3.80282e-10
6.18988e-06
-3.82236e-10
-3.89875e-10
6.36666e-06
-3.92022e-10
-3.99919e-10
6.539e-06
-4.00396e-10
-4.08425e-10
6.70751e-06
-4.08012e-10
-4.16267e-10
6.87352e-06
-4.12e-10
-4.20304e-10
7.03886e-06
-4.11922e-10
-4.20299e-10
7.20564e-06
-4.07489e-10
-4.15754e-10
7.37597e-06
-4.01898e-10
-4.10139e-10
7.55178e-06
-3.94875e-10
-4.02958e-10
7.73466e-06
-3.87932e-10
-3.95975e-10
7.92586e-06
-3.80322e-10
-3.88199e-10
8.12628e-06
-3.73127e-10
-3.80966e-10
8.33653e-06
-3.65525e-10
-3.73202e-10
8.55704e-06
-3.58407e-10
-3.66056e-10
8.78807e-06
-3.51006e-10
-3.585e-10
9.02976e-06
-3.44057e-10
-3.51534e-10
9.28216e-06
-3.36878e-10
-3.4421e-10
9.54526e-06
-3.30106e-10
-3.37434e-10
9.81896e-06
-3.23166e-10
-3.30354e-10
1.01031e-05
-3.16561e-10
-3.23759e-10
1.03976e-05
-3.09828e-10
-3.16894e-10
1.07021e-05
-3.03374e-10
-3.10462e-10
1.10165e-05
-2.96857e-10
-3.03816e-10
1.13406e-05
-2.90562e-10
-2.97548e-10
1.16743e-05
-2.8428e-10
-2.91139e-10
1.20172e-05
-2.7819e-10
-2.85043e-10
1.23693e-05
-2.72142e-10
-2.78764e-10
1.27303e-05
-2.66168e-10
-2.72722e-10
1.31e-05
-2.6027e-10
-2.66573e-10
1.3478e-05
-2.54388e-10
-2.60619e-10
1.38642e-05
-2.48645e-10
-2.54616e-10
1.4258e-05
-2.42844e-10
-2.48752e-10
1.46589e-05
-2.3723e-10
-2.42877e-10
1.50667e-05
-2.31503e-10
-2.37098e-10
1.54807e-05
-2.26029e-10
-2.31362e-10
1.59007e-05
-2.20375e-10
-2.25667e-10
1.63262e-05
-2.15025e-10
-2.20055e-10
1.67571e-05
-2.0944e-10
-2.14443e-10
1.71934e-05
-2.04229e-10
-2.08967e-10
1.76349e-05
-1.98718e-10
-2.03442e-10
1.8082e-05
-1.93632e-10
-1.98093e-10
1.8535e-05
-1.88197e-10
-1.92657e-10
1.89942e-05
-1.83257e-10
-1.87448e-10
1.94602e-05
-1.77905e-10
-1.8211e-10
1.99334e-05
-1.731e-10
-1.77036e-10
2.04146e-05
-1.67835e-10
-1.718e-10
2.09042e-05
-1.63184e-10
-1.66874e-10
2.14027e-05
-1.58016e-10
-1.61749e-10
2.19108e-05
-1.5351e-10
-1.56968e-10
2.24288e-05
-1.48442e-10
-1.51959e-10
2.29572e-05
-1.44099e-10
-1.47332e-10
2.34962e-05
-1.39138e-10
-1.42446e-10
2.40461e-05
-1.34949e-10
-1.3797e-10
2.46069e-05
-1.30099e-10
-1.33211e-10
2.51786e-05
-1.26076e-10
-1.28892e-10
2.5761e-05
-1.21342e-10
-1.24265e-10
2.63538e-05
-1.17477e-10
-1.201e-10
2.69562e-05
-1.1286e-10
-1.15608e-10
2.75678e-05
-1.09162e-10
-1.11597e-10
2.81877e-05
-1.04665e-10
-1.07242e-10
2.88151e-05
-1.01125e-10
-1.03382e-10
2.94489e-05
-9.67499e-11
-9.91675e-11
3.00883e-05
-9.33742e-11
-9.54571e-11
3.07325e-05
-8.91227e-11
-9.13842e-11
3.13809e-05
-8.59058e-11
-8.78237e-11
3.20329e-05
-8.17793e-11
-8.38952e-11
3.26883e-05
-7.87252e-11
-8.04782e-11
3.33471e-05
-7.47268e-11
-7.66969e-11
3.40093e-05
-7.18327e-11
-7.34268e-11
3.46754e-05
-6.79651e-11
-6.97967e-11
3.53458e-05
-6.52341e-11
-6.66674e-11
3.60211e-05
-6.15006e-11
-6.31914e-11
3.67018e-05
-5.89317e-11
-6.02087e-11
3.73886e-05
-5.53347e-11
-5.68906e-11
3.80819e-05
-5.29297e-11
-5.40428e-11
3.87821e-05
-4.94721e-11
-5.08844e-11
3.94894e-05
-4.72305e-11
-4.81787e-11
4.0204e-05
-4.39147e-11
-4.51833e-11
4.09259e-05
-4.18366e-11
-4.26073e-11
4.16552e-05
-3.86643e-11
-3.97753e-11
4.23916e-05
-3.67489e-11
-3.73367e-11
4.31352e-05
-3.37211e-11
-3.46696e-11
4.38858e-05
-3.1968e-11
-3.23494e-11
4.46434e-05
-2.90857e-11
-2.98449e-11
4.54082e-05
-2.74939e-11
-2.76512e-11
4.61802e-05
-2.47581e-11
-2.53098e-11
4.69596e-05
-2.33263e-11
-2.32232e-11
4.77469e-05
-2.07372e-11
-2.10403e-11
4.85422e-05
-1.94641e-11
-1.90686e-11
4.93462e-05
-1.70218e-11
-1.70415e-11
5.01591e-05
-1.59072e-11
-1.51579e-11
5.09816e-05
-1.36118e-11
-1.32786e-11
5.1814e-05
-1.26538e-11
-1.14899e-11
5.26567e-05
-1.05052e-11
-9.75323e-12
5.35103e-05
-9.70217e-12
-8.03358e-12
5.4375e-05
-7.69706e-12
-6.43093e-12
5.5251e-05
-7.04189e-12
-4.79141e-12
5.61386e-05
-5.16357e-12
-3.32789e-12
5.7038e-05
-4.633e-12
-1.76364e-12
5.79492e-05
-2.79988e-12
-5.01003e-13
5.88723e-05
-2.19713e-12
8.33393e-13
5.98073e-05
-2.88221e-13
1.79939e-12
6.0754e-05
3.22476e-13
2.98106e-12
6.17126e-05
2.18183e-12
3.79107e-12
6.26828e-05
2.70398e-12
4.90566e-12
6.36648e-05
4.47081e-12
5.60841e-12
6.46585e-05
4.89429e-12
6.69867e-12
6.56642e-05
6.56578e-12
7.31443e-12
6.66823e-05
6.89886e-12
8.37386e-12
6.77132e-05
8.48249e-12
8.91052e-12
6.87578e-05
8.73614e-12
9.95928e-12
6.98171e-05
1.02421e-11
1.04267e-11
7.08926e-05
1.04292e-11
1.14544e-11
7.19859e-05
1.18678e-11
1.18589e-11
7.30992e-05
1.2002e-11
1.28823e-11
7.42346e-05
1.33834e-11
1.32334e-11
7.5395e-05
1.34753e-11
1.42439e-11
7.6583e-05
1.48079e-11
1.45482e-11
7.78016e-05
1.48699e-11
1.55596e-11
7.90539e-05
1.61624e-11
1.58265e-11
8.03427e-05
1.62019e-11
1.68326e-11
8.16708e-05
1.74611e-11
1.70695e-11
8.30409e-05
1.7492e-11
1.80806e-11
8.4455e-05
1.87256e-11
1.82963e-11
8.5915e-05
1.87522e-11
1.93093e-11
8.74223e-05
1.99658e-11
1.95112e-11
8.89776e-05
2.00006e-11
2.05341e-11
9.05814e-05
2.12013e-11
2.07303e-11
9.22334e-05
2.12466e-11
2.17629e-11
9.39332e-05
2.24396e-11
2.19605e-11
9.56797e-05
2.25067e-11
2.30101e-11
9.74716e-05
2.37001e-11
2.32154e-11
9.93074e-05
2.37905e-11
2.42838e-11
0.000101185
2.49911e-11
2.45022e-11
0.000103104
2.51067e-11
2.56039e-11
0.00010506
2.63226e-11
2.58413e-11
0.000107053
2.64663e-11
2.6978e-11
0.000109081
2.7705e-11
2.72393e-11
0.000111142
2.78853e-11
2.84189e-11
0.000113233
2.91549e-11
2.87095e-11
0.000115355
2.93756e-11
2.99336e-11
0.000117505
3.06821e-11
3.02594e-11
0.000119681
3.09494e-11
3.15362e-11
0.000121884
3.22988e-11
3.19038e-11
0.000124111
3.26158e-11
3.32364e-11
0.000126362
3.40119e-11
3.36538e-11
0.000128635
3.43957e-11
3.50393e-11
0.00013093
3.58426e-11
3.55142e-11
0.000133246
3.62932e-11
3.69586e-11
0.000135581
3.77905e-11
3.75021e-11
0.000137935
3.83315e-11
3.89941e-11
0.000140306
3.98818e-11
3.96141e-11
0.000142694
4.0508e-11
4.11646e-11
0.000145098
4.21087e-11
4.1873e-11
0.000147517
4.28443e-11
4.34676e-11
0.000149952
4.4498e-11
4.42708e-11
0.000152402
4.53333e-11
4.59243e-11
0.000154868
4.70375e-11
4.68325e-11
0.000157352
4.79942e-11
4.85309e-11
0.000159856
4.97526e-11
4.95477e-11
0.000162383
5.08186e-11
5.13077e-11
0.000164938
5.263e-11
5.2441e-11
0.000167526
5.38231e-11
5.42509e-11
0.000170151
5.56927e-11
5.55015e-11
0.000172821
5.70006e-11
5.73783e-11
0.000175542
5.89292e-11
5.87515e-11
0.000178321
6.03665e-11
6.06868e-11
0.000181165
6.23609e-11
6.21826e-11
0.000184079
6.39169e-11
6.41927e-11
0.00018707
6.59803e-11
6.58153e-11
0.000190141
6.76675e-11
6.78958e-11
0.000193297
6.98082e-11
6.96457e-11
0.00019654
7.16198e-11
7.18132e-11
0.000199869
7.38442e-11
7.36957e-11
0.000203285
7.57928e-11
7.59502e-11
0.000206785
7.81118e-11
7.79685e-11
0.000210366
8.01954e-11
8.03271e-11
0.000214026
8.26184e-11
8.2489e-11
0.000217759
8.48508e-11
8.49568e-11
0.000221562
8.73911e-11
8.72686e-11
0.000225432
8.97748e-11
8.98634e-11
0.000229365
9.24442e-11
9.23351e-11
0.00023336
9.49939e-11
9.50652e-11
0.000237415
9.78069e-11
9.77056e-11
0.000241531
1.00528e-10
1.00589e-10
0.000245707
1.03498e-10
1.03409e-10
0.000249947
1.06406e-10
1.06455e-10
0.000254252
1.09548e-10
1.09466e-10
0.000258625
1.12652e-10
1.12694e-10
0.00026307
1.15979e-10
1.15908e-10
0.000267588
1.19294e-10
1.19329e-10
0.000272184
1.22823e-10
1.2276e-10
0.00027686
1.26361e-10
1.26392e-10
0.000281618
1.30109e-10
1.30055e-10
0.00028646
1.33888e-10
1.33915e-10
0.000291388
1.37872e-10
1.37825e-10
0.000296402
1.41908e-10
1.41932e-10
0.000301503
1.46149e-10
1.46109e-10
0.000306691
1.50462e-10
1.50483e-10
0.000311967
1.5498e-10
1.54946e-10
0.000317328
1.59591e-10