/*--------------------------------*- C++ -*----------------------------------*\
| =========                 |                                                 |
| \\      /  F ield         | OpenFOAM: The Open Source CFD Toolbox           |
|  \\    /   O peration     | Version:  2012                                  |
|   \\  /    A nd           | Website:  www.openfoam.com                      |
|    \\/     M anipulation  |                                                 |
\*---------------------------------------------------------------------------*/
FoamFile
{
    version     2.0;
    format      ascii;
    class       volSymmTensorField;
    location    "17000";
    object      turbulenceProperties:R;
}
// * * * * * * * * * * * * * * * * * * * * * * * * * * * * * * * * * * * * * //

dimensions      [0 2 -2 0 0 0 0];


internalField   nonuniform List<symmTensor> 
2560
(
(9.64111e-08 -2.75988e-12 -3.99538e-15 9.64111e-08 2.99033e-17 9.64111e-08)
(9.64111e-08 -2.75988e-12 -3.99538e-15 9.64111e-08 2.93655e-17 9.64111e-08)
(2.02078e-08 -3.32442e-12 -1.45085e-14 2.02078e-08 5.47775e-18 2.02078e-08)
(2.02078e-08 -3.32442e-12 -1.45085e-14 2.02078e-08 5.53376e-18 2.02078e-08)
(4.78734e-08 -2.32306e-11 -1.39444e-13 4.78734e-08 1.90976e-17 4.78734e-08)
(4.78734e-08 -2.32306e-11 -1.39444e-13 4.78734e-08 1.93307e-17 4.78734e-08)
(1.62715e-07 -1.6742e-10 -1.01956e-12 1.62715e-07 1.40574e-16 1.62715e-07)
(1.62715e-07 -1.6742e-10 -1.01956e-12 1.62715e-07 1.42198e-16 1.62715e-07)
(4.2238e-07 -7.66657e-10 -4.7367e-12 4.2238e-07 6.52395e-16 4.2238e-07)
(4.2238e-07 -7.66657e-10 -4.7367e-12 4.2238e-07 6.6017e-16 4.2238e-07)
(9.02609e-07 -2.57926e-09 -1.6167e-11 9.02609e-07 2.22517e-15 9.02609e-07)
(9.02609e-07 -2.57926e-09 -1.6167e-11 9.02609e-07 2.25205e-15 9.02609e-07)
(1.69265e-06 -7.05552e-09 -4.48662e-11 1.69265e-06 6.17519e-15 1.69265e-06)
(1.69265e-06 -7.05552e-09 -4.48662e-11 1.69265e-06 6.25105e-15 1.69265e-06)
(2.89482e-06 -1.66707e-08 -1.07547e-10 2.89482e-06 1.48017e-14 2.89482e-06)
(2.89482e-06 -1.66707e-08 -1.07547e-10 2.89482e-06 1.49909e-14 2.89482e-06)
(4.62478e-06 -3.53355e-08 -2.31267e-10 4.62478e-06 3.18202e-14 4.62478e-06)
(4.62478e-06 -3.53355e-08 -2.31267e-10 4.62478e-06 3.22567e-14 4.62478e-06)
(7.01212e-06 -6.88953e-08 -4.57468e-10 7.01212e-06 6.29109e-14 7.01212e-06)
(7.01212e-06 -6.88953e-08 -4.57468e-10 7.01212e-06 6.38775e-14 7.01212e-06)
(1.0201e-05 -1.25725e-07 -8.4694e-10 1.0201e-05 1.16355e-13 1.0201e-05)
(1.0201e-05 -1.25725e-07 -8.4694e-10 1.0201e-05 1.1848e-13 1.0201e-05)
(1.43512e-05 -2.17433e-07 -1.48598e-09 1.43512e-05 2.03338e-13 1.43512e-05)
(1.43512e-05 -2.17433e-07 -1.48598e-09 1.43511e-05 2.07917e-13 1.43512e-05)
(1.96384e-05 -3.59686e-07 -2.49385e-09 1.96384e-05 3.36831e-13 1.96384e-05)
(1.96384e-05 -3.59686e-07 -2.49385e-09 1.96384e-05 3.46242e-13 1.96384e-05)
(2.62557e-05 -5.73165e-07 -4.03156e-09 2.62557e-05 5.30225e-13 2.62557e-05)
(2.62557e-05 -5.73165e-07 -4.03156e-09 2.62557e-05 5.53845e-13 2.62557e-05)
(3.44144e-05 -8.84623e-07 -6.31228e-09 3.44144e-05 7.70398e-13 3.44144e-05)
(3.44144e-05 -8.84623e-07 -6.31228e-09 3.44144e-05 7.99895e-13 3.44144e-05)
(4.43447e-05 -1.32812e-06 -9.6137e-09 4.43447e-05 1.0734e-12 4.43447e-05)
(4.43447e-05 -1.32812e-06 -9.6137e-09 4.43447e-05 1.10593e-12 4.43447e-05)
(5.62968e-05 -1.94639e-06 -1.42925e-08 5.62968e-05 1.44839e-12 5.62968e-05)
(5.62968e-05 -1.94639e-06 -1.42925e-08 5.62968e-05 1.4895e-12 5.62968e-05)
(7.05418e-05 -2.79254e-06 -2.08027e-08 7.05418e-05 1.93743e-12 7.05418e-05)
(7.05418e-05 -2.79254e-06 -2.08027e-08 7.05418e-05 1.98956e-12 7.05418e-05)
(8.73728e-05 -3.93202e-06 -2.97166e-08 8.73728e-05 2.60648e-12 8.73728e-05)
(8.73728e-05 -3.93202e-06 -2.97166e-08 8.73728e-05 2.67516e-12 8.73728e-05)
(0.000107105 -5.44461e-06 -4.17463e-08 0.000107105 3.52541e-12 0.000107105)
(0.000107105 -5.44461e-06 -4.17463e-08 0.000107105 3.61682e-12 0.000107105)
(0.000130077 -7.42616e-06 -5.77653e-08 0.000130077 4.74636e-12 0.000130077)
(0.000130077 -7.42616e-06 -5.77653e-08 0.000130077 4.86897e-12 0.000130077)
(0.000156651 -9.99039e-06 -7.88344e-08 0.000156651 6.27609e-12 0.000156651)
(0.000156651 -9.99039e-06 -7.88344e-08 0.000156651 6.44028e-12 0.000156651)
(0.000187213 -1.32713e-05 -1.06234e-07 0.000187213 7.94168e-12 0.000187213)
(0.000187213 -1.32713e-05 -1.06234e-07 0.000187213 8.16012e-12 0.000187213)
(0.00022217 -1.74257e-05 -1.41501e-07 0.00022217 9.49068e-12 0.00022217)
(0.00022217 -1.74257e-05 -1.41501e-07 0.00022217 9.69865e-12 0.00022217)
(0.000261956 -2.26361e-05 -1.8646e-07 0.000261956 9.17112e-12 0.000261956)
(0.000261956 -2.26361e-05 -1.8646e-07 0.000261956 9.52345e-12 0.000261956)
(0.000307021 -2.91119e-05 -2.43258e-07 0.000307021 5.98796e-12 0.000307021)
(0.000307021 -2.91119e-05 -2.43258e-07 0.000307021 6.47403e-12 0.000307021)
(0.00035784 -3.70919e-05 -3.14398e-07 0.00035784 -3.7627e-13 0.00035784)
(0.00035784 -3.70919e-05 -3.14398e-07 0.00035784 3.19843e-13 0.00035784)
(0.000414899 -4.68448e-05 -4.02771e-07 0.0004149 -1.0196e-11 0.000414899)
(0.000414899 -4.68448e-05 -4.02771e-07 0.0004149 -9.41324e-12 0.000414899)
(0.000478702 -5.86712e-05 -5.117e-07 0.000478702 -2.27283e-11 0.000478702)
(0.000478702 -5.86712e-05 -5.117e-07 0.000478702 -2.17519e-11 0.000478702)
(0.000549758 -7.29051e-05 -6.44978e-07 0.000549758 3.86717e-13 0.000549758)
(0.000549758 -7.29051e-05 -6.44978e-07 0.000549758 -8.70948e-12 0.000549758)
(0.00062858 -8.99165e-05 -8.06929e-07 0.000628579 2.17015e-10 0.00062858)
(0.00062858 -8.99165e-05 -8.06929e-07 0.000628579 2.05343e-10 0.00062858)
(0.000715674 -0.000110113 -1.00245e-06 0.000715674 4.78066e-10 0.000715674)
(0.000715674 -0.000110113 -1.00245e-06 0.000715674 4.78894e-10 0.000715674)
(0.000811536 -0.000133939 -1.23699e-06 0.000811536 5.50652e-10 0.000811536)
(0.000811536 -0.000133939 -1.23699e-06 0.000811536 5.51657e-10 0.000811536)
(0.000916637 -0.000161868 -1.51655e-06 0.000916636 5.73323e-10 0.000916637)
(0.000916637 -0.000161868 -1.51655e-06 0.000916636 5.74481e-10 0.000916637)
(0.00103141 -0.000194389 -1.8475e-06 0.00103141 5.43279e-10 0.00103141)
(0.00103141 -0.000194389 -1.8475e-06 0.00103141 5.44306e-10 0.00103141)
(0.00115625 -0.000231992 -2.23656e-06 0.00115625 4.8994e-10 0.00115625)
(0.00115625 -0.000231992 -2.23656e-06 0.00115625 4.90364e-10 0.00115625)
(0.00129148 -0.000275154 -2.69058e-06 0.00129148 4.71305e-10 0.00129148)
(0.00129148 -0.000275154 -2.69058e-06 0.00129148 4.72269e-10 0.00129148)
(0.00143735 -0.000324325 -3.21652e-06 0.00143735 5.70488e-10 0.00143735)
(0.00143735 -0.000324325 -3.21652e-06 0.00143735 5.72002e-10 0.00143735)
(0.00159405 -0.000379916 -3.82128e-06 0.00159405 8.78698e-10 0.00159405)
(0.00159405 -0.000379916 -3.82128e-06 0.00159405 8.80734e-10 0.00159405)
(0.00176163 -0.000442301 -4.51178e-06 0.00176164 1.45887e-09 0.00176163)
(0.00176163 -0.000442301 -4.51178e-06 0.00176164 1.46108e-09 0.00176163)
(0.00194008 -0.000511821 -5.29503e-06 0.00194008 2.64894e-10 0.00194008)
(0.00194008 -0.000511821 -5.29503e-06 0.00194008 9.28521e-12 0.00194008)
(0.00212923 -0.000588805 -6.17837e-06 0.00212923 -2.4255e-10 0.00212923)
(0.00212923 -0.000588805 -6.17837e-06 0.00212923 -6.1444e-10 0.00212923)
(0.00232883 -0.000673589 -7.16961e-06 0.00232883 -6.75848e-10 0.00232883)
(0.00232883 -0.000673589 -7.16961e-06 0.00232883 -6.76189e-10 0.00232883)
(0.00253848 -0.000766509 -8.27674e-06 0.00253847 -4.65082e-10 0.00253848)
(0.00253848 -0.000766509 -8.27674e-06 0.00253847 -4.64696e-10 0.00253848)
(0.00275765 -0.000867852 -9.5072e-06 0.00275765 -3.6256e-10 0.00275765)
(0.00275765 -0.000867852 -9.5072e-06 0.00275765 -3.61192e-10 0.00275765)
(0.0029857 -0.000977772 -1.08667e-05 0.00298569 -4.95336e-10 0.0029857)
(0.0029857 -0.000977772 -1.08667e-05 0.00298569 -4.92825e-10 0.0029857)
(0.00322183 -0.0010962 -1.23585e-05 0.00322183 -9.75209e-10 0.00322184)
(0.00322183 -0.0010962 -1.23585e-05 0.00322183 -9.72952e-10 0.00322184)
(0.00346517 -0.00122281 -1.39828e-05 0.00346516 -1.87532e-09 0.00346517)
(0.00346517 -0.00122281 -1.39828e-05 0.00346516 -1.87084e-09 0.00346517)
(0.00371471 -0.00135703 -1.57372e-05 0.00371469 -3.93882e-09 0.00371471)
(0.00371471 -0.00135703 -1.57372e-05 0.00371469 -3.93273e-09 0.00371471)
(0.00396936 -0.00149811 -1.76175e-05 0.00396932 -9.21053e-09 0.00396936)
(0.00396936 -0.00149811 -1.76175e-05 0.00396932 -9.20285e-09 0.00396936)
(0.00422799 -0.00164512 -1.96158e-05 0.00422792 -2.07525e-08 0.00422799)
(0.00422799 -0.00164512 -1.96158e-05 0.00422792 -2.07431e-08 0.00422799)
(0.00448941 -0.00179667 -2.17165e-05 0.00448931 -4.20508e-08 0.00448941)
(0.00448941 -0.00179667 -2.17165e-05 0.00448931 -4.20432e-08 0.00448941)
(0.00475244 -0.00195053 -2.38891e-05 0.00475234 -6.11697e-08 0.00475244)
(0.00475244 -0.00195053 -2.38891e-05 0.00475234 -6.07938e-08 0.00475244)
(0.00501591 -0.002103 -2.60797e-05 0.00501591 -5.54262e-08 0.00501591)
(0.00501591 -0.002103 -2.60797e-05 0.00501591 -5.50273e-08 0.00501591)
(0.00527885 -0.0022483 -2.82014e-05 0.0052789 -5.07956e-08 0.00527885)
(0.00527885 -0.0022483 -2.82014e-05 0.0052789 -5.0796e-08 0.00527885)
(0.00554037 -0.00237832 -3.0134e-05 0.00554066 -6.36318e-08 0.00554037)
(0.00554037 -0.00237832 -3.0134e-05 0.00554066 -6.36279e-08 0.00554037)
(0.00580009 -0.00248313 -3.17333e-05 0.00580057 -6.54612e-08 0.00580009)
(0.00580009 -0.00248313 -3.17333e-05 0.00580057 -6.54597e-08 0.00580009)
(0.00605805 -0.00255256 -3.28572e-05 0.00605862 -5.18739e-08 0.00605805)
(0.00605805 -0.00255256 -3.28572e-05 0.00605862 -5.18774e-08 0.00605805)
(0.00631488 -0.00257867 -3.34045e-05 0.00631537 -6.05194e-09 0.00631488)
(0.00631488 -0.00257867 -3.34045e-05 0.00631537 -6.1056e-09 0.00631488)
(0.0065718 -0.00255871 -3.33558e-05 0.00657203 1.01197e-09 0.0065718)
(0.0065718 -0.00255871 -3.33558e-05 0.00657203 1.01005e-09 0.0065718)
(0.00683051 -0.00249737 -3.28041e-05 0.00683038 7.65321e-08 0.00683051)
(0.00683051 -0.00249737 -3.28041e-05 0.00683037 7.64518e-08 0.00683051)
(0.00709298 -0.00240767 -3.19608e-05 0.00709251 1.3381e-07 0.00709298)
(0.00709298 -0.00240767 -3.19608e-05 0.00709251 1.33647e-07 0.00709298)
(0.00736123 -0.00230963 -3.11308e-05 0.00736056 1.8123e-07 0.00736123)
(0.00736123 -0.00230963 -3.11308e-05 0.00736056 1.80881e-07 0.00736123)
(0.00763511 -0.00222704 -3.06599e-05 0.00764017 1.84996e-07 0.00763511)
(0.0076351 -0.00222704 -3.06599e-05 0.00764019 1.84226e-07 0.0076351)
(0.00792158 -0.00218299 -3.08716e-05 0.00792158 -6.62109e-08 0.00792158)
(0.00792146 -0.00218299 -3.08716e-05 0.00792181 -6.36657e-08 0.00792146)
(0.00821875 -0.00219586 -3.20149e-05 0.00821107 -2.67032e-07 0.00821875)
(0.00821873 -0.00219586 -3.20149e-05 0.00821113 -2.65973e-07 0.00821873)
(0.00852255 -0.00227663 -3.42308e-05 0.00851783 2.1187e-10 0.00852255)
(0.00852252 -0.00227663 -3.42308e-05 0.00851789 -1.63575e-09 0.00852252)
(0.00883632 -0.00242806 -3.75478e-05 0.00883462 -2.13883e-08 0.00883632)
(0.00883632 -0.00242806 -3.75478e-05 0.00883461 -2.20191e-08 0.00883632)
(0.00915983 -0.00264583 -4.19038e-05 0.0091601 -2.66867e-09 0.00915983)
(0.00915983 -0.00264583 -4.19038e-05 0.0091601 -3.03068e-09 0.00915983)
(0.00949236 -0.00292085 -4.71789e-05 0.00949271 -2.73761e-09 0.00949236)
(0.00949236 -0.00292085 -4.71789e-05 0.00949271 -2.52703e-09 0.00949236)
(0.00983198 -0.0032418 -5.32293e-05 0.00983229 3.07904e-08 0.00983198)
(0.00983198 -0.0032418 -5.32293e-05 0.00983229 3.07188e-08 0.00983198)
(0.010177 -0.00359725 -5.99133e-05 0.0101773 4.44857e-08 0.010177)
(0.010177 -0.00359725 -5.99133e-05 0.0101773 4.44536e-08 0.010177)
(0.0105257 -0.0039769 -6.71031e-05 0.0105258 5.04357e-08 0.0105257)
(0.0105257 -0.0039769 -6.71031e-05 0.0105258 5.04264e-08 0.0105257)
(0.0108759 -0.00437197 -7.46872e-05 0.010876 5.0811e-08 0.0108759)
(0.0108759 -0.00437197 -7.46872e-05 0.010876 5.08152e-08 0.0108759)
(0.0112256 -0.00477502 -8.25653e-05 0.0112256 4.80532e-08 0.0112256)
(0.0112256 -0.00477502 -8.25653e-05 0.0112256 4.80653e-08 0.0112256)
(0.0115727 -0.00517956 -9.06419e-05 0.0115726 4.41574e-08 0.0115727)
(0.0115727 -0.00517956 -9.06419e-05 0.0115726 4.41745e-08 0.0115727)
(0.0119148 -0.00557965 -9.88228e-05 0.0119148 4.02029e-08 0.0119148)
(0.0119148 -0.00557965 -9.88228e-05 0.0119148 4.02239e-08 0.0119148)
(0.0122499 -0.00596984 -0.000107016 0.0122499 3.65775e-08 0.0122499)
(0.0122499 -0.00596984 -0.000107016 0.0122499 3.66013e-08 0.0122499)
(0.012576 -0.0063453 -0.000115138 0.012576 3.30179e-08 0.012576)
(0.012576 -0.0063453 -0.000115138 0.012576 3.30446e-08 0.012576)
(0.012891 -0.00670196 -0.000123113 0.012891 -4.47973e-09 0.012891)
(0.012891 -0.00670196 -0.000123113 0.012891 -3.66855e-09 0.012891)
(0.0131931 -0.00703667 -0.00013088 0.0131931 -4.27269e-08 0.0131931)
(0.0131931 -0.00703667 -0.00013088 0.0131931 -4.18948e-08 0.0131931)
(0.0134807 -0.0073473 -0.000138395 0.0134807 -3.94311e-08 0.0134807)
(0.0134807 -0.0073473 -0.000138395 0.0134807 -3.93932e-08 0.0134807)
(0.0137522 -0.00763267 -0.000145624 0.0137522 -3.12716e-08 0.0137522)
(0.0137522 -0.00763267 -0.000145624 0.0137522 -3.12671e-08 0.0137522)
(0.0140066 -0.00789219 -0.000152543 0.0140063 -2.15375e-08 0.0140066)
(0.0140066 -0.00789219 -0.000152543 0.0140063 -2.13025e-08 0.0140066)
(0.0142422 -0.00812552 -0.000159126 0.0142422 -1.77978e-08 0.0142422)
(0.0142422 -0.00812552 -0.000159126 0.0142423 -1.82302e-08 0.0142422)
(0.0144586 -0.00833217 -0.000165339 0.0144586 2.01669e-10 0.0144586)
(0.0144585 -0.00833217 -0.000165339 0.0144588 3.945e-09 0.0144585)
(0.0146547 -0.00851129 -0.000171141 0.0146547 3.58665e-08 0.0146547)
(0.0146547 -0.00851129 -0.000171141 0.0146547 3.4639e-08 0.0146547)
(0.01483 -0.00866153 -0.000176476 0.01483 4.7306e-08 0.01483)
(0.01483 -0.00866153 -0.000176476 0.01483 4.75002e-08 0.01483)
(0.014984 -0.00878115 -0.00018128 0.014984 5.60444e-08 0.014984)
(0.014984 -0.00878115 -0.00018128 0.014984 5.59931e-08 0.014984)
(0.0151165 -0.00886822 -0.000185485 0.0151166 4.51649e-08 0.0151165)
(0.0151165 -0.00886822 -0.000185485 0.0151166 4.53179e-08 0.0151165)
(0.0152275 -0.00892105 -0.000189031 0.0152275 -1.29508e-10 0.0152275)
(0.0152275 -0.00892105 -0.000189031 0.0152275 -4.6111e-11 0.0152275)
(0.0153172 -0.00893854 -0.00019187 0.0153172 -3.10602e-08 0.0153172)
(0.0153172 -0.00893854 -0.00019187 0.0153172 -3.10234e-08 0.0153172)
(0.015386 -0.00892071 -0.000193983 0.0153861 -3.17816e-08 0.015386)
(0.015386 -0.00892071 -0.000193983 0.0153861 -3.17521e-08 0.015386)
(0.0154347 -0.008869 -0.000195386 0.0154348 -3.05121e-08 0.0154347)
(0.0154347 -0.008869 -0.000195386 0.0154348 -3.04866e-08 0.0154347)
(0.0154643 -0.00878641 -0.000196131 0.0154644 -2.71237e-08 0.0154643)
(0.0154643 -0.00878641 -0.000196131 0.0154644 -2.71007e-08 0.0154643)
(0.015476 -0.00867743 -0.000196306 0.015476 -2.17393e-08 0.015476)
(0.015476 -0.00867743 -0.000196306 0.015476 -2.17176e-08 0.015476)
(0.015471 -0.00854788 -0.000196036 0.015471 -1.5159e-08 0.015471)
(0.015471 -0.00854788 -0.000196036 0.015471 -1.51391e-08 0.015471)
(0.0154507 -0.00840444 -0.000195464 0.0154507 -7.94362e-09 0.0154507)
(0.0154507 -0.00840444 -0.000195464 0.0154507 -7.92498e-09 0.0154507)
(0.0154167 -0.00825402 -0.000194742 0.0154167 9.3548e-10 0.0154167)
(0.0154167 -0.00825402 -0.000194742 0.0154167 6.53047e-10 0.0154167)
(0.0153703 -0.0081033 -0.000194021 0.0153703 3.97101e-09 0.0153703)
(0.0153703 -0.0081033 -0.000194021 0.0153703 3.98852e-09 0.0153703)
(0.0153129 -0.00795814 -0.000193434 0.0153129 1.01207e-08 0.0153129)
(0.0153129 -0.00795814 -0.000193434 0.0153129 1.0138e-08 0.0153129)
(0.0152457 -0.00782329 -0.000193091 0.0152457 1.33359e-08 0.0152457)
(0.0152457 -0.00782329 -0.000193091 0.0152457 1.33525e-08 0.0152457)
(0.0151696 -0.00770216 -0.000193073 0.0151696 1.48916e-08 0.0151696)
(0.0151696 -0.00770216 -0.000193073 0.0151696 1.49077e-08 0.0151696)
(0.0150856 -0.00759672 -0.000193428 0.0150856 1.51301e-08 0.0150856)
(0.0150856 -0.00759672 -0.000193428 0.0150856 1.51456e-08 0.0150856)
(0.0149941 -0.00750764 -0.000194176 0.0149941 1.44534e-08 0.0149941)
(0.0149941 -0.00750764 -0.000194176 0.0149941 1.44476e-08 0.0149941)
(0.0148957 -0.00743445 -0.000195309 0.0148957 1.31201e-08 0.0148957)
(0.0148957 -0.00743445 -0.000195309 0.0148957 1.30961e-08 0.0148957)
(0.0147906 -0.00737579 -0.000196798 0.0147906 1.13014e-08 0.0147906)
(0.0147906 -0.00737579 -0.000196798 0.0147906 1.12991e-08 0.0147906)
(0.0146788 -0.00732958 -0.000198594 0.0146788 9.38435e-09 0.0146788)
(0.0146788 -0.00732958 -0.000198594 0.0146788 9.38224e-09 0.0146788)
(0.0145602 -0.00729318 -0.000200631 0.0145602 7.36147e-09 0.0145602)
(0.0145602 -0.00729318 -0.000200631 0.0145602 7.35898e-09 0.0145602)
(0.0144346 -0.00726353 -0.000202829 0.0144346 5.45433e-09 0.0144346)
(0.0144346 -0.00726353 -0.000202829 0.0144346 5.45199e-09 0.0144346)
(0.0143017 -0.00723717 -0.00020509 0.0143017 3.31769e-09 0.0143017)
(0.0143017 -0.00723717 -0.00020509 0.0143017 3.3157e-09 0.0143017)
(0.0141609 -0.00721024 -0.000207301 0.0141609 8.84905e-10 0.0141609)
(0.0141609 -0.00721024 -0.000207301 0.0141609 8.82523e-10 0.0141609)
(0.014012 -0.00717857 -0.000209333 0.014012 -2.0401e-09 0.014012)
(0.014012 -0.00717857 -0.000209333 0.014012 -2.04503e-09 0.014012)
(0.0138543 -0.00713774 -0.000211042 0.0138543 -5.32421e-09 0.0138543)
(0.0138543 -0.00713774 -0.000211042 0.0138543 -5.33633e-09 0.0138543)
(0.0136875 -0.00708315 -0.000212274 0.0136875 -9.11366e-09 0.0136875)
(0.0136875 -0.00708315 -0.000212274 0.0136875 -9.11576e-09 0.0136875)
(0.0135113 -0.00701037 -0.000212876 0.0135113 -1.28664e-08 0.0135113)
(0.0135113 -0.00701037 -0.000212876 0.0135113 -1.28686e-08 0.0135113)
(0.0133254 -0.00691535 -0.000212702 0.0133254 -1.64824e-08 0.0133254)
(0.0133254 -0.00691535 -0.000212702 0.0133254 -1.64848e-08 0.0133254)
(0.0131298 -0.00679479 -0.00021163 0.0131298 -2.04352e-08 0.0131298)
(0.0131298 -0.00679479 -0.00021163 0.0131298 -2.04367e-08 0.0131298)
(0.0129247 -0.0066465 -0.000209568 0.0129247 -2.41959e-08 0.0129247)
(0.0129247 -0.0066465 -0.000209568 0.0129247 -2.41983e-08 0.0129247)
(0.0127104 -0.00646969 -0.000206475 0.0127104 -2.82516e-08 0.0127104)
(0.0127104 -0.00646969 -0.000206475 0.0127104 -2.82539e-08 0.0127104)
(0.0124875 -0.00626518 -0.00020236 0.0124875 -3.32795e-08 0.0124875)
(0.0124875 -0.00626518 -0.00020236 0.0124875 -3.32835e-08 0.0124875)
(0.012257 -0.00603547 -0.00019729 0.012257 -3.93942e-08 0.012257)
(0.012257 -0.00603547 -0.00019729 0.012257 -3.93986e-08 0.012257)
(0.0120199 -0.00578467 -0.000191392 0.0120199 -4.71708e-08 0.0120199)
(0.0120199 -0.00578467 -0.000191392 0.0120199 -4.71749e-08 0.0120199)
(0.0117774 -0.0055182 -0.000184839 0.0117773 -5.70121e-08 0.0117774)
(0.0117774 -0.0055182 -0.000184839 0.0117773 -5.70162e-08 0.0117774)
(0.0115308 -0.00524242 -0.000177839 0.0115308 -6.86055e-08 0.0115308)
(0.0115308 -0.00524242 -0.000177839 0.0115308 -6.86093e-08 0.0115308)
(0.0112815 -0.00496404 -0.000170617 0.0112815 -8.22162e-08 0.0112815)
(0.0112815 -0.00496404 -0.000170617 0.0112815 -8.22202e-08 0.0112815)
(0.0110309 -0.00468964 -0.000163398 0.0110309 -9.68367e-08 0.0110309)
(0.0110309 -0.00468964 -0.000163398 0.0110309 -9.68321e-08 0.0110309)
(0.0107802 -0.00442507 -0.000156381 0.0107802 -1.11702e-07 0.0107802)
(0.0107802 -0.00442507 -0.000156381 0.0107802 -1.11704e-07 0.0107802)
(0.0105306 -0.00417499 -0.00014973 0.0105307 -1.24928e-07 0.0105306)
(0.0105306 -0.00417499 -0.00014973 0.0105307 -1.2493e-07 0.0105306)
(0.0102832 -0.00394265 -0.000143559 0.0102833 -1.33874e-07 0.0102832)
(0.0102832 -0.00394265 -0.000143559 0.0102833 -1.33872e-07 0.0102832)
(0.0100389 -0.00372969 -0.000137926 0.010039 -1.36871e-07 0.0100389)
(0.0100389 -0.00372969 -0.000137926 0.010039 -1.36869e-07 0.0100389)
(0.00979841 -0.00353619 -0.000132835 0.00979852 -1.32293e-07 0.00979841)
(0.00979841 -0.00353619 -0.000132835 0.00979852 -1.32292e-07 0.00979841)
(0.00956235 -0.00336093 -0.000128242 0.00956246 -1.19431e-07 0.00956235)
(0.00956235 -0.00336093 -0.000128242 0.00956246 -1.19396e-07 0.00956235)
(0.00933121 -0.00320171 -0.00012407 0.00933131 -9.87834e-08 0.00933121)
(0.00933121 -0.00320171 -0.00012407 0.00933131 -9.87484e-08 0.00933121)
(0.00910537 -0.0030557 -0.000120219 0.00910545 -7.01065e-08 0.00910537)
(0.00910537 -0.0030557 -0.000120219 0.00910545 -7.0072e-08 0.00910537)
(0.00888515 -0.00291986 -0.000116583 0.00888519 -3.41383e-08 0.00888515)
(0.00888515 -0.00291986 -0.000116583 0.00888519 -3.41195e-08 0.00888515)
(0.0086708 -0.00279131 -0.00011306 0.00867079 1.64711e-09 0.0086708)
(0.0086708 -0.00279131 -0.00011306 0.00867079 1.70531e-09 0.0086708)
(0.00846253 -0.00266763 -0.000109569 0.00846249 4.28708e-08 0.00846253)
(0.00846253 -0.00266763 -0.000109569 0.00846249 4.29038e-08 0.00846253)
(0.00826056 -0.00254702 -0.000106052 0.00826048 7.90677e-08 0.00826056)
(0.00826056 -0.00254702 -0.000106052 0.00826048 7.91011e-08 0.00826056)
(0.00806508 -0.00242837 -0.000102477 0.00806498 1.09987e-07 0.00806508)
(0.00806508 -0.00242837 -0.000102477 0.00806498 1.09985e-07 0.00806508)
(0.0078763 -0.00231126 -9.88421e-05 0.00787618 1.31982e-07 0.0078763)
(0.0078763 -0.00231126 -9.88421e-05 0.00787618 1.31979e-07 0.0078763)
(0.0076944 -0.00219591 -9.51681e-05 0.00769429 1.43785e-07 0.0076944)
(0.0076944 -0.00219591 -9.51681e-05 0.00769429 1.43782e-07 0.0076944)
(0.00751959 -0.00208298 -9.14962e-05 0.00751949 1.46511e-07 0.00751959)
(0.00751959 -0.00208298 -9.14962e-05 0.00751949 1.46507e-07 0.00751959)
(0.00735206 -0.00197348 -8.78811e-05 0.00735199 1.41481e-07 0.00735206)
(0.00735206 -0.00197348 -8.78811e-05 0.00735199 1.41479e-07 0.00735206)
(0.007192 -0.00186859 -8.43841e-05 0.00719195 1.31341e-07 0.007192)
(0.007192 -0.00186859 -8.43841e-05 0.00719195 1.31339e-07 0.007192)
(0.00703957 -0.00176945 -8.10644e-05 0.00703955 1.1644e-07 0.00703957)
(0.00703957 -0.00176945 -8.10644e-05 0.00703955 1.16438e-07 0.00703957)
(0.0068949 -0.00167706 -7.79761e-05 0.00689491 9.89428e-08 0.0068949)
(0.0068949 -0.00167706 -7.79761e-05 0.0068949 9.8964e-08 0.0068949)
(0.00675812 -0.0015922 -7.51621e-05 0.00675814 8.04514e-08 0.00675812)
(0.00675812 -0.0015922 -7.51621e-05 0.00675814 8.04502e-08 0.00675812)
(0.00662931 -0.00151532 -7.26506e-05 0.00662934 6.29567e-08 0.00662931)
(0.00662931 -0.00151532 -7.26506e-05 0.00662934 6.29563e-08 0.00662931)
(0.00650851 -0.00144654 -7.04544e-05 0.00650855 4.75613e-08 0.00650851)
(0.00650851 -0.00144654 -7.04544e-05 0.00650855 4.756e-08 0.00650851)
(0.00639575 -0.00138568 -6.85717e-05 0.00639579 3.48324e-08 0.00639575)
(0.00639575 -0.00138568 -6.85717e-05 0.00639579 3.4832e-08 0.00639575)
(0.00629104 -0.00133225 -6.69859e-05 0.00629107 2.47582e-08 0.00629104)
(0.00629104 -0.00133225 -6.69859e-05 0.00629107 2.47576e-08 0.00629104)
(0.00619433 -0.00128552 -6.56678e-05 0.00619436 1.71378e-08 0.00619433)
(0.00619433 -0.00128552 -6.56678e-05 0.00619436 1.71377e-08 0.00619433)
(0.00610559 -0.0012446 -6.45791e-05 0.00610561 1.16721e-08 0.00610559)
(0.00610559 -0.0012446 -6.45792e-05 0.00610561 1.16717e-08 0.00610559)
(0.00602474 -0.00120849 -6.36752e-05 0.00602476 7.74028e-09 0.00602474)
(0.00602474 -0.00120849 -6.36752e-05 0.00602476 7.20619e-09 0.00602474)
(0.00595171 -0.00117612 -6.29066e-05 0.00595172 -1.73782e-09 0.00595171)
(0.00595171 -0.00117612 -6.29066e-05 0.00595172 -2.35052e-09 0.00595171)
(0.0058864 -0.00114644 -6.22221e-05 0.00588641 -8.4596e-09 0.0058864)
(0.0058864 -0.00114644 -6.22221e-05 0.00588641 -8.45552e-09 0.0058864)
(0.00582873 -0.00111841 -6.15706e-05 0.00582873 -2.21127e-09 0.00582873)
(0.00582873 -0.00111841 -6.15706e-05 0.00582873 -5.46401e-10 0.00582873)
(0.00577858 -0.0010911 -6.09029e-05 0.00577859 2.71956e-10 0.00577858)
(0.00577858 -0.0010911 -6.09029e-05 0.00577859 -2.17671e-10 0.00577858)
(0.00573586 -0.00106366 -6.01753e-05 0.00573587 1.29859e-09 0.00573586)
(0.00573586 -0.00106366 -6.01753e-05 0.00573587 2.06315e-09 0.00573586)
(0.00570048 -0.00103539 -5.93493e-05 0.00570047 2.51764e-10 0.00570048)
(0.00570048 -0.00103539 -5.93493e-05 0.00570047 1.59845e-09 0.00570048)
(0.00567232 -0.00100575 -5.83938e-05 0.00567232 1.11443e-09 0.00567232)
(0.00567232 -0.00100575 -5.83938e-05 0.00567232 1.54436e-09 0.00567232)
(0.0056513 -0.000974415 -5.72926e-05 0.0056513 1.09148e-09 0.0056513)
(0.0056513 -0.000974415 -5.72926e-05 0.00565131 1.29493e-09 0.0056513)
(0.00563734 -0.000941326 -5.60465e-05 0.00563734 1.26891e-09 0.00563734)
(0.00563734 -0.000941326 -5.60465e-05 0.00563734 1.2286e-09 0.00563734)
(0.00563033 -0.000906762 -5.46778e-05 0.00563033 1.18131e-09 0.00563033)
(0.00563033 -0.000906762 -5.46778e-05 0.00563033 1.10185e-09 0.00563033)
(0.00563021 -0.000871383 -5.32368e-05 0.00563021 1.17586e-09 0.00563021)
(0.00563021 -0.000871383 -5.32368e-05 0.00563021 1.03724e-09 0.00563021)
(0.00563688 -0.000836297 -5.18068e-05 0.00563688 1.10288e-09 0.00563688)
(0.00563688 -0.000836297 -5.18068e-05 0.00563688 9.71672e-10 0.00563688)
(0.00565027 -0.000803103 -5.05078e-05 0.00565027 1.05446e-09 0.00565027)
(0.00565027 -0.000803103 -5.05078e-05 0.00565027 9.16891e-10 0.00565027)
(0.0056703 -0.000773891 -4.9499e-05 0.0056703 9.89083e-10 0.0056703)
(0.0056703 -0.000773891 -4.9499e-05 0.0056703 8.6294e-10 0.0056703)
(0.00569686 -0.00075125 -4.89815e-05 0.00569686 9.3292e-10 0.00569686)
(0.00569686 -0.00075125 -4.89815e-05 0.00569686 8.13678e-10 0.00569686)
(0.00572987 -0.000738208 -4.91923e-05 0.00572988 8.73997e-10 0.00572987)
(0.00572987 -0.000738208 -4.91923e-05 0.00572988 7.66074e-10 0.00572987)
(0.00576923 -0.000738129 -5.04025e-05 0.00576923 8.20922e-10 0.00576923)
(0.00576923 -0.000738129 -5.04025e-05 0.00576923 7.22277e-10 0.00576923)
(0.0058148 -0.000754579 -5.29043e-05 0.0058148 7.6593e-10 0.0058148)
(0.0058148 -0.000754579 -5.29043e-05 0.0058148 6.77225e-10 0.0058148)
(0.00586647 -0.000791125 -5.69993e-05 0.00586647 7.1826e-10 0.00586647)
(0.00586647 -0.000791125 -5.69993e-05 0.00586647 6.3823e-10 0.00586647)
(0.00592407 -0.000851128 -6.29822e-05 0.00592407 6.67275e-10 0.00592407)
(0.00592407 -0.000851128 -6.29821e-05 0.00592407 5.95539e-10 0.00592407)
(0.00598743 -0.000937523 -7.11247e-05 0.00598743 6.2176e-10 0.00598743)
(0.00598743 -0.000937523 -7.11247e-05 0.00598743 5.57369e-10 0.00598743)
(0.00605634 -0.00105258 -8.16544e-05 0.00605634 5.75594e-10 0.00605633)
(0.00605634 -0.00105258 -8.16544e-05 0.00605634 5.1798e-10 0.00605633)
(0.00613052 -0.00119766 -9.4733e-05 0.00613052 5.32794e-10 0.00613052)
(0.00613052 -0.00119766 -9.4733e-05 0.00613052 4.81183e-10 0.00613052)
(0.00620966 -0.0013731 -0.000110452 0.00620967 4.86684e-10 0.00620966)
(0.00620966 -0.0013731 -0.000110452 0.00620967 4.40511e-10 0.00620966)
(0.00629335 -0.001578 -0.000128801 0.00629335 4.46016e-10 0.00629335)
(0.00629335 -0.001578 -0.000128801 0.00629335 4.06322e-10 0.00629335)
(0.00638107 -0.00181018 -0.000149665 0.00638107 4.03917e-10 0.00638107)
(0.00638107 -0.00181018 -0.000149665 0.00638107 3.66858e-10 0.00638107)
(0.0064722 -0.00206626 -0.00017284 0.00647221 3.68065e-10 0.0064722)
(0.0064722 -0.00206626 -0.00017284 0.00647221 3.34812e-10 0.0064722)
(0.006566 -0.00234169 -0.000198004 0.006566 3.26521e-10 0.006566)
(0.006566 -0.00234169 -0.000198004 0.006566 2.99459e-10 0.006566)
(0.00666157 -0.00263092 -0.000224752 0.00666157 2.89458e-10 0.00666157)
(0.00666157 -0.00263092 -0.000224752 0.00666157 2.62483e-10 0.00666157)
(0.00675792 -0.00292774 -0.000252609 0.00675792 2.61227e-10 0.00675792)
(0.00675792 -0.00292774 -0.000252609 0.00675792 2.36858e-10 0.00675792)
(0.00685393 -0.00322543 -0.000281031 0.00685393 2.28175e-10 0.00685393)
(0.00685393 -0.00322543 -0.000281031 0.00685393 2.06036e-10 0.00685393)
(0.0069484 -0.0035171 -0.000309451 0.0069484 1.98238e-10 0.0069484)
(0.0069484 -0.0035171 -0.000309451 0.0069484 1.78096e-10 0.0069484)
(0.00704009 -0.00379607 -0.000337293 0.00704009 1.74345e-10 0.00704009)
(0.00704009 -0.00379607 -0.000337293 0.00704009 1.55877e-10 0.00704009)
(0.00712774 -0.00405619 -0.000364012 0.00712774 1.51192e-10 0.00712774)
(0.00712774 -0.00405619 -0.000364012 0.00712774 1.3429e-10 0.00712774)
(0.00721013 -0.00429224 -0.000389125 0.00721014 1.32416e-10 0.00721013)
(0.00721013 -0.00429224 -0.000389125 0.00721014 1.16823e-10 0.00721013)
(0.00728613 -0.00449989 -0.000412192 0.00728613 1.0764e-10 0.00728613)
(0.00728613 -0.00449989 -0.000412192 0.00728613 1.06043e-10 0.00728613)
(0.00735469 -0.00467588 -0.000432864 0.00735469 7.2222e-11 0.00735469)
(0.00735469 -0.00467588 -0.000432864 0.00735469 8.53831e-11 0.00735469)
(0.00741494 -0.00481817 -0.00045089 0.00741494 9.38336e-11 0.00741494)
(0.00741494 -0.00481817 -0.00045089 0.00741494 1.06768e-10 0.00741494)
(0.00746617 -0.00492585 -0.000466089 0.00746617 -1.8409e-09 0.00746617)
(0.00746617 -0.00492585 -0.000466089 0.00746617 -1.82076e-09 0.00746617)
(0.00750784 -0.004999 -0.000478389 0.00750785 -5.28325e-09 0.00750784)
(0.00750784 -0.004999 -0.000478389 0.00750785 -5.15303e-09 0.00750784)
(0.00753963 -0.00503865 -0.000487779 0.00753963 -7.52337e-09 0.00753963)
(0.00753963 -0.00503865 -0.000487779 0.00753963 -7.52178e-09 0.00753963)
(0.00756136 -0.00504644 -0.000494306 0.00756136 -9.55729e-09 0.00756136)
(0.00756136 -0.00504644 -0.000494306 0.00756136 -9.55671e-09 0.00756136)
(0.00757308 -0.00502456 -0.000498085 0.00757308 -1.20651e-08 0.00757308)
(0.00757308 -0.00502456 -0.000498085 0.00757308 -1.20066e-08 0.00757308)
(0.00757496 -0.00497562 -0.00049926 0.00757496 -1.46878e-08 0.00757496)
(0.00757496 -0.00497562 -0.00049926 0.00757496 -1.46869e-08 0.00757496)
(0.00756734 -0.00490235 -0.000497997 0.00756734 -1.78895e-08 0.00756734)
(0.00756734 -0.00490235 -0.000497997 0.00756734 -1.78183e-08 0.00756734)
(0.00755067 -0.00480756 -0.000494487 0.00755067 -2.12636e-08 0.00755067)
(0.00755067 -0.00480756 -0.000494487 0.00755067 -2.12101e-08 0.00755067)
(0.00752552 -0.00469404 -0.000488915 0.00752552 -2.47712e-08 0.00752552)
(0.00752552 -0.00469404 -0.000488915 0.00752552 -2.47383e-08 0.00752552)
(0.00749253 -0.00456437 -0.000481457 0.00749253 -2.83495e-08 0.00749253)
(0.00749254 -0.00456437 -0.000481457 0.00749253 -2.82785e-08 0.00749254)
(0.00745243 -0.00442086 -0.000472275 0.00745243 -3.16407e-08 0.00745243)