/*--------------------------------*- C++ -*----------------------------------*\
| =========                 |                                                 |
| \\      /  F ield         | OpenFOAM: The Open Source CFD Toolbox           |
|  \\    /   O peration     | Version:  2012                                  |
|   \\  /    A nd           | Website:  www.openfoam.com                      |
|    \\/     M anipulation  |                                                 |
\*---------------------------------------------------------------------------*/
FoamFile
{
    version     2.0;
    format      ascii;
    class       volScalarField;
    location    "13300";
    object      k;
}
// * * * * * * * * * * * * * * * * * * * * * * * * * * * * * * * * * * * * * //

dimensions      [0 2 -2 0 0 0 0];


internalField   nonuniform List<scalar> 
2560
(
0.00406909
0.0040691
0.093708
0.0937081
0.659909
0.65991
2.19313
2.19313
4.46818
4.46818
6.81581
6.81581
8.97552
8.97553
10.9399
10.9399
12.7474
12.7474
14.4327
14.4327
16.0212
16.0212
17.5312
17.5312
18.9757
18.9757
20.3643
20.3643
21.7041
21.7041
23.0002
23.0002
24.2564
24.2564
25.4758
25.4758
26.6602
26.6602
27.8111
27.8111
28.9294
28.9294
30.0155
30.0155
31.0695
31.0695
32.0911
32.0911
33.0798
33.0798
34.0349
34.0349
34.9554
34.9554
35.84
35.84
36.6875
36.6875
37.4964
37.4964
38.2651
38.2651
38.9919
38.9919
39.6751
39.6751
40.313
40.313
40.9037
40.9036
41.4454
41.4454
41.9365
41.9365
42.3752
42.3752
42.7602
42.7602
43.0899
43.0899
43.3632
43.3632
43.5791
43.5791
43.7368
43.7368
43.8359
43.8359
43.8762
43.8762
43.858
43.858
43.7819
43.7819
43.6488
43.6488
43.4601
43.4601
43.2179
43.2179
42.9243
42.9243
42.5822
42.5822
42.195
42.195
41.7663
41.7663
41.3005
41.3005
40.8022
40.8022
40.2765
40.2765
39.729
39.7289
39.1653
39.1653
38.5915
38.5915
38.0141
38.0141
37.4392
37.4392
36.8735
36.8735
36.3233
36.3233
35.7947
35.7947
35.2938
35.2938
34.826
34.826
34.3964
34.3964
34.0096
34.0096
33.6692
33.6692
33.3781
33.3781
33.1387
33.1387
32.9519
32.9519
32.8184
32.8184
32.7373
32.7373
32.7071
32.7071
32.7255
32.7255
32.7893
32.7893
32.8948
32.8948
33.0375
33.0375
33.2127
33.2127
33.4151
33.4151
33.6393
33.6393
33.8799
33.8799
34.1313
34.1313
34.388
34.388
34.6449
34.6449
34.897
34.897
35.1396
35.1396
35.3685
35.3685
35.5798
35.5798
35.77
35.77
35.9364
35.9364
36.0762
36.0762
36.1875
36.1875
36.2686
36.2686
36.3183
36.3183
36.3358
36.3358
36.3207
36.3207
36.2728
36.2728
36.1923
36.1923
36.0797
36.0797
35.9357
35.9357
35.7611
35.7611
35.557
35.557
35.3246
35.3246
35.0652
35.0652
34.7802
34.7802
34.471
34.471
34.1392
34.1392
33.7862
33.7862
33.4136
33.4136
33.023
33.023
32.6156
32.6156
32.1932
32.1932
31.757
31.757
31.3085
31.3085
30.8489
30.8489
30.3797
30.3797
29.9019
29.9019
29.4167
29.4167
28.9253
28.9253
28.4287
28.4287
27.9278
27.9278
27.4236
27.4236
26.917
26.917
26.4086
26.4086
25.8994
25.8994
25.3899
25.3899
24.8809
24.8809
24.3729
24.3729
23.8665
23.8665
23.3622
23.3622
22.8606
22.8606
22.362
22.362
21.8668
21.8668
21.3756
21.3756
20.8885
20.8885
20.406
20.406
19.9283
19.9283
19.4558
19.4558
18.9886
18.9886
18.5271
18.5271
18.0714
18.0714
17.6216
17.6216
17.1781
17.1781
16.741
16.741
16.3104
16.3104
15.8865
15.8865
15.4694
15.4694
15.0592
15.0592
14.656
14.656
14.26
14.26
13.8713
13.8713
13.4899
13.4899
13.1159
13.1159
12.7494
12.7494
12.3904
12.3904
12.0391
12.0391
11.6954
11.6954
11.3595
11.3595
11.0312
11.0312
10.7106
10.7106
10.3977
10.3977
10.0924
10.0924
9.79471
9.79471
9.50447
9.50447
9.2216
9.2216
8.946
8.946
8.67753
8.67753
8.41607
8.41607
8.16149
8.16148
7.91365
7.91365
7.67244
7.67244
7.43774
7.43774
7.20946
7.20945
6.98748
6.98748
6.77173
6.77172
6.5621
6.5621
6.35852
6.35852
6.1609
6.16089
5.96915
5.96914
5.78318
5.78317
5.6029
5.60289
5.4282
5.42819
5.25898
5.25898
5.09514
5.09514
4.93657
4.93657
4.78316
4.78315
4.6348
4.63479
4.49139
4.49139
4.35285
4.35284
4.21908
4.21908
4.09001
4.09001
3.96557
3.96556
3.84568
3.84568
3.73029
3.73028
3.61932
3.61932
3.51273
3.51273
3.41045
3.41044
3.31241
3.3124
3.21855
3.21854
3.12879
3.12878
3.04304
3.04303
2.9612
2.9612
2.88318
2.88317
2.80884
2.80884
2.73807
2.73807
2.67073
2.67073
2.60671
2.6067
2.54586
2.54586
2.48808
2.48808
2.43325
2.43325
2.38123
2.38123
2.3319
2.3319
2.2851
2.2851
2.24069
2.24069
2.19849
2.19849
2.15833
2.15833
2.12
2.12
2.08332
2.08331
2.04807
2.04807
2.0141
2.01409
1.98124
1.98123
1.94938
1.94937
1.91844
1.91844
1.88836
1.88836
1.85908
1.85908
1.83054
1.83053
1.80263
1.80262
1.77523
1.77523
1.74822
1.74822
1.72148
1.72148
1.69494
1.69493
1.6685
1.6685
1.64215
1.64215
1.61584
1.61584
1.5896
1.5896
1.56346
1.56346
1.5375
1.5375
1.51181
1.51181
1.48647
1.48647
1.46152
1.46152
1.43698
1.43698
1.41277
1.41277
1.38878
1.38878
1.36485
1.36485
1.34077
1.34077
1.31629
1.31629
1.2912
1.2912
1.2654
1.2654
1.2389
1.2389
1.21184
1.21184
1.18448
1.18447
1.15711
1.1571
1.13003
1.13003
1.10348
1.10348
1.07757
1.07757
1.0523
1.0523
1.02765
1.02765
1.00363
1.00363
0.980332
0.980327
0.95791
0.957903
0.936549
0.936541
0.916414
0.916405
0.89763
0.897623
0.880271
0.880264
0.864365
0.864361
0.849924
0.849922
0.836943
0.836945
0.825414
0.82542
0.815317
0.815327
0.806611
0.806624
0.799219
0.799232
0.79303
0.793033
0.787883
0.787864
0.783549
0.783506
0.779721
0.779661
0.776053
0.77599
0.772238
0.772181
0.768017
0.767969
0.763158
0.763117
0.757391
0.757356
0.750396
0.750365
0.74188
0.741851
0.731693
0.731666
0.719904
0.719879
0.706759
0.706735
0.692627
0.692604
0.678013
0.677992
0.663536
0.663518
0.64975
0.649735
0.636975
0.636962
0.625284
0.625274
0.614675
0.614666
0.605148
0.60514
0.596716
0.596709
0.589382
0.589377
0.583156
0.583152
0.57804
0.578038
0.573976
0.573977
0.570834
0.570837
0.568414
0.56842
0.566496
0.566505
0.564824
0.564836
0.563013
0.563028
0.560558
0.560573
0.557012
0.557023
0.552179
0.552183
0.546207
0.546204
0.539498
0.539487
0.532473
0.532459
0.525436
0.52542
0.518616
0.5186
0.512293
0.512281
0.506751
0.506744
0.502165
0.502161
0.498591
0.49859
0.496063
0.496065
0.494704
0.494707
0.0040691
0.00406909
0.0937081
0.093708
0.65991
0.659909
2.19313
2.19313
4.46818
4.46818
6.81581
6.81581
8.97553
8.97552
10.9399
10.9399
12.7474
12.7474
14.4327
14.4327
16.0212
16.0212
17.5312
17.5312
18.9757
18.9757
20.3643
20.3643
21.7041
21.7041
23.0002
23.0002
24.2564
24.2564
25.4758
25.4758
26.6602
26.6602
27.8111
27.8111
28.9294
28.9294
30.0155
30.0155
31.0695
31.0695
32.0911
32.0911
33.0798
33.0798
34.0349
34.0349
34.9554
34.9554
35.84
35.84
36.6875
36.6875
37.4964
37.4964
38.2651
38.2651
38.9919
38.9919
39.6751
39.6751
40.313
40.313
40.9037
40.9037
41.4454
41.4454
41.9365
41.9365
42.3752
42.3752
42.7602
42.7602
43.0899
43.0899
43.3632
43.3632
43.5791
43.5791
43.7368
43.7368
43.8359
43.8359
43.8762
43.8762
43.858
43.858
43.7819
43.7819
43.6488
43.6488
43.4601
43.4602
43.2179
43.2179
42.9243
42.9243
42.5822
42.5822
42.195
42.195
41.7663
41.7664
41.3005
41.3005
40.8022
40.8022
40.2766
40.2766
39.729
39.729
39.1653
39.1653
38.5915
38.5915
38.0141
38.0141
37.4393
37.4393
36.8735
36.8735
36.3233
36.3233
35.7947
35.7947
35.2938
35.2938
34.826
34.826
34.3964
34.3964
34.0096
34.0096
33.6692
33.6692
33.3781
33.3781
33.1387
33.1387
32.9519
32.9519
32.8184
32.8184
32.7373
32.7373
32.7071
32.7071
32.7255
32.7255
32.7893
32.7893
32.8948
32.8948
33.0375
33.0375
33.2127
33.2127
33.4151
33.4151
33.6393
33.6393
33.8799
33.8799
34.1312
34.1312
34.388
34.388
34.6449
34.6449
34.897
34.897
35.1396
35.1396
35.3685
35.3685
35.5798
35.5798
35.77
35.77
35.9364
35.9364
36.0762
36.0762
36.1874
36.1874
36.2685
36.2685
36.3183
36.3183
36.3358
36.3358
36.3207
36.3207
36.2728
36.2728
36.1923
36.1923
36.0797
36.0797
35.9357
35.9357
35.7611
35.7611
35.557
35.557
35.3246
35.3246
35.0652
35.0652
34.7802
34.7802
34.471
34.471
34.1392
34.1392
33.7862
33.7862
33.4136
33.4136
33.0229
33.0229
32.6156
32.6156
32.1932
32.1932
31.757
31.757
31.3085
31.3085
30.8489
30.8489
30.3797
30.3797
29.9019
29.9019
29.4167
29.4167
28.9253
28.9253
28.4287
28.4287
27.9278
27.9278
27.4236
27.4236
26.917
26.917
26.4086
26.4086
25.8994
25.8994
25.3899
25.3899
24.8809
24.8809
24.3729
24.3729
23.8665
23.8665
23.3622
23.3622
22.8606
22.8606
22.362
22.362
21.8668
21.8668
21.3756
21.3756
20.8885
20.8885
20.406
20.406
19.9283
19.9283
19.4558
19.4558
18.9886
18.9886
18.5271
18.5271
18.0714
18.0714
17.6216
17.6216
17.1781
17.1781
16.741
16.741
16.3104
16.3104
15.8865
15.8865
15.4694
15.4694
15.0592
15.0592
14.656
14.656
14.26
14.26
13.8713
13.8713
13.4899
13.4899
13.1159
13.1159
12.7494
12.7494
12.3904
12.3904
12.0391
12.0391
11.6954
11.6954
11.3595
11.3595
11.0312
11.0312
10.7106
10.7106
10.3977
10.3977
10.0924
10.0924
9.79471
9.79471
9.50447
9.50447
9.2216
9.2216
8.946
8.946
8.67753
8.67753
8.41607
8.41607
8.16148
8.16149
7.91365
7.91365
7.67244
7.67244
7.43774
7.43774
7.20945
7.20946
6.98748
6.98748
6.77172
6.77173
6.5621
6.5621
6.35852
6.35852
6.16089
6.1609
5.96914
5.96915
5.78317
5.78318
5.60289
5.60289
5.42819
5.4282
5.25898
5.25898
5.09514
5.09514
4.93657
4.93657
4.78315
4.78316
4.63479
4.6348
4.49139
4.49139
4.35284
4.35285
4.21907
4.21908
4.09
4.09001
3.96556
3.96557
3.84567
3.84568
3.73028
3.73029
3.61932
3.61932
3.51272
3.51273
3.41044
3.41045
3.3124
3.31241
3.21854
3.21855
3.12878
3.12879
3.04303
3.04304
2.9612
2.9612
2.88317
2.88318
2.80884
2.80884
2.73807
2.73807
2.67073
2.67073
2.6067
2.60671
2.54586
2.54586
2.48808
2.48808
2.43325
2.43325
2.38123
2.38123
2.3319
2.3319
2.2851
2.28511
2.24069
2.24069
2.19849
2.1985
2.15833
2.15833
2.12
2.12001
2.08332
2.08332
2.04808
2.04808
2.0141
2.0141
1.98124
1.98124
1.94938
1.94938
1.91844
1.91844
1.88836
1.88837
1.85909
1.85909
1.83054
1.83055
1.80263
1.80263
1.77524
1.77524
1.74823
1.74823
1.72149
1.72149
1.69494
1.69495
1.66851
1.66852
1.64216
1.64216
1.61585
1.61586
1.58961
1.58961
1.56347
1.56348
1.53751
1.53752
1.51182
1.51182
1.48648
1.48648
1.46153
1.46154
1.43699
1.43699
1.41278
1.41278
1.3888
1.38879
1.36487
1.36487
1.34078
1.34078
1.3163
1.3163
1.29122
1.29121
1.26541
1.26541
1.23891
1.23891
1.21185
1.21185
1.18448
1.18448
1.15711
1.15711
1.13004
1.13004
1.10349
1.10349
1.07757
1.07757
1.0523
1.0523
1.02765
1.02765
1.00363
1.00363
0.980327
0.980332
0.957903
0.95791
0.936541
0.936549
0.916406
0.916415
0.897624
0.897632
0.880267
0.880273
0.864365
0.864369
0.849927
0.849929
0.836951
0.83695
0.825428
0.825422
0.815338
0.815327
0.806637
0.806623
0.799247
0.799234
0.79305
0.793048
0.787884
0.787903
0.783528
0.783572
0.779685
0.779746
0.776015
0.776078
0.772206
0.772263
0.767993
0.768041
0.763139
0.763179
0.757374
0.757409
0.750378
0.750409
0.741859
0.741887
0.731668
0.731695
0.719875
0.719901
0.706727
0.706751
0.692593
0.692616
0.677981
0.678001
0.663508
0.663525
0.649726
0.649741
0.636957
0.636969
0.625271
0.625281
0.614665
0.614674
0.605141
0.605149
0.596712
0.596719
0.589382
0.589388
0.583161
0.583164
0.57805
0.578051
0.573993
0.573992
0.570856
0.570853
0.568442
0.568436
0.566529
0.566519
0.56486
0.564847
0.56305
0.563035
0.560591
0.560576
0.557036
0.557024
0.552189
0.552184
0.546203
0.546206
0.539481
0.539492
0.532449
0.532463
0.525407
0.525423
0.518586
0.518602
0.512268
0.51228
0.506732
0.506739
0.502151
0.502154
0.498581
0.498582
0.496058
0.496057
0.494704
0.4947
0.494693
0.494697
0.496033
0.496035
0.498536
0.498536
0.502076
0.502073
0.506632
0.506624
0.512136
0.512124
0.518415
0.518399
0.525196
0.525179
0.532167
0.532153
0.539095
0.539085
0.545711
0.545708
0.551612
0.551617
0.556395
0.556407
0.559924
0.559939
0.562412
0.562427
0.56429
0.564302
0.566031
0.56604
0.568009
0.568015
0.57048
0.570484
0.573672
0.573672
0.577789
0.577787
0.582962
0.582958
0.589245
0.58924
0.596635
0.596629
0.605124
0.605116
0.614705
0.614696
0.625369
0.625359
0.637113
0.6371
0.64994
0.649925
0.663771
0.663754
0.678299
0.678279
0.692961
0.692939
0.707117
0.707093
0.720251
0.720226
0.731994
0.731967
0.742102
0.742073
0.750539
0.750508
0.757478
0.757443
0.763207
0.763166
0.768042
0.767993
0.772241
0.772183
0.776033
0.775969
0.779679
0.779618
0.78348
0.783436
0.787787
0.787769
0.792913
0.792916
0.799081
0.799094
0.806455
0.806469
0.815148
0.815158
0.825234
0.82524
0.836754
0.836755
0.849726
0.849724
0.864158
0.864154
0.880054
0.880048
0.897407
0.897399
0.916185
0.916177
0.936314
0.936306
0.957668
0.957661
0.980085
0.98008
1.00339
1.00339
1.02742
1.02742
1.05208
1.05208
1.07734
1.07733
1.10323
1.10323
1.12975
1.12975
1.15679
1.15679
1.18414
1.18414
1.2115
1.2115
1.23855
1.23855
1.26502
1.26502
1.29079
1.29079
1.31585
1.31585
1.34032
1.34032
1.36442
1.36442
1.38839
1.38839
1.41243
1.41243
1.43671
1.43671
1.46132
1.46131
1.4863
1.4863
1.51165
1.51165
1.53733
1.53733
1.56327
1.56327
1.58939
1.58939
1.61561
1.61561
1.6419
1.6419
1.66824
1.66824
1.69466
1.69466
1.72122
1.72122
1.74796
1.74796
1.77498
1.77497
1.8024
1.8024
1.83034
1.83034
1.85893
1.85893
1.88826
1.88826
1.9184
1.9184
1.94938
1.94938
1.98127
1.98127
2.01416
2.01416
2.04815
2.04815
2.08341
2.0834
2.12011
2.1201
2.15845
2.15845
2.19863
2.19863
2.24083
2.24083
2.28524
2.28524
2.33202
2.33201
2.38133
2.38132
2.43332
2.43332
2.48813
2.48813
2.54589
2.54589
2.60672
2.60672
2.67075
2.67074
2.73808
2.73808
2.80886
2.80886
2.8832
2.8832
2.96124
2.96123
3.04308
3.04308
3.12884
3.12884
3.21862
3.21861
3.31249
3.31248
3.41053
3.41053
3.51282
3.51282
3.61941
3.61941
3.73038
3.73038
3.84578
3.84578
3.96568
3.96567
4.09012
4.09012
4.21919
4.21919
4.35296
4.35296
4.49152
4.49151
4.63493
4.63493
4.7833
4.78329
4.93671
4.93671
5.09528
5.09527
5.25911
5.25911
5.42832
5.42832
5.60302
5.60301
5.7833
5.78329
5.96927
5.96927
6.16102
6.16102
6.35865
6.35864
6.56223
6.56223
6.77186
6.77186
6.98762
6.98762
7.20961
7.20961
7.43791
7.4379
7.67261
7.6726
7.91381
7.91381
8.16165
8.16165
8.41625
8.41624
8.67772
8.67772
8.94621
8.9462
9.22183
9.22183
9.50471
9.50471
9.79497
9.79497
10.0927
10.0927
10.398
10.398
10.7109
10.7109
11.0315
11.0315
11.3598
11.3598
11.6958
11.6958
12.0394
12.0394
12.3908
12.3908
12.7497
12.7497
13.1162
13.1162
13.4902
13.4902
13.8716
13.8716
14.2604
14.2604
14.6564
14.6564
15.0596
15.0596
15.4698
15.4698
15.887
15.887
16.3109
16.3109
16.7415
16.7415
17.1787
17.1787
17.6222
17.6222
18.072
18.072
18.5278
18.5278
18.9894
18.9894
19.4566
19.4566
19.9292
19.9292
20.4069
20.4069
20.8895
20.8895
21.3767
21.3767
21.868
21.868
22.3632
22.3632
22.8618
22.8618
23.3635
23.3635
23.8678
23.8678
24.3743
24.3743
24.8823
24.8823
25.3914
25.3914
25.901
25.901
26.4102
26.4102
26.9186
26.9186
27.4253
27.4253
27.9295
27.9295
28.4304
28.4304
28.927
28.927
29.4183
29.4183
29.9034
29.9034
30.3811
30.3811
30.8503
30.8503
31.3097
31.3097
31.758
31.758
32.194
32.194
32.6164
32.6164
33.0236
33.0236
33.4143
33.4143
33.7869
33.7869
34.1398
34.1398
34.4717
34.4717
34.7809
34.7809
35.0659
35.0659
35.3254
35.3254
35.5578
35.5578
35.7618
35.7618
35.9363
35.9363
36.0804
36.0804
36.193
36.193
36.2736
36.2736
36.3216
36.3216
36.3369
36.3369
36.3195
36.3195
36.2699
36.2699
36.1889
36.1889
36.0776
36.0776
35.9375
35.9375
35.7707
35.7707
35.5796
35.5796
35.3676
35.3676
35.1382
35.1382
34.8953
34.8953
34.643
34.643
34.3859
34.3859
34.1288
34.1288
33.8771
33.8771
33.6361
33.6361
33.4114
33.4114
33.2085
33.2085
33.0328
33.0328
32.8896
32.8896
32.7837
32.7837
32.7195
32.7195
32.7007
32.7007
32.7306
32.7306
32.8113
32.8113
32.9444
32.9444
33.1308
33.1308
33.3699
33.3699
33.6605
33.6605
34.0005
34.0005
34.3871
34.3871
34.8164
34.8164
35.2839
35.2839
35.7846
35.7846
36.313
36.313
36.8631
36.8631
37.4286
37.4286
38.0031
38.0031
38.5803
38.5803
39.154
39.154
39.7178
39.7178
40.2655
40.2655
40.7915
40.7914
41.2901
41.2901
41.7563
41.7563
42.1856
42.1856
42.5735
42.5735
42.9161
42.9161
43.21
43.21
43.4527
43.4526
43.642
43.642
43.7758
43.7758
43.8525
43.8525
43.8713
43.8713
43.8316
43.8316
43.733
43.733
43.5758
43.5758
43.3604
43.3604
43.0876
43.0876
42.7583
42.7583
42.3736
42.3736
41.9351
41.9351
41.4443
41.4443
40.9027
40.9027
40.3122
40.3122
39.6745
39.6745
38.9913
38.9913
38.2645
38.2645
37.4959
37.4959
36.6872
36.6872
35.8398
35.8398
34.9554
34.9554
34.0351
34.0351
33.0801
33.0801
32.0914
32.0914
31.0698
31.0698
30.0159
30.0159
28.9297
28.9297
27.8114
27.8114
26.6605
26.6605
25.4761
25.4761
24.2567
24.2567
23.0004
23.0004
21.7043
21.7043
20.3646
20.3646
18.9759
18.9759
17.5313
17.5313
16.0213
16.0213
14.4328
14.4328
12.7475
12.7475
10.94
10.94
8.97561
8.97561
6.81587
6.81588
4.46823
4.46823
2.19315
2.19315
0.659916
0.659917
0.0937087
0.0937087
0.00406924
0.00406924
0.494696
0.494692
0.496036
0.496034
0.498538
0.498539
0.502077
0.50208
0.506628
0.506636
0.512128
0.51214
0.518403
0.518419
0.525183
0.5252
0.532157
0.53217
0.539087
0.539097
0.545709
0.545711
0.551616
0.551611
0.556403
0.556392
0.559933
0.559919
0.56242
0.562405
0.564295
0.564283
0.566032
0.566023
0.568008
0.568002
0.570477
0.570474
0.573667
0.573666
0.577783
0.577785
0.582956
0.582959
0.589238
0.589244
0.596628
0.596635
0.605116
0.605124
0.614698
0.614707
0.625361
0.625372
0.637104
0.637117
0.649931
0.649946
0.663761
0.663779
0.678287
0.678307
0.692947
0.692969
0.7071
0.707125
0.720231
0.720257
0.731971
0.731998
0.742074
0.742103
0.750507
0.750537
0.757439
0.757473
0.763159
0.7632
0.767985
0.768034
0.772173
0.772231
0.775959
0.776023
0.779607
0.779668
0.783426
0.783469
0.78776
0.787778
0.792908
0.792904
0.799087
0.799074
0.806463
0.806449
0.815153
0.815143
0.825236
0.825231
0.836753
0.836751
0.849723
0.849724
0.864153
0.864158
0.880048
0.880055
0.8974
0.897408
0.916179
0.916188
0.936309
0.936317
0.957665
0.957672
0.980085
0.98009
1.00339
1.0034
1.02743
1.02743
1.05208
1.05208
1.07734
1.07734
1.10324
1.10324
1.12976
1.12976
1.1568
1.1568
1.18414
1.18415
1.2115
1.2115
1.23855
1.23855
1.26503
1.26503
1.29079
1.29079
1.31585
1.31585
1.34032
1.34032
1.36442
1.36442
1.38839
1.38839
1.41243
1.41243
1.4367
1.4367
1.46131
1.46131
1.48629
1.48629
1.51164
1.51164
1.53732
1.53732
1.56326
1.56326
1.58938
1.58938
1.6156
1.6156
1.64189
1.64189
1.66822
1.66823
1.69465
1.69465
1.7212
1.72121
1.74794
1.74794
1.77496
1.77496
1.80238
1.80238
1.83032
1.83033
1.85891
1.85891
1.88824
1.88824
1.91838
1.91838
1.94936
1.94937
1.98125
1.98126
2.01414
2.01414
2.04813
2.04813
2.08339
2.08339
2.12009
2.12009
2.15843
2.15843
2.19861
2.19861
2.24081
2.24082
2.28522
2.28522
2.332
2.332
2.38131
2.38131
2.4333
2.43331
2.48811
2.48812
2.54587
2.54588
2.6067
2.60671
2.67073
2.67073
2.73807
2.73807
2.80885
2.80885
2.88319
2.88319
2.96122
2.96123
3.04307
3.04307
3.12883
3.12883
3.2186
3.21861
3.31247
3.31248
3.41052
3.41052
3.51281
3.51281
3.6194
3.6194
3.73037
3.73037
3.84577
3.84578
3.96566
3.96567
4.09011
4.09011
4.21918
4.21918
4.35295
4.35296
4.4915
4.49151
4.63492
4.63492
4.78329
4.78329
4.9367
4.9367
5.09527
5.09527
5.2591
5.25911
5.42831
5.42832
5.60301
5.60301
5.78329
5.78329
5.96926
5.96926
6.16101
6.16102
6.35864
6.35864
6.56222
6.56223
6.77185
6.77185
6.98761
6.98762
7.2096
7.20961
7.4379
7.4379
7.6726
7.6726
7.9138
7.91381
8.16164
8.16165
8.41624
8.41624
8.67771
8.67772
8.9462
8.9462
9.22182
9.22183
9.50471
9.50471
9.79496
9.79496
10.0927
10.0927
10.398
10.398
10.7109
10.7109
11.0315
11.0315
11.3598
11.3598
11.6957
11.6957
12.0394
12.0394
12.3907
12.3907
12.7497
12.7497
13.1162
13.1162
13.4902
13.4902
13.8716
13.8716
14.2604
14.2604
14.6564
14.6564
15.0596
15.0596
15.4698
15.4698
15.8869
15.8869
16.3109
16.3109
16.7415
16.7415
17.1787
17.1787
17.6222
17.6222
18.072
18.072
18.5278
18.5278
18.9894
18.9894
19.4566
19.4566
19.9292
19.9292
20.4069
20.4069
20.8895
20.8895
21.3767
21.3767
21.868
21.868
22.3632
22.3632
22.8618
22.8618
23.3635
23.3635
23.8678
23.8678
24.3742
24.3742
24.8823
24.8823
25.3914
25.3914
25.9009
25.9009
26.4102
26.4102
26.9186
26.9186
27.4253
27.4253
27.9295
27.9295
28.4304
28.4304
28.9269
28.927
29.4183
29.4183
29.9034
29.9034
30.3811
30.3811
30.8503
30.8503
31.3097
31.3097
31.758
31.758
32.194
32.194
32.6163
32.6163
33.0236
33.0236
33.4143
33.4143
33.7868
33.7868
34.1398
34.1398
34.4717
34.4717
34.7809
34.7809
35.0659
35.0659
35.3253
35.3253
35.5578
35.5578
35.7618
35.7618
35.9363
35.9363
36.0804
36.0804
36.193
36.193
36.2735
36.2735
36.3216
36.3216
36.3369
36.3369
36.3195
36.3195
36.2699
36.2699
36.1889
36.1889
36.0775
36.0775
35.9374
35.9374
35.7706
35.7706
35.5796
35.5796
35.3676
35.3676
35.1382
35.1382
34.8953
34.8953
34.643
34.643
34.3859
34.3859
34.1288
34.1288
33.8771
33.8771
33.6361
33.6361
33.4114
33.4114
33.2085
33.2085
33.0328
33.0328
32.8896
32.8896
32.7837
32.7837
32.7195
32.7195
32.7007
32.7007
32.7306
32.7306
32.8113
32.8113
32.9444
32.9444
33.1308
33.1308
33.3699
33.3699
33.6605
33.6605
34.0005
34.0005
34.3871
34.3871
34.8164
34.8164
35.2839
35.2839
35.7846
35.7846
36.313
36.313
36.8631
36.8631
37.4286
37.4286
38.0031
38.0031
38.5804
38.5804
39.154
39.154
39.7178
39.7178
40.2655
40.2655
40.7915
40.7915
41.2901
41.2901
41.7563
41.7563
42.1856
42.1856
42.5735
42.5735
42.9161
42.9161
43.21
43.21
43.4527
43.4527
43.642
43.642
43.7758
43.7758
43.8525
43.8525
43.8713
43.8713
43.8316
43.8316
43.733
43.733
43.5758
43.5758
43.3604
43.3604
43.0876
43.0876
42.7583
42.7583
42.3736
42.3736
41.9351
41.9351
41.4443
41.4443
40.9027
40.9027
40.3122
40.3122
39.6745
39.6745
38.9913
38.9913
38.2645
38.2645
37.4959
37.4959
36.6871
36.6871
35.8398
35.8398
34.9554
34.9554
34.0351
34.0351
33.0801
33.0801
32.0914
32.0914
31.0698
31.0698
30.0159
30.0159
28.9297
28.9297
27.8114
27.8114
26.6605
26.6605
25.4761
25.4761
24.2567
24.2567
23.0004
23.0004
21.7043
21.7043
20.3646
20.3646
18.9759
18.9759
17.5313
17.5313
16.0213
16.0213
14.4328
14.4328
12.7475
12.7475
10.94
10.94
8.97561
8.97561
6.81587
6.81587
4.46823
4.46823
2.19315
2.19315
0.659917
0.659916
0.0937087
0.0937086
0.00406924
0.00406923
)
;

boundaryField
{
    walls
    {
        type            kqRWallFunction;
        value           nonuniform List<scalar> 8(0.00406909 0.0040691 0.0040691 0.00406909 0.00406924 0.00406924 0.00406924 0.00406923);
    }
    inlet
    {
        type            cyclic;
    }
    outlet
    {
        type            cyclic;
    }
    sides
    {
        type            empty;
    }
}


// ************************************************************************* //
