/*--------------------------------*- C++ -*----------------------------------*\
| =========                 |                                                 |
| \\      /  F ield         | OpenFOAM: The Open Source CFD Toolbox           |
|  \\    /   O peration     | Version:  2012                                  |
|   \\  /    A nd           | Website:  www.openfoam.com                      |
|    \\/     M anipulation  |                                                 |
\*---------------------------------------------------------------------------*/
FoamFile
{
    version     2.0;
    format      ascii;
    class       volVectorField;
    location    "13300";
    object      U;
}
// * * * * * * * * * * * * * * * * * * * * * * * * * * * * * * * * * * * * * //

dimensions      [0 1 -1 0 0 0 0];


internalField   nonuniform List<vector> 
2560
(
(0.0825027 1.66384e-08 -1.14796e-06)
(0.0825029 -1.1538e-08 4.64547e-22)
(0.248505 5.374e-08 -1.73361e-06)
(0.248505 -1.92518e-08 -1.70694e-10)
(0.416708 8.26309e-08 -1.55533e-06)
(0.416709 -4.29718e-08 -5.48122e-10)
(0.587132 8.92448e-08 -1.06907e-06)
(0.587133 -8.54712e-08 -1.08348e-09)
(0.75979 9.21486e-08 -6.18368e-07)
(0.759792 -1.13339e-07 -1.44563e-09)
(0.934699 1.01864e-07 -3.69433e-07)
(0.934701 -1.20338e-07 -1.71447e-09)
(1.11188 1.10591e-07 -2.4434e-07)
(1.11188 -1.22196e-07 -1.97901e-09)
(1.29136 1.16429e-07 -1.76753e-07)
(1.29137 -1.24188e-07 -2.29253e-09)
(1.47319 1.20068e-07 -1.36346e-07)
(1.47319 -1.26509e-07 -2.67445e-09)
(1.65741 1.23601e-07 -1.09924e-07)
(1.65741 -1.27879e-07 -3.12297e-09)
(1.84407 1.25841e-07 -9.13151e-08)
(1.84407 -1.2977e-07 -3.63973e-09)
(2.03323 1.27984e-07 -7.73599e-08)
(2.03323 -1.31255e-07 -4.22898e-09)
(2.22497 1.29896e-07 -6.63023e-08)
(2.22498 -1.32571e-07 -4.89126e-09)
(2.41936 1.31428e-07 -5.70918e-08)
(2.41937 -1.3399e-07 -5.63211e-09)
(2.61648 1.32988e-07 -4.90585e-08)
(2.61648 -1.35146e-07 -6.45602e-09)
(2.8164 1.34189e-07 -4.17502e-08)
(2.8164 -1.36492e-07 -7.36783e-09)
(3.01921 1.35615e-07 -3.48444e-08)
(3.01921 -1.37466e-07 -8.37208e-09)
(3.225 1.3681e-07 -2.80989e-08)
(3.225 -1.38563e-07 -9.4745e-09)
(3.43384 1.37761e-07 -2.13207e-08)
(3.43384 -1.39806e-07 -1.06836e-08)
(3.64581 1.38946e-07 -1.43511e-08)
(3.64581 -1.40744e-07 -1.20032e-08)
(3.861 1.4014e-07 -7.05258e-09)
(3.861 -1.41608e-07 -7.09117e-09)
(4.07947 1.41062e-07 7.00888e-10)
(4.07947 -1.42698e-07 6.64011e-10)
(4.30128 1.41702e-07 9.02804e-09)
(4.30128 -1.44028e-07 8.99263e-09)
(4.52649 1.4325e-07 1.804e-08)
(4.52649 -1.4442e-07 1.80059e-08)
(4.75514 1.43959e-07 2.31681e-08)
(4.75514 -1.45626e-07 2.78157e-08)
(4.98726 1.44882e-07 2.54614e-08)
(4.98726 -1.46601e-07 3.85373e-08)
(5.22287 1.4541e-07 2.79212e-08)
(5.22287 -1.47958e-07 5.0287e-08)
(5.46196 1.47192e-07 3.05657e-08)
(5.46196 -1.48057e-07 6.31812e-08)
(5.70452 1.47497e-07 3.34092e-08)
(5.70452 -1.49628e-07 7.73457e-08)
(5.95051 1.48691e-07 3.64575e-08)
(5.95051 -1.50313e-07 9.29149e-08)
(6.19986 1.49002e-07 3.97157e-08)
(6.19986 -1.51886e-07 1.10028e-07)
(6.4525 1.50957e-07 4.32043e-08)
(6.4525 -1.51827e-07 1.28828e-07)
(6.70832 1.51144e-07 4.69413e-08)
(6.70832 -1.53549e-07 1.3932e-07)
(6.96717 1.52259e-07 5.09308e-08)
(6.96717 -1.54359e-07 1.38666e-07)
(7.22891 1.52912e-07 5.51847e-08)
(7.22891 -1.55653e-07 1.38234e-07)
(7.49334 1.54647e-07 5.97281e-08)
(7.49334 -1.55886e-07 1.38011e-07)
(7.76024 1.54956e-07 6.45795e-08)
(7.76024 -1.57574e-07 1.37986e-07)
(8.02936 1.56026e-07 6.97458e-08)
(8.02936 -1.58528e-07 1.38146e-07)
(8.30042 1.56826e-07 7.52421e-08)
(8.30043 -1.5979e-07 1.38485e-07)
(8.57312 1.58512e-07 8.10977e-08)
(8.57312 -1.60198e-07 1.38995e-07)
(8.84711 1.59128e-07 8.73375e-08)
(8.84711 -1.61718e-07 1.39671e-07)
(9.12201 1.60077e-07 9.39734e-08)
(9.12201 -1.62945e-07 1.40506e-07)
(9.39741 1.60787e-07 1.01016e-07)
(9.39742 -1.64459e-07 1.41498e-07)
(9.67289 1.6322e-07 1.08511e-07)
(9.67289 -1.64299e-07 1.42641e-07)
(9.94797 1.62506e-07 1.16471e-07)
(9.94797 -1.67338e-07 1.43935e-07)
(10.2222 1.65683e-07 1.24927e-07)
(10.2222 -1.66544e-07 1.45374e-07)
(10.4949 1.64099e-07 1.33887e-07)
(10.4949 -1.70568e-07 1.46958e-07)
(10.7657 1.689e-07 1.43397e-07)
(10.7657 -1.68272e-07 1.48684e-07)
(11.0339 1.67654e-07 1.53512e-07)
(11.0339 -1.72092e-07 1.53511e-07)
(11.299 1.67978e-07 1.64181e-07)
(11.299 -1.74407e-07 1.6418e-07)
(11.5602 1.69871e-07 1.7542e-07)
(11.5602 -1.75239e-07 1.75419e-07)
(11.8171 1.79378e-07 1.87467e-07)
(11.8171 -1.68523e-07 1.87466e-07)
(12.0688 1.61324e-07 2.00086e-07)
(12.0688 -1.89461e-07 2.00085e-07)
(12.3147 1.86095e-07 2.13388e-07)
(12.3147 -1.67654e-07 2.13386e-07)
(12.5542 1.69643e-07 2.27543e-07)
(12.5542 -1.87167e-07 2.27542e-07)
(12.7865 1.78214e-07 2.42299e-07)
(12.7865 -1.81755e-07 2.42297e-07)
(13.011 1.83953e-07 2.57962e-07)
(13.011 -1.79262e-07 2.5796e-07)
(13.2269 1.72047e-07 2.74315e-07)
(13.2269 -1.94533e-07 2.74312e-07)
(13.4335 1.90241e-07 2.91441e-07)
(13.4335 -1.798e-07 2.91438e-07)
(13.6302 1.77693e-07 3.09417e-07)
(13.6302 -1.95936e-07 3.09414e-07)
(13.8162 1.91658e-07 3.28186e-07)
(13.8162 -1.85657e-07 3.28183e-07)
(13.9911 1.82565e-07 3.47788e-07)
(13.9911 -1.98571e-07 3.47784e-07)
(14.154 1.86116e-07 3.67946e-07)
(14.154 -1.98965e-07 3.67942e-07)
(14.3045 1.98558e-07 3.88979e-07)
(14.3045 -1.90572e-07 3.88975e-07)
(14.4419 1.87954e-07 4.10816e-07)
(14.4419 -2.05389e-07 4.10811e-07)
(14.5658 1.88847e-07 4.33013e-07)
(14.5658 -2.08812e-07 4.33008e-07)
(14.6757 2.08995e-07 4.56018e-07)
(14.6757 -1.93127e-07 4.56012e-07)
(14.7712 1.78107e-07 4.79345e-07)
(14.7712 -2.28613e-07 4.79339e-07)
(14.852 2.28876e-07 5.03393e-07)
(14.852 -1.82575e-07 5.03387e-07)
(14.9177 1.64413e-07 5.27575e-07)
(14.9177 -2.51906e-07 5.27568e-07)
(14.9683 2.4407e-07 5.52122e-07)
(14.9683 -1.77258e-07 5.52115e-07)
(15.0034 1.68394e-07 5.76999e-07)
(15.0034 -2.58078e-07 5.76992e-07)
(15.0232 2.41634e-07 6.01884e-07)
(15.0232 -1.90119e-07 6.01877e-07)
(15.0277 1.82867e-07 6.27079e-07)
(15.0277 -2.54304e-07 6.27071e-07)
(15.0168 2.37562e-07 6.52224e-07)
(15.0168 -2.05163e-07 6.52216e-07)
(14.9909 1.95443e-07 6.77574e-07)
(14.9909 -2.52971e-07 6.77565e-07)
(14.9502 2.30829e-07 7.02687e-07)
(14.9502 -2.23408e-07 7.02678e-07)
(14.8951 2.16852e-07 7.28135e-07)
(14.8951 -2.4335e-07 7.28125e-07)
(14.826 2.20206e-07 7.53363e-07)
(14.826 -2.46086e-07 7.53354e-07)
(14.7434 2.38395e-07 7.78964e-07)
(14.7434 -2.34132e-07 7.78954e-07)
(14.6478 2.09254e-07 8.0438e-07)
(14.6478 -2.69638e-07 8.0437e-07)
(14.5399 2.57584e-07 8.30116e-07)
(14.5399 -2.27827e-07 8.30106e-07)
(14.4203 2.10796e-07 8.56085e-07)
(14.4203 -2.81256e-07 8.56075e-07)
(14.2897 2.59243e-07 8.82138e-07)
(14.2897 -2.39627e-07 8.82126e-07)
(14.149 2.26064e-07 9.08687e-07)
(14.149 -2.79738e-07 9.08676e-07)
(13.9988 2.63024e-07 9.3567e-07)
(13.9988 -2.49912e-07 9.35658e-07)
(13.8399 2.30345e-07 9.6306e-07)
(13.8399 -2.89829e-07 9.63048e-07)
(13.6731 2.72435e-07 9.90989e-07)
(13.6731 -2.55222e-07 9.90976e-07)
(13.4992 2.34996e-07 1.01942e-06)
(13.4992 -3.0023e-07 1.01941e-06)
(13.319 2.79038e-07 1.04835e-06)
(13.319 -2.64051e-07 1.04834e-06)
(13.1333 2.51799e-07 1.07822e-06)
(13.1333 -2.9922e-07 1.07821e-06)
(12.9428 2.77259e-07 1.10866e-06)
(12.9428 -2.82044e-07 1.10865e-06)
(12.7482 2.65371e-07 1.13995e-06)
(12.7482 -3.02249e-07 1.13993e-06)
(12.5503 2.75733e-07 1.17167e-06)
(12.5503 -3.00654e-07 1.17165e-06)
(12.3497 2.92105e-07 1.20465e-06)
(12.3497 -2.93014e-07 1.20464e-06)
(12.147 2.70495e-07 1.23832e-06)
(12.147 -3.23925e-07 1.2383e-06)
(11.9429 2.97756e-07 1.2725e-06)
(11.9429 -3.05858e-07 1.27248e-06)
(11.7378 2.96576e-07 1.30798e-06)
(11.7378 -3.16949e-07 1.30796e-06)
(11.5324 2.89265e-07 1.34393e-06)
(11.5324 -3.33935e-07 1.34391e-06)
(11.327 3.21086e-07 1.38103e-06)
(11.327 -3.12716e-07 1.38101e-06)
(11.1222 2.94289e-07 1.41905e-06)
(11.1222 -3.49713e-07 1.41903e-06)
(10.9182 3.21292e-07 1.45744e-06)
(10.9182 -3.34091e-07 1.45742e-06)
(10.7155 3.20568e-07 1.49697e-06)
(10.7155 -3.45579e-07 1.49695e-06)
(10.5144 3.27612e-07 1.53736e-06)
(10.5144 -3.50795e-07 1.53734e-06)
(10.3151 3.26718e-07 1.57833e-06)
(10.3151 -3.63042e-07 1.57831e-06)
(10.1179 3.49026e-07 1.6203e-06)
(10.1179 -3.54014e-07 1.62028e-06)
(9.92297 3.30997e-07 1.66284e-06)
(9.92297 -3.83988e-07 1.66282e-06)
(9.73056 3.65933e-07 1.7061e-06)
(9.73056 -3.63518e-07 1.70608e-06)
(9.54078 3.47773e-07 1.75025e-06)
(9.54078 -3.94204e-07 1.75023e-06)
(9.35376 3.68378e-07 1.7946e-06)
(9.35376 -3.89455e-07 1.79457e-06)
(9.16961 3.7502e-07 1.8398e-06)
(9.16961 -3.95883e-07 1.83977e-06)
(8.98841 3.82421e-07 1.88576e-06)
(8.98841 -4.05967e-07 1.88573e-06)
(8.81022 3.78074e-07 1.93172e-06)
(8.81022 -4.2387e-07 1.9317e-06)
(8.63509 4.17628e-07 1.9787e-06)
(8.63509 -4.03726e-07 1.97867e-06)
(8.46304 3.74283e-07 2.02546e-06)
(8.46304 -4.60995e-07 2.02544e-06)
(8.29409 4.56242e-07 2.07314e-06)
(8.29409 -4.00756e-07 2.0731e-06)
(8.12825 3.76506e-07 2.12078e-06)
(8.12825 -4.94591e-07 2.12076e-06)
(7.9655 4.87233e-07 2.16898e-06)
(7.9655 -4.08386e-07 2.16893e-06)
(7.80583 3.82225e-07 2.21686e-06)
(7.80583 -5.27375e-07 2.21683e-06)
(7.64921 5.20737e-07 2.26507e-06)
(7.64921 -4.16813e-07 2.26502e-06)
(7.49561 4.02067e-07 2.31355e-06)
(7.49561 -5.48918e-07 2.31352e-06)
(7.345 5.36318e-07 2.36167e-06)
(7.345 -4.46868e-07 2.36161e-06)
(7.19734 4.36102e-07 2.41018e-06)
(7.19734 -5.59345e-07 2.41015e-06)
(7.05257 5.47062e-07 2.45799e-06)
(7.05257 -4.85912e-07 2.45793e-06)
(6.91066 4.72532e-07 2.50587e-06)
(6.91066 -5.70639e-07 2.50584e-06)
(6.77155 5.72938e-07 2.55362e-06)
(6.77155 -5.14505e-07 2.55355e-06)
(6.6352 4.86482e-07 2.60031e-06)
(6.6352 -6.07835e-07 2.60029e-06)
(6.50155 6.28257e-07 2.64764e-06)
(6.50155 -5.18963e-07 2.64755e-06)
(6.37057 4.83678e-07 2.69332e-06)
(6.37057 -6.65325e-07 2.6933e-06)
(6.2422 6.86701e-07 2.73907e-06)
(6.2422 -5.26351e-07 2.73895e-06)
(6.11641 4.96776e-07 2.78357e-06)
(6.11641 -7.10512e-07 2.78356e-06)
(5.99315 7.43107e-07 2.82822e-06)
(5.99315 -5.42745e-07 2.82808e-06)
(5.87238 4.97208e-07 2.87053e-06)
(5.87237 -7.71916e-07 2.87054e-06)
(5.75406 8.18725e-07 2.91307e-06)
(5.75406 -5.48018e-07 2.91289e-06)
(5.63816 4.99286e-07 2.95327e-06)
(5.63816 -8.35038e-07 2.9533e-06)
(5.52465 8.99755e-07 2.99388e-06)
(5.52465 -5.57371e-07 2.99366e-06)
(5.41349 4.8911e-07 3.03109e-06)
(5.41349 -9.13367e-07 3.03116e-06)
(5.30465 1.0029e-06 3.0691e-06)
(5.30465 -5.55867e-07 3.06882e-06)
(5.19809 4.66009e-07 3.10276e-06)
(5.19809 -1.00686e-06 3.10289e-06)
(5.09379 1.12865e-06 3.1378e-06)
(5.09379 -5.45275e-07 3.13742e-06)
(4.99172 4.29674e-07 3.16763e-06)
(4.99172 -1.11467e-06 3.16783e-06)
(4.89185 1.27832e-06 3.19965e-06)
(4.89185 -5.27208e-07 3.19916e-06)
(4.79416 3.71198e-07 3.22501e-06)
(4.79415 -1.2439e-06 3.22533e-06)
(4.69862 1.46061e-06 3.25351e-06)
(4.69862 -4.96793e-07 3.25284e-06)
(4.60523 2.85515e-07 3.27346e-06)
(4.60523 -1.39694e-06 3.27395e-06)
(4.51397 1.69432e-06 3.29882e-06)
(4.51396 -4.40265e-07 3.29792e-06)
(4.42481 1.4687e-07 3.31263e-06)
(4.42481 -1.5956e-06 3.31337e-06)
(4.33776 1.99509e-06 3.33449e-06)
(4.33776 -3.48717e-07 3.33326e-06)
(4.25279 -4.67061e-08 3.34178e-06)
(4.25279 -1.83613e-06 3.34286e-06)
(4.16991 2.36568e-06 3.36011e-06)
(4.16991 -2.28407e-07 3.35842e-06)
(4.0891 -3.11272e-07 3.35945e-06)
(4.0891 -2.12637e-06 3.36104e-06)
(4.01035 2.83497e-06 3.37433e-06)
(4.01035 -6.26457e-08 3.37199e-06)
(3.93365 -6.73941e-07 3.36435e-06)
(3.93365 -2.4817e-06 3.36666e-06)
(3.85901 3.43388e-06 3.37627e-06)
(3.85901 1.6285e-07 3.373e-06)
(3.7864 -1.17109e-06 3.35524e-06)
(3.7864 -2.92184e-06 3.35858e-06)
(3.71583 4.20343e-06 3.36477e-06)
(3.71583 4.66398e-07 3.3602e-06)
(3.64726 -1.84392e-06 3.33077e-06)
(3.64726 -3.46435e-06 3.3356e-06)
(3.58069 5.18735e-06 3.33849e-06)
(3.58069 8.60418e-07 3.33206e-06)
(3.51608 -2.73602e-06 3.2893e-06)
(3.51608 -4.11935e-06 3.29628e-06)
(3.45339 6.44395e-06 3.29713e-06)
(3.45339 1.35995e-06 3.28804e-06)
(3.39257 -3.93142e-06 3.2286e-06)
(3.39257 -4.92357e-06 3.23867e-06)
(3.33355 8.08485e-06 3.23966e-06)
(3.33354 2.01649e-06 3.22675e-06)
(3.27625 -5.55069e-06 3.14733e-06)
(3.27625 -5.9305e-06 3.16186e-06)
(3.22058 1.02323e-05 3.16473e-06)
(3.22058 2.86808e-06 3.14633e-06)
(3.16646 -7.71875e-06 3.0431e-06)
(3.16646 -7.16953e-06 3.06409e-06)
(3.11377 1.30434e-05 3.07306e-06)
(3.11377 3.95358e-06 3.04677e-06)
(3.06243 -1.06466e-05 2.91237e-06)
(3.06243 -8.71702e-06 2.9427e-06)
(3.01234 1.67702e-05 2.96212e-06)
(3.01233 5.36042e-06 2.92443e-06)
(2.96342 -1.45734e-05 2.75419e-06)
(2.96342 -1.06218e-05 2.79807e-06)
(2.91561 2.16623e-05 2.83463e-06)
(2.91561 7.10511e-06 2.78042e-06)
(2.8689 -1.98279e-05 2.56328e-06)
(2.8689 -1.29414e-05 2.62685e-06)
(2.82325 2.81417e-05 2.69004e-06)
(2.82325 9.27991e-06 2.61185e-06)
(2.77869 -2.68678e-05 2.33739e-06)
(2.77869 -1.57468e-05 2.42967e-06)
(2.73523 3.67069e-05 2.53136e-06)
(2.73523 1.19151e-05 2.41824e-06)
(2.6929 -3.62766e-05 2.07068e-06)
(2.6929 -1.90703e-05 2.24528e-06)
(2.65173 4.80806e-05 2.36498e-06)
(2.65173 1.50667e-05 2.20082e-06)
(2.61174 -4.89174e-05 1.75897e-06)
(2.61174 -2.29855e-05 2.41603e-06)
(2.57294 6.3254e-05 2.19707e-06)
(2.57294 1.87726e-05 2.29064e-06)
(2.53532 -6.59183e-05 1.39436e-06)
(2.53532 -2.74887e-05 2.60963e-06)
(2.49887 8.35545e-05 2.03896e-06)
(2.49887 2.2994e-05 2.39728e-06)
(2.46357 -8.88608e-05 9.63396e-07)
(2.46357 -3.25319e-05 2.833e-06)
(2.42937 0.000110869 1.90423e-06)
(2.42937 2.76514e-05 2.49051e-06)
(2.39621 -0.000119942 6.06514e-07)
(2.39621 -3.7964e-05 3.09621e-06)
(2.36403 0.000143768 1.6444e-06)
(2.36403 3.24651e-05 2.72046e-06)
(2.33275 -0.000153894 4.29744e-07)
(2.33275 -4.34084e-05 3.40765e-06)
(2.3023 0.000174491 1.14002e-06)
(2.3023 3.69492e-05 3.203e-06)
(2.27263 -0.000180167 2.38744e-07)
(2.27263 -4.83854e-05 3.768e-06)
(2.24369 0.000197409 5.83189e-07)
(2.24369 4.05889e-05 3.74137e-06)
(2.21544 -0.000198109 3.23569e-08)
(2.21544 -5.24187e-05 4.17533e-06)
(2.18788 0.000211853 4.3365e-19)
(2.18787 4.29079e-05 4.33579e-06)
(2.16102 -0.000195888 5.31131e-07)
(2.16102 -5.50931e-05 4.12857e-06)
(2.1349 0.000206476 2.28954e-07)
(2.1349 4.36425e-05 4.44318e-06)
(2.10952 -0.000184458 1.23761e-06)
(2.10952 -5.61735e-05 4.04646e-06)
(2.08492 0.000190957 4.78844e-07)
(2.08491 4.27592e-05 4.5642e-06)
(2.06106 -0.000162842 1.9881e-06)
(2.06106 -5.57305e-05 3.97041e-06)
(2.03796 0.000165096 7.49321e-07)
(2.03795 4.04118e-05 4.71134e-06)
(2.01559 -0.000133942 2.62855e-06)
(2.01559 -5.40086e-05 4.06087e-06)
(1.99392 0.000135121 1.19777e-06)
(1.99392 3.68896e-05 4.8938e-06)
(1.97291 -0.000105829 3.05444e-06)
(1.97291 -5.14179e-05 4.42485e-06)
(1.95248 0.000111275 1.94025e-06)
(1.95248 3.26221e-05 5.11018e-06)
(1.93249 -8.3113e-05 3.54093e-06)
(1.93249 -4.84357e-05 4.78611e-06)
(1.9128 9.23856e-05 2.69403e-06)
(1.9128 2.79986e-05 5.35653e-06)
(1.89324 -6.46838e-05 4.09011e-06)
(1.89324 -4.53511e-05 5.14789e-06)
(1.8736 7.74488e-05 3.46598e-06)
(1.8736 2.32259e-05 5.62949e-06)
(1.8537 -4.96423e-05 4.69999e-06)
(1.85369 -4.23535e-05 5.51269e-06)
(1.83335 6.57085e-05 4.2645e-06)
(1.83335 1.84838e-05 5.92627e-06)
(1.81242 -3.7312e-05 5.36586e-06)
(1.81241 -3.96086e-05 5.88268e-06)
(1.79081 5.65421e-05 5.08669e-06)
(1.79081 1.38644e-05 6.24458e-06)
(1.76853 -2.71101e-05 6.08155e-06)
(1.76852 -3.71887e-05 6.25904e-06)
(1.7456 4.94276e-05 5.93111e-06)
(1.74559 9.40087e-06 6.58261e-06)
(1.72206 -1.8568e-05 6.8431e-06)
(1.72205 -3.51358e-05 6.73246e-06)
(1.69791 4.40002e-05 6.80397e-06)
(1.69791 5.14668e-06 6.9389e-06)
(1.67312 -1.1355e-05 7.64863e-06)
(1.67312 -3.35092e-05 7.57098e-06)
(1.64763 3.99707e-05 7.70399e-06)
(1.64763 1.12548e-06 7.80465e-06)
(1.62135 -5.19064e-06 8.49289e-06)
(1.62134 -3.23281e-05 8.44118e-06)
(1.59418 3.70659e-05 8.62556e-06)
(1.59418 -2.70451e-06 8.70831e-06)
(1.56605 1.59044e-07 9.37417e-06)
(1.56604 -3.15888e-05 9.34298e-06)
(1.53687 3.51248e-05 9.5842e-06)
(1.53687 -6.33504e-06 9.65425e-06)
(1.50659 4.88389e-06 1.03134e-05)
(1.50658 -3.12791e-05 1.02986e-05)
(1.47514 3.40017e-05 1.06021e-05)
(1.47514 -9.79114e-06 1.06635e-05)
(1.44257 9.14125e-06 1.1328e-05)
(1.44256 -3.13804e-05 1.13265e-05)
(1.40899 3.35324e-05 1.16921e-05)
(1.40898 -1.31536e-05 1.1748e-05)
(1.37461 1.30933e-05 1.24342e-05)
(1.3746 -3.18401e-05 1.24436e-05)
(1.33969 3.36386e-05 1.2879e-05)
(1.33968 -1.64469e-05 1.29317e-05)
(1.3045 1.68715e-05 1.36487e-05)
(1.30449 -3.26155e-05 1.36673e-05)
(1.26921 3.4243e-05 1.41603e-05)
(1.2692 -1.97171e-05 1.42118e-05)
(1.23392 2.05059e-05 1.49393e-05)
(1.23391 -3.37501e-05 1.49659e-05)
(1.19859 3.53042e-05 1.54927e-05)
(1.19858 -2.29924e-05 1.55444e-05)
(1.16303 2.39724e-05 1.62631e-05)
(1.16302 -3.53317e-05 1.62968e-05)
(1.12706 3.68423e-05 1.68638e-05)
(1.12705 -2.62536e-05 1.6917e-05)
(1.09059 2.73829e-05 1.76529e-05)
(1.09057 -3.7305e-05 1.76931e-05)
(1.05364 3.88139e-05 1.83238e-05)
(1.05362 -2.95561e-05 1.83791e-05)
(1.01637 3.08804e-05 1.9166e-05)
(1.01636 -3.95807e-05 1.92123e-05)
(0.97896 4.11376e-05 1.99146e-05)
(0.978944 -3.30037e-05 1.99727e-05)
(0.941556 3.45238e-05 2.08197e-05)
(0.941538 -4.21531e-05 2.08716e-05)
(0.904298 4.38227e-05 2.16456e-05)
(0.904279 -3.66186e-05 2.1707e-05)
(0.867356 3.82821e-05 2.26053e-05)
(0.867335 -4.51073e-05 2.26625e-05)
(0.830943 4.68756e-05 2.35116e-05)
(0.830922 -4.04334e-05 2.35764e-05)
(0.795307 4.22485e-05 2.45458e-05)
(0.795285 -4.84063e-05 2.46082e-05)
(0.76065 5.04021e-05 2.55473e-05)
(0.760626 -4.43882e-05 2.56159e-05)
(0.727009 4.63774e-05 2.66342e-05)
(0.726985 -5.21541e-05 2.67016e-05)
(0.694238 5.43818e-05 2.76975e-05)
(0.694212 -4.85553e-05 2.77702e-05)
(0.662015 5.06768e-05 2.88086e-05)
(0.661988 -5.64032e-05 2.8881e-05)
(0.629901 5.87862e-05 2.99213e-05)
(0.629871 -5.30196e-05 2.99981e-05)
(0.597452 5.52599e-05 3.10843e-05)
(0.597419 -6.11042e-05 3.11615e-05)
(0.564306 6.37487e-05 3.22876e-05)
(0.564269 -5.77096e-05 3.23681e-05)
(0.530136 6.00905e-05 3.35162e-05)
(0.530095 -6.63616e-05 3.35972e-05)
(0.494702 6.92417e-05 3.48235e-05)
(0.494655 -6.27231e-05 3.49063e-05)
(0.458068 6.52428e-05 3.61553e-05)
(0.458015 -7.21782e-05 3.62382e-05)
(0.420723 7.53515e-05 3.7616e-05)
(0.420663 -6.80549e-05 3.7699e-05)
(0.383507 7.07921e-05 3.90899e-05)
(0.38344 -7.85673e-05 3.91723e-05)
(0.347357 8.21706e-05 4.0716e-05)
(0.347284 -7.37067e-05 4.07966e-05)
(0.313082 7.66006e-05 4.22896e-05)
(0.313005 -8.57663e-05 4.23692e-05)
(0.281373 8.97873e-05 4.40639e-05)
(0.281292 -7.96942e-05 4.41407e-05)
(0.252691 8.28137e-05 4.57295e-05)
(0.252607 -9.37367e-05 4.58055e-05)
(0.226924 9.82968e-05 4.76169e-05)
(0.226836 -8.60297e-05 4.76895e-05)
(0.203251 8.93281e-05 4.92904e-05)
(0.203156 -0.000102687 4.9363e-05)
(0.180524 0.000107752 5.12356e-05)
(0.180417 -9.27666e-05 5.13038e-05)
(0.157915 9.60587e-05 5.28935e-05)
(0.157792 -0.000112808 5.29614e-05)
(0.135464 0.000118356 5.49799e-05)
(0.135323 -9.98075e-05 5.50407e-05)
(0.113964 0.000103033 5.67394e-05)
(0.113807 -0.000124176 5.67989e-05)
(0.09445 0.000130399 5.91342e-05)
(0.0942825 -0.000106966 5.91841e-05)
(0.0777045 0.000110315 6.10846e-05)
(0.0775357 -0.000136829 6.11335e-05)
(0.064131 0.000143811 6.37906e-05)
(0.0639718 -0.000114412 6.38294e-05)
(0.0538929 0.00011798 6.58977e-05)
(0.0537532 -0.000150781 6.5938e-05)
(0.0466903 0.00015891 6.88338e-05)
(0.0465748 -0.000121914 6.8865e-05)
(0.0417744 0.000125542 7.08125e-05)
(0.0416804 -0.000166597 7.08491e-05)
(0.0383231 0.000175826 7.37703e-05)
(0.0382421 -0.000129419 7.37986e-05)
(0.0356431 0.000132831 7.54351e-05)
(0.0355611 -0.000184519 7.5472e-05)
(0.033107 0.000194682 7.83847e-05)
(0.0330033 -0.000136876 7.84122e-05)
(0.0300062 0.000139733 7.98134e-05)
(0.0298497 -0.000204721 7.98515e-05)
(0.0255136 0.000216136 8.3053e-05)
(0.0252586 -0.000143697 8.30772e-05)
(0.0188652 0.000146221 8.43997e-05)
(0.0184468 -0.000227279 8.44339e-05)
(0.00947014 0.000240432 8.79776e-05)
(0.00880907 -0.000149694 8.79877e-05)
(-0.00305597 0.000151613 8.90136e-05)
(-0.00400329 -0.00025294 8.90295e-05)
(-0.0188529 0.000267818 9.28407e-05)
(-0.0199341 -0.000154713 9.2836e-05)
(-0.0379464 0.000155574 9.34831e-05)
(-0.0389157 -0.000281849 9.35549e-05)
(-0.0603768 0.000298936 9.77658e-05)
(-0.0611093 -0.000158246 9.78264e-05)
(-0.0858428 0.000157774 9.80843e-05)
(-0.0863696 -0.000314675 9.82505e-05)
(-0.113647 0.000334439 0.000103041)
(-0.114051 -0.000159837 0.000103208)
(-0.143189 0.000157833 0.000103029)
(-0.143526 -0.000352118 0.000103339)
(-0.174346 0.000375401 0.000108826)
(-0.174642 -0.000158901 0.000109143)
(-0.207437 0.000154957 0.000108198)
(-0.207706 -0.000395466 0.000108711)
(-0.242566 0.000422814 0.000114867)
(-0.242813 -0.000155163 0.000115394)
(-0.279062 0.000148762 0.000113462)
(-0.279286 -0.000445792 0.000114265)
(-0.315616 0.000478413 0.000121263)
(-0.315816 -0.000147952 0.000122076)
(-0.3508 0.000138367 0.000118768)
(-0.350974 -0.000504962 0.000119965)
(-0.383616 0.000544314 0.000127911)
(-0.383766 -0.000136684 0.000129077)
(-0.413126 0.000122836 0.000123906)
(-0.41325 -0.000575166 0.000125604)
(-0.437648 0.000623365 0.000134691)
(-0.437741 -0.000120515 0.00013625)
(-0.455224 0.000100799 0.00012859)
(-0.455284 -0.000659189 0.000130891)
(-0.464985 0.00071907 0.000141417)
(-0.465014 -9.84621e-05 0.000143339)
(-0.467983 7.08183e-05 0.000132578)
(-0.467987 -0.000759856 0.000135539)
(-0.466857 0.000835173 0.000147852)
(-0.46685 -6.96809e-05 0.000150015)
(-0.464696 3.0214e-05 0.000135425)
(-0.464688 -0.000880843 0.000139137)
(-0.463698 0.000976663 0.000154184)
(-0.463696 -3.25152e-05 0.00015648)
(-0.464159 -2.31376e-05 0.000137689)
(-0.464161 -0.00102478 0.00014243)
(-0.464812 0.00114926 0.000160803)
(-0.464811 1.43447e-05 0.000163145)
(-0.463958 -9.38827e-05 0.000138354)
(-0.463944 -0.00119632 0.000144571)
(-0.460118 0.00136025 0.000166467)
(-0.460081 7.18456e-05 0.00016858)
(-0.452344 -0.000186749 0.00013594)
(-0.452279 -0.00139906 0.000144193)
(-0.440477 0.00161858 0.000170017)
(-0.440382 0.000140086 0.000171266)
(-0.425156 -0.000309457 0.000128703)
(-0.425029 -0.00163764 0.000139734)
(-0.40702 0.00193642 0.000171332)
(-0.406855 0.000219226 0.000170652)
(-0.385535 -0.000471176 0.00011738)
(-0.385317 -0.00191496 0.0001533)
(-0.359748 0.00233009 0.000173103)
(-0.359462 0.000309273 0.000168868)
(-0.330175 -0.00068508 0.000103527)
(-0.329814 -0.00223397 0.000175887)
(-0.298528 0.00282005 0.000176962)
(-0.298097 0.00040884 0.000169622)
(-0.267102 -0.000970759 8.55532e-05)
(-0.266618 -0.0025989 0.000201785)
(-0.238218 0.00343211 0.000181692)
(-0.237706 0.000516131 0.000187486)
(-0.212957 -0.00135344 6.05823e-05)
(-0.21243 -0.00301353 0.000231303)
(-0.190861 0.00612827 0.000682101)
(-0.19035 0.000625544 0.000154547)
(-0.170775 -0.00410596 0.00026501)
(-0.170318 -0.00306846 8.62062e-05)
(-0.153338 0.00656385 0.000317447)
(-0.152966 0.00109287 0.000130639)
(-0.139718 -0.00497188 0.000297406)
(-0.139445 -0.00305022 7.33981e-05)
(-0.12959 0.00690792 0.000350733)
(-0.129392 0.00154383 0.000101883)
(-0.120648 -0.00580526 0.000337924)
(-0.120488 -0.00294951 5.54265e-05)
(-0.111128 0.00713551 0.000389602)
(-0.111003 0.00198835 6.77077e-05)
(-0.10239 -0.00659313 0.000386724)
(-0.10232 -0.0027586 3.20361e-05)
(-0.0972375 0.00721325 0.00043203)
(-0.097216 0.00243213 2.50398e-05)
(0.0825029 -1.15412e-08 -2.07999e-21)
(0.0825027 1.89887e-08 1.1484e-06)
(0.248505 -1.92576e-08 1.70694e-10)
(0.248505 5.89296e-08 1.73523e-06)
(0.416709 -4.29768e-08 5.48123e-10)
(0.416708 8.74704e-08 1.55679e-06)
(0.587133 -8.54755e-08 1.08349e-09)
(0.587132 9.38401e-08 1.07007e-06)
(0.759792 -1.13342e-07 1.44564e-09)
(0.75979 9.67207e-08 6.18949e-07)
(0.934701 -1.20341e-07 1.71449e-09)
(0.934699 1.06426e-07 3.69781e-07)
(1.11188 -1.22198e-07 1.97903e-09)
(1.11188 1.15161e-07 2.44571e-07)
(1.29137 -1.24191e-07 2.29256e-09)
(1.29136 1.20987e-07 1.76921e-07)
(1.47319 -1.26511e-07 2.67448e-09)
(1.47319 1.24634e-07 1.36477e-07)
(1.65741 -1.27882e-07 3.12301e-09)
(1.65741 1.28157e-07 1.10031e-07)
(1.84407 -1.29772e-07 3.63977e-09)
(1.84407 1.30402e-07 9.1405e-08)
(2.03323 -1.31257e-07 4.22902e-09)
(2.03323 1.32538e-07 7.74379e-08)
(2.22498 -1.32573e-07 4.89131e-09)
(2.22497 1.34454e-07 6.63714e-08)
(2.41937 -1.33993e-07 5.63216e-09)
(2.41936 1.35979e-07 5.71539e-08)
(2.61648 -1.35148e-07 6.45606e-09)
(2.61648 1.37542e-07 4.91152e-08)
(2.8164 -1.36495e-07 7.36788e-09)
(2.8164 1.38738e-07 4.18024e-08)
(3.01921 -1.37469e-07 8.37213e-09)
(3.01921 1.40166e-07 3.48929e-08)
(3.225 -1.38566e-07 9.47456e-09)
(3.225 1.41357e-07 2.81443e-08)
(3.43384 -1.39809e-07 1.06836e-08)
(3.43384 1.42309e-07 2.13635e-08)
(3.64581 -1.40747e-07 1.20032e-08)
(3.64581 1.43491e-07 1.43916e-08)
(3.861 -1.41612e-07 7.05258e-09)
(3.861 1.44686e-07 7.09117e-09)
(4.07947 -1.42702e-07 -7.00888e-10)
(4.07947 1.45605e-07 -6.6401e-10)
(4.30128 -1.44032e-07 -9.02804e-09)
(4.30128 1.46246e-07 -8.99263e-09)
(4.52649 -1.44425e-07 -1.804e-08)
(4.52649 1.47791e-07 -1.80059e-08)
(4.75514 -1.45631e-07 -2.78486e-08)
(4.75514 1.48501e-07 -2.31696e-08)
(4.98726 -1.46606e-07 -3.85692e-08)
(4.98726 1.49422e-07 -2.54628e-08)
(5.22287 -1.47963e-07 -5.03179e-08)
(5.22287 1.49951e-07 -2.79228e-08)
(5.46196 -1.48062e-07 -6.32112e-08)
(5.46196 1.51731e-07 -3.05671e-08)
(5.70452 -1.49633e-07 -7.7375e-08)
(5.70452 1.52036e-07 -3.34107e-08)
(5.95051 -1.50318e-07 -9.29434e-08)
(5.95051 1.53229e-07 -3.64589e-08)
(6.19986 -1.51892e-07 -1.10055e-07)
(6.19986 1.53541e-07 -3.97173e-08)
(6.4525 -1.51833e-07 -1.28855e-07)
(6.4525 1.55495e-07 -4.32057e-08)
(6.70832 -1.53556e-07 -1.39314e-07)
(6.70832 1.55682e-07 -4.69429e-08)
(6.96717 -1.54365e-07 -1.38659e-07)
(6.96717 1.56797e-07 -5.09323e-08)
(7.22891 -1.5566e-07 -1.38228e-07)
(7.22891 1.57449e-07 -5.51864e-08)
(7.49334 -1.55894e-07 -1.38005e-07)
(7.49334 1.59185e-07 -5.97296e-08)
(7.76024 -1.57582e-07 -1.37979e-07)
(7.76024 1.59494e-07 -6.45812e-08)
(8.02936 -1.58536e-07 -1.38139e-07)
(8.02936 1.60564e-07 -6.97474e-08)
(8.30043 -1.59798e-07 -1.38479e-07)
(8.30042 1.61363e-07 -7.52439e-08)
(8.57312 -1.60206e-07 -1.38989e-07)
(8.57312 1.6305e-07 -8.10993e-08)
(8.84711 -1.61727e-07 -1.39664e-07)
(8.84711 1.63666e-07 -8.73394e-08)
(9.12201 -1.62955e-07 -1.40499e-07)
(9.12201 1.64615e-07 -9.3975e-08)
(9.39741 -1.64469e-07 -1.41491e-07)
(9.39741 1.65325e-07 -1.01018e-07)
(9.67289 -1.64309e-07 -1.42634e-07)
(9.67289 1.67759e-07 -1.08513e-07)
(9.94797 -1.67348e-07 -1.43927e-07)
(9.94797 1.67045e-07 -1.16473e-07)
(10.2222 -1.66555e-07 -1.45366e-07)
(10.2221 1.70223e-07 -1.24928e-07)
(10.4949 -1.70579e-07 -1.4695e-07)
(10.4949 1.68638e-07 -1.33888e-07)
(10.7657 -1.68284e-07 -1.48676e-07)
(10.7657 1.73441e-07 -1.43399e-07)
(11.0339 -1.72104e-07 -1.53511e-07)
(11.0339 1.72194e-07 -1.53514e-07)
(11.299 -1.7442e-07 -1.6418e-07)
(11.299 1.7252e-07 -1.64183e-07)
(11.5602 -1.75252e-07 -1.75419e-07)
(11.5602 1.74412e-07 -1.75422e-07)
(11.8171 -1.68537e-07 -1.87466e-07)
(11.8171 1.8392e-07 -1.87469e-07)
(12.0688 -1.89475e-07 -2.00085e-07)
(12.0688 1.65865e-07 -2.00088e-07)
(12.3147 -1.67669e-07 -2.13387e-07)
(12.3147 1.90638e-07 -2.1339e-07)
(12.5542 -1.87182e-07 -2.27542e-07)
(12.5542 1.74186e-07 -2.27546e-07)
(12.7865 -1.81771e-07 -2.42297e-07)
(12.7865 1.82759e-07 -2.42301e-07)
(13.011 -1.79279e-07 -2.5796e-07)
(13.011 1.88496e-07 -2.57964e-07)
(13.2269 -1.94551e-07 -2.74312e-07)
(13.2269 1.76593e-07 -2.74317e-07)
(13.4335 -1.79818e-07 -2.91438e-07)
(13.4335 1.94787e-07 -2.91443e-07)
(13.6302 -1.95955e-07 -3.09414e-07)
(13.6302 1.82241e-07 -3.09419e-07)
(13.8162 -1.85678e-07 -3.28183e-07)
(13.8162 1.96205e-07 -3.28189e-07)
(13.9911 -1.98592e-07 -3.47784e-07)
(13.9911 1.87114e-07 -3.4779e-07)
(14.154 -1.98987e-07 -3.67942e-07)
(14.154 1.90665e-07 -3.67948e-07)
(14.3045 -1.90595e-07 -3.88975e-07)
(14.3045 2.03109e-07 -3.88982e-07)
(14.4419 -2.05413e-07 -4.10811e-07)
(14.4419 1.92506e-07 -4.10818e-07)
(14.5658 -2.08838e-07 -4.33008e-07)
(14.5658 1.93401e-07 -4.33016e-07)
(14.6757 -1.93155e-07 -4.56012e-07)
(14.6757 2.13548e-07 -4.5602e-07)
(14.7712 -2.28642e-07 -4.79339e-07)
(14.7712 1.82663e-07 -4.79347e-07)
(14.852 -1.82606e-07 -5.03387e-07)
(14.852 2.33433e-07 -5.03396e-07)
(14.9177 -2.5194e-07 -5.27568e-07)
(14.9177 1.68972e-07 -5.27577e-07)
(14.9683 -1.77294e-07 -5.52116e-07)
(14.9683 2.48629e-07 -5.52125e-07)
(15.0034 -2.58116e-07 -5.76992e-07)
(15.0034 1.72956e-07 -5.77001e-07)
(15.0232 -1.9016e-07 -6.01877e-07)
(15.0232 2.46197e-07 -6.01887e-07)
(15.0277 -2.54348e-07 -6.27071e-07)
(15.0277 1.87433e-07 -6.27082e-07)
(15.0168 -2.0521e-07 -6.52216e-07)
(15.0168 2.42128e-07 -6.52227e-07)
(14.9909 -2.53022e-07 -6.77566e-07)
(14.9909 2.00011e-07 -6.77577e-07)
(14.9503 -2.23463e-07 -7.02678e-07)
(14.9503 2.35398e-07 -7.0269e-07)
(14.8951 -2.43409e-07 -7.28126e-07)
(14.8951 2.21423e-07 -7.28137e-07)
(14.826 -2.46149e-07 -7.53354e-07)
(14.826 2.24779e-07 -7.53367e-07)
(14.7434 -2.34199e-07 -7.78954e-07)
(14.7434 2.42969e-07 -7.78967e-07)
(14.6478 -2.69711e-07 -8.0437e-07)
(14.6478 2.13829e-07 -8.04383e-07)
(14.5399 -2.27904e-07 -8.30106e-07)
(14.5399 2.62161e-07 -8.30119e-07)
(14.4203 -2.81339e-07 -8.56075e-07)
(14.4203 2.15374e-07 -8.56089e-07)
(14.2898 -2.39715e-07 -8.82126e-07)
(14.2898 2.63823e-07 -8.82141e-07)
(14.149 -2.79833e-07 -9.08676e-07)
(14.149 2.30644e-07 -9.08691e-07)
(13.9988 -2.50013e-07 -9.35658e-07)
(13.9988 2.67606e-07 -9.35673e-07)
(13.8399 -2.89938e-07 -9.63048e-07)
(13.8399 2.34928e-07 -9.63064e-07)
(13.6731 -2.55336e-07 -9.90976e-07)
(13.6731 2.77019e-07 -9.90992e-07)
(13.4992 -3.00353e-07 -1.01941e-06)
(13.4992 2.3958e-07 -1.01943e-06)
(13.319 -2.6418e-07 -1.04834e-06)
(13.319 2.83624e-07 -1.04835e-06)
(13.1333 -2.99358e-07 -1.07821e-06)
(13.1333 2.56384e-07 -1.07823e-06)
(12.9428 -2.82189e-07 -1.10865e-06)
(12.9428 2.81846e-07 -1.10866e-06)
(12.7482 -3.02403e-07 -1.13993e-06)
(12.7482 2.69958e-07 -1.13995e-06)
(12.5503 -3.00816e-07 -1.17165e-06)
(12.5503 2.80321e-07 -1.17167e-06)
(12.3497 -2.93186e-07 -1.20464e-06)
(12.3497 2.96692e-07 -1.20466e-06)
(12.147 -3.24105e-07 -1.2383e-06)
(12.147 2.75084e-07 -1.23832e-06)
(11.9429 -3.06047e-07 -1.27248e-06)
(11.9429 3.02343e-07 -1.2725e-06)
(11.7378 -3.17146e-07 -1.30796e-06)
(11.7378 3.01166e-07 -1.30798e-06)
(11.5324 -3.34143e-07 -1.34391e-06)