/*--------------------------------*- C++ -*----------------------------------*\
| =========                 |                                                 |
| \\      /  F ield         | OpenFOAM: The Open Source CFD Toolbox           |
|  \\    /   O peration     | Version:  2106                                  |
|   \\  /    A nd           | Website:  www.openfoam.com                      |
|    \\/     M anipulation  |                                                 |
\*---------------------------------------------------------------------------*/
FoamFile
{
    version     2.0;
    format      ascii;
    arch        "LSB;label=32;scalar=64";
    class       surfaceScalarField;
    location    "19000";
    object      phi;
}
// * * * * * * * * * * * * * * * * * * * * * * * * * * * * * * * * * * * * * //

dimensions      [0 3 -1 0 0 0 0];

oriented        oriented;

internalField   nonuniform List<scalar> 
5116
(
1.24227e-08
-4.09919e-18
-1.11182e-22
-2.71882e-22
9.8362e-24
3.79896e-08
-4.0969e-18
-7.8327e-22
-1.68974e-21
-9.04585e-23
6.46681e-08
-4.09458e-18
-7.94293e-22
-3.13916e-21
-9.44015e-23
9.24958e-08
-4.0922e-18
-8.08738e-22
-4.59274e-21
-9.848e-23
1.21512e-07
-4.08981e-18
-8.23134e-22
-6.07306e-21
-1.02696e-22
1.51755e-07
-4.08735e-18
-8.37395e-22
-7.58219e-21
-1.07052e-22
1.83268e-07
-4.08489e-18
-8.51993e-22
-9.101e-21
-1.11549e-22
2.16093e-07
-4.08237e-18
-8.66923e-22
-1.06486e-20
-1.16191e-22
2.50274e-07
-4.07985e-18
-8.8207e-22
-1.21904e-20
-1.2098e-22
2.85855e-07
-4.07723e-18
-8.97379e-22
-1.37385e-20
-1.2592e-22
3.22884e-07
-4.07454e-18
-9.12839e-22
-1.54302e-20
-1.31014e-22
3.61408e-07
-4.07179e-18
-9.28447e-22
-1.70935e-20
-1.36264e-22
4.01477e-07
-4.0691e-18
-9.44196e-22
-1.87317e-20
-1.41674e-22
4.43142e-07
-4.06629e-18
-9.6008e-22
-2.03951e-20
-1.47247e-22
4.86455e-07
-4.06346e-18
-9.76094e-22
-2.2142e-20
-1.52985e-22
5.3147e-07
-4.06061e-18
-9.92234e-22
-2.38332e-20
-1.5889e-22
5.78244e-07
-4.05778e-18
-1.0085e-21
-2.55537e-20
-1.64963e-22
6.26834e-07
-4.05487e-18
-1.02487e-21
-2.72138e-20
-1.71207e-22
6.77298e-07
-4.05215e-18
-1.04137e-21
-2.8803e-20
-1.77623e-22
7.29697e-07
-4.04903e-18
-1.05796e-21
-3.06701e-20
-1.84218e-22
7.84095e-07
-4.04581e-18
-1.07466e-21
-3.25584e-20
-1.9099e-22
8.40555e-07
-4.04255e-18
-1.09145e-21
-3.45672e-20
-1.97943e-22
8.99143e-07
-4.03967e-18
-1.10834e-21
-3.65725e-20
-2.05078e-22
9.59928e-07
-4.03641e-18
-1.1253e-21
-3.84589e-20
-2.12391e-22
1.02298e-06
-4.03306e-18
-1.14235e-21
-4.0543e-20
-2.19877e-22
1.08837e-06
-4.02966e-18
-1.15947e-21
-4.25542e-20
-2.27539e-22
1.15617e-06
-4.02644e-18
-1.17665e-21
-4.44487e-20
-2.35375e-22
1.22646e-06
-4.02283e-18
-1.19388e-21
-4.63584e-20
-2.4338e-22
1.29931e-06
-4.01938e-18
-1.21116e-21
-4.81802e-20
-2.51554e-22
1.37481e-06
-4.016e-18
-1.22847e-21
-5.01126e-20
-2.59901e-22
1.45303e-06
-4.01254e-18
-1.24578e-21
-5.22445e-20
-2.68411e-22
1.53405e-06
-4.00854e-18
-1.26308e-21
-5.46146e-20
-2.77086e-22
1.61797e-06
-4.00521e-18
-1.28036e-21
-5.66081e-20
-2.85922e-22
1.70486e-06
-4.00156e-18
-1.29757e-21
-5.84889e-20
-2.94911e-22
1.79481e-06
-3.99797e-18
-1.31469e-21
-6.03691e-20
-3.04045e-22
1.88792e-06
-3.99388e-18
-1.33169e-21
-6.27539e-20
-3.13326e-22
1.98425e-06
-3.98986e-18
-1.34855e-21
-6.45294e-20
-3.22728e-22
2.08392e-06
-3.98594e-18
-1.36523e-21
-6.72516e-20
-3.32259e-22
2.187e-06
-3.98118e-18
-1.3817e-21
-6.94988e-20
-3.41853e-22
2.29358e-06
-3.97691e-18
-1.39792e-21
-7.20704e-20
-3.51533e-22
2.40376e-06
-3.97251e-18
-1.41383e-21
-7.44998e-20
-3.61279e-22
2.51762e-06
-3.96851e-18
-1.42935e-21
-7.70975e-20
-3.71056e-22
2.63524e-06
-3.96385e-18
-1.44442e-21
-7.99272e-20
-3.80832e-22
2.75672e-06
-3.96018e-18
-1.45899e-21
-8.18475e-20
-3.90572e-22
2.88214e-06
-3.95605e-18
-1.47294e-21
-8.41082e-20
-4.00291e-22
3.01157e-06
-3.95189e-18
-1.48622e-21
-8.61353e-20
-4.09939e-22
3.14509e-06
-3.9472e-18
-1.49876e-21
-8.86413e-20
-4.19454e-22
3.28278e-06
-3.943e-18
-1.51046e-21
-9.11681e-20
-4.28788e-22
3.4247e-06
-3.93849e-18
-1.52121e-21
-9.35363e-20
-4.37908e-22
3.57093e-06
-3.93451e-18
-1.53094e-21
-9.62179e-20
-4.4676e-22
3.72151e-06
-3.92959e-18
-1.53955e-21
-9.86905e-20
-4.55285e-22
3.87651e-06
-3.92369e-18
-1.54697e-21
-1.0128e-19
-4.63449e-22
4.03596e-06
-3.91937e-18
-1.55318e-21
-1.02768e-19
-4.71183e-22
4.19992e-06
-3.91479e-18
-1.55801e-21
-1.05554e-19
-4.78462e-22
4.36841e-06
-3.90977e-18
-1.56142e-21
-1.07868e-19
-4.85161e-22
4.54147e-06
-3.90499e-18
-1.56333e-21
-1.09982e-19
-4.91291e-22
4.71912e-06
-3.90005e-18
-1.56363e-21
-1.12746e-19
-4.96713e-22
4.90137e-06
-3.89682e-18
-1.56229e-21
-1.14589e-19
-5.01466e-22
5.08823e-06
-3.89245e-18
-1.55919e-21
-1.17177e-19
-5.05538e-22
5.27972e-06
-3.88752e-18
-1.55441e-21
-1.19416e-19
-5.08747e-22
5.47582e-06
-3.88282e-18
-1.54786e-21
-1.22639e-19
-5.1112e-22
5.67655e-06
-3.87896e-18
-1.53958e-21
-1.25504e-19
-5.12563e-22
5.88188e-06
-3.8739e-18
-1.52949e-21
-1.28605e-19
-5.13158e-22
6.0918e-06
-3.86882e-18
-1.51769e-21
-1.30619e-19
-5.12797e-22
6.30631e-06
-3.86397e-18
-1.50426e-21
-1.33555e-19
-5.11555e-22
6.52539e-06
-3.85935e-18
-1.48927e-21
-1.36235e-19
-5.09283e-22
6.74903e-06
-3.85513e-18
-1.47276e-21
-1.37855e-19
-5.0589e-22
6.9772e-06
-3.85108e-18
-1.45474e-21
-1.40639e-19
-5.0158e-22
7.20991e-06
-3.84825e-18
-1.43522e-21
-1.431e-19
-4.96145e-22
7.44712e-06
-3.84102e-18
-1.41426e-21
-1.45181e-19
-4.89509e-22
7.68884e-06
-3.83842e-18
-1.39211e-21
-1.45622e-19
-4.81866e-22
7.93505e-06
-3.83519e-18
-1.36851e-21
-1.46935e-19
-4.73407e-22
8.18576e-06
-3.83171e-18
-1.34362e-21
-1.48913e-19
-4.64139e-22
8.44095e-06
-3.82837e-18
-1.31736e-21
-1.51211e-19
-4.53999e-22
8.70065e-06
-3.82624e-18
-1.28971e-21
-1.51043e-19
-4.43107e-22
8.96484e-06
-3.82287e-18
-1.26076e-21
-1.51989e-19
-4.31646e-22
9.23355e-06
-3.82094e-18
-1.23063e-21
-1.51387e-19
-4.19591e-22
9.5068e-06
-3.82045e-18
-1.19937e-21
-1.50399e-19
-4.07077e-22
9.7846e-06
-3.8183e-18
-1.167e-21
-1.50214e-19
-3.94067e-22
1.0067e-05
-3.81624e-18
-1.13363e-21
-1.50967e-19
-3.8053e-22
1.0354e-05
-3.8124e-18
-1.09942e-21
-1.51306e-19
-3.66768e-22
1.06456e-05
-3.81063e-18
-1.06432e-21
-1.51796e-19
-3.52852e-22
1.09419e-05
-3.80679e-18
-1.0282e-21
-1.51012e-19
-3.38673e-22
1.1243e-05
-3.804e-18
-9.91404e-22
-1.52565e-19
-3.2425e-22
1.15488e-05
-3.80258e-18
-9.53639e-22
-1.52477e-19
-3.0923e-22
1.18595e-05
-3.79796e-18
-9.14777e-22
-1.54183e-19
-2.93994e-22
1.21751e-05
-3.79553e-18
-8.75352e-22
-1.52523e-19
-2.78554e-22
1.24956e-05
-3.7917e-18
-8.35129e-22
-1.54056e-19
-2.63359e-22
1.28212e-05
-3.78939e-18
-7.94342e-22
-1.54834e-19
-2.47861e-22
1.31518e-05
-3.78741e-18
-7.53228e-22
-1.5631e-19
-2.32024e-22
1.34876e-05
-3.78472e-18
-7.12324e-22
-1.58213e-19
-2.1531e-22
1.38286e-05
-3.78218e-18
-6.71439e-22
-1.59384e-19
-1.97965e-22
1.4175e-05
-3.78006e-18
-6.30998e-22
-1.61131e-19
-1.79276e-22
1.45267e-05
-3.77769e-18
-5.90903e-22
-1.6228e-19
-1.59115e-22
1.4884e-05
-3.77449e-18
-5.50914e-22
-1.63439e-19
-1.38432e-22
1.52468e-05
-3.77637e-18
-5.11129e-22
-1.66302e-19
-1.17136e-22
1.56153e-05
-3.76993e-18
-4.70187e-22
-1.69208e-19
-9.51079e-23
1.59896e-05
-3.76736e-18
-4.2927e-22
-1.72113e-19
-7.19111e-23
1.63697e-05
-3.76372e-18
-3.88587e-22
-1.72794e-19
-4.78298e-23
1.67557e-05
-3.76203e-18
-3.47232e-22
-1.70884e-19
-2.38686e-23
1.71478e-05
-3.75742e-18
-3.04909e-22
-1.76069e-19
7.42843e-26
1.75461e-05
-3.75084e-18
-2.62069e-22
-1.75804e-19
2.49497e-23
1.79507e-05
-3.75292e-18
-2.20663e-22
-1.78315e-19
4.93937e-23
1.83616e-05
-3.74837e-18
-1.77489e-22
-1.79894e-19
7.38314e-23
1.8779e-05
-3.74713e-18
-1.33713e-22
-1.81586e-19
9.86204e-23
1.92031e-05
-3.74428e-18
-8.93439e-23
-1.8551e-19
1.2375e-22
1.96338e-05
-3.74252e-18
-4.31232e-23
-1.88564e-19
1.49809e-22
2.00714e-05
-3.73842e-18
5.10347e-24
-1.92234e-19
1.75094e-22
2.0516e-05
-3.73439e-18
5.35855e-23
-1.95206e-19
2.01226e-22
2.09676e-05
-3.73237e-18
1.02486e-22
-1.9647e-19
2.28955e-22
2.14264e-05
-3.73056e-18
1.52119e-22
-1.99556e-19
2.57416e-22
2.18926e-05
-3.72772e-18
2.02558e-22
-2.02972e-19
2.87531e-22
2.23663e-05
-3.72579e-18
2.51658e-22
-2.08467e-19
3.1953e-22
2.28475e-05
-3.72091e-18
2.98963e-22
-2.11692e-19
3.53739e-22
2.33365e-05
-3.71899e-18
3.44804e-22
-2.19311e-19
3.88767e-22
2.38333e-05
-3.71617e-18
3.89013e-22
-2.22795e-19
4.25965e-22
2.43381e-05
-3.7151e-18
4.33417e-22
-2.2394e-19
4.64653e-22
2.48511e-05
-3.7096e-18
4.77568e-22
-2.23574e-19
5.04324e-22
2.53724e-05
-3.70024e-18
5.2148e-22
-2.3281e-19
5.43727e-22
2.59021e-05
-3.70421e-18
5.63502e-22
-2.33509e-19
5.8745e-22
2.64404e-05
-3.70121e-18
6.06685e-22
-2.32027e-19
6.30998e-22
2.69874e-05
-3.70266e-18
6.48747e-22
-2.33177e-19
6.74406e-22
2.75433e-05
-3.70684e-18
6.9108e-22
-2.27088e-19
7.19045e-22
2.81083e-05
-3.71221e-18
7.34941e-22
-2.23452e-19
7.59646e-22
2.86824e-05
-3.71481e-18
7.80407e-22
-2.21401e-19
7.97961e-22
2.92659e-05
-3.71631e-18
8.25582e-22
-2.19793e-19
8.36058e-22
2.98589e-05
-3.71567e-18
8.70931e-22
-2.14985e-19
8.74624e-22
3.04616e-05
-3.71819e-18
9.16099e-22
-2.06235e-19
9.12883e-22
3.10742e-05
-3.7127e-18
9.61935e-22
-2.05243e-19
9.49624e-22
3.16968e-05
-3.7042e-18
1.00259e-21
-2.04671e-19
9.86324e-22
3.23296e-05
-3.7069e-18
1.03736e-21
-2.15483e-19
1.0256e-21
3.29727e-05
-3.70181e-18
1.07069e-21
-2.23153e-19
1.0716e-21
3.36264e-05
-3.699e-18
1.09577e-21
-2.25024e-19
1.12461e-21
3.42909e-05
-3.6901e-18
1.11767e-21
-2.36233e-19
1.18044e-21
3.49662e-05
-3.69637e-18
1.13011e-21
-2.31755e-19
1.24092e-21
3.56527e-05
-3.71257e-18
1.14064e-21
-2.29989e-19
1.30364e-21
3.63504e-05
-3.71841e-18
1.15077e-21
-2.23231e-19
1.3679e-21
3.70596e-05
-3.73234e-18
1.15482e-21
-2.31754e-19
1.43354e-21
3.77806e-05
-3.7456e-18
1.15951e-21
-2.18231e-19
1.50584e-21
3.85134e-05
-3.75112e-18
1.16424e-21
-2.10793e-19
1.57408e-21
3.92582e-05
-3.75292e-18
1.16314e-21
-2.11518e-19
1.64342e-21
4.00154e-05
-3.76181e-18
1.16132e-21
-2.12466e-19
1.71462e-21
4.07851e-05
-3.76746e-18
1.16036e-21
-2.02495e-19
1.78615e-21
4.15674e-05
-3.77109e-18
1.15817e-21
-2.05299e-19
1.85315e-21
4.23627e-05
-3.7725e-18
1.15169e-21
-2.10221e-19
1.92683e-21
4.31712e-05
-3.77483e-18
1.14309e-21
-2.20594e-19
1.99963e-21
4.3993e-05
-3.77448e-18
1.13481e-21
-2.22957e-19
2.07418e-21
4.48284e-05
-3.77457e-18
1.12523e-21
-2.14712e-19
2.14556e-21
4.56776e-05
-3.785e-18
1.1105e-21
-2.24066e-19
2.21479e-21
4.65409e-05
-3.78775e-18
1.09932e-21
-2.25392e-19
2.28552e-21
4.74184e-05
-3.79261e-18
1.0863e-21
-2.35711e-19
2.35105e-21
4.83105e-05
-3.79395e-18
1.07433e-21
-2.3932e-19
2.42522e-21
4.92174e-05
-3.78923e-18
1.06156e-21
-2.50227e-19
2.49151e-21
5.01393e-05
-3.77434e-18
1.04973e-21
-2.5957e-19
2.55405e-21
5.10764e-05
-3.77769e-18
1.03013e-21
-2.6899e-19
2.61792e-21
5.20291e-05
-3.77662e-18
1.02091e-21
-2.74742e-19
2.66942e-21
5.29976e-05
-3.78071e-18
1.01419e-21
-2.8929e-19
2.70449e-21
5.39822e-05
-3.77444e-18
1.0249e-21
-2.98918e-19
2.74187e-21
5.4983e-05
-3.76668e-18
1.03009e-21
-3.14272e-19
2.77908e-21
5.60005e-05
-3.75185e-18
1.02868e-21
-3.25337e-19
2.81844e-21
5.70348e-05
-3.73632e-18
1.02407e-21
-3.43262e-19
2.85847e-21
5.80862e-05
-3.73509e-18
1.00942e-21
-3.59998e-19
2.91358e-21
5.91552e-05
-3.7223e-18
9.98973e-22
-3.79159e-19
2.97544e-21
6.02418e-05
-3.7156e-18
9.74804e-22
-4.01646e-19
3.04419e-21
6.13465e-05
-3.72925e-18
9.36849e-22
-3.95069e-19
3.12386e-21
6.24694e-05
-3.74057e-18
9.17608e-22
-4.04396e-19
3.20169e-21
6.3611e-05
-3.73763e-18
8.96635e-22
-4.03265e-19
3.29555e-21
6.47716e-05
-3.74784e-18
8.65114e-22
-3.99779e-19
3.40148e-21
6.59514e-05
-3.73913e-18
8.3054e-22
-4.03679e-19
3.50201e-21
6.71507e-05
-3.75536e-18
7.77447e-22
-3.95185e-19
3.59704e-21
6.837e-05
-3.75087e-18
7.39218e-22
-4.06437e-19
3.66649e-21
6.96095e-05
-3.7531e-18
6.96365e-22
-4.02695e-19
3.74956e-21
7.08695e-05
-3.74306e-18
6.61203e-22
-4.13539e-19
3.81039e-21
7.21504e-05
-3.74556e-18
6.45908e-22
-4.19063e-19
3.85236e-21
7.34526e-05
-3.75229e-18
6.46911e-22
-4.12856e-19
3.87575e-21
7.47763e-05
-3.75698e-18
6.63828e-22
-4.06593e-19
3.89506e-21
7.6122e-05
-3.74643e-18
7.01724e-22
-4.33899e-19
3.90085e-21
7.74901e-05
-3.72363e-18
7.30598e-22
-4.46625e-19
3.9239e-21
7.88807e-05
-3.7197e-18
7.40013e-22
-4.70364e-19
3.98709e-21
8.02945e-05
-3.69222e-18
7.79929e-22
-4.86907e-19
4.06634e-21
8.17316e-05
-3.68133e-18
7.91424e-22
-5.05187e-19
4.14076e-21
8.31926e-05
-3.66063e-18
8.60493e-22
-5.21311e-19
4.21024e-21
8.46778e-05
-3.63721e-18
9.37974e-22
-5.32219e-19
4.26579e-21
8.61876e-05
-3.62233e-18
1.02254e-21
-5.48573e-19
4.33308e-21
8.77224e-05
-3.60223e-18
1.13111e-21
-5.81535e-19
4.36028e-21
8.92826e-05
-3.57635e-18
1.22832e-21
-5.79556e-19
4.3958e-21
9.08686e-05
-3.54745e-18
1.23788e-21
-6.00675e-19
4.42808e-21
9.24809e-05
-3.52404e-18
1.16701e-21
-6.28969e-19
4.49473e-21
9.41199e-05
-3.50747e-18
1.0493e-21
-6.5341e-19
4.59693e-21
9.5786e-05
-3.52324e-18
8.66245e-22
-6.5898e-19
4.73096e-21
9.74796e-05
-3.53146e-18
7.06301e-22
-6.40024e-19
4.8821e-21
9.92013e-05
-3.52764e-18
5.44604e-22
-6.30624e-19
4.95203e-21
0.000100951
-3.5428e-18
3.30374e-22
-6.44256e-19
5.00436e-21
0.000102731
-3.54053e-18
1.85762e-22
-6.45444e-19
5.07474e-21
0.000104539
-3.54155e-18
4.50052e-23
-6.55564e-19
5.13525e-21
0.000106377
-3.53929e-18
-8.96358e-23
-6.72017e-19
5.18935e-21
0.000108246
-3.53817e-18
-2.87257e-22
-6.65284e-19
5.28974e-21
0.000110146
-3.53061e-18
-4.85074e-22
-6.8267e-19
5.37534e-21
0.000112077
-3.52707e-18
-7.26504e-22
-6.93168e-19
5.48111e-21
0.00011404
-3.51404e-18
-1.00732e-21
-7.15891e-19
5.57557e-21
0.000116035
-3.47909e-18
-1.23887e-21
-7.21978e-19
5.66012e-21
0.000118063
-3.44247e-18
-1.48696e-21
-7.47978e-19
5.64941e-21
0.000120125
-3.42712e-18
-1.73591e-21
-7.56178e-19
5.57891e-21
0.00012222
-3.40696e-18
-1.9638e-21
-7.89836e-19
5.43617e-21
0.00012435
-3.40175e-18
-2.21938e-21
-8.18608e-19
5.33381e-21
0.000126516
-3.38034e-18
-2.5578e-21
-8.48012e-19
5.28464e-21
0.000128717
-3.37002e-18
-2.93763e-21
-8.80116e-19
5.24304e-21
0.000130954
-3.34876e-18
-3.27694e-21
-9.10793e-19
5.20292e-21
0.000133228
-3.35749e-18
-3.53874e-21
-9.56724e-19
5.20325e-21
0.000135539
-3.32175e-18
-3.69064e-21
-9.91669e-19
5.2117e-21
0.000137889
-3.31217e-18
-3.8906e-21
-1.02421e-18
5.23032e-21
0.000140277
-3.309e-18
-4.015e-21
-1.05101e-18
5.17138e-21
0.000142704
-3.28403e-18
-4.04785e-21
-1.07327e-18
5.05917e-21
0.000145172
-3.25772e-18
-4.1189e-21
-1.08564e-18
4.94097e-21
0.00014768
-3.23239e-18
-4.17692e-21
-1.13456e-18
4.82627e-21
0.000150229
-3.21015e-18
-4.22068e-21
-1.15154e-18
4.90619e-21
0.000152819
-3.19315e-18
-4.20383e-21
-1.20701e-18
4.88653e-21
0.000155453
-3.17518e-18
-4.24004e-21
-1.22663e-18
4.80568e-21
0.000158129
-3.14052e-18
-4.44487e-21
-1.26563e-18
4.64491e-21
0.00016085
-3.12108e-18
-4.72165e-21
-1.27917e-18
4.47231e-21
0.000163615
-3.08164e-18
-4.91052e-21
-1.31739e-18
4.22149e-21
0.000166425
-3.06506e-18
-5.05799e-21
-1.34313e-18
3.92317e-21
0.000169282
-3.04693e-18
-5.1876e-21
-1.39657e-18
3.55544e-21
0.000172185
-3.02265e-18
-5.39589e-21
-1.43415e-18
3.24879e-21
0.000175135
-3.02144e-18
-5.92507e-21
-1.4359e-18
2.97604e-21
0.000178134
-2.99776e-18
-6.23965e-21
-1.46852e-18
2.39436e-21
0.000181182
-2.95183e-18
-6.52135e-21
-1.49077e-18
2.19604e-21
0.00018428
-2.91841e-18
-7.0582e-21
-1.54251e-18
1.90478e-21
0.000187428
-2.90001e-18
-7.68484e-21
-1.53643e-18
1.80804e-21
0.000190627
-2.87126e-18
-8.2534e-21
-1.55529e-18
1.54044e-21
0.000193879
-2.86047e-18
-8.94251e-21
-1.5691e-18
1.34849e-21
0.000197184
-2.8422e-18
-9.40109e-21
-1.59448e-18
1.40506e-21
0.000200542
-2.81793e-18
-9.52784e-21
-1.57336e-18
1.22431e-21
0.000203956
-2.78047e-18
-9.65368e-21
-1.59585e-18
5.91579e-22
0.000207424
-2.75314e-18
-9.96837e-21
-1.60335e-18
1.69641e-23
0.00021095
-2.72584e-18
-1.02885e-20
-1.61135e-18
-4.44686e-22
0.000214532
-2.69811e-18
-1.07616e-20
-1.61436e-18
-5.00989e-22
0.000218173
-2.67677e-18
-1.09248e-20
-1.61453e-18
-8.75786e-22
0.000221872
-2.65766e-18
-1.09455e-20
-1.62933e-18
-1.5195e-21
0.000225632
-2.60201e-18
-1.08235e-20
-1.63982e-18
-2.00237e-21
0.000229453
-2.59197e-18
-1.09053e-20
-1.64346e-18
-2.09439e-21
0.000233335
-2.54366e-18
-1.0972e-20
-1.65229e-18
-2.59818e-21
0.00023728
-2.50647e-18
-1.1188e-20
-1.6773e-18
-3.02617e-21
0.000241289
-2.48667e-18
-1.14656e-20
-1.65165e-18
-3.63572e-21
0.000245363
-2.42643e-18
-1.17307e-20
-1.7016e-18
-4.46043e-21
0.000249503
-2.37896e-18
-1.2755e-20
-1.71192e-18
-4.31019e-21
0.000253709
-2.3441e-18
-1.32695e-20
-1.68153e-18
-4.78133e-21
0.000257983
-2.24886e-18
-1.33509e-20
-1.65482e-18
-6.05385e-21
0.000262326
-2.21689e-18
-1.40479e-20
-1.57493e-18
-7.19843e-21
0.000266739
-2.17368e-18
-1.48797e-20
-1.62776e-18
-8.65776e-21
0.000271223
-2.17294e-18
-1.51167e-20
-1.61091e-18
-8.76736e-21
0.000275778
-2.15855e-18
-1.50307e-20
-1.61229e-18
-8.61369e-21
0.000280407
-2.10172e-18
-1.48547e-20
-1.66541e-18
-8.69338e-21
0.00028511
-2.08593e-18
-1.54502e-20
-1.68707e-18
-8.22436e-21
0.000289888
-2.05285e-18
-1.64438e-20
-1.73286e-18
-8.23189e-21
0.000294743
-2.03215e-18
-1.72776e-20
-1.72609e-18
-8.01794e-21
0.000299675
-2.01914e-18
-1.8429e-20
-1.76167e-18
-9.30014e-21
0.000304685
-2.01635e-18
-1.9422e-20
-1.79016e-18
-1.09645e-20
0.000309776
-1.96727e-18
-1.89969e-20
-1.74939e-18
-1.1937e-20
0.000314947
-1.96806e-18
-1.88188e-20
-1.8148e-18
-1.38307e-20
0.0003202
-1.95737e-18
-1.90919e-20
-1.7882e-18
-1.50259e-20
0.000325537
-1.88595e-18
-1.95825e-20
-1.83694e-18
-1.62026e-20
0.000330959
-1.87145e-18
-2.0831e-20
-1.81917e-18
-1.70653e-20
0.000336466
-1.91002e-18
-2.13342e-20
-1.79642e-18
-1.86829e-20
0.00034206
-1.92749e-18
-2.08128e-20
-1.77704e-18
-2.01007e-20
0.000347742
-1.82731e-18
-1.91797e-20
-1.73078e-18
-2.14148e-20
0.000353514
-1.79079e-18
-1.87306e-20
-1.72797e-18
-2.39505e-20
0.000359376
-1.79269e-18
-1.81325e-20
-1.69537e-18
-2.51834e-20
0.00036533
-1.72916e-18
-1.63392e-20
-1.7092e-18
-2.43727e-20
0.000371378
-1.69758e-18
-1.54971e-20
-1.69911e-18
-2.30522e-20
0.000377519
-1.70694e-18
-1.50213e-20
-1.69134e-18
-2.07719e-20
0.000383757
-1.67703e-18
-1.34093e-20
-1.64933e-18
-1.90973e-20
0.000390092
-1.64751e-18
-1.33043e-20
-1.65402e-18
-1.89551e-20
0.000396525
-1.58747e-18
-1.32797e-20
-1.65849e-18
-1.84335e-20
0.000403057
-1.55429e-18
-1.4111e-20
-1.62058e-18
-1.79482e-20
0.000409691
-1.53151e-18
-1.57245e-20
-1.49339e-18
-1.76753e-20
0.000416426
-1.49993e-18
-1.73086e-20
-1.49319e-18
-2.06918e-20
0.000423266
-1.49574e-18
-1.92706e-20
-1.47097e-18
-2.34651e-20
0.00043021
-1.46255e-18
-2.1004e-20
-1.45223e-18
-2.61489e-20
0.00043726
-1.52887e-18
-2.42471e-20
-1.47242e-18
-2.57609e-20
0.000444417
-1.5005e-18
-2.52264e-20
-1.44153e-18
-2.26716e-20
0.000451683
-1.41733e-18
-2.44591e-20
-1.45033e-18
-2.38337e-20
0.000459059
-1.37294e-18
-2.56942e-20
-1.46722e-18
-2.62353e-20
0.000466546
-1.44381e-18
-2.76775e-20
-1.31438e-18
-2.31093e-20
0.000474146
-1.35535e-18
-2.59327e-20
-1.35129e-18
-2.05567e-20
0.000481859
-1.35123e-18
-2.63621e-20
-1.30694e-18
-1.82587e-20
0.000489687
-1.34326e-18
-2.72729e-20
-1.3109e-18
-1.80313e-20
0.000497631
-1.35862e-18
-2.70372e-20
-1.3279e-18
-1.76346e-20
0.000505692
-1.36865e-18
-2.59111e-20
-1.33015e-18
-1.70152e-20
0.000513872
-1.41836e-18
-2.75313e-20
-1.44014e-18
-1.95976e-20
0.000522171
-1.35685e-18
-2.78691e-20
-1.34543e-18
-2.20005e-20
0.00053059
-1.47944e-18
-2.95131e-20
-1.38548e-18
-2.57543e-20
0.000539132
-1.40635e-18
-2.46033e-20
-1.36021e-18
-2.93431e-20
0.000547795
-1.40381e-18
-2.65134e-20
-1.32794e-18
-3.06866e-20
0.000556582
-1.44103e-18
-2.76946e-20
-1.41714e-18
-3.22824e-20
0.000565493
-1.36286e-18
-2.40291e-20
-1.54888e-18
-3.38645e-20
0.000574529
-1.2205e-18
-2.31984e-20
-1.4231e-18
-3.17919e-20
0.000583691
-1.28283e-18
-2.98762e-20
-1.42581e-18
-2.87964e-20
0.000592979
-1.39492e-18
-3.08645e-20
-1.35682e-18
-2.06459e-20
0.000602393
-1.35873e-18
-2.60378e-20
-1.34381e-18
-2.57085e-20
0.000611935
-1.31625e-18
-2.55271e-20
-1.35375e-18
-2.88151e-20
0.000621604
-1.36754e-18
-2.39246e-20
-1.3529e-18
-2.77203e-20
0.000631401
-1.33428e-18
-2.20262e-20
-1.29856e-18
-2.80929e-20
0.000641325
-1.30248e-18
-2.74174e-20
-1.29061e-18
-3.49602e-20
0.000651376
-1.4292e-18
-3.53202e-20
-1.29227e-18
-3.50645e-20
0.000661555
-1.39796e-18
-3.31037e-20
-1.31716e-18
-4.14862e-20
0.000671859
-1.27202e-18
-3.79463e-20
-1.34385e-18
-4.8428e-20
0.000682289
-1.23656e-18
-5.34489e-20
-1.3337e-18
-4.79593e-20
0.000692844
-1.2791e-18
-5.79105e-20
-1.24218e-18
-5.45987e-20
0.000703523
-1.23016e-18
-5.32348e-20
-1.21661e-18
-5.03174e-20
0.000714323
-1.21921e-18
-5.54606e-20
-1.2429e-18
-4.76095e-20
0.000725243
-1.20705e-18
-5.68094e-20
-1.22336e-18
-4.77935e-20
0.000736282
-1.26288e-18
-4.56073e-20
-1.19217e-18
-3.984e-20
0.000747436
-1.18168e-18
-3.54814e-20
-1.11552e-18
-3.99493e-20
0.000758704
-1.27e-18
-2.91375e-20
-1.09733e-18
-4.17413e-20
0.000770081
-1.04175e-18
-1.50525e-20
-1.18499e-18
-4.84883e-20
0.000781566
-1.01905e-18
-1.63998e-20
-1.09157e-18
-3.98211e-20
0.000793154
-9.80465e-19
-1.32553e-20
-1.08168e-18
-4.83008e-20
0.000804842
-1.02177e-18
-1.51787e-20
-1.05855e-18
-4.69712e-20
0.000816626
-9.82506e-21
-1.02095e-18
-3.12895e-20
-1.00441e-18
1.24227e-08
-8.84058e-23
-1.15803e-23
3.79896e-08
-7.50563e-22
-2.3053e-22
6.46681e-08
-1.41525e-21
-4.51758e-22
9.24958e-08
-2.11408e-21
-6.79355e-22
1.21512e-07
-2.81946e-21
-9.21663e-22
1.51755e-07
-3.53094e-21
-1.17169e-21
1.83268e-07
-4.27798e-21
-1.428e-21
2.16093e-07
-5.00627e-21
-1.64704e-21
2.50274e-07
-5.6902e-21
-1.95762e-21
2.85855e-07
-6.37328e-21
-2.29538e-21
3.22884e-07
-7.10154e-21
-2.6198e-21
3.61408e-07
-7.84738e-21
-2.96221e-21
4.01477e-07
-8.52946e-21
-3.36564e-21
4.43142e-07
-9.24419e-21
-3.69128e-21
4.86455e-07
-1.00887e-20
-4.02613e-21
5.3147e-07
-1.08856e-20
-4.29225e-21
5.78244e-07
-1.18029e-20
-4.51082e-21
6.26834e-07
-1.28214e-20
-4.71685e-21
6.77298e-07
-1.36765e-20
-5.10485e-21
7.29697e-07
-1.45646e-20
-5.3782e-21
7.84095e-07
-1.51937e-20
-5.79775e-21
8.40555e-07
-1.589e-20
-6.38568e-21
8.99143e-07
-1.64677e-20
-6.93217e-21
9.59928e-07
-1.76194e-20
-7.00588e-21
1.02298e-06
-1.85906e-20
-7.42814e-21
1.08837e-06
-1.94998e-20
-7.83061e-21
1.15617e-06
-2.06514e-20
-8.09807e-21
1.22646e-06
-2.17551e-20
-8.52916e-21
1.29931e-06
-2.26931e-20
-9.08051e-21
1.37481e-06
-2.38656e-20
-9.42476e-21
1.45303e-06
-2.49815e-20
-9.94821e-21
1.53405e-06
-2.5938e-20
-1.07238e-20
1.61797e-06
-2.69335e-20
-1.14017e-20
1.70486e-06
-2.77686e-20
-1.19003e-20
1.79481e-06
-2.87561e-20
-1.23385e-20
1.88792e-06
-2.98173e-20
-1.25522e-20
1.98425e-06
-3.08811e-20
-1.33657e-20
2.08392e-06
-3.24902e-20
-1.33064e-20
2.187e-06
-3.34536e-20
-1.41457e-20
2.29358e-06
-3.43771e-20
-1.48862e-20
2.40376e-06
-3.5075e-20
-1.54314e-20
2.51762e-06
-3.61046e-20
-1.62519e-20
2.63524e-06
-3.74974e-20
-1.66432e-20
2.75672e-06
-3.83702e-20
-1.76416e-20
2.88214e-06
-3.93521e-20
-1.87109e-20
3.01157e-06
-4.09383e-20
-1.87683e-20
3.14509e-06
-4.20795e-20
-1.93432e-20
3.28278e-06
-4.32209e-20
-2.0319e-20
3.4247e-06
-4.43585e-20
-2.06222e-20
3.57093e-06
-4.57595e-20
-2.11639e-20
3.72151e-06
-4.68076e-20
-2.21763e-20
3.87651e-06
-4.8637e-20
-2.32157e-20
4.03596e-06
-4.98337e-20
-2.44197e-20
4.19992e-06
-5.13807e-20
-2.44814e-20
4.36841e-06
-5.2844e-20
-2.53715e-20
4.54147e-06
-5.35136e-20
-2.43317e-20
4.71912e-06
-5.47097e-20
-2.57252e-20
4.90137e-06
-5.54267e-20
-2.74776e-20
5.08823e-06
-5.71237e-20
-2.77842e-20
5.27972e-06
-5.73319e-20
-2.89753e-20
5.47582e-06
-5.883e-20
-2.93866e-20
5.67655e-06
-5.92011e-20
-3.10015e-20
5.88188e-06
-5.9857e-20
-3.17162e-20
6.0918e-06
-6.11436e-20
-3.39369e-20
6.30631e-06
-6.32494e-20
-3.46218e-20
6.52539e-06
-6.54497e-20
-3.388e-20
6.74903e-06
-6.71426e-20
-3.53094e-20
6.9772e-06
-6.79143e-20
-3.55759e-20
7.20991e-06
-6.93149e-20
-3.52777e-20
7.44712e-06
-7.00049e-20
-3.65651e-20
7.68884e-06
-7.01489e-20
-3.75843e-20
7.93505e-06
-7.19295e-20
-3.8549e-20
8.18576e-06
-7.22499e-20
-3.90857e-20
8.44095e-06
-7.16088e-20
-4.13272e-20
8.70065e-06
-7.25624e-20
-4.31609e-20
8.96484e-06
-7.30323e-20
-4.46882e-20
9.23355e-06
-7.39988e-20
-4.57269e-20
9.5068e-06
-7.44775e-20
-4.60934e-20
9.7846e-06
-7.30163e-20
-4.67205e-20
1.0067e-05
-7.37481e-20
-5.10909e-20
1.0354e-05
-7.33099e-20
-5.3802e-20
1.06456e-05
-7.37746e-20
-5.47008e-20
1.09419e-05
-7.55291e-20
-5.58922e-20
1.1243e-05
-7.52754e-20
-5.58448e-20
1.15488e-05
-7.52577e-20
-5.66933e-20
1.18595e-05
-7.6492e-20
-5.78151e-20
1.21751e-05
-7.64018e-20
-5.97873e-20
1.24956e-05
-7.62719e-20
-6.02904e-20
1.28212e-05
-7.75315e-20
-6.13704e-20
1.31518e-05
-8.20097e-20
-5.87052e-20
1.34876e-05
-8.26684e-20
-5.9249e-20
1.38286e-05
-8.51452e-20
-5.61432e-20
1.4175e-05
-8.62691e-20
-5.34641e-20
1.45267e-05
-8.53454e-20
-5.54352e-20
1.4884e-05
-8.51571e-20
-5.62837e-20
1.52468e-05
-8.26226e-20
-5.99564e-20
1.56153e-05
-8.35859e-20
-6.00674e-20
1.59896e-05
-9.05854e-20
-5.76846e-20
1.63697e-05
-8.95918e-20
-5.49831e-20
1.67557e-05
-8.89275e-20
-4.92939e-20
1.71478e-05
-8.89689e-20
-4.60752e-20
1.75461e-05
-9.76369e-20
-4.68884e-20
1.79507e-05
-9.48563e-20
-4.90509e-20
1.83616e-05
-9.26569e-20
-4.52589e-20
1.8779e-05
-9.19185e-20
-4.15712e-20
1.92031e-05
-8.49688e-20
-3.79531e-20
1.96338e-05
-8.102e-20
-4.03714e-20
2.00714e-05
-8.28592e-20
-3.86182e-20
2.0516e-05
-8.1698e-20
-3.64671e-20
2.09676e-05
-8.04434e-20
-3.6874e-20
2.14264e-05
-7.66302e-20
-3.77259e-20
2.18926e-05
-7.93339e-20
-3.71296e-20
2.23663e-05
-8.44892e-20
-3.42732e-20
2.28475e-05
-8.35411e-20
-3.6381e-20
2.33365e-05
-8.50666e-20
-3.65315e-20
2.38333e-05
-7.81603e-20
-3.58737e-20
2.43381e-05
-7.52188e-20
-3.54606e-20
2.48511e-05
-6.93412e-20
-3.92738e-20
2.53724e-05
-6.68262e-20
-3.38779e-20
2.59021e-05
-6.39317e-20
-3.5504e-20
2.64404e-05
-6.23615e-20
-3.50157e-20
2.69874e-05
-6.18448e-20
-2.85435e-20
2.75433e-05
-6.07343e-20
-2.88159e-20
2.81083e-05
-5.9958e-20
-2.88823e-20
2.86824e-05
-6.04316e-20
-2.86396e-20
2.92659e-05
-5.88994e-20
-2.71353e-20
2.98589e-05
-5.97724e-20
-2.38441e-20
3.04616e-05
-6.06862e-20
-2.0552e-20
3.10742e-05
-6.71957e-20
-2.45681e-20
3.16968e-05
-6.67911e-20
-2.38872e-20
3.23296e-05
-6.00957e-20
-2.27291e-20
3.29727e-05
-6.43851e-20
-1.67989e-20
3.36264e-05
-5.77511e-20
-1.53118e-20
3.42909e-05
-6.09289e-20
-2.00523e-20
3.49662e-05
-5.97872e-20
-1.30355e-20
3.56527e-05
-6.17192e-20
-7.53813e-21
3.63504e-05
-6.29753e-20
-1.06803e-21
3.70596e-05
-5.67296e-20
7.74095e-23
3.77806e-05
-5.17141e-20
3.00841e-21
3.85134e-05
-5.14032e-20
8.87146e-21
3.92582e-05
-4.10856e-20
5.24589e-21
4.00154e-05
-3.84036e-20
6.98767e-21
4.07851e-05
-3.86826e-20
1.0286e-20
4.15674e-05
-4.62543e-20
1.5046e-20
4.23627e-05
-4.77243e-20
1.0093e-20
4.31712e-05
-4.55553e-20
1.05171e-20
4.3993e-05
-4.27387e-20
9.03004e-21
4.48284e-05
-4.48957e-20
1.67116e-20
4.56776e-05
-4.61502e-20
1.30393e-20
4.65409e-05
-4.96139e-20
1.54598e-20
4.74184e-05
-4.70067e-20
2.96886e-20
4.83105e-05
-4.66393e-20
2.82352e-20
4.92174e-05
-4.21075e-20
3.21432e-20
5.01393e-05
-3.92549e-20
4.16061e-20
5.10764e-05
-2.83678e-20
3.73232e-20
5.20291e-05
-2.52796e-20
3.33577e-20
5.29976e-05
-5.97924e-21
3.57365e-20
5.39822e-05
-3.14386e-21
3.71689e-20
5.4983e-05
-3.35e-21
4.38127e-20
5.60005e-05
3.4953e-22
4.88974e-20
5.70348e-05
-3.8426e-21
5.11655e-20
5.80862e-05
-4.37267e-21
5.31832e-20
5.91552e-05
-5.50799e-21
6.15785e-20
6.02418e-05
1.31749e-21
6.28254e-20
6.13465e-05
1.81582e-20
7.29742e-20
6.24694e-05
1.29971e-20
8.06323e-20
6.3611e-05
2.32736e-20
9.33103e-20
6.47716e-05
2.81129e-20
8.91475e-20
6.59514e-05
3.20715e-20
8.31501e-20
6.71507e-05
3.22128e-20
8.20374e-20
6.837e-05
2.57307e-20
9.25771e-20
6.96095e-05
2.10259e-20
9.30756e-20
7.08695e-05
3.35616e-20
9.65205e-20
7.21504e-05
2.96736e-20
1.03306e-19
7.34526e-05
2.90502e-20
1.15525e-19
7.47763e-05
3.36939e-20
1.20415e-19
7.6122e-05
2.8848e-20
1.26188e-19
7.74901e-05
2.87061e-20
1.49332e-19
7.88807e-05
4.01168e-20
1.45707e-19
8.02945e-05
2.88213e-20
1.59677e-19
8.17316e-05
5.54382e-20
1.75368e-19
8.31926e-05
6.13281e-20
1.75762e-19
8.46778e-05
6.56765e-20
1.93861e-19
8.61876e-05
6.84668e-20
1.89524e-19
8.77224e-05
6.60329e-20
1.99716e-19
8.92826e-05
4.17492e-20
2.15022e-19
9.08686e-05
3.25067e-20
2.1679e-19
9.24809e-05
4.00693e-20
2.12077e-19
9.41199e-05
3.3902e-20
2.10439e-19
9.5786e-05
3.94191e-20
2.20685e-19
9.74796e-05
4.23648e-20
2.09609e-19
9.92013e-05
2.80542e-20
2.21552e-19
0.000100951
4.32e-20
2.22693e-19
0.000102731
4.86943e-20
2.26696e-19
0.000104539
5.97627e-20
2.29764e-19
0.000106377
4.69939e-20
2.42718e-19
0.000108246
5.42123e-20
2.55969e-19
0.000110146
5.36745e-20
2.73875e-19
0.000112077
5.92731e-20
2.83201e-19
0.00011404
9.86572e-20
2.89155e-19
0.000116035
1.24569e-19
2.94915e-19
0.000118063
1.57302e-19
2.87996e-19
0.000120125
1.69531e-19
2.86345e-19
0.00012222
1.61913e-19
2.92971e-19
0.00012435
1.24533e-19
3.16638e-19
0.000126516
1.13812e-19
3.23872e-19
0.000128717
1.14005e-19
3.10833e-19
0.000130954
1.4195e-19
3.24095e-19
0.000133228
1.48444e-19
3.20473e-19
0.000135539
1.46507e-19
3.19094e-19
0.000137889
1.48497e-19
3.13001e-19
0.000140277
1.44186e-19
3.13741e-19
0.000142704
1.27556e-19
3.06616e-19
0.000145172
1.39433e-19
3.17938e-19
0.00014768
1.55609e-19
3.48314e-19
0.000150229
1.71943e-19
3.51818e-19
0.000152819
1.5995e-19
3.40399e-19
0.000155453
1.18816e-19
3.50916e-19
0.000158129
1.07915e-19
3.45583e-19
0.00016085
1.26122e-19
3.75021e-19
0.000163615
1.66227e-19
3.95698e-19
0.000166425
1.80092e-19
3.83963e-19
0.000169282
1.68185e-19
3.74709e-19
0.000172185
1.21027e-19
4.14655e-19
0.000175135
1.53851e-19
3.97697e-19
0.000178134
1.66565e-19
4.33374e-19
0.000181182
1.55192e-19
4.10367e-19
0.00018428
1.60251e-19
4.22349e-19
0.000187428
1.62691e-19
4.11459e-19
0.000190627
1.41824e-19
4.00025e-19
0.000193879
1.53487e-19
4.26221e-19
0.000197184
1.79002e-19
3.87686e-19
0.000200542
1.7129e-19
3.74483e-19
0.000203956
1.61024e-19
3.62363e-19
0.000207424
1.65884e-19
3.37718e-19
0.00021095
1.49206e-19
3.60866e-19
0.000214532
1.91181e-19
3.19148e-19
0.000218173
1.91658e-19
2.92125e-19
0.000221872
1.74626e-19
2.70722e-19
0.000225632
1.58412e-19
2.69872e-19
0.000229453
1.31671e-19
2.142e-19
0.000233335
1.2257e-19
2.00938e-19
0.00023728
1.23435e-19
1.54838e-19
0.000241289
1.125e-19