/*--------------------------------*- C++ -*----------------------------------*\
| =========                 |                                                 |
| \\      /  F ield         | OpenFOAM: The Open Source CFD Toolbox           |
|  \\    /   O peration     | Version:  2106                                  |
|   \\  /    A nd           | Website:  www.openfoam.com                      |
|    \\/     M anipulation  |                                                 |
\*---------------------------------------------------------------------------*/
FoamFile
{
    version     2.0;
    format      ascii;
    arch        "LSB;label=32;scalar=64";
    class       volVectorField;
    location    "19000";
    object      U;
}
// * * * * * * * * * * * * * * * * * * * * * * * * * * * * * * * * * * * * * //

dimensions      [0 1 -1 0 0 0 0];

internalField   nonuniform List<vector> 
2560
(
(0.00171641 -1.83652e-16 -9.2858e-18)
(0.00171641 3.47419e-19 -4.45534e-18)
(0.00517368 -2.59195e-15 -6.2404e-17)
(0.00517368 -8.21286e-19 -5.2924e-17)
(0.00868071 -1.64293e-15 -6.58232e-17)
(0.00868071 -9.76721e-19 -5.44728e-17)
(0.0122382 -1.64738e-15 -6.91289e-17)
(0.0122382 -1.54944e-18 -5.60627e-17)
(0.0158469 -1.6276e-15 -7.25599e-17)
(0.0158469 -2.13364e-18 -5.76946e-17)
(0.0195074 -1.63448e-15 -7.61247e-17)
(0.0195074 -2.72548e-18 -5.93694e-17)
(0.0232206 -1.63631e-15 -7.97959e-17)
(0.0232206 -3.32581e-18 -6.10878e-17)
(0.0269872 -1.63447e-15 -8.35778e-17)
(0.0269872 -3.93681e-18 -6.28508e-17)
(0.0308079 -1.63275e-15 -8.74817e-17)
(0.0308079 -4.55309e-18 -6.46595e-17)
(0.0346835 -1.63158e-15 -9.15144e-17)
(0.0346835 -5.17113e-18 -6.65151e-17)
(0.0386148 -1.63051e-15 -9.56804e-17)
(0.0386148 -5.81662e-18 -6.84187e-17)
(0.0426026 -1.62942e-15 -9.99839e-17)
(0.0426026 -6.48811e-18 -7.03717e-17)
(0.0466476 -1.62832e-15 -1.04429e-16)
(0.0466476 -7.1518e-18 -7.23748e-17)
(0.0507507 -1.62722e-15 -1.0902e-16)
(0.0507507 -7.80489e-18 -7.44293e-17)
(0.0549126 -1.62609e-15 -1.13762e-16)
(0.0549126 -8.49209e-18 -7.6537e-17)
(0.0591343 -1.62494e-15 -1.18659e-16)
(0.0591343 -9.17584e-18 -7.86987e-17)
(0.0634165 -1.6238e-15 -1.23716e-16)
(0.0634165 -9.85406e-18 -8.09148e-17)
(0.06776 -1.62265e-15 -1.28937e-16)
(0.06776 -1.05505e-17 -8.31873e-17)
(0.0721657 -1.62153e-15 -1.34328e-16)
(0.0721657 -1.11822e-17 -8.5517e-17)
(0.0766345 -1.62035e-15 -1.39892e-16)
(0.0766345 -1.18785e-17 -8.79064e-17)
(0.0811672 -1.61908e-15 -1.45635e-16)
(0.0811672 -1.26455e-17 -9.03565e-17)
(0.0857647 -1.61779e-15 -1.51561e-16)
(0.0857647 -1.34173e-17 -9.28684e-17)
(0.0904278 -1.61657e-15 -1.57674e-16)
(0.0904278 -1.42052e-17 -9.54416e-17)
(0.0951573 -1.61535e-15 -1.6398e-16)
(0.0951573 -1.49842e-17 -9.80775e-17)
(0.0999542 -1.61401e-15 -1.70483e-16)
(0.0999542 -1.57848e-17 -1.00779e-16)
(0.104819 -1.61268e-15 -1.77189e-16)
(0.104819 -1.66214e-17 -1.03546e-16)
(0.109753 -1.61137e-15 -1.82383e-16)
(0.109753 -1.73936e-17 -1.0638e-16)
(0.114757 -1.60998e-15 -1.8603e-16)
(0.114757 -1.81242e-17 -1.0928e-16)
(0.119831 -1.60858e-15 -1.89789e-16)
(0.119831 -1.8856e-17 -1.12246e-16)
(0.124976 -1.60721e-15 -1.93661e-16)
(0.124976 -1.9627e-17 -1.15279e-16)
(0.130194 -1.60585e-15 -1.97645e-16)
(0.130194 -2.04584e-17 -1.18382e-16)
(0.135484 -1.60435e-15 -2.01745e-16)
(0.135484 -2.13783e-17 -1.21555e-16)
(0.140847 -1.60288e-15 -2.05968e-16)
(0.140847 -2.22402e-17 -1.24794e-16)
(0.146284 -1.60149e-15 -2.10307e-16)
(0.146284 -2.29833e-17 -1.28101e-16)
(0.151795 -1.60005e-15 -2.14767e-16)
(0.151795 -2.37352e-17 -1.31476e-16)
(0.157381 -1.59852e-15 -2.19347e-16)
(0.157381 -2.46074e-17 -1.34917e-16)
(0.163041 -1.5969e-15 -2.24051e-16)
(0.163041 -2.54675e-17 -1.3842e-16)
(0.168776 -1.59528e-15 -2.2887e-16)
(0.168776 -2.63239e-17 -1.41989e-16)
(0.174585 -1.59358e-15 -2.33807e-16)
(0.174585 -2.73168e-17 -1.45616e-16)
(0.18047 -1.59179e-15 -2.38861e-16)
(0.18047 -2.83119e-17 -1.49301e-16)
(0.186428 -1.59006e-15 -2.44032e-16)
(0.186428 -2.93248e-17 -1.53037e-16)
(0.19246 -1.58839e-15 -2.4931e-16)
(0.19246 -3.02572e-17 -1.56817e-16)
(0.198565 -1.58664e-15 -2.54689e-16)
(0.198565 -3.13825e-17 -1.60637e-16)
(0.204741 -1.58496e-15 -2.60163e-16)
(0.204741 -3.23911e-17 -1.64485e-16)
(0.210987 -1.58342e-15 -2.65709e-16)
(0.210987 -3.32177e-17 -1.68359e-16)
(0.217303 -1.5818e-15 -2.71328e-16)
(0.217303 -3.40898e-17 -1.72252e-16)
(0.223684 -1.57999e-15 -2.77011e-16)
(0.223684 -3.49249e-17 -1.76156e-16)
(0.230131 -1.57821e-15 -2.82747e-16)
(0.230131 -3.59458e-17 -1.8005e-16)
(0.236639 -1.57652e-15 -2.88519e-16)
(0.236639 -3.69603e-17 -1.83933e-16)
(0.243206 -1.57479e-15 -2.94315e-16)
(0.243206 -3.79619e-17 -1.87791e-16)
(0.249829 -1.57296e-15 -3.00113e-16)
(0.249829 -3.89737e-17 -1.91608e-16)
(0.256505 -1.57088e-15 -3.05905e-16)
(0.256505 -4.00461e-17 -1.95378e-16)
(0.263228 -1.56882e-15 -3.11685e-16)
(0.263228 -4.0846e-17 -1.99066e-16)
(0.269995 -1.567e-15 -3.17405e-16)
(0.269995 -4.16622e-17 -2.02682e-16)
(0.276802 -1.56516e-15 -3.2307e-16)
(0.276802 -4.27382e-17 -2.06207e-16)
(0.283644 -1.56318e-15 -3.28679e-16)
(0.283644 -4.35346e-17 -2.09628e-16)
(0.290514 -1.56117e-15 -3.34201e-16)
(0.290514 -4.45024e-17 -2.12932e-16)
(0.297409 -1.55953e-15 -3.39607e-16)
(0.297409 -4.55653e-17 -2.16094e-16)
(0.304323 -1.55807e-15 -3.4488e-16)
(0.304323 -4.63505e-17 -2.19125e-16)
(0.31125 -1.55623e-15 -3.50043e-16)
(0.31125 -4.73323e-17 -2.22014e-16)
(0.318184 -1.55425e-15 -3.55068e-16)
(0.318184 -4.84659e-17 -2.24751e-16)
(0.32512 -1.55251e-15 -3.59952e-16)
(0.32512 -4.94876e-17 -2.27312e-16)
(0.332051 -1.55075e-15 -3.64673e-16)
(0.332051 -5.10017e-17 -2.29703e-16)
(0.338973 -1.54869e-15 -3.69245e-16)
(0.338973 -5.18805e-17 -2.31932e-16)
(0.34588 -1.54672e-15 -3.73667e-16)
(0.34588 -5.27815e-17 -2.33985e-16)
(0.352766 -1.54491e-15 -3.74923e-16)
(0.352766 -5.40108e-17 -2.35848e-16)
(0.359627 -1.54304e-15 -3.7363e-16)
(0.359627 -5.47897e-17 -2.37546e-16)
(0.366457 -1.54143e-15 -3.72131e-16)
(0.366457 -5.57647e-17 -2.3907e-16)
(0.373251 -1.54009e-15 -3.70457e-16)
(0.373251 -5.66744e-17 -2.40436e-16)
(0.380006 -1.5381e-15 -3.6861e-16)
(0.380006 -5.75153e-17 -2.41639e-16)
(0.386717 -1.53609e-15 -3.66623e-16)
(0.386717 -5.80066e-17 -2.42659e-16)
(0.39338 -1.53487e-15 -3.64449e-16)
(0.39338 -5.85497e-17 -2.43527e-16)
(0.399993 -1.5336e-15 -3.62113e-16)
(0.399993 -5.92551e-17 -2.44274e-16)
(0.406551 -1.5321e-15 -3.59631e-16)
(0.406551 -5.99222e-17 -2.449e-16)
(0.413053 -1.53101e-15 -3.57054e-16)
(0.413053 -6.04167e-17 -2.45394e-16)
(0.419496 -1.52991e-15 -3.54347e-16)
(0.419496 -6.07011e-17 -2.45802e-16)
(0.425877 -1.52875e-15 -3.5152e-16)
(0.425877 -6.07261e-17 -2.46094e-16)
(0.432195 -1.52829e-15 -3.48574e-16)
(0.432195 -6.0384e-17 -2.46303e-16)
(0.438449 -1.52783e-15 -3.45545e-16)
(0.438449 -6.02012e-17 -2.46455e-16)
(0.444637 -1.5271e-15 -3.42487e-16)
(0.444637 -6.00936e-17 -2.46557e-16)
(0.450758 -1.52587e-15 -3.39389e-16)
(0.450758 -6.01956e-17 -2.46541e-16)
(0.456812 -1.52459e-15 -3.36216e-16)
(0.456812 -6.09794e-17 -2.46457e-16)
(0.462798 -1.52357e-15 -3.32977e-16)
(0.462798 -6.07431e-17 -2.46362e-16)
(0.468716 -1.52229e-15 -3.29747e-16)
(0.468716 -6.03081e-17 -2.46266e-16)
(0.474566 -1.52133e-15 -3.26534e-16)
(0.474566 -6.11149e-17 -2.46106e-16)
(0.480347 -1.52004e-15 -3.23284e-16)
(0.480347 -6.12147e-17 -2.45945e-16)
(0.486061 -1.51875e-15 -3.20061e-16)
(0.486061 -6.13631e-17 -2.45709e-16)
(0.491708 -1.51737e-15 -3.1681e-16)
(0.491708 -6.17801e-17 -2.45518e-16)
(0.497287 -1.51606e-15 -3.13609e-16)
(0.497287 -6.16577e-17 -2.45334e-16)
(0.5028 -1.51532e-15 -3.10496e-16)
(0.5028 -6.21324e-17 -2.45101e-16)
(0.508247 -1.51434e-15 -3.07415e-16)
(0.508247 -6.32469e-17 -2.44912e-16)
(0.51363 -1.51337e-15 -3.04455e-16)
(0.51363 -6.36083e-17 -2.44721e-16)
(0.518949 -1.51255e-15 -3.01662e-16)
(0.518949 -6.39429e-17 -2.44482e-16)
(0.524204 -1.51167e-15 -2.98973e-16)
(0.524204 -6.44668e-17 -2.44267e-16)
(0.529398 -1.51071e-15 -2.96402e-16)
(0.529398 -6.53439e-17 -2.44018e-16)
(0.53453 -1.51055e-15 -2.93925e-16)
(0.53453 -6.61307e-17 -2.43795e-16)
(0.539602 -1.50936e-15 -2.91576e-16)
(0.539602 -6.64087e-17 -2.43577e-16)
(0.544615 -1.5075e-15 -2.89395e-16)
(0.544615 -6.78664e-17 -2.4334e-16)
(0.549571 -1.50628e-15 -2.87207e-16)
(0.549571 -6.92226e-17 -2.43107e-16)
(0.554469 -1.50526e-15 -2.85015e-16)
(0.554469 -6.89455e-17 -2.42885e-16)
(0.559312 -1.50392e-15 -2.82767e-16)
(0.559312 -6.91096e-17 -2.42702e-16)
(0.564101 -1.5017e-15 -2.80693e-16)
(0.564101 -7.03897e-17 -2.42497e-16)
(0.568835 -1.50088e-15 -2.78585e-16)
(0.568835 -7.11348e-17 -2.42362e-16)
(0.573518 -1.50011e-15 -2.76438e-16)
(0.573518 -7.10311e-17 -2.42303e-16)
(0.578149 -1.49915e-15 -2.74468e-16)
(0.578149 -7.24866e-17 -2.42232e-16)
(0.58273 -1.49857e-15 -2.72435e-16)
(0.58273 -7.36641e-17 -2.42293e-16)
(0.587262 -1.49726e-15 -2.70584e-16)
(0.587262 -7.43312e-17 -2.42348e-16)
(0.591746 -1.49588e-15 -2.68701e-16)
(0.591746 -7.67295e-17 -2.42356e-16)
(0.596184 -1.49441e-15 -2.66817e-16)
(0.596184 -7.79276e-17 -2.42589e-16)
(0.600575 -1.49313e-15 -2.65036e-16)
(0.600575 -7.82772e-17 -2.42826e-16)
(0.604921 -1.49233e-15 -2.63417e-16)
(0.604921 -7.92804e-17 -2.43012e-16)
(0.609224 -1.49176e-15 -2.61963e-16)
(0.609224 -8.02e-17 -2.43249e-16)
(0.613484 -1.49081e-15 -2.60642e-16)
(0.613484 -8.25656e-17 -2.43575e-16)
(0.617701 -1.48925e-15 -2.59434e-16)
(0.617701 -8.39093e-17 -2.43984e-16)
(0.621878 -1.488e-15 -2.58478e-16)
(0.621878 -8.60994e-17 -2.44483e-16)
(0.626015 -1.48717e-15 -2.57824e-16)
(0.626015 -8.87198e-17 -2.44882e-16)
(0.630113 -1.48628e-15 -2.57423e-16)
(0.630113 -8.92226e-17 -2.4535e-16)
(0.634173 -1.48502e-15 -2.57178e-16)
(0.634173 -8.97067e-17 -2.45837e-16)
(0.638195 -1.48215e-15 -2.57136e-16)
(0.638195 -9.06175e-17 -2.46455e-16)
(0.642181 -1.48071e-15 -2.57559e-16)
(0.642181 -9.33233e-17 -2.46935e-16)
(0.646131 -1.48127e-15 -2.57864e-16)
(0.646131 -9.33533e-17 -2.47513e-16)
(0.650047 -1.48101e-15 -2.58387e-16)
(0.650047 -9.28059e-17 -2.48146e-16)
(0.653928 -1.482e-15 -2.58928e-16)
(0.653928 -9.18479e-17 -2.48771e-16)
(0.657776 -1.48368e-15 -2.59432e-16)
(0.657776 -9.03811e-17 -2.49364e-16)
(0.661592 -1.48529e-15 -2.5976e-16)
(0.661592 -8.91991e-17 -2.50114e-16)
(0.665376 -1.48657e-15 -2.60188e-16)
(0.665376 -8.79159e-17 -2.50972e-16)
(0.669129 -1.48642e-15 -2.60892e-16)
(0.669129 -8.71816e-17 -2.51625e-16)
(0.672851 -1.48639e-15 -2.6146e-16)
(0.672851 -8.40659e-17 -2.52103e-16)
(0.676544 -1.48589e-15 -2.61851e-16)
(0.676544 -8.29616e-17 -2.52855e-16)
(0.680208 -1.48297e-15 -2.62314e-16)
(0.680208 -8.25625e-17 -2.53775e-16)
(0.683844 -1.48221e-15 -2.63274e-16)
(0.683844 -8.32928e-17 -2.54868e-16)
(0.687452 -1.482e-15 -2.64859e-16)
(0.687452 -8.68989e-17 -2.5567e-16)
(0.691033 -1.4799e-15 -2.6674e-16)
(0.691033 -9.04221e-17 -2.56394e-16)
(0.694587 -1.47813e-15 -2.68807e-16)
(0.694587 -9.25682e-17 -2.57454e-16)
(0.698116 -1.4775e-15 -2.71637e-16)
(0.698116 -9.28872e-17 -2.58044e-16)
(0.701619 -1.48136e-15 -2.7439e-16)
(0.701619 -9.21384e-17 -2.58485e-16)
(0.705097 -1.48613e-15 -2.76894e-16)
(0.705097 -9.1352e-17 -2.58922e-16)
(0.708551 -1.49064e-15 -2.79477e-16)
(0.708551 -9.07644e-17 -2.59943e-16)
(0.711982 -1.49576e-15 -2.8268e-16)
(0.711982 -8.85725e-17 -2.60117e-16)
(0.715389 -1.49909e-15 -2.85398e-16)
(0.715389 -8.70513e-17 -2.60188e-16)
(0.718773 -1.50115e-15 -2.87599e-16)
(0.718773 -8.54137e-17 -2.6091e-16)
(0.722136 -1.50307e-15 -2.90509e-16)
(0.722136 -8.29842e-17 -2.61571e-16)
(0.725476 -1.50595e-15 -2.93499e-16)
(0.725476 -8.31329e-17 -2.61387e-16)
(0.728796 -1.50787e-15 -2.9592e-16)
(0.728796 -8.24541e-17 -2.61618e-16)
(0.732094 -1.50858e-15 -2.98363e-16)
(0.732094 -8.18161e-17 -2.62141e-16)
(0.735372 -1.50994e-15 -3.00881e-16)
(0.735372 -8.64282e-17 -2.62621e-16)
(0.73863 -1.50975e-15 -3.03529e-16)
(0.73863 -8.8763e-17 -2.6285e-16)
(0.741869 -1.50953e-15 -3.06119e-16)
(0.741869 -8.75192e-17 -2.62473e-16)
(0.745088 -1.51213e-15 -3.08386e-16)
(0.745088 -8.74495e-17 -2.62367e-16)
(0.748289 -1.51461e-15 -3.1044e-16)
(0.748289 -8.95846e-17 -2.62299e-16)
(0.751472 -1.51637e-15 -3.12466e-16)
(0.751472 -9.29922e-17 -2.62639e-16)
(0.754636 -1.51767e-15 -3.14522e-16)
(0.754636 -9.38858e-17 -2.6311e-16)
(0.757783 -1.51663e-15 -3.1654e-16)
(0.757783 -9.78165e-17 -2.63139e-16)
(0.760912 -1.51269e-15 -3.18338e-16)
(0.760912 -1.01935e-16 -2.6315e-16)
(0.764025 -1.51053e-15 -3.20184e-16)
(0.764025 -1.05032e-16 -2.63433e-16)
(0.767121 -1.51061e-15 -3.21394e-16)
(0.767121 -1.10704e-16 -2.63839e-16)
(0.770201 -1.51104e-15 -3.22213e-16)
(0.770201 -1.13883e-16 -2.65078e-16)
(0.773265 -1.5112e-15 -3.24183e-16)
(0.773265 -1.15926e-16 -2.66174e-16)
(0.776313 -1.5086e-15 -3.26374e-16)
(0.776313 -1.22198e-16 -2.66448e-16)
(0.779346 -1.50363e-15 -3.27898e-16)
(0.779346 -1.29718e-16 -2.66601e-16)
(0.782364 -1.49756e-15 -3.29584e-16)
(0.782364 -1.33427e-16 -2.67491e-16)
(0.785368 -1.4947e-15 -3.32278e-16)
(0.785368 -1.39599e-16 -2.68302e-16)
(0.788357 -1.4906e-15 -3.36811e-16)
(0.788357 -1.48622e-16 -2.69152e-16)
(0.791331 -1.4876e-15 -3.4482e-16)
(0.791331 -1.56394e-16 -2.7025e-16)
(0.794292 -1.49034e-15 -3.53595e-16)
(0.794292 -1.58921e-16 -2.73016e-16)
(0.79724 -1.49291e-15 -3.61175e-16)
(0.79724 -1.6077e-16 -2.77897e-16)
(0.800174 -1.49512e-15 -3.68741e-16)
(0.800174 -1.60928e-16 -2.82574e-16)
(0.803095 -1.49736e-15 -3.76175e-16)
(0.803095 -1.60176e-16 -2.87112e-16)
(0.806003 -1.49732e-15 -3.82754e-16)
(0.806003 -1.61399e-16 -2.91728e-16)
(0.808898 -1.49933e-15 -3.8969e-16)
(0.808898 -1.58947e-16 -2.96145e-16)
(0.811781 -1.50109e-15 -3.95456e-16)
(0.811781 -1.60033e-16 -3.01129e-16)
(0.814652 -1.50063e-15 -4.01474e-16)
(0.814652 -1.62e-16 -3.04378e-16)
(0.817511 -1.50018e-15 -4.0669e-16)
(0.817511 -1.63528e-16 -3.08345e-16)
(0.820358 -1.49744e-15 -4.11818e-16)
(0.820358 -1.66584e-16 -3.12804e-16)
(0.823194 -1.4992e-15 -4.16883e-16)
(0.823194 -1.67138e-16 -3.16086e-16)
(0.826018 -1.5023e-15 -4.20295e-16)
(0.826018 -1.63219e-16 -3.1925e-16)
(0.828832 -1.50054e-15 -4.22084e-16)
(0.828832 -1.68329e-16 -3.22701e-16)
(0.831634 -1.49496e-15 -4.24411e-16)
(0.831634 -1.76911e-16 -3.2557e-16)
(0.834426 -1.48929e-15 -4.27599e-16)
(0.834426 -1.81223e-16 -3.29153e-16)
(0.837207 -1.48285e-15 -4.31625e-16)
(0.837207 -1.90837e-16 -3.32162e-16)
(0.839978 -1.47433e-15 -4.35581e-16)
(0.839978 -1.98837e-16 -3.35601e-16)
(0.842738 -1.46794e-15 -4.3898e-16)
(0.842738 -2.05433e-16 -3.39246e-16)
(0.845489 -1.45944e-15 -4.41693e-16)
(0.845489 -2.10647e-16 -3.43606e-16)
(0.84823 -1.45138e-15 -4.44994e-16)
(0.84823 -2.15247e-16 -3.4834e-16)
(0.850961 -1.44378e-15 -4.48808e-16)
(0.850961 -2.27508e-16 -3.54165e-16)
(0.853682 -1.43428e-15 -4.53055e-16)
(0.853682 -2.33188e-16 -3.6013e-16)
(0.856394 -1.42504e-15 -4.57707e-16)
(0.856394 -2.36198e-16 -3.66475e-16)
(0.859097 -1.41382e-15 -4.62877e-16)
(0.859097 -2.47082e-16 -3.72481e-16)
(0.861791 -1.40653e-15 -4.69689e-16)
(0.861791 -2.55855e-16 -3.78378e-16)
(0.864476 -1.40641e-15 -4.78436e-16)
(0.864476 -2.61859e-16 -3.83059e-16)
(0.867152 -1.41044e-15 -4.86815e-16)
(0.867152 -2.60132e-16 -3.85836e-16)
(0.86982 -1.41357e-15 -4.93572e-16)
(0.86982 -2.54803e-16 -3.88888e-16)
(0.872479 -1.41461e-15 -4.99123e-16)
(0.872479 -2.54977e-16 -3.93119e-16)
(0.875129 -1.41593e-15 -5.04773e-16)
(0.875129 -2.56215e-16 -3.95817e-16)
(0.877772 -1.41663e-15 -5.1087e-16)
(0.877772 -2.59799e-16 -3.96638e-16)
(0.880406 -1.41621e-15 -5.14842e-16)
(0.880406 -2.69973e-16 -3.98885e-16)
(0.883032 -1.41588e-15 -5.18531e-16)
(0.883032 -2.6552e-16 -4.01647e-16)
(0.88565 -1.4134e-15 -5.22222e-16)
(0.88565 -2.64673e-16 -4.02387e-16)
(0.88826 -1.41228e-15 -5.25444e-16)
(0.88826 -2.7907e-16 -4.00218e-16)
(0.890863 -1.40973e-15 -5.25917e-16)
(0.890863 -2.8159e-16 -4.00341e-16)
(0.893458 -1.39911e-15 -5.28707e-16)
(0.893458 -2.85876e-16 -3.98979e-16)
(0.896045 -1.3834e-15 -5.30959e-16)
(0.896045 -2.94098e-16 -3.98528e-16)
(0.898625 -1.37333e-15 -5.32945e-16)
(0.898625 -3.00724e-16 -3.96194e-16)
(0.901198 -1.36601e-15 -5.32479e-16)
(0.901198 -3.09558e-16 -3.96351e-16)
(0.903763 -1.36154e-15 -5.34093e-16)
(0.903763 -3.20866e-16 -3.95183e-16)
(0.906321 -1.3575e-15 -5.34621e-16)
(0.906321 -3.32631e-16 -3.93547e-16)
(0.908872 -1.35033e-15 -5.34268e-16)
(0.908872 -3.46055e-16 -3.90131e-16)
(0.911416 -1.34382e-15 -5.33104e-16)
(0.911416 -3.58283e-16 -3.85765e-16)
(0.913953 -1.34036e-15 -5.31573e-16)
(0.913953 -3.73823e-16 -3.83849e-16)
(0.916484 -1.33627e-15 -5.30148e-16)
(0.916484 -3.90107e-16 -3.8248e-16)
(0.919007 -1.32638e-15 -5.29847e-16)
(0.919007 -4.00211e-16 -3.78628e-16)
(0.921524 -1.32482e-15 -5.25942e-16)
(0.921524 -4.17846e-16 -3.71686e-16)
(0.924034 -1.31904e-15 -5.18449e-16)
(0.924034 -4.27448e-16 -3.67649e-16)
(0.926537 -1.30756e-15 -5.11981e-16)
(0.926537 -4.31748e-16 -3.64752e-16)
(0.929034 -1.29908e-15 -5.06896e-16)
(0.929034 -4.43803e-16 -3.62802e-16)
(0.931524 -1.28827e-15 -5.04969e-16)
(0.931524 -4.53675e-16 -3.57415e-16)
(0.934008 -1.2797e-15 -5.00309e-16)
(0.934008 -4.71589e-16 -3.50144e-16)
(0.936485 -1.27469e-15 -4.92802e-16)
(0.936485 -4.91526e-16 -3.44174e-16)
(0.938956 -1.26367e-15 -4.87732e-16)
(0.938956 -4.95228e-16 -3.41704e-16)
(0.941421 -1.25175e-15 -4.85112e-16)
(0.941421 -5.03952e-16 -3.33598e-16)
(0.943879 -1.23961e-15 -4.752e-16)
(0.943879 -5.24574e-16 -3.25741e-16)
(0.946331 -1.22948e-15 -4.64771e-16)
(0.946331 -5.34277e-16 -3.21285e-16)
(0.948777 -1.22253e-15 -4.57299e-16)
(0.948777 -5.43931e-16 -3.20029e-16)
(0.951216 -1.21332e-15 -4.54002e-16)
(0.951216 -5.66911e-16 -3.14782e-16)
(0.95365 -1.20956e-15 -4.45874e-16)
(0.95365 -5.78898e-16 -3.06825e-16)
(0.956077 -1.20433e-15 -4.31827e-16)
(0.956077 -5.79338e-16 -3.02718e-16)
(0.958497 -1.19008e-15 -4.21063e-16)
(0.958497 -5.92097e-16 -2.98674e-16)
(0.960912 -1.17346e-15 -4.13817e-16)
(0.960912 -6.07428e-16 -2.97822e-16)
(0.96332 -1.16428e-15 -4.10593e-16)
(0.96332 -6.13064e-16 -2.90407e-16)
(0.965723 -1.15393e-15 -4.01507e-16)
(0.965723 -6.17802e-16 -2.79637e-16)
(0.968119 -1.14672e-15 -3.89613e-16)
(0.968119 -6.30793e-16 -2.75501e-16)
(0.970508 -1.14102e-15 -3.78558e-16)
(0.970508 -6.29689e-16 -2.77004e-16)
(0.972892 -1.12944e-15 -3.77408e-16)
(0.972892 -6.27416e-16 -2.79276e-16)
(0.975269 -1.11978e-15 -3.7757e-16)
(0.975269 -6.43103e-16 -2.85882e-16)
(0.97764 -1.10863e-15 -3.81355e-16)
(0.97764 -6.39621e-16 -2.90067e-16)
(0.980005 -1.09504e-15 -3.80644e-16)
(0.980005 -6.39957e-16 -2.96503e-16)
(0.982364 -1.0846e-15 -3.8584e-16)
(0.982364 -6.46787e-16 -2.93545e-16)
(0.984716 -1.07564e-15 -3.84903e-16)
(0.984716 -6.44973e-16 -2.98358e-16)
(0.987061 -1.06753e-15 -3.83298e-16)
(0.987061 -6.52766e-16 -3.07967e-16)
(0.9894 -1.05169e-15 -3.79597e-16)
(0.9894 -6.50206e-16 -3.13183e-16)
(0.991733 -1.03908e-15 -3.79516e-16)
(0.991733 -6.5504e-16 -3.13417e-16)
(0.994059 -1.02695e-15 -3.76793e-16)
(0.994059 -6.64363e-16 -3.18471e-16)
(0.996379 -1.0085e-15 -3.78274e-16)
(0.996379 -6.63594e-16 -3.19851e-16)
(0.998692 -1.00132e-15 -3.77407e-16)
(0.998692 -6.64606e-16 -3.29801e-16)
(1.001 -9.82951e-16 -3.80644e-16)
(1.001 -6.67902e-16 -3.37138e-16)
(1.0033 -9.60932e-16 -3.91454e-16)
(1.0033 -6.80637e-16 -3.29022e-16)
(1.00559 -9.45145e-16 -3.84401e-16)
(1.00559 -6.85874e-16 -3.24094e-16)
(1.00787 -9.17207e-16 -3.87238e-16)
(1.00787 -6.68647e-16 -3.29546e-16)
(1.01015 -8.94702e-16 -3.92946e-16)
(1.01015 -6.44091e-16 -3.4115e-16)
(1.01242 -8.75537e-16 -4.03963e-16)
(1.01242 -6.44358e-16 -3.46695e-16)
(1.01469 -8.67537e-16 -4.052e-16)
(1.01469 -6.41232e-16 -3.45959e-16)
(1.01694 -8.66474e-16 -4.0187e-16)
(1.01694 -6.42069e-16 -3.4751e-16)
(1.01919 -8.49787e-16 -3.9549e-16)
(1.01919 -6.5416e-16 -3.52113e-16)
(1.02143 -8.39093e-16 -3.98643e-16)
(1.02143 -6.67697e-16 -3.47591e-16)
(1.02367 -8.29525e-16 -4.08641e-16)
(1.02367 -6.86564e-16 -3.51478e-16)
(1.02589 -8.15885e-16 -4.07563e-16)
(1.02589 -6.95581e-16 -3.52233e-16)
(1.02811 -8.09908e-16 -4.08531e-16)
(1.02811 -6.98834e-16 -3.58282e-16)
(1.03032 -8.06502e-16 -4.22453e-16)
(1.03032 -7.08731e-16 -3.68589e-16)
(1.03252 -7.95044e-16 -4.13099e-16)
(1.03252 -7.07896e-16 -3.79672e-16)
(1.03471 -7.85807e-16 -3.98469e-16)
(1.03471 -7.15872e-16 -3.996e-16)
(1.03689 -7.86491e-16 -4.04995e-16)
(1.03689 -7.16198e-16 -3.99607e-16)
(1.03906 -7.71931e-16 -4.09266e-16)
(1.03906 -7.26151e-16 -4.0203e-16)
(1.04122 -7.50219e-16 -4.22381e-16)
(1.04122 -7.38342e-16 -3.89651e-16)
(1.04338 -7.57079e-16 -4.16339e-16)
(1.04338 -7.18081e-16 -4.05097e-16)
(1.04552 -7.6744e-16 -4.16423e-16)
(1.04552 -7.11358e-16 -4.1242e-16)
(1.04766 -7.50405e-16 -4.11224e-16)
(1.04766 -7.07674e-16 -4.32111e-16)
(1.04978 -7.2603e-16 -4.14742e-16)
(1.04978 -6.92411e-16 -4.53001e-16)
(1.05189 -7.16353e-16 -4.06917e-16)
(1.05189 -6.86266e-16 -4.60198e-16)
(1.054 -7.021e-16 -4.02271e-16)
(1.054 -6.80451e-16 -4.49915e-16)
(1.05609 -6.87512e-16 -4.01574e-16)
(1.05609 -6.70059e-16 -4.47969e-16)
(1.05817 -6.80986e-16 -4.01379e-16)
(1.05817 -6.80633e-16 -4.52746e-16)
(1.06023 -6.74479e-16 -4.01704e-16)
(1.06023 -6.77917e-16 -4.48422e-16)
(1.06229 -6.63851e-16 -4.00329e-16)
(1.06229 -6.64198e-16 -4.26152e-16)
(1.06433 -6.48072e-16 -4.03533e-16)
(1.06433 -6.58293e-16 -4.03864e-16)
(1.06636 -6.30766e-16 -4.03639e-16)
(1.06636 -6.50716e-16 -4.1245e-16)
(1.06837 -6.12598e-16 -4.09092e-16)
(1.06837 -6.23001e-16 -4.04422e-16)
(1.07037 -6.09553e-16 -4.24146e-16)
(1.07037 -6.03413e-16 -4.29608e-16)
(1.07236 -5.9968e-16 -4.3733e-16)
(1.07236 -5.93522e-16 -4.4268e-16)
(1.07433 -5.8981e-16 -4.45897e-16)
(1.07433 -5.82489e-16 -4.49322e-16)
(1.07628 -5.9937e-16 -4.54046e-16)
(1.07628 -5.76469e-16 -4.29815e-16)
(1.07822 -6.02762e-16 -4.59064e-16)
(1.07822 -5.79502e-16 -3.91626e-16)
(1.08015 -5.84778e-16 -4.59939e-16)
(1.08015 -5.86085e-16 -3.94267e-16)
(1.08205 -5.5912e-16 -4.65432e-16)
(1.08205 -5.93891e-16 -4.13534e-16)
(1.08394 -5.65924e-16 -4.58655e-16)
(1.08394 -5.56111e-16 -4.0914e-16)
(1.0858 -5.54349e-16 -4.33349e-16)
(1.0858 -5.17465e-16 -3.90619e-16)
(1.08765 -5.39024e-16 -4.41665e-16)
(1.08765 -5.2607e-16 -4.05786e-16)
(1.08948 -5.47728e-16 -4.42596e-16)
(1.08948 -5.38221e-16 -4.16815e-16)
(1.09129 -5.34049e-16 -4.45015e-16)
(1.09129 -5.24767e-16 -4.15074e-16)
(1.09307 -5.4095e-16 -4.516e-16)
(1.09307 -5.30147e-16 -3.99766e-16)
(1.09483 -5.6094e-16 -4.45865e-16)
(1.09483 -5.54291e-16 -4.059e-16)
(1.09657 -5.57985e-16 -4.43713e-16)
(1.09657 -5.56815e-16 -4.54668e-16)
(1.09828 -5.70078e-16 -4.54609e-16)
(1.09828 -5.51658e-16 -4.77637e-16)
(1.09996 -5.73986e-16 -4.46616e-16)
(1.09996 -5.41681e-16 -4.92346e-16)
(1.10162 -5.64338e-16 -4.76991e-16)
(1.10162 -5.39349e-16 -4.88719e-16)
(1.10325 -5.66432e-16 -4.95298e-16)
(1.10325 -5.49119e-16 -4.73039e-16)
(1.10485 -5.60378e-16 -4.76492e-16)
(1.10485 -5.88952e-16 -4.78347e-16)
(1.10641 -5.22431e-16 -4.87658e-16)
(1.10641 -6.11039e-16 -5.05914e-16)
(1.10794 -4.91705e-16 -5.34701e-16)
(1.10794 -5.55856e-16 -4.91882e-16)
(1.10944 -5.32395e-16 -5.21708e-16)
(1.10944 -5.49344e-16 -4.49073e-16)
(1.1109 -5.58302e-16 -4.97979e-16)
(1.1109 -5.66325e-16 -5.03175e-16)
(1.11232 -5.31518e-16 -5.38743e-16)
(1.11232 -5.20035e-16 -5.21228e-16)
(1.11371 -5.3706e-16 -5.10359e-16)
(1.11371 -5.39332e-16 -5.14159e-16)
(1.11504 -5.45588e-16 -4.79123e-16)
(1.11504 -5.3562e-16 -4.92182e-16)
(1.11634 -5.27217e-16 -4.96854e-16)
(1.11634 -5.19374e-16 -5.05028e-16)
(1.11758 -5.47296e-16 -5.34999e-16)
(1.11758 -5.17423e-16 -4.76665e-16)
(1.11878 -5.64275e-16 -4.97552e-16)
(1.11878 -5.20552e-16 -4.95047e-16)
(1.11992 -5.33821e-16 -5.09075e-16)
(1.11992 -5.42177e-16 -4.69332e-16)
(1.12101 -5.06887e-16 -5.41729e-16)
(1.12101 -5.36451e-16 -4.667e-16)
(1.12203 -4.9806e-16 -5.35119e-16)
(1.12203 -5.02848e-16 -4.94743e-16)
(1.123 -4.95892e-16 -4.74903e-16)
(1.123 -4.87268e-16 -5.00162e-16)
(1.12389 -4.94556e-16 -4.92465e-16)
(1.12389 -4.89019e-16 -5.18802e-16)
(1.12472 -4.82889e-16 -4.52584e-16)
(1.12472 -4.99037e-16 -5.45229e-16)
(1.12547 -4.95122e-16 -4.15563e-16)
(1.12547 -4.78372e-16 -4.46115e-16)
(1.12615 -4.95032e-16 -3.69138e-16)
(1.12615 -4.50645e-16 -4.79154e-16)
(1.12674 -4.8323e-16 -3.29648e-16)
(1.12674 -4.57798e-16 -4.86564e-16)
(1.12725 -4.60047e-16 -2.5533e-16)
(1.12725 -4.38517e-16 -5.17561e-16)
(1.12766 -4.19668e-16 -2.16979e-16)
(1.12766 -4.39406e-16 -4.57752e-16)
(1.12798 -3.99006e-16 -1.69519e-16)
(1.12798 -4.33931e-16 -5.17773e-16)
(1.1282 -3.99659e-16 -1.90682e-16)
(1.1282 -4.43441e-16 -5.17881e-16)
(1.12831 -4.01799e-16 -1.92297e-16)
(1.12831 -3.89512e-16 -4.50119e-16)
(0.00171641 1.82177e-19 3.07657e-18)
(0.00171641 5.61681e-20 7.1716e-18)
(0.00517368 -3.8436e-19 1.65088e-17)
(0.00517368 -1.14829e-19 2.82765e-17)
(0.00868071 -4.40917e-19 1.69855e-17)
(0.00868071 -1.4105e-19 2.91141e-17)
(0.0122382 -7.08691e-19 1.74721e-17)
(0.0122382 -2.28226e-19 2.9982e-17)
(0.0158469 -9.85719e-19 1.79684e-17)
(0.0158469 -3.2222e-19 3.08812e-17)
(0.0195074 -1.26638e-18 1.84745e-17)
(0.0195074 -4.2159e-19 3.1813e-17)
(0.0232206 -1.55504e-18 1.89904e-17)
(0.0232206 -5.25514e-19 3.27788e-17)
(0.0269872 -1.85048e-18 1.95163e-17)
(0.0269872 -6.0974e-19 3.378e-17)
(0.0308079 -2.13042e-18 2.00523e-17)
(0.0308079 -7.26035e-19 3.48181e-17)
(0.0346835 -2.40557e-18 2.0599e-17)
(0.0346835 -8.52521e-19 3.58937e-17)
(0.0386148 -2.68949e-18 2.11567e-17)
(0.0386148 -9.77963e-19 3.70087e-17)
(0.0426026 -2.98548e-18 2.17254e-17)
(0.0426026 -1.1193e-18 3.81643e-17)
(0.0466476 -3.27127e-18 2.23052e-17)
(0.0466476 -1.25896e-18 3.93619e-17)
(0.0507507 -3.55184e-18 2.28966e-17)
(0.0507507 -1.40819e-18 4.06025e-17)
(0.0549126 -3.86031e-18 2.34991e-17)
(0.0549126 -1.54002e-18 4.18881e-17)
(0.0591343 -4.19592e-18 2.41125e-17)
(0.0591343 -1.65815e-18 4.32205e-17)
(0.0634165 -4.52896e-18 2.47365e-17)
(0.0634165 -1.75577e-18 4.46019e-17)
(0.06776 -4.90342e-18 2.53704e-17)
(0.06776 -1.85209e-18 4.60331e-17)
(0.0721657 -5.29607e-18 2.60142e-17)
(0.0721657 -1.9705e-18 4.75161e-17)
(0.0766345 -5.63206e-18 2.66692e-17)
(0.0766345 -2.10408e-18 4.90517e-17)
(0.0811672 -5.93799e-18 2.73356e-17)
(0.0811672 -2.24345e-18 5.0642e-17)
(0.0857647 -6.21852e-18 2.8015e-17)
(0.0857647 -2.42514e-18 5.22884e-17)
(0.0904278 -6.46946e-18 2.87081e-17)
(0.0904278 -2.64011e-18 5.39941e-17)
(0.0951573 -6.80988e-18 2.94144e-17)
(0.0951573 -2.7927e-18 5.5761e-17)
(0.0999542 -7.22269e-18 3.01304e-17)
(0.0999542 -2.89634e-18 5.75903e-17)
(0.104819 -7.61323e-18 3.0858e-17)
(0.104819 -3.03544e-18 5.94829e-17)
(0.109753 -8.04273e-18 3.15975e-17)
(0.109753 -3.1899e-18 6.1441e-17)
(0.114757 -8.48141e-18 3.23469e-17)
(0.114757 -3.32085e-18 6.34676e-17)
(0.119831 -8.87105e-18 3.31063e-17)
(0.119831 -3.48399e-18 6.55658e-17)
(0.124976 -9.29959e-18 3.38756e-17)
(0.124976 -3.70457e-18 6.77365e-17)
(0.130194 -9.76705e-18 3.46527e-17)
(0.130194 -3.91618e-18 6.99775e-17)
(0.135484 -1.01713e-17 3.54385e-17)
(0.135484 -4.12772e-18 7.2288e-17)
(0.140847 -1.0559e-17 3.6235e-17)
(0.140847 -4.3885e-18 7.46743e-17)
(0.146284 -1.09388e-17 3.70404e-17)
(0.146284 -4.70992e-18 7.71369e-17)
(0.151795 -1.13081e-17 3.78545e-17)
(0.151795 -4.85383e-18 7.96764e-17)
(0.157381 -1.17105e-17 3.86766e-17)
(0.157381 -4.96256e-18 8.22919e-17)
(0.163041 -1.21405e-17 4.03912e-17)
(0.163041 -5.15252e-18 8.49838e-17)
(0.168776 -1.2674e-17 4.41937e-17)
(0.168776 -5.31113e-18 8.77519e-17)
(0.174585 -1.31832e-17 4.80836e-17)
(0.174585 -5.54717e-18 9.06033e-17)
(0.18047 -1.3557e-17 5.2053e-17)
(0.18047 -5.80787e-18 9.35257e-17)
(0.186428 -1.38738e-17 5.60994e-17)
(0.186428 -6.00552e-18 9.65201e-17)
(0.19246 -1.42182e-17 6.02231e-17)
(0.19246 -6.30669e-18 9.95878e-17)
(0.198565 -1.47238e-17 6.44234e-17)
(0.198565 -6.63972e-18 1.0273e-16)
(0.204741 -1.5181e-17 6.86923e-17)
(0.204741 -6.8286e-18 1.05939e-16)
(0.210987 -1.55599e-17 7.30306e-17)
(0.210987 -7.31119e-18 1.09204e-16)
(0.217303 -1.60412e-17 7.74292e-17)
(0.217303 -7.53206e-18 1.12522e-16)
(0.223684 -1.65862e-17 8.18765e-17)
(0.223684 -7.56155e-18 1.15893e-16)
(0.230131 -1.70679e-17 8.63682e-17)
(0.230131 -7.95046e-18 1.1932e-16)
(0.236639 -1.75272e-17 9.09016e-17)
(0.236639 -8.23381e-18 1.22783e-16)
(0.243206 -1.80376e-17 9.54605e-17)
(0.243206 -8.3197e-18 1.26282e-16)
(0.249829 -1.8515e-17 1.00043e-16)
(0.249829 -8.66904e-18 1.29809e-16)
(0.256505 -1.9114e-17 1.0463e-16)
(0.256505 -9.05386e-18 1.33344e-16)
(0.263228 -1.96924e-17 1.09192e-16)
(0.263228 -9.53742e-18 1.36892e-16)
(0.269995 -2.02268e-17 1.13745e-16)
(0.269995 -9.93367e-18 1.40426e-16)
(0.276802 -2.08827e-17 1.18261e-16)
(0.276802 -9.93826e-18 1.43953e-16)
(0.283644 -2.12811e-17 1.22724e-16)
(0.283644 -9.92057e-18 1.47469e-16)
(0.290514 -2.16587e-17 1.27139e-16)
(0.290514 -1.00407e-17 1.50964e-16)
(0.297409 -2.20694e-17 1.31487e-16)
(0.297409 -1.05398e-17 1.54408e-16)
(0.304323 -2.25039e-17 1.35759e-16)
(0.304323 -1.10784e-17 1.578e-16)
(0.31125 -2.2921e-17 1.39936e-16)
(0.31125 -1.14129e-17 1.61148e-16)
(0.318184 -2.32484e-17 1.44004e-16)
(0.318184 -1.17921e-17 1.64437e-16)
(0.32512 -2.36113e-17 1.47961e-16)
(0.32512 -1.20416e-17 1.67662e-16)
(0.332051 -2.38195e-17 1.51794e-16)
(0.332051 -1.25105e-17 1.70807e-16)
(0.338973 -2.42027e-17 1.55506e-16)
(0.338973 -1.32409e-17 1.73876e-16)
(0.34588 -2.48825e-17 1.59068e-16)
(0.34588 -1.35737e-17 1.76853e-16)
(0.352766 -2.57508e-17 1.6247e-16)
(0.352766 -1.38303e-17 1.79765e-16)
(0.359627 -2.65592e-17 1.65728e-16)
(0.359627 -1.38569e-17 1.82585e-16)
(0.366457 -2.70702e-17 1.68827e-16)
(0.366457 -1.39722e-17 1.85313e-16)
(0.373251 -2.74967e-17 1.71781e-16)
(0.373251 -1.42152e-17 1.87972e-16)
(0.380006 -2.79162e-17 1.74605e-16)
(0.380006 -1.43913e-17 1.90558e-16)
(0.386717 -2.80307e-17 1.77228e-16)
(0.386717 -1.48193e-17 1.93057e-16)
(0.39338 -2.8334e-17 1.79697e-16)
(0.39338 -1.52565e-17 1.95452e-16)
(0.399993 -2.88474e-17 1.82007e-16)
(0.399993 -1.55898e-17 1.97749e-16)
(0.406551 -2.87928e-17 1.84182e-16)
(0.406551 -1.60201e-17 1.99974e-16)
(0.413053 -2.88066e-17 1.86221e-16)
(0.413053 -1.68416e-17 2.02138e-16)
(0.419496 -2.91129e-17 1.88131e-16)
(0.419496 -1.77922e-17 2.04223e-16)
(0.425877 -2.94523e-17 1.89913e-16)
(0.425877 -1.80558e-17 2.06224e-16)
(0.432195 -2.97464e-17 1.91582e-16)
(0.432195 -1.83173e-17 2.08136e-16)
(0.438449 -2.95278e-17 1.93147e-16)
(0.438449 -1.86545e-17 2.09987e-16)
(0.444637 -2.92853e-17 1.94627e-16)