/*--------------------------------*- C++ -*----------------------------------*\
| =========                 |                                                 |
| \\      /  F ield         | OpenFOAM: The Open Source CFD Toolbox           |
|  \\    /   O peration     | Version:  2012                                  |
|   \\  /    A nd           | Website:  www.openfoam.com                      |
|    \\/     M anipulation  |                                                 |
\*---------------------------------------------------------------------------*/
FoamFile
{
    version     2.0;
    format      ascii;
    class       volTensorField;
    location    "10000";
    object      grad(U);
}
// * * * * * * * * * * * * * * * * * * * * * * * * * * * * * * * * * * * * * //

dimensions      [0 0 -1 0 0 0 0];


internalField   nonuniform List<tensor> 
40
(
(7.90302e-16 -1.40386e-30 -2.2431e-30 52.8247 -7.27016e-14 2.30462e-14 4.82857 -4.88499e-15 3.52101e-16)
(0 1.40386e-30 0 52.8247 -3.54065e-14 2.77092e-14 4.82857 -3.46382e-15 -3.23938e-16)
(3.34027e-15 -4.9768e-30 -1.77576e-30 14.1011 1.32177e-30 2.28247e-14 6.11742 -1.57772e-30 -3.80368e-15)
(1.6425e-14 1.77576e-30 1.77576e-30 14.1011 -1.43086e-14 3.03414e-14 6.11742 -6.51557e-15 -3.32994e-15)
(-2.10599e-15 0 0 1.93716 4.6276e-15 8.80472e-15 2.77793 -8.09849e-15 2.36658e-29)
(0 0 0 1.93716 2.21314e-15 1.02492e-14 2.77793 -3.65756e-15 3.07394e-15)
(3.19892e-15 -1.75162e-46 1.13648e-29 0.319874 4.93038e-32 1.04551e-14 2.76744 -3.38647e-15 0)
(9.20082e-15 0 0 0.319874 8.15192e-17 8.9028e-15 2.76744 -3.37741e-15 -7.88861e-30)
(0 0 -2.8026e-45 1.38778e-17 4.93038e-32 -7.11073e-44 -7.75181e-19 3.42573e-33 -3.1591e-29)
(1.15021e-14 -9.77975e-30 -1.29625e-31 1.29063e-15 -3.22252e-17 3.82356e-16 1.77628e-14 -4.42092e-16 6.30765e-29)
(0 -7.0193e-31 -1.21259e-29 52.8247 -1.47638e-14 -2.30462e-14 -4.82857 4.88499e-15 -3.52101e-16)
(0 0 -3.87309e-29 52.8247 -8.47356e-43 -3.33452e-14 -4.82857 1.04313e-28 3.23938e-16)
(-3.10977e-15 4.43939e-31 -3.05676e-30 14.1011 -4.73667e-15 -1.25097e-14 -6.11742 9.52437e-15 3.80368e-15)
(1.82333e-14 3.61687e-30 -5.41799e-29 14.1011 8.28304e-30 -1.2606e-14 -6.11742 6.51557e-15 3.32994e-15)
(5.05794e-15 -2.24617e-30 -4.49235e-30 1.93716 -1.39789e-15 -4.59177e-15 -2.77793 6.03706e-15 -2.36658e-29)
(0 0 0 1.93716 -1.50505e-15 -4.23291e-15 -2.77793 7.03192e-15 -3.07394e-15)
(-2.3002e-15 0 0 0.319874 -3.38494e-16 -1.04551e-14 -2.76744 3.38647e-15 0)
(0 2.48084e-32 0 0.319874 -5.12924e-16 -9.97946e-15 -2.76744 3.37741e-15 7.88861e-30)
(3.41081e-16 -2.4561e-30 -3.70284e-32 0 -3.29305e-17 0 1.40776e-30 4.51767e-16 0)
(3.41558e-15 -1.4013e-45 2.86226e-29 1.29063e-15 0 -3.82356e-16 -2.13163e-14 -3.58223e-45 -6.31089e-29)
(2.87862e-15 5.02487e-33 0 -1.34492e-08 5.80351e-16 -7.33905e-15 1.84507e-07 -3.65002e-15 -6.39686e-16)
(1.15052e-14 0 0 -1.34492e-08 5.34857e-16 -7.2959e-15 1.84507e-07 -3.60709e-15 4.03959e-16)
(2.3002e-15 3.51162e-32 6.427e-31 -0.319874 1.38422e-16 -3.04313e-15 2.76744 -1.71393e-16 8.6059e-16)
(9.20082e-15 -2.2197e-32 -7.10303e-31 -0.319874 3.61965e-16 -2.86967e-15 2.76744 -1.45883e-16 -7.03315e-17)
(-4.21198e-15 1.40386e-31 -5.61544e-31 -1.93716 -5.68519e-16 -1.23526e-15 2.77793 1.21123e-16 -1.94657e-15)
(0 0 2.67946e-31 -1.93716 0 -4.20445e-16 2.77793 9.86076e-32 -1.38914e-15)
(-2.43612e-15 0 0 -14.1011 0 -2.70235e-15 6.11742 0 -1.4426e-16)
(-1.8083e-15 -1.10985e-31 0 -14.1011 -4.55169e-16 -2.27134e-15 6.11742 -9.21065e-17 -5.32037e-16)
(0 0 0 -52.8247 2.40587e-15 -4.34963e-15 4.82857 -1.00973e-16 -3.46347e-16)
(0 0 0 -52.8247 1.82839e-15 -3.04801e-15 4.82857 -8.1637e-17 -6.20811e-16)
(0 0 0 -1.34494e-08 4.33914e-16 7.45859e-15 -1.84507e-07 3.65002e-15 6.39686e-16)
(-1.15052e-14 4.49235e-31 0 -1.34492e-08 4.74329e-16 7.27281e-15 -1.84507e-07 3.60709e-15 -4.03959e-16)
(3.19892e-15 -4.43939e-32 0 -0.319874 2.14704e-16 2.93052e-15 -2.76744 1.71393e-16 -8.6059e-16)
(9.20082e-15 4.43939e-32 6.45069e-32 -0.319874 3.31901e-16 2.86967e-15 -2.76744 1.45883e-16 7.03315e-17)
(0 3.86061e-31 -1.53267e-44 -1.93716 -1.10983e-16 3.9443e-31 -2.77793 -1.21123e-16 4.02319e-29)
(0 -3.86061e-31 0 -1.93716 -7.05269e-17 1.63344e-15 -2.77793 -6.65784e-16 1.38914e-15)
(-1.99932e-15 3.05208e-31 4.43939e-31 -14.1011 7.49176e-16 3.99077e-15 -6.11742 3.42681e-16 1.4426e-16)
(0 -2.77462e-31 0 -14.1011 -4.30497e-16 2.90973e-15 -6.11742 9.21065e-17 5.32037e-16)
(0 2.8102e-31 -1.04422e-30 -52.8247 4.88651e-16 7.65877e-15 -4.82857 1.00973e-16 3.46347e-16)
(0 -5.48382e-33 -3.95013e-29 -52.8247 -6.01579e-16 6.90646e-15 -4.82857 8.1637e-17 6.20811e-16)
)
;

boundaryField
{
    walls
    {
        type            extrapolatedCalculated;
        value           nonuniform List<tensor> 8((7.90302e-16 -1.40386e-30 -2.2431e-30 70.3933 -1.1872e-13 1.66562e-14 4.82857 -4.88499e-15 3.52101e-16) (0 -7.0193e-31 -1.21259e-29 70.3933 -2.37119e-14 -6.39002e-15 -4.82857 4.88499e-15 -3.52101e-16) (0 1.40386e-30 0 70.3933 -4.01704e-14 1.19501e-14 4.82857 -3.46382e-15 -3.23938e-16) (0 0 -3.87309e-29 70.3933 -6.08244e-14 -2.13951e-14 -4.82857 1.04313e-28 3.23938e-16) (0 0 0 -70.3933 3.24206e-15 -5.44359e-15 4.82857 -1.00973e-16 -3.46347e-16) (0 2.8102e-31 -1.04422e-30 -70.3933 -2.98e-16 1.5542e-14 -4.82857 1.00973e-16 3.46347e-16) (0 0 0 -70.3933 3.16694e-15 -3.81486e-15 4.82857 -8.1637e-17 -6.20811e-16) (0 -5.48382e-33 -3.95013e-29 -70.3933 -7.86651e-16 2.19158e-14 -4.82857 8.1637e-17 6.20811e-16));
    }
    inlet
    {
        type            cyclic;
    }
    outlet
    {
        type            cyclic;
    }
    sides
    {
        type            empty;
    }
}


// ************************************************************************* //
