/*--------------------------------*- C++ -*----------------------------------*\
| =========                 |                                                 |
| \\      /  F ield         | OpenFOAM: The Open Source CFD Toolbox           |
|  \\    /   O peration     | Version:  2012                                  |
|   \\  /    A nd           | Website:  www.openfoam.com                      |
|    \\/     M anipulation  |                                                 |
\*---------------------------------------------------------------------------*/
FoamFile
{
    version     2.0;
    format      ascii;
    class       volTensorField;
    location    "5000";
    object      grad(U);
}
// * * * * * * * * * * * * * * * * * * * * * * * * * * * * * * * * * * * * * //

dimensions      [0 0 -1 0 0 0 0];


internalField   nonuniform List<tensor> 
40
(
(7.90302e-16 5.61544e-30 1.20543e-27 52.8247 3.00643e-13 0 4.82857 1.30254e-14 3.15544e-30)
(0 -2.80772e-30 -1.68463e-29 52.8247 1.68228e-13 6.87576e-14 4.82857 7.65422e-15 4.76302e-15)
(3.34027e-15 5.37152e-29 2.13091e-29 14.1011 -2.07208e-29 -2.36325e-14 6.11742 1.26218e-29 1.7573e-14)
(1.6425e-14 -2.84121e-29 -2.13091e-29 14.1011 6.73662e-14 6.87523e-15 6.11742 3.55045e-14 4.07728e-15)
(-2.10599e-15 2.99158e-30 0 1.93716 -1.99061e-14 -1.05946e-14 2.77793 3.2504e-14 1.7609e-14)
(0 -4.49235e-30 0 1.93716 -9.61253e-15 7.00739e-15 2.77793 2.67183e-14 7.06029e-15)
(3.19892e-15 5.39649e-30 8.52363e-30 0.319874 -4.31719e-29 8.45845e-15 2.76744 0 0)
(9.20082e-15 1.99592e-29 0 0.319874 -3.77171e-16 1.01795e-14 2.76744 2.42874e-15 3.9443e-30)
(1.17083e-15 1.4013e-45 -2.8026e-45 1.30451e-15 4.33654e-44 3.9443e-31 1.77628e-14 9.68546e-30 -1.50222e-29)
(0 -3.98924e-31 -2.87153e-29 -5.25907e-29 -1.84635e-17 1.74361e-16 -7.75181e-19 -2.53298e-16 2.39202e-15)
(0 0 1.05694e-29 52.8247 4.80333e-14 -7.7043e-29 -4.82857 -1.30254e-14 -1.90401e-14)
(-7.90302e-16 0 -4.21158e-30 52.8247 4.09057e-14 -1.72171e-15 -4.82857 -7.65422e-15 -4.76302e-15)
(8.88874e-16 -1.77576e-30 3.55151e-30 14.1011 2.29321e-14 1.97492e-14 -6.11742 -5.83596e-14 -1.80805e-14)
(1.6234e-14 0 -2.66364e-30 14.1011 2.04486e-14 -5.97308e-15 -6.11742 -3.55045e-14 -4.07728e-15)
(5.05794e-15 8.9847e-30 5.61544e-31 1.93716 8.33945e-15 3.90474e-15 -2.77793 -2.73088e-14 -1.7609e-14)
(0 -4.49235e-30 -2.24617e-30 1.93716 8.62544e-15 -6.1763e-15 -2.77793 -2.40964e-14 -7.06029e-15)
(-2.3002e-15 -3.38316e-30 0 0.319874 -3.34548e-16 -1.42097e-14 -2.76744 -1.45075e-14 0)
(0 0 0 0.319874 8.73369e-17 -1.2354e-14 -2.76744 -1.16574e-14 -3.9443e-30)
(1.97215e-31 -1.1863e-31 -2.87851e-29 5.19265e-30 -3.44579e-17 -1.36189e-16 1.29816e-30 4.72722e-16 -3.75922e-15)
(8.88178e-15 -5.3848e-31 1.35288e-30 6.52256e-16 -2.04105e-17 3.9443e-31 -1.06581e-14 2.80009e-16 -2.69413e-15)
(2.87862e-15 7.66606e-31 -1.46684e-31 -1.34493e-08 1.77779e-17 -4.03486e-15 1.84509e-07 2.77465e-16 -4.09525e-15)
(1.15052e-14 3.24332e-30 0 -1.34493e-08 -1.03665e-19 -4.64506e-15 1.84509e-07 1.89208e-16 -2.62419e-15)
(2.3002e-15 0 -6.31728e-32 -0.319874 -3.44945e-16 8.91799e-16 2.76744 1.07313e-15 2.73331e-15)
(9.20082e-15 0 -1.49238e-43 -0.319874 -2.40405e-16 1.68202e-29 2.76744 1.01851e-15 -3.9443e-31)
(-6.74095e-15 0 0 -1.93716 -4.24902e-16 0 2.77793 6.67222e-17 -1.16447e-15)
(2.52897e-15 -3.56431e-32 6.33035e-31 -1.93716 -7.60226e-16 3.15717e-15 2.77793 6.5235e-16 -1.37416e-15)
(-2.43612e-15 -2.2197e-31 2.2197e-31 -14.1011 -6.77132e-16 -3.83545e-16 6.11742 -2.40909e-16 -3.37018e-16)
(-1.8083e-15 -1.12367e-43 2.09757e-43 -14.1011 -1.2649e-29 2.36171e-29 6.11742 0 -9.86076e-32)
(0 -2.33063e-32 -3.30619e-44 -52.8247 -9.75393e-16 -1.86162e-30 4.82857 3.1477e-17 -1.2326e-32)
(-7.90302e-16 1.50805e-32 0 -52.8247 1.49677e-15 -7.45813e-16 4.82857 -9.46739e-17 2.47683e-16)
(0 0 0 -1.34495e-08 -3.10207e-17 5.6862e-15 -1.84509e-07 -6.44195e-16 4.09525e-15)
(-1.15052e-14 0 0 -1.34493e-08 -2.40356e-31 4.70973e-15 -1.84509e-07 0 2.62419e-15)
(3.19892e-15 0 0 -0.319874 -5.3126e-16 0 -2.76744 -1.07313e-15 -2.76252e-31)
(9.20082e-15 -5.97045e-32 -2.84121e-30 -0.319874 -9.72014e-17 -9.42187e-16 -2.76744 -1.01851e-15 1.89379e-15)
(0 5.61544e-31 3.36312e-44 -1.93716 -4.57942e-17 3.9443e-31 -2.77793 -6.67222e-17 -4.81205e-29)
(0 -4.72162e-31 -1.12309e-30 -1.93716 -3.07378e-16 -1.33559e-15 -2.77793 -4.21686e-16 1.37416e-15)
(-1.99932e-15 -1.36189e-44 6.19087e-31 -14.1011 0 2.80862e-15 -6.11742 2.45775e-29 3.37018e-16)
(0 -1.10985e-31 -6.15619e-31 -14.1011 -1.37661e-16 9.91945e-16 -6.11742 4.74717e-16 -8.46359e-16)
(0 0 8.77412e-32 -52.8247 1.47055e-15 1.29641e-15 -4.82857 -3.1477e-17 -9.36978e-17)
(0 0 2.13934e-30 -52.8247 1.21455e-15 -3.36108e-15 -4.82857 9.46739e-17 -2.47683e-16)
)
;

boundaryField
{
    walls
    {
        type            extrapolatedCalculated;
        value           nonuniform List<tensor> 8((7.90302e-16 5.61544e-30 1.20543e-27 70.3933 3.16258e-13 8.23446e-13 4.82857 1.30254e-14 3.15544e-30) (0 0 1.05694e-29 70.3933 6.35251e-14 -2.68293e-13 -4.82857 -1.30254e-14 -1.90401e-14) (0 -2.80772e-30 -1.68463e-29 70.3933 1.69229e-13 1.38875e-13 4.82857 7.65422e-15 4.76302e-15) (-7.90302e-16 0 -4.21158e-30 70.3933 5.39452e-14 -9.48605e-29 -4.82857 -7.65422e-15 -4.76302e-15) (0 -2.33063e-32 -3.30619e-44 -70.3933 -1.24319e-15 -2.9081e-15 4.82857 3.1477e-17 -1.2326e-32) (0 0 8.77412e-32 -70.3933 3.25419e-16 1.76153e-16 -4.82857 -3.1477e-17 -9.36978e-17) (-7.90302e-16 1.50805e-32 0 -70.3933 1.03868e-15 -7.45813e-16 4.82857 -9.46739e-17 2.47683e-16) (0 0 2.13934e-30 -70.3933 1.72173e-15 -6.47589e-15 -4.82857 9.46739e-17 -2.47683e-16));
    }
    inlet
    {
        type            cyclic;
    }
    outlet
    {
        type            cyclic;
    }
    sides
    {
        type            empty;
    }
}


// ************************************************************************* //
