/*--------------------------------*- C++ -*----------------------------------*\
| =========                 |                                                 |
| \\      /  F ield         | OpenFOAM: The Open Source CFD Toolbox           |
|  \\    /   O peration     | Version:  2106                                  |
|   \\  /    A nd           | Website:  www.openfoam.com                      |
|    \\/     M anipulation  |                                                 |
\*---------------------------------------------------------------------------*/
FoamFile
{
    version     2.0;
    format      ascii;
    arch        "LSB;label=32;scalar=64";
    class       volScalarField;
    location    "40000";
    object      k;
}
// * * * * * * * * * * * * * * * * * * * * * * * * * * * * * * * * * * * * * //

dimensions      [0 2 -2 0 0 0 0];

internalField   nonuniform List<scalar> 
2560
(
1.69625e-11
1.69625e-11
5.09034e-10
5.09034e-10
3.65261e-09
3.65261e-09
1.34622e-08
1.34622e-08
3.52571e-08
3.52571e-08
7.54626e-08
7.54626e-08
1.41566e-07
1.41566e-07
2.42131e-07
2.42131e-07
3.86828e-07
3.86828e-07
5.86491e-07
5.86491e-07
8.53174e-07
8.53174e-07
1.20022e-06
1.20022e-06
1.64233e-06
1.64233e-06
2.19567e-06
2.19567e-06
2.87791e-06
2.87791e-06
3.70838e-06
3.70838e-06
4.70809e-06
4.70809e-06
5.89991e-06
5.89991e-06
7.30864e-06
7.30864e-06
8.96112e-06
8.96112e-06
1.08864e-05
1.08864e-05
1.31157e-05
1.31157e-05
1.56828e-05
1.56828e-05
1.86239e-05
1.86239e-05
2.19781e-05
2.19781e-05
2.57871e-05
2.57871e-05
3.00956e-05
3.00956e-05
3.49515e-05
3.49515e-05
4.04059e-05
4.04059e-05
4.65131e-05
4.65131e-05
5.33313e-05
5.33313e-05
6.09221e-05
6.09221e-05
6.93508e-05
6.93508e-05
7.86867e-05
7.86867e-05
8.90031e-05
8.90031e-05
0.000100377
0.000100377
0.000112891
0.000112891
0.000126629
0.000126629
0.000141681
0.000141681
0.000158142
0.000158142
0.000176108
0.000176108
0.000195682
0.000195682
0.000216969
0.000216969
0.000240077
0.000240077
0.000265118
0.000265118
0.000292205
0.000292205
0.000321455
0.000321455
0.000352985
0.000352985
0.000386912
0.000386912
0.000423355
0.000423355
0.000462427
0.000462427
0.000504244
0.000504244
0.000548913
0.000548913
0.00059654
0.00059654
0.000647221
0.000647221
0.000701044
0.000701044
0.00075809
0.00075809
0.000818425
0.000818425
0.000882103
0.000882103
0.000949163
0.000949163
0.00101963
0.00101963
0.00109351
0.00109351
0.00117078
0.00117078
0.00125142
0.00125142
0.00133538
0.00133538
0.00142258
0.00142258
0.00151294
0.00151294
0.00160633
0.00160633
0.00170264
0.00170264
0.00180172
0.00180172
0.00190341
0.00190341
0.00200753
0.00200753
0.0021139
0.0021139
0.00222232
0.00222232
0.00233258
0.00233258
0.00244448
0.00244448
0.0025578
0.0025578
0.00267231
0.00267231
0.00278781
0.00278781
0.00290408
0.00290408
0.00302089
0.00302089
0.00313804
0.00313804
0.00325532
0.00325532
0.00337253
0.00337253
0.00348947
0.00348947
0.00360595
0.00360595
0.00372178
0.00372178
0.00383681
0.00383681
0.00395084
0.00395084
0.00406374
0.00406374
0.00417533
0.00417533
0.00428548
0.00428548
0.00439405
0.00439405
0.00450092
0.00450092
0.00460595
0.00460595
0.00470904
0.00470904
0.00481008
0.00481008
0.00490897
0.00490897
0.00500562
0.00500562
0.00509994
0.00509994
0.00519185
0.00519185
0.00528129
0.00528129
0.00536819
0.00536819
0.00545249
0.00545249
0.00553415
0.00553415
0.00561311
0.00561311
0.00568935
0.00568935
0.00576282
0.00576282
0.0058335
0.0058335
0.00590137
0.00590137
0.00596642
0.00596642
0.00602864
0.00602864
0.00608803
0.00608803
0.00614459
0.00614459
0.00619833
0.00619833
0.00624926
0.00624926
0.00629739
0.00629739
0.00634276
0.00634276
0.00638539
0.00638539
0.00642531
0.00642531
0.00646256
0.00646256
0.00649718
0.00649718
0.00652921
0.00652921
0.0065587
0.0065587
0.00658571
0.00658571
0.00661027
0.00661027
0.00663246
0.00663246
0.00665234
0.00665234
0.00666995
0.00666995
0.00668538
0.00668538
0.00669868
0.00669868
0.00670991
0.00670991
0.00671916
0.00671916
0.00672649
0.00672649
0.00673197
0.00673197
0.00673567
0.00673567
0.00673767
0.00673767
0.00673803
0.00673803
0.00673682
0.00673682
0.00673412
0.00673412
0.00673
0.00673
0.00672452
0.00672452
0.00671776
0.00671776
0.00670979
0.00670979
0.00670066
0.00670066
0.00669044
0.00669044
0.0066792
0.0066792
0.006667
0.006667
0.0066539
0.0066539
0.00663995
0.00663995
0.00662521
0.00662521
0.00660974
0.00660974
0.00659358
0.00659358
0.00657679
0.00657679
0.00655941
0.00655941
0.00654149
0.00654149
0.00652308
0.00652308
0.0065042
0.0065042
0.00648491
0.00648491
0.00646524
0.00646524
0.00644522
0.00644522
0.00642489
0.00642489
0.00640428
0.00640428
0.00638341
0.00638341
0.00636231
0.00636231
0.00634101
0.00634101
0.00631953
0.00631953
0.00629789
0.00629789
0.00627611
0.00627611
0.00625422
0.00625422
0.00623222
0.00623222
0.00621013
0.00621013
0.00618797
0.00618797
0.00616575
0.00616575
0.00614347
0.00614347
0.00612115
0.00612115
0.00609879
0.00609879
0.00607639
0.00607639
0.00605397
0.00605397
0.00603153
0.00603153
0.00600906
0.00600906
0.00598657
0.00598657
0.00596407
0.00596407
0.00594154
0.00594154
0.005919
0.005919
0.00589645
0.00589645
0.00587388
0.00587388
0.00585129
0.00585129
0.00582869
0.00582869
0.00580608
0.00580608
0.00578345
0.00578345
0.0057608
0.0057608
0.00573813
0.00573813
0.00571543
0.00571543
0.00569271
0.00569271
0.00566995
0.00566995
0.00564716
0.00564716
0.00562431
0.00562431
0.00560142
0.00560142
0.00557847
0.00557847
0.00555545
0.00555545
0.00553237
0.00553237
0.0055092
0.0055092
0.00548595
0.00548595
0.00546261
0.00546261
0.00543918
0.00543918
0.00541565
0.00541565
0.00539202
0.00539202
0.00536829
0.00536829
0.00534445
0.00534445
0.0053205
0.0053205
0.00529643
0.00529643
0.00527224
0.00527224
0.00524793
0.00524793
0.00522348
0.00522348
0.00519891
0.00519891
0.00517419
0.00517419
0.00514933
0.00514933
0.00512432
0.00512432
0.00509915
0.00509915
0.00507382
0.00507382
0.00504831
0.00504831
0.00502262
0.00502262
0.00499675
0.00499675
0.00497066
0.00497066
0.00494436
0.00494436
0.00491783
0.00491783
0.00489105
0.00489105
0.00486402
0.00486402
0.00483674
0.00483674
0.00480919
0.00480919
0.00478139
0.00478139
0.00475334
0.00475334
0.00472504
0.00472504
0.00469648
0.00469648
0.00466768
0.00466768
0.00463862
0.00463862
0.00460929
0.00460929
0.0045797
0.0045797
0.00454982
0.00454982
0.00451965
0.00451965
0.00448916
0.00448916
0.00445836
0.00445836
0.00442724
0.00442724
0.00439578
0.00439578
0.004364
0.004364
0.00433188
0.00433188
0.00429944
0.00429944
0.00426668
0.00426668
0.00423359
0.00423359
0.00420018
0.00420018
0.00416643
0.00416643
0.00413235
0.00413235
0.00409792
0.00409792
0.00406312
0.00406312
0.00402793
0.00402793
0.00399234
0.00399234
0.00395633
0.00395633
0.00391993
0.00391993
0.00388312
0.00388312
0.00384592
0.00384592
0.00380833
0.00380833
0.00377035
0.00377035
0.00373195
0.00373195
0.00369312
0.00369312
0.00365382
0.00365382
0.00361404
0.00361404
0.00357375
0.00357375
0.00353294
0.00353294
0.0034916
0.0034916
0.00344971
0.00344971
0.00340729
0.00340729
0.00336431
0.00336431
0.0033208
0.0033208
0.00327675
0.00327675
0.00323217
0.00323217
0.00318707
0.00318707
0.00314146
0.00314146
0.00309536
0.00309536
0.0030488
0.0030488
0.0030018
0.0030018
0.00295439
0.00295439
0.00290659
0.00290659
0.00285846
0.00285846
0.00281002
0.00281002
0.00276132
0.00276132
0.00271239
0.00271239
0.00266326
0.00266326
0.00261398
0.00261398
0.00256459
0.00256459
0.0025151
0.0025151
0.00246554
0.00246554
0.00241593
0.00241593
0.00236629
0.00236629
0.00231666
0.00231666
0.0022671
0.0022671
0.00221767
0.00221767
0.00216847
0.00216847
0.00211958
0.00211958
0.00207112
0.00207112
0.00202321
0.00202321
0.00197601
0.00197601
0.00192968
0.00192968
0.0018844
0.0018844
0.00184034
0.00184034
0.00179771
0.00179771
0.0017567
0.0017567
0.00171751
0.00171751
0.00168037
0.00168037
0.00164548
0.00164548
0.00161305
0.00161305
0.00158328
0.00158328
0.00155637
0.00155637
0.00153242
0.00153242
0.0015116
0.0015116
0.00149402
0.00149402
0.00147978
0.00147978
0.00146896
0.00146896
0.00146164
0.00146164
0.00145792
0.00145792
1.69625e-11
1.69625e-11
5.09034e-10
5.09034e-10
3.65261e-09
3.65261e-09
1.34622e-08
1.34622e-08
3.52571e-08
3.52571e-08
7.54625e-08
7.54625e-08
1.41566e-07
1.41566e-07
2.42131e-07
2.42131e-07
3.86828e-07
3.86828e-07
5.86491e-07
5.86491e-07
8.53174e-07
8.53174e-07
1.20022e-06
1.20022e-06
1.64233e-06
1.64233e-06
2.19567e-06
2.19567e-06
2.87791e-06
2.87791e-06
3.70837e-06
3.70837e-06
4.70809e-06
4.70809e-06
5.89991e-06
5.89991e-06
7.30864e-06
7.30864e-06
8.96112e-06
8.96112e-06
1.08864e-05
1.08864e-05
1.31157e-05
1.31157e-05
1.56828e-05
1.56828e-05
1.86239e-05
1.86239e-05
2.19781e-05
2.19781e-05
2.57871e-05
2.57871e-05
3.00956e-05
3.00956e-05
3.49515e-05
3.49515e-05
4.04058e-05
4.04058e-05
4.65131e-05
4.65131e-05
5.33313e-05
5.33313e-05
6.09221e-05
6.09221e-05
6.93508e-05
6.93508e-05
7.86867e-05
7.86867e-05
8.9003e-05
8.9003e-05
0.000100377
0.000100377
0.000112891
0.000112891
0.000126629
0.000126629
0.000141681
0.000141681
0.000158142
0.000158142
0.000176108
0.000176108
0.000195682
0.000195682
0.000216969
0.000216969
0.000240077
0.000240077
0.000265118
0.000265118
0.000292205
0.000292205
0.000321455
0.000321455
0.000352985
0.000352985
0.000386912
0.000386912
0.000423354
0.000423354
0.000462427
0.000462427
0.000504244
0.000504244
0.000548913
0.000548913
0.00059654
0.00059654
0.000647221
0.000647221
0.000701044
0.000701044
0.00075809
0.00075809
0.000818425
0.000818425
0.000882102
0.000882102
0.000949163
0.000949163
0.00101963
0.00101963
0.00109351
0.00109351
0.00117078
0.00117078
0.00125142
0.00125142
0.00133538
0.00133538
0.00142258
0.00142258
0.00151294
0.00151294
0.00160633
0.00160633
0.00170264
0.00170264
0.00180172
0.00180172
0.00190341
0.00190341
0.00200753
0.00200753
0.0021139
0.0021139
0.00222232
0.00222232
0.00233258
0.00233258
0.00244448
0.00244448
0.0025578
0.0025578
0.00267231
0.00267231
0.00278781
0.00278781
0.00290408
0.00290408
0.00302089
0.00302089
0.00313804
0.00313804
0.00325532
0.00325532
0.00337253
0.00337253
0.00348947
0.00348947
0.00360595
0.00360595
0.00372178
0.00372178
0.00383681
0.00383681
0.00395084
0.00395084
0.00406374
0.00406374
0.00417533
0.00417533
0.00428548
0.00428548
0.00439405
0.00439405
0.00450092
0.00450092
0.00460595
0.00460595
0.00470904
0.00470904
0.00481008
0.00481008
0.00490897
0.00490897
0.00500562
0.00500562
0.00509994
0.00509994
0.00519185
0.00519185
0.00528129
0.00528129
0.00536819
0.00536819
0.00545249
0.00545249
0.00553415
0.00553415
0.00561311
0.00561311
0.00568935
0.00568935
0.00576282
0.00576282
0.0058335
0.0058335
0.00590137
0.00590137
0.00596642
0.00596642
0.00602864
0.00602864
0.00608803
0.00608803
0.00614459
0.00614459
0.00619833
0.00619833
0.00624926
0.00624926
0.00629739
0.00629739
0.00634276
0.00634276
0.00638539
0.00638539
0.00642531
0.00642531
0.00646256
0.00646256
0.00649718
0.00649718
0.00652921
0.00652921
0.0065587
0.0065587
0.00658571
0.00658571
0.00661027
0.00661027
0.00663246
0.00663246
0.00665234
0.00665234
0.00666995
0.00666995
0.00668538
0.00668538
0.00669868
0.00669868
0.00670991
0.00670991
0.00671916
0.00671916
0.00672649
0.00672649
0.00673197
0.00673197
0.00673567
0.00673567
0.00673767
0.00673767
0.00673803
0.00673803
0.00673682
0.00673682
0.00673412
0.00673412
0.00673
0.00673
0.00672452
0.00672452
0.00671776
0.00671776
0.00670979
0.00670979
0.00670066
0.00670066
0.00669044
0.00669044
0.0066792
0.0066792
0.006667
0.006667
0.0066539
0.0066539
0.00663995
0.00663995
0.00662521
0.00662521
0.00660974
0.00660974
0.00659358
0.00659358
0.00657679
0.00657679
0.00655941
0.00655941
0.00654149
0.00654149
0.00652308
0.00652308
0.0065042
0.0065042
0.00648491
0.00648491
0.00646524
0.00646524
0.00644522
0.00644522
0.00642489
0.00642489
0.00640428
0.00640428
0.00638341
0.00638341
0.00636231
0.00636231
0.00634101
0.00634101
0.00631953
0.00631953
0.00629789
0.00629789
0.00627611
0.00627611
0.00625422
0.00625422
0.00623222
0.00623222
0.00621013
0.00621013
0.00618797
0.00618797
0.00616575
0.00616575
0.00614347
0.00614347
0.00612115
0.00612115
0.00609879
0.00609879
0.00607639
0.00607639
0.00605397
0.00605397
0.00603153
0.00603153
0.00600906
0.00600906
0.00598657
0.00598657
0.00596407
0.00596407
0.00594154
0.00594154
0.005919
0.005919
0.00589645
0.00589645
0.00587388
0.00587388
0.00585129
0.00585129
0.00582869
0.00582869
0.00580608
0.00580608
0.00578345
0.00578345
0.0057608
0.0057608
0.00573813
0.00573813
0.00571543
0.00571543
0.00569271
0.00569271
0.00566995
0.00566995
0.00564716
0.00564716
0.00562431
0.00562431
0.00560142
0.00560142
0.00557847
0.00557847
0.00555545
0.00555545
0.00553237
0.00553237
0.0055092
0.0055092
0.00548595
0.00548595
0.00546261
0.00546261
0.00543918
0.00543918
0.00541565
0.00541565
0.00539202
0.00539202
0.00536829
0.00536829
0.00534445
0.00534445
0.00532049
0.00532049
0.00529643
0.00529643
0.00527224
0.00527224
0.00524793
0.00524793
0.00522348
0.00522348
0.00519891
0.00519891
0.00517419
0.00517419
0.00514933
0.00514933
0.00512432
0.00512432
0.00509915
0.00509915
0.00507382
0.00507382
0.00504831
0.00504831
0.00502262
0.00502262
0.00499674
0.00499674
0.00497066
0.00497066
0.00494436
0.00494436
0.00491783
0.00491783
0.00489105
0.00489105
0.00486402
0.00486402
0.00483674
0.00483674
0.00480919
0.00480919
0.00478139
0.00478139
0.00475334
0.00475334
0.00472504
0.00472504
0.00469648
0.00469648
0.00466768
0.00466768
0.00463862
0.00463862
0.00460929
0.00460929
0.0045797
0.0045797
0.00454982
0.00454982
0.00451965
0.00451965
0.00448916
0.00448916
0.00445836
0.00445836
0.00442724
0.00442724
0.00439578
0.00439578
0.004364
0.004364
0.00433188
0.00433188
0.00429944
0.00429944
0.00426668
0.00426668
0.00423359
0.00423359
0.00420017
0.00420017
0.00416643
0.00416643
0.00413235
0.00413235
0.00409792
0.00409792
0.00406312
0.00406312
0.00402793
0.00402793
0.00399233
0.00399233
0.00395633
0.00395633
0.00391993
0.00391993
0.00388312
0.00388312
0.00384592
0.00384592
0.00380833
0.00380833
0.00377035
0.00377035
0.00373195
0.00373195
0.00369311
0.00369311
0.00365382
0.00365382
0.00361404
0.00361404
0.00357375
0.00357375
0.00353294
0.00353294
0.0034916
0.0034916
0.00344971
0.00344971
0.00340729
0.00340729
0.00336431
0.00336431
0.0033208
0.0033208
0.00327675
0.00327675
0.00323217
0.00323217
0.00318707
0.00318707
0.00314146
0.00314146
0.00309536
0.00309536
0.0030488
0.0030488
0.0030018
0.0030018
0.00295439
0.00295439
0.00290659
0.00290659
0.00285846
0.00285846
0.00281002
0.00281002
0.00276132
0.00276132
0.00271239
0.00271239
0.00266326
0.00266326
0.00261398
0.00261398
0.00256459
0.00256459
0.0025151
0.0025151
0.00246554
0.00246554
0.00241593
0.00241593
0.00236629
0.00236629
0.00231666
0.00231666
0.0022671
0.0022671
0.00221767
0.00221767
0.00216847
0.00216847
0.00211958
0.00211958
0.00207112
0.00207112
0.00202321
0.00202321
0.00197601
0.00197601
0.00192968
0.00192968
0.0018844
0.0018844
0.00184034
0.00184034
0.00179771
0.00179771
0.0017567
0.0017567
0.00171751
0.00171751
0.00168037
0.00168037
0.00164548
0.00164548
0.00161305
0.00161305
0.00158328
0.00158328
0.00155637
0.00155637
0.00153242
0.00153242
0.0015116
0.0015116
0.00149402
0.00149402
0.00147978
0.00147978
0.00146896
0.00146896
0.00146164
0.00146164
0.00145792
0.00145792
0.00145792
0.00145792
0.00146164
0.00146164
0.00146896
0.00146896
0.00147978
0.00147978
0.00149403
0.00149403
0.0015116
0.0015116
0.00153243
0.00153243
0.00155638
0.00155638
0.00158328
0.00158328
0.00161306
0.00161306
0.00164548
0.00164548
0.00168037
0.00168037
0.00171751
0.00171751
0.0017567
0.0017567
0.00179771
0.00179771
0.00184034
0.00184034
0.0018844
0.0018844
0.00192969
0.00192969
0.00197602
0.00197602
0.00202322
0.00202322
0.00207112
0.00207112
0.00211958
0.00211958
0.00216847
0.00216847
0.00221768
0.00221768
0.0022671
0.0022671
0.00231666
0.00231666
0.00236629
0.00236629
0.00241593
0.00241593
0.00246554
0.00246554
0.0025151
0.0025151
0.00256459
0.00256459
0.00261398
0.00261398
0.00266326
0.00266326
0.00271239
0.00271239
0.00276132
0.00276132
0.00281002
0.00281002
0.00285846
0.00285846
0.00290659
0.00290659
0.00295439
0.00295439
0.0030018
0.0030018
0.0030488
0.0030488
0.00309536
0.00309536
0.00314146
0.00314146
0.00318707
0.00318707
0.00323217
0.00323217
0.00327675
0.00327675
0.0033208
0.0033208
0.00336431
0.00336431
0.00340729
0.00340729
0.00344971
0.00344971
0.0034916
0.0034916
0.00353294
0.00353294
0.00357375
0.00357375
0.00361404
0.00361404
0.00365382
0.00365382
0.00369312
0.00369312
0.00373195
0.00373195
0.00377035
0.00377035
0.00380833
0.00380833
0.00384592
0.00384592
0.00388312
0.00388312
0.00391992
0.00391992
0.00395633
0.00395633
0.00399233
0.00399233
0.00402793
0.00402793
0.00406312
0.00406312
0.00409792
0.00409792
0.00413235
0.00413235
0.00416643
0.00416643
0.00420017
0.00420017
0.00423359
0.00423359
0.00426668
0.00426668
0.00429944
0.00429944
0.00433188
0.00433188
0.004364
0.004364
0.00439578
0.00439578
0.00442724
0.00442724
0.00445836
0.00445836
0.00448916
0.00448916
0.00451965
0.00451965
0.00454982
0.00454982
0.0045797
0.0045797
0.00460929
0.00460929
0.00463862
0.00463862
0.00466768
0.00466768
0.00469648
0.00469648
0.00472504
0.00472504
0.00475334
0.00475334
0.00478139
0.00478139
0.00480919
0.00480919
0.00483673
0.00483673
0.00486402
0.00486402
0.00489105
0.00489105
0.00491782
0.00491782
0.00494436
0.00494436
0.00497066
0.00497066
0.00499674
0.00499674
0.00502262
0.00502262
0.00504831
0.00504831
0.00507382
0.00507382
0.00509915
0.00509915
0.00512432
0.00512432
0.00514933
0.00514933
0.00517419
0.00517419
0.00519891
0.00519891
0.00522348
0.00522348
0.00524793
0.00524793
0.00527224
0.00527224
0.00529643
0.00529643
0.00532049
0.00532049
0.00534444
0.00534444
0.00536829
0.00536829
0.00539202
0.00539202
0.00541565
0.00541565
0.00543918
0.00543918
0.00546261
0.00546261
0.00548595
0.00548595
0.0055092
0.0055092
0.00553237
0.00553237
0.00555545
0.00555545
0.00557847
0.00557847
0.00560142
0.00560142
0.00562431
0.00562431
0.00564715
0.00564715
0.00566995
0.00566995
0.00569271
0.00569271
0.00571543
0.00571543
0.00573813
0.00573813
0.0057608
0.0057608
0.00578345
0.00578345
0.00580608
0.00580608
0.00582869
0.00582869
0.00585129
0.00585129
0.00587388
0.00587388
0.00589645
0.00589645
0.005919
0.005919
0.00594154
0.00594154
0.00596406
0.00596406
0.00598657
0.00598657
0.00600905
0.00600905
0.00603152
0.00603152
0.00605397
0.00605397
0.00607639
0.00607639
0.00609878
0.00609878
0.00612114
0.00612114
0.00614346
0.00614346
0.00616574
0.00616574
0.00618796
0.00618796
0.00621013
0.00621013
0.00623221
0.00623221
0.00625421
0.00625421
0.00627611
0.00627611
0.00629788
0.00629788
0.00631952
0.00631952
0.006341
0.006341
0.00636231
0.00636231
0.0063834
0.0063834
0.00640428
0.00640428
0.00642489
0.00642489
0.00644522
0.00644522
0.00646524
0.00646524
0.00648491
0.00648491
0.0065042
0.0065042
0.00652307
0.00652307
0.00654149
0.00654149
0.0065594
0.0065594
0.00657678
0.00657678
0.00659357
0.00659357
0.00660973
0.00660973
0.0066252
0.0066252
0.00663994
0.00663994
0.00665389
0.00665389
0.006667
0.006667
0.0066792
0.0066792
0.00669044
0.00669044
0.00670065
0.00670065
0.00670978
0.00670978
0.00671776
0.00671776
0.00672452
0.00672452
0.00672999
0.00672999
0.00673411
0.00673411
0.00673681
0.00673681
0.00673801
0.00673801
0.00673765
0.00673765
0.00673566
0.00673566
0.00673196
0.00673196
0.00672648
0.00672648
0.00671915
0.00671915
0.0067099
0.0067099
0.00669866
0.00669866
0.00668536
0.00668536
0.00666994
0.00666994
0.00665232
0.00665232
0.00663245
0.00663245
0.00661026
0.00661026
0.00658569
0.00658569
0.00655869
0.00655869
0.00652919
0.00652919
0.00649716
0.00649716
0.00646254
0.00646254
0.0064253
0.0064253
0.00638537
0.00638537
0.00634275
0.00634275
0.00629738
0.00629738
0.00624924
0.00624924
0.00619831
0.00619831
0.00614458
0.00614458
0.00608802
0.00608802
0.00602863
0.00602863
0.00596641
0.00596641
0.00590136
0.00590136
0.00583348
0.00583348
0.0057628
0.0057628
0.00568933
0.00568933
0.0056131
0.0056131
0.00553413
0.00553413
0.00545248
0.00545248
0.00536817
0.00536817
0.00528127
0.00528127
0.00519183
0.00519183
0.00509992
0.00509992
0.0050056
0.0050056
0.00490895
0.00490895
0.00481006
0.00481006
0.00470902
0.00470902
0.00460594
0.00460594
0.0045009
0.0045009
0.00439404
0.00439404
0.00428546
0.00428546
0.00417531
0.00417531
0.00406372
0.00406372
0.00395082
0.00395082
0.00383679
0.00383679
0.00372176
0.00372176
0.00360593
0.00360593
0.00348945
0.00348945
0.00337251
0.00337251
0.0032553
0.0032553
0.00313802
0.00313802
0.00302087
0.00302087
0.00290406
0.00290406
0.00278779
0.00278779
0.0026723
0.0026723
0.00255778
0.00255778
0.00244446
0.00244446
0.00233257
0.00233257
0.00222231
0.00222231
0.00211389
0.00211389
0.00200752
0.00200752
0.0019034
0.0019034
0.00180172
0.00180172
0.00170264
0.00170264
0.00160633
0.00160633
0.00151293
0.00151293
0.00142258
0.00142258
0.00133538
0.00133538
0.00125142
0.00125142
0.00117078
0.00117078
0.0010935
0.0010935
0.00101963
0.00101963
0.000949163
0.000949163
0.000882103
0.000882103
0.000818426
0.000818426
0.000758091
0.000758091
0.000701046
0.000701046
0.000647222
0.000647222
0.000596542
0.000596542
0.000548915
0.000548915
0.000504245
0.000504245
0.000462429
0.000462429
0.000423356
0.000423356
0.000386914
0.000386914
0.000352986
0.000352986
0.000321456
0.000321456
0.000292206
0.000292206
0.000265119
0.000265119
0.000240078
0.000240078
0.00021697
0.00021697
0.000195683
0.000195683
0.000176109
0.000176109
0.000158142
0.000158142
0.000141682
0.000141682
0.000126629
0.000126629
0.000112891
0.000112891
0.000100378
0.000100378
8.90034e-05
8.90034e-05
7.8687e-05
7.8687e-05
6.9351e-05
6.9351e-05
6.09223e-05
6.09223e-05
5.33316e-05
5.33316e-05
4.65134e-05
4.65134e-05
4.0406e-05
4.0406e-05
3.49517e-05
3.49517e-05
3.00957e-05
3.00957e-05
2.57872e-05
2.57872e-05
2.19782e-05
2.19782e-05
1.8624e-05
1.8624e-05
1.56828e-05
1.56828e-05
1.31157e-05
1.31157e-05
1.08864e-05
1.08864e-05
8.96116e-06
8.96116e-06
7.30867e-06
7.30867e-06
5.89993e-06
5.89993e-06
4.70811e-06
4.70811e-06
3.70839e-06
3.70839e-06
2.87793e-06
2.87793e-06
2.19568e-06
2.19568e-06
1.64234e-06
1.64234e-06
1.20022e-06
1.20022e-06
8.53177e-07
8.53177e-07
5.86493e-07
5.86493e-07
3.8683e-07
3.8683e-07
2.42132e-07
2.42132e-07
1.41567e-07
1.41567e-07
7.54628e-08
7.54628e-08
3.52573e-08
3.52573e-08
1.34622e-08
1.34622e-08
3.65262e-09
3.65262e-09
5.09034e-10
5.09034e-10
1.69624e-11
1.69624e-11
0.00145792
0.00145792
0.00146164
0.00146164
0.00146896
0.00146896
0.00147978
0.00147978
0.00149403
0.00149403
0.00151161
0.00151161
0.00153243
0.00153243
0.00155638
0.00155638
0.00158328
0.00158328
0.00161306
0.00161306
0.00164548
0.00164548
0.00168037
0.00168037
0.00171751
0.00171751
0.0017567
0.0017567
0.00179771
0.00179771
0.00184034
0.00184034
0.0018844
0.0018844
0.00192969
0.00192969
0.00197602
0.00197602
0.00202322
0.00202322
0.00207112
0.00207112
0.00211958
0.00211958
0.00216847
0.00216847
0.00221768
0.00221768
0.0022671
0.0022671
0.00231666
0.00231666
0.00236629
0.00236629
0.00241593
0.00241593
0.00246554
0.00246554
0.0025151
0.0025151
0.00256459
0.00256459
0.00261398
0.00261398
0.00266326
0.00266326
0.00271239
0.00271239
0.00276132
0.00276132
0.00281002
0.00281002
0.00285846
0.00285846
0.00290659
0.00290659
0.00295439
0.00295439
0.0030018
0.0030018
0.0030488
0.0030488
0.00309536
0.00309536
0.00314146
0.00314146
0.00318707
0.00318707
0.00323217
0.00323217
0.00327675
0.00327675
0.0033208
0.0033208
0.00336431
0.00336431
0.00340729
0.00340729
0.00344971
0.00344971
0.0034916
0.0034916
0.00353294
0.00353294
0.00357375
0.00357375
0.00361404
0.00361404
0.00365382
0.00365382
0.00369311
0.00369311
0.00373195
0.00373195
0.00377035
0.00377035
0.00380833
0.00380833
0.00384592
0.00384592
0.00388312
0.00388312
0.00391992
0.00391992
0.00395633
0.00395633
0.00399233
0.00399233
0.00402793
0.00402793
0.00406312
0.00406312
0.00409792
0.00409792
0.00413235
0.00413235
0.00416643
0.00416643
0.00420017
0.00420017
0.00423359
0.00423359
0.00426668
0.00426668
0.00429944
0.00429944
0.00433188
0.00433188
0.004364
0.004364
0.00439578
0.00439578
0.00442724
0.00442724
0.00445836
0.00445836
0.00448916
0.00448916
0.00451965
0.00451965
0.00454982
0.00454982
0.0045797
0.0045797
0.00460929
0.00460929
0.00463862
0.00463862
0.00466768
0.00466768
0.00469648
0.00469648
0.00472504
0.00472504
0.00475334
0.00475334
0.00478139
0.00478139
0.00480919
0.00480919
0.00483673
0.00483673
0.00486402
0.00486402
0.00489105
0.00489105
0.00491782
0.00491782
0.00494436
0.00494436
0.00497066
0.00497066
0.00499674
0.00499674
0.00502262
0.00502262
0.00504831
0.00504831
0.00507382
0.00507382
0.00509915
0.00509915
0.00512432
0.00512432
0.00514933
0.00514933
0.00517419
0.00517419
0.00519891
0.00519891
0.00522348
0.00522348
0.00524792
0.00524792
0.00527224
0.00527224
0.00529642
0.00529642
0.00532049
0.00532049
0.00534444
0.00534444
0.00536829
0.00536829
0.00539202
0.00539202
0.00541565
0.00541565
0.00543918
0.00543918
0.00546261
0.00546261
0.00548595
0.00548595
0.0055092
0.0055092
0.00553237
0.00553237
0.00555545
0.00555545
0.00557847
0.00557847
0.00560142
0.00560142
0.00562431
0.00562431
0.00564715
0.00564715
0.00566995
0.00566995
0.00569271
0.00569271
0.00571543
0.00571543
0.00573813
0.00573813
0.0057608
0.0057608
0.00578345
0.00578345
0.00580608
0.00580608
0.00582869
0.00582869
0.00585129
0.00585129
0.00587388
0.00587388
0.00589645
0.00589645
0.005919
0.005919
0.00594154
0.00594154
0.00596406
0.00596406
0.00598657
0.00598657
0.00600905
0.00600905
0.00603152
0.00603152
0.00605397
0.00605397
0.00607639
0.00607639
0.00609878
0.00609878
0.00612114
0.00612114
0.00614346
0.00614346
0.00616574
0.00616574
0.00618796
0.00618796
0.00621013
0.00621013
0.00623221
0.00623221
0.00625421
0.00625421
0.00627611
0.00627611
0.00629788
0.00629788
0.00631952
0.00631952
0.006341
0.006341
0.00636231
0.00636231
0.0063834
0.0063834
0.00640427
0.00640427
0.00642489
0.00642489
0.00644522
0.00644522
0.00646524
0.00646524
0.00648491
0.00648491
0.0065042
0.0065042
0.00652307
0.00652307
0.00654148
0.00654148
0.0065594
0.0065594
0.00657678
0.00657678
0.00659357
0.00659357
0.00660973
0.00660973
0.0066252
0.0066252
0.00663994
0.00663994
0.00665389
0.00665389
0.006667
0.006667
0.0066792
0.0066792
0.00669044
0.00669044
0.00670065
0.00670065
0.00670978
0.00670978
0.00671776
0.00671776
0.00672452
0.00672452
0.00672999
0.00672999
0.00673411
0.00673411
0.00673681
0.00673681
0.00673801
0.00673801
0.00673765
0.00673765
0.00673566
0.00673566
0.00673196
0.00673196
0.00672648
0.00672648
0.00671915
0.00671915
0.0067099
0.0067099
0.00669866
0.00669866
0.00668536
0.00668536
0.00666994
0.00666994
0.00665232
0.00665232
0.00663245
0.00663245
0.00661026
0.00661026
0.00658569
0.00658569
0.00655868
0.00655868
0.00652919
0.00652919
0.00649716
0.00649716
0.00646254
0.00646254
0.0064253
0.0064253
0.00638537
0.00638537
0.00634274
0.00634274
0.00629738
0.00629738
0.00624924
0.00624924
0.00619831
0.00619831
0.00614458
0.00614458
0.00608802
0.00608802
0.00602863
0.00602863
0.00596641
0.00596641
0.00590135
0.00590135
0.00583348
0.00583348
0.0057628
0.0057628
0.00568933
0.00568933
0.0056131
0.0056131
0.00553413
0.00553413
0.00545248
0.00545248
0.00536817
0.00536817
0.00528127
0.00528127
0.00519183
0.00519183
0.00509992
0.00509992
0.0050056
0.0050056
0.00490895
0.00490895
0.00481006
0.00481006
0.00470902
0.00470902
0.00460593
0.00460593
0.0045009
0.0045009
0.00439404
0.00439404
0.00428546
0.00428546
0.00417531
0.00417531
0.00406371
0.00406371
0.00395082
0.00395082
0.00383679
0.00383679
0.00372176
0.00372176
0.00360593
0.00360593
0.00348945
0.00348945
0.00337251
0.00337251
0.0032553
0.0032553
0.00313802
0.00313802
0.00302087
0.00302087
0.00290406
0.00290406
0.00278779
0.00278779
0.00267229
0.00267229
0.00255778
0.00255778
0.00244446
0.00244446
0.00233257
0.00233257
0.00222231
0.00222231
0.00211389
0.00211389
0.00200752
0.00200752
0.0019034
0.0019034
0.00180172
0.00180172
0.00170264
0.00170264
0.00160633
0.00160633
0.00151293
0.00151293
0.00142258
0.00142258
0.00133538
0.00133538
0.00125142
0.00125142
0.00117078
0.00117078
0.0010935
0.0010935
0.00101963
0.00101963
0.000949163
0.000949163
0.000882103
0.000882103
0.000818425
0.000818425
0.000758091
0.000758091
0.000701046
0.000701046
0.000647222
0.000647222
0.000596541
0.000596541
0.000548915
0.000548915
0.000504245
0.000504245
0.000462429
0.000462429
0.000423356
0.000423356
0.000386914
0.000386914
0.000352986
0.000352986
0.000321456
0.000321456
0.000292206
0.000292206
0.000265119
0.000265119
0.000240078
0.000240078
0.00021697
0.00021697
0.000195683
0.000195683
0.000176109
0.000176109
0.000158142
0.000158142
0.000141682
0.000141682
0.000126629
0.000126629
0.000112891
0.000112891
0.000100378
0.000100378
8.90034e-05
8.90034e-05
7.8687e-05
7.8687e-05
6.9351e-05
6.9351e-05
6.09223e-05
6.09223e-05
5.33315e-05
5.33315e-05
4.65133e-05
4.65133e-05
4.0406e-05
4.0406e-05
3.49517e-05
3.49517e-05
3.00957e-05
3.00957e-05
2.57872e-05
2.57872e-05
2.19782e-05
2.19782e-05
1.8624e-05
1.8624e-05
1.56828e-05
1.56828e-05
1.31157e-05
1.31157e-05
1.08864e-05
1.08864e-05
8.96116e-06
8.96116e-06
7.30867e-06
7.30867e-06
5.89993e-06
5.89993e-06
4.70811e-06
4.70811e-06
3.70839e-06
3.70839e-06
2.87792e-06
2.87792e-06
2.19568e-06
2.19568e-06
1.64234e-06
1.64234e-06
1.20022e-06
1.20022e-06
8.53177e-07
8.53177e-07
5.86493e-07
5.86493e-07
3.8683e-07
3.8683e-07
2.42132e-07
2.42132e-07
1.41567e-07
1.41567e-07
7.54628e-08
7.54628e-08
3.52573e-08
3.52573e-08
1.34622e-08
1.34622e-08
3.65262e-09
3.65262e-09
5.09034e-10
5.09034e-10
1.69624e-11
1.69624e-11
)
;

boundaryField
{
    walls
    {
        type            kqRWallFunction;
        value           nonuniform List<scalar> 8(1.69625e-11 1.69625e-11 1.69625e-11 1.69625e-11 1.69624e-11 1.69624e-11 1.69624e-11 1.69624e-11);
    }
    inlet
    {
        type            cyclic;
    }
    outlet
    {
        type            cyclic;
    }
    sides
    {
        type            empty;
    }
}


// ************************************************************************* //
