/*--------------------------------*- C++ -*----------------------------------*\
| =========                 |                                                 |
| \\      /  F ield         | OpenFOAM: The Open Source CFD Toolbox           |
|  \\    /   O peration     | Version:  2106                                  |
|   \\  /    A nd           | Website:  www.openfoam.com                      |
|    \\/     M anipulation  |                                                 |
\*---------------------------------------------------------------------------*/
FoamFile
{
    version     2.0;
    format      ascii;
    arch        "LSB;label=32;scalar=64";
    class       volSymmTensorField;
    location    "40000";
    object      turbulenceProperties:R;
}
// * * * * * * * * * * * * * * * * * * * * * * * * * * * * * * * * * * * * * //

dimensions      [0 2 -2 0 0 0 0];

internalField   nonuniform List<symmTensor> 
2560
(
(1.13083e-11 -2.14643e-16 -3.10723e-19 1.13083e-11 -2.66064e-24 1.13083e-11)
(1.13083e-11 -2.14643e-16 -3.10723e-19 1.13083e-11 -2.54789e-24 1.13083e-11)
(3.39356e-10 -3.70183e-14 -1.61553e-16 3.39356e-10 -3.90708e-23 3.39356e-10)
(3.39356e-10 -3.70183e-14 -1.61553e-16 3.39356e-10 -5.54017e-23 3.39356e-10)
(2.43508e-09 -7.83507e-13 -4.70307e-15 2.43508e-09 -4.2295e-22 2.43508e-09)
(2.43508e-09 -7.83507e-13 -4.70307e-15 2.43508e-09 -3.91869e-22 2.43508e-09)
(8.97481e-09 -6.12305e-12 -3.72886e-14 8.97481e-09 -2.91322e-21 8.97481e-09)
(8.97481e-09 -6.12305e-12 -3.72886e-14 8.97481e-09 -3.00764e-21 8.97481e-09)
(2.35048e-08 -2.82893e-11 -1.74783e-13 2.35048e-08 -1.21361e-20 2.35048e-08)
(2.35048e-08 -2.82893e-11 -1.74783e-13 2.35048e-08 -1.35558e-20 2.35048e-08)
(5.03084e-08 -9.53276e-11 -5.97537e-13 5.03084e-08 -5.71575e-20 5.03084e-08)
(5.03084e-08 -9.53276e-11 -5.97537e-13 5.03084e-08 -5.42358e-20 5.03084e-08)
(9.43776e-08 -2.60886e-10 -1.65908e-12 9.43776e-08 -1.68123e-19 9.43776e-08)
(9.43776e-08 -2.60886e-10 -1.65908e-12 9.43776e-08 -1.88101e-19 9.43776e-08)
(1.61421e-07 -6.1657e-10 -3.97802e-12 1.61421e-07 -3.72115e-19 1.61421e-07)
(1.61421e-07 -6.1657e-10 -3.97802e-12 1.61421e-07 -3.63632e-19 1.61421e-07)
(2.57885e-07 -1.30719e-09 -8.55643e-12 2.57885e-07 -7.01092e-19 2.57885e-07)
(2.57885e-07 -1.30719e-09 -8.55643e-12 2.57885e-07 -7.10939e-19 2.57885e-07)
(3.90994e-07 -2.54929e-09 -1.69294e-11 3.90994e-07 -1.22876e-18 3.90994e-07)
(3.90994e-07 -2.54929e-09 -1.69294e-11 3.90994e-07 -1.22273e-18 3.90994e-07)
(5.68783e-07 -4.65337e-09 -3.13516e-11 5.68783e-07 -3.79931e-18 5.68783e-07)
(5.68783e-07 -4.65337e-09 -3.13516e-11 5.68783e-07 -3.83101e-18 5.68783e-07)
(8.00146e-07 -8.0504e-09 -5.50273e-11 8.00146e-07 -8.87558e-18 8.00146e-07)
(8.00146e-07 -8.0504e-09 -5.50273e-11 8.00146e-07 -8.57901e-18 8.00146e-07)
(1.09489e-06 -1.3323e-08 -9.23912e-11 1.09489e-06 -1.72005e-17 1.09489e-06)
(1.09489e-06 -1.3323e-08 -9.23912e-11 1.09489e-06 -1.68248e-17 1.09489e-06)
(1.46378e-06 -2.12419e-08 -1.49449e-10 1.46378e-06 -3.01623e-17 1.46378e-06)
(1.46378e-06 -2.12419e-08 -1.49449e-10 1.46378e-06 -2.93676e-17 1.46378e-06)
(1.91861e-06 -3.2809e-08 -2.34186e-10 1.91861e-06 -5.1836e-17 1.91861e-06)
(1.91861e-06 -3.2809e-08 -2.34186e-10 1.91861e-06 -5.31443e-17 1.91861e-06)
(2.47225e-06 -4.93062e-08 -3.57057e-10 2.47225e-06 -1.06106e-16 2.47225e-06)
(2.47225e-06 -4.93062e-08 -3.57057e-10 2.47225e-06 -1.03917e-16 2.47225e-06)
(3.13872e-06 -7.23529e-08 -5.3157e-10 3.13872e-06 -2.07522e-16 3.13872e-06)
(3.13872e-06 -7.23529e-08 -5.3157e-10 3.13872e-06 -2.04258e-16 3.13872e-06)
(3.93327e-06 -1.03971e-07 -7.74972e-10 3.93327e-06 -3.88184e-16 3.93327e-06)
(3.93327e-06 -1.03971e-07 -7.74972e-10 3.93327e-06 -3.86011e-16 3.93327e-06)
(4.87243e-06 -1.4666e-07 -1.10906e-09 4.87243e-06 -6.92251e-16 4.87243e-06)
(4.87243e-06 -1.4666e-07 -1.10906e-09 4.87243e-06 -6.86006e-16 4.87243e-06)
(5.97408e-06 -2.03483e-07 -1.56113e-09 5.97408e-06 -1.19504e-15 5.97408e-06)
(5.97408e-06 -2.03483e-07 -1.56113e-09 5.97408e-06 -1.18885e-15 5.97408e-06)
(7.25758e-06 -2.78162e-07 -2.16508e-09 7.25758e-06 -2.02275e-15 7.25758e-06)
(7.25758e-06 -2.78162e-07 -2.16508e-09 7.25758e-06 -2.02457e-15 7.25758e-06)
(8.74379e-06 -3.75186e-07 -2.96273e-09 8.74379e-06 -3.42685e-15 8.74379e-06)
(8.74379e-06 -3.75186e-07 -2.96273e-09 8.74379e-06 -3.42594e-15 8.74379e-06)
(1.04552e-05 -4.9994e-07 -4.00526e-09 1.04552e-05 -5.74078e-15 1.04552e-05)
(1.04552e-05 -4.9994e-07 -4.00526e-09 1.04552e-05 -5.7341e-15 1.04552e-05)
(1.2416e-05 -6.58836e-07 -5.35497e-09 1.2416e-05 -9.43903e-15 1.2416e-05)
(1.2416e-05 -6.58836e-07 -5.35497e-09 1.2416e-05 -9.43088e-15 1.2416e-05)
(1.46521e-05 -8.59472e-07 -7.08726e-09 1.46521e-05 -1.22333e-14 1.46521e-05)
(1.46521e-05 -8.59472e-07 -7.08726e-09 1.46521e-05 -1.11197e-14 1.46521e-05)
(1.71914e-05 -1.11081e-06 -9.29289e-09 1.71914e-05 -6.44204e-15 1.71914e-05)
(1.71914e-05 -1.11081e-06 -9.29289e-09 1.71914e-05 -7.11936e-15 1.71914e-05)
(2.00637e-05 -1.42334e-06 -1.20806e-08 2.00637e-05 -4.1508e-15 2.00637e-05)
(2.00637e-05 -1.42334e-06 -1.20806e-08 2.00637e-05 -4.0202e-15 2.00637e-05)
(2.3301e-05 -1.80935e-06 -1.55799e-08 2.3301e-05 -5.35172e-15 2.3301e-05)
(2.3301e-05 -1.80935e-06 -1.55799e-08 2.3301e-05 -5.18172e-15 2.3301e-05)
(2.69372e-05 -2.28309e-06 -1.99449e-08 2.69372e-05 -6.84983e-15 2.69372e-05)
(2.69372e-05 -2.28309e-06 -1.99449e-08 2.69372e-05 -6.62782e-15 2.69372e-05)
(3.10088e-05 -2.86107e-06 -2.53573e-08 3.10088e-05 -8.70257e-15 3.10088e-05)
(3.10088e-05 -2.86107e-06 -2.53573e-08 3.10088e-05 -1.0792e-14 3.10088e-05)
(3.55542e-05 -3.56236e-06 -3.20313e-08 3.55542e-05 -3.98226e-14 3.55542e-05)
(3.55542e-05 -3.56236e-06 -3.20313e-08 3.55542e-05 -4.64169e-14 3.55542e-05)
(4.06147e-05 -4.40884e-06 -4.02184e-08 4.06147e-05 -9.73133e-14 4.06147e-05)
(4.06147e-05 -4.40884e-06 -4.02184e-08 4.06147e-05 -1.02043e-13 4.06147e-05)
(4.62338e-05 -5.42556e-06 -5.0212e-08 4.62338e-05 -1.45375e-13 4.62338e-05)
(4.62338e-05 -5.42556e-06 -5.0212e-08 4.62338e-05 -1.45375e-13 4.62338e-05)
(5.24578e-05 -6.64114e-06 -6.23544e-08 5.24578e-05 -2.05511e-13 5.24578e-05)
(5.24578e-05 -6.64114e-06 -6.23544e-08 5.24578e-05 -2.05511e-13 5.24578e-05)
(5.93354e-05 -8.08806e-06 -7.70424e-08 5.93354e-05 -2.88354e-13 5.93354e-05)
(5.93354e-05 -8.08806e-06 -7.70424e-08 5.93354e-05 -2.88352e-13 5.93354e-05)
(6.69181e-05 -9.80316e-06 -9.47351e-08 6.69181e-05 -4.01598e-13 6.69181e-05)
(6.69181e-05 -9.80316e-06 -9.47351e-08 6.69181e-05 -4.01595e-13 6.69181e-05)
(7.52604e-05 -1.1828e-05 -1.15962e-07 7.52604e-05 -5.55264e-13 7.52604e-05)
(7.52604e-05 -1.1828e-05 -1.15962e-07 7.52604e-05 -5.55258e-13 7.52604e-05)
(8.44191e-05 -1.42094e-05 -1.41331e-07 8.44191e-05 -7.62363e-13 8.44191e-05)
(8.44191e-05 -1.42094e-05 -1.41331e-07 8.44191e-05 -7.62357e-13 8.44191e-05)
(9.44541e-05 -1.69998e-05 -1.71538e-07 9.44541e-05 -1.03967e-12 9.44541e-05)
(9.44541e-05 -1.69998e-05 -1.71538e-07 9.44541e-05 -1.03967e-12 9.44541e-05)
(0.000105428 -2.02577e-05 -2.07378e-07 0.000105428 -1.40873e-12 0.000105428)
(0.000105428 -2.02577e-05 -2.07378e-07 0.000105428 -1.40872e-12 0.000105428)
(0.000117406 -2.40485e-05 -2.49755e-07 0.000117406 -1.89685e-12 0.000117406)
(0.000117406 -2.40485e-05 -2.49755e-07 0.000117406 -1.89683e-12 0.000117406)
(0.000130455 -2.84444e-05 -2.99692e-07 0.000130455 -2.5386e-12 0.000130455)
(0.000130455 -2.84444e-05 -2.99692e-07 0.000130455 -2.53858e-12 0.000130455)
(0.000144646 -3.35254e-05 -3.58346e-07 0.000144646 -3.37694e-12 0.000144646)
(0.000144646 -3.35254e-05 -3.58346e-07 0.000144646 -3.37692e-12 0.000144646)
(0.000160051 -3.93795e-05 -4.27019e-07 0.000160051 -4.46532e-12 0.000160051)
(0.000160051 -3.93795e-05 -4.27019e-07 0.000160051 -4.4653e-12 0.000160051)
(0.000176745 -4.61029e-05 -5.07169e-07 0.000176745 -5.86927e-12 0.000176745)
(0.000176745 -4.61029e-05 -5.07169e-07 0.000176745 -5.86924e-12 0.000176745)
(0.000194803 -5.38009e-05 -6.00424e-07 0.000194803 -7.66888e-12 0.000194803)
(0.000194803 -5.38009e-05 -6.00424e-07 0.000194803 -7.66886e-12 0.000194803)
(0.000214303 -6.25874e-05 -7.08595e-07 0.000214303 -9.96192e-12 0.000214303)
(0.000214303 -6.25874e-05 -7.08595e-07 0.000214303 -9.96189e-12 0.000214303)
(0.000235323 -7.25857e-05 -8.33686e-07 0.000235323 -1.28593e-11 0.000235323)
(0.000235323 -7.25857e-05 -8.33686e-07 0.000235323 -1.28593e-11 0.000235323)
(0.000257942 -8.39281e-05 -9.77905e-07 0.000257942 -1.64965e-11 0.000257942)
(0.000257942 -8.39281e-05 -9.77905e-07 0.000257942 -1.64963e-11 0.000257942)
(0.000282236 -9.6756e-05 -1.14368e-06 0.000282236 -2.10419e-11 0.000282236)
(0.000282236 -9.6756e-05 -1.14368e-06 0.000282236 -2.10419e-11 0.000282236)
(0.000308285 -0.000111219 -1.33364e-06 0.000308285 -2.66629e-11 0.000308285)
(0.000308285 -0.000111219 -1.33364e-06 0.000308285 -2.66624e-11 0.000308285)
(0.000336163 -0.000127476 -1.55066e-06 0.000336163 -3.35749e-11 0.000336163)
(0.000336163 -0.000127476 -1.55066e-06 0.000336163 -3.35742e-11 0.000336163)
(0.000365942 -0.000145692 -1.79784e-06 0.000365942 -4.19943e-11 0.000365942)
(0.000365942 -0.000145692 -1.79784e-06 0.000365942 -4.19942e-11 0.000365942)
(0.000397693 -0.000166037 -2.07848e-06 0.000397693 -5.2175e-11 0.000397693)
(0.000397693 -0.000166037 -2.07848e-06 0.000397693 -5.21739e-11 0.000397693)
(0.00043148 -0.000188689 -2.39611e-06 0.00043148 -6.43884e-11 0.00043148)
(0.00043148 -0.000188689 -2.39611e-06 0.00043148 -6.43869e-11 0.00043148)
(0.000467363 -0.000213825 -2.75447e-06 0.000467363 -7.89024e-11 0.000467363)
(0.000467363 -0.000213825 -2.75447e-06 0.000467363 -7.89005e-11 0.000467363)
(0.000505393 -0.000241626 -3.15746e-06 0.000505393 -9.59894e-11 0.000505393)
(0.000505393 -0.000241626 -3.15746e-06 0.000505393 -9.59866e-11 0.000505393)
(0.000545616 -0.000272269 -3.60915e-06 0.000545616 -1.15911e-10 0.000545616)
(0.000545616 -0.000272269 -3.60915e-06 0.000545616 -1.15908e-10 0.000545616)
(0.000588068 -0.000305928 -4.11372e-06 0.000588068 -1.38981e-10 0.000588068)
(0.000588068 -0.000305928 -4.11372e-06 0.000588068 -1.38977e-10 0.000588068)
(0.000632775 -0.000342771 -4.67546e-06 0.000632775 -1.65464e-10 0.000632775)
(0.000632775 -0.000342771 -4.67546e-06 0.000632775 -1.65459e-10 0.000632775)
(0.000679753 -0.000382951 -5.29868e-06 0.000679753 -1.9546e-10 0.000679753)
(0.000679753 -0.000382951 -5.29868e-06 0.000679753 -1.95454e-10 0.000679753)
(0.000729004 -0.000426612 -5.98766e-06 0.000729004 -2.2908e-10 0.000729004)
(0.000729004 -0.000426612 -5.98766e-06 0.000729004 -2.2908e-10 0.000729004)
(0.000780521 -0.000473878 -6.74663e-06 0.000780521 -2.66567e-10 0.000780521)
(0.000780521 -0.000473878 -6.74663e-06 0.000780521 -2.66557e-10 0.000780521)
(0.000834283 -0.000524852 -7.57968e-06 0.000834283 -3.08093e-10 0.000834283)
(0.000834283 -0.000524852 -7.57968e-06 0.000834283 -3.08081e-10 0.000834283)
(0.000890255 -0.000579614 -8.49071e-06 0.000890255 -3.53491e-10 0.000890255)
(0.000890255 -0.000579614 -8.49071e-06 0.000890255 -3.53491e-10 0.000890255)
(0.000948389 -0.000638216 -9.48335e-06 0.000948389 -4.02135e-10 0.000948389)
(0.000948389 -0.000638216 -9.48335e-06 0.000948389 -4.02119e-10 0.000948389)
(0.00100862 -0.000700682 -1.05609e-05 0.00100862 -4.54854e-10 0.00100862)
(0.00100862 -0.000700682 -1.05609e-05 0.00100862 -4.54833e-10 0.00100862)
(0.00107089 -0.000767002 -1.17263e-05 0.00107089 -5.11272e-10 0.00107089)
(0.00107089 -0.000767002 -1.17263e-05 0.00107089 -5.11258e-10 0.00107089)
(0.0011351 -0.000837134 -1.2982e-05 0.0011351 -5.70781e-10 0.0011351)
(0.0011351 -0.000837134 -1.2982e-05 0.0011351 -5.70767e-10 0.0011351)
(0.00120115 -0.000911 -1.43299e-05 0.00120115 -6.32875e-10 0.00120115)
(0.00120115 -0.000911 -1.43299e-05 0.00120115 -6.32859e-10 0.00120115)
(0.00126894 -0.00098849 -1.57716e-05 0.00126894 -6.98472e-10 0.00126894)
(0.00126894 -0.00098849 -1.57716e-05 0.00126894 -6.98454e-10 0.00126894)
(0.00133836 -0.00106946 -1.73079e-05 0.00133836 -7.66573e-10 0.00133836)
(0.00133836 -0.00106946 -1.73079e-05 0.00133836 -7.66574e-10 0.00133836)
(0.00140927 -0.00115372 -1.8939e-05 0.00140927 -8.37394e-10 0.00140927)
(0.00140927 -0.00115372 -1.8939e-05 0.00140927 -8.37395e-10 0.00140927)
(0.00148155 -0.00124108 -2.06647e-05 0.00148155 -9.1128e-10 0.00148155)
(0.00148155 -0.00124108 -2.06647e-05 0.00148155 -9.1128e-10 0.00148155)
(0.00155506 -0.00133128 -2.24839e-05 0.00155506 -9.86806e-10 0.00155506)
(0.00155506 -0.00133128 -2.24839e-05 0.00155506 -9.86807e-10 0.00155506)
(0.00162965 -0.00142406 -2.43952e-05 0.00162965 -1.06556e-09 0.00162965)
(0.00162965 -0.00142406 -2.43952e-05 0.00162965 -1.06556e-09 0.00162965)
(0.0017052 -0.00151913 -2.63963e-05 0.0017052 -1.14556e-09 0.0017052)
(0.0017052 -0.00151913 -2.63963e-05 0.0017052 -1.14556e-09 0.0017052)
(0.00178154 -0.00161618 -2.84846e-05 0.00178154 -1.229e-09 0.00178154)
(0.00178154 -0.00161618 -2.84846e-05 0.00178154 -1.229e-09 0.00178154)
(0.00185854 -0.00171488 -3.06567e-05 0.00185854 -1.31433e-09 0.00185854)
(0.00185854 -0.00171488 -3.06567e-05 0.00185854 -1.31434e-09 0.00185854)
(0.00193605 -0.0018149 -3.29091e-05 0.00193605 -1.40118e-09 0.00193605)
(0.00193605 -0.0018149 -3.29091e-05 0.00193605 -1.40118e-09 0.00193605)
(0.00201393 -0.00191589 -3.52373e-05 0.00201393 -1.49195e-09 0.00201393)
(0.00201393 -0.00191589 -3.52373e-05 0.00201393 -1.49197e-09 0.00201393)
(0.00209203 -0.00201748 -3.76368e-05 0.00209203 -1.58234e-09 0.00209203)
(0.00209203 -0.00201748 -3.76368e-05 0.00209203 -1.58234e-09 0.00209203)
(0.00217021 -0.00211933 -4.01025e-05 0.00217021 -1.67814e-09 0.00217021)
(0.00217021 -0.00211933 -4.01025e-05 0.00217021 -1.67815e-09 0.00217021)
(0.00224835 -0.00222107 -4.26292e-05 0.00224835 -1.77465e-09 0.00224835)
(0.00224835 -0.00222107 -4.26292e-05 0.00224835 -1.77465e-09 0.00224835)
(0.00232631 -0.00232236 -4.52111e-05 0.00232631 -1.87345e-09 0.00232631)
(0.00232631 -0.00232236 -4.52111e-05 0.00232631 -1.87346e-09 0.00232631)
(0.00240396 -0.00242286 -4.78425e-05 0.00240396 -1.97632e-09 0.00240396)
(0.00240396 -0.00242286 -4.78425e-05 0.00240396 -1.97632e-09 0.00240396)
(0.00248119 -0.00252221 -5.05171e-05 0.00248119 -2.07888e-09 0.00248119)
(0.00248119 -0.00252221 -5.05171e-05 0.00248119 -2.07888e-09 0.00248119)
(0.00255787 -0.00262011 -5.32289e-05 0.00255787 -2.17996e-09 0.00255787)
(0.00255787 -0.00262011 -5.32289e-05 0.00255787 -2.17996e-09 0.00255787)
(0.0026339 -0.00271623 -5.59715e-05 0.0026339 -2.28556e-09 0.0026339)
(0.0026339 -0.00271623 -5.59715e-05 0.0026339 -2.28557e-09 0.0026339)
(0.00270916 -0.00281029 -5.87385e-05 0.00270916 -2.39096e-09 0.00270916)
(0.00270916 -0.00281029 -5.87385e-05 0.00270916 -2.39096e-09 0.00270916)
(0.00278355 -0.002902 -6.15235e-05 0.00278355 -2.50203e-09 0.00278355)
(0.00278355 -0.002902 -6.15235e-05 0.00278355 -2.50204e-09 0.00278355)
(0.00285699 -0.00299109 -6.43201e-05 0.00285699 -2.60673e-09 0.00285699)
(0.00285699 -0.00299109 -6.43201e-05 0.00285699 -2.60673e-09 0.00285699)
(0.00292937 -0.00307733 -6.71218e-05 0.00292937 -2.7121e-09 0.00292937)
(0.00292937 -0.00307733 -6.71218e-05 0.00292937 -2.7121e-09 0.00292937)
(0.00300061 -0.00316048 -6.99225e-05 0.00300061 -2.81836e-09 0.00300061)
(0.00300061 -0.00316048 -6.99225e-05 0.00300061 -2.81836e-09 0.00300061)
(0.00307063 -0.00324034 -7.27157e-05 0.00307063 -2.91851e-09 0.00307063)
(0.00307063 -0.00324034 -7.27157e-05 0.00307063 -2.91852e-09 0.00307063)
(0.00313936 -0.00331672 -7.54955e-05 0.00313936 -3.02642e-09 0.00313936)
(0.00313936 -0.00331672 -7.54955e-05 0.00313936 -3.0264e-09 0.00313936)
(0.00320672 -0.00338945 -7.82559e-05 0.00320672 -3.11661e-09 0.00320672)
(0.00320672 -0.00338945 -7.82559e-05 0.00320672 -3.11661e-09 0.00320672)
(0.00327265 -0.00345839 -8.09911e-05 0.00327265 -3.21984e-09 0.00327265)
(0.00327265 -0.00345839 -8.09911e-05 0.00327265 -3.21985e-09 0.00327265)
(0.00333708 -0.00352341 -8.36955e-05 0.00333708 -3.31827e-09 0.00333708)
(0.00333708 -0.00352341 -8.36955e-05 0.00333708 -3.31825e-09 0.00333708)
(0.00339996 -0.00358439 -8.63636e-05 0.00339996 -3.39829e-09 0.00339996)
(0.00339996 -0.00358439 -8.63636e-05 0.00339996 -3.39829e-09 0.00339996)
(0.00346123 -0.00364125 -8.89904e-05 0.00346123 -3.48635e-09 0.00346123)
(0.00346123 -0.00364125 -8.89904e-05 0.00346123 -3.48632e-09 0.00346123)
(0.00352086 -0.00369391 -9.15708e-05 0.00352086 -3.55535e-09 0.00352086)
(0.00352086 -0.00369391 -9.15708e-05 0.00352086 -3.55535e-09 0.00352086)
(0.00357879 -0.00374232 -9.41004e-05 0.00357879 -3.62356e-09 0.00357879)
(0.00357879 -0.00374232 -9.41004e-05 0.00357879 -3.62356e-09 0.00357879)
(0.003635 -0.00378646 -9.65746e-05 0.003635 -3.69542e-09 0.003635)
(0.003635 -0.00378646 -9.65746e-05 0.003635 -3.69537e-09 0.003635)
(0.00368943 -0.00382629 -9.89893e-05 0.00368943 -3.74404e-09 0.00368943)
(0.00368943 -0.00382629 -9.89893e-05 0.00368943 -3.74404e-09 0.00368943)
(0.00374208 -0.00386182 -0.000101341 0.00374208 -3.78797e-09 0.00374208)
(0.00374208 -0.00386182 -0.000101341 0.00374208 -3.78798e-09 0.00374208)
(0.0037929 -0.00389307 -0.000103625 0.0037929 -3.82915e-09 0.0037929)
(0.0037929 -0.00389307 -0.000103625 0.0037929 -3.82908e-09 0.0037929)
(0.00384188 -0.00392006 -0.00010584 0.00384188 -3.84706e-09 0.00384188)
(0.00384188 -0.00392006 -0.00010584 0.00384188 -3.84706e-09 0.00384188)
(0.003889 -0.00394284 -0.000107982 0.003889 -3.86634e-09 0.003889)
(0.003889 -0.00394284 -0.000107982 0.003889 -3.86635e-09 0.003889)
(0.00393425 -0.00396147 -0.000110049 0.00393425 -3.86837e-09 0.00393425)
(0.00393425 -0.00396147 -0.000110049 0.00393425 -3.86829e-09 0.00393425)
(0.00397762 -0.00397603 -0.000112038 0.00397762 -3.84924e-09 0.00397762)
(0.00397762 -0.00397603 -0.000112038 0.00397762 -3.84924e-09 0.00397762)
(0.0040191 -0.00398659 -0.000113948 0.0040191 -3.85033e-09 0.0040191)
(0.0040191 -0.00398659 -0.000113948 0.0040191 -3.85021e-09 0.0040191)
(0.00405869 -0.00399326 -0.000115777 0.00405869 -3.80095e-09 0.00405869)
(0.00405869 -0.00399326 -0.000115777 0.00405869 -3.80095e-09 0.00405869)
(0.00409639 -0.00399614 -0.000117525 0.00409639 -3.7688e-09 0.00409639)
(0.00409639 -0.00399614 -0.000117525 0.00409639 -3.76881e-09 0.00409639)
(0.00413222 -0.00399535 -0.00011919 0.00413222 -3.71391e-09 0.00413222)
(0.00413222 -0.00399535 -0.00011919 0.00413222 -3.71378e-09 0.00413222)
(0.00416617 -0.00399102 -0.000120771 0.00416617 -3.64033e-09 0.00416617)
(0.00416617 -0.00399102 -0.000120771 0.00416617 -3.64033e-09 0.00416617)
(0.00419826 -0.00398329 -0.00012227 0.00419826 -3.57221e-09 0.00419826)
(0.00419826 -0.00398329 -0.00012227 0.00419826 -3.57205e-09 0.00419826)
(0.00422851 -0.00397228 -0.000123686 0.00422851 -3.45276e-09 0.00422851)
(0.00422851 -0.00397228 -0.000123686 0.00422851 -3.45277e-09 0.00422851)
(0.00425693 -0.00395816 -0.000125019 0.00425693 -3.35472e-09 0.00425693)
(0.00425693 -0.00395816 -0.000125019 0.00425693 -3.35455e-09 0.00425693)
(0.00428354 -0.00394109 -0.000126271 0.00428354 -3.22332e-09 0.00428354)
(0.00428354 -0.00394109 -0.000126271 0.00428354 -3.22294e-09 0.00428354)
(0.00430838 -0.00392121 -0.000127443 0.00430838 -3.11769e-09 0.00430838)
(0.00430838 -0.00392121 -0.000127443 0.00430838 -3.11748e-09 0.00430838)
(0.00433145 -0.00389869 -0.000128537 0.00433145 -2.95532e-09 0.00433145)
(0.00433145 -0.00389869 -0.000128537 0.00433145 -2.95531e-09 0.00433145)
(0.00435281 -0.0038737 -0.000129554 0.00435281 -2.81316e-09 0.00435281)
(0.00435281 -0.0038737 -0.000129554 0.00435281 -2.81319e-09 0.00435281)
(0.00437247 -0.0038464 -0.000130496 0.00437247 -2.65136e-09 0.00437247)
(0.00437247 -0.0038464 -0.000130496 0.00437247 -2.65112e-09 0.00437247)
(0.00439047 -0.00381696 -0.000131365 0.00439047 -2.46798e-09 0.00439047)
(0.00439047 -0.00381696 -0.000131365 0.00439047 -2.46752e-09 0.00439047)
(0.00440685 -0.00378556 -0.000132165 0.00440685 -2.29305e-09 0.00440685)
(0.00440685 -0.00378556 -0.000132165 0.00440685 -2.29277e-09 0.00440685)
(0.00442164 -0.00375236 -0.000132899 0.00442164 -2.08967e-09 0.00442164)
(0.00442164 -0.00375236 -0.000132899 0.00442164 -2.08919e-09 0.00442164)
(0.00443489 -0.00371753 -0.000133568 0.00443489 -1.89591e-09 0.00443489)
(0.00443489 -0.00371753 -0.000133568 0.00443489 -1.89592e-09 0.00443489)
(0.00444664 -0.00368124 -0.000134177 0.00444664 -1.68189e-09 0.00444664)
(0.00444664 -0.00368124 -0.000134177 0.00444664 -1.68159e-09 0.00444664)
(0.00445692 -0.00364365 -0.000134729 0.00445692 -1.45708e-09 0.00445692)
(0.00445692 -0.00364365 -0.000134729 0.00445692 -1.45652e-09 0.00445692)
(0.00446578 -0.00360492 -0.000135228 0.00446578 -1.25616e-09 0.00446578)
(0.00446578 -0.00360492 -0.000135228 0.00446578 -1.25616e-09 0.00446578)
(0.00447328 -0.00356521 -0.000135676 0.00447328 -1.01634e-09 0.00447328)
(0.00447328 -0.00356521 -0.000135676 0.00447328 -1.01597e-09 0.00447328)
(0.00447944 -0.00352467 -0.000136078 0.00447944 -7.5908e-10 0.00447944)
(0.00447944 -0.00352467 -0.000136078 0.00447944 -7.59056e-10 0.00447944)
(0.00448433 -0.00348346 -0.000136439 0.00448433 -5.13322e-10 0.00448433)
(0.00448433 -0.00348346 -0.000136439 0.00448433 -5.12678e-10 0.00448433)
(0.00448798 -0.00344171 -0.000136761 0.00448798 -2.80039e-10 0.00448798)
(0.00448798 -0.00344171 -0.000136761 0.00448798 -2.80043e-10 0.00448798)
(0.00449045 -0.00339956 -0.00013705 0.00449045 -2.52005e-14 0.00449045)
(0.00449045 -0.00339956 -0.00013705 0.00449045 4.44957e-13 0.00449045)
(0.00449178 -0.00335713 -0.000137308 0.00449178 2.28794e-10 0.00449178)
(0.00449178 -0.00335713 -0.000137308 0.00449178 2.29527e-10 0.00449178)
(0.00449202 -0.00331456 -0.000137539 0.00449202 5.06906e-10 0.00449202)
(0.00449202 -0.00331456 -0.000137539 0.00449202 5.06942e-10 0.00449202)
(0.00449121 -0.00327196 -0.000137749 0.00449121 7.72372e-10 0.00449121)
(0.00449121 -0.00327196 -0.000137749 0.00449121 7.72368e-10 0.00449121)
(0.00448941 -0.00322945 -0.000137941 0.00448941 1.01937e-09 0.00448941)
(0.00448941 -0.00322945 -0.000137941 0.00448941 1.02018e-09 0.00448941)
(0.00448667 -0.00318712 -0.000138118 0.00448667 1.26854e-09 0.00448667)
(0.00448667 -0.00318712 -0.000138118 0.00448667 1.2691e-09 0.00448667)
(0.00448302 -0.00314507 -0.000138285 0.00448302 1.50723e-09 0.00448302)
(0.00448302 -0.00314507 -0.000138285 0.00448302 1.50812e-09 0.00448302)
(0.00447851 -0.00310338 -0.000138444 0.00447851 1.75941e-09 0.00447851)
(0.00447851 -0.00310338 -0.000138444 0.00447851 1.76033e-09 0.00447851)
(0.00447319 -0.00306212 -0.0001386 0.00447319 2.00746e-09 0.00447319)
(0.00447319 -0.00306212 -0.0001386 0.00447319 2.00837e-09 0.00447319)
(0.00446711 -0.00302138 -0.000138754 0.00446711 2.20654e-09 0.00446711)
(0.00446711 -0.00302138 -0.000138754 0.00446711 2.20756e-09 0.00446711)
(0.0044603 -0.00298119 -0.000138911 0.0044603 2.45324e-09 0.0044603)
(0.0044603 -0.00298119 -0.000138911 0.0044603 2.45428e-09 0.0044603)
(0.0044528 -0.00294162 -0.000139073 0.0044528 2.67095e-09 0.0044528)
(0.0044528 -0.00294162 -0.000139073 0.0044528 2.67199e-09 0.0044528)
(0.00444467 -0.00290271 -0.000139242 0.00444467 2.87982e-09 0.00444467)
(0.00444467 -0.00290271 -0.000139242 0.00444467 2.88095e-09 0.00444467)
(0.00443593 -0.0028645 -0.000139421 0.00443593 3.11411e-09 0.00443593)
(0.00443593 -0.0028645 -0.000139421 0.00443593 3.11527e-09 0.00443593)
(0.00442663 -0.00282702 -0.000139613 0.00442663 3.34319e-09 0.00442663)
(0.00442663 -0.00282702 -0.000139613 0.00442663 3.34439e-09 0.00442663)
(0.00441681 -0.00279032 -0.000139819 0.00441681 3.57898e-09 0.00441681)
(0.00441681 -0.00279032 -0.000139819 0.00441681 3.58023e-09 0.00441681)
(0.00440649 -0.00275442 -0.000140044 0.00440649 3.81073e-09 0.00440649)
(0.00440649 -0.00275442 -0.000140044 0.00440649 3.812e-09 0.00440649)
(0.00439572 -0.00271935 -0.000140289 0.00439572 4.01962e-09 0.00439572)
(0.00439572 -0.00271935 -0.000140289 0.00439572 4.021e-09 0.00439572)
(0.00438453 -0.00268514 -0.000140557 0.00438453 4.25e-09 0.00438453)
(0.00438453 -0.00268514 -0.000140557 0.00438453 4.2514e-09 0.00438453)
(0.00437294 -0.0026518 -0.000140849 0.00437294 4.45388e-09 0.00437294)
(0.00437294 -0.0026518 -0.000140849 0.00437294 4.45535e-09 0.00437294)
(0.00436099 -0.00261935 -0.000141168 0.004361 4.65697e-09 0.00436099)
(0.00436099 -0.00261935 -0.000141168 0.004361 4.65849e-09 0.00436099)
(0.00434872 -0.00258777 -0.000141514 0.00434872 4.90146e-09 0.00434872)
(0.00434872 -0.00258777 -0.000141514 0.00434872 4.90298e-09 0.00434872)
(0.00433614 -0.00255707 -0.000141888 0.00433614 5.06264e-09 0.00433614)
(0.00433614 -0.00255707 -0.000141888 0.00433614 5.06433e-09 0.00433614)
(0.00432328 -0.00252724 -0.000142292 0.00432328 5.30034e-09 0.00432328)
(0.00432328 -0.00252724 -0.000142292 0.00432328 5.30206e-09 0.00432328)
(0.00431016 -0.00249826 -0.000142726 0.00431016 5.51608e-09 0.00431016)
(0.00431016 -0.00249826 -0.000142726 0.00431016 5.51784e-09 0.00431016)
(0.00429682 -0.00247012 -0.00014319 0.00429682 5.68398e-09 0.00429682)
(0.00429682 -0.00247012 -0.00014319 0.00429682 5.68584e-09 0.00429682)
(0.00428326 -0.0024428 -0.000143685 0.00428326 5.91208e-09 0.00428326)
(0.00428326 -0.0024428 -0.000143685 0.00428326 5.91403e-09 0.00428326)
(0.00426952 -0.00241628 -0.000144212 0.00426952 6.08995e-09 0.00426952)
(0.00426952 -0.00241628 -0.000144212 0.00426952 6.09193e-09 0.00426952)
(0.0042556 -0.00239054 -0.00014477 0.0042556 6.27553e-09 0.0042556)
(0.0042556 -0.00239054 -0.00014477 0.0042556 6.27761e-09 0.0042556)
(0.00424154 -0.00236556 -0.00014536 0.00424154 6.36424e-09 0.00424154)
(0.00424154 -0.00236556 -0.00014536 0.00424154 6.36648e-09 0.00424154)
(0.00422734 -0.00234132 -0.000145981 0.00422734 6.68522e-09 0.00422734)
(0.00422734 -0.00234132 -0.000145981 0.00422734 6.68693e-09 0.00422734)
(0.00421302 -0.00231782 -0.000146637 0.00421302 6.76352e-09 0.00421302)
(0.00421302 -0.00231782 -0.000146637 0.00421302 6.7659e-09 0.00421302)
(0.00419859 -0.00229505 -0.000147328 0.00419859 6.89318e-09 0.00419859)
(0.00419859 -0.00229505 -0.000147328 0.00419859 6.89566e-09 0.00419859)
(0.00418407 -0.00227301 -0.000148056 0.00418407 6.99081e-09 0.00418407)
(0.00418407 -0.00227301 -0.000148056 0.00418407 6.99336e-09 0.00418407)
(0.00416948 -0.00225169 -0.000148821 0.00416948 7.21509e-09 0.00416948)
(0.00416948 -0.00225169 -0.000148821 0.00416948 7.21774e-09 0.00416948)
(0.00415481 -0.00223111 -0.000149627 0.00415481 7.28136e-09 0.00415481)
(0.00415481 -0.00223111 -0.000149627 0.00415481 7.28417e-09 0.00415481)
(0.00414009 -0.00221126 -0.000150475 0.00414009 7.33231e-09 0.00414009)
(0.00414009 -0.00221126 -0.000150475 0.00414009 7.33519e-09 0.00414009)
(0.00412531 -0.00219212 -0.000151364 0.00412531 7.54884e-09 0.00412531)
(0.00412531 -0.00219212 -0.000151364 0.00412531 7.55178e-09 0.00412531)
(0.0041105 -0.00217369 -0.000152296 0.0041105 7.52814e-09 0.0041105)
(0.0041105 -0.00217369 -0.000152296 0.0041105 7.5313e-09 0.0041105)
(0.00409565 -0.00215591 -0.000153268 0.00409565 7.63256e-09 0.00409565)
(0.00409565 -0.00215591 -0.000153268 0.00409565 7.63587e-09 0.00409565)
(0.00408076 -0.00213875 -0.000154279 0.00408076 7.62284e-09 0.00408076)
(0.00408076 -0.00213875 -0.000154279 0.00408076 7.62623e-09 0.00408076)
(0.00406586 -0.00212215 -0.000155325 0.00406586 7.82299e-09 0.00406586)
(0.00406586 -0.00212215 -0.000155325 0.00406586 7.82559e-09 0.00406586)
(0.00405093 -0.00210606 -0.000156407 0.00405093 7.68292e-09 0.00405093)
(0.00405093 -0.00210606 -0.000156407 0.00405093 7.68668e-09 0.00405093)
(0.00403598 -0.00209044 -0.00015752 0.00403598 7.88703e-09 0.00403598)
(0.00403598 -0.00209044 -0.00015752 0.00403598 7.8909e-09 0.00403598)
(0.00402102 -0.00207524 -0.000158663 0.00402102 7.9691e-09 0.00402102)
(0.00402102 -0.00207524 -0.000158663 0.00402102 7.97302e-09 0.00402102)
(0.00400604 -0.00206044 -0.000159836 0.00400604 7.86354e-09 0.00400604)
(0.00400604 -0.00206044 -0.000159836 0.00400604 7.8678e-09 0.00400604)
(0.00399105 -0.00204599 -0.000161035 0.00399105 8.01225e-09 0.00399105)
(0.00399105 -0.00204599 -0.000161035 0.00399105 8.0165e-09 0.00399105)
(0.00397604 -0.00203183 -0.000162257 0.00397604 7.98554e-09 0.00397604)
(0.00397604 -0.00203183 -0.000162257 0.00397604 7.9902e-09 0.00397604)
(0.00396103 -0.00201793 -0.000163499 0.00396103 7.90979e-09 0.00396103)
(0.00396103 -0.00201793 -0.000163499 0.00396103 7.91431e-09 0.00396103)
(0.003946 -0.00200425 -0.00016476 0.003946 8.08548e-09 0.003946)
(0.003946 -0.00200425 -0.00016476 0.003946 8.09088e-09 0.003946)
(0.00393097 -0.00199076 -0.000166039 0.00393097 8.1108e-09 0.00393097)
(0.00393097 -0.00199076 -0.000166039 0.00393097 8.11506e-09 0.00393097)
(0.00391592 -0.00197748 -0.000167338 0.00391592 8.34418e-09 0.00391592)
(0.00391592 -0.00197748 -0.000167338 0.00391592 8.35176e-09 0.00391592)
(0.00390086 -0.00196444 -0.000168664 0.00390086 8.45307e-09 0.00390086)
(0.00390086 -0.00196444 -0.000168664 0.00390086 8.45447e-09 0.00390086)
(0.0038858 -0.0019517 -0.00017002 0.0038858 8.42088e-09 0.0038858)
(0.0038858 -0.0019517 -0.00017002 0.0038858 8.43579e-09 0.0038858)
(0.00387072 -0.00193927 -0.00017141 0.00387072 8.74629e-09 0.00387072)
(0.00387072 -0.00193927 -0.00017141 0.00387072 8.73407e-09 0.00387072)
(0.00385563 -0.00192721 -0.000172838 0.00385563 8.84352e-09 0.00385563)
(0.00385563 -0.00192721 -0.000172838 0.00385563 8.88881e-09 0.00385563)
(0.00384053 -0.00191552 -0.000174306 0.00384053 8.79249e-09 0.00384053)
(0.00384053 -0.00191552 -0.000174306 0.00384053 8.71822e-09 0.00384053)
(0.00382542 -0.00190419 -0.000175811 0.00382542 9.0729e-09 0.00382542)
(0.00382542 -0.00190419 -0.000175811 0.00382542 9.3491e-09 0.00382542)
(0.00381029 -0.0018932 -0.000177355 0.00381029 5.63464e-09 0.00381029)
(0.00381029 -0.0018932 -0.000177355 0.00381029 5.14679e-09 0.00381029)
(0.00379514 -0.00188252 -0.000178934 0.00379514 2.09822e-10 0.00379514)
(0.00379514 -0.00188252 -0.000178934 0.00379514 9.89919e-10 0.00379514)
(0.00377997 -0.00187211 -0.000180546 0.00377997 -6.1204e-09 0.00377997)
(0.00377997 -0.00187211 -0.000180546 0.00377997 -6.60311e-09 0.00377997)
(0.00376477 -0.00186195 -0.00018219 0.00376477 -9.25584e-09 0.00376477)
(0.00376477 -0.00186195 -0.00018219 0.00376477 -8.82016e-09 0.00376477)
(0.00374954 -0.00185199 -0.000183862 0.00374954 -9.39352e-09 0.00374954)