/*--------------------------------*- C++ -*----------------------------------*\
| =========                 |                                                 |
| \\      /  F ield         | OpenFOAM: The Open Source CFD Toolbox           |
|  \\    /   O peration     | Version:  2012                                  |
|   \\  /    A nd           | Website:  www.openfoam.com                      |
|    \\/     M anipulation  |                                                 |
\*---------------------------------------------------------------------------*/
FoamFile
{
    version     2.0;
    format      ascii;
    class       volTensorField;
    location    "16600";
    object      grad(U);
}
// * * * * * * * * * * * * * * * * * * * * * * * * * * * * * * * * * * * * * //

dimensions      [0 0 -1 0 0 0 0];


internalField   nonuniform List<tensor> 
2560
(
(0 -3.48782e-23 -9.03716e-18 1510.03 9.9355e-05 -0.000265788 2.18682 6.40546e-08 -4.25693e-07)
(0 4.34417e-18 -6.97565e-23 1510.03 6.77626e-21 -5.45832e-07 2.18682 7.02174e-08 4.40904e-07)
(0 8.91794e-19 -1.20707e-18 1508.61 -3.1332e-25 6.68379e-25 6.58817 5.29396e-23 -1.05879e-22)
(-1.15355e-15 0 -1.37513e-22 1508.61 3.81466e-05 -1.49313e-06 6.58817 3.04242e-07 6.38569e-07)
(-2.78448e-16 0 -2.03314e-22 1507.13 -7.43547e-05 0.00012367 9.04284 2.0142e-07 -4.56302e-07)
(0 0 2.71085e-22 1507.13 -5.21313e-05 -1.76531e-06 9.04284 1.72814e-07 4.72848e-07)
(-1.35241e-15 1.67e-23 -1.002e-22 1505.58 -5.05251e-05 0.000109803 9.1646 -8.79692e-08 -2.42303e-07)
(2.24143e-15 -1.67e-23 1.002e-22 1505.58 -3.47488e-05 -1.41043e-06 9.1646 -7.71127e-08 2.51373e-07)
(0 0 -9.87637e-23 1503.95 6.96211e-06 5.73162e-05 9.28758 -1.26155e-07 -1.20749e-07)
(4.41861e-15 1.60966e-23 8.23031e-23 1503.95 5.24758e-21 -1.1618e-06 9.28758 -1.32349e-23 1.25616e-07)
(2.13506e-15 1.62247e-23 -3.24494e-23 1502.27 1.54666e-05 2.72628e-05 9.41207 -6.09562e-08 -6.34052e-08)
(1.70805e-14 -3.24494e-23 3.24494e-23 1502.27 1.37098e-05 -1.21659e-06 9.41207 -5.13813e-08 6.63766e-08)
(-2.77063e-15 1.99902e-23 -7.99608e-24 1500.6 8.46294e-06 1.50865e-05 9.53835 -3.55493e-08 -3.23172e-08)
(1.10825e-14 -2.79863e-23 1.59922e-23 1500.6 6.94729e-06 -1.42635e-06 9.53835 -2.60017e-08 3.43685e-08)
(-3.41467e-15 1.09318e-19 0 1498.97 1.88006e-06 1.02135e-05 9.66671 -1.22683e-08 -1.13473e-08)
(1.36587e-14 2.56148e-23 0 1498.97 3.37979e-06 -2.80859e-07 9.66671 -2.88591e-09 1.28919e-08)
(4.0673e-15 1.94213e-23 -3.88426e-24 1497.41 2.77531e-06 8.26165e-06 9.79739 -1.07543e-08 -6.56493e-16)
(0 5.87747e-39 0 1497.41 -1.16232e-26 1.97878e-06 9.79739 0 -6.64392e-16)
(0 9.29333e-20 -3.73885e-25 1495.96 1.33605e-07 7.63513e-06 9.93063 4.40457e-10 3.09372e-17)
(0 1.19643e-23 1.9442e-25 1495.96 1.64721e-06 7.74138e-06 9.93063 1.24981e-08 -2.35363e-17)
(-1.35028e-14 4.1275e-23 -3.77371e-24 1494.64 7.8124e-07 7.71166e-06 10.0666 2.29723e-09 7.19538e-16)
(8.10398e-15 5.87747e-39 0 1494.64 4.76456e-22 7.78665e-06 10.0666 1.16489e-08 6.41003e-16)
(-1.90976e-15 6.60233e-23 0 1493.47 1.287e-06 8.21928e-06 10.2055 6.46826e-09 1.47125e-15)
(7.98783e-15 -6.23037e-23 0 1493.47 7.69441e-07 8.27442e-06 10.2055 1.57638e-08 1.38109e-15)
(0 2.52641e-21 0 1492.46 6.75546e-07 6.97769e-06 10.3475 2.32566e-09 2.33073e-15)
(0 -3.29968e-23 0 1492.46 2.28175e-07 9.07063e-06 10.3475 1.8578e-08 2.23585e-15)
(-7.4644e-15 -2.58084e-23 0 1491.61 5.93056e-07 4.65036e-06 10.4925 5.98622e-09 -7.11247e-09)
(2.98576e-14 -1.17549e-38 0 1491.61 7.51987e-22 7.53717e-06 10.4925 1.89256e-08 6.47351e-09)
(0 1.30587e-20 1.42479e-23 1490.92 -4.14272e-25 4.07377e-06 10.6407 0 -8.90892e-09)
(0 6.23345e-23 -3.55898e-19 1490.92 -6.31384e-08 -1.62158e-25 10.6407 2.11963e-08 0)
(-8.88925e-15 -5.18388e-25 0 1490.38 3.84989e-07 4.41759e-06 10.792 6.88526e-09 -4.75381e-12)
(3.5557e-14 0 0 1490.38 7.67624e-22 1.79853e-06 10.792 1.98363e-08 -3.20564e-13)
(0 -6.22907e-23 0 1489.97 6.67602e-07 4.77912e-06 10.9464 2.82516e-09 -6.38677e-12)
(-3.84667e-14 6.22907e-23 0 1489.97 3.17774e-07 4.77915e-06 10.9464 2.26307e-08 -3.73106e-13)
(1.46501e-14 0 0 1489.66 0 5.15358e-06 11.1036 0 -4.8284e-12)
(-5.60678e-14 6.1398e-23 0 1489.66 -4.29071e-07 5.1536e-06 11.1036 2.33789e-08 -3.34035e-13)
(1.44402e-14 1.84916e-23 2.68969e-23 1489.42 7.495e-08 5.53423e-06 11.2635 5.5428e-09 -6.49743e-12)
(0 3.51825e-20 0 1489.42 -7.67624e-22 5.53426e-06 11.2635 2.06128e-08 -3.88353e-13)
(1.18617e-14 -4.84178e-23 0 1489.22 6.48959e-07 5.93458e-06 11.4258 4.33528e-09 -4.93978e-12)
(-4.74469e-14 6.13076e-23 0 1489.22 3.48932e-07 5.9346e-06 11.4258 2.27755e-08 -3.4476e-13)
(0 8.70762e-21 0 1489.01 5.09822e-08 6.35947e-06 11.5901 1.97e-10 -6.62051e-12)
(0 6.20621e-23 0 1489.01 4.30464e-09 6.3595e-06 11.5901 2.43772e-08 -3.92671e-13)
(-2.72411e-14 -1.78002e-41 0 1488.73 -5.13056e-25 6.78853e-06 11.7561 1.65436e-24 -5.02742e-12)
(1.38281e-14 -3.21961e-23 0 1488.73 -1.00326e-06 6.78854e-06 11.7561 2.38849e-08 -3.63951e-13)
(1.30543e-14 9.36172e-23 5.07754e-23 1488.33 5.56308e-07 7.22743e-06 11.9231 8.44327e-09 -6.71584e-12)
(1.36299e-14 4.86595e-24 0 1488.33 -3.47187e-39 7.22746e-06 11.9231 1.75314e-08 -4.47868e-13)
(0 7.30739e-20 0 1487.73 7.4052e-22 7.70064e-06 12.0908 0 -5.14917e-12)
(-6.00382e-14 6.25596e-23 0 1487.73 4.44348e-07 7.70068e-06 12.0908 2.73301e-08 -3.74946e-13)
(1.58253e-14 -6.11776e-23 0 1486.88 -3.70601e-07 8.19401e-06 12.2584 9.49813e-09 -6.88622e-12)
(0 8.52523e-20 0 1486.88 1.05879e-22 8.19404e-06 12.2584 2.20479e-08 -4.31345e-13)
(-3.33055e-14 0 0 1485.69 -6.5985e-38 8.68509e-06 12.4251 1.65436e-24 -5.24928e-12)
(0 7.59739e-23 0 1485.69 -9.53287e-07 8.68511e-06 12.4251 2.32587e-08 -3.99405e-13)
(7.82062e-14 9.13598e-23 0 1484.09 8.70819e-07 9.19596e-06 12.5903 6.063e-09 -6.99311e-12)
(1.39936e-13 4.18575e-24 0 1484.09 4.96681e-22 9.19599e-06 12.5903 1.50808e-08 -4.96132e-13)
(0 1.53134e-20 -9.4479e-23 1482 -7.41872e-22 9.74779e-06 12.753 -3.30872e-24 -5.36459e-12)
(7.33721e-14 -7.08593e-23 0 1482 2.28421e-07 9.74783e-06 12.753 2.97039e-08 -4.28437e-13)
(4.42039e-14 -3.34668e-23 0 1479.32 -5.44736e-07 1.03172e-05 12.9123 8.87598e-09 -7.17678e-12)
(-2.4998e-14 2.47882e-24 0 1479.32 -1.05879e-22 1.03173e-05 12.9123 1.78618e-08 -4.86979e-13)
(-4.01606e-14 7.34684e-40 0 1475.97 0 1.08874e-05 13.0671 0 -5.47952e-12)
(-1.60642e-13 0 0 1475.97 -7.7678e-07 1.08874e-05 13.0671 2.40417e-08 -4.51987e-13)
(-2.09663e-14 -3.32211e-23 0 1471.86 7.2664e-07 1.14818e-05 13.2166 2.95967e-09 -7.29677e-12)
(-1.32438e-13 1.65334e-24 -9.04746e-23 1471.86 3.70356e-22 1.14818e-05 13.2166 1.19136e-08 -5.54596e-13)
(0 3.14871e-20 0 1466.9 -7.19672e-25 1.21208e-05 13.3594 3.30872e-24 -5.59226e-12)
(-8.74542e-14 8.63911e-23 0 1466.9 2.8199e-07 1.21208e-05 13.3594 2.96815e-08 -4.92574e-13)
(0 6.59248e-23 0 1461 -9.10764e-07 1.27755e-05 13.4945 6.34749e-09 -7.48771e-12)
(9.10872e-14 2.40741e-35 0 1461 -4.79268e-36 1.27756e-05 13.4945 1.52718e-08 -5.55575e-13)
(-2.36907e-14 -1.37908e-41 0 1454.06 -3.97493e-25 1.34342e-05 13.6206 1.65436e-24 -5.72309e-12)
(0 -1.6245e-23 0 1454.06 -4.00502e-07 1.34342e-05 13.6206 2.03658e-08 -5.12801e-13)
(2.12281e-14 -6.60501e-23 0 1446.01 7.82369e-07 1.41295e-05 13.7364 3.6035e-09 -7.6197e-12)
(-4.58478e-14 1.73453e-24 0 1446.01 0 1.41295e-05 13.7364 1.24986e-08 -6.26323e-13)
(1.96323e-14 5.85644e-21 0 1436.76 -1.86772e-24 1.48701e-05 13.8406 3.30872e-24 -5.82679e-12)
(-1.47424e-13 3.68262e-23 0 1436.76 -2.5002e-08 1.48701e-05 13.8406 2.68268e-08 -5.71949e-13)
(-1.80369e-14 3.30575e-23 0 1426.22 -8.74801e-07 1.56251e-05 13.932 4.27163e-09 -7.81384e-12)
(4.4543e-14 1.82348e-24 0 1426.22 4.23516e-22 1.56251e-05 13.932 1.31396e-08 -6.40622e-13)
(2.74621e-14 2.34456e-24 0 1414.31 -2.37935e-22 1.63875e-05 14.0091 0 -5.96323e-12)
(0 -4.98338e-23 0 1414.31 -4.07604e-07 1.63875e-05 14.0091 1.73029e-08 -5.98661e-13)
(-2.84257e-14 -3.30613e-23 0 1400.95 7.25396e-07 1.719e-05 14.0705 1.30623e-09 -7.94875e-12)
(0 1.40825e-24 0 1400.95 2.81048e-22 1.71901e-05 14.0705 1.01475e-08 -7.22058e-13)
(4.2655e-14 2.96484e-20 0 1386.09 3.70577e-22 1.80451e-05 14.1151 -1.65436e-24 -6.06986e-12)
(-4.2655e-14 7.44855e-23 0 1386.09 1.31831e-07 1.80452e-05 14.1151 2.35569e-08 -6.63255e-13)
(-3.03716e-14 -1.6519e-23 0 1369.66 -7.36798e-07 1.89242e-05 14.1412 3.65346e-09 -8.15433e-12)
(7.94429e-14 8.56542e-24 -3.1325e-22 1369.66 0 1.89242e-05 14.1412 1.24697e-08 -7.39593e-13)
(0 0 0 1351.59 0 1.98047e-05 14.1476 8.27181e-25 -6.20262e-12)
(1.25408e-13 -6.63352e-23 0 1351.59 -9.5552e-07 1.98047e-05 14.1476 1.48418e-08 -7.04466e-13)
(7.31828e-14 -4.99299e-23 0 1331.84 1.40529e-06 2.07326e-05 14.133 -5.21654e-09 -8.28991e-12)
(-1.7019e-13 0 0 1331.84 0 2.07326e-05 14.133 3.5755e-09 -8.33705e-13)
(3.33215e-14 5.54681e-24 0 1310.37 -4.24903e-22 2.17082e-05 14.0961 0 -6.2999e-12)
(0 -3.28095e-23 0 1310.37 -9.69012e-07 2.17083e-05 14.0961 2.87686e-08 -7.8715e-13)
(-3.4308e-14 1.61696e-23 0 1287.14 2.57733e-07 2.2708e-05 14.0356 -1.48048e-08 -8.48085e-12)
(0 0 0 1287.14 1.53282e-22 2.2708e-05 14.0356 8.27181e-25 -8.81006e-13)
(7.44096e-14 1.49178e-35 0 1262.12 -1.88079e-37 2.3725e-05 13.9503 0 -6.42013e-12)
(1.02059e-13 2.27684e-23 -2.91436e-22 1262.12 -1.24604e-06 2.3725e-05 13.9503 3.07863e-08 -8.52325e-13)
(0 1.79537e-23 2.87259e-22 1235.31 1.0626e-06 2.47775e-05 13.8392 -2.79037e-08 -8.59582e-12)
(1.83664e-13 5.87747e-39 0 1235.31 9.52912e-22 2.47775e-05 13.8392 -3.30872e-24 -1.01045e-12)
(-3.72566e-14 3.63624e-20 0 1206.69 6.35275e-22 2.59227e-05 13.7011 0 -6.52042e-12)
(0 -1.76963e-23 0 1206.69 1.24943e-06 2.59227e-05 13.7011 4.21684e-08 -9.42451e-13)
(-3.82304e-14 0 0 1176.27 -4.5101e-06 2.70314e-05 13.5349 -1.30097e-08 -8.8294e-12)
(0 -1.74427e-23 0 1176.27 -2.64682e-06 2.70314e-05 13.5349 -4.28047e-09 -1.03246e-12)
(3.69211e-14 2.14909e-23 0 1144.04 -5.20103e-07 2.8052e-05 13.3399 -1.99313e-08 -6.81804e-12)
(0 -3.43854e-23 0 1144.04 -4.72796e-07 2.8052e-05 13.3399 -2.77677e-09 -8.4428e-13)
(-7.65453e-14 1.69463e-23 -5.42282e-22 1110.06 1.09958e-05 2.93524e-05 13.1155 -2.05553e-08 -9.01182e-12)
(0 5.87747e-39 0 1110.06 -2.35177e-39 2.93523e-05 13.1155 0 -1.11276e-12)
(-3.58703e-14 1.53425e-23 0 1074.34 -1.68639e-21 3.06124e-05 12.8608 0 -6.57239e-12)
(-1.64395e-13 8.35171e-23 0 1074.34 -1.40604e-05 3.06124e-05 12.8608 1.19263e-07 -1.2942e-12)
(-7.73871e-14 9.87841e-23 -5.26848e-22 1036.93 4.2157e-06 3.16639e-05 12.5751 -1.9212e-07 -8.93092e-12)
(2.0348e-13 0 0 1036.93 7.59784e-21 3.16639e-05 12.5751 -9.93469e-35 -1.46964e-12)
(0 1.60633e-19 0 997.875 -2.29577e-23 3.30183e-05 12.2585 0 -6.72e-12)
(0 6.49122e-23 0 997.875 6.98369e-06 3.30184e-05 12.2585 1.74122e-07 -1.36363e-12)
(-4.38463e-14 -3.19909e-23 0 957.254 -1.36917e-05 3.42244e-05 11.9103 -1.0811e-07 -9.53018e-12)
(1.75385e-13 0 0 957.254 3.38813e-21 3.42245e-05 11.9103 0 -1.15842e-12)
(2.17357e-14 3.25178e-23 0 915.125 1.37521e-05 3.54449e-05 11.5305 -6.45121e-09 -7.12398e-12)
(2.46617e-13 -3.25178e-23 0 915.125 1.34792e-05 3.54449e-05 11.5305 2.23142e-09 -1.18669e-12)
(0 9.17211e-24 4.97287e-22 871.584 -1.69865e-21 3.6728e-05 11.1193 0 -9.30943e-12)
(0 -3.88506e-23 0 871.584 -1.15168e-05 3.6728e-05 11.1193 7.4764e-08 -1.68739e-12)
(-4.64156e-14 0 0 826.726 3.65321e-06 3.78072e-05 10.6769 -1.56445e-07 -6.9041e-12)
(0 -4.4081e-37 0 826.726 6.363e-21 3.78072e-05 10.6769 -2.64698e-23 -1.6538e-12)
(-2.9599e-14 0 0 780.664 -2.54915e-21 3.90276e-05 10.2038 0 -9.61687e-12)
(1.24043e-13 7.54898e-23 0 780.664 2.07024e-06 3.90276e-05 10.2038 1.24629e-07 -1.70793e-12)
(-4.8e-14 0 0 733.515 -2.1746e-06 4.02279e-05 9.70069 -1.30551e-07 -7.11637e-12)
(0 0 0 733.515 8.45743e-24 4.02279e-05 9.70069 0 -1.70596e-12)
(-4.8747e-14 2.47661e-20 0 685.4 1.70626e-21 4.13679e-05 9.16824 0 -9.61846e-12)
(1.94988e-13 -2.93365e-23 0 685.4 9.33665e-07 4.13679e-05 9.16824 9.64952e-08 -2.05999e-12)
(-4.9461e-14 -4.33741e-23 0 636.45 -9.74125e-06 4.22176e-05 8.60746 -1.18725e-07 -7.37986e-12)
(0 4.33741e-23 -9.25314e-22 636.45 -3.38049e-21 4.22176e-05 8.60746 0 -1.7339e-12)
(-1.0028e-13 -4.98779e-23 0 586.817 1.24125e-05 4.30795e-05 8.01986 -4.83626e-08 -9.99419e-12)
(-2.00559e-13 4.98779e-23 0 586.817 1.21069e-05 4.30795e-05 8.01986 -3.9707e-08 -2.07161e-12)
(-1.01563e-13 0 0 536.664 -3.83415e-24 4.41781e-05 7.40703 0 -7.24774e-12)
(4.06251e-13 -6.32095e-23 0 536.664 -1.87552e-06 4.41782e-05 7.40703 6.39175e-08 -2.18996e-12)
(-1.54151e-13 -8.30715e-23 0 486.141 -1.48679e-05 4.47144e-05 6.77019 -7.47821e-08 -1.05065e-11)
(-2.64999e-13 9.69167e-23 0 486.141 -1.51926e-05 4.47144e-05 6.77019 -6.6124e-08 -1.98479e-12)
(-1.10557e-13 1.09174e-22 0 435.413 1.75678e-05 4.52351e-05 6.11173 -1.63674e-07 -7.3368e-12)
(2.66392e-13 -1.92593e-34 0 435.413 3.36662e-21 4.52351e-05 6.11173 -3.59318e-34 -2.46295e-12)
(-5.30954e-15 5.1634e-23 0 384.673 -3.38813e-21 4.57094e-05 5.43386 0 -1.03579e-11)
(5.77725e-14 -2.69024e-23 0 384.673 -1.56806e-05 4.57094e-05 5.43386 1.94697e-07 -2.60808e-12)
(0 5.30337e-23 0 334.094 1.51417e-05 4.6076e-05 4.73877 -4.03383e-07 -7.53224e-12)
(2.11746e-13 0 0 334.094 8.47033e-21 4.6076e-05 4.73877 -5.29396e-23 -2.67805e-12)
(0 9.62965e-35 0 283.857 5.88942e-23 4.62577e-05 4.02911 5.29396e-23 -1.04324e-11)
(2.13455e-13 0 0 283.857 -1.76611e-05 4.62577e-05 4.02911 4.33055e-07 -3.0555e-12)
(-1.10648e-13 1.03049e-22 -1.64878e-21 234.15 9.16262e-06 4.6077e-05 3.30763 -4.40462e-07 -7.38532e-12)
(2.14974e-13 0 0 234.15 6.53861e-38 4.6077e-05 3.30763 1.05879e-22 -3.27923e-12)
(0 1.04696e-20 0 185.165 -1.00835e-20 4.60872e-05 2.57754 0 -1.07033e-11)
(0 0 0 185.165 -4.76038e-08 4.60872e-05 2.57754 4.81954e-07 -3.34502e-12)
(-1.08711e-13 7.01031e-23 0 137.087 -8.2507e-06 4.57466e-05 1.84154 -4.51568e-07 -7.66883e-12)
(0 0 0 137.087 -1.3649e-20 4.57467e-05 1.84154 -1.05879e-22 -3.48326e-12)
(-1.05958e-13 3.37309e-19 0 90.0944 8.40589e-21 4.53842e-05 1.10315 -5.29396e-23 -1.11748e-11)
(3.243e-13 -1.97362e-22 0 90.0944 9.62928e-06 4.53843e-05 1.10315 4.73074e-07 -3.459e-12)
(5.79691e-15 0 0 44.028 -9.95838e-06 4.49549e-05 0.365649 -4.63303e-07 -7.85748e-12)
(1.14619e-13 0 0 44.028 1.1782e-20 4.49549e-05 0.365649 1.27262e-37 -3.80285e-12)
(-5.34858e-14 1.30673e-19 0 0.00883136 -3.38813e-21 4.44188e-05 7.44104e-05 0 -1.13817e-11)
(0 0 0 0.00883196 7.57324e-06 4.44188e-05 7.44154e-05 3.18426e-07 -3.85229e-12)
(-4.6703e-14 0 0 -42.6053 -1.23142e-05 4.37032e-05 0.367874 -4.40395e-07 -7.83206e-12)
(0 8.22859e-19 -3.02395e-21 -42.6054 0 4.37032e-05 0.367874 0 -4.35104e-12)
(5.00064e-14 4.78534e-19 0 -83.5577 -2.9262e-23 4.30839e-05 1.09417 -1.32349e-23 -1.18187e-11)
(0 -4.65721e-23 0 -83.5577 1.4643e-05 4.3084e-05 1.09417 1.14222e-07 -4.02226e-12)
(4.92896e-14 2.29523e-23 0 -122.621 -1.52578e-05 4.24677e-05 1.80962 -1.89252e-07 -8.53206e-12)
(0 0 0 -122.621 3.41317e-21 4.24677e-05 1.80962 -2.64698e-23 -4.17362e-12)
(-1.10153e-14 2.26233e-23 2.89578e-21 -159.68 1.41343e-05 4.18572e-05 2.51102 -1.63996e-07 -1.23211e-11)
(0 5.18409e-19 0 -159.68 5.4166e-06 4.18571e-05 2.51102 -4.83516e-08 -4.08209e-12)
(-1.01661e-13 -2.58609e-37 0 -194.638 -1.88132e-21 4.12666e-05 3.1955 -8.91346e-39 -7.83937e-12)
(4.78869e-14 5.57477e-23 0 -194.638 -1.52273e-05 4.12666e-05 3.1955 6.99755e-08 -5.33925e-12)
(5.3414e-14 0 0 -227.404 1.10902e-05 4.06094e-05 3.86013 -4.418e-07 -1.23351e-11)
(-3.08057e-13 2.40312e-22 0 -227.404 1.20156e-22 4.06094e-05 3.86013 -5.29396e-23 -4.58285e-12)
(9.30481e-14 3.74737e-23 0 -257.903 -4.19769e-21 4.02819e-05 4.5021 0 -7.6481e-12)
(-2.1205e-13 -4.33289e-23 0 -257.903 -4.54533e-06 4.0282e-05 4.5021 2.78946e-07 -5.95974e-12)
(-5.25718e-14 2.00097e-24 0 -286.09 -3.56562e-06 3.97454e-05 5.11868 -5.19701e-07 -1.27732e-11)
(3.74717e-13 0 -2.7333e-21 -286.09 0 3.97454e-05 5.11868 -1.05879e-22 -4.58005e-12)
(5.2094e-14 2.8193e-19 0 -311.936 0 3.94068e-05 5.70799 2.64698e-23 -7.73602e-12)
(2.08376e-13 1.68383e-22 0 -311.936 6.13289e-06 3.94069e-05 5.70799 2.18894e-07 -6.23063e-12)
(0 0 0 -335.421 -2.08707e-06 3.93249e-05 6.26779 -4.22897e-07 -1.33525e-11)
(0 8.81621e-37 0 -335.421 6.35275e-21 3.93248e-05 6.26779 0 -4.39103e-12)
(-5.10364e-14 -5.87747e-39 -2.61745e-21 -356.557 2.41611e-23 3.91629e-05 6.79631 5.29396e-23 -7.28216e-12)
(2.04146e-13 -1.43142e-22 0 -356.557 -2.47477e-06 3.91629e-05 6.79631 1.83141e-07 -7.00764e-12)
(-5.04616e-14 0 0 -375.375 1.80619e-06 3.90671e-05 7.2924 -4.77231e-07 -1.36661e-11)
(-2.01846e-13 2.59878e-22 0 -375.375 6.49696e-23 3.90671e-05 7.2924 -5.29396e-23 -4.35343e-12)
(4.98592e-14 5.98613e-23 0 -391.912 -2.78279e-21 3.90378e-05 7.75503 2.64698e-23 -6.66104e-12)
(1.99437e-13 -3.97338e-23 0 -391.912 -2.23874e-06 3.90378e-05 7.75503 2.24784e-07 -7.83912e-12)
(-4.9232e-14 0 0 -406.221 -5.97407e-07 3.89676e-05 8.18333 -5.29479e-07 -1.40298e-11)
(1.96928e-13 -9.40395e-37 0 -406.221 7.06023e-21 3.89676e-05 8.18333 -5.00402e-38 -4.19836e-12)
(-4.85822e-14 3.46771e-37 0 -418.364 -2.51203e-21 3.92001e-05 8.57676 -2.64698e-23 -5.94619e-12)
(0 0 0 -418.364 6.14489e-06 3.92002e-05 8.57676 2.18647e-07 -8.717e-12)
(-4.79126e-14 0 0 -428.419 -6.52124e-06 3.94777e-05 8.93492 -4.06946e-07 -1.4888e-11)
(0 -7.52316e-37 0 -428.419 5.13739e-21 3.94777e-05 8.93492 1.42099e-37 -3.43619e-12)
(-4.72253e-14 4.63883e-20 0 -436.484 -1.02697e-23 3.96728e-05 9.25804 0 -4.76608e-12)
(1.88901e-13 -9.37609e-23 0 -436.484 3.28318e-06 3.96728e-05 9.25804 8.32507e-08 -9.96022e-12)
(1.25908e-13 7.39336e-23 0 -442.658 -6.17456e-06 3.97785e-05 9.54659 -3.3891e-07 -1.55424e-11)
(-7.93856e-14 0 0 -442.658 4.5745e-23 3.97784e-05 9.54659 -5.29396e-23 -2.84773e-12)
(7.82478e-14 2.88302e-19 0 -447.041 0 4.01454e-05 9.80106 -6.12524e-08 -3.79317e-12)
(0 -5.46555e-23 0 -447.041 1.12245e-05 4.01455e-05 9.80106 -5.19349e-08 -1.09857e-11)
(-6.5182e-15 3.25002e-20 0 -449.741 -5.56155e-06 4.06736e-05 10.022 -8.84139e-08 -1.66365e-11)
(-3.85632e-14 -7.18295e-23 0 -449.741 -8.69733e-06 4.06734e-05 10.022 -7.90638e-08 -1.69893e-12)
(7.60209e-14 1.77e-22 0 -450.88 -3.05897e-06 4.06929e-05 10.2105 -2.52256e-07 -1.50217e-12)
(3.54774e-13 -4.81482e-35 0 -450.88 -2.96462e-21 4.06932e-05 10.2105 -4.6002e-35 -1.32068e-11)
(-3.74657e-14 3.48926e-23 -2.23313e-21 -450.573 1.17518e-05 4.11072e-05 10.368 -1.60355e-07 -1.87289e-11)
(1.74422e-13 -3.48926e-23 0 -450.573 1.12083e-05 4.1107e-05 10.368 -1.50938e-07 4.88014e-13)
(-7.97882e-14 -2.70398e-40 -2.20112e-21 -448.928 -1.94842e-24 4.14855e-05 10.4952 -1.65436e-24 1.27748e-12)
(-1.71438e-13 1.33271e-22 0 -448.928 -1.24583e-05 4.14856e-05 10.4952 2.34911e-08 -1.5904e-11)
(-5.71133e-15 -6.77992e-23 2.16957e-21 -446.068 1.00644e-05 4.17531e-05 10.5938 -4.53863e-07 -2.03721e-11)
(-1.68443e-13 1.85012e-22 -4.33915e-21 -446.068 5.42278e-21 4.17529e-05 10.5938 0 2.33225e-12)
(-3.58777e-14 3.54324e-23 0 -442.108 -2.47023e-21 4.22837e-05 10.6654 0 5.00464e-12)
(0 3.34137e-23 -4.27696e-21 -442.108 -4.32078e-06 4.2284e-05 10.6654 2.64831e-07 -1.94465e-11)
(0 0 0 -437.163 -4.79254e-06 4.23526e-05 10.7113 -5.65736e-07 -2.35206e-11)
(1.62445e-13 2.45288e-19 -4.21566e-21 -437.163 5.77485e-21 4.23524e-05 10.7113 0 5.68139e-12)
(-6.47066e-14 8.36708e-20 -4.15524e-21 -431.341 -1.69407e-21 4.2524e-05 10.7335 0 9.1389e-12)
(3.48566e-14 1.78545e-22 0 -431.342 7.41231e-06 4.25244e-05 10.7335 1.50507e-07 -2.34209e-11)
(3.43571e-14 2.5598e-22 0 -424.744 -1.03683e-06 4.29847e-05 10.7333 -3.86788e-07 -2.79685e-11)
(2.78591e-13 0 0 -424.744 -8.04681e-21 4.29843e-05 10.7333 5.29396e-23 1.04382e-11)
(0 0 0 -417.473 0 4.31039e-05 10.7124 0 1.54555e-11)
(3.07025e-13 -6.30778e-23 0 -417.473 -4.99398e-06 4.31044e-05 10.7124 1.22923e-07 -2.94594e-11)
(-7.52862e-14 0 0 -409.625 7.30832e-06 4.3304e-05 10.6725 -5.19847e-07 -3.35843e-11)
(0 0 0 -409.625 1.10114e-20 4.33034e-05 10.6725 0 1.63732e-11)
(-3.69144e-14 9.09661e-37 0 -401.289 -3.30387e-21 4.34899e-05 10.6153 5.29396e-23 2.37687e-11)
(2.95315e-13 -6.12826e-23 0 -401.289 -6.58559e-06 4.34905e-05 10.6153 3.1325e-07 -3.75138e-11)
(3.6193e-14 -2.56291e-24 0 -392.551 4.57912e-06 4.35202e-05 10.5424 -6.85749e-07 -4.14621e-11)
(0 3.94318e-36 0 -392.551 1.42068e-20 4.35195e-05 10.5424 -1.09445e-51 2.46628e-11)
(-3.54796e-14 -4.70198e-38 0 -383.487 1.19294e-22 4.37004e-05 10.4555 5.29396e-23 3.47868e-11)
(0 -5.95385e-23 0 -383.487 -6.53375e-07 4.37012e-05 10.4555 4.39506e-07 -4.81762e-11)
(-6.62812e-14 6.47354e-24 0 -374.169 -2.93737e-06 4.36199e-05 10.3558 -6.90283e-07 -5.2626e-11)
(1.70606e-13 -1.97483e-36 0 -374.169 -6.97811e-21 4.3619e-05 10.3558 0 3.62151e-11)
(-6.51342e-14 6.96357e-20 0 -364.665 3.25945e-22 4.34964e-05 10.245 0 4.89726e-11)
(1.36317e-13 0 -7.40404e-21 -364.665 3.52252e-06 4.34975e-05 10.245 3.61269e-07 -6.20562e-11)
(-6.67871e-14 0 0 -355.03 3.36057e-06 4.36861e-05 10.1244 -6.53221e-07 -6.7977e-11)
(0 0 0 -355.03 -1.78604e-22 4.36848e-05 10.1244 -1.05879e-22 5.20454e-11)
(-3.2718e-14 0 0 -345.319 0 4.34169e-05 9.99507 5.29396e-23 6.86397e-11)
(0 1.12396e-22 -7.19333e-21 -345.319 -9.83788e-06 4.34183e-05 9.99507 4.55526e-07 -8.13097e-11)
(2.97386e-14 0 3.54511e-21 -335.586 1.38017e-05 4.32926e-05 9.85857 -6.80269e-07 -8.84563e-11)
(-1.28211e-13 5.24915e-22 0 -335.586 0 4.3291e-05 9.85857 0 7.29919e-11)
(3.13984e-14 2.36522e-22 0 -325.87 -8.47033e-21 4.3045e-05 9.71596 0 9.49158e-11)
(1.25594e-13 0 0 -325.87 -1.39378e-05 4.30468e-05 9.71596 8.61918e-07 -1.07213e-10)
(8.85394e-14 -1.0271e-22 0 -316.208 1.51261e-05 4.2772e-05 9.56818 -6.60568e-07 -1.16561e-10)
(-1.80805e-13 7.72116e-22 0 -316.208 1.14724e-20 4.27699e-05 9.56818 0 1.01639e-10)
(-5.86008e-14 0 0 -306.635 -3.33572e-36 4.25622e-05 9.41625 -5.07983e-38 1.30228e-10)
(1.20491e-13 6.85449e-23 -6.78971e-21 -306.635 -1.1873e-05 4.25646e-05 9.41625 1.20507e-06 -1.42066e-10)
(0 0 0 -297.181 1.14369e-05 4.22121e-05 9.2611 -6.26153e-07 -1.55274e-10)
(0 -4.70198e-36 0 -297.181 1.76825e-20 4.22094e-05 9.2611 2.11758e-22 1.40857e-10)
(-2.76676e-14 0 -6.59648e-21 -287.869 -1.17888e-34 4.17114e-05 9.10356 2.11758e-22 1.77518e-10)
(1.15567e-13 2.07551e-22 0 -287.869 -1.12936e-05 4.17144e-05 9.10356 1.32743e-06 -1.88961e-10)
(2.82933e-14 -2.30138e-22 0 -278.722 1.26674e-05 4.11523e-05 8.94432 -5.71789e-07 -2.07544e-10)
(0 0 0 -278.722 2.03288e-20 4.11487e-05 8.94432 0 1.93702e-10)
(0 5.88149e-22 0 -269.755 -1.86347e-20 4.08124e-05 8.78413 0 2.4158e-10)
(-1.10824e-13 -3.60661e-22 0 -269.755 -6.3439e-06 4.08165e-05 8.78413 1.47904e-06 -2.52534e-10)
(-2.6495e-14 3.94806e-22 -6.31689e-21 -260.981 5.37098e-06 4.02386e-05 8.62342 -4.90561e-07 -2.79276e-10)
(0 5.62556e-36 0 -260.981 2.048e-20 4.02339e-05 8.62342 -4.23516e-22 2.65979e-10)
(0 0 0 -252.413 0 3.96573e-05 8.46279 4.23516e-22 3.27732e-10)
(0 0 0 -252.413 -2.15417e-06 3.96627e-05 8.46279 1.6686e-06 -3.38253e-10)
(2.60111e-14 -3.20743e-22 0 -244.061 4.51923e-06 3.90193e-05 8.30277 -3.73175e-07 -3.76818e-10)
(0 -1.20841e-35 0 -244.061 4.33215e-20 3.90131e-05 8.30277 5.15133e-38 3.64125e-10)
(2.54681e-14 3.45623e-22 0 -235.928 6.91247e-22 3.81737e-05 8.14372 0 4.44214e-10)
(0 0 0 -235.928 -3.57322e-06 3.81808e-05 8.14372 1.90737e-06 -4.54226e-10)
(-4.98717e-14 7.5253e-22 0 -228.018 1.19601e-05 3.76698e-05 7.9859 -2.07405e-07 -5.0973e-10)
(9.97433e-14 0 0 -228.018 4.73546e-20 3.76615e-05 7.9859 -4.23516e-22 4.97587e-10)
(-2.44142e-14 0 0 -220.332 0 3.66248e-05 7.82959 4.23516e-22 6.03565e-10)
(0 0 0 -220.332 -1.51791e-05 3.66342e-05 7.82959 2.21029e-06 -6.13114e-10)
(0 0 0 -212.87 3.04932e-20 3.60009e-05 7.67504 4.23516e-22 -6.91578e-10)
(0 0 0 -212.87 1.50813e-06 3.599e-05 7.67504 -2.69193e-08 6.80016e-10)
(-2.39484e-14 3.63312e-48 0 -205.628 2.13979e-21 3.50554e-05 7.52227 0 8.19538e-10)
(0 0 0 -205.628 -2.4021e-05 3.50678e-05 7.52227 2.59739e-06 -8.28597e-10)
(-2.36051e-14 4.70198e-37 -5.6279e-21 -198.606 1.28977e-21 3.4032e-05 7.37151 -8.47033e-22 -9.38614e-10)
(0 0 0 -198.606 1.87625e-05 3.40177e-05 7.37151 -3.4471e-07 9.27644e-10)
(0 6.81887e-22 0 -191.797 -1.36377e-21 3.3043e-05 7.22281 8.47033e-22 1.11096e-09)
(1.7945e-13 2.02996e-21 -1.10945e-20 -191.797 -2.04205e-05 3.30594e-05 7.22281 3.0945e-06 -1.11958e-09)
(-4.39212e-14 -1.88079e-37 0 -185.195 0 3.22627e-05 7.07607 0 -1.27495e-09)
(8.78424e-14 -2.69856e-21 0 -185.195 2.20987e-05 3.22437e-05 7.07607 -7.78009e-07 1.2646e-09)
(4.41044e-14 8.40355e-22 0 -178.798 0 3.09221e-05 6.93141 0 1.5082e-09)
(0 0 0 -178.798 -2.79934e-05 3.09438e-05 6.93141 3.7356e-06 -1.5163e-09)
(0 -1.48755e-33 0 -172.598 5.20833e-20 2.98323e-05 6.78883 0 -1.73346e-09)
(-1.06474e-13 3.14016e-21 0 -172.598 2.9897e-05 2.98072e-05 6.78883 -1.36522e-06 1.72367e-09)
(-2.06066e-14 -6.20661e-36 0 -166.59 -1.09992e-20 2.85567e-05 6.64825 8.47033e-22 2.04802e-09)
(6.04651e-14 1.69334e-21 0 -166.59 -3.04554e-05 2.85855e-05 6.64825 4.56606e-06 -2.05569e-09)
(0 -1.19797e-21 0 -160.769 5.42101e-20 2.76118e-05 6.50968 0 -2.359e-09)
(0 0 0 -160.769 3.27129e-05 2.75785e-05 6.50968 -2.15735e-06 2.3498e-09)
(0 9.62965e-35 5.08697e-21 -155.13 -2.61167e-21 2.6059e-05 6.37311 1.69407e-21 2.78449e-09)
(0 0 0 -155.13 -3.80965e-05 2.60972e-05 6.37311 5.64585e-06 -2.79164e-09)
(-1.93367e-14 4.06251e-35 0 -149.668 1.46885e-19 2.49661e-05 6.23855 -1.69407e-21 -3.21364e-09)
(0 0 0 -149.668 4.13057e-05 2.4922e-05 6.23855 -3.22245e-06 3.20499e-09)
(3.59544e-15 -3.38542e-36 1.48266e-20 -144.379 -6.51593e-21 2.32601e-05 6.10602 1.69407e-21 3.78914e-09)
(1.30722e-13 5.20932e-21 0 -144.379 -4.59669e-05 2.33107e-05 6.10602 7.05483e-06 -3.79585e-09)
(0 -1.84242e-21 0 -139.255 8.86848e-20 2.21396e-05 5.97542 0 -4.38169e-09)
(0 0 0 -139.255 4.97829e-05 2.2081e-05 5.97542 -4.65121e-06 4.37362e-09)
(-4.02783e-14 4.79129e-35 0 -134.292 -8.67357e-20 2.03776e-05 5.84671 1.69407e-21 5.16159e-09)
(0 0 0 -134.292 -5.39319e-05 2.0445e-05 5.84671 8.89902e-06 -5.16779e-09)
(-3.34527e-14 6.31946e-35 0 -129.482 1.13631e-19 1.93578e-05 5.71983 3.38813e-21 -5.98012e-09)
(1.42142e-13 -1.09664e-20 0 -129.482 5.83911e-05 1.92799e-05 5.71983 -6.56452e-06 5.97258e-09)
(0 1.92593e-34 0 -124.82 0 1.74189e-05 5.59463 0 7.03922e-09)
(1.39175e-13 5.33876e-21 0 -124.82 -6.46629e-05 1.75085e-05 5.59463 1.13196e-05 -7.04497e-09)
(-1.70344e-14 7.52316e-37 0 -120.301 1.26003e-19 1.6361e-05 5.47107 3.38813e-21 -8.16989e-09)
(0 0 -9.19607e-21 -120.301 6.93031e-05 1.62572e-05 5.47107 -9.12389e-06 8.16291e-09)
(3.56894e-14 3.14254e-21 0 -115.917 -1.35525e-20 1.41571e-05 5.34902 0 9.61151e-09)
(1.14432e-13 4.51365e-21 0 -115.917 -7.66217e-05 1.42766e-05 5.34902 1.4505e-05 -9.61676e-09)
(0 0 0 -111.662 -1.40635e-20 1.33576e-05 5.22835 -3.38813e-21 -1.11742e-08)
(6.53367e-14 -7.09477e-21 0 -111.662 8.51792e-05 1.32192e-05 5.22835 -1.25454e-05 1.11677e-08)
(1.59962e-14 7.84548e-21 7.96885e-20 -107.532 -1.46939e-19 6.46381e-06 5.10896 0 1.31405e-08)
(0 0 0 -107.532 -9.55737e-05 1.1118e-05 5.10896 1.87071e-05 -1.31453e-08)
(3.13327e-14 -1.75775e-20 0 -103.522 5.24524e-19 1.01961e-05 4.99075 0 -1.53001e-08)
(4.44619e-14 -8.07041e-21 0 -103.522 0.000104246 1.00114e-05 4.99075 -1.71184e-05 1.52941e-08)
(0 3.85186e-34 8.84061e-20 -99.6259 1.9651e-20 -1.68408e-21 4.87364 0 3.30872e-24)
(0 0 -1.21959e-19 -99.6259 -0.000113644 2.97412e-06 4.87364 2.42628e-05 -1.79919e-08)
(1.76854e-14 -5.48884e-21 0 -95.8411 1.94885e-19 7.10629e-06 4.75756 0 -2.0974e-08)
(4.24362e-14 -9.05542e-21 0 -95.8411 0.000122141 6.85926e-06 4.75756 -2.32306e-05 2.09685e-08)
(2.94485e-14 2.45312e-20 9.37111e-20 -92.1635 -5.14996e-19 0 4.64246 0 0)
(0 0 0 -92.1635 -0.000134392 3.96161e-06 4.64246 3.16234e-05 -2.46604e-08)
(1.44259e-14 -1.36969e-20 8.19305e-21 -88.59 2.16552e-19 3.82062e-06 4.5283 0 -2.87896e-08)
(5.77034e-14 -9.95737e-21 0 -88.59 0.000145522 3.48974e-06 4.5283 -3.14029e-05 2.87845e-08)
(0 1.53115e-20 5.68799e-21 -85.1173 -5.96311e-19 4.23516e-22 4.41504 -6.77626e-21 0)
(5.65409e-14 7.64802e-21 0 -85.1173 -0.000159771 9.075e-07 4.41504 4.13955e-05 -3.385e-08)
(-1.38523e-14 0 0 -81.7427 0 4.98817e-07 4.30265 0 -3.95714e-08)
(-5.5409e-14 1.06776e-20 0 -81.7427 0.000173416 5.48969e-08 4.30265 -4.23363e-05 3.95666e-08)
(-4.64846e-14 -2.19676e-34 -2.48323e-37 -78.4642 -4.00934e-19 -4.49347e-22 4.19114 -2.65335e-36 -1.79234e-39)
(0 0 0 -78.4642 -0.000190628 -2.77009e-06 4.19114 5.43952e-05 -4.65347e-08)
(-1.33091e-14 0 0 -75.2805 3.79471e-19 -2.91229e-06 4.08053 -3.88386e-50 -5.44695e-08)
(-5.32365e-14 1.10598e-20 0 -75.2805 0.000206595 -3.50891e-06 4.08053 -5.6975e-05 5.44651e-08)
(0 0 1.20371e-35 -72.1916 -5.42101e-20 -8.47033e-22 3.9709 1.35525e-20 0)
(0 0 0 -72.1916 -0.000225996 -6.55099e-06 3.9709 7.17222e-05 -6.40737e-08)
(3.15129e-14 -1.33316e-20 0 -69.1986 0 -6.43917e-06 3.86242 0 -7.50906e-08)
(7.08539e-14 -2.16082e-20 0 -69.1986 0.0002432 -7.24246e-06 3.86242 -7.65941e-05 7.50863e-08)
(-1.25501e-14 6.01853e-36 2.93874e-39 -66.3042 -5.42101e-20 -1.69407e-21 3.75531 4.13848e-36 3.40374e-39)
(5.02005e-14 6.98636e-21 0 -66.3042 -0.000263701 -1.04705e-05 3.75531 9.48624e-05 -8.83683e-08)
(-3.0616e-14 -1.66277e-20 -7.29943e-21 -63.5126 6.50521e-19 -9.80108e-06 3.64992 0 -1.03686e-07)
(-4.9246e-14 -1.98217e-20 0 -63.5126 0.000283672 -1.08848e-05 3.64992 -0.000102918 1.03682e-07)
(-1.50886e-14 6.74075e-34 6.11257e-37 -60.829 -1.21923e-18 -1.11117e-21 3.54667 -1.54796e-35 -1.41076e-38)
(0 2.87792e-20 0 -60.829 -0.000309955 -1.46229e-05 3.54667 0.000125826 -1.22087e-07)
(-3.27625e-14 -5.41668e-34 -1.41834e-20 -58.2591 1.91389e-19 -1.31728e-05 3.44606 0 -1.43417e-07)
(7.7163e-14 -3.45681e-20 0 -58.2591 0.000336251 -1.46377e-05 3.44606 -0.000138285 1.43413e-07)
(1.46592e-14 1.78756e-33 2.40741e-35 -55.8078 -9.2843e-20 -9.3799e-23 3.34862 2.71051e-20 2.64698e-23)
(0 0 0 -55.8078 -0.000367636 -1.87385e-05 3.34862 0.000167257 -1.68975e-07)
(1.44491e-14 -5.18374e-20 1.37797e-20 -53.4793 9.75782e-19 -1.66142e-05 3.25483 0 -1.98725e-07)
(0 0 0 -53.4793 0.000396387 -1.85983e-05 3.25483 -0.000185869 1.98721e-07)
(-2.24315e-14 -6.01853e-35 -7.05297e-38 -51.2753 -1.16033e-19 -1.30066e-22 3.16512 2.71051e-20 2.64698e-23)
(0 0 0 -51.2753 -0.000429817 -2.29965e-05 3.16512 0.000209032 -2.34307e-07)
(3.024e-15 -3.23949e-20 6.69378e-21 -49.1952 1.17146e-18 -1.96312e-05 3.07977 0 -2.75878e-07)
(0 0 0 -49.1952 0.000463152 -2.23243e-05 3.07977 -0.000233424 2.75873e-07)