/*--------------------------------*- C++ -*----------------------------------*\
| =========                 |                                                 |
| \\      /  F ield         | OpenFOAM: The Open Source CFD Toolbox           |
|  \\    /   O peration     | Version:  2012                                  |
|   \\  /    A nd           | Website:  www.openfoam.com                      |
|    \\/     M anipulation  |                                                 |
\*---------------------------------------------------------------------------*/
FoamFile
{
    version     2.0;
    format      ascii;
    class       volScalarField;
    location    "16600";
    object      omega;
}
// * * * * * * * * * * * * * * * * * * * * * * * * * * * * * * * * * * * * * //

dimensions      [0 0 -1 0 0 0 0];


internalField   nonuniform List<scalar> 
2560
(
1.52417e+06
1.52417e+06
264341
264341
87916.1
87916.1
41498.4
41498.4
25409
25409
18396.6
18396.6
14659.9
14659.9
12367.1
12367.1
10820.1
10820.1
9704.97
9704.97
8861.67
8861.67
8200.49
8200.49
7667.27
7667.27
7227.45
7227.45
6857.85
6857.85
6542.41
6542.41
6269.57
6269.57
6030.85
6030.85
5819.83
5819.83
5631.58
5631.58
5462.26
5462.26
5308.78
5308.78
5168.69
5168.69
5039.95
5039.95
4920.91
4920.91
4810.16
4810.16
4706.55
4706.55
4609.07
4609.07
4516.87
4516.87
4429.22
4429.22
4345.47
4345.47
4265.07
4265.07
4187.54
4187.54
4112.44
4112.44
4039.39
4039.39
3968.06
3968.06
3898.16
3898.16
3829.43
3829.43
3761.63
3761.63
3694.57
3694.57
3628.06
3628.06
3561.97
3561.97
3496.16
3496.16
3430.52
3430.52
3364.98
3364.98
3299.46
3299.46
3233.92
3233.92
3168.33
3168.33
3102.68
3102.68
3036.97
3036.97
2971.23
2971.23
2905.49
2905.49
2839.82
2839.82
2774.27
2774.27
2708.93
2708.93
2643.9
2643.9
2579.29
2579.29
2515.2
2515.2
2451.77
2451.77
2389.13
2389.13
2327.43
2327.43
2266.79
2266.79
2207.38
2207.38
2149.33
2149.33
2092.79
2092.79
2037.88
2037.88
1984.74
1984.74
1933.48
1933.48
1884.2
1884.2
1836.98
1836.98
1791.88
1791.88
1748.96
1748.96
1708.23
1708.23
1669.7
1669.7
1633.34
1633.34
1599.11
1599.11
1566.95
1566.95
1536.78
1536.78
1508.5
1508.5
1482.01
1482.01
1457.17
1457.17
1433.86
1433.86
1411.96
1411.96
1391.31
1391.31
1371.79
1371.79
1353.26
1353.26
1335.6
1335.6
1318.68
1318.68
1302.37
1302.37
1286.59
1286.59
1271.21
1271.21
1256.16
1256.16
1241.36
1241.36
1226.72
1226.72
1212.2
1212.2
1197.72
1197.72
1183.26
1183.26
1168.76
1168.76
1154.2
1154.2
1139.55
1139.55
1124.81
1124.81
1109.94
1109.94
1094.95
1094.95
1079.83
1079.83
1064.59
1064.59
1049.23
1049.23
1033.74
1033.74
1018.15
1018.15
1002.47
1002.47
986.694
986.694
970.851
970.851
954.95
954.95
939.006
939.006
923.035
923.035
907.052
907.052
891.071
891.071
875.108
875.108
859.177
859.177
843.292
843.292
827.467
827.467
811.715
811.715
796.048
796.048
780.478
780.478
765.015
765.015
749.67
749.67
734.453
734.453
719.372
719.372
704.435
704.435
689.651
689.651
675.024
675.024
660.563
660.563
646.272
646.272
632.157
632.157
618.221
618.221
604.47
604.47
590.906
590.906
577.533
577.533
564.354
564.354
551.37
551.37
538.584
538.584
525.998
525.998
513.612
513.612
501.427
501.427
489.446
489.446
477.667
477.667
466.091
466.091
454.718
454.718
443.549
443.549
432.583
432.583
421.819
421.819
411.257
411.257
400.897
400.897
390.737
390.737
380.778
380.778
371.018
371.018
361.455
361.455
352.09
352.09
342.921
342.921
333.946
333.946
325.165
325.165
316.576
316.576
308.176
308.176
299.966
299.966
291.941
291.941
284.101
284.101
276.443
276.443
268.964
268.964
261.661
261.661
254.533
254.533
247.574
247.574
240.784
240.784
234.157
234.157
227.693
227.693
221.387
221.387
215.237
215.237
209.24
209.24
203.394
203.394
197.695
197.695
192.142
192.142
186.733
186.733
181.463
181.463
176.333
176.333
171.337
171.337
166.476
166.476
161.745
161.745
157.143
157.143
152.666
152.666
148.313
148.313
144.081
144.081
139.967
139.967
135.969
135.969
132.085
132.085
128.313
128.313
124.651
124.651
121.096
121.096
117.647
117.647
114.302
114.302
111.059
111.059
107.917
107.917
104.873
104.873
101.926
101.926
99.0751
99.0751
96.3172
96.3172
93.6508
93.6508
91.0738
91.0738
88.5842
88.5842
86.1795
86.1795
83.8575
83.8575
81.6159
81.6159
79.4522
79.4521
77.3641
77.3641
75.3496
75.3496
73.4062
73.4062
71.5317
71.5317
69.7239
69.7238
67.98
67.98
66.2977
66.2977
64.6742
64.6742
63.1066
63.1066
61.592
61.592
60.1274
60.1274
58.7098
58.7098
57.3364
57.3364
56.0048
56.0048
54.7129
54.7129
53.4589
53.4588
52.2411
52.2411
51.0581
51.0581
49.9083
49.9083
48.7897
48.7897
47.7004
47.7004
46.6383
46.6383
45.6014
45.6014
44.588
44.588
43.5966
43.5966
42.6261
42.6261
41.6755
41.6755
40.7442
40.7442
39.8317
39.8317
38.9381
38.9381
38.0636
38.0636
37.2085
37.2085
36.3725
36.3725
35.5551
35.5551
34.7554
34.7554
33.9717
33.9717
33.2022
33.2022
32.4444
32.4444
31.6959
31.6959
30.9543
30.9543
30.2183
30.2183
29.4876
29.4876
28.763
28.763
28.0462
28.0462
27.34
27.34
26.6473
26.6473
25.9697
25.9697
25.3075
25.3075
24.6602
24.6602
24.0272
24.0272
23.4084
23.4084
22.8044
22.8044
22.2165
22.2165
21.6464
21.6464
21.0956
21.0956
20.5655
20.5655
20.0571
20.0571
19.5708
19.5708
19.1068
19.1068
18.665
18.665
18.2451
18.2451
17.8466
17.8466
17.4685
17.4685
17.1096
17.1096
16.7681
16.7681
16.442
16.442
16.129
16.129
15.8265
15.8265
15.5318
15.5318
15.2424
15.2424
14.9564
14.9563
14.6719
14.6718
14.387
14.387
14.0998
14.0998
13.8083
13.8083
13.5117
13.5117
13.2106
13.2106
12.907
12.907
12.6034
12.6034
12.3034
12.3034
12.0112
12.0112
11.7306
11.7306
11.464
11.464
11.2122
11.2122
10.9752
10.9752
10.753
10.753
10.5455
10.5455
10.3529
10.3529
10.1752
10.1752
10.0121
10.0121
9.86311
9.8631
9.72689
9.72688
9.60179
9.60179
9.48603
9.48603
9.37758
9.37758
9.27359
9.27359
9.17047
9.17047
9.06504
9.06504
8.95581
8.95581
8.84359
8.84358
8.73096
8.73096
8.62086
8.62085
8.51558
8.51557
8.41716
8.41716
8.32804
8.32803
8.25066
8.25066
8.18675
8.18675
8.13718
8.13718
8.10271
8.10271
8.08465
8.08466
1.52417e+06
1.52417e+06
264341
264341
87916.1
87916.1
41498.4
41498.4
25409
25409
18396.6
18396.6
14659.9
14659.9
12367.1
12367.1
10820.1
10820.1
9704.97
9704.97
8861.67
8861.67
8200.49
8200.49
7667.27
7667.27
7227.45
7227.45
6857.85
6857.85
6542.41
6542.41
6269.57
6269.57
6030.85
6030.85
5819.83
5819.83
5631.58
5631.58
5462.26
5462.26
5308.78
5308.78
5168.69
5168.69
5039.95
5039.95
4920.91
4920.91
4810.16
4810.16
4706.55
4706.55
4609.07
4609.07
4516.87
4516.87
4429.22
4429.22
4345.47
4345.47
4265.07
4265.07
4187.54
4187.54
4112.44
4112.44
4039.39
4039.39
3968.06
3968.06
3898.16
3898.16
3829.43
3829.43
3761.63
3761.63
3694.57
3694.57
3628.06
3628.06
3561.97
3561.97
3496.16
3496.16
3430.53
3430.53
3364.98
3364.98
3299.46
3299.46
3233.92
3233.92
3168.33
3168.33
3102.68
3102.68
3036.97
3036.97
2971.23
2971.23
2905.49
2905.49
2839.82
2839.82
2774.27
2774.27
2708.93
2708.93
2643.9
2643.9
2579.29
2579.29
2515.2
2515.2
2451.77
2451.77
2389.13
2389.13
2327.43
2327.43
2266.79
2266.79
2207.38
2207.38
2149.33
2149.33
2092.79
2092.79
2037.88
2037.88
1984.74
1984.74
1933.48
1933.48
1884.2
1884.2
1836.98
1836.98
1791.88
1791.88
1748.96
1748.96
1708.23
1708.23
1669.7
1669.7
1633.34
1633.34
1599.11
1599.11
1566.95
1566.95
1536.78
1536.78
1508.5
1508.5
1482.01
1482.01
1457.17
1457.17
1433.86
1433.86
1411.96
1411.96
1391.31
1391.31
1371.79
1371.79
1353.26
1353.26
1335.6
1335.6
1318.68
1318.68
1302.37
1302.37
1286.59
1286.59
1271.21
1271.21
1256.16
1256.16
1241.36
1241.36
1226.72
1226.72
1212.2
1212.2
1197.72
1197.72
1183.26
1183.26
1168.76
1168.76
1154.2
1154.2
1139.55
1139.55
1124.81
1124.81
1109.94
1109.94
1094.95
1094.95
1079.83
1079.83
1064.59
1064.59
1049.23
1049.23
1033.74
1033.74
1018.15
1018.15
1002.47
1002.47
986.694
986.694
970.851
970.851
954.95
954.95
939.006
939.006
923.035
923.035
907.052
907.052
891.071
891.071
875.108
875.108
859.177
859.177
843.292
843.292
827.467
827.467
811.715
811.715
796.048
796.048
780.478
780.478
765.015
765.015
749.67
749.67
734.453
734.453
719.372
719.372
704.435
704.435
689.651
689.651
675.024
675.024
660.563
660.563
646.272
646.272
632.157
632.157
618.221
618.221
604.47
604.47
590.906
590.906
577.533
577.533
564.354
564.354
551.37
551.37
538.584
538.584
525.998
525.998
513.612
513.612
501.427
501.427
489.446
489.446
477.667
477.667
466.091
466.091
454.718
454.718
443.549
443.549
432.583
432.583
421.819
421.819
411.257
411.257
400.897
400.897
390.737
390.737
380.778
380.778
371.018
371.018
361.455
361.455
352.09
352.09
342.921
342.921
333.946
333.946
325.165
325.165
316.576
316.576
308.176
308.176
299.966
299.966
291.941
291.941
284.101
284.101
276.443
276.443
268.964
268.964
261.661
261.661
254.533
254.533
247.574
247.574
240.784
240.784
234.157
234.157
227.693
227.693
221.387
221.387
215.237
215.237
209.24
209.24
203.394
203.394
197.695
197.695
192.142
192.142
186.733
186.733
181.463
181.463
176.333
176.333
171.337
171.337
166.476
166.476
161.745
161.745
157.143
157.143
152.666
152.666
148.313
148.313
144.081
144.081
139.967
139.967
135.969
135.969
132.085
132.085
128.313
128.313
124.651
124.651
121.096
121.096
117.647
117.647
114.302
114.302
111.059
111.059
107.917
107.917
104.873
104.873
101.926
101.926
99.0751
99.0751
96.3172
96.3172
93.6508
93.6508
91.0738
91.0738
88.5842
88.5842
86.1795
86.1795
83.8575
83.8575
81.6159
81.6159
79.4522
79.4522
77.3641
77.3641
75.3496
75.3496
73.4062
73.4062
71.5318
71.5318
69.7239
69.7239
67.98
67.9801
66.2977
66.2977
64.6742
64.6742
63.1066
63.1066
61.592
61.592
60.1274
60.1274
58.7098
58.7098
57.3364
57.3365
56.0049
56.0049
54.7129
54.7129
53.4589
53.4589
52.2411
52.2411
51.0581
51.0581
49.9083
49.9083
48.7897
48.7897
47.7004
47.7005
46.6383
46.6383
45.6014
45.6014
44.588
44.588
43.5966
43.5967
42.6262
42.6262
41.6756
41.6756
40.7442
40.7442
39.8317
39.8317
38.9381
38.9381
38.0637
38.0637
37.2085
37.2085
36.3725
36.3725
35.5552
35.5552
34.7554
34.7554
33.9718
33.9718
33.2022
33.2022
32.4444
32.4444
31.6959
31.6959
30.9543
30.9543
30.2183
30.2183
29.4876
29.4876
28.763
28.763
28.0462
28.0462
27.34
27.34
26.6473
26.6473
25.9697
25.9697
25.3075
25.3075
24.6602
24.6602
24.0272
24.0272
23.4084
23.4084
22.8044
22.8044
22.2165
22.2165
21.6464
21.6464
21.0956
21.0956
20.5655
20.5655
20.0571
20.0571
19.5708
19.5708
19.1068
19.1068
18.665
18.665
18.2451
18.2451
17.8466
17.8466
17.4685
17.4685
17.1096
17.1096
16.7681
16.7681
16.442
16.442
16.129
16.129
15.8265
15.8265
15.5318
15.5318
15.2424
15.2424
14.9563
14.9564
14.6718
14.6719
14.387
14.387
14.0998
14.0998
13.8083
13.8083
13.5117
13.5117
13.2106
13.2106
12.907
12.907
12.6034
12.6034
12.3034
12.3034
12.0112
12.0112
11.7306
11.7306
11.464
11.464
11.2122
11.2122
10.9752
10.9752
10.753
10.753
10.5455
10.5455
10.3529
10.3529
10.1752
10.1752
10.0121
10.0121
9.8631
9.86311
9.72688
9.72689
9.60179
9.60179
9.48603
9.48603
9.37758
9.37758
9.27359
9.27359
9.17047
9.17047
9.06504
9.06504
8.95581
8.95581
8.84358
8.84359
8.73096
8.73096
8.62085
8.62086
8.51557
8.51558
8.41716
8.41716
8.32803
8.32803
8.25066
8.25066
8.18675
8.18675
8.13718
8.13718
8.10271
8.10271
8.08466
8.08465
8.08463
8.08463
8.10263
8.10264
8.13703
8.13703
8.18648
8.18648
8.25029
8.25029
8.32752
8.32752
8.41647
8.41646
8.51473
8.51473
8.61967
8.61966
8.7292
8.7292
8.84127
8.84127
8.95307
8.95307
9.06199
9.06199
9.16731
9.1673
9.27062
9.27062
9.37501
9.37501
9.48386
9.48386
9.59996
9.59996
9.72532
9.72532
9.86179
9.86178
10.0111
10.0111
10.1745
10.1744
10.3525
10.3525
10.5454
10.5454
10.7531
10.7531
10.9756
10.9756
11.2129
11.2129
11.4649
11.4649
11.7317
11.7317
12.0125
12.0125
12.305
12.305
12.6053
12.6053
12.909
12.9089
13.2124
13.2124
13.5131
13.5131
13.8091
13.8091
14.1001
14.1001
14.3869
14.3869
14.6714
14.6714
14.9557
14.9557
15.2416
15.2416
15.5307
15.5307
15.8252
15.8252
16.1275
16.1275
16.4403
16.4403
16.7662
16.7662
17.1075
17.1075
17.4663
17.4663
17.8443
17.8443
18.2428
18.2428
18.6626
18.6626
19.1045
19.1044
19.5685
19.5685
20.0548
20.0547
20.5632
20.5632
21.0934
21.0933
21.6442
21.6442
22.2144
22.2144
22.8023
22.8023
23.4065
23.4065
24.0255
24.0255
24.6586
24.6586
25.3059
25.3059
25.968
25.968
26.6454
26.6454
27.3379
27.3379
28.0439
28.044
28.7607
28.7608
29.4853
29.4853
30.2158
30.2159
30.9516
30.9516
31.6929
31.6929
32.4415
32.4415
33.1994
33.1994
33.9693
33.9693
34.7535
34.7535
35.5538
35.5538
36.3717
36.3717
37.208
37.208
38.0632
38.0632
38.9375
38.9375
39.8309
39.8309
40.7431
40.7431
41.6743
41.6743
42.6247
42.6247
43.595
43.595
44.5863
44.5863
45.5998
45.5998
46.6367
46.6367
47.6989
47.6989
48.7884
48.7884
49.9073
49.9073
51.0575
51.0575
52.241
52.241
53.4593
53.4593
54.7137
54.7137
56.0059
56.0059
57.3377
57.3377
58.7111
58.7111
60.1287
60.1287
61.5934
61.5934
63.1081
63.1081
64.6758
64.6758
66.2993
66.2993
67.9815
67.9815
69.7251
69.7251
71.5326
71.5326
73.4068
73.4068
75.3498
75.3498
77.3641
77.3641
79.4519
79.4519
81.6156
81.6156
83.8572
83.8572
86.1792
86.1792
88.5839
88.5839
91.0735
91.0735
93.6505
93.6505
96.317
96.317
99.075
99.075
101.926
101.926
104.873
104.873
107.917
107.917
111.059
111.059
114.302
114.302
117.647
117.647
121.096
121.096
124.651
124.651
128.313
128.313
132.085
132.085
135.969
135.969
139.967
139.967
144.08
144.08
148.312
148.312
152.665
152.665
157.142
157.142
161.744
161.744
166.475
166.475
171.336
171.336
176.331
176.331
181.462
181.462
186.731
186.731
192.141
192.141
197.693
197.693
203.392
203.392
209.238
209.238
215.235
215.235
221.385
221.385
227.691
227.691
234.155
234.155
240.781
240.781
247.572
247.572
254.53
254.53
261.659
261.659
268.961
268.961
276.44
276.44
284.098
284.098
291.938
291.938
299.963
299.963
308.173
308.173
316.572
316.572
325.161
325.161
333.942
333.942
342.917
342.917
352.086
352.086
361.451
361.451
371.013
371.013
380.773
380.773
390.733
390.733
400.892
400.892
411.252
411.252
421.813
421.813
432.577
432.577
443.543
443.543
454.712
454.712
466.085
466.085
477.661
477.661
489.44
489.44
501.422
501.422
513.606
513.606
525.992
525.992
538.579
538.579
551.365
551.365
564.349
564.349
577.528
577.528
590.901
590.901
604.465
604.465
618.216
618.216
632.151
632.151
646.266
646.266
660.556
660.556
675.017
675.017
689.643
689.643
704.428
704.428
719.364
719.364
734.445
734.445
749.661
749.661
765.005
765.005
780.466
780.466
796.035
796.035
811.701
811.701
827.452
827.452
843.275
843.275
859.158
859.158
875.086
875.086
891.046
891.046
907.024
907.024
923.005
923.005
938.974
938.974
954.916
954.916
970.816
970.816
986.658
986.658
1002.43
1002.43
1018.12
1018.12
1033.71
1033.71
1049.19
1049.19
1064.55
1064.55
1079.79
1079.79
1094.91
1094.91
1109.9
1109.9
1124.76
1124.76
1139.51
1139.51
1154.15
1154.15
1168.71
1168.71
1183.21
1183.21
1197.68
1197.68
1212.15
1212.15
1226.67
1226.67
1241.3
1241.3
1256.1
1256.1
1271.14
1271.14
1286.5
1286.5
1302.28
1302.28
1318.57
1318.57
1335.5
1335.5
1353.15
1353.15
1371.68
1371.68
1391.19
1391.19
1411.83
1411.83
1433.72
1433.72
1457.02
1457.02
1481.85
1481.85
1508.34
1508.34
1536.61
1536.61
1566.77
1566.77
1598.92
1598.92
1633.14
1633.14
1669.49
1669.49
1708.02
1708.02
1748.74
1748.74
1791.66
1791.66
1836.75
1836.75
1883.97
1883.97
1933.25
1933.25
1984.51
1984.51
2037.65
2037.65
2092.55
2092.55
2149.1
2149.1
2207.15
2207.15
2266.57
2266.57
2327.2
2327.2
2388.91
2388.91
2451.56
2451.56
2515
2515
2579.1
2579.1
2643.73
2643.73
2708.78
2708.78
2774.13
2774.13
2839.7
2839.7
2905.41
2905.41
2971.17
2971.17
3036.92
3036.92
3102.65
3102.65
3168.33
3168.33
3233.95
3233.95
3299.52
3299.52
3365.06
3365.06
3430.63
3430.63
3496.29
3496.29
3562.12
3562.12
3628.23
3628.23
3694.75
3694.75
3761.83
3761.83
3829.65
3829.65
3898.39
3898.39
3968.31
3968.31
4039.64
4039.64
4112.7
4112.7
4187.8
4187.8
4265.34
4265.34
4345.74
4345.74
4429.5
4429.5
4517.16
4517.16
4609.37
4609.37
4706.86
4706.86
4810.48
4810.48
4921.23
4921.23
5040.27
5040.27
5169.01
5169.01
5309.1
5309.1
5462.57
5462.57
5631.9
5631.9
5820.14
5820.14
6031.15
6031.15
6269.87
6269.87
6542.7
6542.7
6858.15
6858.15
7227.74
7227.74
7667.56
7667.56
8200.76
8200.76
8861.94
8861.94
9705.23
9705.23
10820.4
10820.4
12367.4
12367.4
14660.1
14660.1
18396.8
18396.8
25409.2
25409.2
41498.5
41498.5
87916.4
87916.4
264342
264342
1.52418e+06
1.52418e+06
8.08463
8.08463
8.10264
8.10263
8.13703
8.13703
8.18648
8.18648
8.25029
8.25029
8.32752
8.32752
8.41646
8.41647
8.51473
8.51473
8.61966
8.61967
8.7292
8.72921
8.84127
8.84127
8.95307
8.95307
9.06199
9.06199
9.1673
9.16731
9.27062
9.27062
9.37501
9.37501
9.48386
9.48386
9.59996
9.59996
9.72532
9.72532
9.86178
9.86179
10.0111
10.0111
10.1744
10.1745
10.3525
10.3525
10.5454
10.5454
10.7531
10.7531
10.9756
10.9756
11.2129
11.2129
11.4649
11.4649
11.7317
11.7318
12.0125
12.0125
12.305
12.305
12.6053
12.6053
12.909
12.909
13.2124
13.2124
13.5131
13.5131
13.8091
13.8091
14.1001
14.1001
14.3869
14.3869
14.6714
14.6714
14.9557
14.9557
15.2416
15.2416
15.5307
15.5307
15.8252
15.8252
16.1275
16.1275
16.4403
16.4403
16.7662
16.7662
17.1075
17.1075
17.4663
17.4663
17.8443
17.8443
18.2428
18.2428
18.6626
18.6626
19.1045
19.1045
19.5685
19.5685
20.0548
20.0548
20.5632
20.5632
21.0934
21.0934
21.6442
21.6442
22.2144
22.2144
22.8023
22.8024
23.4065
23.4065
24.0255
24.0255
24.6586
24.6586
25.3059
25.306
25.968
25.968
26.6455
26.6455
27.338
27.338
28.044
28.044
28.7608
28.7608
29.4854
29.4853
30.2159
30.2159
30.9516
30.9516
31.693
31.6929
32.4415
32.4415
33.1994
33.1994
33.9693
33.9693
34.7535
34.7535
35.5538
35.5538
36.3717
36.3717
37.208
37.208
38.0632
38.0632
38.9375
38.9375
39.8309
39.8309
40.7431
40.7431
41.6743
41.6743
42.6247
42.6247
43.595
43.595
44.5863
44.5863
45.5997
45.5998
46.6367
46.6367
47.6989
47.6989
48.7884
48.7884
49.9072
49.9072
51.0574
51.0574
52.2409
52.2409
53.4592
53.4592
54.7137
54.7137
56.0059
56.0059
57.3376
57.3376
58.711
58.711
60.1287
60.1287
61.5934
61.5934
63.1081
63.1081
64.6757
64.6757
66.2993
66.2993
67.9815
67.9815
69.725
69.725
71.5326
71.5326
73.4067
73.4067
75.3498
75.3498
77.364
77.3641
79.4519
79.4519
81.6155
81.6155
83.8571
83.8571
86.1791
86.1791
88.5838
88.5838
91.0735
91.0735
93.6505
93.6505
96.317
96.317
99.0749
99.075
101.926
101.926
104.873
104.873
107.917
107.917
111.059
111.059
114.302
114.302
117.647
117.647
121.096
121.096
124.651
124.651
128.313
128.313
132.085
132.085
135.969
135.969
139.967
139.967
144.08
144.08
148.312
148.312
152.665
152.665
157.142
157.142
161.744
161.744
166.474
166.475
171.336
171.336
176.331
176.331
181.462
181.462
186.731
186.731
192.141
192.141
197.693
197.693
203.392
203.392
209.238
209.238
215.235
215.235
221.385
221.385
227.691
227.691
234.155
234.155
240.781
240.781
247.572
247.572
254.53
254.53
261.659
261.659
268.961
268.961
276.44
276.44
284.098
284.098
291.938
291.938
299.963
299.963
308.173
308.173
316.572
316.572
325.161
325.161
333.942
333.942
342.917
342.917
352.086
352.086
361.451
361.451
371.013
371.013
380.773
380.773
390.733
390.733
400.892
400.892
411.252
411.252
421.813
421.813
432.577
432.577
443.543
443.543
454.712
454.712
466.085
466.085
477.661
477.661
489.44
489.44
501.422
501.422
513.606
513.606
525.992
525.992
538.579
538.579
551.365
551.365
564.349
564.349
577.528
577.528
590.901
590.901
604.465
604.465
618.216
618.216
632.151
632.151
646.266
646.266
660.556
660.556
675.017
675.017
689.643
689.643
704.428
704.428
719.364
719.364
734.445
734.445
749.661
749.661
765.005
765.005
780.466
780.466
796.035
796.035
811.701
811.701
827.452
827.452
843.275
843.275
859.158
859.158
875.086
875.086
891.046
891.046
907.024
907.024
923.005
923.005
938.974
938.974
954.916
954.916
970.816
970.816
986.658
986.658
1002.43
1002.43
1018.12
1018.12
1033.71
1033.71
1049.19
1049.19
1064.55
1064.55
1079.79
1079.79
1094.91
1094.91
1109.9
1109.9
1124.76
1124.76
1139.51
1139.51
1154.15
1154.15
1168.71
1168.71
1183.21
1183.21
1197.68
1197.68
1212.15
1212.15
1226.67
1226.67
1241.3
1241.3
1256.1
1256.1
1271.14
1271.14
1286.5
1286.5
1302.28
1302.28
1318.57
1318.57
1335.5
1335.5
1353.15
1353.15
1371.68
1371.68
1391.19
1391.19
1411.83
1411.83
1433.72
1433.72
1457.02
1457.02
1481.85
1481.85
1508.34
1508.34
1536.61
1536.61
1566.77
1566.77
1598.92
1598.92
1633.14
1633.14
1669.49
1669.49
1708.02
1708.02
1748.74
1748.74
1791.66
1791.66
1836.75
1836.75
1883.97
1883.97
1933.25
1933.25
1984.51
1984.51
2037.65
2037.65
2092.55
2092.55
2149.1
2149.1
2207.15
2207.15
2266.57
2266.57
2327.2
2327.2
2388.91
2388.91
2451.56
2451.56
2515
2515
2579.1
2579.1
2643.73
2643.73
2708.78
2708.78
2774.13
2774.13
2839.7
2839.7
2905.41
2905.41
2971.17
2971.17
3036.92
3036.92
3102.65
3102.65
3168.33
3168.33
3233.95
3233.95
3299.52
3299.52
3365.06
3365.06
3430.63
3430.63
3496.29
3496.29
3562.12
3562.12
3628.23
3628.23
3694.75
3694.75
3761.83
3761.83
3829.65
3829.65
3898.39
3898.39
3968.3
3968.3
4039.64
4039.64
4112.69
4112.69
4187.8
4187.8
4265.34
4265.34
4345.74
4345.74
4429.5
4429.5
4517.16
4517.16
4609.37
4609.37
4706.86
4706.86
4810.48
4810.48
4921.23
4921.23
5040.27
5040.27
5169.01
5169.01
5309.1
5309.1
5462.57
5462.57
5631.89
5631.89
5820.14
5820.14
6031.15
6031.15
6269.87
6269.87
6542.7
6542.7
6858.15
6858.15
7227.73
7227.73
7667.56
7667.56
8200.76
8200.76
8861.94
8861.94
9705.23
9705.23
10820.4
10820.4
12367.4
12367.4
14660.1
14660.1
18396.8
18396.8
25409.2
25409.2
41498.5
41498.5
87916.4
87916.4
264342
264342
1.52418e+06
1.52418e+06
)
;

boundaryField
{
    walls
    {
        blending        binomial2;
        n               2;
        beta1           0.075;
        type            omegaWallFunction;
        value           nonuniform List<scalar> 8(1.52417e+06 1.52417e+06 1.52417e+06 1.52417e+06 1.52418e+06 1.52418e+06 1.52418e+06 1.52418e+06);
    }
    inlet
    {
        type            cyclic;
    }
    outlet
    {
        type            cyclic;
    }
    sides
    {
        type            empty;
    }
}


// ************************************************************************* //
