/*--------------------------------*- C++ -*----------------------------------*\
| =========                 |                                                 |
| \\      /  F ield         | OpenFOAM: The Open Source CFD Toolbox           |
|  \\    /   O peration     | Version:  2012                                  |
|   \\  /    A nd           | Website:  www.openfoam.com                      |
|    \\/     M anipulation  |                                                 |
\*---------------------------------------------------------------------------*/
FoamFile
{
    version     2.0;
    format      ascii;
    class       volScalarField;
    location    "16600";
    object      p;
}
// * * * * * * * * * * * * * * * * * * * * * * * * * * * * * * * * * * * * * //

dimensions      [0 2 -2 0 0 0 0];


internalField   nonuniform List<scalar> 
2560
(
1.03434e-09
8.74402e-05
-4.07173e-08
8.73843e-05
-2.3674e-07
8.71784e-05
-8.18923e-07
8.65929e-05
-2.19771e-06
8.52147e-05
-4.91176e-06
8.24991e-05
-9.60912e-06
7.78009e-05
-1.70838e-05
7.03238e-05
-2.82776e-05
5.91278e-05
-4.42632e-05
4.31386e-05
-6.6253e-05
2.11456e-05
-9.56092e-05
-8.21573e-06
-0.000133817
-4.64282e-05
-0.000182508
-9.51253e-05
-0.000243453
-0.000156076
-0.000318553
-0.000231183
-0.000409839
-0.000322476
-0.000519462
-0.000432108
-0.000649739
-0.000562392
-0.000803067
-0.00071573
-0.000981958
-0.000894629
-0.00118908
-0.00110176
-0.00142722
-0.00133991
-0.0016992
-0.0016119
-0.00200797
-0.00192068
-0.00235665
-0.00226938
-0.00274843
-0.00266117
-0.00318645
-0.0030992
-0.00367405
-0.00358681
-0.00421471
-0.00412749
-0.00481193
-0.00472471
-0.00546911
-0.00538191
-0.00618989
-0.00610271
-0.00697804
-0.00689086
-0.00783719
-0.00775003
-0.00877098
-0.00868384
-0.00978328
-0.00969615
-0.010878
-0.0107909
-0.0120589
-0.0119718
-0.0133297
-0.0132426
-0.0146944
-0.0146073
-0.0161569
-0.0160699
-0.0177212
-0.0176342
-0.0193909
-0.0193039
-0.0211701
-0.0210831
-0.0230627
-0.0229757
-0.0250725
-0.0249855
-0.0272032
-0.0271163
-0.0294588
-0.0293719
-0.0318436
-0.0317566
-0.0343605
-0.0342736
-0.0370126
-0.0369257
-0.0398058
-0.0397189
-0.0427422
-0.0426553
-0.0458249
-0.045738
-0.0490594
-0.0489725
-0.0524469
-0.05236
-0.0559927
-0.0559059
-0.059699
-0.0596122
-0.0635687
-0.0634819
-0.0676057
-0.0675189
-0.071813
-0.0717263
-0.0761943
-0.0761076
-0.08075
-0.0806633
-0.0854845
-0.0853978
-0.0904019
-0.0903152
-0.0955011
-0.0954144
-0.100787
-0.1007
-0.10626
-0.106173
-0.111924
-0.111838
-0.117779
-0.117693
-0.123827
-0.123741
-0.130071
-0.129984
-0.136509
-0.136422
-0.143145
-0.143058
-0.149977
-0.149891
-0.157009
-0.156922
-0.164237
-0.16415
-0.171665
-0.171578
-0.179289
-0.179202
-0.187111
-0.187025
-0.195129
-0.195043
-0.203343
-0.203256
-0.21175
-0.211664
-0.220348
-0.220262
-0.229136
-0.22905
-0.238112
-0.238026
-0.247274
-0.247187
-0.256617
-0.256531
-0.266139
-0.266052
-0.275834
-0.275748
-0.285702
-0.285615
-0.295736
-0.29565
-0.305934
-0.305847
-0.316287
-0.3162
-0.326794
-0.326707
-0.337449
-0.337362
-0.348243
-0.348157
-0.359175
-0.359088
-0.370234
-0.370148
-0.381418
-0.381331
-0.392719
-0.392633
-0.404128
-0.404041
-0.415639
-0.415553
-0.427246
-0.42716
-0.43894
-0.438853
-0.450714
-0.450628
-0.462561
-0.462474
-0.474471
-0.474385
-0.486439
-0.486353
-0.498453
-0.498367
-0.510507
-0.510421
-0.522594
-0.522508
-0.534702
-0.534616
-0.546827
-0.546741
-0.558955
-0.558869
-0.571084
-0.570998
-0.5832
-0.583114
-0.5953
-0.595214
-0.60737
-0.607284
-0.619405
-0.619319
-0.631396
-0.63131
-0.643336
-0.64325
-0.655216
-0.65513
-0.667029
-0.666943
-0.678764
-0.678678
-0.69042
-0.690334
-0.701981
-0.701895
-0.71345
-0.713363
-0.724808
-0.724722
-0.736059
-0.735973
-0.747186
-0.747101
-0.758195
-0.758109
-0.769064
-0.768978
-0.779802
-0.779715
-0.790386
-0.790301
-0.800831
-0.800744
-0.811107
-0.811022
-0.821234
-0.821147
-0.831179
-0.831094
-0.840966
-0.840879
-0.850559
-0.850474
-0.859989
-0.859901
-0.869211
-0.869127
-0.878266
-0.878178
-0.8871
-0.887016
-0.895766
-0.895677
-0.904199
-0.904116
-0.912463
-0.912374
-0.920483
-0.920401
-0.928337
-0.928247
-0.935933
-0.935852
-0.94337
-0.943278
-0.950533
-0.950454
-0.957547
-0.957453
-0.96427
-0.964193
-0.970856
-0.970761
-0.977135
-0.97706
-0.983292
-0.983193
-0.98912
-0.989048
-0.994849
-0.994747
-1.00022
-1.00016
-1.00553
-1.00542
-1.01045
-1.01038
-1.01533
-1.01522
-1.01979
-1.01974
-1.02426
-1.02414
-1.02826
-1.02822
-1.03233
-1.03219
-1.03587
-1.03583
-1.03954
-1.0394
-1.04262
-1.0426
-1.04592
-1.04575
-1.04853
-1.04853
-1.05147
-1.05128
-1.05361
-1.05364
-1.05623
-1.056
-1.05789
-1.05796
-1.06021
-1.05994
-1.06139
-1.06152
-1.06346
-1.06312
-1.06415
-1.06434
-1.066
-1.06559
-1.06652
-1.06647
-1.06788
-1.06736
-1.06822
-1.06793
-1.0691
-1.06848
-1.06928
-1.06875
-1.06971
-1.06896
-1.06973
-1.06896
-1.06937
-1.06884
-1.06923
-1.06857
-1.06845
-1.06813
-1.06816
-1.06761
-1.06698
-1.06687
-1.06656
-1.0661
-1.065
-1.06508
-1.06445
-1.06407
-1.0627
-1.06278
-1.06187
-1.06155
-1.05999
-1.06002
-1.05883
-1.05855
-1.05681
-1.0568
-1.05536
-1.05512
-1.05319
-1.05315
-1.05147
-1.05125
-1.04915
-1.04908
-1.04717
-1.04698
-1.0447
-1.04461
-1.04249
-1.04231
-1.03986
-1.03977
-1.03744
-1.03727
-1.03466
-1.03456
-1.03204
-1.03188
-1.02911
-1.029
-1.02631
-1.02615
-1.02323
-1.02311
-1.02024
-1.02009
-1.01702
-1.0169
-1.01386
-1.01371
-1.01049
-1.01035
-1.00714
-1.00699
-1.0036
-1.00347
-1.00007
-0.999922
-0.996361
-0.996223
-0.992638
-0.99249
-0.988755
-0.988614
-0.984851
-0.984702
-0.980806
-0.980663
-0.976732
-0.976584
-0.97253
-0.972386
-0.968288
-0.968139
-0.963922
-0.963776
-0.959505
-0.959356
-0.954968
-0.95482
-0.950371
-0.95022
-0.94566
-0.945511
-0.940881
-0.94073
-0.935991
-0.93584
-0.931024
-0.930872
-0.925954
-0.925802
-0.920805
-0.920652
-0.915565
-0.915412
-0.910247
-0.910093
-0.904845
-0.904691
-0.89936
-0.899205
-0.893798
-0.893642
-0.888147
-0.887991
-0.882422
-0.882266
-0.876599
-0.876442
-0.870702
-0.870545
-0.864699
-0.864542
-0.858631
-0.858474
-0.852454
-0.852297
-0.846221
-0.846064
-0.839878
-0.83972
-0.833498
-0.833341
-0.827012
-0.826854
-0.82051
-0.820352
-0.813893
-0.813735
-0.807266
-0.807108
-0.800498
-0.800339
-0.793714
-0.793555
-0.786761
-0.786601
-0.779792
-0.779631
-0.772634
-0.772472
-0.765486
-0.765323
-0.758147
-0.757983
-0.750859
-0.750694
-0.743377
-0.74321
-0.735977
-0.735809
-0.728347
-0.728178
-0.720816
-0.720645
-0.713019
-0.712846
-0.705356
-0.705181
-0.697396
-0.697218
-0.689613
-0.689432
-0.681488
-0.681305
-0.673584
-0.673398
-0.665285
-0.665095
-0.657256
-0.657062
-0.648773
-0.648574
-0.640638
-0.640433
-0.631996
-0.631785
-0.623793
-0.623574
-0.615022
-0.614798
-0.606804
-0.606569
-0.597949
-0.597707
-0.589778
-0.589522
-0.580883
-0.58062
-0.572819
-0.572538
-0.563919
-0.563631
-0.556011
-0.555699
-0.547134
-0.546816
-0.539437
-0.539087
-0.530585
-0.530236
-0.523108
-0.522712
-0.514259
-0.513875
-0.507055
-0.506601
-0.498253
-0.497834
-0.491446
-0.490918
-0.482795
-0.482344
-0.476584
-0.475957
-0.468192
-0.467718
-0.462727
-0.461967
-0.454581
-0.454111
-0.449944
-0.448996
-0.44198
-0.441559
-0.438329
-0.437113
-0.430534
-0.430243
-0.427976
-0.426525
-0.420458
-0.420424
-0.418314
-0.417434
-0.411965
-0.412317
-0.410282
-0.410056
-0.405283
-0.406131
-0.404119
-0.404612
-0.399797
-0.402039
-0.399175
-0.401246
-0.397278
-0.400316
8.68579e-05
2.52228e-06
8.68021e-05
2.47936e-06
8.65962e-05
2.28298e-06
8.60107e-05
1.70034e-06
8.46325e-05
3.20979e-07
8.19169e-05
-2.39434e-06
7.72186e-05
-7.093e-06
6.97414e-05
-1.45702e-05
5.85454e-05
-2.57663e-05
4.25559e-05
-4.17559e-05
2.05627e-05
-6.37491e-05
-8.79897e-06
-9.31107e-05
-4.70117e-05
-0.000131323
-9.57092e-05
-0.000180021
-0.00015666
-0.000240972
-0.000231768
-0.00031608
-0.000323061
-0.000407373
-0.000432694
-0.000517006
-0.000562978
-0.00064729
-0.000716317
-0.000800628
-0.000895217
-0.000979529
-0.00110235
-0.00118666
-0.0013405
-0.00142482
-0.00161249
-0.0016968
-0.00192127
-0.00200558
-0.00226997
-0.00235428
-0.00266176
-0.00274607
-0.00309979
-0.0031841
-0.0035874
-0.00367171
-0.00412808
-0.0042124
-0.00472531
-0.00480962
-0.00538251
-0.00546682
-0.0061033
-0.00618762
-0.00689146
-0.00697578
-0.00775063
-0.00783494
-0.00868444
-0.00876876
-0.00969675
-0.00978107
-0.0107915
-0.0108758
-0.0119724
-0.0120567
-0.0132432
-0.0133275
-0.0146079
-0.0146922
-0.0160705
-0.0161548
-0.0176348
-0.0177191
-0.0193045
-0.0193888
-0.0210837
-0.0211681
-0.0229763
-0.0230606
-0.0249861
-0.0250705
-0.0271169
-0.0272012
-0.0293725
-0.0294568
-0.0317572
-0.0318416
-0.0342742
-0.0343585
-0.0369263
-0.0370106
-0.0397195
-0.0398039
-0.0426559
-0.0427402
-0.0457387
-0.045823
-0.0489732
-0.0490575
-0.0523606
-0.052445
-0.0559066
-0.0559909
-0.0596128
-0.0596972
-0.0634825
-0.0635669
-0.0675195
-0.0676038
-0.0717269
-0.0718112
-0.0761082
-0.0761926
-0.0806639
-0.0807483
-0.0853984
-0.0854828
-0.0903158
-0.0904002
-0.095415
-0.0954994
-0.100701
-0.100785
-0.106174
-0.106258
-0.111838
-0.111923
-0.117693
-0.117778
-0.123741
-0.123826
-0.129985
-0.130069
-0.136423
-0.136507
-0.143059
-0.143143
-0.149891
-0.149976
-0.156923
-0.157007
-0.164151
-0.164235
-0.171579
-0.171663
-0.179203
-0.179287
-0.187026
-0.18711
-0.195043
-0.195128
-0.203257
-0.203341
-0.211664
-0.211749
-0.220262
-0.220347
-0.22905
-0.229135
-0.238027
-0.238111
-0.247188
-0.247272
-0.256531
-0.256616
-0.266053
-0.266137
-0.275748
-0.275833
-0.285616
-0.285701
-0.29565
-0.295735
-0.305848
-0.305932
-0.316201
-0.316285
-0.326708
-0.326793
-0.337363
-0.337448
-0.348157
-0.348242
-0.359089
-0.359174
-0.370148
-0.370233
-0.381332
-0.381417
-0.392633
-0.392718
-0.404042
-0.404127
-0.415553
-0.415638
-0.42716
-0.427245
-0.438854
-0.438939
-0.450629
-0.450713
-0.462475
-0.46256
-0.474386
-0.47447
-0.486353
-0.486438
-0.498368
-0.498452
-0.510421
-0.510506
-0.522508
-0.522593
-0.534616
-0.534701
-0.546741
-0.546826
-0.55887
-0.558955
-0.570998
-0.571083
-0.583115
-0.5832
-0.595215
-0.595299
-0.607284
-0.607369
-0.61932
-0.619405
-0.631311
-0.631395
-0.64325
-0.643335
-0.65513
-0.655215
-0.666943
-0.667028
-0.678679
-0.678764
-0.690335
-0.69042
-0.701896
-0.70198
-0.713364
-0.713449
-0.724723
-0.724807
-0.735973
-0.736059
-0.747101
-0.747186
-0.758109
-0.758195
-0.768979
-0.769063
-0.779716
-0.779801
-0.790301
-0.790386
-0.800744
-0.80083
-0.811022
-0.811107
-0.821147
-0.821233
-0.831094
-0.831178
-0.840879
-0.840966
-0.850475
-0.850559
-0.859901
-0.859988
-0.869127
-0.869211
-0.878178
-0.878265
-0.887017
-0.8871
-0.895678
-0.895766
-0.904116
-0.904198
-0.912374
-0.912463
-0.920401
-0.920483
-0.928247
-0.928337
-0.935853
-0.935933
-0.943278
-0.943369
-0.950454
-0.950533
-0.957453
-0.957546
-0.964193
-0.96427
-0.970761
-0.970856
-0.97706
-0.977135
-0.983193
-0.983291
-0.989049
-0.98912
-0.994747
-0.994849
-1.00016
-1.00022
-1.00542
-1.00553
-1.01038
-1.01045
-1.01522
-1.01533
-1.01974
-1.01979
-1.02414
-1.02426
-1.02822
-1.02826
-1.0322
-1.03233
-1.03583
-1.03587
-1.0394
-1.03954
-1.0426
-1.04262
-1.04575
-1.04592
-1.04853
-1.04852
-1.05128
-1.05147
-1.05364
-1.05361
-1.056
-1.05623
-1.05796
-1.05789
-1.05994
-1.06021
-1.06152
-1.06139
-1.06312
-1.06346
-1.06434
-1.06415
-1.06559
-1.066
-1.06647
-1.06652
-1.06736
-1.06788
-1.06793
-1.06822
-1.06848
-1.0691
-1.06875
-1.06928
-1.06896
-1.06971
-1.06896
-1.06973
-1.06884
-1.06937
-1.06857
-1.06923
-1.06813
-1.06845
-1.06761
-1.06816
-1.06687
-1.06698
-1.0661
-1.06656
-1.06508
-1.065
-1.06407
-1.06445
-1.06278
-1.0627
-1.06155
-1.06187
-1.06002
-1.05999
-1.05855
-1.05883
-1.0568
-1.05681
-1.05512
-1.05536
-1.05315
-1.05319
-1.05125
-1.05147
-1.04908
-1.04915
-1.04698
-1.04717
-1.04461
-1.0447
-1.04231
-1.04249
-1.03977
-1.03986
-1.03727
-1.03744
-1.03456
-1.03466
-1.03188
-1.03204
-1.029
-1.02911
-1.02615
-1.02631
-1.02311
-1.02323
-1.02009
-1.02024
-1.0169
-1.01702
-1.01371
-1.01386
-1.01035
-1.01048
-1.00699
-1.00714
-1.00347
-1.0036
-0.999922
-1.00007
-0.996223
-0.996361
-0.99249
-0.992638
-0.988614
-0.988755
-0.984702
-0.984851
-0.980663
-0.980806
-0.976584
-0.976732
-0.972386
-0.97253
-0.968139
-0.968288
-0.963776
-0.963922
-0.959356
-0.959505
-0.95482
-0.954968
-0.95022
-0.950371
-0.94551
-0.94566
-0.94073
-0.940881
-0.93584
-0.935991
-0.930872
-0.931024
-0.925802
-0.925954
-0.920652
-0.920805
-0.915412
-0.915565
-0.910093
-0.910247
-0.904691
-0.904845
-0.899205
-0.89936
-0.893642
-0.893797
-0.887991
-0.888147
-0.882266
-0.882422
-0.876442
-0.876599
-0.870545
-0.870702
-0.864542
-0.864699
-0.858474
-0.858631
-0.852297
-0.852454
-0.846064
-0.846221
-0.83972
-0.839878
-0.833341
-0.833498
-0.826854
-0.827012
-0.820352
-0.82051
-0.813735
-0.813893
-0.807108
-0.807266
-0.800339
-0.800498
-0.793555
-0.793714
-0.786601
-0.786761
-0.779631
-0.779792
-0.772472
-0.772634
-0.765323
-0.765486
-0.757983
-0.758147
-0.750694
-0.750859
-0.74321
-0.743377
-0.735809
-0.735977
-0.728178
-0.728347
-0.720645
-0.720816
-0.712845
-0.713018
-0.705181
-0.705356
-0.697218
-0.697396
-0.689432
-0.689613
-0.681305
-0.681488
-0.673398
-0.673584
-0.665095
-0.665285
-0.657062
-0.657256
-0.648574
-0.648773
-0.640433
-0.640638
-0.631785
-0.631996
-0.623574
-0.623793
-0.614798
-0.615022
-0.606569
-0.606804
-0.597707
-0.597949
-0.589522
-0.589778
-0.58062
-0.580883
-0.572538
-0.572819
-0.563631
-0.563919
-0.555699
-0.556011
-0.546816
-0.547134
-0.539087
-0.539437
-0.530236
-0.530585
-0.522712
-0.523108
-0.513875
-0.514259
-0.506601
-0.507055
-0.497834
-0.498253
-0.490918
-0.491446
-0.482344
-0.482795
-0.475957
-0.476584
-0.467718
-0.468192
-0.461967
-0.462727
-0.454111
-0.454581
-0.448996
-0.449944
-0.441559
-0.44198
-0.437113
-0.438329
-0.430243
-0.430534
-0.426525
-0.427976
-0.420424
-0.420458
-0.417434
-0.418314
-0.412317
-0.411965
-0.410056
-0.410282
-0.406131
-0.405283
-0.404612
-0.404118
-0.402039
-0.399797
-0.401246
-0.399175
-0.400316
-0.397278
-0.397277
-0.400315
-0.39917
-0.401249
-0.39979
-0.402039
-0.404158
-0.40462
-0.405329
-0.406139
-0.410331
-0.410068
-0.412012
-0.412331
-0.418354
-0.417446
-0.420495
-0.420435
-0.428012
-0.426539
-0.430571
-0.430258
-0.43836
-0.437128
-0.442016
-0.441576
-0.449976
-0.449013
-0.454616
-0.454129
-0.462757
-0.461982
-0.468223
-0.467735
-0.476613
-0.475974
-0.482825
-0.482361
-0.491477
-0.490938
-0.498284
-0.497854
-0.507084
-0.50662
-0.514288
-0.513895
-0.523133
-0.522728
-0.530612
-0.530255
-0.539467
-0.539109
-0.54716
-0.546835
-0.55604
-0.555721
-0.563947
-0.563652
-0.572842
-0.572555
-0.580913
-0.580643
-0.589805
-0.589544
-0.597981
-0.597734
-0.60683
-0.60659
-0.615055
-0.614825
-0.623817
-0.623594
-0.63202
-0.631805
-0.640664
-0.640454
-0.648797
-0.648593
-0.657284
-0.657085
-0.665311
-0.665116
-0.673611
-0.67342
-0.681515
-0.681327
-0.689641
-0.689456
-0.69742
-0.697239
-0.705384
-0.705204
-0.713043
-0.712866
-0.720841
-0.720666
-0.728371
-0.728198
-0.736003
-0.735831
-0.743399
-0.743229
-0.750889
-0.75072
-0.758174
-0.758006
-0.765508
-0.765341
-0.772661
-0.772495
-0.779818
-0.779653
-0.78679
-0.786626
-0.793739
-0.793576
-0.800522
-0.800359
-0.807288
-0.807126
-0.813925
-0.813763
-0.820536
-0.820375
-0.827042
-0.82688
-0.833526
-0.833365
-0.839908
-0.839747
-0.846245
-0.846084
-0.852475
-0.852314
-0.858661
-0.8585
-0.864726
-0.864565
-0.870733
-0.870573
-0.876622
-0.876462
-0.882443
-0.882284
-0.888173
-0.888013
-0.893819
-0.89366
-0.899383
-0.899224
-0.904869
-0.904711
-0.910275
-0.910117
-0.915595
-0.915438
-0.920837
-0.92068
-0.925984
-0.925829
-0.931051
-0.930895
-0.936019
-0.935865
-0.940906
-0.940751
-0.945684
-0.945532
-0.9504
-0.950246
-0.954992
-0.95484
-0.959527
-0.959373
-0.963951
-0.963802
-0.968315
-0.968162
-0.972551
-0.972403
-0.976758
-0.976606
-0.98083
-0.980684
-0.984874
-0.984722
-0.988778
-0.988634
-0.992669
-0.992518
-0.996391
-0.99625
-1.0001
-0.999944
-1.00363
-1.00349
-1.00717
-1.00701
-1.01051
-1.01037
-1.01388
-1.01373
-1.01705
-1.01692
-1.02027
-1.02011
-1.02326
-1.02314
-1.02634
-1.02618
-1.02914
-1.02902
-1.03207
-1.0319
-1.03469
-1.03458
-1.03747
-1.03729
-1.03989
-1.03979
-1.04252
-1.04233
-1.04472
-1.04464
-1.0472
-1.047
-1.04917
-1.04911
-1.0515
-1.05128
-1.05322
-1.05317
-1.05538
-1.05514
-1.05684
-1.05683
-1.05886
-1.05858
-1.06001
-1.06004
-1.0619
-1.06157
-1.06273
-1.06281
-1.06448
-1.06409
-1.06503
-1.0651
-1.06658
-1.06612
-1.06701
-1.06689
-1.06819
-1.06763
-1.06847
-1.06816
-1.06925
-1.06859
-1.0694
-1.06886
-1.06976
-1.06898
-1.06974
-1.06898
-1.06931
-1.06877
-1.06913
-1.0685
-1.06824
-1.06795
-1.0679
-1.06738
-1.06654
-1.06649
-1.06603
-1.06561
-1.06418
-1.06437
-1.06349
-1.06315
-1.06142
-1.06154
-1.06023
-1.05996
-1.05792
-1.05799
-1.05626
-1.05603
-1.05363
-1.05366
-1.05149
-1.05129
-1.04855
-1.04855
-1.04595
-1.04578
-1.04265
-1.04263
-1.03957
-1.03942
-1.0359
-1.03586
-1.03236
-1.03222
-1.02828
-1.02823
-1.02428
-1.02416
-1.01981
-1.01975
-1.01536
-1.01525
-1.01046
-1.0104
-1.00555
-1.00544
-1.00024
-1.00017
-0.994863
-0.994758
-0.989162
-0.989087
-0.983323
-0.983222
-0.977148
-0.97707
-0.9709
-0.970801
-0.964295
-0.964214
-0.957557
-0.95746
-0.95058
-0.950497
-0.943412
-0.943317
-0.935971
-0.935887
-0.928387
-0.928293
-0.920484
-0.920399
-0.912502
-0.912409
-0.904213
-0.904127
-0.895785
-0.895694
-0.887132
-0.887045
-0.878273
-0.878182
-0.8692
-0.869113
-0.860008
-0.859917
-0.850621
-0.850533
-0.840955
-0.840865
-0.831196
-0.831108
-0.821253
-0.821164
-0.81115
-0.811062
-0.800872
-0.800783
-0.790455
-0.790366
-0.779872
-0.779783
-0.769064
-0.768976
-0.75821
-0.75812
-0.747262
-0.747173
-0.736057
-0.735968
-0.724779
-0.72469
-0.713495
-0.713406
-0.702044
-0.701955
-0.690479
-0.69039
-0.678762
-0.678674
-0.667083
-0.666994
-0.65527
-0.655182
-0.643383
-0.643294
-0.631378
-0.631289
-0.619464
-0.619375
-0.607452
-0.607363
-0.595261
-0.595172
-0.58329
-0.583201
-0.571162
-0.571073
-0.558969
-0.558881
-0.546791
-0.546702
-0.534734
-0.534646
-0.522548
-0.522459
-0.510514
-0.510426
-0.498531
-0.498442
-0.486392
-0.486304
-0.474491
-0.474402
-0.462628
-0.46254
-0.450677
-0.450588
-0.438963
-0.438874
-0.427353
-0.427264
-0.41565
-0.415562
-0.404066
-0.403977
-0.392773
-0.392684
-0.381433
-0.381344
-0.370226
-0.370137
-0.359165
-0.359077
-0.348264
-0.348176
-0.337519
-0.33743
-0.326772
-0.326683
-0.316377
-0.316288
-0.305997
-0.305908
-0.295799
-0.29571
-0.285814
-0.285726
-0.275842
-0.275753
-0.266095
-0.266006
-0.256556
-0.256468
-0.247256
-0.247168
-0.238171
-0.238083
-0.229156
-0.229067
-0.220364
-0.220275
-0.21183
-0.211741
-0.203349
-0.20326
-0.195136
-0.195048
-0.187155
-0.187066
-0.179278
-0.179189
-0.171634
-0.171546
-0.164273
-0.164184
-0.156977
-0.156888
-0.149971
-0.149883
-0.14319
-0.143101
-0.136547
-0.136459
-0.130121
-0.130032
-0.123846
-0.123757
-0.11778
-0.117692
-0.112023
-0.111934
-0.106316
-0.106228
-0.100783
-0.100695
-0.0955753
-0.0954868
-0.0904105
-0.090322
-0.0855558
-0.0854673
-0.0807511
-0.0806626
-0.0762499
-0.0761614
-0.0717952
-0.0717067
-0.0676455
-0.067557
-0.0636464
-0.0635579
-0.0597253
-0.0596368
-0.0560505
-0.055962
-0.0524685
-0.0523801
-0.0491106
-0.0490222
-0.0458535
-0.045765
-0.0428029
-0.0427145
-0.0398555
-0.0397671
-0.0370104
-0.036922
-0.0343619
-0.0342734
-0.0318903
-0.0318019
-0.0295224
-0.0294339
-0.027239
-0.0271505
-0.0250649
-0.0249764
-0.023114
-0.0230255
-0.0211944
-0.021106
-0.0194178
-0.0193294
-0.0177356
-0.0176472
-0.0161903
-0.0161018
-0.0147257
-0.0146372
-0.0133422
-0.0132538
-0.0120795
-0.011991
-0.0108986
-0.0108102
-0.00981952
-0.00973108
-0.00878045
-0.008692
-0.00787057
-0.00778212
-0.00700002
-0.00691158
-0.00620962
-0.00612117
-0.00548959
-0.00540114
-0.00484079
-0.00475235
-0.00425193
-0.00416349
-0.00370247
-0.00361403
-0.00320764
-0.00311919
-0.00277142
-0.00268298
-0.00238037
-0.00229193
-0.00202393
-0.00193549
-0.00172187
-0.00163343
-0.00144918
-0.00136074
-0.00120948
-0.00112104
-0.00100622
-0.000917782
-0.000829789
-0.00074135
-0.000674451
-0.00058601
-0.000542454
-0.00045401
-0.000434207
-0.000345766
-0.000343864
-0.000255425
-0.000267353
-0.000178913
-0.000205494
-0.000117051
-0.00015737
-6.89289e-05
-0.000119604
-3.11646e-05
-8.96672e-05
-1.22737e-06
-6.74202e-05
2.10212e-05
-5.16764e-05
3.67642e-05
-4.06642e-05
4.7775e-05
-3.30534e-05
5.53863e-05
-2.83267e-05
6.01134e-05
-2.56595e-05
6.27812e-05
-2.42995e-05
6.41401e-05
-2.37021e-05
6.47401e-05
-2.34971e-05
6.49545e-05
-2.34515e-05
6.50131e-05
-0.400315
-0.397277
-0.401249
-0.39917
-0.402039
-0.39979
-0.40462
-0.404158
-0.406139
-0.405329
-0.410068
-0.410331
-0.412331
-0.412012
-0.417446
-0.418354
-0.420435
-0.420495
-0.426539
-0.428012
-0.430258
-0.430571
-0.437128
-0.43836
-0.441576
-0.442016
-0.449013
-0.449976
-0.454129
-0.454616
-0.461982
-0.462757
-0.467735
-0.468223
-0.475974
-0.476613
-0.482361
-0.482825
-0.490938
-0.491477
-0.497854
-0.498284
-0.50662
-0.507084
-0.513895
-0.514288
-0.522728
-0.523133
-0.530255
-0.530612
-0.539109
-0.539467
-0.546835
-0.54716
-0.555721
-0.55604
-0.563652
-0.563947
-0.572555
-0.572842
-0.580643
-0.580913
-0.589544
-0.589805
-0.597734
-0.597981
-0.60659
-0.60683
-0.614825
-0.615055
-0.623594
-0.623817
-0.631805
-0.63202
-0.640454
-0.640664
-0.648593
-0.648797
-0.657085
-0.657284
-0.665116
-0.665311
-0.67342
-0.673611
-0.681327
-0.681515
-0.689456
-0.689641
-0.697239
-0.69742
-0.705204
-0.705384
-0.712866
-0.713043
-0.720666
-0.720841
-0.728198
-0.728371
-0.735831
-0.736003
-0.743229
-0.743399
-0.75072
-0.750889
-0.758006
-0.758174
-0.765341
-0.765508
-0.772495
-0.772661
-0.779653
-0.779818
-0.786626
-0.78679
-0.793576
-0.793739
-0.800359
-0.800522
-0.807126
-0.807288
-0.813763
-0.813925
-0.820375
-0.820536
-0.82688
-0.827042
-0.833365
-0.833526
-0.839747
-0.839908
-0.846084
-0.846245
-0.852314
-0.852475
-0.8585
-0.858661
-0.864565
-0.864726
-0.870573
-0.870733
-0.876462
-0.876622
-0.882284
-0.882443
-0.888013
-0.888173
-0.89366
-0.893819
-0.899224
-0.899383
-0.904711
-0.904869
-0.910117
-0.910275
-0.915438
-0.915595
-0.92068
-0.920837
-0.925829
-0.925984
-0.930895
-0.931051
-0.935865
-0.936019
-0.940751
-0.940906
-0.945532
-0.945684
-0.950246
-0.9504
-0.95484
-0.954992
-0.959373
-0.959527
-0.963802
-0.963951
-0.968162
-0.968315
-0.972403
-0.972551
-0.976606
-0.976758
-0.980684
-0.98083
-0.984722
-0.984874
-0.988634
-0.988778
-0.992518
-0.992669
-0.99625
-0.996391
-0.999944
-1.0001
-1.00349
-1.00363
-1.00701
-1.00717
-1.01037
-1.01051
-1.01373
-1.01388
-1.01692
-1.01705
-1.02011
-1.02027
-1.02314
-1.02326
-1.02618
-1.02634
-1.02902
-1.02914
-1.0319
-1.03207
-1.03458
-1.03469
-1.03729
-1.03747
-1.03979
-1.03989
-1.04233
-1.04252
-1.04464
-1.04472
-1.047
-1.0472
-1.04911
-1.04917
-1.05128
-1.0515
-1.05317
-1.05322
-1.05514
-1.05538
-1.05683
-1.05684
-1.05858
-1.05886
-1.06004
-1.06001
-1.06157
-1.0619
-1.06281
-1.06273
-1.06409
-1.06448
-1.0651
-1.06503
-1.06612
-1.06658
-1.06689
-1.06701
-1.06763
-1.06819
-1.06816
-1.06847
-1.06859
-1.06925
-1.06886
-1.0694
-1.06898
-1.06976
-1.06898
-1.06974
-1.06877
-1.06931
-1.0685
-1.06913
-1.06795
-1.06824
-1.06738
-1.0679
-1.06649
-1.06654
-1.06561
-1.06603
-1.06437
-1.06418
-1.06315
-1.06349
-1.06154
-1.06142
-1.05996
-1.06023
-1.05799
-1.05792
-1.05603
-1.05626
-1.05366
-1.05363
-1.05129
-1.05149
-1.04855
-1.04855
-1.04578
-1.04595
-1.04263
-1.04265
-1.03942
-1.03957
-1.03586
-1.0359
-1.03222
-1.03236
-1.02823
-1.02828
-1.02416
-1.02428
-1.01975
-1.01981
-1.01525
-1.01536
-1.0104
-1.01046
-1.00544
-1.00555
-1.00017
-1.00024
-0.994758
-0.994863
-0.989087
-0.989162
-0.983222
-0.983323
-0.97707
-0.977148
-0.970801
-0.9709
-0.964214
-0.964295
-0.95746
-0.957557
-0.950497
-0.95058
-0.943317
-0.943412
-0.935887
-0.935971
-0.928293
-0.928387
-0.920399
-0.920484
-0.912409
-0.912502
-0.904127
-0.904213
-0.895694
-0.895785
-0.887045
-0.887132
-0.878182
-0.878273
-0.869113
-0.8692
-0.859917
-0.860008
-0.850533
-0.850621
-0.840865
-0.840956
-0.831108
-0.831196
-0.821163
-0.821254
-0.811062
-0.81115
-0.800783
-0.800872
-0.790366
-0.790455
-0.779783
-0.779873
-0.768976
-0.769064
-0.75812
-0.75821
-0.747173
-0.747262
-0.735968
-0.736057
-0.72469
-0.724779
-0.713406
-0.713495
-0.701955
-0.702044
-0.69039
-0.690479
-0.678673
-0.678762
-0.666994
-0.667083
-0.655182
-0.65527
-0.643294
-0.643383
-0.631289
-0.631378
-0.619375
-0.619464
-0.607363
-0.607452
-0.595172
-0.595261
-0.583201
-0.58329
-0.571073
-0.571162
-0.558881
-0.558969
-0.546702
-0.546791
-0.534646
-0.534734
-0.522459
-0.522548
-0.510426
-0.510514
-0.498442
-0.498531
-0.486303
-0.486392
-0.474402
-0.474491
-0.46254
-0.462628
-0.450588
-0.450677
-0.438874
-0.438963
-0.427264
-0.427353
-0.415562
-0.41565
-0.403977
-0.404066
-0.392684
-0.392773
-0.381344
-0.381433
-0.370137
-0.370226
-0.359077
-0.359165
-0.348176
-0.348264
-0.33743
-0.337519
-0.326683
-0.326772
-0.316288
-0.316377
-0.305908
-0.305997
-0.29571
-0.295799
-0.285726
-0.285814
-0.275753
-0.275841
-0.266006
-0.266095
-0.256468
-0.256556
-0.247168
-0.247256
-0.238083
-0.238171
-0.229067
-0.229156
-0.220275
-0.220364
-0.211741
-0.21183
-0.20326
-0.203349
-0.195048
-0.195136
-0.187066
-0.187155
-0.179189
-0.179278
-0.171546
-0.171634
-0.164184
-0.164273
-0.156888
-0.156977
-0.149883
-0.149971
-0.143101
-0.14319
-0.136459
-0.136547
-0.130032
-0.130121
-0.123757
-0.123846
-0.117692
-0.11778
-0.111934
-0.112023
-0.106228
-0.106316
-0.100695
-0.100783
-0.0954867
-0.0955753
-0.090322
-0.0904105
-0.0854673
-0.0855558
-0.0806626
-0.0807511
-0.0761613
-0.0762499
-0.0717067
-0.0717952
-0.067557
-0.0676455
-0.0635579
-0.0636464
-0.0596368
-0.0597253
-0.055962
-0.0560505
-0.05238
-0.0524685
-0.0490221
-0.0491106
-0.045765
-0.0458535
-0.0427144
-0.0428029
-0.039767
-0.0398555
-0.0369219
-0.0370104
-0.0342734
-0.0343619
-0.0318019
-0.0318904
-0.0294339
-0.0295224
-0.0271505
-0.027239
-0.0249764
-0.0250649
-0.0230255
-0.023114
-0.0211059
-0.0211944
-0.0193293
-0.0194178
-0.0176471
-0.0177356
-0.0161018
-0.0161903
-0.0146372
-0.0147257
-0.0132538
-0.0133422
-0.011991
-0.0120795
-0.0108101
-0.0108986
-0.00973106
-0.00981954
-0.00869199
-0.00878046
-0.00778211
-0.00787058
-0.00691156
-0.00700004
-0.00612116
-0.00620963
-0.00540112
-0.0054896
-0.00475234
-0.00484081
-0.00416348
-0.00425194
-0.00361402
-0.00370248
-0.00311918
-0.00320765
-0.00268297
-0.00277144
-0.00229192
-0.00238038
-0.00193548
-0.00202394
-0.00163341
-0.00172188
-0.00136072
-0.00144919
-0.00112102
-0.00120949
-0.000917769
-0.00100624
-0.000741336
-0.0008298
-0.000585997
-0.000674462
-0.000453997
-0.000542465
-0.000345753
-0.000434218
-0.000255412
-0.000343875
-0.0001789
-0.000267364
-0.000117039
-0.000205505
-6.89162e-05
-0.000157381
-3.11519e-05
-0.000119614
-1.21472e-06
-8.96779e-05
2.10338e-05
-6.74309e-05
3.67768e-05
-5.16871e-05
4.77876e-05
-4.06749e-05
5.53989e-05
-3.30641e-05
6.01259e-05
-2.83374e-05
6.27937e-05
-2.56702e-05
6.41526e-05
-2.43102e-05
6.47526e-05
-2.37128e-05
6.4967e-05
-2.35078e-05
6.50256e-05
-2.34622e-05
)
;

boundaryField
{
    walls
    {
        type            zeroGradient;
    }
    inlet
    {
        type            cyclic;
    }
    outlet
    {
        type            cyclic;
    }
    sides
    {
        type            empty;
    }
}


// ************************************************************************* //
