/*--------------------------------*- C++ -*----------------------------------*\
| =========                 |                                                 |
| \\      /  F ield         | OpenFOAM: The Open Source CFD Toolbox           |
|  \\    /   O peration     | Version:  2012                                  |
|   \\  /    A nd           | Website:  www.openfoam.com                      |
|    \\/     M anipulation  |                                                 |
\*---------------------------------------------------------------------------*/
FoamFile
{
    version     2.0;
    format      ascii;
    class       volScalarField;
    location    "10600";
    object      k;
}
// * * * * * * * * * * * * * * * * * * * * * * * * * * * * * * * * * * * * * //

dimensions      [0 2 -2 0 0 0 0];


internalField   nonuniform List<scalar> 
2560
(
0.00458247
0.00457953
0.129285
0.12921
0.905755
0.905265
2.9196
2.9183
5.68894
5.68701
8.40014
8.39785
10.8354
10.8329
13.0247
13.022
15.0254
15.0225
16.8832
16.8803
18.6311
18.628
20.2927
20.2896
21.8856
21.8823
23.4227
23.4193
24.9144
24.9109
26.3688
26.3652
27.7925
27.7888
29.1909
29.1871
30.5686
30.5648
31.9297
31.9257
33.2774
33.2733
34.6146
34.6105
35.9441
35.9399
37.2681
37.2637
38.5886
38.5842
39.9078
39.9033
41.2275
41.2229
42.5494
42.5446
43.8751
43.8703
45.2063
45.2014
46.5447
46.5396
47.8916
47.8865
49.2487
49.2434
50.6171
50.6118
51.9983
51.9928
53.3933
53.3876
54.8031
54.7973
56.2288
56.2229
57.6713
57.6653
59.1318
59.1256
60.6113
60.605
62.1109
62.1045
63.6318
63.6253
65.1748
65.1681
66.7402
66.7334
68.3279
68.3209
69.9366
69.9294
71.5638
71.5565
73.2058
73.1983
74.8573
74.8497
76.5114
76.5037
78.1598
78.1519
79.7924
79.7845
81.3994
81.3913
82.9728
82.9645
84.5113
84.5028
86.0247
86.0159
87.5369
87.5278
89.0823
89.0728
90.6971
90.6872
92.3849
92.3744
94.1012
94.0904
95.7494
95.7384
97.1906
97.1796
98.2768
98.2662
98.8904
98.8802
98.9728
98.9635
98.5346
98.5263
97.6438
97.6364
96.4032
96.3967
94.9261
94.9204
93.3168
93.3117
91.6594
91.6546
90.0143
90.0097
88.4188
88.4144
86.8935
86.8892
85.4398
85.4356
84.0506
84.0465
82.7127
82.7088
81.4105
81.4068
80.1279
80.1245
78.8504
78.8474
77.5659
77.5633
76.2648
76.2626
74.9398
74.9381
73.5859
73.5846
72.1994
72.1985
70.7783
70.7777
69.3222
69.3219
67.8322
67.8322
66.3116
66.3118
64.766
64.7663
63.2031
63.2035
61.6328
61.6334
60.0664
60.0671
58.5155
58.5161
56.9906
56.9913
55.5006
55.5013
54.0514
54.0521
52.6464
52.647
51.2853
51.2859
49.9662
49.9668
48.6861
48.6867
47.4421
47.4427
46.2317
46.2323
45.0539
45.0545
43.9087
43.9093
42.7975
42.798
41.722
41.7225
40.6842
40.6847
39.6856
39.6861
38.7262
38.7267
37.8044
37.8048
36.9167
36.9172
36.058
36.0585
35.2219
35.2223
34.4013
34.4017
33.5896
33.5901
32.7819
32.7824
31.9755
31.976
31.1706
31.1711
30.3703
30.3708
29.5798
29.5803
28.8055
28.8059
28.0533
28.0537
27.328
27.3284
26.6323
26.6327
25.966
25.9663
25.3266
25.3269
24.7106
24.7109
24.1142
24.1145
23.5341
23.5344
22.968
22.9682
22.4147
22.415
21.8743
21.8746
21.3477
21.3479
20.8358
20.836
20.3399
20.3402
19.861
19.8612
19.3995
19.3997
18.9559
18.9561
18.5299
18.5301
18.1212
18.1214
17.7289
17.729
17.352
17.3522
16.9895
16.9896
16.64
16.6401
16.3026
16.3027
15.9764
15.9765
15.6608
15.6609
15.3557
15.3558
15.0613
15.0614
14.7782
14.7782
14.5071
14.5071
14.2489
14.2489
14.0047
14.0046
13.7753
13.7752
13.5615
13.5615
13.3641
13.364
13.1833
13.1832
13.0195
13.0193
12.8727
12.8725
12.7428
12.7425
12.6292
12.629
12.5315
12.5311
12.4483
12.4479
12.3782
12.3778
12.3191
12.3186
12.2681
12.2676
12.2219
12.2214
12.1767
12.1761
12.1282
12.1276
12.0722
12.0715
12.005
12.0043
11.9236
11.9229
11.8265
11.8259
11.7139
11.7133
11.5876
11.5871
11.4514
11.4511
11.3105
11.3103
11.1708
11.1707
11.0379
11.0378
10.9168
10.9168
10.811
10.8109
10.7216
10.7215
10.6476
10.6476
10.5861
10.5861
10.5322
10.5323
10.4806
10.4809
10.4259
10.4262
10.363
10.3634
10.2881
10.2886
10.1987
10.1992
10.0938
10.0943
9.97377
9.97429
9.84016
9.84064
9.69522
9.69566
9.54173
9.54213
9.38271
9.38307
9.22114
9.22146
9.05985
9.06013
8.90135
8.90159
8.74784
8.74805
8.60115
8.60133
8.46276
8.46291
8.33386
8.33399
8.21537
8.21548
8.10799
8.10808
8.01223
8.0123
7.9284
7.92846
7.85666
7.85669
7.79691
7.79694
7.7487
7.74872
7.7112
7.7112
7.68303
7.68302
7.66221
7.66218
7.64605
7.64601
7.6312
7.63115
7.61375
7.6137
7.58949
7.58943
7.55425
7.55419
7.50435
7.50428
7.43705
7.43699
7.35102
7.35096
7.2466
7.24655
7.12588
7.12585
6.99259
6.99257
6.85159
6.85159
6.7082
6.70821
6.56737
6.56739
6.43288
6.4329
6.30708
6.3071
6.18995
6.18996
6.07972
6.07974
5.97371
5.97374
5.869
5.86904
5.76312
5.76316
5.65467
5.65471
5.54349
5.54354
5.43058
5.43062
5.3177
5.31774
5.20693
5.20696
5.10016
5.10019
4.99884
4.99887
4.90381
4.90383
4.81541
4.81542
4.73355
4.73356
4.65798
4.65799
4.58844
4.58845
4.52479
4.5248
4.467
4.467
4.41509
4.41509
4.36908
4.36909
4.32894
4.32894
4.29449
4.29449
4.26544
4.26544
4.24143
4.24143
4.22202
4.22202
4.20681
4.20681
4.19541
4.19542
4.18755
4.18755
4.18301
4.18301
4.18174
4.18174
4.18374
4.18374
4.18914
4.18914
4.1981
4.1981
4.21082
4.21082
4.22746
4.22746
4.24816
4.24816
4.27296
4.27296
4.30186
4.30186
4.33479
4.33479
4.37165
4.37165
4.41234
4.41234
4.45678
4.45678
4.5049
4.5049
4.55666
4.55666
4.61202
4.61202
4.67096
4.67096
4.73346
4.73346
4.79949
4.79949
4.86903
4.86903
4.94205
4.94205
5.01852
5.01852
5.09841
5.09841
5.18171
5.18171
5.26841
5.26841
5.35857
5.35857
5.45227
5.45227
5.54963
5.54963
5.65081
5.65081
5.75597
5.75597
5.86526
5.86526
5.97878
5.97878
6.0966
6.0966
6.21874
6.21874
6.34524
6.34524
6.4761
6.4761
6.61139
6.61139
6.75119
6.75119
6.89568
6.89568
7.04506
7.04506
7.19961
7.19961
7.35966
7.35966
7.52558
7.52558
7.69774
7.69774
7.87652
7.87652
8.06233
8.06233
8.25555
8.25555
8.45657
8.45657
8.66579
8.66579
8.88358
8.88358
9.11029
9.11028
9.34609
9.34609
9.59082
9.59082
9.8434
9.8434
10.1001
10.1001
10.3495
10.3495
10.5583
10.5583
10.5446
10.5446
0.00457953
0.00458248
0.12921
0.129286
0.905266
0.905757
2.9183
2.9196
5.68701
5.68895
8.39786
8.40015
10.8329
10.8355
13.022
13.0247
15.0226
15.0254
16.8803
16.8832
18.628
18.6311
20.2896
20.2928
21.8823
21.8856
23.4193
23.4227
24.911
24.9145
26.3653
26.3689
27.7888
27.7925
29.1871
29.1909
30.5648
30.5686
31.9257
31.9297
33.2733
33.2774
34.6105
34.6147
35.9399
35.9441
37.2638
37.2681
38.5843
38.5887
39.9034
39.9079
41.2229
41.2275
42.5447
42.5494
43.8703
43.8751
45.2014
45.2064
46.5397
46.5447
47.8865
47.8917
49.2434
49.2487
50.6118
50.6172
51.9928
51.9984
53.3877
53.3933
54.7974
54.8031
56.2229
56.2288
57.6653
57.6714
59.1257
59.1318
60.605
60.6113
62.1045
62.111
63.6253
63.6319
65.1681
65.1749
66.7335
66.7403
68.321
68.328
69.9295
69.9366
71.5565
71.5638
73.1984
73.2058
74.8498
74.8574
76.5038
76.5115
78.152
78.1599
79.7845
79.7925
81.3913
81.3995
82.9646
82.9729
84.5028
84.5114
86.0159
86.0248
87.5278
87.537
89.0729
89.0824
90.6872
90.6972
92.3745
92.3849
94.0904
94.1013
95.7384
95.7495
97.1797
97.1907
98.2662
98.2769
98.8803
98.8904
98.9636
98.9729
98.5263
98.5347
97.6365
97.6439
96.3968
96.4033
94.9205
94.9262
93.3117
93.3169
91.6547
91.6595
90.0098
90.0143
88.4144
88.4189
86.8892
86.8935
85.4357
85.4399
84.0466
84.0507
82.7089
82.7128
81.4069
81.4105
80.1246
80.1279
78.8474
78.8504
77.5633
77.5659
76.2627
76.2648
74.9382
74.9399
73.5846
73.5859
72.1985
72.1994
70.7778
70.7784
69.322
69.3222
67.8322
67.8323
66.3119
66.3117
64.7664
64.766
63.2036
63.2031
61.6334
61.6328
60.0671
60.0664
58.5162
58.5155
56.9913
56.9907
55.5013
55.5007
54.0521
54.0514
52.647
52.6464
51.2859
51.2853
49.9668
49.9662
48.6867
48.6861
47.4427
47.4421
46.2323
46.2317
45.0545
45.0539
43.9093
43.9088
42.7981
42.7975
41.7226
41.722
40.6847
40.6842
39.6861
39.6856
38.7267
38.7262
37.8048
37.8044
36.9172
36.9167
36.0585
36.058
35.2223
35.2219
34.4017
34.4013
33.5901
33.5896
32.7824
32.7819
31.976
31.9755
31.1711
31.1706
30.3708
30.3703
29.5803
29.5798
28.8059
28.8055
28.0537
28.0533
27.3284
27.328
26.6327
26.6323
25.9663
25.966
25.3269
25.3266
24.7109
24.7106
24.1145
24.1142
23.5344
23.5341
22.9682
22.9679
22.4149
22.4147
21.8746
21.8743
21.3479
21.3476
20.836
20.8358
20.3401
20.3399
19.8612
19.8609
19.3997
19.3995
18.9561
18.9559
18.5301
18.5299
18.1213
18.1212
17.729
17.7288
17.3521
17.352
16.9895
16.9894
16.6401
16.64
16.3027
16.3026
15.9765
15.9764
15.6609
15.6608
15.3558
15.3557
15.0614
15.0613
14.7782
14.7781
14.507
14.507
14.2488
14.2488
14.0046
14.0046
13.7752
13.7752
13.5614
13.5615
13.3639
13.364
13.1831
13.1832
13.0193
13.0194
12.8724
12.8726
12.7425
12.7427
12.6289
12.6292
12.5311
12.5314
12.4479
12.4483
12.3777
12.3782
12.3185
12.319
12.2675
12.268
12.2213
12.2219
12.176
12.1767
12.1275
12.1282
12.0715
12.0722
12.0042
12.005
11.9229
11.9236
11.8258
11.8265
11.7132
11.7138
11.587
11.5875
11.451
11.4514
11.3103
11.3105
11.1706
11.1707
11.0378
11.0378
10.9167
10.9168
10.8108
10.8109
10.7214
10.7215
10.6475
10.6475
10.586
10.586
10.5322
10.5321
10.4807
10.4805
10.4261
10.4257
10.3633
10.3629
10.2885
10.288
10.1991
10.1986
10.0942
10.0937
9.97421
9.97367
9.84057
9.84007
9.6956
9.69514
9.54208
9.54166
9.38303
9.38265
9.22142
9.22109
9.06009
9.05979
8.90156
8.9013
8.74801
8.74779
8.60128
8.60109
8.46286
8.4627
8.33393
8.3338
8.21541
8.2153
8.108
8.10791
8.01221
8.01214
7.92835
7.9283
7.85658
7.85654
7.7968
7.79678
7.74857
7.74856
7.71103
7.71104
7.68284
7.68286
7.66199
7.66203
7.64582
7.64586
7.63096
7.63101
7.6135
7.61357
7.58925
7.58933
7.55402
7.55411
7.50414
7.50423
7.43688
7.43696
7.35089
7.35097
7.2465
7.24657
7.12583
7.12588
6.99258
6.99261
6.85161
6.85162
6.70823
6.70823
6.5674
6.56738
6.43289
6.43288
6.30708
6.30706
6.18992
6.18991
6.07968
6.07966
5.97368
5.97365
5.86898
5.86894
5.76312
5.76307
5.65469
5.65464
5.54353
5.54348
5.43064
5.43058
5.31777
5.31772
5.207
5.20695
5.10022
5.10019
4.99889
4.99886
4.90385
4.90382
4.81544
4.81542
4.73358
4.73356
4.65799
4.65798
4.58845
4.58844
4.5248
4.52479
4.467
4.46699
4.41508
4.41507
4.36907
4.36907
4.32892
4.32892
4.29446
4.29446
4.26541
4.26541
4.2414
4.2414
4.222
4.22199
4.20678
4.20678
4.19539
4.19539
4.18753
4.18753
4.18301
4.183
4.18174
4.18173
4.18375
4.18375
4.18915
4.18915
4.19811
4.19811
4.21083
4.21083
4.22747
4.22748
4.24817
4.24817
4.27297
4.27297
4.30187
4.30187
4.33479
4.33479
4.37165
4.37165
4.41234
4.41234
4.45677
4.45678
4.5049
4.5049
4.55665
4.55666
4.61202
4.61202
4.67096
4.67096
4.73345
4.73346
4.79949
4.79949
4.86902
4.86903
4.94204
4.94205
5.01852
5.01852
5.09841
5.09841
5.1817
5.18171
5.26841
5.26841
5.35857
5.35857
5.45226
5.45227
5.54963
5.54963
5.65081
5.65081
5.75596
5.75597
5.86525
5.86525
5.97877
5.97877
6.09658
6.09659
6.21873
6.21873
6.34522
6.34523
6.47609
6.47609
6.61137
6.61138
6.75118
6.75119
6.89567
6.89567
7.04505
7.04505
7.1996
7.19961
7.35966
7.35966
7.52557
7.52558
7.69772
7.69773
7.87651
7.87651
8.06231
8.06232
8.25552
8.25553
8.45653
8.45654
8.66573
8.66574
8.88351
8.88352
9.11018
9.11019
9.34595
9.34596
9.59064
9.59065
9.84316
9.84317
10.0998
10.0998
10.3491
10.3491
10.5578
10.5578
10.5442
10.5442
10.5446
10.5446
10.5583
10.5583
10.3497
10.3497
10.1002
10.1002
9.84353
9.84353
9.59097
9.59097
9.34623
9.34623
9.11044
9.11044
8.88375
8.88375
8.66595
8.66595
8.45672
8.45672
8.2557
8.2557
8.06248
8.06248
7.87667
7.87667
7.69789
7.69789
7.52575
7.52575
7.35985
7.35985
7.1998
7.1998
7.04524
7.04524
6.89586
6.89586
6.75137
6.75137
6.61158
6.61158
6.4763
6.4763
6.34545
6.34545
6.21896
6.21896
6.09681
6.09681
5.97899
5.97899
5.86547
5.86547
5.75618
5.75618
5.65103
5.65103
5.54985
5.54985
5.45249
5.45249
5.35879
5.35879
5.26863
5.26863
5.18191
5.18191
5.09859
5.09859
5.01868
5.01868
4.94219
4.94219
4.86916
4.86916
4.79961
4.79961
4.73357
4.73357
4.67106
4.67106
4.61211
4.61211
4.55673
4.55673
4.50496
4.50496
4.45682
4.45682
4.41236
4.41236
4.37166
4.37165
4.33478
4.33478
4.30184
4.30184
4.27292
4.27292
4.2481
4.2481
4.22738
4.22738
4.21072
4.21072
4.19798
4.19798
4.18899
4.18899
4.18357
4.18357
4.18155
4.18155
4.1828
4.1828
4.18729
4.18729
4.19511
4.19511
4.20646
4.20646
4.22164
4.22164
4.24102
4.24102
4.26502
4.26502
4.29404
4.29405
4.32848
4.32848
4.3686
4.3686
4.41458
4.41458
4.46646
4.46646
4.52422
4.52422
4.58783
4.58784
4.65734
4.65735
4.73289
4.73291
4.81473
4.81475
4.90311
4.90313
4.99813
4.99815
5.09943
5.09946
5.20619
5.20623
5.31699
5.31703
5.42992
5.42997
5.5429
5.54295
5.65415
5.6542
5.76266
5.76271
5.8686
5.86863
5.97338
5.97341
6.07943
6.07945
6.18969
6.18971
6.30686
6.30688
6.43269
6.43271
6.56722
6.56724
6.7081
6.70811
6.85155
6.85155
6.99264
6.99263
7.12604
7.12601
7.24681
7.24676
7.35124
7.35117
7.43725
7.43718
7.5045
7.50443
7.55436
7.55429
7.58958
7.58952
7.61384
7.61379
7.63129
7.63124
7.64614
7.6461
7.66228
7.66225
7.68307
7.68306
7.7112
7.7112
7.74867
7.74869
7.79684
7.79687
7.85655
7.8566
7.92827
7.92833
8.01206
8.01213
8.10778
8.10788
8.21512
8.21524
8.33357
8.33371
8.46243
8.4626
8.60077
8.60097
8.74742
8.74765
8.90088
8.90114
9.05933
9.05963
9.22059
9.22093
9.38213
9.38252
9.54113
9.54156
9.69457
9.69504
9.83945
9.83997
9.97302
9.97357
10.093
10.0936
10.1979
10.1984
10.2872
10.2878
10.362
10.3625
10.4248
10.4252
10.4794
10.4797
10.531
10.5311
10.5848
10.5849
10.6464
10.6463
10.7203
10.7202
10.8097
10.8096
10.9155
10.9154
11.0365
11.0364
11.1694
11.1692
11.3091
11.3089
11.4499
11.4496
11.586
11.5855
11.7123
11.7117
11.825
11.8243
11.9221
11.9214
12.0034
12.0027
12.0706
12.0698
12.1265
12.1257
12.1749
12.1742
12.22
12.2194
12.2661
12.2655
12.317
12.3165
12.3761
12.3756
12.4461
12.4457
12.5291
12.5288
12.6268
12.6265
12.7402
12.7399
12.87
12.8698
13.0167
13.0165
13.1804
13.1803
13.361
13.3609
13.5584
13.5583
13.772
13.7719
14.0012
14.0012
14.2453
14.2453
14.5033
14.5033
14.7743
14.7743
15.0573
15.0573
15.3515
15.3515
15.6564
15.6565
15.9717
15.9718
16.2977
16.2978
16.6349
16.635
16.9841
16.9842
17.3464
17.3466
17.7231
17.7232
18.1152
18.1154
18.5237
18.5239
18.9495
18.9497
19.3929
19.3931
19.8541
19.8543
20.3328
20.3331
20.8284
20.8287
21.34
21.3403
21.8664
21.8666
22.4064
22.4066
22.9593
22.9596
23.5251
23.5254
24.1048
24.1051
24.7008
24.7012
25.3165
25.3168
25.9556
25.9559
26.6216
26.6219
27.3169
27.3173
28.0418
28.0423
28.7936
28.7941
29.5676
29.5681
30.3578
30.3583
31.1577
31.1582
31.9622
31.9627
32.7682
32.7687
33.5755
33.576
34.3868
34.3873
35.2071
35.2075
36.0429
36.0433
36.9011
36.9015
37.7883
37.7888
38.7096
38.7101
39.6685
39.669
40.6666
40.6671
41.7038
41.7044
42.7788
42.7793
43.8895
43.89
45.0341
45.0346
46.2113
46.2119
47.421
47.4216
48.6644
48.665
49.9439
49.9445
51.2624
51.263
52.6228
52.6234
54.0272
54.0279
55.4758
55.4764
56.9651
56.9657
58.4892
58.4899
60.0395
60.0401
61.6052
61.6057
63.175
63.1754
64.7375
64.7378
66.2829
66.283
67.8032
67.803
69.2927
69.2922
70.748
70.7472
72.1682
72.1669
73.5538
73.552
74.9068
74.9045
76.2308
76.2279
77.5309
77.5274
78.8143
78.8103
80.0907
80.0861
81.3721
81.3672
82.6733
82.668
84.0101
84.0045
85.3983
85.3925
86.8509
86.845
88.3751
88.3691
89.9696
89.9633
91.6138
91.6072
93.2703
93.2632
94.8788
94.871
96.3551
96.3464
97.5956
97.5858
98.487
98.476
98.9258
98.9137
98.844
98.8309
98.2309
98.2172
97.1447
97.1307
95.7034
95.6895
94.0553
94.0417
92.3397
92.3265
90.6524
90.6398
89.038
89.026
87.4932
87.4817
85.9817
85.9706
84.4693
84.4586
82.9319
82.9214
81.3597
81.3494
79.7541
79.7441
78.1228
78.113
76.4756
76.466
74.8224
74.8129
73.1718
73.1625
71.5308
71.5217
69.9045
69.8957
68.2967
68.2881
66.7099
66.7014
65.1453
65.137
63.6031
63.595
62.0829
62.075
60.584
60.5763
59.1053
59.0977
57.6455
57.6381
56.2036
56.1963
54.7786
54.7715
53.3694
53.3624
51.975
51.9682
50.5944
50.5878
49.2266
49.2201
47.8701
47.8638
46.5237
46.5175
45.1859
45.1799
43.8553
43.8494
42.5301
42.5244
41.2089
41.2033
39.8898
39.8843
38.5712
38.5658
37.2512
37.2459
35.9278
35.9227
34.5989
34.5939
33.2622
33.2573
31.915
31.9103
30.5545
30.5499
29.1774
29.1729
27.7796
27.7752
26.3565
26.3522
24.9027
24.8986
23.4116
23.4076
21.8751
21.8712
20.283
20.2792
18.622
18.6184
16.8748
16.8714
15.0177
15.0144
13.0178
13.0147
10.8295
10.8266
8.39513
8.39251
5.6851
5.68291
2.91728
2.91582
0.904951
0.904403
0.129168
0.129084
0.00457847
0.0045752
10.5442
10.5442
10.5579
10.5579
10.3493
10.3493
10.0999
10.0999
9.84329
9.84329
9.59078
9.59079
9.34609
9.3461
9.11034
9.11035
8.88368
8.88369
8.66589
8.6659
8.45668
8.45669
8.25567
8.25568
8.06246
8.06246
7.87666
7.87666
7.69788
7.69789
7.52574
7.52575
7.35984
7.35985
7.19979
7.1998
7.04523
7.04524
6.89585
6.89585
6.75136
6.75137
6.61156
6.61157
6.47629
6.47629
6.34543
6.34544
6.21894
6.21895
6.09679
6.0968
5.97898
5.97898
5.86546
5.86547
5.75618
5.75618
5.65102
5.65103
5.54984
5.54985
5.45249
5.45249
5.35879
5.35879
5.26862
5.26863
5.1819
5.1819
5.09858
5.09859
5.01867
5.01867
4.94218
4.94219
4.86915
4.86916
4.7996
4.79961
4.73356
4.73357
4.67106
4.67106
4.6121
4.61211
4.55673
4.55673
4.50495
4.50496
4.45682
4.45682
4.41236
4.41236
4.37165
4.37166
4.33478
4.33479
4.30184
4.30185
4.27293
4.27293
4.24811
4.24811
4.2274
4.2274
4.21074
4.21074
4.198
4.198
4.189
4.189
4.18358
4.18358
4.18155
4.18154
4.18279
4.18279
4.18728
4.18728
4.19509
4.19509
4.20644
4.20644
4.22162
4.22161
4.24099
4.24099
4.26499
4.26499
4.29402
4.29402
4.32846
4.32845
4.36859
4.36858
4.41457
4.41456
4.46646
4.46645
4.52422
4.52421
4.58784
4.58783
4.65736
4.65734
4.73292
4.7329
4.81476
4.81474
4.90315
4.90313
4.99818
4.99814
5.09949
5.09945
5.20625
5.20621
5.31705
5.317
5.42997
5.42992
5.54294
5.54288
5.65417
5.65411
5.76266
5.76261
5.86857
5.86853
5.97334
5.97331
6.07939
6.07937
6.18966
6.18965
6.30685
6.30684
6.4327
6.43269
6.56725
6.56723
6.70813
6.70812
6.85156
6.85157
6.99262
6.99266
7.12598
7.12604
7.24671
7.24678
7.35109
7.35117
7.43706
7.43715
7.50429
7.50438
7.55412
7.55421
7.58933
7.58941
7.61359
7.61366
7.63104
7.6311
7.6459
7.64595
7.66206
7.6621
7.68288
7.6829
7.71104
7.71104
7.74854
7.74853
7.79674
7.79671
7.85648
7.85644
7.92822
7.92816
8.01204
8.01196
8.1078
8.1077
8.21517
8.21505
8.33365
8.33351
8.46254
8.46237
8.60092
8.60072
8.7476
8.74737
8.9011
8.90083
9.05959
9.05928
9.22089
9.22053
9.38247
9.38207
9.54151
9.54106
9.69498
9.69449
9.8399
9.83936
9.97349
9.97292
10.0935
10.0929
10.1983
10.1977
10.2877
10.2871
10.3624
10.3619
10.425
10.4246
10.4796
10.4793
10.531
10.5309
10.5847
10.5847
10.6462
10.6463
10.7201
10.7202
10.8095
10.8096
10.9153
10.9154
11.0364
11.0365
11.1692
11.1693
11.3088
11.3091
11.4495
11.4499
11.5855
11.586
11.7116
11.7123
11.8243
11.825
11.9213
11.9221
12.0026
12.0034
12.0697
12.0705
12.1257
12.1264
12.1741
12.1748
12.2193
12.22
12.2655
12.2661
12.3164
12.3169
12.3755
12.376
12.4456
12.446
12.5287
12.5291
12.6264
12.6268
12.7399
12.7402
12.8698
12.87
13.0165
13.0167
13.1802
13.1804
13.3609
13.361
13.5583
13.5583
13.7719
13.772
14.0012
14.0012
14.2453
14.2453
14.5033
14.5033
14.7743
14.7743
15.0573
15.0573
15.3515
15.3515
15.6564
15.6564
15.9718
15.9717
16.2978
16.2977
16.635
16.6349
16.9842
16.9841
17.3466
17.3464
17.7232
17.7231
18.1154
18.1152
18.5239
18.5237
18.9497
18.9495
19.3931
19.3929
19.8543
19.8541
20.3331
20.3328
20.8287
20.8285
21.3403
21.3401
21.8667
21.8664
22.4067
22.4064
22.9596
22.9593
23.5254
23.5251
24.1052
24.1049
24.7012
24.7009
25.3169
25.3166
25.956
25.9556
26.622
26.6216
27.3174
27.317
28.0424
28.0419
28.7942
28.7937
29.5682
29.5677
30.3584
30.3579
31.1583
31.1578
31.9628
31.9623
32.7688
32.7684
33.5761
33.5757
34.3874
34.387
35.2077
35.2072
36.0434
36.043
36.9017
36.9013
37.7889
37.7885
38.7103
38.7098
39.6692
39.6687
40.6673
40.6668
41.7046
41.7041
42.7795
42.779
43.8902
43.8897
45.0349
45.0343
46.2121
46.2116
47.4218
47.4213
48.6652
48.6647
49.9447
49.9442
51.2632
51.2627
52.6237
52.6231
54.0282
54.0276
55.4767
55.4761
56.966
56.9654
58.4902
58.4896
60.0404
60.0399
61.6061
61.6056
63.1757
63.1754
64.7381
64.7379
66.2833
66.2833
67.8034
67.8036
69.2925
69.2931
70.7476
70.7485
72.1673
72.1687
73.5524
73.5543
74.9049
74.9073
76.2283
76.2313
77.5278
77.5314
78.8107
78.8148
80.0866
80.0912
81.3677
81.3727
82.6685
82.6739
84.005
84.0107
85.393
85.3989
86.8455
86.8516
88.3697
88.3758
89.9639
89.9703
91.6078
91.6145
93.2639
93.2711
94.8717
94.8796
96.347
96.3559
97.5864
97.5965
98.4767
98.4879
98.9143
98.9267
98.8316
98.8448
98.2178
98.2317
97.1314
97.1455
95.6901
95.7042
94.0423
94.0561
92.3271
92.3405
90.6404
90.6532
89.0266
89.0388
87.4823
87.494
85.9712
85.9825
84.4592
84.4701
82.922
82.9327
81.35
81.3604
79.7447
79.7548
78.1136
78.1235
76.4666
76.4763
74.8135
74.8231
73.1631
73.1725
71.5223
71.5314
69.8962
69.9052
68.2886
68.2974
66.702
66.7106
65.1375
65.1459
63.5955
63.6037
62.0755
62.0835
60.5767
60.5846
59.0981
59.1058
57.6385
57.646
56.1968
56.2041
54.7719
54.7791
53.3629
53.3699
51.9686
51.9755
50.5882
50.5949
49.2205
49.227
47.8641
47.8705
46.5179
46.5241
45.1803
45.1864
43.8497
43.8557
42.5247
42.5305
41.2036
41.2093
39.8846
39.8902
38.5661
38.5716
37.2462
37.2515
35.9229
35.9281
34.5942
34.5992
33.2575
33.2625
31.9105
31.9153
30.5501
30.5548
29.1731
29.1777
27.7754
27.7798
26.3524
26.3568
24.8988
24.903
23.4078
23.4119
21.8714
21.8753
20.2794
20.2832
18.6185
18.6222
16.8715
16.875
15.0146
15.0179
13.0148
13.018
10.8267
10.8296
8.39259
8.39523
5.68297
5.68518
2.91585
2.91732
0.904414
0.904968
0.129085
0.12917
0.00457525
0.00457855
)
;

boundaryField
{
    walls
    {
        type            kqRWallFunction;
        value           nonuniform List<scalar> 8(0.00458247 0.00457953 0.00457953 0.00458248 0.00457847 0.00457525 0.0045752 0.00457855);
    }
    inlet
    {
        type            cyclic;
    }
    outlet
    {
        type            cyclic;
    }
    sides
    {
        type            empty;
    }
}


// ************************************************************************* //
