/*--------------------------------*- C++ -*----------------------------------*\
| =========                 |                                                 |
| \\      /  F ield         | OpenFOAM: The Open Source CFD Toolbox           |
|  \\    /   O peration     | Version:  2012                                  |
|   \\  /    A nd           | Website:  www.openfoam.com                      |
|    \\/     M anipulation  |                                                 |
\*---------------------------------------------------------------------------*/
FoamFile
{
    version     2.0;
    format      ascii;
    class       volSymmTensorField;
    location    "10600";
    object      turbulenceProperties:R;
}
// * * * * * * * * * * * * * * * * * * * * * * * * * * * * * * * * * * * * * //

dimensions      [0 2 -2 0 0 0 0];


internalField   nonuniform List<symmTensor> 
2560
(
(0.00305498 -9.19263e-07 -1.33383e-09 0.00305498 -7.9763e-09 0.00305498)
(0.00305302 -9.1777e-07 -1.33297e-09 0.00305302 4.13161e-13 0.00305302)
(0.0861903 -0.000148558 -6.5063e-07 0.0861903 -2.34981e-11 0.0861903)
(0.0861402 -0.000148327 -6.50247e-07 0.08614 6.15224e-11 0.0861402)
(0.603836 -0.00310065 -1.85708e-05 0.603838 8.88614e-06 0.603836)
(0.60351 -0.00309603 -1.85437e-05 0.603509 1.07553e-10 0.603511)
(1.9464 -0.0215773 -0.000131111 1.9464 7.58339e-05 1.9464)
(1.94554 -0.0215483 -0.00013094 1.94553 1.08709e-09 1.94554)
(3.79262 -0.072352 -0.000446006 3.79263 0.000167698 3.79262)
(3.79134 -0.0722695 -0.000445518 3.79133 2.82609e-09 3.79134)
(5.60009 -0.155147 -0.000969821 5.6001 0.000179067 5.60009)
(5.59857 -0.154998 -0.000968932 5.59856 1.81146e-09 5.59857)
(7.22362 -0.260854 -0.00165298 7.22364 0.000151114 7.22362)
(7.22196 -0.260641 -0.00165171 7.22194 1.11862e-09 7.22196)
(8.68312 -0.382216 -0.00245518 8.68314 0.000122834 8.68312)
(8.68134 -0.381952 -0.0024536 8.68132 1.91778e-09 8.68134)
(10.0169 -0.514839 -0.00335465 10.0169 0.000101243 10.0169)
(10.015 -0.514543 -0.00335287 10.015 2.258e-10 10.015)
(11.2555 -0.65665 -0.00434345 11.2555 8.52603e-05 11.2555)
(11.2535 -0.656339 -0.00434159 11.2535 3.73297e-09 11.2535)
(12.4207 -0.806239 -0.00541067 12.4208 7.31948e-05 12.4207)
(12.4187 -0.805935 -0.00540885 12.4187 -1.06088e-09 12.4187)
(13.5285 -0.962132 -0.00655115 13.5285 6.38556e-05 13.5285)
(13.5264 -0.961852 -0.00654949 13.5264 5.75836e-09 13.5264)
(14.5904 -1.12382 -0.00776632 14.5904 5.65366e-05 14.5904)
(14.5883 -1.12358 -0.00776494 14.5879 -6.21577e-07 14.5883)
(15.6151 -1.29017 -0.00904192 15.6152 4.96908e-05 15.6151)
(15.6129 -1.28999 -0.00904092 15.6129 -8.22091e-09 15.6129)
(16.6096 -1.4582 -0.010355 16.6096 4.54679e-05 16.6096)
(16.6077 -1.45808 -0.0103544 16.6066 6.92164e-07 16.6077)
(17.5792 -1.62434 -0.0116819 17.5792 3.7864e-05 17.5792)
(17.5768 -1.6243 -0.0116819 17.5768 -4.85514e-08 17.5768)
(18.5283 -1.78568 -0.0130054 18.5283 3.69471e-05 18.5283)
(18.5262 -1.78572 -0.013006 18.5251 2.99078e-06 18.5262)
(19.4606 -1.94268 -0.0143488 19.4606 2.79303e-05 19.4606)
(19.4581 -1.9428 -0.0143499 19.4581 -1.9907e-08 19.4581)
(20.3791 -2.10158 -0.0157775 20.3791 3.35818e-05 20.3791)
(20.3765 -2.10177 -0.0157791 20.3765 3.44699e-08 20.3765)
(21.2864 -2.26974 -0.0173343 21.2865 2.00746e-05 21.2864)
(21.2838 -2.27 -0.0173364 21.2838 -4.16821e-09 21.2838)
(22.1849 -2.44822 -0.0189968 22.1849 3.50108e-05 22.1849)
(22.1822 -2.44854 -0.0189994 22.1822 6.18404e-08 22.1822)
(23.0764 -2.63136 -0.0207103 23.0765 1.27302e-05 23.0764)
(23.0737 -2.63174 -0.0207133 23.0737 9.90646e-09 23.0737)
(23.9627 -2.81293 -0.0224404 23.9627 3.77597e-05 23.9627)
(23.9599 -2.81335 -0.0224438 23.9599 -3.04316e-06 23.9599)
(24.8454 -2.99036 -0.0241835 24.8454 2.25753e-06 24.8454)
(24.8425 -2.99081 -0.0241871 24.8425 -6.88066e-08 24.8425)
(25.7258 -3.16354 -0.0259403 25.7258 4.45244e-05 25.7258)
(25.7228 -3.16401 -0.025944 25.7228 2.64788e-07 25.7228)
(26.6052 -3.33176 -0.0276964 26.6053 -1.23124e-05 26.6052)
(26.6022 -3.33223 -0.0277003 26.6022 -1.69141e-07 26.6022)
(27.485 -3.49256 -0.0294237 27.485 5.31911e-05 27.485)
(27.4819 -3.49303 -0.0294275 27.4819 1.98217e-06 27.4819)
(28.3662 -3.64256 -0.0310903 28.3663 -2.58415e-05 28.3662)
(28.3631 -3.64302 -0.031094 28.3631 -1.37553e-07 28.3631)
(29.2501 -3.77929 -0.0326802 29.25 6.05032e-05 29.2501)
(29.2468 -3.77972 -0.0326838 29.2468 -8.35942e-08 29.2468)
(30.1375 -3.90415 -0.0342267 30.1376 -3.81828e-05 30.1375)
(30.1343 -3.90454 -0.0342299 30.1343 -3.47179e-08 30.1343)
(31.0298 -4.02576 -0.0358409 31.0297 6.91352e-05 31.0298)
(31.0264 -4.0261 -0.0358436 31.0264 2.4568e-07 31.0264)
(31.9277 -4.16043 -0.0377007 31.9278 -5.14877e-05 31.9277)
(31.9243 -4.16069 -0.0377026 31.9243 5.34704e-08 31.9243)
(32.8325 -4.32754 -0.0399877 32.8324 7.94586e-05 32.8325)
(32.8289 -4.32771 -0.0399888 32.8289 3.49032e-07 32.8289)
(33.7447 -4.54178 -0.0428141 33.7449 -6.58144e-05 33.7447)
(33.7412 -4.54184 -0.0428142 33.7412 4.28238e-08 33.7412)
(34.6656 -4.80718 -0.0461809 34.6655 9.27308e-05 34.6656)
(34.6619 -4.80714 -0.0461799 34.6619 -6.50817e-06 34.6619)
(35.5954 -5.116 -0.0499846 35.5956 -8.82382e-05 35.5954)
(35.5918 -5.11584 -0.0499825 35.5918 -1.60675e-07 35.5918)
(36.5354 -5.452 -0.0540584 36.5353 0.000116512 36.5354)
(36.5316 -5.45173 -0.0540553 36.5316 -2.51175e-05 36.5316)
(37.4858 -5.79614 -0.0582284 37.486 -0.000146125 37.4858)
(37.4819 -5.79576 -0.0582242 37.4819 -5.46832e-07 37.4819)
(38.4476 -6.13311 -0.0623812 38.4474 0.000197147 38.4476)
(38.4435 -6.13261 -0.0623757 38.4435 -1.14843e-05 38.4435)
(39.4211 -6.45873 -0.066549 39.4214 -0.000250346 39.4211)
(39.4171 -6.4581 -0.0665417 39.4171 -7.53242e-07 39.4171)
(40.4076 -6.78817 -0.0710068 40.4073 0.000317326 40.4076)
(40.4033 -6.78735 -0.0709974 40.4033 8.5806e-06 40.4033)
(41.4072 -7.16263 -0.0763418 41.4075 -0.000370454 41.4072)
(41.403 -7.16157 -0.0763294 41.403 -6.70906e-07 41.403)
(42.4213 -7.64951 -0.0834257 42.421 0.000433076 42.4213)
(42.4168 -7.64815 -0.0834095 42.4168 2.14761e-05 42.4168)
(43.4497 -8.33107 -0.0932417 43.4501 -0.000472112 43.4497)
(43.4454 -8.32933 -0.093221 43.4454 -3.89759e-07 43.4454)
(44.4936 -9.2829 -0.10662 44.4933 0.000515637 44.4936)
(44.4889 -9.28075 -0.106594 44.4889 9.46938e-06 44.4889)
(45.5518 -10.5519 -0.124017 45.5523 -0.000550318 45.5518)
(45.5473 -10.5494 -0.123986 45.5473 -2.69679e-07 45.5473)
(46.6245 -12.1461 -0.145466 46.6241 0.00058559 46.6245)
(46.6196 -12.1432 -0.145431 46.6196 -3.42984e-06 46.6196)
(47.709 -14.0394 -0.170687 47.7095 -0.000627976 47.709)
(47.7043 -14.0361 -0.170649 47.7043 -3.33153e-07 47.7043)
(48.804 -16.1904 -0.199345 48.8035 0.000667776 48.804)
(48.7989 -16.1871 -0.199305 48.7989 -0.000129264 48.7989)
(49.9047 -18.5602 -0.231164 49.9052 -0.000845592 49.9047)
(49.8998 -18.5568 -0.231125 49.8998 -2.25342e-06 49.8998)
(51.0078 -21.103 -0.265607 51.0072 0.00101962 51.0078)
(51.0025 -21.0998 -0.265573 51.0025 0.000118089 51.0025)
(52.1063 -23.7266 -0.301218 52.1069 -0.00110169 52.1063)
(52.1013 -23.7241 -0.301192 52.1013 -4.00718e-06 52.1013)
(53.1952 -26.2327 -0.334744 53.1946 0.00113666 53.1952)
(53.1896 -26.2312 -0.334733 53.1896 -1.76669e-05 53.1896)
(54.2661 -28.2556 -0.360318 54.2667 -0.00125694 54.2661)
(54.2608 -28.2556 -0.360329 54.2608 -1.14568e-05 54.2608)
(55.3153 -29.2258 -0.369053 55.3149 0.00125877 55.3153)
(55.3097 -29.2279 -0.369095 55.3097 -5.23817e-05 55.3097)
(56.3406 -28.3992 -0.349801 56.3413 -0.00145494 56.3406)
(56.3352 -28.404 -0.349882 56.3352 -2.10656e-05 56.3352)
(57.3498 -24.9748 -0.291077 57.3498 0.00140311 57.3498)
(57.3439 -24.983 -0.291206 57.3439 -6.99897e-05 57.3439)
(58.3577 -18.2907 -0.184142 58.3584 -0.00171785 58.3577)
(58.3519 -18.3026 -0.184324 58.3519 -2.27117e-05 58.3519)
(59.3882 -3.95884 -0.0264765 59.3883 0.00160588 59.3882)
(59.3819 -3.9943 -0.0267136 59.3819 -3.99296e-05 59.3819)
(60.4647 0.0388258 -0.000263441 60.465 -0.00202744 60.4646)
(60.4581 2.92336e-16 1.42573e-21 60.4581 -6.76017e-06 60.4581)
(61.5899 21.2401 -0.179389 61.59 0.00189157 61.5899)
(61.583 21.2171 -0.179093 61.583 3.80376e-05 61.583)
(62.7343 37.875 -0.415279 62.7338 -0.00232709 62.7343)
(62.7269 37.8495 -0.414935 62.7269 2.0169e-05 62.7269)
(63.8329 53.5006 -0.656745 63.833 0.00222992 63.8329)
(63.8256 53.4738 -0.656368 63.8256 0.000107706 63.8256)
(64.794 66.3195 -0.876097 64.7931 -0.00255733 64.794)
(64.7864 66.293 -0.875708 64.7864 3.76823e-05 64.7864)
(65.5177 74.949 -1.04775 65.5182 0.0025389 65.5177)
(65.5108 74.9247 -1.04737 65.5108 9.33793e-05 65.5108)
(65.9272 78.6879 -1.15373 65.9263 -0.00267598 65.9272)
(65.9201 78.6678 -1.1534 65.9201 -0.000105011 65.9202)
(65.9815 77.5973 -1.18687 65.9826 0.00268308 65.9815)
(65.9757 77.5832 -1.18661 65.9757 -2.71584e-05 65.9757)
(65.69 72.3866 -1.15103 65.6892 -0.00269455 65.69)
(65.6842 72.3801 -1.15087 65.6842 -5.68448e-05 65.6842)
(65.0954 64.1544 -0.802311 65.0967 0.00269865 65.0954)
(65.0909 64.1565 -0.802273 65.0909 -9.8588e-06 65.0909)
(64.269 54.0989 -0.341726 64.2684 -0.00264588 64.269)
(64.2645 54.11 -0.34171 64.2645 -4.61064e-06 64.2645)
(63.2837 43.293 0.042961 63.2849 0.0026571 63.2837)
(63.2803 43.3123 0.042961 63.2803 2.80959e-07 63.2803)
(62.2114 32.5586 0.346202 62.2108 -0.00261017 62.2114)
(62.2078 32.5832 0.346192 62.2078 -0.000221138 62.2078)
(61.106 22.4419 0.289945 61.1068 0.00113064 61.106)
(61.1031 22.4681 0.290379 61.1031 -8.25455e-20 61.1031)
(60.0097 13.2538 0.149125 60.0091 -0.00013721 60.0097)
(60.0065 13.2796 0.149546 60.0065 0.000291101 60.0065)
(58.9456 2.73302 0.0230276 58.9463 0.000141511 58.9456)
(58.9429 2.78009 0.0234242 58.9429 -1.94803e-20 58.9429)
(57.9292 -6.22079e-20 8.09998e-23 57.9286 -8.93127e-05 57.9292)
(57.9261 -0.00372776 3.18657e-05 57.9261 2.07536e-05 57.9261)
(56.9599 -7.75922 0.0876139 56.9599 1.33192e-05 56.9599)
(56.9565 -7.73885 0.0872456 56.9583 7.90734e-06 56.9565)
(56.0339 -12.5993 0.182541 56.0334 -5.44637e-05 56.0339)
(56.031 -12.581 0.182202 56.031 1.92221e-05 56.031)
(55.1418 -16.449 0.261942 55.1418 1.13262e-05 55.1418)
(55.1374 -16.4327 0.261634 55.1429 5.2326e-05 55.1374)
(54.2738 -19.3956 0.326492 54.2734 -3.14163e-05 54.2738)
(54.2712 -19.3818 0.326219 54.2712 1.60945e-05 54.2712)
(53.4186 -21.543 0.1898 53.4186 9.20032e-06 53.4186)
(53.4153 -21.5323 0.189794 53.4185 3.23733e-05 53.4153)
(52.567 -23.0106 -0.0175919 52.5667 -1.83014e-05 52.567)
(52.5649 -23.0039 -0.0175928 52.5649 1.25592e-05 52.5649)
(51.7106 -23.9257 -0.239291 51.7106 6.65243e-06 51.7106)
(51.7083 -23.923 -0.239286 51.7099 2.11458e-05 51.7083)
(50.8433 -24.4098 -0.470935 50.843 -1.2637e-05 50.8433)
(50.8418 -24.4101 -0.470927 50.8418 2.02953e-06 50.8418)
(49.9599 -24.5644 -0.481558 49.9599 4.78096e-06 49.9599)
(49.9586 -24.5669 -0.481624 49.959 1.33279e-05 49.9586)
(49.0573 -24.463 -0.484364 49.0571 -1.56858e-05 49.0573)
(49.0564 -24.467 -0.484454 49.0564 -1.09251e-22 49.0564)
(48.1329 -24.1459 -0.483041 48.1329 -5.57457e-06 48.1329)
(48.1323 -24.1508 -0.483147 48.1324 1.57189e-05 48.1323)
(47.1856 -23.6214 -0.477262 47.1854 -2.11753e-05 47.1856)
(47.1852 -23.6268 -0.477376 47.1852 -6.64688e-07 47.1852)
(46.2148 -22.8715 -0.466229 46.2148 -8.53451e-06 46.2148)
(46.2145 -22.8772 -0.466349 46.2148 1.10181e-05 46.2145)
(45.2215 -21.8626 -0.448907 45.2214 -2.24886e-05 45.2215)
(45.2215 -21.8684 -0.44903 45.2215 -8.19708e-06 45.2215)
(44.2078 -20.558 -0.424265 44.2078 -1.19197e-05 44.2078)
(44.2078 -20.5639 -0.424389 44.2081 -9.17492e-07 44.2078)
(43.1773 -18.9305 -0.391577 43.1772 -2.34203e-05 43.1773)
(43.1776 -18.9363 -0.391701 43.1776 -1.29884e-05 43.1776)
(42.1354 -16.9747 -0.350681 42.1354 -1.36849e-05 42.1354)
(42.1356 -16.9803 -0.350803 42.1359 -4.22796e-06 42.1356)
(41.0886 -14.7148 -0.302145 41.0885 -2.19918e-05 41.0886)
(41.0889 -14.7203 -0.302265 41.0889 -1.33388e-05 41.0889)
(40.0443 -12.2069 -0.247273 40.0443 -1.23948e-05 40.0443)
(40.0446 -12.2121 -0.247388 40.0448 -4.20088e-06 40.0446)
(39.0103 -9.53466 -0.188054 39.0103 -1.75105e-05 39.0103)
(39.0108 -9.53957 -0.188163 39.0108 -1.04131e-05 39.0108)
(37.9938 -6.80493 -0.127063 37.9938 -8.08785e-06 37.9938)
(37.9942 -6.80947 -0.127164 37.9943 -9.79365e-07 37.9942)
(37.0004 -4.13571 -0.0671009 37.0004 -1.11552e-05 37.0004)
(37.0009 -4.13982 -0.0671929 37.0009 -5.25859e-06 37.0009)
(36.0343 -0.919972 -0.010961 36.0343 -1.11228e-06 36.0343)
(36.0347 -0.926789 -0.0110422 36.0348 6.11274e-06 36.0347)
(35.0976 3.49428e-14 -1.34639e-21 35.0975 -5.00047e-06 35.0976)
(35.098 0.000137246 -1.65899e-06 35.098 -3.59555e-08 35.098)
(34.1902 2.41803 -0.0387297 34.1902 8.58998e-07 34.1902)
(34.1906 2.41549 -0.0386608 34.1906 5.09919e-06 34.1906)
(33.3108 3.84667 -0.0800153 33.3107 -9.43143e-07 33.3108)
(33.3112 3.84472 -0.0799598 33.3112 3.42228e-06 33.3112)
(32.4574 4.82578 -0.111429 32.4574 4.15479e-06 32.4574)
(32.4578 4.82444 -0.111387 32.4579 8.29131e-06 32.4578)
(31.6281 5.35311 -0.132128 31.628 6.51346e-07 31.6281)
(31.6284 5.35239 -0.132102 31.6284 4.48187e-06 31.6284)
(30.8211 5.44861 -0.141897 30.8211 4.26752e-06 30.8211)
(30.8215 5.44849 -0.141886 30.8216 7.65538e-06 30.8215)
(30.0359 5.14887 -0.141013 30.0359 5.34563e-07 30.0359)
(30.0363 5.14932 -0.141018 30.0363 3.87631e-06 30.0363)
(29.2725 4.50209 -0.130168 29.2725 3.25045e-06 29.2725)
(29.2729 4.50307 -0.130187 29.2729 6.07339e-06 29.2729)
(28.5317 3.56292 -0.110343 28.5316 -2.28173e-07 28.5317)
(28.532 3.56435 -0.110376 28.532 2.64132e-06 28.532)
(27.8147 2.38921 -0.082699 27.8147 1.95463e-06 27.8147)
(27.815 2.391 -0.0827436 27.8151 4.33374e-06 27.815)
(27.1228 0.665678 -0.0485421 27.1228 -1.1309e-06 27.1228)
(27.1231 0.669964 -0.0485959 27.1231 1.30869e-06 27.1231)
(26.4571 -0.0013546 -0.0335491 26.4571 5.08745e-07 26.4571)
(26.4574 -7.00614e-16 -0.0334869 26.4574 2.49839e-06 26.4574)
(25.8175 -1.93767 -0.07821 25.8175 -2.43406e-06 25.8175)
(25.8178 -1.93554 -0.0781494 25.8178 -3.29593e-07 25.8178)
(25.2029 -3.4397 -0.122804 25.2029 -1.37177e-06 25.2029)
(25.2032 -3.43772 -0.122749 25.2032 2.87561e-07 25.2032)
(24.6111 -4.86145 -0.165253 24.6111 -4.47273e-06 24.6111)
(24.6114 -4.85974 -0.165207 24.6114 -2.62136e-06 24.6114)
(24.0387 -6.13393 -0.203348 24.0387 -4.00252e-06 24.0387)
(24.039 -6.13259 -0.203314 24.039 -2.66787e-06 24.039)
(23.4813 -7.18988 -0.234875 23.4813 -6.91825e-06 23.4813)
(23.4816 -7.18896 -0.234854 23.4816 -5.35817e-06 23.4816)
(22.9342 -7.96765 -0.257726 22.9342 -6.80441e-06 22.9342)
(22.9345 -7.96719 -0.257719 22.9345 -5.71058e-06 22.9345)
(22.3931 -8.41618 -0.27011 22.3931 -9.56517e-06 22.3931)
(22.3934 -8.41617 -0.270116 22.3934 -8.22933e-06 22.3934)
(21.8546 -8.50081 -0.270748 21.8546 -9.69733e-06 21.8546)
(21.8549 -8.5012 -0.270767 21.8549 -8.78029e-06 21.8549)
(21.317 -8.20846 -0.259077 21.317 -1.24483e-05 21.317)
(21.3173 -8.2092 -0.259106 21.3173 -1.12897e-05 21.3173)
(20.7804 -7.55064 -0.235344 20.7804 -1.31471e-05 20.7804)
(20.7807 -7.55166 -0.235382 20.7807 -1.24375e-05 20.7807)
(20.2469 -6.56458 -0.20071 20.2469 -1.65255e-05 20.2469)
(20.2472 -6.56579 -0.200753 20.2472 -1.546e-05 20.2472)
(19.7199 -5.31159 -0.157165 19.7199 -1.83948e-05 19.7199)
(19.7202 -5.31291 -0.157211 19.7202 -1.79713e-05 19.7202)
(19.2036 -3.87202 -0.107395 19.2036 -2.31397e-05 19.2036)
(19.2039 -3.87338 -0.107442 19.2039 -2.2078e-05 19.2039)
(18.7022 -2.33845 -0.0545454 18.7022 -2.65841e-05 18.7022)
(18.7025 -2.33978 -0.0545912 18.7025 -2.64643e-05 18.7025)
(18.2187 -0.107888 -0.00189813 18.2187 -3.27637e-05 18.2187)
(18.2189 -0.11032 -0.00194093 18.2189 -3.16824e-05 18.2189)
(17.7549 0.00110505 -1.97244e-05 17.7549 -3.74473e-05 17.7549)
(17.7551 2.99027e-14 -0 17.7551 -3.73568e-05 17.7551)
(17.3106 1.90041 -0.047368 17.3106 -4.37245e-05 17.3106)
(17.3109 1.89943 -0.0473298 17.3109 -4.27286e-05 17.3109)
(16.8844 2.94044 -0.0905993 16.8844 -4.77021e-05 16.8844)
(16.8846 2.93965 -0.0905668 16.8846 -4.76557e-05 16.8846)
(16.4737 3.71782 -0.12577 16.4738 -5.17189e-05 16.4737)
(16.474 3.71722 -0.125744 16.474 -5.10982e-05 16.474)
(16.0762 4.22337 -0.151664 16.0762 -5.26063e-05 16.0762)
(16.0764 4.22297 -0.151645 16.0764 -5.24136e-05 16.0764)
(15.6894 4.47228 -0.167998 15.6894 -5.12992e-05 15.6894)
(15.6896 4.47205 -0.167986 15.6896 -5.0629e-05 15.6896)
(15.312 4.49963 -0.175363 15.312 -4.70157e-05 15.312)
(15.3121 4.49956 -0.175358 15.3122 -4.62775e-05 15.3121)
(14.9431 4.35437 -0.175073 14.9431 -3.85338e-05 14.9431)
(14.9433 4.35443 -0.175074 14.9433 -3.771e-05 14.9433)
(14.5829 4.09299 -0.168951 14.5829 -2.88354e-05 14.5829)
(14.583 4.09313 -0.168955 14.5831 -2.76458e-05 14.583)
(14.2318 3.77284 -0.15911 14.2318 -1.50068e-05 14.2318)
(14.2319 3.77302 -0.159117 14.2319 -1.32792e-05 14.2319)
(13.8905 3.4457 -0.147692 13.8905 -4.3237e-07 13.8905)
(13.8907 3.44589 -0.147699 13.8907 1.21145e-06 13.8907)
(13.56 3.15311 -0.136603 13.5599 1.28872e-05 13.56)
(13.5601 3.15327 -0.13661 13.5601 1.49937e-05 13.5601)
(13.2406 2.92414 -0.12737 13.2406 2.68122e-05 13.2406)
(13.2408 2.92424 -0.127375 13.2408 2.73296e-05 13.2408)
(12.933 2.7747 -0.121042 12.933 3.92916e-05 12.933)
(12.9332 2.77474 -0.121046 12.9332 4.09378e-05 12.9332)
(12.6373 2.70814 -0.118161 12.6372 4.69201e-05 12.6373)
(12.6374 2.70812 -0.118161 12.6374 4.58873e-05 12.6374)
(12.3533 2.71697 -0.118762 12.3533 5.19178e-05 12.3533)
(12.3534 2.71689 -0.11876 12.3534 5.40349e-05 12.3534)
(12.0808 2.78562 -0.122452 12.0808 5.25166e-05 12.0808)
(12.0809 2.78549 -0.122447 12.0809 5.21431e-05 12.0809)
(11.8193 2.89332 -0.128511 11.8192 5.13793e-05 11.8193)
(11.8194 2.89315 -0.128504 11.8193 5.4124e-05 11.8194)
(11.568 3.01701 -0.135994 11.568 4.63347e-05 11.568)
(11.5681 3.01683 -0.135986 11.5681 4.7386e-05 11.5681)
(11.3263 3.13447 -0.143869 11.3263 4.15715e-05 11.3263)
(11.3264 3.1343 -0.14386 11.3264 4.51524e-05 11.3264)
(11.0934 3.2264 -0.151149 11.0934 3.39867e-05 11.0934)
(11.0934 3.22625 -0.151141 11.0934 3.57066e-05 11.0934)
(10.8684 3.27779 -0.15696 10.8684 2.8613e-05 10.8684)
(10.8685 3.27767 -0.156953 10.8685 3.33076e-05 10.8685)
(10.6509 3.27911 -0.160624 10.651 2.1097e-05 10.6509)
(10.651 3.27903 -0.160619 10.651 2.25605e-05 10.651)
(10.4406 3.2266 -0.161721 10.4406 1.72107e-05 10.4406)
(10.4406 3.22657 -0.161718 10.4406 1.63303e-05 10.4406)
(10.2372 3.12169 -0.160088 10.2372 1.10846e-05 10.2372)
(10.2372 3.12171 -0.160088 10.2372 -1.61831e-06 10.2372)
(10.0409 2.97029 -0.1558 10.0409 9.35721e-06 10.0409)
(10.0409 2.97035 -0.155803 10.0409 8.22889e-06 10.0409)
(9.85212 2.78196 -0.149157 9.85213 4.71722e-06 9.85212)
(9.85214 2.78207 -0.149162 9.85216 -1.68847e-06 9.85214)
(9.67137 2.56862 -0.140644 9.67137 3.22813e-06 9.67137)
(9.67138 2.56876 -0.14065 9.67139 1.12427e-05 9.67138)
(9.49926 2.3433 -0.130856 9.49926 -1.6771e-06 9.49926)
(9.49926 2.34346 -0.130864 9.49927 -1.60006e-06 9.49926)
(9.33644 2.11937 -0.120468 9.33644 -3.44488e-07 9.33644)
(9.33642 2.11954 -0.120477 9.33643 1.50328e-05 9.33642)
(9.18351 1.90982 -0.110189 9.18351 -2.27593e-06 9.18351)
(9.18348 1.90997 -0.110197 9.18349 -1.49195e-06 9.18348)
(9.04102 1.72671 -0.100735 9.04102 -4.25658e-07 9.04102)
(9.04097 1.72684 -0.100743 9.04098 1.6861e-05 9.04097)
(8.90937 1.5809 -0.0927978 8.90937 -2.41824e-06 8.90937)
(8.9093 1.58099 -0.092804 8.90931 -1.37406e-06 8.9093)
(8.78886 1.48169 -0.0870371 8.78886 -4.54283e-07 8.78886)
(8.78878 1.48172 -0.0870407 8.78878 1.79375e-05 8.78878)
(8.67966 1.43678 -0.0840415 8.67966 -2.54179e-06 8.67966)
(8.67955 1.43675 -0.0840416 8.67956 -1.09308e-07 8.67955)
(8.5818 1.45253 -0.0843532 8.5818 -2.79604e-07 8.5818)
(8.58167 1.45242 -0.0843491 8.58167 1.91437e-05 8.58167)
(8.49517 1.53326 -0.0884607 8.49517 -2.59292e-06 8.49517)
(8.49501 1.53306 -0.0884516 8.49502 -3.91889e-07 8.49501)
(8.4195 1.68077 -0.096714 8.4195 -1.53652e-07 8.4195)
(8.41931 1.68047 -0.0966992 8.41931 1.93699e-05 8.41931)
(8.35431 1.89423 -0.109331 8.35431 -2.68982e-06 8.35431)
(8.35409 1.89383 -0.109309 8.3541 -3.66999e-07 8.35409)
(8.29887 2.16964 -0.126355 8.29887 -1.71189e-07 8.29887)
(8.29863 2.16913 -0.126327 8.29863 1.9402e-05 8.29863)
(8.25215 2.49933 -0.147607 8.25215 -2.75106e-06 8.25215)
(8.25187 2.49869 -0.14757 8.25187 -3.40404e-07 8.25187)
(8.21271 2.87165 -0.172634 8.21271 -1.813e-07 8.21271)
(8.2124 2.87086 -0.172588 8.2124 1.92693e-05 8.2124)
(8.17873 3.27108 -0.200692 8.17873 -2.77701e-06 8.17873)
(8.17838 3.27013 -0.200635 8.17838 -3.15643e-07 8.17838)
(8.14796 3.67817 -0.23073 8.14795 -1.82905e-07 8.14796)
(8.14758 3.67702 -0.230661 8.14758 1.89983e-05 8.14758)
(8.11781 4.07023 -0.261367 8.11781 -2.77018e-06 8.11781)
(8.11739 4.06885 -0.261283 8.1174 -2.9233e-07 8.11739)
(8.08547 4.42229 -0.290967 8.08547 -1.76761e-07 8.08547)
(8.08503 4.42061 -0.290863 8.08504 1.86682e-05 8.08503)
(8.04816 4.7084 -0.317662 8.04816 -2.73486e-06 8.04815)
(8.04769 4.70634 -0.317534 8.0477 -2.67339e-07 8.04769)
(8.00334 4.90352 -0.33949 8.00333 -1.57941e-07 8.00334)
(8.00287 4.90101 -0.339331 8.00287 1.73805e-05 8.00286)
(7.94909 4.98532 -0.354513 7.94909 -2.68197e-06 7.94909)
(7.94862 4.98232 -0.354317 7.94863 -2.36794e-07 7.94862)
(7.88437 4.93588 -0.360961 7.88436 -1.20158e-07 7.88436)
(7.88392 4.93252 -0.360727 7.88393 1.52152e-05 7.88392)
(7.80924 4.74346 -0.338267 7.80924 -2.62032e-06 7.80924)
(7.80885 4.74015 -0.338245 7.80886 -2.03529e-07 7.80885)
(7.72504 4.40406 -0.170074 7.72503 -2.85582e-07 7.72504)
(7.72472 4.40176 -0.170055 7.72473 1.3323e-05 7.72472)
(7.63427 3.9215 -0.0133542 7.63427 -2.56528e-06 7.63427)
(7.63405 3.92185 -0.0133371 7.63405 -1.59956e-07 7.63405)
(7.54037 3.3087 0.125953 7.54036 -5.09303e-07 7.54037)
(7.54022 3.31226 0.125968 7.54023 1.1749e-05 7.54022)
(7.44719 2.58732 0.171831 7.44719 -2.60466e-06 7.44719)
(7.44711 2.59268 0.172283 7.44711 -1.70437e-07 7.44711)
(7.3586 1.78334 0.107876 7.35859 -7.48498e-07 7.3586)
(7.35855 1.78906 0.108324 7.35855 1.0474e-05 7.35855)
(7.2779 0.92669 0.0391273 7.2779 -2.64968e-06 7.27789)
(7.27786 0.932192 0.0395564 7.27786 -1.94026e-07 7.27786)
(7.20732 -4.53023e-20 6.59003e-17 7.20732 -9.50701e-07 7.20732)
(7.20728 0.00114431 4.65088e-05 7.20729 9.41468e-06 7.20728)
(7.14771 -0.780201 0.0321712 7.14771 -2.67766e-06 7.14771)
(7.14767 -0.769784 0.0317417 7.14767 -2.13861e-07 7.14767)
(7.09843 -1.63105 0.103548 7.09843 -1.13818e-06 7.09843)
(7.09841 -1.62569 0.103103 7.09841 8.50274e-06 7.09841)
(7.05739 -2.37471 0.171837 7.05739 -2.71727e-06 7.05739)
(7.05739 -2.36968 0.171381 7.0574 -2.15387e-07 7.05739)
(7.02148 -3.01917 0.158156 7.02148 -1.3289e-06 7.02148)
(7.02155 -3.01572 0.158137 7.02155 7.64487e-06 7.02154)
(6.98709 -3.54618 0.0154511 6.98709 -2.75487e-06 6.98709)
(6.98723 -3.54594 0.0154295 6.98724 -4.74393e-07 6.98723)
(6.95058 -3.94691 -0.151665 6.95058 -1.56694e-06 6.95058)
(6.95081 -3.94944 -0.151688 6.95082 6.85195e-06 6.95081)
(6.90867 -4.21888 -0.338167 6.90867 -2.94288e-06 6.90867)
(6.90896 -4.22232 -0.338191 6.90897 -8.63126e-07 6.90896)
(6.85873 -4.36463 -0.402953 6.85873 -1.89612e-06 6.85873)
(6.85907 -4.3679 -0.40323 6.85908 6.14122e-06 6.85907)
(6.79912 -4.39369 -0.40653 6.79912 -3.19052e-06 6.79912)
(6.79947 -4.3964 -0.406752 6.79948 -1.3094e-06 6.79947)
(6.72918 -4.31988 -0.401147 6.72918 -2.24922e-06 6.72918)
(6.72954 -4.32199 -0.401319 6.72955 5.47958e-06 6.72954)
(6.64918 -4.16015 -0.388201 6.64918 -3.46105e-06 6.64918)
(6.64952 -4.16175 -0.388333 6.64953 -1.74685e-06 6.64952)
(6.56011 -3.93318 -0.369136 6.5601 -2.62176e-06 6.56011)
(6.56042 -3.93441 -0.36924 6.56043 4.89931e-06 6.56042)
(6.46348 -3.65665 -0.345353 6.46348 -3.73921e-06 6.46348)
(6.46377 -3.6576 -0.345435 6.46378 -2.12246e-06 6.46377)
(6.36116 -3.3474 -0.318332 6.36115 -3.00182e-06 6.36116)
(6.36142 -3.34815 -0.318399 6.36143 4.43673e-06 6.36142)
(6.25514 -3.02072 -0.289351 6.25514 -4.0269e-06 6.25514)
(6.25538 -3.02132 -0.289406 6.25539 -1.84038e-06 6.25538)
(6.14743 -2.68894 -0.259466 6.14743 -5.32501e-06 6.14743)
(6.14764 -2.68943 -0.259511 6.14765 4.0941e-06 6.14764)
(6.0399 -2.3621 -0.229628 6.0399 -9.8557e-06 6.0399)
(6.04008 -2.3625 -0.229666 6.04009 -9.85226e-07 6.04008)
(5.93423 -2.04788 -0.200514 5.93423 -1.16208e-05 5.93423)
(5.93439 -2.04821 -0.200546 5.9344 3.84409e-06 5.93439)
(5.83189 -1.75091 -0.172523 5.83189 -1.35697e-05 5.83189)
(5.83203 -1.75118 -0.172549 5.83204 -1.53194e-07 5.83203)
(5.7341 -1.47331 -0.145846 5.73409 -1.4489e-05 5.7341)
(5.73422 -1.47354 -0.145869 5.73423 3.70183e-06 5.73422)
(5.64184 -1.21489 -0.1204 5.64184 -1.61078e-05 5.64184)
(5.64194 -1.21509 -0.120419 5.64195 6.41447e-07 5.64194)
(5.55591 -0.973101 -0.0958527 5.5559 -1.69264e-05 5.55591)
(5.55599 -0.973267 -0.09587 5.556 9.54651e-07 5.55599)
(5.47691 -0.743313 -0.0716217 5.47691 -1.78873e-05 5.47691)
(5.47698 -0.743461 -0.0716377 5.47699 -8.0899e-06 5.47698)
(5.40533 -0.519141 -0.0469143 5.40532 -1.83813e-05 5.40533)
(5.40539 -0.519277 -0.0469296 5.40539 -9.70947e-06 5.40539)
(5.34149 -0.29289 -0.0207629 5.34149 -1.8465e-05 5.34149)
(5.34153 -0.293023 -0.0207784 5.34154 -1.12076e-05 5.34153)
(5.28561 -0.000166751 -9.86435e-06 5.2856 -1.84834e-05 5.28561)
(5.28564 -0.000292591 -1.73086e-05 5.28564 -9.29529e-06 5.28564)
(5.23777 0.131329 -0.00788192 5.23777 -1.77892e-05 5.23777)
(5.23779 0.131055 -0.00786547 5.23781 -9.58886e-06 5.23779)
(5.19794 0.47494 -0.0401701 5.19794 -1.74245e-05 5.19794)
(5.19795 0.474786 -0.0401521 5.19796 -7.58771e-06 5.19795)
(5.1658 0.780269 -0.0766884 5.1658 -1.62277e-05 5.1658)
(5.16581 0.780098 -0.0766683 5.16582 -7.02843e-06 5.16581)
(5.1408 1.1139 -0.117895 5.1408 -1.5976e-05 5.1408)
(5.14079 1.11371 -0.117872 5.14081 -5.35736e-06 5.14079)
(5.12202 1.47275 -0.16382 5.12202 -1.4618e-05 5.12202)
(5.12201 1.47253 -0.163794 5.12202 -4.34917e-06 5.12201)
(5.10814 1.84971 -0.213981 5.10814 -1.50521e-05 5.10814)
(5.10812 1.84947 -0.213952 5.10813 -3.52022e-06 5.10812)
(5.09737 2.23349 -0.267315 5.09737 -1.39973e-05 5.09737)
(5.09734 2.23322 -0.267282 5.09735 -2.57985e-06 5.09734)
(5.08747 2.60909 -0.322126 5.08746 -1.55949e-05 5.08747)
(5.08743 2.60879 -0.322088 5.08745 -3.02642e-06 5.08743)
(5.07584 2.95844 -0.376185 5.07584 -1.48899e-05 5.07584)
(5.07579 2.95811 -0.376143 5.07581 -2.24558e-06 5.07579)
(5.05966 3.26159 -0.426745 5.05966 -1.78115e-05 5.05966)
(5.05962 3.26122 -0.426697 5.05963 -4.09932e-06 5.05962)
(5.03617 3.49824 -0.470785 5.03617 -1.70953e-05 5.03617)
(5.03612 3.49784 -0.470732 5.03614 -3.15724e-06 5.03612)
(5.0029 3.649 -0.505176 5.0029 -2.11096e-05 5.0029)
(5.00285 3.64856 -0.505117 5.00285 -6.16964e-06 5.00285)
(4.95804 3.69729 -0.526847 4.95804 -1.98313e-05 4.95804)
(4.95799 3.69681 -0.526782 4.958 -4.54929e-06 4.95799)
(4.90069 3.63094 -0.533182 4.90068 -2.43252e-05 4.90069)
(4.90064 3.63045 -0.533112 4.90064 -8.09485e-06 4.90064)
(4.83106 3.44377 -0.522124 4.83106 -2.1819e-05 4.83106)
(4.83103 3.44329 -0.522051 4.83104 -5.15312e-06 4.83103)
(4.75059 3.13663 -0.492588 4.75058 -2.62648e-05 4.75059)
(4.75056 3.13627 -0.492522 4.75056 -8.68679e-06 4.75056)
(4.66173 2.71787 -0.444463 4.66173 -2.20647e-05 4.66173)
(4.66171 2.71775 -0.444421 4.66173 -3.96391e-06 4.66171)
(4.56773 2.20437 -0.378849 4.56772 -2.63126e-05 4.56773)
(4.56773 2.2047 -0.378857 4.56773 -7.30733e-06 4.56773)
(4.47213 1.61985 -0.298307 4.47213 -2.01067e-05 4.47213)
(4.47214 1.62076 -0.298399 4.47215 -4.79309e-07 4.47214)
(4.37824 0.993449 -0.206253 4.37824 -2.49679e-05 4.37824)
(4.37826 0.99492 -0.206445 4.37826 -4.40476e-06 4.37826)
(4.28858 0.0846683 -0.10734 4.28858 -1.67523e-05 4.28858)
(4.28859 0.0883671 -0.107615 4.28861 4.55345e-06 4.28859)
(4.20472 -0.0025624 -0.0891427 4.20472 -2.3237e-05 4.20472)
(4.20473 -3.33988e-16 -0.0888952 4.20473 -9.27762e-07 4.20473)
(4.12663 -0.801697 -0.175304 4.12663 -1.34084e-05 4.12663)
(4.12664 -0.800484 -0.175154 4.12666 9.77783e-06 4.12664)
(4.05315 -1.26438 -0.247037 4.05314 -2.24284e-05 4.05315)
(4.05316 -1.26378 -0.246989 4.05316 1.84549e-06 4.05316)
(3.98248 -1.61747 -0.300587 3.98248 -1.15361e-05 3.98248)
(3.98249 -1.61741 -0.300616 3.98251 1.37409e-05 3.98249)
(3.91267 -1.84722 -0.333557 3.91266 -2.36279e-05 3.91267)
(3.91269 -1.8475 -0.333626 3.91269 2.81589e-06 3.91269)
(3.84208 -1.94907 -0.345038 3.84208 -1.11899e-05 3.84208)
(3.8421 -1.94951 -0.345122 3.84212 1.63641e-05 3.8421)
(3.76978 -1.92821 -0.335883 3.76978 -2.66085e-05 3.76978)
(3.76981 -1.92868 -0.335966 3.76981 2.18387e-06 3.76981)
(3.69566 -1.79901 -0.308504 3.69566 -1.18992e-05 3.69566)
(3.69568 -1.79946 -0.30858 3.69571 1.81021e-05 3.69568)
(3.62039 -1.5826 -0.26644 3.62038 -3.07044e-05 3.62039)
(3.62041 -1.58299 -0.266507 3.62041 6.1767e-07 3.62042)
(3.54514 -1.30497 -0.214329 3.54514 -1.25678e-05 3.54514)
(3.54515 -1.30531 -0.214387 3.54518 2.00787e-05 3.54515)
(3.47129 -0.994288 -0.15706 3.47128 -3.52899e-05 3.47129)
(3.47131 -0.994573 -0.157109 3.47131 -1.20481e-06 3.47131)
(3.40011 -0.677429 -0.0993776 3.40011 -1.24805e-05 3.40011)
(3.40012 -0.677665 -0.0994181 3.40014 2.30828e-05 3.40012)
(3.33256 -0.378503 -0.0456847 3.33256 -3.97731e-05 3.33256)
(3.33258 -0.378693 -0.0457172 3.33258 -2.60468e-06 3.33258)
(3.26921 -8.92101e-15 2.24981e-16 3.26921 -1.15822e-05 3.26921)
(3.26921 -0.000134477 -1.31851e-05 3.26924 2.72621e-05 3.26921)
(3.21027 0.00301212 -0.000299625 3.21027 -4.47404e-05 3.21027)
(3.21028 0.00276148 -0.000274693 3.21028 -4.07826e-06 3.21028)
(3.1557 0.237345 -0.0363303 3.1557 -9.99399e-06 3.1557)
(3.1557 0.237279 -0.0363132 3.15573 3.25793e-05 3.1557)
(3.10532 0.320553 -0.060365 3.10532 -5.0622e-05 3.10532)
(3.10532 0.320524 -0.0603555 3.10532 -5.98035e-06 3.10532)
(3.05896 0.343163 -0.0719068 3.05896 -8.05043e-06 3.05896)
(3.05896 0.343168 -0.0719045 3.05898 3.87689e-05 3.05896)
(3.01653 0.312256 -0.0716393 3.01653 -5.79184e-05 3.01653)
(3.01653 0.312289 -0.0716436 3.01653 -7.98056e-06 3.01653)
(2.978 0.237204 -0.0607799 2.978 -8.42613e-06 2.978)
(2.97799 0.237259 -0.0607897 2.97802 4.56277e-05 2.97799)
(2.94339 0.129856 -0.0411468 2.94339 -6.7008e-05 2.94339)
(2.94339 0.129924 -0.0411607 2.94339 -8.76241e-06 2.94339)
(2.91272 0.000355787 -0.0152537 2.91272 -9.28151e-06 2.91272)
(2.91272 0.000364241 -0.0152698 2.91274 5.3896e-05 2.91271)
(2.88596 -0.129495 -0.0450355 2.88596 -7.79582e-05 2.88596)