/*--------------------------------*- C++ -*----------------------------------*\
| =========                 |                                                 |
| \\      /  F ield         | OpenFOAM: The Open Source CFD Toolbox           |
|  \\    /   O peration     | Version:  2012                                  |
|   \\  /    A nd           | Website:  www.openfoam.com                      |
|    \\/     M anipulation  |                                                 |
\*---------------------------------------------------------------------------*/
FoamFile
{
    version     2.0;
    format      ascii;
    class       volVectorField;
    location    "10600";
    object      U;
}
// * * * * * * * * * * * * * * * * * * * * * * * * * * * * * * * * * * * * * //

dimensions      [0 1 -1 0 0 0 0];


internalField   nonuniform List<vector> 
2560
(
(0.0221929 -2.513e-05 0.00038416)
(0.0221711 -1.34488e-05 5.6237e-08)
(0.0666449 -8.13218e-06 0.000576172)
(0.0665795 1.2904e-05 1.53504e-08)
(0.111541 -1.96936e-05 0.000495804)
(0.111433 2.2682e-05 5.43098e-09)
(0.156883 -2.92557e-05 0.000316848)
(0.156734 2.92117e-05 3.3918e-09)
(0.202673 -3.35303e-05 0.000175804)
(0.202487 3.34036e-05 1.00641e-09)
(0.248911 -3.58003e-05 0.000104051)
(0.248692 3.57517e-05 2.53601e-10)
(0.295557 -3.72888e-05 6.88661e-05)
(0.295308 3.72501e-05 1.23268e-10)
(0.342539 -3.84128e-05 4.993e-05)
(0.342264 3.83048e-05 1.74857e-11)
(0.38978 -3.91676e-05 3.86411e-05)
(0.389484 3.917e-05 4.28631e-11)
(0.437267 -3.99447e-05 3.13304e-05)
(0.436954 3.97963e-05 3.5543e-21)
(0.485057 -4.03683e-05 2.62869e-05)
(0.48473 4.04215e-05 4.27435e-11)
(0.533155 -4.10223e-05 2.26348e-05)
(0.532819 4.08328e-05 -2.56777e-21)
(0.58157 -4.12899e-05 1.98884e-05)
(0.581228 4.13521e-05 1.54426e-10)
(0.630341 -4.17881e-05 1.77495e-05)
(0.629996 5.56634e-05 5.39731e-08)
(0.67943 -4.20329e-05 1.60738e-05)
(0.679086 1.38777e-05 -3.08804e-37)
(0.728715 -4.24051e-05 1.46895e-05)
(0.728374 9.40242e-05 1.0826e-07)
(0.778025 -4.30112e-05 1.35915e-05)
(0.777689 -3.55702e-05 1.39454e-09)
(0.827182 -4.28417e-05 1.26533e-05)
(0.826854 0.000126142 5.32429e-08)
(0.876148 -4.36365e-05 1.18732e-05)
(0.875828 -5.07778e-05 1.65353e-09)
(0.925103 -4.31338e-05 1.11965e-05)
(0.924794 0.000142596 5.23752e-08)
(0.97431 -4.43827e-05 1.06264e-05)
(0.974012 -6.61769e-05 1.09758e-09)
(1.02391 -4.3374e-05 1.01208e-05)
(1.02363 0.000158928 5.06066e-08)
(1.0739 -4.50625e-05 9.69168e-06)
(1.07362 -8.16423e-05 3.48866e-36)
(1.12417 -4.34426e-05 9.27864e-06)
(1.1239 0.000201685 1.60596e-07)
(1.17465 -4.58847e-05 8.97734e-06)
(1.17439 -0.000150259 0)
(1.22527 -4.35231e-05 8.65791e-06)
(1.22503 0.000265459 1.54406e-07)
(1.27598 -4.68863e-05 8.43011e-06)
(1.27575 -0.000209713 2.93688e-09)
(1.32665 -4.34467e-05 8.19456e-06)
(1.32643 0.000309679 9.86505e-08)
(1.37715 -4.79418e-05 8.00946e-06)
(1.37694 -0.000238288 5.39369e-09)
(1.42733 -4.313e-05 7.82344e-06)
(1.42714 0.000339729 1.0225e-07)
(1.47714 -4.91439e-05 7.68201e-06)
(1.47695 -0.000268064 4.88105e-09)
(1.52667 -4.2582e-05 7.53296e-06)
(1.52648 0.000370368 9.75594e-08)
(1.57623 -5.05624e-05 7.42331e-06)
(1.57605 -0.000297708 2.25059e-09)
(1.62633 -4.17202e-05 7.30258e-06)
(1.62616 0.000400612 9.0848e-08)
(1.67755 -5.22799e-05 7.21794e-06)
(1.67738 -0.000326769 -1.38675e-37)
(1.73038 -4.05251e-05 7.08748e-06)
(1.73021 0.000459591 2.34049e-07)
(1.78514 -5.44571e-05 7.06254e-06)
(1.78498 -0.000414849 5.03043e-37)
(1.84193 -3.8951e-05 6.83593e-06)
(1.84177 0.000649006 7.55102e-07)
(1.90068 -5.71451e-05 6.96404e-06)
(1.90052 -0.000708065 0)
(1.9612 -3.69153e-05 6.71691e-06)
(1.96104 0.000980322 9.91034e-07)
(2.02336 -6.0317e-05 6.92525e-06)
(2.0232 -0.00108245 -5.32238e-37)
(2.08728 -3.44011e-05 6.74878e-06)
(2.08711 0.00131915 8.44925e-07)
(2.15359 -6.39233e-05 6.93919e-06)
(2.15341 -0.00138952 0)
(2.22358 -3.13977e-05 6.88004e-06)
(2.22339 0.00155331 4.71821e-07)
(2.29921 -6.7955e-05 6.99274e-06)
(2.29901 -0.0015513 -4.22301e-37)
(2.3829 -2.7905e-05 6.98964e-06)
(2.3827 0.0016866 3.1502e-07)
(2.47721 -7.25138e-05 7.07696e-06)
(2.47699 -0.00165467 2.17681e-36)
(2.58446 -2.38297e-05 7.0749e-06)
(2.58422 0.00180099 3.76909e-07)
(2.70659 -7.77312e-05 7.19203e-06)
(2.70633 -0.00177886 -1.38206e-37)
(2.84514 -1.9049e-05 6.70286e-06)
(2.84486 0.0022766 2.47795e-06)
(3.00133 -8.31475e-05 7.36299e-06)
(3.00104 -0.00261437 0)
(3.17597 -1.35655e-05 7.38656e-06)
(3.17566 0.00279239 6.49889e-07)
(3.36886 -8.84998e-05 7.62408e-06)
(3.36854 -0.00280741 5.30537e-08)
(3.57783 -7.97596e-06 7.73805e-06)
(3.57752 0.00298979 9.31113e-07)
(3.79731 -9.41259e-05 8.12786e-06)
(3.79703 -0.00300667 2.15254e-07)
(4.01688 -3.72304e-06 8.40054e-06)
(4.01663 0.00322971 1.73421e-06)
(4.22032 -0.000100875 9.14671e-06)
(4.22013 -0.00328941 5.09328e-07)
(4.38594 -1.99166e-06 9.67729e-06)
(4.38583 0.00356726 2.79463e-06)
(4.4885 -0.000107901 1.08785e-05)
(4.48851 -0.00369177 8.12118e-07)
(4.50295 -1.69156e-06 1.165e-05)
(4.50308 0.00400739 3.41044e-06)
(4.40902 -0.000111785 1.3108e-05)
(4.4093 -0.00418012 8.73101e-07)
(4.19585 -8.44243e-07 1.39166e-05)
(4.1963 0.00448353 2.89489e-06)
(3.86505 -0.000110244 1.51732e-05)
(3.86566 -0.0046435 5.52361e-07)
(3.43134 -2.70878e-08 1.57594e-05)
(3.43212 0.00488683 1.38008e-06)
(2.92046 -0.000105087 1.64461e-05)
(2.92139 -0.00497445 3.22066e-21)
(2.36491 -2.15785e-06 1.66863e-05)
(2.36597 0.00515612 6.21436e-08)
(1.79898 -9.95668e-05 1.6478e-05)
(1.80014 -0.00499245 1.50661e-06)
(1.25406 -8.16643e-06 1.64956e-05)
(1.25526 0.00511061 4.32831e-07)
(0.755354 -9.50742e-05 1.59984e-05)
(0.756547 -0.00492004 2.34804e-06)
(0.320413 -1.61413e-05 1.59542e-05)
(0.321539 0.00500897 5.4958e-07)
(-0.0407787 -9.12776e-05 1.54404e-05)
(-0.0397819 -0.0048254 2.44259e-06)
(-0.32463 -2.36958e-05 1.5435e-05)
(-0.323817 0.00491506 5.17833e-07)
(-0.532273 -8.76459e-05 1.18312e-06)
(-0.531666 -0.000254566 5.83695e-06)
(-0.66794 -2.91305e-05 1.0136e-06)
(-0.66754 0.000315502 5.8919e-07)
(-0.737667 -8.32243e-05 9.35848e-07)
(-0.737467 -0.000153101 1.35862e-06)
(-0.748425 -3.34466e-05 7.73939e-07)
(-0.74841 0.000227537 4.39055e-07)
(-0.707597 -7.92539e-05 7.01534e-07)
(-0.707752 -7.55893e-05 1.03842e-06)
(-0.622674 -3.70675e-05 5.58113e-07)
(-0.622984 0.000161956 3.23133e-07)
(-0.501037 -7.59002e-05 4.94034e-07)
(-0.501486 -2.12758e-05 7.31788e-07)
(-0.349724 -4.01191e-05 3.69883e-07)
(-0.350295 0.000117926 2.20992e-07)
(-0.175242 -7.30911e-05 3.16319e-07)
(-0.175913 1.32145e-05 4.67036e-07)
(0.016616 -4.27331e-05 2.13127e-07)
(0.0158726 9.15609e-05 1.34826e-07)
(0.220941 -7.0649e-05 1.75609e-07)
(0.220164 3.16889e-05 2.54102e-07)
(0.433777 -4.4857e-05 9.68564e-08)
(0.432997 7.86351e-05 1.86841e-07)
(0.65204 -6.85164e-05 7.39765e-08)
(0.651279 3.89728e-05 2.18978e-07)
(0.873339 -4.65883e-05 1.10196e-08)
(0.872612 7.53582e-05 2.36028e-07)
(1.09571 -6.66742e-05 7.40837e-08)
(1.09503 3.84088e-05 2.32285e-07)
(1.31735 -4.80376e-05 1.13358e-07)
(1.31672 7.43622e-05 2.30389e-07)
(1.53628 -6.51393e-05 2.00563e-07)
(1.53571 4.1258e-05 2.44801e-07)
(1.75019 -4.93296e-05 2.74794e-07)
(1.74967 7.18178e-05 2.68407e-07)
(1.95628 -6.39247e-05 3.9634e-07)
(1.95582 4.36172e-05 4.03098e-07)
(2.15125 -5.05426e-05 5.07302e-07)
(2.15085 6.95314e-05 5.01822e-07)
(2.33146 -6.30148e-05 6.54911e-07)
(2.33111 4.55043e-05 6.61019e-07)
(2.49312 -5.16861e-05 7.82885e-07)
(2.49284 6.74643e-05 7.78234e-07)
(2.63271 -6.22945e-05 9.28981e-07)
(2.63247 4.70579e-05 9.34527e-07)
(2.7472 -5.26952e-05 1.04081e-06)
(2.74702 6.56609e-05 1.03691e-06)
(2.83449 -6.16712e-05 1.15019e-06)
(2.83437 4.83896e-05 1.15524e-06)
(2.89362 -5.34426e-05 1.21475e-06)
(2.89354 6.42309e-05 1.21151e-06)
(2.92493 -6.10393e-05 1.2659e-06)
(2.92489 4.96213e-05 1.2705e-06)
(2.93005 -5.39448e-05 1.2721e-06)
(2.93005 6.31428e-05 1.26943e-06)
(2.91186 -6.03669e-05 1.26715e-06)
(2.91189 5.07998e-05 1.27133e-06)
(2.87419 -5.42955e-05 1.22748e-06)
(2.87425 6.22892e-05 1.22531e-06)
(2.82162 -5.97124e-05 1.18743e-06)
(2.8217 5.18794e-05 1.19123e-06)
(2.75917 -5.45728e-05 1.12838e-06)
(2.75926 6.15804e-05 1.12664e-06)
(2.69198 -5.91944e-05 1.0794e-06)
(2.69208 5.2753e-05 1.08287e-06)
(2.62509 -5.48417e-05 1.02331e-06)
(2.62518 6.09406e-05 1.02195e-06)
(2.56324 -5.8817e-05 9.82916e-07)
(2.56332 5.34267e-05 9.86104e-07)
(2.51073 -5.51248e-05 9.40678e-07)
(2.51079 6.03378e-05 9.39664e-07)
(2.47131 -5.85269e-05 9.15104e-07)
(2.47136 5.39623e-05 9.18063e-07)
(2.44815 -5.53933e-05 8.89385e-07)
(2.44817 5.97926e-05 8.88698e-07)
(2.44371 -5.82654e-05 8.80554e-07)
(2.4437 5.44261e-05 8.8335e-07)
(2.45974 -5.55929e-05 8.7564e-07)
(2.4597 5.93524e-05 8.75288e-07)
(2.49713 -5.80411e-05 8.89885e-07)
(2.49706 5.48151e-05 8.92594e-07)
(2.55588 -5.5732e-05 9.13991e-07)
(2.55579 5.90031e-05 9.13999e-07)
(2.63496 -5.78071e-05 9.6436e-07)
(2.63485 5.51818e-05 9.67064e-07)
(2.7323 -5.59217e-05 1.02913e-06)
(2.73217 5.86288e-05 1.02953e-06)
(2.84475 -5.76421e-05 1.12077e-06)
(2.84461 5.54513e-05 1.12355e-06)
(2.96815 -5.60583e-05 1.23061e-06)
(2.96801 5.8329e-05 1.23145e-06)
(3.09752 -5.75306e-05 1.36795e-06)
(3.09737 5.5643e-05 1.37089e-06)
(3.22724 -5.61582e-05 1.52631e-06)
(3.22711 5.80834e-05 1.52761e-06)
(3.35145 -5.73846e-05 1.71731e-06)
(3.35133 5.58477e-05 1.72046e-06)
(3.46438 -5.61841e-05 1.93959e-06)
(3.46428 5.79262e-05 1.94136e-06)
(3.56079 -5.71608e-05 2.21075e-06)
(3.56071 5.61114e-05 2.21413e-06)
(3.63637 -5.61298e-05 2.53613e-06)
(3.63631 5.7861e-05 2.53835e-06)
(3.68808 -5.68994e-05 2.93786e-06)
(3.68804 5.63959e-05 2.94147e-06)
(3.71437 -5.60572e-05 3.42478e-06)
(3.71436 5.78235e-05 3.4274e-06)
(3.71528 -5.67441e-05 4.01396e-06)
(3.71529 5.65594e-05 4.01775e-06)
(3.69241 -5.60885e-05 4.70865e-06)
(3.69244 5.76895e-05 4.71159e-06)
(3.64867 -5.68383e-05 5.50893e-06)
(3.64871 5.64599e-05 5.51285e-06)
(3.58796 -5.64002e-05 6.39669e-06)
(3.58801 5.72806e-05 6.39988e-06)
(3.51477 -5.72108e-05 7.34838e-06)
(3.51484 5.60697e-05 7.35239e-06)
(3.43375 -5.70237e-05 8.31699e-06)
(3.43381 5.65639e-05 8.32038e-06)
(3.34921 -5.78567e-05 9.24984e-06)
(3.34928 5.53952e-05 9.25392e-06)
(3.26487 -5.77532e-05 1.00808e-05)
(3.26494 5.57433e-05 1.00844e-05)
(3.18353 -5.84511e-05 1.07491e-05)
(3.1836 5.47621e-05 1.07533e-05)
(3.10699 -5.82881e-05 1.11917e-05)
(3.10706 5.51179e-05 1.11954e-05)
(3.03602 -5.86809e-05 1.1366e-05)
(3.03608 5.44844e-05 1.13703e-05)
(2.97044 -5.82879e-05 1.12448e-05)
(2.9705 5.50265e-05 1.12488e-05)
(2.90938 -5.83069e-05 1.0832e-05)
(2.90944 5.48022e-05 1.08364e-05)
(2.85145 -5.76969e-05 1.01516e-05)
(2.8515 5.55239e-05 1.01557e-05)
(2.795 -5.74593e-05 9.25453e-06)
(2.79505 5.55852e-05 9.25911e-06)
(2.73838 -5.67974e-05 8.20244e-06)
(2.73844 5.63274e-05 8.2068e-06)
(2.68015 -5.65083e-05 7.06914e-06)
(2.68021 5.64631e-05 7.07386e-06)
(2.61921 -5.60032e-05 5.92152e-06)
(2.61927 5.70223e-05 5.92606e-06)
(2.55492 -5.58142e-05 4.82433e-06)
(2.55498 5.70761e-05 4.82917e-06)
(2.48713 -5.55753e-05 3.82295e-06)
(2.4872 5.73469e-05 3.82762e-06)
(2.41618 -5.55779e-05 2.94847e-06)
(2.41625 5.72233e-05 2.95337e-06)
(2.34277 -5.5538e-05 2.21464e-06)
(2.34285 5.72762e-05 2.2194e-06)
(2.26797 -5.5678e-05 1.6223e-06)
(2.26804 5.70258e-05 1.62725e-06)
(2.19297 -5.57473e-05 1.16033e-06)
(2.19305 5.69536e-05 1.16515e-06)
(2.11908 -5.59256e-05 8.11994e-07)
(2.11915 5.66727e-05 1.14505e-06)
(2.04751 -5.60032e-05 5.57156e-07)
(2.04759 5.65783e-05 1.21284e-06)
(1.97935 -5.61572e-05 3.75832e-07)
(1.97942 5.63273e-05 1.18481e-06)
(1.91543 -5.61953e-05 2.49619e-07)
(1.9155 5.62602e-05 1.26774e-06)
(1.8563 -5.6296e-05 2.32557e-07)
(1.85637 5.60658e-05 1.2228e-06)
(1.80222 -5.6303e-05 2.45703e-07)
(1.80228 5.60197e-05 1.32533e-06)
(1.75308 -5.63457e-05 2.53939e-07)
(1.75313 5.58845e-05 1.30986e-06)
(1.70848 -5.63358e-05 2.66789e-07)
(1.70853 5.58453e-05 1.38435e-06)
(1.66772 -5.63281e-05 2.76065e-07)
(1.66777 5.57613e-05 1.39445e-06)
(1.62982 -5.63453e-05 2.8831e-07)
(1.62986 5.5685e-05 1.44352e-06)
(1.59354 -5.63014e-05 2.988e-07)
(1.59359 5.56378e-05 1.46735e-06)
(1.55749 -5.62318e-05 3.10192e-07)
(1.55753 5.56385e-05 1.4671e-06)
(1.52006 -5.63078e-05 3.21949e-07)
(1.52011 5.54727e-05 1.50172e-06)
(1.47958 -5.61803e-05 3.32375e-07)
(1.47963 5.55215e-05 1.49268e-06)
(1.43434 -5.62439e-05 3.4534e-07)
(1.4344 5.53696e-05 1.53392e-06)
(1.38268 -5.61273e-05 3.54704e-07)
(1.38275 5.53968e-05 1.51786e-06)
(1.32306 -5.61787e-05 3.68759e-07)
(1.32315 5.52593e-05 1.56381e-06)
(1.25422 -5.60713e-05 3.7702e-07)
(1.25432 5.52661e-05 1.54368e-06)
(1.17521 -5.61128e-05 3.92005e-07)
(1.17533 5.51418e-05 1.59269e-06)
(1.08555 -5.60117e-05 3.99223e-07)
(1.08569 5.51291e-05 1.57265e-06)
(0.985285 -5.60462e-05 4.14945e-07)
(0.985459 5.50169e-05 1.62368e-06)
(0.87507 -5.59486e-05 4.213e-07)
(0.87528 5.49846e-05 1.60821e-06)
(0.75621 -5.59786e-05 4.37523e-07)
(0.756464 5.48845e-05 1.66015e-06)
(0.630662 -5.58803e-05 4.43288e-07)
(0.63097 5.48323e-05 1.60059e-06)
(0.501 -5.59099e-05 4.59651e-07)
(0.501376 5.47457e-05 1.70545e-06)
(0.370341 -5.58052e-05 4.65266e-07)
(0.370797 5.46716e-05 1.66178e-06)
(0.242233 -5.5839e-05 4.8119e-07)
(0.242777 5.45986e-05 1.76058e-06)
(0.120502 -5.57225e-05 4.87001e-07)
(0.121125 5.45e-05 1.73071e-06)
(0.00905193 -5.57648e-05 5.01844e-07)
(0.00971155 5.44437e-05 1.82575e-06)
(-0.0883058 -5.56372e-05 5.07967e-07)
(-0.0877059 5.43233e-05 1.80662e-06)
(-0.168156 -5.56734e-05 5.23394e-07)
(-0.167691 5.42642e-05 1.89601e-06)
(-0.22767 -5.5549e-05 5.31636e-07)
(-0.227362 5.41398e-05 1.88266e-06)
(-0.264711 -5.55801e-05 5.474e-07)
(-0.264557 5.40738e-05 1.96595e-06)
(-0.278024 -5.54512e-05 5.56732e-07)
(-0.278016 5.39433e-05 1.95638e-06)
(-0.267297 -5.54835e-05 5.72073e-07)
(-0.267432 5.3872e-05 2.03368e-06)
(-0.23315 -5.53479e-05 5.80701e-07)
(-0.233432 5.3729e-05 2.02721e-06)
(-0.177135 -5.53832e-05 5.95921e-07)
(-0.177565 5.36588e-05 2.1001e-06)
(-0.101589 -5.52365e-05 6.04366e-07)
(-0.102148 5.3499e-05 2.09774e-06)
(-0.00948875 -5.52818e-05 6.18099e-07)
(-0.0101095 5.34307e-05 2.16919e-06)
(0.0957951 -5.51262e-05 6.26264e-07)
(0.0952211 5.32606e-05 2.1728e-06)
(0.210799 -5.5162e-05 6.41562e-07)
(0.210316 5.31701e-05 2.24246e-06)
(0.332023 -5.50163e-05 6.53455e-07)
(0.331637 5.30084e-05 2.25047e-06)
(0.456142 -5.50384e-05 6.72051e-07)
(0.455838 5.28935e-05 2.31953e-06)
(0.580156 -5.48994e-05 6.88384e-07)
(0.579917 5.27373e-05 2.3327e-06)
(0.701446 -5.49133e-05 7.11238e-07)
(0.701256 5.25957e-05 2.40156e-06)
(0.817873 -5.47725e-05 7.32355e-07)
(0.81772 5.2449e-05 2.41977e-06)
(0.927765 -5.47837e-05 7.59989e-07)
(0.927641 5.22782e-05 2.48801e-06)
(1.02988 -5.46389e-05 7.8593e-07)
(1.02978 5.2139e-05 2.5104e-06)
(1.12341 -5.46412e-05 8.18489e-07)
(1.12333 5.19481e-05 2.57704e-06)
(1.20792 -5.449e-05 8.49054e-07)
(1.20785 5.18152e-05 2.60228e-06)
(1.28325 -5.4496e-05 1.00157e-06)
(1.2832 5.15944e-05 2.66608e-06)
(1.34954 -5.43083e-05 1.25509e-06)
(1.34949 5.14947e-05 2.69263e-06)
(1.40708 -5.43335e-05 1.54819e-06)
(1.40704 5.12313e-05 2.75238e-06)
(1.45629 -5.41074e-05 1.8835e-06)
(1.45626 5.11644e-05 2.77871e-06)
(1.49761 -5.41453e-05 2.25649e-06)
(1.49759 5.08674e-05 2.83336e-06)
(1.53149 -5.38814e-05 2.66481e-06)
(1.53147 5.08313e-05 2.85811e-06)
(1.55826 -5.39406e-05 3.09852e-06)
(1.55825 5.04943e-05 3.07579e-06)
(1.5781 -5.36442e-05 3.55126e-06)
(1.57809 5.04826e-05 3.5276e-06)
(1.59099 -5.37188e-05 4.00996e-06)
(1.59098 5.0114e-05 3.98518e-06)
(1.59664 -5.34317e-05 4.46338e-06)
(1.59664 5.00846e-05 4.43781e-06)
(1.59454 -5.34912e-05 4.9033e-06)
(1.59454 4.97167e-05 4.87685e-06)
(1.58396 -5.32485e-05 5.31642e-06)
(1.58396 4.96346e-05 5.28939e-06)
(1.564 -5.32967e-05 5.70109e-06)
(1.56401 4.92655e-05 5.6735e-06)
(1.53371 -5.30793e-05 6.05233e-06)
(1.53373 4.91499e-05 6.02448e-06)
(1.49217 -5.31392e-05 6.37277e-06)
(1.4922 4.87581e-05 6.34478e-06)
(1.43865 -5.2931e-05 6.66806e-06)
(1.43869 4.86253e-05 6.64025e-06)
(1.3727 -5.30047e-05 6.94827e-06)
(1.37274 4.82095e-05 6.92086e-06)
(1.29431 -5.27665e-05 7.22762e-06)
(1.29436 4.80979e-05 7.20095e-06)
(1.20398 -5.28791e-05 7.51484e-06)
(1.20404 4.76327e-05 7.48916e-06)
(1.10281 -5.25618e-05 7.82927e-06)
(1.10288 4.75901e-05 7.80492e-06)
(0.992541 -5.2738e-05 8.17131e-06)
(0.992622 4.7049e-05 8.14855e-06)
(0.875504 -5.23254e-05 8.5579e-06)
(0.875598 4.70889e-05 8.53703e-06)
(0.754639 -5.25498e-05 8.98197e-06)
(0.754747 4.64842e-05 8.96319e-06)
(0.633361 -5.20697e-05 9.44738e-06)
(0.633484 4.65745e-05 9.43088e-06)
(0.515464 -5.23221e-05 9.94067e-06)
(0.515603 4.59218e-05 9.92656e-06)
(0.404923 -5.18097e-05 1.04525e-05)
(0.405077 4.6022e-05 1.04408e-05)
(0.305712 -5.20833e-05 1.09657e-05)
(0.305875 4.53229e-05 1.09564e-05)
(0.221548 -5.15274e-05 1.14653e-05)
(0.221709 4.54389e-05 1.14581e-05)
(0.155578 -5.1911e-05 1.19252e-05)
(0.155718 4.45993e-05 1.19199e-05)
(0.11018 -5.12042e-05 1.23508e-05)
(0.110278 4.48334e-05 1.23469e-05)
(0.0866744 -5.1795e-05 1.2706e-05)
(0.0867122 4.37522e-05 1.27029e-05)
(0.0851892 -5.08732e-05 1.30189e-05)
(0.0851621 4.41656e-05 1.30161e-05)
(0.104597 -5.16831e-05 1.32593e-05)
(0.104516 4.28285e-05 1.32561e-05)
(0.142518 -5.05744e-05 1.34666e-05)
(0.142405 4.33918e-05 1.34624e-05)
(0.195583 -5.15366e-05 1.36322e-05)
(0.195459 4.18653e-05 1.36263e-05)
(0.259676 -5.02483e-05 1.3794e-05)
(0.259558 4.25709e-05 1.37858e-05)
(0.330266 -5.13665e-05 1.39427e-05)
(0.330163 4.08514e-05 1.39319e-05)
(0.402742 -4.98903e-05 1.4115e-05)
(0.402657 4.17081e-05 1.41012e-05)
(0.472781 -5.11695e-05 1.42956e-05)
(0.472713 3.97913e-05 1.42786e-05)
(0.536652 -4.94723e-05 1.45156e-05)
(0.5366 4.08329e-05 1.44956e-05)
(0.591425 -5.09926e-05 1.47413e-05)
(0.591386 3.86396e-05 1.47183e-05)
(0.63517 -4.89822e-05 1.50136e-05)
(0.635143 3.99596e-05 1.49879e-05)
(0.666988 -5.08258e-05 1.52749e-05)
(0.66697 3.74094e-05 1.52469e-05)
(0.68696 -4.84793e-05 1.55723e-05)
(0.686951 3.90329e-05 1.55424e-05)
(0.696062 -5.06866e-05 1.58456e-05)
(0.69606 3.60877e-05 1.58144e-05)
(0.696004 -4.79363e-05 1.61553e-05)
(0.696006 3.80846e-05 1.61232e-05)
(0.688984 -5.05935e-05 1.6428e-05)
(0.68899 3.46607e-05 1.63953e-05)
(0.677459 -4.73677e-05 1.67435e-05)
(0.677466 3.71049e-05 1.67105e-05)
(0.663904 -5.05329e-05 1.70191e-05)
(0.663912 3.31459e-05 1.69861e-05)
(0.650583 -4.67906e-05 1.73481e-05)
(0.65059 3.60802e-05 1.73151e-05)
(0.639443 -5.04922e-05 1.76444e-05)
(0.639448 3.156e-05 1.76114e-05)
(0.632017 -4.61565e-05 1.80091e-05)
(0.632019 3.50632e-05 1.7976e-05)
(0.629308 -5.05135e-05 1.83306e-05)
(0.629308 2.98651e-05 1.82973e-05)
(0.631832 -4.54777e-05 1.87352e-05)
(0.631829 3.40466e-05 1.87014e-05)
(0.639694 -5.057e-05 1.90901e-05)
(0.639688 2.80942e-05 1.90556e-05)
(0.652658 -4.47461e-05 1.95343e-05)
(0.65265 3.30456e-05 1.94987e-05)
(0.670201 -5.06939e-05 1.99071e-05)
(0.670191 2.62233e-05 1.98703e-05)
(0.6916 -4.39798e-05 2.03731e-05)
(0.69159 3.20513e-05 2.03347e-05)
(0.715997 -5.09003e-05 2.0749e-05)
(0.715986 2.42471e-05 2.07089e-05)
(0.742518 -4.31443e-05 2.12304e-05)
(0.742507 3.11087e-05 2.11885e-05)
(0.770233 -5.12215e-05 2.1592e-05)
(0.770222 2.21449e-05 2.15482e-05)
(0.798213 -4.22677e-05 2.20739e-05)
(0.798203 3.02019e-05 2.2028e-05)
(0.825559 -5.16129e-05 2.24184e-05)
(0.82555 1.9974e-05 2.23707e-05)
(0.851347 -4.14036e-05 2.28864e-05)
(0.851339 2.92899e-05 2.28366e-05)
(0.874789 -5.20481e-05 2.32107e-05)
(0.874783 1.77741e-05 2.31593e-05)
(0.89518 -4.05261e-05 2.36575e-05)
(0.895175 2.84121e-05 2.36043e-05)
(0.911915 -5.26099e-05 2.39324e-05)
(0.911911 1.5476e-05 2.3878e-05)
(0.92463 -3.9607e-05 2.43474e-05)
(0.924628 2.76103e-05 2.42916e-05)
(0.933254 -5.32697e-05 2.45625e-05)
(0.933253 1.31219e-05 2.45061e-05)
(0.937957 -3.86893e-05 2.49178e-05)
(0.937957 2.68539e-05 2.48603e-05)
(0.939139 -5.4058e-05 2.50456e-05)
(0.939139 1.06935e-05 2.49881e-05)
(0.937408 -3.77676e-05 2.53296e-05)
(0.937409 2.61592e-05 2.52714e-05)
(0.933539 -5.49649e-05 2.53681e-05)
(0.93354 8.21135e-06 2.53105e-05)
(0.928339 -3.68493e-05 2.55814e-05)
(0.92834 2.55284e-05 2.55232e-05)
(0.922509 -5.60249e-05 2.55337e-05)
(0.92251 5.64998e-06 2.54763e-05)
(0.916617 -3.59192e-05 2.57014e-05)
(0.916618 2.49848e-05 2.56433e-05)
(0.911004 -5.72179e-05 2.56024e-05)
(0.911005 3.03808e-06 2.55454e-05)
(0.905715 -3.50163e-05 2.5757e-05)
(0.905717 2.44971e-05 2.5699e-05)
(0.90063 -5.85103e-05 2.56563e-05)
(0.900632 4.17911e-07 2.55996e-05)
(0.89545 -3.41238e-05 2.58426e-05)
(0.895451 2.40901e-05 2.57844e-05)
(0.889737 -5.99459e-05 2.57638e-05)
(0.889739 -2.24501e-06 2.57073e-05)
(0.883128 -3.32137e-05 2.60098e-05)
(0.883129 2.38003e-05 2.59514e-05)
(0.875345 -6.15161e-05 2.59609e-05)
(0.875346 -4.93209e-06 2.59049e-05)
(0.866262 -3.23278e-05 2.62455e-05)
(0.866264 2.35941e-05 2.6187e-05)
(0.855985 -6.32078e-05 2.61954e-05)
(0.855987 -7.62002e-06 2.61401e-05)
(0.844813 -3.1492e-05 2.6466e-05)
(0.844815 2.34545e-05 2.64074e-05)
(0.833251 -6.5035e-05 2.63498e-05)
(0.833253 -1.03122e-05 2.62955e-05)
(0.821912 -3.07312e-05 2.65361e-05)
(0.821914 2.33647e-05 2.64774e-05)
(0.811538 -6.70047e-05 2.62883e-05)
(0.811539 -1.30044e-05 2.62351e-05)
(0.802881 -3.00531e-05 2.63333e-05)
(0.802882 2.33262e-05 2.6274e-05)
(0.796543 -6.91505e-05 2.59035e-05)
(0.796544 -1.57174e-05 2.58509e-05)
(0.793042 -2.94629e-05 2.57873e-05)
(0.793042 2.33448e-05 2.57264e-05)
(0.792772 -7.1462e-05 2.51823e-05)
(0.792771 -1.84238e-05 2.51297e-05)
(0.79588 -2.89686e-05 2.49295e-05)
(0.795879 2.34272e-05 2.48657e-05)
(0.802279 -7.39337e-05 2.41865e-05)
(0.802277 -2.10961e-05 2.4133e-05)
(0.811728 -2.86176e-05 2.38384e-05)
(0.811726 2.35458e-05 2.37699e-05)
(0.823838 -7.65469e-05 2.3025e-05)
(0.823836 -2.36856e-05 2.29698e-05)
(0.838089 -2.84146e-05 2.2654e-05)
(0.838087 2.37221e-05 2.25788e-05)
(0.853886 -7.93191e-05 2.18302e-05)
(0.853884 -2.61706e-05 2.17725e-05)
(0.870611 -2.84102e-05 2.1486e-05)
(0.870609 2.39391e-05 2.14021e-05)
(0.88761 -8.22501e-05 2.07079e-05)
(0.887607 -2.85009e-05 2.06474e-05)
(0.904288 -2.86403e-05 2.04373e-05)
(0.904286 2.42026e-05 2.03425e-05)
(0.920166 -8.53619e-05 1.97408e-05)
(0.920164 -3.06367e-05 1.96778e-05)
(0.934815 -2.9157e-05 1.95683e-05)
(0.934813 2.45101e-05 1.94601e-05)
(0.947948 -8.86773e-05 1.8973e-05)
(0.947946 -3.25258e-05 1.89081e-05)
(0.959507 -2.99984e-05 1.89098e-05)
(0.959506 2.48812e-05 1.87853e-05)
(0.969571 -9.22181e-05 1.84058e-05)
(0.96957 -3.41007e-05 1.83404e-05)
(0.9784 -3.12231e-05 1.84114e-05)
(0.978399 2.53235e-05 1.82668e-05)
(0.98644 -9.60216e-05 1.79242e-05)
(0.986439 -3.52924e-05 1.78603e-05)
(0.994305 -3.29041e-05 1.78902e-05)
(0.994304 2.58403e-05 1.77201e-05)
(1.00281 -0.00010012 1.8073e-05)
(1.00281 -3.60048e-05 1.7218e-05)
(1.013 -3.51436e-05 1.70188e-05)
(1.013 2.64178e-05 1.68154e-05)
(1.02636 -0.00010457 1.96456e-05)
(1.02635 -3.61384e-05 1.60155e-05)
(1.04483 -3.80681e-05 1.53545e-05)
(1.04483 2.70447e-05 1.51061e-05)
(1.07143 -8.68927e-05 1.38449e-05)
(1.07142 -3.56479e-05 1.37954e-05)
(1.11132 -1.8518e-05 1.24357e-05)
(1.11132 2.81071e-05 1.22386e-05)
(1.17393 -6.80087e-05 1.0289e-05)
(1.17392 -3.49261e-05 1.0247e-05)
(1.27524 2.33328e-06 8.12743e-06)
(1.27524 2.96199e-05 7.98649e-06)
(1.44369 -4.76042e-05 5.42139e-06)
(1.44368 -3.4047e-05 5.39223e-06)
(1.81653 2.46329e-05 2.62233e-06)
(1.81653 3.12203e-05 2.55485e-06)
(0.022171 -1.34383e-05 -5.62143e-08)
(0.0221929 -2.51314e-05 -0.000383165)
(0.0665793 1.29437e-05 -1.53516e-08)
(0.0666448 -8.13498e-06 -0.00057468)
(0.111433 2.27499e-05 -5.45283e-09)
(0.111541 -1.97008e-05 -0.00049452)
(0.156734 2.93032e-05 -3.40555e-09)
(0.156883 -2.92684e-05 -0.000316027)
(0.202486 3.35088e-05 -1.00968e-09)
(0.202672 -3.35489e-05 -0.000175349)
(0.248691 3.5864e-05 -2.54619e-10)
(0.248911 -3.5815e-05 -0.000103781)
(0.295307 3.73673e-05 -1.24061e-10)
(0.295557 -3.73025e-05 -6.86878e-05)
(0.342263 3.84253e-05 -1.77649e-11)
(0.342538 -3.84271e-05 -4.98008e-05)
(0.389483 3.92932e-05 -4.32938e-11)
(0.389779 -3.91776e-05 -3.8541e-05)
(0.436952 3.99212e-05 6.84909e-36)
(0.437266 -3.99604e-05 -3.12493e-05)
(0.484729 4.05486e-05 -4.32656e-11)
(0.485056 -4.0384e-05 -2.62189e-05)
(0.532818 4.0961e-05 -9.21417e-22)
(0.533154 -4.10356e-05 -2.25762e-05)
(0.581227 4.14822e-05 -1.54105e-10)
(0.581569 -4.13021e-05 -1.98369e-05)
(0.629995 5.57944e-05 -5.39737e-08)
(0.63034 -4.18019e-05 -1.77035e-05)
(0.679084 1.40094e-05 -2.86107e-19)
(0.679429 -4.20466e-05 -1.60322e-05)
(0.728372 9.41574e-05 -1.08258e-07)
(0.728714 -4.24204e-05 -1.46514e-05)
(0.777688 -3.54358e-05 -1.39477e-09)
(0.778024 -4.30261e-05 -1.35564e-05)
(0.826852 0.000126277 -5.3245e-08)
(0.827181 -4.28574e-05 -1.26206e-05)
(0.875826 -5.06424e-05 -1.65354e-09)
(0.876147 -4.3652e-05 -1.18426e-05)
(0.924792 0.000142733 -5.23748e-08)
(0.925102 -4.31495e-05 -1.11676e-05)
(0.974009 -6.60399e-05 -1.09758e-09)
(0.974309 -4.43984e-05 -1.05991e-05)
(1.02362 0.000159067 -5.06066e-08)
(1.02391 -4.33899e-05 -1.00948e-05)
(1.07362 -8.1504e-05 4.88947e-19)
(1.07389 -4.50784e-05 -9.66677e-06)
(1.1239 0.000201824 -1.60596e-07)
(1.12416 -4.34586e-05 -9.25474e-06)
(1.17439 -0.000150119 2.44051e-36)
(1.17464 -4.59007e-05 -8.95432e-06)
(1.22503 0.000265601 -1.54407e-07)
(1.22527 -4.35393e-05 -8.63567e-06)
(1.27575 -0.000209572 -2.93734e-09)
(1.27598 -4.69026e-05 -8.40858e-06)
(1.32643 0.000309822 -9.86512e-08)
(1.32665 -4.34631e-05 -8.17365e-06)
(1.37694 -0.000238145 -5.39417e-09)
(1.37715 -4.79583e-05 -7.9891e-06)
(1.42713 0.000339873 -1.02251e-07)
(1.42733 -4.31465e-05 -7.80358e-06)
(1.47695 -0.00026792 -4.88139e-09)
(1.47714 -4.91605e-05 -7.66259e-06)
(1.52648 0.000370514 -9.75594e-08)
(1.52666 -4.25987e-05 -7.51394e-06)
(1.57605 -0.000297563 -2.25099e-09)
(1.57623 -5.05793e-05 -7.40464e-06)
(1.62616 0.000400759 -9.08481e-08)
(1.62633 -4.17371e-05 -7.28424e-06)
(1.67738 -0.000326623 -2.81354e-19)
(1.67755 -5.2297e-05 -7.19988e-06)
(1.73021 0.000459739 -2.3405e-07)
(1.73038 -4.05422e-05 -7.06968e-06)
(1.78497 -0.000414703 0)
(1.78514 -5.44744e-05 -7.04496e-06)
(1.84177 0.000649155 -7.55103e-07)
(1.84193 -3.89682e-05 -6.81856e-06)
(1.90052 -0.000707917 -1.50602e-19)
(1.90068 -5.71626e-05 -6.94685e-06)
(1.96104 0.000980472 -9.91035e-07)
(1.9612 -3.69327e-05 -6.69987e-06)
(2.02319 -0.0010823 -2.96743e-21)
(2.02336 -6.03347e-05 -6.90835e-06)
(2.08711 0.0013193 -8.44926e-07)
(2.08728 -3.44186e-05 -6.73199e-06)
(2.15341 -0.00138937 -3.33056e-18)
(2.15359 -6.39412e-05 -6.9225e-06)
(2.22339 0.00155346 -4.71824e-07)
(2.22358 -3.14154e-05 -6.86342e-06)
(2.29901 -0.00155115 0)
(2.29921 -6.79731e-05 -6.97619e-06)
(2.38269 0.00168675 -3.15022e-07)
(2.3829 -2.79228e-05 -6.97314e-06)
(2.47698 -0.00165452 1.44602e-21)
(2.47721 -7.25321e-05 -7.06049e-06)
(2.58422 0.00180114 -3.76906e-07)
(2.58446 -2.38476e-05 -7.05844e-06)
(2.70633 -0.00177871 -5.77735e-21)
(2.70659 -7.77497e-05 -7.17558e-06)
(2.84486 0.00227676 -2.47797e-06)
(2.84514 -1.90671e-05 -6.6864e-06)
(3.00104 -0.00261422 -7.23906e-21)
(3.00133 -8.31662e-05 -7.34651e-06)
(3.17566 0.00279256 -6.49905e-07)
(3.17597 -1.35836e-05 -7.37004e-06)
(3.36855 -0.00280726 -5.3054e-08)
(3.36886 -8.85188e-05 -7.6075e-06)
(3.57752 0.00298996 -9.31114e-07)
(3.57783 -7.99425e-06 -7.72139e-06)
(3.79703 -0.00300652 -2.15255e-07)
(3.79731 -9.41451e-05 -8.11112e-06)
(4.01663 0.00322988 -1.73421e-06)
(4.01688 -3.74145e-06 -8.3837e-06)
(4.22013 -0.00328926 -5.09328e-07)
(4.22032 -0.000100894 -9.12975e-06)
(4.38584 0.00356744 -2.79463e-06)
(4.38594 -2.0102e-06 -9.6602e-06)
(4.48851 -0.00369162 -8.12118e-07)
(4.48851 -0.000107921 -1.08612e-05)
(4.50309 0.00400757 -3.41044e-06)
(4.50295 -1.71025e-06 -1.16326e-05)
(4.40931 -0.00417997 -8.73101e-07)
(4.40902 -0.000111804 -1.30904e-05)
(4.1963 0.00448371 -2.89489e-06)
(4.19585 -8.63111e-07 -1.3899e-05)
(3.86567 -0.00464335 -5.52361e-07)
(3.86505 -0.000110264 -1.51553e-05)
(3.43213 0.00488701 -1.38008e-06)
(3.43134 -4.61659e-08 -1.57414e-05)
(2.9214 -0.0049743 -3.51912e-18)
(2.92046 -0.000105107 -1.64278e-05)
(2.36598 0.0051563 -6.21425e-08)
(2.36492 -2.17717e-06 -1.66676e-05)
(1.80014 -0.00499229 -1.50661e-06)
(1.79899 -9.95869e-05 -1.6459e-05)
(1.25527 0.0051108 -4.32831e-07)
(1.25406 -8.18602e-06 -1.64763e-05)
(0.756553 -0.00491989 -2.34804e-06)
(0.755357 -9.50944e-05 -1.59786e-05)
(0.321545 0.00500916 -5.49578e-07)
(0.320416 -1.61613e-05 -1.59339e-05)
(-0.0397766 -0.00482524 -2.44259e-06)
(-0.0407764 -9.12979e-05 -1.54194e-05)
(-0.323812 0.00491525 -5.17834e-07)
(-0.324628 -2.3716e-05 -1.54135e-05)
(-0.531662 -0.00025432 -5.85888e-06)
(-0.532272 -8.76661e-05 -1.18312e-06)
(-0.667538 0.000315611 -5.89192e-07)
(-0.667939 -2.91512e-05 -1.01359e-06)
(-0.737465 -0.000152849 -1.35862e-06)
(-0.737666 -8.32446e-05 -9.35842e-07)
(-0.74841 0.000227648 -4.39054e-07)
(-0.748425 -3.34678e-05 -7.73929e-07)
(-0.707752 -7.53319e-05 -1.03841e-06)
(-0.707597 -7.92742e-05 -7.01528e-07)
(-0.622985 0.000162068 -3.23129e-07)
(-0.622674 -3.70892e-05 -5.58103e-07)
(-0.501488 -2.10131e-05 -7.31788e-07)
(-0.501037 -7.59205e-05 -4.94028e-07)
(-0.350297 0.000118038 -2.20988e-07)
(-0.349724 -4.01413e-05 -3.69872e-07)
(-0.175916 1.34821e-05 -4.67034e-07)
(-0.175242 -7.31114e-05 -3.16313e-07)
(0.0158695 9.16746e-05 -1.34825e-07)
(0.0166152 -4.27559e-05 -2.13115e-07)
(0.22016 3.19621e-05 -2.54102e-07)
(0.22094 -7.06693e-05 -1.75603e-07)
(0.432993 7.87503e-05 -6.91552e-08)
(0.433776 -4.48805e-05 -9.68446e-08)
(0.651275 3.92525e-05 -1.00882e-07)
(0.652039 -6.85366e-05 -7.39707e-08)
(0.872608 7.54754e-05 -6.98874e-08)
(0.873337 -4.66127e-05 -1.10073e-08)
(1.09503 3.86955e-05 -8.24725e-08)
(1.09571 -6.66943e-05 -7.40963e-08)
(1.31671 7.4484e-05 -1.05983e-07)
(1.31735 -4.8063e-05 -1.13362e-07)
(1.5357 4.15471e-05 -2.08047e-07)
(1.53628 -6.51592e-05 -2.00576e-07)
(1.74967 7.19473e-05 -2.68434e-07)
(1.75019 -4.93561e-05 -2.74798e-07)
(1.95582 4.39088e-05 -4.03071e-07)
(1.95628 -6.39443e-05 -3.96354e-07)
(2.15085 6.96694e-05 -5.0185e-07)
(2.15125 -5.05704e-05 -5.07306e-07)
(2.33111 4.57987e-05 -6.60991e-07)
(2.33145 -6.30341e-05 -6.54925e-07)
(2.49283 6.76112e-05 -7.78263e-07)
(2.49312 -5.17153e-05 -7.82887e-07)
(2.63247 4.73557e-05 -9.34498e-07)
(2.63271 -6.23132e-05 -9.28997e-07)
(2.74702 6.58176e-05 -1.03694e-06)
(2.7472 -5.27262e-05 -1.04081e-06)
(2.83436 4.86911e-05 -1.15521e-06)
(2.83449 -6.16892e-05 -1.15021e-06)