/*--------------------------------*- C++ -*----------------------------------*\
| =========                 |                                                 |
| \\      /  F ield         | OpenFOAM: The Open Source CFD Toolbox           |
|  \\    /   O peration     | Version:  2012                                  |
|   \\  /    A nd           | Website:  www.openfoam.com                      |
|    \\/     M anipulation  |                                                 |
\*---------------------------------------------------------------------------*/
FoamFile
{
    version     2.0;
    format      ascii;
    class       volScalarField;
    location    "1000";
    object      k;
}
// * * * * * * * * * * * * * * * * * * * * * * * * * * * * * * * * * * * * * //

dimensions      [0 2 -2 0 0 0 0];


internalField   nonuniform List<scalar> 
2560
(
1.97596e-05
1.97596e-05
1.02254e-05
1.02254e-05
5.35528e-05
5.35528e-05
0.000192753
0.000192753
0.000489161
0.000489161
0.000978645
0.000978645
0.00163465
0.00163465
0.00237334
0.00237334
0.003104
0.003104
0.00376816
0.00376816
0.00434276
0.00434276
0.0048268
0.0048268
0.00522913
0.00522913
0.00556143
0.00556143
0.00583505
0.00583505
0.00605988
0.00605988
0.00624413
0.00624413
0.00639449
0.00639449
0.00651636
0.00651636
0.00661407
0.00661407
0.00669116
0.00669116
0.00675047
0.00675047
0.00679434
0.00679434
0.00682471
0.00682471
0.00684317
0.00684317
0.00685107
0.00685107
0.00684953
0.00684953
0.00683953
0.00683953
0.00682189
0.00682189
0.00679732
0.00679732
0.00676644
0.00676644
0.0067298
0.0067298
0.00668789
0.00668789
0.00664112
0.00664112
0.00658989
0.00658989
0.00653453
0.00653453
0.00647537
0.00647537
0.00641268
0.00641268
0.00634674
0.00634674
0.00627778
0.00627778
0.00620603
0.00620603
0.0061317
0.0061317
0.00605498
0.00605498
0.00597606
0.00597606
0.00589512
0.00589512
0.00581231
0.00581231
0.0057278
0.0057278
0.00564172
0.00564172
0.00555424
0.00555424
0.00546548
0.00546548
0.00537557
0.00537557
0.00528464
0.00528464
0.00519281
0.00519281
0.0051002
0.0051002
0.00500692
0.00500692
0.00491307
0.00491307
0.00481878
0.00481878
0.00472413
0.00472413
0.00462922
0.00462922
0.00453415
0.00453415
0.00443902
0.00443902
0.00434391
0.00434391
0.0042489
0.0042489
0.00415409
0.00415409
0.00405954
0.00405954
0.00396535
0.00396535
0.00387157
0.00387157
0.0037783
0.0037783
0.00368558
0.00368558
0.0035935
0.0035935
0.00350211
0.00350211
0.00341148
0.00341148
0.00332166
0.00332166
0.00323271
0.00323271
0.00314469
0.00314469
0.00305763
0.00305763
0.00297159
0.00297159
0.00288662
0.00288662
0.00280276
0.00280276
0.00272004
0.00272004
0.0026385
0.0026385
0.00255819
0.00255819
0.00247912
0.00247912
0.00240133
0.00240133
0.00232484
0.00232484
0.00224969
0.00224969
0.00217588
0.00217588
0.00210345
0.00210345
0.0020324
0.0020324
0.00196276
0.00196276
0.00189453
0.00189453
0.00182773
0.00182773
0.00176235
0.00176235
0.00169842
0.00169842
0.00163593
0.00163593
0.00157489
0.00157489
0.00151529
0.00151529
0.00145714
0.00145714
0.00140042
0.00140042
0.00134515
0.00134515
0.0012913
0.0012913
0.00123887
0.00123887
0.00118785
0.00118785
0.00113824
0.00113824
0.00109001
0.00109001
0.00104316
0.00104316
0.000997677
0.000997677
0.000953538
0.000953538
0.00091073
0.00091073
0.000869238
0.000869238
0.000829046
0.000829046
0.000790134
0.000790134
0.000752486
0.000752486
0.000716083
0.000716083
0.000680908
0.000680908
0.000646941
0.000646941
0.000614165
0.000614165
0.00058256
0.00058256
0.00055211
0.00055211
0.000522795
0.000522795
0.000494599
0.000494599
0.000467504
0.000467504
0.000441494
0.000441494
0.000416551
0.000416551
0.000392661
0.000392661
0.000369808
0.000369808
0.000347978
0.000347978
0.000327156
0.000327156
0.000307328
0.000307328
0.000288482
0.000288482
0.000270603
0.000270603
0.000253681
0.000253681
0.0002377
0.0002377
0.000222649
0.000222649
0.000208513
0.000208513
0.000195279
0.000195279
0.000182929
0.000182929
0.000171447
0.000171447
0.000160813
0.000160813
0.000151006
0.000151006
0.000142
0.000142
0.000133769
0.000133769
0.000126282
0.000126282
0.000119503
0.000119503
0.000113396
0.000113396
0.00010792
0.00010792
0.000103033
0.000103033
9.86899e-05
9.86899e-05
9.48462e-05
9.48462e-05
9.14567e-05
9.14567e-05
8.8477e-05
8.8477e-05
8.58645e-05
8.58645e-05
8.35786e-05
8.35786e-05
8.15817e-05
8.15817e-05
7.98391e-05
7.98391e-05
7.83193e-05
7.83193e-05
7.69939e-05
7.69939e-05
7.58378e-05
7.58378e-05
7.48288e-05
7.48288e-05
7.39474e-05
7.39474e-05
7.31767e-05
7.31767e-05
7.25018e-05
7.25018e-05
7.19102e-05
7.19102e-05
7.13907e-05
7.13907e-05
7.09339e-05
7.09339e-05
7.05316e-05
7.05316e-05
7.0177e-05
7.0177e-05
6.98638e-05
6.98638e-05
6.9587e-05
6.9587e-05
6.93421e-05
6.93421e-05
6.91252e-05
6.91252e-05
6.89331e-05
6.89331e-05
6.87628e-05
6.87628e-05
6.86119e-05
6.86119e-05
6.84782e-05
6.84782e-05
6.83598e-05
6.83598e-05
6.82553e-05
6.82553e-05
6.8163e-05
6.8163e-05
6.80819e-05
6.80819e-05
6.80109e-05
6.80109e-05
6.79489e-05
6.79489e-05
6.78952e-05
6.78952e-05
6.78491e-05
6.78491e-05
6.781e-05
6.781e-05
6.77772e-05
6.77772e-05
6.77504e-05
6.77504e-05
6.7729e-05
6.7729e-05
6.77127e-05
6.77127e-05
6.77012e-05
6.77012e-05
6.76942e-05
6.76942e-05
6.76915e-05
6.76915e-05
6.76927e-05
6.76927e-05
6.76978e-05
6.76978e-05
6.77065e-05
6.77065e-05
6.77187e-05
6.77187e-05
6.77342e-05
6.77342e-05
6.77531e-05
6.77531e-05
6.77751e-05
6.77751e-05
6.78002e-05
6.78002e-05
6.78283e-05
6.78283e-05
6.78593e-05
6.78593e-05
6.78933e-05
6.78933e-05
6.79301e-05
6.79301e-05
6.79697e-05
6.79697e-05
6.80122e-05
6.80122e-05
6.80575e-05
6.80575e-05
6.81055e-05
6.81055e-05
6.81563e-05
6.81563e-05
6.82099e-05
6.82099e-05
6.82663e-05
6.82663e-05
6.83254e-05
6.83254e-05
6.83874e-05
6.83874e-05
6.84521e-05
6.84521e-05
6.85196e-05
6.85196e-05
6.859e-05
6.859e-05
6.86632e-05
6.86632e-05
6.87392e-05
6.87392e-05
6.88181e-05
6.88181e-05
6.88998e-05
6.88998e-05
6.89844e-05
6.89844e-05
6.9072e-05
6.9072e-05
6.91624e-05
6.91624e-05
6.92558e-05
6.92558e-05
6.9352e-05
6.9352e-05
6.94512e-05
6.94512e-05
6.95533e-05
6.95533e-05
6.96584e-05
6.96584e-05
6.97663e-05
6.97663e-05
6.98772e-05
6.98772e-05
6.99909e-05
6.99909e-05
7.01075e-05
7.01075e-05
7.02269e-05
7.02269e-05
7.03491e-05
7.03491e-05
7.04741e-05
7.04741e-05
7.06019e-05
7.06019e-05
7.07322e-05
7.07322e-05
7.08652e-05
7.08652e-05
7.10008e-05
7.10008e-05
7.11388e-05
7.11388e-05
7.12792e-05
7.12792e-05
7.14218e-05
7.14218e-05
7.15667e-05
7.15667e-05
7.17136e-05
7.17136e-05
7.18625e-05
7.18625e-05
7.20132e-05
7.20132e-05
7.21656e-05
7.21656e-05
7.23195e-05
7.23195e-05
7.24747e-05
7.24747e-05
7.26311e-05
7.26311e-05
7.27885e-05
7.27885e-05
7.29467e-05
7.29467e-05
7.31055e-05
7.31055e-05
7.32646e-05
7.32646e-05
7.34239e-05
7.34239e-05
7.35829e-05
7.35829e-05
7.37416e-05
7.37416e-05
7.38996e-05
7.38996e-05
7.40566e-05
7.40566e-05
7.42124e-05
7.42124e-05
7.43665e-05
7.43665e-05
7.45188e-05
7.45188e-05
7.46687e-05
7.46687e-05
7.48161e-05
7.48161e-05
7.49605e-05
7.49605e-05
7.51016e-05
7.51016e-05
7.52389e-05
7.52389e-05
7.53721e-05
7.53721e-05
7.55007e-05
7.55007e-05
7.56245e-05
7.56245e-05
7.57429e-05
7.57429e-05
7.58554e-05
7.58554e-05
7.59618e-05
7.59618e-05
7.60616e-05
7.60616e-05
7.61542e-05
7.61542e-05
7.62394e-05
7.62394e-05
7.63166e-05
7.63166e-05
7.63854e-05
7.63854e-05
7.64455e-05
7.64455e-05
7.64963e-05
7.64963e-05
7.65375e-05
7.65375e-05
7.65686e-05
7.65686e-05
7.65894e-05
7.65894e-05
7.65995e-05
7.65995e-05
7.65984e-05
7.65984e-05
7.6586e-05
7.6586e-05
7.65619e-05
7.65619e-05
7.65259e-05
7.65259e-05
7.64778e-05
7.64778e-05
7.64174e-05
7.64174e-05
7.63447e-05
7.63447e-05
7.62596e-05
7.62596e-05
7.6162e-05
7.6162e-05
7.60522e-05
7.60522e-05
7.59301e-05
7.59301e-05
7.57961e-05
7.57961e-05
7.56505e-05
7.56505e-05
7.54937e-05
7.54937e-05
7.53262e-05
7.53262e-05
7.51486e-05
7.51486e-05
7.49617e-05
7.49617e-05
7.47663e-05
7.47663e-05
7.45633e-05
7.45633e-05
7.4354e-05
7.4354e-05
7.41395e-05
7.41395e-05
7.39212e-05
7.39212e-05
7.37008e-05
7.37008e-05
7.34797e-05
7.34797e-05
7.326e-05
7.326e-05
7.30434e-05
7.30434e-05
7.28322e-05
7.28322e-05
7.26285e-05
7.26285e-05
7.24346e-05
7.24346e-05
7.2253e-05
7.2253e-05
7.2086e-05
7.2086e-05
7.19361e-05
7.19361e-05
7.18059e-05
7.18059e-05
7.16977e-05
7.16977e-05
7.16137e-05
7.16137e-05
7.1556e-05
7.1556e-05
7.15264e-05
7.15264e-05
1.97596e-05
1.97596e-05
1.02254e-05
1.02254e-05
5.35528e-05
5.35528e-05
0.000192753
0.000192753
0.000489161
0.000489161
0.000978645
0.000978645
0.00163465
0.00163465
0.00237334
0.00237334
0.003104
0.003104
0.00376816
0.00376816
0.00434276
0.00434276
0.0048268
0.0048268
0.00522913
0.00522913
0.00556143
0.00556143
0.00583505
0.00583505
0.00605988
0.00605988
0.00624413
0.00624413
0.00639449
0.00639449
0.00651636
0.00651636
0.00661407
0.00661407
0.00669116
0.00669116
0.00675047
0.00675047
0.00679434
0.00679434
0.00682471
0.00682471
0.00684317
0.00684317
0.00685107
0.00685107
0.00684953
0.00684953
0.00683953
0.00683953
0.00682189
0.00682189
0.00679732
0.00679732
0.00676644
0.00676644
0.0067298
0.0067298
0.00668789
0.00668789
0.00664112
0.00664112
0.00658989
0.00658989
0.00653453
0.00653453
0.00647537
0.00647537
0.00641268
0.00641268
0.00634674
0.00634674
0.00627778
0.00627778
0.00620603
0.00620603
0.0061317
0.0061317
0.00605498
0.00605498
0.00597606
0.00597606
0.00589512
0.00589512
0.00581231
0.00581231
0.0057278
0.0057278
0.00564172
0.00564172
0.00555424
0.00555424
0.00546548
0.00546548
0.00537557
0.00537557
0.00528464
0.00528464
0.00519281
0.00519281
0.0051002
0.0051002
0.00500692
0.00500692
0.00491307
0.00491307
0.00481878
0.00481878
0.00472413
0.00472413
0.00462922
0.00462922
0.00453415
0.00453415
0.00443902
0.00443902
0.00434391
0.00434391
0.0042489
0.0042489
0.00415409
0.00415409
0.00405954
0.00405954
0.00396535
0.00396535
0.00387157
0.00387157
0.0037783
0.0037783
0.00368558
0.00368558
0.0035935
0.0035935
0.00350211
0.00350211
0.00341148
0.00341148
0.00332166
0.00332166
0.00323271
0.00323271
0.00314469
0.00314469
0.00305763
0.00305763
0.00297159
0.00297159
0.00288662
0.00288662
0.00280276
0.00280276
0.00272004
0.00272004
0.0026385
0.0026385
0.00255819
0.00255819
0.00247912
0.00247912
0.00240133
0.00240133
0.00232484
0.00232484
0.00224969
0.00224969
0.00217588
0.00217588
0.00210345
0.00210345
0.0020324
0.0020324
0.00196276
0.00196276
0.00189453
0.00189453
0.00182773
0.00182773
0.00176235
0.00176235
0.00169842
0.00169842
0.00163593
0.00163593
0.00157489
0.00157489
0.00151529
0.00151529
0.00145714
0.00145714
0.00140042
0.00140042
0.00134515
0.00134515
0.0012913
0.0012913
0.00123887
0.00123887
0.00118785
0.00118785
0.00113824
0.00113824
0.00109001
0.00109001
0.00104316
0.00104316
0.000997677
0.000997677
0.000953538
0.000953538
0.00091073
0.00091073
0.000869238
0.000869238
0.000829046
0.000829046
0.000790134
0.000790134
0.000752486
0.000752486
0.000716083
0.000716083
0.000680908
0.000680908
0.000646941
0.000646941
0.000614165
0.000614165
0.00058256
0.00058256
0.00055211
0.00055211
0.000522795
0.000522795
0.000494599
0.000494599
0.000467504
0.000467504
0.000441494
0.000441494
0.000416551
0.000416551
0.000392661
0.000392661
0.000369808
0.000369808
0.000347978
0.000347978
0.000327156
0.000327156
0.000307328
0.000307328
0.000288482
0.000288482
0.000270603
0.000270603
0.000253681
0.000253681
0.0002377
0.0002377
0.000222649
0.000222649
0.000208513
0.000208513
0.000195279
0.000195279
0.000182929
0.000182929
0.000171447
0.000171447
0.000160813
0.000160813
0.000151006
0.000151006
0.000142
0.000142
0.000133769
0.000133769
0.000126282
0.000126282
0.000119503
0.000119503
0.000113396
0.000113396
0.00010792
0.00010792
0.000103033
0.000103033
9.86899e-05
9.86899e-05
9.48462e-05
9.48462e-05
9.14567e-05
9.14567e-05
8.8477e-05
8.8477e-05
8.58645e-05
8.58645e-05
8.35786e-05
8.35786e-05
8.15817e-05
8.15817e-05
7.98391e-05
7.98391e-05
7.83193e-05
7.83193e-05
7.69939e-05
7.69939e-05
7.58378e-05
7.58378e-05
7.48288e-05
7.48288e-05
7.39474e-05
7.39474e-05
7.31767e-05
7.31767e-05
7.25018e-05
7.25018e-05
7.19102e-05
7.19102e-05
7.13907e-05
7.13907e-05
7.09339e-05
7.09339e-05
7.05316e-05
7.05316e-05
7.0177e-05
7.0177e-05
6.98638e-05
6.98638e-05
6.9587e-05
6.9587e-05
6.93421e-05
6.93421e-05
6.91252e-05
6.91252e-05
6.89331e-05
6.89331e-05
6.87628e-05
6.87628e-05
6.86119e-05
6.86119e-05
6.84782e-05
6.84782e-05
6.83598e-05
6.83598e-05
6.82553e-05
6.82553e-05
6.8163e-05
6.8163e-05
6.80819e-05
6.80819e-05
6.80109e-05
6.80109e-05
6.79489e-05
6.79489e-05
6.78952e-05
6.78952e-05
6.78491e-05
6.78491e-05
6.781e-05
6.781e-05
6.77772e-05
6.77772e-05
6.77504e-05
6.77504e-05
6.7729e-05
6.7729e-05
6.77127e-05
6.77127e-05
6.77012e-05
6.77012e-05
6.76942e-05
6.76942e-05
6.76915e-05
6.76915e-05
6.76927e-05
6.76927e-05
6.76978e-05
6.76978e-05
6.77065e-05
6.77065e-05
6.77187e-05
6.77187e-05
6.77342e-05
6.77342e-05
6.77531e-05
6.77531e-05
6.77751e-05
6.77751e-05
6.78002e-05
6.78002e-05
6.78283e-05
6.78283e-05
6.78593e-05
6.78593e-05
6.78933e-05
6.78933e-05
6.79301e-05
6.79301e-05
6.79697e-05
6.79697e-05
6.80122e-05
6.80122e-05
6.80575e-05
6.80575e-05
6.81055e-05
6.81055e-05
6.81563e-05
6.81563e-05
6.82099e-05
6.82099e-05
6.82663e-05
6.82663e-05
6.83254e-05
6.83254e-05
6.83874e-05
6.83874e-05
6.84521e-05
6.84521e-05
6.85196e-05
6.85196e-05
6.859e-05
6.859e-05
6.86632e-05
6.86632e-05
6.87392e-05
6.87392e-05
6.88181e-05
6.88181e-05
6.88998e-05
6.88998e-05
6.89844e-05
6.89844e-05
6.9072e-05
6.9072e-05
6.91624e-05
6.91624e-05
6.92558e-05
6.92558e-05
6.9352e-05
6.9352e-05
6.94512e-05
6.94512e-05
6.95533e-05
6.95533e-05
6.96584e-05
6.96584e-05
6.97663e-05
6.97663e-05
6.98772e-05
6.98772e-05
6.99909e-05
6.99909e-05
7.01075e-05
7.01075e-05
7.02269e-05
7.02269e-05
7.03491e-05
7.03491e-05
7.04741e-05
7.04741e-05
7.06019e-05
7.06019e-05
7.07322e-05
7.07322e-05
7.08652e-05
7.08652e-05
7.10008e-05
7.10008e-05
7.11388e-05
7.11388e-05
7.12792e-05
7.12792e-05
7.14218e-05
7.14218e-05
7.15667e-05
7.15667e-05
7.17136e-05
7.17136e-05
7.18625e-05
7.18625e-05
7.20132e-05
7.20132e-05
7.21656e-05
7.21656e-05
7.23195e-05
7.23195e-05
7.24747e-05
7.24747e-05
7.26311e-05
7.26311e-05
7.27885e-05
7.27885e-05
7.29467e-05
7.29467e-05
7.31055e-05
7.31055e-05
7.32646e-05
7.32646e-05
7.34239e-05
7.34239e-05
7.35829e-05
7.35829e-05
7.37416e-05
7.37416e-05
7.38996e-05
7.38996e-05
7.40566e-05
7.40566e-05
7.42124e-05
7.42124e-05
7.43665e-05
7.43665e-05
7.45188e-05
7.45188e-05
7.46687e-05
7.46688e-05
7.48161e-05
7.48161e-05
7.49605e-05
7.49605e-05
7.51016e-05
7.51016e-05
7.52389e-05
7.52389e-05
7.53721e-05
7.53721e-05
7.55007e-05
7.55008e-05
7.56245e-05
7.56245e-05
7.57429e-05
7.57429e-05
7.58554e-05
7.58555e-05
7.59618e-05
7.59618e-05
7.60616e-05
7.60616e-05
7.61542e-05
7.61542e-05
7.62394e-05
7.62394e-05
7.63166e-05
7.63166e-05
7.63854e-05
7.63854e-05
7.64455e-05
7.64455e-05
7.64963e-05
7.64963e-05
7.65375e-05
7.65375e-05
7.65686e-05
7.65686e-05
7.65894e-05
7.65894e-05
7.65995e-05
7.65995e-05
7.65984e-05
7.65984e-05
7.6586e-05
7.6586e-05
7.65619e-05
7.65619e-05
7.65259e-05
7.65259e-05
7.64778e-05
7.64778e-05
7.64174e-05
7.64174e-05
7.63447e-05
7.63447e-05
7.62596e-05
7.62596e-05
7.6162e-05
7.6162e-05
7.60522e-05
7.60522e-05
7.59301e-05
7.59301e-05
7.57961e-05
7.57962e-05
7.56505e-05
7.56506e-05
7.54937e-05
7.54937e-05
7.53262e-05
7.53262e-05
7.51486e-05
7.51486e-05
7.49617e-05
7.49617e-05
7.47663e-05
7.47663e-05
7.45633e-05
7.45633e-05
7.4354e-05
7.4354e-05
7.41395e-05
7.41395e-05
7.39213e-05
7.39213e-05
7.37008e-05
7.37008e-05
7.34798e-05
7.34798e-05
7.326e-05
7.326e-05
7.30435e-05
7.30435e-05
7.28322e-05
7.28322e-05
7.26285e-05
7.26285e-05
7.24346e-05
7.24347e-05
7.2253e-05
7.2253e-05
7.2086e-05
7.2086e-05
7.19362e-05
7.19362e-05
7.18059e-05
7.18059e-05
7.16977e-05
7.16977e-05
7.16137e-05
7.16137e-05
7.1556e-05
7.1556e-05
7.15264e-05
7.15264e-05
7.15264e-05
7.15264e-05
7.1556e-05
7.1556e-05
7.16137e-05
7.16137e-05
7.16976e-05
7.16977e-05
7.18059e-05
7.18059e-05
7.19361e-05
7.19361e-05
7.2086e-05
7.2086e-05
7.22529e-05
7.2253e-05
7.24346e-05
7.24346e-05
7.26285e-05
7.26285e-05
7.28322e-05
7.28322e-05
7.30434e-05
7.30434e-05
7.326e-05
7.326e-05
7.34797e-05
7.34797e-05
7.37008e-05
7.37008e-05
7.39212e-05
7.39213e-05
7.41395e-05
7.41395e-05
7.4354e-05
7.4354e-05
7.45633e-05
7.45634e-05
7.47663e-05
7.47663e-05
7.49617e-05
7.49617e-05
7.51487e-05
7.51487e-05
7.53263e-05
7.53263e-05
7.54938e-05
7.54938e-05
7.56506e-05
7.56506e-05
7.57962e-05
7.57962e-05
7.59302e-05
7.59302e-05
7.60523e-05
7.60523e-05
7.61621e-05
7.61621e-05
7.62597e-05
7.62597e-05
7.63448e-05
7.63448e-05
7.64176e-05
7.64176e-05
7.64779e-05
7.64779e-05
7.6526e-05
7.6526e-05
7.6562e-05
7.65621e-05
7.65861e-05
7.65862e-05
7.65986e-05
7.65986e-05
7.65996e-05
7.65996e-05
7.65896e-05
7.65896e-05
7.65688e-05
7.65688e-05
7.65377e-05
7.65377e-05
7.64965e-05
7.64965e-05
7.64457e-05
7.64457e-05
7.63856e-05
7.63856e-05
7.63168e-05
7.63168e-05
7.62396e-05
7.62396e-05
7.61544e-05
7.61544e-05
7.60618e-05
7.60618e-05
7.5962e-05
7.5962e-05
7.58556e-05
7.58556e-05
7.5743e-05
7.57431e-05
7.56247e-05
7.56247e-05
7.55009e-05
7.55009e-05
7.53723e-05
7.53723e-05
7.52391e-05
7.52391e-05
7.51018e-05
7.51018e-05
7.49607e-05
7.49607e-05
7.48163e-05
7.48163e-05
7.46689e-05
7.46689e-05
7.45189e-05
7.45189e-05
7.43667e-05
7.43667e-05
7.42126e-05
7.42126e-05
7.40568e-05
7.40568e-05
7.38998e-05
7.38998e-05
7.37418e-05
7.37418e-05
7.35831e-05
7.35831e-05
7.3424e-05
7.3424e-05
7.32648e-05
7.32648e-05
7.31057e-05
7.31057e-05
7.29469e-05
7.29469e-05
7.27887e-05
7.27887e-05
7.26313e-05
7.26313e-05
7.24748e-05
7.24748e-05
7.23196e-05
7.23196e-05
7.21657e-05
7.21657e-05
7.20133e-05
7.20133e-05
7.18626e-05
7.18626e-05
7.17137e-05
7.17137e-05
7.15668e-05
7.15668e-05
7.14219e-05
7.14219e-05
7.12793e-05
7.12793e-05
7.11389e-05
7.11389e-05
7.10009e-05
7.10009e-05
7.08653e-05
7.08653e-05
7.07323e-05
7.07323e-05
7.06019e-05
7.06019e-05
7.04742e-05
7.04742e-05
7.03492e-05
7.03492e-05
7.0227e-05
7.0227e-05
7.01076e-05
7.01076e-05
6.9991e-05
6.9991e-05
6.98772e-05
6.98772e-05
6.97664e-05
6.97664e-05
6.96584e-05
6.96584e-05
6.95534e-05
6.95534e-05
6.94513e-05
6.94513e-05
6.93521e-05
6.93521e-05
6.92558e-05
6.92558e-05
6.91625e-05
6.91625e-05
6.9072e-05
6.9072e-05
6.89845e-05
6.89845e-05
6.88999e-05
6.88999e-05
6.88181e-05
6.88181e-05
6.87392e-05
6.87392e-05
6.86632e-05
6.86632e-05
6.859e-05
6.859e-05
6.85197e-05
6.85197e-05
6.84521e-05
6.84521e-05
6.83874e-05
6.83874e-05
6.83255e-05
6.83255e-05
6.82663e-05
6.82663e-05
6.821e-05
6.821e-05
6.81564e-05
6.81564e-05
6.81055e-05
6.81055e-05
6.80575e-05
6.80575e-05
6.80122e-05
6.80122e-05
6.79698e-05
6.79698e-05
6.79301e-05
6.79301e-05
6.78933e-05
6.78933e-05
6.78593e-05
6.78593e-05
6.78283e-05
6.78283e-05
6.78002e-05
6.78002e-05
6.77751e-05
6.77751e-05
6.77531e-05
6.77531e-05
6.77343e-05
6.77343e-05
6.77187e-05
6.77187e-05
6.77065e-05
6.77065e-05
6.76978e-05
6.76978e-05
6.76927e-05
6.76927e-05
6.76915e-05
6.76915e-05
6.76942e-05
6.76942e-05
6.77012e-05
6.77012e-05
6.77127e-05
6.77127e-05
6.7729e-05
6.7729e-05
6.77504e-05
6.77504e-05
6.77772e-05
6.77772e-05
6.781e-05
6.781e-05
6.78491e-05
6.78491e-05
6.78952e-05
6.78952e-05
6.79489e-05
6.79489e-05
6.80109e-05
6.80109e-05
6.80819e-05
6.80819e-05
6.8163e-05
6.8163e-05
6.82553e-05
6.82553e-05
6.83598e-05
6.83598e-05
6.84782e-05
6.84782e-05
6.86119e-05
6.86119e-05
6.87628e-05
6.87628e-05
6.89331e-05
6.89331e-05
6.91252e-05
6.91252e-05
6.93421e-05
6.93421e-05
6.9587e-05
6.9587e-05
6.98638e-05
6.98638e-05
7.01769e-05
7.01769e-05
7.05316e-05
7.05316e-05
7.09338e-05
7.09338e-05
7.13906e-05
7.13906e-05
7.19101e-05
7.19101e-05
7.25018e-05
7.25018e-05
7.31766e-05
7.31766e-05
7.39473e-05
7.39473e-05
7.48287e-05
7.48287e-05
7.58377e-05
7.58377e-05
7.69937e-05
7.69937e-05
7.83191e-05
7.83191e-05
7.98389e-05
7.98389e-05
8.15815e-05
8.15815e-05
8.35783e-05
8.35783e-05
8.58642e-05
8.58642e-05
8.84767e-05
8.84767e-05
9.14563e-05
9.14563e-05
9.48458e-05
9.48458e-05
9.86893e-05
9.86894e-05
0.000103032
0.000103032
0.000107919
0.000107919
0.000113395
0.000113395
0.000119502
0.000119502
0.000126281
0.000126281
0.000133768
0.000133768
0.000141999
0.000141999
0.000151005
0.000151005
0.000160812
0.000160812
0.000171446
0.000171446
0.000182928
0.000182928
0.000195277
0.000195277
0.000208512
0.000208512
0.000222648
0.000222648
0.000237699
0.000237699
0.000253679
0.000253679
0.000270602
0.000270602
0.00028848
0.00028848
0.000307326
0.000307326
0.000327154
0.000327154
0.000347976
0.000347976
0.000369807
0.000369807
0.000392659
0.00039266
0.00041655
0.00041655
0.000441492
0.000441492
0.000467503
0.000467503
0.000494598
0.000494598
0.000522794
0.000522794
0.000552108
0.000552108
0.000582559
0.000582559
0.000614163
0.000614163
0.000646939
0.000646939
0.000680906
0.000680906
0.000716082
0.000716082
0.000752484
0.000752484
0.000790132
0.000790132
0.000829044
0.000829044
0.000869237
0.000869237
0.000910729
0.000910729
0.000953536
0.000953536
0.000997675
0.000997675
0.00104316
0.00104316
0.00109001
0.00109001
0.00113824
0.00113824
0.00118785
0.00118785
0.00123887
0.00123887
0.0012913
0.0012913
0.00134515
0.00134515
0.00140042
0.00140042
0.00145714
0.00145714
0.00151529
0.00151529
0.00157489
0.00157489
0.00163593
0.00163593
0.00169842
0.00169842
0.00176235
0.00176235
0.00182772
0.00182772
0.00189453
0.00189453
0.00196276
0.00196276
0.0020324
0.0020324
0.00210345
0.00210345
0.00217588
0.00217588
0.00224969
0.00224969
0.00232484
0.00232484
0.00240133
0.00240133
0.00247912
0.00247912
0.00255819
0.00255819
0.0026385
0.0026385
0.00272004
0.00272004
0.00280276
0.00280276
0.00288662
0.00288662
0.00297159
0.00297159
0.00305763
0.00305763
0.00314469
0.00314469
0.00323271
0.00323271
0.00332166
0.00332166
0.00341148
0.00341148
0.00350211
0.00350211
0.0035935
0.0035935
0.00368558
0.00368558
0.0037783
0.0037783
0.00387157
0.00387157
0.00396535
0.00396535
0.00405954
0.00405954
0.00415409
0.00415409
0.0042489
0.0042489
0.00434391
0.00434391
0.00443902
0.00443902
0.00453415
0.00453415
0.00462922
0.00462922
0.00472413
0.00472413
0.00481878
0.00481878
0.00491308
0.00491308
0.00500692
0.00500692
0.0051002
0.0051002
0.00519281
0.00519281
0.00528464
0.00528464
0.00537557
0.00537557
0.00546548
0.00546548
0.00555424
0.00555424
0.00564173
0.00564173
0.0057278
0.0057278
0.00581231
0.00581231
0.00589512
0.00589512
0.00597607
0.00597607
0.00605498
0.00605498
0.0061317
0.0061317
0.00620603
0.00620603
0.00627778
0.00627778
0.00634674
0.00634674
0.00641269
0.00641269
0.00647537
0.00647537
0.00653453
0.00653453
0.00658989
0.00658989
0.00664112
0.00664112
0.00668789
0.00668789
0.00672981
0.00672981
0.00676644
0.00676644
0.00679732
0.00679732
0.00682189
0.00682189
0.00683953
0.00683953
0.00684954
0.00684954
0.00685107
0.00685107
0.00684317
0.00684317
0.00682471
0.00682471
0.00679434
0.00679434
0.00675047
0.00675047
0.00669116
0.00669116
0.00661407
0.00661407
0.00651636
0.00651636
0.00639449
0.00639449
0.00624413
0.00624413
0.00605988
0.00605988
0.00583505
0.00583505
0.00556143
0.00556143
0.00522913
0.00522913
0.0048268
0.0048268
0.00434276
0.00434276
0.00376816
0.00376816
0.003104
0.003104
0.00237334
0.00237334
0.00163465
0.00163465
0.000978644
0.000978644
0.000489162
0.000489162
0.000192753
0.000192753
5.35527e-05
5.35527e-05
1.02253e-05
1.02253e-05
1.97595e-05
1.97595e-05
7.15264e-05
7.15264e-05
7.1556e-05
7.1556e-05
7.16137e-05
7.16137e-05
7.16977e-05
7.16977e-05
7.18059e-05
7.18059e-05
7.19361e-05
7.19361e-05
7.2086e-05
7.2086e-05
7.2253e-05
7.2253e-05
7.24346e-05
7.24346e-05
7.26285e-05
7.26285e-05
7.28322e-05
7.28322e-05
7.30434e-05
7.30435e-05
7.326e-05
7.326e-05
7.34797e-05
7.34798e-05
7.37008e-05
7.37008e-05
7.39213e-05
7.39213e-05
7.41395e-05
7.41395e-05
7.4354e-05
7.4354e-05
7.45634e-05
7.45634e-05
7.47663e-05
7.47663e-05
7.49617e-05
7.49617e-05
7.51487e-05
7.51487e-05
7.53263e-05
7.53263e-05
7.54938e-05
7.54938e-05
7.56506e-05
7.56506e-05
7.57962e-05
7.57962e-05
7.59302e-05
7.59302e-05
7.60523e-05
7.60523e-05
7.61621e-05
7.61622e-05
7.62597e-05
7.62597e-05
7.63448e-05
7.63448e-05
7.64176e-05
7.64176e-05
7.64779e-05
7.64779e-05
7.65261e-05
7.65261e-05
7.65621e-05
7.65621e-05
7.65862e-05
7.65862e-05
7.65986e-05
7.65986e-05
7.65996e-05
7.65996e-05
7.65896e-05
7.65896e-05
7.65688e-05
7.65688e-05
7.65377e-05
7.65377e-05
7.64965e-05
7.64965e-05
7.64457e-05
7.64457e-05
7.63856e-05
7.63856e-05
7.63168e-05
7.63168e-05
7.62396e-05
7.62396e-05
7.61544e-05
7.61544e-05
7.60618e-05
7.60618e-05
7.5962e-05
7.5962e-05
7.58556e-05
7.58556e-05
7.57431e-05
7.57431e-05
7.56247e-05
7.56247e-05
7.55009e-05
7.55009e-05
7.53723e-05
7.53723e-05
7.52391e-05
7.52391e-05
7.51018e-05
7.51018e-05
7.49607e-05
7.49607e-05
7.48163e-05
7.48163e-05
7.46689e-05
7.46689e-05
7.4519e-05
7.4519e-05
7.43667e-05
7.43667e-05
7.42126e-05
7.42126e-05
7.40568e-05
7.40568e-05
7.38998e-05
7.38998e-05
7.37418e-05
7.37418e-05
7.35831e-05
7.35831e-05
7.3424e-05
7.3424e-05
7.32648e-05
7.32648e-05
7.31057e-05
7.31057e-05
7.29469e-05
7.29469e-05
7.27887e-05
7.27887e-05
7.26313e-05
7.26313e-05
7.24748e-05
7.24748e-05
7.23196e-05
7.23196e-05
7.21657e-05
7.21657e-05
7.20133e-05
7.20133e-05
7.18626e-05
7.18626e-05
7.17137e-05
7.17137e-05
7.15668e-05
7.15668e-05
7.14219e-05
7.14219e-05
7.12793e-05
7.12793e-05
7.11389e-05
7.11389e-05
7.10009e-05
7.10009e-05
7.08653e-05
7.08653e-05
7.07323e-05
7.07323e-05
7.06019e-05
7.06019e-05
7.04742e-05
7.04742e-05
7.03492e-05
7.03492e-05
7.0227e-05
7.0227e-05
7.01076e-05
7.01076e-05
6.9991e-05
6.9991e-05
6.98772e-05
6.98772e-05
6.97664e-05
6.97664e-05
6.96584e-05
6.96584e-05
6.95534e-05
6.95534e-05
6.94513e-05
6.94513e-05
6.93521e-05
6.93521e-05
6.92558e-05
6.92558e-05
6.91625e-05
6.91625e-05
6.9072e-05
6.9072e-05
6.89845e-05
6.89845e-05
6.88999e-05
6.88999e-05
6.88181e-05
6.88181e-05
6.87392e-05
6.87392e-05
6.86632e-05
6.86632e-05
6.859e-05
6.859e-05
6.85197e-05
6.85197e-05
6.84521e-05
6.84521e-05
6.83874e-05
6.83874e-05
6.83255e-05
6.83255e-05
6.82663e-05
6.82663e-05
6.821e-05
6.821e-05
6.81564e-05
6.81564e-05
6.81055e-05
6.81055e-05
6.80575e-05
6.80575e-05
6.80122e-05
6.80122e-05
6.79698e-05
6.79698e-05
6.79301e-05
6.79301e-05
6.78933e-05
6.78933e-05
6.78593e-05
6.78593e-05
6.78283e-05
6.78283e-05
6.78002e-05
6.78002e-05
6.77751e-05
6.77751e-05
6.77531e-05
6.77531e-05
6.77343e-05
6.77343e-05
6.77187e-05
6.77187e-05
6.77065e-05
6.77065e-05
6.76978e-05
6.76978e-05
6.76927e-05
6.76927e-05
6.76915e-05
6.76915e-05
6.76942e-05
6.76942e-05
6.77012e-05
6.77012e-05
6.77127e-05
6.77127e-05
6.7729e-05
6.7729e-05
6.77504e-05
6.77504e-05
6.77772e-05
6.77772e-05
6.781e-05
6.781e-05
6.78491e-05
6.78491e-05
6.78952e-05
6.78952e-05
6.79489e-05
6.79489e-05
6.80109e-05
6.80109e-05
6.80819e-05
6.80819e-05
6.8163e-05
6.8163e-05
6.82553e-05
6.82553e-05
6.83598e-05
6.83598e-05
6.84782e-05
6.84782e-05
6.86119e-05
6.86119e-05
6.87628e-05
6.87628e-05
6.89331e-05
6.89331e-05
6.91252e-05
6.91252e-05
6.93421e-05
6.93421e-05
6.9587e-05
6.9587e-05
6.98638e-05
6.98638e-05
7.01769e-05
7.01769e-05
7.05316e-05
7.05316e-05
7.09338e-05
7.09338e-05
7.13906e-05
7.13906e-05
7.19101e-05
7.19101e-05
7.25018e-05
7.25018e-05
7.31766e-05
7.31766e-05
7.39473e-05
7.39473e-05
7.48287e-05
7.48287e-05
7.58377e-05
7.58377e-05
7.69937e-05
7.69937e-05
7.83191e-05
7.83191e-05
7.98389e-05
7.98389e-05
8.15815e-05
8.15815e-05
8.35783e-05
8.35783e-05
8.58642e-05
8.58642e-05
8.84767e-05
8.84767e-05
9.14563e-05
9.14563e-05
9.48458e-05
9.48458e-05
9.86893e-05
9.86894e-05
0.000103032
0.000103032
0.000107919
0.000107919
0.000113395
0.000113395
0.000119502
0.000119502
0.000126281
0.000126281
0.000133768
0.000133768
0.000141999
0.000141999
0.000151005
0.000151005
0.000160812
0.000160812
0.000171446
0.000171446
0.000182928
0.000182928
0.000195277
0.000195277
0.000208512
0.000208512
0.000222648
0.000222648
0.000237699
0.000237699
0.000253679
0.000253679
0.000270602
0.000270602
0.00028848
0.00028848
0.000307326
0.000307326
0.000327154
0.000327154
0.000347976
0.000347976
0.000369807
0.000369807
0.000392659
0.00039266
0.00041655
0.00041655
0.000441492
0.000441492
0.000467503
0.000467503
0.000494598
0.000494598
0.000522794
0.000522794
0.000552108
0.000552108
0.000582559
0.000582559
0.000614163
0.000614163
0.000646939
0.000646939
0.000680906
0.000680906
0.000716082
0.000716082
0.000752484
0.000752484
0.000790132
0.000790132
0.000829044
0.000829044
0.000869237
0.000869237
0.000910729
0.000910729
0.000953536
0.000953536
0.000997675
0.000997675
0.00104316
0.00104316
0.00109001
0.00109001
0.00113824
0.00113824
0.00118785
0.00118785
0.00123887
0.00123887
0.0012913
0.0012913
0.00134515
0.00134515
0.00140042
0.00140042
0.00145714
0.00145714
0.00151529
0.00151529
0.00157489
0.00157489
0.00163593
0.00163593
0.00169842
0.00169842
0.00176235
0.00176235
0.00182772
0.00182772
0.00189453
0.00189453
0.00196276
0.00196276
0.0020324
0.0020324
0.00210345
0.00210345
0.00217588
0.00217588
0.00224969
0.00224969
0.00232484
0.00232484
0.00240133
0.00240133
0.00247912
0.00247912
0.00255819
0.00255819
0.0026385
0.0026385
0.00272004
0.00272004
0.00280276
0.00280276
0.00288662
0.00288662
0.00297159
0.00297159
0.00305763
0.00305763
0.00314469
0.00314469
0.00323271
0.00323271
0.00332166
0.00332166
0.00341148
0.00341148
0.00350211
0.00350211
0.0035935
0.0035935
0.00368558
0.00368558
0.0037783
0.0037783
0.00387157
0.00387157
0.00396535
0.00396535
0.00405954
0.00405954
0.00415409
0.00415409
0.0042489
0.0042489
0.00434391
0.00434391
0.00443902
0.00443902
0.00453415
0.00453415
0.00462922
0.00462922
0.00472413
0.00472413
0.00481878
0.00481878
0.00491308
0.00491308
0.00500692
0.00500692
0.0051002
0.0051002
0.00519281
0.00519281
0.00528464
0.00528464
0.00537557
0.00537557
0.00546548
0.00546548
0.00555424
0.00555424
0.00564173
0.00564173
0.0057278
0.0057278
0.00581231
0.00581231
0.00589512
0.00589512
0.00597607
0.00597607
0.00605498
0.00605498
0.0061317
0.0061317
0.00620603
0.00620603
0.00627778
0.00627778
0.00634674
0.00634674
0.00641269
0.00641269
0.00647537
0.00647537
0.00653453
0.00653453
0.00658989
0.00658989
0.00664112
0.00664112
0.00668789
0.00668789
0.00672981
0.00672981
0.00676644
0.00676644
0.00679732
0.00679732
0.00682189
0.00682189
0.00683953
0.00683953
0.00684954
0.00684954
0.00685107
0.00685107
0.00684317
0.00684317
0.00682471
0.00682471
0.00679434
0.00679434
0.00675047