/*--------------------------------*- C++ -*----------------------------------*\
| =========                 |                                                 |
| \\      /  F ield         | OpenFOAM: The Open Source CFD Toolbox           |
|  \\    /   O peration     | Version:  2012                                  |
|   \\  /    A nd           | Website:  www.openfoam.com                      |
|    \\/     M anipulation  |                                                 |
\*---------------------------------------------------------------------------*/
FoamFile
{
    version     2.0;
    format      ascii;
    class       volScalarField;
    location    "1000";
    object      p;
}
// * * * * * * * * * * * * * * * * * * * * * * * * * * * * * * * * * * * * * //

dimensions      [0 2 -2 0 0 0 0];


internalField   nonuniform List<scalar> 
2560
(
2.0818e-16
1.85497e-14
4.44836e-16
1.85492e-14
4.92544e-16
1.85485e-14
4.90774e-16
1.85476e-14
5.00169e-16
1.85465e-14
5.16286e-16
1.85451e-14
5.33987e-16
1.85434e-14
5.52998e-16
1.85416e-14
5.74112e-16
1.85396e-14
5.9782e-16
1.85377e-14
6.24355e-16
1.85357e-14
6.53848e-16
1.85339e-14
6.86556e-16
1.85321e-14
7.22449e-16
1.85306e-14
7.61334e-16
1.85293e-14
8.03292e-16
1.85283e-14
8.48264e-16
1.85277e-14
8.96069e-16
1.85273e-14
9.46605e-16
1.85272e-14
1.00006e-15
1.85276e-14
1.05629e-15
1.8528e-14
1.11512e-15
1.85288e-14
1.17616e-15
1.85301e-14
1.2398e-15
1.85317e-14
1.30578e-15
1.85334e-14
1.37416e-15
1.85349e-14
1.44466e-15
1.85366e-14
1.51734e-15
1.85389e-14
1.59174e-15
1.85419e-14
1.66829e-15
1.85446e-14
1.74633e-15
1.85475e-14
1.82592e-15
1.85501e-14
1.90734e-15
1.85529e-14
1.9899e-15
1.85563e-14
2.07367e-15
1.85601e-14
2.15853e-15
1.85642e-14
2.24481e-15
1.85681e-14
2.33239e-15
1.85723e-14
2.42075e-15
1.85772e-14
2.51021e-15
1.85817e-14
2.60068e-15
1.8586e-14
2.69183e-15
1.85909e-14
2.78333e-15
1.85965e-14
2.87553e-15
1.86017e-14
2.9681e-15
1.86073e-14
3.06049e-15
1.86132e-14
3.15328e-15
1.8619e-14
3.24661e-15
1.86255e-14
3.33992e-15
1.86321e-14
3.43335e-15
1.86382e-14
3.52728e-15
1.8645e-14
3.62066e-15
1.86517e-14
3.71388e-15
1.86575e-14
3.80685e-15
1.86641e-14
3.89972e-15
1.86704e-14
3.99262e-15
1.86764e-14
4.08525e-15
1.86832e-14
4.17797e-15
1.86901e-14
4.26952e-15
1.86967e-14
4.36075e-15
1.87035e-14
4.45135e-15
1.87106e-14
4.54122e-15
1.87179e-14
4.63123e-15
1.87238e-14
4.72173e-15
1.87289e-14
4.81125e-15
1.87347e-14
4.89969e-15
1.87401e-14
4.98698e-15
1.87454e-14
5.07349e-15
1.87509e-14
5.15958e-15
1.87567e-14
5.24517e-15
1.87629e-14
5.32971e-15
1.87686e-14
5.41356e-15
1.87734e-14
5.49663e-15
1.87778e-14
5.57884e-15
1.87829e-14
5.66095e-15
1.87877e-14
5.74156e-15
1.87927e-14
5.82146e-15
1.87968e-14
5.90054e-15
1.88013e-14
5.97828e-15
1.88062e-14
6.05501e-15
1.88116e-14
6.13104e-15
1.88168e-14
6.20668e-15
1.88198e-14
6.28142e-15
1.88223e-14
6.35473e-15
1.88256e-14
6.42851e-15
1.8829e-14
6.50145e-15
1.88321e-14
6.57265e-15
1.88352e-14
6.64318e-15
1.88363e-14
6.7129e-15
1.88378e-14
6.78208e-15
1.88399e-14
6.84984e-15
1.88412e-14
6.91644e-15
1.88421e-14
6.9814e-15
1.88435e-14
7.04639e-15
1.88444e-14
7.11127e-15
1.88439e-14
7.17518e-15
1.88431e-14
7.23936e-15
1.88432e-14
7.30229e-15
1.88444e-14
7.36349e-15
1.8844e-14
7.42517e-15
1.88415e-14
7.4855e-15
1.88391e-14
7.54565e-15
1.88366e-14
7.60415e-15
1.88321e-14
7.66213e-15
1.88285e-14
7.72006e-15
1.88253e-14
7.77712e-15
1.88206e-14
7.83316e-15
1.88159e-14
7.88861e-15
1.88096e-14
7.94388e-15
1.88018e-14
7.99762e-15
1.87957e-14
8.05024e-15
1.87897e-14
8.10328e-15
1.87821e-14
8.15541e-15
1.87733e-14
8.20867e-15
1.87633e-14
8.26228e-15
1.8753e-14
8.31549e-15
1.87419e-14
8.36864e-15
1.87308e-14
8.42045e-15
1.87199e-14
8.47075e-15
1.87099e-14
8.52199e-15
1.86998e-14
8.57238e-15
1.86888e-14
8.62174e-15
1.86776e-14
8.67142e-15
1.86659e-14
8.72172e-15
1.86539e-14
8.77247e-15
1.86411e-14
8.82295e-15
1.86289e-14
8.8725e-15
1.86173e-14
8.92145e-15
1.86055e-14
8.97065e-15
1.85932e-14
9.01896e-15
1.85805e-14
9.06674e-15
1.8569e-14
9.11386e-15
1.85589e-14
9.16276e-15
1.85473e-14
9.21185e-15
1.85338e-14
9.26008e-15
1.85214e-14
9.30843e-15
1.85099e-14
9.35745e-15
1.84976e-14
9.40561e-15
1.84856e-14
9.45678e-15
1.84761e-14
9.50789e-15
1.84664e-14
9.55681e-15
1.84558e-14
9.6066e-15
1.84478e-14
9.65819e-15
1.84412e-14
9.71012e-15
1.84339e-14
9.7621e-15
1.84278e-14
9.81663e-15
1.8424e-14
9.87075e-15
1.84217e-14
9.92716e-15
1.84186e-14
9.98337e-15
1.84149e-14
1.00407e-14
1.8417e-14
1.00998e-14
1.84196e-14
1.01654e-14
1.84283e-14
1.02303e-14
1.84412e-14
1.02995e-14
1.84561e-14
1.0362e-14
1.84701e-14
1.0425e-14
1.84826e-14
1.04972e-14
1.84953e-14
1.05801e-14
1.85281e-14
1.06663e-14
1.85673e-14
1.07498e-14
1.85997e-14
1.08305e-14
1.86378e-14
1.09081e-14
1.86815e-14
1.10023e-14
1.87346e-14
1.11026e-14
1.87891e-14
1.12097e-14
1.88401e-14
1.13198e-14
1.88956e-14
1.14428e-14
1.89552e-14
1.15597e-14
1.90188e-14
1.16804e-14
1.90965e-14
1.1805e-14
1.91834e-14
1.19338e-14
1.92853e-14
1.20726e-14
1.93969e-14
1.22098e-14
1.94941e-14
1.23448e-14
1.96005e-14
1.24901e-14
1.97226e-14
1.26459e-14
1.9815e-14
1.27988e-14
1.99162e-14
1.29621e-14
2.00262e-14
1.31358e-14
2.01383e-14
1.32985e-14
2.02735e-14
1.34853e-14
2.03747e-14
1.36746e-14
2.04774e-14
1.38586e-14
2.05666e-14
1.40516e-14
2.06868e-14
1.42458e-14
2.07932e-14
1.44407e-14
2.08704e-14
1.46435e-14
2.09484e-14
1.48461e-14
2.10271e-14
1.5048e-14
2.11373e-14
1.52409e-14
2.12561e-14
1.54395e-14
2.13912e-14
1.56197e-14
2.14963e-14
1.58197e-14
2.15949e-14
1.60154e-14
2.17338e-14
1.62061e-14
2.18899e-14
1.64061e-14
2.19939e-14
1.65683e-14
2.21312e-14
1.67533e-14
2.23099e-14
1.69597e-14
2.24539e-14
1.71711e-14
2.25791e-14
1.73714e-14
2.27317e-14
1.75444e-14
2.28969e-14
1.77339e-14
2.30157e-14
1.79388e-14
2.31486e-14
1.8143e-14
2.32663e-14
1.83748e-14
2.33698e-14
1.85896e-14
2.35172e-14
1.88152e-14
2.36223e-14
1.90507e-14
2.37004e-14
1.9267e-14
2.37943e-14
1.9478e-14
2.39037e-14
1.96965e-14
2.39734e-14
1.99084e-14
2.40177e-14
2.01134e-14
2.4091e-14
2.03242e-14
2.41926e-14
2.05134e-14
2.43486e-14
2.07323e-14
2.44408e-14
2.0941e-14
2.45094e-14
2.11393e-14
2.4606e-14
2.13391e-14
2.47427e-14
2.15394e-14
2.48188e-14
2.17396e-14
2.48854e-14
2.19273e-14
2.49914e-14
2.2114e-14
2.51241e-14
2.23107e-14
2.51999e-14
2.25049e-14
2.52314e-14
2.26852e-14
2.52888e-14
2.28635e-14
2.53711e-14
2.30391e-14
2.55006e-14
2.32112e-14
2.55521e-14
2.33908e-14
2.55822e-14
2.35782e-14
2.56453e-14
2.37734e-14
2.57725e-14
2.39866e-14
2.58434e-14
2.41862e-14
2.58898e-14
2.43631e-14
2.60054e-14
2.45489e-14
2.60842e-14
2.47128e-14
2.6188e-14
2.48756e-14
2.62552e-14
2.50474e-14
2.63255e-14
2.52089e-14
2.64175e-14
2.53603e-14
2.65006e-14
2.55119e-14
2.65842e-14
2.56543e-14
2.66961e-14
2.58155e-14
2.6769e-14
2.59585e-14
2.68683e-14
2.61015e-14
2.69564e-14
2.6245e-14
2.69962e-14
2.63538e-14
2.70229e-14
2.64832e-14
2.70523e-14
2.66338e-14
2.70997e-14
2.67548e-14
2.72146e-14
2.68809e-14
2.72918e-14
2.69614e-14
2.74332e-14
2.70625e-14
2.75543e-14
2.71985e-14
2.76227e-14
2.7337e-14
2.77205e-14
2.74948e-14
2.78298e-14
2.76236e-14
2.79654e-14
2.77557e-14
2.8063e-14
2.7892e-14
2.81541e-14
2.80172e-14
2.82529e-14
2.81475e-14
2.83273e-14
2.82998e-14
2.84222e-14
2.84602e-14
2.85198e-14
2.8586e-14
2.86475e-14
2.8693e-14
2.87149e-14
2.87684e-14
2.88241e-14
2.88842e-14
2.8931e-14
2.89676e-14
2.90647e-14
2.90593e-14
2.91702e-14
2.91437e-14
2.92206e-14
2.92357e-14
2.92852e-14
2.93495e-14
2.94041e-14
2.94428e-14
2.95765e-14
2.95529e-14
2.96967e-14
2.96248e-14
2.97668e-14
2.97251e-14
2.98009e-14
2.98165e-14
2.98882e-14
2.98856e-14
3.00011e-14
2.99819e-14
3.01426e-14
3.00637e-14
3.02148e-14
3.01307e-14
3.02704e-14
3.01964e-14
3.03206e-14
3.02983e-14
3.03884e-14
3.04009e-14
3.04592e-14
3.04706e-14
3.04824e-14
3.05366e-14
3.0515e-14
3.06371e-14
3.05651e-14
3.06691e-14
3.06538e-14
3.07247e-14
3.07262e-14
3.07913e-14
3.07488e-14
3.0885e-14
3.08218e-14
3.09287e-14
3.08976e-14
3.09887e-14
3.09569e-14
3.10647e-14
3.10238e-14
3.1113e-14
3.10977e-14
3.11322e-14
3.11574e-14
3.1204e-14
3.12514e-14
3.12607e-14
3.12736e-14
3.1326e-14
3.1328e-14
3.13578e-14
3.14114e-14
3.14354e-14
3.1488e-14
3.14765e-14
3.1559e-14
3.14981e-14
3.15674e-14
3.15615e-14
3.15956e-14
3.16099e-14
3.16387e-14
3.16645e-14
3.16989e-14
3.17046e-14
3.17567e-14
3.17673e-14
3.18134e-14
3.18159e-14
3.18495e-14
3.18331e-14
3.18828e-14
3.18748e-14
3.19353e-14
3.19026e-14
3.20099e-14
3.19482e-14
3.2015e-14
3.19971e-14
3.20236e-14
3.20181e-14
3.20474e-14
3.20303e-14
3.21045e-14
3.20687e-14
3.20848e-14
3.20697e-14
3.21075e-14
1.48444e-14
1.63102e-14
1.48444e-14
1.63101e-14
1.48444e-14
1.63102e-14
1.48446e-14
1.63102e-14
1.48447e-14
1.63102e-14
1.4845e-14
1.63102e-14
1.48453e-14
1.63103e-14
1.48457e-14
1.63103e-14
1.48463e-14
1.63104e-14
1.4847e-14
1.63105e-14
1.48479e-14
1.63105e-14
1.4849e-14
1.63107e-14
1.48502e-14
1.63108e-14
1.48518e-14
1.63109e-14
1.48535e-14
1.63111e-14
1.48554e-14
1.63114e-14
1.48576e-14
1.63116e-14
1.48601e-14
1.63117e-14
1.4863e-14
1.63119e-14
1.48659e-14
1.63121e-14
1.48692e-14
1.63125e-14
1.48725e-14
1.6313e-14
1.48762e-14
1.63137e-14
1.48798e-14
1.63143e-14
1.48841e-14
1.63146e-14
1.48886e-14
1.63149e-14
1.48932e-14
1.63154e-14
1.48981e-14
1.63161e-14
1.49037e-14
1.63171e-14
1.49094e-14
1.63179e-14
1.49153e-14
1.63181e-14
1.49213e-14
1.63186e-14
1.49279e-14
1.63197e-14
1.49349e-14
1.63209e-14
1.49418e-14
1.63218e-14
1.49488e-14
1.63228e-14
1.4956e-14
1.63239e-14
1.49634e-14
1.63249e-14
1.49713e-14
1.63253e-14
1.49793e-14
1.63258e-14
1.49874e-14
1.63267e-14
1.49951e-14
1.63281e-14
1.50035e-14
1.63292e-14
1.50124e-14
1.63298e-14
1.50213e-14
1.63305e-14
1.50303e-14
1.63311e-14
1.50398e-14
1.63318e-14
1.50492e-14
1.63331e-14
1.50588e-14
1.63337e-14
1.50682e-14
1.63343e-14
1.50779e-14
1.63351e-14
1.50878e-14
1.63362e-14
1.50982e-14
1.63375e-14
1.51085e-14
1.63389e-14
1.51185e-14
1.63402e-14
1.51288e-14
1.6342e-14
1.51392e-14
1.63434e-14
1.51495e-14
1.63454e-14
1.51596e-14
1.63477e-14
1.51702e-14
1.63496e-14
1.51811e-14
1.63514e-14
1.51921e-14
1.63537e-14
1.5203e-14
1.63569e-14
1.52138e-14
1.63596e-14
1.52245e-14
1.63623e-14
1.52375e-14
1.6365e-14
1.52499e-14
1.63668e-14
1.52622e-14
1.63704e-14
1.52745e-14
1.6373e-14
1.52862e-14
1.63751e-14
1.5298e-14
1.63781e-14
1.53096e-14
1.63811e-14
1.53217e-14
1.63841e-14
1.53342e-14
1.63874e-14
1.53454e-14
1.63912e-14
1.5357e-14
1.63944e-14
1.53691e-14
1.63976e-14
1.53812e-14
1.64012e-14
1.53934e-14
1.64047e-14
1.54043e-14
1.64081e-14
1.54153e-14
1.64123e-14
1.54269e-14
1.64165e-14
1.54381e-14
1.64213e-14
1.54495e-14
1.64269e-14
1.5461e-14
1.64324e-14
1.54722e-14
1.64382e-14
1.54829e-14
1.6445e-14
1.54937e-14
1.64509e-14
1.55044e-14
1.64571e-14
1.55149e-14
1.64643e-14
1.55268e-14
1.64703e-14
1.55375e-14
1.64768e-14
1.55488e-14
1.64833e-14
1.55605e-14
1.64885e-14
1.55724e-14
1.64943e-14
1.55847e-14
1.6501e-14
1.55973e-14
1.6509e-14
1.561e-14
1.65164e-14
1.56238e-14
1.65223e-14
1.56366e-14
1.65285e-14
1.56499e-14
1.65357e-14
1.56614e-14
1.65435e-14
1.5674e-14
1.65514e-14
1.56881e-14
1.65585e-14
1.57005e-14
1.65654e-14
1.57145e-14
1.65721e-14
1.57269e-14
1.65787e-14
1.57397e-14
1.65875e-14
1.57529e-14
1.65955e-14
1.5767e-14
1.66039e-14
1.57816e-14
1.66126e-14
1.57961e-14
1.66206e-14
1.581e-14
1.66284e-14
1.58239e-14
1.66366e-14
1.58383e-14
1.66446e-14
1.5854e-14
1.66523e-14
1.5867e-14
1.66604e-14
1.58797e-14
1.667e-14
1.58932e-14
1.66804e-14
1.59065e-14
1.669e-14
1.59202e-14
1.67e-14
1.59342e-14
1.67087e-14
1.59482e-14
1.67183e-14
1.59616e-14
1.67293e-14
1.59751e-14
1.67406e-14
1.59893e-14
1.67522e-14
1.60026e-14
1.67636e-14
1.60151e-14
1.67765e-14
1.60275e-14
1.67887e-14
1.60417e-14
1.67998e-14
1.60568e-14
1.68113e-14
1.60714e-14
1.68238e-14
1.60861e-14
1.68358e-14
1.61005e-14
1.68477e-14
1.61165e-14
1.68602e-14
1.61333e-14
1.68738e-14
1.61516e-14
1.6888e-14
1.61692e-14
1.69035e-14
1.61868e-14
1.69204e-14
1.6205e-14
1.6937e-14
1.62238e-14
1.69547e-14
1.62422e-14
1.69734e-14
1.62632e-14
1.69953e-14
1.62852e-14
1.7018e-14
1.63088e-14
1.70397e-14
1.63336e-14
1.70626e-14
1.63596e-14
1.70888e-14
1.63877e-14
1.71181e-14
1.64179e-14
1.71492e-14
1.64496e-14
1.71806e-14
1.64829e-14
1.72142e-14
1.65216e-14
1.72462e-14
1.65641e-14
1.72848e-14
1.66085e-14
1.73263e-14
1.66547e-14
1.73636e-14
1.6705e-14
1.74012e-14
1.67599e-14
1.74498e-14
1.68076e-14
1.75049e-14
1.68624e-14
1.7567e-14
1.69246e-14
1.76334e-14
1.69878e-14
1.76974e-14
1.70515e-14
1.77656e-14
1.71309e-14
1.78264e-14
1.72067e-14
1.79036e-14
1.7291e-14
1.79852e-14
1.73702e-14
1.80624e-14
1.74531e-14
1.81485e-14
1.75395e-14
1.82392e-14
1.76343e-14
1.83133e-14
1.77325e-14
1.83911e-14
1.78225e-14
1.84949e-14
1.79209e-14
1.85972e-14
1.80459e-14
1.86731e-14
1.8174e-14
1.87706e-14
1.82731e-14
1.88968e-14
1.83936e-14
1.90005e-14
1.85094e-14
1.91205e-14
1.86201e-14
1.92781e-14
1.8746e-14
1.94184e-14
1.88803e-14
1.95408e-14
1.90229e-14
1.96876e-14
1.91373e-14
1.98374e-14
1.92668e-14
1.99902e-14
1.93966e-14
2.01161e-14
1.95114e-14
2.02521e-14
1.96564e-14
2.04137e-14
1.98089e-14
2.05781e-14
1.99609e-14
2.07533e-14
2.01124e-14
2.09083e-14
2.02632e-14
2.10898e-14
2.04131e-14
2.12511e-14
2.05542e-14
2.13923e-14
2.0702e-14
2.15445e-14
2.08488e-14
2.17157e-14
2.09944e-14
2.18903e-14
2.11386e-14
2.20453e-14
2.13124e-14
2.21887e-14
2.14311e-14
2.23667e-14
2.15715e-14
2.25333e-14
2.17484e-14
2.26584e-14
2.19012e-14
2.28028e-14
2.20303e-14
2.29665e-14
2.21359e-14
2.31494e-14
2.22623e-14
2.32926e-14
2.24238e-14
2.34265e-14
2.25763e-14
2.35804e-14
2.27198e-14
2.37399e-14
2.28975e-14
2.38622e-14
2.30664e-14
2.39621e-14
2.3199e-14
2.41243e-14
2.33515e-14
2.42507e-14
2.34823e-14
2.43974e-14
2.36464e-14
2.44826e-14
2.38302e-14
2.45885e-14
2.40072e-14
2.4728e-14
2.41649e-14
2.48607e-14
2.4304e-14
2.49736e-14
2.44511e-14
2.50933e-14
2.46063e-14
2.52327e-14
2.47571e-14
2.5341e-14
2.49042e-14
2.54186e-14
2.50111e-14
2.55031e-14
2.51403e-14
2.55945e-14
2.52676e-14
2.56926e-14
2.54054e-14
2.58089e-14
2.55184e-14
2.59315e-14
2.56187e-14
2.60025e-14
2.57649e-14
2.60696e-14
2.5877e-14
2.62236e-14
2.60008e-14
2.6373e-14
2.61134e-14
2.64745e-14
2.62375e-14
2.6552e-14
2.63516e-14
2.67042e-14
2.64663e-14
2.68333e-14
2.65704e-14
2.69196e-14
2.66538e-14
2.70383e-14
2.67891e-14
2.70856e-14
2.68839e-14
2.7165e-14
2.70105e-14
2.72759e-14
2.71082e-14
2.73678e-14
2.72077e-14
2.74418e-14
2.72994e-14
2.75177e-14
2.73935e-14
2.76056e-14
2.749e-14
2.77247e-14
2.75982e-14
2.77994e-14
2.77371e-14
2.78306e-14
2.78158e-14
2.78913e-14
2.79095e-14
2.79807e-14
2.79998e-14
2.80809e-14
2.81051e-14
2.81392e-14
2.81731e-14
2.82096e-14
2.82395e-14
2.82926e-14
2.8304e-14
2.8406e-14
2.83996e-14
2.85168e-14
2.8509e-14
2.86258e-14
2.85824e-14
2.86999e-14
2.86701e-14
2.87738e-14
2.87885e-14
2.8864e-14
2.88566e-14
2.89535e-14
2.89227e-14
2.90428e-14
2.90336e-14
2.91492e-14
2.91256e-14
2.92259e-14
2.92153e-14
2.92734e-14
2.9304e-14
2.93684e-14
2.93909e-14
2.94648e-14
2.94602e-14
2.95789e-14
2.95249e-14
2.96825e-14
2.95836e-14
2.97786e-14
2.96642e-14
2.98402e-14
2.97666e-14
2.98963e-14
2.985e-14
2.99591e-14
2.99299e-14
3.00133e-14
3.00219e-14
3.00588e-14
3.01144e-14
3.01499e-14
3.01939e-14
3.02719e-14
3.02724e-14
3.0344e-14
3.03502e-14
3.04069e-14
3.04286e-14
3.04606e-14
3.05089e-14
3.05318e-14
3.05657e-14
3.05806e-14
3.06389e-14
3.06061e-14
3.07182e-14
3.06292e-14
3.07564e-14
3.07223e-14
3.0814e-14
3.08003e-14
3.08777e-14
3.08534e-14
3.09104e-14
3.09064e-14
3.09223e-14
3.09603e-14
3.09704e-14
3.10194e-14
3.10172e-14
3.10259e-14
3.10282e-14
3.10605e-14
3.10495e-14
3.11231e-14
3.10654e-14
3.11697e-14
3.10951e-14
3.12046e-14
3.11472e-14
3.12392e-14
3.12002e-14
3.12487e-14
3.12574e-14
3.12964e-14
3.12965e-14
3.13807e-14
3.13802e-14
3.14172e-14
3.1427e-14
3.14681e-14
3.15015e-14
3.15322e-14
3.15623e-14
3.16108e-14
3.16078e-14
3.16427e-14
3.16194e-14
3.16893e-14
3.16754e-14
3.17107e-14
3.17377e-14
3.17227e-14
3.17517e-14
3.17623e-14
3.17958e-14
3.17501e-14
3.18349e-14
3.18005e-14
3.18879e-14
3.18729e-14
3.18929e-14
3.19097e-14
3.19237e-14
3.19543e-14
3.19572e-14
3.19894e-14
3.1955e-14
3.20159e-14
3.19893e-14
3.20953e-14
3.20341e-14
3.20974e-14
3.20563e-14
3.2134e-14
3.20712e-14
3.21709e-14
3.20363e-14
3.22517e-14
3.20255e-14
3.2301e-14
3.20238e-14
3.23361e-14
3.20872e-14
3.21365e-14
3.21035e-14
3.21561e-14
3.21536e-14
3.22079e-14
3.21942e-14
3.22617e-14
3.22222e-14
3.22654e-14
3.22804e-14
3.23125e-14
3.23523e-14
3.23042e-14
3.2373e-14
3.23227e-14
3.24213e-14
3.23696e-14
3.24401e-14
3.24478e-14
3.24581e-14
3.24508e-14
3.24761e-14
3.24739e-14
3.24922e-14
3.25551e-14
3.25203e-14
3.2581e-14
3.25415e-14
3.26105e-14
3.25757e-14
3.26444e-14
3.26054e-14
3.2642e-14
3.26121e-14
3.26827e-14
3.26543e-14
3.27069e-14
3.2692e-14
3.26909e-14
3.27278e-14
3.27128e-14
3.27852e-14
3.27493e-14
3.28242e-14
3.28208e-14
3.28639e-14
3.28233e-14
3.28631e-14
3.28637e-14
3.28841e-14
3.29236e-14
3.29013e-14
3.29612e-14
3.29363e-14
3.29556e-14
3.29705e-14
3.29957e-14
3.29915e-14
3.30001e-14
3.30119e-14
3.29298e-14
3.30496e-14
3.29539e-14
3.30577e-14
3.30264e-14
3.30314e-14
3.30571e-14
3.30396e-14
3.30994e-14
3.30438e-14
3.31074e-14
3.30433e-14
3.30681e-14
3.29906e-14
3.30656e-14
3.29953e-14
3.30661e-14
3.29946e-14
3.30695e-14
3.29886e-14
3.30369e-14
3.29789e-14
3.30306e-14
3.29788e-14
3.3039e-14
3.29348e-14
3.2983e-14
3.29267e-14
3.29805e-14
3.29143e-14
3.29649e-14
3.28979e-14
3.29217e-14
3.28646e-14
3.29041e-14
3.28696e-14
3.29e-14
3.28724e-14
3.29376e-14
3.28429e-14
3.29047e-14
3.27953e-14
3.28574e-14
3.2758e-14
3.28398e-14
3.27309e-14
3.2867e-14
3.2698e-14
3.28078e-14
3.26453e-14
3.27795e-14
3.26174e-14
3.27989e-14
3.25981e-14
3.27924e-14
3.25563e-14
3.27452e-14
3.25073e-14
3.27035e-14
3.24984e-14
3.26679e-14
3.2532e-14
3.25565e-14
3.24514e-14
3.25084e-14
3.24168e-14
3.24762e-14
3.23962e-14
3.2443e-14
3.23738e-14
3.23579e-14
3.23178e-14
3.23027e-14
3.22788e-14
3.22613e-14
3.22228e-14
3.22687e-14
3.21827e-14
3.22396e-14
3.21765e-14
3.2244e-14
3.21691e-14
3.22297e-14
3.21427e-14
3.2215e-14
3.21149e-14
3.21639e-14
3.20859e-14
3.21305e-14
3.20935e-14
3.21528e-14
3.20816e-14
3.21188e-14
3.20502e-14
3.20361e-14
3.2019e-14
3.19702e-14
3.20278e-14
3.19899e-14
3.2028e-14
3.19884e-14
3.20093e-14
3.19859e-14
3.20015e-14
3.19314e-14
3.19644e-14
3.19052e-14
3.19179e-14
3.18979e-14
3.18925e-14
3.18476e-14
3.18572e-14
3.17955e-14
3.17905e-14
3.17731e-14
3.17561e-14
3.17928e-14
3.1721e-14
3.17794e-14
3.1707e-14
3.17328e-14
3.16814e-14
3.17306e-14
3.16551e-14
3.17171e-14
3.16395e-14
3.16573e-14
3.16239e-14
3.16081e-14
3.1573e-14
3.16403e-14
3.1557e-14
3.1613e-14
3.15163e-14
3.15973e-14
3.14992e-14
3.15448e-14
3.14695e-14
3.14787e-14
3.14272e-14
3.14735e-14
3.1397e-14
3.14674e-14
3.1366e-14
3.14351e-14
3.13345e-14
3.1402e-14
3.13024e-14
3.1368e-14
3.12567e-14
3.13594e-14
3.12367e-14
3.13501e-14
3.1216e-14
3.13128e-14
3.11947e-14
3.12879e-14
3.11728e-14
3.13033e-14
3.11641e-14
3.12901e-14
3.11546e-14
3.12761e-14
3.11446e-14
3.12042e-14
3.11488e-14
3.11732e-14
3.11533e-14
3.11837e-14
3.11581e-14
3.11929e-14
3.11632e-14
3.11125e-14
3.11544e-14
3.10589e-14
3.11465e-14
3.10177e-14
3.11396e-14
3.09889e-14
3.1149e-14
3.09724e-14
3.11292e-14
3.09989e-14
3.10949e-14
3.09927e-14
3.10763e-14
3.09998e-14
3.10427e-14
3.10053e-14
3.10246e-14
3.10325e-14
3.1053e-14
3.09968e-14
3.10816e-14
3.09518e-14
3.10642e-14
3.09519e-14
3.1055e-14
3.09584e-14
3.10696e-14
3.09403e-14
3.10691e-14
3.0921e-14
3.10537e-14
3.08849e-14
3.1039e-14
3.08861e-14
3.10403e-14
3.09016e-14
3.10342e-14
3.08777e-14
3.10135e-14
3.08606e-14
3.09858e-14
3.08802e-14
3.09734e-14
3.08916e-14
3.09611e-14
3.09096e-14
3.09345e-14
3.09125e-14
3.09151e-14
3.0908e-14
3.08888e-14
3.09034e-14
3.08764e-14
3.08781e-14
3.08505e-14
3.08801e-14
3.08247e-14
3.08952e-14
3.08119e-14
3.08843e-14
3.07991e-14
3.08737e-14
3.0774e-14
3.08696e-14
3.07728e-14
3.08774e-14
3.07598e-14
3.08681e-14
3.07468e-14
3.08538e-14
3.0734e-14
3.08507e-14
3.07112e-14
3.08681e-14
3.06985e-14
3.08753e-14
3.06952e-14
3.08778e-14
3.06872e-14
3.08892e-14
3.0679e-14
3.08962e-14
3.06708e-14
3.08953e-14
3.06626e-14
3.08985e-14
3.06578e-14
3.08948e-14
3.06561e-14
3.08983e-14
3.06572e-14
3.08956e-14
3.06548e-14
3.08935e-14
3.06522e-14
3.08918e-14
3.06544e-14
3.08957e-14
3.06584e-14
3.08948e-14
3.06663e-14
3.0901e-14
3.06713e-14
3.08966e-14
3.06716e-14
3.08888e-14
3.06735e-14
3.08855e-14
3.06784e-14
3.08825e-14
3.06827e-14
3.08832e-14
3.0682e-14
3.08857e-14
3.06817e-14
3.0886e-14
3.06833e-14
3.08858e-14
3.06852e-14
3.08858e-14
3.06849e-14
3.08835e-14
3.06851e-14
3.0882e-14
3.06855e-14
3.08849e-14
3.06875e-14
3.08873e-14
3.06876e-14
3.08882e-14
3.06879e-14
3.08881e-14
3.06887e-14
3.08893e-14
3.06886e-14
3.089e-14
3.06879e-14
3.08904e-14
3.06881e-14
3.08915e-14
3.0689e-14
3.08927e-14
3.06898e-14
3.08936e-14
3.06899e-14
3.0894e-14
3.06894e-14
3.08942e-14
3.06887e-14
3.08945e-14
3.06883e-14
3.08949e-14
3.06878e-14
3.08954e-14
3.06872e-14
3.08966e-14
3.06869e-14
3.08969e-14
3.0687e-14
3.08963e-14
3.06864e-14
3.08959e-14
3.06862e-14
3.08965e-14
3.06859e-14
3.08973e-14
3.06854e-14
3.08977e-14
3.06848e-14
3.08982e-14
3.06846e-14
3.08983e-14
3.06843e-14
3.08996e-14
3.06839e-14
3.0901e-14
3.06839e-14
3.09019e-14
3.06839e-14
3.0903e-14
3.06831e-14
3.09041e-14
3.06822e-14
3.09048e-14
3.06818e-14
3.09056e-14
3.06831e-14
3.09065e-14
3.06842e-14
3.09063e-14
3.06841e-14
3.09062e-14
3.06845e-14
3.09056e-14
3.06848e-14
3.09063e-14
3.06844e-14
3.09058e-14
3.06846e-14
3.09035e-14
3.06847e-14
3.09018e-14
3.0686e-14
3.09003e-14
3.06862e-14
3.09007e-14
3.06868e-14
3.09005e-14
3.06872e-14
3.08997e-14
3.06873e-14
3.08993e-14
3.0687e-14
3.09e-14
3.06872e-14
3.09e-14
3.06878e-14
3.08991e-14
3.06884e-14
3.08981e-14
3.06892e-14
3.08973e-14
3.06896e-14
3.08982e-14
3.06893e-14
3.08996e-14
3.06896e-14
3.08996e-14
3.06899e-14
3.08974e-14
3.06898e-14
3.08963e-14
3.06888e-14
3.08967e-14
3.06878e-14
3.08977e-14
3.06876e-14
3.08978e-14
3.06872e-14
3.08984e-14
3.06861e-14
3.08983e-14
3.06853e-14
3.08986e-14
3.06848e-14
3.09006e-14
3.06835e-14
3.09026e-14
3.06825e-14
3.09042e-14
3.06811e-14
3.09055e-14
3.06796e-14
3.09069e-14
3.06789e-14
3.09069e-14
3.06782e-14
3.09071e-14
3.0677e-14
3.09085e-14
3.06757e-14
3.09092e-14
3.0674e-14
3.09103e-14
3.06722e-14
3.0911e-14
3.06712e-14
3.09122e-14
3.06707e-14
3.09129e-14
3.06706e-14
3.09124e-14
3.06709e-14
3.09123e-14
3.06708e-14
3.09136e-14
3.0671e-14
3.09145e-14
3.06717e-14
3.0915e-14
3.06719e-14
3.09145e-14
3.06721e-14
3.09137e-14
3.06732e-14
3.09133e-14
3.06741e-14
3.09122e-14
3.06746e-14
3.09116e-14
3.06752e-14
3.09124e-14
3.06757e-14
3.09126e-14
3.0676e-14
3.09118e-14
3.0677e-14
3.09111e-14
3.06782e-14
3.09108e-14
3.06786e-14
3.09106e-14
3.06793e-14
3.09104e-14
3.06799e-14
3.09107e-14
3.06808e-14
3.09112e-14
3.06816e-14
3.09108e-14
3.06822e-14
3.09106e-14
3.06828e-14
3.09105e-14
3.06833e-14
3.09104e-14
3.06838e-14
3.09101e-14
3.06846e-14
3.09102e-14
3.06857e-14
3.09104e-14
3.06871e-14
3.09099e-14
3.06882e-14
3.09096e-14
3.06893e-14
3.09091e-14
3.06902e-14
3.09087e-14
3.0691e-14
3.09087e-14
3.06918e-14
3.09082e-14
3.06926e-14
3.09072e-14
3.06935e-14
3.09066e-14
3.06944e-14
3.09062e-14
3.06951e-14
3.09057e-14
3.06958e-14
3.09054e-14
3.06963e-14
3.0905e-14
3.06971e-14
3.09047e-14
3.06979e-14
3.09045e-14
3.06986e-14
3.09038e-14
3.06995e-14
3.0903e-14
3.07004e-14
3.09025e-14
3.07011e-14
3.09024e-14
3.0702e-14
3.09022e-14
3.07027e-14
3.09021e-14
3.07034e-14
3.09018e-14
3.07039e-14
3.09014e-14
3.07046e-14
3.0901e-14
3.07051e-14
3.09008e-14
3.07056e-14
3.09005e-14
3.0706e-14
3.09003e-14
3.07064e-14
3.09002e-14
3.07067e-14
3.09e-14
3.07072e-14
3.08999e-14
3.07075e-14
3.08998e-14
3.07077e-14
3.08997e-14
3.07079e-14
3.08996e-14
3.07081e-14
3.08995e-14
3.07082e-14
3.08995e-14
3.07083e-14
3.08994e-14
3.07083e-14
3.08994e-14
3.07084e-14
3.08994e-14
3.07084e-14
3.08994e-14
3.07085e-14
3.08994e-14
3.07085e-14
3.08994e-14
3.07085e-14
3.08994e-14
3.07085e-14
3.08994e-14
3.20041e-14
3.23472e-14
3.20536e-14
3.23379e-14
3.21678e-14
3.22941e-14
3.22252e-14
3.22961e-14
3.22549e-14
3.22924e-14
3.23011e-14
3.23352e-14
3.2344e-14
3.23848e-14
3.23612e-14
3.23872e-14
3.23741e-14
3.23976e-14
3.24406e-14
3.23931e-14
3.24736e-14
3.2439e-14
3.25121e-14
3.25206e-14
3.25115e-14
3.25862e-14
3.25235e-14
3.26426e-14
3.25427e-14
3.26755e-14
3.25264e-14
3.26857e-14
3.25736e-14
3.26947e-14
3.26066e-14
3.27405e-14
3.26471e-14
3.27608e-14
3.27406e-14
3.27954e-14
3.27669e-14
3.28407e-14
3.27884e-14
3.28777e-14
3.2824e-14
3.2885e-14
3.28544e-14
3.29007e-14
3.28806e-14
3.29463e-14
3.29023e-14
3.30013e-14
3.29169e-14
3.30226e-14
3.29238e-14
3.3009e-14
3.297e-14
3.30734e-14
3.29971e-14
3.31256e-14
3.30272e-14
3.31097e-14
3.30641e-14
3.31059e-14
3.3063e-14
3.31462e-14
3.30443e-14
3.31358e-14
3.30444e-14
3.31461e-14
3.30753e-14
3.3152e-14
3.30528e-14
3.31391e-14
3.30379e-14
3.31081e-14
3.30456e-14
3.31075e-14
3.30384e-14
3.31116e-14
3.30284e-14
3.31208e-14
3.30144e-14
3.30719e-14
3.30115e-14
3.30661e-14
3.30066e-14
3.3077e-14
3.3e-14
3.30668e-14
3.29782e-14
3.30617e-14
3.29814e-14
3.30489e-14
3.29418e-14
3.30001e-14
3.2915e-14
3.29975e-14
3.29279e-14
3.30288e-14
3.28806e-14
3.30091e-14
3.2872e-14
3.29386e-14
3.28182e-14
3.29591e-14
3.27598e-14
3.29874e-14
3.27228e-14
3.29519e-14
3.26778e-14
3.29116e-14
3.264e-14
3.28811e-14
3.2625e-14
3.28136e-14
3.2604e-14
3.27363e-14
3.25795e-14
3.2678e-14
3.25368e-14
3.26693e-14
3.25386e-14
3.26324e-14
3.25052e-14
3.26314e-14
3.24687e-14
3.26357e-14
3.24114e-14
3.26301e-14
3.23645e-14
3.25656e-14
3.23119e-14
3.24914e-14
3.22541e-14
3.24575e-14
3.22078e-14
3.24826e-14
3.21717e-14
3.24994e-14
3.21454e-14
3.24561e-14
3.21115e-14
3.23677e-14
3.21073e-14
3.23217e-14
3.20981e-14
3.22807e-14
3.20664e-14
3.22443e-14
3.20306e-14
3.22309e-14
3.20279e-14
3.22219e-14
3.2021e-14
3.21887e-14
3.19912e-14
3.21207e-14
3.19586e-14
3.20752e-14
3.19528e-14
3.20418e-14
3.19548e-14
3.20603e-14
3.19242e-14
3.20507e-14
3.1901e-14
3.19926e-14
3.18755e-14
3.19566e-14
3.18377e-14
3.19324e-14
3.1787e-14
3.19526e-14
3.17653e-14
3.19333e-14
3.17408e-14
3.18953e-14
3.17139e-14
3.18375e-14
3.16851e-14
3.18034e-14
3.16543e-14
3.1816e-14
3.16209e-14
3.18083e-14
3.15848e-14
3.17687e-14
3.15575e-14
3.17547e-14
3.15392e-14
3.17554e-14
3.14941e-14
3.17471e-14
3.14456e-14
3.17543e-14
3.14052e-14
3.17409e-14
3.13853e-14
3.17317e-14
3.13615e-14
3.1727e-14
3.13464e-14
3.17141e-14
3.12889e-14
3.168e-14
3.12271e-14
3.1663e-14
3.11997e-14
3.16769e-14
3.11808e-14
3.17227e-14
3.11437e-14
3.17616e-14
3.11144e-14
3.17531e-14
3.11069e-14
3.17375e-14
3.10943e-14
3.17558e-14
3.10765e-14
3.17667e-14
3.10533e-14
3.17702e-14
3.1039e-14
3.1766e-14
3.10193e-14
3.17254e-14
3.10089e-14
3.17053e-14
3.09937e-14
3.17348e-14
3.0988e-14
3.17118e-14
3.09924e-14
3.16502e-14
3.10075e-14
3.16385e-14
3.10188e-14
3.16319e-14
3.10416e-14
3.16152e-14
3.10461e-14
3.16031e-14
3.10628e-14
3.15953e-14
3.10615e-14
3.15762e-14
3.10422e-14
3.15301e-14
3.10516e-14
3.14795e-14
3.10591e-14
3.14862e-14
3.10648e-14
3.14647e-14
3.10609e-14
3.1407e-14
3.10478e-14
3.13518e-14
3.10568e-14
3.13375e-14
3.10492e-14
3.13329e-14
3.10714e-14
3.12914e-14
3.10696e-14
3.12285e-14
3.1098e-14
3.12056e-14
3.11107e-14
3.1176e-14
3.11232e-14
3.11096e-14
3.11058e-14
3.10816e-14
3.11186e-14
3.10616e-14
3.11316e-14
3.10712e-14
3.11303e-14
3.1059e-14
3.11368e-14
3.10257e-14
3.11227e-14
3.10139e-14
3.11096e-14
3.09815e-14
3.10973e-14
3.09831e-14
3.10663e-14
3.09846e-14
3.10429e-14
3.09924e-14
3.10018e-14
3.09999e-14
3.09804e-14
3.09771e-14
3.09599e-14
3.09434e-14
3.09233e-14
3.09279e-14
3.09045e-14
3.09458e-14
3.08919e-14
3.09527e-14
3.08747e-14
3.09495e-14
3.08535e-14
3.09514e-14
3.0847e-14
3.09581e-14
3.08363e-14
3.09604e-14
3.08178e-14
3.09587e-14
3.0808e-14
3.09456e-14
3.08024e-14
3.09446e-14
3.07935e-14
3.09475e-14
3.07816e-14
3.09472e-14
3.07734e-14
3.09441e-14
3.07655e-14
3.09386e-14
3.07635e-14
3.09419e-14
3.07588e-14
3.09402e-14
3.07566e-14
3.09364e-14
3.075e-14
3.09332e-14
3.07477e-14
3.09284e-14
3.07494e-14
3.0926e-14
3.07471e-14
3.09222e-14
3.0743e-14
3.09189e-14
3.07423e-14
3.0916e-14
3.07414e-14
3.09158e-14
3.07405e-14
3.09165e-14
3.07387e-14
3.09153e-14
3.07382e-14
3.09137e-14
3.07375e-14
3.09124e-14
3.07392e-14
3.09119e-14
3.07383e-14
3.09117e-14
3.07379e-14
3.09093e-14
3.07373e-14
3.09065e-14
3.07383e-14
3.09046e-14
3.07391e-14
3.09044e-14
3.07398e-14
3.09039e-14
3.07393e-14
3.09025e-14
3.07377e-14
3.09017e-14
3.0737e-14
3.09016e-14
3.07363e-14
3.09011e-14
3.07354e-14
3.08988e-14
3.07344e-14
3.0897e-14
3.07348e-14
3.08969e-14
3.07342e-14
3.08974e-14
3.07339e-14
3.08984e-14
3.07321e-14
3.09002e-14
3.07321e-14
3.0901e-14
3.07316e-14
3.09004e-14
3.07315e-14
3.09009e-14
3.07297e-14
3.0903e-14
3.07295e-14
3.09037e-14
3.07286e-14
3.09045e-14
3.07281e-14
3.09065e-14
3.07271e-14
3.09081e-14
3.07265e-14
3.09097e-14
3.07258e-14
3.09109e-14
3.0725e-14
3.09123e-14
3.07241e-14
3.09137e-14
3.07237e-14
3.09146e-14
3.07221e-14
3.09157e-14
3.07216e-14
3.09169e-14
3.07198e-14
3.09193e-14
3.07191e-14
3.092e-14
3.07183e-14
3.09203e-14
3.0718e-14
3.09206e-14
3.07177e-14
3.09223e-14
3.07173e-14
3.09234e-14
3.07168e-14
3.09239e-14
3.07163e-14
3.0924e-14
3.0717e-14
3.09234e-14
3.07176e-14
3.09233e-14
3.07181e-14
3.09238e-14
3.07187e-14
3.09244e-14
3.07191e-14
3.09238e-14
3.07199e-14
3.09239e-14
3.07199e-14
3.0924e-14
3.07199e-14
3.09242e-14
3.07202e-14
3.09242e-14
3.07208e-14
3.09241e-14
3.0721e-14
3.09245e-14
3.07219e-14
3.09257e-14
3.07224e-14
3.09265e-14
3.07225e-14
3.09259e-14
3.07233e-14
3.09246e-14
3.07237e-14
3.09249e-14
3.07252e-14
3.09248e-14
3.07268e-14
3.09244e-14
3.07282e-14
3.09236e-14
3.07297e-14
3.09212e-14
3.07312e-14
3.09205e-14
3.07322e-14
3.09214e-14
3.07328e-14
3.0922e-14
3.07334e-14
3.09213e-14
3.07339e-14
3.09207e-14
3.07349e-14
3.0921e-14
3.07359e-14
3.092e-14
3.07355e-14
3.09177e-14
3.0736e-14
3.09163e-14
3.07356e-14
3.09162e-14
3.07343e-14
3.09162e-14
3.07333e-14
3.09152e-14
3.07329e-14
3.09143e-14
3.07328e-14
3.09135e-14
3.07314e-14
3.09126e-14
3.07308e-14
3.09122e-14
3.07294e-14
3.09127e-14
3.07283e-14
3.09129e-14
3.07272e-14
3.0912e-14
3.07266e-14
3.09103e-14
3.07274e-14
3.09086e-14
3.07267e-14
3.09083e-14
3.07256e-14
3.09085e-14
3.07259e-14
3.09071e-14
3.07252e-14
3.09057e-14
3.07249e-14
3.09052e-14
3.07239e-14