/*--------------------------------*- C++ -*----------------------------------*\
| =========                 |                                                 |
| \\      /  F ield         | OpenFOAM: The Open Source CFD Toolbox           |
|  \\    /   O peration     | Version:  2106                                  |
|   \\  /    A nd           | Website:  www.openfoam.com                      |
|    \\/     M anipulation  |                                                 |
\*---------------------------------------------------------------------------*/
FoamFile
{
    version     2.0;
    format      ascii;
    arch        "LSB;label=32;scalar=64";
    class       surfaceScalarField;
    location    "15000";
    object      phi;
}
// * * * * * * * * * * * * * * * * * * * * * * * * * * * * * * * * * * * * * //

dimensions      [0 3 -1 0 0 0 0];

oriented        oriented;

internalField   nonuniform List<scalar> 
5116
(
4.8876e-08
-7.18163e-18
-7.37828e-22
-1.64502e-21
4.24417e-24
1.49466e-07
-7.17227e-18
-3.34487e-21
-6.91273e-21
-7.12827e-22
2.5443e-07
-7.16262e-18
-3.47246e-21
-1.23155e-20
-7.44236e-22
3.63915e-07
-7.15253e-18
-3.60833e-21
-1.80635e-20
-7.76969e-22
4.7807e-07
-7.14203e-18
-3.74658e-21
-2.39414e-20
-8.1105e-22
5.97046e-07
-7.13137e-18
-3.88865e-21
-3.00429e-20
-8.4647e-22
7.20984e-07
-7.1202e-18
-4.0353e-21
-3.636e-20
-8.83157e-22
8.50008e-07
-7.10857e-18
-4.18593e-21
-4.29048e-20
-9.2094e-22
9.84212e-07
-7.09652e-18
-4.33909e-21
-4.99148e-20
-9.59511e-22
1.12364e-06
-7.0838e-18
-4.49256e-21
-5.67972e-20
-9.98374e-22
1.26825e-06
-7.07088e-18
-4.64326e-21
-6.37735e-20
-1.03684e-21
1.41793e-06
-7.05762e-18
-4.78717e-21
-7.1359e-20
-1.07398e-21
1.57242e-06
-7.04432e-18
-4.91953e-21
-7.88079e-20
-1.10872e-21
1.73134e-06
-7.03042e-18
-5.03525e-21
-8.6477e-20
-1.13988e-21
1.89417e-06
-7.01614e-18
-5.1295e-21
-9.46944e-20
-1.16632e-21
2.06031e-06
-7.00141e-18
-5.19839e-21
-1.03266e-19
-1.18709e-21
2.22905e-06
-6.98628e-18
-5.23953e-21
-1.11755e-19
-1.20159e-21
2.39967e-06
-6.97119e-18
-5.25242e-21
-1.20504e-19
-1.20963e-21
2.57147e-06
-6.95636e-18
-5.23839e-21
-1.29174e-19
-1.21147e-21
2.74383e-06
-6.94198e-18
-5.20028e-21
-1.37112e-19
-1.20769e-21
2.91622e-06
-6.92808e-18
-5.14196e-21
-1.44748e-19
-1.19918e-21
3.08822e-06
-6.91418e-18
-5.06776e-21
-1.5249e-19
-1.1869e-21
3.25956e-06
-6.90197e-18
-4.98197e-21
-1.59656e-19
-1.17181e-21
3.43005e-06
-6.88896e-18
-4.88847e-21
-1.66692e-19
-1.15481e-21
3.59959e-06
-6.87584e-18
-4.79066e-21
-1.7452e-19
-1.13668e-21
3.76819e-06
-6.86343e-18
-4.69123e-21
-1.81144e-19
-1.11802e-21
3.93589e-06
-6.85118e-18
-4.59227e-21
-1.88076e-19
-1.09936e-21
4.10278e-06
-6.83868e-18
-4.49529e-21
-1.94576e-19
-1.08106e-21
4.26898e-06
-6.827e-18
-4.4014e-21
-2.00773e-19
-1.06338e-21
4.43464e-06
-6.81556e-18
-4.31129e-21
-2.06635e-19
-1.04652e-21
4.5999e-06
-6.80372e-18
-4.22543e-21
-2.12678e-19
-1.03058e-21
4.76493e-06
-6.7919e-18
-4.14404e-21
-2.19627e-19
-1.01563e-21
4.92989e-06
-6.78107e-18
-4.06721e-21
-2.25215e-19
-1.0017e-21
5.09494e-06
-6.77076e-18
-3.99488e-21
-2.31016e-19
-9.88786e-22
5.26023e-06
-6.76019e-18
-3.92691e-21
-2.3652e-19
-9.76847e-22
5.42591e-06
-6.74998e-18
-3.86316e-21
-2.41175e-19
-9.65847e-22
5.59213e-06
-6.73961e-18
-3.80348e-21
-2.46757e-19
-9.55774e-22
5.75902e-06
-6.72901e-18
-3.74757e-21
-2.52207e-19
-9.46581e-22
5.92673e-06
-6.71964e-18
-3.69526e-21
-2.57239e-19
-9.38152e-22
6.09538e-06
-6.70954e-18
-3.64627e-21
-2.62068e-19
-9.30479e-22
6.26509e-06
-6.70014e-18
-3.60042e-21
-2.65873e-19
-9.23538e-22
6.43598e-06
-6.68993e-18
-3.55745e-21
-2.71148e-19
-9.17286e-22
6.60816e-06
-6.68006e-18
-3.51719e-21
-2.75597e-19
-9.11579e-22
6.78173e-06
-6.67059e-18
-3.47946e-21
-2.80457e-19
-9.06467e-22
6.95681e-06
-6.66128e-18
-3.44408e-21
-2.85082e-19
-9.0189e-22
7.1335e-06
-6.6521e-18
-3.41084e-21
-2.90086e-19
-8.9776e-22
7.31188e-06
-6.643e-18
-3.37959e-21
-2.94726e-19
-8.94034e-22
7.49205e-06
-6.63295e-18
-3.35018e-21
-2.99184e-19
-8.90661e-22
7.6741e-06
-6.62281e-18
-3.32247e-21
-3.05142e-19
-8.87666e-22
7.85812e-06
-6.61461e-18
-3.29632e-21
-3.11836e-19
-8.84918e-22
8.04419e-06
-6.604e-18
-3.27152e-21
-3.16828e-19
-8.82303e-22
8.2324e-06
-6.59546e-18
-3.24796e-21
-3.19424e-19
-8.7987e-22
8.42283e-06
-6.58782e-18
-3.22551e-21
-3.22467e-19
-8.77686e-22
8.61556e-06
-6.58247e-18
-3.2039e-21
-3.25144e-19
-8.75747e-22
8.81067e-06
-6.5759e-18
-3.18301e-21
-3.28931e-19
-8.74006e-22
9.00823e-06
-6.5691e-18
-3.16282e-21
-3.32394e-19
-8.72343e-22
9.20832e-06
-6.5635e-18
-3.14325e-21
-3.35051e-19
-8.70627e-22
9.41101e-06
-6.55642e-18
-3.12416e-21
-3.37143e-19
-8.69051e-22
9.61639e-06
-6.54925e-18
-3.10548e-21
-3.40827e-19
-8.6759e-22
9.82452e-06
-6.54253e-18
-3.08726e-21
-3.43414e-19
-8.66059e-22
1.00355e-05
-6.53718e-18
-3.06938e-21
-3.478e-19
-8.64517e-22
1.02493e-05
-6.53018e-18
-3.05166e-21
-3.49717e-19
-8.62888e-22
1.04662e-05
-6.52214e-18
-3.03411e-21
-3.52595e-19
-8.61367e-22
1.0686e-05
-6.51749e-18
-3.01676e-21
-3.53371e-19
-8.59687e-22
1.0909e-05
-6.51131e-18
-2.99934e-21
-3.56779e-19
-8.58057e-22
1.11352e-05
-6.50429e-18
-2.9821e-21
-3.60523e-19
-8.56311e-22
1.13647e-05
-6.49623e-18
-2.96484e-21
-3.64667e-19
-8.54538e-22
1.15974e-05
-6.48823e-18
-2.94758e-21
-3.70118e-19
-8.52661e-22
1.18336e-05
-6.48037e-18
-2.9304e-21
-3.73296e-19
-8.50334e-22
1.20733e-05
-6.47098e-18
-2.91345e-21
-3.7794e-19
-8.47627e-22
1.23165e-05
-6.46448e-18
-2.8968e-21
-3.82429e-19
-8.44358e-22
1.25634e-05
-6.45704e-18
-2.88041e-21
-3.86271e-19
-8.4051e-22
1.28139e-05
-6.44899e-18
-2.86404e-21
-3.90481e-19
-8.3638e-22
1.30683e-05
-6.44606e-18
-2.84774e-21
-3.90368e-19
-8.31686e-22
1.33264e-05
-6.43715e-18
-2.83111e-21
-3.95416e-19
-8.26522e-22
1.35886e-05
-6.42967e-18
-2.81459e-21
-3.99146e-19
-8.20592e-22
1.38547e-05
-6.42269e-18
-2.798e-21
-4.06503e-19
-8.14089e-22
1.41249e-05
-6.41523e-18
-2.78126e-21
-4.14345e-19
-8.06684e-22
1.43992e-05
-6.40692e-18
-2.76452e-21
-4.20246e-19
-7.98146e-22
1.46778e-05
-6.40162e-18
-2.74761e-21
-4.21195e-19
-7.88616e-22
1.49608e-05
-6.39429e-18
-2.73044e-21
-4.26058e-19
-7.78434e-22
1.52481e-05
-6.38699e-18
-2.71316e-21
-4.31791e-19
-7.67427e-22
1.55399e-05
-6.38428e-18
-2.69577e-21
-4.28792e-19
-7.55467e-22
1.58363e-05
-6.37767e-18
-2.67751e-21
-4.28711e-19
-7.43252e-22
1.61373e-05
-6.3728e-18
-2.65871e-21
-4.27114e-19
-7.30554e-22
1.6443e-05
-6.36588e-18
-2.63907e-21
-4.27446e-19
-7.17581e-22
1.67536e-05
-6.36123e-18
-2.61921e-21
-4.27784e-19
-7.04838e-22
1.7069e-05
-6.35458e-18
-2.59866e-21
-4.27603e-19
-6.9205e-22
1.73895e-05
-6.35064e-18
-2.57764e-21
-4.28656e-19
-6.78513e-22
1.7715e-05
-6.34404e-18
-2.55567e-21
-4.31271e-19
-6.64044e-22
1.80457e-05
-6.33671e-18
-2.53329e-21
-4.31093e-19
-6.48474e-22
1.83817e-05
-6.32855e-18
-2.51045e-21
-4.34488e-19
-6.32093e-22
1.8723e-05
-6.31797e-18
-2.48735e-21
-4.3806e-19
-6.14097e-22
1.90698e-05
-6.31437e-18
-2.46421e-21
-4.41363e-19
-5.94839e-22
1.94221e-05
-6.30672e-18
-2.43992e-21
-4.45403e-19
-5.75146e-22
1.978e-05
-6.29983e-18
-2.41544e-21
-4.46639e-19
-5.54709e-22
2.01437e-05
-6.2893e-18
-2.38991e-21
-4.49477e-19
-5.33772e-22
2.05132e-05
-6.28018e-18
-2.36468e-21
-4.51445e-19
-5.11401e-22
2.08886e-05
-6.27107e-18
-2.33964e-21
-4.55744e-19
-4.88138e-22
2.12701e-05
-6.26397e-18
-2.31481e-21
-4.60991e-19
-4.63999e-22
2.16577e-05
-6.25999e-18
-2.29037e-21
-4.60166e-19
-4.38292e-22
2.20515e-05
-6.24889e-18
-2.26457e-21
-4.60518e-19
-4.1203e-22
2.24517e-05
-6.24244e-18
-2.2393e-21
-4.66594e-19
-3.85373e-22
2.28584e-05
-6.23138e-18
-2.21383e-21
-4.70498e-19
-3.55507e-22
2.32716e-05
-6.22359e-18
-2.1882e-21
-4.76452e-19
-3.2438e-22
2.36915e-05
-6.21307e-18
-2.16365e-21
-4.80395e-19
-2.90705e-22
2.41182e-05
-6.20192e-18
-2.13965e-21
-4.88043e-19
-2.53839e-22
2.45518e-05
-6.19002e-18
-2.11688e-21
-4.9491e-19
-2.15498e-22
2.49925e-05
-6.18146e-18
-2.09653e-21
-5.00691e-19
-1.7312e-22
2.54402e-05
-6.17022e-18
-2.0771e-21
-5.09387e-19
-1.27084e-22
2.58953e-05
-6.15806e-18
-2.05926e-21
-5.16179e-19
-7.68762e-23
2.63577e-05
-6.15076e-18
-2.04252e-21
-5.19326e-19
-2.2071e-23
2.68276e-05
-6.14262e-18
-2.02676e-21
-5.26716e-19
3.58506e-23
2.73051e-05
-6.13815e-18
-2.01138e-21
-5.33621e-19
9.70043e-23
2.77904e-05
-6.13072e-18
-1.9942e-21
-5.3886e-19
1.60597e-22
2.82836e-05
-6.12895e-18
-1.97718e-21
-5.34046e-19
2.27539e-22
2.87848e-05
-6.12351e-18
-1.95742e-21
-5.34762e-19
2.9618e-22
2.92941e-05
-6.11504e-18
-1.93793e-21
-5.37322e-19
3.67078e-22
2.98118e-05
-6.1098e-18
-1.91736e-21
-5.40176e-19
4.38717e-22
3.03378e-05
-6.11019e-18
-1.89729e-21
-5.41248e-19
5.12397e-22
3.08724e-05
-6.09614e-18
-1.87604e-21
-5.45622e-19
5.87485e-22
3.14158e-05
-6.0862e-18
-1.85872e-21
-5.39308e-19
6.6374e-22
3.19679e-05
-6.07628e-18
-1.84211e-21
-5.43461e-19
7.37532e-22
3.25291e-05
-6.06958e-18
-1.82774e-21
-5.42769e-19
8.08577e-22
3.30994e-05
-6.05609e-18
-1.81508e-21
-5.46473e-19
8.77991e-22
3.3679e-05
-6.0456e-18
-1.80707e-21
-5.52549e-19
9.48086e-22
3.42681e-05
-6.03835e-18
-1.80292e-21
-5.60258e-19
1.01822e-21
3.48668e-05
-6.02518e-18
-1.80236e-21
-5.58717e-19
1.08878e-21
3.54752e-05
-6.01744e-18
-1.80509e-21
-5.58786e-19
1.15565e-21
3.60935e-05
-6.01054e-18
-1.80866e-21
-5.65452e-19
1.21753e-21
3.6722e-05
-6.00265e-18
-1.81127e-21
-5.76613e-19
1.27421e-21
3.73607e-05
-5.99786e-18
-1.81689e-21
-5.84711e-19
1.32994e-21
3.80098e-05
-5.98771e-18
-1.82252e-21
-5.85952e-19
1.38282e-21
3.86694e-05
-5.97974e-18
-1.82823e-21
-5.90722e-19
1.42891e-21
3.93399e-05
-5.96623e-18
-1.83191e-21
-6.04399e-19
1.47249e-21
4.00213e-05
-5.95493e-18
-1.83736e-21
-6.10589e-19
1.52005e-21
4.07138e-05
-5.94708e-18
-1.84683e-21
-6.18917e-19
1.56447e-21
4.14176e-05
-5.9329e-18
-1.85747e-21
-6.31862e-19
1.61021e-21
4.21329e-05
-5.91851e-18
-1.87128e-21
-6.37391e-19
1.6623e-21
4.28599e-05
-5.90675e-18
-1.8905e-21
-6.4095e-19
1.71658e-21
4.35988e-05
-5.89391e-18
-1.91697e-21
-6.62139e-19
1.76877e-21
4.43497e-05
-5.89357e-18
-1.94476e-21
-6.66916e-19
1.83168e-21
4.51128e-05
-5.88898e-18
-1.97681e-21
-6.58278e-19
1.89295e-21
4.58885e-05
-5.88994e-18
-2.01146e-21
-6.61962e-19
1.94685e-21
4.66767e-05
-5.88235e-18
-2.04543e-21
-6.64685e-19
2.00403e-21
4.74779e-05
-5.87606e-18
-2.08283e-21
-6.65303e-19
2.05925e-21
4.82921e-05
-5.86984e-18
-2.121e-21
-6.67796e-19
2.10741e-21
4.91196e-05
-5.87483e-18
-2.16169e-21
-6.61062e-19
2.15114e-21
4.99606e-05
-5.86192e-18
-2.19992e-21
-6.68264e-19
2.18851e-21
5.08153e-05
-5.85624e-18
-2.24939e-21
-6.77056e-19
2.23371e-21
5.1684e-05
-5.84451e-18
-2.30171e-21
-6.85367e-19
2.28108e-21
5.25669e-05
-5.82223e-18
-2.35993e-21
-7.04063e-19
2.33449e-21
5.34641e-05
-5.81331e-18
-2.43065e-21
-7.18922e-19
2.40009e-21
5.4376e-05
-5.78936e-18
-2.4996e-21
-7.23952e-19
2.46692e-21
5.53028e-05
-5.77702e-18
-2.57699e-21
-7.34997e-19
2.53622e-21
5.62447e-05
-5.76899e-18
-2.65329e-21
-7.47884e-19
2.60392e-21
5.7202e-05
-5.75974e-18
-2.72347e-21
-7.60602e-19
2.66344e-21
5.81748e-05
-5.75294e-18
-2.77398e-21
-7.67243e-19
2.73007e-21
5.91636e-05
-5.72466e-18
-2.81251e-21
-7.8701e-19
2.79323e-21
6.01684e-05
-5.69109e-18
-2.85105e-21
-7.9729e-19
2.84832e-21
6.11897e-05
-5.65412e-18
-2.89036e-21
-8.11205e-19
2.89592e-21
6.22276e-05
-5.64717e-18
-2.9307e-21
-8.33603e-19
2.95571e-21
6.32824e-05
-5.64419e-18
-2.96872e-21
-8.60902e-19
3.01312e-21
6.43544e-05
-5.62429e-18
-2.9931e-21
-8.93672e-19
3.06562e-21
6.54439e-05
-5.60843e-18
-3.04422e-21
-9.28008e-19
3.13106e-21
6.65511e-05
-5.59605e-18
-3.09144e-21
-9.60242e-19
3.2042e-21
6.76764e-05
-5.56943e-18
-3.13335e-21
-9.84929e-19
3.26409e-21
6.882e-05
-5.55448e-18
-3.18664e-21
-1.01174e-18
3.3084e-21
6.99822e-05
-5.52854e-18
-3.23518e-21
-1.04046e-18
3.34614e-21
7.11634e-05
-5.50375e-18
-3.27878e-21
-1.07718e-18
3.36651e-21
7.23638e-05
-5.48519e-18
-3.31722e-21
-1.11111e-18
3.36355e-21
7.35837e-05
-5.45955e-18
-3.35491e-21
-1.12478e-18
3.35114e-21
7.48235e-05
-5.43064e-18
-3.40169e-21
-1.15467e-18
3.32856e-21
7.60835e-05
-5.39778e-18
-3.49375e-21
-1.20556e-18
3.31852e-21
7.7364e-05
-5.38666e-18
-3.56812e-21
-1.23343e-18
3.31205e-21
7.86653e-05
-5.37098e-18
-3.65723e-21
-1.23095e-18
3.3435e-21
7.99878e-05
-5.37174e-18
-3.77016e-21
-1.25902e-18
3.34535e-21
8.13319e-05
-5.3565e-18
-3.89253e-21
-1.26843e-18
3.36052e-21
8.26977e-05
-5.35884e-18
-4.04899e-21
-1.2823e-18
3.37323e-21
8.40858e-05
-5.34613e-18
-4.21734e-21
-1.29616e-18
3.39581e-21
8.54965e-05
-5.3203e-18
-4.39941e-21
-1.32444e-18
3.38875e-21
8.69301e-05
-5.30785e-18
-4.57818e-21
-1.32417e-18
3.35421e-21
8.83869e-05
-5.28847e-18
-4.75838e-21
-1.34066e-18
3.26846e-21
8.98675e-05
-5.27647e-18
-4.94965e-21
-1.35056e-18
3.2212e-21
9.13721e-05
-5.2662e-18
-5.13073e-21
-1.35269e-18
3.18189e-21
9.29012e-05
-5.24499e-18
-5.32518e-21
-1.37712e-18
3.09957e-21
9.44551e-05
-5.22162e-18
-5.53496e-21
-1.39901e-18
3.00737e-21
9.60342e-05
-5.19895e-18
-5.75975e-21
-1.42612e-18
2.92236e-21
9.76389e-05
-5.16294e-18
-5.96305e-21
-1.4506e-18
2.86897e-21
9.92697e-05
-5.1408e-18
-6.20251e-21
-1.49115e-18
2.80009e-21
0.000100927
-5.10937e-18
-6.41133e-21
-1.49852e-18
2.767e-21
0.000102611
-5.0884e-18
-6.6246e-21
-1.5105e-18
2.71167e-21
0.000104323
-5.05066e-18
-6.8178e-21
-1.54961e-18
2.60654e-21
0.000106062
-5.03655e-18
-7.03782e-21
-1.57784e-18
2.53105e-21
0.000107829
-5.00448e-18
-7.22682e-21
-1.60459e-18
2.48845e-21
0.000109625
-4.98772e-18
-7.46872e-21
-1.6321e-18
2.45707e-21
0.00011145
-4.96095e-18
-7.70163e-21
-1.66499e-18
2.46502e-21
0.000113305
-4.93219e-18
-7.89308e-21
-1.70536e-18
2.52723e-21
0.00011519
-4.90154e-18
-8.10342e-21
-1.74122e-18
2.59836e-21
0.000117105
-4.87094e-18
-8.32948e-21
-1.76807e-18
2.75919e-21
0.000119052
-4.81856e-18
-8.561e-21
-1.79658e-18
2.87414e-21
0.000121029
-4.80753e-18
-8.7975e-21
-1.81954e-18
2.90745e-21
0.000123039
-4.7862e-18
-8.945e-21
-1.8587e-18
2.81456e-21
0.000125082
-4.71364e-18
-9.04025e-21
-1.89492e-18
2.6957e-21
0.000127157
-4.68255e-18
-9.27602e-21
-1.89007e-18
2.57266e-21
0.000129266
-4.6303e-18
-9.52325e-21
-1.93486e-18
2.34387e-21
0.000131409
-4.61019e-18
-9.75817e-21
-1.94427e-18
2.26006e-21
0.000133586
-4.54487e-18
-9.91909e-21
-1.93608e-18
2.15609e-21
0.000135799
-4.50182e-18
-1.0065e-20
-1.97842e-18
1.93786e-21
0.000138048
-4.46563e-18
-1.02235e-20
-2.00479e-18
1.74533e-21
0.000140333
-4.42111e-18
-1.03377e-20
-2.03592e-18
1.41365e-21
0.000142654
-4.38464e-18
-1.04329e-20
-2.06509e-18
1.03746e-21
0.000145014
-4.33177e-18
-1.06095e-20
-2.11953e-18
6.08618e-22
0.000147411
-4.28581e-18
-1.09382e-20
-2.11514e-18
4.16449e-22
0.000149847
-4.24859e-18
-1.13374e-20
-2.10638e-18
9.89786e-23
0.000152322
-4.18053e-18
-1.16023e-20
-2.15379e-18
-3.5652e-22
0.000154837
-4.13699e-18
-1.19416e-20
-2.18058e-18
-6.18511e-22
0.000157392
-4.09461e-18
-1.22696e-20
-2.20465e-18
-9.09282e-22
0.000159989
-4.06123e-18
-1.26248e-20
-2.20879e-18
-1.23305e-21
0.000162628
-4.01368e-18
-1.27465e-20
-2.2135e-18
-1.48072e-21
0.000165309
-4.00555e-18
-1.28611e-20
-2.21813e-18
-1.6743e-21
0.000168033
-3.93523e-18
-1.27129e-20
-2.25338e-18
-1.89156e-21
0.000170801
-3.93477e-18
-1.27569e-20
-2.26702e-18
-1.71162e-21
0.000173613
-3.8653e-18
-1.26013e-20
-2.28492e-18
-1.56334e-21
0.00017647
-3.81844e-18
-1.27537e-20
-2.26934e-18
-1.5218e-21
0.000179374
-3.77048e-18
-1.29149e-20
-2.28201e-18
-1.65477e-21
0.000182324
-3.72147e-18
-1.29792e-20
-2.29008e-18
-1.70008e-21
0.000185321
-3.71757e-18
-1.30184e-20
-2.30867e-18
-1.72966e-21
0.000188367
-3.66324e-18
-1.28339e-20
-2.349e-18
-1.95595e-21
0.000191461
-3.61092e-18
-1.2838e-20
-2.38855e-18
-2.08322e-21
0.000194605
-3.59262e-18
-1.2995e-20
-2.40607e-18
-2.00062e-21
0.000197799
-3.58722e-18
-1.30911e-20
-2.42776e-18
-1.97141e-21
0.000201045
-3.5082e-18
-1.3013e-20
-2.45787e-18
-2.10934e-21
0.000204342
-3.48762e-18
-1.32917e-20
-2.45854e-18
-2.37769e-21
0.000207692
-3.43904e-18
-1.35733e-20
-2.48162e-18
-3.00683e-21
0.000211095
-3.41514e-18
-1.39976e-20
-2.47449e-18
-3.64093e-21
0.000214553
-3.44769e-18
-1.44975e-20
-2.46222e-18
-4.43675e-21
0.000218066
-3.39305e-18
-1.44854e-20
-2.49179e-18
-5.50992e-21
0.000221636
-3.39894e-18
-1.50151e-20
-2.48839e-18
-6.47971e-21
0.000225262
-3.37245e-18
-1.5415e-20
-2.50095e-18
-7.26709e-21
0.000228946
-3.36793e-18
-1.59748e-20
-2.46371e-18
-7.8731e-21
0.000232688
-3.38038e-18
-1.65499e-20
-2.45221e-18
-8.72163e-21
0.000236491
-3.36407e-18
-1.6752e-20
-2.43587e-18
-9.73064e-21
0.000240353
-3.34264e-18
-1.72444e-20
-2.43714e-18
-1.06931e-20
0.000244277
-3.3586e-18
-1.78192e-20
-2.47033e-18
-1.15256e-20
0.000248264
-3.30793e-18
-1.82474e-20
-2.52867e-18
-1.16441e-20
0.000252314
-3.26695e-18
-1.80318e-20
-2.53209e-18
-1.16966e-20
0.000256428
-3.15788e-18
-1.82981e-20
-2.55105e-18
-1.21962e-20
0.000260607
-3.12303e-18
-1.9444e-20
-2.55452e-18
-1.23206e-20
0.000264852
-3.09595e-18
-2.00902e-20
-2.56677e-18
-1.29798e-20
0.000269165
-3.04004e-18
-1.9892e-20
-2.56027e-18
-1.3431e-20
0.000273546
-2.97909e-18
-1.9901e-20
-2.56595e-18
-1.36796e-20
0.000277996
-2.98621e-18
-2.0724e-20
-2.56932e-18
-1.39809e-20
0.000282516
-2.85997e-18
-2.03029e-20
-2.61314e-18
-1.51469e-20
0.000287107
-2.82073e-18
-2.13973e-20
-2.59367e-18
-1.55151e-20
0.000291771
-2.73196e-18
-2.21879e-20
-2.67573e-18
-1.61477e-20
0.000296509
-2.73664e-18
-2.45167e-20
-2.65911e-18
-1.54566e-20
0.000301321
-2.7281e-18
-2.48731e-20
-2.62812e-18
-1.54185e-20
0.000306208
-2.75066e-18
-2.41078e-20
-2.59585e-18
-1.56143e-20
0.000311172
-2.70262e-18
-2.35149e-20
-2.61198e-18
-1.56977e-20
0.000316214
-2.68459e-18
-2.48157e-20
-2.58415e-18
-1.45207e-20
0.000321335
-2.6807e-18
-2.57466e-20
-2.60209e-18
-1.37288e-20
0.000326536
-2.69294e-18
-2.56538e-20
-2.60456e-18
-1.3895e-20
0.000331818
-2.69879e-18
-2.50613e-20
-2.60338e-18
-1.48536e-20
0.000337183
-2.69033e-18
-2.47807e-20
-2.59481e-18
-1.57409e-20
0.000342631
-2.60494e-18
-2.3834e-20
-2.52039e-18
-1.60455e-20
0.000348164
-2.58073e-18
-2.45461e-20
-2.48229e-18
-1.705e-20
0.000353783
-2.55673e-18
-2.46543e-20
-2.55331e-18
-1.81571e-20
0.000359489
-2.4504e-18
-2.36488e-20
-2.52183e-18
-1.74699e-20
0.000365284
-2.45454e-18
-2.43846e-20
-2.52055e-18
-1.55565e-20
0.000371168
-2.38593e-18
-2.31809e-20
-2.56229e-18
-1.46642e-20
0.000377143
-2.4827e-18
-2.29817e-20
-2.42723e-18
-1.28189e-20
0.00038321
-2.46715e-18
-2.08978e-20
-2.45364e-18
-1.36537e-20
0.00038937
-2.43443e-18
-2.01529e-20
-2.43918e-18
-1.33669e-20
0.000395625
-2.39805e-18
-1.97055e-20
-2.40234e-18
-1.32262e-20
0.000401975
-2.34156e-18
-1.92946e-20
-2.41212e-18
-1.35102e-20
0.000408423
-2.33488e-18
-1.87401e-20
-2.40135e-18
-1.45706e-20
0.000414969
-2.40575e-18
-1.79216e-20
-2.31909e-18
-1.72915e-20
0.000421614
-2.37246e-18
-1.57547e-20
-2.33088e-18
-2.07543e-20
0.000428361
-2.47084e-18
-1.38557e-20
-2.3341e-18
-2.20569e-20
0.000435209
-2.32186e-18
-1.13872e-20
-2.32285e-18
-1.99008e-20
0.000442161
-2.30787e-18
-1.19489e-20
-2.31141e-18
-2.00911e-20
0.000449218
-2.30046e-18
-1.58893e-20
-2.31556e-18
-2.03401e-20
0.00045638
-2.31247e-18
-1.67262e-20
-2.30002e-18
-2.10936e-20
0.00046365
-2.25852e-18
-1.68659e-20
-2.25951e-18
-2.11124e-20
0.000471028
-2.2336e-18
-1.89899e-20
-2.25703e-18
-2.18564e-20
0.000478515
-2.34356e-18
-2.17562e-20
-2.15512e-18
-2.52883e-20
0.000486114
-2.22769e-18
-2.42747e-20
-2.2414e-18
-2.92211e-20
0.000493824
-2.17622e-18
-2.30503e-20
-2.15124e-18
-2.86579e-20
0.000501648
-2.11236e-18
-1.91195e-20
-2.07368e-18
-2.77686e-20
0.000509586
-1.97392e-18
-1.84321e-20
-1.99073e-18
-2.31273e-20
0.00051764
-1.9768e-18
-2.15551e-20
-1.92149e-18
-2.02365e-20
0.00052581
-1.76018e-18
-2.16128e-20
-1.88991e-18
-1.73354e-20
0.000534098
-1.76989e-18
-2.50016e-20
-1.83802e-18
-1.26744e-20
0.000542505
-1.78789e-18
-2.27821e-20
-1.68116e-18
-8.15661e-21
0.000551031
-1.65844e-18
-1.62372e-20
-1.63326e-18
-8.7113e-21
0.000559678
-1.29164e-18
-1.45778e-20
-1.52741e-18
-7.98859e-21
0.000568446
-1.38606e-18
-2.24133e-20
-1.39649e-18
-5.88305e-21
0.000577337
-1.16945e-18
-1.39318e-20
-1.37582e-18
-6.13399e-21
0.00058635
-1.25744e-18
-1.97162e-20
-1.25315e-18
-7.77515e-21
0.000595487
-1.17418e-18
-2.36814e-20
-1.24603e-18
-9.6422e-21
0.000604748
-1.42852e-18
-2.3528e-20
-1.28669e-18
-7.93018e-21
0.000614134
-1.36078e-18
-1.17295e-20
-1.27275e-18
-5.30247e-21
0.000623645
-1.17874e-18
-1.08112e-20
-1.26782e-18
-5.81982e-21
0.000633281
-1.42361e-18
-2.27877e-20
-1.26764e-18
-2.90559e-21
0.000643042
-1.27492e-18
-1.59863e-20
-1.23448e-18
-3.97253e-21
0.000652928
-1.22527e-18
-1.19397e-20
-1.17429e-18
-1.04475e-20
0.000662939
-1.17248e-18
-9.20154e-21
-1.1326e-18
-1.84184e-20
0.000673075
-1.10442e-18
-1.29054e-20
-1.07779e-18
-2.43189e-20
0.000683334
-1.08948e-18
-8.83013e-21
-1.04692e-18
-2.14248e-20
0.000693717
-1.03691e-18
-1.10139e-20
-1.0275e-18
-2.27219e-20
0.000704222
-1.01808e-18
-1.75829e-20
-1.04105e-18
-2.65036e-20
0.000714848
-9.6058e-19
-1.75647e-20
-9.95239e-19
-3.01579e-20
0.000725593
-8.71219e-19
-2.28259e-20
-9.97771e-19
-3.46957e-20
0.000736456
-8.53006e-19
-2.76336e-20
-1.00923e-18
-2.81142e-20
0.000747436
-8.69272e-19
-2.86668e-20
-8.44862e-19
-1.96533e-20
0.000758529
-8.49552e-19
-3.05204e-20
-7.2004e-19
-1.55884e-20
0.000769734
-7.9892e-19
-2.07382e-20
-7.43043e-19
-1.9079e-20
0.000781048
-7.55184e-19
-1.04046e-20
-6.93379e-19
-2.56116e-20
0.000792468
-2.2097e-21
-7.43246e-19
-2.20231e-20
-6.82314e-19
4.8876e-08
-5.68689e-22
-1.59993e-22
1.49466e-07
-3.19615e-21
-1.5956e-21
2.5443e-07
-5.93852e-21
-3.10882e-21
3.63915e-07
-8.85854e-21
-4.58355e-21
4.7807e-07
-1.17443e-20
-6.26805e-21
5.97046e-07
-1.47229e-20
-8.00322e-21
7.20984e-07
-1.77466e-20
-9.91659e-21
8.50008e-07
-2.09372e-20
-1.17318e-20
9.84212e-07
-2.44272e-20
-1.34494e-20
1.12364e-06
-2.79606e-20
-1.52622e-20
1.26825e-06
-3.18856e-20
-1.70398e-20
1.41793e-06
-3.53759e-20
-1.95543e-20
1.57242e-06
-3.9136e-20
-2.20195e-20
1.73134e-06
-4.2714e-20
-2.46273e-20
1.89417e-06
-4.65553e-20
-2.70755e-20
2.06031e-06
-5.04624e-20
-2.88124e-20
2.22905e-06
-5.46677e-20
-3.10545e-20
2.39967e-06
-5.89785e-20
-3.34376e-20
2.57147e-06
-6.27673e-20
-3.5391e-20
2.74383e-06
-6.6273e-20
-3.81902e-20
2.91622e-06
-6.98763e-20
-4.04493e-20
3.08822e-06
-7.40093e-20
-4.27985e-20
3.25956e-06
-7.76562e-20
-4.49173e-20
3.43005e-06
-8.25697e-20
-4.71038e-20
3.59959e-06
-8.74875e-20
-4.82763e-20
3.76819e-06
-9.13098e-20
-5.03112e-20
3.93589e-06
-9.49601e-20
-5.24702e-20
4.10278e-06
-9.81163e-20
-5.44657e-20
4.26898e-06
-1.01562e-19
-5.69921e-20
4.43464e-06
-1.05123e-19
-5.9054e-20
4.5999e-06
-1.08619e-19
-6.05553e-20
4.76493e-06
-1.12089e-19
-6.35734e-20
4.92989e-06
-1.1476e-19
-6.64262e-20
5.09494e-06
-1.17204e-19
-6.86273e-20
5.26023e-06
-1.20204e-19
-6.91848e-20
5.42591e-06
-1.24851e-19
-7.03657e-20
5.59213e-06
-1.26758e-19
-7.3585e-20
5.75902e-06
-1.29986e-19
-7.48794e-20
5.92673e-06
-1.32734e-19
-7.6539e-20
6.09538e-06
-1.35899e-19
-7.80967e-20
6.26509e-06
-1.38276e-19
-8.05077e-20
6.43598e-06
-1.41439e-19
-8.19354e-20
6.60816e-06
-1.45462e-19
-8.43199e-20
6.78173e-06
-1.50111e-19
-8.59809e-20
6.95681e-06
-1.52613e-19
-8.63015e-20
7.1335e-06
-1.55376e-19
-8.64551e-20
7.31188e-06
-1.59306e-19
-8.62947e-20
7.49205e-06
-1.62042e-19
-8.83982e-20
7.6741e-06
-1.65036e-19
-8.93439e-20
7.85812e-06
-1.68055e-19
-8.98732e-20
8.04419e-06
-1.6974e-19
-9.11956e-20
8.2324e-06
-1.74186e-19
-9.25954e-20
8.42283e-06
-1.7508e-19
-9.53752e-20
8.61556e-06
-1.78006e-19
-9.58727e-20
8.81067e-06
-1.8043e-19
-9.56413e-20
9.00823e-06
-1.83161e-19
-9.49402e-20
9.20832e-06
-1.85844e-19
-9.84881e-20
9.41101e-06
-1.86292e-19
-1.01818e-19
9.61639e-06
-1.88352e-19
-1.04349e-19
9.82452e-06
-1.90531e-19
-1.06919e-19
1.00355e-05
-1.91995e-19
-1.08774e-19
1.02493e-05
-1.93906e-19
-1.112e-19
1.04662e-05
-1.96461e-19
-1.10728e-19
1.0686e-05
-1.98588e-19
-1.1285e-19
1.0909e-05
-2.04437e-19
-1.13334e-19
1.11352e-05
-2.07515e-19
-1.16005e-19
1.13647e-05
-2.09918e-19
-1.17543e-19
1.15974e-05
-2.11868e-19
-1.17826e-19
1.18336e-05
-2.1489e-19
-1.20501e-19
1.20733e-05
-2.16773e-19
-1.21919e-19
1.23165e-05
-2.2016e-19
-1.23098e-19
1.25634e-05
-2.19338e-19
-1.2886e-19
1.28139e-05
-2.20931e-19
-1.31385e-19
1.30683e-05
-2.2264e-19
-1.31234e-19
1.33264e-05
-2.24708e-19
-1.3225e-19
1.35886e-05
-2.26662e-19
-1.33656e-19
1.38547e-05
-2.28404e-19
-1.34601e-19
1.41249e-05
-2.31485e-19
-1.35731e-19
1.43992e-05
-2.31493e-19
-1.37933e-19
1.46778e-05
-2.34535e-19
-1.39466e-19
1.49608e-05
-2.39567e-19
-1.41388e-19
1.52481e-05
-2.45097e-19
-1.42663e-19
1.55399e-05
-2.458e-19
-1.44585e-19
1.58363e-05
-2.47762e-19
-1.45979e-19
1.61373e-05
-2.48477e-19
-1.45735e-19
1.6443e-05
-2.52362e-19
-1.5003e-19
1.67536e-05
-2.53782e-19
-1.50892e-19
1.7069e-05
-2.57124e-19
-1.4656e-19
1.73895e-05
-2.58485e-19
-1.45314e-19
1.7715e-05
-2.62333e-19
-1.44705e-19
1.80457e-05
-2.64901e-19
-1.43435e-19
1.83817e-05
-2.67407e-19
-1.42089e-19
1.8723e-05
-2.69804e-19
-1.4357e-19
1.90698e-05
-2.70555e-19
-1.46942e-19
1.94221e-05
-2.74525e-19
-1.48583e-19
1.978e-05
-2.72953e-19
-1.52618e-19
2.01437e-05
-2.77842e-19
-1.52273e-19
2.05132e-05
-2.81594e-19
-1.527e-19
2.08886e-05
-2.83029e-19
-1.52461e-19
2.12701e-05
-2.87085e-19
-1.50831e-19
2.16577e-05
-2.84554e-19
-1.51599e-19
2.20515e-05
-2.86244e-19
-1.54026e-19
2.24517e-05
-2.85953e-19
-1.48156e-19
2.28584e-05
-2.78403e-19
-1.51596e-19
2.32716e-05
-2.77871e-19
-1.50068e-19
2.36915e-05
-2.72382e-19
-1.45873e-19
2.41182e-05
-2.71321e-19
-1.52683e-19
2.45518e-05
-2.75375e-19
-1.48362e-19
2.49925e-05
-2.74323e-19
-1.49993e-19
2.54402e-05
-2.75259e-19
-1.52185e-19
2.58953e-05
-2.7355e-19
-1.52247e-19
2.63577e-05
-2.76429e-19
-1.53238e-19
2.68276e-05
-2.76839e-19
-1.55464e-19
2.73051e-05
-2.71061e-19
-1.62664e-19
2.77904e-05
-2.7086e-19
-1.62815e-19
2.82836e-05
-2.62969e-19
-1.58415e-19
2.87848e-05
-2.63262e-19
-1.56585e-19
2.92941e-05
-2.56062e-19
-1.6397e-19
2.98118e-05
-2.58462e-19
-1.65493e-19
3.03378e-05
-2.56639e-19
-1.6356e-19
3.08724e-05
-2.5783e-19
-1.63681e-19
3.14158e-05
-2.52711e-19
-1.59881e-19
3.19679e-05
-2.53823e-19
-1.5969e-19
3.25291e-05
-2.54682e-19
-1.52318e-19
3.30994e-05
-2.56206e-19
-1.45053e-19
3.3679e-05
-2.58288e-19
-1.42023e-19
3.42681e-05
-2.6522e-19
-1.37273e-19
3.48668e-05
-2.65515e-19
-1.34473e-19
3.54752e-05
-2.63963e-19
-1.39056e-19
3.60935e-05
-2.58548e-19
-1.48159e-19
3.6722e-05
-2.62546e-19
-1.45191e-19
3.73607e-05
-2.64169e-19
-1.43112e-19
3.80098e-05
-2.64337e-19
-1.45997e-19
3.86694e-05
-2.61604e-19
-1.45738e-19
3.93399e-05
-2.62651e-19
-1.37643e-19
4.00213e-05
-2.68657e-19
-1.39088e-19
4.07138e-05
-2.66375e-19
-1.40157e-19
4.14176e-05
-2.58477e-19
-1.40271e-19
4.21329e-05
-2.52782e-19
-1.36282e-19
4.28599e-05
-2.5472e-19
-1.36323e-19
4.35988e-05
-2.46269e-19
-1.30523e-19
4.43497e-05
-2.55342e-19
-1.29149e-19
4.51128e-05
-2.55932e-19
-1.26641e-19
4.58885e-05
-2.58509e-19
-1.25062e-19
4.66767e-05
-2.63064e-19
-1.25932e-19
4.74779e-05
-2.65917e-19
-1.28431e-19
4.82921e-05
-2.69867e-19
-1.30522e-19
4.91196e-05
-2.71839e-19
-1.3214e-19
4.99606e-05
-2.80179e-19
-1.26968e-19
5.08153e-05
-2.83817e-19
-1.23988e-19
5.1684e-05
-2.83509e-19
-1.16662e-19
5.25669e-05
-2.8509e-19
-1.11188e-19
5.34641e-05
-2.84638e-19
-1.15281e-19
5.4376e-05
-2.84357e-19
-1.13095e-19
5.53028e-05
-2.81895e-19
-1.16132e-19
5.62447e-05
-2.821e-19
-1.24324e-19
5.7202e-05
-2.68987e-19
-1.18149e-19
5.81748e-05
-2.71219e-19
-1.17416e-19
5.91636e-05
-2.73122e-19
-1.22093e-19
6.01684e-05
-2.74914e-19
-1.18584e-19
6.11897e-05
-2.66604e-19
-1.07857e-19
6.22276e-05
-2.76035e-19
-1.14512e-19
6.32824e-05
-2.68236e-19
-1.16374e-19
6.43544e-05
-2.75775e-19
-1.06319e-19
6.54439e-05
-2.59356e-19
-1.05616e-19
6.65511e-05
-2.59241e-19
-1.17151e-19
6.76764e-05
-2.64135e-19
-1.13904e-19
6.882e-05
-2.66904e-19
-1.03086e-19
6.99822e-05
-2.6453e-19
-9.98667e-20
7.11634e-05
-2.67999e-19
-1.05914e-19
7.23638e-05
-2.83918e-19
-1.07325e-19
7.35837e-05
-2.93538e-19
-9.42177e-20
7.48235e-05
-3.17318e-19
-7.78319e-20
7.60835e-05
-2.79539e-19
-9.69441e-20
7.7364e-05
-2.79986e-19
-8.52952e-20
7.86653e-05
-2.74963e-19
-9.40972e-20
7.99878e-05
-2.76159e-19
-8.40541e-20
8.13319e-05
-2.76561e-19
-8.19196e-20
8.26977e-05
-2.80019e-19
-7.79366e-20
8.40858e-05
-2.8001e-19
-7.63925e-20
8.54965e-05
-2.61758e-19
-8.32316e-20
8.69301e-05
-2.59306e-19
-9.0145e-20
8.83869e-05
-2.59802e-19
-7.19656e-20
8.98675e-05
-2.60385e-19
-6.30235e-20
9.13721e-05
-2.80328e-19
-6.62298e-20
9.29012e-05
-2.93038e-19
-7.79504e-20
9.44551e-05
-3.06914e-19
-7.74565e-20
9.60342e-05
-3.05831e-19
-6.20435e-20
9.76389e-05
-3.23127e-19
-6.67006e-20
9.92697e-05
-3.20798e-19
-6.07918e-20
0.000100927
-3.269e-19
-4.87669e-20
0.000102611
-3.33319e-19
-5.96197e-20
0.000104323
-3.42636e-19
-7.37465e-20
0.000106062
-3.40069e-19
-7.49268e-20
0.000107829
-3.52677e-19
-7.31476e-20
0.000109625
-3.53773e-19
-6.48077e-20
0.00011145
-3.38336e-19
-5.84858e-20
0.000113305
-3.44439e-19
-6.82853e-20
0.00011519
-3.3684e-19
-4.36066e-20
0.000117105
-3.26881e-19
-5.22333e-20
0.000119052
-3.01669e-19
-5.75154e-20
0.000121029
-2.84098e-19
-7.24916e-20
0.000123039
-2.70901e-19
-7.6422e-20
0.000125082
-2.7876e-19
-8.62687e-20
0.000127157
-2.90565e-19
-8.9224e-20
0.000129266
-2.83946e-19
-6.45579e-20
0.000131409
-2.95708e-19
-7.14732e-20
0.000133586
-2.72623e-19
-7.39228e-20
0.000135799
-2.74347e-19
-7.22921e-20
0.000138048
-2.71838e-19
-9.99082e-20
0.000140333
-2.7156e-19
-8.19982e-20
0.000142654
-3.04547e-19
-7.63229e-20
0.000145014
-3.34968e-19
-5.6509e-20
0.000147411
-3.42487e-19
-7.01844e-20
0.000149847
-3.11709e-19
-7.71858e-20
0.000152322
-3.11168e-19
-6.22549e-20
0.000154837
-3.11248e-19
-7.67434e-20
0.000157392
-3.29553e-19
-1.03257e-19
0.000159989
-3.10801e-19
-1.07682e-19
0.000162628
-3.17874e-19
-9.92345e-20
0.000165309
-2.98554e-19
-8.81286e-20
0.000168033
-3.00759e-19
-5.02677e-20
0.000170801
-2.93854e-19
-6.63362e-20
0.000173613
-3.10227e-19
-6.31761e-20
0.00017647
-2.95268e-19
-6.64523e-20
0.000179374
-2.78374e-19
-8.34238e-20
0.000182324
-2.75116e-19
-8.20784e-20
0.000185321
-2.80081e-19
-9.62669e-20
0.000188367
-3.02878e-19
-9.07458e-20
0.000191461
-3.13604e-19
-8.7685e-20
0.000194605
-3.14989e-19
-1.04789e-19
0.000197799
-3.1003e-19
-1.23109e-19
0.000201045
-3.05088e-19
-1.295e-19
0.000204342
-3.03033e-19
-1.49025e-19
0.000207692
-2.9005e-19
-1.69798e-19
0.000211095