/*--------------------------------*- C++ -*----------------------------------*\
| =========                 |                                                 |
| \\      /  F ield         | OpenFOAM: The Open Source CFD Toolbox           |
|  \\    /   O peration     | Version:  2106                                  |
|   \\  /    A nd           | Website:  www.openfoam.com                      |
|    \\/     M anipulation  |                                                 |
\*---------------------------------------------------------------------------*/
FoamFile
{
    version     2.0;
    format      ascii;
    arch        "LSB;label=32;scalar=64";
    class       volTensorField;
    location    "16000";
    object      grad(U);
}
// * * * * * * * * * * * * * * * * * * * * * * * * * * * * * * * * * * * * * //

dimensions      [0 0 -1 0 0 0 0];

internalField   nonuniform List<tensor> 
2560
(
(-9.14312e-18 6.23671e-30 -6.09054e-33 31.0892 -1.36783e-11 2.33033e-14 0.0450057 -1.42664e-14 1.14636e-17)
(0 -2.0789e-30 2.03018e-33 31.0892 -1.04001e-16 8.06465e-19 0.0450057 1.01946e-20 -5.01084e-18)
(0 -3.19439e-25 3.25499e-27 31.0846 -5.87934e-13 4.35147e-15 0.135658 -1.72685e-15 1.27809e-17)
(0 -8.19643e-30 0 31.0846 3.14501e-16 -1.78333e-18 0.135658 3.69164e-19 -2.34919e-16)
(-5.69753e-18 4.2039e-45 1.9953e-32 31.0799 1.20363e-27 3.73608e-15 0.18656 3.15544e-30 3.1889e-17)
(0 4.03948e-30 -6.31169e-32 31.0799 5.74476e-16 -4.48832e-18 0.18656 1.92263e-18 -2.41807e-16)
(1.82703e-17 -1.40513e-29 7.73809e-32 31.0752 7.44411e-13 4.92456e-15 0.189244 -8.53043e-15 2.76317e-17)
(0 1.19448e-29 -6.22122e-32 31.0752 4.60929e-16 -3.51145e-18 0.189244 2.54797e-18 -2.48896e-16)
(6.90408e-17 -1.56981e-29 1.53301e-31 31.0704 -1.51375e-14 4.37773e-15 0.191966 -6.06015e-16 2.60655e-17)
(0 1.56981e-29 -1.22641e-31 31.0704 4.90282e-16 -3.56592e-18 0.191966 3.47378e-18 -2.56193e-16)
(1.12012e-16 -5.66345e-28 1.09046e-31 31.0656 -5.70625e-14 4.26196e-15 0.194727 -1.77564e-16 2.69897e-17)
(2.83637e-16 1.54749e-29 -9.06625e-32 31.0656 6.12479e-16 -4.52311e-18 0.194727 4.15464e-18 -2.63706e-16)
(-5.70843e-17 -5.66629e-28 4.00419e-32 31.0607 -1.04781e-27 4.36875e-15 0.197527 0 2.81874e-17)
(2.28337e-16 3.81524e-30 -8.93631e-32 31.0607 5.77941e-16 -5.01144e-18 0.197527 3.13623e-18 -2.71444e-16)
(-7.03964e-17 1.08163e-29 -7.88612e-32 31.0558 1.92228e-15 4.48031e-15 0.200367 -1.52327e-17 2.922e-17)
(2.81586e-16 -3.75475e-30 2.93608e-32 31.0558 4.82245e-16 -4.19108e-18 0.200367 3.04141e-18 -2.79408e-16)
(8.39e-17 -1.81172e-29 1.07276e-31 31.0507 -1.43256e-16 4.57244e-15 0.203247 -1.13639e-17 3.02193e-17)
(0 1.48173e-29 -8.68199e-32 31.0507 5.00941e-16 -4.16907e-18 0.203247 3.47287e-18 -2.87606e-16)
(0 7.30244e-30 -2.85252e-32 31.0456 -1.84775e-15 4.6608e-15 0.206168 -1.3014e-17 3.12497e-17)
(0 -3.65122e-30 0 31.0456 5.45072e-16 -4.74386e-18 0.206168 3.71668e-18 -2.96048e-16)
(-1.11493e-16 -7.49623e-30 3.51194e-32 31.0403 -1.81115e-15 4.75002e-15 0.20913 -1.12036e-17 3.23067e-17)
(0 1.79945e-29 -8.4349e-32 31.0403 5.63259e-16 -4.76374e-18 0.20913 3.8197e-18 -3.04737e-16)
(1.25587e-16 -2.81319e-29 1.87732e-31 31.0348 -1.61207e-15 4.83915e-15 0.212133 -1.06735e-17 3.33837e-17)
(0 2.48312e-29 -1.6628e-31 31.0348 4.42059e-16 -4.90827e-18 0.212133 2.16852e-18 -3.13683e-16)
(0 -6.99293e-30 2.73162e-32 31.0291 -1.64477e-15 4.92818e-15 0.215177 -1.19854e-17 3.4488e-17)
(0 6.99293e-30 -2.73162e-32 31.0291 3.70212e-16 -3.76082e-18 0.215177 2.93503e-18 -3.22892e-16)
(-3.96903e-16 1.01936e-29 -1.02921e-31 31.0231 -1.73199e-15 5.01774e-15 0.218262 -1.22135e-17 3.56218e-17)
(6.17548e-16 -3.43739e-30 2.69246e-32 31.0231 4.00961e-16 -4.56838e-18 0.218262 2.66476e-18 -3.32364e-16)
(-2.3904e-16 2.03818e-29 -1.85771e-31 31.0167 -1.70531e-15 5.10804e-15 0.221389 -1.19556e-17 3.67876e-17)
(2.3904e-16 -2.03818e-29 1.85771e-31 31.0167 3.8996e-16 -5.81178e-18 0.221389 2.86394e-18 -3.42121e-16)
(-1.8402e-16 3.30127e-30 -2.28629e-32 31.0099 -1.68977e-15 5.19939e-15 0.224557 -1.23462e-17 3.79884e-17)
(7.36081e-16 1.01906e-32 0 31.0099 4.61125e-16 -6.20827e-18 0.224557 3.77362e-18 -3.52159e-16)
(0 2.3102e-29 -1.54701e-31 31.0024 -1.6879e-15 5.29148e-15 0.227764 -1.22783e-17 3.92186e-17)
(-7.96628e-16 -2.31145e-29 1.54701e-31 31.0024 3.33105e-16 -8.06488e-18 0.227764 1.80674e-18 -3.62492e-16)
(0 2.60238e-29 -3.04967e-31 30.9941 -1.85557e-15 5.38355e-15 0.231011 -1.52077e-17 4.04739e-17)
(-8.58043e-16 -2.60351e-29 3.04967e-31 30.9941 2.46741e-16 -7.70746e-18 0.231011 5.53934e-18 -3.73126e-16)
(2.25627e-16 -6.41271e-30 5.00993e-32 30.9848 -2.00713e-15 5.4753e-15 0.234296 -1.49303e-17 4.17552e-17)
(0 6.41271e-30 -1.00199e-31 30.9848 2.4704e-16 -8.28241e-18 0.234296 9.24013e-18 -3.84058e-16)
(2.45881e-16 1.25002e-29 -2.21607e-31 30.9742 -1.91959e-15 5.56722e-15 0.237616 -1.43099e-17 4.30702e-17)
(-9.83525e-16 -2.21312e-29 2.96288e-31 30.9742 1.09278e-16 -8.60048e-18 0.237616 1.50921e-17 -3.95305e-16)
(0 1.86906e-29 -2.43368e-31 30.9621 -2.01297e-15 5.65925e-15 0.24097 -1.68215e-17 4.4411e-17)
(0 -1.86906e-29 2.43368e-31 30.9621 2.52587e-16 -9.00061e-18 0.24097 1.87674e-17 -4.0686e-16)
(-2.78155e-16 3.30135e-30 2.03715e-32 30.948 -2.35576e-15 5.74965e-15 0.244354 -2.01435e-17 4.57597e-17)
(0 3.07046e-30 -1.43928e-31 30.948 5.45494e-16 -1.00854e-17 0.244354 1.69664e-17 -4.18736e-16)
(1.31298e-16 -2.39363e-29 3.02196e-31 30.9315 -2.50926e-15 5.83674e-15 0.247765 -1.9774e-17 4.71075e-17)
(0 2.72381e-29 -2.8373e-31 30.9315 6.58549e-16 -1.16918e-17 0.247765 1.35898e-17 -4.30924e-16)
(0 2.08815e-29 -1.86442e-31 30.9122 -2.04459e-15 5.92063e-15 0.251197 -1.31791e-17 4.84642e-17)
(-1.24541e-15 -2.6862e-29 2.33053e-31 30.9122 4.77489e-16 -1.50299e-17 0.251197 1.04188e-17 -4.4344e-16)
(3.28304e-16 2.02192e-29 -1.52388e-31 30.8893 -1.63077e-15 6.00177e-15 0.254646 -1.35276e-17 4.98257e-17)
(0 -2.35225e-29 1.8377e-31 30.8893 1.11013e-16 -1.4453e-17 0.254646 1.39134e-17 -4.56279e-16)
(-6.90988e-16 3.84872e-29 -4.27717e-31 30.8624 -1.63492e-15 6.08027e-15 0.258104 -1.36346e-17 5.11976e-17)
(0 -3.18799e-29 3.62272e-31 30.8624 -3.58171e-17 -1.12793e-17 0.258104 2.28707e-17 -4.69423e-16)
(1.89284e-15 -3.56205e-29 5.93323e-31 30.8304 -1.75908e-15 6.15418e-15 0.261564 -1.60318e-17 5.254e-17)
(2.90339e-15 2.85823e-29 -5.3562e-31 30.8304 2.16628e-16 -6.674e-18 0.261564 2.68497e-17 -4.82864e-16)
(0 -1.97099e-29 3.07967e-31 30.7927 -2.06061e-15 6.22079e-15 0.265015 -1.92276e-17 5.38445e-17)
(1.52238e-15 2.53491e-29 -3.51962e-31 30.7927 4.34232e-16 -5.94224e-18 0.265015 2.95746e-17 -4.9658e-16)
(3.98507e-16 1.05727e-29 -9.30564e-32 30.7482 -2.18606e-15 6.27992e-15 0.268448 -1.86936e-17 5.51125e-17)
(-3.90594e-16 -8.32602e-30 4.33647e-32 30.7482 2.086e-16 -1.0856e-17 0.268448 3.41848e-17 -5.10583e-16)
(-8.33324e-16 1.13713e-30 -7.71422e-32 30.6958 -2.20088e-15 6.33059e-15 0.271849 -2.00537e-17 5.63201e-17)
(-3.3333e-15 5.46174e-30 0 30.6958 8.59116e-19 -1.56545e-17 0.271849 3.95219e-17 -5.24865e-16)
(-4.3506e-16 1.13938e-29 -1.24415e-31 30.6343 -2.12331e-15 6.37046e-15 0.275206 -1.78459e-17 5.74441e-17)
(-2.49919e-15 -5.39453e-30 0 30.6343 1.07452e-16 -1.89601e-17 0.275206 4.65449e-17 -5.39405e-16)
(0 2.39194e-29 -3.32213e-31 30.5624 -1.8866e-15 6.3981e-15 0.278501 -1.63216e-17 5.84742e-17)
(-1.81479e-15 -2.39194e-29 3.32213e-31 30.5624 3.33399e-16 -1.92063e-17 0.278501 5.33062e-17 -5.54171e-16)
(7.37356e-16 -2.61962e-29 4.09315e-31 30.4788 -1.7507e-15 6.41297e-15 0.281719 -1.58528e-17 5.94022e-17)
(1.15295e-15 2.61962e-29 -4.09315e-31 30.4788 3.11562e-16 -1.80656e-17 0.281719 5.70137e-17 -5.69119e-16)
(-4.91692e-16 8.46976e-30 -4.51925e-32 30.3819 -1.72299e-15 6.41331e-15 0.284839 -1.62792e-17 6.01934e-17)
(0 0 -8.06897e-32 30.3819 -5.20383e-17 -1.46617e-17 0.284839 5.85557e-17 -5.84217e-16)
(-5.1104e-16 2.36663e-29 -4.44632e-31 30.2702 -1.78019e-15 6.39724e-15 0.287843 -1.7407e-17 6.08361e-17)
(0 -2.03605e-29 3.97666e-31 30.2702 -1.64432e-16 -1.70245e-17 0.287843 6.06494e-17 -5.99408e-16)
(-5.30615e-16 1.8357e-29 -3.62359e-31 30.1422 -2.01709e-15 6.36392e-15 0.290708 -2.13361e-17 6.13126e-17)
(-2.82857e-15 -1.50515e-29 2.3518e-31 30.1422 9.41249e-18 -2.21481e-17 0.290708 6.39735e-17 -6.14686e-16)
(5.50412e-16 -8.25108e-30 3.59726e-31 29.9962 -2.24156e-15 6.31227e-15 0.293412 -2.23196e-17 6.16051e-17)
(0 4.94526e-30 -3.09079e-31 29.9962 2.7972e-16 -1.94354e-17 0.293412 6.80169e-17 -6.29977e-16)
(5.70422e-16 -1.79299e-29 4.3336e-31 29.8308 -2.06436e-15 6.24125e-15 0.295932 -1.8435e-17 6.16954e-17)
(0 1.46231e-29 -3.80811e-31 29.8308 2.7546e-16 -1.59811e-17 0.295932 7.19207e-17 -6.45207e-16)
(-5.90635e-16 8.11106e-30 -2.79687e-31 29.6445 -1.95223e-15 6.15234e-15 0.298246 -2.07097e-17 6.16147e-17)
(0 -4.80452e-30 7.50706e-32 29.6445 -2.19548e-16 -1.69151e-17 0.298246 7.2971e-17 -6.60329e-16)
(0 9.47132e-30 -2.21984e-31 29.4359 -2.15364e-15 6.04245e-15 0.300329 -2.31003e-17 6.12518e-17)
(0 -1.4207e-29 3.69973e-31 29.4359 -4.5851e-16 -1.78441e-17 0.300329 7.44631e-17 -6.75285e-16)
(-6.31626e-16 3.30681e-30 -2.77239e-31 29.2039 -2.20044e-15 5.91163e-15 0.302161 -2.22889e-17 6.07012e-17)
(2.52651e-15 4.66779e-30 1.45868e-31 29.2039 -1.16298e-16 -1.80805e-17 0.302161 7.7518e-17 -6.89991e-16)
(0 -2.30044e-29 4.31333e-31 28.9475 -2.35531e-15 5.76047e-15 0.303721 -2.7042e-17 5.98593e-17)
(2.60951e-15 2.30044e-29 -4.31333e-31 28.9475 1.05035e-16 -1.79607e-17 0.303721 7.99555e-17 -7.04396e-16)
(6.73275e-16 1.48341e-29 -2.918e-31 28.6659 -3.00662e-15 5.58761e-15 0.30499 -3.68727e-17 5.87822e-17)
(-2.6931e-15 -2.72097e-29 4.96009e-31 28.6659 5.35572e-16 -2.91031e-17 0.30499 8.28737e-17 -7.18419e-16)
(1.95248e-15 -1.22464e-29 2.74052e-31 28.3588 -3.40115e-15 5.39624e-15 0.305953 -3.63952e-17 5.74599e-17)
(-1.25818e-15 8.93989e-30 -2.09529e-31 28.3588 8.806e-16 -4.2771e-17 0.305953 8.93292e-17 -7.32098e-16)
(-7.15445e-16 -1.09697e-30 7.11332e-32 28.0259 -2.79908e-15 5.19066e-15 0.306596 -2.46981e-17 5.59784e-17)
(0 8.81176e-30 -2.75367e-31 28.0259 3.88793e-16 -3.23389e-17 0.306596 9.26268e-17 -7.45286e-16)
(-4.85694e-16 9.71824e-30 -2.02863e-31 27.6675 -2.00526e-15 4.97402e-15 0.306911 -1.97311e-17 5.43043e-17)
(2.9467e-15 -8.68546e-30 1.3571e-31 27.6675 7.86835e-16 -2.00406e-17 0.306911 9.66307e-17 -7.57867e-16)
(1.20485e-15 -4.28049e-30 2.67531e-31 27.2842 -1.9888e-15 4.74685e-15 0.306891 -2.50486e-17 5.24707e-17)
(1.82705e-15 4.28049e-30 -2.67531e-31 27.2842 1.2837e-15 -2.73625e-17 0.306891 1.06412e-16 -7.69829e-16)
(-7.79319e-16 7.53016e-30 -2.04336e-31 26.8768 -1.94392e-15 4.51361e-15 0.306536 -1.92773e-17 5.05327e-17)
(0 0 0 26.8768 3.84494e-16 -2.38551e-17 0.306536 1.14161e-16 -7.81204e-16)
(-8.00685e-16 -8.4692e-31 5.55671e-32 26.4466 -1.55092e-15 4.27742e-15 0.305847 -1.6616e-17 4.84989e-17)
(0 8.31733e-30 -2.59917e-31 26.4466 -3.28777e-16 -1.20957e-17 0.305847 1.19491e-16 -7.91829e-16)
(0 -4.09906e-30 2.56191e-31 25.9951 -1.17474e-15 4.0355e-15 0.304831 -1.09405e-17 4.62885e-17)
(0 4.09906e-30 -2.56191e-31 25.9951 -4.17642e-16 -7.67077e-18 0.304831 1.26541e-16 -8.01744e-16)
(-1.98063e-15 3.31292e-30 -7.80463e-32 25.5241 -9.64328e-16 3.79621e-15 0.303499 -1.20513e-17 4.41749e-17)
(0 8.08063e-30 -1.2626e-31 25.5241 -8.44022e-16 -9.30111e-18 0.303499 1.29309e-16 -8.10896e-16)
(-2.24189e-15 2.78768e-29 -8.71151e-31 25.0356 -1.3012e-15 3.56152e-15 0.301862 -1.9466e-17 4.19281e-17)
(-2.33774e-15 -2.78768e-29 8.71151e-31 25.0356 -1.09062e-15 -1.29871e-17 0.301862 1.2965e-16 -8.19336e-16)
(-1.99077e-15 -1.63135e-29 4.09162e-31 24.5318 -1.32516e-15 3.3277e-15 0.299939 -1.29962e-17 3.96911e-17)
(3.54354e-15 2.3552e-29 -6.13332e-31 24.5318 -1.20985e-15 -1.73838e-17 0.299939 1.3041e-16 -8.2703e-16)
(-1.08905e-15 2.32144e-29 -7.2545e-31 24.0149 -1.83027e-15 3.10243e-15 0.297748 -3.26992e-17 3.7509e-17)
(1.08905e-15 -2.32144e-29 7.2545e-31 24.0149 -1.40847e-15 -1.29909e-17 0.297748 1.28828e-16 -8.34053e-16)
(-9.28e-16 1.09373e-29 -3.23054e-31 23.4874 -3.00863e-15 2.88412e-15 0.295309 -4.33476e-17 3.53011e-17)
(3.712e-15 -7.62723e-30 2.38351e-31 23.4874 -2.14657e-16 -2.21134e-17 0.295309 1.3285e-16 -8.40294e-16)
(1.89772e-15 -1.41401e-29 6.4228e-31 22.9516 -3.38852e-15 2.67298e-15 0.292645 -4.34599e-17 3.31596e-17)
(3.79544e-15 7.51791e-30 -4.69869e-31 22.9516 7.63781e-16 -4.22304e-17 0.292645 1.42195e-16 -8.46012e-16)
(1.04289e-15 -3.70508e-30 2.31567e-31 22.41 -3.37544e-15 2.47191e-15 0.289779 -4.42751e-17 3.10714e-17)
(0 3.70508e-30 -2.31567e-31 22.41 1.13041e-16 -5.03718e-17 0.289779 1.47536e-16 -8.51129e-16)
(-9.90095e-16 -3.37536e-31 1.39286e-31 21.8647 -3.12519e-15 2.28774e-15 0.286735 -3.80862e-17 2.92394e-17)
(0 7.30395e-30 -3.42373e-31 21.8647 -3.56195e-16 -4.97916e-17 0.286735 1.50154e-16 -8.55733e-16)
(-2.02087e-15 1.74298e-29 -6.30301e-31 21.318 -2.68382e-15 2.1249e-15 0.283535 -3.36789e-17 2.75937e-17)
(4.04174e-15 -1.79982e-29 7.8742e-31 21.318 -2.741e-16 -3.29001e-17 0.283535 1.51287e-16 -8.59755e-16)
(-1.03057e-15 3.31666e-30 -9.13006e-32 20.7718 -2.33907e-15 1.97598e-15 0.280204 -2.97771e-17 2.60246e-17)
(0 3.54804e-30 -1.10876e-31 20.7718 -1.51923e-16 -2.79834e-17 0.280204 1.53259e-16 -8.6324e-16)
(-1.05049e-15 3.31897e-30 1.69601e-32 20.2282 -1.78174e-15 1.84277e-15 0.276763 -1.92074e-17 2.47072e-17)
(4.20197e-15 6.99438e-30 -2.18574e-31 20.2282 1.24431e-17 -1.75641e-17 0.276763 1.56661e-16 -8.66316e-16)
(-1.07019e-15 1.71067e-29 -3.08671e-31 19.6888 -1.40345e-15 1.73665e-15 0.273234 -2.00049e-17 2.3801e-17)
(0 -1.03412e-29 1.07721e-31 19.6888 -1.08802e-15 -9.69722e-18 0.273234 1.58532e-16 -8.68878e-16)
(-2.17929e-15 1.34327e-29 -5.06704e-31 19.1552 -1.22377e-15 1.65021e-15 0.269636 -1.46406e-17 2.29632e-17)
(-4.35858e-15 -6.79532e-30 3.18531e-31 19.1552 -1.20444e-15 -9.17039e-18 0.269636 1.50339e-16 -8.71088e-16)
(-2.21772e-15 -1.68076e-29 5.42778e-31 18.6286 -1.26806e-15 1.57684e-15 0.265988 -2.18734e-17 2.23732e-17)
(8.87089e-15 2.00938e-29 -6.2793e-31 18.6286 -4.75205e-17 -4.54958e-18 0.265988 1.52178e-16 -8.7294e-16)
(-3.38348e-15 3.63495e-29 -1.21545e-30 18.1104 -2.35762e-15 1.51848e-15 0.262306 -4.70856e-17 2.19211e-17)
(-6.36959e-15 -2.64077e-29 9.28396e-31 18.1104 3.157e-16 -1.74704e-17 0.262306 1.57811e-16 -8.74521e-16)
(-1.14654e-15 -1.62057e-29 4.71537e-30 17.6014 -2.81133e-15 6.86943e-16 0.258607 -3.60401e-17 5.08277e-18)
(4.58617e-15 2.27756e-29 -6.1006e-31 17.6014 1.031e-15 -4.6144e-17 0.258607 1.63201e-16 -8.75977e-16)
(1.165e-15 -6.52445e-30 1.99177e-31 17.1027 -2.41697e-15 -1.34106e-29 0.254904 -3.65373e-17 -9.86076e-32)
(0 3.20702e-30 -4.00877e-31 17.1027 9.02483e-16 -5.01312e-17 0.254904 1.78161e-16 -8.77456e-16)
(0 -2.21274e-29 8.89046e-31 16.6147 -2.80918e-15 -8.70463e-15 0.25121 -4.91307e-17 1.32176e-16)
(4.73281e-15 2.21274e-29 -8.89046e-31 16.6147 1.04094e-15 -5.00886e-17 0.25121 1.86385e-16 -8.7872e-16)
(1.75401e-15 -6.2315e-30 2.92101e-31 16.1382 -2.65851e-15 -8.60247e-15 0.247536 -3.29171e-17 1.33003e-16)
(4.80457e-15 6.2315e-30 -2.92101e-31 16.1382 9.60966e-16 -6.49384e-17 0.247536 1.99145e-16 -8.80022e-16)
(-1.72887e-15 -2.31835e-29 -3.83886e-31 15.6734 0 -8.53758e-15 0.243891 -3.15544e-30 1.32867e-16)
(4.8753e-15 -3.07109e-30 9.59716e-32 15.6734 -4.02939e-16 -4.746e-17 0.243891 2.0746e-16 -8.81371e-16)
(0 1.81624e-29 -3.78384e-31 15.2208 -9.43251e-16 -8.52469e-15 0.240284 -3.20081e-17 1.3485e-16)
(0 -1.81624e-29 3.78384e-31 15.2208 -1.0445e-15 -4.59734e-17 0.240284 2.04456e-16 -8.82535e-16)
(-2.50683e-15 6.63171e-30 -3.00969e-31 14.7805 -2.78834e-15 -8.4588e-15 0.236722 -5.81726e-17 1.36346e-16)
(0 0 1.86481e-31 14.7805 -7.29782e-16 -6.74845e-17 0.236722 1.99386e-16 -8.83871e-16)
(1.65559e-15 -2.05865e-29 3.67616e-31 14.3527 -2.65761e-15 -8.35327e-15 0.233211 -2.86338e-17 1.36658e-16)
(3.42572e-15 2.05865e-29 -3.67616e-31 14.3527 -1.95932e-16 -6.89664e-17 0.233211 1.96847e-16 -8.85303e-16)
(0 8.69632e-30 -2.7176e-31 13.9372 -2.17337e-15 -8.23651e-15 0.229755 -4.36737e-17 1.3686e-16)
(5.14796e-15 -5.79755e-30 9.05867e-32 13.9372 -4.64477e-16 -6.63941e-17 0.229755 1.98796e-16 -8.86795e-16)
(-1.3034e-15 9.03539e-30 -4.26575e-32 13.5342 -2.27465e-15 -8.13918e-15 0.226361 -3.29107e-17 1.36754e-16)
(0 0 -1.78577e-31 13.5342 -1.35589e-15 -7.46142e-17 0.226361 1.9945e-16 -8.88399e-16)
(1.31957e-15 5.12831e-30 -1.38331e-31 13.1435 -2.05594e-15 -8.06634e-15 0.223029 -3.74203e-17 1.37565e-16)
(0 -5.63255e-30 8.80086e-32 13.1435 -1.61956e-15 -7.34567e-17 0.223029 1.96056e-16 -8.9024e-16)
(0 -5.55182e-30 1.73494e-31 12.765 -2.65073e-15 -7.96466e-15 0.219764 -5.46581e-17 1.38252e-16)
(0 5.55182e-30 -2.60242e-31 12.765 -1.24742e-15 -7.36272e-17 0.219764 1.99471e-16 -8.92181e-16)
(1.5403e-15 -8.20838e-30 1.71008e-31 12.3984 -2.53585e-15 -7.85557e-15 0.216568 -3.44439e-17 1.38042e-16)
(-1.5403e-15 8.20838e-30 -2.56512e-31 12.3984 -1.70936e-15 -8.32784e-17 0.216568 2.00512e-16 -8.94382e-16)
(-1.21509e-15 -1.44883e-30 1.22788e-31 12.0436 -2.17669e-15 -6.14499e-15 0.21344 -4.33419e-17 1.38434e-16)
(0 8.09073e-30 -1.68557e-31 12.0436 -1.9221e-15 -7.54461e-17 0.21344 1.94973e-16 -8.96806e-16)
(-1.38189e-15 1.92728e-29 -1.94165e-31 11.7002 -2.07292e-15 -2.64673e-15 0.210384 -3.16664e-17 8.05628e-17)
(0 -1.59495e-29 1.66141e-31 11.7002 -8.8125e-16 -4.98695e-17 0.210384 1.93192e-16 -8.99369e-16)
(1.3969e-15 -8.5639e-30 -4.66039e-32 11.3681 -1.77282e-15 -8.74223e-16 0.207399 -3.35017e-17 1.48419e-17)
(-5.58762e-15 5.24031e-30 8.18799e-32 11.3681 -6.82562e-16 -4.96655e-17 0.207399 1.97256e-16 -9.01925e-16)
(2.90775e-15 -5.16521e-30 1.61413e-31 11.047 -2.14572e-15 -8.22402e-16 0.204484 -4.65994e-17 1.73055e-17)
(-5.6468e-15 5.16521e-30 -1.61413e-31 11.047 -9.10979e-16 -5.89302e-17 0.204484 1.96815e-16 -9.04903e-16)
(-1.42628e-15 1.09193e-29 -1.84423e-31 10.7364 -1.41543e-15 -7.17955e-16 0.201641 -1.3386e-17 1.33304e-17)
(8.54419e-15 -1.01823e-29 7.95496e-32 10.7364 -9.1353e-16 8.30515e-19 0.201641 1.97653e-16 -9.08033e-16)
(1.44066e-15 -7.53473e-30 -1.36702e-31 10.4362 0 -7.45952e-16 0.198869 0 1.38326e-17)
(5.76264e-15 -2.00728e-29 3.13638e-31 10.4362 -2.22117e-15 4.38654e-17 0.198869 2.01736e-16 -9.10762e-16)
(0 4.94628e-30 7.72856e-32 10.146 -3.07185e-17 -7.33892e-16 0.196167 -2.11131e-18 1.48032e-17)
(0 0 -7.72856e-32 10.146 -2.35062e-15 1.57009e-17 0.196167 1.84338e-16 -9.13738e-16)
(-1.46881e-15 -1.12986e-29 2.9515e-31 9.86553 -3.86464e-16 -7.1589e-16 0.193533 -1.32355e-17 1.37648e-17)
(5.87524e-15 1.95016e-29 -3.8089e-31 9.86553 -1.62346e-15 -3.35298e-18 0.193533 1.84197e-16 -9.17116e-16)
(-1.4826e-15 4.76441e-44 -7.90817e-32 9.59441 -3.35587e-28 -7.46309e-16 0.190968 0 1.45205e-17)
(-7.28302e-15 -4.80551e-30 7.50861e-32 9.59441 -2.40925e-15 -2.40174e-17 0.190968 1.8015e-16 -9.20668e-16)
(1.49619e-15 -8.06358e-30 1.4802e-31 9.33236 4.00013e-16 -7.227e-16 0.18847 -5.4823e-18 3.65573e-18)
(5.98477e-15 4.73664e-30 -1.4802e-31 9.33236 -1.90823e-15 -1.9184e-17 0.18847 1.68113e-16 -9.24685e-16)
(-4.13788e-15 2.20012e-29 -2.91797e-31 9.07906 3.32696e-16 -6.5873e-16 0.186038 -1.08209e-17 -3.56986e-17)
(8.66671e-15 -1.8675e-29 2.91797e-31 9.07906 -1.58463e-15 -3.40369e-18 0.186038 1.85913e-16 -9.28578e-16)
(-1.52285e-15 3.32731e-30 -7.19036e-32 8.83422 -1.29618e-16 -6.01663e-16 0.183669 -8.35128e-18 -7.55237e-17)
(0 0 7.19036e-32 8.83422 -2.28494e-15 -1.04176e-17 0.183669 1.8983e-16 -9.32826e-16)
(-1.53591e-15 7.8614e-30 -7.08731e-32 8.59753 -7.60335e-16 -6.35136e-16 0.181364 -2.40458e-17 -1.15445e-16)
(0 0 0 8.59753 -1.53002e-15 -1.74979e-17 0.181364 1.92341e-16 -9.37321e-16)
(-1.54881e-15 7.00649e-46 1.39715e-31 8.3687 3.3294e-30 -6.03902e-16 0.179121 -3.15544e-30 -1.57166e-16)
(6.19523e-15 2.23543e-29 -1.39715e-31 8.3687 -7.48032e-16 3.50662e-17 0.179121 2.01098e-16 -9.42138e-16)
(1.56154e-15 -1.21362e-29 1.37712e-31 8.14744 1.71044e-15 -5.72245e-16 0.176937 -4.02137e-17 -1.98318e-16)
(0 8.81357e-30 -1.37712e-31 8.14744 -1.36928e-15 6.13128e-17 0.176937 2.07149e-16 -9.46354e-16)
(0 -8.68725e-30 6.78692e-32 7.93348 4.0623e-16 -5.32042e-16 0.174812 -3.44977e-17 -2.40956e-16)
(0 8.68725e-30 -6.78692e-32 7.93348 -2.94503e-15 3.64697e-17 0.174812 2.05152e-16 -9.51235e-16)
(-1.58653e-15 7.00649e-46 1.33793e-31 7.72655 3.32698e-30 -5.3919e-16 0.172744 -3.15544e-30 -2.8286e-16)
(0 1.28441e-29 -2.00689e-31 7.72655 -3.1637e-15 4.66221e-17 0.172744 1.72756e-16 -9.56036e-16)
(2.37565e-15 -2.532e-29 3.95626e-31 7.52639 9.99983e-16 -5.52448e-16 0.170731 -1.71234e-17 -3.28005e-16)
(1.27904e-14 2.95401e-29 -4.61563e-31 7.52639 -2.05693e-15 8.14256e-17 0.170731 1.5212e-16 -9.60809e-16)
(-2.3416e-15 4.15952e-30 0 7.33274 9.23813e-16 -4.79964e-16 0.168773 -2.85967e-17 -3.72812e-16)
(6.44365e-15 4.15952e-30 -1.29985e-31 7.33274 -2.85939e-15 1.1139e-16 0.168773 1.5174e-16 -9.65165e-16)
(-3.93093e-15 3.20198e-29 -1.92183e-31 7.14536 2.92105e-16 -5.2223e-16 0.166867 -1.40726e-17 -4.18641e-16)
(-6.49155e-15 -2.45994e-29 1.92183e-31 7.14536 -4.15228e-15 8.21538e-17 0.166867 1.32637e-16 -9.69624e-16)
(6.40238e-16 7.36004e-30 -1.26286e-31 6.96402 -3.48057e-16 -5.89014e-16 0.165012 -1.62458e-17 -4.64817e-16)
(-6.5389e-15 -4.04115e-30 6.31429e-32 6.96402 -2.22182e-15 3.35677e-17 0.165012 1.17943e-16 -9.74577e-16)
(-2.24236e-15 1.19497e-29 -1.86714e-31 6.7885 -9.90349e-16 -6.48532e-16 0.163206 -3.17504e-17 -5.11903e-16)
(0 -7.96645e-30 1.24476e-31 6.7885 1.076e-15 -3.73845e-17 0.163206 1.42453e-16 -9.80051e-16)
(0 7.85227e-30 -6.13459e-32 6.61856 -2.13032e-15 -5.73108e-16 0.161449 -7.30486e-17 -5.5987e-16)
(6.63198e-15 -3.92614e-30 0 6.61856 1.59623e-15 -5.50053e-17 0.161449 1.68319e-16 -9.86441e-16)
(-2.68765e-15 1.991e-29 -4.83733e-31 6.454 -2.92054e-15 -5.67105e-16 0.159738 -7.22938e-17 -6.06129e-16)
(0 -1.93493e-29 4.23266e-31 6.454 4.2844e-16 -7.28498e-17 0.159738 1.78843e-16 -9.92666e-16)
(0 -3.8144e-29 4.172e-31 6.29463 -2.53072e-15 -6.52943e-16 0.158072 -5.53626e-17 -6.54391e-16)
(1.3446e-14 3.8144e-29 -4.172e-31 6.29463 6.42417e-16 -5.56105e-17 0.158072 1.87332e-16 -9.99885e-16)
(2.11654e-15 -7.51946e-30 5.87458e-32 6.14024 -2.38131e-15 -5.72057e-16 0.156451 -6.67025e-17 -6.79816e-16)
(1.35355e-14 7.51946e-30 -5.87458e-32 6.14024 -1.98896e-16 -8.20006e-18 0.156451 2.14381e-16 -1.00657e-15)
(-3.40604e-15 6.62584e-30 -5.79038e-32 5.99065 -2.54004e-15 -4.96206e-16 0.154872 -6.52935e-17 -7.01966e-16)
(0 0 5.79038e-32 5.99065 -1.03531e-15 -3.06799e-17 0.154872 2.25111e-16 -1.01368e-15)
(-1.71398e-15 -4.95161e-31 0 5.84568 -1.17695e-15 -5.49368e-16 0.153335 -1.55139e-17 -7.23913e-16)
(1.37118e-14 3.65273e-30 -5.70739e-32 5.84568 -9.75388e-17 -2.08335e-17 0.153335 2.2638e-16 -1.02122e-15)
(1.72483e-15 -1.05222e-29 1.68768e-31 5.70516 -4.45223e-16 -5.77083e-16 0.151837 -8.24973e-18 -7.4835e-16)
(0 7.20075e-30 -1.68768e-31 5.70516 -1.35881e-15 -2.70939e-17 0.151837 2.41494e-16 -1.02867e-15)
(-1.73556e-15 -2.29406e-31 0 5.56892 -4.8095e-16 -5.13539e-16 0.150379 -1.79214e-17 -7.73546e-16)
(0 7.09755e-30 -5.54496e-32 5.56892 -2.28777e-15 -5.78615e-17 0.150379 2.37374e-16 -1.03663e-15)
(-1.7462e-15 0 -1.63965e-31 5.43681 0 -4.45832e-16 0.148958 3.15544e-30 -7.96694e-16)
(6.98478e-15 -6.99582e-30 1.63965e-31 5.43681 -1.3366e-15 -4.28392e-17 0.148958 2.30339e-16 -1.04515e-15)
(-1.75672e-15 1.36604e-29 -1.61614e-31 5.30867 2.9867e-16 -4.79946e-16 0.147574 -1.64825e-17 -8.19213e-16)
(7.02689e-15 -6.89555e-30 1.07743e-31 5.30867 -1.53851e-15 -2.48292e-17 0.147574 2.29414e-16 -1.05349e-15)
(-3.5343e-15 -1.5968e-31 0 5.18436 -8.33163e-18 -4.01519e-16 0.146226 -5.59626e-19 -8.44243e-16)
(0 6.79672e-30 0 5.18436 -1.54305e-15 -3.91278e-17 0.146226 2.18988e-16 -1.06194e-15)
(-1.77748e-15 6.66488e-30 -1.04677e-31 5.06374 -3.51772e-16 -4.60436e-16 0.144912 -1.98049e-17 -8.66769e-16)
(0 0 5.23383e-32 5.06374 -2.0685e-15 -8.07855e-17 0.144912 2.13311e-16 -1.07077e-15)
(1.85866e-15 -9.90493e-30 1.03176e-31 4.94667 -1.35024e-15 -5.94379e-16 0.143631 -5.92426e-17 -8.91007e-16)
(-7.15085e-15 9.90493e-30 -1.54765e-31 4.94667 -2.03252e-15 -7.68026e-17 0.143631 1.99907e-16 -1.08045e-15)
(3.62987e-15 -3.41648e-29 1.01698e-31 4.83303 -1.90727e-16 -4.48139e-16 0.142382 -2.82183e-18 -9.13891e-16)
(5.35939e-15 6.50865e-30 -1.01698e-31 4.83303 -1.45334e-15 -1.05379e-16 0.142382 2.05181e-16 -1.08988e-15)
(1.8079e-15 -6.63705e-30 1.0024e-31 4.72269 2.21078e-28 -3.70413e-16 0.141165 0 -9.3618e-16)
(-7.2316e-15 6.41536e-30 -1.0024e-31 4.72269 -3.02459e-15 -1.07214e-16 0.141165 1.90321e-16 -1.10077e-15)
(-1.81786e-15 9.63495e-30 -9.88033e-32 4.61554 1.64093e-15 -3.81114e-16 0.139979 -4.11339e-17 -9.58556e-16)
(3.71168e-15 -3.16171e-30 4.94017e-32 4.61554 -2.64003e-15 -6.83157e-17 0.139979 1.7481e-16 -1.11105e-15)
(0 9.34917e-30 -1.46081e-31 4.51146 2.22981e-15 -2.93046e-16 0.138821 -5.89509e-17 -9.83155e-16)
(0 -6.23278e-30 9.73872e-32 4.51146 -8.63285e-16 -1.21295e-16 0.138821 2.06352e-16 -1.12226e-15)
(-1.72923e-15 1.53586e-29 -1.91983e-31 4.41034 2.68339e-15 -3.91786e-16 0.137693 -7.89963e-17 -1.00642e-15)
(3.89164e-15 -6.14345e-30 4.79957e-32 4.41034 -1.09293e-15 -1.34265e-16 0.137693 2.21438e-16 -1.13468e-15)
(1.84723e-15 -9.35292e-30 9.46156e-32 4.31208 3.41011e-15 -4.74067e-16 0.136592 -8.93229e-17 -1.03395e-15)
(0 6.0554e-30 -9.46156e-32 4.31208 -3.21524e-15 -4.95333e-17 0.136592 2.1616e-16 -1.14722e-15)
(0 1.19372e-29 -9.32595e-32 4.21658 4.10497e-15 -2.79009e-16 0.135519 -1.27874e-16 -1.05926e-15)
(-7.42743e-15 -5.96861e-30 4.66298e-32 4.21658 -4.44744e-15 -3.15525e-17 0.135519 1.83378e-16 -1.15899e-15)
(-1.65593e-15 0 0 4.12375 4.09911e-15 -2.7562e-16 0.134471 -1.37109e-16 -1.08341e-15)
(0 8.82459e-30 -9.19229e-32 4.12375 -3.54396e-15 -2.14108e-17 0.134471 1.56864e-16 -1.17193e-15)
(0 2.89937e-30 -1.35908e-31 4.03348 3.25981e-15 -4.15194e-16 0.133449 -1.31233e-16 -1.10946e-15)
(0 0 9.06054e-32 4.03348 -2.62993e-15 5.2862e-18 0.133449 1.50546e-16 -1.18407e-15)
(3.49408e-15 1.67269e-29 -2.23267e-31 3.9457 1.54945e-15 -4.97412e-16 0.132451 -8.49682e-17 -1.13745e-15)
(-1.60881e-15 -2.00047e-29 2.23267e-31 3.9457 -2.69585e-15 -3.55189e-17 0.132451 1.70173e-16 -1.19721e-15)
(1.8946e-15 7.98194e-30 -1.3204e-31 3.86031 1.16957e-16 -4.36004e-16 0.131478 -1.89755e-17 -1.1661e-15)
(0 -8.45057e-30 4.40134e-32 3.86031 -2.23581e-15 -6.86967e-17 0.131478 1.6879e-16 -1.2108e-15)
(-3.80772e-15 -2.8026e-45 0 3.77725 3.79244e-28 -2.84876e-16 0.130527 -3.15544e-30 -1.1891e-15)
(7.61543e-15 0 0 3.77725 -1.546e-15 -6.93223e-17 0.130527 1.6153e-16 -1.22525e-15)
(-1.91304e-15 3.2755e-30 0 3.69642 2.34425e-15 -3.08081e-16 0.129599 -6.55768e-17 -1.21059e-15)
(0 5.47338e-30 -8.55215e-32 3.69642 -2.01126e-15 4.79143e-16 0.129599 1.75829e-16 -1.23974e-15)
(0 0 -4.21479e-32 3.61775 2.92123e-15 -4.56777e-16 0.128693 -9.96445e-17 -1.23402e-15)
(-3.03708e-15 0 4.21479e-32 3.61775 -1.13218e-15 1.00984e-15 0.128693 1.88886e-16 -1.24562e-15)
(0 1.06352e-29 -1.24631e-31 3.54118 4.72126e-15 -2.78004e-16 0.127809 -1.08992e-16 -1.25875e-15)
(0 -5.31761e-30 8.30876e-32 3.54118 -2.04042e-15 1.19288e-15 0.127809 2.35849e-16 -1.25208e-15)
(-2.95064e-15 1.57242e-29 7.5058e-31 3.46662 6.04648e-15 -5.70205e-17 0.126945 -2.33898e-16 -1.27934e-15)
(0 -5.24139e-30 0 3.46662 -3.50815e-15 1.38934e-15 0.126945 2.27371e-16 -1.25603e-15)
(0 5.16627e-30 -8.0723e-32 3.39403 4.05423e-15 -2.53259e-16 0.126101 -2.10283e-16 -1.30246e-15)
(1.5593e-14 0 0 3.39403 -2.19653e-15 1.27278e-15 0.126101 1.87368e-16 -1.25966e-15)
(-3.91599e-15 6.51402e-30 -3.9783e-32 3.32332 9.04224e-16 -5.04531e-16 0.125276 -9.11313e-17 -1.32771e-15)
(7.83197e-15 0 3.9783e-32 3.32332 -1.48435e-15 9.6977e-16 0.125276 1.99274e-16 -1.26547e-15)
(1.9668e-15 -8.28161e-30 3.92128e-32 3.25445 -1.34873e-15 -5.68353e-16 0.124471 -8.03525e-17 -1.35753e-15)
(0 5.01924e-30 -3.92128e-32 3.25445 -2.8713e-16 1.10113e-15 0.124471 2.10403e-16 -1.27431e-15)
(0 -4.62484e-30 0 3.18735 -2.82926e-17 -2.52226e-16 0.123684 -5.507e-19 -1.38474e-15)
(-1.06873e-14 -4.9473e-30 0 3.18735 9.62453e-16 1.46834e-15 0.123684 2.16508e-16 -1.27839e-15)
(-4.7294e-15 7.70714e-45 7.68124e-31 3.12196 1.32088e-29 -1.41472e-16 0.122914 -3.15544e-30 -1.40896e-15)
(7.93693e-15 1.95056e-29 -1.1429e-31 3.12196 9.78139e-16 1.33386e-15 0.122914 2.304e-16 -1.28201e-15)
(0 9.61301e-30 -3.75508e-32 3.05824 1.30835e-15 -3.75645e-16 0.122163 -5.25295e-17 -1.43769e-15)
(-2.70582e-15 -4.8065e-30 0 3.05824 4.49441e-16 1.22986e-15 0.122163 2.34974e-16 -1.28952e-15)
(0 -9.47523e-30 7.40252e-32 2.99612 4.88974e-16 -2.52751e-16 0.121428 -5.23185e-17 -1.4659e-15)
(0 9.47523e-30 -7.40252e-32 2.99612 -9.93088e-16 1.39371e-15 0.121428 2.43278e-16 -1.29535e-15)
(-2.00997e-15 -1.4052e-30 0 2.93556 -1.09424e-15 -3.4485e-16 0.120709 -7.76913e-17 -1.49302e-15)
(0 4.66971e-30 0 2.93556 -1.33299e-15 1.4424e-15 0.120709 2.43507e-16 -1.30041e-15)
(-1.44575e-15 7.35682e-45 1.07878e-31 2.8765 1.30939e-29 -4.91322e-16 0.120007 1.97788e-46 -1.52696e-15)
(1.61476e-14 2.76167e-29 -7.19185e-32 2.8765 1.86539e-16 1.30608e-15 0.120007 2.56677e-16 -1.30626e-15)
(0 -1.55687e-30 0 2.81891 6.4712e-16 -1.1242e-16 0.11932 -1.37355e-17 -1.55595e-15)
(-2.554e-15 -4.53681e-30 0 2.81891 -2.42979e-16 1.39625e-15 0.11932 2.80031e-16 -1.31458e-15)
(-2.51739e-15 1.34154e-29 2.19642e-31 2.76274 2.34653e-15 -1.01997e-29 0.118649 -8.12587e-17 -1.58269e-15)
(-2.51739e-15 -4.47179e-30 -6.98717e-32 2.76274 -1.0635e-15 1.77326e-15 0.118649 2.46636e-16 -1.31896e-15)
(-6.13069e-15 -2.11338e-29 0 2.70794 2.3921e-15 -3.4107e-16 0.117992 -1.21152e-16 -1.61364e-15)
(1.63485e-14 3.52616e-29 0 2.70794 2.3363e-16 1.66163e-15 0.117992 2.28493e-16 -1.3205e-15)
(0 -3.04117e-29 0 2.65447 1.68536e-15 -3.87291e-16 0.117349 -8.76503e-17 -1.64628e-15)
(1.64147e-14 3.04117e-29 0 2.65447 -1.93055e-15 1.34333e-15 0.117349 2.49696e-16 -1.32791e-15)
(-2.06007e-15 1.6087e-29 6.69102e-32 2.60229 2.04714e-15 -3.43507e-16 0.11672 -6.15859e-17 -1.6801e-15)
(0 -8.56451e-30 -6.69102e-32 2.60229 -4.40878e-15 1.61127e-15 0.11672 2.21013e-16 -1.33594e-15)
(2.06825e-15 -3.27757e-29 -1.31902e-31 2.55136 3.80783e-15 -1.27832e-16 0.116105 -1.22997e-16 -1.71237e-15)
(1.6546e-14 2.95462e-29 1.31902e-31 2.55136 -3.07117e-15 1.83893e-15 0.116105 1.97586e-16 -1.33771e-15)
(0 -2.08019e-29 -1.30012e-31 2.50165 4.57446e-15 -1.58346e-16 0.115504 -2.25234e-16 -1.74212e-15)