/*--------------------------------*- C++ -*----------------------------------*\
| =========                 |                                                 |
| \\      /  F ield         | OpenFOAM: The Open Source CFD Toolbox           |
|  \\    /   O peration     | Version:  2106                                  |
|   \\  /    A nd           | Website:  www.openfoam.com                      |
|    \\/     M anipulation  |                                                 |
\*---------------------------------------------------------------------------*/
FoamFile
{
    version     2.0;
    format      ascii;
    arch        "LSB;label=32;scalar=64";
    class       surfaceScalarField;
    location    "16000";
    object      phi;
}
// * * * * * * * * * * * * * * * * * * * * * * * * * * * * * * * * * * * * * //

dimensions      [0 3 -1 0 0 0 0];

oriented        oriented;

internalField   nonuniform List<scalar> 
5116
(
1.62867e-08
-5.94495e-18
5.07657e-23
-9.56815e-23
6.59714e-23
4.98059e-08
-5.94552e-18
2.63935e-22
1.03237e-22
1.19946e-22
8.47824e-08
-5.94613e-18
2.76271e-22
3.03681e-22
1.25252e-22
1.21266e-07
-5.94669e-18
2.82084e-22
4.58434e-22
1.30791e-22
1.59306e-07
-5.94733e-18
2.90052e-22
6.38591e-22
1.36573e-22
1.98957e-07
-5.94802e-18
2.99233e-22
9.00319e-22
1.42609e-22
2.40272e-07
-5.94877e-18
3.08705e-22
1.14503e-21
1.48909e-22
2.83307e-07
-5.94941e-18
3.18378e-22
1.29578e-21
1.55485e-22
3.28119e-07
-5.95011e-18
3.28335e-22
1.5234e-21
1.6235e-22
3.74769e-07
-5.95085e-18
3.38614e-22
1.74146e-21
1.69517e-22
4.23316e-07
-5.95155e-18
3.49224e-22
1.97962e-21
1.76997e-22
4.73824e-07
-5.95231e-18
3.60179e-22
2.20348e-21
1.84806e-22
5.26357e-07
-5.95301e-18
3.71493e-22
2.26533e-21
1.92956e-22
5.80982e-07
-5.95384e-18
3.8318e-22
2.526e-21
2.01463e-22
6.37769e-07
-5.95454e-18
3.95252e-22
2.64066e-21
2.10342e-22
6.96786e-07
-5.95536e-18
4.07719e-22
2.86241e-21
2.19608e-22
7.58107e-07
-5.95607e-18
4.20594e-22
3.0695e-21
2.29275e-22
8.21805e-07
-5.95683e-18
4.33885e-22
3.09937e-21
2.39358e-22
8.87958e-07
-5.95798e-18
4.47601e-22
3.30801e-21
2.49876e-22
9.56642e-07
-5.95874e-18
4.61764e-22
3.26508e-21
2.60841e-22
1.02794e-06
-5.95979e-18
4.76377e-22
3.46175e-21
2.72272e-22
1.10193e-06
-5.96081e-18
4.91459e-22
3.64018e-21
2.84179e-22
1.17869e-06
-5.96227e-18
5.07009e-22
4.00659e-21
2.96573e-22
1.25832e-06
-5.96324e-18
5.23043e-22
4.33175e-21
3.09471e-22
1.34089e-06
-5.96409e-18
5.39552e-22
4.38088e-21
3.2288e-22
1.42649e-06
-5.96487e-18
5.56536e-22
4.40701e-21
3.36816e-22
1.5152e-06
-5.96578e-18
5.73996e-22
4.35103e-21
3.51289e-22
1.60712e-06
-5.96694e-18
5.9192e-22
4.58113e-21
3.66312e-22
1.70233e-06
-5.96806e-18
6.103e-22
4.70757e-21
3.81886e-22
1.80091e-06
-5.96933e-18
6.29122e-22
4.74715e-21
3.98016e-22
1.90294e-06
-5.97055e-18
6.48371e-22
4.86494e-21
4.14695e-22
2.00852e-06
-5.97157e-18
6.68014e-22
5.03692e-21
4.31908e-22
2.1177e-06
-5.97259e-18
6.8801e-22
5.2979e-21
4.49639e-22
2.23058e-06
-5.97357e-18
7.08323e-22
5.00419e-21
4.67879e-22
2.34721e-06
-5.97471e-18
7.28903e-22
5.08942e-21
4.86614e-22
2.46767e-06
-5.9758e-18
7.49699e-22
5.15668e-21
5.05789e-22
2.592e-06
-5.97734e-18
7.7064e-22
5.28175e-21
5.25383e-22
2.72026e-06
-5.97863e-18
7.91671e-22
5.3569e-21
5.45354e-22
2.85249e-06
-5.97954e-18
8.12696e-22
5.31448e-21
5.65681e-22
2.98873e-06
-5.9812e-18
8.33634e-22
4.94893e-21
5.86276e-22
3.129e-06
-5.98244e-18
8.54404e-22
4.95781e-21
6.07083e-22
3.27331e-06
-5.98398e-18
8.74928e-22
4.59784e-21
6.28039e-22
3.42168e-06
-5.98592e-18
8.95098e-22
5.31884e-21
6.49094e-22
3.5741e-06
-5.98879e-18
9.14846e-22
6.29738e-21
6.70162e-22
3.73055e-06
-5.99035e-18
9.34111e-22
6.21699e-21
6.91102e-22
3.89103e-06
-5.99172e-18
9.52748e-22
6.49014e-21
7.11952e-22
4.05549e-06
-5.99311e-18
9.70658e-22
8.0044e-21
7.32599e-22
4.2239e-06
-5.99466e-18
9.8776e-22
7.91371e-21
7.52987e-22
4.39623e-06
-5.99511e-18
1.004e-21
7.80099e-21
7.73108e-22
4.57242e-06
-5.9969e-18
1.01928e-21
7.17818e-21
7.92918e-22
4.75243e-06
-5.99664e-18
1.03359e-21
6.80514e-21
8.12372e-22
4.9362e-06
-5.99818e-18
1.0469e-21
5.70804e-21
8.31382e-22
5.12369e-06
-5.99919e-18
1.05922e-21
5.32958e-21
8.4997e-22
5.31483e-06
-6.00008e-18
1.07053e-21
3.26372e-21
8.68089e-22
5.50959e-06
-6.00288e-18
1.08084e-21
3.73575e-21
8.85768e-22
5.70791e-06
-6.00552e-18
1.09022e-21
4.09561e-21
9.02919e-22
5.90975e-06
-6.00872e-18
1.09871e-21
4.71578e-21
9.19596e-22
6.11508e-06
-6.01107e-18
1.10633e-21
4.39659e-21
9.357e-22
6.32385e-06
-6.01335e-18
1.11312e-21
3.80588e-21
9.51343e-22
6.53605e-06
-6.01524e-18
1.11911e-21
4.20476e-21
9.66632e-22
6.75164e-06
-6.01716e-18
1.12421e-21
3.59955e-21
9.81575e-22
6.97062e-06
-6.01768e-18
1.12852e-21
3.03223e-21
9.96249e-22
7.19298e-06
-6.01942e-18
1.1321e-21
1.71063e-21
1.01055e-21
7.41872e-06
-6.01964e-18
1.13501e-21
1.37606e-21
1.02471e-21
7.64784e-06
-6.02188e-18
1.13717e-21
1.48017e-21
1.0387e-21
7.88035e-06
-6.02499e-18
1.1388e-21
3.40964e-21
1.05253e-21
8.11626e-06
-6.027e-18
1.13997e-21
3.40924e-21
1.0662e-21
8.35561e-06
-6.02925e-18
1.14051e-21
4.78561e-21
1.07977e-21
8.59843e-06
-6.03313e-18
1.1406e-21
6.34481e-21
1.09312e-21
8.84473e-06
-6.03325e-18
1.14032e-21
4.80721e-21
1.10652e-21
9.09457e-06
-6.03314e-18
1.13966e-21
4.19709e-21
1.11987e-21
9.34799e-06
-6.03739e-18
1.13848e-21
3.67388e-21
1.1331e-21
9.60503e-06
-6.03994e-18
1.13715e-21
3.38785e-21
1.14617e-21
9.86574e-06
-6.04148e-18
1.1356e-21
2.65423e-21
1.1591e-21
1.01302e-05
-6.04506e-18
1.13399e-21
1.77615e-21
1.17195e-21
1.03984e-05
-6.04581e-18
1.13245e-21
-5.46415e-22
1.18474e-21
1.06705e-05
-6.04996e-18
1.13083e-21
-1.60044e-21
1.19761e-21
1.09465e-05
-6.0522e-18
1.12943e-21
-3.22749e-21
1.21032e-21
1.12265e-05
-6.05538e-18
1.12804e-21
-5.08196e-21
1.223e-21
1.15106e-05
-6.05759e-18
1.12673e-21
-7.17992e-21
1.23569e-21
1.17988e-05
-6.05849e-18
1.12508e-21
-7.15711e-21
1.24846e-21
1.20912e-05
-6.0628e-18
1.123e-21
-6.87696e-21
1.26141e-21
1.23879e-05
-6.06337e-18
1.12061e-21
-9.87261e-21
1.2745e-21
1.26889e-05
-6.06364e-18
1.1177e-21
-1.28674e-20
1.28824e-21
1.29944e-05
-6.06418e-18
1.114e-21
-1.50875e-20
1.3028e-21
1.33044e-05
-6.06398e-18
1.1097e-21
-1.77632e-20
1.31796e-21
1.36191e-05
-6.06499e-18
1.10483e-21
-1.92996e-20
1.33355e-21
1.39385e-05
-6.06381e-18
1.09961e-21
-2.28709e-20
1.34939e-21
1.42626e-05
-6.06443e-18
1.09423e-21
-2.44881e-20
1.36557e-21
1.45917e-05
-6.06342e-18
1.08829e-21
-2.78972e-20
1.38238e-21
1.49257e-05
-6.06616e-18
1.08165e-21
-2.76539e-20
1.40007e-21
1.52648e-05
-6.06573e-18
1.07466e-21
-3.18003e-20
1.41799e-21
1.56091e-05
-6.06009e-18
1.06639e-21
-3.21377e-20
1.43726e-21
1.59586e-05
-6.06225e-18
1.05583e-21
-3.66435e-20
1.45788e-21
1.63136e-05
-6.06107e-18
1.04452e-21
-3.99135e-20
1.47906e-21
1.6674e-05
-6.05965e-18
1.03153e-21
-4.42089e-20
1.5002e-21
1.70399e-05
-6.05849e-18
1.01697e-21
-4.88445e-20
1.5228e-21
1.74116e-05
-6.05748e-18
1.00127e-21
-5.50094e-20
1.54689e-21
1.7789e-05
-6.05894e-18
9.84234e-22
-5.88899e-20
1.57291e-21
1.81724e-05
-6.05951e-18
9.67031e-22
-5.49717e-20
1.59993e-21
1.85617e-05
-6.06321e-18
9.48957e-22
-5.48059e-20
1.62719e-21
1.89571e-05
-6.0686e-18
9.31624e-22
-5.0757e-20
1.65448e-21
1.93588e-05
-6.07191e-18
9.13867e-22
-5.22125e-20
1.68158e-21
1.97668e-05
-6.07674e-18
8.95167e-22
-5.22699e-20
1.7099e-21
2.01813e-05
-6.07984e-18
8.76713e-22
-5.31908e-20
1.73861e-21
2.06023e-05
-6.08239e-18
8.57305e-22
-5.46197e-20
1.76813e-21
2.10301e-05
-6.08339e-18
8.37543e-22
-5.63728e-20
1.79792e-21
2.14646e-05
-6.08445e-18
8.17471e-22
-5.93257e-20
1.82724e-21
2.19061e-05
-6.08484e-18
7.97141e-22
-6.24769e-20
1.85743e-21
2.23547e-05
-6.08263e-18
7.76542e-22
-6.53275e-20
1.88739e-21
2.28104e-05
-6.08476e-18
7.56477e-22
-6.87237e-20
1.91613e-21
2.32735e-05
-6.08202e-18
7.37488e-22
-7.03246e-20
1.94452e-21
2.3744e-05
-6.08654e-18
7.18597e-22
-7.7154e-20
1.97189e-21
2.4222e-05
-6.09018e-18
7.01369e-22
-7.58628e-20
1.99917e-21
2.47078e-05
-6.08737e-18
6.84962e-22
-8.42602e-20
2.02438e-21
2.52015e-05
-6.08417e-18
6.68509e-22
-8.94387e-20
2.04961e-21
2.57031e-05
-6.08095e-18
6.51773e-22
-8.9662e-20
2.07521e-21
2.62128e-05
-6.07459e-18
6.33325e-22
-9.02243e-20
2.10085e-21
2.67308e-05
-6.07008e-18
6.15936e-22
-1.00347e-19
2.12425e-21
2.72573e-05
-6.06e-18
5.98293e-22
-1.05847e-19
2.14935e-21
2.77923e-05
-6.05128e-18
5.79205e-22
-1.16069e-19
2.17315e-21
2.83359e-05
-6.04301e-18
5.5772e-22
-1.20666e-19
2.19813e-21
2.88885e-05
-6.04037e-18
5.34798e-22
-1.26924e-19
2.22423e-21
2.94501e-05
-6.04199e-18
5.12397e-22
-1.31267e-19
2.24998e-21
3.00208e-05
-6.0412e-18
4.90466e-22
-1.33269e-19
2.27393e-21
3.06009e-05
-6.03266e-18
4.68105e-22
-1.4031e-19
2.29543e-21
3.11904e-05
-6.03087e-18
4.43674e-22
-1.39282e-19
2.31839e-21
3.17896e-05
-6.02029e-18
4.16336e-22
-1.42434e-19
2.34007e-21
3.23986e-05
-5.9998e-18
3.81069e-22
-1.54579e-19
2.36496e-21
3.30176e-05
-5.99446e-18
3.33693e-22
-1.57502e-19
2.39734e-21
3.36468e-05
-5.98612e-18
2.84314e-22
-1.68908e-19
2.43162e-21
3.42862e-05
-5.99718e-18
2.26797e-22
-1.64763e-19
2.47495e-21
3.49362e-05
-6.00017e-18
1.68907e-22
-1.55353e-19
2.51918e-21
3.55969e-05
-5.99315e-18
1.09813e-22
-1.62773e-19
2.55918e-21
3.62684e-05
-5.99378e-18
4.58836e-23
-1.56022e-19
2.60088e-21
3.6951e-05
-5.99067e-18
-2.21835e-23
-1.59245e-19
2.63501e-21
3.76448e-05
-5.99167e-18
-9.70408e-23
-1.60516e-19
2.66703e-21
3.835e-05
-5.9971e-18
-1.73355e-22
-1.68128e-19
2.69862e-21
3.90668e-05
-5.99428e-18
-2.47603e-22
-1.62623e-19
2.73289e-21
3.97955e-05
-5.98778e-18
-3.23077e-22
-1.63164e-19
2.75763e-21
4.05362e-05
-5.97804e-18
-4.01827e-22
-1.6444e-19
2.77664e-21
4.12891e-05
-5.97644e-18
-4.77506e-22
-1.72328e-19
2.79153e-21
4.20544e-05
-5.9705e-18
-5.53624e-22
-1.83013e-19
2.80481e-21
4.28323e-05
-5.96131e-18
-6.3411e-22
-1.90607e-19
2.82348e-21
4.36231e-05
-5.94317e-18
-7.17915e-22
-2.05909e-19
2.85103e-21
4.4427e-05
-5.93358e-18
-8.07983e-22
-2.14561e-19
2.88613e-21
4.52441e-05
-5.92145e-18
-8.99921e-22
-2.25924e-19
2.91766e-21
4.60747e-05
-5.90711e-18
-9.93958e-22
-2.35238e-19
2.94667e-21
4.6919e-05
-5.89602e-18
-1.09278e-21
-2.51846e-19
2.9739e-21
4.77773e-05
-5.89415e-18
-1.18894e-21
-2.55657e-19
3.00315e-21
4.86498e-05
-5.88092e-18
-1.27753e-21
-2.71128e-19
3.02098e-21
4.95367e-05
-5.87221e-18
-1.36422e-21
-2.79574e-19
3.03632e-21
5.04383e-05
-5.85557e-18
-1.45027e-21
-2.94018e-19
3.04367e-21
5.13548e-05
-5.81996e-18
-1.5423e-21
-3.14274e-19
3.04577e-21
5.22864e-05
-5.80142e-18
-1.65784e-21
-3.29526e-19
3.06123e-21
5.32335e-05
-5.80716e-18
-1.78712e-21
-3.33495e-19
3.07749e-21
5.41962e-05
-5.80042e-18
-1.92277e-21
-3.41981e-19
3.08616e-21
5.51748e-05
-5.79298e-18
-2.06287e-21
-3.49e-19
3.10321e-21
5.61697e-05
-5.77601e-18
-2.21615e-21
-3.56288e-19
3.12368e-21
5.7181e-05
-5.75486e-18
-2.3812e-21
-3.69599e-19
3.13926e-21
5.8209e-05
-5.73253e-18
-2.55238e-21
-3.82595e-19
3.15907e-21
5.9254e-05
-5.7258e-18
-2.72283e-21
-3.98461e-19
3.18505e-21
6.03163e-05
-5.72971e-18
-2.89585e-21
-4.09119e-19
3.21995e-21
6.13962e-05
-5.69966e-18
-3.06135e-21
-4.49163e-19
3.25745e-21
6.2494e-05
-5.67913e-18
-3.25328e-21
-4.86543e-19
3.30791e-21
6.36099e-05
-5.66965e-18
-3.45582e-21
-4.94173e-19
3.37562e-21
6.47443e-05
-5.66887e-18
-3.64581e-21
-4.94256e-19
3.423e-21
6.58975e-05
-5.66855e-18
-3.84097e-21
-5.16999e-19
3.46148e-21
6.70697e-05
-5.65868e-18
-4.03214e-21
-5.30744e-19
3.51404e-21
6.82614e-05
-5.64863e-18
-4.2315e-21
-5.52259e-19
3.55414e-21
6.94727e-05
-5.63912e-18
-4.43577e-21
-5.62946e-19
3.58283e-21
7.07041e-05
-5.62232e-18
-4.64442e-21
-5.74826e-19
3.61395e-21
7.19558e-05
-5.61009e-18
-4.84711e-21
-5.88068e-19
3.63207e-21
7.32283e-05
-5.59454e-18
-5.04901e-21
-6.27982e-19
3.63163e-21
7.45218e-05
-5.57267e-18
-5.20239e-21
-6.39711e-19
3.63054e-21
7.58366e-05
-5.56334e-18
-5.36031e-21
-6.6646e-19
3.63275e-21
7.71732e-05
-5.54959e-18
-5.49268e-21
-6.77717e-19
3.6208e-21
7.85319e-05
-5.5159e-18
-5.60713e-21
-7.24963e-19
3.56559e-21
7.99131e-05
-5.49822e-18
-5.72564e-21
-7.41717e-19
3.56226e-21
8.13171e-05
-5.46237e-18
-5.82915e-21
-7.67422e-19
3.56199e-21
8.27442e-05
-5.43935e-18
-5.95169e-21
-7.99516e-19
3.53468e-21
8.4195e-05
-5.41048e-18
-6.05534e-21
-8.04092e-19
3.50782e-21
8.56697e-05
-5.39543e-18
-6.17363e-21
-8.30181e-19
3.42957e-21
8.71688e-05
-5.36889e-18
-6.28586e-21
-8.58464e-19
3.36484e-21
8.86926e-05
-5.34323e-18
-6.41722e-21
-8.79523e-19
3.32192e-21
9.02416e-05
-5.31184e-18
-6.56762e-21
-9.08054e-19
3.24143e-21
9.18162e-05
-5.27586e-18
-6.74666e-21
-9.49946e-19
3.18124e-21
9.34167e-05
-5.24778e-18
-6.95015e-21
-9.8186e-19
3.15365e-21
9.50437e-05
-5.22065e-18
-7.14002e-21
-1.02391e-18
3.11574e-21
9.66975e-05
-5.1943e-18
-7.33204e-21
-1.05202e-18
3.09645e-21
9.83786e-05
-5.1733e-18
-7.52754e-21
-1.07458e-18
3.08723e-21
0.000100087
-5.13999e-18
-7.69429e-21
-1.09173e-18
3.05597e-21
0.000101824
-5.10013e-18
-7.87715e-21
-1.12745e-18
2.96934e-21
0.00010359
-5.06475e-18
-8.10842e-21
-1.15755e-18
2.92127e-21
0.000105385
-5.03508e-18
-8.34164e-21
-1.18596e-18
2.86374e-21
0.000107209
-4.97962e-18
-8.55951e-21
-1.23458e-18
2.76183e-21
0.000109063
-4.95029e-18
-8.86616e-21
-1.26095e-18
2.68035e-21
0.000110948
-4.91098e-18
-9.09055e-21
-1.30548e-18
2.58519e-21
0.000112864
-4.85702e-18
-9.31298e-21
-1.33538e-18
2.43417e-21
0.000114811
-4.81692e-18
-9.5771e-21
-1.37863e-18
2.25778e-21
0.000116791
-4.74665e-18
-9.83693e-21
-1.41268e-18
2.14151e-21
0.000118803
-4.72344e-18
-1.01391e-20
-1.43212e-18
1.96705e-21
0.000120848
-4.68013e-18
-1.03536e-20
-1.45506e-18
1.72934e-21
0.000122927
-4.6385e-18
-1.05851e-20
-1.50759e-18
1.49751e-21
0.00012504
-4.59784e-18
-1.08362e-20
-1.51427e-18
1.39039e-21
0.000127187
-4.52857e-18
-1.10599e-20
-1.52988e-18
1.1747e-21
0.00012937
-4.49039e-18
-1.13681e-20
-1.5765e-18
8.92008e-22
0.000131589
-4.44023e-18
-1.16537e-20
-1.59747e-18
7.77056e-22
0.000133844
-4.38242e-18
-1.1945e-20
-1.63403e-18
5.69252e-22
0.000136137
-4.35145e-18
-1.21497e-20
-1.65041e-18
2.59792e-22
0.000138466
-4.30658e-18
-1.2358e-20
-1.67547e-18
-7.48909e-23
0.000140834
-4.25164e-18
-1.24098e-20
-1.70399e-18
-5.20107e-22
0.000143241
-4.19456e-18
-1.24539e-20
-1.73746e-18
-9.67061e-22
0.000145688
-4.17459e-18
-1.24442e-20
-1.7322e-18
-1.43213e-21
0.000148174
-4.11079e-18
-1.23833e-20
-1.76339e-18
-1.95632e-21
0.000150701
-4.05812e-18
-1.22614e-20
-1.78756e-18
-2.44014e-21
0.000153269
-3.99103e-18
-1.20326e-20
-1.81535e-18
-2.82993e-21
0.00015588
-3.95384e-18
-1.19553e-20
-1.82949e-18
-3.25659e-21
0.000158533
-3.89646e-18
-1.19402e-20
-1.84033e-18
-3.73092e-21
0.00016123
-3.81975e-18
-1.19252e-20
-1.86959e-18
-4.02447e-21
0.00016397
-3.76933e-18
-1.19468e-20
-1.88906e-18
-4.19094e-21
0.000166756
-3.72258e-18
-1.19267e-20
-1.89712e-18
-4.48984e-21
0.000169587
-3.67283e-18
-1.20237e-20
-1.90348e-18
-4.6903e-21
0.000172464
-3.62115e-18
-1.21633e-20
-1.96056e-18
-5.01359e-21
0.000175388
-3.56783e-18
-1.25391e-20
-1.95164e-18
-5.21228e-21
0.00017836
-3.54385e-18
-1.28921e-20
-1.98654e-18
-5.68157e-21
0.00018138
-3.48776e-18
-1.30207e-20
-2.04491e-18
-6.01778e-21
0.000184449
-3.46116e-18
-1.33981e-20
-2.07614e-18
-6.03865e-21
0.000187568
-3.43602e-18
-1.37925e-20
-2.10281e-18
-6.13827e-21
0.000190738
-3.39375e-18
-1.41797e-20
-2.1271e-18
-6.20298e-21
0.00019396
-3.37594e-18
-1.47937e-20
-2.16457e-18
-6.19138e-21
0.000197234
-3.35679e-18
-1.53661e-20
-2.18899e-18
-6.15983e-21
0.000200561
-3.36751e-18
-1.58525e-20
-2.18923e-18
-6.31944e-21
0.000203943
-3.34224e-18
-1.63123e-20
-2.18078e-18
-6.55242e-21
0.000207379
-3.29732e-18
-1.67522e-20
-2.18484e-18
-6.8848e-21
0.00021087
-3.26938e-18
-1.71777e-20
-2.16344e-18
-7.14738e-21
0.000214419
-3.23913e-18
-1.75129e-20
-2.18143e-18
-7.72813e-21
0.000218025
-3.22209e-18
-1.77716e-20
-2.15187e-18
-8.36996e-21
0.000221689
-3.19526e-18
-1.79444e-20
-2.17995e-18
-9.29114e-21
0.000225413
-3.16959e-18
-1.82395e-20
-2.17441e-18
-9.8432e-21
0.000229196
-3.13196e-18
-1.86687e-20
-2.17073e-18
-1.0167e-20
0.000233041
-3.10323e-18
-1.91574e-20
-2.14102e-18
-1.06753e-20
0.000236948
-3.05417e-18
-1.93989e-20
-2.1574e-18
-1.15168e-20
0.000240918
-3.07831e-18
-1.9946e-20
-2.11821e-18
-1.20634e-20
0.000244952
-3.01542e-18
-2.00021e-20
-2.13657e-18
-1.25316e-20
0.000249051
-2.90154e-18
-2.02663e-20
-2.19703e-18
-1.26887e-20
0.000253216
-2.8507e-18
-2.06551e-20
-2.21203e-18
-1.29488e-20
0.000257447
-2.76338e-18
-2.11335e-20
-2.21197e-18
-1.3267e-20
0.000261747
-2.72164e-18
-2.20746e-20
-2.20092e-18
-1.37105e-20
0.000266116
-2.61996e-18
-2.2587e-20
-2.13755e-18
-1.39269e-20
0.000270555
-2.58881e-18
-2.33309e-20
-2.19414e-18
-1.45136e-20
0.000275065
-2.68019e-18
-2.40284e-20
-2.11881e-18
-1.41086e-20
0.000279647
-2.5674e-18
-2.30072e-20
-2.1854e-18
-1.52801e-20
0.000284302
-2.53084e-18
-2.29393e-20
-2.1554e-18
-1.54145e-20
0.000289031
-2.48941e-18
-2.25148e-20
-2.13583e-18
-1.62345e-20
0.000293837
-2.41979e-18
-2.24467e-20
-2.13461e-18
-1.69252e-20
0.000298718
-2.38147e-18
-2.2673e-20
-2.15404e-18
-1.8251e-20
0.000303677
-2.37622e-18
-2.31973e-20
-2.1424e-18
-1.95767e-20
0.000308715
-2.30522e-18
-2.2787e-20
-2.11819e-18
-2.11174e-20
0.000313834
-2.27345e-18
-2.3701e-20
-2.0752e-18
-2.27518e-20
0.000319033
-2.26885e-18
-2.56549e-20
-2.11303e-18
-2.40596e-20
0.000324314
-2.19743e-18
-2.69477e-20
-2.11212e-18
-2.26382e-20
0.000329679
-2.24315e-18
-2.85217e-20
-2.11654e-18
-2.16989e-20
0.000335129
-2.17577e-18
-2.83665e-20
-2.04571e-18
-2.09949e-20
0.000340664
-2.20821e-18
-2.88443e-20
-1.98834e-18
-2.14387e-20
0.000346287
-2.07328e-18
-2.75423e-20
-1.99655e-18
-2.24834e-20
0.000351998
-2.02007e-18
-2.8599e-20
-1.96301e-18
-2.32231e-20
0.000357799
-1.98696e-18
-2.85344e-20
-1.96315e-18
-2.36429e-20
0.00036369
-1.92164e-18
-2.86831e-20
-1.94257e-18
-2.36418e-20
0.000369673
-1.86501e-18
-2.86476e-20
-1.91623e-18
-2.24213e-20
0.00037575
-1.86892e-18
-2.87901e-20
-1.8959e-18
-2.2537e-20
0.000381922
-1.79687e-18
-2.84516e-20
-1.8986e-18
-2.26404e-20
0.000388189
-1.8588e-18
-2.96647e-20
-1.80611e-18
-2.24024e-20
0.000394553
-1.8383e-18
-2.8832e-20
-1.79323e-18
-2.32855e-20
0.000401016
-1.78062e-18
-2.87486e-20
-1.74956e-18
-2.31541e-20
0.000407578
-1.79854e-18
-2.60324e-20
-1.75525e-18
-2.43332e-20
0.000414242
-1.72692e-18
-2.40655e-20
-1.71636e-18
-2.40333e-20
0.000421008
-1.72876e-18
-2.31517e-20
-1.72106e-18
-2.5027e-20
0.000427877
-1.68214e-18
-2.1577e-20
-1.66995e-18
-2.39597e-20
0.000434851
-1.80741e-18
-1.97462e-20
-1.6787e-18
-2.34772e-20
0.000441931
-1.77783e-18
-1.43617e-20
-1.56925e-18
-2.11724e-20
0.000449119
-1.64036e-18
-8.57381e-21
-1.6509e-18
-2.37659e-20
0.000456415
-1.67001e-18
-8.27626e-21
-1.62262e-18
-2.40617e-20
0.000463821
-1.53826e-18
-6.6982e-21
-1.68343e-18
-2.26939e-20
0.000471339
-1.57661e-18
-8.09068e-21
-1.6552e-18
-1.77733e-20
0.000478969
-1.53334e-18
-9.63915e-21
-1.65378e-18
-1.56043e-20
0.000486712
-1.54189e-18
-1.13447e-20
-1.64687e-18
-1.88953e-20
0.00049457
-1.47297e-18
-1.35884e-20
-1.60622e-18
-2.12592e-20
0.000502544
-1.5223e-18
-1.78676e-20
-1.51166e-18
-2.23964e-20
0.000510635
-1.51543e-18
-1.99095e-20
-1.48779e-18
-2.66451e-20
0.000518845
-1.52137e-18
-2.42143e-20
-1.46079e-18
-2.56889e-20
0.000527173
-1.55473e-18
-2.39883e-20
-1.39216e-18
-2.38346e-20
0.000535622
-1.35215e-18
-1.88926e-20
-1.37466e-18
-2.24039e-20
0.000544193
-1.28599e-18
-1.72386e-20
-1.30712e-18
-1.9037e-20
0.000552885
-1.28983e-18
-1.67178e-20
-1.3293e-18
-1.57963e-20
0.0005617
-1.33373e-18
-1.03283e-20
-1.20013e-18
-1.03768e-20
0.00057064
-1.08484e-18
1.72338e-21
-1.17256e-18
-1.01777e-20
0.000579704
-1.1237e-18
4.69172e-21
-1.13533e-18
-7.08885e-21
0.000588893
-1.09682e-18
1.63386e-20
-1.17434e-18
-7.50453e-21
0.000598207
-1.01034e-18
1.46342e-20
-1.10455e-18
-8.85424e-21
0.000607648
-1.06447e-18
2.2679e-21
-9.94271e-19
-4.99626e-21
0.000617216
-1.14546e-18
-2.26262e-22
-1.01176e-18
-5.89505e-21
0.00062691
-1.06009e-18
4.62601e-22
-9.91417e-19
-7.48243e-21
0.000636731
-9.86078e-19
-5.38588e-21
-1.00628e-18
-1.08076e-20
0.000646678
-1.11017e-18
-1.51791e-20
-1.02546e-18
-1.25705e-20
0.000656752
-1.09186e-18
-1.72715e-20
-1.0231e-18
-1.4951e-20
0.000666952
-1.07032e-18
-1.04662e-20
-1.01809e-18
-1.89394e-20
0.000677277
-1.00259e-18
-3.41736e-21
-1.01177e-18
-2.19257e-20
0.000687727
-1.03831e-18
-4.65988e-21
-9.62652e-19
-1.27728e-20
0.0006983
-8.82696e-19
2.65894e-21
-1.04786e-18
-3.5587e-21
0.000708995
-8.27587e-19
2.47944e-21
-9.94667e-19
7.83739e-21
0.000719811
-9.79568e-19
-4.61889e-21
-1.0373e-18
1.16248e-20
0.000730745
-9.99911e-19
2.82699e-21
-8.1344e-19
1.42687e-20
0.000741796
-1.00687e-18
-4.18167e-22
-8.79047e-19
3.06579e-21
0.00075296
-9.44333e-19
1.07647e-21
-9.32754e-19
-4.89504e-23
0.000764237
-9.27339e-19
-5.12506e-21
-8.43458e-19
4.57615e-21
0.000775622
-8.39295e-19
2.70287e-21
-8.77716e-19
-8.36772e-22
0.000787112
-7.99055e-19
2.57172e-21
-8.24601e-19
-1.27892e-21
0.000798704
-8.23522e-19
-5.37733e-21
-8.23487e-19
-1.14403e-20
0.000810394
-4.59827e-21
-7.87479e-19
-2.2415e-20
-8.03251e-19
1.62867e-08
5.02176e-23
6.90407e-23
4.98059e-08
2.99845e-22
2.05524e-22
8.47824e-08
5.55609e-22
3.58123e-22
1.21266e-07
8.41129e-22
4.89343e-22
1.59306e-07
1.1631e-21
6.26812e-22
1.98957e-07
1.44302e-21
7.77898e-22
2.40272e-07
1.74478e-21
9.37081e-22
2.83307e-07
2.02385e-21
1.19335e-21
3.28119e-07
2.34365e-21
1.3836e-21
3.74769e-07
2.72592e-21
1.55311e-21
4.23316e-07
3.07255e-21
1.76233e-21
4.73824e-07
3.41528e-21
1.96278e-21
5.26357e-07
3.72161e-21
2.14339e-21
5.80982e-07
4.13454e-21
2.42783e-21
6.37769e-07
4.46915e-21
2.65135e-21
6.96786e-07
5.04749e-21
2.92291e-21
7.58107e-07
5.41887e-21
3.26674e-21
8.21805e-07
5.65147e-21
3.61527e-21
8.87958e-07
6.32073e-21
4.00557e-21
9.56642e-07
6.92117e-21
4.43653e-21
1.02794e-06
7.79854e-21
4.59997e-21
1.10193e-06
8.31991e-21
4.55318e-21
1.17869e-06
8.96104e-21
4.83064e-21
1.25832e-06
9.23259e-21
5.01029e-21
1.34089e-06
9.43857e-21
5.51801e-21
1.42649e-06
9.92766e-21
5.88707e-21
1.5152e-06
1.0171e-20
6.14245e-21
1.60712e-06
1.05108e-20
6.54764e-21
1.70233e-06
1.10833e-20
7.05331e-21
1.80091e-06
1.18053e-20
7.53335e-21
1.90294e-06
1.24399e-20
8.1351e-21
2.00852e-06
1.30199e-20
8.66922e-21
2.1177e-06
1.38063e-20
9.24586e-21
2.23058e-06
1.4275e-20
9.86479e-21
2.34721e-06
1.48489e-20
1.03319e-20
2.46767e-06
1.52589e-20
1.15125e-20
2.592e-06
1.60783e-20
1.20103e-20
2.72026e-06
1.66391e-20
1.30003e-20
2.85249e-06
1.78727e-20
1.31323e-20
2.98873e-06
1.84592e-20
1.39701e-20
3.129e-06
1.98099e-20
1.46712e-20
3.27331e-06
2.01945e-20
1.51598e-20
3.42168e-06
2.09711e-20
1.67613e-20
3.5741e-06
2.20555e-20
1.62564e-20
3.73055e-06
2.29436e-20
1.7911e-20
3.89103e-06
2.35625e-20
1.8329e-20
4.05549e-06
2.39094e-20
1.99419e-20
4.2239e-06
2.4739e-20
2.12828e-20
4.39623e-06
2.50604e-20
2.3276e-20
4.57242e-06
2.50997e-20
2.48084e-20
4.75243e-06
2.61199e-20
2.53844e-20
4.9362e-06
2.67463e-20
2.66025e-20
5.12369e-06
2.7182e-20
2.75345e-20
5.31483e-06
2.75964e-20
2.87387e-20
5.50959e-06
2.82504e-20
3.03668e-20
5.70791e-06
2.88939e-20
3.2271e-20
5.90975e-06
2.88852e-20
3.24984e-20
6.11508e-06
3.01472e-20
3.3351e-20
6.32385e-06
3.2017e-20
3.42023e-20
6.53605e-06
3.17722e-20
3.51684e-20
6.75164e-06
3.26645e-20
3.61515e-20
6.97062e-06
3.55542e-20
3.4967e-20
7.19298e-06
3.70311e-20
3.63574e-20
7.41872e-06
3.79551e-20
3.68212e-20
7.64784e-06
4.03119e-20
3.76838e-20
7.88035e-06
4.14171e-20
4.00699e-20
8.11626e-06
4.01723e-20
4.19538e-20
8.35561e-06
4.12699e-20
4.23593e-20
8.59843e-06
4.18978e-20
4.6187e-20
8.84473e-06
4.5359e-20
4.60204e-20
9.09457e-06
4.65239e-20
4.63061e-20
9.34799e-06
4.77912e-20
4.59606e-20
9.60503e-06
4.86024e-20
4.59576e-20
9.86574e-06
5.1682e-20
4.66419e-20
1.01302e-05
5.35694e-20
4.78194e-20
1.03984e-05
5.53404e-20
5.02635e-20
1.06705e-05
5.7508e-20
5.12426e-20
1.09465e-05
5.91435e-20
5.30761e-20
1.12265e-05
6.14428e-20
5.4553e-20
1.15106e-05
6.16659e-20
5.46479e-20
1.17988e-05
6.26902e-20
5.70779e-20
1.20912e-05
6.20935e-20
5.80978e-20
1.23879e-05
6.47244e-20
5.88189e-20
1.26889e-05
6.42303e-20
6.06464e-20
1.29944e-05
6.50979e-20
6.16747e-20
1.33044e-05
6.70189e-20
6.24785e-20
1.36191e-05
6.81995e-20
6.42935e-20
1.39385e-05
7.06851e-20
6.58053e-20
1.42626e-05
6.78723e-20
7.11789e-20
1.45917e-05
6.7085e-20
7.65324e-20
1.49257e-05
6.83589e-20
7.83917e-20
1.52648e-05
6.82497e-20
8.06286e-20
1.56091e-05
6.61561e-20
8.61362e-20
1.59586e-05
6.90964e-20
8.49016e-20
1.63136e-05
6.92417e-20
7.9919e-20
1.6674e-05
7.0645e-20
8.17483e-20
1.70399e-05
7.34285e-20
8.22942e-20
1.74116e-05
7.29634e-20
8.65358e-20
1.7789e-05
7.90986e-20
8.99265e-20
1.81724e-05
8.01857e-20
9.58577e-20
1.85617e-05
8.74298e-20
9.56857e-20
1.89571e-05
8.74316e-20
9.82584e-20
1.93588e-05
8.69724e-20
1.02764e-19
1.97668e-05
9.26161e-20
1.06127e-19
2.01813e-05
9.40767e-20
1.11513e-19
2.06023e-05
9.69226e-20
1.12594e-19
2.10301e-05
9.85005e-20
1.13903e-19
2.14646e-05
9.98495e-20
1.20711e-19
2.19061e-05
1.00764e-19
1.20792e-19
2.23547e-05
1.05266e-19
1.19534e-19
2.28104e-05
1.06293e-19
1.21538e-19
2.32735e-05
1.08873e-19
1.23052e-19
2.3744e-05
1.11329e-19
1.25977e-19
2.4222e-05
1.09921e-19
1.26813e-19
2.47078e-05
1.11082e-19
1.28114e-19
2.52015e-05
1.10498e-19
1.35629e-19
2.57031e-05
1.03893e-19
1.46501e-19
2.62128e-05
1.10456e-19
1.45222e-19
2.67308e-05
1.09348e-19
1.50102e-19
2.72573e-05
1.12703e-19
1.49784e-19
2.77923e-05
1.12873e-19
1.52503e-19
2.83359e-05
1.15021e-19
1.61635e-19
2.88885e-05
1.17929e-19
1.68833e-19
2.94501e-05
1.17613e-19
1.72195e-19
3.00208e-05
1.18657e-19
1.74144e-19
3.06009e-05
1.21809e-19
1.84804e-19
3.11904e-05
1.1477e-19
1.92777e-19
3.17896e-05
1.04758e-19
2.04299e-19
3.23986e-05
9.6782e-20
2.09488e-19
3.30176e-05
1.044e-19
2.041e-19
3.36468e-05
9.80866e-20
2.13236e-19
3.42862e-05
9.2738e-20
2.18272e-19
3.49362e-05
9.28357e-20
2.18214e-19
3.55969e-05
9.4203e-20
2.17917e-19
3.62684e-05
9.02041e-20
2.14683e-19
3.6951e-05
8.74883e-20
2.2018e-19
3.76448e-05
9.60475e-20
2.26796e-19
3.835e-05
1.02813e-19
2.31178e-19
3.90668e-05
1.05859e-19
2.27575e-19
3.97955e-05
1.07702e-19
2.27708e-19
4.05362e-05
1.23752e-19
2.25197e-19
4.12891e-05
1.23222e-19
2.25146e-19
4.20544e-05
1.18114e-19
2.3481e-19
4.28323e-05
1.15556e-19
2.45535e-19
4.36231e-05
1.14568e-19
2.51089e-19
4.4427e-05
1.11659e-19
2.48139e-19
4.52441e-05
1.11963e-19
2.46044e-19
4.60747e-05
1.11078e-19
2.47593e-19
4.6919e-05
1.1381e-19
2.4814e-19
4.77773e-05
1.10279e-19
2.47721e-19
4.86498e-05
1.11158e-19
2.49369e-19
4.95367e-05
1.08364e-19
2.50315e-19
5.04383e-05
1.0718e-19
2.50526e-19
5.13548e-05
1.07893e-19
2.62754e-19
5.22864e-05
1.12991e-19
2.63404e-19
5.32335e-05
1.05064e-19
2.64729e-19
5.41962e-05
1.11797e-19
2.72961e-19
5.51748e-05
1.07942e-19
2.75251e-19
5.61697e-05
1.08449e-19
2.78449e-19
5.7181e-05
1.08209e-19
2.84442e-19
5.8209e-05
1.12867e-19
2.80885e-19
5.9254e-05
1.01416e-19
2.86477e-19
6.03163e-05
9.97834e-20
3.0328e-19
6.13962e-05
1.05779e-19
3.02591e-19
6.2494e-05
1.14175e-19
3.08421e-19
6.36099e-05
1.27578e-19
3.07705e-19
6.47443e-05
1.19471e-19
3.30436e-19
6.58975e-05
1.2248e-19
3.49909e-19
6.70697e-05
1.20932e-19
3.50275e-19
6.82614e-05
1.17483e-19
3.39699e-19
6.94727e-05
1.08787e-19
3.43404e-19
7.07041e-05
1.14171e-19
3.40211e-19
7.19558e-05
1.05978e-19
3.41541e-19
7.32283e-05
1.35139e-19
3.28621e-19
7.45218e-05
1.30377e-19
3.37074e-19
7.58366e-05
1.34992e-19
3.25479e-19
7.71732e-05
1.32693e-19
3.25065e-19
7.85319e-05
1.34765e-19
3.42098e-19
7.99131e-05
1.36559e-19
3.50171e-19
8.13171e-05
1.30116e-19
3.51443e-19
8.27442e-05
1.36716e-19
3.67419e-19
8.4195e-05
1.38774e-19
3.6165e-19
8.56697e-05
1.40302e-19
3.62828e-19
8.71688e-05
1.29715e-19
3.72112e-19
8.86926e-05
1.15189e-19
3.58613e-19
9.02416e-05
9.79667e-20
3.63171e-19
9.18162e-05
8.40547e-20
3.62682e-19
9.34167e-05
7.85882e-20
3.57668e-19
9.50437e-05
6.48477e-20
3.60972e-19
9.66975e-05
5.46634e-20
3.72015e-19
9.83786e-05
6.06001e-20
3.76772e-19
0.000100087
5.64226e-20
3.73467e-19
0.000101824
4.15262e-20
3.88452e-19
0.00010359
4.4812e-20
3.87882e-19
0.000105385
4.85056e-20
3.83819e-19
0.000107209
3.17343e-20
3.85475e-19
0.000109063
5.45209e-20
3.99711e-19
0.000110948
5.53206e-20
3.9277e-19
0.000112864
6.50801e-20
3.98323e-19
0.000114811
7.90849e-20
4.14365e-19
0.000116791
1.00754e-19
4.01497e-19
0.000118803
1.19351e-19
3.96138e-19
0.000120848
1.18223e-19
3.96937e-19
0.000122927
1.11605e-19
3.92547e-19
0.00012504
1.18147e-19
3.6551e-19
0.000127187
1.16517e-19
3.53772e-19
0.00012937
1.15202e-19
3.78527e-19
0.000131589
1.17477e-19
3.55975e-19
0.000133844
1.54434e-19
3.13451e-19
0.000136137
1.3295e-19
3.00898e-19
0.000138466
1.57095e-19
2.80557e-19
0.000140834
1.36246e-19
2.97491e-19
0.000143241
1.2806e-19
2.8545e-19
0.000145688
8.88904e-20
2.99732e-19
0.000148174
9.79006e-20
2.97826e-19
0.000150701
1.0413e-19
3.13189e-19
0.000153269
7.26248e-20
3.02777e-19
0.00015588
3.47499e-20
2.92882e-19
0.000158533
2.55438e-20
3.16305e-19
0.00016123
3.68261e-20
3.32928e-19
0.00016397
5.20167e-20
3.31044e-19
0.000166756
4.17159e-20
3.58076e-19
0.000169587
5.1893e-20
3.44822e-19
0.000172464
3.27908e-20
3.63399e-19
0.000175388
6.30769e-20
3.41448e-19
0.00017836
8.33494e-20
3.10557e-19
0.00018138
4.98929e-20
3.09182e-19
0.000184449
3.60091e-20
2.85257e-19
0.000187568
2.76867e-20
2.71269e-19
0.000190738
5.02946e-21
2.50161e-19
0.00019396
-2.154e-22
2.1363e-19
0.000197234
-8.3492e-21
1.8132e-19
0.000200561
-5.3817e-20
1.94685e-19
0.000203943
-6.33461e-20
1.90929e-19
0.000207379
-5.76769e-20
1.77172e-19
0.00021087
-5.44937e-20
1.44856e-19
0.000214419
-4.54182e-20
1.28932e-19
0.000218025
-5.14932e-20
1.3244e-19
0.000221689
-7.69176e-20
1.2048e-19
0.000225413
-9.96462e-20
1.14969e-19
0.000229196
-1.10523e-19
9.29024e-20
0.000233041
-1.02849e-19
6.21811e-20
0.000236948
-1.18555e-19
5.64727e-20
0.000240918
-1.21267e-19
8.63352e-20
0.000244952
-1.33297e-19
6.96576e-20
0.000249051
-9.70761e-20
2.51389e-20
0.000253216
-1.19825e-19
1.55698e-20
0.000257447
-1.30486e-19
-5.88245e-20
0.000261747
-1.18562e-19
-7.3856e-20
0.000266116
-1.11512e-19
-7.9678e-20
0.000270555
-1.2066e-19
-8.56074e-20
0.000275065
-1.08447e-19
-1.59528e-19
0.000279647
-1.23175e-19
-1.72559e-19
0.000284302
-1.13577e-19
-2.25484e-19
0.000289031
-1.54932e-19
-1.87572e-19
0.000293837
-1.41121e-19
-2.10548e-19
0.000298718
-1.57786e-19