/*--------------------------------*- C++ -*----------------------------------*\
| =========                 |                                                 |
| \\      /  F ield         | OpenFOAM: The Open Source CFD Toolbox           |
|  \\    /   O peration     | Version:  2012                                  |
|   \\  /    A nd           | Website:  www.openfoam.com                      |
|    \\/     M anipulation  |                                                 |
\*---------------------------------------------------------------------------*/
FoamFile
{
    version     2.0;
    format      ascii;
    class       surfaceScalarField;
    location    "17000";
    object      phi;
}
// * * * * * * * * * * * * * * * * * * * * * * * * * * * * * * * * * * * * * //

dimensions      [0 3 -1 0 0 0 0];
oriented        oriented;


internalField   nonuniform List<scalar> 
1276
(
2.73628e-07
-7.22256e-18
-7.57973e-22
-5.44655e-21
1.17276e-21
8.87228e-07
-7.22306e-18
2.12321e-21
-9.40097e-21
2.57877e-21
1.61109e-06
-7.22319e-18
2.3768e-21
-1.41425e-20
3.06233e-21
2.46084e-06
-7.22333e-18
2.44455e-21
-1.96254e-20
3.63163e-21
3.45403e-06
-7.22224e-18
2.54592e-21
-2.81724e-20
4.29948e-21
4.61029e-06
-7.2198e-18
2.6611e-21
-3.77203e-20
5.07929e-21
5.95117e-06
-7.21547e-18
2.76143e-21
-5.09786e-20
5.98252e-21
7.4994e-06
-7.20896e-18
2.83709e-21
-6.58597e-20
7.01452e-21
9.27746e-06
-7.20086e-18
2.88136e-21
-8.54856e-20
8.16675e-21
1.13049e-05
-7.19093e-18
2.882e-21
-1.08162e-19
9.40923e-21
1.35946e-05
-7.17277e-18
2.82186e-21
-1.374e-19
1.06876e-20
1.61502e-05
-7.14955e-18
2.68446e-21
-1.68495e-19
1.1928e-20
1.8965e-05
-7.12988e-18
2.46341e-21
-2.07054e-19
1.30595e-20
2.20253e-05
-7.1095e-18
2.16578e-21
-2.47323e-19
1.40406e-20
2.53162e-05
-7.08119e-18
1.80331e-21
-2.89102e-19
1.48629e-20
2.88265e-05
-7.04767e-18
1.38538e-21
-3.38044e-19
1.55462e-20
3.25522e-05
-7.01925e-18
9.22468e-22
-3.75191e-19
1.61363e-20
3.64964e-05
-6.98411e-18
4.28463e-22
-4.30358e-19
1.66624e-20
4.06683e-05
-6.94732e-18
-9.94309e-23
-4.80081e-19
1.71676e-20
4.50821e-05
-6.90756e-18
-6.46035e-22
-5.47228e-19
1.76602e-20
4.97556e-05
-6.86324e-18
-1.22012e-21
-6.05904e-19
1.81888e-20
5.4709e-05
-6.80473e-18
-1.84407e-21
-6.72229e-19
1.87535e-20
5.99648e-05
-6.76174e-18
-2.53474e-21
-7.48113e-19
1.93364e-20
6.55471e-05
-6.72148e-18
-3.28759e-21
-8.21382e-19
1.99806e-20
7.14817e-05
-6.66394e-18
-4.0839e-21
-9.00117e-19
2.06778e-20
7.77959e-05
-6.58475e-18
-4.95081e-21
-9.90123e-19
2.1431e-20
8.45187e-05
-6.51015e-18
-5.9133e-21
-1.07809e-18
2.22549e-20
9.16805e-05
-6.43507e-18
-7.03523e-21
-1.14223e-18
2.30539e-20
9.93139e-05
-6.35107e-18
-8.16193e-21
-1.22403e-18
2.36744e-20
0.000107453
-6.26315e-18
-9.2789e-21
-1.32415e-18
2.41461e-20
0.000116134
-6.16758e-18
-1.06033e-20
-1.43512e-18
2.45664e-20
0.000125395
-6.05285e-18
-1.21697e-20
-1.54749e-18
2.49112e-20
0.000135277
-5.97668e-18
-1.40368e-20
-1.68346e-18
2.51305e-20
0.000145824
-5.88156e-18
-1.58827e-20
-1.7671e-18
2.53963e-20
0.000157081
-5.77647e-18
-1.79375e-20
-1.88406e-18
2.53465e-20
0.000169097
-5.66796e-18
-2.01568e-20
-2.00268e-18
2.4875e-20
0.000181924
-5.57387e-18
-2.25823e-20
-2.08572e-18
2.39088e-20
0.000195616
-5.44892e-18
-2.5244e-20
-2.21065e-18
2.18343e-20
0.000210233
-5.30121e-18
-2.77837e-20
-2.34684e-18
1.87715e-20
0.000225836
-5.07152e-18
-3.02657e-20
-2.47232e-18
1.47614e-20
0.000242492
-4.91299e-18
-3.44863e-20
-2.55932e-18
8.98584e-21
0.00026027
-4.67961e-18
-3.76019e-20
-2.72539e-18
7.86654e-22
0.000279245
-4.51111e-18
-4.20391e-20
-2.81163e-18
-7.41868e-21
0.000299496
-4.40649e-18
-4.75717e-20
-2.94747e-18
-1.55542e-20
0.000321108
-4.28285e-18
-5.22125e-20
-2.96616e-18
-2.32669e-20
0.00034417
-4.09759e-18
-5.74327e-20
-3.0368e-18
-3.23589e-20
0.000368776
-3.94672e-18
-6.24919e-20
-3.06313e-18
-4.17927e-20
0.000395028
-3.746e-18
-6.75789e-20
-3.07206e-18
-5.17087e-20
0.000423033
-3.61505e-18
-7.31692e-20
-3.08426e-18
-5.95703e-20
0.000452905
-3.50681e-18
-7.68255e-20
-3.04585e-18
-6.70357e-20
0.000484763
-3.41413e-18
-8.20357e-20
-3.0227e-18
-7.47213e-20
0.000518737
-3.16897e-18
-8.66221e-20
-2.91529e-18
-8.18896e-20
0.000554962
-3.10828e-18
-9.29075e-20
-2.90452e-18
-8.92385e-20
0.000593582
-3.06949e-18
-9.46321e-20
-2.83197e-18
-9.63536e-20
0.000634749
-2.8418e-18
-8.73279e-20
-2.84077e-18
-1.01702e-19
0.000678627
-2.73958e-18
-9.55551e-20
-2.74044e-18
-9.79845e-20
0.000725386
-2.55837e-18
-1.0657e-19
-2.65628e-18
-9.84475e-20
0.000775207
-2.54126e-18
-1.17878e-19
-2.45924e-18
-9.95878e-20
0.000828284
-2.42824e-18
-1.14742e-19
-2.46308e-18
-1.04594e-19
0.000884819
-2.2804e-18
-1.04114e-19
-2.36626e-18
-9.64535e-20
0.000945028
-2.37211e-18
-1.07542e-19
-2.32946e-18
-8.74106e-20
0.00100914
-2.24154e-18
-9.25528e-20
-2.28472e-18
-8.11269e-20
0.00107738
-2.21564e-18
-8.69225e-20
-2.13138e-18
-7.41216e-20
0.00115002
-2.05047e-18
-9.28322e-20
-2.07598e-18
-8.04801e-20
0.00122732
-2.06488e-18
-5.8696e-20
-2.06331e-18
-8.86868e-20
0.00130955
-1.98313e-18
-6.89461e-20
-1.97474e-18
-9.19393e-20
0.001397
-1.95031e-18
-8.82499e-20
-1.86413e-18
-1.04666e-19
0.00148998
-1.89266e-18
-9.44635e-20
-1.91307e-18
-8.57745e-20
0.0015888
-1.81103e-18
-1.51331e-19
-1.76756e-18
-4.72149e-20
0.00169379
-1.69889e-18
-3.28455e-20
-1.56794e-18
1.97636e-20
0.00180528
-1.48671e-18
4.4623e-20
-1.68942e-18
2.96544e-20
0.0019236
-1.45088e-18
5.62259e-20
-1.43637e-18
1.2198e-19
0.00204909
-1.6586e-18
5.89557e-20
-1.43541e-18
7.69214e-20
0.00218208
-1.09403e-18
1.14011e-19
-1.30444e-18
3.16986e-20
0.00232286
-1.19032e-18
-3.61442e-20
-1.13809e-18
-2.9805e-21
0.00247169
-1.05969e-18
5.40901e-20
-1.32418e-18
3.84224e-20
0.00262876
-1.24086e-18
-6.36881e-20
-1.24661e-18
1.29734e-19
0.00279416
-1.18854e-18
2.04685e-20
-1.13063e-18
1.91198e-19
0.00296779
-1.36474e-18
-7.20799e-20
-1.2336e-18
9.97483e-20
0.00314939
1.91764e-19
-1.05561e-18
1.2744e-19
-1.0935e-18
2.73628e-07
-2.71177e-22
7.34349e-22
8.87228e-07
2.44587e-21
2.99966e-21
1.61109e-06
5.34429e-21
5.69327e-21
2.46084e-06
8.19986e-21
8.64451e-21
3.45403e-06
1.134e-20
1.24691e-20
4.61029e-06
1.44526e-20
1.82638e-20
5.95117e-06
1.71696e-20
2.45986e-20
7.4994e-06
2.1139e-20
3.16327e-20
9.27746e-06
2.69348e-20
3.67128e-20
1.13049e-05
3.09581e-20
4.65317e-20
1.35946e-05
3.50263e-20
5.44009e-20
1.61502e-05
3.98789e-20
6.45318e-20
1.8965e-05
4.5606e-20
7.73934e-20
2.20253e-05
5.14026e-20
8.81633e-20
2.53162e-05
5.6562e-20
9.30751e-20
2.88265e-05
6.52824e-20
1.02005e-19
3.25522e-05
7.5558e-20
1.08225e-19
3.64964e-05
8.47607e-20
1.16857e-19
4.06683e-05
1.02805e-19
1.27095e-19
4.50821e-05
1.06916e-19
1.4806e-19
4.97556e-05
9.54999e-20
1.7679e-19
5.4709e-05
9.63499e-20
1.95079e-19
5.99648e-05
9.11761e-20
2.18995e-19
6.55471e-05
8.67606e-20
2.32761e-19
7.14817e-05
8.03937e-20
2.49022e-19
7.77959e-05
8.75617e-20
2.61672e-19
8.45187e-05
6.78363e-20
2.59356e-19
9.16805e-05
8.5994e-20
2.5757e-19
9.93139e-05
1.02678e-19
2.64445e-19
0.000107453
6.1638e-20
2.94438e-19
0.000116134
2.85379e-20
3.25542e-19
0.000125395
1.68584e-20
3.6447e-19
0.000135277
2.68759e-20
3.94972e-19
0.000145824
8.63822e-21
4.07729e-19
0.000157081
5.67781e-21
4.11868e-19
0.000169097
1.17002e-20
4.20368e-19
0.000181924
1.63231e-20
4.03942e-19
0.000195616
7.23779e-20
3.98773e-19
0.000210233
1.18689e-19
3.84544e-19
0.000225836
9.17639e-20
3.05201e-19
0.000242492
1.76626e-19
2.73956e-19
0.00026027
1.44618e-19
3.04842e-19
0.000279245
8.04322e-20
3.54387e-19
0.000299496
6.31524e-20
3.44655e-19
0.000321108
-1.75357e-20
3.09623e-19
0.00034417
-1.16231e-21
2.34664e-19
0.000368776
-2.6156e-20
1.72193e-19
0.000395028
-4.24006e-20
1.82208e-19
0.000423033
-7.81393e-20
1.00908e-19
0.000452905
-2.24218e-19
3.06861e-20
0.000484763
-3.28945e-19
-5.74119e-20
0.000518737
-3.27989e-19
-1.54301e-19
0.000554962
-3.98859e-19
-3.88125e-19
0.000593582
-4.60808e-19
-5.02942e-19
0.000634749
-6.87675e-19
-5.54837e-19
0.000678627
-8.38597e-19
-6.85712e-19
0.000725386
-8.79747e-19
-7.91226e-19
0.000775207
-9.50739e-19
-8.67081e-19
0.000828284
-9.85299e-19
-1.03962e-18
0.000884819
-1.11385e-18
-1.12341e-18
0.000945028
-1.23416e-18
-1.22084e-18
0.00100914
-1.26072e-18
-1.25268e-18
0.00107738
-1.39236e-18
-1.25301e-18
0.00115002
-1.1722e-18
-1.33737e-18
0.00122732
-1.45573e-18
-1.44085e-18
0.00130955
-1.43547e-18
-1.45579e-18
0.001397
-1.41373e-18
-1.28825e-18
0.00148998
-1.60564e-18
-1.38438e-18
0.0015888
-1.22249e-18
-1.2826e-18
0.00169379
-1.40268e-18
-1.38738e-18
0.00180528
-1.44056e-18
-1.50694e-18
0.0019236
-1.38167e-18
-1.47025e-18
0.00204909
-1.36383e-18
-1.26056e-18
0.00218208
-1.12067e-18
-1.16535e-18
0.00232286
-1.04714e-18
-1.08056e-18
0.00247169
-1.21271e-18
-1.21471e-18
0.00262876
-1.13531e-18
-1.17598e-18
0.00279416
-1.22511e-18
-1.19481e-18
0.00296779
-1.06638e-18
-1.09782e-18
0.00314939
-1.12012e-18
-1.03501e-18
0.00314939
-1.07095e-18
-1.1098e-19
-1.07672e-18
-8.40757e-20
0.00296779
-9.47572e-19
-2.42046e-19
-1.06918e-18
-1.48461e-19
0.00279416
-1.03588e-18
-2.74488e-21
-8.82884e-19
-4.08651e-20
0.00262876
-1.02718e-18
1.59762e-20
-1.13138e-18
2.17325e-20
0.00247169
-8.10864e-19
4.8263e-20
-7.40127e-19
1.18808e-19
0.00232286
-7.71145e-19
4.12252e-20
-7.75786e-19
-6.90484e-20
0.00218208
-6.42731e-19
-5.13506e-20
-7.74584e-19
-8.69321e-20
0.00204909
-7.71458e-19
-4.33535e-20
-6.55614e-19
1.01968e-20
0.0019236
-7.39809e-19
2.1113e-20
-5.16122e-19
8.85231e-20
0.00180528
-5.76836e-19
3.48747e-22
-7.65808e-19
7.50665e-20
0.00169379
-3.43942e-19
-2.44502e-20
-2.84516e-19
1.66925e-20
0.0015888
-3.84352e-19
-8.5066e-20
-3.89464e-19
-6.87824e-20
0.00148998
-2.84502e-19
-4.39011e-20
-1.92182e-19
-5.16998e-20
0.001397
-2.534e-19
-4.98627e-20
-1.48293e-19
-5.29908e-20
0.00130955
-8.24945e-20
-4.47638e-20
-1.7955e-19
-4.32728e-20
0.00122732
5.93753e-20
-6.15849e-20
-1.87235e-19
-5.42495e-20
0.00115002
-9.41424e-20
-7.63794e-20
-2.56574e-19
-3.73959e-20
0.00107738
-2.88506e-19
-5.85224e-20
-3.92009e-19
-2.26604e-20
0.00100914
-3.41834e-19
-4.23104e-20
-1.2404e-19
-1.66882e-20
0.000945028
-2.21402e-19
-2.63394e-20
-1.96664e-19
-2.16302e-20
0.000884819
-2.2189e-19
-1.68526e-20
-1.17044e-19
-8.84146e-21
0.000828284
-1.12227e-19
-9.67485e-21
-1.25838e-19
-1.09504e-20
0.000775207
-1.18314e-19
-1.65088e-20
-9.71124e-20
-1.50567e-20
0.000725386
-4.68508e-20
-6.4658e-21
-9.79797e-20
-1.383e-20
0.000678627
-1.15325e-19
-1.20948e-20
-2.03139e-20
-1.3489e-20
0.000634749
-8.32413e-20
-1.02973e-20
1.82422e-20
-1.52148e-20
0.000593582
-8.05467e-20
-3.18058e-21
4.87798e-20
-1.90383e-20
0.000554962
-7.28384e-21
4.07542e-21
-7.4992e-20
-1.79035e-20
0.000518737
-3.62196e-20
7.07502e-21
-4.98474e-20
-9.86248e-21
0.000484763
-3.88741e-20
5.25281e-21
2.0561e-20
-7.11597e-21
0.000452905
7.57136e-21
4.48212e-21
1.42333e-20
-7.68097e-21
0.000423033
4.36754e-20
4.22577e-21
3.46847e-20
-5.03107e-21
0.000395028
3.84809e-20
2.42313e-21
-1.63936e-20
-3.0512e-21
0.000368776
6.76317e-20
1.84311e-21
-2.9426e-21
-3.67156e-22
0.00034417
-8.64896e-21
1.14989e-21
-9.49592e-21
3.19707e-22
0.000321108
-5.44877e-20
-6.17964e-23
3.9669e-20
4.86561e-22
0.000299496
-3.38283e-20
-9.63007e-23
-2.70029e-20
-7.44145e-22
0.000279245
-1.86637e-20
-4.87796e-22
-2.0419e-20
-2.47279e-22
0.00026027
-2.67494e-20
-1.336e-21
-2.07981e-20
1.57531e-22
0.000242492
-4.00747e-20
-2.0902e-21
-1.9023e-20
3.02322e-22
0.000225836
-4.43021e-20
-2.35404e-21
-1.52619e-20
7.88854e-22
0.000210233
-5.7063e-20
-2.54797e-21
1.72287e-20
1.41435e-21
0.000195616
1.43839e-20
-1.87218e-21
5.24223e-21
1.07674e-21
0.000181924
1.42185e-20
-2.20349e-21
1.65076e-20
8.63838e-22
0.000169097
1.2123e-20
-2.06848e-21
6.9634e-21
3.1962e-22
0.000157081
6.98332e-21
-1.94646e-21
1.61785e-20
-8.81164e-23
0.000145824
1.62678e-20
-1.8108e-21
9.95127e-22
-3.46927e-22
0.000135277
1.43295e-20
-1.78193e-21
4.06687e-21
-3.02633e-22
0.000125395
2.33197e-20
-1.60286e-21
-1.4108e-20
-1.58909e-22
0.000116134
2.07229e-20
-1.50691e-21
3.47244e-21
-6.46011e-23
0.000107453
3.18881e-20
-1.43531e-21
-2.27481e-21
-5.03411e-23
9.93139e-05
3.27005e-20
-1.4195e-21
-4.04093e-21
4.08146e-24
9.16806e-05
1.56939e-20
-1.41503e-21
1.03355e-20
2.82197e-23
8.45186e-05
-1.81431e-20
-1.35487e-21
1.27357e-20
2.23412e-23
7.77959e-05
-1.70685e-20
-1.23752e-21
8.45447e-21
-1.24941e-23
7.14817e-05
-1.59918e-20
-1.14174e-21
1.55893e-20
-1.80919e-23
6.55471e-05
-3.54907e-20
-1.0391e-21
6.3671e-21
-7.13951e-23
5.99648e-05
-3.27778e-20
-9.08792e-22
6.91639e-21
-8.16171e-23
5.4709e-05
-2.68303e-20
-8.01706e-22
7.29726e-21
-1.14914e-22
4.97556e-05
-2.62666e-20
-7.24379e-22
7.53873e-21
-1.54892e-22
4.50821e-05
-1.1341e-20
-6.32322e-22
-7.86723e-21
-1.86897e-22
4.06683e-05
-8.47197e-21
-5.57651e-22
-1.05119e-20
-1.86461e-22
3.64964e-05
-3.51742e-21
-5.0781e-22
-4.18214e-21
-1.74241e-22
3.25522e-05
-3.58305e-21
-4.62323e-22
-9.56497e-21
-1.66716e-22
2.88265e-05
-5.10425e-21
-4.16495e-22
-1.03906e-20
-1.55077e-22
2.53161e-05
-2.19782e-21
-3.74671e-22
-8.0492e-21
-1.42136e-22
2.20253e-05
-3.28139e-21
-3.37946e-22
-8.07386e-21
-1.34075e-22
1.8965e-05
-7.8878e-21
-3.01162e-22
-5.13018e-21
-1.26711e-22
1.61502e-05
-1.06162e-21
-2.62133e-22
-3.78767e-21
-1.15408e-22
1.35946e-05
-1.01535e-21
-2.27454e-22
-3.79833e-21
-1.03769e-22
1.13049e-05
-6.7272e-22
-1.94716e-22
-2.69384e-21
-8.97645e-23
9.27746e-06
2.55528e-22
-1.64912e-22
-2.70966e-21
-7.67202e-23
7.4994e-06
5.95655e-22
-1.38951e-22
-1.48587e-21
-6.4452e-23
5.95117e-06
6.22345e-22
-1.16684e-22
-1.7899e-21
-5.37973e-23
4.61029e-06
1.12171e-21
-9.80118e-23
-8.29723e-22
-4.48189e-23
3.45403e-06
8.31109e-23
-8.23848e-23
-1.08273e-21
-3.74566e-23
2.46084e-06
-2.59774e-22
-6.91411e-23
-3.00181e-22
-3.11467e-23
1.61109e-06
-2.35699e-22
-5.80011e-23
-1.28476e-22
-2.59793e-23
8.87228e-07
-3.31661e-23
-4.86592e-23
-5.03935e-23
-2.17828e-23
2.73629e-07
-1.11889e-23
-1.07359e-23
0.00314939
-1.06677e-18
-1.01108e-18
0.00296779
-7.8315e-19
-1.0358e-18
0.00279416
-1.05676e-18
-8.43434e-19
0.00262876
-9.57228e-19
-9.58663e-19
0.00247169
-7.25493e-19
-8.8595e-19
0.00232286
-7.81474e-19
-6.84023e-19
0.00218208
-5.9438e-19
-5.59096e-19
0.00204909
-6.86533e-19
-5.78391e-19
0.0019236
-8.12074e-19
-6.1916e-19
0.00180528
-6.42715e-19
-8.87247e-19
0.00169379
-5.99498e-19
-5.75104e-19
0.0015888
-4.65775e-19
-5.38706e-19
0.00148998
-4.52261e-19
-3.79112e-19
0.001397
-3.33438e-19
-2.93547e-19
0.00130955
-2.55432e-19
-3.84058e-19
0.00122732
-8.0737e-20
-1.5345e-19
0.00115002
4.8579e-20
-2.11894e-20
0.00107738
1.14338e-20
-1.00546e-20
0.00100914
-8.65744e-22
8.45044e-20
0.000945028
3.51843e-20
-1.74685e-20
0.000884819
-3.96553e-21
-2.21552e-20
0.000828284
-7.70782e-20
-7.15082e-20
0.000775207
5.00343e-20
-1.69436e-20
0.000725386
-4.73742e-20
-4.04934e-20
0.000678627
-4.46232e-20
-2.37709e-20
0.000634749
4.73727e-20
-1.41822e-20
0.000593582
6.45012e-20
6.88584e-20
0.000554962
7.48761e-20
4.38274e-20
0.000518737
-5.9947e-20
-1.78114e-20
0.000484763
-6.87655e-20
-5.51813e-20
0.000452905
-3.70592e-20
-3.06471e-20
0.000423033
-6.51571e-20
-1.72261e-20
0.000395028
-4.29917e-20
-1.46194e-20
0.000368776
-1.29242e-20
-4.91909e-20
0.00034417
-1.00069e-19
-4.74497e-20
0.000321108
-7.76922e-20
-3.50483e-20
0.000299496
-6.53997e-20
-3.41481e-20
0.000279245
-8.27654e-20
-5.59786e-20
0.00026027
-9.78116e-20
-6.43794e-20
0.000242492
-8.47419e-20
-4.53041e-20
0.000225836
-9.37337e-20
-1.78354e-20
0.000210233
-1.90821e-20
-3.58998e-20
0.000195616
-4.36662e-20
-3.49516e-20
0.000181924
-5.67248e-21
-6.29836e-20
0.000169097
-4.73411e-21
-4.59973e-20
0.000157081
3.13604e-21
-4.20917e-20
0.000145824
-7.68678e-21
-4.03261e-20
0.000135277
2.07283e-20
-1.58707e-20
0.000125395
2.03586e-20
-3.30678e-20
0.000116134
1.02855e-20
-2.84036e-20
0.000107453
1.89603e-21
-1.99099e-20
9.93139e-05
-2.69074e-21
-2.34983e-20
9.16806e-05
-1.85768e-21
-4.20862e-21
8.45186e-05
-8.93843e-21
-7.02361e-21
7.77959e-05
-5.6583e-21
-4.80551e-21
7.14817e-05
4.30595e-21
-2.75104e-20
6.55471e-05
3.00655e-21
-1.59647e-20
5.99648e-05
3.00001e-22
-1.7639e-20
5.4709e-05
-7.33974e-21
-1.54508e-20
4.97556e-05
6.89061e-21
-1.53138e-20
4.50821e-05
1.27798e-20
-9.58251e-21
4.06683e-05
-2.8788e-21
-3.2897e-21
3.64964e-05
-1.58382e-21
-9.77946e-22
3.25522e-05
1.5891e-21
-2.39085e-21
2.88265e-05
9.63615e-22
-3.01488e-21
2.53161e-05
8.01774e-22
-5.10872e-21
2.20253e-05
1.42706e-21
-6.22894e-21
1.8965e-05
2.58523e-21
-8.56576e-22
1.61502e-05
2.5317e-21
-3.72395e-21
1.35946e-05
2.34379e-21
-1.07964e-22
1.13049e-05
2.71071e-21
1.04728e-22
9.27746e-06
2.19195e-21
5.33866e-22
7.4994e-06
1.7275e-21
3.16604e-22
5.95117e-06
5.04158e-22
-3.842e-22
4.61029e-06
3.83691e-22
-2.75854e-22
3.45403e-06
1.23386e-22
-1.05639e-22
2.46084e-06
1.12974e-22
2.95531e-23
1.61109e-06
2.05456e-22
-3.57625e-22
8.87228e-07
-1.49888e-23
-4.46273e-23
2.73629e-07
)
;

boundaryField
{
    walls
    {
        type            calculated;
        value           uniform 0;
    }
    inlet
    {
        type            cyclic;
        value           nonuniform List<scalar> 
320
(
-2.73628e-07
-8.87228e-07
-1.61109e-06
-2.46084e-06
-3.45403e-06
-4.61029e-06
-5.95117e-06
-7.4994e-06
-9.27746e-06
-1.13049e-05
-1.35946e-05
-1.61502e-05
-1.8965e-05
-2.20253e-05
-2.53162e-05
-2.88265e-05
-3.25522e-05
-3.64964e-05
-4.06683e-05
-4.50821e-05
-4.97556e-05
-5.4709e-05
-5.99648e-05
-6.55471e-05
-7.14817e-05
-7.77959e-05
-8.45187e-05
-9.16805e-05
-9.93139e-05
-0.000107453
-0.000116134
-0.000125395
-0.000135277
-0.000145824
-0.000157081
-0.000169097
-0.000181924
-0.000195616
-0.000210233
-0.000225836
-0.000242492
-0.00026027
-0.000279245
-0.000299496
-0.000321108
-0.00034417
-0.000368776
-0.000395028
-0.000423033
-0.000452905
-0.000484763
-0.000518737
-0.000554962
-0.000593582
-0.000634749
-0.000678627
-0.000725386
-0.000775207
-0.000828284
-0.000884819
-0.000945028
-0.00100914
-0.00107738
-0.00115002
-0.00122732
-0.00130955
-0.001397
-0.00148998
-0.0015888
-0.00169379
-0.00180528
-0.0019236
-0.00204909
-0.00218208
-0.00232286
-0.00247169
-0.00262876
-0.00279416
-0.00296779
-0.00314939
-2.73628e-07
-8.87228e-07
-1.61109e-06
-2.46084e-06
-3.45403e-06
-4.61029e-06
-5.95117e-06
-7.4994e-06
-9.27746e-06
-1.13049e-05
-1.35946e-05
-1.61502e-05
-1.8965e-05
-2.20253e-05
-2.53162e-05
-2.88265e-05
-3.25522e-05
-3.64964e-05
-4.06683e-05
-4.50821e-05
-4.97556e-05
-5.4709e-05
-5.99648e-05
-6.55471e-05
-7.14817e-05
-7.77959e-05
-8.45187e-05
-9.16805e-05
-9.93139e-05
-0.000107453
-0.000116134
-0.000125395
-0.000135277
-0.000145824
-0.000157081
-0.000169097
-0.000181924
-0.000195616
-0.000210233
-0.000225836
-0.000242492
-0.00026027
-0.000279245
-0.000299496
-0.000321108
-0.00034417
-0.000368776
-0.000395028
-0.000423033
-0.000452905
-0.000484763
-0.000518737
-0.000554962
-0.000593582
-0.000634749
-0.000678627
-0.000725386
-0.000775207
-0.000828284
-0.000884819
-0.000945028
-0.00100914
-0.00107738
-0.00115002
-0.00122732
-0.00130955
-0.001397
-0.00148998
-0.0015888
-0.00169379
-0.00180528
-0.0019236
-0.00204909
-0.00218208
-0.00232286
-0.00247169
-0.00262876
-0.00279416
-0.00296779
-0.00314939
-0.00314939
-0.00296779
-0.00279416
-0.00262876
-0.00247169
-0.00232286
-0.00218208
-0.00204909
-0.0019236
-0.00180528
-0.00169379
-0.0015888
-0.00148998
-0.001397
-0.00130955
-0.00122732
-0.00115002
-0.00107738
-0.00100914
-0.000945028
-0.000884819
-0.000828284
-0.000775207
-0.000725386
-0.000678627
-0.000634749
-0.000593582
-0.000554962
-0.000518737
-0.000484763
-0.000452905
-0.000423033
-0.000395028
-0.000368776
-0.00034417
-0.000321108
-0.000299496
-0.000279245
-0.00026027
-0.000242492
-0.000225836
-0.000210233
-0.000195616
-0.000181924
-0.000169097
-0.000157081
-0.000145824
-0.000135277
-0.000125395
-0.000116134
-0.000107453
-9.93139e-05
-9.16806e-05
-8.45186e-05
-7.77959e-05
-7.14817e-05
-6.55471e-05
-5.99648e-05
-5.4709e-05
-4.97556e-05
-4.50821e-05
-4.06683e-05
-3.64964e-05
-3.25522e-05
-2.88265e-05
-2.53161e-05
-2.20253e-05
-1.8965e-05
-1.61502e-05
-1.35946e-05
-1.13049e-05
-9.27746e-06
-7.4994e-06
-5.95117e-06
-4.61029e-06
-3.45403e-06
-2.46084e-06
-1.61109e-06
-8.87228e-07
-2.73629e-07
-0.00314939
-0.00296779
-0.00279416
-0.00262876
-0.00247169
-0.00232286
-0.00218208
-0.00204909
-0.0019236
-0.00180528
-0.00169379
-0.0015888
-0.00148998
-0.001397
-0.00130955
-0.00122732
-0.00115002
-0.00107738
-0.00100914
-0.000945028
-0.000884819
-0.000828284
-0.000775207
-0.000725386
-0.000678627
-0.000634749
-0.000593582
-0.000554962
-0.000518737
-0.000484763
-0.000452905
-0.000423033
-0.000395028
-0.000368776
-0.00034417
-0.000321108
-0.000299496
-0.000279245
-0.00026027
-0.000242492
-0.000225836
-0.000210233
-0.000195616
-0.000181924
-0.000169097
-0.000157081
-0.000145824
-0.000135277
-0.000125395
-0.000116134
-0.000107453
-9.93139e-05
-9.16806e-05
-8.45186e-05
-7.77959e-05
-7.14817e-05
-6.55471e-05
-5.99648e-05
-5.4709e-05
-4.97556e-05
-4.50821e-05
-4.06683e-05
-3.64964e-05
-3.25522e-05
-2.88265e-05
-2.53161e-05
-2.20253e-05
-1.8965e-05
-1.61502e-05
-1.35946e-05
-1.13049e-05
-9.27746e-06
-7.4994e-06
-5.95117e-06
-4.61029e-06
-3.45403e-06
-2.46084e-06
-1.61109e-06
-8.87228e-07
-2.73629e-07
)
;
    }
    outlet
    {
        type            cyclic;
        value           nonuniform List<scalar> 
320
(
2.73628e-07
8.87228e-07
1.61109e-06
2.46084e-06
3.45403e-06
4.61029e-06
5.95117e-06
7.4994e-06
9.27746e-06
1.13049e-05
1.35946e-05
1.61502e-05
1.8965e-05
2.20253e-05
2.53162e-05
2.88265e-05
3.25522e-05
3.64964e-05
4.06683e-05
4.50821e-05
4.97556e-05
5.4709e-05
5.99648e-05
6.55471e-05
7.14817e-05
7.77959e-05
8.45187e-05
9.16805e-05
9.93139e-05
0.000107453
0.000116134
0.000125395
0.000135277
0.000145824
0.000157081
0.000169097
0.000181924
0.000195616
0.000210233
0.000225836
0.000242492
0.00026027
0.000279245
0.000299496
0.000321108
0.00034417
0.000368776
0.000395028
0.000423033
0.000452905
0.000484763
0.000518737
0.000554962
0.000593582
0.000634749
0.000678627
0.000725386
0.000775207
0.000828284
0.000884819
0.000945028
0.00100914
0.00107738
0.00115002
0.00122732
0.00130955
0.001397
0.00148998
0.0015888
0.00169379
0.00180528
0.0019236
0.00204909
0.00218208
0.00232286
0.00247169
0.00262876
0.00279416
0.00296779
0.00314939
2.73628e-07
8.87228e-07
1.61109e-06
2.46084e-06
3.45403e-06
4.61029e-06
5.95117e-06
7.4994e-06
9.27746e-06
1.13049e-05
1.35946e-05
1.61502e-05
1.8965e-05
2.20253e-05
2.53162e-05
2.88265e-05
3.25522e-05
3.64964e-05
4.06683e-05
4.50821e-05
4.97556e-05
5.4709e-05
5.99648e-05
6.55471e-05
7.14817e-05
7.77959e-05
8.45187e-05
9.16805e-05
9.93139e-05
0.000107453
0.000116134
0.000125395
0.000135277
0.000145824
0.000157081
0.000169097
0.000181924
0.000195616
0.000210233
0.000225836
0.000242492
0.00026027
0.000279245
0.000299496
0.000321108
0.00034417
0.000368776
0.000395028
0.000423033
0.000452905
0.000484763
0.000518737
0.000554962
0.000593582
0.000634749
0.000678627
0.000725386
0.000775207
0.000828284
0.000884819
0.000945028
0.00100914
0.00107738
0.00115002
0.00122732
0.00130955
0.001397
0.00148998
0.0015888
0.00169379
0.00180528
0.0019236
0.00204909
0.00218208
0.00232286
0.00247169
0.00262876
0.00279416
0.00296779
0.00314939
0.00314939
0.00296779
0.00279416
0.00262876
0.00247169
0.00232286
0.00218208
0.00204909
0.0019236
0.00180528
0.00169379
0.0015888
0.00148998
0.001397
0.00130955
0.00122732
0.00115002
0.00107738
0.00100914
0.000945028
0.000884819
0.000828284
0.000775207
0.000725386
0.000678627
0.000634749
0.000593582
0.000554962
0.000518737
0.000484763
0.000452905
0.000423033
0.000395028
0.000368776
0.00034417
0.000321108
0.000299496
0.000279245
0.00026027
0.000242492
0.000225836
0.000210233
0.000195616
0.000181924
0.000169097
0.000157081
0.000145824
0.000135277
0.000125395
0.000116134
0.000107453
9.93139e-05
9.16806e-05
8.45186e-05
7.77959e-05
7.14817e-05
6.55471e-05
5.99648e-05
5.4709e-05
4.97556e-05
4.50821e-05
4.06683e-05
3.64964e-05
3.25522e-05
2.88265e-05
2.53161e-05
2.20253e-05
1.8965e-05
1.61502e-05
1.35946e-05
1.13049e-05
9.27746e-06
7.4994e-06
5.95117e-06
4.61029e-06
3.45403e-06
2.46084e-06
1.61109e-06
8.87228e-07
2.73629e-07
0.00314939
0.00296779
0.00279416
0.00262876
0.00247169
0.00232286
0.00218208
0.00204909
0.0019236
0.00180528
0.00169379
0.0015888
0.00148998
0.001397
0.00130955
0.00122732
0.00115002
0.00107738
0.00100914
0.000945028
0.000884819
0.000828284
0.000775207
0.000725386
0.000678627
0.000634749
0.000593582
0.000554962
0.000518737
0.000484763
0.000452905
0.000423033
0.000395028
0.000368776
0.00034417
0.000321108
0.000299496
0.000279245
0.00026027
0.000242492
0.000225836
0.000210233
0.000195616
0.000181924
0.000169097
0.000157081
0.000145824
0.000135277
0.000125395
0.000116134
0.000107453
9.93139e-05
9.16806e-05
8.45186e-05
7.77959e-05
7.14817e-05
6.55471e-05
5.99648e-05
5.4709e-05
4.97556e-05
4.50821e-05
4.06683e-05
3.64964e-05
3.25522e-05
2.88265e-05
2.53161e-05
2.20253e-05
1.8965e-05
1.61502e-05
1.35946e-05
1.13049e-05
9.27746e-06
7.4994e-06
5.95117e-06
4.61029e-06
3.45403e-06
2.46084e-06
1.61109e-06
8.87228e-07
2.73629e-07
)
;
    }
    sides
    {
        type            empty;
        value           nonuniform List<scalar> 0();
    }
}


// ************************************************************************* //
