/*--------------------------------*- C++ -*----------------------------------*\
| =========                 |                                                 |
| \\      /  F ield         | OpenFOAM: The Open Source CFD Toolbox           |
|  \\    /   O peration     | Version:  2012                                  |
|   \\  /    A nd           | Website:  www.openfoam.com                      |
|    \\/     M anipulation  |                                                 |
\*---------------------------------------------------------------------------*/
FoamFile
{
    version     2.0;
    format      ascii;
    class       surfaceScalarField;
    location    "6000";
    object      phi;
}
// * * * * * * * * * * * * * * * * * * * * * * * * * * * * * * * * * * * * * //

dimensions      [0 3 -1 0 0 0 0];
oriented        oriented;


internalField   nonuniform List<scalar> 
316
(
4.6983e-06
-1.00516e-17
-5.1338e-20
-1.48208e-19
1.02873e-20
1.95687e-05
-9.57632e-18
-1.43064e-19
-4.88464e-19
4.07309e-21
4.67435e-05
-8.8799e-18
-2.12596e-19
-9.96332e-19
6.8614e-21
9.17601e-05
-8.02117e-18
-2.53966e-19
-1.62377e-18
8.61614e-21
0.000154292
-7.18773e-18
-2.50137e-19
-2.21297e-18
6.92965e-21
0.000232932
-6.41469e-18
-2.32954e-19
-2.78896e-18
-2.90498e-21
0.000332054
-5.66868e-18
-2.1788e-19
-3.2965e-18
-2.08611e-20
0.000458632
-5.12091e-18
-2.1276e-19
-3.65129e-18
-5.33732e-20
0.000621227
-4.60809e-18
-2.13422e-19
-3.77331e-18
-1.06894e-19
0.000830507
-4.20523e-18
-2.3489e-19
-3.81446e-18
-1.81171e-19
0.00110002
-3.75836e-18
-2.65622e-19
-3.54886e-18
-2.35818e-19
0.00144716
-3.32487e-18
-2.87586e-19
-3.32386e-18
-3.08702e-19
0.00189431
-3.0864e-18
-2.93547e-19
-3.07832e-18
-2.91447e-19
0.00247027
-2.70848e-18
-2.08435e-19
-2.76047e-18
-1.49569e-19
0.00321204
-2.50619e-18
-2.19938e-19
-2.47734e-18
-1.74132e-19
0.00416698
-2.23989e-18
4.66891e-19
-2.20491e-18
1.11858e-19
0.00539535
-2.34487e-18
-2.41109e-19
-2.38008e-18
-2.02377e-19
0.00697294
-1.87862e-18
-2.31552e-19
-1.88521e-18
4.00514e-19
0.00899253
-2.12545e-18
-1.13495e-19
-2.08309e-18
-3.76355e-19
0.011556
-6.79359e-19
-1.35157e-18
-9.10055e-20
-1.36086e-18
4.6983e-06
-3.71558e-20
-3.19704e-21
1.95687e-05
-1.37417e-19
-3.97117e-20
4.67435e-05
-2.829e-19
-8.83608e-20
9.17601e-05
-4.60565e-19
-1.58e-19
0.000154292
-5.6626e-19
-2.46976e-19
0.000232932
-6.92744e-19
-2.54698e-19
0.000332054
-8.03508e-19
-4.48851e-19
0.000458632
-8.13809e-19
-6.47387e-19
0.000621227
-9.72228e-19
-7.86659e-19
0.000830507
-1.16661e-18
-9.60464e-19
0.00110002
-1.32175e-18
-1.31142e-18
0.00144716
-1.52094e-18
-1.51007e-18
0.00189431
-1.71838e-18
-1.65875e-18
0.00247027
-1.87869e-18
-1.91179e-18
0.00321204
-1.79057e-18
-1.92708e-18
0.00416698
-2.29718e-18
-2.14987e-18
0.00539535
-2.22019e-18
-2.15305e-18
0.00697294
-1.88619e-18
-1.98274e-18
0.00899253
-2.3816e-18
-2.25624e-18
0.011556
-1.36329e-18
-1.42249e-18
0.011556
-2.0546e-18
-7.27286e-21
-2.03316e-18
-5.14242e-19
0.00899253
-8.07543e-19
-8.00893e-20
-8.98388e-19
-1.72549e-19
0.00697294
-9.10743e-19
9.14898e-20
-8.24559e-19
-7.90193e-20
0.00539535
-5.3119e-19
1.90966e-19
-4.23008e-19
8.05472e-20
0.00416698
-4.81563e-19
-5.71152e-20
-4.59348e-19
-3.14171e-20
0.00321204
-1.0501e-19
2.91382e-21
-3.12121e-20
-1.0963e-19
0.00247027
-2.71031e-20
-5.34654e-20
-1.87466e-19
-1.55383e-19
0.00189431
-9.44255e-20
-7.17568e-21
-5.075e-20
-3.80859e-21
0.00144716
2.70899e-20
3.66278e-20
3.59748e-20
4.39934e-21
0.00110002
-8.74793e-20
1.58548e-20
1.88246e-20
1.07691e-20
0.000830507
-4.1773e-20
1.13999e-20
-5.85021e-20
-1.07581e-20
0.000621227
-4.16672e-20
4.00698e-21
-1.82928e-21
-4.81783e-21
0.000458632
-1.04845e-20
3.80806e-21
-4.33599e-20
-3.28769e-21
0.000332054
-4.86506e-20
2.82623e-21
-1.19503e-20
-2.49683e-21
0.000232932
-5.21368e-20
8.4497e-22
-1.54941e-20
-2.77072e-21
0.000154292
1.77306e-21
4.38065e-23
-2.49764e-20
-2.39487e-21
9.17601e-05
6.86177e-21
-1.57645e-22
-5.30697e-21
-2.12296e-21
4.67435e-05
3.42592e-21
-2.64008e-22
3.09616e-22
-1.61181e-21
1.95687e-05
-3.58636e-22
-1.82287e-22
2.9006e-22
-9.91724e-22
4.6983e-06
-1.24165e-22
-1.43234e-22
0.011556
-1.9842e-18
-1.96809e-18
0.00899253
-7.11243e-19
-8.34672e-19
0.00697294
-7.26154e-19
-6.6977e-19
0.00539535
-5.1472e-19
-3.76658e-19
0.00416698
-4.60835e-19
-4.7197e-19
0.00321204
-1.14985e-19
-4.03929e-20
0.00247027
4.69953e-20
-1.24745e-20
0.00189431
-2.36689e-20
-9.02614e-20
0.00144716
-4.38121e-20
2.22181e-20
0.00110002
-9.39261e-20
-9.85668e-20
0.000830507
-7.88688e-20
-2.20652e-20
0.000621227
-1.728e-20
7.28271e-21
0.000458632
7.23603e-21
-2.82263e-20
0.000332054
-7.93472e-20
-2.20069e-20
0.000232932
-6.67529e-20
5.90885e-21
0.000154292
6.19548e-21
-1.31185e-20
9.17601e-05
-7.27459e-21
8.0698e-22
4.67435e-05
-1.41081e-21
1.36203e-22
1.95687e-05
-3.42605e-22
6.91954e-22
4.6983e-06
)
;

boundaryField
{
    walls
    {
        type            calculated;
        value           uniform 0;
    }
    inlet
    {
        type            cyclic;
        value           nonuniform List<scalar> 
80
(
-4.6983e-06
-1.95687e-05
-4.67435e-05
-9.17601e-05
-0.000154292
-0.000232932
-0.000332054
-0.000458632
-0.000621227
-0.000830507
-0.00110002
-0.00144716
-0.00189431
-0.00247027
-0.00321204
-0.00416698
-0.00539535
-0.00697294
-0.00899253
-0.011556
-4.6983e-06
-1.95687e-05
-4.67435e-05
-9.17601e-05
-0.000154292
-0.000232932
-0.000332054
-0.000458632
-0.000621227
-0.000830507
-0.00110002
-0.00144716
-0.00189431
-0.00247027
-0.00321204
-0.00416698
-0.00539535
-0.00697294
-0.00899253
-0.011556
-0.011556
-0.00899253
-0.00697294
-0.00539535
-0.00416698
-0.00321204
-0.00247027
-0.00189431
-0.00144716
-0.00110002
-0.000830507
-0.000621227
-0.000458632
-0.000332054
-0.000232932
-0.000154292
-9.17601e-05
-4.67435e-05
-1.95687e-05
-4.6983e-06
-0.011556
-0.00899253
-0.00697294
-0.00539535
-0.00416698
-0.00321204
-0.00247027
-0.00189431
-0.00144716
-0.00110002
-0.000830507
-0.000621227
-0.000458632
-0.000332054
-0.000232932
-0.000154292
-9.17601e-05
-4.67435e-05
-1.95687e-05
-4.6983e-06
)
;
    }
    outlet
    {
        type            cyclic;
        value           nonuniform List<scalar> 
80
(
4.6983e-06
1.95687e-05
4.67435e-05
9.17601e-05
0.000154292
0.000232932
0.000332054
0.000458632
0.000621227
0.000830507
0.00110002
0.00144716
0.00189431
0.00247027
0.00321204
0.00416698
0.00539535
0.00697294
0.00899253
0.011556
4.6983e-06
1.95687e-05
4.67435e-05
9.17601e-05
0.000154292
0.000232932
0.000332054
0.000458632
0.000621227
0.000830507
0.00110002
0.00144716
0.00189431
0.00247027
0.00321204
0.00416698
0.00539535
0.00697294
0.00899253
0.011556
0.011556
0.00899253
0.00697294
0.00539535
0.00416698
0.00321204
0.00247027
0.00189431
0.00144716
0.00110002
0.000830507
0.000621227
0.000458632
0.000332054
0.000232932
0.000154292
9.17601e-05
4.67435e-05
1.95687e-05
4.6983e-06
0.011556
0.00899253
0.00697294
0.00539535
0.00416698
0.00321204
0.00247027
0.00189431
0.00144716
0.00110002
0.000830507
0.000621227
0.000458632
0.000332054
0.000232932
0.000154292
9.17601e-05
4.67435e-05
1.95687e-05
4.6983e-06
)
;
    }
    sides
    {
        type            empty;
        value           nonuniform List<scalar> 0();
    }
}


// ************************************************************************* //
