/*--------------------------------*- C++ -*----------------------------------*\
| =========                 |                                                 |
| \\      /  F ield         | OpenFOAM: The Open Source CFD Toolbox           |
|  \\    /   O peration     | Version:  2106                                  |
|   \\  /    A nd           | Website:  www.openfoam.com                      |
|    \\/     M anipulation  |                                                 |
\*---------------------------------------------------------------------------*/
FoamFile
{
    version     2.0;
    format      ascii;
    arch        "LSB;label=32;scalar=64";
    class       volSymmTensorField;
    location    "13000";
    object      turbulenceProperties:R;
}
// * * * * * * * * * * * * * * * * * * * * * * * * * * * * * * * * * * * * * //

dimensions      [0 2 -2 0 0 0 0];

internalField   nonuniform List<symmTensor> 
2560
(
(1.08377e-07 -3.29453e-12 -4.76927e-15 1.08377e-07 5.40302e-28 1.08377e-07)
(1.08377e-07 -3.29453e-12 -4.76927e-15 1.08377e-07 -7.62785e-32 1.08377e-07)
(1.768e-08 -3.08874e-12 -1.34798e-14 1.768e-08 -6.4535e-28 1.768e-08)
(1.768e-08 -3.08874e-12 -1.34798e-14 1.768e-08 -4.93538e-31 1.768e-08)
(1.75098e-08 -9.02301e-12 -5.41614e-14 1.75098e-08 -1.4097e-27 1.75098e-08)
(1.75098e-08 -9.02301e-12 -5.41614e-14 1.75098e-08 -1.82345e-30 1.75098e-08)
(4.90737e-08 -5.36205e-11 -3.26543e-13 4.90737e-08 -9.61719e-28 4.90737e-08)
(4.90737e-08 -5.36205e-11 -3.26543e-13 4.90737e-08 -9.74988e-30 4.90737e-08)
(1.24267e-07 -2.39532e-10 -1.47993e-12 1.24267e-07 -4.2476e-26 1.24267e-07)
(1.24267e-07 -2.39532e-10 -1.47993e-12 1.24267e-07 -4.60934e-29 1.24267e-07)
(2.64327e-07 -8.02166e-10 -5.0282e-12 2.64327e-07 -1.42485e-25 2.64327e-07)
(2.64327e-07 -8.02166e-10 -5.0282e-12 2.64327e-07 -1.47447e-28 2.64327e-07)
(4.95093e-07 -2.19187e-09 -1.39391e-11 4.95093e-07 -4.08782e-25 4.95093e-07)
(4.95093e-07 -2.19187e-09 -1.39391e-11 4.95093e-07 -4.65008e-28 4.95093e-07)
(8.46373e-07 -5.17764e-09 -3.34056e-11 8.46373e-07 -9.93938e-25 8.46373e-07)
(8.46373e-07 -5.17764e-09 -3.34056e-11 8.46373e-07 -1.14928e-27 8.46373e-07)
(1.35192e-06 -1.0975e-08 -7.18391e-11 1.35192e-06 -2.15473e-24 1.35192e-06)
(1.35192e-06 -1.0975e-08 -7.18391e-11 1.35192e-06 -1.49812e-27 1.35192e-06)
(2.04956e-06 -2.14012e-08 -1.42123e-10 2.04956e-06 -4.29011e-24 2.04956e-06)
(2.04956e-06 -2.14012e-08 -1.42123e-10 2.04956e-06 -2.3202e-27 2.04956e-06)
(2.98138e-06 -3.90614e-08 -2.63174e-10 2.98138e-06 -7.98729e-24 2.98138e-06)
(2.98138e-06 -3.90614e-08 -2.63174e-10 2.98138e-06 -5.02564e-27 2.98138e-06)
(4.19399e-06 -6.7569e-08 -4.61862e-10 4.19399e-06 -1.40844e-23 4.19399e-06)
(4.19399e-06 -6.7569e-08 -4.61862e-10 4.19399e-06 -2.73403e-27 4.19399e-06)
(5.7387e-06 -1.11805e-07 -7.75343e-10 5.7387e-06 -2.37445e-23 5.7387e-06)
(5.7387e-06 -1.11805e-07 -7.75343e-10 5.7387e-06 -1.17584e-26 5.7387e-06)
(7.67184e-06 -1.7822e-07 -1.25388e-09 7.67184e-06 -3.85395e-23 7.67184e-06)
(7.67184e-06 -1.7822e-07 -1.25388e-09 7.67184e-06 -2.52298e-26 7.67184e-06)
(1.0055e-05 -2.7518e-07 -1.96419e-09 1.0055e-05 -6.05741e-23 1.0055e-05)
(1.0055e-05 -2.7518e-07 -1.96419e-09 1.0055e-05 -4.0681e-26 1.0055e-05)
(1.29554e-05 -4.1337e-07 -2.99345e-09 1.29554e-05 -9.26214e-23 1.29554e-05)
(1.29554e-05 -4.1337e-07 -2.99345e-09 1.29554e-05 -3.04809e-26 1.29554e-05)
(1.6446e-05 -6.0624e-07 -4.45393e-09 1.6446e-05 -1.38222e-22 1.6446e-05)
(1.6446e-05 -6.0624e-07 -4.45393e-09 1.6446e-05 -6.0631e-41 1.6446e-05)
(2.06059e-05 -8.70519e-07 -6.48845e-09 2.06059e-05 -2.0184e-22 2.06059e-05)
(2.06059e-05 -8.70519e-07 -6.48845e-09 2.06059e-05 -5.01617e-26 2.06059e-05)
(2.55207e-05 -1.22678e-06 -9.27664e-09 2.55207e-05 -2.89259e-22 2.55207e-05)
(2.55207e-05 -1.22678e-06 -9.27664e-09 2.55207e-05 3.35312e-26 2.55207e-05)
(3.12824e-05 -1.70005e-06 -1.30421e-08 3.12824e-05 -4.07606e-22 3.12824e-05)
(3.12824e-05 -1.70005e-06 -1.30421e-08 3.12824e-05 1.91856e-25 3.12824e-05)
(3.79902e-05 -2.3205e-06 -1.80603e-08 3.79902e-05 -5.6556e-22 3.79902e-05)
(3.79902e-05 -2.3205e-06 -1.80603e-08 3.79902e-05 2.73165e-25 3.79902e-05)
(4.57501e-05 -3.12418e-06 -2.4668e-08 4.57501e-05 -7.73572e-22 4.57501e-05)
(4.57501e-05 -3.12418e-06 -2.4668e-08 4.57501e-05 2.65903e-25 4.57501e-05)
(5.46754e-05 -4.15374e-06 -3.32728e-08 5.46754e-05 -1.04394e-21 5.46754e-05)
(5.46754e-05 -4.15374e-06 -3.32728e-08 5.46754e-05 7.71204e-26 5.46754e-05)
(6.48865e-05 -5.45924e-06 -4.43639e-08 6.48865e-05 -1.3921e-21 6.48865e-05)
(6.48865e-05 -5.45924e-06 -4.43639e-08 6.48865e-05 9.69237e-25 6.48865e-05)
(7.65111e-05 -7.09893e-06 -5.8524e-08 7.65111e-05 -1.83529e-21 7.65111e-05)
(7.65111e-05 -7.09893e-06 -5.8524e-08 7.65111e-05 7.53263e-25 7.65111e-05)
(8.9684e-05 -9.13999e-06 -7.64407e-08 8.9684e-05 -2.39528e-21 8.9684e-05)
(8.9684e-05 -9.13999e-06 -7.64407e-08 8.9684e-05 -2.67628e-24 8.9684e-05)
(0.000104547 -1.16592e-05 -9.89193e-08 0.000104547 -3.09422e-21 0.000104547)
(0.000104547 -1.16592e-05 -9.89193e-08 0.000104547 -6.41051e-24 0.000104547)
(0.000121247 -1.47437e-05 -1.26894e-07 0.000121247 -3.95738e-21 0.000121247)
(0.000121247 -1.47437e-05 -1.26894e-07 0.000121247 -1.06134e-23 0.000121247)
(0.000139937 -1.84909e-05 -1.61441e-07 0.000139937 -5.01499e-21 0.000139937)
(0.000139937 -1.84909e-05 -1.61441e-07 0.000139937 -1.07059e-23 0.000139937)
(0.000160777 -2.30095e-05 -2.03784e-07 0.000160777 -6.29623e-21 0.000160777)
(0.000160777 -2.30095e-05 -2.03784e-07 0.000160777 -2.95417e-24 0.000160777)
(0.000183928 -2.84185e-05 -2.55308e-07 0.000183928 -7.83906e-21 0.000183928)
(0.000183928 -2.84185e-05 -2.55308e-07 0.000183928 -9.55602e-25 0.000183928)
(0.000209554 -3.48474e-05 -3.1756e-07 0.000209554 -9.67248e-21 0.000209554)
(0.000209554 -3.48474e-05 -3.1756e-07 0.000209554 -3.58847e-23 0.000209554)
(0.00023782 -4.24353e-05 -3.92248e-07 0.00023782 -1.18283e-20 0.00023782)
(0.00023782 -4.24353e-05 -3.92248e-07 0.00023782 -6.15506e-23 0.00023782)
(0.000268889 -5.13289e-05 -4.81241e-07 0.000268889 -1.43446e-20 0.000268889)
(0.000268889 -5.13289e-05 -4.81241e-07 0.000268889 -4.00419e-23 0.000268889)
(0.00030292 -6.16813e-05 -5.86557e-07 0.00030292 -1.72538e-20 0.00030292)
(0.00030292 -6.16813e-05 -5.86557e-07 0.00030292 -2.49418e-23 0.00030292)
(0.000340066 -7.36495e-05 -7.10344e-07 0.000340066 -2.05867e-20 0.000340066)
(0.000340066 -7.36495e-05 -7.10344e-07 0.000340066 -2.63624e-23 0.000340066)
(0.000380473 -8.73907e-05 -8.54858e-07 0.000380473 -2.43371e-20 0.000380473)
(0.000380473 -8.73907e-05 -8.54858e-07 0.000380473 -8.02174e-23 0.000380473)
(0.00042427 -0.00010306 -1.02243e-06 0.00042427 -2.85171e-20 0.00042427)
(0.00042427 -0.00010306 -1.02243e-06 0.00042427 -1.21919e-22 0.00042427)
(0.000471573 -0.000120804 -1.21542e-06 0.000471573 -3.31634e-20 0.000471573)
(0.000471573 -0.000120804 -1.21542e-06 0.000471573 -1.43872e-22 0.000471573)
(0.000522481 -0.000140759 -1.43619e-06 0.000522481 -3.82006e-20 0.000522481)
(0.000522481 -0.000140759 -1.43619e-06 0.000522481 -1.82679e-22 0.000522481)
(0.000577067 -0.000163046 -1.68703e-06 0.000577067 -4.35714e-20 0.000577067)
(0.000577067 -0.000163046 -1.68703e-06 0.000577067 -1.99361e-22 0.000577067)
(0.000635381 -0.000187764 -1.97012e-06 0.000635381 -4.92474e-20 0.000635381)
(0.000635381 -0.000187764 -1.97012e-06 0.000635381 -2.64447e-22 0.000635381)
(0.000697443 -0.000214989 -2.28745e-06 0.000697443 -5.52153e-20 0.000697443)
(0.000697443 -0.000214989 -2.28745e-06 0.000697443 -2.94528e-22 0.000697443)
(0.000763245 -0.000244767 -2.6408e-06 0.000763245 -6.13759e-20 0.000763245)
(0.000763245 -0.000244767 -2.6408e-06 0.000763245 -2.55035e-22 0.000763245)
(0.000832745 -0.000277114 -3.03165e-06 0.000832745 -6.76501e-20 0.000832745)
(0.000832745 -0.000277114 -3.03165e-06 0.000832745 -3.61112e-22 0.000832745)
(0.000905867 -0.00031201 -3.46117e-06 0.000905867 -7.38843e-20 0.000905867)
(0.000905867 -0.00031201 -3.46117e-06 0.000905867 -6.00199e-22 0.000905867)
(0.000982503 -0.000349402 -3.93017e-06 0.000982503 -8.00039e-20 0.000982503)
(0.000982503 -0.000349402 -3.93017e-06 0.000982503 -7.74764e-22 0.000982503)
(0.00106251 -0.000389203 -4.43906e-06 0.00106251 -8.60262e-20 0.00106251)
(0.00106251 -0.000389203 -4.43906e-06 0.00106251 -8.46824e-22 0.00106251)
(0.00114572 -0.000431293 -4.98788e-06 0.00114572 -9.15676e-20 0.00114572)
(0.00114572 -0.000431293 -4.98788e-06 0.00114572 -8.47149e-22 0.00114572)
(0.00123192 -0.000475519 -5.57628e-06 0.00123192 -9.6794e-20 0.00123192)
(0.00123192 -0.000475519 -5.57628e-06 0.00123192 -7.45824e-22 0.00123192)
(0.00132089 -0.000521704 -6.20351e-06 0.00132089 -1.0199e-19 0.00132089)
(0.00132089 -0.000521704 -6.20351e-06 0.00132089 -5.74218e-22 0.00132089)
(0.00141237 -0.000569647 -6.86853e-06 0.00141237 -1.06367e-19 0.00141237)
(0.00141237 -0.000569647 -6.86853e-06 0.00141237 -7.53463e-22 0.00141237)
(0.00150609 -0.000619131 -7.56993e-06 0.00150609 -1.1005e-19 0.00150609)
(0.00150609 -0.000619131 -7.56993e-06 0.00150609 -1.26089e-21 0.00150609)
(0.00160176 -0.000669924 -8.30609e-06 0.00160176 -1.12995e-19 0.00160176)
(0.00160176 -0.000669924 -8.30609e-06 0.00160176 -1.26175e-21 0.00160176)
(0.0016991 -0.00072179 -9.07516e-06 0.0016991 -1.15817e-19 0.0016991)
(0.0016991 -0.00072179 -9.07516e-06 0.0016991 -1.50029e-21 0.0016991)
(0.00179779 -0.000774488 -9.87513e-06 0.00179779 -1.1792e-19 0.00179779)
(0.00179779 -0.000774488 -9.87513e-06 0.00179779 -1.82463e-21 0.00179779)
(0.00189754 -0.000827784 -1.07039e-05 0.00189754 -1.19366e-19 0.00189754)
(0.00189754 -0.000827784 -1.07039e-05 0.00189754 -1.03435e-21 0.00189754)
(0.00199804 -0.000881446 -1.15593e-05 0.00199804 -1.21157e-19 0.00199804)
(0.00199804 -0.000881446 -1.15593e-05 0.00199804 -8.73684e-22 0.00199804)
(0.00209901 -0.000935256 -1.24391e-05 0.00209901 -1.22603e-19 0.00209901)
(0.00209901 -0.000935256 -1.24391e-05 0.00209901 -2.4831e-21 0.00209901)
(0.00220016 -0.000989009 -1.33412e-05 0.00220016 -1.23454e-19 0.00220016)
(0.00220016 -0.000989009 -1.33412e-05 0.00220016 -3.81127e-21 0.00220016)
(0.00230122 -0.00104252 -1.42636e-05 0.00230122 -1.24642e-19 0.00230122)
(0.00230122 -0.00104252 -1.42636e-05 0.00230122 -3.36528e-21 0.00230122)
(0.00240195 -0.0010956 -1.52042e-05 0.00240195 -1.25853e-19 0.00240195)
(0.00240195 -0.0010956 -1.52042e-05 0.00240195 -1.87755e-21 0.00240195)
(0.00250211 -0.00114811 -1.61611e-05 0.00250211 -1.2785e-19 0.00250211)
(0.00250211 -0.00114811 -1.61611e-05 0.00250211 -2.53085e-21 0.00250211)
(0.00260148 -0.00119991 -1.71326e-05 0.00260148 -1.30344e-19 0.00260148)
(0.00260148 -0.00119991 -1.71326e-05 0.00260148 -3.67367e-21 0.00260148)
(0.00269986 -0.00125088 -1.81172e-05 0.00269986 -1.323e-19 0.00269986)
(0.00269986 -0.00125088 -1.81172e-05 0.00269986 -1.17945e-21 0.00269986)
(0.00279707 -0.00130092 -1.91133e-05 0.00279707 -9.18978e-20 0.00279707)
(0.00279707 -0.00130092 -1.91133e-05 0.00279707 -3.01743e-22 0.00279707)
(0.00289296 -0.00134994 -2.01197e-05 0.00289296 -2.90583e-20 0.00289296)
(0.00289296 -0.00134994 -2.01197e-05 0.00289296 -2.38469e-21 0.00289296)
(0.00298739 -0.00139787 -2.11351e-05 0.00298739 -1.09693e-20 0.00298739)
(0.00298739 -0.00139787 -2.11351e-05 0.00298739 -4.61258e-21 0.00298739)
(0.00308024 -0.00144467 -2.21587e-05 0.00308024 -1.77825e-20 0.00308024)
(0.00308024 -0.00144467 -2.21587e-05 0.00308024 -5.98243e-21 0.00308024)
(0.00317139 -0.00149027 -2.31894e-05 0.00317139 -1.85412e-20 0.00317139)
(0.00317139 -0.00149027 -2.31894e-05 0.00317139 -4.76611e-21 0.00317139)
(0.00326077 -0.00153467 -2.42266e-05 0.00326077 -1.37123e-20 0.00326077)
(0.00326077 -0.00153467 -2.42266e-05 0.00326077 -1.86303e-21 0.00326077)
(0.0033483 -0.00157783 -2.52697e-05 0.0033483 -8.82458e-21 0.0033483)
(0.0033483 -0.00157783 -2.52697e-05 0.0033483 -1.48142e-21 0.0033483)
(0.00343393 -0.00161974 -2.63181e-05 0.00343393 -1.65908e-20 0.00343393)
(0.00343393 -0.00161974 -2.63181e-05 0.00343393 -5.32179e-21 0.00343393)
(0.0035176 -0.0016604 -2.73714e-05 0.0035176 -1.9047e-20 0.0035176)
(0.0035176 -0.0016604 -2.73714e-05 0.0035176 -8.01962e-21 0.0035176)
(0.0035993 -0.00169983 -2.84293e-05 0.0035993 -2.06165e-20 0.0035993)
(0.0035993 -0.00169983 -2.84293e-05 0.0035993 -5.94113e-21 0.0035993)
(0.003679 -0.00173801 -2.94915e-05 0.003679 -2.4856e-20 0.003679)
(0.003679 -0.00173801 -2.94915e-05 0.003679 1.96984e-21 0.003679)
(0.00375668 -0.00177498 -3.0558e-05 0.00375668 -2.83505e-20 0.00375668)
(0.00375668 -0.00177498 -3.0558e-05 0.00375668 3.07566e-21 0.00375668)
(0.00383235 -0.00181074 -3.16286e-05 0.00383235 -2.66225e-20 0.00383235)
(0.00383235 -0.00181074 -3.16286e-05 0.00383235 -3.75101e-21 0.00383235)
(0.00390601 -0.00184533 -3.27033e-05 0.00390601 -3.99122e-20 0.00390601)
(0.00390601 -0.00184533 -3.27033e-05 0.00390601 -7.95332e-21 0.00390601)
(0.00397767 -0.00187877 -3.37821e-05 0.00397767 -6.2717e-20 0.00397767)
(0.00397767 -0.00187877 -3.37821e-05 0.00397767 -4.96935e-21 0.00397767)
(0.00404735 -0.00191107 -3.48651e-05 0.00404735 -5.43651e-20 0.00404735)
(0.00404735 -0.00191107 -3.48651e-05 0.00404735 9.22157e-21 0.00404735)
(0.00411507 -0.00194228 -3.59524e-05 0.00411507 -6.7654e-20 0.00411507)
(0.00411507 -0.00194228 -3.59524e-05 0.00411507 6.44871e-21 0.00411507)
(0.00418086 -0.00197243 -3.70441e-05 0.00418086 -9.43302e-20 0.00418086)
(0.00418086 -0.00197243 -3.70441e-05 0.00418086 -2.52821e-20 0.00418086)
(0.00424475 -0.00200153 -3.81404e-05 0.00424475 -8.98676e-20 0.00424475)
(0.00424475 -0.00200153 -3.81404e-05 0.00424475 -3.95629e-20 0.00424475)
(0.00430677 -0.00202963 -3.92415e-05 0.00430677 -9.31996e-20 0.00430677)
(0.00430677 -0.00202963 -3.92415e-05 0.00430677 -1.86275e-20 0.00430677)
(0.00436696 -0.00205676 -4.03477e-05 0.00436696 -1.23377e-19 0.00436696)
(0.00436696 -0.00205676 -4.03477e-05 0.00436696 3.80914e-21 0.00436696)
(0.00442536 -0.00208294 -4.14592e-05 0.00442536 -1.31174e-19 0.00442536)
(0.00442536 -0.00208294 -4.14592e-05 0.00442536 7.28973e-21 0.00442536)
(0.004482 -0.00210821 -4.25761e-05 0.004482 -1.33032e-19 0.004482)
(0.004482 -0.00210821 -4.25761e-05 0.004482 -1.46096e-20 0.004482)
(0.00453693 -0.0021326 -4.36989e-05 0.00453693 -1.67872e-19 0.00453693)
(0.00453693 -0.0021326 -4.36989e-05 0.00453693 -3.32442e-20 0.00453693)
(0.00459018 -0.00215613 -4.48278e-05 0.00459018 -1.9031e-19 0.00459018)
(0.00459018 -0.00215613 -4.48278e-05 0.00459018 -1.97143e-20 0.00459018)
(0.00464181 -0.00217885 -4.59631e-05 0.00464181 -1.9454e-19 0.00464181)
(0.00464181 -0.00217885 -4.59631e-05 0.00464181 -9.17795e-21 0.00464181)
(0.00469184 -0.00220077 -4.7105e-05 0.00469184 -1.96586e-19 0.00469184)
(0.00469184 -0.00220077 -4.7105e-05 0.00469184 -2.36518e-20 0.00469184)
(0.00474033 -0.00222193 -4.8254e-05 0.00474033 -2.14551e-19 0.00474033)
(0.00474033 -0.00222193 -4.8254e-05 0.00474033 -2.24959e-20 0.00474033)
(0.00478731 -0.00224235 -4.94102e-05 0.00478731 -2.3745e-19 0.00478731)
(0.00478731 -0.00224235 -4.94102e-05 0.00478731 -7.86367e-21 0.00478731)
(0.00483283 -0.00226205 -5.0574e-05 0.00483283 -2.59196e-19 0.00483283)
(0.00483283 -0.00226205 -5.0574e-05 0.00483283 -1.7758e-20 0.00483283)
(0.00487692 -0.00228108 -5.17458e-05 0.00487692 -2.71667e-19 0.00487692)
(0.00487692 -0.00228108 -5.17458e-05 0.00487692 -5.35867e-20 0.00487692)
(0.00491964 -0.00229944 -5.29258e-05 0.00491964 -3.11038e-19 0.00491964)
(0.00491964 -0.00229944 -5.29258e-05 0.00491964 -4.51563e-20 0.00491964)
(0.00496101 -0.00231716 -5.41143e-05 0.00496101 -3.12035e-19 0.00496101)
(0.00496101 -0.00231716 -5.41143e-05 0.00496101 1.79856e-20 0.00496101)
(0.00500107 -0.00233427 -5.53117e-05 0.00500107 -3.03157e-19 0.00500107)
(0.00500107 -0.00233427 -5.53117e-05 0.00500107 6.07395e-20 0.00500107)
(0.00503987 -0.00235079 -5.65183e-05 0.00503987 -3.60355e-19 0.00503987)
(0.00503987 -0.00235079 -5.65183e-05 0.00503987 3.27491e-20 0.00503987)
(0.00507744 -0.00236674 -5.77344e-05 0.00507744 -4.14332e-19 0.00507744)
(0.00507744 -0.00236674 -5.77344e-05 0.00507744 -2.75177e-21 0.00507744)
(0.00511382 -0.00238214 -5.89603e-05 0.00511382 -4.06722e-19 0.00511382)
(0.00511382 -0.00238214 -5.89603e-05 0.00511382 7.35935e-21 0.00511382)
(0.00514904 -0.00239701 -6.01963e-05 0.00514904 -4.00677e-19 0.00514904)
(0.00514904 -0.00239701 -6.01963e-05 0.00514904 3.08059e-21 0.00514904)
(0.00518313 -0.00241136 -6.14428e-05 0.00518313 -4.83631e-19 0.00518313)
(0.00518313 -0.00241136 -6.14428e-05 0.00518313 1.95859e-20 0.00518313)
(0.00521614 -0.00242522 -6.27e-05 0.00521614 -5.47983e-19 0.00521614)
(0.00521614 -0.00242522 -6.27e-05 0.00521614 4.83559e-20 0.00521614)
(0.00524808 -0.00243861 -6.39683e-05 0.00524808 -5.5469e-19 0.00524808)
(0.00524808 -0.00243861 -6.39683e-05 0.00524808 7.76516e-21 0.00524808)
(0.005279 -0.00245153 -6.52479e-05 0.005279 -5.69548e-19 0.005279)
(0.005279 -0.00245153 -6.52479e-05 0.005279 -1.15956e-20 0.005279)
(0.00530892 -0.00246401 -6.65393e-05 0.00530892 -5.79365e-19 0.00530892)
(0.00530892 -0.00246401 -6.65393e-05 0.00530892 2.03214e-20 0.00530892)
(0.00533787 -0.00247606 -6.78425e-05 0.00533787 -6.28648e-19 0.00533787)
(0.00533787 -0.00247606 -6.78425e-05 0.00533787 3.17126e-20 0.00533787)
(0.00536589 -0.0024877 -6.91581e-05 0.00536589 -7.30219e-19 0.00536589)
(0.00536589 -0.0024877 -6.91581e-05 0.00536589 6.08692e-21 0.00536589)
(0.00539299 -0.00249893 -7.04862e-05 0.00539299 -7.19138e-19 0.00539299)
(0.00539299 -0.00249893 -7.04862e-05 0.00539299 -1.19582e-20 0.00539299)
(0.0054192 -0.00250978 -7.18272e-05 0.0054192 -7.41416e-19 0.0054192)
(0.0054192 -0.00250978 -7.18272e-05 0.0054192 1.6457e-20 0.0054192)
(0.00544455 -0.00252025 -7.31814e-05 0.00544455 -8.34924e-19 0.00544455)
(0.00544455 -0.00252025 -7.31814e-05 0.00544455 1.22422e-20 0.00544455)
(0.00546907 -0.00253036 -7.4549e-05 0.00546907 -8.88082e-19 0.00546907)
(0.00546907 -0.00253036 -7.4549e-05 0.00546907 -1.37592e-20 0.00546907)
(0.00549277 -0.00254011 -7.59303e-05 0.00549277 -9.26107e-19 0.00549277)
(0.00549277 -0.00254011 -7.59303e-05 0.00549277 1.75584e-20 0.00549277)
(0.00551568 -0.00254953 -7.73257e-05 0.00551568 -9.40576e-19 0.00551568)
(0.00551568 -0.00254953 -7.73257e-05 0.00551568 3.46165e-20 0.00551568)
(0.00553782 -0.00255861 -7.87354e-05 0.00553782 -1.03962e-18 0.00553782)
(0.00553782 -0.00255861 -7.87354e-05 0.00553782 1.78818e-20 0.00553782)
(0.00555921 -0.00256738 -8.01596e-05 0.00555921 -1.08462e-18 0.00555921)
(0.00555921 -0.00256738 -8.01596e-05 0.00555921 2.51055e-20 0.00555921)
(0.00557987 -0.00257583 -8.15987e-05 0.00557987 -1.03036e-18 0.00557987)
(0.00557987 -0.00257583 -8.15987e-05 0.00557987 1.50157e-20 0.00557987)
(0.00559982 -0.00258398 -8.3053e-05 0.00559982 -1.15146e-18 0.00559982)
(0.00559982 -0.00258398 -8.3053e-05 0.00559982 4.86326e-20 0.00559982)
(0.00561908 -0.00259184 -8.45227e-05 0.00561908 -1.19664e-18 0.00561908)
(0.00561908 -0.00259184 -8.45227e-05 0.00561908 3.97712e-20 0.00561908)
(0.00563767 -0.00259941 -8.60081e-05 0.00563767 -1.15098e-18 0.00563767)
(0.00563767 -0.00259941 -8.60081e-05 0.00563767 -7.60636e-21 0.00563767)
(0.00565561 -0.00260671 -8.75095e-05 0.00565561 -1.22072e-18 0.00565561)
(0.00565561 -0.00260671 -8.75095e-05 0.00565561 -5.14722e-21 0.00565561)
(0.0056729 -0.00261374 -8.90271e-05 0.0056729 -1.33233e-18 0.0056729)
(0.0056729 -0.00261374 -8.90271e-05 0.0056729 -1.23291e-20 0.0056729)
(0.00568957 -0.0026205 -9.05612e-05 0.00568957 -1.42626e-18 0.00568957)
(0.00568957 -0.0026205 -9.05612e-05 0.00568957 -2.07779e-20 0.00568957)
(0.00570563 -0.00262701 -9.21121e-05 0.00570563 -1.407e-18 0.00570563)
(0.00570563 -0.00262701 -9.21121e-05 0.00570563 -1.54742e-20 0.00570563)
(0.0057211 -0.00263328 -9.368e-05 0.0057211 -1.40942e-18 0.0057211)
(0.0057211 -0.00263328 -9.368e-05 0.0057211 4.60902e-20 0.0057211)
(0.00573599 -0.00263929 -9.52652e-05 0.00573599 -1.53846e-18 0.00573599)
(0.00573599 -0.00263929 -9.52652e-05 0.00573599 4.8606e-21 0.00573599)
(0.00575031 -0.00264508 -9.6868e-05 0.00575031 -1.58e-18 0.00575031)
(0.00575031 -0.00264508 -9.6868e-05 0.00575031 3.30074e-20 0.00575031)
(0.00576408 -0.00265063 -9.84885e-05 0.00576408 -1.62522e-18 0.00576408)
(0.00576408 -0.00265063 -9.84885e-05 0.00576408 5.25932e-20 0.00576408)
(0.0057773 -0.00265595 -0.000100127 0.0057773 -1.6844e-18 0.0057773)
(0.0057773 -0.00265595 -0.000100127 0.0057773 -4.95823e-20 0.0057773)
(0.00579 -0.00266106 -0.000101784 0.00579 -1.77532e-18 0.00579)
(0.00579 -0.00266106 -0.000101784 0.00579 8.51496e-21 0.00579)
(0.00580217 -0.00266595 -0.00010346 0.00580217 -1.86887e-18 0.00580217)
(0.00580217 -0.00266595 -0.00010346 0.00580217 1.35119e-19 0.00580217)
(0.00581384 -0.00267063 -0.000105154 0.00581384 -1.85353e-18 0.00581384)
(0.00581384 -0.00267063 -0.000105154 0.00581384 2.46164e-20 0.00581384)
(0.00582501 -0.0026751 -0.000106867 0.00582501 -1.8421e-18 0.00582501)
(0.00582501 -0.0026751 -0.000106867 0.00582501 6.35935e-20 0.00582501)
(0.00583569 -0.00267937 -0.0001086 0.00583569 -2.03934e-18 0.00583569)
(0.00583569 -0.00267937 -0.0001086 0.00583569 1.69175e-19 0.00583569)
(0.00584589 -0.00268344 -0.000110352 0.00584589 -2.1176e-18 0.00584589)
(0.00584589 -0.00268344 -0.000110352 0.00584589 1.71114e-19 0.00584589)
(0.00585563 -0.00268732 -0.000112124 0.00585563 -2.00806e-18 0.00585563)
(0.00585563 -0.00268732 -0.000112124 0.00585563 1.63548e-19 0.00585563)
(0.0058649 -0.00269101 -0.000113916 0.0058649 -2.15047e-18 0.0058649)
(0.0058649 -0.00269101 -0.000113916 0.0058649 2.20327e-19 0.0058649)
(0.00587372 -0.0026945 -0.000115729 0.00587372 -2.23293e-18 0.00587372)
(0.00587372 -0.0026945 -0.000115729 0.00587372 4.43104e-19 0.00587372)
(0.00588209 -0.00269782 -0.000117562 0.00588209 -2.36043e-18 0.00588209)
(0.00588209 -0.00269782 -0.000117562 0.00588209 3.08942e-19 0.00588209)
(0.00589003 -0.00270095 -0.000119415 0.00589003 -2.2675e-18 0.00589003)
(0.00589003 -0.00270095 -0.000119415 0.00589003 3.61287e-19 0.00589003)
(0.00589754 -0.0027039 -0.00012129 0.00589754 -2.33511e-18 0.00589754)
(0.00589754 -0.0027039 -0.00012129 0.00589754 5.18327e-19 0.00589754)
(0.00590462 -0.00270668 -0.000123185 0.00590462 -2.4982e-18 0.00590462)
(0.00590462 -0.00270668 -0.000123185 0.00590462 6.27184e-19 0.00590462)
(0.00591129 -0.00270928 -0.000125102 0.00591129 -2.31693e-18 0.00591129)
(0.00591129 -0.00270928 -0.000125102 0.00591129 5.80939e-19 0.00591129)
(0.00591755 -0.00271172 -0.000127041 0.00591755 -2.43059e-18 0.00591755)
(0.00591755 -0.00271172 -0.000127041 0.00591755 7.07427e-19 0.00591755)
(0.0059234 -0.00271398 -0.000129001 0.0059234 -2.73717e-18 0.0059234)
(0.0059234 -0.00271398 -0.000129001 0.0059234 8.25485e-19 0.0059234)
(0.00592885 -0.00271608 -0.000130984 0.00592885 -2.65643e-18 0.00592885)
(0.00592885 -0.00271608 -0.000130984 0.00592885 8.68795e-19 0.00592885)
(0.00593391 -0.00271801 -0.000132989 0.00593391 -2.60695e-18 0.00593391)
(0.00593391 -0.00271801 -0.000132989 0.00593391 9.38399e-19 0.00593391)
(0.00593858 -0.00271979 -0.000135016 0.00593858 -2.79065e-18 0.00593858)
(0.00593858 -0.00271979 -0.000135016 0.00593858 9.95724e-19 0.00593858)
(0.00594286 -0.0027214 -0.000137066 0.00594286 -2.71369e-18 0.00594286)
(0.00594286 -0.0027214 -0.000137066 0.00594286 1.09877e-18 0.00594286)
(0.00594677 -0.00272285 -0.000139138 0.00594677 -2.85552e-18 0.00594677)
(0.00594677 -0.00272285 -0.000139138 0.00594677 1.10868e-18 0.00594677)
(0.0059503 -0.00272414 -0.000141234 0.0059503 -3.42387e-18 0.0059503)
(0.0059503 -0.00272414 -0.000141234 0.0059503 1.24611e-18 0.0059503)
(0.00595346 -0.00272528 -0.000143353 0.00595346 -3.28901e-18 0.00595346)
(0.00595346 -0.00272528 -0.000143353 0.00595346 1.38126e-18 0.00595346)
(0.00595625 -0.00272626 -0.000145495 0.00595625 -2.83012e-18 0.00595625)
(0.00595625 -0.00272626 -0.000145495 0.00595625 1.58952e-18 0.00595625)
(0.00595868 -0.00272709 -0.000147661 0.00595868 -2.88428e-18 0.00595868)
(0.00595868 -0.00272709 -0.000147661 0.00595868 1.82441e-18 0.00595868)
(0.00596075 -0.00272777 -0.000149851 0.00596075 -2.93484e-18 0.00596075)
(0.00596075 -0.00272777 -0.000149851 0.00596075 1.54313e-18 0.00596075)
(0.00596247 -0.0027283 -0.000152064 0.00596247 -3.4031e-18 0.00596247)
(0.00596247 -0.0027283 -0.000152064 0.00596247 1.61558e-18 0.00596247)
(0.00596383 -0.00272867 -0.000154302 0.00596383 -3.57041e-18 0.00596383)
(0.00596383 -0.00272867 -0.000154302 0.00596383 2.37505e-18 0.00596383)
(0.00596483 -0.0027289 -0.000156564 0.00596483 -3.3156e-18 0.00596483)
(0.00596483 -0.0027289 -0.000156564 0.00596483 2.59987e-18 0.00596483)
(0.0059655 -0.00272898 -0.00015885 0.0059655 -3.35791e-18 0.0059655)
(0.0059655 -0.00272898 -0.00015885 0.0059655 2.16696e-18 0.0059655)
(0.00596581 -0.0027289 -0.000161161 0.00596581 -3.12099e-18 0.00596581)
(0.00596581 -0.0027289 -0.000161161 0.00596581 1.45417e-18 0.00596581)
(0.00596578 -0.00272869 -0.000163497 0.00596578 -3.87849e-18 0.00596578)
(0.00596578 -0.00272869 -0.000163497 0.00596578 5.02128e-19 0.00596578)
(0.00596541 -0.00272832 -0.000165857 0.00596541 -3.87378e-18 0.00596541)
(0.00596541 -0.00272832 -0.000165857 0.00596541 -8.40075e-20 0.00596541)
(0.0059647 -0.00272781 -0.000168242 0.0059647 -4.04863e-18 0.0059647)
(0.0059647 -0.00272781 -0.000168242 0.0059647 1.42026e-20 0.0059647)
(0.00596366 -0.00272716 -0.000170653 0.00596366 -4.39449e-18 0.00596366)
(0.00596366 -0.00272716 -0.000170653 0.00596366 9.34449e-20 0.00596366)
(0.00596228 -0.00272636 -0.000173088 0.00596228 -4.67981e-18 0.00596228)
(0.00596228 -0.00272636 -0.000173088 0.00596228 -1.16628e-19 0.00596228)
(0.00596056 -0.00272541 -0.000175549 0.00596056 -4.32734e-18 0.00596056)
(0.00596056 -0.00272541 -0.000175549 0.00596056 -1.37536e-19 0.00596056)
(0.00595852 -0.00272432 -0.000178035 0.00595852 -4.38783e-18 0.00595852)
(0.00595852 -0.00272432 -0.000178035 0.00595852 -3.32358e-19 0.00595852)
(0.00595614 -0.00272308 -0.000180547 0.00595614 -4.73564e-18 0.00595614)
(0.00595614 -0.00272308 -0.000180547 0.00595614 -2.49378e-19 0.00595614)
(0.00595343 -0.0027217 -0.000183084 0.00595343 -3.88603e-18 0.00595343)
(0.00595343 -0.0027217 -0.000183084 0.00595343 2.91108e-19 0.00595343)
(0.00595039 -0.00272017 -0.000185647 0.00595039 1.05211e-19 0.00595039)
(0.00595039 -0.00272017 -0.000185647 0.00595039 -1.61739e-19 0.00595039)
(0.00594703 -0.0027185 -0.000188236 0.00594703 1.45046e-18 0.00594703)
(0.00594703 -0.0027185 -0.000188236 0.00594703 -8.97014e-19 0.00594703)
(0.00594333 -0.00271669 -0.00019085 0.00594333 1.10714e-18 0.00594333)
(0.00594333 -0.00271669 -0.00019085 0.00594333 6.15941e-21 0.00594333)
(0.00593932 -0.00271473 -0.00019349 0.00593932 1.14385e-18 0.00593932)
(0.00593932 -0.00271473 -0.00019349 0.00593932 5.70896e-19 0.00593932)
(0.00593497 -0.00271262 -0.000196156 0.00593497 1.36861e-18 0.00593497)
(0.00593497 -0.00271262 -0.000196156 0.00593497 2.56265e-19 0.00593497)
(0.0059303 -0.00271037 -0.000198848 0.0059303 1.44063e-18 0.0059303)
(0.0059303 -0.00271037 -0.000198848 0.0059303 2.69793e-19 0.0059303)
(0.0059253 -0.00270798 -0.000201566 0.0059253 1.3421e-18 0.0059253)
(0.0059253 -0.00270798 -0.000201566 0.0059253 2.17427e-19 0.0059253)
(0.00591998 -0.00270544 -0.000204309 0.00591998 1.18097e-18 0.00591998)
(0.00591998 -0.00270544 -0.000204309 0.00591998 1.24503e-18 0.00591998)
(0.00591433 -0.00270275 -0.000207079 0.00591433 1.12957e-18 0.00591433)
(0.00591433 -0.00270275 -0.000207079 0.00591433 1.59644e-18 0.00591433)
(0.00590836 -0.00269991 -0.000209874 0.00590836 1.99725e-18 0.00590836)
(0.00590836 -0.00269991 -0.000209874 0.00590836 9.45438e-19 0.00590836)
(0.00590207 -0.00269693 -0.000212695 0.00590207 2.16368e-18 0.00590207)
(0.00590207 -0.00269693 -0.000212695 0.00590207 8.06592e-19 0.00590207)
(0.00589545 -0.0026938 -0.000215542 0.00589545 1.83e-18 0.00589545)
(0.00589545 -0.0026938 -0.000215542 0.00589545 1.12022e-18 0.00589545)
(0.0058885 -0.00269052 -0.000218414 0.0058885 1.92047e-18 0.0058885)
(0.0058885 -0.00269052 -0.000218414 0.0058885 1.56478e-18 0.0058885)
(0.00588122 -0.0026871 -0.000221312 0.00588122 2.54786e-18 0.00588122)
(0.00588122 -0.0026871 -0.000221312 0.00588122 1.43959e-18 0.00588122)
(0.00587363 -0.00268352 -0.000224235 0.00587363 3.04883e-18 0.00587363)
(0.00587363 -0.00268352 -0.000224235 0.00587363 4.47416e-19 0.00587363)
(0.0058657 -0.00267979 -0.000227184 0.0058657 3.36413e-18 0.0058657)
(0.0058657 -0.00267979 -0.000227184 0.0058657 2.59688e-19 0.0058657)
(0.00585745 -0.00267592 -0.000230158 0.00585745 2.6758e-18 0.00585745)
(0.00585745 -0.00267592 -0.000230158 0.00585745 2.8014e-19 0.00585745)
(0.00584886 -0.00267189 -0.000233157 0.00584886 2.59152e-18 0.00584886)
(0.00584886 -0.00267189 -0.000233157 0.00584886 2.57715e-19 0.00584886)
(0.00583995 -0.0026677 -0.000236181 0.00583995 2.33403e-18 0.00583995)
(0.00583995 -0.0026677 -0.000236181 0.00583995 1.09036e-18 0.00583995)
(0.00583071 -0.00266337 -0.000239229 0.00583071 3.02321e-18 0.00583071)
(0.00583071 -0.00266337 -0.000239229 0.00583071 7.77633e-19 0.00583071)
(0.00582114 -0.00265888 -0.000242303 0.00582114 3.61397e-18 0.00582114)
(0.00582114 -0.00265888 -0.000242303 0.00582114 -8.29993e-20 0.00582114)
(0.00581124 -0.00265423 -0.0002454 0.00581124 2.53164e-18 0.00581124)
(0.00581124 -0.00265423 -0.0002454 0.00581124 7.30693e-20 0.00581124)
(0.005801 -0.00264943 -0.000248522 0.005801 2.26664e-18 0.005801)
(0.005801 -0.00264943 -0.000248522 0.005801 2.17431e-18 0.005801)
(0.00579043 -0.00264447 -0.000251667 0.00579043 2.98551e-18 0.00579043)
(0.00579043 -0.00264447 -0.000251667 0.00579043 1.97948e-18 0.00579043)
(0.00577952 -0.00263936 -0.000254836 0.00577952 3.83689e-18 0.00577952)
(0.00577952 -0.00263936 -0.000254836 0.00577952 -3.37143e-19 0.00577952)
(0.00576828 -0.00263408 -0.000258028 0.00576828 3.04435e-18 0.00576828)
(0.00576828 -0.00263408 -0.000258028 0.00576828 8.44843e-19 0.00576828)
(0.0057567 -0.00262864 -0.000261242 0.0057567 2.10469e-18 0.0057567)
(0.0057567 -0.00262864 -0.000261242 0.0057567 2.93524e-18 0.0057567)
(0.00574478 -0.00262304 -0.00026448 0.00574478 2.8799e-18 0.00574478)
(0.00574478 -0.00262304 -0.00026448 0.00574478 1.86182e-18 0.00574478)
(0.00573252 -0.00261728 -0.000267739 0.00573252 2.30716e-18 0.00573252)