/*--------------------------------*- C++ -*----------------------------------*\
| =========                 |                                                 |
| \\      /  F ield         | OpenFOAM: The Open Source CFD Toolbox           |
|  \\    /   O peration     | Version:  2012                                  |
|   \\  /    A nd           | Website:  www.openfoam.com                      |
|    \\/     M anipulation  |                                                 |
\*---------------------------------------------------------------------------*/
FoamFile
{
    version     2.0;
    format      ascii;
    class       surfaceScalarField;
    location    "10000";
    object      phi;
}
// * * * * * * * * * * * * * * * * * * * * * * * * * * * * * * * * * * * * * //

dimensions      [0 3 -1 0 0 0 0];
oriented        oriented;


internalField   nonuniform List<scalar> 
5116
(
1.19154e-08
-5.43133e-18
6.47858e-24
-1.08424e-22
3.90311e-23
3.64378e-08
-5.43056e-18
-2.31085e-22
-6.59542e-22
1.88436e-23
6.20264e-08
-5.4298e-18
-2.21943e-22
-1.21329e-21
1.97392e-23
8.87175e-08
-5.42907e-18
-2.2004e-22
-1.74268e-21
2.07126e-23
1.16549e-07
-5.42835e-18
-2.17763e-22
-2.28057e-21
2.17724e-23
1.45559e-07
-5.42763e-18
-2.14062e-22
-2.83182e-21
2.29268e-23
1.75789e-07
-5.42691e-18
-2.09783e-22
-3.35357e-21
2.41836e-23
2.07279e-07
-5.42619e-18
-2.05187e-22
-3.88823e-21
2.55506e-23
2.40071e-07
-5.42545e-18
-2.00219e-22
-4.42578e-21
2.70372e-23
2.74211e-07
-5.42477e-18
-1.94821e-22
-4.98115e-21
2.86521e-23
3.09744e-07
-5.42403e-18
-1.88963e-22
-5.46618e-21
3.0405e-23
3.46715e-07
-5.42335e-18
-1.82613e-22
-6.02754e-21
3.23067e-23
3.85174e-07
-5.42267e-18
-1.7574e-22
-6.60153e-21
3.43672e-23
4.25169e-07
-5.422e-18
-1.68316e-22
-7.13629e-21
3.65985e-23
4.66753e-07
-5.42142e-18
-1.60309e-22
-7.56699e-21
3.90108e-23
5.09978e-07
-5.42075e-18
-1.51691e-22
-8.04496e-21
4.16152e-23
5.54898e-07
-5.42005e-18
-1.42436e-22
-8.58152e-21
4.44254e-23
6.0157e-07
-5.41969e-18
-1.32516e-22
-8.94041e-21
4.7456e-23
6.50051e-07
-5.41926e-18
-1.21902e-22
-9.34065e-21
5.07202e-23
7.00402e-07
-5.41893e-18
-1.10563e-22
-9.71444e-21
5.42338e-23
7.52682e-07
-5.41843e-18
-9.84711e-23
-1.0099e-20
5.80124e-23
8.06955e-07
-5.41805e-18
-8.5596e-23
-1.05392e-20
6.20725e-23
8.63287e-07
-5.41784e-18
-7.19112e-23
-1.08917e-20
6.64319e-23
9.21744e-07
-5.41742e-18
-5.73803e-23
-1.13336e-20
7.11115e-23
9.82394e-07
-5.41705e-18
-4.19744e-23
-1.16999e-20
7.61303e-23
1.04531e-06
-5.41649e-18
-2.56639e-23
-1.23336e-20
8.15095e-23
1.11056e-06
-5.41646e-18
-8.4151e-24
-1.28766e-20
8.727e-23
1.17822e-06
-5.41589e-18
9.814e-24
-1.33844e-20
9.34394e-23
1.24837e-06
-5.41545e-18
2.90489e-23
-1.38897e-20
1.00038e-22
1.32108e-06
-5.41572e-18
4.93259e-23
-1.40209e-20
1.07095e-22
1.39644e-06
-5.41571e-18
7.0689e-23
-1.42339e-20
1.14627e-22
1.47452e-06
-5.41546e-18
9.31671e-23
-1.48709e-20
1.22657e-22
1.55541e-06
-5.41564e-18
1.16789e-22
-1.49322e-20
1.3122e-22
1.63919e-06
-5.41568e-18
1.41594e-22
-1.51156e-20
1.4034e-22
1.72595e-06
-5.41579e-18
1.67616e-22
-1.5393e-20
1.50051e-22
1.81578e-06
-5.41553e-18
1.94869e-22
-1.55577e-20
1.60372e-22
1.90876e-06
-5.41601e-18
2.2336e-22
-1.52399e-20
1.71337e-22
2.00498e-06
-5.4159e-18
2.53141e-22
-1.58192e-20
1.82954e-22
2.10453e-06
-5.4157e-18
2.84189e-22
-1.6153e-20
1.95308e-22
2.2075e-06
-5.41524e-18
3.16514e-22
-1.69545e-20
2.08414e-22
2.31398e-06
-5.41603e-18
3.50124e-22
-1.70858e-20
2.22302e-22
2.42405e-06
-5.4169e-18
3.85064e-22
-1.63603e-20
2.36987e-22
2.53781e-06
-5.41781e-18
4.21341e-22
-1.58653e-20
2.52486e-22
2.65533e-06
-5.41858e-18
4.58945e-22
-1.51972e-20
2.68817e-22
2.77671e-06
-5.41952e-18
4.97882e-22
-1.53592e-20
2.85969e-22
2.90202e-06
-5.42005e-18
5.38125e-22
-1.51299e-20
3.03999e-22
3.03134e-06
-5.4213e-18
5.79637e-22
-1.54438e-20
3.22897e-22
3.16474e-06
-5.42188e-18
6.22433e-22
-1.53394e-20
3.42682e-22
3.30231e-06
-5.42244e-18
6.66438e-22
-1.60538e-20
3.6338e-22
3.44409e-06
-5.42427e-18
7.11596e-22
-1.54868e-20
3.84997e-22
3.59016e-06
-5.42554e-18
7.57853e-22
-1.54898e-20
4.07498e-22
3.74056e-06
-5.42623e-18
8.05121e-22
-1.47554e-20
4.3089e-22
3.89535e-06
-5.42693e-18
8.53258e-22
-1.43667e-20
4.55129e-22
4.05456e-06
-5.42729e-18
9.02149e-22
-1.47963e-20
4.80231e-22
4.21825e-06
-5.42877e-18
9.51637e-22
-1.52005e-20
5.06197e-22
4.38643e-06
-5.42974e-18
1.00166e-21
-1.54019e-20
5.33029e-22
4.55912e-06
-5.4313e-18
1.05207e-21
-1.54438e-20
5.60736e-22
4.73636e-06
-5.43201e-18
1.10276e-21
-1.62616e-20
5.8924e-22
4.91814e-06
-5.43496e-18
1.15362e-21
-1.53877e-20
6.18517e-22
5.10448e-06
-5.43742e-18
1.20451e-21
-1.41709e-20
6.48556e-22
5.29536e-06
-5.44027e-18
1.25534e-21
-1.28096e-20
6.7921e-22
5.4908e-06
-5.44295e-18
1.30601e-21
-1.21382e-20
7.10517e-22
5.69078e-06
-5.44636e-18
1.35636e-21
-1.21323e-20
7.42427e-22
5.89529e-06
-5.44891e-18
1.40631e-21
-1.20459e-20
7.74953e-22
6.10431e-06
-5.45183e-18
1.45569e-21
-1.14074e-20
8.0801e-22
6.31783e-06
-5.45449e-18
1.50436e-21
-9.43958e-21
8.41578e-22
6.53584e-06
-5.45923e-18
1.55227e-21
-7.48519e-21
8.75564e-22
6.75831e-06
-5.46352e-18
1.59946e-21
-5.64787e-21
9.09817e-22
6.98524e-06
-5.46623e-18
1.64574e-21
-5.90093e-21
9.44394e-22
7.2166e-06
-5.46889e-18
1.69101e-21
-3.24904e-21
9.79422e-22
7.45238e-06
-5.47211e-18
1.73523e-21
-2.1733e-21
1.01465e-21
7.69258e-06
-5.47475e-18
1.77827e-21
-3.76315e-21
1.05009e-21
7.93719e-06
-5.47566e-18
1.82002e-21
-5.75111e-21
1.08586e-21
8.18621e-06
-5.47749e-18
1.86036e-21
-8.46179e-21
1.12213e-21
8.43964e-06
-5.48276e-18
1.8991e-21
-5.4179e-21
1.15911e-21
8.69747e-06
-5.48807e-18
1.93654e-21
-2.77957e-21
1.19625e-21
8.95974e-06
-5.49169e-18
1.97272e-21
2.46224e-22
1.23359e-21
9.22644e-06
-5.49719e-18
2.00734e-21
7.47865e-22
1.27121e-21
9.4976e-06
-5.50352e-18
2.04064e-21
3.19378e-21
1.30948e-21
9.77325e-06
-5.50768e-18
2.07276e-21
4.97287e-21
1.34831e-21
1.00534e-05
-5.5121e-18
2.10346e-21
8.14961e-21
1.38775e-21
1.03381e-05
-5.51667e-18
2.13274e-21
1.00683e-20
1.42757e-21
1.06274e-05
-5.51851e-18
2.16063e-21
1.09063e-20
1.46786e-21
1.09213e-05
-5.52156e-18
2.18694e-21
1.19795e-20
1.50889e-21
1.12199e-05
-5.52325e-18
2.21166e-21
1.16939e-20
1.55049e-21
1.15233e-05
-5.52654e-18
2.23466e-21
1.20164e-20
1.59266e-21
1.18314e-05
-5.52883e-18
2.2562e-21
1.21213e-20
1.63523e-21
1.21444e-05
-5.53032e-18
2.276e-21
1.16111e-20
1.67823e-21
1.24623e-05
-5.53496e-18
2.29402e-21
1.05988e-20
1.72205e-21
1.27852e-05
-5.53688e-18
2.31066e-21
8.07119e-21
1.76647e-21
1.31131e-05
-5.53984e-18
2.32532e-21
6.23114e-21
1.81186e-21
1.34462e-05
-5.54339e-18
2.33838e-21
5.86315e-21
1.85793e-21
1.37844e-05
-5.5485e-18
2.34997e-21
6.4746e-21
1.90472e-21
1.4128e-05
-5.55709e-18
2.36013e-21
7.24318e-21
1.95235e-21
1.4477e-05
-5.56226e-18
2.36943e-21
7.6876e-21
2.00007e-21
1.48314e-05
-5.57153e-18
2.37735e-21
1.21944e-20
2.04779e-21
1.51914e-05
-5.57346e-18
2.38509e-21
1.1818e-20
2.0948e-21
1.5557e-05
-5.57289e-18
2.39118e-21
9.42416e-21
2.14246e-21
1.59284e-05
-5.56674e-18
2.39466e-21
4.84587e-21
2.19063e-21
1.63056e-05
-5.56643e-18
2.39494e-21
9.34717e-22
2.23959e-21
1.66888e-05
-5.5666e-18
2.39297e-21
-6.04824e-21
2.28892e-21
1.7078e-05
-5.57212e-18
2.38912e-21
-4.53581e-21
2.34009e-21
1.74734e-05
-5.58011e-18
2.38244e-21
-2.32536e-21
2.39097e-21
1.78751e-05
-5.59175e-18
2.37397e-21
5.85792e-21
2.44179e-21
1.82832e-05
-5.59878e-18
2.36482e-21
4.38107e-21
2.49049e-21
1.86978e-05
-5.60421e-18
2.35332e-21
6.34026e-21
2.5394e-21
1.9119e-05
-5.60962e-18
2.34045e-21
3.3897e-21
2.58912e-21
1.95469e-05
-5.61647e-18
2.32569e-21
3.23157e-21
2.63907e-21
1.99817e-05
-5.61994e-18
2.30916e-21
2.33374e-21
2.68934e-21
2.04234e-05
-5.62493e-18
2.28969e-21
1.37643e-21
2.74051e-21
2.08723e-05
-5.63025e-18
2.26881e-21
-1.51179e-21
2.79231e-21
2.13284e-05
-5.63301e-18
2.24595e-21
-6.10705e-21
2.84492e-21
2.17919e-05
-5.64154e-18
2.22083e-21
-8.89525e-21
2.89817e-21
2.22629e-05
-5.64467e-18
2.19415e-21
-1.32045e-20
2.95115e-21
2.27415e-05
-5.64624e-18
2.16536e-21
-1.76383e-20
3.00406e-21
2.32279e-05
-5.64652e-18
2.13408e-21
-2.0584e-20
3.05642e-21
2.37223e-05
-5.64481e-18
2.10051e-21
-2.74311e-20
3.10858e-21
2.42246e-05
-5.63748e-18
2.06442e-21
-2.70398e-20
3.16086e-21
2.47352e-05
-5.63875e-18
2.02501e-21
-3.38595e-20
3.21174e-21
2.52541e-05
-5.63768e-18
1.98459e-21
-3.8369e-20
3.26375e-21
2.57815e-05
-5.63332e-18
1.94244e-21
-4.50385e-20
3.31519e-21
2.63176e-05
-5.63151e-18
1.89707e-21
-5.45304e-20
3.36705e-21
2.68625e-05
-5.6282e-18
1.84936e-21
-6.08266e-20
3.41986e-21
2.74163e-05
-5.63143e-18
1.80083e-21
-6.28746e-20
3.47096e-21
2.79793e-05
-5.62879e-18
1.75242e-21
-7.44495e-20
3.52114e-21
2.85515e-05
-5.62475e-18
1.70188e-21
-8.27718e-20
3.57393e-21
2.91332e-05
-5.61724e-18
1.64945e-21
-9.14872e-20
3.62892e-21
2.97245e-05
-5.61195e-18
1.59355e-21
-9.45206e-20
3.68211e-21
3.03255e-05
-5.60681e-18
1.5355e-21
-1.03717e-19
3.73079e-21
3.09366e-05
-5.60441e-18
1.47385e-21
-1.0475e-19
3.77792e-21
3.15578e-05
-5.60113e-18
1.41179e-21
-1.15568e-19
3.82149e-21
3.21892e-05
-5.59431e-18
1.34707e-21
-1.27378e-19
3.86601e-21
3.28312e-05
-5.59016e-18
1.28025e-21
-1.26259e-19
3.90905e-21
3.34839e-05
-5.57599e-18
1.21377e-21
-1.45933e-19
3.94398e-21
3.41474e-05
-5.57113e-18
1.14334e-21
-1.5912e-19
3.97726e-21
3.4822e-05
-5.57023e-18
1.07227e-21
-1.70201e-19
4.00969e-21
3.55078e-05
-5.55871e-18
1.00134e-21
-1.89502e-19
4.03869e-21
3.6205e-05
-5.55267e-18
9.23796e-22
-2.05815e-19
4.06881e-21
3.69139e-05
-5.54829e-18
8.43927e-22
-2.13052e-19
4.10086e-21
3.76347e-05
-5.53856e-18
7.61536e-22
-2.0871e-19
4.13167e-21
3.83675e-05
-5.54083e-18
6.70589e-22
-2.21362e-19
4.15771e-21
3.91125e-05
-5.54058e-18
5.83633e-22
-2.25403e-19
4.18303e-21
3.98701e-05
-5.54684e-18
4.92437e-22
-2.3288e-19
4.2036e-21
4.06403e-05
-5.53985e-18
3.99088e-22
-2.37037e-19
4.22268e-21
4.14234e-05
-5.54037e-18
2.99754e-22
-2.37786e-19
4.24176e-21
4.22197e-05
-5.54081e-18
2.00979e-22
-2.44481e-19
4.25539e-21
4.30293e-05
-5.53226e-18
1.05841e-22
-2.52823e-19
4.25984e-21
4.38525e-05
-5.5307e-18
2.37774e-24
-2.54998e-19
4.2612e-21
4.46895e-05
-5.5243e-18
-9.91816e-23
-2.65124e-19
4.2606e-21
4.55406e-05
-5.5175e-18
-2.01642e-22
-2.74864e-19
4.26435e-21
4.6406e-05
-5.50827e-18
-3.00833e-22
-2.86649e-19
4.26652e-21
4.72859e-05
-5.50294e-18
-4.00964e-22
-2.98748e-19
4.27117e-21
4.81806e-05
-5.49205e-18
-4.97627e-22
-3.08281e-19
4.27277e-21
4.90904e-05
-5.46945e-18
-5.95295e-22
-3.25027e-19
4.26701e-21
5.00155e-05
-5.45913e-18
-7.04764e-22
-3.39634e-19
4.26604e-21
5.09561e-05
-5.44673e-18
-8.13206e-22
-3.49563e-19
4.26601e-21
5.19126e-05
-5.44036e-18
-9.25766e-22
-3.69003e-19
4.25901e-21
5.28852e-05
-5.42436e-18
-1.0313e-21
-3.86208e-19
4.25681e-21
5.38741e-05
-5.40621e-18
-1.14454e-21
-3.93871e-19
4.25408e-21
5.48797e-05
-5.38513e-18
-1.26796e-21
-4.08609e-19
4.24096e-21
5.59022e-05
-5.35158e-18
-1.39337e-21
-4.30005e-19
4.21393e-21
5.6942e-05
-5.34789e-18
-1.52702e-21
-4.47905e-19
4.19098e-21
5.79993e-05
-5.34565e-18
-1.65882e-21
-4.71363e-19
4.17639e-21
5.90744e-05
-5.33399e-18
-1.76998e-21
-4.82757e-19
4.14796e-21
6.01676e-05
-5.32767e-18
-1.88664e-21
-5.00617e-19
4.10859e-21
6.12792e-05
-5.3323e-18
-1.99214e-21
-5.15679e-19
4.0549e-21
6.24096e-05
-5.31627e-18
-2.08016e-21
-5.36039e-19
3.99129e-21
6.3559e-05
-5.30097e-18
-2.17177e-21
-5.53194e-19
3.90717e-21
6.47278e-05
-5.2744e-18
-2.27168e-21
-5.77082e-19
3.81823e-21
6.59163e-05
-5.25143e-18
-2.38218e-21
-5.89385e-19
3.72115e-21
6.71248e-05
-5.23401e-18
-2.49349e-21
-6.1039e-19
3.61071e-21
6.83536e-05
-5.21606e-18
-2.61048e-21
-6.33293e-19
3.51582e-21
6.96032e-05
-5.19319e-18
-2.75005e-21
-6.59461e-19
3.45097e-21
7.08739e-05
-5.1565e-18
-2.92112e-21
-6.81484e-19
3.43577e-21
7.21659e-05
-5.12955e-18
-3.11144e-21
-7.07979e-19
3.41294e-21
7.34798e-05
-5.13317e-18
-3.36229e-21
-7.14388e-19
3.45685e-21
7.48157e-05
-5.14555e-18
-3.59043e-21
-7.0957e-19
3.48471e-21
7.61742e-05
-5.14049e-18
-3.77593e-21
-7.20112e-19
3.49026e-21
7.75556e-05
-5.12278e-18
-3.95059e-21
-7.17196e-19
3.50697e-21
7.89602e-05
-5.11805e-18
-4.14409e-21
-7.35197e-19
3.51654e-21
8.03885e-05
-5.10016e-18
-4.3179e-21
-7.416e-19
3.53749e-21
8.18408e-05
-5.09053e-18
-4.48165e-21
-7.4764e-19
3.54406e-21
8.33176e-05
-5.08405e-18
-4.65261e-21
-7.65191e-19
3.55515e-21
8.48192e-05
-5.07753e-18
-4.81214e-21
-7.59364e-19
3.60539e-21
8.63461e-05
-5.05827e-18
-4.95097e-21
-7.73385e-19
3.63461e-21
8.78987e-05
-5.0444e-18
-5.1084e-21
-7.66624e-19
3.62741e-21
8.94775e-05
-5.02268e-18
-5.27959e-21
-7.92124e-19
3.5787e-21
9.10828e-05
-5.00714e-18
-5.46404e-21
-8.08091e-19
3.57819e-21
9.27151e-05
-4.97598e-18
-5.63298e-21
-8.23506e-19
3.61023e-21
9.43748e-05
-4.94698e-18
-5.82875e-21
-8.55164e-19
3.64671e-21
9.60624e-05
-4.94144e-18
-6.01952e-21
-8.66636e-19
3.73291e-21
9.77784e-05
-4.92459e-18
-6.17824e-21
-8.7943e-19
3.80135e-21
9.95233e-05
-4.88949e-18
-6.28315e-21
-8.97221e-19
3.8226e-21
0.000101297
-4.85525e-18
-6.35121e-21
-9.18349e-19
3.81998e-21
0.000103101
-4.81906e-18
-6.41966e-21
-9.34281e-19
3.78252e-21
0.000104936
-4.76879e-18
-6.46681e-21
-9.67992e-19
3.71036e-21
0.000106801
-4.71545e-18
-6.5332e-21
-1.00957e-18
3.70444e-21
0.000108697
-4.71609e-18
-6.56081e-21
-1.02817e-18
3.79452e-21
0.000110625
-4.67408e-18
-6.49863e-21
-1.06003e-18
3.87625e-21
0.000112586
-4.6268e-18
-6.46298e-21
-1.08137e-18
3.99548e-21
0.000114579
-4.55798e-18
-6.41649e-21
-1.10921e-18
4.15646e-21
0.000116606
-4.51356e-18
-6.44163e-21
-1.12988e-18
4.35664e-21
0.000118666
-4.48917e-18
-6.46499e-21
-1.13596e-18
4.47374e-21
0.000120761
-4.46088e-18
-6.49142e-21
-1.17466e-18
4.55341e-21
0.000122892
-4.42958e-18
-6.50977e-21
-1.19751e-18
4.65488e-21
0.000125058
-4.40927e-18
-6.54137e-21
-1.23865e-18
4.64611e-21
0.00012726
-4.38032e-18
-6.57914e-21
-1.26141e-18
4.56952e-21
0.000129499
-4.32547e-18
-6.5968e-21
-1.32037e-18
4.44536e-21
0.000131775
-4.29211e-18
-6.65654e-21
-1.34234e-18
4.39716e-21
0.00013409
-4.25721e-18
-6.69625e-21
-1.40856e-18
4.2705e-21
0.000136443
-4.22883e-18
-6.78218e-21
-1.4303e-18
4.25243e-21
0.000138835
-4.17128e-18
-6.75874e-21
-1.4368e-18
4.06181e-21
0.000141268
-4.13253e-18
-7.04898e-21
-1.48676e-18
3.87699e-21
0.000143741
-4.0941e-18
-7.36447e-21
-1.50102e-18
3.79429e-21
0.000146255
-4.04992e-18
-7.7223e-21
-1.54144e-18
3.53947e-21
0.000148811
-4.01216e-18
-7.98272e-21
-1.56174e-18
3.32197e-21
0.000151409
-3.97823e-18
-8.28995e-21
-1.61291e-18
2.91201e-21
0.000154051
-3.94433e-18
-8.56578e-21
-1.64014e-18
2.42006e-21
0.000156737
-3.89446e-18
-8.91814e-21
-1.6759e-18
1.90732e-21
0.000159468
-3.84412e-18
-9.24112e-21
-1.71048e-18
1.55698e-21
0.000162244
-3.82461e-18
-9.62552e-21
-1.73113e-18
1.19863e-21
0.000165066
-3.78156e-18
-9.77157e-21
-1.7616e-18
7.35258e-22
0.000167935
-3.73036e-18
-9.95942e-21
-1.80683e-18
4.40576e-22
0.000170851
-3.68922e-18
-1.02077e-20
-1.8239e-18
2.98208e-22
0.000173816
-3.65137e-18
-1.03644e-20
-1.81761e-18
4.4013e-23
0.000176831
-3.60911e-18
-1.02407e-20
-1.82464e-18
-4.86249e-22
0.000179895
-3.53729e-18
-1.00661e-20
-1.86572e-18
-8.02895e-22
0.000183009
-3.49091e-18
-1.0164e-20
-1.87399e-18
-9.42818e-22
0.000186176
-3.44752e-18
-1.02644e-20
-1.90091e-18
-1.56533e-21
0.000189395
-3.43528e-18
-1.07006e-20
-1.89256e-18
-2.11884e-21
0.000192667
-3.38776e-18
-1.09844e-20
-1.92195e-18
-2.86535e-21
0.000195993
-3.34591e-18
-1.14932e-20
-1.96425e-18
-3.47841e-21
0.000199373
-3.29203e-18
-1.21048e-20
-1.97836e-18
-4.17532e-21
0.00020281
-3.28423e-18
-1.28728e-20
-2.00329e-18
-4.97307e-21
0.000206303
-3.26821e-18
-1.33709e-20
-2.02626e-18
-5.75421e-21
0.000209854
-3.25306e-18
-1.3838e-20
-2.04736e-18
-6.30976e-21
0.000213464
-3.23554e-18
-1.46281e-20
-2.06665e-18
-6.46158e-21
0.000217132
-3.23528e-18
-1.49606e-20
-2.05504e-18
-6.93158e-21
0.000220861
-3.20495e-18
-1.52782e-20
-2.07376e-18
-7.67044e-21
0.000224652
-3.19128e-18
-1.54417e-20
-2.07505e-18
-8.38202e-21
0.000228504
-3.16232e-18
-1.56628e-20
-2.10682e-18
-9.17669e-21
0.000232419
-3.1169e-18
-1.58205e-20
-2.1288e-18
-1.00606e-20
0.000236399
-3.09459e-18
-1.61943e-20
-2.13594e-18
-1.05766e-20
0.000240444
-3.10703e-18
-1.67573e-20
-2.09758e-18
-1.08029e-20
0.000244555
-3.08018e-18
-1.69694e-20
-2.167e-18
-1.12317e-20
0.000248733
-2.97935e-18
-1.71466e-20
-2.19251e-18
-1.09806e-20
0.000252979
-2.93036e-18
-1.73532e-20
-2.19364e-18
-1.11896e-20
0.000257295
-2.82629e-18
-1.771e-20
-2.17779e-18
-1.18491e-20
0.00026168
-2.79475e-18
-1.81732e-20
-2.24257e-18
-1.29037e-20
0.000266138
-2.85835e-18
-1.84476e-20
-2.1701e-18
-1.33993e-20
0.000270667
-2.77892e-18
-1.70883e-20
-2.27832e-18
-1.39816e-20
0.00027527
-2.71892e-18
-1.6807e-20
-2.23442e-18
-1.34388e-20
0.000279948
-2.6316e-18
-1.68511e-20
-2.31583e-18
-1.34889e-20
0.000284701
-2.60137e-18
-1.77943e-20
-2.28997e-18
-1.25643e-20
0.000289531
-2.57166e-18
-1.87466e-20
-2.28536e-18
-1.22464e-20
0.00029444
-2.51155e-18
-1.93348e-20
-2.29849e-18
-1.20493e-20
0.000299427
-2.4614e-18
-1.97087e-20
-2.33931e-18
-1.25496e-20
0.000304495
-2.48673e-18
-2.09184e-20
-2.29071e-18
-1.22336e-20
0.000309645
-2.42862e-18
-2.01462e-20
-2.27533e-18
-1.23019e-20
0.000314877
-2.40749e-18
-1.93328e-20
-2.31005e-18
-1.25765e-20
0.000320193
-2.46474e-18
-1.96624e-20
-2.21264e-18
-1.22893e-20
0.000325594
-2.39254e-18
-1.90546e-20
-2.25502e-18
-1.39195e-20
0.000331081
-2.44396e-18
-1.92623e-20
-2.20464e-18
-1.47848e-20
0.000336657
-2.36154e-18
-1.91729e-20
-2.25115e-18
-1.57652e-20
0.00034232
-2.45296e-18
-2.04872e-20
-2.16911e-18
-1.50783e-20
0.000348075
-2.3884e-18
-1.98133e-20
-2.17758e-18
-1.56331e-20
0.00035392
-2.3518e-18
-1.95563e-20
-2.16882e-18
-1.47527e-20
0.000359858
-2.33181e-18
-1.96696e-20
-2.1878e-18
-1.45803e-20
0.00036589
-2.23805e-18
-1.94728e-20
-2.20599e-18
-1.45403e-20
0.000372017
-2.22698e-18
-2.02139e-20
-2.20254e-18
-1.38977e-20
0.000378241
-2.18053e-18
-1.95221e-20
-2.17851e-18
-1.40635e-20
0.000384562
-2.15086e-18
-2.02734e-20
-2.18415e-18
-1.53869e-20
0.000390983
-2.26873e-18
-2.15575e-20
-2.2107e-18
-1.68853e-20
0.000397504
-2.24287e-18
-1.98483e-20
-2.1885e-18
-1.74408e-20
0.000404126
-2.15958e-18
-1.77862e-20
-2.20807e-18
-1.64688e-20
0.000410852
-2.05e-18
-1.60898e-20
-2.19106e-18
-1.44695e-20
0.000417682
-2.04281e-18
-1.6444e-20
-2.18529e-18
-1.46613e-20
0.000424618
-2.11734e-18
-1.73113e-20
-2.07845e-18
-1.26494e-20
0.00043166
-2.07198e-18
-1.7258e-20
-2.09321e-18
-1.34154e-20
0.000438811
-2.18096e-18
-1.80159e-20
-1.98112e-18
-1.25724e-20
0.000446071
-2.05527e-18
-1.62429e-20
-2.02394e-18
-1.32333e-20
0.000453442
-2.01517e-18
-1.69396e-20
-2.01442e-18
-1.34345e-20
0.000460926
-1.9821e-18
-1.86921e-20
-1.99218e-18
-1.68738e-20
0.000468522
-2.01153e-18
-2.03132e-20
-2.00763e-18
-1.78752e-20
0.000476233
-1.9796e-18
-1.9267e-20
-2.01205e-18
-1.68841e-20
0.00048406
-1.95672e-18
-1.94973e-20
-2.03639e-18
-1.46742e-20
0.000492004
-1.95585e-18
-2.09509e-20
-1.99531e-18
-1.45241e-20
0.000500067
-1.83845e-18
-2.43114e-20
-1.91714e-18
-1.38045e-20
0.000508248
-1.81194e-18
-2.65427e-20
-1.77981e-18
-1.3995e-20
0.00051655
-1.81984e-18
-2.43764e-20
-1.77629e-18
-1.65897e-20
0.000524973
-1.82255e-18
-2.83323e-20
-1.67937e-18
-1.48516e-20
0.000533519
-1.73729e-18
-2.63153e-20
-1.69491e-18
-1.59296e-20
0.000542189
-1.50587e-18
-2.02726e-20
-1.5991e-18
-1.62381e-20
0.000550983
-1.50733e-18
-2.00365e-20
-1.60115e-18
-1.92445e-20
0.000559902
-1.49821e-18
-2.01382e-20
-1.47822e-18
-1.68525e-20
0.000568947
-1.3848e-18
-1.62654e-20
-1.46899e-18
-1.8617e-20
0.000578118
-1.25245e-18
-1.51953e-20
-1.39301e-18
-1.90129e-20
0.000587417
-1.32505e-18
-1.94043e-20
-1.40084e-18
-1.66175e-20
0.000596844
-1.21433e-18
-1.09863e-20
-1.38105e-18
-8.83823e-21
0.000606399
-1.3314e-18
-1.44908e-20
-1.27132e-18
-2.68214e-21
0.000616082
-1.31949e-18
-1.39246e-20
-1.26552e-18
-2.59355e-21
0.000625893
-1.3916e-18
-1.31188e-20
-1.19784e-18
3.26585e-21
0.000635833
-1.39668e-18
-1.08131e-20
-1.30265e-18
3.76818e-22
0.000645902
-1.35096e-18
-6.64372e-21
-1.21888e-18
-1.4859e-21
0.000656098
-1.49866e-18
-8.79554e-21
-1.10855e-18
-7.22013e-21
0.000666421
-1.32418e-18
3.59457e-21
-1.27023e-18
-1.76367e-20
0.000676871
-1.25259e-18
7.79559e-21
-1.28311e-18
-1.88265e-20
0.000687446
-1.07367e-18
7.33946e-21
-1.17481e-18
-1.64505e-20
0.000698145
-1.04436e-18
-4.62638e-21
-1.08799e-18
-8.18926e-21
0.000708967
-1.00199e-18
-7.28976e-21
-1.05112e-18
-7.6676e-21
0.000719909
-1.04521e-18
-1.73619e-20
-1.05877e-18
-6.03261e-21
0.000730969
-1.06232e-18
-2.17973e-20
-1.08101e-18
-1.39506e-21
0.000742145
-1.03974e-18
-1.73911e-21
-8.90921e-19
6.17782e-21
0.000753435
-8.18504e-19
-1.62416e-21
-9.26683e-19
9.07898e-22
0.000764834
-8.82881e-19
-1.78992e-20
-9.37953e-19
-4.22131e-21
0.000776339
-8.29633e-19
-2.698e-20
-8.85951e-19
-1.07122e-20
0.000787947
-8.91851e-19
-4.33022e-20
-7.76841e-19
-3.3845e-21
0.000799653
-7.93486e-19
-4.54573e-20
-8.05303e-19
-1.29987e-20
0.000811452
-7.65816e-19
-4.26989e-20
-7.71589e-19
-1.38509e-20
0.000823341
-3.06669e-20
-6.80082e-19
-9.45273e-21
-7.56641e-19
1.19154e-08
1.19457e-23
3.49022e-23
3.64378e-08
-1.76743e-22
9.59015e-24
6.20264e-08
-3.70183e-22
-3.26301e-24
8.87175e-08
-5.78551e-22
6.83248e-24
1.16549e-07
-7.50298e-22
9.25608e-24
1.45559e-07
-8.91923e-22
-6.30946e-23
1.75789e-07
-1.04775e-21
-1.28515e-22
2.07279e-07
-1.18076e-21
-1.25037e-22
2.40071e-07
-1.3787e-21
-1.53045e-22
2.74211e-07
-1.55616e-21
-1.53771e-22
3.09744e-07
-1.71165e-21
-5.26531e-23
3.46715e-07
-1.89472e-21
-6.6482e-23
3.85174e-07
-2.06212e-21
-3.0373e-23
4.25169e-07
-2.16697e-21
-7.93793e-23
4.66753e-07
-2.19125e-21
-1.41424e-22
5.09978e-07
-2.16776e-21
-1.64099e-22
5.54898e-07
-2.20697e-21
-1.36932e-22
6.0157e-07
-2.33063e-21
-6.32022e-23
6.50051e-07
-2.38106e-21
-1.87864e-23
7.00402e-07
-2.47969e-21
3.77774e-23
7.52682e-07
-2.39957e-21
7.06546e-23
8.06955e-07
-2.62145e-21
5.52765e-23
8.63287e-07
-2.63581e-21
1.78962e-22
9.21744e-07
-2.70655e-21
2.23175e-22
9.82394e-07
-3.04137e-21
5.82023e-22
1.04531e-06
-3.14235e-21
5.8692e-22
1.11056e-06
-3.26471e-21
7.29745e-22
1.17822e-06
-3.24547e-21
6.83063e-22
1.24837e-06
-3.18399e-21
9.34644e-22
1.32108e-06
-3.29911e-21
1.0517e-21
1.39644e-06
-3.23681e-21
1.25348e-21
1.47452e-06
-3.01887e-21
1.46393e-21
1.55541e-06
-2.91441e-21
1.66834e-21
1.63919e-06
-2.50264e-21
2.02463e-21
1.72595e-06
-2.48404e-21
2.18226e-21
1.81578e-06
-2.66943e-21
2.63633e-21
1.90876e-06
-1.98736e-21
2.09528e-21
2.00498e-06
-2.02424e-21
2.45365e-21
2.10453e-06
-1.86221e-21
2.74259e-21
2.2075e-06
-1.7697e-21
2.95529e-21
2.31398e-06
-1.56311e-21
2.99879e-21
2.42405e-06
-1.45361e-21
3.36041e-21
2.53781e-06
-1.83632e-21
4.12125e-21
2.65533e-06
-1.40602e-21
4.296e-21
2.77671e-06
-1.27715e-21
5.10948e-21
2.90202e-06
-1.09969e-21
5.86105e-21
3.03134e-06
-2.02142e-22
6.1497e-21
3.16474e-06
5.89461e-22
7.20848e-21
3.30231e-06
1.55888e-21
7.45307e-21
3.44409e-06
1.70597e-21
7.89343e-21
3.59016e-06
2.51954e-21
8.31321e-21
3.74056e-06
3.05971e-21
8.55639e-21
3.89535e-06
3.7944e-21
8.9303e-21
4.05456e-06
4.20876e-21
9.27614e-21
4.21825e-06
5.35213e-21
9.93792e-21
4.38643e-06
6.33605e-21
1.09403e-20
4.55912e-06
6.82521e-21
1.15332e-20
4.73636e-06
8.60679e-21
1.13307e-20
4.91814e-06
8.27002e-21
1.26738e-20
5.10448e-06
8.92158e-21
1.22712e-20
5.29536e-06
1.03446e-20
1.38053e-20
5.4908e-06
1.17829e-20
1.47794e-20
5.69078e-06
1.36438e-20
1.54777e-20
5.89529e-06
1.512e-20
1.49207e-20
6.10431e-06
1.57788e-20
1.61568e-20
6.31783e-06
1.70573e-20
1.82324e-20
6.53584e-06
1.8528e-20
1.89961e-20
6.75831e-06
1.88511e-20
2.04756e-20
6.98524e-06
2.03818e-20
2.15457e-20
7.2166e-06
2.26578e-20
2.26546e-20
7.45238e-06
2.41428e-20
2.33945e-20
7.69258e-06
2.56305e-20
2.31701e-20
7.93719e-06
2.84464e-20
2.42721e-20
8.18621e-06
2.89072e-20
2.75738e-20
8.43964e-06
3.08511e-20
2.84127e-20
8.69747e-06
3.33868e-20
2.9455e-20
8.95974e-06
3.36922e-20
3.10998e-20
9.22644e-06
3.53807e-20
3.38317e-20
9.4976e-06
3.83632e-20
3.66454e-20
9.77325e-06
4.09483e-20
3.95292e-20
1.00534e-05
4.18394e-20
4.23987e-20
1.03381e-05
4.29794e-20
4.47005e-20
1.06274e-05
4.59192e-20
4.69958e-20
1.09213e-05
4.76531e-20
4.78027e-20
1.12199e-05
4.97808e-20
4.87608e-20
1.15233e-05
5.39762e-20
4.99656e-20
1.18314e-05
5.58752e-20
5.15722e-20
1.21444e-05
5.75021e-20
5.56851e-20
1.24623e-05
6.04172e-20
5.60659e-20
1.27852e-05
6.02591e-20
5.96019e-20
1.31131e-05
6.18169e-20
6.25643e-20
1.34462e-05
6.42662e-20
6.57919e-20
1.37844e-05
6.52632e-20
7.12505e-20
1.4128e-05
6.74832e-20
7.42822e-20
1.4477e-05
6.91395e-20
7.65934e-20
1.48314e-05
7.48248e-20
7.54049e-20
1.51914e-05
7.64415e-20
7.97311e-20
1.5557e-05
7.52032e-20
8.31878e-20
1.59284e-05
7.80563e-20
8.92376e-20
1.63056e-05
8.25903e-20
9.16884e-20
1.66888e-05
8.96123e-20
9.85397e-20
1.7078e-05
8.76201e-20
1.00897e-19
1.74734e-05
9.02898e-20
1.05856e-19
1.78751e-05
9.70935e-20
1.07274e-19
1.82832e-05
1.00138e-19
1.12847e-19
1.86978e-05
1.08536e-19
1.2188e-19
1.9119e-05
1.12068e-19
1.23921e-19
1.95469e-05
1.15735e-19
1.26115e-19
1.99817e-05
1.16969e-19
1.28642e-19
2.04234e-05
1.22284e-19
1.32466e-19
2.08723e-05
1.22506e-19
1.35581e-19
2.13284e-05
1.25342e-19
1.38207e-19
2.17919e-05
1.26283e-19
1.40983e-19
2.22629e-05
1.28393e-19
1.4379e-19
2.27415e-05
1.28993e-19
1.47157e-19
2.32279e-05
1.31871e-19
1.55242e-19
2.37223e-05
1.35309e-19
1.59024e-19
2.42246e-05
1.38623e-19
1.60637e-19
2.47352e-05
1.41001e-19
1.65452e-19
2.52541e-05
1.43877e-19
1.68218e-19
2.57815e-05
1.44933e-19
1.71761e-19
2.63176e-05
1.45336e-19
1.77194e-19
2.68625e-05
1.50623e-19
1.80766e-19
2.74163e-05
1.52236e-19
1.89884e-19
2.79793e-05
1.53961e-19
1.99205e-19
2.85515e-05
1.58718e-19
2.11274e-19
2.91332e-05
1.60181e-19
2.1382e-19
2.97245e-05
1.62313e-19
2.17896e-19
3.03255e-05
1.59953e-19
2.23161e-19
3.09366e-05
1.65589e-19
2.30542e-19
3.15578e-05
1.66404e-19
2.43955e-19
3.21892e-05
1.69322e-19
2.52588e-19
3.28312e-05
1.74241e-19
2.57762e-19
3.34839e-05
1.79126e-19
2.54302e-19
3.41474e-05
1.82602e-19
2.60555e-19
3.4822e-05
1.83605e-19
2.67336e-19
3.55078e-05
1.81068e-19
2.71028e-19
3.6205e-05
1.83978e-19
2.74388e-19
3.69139e-05
1.85446e-19
2.83452e-19
3.76347e-05
1.82168e-19
2.94758e-19
3.83675e-05
1.94332e-19
2.92753e-19
3.91125e-05
1.92415e-19
2.9593e-19
3.98701e-05
1.87379e-19
3.02547e-19
4.06403e-05
1.84404e-19
3.08955e-19
4.14234e-05
1.85117e-19
3.14066e-19
4.22197e-05
1.89973e-19
3.12469e-19
4.30293e-05
1.81764e-19
3.20498e-19
4.38525e-05
1.86385e-19
3.31145e-19
4.46895e-05
1.887e-19
3.39291e-19
4.55406e-05
1.94314e-19
3.45869e-19
4.6406e-05
1.95871e-19
3.57599e-19
4.72859e-05
1.98984e-19
3.62371e-19
4.81806e-05
1.98968e-19
3.65551e-19
4.90904e-05
1.97153e-19
3.71939e-19
5.00155e-05
2.03282e-19
3.78889e-19
5.09561e-05
2.03683e-19
3.8254e-19
5.19126e-05
2.12508e-19
3.85533e-19
5.28852e-05
2.12384e-19
3.86322e-19
5.38741e-05
2.06889e-19
3.9667e-19
5.48797e-05
2.05996e-19
3.93459e-19
5.59022e-05
2.08537e-19
3.93597e-19
5.6942e-05
1.96839e-19
4.11242e-19
5.79993e-05
2.11106e-19
4.10774e-19
5.90744e-05
2.14722e-19
4.22492e-19
6.01676e-05
2.29383e-19
4.19716e-19
6.12792e-05
2.33848e-19
4.24e-19
6.24096e-05
2.32821e-19
4.15976e-19
6.3559e-05
2.18449e-19
4.24314e-19
6.47278e-05
2.10775e-19
4.20485e-19
6.59163e-05
2.0873e-19
4.19426e-19
6.71248e-05
1.99407e-19
4.19999e-19
6.83536e-05
1.87058e-19
4.25001e-19
6.96032e-05
1.813e-19
4.42854e-19
7.08739e-05
2.0093e-19
4.16441e-19
7.21659e-05
1.83147e-19
4.36886e-19
7.34798e-05
1.94655e-19
4.20766e-19
7.48157e-05
1.99983e-19
4.27986e-19
7.61742e-05
1.981e-19
4.27441e-19
7.75556e-05
1.90229e-19
4.22556e-19
7.89602e-05
1.9709e-19
4.27596e-19
8.03885e-05
2.12122e-19
4.26996e-19
8.18408e-05
2.09739e-19
4.2675e-19
8.33176e-05
2.09564e-19
4.26264e-19
8.48192e-05
2.06448e-19
4.22863e-19
8.63461e-05
1.90129e-19
4.02622e-19
8.78987e-05
1.71783e-19
3.9233e-19
8.94775e-05
1.61343e-19
3.97333e-19
9.10828e-05
1.57284e-19
4.07177e-19
9.27151e-05
1.46464e-19
4.04952e-19
9.43748e-05
1.50508e-19
4.12108e-19
9.60624e-05
1.42192e-19
4.14338e-19
9.77784e-05
1.46726e-19
4.06162e-19
9.95233e-05
1.53631e-19
3.99243e-19
0.000101297
1.43176e-19
3.87704e-19
0.000103101
1.41866e-19
3.90904e-19
0.000104936
1.35317e-19
4.10206e-19
0.000106801
1.56202e-19
4.29346e-19
0.000108697
1.49824e-19
4.42332e-19
0.000110625
1.53284e-19
4.52194e-19
0.000112586
1.77883e-19
4.70803e-19
0.000114579
1.89715e-19
4.94375e-19
0.000116606
2.08328e-19
4.81146e-19
0.000118666
2.08874e-19
4.90325e-19
0.000120761
2.10924e-19
4.79272e-19
0.000122892
2.01434e-19
4.55396e-19
0.000125058
1.81684e-19
4.41193e-19
0.00012726
1.76151e-19
4.51005e-19
0.000129499
1.81302e-19
4.68221e-19
0.000131775
1.90343e-19
4.6332e-19
0.00013409
1.78994e-19
4.53966e-19
0.000136443
2.01239e-19
4.31655e-19
0.000138835
1.36014e-19
4.67395e-19
0.000141268
1.25939e-19
4.63823e-19
0.000143741
1.17844e-19
4.41164e-19
0.000146255
1.55986e-19
4.53371e-19
0.000148811
1.48928e-19
4.33712e-19
0.000151409
1.52439e-19
4.17951e-19
0.000154051
1.19268e-19
4.18009e-19
0.000156737
1.19712e-19
4.25575e-19
0.000159468
1.04638e-19
4.21736e-19
0.000162244
1.2657e-19
4.24333e-19
0.000165066
1.18907e-19
4.33044e-19
0.000167935
1.12279e-19
4.1635e-19
0.000170851
1.2567e-19
4.07759e-19
0.000173816
1.6581e-19
3.76501e-19
0.000176831
1.62955e-19
3.94443e-19
0.000179895
1.45679e-19
3.98966e-19
0.000183009
1.6045e-19
3.48898e-19
0.000186176
1.19832e-19
3.57269e-19
0.000189395
1.2358e-19
3.45964e-19
0.000192667
9.6063e-20
3.55891e-19
0.000195993
7.941e-20
3.2577e-19
0.000199373
7.20028e-20
3.15391e-19
0.00020281
8.32137e-20
2.90731e-19
0.000206303
7.73003e-20
2.75087e-19
0.000209854
3.76231e-20
2.95892e-19
0.000213464
1.0471e-19
2.52692e-19
0.000217132
8.55959e-20
2.45239e-19
0.000220861
9.28218e-20
2.02686e-19
0.000224652
4.86944e-20
1.63879e-19
0.000228504
3.63755e-20
1.27258e-19
0.000232419
5.85416e-21
1.23209e-19
0.000236399
-3.50308e-20
1.26643e-19
0.000240444
-4.90381e-20
1.37911e-19
0.000244555
-6.77753e-20
1.29769e-19
0.000248733
-3.60921e-20
1.13451e-19
0.000252979
-8.00598e-20
1.12151e-19
0.000257295
-4.85581e-20
5.67466e-20
0.00026168
-5.41919e-20
2.2426e-20
0.000266138
-1.81377e-20
7.49059e-20
0.000270667
-6.62394e-20
5.37353e-20
0.00027527
-7.58576e-20
6.10217e-20
0.000279948
-1.07178e-19
5.10528e-20
0.000284701
-1.09769e-19
1.65744e-20
0.000289531