/*--------------------------------*- C++ -*----------------------------------*\
| =========                 |                                                 |
| \\      /  F ield         | OpenFOAM: The Open Source CFD Toolbox           |
|  \\    /   O peration     | Version:  2012                                  |
|   \\  /    A nd           | Website:  www.openfoam.com                      |
|    \\/     M anipulation  |                                                 |
\*---------------------------------------------------------------------------*/
FoamFile
{
    version     2.0;
    format      ascii;
    class       volScalarField;
    location    "20000";
    object      p;
}
// * * * * * * * * * * * * * * * * * * * * * * * * * * * * * * * * * * * * * //

dimensions      [0 2 -2 0 0 0 0];


internalField   nonuniform List<scalar> 
1280
(
9.58975e-16
5.54444e-15
2.10223e-15
5.54449e-15
2.1518e-15
5.54421e-15
1.88588e-15
5.54376e-15
1.69123e-15
5.5431e-15
1.54011e-15
5.5422e-15
1.39732e-15
5.54107e-15
1.25771e-15
5.53965e-15
1.12268e-15
5.53791e-15
9.92591e-16
5.5358e-15
8.67094e-16
5.53336e-15
7.45878e-16
5.53045e-15
6.28752e-16
5.52697e-15
5.15571e-16
5.52302e-15
4.06101e-16
5.51851e-15
3.00238e-16
5.51333e-15
1.97933e-16
5.50737e-15
9.88496e-17
5.50049e-15
2.85902e-18
5.49276e-15
-9.02662e-17
5.4843e-15
-1.80898e-16
5.47489e-15
-2.6954e-16
5.46429e-15
-3.56305e-16
5.45272e-15
-4.41307e-16
5.43974e-15
-5.25044e-16
5.42565e-15
-6.07527e-16
5.40991e-15
-6.89772e-16
5.3929e-15
-7.71838e-16
5.37428e-15
-8.53485e-16
5.35394e-15
-9.35018e-16
5.33185e-15
-1.01683e-15
5.30777e-15
-1.09889e-15
5.28193e-15
-1.18126e-15
5.2538e-15
-1.26438e-15
5.22349e-15
-1.34727e-15
5.19101e-15
-1.43147e-15
5.15637e-15
-1.51532e-15
5.1202e-15
-1.59918e-15
5.08198e-15
-1.68279e-15
5.04016e-15
-1.7662e-15
4.99343e-15
-1.84983e-15
4.94445e-15
-1.93305e-15
4.89369e-15
-2.01559e-15
4.84061e-15
-2.09753e-15
4.78352e-15
-2.17858e-15
4.72249e-15
-2.26002e-15
4.65921e-15
-2.33767e-15
4.5927e-15
-2.41398e-15
4.52234e-15
-2.48914e-15
4.44749e-15
-2.55905e-15
4.36747e-15
-2.63077e-15
4.28507e-15
-2.7011e-15
4.19883e-15
-2.76669e-15
4.10994e-15
-2.8305e-15
4.01875e-15
-2.89192e-15
3.92657e-15
-2.95223e-15
3.83098e-15
-3.01187e-15
3.73137e-15
-3.06931e-15
3.62912e-15
-3.12095e-15
3.52468e-15
-3.17024e-15
3.41647e-15
-3.21664e-15
3.30703e-15
-3.26279e-15
3.19373e-15
-3.30611e-15
3.07811e-15
-3.34827e-15
2.9629e-15
-3.38337e-15
2.84324e-15
-3.42085e-15
2.71963e-15
-3.45476e-15
2.59489e-15
-3.48581e-15
2.46507e-15
-3.51474e-15
2.33301e-15
-3.54234e-15
2.19931e-15
-3.56709e-15
2.06459e-15
-3.5898e-15
1.92709e-15
-3.61378e-15
1.7898e-15
-3.63512e-15
1.64852e-15
-3.65231e-15
1.50386e-15
-3.66866e-15
1.35387e-15
-3.66769e-15
1.20404e-15
-3.67001e-15
1.05234e-15
-3.67148e-15
9.04275e-16
-3.67298e-15
7.52705e-16
-3.67791e-15
5.97996e-16
-3.68202e-15
4.40475e-16
-3.68088e-15
2.8819e-16
-3.6752e-15
1.36215e-16
-3.67615e-15
-1.52893e-17
-3.67928e-15
-1.71417e-16
-3.68533e-15
-3.16221e-16
-3.68444e-15
-4.6545e-16
-3.67179e-15
-6.19239e-16
-3.66382e-15
-7.67189e-16
-3.66639e-15
-9.09538e-16
-3.66922e-15
-1.03559e-15
-3.66206e-15
-1.17268e-15
-3.6725e-15
-1.33235e-15
-3.66233e-15
-1.48796e-15
-3.65309e-15
-1.62412e-15
-3.66123e-15
-1.75839e-15
-3.67572e-15
-1.90834e-15
-3.68524e-15
-2.0418e-15
-3.7064e-15
-2.17079e-15
-3.71688e-15
-2.3017e-15
-3.73866e-15
-2.43052e-15
-3.74331e-15
-2.55863e-15
-3.75234e-15
-2.68804e-15
-3.78705e-15
-2.80962e-15
-3.82439e-15
-2.92483e-15
-3.85277e-15
-3.02346e-15
-3.89455e-15
-3.12959e-15
-3.92672e-15
-3.24486e-15
-3.94809e-15
-3.3488e-15
-3.97994e-15
-3.4323e-15
-4.01035e-15
-3.54258e-15
-4.01437e-15
-3.69397e-15
-4.05578e-15
-3.8013e-15
-4.09753e-15
-3.90304e-15
-4.14865e-15
-4.01455e-15
-4.20605e-15
-4.11646e-15
-4.26805e-15
-4.18859e-15
-4.32275e-15
-4.26634e-15
-4.41525e-15
-4.35165e-15
-4.47729e-15
-4.43333e-15
-4.56633e-15
-4.525e-15
-4.66006e-15
-4.62725e-15
-4.73618e-15
-4.68364e-15
-4.84435e-15
-4.74027e-15
-4.87441e-15
-4.79182e-15
-4.9648e-15
-4.83809e-15
-4.98016e-15
-4.89577e-15
-5.00816e-15
-4.94448e-15
-5.04483e-15
-5.03196e-15
-5.08258e-15
-5.09388e-15
-5.1426e-15
-5.15753e-15
-5.19961e-15
-5.22594e-15
-5.24984e-15
-5.28069e-15
-5.34259e-15
-5.32537e-15
-5.41733e-15
-5.39861e-15
-5.50159e-15
-5.45068e-15
-5.55025e-15
-5.50027e-15
-5.63101e-15
-5.54515e-15
-5.72651e-15
-5.64435e-15
-5.74427e-15
-5.77369e-15
-5.79107e-15
-5.85811e-15
-5.90053e-15
-5.90965e-15
-6.02118e-15
-5.98176e-15
-6.12436e-15
-6.10721e-15
-6.20508e-15
-6.15487e-15
-6.26534e-15
-6.25245e-15
-6.3434e-15
-6.32193e-15
-6.44476e-15
-6.40361e-15
-6.52737e-15
-6.48428e-15
-6.6365e-15
-6.60841e-15
-6.76597e-15
-6.72563e-15
-6.91601e-15
-6.82165e-15
-7.0244e-15
-6.96384e-15
-7.09319e-15
-7.08378e-15
-7.2147e-15
-7.20146e-15
-7.28479e-15
-7.31299e-15
-7.34829e-15
-7.36122e-15
-7.41988e-15
-7.42882e-15
-7.52448e-15
-7.51079e-15
1.13963e-15
1.19928e-15
1.13985e-15
1.19934e-15
1.13994e-15
1.19936e-15
1.13999e-15
1.19935e-15
1.14001e-15
1.19931e-15
1.13997e-15
1.19924e-15
1.13992e-15
1.19918e-15
1.13979e-15
1.19913e-15
1.13973e-15
1.19899e-15
1.13965e-15
1.19875e-15
1.13955e-15
1.19858e-15
1.13945e-15
1.19831e-15
1.13931e-15
1.19799e-15
1.13916e-15
1.19766e-15
1.13899e-15
1.19724e-15
1.13871e-15
1.19668e-15
1.13824e-15
1.19612e-15
1.13766e-15
1.19564e-15
1.13706e-15
1.19497e-15
1.13634e-15
1.19428e-15
1.13544e-15
1.19364e-15
1.13456e-15
1.19251e-15
1.13332e-15
1.19121e-15
1.13178e-15
1.19009e-15
1.13008e-15
1.18924e-15
1.12777e-15
1.18818e-15
1.12472e-15
1.18688e-15
1.12152e-15
1.18552e-15
1.11781e-15
1.18446e-15
1.11383e-15
1.18281e-15
1.10946e-15
1.18064e-15
1.1047e-15
1.17778e-15
1.09981e-15
1.17457e-15
1.09441e-15
1.17125e-15
1.08791e-15
1.16836e-15
1.08059e-15
1.16445e-15
1.07304e-15
1.15944e-15
1.06466e-15
1.1545e-15
1.05546e-15
1.14865e-15
1.04576e-15
1.14249e-15
1.03458e-15
1.13531e-15
1.02118e-15
1.12845e-15
1.00732e-15
1.12119e-15
9.9156e-16
1.11314e-15
9.7502e-16
1.10386e-15
9.56574e-16
1.09524e-15
9.37012e-16
1.0873e-15
9.15143e-16
1.07763e-15
8.91792e-16
1.06614e-15
8.67849e-16
1.0536e-15
8.43393e-16
1.04348e-15
8.15831e-16
1.03142e-15
7.8879e-16
1.01644e-15
7.57767e-16
9.99373e-16
7.23676e-16
9.84885e-16
6.90376e-16
9.6732e-16
6.56061e-16
9.47576e-16
6.19835e-16
9.24614e-16
5.81776e-16
9.02412e-16
5.42991e-16
8.76925e-16
5.01515e-16
8.50189e-16
4.63768e-16
8.22221e-16
4.23577e-16
7.8982e-16
3.79957e-16
7.57271e-16
3.35189e-16
7.2023e-16
2.87188e-16
6.80884e-16
2.42828e-16
6.41519e-16
1.97824e-16
6.04501e-16
1.5235e-16
5.60754e-16
1.08949e-16
5.17233e-16
6.31792e-17
4.78767e-16
1.99678e-17
4.36083e-16
-2.52006e-17
3.86837e-16
-7.45126e-17
3.31032e-16
-1.25305e-16
2.76023e-16
-1.77323e-16
2.17045e-16
-2.30284e-16
1.5171e-16
-2.81392e-16
8.75859e-17
-3.32818e-16
2.73785e-17
-3.8934e-16
-3.88372e-17
-4.53271e-16
-1.05808e-16
-5.2185e-16
-1.73258e-16
-5.87105e-16
-2.35642e-16
-6.54004e-16
-3.02949e-16
-7.17086e-16
-3.80099e-16
-7.81217e-16
-4.5106e-16
-8.5671e-16
-5.25981e-16
-9.2207e-16
-5.93754e-16
-9.87665e-16
-6.69892e-16
-1.0586e-15
-7.54002e-16
-1.12917e-15
-8.2948e-16
-1.20453e-15
-8.95684e-16
-1.27917e-15
-9.79132e-16
-1.34734e-15
-1.07943e-15
-1.43032e-15
-1.16885e-15
-1.50595e-15
-1.25211e-15
-1.59065e-15
-1.33958e-15
-1.66762e-15
-1.44165e-15
-1.74174e-15
-1.56356e-15
-1.81747e-15
-1.67773e-15
-1.89933e-15
-1.76178e-15
-1.97585e-15
-1.85972e-15
-2.05749e-15
-1.95994e-15
-2.15507e-15
-2.06202e-15
-2.24592e-15
-2.16516e-15
-2.32939e-15
-2.28022e-15
-2.42691e-15
-2.37329e-15
-2.51571e-15
-2.45486e-15
-2.60703e-15
-2.54647e-15
-2.70069e-15
-2.64701e-15
-2.78508e-15
-2.74436e-15
-2.87098e-15
-2.86147e-15
-2.94545e-15
-2.96433e-15
-3.05364e-15
-3.04066e-15
-3.16253e-15
-3.12204e-15
-3.28541e-15
-3.22877e-15
-3.37734e-15
-3.33548e-15
-3.48374e-15
-3.44175e-15
-3.59311e-15
-3.53554e-15
-3.69527e-15
-3.62659e-15
-3.79011e-15
-3.72449e-15
-3.88912e-15
-3.84005e-15
-3.97863e-15
-3.93862e-15
-4.0682e-15
-4.00731e-15
-4.15875e-15
-4.11343e-15
-4.24681e-15
-4.2352e-15
-4.35391e-15
-4.35369e-15
-4.45464e-15
-4.44847e-15
-4.55228e-15
-4.54294e-15
-4.64946e-15
-4.63788e-15
-4.70136e-15
-4.70851e-15
-4.79968e-15
-4.7562e-15
-4.90493e-15
-4.79551e-15
-4.93399e-15
-4.83702e-15
-5.00148e-15
-4.92635e-15
-5.05413e-15
-5.04402e-15
-5.19719e-15
-5.10702e-15
-5.30574e-15
-5.19542e-15
-5.41218e-15
-5.30645e-15
-5.49418e-15
-5.42089e-15
-5.63888e-15
-5.59223e-15
-5.73462e-15
-5.6617e-15
-5.79313e-15
-5.76283e-15
-5.86982e-15
-5.8622e-15
-5.97657e-15
-5.94392e-15
-6.11986e-15
-6.04178e-15
-6.17778e-15
-6.09993e-15
-6.24643e-15
-6.20593e-15
-6.36058e-15
-6.32742e-15
-6.47169e-15
-6.42395e-15
-6.59034e-15
-6.58789e-15
-6.74921e-15
-6.74699e-15
-6.85742e-15
-6.86155e-15
-6.90259e-15
-6.9386e-15
-7.09616e-15
-7.07527e-15
-7.25278e-15
-7.19976e-15
-7.25299e-15
-7.24743e-15
-7.29637e-15
-7.3228e-15
-7.45658e-15
-7.40287e-15
-7.51462e-15
-7.44153e-15
-7.64197e-15
-7.65697e-15
-7.78995e-15
-7.74567e-15
-8.04066e-15
-7.81446e-15
-8.15164e-15
-7.89194e-15
-8.36356e-15
-8.16051e-15
-8.36594e-15
-8.33315e-15
-8.51691e-15
-8.45511e-15
-8.61372e-15
-8.56171e-15
-8.73444e-15
-8.71277e-15
-8.84618e-15
-8.82615e-15
-8.94706e-15
-8.94575e-15
-9.0187e-15
-9.03449e-15
-9.10006e-15
-9.0596e-15
-9.12829e-15
-9.08744e-15
-9.13941e-15
-9.11726e-15
-9.17119e-15
-9.15739e-15
-9.26176e-15
-9.25236e-15
-9.27321e-15
-9.26456e-15
-9.31661e-15
-9.26855e-15
-9.35845e-15
-9.32193e-15
-9.39164e-15
-9.39742e-15
-9.40507e-15
-9.4331e-15
-9.46032e-15
-9.45437e-15
-9.51718e-15
-9.50339e-15
-9.55327e-15
-9.55155e-15
-9.5902e-15
-9.60022e-15
-9.62802e-15
-9.63077e-15
-9.69688e-15
-9.66596e-15
-9.70812e-15
-9.67933e-15
-9.75242e-15
-9.69406e-15
-9.81012e-15
-9.75211e-15
-9.8338e-15
-9.78431e-15
-9.86777e-15
-9.81303e-15
-9.88692e-15
-9.83569e-15
-9.90964e-15
-9.87516e-15
-9.95786e-15
-9.91279e-15
-1.00108e-14
-9.92537e-15
-1.00254e-14
-9.93059e-15
-1.00256e-14
-9.95171e-15
-1.0032e-14
-9.9907e-15
-1.00535e-14
-1.00267e-14
-1.00535e-14
-1.00141e-14
-1.00565e-14
-1.00218e-14
-1.00613e-14
-1.00271e-14
-1.00671e-14
-1.00419e-14
-1.00624e-14
-1.00554e-14
-1.00694e-14
-1.0058e-14
-1.00766e-14
-1.00495e-14
-1.00735e-14
-1.00755e-14
-1.00698e-14
-1.0103e-14
-1.00648e-14
-1.01104e-14
-1.00693e-14
-1.00864e-14
-1.00845e-14
-1.00756e-14
-1.00884e-14
-1.00653e-14
-1.01045e-14
-1.00776e-14
-1.00993e-14
-1.00901e-14
-1.01061e-14
-1.0092e-14
-1.01023e-14
-1.00945e-14
-1.00764e-14
-1.00865e-14
-1.00619e-14
-1.00795e-14
-1.0075e-14
-1.00793e-14
-1.00825e-14
-1.00686e-14
-1.00792e-14
-1.00527e-14
-1.0071e-14
-1.00367e-14
-1.00636e-14
-1.00316e-14
-1.00569e-14
-1.00207e-14
-1.00508e-14
-1.0015e-14
-1.00453e-14
-1.00089e-14
-1.00295e-14
-9.99697e-15
-1.00196e-14
-9.98483e-15
-1.00157e-14
-9.98318e-15
-1.00123e-14
-9.97032e-15
-1.00093e-14
-9.95704e-15
-1.0007e-14
-9.96464e-15
-1.00052e-14
-9.96654e-15
-1.00037e-14
-9.96818e-15
-1.00079e-14
-9.95385e-15
-1.00125e-14
-9.94972e-15
-1.00073e-14
-9.95558e-15
-1.00077e-14
-9.95598e-15
-1.00111e-14
-9.95102e-15
-1.00124e-14
-9.95091e-15
-1.00167e-14
-9.95054e-15
-1.00215e-14
-9.9524e-15
-1.00192e-14
-9.95644e-15
-1.00223e-14
-9.95776e-15
-1.00283e-14
-9.95156e-15
-1.00298e-14
-9.9476e-15
-1.0027e-14
-9.94583e-15
-1.00293e-14
-9.94861e-15
-1.00297e-14
-9.94877e-15
-1.00304e-14
-9.94405e-15
-1.00292e-14
-9.94608e-15
-1.00305e-14
-9.94561e-15
-1.00322e-14
-9.94721e-15
-1.00319e-14
-9.94639e-15
-1.00297e-14
-9.95202e-15
-1.00299e-14
-9.95744e-15
-1.00292e-14
-9.95947e-15
-1.00288e-14
-9.95926e-15
-1.00295e-14
-9.95689e-15
-1.00305e-14
-9.95447e-15
-1.00305e-14
-9.953e-15
-1.00317e-14
-9.95147e-15
-1.00311e-14
-9.95185e-15
-1.00297e-14
-9.9531e-15
-1.00275e-14
-9.95331e-15
-1.00282e-14
-9.95345e-15
-1.00282e-14
-9.95353e-15
-1.00264e-14
-9.95356e-15
-1.00265e-14
-9.95441e-15
-1.00268e-14
-9.95434e-15
-1.00263e-14
-9.95423e-15
-1.0025e-14
-9.9549e-15
-1.00255e-14
-9.95472e-15
-1.00268e-14
-9.95412e-15
-1.00278e-14
-9.95541e-15
-1.00277e-14
-9.95626e-15
-1.00265e-14
-9.95598e-15
-1.00262e-14
-9.95567e-15
-1.00263e-14
-9.95604e-15
-1.00264e-14
-9.95538e-15
-1.00266e-14
-9.95439e-15
-1.00268e-14
-9.95279e-15
-1.00271e-14
-9.95182e-15
-1.00273e-14
-9.95174e-15
-1.00277e-14
-9.95221e-15
-1.0028e-14
-9.95209e-15
-1.00281e-14
-9.95169e-15
-1.00278e-14
-9.95194e-15
-1.00274e-14
-9.95204e-15
-1.00271e-14
-9.95175e-15
-1.00269e-14
-9.95181e-15
-1.00265e-14
-9.9521e-15
-1.00262e-14
-9.95167e-15
-1.00261e-14
-9.95123e-15
-1.00259e-14
-9.95135e-15
-1.00258e-14
-9.95135e-15
-1.00257e-14
-9.95134e-15
-1.00256e-14
-9.95132e-15
-1.00253e-14
-9.95141e-15
-1.00251e-14
-9.95155e-15
-1.00251e-14
-9.95162e-15
-1.0025e-14
-9.95163e-15
-1.00249e-14
-9.95169e-15
-1.00248e-14
-9.95187e-15
-1.00247e-14
-9.95188e-15
-1.00246e-14
-9.95186e-15
-1.00247e-14
-9.95177e-15
-1.00246e-14
-9.95177e-15
-1.00246e-14
-9.95177e-15
-1.00246e-14
-9.95172e-15
-1.00246e-14
-9.95167e-15
-1.00246e-14
-9.95167e-15
-1.00246e-14
-9.95165e-15
-1.00246e-14
-9.95163e-15
-1.00246e-14
-9.95162e-15
-1.00246e-14
-9.95161e-15
-1.00246e-14
-9.9516e-15
-1.00246e-14
-9.9516e-15
-7.66816e-15
-7.55842e-15
-7.70365e-15
-7.71845e-15
-7.80108e-15
-7.8287e-15
-7.95778e-15
-7.90989e-15
-8.08646e-15
-8.11529e-15
-8.22375e-15
-8.27468e-15
-8.25155e-15
-8.39598e-15
-8.39111e-15
-8.4742e-15
-8.58922e-15
-8.61801e-15
-8.69645e-15
-8.75387e-15
-8.84771e-15
-8.84978e-15
-8.93142e-15
-8.88038e-15
-8.92148e-15
-8.96208e-15
-9.01259e-15
-8.99297e-15
-9.04365e-15
-9.00291e-15
-9.12052e-15
-9.0798e-15
-9.15371e-15
-9.13446e-15
-9.22557e-15
-9.12064e-15
-9.22187e-15
-9.15854e-15
-9.29357e-15
-9.26418e-15
-9.34065e-15
-9.33299e-15
-9.4078e-15
-9.3934e-15
-9.45417e-15
-9.39939e-15
-9.51011e-15
-9.4852e-15
-9.54598e-15
-9.5412e-15
-9.55827e-15
-9.54804e-15
-9.52224e-15
-9.57291e-15
-9.5657e-15
-9.57727e-15
-9.62204e-15
-9.60072e-15
-9.65184e-15
-9.63981e-15
-9.70047e-15
-9.67401e-15
-9.74574e-15
-9.74767e-15
-9.80944e-15
-9.81944e-15
-9.91606e-15
-9.86897e-15
-9.9346e-15
-9.84496e-15
-9.93912e-15
-9.85821e-15
-9.97335e-15
-9.93233e-15
-9.98596e-15
-9.93299e-15
-1.00011e-14
-9.95302e-15
-1.00189e-14
-9.9929e-15
-1.00498e-14
-1.0031e-14
-1.0035e-14
-1.0033e-14
-1.00664e-14
-1.00354e-14
-1.00882e-14
-1.00365e-14
-1.00788e-14
-1.00349e-14
-1.0072e-14
-1.00193e-14
-1.00795e-14
-1.00118e-14
-1.00789e-14
-1.00001e-14
-1.00933e-14
-1.0007e-14
-1.00771e-14
-1.00204e-14
-1.00748e-14
-1.003e-14
-1.00857e-14
-1.00249e-14
-1.00876e-14
-1.00282e-14
-1.00801e-14
-1.00288e-14
-1.00626e-14
-1.00157e-14
-1.00686e-14
-1.00119e-14
-1.00758e-14
-1.00168e-14
-1.00728e-14
-1.00191e-14
-1.00594e-14
-1.00079e-14
-1.00696e-14
-1.00172e-14
-1.00698e-14
-1.00191e-14
-1.00654e-14
-1.0008e-14
-1.00563e-14
-1.00065e-14
-1.00535e-14
-1.00036e-14
-1.00515e-14
-9.99959e-15
-1.00502e-14
-9.99449e-15
-1.00387e-14
-9.99937e-15
-1.00332e-14
-9.99257e-15
-1.00227e-14
-9.97418e-15
-1.00129e-14
-9.98233e-15
-1.00034e-14
-9.99006e-15
-1.00048e-14
-9.97605e-15
-1.00012e-14
-9.96182e-15
-9.99259e-15
-9.95262e-15
-9.99498e-15
-9.94303e-15
-9.99778e-15
-9.9382e-15
-9.99579e-15
-9.93275e-15
-9.98905e-15
-9.93197e-15
-9.9879e-15
-9.92548e-15
-9.98714e-15
-9.91848e-15
-9.98421e-15
-9.91606e-15
-9.98421e-15
-9.91564e-15
-9.98454e-15
-9.91724e-15
-9.97512e-15
-9.92084e-15
-9.97092e-15
-9.91409e-15
-9.97187e-15
-9.90205e-15
-9.98281e-15
-9.89943e-15
-9.98666e-15
-9.9012e-15
-9.98353e-15
-9.90008e-15
-9.98782e-15
-9.9033e-15
-9.98996e-15
-9.90844e-15
-9.99463e-15
-9.90615e-15
-9.99719e-15
-9.90122e-15
-9.99769e-15
-9.89824e-15
-9.99843e-15
-9.89945e-15
-9.9994e-15
-9.90475e-15
-1.00028e-14
-9.90306e-15
-1.00041e-14
-9.89672e-15
-1.00068e-14
-9.89551e-15
-1.00065e-14
-9.89717e-15
-1.00064e-14
-9.89954e-15
-1.00054e-14
-9.89647e-15
-1.00097e-14
-9.89217e-15
-1.00082e-14
-9.89266e-15
-1.00068e-14
-9.89387e-15
-1.00057e-14
-9.89387e-15
-1.00056e-14
-9.89271e-15
-1.00048e-14
-9.8923e-15
-1.00023e-14
-9.89079e-15
-1.00035e-14
-9.89092e-15
-1.0004e-14
-9.89e-15
-1.00037e-14
-9.8898e-15
-1.00027e-14
-9.88944e-15
-1.0001e-14
-9.88976e-15
-1.00002e-14
-9.88914e-15
-9.99998e-15
-9.88763e-15
-9.9998e-15
-9.88793e-15
-9.9997e-15
-9.88848e-15
-1e-14
-9.88855e-15
-1.00015e-14
-9.88816e-15
-1.00016e-14
-9.887e-15
-1.00018e-14
-9.88545e-15
-1.0002e-14
-9.88579e-15
-1.00023e-14
-9.88603e-15
-1.00026e-14
-9.88558e-15
-1.00024e-14
-9.88625e-15
-1.00025e-14
-9.88711e-15
-1.00027e-14
-9.88788e-15
-1.00026e-14
-9.8883e-15
-1.00025e-14
-9.88838e-15
-1.00021e-14
-9.88829e-15
-1.00021e-14
-9.88839e-15
-1.00021e-14
-9.88856e-15
-1.00021e-14
-9.88833e-15
-1.00025e-14
-9.88805e-15
-1.00025e-14
-9.88809e-15
-1.00026e-14
-9.88831e-15
-1.00025e-14
-9.88839e-15
-1.00024e-14
-9.88843e-15
-1.00024e-14
-9.88849e-15
-1.00025e-14
-9.88858e-15
-1.00026e-14
-9.88858e-15
-1.00026e-14
-9.88856e-15
-1.00026e-14
-9.88863e-15
-1.00026e-14
-9.88862e-15
-1.00026e-14
-9.88877e-15
-1.00026e-14
-9.889e-15
-1.00026e-14
-9.88901e-15
-1.00026e-14
-9.88894e-15
-1.00026e-14
-9.88889e-15
-1.00025e-14
-9.88888e-15
-1.00025e-14
-9.88894e-15
-1.00024e-14
-9.889e-15
-1.00024e-14
-9.88902e-15
-1.00025e-14
-9.889e-15
-1.00024e-14
-9.88899e-15
-1.00024e-14
-9.88899e-15
-1.00024e-14
-9.88898e-15
-1.00025e-14
-9.88897e-15
-1.00025e-14
-9.88897e-15
)
;

boundaryField
{
    walls
    {
        type            zeroGradient;
    }
    inlet
    {
        type            cyclic;
    }
    outlet
    {
        type            cyclic;
    }
    sides
    {
        type            empty;
    }
}


// ************************************************************************* //
