/*--------------------------------*- C++ -*----------------------------------*\
| =========                 |                                                 |
| \\      /  F ield         | OpenFOAM: The Open Source CFD Toolbox           |
|  \\    /   O peration     | Version:  2106                                  |
|   \\  /    A nd           | Website:  www.openfoam.com                      |
|    \\/     M anipulation  |                                                 |
\*---------------------------------------------------------------------------*/
FoamFile
{
    version     2.0;
    format      ascii;
    arch        "LSB;label=32;scalar=64";
    class       volVectorField;
    location    "10000";
    object      U;
}
// * * * * * * * * * * * * * * * * * * * * * * * * * * * * * * * * * * * * * //

dimensions      [0 1 -1 0 0 0 0];

internalField   nonuniform List<vector> 
2560
(
(0.00366486 -1.84707e-16 -1.8955e-17)
(0.00366486 4.50349e-19 -4.03687e-18)
(0.0110469 -2.68653e-15 -9.83456e-17)
(0.0110469 -1.25616e-18 -4.79484e-17)
(0.0185352 -1.7478e-15 -1.02989e-16)
(0.0185352 -1.48258e-18 -4.93638e-17)
(0.0261313 -1.74951e-15 -1.07585e-16)
(0.0261313 -2.30625e-18 -5.08235e-17)
(0.0338369 -1.73025e-15 -1.12388e-16)
(0.0338369 -3.15392e-18 -5.23291e-17)
(0.0416533 -1.73382e-15 -1.17409e-16)
(0.0416533 -4.02365e-18 -5.38826e-17)
(0.0495823 -1.73556e-15 -1.22614e-16)
(0.0495823 -4.93713e-18 -5.54846e-17)
(0.0576254 -1.73406e-15 -1.27996e-16)
(0.0576254 -5.86621e-18 -5.71363e-17)
(0.065784 -1.73235e-15 -1.33555e-16)
(0.065784 -6.83186e-18 -5.88383e-17)
(0.0740595 -1.73079e-15 -1.39293e-16)
(0.0740595 -7.84082e-18 -6.05921e-17)
(0.0824534 -1.72914e-15 -1.45209e-16)
(0.0824534 -8.8276e-18 -6.2398e-17)
(0.0909668 -1.72741e-15 -1.51302e-16)
(0.0909668 -9.79736e-18 -6.42546e-17)
(0.0996004 -1.72569e-15 -1.57572e-16)
(0.0996004 -1.0781e-17 -6.61625e-17)
(0.108355 -1.72389e-15 -1.64014e-16)
(0.108355 -1.17833e-17 -6.81198e-17)
(0.11723 -1.72193e-15 -1.70621e-16)
(0.11723 -1.29001e-17 -7.01251e-17)
(0.126226 -1.71989e-15 -1.77383e-16)
(0.126226 -1.40615e-17 -7.21716e-17)
(0.135341 -1.71792e-15 -1.84283e-16)
(0.135341 -1.51375e-17 -7.42517e-17)
(0.144572 -1.71598e-15 -1.91302e-16)
(0.144572 -1.61988e-17 -7.63603e-17)
(0.153917 -1.71403e-15 -1.98413e-16)
(0.153917 -1.72339e-17 -7.84876e-17)
(0.16337 -1.71199e-15 -2.05583e-16)
(0.16337 -1.83673e-17 -8.06214e-17)
(0.172926 -1.7098e-15 -2.1277e-16)
(0.172926 -1.95397e-17 -8.27455e-17)
(0.182575 -1.70759e-15 -2.19927e-16)
(0.182575 -2.06706e-17 -8.48443e-17)
(0.192309 -1.7055e-15 -2.27001e-16)
(0.192309 -2.18589e-17 -8.68959e-17)
(0.202115 -1.70323e-15 -2.33935e-16)
(0.202115 -2.32576e-17 -8.88852e-17)
(0.21198 -1.70061e-15 -2.40667e-16)
(0.21198 -2.47432e-17 -9.07884e-17)
(0.221889 -1.69814e-15 -2.47133e-16)
(0.221889 -2.62078e-17 -9.25823e-17)
(0.231823 -1.69564e-15 -2.53272e-16)
(0.231823 -2.75377e-17 -9.42495e-17)
(0.241764 -1.69304e-15 -2.59028e-16)
(0.241764 -2.86436e-17 -9.57712e-17)
(0.251693 -1.69043e-15 -2.64352e-16)
(0.251693 -2.9666e-17 -9.71264e-17)
(0.261589 -1.68777e-15 -2.69206e-16)
(0.261589 -3.08986e-17 -9.83073e-17)
(0.271433 -1.68507e-15 -2.7356e-16)
(0.271433 -3.23856e-17 -9.93142e-17)
(0.281204 -1.68243e-15 -2.77402e-16)
(0.281204 -3.37041e-17 -1.00138e-16)
(0.290883 -1.6799e-15 -2.80731e-16)
(0.290883 -3.47454e-17 -1.00787e-16)
(0.300453 -1.67742e-15 -2.83559e-16)
(0.300453 -3.58276e-17 -1.01262e-16)
(0.309898 -1.67479e-15 -2.85906e-16)
(0.309898 -3.72157e-17 -1.01579e-16)
(0.319204 -1.67195e-15 -2.87806e-16)
(0.319204 -3.88353e-17 -1.01745e-16)
(0.328359 -1.66928e-15 -2.89298e-16)
(0.328359 -4.01605e-17 -1.01773e-16)
(0.337352 -1.66659e-15 -2.90426e-16)
(0.337352 -4.117e-17 -1.01693e-16)
(0.346177 -1.66348e-15 -2.88858e-16)
(0.346177 -4.2396e-17 -1.01513e-16)
(0.354826 -1.66064e-15 -2.83922e-16)
(0.354826 -4.36191e-17 -1.01254e-16)
(0.363297 -1.65849e-15 -2.7881e-16)
(0.363297 -4.44292e-17 -1.00931e-16)
(0.371587 -1.65653e-15 -2.73576e-16)
(0.371587 -4.47769e-17 -1.00552e-16)
(0.379694 -1.6545e-15 -2.68265e-16)
(0.379694 -4.53749e-17 -1.00137e-16)
(0.387621 -1.65229e-15 -2.62909e-16)
(0.387621 -4.61615e-17 -9.97058e-17)
(0.395367 -1.65007e-15 -2.57548e-16)
(0.395367 -4.69561e-17 -9.92721e-17)
(0.402935 -1.64789e-15 -2.52217e-16)
(0.402935 -4.74659e-17 -9.88432e-17)
(0.41033 -1.64558e-15 -2.46935e-16)
(0.41033 -4.779e-17 -9.84291e-17)
(0.417553 -1.64334e-15 -2.41727e-16)
(0.417553 -4.85685e-17 -9.80312e-17)
(0.424611 -1.64132e-15 -2.36608e-16)
(0.424611 -4.94999e-17 -9.76635e-17)
(0.431507 -1.63945e-15 -2.31595e-16)
(0.431507 -5.00479e-17 -9.73218e-17)
(0.438245 -1.63769e-15 -2.267e-16)
(0.438245 -5.04378e-17 -9.70268e-17)
(0.444832 -1.6355e-15 -2.21928e-16)
(0.444832 -5.16597e-17 -9.67696e-17)
(0.451272 -1.63316e-15 -2.17265e-16)
(0.451272 -5.2463e-17 -9.65556e-17)
(0.45757 -1.6311e-15 -2.12741e-16)
(0.45757 -5.31336e-17 -9.6405e-17)
(0.463732 -1.6294e-15 -2.08344e-16)
(0.463732 -5.4152e-17 -9.63074e-17)
(0.469761 -1.62776e-15 -2.04072e-16)
(0.469761 -5.44397e-17 -9.62369e-17)
(0.475663 -1.62662e-15 -1.99941e-16)
(0.475663 -5.45286e-17 -9.62134e-17)
(0.481444 -1.62595e-15 -1.95959e-16)
(0.481444 -5.49574e-17 -9.62532e-17)
(0.487106 -1.62512e-15 -1.92101e-16)
(0.487106 -5.50083e-17 -9.63484e-17)
(0.492655 -1.62388e-15 -1.88369e-16)
(0.492655 -5.52293e-17 -9.65105e-17)
(0.498096 -1.62261e-15 -1.84759e-16)
(0.498096 -5.56425e-17 -9.67217e-17)
(0.503431 -1.62157e-15 -1.81293e-16)
(0.503431 -5.4987e-17 -9.69613e-17)
(0.508666 -1.62056e-15 -1.8144e-16)
(0.508666 -5.49812e-17 -9.72847e-17)
(0.513805 -1.61938e-15 -1.81877e-16)
(0.513805 -5.48208e-17 -9.76724e-17)
(0.51885 -1.61836e-15 -1.82421e-16)
(0.51885 -5.49858e-17 -9.81045e-17)
(0.523806 -1.61762e-15 -1.83017e-16)
(0.523806 -5.53996e-17 -9.85942e-17)
(0.528675 -1.61631e-15 -1.83681e-16)
(0.528675 -5.54696e-17 -9.91488e-17)
(0.533462 -1.61498e-15 -1.84429e-16)
(0.533462 -5.56655e-17 -9.97579e-17)
(0.538169 -1.61406e-15 -1.85224e-16)
(0.538169 -5.4962e-17 -1.00432e-16)
(0.542799 -1.61312e-15 -1.86162e-16)
(0.542799 -5.45766e-17 -1.01167e-16)
(0.547355 -1.6115e-15 -1.87107e-16)
(0.547355 -5.50907e-17 -1.01959e-16)
(0.55184 -1.61004e-15 -1.88155e-16)
(0.55184 -5.56559e-17 -1.02789e-16)
(0.556256 -1.60883e-15 -1.89241e-16)
(0.556256 -5.59779e-17 -1.03727e-16)
(0.560607 -1.60749e-15 -1.90427e-16)
(0.560607 -5.61803e-17 -1.04698e-16)
(0.564893 -1.60629e-15 -1.91667e-16)
(0.564893 -5.662e-17 -1.05743e-16)
(0.569118 -1.60441e-15 -1.92973e-16)
(0.569118 -5.72823e-17 -1.06805e-16)
(0.573284 -1.60242e-15 -1.94342e-16)
(0.573284 -5.80889e-17 -1.07983e-16)
(0.577393 -1.6007e-15 -1.95807e-16)
(0.577393 -5.9183e-17 -1.09225e-16)
(0.581446 -1.59981e-15 -1.97307e-16)
(0.581446 -5.97817e-17 -1.10518e-16)
(0.585446 -1.59926e-15 -1.98903e-16)
(0.585446 -6.00225e-17 -1.11877e-16)
(0.589395 -1.59743e-15 -2.0058e-16)
(0.589395 -6.08284e-17 -1.13248e-16)
(0.593294 -1.59523e-15 -2.0227e-16)
(0.593294 -6.3085e-17 -1.14729e-16)
(0.597144 -1.59383e-15 -2.04077e-16)
(0.597144 -6.37143e-17 -1.16306e-16)
(0.600948 -1.59233e-15 -2.05944e-16)
(0.600948 -6.34911e-17 -1.17966e-16)
(0.604708 -1.59035e-15 -2.07886e-16)
(0.604708 -6.51583e-17 -1.19636e-16)
(0.608423 -1.58892e-15 -2.09903e-16)
(0.608423 -6.55491e-17 -1.21381e-16)
(0.612097 -1.58861e-15 -2.11965e-16)
(0.612097 -6.53886e-17 -1.2308e-16)
(0.615729 -1.58879e-15 -2.14087e-16)
(0.615729 -6.59479e-17 -1.25006e-16)
(0.619322 -1.58819e-15 -2.16313e-16)
(0.619322 -6.5814e-17 -1.26998e-16)
(0.622877 -1.5875e-15 -2.18612e-16)
(0.622877 -6.61188e-17 -1.28961e-16)
(0.626395 -1.58697e-15 -2.21004e-16)
(0.626395 -6.75856e-17 -1.31042e-16)
(0.629877 -1.5855e-15 -2.2349e-16)
(0.629877 -6.8277e-17 -1.33218e-16)
(0.633324 -1.5835e-15 -2.26021e-16)
(0.633324 -6.92614e-17 -1.35469e-16)
(0.636737 -1.58188e-15 -2.28604e-16)
(0.636737 -7.05194e-17 -1.37713e-16)
(0.640117 -1.58081e-15 -2.31304e-16)
(0.640117 -7.19086e-17 -1.40073e-16)
(0.643466 -1.57934e-15 -2.34078e-16)
(0.643466 -7.33696e-17 -1.42663e-16)
(0.646783 -1.57742e-15 -2.36926e-16)
(0.646783 -7.41158e-17 -1.45238e-16)
(0.650071 -1.57504e-15 -2.39894e-16)
(0.650071 -7.50489e-17 -1.47771e-16)
(0.653329 -1.57376e-15 -2.42839e-16)
(0.653329 -7.59923e-17 -1.5035e-16)
(0.656559 -1.57529e-15 -2.45927e-16)
(0.656559 -7.59438e-17 -1.53135e-16)
(0.659762 -1.57601e-15 -2.49063e-16)
(0.659762 -7.5617e-17 -1.56017e-16)
(0.662937 -1.57389e-15 -2.5244e-16)
(0.662937 -7.75983e-17 -1.58956e-16)
(0.666087 -1.57186e-15 -2.558e-16)
(0.666087 -7.95348e-17 -1.62083e-16)
(0.669211 -1.5708e-15 -2.59216e-16)
(0.669211 -8.14542e-17 -1.65322e-16)
(0.672311 -1.57058e-15 -2.62826e-16)
(0.672311 -8.5148e-17 -1.68421e-16)
(0.675387 -1.5701e-15 -2.66551e-16)
(0.675387 -8.69423e-17 -1.7174e-16)
(0.678439 -1.56849e-15 -2.70315e-16)
(0.678439 -8.80142e-17 -1.75101e-16)
(0.681469 -1.56735e-15 -2.74196e-16)
(0.681469 -9.0886e-17 -1.78484e-16)
(0.684477 -1.56588e-15 -2.78196e-16)
(0.684477 -9.31634e-17 -1.82067e-16)
(0.687463 -1.5646e-15 -2.82247e-16)
(0.687463 -9.38588e-17 -1.85668e-16)
(0.690428 -1.56372e-15 -2.86507e-16)
(0.690428 -9.53071e-17 -1.89461e-16)
(0.693373 -1.56222e-15 -2.90761e-16)
(0.693373 -9.6997e-17 -1.93118e-16)
(0.696297 -1.56074e-15 -2.95167e-16)
(0.696297 -9.90625e-17 -1.97075e-16)
(0.699203 -1.55975e-15 -2.99698e-16)
(0.699203 -1.00539e-16 -2.01175e-16)
(0.702089 -1.55872e-15 -3.04386e-16)
(0.702089 -1.0239e-16 -2.05275e-16)
(0.704957 -1.5575e-15 -3.09117e-16)
(0.704957 -1.04842e-16 -2.09471e-16)
(0.707807 -1.55487e-15 -3.13987e-16)
(0.707807 -1.07383e-16 -2.13884e-16)
(0.710639 -1.55052e-15 -3.19159e-16)
(0.710639 -1.10562e-16 -2.18455e-16)
(0.713454 -1.5471e-15 -3.23284e-16)
(0.713454 -1.11654e-16 -2.23022e-16)
(0.716252 -1.54483e-15 -3.25856e-16)
(0.716252 -1.14162e-16 -2.27599e-16)
(0.719034 -1.54178e-15 -3.28474e-16)
(0.719034 -1.1748e-16 -2.32517e-16)
(0.7218 -1.53927e-15 -3.31264e-16)
(0.7218 -1.18066e-16 -2.3741e-16)
(0.72455 -1.54117e-15 -3.33932e-16)
(0.72455 -1.15602e-16 -2.42389e-16)
(0.727285 -1.54313e-15 -3.36268e-16)
(0.727285 -1.15711e-16 -2.47559e-16)
(0.730005 -1.54349e-15 -3.38579e-16)
(0.730005 -1.17566e-16 -2.53069e-16)
(0.732711 -1.54512e-15 -3.40995e-16)
(0.732711 -1.17648e-16 -2.55804e-16)
(0.735402 -1.54518e-15 -3.43377e-16)
(0.735402 -1.18963e-16 -2.57036e-16)
(0.738079 -1.54407e-15 -3.45594e-16)
(0.738079 -1.20365e-16 -2.58147e-16)
(0.740743 -1.54298e-15 -3.47761e-16)
(0.740743 -1.21422e-16 -2.59141e-16)
(0.743394 -1.54179e-15 -3.49803e-16)
(0.743394 -1.22062e-16 -2.60463e-16)
(0.746031 -1.54072e-15 -3.51973e-16)
(0.746031 -1.22991e-16 -2.61827e-16)
(0.748656 -1.5392e-15 -3.54391e-16)
(0.748656 -1.25036e-16 -2.63034e-16)
(0.751268 -1.53767e-15 -3.56762e-16)
(0.751268 -1.2956e-16 -2.63832e-16)
(0.753868 -1.53662e-15 -3.58851e-16)
(0.753868 -1.31716e-16 -2.6477e-16)
(0.756456 -1.53452e-15 -3.61235e-16)
(0.756456 -1.31066e-16 -2.65523e-16)
(0.759032 -1.53285e-15 -3.63454e-16)
(0.759032 -1.3222e-16 -2.66158e-16)
(0.761597 -1.53271e-15 -3.65538e-16)
(0.761597 -1.35293e-16 -2.66779e-16)
(0.76415 -1.53363e-15 -3.67302e-16)
(0.76415 -1.35557e-16 -2.67758e-16)
(0.766693 -1.53252e-15 -3.69104e-16)
(0.766693 -1.36227e-16 -2.6837e-16)
(0.769224 -1.52779e-15 -3.71182e-16)
(0.769224 -1.42324e-16 -2.68854e-16)
(0.771745 -1.52453e-15 -3.72853e-16)
(0.771745 -1.45995e-16 -2.70245e-16)
(0.774256 -1.52131e-15 -3.74702e-16)
(0.774256 -1.47758e-16 -2.71426e-16)
(0.776757 -1.5183e-15 -3.76853e-16)
(0.776757 -1.54471e-16 -2.72302e-16)
(0.779248 -1.51516e-15 -3.79025e-16)
(0.779248 -1.58545e-16 -2.73589e-16)
(0.781728 -1.51191e-15 -3.81313e-16)
(0.781728 -1.60669e-16 -2.75115e-16)
(0.7842 -1.50875e-15 -3.83411e-16)
(0.7842 -1.66453e-16 -2.76026e-16)
(0.786662 -1.5035e-15 -3.85432e-16)
(0.786662 -1.69186e-16 -2.76902e-16)
(0.789114 -1.49902e-15 -3.87736e-16)
(0.789114 -1.7402e-16 -2.7778e-16)
(0.791558 -1.49486e-15 -3.90075e-16)
(0.791558 -1.78175e-16 -2.78715e-16)
(0.793993 -1.4903e-15 -3.92393e-16)
(0.793993 -1.83411e-16 -2.79626e-16)
(0.796419 -1.48634e-15 -3.94519e-16)
(0.796419 -1.90801e-16 -2.80707e-16)
(0.798836 -1.4832e-15 -3.96762e-16)
(0.798836 -1.93479e-16 -2.81658e-16)
(0.801245 -1.47795e-15 -3.99151e-16)
(0.801245 -1.99813e-16 -2.82249e-16)
(0.803646 -1.46819e-15 -4.02075e-16)
(0.803646 -2.06476e-16 -2.82665e-16)
(0.806039 -1.45934e-15 -4.05338e-16)
(0.806039 -2.12227e-16 -2.83378e-16)
(0.808424 -1.45516e-15 -4.08058e-16)
(0.808424 -2.20293e-16 -2.83947e-16)
(0.8108 -1.45121e-15 -4.10168e-16)
(0.8108 -2.22529e-16 -2.8471e-16)
(0.81317 -1.44603e-15 -4.12686e-16)
(0.81317 -2.25305e-16 -2.85677e-16)
(0.815531 -1.43697e-15 -4.16138e-16)
(0.815531 -2.34728e-16 -2.85597e-16)
(0.817885 -1.42298e-15 -4.19274e-16)
(0.817885 -2.44348e-16 -2.86561e-16)
(0.820232 -1.41092e-15 -4.23221e-16)
(0.820232 -2.47257e-16 -2.88398e-16)
(0.822572 -1.40673e-15 -4.26995e-16)
(0.822572 -2.49231e-16 -2.90591e-16)
(0.824904 -1.40442e-15 -4.29476e-16)
(0.824904 -2.54038e-16 -2.92515e-16)
(0.82723 -1.40285e-15 -4.32412e-16)
(0.82723 -2.57049e-16 -2.94231e-16)
(0.829549 -1.40514e-15 -4.34957e-16)
(0.829549 -2.61072e-16 -2.9616e-16)
(0.831861 -1.4056e-15 -4.36556e-16)
(0.831861 -2.65325e-16 -2.97217e-16)
(0.834166 -1.40373e-15 -4.3834e-16)
(0.834166 -2.68627e-16 -2.98938e-16)
(0.836465 -1.40108e-15 -4.4053e-16)
(0.836465 -2.7407e-16 -3.00368e-16)
(0.838757 -1.39753e-15 -4.42296e-16)
(0.838757 -2.78829e-16 -3.02409e-16)
(0.841043 -1.39746e-15 -4.442e-16)
(0.841043 -2.81682e-16 -3.04579e-16)
(0.843323 -1.39746e-15 -4.45122e-16)
(0.843323 -2.87988e-16 -3.06476e-16)
(0.845596 -1.39541e-15 -4.46429e-16)
(0.845596 -2.94249e-16 -3.07155e-16)
(0.847864 -1.39301e-15 -4.469e-16)
(0.847864 -2.98562e-16 -3.08587e-16)
(0.850125 -1.38917e-15 -4.4711e-16)
(0.850125 -3.01252e-16 -3.09615e-16)
(0.852381 -1.38822e-15 -4.46431e-16)
(0.852381 -3.05922e-16 -3.10291e-16)
(0.854631 -1.38383e-15 -4.46113e-16)
(0.854631 -3.10326e-16 -3.10828e-16)
(0.856875 -1.37796e-15 -4.45374e-16)
(0.856875 -3.19539e-16 -3.1177e-16)
(0.859113 -1.37717e-15 -4.44435e-16)
(0.859113 -3.27955e-16 -3.12319e-16)
(0.861346 -1.37161e-15 -4.43978e-16)
(0.861346 -3.30124e-16 -3.13225e-16)
(0.863573 -1.36538e-15 -4.44774e-16)
(0.863573 -3.40532e-16 -3.1371e-16)
(0.865795 -1.35914e-15 -4.45069e-16)
(0.865795 -3.51218e-16 -3.14045e-16)
(0.868011 -1.35247e-15 -4.45491e-16)
(0.868011 -3.58603e-16 -3.1426e-16)
(0.870222 -1.34558e-15 -4.44873e-16)
(0.870222 -3.66062e-16 -3.15125e-16)
(0.872428 -1.33498e-15 -4.44936e-16)
(0.872428 -3.7292e-16 -3.1565e-16)
(0.874629 -1.3229e-15 -4.45535e-16)
(0.874629 -3.84359e-16 -3.17115e-16)
(0.876825 -1.31062e-15 -4.4675e-16)
(0.876825 -3.9307e-16 -3.18066e-16)
(0.879015 -1.306e-15 -4.47288e-16)
(0.879015 -3.97437e-16 -3.18484e-16)
(0.881201 -1.301e-15 -4.46244e-16)
(0.881201 -4.04671e-16 -3.18855e-16)
(0.883381 -1.29512e-15 -4.45207e-16)
(0.883381 -4.13707e-16 -3.19033e-16)
(0.885557 -1.29033e-15 -4.4452e-16)
(0.885557 -4.24345e-16 -3.17993e-16)
(0.887728 -1.27979e-15 -4.43667e-16)
(0.887728 -4.37114e-16 -3.16641e-16)
(0.889894 -1.27073e-15 -4.43632e-16)
(0.889894 -4.48562e-16 -3.16041e-16)
(0.892055 -1.26044e-15 -4.43111e-16)
(0.892055 -4.5885e-16 -3.17472e-16)
(0.894211 -1.25056e-15 -4.43421e-16)
(0.894211 -4.65005e-16 -3.15929e-16)
(0.896363 -1.24219e-15 -4.42287e-16)
(0.896363 -4.73236e-16 -3.13329e-16)
(0.89851 -1.2296e-15 -4.39959e-16)
(0.89851 -4.90365e-16 -3.12488e-16)
(0.900653 -1.22035e-15 -4.38242e-16)
(0.900653 -4.97852e-16 -3.14802e-16)
(0.902791 -1.21033e-15 -4.38632e-16)
(0.902791 -5.09188e-16 -3.14432e-16)
(0.904925 -1.19837e-15 -4.37737e-16)
(0.904925 -5.28739e-16 -3.11854e-16)
(0.907054 -1.18811e-15 -4.34728e-16)
(0.907054 -5.36506e-16 -3.12614e-16)
(0.909179 -1.16798e-15 -4.34183e-16)
(0.909179 -5.4843e-16 -3.12861e-16)
(0.911299 -1.14785e-15 -4.36002e-16)
(0.911299 -5.63926e-16 -3.15725e-16)
(0.913415 -1.13893e-15 -4.36793e-16)
(0.913415 -5.69154e-16 -3.17533e-16)
(0.915527 -1.13418e-15 -4.35836e-16)
(0.915527 -5.66652e-16 -3.19497e-16)
(0.917634 -1.12992e-15 -4.35028e-16)
(0.917634 -5.6133e-16 -3.20641e-16)
(0.919737 -1.1274e-15 -4.33604e-16)
(0.919737 -5.61333e-16 -3.22592e-16)
(0.921835 -1.12327e-15 -4.32098e-16)
(0.921835 -5.69126e-16 -3.2216e-16)
(0.92393 -1.11227e-15 -4.30938e-16)
(0.92393 -5.71165e-16 -3.2056e-16)
(0.92602 -1.10942e-15 -4.29324e-16)
(0.92602 -5.74113e-16 -3.19951e-16)
(0.928106 -1.10829e-15 -4.27826e-16)
(0.928106 -5.8088e-16 -3.20426e-16)
(0.930188 -1.10134e-15 -4.29518e-16)
(0.930188 -5.81509e-16 -3.17433e-16)
(0.932266 -1.10188e-15 -4.28043e-16)
(0.932266 -5.94961e-16 -3.15072e-16)
(0.934339 -1.10209e-15 -4.23178e-16)
(0.934339 -6.02552e-16 -3.13005e-16)
(0.936408 -1.10163e-15 -4.18221e-16)
(0.936408 -6.02996e-16 -3.11659e-16)
(0.938473 -1.10227e-15 -4.16406e-16)
(0.938473 -6.06748e-16 -3.09437e-16)
(0.940534 -1.0969e-15 -4.15583e-16)
(0.940534 -6.08278e-16 -3.06751e-16)
(0.942591 -1.09261e-15 -4.14459e-16)
(0.942591 -6.18632e-16 -3.01194e-16)
(0.944644 -1.08792e-15 -4.10214e-16)
(0.944644 -6.32149e-16 -2.99239e-16)
(0.946693 -1.08396e-15 -4.07005e-16)
(0.946693 -6.30136e-16 -3.00794e-16)
(0.948737 -1.07786e-15 -4.08258e-16)
(0.948737 -6.30554e-16 -2.94689e-16)
(0.950777 -1.07513e-15 -4.04511e-16)
(0.950777 -6.4332e-16 -2.87365e-16)
(0.952813 -1.07459e-15 -3.96806e-16)
(0.952813 -6.42556e-16 -2.83845e-16)
(0.954845 -1.0678e-15 -3.94067e-16)
(0.954845 -6.4154e-16 -2.80404e-16)
(0.956873 -1.06401e-15 -3.92504e-16)
(0.956873 -6.51027e-16 -2.72181e-16)
(0.958897 -1.05845e-15 -3.87949e-16)
(0.958897 -6.53705e-16 -2.64139e-16)
(0.960916 -1.04933e-15 -3.80742e-16)
(0.960916 -6.48752e-16 -2.60545e-16)
(0.962931 -1.0413e-15 -3.75101e-16)
(0.962931 -6.56573e-16 -2.56163e-16)
(0.964942 -1.03765e-15 -3.6943e-16)
(0.964942 -6.64e-16 -2.53058e-16)
(0.966949 -1.03663e-15 -3.67282e-16)
(0.966949 -6.70089e-16 -2.49036e-16)
(0.968952 -1.0347e-15 -3.65071e-16)
(0.968952 -6.78589e-16 -2.41835e-16)
(0.97095 -1.03509e-15 -3.57247e-16)
(0.97095 -6.87681e-16 -2.37298e-16)
(0.972944 -1.03854e-15 -3.48603e-16)
(0.972944 -6.81643e-16 -2.3813e-16)
(0.974933 -1.03236e-15 -3.43539e-16)
(0.974933 -6.76615e-16 -2.30235e-16)
(0.976918 -1.02623e-15 -3.3647e-16)
(0.976918 -6.91866e-16 -2.24669e-16)
(0.978899 -1.02493e-15 -3.24534e-16)
(0.978899 -6.91739e-16 -2.24225e-16)
(0.980875 -1.01892e-15 -3.17428e-16)
(0.980875 -6.87533e-16 -2.19099e-16)
(0.982847 -1.0095e-15 -3.05803e-16)
(0.982847 -6.86644e-16 -2.12402e-16)
(0.984814 -1.00265e-15 -3.00378e-16)
(0.984814 -6.79807e-16 -2.0857e-16)
(0.986776 -1.001e-15 -2.95984e-16)
(0.986776 -6.76788e-16 -2.12409e-16)
(0.988734 -9.99618e-16 -2.87799e-16)
(0.988734 -6.61934e-16 -2.13157e-16)
(0.990687 -1.00377e-15 -2.80182e-16)
(0.990687 -6.61635e-16 -2.12806e-16)
(0.992635 -1.00494e-15 -2.69758e-16)
(0.992635 -6.70534e-16 -2.12046e-16)
(0.994578 -9.98872e-16 -2.60495e-16)
(0.994578 -6.56519e-16 -2.03907e-16)
(0.996516 -9.94185e-16 -2.54684e-16)
(0.996516 -6.48929e-16 -1.99639e-16)
(0.99845 -9.74892e-16 -2.48765e-16)
(0.99845 -6.44538e-16 -1.94677e-16)
(1.00038 -9.44599e-16 -2.45234e-16)
(1.00038 -6.57321e-16 -1.81943e-16)
(1.0023 -9.23208e-16 -2.23351e-16)
(1.0023 -6.7985e-16 -1.72021e-16)
(1.00422 -8.87789e-16 -2.22229e-16)
(1.00422 -6.7347e-16 -1.6035e-16)
(1.00613 -8.46498e-16 -2.33671e-16)
(1.00613 -6.55199e-16 -1.5051e-16)
(1.00804 -8.24782e-16 -2.40101e-16)
(1.00804 -6.41314e-16 -1.45561e-16)
(1.00994 -8.03178e-16 -2.25279e-16)
(1.00994 -6.27752e-16 -1.49119e-16)
(1.01183 -7.81824e-16 -2.24794e-16)
(1.01183 -6.35719e-16 -1.53401e-16)
(1.01372 -7.80945e-16 -2.33534e-16)
(1.01372 -6.32299e-16 -1.50541e-16)
(1.01561 -7.78685e-16 -2.30552e-16)
(1.01561 -6.10285e-16 -1.61516e-16)
(1.01749 -7.38157e-16 -2.37159e-16)
(1.01749 -5.99716e-16 -1.72763e-16)
(1.01936 -6.89297e-16 -2.32352e-16)
(1.01936 -5.97501e-16 -1.82553e-16)
(1.02122 -6.8113e-16 -2.37512e-16)
(1.02122 -5.88193e-16 -1.89548e-16)
(1.02308 -6.70118e-16 -2.42588e-16)
(1.02308 -5.85379e-16 -1.95043e-16)
(1.02493 -6.27961e-16 -2.27278e-16)
(1.02493 -5.76444e-16 -2.0069e-16)
(1.02678 -5.99781e-16 -2.23425e-16)
(1.02678 -5.64057e-16 -2.15254e-16)
(1.02862 -5.85923e-16 -2.27967e-16)
(1.02862 -5.52273e-16 -2.19697e-16)
(1.03045 -5.7235e-16 -2.36083e-16)
(1.03045 -5.50997e-16 -1.99426e-16)
(1.03227 -5.5537e-16 -2.29107e-16)
(1.03227 -5.49915e-16 -1.80702e-16)
(1.03409 -5.49964e-16 -2.14487e-16)
(1.03409 -5.13995e-16 -1.87512e-16)
(1.0359 -5.46682e-16 -1.93105e-16)
(1.0359 -5.07567e-16 -1.96351e-16)
(1.0377 -5.18466e-16 -1.76629e-16)
(1.0377 -5.24411e-16 -2.13821e-16)
(1.03949 -4.86879e-16 -1.70363e-16)
(1.03949 -5.13e-16 -2.18069e-16)
(1.04127 -4.73649e-16 -1.69567e-16)
(1.04127 -5.08226e-16 -2.15647e-16)
(1.04305 -4.43157e-16 -1.77091e-16)
(1.04305 -4.98043e-16 -2.06693e-16)
(1.04481 -4.47289e-16 -2.04409e-16)
(1.04481 -4.50608e-16 -2.01125e-16)
(1.04657 -4.70372e-16 -2.07035e-16)
(1.04657 -4.34816e-16 -2.30836e-16)
(1.04832 -4.57739e-16 -2.1747e-16)
(1.04832 -4.40509e-16 -2.40257e-16)
(1.05006 -4.40544e-16 -2.37929e-16)
(1.05006 -4.50789e-16 -2.30348e-16)
(1.05178 -4.49628e-16 -2.70034e-16)
(1.05178 -4.49865e-16 -2.19319e-16)
(1.0535 -4.49812e-16 -2.81559e-16)
(1.0535 -4.61696e-16 -2.43841e-16)
(1.0552 -4.50579e-16 -3.11139e-16)
(1.0552 -4.78585e-16 -2.5782e-16)
(1.0569 -4.75187e-16 -3.23887e-16)
(1.0569 -4.91667e-16 -2.78024e-16)
(1.05858 -4.93636e-16 -3.46238e-16)
(1.05858 -4.93612e-16 -2.73379e-16)
(1.06025 -5.08191e-16 -3.40724e-16)
(1.06025 -4.8798e-16 -2.93606e-16)
(1.06191 -5.05037e-16 -3.35224e-16)
(1.06191 -4.86912e-16 -2.72268e-16)
(1.06355 -4.97714e-16 -3.48714e-16)
(1.06355 -4.7202e-16 -2.69815e-16)
(1.06518 -4.83319e-16 -3.60489e-16)
(1.06518 -4.68358e-16 -3.05463e-16)
(1.0668 -4.78745e-16 -3.7353e-16)
(1.0668 -4.81401e-16 -3.51541e-16)
(1.0684 -4.85078e-16 -3.73121e-16)
(1.0684 -4.71436e-16 -3.62456e-16)
(1.06998 -4.59373e-16 -3.81066e-16)
(1.06998 -4.58571e-16 -3.64448e-16)
(1.07155 -4.48787e-16 -4.28524e-16)
(1.07155 -4.70814e-16 -3.57311e-16)
(1.07311 -4.67244e-16 -4.34587e-16)
(1.07311 -4.86824e-16 -4.0305e-16)
(1.07464 -4.73539e-16 -4.254e-16)
(1.07464 -4.63813e-16 -4.40334e-16)
(1.07616 -4.914e-16 -4.30305e-16)
(1.07616 -4.76254e-16 -4.24705e-16)
(1.07766 -5.01039e-16 -4.17156e-16)
(1.07766 -4.85016e-16 -4.12714e-16)
(1.07914 -5.12285e-16 -4.18003e-16)
(1.07914 -4.91072e-16 -4.32499e-16)
(1.08059 -5.19247e-16 -4.11441e-16)
(1.08059 -5.14071e-16 -4.46803e-16)
(1.08203 -4.92137e-16 -4.31252e-16)
(1.08203 -5.01518e-16 -4.37884e-16)
(1.08344 -4.94758e-16 -4.56222e-16)
(1.08344 -5.14092e-16 -4.36062e-16)
(1.08483 -5.17198e-16 -4.43987e-16)
(1.08483 -5.36975e-16 -4.0258e-16)
(1.0862 -5.37839e-16 -4.28217e-16)
(1.0862 -5.38846e-16 -4.00662e-16)
(1.08753 -5.17305e-16 -4.40398e-16)
(1.08753 -5.24564e-16 -4.31617e-16)
(1.08884 -4.70579e-16 -5.04262e-16)
(1.08884 -5.02935e-16 -4.20284e-16)
(1.09012 -4.86531e-16 -4.87992e-16)
(1.09012 -5.25548e-16 -4.19268e-16)
(1.09137 -5.45846e-16 -5.32162e-16)
(1.09137 -5.47715e-16 -4.55956e-16)
(1.09259 -5.55991e-16 -5.5031e-16)
(1.09259 -5.21239e-16 -4.89366e-16)
(1.09378 -5.47149e-16 -5.25044e-16)
(1.09378 -5.58788e-16 -4.68263e-16)
(1.09492 -5.82365e-16 -4.82238e-16)
(1.09492 -5.80203e-16 -4.53991e-16)
(1.09603 -5.83496e-16 -4.62768e-16)
(1.09603 -5.61394e-16 -4.35219e-16)
(1.0971 -5.71436e-16 -4.6922e-16)
(1.0971 -5.59606e-16 -4.18299e-16)
(1.09813 -5.76871e-16 -4.49083e-16)
(1.09813 -5.97719e-16 -4.02446e-16)
(1.09911 -5.82648e-16 -4.38292e-16)
(1.09911 -6.30927e-16 -3.69848e-16)
(1.10005 -6.05816e-16 -4.52376e-16)
(1.10005 -6.02429e-16 -3.38512e-16)
(1.10093 -6.10531e-16 -4.24067e-16)
(1.10093 -5.32123e-16 -3.73269e-16)
(1.10176 -6.00447e-16 -3.54717e-16)
(1.10176 -5.35105e-16 -3.79154e-16)
(1.10254 -6.0424e-16 -3.36808e-16)
(1.10254 -5.55283e-16 -3.96323e-16)
(1.10325 -5.98121e-16 -3.25515e-16)
(1.10325 -5.69172e-16 -4.21067e-16)
(1.1039 -5.77323e-16 -2.95462e-16)
(1.1039 -5.95576e-16 -3.57885e-16)
(1.10449 -5.43005e-16 -3.21887e-16)
(1.10449 -6.10902e-16 -3.52496e-16)
(1.105 -5.43561e-16 -3.16879e-16)
(1.105 -6.07209e-16 -3.51513e-16)
(1.10544 -6.04024e-16 -2.64405e-16)
(1.10544 -5.87736e-16 -4.2032e-16)
(1.1058 -5.86069e-16 -1.501e-16)
(1.1058 -5.4401e-16 -4.42538e-16)
(1.10607 -5.58082e-16 -1.47763e-16)
(1.10607 -5.55003e-16 -4.44386e-16)
(1.10626 -5.46318e-16 -1.28481e-16)
(1.10626 -5.39802e-16 -4.46115e-16)
(1.10636 -5.19126e-16 -1.1678e-16)
(1.10636 -4.96884e-16 -3.93009e-16)
(0.00366486 2.62932e-19 5.87443e-18)
(0.00366486 1.31697e-19 9.07511e-18)
(0.0110469 -6.3714e-19 3.54318e-17)
(0.0110469 -2.96471e-19 3.57812e-17)
(0.0185352 -7.25026e-19 3.64612e-17)
(0.0185352 -3.4623e-19 3.68401e-17)
(0.0261313 -1.14035e-18 3.75161e-17)
(0.0261313 -5.67673e-19 3.79366e-17)
(0.0338369 -1.58393e-18 3.85968e-17)
(0.0338369 -7.92666e-19 3.90722e-17)
(0.0416533 -2.017e-18 3.97036e-17)
(0.0416533 -1.04096e-18 4.02481e-17)
(0.0495823 -2.43958e-18 4.08371e-17)
(0.0495823 -1.30665e-18 4.1466e-17)
(0.0576254 -2.8956e-18 4.1998e-17)
(0.0576254 -1.54131e-18 4.27273e-17)
(0.065784 -3.37599e-18 4.31859e-17)
(0.065784 -1.82491e-18 4.40342e-17)
(0.0740595 -3.86234e-18 4.44004e-17)
(0.0740595 -2.09694e-18 4.53865e-17)
(0.0824534 -4.37175e-18 4.56414e-17)
(0.0824534 -2.38319e-18 4.67856e-17)
(0.0909668 -4.88482e-18 4.69077e-17)
(0.0909668 -2.72433e-18 4.82309e-17)
(0.0996004 -5.39684e-18 4.81978e-17)
(0.0996004 -3.04348e-18 4.97215e-17)
(0.108355 -5.92042e-18 4.95099e-17)
(0.108355 -3.40017e-18 5.12565e-17)
(0.11723 -6.39654e-18 5.0842e-17)
(0.11723 -3.80425e-18 5.28338e-17)
(0.126226 -6.81419e-18 5.2191e-17)
(0.126226 -4.24276e-18 5.44515e-17)
(0.135341 -7.20963e-18 5.3553e-17)
(0.135341 -4.63704e-18 5.6106e-17)
(0.144572 -7.64285e-18 5.49205e-17)
(0.144572 -5.09836e-18 5.77878e-17)
(0.153917 -8.12521e-18 5.62857e-17)
(0.153917 -5.61024e-18 5.94897e-17)
(0.16337 -8.55792e-18 5.764e-17)
(0.16337 -6.14717e-18 6.12013e-17)
(0.172926 -9.00697e-18 5.8972e-17)
(0.172926 -6.67232e-18 6.2912e-17)
(0.182575 -9.54888e-18 6.02677e-17)
(0.182575 -7.121e-18 6.46086e-17)
(0.192309 -1.01858e-17 6.15108e-17)
(0.192309 -7.50688e-18 6.62791e-17)
(0.202115 -1.09327e-17 6.26817e-17)
(0.202115 -7.90415e-18 6.79104e-17)
(0.21198 -1.1698e-17 6.37647e-17)
(0.21198 -8.22535e-18 6.94881e-17)
(0.221889 -1.2507e-17 6.47453e-17)
(0.221889 -8.53809e-18 7.09928e-17)
(0.231823 -1.34843e-17 6.5615e-17)
(0.231823 -9.04148e-18 7.24075e-17)
(0.241764 -1.44551e-17 6.63605e-17)
(0.241764 -9.46832e-18 7.37167e-17)
(0.251693 -1.53547e-17 6.69738e-17)
(0.251693 -9.81727e-18 7.49128e-17)
(0.261589 -1.61917e-17 6.74466e-17)
(0.261589 -1.03238e-17 7.59854e-17)
(0.271433 -1.7001e-17 6.77763e-17)
(0.271433 -1.08639e-17 7.69197e-17)
(0.281204 -1.77742e-17 6.79633e-17)
(0.281204 -1.12358e-17 7.77109e-17)
(0.290883 -1.85354e-17 6.80112e-17)
(0.290883 -1.15943e-17 7.83647e-17)
(0.300453 -1.9303e-17 6.79247e-17)
(0.300453 -1.21807e-17 7.88917e-17)
(0.309898 -2.00046e-17 6.77135e-17)
(0.309898 -1.26224e-17 7.92975e-17)
(0.319204 -2.08449e-17 6.73868e-17)
(0.319204 -1.3227e-17 7.95922e-17)
(0.328359 -2.17393e-17 6.69529e-17)
(0.328359 -1.38289e-17 7.97843e-17)
(0.337352 -2.25359e-17 6.64204e-17)
(0.337352 -1.4535e-17 7.9886e-17)
(0.346177 -2.30644e-17 6.58023e-17)
(0.346177 -1.55556e-17 7.99186e-17)
(0.354826 -2.34781e-17 6.51165e-17)
(0.354826 -1.61383e-17 7.98821e-17)
(0.363297 -2.37777e-17 6.43744e-17)
(0.363297 -1.63582e-17 7.97901e-17)
(0.371587 -2.42974e-17 6.35879e-17)
(0.371587 -1.6781e-17 7.96636e-17)
(0.379694 -2.53973e-17 6.27583e-17)
(0.379694 -1.73526e-17 7.95147e-17)
(0.387621 -2.65645e-17 6.18936e-17)
(0.387621 -1.75224e-17 7.93414e-17)
(0.395367 -2.747e-17 6.10035e-17)
(0.395367 -1.78926e-17 7.91563e-17)
(0.402935 -2.81645e-17 6.00907e-17)
(0.402935 -1.80723e-17 7.89682e-17)
(0.41033 -2.90278e-17 5.91653e-17)
(0.41033 -1.81924e-17 7.87803e-17)
(0.417553 -2.98269e-17 5.82258e-17)
(0.417553 -1.87318e-17 7.86211e-17)
(0.424611 -3.05883e-17 5.72818e-17)
(0.424611 -1.91374e-17 7.84798e-17)
(0.431507 -3.15588e-17 5.63301e-17)
(0.431507 -1.91051e-17 7.83641e-17)
(0.438245 -3.23404e-17 5.53734e-17)
(0.438245 -1.92794e-17 7.827e-17)
(0.444832 -3.30928e-17 5.44181e-17)
(0.444832 -1.96473e-17 7.82089e-17)
(0.451272 -3.38265e-17 5.34673e-17)
(0.451272 -2.0248e-17 7.81814e-17)
(0.45757 -3.442e-17 5.25201e-17)
(0.45757 -2.06876e-17 7.8179e-17)
(0.463732 -3.50352e-17 5.15793e-17)
(0.463732 -2.04121e-17 7.82168e-17)
(0.469761 -3.54412e-17 5.06436e-17)
(0.469761 -2.07744e-17 7.83097e-17)
(0.475663 -3.57852e-17 4.97176e-17)
(0.475663 -2.14293e-17 7.84236e-17)
(0.481444 -3.61037e-17 4.88031e-17)
(0.481444 -2.21472e-17 7.85508e-17)
(0.487106 -3.67648e-17 4.79087e-17)
(0.487106 -2.28296e-17 7.87045e-17)
(0.492655 -3.74887e-17 4.69983e-17)
(0.492655 -2.28459e-17 7.89087e-17)
(0.498096 -3.7734e-17 4.60891e-17)
(0.498096 -2.35608e-17 7.9151e-17)
(0.503431 -3.82668e-17 4.51979e-17)
(0.503431 -2.39638e-17 7.93943e-17)
(0.508666 -3.89829e-17 4.43202e-17)
(0.508666 -2.40161e-17 7.96607e-17)
(0.513805 -3.98122e-17 4.3432e-17)
(0.513805 -2.43817e-17 7.99582e-17)
(0.51885 -4.05904e-17 4.25495e-17)
(0.51885 -2.45362e-17 8.02763e-17)
(0.523806 -4.08709e-17 4.16756e-17)
(0.523806 -2.52984e-17 8.06362e-17)
(0.528675 -4.12432e-17 4.08164e-17)
(0.528675 -2.53703e-17 8.09972e-17)
(0.533462 -4.25724e-17 3.9963e-17)
(0.533462 -2.48161e-17 8.14014e-17)
(0.538169 -4.37086e-17 3.97503e-17)
(0.538169 -2.50902e-17 8.18564e-17)
(0.542799 -4.33936e-17 4.27644e-17)
(0.542799 -2.63305e-17 8.2316e-17)
(0.547355 -4.31932e-17 4.58617e-17)
(0.547355 -2.73509e-17 8.27607e-17)
(0.55184 -4.36641e-17 4.89074e-17)
(0.55184 -2.77305e-17 8.32285e-17)
(0.556256 -4.42487e-17 5.19204e-17)
(0.556256 -2.81737e-17 8.36819e-17)
(0.560607 -4.4129e-17 5.49034e-17)
(0.560607 -2.84674e-17 8.41735e-17)
(0.564893 -4.37596e-17 5.78842e-17)
(0.564893 -2.8777e-17 8.46931e-17)
(0.569118 -4.37549e-17 6.08296e-17)
(0.569118 -2.93495e-17 8.5251e-17)
(0.573284 -4.48128e-17 6.37525e-17)
(0.573284 -2.82753e-17 8.57896e-17)
(0.577393 -4.61257e-17 6.66012e-17)
(0.577393 -2.75291e-17 8.63921e-17)
(0.581446 -4.60568e-17 6.94347e-17)
(0.581446 -2.81775e-17 8.70315e-17)
(0.585446 -4.59423e-17 7.2235e-17)
(0.585446 -2.84358e-17 8.7679e-17)
(0.589395 -4.61328e-17 7.50344e-17)