/*--------------------------------*- C++ -*----------------------------------*\
| =========                 |                                                 |
| \\      /  F ield         | OpenFOAM: The Open Source CFD Toolbox           |
|  \\    /   O peration     | Version:  2106                                  |
|   \\  /    A nd           | Website:  www.openfoam.com                      |
|    \\/     M anipulation  |                                                 |
\*---------------------------------------------------------------------------*/
FoamFile
{
    version     2.0;
    format      ascii;
    arch        "LSB;label=32;scalar=64";
    class       volSymmTensorField;
    location    "5000";
    object      turbulenceProperties:R;
}
// * * * * * * * * * * * * * * * * * * * * * * * * * * * * * * * * * * * * * //

dimensions      [0 2 -2 0 0 0 0];

internalField   nonuniform List<symmTensor> 
2560
(
(6.82464e-06 -2.03855e-08 -2.95097e-11 6.82464e-06 -4.01809e-24 6.82464e-06)
(6.82464e-06 -2.03855e-08 -2.95097e-11 6.82464e-06 -1.0075e-26 6.82464e-06)
(3.11658e-06 -5.34712e-08 -2.33367e-10 3.11658e-06 -2.22774e-23 3.11658e-06)
(3.11658e-06 -5.34712e-08 -2.33367e-10 3.11658e-06 -5.94283e-27 3.11658e-06)
(1.55273e-05 -7.82085e-07 -4.69107e-09 1.55273e-05 -1.61496e-22 1.55273e-05)
(1.55273e-05 -7.82085e-07 -4.69107e-09 1.55273e-05 1.44122e-25 1.55273e-05)
(5.59967e-05 -5.87479e-06 -3.56612e-08 5.59967e-05 -8.21117e-22 5.59967e-05)
(5.59967e-05 -5.87479e-06 -3.56612e-08 5.59967e-05 -2.37107e-25 5.59967e-05)
(0.000144164 -2.55343e-05 -1.56277e-07 0.000144164 1.54662e-22 0.000144164)
(0.000144164 -2.55343e-05 -1.56277e-07 0.000144164 -2.20947e-24 0.000144164)
(0.000297573 -7.64363e-05 -4.69381e-07 0.000297573 1.73258e-22 0.000297573)
(0.000297573 -7.64363e-05 -4.69381e-07 0.000297573 -1.3392e-23 0.000297573)
(0.000522003 -0.000172626 -1.05998e-06 0.000522003 5.35086e-20 0.000522003)
(0.000522003 -0.000172626 -1.05998e-06 0.000522003 -5.49411e-23 0.000522003)
(0.000804492 -0.000312532 -1.91968e-06 0.000804492 1.62429e-19 0.000804492)
(0.000804492 -0.000312532 -1.91968e-06 0.000804492 -1.55019e-22 0.000804492)
(0.00111754 -0.000477761 -2.94697e-06 0.00111754 3.26644e-19 0.00111754)
(0.00111754 -0.000477761 -2.94697e-06 0.00111754 -3.42003e-22 0.00111754)
(0.00143202 -0.000645666 -4.01939e-06 0.00143202 5.04134e-19 0.00143202)
(0.00143202 -0.000645666 -4.01939e-06 0.00143202 -6.4419e-22 0.00143202)
(0.00172714 -0.0008006 -5.05025e-06 0.00172714 6.54458e-19 0.00172714)
(0.00172714 -0.0008006 -5.05025e-06 0.00172714 -1.02364e-21 0.00172714)
(0.0019924 -0.000935902 -5.99774e-06 0.0019924 7.59518e-19 0.0019924)
(0.0019924 -0.000935902 -5.99774e-06 0.0019924 -1.49163e-21 0.0019924)
(0.00222492 -0.00105083 -6.85069e-06 0.00222492 8.20047e-19 0.00222492)
(0.00222492 -0.00105083 -6.85069e-06 0.00222492 -2.06793e-21 0.00222492)
(0.00242604 -0.00114734 -7.61352e-06 0.00242604 8.45018e-19 0.00242604)
(0.00242604 -0.00114734 -7.61352e-06 0.00242604 -2.74689e-21 0.00242604)
(0.00259896 -0.00122818 -8.29668e-06 0.00259896 8.44437e-19 0.00259896)
(0.00259896 -0.00122818 -8.29668e-06 0.00259896 -3.51036e-21 0.00259896)
(0.0027474 -0.00129605 -8.91186e-06 0.0027474 8.2624e-19 0.0027474)
(0.0027474 -0.00129605 -8.91186e-06 0.0027474 -4.53931e-21 0.0027474)
(0.00287492 -0.00135329 -9.47003e-06 0.00287492 7.96871e-19 0.00287492)
(0.00287492 -0.00135329 -9.47003e-06 0.00287492 -5.31257e-21 0.00287492)
(0.00298473 -0.00140181 -9.98066e-06 0.00298473 7.61036e-19 0.00298473)
(0.00298473 -0.00140181 -9.98066e-06 0.00298473 -5.75179e-21 0.00298473)
(0.00307953 -0.00144317 -1.04517e-05 0.00307953 7.20226e-19 0.00307953)
(0.00307953 -0.00144317 -1.04517e-05 0.00307953 -6.42659e-21 0.00307953)
(0.00316161 -0.0014786 -1.08897e-05 0.00316161 6.77109e-19 0.00316161)
(0.00316161 -0.0014786 -1.08897e-05 0.00316161 -7.71278e-21 0.00316161)
(0.00323288 -0.00150908 -1.13e-05 0.00323288 6.3343e-19 0.00323288)
(0.00323288 -0.00150908 -1.13e-05 0.00323288 -9.15188e-21 0.00323288)
(0.0032949 -0.00153541 -1.16871e-05 0.0032949 5.89704e-19 0.0032949)
(0.0032949 -0.00153541 -1.16871e-05 0.0032949 -1.03654e-20 0.0032949)
(0.00334897 -0.00155821 -1.20544e-05 0.00334897 5.46032e-19 0.00334897)
(0.00334897 -0.00155821 -1.20544e-05 0.00334897 -1.15386e-20 0.00334897)
(0.00339617 -0.00157801 -1.24049e-05 0.00339617 5.02003e-19 0.00339617)
(0.00339617 -0.00157801 -1.24049e-05 0.00339617 -1.25359e-20 0.00339617)
(0.0034374 -0.00159521 -1.27412e-05 0.0034374 4.5984e-19 0.0034374)
(0.0034374 -0.00159521 -1.27412e-05 0.0034374 -1.36863e-20 0.0034374)
(0.00347341 -0.00161017 -1.30651e-05 0.00347341 4.18245e-19 0.00347341)
(0.00347341 -0.00161017 -1.30651e-05 0.00347341 -1.52471e-20 0.00347341)
(0.00350483 -0.00162316 -1.33784e-05 0.00350483 3.77746e-19 0.00350483)
(0.00350483 -0.00162316 -1.33784e-05 0.00350483 -1.65997e-20 0.00350483)
(0.0035322 -0.00163442 -1.36826e-05 0.0035322 3.38159e-19 0.0035322)
(0.0035322 -0.00163442 -1.36826e-05 0.0035322 -1.79414e-20 0.0035322)
(0.00355596 -0.00164415 -1.39786e-05 0.00355596 2.9894e-19 0.00355596)
(0.00355596 -0.00164415 -1.39786e-05 0.00355596 -1.85006e-20 0.00355596)
(0.0035765 -0.00165252 -1.42677e-05 0.0035765 2.60631e-19 0.0035765)
(0.0035765 -0.00165252 -1.42677e-05 0.0035765 -1.88984e-20 0.0035765)
(0.00359415 -0.00165967 -1.45506e-05 0.00359415 2.2144e-19 0.00359415)
(0.00359415 -0.00165967 -1.45506e-05 0.00359415 -2.06247e-20 0.00359415)
(0.00360921 -0.00166571 -1.48281e-05 0.00360921 1.8351e-19 0.00360921)
(0.00360921 -0.00166571 -1.48281e-05 0.00360921 -2.58354e-20 0.00360921)
(0.0036219 -0.00167076 -1.51008e-05 0.0036219 1.47607e-19 0.0036219)
(0.0036219 -0.00167076 -1.51008e-05 0.0036219 -2.64549e-20 0.0036219)
(0.00363245 -0.00167491 -1.53692e-05 0.00363245 1.12283e-19 0.00363245)
(0.00363245 -0.00167491 -1.53692e-05 0.00363245 -2.70078e-20 0.00363245)
(0.00364104 -0.00167822 -1.56338e-05 0.00364104 7.54893e-20 0.00364104)
(0.00364104 -0.00167822 -1.56338e-05 0.00364104 -2.81124e-20 0.00364104)
(0.00364784 -0.00168077 -1.58949e-05 0.00364784 3.93885e-20 0.00364784)
(0.00364784 -0.00168077 -1.58949e-05 0.00364784 -2.95319e-20 0.00364784)
(0.003653 -0.00168262 -1.61531e-05 0.003653 4.90234e-21 0.003653)
(0.003653 -0.00168262 -1.61531e-05 0.003653 -3.1234e-20 0.003653)
(0.00365663 -0.00168381 -1.64084e-05 0.00365663 -2.7948e-20 0.00365663)
(0.00365663 -0.00168381 -1.64084e-05 0.00365663 -3.23887e-20 0.00365663)
(0.00365886 -0.00168441 -1.66613e-05 0.00365886 -6.28132e-20 0.00365886)
(0.00365886 -0.00168441 -1.66613e-05 0.00365886 -3.21744e-20 0.00365886)
(0.00365978 -0.00168444 -1.69118e-05 0.00365978 -9.8188e-20 0.00365978)
(0.00365978 -0.00168444 -1.69118e-05 0.00365978 -3.14287e-20 0.00365978)
(0.00365948 -0.00168395 -1.71603e-05 0.00365948 -1.30066e-19 0.00365948)
(0.00365948 -0.00168395 -1.71603e-05 0.00365948 -3.25985e-20 0.00365948)
(0.00365805 -0.00168296 -1.7407e-05 0.00365805 -1.61638e-19 0.00365805)
(0.00365805 -0.00168296 -1.7407e-05 0.00365805 -3.39383e-20 0.00365805)
(0.00365556 -0.00168152 -1.76518e-05 0.00365556 -1.95007e-19 0.00365556)
(0.00365556 -0.00168152 -1.76518e-05 0.00365556 -3.34324e-20 0.00365556)
(0.00365207 -0.00167963 -1.78951e-05 0.00365207 -2.2737e-19 0.00365207)
(0.00365207 -0.00167963 -1.78951e-05 0.00365207 -3.5218e-20 0.00365207)
(0.00364765 -0.00167734 -1.81369e-05 0.00364765 -2.61238e-19 0.00364765)
(0.00364765 -0.00167734 -1.81369e-05 0.00364765 -3.83941e-20 0.00364765)
(0.00364235 -0.00167466 -1.83773e-05 0.00364235 -2.93324e-19 0.00364235)
(0.00364235 -0.00167466 -1.83773e-05 0.00364235 -4.27898e-20 0.00364235)
(0.00363622 -0.00167161 -1.86164e-05 0.00363622 -3.2161e-19 0.00363622)
(0.00363622 -0.00167161 -1.86164e-05 0.00363622 -4.41466e-20 0.00363622)
(0.0036293 -0.00166821 -1.88542e-05 0.0036293 -3.55736e-19 0.0036293)
(0.0036293 -0.00166821 -1.88542e-05 0.0036293 -4.62559e-20 0.0036293)
(0.00362163 -0.00166447 -1.9091e-05 0.00362163 -3.88581e-19 0.00362163)
(0.00362163 -0.00166447 -1.9091e-05 0.00362163 -5.07297e-20 0.00362163)
(0.00361326 -0.00166042 -1.93266e-05 0.00361326 -4.20862e-19 0.00361326)
(0.00361326 -0.00166042 -1.93266e-05 0.00361326 -5.31951e-20 0.00361326)
(0.00360423 -0.00165607 -1.95612e-05 0.00360423 -4.56455e-19 0.00360423)
(0.00360423 -0.00165607 -1.95612e-05 0.00360423 -5.85626e-20 0.00360423)
(0.00359455 -0.00165143 -1.97948e-05 0.00359455 -4.91899e-19 0.00359455)
(0.00359455 -0.00165143 -1.97948e-05 0.00359455 -6.53388e-20 0.00359455)
(0.00358427 -0.00164651 -2.00274e-05 0.00358427 -5.29055e-19 0.00358427)
(0.00358427 -0.00164651 -2.00274e-05 0.00358427 -6.83551e-20 0.00358427)
(0.00357341 -0.00164133 -2.02591e-05 0.00357341 -5.62994e-19 0.00357341)
(0.00357341 -0.00164133 -2.02591e-05 0.00357341 -7.9406e-20 0.00357341)
(0.003562 -0.00163589 -2.04899e-05 0.003562 -5.98687e-19 0.003562)
(0.003562 -0.00163589 -2.04899e-05 0.003562 -7.98051e-20 0.003562)
(0.00355006 -0.00163022 -2.07199e-05 0.00355006 -6.3568e-19 0.00355006)
(0.00355006 -0.00163022 -2.07199e-05 0.00355006 -8.19885e-20 0.00355006)
(0.00353762 -0.00162431 -2.09489e-05 0.00353762 -6.68668e-19 0.00353762)
(0.00353762 -0.00162431 -2.09489e-05 0.00353762 -8.26217e-20 0.00353762)
(0.00352469 -0.00161818 -2.11772e-05 0.00352469 -7.08044e-19 0.00352469)
(0.00352469 -0.00161818 -2.11772e-05 0.00352469 -8.15223e-20 0.00352469)
(0.00351131 -0.00161184 -2.14046e-05 0.00351131 -7.47212e-19 0.00351131)
(0.00351131 -0.00161184 -2.14046e-05 0.00351131 -8.8199e-20 0.00351131)
(0.00349748 -0.00160529 -2.16312e-05 0.00349748 -7.81784e-19 0.00349748)
(0.00349748 -0.00160529 -2.16312e-05 0.00349748 -9.07607e-20 0.00349748)
(0.00348323 -0.00159854 -2.18569e-05 0.00348323 -8.19663e-19 0.00348323)
(0.00348323 -0.00159854 -2.18569e-05 0.00348323 -9.18292e-20 0.00348323)
(0.00346858 -0.00159161 -2.20818e-05 0.00346858 -8.60038e-19 0.00346858)
(0.00346858 -0.00159161 -2.20818e-05 0.00346858 -9.30979e-20 0.00346858)
(0.00345353 -0.00158449 -2.2306e-05 0.00345353 -8.98649e-19 0.00345353)
(0.00345353 -0.00158449 -2.2306e-05 0.00345353 -8.9145e-20 0.00345353)
(0.00343812 -0.0015772 -2.25293e-05 0.00343812 -9.37806e-19 0.00343812)
(0.00343812 -0.0015772 -2.25293e-05 0.00343812 -9.41916e-20 0.00343812)
(0.00342234 -0.00156974 -2.27518e-05 0.00342234 -9.80719e-19 0.00342234)
(0.00342234 -0.00156974 -2.27518e-05 0.00342234 -9.67257e-20 0.00342234)
(0.00340622 -0.00156212 -2.29734e-05 0.00340622 -1.02015e-18 0.00340622)
(0.00340622 -0.00156212 -2.29734e-05 0.00340622 -9.6303e-20 0.00340622)
(0.00338977 -0.00155434 -2.31942e-05 0.00338977 -1.06127e-18 0.00338977)
(0.00338977 -0.00155434 -2.31942e-05 0.00338977 -1.01195e-19 0.00338977)
(0.003373 -0.00154641 -2.34142e-05 0.003373 -1.10744e-18 0.003373)
(0.003373 -0.00154641 -2.34142e-05 0.003373 -1.02124e-19 0.003373)
(0.00335593 -0.00153834 -2.36334e-05 0.00335593 -1.14761e-18 0.00335593)
(0.00335593 -0.00153834 -2.36334e-05 0.00335593 -1.08886e-19 0.00335593)
(0.00333856 -0.00153014 -2.38516e-05 0.00333856 -1.18532e-18 0.00333856)
(0.00333856 -0.00153014 -2.38516e-05 0.00333856 -1.12009e-19 0.00333856)
(0.00332091 -0.0015218 -2.4069e-05 0.00332091 -1.22329e-18 0.00332091)
(0.00332091 -0.0015218 -2.4069e-05 0.00332091 -1.06737e-19 0.00332091)
(0.003303 -0.00151333 -2.42856e-05 0.003303 -1.27381e-18 0.003303)
(0.003303 -0.00151333 -2.42856e-05 0.003303 -9.92827e-20 0.003303)
(0.00328482 -0.00150474 -2.45012e-05 0.00328482 -1.32112e-18 0.00328482)
(0.00328482 -0.00150474 -2.45012e-05 0.00328482 -1.01468e-19 0.00328482)
(0.0032664 -0.00149604 -2.47159e-05 0.0032664 -1.36247e-18 0.0032664)
(0.0032664 -0.00149604 -2.47159e-05 0.0032664 -1.02067e-19 0.0032664)
(0.00324774 -0.00148722 -2.49297e-05 0.00324774 -1.41289e-18 0.00324774)
(0.00324774 -0.00148722 -2.49297e-05 0.00324774 -9.58842e-20 0.00324774)
(0.00322885 -0.0014783 -2.51426e-05 0.00322885 -1.46173e-18 0.00322885)
(0.00322885 -0.0014783 -2.51426e-05 0.00322885 -9.88069e-20 0.00322885)
(0.00320974 -0.00146928 -2.53544e-05 0.00320974 -1.51115e-18 0.00320974)
(0.00320974 -0.00146928 -2.53544e-05 0.00320974 -9.89818e-20 0.00320974)
(0.00319042 -0.00146015 -2.55654e-05 0.00319042 -1.55636e-18 0.00319042)
(0.00319042 -0.00146015 -2.55654e-05 0.00319042 -9.84761e-20 0.00319042)
(0.0031709 -0.00145094 -2.57753e-05 0.0031709 -1.61439e-18 0.0031709)
(0.0031709 -0.00145094 -2.57753e-05 0.0031709 -9.52675e-20 0.0031709)
(0.00315119 -0.00144163 -2.59842e-05 0.00315119 -1.47881e-18 0.00315119)
(0.00315119 -0.00144163 -2.59842e-05 0.00315119 -8.78417e-20 0.00315119)
(0.0031313 -0.00143224 -2.61922e-05 0.0031313 -1.22736e-18 0.0031313)
(0.0031313 -0.00143224 -2.61922e-05 0.0031313 -8.94522e-20 0.0031313)
(0.00311123 -0.00142277 -2.6399e-05 0.00311123 -1.19314e-18 0.00311123)
(0.00311123 -0.00142277 -2.6399e-05 0.00311123 -8.24144e-20 0.00311123)
(0.003091 -0.00141322 -2.66049e-05 0.003091 -1.25331e-18 0.003091)
(0.003091 -0.00141322 -2.66049e-05 0.003091 -8.14252e-20 0.003091)
(0.00307061 -0.0014036 -2.68096e-05 0.00307061 -1.26757e-18 0.00307061)
(0.00307061 -0.0014036 -2.68096e-05 0.00307061 -8.57532e-20 0.00307061)
(0.00305006 -0.00139391 -2.70133e-05 0.00305006 -1.2985e-18 0.00305006)
(0.00305006 -0.00139391 -2.70133e-05 0.00305006 -7.11837e-20 0.00305006)
(0.00302938 -0.00138416 -2.72158e-05 0.00302938 -1.33734e-18 0.00302938)
(0.00302938 -0.00138416 -2.72158e-05 0.00302938 -4.89261e-20 0.00302938)
(0.00300855 -0.00137434 -2.74172e-05 0.00300855 -1.36935e-18 0.00300855)
(0.00300855 -0.00137434 -2.74172e-05 0.00300855 -2.72827e-20 0.00300855)
(0.0029876 -0.00136447 -2.76175e-05 0.0029876 -1.40131e-18 0.0029876)
(0.0029876 -0.00136447 -2.76175e-05 0.0029876 -3.24882e-20 0.0029876)
(0.00296653 -0.00135454 -2.78166e-05 0.00296653 -1.45223e-18 0.00296653)
(0.00296653 -0.00135454 -2.78166e-05 0.00296653 -5.00181e-20 0.00296653)
(0.00294534 -0.00134456 -2.80145e-05 0.00294534 -1.50747e-18 0.00294534)
(0.00294534 -0.00134456 -2.80145e-05 0.00294534 -4.70246e-20 0.00294534)
(0.00292405 -0.00133453 -2.82112e-05 0.00292405 -1.5502e-18 0.00292405)
(0.00292405 -0.00133453 -2.82112e-05 0.00292405 -4.79088e-20 0.00292405)
(0.00290265 -0.00132446 -2.84067e-05 0.00290265 -1.5725e-18 0.00290265)
(0.00290265 -0.00132446 -2.84067e-05 0.00290265 -5.65329e-20 0.00290265)
(0.00288116 -0.00131435 -2.8601e-05 0.00288116 -1.58311e-18 0.00288116)
(0.00288116 -0.00131435 -2.8601e-05 0.00288116 -4.99681e-20 0.00288116)
(0.00285957 -0.0013042 -2.8794e-05 0.00285957 -1.64304e-18 0.00285957)
(0.00285957 -0.0013042 -2.8794e-05 0.00285957 -3.52262e-20 0.00285957)
(0.00283791 -0.00129402 -2.89857e-05 0.00283791 -1.69122e-18 0.00283791)
(0.00283791 -0.00129402 -2.89857e-05 0.00283791 -2.84884e-20 0.00283791)
(0.00281617 -0.0012838 -2.91762e-05 0.00281617 -1.72626e-18 0.00281617)
(0.00281617 -0.0012838 -2.91762e-05 0.00281617 -4.06973e-20 0.00281617)
(0.00279436 -0.00127356 -2.93653e-05 0.00279436 -1.79668e-18 0.00279436)
(0.00279436 -0.00127356 -2.93653e-05 0.00279436 -5.21312e-20 0.00279436)
(0.00277249 -0.00126329 -2.95531e-05 0.00277249 -1.80654e-18 0.00277249)
(0.00277249 -0.00126329 -2.95531e-05 0.00277249 -3.11425e-20 0.00277249)
(0.00275056 -0.001253 -2.97396e-05 0.00275056 -1.81915e-18 0.00275056)
(0.00275056 -0.001253 -2.97396e-05 0.00275056 -7.71101e-21 0.00275056)
(0.00272857 -0.00124268 -2.99247e-05 0.00272857 -1.8998e-18 0.00272857)
(0.00272857 -0.00124268 -2.99247e-05 0.00272857 -2.26346e-20 0.00272857)
(0.00270654 -0.00123236 -3.01085e-05 0.00270654 -2.00587e-18 0.00270654)
(0.00270654 -0.00123236 -3.01085e-05 0.00270654 -4.32879e-20 0.00270654)
(0.00268447 -0.00122201 -3.02908e-05 0.00268447 -2.01605e-18 0.00268447)
(0.00268447 -0.00122201 -3.02908e-05 0.00268447 -3.70581e-20 0.00268447)
(0.00266236 -0.00121166 -3.04718e-05 0.00266236 -1.99469e-18 0.00266236)
(0.00266236 -0.00121166 -3.04718e-05 0.00266236 -5.59047e-20 0.00266236)
(0.00264021 -0.00120129 -3.06513e-05 0.00264021 -2.12571e-18 0.00264021)
(0.00264021 -0.00120129 -3.06513e-05 0.00264021 -7.22354e-20 0.00264021)
(0.00261805 -0.00119092 -3.08293e-05 0.00261805 -2.21565e-18 0.00261805)
(0.00261805 -0.00119092 -3.08293e-05 0.00261805 -5.39493e-20 0.00261805)
(0.00259586 -0.00118055 -3.1006e-05 0.00259586 -2.2396e-18 0.00259586)
(0.00259586 -0.00118055 -3.1006e-05 0.00259586 -4.78315e-20 0.00259586)
(0.00257365 -0.00117017 -3.11811e-05 0.00257365 -2.26319e-18 0.00257365)
(0.00257365 -0.00117017 -3.11811e-05 0.00257365 -5.21144e-20 0.00257365)
(0.00255144 -0.0011598 -3.13548e-05 0.00255144 -2.32581e-18 0.00255144)
(0.00255144 -0.0011598 -3.13548e-05 0.00255144 -2.43797e-20 0.00255144)
(0.00252921 -0.00114942 -3.15269e-05 0.00252921 -2.40484e-18 0.00252921)
(0.00252921 -0.00114942 -3.15269e-05 0.00252921 -3.53246e-20 0.00252921)
(0.00250699 -0.00113906 -3.16976e-05 0.00250699 -2.43832e-18 0.00250699)
(0.00250699 -0.00113906 -3.16976e-05 0.00250699 -1.89181e-20 0.00250699)
(0.00248477 -0.0011287 -3.18667e-05 0.00248477 -2.49604e-18 0.00248477)
(0.00248477 -0.0011287 -3.18667e-05 0.00248477 6.54829e-21 0.00248477)
(0.00246255 -0.00111835 -3.20343e-05 0.00246255 -2.5344e-18 0.00246255)
(0.00246255 -0.00111835 -3.20343e-05 0.00246255 4.21255e-20 0.00246255)
(0.00244035 -0.00110801 -3.22003e-05 0.00244035 -2.59124e-18 0.00244035)
(0.00244035 -0.00110801 -3.22003e-05 0.00244035 6.59342e-20 0.00244035)
(0.00241816 -0.00109769 -3.23648e-05 0.00241816 -2.66803e-18 0.00241816)
(0.00241816 -0.00109769 -3.23648e-05 0.00241816 5.92993e-20 0.00241816)
(0.002396 -0.00108738 -3.25276e-05 0.002396 -2.72913e-18 0.002396)
(0.002396 -0.00108738 -3.25276e-05 0.002396 9.41342e-20 0.002396)
(0.00237386 -0.00107709 -3.26889e-05 0.00237386 -2.77636e-18 0.00237386)
(0.00237386 -0.00107709 -3.26889e-05 0.00237386 1.42581e-19 0.00237386)
(0.00235174 -0.00106682 -3.28486e-05 0.00235174 -2.97588e-18 0.00235174)
(0.00235174 -0.00106682 -3.28486e-05 0.00235174 1.73976e-19 0.00235174)
(0.00232966 -0.00105657 -3.30066e-05 0.00232966 -2.89277e-18 0.00232966)
(0.00232966 -0.00105657 -3.30066e-05 0.00232966 1.99755e-19 0.00232966)
(0.00230762 -0.00104635 -3.31631e-05 0.00230762 -2.91629e-18 0.00230762)
(0.00230762 -0.00104635 -3.31631e-05 0.00230762 1.96912e-19 0.00230762)
(0.00228561 -0.00103615 -3.33179e-05 0.00228561 -3.0773e-18 0.00228561)
(0.00228561 -0.00103615 -3.33179e-05 0.00228561 2.12355e-19 0.00228561)
(0.00226365 -0.00102598 -3.3471e-05 0.00226365 -3.00231e-18 0.00226365)
(0.00226365 -0.00102598 -3.3471e-05 0.00226365 2.37205e-19 0.00226365)
(0.00224174 -0.00101584 -3.36225e-05 0.00224174 -2.97741e-18 0.00224174)
(0.00224174 -0.00101584 -3.36225e-05 0.00224174 2.76637e-19 0.00224174)
(0.00221988 -0.00100573 -3.37723e-05 0.00221988 -3.24445e-18 0.00221988)
(0.00221988 -0.00100573 -3.37723e-05 0.00221988 2.94661e-19 0.00221988)
(0.00219807 -0.00099565 -3.39204e-05 0.00219807 -3.29802e-18 0.00219807)
(0.00219807 -0.00099565 -3.39204e-05 0.00219807 3.02368e-19 0.00219807)
(0.00217632 -0.000985605 -3.40669e-05 0.00217632 -3.26242e-18 0.00217632)
(0.00217632 -0.000985605 -3.40669e-05 0.00217632 3.28215e-19 0.00217632)
(0.00215463 -0.000975595 -3.42116e-05 0.00215463 -3.38573e-18 0.00215463)
(0.00215463 -0.000975595 -3.42116e-05 0.00215463 3.68862e-19 0.00215463)
(0.00213301 -0.000965623 -3.43547e-05 0.00213301 -3.61024e-18 0.00213301)
(0.00213301 -0.000965623 -3.43547e-05 0.00213301 4.69187e-19 0.00213301)
(0.00211145 -0.000955689 -3.4496e-05 0.00211145 -3.76242e-18 0.00211145)
(0.00211145 -0.000955689 -3.4496e-05 0.00211145 4.72886e-19 0.00211145)
(0.00208997 -0.000945795 -3.46356e-05 0.00208997 -3.69153e-18 0.00208997)
(0.00208997 -0.000945795 -3.46356e-05 0.00208997 4.5594e-19 0.00208997)
(0.00206856 -0.000935941 -3.47735e-05 0.00206856 -3.69843e-18 0.00206856)
(0.00206856 -0.000935941 -3.47735e-05 0.00206856 4.72008e-19 0.00206856)
(0.00204722 -0.000926131 -3.49096e-05 0.00204722 -3.74271e-18 0.00204722)
(0.00204722 -0.000926131 -3.49096e-05 0.00204722 4.18406e-19 0.00204722)
(0.00202597 -0.000916364 -3.5044e-05 0.00202597 -3.84648e-18 0.00202597)
(0.00202597 -0.000916364 -3.5044e-05 0.00202597 3.81588e-19 0.00202597)
(0.00200479 -0.000906642 -3.51767e-05 0.00200479 -4.02041e-18 0.00200479)
(0.00200479 -0.000906642 -3.51767e-05 0.00200479 4.51055e-19 0.00200479)
(0.00198371 -0.000896966 -3.53076e-05 0.00198371 -3.93038e-18 0.00198371)
(0.00198371 -0.000896966 -3.53076e-05 0.00198371 4.62323e-19 0.00198371)
(0.00196271 -0.000887337 -3.54367e-05 0.00196271 -3.99127e-18 0.00196271)
(0.00196271 -0.000887337 -3.54367e-05 0.00196271 4.60013e-19 0.00196271)
(0.0019418 -0.000877757 -3.55641e-05 0.0019418 -4.19409e-18 0.0019418)
(0.0019418 -0.000877757 -3.55641e-05 0.0019418 5.24516e-19 0.0019418)
(0.00192098 -0.000868226 -3.56896e-05 0.00192098 -4.22144e-18 0.00192098)
(0.00192098 -0.000868226 -3.56896e-05 0.00192098 5.70789e-19 0.00192098)
(0.00190026 -0.000858746 -3.58135e-05 0.00190026 -4.3173e-18 0.00190026)
(0.00190026 -0.000858746 -3.58135e-05 0.00190026 5.46797e-19 0.00190026)
(0.00187963 -0.000849317 -3.59355e-05 0.00187963 -4.39001e-18 0.00187963)
(0.00187963 -0.000849317 -3.59355e-05 0.00187963 5.8882e-19 0.00187963)
(0.00185911 -0.000839941 -3.60557e-05 0.00185911 -4.21238e-18 0.00185911)
(0.00185911 -0.000839941 -3.60557e-05 0.00185911 7.40226e-19 0.00185911)
(0.00183868 -0.000830618 -3.61742e-05 0.00183868 -4.36643e-18 0.00183868)
(0.00183868 -0.000830618 -3.61742e-05 0.00183868 7.19422e-19 0.00183868)
(0.00181837 -0.00082135 -3.62908e-05 0.00181837 -4.68209e-18 0.00181837)
(0.00181837 -0.00082135 -3.62908e-05 0.00181837 7.05283e-19 0.00181837)
(0.00179815 -0.000812137 -3.64057e-05 0.00179815 -4.71388e-18 0.00179815)
(0.00179815 -0.000812137 -3.64057e-05 0.00179815 8.16745e-19 0.00179815)
(0.00177805 -0.000802979 -3.65188e-05 0.00177805 -4.72254e-18 0.00177805)
(0.00177805 -0.000802979 -3.65188e-05 0.00177805 8.15548e-19 0.00177805)
(0.00175805 -0.000793879 -3.663e-05 0.00175805 -4.8229e-18 0.00175805)
(0.00175805 -0.000793879 -3.663e-05 0.00175805 8.49805e-19 0.00175805)
(0.00173817 -0.000784836 -3.67394e-05 0.00173817 -4.92594e-18 0.00173817)
(0.00173817 -0.000784836 -3.67394e-05 0.00173817 1.0045e-18 0.00173817)
(0.0017184 -0.000775851 -3.68471e-05 0.0017184 -4.99598e-18 0.0017184)
(0.0017184 -0.000775851 -3.68471e-05 0.0017184 1.13436e-18 0.0017184)
(0.00169874 -0.000766925 -3.69529e-05 0.00169874 -5.06708e-18 0.00169874)
(0.00169874 -0.000766925 -3.69529e-05 0.00169874 1.28509e-18 0.00169874)
(0.00167921 -0.000758058 -3.70569e-05 0.00167921 -3.30951e-18 0.00167921)
(0.00167921 -0.000758058 -3.70569e-05 0.00167921 1.34991e-18 0.00167921)
(0.00165979 -0.000749252 -3.71591e-05 0.00165979 -1.1958e-18 0.00165979)
(0.00165979 -0.000749252 -3.71591e-05 0.00165979 1.39264e-18 0.00165979)
(0.00164049 -0.000740506 -3.72594e-05 0.00164049 -9.36899e-19 0.00164049)
(0.00164049 -0.000740506 -3.72594e-05 0.00164049 1.44912e-18 0.00164049)
(0.00162131 -0.000731822 -3.7358e-05 0.00162131 -1.07674e-18 0.00162131)
(0.00162131 -0.000731822 -3.7358e-05 0.00162131 1.50966e-18 0.00162131)
(0.00160225 -0.000723199 -3.74547e-05 0.00160225 -9.88012e-19 0.00160225)
(0.00160225 -0.000723199 -3.74547e-05 0.00160225 1.64717e-18 0.00160225)
(0.00158332 -0.000714639 -3.75496e-05 0.00158332 -7.90429e-19 0.00158332)
(0.00158332 -0.000714639 -3.75496e-05 0.00158332 1.72007e-18 0.00158332)
(0.00156451 -0.000706141 -3.76426e-05 0.00156451 -7.66979e-19 0.00156451)
(0.00156451 -0.000706141 -3.76426e-05 0.00156451 1.76812e-18 0.00156451)
(0.00154583 -0.000697706 -3.77339e-05 0.00154583 -6.42773e-19 0.00154583)
(0.00154583 -0.000697706 -3.77339e-05 0.00154583 1.79645e-18 0.00154583)
(0.00152728 -0.000689335 -3.78233e-05 0.00152728 -5.94166e-19 0.00152728)
(0.00152728 -0.000689335 -3.78233e-05 0.00152728 1.71102e-18 0.00152728)
(0.00150885 -0.000681028 -3.79108e-05 0.00150885 -6.33066e-19 0.00150885)
(0.00150885 -0.000681028 -3.79108e-05 0.00150885 1.75037e-18 0.00150885)
(0.00149056 -0.000672785 -3.79965e-05 0.00149056 -1.67427e-19 0.00149056)
(0.00149056 -0.000672785 -3.79965e-05 0.00149056 1.97656e-18 0.00149056)
(0.00147239 -0.000664606 -3.80804e-05 0.00147239 2.04542e-19 0.00147239)
(0.00147239 -0.000664606 -3.80804e-05 0.00147239 2.16356e-18 0.00147239)
(0.00145436 -0.000656492 -3.81625e-05 0.00145436 8.82355e-20 0.00145436)
(0.00145436 -0.000656492 -3.81625e-05 0.00145436 2.22688e-18 0.00145436)
(0.00143646 -0.000648443 -3.82427e-05 0.00143646 -5.27377e-19 0.00143646)
(0.00143646 -0.000648443 -3.82427e-05 0.00143646 2.36542e-18 0.00143646)
(0.00141869 -0.00064046 -3.83211e-05 0.00141869 -9.13746e-19 0.00141869)
(0.00141869 -0.00064046 -3.83211e-05 0.00141869 2.5878e-18 0.00141869)
(0.00140105 -0.000632541 -3.83976e-05 0.00140105 -6.6558e-19 0.00140105)
(0.00140105 -0.000632541 -3.83976e-05 0.00140105 2.72112e-18 0.00140105)
(0.00138355 -0.000624689 -3.84723e-05 0.00138355 -5.73534e-19 0.00138355)
(0.00138355 -0.000624689 -3.84723e-05 0.00138355 2.8061e-18 0.00138355)
(0.00136618 -0.000616902 -3.85451e-05 0.00136618 -4.69287e-19 0.00136618)
(0.00136618 -0.000616902 -3.85451e-05 0.00136618 2.84651e-18 0.00136618)
(0.00134895 -0.00060918 -3.86161e-05 0.00134895 9.17171e-20 0.00134895)
(0.00134895 -0.00060918 -3.86161e-05 0.00134895 1.86224e-18 0.00134895)
(0.00133186 -0.000601525 -3.86852e-05 0.00133186 2.39306e-19 0.00133186)
(0.00133186 -0.000601525 -3.86852e-05 0.00133186 5.02716e-19 0.00133186)
(0.0013149 -0.000593936 -3.87525e-05 0.0013149 3.75336e-19 0.0013149)
(0.0013149 -0.000593936 -3.87525e-05 0.0013149 1.34315e-19 0.0013149)
(0.00129807 -0.000586413 -3.88179e-05 0.00129807 6.09164e-19 0.00129807)
(0.00129807 -0.000586413 -3.88179e-05 0.00129807 2.44654e-19 0.00129807)
(0.00128139 -0.000578956 -3.88815e-05 0.00128139 4.77706e-19 0.00128139)
(0.00128139 -0.000578956 -3.88815e-05 0.00128139 2.85755e-19 0.00128139)
(0.00126484 -0.000571565 -3.89432e-05 0.00126484 7.9379e-19 0.00126484)
(0.00126484 -0.000571565 -3.89432e-05 0.00126484 6.04756e-20 0.00126484)
(0.00124843 -0.00056424 -3.9003e-05 0.00124843 9.26715e-19 0.00124843)
(0.00124843 -0.00056424 -3.9003e-05 0.00124843 2.06944e-19 0.00124843)
(0.00123215 -0.000556981 -3.9061e-05 0.00123215 9.19183e-19 0.00123215)
(0.00123215 -0.000556981 -3.9061e-05 0.00123215 2.92296e-19 0.00123215)
(0.00121601 -0.000549787 -3.91171e-05 0.00121601 1.28798e-18 0.00121601)
(0.00121601 -0.000549787 -3.91171e-05 0.00121601 1.29229e-19 0.00121601)
(0.00120001 -0.00054266 -3.91713e-05 0.00120001 1.34479e-18 0.00120001)
(0.00120001 -0.00054266 -3.91713e-05 0.00120001 2.86239e-19 0.00120001)
(0.00118415 -0.000535599 -3.92236e-05 0.00118415 1.62247e-18 0.00118415)
(0.00118415 -0.000535599 -3.92236e-05 0.00118415 4.64679e-19 0.00118415)
(0.00116843 -0.000528603 -3.9274e-05 0.00116843 1.9096e-18 0.00116843)
(0.00116843 -0.000528603 -3.9274e-05 0.00116843 5.73486e-19 0.00116843)
(0.00115284 -0.000521672 -3.93225e-05 0.00115284 1.76699e-18 0.00115284)
(0.00115284 -0.000521672 -3.93225e-05 0.00115284 7.1373e-19 0.00115284)
(0.00113739 -0.000514807 -3.93692e-05 0.00113739 1.68963e-18 0.00113739)
(0.00113739 -0.000514807 -3.93692e-05 0.00113739 7.81604e-19 0.00113739)
(0.00112208 -0.000508007 -3.94139e-05 0.00112208 1.72811e-18 0.00112208)
(0.00112208 -0.000508007 -3.94139e-05 0.00112208 6.76232e-19 0.00112208)
(0.00110691 -0.000501272 -3.94567e-05 0.00110691 1.74168e-18 0.00110691)
(0.00110691 -0.000501272 -3.94567e-05 0.00110691 7.19059e-19 0.00110691)
(0.00109187 -0.000494601 -3.94975e-05 0.00109187 1.85617e-18 0.00109187)
(0.00109187 -0.000494601 -3.94975e-05 0.00109187 9.00311e-19 0.00109187)
(0.00107697 -0.000487995 -3.95365e-05 0.00107697 2.03622e-18 0.00107697)
(0.00107697 -0.000487995 -3.95365e-05 0.00107697 8.54629e-19 0.00107697)
(0.0010622 -0.000481453 -3.95734e-05 0.0010622 2.13191e-18 0.0010622)
(0.0010622 -0.000481453 -3.95734e-05 0.0010622 8.36044e-19 0.0010622)
(0.00104758 -0.000474976 -3.96085e-05 0.00104758 2.3076e-18 0.00104758)
(0.00104758 -0.000474976 -3.96085e-05 0.00104758 1.03163e-18 0.00104758)
(0.00103308 -0.000468561 -3.96415e-05 0.00103308 2.33107e-18 0.00103308)
(0.00103308 -0.000468561 -3.96415e-05 0.00103308 9.8573e-19 0.00103308)
(0.00101873 -0.000462211 -3.96726e-05 0.00101873 2.07221e-18 0.00101873)
(0.00101873 -0.000462211 -3.96726e-05 0.00101873 8.69507e-19 0.00101873)
(0.0010045 -0.000455923 -3.97017e-05 0.0010045 2.1766e-18 0.0010045)
(0.0010045 -0.000455923 -3.97017e-05 0.0010045 9.73997e-19 0.0010045)
(0.000990415 -0.000449698 -3.97288e-05 0.000990415 2.33118e-18 0.000990415)
(0.000990415 -0.000449698 -3.97288e-05 0.000990415 9.65133e-19 0.000990415)
(0.00097646 -0.000443535 -3.97538e-05 0.00097646 2.53579e-18 0.00097646)
(0.00097646 -0.000443535 -3.97538e-05 0.00097646 7.9873e-19 0.00097646)
(0.000962639 -0.000437435 -3.97769e-05 0.000962639 2.63905e-18 0.000962639)
(0.000962639 -0.000437435 -3.97769e-05 0.000962639 8.90784e-19 0.000962639)
(0.00094895 -0.000431396 -3.97978e-05 0.00094895 2.45864e-18 0.00094895)
(0.00094895 -0.000431396 -3.97978e-05 0.00094895 1.33985e-18 0.00094895)
(0.000935393 -0.000425418 -3.98167e-05 0.000935393 2.42486e-18 0.000935393)
(0.000935393 -0.000425418 -3.98167e-05 0.000935393 1.45907e-18 0.000935393)
(0.000921968 -0.000419502 -3.98336e-05 0.000921968 3.20052e-18 0.000921968)
(0.000921968 -0.000419502 -3.98336e-05 0.000921968 8.6001e-19 0.000921968)
(0.000908674 -0.000413646 -3.98483e-05 0.000908674 3.35634e-18 0.000908674)
(0.000908674 -0.000413646 -3.98483e-05 0.000908674 1.02092e-18 0.000908674)
(0.000895509 -0.000407849 -3.98609e-05 0.000895509 2.64772e-18 0.000895509)
(0.000895509 -0.000407849 -3.98609e-05 0.000895509 1.80553e-18 0.000895509)
(0.000882474 -0.000402113 -3.98713e-05 0.000882474 2.80083e-18 0.000882474)
(0.000882474 -0.000402113 -3.98713e-05 0.000882474 1.71505e-18 0.000882474)
(0.000869567 -0.000396436 -3.98796e-05 0.000869567 3.2198e-18 0.000869567)
(0.000869567 -0.000396436 -3.98796e-05 0.000869567 1.27547e-18 0.000869567)
(0.000856788 -0.000390818 -3.98857e-05 0.000856788 3.08545e-18 0.000856788)
(0.000856788 -0.000390818 -3.98857e-05 0.000856788 1.65812e-18 0.000856788)