/*--------------------------------*- C++ -*----------------------------------*\
| =========                 |                                                 |
| \\      /  F ield         | OpenFOAM: The Open Source CFD Toolbox           |
|  \\    /   O peration     | Version:  2012                                  |
|   \\  /    A nd           | Website:  www.openfoam.com                      |
|    \\/     M anipulation  |                                                 |
\*---------------------------------------------------------------------------*/
FoamFile
{
    version     2.0;
    format      ascii;
    class       volScalarField;
    location    "15300";
    object      k;
}
// * * * * * * * * * * * * * * * * * * * * * * * * * * * * * * * * * * * * * //

dimensions      [0 2 -2 0 0 0 0];


internalField   nonuniform List<scalar> 
2560
(
0.0084043
0.0084043
0.202539
0.202539
1.39976
1.39976
4.28589
4.28589
7.89577
7.89577
11.2945
11.2945
14.3409
14.3409
17.1009
17.1009
19.6444
19.6444
22.0218
22.0218
24.268
24.268
26.407
26.407
28.4561
28.4561
30.4276
30.4276
32.3308
32.3308
34.1724
34.1724
35.9572
35.9572
37.689
37.689
39.3703
39.3703
41.0028
41.0028
42.5876
42.5876
44.125
44.125
45.6152
45.6152
47.0576
47.0576
48.4515
48.4515
49.7956
49.7956
51.0887
51.0887
52.3292
52.3292
53.5151
53.5151
54.6446
54.6446
55.7155
55.7155
56.7256
56.7256
57.6727
57.6727
58.5545
58.5545
59.3686
59.3686
60.1128
60.1128
60.785
60.785
61.3832
61.3832
61.9054
61.9054
62.3501
62.3501
62.7159
62.7159
63.0016
63.0016
63.2065
63.2065
63.3303
63.3303
63.3731
63.3731
63.3353
63.3353
63.218
63.218
63.0227
63.0227
62.7517
62.7517
62.4075
62.4075
61.9936
61.9936
61.5138
61.5138
60.9727
60.9727
60.3755
60.3755
59.7277
59.7277
59.0359
59.0359
58.3067
58.3067
57.5475
57.5475
56.766
56.766
55.9704
55.9704
55.1689
55.1689
54.37
54.37
53.5825
53.5825
52.8147
52.8147
52.075
52.075
51.3716
51.3716
50.7119
50.7119
50.1031
50.1031
49.5514
49.5514
49.0622
49.0622
48.6401
48.6401
48.2886
48.2886
48.01
48.01
47.8054
47.8054
47.6751
47.6751
47.6177
47.6177
47.631
47.631
47.7115
47.7115
47.8549
47.8549
48.0559
48.0559
48.3088
48.3088
48.607
48.607
48.9435
48.9435
49.3111
49.3111
49.7023
49.7023
50.1097
50.1097
50.5259
50.5259
50.9438
50.9438
51.3564
51.3564
51.7573
51.7573
52.1404
52.1404
52.5002
52.5002
52.8316
52.8316
53.1302
53.1302
53.3922
53.3922
53.6142
53.6142
53.7936
53.7936
53.9283
53.9283
54.0166
54.0166
54.0574
54.0574
54.0502
54.0502
53.9949
53.9949
53.8916
53.8916
53.7409
53.7409
53.5438
53.5438
53.3015
53.3015
53.0155
53.0155
52.6873
52.6873
52.3188
52.3188
51.9119
51.9119
51.4687
51.4687
50.9913
50.9913
50.4818
50.4818
49.9424
49.9424
49.3753
49.3753
48.7826
48.7826
48.1665
48.1665
47.529
47.529
46.8722
46.8722
46.1981
46.1981
45.5085
45.5085
44.8052
44.8052
44.09
44.09
43.3645
43.3645
42.6304
42.6304
41.889
41.889
41.1418
41.1418
40.3901
40.3901
39.6351
39.6351
38.878
38.878
38.1199
38.1199
37.3618
37.3618
36.6047
36.6047
35.8494
35.8494
35.0967
35.0967
34.3476
34.3476
33.6025
33.6025
32.8624
32.8624
32.1276
32.1276
31.3989
31.3989
30.6768
30.6768
29.9616
29.9616
29.254
29.254
28.5543
28.5543
27.8628
27.8628
27.18
27.18
26.5062
26.5062
25.8416
25.8416
25.1866
25.1866
24.5413
24.5413
23.9061
23.9061
23.2812
23.2812
22.6668
22.6668
22.0629
22.0629
21.4699
21.4699
20.8879
20.8879
20.317
20.317
19.7574
19.7574
19.209
19.209
18.6722
18.6722
18.1468
18.1468
17.6329
17.6329
17.1306
17.1306
16.6398
16.6398
16.1606
16.1606
15.6927
15.6927
15.2361
15.2361
14.7908
14.7908
14.3565
14.3565
13.9331
13.9331
13.5204
13.5204
13.1182
13.1182
12.7265
12.7265
12.3449
12.3449
11.9734
11.9734
11.6119
11.6119
11.2601
11.2601
10.9179
10.9179
10.5853
10.5853
10.262
10.262
9.94806
9.94806
9.6432
9.6432
9.34734
9.34734
9.06032
9.06032
8.78201
8.78201
8.51224
8.51224
8.25086
8.25086
7.99771
7.99771
7.75262
7.75262
7.51544
7.51544
7.28601
7.28601
7.0642
7.0642
6.84986
6.84986
6.64288
6.64288
6.44314
6.44314
6.25052
6.25052
6.06493
6.06493
5.88625
5.88625
5.71439
5.71439
5.54924
5.54924
5.3907
5.3907
5.23865
5.23865
5.09298
5.09298
4.95354
4.95354
4.8202
4.8202
4.69277
4.69277
4.57108
4.57108
4.45496
4.45496
4.34419
4.34419
4.23861
4.23861
4.13801
4.13801
4.04223
4.04223
3.95108
3.95108
3.86438
3.86438
3.78191
3.78191
3.70349
3.70349
3.62887
3.62887
3.55781
3.55781
3.49006
3.49006
3.42535
3.42535
3.36339
3.36339
3.30391
3.30391
3.24665
3.24665
3.19138
3.19138
3.13795
3.13795
3.0862
3.08619
3.03602
3.03602
2.9873
2.9873
2.93993
2.93993
2.89374
2.89374
2.84855
2.84855
2.80418
2.80418
2.76045
2.76045
2.71721
2.71721
2.67435
2.67435
2.63179
2.63179
2.58947
2.58947
2.54739
2.54739
2.50556
2.50556
2.46405
2.46405
2.42297
2.42297
2.3824
2.3824
2.34238
2.34238
2.30291
2.30291
2.26389
2.26389
2.22517
2.22517
2.18652
2.18652
2.14768
2.14768
2.10833
2.10834
2.06823
2.06823
2.02721
2.02722
1.98531
1.98531
1.9427
1.9427
1.89968
1.89968
1.85665
1.85665
1.81398
1.81399
1.77199
1.77199
1.73088
1.73088
1.6907
1.6907
1.65141
1.65141
1.61295
1.61294
1.57543
1.57543
1.53908
1.53908
1.50416
1.50416
1.47092
1.47091
1.43956
1.43956
1.41023
1.41023
1.383
1.383
1.35791
1.35791
1.33496
1.33496
1.31412
1.31412
1.29535
1.29535
1.27853
1.27853
1.26351
1.26351
1.25006
1.25006
1.2379
1.2379
1.22669
1.22669
1.21607
1.21607
1.20561
1.20561
1.19492
1.19492
1.18368
1.18368
1.17163
1.17163
1.15845
1.15845
1.14379
1.14379
1.12733
1.12733
1.10894
1.10894
1.08875
1.08875
1.06711
1.06711
1.04448
1.04448
1.02151
1.02151
0.998975
0.998973
0.977548
0.977547
0.957636
0.957635
0.939365
0.939365
0.922736
0.922735
0.907745
0.907744
0.894405
0.894404
0.882726
0.882725
0.872714
0.872713
0.864343
0.864343
0.857513
0.857513
0.852015
0.852015
0.84756
0.84756
0.843835
0.843835
0.840481
0.840482
0.83698
0.836981
0.832662
0.832662
0.82693
0.82693
0.819509
0.819509
0.810563
0.810562
0.800594
0.800594
0.790155
0.790155
0.779664
0.779664
0.769475
0.769475
0.760007
0.760007
0.751678
0.751679
0.744755
0.744756
0.739346
0.739348
0.735532
0.735534
0.7335
0.733503
0.0084043
0.0084043
0.202539
0.202539
1.39976
1.39976
4.28589
4.28589
7.89577
7.89577
11.2945
11.2945
14.3409
14.3409
17.1009
17.1009
19.6444
19.6444
22.0218
22.0218
24.268
24.268
26.407
26.407
28.4561
28.4561
30.4277
30.4277
32.3308
32.3308
34.1724
34.1724
35.9572
35.9572
37.689
37.689
39.3703
39.3703
41.0028
41.0028
42.5876
42.5876
44.125
44.125
45.6152
45.6152
47.0576
47.0576
48.4515
48.4515
49.7956
49.7956
51.0887
51.0887
52.3292
52.3292
53.5151
53.5151
54.6446
54.6446
55.7155
55.7155
56.7256
56.7256
57.6727
57.6727
58.5545
58.5545
59.3686
59.3686
60.1128
60.1128
60.785
60.785
61.3832
61.3832
61.9054
61.9054
62.3501
62.3501
62.7159
62.7159
63.0016
63.0016
63.2065
63.2065
63.3303
63.3303
63.3731
63.3731
63.3353
63.3353
63.218
63.218
63.0227
63.0227
62.7517
62.7517
62.4075
62.4075
61.9936
61.9936
61.5138
61.5138
60.9727
60.9727
60.3755
60.3755
59.7277
59.7277
59.0359
59.0359
58.3067
58.3067
57.5475
57.5475
56.7661
56.7661
55.9704
55.9704
55.1689
55.1689
54.3701
54.3701
53.5825
53.5825
52.8147
52.8147
52.075
52.075
51.3716
51.3716
50.7119
50.7119
50.1031
50.1031
49.5514
49.5514
49.0622
49.0622
48.6401
48.6401
48.2886
48.2886
48.01
48.01
47.8054
47.8054
47.6751
47.6751
47.6177
47.6177
47.631
47.631
47.7115
47.7115
47.8548
47.8548
48.0559
48.0559
48.3088
48.3088
48.607
48.607
48.9435
48.9435
49.3111
49.3111
49.7023
49.7023
50.1097
50.1097
50.5259
50.5259
50.9438
50.9438
51.3564
51.3564
51.7573
51.7573
52.1404
52.1404
52.5002
52.5002
52.8316
52.8316
53.1302
53.1302
53.3922
53.3922
53.6142
53.6142
53.7936
53.7936
53.9283
53.9283
54.0166
54.0166
54.0574
54.0574
54.0502
54.0502
53.9949
53.9949
53.8916
53.8916
53.7409
53.7409
53.5438
53.5438
53.3015
53.3015
53.0155
53.0155
52.6873
52.6873
52.3188
52.3188
51.9119
51.9119
51.4687
51.4687
50.9913
50.9913
50.4818
50.4818
49.9424
49.9424
49.3753
49.3753
48.7826
48.7826
48.1665
48.1665
47.529
47.529
46.8722
46.8722
46.1981
46.1981
45.5085
45.5085
44.8052
44.8052
44.09
44.09
43.3645
43.3645
42.6304
42.6304
41.889
41.889
41.1418
41.1418
40.3901
40.3901
39.6351
39.6351
38.878
38.878
38.1199
38.1199
37.3618
37.3618
36.6047
36.6047
35.8494
35.8494
35.0967
35.0967
34.3476
34.3476
33.6025
33.6025
32.8624
32.8624
32.1276
32.1276
31.3989
31.3989
30.6768
30.6768
29.9616
29.9616
29.254
29.254
28.5543
28.5543
27.8628
27.8628
27.18
27.18
26.5062
26.5062
25.8416
25.8416
25.1866
25.1866
24.5413
24.5413
23.9061
23.9061
23.2812
23.2812
22.6668
22.6668
22.0629
22.0629
21.4699
21.4699
20.8879
20.8879
20.317
20.317
19.7574
19.7574
19.209
19.209
18.6722
18.6722
18.1468
18.1468
17.6329
17.6329
17.1306
17.1306
16.6398
16.6398
16.1606
16.1606
15.6927
15.6927
15.2361
15.2361
14.7908
14.7908
14.3565
14.3565
13.9331
13.9331
13.5204
13.5204
13.1182
13.1182
12.7265
12.7265
12.3449
12.3449
11.9734
11.9734
11.6119
11.6119
11.2601
11.2601
10.9179
10.9179
10.5853
10.5853
10.262
10.262
9.94806
9.94806
9.6432
9.6432
9.34734
9.34734
9.06032
9.06032
8.78201
8.78201
8.51224
8.51224
8.25086
8.25086
7.99771
7.99771
7.75262
7.75262
7.51544
7.51544
7.28601
7.28601
7.0642
7.0642
6.84986
6.84986
6.64288
6.64288
6.44314
6.44314
6.25052
6.25052
6.06493
6.06493
5.88625
5.88625
5.71438
5.71439
5.54924
5.54924
5.3907
5.3907
5.23865
5.23865
5.09298
5.09298
4.95354
4.95355
4.8202
4.8202
4.69277
4.69277
4.57108
4.57108
4.45496
4.45496
4.34419
4.34419
4.23861
4.23861
4.13801
4.13802
4.04223
4.04223
3.95108
3.95108
3.86438
3.86438
3.78192
3.78192
3.70349
3.70349
3.62887
3.62887
3.55781
3.55781
3.49007
3.49007
3.42535
3.42535
3.36339
3.36339
3.30391
3.30391
3.24665
3.24665
3.19139
3.19139
3.13795
3.13795
3.0862
3.0862
3.03602
3.03602
2.98731
2.98731
2.93994
2.93994
2.89375
2.89375
2.84856
2.84856
2.80419
2.80419
2.76045
2.76045
2.71721
2.71721
2.67436
2.67436
2.6318
2.6318
2.58948
2.58948
2.54739
2.54739
2.50556
2.50556
2.46406
2.46406
2.42298
2.42298
2.38241
2.38241
2.34239
2.34239
2.30292
2.30291
2.26389
2.26389
2.22517
2.22517
2.18653
2.18652
2.14768
2.14768
2.10834
2.10834
2.06823
2.06823
2.02722
2.02722
1.98531
1.98531
1.9427
1.9427
1.89969
1.89968
1.85665
1.85665
1.81399
1.81398
1.77199
1.77199
1.73088
1.73088
1.6907
1.6907
1.65141
1.65141
1.61294
1.61295
1.57543
1.57543
1.53908
1.53908
1.50416
1.50416
1.47092
1.47092
1.43956
1.43956
1.41023
1.41023
1.383
1.38301
1.35791
1.35791
1.33496
1.33496
1.31412
1.31412
1.29535
1.29535
1.27853
1.27853
1.26351
1.26351
1.25006
1.25006
1.2379
1.2379
1.2267
1.2267
1.21607
1.21607
1.20561
1.20561
1.19492
1.19492
1.18369
1.18369
1.17163
1.17163
1.15845
1.15845
1.14379
1.14379
1.12733
1.12733
1.10894
1.10894
1.08875
1.08875
1.0671
1.0671
1.04448
1.04448
1.02151
1.02151
0.998972
0.998973
0.977545
0.977546
0.957634
0.957635
0.939364
0.939365
0.922735
0.922735
0.907744
0.907745
0.894405
0.894405
0.882726
0.882726
0.872714
0.872714
0.864343
0.864344
0.857514
0.857514
0.852016
0.852016
0.847561
0.847561
0.843836
0.843836
0.840483
0.840482
0.836981
0.836981
0.832662
0.832662
0.82693
0.82693
0.819508
0.819508
0.810562
0.810562
0.800593
0.800594
0.790154
0.790154
0.779663
0.779663
0.769474
0.769474
0.760006
0.760006
0.751679
0.751677
0.744756
0.744754
0.739347
0.739345
0.735534
0.735531
0.733503
0.7335
0.733493
0.733496
0.735514
0.735516
0.739312
0.739314
0.744695
0.744696
0.751597
0.751598
0.759896
0.759896
0.769325
0.769325
0.779482
0.779482
0.789903
0.789903
0.800227
0.800227
0.810082
0.810082
0.818941
0.818941
0.826296
0.826296
0.832
0.832
0.836352
0.836353
0.839929
0.839929
0.843359
0.84336
0.84715
0.84715
0.851659
0.851659
0.857207
0.857207
0.864094
0.864094
0.872527
0.872527
0.882602
0.882601
0.89434
0.89434
0.907738
0.907737
0.922785
0.922784
0.93947
0.939469
0.957794
0.957793
0.97776
0.977759
0.99924
0.999239
1.02184
1.02184
1.04486
1.04486
1.06751
1.06751
1.08914
1.08914
1.10927
1.10927
1.12756
1.12756
1.14392
1.14392
1.15851
1.15851
1.17164
1.17164
1.18366
1.18366
1.19486
1.19486
1.20552
1.20552
1.21595
1.21595
1.22654
1.22654
1.23771
1.23771
1.24983
1.24983
1.26325
1.26325
1.27825
1.27824
1.29504
1.29504
1.31381
1.31381
1.33463
1.33463
1.35758
1.35758
1.38267
1.38267
1.40989
1.40989
1.43921
1.43921
1.47057
1.47057
1.50382
1.50381
1.53874
1.53873
1.57509
1.57508
1.61262
1.61261
1.6511
1.6511
1.6904
1.6904
1.73057
1.73057
1.77167
1.77167
1.81363
1.81364
1.85626
1.85626
1.89926
1.89927
1.94227
1.94228
1.98488
1.98488
2.02675
2.02676
2.06772
2.06772
2.1078
2.1078
2.14714
2.14714
2.186
2.186
2.22469
2.22469
2.26348
2.26348
2.30259
2.30259
2.34214
2.34214
2.3822
2.3822
2.42279
2.42279
2.46385
2.46385
2.50533
2.50533
2.54713
2.54713
2.58919
2.58919
2.63149
2.63149
2.67403
2.67403
2.71688
2.71688
2.76012
2.76012
2.80386
2.80386
2.84825
2.84825
2.89346
2.89346
2.93969
2.93969
2.98711
2.98711
3.0359
3.0359
3.08615
3.08615
3.13796
3.13796
3.19143
3.19143
3.24672
3.24672
3.304
3.304
3.3635
3.3635
3.42547
3.42547
3.49021
3.49021
3.55797
3.55797
3.62904
3.62904
3.70365
3.70365
3.78205
3.78205
3.86449
3.86449
3.95117
3.95117
4.04229
4.04228
4.13804
4.13804
4.23862
4.23862
4.3442
4.3442
4.45496
4.45496
4.5711
4.5711
4.69279
4.69279
4.82023
4.82023
4.95359
4.95359
5.09304
5.09304
5.23873
5.23873
5.39079
5.39079
5.54934
5.54934
5.71449
5.71449
5.88635
5.88635
6.06504
6.06504
6.25064
6.25064
6.44326
6.44326
6.64301
6.64301
6.84999
6.84999
7.06433
7.06433
7.28615
7.28615
7.51559
7.51559
7.75278
7.75278
7.99787
7.99787
8.25102
8.25101
8.51239
8.51239
8.78215
8.78215
9.06045
9.06045
9.34747
9.34747
9.64333
9.64333
9.94819
9.94819
10.2622
10.2622
10.5854
10.5854
10.9181
10.9181
11.2602
11.2602
11.612
11.612
11.9736
11.9736
12.3451
12.3451
12.7266
12.7266
13.1184
13.1184
13.5206
13.5206
13.9333
13.9333
14.3567
14.3567
14.791
14.791
15.2364
15.2364
15.693
15.693
16.1609
16.1609
16.6402
16.6402
17.1309
17.1309
17.6333
17.6333
18.1471
18.1471
18.6725
18.6725
19.2094
19.2094
19.7578
19.7578
20.3174
20.3174
20.8883
20.8883
21.4704
21.4704
22.0634
22.0634
22.6672
22.6672
23.2817
23.2817
23.9067
23.9067
24.5419
24.5419
25.1871
25.1871
25.8422
25.8422
26.5068
26.5068
27.1807
27.1807
27.8636
27.8636
28.5551
28.5551
29.2549
29.2549
29.9626
29.9626
30.6778
30.6778
31.4
31.4
32.1288
32.1288
32.8637
32.8637
33.6039
33.6039
34.349
34.349
35.0983
35.0983
35.8509
35.8509
36.6063
36.6063
37.3635
37.3635
38.1216
38.1216
38.8798
38.8798
39.637
39.637
40.392
40.392
41.1438
41.1438
41.891
41.891
42.6324
42.6324
43.3666
43.3666
44.092
44.092
44.8072
44.8072
45.5104
45.5104
46.1999
46.1999
46.874
46.874
47.5306
47.5306
48.1679
48.1679
48.7838
48.7838
49.3762
49.3762
49.9432
49.9432
50.4824
50.4824
50.9919
50.9919
51.4694
51.4694
51.9125
51.9125
52.3194
52.3194
52.688
52.688
53.0162
53.0162
53.3023
53.3023
53.5447
53.5447
53.7416
53.7416
53.8922
53.8922
53.9956
53.9956
54.051
54.051
54.0582
54.0582
54.0175
54.0175
53.9294
53.9294
53.795
53.795
53.6157
53.6157
53.3937
53.3937
53.1317
53.1317
52.8327
52.8327
52.5007
52.5007
52.1401
52.1401
51.7561
51.7561
51.3546
51.3546
50.9416
50.9416
50.5234
50.5234
50.1068
50.1068
49.699
49.699
49.3074
49.3074
48.9392
48.9392
48.6021
48.6021
48.3033
48.3033
48.0498
48.0498
47.8481
47.8481
47.7042
47.7042
47.6231
47.6231
47.6093
47.6093
47.6661
47.6661
47.7959
47.7959
47.9999
47.9999
48.2779
48.2779
48.6288
48.6288
49.0503
49.0503
49.5389
49.5389
50.0902
50.0902
50.6986
50.6986
51.3579
51.3579
52.061
52.061
52.8004
52.8004
53.5679
53.5679
54.3552
54.3552
55.1537
55.1537
55.9548
55.9548
56.7504
56.7504
57.5319
57.5319
58.2913
58.2913
59.0207
59.0207
59.713
59.713
60.3612
60.3612
60.9592
60.9592
61.5012
61.5012
61.9816
61.9816
62.3959
62.3959
62.7406
62.7406
63.0126
63.0126
63.2087
63.2087
63.3268
63.3268
63.3653
63.3653
63.3234
63.3234
63.2004
63.2004
62.9961
62.9961
62.711
62.711
62.346
62.3459
61.9018
61.9018
61.38
61.38
60.7822
60.7822
60.1103
60.1103
59.3664
59.3664
58.5525
58.5525
57.671
57.671
56.7241
56.7241
55.7141
55.7141
54.6433
54.6433
53.5141
53.5141
52.3284
52.3284
51.0882
51.0882
49.7954
49.7954
48.4514
48.4514
47.0577
47.0577
45.6153
45.6153
44.1252
44.1252
42.5877
42.5877
41.003
41.003
39.3705
39.3705
37.6892
37.6892
35.9574
35.9574
34.1725
34.1725
32.331
32.331
30.4278
30.4278
28.4562
28.4562
26.4071
26.4071
24.2681
24.2681
22.0219
22.0219
19.6445
19.6445
17.101
17.101
14.341
14.341
11.2945
11.2945
7.89578
7.89578
4.28589
4.28589
1.39975
1.39975
0.202538
0.202538
0.00840449
0.00840449
0.733496
0.733493
0.735517
0.735514
0.739314
0.739312
0.744697
0.744695
0.751598
0.751597
0.759897
0.759896
0.769326
0.769326
0.779482
0.779483
0.789903
0.789904
0.800227
0.800228
0.810083
0.810083
0.818941
0.818941
0.826297
0.826296
0.832
0.832
0.836353
0.836352
0.839929
0.839928
0.843359
0.843359
0.84715
0.84715
0.851659
0.851659
0.857206
0.857207
0.864094
0.864094
0.872527
0.872527
0.882601
0.882602
0.89434
0.89434
0.907737
0.907738
0.922784
0.922785
0.93947
0.93947
0.957794
0.957795
0.97776
0.977761
0.99924
0.999241
1.02184
1.02184
1.04486
1.04486
1.06751
1.06751
1.08914
1.08914
1.10927
1.10927
1.12756
1.12756
1.14392
1.14392
1.15851
1.15851
1.17164
1.17164
1.18366
1.18366
1.19486
1.19486
1.20552
1.20552
1.21595
1.21595
1.22654
1.22654
1.23771
1.23771
1.24983
1.24983
1.26325
1.26325
1.27824
1.27825
1.29504
1.29504
1.31381
1.31381
1.33463
1.33464
1.35758
1.35758
1.38267
1.38267
1.40989
1.40989
1.43921
1.43922
1.47057
1.47057
1.50381
1.50382
1.53873
1.53874
1.57508
1.57509
1.61262
1.61262
1.6511
1.6511
1.6904
1.69041
1.73058
1.73058
1.77167
1.77167
1.81364
1.81364
1.85627
1.85626
1.89927
1.89927
1.94228
1.94228
1.98488
1.98488
2.02676
2.02676
2.06773
2.06773
2.1078
2.1078
2.14714
2.14714
2.186
2.186
2.22469
2.22469
2.26349
2.26349
2.30259
2.30259
2.34214
2.34214
2.3822
2.3822
2.42279
2.42279
2.46385
2.46385
2.50533
2.50533
2.54713
2.54713
2.58919
2.58919
2.63149
2.63149
2.67402
2.67402
2.71687
2.71687
2.76012
2.76012
2.80386
2.80386
2.84824
2.84824
2.89345
2.89345
2.93968
2.93968
2.98711
2.98711
3.03589
3.03589
3.08614
3.08614
3.13795
3.13795
3.19142
3.19142
3.24671
3.24671
3.30399
3.30399
3.36349
3.36349
3.42546
3.42547
3.4902
3.4902
3.55796
3.55796
3.62903
3.62903
3.70364
3.70364
3.78204
3.78205
3.86448
3.86448
3.95116
3.95116
4.04228
4.04228
4.13803
4.13803
4.23861
4.23861
4.34419
4.34419
4.45495
4.45495
4.57109
4.57109
4.69278
4.69278
4.82022
4.82022
4.95358
4.95358
5.09303
5.09303
5.23872
5.23872
5.39078
5.39078
5.54933
5.54933
5.71448
5.71448
5.88634
5.88635
6.06503
6.06503
6.25064
6.25064
6.44326
6.44326
6.643
6.643
6.84998
6.84998
7.06432
7.06432
7.28615
7.28615
7.51559
7.51559
7.75278
7.75278
7.99786
7.99786
8.25101
8.25101
8.51238
8.51238
8.78214
8.78214
9.06045
9.06045
9.34746
9.34746
9.64333
9.64333
9.94819
9.94819
10.2622
10.2622
10.5854
10.5854
10.9181
10.9181
11.2602
11.2602
11.612
11.612
11.9736
11.9736
12.3451
12.3451
12.7266
12.7266
13.1184
13.1184
13.5206
13.5206
13.9333
13.9333
14.3567
14.3567
14.791
14.791
15.2364
15.2364
15.693
15.693
16.1609
16.1609
16.6402
16.6402
17.1309
17.1309
17.6333
17.6333
18.1471
18.1471
18.6725
18.6725
19.2094
19.2094
19.7577
19.7577
20.3174
20.3174
20.8883
20.8883
21.4704
21.4704
22.0634
22.0634
22.6672
22.6672
23.2817
23.2817
23.9067
23.9067
24.5419
24.5419
25.1871
25.1871
25.8422
25.8422
26.5068
26.5068
27.1807
27.1807
27.8636
27.8636
28.5551
28.5551
29.2549
29.2549
29.9626
29.9626
30.6778
30.6778
31.4
31.4
32.1288
32.1288
32.8637
32.8637
33.6039
33.6039
34.349
34.349
35.0983
35.0983
35.8509
35.8509
36.6063
36.6063
37.3635
37.3635
38.1216
38.1216
38.8798
38.8798
39.6369
39.6369
40.392
40.392
41.1438
41.1438
41.891
41.891
42.6324
42.6324
43.3666
43.3666
44.092
44.092
44.8072
44.8072
45.5104
45.5104
46.1999
46.1999
46.874
46.874
47.5306
47.5306
48.1679
48.1679
48.7838
48.7838
49.3762
49.3762
49.9431
49.9431
50.4824
50.4824
50.9919
50.9919
51.4693
51.4693
51.9125
51.9125
52.3194
52.3194
52.688
52.688
53.0162
53.0162
53.3023
53.3023
53.5446
53.5446
53.7416
53.7416
53.8922
53.8922
53.9955
53.9955
54.0509
54.0509
54.0582
54.0582
54.0175
54.0175
53.9294
53.9294
53.7949
53.7949
53.6157
53.6157
53.3937
53.3937
53.1316
53.1316
52.8327
52.8327
52.5007
52.5007
52.1401
52.1401
51.7561
51.7561
51.3545
51.3545
50.9415
50.9415
50.5234
50.5234
50.1068
50.1068
49.699
49.699
49.3073
49.3073
48.9392
48.9392
48.6021
48.6021
48.3033
48.3033
48.0498
48.0498
47.8481
47.8481
47.7041
47.7041
47.6231
47.6231
47.6093
47.6093
47.6661
47.6661
47.7959
47.7959
47.9999
47.9999
48.2779
48.2779
48.6288
48.6288
49.0503
49.0503
49.5389
49.5389
50.0902
50.0902
50.6986
50.6986
51.3579
51.3579
52.061
52.061
52.8004
52.8004
53.568
53.568
54.3553
54.3553
55.1537
55.1537
55.9549
55.9549
56.7504
56.7504
57.5319
57.5319
58.2913
58.2913
59.0208
59.0208
59.713
59.713
60.3612
60.3612
60.9592
60.9592
61.5012
61.5012
61.9816
61.9816
62.3959
62.3959
62.7406
62.7406
63.0126
63.0126
63.2087
63.2087
63.3268
63.3268
63.3654
63.3654
63.3234
63.3234
63.2004
63.2004
62.9961
62.9961
62.711
62.711
62.346
62.346
61.9018
61.9018
61.38
61.38
60.7822
60.7822
60.1103
60.1103
59.3664
59.3664
58.5525
58.5525
57.671
57.671
56.7241
56.7241
55.7141
55.7141
54.6433
54.6433
53.5141
53.5141
52.3284
52.3284
51.0882
51.0882
49.7954
49.7954
48.4514
48.4514
47.0577
47.0577
45.6153
45.6153
44.1252
44.1252
42.5877
42.5877
41.003
41.003
39.3705
39.3705
37.6892
37.6892
35.9574
35.9574
34.1725
34.1725
32.331
32.331
30.4278
30.4278
28.4562
28.4562
26.4071
26.4071
24.2681
24.2681
22.0219
22.0219
19.6445
19.6445
17.101
17.101
14.341
14.341
11.2945
11.2945
7.89578
7.89578
4.28589
4.28589
1.39975
1.39975
0.202538
0.202538
0.00840448
0.00840448
)
;

boundaryField
{
    walls
    {
        type            kqRWallFunction;
        value           nonuniform List<scalar> 8(0.0084043 0.0084043 0.0084043 0.0084043 0.00840449 0.00840448 0.00840449 0.00840448);
    }
    inlet
    {
        type            cyclic;
    }
    outlet
    {
        type            cyclic;
    }
    sides
    {
        type            empty;
    }
}


// ************************************************************************* //
