/*--------------------------------*- C++ -*----------------------------------*\
| =========                 |                                                 |
| \\      /  F ield         | OpenFOAM: The Open Source CFD Toolbox           |
|  \\    /   O peration     | Version:  2012                                  |
|   \\  /    A nd           | Website:  www.openfoam.com                      |
|    \\/     M anipulation  |                                                 |
\*---------------------------------------------------------------------------*/
FoamFile
{
    version     2.0;
    format      ascii;
    class       volScalarField;
    location    "15300";
    object      omega;
}
// * * * * * * * * * * * * * * * * * * * * * * * * * * * * * * * * * * * * * //

dimensions      [0 0 -1 0 0 0 0];


internalField   nonuniform List<scalar> 
2560
(
1.52416e+06
1.52416e+06
264558
264558
88209.3
88209.3
41219.2
41219.2
24723.1
24723.1
17606.3
17606.3
13878.1
13878.1
11623.5
11623.5
10118.8
10118.8
9043.26
9043.26
8235.18
8235.18
7604.9
7604.9
7098.77
7098.77
6682.77
6682.77
6334.27
6334.27
6037.63
6037.63
5781.67
5781.67
5558.21
5558.21
5361.08
5361.08
5185.55
5185.55
5027.95
5027.95
4885.34
4885.34
4755.37
4755.37
4636.13
4636.13
4526.02
4526.02
4423.74
4423.74
4328.17
4328.17
4238.38
4238.38
4153.55
4153.55
4072.99
4072.99
3996.09
3996.09
3922.34
3922.34
3851.27
3851.27
3782.47
3782.47
3715.59
3715.59
3650.32
3650.32
3586.36
3586.36
3523.48
3523.48
3461.46
3461.46
3400.1
3400.1
3339.24
3339.24
3278.74
3278.74
3218.48
3218.48
3158.35
3158.35
3098.27
3098.27
3038.19
3038.19
2978.04
2978.04
2917.81
2917.81
2857.49
2857.49
2797.08
2797.08
2736.6
2736.6
2676.09
2676.09
2615.6
2615.6
2555.2
2555.2
2494.97
2494.97
2434.99
2434.99
2375.38
2375.38
2316.24
2316.24
2257.7
2257.7
2199.89
2199.89
2142.94
2142.94
2087
2087
2032.19
2032.19
1978.66
1978.66
1926.55
1926.55
1875.98
1875.98
1827.07
1827.07
1779.94
1779.94
1734.67
1734.67
1691.34
1691.34
1650.02
1650.02
1610.73
1610.73
1573.49
1573.49
1538.31
1538.31
1505.16
1505.16
1473.99
1473.99
1444.73
1444.73
1417.3
1417.3
1391.61
1391.61
1367.54
1367.54
1344.98
1344.98
1323.79
1323.79
1303.85
1303.85
1285.04
1285.04
1267.21
1267.21
1250.24
1250.24
1234.02
1234.02
1218.43
1218.43
1203.35
1203.35
1188.7
1188.7
1174.38
1174.38
1160.32
1160.32
1146.43
1146.43
1132.66
1132.66
1118.95
1118.95
1105.27
1105.27
1091.56
1091.56
1077.79
1077.79
1063.96
1063.96
1050.03
1050.03
1035.99
1035.99
1021.84
1021.84
1007.58
1007.58
993.198
993.198
978.705
978.705
964.107
964.107
949.411
949.411
934.627
934.627
919.769
919.769
904.848
904.848
889.878
889.878
874.874
874.874
859.849
859.849
844.819
844.819
829.796
829.796
814.797
814.797
799.833
799.833
784.92
784.92
770.068
770.068
755.291
755.291
740.6
740.6
726.006
726.006
711.519
711.519
697.147
697.147
682.901
682.901
668.788
668.788
654.816
654.816
640.99
640.99
627.318
627.318
613.805
613.805
600.455
600.455
587.274
587.274
574.265
574.265
561.431
561.431
548.776
548.776
536.303
536.303
524.013
524.013
511.908
511.908
499.991
499.991
488.262
488.262
476.723
476.723
465.373
465.373
454.215
454.215
443.247
443.247
432.469
432.469
421.883
421.883
411.487
411.487
401.281
401.281
391.265
391.265
381.438
381.438
371.799
371.799
362.347
362.347
353.082
353.082
344.003
344.003
335.108
335.108
326.397
326.397
317.868
317.868
309.521
309.521
301.353
301.353
293.365
293.365
285.553
285.553
277.918
277.918
270.456
270.456
263.166
263.166
256.045
256.045
249.092
249.092
242.304
242.304
235.679
235.679
229.213
229.213
222.903
222.903
216.747
216.747
210.742
210.742
204.885
204.885
199.174
199.174
193.604
193.604
188.175
188.175
182.883
182.883
177.727
177.727
172.703
172.703
167.81
167.81
163.045
163.045
158.406
158.406
153.892
153.892
149.498
149.498
145.224
145.224
141.068
141.068
137.025
137.025
133.095
133.095
129.275
129.275
125.563
125.563
121.957
121.957
118.454
118.454
115.053
115.053
111.751
111.751
108.547
108.547
105.44
105.44
102.427
102.427
99.5068
99.5068
96.6783
96.6783
93.9397
93.9397
91.2895
91.2895
88.726
88.726
86.2477
86.2477
83.8527
83.8527
81.5391
81.5391
79.3051
79.3051
77.1485
77.1485
75.0671
75.0671
73.0587
73.0587
71.1213
71.1213
69.2526
69.2526
67.4506
67.4506
65.7132
65.7132
64.0383
64.0383
62.4238
62.4238
60.8673
60.8672
59.3663
59.3663
57.9184
57.9184
56.5208
56.5208
55.1708
55.1708
53.8656
53.8656
52.6022
52.6022
51.3781
51.3781
50.191
50.191
49.039
49.039
47.9204
47.9204
46.8338
46.8338
45.778
45.778
44.7515
44.7515
43.7525
43.7525
42.7792
42.7792
41.8297
41.8297
40.9022
40.9022
39.9951
39.9951
39.1071
39.1071
38.2373
38.2373
37.3847
37.3847
36.5488
36.5488
35.7295
35.7294
34.9268
34.9268
34.1412
34.1412
33.3729
33.3729
32.6219
32.6219
31.8878
31.8878
31.1696
31.1696
30.4659
30.4659
29.7747
29.7747
29.0938
29.0938
28.4207
28.4207
27.7532
27.7532
27.0899
27.09
26.4307
26.4307
25.7762
25.7763
25.1285
25.1285
24.4897
24.4897
23.8622
23.8622
23.2478
23.2478
22.6477
22.6477
22.0621
22.0621
21.4904
21.4903
20.9319
20.9319
20.3872
20.3872
19.8577
19.8577
19.3449
19.3449
18.8504
18.8504
18.3753
18.3753
17.9206
17.9205
17.4865
17.4865
17.0732
17.0732
16.6807
16.6807
16.3087
16.3086
15.9567
15.9566
15.6239
15.6239
15.3093
15.3093
15.0113
15.0113
14.7279
14.7279
14.4571
14.4571
14.1963
14.1963
13.943
13.943
13.6945
13.6945
13.4489
13.4489
13.2044
13.2044
12.9591
12.9591
12.7108
12.7108
12.4574
12.4574
12.198
12.198
11.9333
11.9333
11.6649
11.6649
11.3954
11.3954
11.1283
11.1283
10.8679
10.8679
10.6179
10.6179
10.3807
10.3807
10.1568
10.1568
9.94632
9.94631
9.74922
9.74921
9.56554
9.56553
9.39533
9.39532
9.23864
9.23863
9.0953
9.09529
8.96476
8.96476
8.84588
8.84587
8.73707
8.73706
8.63664
8.63664
8.54268
8.54268
8.45244
8.45244
8.3624
8.3624
8.26944
8.26944
8.17213
8.17213
8.07133
8.07132
7.96965
7.96964
7.86997
7.86997
7.77453
7.77452
7.68523
7.68522
7.60435
7.60435
7.5342
7.53421
7.47633
7.47634
7.43149
7.43149
7.40028
7.40029
7.38392
7.38393
1.52416e+06
1.52416e+06
264558
264558
88209.3
88209.3
41219.2
41219.2
24723.1
24723.1
17606.3
17606.3
13878.1
13878.1
11623.5
11623.5
10118.8
10118.8
9043.26
9043.26
8235.18
8235.18
7604.9
7604.9
7098.77
7098.77
6682.77
6682.77
6334.27
6334.27
6037.63
6037.63
5781.67
5781.67
5558.21
5558.21
5361.08
5361.08
5185.55
5185.55
5027.95
5027.95
4885.34
4885.34
4755.37
4755.37
4636.13
4636.13
4526.02
4526.02
4423.74
4423.74
4328.17
4328.17
4238.38
4238.38
4153.55
4153.55
4072.99
4072.99
3996.09
3996.09
3922.34
3922.34
3851.27
3851.27
3782.47
3782.47
3715.59
3715.59
3650.32
3650.32
3586.36
3586.36
3523.48
3523.48
3461.46
3461.46
3400.1
3400.1
3339.24
3339.24
3278.74
3278.74
3218.48
3218.48
3158.35
3158.35
3098.27
3098.27
3038.19
3038.19
2978.04
2978.04
2917.81
2917.81
2857.49
2857.49
2797.08
2797.08
2736.6
2736.6
2676.09
2676.09
2615.6
2615.6
2555.2
2555.2
2494.97
2494.97
2434.99
2434.99
2375.38
2375.38
2316.24
2316.24
2257.7
2257.7
2199.89
2199.89
2142.94
2142.94
2087
2087
2032.19
2032.19
1978.66
1978.66
1926.55
1926.55
1875.98
1875.98
1827.07
1827.07
1779.94
1779.94
1734.67
1734.67
1691.34
1691.34
1650.02
1650.02
1610.73
1610.73
1573.49
1573.49
1538.31
1538.31
1505.16
1505.16
1473.99
1473.99
1444.73
1444.73
1417.31
1417.31
1391.61
1391.61
1367.54
1367.54
1344.98
1344.98
1323.79
1323.79
1303.85
1303.85
1285.04
1285.04
1267.21
1267.21
1250.24
1250.24
1234.02
1234.02
1218.43
1218.43
1203.35
1203.35
1188.7
1188.7
1174.38
1174.38
1160.32
1160.32
1146.43
1146.43
1132.66
1132.66
1118.95
1118.95
1105.27
1105.27
1091.56
1091.56
1077.79
1077.79
1063.96
1063.96
1050.03
1050.03
1035.99
1035.99
1021.84
1021.84
1007.58
1007.58
993.198
993.198
978.705
978.705
964.107
964.107
949.41
949.41
934.627
934.627
919.769
919.769
904.848
904.848
889.878
889.878
874.874
874.874
859.849
859.849
844.818
844.818
829.796
829.796
814.797
814.797
799.833
799.833
784.92
784.92
770.068
770.068
755.291
755.291
740.6
740.6
726.006
726.006
711.519
711.519
697.147
697.147
682.901
682.901
668.788
668.788
654.816
654.816
640.99
640.99
627.318
627.318
613.805
613.805
600.455
600.455
587.274
587.274
574.265
574.265
561.431
561.431
548.776
548.776
536.303
536.303
524.013
524.013
511.908
511.908
499.991
499.991
488.262
488.262
476.723
476.723
465.373
465.373
454.215
454.215
443.247
443.247
432.469
432.469
421.883
421.883
411.487
411.487
401.281
401.281
391.265
391.265
381.438
381.438
371.799
371.799
362.347
362.347
353.082
353.082
344.003
344.003
335.108
335.108
326.397
326.397
317.868
317.868
309.521
309.521
301.353
301.353
293.365
293.365
285.553
285.553
277.918
277.918
270.456
270.456
263.166
263.166
256.045
256.045
249.092
249.092
242.304
242.304
235.679
235.679
229.213
229.213
222.903
222.903
216.747
216.747
210.742
210.742
204.885
204.885
199.174
199.174
193.604
193.604
188.175
188.175
182.883
182.883
177.727
177.727
172.703
172.703
167.81
167.81
163.045
163.045
158.406
158.406
153.892
153.892
149.498
149.498
145.224
145.224
141.068
141.068
137.025
137.025
133.095
133.095
129.275
129.275
125.563
125.563
121.957
121.957
118.454
118.454
115.053
115.053
111.751
111.751
108.547
108.547
105.44
105.44
102.427
102.427
99.5068
99.5068
96.6783
96.6783
93.9397
93.9397
91.2895
91.2895
88.726
88.726
86.2477
86.2477
83.8527
83.8527
81.5391
81.5391
79.3051
79.3051
77.1485
77.1485
75.0671
75.0671
73.0587
73.0587
71.1213
71.1213
69.2526
69.2526
67.4506
67.4506
65.7132
65.7132
64.0383
64.0383
62.4238
62.4238
60.8673
60.8673
59.3663
59.3663
57.9184
57.9184
56.5208
56.5208
55.1708
55.1709
53.8656
53.8656
52.6022
52.6022
51.3781
51.3782
50.1911
50.1911
49.039
49.039
47.9204
47.9204
46.8339
46.8339
45.7781
45.7781
44.7515
44.7515
43.7525
43.7525
42.7793
42.7793
41.8297
41.8297
40.9022
40.9022
39.9951
39.9951
39.1072
39.1072
38.2373
38.2373
37.3847
37.3847
36.5488
36.5488
35.7295
35.7295
34.9269
34.9269
34.1413
34.1413
33.373
33.373
32.622
32.622
31.8879
31.8879
31.1696
31.1696
30.4659
30.4659
29.7747
29.7747
29.0938
29.0938
28.4207
28.4207
27.7532
27.7532
27.09
27.09
26.4307
26.4307
25.7763
25.7763
25.1285
25.1285
24.4897
24.4897
23.8622
23.8622
23.2478
23.2478
22.6477
22.6477
22.0621
22.0621
21.4903
21.4904
20.9319
20.9319
20.3872
20.3872
19.8577
19.8577
19.3449
19.3449
18.8504
18.8504
18.3753
18.3753
17.9205
17.9206
17.4865
17.4865
17.0732
17.0732
16.6807
16.6807
16.3087
16.3087
15.9567
15.9567
15.6239
15.6239
15.3093
15.3093
15.0113
15.0113
14.7279
14.7279
14.4571
14.4571
14.1963
14.1964
13.943
13.943
13.6945
13.6945
13.4489
13.4489
13.2044
13.2044
12.9591
12.9591
12.7107
12.7108
12.4573
12.4574
12.198
12.198
11.9332
11.9333
11.6649
11.6649
11.3954
11.3954
11.1283
11.1283
10.8679
10.8679
10.6179
10.6179
10.3806
10.3807
10.1568
10.1568
9.94631
9.94632
9.74921
9.74922
9.56553
9.56554
9.39533
9.39533
9.23863
9.23864
9.0953
9.0953
8.96476
8.96477
8.84588
8.84588
8.73707
8.73707
8.63664
8.63664
8.54268
8.54269
8.45244
8.45245
8.3624
8.3624
8.26944
8.26944
8.17212
8.17213
8.07132
8.07133
7.96964
7.96964
7.86996
7.86997
7.77452
7.77453
7.68522
7.68522
7.60434
7.60434
7.5342
7.5342
7.47633
7.47633
7.43149
7.43148
7.40029
7.40028
7.38393
7.38391
7.38389
7.3839
7.40022
7.40023
7.43136
7.43137
7.47609
7.47609
7.53386
7.53386
7.60387
7.60387
7.68457
7.68457
7.77372
7.77372
7.86883
7.86882
7.96793
7.96792
8.06905
8.06904
8.16942
8.16941
8.26641
8.2664
8.35924
8.35924
8.44948
8.44947
8.54012
8.54012
8.63448
8.63448
8.73525
8.73525
8.84434
8.84434
8.96349
8.96348
9.09432
9.09431
9.23798
9.23797
9.39499
9.39498
9.56549
9.56548
9.74946
9.74945
9.94684
9.94683
10.1576
10.1576
10.3817
10.3817
10.6192
10.6192
10.8695
10.8694
11.1302
11.1302
11.3975
11.3975
11.667
11.667
11.9353
11.9353
12.1996
12.1996
12.4584
12.4584
12.7112
12.7112
12.9591
12.9591
13.2041
13.2041
13.4484
13.4484
13.6938
13.6938
13.942
13.942
14.1952
14.1952
14.4558
14.4558
14.7264
14.7264
15.0095
15.0095
15.3073
15.3073
15.6218
15.6218
15.9544
15.9544
16.3064
16.3064
16.6784
16.6784
17.0709
17.0709
17.4842
17.4841
17.9182
17.9182
18.373
18.373
18.8481
18.8481
19.3427
19.3427
19.8555
19.8555
20.385
20.385
20.9298
20.9298
21.4884
21.4884
22.0603
22.0603
22.6459
22.6459
23.2459
23.2459
23.8601
23.8601
24.4873
24.4873
25.126
25.126
25.7737
25.7737
26.4281
26.4281
27.0872
27.0872
27.7502
27.7502
28.4175
28.4175
29.0906
29.0906
29.7716
29.7716
30.4632
30.4632
31.1675
31.1675
31.8863
31.8863
32.6209
32.6209
33.3723
33.3722
34.1406
34.1406
34.9261
34.9261
35.7285
35.7285
36.5476
36.5476
37.3833
37.3833
38.2357
38.2357
39.1054
39.1054
39.9933
39.9933
40.9005
40.9005
41.8281
41.8281
42.7776
42.7776
43.7511
43.7511
44.7504
44.7504
45.7774
45.7774
46.8337
46.8337
47.9208
47.9208
49.0398
49.0398
50.1921
50.1921
51.3794
51.3794
52.6035
52.6035
53.867
53.8669
55.1723
55.1723
56.5224
56.5224
57.92
57.92
59.368
59.368
60.8688
60.8688
62.4251
62.4251
64.0393
64.0393
65.7139
65.7138
67.4509
67.4509
69.2526
69.2526
71.1211
71.1211
73.0585
73.0585
75.0668
75.0668
77.1483
77.1482
79.3049
79.3049
81.539
81.5389
83.8525
83.8525
86.2476
86.2476
88.7261
88.7261
91.2896
91.2896
93.9398
93.9398
96.6784
96.6784
99.5068
99.5068
102.427
102.427
105.44
105.44
108.547
108.547
111.751
111.751
115.052
115.052
118.454
118.454
121.957
121.957
125.563
125.563
129.275
129.275
133.095
133.095
137.025
137.025
141.067
141.067
145.224
145.224
149.497
149.497
153.891
153.891
158.405
158.405
163.044
163.044
167.809
167.809
172.702
172.702
177.725
177.725
182.882
182.882
188.174
188.174
193.603
193.603
199.172
199.172
204.883
204.883
210.74
210.74
216.745
216.745
222.901
222.901
229.21
229.21
235.677
235.677
242.302
242.302
249.09
249.09
256.043
256.043
263.163
263.163
270.453
270.453
277.915
277.915
285.551
285.55
293.362
293.362
301.35
301.35
309.517
309.517
317.864
317.864
326.393
326.393
335.104
335.104
343.998
343.998
353.078
353.078
362.343
362.343
371.794
371.794
381.433
381.433
391.26
391.26
401.276
401.276
411.482
411.482
421.878
421.878
432.464
432.464
443.241
443.241
454.209
454.209
465.368
465.368
476.718
476.718
488.258
488.258
499.987
499.987
511.904
511.904
524.009
524.009
536.299
536.299
548.772
548.772
561.426
561.426
574.26
574.26
587.269
587.269
600.45
600.45
613.799
613.799
627.312
627.312
640.984
640.984
654.81
654.81
668.782
668.782
682.894
682.894
697.139
697.139
711.509
711.509
725.995
725.995
740.588
740.588
755.278
755.278
770.053
770.053
784.903
784.903
799.814
799.814
814.774
814.774
829.771
829.771
844.79
844.79
859.819
859.819
874.843
874.843
889.846
889.846
904.815
904.815
919.735
919.735
934.593
934.593
949.375
949.375
964.071
964.071
978.669
978.669
993.16
993.16
1007.54
1007.54
1021.8
1021.8
1035.95
1035.95
1049.98
1049.98
1063.91
1063.91
1077.75
1077.75
1091.51
1091.51
1105.22
1105.22
1118.91
1118.91
1132.62
1132.62
1146.38
1146.38
1160.26
1160.26
1174.32
1174.32
1188.62
1188.62
1203.26
1203.26
1218.33
1218.33
1233.92
1233.92
1250.14
1250.14
1267.1
1267.1
1284.92
1284.92
1303.73
1303.73
1323.66
1323.66
1344.84
1344.84
1367.39
1367.39
1391.45
1391.45
1417.14
1417.14
1444.56
1444.56
1473.81
1473.81
1504.98
1504.98
1538.12
1538.12
1573.3
1573.3
1610.52
1610.52
1649.81
1649.81
1691.13
1691.13
1734.45
1734.45
1779.72
1779.72
1826.85
1826.85
1875.76
1875.76
1926.33
1926.33
1978.45
1978.45
2031.98
2031.98
2086.79
2086.79
2142.73
2142.73
2199.68
2199.68
2257.5
2257.5
2316.05
2316.05
2375.2
2375.2
2434.83
2434.83
2494.82
2494.82
2555.08
2555.08
2615.5
2615.5
2676.02
2676.02
2736.55
2736.55
2797.04
2797.04
2857.47
2857.47
2917.82
2917.82
2978.08
2978.08
3038.25
3038.25
3098.36
3098.36
3158.46
3158.46
3218.61
3218.61
3278.89
3278.89
3339.41
3339.41
3400.29
3400.29
3461.66
3461.66
3523.69
3523.69
3586.59
3586.59
3650.55
3650.55
3715.84
3715.84
3782.72
3782.72
3851.53
3851.53
3922.6
3922.6
3996.36
3996.36
4073.25
4073.25
4153.82
4153.82
4238.66
4238.66
4328.47
4328.47
4424.04
4424.04
4526.33
4526.33
4636.43
4636.43
4755.68
4755.68
4885.64
4885.64
5028.25
5028.25
5185.85
5185.85
5361.37
5361.37
5558.5
5558.5
5781.96
5781.96
6037.91
6037.91
6334.55
6334.55
6683.04
6683.04
7099.04
7099.04
7605.16
7605.16
8235.44
8235.44
9043.5
9043.5
10119
10119
11623.7
11623.7
13878.3
13878.3
17606.5
17606.5
24723.2
24723.2
41219.3
41219.3
88209.5
88209.5
264559
264559
1.52417e+06
1.52417e+06
7.3839
7.38389
7.40023
7.40022
7.43137
7.43136
7.47609
7.47609
7.53387
7.53386
7.60387
7.60387
7.68457
7.68457
7.77372
7.77373
7.86882
7.86883
7.96792
7.96793
8.06904
8.06905
8.16941
8.16942
8.2664
8.26641
8.35924
8.35924
8.44947
8.44947
8.54011
8.54012
8.63448
8.63448
8.73525
8.73525
8.84434
8.84434
8.96348
8.96348
9.09431
9.09432
9.23797
9.23798
9.39498
9.39499
9.56549
9.56549
9.74945
9.74946
9.94684
9.94685
10.1576
10.1576
10.3817
10.3817
10.6192
10.6192
10.8694
10.8695
11.1302
11.1302
11.3975
11.3975
11.667
11.6671
11.9353
11.9353
12.1996
12.1997
12.4584
12.4584
12.7112
12.7112
12.9591
12.9591
13.2041
13.2041
13.4484
13.4484
13.6938
13.6938
13.942
13.942
14.1952
14.1952
14.4558
14.4558
14.7264
14.7264
15.0095
15.0095
15.3073
15.3073
15.6218
15.6218
15.9544
15.9544
16.3064
16.3064
16.6784
16.6784
17.0709
17.0709
17.4841
17.4842
17.9182
17.9182
18.373
18.373
18.8481
18.8481
19.3427
19.3427
19.8555
19.8555
20.385
20.3851
20.9298
20.9298
21.4884
21.4885
22.0603
22.0603
22.6459
22.6459
23.2459
23.2459
23.8601
23.8601
24.4874
24.4873
25.126
25.126
25.7738
25.7738
26.4281
26.4281
27.0873
27.0872
27.7502
27.7502
28.4175
28.4175
29.0906
29.0906
29.7717
29.7717
30.4632
30.4632
31.1675
31.1675
31.8863
31.8863
32.6209
32.6209
33.3722
33.3722
34.1406
34.1406
34.9261
34.9261
35.7285
35.7285
36.5476
36.5476
37.3833
37.3833
38.2357
38.2357
39.1054
39.1054
39.9933
39.9933
40.9004
40.9004
41.828
41.828
42.7776
42.7776
43.7511
43.7511
44.7504
44.7504
45.7773
45.7773
46.8336
46.8337
47.9207
47.9208
49.0397
49.0398
50.192
50.192
51.3793
51.3793
52.6035
52.6035
53.8669
53.8669
55.1722
55.1722
56.5223
56.5223
57.92
57.92
59.3679
59.3679
60.8687
60.8687
62.425
62.425
64.0392
64.0392
65.7138
65.7138
67.4508
67.4508
69.2525
69.2525
71.1211
71.1211
73.0584
73.0584
75.0668
75.0668
77.1482
77.1482
79.3048
79.3048
81.5389
81.5389
83.8525
83.8525
86.2476
86.2476
88.726
88.726
91.2895
91.2895
93.9398
93.9398
96.6783
96.6783
99.5068
99.5068
102.427
102.427
105.44
105.44
108.547
108.547
111.751
111.751
115.052
115.052
118.454
118.454
121.957
121.957
125.563
125.563
129.275
129.275
133.095
133.095
137.025
137.025
141.067
141.067
145.224
145.224
149.497
149.497
153.89
153.89
158.405
158.405
163.044
163.044
167.809
167.809
172.702
172.702
177.725
177.725
182.882
182.882
188.173
188.173
193.603
193.603
199.172
199.172
204.883
204.883
210.74
210.74
216.745
216.745
222.901
222.901
229.21
229.21
235.676
235.676
242.302
242.302
249.09
249.09
256.043
256.043
263.163
263.163
270.453
270.453
277.915
277.915
285.55
285.55
293.362
293.362
301.35
301.35
309.517
309.517
317.864
317.864
326.393
326.393
335.104
335.104
343.998
343.998
353.078
353.078
362.342
362.343
371.794
371.794
381.433
381.433
391.26
391.26
401.276
401.276
411.482
411.482
421.878
421.878
432.464
432.464
443.241
443.241
454.209
454.209
465.368
465.368
476.718
476.718
488.258
488.258
499.987
499.987
511.904
511.904
524.009
524.009
536.299
536.299
548.772
548.772
561.426
561.426
574.26
574.26
587.269
587.269
600.45
600.45
613.799
613.799
627.312
627.312
640.984
640.984
654.809
654.809
668.781
668.781
682.894
682.894
697.139
697.139
711.509
711.509
725.995
725.995
740.588
740.588
755.278
755.278
770.053
770.053
784.903
784.903
799.814
799.814
814.774
814.774
829.771
829.771
844.79
844.79
859.819
859.819
874.843
874.843
889.846
889.846
904.815
904.815
919.735
919.735
934.593
934.593
949.375
949.375
964.071
964.071
978.669
978.669
993.16
993.16
1007.54
1007.54
1021.8
1021.8
1035.95
1035.95
1049.98
1049.98
1063.91
1063.91
1077.75
1077.75
1091.51
1091.51
1105.22
1105.22
1118.91
1118.91
1132.62
1132.62
1146.38
1146.38
1160.26
1160.26
1174.31
1174.31
1188.62
1188.62
1203.26
1203.26
1218.33
1218.33
1233.92
1233.92
1250.14
1250.14
1267.1
1267.1
1284.92
1284.92
1303.73
1303.73
1323.66
1323.66
1344.84
1344.84
1367.39
1367.39
1391.45
1391.45
1417.14
1417.14
1444.56
1444.56
1473.81
1473.81
1504.98
1504.98
1538.12
1538.12
1573.3
1573.3
1610.52
1610.52
1649.81
1649.81
1691.13
1691.13
1734.45
1734.45
1779.72
1779.72
1826.85
1826.85
1875.76
1875.76
1926.33
1926.33
1978.45
1978.45
2031.98
2031.98
2086.79
2086.79
2142.73
2142.73
2199.68
2199.68
2257.5
2257.5
2316.05
2316.05
2375.2
2375.2
2434.83
2434.83
2494.82
2494.82
2555.08
2555.08
2615.5
2615.5
2676.02
2676.02
2736.55
2736.55
2797.04
2797.04
2857.47
2857.47
2917.82
2917.82
2978.08
2978.08
3038.25
3038.25
3098.36
3098.36
3158.46
3158.46
3218.61
3218.61
3278.89
3278.89
3339.41
3339.41
3400.29
3400.29
3461.66
3461.66
3523.69
3523.69
3586.59
3586.59
3650.55
3650.55
3715.84
3715.84
3782.72
3782.72
3851.53
3851.53
3922.6
3922.6
3996.36
3996.36
4073.25
4073.25
4153.82
4153.82
4238.66
4238.66
4328.47
4328.47
4424.04
4424.04
4526.33
4526.33
4636.43
4636.43
4755.68
4755.68
4885.64
4885.64
5028.25
5028.25
5185.85
5185.85
5361.37
5361.37
5558.5
5558.5
5781.96
5781.96
6037.91
6037.91
6334.54
6334.54
6683.04
6683.04
7099.03
7099.03
7605.16
7605.16
8235.44
8235.44
9043.5
9043.5
10119
10119
11623.7
11623.7
13878.3
13878.3
17606.5
17606.5
24723.2
24723.2
41219.3
41219.3
88209.5
88209.5
264559
264559
1.52417e+06
1.52417e+06
)
;

boundaryField
{
    walls
    {
        blending        binomial2;
        n               2;
        beta1           0.075;
        type            omegaWallFunction;
        value           nonuniform List<scalar> 8(1.52416e+06 1.52416e+06 1.52416e+06 1.52416e+06 1.52417e+06 1.52417e+06 1.52417e+06 1.52417e+06);
    }
    inlet
    {
        type            cyclic;
    }
    outlet
    {
        type            cyclic;
    }
    sides
    {
        type            empty;
    }
}


// ************************************************************************* //
