/*--------------------------------*- C++ -*----------------------------------*\
| =========                 |                                                 |
| \\      /  F ield         | OpenFOAM: The Open Source CFD Toolbox           |
|  \\    /   O peration     | Version:  2012                                  |
|   \\  /    A nd           | Website:  www.openfoam.com                      |
|    \\/     M anipulation  |                                                 |
\*---------------------------------------------------------------------------*/
FoamFile
{
    version     2.0;
    format      ascii;
    class       volScalarField;
    location    "10900";
    object      nut;
}
// * * * * * * * * * * * * * * * * * * * * * * * * * * * * * * * * * * * * * //

dimensions      [0 2 -1 0 0 0 0];


internalField   nonuniform List<scalar> 
2560
(
4.38321e-10
4.38321e-10
4.85381e-08
4.85381e-08
1.02466e-06
1.02466e-06
7.94753e-06
7.94753e-06
3.50395e-05
3.50395e-05
0.000102999
0.000102999
0.000222041
0.000222041
0.000386137
0.000386137
0.000584113
0.000584113
0.000806689
0.000806689
0.00104734
0.00104734
0.00130157
0.00130157
0.00156616
0.00156615
0.00183875
0.00183875
0.00211756
0.00211756
0.00240117
0.00240117
0.00268844
0.00268844
0.00297842
0.00297842
0.00327032
0.00327032
0.00356346
0.00356346
0.00385721
0.00385721
0.00415105
0.00415105
0.00444449
0.00444449
0.00473707
0.00473707
0.00502837
0.00502837
0.005318
0.005318
0.00560558
0.00560558
0.00589075
0.00589075
0.00617315
0.00617315
0.00645245
0.00645245
0.00672831
0.00672831
0.0070004
0.0070004
0.0072684
0.0072684
0.00753197
0.00753197
0.00779082
0.00779082
0.00804462
0.00804462
0.00829308
0.00829308
0.00853589
0.00853589
0.00877278
0.00877278
0.00900347
0.00900347
0.00922771
0.00922771
0.00944525
0.00944525
0.00965589
0.00965589
0.00985944
0.00985944
0.0100557
0.0100557
0.0102447
0.0102447
0.0104262
0.0104262
0.0106003
0.0106003
0.0107671
0.0107671
0.0109265
0.0109265
0.0110789
0.0110789
0.0112244
0.0112244
0.0113635
0.0113635
0.0114967
0.0114967
0.0116245
0.0116245
0.0117477
0.0117477
0.011867
0.011867
0.0119835
0.0119835
0.0120983
0.0120983
0.0122126
0.0122126
0.0123278
0.0123278
0.0124454
0.0124454
0.0125669
0.0125669
0.0126939
0.0126939
0.0128283
0.0128283
0.0129716
0.0129716
0.0131254
0.0131254
0.0132912
0.0132912
0.0134702
0.0134702
0.0136637
0.0136637
0.0138722
0.0138722
0.0140964
0.0140964
0.0143362
0.0143362
0.0145915
0.0145915
0.0148617
0.0148617
0.0151456
0.0151456
0.0154422
0.0154422
0.01575
0.01575
0.0160674
0.0160674
0.0163925
0.0163925
0.0167236
0.0167236
0.0170588
0.0170588
0.0173964
0.0173964
0.0177347
0.0177347
0.018072
0.018072
0.018407
0.018407
0.0187383
0.0187383
0.0190648
0.0190648
0.0193855
0.0193855
0.0196995
0.0196995
0.0200063
0.0200063
0.0203051
0.0203051
0.0205956
0.0205956
0.0208774
0.0208774
0.0211503
0.0211503
0.0214142
0.0214142
0.021669
0.021669
0.0219147
0.0219147
0.0221513
0.0221513
0.0223789
0.0223789
0.0225977
0.0225977
0.0228077
0.0228077
0.0230092
0.0230092
0.0232023
0.0232023
0.0233872
0.0233872
0.0235642
0.0235642
0.0237334
0.0237334
0.0238951
0.0238951
0.0240495
0.0240495
0.0241968
0.0241968
0.0243372
0.0243372
0.0244709
0.0244709
0.0245982
0.0245982
0.0247191
0.0247191
0.024834
0.024834
0.024943
0.024943
0.0250463
0.0250463
0.0251441
0.0251441
0.0252364
0.0252364
0.0253236
0.0253236
0.0254057
0.0254057
0.0254828
0.0254828
0.0255552
0.0255552
0.0256228
0.0256228
0.025686
0.025686
0.0257446
0.0257446
0.0257989
0.0257989
0.0258488
0.0258488
0.0258946
0.0258946
0.0259363
0.0259363
0.0259739
0.0259739
0.0260074
0.0260074
0.0260371
0.0260371
0.0260628
0.0260628
0.0260848
0.0260848
0.0261029
0.0261029
0.0261173
0.0261173
0.026128
0.026128
0.026135
0.026135
0.0261384
0.0261384
0.0261382
0.0261382
0.0261345
0.0261345
0.0261273
0.0261273
0.0261167
0.0261167
0.0261026
0.0261026
0.0260851
0.0260851
0.0260643
0.0260643
0.0260402
0.0260402
0.0260129
0.0260129
0.0259825
0.0259825
0.0259491
0.0259491
0.0259126
0.0259126
0.0258733
0.0258733
0.0258313
0.0258313
0.0257866
0.0257866
0.0257395
0.0257395
0.0256901
0.0256901
0.0256385
0.0256385
0.0255849
0.0255849
0.0255296
0.0255296
0.0254728
0.0254728
0.0254145
0.0254145
0.025355
0.025355
0.0252944
0.0252944
0.025233
0.025233
0.0251707
0.0251707
0.0251076
0.0251076
0.0250439
0.0250439
0.0249796
0.0249796
0.0249146
0.0249146
0.0248489
0.0248489
0.0247825
0.0247825
0.0247155
0.0247155
0.0246479
0.0246479
0.0245796
0.0245796
0.0245108
0.0245108
0.0244416
0.0244416
0.0243722
0.0243722
0.0243026
0.0243026
0.0242331
0.0242331
0.0241638
0.0241638
0.0240951
0.0240951
0.024027
0.024027
0.0239599
0.0239599
0.0238939
0.0238939
0.0238292
0.0238292
0.023766
0.023766
0.0237045
0.0237045
0.0236449
0.0236449
0.0235874
0.0235874
0.0235323
0.0235323
0.0234799
0.0234799
0.0234305
0.0234305
0.0233845
0.0233845
0.0233423
0.0233423
0.0233045
0.0233045
0.0232716
0.0232716
0.0232441
0.0232441
0.0232227
0.0232227
0.023208
0.023208
0.0232007
0.0232007
0.0232013
0.0232013
0.0232106
0.0232106
0.023229
0.023229
0.023257
0.023257
0.0232951
0.0232951
0.0233435
0.0233435
0.0234026
0.0234026
0.0234724
0.0234724
0.0235531
0.0235531
0.0236448
0.0236448
0.0237476
0.0237476
0.0238614
0.0238614
0.0239863
0.0239863
0.0241221
0.0241221
0.0242684
0.0242684
0.0244247
0.0244247
0.0245901
0.0245901
0.0247638
0.0247638
0.0249446
0.0249446
0.0251309
0.0251309
0.0253215
0.0253215
0.0255149
0.0255149
0.0257102
0.0257102
0.0259068
0.0259068
0.0261045
0.0261045
0.0263034
0.0263034
0.0265037
0.0265037
0.0267052
0.0267052
0.0269073
0.0269073
0.0271092
0.0271092
0.0273098
0.0273098
0.0275079
0.0275079
0.027703
0.027703
0.0278945
0.0278945
0.0280824
0.0280824
0.0282668
0.0282668
0.0284484
0.0284484
0.0286285
0.0286285
0.0288088
0.0288088
0.0289914
0.0289914
0.0291783
0.0291783
0.0293709
0.0293709
0.0295697
0.0295697
0.0297742
0.0297742
0.0299829
0.0299829
0.0301929
0.0301929
0.0304002
0.0304002
0.0305996
0.0305996
0.0307859
0.0307859
0.0309557
0.0309557
0.0311085
0.0311086
0.031247
0.031247
0.0313762
0.0313762
0.031503
0.031503
0.0316342
0.0316342
0.031775
0.031775
0.0319282
0.0319282
0.0320943
0.0320943
0.0322732
0.0322732
0.0324654
0.0324654
0.0326734
0.0326734
0.0329018
0.0329018
0.0331548
0.0331548
0.033436
0.033436
0.0337464
0.0337464
0.0340847
0.0340847
0.0344494
0.0344494
0.0348396
0.0348396
0.0352547
0.0352547
0.0356956
0.0356956
0.0361639
0.0361639
0.0366623
0.0366623
0.0371928
0.0371928
0.0377553
0.0377553
0.038347
0.038347
0.0389625
0.0389625
0.0395934
0.0395934
0.0402288
0.0402288
0.040857
0.040857
0.0414676
0.0414676
0.0420508
0.0420508
0.0425947
0.0425947
0.0430827
0.0430827
0.0434965
0.0434965
0.0438223
0.0438223
0.0440557
0.0440557
0.0442015
0.0442015
0.0442711
0.0442711
0.0442841
0.0442841
0.0442699
0.0442699
0.0442573
0.0442573
0.0442619
0.0442619
0.0442846
0.0442846
0.0443252
0.0443252
0.0443871
0.0443871
0.0444715
0.0444715
0.0445754
0.0445754
0.0446971
0.0446971
0.0448389
0.0448389
0.0450058
0.0450058
0.0451997
0.0451997
0.0454178
0.0454178
0.0456548
0.0456548
0.0459006
0.0459006
0.0461343
0.0461343
0.0463232
0.0463232
0.0464368
0.0464368
0.0464623
0.0464623
0.0464128
0.0464128
0.0463155
0.0463155
0.0461936
0.0461936
0.0460602
0.0460602
0.0459256
0.0459256
0.0458016
0.0458017
0.0456961
0.0456962
0.0456115
0.0456116
0.0455467
0.0455468
0.0454989
0.045499
0.0454713
0.0454715
4.38321e-10
4.38321e-10
4.85381e-08
4.85381e-08
1.02466e-06
1.02466e-06
7.94753e-06
7.94753e-06
3.50395e-05
3.50395e-05
0.000102999
0.000102999
0.000222041
0.000222041
0.000386137
0.000386137
0.000584113
0.000584113
0.000806689
0.000806689
0.00104734
0.00104734
0.00130157
0.00130157
0.00156616
0.00156616
0.00183875
0.00183875
0.00211756
0.00211756
0.00240117
0.00240117
0.00268844
0.00268844
0.00297842
0.00297842
0.00327033
0.00327033
0.00356346
0.00356346
0.00385721
0.00385721
0.00415105
0.00415105
0.00444449
0.00444449
0.00473707
0.00473707
0.00502837
0.00502837
0.005318
0.005318
0.00560558
0.00560558
0.00589075
0.00589075
0.00617315
0.00617315
0.00645246
0.00645246
0.00672832
0.00672832
0.00700041
0.00700041
0.0072684
0.0072684
0.00753198
0.00753198
0.00779082
0.00779082
0.00804462
0.00804462
0.00829308
0.00829308
0.0085359
0.0085359
0.00877278
0.00877278
0.00900347
0.00900347
0.00922771
0.00922771
0.00944525
0.00944525
0.00965589
0.00965589
0.00985944
0.00985944
0.0100558
0.0100558
0.0102447
0.0102447
0.0104262
0.0104262
0.0106003
0.0106003
0.0107671
0.0107671
0.0109265
0.0109265
0.0110789
0.0110789
0.0112244
0.0112244
0.0113635
0.0113635
0.0114967
0.0114967
0.0116245
0.0116245
0.0117477
0.0117477
0.011867
0.011867
0.0119836
0.0119836
0.0120983
0.0120983
0.0122126
0.0122126
0.0123278
0.0123278
0.0124454
0.0124454
0.0125669
0.0125669
0.012694
0.012694
0.0128283
0.0128283
0.0129716
0.0129716
0.0131254
0.0131254
0.0132912
0.0132912
0.0134702
0.0134702
0.0136637
0.0136637
0.0138722
0.0138722
0.0140964
0.0140964
0.0143362
0.0143362
0.0145915
0.0145915
0.0148616
0.0148616
0.0151456
0.0151456
0.0154422
0.0154422
0.01575
0.01575
0.0160674
0.0160674
0.0163925
0.0163925
0.0167236
0.0167236
0.0170588
0.0170588
0.0173964
0.0173964
0.0177347
0.0177347
0.018072
0.018072
0.018407
0.018407
0.0187383
0.0187383
0.0190648
0.0190648
0.0193855
0.0193855
0.0196995
0.0196995
0.0200063
0.0200063
0.0203051
0.0203051
0.0205956
0.0205956
0.0208774
0.0208774
0.0211503
0.0211503
0.0214142
0.0214142
0.021669
0.021669
0.0219147
0.0219147
0.0221513
0.0221513
0.0223789
0.0223789
0.0225977
0.0225977
0.0228077
0.0228077
0.0230092
0.0230092
0.0232023
0.0232023
0.0233872
0.0233872
0.0235642
0.0235642
0.0237334
0.0237334
0.0238951
0.0238951
0.0240495
0.0240495
0.0241968
0.0241968
0.0243372
0.0243372
0.0244709
0.0244709
0.0245982
0.0245982
0.0247191
0.0247191
0.024834
0.024834
0.024943
0.024943
0.0250463
0.0250463
0.0251441
0.0251441
0.0252364
0.0252364
0.0253236
0.0253236
0.0254057
0.0254057
0.0254828
0.0254828
0.0255552
0.0255552
0.0256228
0.0256228
0.0256859
0.0256859
0.0257446
0.0257446
0.0257989
0.0257989
0.0258488
0.0258488
0.0258946
0.0258946
0.0259363
0.0259363
0.0259739
0.0259739
0.0260074
0.0260074
0.0260371
0.0260371
0.0260628
0.0260628
0.0260848
0.0260848
0.0261029
0.0261029
0.0261173
0.0261173
0.026128
0.026128
0.026135
0.026135
0.0261384
0.0261384
0.0261382
0.0261382
0.0261345
0.0261345
0.0261273
0.0261273
0.0261166
0.0261166
0.0261026
0.0261026
0.0260851
0.0260851
0.0260643
0.0260643
0.0260402
0.0260402
0.0260129
0.0260129
0.0259825
0.0259825
0.025949
0.025949
0.0259126
0.0259126
0.0258733
0.0258733
0.0258313
0.0258313
0.0257866
0.0257866
0.0257395
0.0257395
0.0256901
0.0256901
0.0256385
0.0256385
0.0255849
0.0255849
0.0255296
0.0255296
0.0254728
0.0254728
0.0254145
0.0254145
0.025355
0.025355
0.0252944
0.0252944
0.025233
0.025233
0.0251707
0.0251707
0.0251076
0.0251076
0.0250439
0.0250439
0.0249796
0.0249796
0.0249145
0.0249145
0.0248489
0.0248489
0.0247825
0.0247825
0.0247155
0.0247155
0.0246479
0.0246479
0.0245796
0.0245796
0.0245108
0.0245108
0.0244416
0.0244416
0.0243722
0.0243722
0.0243026
0.0243026
0.0242331
0.0242331
0.0241638
0.0241638
0.0240951
0.0240951
0.024027
0.024027
0.0239599
0.0239599
0.0238939
0.0238939
0.0238292
0.0238292
0.023766
0.023766
0.0237045
0.0237045
0.0236449
0.0236449
0.0235874
0.0235874
0.0235323
0.0235323
0.0234799
0.0234799
0.0234304
0.0234304
0.0233844
0.0233844
0.0233423
0.0233423
0.0233045
0.0233045
0.0232715
0.0232715
0.0232441
0.0232441
0.0232227
0.0232227
0.023208
0.023208
0.0232006
0.0232006
0.0232013
0.0232013
0.0232105
0.0232105
0.0232289
0.0232289
0.0232569
0.0232569
0.023295
0.023295
0.0233435
0.0233435
0.0234025
0.0234025
0.0234723
0.0234723
0.023553
0.023553
0.0236447
0.0236447
0.0237474
0.0237474
0.0238613
0.0238613
0.0239862
0.0239862
0.024122
0.024122
0.0242683
0.0242683
0.0244245
0.0244245
0.02459
0.02459
0.0247637
0.0247637
0.0249444
0.0249444
0.0251308
0.0251308
0.0253213
0.0253213
0.0255147
0.0255147
0.02571
0.02571
0.0259066
0.0259066
0.0261043
0.0261043
0.0263033
0.0263033
0.0265035
0.0265035
0.026705
0.026705
0.0269072
0.0269072
0.0271091
0.0271091
0.0273096
0.0273096
0.0275078
0.0275078
0.0277028
0.0277028
0.0278944
0.0278944
0.0280822
0.0280822
0.0282667
0.0282667
0.0284483
0.0284483
0.0286284
0.0286284
0.0288087
0.0288087
0.0289913
0.0289913
0.0291782
0.0291782
0.0293707
0.0293707
0.0295695
0.0295695
0.0297741
0.0297741
0.0299828
0.0299828
0.0301929
0.0301929
0.0304002
0.0304002
0.0305995
0.0305995
0.0307859
0.0307859
0.0309557
0.0309557
0.0311086
0.0311086
0.0312471
0.0312471
0.0313763
0.0313763
0.0315031
0.0315031
0.0316343
0.0316343
0.0317752
0.0317752
0.0319283
0.0319283
0.0320945
0.0320945
0.0322734
0.0322734
0.0324655
0.0324655
0.0326736
0.0326736
0.0329019
0.0329019
0.0331549
0.0331549
0.033436
0.033436
0.0337463
0.0337463
0.0340846
0.0340846
0.0344493
0.0344493
0.0348394
0.0348394
0.0352545
0.0352545
0.0356953
0.0356953
0.0361636
0.0361636
0.0366619
0.0366618
0.0371922
0.0371922
0.0377546
0.0377546
0.0383461
0.0383461
0.0389615
0.0389614
0.0395923
0.0395923
0.0402276
0.0402276
0.0408558
0.0408557
0.0414664
0.0414663
0.0420497
0.0420496
0.0425937
0.0425937
0.043082
0.0430819
0.0434961
0.0434961
0.0438222
0.0438222
0.044056
0.044056
0.0442021
0.0442021
0.0442718
0.0442718
0.0442849
0.0442849
0.0442706
0.0442706
0.0442578
0.0442578
0.0442622
0.0442622
0.0442848
0.0442848
0.0443253
0.0443253
0.0443871
0.0443871
0.0444715
0.0444715
0.0445754
0.0445754
0.044697
0.044697
0.0448386
0.0448386
0.0450053
0.0450053
0.0451989
0.0451989
0.0454168
0.0454168
0.0456535
0.0456535
0.0458992
0.0458992
0.0461329
0.0461328
0.0463221
0.046322
0.0464361
0.046436
0.0464621
0.0464621
0.046413
0.046413
0.046316
0.046316
0.0461942
0.0461942
0.0460608
0.0460608
0.0459262
0.0459261
0.0458021
0.045802
0.0456964
0.0456964
0.0456117
0.0456116
0.0455468
0.0455467
0.0454989
0.0454989
0.0454713
0.0454713
0.0454705
0.0454706
0.0454965
0.0454966
0.0455425
0.0455426
0.0456047
0.0456048
0.0456868
0.0456869
0.0457898
0.0457899
0.0459109
0.045911
0.0460428
0.0460429
0.0461726
0.0461726
0.0462883
0.0462883
0.046379
0.046379
0.0464235
0.0464235
0.0463946
0.0463946
0.0462798
0.0462798
0.0460935
0.0460935
0.0458656
0.0458656
0.0456262
0.0456262
0.0453952
0.0453952
0.0451828
0.0451828
0.0449944
0.0449944
0.0448328
0.0448328
0.0446957
0.0446957
0.0445782
0.0445782
0.0444784
0.0444784
0.0443982
0.0443982
0.0443404
0.0443404
0.0443037
0.0443037
0.0442846
0.0442846
0.0442837
0.0442837
0.0442999
0.0442999
0.0443177
0.0443177
0.0443078
0.0443078
0.0442396
0.0442396
0.0440929
0.0440929
0.0438566
0.0438566
0.0435263
0.0435263
0.0431085
0.0431085
0.0426178
0.0426178
0.0420724
0.0420724
0.0414885
0.0414884
0.0408773
0.0408773
0.0402486
0.0402486
0.0396126
0.0396126
0.038981
0.038981
0.0383648
0.0383648
0.0377723
0.0377723
0.0372091
0.0372091
0.0366779
0.0366779
0.0361788
0.0361788
0.0357095
0.0357095
0.0352677
0.0352677
0.0348513
0.0348513
0.0344601
0.0344601
0.0340943
0.0340943
0.0337548
0.0337548
0.0334433
0.0334433
0.0331609
0.0331609
0.0329067
0.0329067
0.0326773
0.0326773
0.0324684
0.0324684
0.0322756
0.0322756
0.032096
0.032096
0.0319289
0.0319289
0.0317746
0.0317746
0.0316326
0.0316326
0.0315
0.0315
0.0313723
0.0313723
0.0312425
0.0312425
0.0311036
0.0311036
0.0309499
0.0309499
0.0307789
0.0307789
0.0305918
0.0305918
0.0303922
0.0303922
0.0301851
0.0301851
0.0299756
0.0299756
0.029768
0.029768
0.0295646
0.0295646
0.0293669
0.0293669
0.029175
0.029175
0.0289883
0.0289883
0.0288056
0.0288056
0.028625
0.028625
0.0284445
0.0284445
0.0282626
0.0282626
0.028078
0.028078
0.0278899
0.0278899
0.0276983
0.0276983
0.0275034
0.0275034
0.0273054
0.0273054
0.027105
0.027105
0.0269035
0.0269035
0.0267018
0.0267018
0.026501
0.026501
0.0263015
0.0263015
0.0261035
0.0261035
0.0259064
0.0259064
0.0257102
0.0257102
0.0255153
0.0255153
0.0253221
0.0253221
0.0251318
0.0251318
0.0249456
0.0249456
0.0247651
0.0247651
0.0245916
0.0245916
0.0244263
0.0244263
0.02427
0.02427
0.0241235
0.0241235
0.0239875
0.0239875
0.0238624
0.0238624
0.0237483
0.0237483
0.0236454
0.0236454
0.0235536
0.0235536
0.0234729
0.0234729
0.0234031
0.0234031
0.0233441
0.0233441
0.0232957
0.0232957
0.0232577
0.0232577
0.0232297
0.0232297
0.0232114
0.0232114
0.0232022
0.0232022
0.0232017
0.0232017
0.023209
0.023209
0.0232237
0.0232237
0.0232451
0.0232451
0.0232726
0.0232726
0.0233056
0.0233056
0.0233434
0.0233434
0.0233856
0.0233856
0.0234316
0.0234316
0.0234811
0.0234811
0.0235335
0.0235335
0.0235887
0.0235887
0.0236462
0.0236462
0.0237058
0.0237058
0.0237672
0.0237672
0.0238304
0.0238304
0.0238951
0.0238951
0.0239611
0.0239611
0.0240282
0.0240282
0.0240962
0.0240962
0.024165
0.024165
0.0242343
0.0242343
0.0243038
0.0243038
0.0243734
0.0243734
0.0244429
0.0244429
0.0245121
0.0245121
0.0245809
0.0245809
0.0246492
0.0246492
0.0247168
0.0247168
0.0247838
0.0247838
0.0248502
0.0248502
0.0249159
0.0249159
0.024981
0.024981
0.0250454
0.0250454
0.0251091
0.0251091
0.0251722
0.0251722
0.0252345
0.0252345
0.025296
0.025296
0.0253565
0.0253565
0.025416
0.025416
0.0254743
0.0254743
0.0255312
0.0255312
0.0255865
0.0255865
0.02564
0.02564
0.0256916
0.0256916
0.0257411
0.0257411
0.0257882
0.0257882
0.0258329
0.0258329
0.0258749
0.0258749
0.0259142
0.0259142
0.0259507
0.0259507
0.0259842
0.0259842
0.0260146
0.0260146
0.0260419
0.0260419
0.026066
0.026066
0.0260868
0.0260868
0.0261043
0.0261043
0.0261185
0.0261185
0.0261292
0.0261292
0.0261365
0.0261365
0.0261402
0.0261402
0.0261405
0.0261405
0.0261371
0.0261371
0.0261302
0.0261302
0.0261196
0.0261196
0.0261052
0.0261052
0.0260872
0.0260872
0.0260653
0.0260653
0.0260395
0.0260395
0.0260099
0.0260099
0.0259764
0.0259764
0.0259388
0.0259388
0.0258973
0.0258973
0.0258516
0.0258516
0.0258016
0.0258016
0.0257474
0.0257474
0.0256888
0.0256888
0.0256257
0.0256257
0.025558
0.025558
0.0254856
0.0254856
0.0254085
0.0254085
0.0253263
0.0253263
0.0252391
0.0252391
0.0251467
0.0251467
0.0250488
0.0250488
0.0249454
0.0249454
0.0248363
0.0248363
0.0247213
0.0247213
0.0246003
0.0246003
0.024473
0.024473
0.0243393
0.0243393
0.0241989
0.0241989
0.0240516
0.0240516
0.0238972
0.0238972
0.0237355
0.0237355
0.0235663
0.0235663
0.0233894
0.0233894
0.0232044
0.0232044
0.0230112
0.0230112
0.0228098
0.0228098
0.0225998
0.0225998
0.022381
0.022381
0.0221535
0.0221535
0.021917
0.021917
0.0216714
0.0216714
0.0214166
0.0214166
0.0211528
0.0211528
0.0208798
0.0208798
0.0205978
0.0205978
0.0203071
0.0203071
0.0200079
0.0200079
0.0197008
0.0197008
0.0193865
0.0193865
0.0190657
0.0190657
0.0187391
0.0187391
0.0184077
0.0184077
0.0180725
0.0180725
0.017735
0.017735
0.0173965
0.0173965
0.0170587
0.0170587
0.0167232
0.0167232
0.0163919
0.0163919
0.0160665
0.0160665
0.015749
0.015749
0.0154411
0.0154411
0.0151443
0.0151443
0.0148603
0.0148603
0.0145901
0.0145901
0.0143347
0.0143347
0.0140947
0.0140947
0.0138705
0.0138705
0.0136619
0.0136619
0.0134684
0.0134684
0.0132892
0.0132892
0.0131234
0.0131234
0.0129695
0.0129695
0.0128262
0.0128262
0.0126919
0.0126919
0.0125648
0.0125648
0.0124432
0.0124432
0.0123256
0.0123256
0.0122104
0.0122104
0.0120961
0.0120961
0.0119813
0.0119813
0.0118649
0.0118649
0.0117456
0.0117456
0.0116225
0.0116225
0.0114948
0.0114948
0.0113617
0.0113617
0.0112227
0.0112227
0.0110773
0.0110773
0.010925
0.010925
0.0107656
0.0107656
0.010599
0.010599
0.010425
0.010425
0.0102436
0.0102436
0.0100548
0.0100548
0.00985856
0.00985856
0.00965511
0.00965511
0.00944456
0.00944456
0.0092271
0.0092271
0.00900296
0.00900296
0.00877234
0.00877234
0.0085355
0.0085355
0.00829273
0.00829273
0.00804432
0.00804432
0.00779055
0.00779055
0.00753174
0.00753174
0.00726819
0.00726819
0.00700022
0.00700022
0.00672814
0.00672814
0.0064523
0.0064523
0.00617302
0.00617302
0.00589065
0.00589065
0.00560551
0.00560551
0.00531796
0.00531796
0.00502836
0.00502836
0.00473707
0.00473707
0.00444451
0.00444451
0.00415109
0.00415109
0.00385725
0.00385725
0.0035635
0.0035635
0.00327037
0.00327037
0.00297847
0.00297847
0.00268849
0.00268849
0.00240122
0.00240122
0.00211761
0.00211761
0.0018388
0.0018388
0.0015662
0.0015662
0.00130161
0.00130161
0.00104738
0.00104738
0.000806724
0.000806724
0.000584142
0.000584142
0.00038616
0.00038616
0.000222057
0.000222057
0.000103008
0.000103008
3.5043e-05
3.5043e-05
7.94833e-06
7.94833e-06
1.02476e-06
1.02476e-06
4.85428e-08
4.85428e-08
4.3836e-10
4.3836e-10
0.0454705
0.0454704
0.0454965
0.0454964
0.0455426
0.0455426
0.0456049
0.0456049
0.0456871
0.0456871
0.0457902
0.0457902
0.0459115
0.0459115
0.0460435
0.0460435
0.0461733
0.0461733
0.0462888
0.0462888
0.0463792
0.0463792
0.0464233
0.0464233
0.0463938
0.0463938
0.0462787
0.0462786
0.0460922
0.0460921
0.0458643
0.0458642
0.0456249
0.0456249
0.0453942
0.0453942
0.045182
0.045182
0.0449939
0.0449939
0.0448326
0.0448326
0.0446956
0.0446956
0.0445782
0.0445782
0.0444784
0.0444784
0.0443983
0.0443983
0.0443405
0.0443405
0.0443039
0.0443039
0.044285
0.044285
0.0442843
0.0442843
0.0443006
0.0443006
0.0443185
0.0443185
0.0443086
0.0443086
0.0442402
0.0442402
0.0440933
0.0440932
0.0438566
0.0438566
0.0435259
0.0435259
0.0431078
0.0431078
0.0426169
0.0426169
0.0420713
0.0420713
0.0414873
0.0414872
0.0408761
0.0408761
0.0402474
0.0402474
0.0396115
0.0396115
0.03898
0.03898
0.0383639
0.0383639
0.0377716
0.0377716
0.0372086
0.0372086
0.0366775
0.0366775
0.0361785
0.0361785
0.0357093
0.0357093
0.0352675
0.0352675
0.0348512
0.0348512
0.03446
0.03446
0.0340942
0.0340942
0.0337548
0.0337548
0.0334433
0.0334433
0.0331609
0.0331609
0.0329068
0.0329067
0.0326774
0.0326774
0.0324685
0.0324685
0.0322758
0.0322758
0.0320962
0.0320962
0.0319291
0.0319291
0.0317748
0.0317748
0.0316327
0.0316327
0.0315002
0.0315002
0.0313724
0.0313724
0.0312426
0.0312426
0.0311036
0.0311036
0.0309499
0.0309499
0.0307789
0.0307789
0.0305917
0.0305917
0.0303921
0.0303921
0.030185
0.030185
0.0299755
0.0299755
0.0297679
0.0297679
0.0295645
0.0295645
0.0293668
0.0293668
0.0291749
0.0291749
0.0289882
0.0289882
0.0288054
0.0288054
0.0286248
0.0286248
0.0284444
0.0284444
0.0282625
0.0282625
0.0280779
0.0280779
0.0278898
0.0278898
0.0276982
0.0276982
0.0275033
0.0275033
0.0273052
0.0273052
0.0271048
0.0271048
0.0269033
0.0269033
0.0267017
0.0267017
0.0265008
0.0265008
0.0263014
0.0263014
0.0261033
0.0261033
0.0259062
0.0259062
0.0257101
0.0257101
0.0255151
0.0255151
0.025322
0.025322
0.0251316
0.0251316
0.0249455
0.0249455
0.024765
0.024765
0.0245915
0.0245915
0.0244261
0.0244261
0.0242699
0.0242699
0.0241234
0.0241234
0.0239874
0.0239874
0.0238623
0.0238623
0.0237482
0.0237482
0.0236453
0.0236453
0.0235535
0.0235535
0.0234728
0.0234728
0.023403
0.023403
0.023344
0.023344
0.0232956
0.0232956
0.0232576
0.0232576
0.0232296
0.0232296
0.0232113
0.0232113
0.0232022
0.0232022
0.0232016
0.0232016
0.023209
0.023209
0.0232237
0.0232237
0.0232451
0.0232451
0.0232726
0.0232726
0.0233056
0.0233056
0.0233434
0.0233434
0.0233856
0.0233856
0.0234316
0.0234316
0.023481
0.023481
0.0235335
0.0235335
0.0235887
0.0235887
0.0236462
0.0236462
0.0237057
0.0237057
0.0237672
0.0237672
0.0238304
0.0238304
0.0238951
0.0238951
0.023961
0.023961
0.0240282
0.0240282
0.0240962
0.0240962
0.024165
0.024165
0.0242342
0.0242342
0.0243038
0.0243038
0.0243734
0.0243734
0.0244429
0.0244429
0.0245121
0.0245121
0.0245809
0.0245809
0.0246492
0.0246492
0.0247168
0.0247168
0.0247838
0.0247838
0.0248502
0.0248502
0.0249159
0.0249159
0.0249809
0.0249809
0.0250454
0.0250454
0.0251091
0.0251091
0.0251722
0.0251722
0.0252345
0.0252345
0.025296
0.025296
0.0253565
0.0253565
0.025416
0.025416
0.0254743
0.0254743
0.0255312
0.0255312
0.0255865
0.0255865
0.02564
0.02564
0.0256916
0.0256916
0.0257411
0.0257411
0.0257882
0.0257882
0.0258329
0.0258329
0.0258749
0.0258749
0.0259142
0.0259142
0.0259507
0.0259507
0.0259842
0.0259842
0.0260146
0.0260146
0.0260419
0.0260419
0.026066
0.026066
0.0260868
0.0260868
0.0261043
0.0261043
0.0261185
0.0261185
0.0261292
0.0261292
0.0261365
0.0261365
0.0261402
0.0261402
0.0261405
0.0261405
0.0261371
0.0261371
0.0261302
0.0261302
0.0261196
0.0261196
0.0261052
0.0261052
0.0260872
0.0260872
0.0260653
0.0260653
0.0260395
0.0260395
0.0260099
0.0260099
0.0259764
0.0259764
0.0259388
0.0259388
0.0258973
0.0258973
0.0258516
0.0258516
0.0258016
0.0258016
0.0257474
0.0257474
0.0256888
0.0256888
0.0256257
0.0256257
0.025558
0.025558
0.0254856
0.0254856
0.0254084
0.0254084
0.0253263
0.0253263
0.0252391
0.0252391
0.0251467
0.0251467
0.0250488
0.0250488
0.0249454
0.0249454
0.0248363
0.0248363
0.0247213
0.0247213
0.0246003
0.0246003
0.024473
0.024473
0.0243393
0.0243393
0.0241989
0.0241989
0.0240516
0.0240516
0.0238972
0.0238972
0.0237355
0.0237355
0.0235663
0.0235663
0.0233894
0.0233894
0.0232044
0.0232044
0.0230112
0.0230112
0.0228098
0.0228098
0.0225998
0.0225998
0.022381
0.022381
0.0221535
0.0221535
0.021917
0.021917
0.0216714
0.0216714
0.0214166
0.0214166
0.0211528
0.0211528
0.0208798
0.0208798
0.0205978
0.0205978
0.0203071
0.0203071
0.0200079
0.0200079
0.0197008
0.0197008
0.0193865
0.0193865
0.0190657
0.0190657
0.0187391
0.0187391
0.0184076
0.0184076
0.0180725
0.0180725
0.017735
0.017735
0.0173965
0.0173965
0.0170587
0.0170587
0.0167232
0.0167232
0.0163919
0.0163919
0.0160665
0.0160665
0.015749
0.015749
0.0154411
0.0154411
0.0151443
0.0151443
0.0148603
0.0148603
0.0145901
0.0145901
0.0143347
0.0143347
0.0140947
0.0140947
0.0138705
0.0138705
0.0136619
0.0136619
0.0134684
0.0134684
0.0132892
0.0132892
0.0131234
0.0131234
0.0129695
0.0129695
0.0128262
0.0128262
0.0126919
0.0126919
0.0125648
0.0125648
0.0124432
0.0124432
0.0123256
0.0123256
0.0122104
0.0122104
0.0120961
0.0120961
0.0119813
0.0119813
0.0118649
0.0118649
0.0117456
0.0117456
0.0116225
0.0116225
0.0114948
0.0114948
0.0113617
0.0113617
0.0112227
0.0112227
0.0110773
0.0110773
0.010925
0.010925
0.0107656
0.0107656
0.010599
0.010599
0.0104251
0.0104251
0.0102436
0.0102436
0.0100548
0.0100548
0.00985857
0.00985857
0.00965512
0.00965512
0.00944456
0.00944456
0.00922711
0.00922711
0.00900296
0.00900296
0.00877234
0.00877234
0.0085355
0.0085355
0.00829273
0.00829273
0.00804432
0.00804432
0.00779056
0.00779056
0.00753175
0.00753175
0.0072682
0.0072682
0.00700022
0.00700022
0.00672814
0.00672814
0.0064523
0.0064523
0.00617302
0.00617302
0.00589065
0.00589065
0.00560551
0.00560551
0.00531796
0.00531796
0.00502836
0.00502836
0.00473707
0.00473707
0.00444451
0.00444451
0.00415109
0.00415109
0.00385725
0.00385725
0.0035635
0.0035635
0.00327037
0.00327037
0.00297847
0.00297847
0.00268849
0.00268849
0.00240122
0.00240122
0.00211761
0.00211761
0.0018388
0.0018388
0.0015662
0.0015662
0.00130161
0.00130161
0.00104738
0.00104738
0.000806724
0.000806724
0.000584142
0.000584142
0.00038616
0.00038616
0.000222057
0.000222057
0.000103008
0.000103008
3.5043e-05
3.5043e-05
7.94833e-06
7.94833e-06
1.02476e-06
1.02476e-06
4.85428e-08
4.85428e-08
4.38359e-10
4.38359e-10
)
;

boundaryField
{
    walls
    {
        type            nutUWallFunction;
        blending        stepwise;
        Cmu             0.09;
        kappa           0.41;
        E               9.8;
        value           uniform 0;
    }
    inlet
    {
        type            cyclic;
    }
    outlet
    {
        type            cyclic;
    }
    sides
    {
        type            empty;
    }
}


// ************************************************************************* //
