/*--------------------------------*- C++ -*----------------------------------*\
| =========                 |                                                 |
| \\      /  F ield         | OpenFOAM: The Open Source CFD Toolbox           |
|  \\    /   O peration     | Version:  2012                                  |
|   \\  /    A nd           | Website:  www.openfoam.com                      |
|    \\/     M anipulation  |                                                 |
\*---------------------------------------------------------------------------*/
FoamFile
{
    version     2.0;
    format      ascii;
    class       volScalarField;
    location    "10900";
    object      omega;
}
// * * * * * * * * * * * * * * * * * * * * * * * * * * * * * * * * * * * * * //

dimensions      [0 0 -1 0 0 0 0];


internalField   nonuniform List<scalar> 
2560
(
1.52415e+06
1.52415e+06
265123
265123
89665.2
89665.2
41885.6
41885.6
23381.5
23381.5
14825.6
14825.6
10483.8
10483.8
8080.98
8080.98
6623.91
6623.91
5665.99
5665.99
4994.23
4994.23
4498.95
4498.95
4119.27
4119.27
3819.09
3819.09
3575.81
3575.81
3374.61
3374.61
3205.37
3205.37
3060.95
3060.95
2936.18
2936.18
2827.21
2827.21
2731.12
2731.12
2645.64
2645.64
2569
2569
2499.76
2499.76
2436.78
2436.78
2379.09
2379.09
2325.91
2325.91
2276.58
2276.58
2230.53
2230.53
2187.28
2187.28
2146.4
2146.4
2107.55
2107.55
2070.39
2070.39
2034.64
2034.64
2000.06
2000.06
1966.43
1966.43
1933.54
1933.54
1901.23
1901.23
1869.34
1869.34
1837.72
1837.72
1806.26
1806.26
1774.85
1774.85
1743.41
1743.41
1711.85
1711.85
1680.11
1680.11
1648.15
1648.15
1615.94
1615.94
1583.44
1583.44
1550.66
1550.66
1517.6
1517.6
1484.28
1484.28
1450.74
1450.74
1417.01
1417.01
1383.17
1383.17
1349.27
1349.27
1315.39
1315.39
1281.64
1281.64
1248.1
1248.1
1214.88
1214.88
1182.09
1182.09
1149.85
1149.85
1118.26
1118.26
1087.45
1087.45
1057.52
1057.52
1028.58
1028.58
1000.71
1000.71
974.005
974.005
948.517
948.517
924.298
924.298
901.378
901.378
879.765
879.765
859.451
859.451
840.409
840.409
822.589
822.589
805.929
805.929
790.354
790.354
775.779
775.779
762.113
762.113
749.26
749.26
737.122
737.122
725.606
725.606
714.619
714.619
704.075
704.075
693.896
693.896
684.01
684.01
674.353
674.353
664.87
664.87
655.514
655.514
646.246
646.246
637.031
637.031
627.846
627.846
618.669
618.669
609.487
609.487
600.288
600.288
591.067
591.067
581.821
581.821
572.549
572.549
563.253
563.253
553.937
553.937
544.605
544.605
535.265
535.265
525.922
525.922
516.583
516.583
507.258
507.258
497.952
497.952
488.674
488.674
479.432
479.432
470.233
470.233
461.085
461.085
451.993
451.993
442.966
442.966
434.008
434.008
425.127
425.127
416.326
416.326
407.613
407.613
398.99
398.99
390.463
390.463
382.035
382.035
373.71
373.71
365.49
365.49
357.38
357.38
349.38
349.38
341.494
341.494
333.722
333.722
326.067
326.067
318.53
318.53
311.111
311.111
303.811
303.811
296.63
296.63
289.57
289.57
282.629
282.629
275.808
275.808
269.106
269.106
262.524
262.524
256.06
256.06
249.715
249.715
243.487
243.487
237.376
237.376
231.381
231.381
225.501
225.501
219.735
219.735
214.082
214.082
208.541
208.541
203.111
203.111
197.791
197.791
192.58
192.58
187.476
187.476
182.479
182.479
177.587
177.587
172.8
172.8
168.116
168.116
163.534
163.534
159.054
159.054
154.674
154.674
150.394
150.394
146.212
146.212
142.128
142.128
138.141
138.141
134.249
134.249
130.452
130.452
126.75
126.75
123.14
123.14
119.622
119.622
116.194
116.194
112.856
112.856
109.604
109.604
106.438
106.438
103.356
103.356
100.355
100.355
97.4344
97.4344
94.5911
94.5911
91.8234
91.8234
89.1293
89.1293
86.5071
86.5071
83.955
83.955
81.4715
81.4715
79.0551
79.0551
76.7045
76.7045
74.4186
74.4186
72.1959
72.1959
70.0355
70.0355
67.9361
67.9361
65.8965
65.8965
63.9157
63.9157
61.9922
61.9922
60.125
60.125
58.3126
58.3126
56.5539
56.5539
54.8475
54.8475
53.1922
53.1922
51.5869
51.5869
50.0305
50.0305
48.5221
48.5221
47.0608
47.0608
45.6458
45.6458
44.2764
44.2764
42.9519
42.9519
41.6717
41.6717
40.4351
40.4351
39.2416
39.2416
38.0905
38.0905
36.9812
36.9812
35.9129
35.9129
34.8848
34.8848
33.896
33.896
32.9454
32.9454
32.0319
32.0319
31.1542
31.1542
30.3112
30.3112
29.5016
29.5016
28.7242
28.7242
27.9778
27.9778
27.2614
27.2614
26.5737
26.5737
25.9134
25.9134
25.2793
25.2793
24.6699
24.6699
24.0834
24.0834
23.5183
23.5183
22.9726
22.9726
22.4443
22.4443
21.9317
21.9317
21.433
21.433
20.947
20.947
20.4729
20.4729
20.0103
20.0103
19.5589
19.5589
19.1185
19.1185
18.6889
18.6889
18.2694
18.2694
17.859
17.859
17.4568
17.4568
17.0618
17.0618
16.6735
16.6735
16.2914
16.2914
15.9153
15.9153
15.5452
15.5452
15.1814
15.1814
14.8245
14.8245
14.4753
14.4753
14.1346
14.1346
13.8034
13.8034
13.482
13.482
13.1705
13.1705
12.8683
12.8683
12.5745
12.5745
12.2876
12.2876
12.0056
12.0056
11.7261
11.7261
11.4471
11.4471
11.1671
11.1671
10.8861
10.8861
10.6052
10.6052
10.3263
10.3263
10.0517
10.0517
9.78362
9.78362
9.52358
9.52358
9.27209
9.27209
9.02899
9.02899
8.79385
8.79385
8.5665
8.5665
8.34736
8.34736
8.13731
8.13731
7.93717
7.93717
7.74746
7.74747
7.56809
7.56809
7.39843
7.39843
7.23788
7.23788
7.08594
7.08594
6.94234
6.94234
6.80706
6.80706
6.68035
6.68035
6.5626
6.56261
6.45417
6.45417
6.35498
6.35498
6.26451
6.26451
6.18182
6.18182
6.10551
6.10551
6.03377
6.03378
5.96474
5.96474
5.89678
5.89678
5.82842
5.82842
5.75788
5.75788
5.68275
5.68275
5.60046
5.60046
5.50924
5.50924
5.40871
5.40872
5.29986
5.29986
5.18452
5.18452
5.06554
5.06554
4.94682
4.94682
4.83189
4.83189
4.72254
4.72254
4.61874
4.61874
4.52034
4.52034
4.4276
4.4276
4.34055
4.34056
4.25879
4.25879
4.18205
4.18205
4.11054
4.11054
4.0447
4.0447
3.98469
3.98469
3.93023
3.93024
3.88084
3.88084
3.83562
3.83562
3.79273
3.79273
3.74936
3.74937
3.70298
3.70298
3.6527
3.6527
3.59988
3.59988
3.54705
3.54705
3.4963
3.4963
3.44883
3.44883
3.40556
3.40556
3.36751
3.36752
3.33537
3.33537
3.30939
3.30939
3.28958
3.28959
3.27586
3.27587
3.26863
3.26864
1.52415e+06
1.52415e+06
265123
265123
89665.2
89665.2
41885.6
41885.6
23381.5
23381.5
14825.6
14825.6
10483.8
10483.8
8080.98
8080.98
6623.91
6623.91
5665.99
5665.99
4994.23
4994.23
4498.95
4498.95
4119.27
4119.27
3819.09
3819.09
3575.81
3575.81
3374.61
3374.61
3205.37
3205.37
3060.95
3060.95
2936.18
2936.18
2827.21
2827.21
2731.12
2731.12
2645.64
2645.64
2569
2569
2499.76
2499.76
2436.77
2436.77
2379.09
2379.09
2325.91
2325.91
2276.58
2276.58
2230.53
2230.53
2187.28
2187.28
2146.4
2146.4
2107.55
2107.55
2070.39
2070.39
2034.64
2034.64
2000.06
2000.06
1966.43
1966.43
1933.54
1933.54
1901.23
1901.23
1869.34
1869.34
1837.72
1837.72
1806.26
1806.26
1774.85
1774.85
1743.41
1743.41
1711.85
1711.85
1680.11
1680.11
1648.15
1648.15
1615.94
1615.94
1583.44
1583.44
1550.66
1550.66
1517.6
1517.6
1484.28
1484.28
1450.74
1450.74
1417.01
1417.01
1383.17
1383.17
1349.27
1349.27
1315.39
1315.39
1281.64
1281.64
1248.1
1248.1
1214.88
1214.88
1182.09
1182.09
1149.85
1149.85
1118.26
1118.26
1087.45
1087.45
1057.52
1057.52
1028.58
1028.58
1000.71
1000.71
974.005
974.005
948.517
948.517
924.299
924.299
901.378
901.378
879.765
879.765
859.452
859.452
840.409
840.409
822.589
822.589
805.929
805.929
790.354
790.354
775.779
775.779
762.113
762.113
749.26
749.26
737.122
737.122
725.606
725.606
714.619
714.619
704.075
704.075
693.896
693.896
684.01
684.01
674.353
674.353
664.87
664.87
655.514
655.514
646.246
646.246
637.031
637.031
627.846
627.846
618.669
618.669
609.487
609.487
600.288
600.288
591.067
591.067
581.821
581.821
572.549
572.549
563.253
563.253
553.937
553.937
544.605
544.605
535.265
535.265
525.922
525.922
516.583
516.583
507.258
507.258
497.952
497.952
488.674
488.674
479.432
479.432
470.233
470.233
461.085
461.085
451.993
451.993
442.966
442.966
434.008
434.008
425.126
425.126
416.326
416.326
407.613
407.613
398.99
398.99
390.463
390.463
382.035
382.035
373.71
373.71
365.49
365.49
357.38
357.38
349.38
349.38
341.494
341.494
333.722
333.722
326.067
326.067
318.53
318.53
311.111
311.111
303.811
303.811
296.63
296.63
289.57
289.57
282.629
282.629
275.808
275.808
269.106
269.106
262.524
262.524
256.06
256.06
249.715
249.715
243.487
243.487
237.376
237.376
231.381
231.381
225.501
225.501
219.735
219.735
214.082
214.082
208.541
208.541
203.111
203.111
197.791
197.791
192.58
192.58
187.476
187.476
182.479
182.479
177.587
177.587
172.8
172.8
168.116
168.116
163.534
163.534
159.054
159.054
154.674
154.674
150.394
150.394
146.212
146.212
142.128
142.128
138.141
138.141
134.249
134.249
130.452
130.452
126.75
126.75
123.14
123.14
119.622
119.622
116.194
116.194
112.856
112.856
109.604
109.604
106.438
106.438
103.356
103.356
100.355
100.355
97.4344
97.4344
94.5911
94.5911
91.8234
91.8234
89.1293
89.1293
86.5071
86.5071
83.955
83.955
81.4714
81.4714
79.0551
79.0551
76.7045
76.7045
74.4185
74.4185
72.1959
72.1959
70.0355
70.0355
67.9361
67.9361
65.8965
65.8965
63.9157
63.9157
61.9922
61.9922
60.125
60.125
58.3126
58.3126
56.5539
56.5539
54.8475
54.8475
53.1922
53.1922
51.5869
51.5869
50.0305
50.0305
48.5221
48.5221
47.0608
47.0608
45.6458
45.6458
44.2764
44.2764
42.9519
42.9519
41.6716
41.6716
40.4351
40.4351
39.2415
39.2416
38.0905
38.0905
36.9812
36.9812
35.9129
35.9129
34.8847
34.8847
33.8959
33.8959
32.9453
32.9453
32.0318
32.0318
31.1542
31.1542
30.3112
30.3112
29.5015
29.5015
28.7241
28.7241
27.9777
27.9777
27.2613
27.2613
26.5736
26.5736
25.9133
25.9133
25.2792
25.2792
24.6698
24.6698
24.0833
24.0833
23.5182
23.5182
22.9724
22.9725
22.4442
22.4442
21.9315
21.9315
21.4329
21.4329
20.9469
20.9469
20.4728
20.4728
20.0101
20.0101
19.5587
19.5587
19.1184
19.1184
18.6888
18.6888
18.2693
18.2693
17.8589
17.8589
17.4567
17.4567
17.0617
17.0617
16.6734
16.6734
16.2913
16.2913
15.9152
15.9152
15.5451
15.5451
15.1814
15.1814
14.8244
14.8244
14.4752
14.4752
14.1346
14.1346
13.8033
13.8033
13.4819
13.4819
13.1704
13.1704
12.8683
12.8683
12.5745
12.5745
12.2876
12.2876
12.0055
12.0055
11.7261
11.7261
11.4471
11.4471
11.1671
11.1671
10.8862
10.8862
10.6052
10.6052
10.3263
10.3263
10.0517
10.0517
9.78368
9.78369
9.52365
9.52365
9.27216
9.27216
9.02906
9.02907
8.79392
8.79392
8.56656
8.56657
8.34742
8.34743
8.13736
8.13736
7.93721
7.93721
7.74749
7.7475
7.5681
7.56811
7.39844
7.39845
7.23789
7.23789
7.08594
7.08594
6.94233
6.94233
6.80704
6.80705
6.68032
6.68033
6.56256
6.56256
6.45411
6.45411
6.35488
6.35489
6.26439
6.26439
6.18167
6.18168
6.10534
6.10535
6.0336
6.0336
5.96456
5.96456
5.8966
5.8966
5.82826
5.82826
5.75774
5.75774
5.68264
5.68264
5.6004
5.60041
5.50922
5.50923
5.40875
5.40876
5.29994
5.29994
5.18462
5.18463
5.06565
5.06566
4.94691
4.94692
4.83196
4.83197
4.72259
4.7226
4.61878
4.61878
4.52036
4.52037
4.42762
4.42763
4.34057
4.34057
4.25879
4.2588
4.18205
4.18205
4.11052
4.11052
4.04466
4.04466
3.98463
3.98463
3.93015
3.93015
3.88073
3.88073
3.8355
3.8355
3.79261
3.79261
3.74927
3.74927
3.70292
3.70292
3.65268
3.65269
3.5999
3.59991
3.5471
3.5471
3.49636
3.49637
3.44889
3.44889
3.40561
3.40561
3.36755
3.36755
3.33539
3.33539
3.3094
3.3094
3.28959
3.28959
3.27587
3.27586
3.26863
3.26863
3.26858
3.26859
3.27572
3.27572
3.28933
3.28934
3.30896
3.30897
3.33476
3.33477
3.36673
3.36674
3.40458
3.40458
3.44765
3.44765
3.49483
3.49483
3.54507
3.54507
3.59734
3.59734
3.64972
3.64972
3.69969
3.6997
3.74596
3.74596
3.78953
3.78953
3.8329
3.8329
3.87865
3.87865
3.92855
3.92855
3.98347
3.98347
4.04392
4.04392
4.1102
4.1102
4.18209
4.18209
4.25916
4.25916
4.34126
4.34126
4.42866
4.42866
4.52175
4.52175
4.62048
4.62048
4.72461
4.72462
4.8343
4.83431
4.94956
4.94957
5.06866
5.06866
5.18795
5.18795
5.30339
5.30339
5.41207
5.41207
5.51215
5.51215
5.60272
5.60272
5.68443
5.68443
5.75919
5.75919
5.82954
5.82954
5.89782
5.89782
5.96574
5.96574
6.03474
6.03474
6.10643
6.10643
6.18268
6.18268
6.2653
6.2653
6.3557
6.3557
6.45483
6.45483
6.5632
6.5632
6.68086
6.68086
6.80746
6.80747
6.94261
6.94261
7.08604
7.08604
7.23784
7.23784
7.39824
7.39825
7.56771
7.56771
7.74689
7.74689
7.9364
7.9364
8.13634
8.13634
8.34622
8.34622
8.56524
8.56524
8.79253
8.79253
9.02755
9.02755
9.27046
9.27046
9.52171
9.52171
9.78145
9.78145
10.0491
10.0492
10.3235
10.3235
10.6024
10.6024
10.8832
10.8832
11.1639
11.1639
11.4435
11.4435
11.7223
11.7223
12.0018
12.0018
12.284
12.284
12.5713
12.5713
12.8656
12.8656
13.1684
13.1684
13.4804
13.4804
13.8022
13.8022
14.1335
14.1335
14.4741
14.4741
14.8232
14.8232
15.1799
15.1799
15.5436
15.5436
15.9135
15.9135
16.2895
16.2895
16.6716
16.6716
17.06
17.06
17.455
17.455
17.8574
17.8574
18.2681
18.2681
18.688
18.688
19.1181
19.1181
19.559
19.559
20.011
20.011
20.4742
20.4742
20.9486
20.9486
21.4348
21.4348
21.9336
21.9336
22.4463
22.4463
22.9747
22.9747
23.5206
23.5206
24.0858
24.0858
24.6723
24.6723
25.2816
25.2817
25.9155
25.9155
26.5754
26.5754
27.2628
27.2628
27.9789
27.9789
28.725
28.725
29.5023
29.5023
30.3118
30.3118
31.1548
31.1548
32.0325
32.0325
32.9461
32.9461
33.8967
33.8967
34.8856
34.8856
35.9139
35.9139
36.9823
36.9823
38.0917
38.0917
39.2428
39.2428
40.4363
40.4363
41.6729
41.6729
42.9531
42.9531
44.2777
44.2777
45.6471
45.6471
47.0621
47.0621
48.5234
48.5234
50.0319
50.0319
51.5883
51.5883
53.1937
53.1937
54.849
54.849
56.5554
56.5554
58.314
58.314
60.1263
60.1263
61.9935
61.9935
63.9168
63.9168
65.8976
65.8976
67.9372
67.9372
70.0365
70.0365
72.197
72.197
74.4196
74.4196
76.7056
76.7056
79.0562
79.0562
81.4727
81.4727
83.9562
83.9562
86.5083
86.5083
89.1305
89.1305
91.8245
91.8245
94.5923
94.5923
97.4357
97.4357
100.357
100.357
103.357
103.357
106.44
106.44
109.606
109.606
112.857
112.857
116.196
116.196
119.624
119.624
123.142
123.142
126.751
126.751
130.454
130.454
134.251
134.251
138.142
138.142
142.129
142.129
146.214
146.214
150.395
150.395
154.676
154.676
159.056
159.056
163.536
163.536
168.117
168.117
172.801
172.801
177.589
177.589
182.48
182.48
187.477
187.477
192.581
192.581
197.792
197.792
203.113
203.113
208.543
208.543
214.084
214.084
219.737
219.737
225.504
225.504
231.385
231.385
237.38
237.38
243.492
243.492
249.72
249.72
256.066
256.066
262.53
262.53
269.112
269.112
275.814
275.814
282.635
282.635
289.576
289.576
296.638
296.638
303.819
303.819
311.119
311.119
318.538
318.538
326.076
326.076
333.731
333.731
341.502
341.502
349.387
349.387
357.386
357.386
365.496
365.496
373.714
373.714
382.038
382.038
390.464
390.464
398.989
398.989
407.609
407.609
416.321
416.321
425.119
425.119
434
434
442.957
442.957
451.984
451.984
461.076
461.076
470.224
470.224
479.423
479.423
488.665
488.665
497.943
497.943
507.247
507.247
516.571
516.571
525.909
525.909
535.252
535.252
544.593
544.593
553.925
553.925
563.244
563.244
572.541
572.541
581.814
581.814
591.061
591.061
600.28
600.28
609.473
609.473
618.647
618.647
627.811
627.811
636.985
636.985
646.19
646.19
655.456
655.456
664.809
664.809
674.289
674.289
683.942
683.942
693.823
693.823
703.995
703.995
714.531
714.531
725.511
725.511
737.021
737.021
749.153
749.153
762.003
762.003
775.667
775.667
790.242
790.242
805.817
805.817
822.478
822.478
840.298
840.298
859.341
859.341
879.654
879.654
901.267
901.267
924.188
924.188
948.408
948.408
973.897
973.897
1000.61
1000.61
1028.48
1028.48
1057.42
1057.42
1087.36
1087.36
1118.17
1118.17
1149.75
1149.75
1182
1182
1214.79
1214.79
1248.02
1248.02
1281.57
1281.57
1315.34
1315.34
1349.22
1349.22
1383.14
1383.14
1417
1417
1450.75
1450.75
1484.31
1484.31
1517.64
1517.64
1550.71
1550.71
1583.51
1583.51
1616.03
1616.03
1648.26
1648.26
1680.23
1680.23
1711.98
1711.98
1743.56
1743.56
1775.01
1775.01
1806.43
1806.43
1837.9
1837.9
1869.52
1869.52
1901.42
1901.42
1933.73
1933.73
1966.62
1966.62
2000.25
2000.25
2034.83
2034.83
2070.57
2070.57
2107.73
2107.73
2146.58
2146.58
2187.45
2187.45
2230.7
2230.7
2276.76
2276.76
2326.09
2326.09
2379.27
2379.27
2436.96
2436.96
2499.94
2499.94
2569.18
2569.18
2645.81
2645.81
2731.28
2731.28
2827.37
2827.37
2936.33
2936.33
3061.1
3061.1
3205.51
3205.51
3374.75
3374.75
3575.95
3575.95
3819.22
3819.22
4119.4
4119.4
4499.09
4499.09
4994.36
4994.36
5666.12
5666.12
6624.03
6624.03
8081.08
8081.08
10483.9
10483.9
14825.7
14825.7
23381.5
23381.5
41885.6
41885.6
89665.4
89665.4
265123
265123
1.52416e+06
1.52416e+06
3.26858
3.26858
3.27572
3.27572
3.28934
3.28934
3.30898
3.30898
3.33479
3.33479
3.36677
3.36677
3.40462
3.40463
3.4477
3.44771
3.49489
3.49489
3.54511
3.54512
3.59736
3.59737
3.6497
3.64971
3.69963
3.69964
3.74586
3.74586
3.78941
3.78941
3.83278
3.83278
3.87855
3.87855
3.92846
3.92847
3.98341
3.98341
4.04389
4.04389
4.11018
4.11019
4.18209
4.18209
4.25917
4.25917
4.34127
4.34128
4.42868
4.42869
4.52177
4.52178
4.62052
4.62053
4.72466
4.72467
4.83437
4.83438
4.94966
4.94967
5.06876
5.06877
5.18805
5.18806
5.30347
5.30347
5.41211
5.41211
5.51214
5.51214
5.60266
5.60266
5.68432
5.68432
5.75905
5.75906
5.82938
5.82938
5.89765
5.89765
5.96556
5.96556
6.03456
6.03456
6.10627
6.10627
6.18254
6.18254
6.26518
6.26518
6.35561
6.35561
6.45477
6.45477
6.56316
6.56316
6.68084
6.68084
6.80745
6.80746
6.9426
6.9426
7.08604
7.08605
7.23784
7.23785
7.39826
7.39826
7.56773
7.56774
7.74692
7.74693
7.93644
7.93644
8.13639
8.1364
8.34628
8.34628
8.56531
8.56531
8.7926
8.79261
9.02762
9.02763
9.27053
9.27054
9.52178
9.52178
9.78151
9.78151
10.0492
10.0492
10.3236
10.3236
10.6024
10.6024
10.8832
10.8832
11.1639
11.1639
11.4435
11.4435
11.7223
11.7223
12.0018
12.0018
12.2839
12.284
12.5712
12.5712
12.8656
12.8656
13.1683
13.1683
13.4804
13.4804
13.8021
13.8021
14.1335
14.1335
14.474
14.474
14.8231
14.8231
15.1799
15.1799
15.5435
15.5435
15.9134
15.9134
16.2894
16.2894
16.6715
16.6715
17.0599
17.0599
17.4549
17.4549
17.8573
17.8573
18.268
18.268
18.6879
18.6879
19.1179
19.1179
19.5589
19.5589
20.0109
20.0109
20.474
20.474
20.9484
20.9484
21.4346
21.4346
21.9335
21.9335
22.4462
22.4462
22.9746
22.9746
23.5205
23.5205
24.0857
24.0857
24.6722
24.6722
25.2815
25.2815
25.9154
25.9154
26.5753
26.5753
27.2627
27.2627
27.9788
27.9788
28.7249
28.7249
29.5022
29.5022
30.3118
30.3118
31.1548
31.1548
32.0324
32.0324
32.946
32.946
33.8967
33.8967
34.8856
34.8856
35.9138
35.9138
36.9822
36.9822
38.0916
38.0916
39.2428
39.2428
40.4363
40.4363
41.6728
41.6728
42.9531
42.9531
44.2777
44.2777
45.6471
45.6471
47.0621
47.0621
48.5234
48.5234
50.0318
50.0318
51.5883
51.5883
53.1937
53.1937
54.849
54.849
56.5554
56.5554
58.314
58.314
60.1263
60.1263
61.9935
61.9935
63.9168
63.9168
65.8976
65.8976
67.9371
67.9372
70.0365
70.0365
72.197
72.197
74.4196
74.4196
76.7056
76.7056
79.0562
79.0562
81.4727
81.4727
83.9562
83.9562
86.5083
86.5083
89.1305
89.1305
91.8245
91.8245
94.5923
94.5923
97.4357
97.4357
100.357
100.357
103.357
103.357
106.44
106.44
109.606
109.606
112.857
112.857
116.196
116.196
119.624
119.624
123.142
123.142
126.751
126.751
130.454
130.454
134.251
134.251
138.142
138.142
142.129
142.129
146.214
146.214
150.395
150.395
154.676
154.676
159.056
159.056
163.536
163.536
168.117
168.117
172.801
172.801
177.589
177.589
182.48
182.48
187.477
187.477
192.581
192.581
197.792
197.792
203.113
203.113
208.543
208.543
214.084
214.084
219.737
219.737
225.504
225.504
231.385
231.385
237.38
237.38
243.492
243.492
249.72
249.72
256.066
256.066
262.53
262.53
269.112
269.112
275.814
275.814
282.635
282.635
289.576
289.576
296.637
296.637
303.819
303.819
311.119
311.119
318.538
318.538
326.076
326.076
333.731
333.731
341.502
341.502
349.387
349.387
357.386
357.386
365.496
365.496
373.714
373.714
382.038
382.038
390.464
390.464
398.989
398.989
407.609
407.609
416.321
416.321
425.119
425.119
434
434
442.957
442.957
451.984
451.984
461.076
461.076
470.224
470.224
479.423
479.423
488.665
488.665
497.943
497.943
507.247
507.247
516.571
516.571
525.909
525.909
535.252
535.252
544.593
544.593
553.925
553.925
563.244
563.244
572.541
572.541
581.814
581.814
591.061
591.061
600.28
600.28
609.473
609.473
618.647
618.647
627.811
627.811
636.985
636.985
646.19
646.19
655.455
655.455
664.809
664.809
674.289
674.289
683.942
683.942
693.823
693.823
703.995
703.995
714.531
714.531
725.511
725.511
737.021
737.021
749.153
749.153
762.003
762.003
775.667
775.667
790.242
790.242
805.817
805.817
822.478
822.478
840.299
840.299
859.341
859.341
879.655
879.655
901.267
901.267
924.188
924.188
948.408
948.408
973.898
973.898
1000.61
1000.61
1028.48
1028.48
1057.42
1057.42
1087.36
1087.36
1118.17
1118.17
1149.75
1149.75
1182
1182
1214.79
1214.79
1248.02
1248.02
1281.57
1281.57
1315.34
1315.34
1349.22
1349.22
1383.14
1383.14
1417
1417.01
1450.75
1450.75
1484.31
1484.31
1517.64
1517.64
1550.71
1550.71
1583.51
1583.51
1616.03
1616.03
1648.26
1648.26
1680.23
1680.23
1711.98
1711.98
1743.56
1743.56
1775.01
1775.01
1806.43
1806.43
1837.9
1837.9
1869.52
1869.52
1901.42
1901.42
1933.73
1933.73
1966.62
1966.62
2000.25
2000.25
2034.83
2034.83
2070.57
2070.57
2107.73
2107.73
2146.58
2146.58
2187.45
2187.45
2230.7
2230.7
2276.76
2276.76
2326.09
2326.09
2379.27
2379.27
2436.96
2436.96
2499.94
2499.94
2569.18
2569.18
2645.81
2645.81
2731.28
2731.28
2827.37
2827.37
2936.33
2936.33
3061.09
3061.09
3205.51
3205.51
3374.75
3374.75
3575.95
3575.95
3819.22
3819.22
4119.4
4119.4
4499.08
4499.08
4994.36
4994.36
5666.12
5666.12
6624.03
6624.03
8081.08
8081.08
10483.9
10483.9
14825.7
14825.7
23381.5
23381.5
41885.6
41885.6
89665.4
89665.4
265123
265123
1.52416e+06
1.52416e+06
)
;

boundaryField
{
    walls
    {
        blending        binomial2;
        n               2;
        beta1           0.075;
        type            omegaWallFunction;
        value           nonuniform List<scalar> 8(1.52415e+06 1.52415e+06 1.52415e+06 1.52415e+06 1.52416e+06 1.52416e+06 1.52416e+06 1.52416e+06);
    }
    inlet
    {
        type            cyclic;
    }
    outlet
    {
        type            cyclic;
    }
    sides
    {
        type            empty;
    }
}


// ************************************************************************* //
