/*--------------------------------*- C++ -*----------------------------------*\
| =========                 |                                                 |
| \\      /  F ield         | OpenFOAM: The Open Source CFD Toolbox           |
|  \\    /   O peration     | Version:  2106                                  |
|   \\  /    A nd           | Website:  www.openfoam.com                      |
|    \\/     M anipulation  |                                                 |
\*---------------------------------------------------------------------------*/
FoamFile
{
    version     2.0;
    format      ascii;
    arch        "LSB;label=32;scalar=64";
    class       volSymmTensorField;
    location    "9000";
    object      turbulenceProperties:R;
}
// * * * * * * * * * * * * * * * * * * * * * * * * * * * * * * * * * * * * * //

dimensions      [0 2 -2 0 0 0 0];

internalField   nonuniform List<symmTensor> 
2560
(
(1.01771e-07 -2.99803e-12 -4.34004e-15 1.01771e-07 1.28537e-27 1.01771e-07)
(1.01771e-07 -2.99803e-12 -4.34004e-15 1.01771e-07 -7.92558e-27 1.01771e-07)
(1.65628e-08 -2.80406e-12 -1.22374e-14 1.65628e-08 -7.16034e-27 1.65628e-08)
(1.65628e-08 -2.80406e-12 -1.22374e-14 1.65628e-08 -7.91006e-28 1.65628e-08)
(1.61576e-08 -8.06869e-12 -4.84333e-14 1.61576e-08 -6.4258e-28 1.61576e-08)
(1.61576e-08 -8.06869e-12 -4.84333e-14 1.61576e-08 -1.13345e-27 1.61576e-08)
(4.50329e-08 -4.7684e-11 -2.90391e-13 4.50329e-08 5.18459e-27 4.50329e-08)
(4.50329e-08 -4.7684e-11 -2.90391e-13 4.50329e-08 -6.75895e-27 4.50329e-08)
(1.13946e-07 -2.12849e-10 -1.31508e-12 1.13946e-07 -4.7542e-26 1.13946e-07)
(1.13946e-07 -2.12849e-10 -1.31508e-12 1.13946e-07 -3.05144e-26 1.13946e-07)
(2.42342e-07 -7.12724e-10 -4.46759e-12 2.42342e-07 -1.78104e-25 2.42342e-07)
(2.42342e-07 -7.12724e-10 -4.46759e-12 2.42342e-07 -1.03408e-25 2.42342e-07)
(4.53909e-07 -1.94748e-09 -1.2385e-11 4.53909e-07 -5.16289e-25 4.53909e-07)
(4.53909e-07 -1.94748e-09 -1.2385e-11 4.53909e-07 -2.86055e-25 4.53909e-07)
(7.75981e-07 -4.60051e-09 -2.96823e-11 7.75981e-07 -1.2514e-24 7.75981e-07)
(7.75981e-07 -4.60051e-09 -2.96823e-11 7.75981e-07 -6.83757e-25 7.75981e-07)
(1.23952e-06 -9.75217e-09 -6.38356e-11 1.23952e-06 -2.71905e-24 1.23952e-06)
(1.23952e-06 -9.75217e-09 -6.38356e-11 1.23952e-06 -1.46605e-24 1.23952e-06)
(1.87922e-06 -1.90179e-08 -1.26297e-10 1.87922e-06 -5.4339e-24 1.87922e-06)
(1.87922e-06 -1.90179e-08 -1.26297e-10 1.87922e-06 -2.89399e-24 1.87922e-06)
(2.73371e-06 -3.47139e-08 -2.33886e-10 2.73371e-06 -1.01469e-23 2.73371e-06)
(2.73371e-06 -3.47139e-08 -2.33886e-10 2.73371e-06 -5.34699e-24 2.73371e-06)
(3.84576e-06 -6.00537e-08 -4.10497e-10 3.84576e-06 -1.79415e-23 3.84576e-06)
(3.84576e-06 -6.00537e-08 -4.10497e-10 3.84576e-06 -9.35612e-24 3.84576e-06)
(5.26248e-06 -9.9379e-08 -6.89182e-10 5.26248e-06 -3.03459e-23 5.26248e-06)
(5.26248e-06 -9.9379e-08 -6.89182e-10 5.26248e-06 -1.56612e-23 5.26248e-06)
(7.0356e-06 -1.58429e-07 -1.11466e-09 7.0356e-06 -4.94416e-23 7.0356e-06)
(7.0356e-06 -1.58429e-07 -1.11466e-09 7.0356e-06 -2.528e-23 7.0356e-06)
(9.22171e-06 -2.44652e-07 -1.74632e-09 9.22171e-06 -7.79832e-23 9.22171e-06)
(9.22171e-06 -2.44652e-07 -1.74632e-09 9.22171e-06 -3.95148e-23 9.22171e-06)
(1.18825e-05 -3.67561e-07 -2.66178e-09 1.18825e-05 -1.19654e-22 1.18825e-05)
(1.18825e-05 -3.67561e-07 -2.66178e-09 1.18825e-05 -6.00376e-23 1.18825e-05)
(1.50852e-05 -5.3914e-07 -3.96106e-09 1.50852e-05 -1.79218e-22 1.50852e-05)
(1.50852e-05 -5.3914e-07 -3.96106e-09 1.50852e-05 -8.89963e-23 1.50852e-05)
(1.89025e-05 -7.74302e-07 -5.77144e-09 1.89025e-05 -2.62673e-22 1.89025e-05)
(1.89025e-05 -7.74302e-07 -5.77144e-09 1.89025e-05 -1.29181e-22 1.89025e-05)
(2.34131e-05 -1.0914e-06 -8.25314e-09 2.34131e-05 -3.77815e-22 2.34131e-05)
(2.34131e-05 -1.0914e-06 -8.25314e-09 2.34131e-05 -1.84033e-22 2.34131e-05)
(2.87019e-05 -1.51277e-06 -1.16057e-08 2.87019e-05 -5.34266e-22 2.87019e-05)
(2.87019e-05 -1.51277e-06 -1.16057e-08 2.87019e-05 -2.57568e-22 2.87019e-05)
(3.48601e-05 -2.06538e-06 -1.60753e-08 3.48601e-05 -7.43557e-22 3.48601e-05)
(3.48601e-05 -2.06538e-06 -1.60753e-08 3.48601e-05 -3.55224e-22 3.48601e-05)
(4.19858e-05 -2.78147e-06 -2.19629e-08 4.19858e-05 -1.02072e-21 4.19858e-05)
(4.19858e-05 -2.78147e-06 -2.19629e-08 4.19858e-05 -4.82952e-22 4.19858e-05)
(5.01833e-05 -3.69924e-06 -2.96334e-08 5.01833e-05 -1.38316e-21 5.01833e-05)
(5.01833e-05 -3.69924e-06 -2.96334e-08 5.01833e-05 -6.47522e-22 5.01833e-05)
(5.95642e-05 -4.86359e-06 -3.95253e-08 5.95642e-05 -1.85099e-21 5.95642e-05)
(5.95642e-05 -4.86359e-06 -3.95253e-08 5.95642e-05 -8.57498e-22 5.95642e-05)
(7.02466e-05 -6.32684e-06 -5.21617e-08 7.02466e-05 -2.4487e-21 7.02466e-05)
(7.02466e-05 -6.32684e-06 -5.21617e-08 7.02466e-05 -1.12345e-21 7.02466e-05)
(8.23555e-05 -8.14947e-06 -6.81608e-08 8.23555e-05 -3.20764e-21 8.23555e-05)
(8.23555e-05 -8.14947e-06 -6.81608e-08 8.23555e-05 -1.45641e-21 8.23555e-05)
(9.60224e-05 -1.04007e-05 -8.82482e-08 9.60224e-05 -4.159e-21 9.60224e-05)
(9.60224e-05 -1.04007e-05 -8.82482e-08 9.60224e-05 -1.87101e-21 9.60224e-05)
(0.000111385 -1.31594e-05 -1.13268e-07 0.000111385 -5.34139e-21 0.000111385)
(0.000111385 -1.31594e-05 -1.13268e-07 0.000111385 -2.37933e-21 0.000111385)
(0.000128586 -1.65139e-05 -1.44192e-07 0.000128586 -6.80118e-21 0.000128586)
(0.000128586 -1.65139e-05 -1.44192e-07 0.000128586 -2.99017e-21 0.000128586)
(0.000147775 -2.0563e-05 -1.82135e-07 0.000147775 -8.58167e-21 0.000147775)
(0.000147775 -2.0563e-05 -1.82135e-07 0.000147775 -3.71927e-21 0.000147775)
(0.000169103 -2.54156e-05 -2.28357e-07 0.000169103 -1.0741e-20 0.000169103)
(0.000169103 -2.54156e-05 -2.28357e-07 0.000169103 -4.59215e-21 0.000169103)
(0.000192726 -3.11905e-05 -2.8427e-07 0.000192726 -1.33274e-20 0.000192726)
(0.000192726 -3.11905e-05 -2.8427e-07 0.000192726 -5.64606e-21 0.000192726)
(0.000218799 -3.80157e-05 -3.51446e-07 0.000218799 -1.63949e-20 0.000218799)
(0.000218799 -3.80157e-05 -3.51446e-07 0.000218799 -6.86705e-21 0.000218799)
(0.000247479 -4.60277e-05 -4.31608e-07 0.000247479 -2.00089e-20 0.000247479)
(0.000247479 -4.60277e-05 -4.31608e-07 0.000247479 -8.23614e-21 0.000247479)
(0.00027892 -5.53694e-05 -5.26628e-07 0.00027892 -2.42315e-20 0.00027892)
(0.00027892 -5.53694e-05 -5.26628e-07 0.00027892 -9.78524e-21 0.00027892)
(0.000313271 -6.61886e-05 -6.38511e-07 0.000313271 -2.91082e-20 0.000313271)
(0.000313271 -6.61886e-05 -6.38511e-07 0.000313271 -1.1531e-20 0.000313271)
(0.000350672 -7.8635e-05 -7.69376e-07 0.000350672 -3.46992e-20 0.000350672)
(0.000350672 -7.8635e-05 -7.69376e-07 0.000350672 -1.34946e-20 0.000350672)
(0.000391256 -9.28572e-05 -9.21433e-07 0.000391256 -4.10165e-20 0.000391256)
(0.000391256 -9.28572e-05 -9.21433e-07 0.000391256 -1.5604e-20 0.000391256)
(0.000435141 -0.000108999 -1.09694e-06 0.000435141 -4.80766e-20 0.000435141)
(0.000435141 -0.000108999 -1.09694e-06 0.000435141 -1.78447e-20 0.000435141)
(0.00048243 -0.000127197 -1.29818e-06 0.00048243 -5.59221e-20 0.00048243)
(0.00048243 -0.000127197 -1.29818e-06 0.00048243 -2.02704e-20 0.00048243)
(0.000533204 -0.000147572 -1.5274e-06 0.000533204 -6.45243e-20 0.000533204)
(0.000533204 -0.000147572 -1.5274e-06 0.000533204 -2.28061e-20 0.000533204)
(0.000587526 -0.000170232 -1.78674e-06 0.000587526 -7.39019e-20 0.000587526)
(0.000587526 -0.000170232 -1.78674e-06 0.000587526 -2.52904e-20 0.000587526)
(0.000645429 -0.000195259 -2.07825e-06 0.000645429 -8.38901e-20 0.000645429)
(0.000645429 -0.000195259 -2.07825e-06 0.000645429 -2.7606e-20 0.000645429)
(0.000706923 -0.000222713 -2.40374e-06 0.000706923 -9.44095e-20 0.000706923)
(0.000706923 -0.000222713 -2.40374e-06 0.000706923 -2.99033e-20 0.000706923)
(0.000771985 -0.000252626 -2.76483e-06 0.000771985 -1.05517e-19 0.000771985)
(0.000771985 -0.000252626 -2.76483e-06 0.000771985 -3.21427e-20 0.000771985)
(0.000840562 -0.000284998 -3.1628e-06 0.000840562 -1.17108e-19 0.000840562)
(0.000840562 -0.000284998 -3.1628e-06 0.000840562 -3.4044e-20 0.000840562)
(0.00091257 -0.000319797 -3.59866e-06 0.00091257 -1.28008e-19 0.00091257)
(0.00091257 -0.000319797 -3.59866e-06 0.00091257 -3.54182e-20 0.00091257)
(0.000987894 -0.000356957 -4.07302e-06 0.000987894 -1.41372e-19 0.000987894)
(0.000987894 -0.000356957 -4.07302e-06 0.000987894 -3.6072e-20 0.000987894)
(0.00106639 -0.000396383 -4.58616e-06 0.00106639 -1.52435e-19 0.00106639)
(0.00106639 -0.000396383 -4.58616e-06 0.00106639 -3.60416e-20 0.00106639)
(0.00114787 -0.000437948 -5.13797e-06 0.00114787 -1.63952e-19 0.00114787)
(0.00114787 -0.000437948 -5.13797e-06 0.00114787 -3.53317e-20 0.00114787)
(0.00123214 -0.000481496 -5.72797e-06 0.00123214 -1.75153e-19 0.00123214)
(0.00123214 -0.000481496 -5.72797e-06 0.00123214 -3.39074e-20 0.00123214)
(0.00131898 -0.000526851 -6.35535e-06 0.00131898 -1.86095e-19 0.00131898)
(0.00131898 -0.000526851 -6.35535e-06 0.00131898 -3.17881e-20 0.00131898)
(0.00140813 -0.000573815 -7.01899e-06 0.00140813 -1.96724e-19 0.00140813)
(0.00140813 -0.000573815 -7.01899e-06 0.00140813 -2.86781e-20 0.00140813)
(0.00149933 -0.000622174 -7.71747e-06 0.00149933 -2.06662e-19 0.00149933)
(0.00149933 -0.000622174 -7.71747e-06 0.00149933 -2.50032e-20 0.00149933)
(0.0015923 -0.000671709 -8.44916e-06 0.0015923 -2.16403e-19 0.0015923)
(0.0015923 -0.000671709 -8.44916e-06 0.0015923 -2.06179e-20 0.0015923)
(0.00168677 -0.000722191 -9.21226e-06 0.00168677 -2.25678e-19 0.00168677)
(0.00168677 -0.000722191 -9.21226e-06 0.00168677 -1.46689e-20 0.00168677)
(0.00178245 -0.000773395 -1.00048e-05 0.00178245 -2.34455e-19 0.00178245)
(0.00178245 -0.000773395 -1.00048e-05 0.00178245 -7.46636e-21 0.00178245)
(0.00187904 -0.000825098 -1.08248e-05 0.00187904 -2.43326e-19 0.00187904)
(0.00187904 -0.000825098 -1.08248e-05 0.00187904 -1.00647e-23 0.00187904)
(0.00197627 -0.000877086 -1.16701e-05 0.00197627 -2.51533e-19 0.00197627)
(0.00197627 -0.000877086 -1.16701e-05 0.00197627 8.15208e-21 0.00197627)
(0.00207386 -0.000929155 -1.25386e-05 0.00207386 -2.58934e-19 0.00207386)
(0.00207386 -0.000929155 -1.25386e-05 0.00207386 1.70086e-20 0.00207386)
(0.00217155 -0.000981114 -1.34285e-05 0.00217155 -2.65884e-19 0.00217155)
(0.00217155 -0.000981114 -1.34285e-05 0.00217155 2.56869e-20 0.00217155)
(0.00226909 -0.00103279 -1.43376e-05 0.00226909 -2.73333e-19 0.00226909)
(0.00226909 -0.00103279 -1.43376e-05 0.00226909 3.41795e-20 0.00226909)
(0.00236624 -0.00108402 -1.52642e-05 0.00236624 -2.81072e-19 0.00236624)
(0.00236624 -0.00108402 -1.52642e-05 0.00236624 4.28938e-20 0.00236624)
(0.00246278 -0.00113467 -1.62065e-05 0.00246278 -2.8815e-19 0.00246278)
(0.00246278 -0.00113467 -1.62065e-05 0.00246278 5.26324e-20 0.00246278)
(0.00255852 -0.00118461 -1.71628e-05 0.00255852 -2.96522e-19 0.00255852)
(0.00255852 -0.00118461 -1.71628e-05 0.00255852 6.44351e-20 0.00255852)
(0.00265326 -0.00123373 -1.81317e-05 0.00265326 -3.06311e-19 0.00265326)
(0.00265326 -0.00123373 -1.81317e-05 0.00265326 7.69462e-20 0.00265326)
(0.00274685 -0.00128194 -1.91118e-05 0.00274685 -3.16189e-19 0.00274685)
(0.00274685 -0.00128194 -1.91118e-05 0.00274685 8.76211e-20 0.00274685)
(0.00283913 -0.00132916 -2.0102e-05 0.00283913 -3.27552e-19 0.00283913)
(0.00283913 -0.00132916 -2.0102e-05 0.00283913 9.9487e-20 0.00283913)
(0.00292998 -0.00137534 -2.11011e-05 0.00292998 -3.3762e-19 0.00292998)
(0.00292998 -0.00137534 -2.11011e-05 0.00292998 1.1501e-19 0.00292998)
(0.00301929 -0.00142042 -2.21083e-05 0.00301929 -3.50437e-19 0.00301929)
(0.00301929 -0.00142042 -2.21083e-05 0.00301929 1.30551e-19 0.00301929)
(0.00310696 -0.00146436 -2.31227e-05 0.00310696 -3.65979e-19 0.00310696)
(0.00310696 -0.00146436 -2.31227e-05 0.00310696 1.47313e-19 0.00310696)
(0.00319291 -0.00150714 -2.41437e-05 0.00319291 -3.83524e-19 0.00319291)
(0.00319291 -0.00150714 -2.41437e-05 0.00319291 1.64502e-19 0.00319291)
(0.00327707 -0.00154875 -2.51706e-05 0.00327707 -4.01312e-19 0.00327707)
(0.00327707 -0.00154875 -2.51706e-05 0.00327707 1.76069e-19 0.00327707)
(0.00335939 -0.00158916 -2.62031e-05 0.00335939 -4.19615e-19 0.00335939)
(0.00335939 -0.00158916 -2.62031e-05 0.00335939 1.88366e-19 0.00335939)
(0.00343983 -0.00162838 -2.72406e-05 0.00343983 -4.4047e-19 0.00343983)
(0.00343983 -0.00162838 -2.72406e-05 0.00343983 2.08636e-19 0.00343983)
(0.00351837 -0.00166642 -2.82831e-05 0.00351837 -4.59353e-19 0.00351837)
(0.00351837 -0.00166642 -2.82831e-05 0.00351837 2.27151e-19 0.00351837)
(0.00359498 -0.00170329 -2.93302e-05 0.00359498 -4.81027e-19 0.00359498)
(0.00359498 -0.00170329 -2.93302e-05 0.00359498 2.36545e-19 0.00359498)
(0.00366965 -0.00173899 -3.03818e-05 0.00366965 -5.03765e-19 0.00366965)
(0.00366965 -0.00173899 -3.03818e-05 0.00366965 2.50106e-19 0.00366965)
(0.00374239 -0.00177356 -3.14378e-05 0.00374239 -5.29636e-19 0.00374239)
(0.00374239 -0.00177356 -3.14378e-05 0.00374239 2.64977e-19 0.00374239)
(0.00381318 -0.001807 -3.24982e-05 0.00381318 -5.58778e-19 0.00381318)
(0.00381318 -0.001807 -3.24982e-05 0.00381318 2.77426e-19 0.00381318)
(0.00388206 -0.00183934 -3.35631e-05 0.00388206 -5.83958e-19 0.00388206)
(0.00388206 -0.00183934 -3.35631e-05 0.00388206 3.03907e-19 0.00388206)
(0.00394903 -0.00187061 -3.46324e-05 0.00394903 -6.13093e-19 0.00394903)
(0.00394903 -0.00187061 -3.46324e-05 0.00394903 3.28529e-19 0.00394903)
(0.00401411 -0.00190083 -3.57064e-05 0.00401411 -6.47959e-19 0.00401411)
(0.00401411 -0.00190083 -3.57064e-05 0.00401411 3.2715e-19 0.00401411)
(0.00407733 -0.00193004 -3.67851e-05 0.00407733 -6.72835e-19 0.00407733)
(0.00407733 -0.00193004 -3.67851e-05 0.00407733 3.2954e-19 0.00407733)
(0.00413872 -0.00195826 -3.78688e-05 0.00413872 -7.04311e-19 0.00413872)
(0.00413872 -0.00195826 -3.78688e-05 0.00413872 3.62522e-19 0.00413872)
(0.0041983 -0.00198552 -3.89575e-05 0.0041983 -7.44256e-19 0.0041983)
(0.0041983 -0.00198552 -3.89575e-05 0.0041983 3.91784e-19 0.0041983)
(0.00425612 -0.00201185 -4.00516e-05 0.00425612 -7.84901e-19 0.00425612)
(0.00425612 -0.00201185 -4.00516e-05 0.00425612 4.19253e-19 0.00425612)
(0.00431221 -0.00203728 -4.11512e-05 0.00431221 -8.26546e-19 0.00431221)
(0.00431221 -0.00203728 -4.11512e-05 0.00431221 6.38264e-19 0.00431221)
(0.0043666 -0.00206183 -4.22567e-05 0.0043666 -8.66662e-19 0.0043666)
(0.0043666 -0.00206183 -4.22567e-05 0.0043666 8.98326e-19 0.0043666)
(0.00441933 -0.00208555 -4.33681e-05 0.00441933 -9.07756e-19 0.00441933)
(0.00441933 -0.00208555 -4.33681e-05 0.00441933 9.72389e-19 0.00441933)
(0.00447045 -0.00210844 -4.44859e-05 0.00447045 -9.51883e-19 0.00447045)
(0.00447045 -0.00210844 -4.44859e-05 0.00447045 1.00675e-18 0.00447045)
(0.00451998 -0.00213055 -4.56103e-05 0.00451998 -1.00999e-18 0.00451998)
(0.00451998 -0.00213055 -4.56103e-05 0.00451998 1.04274e-18 0.00451998)
(0.00456797 -0.0021519 -4.67415e-05 0.00456797 -1.05612e-18 0.00456797)
(0.00456797 -0.0021519 -4.67415e-05 0.00456797 1.06959e-18 0.00456797)
(0.00461446 -0.00217251 -4.78799e-05 0.00461446 -1.08799e-18 0.00461446)
(0.00461446 -0.00217251 -4.78799e-05 0.00461446 1.09712e-18 0.00461446)
(0.00465949 -0.00219241 -4.90257e-05 0.00465949 -1.14509e-18 0.00465949)
(0.00465949 -0.00219241 -4.90257e-05 0.00465949 1.15528e-18 0.00465949)
(0.00470309 -0.00221163 -5.01793e-05 0.00470309 -1.20461e-18 0.00470309)
(0.00470309 -0.00221163 -5.01793e-05 0.00470309 1.20944e-18 0.00470309)
(0.00474531 -0.00223019 -5.13409e-05 0.00474531 -1.2484e-18 0.00474531)
(0.00474531 -0.00223019 -5.13409e-05 0.00474531 1.23257e-18 0.00474531)
(0.00478618 -0.00224811 -5.25108e-05 0.00478618 -1.3061e-18 0.00478618)
(0.00478618 -0.00224811 -5.25108e-05 0.00478618 1.23862e-18 0.00478618)
(0.00482574 -0.00226541 -5.36894e-05 0.00482574 -1.39322e-18 0.00482574)
(0.00482574 -0.00226541 -5.36894e-05 0.00482574 1.26419e-18 0.00482574)
(0.00486402 -0.00228212 -5.48769e-05 0.00486402 -1.47034e-18 0.00486402)
(0.00486402 -0.00228212 -5.48769e-05 0.00486402 1.33309e-18 0.00486402)
(0.00490107 -0.00229826 -5.60735e-05 0.00490107 -1.51345e-18 0.00490107)
(0.00490107 -0.00229826 -5.60735e-05 0.00490107 1.40486e-18 0.00490107)
(0.00493691 -0.00231384 -5.72797e-05 0.00493691 -1.54435e-18 0.00493691)
(0.00493691 -0.00231384 -5.72797e-05 0.00493691 1.46328e-18 0.00493691)
(0.00497158 -0.00232889 -5.84957e-05 0.00497158 -1.60348e-18 0.00497158)
(0.00497158 -0.00232889 -5.84957e-05 0.00497158 1.50838e-18 0.00497158)
(0.00500512 -0.00234342 -5.97218e-05 0.00500512 -1.67934e-18 0.00500512)
(0.00500512 -0.00234342 -5.97218e-05 0.00500512 1.55114e-18 0.00500512)
(0.00503756 -0.00235745 -6.09583e-05 0.00503756 -1.74583e-18 0.00503756)
(0.00503756 -0.00235745 -6.09583e-05 0.00503756 1.61748e-18 0.00503756)
(0.00506892 -0.002371 -6.22054e-05 0.00506892 -1.81364e-18 0.00506892)
(0.00506892 -0.002371 -6.22054e-05 0.00506892 1.68439e-18 0.00506892)
(0.00509924 -0.00238408 -6.34636e-05 0.00509924 -1.86731e-18 0.00509924)
(0.00509924 -0.00238408 -6.34636e-05 0.00509924 1.7665e-18 0.00509924)
(0.00512854 -0.00239672 -6.47329e-05 0.00512854 -1.93876e-18 0.00512854)
(0.00512854 -0.00239672 -6.47329e-05 0.00512854 1.85844e-18 0.00512854)
(0.00515686 -0.00240891 -6.60138e-05 0.00515686 -2.01855e-18 0.00515686)
(0.00515686 -0.00240891 -6.60138e-05 0.00515686 1.91298e-18 0.00515686)
(0.00518423 -0.00242069 -6.73066e-05 0.00518423 -2.08144e-18 0.00518423)
(0.00518423 -0.00242069 -6.73066e-05 0.00518423 1.94614e-18 0.00518423)
(0.00521067 -0.00243206 -6.86114e-05 0.00521067 -2.158e-18 0.00521067)
(0.00521067 -0.00243206 -6.86114e-05 0.00521067 1.99063e-18 0.00521067)
(0.0052362 -0.00244303 -6.99286e-05 0.0052362 -2.2663e-18 0.0052362)
(0.0052362 -0.00244303 -6.99286e-05 0.0052362 2.04799e-18 0.0052362)
(0.00526085 -0.00245362 -7.12584e-05 0.00526085 -2.34833e-18 0.00526085)
(0.00526085 -0.00245362 -7.12584e-05 0.00526085 2.11106e-18 0.00526085)
(0.00528465 -0.00246384 -7.26012e-05 0.00528465 1.9267e-19 0.00528465)
(0.00528465 -0.00246384 -7.26012e-05 0.00528465 2.14763e-18 0.00528465)
(0.00530762 -0.0024737 -7.39571e-05 0.00530762 3.76928e-18 0.00530762)
(0.00530762 -0.0024737 -7.39571e-05 0.00530762 2.18579e-18 0.00530762)
(0.00532978 -0.00248321 -7.53265e-05 0.00532978 4.41657e-18 0.00532978)
(0.00532978 -0.00248321 -7.53265e-05 0.00532978 2.24029e-18 0.00532978)
(0.00535116 -0.00249238 -7.67096e-05 0.00535116 4.55417e-18 0.00535116)
(0.00535116 -0.00249238 -7.67096e-05 0.00535116 2.25737e-18 0.00535116)
(0.00537176 -0.00250122 -7.81067e-05 0.00537176 4.62409e-18 0.00537176)
(0.00537176 -0.00250122 -7.81067e-05 0.00537176 2.29451e-18 0.00537176)
(0.00539162 -0.00250975 -7.95181e-05 0.00539162 4.67901e-18 0.00539162)
(0.00539162 -0.00250975 -7.95181e-05 0.00539162 2.35269e-18 0.00539162)
(0.00541076 -0.00251796 -8.0944e-05 0.00541076 4.81668e-18 0.00541076)
(0.00541076 -0.00251796 -8.0944e-05 0.00541076 2.46348e-18 0.00541076)
(0.00542919 -0.00252588 -8.23846e-05 0.00542919 4.83039e-18 0.00542919)
(0.00542919 -0.00252588 -8.23846e-05 0.00542919 2.60945e-18 0.00542919)
(0.00544692 -0.0025335 -8.38403e-05 0.00544692 4.83252e-18 0.00544692)
(0.00544692 -0.0025335 -8.38403e-05 0.00544692 2.70002e-18 0.00544692)
(0.00546399 -0.00254083 -8.53112e-05 0.00546399 4.97547e-18 0.00546399)
(0.00546399 -0.00254083 -8.53112e-05 0.00546399 2.79965e-18 0.00546399)
(0.00548039 -0.00254789 -8.67977e-05 0.00548039 5.18115e-18 0.00548039)
(0.00548039 -0.00254789 -8.67977e-05 0.00548039 2.97359e-18 0.00548039)
(0.00549616 -0.00255468 -8.82999e-05 0.00549616 5.32974e-18 0.00549616)
(0.00549616 -0.00255468 -8.82999e-05 0.00549616 3.10673e-18 0.00549616)
(0.0055113 -0.0025612 -8.98182e-05 0.0055113 5.44579e-18 0.0055113)
(0.0055113 -0.0025612 -8.98182e-05 0.0055113 3.20053e-18 0.0055113)
(0.00552584 -0.00256747 -9.13527e-05 0.00552584 5.69083e-18 0.00552584)
(0.00552584 -0.00256747 -9.13527e-05 0.00552584 3.35021e-18 0.00552584)
(0.00553977 -0.00257349 -9.29037e-05 0.00553977 5.90166e-18 0.00553977)
(0.00553977 -0.00257349 -9.29037e-05 0.00553977 3.4527e-18 0.00553977)
(0.00555313 -0.00257926 -9.44715e-05 0.00555313 5.95593e-18 0.00555313)
(0.00555313 -0.00257926 -9.44715e-05 0.00555313 3.59141e-18 0.00555313)
(0.00556592 -0.00258479 -9.60563e-05 0.00556592 5.8444e-18 0.00556592)
(0.00556592 -0.00258479 -9.60563e-05 0.00556592 3.81755e-18 0.00556592)
(0.00557815 -0.00259009 -9.76583e-05 0.00557815 5.80952e-18 0.00557815)
(0.00557815 -0.00259009 -9.76583e-05 0.00557815 4.02192e-18 0.00557815)
(0.00558983 -0.00259516 -9.92777e-05 0.00558983 6.0963e-18 0.00558983)
(0.00558983 -0.00259516 -9.92777e-05 0.00558983 4.23844e-18 0.00558983)
(0.00560099 -0.0026 -0.000100915 0.00560099 6.38712e-18 0.00560099)
(0.00560099 -0.0026 -0.000100915 0.00560099 4.53119e-18 0.00560099)
(0.00561162 -0.00260463 -0.00010257 0.00561162 6.55861e-18 0.00561162)
(0.00561162 -0.00260463 -0.00010257 0.00561162 4.80969e-18 0.00561162)
(0.00562174 -0.00260904 -0.000104243 0.00562174 6.58146e-18 0.00562174)
(0.00562174 -0.00260904 -0.000104243 0.00562174 4.9976e-18 0.00562174)
(0.00563137 -0.00261325 -0.000105935 0.00563137 6.70529e-18 0.00563137)
(0.00563137 -0.00261325 -0.000105935 0.00563137 5.22286e-18 0.00563137)
(0.0056405 -0.00261724 -0.000107645 0.0056405 6.83726e-18 0.0056405)
(0.0056405 -0.00261724 -0.000107645 0.0056405 5.45549e-18 0.0056405)
(0.00564915 -0.00262104 -0.000109374 0.00564915 7.01055e-18 0.00564915)
(0.00564915 -0.00262104 -0.000109374 0.00564915 5.5943e-18 0.00564915)
(0.00565733 -0.00262463 -0.000111122 0.00565733 7.5568e-18 0.00565733)
(0.00565733 -0.00262463 -0.000111122 0.00565733 5.75079e-18 0.00565733)
(0.00566504 -0.00262804 -0.000112889 0.00566504 7.92144e-18 0.00566504)
(0.00566504 -0.00262804 -0.000112889 0.00566504 6.00585e-18 0.00566504)
(0.00567231 -0.00263125 -0.000114676 0.00567231 8.09775e-18 0.00567231)
(0.00567231 -0.00263125 -0.000114676 0.00567231 6.12561e-18 0.00567231)
(0.00567912 -0.00263427 -0.000116482 0.00567912 8.39298e-18 0.00567912)
(0.00567912 -0.00263427 -0.000116482 0.00567912 6.15435e-18 0.00567912)
(0.0056855 -0.0026371 -0.000118308 0.0056855 8.59539e-18 0.0056855)
(0.0056855 -0.0026371 -0.000118308 0.0056855 6.42851e-18 0.0056855)
(0.00569144 -0.00263976 -0.000120155 0.00569144 8.89314e-18 0.00569144)
(0.00569144 -0.00263976 -0.000120155 0.00569144 6.59451e-18 0.00569144)
(0.00569696 -0.00264223 -0.000122021 0.00569696 9.30619e-18 0.00569696)
(0.00569696 -0.00264223 -0.000122021 0.00569696 6.5433e-18 0.00569696)
(0.00570207 -0.00264452 -0.000123908 0.00570207 9.52806e-18 0.00570207)
(0.00570207 -0.00264452 -0.000123908 0.00570207 6.70472e-18 0.00570207)
(0.00570676 -0.00264664 -0.000125816 0.00570676 9.81077e-18 0.00570676)
(0.00570676 -0.00264664 -0.000125816 0.00570676 6.99854e-18 0.00570676)
(0.00571104 -0.00264859 -0.000127745 0.00571104 1.01306e-17 0.00571104)
(0.00571104 -0.00264859 -0.000127745 0.00571104 7.27396e-18 0.00571104)
(0.00571493 -0.00265037 -0.000129694 0.00571493 1.03156e-17 0.00571493)
(0.00571493 -0.00265037 -0.000129694 0.00571493 7.40234e-18 0.00571493)
(0.00571843 -0.00265198 -0.000131665 0.00571843 1.05697e-17 0.00571843)
(0.00571843 -0.00265198 -0.000131665 0.00571843 7.50114e-18 0.00571843)
(0.00572153 -0.00265342 -0.000133657 0.00572153 1.09794e-17 0.00572153)
(0.00572153 -0.00265342 -0.000133657 0.00572153 7.62981e-18 0.00572153)
(0.00572425 -0.0026547 -0.000135671 0.00572425 1.12731e-17 0.00572425)
(0.00572425 -0.0026547 -0.000135671 0.00572425 7.91341e-18 0.00572425)
(0.0057266 -0.00265582 -0.000137707 0.0057266 1.1629e-17 0.0057266)
(0.0057266 -0.00265582 -0.000137707 0.0057266 8.37904e-18 0.0057266)
(0.00572857 -0.00265677 -0.000139765 0.00572857 1.18283e-17 0.00572857)
(0.00572857 -0.00265677 -0.000139765 0.00572857 8.60331e-18 0.00572857)
(0.00573017 -0.00265757 -0.000141844 0.00573017 1.17495e-17 0.00573017)
(0.00573017 -0.00265757 -0.000141844 0.00573017 8.8513e-18 0.00573017)
(0.00573141 -0.00265821 -0.000143946 0.00573141 1.18844e-17 0.00573141)
(0.00573141 -0.00265821 -0.000143946 0.00573141 9.22738e-18 0.00573141)
(0.00573229 -0.00265869 -0.000146071 0.00573229 1.23434e-17 0.00573229)
(0.00573229 -0.00265869 -0.000146071 0.00573229 9.40502e-18 0.00573229)
(0.00573281 -0.00265901 -0.000148218 0.00573281 1.27331e-17 0.00573281)
(0.00573281 -0.00265901 -0.000148218 0.00573281 9.71481e-18 0.00573281)
(0.00573297 -0.00265918 -0.000150387 0.00573297 1.28737e-17 0.00573297)
(0.00573297 -0.00265918 -0.000150387 0.00573297 1.04552e-17 0.00573297)
(0.00573279 -0.0026592 -0.00015258 0.00573279 1.27582e-17 0.00573279)
(0.00573279 -0.0026592 -0.00015258 0.00573279 1.11074e-17 0.00573279)
(0.00573226 -0.00265906 -0.000154795 0.00573226 1.28781e-17 0.00573226)
(0.00573226 -0.00265906 -0.000154795 0.00573226 1.14937e-17 0.00573226)
(0.00573139 -0.00265877 -0.000157034 0.00573139 1.30727e-17 0.00573139)
(0.00573139 -0.00265877 -0.000157034 0.00573139 1.1855e-17 0.00573139)
(0.00573018 -0.00265834 -0.000159296 0.00573018 1.30489e-17 0.00573018)
(0.00573018 -0.00265834 -0.000159296 0.00573018 1.23372e-17 0.00573018)
(0.00572863 -0.00265775 -0.000161581 0.00572863 1.30744e-17 0.00572863)
(0.00572863 -0.00265775 -0.000161581 0.00572863 1.3013e-17 0.00572863)
(0.00572674 -0.00265701 -0.00016389 0.00572674 1.35999e-17 0.00572674)
(0.00572674 -0.00265701 -0.00016389 0.00572674 1.3365e-17 0.00572674)
(0.00572453 -0.00265612 -0.000166222 0.00572453 1.46453e-17 0.00572453)
(0.00572453 -0.00265612 -0.000166222 0.00572453 1.37555e-17 0.00572453)
(0.00572198 -0.00265509 -0.000168578 0.00572198 1.4607e-17 0.00572198)
(0.00572198 -0.00265509 -0.000168578 0.00572198 1.40268e-17 0.00572198)
(0.0057191 -0.00265391 -0.000170958 0.0057191 1.47569e-17 0.0057191)
(0.0057191 -0.00265391 -0.000170958 0.0057191 1.36294e-17 0.0057191)
(0.0057159 -0.00265258 -0.000173361 0.0057159 1.54593e-17 0.0057159)
(0.0057159 -0.00265258 -0.000173361 0.0057159 1.36565e-17 0.0057159)
(0.00571237 -0.00265111 -0.000175789 0.00571237 1.60198e-17 0.00571237)
(0.00571237 -0.00265111 -0.000175789 0.00571237 1.38021e-17 0.00571237)
(0.00570853 -0.00264949 -0.00017824 0.00570853 1.67758e-17 0.00570853)
(0.00570853 -0.00264949 -0.00017824 0.00570853 1.37267e-17 0.00570853)
(0.00570436 -0.00264772 -0.000180716 0.00570436 1.7142e-17 0.00570436)
(0.00570436 -0.00264772 -0.000180716 0.00570436 1.35254e-17 0.00570436)
(0.00569987 -0.0026458 -0.000183215 0.00569987 1.70497e-17 0.00569987)
(0.00569987 -0.0026458 -0.000183215 0.00569987 1.36572e-17 0.00569987)
(0.00569506 -0.00264374 -0.000185739 0.00569506 1.73699e-17 0.00569506)
(0.00569506 -0.00264374 -0.000185739 0.00569506 1.45202e-17 0.00569506)
(0.00568994 -0.00264154 -0.000188287 0.00568994 1.35396e-18 0.00568994)
(0.00568994 -0.00264154 -0.000188287 0.00568994 1.50714e-17 0.00568994)
(0.0056845 -0.00263919 -0.000190859 0.0056845 -2.62042e-18 0.0056845)
(0.0056845 -0.00263919 -0.000190859 0.0056845 1.54501e-17 0.0056845)
(0.00567875 -0.00263669 -0.000193455 0.00567875 -2.52679e-18 0.00567875)
(0.00567875 -0.00263669 -0.000193455 0.00567875 1.60972e-17 0.00567875)
(0.00567268 -0.00263405 -0.000196075 0.00567268 -2.54887e-18 0.00567268)
(0.00567268 -0.00263405 -0.000196075 0.00567268 1.63189e-17 0.00567268)
(0.00566631 -0.00263126 -0.00019872 0.00566631 -2.26168e-18 0.00566631)
(0.00566631 -0.00263126 -0.00019872 0.00566631 1.65017e-17 0.00566631)
(0.00565961 -0.00262833 -0.000201389 0.00565961 -1.90171e-18 0.00565961)
(0.00565961 -0.00262833 -0.000201389 0.00565961 1.72626e-17 0.00565961)
(0.00565261 -0.00262525 -0.000204081 0.00565261 -1.35025e-18 0.00565261)
(0.00565261 -0.00262525 -0.000204081 0.00565261 1.8201e-17 0.00565261)
(0.0056453 -0.00262202 -0.000206798 0.0056453 -1.33482e-18 0.0056453)
(0.0056453 -0.00262202 -0.000206798 0.0056453 1.91242e-17 0.0056453)
(0.00563768 -0.00261865 -0.000209539 0.00563768 -1.17626e-18 0.00563768)
(0.00563768 -0.00261865 -0.000209539 0.00563768 1.94203e-17 0.00563768)
(0.00562974 -0.00261513 -0.000212304 0.00562974 -7.17441e-19 0.00562974)
(0.00562974 -0.00261513 -0.000212304 0.00562974 1.95054e-17 0.00562974)
(0.0056215 -0.00261146 -0.000215093 0.0056215 -1.22989e-18 0.0056215)
(0.0056215 -0.00261146 -0.000215093 0.0056215 2.02405e-17 0.0056215)
(0.00561294 -0.00260764 -0.000217905 0.00561294 -8.71639e-19 0.00561294)
(0.00561294 -0.00260764 -0.000217905 0.00561294 2.10305e-17 0.00561294)
(0.00560408 -0.00260368 -0.000220741 0.00560408 2.88453e-19 0.00560408)
(0.00560408 -0.00260368 -0.000220741 0.00560408 2.16778e-17 0.00560408)
(0.00559491 -0.00259957 -0.000223601 0.00559491 6.08642e-19 0.00559491)
(0.00559491 -0.00259957 -0.000223601 0.00559491 2.22264e-17 0.00559491)
(0.00558542 -0.0025953 -0.000226483 0.00558542 6.17704e-19 0.00558542)
(0.00558542 -0.0025953 -0.000226483 0.00558542 2.28733e-17 0.00558542)
(0.00557563 -0.00259089 -0.000229389 0.00557563 7.21682e-19 0.00557563)
(0.00557563 -0.00259089 -0.000229389 0.00557563 2.39582e-17 0.00557563)
(0.00556552 -0.00258633 -0.000232318 0.00556552 9.45235e-20 0.00556552)
(0.00556552 -0.00258633 -0.000232318 0.00556552 2.52151e-17 0.00556552)
(0.00555511 -0.00258162 -0.00023527 0.00555511 -3.71889e-19 0.00555511)
(0.00555511 -0.00258162 -0.00023527 0.00555511 2.68645e-17 0.00555511)
(0.00554438 -0.00257675 -0.000238244 0.00554438 -1.9337e-19 0.00554438)
(0.00554438 -0.00257675 -0.000238244 0.00554438 2.84731e-17 0.00554438)
(0.00553334 -0.00257173 -0.000241241 0.00553334 -1.32556e-19 0.00553334)
(0.00553334 -0.00257173 -0.000241241 0.00553334 2.95976e-17 0.00553334)
(0.00552199 -0.00256656 -0.000244259 0.00552199 3.06672e-19 0.00552199)
(0.00552199 -0.00256656 -0.000244259 0.00552199 3.05963e-17 0.00552199)
(0.00551032 -0.00256123 -0.000247299 0.00551032 1.16816e-18 0.00551032)
(0.00551032 -0.00256123 -0.000247299 0.00551032 3.14362e-17 0.00551032)
(0.00549834 -0.00255575 -0.000250361 0.00549834 4.54905e-19 0.00549834)
(0.00549834 -0.00255575 -0.000250361 0.00549834 3.16461e-17 0.00549834)
(0.00548604 -0.00255011 -0.000253444 0.00548604 7.49431e-20 0.00548604)
(0.00548604 -0.00255011 -0.000253444 0.00548604 3.17518e-17 0.00548604)
(0.00547343 -0.00254432 -0.000256548 0.00547343 8.597e-19 0.00547343)
(0.00547343 -0.00254432 -0.000256548 0.00547343 3.26748e-17 0.00547343)