/*--------------------------------*- C++ -*----------------------------------*\
| =========                 |                                                 |
| \\      /  F ield         | OpenFOAM: The Open Source CFD Toolbox           |
|  \\    /   O peration     | Version:  2012                                  |
|   \\  /    A nd           | Website:  www.openfoam.com                      |
|    \\/     M anipulation  |                                                 |
\*---------------------------------------------------------------------------*/
FoamFile
{
    version     2.0;
    format      ascii;
    class       volScalarField;
    location    "13000";
    object      nut;
}
// * * * * * * * * * * * * * * * * * * * * * * * * * * * * * * * * * * * * * //

dimensions      [0 2 -1 0 0 0 0];


internalField   nonuniform List<scalar> 
2560
(
9.83008e-14
9.83008e-14
1.04121e-13
1.04121e-13
5.23418e-13
5.23418e-13
3.58749e-12
3.58749e-12
1.63343e-11
1.63343e-11
5.49087e-11
5.49087e-11
1.50212e-10
1.50212e-10
3.55043e-10
3.55043e-10
7.52914e-10
7.52914e-10
1.46878e-09
1.46878e-09
2.68191e-09
2.68191e-09
4.6412e-09
4.6412e-09
7.68322e-09
7.68322e-09
1.22533e-08
1.22533e-08
1.89298e-08
1.89298e-08
2.84525e-08
2.84525e-08
4.17547e-08
4.17547e-08
5.99992e-08
5.99992e-08
8.46198e-08
8.46198e-08
1.17367e-07
1.17367e-07
1.60357e-07
1.60357e-07
2.16131e-07
2.16131e-07
2.87709e-07
2.87709e-07
3.7866e-07
3.7866e-07
4.93165e-07
4.93165e-07
6.36089e-07
6.36089e-07
8.13052e-07
8.13052e-07
1.0305e-06
1.0305e-06
1.29577e-06
1.29577e-06
1.61715e-06
1.61715e-06
2.00395e-06
2.00395e-06
2.46651e-06
2.46651e-06
3.01625e-06
3.01625e-06
3.66566e-06
3.66566e-06
4.42829e-06
4.42829e-06
5.31868e-06
5.31868e-06
6.35229e-06
6.35229e-06
7.5454e-06
7.5454e-06
8.91495e-06
8.91495e-06
1.04783e-05
1.04783e-05
1.22533e-05
1.22533e-05
1.42575e-05
1.42575e-05
1.65085e-05
1.65085e-05
1.90235e-05
1.90235e-05
2.18187e-05
2.18187e-05
2.49096e-05
2.49096e-05
2.83104e-05
2.83104e-05
3.20341e-05
3.20341e-05
3.60923e-05
3.60923e-05
4.0495e-05
4.0495e-05
4.52514e-05
4.52514e-05
5.03691e-05
5.03691e-05
5.58551e-05
5.58551e-05
6.1716e-05
6.1716e-05
6.79585e-05
6.79585e-05
7.45903e-05
7.45903e-05
8.16213e-05
8.16213e-05
8.90647e-05
8.90647e-05
9.69379e-05
9.69379e-05
0.000105262
0.000105262
0.000114063
0.000114063
0.000123366
0.000123366
0.000133193
0.000133193
0.000143561
0.000143561
0.00015448
0.00015448
0.000165946
0.000165946
0.000177946
0.000177946
0.000190457
0.000190457
0.000203446
0.000203446
0.000216871
0.000216871
0.000230684
0.000230684
0.000244832
0.000244832
0.000259259
0.000259259
0.000273906
0.000273906
0.000288716
0.000288716
0.000303633
0.000303633
0.000318599
0.000318599
0.000333564
0.000333564
0.000348479
0.000348479
0.000363298
0.000363298
0.000377981
0.000377981
0.000392493
0.000392493
0.000406801
0.000406801
0.000420878
0.000420878
0.0004347
0.0004347
0.000448247
0.000448247
0.000461501
0.000461501
0.000474449
0.000474449
0.00048708
0.00048708
0.000499387
0.000499387
0.000511368
0.000511368
0.000523022
0.000523022
0.000534356
0.000534356
0.000545379
0.000545379
0.000556108
0.000556108
0.00056656
0.00056656
0.000576759
0.000576759
0.000586729
0.000586729
0.000596496
0.000596496
0.000606087
0.000606087
0.000615526
0.000615526
0.000624836
0.000624836
0.000634035
0.000634035
0.000643139
0.000643139
0.000652158
0.000652158
0.000661097
0.000661097
0.000669959
0.000669959
0.000678739
0.000678739
0.000687431
0.000687431
0.000696023
0.000696023
0.0007045
0.0007045
0.000712844
0.000712844
0.000721035
0.000721035
0.000729052
0.000729052
0.000736874
0.000736874
0.000744483
0.000744483
0.00075186
0.00075186
0.000758995
0.000758995
0.000765881
0.000765881
0.000772519
0.000772519
0.000778921
0.000778921
0.000785104
0.000785104
0.000791096
0.000791096
0.000796935
0.000796935
0.000802665
0.000802665
0.000808333
0.000808333
0.000813995
0.000813995
0.000819704
0.000819704
0.000825516
0.000825516
0.000831484
0.000831484
0.00083766
0.00083766
0.000844093
0.000844093
0.000850829
0.000850829
0.000857909
0.000857909
0.000865376
0.000865376
0.000873268
0.000873268
0.000881623
0.000881623
0.000890481
0.000890481
0.000899881
0.000899881
0.000909864
0.000909864
0.000920473
0.000920473
0.000931753
0.000931753
0.000943751
0.000943751
0.000956514
0.000956514
0.000970092
0.000970092
0.000984532
0.000984532
0.000999882
0.000999882
0.00101619
0.00101619
0.00103349
0.00103349
0.00105184
0.00105184
0.00107127
0.00107127
0.00109181
0.00109181
0.0011135
0.0011135
0.00113635
0.00113635
0.0011604
0.0011604
0.00118567
0.00118567
0.00121216
0.00121216
0.0012399
0.0012399
0.00126889
0.00126889
0.00129915
0.00129915
0.00133068
0.00133068
0.0013635
0.0013635
0.0013976
0.0013976
0.001433
0.001433
0.0014697
0.0014697
0.00150771
0.00150771
0.00154703
0.00154703
0.00158766
0.00158766
0.00162961
0.00162961
0.00167286
0.00167286
0.00171742
0.00171742
0.00176325
0.00176325
0.00181035
0.00181035
0.00185868
0.00185868
0.00190819
0.00190819
0.00195884
0.00195884
0.00201055
0.00201055
0.00206325
0.00206325
0.00211684
0.00211684
0.00217122
0.00217122
0.00222624
0.00222624
0.00228176
0.00228176
0.00233761
0.00233761
0.00239362
0.00239362
0.00244959
0.00244959
0.00250531
0.00250531
0.00256057
0.00256057
0.00261518
0.00261518
0.00266892
0.00266892
0.00272163
0.00272163
0.00277314
0.00277314
0.00282332
0.00282332
0.00287205
0.00287205
0.00291925
0.00291925
0.00296489
0.00296489
0.00300894
0.00300894
0.00305142
0.00305142
0.00309236
0.00309236
0.00313183
0.00313183
0.0031699
0.0031699
0.00320667
0.00320667
0.00324225
0.00324225
0.00327676
0.00327676
0.00331035
0.00331035
0.00334314
0.00334314
0.00337528
0.00337528
0.00340692
0.00340692
0.00343823
0.00343823
0.00346937
0.00346937
0.0035005
0.0035005
0.0035318
0.0035318
0.00356346
0.00356346
0.00359567
0.00359567
0.00362862
0.00362862
0.0036625
0.0036625
0.00369751
0.00369751
0.00373384
0.00373384
0.00377167
0.00377167
0.00381117
0.00381117
0.00385248
0.00385248
0.00389573
0.00389573
0.00394103
0.00394103
0.00398843
0.00398843
0.00403798
0.00403798
0.00408969
0.00408969
0.00414351
0.00414351
0.00419938
0.00419938
0.00425716
0.00425716
0.00431668
0.00431668
0.00437773
0.00437773
0.00444003
0.00444003
0.00450327
0.00450327
0.00456713
0.00456713
0.00463126
0.00463126
0.00469532
0.00469532
0.00475901
0.00475901
0.00482207
0.00482207
0.00488428
0.00488428
0.00494552
0.00494552
0.00500572
0.00500572
0.00506488
0.00506488
0.00512304
0.00512304
0.0051803
0.0051803
0.00523679
0.00523679
0.00529263
0.00529263
0.00534796
0.00534796
0.00540289
0.00540289
0.00545753
0.00545753
0.00551194
0.00551194
0.00556616
0.00556616
0.0056202
0.0056202
0.00567404
0.00567404
0.00572764
0.00572764
0.00578093
0.00578093
0.00583383
0.00583383
0.00588624
0.00588624
0.00593806
0.00593806
0.00598918
0.00598918
0.0060395
0.0060395
0.00608894
0.00608894
0.00613742
0.00613742
0.00618487
0.00618487
0.00623124
0.00623124
0.00627653
0.00627653
0.00632074
0.00632074
0.00636388
0.00636388
0.00640602
0.00640602
0.00644724
0.00644724
0.00648761
0.00648761
0.00652724
0.00652724
0.00656624
0.00656624
0.00660472
0.00660472
0.00664278
0.00664278
0.00668054
0.00668054
0.00671808
0.00671808
0.00675549
0.00675549
0.00679284
0.00679284
0.00683023
0.00683023
0.00686773
0.00686773
0.00690543
0.00690543
0.00694341
0.00694341
0.00698179
0.00698179
0.00702066
0.00702066
0.00706013
0.00706013
0.0071003
0.0071003
0.00714127
0.00714127
0.00718311
0.00718311
0.00722586
0.00722586
0.00726956
0.00726956
0.00731417
0.00731417
0.00735964
0.00735964
0.00740589
0.00740589
0.00745277
0.00745277
0.00750013
0.00750013
0.00754776
0.00754776
0.00759546
0.00759546
0.00764301
0.00764301
0.00769021
0.00769021
0.00773687
0.00773687
0.00778282
0.00778282
0.00782795
0.00782795
0.00787217
0.00787217
0.00791544
0.00791544
0.00795776
0.00795776
0.00799915
0.00799915
0.00803963
0.00803963
0.00807921
0.00807921
0.00811787
0.00811787
0.00815554
0.00815554
0.00819205
0.00819205
0.00822714
0.00822714
0.00826042
0.00826042
0.00829137
0.00829137
0.00831933
0.00831933
0.00834356
0.00834356
0.00836321
0.00836321
0.00837749
0.00837749
0.00838581
0.00838581
0.00838804
0.00838804
0.00838293
0.00838293
9.83008e-14
9.83008e-14
1.04121e-13
1.04121e-13
5.23418e-13
5.23418e-13
3.58749e-12
3.58749e-12
1.63343e-11
1.63343e-11
5.49086e-11
5.49086e-11
1.50212e-10
1.50212e-10
3.55043e-10
3.55043e-10
7.52914e-10
7.52914e-10
1.46878e-09
1.46878e-09
2.68191e-09
2.68191e-09
4.6412e-09
4.6412e-09
7.68322e-09
7.68322e-09
1.22533e-08
1.22533e-08
1.89298e-08
1.89298e-08
2.84525e-08
2.84525e-08
4.17547e-08
4.17547e-08
5.99991e-08
5.99991e-08
8.46197e-08
8.46197e-08
1.17367e-07
1.17367e-07
1.60357e-07
1.60357e-07
2.16131e-07
2.16131e-07
2.87709e-07
2.87709e-07
3.7866e-07
3.7866e-07
4.93165e-07
4.93165e-07
6.36089e-07
6.36089e-07
8.13052e-07
8.13052e-07
1.0305e-06
1.0305e-06
1.29577e-06
1.29577e-06
1.61715e-06
1.61715e-06
2.00395e-06
2.00395e-06
2.46651e-06
2.46651e-06
3.01625e-06
3.01625e-06
3.66566e-06
3.66566e-06
4.42829e-06
4.42829e-06
5.31868e-06
5.31868e-06
6.35229e-06
6.35229e-06
7.5454e-06
7.5454e-06
8.91495e-06
8.91495e-06
1.04783e-05
1.04783e-05
1.22533e-05
1.22533e-05
1.42575e-05
1.42575e-05
1.65085e-05
1.65085e-05
1.90235e-05
1.90235e-05
2.18187e-05
2.18187e-05
2.49096e-05
2.49096e-05
2.83104e-05
2.83104e-05
3.20341e-05
3.20341e-05
3.60922e-05
3.60922e-05
4.0495e-05
4.0495e-05
4.52514e-05
4.52514e-05
5.03691e-05
5.03691e-05
5.58551e-05
5.58551e-05
6.1716e-05
6.1716e-05
6.79585e-05
6.79585e-05
7.45903e-05
7.45903e-05
8.16213e-05
8.16213e-05
8.90647e-05
8.90647e-05
9.69379e-05
9.69379e-05
0.000105262
0.000105262
0.000114063
0.000114063
0.000123366
0.000123366
0.000133193
0.000133193
0.000143561
0.000143561
0.00015448
0.00015448
0.000165946
0.000165946
0.000177946
0.000177946
0.000190457
0.000190457
0.000203446
0.000203446
0.000216871
0.000216871
0.000230684
0.000230684
0.000244832
0.000244832
0.000259258
0.000259258
0.000273906
0.000273906
0.000288716
0.000288716
0.000303632
0.000303632
0.000318599
0.000318599
0.000333564
0.000333564
0.000348479
0.000348479
0.000363298
0.000363298
0.000377981
0.000377981
0.000392493
0.000392493
0.000406801
0.000406801
0.000420878
0.000420878
0.0004347
0.0004347
0.000448247
0.000448247
0.000461501
0.000461501
0.000474449
0.000474449
0.00048708
0.00048708
0.000499387
0.000499387
0.000511368
0.000511368
0.000523022
0.000523022
0.000534355
0.000534355
0.000545379
0.000545379
0.000556107
0.000556107
0.00056656
0.00056656
0.000576758
0.000576758
0.000586728
0.000586728
0.000596496
0.000596496
0.000606087
0.000606087
0.000615526
0.000615526
0.000624836
0.000624836
0.000634035
0.000634035
0.000643139
0.000643139
0.000652158
0.000652158
0.000661097
0.000661097
0.000669959
0.000669959
0.000678739
0.000678739
0.000687431
0.000687431
0.000696023
0.000696023
0.0007045
0.0007045
0.000712843
0.000712843
0.000721034
0.000721034
0.000729052
0.000729052
0.000736874
0.000736874
0.000744483
0.000744483
0.00075186
0.00075186
0.000758995
0.000758995
0.000765881
0.000765881
0.000772519
0.000772519
0.000778921
0.000778921
0.000785103
0.000785103
0.000791096
0.000791096
0.000796935
0.000796935
0.000802665
0.000802665
0.000808333
0.000808333
0.000813995
0.000813995
0.000819704
0.000819704
0.000825515
0.000825515
0.000831484
0.000831484
0.00083766
0.00083766
0.000844093
0.000844093
0.000850829
0.000850829
0.000857909
0.000857909
0.000865376
0.000865376
0.000873268
0.000873268
0.000881623
0.000881623
0.000890481
0.000890481
0.00089988
0.00089988
0.000909863
0.000909863
0.000920473
0.000920473
0.000931753
0.000931753
0.000943751
0.000943751
0.000956514
0.000956514
0.000970091
0.000970091
0.000984531
0.000984531
0.000999881
0.000999881
0.00101619
0.00101619
0.00103349
0.00103349
0.00105184
0.00105184
0.00107127
0.00107127
0.00109181
0.00109181
0.0011135
0.0011135
0.00113635
0.00113635
0.0011604
0.0011604
0.00118566
0.00118566
0.00121216
0.00121216
0.0012399
0.0012399
0.00126889
0.00126889
0.00129915
0.00129915
0.00133068
0.00133068
0.0013635
0.0013635
0.0013976
0.0013976
0.001433
0.001433
0.0014697
0.0014697
0.00150771
0.00150771
0.00154703
0.00154703
0.00158766
0.00158766
0.00162961
0.00162961
0.00167286
0.00167286
0.00171742
0.00171742
0.00176325
0.00176325
0.00181035
0.00181035
0.00185868
0.00185868
0.00190819
0.00190819
0.00195884
0.00195884
0.00201055
0.00201055
0.00206325
0.00206325
0.00211684
0.00211684
0.00217121
0.00217121
0.00222623
0.00222623
0.00228176
0.00228176
0.00233761
0.00233761
0.00239362
0.00239362
0.00244959
0.00244959
0.00250531
0.00250531
0.00256057
0.00256057
0.00261518
0.00261518
0.00266892
0.00266892
0.00272163
0.00272163
0.00277314
0.00277314
0.00282332
0.00282332
0.00287204
0.00287204
0.00291925
0.00291925
0.00296489
0.00296489
0.00300894
0.00300894
0.00305142
0.00305142
0.00309236
0.00309236
0.00313183
0.00313183
0.00316989
0.00316989
0.00320666
0.00320666
0.00324225
0.00324225
0.00327676
0.00327676
0.00331035
0.00331035
0.00334314
0.00334314
0.00337528
0.00337528
0.00340692
0.00340692
0.00343823
0.00343823
0.00346937
0.00346937
0.0035005
0.0035005
0.0035318
0.0035318
0.00356346
0.00356346
0.00359567
0.00359567
0.00362861
0.00362861
0.0036625
0.0036625
0.00369751
0.00369751
0.00373384
0.00373384
0.00377167
0.00377167
0.00381117
0.00381117
0.00385248
0.00385248
0.00389573
0.00389573
0.00394102
0.00394102
0.00398843
0.00398843
0.00403798
0.00403798
0.00408969
0.00408969
0.00414351
0.00414351
0.00419937
0.00419937
0.00425716
0.00425716
0.00431668
0.00431668
0.00437773
0.00437773
0.00444003
0.00444003
0.00450327
0.00450327
0.00456713
0.00456713
0.00463126
0.00463126
0.00469532
0.00469532
0.00475901
0.00475901
0.00482207
0.00482207
0.00488428
0.00488428
0.00494552
0.00494552
0.00500572
0.00500572
0.00506488
0.00506488
0.00512304
0.00512304
0.0051803
0.0051803
0.00523679
0.00523679
0.00529263
0.00529263
0.00534796
0.00534796
0.00540289
0.00540289
0.00545753
0.00545753
0.00551193
0.00551193
0.00556615
0.00556615
0.0056202
0.0056202
0.00567404
0.00567404
0.00572764
0.00572764
0.00578093
0.00578093
0.00583383
0.00583383
0.00588624
0.00588624
0.00593805
0.00593805
0.00598918
0.00598918
0.0060395
0.0060395
0.00608894
0.00608894
0.00613742
0.00613742
0.00618487
0.00618487
0.00623124
0.00623124
0.00627653
0.00627653
0.00632074
0.00632074
0.00636388
0.00636388
0.00640602
0.00640602
0.00644723
0.00644723
0.0064876
0.0064876
0.00652724
0.00652724
0.00656624
0.00656624
0.00660472
0.00660472
0.00664278
0.00664278
0.00668054
0.00668054
0.00671808
0.00671808
0.00675549
0.00675549
0.00679284
0.00679284
0.00683023
0.00683023
0.00686773
0.00686773
0.00690543
0.00690543
0.00694341
0.00694341
0.00698179
0.00698179
0.00702066
0.00702066
0.00706013
0.00706013
0.0071003
0.0071003
0.00714127
0.00714127
0.00718311
0.00718311
0.00722586
0.00722586
0.00726955
0.00726955
0.00731417
0.00731417
0.00735964
0.00735964
0.00740589
0.00740589
0.00745277
0.00745277
0.00750012
0.00750012
0.00754776
0.00754776
0.00759546
0.00759546
0.00764301
0.00764301
0.00769021
0.00769021
0.00773687
0.00773687
0.00778282
0.00778282
0.00782795
0.00782795
0.00787217
0.00787217
0.00791544
0.00791544
0.00795776
0.00795776
0.00799915
0.00799915
0.00803962
0.00803962
0.00807921
0.00807921
0.00811787
0.00811787
0.00815554
0.00815554
0.00819205
0.00819205
0.00822714
0.00822714
0.00826042
0.00826042
0.00829137
0.00829137
0.00831933
0.00831933
0.00834356
0.00834356
0.00836321
0.00836321
0.00837749
0.00837749
0.00838582
0.00838582
0.00838804
0.00838804
0.00838293
0.00838293
0.00838293
0.00838293
0.00838805
0.00838805
0.00838583
0.00838583
0.00837751
0.00837751
0.00836323
0.00836323
0.00834358
0.00834358
0.00831936
0.00831936
0.0082914
0.0082914
0.00826045
0.00826045
0.00822716
0.00822716
0.00819206
0.00819206
0.00815554
0.00815554
0.00811787
0.00811787
0.0080792
0.0080792
0.00803962
0.00803962
0.00799915
0.00799915
0.00795778
0.00795778
0.00791546
0.00791546
0.0078722
0.0078722
0.00782798
0.00782798
0.00778285
0.00778285
0.0077369
0.0077369
0.00769025
0.00769025
0.00764305
0.00764305
0.0075955
0.0075955
0.00754779
0.00754779
0.00750016
0.00750016
0.0074528
0.0074528
0.00740591
0.00740591
0.00735966
0.00735966
0.00731418
0.00731418
0.00726956
0.00726956
0.00722586
0.00722586
0.00718311
0.00718311
0.00714127
0.00714127
0.00710031
0.00710031
0.00706014
0.00706014
0.00702067
0.00702067
0.0069818
0.0069818
0.00694342
0.00694342
0.00690544
0.00690544
0.00686774
0.00686774
0.00683024
0.00683024
0.00679286
0.00679286
0.0067555
0.0067555
0.0067181
0.0067181
0.00668056
0.00668056
0.0066428
0.0066428
0.00660474
0.00660474
0.00656625
0.00656625
0.00652725
0.00652725
0.00648762
0.00648762
0.00644724
0.00644724
0.00640603
0.00640603
0.00636389
0.00636389
0.00632074
0.00632074
0.00627653
0.00627653
0.00623124
0.00623124
0.00618486
0.00618486
0.00613741
0.00613741
0.00608893
0.00608893
0.00603948
0.00603948
0.00598916
0.00598916
0.00593804
0.00593804
0.00588622
0.00588622
0.00583381
0.00583381
0.00578092
0.00578092
0.00572763
0.00572763
0.00567403
0.00567403
0.00562018
0.00562018
0.00556614
0.00556614
0.00551193
0.00551193
0.00545752
0.00545752
0.00540288
0.00540288
0.00534795
0.00534795
0.00529262
0.00529262
0.00523677
0.00523677
0.00518028
0.00518028
0.00512302
0.00512302
0.00506485
0.00506485
0.0050057
0.0050057
0.0049455
0.0049455
0.00488426
0.00488426
0.00482205
0.00482205
0.004759
0.004759
0.00469531
0.00469531
0.00463125
0.00463125
0.00456712
0.00456712
0.00450326
0.00450326
0.00444002
0.00444002
0.00437772
0.00437772
0.00431667
0.00431667
0.00425715
0.00425715
0.00419937
0.00419937
0.0041435
0.0041435
0.00408967
0.00408967
0.00403797
0.00403797
0.00398841
0.00398841
0.00394101
0.00394101
0.00389572
0.00389572
0.00385247
0.00385247
0.00381115
0.00381115
0.00377166
0.00377166
0.00373382
0.00373382
0.00369749
0.00369749
0.00366248
0.00366248
0.0036286
0.0036286
0.00359565
0.00359565
0.00356345
0.00356345
0.00353179
0.00353179
0.00350048
0.00350048
0.00346935
0.00346935
0.00343822
0.00343822
0.00340691
0.00340691
0.00337526
0.00337526
0.00334312
0.00334312
0.00331033
0.00331033
0.00327675
0.00327675
0.00324223
0.00324223
0.00320665
0.00320665
0.00316988
0.00316988
0.00313181
0.00313181
0.00309234
0.00309234
0.0030514
0.0030514
0.00300892
0.00300892
0.00296487
0.00296487
0.00291923
0.00291923
0.00287202
0.00287202
0.0028233
0.0028233
0.00277312
0.00277312
0.00272161
0.00272161
0.0026689
0.0026689
0.00261515
0.00261515
0.00256055
0.00256055
0.00250529
0.00250529
0.00244957
0.00244957
0.0023936
0.0023936
0.00233759
0.00233759
0.00228174
0.00228174
0.00222622
0.00222622
0.0021712
0.0021712
0.00211683
0.00211683
0.00206324
0.00206324
0.00201054
0.00201054
0.00195883
0.00195883
0.00190818
0.00190818
0.00185867
0.00185867
0.00181034
0.00181034
0.00176325
0.00176325
0.00171741
0.00171741
0.00167286
0.00167286
0.0016296
0.0016296
0.00158766
0.00158766
0.00154703
0.00154703
0.00150771
0.00150771
0.0014697
0.0014697
0.001433
0.001433
0.0013976
0.0013976
0.0013635
0.0013635
0.00133068
0.00133068
0.00129915
0.00129915
0.00126889
0.00126889
0.0012399
0.0012399
0.00121216
0.00121216
0.00118567
0.00118567
0.00116041
0.00116041
0.00113636
0.00113636
0.00111351
0.00111351
0.00109182
0.00109182
0.00107128
0.00107128
0.00105186
0.00105186
0.00103351
0.00103351
0.0010162
0.0010162
0.000999897
0.000999897
0.000984548
0.000984548
0.000970109
0.000970109
0.000956532
0.000956532
0.000943769
0.000943769
0.000931772
0.000931772
0.000920492
0.000920492
0.000909883
0.000909883
0.000899901
0.000899901
0.000890501
0.000890501
0.000881644
0.000881644
0.000873289
0.000873289
0.000865398
0.000865398
0.000857931
0.000857931
0.000850851
0.000850851
0.000844116
0.000844116
0.000837684
0.000837684
0.000831508
0.000831508
0.00082554
0.00082554
0.000819728
0.000819728
0.00081402
0.00081402
0.000808359
0.000808359
0.000802691
0.000802691
0.000796962
0.000796962
0.000791124
0.000791124
0.000785132
0.000785132
0.000778949
0.000778949
0.000772549
0.000772549
0.000765911
0.000765911
0.000759026
0.000759026
0.000751892
0.000751892
0.000744516
0.000744516
0.000736908
0.000736908
0.000729087
0.000729086
0.00072107
0.00072107
0.000712879
0.000712879
0.000704536
0.000704536
0.00069606
0.00069606
0.000687469
0.000687469
0.000678777
0.000678777
0.000669997
0.000669997
0.000661135
0.000661135
0.000652196
0.000652196
0.000643178
0.000643177
0.000634074
0.000634074
0.000624875
0.000624875
0.000615565
0.000615565
0.000606126
0.000606126
0.000596534
0.000596534
0.000586766
0.000586766
0.000576796
0.000576796
0.000566597
0.000566597
0.000556144
0.000556144
0.000545415
0.000545415
0.000534391
0.000534391
0.000523057
0.000523057
0.000511403
0.000511403
0.000499423
0.000499423
0.000487116
0.000487116
0.000474484
0.000474484
0.000461536
0.000461536
0.000448281
0.000448281
0.000434734
0.000434734
0.000420912
0.000420912
0.000406834
0.000406834
0.000392525
0.000392525
0.000378013
0.000378013
0.000363328
0.000363328
0.000348508
0.000348508
0.000333593
0.000333593
0.000318627
0.000318627
0.00030366
0.00030366
0.000288743
0.000288743
0.000273932
0.000273932
0.000259284
0.000259284
0.000244856
0.000244856
0.000230707
0.000230707
0.000216893
0.000216893
0.000203467
0.000203467
0.000190477
0.000190477
0.000177965
0.000177965
0.000165963
0.000165963
0.000154496
0.000154496
0.000143576
0.000143576
0.000133205
0.000133205
0.000123377
0.000123377
0.000114073
0.000114073
0.000105271
0.000105271
9.6945e-05
9.6945e-05
8.90708e-05
8.90708e-05
8.16265e-05
8.16265e-05
7.45948e-05
7.45948e-05
6.79623e-05
6.79623e-05
6.17193e-05
6.17193e-05
5.58579e-05
5.58579e-05
5.03715e-05
5.03715e-05
4.52535e-05
4.52535e-05
4.04968e-05
4.04968e-05
3.60938e-05
3.60938e-05
3.20354e-05
3.20354e-05
2.83116e-05
2.83116e-05
2.49106e-05
2.49106e-05
2.18195e-05
2.18195e-05
1.90242e-05
1.90242e-05
1.65091e-05
1.65091e-05
1.4258e-05
1.4258e-05
1.22537e-05
1.22537e-05
1.04787e-05
1.04787e-05
8.91528e-06
8.91528e-06
7.54568e-06
7.54568e-06
6.35253e-06
6.35253e-06
5.31887e-06
5.31887e-06
4.42845e-06
4.42845e-06
3.6658e-06
3.6658e-06
3.01636e-06
3.01636e-06
2.4666e-06
2.4666e-06
2.00403e-06
2.00403e-06
1.61721e-06
1.61721e-06
1.29582e-06
1.29582e-06
1.03054e-06
1.03054e-06
8.13083e-07
8.13083e-07
6.36113e-07
6.36113e-07
4.93183e-07
4.93183e-07
3.78674e-07
3.78674e-07
2.8772e-07
2.8772e-07
2.16139e-07
2.16139e-07
1.60363e-07
1.60363e-07
1.17371e-07
1.17371e-07
8.4623e-08
8.4623e-08
6.00014e-08
6.00014e-08
4.17562e-08
4.17562e-08
2.84536e-08
2.84536e-08
1.89305e-08
1.89305e-08
1.22537e-08
1.22537e-08
7.68351e-09
7.68351e-09
4.64137e-09
4.64137e-09
2.68201e-09
2.68201e-09
1.46883e-09
1.46883e-09
7.52942e-10
7.52942e-10
3.55057e-10
3.55057e-10
1.50218e-10
1.50218e-10
5.49107e-11
5.49107e-11
1.63349e-11
1.63349e-11
3.58761e-12
3.58761e-12
5.23435e-13
5.23435e-13
1.04124e-13
1.04124e-13
9.83033e-14
9.83033e-14
0.00838293
0.00838293
0.00838805
0.00838805
0.00838583
0.00838583
0.00837751
0.00837751
0.00836323
0.00836323
0.00834358
0.00834358
0.00831936
0.00831936
0.0082914
0.00829139
0.00826044
0.00826044
0.00822715
0.00822715
0.00819206
0.00819206
0.00815554
0.00815554
0.00811786
0.00811786
0.0080792
0.0080792
0.00803962
0.00803962
0.00799915
0.00799915
0.00795778
0.00795778
0.00791546
0.00791546
0.00787219
0.00787219
0.00782798
0.00782798
0.00778285
0.00778285
0.0077369
0.0077369
0.00769025
0.00769025
0.00764305
0.00764305
0.0075955
0.0075955
0.00754779
0.00754779
0.00750016
0.00750016
0.0074528
0.0074528
0.00740591
0.00740591
0.00735966
0.00735966
0.00731418
0.00731418
0.00726956
0.00726956
0.00722586
0.00722586
0.0071831
0.0071831
0.00714127
0.00714127
0.0071003
0.0071003
0.00706014
0.00706014
0.00702067
0.00702067
0.0069818
0.0069818
0.00694342
0.00694342
0.00690544
0.00690544
0.00686774
0.00686774
0.00683024
0.00683024
0.00679286
0.00679286
0.0067555
0.0067555
0.0067181
0.0067181
0.00668056
0.00668056
0.0066428
0.0066428
0.00660473
0.00660473
0.00656625
0.00656625
0.00652725
0.00652725
0.00648762
0.00648762
0.00644724
0.00644724
0.00640603
0.00640603
0.00636389
0.00636389
0.00632074
0.00632074
0.00627653
0.00627653
0.00623124
0.00623124
0.00618486
0.00618486
0.00613741
0.00613741
0.00608893
0.00608893
0.00603948
0.00603948
0.00598916
0.00598916
0.00593803
0.00593803
0.00588622
0.00588622
0.00583381
0.00583381
0.00578092
0.00578092
0.00572763
0.00572763
0.00567402
0.00567402
0.00562018
0.00562018
0.00556614
0.00556614
0.00551192
0.00551192
0.00545752
0.00545752
0.00540288
0.00540288
0.00534795
0.00534795
0.00529261
0.00529261
0.00523677
0.00523677
0.00518028
0.00518028
0.00512301
0.00512301
0.00506485
0.00506485
0.0050057
0.0050057
0.0049455
0.0049455
0.00488426
0.00488426
0.00482205
0.00482205
0.004759
0.004759
0.00469531
0.00469531
0.00463125
0.00463125
0.00456712
0.00456712
0.00450326
0.00450326
0.00444002
0.00444002
0.00437772
0.00437772
0.00431667
0.00431667
0.00425715
0.00425715
0.00419936
0.00419936
0.0041435
0.0041435
0.00408967
0.00408967
0.00403797
0.00403797
0.00398841
0.00398841
0.00394101
0.00394101
0.00389572
0.00389572
0.00385247
0.00385247
0.00381115
0.00381115
0.00377166
0.00377166
0.00373382
0.00373382
0.00369749
0.00369749
0.00366248
0.00366248
0.0036286
0.0036286
0.00359565
0.00359565
0.00356344
0.00356344
0.00353178
0.00353178
0.00350048
0.00350048
0.00346935
0.00346935
0.00343822
0.00343822
0.00340691
0.00340691
0.00337526
0.00337526
0.00334312
0.00334312
0.00331033
0.00331033
0.00327675
0.00327675
0.00324223
0.00324223
0.00320665
0.00320665
0.00316988
0.00316988
0.00313181
0.00313181
0.00309234
0.00309234
0.0030514
0.0030514
0.00300892
0.00300892
0.00296487
0.00296487
0.00291923
0.00291923
0.00287202
0.00287202
0.0028233
0.0028233
0.00277312
0.00277312
0.00272161
0.00272161
0.0026689
0.0026689
0.00261515
0.00261515
0.00256055
0.00256055
0.00250529
0.00250529
0.00244957
0.00244957
0.0023936
0.0023936
0.00233759
0.00233759
0.00228174
0.00228174
0.00222622
0.00222622
0.0021712
0.0021712
0.00211683
0.00211683
0.00206324
0.00206324
0.00201054
0.00201054
0.00195882
0.00195882
0.00190818
0.00190818
0.00185867
0.00185867
0.00181034
0.00181034
0.00176324
0.00176324
0.00171741
0.00171741
0.00167286
0.00167286
0.0016296
0.0016296
0.00158766
0.00158766
0.00154703
0.00154703
0.00150771
0.00150771
0.0014697
0.0014697
0.001433
0.001433
0.0013976
0.0013976
0.0013635
0.0013635
0.00133068
0.00133068
0.00129915
0.00129915
0.00126889
0.00126889
0.0012399
0.0012399
0.00121216
0.00121216
0.00118567
0.00118567
0.00116041
0.00116041
0.00113636
0.00113636
0.00111351
0.00111351
0.00109182
0.00109182
0.00107128
0.00107128
0.00105186
0.00105186
0.00103351
0.00103351
0.0010162
0.0010162
0.000999897
0.000999897
0.000984548
0.000984548
0.000970109
0.000970109
0.000956532
0.000956532
0.000943769
0.000943769
0.000931772
0.000931772
0.000920492
0.000920492
0.000909883
0.000909883
0.000899901
0.000899901
0.000890501
0.000890501
0.000881644
0.000881644
0.000873289
0.000873289
0.000865397
0.000865397
0.000857931
0.000857931
0.000850851
0.000850851
0.000844116
0.000844116
0.000837684
0.000837684
0.000831508
0.000831508
0.00082554
0.00082554
0.000819728
0.000819728
0.00081402
0.00081402
0.000808359
0.000808359
0.00080269
0.00080269
0.000796962
0.000796962
0.000791123
0.000791123
0.000785132
0.000785132
0.000778949
0.000778949
0.000772549
0.000772549
0.000765911
0.000765911
0.000759026
0.000759026
0.000751892
0.000751892
0.000744516
0.000744516
0.000736908
0.000736908
0.000729086
0.000729086
0.00072107
0.00072107
0.000712879
0.000712879
0.000704536
0.000704536
0.00069606
0.00069606
0.000687468
0.000687468
0.000678777
0.000678777
0.000669997
0.000669997
0.000661135
0.000661135
0.000652196
0.000652196
0.000643177
0.000643177
0.000634074
0.000634074
0.000624875
0.000624875
0.000615565
0.000615565
0.000606126
0.000606126
0.000596534
0.000596534
0.000586766
0.000586766
0.000576796
0.000576796
0.000566596
0.000566596
0.000556144
0.000556144
0.000545415
0.000545415
0.000534391
0.000534391
0.000523057
0.000523057
0.000511403
0.000511403
0.000499423
0.000499423
0.000487116
0.000487116
0.000474484
0.000474484
0.000461536
0.000461536
0.000448281
0.000448281
0.000434734
0.000434734
0.000420911
0.000420911
0.000406834
0.000406834
0.000392525
0.000392525
0.000378013
0.000378013
0.000363328
0.000363328
0.000348508
0.000348508
0.000333593
0.000333593
0.000318627
0.000318627
0.00030366
0.00030366
0.000288743
0.000288743
0.000273932
0.000273932
0.000259284
0.000259284
0.000244856
0.000244856
0.000230707
0.000230707
0.000216893
0.000216893
0.000203467
0.000203467
0.000190477
0.000190477
0.000177965
0.000177965
0.000165963
0.000165963
0.000154496
0.000154496
0.000143576
0.000143576
0.000133205
0.000133205
0.000123377
0.000123377
0.000114073
0.000114073
0.000105271
0.000105271
9.6945e-05
9.6945e-05
8.90708e-05
8.90708e-05
8.16265e-05
8.16265e-05
7.45948e-05
7.45948e-05
6.79623e-05
6.79623e-05
6.17193e-05
6.17193e-05
5.58579e-05
5.58579e-05
5.03715e-05
5.03715e-05
4.52535e-05
4.52535e-05
4.04968e-05
4.04968e-05
3.60938e-05
3.60938e-05
3.20354e-05
3.20354e-05
2.83116e-05
2.83116e-05
2.49106e-05
2.49106e-05
2.18195e-05
2.18195e-05
1.90242e-05
1.90242e-05
1.65091e-05
1.65091e-05
1.4258e-05
1.4258e-05
1.22537e-05
1.22537e-05
1.04787e-05
1.04787e-05
8.91528e-06
8.91528e-06
7.54568e-06
7.54568e-06
6.35253e-06
6.35253e-06
5.31887e-06
5.31887e-06
4.42845e-06
4.42845e-06
3.6658e-06
3.6658e-06
3.01636e-06
3.01636e-06
2.4666e-06
2.4666e-06
2.00403e-06
2.00403e-06
1.61721e-06
1.61721e-06
1.29582e-06
1.29582e-06
1.03054e-06
1.03054e-06
8.13083e-07
8.13083e-07
6.36113e-07
6.36113e-07
4.93183e-07
4.93183e-07
3.78674e-07
3.78674e-07
2.8772e-07
2.8772e-07
2.16139e-07
2.16139e-07
1.60363e-07
1.60363e-07
1.17371e-07
1.17371e-07
8.46229e-08
8.46229e-08
6.00014e-08
6.00014e-08
4.17562e-08
4.17562e-08
2.84536e-08
2.84536e-08
1.89305e-08
1.89305e-08
1.22537e-08
1.22537e-08
7.68351e-09
7.68351e-09
4.64137e-09
4.64137e-09
2.682e-09
2.682e-09
1.46883e-09
1.46883e-09
7.52942e-10
7.52942e-10
3.55057e-10
3.55057e-10
1.50218e-10
1.50218e-10
5.49106e-11
5.49106e-11
1.63349e-11
1.63349e-11
3.58761e-12
3.58761e-12
5.23435e-13
5.23435e-13
1.04124e-13
1.04124e-13
9.83033e-14
9.83033e-14
)
;

boundaryField
{
    walls
    {
        type            nutUWallFunction;