/*--------------------------------*- C++ -*----------------------------------*\
| =========                 |                                                 |
| \\      /  F ield         | OpenFOAM: The Open Source CFD Toolbox           |
|  \\    /   O peration     | Version:  2012                                  |
|   \\  /    A nd           | Website:  www.openfoam.com                      |
|    \\/     M anipulation  |                                                 |
\*---------------------------------------------------------------------------*/
FoamFile
{
    version     2.0;
    format      ascii;
    class       volScalarField;
    location    "16000";
    object      k;
}
// * * * * * * * * * * * * * * * * * * * * * * * * * * * * * * * * * * * * * //

dimensions      [0 2 -2 0 0 0 0];


internalField   nonuniform List<scalar> 
5120
(
3.82392e-08
3.82392e-08
5.89963e-09
5.89963e-09
3.55371e-09
3.55371e-09
7.49539e-09
7.49539e-09
1.78752e-08
1.78752e-08
3.71878e-08
3.71878e-08
6.86055e-08
6.86055e-08
1.15719e-07
1.15719e-07
1.82478e-07
1.82478e-07
2.73169e-07
2.73169e-07
3.92416e-07
3.92416e-07
5.45179e-07
5.45179e-07
7.36759e-07
7.36759e-07
9.72805e-07
9.72805e-07
1.25932e-06
1.25932e-06
1.60267e-06
1.60267e-06
2.00959e-06
2.00959e-06
2.48721e-06
2.48721e-06
3.04305e-06
3.04305e-06
3.68502e-06
3.68502e-06
4.42147e-06
4.42147e-06
5.26116e-06
5.26116e-06
6.21331e-06
6.21331e-06
7.28758e-06
7.28758e-06
8.49412e-06
8.49412e-06
9.84353e-06
9.84353e-06
1.13469e-05
1.13469e-05
1.3016e-05
1.3016e-05
1.48628e-05
1.48628e-05
1.69001e-05
1.69001e-05
1.91411e-05
1.91411e-05
2.15997e-05
2.15997e-05
2.42903e-05
2.42903e-05
2.72277e-05
2.72277e-05
3.04278e-05
3.04278e-05
3.39066e-05
3.39066e-05
3.76812e-05
3.76812e-05
4.17689e-05
4.17689e-05
4.6188e-05
4.6188e-05
5.09574e-05
5.09574e-05
5.60965e-05
5.60965e-05
6.16257e-05
6.16257e-05
6.75657e-05
6.75657e-05
7.39384e-05
7.39384e-05
8.07658e-05
8.07658e-05
8.80712e-05
8.80712e-05
9.58781e-05
9.58781e-05
0.000104211
0.000104211
0.000113095
0.000113095
0.000122556
0.000122556
0.00013262
0.00013262
0.000143314
0.000143314
0.000154667
0.000154667
0.000166705
0.000166705
0.000179458
0.000179458
0.000192956
0.000192956
0.000207227
0.000207227
0.000222302
0.000222302
0.000238211
0.000238211
0.000254986
0.000254986
0.000272656
0.000272656
0.000291254
0.000291254
0.000310809
0.000310809
0.000331353
0.000331353
0.000352916
0.000352916
0.000375529
0.000375529
0.000399222
0.000399222
0.000424024
0.000424024
0.000449963
0.000449963
0.000477069
0.000477069
0.000505366
0.000505366
0.000534882
0.000534882
0.00056564
0.00056564
0.000597664
0.000597664
0.000630974
0.000630974
0.000665589
0.000665589
0.000701528
0.000701528
0.000738806
0.000738806
0.000777435
0.000777435
0.000817427
0.000817427
0.000858789
0.000858789
0.000901526
0.000901526
0.000945641
0.000945641
0.000991133
0.000991133
0.001038
0.001038
0.00108623
0.00108623
0.00113582
0.00113582
0.00118676
0.00118676
0.00123902
0.00123902
0.00129259
0.00129259
0.00134745
0.00134745
0.00140357
0.00140357
0.00146092
0.00146092
0.00151946
0.00151946
0.00157918
0.00157918
0.00164001
0.00164001
0.00170193
0.00170193
0.0017649
0.0017649
0.00182886
0.00182886
0.00189377
0.00189377
0.00195958
0.00195958
0.00202624
0.00202624
0.0020937
0.0020937
0.0021619
0.0021619
0.00223078
0.00223078
0.0023003
0.0023003
0.00237039
0.00237039
0.00244099
0.00244099
0.00251206
0.00251206
0.00258352
0.00258352
0.00265533
0.00265533
0.00272743
0.00272743
0.00279976
0.00279976
0.00287226
0.00287226
0.00294488
0.00294488
0.00301756
0.00301756
0.00309026
0.00309026
0.00316292
0.00316292
0.00323548
0.00323548
0.00330791
0.00330791
0.00338015
0.00338015
0.00345215
0.00345215
0.00352388
0.00352388
0.00359528
0.00359528
0.00366633
0.00366633
0.00373697
0.00373697
0.00380718
0.00380718
0.0038769
0.0038769
0.00394612
0.00394612
0.0040148
0.0040148
0.00408291
0.00408291
0.00415041
0.00415041
0.00421728
0.00421728
0.0042835
0.0042835
0.00434904
0.00434904
0.00441388
0.00441388
0.00447799
0.00447799
0.00454137
0.00454137
0.00460398
0.00460398
0.00466581
0.00466581
0.00472685
0.00472685
0.00478708
0.00478708
0.00484648
0.00484648
0.00490506
0.00490506
0.00496279
0.00496279
0.00501967
0.00501967
0.00507568
0.00507568
0.00513083
0.00513083
0.0051851
0.0051851
0.00523848
0.00523848
0.00529098
0.00529098
0.00534258
0.00534258
0.00539329
0.00539329
0.0054431
0.0054431
0.00549201
0.00549201
0.00554002
0.00554002
0.00558712
0.00558712
0.00563332
0.00563332
0.00567861
0.00567861
0.005723
0.005723
0.00576649
0.00576649
0.00580908
0.00580908
0.00585077
0.00585077
0.00589156
0.00589156
0.00593147
0.00593147
0.00597047
0.00597047
0.0060086
0.0060086
0.00604583
0.00604583
0.00608219
0.00608219
0.00611768
0.00611768
0.00615229
0.00615229
0.00618603
0.00618603
0.00621891
0.00621891
0.00625093
0.00625093
0.00628211
0.00628211
0.00631243
0.00631243
0.00634191
0.00634191
0.00637056
0.00637056
0.00639837
0.00639837
0.00642536
0.00642536
0.00645153
0.00645153
0.00647689
0.00647689
0.00650144
0.00650144
0.00652519
0.00652519
0.00654814
0.00654814
0.0065703
0.0065703
0.00659168
0.00659168
0.00661229
0.00661229
0.00663212
0.00663212
0.00665119
0.00665119
0.0066695
0.0066695
0.00668706
0.00668706
0.00670388
0.00670388
0.00671996
0.00671996
0.0067353
0.0067353
0.00674992
0.00674992
0.00676382
0.00676382
0.00677701
0.00677701
0.00678949
0.00678949
0.00680127
0.00680127
0.00681236
0.00681236
0.00682276
0.00682276
0.00683249
0.00683249
0.00684153
0.00684153
0.00684992
0.00684992
0.00685764
0.00685764
0.0068647
0.0068647
0.00687112
0.00687112
0.0068769
0.0068769
0.00688204
0.00688204
0.00688655
0.00688655
0.00689044
0.00689044
0.00689372
0.00689372
0.00689639
0.00689639
0.00689845
0.00689845
0.00689992
0.00689992
0.0069008
0.0069008
0.00690109
0.00690109
0.00690081
0.00690081
0.00689995
0.00689995
0.00689853
0.00689853
0.00689655
0.00689655
0.00689402
0.00689402
0.00689095
0.00689095
0.00688733
0.00688733
0.00688318
0.00688318
0.0068785
0.0068785
0.00687331
0.00687331
0.00686759
0.00686759
0.00686137
0.00686137
0.00685465
0.00685465
0.00684742
0.00684742
0.00683971
0.00683971
0.00683152
0.00683152
0.00682284
0.00682284
0.0068137
0.0068137
0.00680409
0.00680409
0.00679401
0.00679401
0.00678349
0.00678349
0.00677251
0.00677251
0.0067611
0.0067611
0.00674924
0.00674924
0.00673696
0.00673696
0.00672425
0.00672425
0.00671113
0.00671113
0.00669759
0.00669759
0.00668365
0.00668365
0.0066693
0.0066693
0.00665456
0.00665456
0.00663943
0.00663943
0.00662392
0.00662392
0.00660803
0.00660803
0.00659177
0.00659177
0.00657514
0.00657514
0.00655815
0.00655815
0.00654081
0.00654081
0.00652312
0.00652312
0.00650508
0.00650508
0.00648671
0.00648671
0.00646801
0.00646801
0.00644898
0.00644898
0.00642962
0.00642962
0.00640996
0.00640996
0.00638998
0.00638998
0.0063697
0.0063697
0.00634912
0.00634912
0.00632824
0.00632824
0.00630708
0.00630708
0.00628563
0.00628563
0.00626391
0.00626391
0.00624192
0.00624192
0.00621965
0.00621965
0.00619713
0.00619713
0.00617435
0.00617435
0.00615132
0.00615132
0.00612805
0.00612805
0.00610453
0.00610453
0.00608078
0.00608078
0.0060568
0.0060568
0.00603259
0.00603259
0.00600816
0.00600816
0.00598352
0.00598352
0.00595867
0.00595867
0.00593361
0.00593361
0.00590836
0.00590836
0.0058829
0.0058829
0.00585726
0.00585726
0.00583143
0.00583143
0.00580542
0.00580542
0.00577924
0.00577924
0.00575288
0.00575288
0.00572636
0.00572636
0.00569968
0.00569968
0.00567284
0.00567284
0.00564584
0.00564584
0.0056187
0.0056187
0.00559142
0.00559142
0.005564
0.005564
0.00553644
0.00553644
0.00550875
0.00550875
0.00548094
0.00548094
0.00545301
0.00545301
0.00542496
0.00542496
0.00539679
0.00539679
0.00536852
0.00536852
0.00534015
0.00534015
0.00531167
0.00531167
0.00528311
0.00528311
0.00525444
0.00525444
0.0052257
0.0052257
0.00519686
0.00519686
0.00516795
0.00516795
0.00513897
0.00513897
0.00510991
0.00510991
0.00508079
0.00508079
0.0050516
0.0050516
0.00502235
0.00502235
0.00499305
0.00499305
0.00496369
0.00496369
0.00493429
0.00493429
0.00490484
0.00490484
0.00487535
0.00487535
0.00484582
0.00484582
0.00481626
0.00481626
0.00478666
0.00478666
0.00475704
0.00475704
0.0047274
0.0047274
0.00469774
0.00469774
0.00466806
0.00466806
0.00463836
0.00463836
0.00460866
0.00460866
0.00457895
0.00457895
0.00454923
0.00454923
0.00451951
0.00451951
0.0044898
0.0044898
0.00446009
0.00446009
0.00443039
0.00443039
0.0044007
0.0044007
0.00437102
0.00437102
0.00434136
0.00434136
0.00431173
0.00431173
0.00428211
0.00428211
0.00425252
0.00425252
0.00422296
0.00422296
0.00419343
0.00419343
0.00416393
0.00416393
0.00413447
0.00413447
0.00410505
0.00410505
0.00407567
0.00407567
0.00404634
0.00404634
0.00401705
0.00401705
0.00398781
0.00398781
0.00395862
0.00395862
0.00392948
0.00392948
0.0039004
0.0039004
0.00387138
0.00387138
0.00384242
0.00384242
0.00381352
0.00381352
0.00378469
0.00378469
0.00375592
0.00375592
0.00372723
0.00372723
0.0036986
0.0036986
0.00367005
0.00367005
0.00364157
0.00364157
0.00361317
0.00361317
0.00358484
0.00358484
0.0035566
0.0035566
0.00352844
0.00352844
0.00350037
0.00350037
0.00347238
0.00347238
0.00344447
0.00344447
0.00341666
0.00341666
0.00338894
0.00338894
0.00336131
0.00336131
0.00333377
0.00333377
0.00330633
0.00330633
0.00327899
0.00327899
0.00325175
0.00325175
0.0032246
0.0032246
0.00319756
0.00319756
0.00317062
0.00317062
0.00314379
0.00314379
0.00311706
0.00311706
0.00309043
0.00309043
0.00306392
0.00306392
0.00303751
0.00303751
0.00301121
0.00301121
0.00298503
0.00298503
0.00295895
0.00295895
0.002933
0.002933
0.00290715
0.00290715
0.00288142
0.00288142
0.00285581
0.00285581
0.00283031
0.00283031
0.00280494
0.00280494
0.00277968
0.00277968
0.00275454
0.00275454
0.00272953
0.00272953
0.00270463
0.00270463
0.00267986
0.00267986
0.00265521
0.00265521
0.00263068
0.00263068
0.00260628
0.00260628
0.00258201
0.00258201
0.00255786
0.00255786
0.00253384
0.00253384
0.00250994
0.00250994
0.00248618
0.00248618
0.00246254
0.00246254
0.00243903
0.00243903
0.00241565
0.00241565
0.00239239
0.00239239
0.00236927
0.00236927
0.00234628
0.00234628
0.00232342
0.00232342
0.00230069
0.00230069
0.0022781
0.0022781
0.00225563
0.00225563
0.0022333
0.0022333
0.0022111
0.0022111
0.00218904
0.00218904
0.0021671
0.0021671
0.0021453
0.0021453
0.00212364
0.00212364
0.0021021
0.0021021
0.0020807
0.0020807
0.00205944
0.00205944
0.00203831
0.00203831
0.00201731
0.00201731
0.00199645
0.00199645
0.00197572
0.00197572
0.00195513
0.00195513
0.00193467
0.00193467
0.00191435
0.00191435
0.00189416
0.00189416
0.00187411
0.00187411
0.00185419
0.00185419
0.0018344
0.0018344
0.00181475
0.00181475
0.00179524
0.00179524
0.00177586
0.00177586
0.00175661
0.00175661
0.0017375
0.0017375
0.00171852
0.00171852
0.00169968
0.00169968
0.00168097
0.00168097
0.00166239
0.00166239
0.00164395
0.00164395
0.00162564
0.00162564
0.00160746
0.00160746
0.00158942
0.00158942
0.00157151
0.00157151
0.00155373
0.00155373
0.00153609
0.00153609
0.00151857
0.00151857
0.00150119
0.00150119
0.00148395
0.00148395
0.00146683
0.00146683
0.00144985
0.00144985
0.00143299
0.00143299
0.00141627
0.00141627
0.00139968
0.00139968
0.00138322
0.00138322
0.00136688
0.00136688
0.00135068
0.00135068
0.00133461
0.00133461
0.00131867
0.00131867
0.00130285
0.00130285
0.00128717
0.00128717
0.00127161
0.00127161
0.00125619
0.00125619
0.00124089
0.00124089
0.00122571
0.00122571
0.00121067
0.00121067
0.00119575
0.00119575
0.00118096
0.00118096
0.0011663
0.0011663
0.00115176
0.00115176
0.00113735
0.00113735
0.00112306
0.00112306
0.0011089
0.0011089
0.00109486
0.00109486
0.00108095
0.00108095
0.00106717
0.00106717
0.0010535
0.0010535
0.00103997
0.00103997
0.00102655
0.00102655
0.00101326
0.00101326
0.00100009
0.00100009
0.000987048
0.000987048
0.000974126
0.000974126
0.000961326
0.000961326
0.000948649
0.000948649
0.000936094
0.000936094
0.000923661
0.000923661
0.000911349
0.000911349
0.000899158
0.000899158
0.000887089
0.000887089
0.000875141
0.000875141
0.000863313
0.000863313
0.000851606
0.000851606
0.000840019
0.000840019
0.000828552
0.000828552
0.000817205
0.000817205
0.000805978
0.000805978
0.00079487
0.00079487
0.000783882
0.000783882
0.000773014
0.000773014
0.000762264
0.000762264
0.000751633
0.000751633
0.000741121
0.000741121
0.000730728
0.000730728
0.000720453
0.000720453
0.000710297
0.000710297
0.000700259
0.000700259
0.000690339
0.000690339
0.000680537
0.000680537
0.000670853
0.000670853
0.000661287
0.000661287
0.000651838
0.000651838
0.000642507
0.000642507
0.000633293
0.000633293
0.000624197
0.000624197
0.000615217
0.000615218
0.000606355
0.000606355
0.00059761
0.00059761
0.000588982
0.000588982
0.00058047
0.00058047
0.000572074
0.000572074
0.000563795
0.000563795
0.000555633
0.000555633
0.000547586
0.000547586
0.000539655
0.000539655
0.00053184
0.00053184
0.00052414
0.00052414
0.000516556
0.000516556
0.000509087
0.000509087
0.000501733
0.000501733
0.000494493
0.000494493
0.000487368
0.000487368
0.000480357
0.000480357
0.000473459
0.000473459
0.000466675
0.000466675
0.000460004
0.000460004
0.000453446
0.000453446
0.000447
0.000447
0.000440667
0.000440667
0.000434445
0.000434445
0.000428333
0.000428333
0.000422333
0.000422333
0.000416442
0.000416442
0.000410661
0.000410661
0.000404989
0.000404989
0.000399426
0.000399426
0.00039397
0.00039397
0.000388621
0.000388621
0.000383378
0.000383378
0.000378241
0.000378241
0.000373209
0.000373209
0.000368281
0.000368281
0.000363455
0.000363455
0.000358733
0.000358733
0.000354111
0.000354111
0.00034959
0.00034959
0.000345168
0.000345168
0.000340845
0.000340845
0.000336619
0.000336619
0.00033249
0.00033249
0.000328456
0.000328456
0.000324515
0.000324515
0.000320668
0.000320668
0.000316913
0.000316913
0.000313247
0.000313247
0.000309671
0.000309671
0.000306183
0.000306183
0.000302782
0.000302782
0.000299466
0.000299466
0.000296234
0.000296234
0.000293085
0.000293085
0.000290017
0.000290017
0.000287028
0.000287028
0.000284119
0.000284119
0.000281286
0.000281286
0.000278529
0.000278529
0.000275846
0.000275846
0.000273236
0.000273236
0.000270697
0.000270697
0.000268228
0.000268228
0.000265828
0.000265828
0.000263495
0.000263495
0.000261228
0.000261228
0.000259025
0.000259025
0.000256884
0.000256884
0.000254806
0.000254806
0.000252787
0.000252788
0.000250828
0.000250828
0.000248926
0.000248926
0.000247081
0.000247081
0.00024529
0.00024529
0.000243553
0.000243553
0.000241869
0.000241869
0.000240237
0.000240237
0.000238654
0.000238654
0.000237121
0.000237121
0.000235636
0.000235636
0.000234199
0.000234199
0.000232807
0.000232807
0.000231461
0.000231461
0.000230159
0.000230159
0.000228901
0.000228901
0.000227685
0.000227685
0.000226512
0.000226512
0.00022538
0.00022538
0.000224288
0.000224288
0.000223237
0.000223237
0.000222225
0.000222225
0.000221253
0.000221253
0.000220319
0.000220319
0.000219424
0.000219424
0.000218567
0.000218567
0.000217748
0.000217748
0.000216967
0.000216967
0.000216223
0.000216223
0.000215517
0.000215517
0.000214849
0.000214849
0.000214219
0.000214219
0.000213627
0.000213627
0.000213073
0.000213073
0.000212558
0.000212558
0.000212082
0.000212082
0.000211646
0.000211646
0.000211249
0.000211249
0.000210894
0.000210894
0.000210579
0.000210579
0.000210307
0.000210307
0.000210078
0.000210078
0.000209893
0.000209893
0.000209752
0.000209752
0.000209658
0.000209658
0.00020961
0.00020961
3.82392e-08
3.82392e-08
5.89963e-09
5.89963e-09
3.55371e-09
3.55371e-09
7.49539e-09
7.49539e-09
1.78752e-08
1.78752e-08
3.71878e-08
3.71878e-08
6.86055e-08
6.86055e-08
1.15719e-07
1.15719e-07
1.82478e-07
1.82478e-07
2.73169e-07
2.73169e-07
3.92416e-07
3.92416e-07
5.45179e-07
5.45179e-07
7.36759e-07
7.36759e-07
9.72805e-07
9.72805e-07
1.25932e-06
1.25932e-06
1.60267e-06
1.60267e-06
2.00959e-06
2.00959e-06
2.48721e-06
2.48721e-06
3.04305e-06
3.04305e-06
3.68502e-06
3.68502e-06
4.42147e-06
4.42147e-06
5.26116e-06
5.26116e-06
6.21331e-06
6.21331e-06
7.28758e-06
7.28758e-06
8.49412e-06
8.49412e-06
9.84353e-06
9.84353e-06
1.13469e-05
1.13469e-05
1.3016e-05
1.3016e-05
1.48628e-05
1.48628e-05
1.69001e-05
1.69001e-05
1.91411e-05
1.91411e-05
2.15997e-05
2.15997e-05
2.42903e-05
2.42903e-05
2.72277e-05
2.72277e-05
3.04278e-05
3.04278e-05
3.39066e-05
3.39066e-05
3.76812e-05
3.76812e-05
4.17689e-05
4.17689e-05
4.6188e-05
4.6188e-05
5.09574e-05
5.09574e-05
5.60965e-05
5.60965e-05
6.16257e-05
6.16257e-05
6.75657e-05
6.75657e-05
7.39384e-05
7.39384e-05
8.07658e-05
8.07658e-05
8.80712e-05
8.80712e-05
9.58781e-05
9.58781e-05
0.000104211
0.000104211
0.000113095
0.000113095
0.000122556
0.000122556
0.00013262
0.00013262
0.000143314
0.000143314
0.000154667
0.000154667
0.000166705
0.000166705
0.000179458
0.000179458
0.000192956
0.000192956
0.000207227
0.000207227
0.000222302
0.000222302
0.000238211
0.000238211
0.000254986
0.000254986
0.000272656
0.000272656
0.000291254
0.000291254
0.000310809
0.000310809
0.000331353
0.000331353
0.000352916
0.000352916
0.000375529
0.000375529
0.000399222
0.000399222
0.000424024
0.000424024
0.000449963
0.000449963
0.000477069
0.000477069
0.000505366
0.000505366
0.000534882
0.000534882
0.00056564
0.00056564
0.000597664
0.000597664
0.000630974
0.000630974
0.000665589
0.000665589
0.000701528
0.000701528
0.000738806
0.000738806
0.000777435
0.000777435
0.000817427
0.000817427
0.000858789
0.000858789
0.000901526
0.000901526
0.000945641
0.000945641
0.000991133
0.000991133
0.001038
0.001038
0.00108623
0.00108623
0.00113582
0.00113582
0.00118676
0.00118676
0.00123902
0.00123902
0.00129259
0.00129259
0.00134745
0.00134745
0.00140357
0.00140357
0.00146092
0.00146092
0.00151946
0.00151946
0.00157918
0.00157918
0.00164001
0.00164001
0.00170193
0.00170193
0.0017649
0.0017649
0.00182886
0.00182886
0.00189377
0.00189377
0.00195958
0.00195958
0.00202624
0.00202624
0.0020937
0.0020937
0.0021619
0.0021619
0.00223078
0.00223078
0.0023003
0.0023003
0.00237039
0.00237039
0.00244099
0.00244099
0.00251206
0.00251206
0.00258352
0.00258352
0.00265533
0.00265533
0.00272743
0.00272743
0.00279976
0.00279976
0.00287226
0.00287226
0.00294488
0.00294488
0.00301756
0.00301756
0.00309026
0.00309026
0.00316292
0.00316292
0.00323548
0.00323548
0.00330791
0.00330791
0.00338015
0.00338015
0.00345215
0.00345215
0.00352388
0.00352388
0.00359528
0.00359528
0.00366633
0.00366633
0.00373697
0.00373697
0.00380718
0.00380718
0.0038769
0.0038769
0.00394612
0.00394612
0.0040148
0.0040148
0.00408291
0.00408291
0.00415041
0.00415041
0.00421728
0.00421728
0.0042835
0.0042835
0.00434904
0.00434904
0.00441388
0.00441388
0.00447799
0.00447799
0.00454137
0.00454137
0.00460398
0.00460398
0.00466581
0.00466581
0.00472685
0.00472685
0.00478708
0.00478708
0.00484648
0.00484648
0.00490506
0.00490506
0.00496279
0.00496279
0.00501967
0.00501967
0.00507568
0.00507568
0.00513083
0.00513083
0.0051851
0.0051851
0.00523848
0.00523848
0.00529098
0.00529098
0.00534258
0.00534258
0.00539329
0.00539329
0.0054431
0.0054431
0.00549201
0.00549201
0.00554002
0.00554002
0.00558712
0.00558712
0.00563332
0.00563332
0.00567861
0.00567861
0.005723
0.005723
0.00576649
0.00576649
0.00580908
0.00580908
0.00585077
0.00585077
0.00589156
0.00589156
0.00593147
0.00593147
0.00597047
0.00597047
0.0060086
0.0060086
0.00604583
0.00604583
0.00608219
0.00608219
0.00611768
0.00611768
0.00615229
0.00615229
0.00618603
0.00618603
0.00621891
0.00621891
0.00625093
0.00625093
0.00628211
0.00628211
0.00631243
0.00631243
0.00634191
0.00634191
0.00637056
0.00637056
0.00639837
0.00639837
0.00642536
0.00642536
0.00645153
0.00645153
0.00647689
0.00647689
0.00650144
0.00650144
0.00652519
0.00652519
0.00654814
0.00654814
0.0065703
0.0065703
0.00659168
0.00659168
0.00661229
0.00661229
0.00663212
0.00663212
0.00665119
0.00665119
0.0066695
0.0066695
0.00668706
0.00668706
0.00670388
0.00670388
0.00671996
0.00671996
0.0067353
0.0067353
0.00674992
0.00674992
0.00676382
0.00676382
0.00677701
0.00677701
0.00678949
0.00678949
0.00680127
0.00680127
0.00681236
0.00681236
0.00682276
0.00682276
0.00683249
0.00683249
0.00684153
0.00684153
0.00684992
0.00684992
0.00685764
0.00685764
0.0068647
0.0068647
0.00687112
0.00687112
0.0068769
0.0068769
0.00688204
0.00688204
0.00688655
0.00688655
0.00689044
0.00689044
0.00689372
0.00689372
0.00689639
0.00689639
0.00689845
0.00689845
0.00689992
0.00689992
0.0069008
0.0069008
0.00690109
0.00690109
0.00690081
0.00690081
0.00689995
0.00689995
0.00689853
0.00689853
0.00689655
0.00689655
0.00689402
0.00689402
0.00689095
0.00689095
0.00688733
0.00688733
0.00688318
0.00688318
0.0068785
0.0068785
0.00687331
0.00687331
0.00686759
0.00686759
0.00686137
0.00686137
0.00685465
0.00685465
0.00684742
0.00684742
0.00683971
0.00683971
0.00683152
0.00683152
0.00682284
0.00682284
0.0068137
0.0068137
0.00680409
0.00680409
0.00679401
0.00679401
0.00678349
0.00678349
0.00677251
0.00677251
0.0067611
0.0067611
0.00674924
0.00674924
0.00673696
0.00673696
0.00672425
0.00672425
0.00671113
0.00671113
0.00669759
0.00669759
0.00668365
0.00668365
0.0066693
0.0066693
0.00665456
0.00665456
0.00663943
0.00663943
0.00662392
0.00662392
0.00660803
0.00660803
0.00659177
0.00659177
0.00657514
0.00657514
0.00655815
0.00655815
0.00654081
0.00654081
0.00652312
0.00652312
0.00650508
0.00650508
0.00648671
0.00648671
0.00646801
0.00646801
0.00644898
0.00644898
0.00642962
0.00642962
0.00640996
0.00640996
0.00638998
0.00638998
0.0063697
0.0063697
0.00634912
0.00634912
0.00632824
0.00632824
0.00630708
0.00630708
0.00628563
0.00628563
0.00626391
0.00626391
0.00624192
0.00624192
0.00621965
0.00621965
0.00619713
0.00619713
0.00617435
0.00617435
0.00615132
0.00615132
0.00612805
0.00612805
0.00610453
0.00610453
0.00608078
0.00608078
0.0060568
0.0060568
0.00603259
0.00603259
0.00600816
0.00600816
0.00598352
0.00598352
0.00595867
0.00595867
0.00593361
0.00593361
0.00590836
0.00590836
0.0058829
0.0058829
0.00585726
0.00585726
0.00583143
0.00583143
0.00580542
0.00580542
0.00577924
0.00577924
0.00575288
0.00575288
0.00572636
0.00572636
0.00569968
0.00569968
0.00567284
0.00567284
0.00564584
0.00564584
0.0056187
0.0056187
0.00559142
0.00559142
0.005564
0.005564
0.00553644
0.00553644
0.00550875
0.00550875
0.00548094
0.00548094
0.00545301
0.00545301
0.00542496
0.00542496
0.00539679
0.00539679
0.00536852
0.00536852
0.00534015
0.00534015
0.00531167
0.00531167
0.00528311
0.00528311
0.00525444
0.00525444
0.0052257
0.0052257
0.00519686
0.00519686
0.00516795
0.00516795
0.00513897
0.00513897
0.00510991
0.00510991
0.00508079
0.00508079
0.0050516
0.0050516
0.00502235
0.00502235
0.00499305
0.00499305
0.00496369
0.00496369
0.00493429
0.00493429
0.00490484
0.00490484
0.00487535
0.00487535
0.00484582
0.00484582
0.00481626
0.00481626
0.00478666
0.00478666
0.00475704
0.00475704
0.0047274
0.0047274
0.00469774
0.00469774
0.00466806
0.00466806
0.00463836
0.00463836
0.00460866
0.00460866
0.00457895
0.00457895
0.00454923
0.00454923
0.00451951
0.00451951
0.0044898
0.0044898
0.00446009
0.00446009
0.00443039
0.00443039
0.0044007
0.0044007
0.00437102
0.00437102
0.00434136
0.00434136
0.00431173
0.00431173
0.00428211
0.00428211
0.00425252
0.00425252
0.00422296
0.00422296
0.00419343
0.00419343
0.00416393
0.00416393
0.00413447
0.00413447
0.00410505
0.00410505
0.00407567
0.00407567
0.00404634
0.00404634
0.00401705
0.00401705
0.00398781
0.00398781
0.00395862
0.00395862
0.00392948
0.00392948
0.0039004
0.0039004
0.00387138
0.00387138
0.00384242
0.00384242
0.00381352
0.00381352
0.00378469
0.00378469
0.00375592
0.00375592
0.00372723
0.00372723
0.0036986
0.0036986
0.00367005
0.00367005
0.00364157
0.00364157
0.00361317
0.00361317
0.00358484
0.00358484
0.0035566
0.0035566
0.00352844
0.00352844
0.00350037
0.00350037
0.00347238
0.00347238
0.00344447
0.00344447
0.00341666
0.00341666
0.00338894
0.00338894
0.00336131
0.00336131
0.00333377
0.00333377
0.00330633
0.00330633
0.00327899
0.00327899
0.00325175
0.00325175
0.0032246
0.0032246
0.00319756
0.00319756
0.00317062
0.00317062
0.00314379
0.00314379
0.00311706
0.00311706
0.00309043
0.00309043
0.00306392
0.00306392
0.00303751
0.00303751
0.00301121
0.00301121
0.00298503
0.00298503
0.00295895
0.00295895
0.002933
0.002933
0.00290715
0.00290715
0.00288142
0.00288142
0.00285581
0.00285581
0.00283031
0.00283031
0.00280494
0.00280494
0.00277968
0.00277968
0.00275454
0.00275454
0.00272953
0.00272953
0.00270463
0.00270463
0.00267986
0.00267986
0.00265521
0.00265521
0.00263068
0.00263068
0.00260628
0.00260628
0.00258201
0.00258201
0.00255786
0.00255786
0.00253384
0.00253384
0.00250994
0.00250994
0.00248618
0.00248618
0.00246254
0.00246254
0.00243903
0.00243903
0.00241565
0.00241565
0.00239239
0.00239239
0.00236927
0.00236927
0.00234628
0.00234628
0.00232342
0.00232342
0.00230069
0.00230069
0.0022781
0.0022781
0.00225563
0.00225563
0.0022333
0.0022333
0.0022111
0.0022111
0.00218904
0.00218904
0.0021671
0.0021671
0.0021453
0.0021453
0.00212364
0.00212364
0.0021021
0.0021021
0.0020807
0.0020807
0.00205944
0.00205944
0.00203831
0.00203831
0.00201731
0.00201731
0.00199645
0.00199645
0.00197572
0.00197572
0.00195513
0.00195513
0.00193467
0.00193467
0.00191435
0.00191435
0.00189416
0.00189416
0.00187411
0.00187411
0.00185419
0.00185419
0.0018344
0.0018344
0.00181475
0.00181475
0.00179524
0.00179524
0.00177586
0.00177586
0.00175661
0.00175661
0.0017375
0.0017375
0.00171852
0.00171852
0.00169968
0.00169968
0.00168097
0.00168097
0.00166239
0.00166239
0.00164395
0.00164395
0.00162564
0.00162564
0.00160746
0.00160746
0.00158942
0.00158942
0.00157151
0.00157151
0.00155373
0.00155373
0.00153609
0.00153609
0.00151857
0.00151857
0.00150119
0.00150119
0.00148395
0.00148395
0.00146683
0.00146683
0.00144985
0.00144985
0.00143299
0.00143299
0.00141627
0.00141627
0.00139968
0.00139968
0.00138322
0.00138322
0.00136688
0.00136688
0.00135068
0.00135068
0.00133461
0.00133461
0.00131867
0.00131867
0.00130285
0.00130285
0.00128717
0.00128717
0.00127161
0.00127161
0.00125619
0.00125619
0.00124089
0.00124089
0.00122571
0.00122571
0.00121067
0.00121067
0.00119575
0.00119575
0.00118096
0.00118096
0.0011663
0.0011663
0.00115176
0.00115176
0.00113735
0.00113735
0.00112306
0.00112306
0.0011089
0.0011089
0.00109486
0.00109486
0.00108095
0.00108095
0.00106717
0.00106717
0.0010535
0.0010535
0.00103997
0.00103997
0.00102655
0.00102655
0.00101326
0.00101326
0.00100009
0.00100009
0.000987048
0.000987048
0.000974126
0.000974126
0.000961326
0.000961326
0.000948649
0.000948649
0.000936094
0.000936094
0.000923661
0.000923661
0.000911349
0.000911349
0.000899158
0.000899158
0.000887089
0.000887089
0.000875141
0.000875141
0.000863313
0.000863313
0.000851606
0.000851606
0.000840019
0.000840019
0.000828552
0.000828552
0.000817205
0.000817205
0.000805978
0.000805978
0.00079487
0.000794871
0.000783882
0.000783882
0.000773014
0.000773014
0.000762264
0.000762264
0.000751633
0.000751633
0.000741121
0.000741121
0.000730728
0.000730728
0.000720453
0.000720453
0.000710297
0.000710297
0.000700259
0.000700259
0.000690339
0.000690339
0.000680537
0.000680537
0.000670853
0.000670853
0.000661287
0.000661287
0.000651838
0.000651838
0.000642507
0.000642507
0.000633293
0.000633293
0.000624197
0.000624197
0.000615218
0.000615218
0.000606355
0.000606355
0.00059761
0.00059761
0.000588982
0.000588982
0.00058047
0.00058047
0.000572074
0.000572074
0.000563795
0.000563795
0.000555633
0.000555633
0.000547586
0.000547586
0.000539655
0.000539655
0.00053184
0.00053184
0.00052414
0.00052414
0.000516556
0.000516556
0.000509087
0.000509087
0.000501733
0.000501733
0.000494493
0.000494493
0.000487368
0.000487368
0.000480357
0.000480357
0.000473459
0.000473459
0.000466675
0.000466675
0.000460004
0.000460004
0.000453446
0.000453446
0.000447
0.000447001
0.000440667
0.000440667
0.000434445
0.000434445
0.000428333
0.000428333
0.000422333
0.000422333
0.000416442
0.000416442
0.000410662
0.000410662
0.000404989
0.00040499
0.000399426
0.000399426
0.00039397
0.00039397
0.000388621
0.000388621
0.000383378
0.000383378
0.000378241
0.000378241
0.000373209
0.000373209
0.000368281
0.000368281
0.000363455
0.000363455
0.000358733
0.000358733
0.000354111
0.000354111
0.00034959
0.00034959
0.000345168
0.000345168
0.000340845
0.000340845
0.000336619
0.000336619
0.00033249
0.00033249
0.000328456
0.000328456
0.000324515
0.000324515
0.000320668
0.000320668
0.000316913
0.000316913
0.000313247
0.000313247
0.000309671
0.000309671
0.000306183
0.000306183
0.000302782
0.000302782
0.000299466
0.000299466
0.000296234
0.000296234
0.000293085
0.000293085
0.000290017
0.000290017
0.000287028
0.000287028
0.000284119
0.000284119
0.000281286
0.000281286
0.000278529
0.000278529
0.000275846
0.000275846
0.000273236
0.000273236
0.000270697
0.000270697
0.000268228
0.000268228
0.000265828
0.000265828
0.000263495
0.000263495
0.000261228
0.000261228
0.000259025
0.000259025
0.000256884
0.000256884
0.000254806
0.000254806
0.000252788
0.000252788
0.000250828
0.000250828
0.000248926
0.000248926
0.000247081
0.000247081
0.00024529
0.00024529
0.000243553
0.000243553
0.000241869
0.000241869
0.000240237
0.000240237
0.000238654
0.000238654
0.000237121
0.000237121
0.000235636
0.000235636
0.000234199
0.000234199
0.000232807
0.000232807
0.000231461
0.000231461
0.000230159
0.000230159
0.000228901
0.000228901
0.000227685
0.000227685
0.000226512
0.000226512
0.00022538
0.00022538
0.000224288
0.000224288
0.000223237
0.000223237
0.000222225
0.000222225
0.000221253
0.000221253
0.000220319
0.000220319
0.000219424
0.000219424
0.000218567
0.000218567
0.000217748
0.000217748
0.000216967
0.000216967
0.000216223
0.000216223
0.000215517
0.000215517
0.000214849
0.000214849
0.000214219
0.000214219
0.000213627
0.000213627
0.000213073
0.000213073
0.000212558
0.000212558
0.000212082
0.000212082
0.000211646
0.000211646
0.000211249
0.000211249
0.000210894
0.000210894
0.000210579
0.000210579
0.000210307
0.000210307
0.000210078
0.000210078
0.000209893
0.000209893
0.000209752
0.000209752
0.000209658
0.000209658
0.00020961
0.00020961
0.00020961
0.00020961
0.000209658
0.000209658
0.000209752
0.000209752
0.000209893
0.000209893
0.000210078
0.000210078
0.000210307
0.000210307
0.000210579
0.000210579
0.000210893
0.000210893
0.000211249
0.000211249
0.000211645
0.000211645
0.000212082
0.000212082
0.000212558
0.000212558
0.000213073
0.000213073
0.000213627