/*--------------------------------*- C++ -*----------------------------------*\
| =========                 |                                                 |
| \\      /  F ield         | OpenFOAM: The Open Source CFD Toolbox           |
|  \\    /   O peration     | Version:  2012                                  |
|   \\  /    A nd           | Website:  www.openfoam.com                      |
|    \\/     M anipulation  |                                                 |
\*---------------------------------------------------------------------------*/
FoamFile
{
    version     2.0;
    format      ascii;
    class       volScalarField;
    location    "16000";
    object      omega;
}
// * * * * * * * * * * * * * * * * * * * * * * * * * * * * * * * * * * * * * //

dimensions      [0 0 -1 0 0 0 0];


internalField   nonuniform List<scalar> 
5120
(
5.74144e+06
5.74144e+06
1.00316e+06
1.00316e+06
342360
342360
162650
162650
92893.1
92893.1
59447.9
59447.9
41057.6
41057.6
29936.8
29936.8
22728.1
22728.1
17801.9
17801.9
14293.1
14293.1
11709.4
11709.4
9753.93
9753.93
8239.84
8239.84
7044.56
7044.56
6085.16
6085.16
5303.92
5303.92
4659.67
4659.67
4122.47
4122.47
3670.06
3670.06
3285.68
3285.68
2956.5
2956.5
2672.54
2672.54
2426
2426
2210.66
2210.66
2021.54
2021.54
1854.61
1854.61
1706.59
1706.59
1574.77
1574.77
1456.91
1456.91
1351.15
1351.15
1255.91
1255.91
1169.87
1169.87
1091.91
1091.91
1021.07
1021.07
956.533
956.533
897.588
897.588
843.625
843.625
794.113
794.113
748.591
748.591
706.654
706.654
667.947
667.947
632.158
632.158
599.012
599.012
568.264
568.264
539.696
539.696
513.117
513.117
488.354
488.354
465.252
465.252
443.673
443.673
423.492
423.492
404.597
404.597
386.886
386.886
370.269
370.269
354.662
354.662
339.989
339.989
326.182
326.182
313.179
313.179
300.921
300.921
289.357
289.357
278.439
278.439
268.122
268.122
258.367
258.367
249.137
249.137
240.396
240.396
232.114
232.114
224.261
224.261
216.81
216.81
209.736
209.736
203.017
203.017
196.629
196.629
190.554
190.554
184.773
184.773
179.268
179.268
174.023
174.023
169.023
169.023
164.253
164.253
159.702
159.702
155.355
155.355
151.202
151.202
147.231
147.231
143.433
143.433
139.798
139.798
136.317
136.317
132.981
132.981
129.783
129.783
126.715
126.715
123.77
123.77
120.941
120.941
118.222
118.222
115.607
115.607
113.092
113.092
110.669
110.669
108.336
108.336
106.086
106.086
103.916
103.916
101.822
101.822
99.7995
99.7995
97.845
97.845
95.9551
95.9551
94.1267
94.1267
92.3567
92.3567
90.6422
90.6422
88.9805
88.9805
87.3692
87.3692
85.8058
85.8058
84.2881
84.2881
82.814
82.814
81.3814
81.3814
79.9886
79.9886
78.6338
78.6338
77.3152
77.3152
76.0314
76.0314
74.7809
74.7809
73.5623
73.5623
72.3742
72.3742
71.2155
71.2155
70.085
70.085
68.9816
68.9816
67.9043
67.9043
66.8521
66.8521
65.824
65.824
64.8192
64.8192
63.8369
63.8369
62.8763
62.8763
61.9366
61.9366
61.0172
61.0172
60.1174
60.1174
59.2365
59.2365
58.374
58.374
57.5292
57.5292
56.7017
56.7017
55.8909
55.8909
55.0963
55.0963
54.3174
54.3174
53.5539
53.5539
52.8051
52.8051
52.0708
52.0708
51.3506
51.3506
50.644
50.644
49.9507
49.9507
49.2704
49.2704
48.6027
48.6027
47.9472
47.9472
47.3037
47.3037
46.6719
46.6719
46.0514
46.0514
45.442
45.442
44.8434
44.8434
44.2554
44.2554
43.6777
43.6777
43.1101
43.1101
42.5522
42.5522
42.004
42.004
41.4651
41.4651
40.9353
40.9353
40.4145
40.4145
39.9024
39.9024
39.3988
39.3988
38.9036
38.9036
38.4165
38.4165
37.9374
37.9374
37.4661
37.4661
37.0024
37.0024
36.5462
36.5462
36.0973
36.0973
35.6555
35.6555
35.2207
35.2207
34.7927
34.7927
34.3714
34.3714
33.9566
33.9566
33.5483
33.5483
33.1462
33.1462
32.7503
32.7503
32.3604
32.3604
31.9764
31.9764
31.5981
31.5981
31.2255
31.2255
30.8584
30.8584
30.4968
30.4968
30.1404
30.1404
29.7893
29.7893
29.4432
29.4432
29.1022
29.1022
28.7661
28.7661
28.4347
28.4347
28.1081
28.1081
27.7861
27.7861
27.4686
27.4686
27.1555
27.1555
26.8468
26.8468
26.5424
26.5424
26.2421
26.2421
25.946
25.946
25.6539
25.6539
25.3658
25.3658
25.0815
25.0815
24.801
24.801
24.5243
24.5243
24.2512
24.2512
23.9818
23.9818
23.7159
23.7159
23.4534
23.4534
23.1944
23.1944
22.9387
22.9387
22.6863
22.6863
22.4371
22.4371
22.1911
22.1911
21.9482
21.9482
21.7084
21.7084
21.4716
21.4716
21.2377
21.2377
21.0068
21.0068
20.7787
20.7787
20.5534
20.5534
20.3309
20.3309
20.1111
20.1111
19.8939
19.8939
19.6794
19.6794
19.4675
19.4675
19.2581
19.2581
19.0512
19.0512
18.8467
18.8467
18.6447
18.6447
18.4451
18.4451
18.2478
18.2478
18.0528
18.0528
17.86
17.86
17.6695
17.6695
17.4812
17.4812
17.2951
17.2951
17.1111
17.1111
16.9292
16.9292
16.7493
16.7493
16.5715
16.5715
16.3957
16.3957
16.2219
16.2219
16.05
16.05
15.8801
15.8801
15.712
15.712
15.5458
15.5458
15.3815
15.3815
15.2189
15.2189
15.0581
15.0581
14.8991
14.8991
14.7418
14.7418
14.5863
14.5863
14.4324
14.4324
14.2802
14.2802
14.1296
14.1296
13.9806
13.9806
13.8332
13.8332
13.6875
13.6875
13.5432
13.5432
13.4005
13.4005
13.2593
13.2593
13.1196
13.1196
12.9814
12.9814
12.8447
12.8447
12.7093
12.7093
12.5754
12.5754
12.4429
12.4429
12.3118
12.3118
12.182
12.182
12.0536
12.0536
11.9265
11.9265
11.8008
11.8008
11.6763
11.6763
11.5531
11.5531
11.4312
11.4312
11.3105
11.3105
11.1911
11.1911
11.0729
11.0729
10.9559
10.9559
10.8401
10.8401
10.7255
10.7255
10.612
10.612
10.4997
10.4997
10.3886
10.3886
10.2786
10.2786
10.1696
10.1696
10.0618
10.0618
9.95509
9.95509
9.84944
9.84944
9.74485
9.74485
9.64132
9.64132
9.53883
9.53883
9.43736
9.43736
9.33692
9.33692
9.23748
9.23748
9.13905
9.13905
9.04159
9.04159
8.94511
8.94511
8.8496
8.8496
8.75504
8.75504
8.66143
8.66143
8.56875
8.56875
8.47699
8.47699
8.38616
8.38616
8.29622
8.29622
8.20718
8.20718
8.11903
8.11903
8.03176
8.03176
7.94535
7.94535
7.85981
7.85981
7.77511
7.77511
7.69126
7.69126
7.60824
7.60824
7.52605
7.52605
7.44467
7.44467
7.36411
7.36411
7.28434
7.28434
7.20537
7.20537
7.12718
7.12718
7.04976
7.04976
6.97312
6.97312
6.89724
6.89724
6.82211
6.82211
6.74773
6.74773
6.67409
6.67409
6.60119
6.60119
6.529
6.529
6.45754
6.45754
6.38678
6.38678
6.31673
6.31673
6.24738
6.24738
6.17872
6.17872
6.11074
6.11074
6.04344
6.04344
5.97681
5.97681
5.91085
5.91085
5.84554
5.84554
5.78088
5.78088
5.71687
5.71687
5.6535
5.6535
5.59077
5.59077
5.52866
5.52866
5.46717
5.46717
5.4063
5.4063
5.34603
5.34603
5.28637
5.28637
5.22731
5.22731
5.16884
5.16884
5.11096
5.11096
5.05366
5.05366
4.99693
4.99693
4.94077
4.94077
4.88518
4.88518
4.83015
4.83015
4.77568
4.77568
4.72175
4.72175
4.66836
4.66836
4.61552
4.61552
4.56321
4.56321
4.51143
4.51143
4.46017
4.46017
4.40943
4.40943
4.3592
4.3592
4.30948
4.30948
4.26027
4.26027
4.21156
4.21156
4.16334
4.16334
4.11561
4.11561
4.06837
4.06837
4.0216
4.0216
3.97532
3.97532
3.9295
3.9295
3.88416
3.88416
3.83927
3.83927
3.79485
3.79485
3.75088
3.75088
3.70735
3.70735
3.66428
3.66428
3.62164
3.62164
3.57945
3.57945
3.53768
3.53768
3.49635
3.49635
3.45544
3.45544
3.41495
3.41495
3.37488
3.37488
3.33522
3.33522
3.29597
3.29597
3.25712
3.25712
3.21868
3.21868
3.18063
3.18063
3.14298
3.14298
3.10572
3.10572
3.06884
3.06884
3.03234
3.03234
2.99623
2.99623
2.96048
2.96048
2.92511
2.92511
2.89011
2.89011
2.85547
2.85547
2.82119
2.82119
2.78727
2.78727
2.7537
2.7537
2.72049
2.72049
2.68762
2.68762
2.65509
2.65509
2.6229
2.6229
2.59105
2.59105
2.55954
2.55954
2.52835
2.52835
2.49749
2.49749
2.46695
2.46695
2.43674
2.43674
2.40684
2.40684
2.37726
2.37726
2.34798
2.34798
2.31902
2.31902
2.29036
2.29036
2.262
2.262
2.23394
2.23394
2.20618
2.20618
2.17871
2.17871
2.15153
2.15153
2.12464
2.12464
2.09803
2.09803
2.07171
2.07171
2.04566
2.04566
2.01989
2.01989
1.99439
1.99439
1.96917
1.96917
1.94421
1.94421
1.91951
1.91951
1.89508
1.89508
1.87091
1.87091
1.84699
1.84699
1.82333
1.82333
1.79992
1.79992
1.77676
1.77676
1.75385
1.75385
1.73118
1.73118
1.70876
1.70876
1.68657
1.68657
1.66462
1.66462
1.6429
1.6429
1.62142
1.62142
1.60017
1.60017
1.57914
1.57914
1.55834
1.55834
1.53776
1.53776
1.51741
1.51741
1.49727
1.49727
1.47735
1.47735
1.45764
1.45764
1.43814
1.43814
1.41886
1.41886
1.39978
1.39978
1.3809
1.3809
1.36224
1.36224
1.34377
1.34377
1.3255
1.3255
1.30742
1.30742
1.28955
1.28955
1.27186
1.27186
1.25437
1.25437
1.23707
1.23707
1.21995
1.21995
1.20303
1.20303
1.18628
1.18628
1.16972
1.16972
1.15333
1.15333
1.13713
1.13713
1.1211
1.1211
1.10525
1.10525
1.08957
1.08957
1.07406
1.07406
1.05872
1.05872
1.04355
1.04355
1.02854
1.02854
1.0137
1.0137
0.999025
0.999025
0.98451
0.98451
0.970155
0.970155
0.955959
0.955959
0.941921
0.941921
0.928038
0.928038
0.914309
0.914309
0.900733
0.900733
0.887308
0.887308
0.874034
0.874034
0.860908
0.860908
0.847929
0.847929
0.835096
0.835096
0.822408
0.822408
0.809864
0.809864
0.797462
0.797462
0.7852
0.7852
0.773078
0.773078
0.761095
0.761095
0.749249
0.749249
0.73754
0.73754
0.725965
0.725965
0.714525
0.714525
0.703218
0.703218
0.692042
0.692042
0.680997
0.680997
0.670082
0.670082
0.659296
0.659296
0.648638
0.648638
0.638106
0.638106
0.627701
0.627701
0.61742
0.61742
0.607264
0.607264
0.597231
0.597231
0.58732
0.58732
0.577531
0.577531
0.567863
0.567863
0.558315
0.558315
0.548885
0.548885
0.539575
0.539575
0.530381
0.530381
0.521305
0.521305
0.512345
0.512345
0.503501
0.503501
0.494771
0.494771
0.486155
0.486155
0.477653
0.477653
0.469264
0.469264
0.460987
0.460987
0.452822
0.452822
0.444767
0.444767
0.436823
0.436823
0.428989
0.428989
0.421264
0.421264
0.413648
0.413648
0.406139
0.406139
0.398739
0.398739
0.391445
0.391445
0.384258
0.384258
0.377176
0.377176
0.3702
0.3702
0.363329
0.363329
0.356563
0.356563
0.3499
0.3499
0.34334
0.34334
0.336883
0.336883
0.330529
0.330529
0.324276
0.324276
0.318124
0.318124
0.312073
0.312073
0.306122
0.306122
0.30027
0.30027
0.294518
0.294518
0.288864
0.288864
0.283307
0.283307
0.277848
0.277848
0.272486
0.272486
0.267219
0.267219
0.262048
0.262048
0.256972
0.256972
0.25199
0.25199
0.247101
0.247101
0.242305
0.242305
0.237602
0.237602
0.232989
0.232989
0.228467
0.228467
0.224035
0.224035
0.219692
0.219692
0.215438
0.215438
0.211271
0.211271
0.207191
0.207191
0.203196
0.203196
0.199287
0.199287
0.195462
0.195462
0.19172
0.19172
0.18806
0.18806
0.184482
0.184482
0.180984
0.180984
0.177565
0.177565
0.174226
0.174226
0.170964
0.170964
0.167778
0.167778
0.164668
0.164668
0.161632
0.161632
0.15867
0.15867
0.15578
0.15578
0.152962
0.152962
0.150214
0.150214
0.147536
0.147536
0.144925
0.144925
0.142382
0.142382
0.139905
0.139905
0.137492
0.137492
0.135144
0.135144
0.132858
0.132858
0.130634
0.130634
0.128471
0.128471
0.126368
0.126368
0.124323
0.124323
0.122335
0.122335
0.120404
0.120404
0.118529
0.118529
0.116708
0.116708
0.11494
0.11494
0.113225
0.113225
0.111562
0.111562
0.109949
0.109949
0.108385
0.108385
0.106871
0.106871
0.105404
0.105404
0.103985
0.103985
0.102611
0.102611
0.101283
0.101283
0.1
0.1
0.0987603
0.0987603
0.0975638
0.0975638
0.0964096
0.0964096
0.0952971
0.0952972
0.0942257
0.0942257
0.0931948
0.0931948
0.0922036
0.0922036
0.0912518
0.0912518
0.0903387
0.0903387
0.089464
0.089464
0.088627
0.088627
0.0878275
0.0878275
0.087065
0.087065
0.0863392
0.0863393
0.0856499
0.0856499
0.0849966
0.0849966
0.0843792
0.0843792
0.0837975
0.0837975
0.0832514
0.0832514
0.0827407
0.0827407
0.0822654
0.0822654
0.0818255
0.0818255
0.081421
0.081421
0.0810519
0.0810519
0.0807184
0.0807184
0.0804207
0.0804207
0.0801589
0.0801589
0.0799333
0.0799333
0.0797442
0.0797442
0.079592
0.079592
0.0794771
0.0794771
0.0794
0.0794
0.0793611
0.0793611
5.74144e+06
5.74144e+06
1.00316e+06
1.00316e+06
342360
342360
162650
162650
92893.1
92893.1
59447.9
59447.9
41057.6
41057.6
29936.8
29936.8
22728.1
22728.1
17801.9
17801.9
14293.1
14293.1
11709.4
11709.4
9753.93
9753.93
8239.84
8239.84
7044.56
7044.56
6085.16
6085.16
5303.92
5303.92
4659.67
4659.67
4122.47
4122.47
3670.06
3670.06
3285.68
3285.68
2956.5
2956.5
2672.54
2672.54
2426
2426
2210.66
2210.66
2021.54
2021.54
1854.61
1854.61
1706.59
1706.59
1574.77
1574.77
1456.91
1456.91
1351.15
1351.15
1255.91
1255.91
1169.87
1169.87
1091.91
1091.91
1021.07
1021.07
956.533
956.533
897.588
897.588
843.625
843.625
794.113
794.113
748.591
748.591
706.654
706.654
667.947
667.947
632.158
632.158
599.012
599.012
568.264
568.264
539.696
539.696
513.117
513.117
488.354
488.354
465.252
465.252
443.673
443.673
423.492
423.492
404.597
404.597
386.886
386.886
370.269
370.269
354.662
354.662
339.989
339.989
326.182
326.182
313.179
313.179
300.921
300.921
289.357
289.357
278.439
278.439
268.122
268.122
258.367
258.367
249.137
249.137
240.396
240.396
232.114
232.114
224.261
224.261
216.81
216.81
209.736
209.736
203.017
203.017
196.629
196.629
190.554
190.554
184.773
184.773
179.268
179.268
174.023
174.023
169.023
169.023
164.253
164.253
159.702
159.702
155.355
155.355
151.202
151.202
147.231
147.231
143.433
143.433
139.798
139.798
136.317
136.317
132.981
132.981
129.783
129.783
126.715
126.715
123.77
123.77
120.941
120.941
118.222
118.222
115.607
115.607
113.092
113.092
110.669
110.669
108.336
108.336
106.086
106.086
103.916
103.916
101.822
101.822
99.7995
99.7995
97.845
97.845
95.9551
95.9551
94.1267
94.1267
92.3567
92.3567
90.6422
90.6422
88.9805
88.9805
87.3692
87.3692
85.8058
85.8058
84.2881
84.2881
82.814
82.814
81.3814
81.3814
79.9886
79.9886
78.6338
78.6338
77.3152
77.3152
76.0314
76.0314
74.7809
74.7809
73.5623
73.5623
72.3742
72.3742
71.2155
71.2155
70.085
70.085
68.9816
68.9816
67.9043
67.9043
66.8521
66.8521
65.824
65.824
64.8192
64.8192
63.8369
63.8369
62.8763
62.8763
61.9366
61.9366
61.0172
61.0172
60.1174
60.1174
59.2365
59.2365
58.374
58.374
57.5292
57.5292
56.7017
56.7017
55.8909
55.8909
55.0963
55.0963
54.3174
54.3174
53.5539
53.5539
52.8051
52.8051
52.0708
52.0708
51.3506
51.3506
50.644
50.644
49.9507
49.9507
49.2704
49.2704
48.6027
48.6027
47.9472
47.9472
47.3037
47.3037
46.6719
46.6719
46.0514
46.0514
45.442
45.442
44.8434
44.8434
44.2554
44.2554
43.6777
43.6777
43.1101
43.1101
42.5522
42.5522
42.004
42.004
41.4651
41.4651
40.9353
40.9353
40.4145
40.4145
39.9024
39.9024
39.3988
39.3988
38.9036
38.9036
38.4165
38.4165
37.9374
37.9374
37.4661
37.4661
37.0024
37.0024
36.5462
36.5462
36.0973
36.0973
35.6555
35.6555
35.2207
35.2207
34.7927
34.7927
34.3714
34.3714
33.9566
33.9566
33.5483
33.5483
33.1462
33.1462
32.7503
32.7503
32.3604
32.3604
31.9764
31.9764
31.5981
31.5981
31.2255
31.2255
30.8584
30.8584
30.4968
30.4968
30.1404
30.1404
29.7893
29.7893
29.4432
29.4432
29.1022
29.1022
28.7661
28.7661
28.4347
28.4347
28.1081
28.1081
27.7861
27.7861
27.4686
27.4686
27.1555
27.1555
26.8468
26.8468
26.5424
26.5424
26.2421
26.2421
25.946
25.946
25.6539
25.6539
25.3658
25.3658
25.0815
25.0815
24.801
24.801
24.5243
24.5243
24.2512
24.2512
23.9818
23.9818
23.7159
23.7159
23.4534
23.4534
23.1944
23.1944
22.9387
22.9387
22.6863
22.6863
22.4371
22.4371
22.1911
22.1911
21.9482
21.9482
21.7084
21.7084
21.4716
21.4716
21.2377
21.2377
21.0068
21.0068
20.7787
20.7787
20.5534
20.5534
20.3309
20.3309
20.1111
20.1111
19.8939
19.8939
19.6794
19.6794
19.4675
19.4675
19.2581
19.2581
19.0512
19.0512
18.8467
18.8467
18.6447
18.6447
18.4451
18.4451
18.2478
18.2478
18.0528
18.0528
17.86
17.86
17.6695
17.6695
17.4812
17.4812
17.2951
17.2951
17.1111
17.1111
16.9292
16.9292
16.7493
16.7493
16.5715
16.5715
16.3957
16.3957
16.2219
16.2219
16.05
16.05
15.8801
15.8801
15.712
15.712
15.5458
15.5458
15.3815
15.3815
15.2189
15.2189
15.0581
15.0581
14.8991
14.8991
14.7418
14.7418
14.5863
14.5863
14.4324
14.4324
14.2802
14.2802
14.1296
14.1296
13.9806
13.9806
13.8332
13.8332
13.6875
13.6875
13.5432
13.5432
13.4005
13.4005
13.2593
13.2593
13.1196
13.1196
12.9814
12.9814
12.8447
12.8447
12.7093
12.7093
12.5754
12.5754
12.4429
12.4429
12.3118
12.3118
12.182
12.182
12.0536
12.0536
11.9265
11.9265
11.8008
11.8008
11.6763
11.6763
11.5531
11.5531
11.4312
11.4312
11.3105
11.3105
11.1911
11.1911
11.0729
11.0729
10.9559
10.9559
10.8401
10.8401
10.7255
10.7255
10.612
10.612
10.4997
10.4997
10.3886
10.3886
10.2786
10.2786
10.1696
10.1696
10.0618
10.0618
9.95509
9.95509
9.84944
9.84944
9.74485
9.74485
9.64132
9.64132
9.53883
9.53883
9.43736
9.43736
9.33692
9.33692
9.23748
9.23748
9.13905
9.13905
9.04159
9.04159
8.94511
8.94511
8.8496
8.8496
8.75504
8.75504
8.66143
8.66143
8.56875
8.56875
8.47699
8.47699
8.38616
8.38616
8.29622
8.29622
8.20718
8.20718
8.11903
8.11903
8.03176
8.03176
7.94535
7.94535
7.85981
7.85981
7.77511
7.77511
7.69126
7.69126
7.60824
7.60824
7.52605
7.52605
7.44467
7.44467
7.36411
7.36411
7.28434
7.28434
7.20537
7.20537
7.12718
7.12718
7.04976
7.04976
6.97312
6.97312
6.89724
6.89724
6.82211
6.82211
6.74773
6.74773
6.67409
6.67409
6.60119
6.60119
6.529
6.529
6.45754
6.45754
6.38678
6.38678
6.31673
6.31673
6.24738
6.24738
6.17872
6.17872
6.11074
6.11074
6.04344
6.04344
5.97681
5.97681
5.91085
5.91085
5.84554
5.84554
5.78088
5.78088
5.71687
5.71687
5.6535
5.6535
5.59077
5.59077
5.52866
5.52866
5.46717
5.46717
5.4063
5.4063
5.34603
5.34603
5.28637
5.28637
5.22731
5.22731
5.16884
5.16884
5.11096
5.11096
5.05366
5.05366
4.99693
4.99693
4.94077
4.94077
4.88518
4.88518
4.83015
4.83015
4.77568
4.77568
4.72175
4.72175
4.66836
4.66836
4.61552
4.61552
4.56321
4.56321
4.51143
4.51143
4.46017
4.46017
4.40943
4.40943
4.3592
4.3592
4.30948
4.30948
4.26027
4.26027
4.21156
4.21156
4.16334
4.16334
4.11561
4.11561
4.06837
4.06837
4.0216
4.0216
3.97532
3.97532
3.9295
3.9295
3.88416
3.88416
3.83927
3.83927
3.79485
3.79485
3.75088
3.75088
3.70735
3.70735
3.66428
3.66428
3.62164
3.62164
3.57945
3.57945
3.53768
3.53768
3.49635
3.49635
3.45544
3.45544
3.41495
3.41495
3.37488
3.37488
3.33522
3.33522
3.29597
3.29597
3.25712
3.25712
3.21868
3.21868
3.18063
3.18063
3.14298
3.14298
3.10572
3.10572
3.06884
3.06884
3.03234
3.03234
2.99623
2.99623
2.96048
2.96048
2.92511
2.92511
2.89011
2.89011
2.85547
2.85547
2.82119
2.82119
2.78727
2.78727
2.7537
2.7537
2.72049
2.72049
2.68762
2.68762
2.65509
2.65509
2.6229
2.6229
2.59105
2.59105
2.55954
2.55954
2.52835
2.52835
2.49749
2.49749
2.46695
2.46695
2.43674
2.43674
2.40684
2.40684
2.37726
2.37726
2.34798
2.34798
2.31902
2.31902
2.29036
2.29036
2.262
2.262
2.23394
2.23394
2.20618
2.20618
2.17871
2.17871
2.15153
2.15153
2.12464
2.12464
2.09803
2.09803
2.07171
2.07171
2.04566
2.04566
2.01989
2.01989
1.99439
1.99439
1.96917
1.96917
1.94421
1.94421
1.91951
1.91951
1.89508
1.89508
1.87091
1.87091
1.84699
1.84699
1.82333
1.82333
1.79992
1.79992
1.77676
1.77676
1.75385
1.75385
1.73118
1.73118
1.70876
1.70876
1.68657
1.68657
1.66462
1.66462
1.6429
1.6429
1.62142
1.62142
1.60017
1.60017
1.57914
1.57914
1.55834
1.55834
1.53776
1.53776
1.51741
1.51741
1.49727
1.49727
1.47735
1.47735
1.45764
1.45764
1.43814
1.43814
1.41886
1.41886
1.39978
1.39978
1.3809
1.3809
1.36224
1.36224
1.34377
1.34377
1.3255
1.3255
1.30742
1.30742
1.28955
1.28955
1.27186
1.27186
1.25437
1.25437
1.23707
1.23707
1.21995
1.21995
1.20303
1.20303
1.18628
1.18628
1.16972
1.16972
1.15333
1.15333
1.13713
1.13713
1.1211
1.1211
1.10525
1.10525
1.08957
1.08957
1.07406
1.07406
1.05872
1.05872
1.04355
1.04355
1.02854
1.02854
1.0137
1.0137
0.999025
0.999025
0.98451
0.98451
0.970155
0.970155
0.955959
0.955959
0.941921
0.941921
0.928038
0.928038
0.914309
0.914309
0.900733
0.900733
0.887308
0.887308
0.874034
0.874034
0.860908
0.860908
0.847929
0.847929
0.835096
0.835096
0.822408
0.822408
0.809864
0.809864
0.797462
0.797462
0.7852
0.7852
0.773078
0.773078
0.761095
0.761095
0.749249
0.749249
0.73754
0.73754
0.725965
0.725965
0.714525
0.714525
0.703218
0.703218
0.692042
0.692042
0.680997
0.680997
0.670082
0.670082
0.659296
0.659296
0.648638
0.648638
0.638106
0.638106
0.627701
0.627701
0.61742
0.61742
0.607264
0.607264
0.597231
0.597231
0.58732
0.58732
0.577531
0.577531
0.567863
0.567863
0.558315
0.558315
0.548885
0.548885
0.539575
0.539575
0.530381
0.530381
0.521305
0.521305
0.512345
0.512345
0.503501
0.503501
0.494771
0.494771
0.486155
0.486155
0.477653
0.477653
0.469264
0.469264
0.460987
0.460987
0.452822
0.452822
0.444767
0.444767
0.436823
0.436823
0.428989
0.428989
0.421264
0.421264
0.413648
0.413648
0.406139
0.406139
0.398739
0.398739
0.391445
0.391445
0.384258
0.384258
0.377176
0.377176
0.3702
0.3702
0.363329
0.363329
0.356563
0.356563
0.3499
0.3499
0.34334
0.34334
0.336883
0.336883
0.330529
0.330529
0.324276
0.324276
0.318124
0.318124
0.312073
0.312073
0.306122
0.306122
0.30027
0.30027
0.294518
0.294518
0.288864
0.288864
0.283307
0.283307
0.277848
0.277848
0.272486
0.272486
0.267219
0.267219
0.262048
0.262048
0.256972
0.256972
0.25199
0.25199
0.247101
0.247101
0.242305
0.242305
0.237602
0.237602
0.232989
0.232989
0.228467
0.228467
0.224035
0.224035
0.219692
0.219693
0.215438
0.215438
0.211271
0.211271
0.207191
0.207191
0.203196
0.203196
0.199287
0.199287
0.195462
0.195462
0.19172
0.19172
0.18806
0.18806
0.184482
0.184482
0.180984
0.180984
0.177565
0.177565
0.174226
0.174226
0.170964
0.170964
0.167778
0.167778
0.164668
0.164668
0.161632
0.161632
0.15867
0.15867
0.15578
0.15578
0.152962
0.152962
0.150214
0.150214
0.147536
0.147536
0.144925
0.144925
0.142382
0.142382
0.139905
0.139905
0.137492
0.137492
0.135144
0.135144
0.132858
0.132858
0.130634
0.130634
0.128471
0.128471
0.126368
0.126368
0.124323
0.124323
0.122335
0.122335
0.120404
0.120404
0.118529
0.118529
0.116708
0.116708
0.11494
0.11494
0.113225
0.113225
0.111562
0.111562
0.109949
0.109949
0.108385
0.108385
0.106871
0.106871
0.105404
0.105404
0.103985
0.103985
0.102611
0.102611
0.101283
0.101283
0.1
0.1
0.0987603
0.0987603
0.0975638
0.0975638
0.0964096
0.0964096
0.0952972
0.0952972
0.0942257
0.0942257
0.0931948
0.0931948
0.0922036
0.0922036
0.0912518
0.0912518
0.0903387
0.0903387
0.089464
0.089464
0.088627
0.088627
0.0878275
0.0878275
0.087065
0.087065
0.0863393
0.0863393
0.0856499
0.0856499
0.0849966
0.0849966
0.0843792
0.0843792
0.0837975
0.0837975
0.0832514
0.0832514
0.0827407
0.0827407
0.0822654
0.0822654
0.0818255
0.0818255
0.081421
0.081421
0.0810519
0.0810519
0.0807184
0.0807184
0.0804207
0.0804207
0.0801589
0.0801589
0.0799333
0.0799333
0.0797442
0.0797442
0.079592
0.079592
0.0794771
0.0794771
0.0794
0.0794
0.0793611
0.0793611
0.0793611
0.0793611
0.0794
0.0794
0.0794771
0.0794771
0.079592
0.079592
0.0797442
0.0797442
0.0799332
0.0799332
0.0801588
0.0801588
0.0804206
0.0804206
0.0807183
0.0807183
0.0810518
0.0810518
0.0814209
0.0814209
0.0818254
0.0818254
0.0822653
0.0822653
0.0827406
0.0827406
0.0832512
0.0832512
0.0837973
0.0837973
0.084379
0.084379
0.0849964
0.0849964
0.0856496
0.0856496
0.086339
0.086339
0.0870648
0.0870648
0.0878273
0.0878273
0.0886268
0.0886268
0.0894637
0.0894637
0.0903385
0.0903385
0.0912515
0.0912515
0.0922033
0.0922033
0.0931944
0.0931944
0.0942254
0.0942254
0.0952968
0.0952968
0.0964093
0.0964093
0.0975634
0.0975634
0.09876
0.09876
0.0999996
0.0999996
0.101283
0.101283
0.102611
0.102611
0.103984
0.103984
0.105404
0.105404
0.106871
0.106871
0.108385
0.108385
0.109948
0.109948
0.111561
0.111561
0.113225
0.113225
0.11494
0.11494
0.116707
0.116707
0.118528
0.118528
0.120404
0.120404
0.122335
0.122335
0.124322
0.124322
0.126367
0.126367
0.128471
0.128471
0.130634
0.130634
0.132858
0.132858
0.135143
0.135143
0.137492
0.137492
0.139904
0.139904
0.142381
0.142381
0.144925
0.144925
0.147535
0.147535
0.150214
0.150214
0.152962
0.152962
0.15578
0.15578
0.15867
0.15867
0.161632
0.161632
0.164667
0.164667
0.167777
0.167777
0.170963
0.170963
0.174225
0.174225
0.177565
0.177565
0.180983
0.180983
0.184481
0.184481
0.188059
0.188059
0.191719
0.191719
0.195461
0.195461
0.199286
0.199286
0.203196
0.203196
0.20719
0.20719
0.21127
0.21127
0.215437
0.215437
0.219692
0.219692
0.224035
0.224035
0.228467
0.228467
0.232989
0.232989
0.237601
0.237601
0.242305
0.242305
0.247101
0.247101
0.25199
0.25199
0.256972
0.256972
0.262048
0.262048
0.267219
0.267219
0.272485
0.272485
0.277848
0.277848
0.283307
0.283307
0.288863
0.288863
0.294517
0.294517
0.30027
0.30027
0.306121
0.306121
0.312072
0.312072
0.318124
0.318124
0.324275
0.324275
0.330528
0.330528
0.336883
0.336883
0.34334
0.34334
0.349899
0.349899
0.356562
0.356562
0.363329
0.363329
0.3702
0.3702
0.377176
0.377176
0.384257
0.384257
0.391444
0.391444
0.398738
0.398738
0.406139
0.406139
0.413647
0.413647
0.421264
0.421264
0.428989
0.428989
0.436823
0.436823
0.444767
0.444767
0.452821
0.452821
0.460987
0.460987
0.469264
0.469264
0.477653
0.477653
0.486155
0.486155
0.494771
0.494771
0.5035
0.5035
0.512345
0.512345
0.521305
0.521305
0.530381
0.530381
0.539574
0.539574
0.548885
0.548885
0.558314
0.558314
0.567863
0.567863
0.577531
0.577531
0.58732
0.58732
0.597231
0.597231
0.607264
0.607264
0.61742
0.61742
0.6277
0.6277
0.638106
0.638106
0.648637
0.648637
0.659296
0.659296
0.670082
0.670082
0.680997
0.680997
0.692042
0.692042
0.703217
0.703217
0.714525
0.714525
0.725965
0.725965
0.73754
0.73754
0.749249
0.749249
0.761095
0.761095
0.773078
0.773078
0.7852
0.7852
0.797461
0.797461
0.809864
0.809864
0.822408
0.822408
0.835096
0.835096
0.847929
0.847929
0.860907
0.860907
0.874033
0.874033
0.887308
0.887308
0.900732
0.900732
0.914308
0.914308
0.928037
0.928037
0.94192
0.94192
0.955959
0.955959
0.970155
0.970155
0.98451
0.98451
0.999024
0.999024
1.0137
1.0137
1.02854
1.02854
1.04355
1.04355
1.05872
1.05872
1.07406
1.07406
1.08956
1.08956
1.10525
1.10525
1.1211
1.1211
1.13713
1.13713
1.15333
1.15333
1.16972
1.16972
1.18628
1.18628
1.20303
1.20303
1.21995
1.21995
1.23707
1.23707
1.25437
1.25437
1.27186
1.27186
1.28955
1.28955
1.30742
1.30742
1.3255
1.3255
1.34377
1.34377
1.36223
1.36223
1.3809
1.3809
1.39978
1.39978
1.41886
1.41886
1.43814
1.43814
1.45764
1.45764
1.47735
1.47735
1.49727
1.49727
1.51741
1.51741
1.53776
1.53776
1.55834
1.55834
1.57914
1.57914
1.60017
1.60017
1.62142
1.62142
1.6429
1.6429
1.66462
1.66462
1.68657
1.68657
1.70875
1.70875
1.73118
1.73118
1.75385
1.75385
1.77676
1.77676
1.79992
1.79992
1.82333
1.82333
1.84699
1.84699
1.87091
1.87091
1.89508
1.89508
1.91951
1.91951
1.94421
1.94421
1.96916
1.96916
1.99439
1.99439
2.01989
2.01989
2.04566
2.04566
2.07171
2.07171
2.09803
2.09803
2.12464
2.12464
2.15153
2.15153
2.17871
2.17871
2.20618
2.20618
2.23394
2.23394
2.262
2.262
2.29036
2.29036
2.31902
2.31902
2.34798
2.34798
2.37726
2.37726
2.40684
2.40684
2.43674
2.43674
2.46695
2.46695
2.49749
2.49749
2.52835
2.52835
2.55953
2.55953
2.59105
2.59105
2.6229
2.6229
2.65509
2.65509
2.68762
2.68762
2.72049
2.72049
2.7537
2.7537
2.78727
2.78727
2.82119
2.82119
2.85547
2.85547
2.89011
2.89011
2.92511
2.92511
2.96048
2.96048
2.99622
2.99622
3.03234
3.03234
3.06884
3.06884
3.10572
3.10572
3.14298
3.14298
3.18063
3.18063
3.21868
3.21868
3.25712
3.25712
3.29597
3.29597
3.33522
3.33522
3.37488
3.37488
3.41495
3.41495
3.45544
3.45544
3.49635
3.49635
3.53768
3.53768
3.57945
3.57945
3.62164
3.62164
3.66428
3.66428
3.70735
3.70735
3.75087
3.75087
3.79485
3.79485
3.83927
3.83927
3.88415
3.88415
3.9295
3.9295
3.97532
3.97532
4.0216
4.0216
4.06836
4.06836
4.11561
4.11561
4.16334
4.16334
4.21156
4.21156
4.26027
4.26027
4.30948
4.30948
4.3592
4.3592
4.40943
4.40943
4.46017
4.46017
4.51142
4.51142
4.56321
4.56321
4.61552
4.61552
4.66836
4.66836
4.72175
4.72175
4.77567
4.77567
4.83015
4.83015
4.88518
4.88518
4.94077
4.94077
4.99693
4.99693
5.05365
5.05365
5.11096
5.11096
5.16884
5.16884
5.22731
5.22731
5.28637
5.28637
5.34603
5.34603
5.40629
5.40629
5.46717
5.46717
5.52866
5.52866
5.59077
5.59077
5.6535
5.6535
5.71687
5.71687
5.78088
5.78088
5.84554
5.84554
5.91085
5.91085
5.97681
5.97681
6.04344
6.04344
6.11074
6.11074
6.17872
6.17872
6.24738
6.24738
6.31673
6.31673
6.38678
6.38678
6.45754
6.45754
6.529
6.529
6.60118
6.60118
6.67409
6.67409
6.74773
6.74773
6.82211
6.82211
6.89724
6.89724
6.97312
6.97312
7.04976
7.04976
7.12718
7.12718
7.20536
7.20536
7.28434
7.28434
7.36411
7.36411
7.44467
7.44467
7.52605
7.52605
7.60824
7.60824
7.69126
7.69126
7.77511
7.77511
7.85981
7.85981
7.94535
7.94535
8.03176
8.03176
8.11903
8.11903
8.20718
8.20718
8.29622
8.29622
8.38615
8.38615
8.47699
8.47699
8.56875
8.56875
8.66143
8.66143
8.75504
8.75504
8.8496
8.8496
8.94511
8.94511
9.04159
9.04159
9.13904
9.13904
9.23748
9.23748
9.33692
9.33692
9.43736
9.43736
9.53882
9.53882
9.64132
9.64132
9.74485
9.74485
9.84944
9.84944
9.95509
9.95509
10.0618
10.0618
10.1696
10.1696
10.2786
10.2786
10.3886
10.3886
10.4997
10.4997
10.612
10.612
10.7255
10.7255
10.8401
10.8401
10.9559
10.9559
11.0729
11.0729
11.1911
11.1911
11.3105
11.3105
11.4312
11.4312
11.5531
11.5531
11.6763
11.6763
11.8008
11.8008
11.9265
11.9265
12.0536
12.0536
12.182
12.182
12.3118
12.3118
12.4429
12.4429
12.5754
12.5754
12.7093
12.7093
12.8447
12.8447
12.9814
12.9814
13.1196
13.1196
13.2593
13.2593
13.4005
13.4005
13.5432
13.5432
13.6875
13.6875
13.8332
13.8332
13.9806
13.9806
14.1296
14.1296
14.2802
14.2802
14.4324
14.4324
14.5863
14.5863
14.7418
14.7418
14.8991
14.8991
15.0581
15.0581
15.2189
15.2189
15.3814
15.3814
15.5458
15.5458
15.712
15.712
15.8801
15.8801
16.05
16.05
16.2219
16.2219
16.3957
16.3957
16.5715
16.5715
16.7493
16.7493
16.9292
16.9292
17.1111
17.1111
17.2951
17.2951
17.4812
17.4812
17.6695
17.6695
17.86
17.86
18.0528
18.0528
18.2478
18.2478
18.4451
18.4451
18.6447
18.6447
18.8467
18.8467
19.0512
19.0512
19.2581
19.2581
19.4675
19.4675
19.6794
19.6794
19.8939
19.8939
20.1111
20.1111
20.3309
20.3309
20.5534
20.5534
20.7787
20.7787
21.0068
21.0068
21.2377
21.2377
21.4716
21.4716
21.7084
21.7084
21.9482
21.9482
22.1911
22.1911
22.4371
22.4371
22.6863
22.6863
22.9387
22.9387
23.1944
23.1944
23.4534
23.4534
23.7159
23.7159
23.9818
23.9818
24.2512
24.2512
24.5243
24.5243
24.801
24.801
25.0815
25.0815
25.3658
25.3658
25.6539
25.6539
25.946
25.946
26.2421
26.2421
26.5424
26.5424
26.8468
26.8468
27.1555
27.1555
27.4686
27.4686
27.7861
27.7861
28.1081
28.1081
28.4347
28.4347
28.766
28.766
29.1022
29.1022
29.4432
29.4432
29.7893
29.7893
30.1404
30.1404
30.4968
30.4968
30.8584
30.8584
31.2255
31.2255
31.5981
31.5981
31.9764
31.9764
32.3604
32.3604
32.7503
32.7503
33.1462
33.1462
33.5483
33.5483
33.9566
33.9566
34.3714
34.3714
34.7927
34.7927
35.2207
35.2207
35.6555
35.6555
36.0973
36.0973
36.5462
36.5462
37.0024
37.0024
37.4661
37.4661
37.9374
37.9374
38.4165
38.4165
38.9036
38.9036
39.3988
39.3988
39.9024
39.9024
40.4145
40.4145
40.9353
40.9353
41.465
41.465
42.0039
42.0039
42.5522
42.5522
43.1101
43.1101