/*--------------------------------*- C++ -*----------------------------------*\
| =========                 |                                                 |
| \\      /  F ield         | OpenFOAM: The Open Source CFD Toolbox           |
|  \\    /   O peration     | Version:  2012                                  |
|   \\  /    A nd           | Website:  www.openfoam.com                      |
|    \\/     M anipulation  |                                                 |
\*---------------------------------------------------------------------------*/
FoamFile
{
    version     2.0;
    format      ascii;
    class       volTensorField;
    location    "7000";
    object      grad(U);
}
// * * * * * * * * * * * * * * * * * * * * * * * * * * * * * * * * * * * * * //

dimensions      [0 0 -1 0 0 0 0];


internalField   nonuniform List<tensor> 
5120
(
(0 -8.83185e-26 -3.93199e-27 46.0355 -3.67675e-11 -3.76173e-40 0.0333909 -1.33343e-14 -7.19771e-53)
(0 -2.07451e-30 -1.21554e-32 46.0355 -5.00089e-16 5.72731e-19 0.0333909 -1.99749e-18 3.58965e-17)
(0 -5.60519e-45 1.09378e-32 46.0292 3.2312e-27 8.37772e-15 0.100408 1.16486e-44 -4.08175e-17)
(0 -4.20344e-28 -8.04538e-33 46.0292 -7.70525e-37 5.17246e-18 0.100408 0 1.08776e-16)
(6.7508e-17 -1.22034e-29 -2.70616e-33 46.0188 2.81604e-12 4.04034e-15 0.135918 -9.19966e-15 -8.02635e-18)
(0 1.63586e-29 7.98761e-33 46.0188 -1.08828e-15 8.46398e-18 0.135918 -5.4735e-20 1.1034e-16)
(0 3.24823e-29 1.18954e-32 46.0039 1.05875e-12 4.44778e-15 0.13685 -7.37064e-15 -1.99568e-17)
(0 -2.43617e-29 -7.93025e-33 46.0039 -2.05653e-16 5.57437e-18 0.13685 -8.73679e-20 1.1191e-16)
(5.85657e-17 -1.56457e-29 -2.28071e-32 45.9843 6.99246e-27 2.83628e-15 0.137774 6.31089e-30 -3.1815e-17)
(9.24299e-17 4.03113e-29 1.96833e-32 45.9843 -2.29777e-16 5.47179e-18 0.137774 -1.46969e-19 1.13488e-16)
(-1.02947e-16 3.68569e-29 1.17251e-32 45.9603 2.9011e-13 1.94549e-15 0.138692 -2.16647e-15 -3.88739e-17)
(1.30161e-16 -2.40131e-29 -7.81676e-33 45.9603 -2.51485e-16 5.40528e-18 0.138692 -1.95133e-19 1.15074e-16)
(-4.20376e-17 3.69366e-29 7.76063e-33 45.9318 -2.84368e-14 1.72937e-15 0.139601 -4.30729e-17 -3.78569e-17)
(0 -3.17875e-29 -7.76063e-33 45.9318 -2.7495e-16 5.1681e-18 0.139601 -2.64418e-19 1.16668e-16)
(-5.15992e-17 -5.1159e-28 1.34836e-32 45.8988 0 1.6663e-15 0.140503 0 -3.68895e-17)
(-2.06397e-16 -3.15593e-29 -1.34836e-32 45.8988 -2.63205e-16 4.96286e-18 0.140503 -3.67391e-19 1.18268e-16)
(-6.12245e-17 1.29885e-29 0 45.8614 -6.80406e-17 1.63115e-15 0.141397 -6.933e-18 -3.5944e-17)
(0 0 1.91239e-33 45.8614 -3.01738e-16 4.60997e-18 0.141397 -4.41456e-19 1.19874e-16)
(-1.41826e-16 4.91958e-29 9.4933e-33 45.8196 -2.22737e-15 1.61491e-15 0.142283 -6.85676e-18 -3.5006e-17)
(-4.20465e-16 -3.88846e-29 -9.4933e-33 45.8196 -3.37587e-16 4.693e-18 0.142283 -5.74962e-19 1.21485e-16)
(0 -7.72107e-30 -1.88503e-33 45.7735 -1.67528e-15 1.61421e-15 0.143161 -3.57837e-18 -3.40616e-17)
(6.45312e-16 1.54421e-29 3.77005e-33 45.7735 -3.48026e-16 5.09723e-18 0.143161 -5.60438e-19 1.23103e-16)
(9.04771e-17 -1.28223e-29 -9.35745e-34 45.7231 -8.36033e-16 1.62287e-15 0.144031 -1.66591e-18 -3.31006e-17)
(-3.61908e-16 1.53313e-29 2.80724e-33 45.7231 -4.59368e-16 5.48363e-18 0.144031 -6.35927e-19 1.24726e-16)
(2.00703e-16 -7.78721e-30 2.78708e-33 45.6684 -2.74895e-16 1.63635e-15 0.144893 -4.3478e-19 -3.21176e-17)
(4.01407e-16 -2.28317e-29 -2.78708e-33 45.6684 -4.53336e-16 6.23553e-18 0.144893 -8.62359e-19 1.26355e-16)
(0 8.75812e-47 0 45.6095 3.23719e-27 1.65205e-15 0.145746 -1.853e-46 -3.11096e-17)
(4.41149e-16 0 9.22354e-34 45.6095 -4.71578e-16 6.17141e-18 0.145746 -8.39406e-19 1.2799e-16)
(-1.16876e-17 1.73481e-29 1.3736e-33 45.5465 4.58279e-16 1.66885e-15 0.14659 -9.43616e-19 -3.00763e-17)
(0 -7.50167e-30 -4.57866e-34 45.5465 -6.06364e-16 5.63445e-18 0.14659 -9.7777e-19 1.29629e-16)
(-3.92385e-16 2.75001e-29 9.09155e-34 45.4793 5.74379e-16 1.68614e-15 0.147426 -2.00159e-18 -2.90155e-17)
(3.90333e-16 -7.4478e-30 -4.54578e-34 45.4793 -4.98852e-16 6.83921e-18 0.147426 -1.30871e-18 1.31272e-16)
(1.40454e-16 -5.15665e-30 2.82071e-35 45.408 4.10357e-16 1.70341e-15 0.148253 -1.71058e-18 -2.79273e-17)
(9.93549e-16 0 -2.82071e-35 45.408 -3.23885e-16 7.93483e-18 0.148253 -1.35242e-18 1.32921e-16)
(2.58296e-16 -1.46824e-29 4.48073e-34 45.3327 3.25566e-16 1.72044e-15 0.14907 -9.58753e-19 -2.68101e-17)
(0 1.46824e-29 -4.48073e-34 45.3327 -3.39931e-16 6.00105e-18 0.14907 -1.41506e-18 1.34575e-16)
(-2.56441e-16 3.64425e-29 -1.33456e-33 45.2534 4.33433e-16 1.73747e-15 0.149879 -1.17729e-18 -2.56648e-17)
(-5.12883e-16 -1.4577e-29 4.44855e-34 45.2534 -4.15855e-16 4.25736e-18 0.149879 -1.75486e-18 1.36228e-16)
(-3.42296e-16 4.64938e-29 -4.4166e-33 45.1701 4.05267e-16 1.75468e-15 0.150679 -1.68783e-18 -2.44896e-17)
(0 -3.61808e-29 4.4166e-33 45.1701 -4.90155e-16 5.44346e-18 0.150679 -2.0282e-18 1.37885e-16)
(-1.81494e-16 2.67091e-29 -1.75396e-33 45.083 3.07349e-16 1.7717e-15 0.151469 -1.00629e-18 -2.32848e-17)
(-2.52772e-16 -1.43684e-29 8.76978e-34 45.083 -4.53812e-16 6.8064e-18 0.151469 -2.34251e-18 1.39547e-16)
(6.34748e-16 -2.45781e-29 1.74136e-33 44.9919 3.01204e-16 1.78852e-15 0.152249 -1.05372e-18 -2.20484e-17)
(7.67583e-16 1.42652e-29 -2.61204e-33 44.9919 -3.50889e-16 8.3126e-18 0.152249 -2.74254e-18 1.4121e-16)
(0 -7.08139e-30 0 44.8971 2.4963e-16 1.80517e-15 0.15302 -9.79267e-19 -2.07807e-17)
(0 1.41628e-29 -1.72886e-33 44.8971 -4.08916e-16 7.75619e-18 0.15302 -3.04002e-18 1.42877e-16)
(2.47365e-16 1.40611e-29 -1.71644e-33 44.7984 3.4253e-16 1.82188e-15 0.153782 -7.17086e-19 -1.94825e-17)
(-1.09883e-15 -7.03054e-30 1.71644e-33 44.7984 -4.18251e-16 4.21302e-18 0.153782 -3.42622e-18 1.44541e-16)
(0 1.39601e-29 -1.70412e-33 44.6961 4.23474e-16 1.839e-15 0.154533 -1.63201e-18 -1.81514e-17)
(-2.45589e-16 -6.98006e-30 0 44.6961 -4.02744e-16 3.14829e-18 0.154533 -3.65988e-18 1.46202e-16)
(-7.02156e-16 2.93286e-29 -8.45939e-33 44.59 4.15647e-16 1.85612e-15 0.155275 -1.28787e-18 -1.6786e-17)
(0 -1.38599e-29 8.45939e-33 44.59 -5.14229e-16 6.38152e-18 0.155275 -3.97073e-18 1.47862e-16)
(0 -1.37603e-29 8.39865e-33 44.4804 4.73294e-16 1.8732e-15 0.156007 -1.60112e-18 -1.53878e-17)
(1.9578e-15 1.37603e-29 -8.39865e-33 44.4804 -5.1535e-16 9.86431e-18 0.156007 -4.31298e-18 1.49527e-16)
(2.25223e-16 -8.5055e-30 6.67067e-33 44.3671 3.80021e-16 1.89024e-15 0.156728 -1.71144e-18 -1.39563e-17)
(5.41127e-16 1.36615e-29 -1.0006e-32 44.3671 -4.33485e-16 9.33395e-18 0.156728 -4.34886e-18 1.51195e-16)
(0 0 0 44.2503 4.60751e-16 1.90736e-15 0.157439 -9.64533e-19 -1.24902e-17)
(1.0649e-15 6.78171e-30 -6.62277e-33 44.2503 -6.19054e-16 5.90994e-18 0.157439 -4.70243e-18 1.52858e-16)
(0 3.36651e-29 -1.6438e-32 44.13 7.09256e-16 1.9247e-15 0.15814 -2.31152e-18 -1.09873e-17)
(-1.10821e-15 -4.03981e-29 1.97256e-32 44.13 -9.36833e-16 4.41003e-18 0.15814 -5.67725e-18 1.54518e-16)
(-5.75862e-16 3.705e-29 -6.52799e-33 44.0063 5.65618e-16 1.94265e-15 0.158831 -2.76204e-18 -9.44989e-18)
(0 -2.67387e-29 6.52799e-33 44.0063 -8.57731e-16 5.79403e-18 0.158831 -6.69872e-18 1.56178e-16)
(0 1.32733e-29 -9.72167e-33 43.8792 4.2542e-16 1.96061e-15 0.15951 -1.30675e-18 -7.87077e-18)
(1.19543e-15 0 6.48112e-33 43.8792 -7.73186e-16 7.71238e-18 0.15951 -7.56549e-18 1.57838e-16)
(7.73493e-16 -4.46897e-29 3.21729e-32 43.7487 5.03566e-16 1.97815e-15 0.16018 -1.78133e-18 -6.25337e-18)
(1.23933e-15 3.2945e-29 -2.89556e-32 43.7487 -7.17507e-16 9.12692e-18 0.16018 -8.33119e-18 1.595e-16)
(-1.10204e-15 -1.58555e-29 1.59709e-32 43.615 5.73925e-16 1.99596e-15 0.160838 -1.89883e-18 -4.59674e-18)
(2.56685e-15 1.96251e-29 -1.59709e-32 43.615 -8.39352e-16 1.11485e-17 0.160838 -8.61521e-18 1.61161e-16)
(-7.88952e-16 2.46396e-29 -1.90275e-32 43.478 6.36189e-16 2.01416e-15 0.161486 -2.32692e-18 -2.89921e-18)
(1.78473e-15 -1.94841e-29 1.90275e-32 43.478 -1.17866e-15 1.42283e-17 0.161486 -9.57661e-18 1.62823e-16)
(-6.86088e-16 -9.03342e-30 2.51878e-32 43.3378 5.54089e-16 2.03224e-15 0.162123 -2.38965e-18 -1.15907e-18)
(2.74435e-15 1.28962e-29 -2.51878e-32 43.3378 -1.01045e-15 1.33286e-17 0.162123 -1.05315e-17 1.64488e-16)
(0 -1.28035e-29 1.25035e-32 43.1944 4.73205e-16 2.04949e-15 0.162748 -1.74544e-18 6.22407e-19)
(0 1.28035e-29 -1.87552e-32 43.1944 -8.93405e-16 9.60561e-18 0.162748 -1.08881e-17 1.66148e-16)
(-8.12664e-16 2.42229e-29 -1.86205e-32 43.048 4.96266e-16 2.06687e-15 0.163363 -1.81381e-18 2.44414e-18)
(0 -1.27116e-29 6.20684e-33 43.048 -9.82463e-16 9.34498e-18 0.163363 -1.15913e-17 1.678e-16)
(-3.76666e-16 5.15542e-30 0 42.8985 5.47545e-16 2.08454e-15 0.163966 -1.94611e-18 4.31194e-18)
(0 1.26203e-29 -6.16227e-33 42.8985 -9.22893e-16 1.19054e-17 0.163966 -1.24191e-17 1.69449e-16)
(4.4085e-16 -6.26485e-30 6.11802e-33 42.746 5.52438e-16 2.10191e-15 0.164558 -2.23283e-18 6.21925e-18)
(0 6.26485e-30 -6.11802e-33 42.746 -9.05146e-16 1.18566e-17 0.164558 -1.31354e-17 1.71099e-16)
(-3.83847e-17 2.5944e-29 -3.03704e-32 42.5906 7.90058e-16 2.11958e-15 0.165139 -2.01211e-18 8.16862e-18)
(-1.15951e-15 -3.10993e-29 3.03704e-32 42.5906 -1.01553e-15 8.99111e-18 0.165139 -1.40973e-17 1.72742e-16)
(1.27976e-15 -1.13302e-29 1.23061e-32 42.4322 9.53468e-16 2.13739e-15 0.165709 -4.11133e-18 8.39719e-18)
(-8.69082e-16 6.1752e-30 -1.20609e-32 42.4322 -1.01672e-15 9.59455e-18 0.165709 -1.47236e-17 1.74376e-16)
(0 -6.13085e-30 0 42.2711 6.67176e-16 2.15504e-15 0.166266 -3.32004e-18 8.52771e-18)
(0 1.22617e-29 -5.98716e-33 42.2711 -1.05979e-15 1.27654e-17 0.166266 -1.48349e-17 1.76013e-16)
(4.28323e-16 -1.82605e-29 1.18883e-32 42.1071 5.88425e-16 2.17278e-15 0.166813 -1.91451e-18 8.66001e-18)
(0 1.82605e-29 -1.18883e-32 42.1071 -1.21609e-15 1.3592e-17 0.166813 -1.58262e-17 1.77645e-16)
(-1.29556e-15 -2.50607e-29 1.66484e-32 41.9404 8.16638e-16 2.191e-15 0.167347 -2.74306e-18 8.79719e-18)
(0 2.41725e-29 -1.1803e-32 41.9404 -1.12717e-15 1.22016e-17 0.167347 -1.71494e-17 1.79273e-16)
(-4.56601e-16 5.1546e-30 -7.19879e-33 41.771 9.94829e-16 2.20914e-15 0.16787 -3.76716e-18 8.93182e-18)
(0 1.19994e-29 0 41.771 -1.16951e-15 1.22521e-17 0.16787 -1.79493e-17 1.80892e-16)
(-4.68179e-16 1.70677e-29 3.53375e-29 41.5989 8.72575e-16 0 0.168381 -4.21804e-18 3.08149e-33)
(0 0 -1.16341e-32 41.5989 -1.27934e-15 1.42734e-17 0.168381 -1.89408e-17 1.82506e-16)
(8.32303e-16 -2.36555e-29 2.3101e-32 41.4243 5.87891e-16 -2.16048e-15 0.16888 -2.83009e-18 4.81969e-18)
(-8.32303e-16 2.36555e-29 -2.3101e-32 41.4243 -9.61531e-16 1.16433e-17 0.16888 -1.99117e-17 1.84119e-16)
(8.26326e-16 -2.34856e-29 1.72014e-32 41.2471 4.30089e-16 -3.13923e-15 0.169367 -1.95312e-18 1.27988e-17)
(0 2.34856e-29 -1.72014e-32 41.2471 -9.17421e-16 6.2512e-18 0.169367 -2.04571e-17 1.8572e-16)
(-1.00626e-15 3.94555e-29 -5.13127e-32 41.0674 3.89416e-16 -3.14178e-15 0.169843 -1.57244e-18 1.29449e-17)
(-2.01252e-15 -2.91462e-29 5.12335e-32 41.0674 -9.2297e-16 7.20275e-18 0.169843 -2.15935e-17 1.87307e-16)
(-5.14851e-16 -2.37823e-29 2.26069e-32 40.8853 5.27468e-16 -3.1355e-15 0.170306 -1.64431e-18 1.00267e-17)
(4.11881e-15 2.89369e-29 -2.26069e-32 40.8853 -1.48618e-16 1.29521e-17 0.170306 -2.2141e-17 1.88891e-16)
(1.33526e-15 -3.96291e-29 3.92781e-32 40.7008 5.81801e-16 -3.13464e-15 0.170757 -2.74795e-18 6.82594e-18)
(2.10642e-15 2.29833e-29 -2.80558e-32 40.7008 -1.35718e-16 1.21109e-17 0.170757 -2.17458e-17 1.90475e-16)
(-5.38394e-16 5.15415e-30 0 40.5139 7.69308e-16 -3.13491e-15 0.171195 -2.12512e-18 3.61909e-18)
(0 5.70456e-30 -1.11417e-32 40.5139 -5.18562e-16 8.37625e-18 0.171195 -2.2465e-17 1.92034e-16)
(7.9708e-16 -1.13272e-29 5.53085e-33 40.3248 1.12167e-15 -3.13703e-15 0.171622 -4.37619e-18 4.06577e-19)
(2.20085e-15 1.13272e-29 -1.10617e-32 40.3248 -4.65477e-16 6.99204e-18 0.171622 -2.2986e-17 1.93587e-16)
(-1.12413e-15 3.84214e-29 -2.74557e-32 40.1334 9.73988e-16 -3.13734e-15 0.172036 -5.16238e-18 -2.81397e-18)
(-2.24826e-15 -2.81146e-29 2.74557e-32 40.1334 -7.19324e-16 7.97473e-18 0.172036 -2.35232e-17 1.9512e-16)
(-1.14789e-15 1.03072e-29 0 39.9398 9.17147e-16 -3.13027e-15 0.172438 -3.17055e-18 -6.0292e-18)
(2.29579e-15 5.58255e-30 -5.45171e-33 39.9398 -6.06534e-16 1.29036e-17 0.172438 -2.44255e-17 1.96641e-16)
(0 5.54246e-30 0 39.7441 1.23939e-15 -3.12501e-15 0.172827 -4.74532e-18 -9.23475e-18)
(0 0 -5.41256e-33 39.7441 -9.4867e-16 1.02378e-17 0.172827 -2.44942e-17 1.98152e-16)
(-1.37223e-15 2.16609e-29 -5.37369e-33 39.5463 1.37066e-15 -3.12389e-15 0.173204 -6.02609e-18 -1.24483e-17)
(-2.39119e-15 -1.10053e-29 0 39.5463 -1.36004e-15 6.14268e-18 0.173204 -2.58783e-17 1.99645e-16)
(0 -4.37052e-29 1.60053e-32 39.3464 1.13067e-15 -3.11699e-15 0.173568 -5.96694e-18 -1.56628e-17)
(2.43906e-15 4.37052e-29 -5.87105e-31 39.3464 -4.90133e-16 1.42178e-17 0.173568 -2.7009e-17 2.01123e-16)
(0 -4.33913e-29 1.3242e-32 39.1445 8.67122e-16 -3.10395e-15 0.17392 -3.99082e-18 -1.886e-17)
(4.97408e-15 4.33913e-29 -1.3242e-32 39.1445 -2.0172e-17 2.35804e-17 0.17392 -2.6441e-17 2.02603e-16)
(0 1.61549e-29 -3.94407e-33 38.9407 1.01948e-15 -3.09092e-15 0.174259 -3.70562e-18 -2.20449e-17)
(-7.57867e-16 -5.38497e-30 2.62938e-33 38.9407 -9.03502e-16 1.18187e-17 0.174259 -2.73402e-17 2.04064e-16)
(1.06596e-16 -2.15792e-29 3.91574e-33 38.735 1.14749e-15 -3.08387e-15 0.174586 -5.41597e-18 -2.52191e-17)
(-2.58331e-15 1.60389e-29 2.27149e-31 38.735 -1.12773e-15 4.60595e-18 0.174586 -2.99182e-17 2.05483e-16)
(0 1.06158e-29 -3.23969e-34 38.5274 1.26842e-15 -3.07342e-15 0.1749 -4.91638e-18 -2.83935e-17)
(1.88457e-15 0 0 38.5274 -1.95945e-16 1.28577e-17 0.1749 -3.02674e-17 2.06887e-16)
(0 2.63489e-29 8.04106e-34 38.3181 1.27248e-15 -3.05335e-15 0.175201 -6.59557e-18 -3.15535e-17)
(1.93832e-15 -1.58094e-29 -4.82464e-34 38.3181 -4.18857e-16 1.72057e-17 0.175201 -2.99842e-17 2.08286e-16)
(-6.8211e-16 -2.62401e-29 -5.10932e-33 38.1069 1.38946e-15 -3.036e-15 0.175489 -5.025e-18 -3.46875e-17)
(0 3.13917e-29 5.10932e-33 38.1069 -1.11706e-15 1.64726e-17 0.175489 -3.16784e-17 2.09664e-16)
(0 -2.59719e-29 -8.87711e-33 37.8941 1.88212e-15 -3.02344e-15 0.175764 -7.77176e-18 -3.78098e-17)
(2.77699e-15 2.59719e-29 8.87711e-33 37.8941 -1.12812e-15 1.81132e-17 0.175764 -3.30977e-17 2.11021e-16)
(-7.06408e-16 2.06214e-29 2.5181e-33 37.6796 2.38551e-15 -3.00841e-15 0.176027 -9.68108e-18 -4.09251e-17)
(0 -5.15708e-30 -2.5181e-33 37.6796 -1.22985e-15 2.14784e-17 0.176027 -3.45992e-17 2.12371e-16)
(-1.99413e-18 2.55708e-29 1.00001e-32 37.4635 2.69644e-15 -2.99035e-15 0.176276 -1.26014e-17 -4.40188e-17)
(-1.44116e-15 -1.53601e-29 -2.50002e-33 37.4635 -1.34993e-15 1.9091e-17 0.176276 -3.49049e-17 2.13705e-16)
(-1.44619e-15 4.07322e-29 1.8889e-32 37.2458 2.60637e-15 -2.97118e-15 0.176513 -1.27562e-17 -3.6194e-17)
(-2.92315e-15 -3.04997e-29 -1.48924e-32 37.2458 -1.6104e-15 1.26155e-17 0.176513 -3.59567e-17 2.1501e-16)
(-2.19628e-15 2.54384e-29 2.06077e-32 37.0266 2.16109e-15 -2.95164e-15 0.176737 -1.19281e-17 -2.03168e-17)
(-2.26174e-15 -1.51403e-29 -1.23212e-32 37.0266 -1.85625e-15 8.473e-18 0.176737 -3.79688e-17 2.16281e-16)
(-1.51048e-15 4.03615e-29 4.02236e-32 36.806 1.66317e-15 -2.9307e-15 0.176947 -8.67787e-18 -1.40711e-17)
(-3.02095e-15 -3.00632e-29 -2.93586e-32 36.806 -1.64601e-15 1.19441e-17 0.176947 -3.89041e-17 2.17529e-16)
(7.00106e-16 -9.94911e-30 -4.85796e-33 36.5839 1.50297e-15 -2.91389e-15 0.177145 -7.29926e-18 -1.41324e-17)
(3.06996e-15 9.94911e-30 9.71593e-33 36.5839 -1.25385e-15 1.99021e-17 0.177145 -3.99972e-17 2.18754e-16)
(-7.79755e-16 2.0995e-31 6.26071e-33 36.3604 1.61944e-15 -2.89589e-15 0.17733 -7.24762e-18 -1.40993e-17)
(3.11902e-15 1.48165e-29 9.64616e-33 36.3604 -1.33735e-15 2.26614e-17 0.17733 -4.05914e-17 2.19963e-16)
(0 0 0 36.1356 1.86082e-15 -2.86933e-15 0.177501 -8.54481e-18 -1.40758e-17)
(3.16814e-15 9.80673e-30 9.57689e-33 36.1356 -1.74534e-15 1.91442e-17 0.177501 -4.15593e-17 2.21139e-16)
(-1.60866e-15 1.51645e-29 1.89133e-32 35.9095 1.94035e-15 -2.84629e-15 0.17766 -9.73162e-18 -1.40752e-17)
(3.21732e-15 -4.86816e-30 -4.75406e-33 35.9095 -1.86633e-15 1.67957e-17 0.17766 -4.29744e-17 2.22289e-16)
(-8.16638e-16 5.14795e-30 -1.95449e-33 35.6821 1.93693e-15 -2.82306e-15 0.177805 -9.45832e-18 -1.40479e-17)
(3.26655e-15 9.6664e-30 1.88797e-32 35.6821 -2.3906e-15 1.79969e-17 0.177805 -4.47481e-17 2.23408e-16)
(1.35066e-15 -1.43955e-29 -9.37205e-33 35.4535 2.25147e-15 -2.7975e-15 0.177937 -9.83876e-18 -1.40222e-17)
(3.31583e-15 1.43955e-29 9.37205e-33 35.4535 -2.7213e-15 2.47094e-17 0.177937 -4.98443e-17 2.24499e-16)
(0 4.76403e-30 0 35.2238 3.17049e-15 -2.77171e-15 0.178057 -1.27631e-17 -1.39902e-17)
(3.36515e-15 -4.76403e-30 0 35.2238 -2.31812e-15 1.7164e-17 0.178057 -5.40084e-17 2.25589e-16)
(0 1.41895e-29 1.84759e-32 34.993 4.08726e-15 -2.74576e-15 0.178162 -1.93033e-17 -1.39607e-17)
(3.41451e-15 -9.45965e-30 0 34.993 -2.86579e-15 1.80195e-17 0.178162 -5.60067e-17 2.26605e-16)
(-2.18774e-15 1.92309e-29 5.4921e-32 34.7611 3.83181e-15 -2.70599e-15 0.178255 -2.23147e-17 -1.37842e-17)
(0 -9.39172e-30 -3.66864e-32 34.7611 -2.54037e-15 2.88382e-17 0.178255 -6.11701e-17 2.27643e-16)
(8.78336e-16 8.84295e-30 1.78903e-32 34.5282 2.30678e-15 -2.66996e-15 0.178335 -1.69549e-17 -1.37898e-17)
(3.51334e-15 -9.32428e-30 -9.10574e-33 34.5282 -1.2045e-15 2.03105e-17 0.178335 -6.28524e-17 2.28652e-16)
(0 1.3886e-29 3.61614e-32 34.2943 1.24828e-15 -2.64248e-15 0.178401 -6.83188e-18 -1.36974e-17)
(-3.5628e-15 -2.31433e-29 -5.42421e-32 34.2943 -9.66073e-16 1.04001e-17 0.178401 -6.36431e-17 2.29623e-16)
(-1.2935e-15 2.29771e-29 7.18035e-32 34.0594 1.63701e-15 -2.61616e-15 0.178454 -6.15054e-18 -1.37133e-17)
(-2.3188e-15 -2.29771e-29 -7.18035e-32 34.0594 -1.3799e-15 -1.35122e-17 0.178454 -6.47982e-17 2.30543e-16)
(9.1545e-16 1.76685e-29 5.18863e-32 33.8237 1.71357e-15 -2.60877e-15 0.178494 -1.10186e-17 -1.38179e-17)
(-7.3236e-15 -2.28121e-29 -6.23769e-32 33.8237 -1.55928e-15 -1.49082e-17 0.178494 -6.67291e-17 2.31379e-16)
(0 0 0 33.587 7.95588e-16 -2.59684e-15 0.178521 -7.05069e-18 -1.37852e-17)
(7.42266e-15 0 0 33.587 -6.4601e-16 2.36058e-17 0.178521 -6.87995e-17 2.3224e-16)
(3.25613e-16 -1.44019e-29 -1.51418e-32 33.3496 5.17683e-16 -2.56717e-15 0.178535 -1.38564e-18 -1.36998e-17)
(7.52174e-15 1.34914e-29 2.63504e-32 33.3496 -8.40473e-16 3.6319e-17 0.178535 -6.87997e-17 2.33156e-16)
(-9.52606e-16 -8.25001e-30 -2.33455e-32 33.1115 1.38554e-15 -2.54988e-15 0.178535 -4.7944e-18 -1.37981e-17)
(0 2.23242e-29 5.23223e-32 33.1115 -1.55718e-15 1.0557e-17 0.178535 -7.18917e-17 2.34047e-16)
(-9.64996e-16 4.50386e-29 6.38219e-32 32.8725 1.67019e-15 -2.54051e-15 0.178522 -1.01665e-17 -1.37966e-17)
(0 -3.9895e-29 -5.19466e-32 32.8725 -1.27824e-15 -2.18899e-18 0.178522 -7.34879e-17 2.34859e-16)
(-9.77387e-16 3.59504e-29 9.81848e-32 32.6329 1.63742e-15 -2.51018e-15 0.178496 -7.96694e-18 -1.36654e-17)
(0 -3.08066e-29 -8.5956e-32 32.6329 -1.28924e-15 1.09529e-17 0.178496 -7.56282e-17 2.3566e-16)
(-2.40083e-16 3.59542e-30 2.15852e-32 32.3927 2.06514e-15 -2.4828e-15 0.178457 -9.95427e-18 -1.36941e-17)
(3.95911e-15 -8.73869e-30 -3.41355e-32 32.3927 -8.37712e-16 2.55337e-17 0.178457 -7.75258e-17 2.36459e-16)
(7.83307e-16 1.57429e-29 5.89315e-32 32.1519 2.3541e-15 -2.45124e-15 0.178405 -1.2813e-17 -1.35123e-17)
(1.22103e-15 -3.47037e-29 -1.18616e-31 32.1519 -7.35243e-16 2.49597e-17 0.178405 -7.82764e-17 2.37251e-16)
(0 3.01477e-29 5.04705e-32 31.9105 2.49519e-15 -2.4151e-15 0.178339 -1.33175e-17 -1.34874e-17)
(-4.05823e-15 -2.15341e-29 -3.3647e-32 31.9105 -1.49673e-15 6.00083e-18 0.178339 -8.07202e-17 2.37985e-16)
(1.02694e-15 2.05142e-29 1.9875e-32 31.6685 2.34406e-15 -2.38556e-15 0.178261 -1.45821e-17 -1.33746e-17)
(-4.10777e-15 -2.56553e-29 -3.34054e-32 31.6685 -1.81411e-15 1.08941e-19 0.178261 -8.17108e-17 2.38657e-16)
(1.03932e-15 7.59425e-30 6.90756e-32 31.4261 1.93277e-15 -2.35043e-15 0.178169 -1.1803e-17 -1.32833e-17)
(-1.19491e-15 -4.24518e-30 -4.97483e-32 31.4261 -1.6566e-15 2.28189e-17 0.178169 -8.45561e-17 2.39304e-16)
(1.18633e-15 -8.4294e-30 -6.58547e-32 31.1833 1.43787e-15 -2.31439e-15 0.178065 -1.01121e-17 -1.31556e-17)
(4.20681e-15 8.4294e-30 8.23184e-32 31.1833 -1.22201e-15 4.54149e-17 0.178065 -8.69028e-17 2.39967e-16)
(-2.12815e-15 -3.15607e-29 -6.91611e-32 30.94 1.34733e-15 -2.26565e-15 0.177947 -6.30018e-18 -1.29133e-17)
(4.2563e-15 4.18443e-29 1.14418e-31 30.94 -1.4261e-15 3.89748e-17 0.177947 -8.81829e-17 2.40602e-16)
(-2.15288e-15 4.35172e-29 7.81734e-32 30.6964 1.98111e-15 -2.21256e-15 0.177816 -9.21343e-18 -1.2729e-17)
(-4.30576e-15 -3.32351e-29 -4.86842e-32 30.6964 -2.28475e-15 1.23186e-17 0.177816 -9.34572e-17 2.41178e-16)
(-1.0888e-15 4.22609e-29 9.55745e-32 30.4525 2.06654e-15 -2.16614e-15 0.177673 -1.37635e-17 -1.25569e-17)
(-4.35519e-15 -3.7121e-29 -8.05577e-32 30.4525 -2.15666e-15 5.50091e-18 0.177673 -9.66134e-17 2.41657e-16)
(5.14738e-17 -3.04956e-30 -3.27173e-32 30.2083 1.78769e-15 -2.12835e-15 0.177516 -1.0348e-17 -1.24679e-17)
(3.25197e-15 8.18987e-30 6.39834e-32 30.2083 -1.17989e-15 2.93593e-17 0.177516 -9.70996e-17 2.42117e-16)
(0 -2.43932e-29 -6.35239e-32 29.9639 2.09839e-15 -2.07951e-15 0.177347 -1.06728e-17 -1.21588e-17)
(3.30961e-15 2.43932e-29 9.52859e-32 29.9639 -8.91372e-16 3.68013e-17 0.177347 -9.74735e-17 2.42591e-16)
(1.13613e-15 -2.4218e-29 -3.15339e-32 29.7192 2.32962e-15 -2.0338e-15 0.177164 -1.41912e-17 -1.21016e-17)
(0 2.4218e-29 4.73008e-32 29.7192 -1.40318e-15 1.46417e-17 0.177164 -9.84496e-17 2.43021e-16)
(-1.13814e-15 2.1168e-29 6.2986e-32 29.4744 2.21823e-15 -1.99619e-15 0.176969 -1.35959e-17 -1.18818e-17)
(0 -8.0147e-30 -1.56537e-32 29.4744 -1.71375e-15 8.94197e-18 0.176969 -1.00583e-16 2.43368e-16)
(-2.3009e-15 2.31902e-30 4.80721e-32 29.2295 2.28396e-15 -1.94206e-15 0.176762 -1.30541e-17 -1.16198e-17)
(4.6018e-15 7.95715e-30 -1.55413e-32 29.2295 -1.6305e-15 2.57708e-17 0.176762 -1.05042e-16 2.43684e-16)
(0 1.58e-29 3.08594e-32 28.9844 3.03248e-15 -1.89367e-15 0.176541 -1.45917e-17 -1.14624e-17)
(4.65098e-15 -7.90001e-30 0 28.9844 -1.55483e-15 3.35414e-17 0.176541 -1.08635e-16 2.43984e-16)
(-1.03266e-15 1.83943e-29 4.45569e-32 28.7394 3.59055e-15 -1.82671e-15 0.176308 -2.24007e-17 -1.09634e-17)
(4.70011e-15 -7.84328e-30 0 28.7394 -1.92636e-15 2.98157e-17 0.176308 -1.10499e-16 2.44224e-16)
(0 -2.33609e-29 -6.08356e-32 28.4943 3.23349e-15 -1.77178e-15 0.176062 -2.168e-17 -1.09471e-17)
(0 2.33609e-29 6.08356e-32 28.4943 -2.76255e-15 2.16285e-17 0.176062 -1.17175e-16 2.44429e-16)
(0 3.09242e-29 1.50997e-31 28.2492 3.35638e-15 -1.73145e-15 0.175804 -1.82944e-17 -1.06183e-17)
(0 -3.09242e-29 -1.50997e-31 28.2492 -3.33857e-15 2.02235e-17 0.175804 -1.20429e-16 2.44568e-16)
(1.21178e-15 -2.0485e-29 -1.07156e-31 28.0042 3.39376e-15 -1.68456e-15 0.175534 -2.3531e-17 -1.05157e-17)
(0 1.53511e-29 8.99476e-32 28.0042 -2.6613e-15 1.64544e-17 0.175534 -1.21673e-16 2.44688e-16)
(-2.44801e-15 2.55089e-29 6.45084e-32 27.7594 2.89028e-15 -1.64092e-15 0.175251 -1.90306e-17 -1.0219e-17)
(3.82354e-15 -7.62041e-30 0 27.7594 -1.76914e-15 1.6672e-17 0.175251 -1.26581e-16 2.44745e-16)
(0 7.56569e-30 5.91069e-32 27.5146 3.1927e-15 -1.58078e-15 0.174956 -1.74873e-17 -9.90005e-18)
(4.94482e-15 0 -2.95535e-32 27.5146 -1.7722e-15 3.13072e-17 0.174956 -1.29349e-16 2.44791e-16)
(1.24839e-15 1.74021e-29 7.03643e-32 27.27 3.86235e-15 -1.51634e-15 0.174648 -2.317e-17 -9.53827e-18)
(2.87929e-15 -1.50227e-29 -5.86825e-32 27.27 -2.438e-15 2.76747e-17 0.174648 -1.32567e-16 2.44825e-16)
(-2.09908e-15 2.98297e-29 1.16522e-31 27.0256 3.55354e-15 -1.45639e-15 0.174329 -2.63573e-17 -9.26693e-18)
(2.09908e-15 -2.98297e-29 -1.16522e-31 27.0256 -2.98956e-15 2.06233e-17 0.174329 -1.36025e-16 2.44771e-16)
(2.3147e-15 -3.47463e-29 -1.33519e-31 26.7815 3.5087e-15 -1.4167e-15 0.173997 -1.95044e-17 -9.15862e-18)
(4.04877e-15 2.96155e-29 1.15685e-31 26.7815 -3.58862e-15 1.45806e-17 0.173997 -1.40196e-16 2.44694e-16)
(3.07022e-15 2.35886e-29 7.1882e-32 26.5376 4.97399e-15 -1.37518e-15 0.173653 -2.61546e-17 -8.85554e-18)
(0 -3.67535e-29 -1.14855e-31 26.5376 -4.99771e-15 2.00831e-17 0.173653 -1.49979e-16 2.44568e-16)
(0 1.45958e-29 5.7015e-32 26.2941 4.80541e-15 -1.32463e-15 0.173298 -3.90527e-17 -8.6222e-18)
(5.18765e-15 -7.29792e-30 0 26.2941 -4.05488e-15 3.27627e-17 0.173298 -1.57172e-16 2.44515e-16)
(0 -2.8982e-29 -1.13211e-31 26.0509 2.03564e-15 -1.2905e-15 0.17293 -2.43018e-17 -8.52885e-18)
(5.23596e-15 2.8982e-29 1.13211e-31 26.0509 -8.96787e-16 2.24191e-17 0.17293 -1.62255e-16 2.44459e-16)
(7.03743e-16 5.12997e-30 -1.00738e-32 25.8081 7.46391e-16 -1.27266e-15 0.172551 -2.67497e-18 -8.50767e-18)
(3.25938e-15 7.19348e-30 5.61991e-32 25.8081 1.23747e-16 -6.37004e-18 0.172551 -1.65265e-16 2.44354e-16)
(-6.77176e-16 3.77219e-29 1.49321e-31 25.5657 2.15688e-15 -1.24062e-15 0.172161 -7.33348e-18 -8.21913e-18)
(0 -3.57091e-29 -1.39489e-31 25.5657 -1.28087e-15 -1.90323e-17 0.172161 -1.66472e-16 2.44111e-16)
(1.99581e-15 -1.41811e-29 -8.30923e-32 25.3237 2.89318e-15 -1.20406e-15 0.171759 -2.18009e-17 -8.13282e-18)
(-1.99581e-15 2.12716e-29 1.1079e-31 25.3237 -1.46139e-15 5.60689e-18 0.171759 -1.70686e-16 2.43849e-16)
(1.98148e-15 -3.51981e-29 -2.19988e-31 25.0822 2.06849e-15 -1.1547e-15 0.171345 -1.74757e-17 -7.66085e-18)
(8.87489e-15 3.51981e-29 2.19988e-31 25.0822 1.85887e-17 3.87655e-17 0.171345 -1.72718e-16 2.4358e-16)
(0 1.39781e-29 1.09204e-31 24.8413 1.74054e-15 -1.08759e-15 0.17092 -1.07956e-17 -7.32286e-18)
(-1.96725e-15 -6.98907e-30 -8.19032e-32 24.8413 3.55085e-16 9.60168e-18 0.17092 -1.73442e-16 2.43341e-16)
(0 2.08167e-29 1.0842e-31 24.6009 2.48357e-15 -1.04133e-15 0.170484 -1.31944e-17 -7.12788e-18)
(-5.52366e-15 -1.38778e-29 -8.1315e-32 24.6009 7.33805e-16 -3.90481e-17 0.170484 -1.73303e-16 2.42846e-16)
(-1.39281e-15 1.20133e-29 7.18729e-32 24.361 2.71961e-15 -9.76977e-16 0.170037 -2.13012e-17 -6.52632e-18)
(5.57123e-15 0 -2.69104e-32 24.361 2.71191e-16 -1.2377e-17 0.170037 -1.6698e-16 2.42206e-16)
(1.40467e-15 2.2234e-29 3.54039e-32 24.1218 1.45085e-15 -8.84717e-16 0.169579 -1.66974e-17 -5.9277e-18)
(0 -3.41979e-29 -1.06869e-31 24.1218 -9.78649e-16 3.91428e-17 0.169579 -1.64455e-16 2.41624e-16)
(3.32785e-15 -4.58688e-29 -1.77116e-31 23.8832 1.92191e-16 -8.06779e-16 0.16911 -3.68256e-18 -5.51184e-18)
(5.66601e-15 2.71619e-29 1.59152e-31 23.8832 -2.78233e-16 2.84751e-17 0.16911 -1.67647e-16 2.411e-16)
(1.89762e-15 -1.12104e-44 -5.26696e-32 23.6453 2.56321e-30 -7.73362e-16 0.16863 -6.31089e-30 -5.53472e-18)
(-1.89762e-15 6.74171e-30 5.26696e-32 23.6453 -1.3027e-15 -6.87303e-18 0.16863 -1.68536e-16 2.40387e-16)
(0 2.67732e-29 1.30728e-31 23.408 1.81868e-15 -7.13773e-16 0.16814 -1.28023e-17 -4.73145e-18)
(-5.76029e-15 -3.34665e-29 -1.8302e-31 23.408 -2.81659e-15 1.74329e-18 0.16814 -1.75934e-16 2.39586e-16)
(-2.48496e-15 2.08079e-30 1.15575e-33 23.1715 1.67288e-15 -6.11591e-16 0.167639 -1.3365e-17 -4.12898e-18)
(5.80723e-15 0 0 23.1715 -1.95502e-15 2.82553e-17 0.167639 -1.80945e-16 2.3873e-16)
(-2.92702e-15 -2.93366e-29 -1.45237e-31 22.9358 2.55662e-15 -5.17045e-16 0.167127 -1.08678e-17 -3.41517e-18)
(5.85404e-15 3.29876e-29 1.54629e-31 22.9358 -1.42149e-15 3.86744e-17 0.167127 -1.82201e-16 2.37857e-16)
(0 -6.55014e-30 -7.67594e-32 22.7008 3.01345e-15 -4.41126e-16 0.166605 -2.65047e-17 -3.06877e-18)
(5.90072e-15 6.55014e-30 7.67594e-32 22.7008 -1.98607e-15 1.92385e-17 0.166605 -1.83868e-16 2.36973e-16)
(1.83046e-15 -2.60124e-29 -7.62082e-32 22.4666 2.53678e-15 -4.01134e-16 0.166074 -1.77659e-17 -2.87042e-18)
(0 2.60124e-29 7.62082e-32 22.4666 -2.87212e-15 7.10153e-18 0.166074 -1.87411e-16 2.35954e-16)
(-1.81732e-15 3.2282e-29 1.76542e-31 22.2333 2.77894e-15 -3.26936e-16 0.165532 -1.98055e-17 -2.00267e-18)
(1.81732e-15 -3.2282e-29 -1.76542e-31 22.2333 -2.84579e-15 1.80426e-17 0.165532 -1.9561e-16 2.34898e-16)
(-3.01995e-15 1.02419e-29 3.38446e-32 22.0009 2.8436e-15 -2.10172e-16 0.16498 -2.16486e-17 -1.15163e-18)
(0 0 0 22.0009 -2.48154e-15 1.69385e-17 0.16498 -2.03769e-16 2.33806e-16)
(3.043e-15 -3.56963e-29 -8.29881e-32 21.7693 3.55355e-15 -1.42007e-16 0.164418 -2.10679e-17 -9.96574e-19)
(6.08601e-15 2.5456e-29 4.97188e-32 21.7693 -2.37888e-15 1.37805e-17 0.164418 -2.09722e-16 2.32625e-16)
(3.55689e-15 -2.52732e-29 -2.22128e-31 21.5386 3.64446e-15 -9.58041e-17 0.163847 -3.27443e-17 -4.61634e-19)
(2.57507e-15 2.52732e-29 2.22128e-31 21.5386 -2.67807e-15 2.21988e-17 0.163847 -2.11174e-16 2.31422e-16)
(0 -3.13647e-29 -9.04248e-31 21.3089 2.90544e-15 4.21927e-30 0.163266 -2.27644e-17 0)
(0 3.13647e-29 1.47022e-31 21.3089 -3.02203e-15 1.49862e-17 0.163266 -2.16194e-16 2.30235e-16)
(1.753e-15 -1.86837e-29 -2.35748e-30 21.0802 3.32335e-15 2.02376e-17 0.162676 -2.18339e-17 -7.82291e-20)
(6.2234e-15 1.86837e-29 2.43277e-32 21.0802 -2.59832e-15 2.34792e-17 0.162676 -2.21505e-16 2.28895e-16)
(-1.56722e-15 -3.81655e-29 -1.05505e-31 20.8525 3.2951e-15 1.42935e-16 0.162077 -2.958e-17 -7.39495e-19)
(6.26889e-15 4.32822e-29 1.69071e-31 20.8525 -3.10181e-15 3.14798e-17 0.162077 -2.24365e-16 2.27572e-16)
(0 -1.84163e-29 -2.39796e-32 20.6257 2.75905e-15 2.08863e-16 0.161469 -2.17094e-17 -1.48927e-18)
(0 1.84163e-29 2.39796e-32 20.6257 -3.806e-15 1.70259e-17 0.161469 -2.35159e-16 2.26205e-16)
(6.61069e-15 -3.46114e-29 -7.61262e-32 20.4 2.94805e-15 2.39978e-16 0.160851 -2.15703e-17 -1.78816e-18)
(6.35937e-15 2.43788e-29 4.76148e-32 20.4 -2.84836e-15 7.24895e-18 0.160851 -2.45816e-16 2.24865e-16)
(3.40637e-15 -1.81528e-29 -7.09093e-32 20.1754 3.60775e-15 2.60051e-16 0.160225 -2.50216e-17 -2.00429e-18)
(-3.40637e-15 1.81528e-29 7.09093e-32 20.1754 -3.44902e-15 -1.97422e-18 0.160225 -2.52063e-16 2.23505e-16)
(-4.9942e-15 4.71652e-29 2.2451e-31 19.9519 4.23996e-15 3.19102e-16 0.15959 -3.242e-17 -2.13472e-18)
(3.38191e-15 -4.20523e-29 -2.112e-31 19.9519 -3.42599e-15 2.97106e-17 0.15959 -2.63124e-16 2.22073e-16)
(1.67881e-15 -3.5786e-29 -1.86385e-31 19.7294 4.43667e-15 4.06454e-16 0.158947 -3.55556e-17 -2.98337e-18)
(1.13089e-14 3.5786e-29 1.86385e-31 19.7294 -2.56668e-15 3.52706e-17 0.158947 -2.6672e-16 2.20834e-16)
(0 5.9215e-30 6.93926e-32 19.5081 5.41951e-15 4.43386e-16 0.158295 -3.60781e-17 -3.58114e-18)
(-9.87183e-15 0 -2.31309e-32 19.5081 -4.90116e-15 -6.2603e-18 0.158295 -2.76964e-16 2.19525e-16)