/*--------------------------------*- C++ -*----------------------------------*\
| =========                 |                                                 |
| \\      /  F ield         | OpenFOAM: The Open Source CFD Toolbox           |
|  \\    /   O peration     | Version:  2012                                  |
|   \\  /    A nd           | Website:  www.openfoam.com                      |
|    \\/     M anipulation  |                                                 |
\*---------------------------------------------------------------------------*/
FoamFile
{
    version     2.0;
    format      ascii;
    class       volScalarField;
    location    "7000";
    object      omega;
}
// * * * * * * * * * * * * * * * * * * * * * * * * * * * * * * * * * * * * * //

dimensions      [0 0 -1 0 0 0 0];


internalField   nonuniform List<scalar> 
5120
(
5.74144e+06
5.74144e+06
1.00316e+06
1.00316e+06
342360
342360
162650
162650
92893.2
92893.2
59448
59448
41057.8
41057.8
29936.9
29936.9
22728.3
22728.3
17802.2
17802.2
14293.5
14293.5
11709.8
11709.8
9754.44
9754.44
8240.43
8240.43
7045.25
7045.25
6085.95
6085.95
5304.82
5304.82
4660.69
4660.69
4123.6
4123.6
3671.32
3671.32
3287.07
3287.07
2958.02
2958.02
2674.2
2674.2
2427.8
2427.8
2212.61
2212.61
2023.64
2023.64
1856.87
1856.87
1709.01
1709.01
1577.36
1577.36
1459.66
1459.66
1354.07
1354.07
1259
1259
1173.13
1173.13
1095.35
1095.35
1024.69
1024.69
960.325
960.325
901.557
901.557
847.772
847.772
798.438
798.438
753.093
753.093
711.333
711.333
672.802
672.802
637.188
637.188
604.215
604.215
573.639
573.639
545.241
545.241
518.83
518.83
494.232
494.232
471.292
471.292
449.872
449.872
429.847
429.847
411.104
411.104
393.543
393.543
377.071
377.071
361.606
361.606
347.07
347.07
333.396
333.396
320.521
320.521
308.388
308.388
296.944
296.944
286.141
286.141
275.935
275.935
266.286
266.286
257.157
257.157
248.513
248.513
240.323
240.323
232.558
232.558
225.19
225.19
218.195
218.195
211.549
211.549
205.232
205.232
199.223
199.223
193.504
193.504
188.057
188.057
182.866
182.866
177.917
177.917
173.195
173.195
168.688
168.688
164.382
164.382
160.268
160.268
156.333
156.333
152.569
152.569
148.965
148.965
145.513
145.513
142.205
142.205
139.032
139.032
135.989
135.989
133.066
133.066
130.259
130.259
127.561
127.561
124.966
124.966
122.47
122.47
120.066
120.066
117.75
117.75
115.518
115.518
113.365
113.365
111.287
111.287
109.281
109.281
107.342
107.342
105.468
105.468
103.655
103.655
101.9
101.9
100.2
100.2
98.5531
98.5531
96.9557
96.9557
95.4058
95.4058
93.901
93.901
92.4391
92.4391
91.0182
91.0182
89.6361
89.6361
88.2911
88.2911
86.9814
86.9814
85.7053
85.7053
84.4612
84.4612
83.2477
83.2477
82.0633
82.0633
80.9067
80.9067
79.7766
79.7766
78.6718
78.6718
77.5912
77.5912
76.5337
76.5337
75.4982
75.4982
74.4839
74.4839
73.4897
73.4897
72.5148
72.5148
71.5584
71.5584
70.6197
70.6197
69.698
69.698
68.7926
68.7926
67.9028
67.9028
67.028
67.028
66.1676
66.1676
65.3211
65.3211
64.4879
64.4879
63.6675
63.6675
62.8594
62.8594
62.0633
62.0633
61.2787
61.2787
60.5052
60.5052
59.7424
59.7424
58.9899
58.9899
58.2475
58.2475
57.5148
57.5148
56.7916
56.7916
56.0774
56.0774
55.3722
55.3722
54.6756
54.6756
53.9873
53.9873
53.3072
53.3072
52.6351
52.6351
51.9708
51.9708
51.314
51.314
50.6646
50.6646
50.0224
50.0224
49.3874
49.3874
48.7592
48.7592
48.1378
48.1378
47.5231
47.5231
46.915
46.915
46.3132
46.3132
45.7178
45.7178
45.1286
45.1286
44.5454
44.5454
43.9684
43.9684
43.3972
43.3972
42.8319
42.8319
42.2723
42.2723
41.7185
41.7185
41.1702
41.1702
40.6276
40.6276
40.0904
40.0904
39.5587
39.5587
39.0324
39.0324
38.5114
38.5114
37.9956
37.9956
37.4851
37.4851
36.9798
36.9798
36.4797
36.4797
35.9846
35.9846
35.4946
35.4946
35.0096
35.0096
34.5296
34.5296
34.0545
34.0545
33.5843
33.5843
33.119
33.119
32.6586
32.6586
32.203
32.203
31.7521
31.7521
31.306
31.306
30.8646
30.8646
30.4279
30.4279
29.9958
29.9958
29.5684
29.5684
29.1455
29.1455
28.7273
28.7273
28.3136
28.3136
27.9044
27.9044
27.4997
27.4997
27.0995
27.0995
26.7037
26.7037
26.3123
26.3123
25.9253
25.9253
25.5426
25.5426
25.1643
25.1643
24.7903
24.7903
24.4206
24.4206
24.0551
24.0551
23.6939
23.6939
23.3368
23.3368
22.9839
22.9839
22.6352
22.6352
22.2906
22.2906
21.9501
21.9501
21.6136
21.6136
21.2811
21.2811
20.9527
20.9527
20.6283
20.6283
20.3078
20.3078
19.9912
19.9912
19.6785
19.6785
19.3697
19.3697
19.0647
19.0647
18.7635
18.7635
18.4661
18.4661
18.1724
18.1724
17.8825
17.8825
17.5962
17.5962
17.3136
17.3136
17.0347
17.0347
16.7593
16.7593
16.4875
16.4875
16.2193
16.2193
15.9545
15.9545
15.6933
15.6933
15.4354
15.4354
15.181
15.181
14.93
14.93
14.6824
14.6824
14.438
14.438
14.197
14.197
13.9592
13.9592
13.7247
13.7247
13.4933
13.4933
13.2651
13.2651
13.0401
13.0401
12.8182
12.8182
12.5993
12.5993
12.3835
12.3835
12.1707
12.1707
11.9609
11.9609
11.754
11.754
11.5501
11.5501
11.349
11.349
11.1508
11.1508
10.9555
10.9555
10.7629
10.7629
10.5731
10.5731
10.386
10.386
10.2016
10.2016
10.0199
10.0199
9.84085
9.84085
9.66441
9.66441
9.49054
9.49054
9.31923
9.31923
9.15044
9.15044
8.98414
8.98414
8.8203
8.8203
8.65889
8.65889
8.49989
8.49989
8.34326
8.34326
8.18897
8.18897
8.037
8.037
7.88731
7.88731
7.73988
7.73988
7.59468
7.59468
7.45168
7.45168
7.31085
7.31085
7.17217
7.17217
7.0356
7.0356
6.90112
6.90112
6.7687
6.7687
6.63832
6.63832
6.50995
6.50995
6.38355
6.38355
6.25911
6.25911
6.1366
6.1366
6.01599
6.01599
5.89726
5.89726
5.78038
5.78038
5.66532
5.66532
5.55207
5.55207
5.44059
5.44059
5.33086
5.33086
5.22286
5.22286
5.11657
5.11657
5.01195
5.01195
4.909
4.909
4.80767
4.80767
4.70796
4.70796
4.60983
4.60983
4.51327
4.51327
4.41826
4.41826
4.32477
4.32477
4.23277
4.23277
4.14226
4.14226
4.05321
4.05321
3.9656
3.9656
3.87941
3.87941
3.79462
3.79462
3.7112
3.7112
3.62915
3.62915
3.54844
3.54844
3.46906
3.46906
3.39098
3.39098
3.31418
3.31418
3.23866
3.23866
3.16439
3.16439
3.09136
3.09136
3.01955
3.01955
2.94894
2.94894
2.87952
2.87952
2.81127
2.81127
2.74418
2.74418
2.67823
2.67823
2.61341
2.61341
2.5497
2.5497
2.4871
2.4871
2.42558
2.42558
2.36513
2.36513
2.30575
2.30575
2.24741
2.24741
2.19011
2.19011
2.13383
2.13383
2.07857
2.07857
2.02431
2.02431
1.97104
1.97104
1.91875
1.91875
1.86743
1.86743
1.81707
1.81707
1.76765
1.76765
1.71918
1.71918
1.67164
1.67164
1.62503
1.62503
1.57932
1.57932
1.53452
1.53452
1.49062
1.49062
1.44761
1.44761
1.40547
1.40547
1.36421
1.36421
1.32381
1.32381
1.28427
1.28427
1.24558
1.24558
1.20773
1.20773
1.17071
1.17071
1.13452
1.13452
1.09916
1.09916
1.0646
1.0646
1.03086
1.03086
0.997906
0.997906
0.965748
0.965749
0.934375
0.934375
0.903778
0.903778
0.873951
0.873951
0.844886
0.844886
0.816574
0.816574
0.789009
0.789009
0.762182
0.762182
0.736085
0.736085
0.710709
0.710709
0.686046
0.686046
0.662087
0.662088
0.638823
0.638824
0.616245
0.616245
0.594342
0.594343
0.573106
0.573106
0.552525
0.552525
0.53259
0.53259
0.51329
0.51329
0.494613
0.494613
0.476549
0.476549
0.459086
0.459086
0.442213
0.442213
0.425917
0.425917
0.410186
0.410186
0.395008
0.395009
0.380371
0.380371
0.366261
0.366262
0.352666
0.352667
0.339573
0.339573
0.326969
0.326969
0.314839
0.314839
0.303172
0.303172
0.291954
0.291954
0.281171
0.281171
0.270811
0.270811
0.260859
0.260859
0.251304
0.251304
0.242132
0.242132
0.23333
0.23333
0.224886
0.224886
0.216786
0.216786
0.209019
0.209019
0.201573
0.201573
0.194435
0.194435
0.187594
0.187594
0.181039
0.181039
0.174758
0.174759
0.168742
0.168742
0.162978
0.162978
0.157457
0.157457
0.15217
0.15217
0.147106
0.147106
0.142256
0.142256
0.137611
0.137611
0.133163
0.133163
0.128903
0.128903
0.124823
0.124823
0.120916
0.120916
0.117173
0.117173
0.113589
0.113589
0.110155
0.110155
0.106866
0.106866
0.103714
0.103714
0.100694
0.100694
0.0978005
0.0978006
0.0950274
0.0950274
0.0923693
0.0923693
0.0898214
0.0898214
0.0873786
0.0873786
0.0850364
0.0850364
0.0827903
0.0827903
0.080636
0.080636
0.0785695
0.0785695
0.076587
0.076587
0.0746847
0.0746847
0.0728591
0.0728591
0.0711068
0.0711068
0.0694247
0.0694248
0.0678097
0.0678098
0.0662589
0.0662589
0.0647695
0.0647695
0.0633388
0.0633388
0.0619644
0.0619644
0.0606437
0.0606437
0.0593746
0.0593746
0.0581548
0.0581548
0.0569822
0.0569822
0.0558549
0.0558549
0.054771
0.054771
0.0537285
0.0537285
0.0527259
0.0527259
0.0517615
0.0517615
0.0508336
0.0508336
0.0499409
0.0499409
0.0490818
0.0490818
0.048255
0.048255
0.0474593
0.0474593
0.0466932
0.0466932
0.0459558
0.0459558
0.0452458
0.0452458
0.0445622
0.0445622
0.0439038
0.0439038
0.0432699
0.0432699
0.0426593
0.0426593
0.0420712
0.0420712
0.0415047
0.0415047
0.0409591
0.0409591
0.0404334
0.0404334
0.0399271
0.0399271
0.0394393
0.0394393
0.0389693
0.0389693
0.0385165
0.0385165
0.0380803
0.0380803
0.03766
0.03766
0.0372551
0.0372551
0.036865
0.036865
0.0364892
0.0364892
0.0361271
0.0361272
0.0357784
0.0357784
0.0354424
0.0354424
0.0351188
0.0351188
0.0348071
0.0348071
0.0345069
0.0345069
0.0342178
0.0342178
0.0339394
0.0339394
0.0336713
0.0336713
0.0334133
0.0334133
0.0331649
0.0331649
0.0329258
0.0329258
0.0326956
0.0326956
0.0324742
0.0324742
0.0322612
0.0322612
0.0320563
0.0320563
0.0318592
0.0318592
0.0316697
0.0316697
0.0314875
0.0314875
0.0313124
0.0313124
0.0311441
0.0311441
0.0309824
0.0309824
0.0308271
0.0308271
0.030678
0.030678
0.0305348
0.0305348
0.0303973
0.0303973
0.0302655
0.0302655
0.030139
0.030139
0.0300177
0.0300177
0.0299014
0.0299014
0.02979
0.02979
0.0296832
0.0296832
0.029581
0.029581
0.0294831
0.0294831
0.0293894
0.0293894
0.0292998
0.0292998
0.0292141
0.0292141
0.0291321
0.0291321
0.0290538
0.0290538
0.028979
0.028979
0.0289076
0.0289076
0.0288394
0.0288394
0.0287744
0.0287744
0.0287123
0.0287123
0.0286532
0.0286532
0.0285968
0.0285968
0.0285431
0.0285431
0.0284919
0.0284919
0.0284432
0.0284432
0.0283968
0.0283968
0.0283527
0.0283527
0.0283107
0.0283107
0.0282708
0.0282708
0.0282328
0.0282328
0.0281967
0.0281967
0.0281624
0.0281624
0.0281297
0.0281297
0.0280986
0.0280986
0.0280691
0.0280691
0.0280409
0.0280409
0.0280141
0.0280141
0.0279886
0.0279886
0.0279643
0.0279643
0.027941
0.027941
0.0279188
0.0279188
0.0278976
0.0278976
0.0278772
0.0278772
0.0278577
0.0278577
0.0278389
0.0278389
0.0278208
0.0278208
0.0278033
0.0278033
0.0277863
0.0277863
0.0277698
0.0277698
0.0277537
0.0277537
0.027738
0.027738
0.0277226
0.0277226
0.0277074
0.0277074
0.0276924
0.0276924
0.0276775
0.0276775
0.0276627
0.0276627
0.0276479
0.0276479
0.027633
0.027633
0.0276181
0.0276181
0.027603
0.027603
0.0275877
0.0275877
0.0275722
0.0275722
0.0275564
0.0275564
0.0275403
0.0275403
0.0275238
0.0275238
0.0275069
0.0275069
0.0274895
0.0274895
0.0274717
0.0274717
0.0274533
0.0274533
0.0274343
0.0274343
0.0274148
0.0274148
0.0273946
0.0273946
0.0273738
0.0273738
0.0273522
0.0273522
0.02733
0.02733
0.027307
0.027307
0.0272832
0.0272832
0.0272587
0.0272587
0.0272333
0.0272333
0.0272072
0.0272072
0.0271802
0.0271802
0.0271523
0.0271523
0.0271236
0.0271236
0.0270939
0.0270939
0.0270635
0.0270635
0.0270321
0.0270321
0.0269998
0.0269998
0.0269667
0.0269667
0.0269327
0.0269327
0.0268978
0.0268978
0.026862
0.026862
0.0268254
0.0268254
0.0267879
0.0267879
0.0267496
0.0267496
0.0267106
0.0267106
0.0266707
0.0266707
0.0266301
0.0266301
0.0265888
0.0265888
0.0265468
0.0265468
0.0265042
0.0265042
0.026461
0.026461
0.0264172
0.0264172
0.0263729
0.0263729
0.0263281
0.0263281
0.026283
0.026283
0.0262375
0.0262375
0.0261917
0.0261917
0.0261458
0.0261458
0.0260997
0.0260997
0.0260535
0.0260535
0.0260074
0.0260074
0.0259614
0.0259614
0.0259156
0.0259156
0.0258701
0.0258701
0.0258249
0.0258249
0.0257802
0.0257802
0.0257362
0.0257362
0.0256928
0.0256928
0.0256502
0.0256502
0.0256085
0.0256085
0.0255678
0.0255678
0.0255283
0.0255283
0.02549
0.02549
0.0254531
0.0254531
0.0254176
0.0254176
0.0253838
0.0253838
0.0253517
0.0253517
0.0253215
0.0253215
0.0252932
0.0252932
0.0252671
0.0252671
0.0252431
0.0252431
0.0252214
0.0252214
0.0252021
0.0252021
0.0251854
0.0251854
0.0251712
0.0251712
0.0251598
0.0251598
0.0251511
0.0251511
0.0251452
0.0251452
0.0251423
0.0251423
5.74144e+06
5.74144e+06
1.00316e+06
1.00316e+06
342360
342360
162650
162650
92893.2
92893.2
59448
59448
41057.8
41057.8
29936.9
29936.9
22728.3
22728.3
17802.2
17802.2
14293.5
14293.5
11709.8
11709.8
9754.44
9754.44
8240.43
8240.43
7045.25
7045.25
6085.95
6085.95
5304.82
5304.82
4660.69
4660.69
4123.6
4123.6
3671.32
3671.32
3287.07
3287.07
2958.02
2958.02
2674.2
2674.2
2427.8
2427.8
2212.61
2212.61
2023.64
2023.64
1856.87
1856.87
1709.01
1709.01
1577.36
1577.36
1459.66
1459.66
1354.07
1354.07
1259
1259
1173.13
1173.13
1095.35
1095.35
1024.69
1024.69
960.325
960.325
901.557
901.557
847.772
847.772
798.438
798.438
753.093
753.093
711.333
711.333
672.802
672.802
637.188
637.188
604.215
604.215
573.639
573.639
545.241
545.241
518.83
518.83
494.232
494.232
471.292
471.292
449.872
449.872
429.847
429.847
411.104
411.104
393.543
393.543
377.071
377.071
361.606
361.606
347.07
347.07
333.396
333.396
320.521
320.521
308.388
308.388
296.944
296.944
286.141
286.141
275.935
275.935
266.286
266.286
257.157
257.157
248.513
248.513
240.323
240.323
232.558
232.558
225.19
225.19
218.195
218.195
211.549
211.549
205.232
205.232
199.223
199.223
193.504
193.504
188.057
188.057
182.866
182.866
177.917
177.917
173.195
173.195
168.688
168.688
164.382
164.382
160.268
160.268
156.333
156.333
152.569
152.569
148.965
148.965
145.513
145.513
142.205
142.205
139.032
139.032
135.989
135.989
133.066
133.066
130.259
130.259
127.561
127.561
124.966
124.966
122.47
122.47
120.066
120.066
117.75
117.75
115.518
115.518
113.365
113.365
111.287
111.287
109.281
109.281
107.342
107.342
105.468
105.468
103.655
103.655
101.9
101.9
100.2
100.2
98.5531
98.5531
96.9557
96.9557
95.4058
95.4058
93.901
93.901
92.4391
92.4391
91.0182
91.0182
89.6361
89.6361
88.2911
88.2911
86.9814
86.9814
85.7053
85.7053
84.4612
84.4612
83.2477
83.2477
82.0633
82.0633
80.9067
80.9067
79.7766
79.7766
78.6718
78.6718
77.5912
77.5912
76.5337
76.5337
75.4982
75.4982
74.4839
74.4839
73.4897
73.4897
72.5148
72.5148
71.5584
71.5584
70.6197
70.6197
69.698
69.698
68.7926
68.7926
67.9028
67.9028
67.028
67.028
66.1676
66.1676
65.3211
65.3211
64.4879
64.4879
63.6675
63.6675
62.8594
62.8594
62.0633
62.0633
61.2787
61.2787
60.5052
60.5052
59.7424
59.7424
58.9899
58.9899
58.2475
58.2475
57.5148
57.5148
56.7916
56.7916
56.0774
56.0774
55.3722
55.3722
54.6756
54.6756
53.9873
53.9873
53.3072
53.3072
52.6351
52.6351
51.9708
51.9708
51.314
51.314
50.6646
50.6646
50.0224
50.0224
49.3874
49.3874
48.7592
48.7592
48.1378
48.1378
47.5231
47.5231
46.915
46.915
46.3132
46.3132
45.7178
45.7178
45.1286
45.1286
44.5454
44.5454
43.9684
43.9684
43.3972
43.3972
42.8319
42.8319
42.2723
42.2723
41.7185
41.7185
41.1702
41.1702
40.6276
40.6276
40.0904
40.0904
39.5587
39.5587
39.0324
39.0324
38.5114
38.5114
37.9956
37.9956
37.4851
37.4851
36.9798
36.9798
36.4797
36.4797
35.9846
35.9846
35.4946
35.4946
35.0096
35.0096
34.5296
34.5296
34.0545
34.0545
33.5843
33.5843
33.119
33.119
32.6586
32.6586
32.203
32.203
31.7521
31.7521
31.306
31.306
30.8646
30.8646
30.4279
30.4279
29.9958
29.9958
29.5684
29.5684
29.1455
29.1455
28.7273
28.7273
28.3136
28.3136
27.9044
27.9044
27.4997
27.4997
27.0995
27.0995
26.7037
26.7037
26.3123
26.3123
25.9253
25.9253
25.5426
25.5426
25.1643
25.1643
24.7903
24.7903
24.4206
24.4206
24.0551
24.0551
23.6939
23.6939
23.3368
23.3368
22.9839
22.9839
22.6352
22.6352
22.2906
22.2906
21.9501
21.9501
21.6136
21.6136
21.2811
21.2811
20.9527
20.9527
20.6283
20.6283
20.3078
20.3078
19.9912
19.9912
19.6785
19.6785
19.3697
19.3697
19.0647
19.0647
18.7635
18.7635
18.4661
18.4661
18.1724
18.1724
17.8825
17.8825
17.5962
17.5962
17.3136
17.3136
17.0347
17.0347
16.7593
16.7593
16.4875
16.4875
16.2193
16.2193
15.9545
15.9545
15.6933
15.6933
15.4354
15.4354
15.181
15.181
14.93
14.93
14.6824
14.6824
14.438
14.438
14.197
14.197
13.9592
13.9592
13.7247
13.7247
13.4933
13.4933
13.2651
13.2651
13.0401
13.0401
12.8182
12.8182
12.5993
12.5993
12.3835
12.3835
12.1707
12.1707
11.9609
11.9609
11.754
11.754
11.5501
11.5501
11.349
11.349
11.1508
11.1508
10.9555
10.9555
10.7629
10.7629
10.5731
10.5731
10.386
10.386
10.2016
10.2016
10.0199
10.0199
9.84085
9.84085
9.66441
9.66441
9.49054
9.49054
9.31923
9.31923
9.15044
9.15044
8.98414
8.98414
8.8203
8.8203
8.65889
8.65889
8.49989
8.49989
8.34326
8.34326
8.18897
8.18897
8.037
8.037
7.88731
7.88731
7.73988
7.73988
7.59468
7.59468
7.45168
7.45168
7.31085
7.31085
7.17217
7.17217
7.0356
7.0356
6.90112
6.90112
6.7687
6.7687
6.63832
6.63832
6.50995
6.50995
6.38355
6.38355
6.25911
6.25911
6.1366
6.1366
6.01599
6.01599
5.89726
5.89726
5.78038
5.78038
5.66532
5.66532
5.55207
5.55207
5.44059
5.44059
5.33086
5.33086
5.22286
5.22286
5.11657
5.11657
5.01195
5.01195
4.909
4.909
4.80767
4.80767
4.70796
4.70796
4.60983
4.60983
4.51327
4.51327
4.41826
4.41826
4.32477
4.32477
4.23277
4.23277
4.14226
4.14226
4.05321
4.05321
3.9656
3.9656
3.87941
3.87941
3.79462
3.79462
3.7112
3.7112
3.62915
3.62915
3.54844
3.54844
3.46906
3.46906
3.39098
3.39098
3.31418
3.31418
3.23866
3.23866
3.16439
3.16439
3.09136
3.09136
3.01955
3.01955
2.94894
2.94894
2.87952
2.87952
2.81127
2.81127
2.74418
2.74418
2.67823
2.67823
2.61341
2.61341
2.5497
2.5497
2.4871
2.4871
2.42558
2.42558
2.36513
2.36513
2.30575
2.30575
2.24741
2.24741
2.19011
2.19011
2.13383
2.13383
2.07857
2.07857
2.02431
2.02431
1.97104
1.97104
1.91875
1.91875
1.86743
1.86743
1.81707
1.81707
1.76765
1.76765
1.71918
1.71918
1.67164
1.67164
1.62503
1.62503
1.57932
1.57932
1.53452
1.53452
1.49062
1.49062
1.44761
1.44761
1.40547
1.40547
1.36421
1.36421
1.32381
1.32381
1.28427
1.28427
1.24558
1.24558
1.20773
1.20773
1.17071
1.17071
1.13452
1.13452
1.09916
1.09916
1.0646
1.0646
1.03086
1.03086
0.997906
0.997906
0.965748
0.965749
0.934375
0.934375
0.903778
0.903778
0.873951
0.873951
0.844886
0.844886
0.816574
0.816574
0.789009
0.789009
0.762182
0.762182
0.736085
0.736085
0.710709
0.710709
0.686046
0.686046
0.662087
0.662088
0.638824
0.638824
0.616245
0.616245
0.594342
0.594343
0.573106
0.573106
0.552525
0.552525
0.53259
0.53259
0.51329
0.51329
0.494613
0.494613
0.476549
0.476549
0.459086
0.459086
0.442213
0.442213
0.425917
0.425917
0.410186
0.410186
0.395008
0.395009
0.380371
0.380371
0.366261
0.366262
0.352666
0.352667
0.339573
0.339573
0.326969
0.326969
0.314839
0.314839
0.303172
0.303172
0.291954
0.291954
0.281171
0.281171
0.270811
0.270811
0.260859
0.260859
0.251304
0.251304
0.242132
0.242132
0.23333
0.23333
0.224886
0.224886
0.216786
0.216786
0.209019
0.209019
0.201573
0.201573
0.194435
0.194435
0.187594
0.187594
0.181039
0.181039
0.174758
0.174759
0.168742
0.168742
0.162978
0.162978
0.157457
0.157457
0.15217
0.15217
0.147106
0.147106
0.142256
0.142256
0.137611
0.137611
0.133163
0.133163
0.128903
0.128903
0.124823
0.124823
0.120916
0.120916
0.117173
0.117174
0.113589
0.113589
0.110155
0.110155
0.106866
0.106866
0.103714
0.103714
0.100694
0.100694
0.0978005
0.0978006
0.0950274
0.0950274
0.0923693
0.0923693
0.0898214
0.0898214
0.0873786
0.0873786
0.0850364
0.0850364
0.0827903
0.0827903
0.080636
0.080636
0.0785695
0.0785695
0.076587
0.076587
0.0746847
0.0746847
0.0728591
0.0728591
0.0711068
0.0711068
0.0694247
0.0694248
0.0678097
0.0678098
0.0662589
0.0662589
0.0647695
0.0647695
0.0633388
0.0633388
0.0619644
0.0619644
0.0606437
0.0606437
0.0593746
0.0593746
0.0581548
0.0581548
0.0569822
0.0569822
0.0558549
0.0558549
0.054771
0.054771
0.0537285
0.0537285
0.0527259
0.0527259
0.0517615
0.0517615
0.0508336
0.0508336
0.0499409
0.0499409
0.0490818
0.0490818
0.048255
0.048255
0.0474593
0.0474593
0.0466932
0.0466932
0.0459558
0.0459558
0.0452458
0.0452458
0.0445622
0.0445622
0.0439038
0.0439038
0.0432699
0.0432699
0.0426593
0.0426593
0.0420712
0.0420712
0.0415047
0.0415047
0.0409591
0.0409591
0.0404334
0.0404334
0.0399271
0.0399271
0.0394393
0.0394393
0.0389693
0.0389693
0.0385165
0.0385165
0.0380803
0.0380803
0.03766
0.03766
0.0372551
0.0372551
0.036865
0.036865
0.0364892
0.0364892
0.0361271
0.0361272
0.0357784
0.0357784
0.0354424
0.0354424
0.0351188
0.0351188
0.0348071
0.0348071
0.0345069
0.0345069
0.0342178
0.0342178
0.0339394
0.0339394
0.0336713
0.0336713
0.0334133
0.0334133
0.0331649
0.0331649
0.0329258
0.0329258
0.0326956
0.0326956
0.0324742
0.0324742
0.0322612
0.0322612
0.0320563
0.0320563
0.0318592
0.0318592
0.0316697
0.0316697
0.0314875
0.0314875
0.0313124
0.0313124
0.0311441
0.0311441
0.0309824
0.0309824
0.0308271
0.0308271
0.030678
0.030678
0.0305348
0.0305348
0.0303973
0.0303973
0.0302655
0.0302655
0.030139
0.030139
0.0300177
0.0300177
0.0299014
0.0299014
0.02979
0.02979
0.0296832
0.0296832
0.029581
0.029581
0.0294831
0.0294831
0.0293894
0.0293894
0.0292998
0.0292998
0.0292141
0.0292141
0.0291321
0.0291321
0.0290538
0.0290538
0.028979
0.028979
0.0289076
0.0289076
0.0288394
0.0288394
0.0287744
0.0287744
0.0287123
0.0287123
0.0286532
0.0286532
0.0285968
0.0285968
0.0285431
0.0285431
0.0284919
0.0284919
0.0284432
0.0284432
0.0283968
0.0283968
0.0283527
0.0283527
0.0283107
0.0283107
0.0282708
0.0282708
0.0282328
0.0282328
0.0281967
0.0281967
0.0281624
0.0281624
0.0281297
0.0281297
0.0280986
0.0280986
0.0280691
0.0280691
0.0280409
0.0280409
0.0280141
0.0280141
0.0279886
0.0279886
0.0279643
0.0279643
0.027941
0.027941
0.0279188
0.0279188
0.0278976
0.0278976
0.0278772
0.0278772
0.0278577
0.0278577
0.0278389
0.0278389
0.0278208
0.0278208
0.0278033
0.0278033
0.0277863
0.0277863
0.0277698
0.0277698
0.0277537
0.0277537
0.027738
0.027738
0.0277226
0.0277226
0.0277074
0.0277074
0.0276924
0.0276924
0.0276775
0.0276775
0.0276627
0.0276627
0.0276479
0.0276479
0.027633
0.027633
0.0276181
0.0276181
0.027603
0.027603
0.0275877
0.0275877
0.0275722
0.0275722
0.0275564
0.0275564
0.0275403
0.0275403
0.0275238
0.0275238
0.0275069
0.0275069
0.0274895
0.0274895
0.0274717
0.0274717
0.0274533
0.0274533
0.0274343
0.0274343
0.0274148
0.0274148
0.0273946
0.0273946
0.0273738
0.0273738
0.0273522
0.0273522
0.02733
0.02733
0.027307
0.027307
0.0272832
0.0272832
0.0272587
0.0272587
0.0272333
0.0272333
0.0272072
0.0272072
0.0271802
0.0271802
0.0271523
0.0271523
0.0271236
0.0271236
0.0270939
0.0270939
0.0270635
0.0270635
0.0270321
0.0270321
0.0269998
0.0269998
0.0269667
0.0269667
0.0269327
0.0269327
0.0268978
0.0268978
0.026862
0.026862
0.0268254
0.0268254
0.0267879
0.0267879
0.0267496
0.0267496
0.0267106
0.0267106
0.0266707
0.0266707
0.0266301
0.0266301
0.0265888
0.0265888
0.0265468
0.0265468
0.0265042
0.0265042
0.026461
0.026461
0.0264172
0.0264172
0.0263729
0.0263729
0.0263281
0.0263281
0.026283
0.026283
0.0262375
0.0262375
0.0261917
0.0261917
0.0261458
0.0261458
0.0260997
0.0260997
0.0260535
0.0260535
0.0260074
0.0260074
0.0259614
0.0259614
0.0259156
0.0259156
0.0258701
0.0258701
0.0258249
0.0258249
0.0257802
0.0257802
0.0257362
0.0257362
0.0256928
0.0256928
0.0256502
0.0256502
0.0256085
0.0256085
0.0255678
0.0255678
0.0255283
0.0255283
0.02549
0.02549
0.0254531
0.0254531
0.0254176
0.0254176
0.0253838
0.0253838
0.0253517
0.0253517
0.0253215
0.0253215
0.0252932
0.0252933
0.0252671
0.0252671
0.0252431
0.0252431
0.0252214
0.0252214
0.0252021
0.0252021
0.0251854
0.0251854
0.0251712
0.0251712
0.0251598
0.0251598
0.0251511
0.0251511
0.0251452
0.0251452
0.0251423
0.0251423
0.0251423
0.0251423
0.0251452
0.0251453
0.0251511
0.0251511
0.0251598
0.0251598
0.0251712
0.0251713
0.0251854
0.0251854
0.0252022
0.0252022
0.0252214
0.0252214
0.0252431
0.0252431
0.0252671
0.0252671
0.0252933
0.0252933
0.0253215
0.0253215
0.0253518
0.0253518
0.0253839
0.0253839
0.0254177
0.0254177
0.0254531
0.0254531
0.02549
0.02549
0.0255283
0.0255283
0.0255678
0.0255678
0.0256085
0.0256085
0.0256502
0.0256502
0.0256928
0.0256928
0.0257362
0.0257362
0.0257803
0.0257803
0.025825
0.025825
0.0258701
0.0258701
0.0259156
0.0259156
0.0259615
0.0259615
0.0260075
0.0260075
0.0260536
0.0260536
0.0260998
0.0260998
0.0261459
0.0261459
0.0261918
0.0261918
0.0262376
0.0262376
0.0262831
0.0262831
0.0263282
0.0263282
0.026373
0.026373
0.0264173
0.0264173
0.026461
0.026461
0.0265043
0.0265043
0.0265469
0.0265469
0.0265889
0.0265889
0.0266302
0.0266302
0.0266708
0.0266708
0.0267107
0.0267107
0.0267497
0.0267497
0.026788
0.026788
0.0268255
0.0268255
0.0268621
0.0268621
0.0268979
0.0268979
0.0269328
0.0269328
0.0269668
0.0269668
0.0269999
0.0269999
0.0270322
0.0270322
0.0270636
0.0270636
0.027094
0.027094
0.0271237
0.0271237
0.0271524
0.0271524
0.0271803
0.0271803
0.0272073
0.0272073
0.0272335
0.0272335
0.0272588
0.0272588
0.0272833
0.0272833
0.0273071
0.0273071
0.0273301
0.0273301
0.0273523
0.0273523
0.0273739
0.0273739
0.0273947
0.0273947
0.0274149
0.0274149
0.0274344
0.0274344
0.0274534
0.0274534
0.0274718
0.0274718
0.0274896
0.0274896
0.027507
0.027507
0.0275239
0.0275239
0.0275404
0.0275404
0.0275565
0.0275565
0.0275723
0.0275723
0.0275878
0.0275878
0.0276031
0.0276031
0.0276182
0.0276182
0.0276331
0.0276331
0.027648
0.027648
0.0276628
0.0276628
0.0276776
0.0276776
0.0276925
0.0276925
0.0277075
0.0277075
0.0277227
0.0277227
0.0277381
0.0277381
0.0277538
0.0277538
0.0277699
0.0277699
0.0277864
0.0277864
0.0278034
0.0278034
0.0278209
0.0278209
0.027839
0.027839
0.0278578
0.0278578
0.0278774
0.0278774
0.0278977
0.0278977
0.027919
0.027919
0.0279412
0.0279412
0.0279644
0.0279644
0.0279887
0.0279887
0.0280143
0.0280143
0.028041
0.028041
0.0280692
0.0280692
0.0280987
0.0280987
0.0281298
0.0281298
0.0281625
0.0281625
0.0281968
0.0281968
0.0282329
0.0282329
0.0282709
0.0282709
0.0283108
0.0283108
0.0283528
0.0283528
0.0283969
0.0283969
0.0284433
0.0284433
0.028492
0.028492
0.0285432
0.0285432
0.0285969
0.0285969
0.0286533
0.0286533
0.0287124
0.0287124
0.0287745
0.0287745
0.0288395
0.0288395
0.0289077
0.0289077
0.0289791
0.0289791
0.0290539
0.0290539
0.0291322
0.0291322
0.0292142
0.0292142
0.0292999
0.0292999
0.0293895
0.0293895
0.0294832
0.0294832
0.0295811
0.0295811
0.0296833
0.0296833
0.0297901
0.0297901
0.0299015
0.0299015
0.0300178
0.0300178
0.0301391
0.0301391
0.0302656
0.0302656
0.0303974
0.0303974
0.0305348
0.0305348
0.030678
0.030678
0.0308272
0.0308272
0.0309825
0.0309825
0.0311441
0.0311441
0.0313124
0.0313124
0.0314875
0.0314876
0.0316697
0.0316697
0.0318592
0.0318592
0.0320563
0.0320563
0.0322612
0.0322612
0.0324743
0.0324743
0.0326957
0.0326957
0.0329258
0.0329258
0.0331649
0.0331649
0.0334133
0.0334133
0.0336714
0.0336714
0.0339394
0.0339394
0.0342178
0.0342178
0.0345069
0.0345069
0.0348071
0.0348071
0.0351188
0.0351188
0.0354424
0.0354424
0.0357784
0.0357784
0.0361272
0.0361272
0.0364892
0.0364892
0.036865
0.036865
0.0372551
0.0372551
0.03766
0.03766
0.0380803
0.0380803
0.0385165
0.0385165
0.0389693
0.0389693
0.0394392
0.0394392
0.039927
0.039927
0.0404334
0.0404334
0.040959
0.040959
0.0415047
0.0415047
0.0420711
0.0420711
0.0426592
0.0426592
0.0432698
0.0432698
0.0439038
0.0439038
0.0445621
0.0445621
0.0452457
0.0452457
0.0459557
0.0459557
0.0466931
0.0466931
0.0474591
0.0474591
0.0482549
0.0482549
0.0490817
0.0490817
0.0499407
0.0499407
0.0508335
0.0508335
0.0517613
0.0517613
0.0527257
0.0527257
0.0537283
0.0537283
0.0547708
0.0547708
0.0558547
0.0558547
0.056982
0.056982
0.0581546
0.0581546
0.0593743
0.0593743
0.0606434
0.0606435
0.0619641
0.0619641
0.0633385
0.0633385
0.0647692
0.0647692
0.0662586
0.0662586
0.0678094
0.0678094
0.0694244
0.0694244
0.0711064
0.0711064
0.0728586
0.0728586
0.0746842
0.0746842
0.0765865
0.0765865
0.078569
0.078569
0.0806355
0.0806355
0.0827897
0.0827897
0.0850358
0.0850358
0.087378
0.087378
0.0898207
0.0898207
0.0923687
0.0923687
0.0950266
0.0950266
0.0977998
0.0977998
0.100693
0.100693
0.103713
0.103713
0.106865
0.106865
0.110154
0.110154
0.113588
0.113588
0.117172
0.117172
0.120915
0.120915
0.124822
0.124822
0.128902
0.128902
0.133162
0.133162
0.13761
0.13761
0.142254
0.142254
0.147104
0.147104
0.152168
0.152168
0.157456
0.157456
0.162976
0.162976
0.16874
0.16874
0.174757
0.174757
0.181037
0.181037
0.187592
0.187592
0.194433
0.194433
0.201571
0.201571
0.209017
0.209017
0.216784
0.216784
0.224883
0.224883
0.233328
0.233328
0.24213
0.24213
0.251302
0.251302
0.260857
0.260857
0.270808
0.270808
0.281168
0.281168
0.291951
0.291951
0.303169
0.303169
0.314836
0.314836
0.326965
0.326965
0.33957
0.33957
0.352663
0.352663
0.366258
0.366258
0.380368
0.380368
0.395005
0.395005
0.410182
0.410182
0.425913
0.425913
0.442209
0.442209
0.459082
0.459082
0.476545
0.476545
0.494609
0.494609
0.513285
0.513285
0.532586
0.532586
0.552521
0.552521
0.573102
0.573102
0.594338
0.594338
0.616241
0.616241
0.638819
0.638819
0.662083
0.662083
0.686042
0.686042
0.710705
0.710705
0.73608
0.73608
0.762177
0.762177
0.789004
0.789005
0.81657
0.81657
0.844881
0.844881
0.873947
0.873947
0.903774
0.903774
0.934371
0.934371
0.965744
0.965744
0.997902
0.997902
1.03085
1.03085
1.0646
1.0646
1.09915
1.09915
1.13452
1.13452
1.17071
1.17071
1.20772
1.20772
1.24557
1.24557
1.28426
1.28426
1.32381
1.32381
1.3642
1.3642
1.40547
1.40547
1.4476
1.4476
1.49062
1.49062
1.53452
1.53452
1.57932
1.57932
1.62502
1.62502
1.67164
1.67164
1.71918
1.71918
1.76765
1.76765
1.81706
1.81706
1.86742
1.86742
1.91874
1.91874
1.97104
1.97104
2.02431
2.02431
2.07857
2.07857
2.13383
2.13383
2.19011
2.19011
2.24741
2.24741
2.30574
2.30574
2.36513
2.36513
2.42557
2.42557
2.48709
2.48709
2.5497
2.5497
2.61341
2.61341
2.67823
2.67823
2.74418
2.74418
2.81127
2.81127
2.87952
2.87952
2.94894
2.94894
3.01955
3.01955
3.09136
3.09136
3.16439
3.16439
3.23866
3.23866
3.31418
3.31418
3.39098
3.39098
3.46906
3.46906
3.54844
3.54844
3.62915
3.62915
3.7112
3.7112
3.79462
3.79462
3.87941
3.87941
3.9656
3.9656
4.05321
4.05321
4.14226
4.14226
4.23277
4.23277
4.32477
4.32477
4.41826
4.41826
4.51327
4.51327
4.60983
4.60983
4.70796
4.70796
4.80767
4.80767
4.909
4.909
5.01195
5.01195
5.11657
5.11657
5.22286
5.22286
5.33086
5.33086
5.44059
5.44059
5.55207
5.55207
5.66532
5.66532
5.78038
5.78038
5.89726
5.89726
6.01599
6.01599
6.1366
6.1366
6.25911
6.25911
6.38355
6.38355
6.50995
6.50995
6.63832
6.63832
6.7687
6.7687
6.90112
6.90112
7.0356
7.0356
7.17217
7.17217
7.31085
7.31085
7.45168
7.45168
7.59468
7.59468
7.73988
7.73988
7.88731
7.88731
8.037
8.037
8.18897
8.18897
8.34326
8.34326
8.49989
8.49989
8.65889
8.65889
8.8203
8.8203
8.98414
8.98414
9.15044
9.15044
9.31923