/*--------------------------------*- C++ -*----------------------------------*\
| =========                 |                                                 |
| \\      /  F ield         | OpenFOAM: The Open Source CFD Toolbox           |
|  \\    /   O peration     | Version:  2106                                  |
|   \\  /    A nd           | Website:  www.openfoam.com                      |
|    \\/     M anipulation  |                                                 |
\*---------------------------------------------------------------------------*/
FoamFile
{
    version     2.0;
    format      ascii;
    arch        "LSB;label=32;scalar=64";
    class       volScalarField;
    location    "11000";
    object      p;
}
// * * * * * * * * * * * * * * * * * * * * * * * * * * * * * * * * * * * * * //

dimensions      [0 2 -2 0 0 0 0];

internalField   nonuniform List<scalar> 
2560
(
6.63425e-15
2.96134e-14
1.37304e-14
2.96128e-14
1.47671e-14
2.96123e-14
1.4286e-14
2.96116e-14
1.41135e-14
2.96107e-14
1.4199e-14
2.96096e-14
1.43263e-14
2.96083e-14
1.44556e-14
2.96069e-14
1.45921e-14
2.96053e-14
1.47329e-14
2.96035e-14
1.48732e-14
2.96014e-14
1.50114e-14
2.95993e-14
1.51473e-14
2.95969e-14
1.52814e-14
2.95943e-14
1.54137e-14
2.95916e-14
1.55446e-14
2.95888e-14
1.56739e-14
2.95858e-14
1.58016e-14
2.95827e-14
1.59278e-14
2.95795e-14
1.60526e-14
2.95761e-14
1.61759e-14
2.95725e-14
1.62976e-14
2.9569e-14
1.64179e-14
2.95653e-14
1.65369e-14
2.95614e-14
1.66544e-14
2.95574e-14
1.67705e-14
2.95532e-14
1.68851e-14
2.95489e-14
1.69985e-14
2.95446e-14
1.71105e-14
2.95404e-14
1.72212e-14
2.95361e-14
1.73305e-14
2.95318e-14
1.74385e-14
2.95271e-14
1.75451e-14
2.95226e-14
1.76504e-14
2.95183e-14
1.77545e-14
2.95139e-14
1.78574e-14
2.95094e-14
1.7959e-14
2.95048e-14
1.80594e-14
2.95e-14
1.81587e-14
2.94951e-14
1.82567e-14
2.949e-14
1.83534e-14
2.94849e-14
1.84489e-14
2.94798e-14
1.85433e-14
2.94749e-14
1.86364e-14
2.94698e-14
1.87285e-14
2.94645e-14
1.88193e-14
2.94593e-14
1.89089e-14
2.94543e-14
1.89975e-14
2.94495e-14
1.90849e-14
2.94447e-14
1.9171e-14
2.94401e-14
1.92563e-14
2.94355e-14
1.93403e-14
2.9431e-14
1.9423e-14
2.94263e-14
1.95049e-14
2.94216e-14
1.95856e-14
2.94169e-14
1.9665e-14
2.94127e-14
1.97436e-14
2.94086e-14
1.98213e-14
2.94044e-14
1.98979e-14
2.94004e-14
1.99731e-14
2.93966e-14
2.00473e-14
2.93929e-14
2.01209e-14
2.93895e-14
2.01934e-14
2.93861e-14
2.02648e-14
2.93829e-14
2.0335e-14
2.93801e-14
2.0404e-14
2.93775e-14
2.0472e-14
2.9375e-14
2.05392e-14
2.93726e-14
2.06055e-14
2.93706e-14
2.06716e-14
2.93689e-14
2.07363e-14
2.93669e-14
2.08002e-14
2.9365e-14
2.08634e-14
2.93628e-14
2.09259e-14
2.93607e-14
2.09875e-14
2.93589e-14
2.10485e-14
2.93568e-14
2.11086e-14
2.93549e-14
2.11677e-14
2.93531e-14
2.12265e-14
2.93514e-14
2.12844e-14
2.93503e-14
2.13405e-14
2.93503e-14
2.13954e-14
2.93497e-14
2.14502e-14
2.93489e-14
2.15035e-14
2.93492e-14
2.15554e-14
2.93508e-14
2.16065e-14
2.93528e-14
2.16565e-14
2.93551e-14
2.17053e-14
2.93571e-14
2.1754e-14
2.93591e-14
2.18024e-14
2.93622e-14
2.18498e-14
2.93652e-14
2.18967e-14
2.93683e-14
2.19423e-14
2.93719e-14
2.19882e-14
2.93752e-14
2.20344e-14
2.93779e-14
2.208e-14
2.93812e-14
2.21255e-14
2.93863e-14
2.21698e-14
2.93929e-14
2.22127e-14
2.93993e-14
2.22566e-14
2.94049e-14
2.22998e-14
2.94112e-14
2.2343e-14
2.94186e-14
2.23838e-14
2.94267e-14
2.24251e-14
2.94358e-14
2.24664e-14
2.94457e-14
2.25063e-14
2.94563e-14
2.25458e-14
2.94671e-14
2.2586e-14
2.9477e-14
2.26261e-14
2.9486e-14
2.26651e-14
2.9496e-14
2.27038e-14
2.95065e-14
2.27415e-14
2.95173e-14
2.27779e-14
2.95267e-14
2.28149e-14
2.95347e-14
2.28514e-14
2.9544e-14
2.28883e-14
2.9553e-14
2.29247e-14
2.95601e-14
2.29605e-14
2.95678e-14
2.29929e-14
2.95763e-14
2.30265e-14
2.95867e-14
2.30611e-14
2.95935e-14
2.3092e-14
2.96014e-14
2.31239e-14
2.96086e-14
2.31558e-14
2.96172e-14
2.31884e-14
2.96243e-14
2.32171e-14
2.96347e-14
2.32445e-14
2.96478e-14
2.32705e-14
2.96607e-14
2.3298e-14
2.96716e-14
2.3322e-14
2.96836e-14
2.33454e-14
2.96957e-14
2.33679e-14
2.9713e-14
2.33916e-14
2.97319e-14
2.34153e-14
2.97462e-14
2.34359e-14
2.97643e-14
2.34573e-14
2.97802e-14
2.34794e-14
2.9794e-14
2.35e-14
2.98079e-14
2.35233e-14
2.98273e-14
2.35469e-14
2.98418e-14
2.35666e-14
2.98493e-14
2.35863e-14
2.9865e-14
2.36039e-14
2.98827e-14
2.36236e-14
2.98916e-14
2.36429e-14
2.99028e-14
2.36618e-14
2.99166e-14
2.36823e-14
2.99285e-14
2.37044e-14
2.99343e-14
2.37302e-14
2.9934e-14
2.37549e-14
2.9937e-14
2.37762e-14
2.9941e-14
2.38007e-14
2.99488e-14
2.38237e-14
2.99629e-14
2.38497e-14
2.99717e-14
2.38642e-14
2.99778e-14
2.38764e-14
2.99813e-14
2.38983e-14
2.99849e-14
2.392e-14
3.00059e-14
2.39412e-14
3.00327e-14
2.39518e-14
3.00505e-14
2.39614e-14
3.00646e-14
2.39645e-14
3.00803e-14
2.39734e-14
3.00979e-14
2.3988e-14
3.01127e-14
2.39925e-14
3.01199e-14
2.4002e-14
3.01274e-14
2.40136e-14
3.0133e-14
2.40193e-14
3.01343e-14
2.40289e-14
3.01344e-14
2.40371e-14
3.01336e-14
2.4046e-14
3.014e-14
2.40605e-14
3.01383e-14
2.40751e-14
3.01287e-14
2.4084e-14
3.01169e-14
2.41029e-14
3.01031e-14
2.41206e-14
3.00822e-14
2.4137e-14
3.00655e-14
2.41569e-14
3.00479e-14
2.41636e-14
3.00351e-14
2.41565e-14
3.00387e-14
2.41626e-14
3.0026e-14
2.41592e-14
3.00142e-14
2.41458e-14
3.00036e-14
2.41384e-14
3.00061e-14
2.41252e-14
2.99999e-14
2.41111e-14
2.99912e-14
2.40955e-14
2.99749e-14
2.40661e-14
2.99629e-14
2.40449e-14
2.99503e-14
2.40196e-14
2.99433e-14
2.40008e-14
2.99314e-14
2.39876e-14
2.99037e-14
2.39851e-14
2.98665e-14
2.39868e-14
2.98434e-14
2.39803e-14
2.98292e-14
2.39937e-14
2.97723e-14
2.40032e-14
2.97254e-14
2.40197e-14
2.97066e-14
2.40483e-14
2.96813e-14
2.40708e-14
2.96382e-14
2.41039e-14
2.96132e-14
2.41233e-14
2.95832e-14
2.4152e-14
2.95428e-14
2.41951e-14
2.94981e-14
2.42343e-14
2.94495e-14
2.4281e-14
2.93971e-14
2.43049e-14
2.93589e-14
2.43587e-14
2.92994e-14
2.44062e-14
2.92306e-14
2.4459e-14
2.91642e-14
2.45047e-14
2.91238e-14
2.45547e-14
2.90619e-14
2.46087e-14
2.89779e-14
2.46664e-14
2.89316e-14
2.47393e-14
2.88987e-14
2.47908e-14
2.89033e-14
2.48563e-14
2.88858e-14
2.4923e-14
2.88464e-14
2.49906e-14
2.88209e-14
2.50706e-14
2.88213e-14
2.51504e-14
2.87875e-14
2.52415e-14
2.87432e-14
2.53202e-14
2.87236e-14
2.54099e-14
2.87284e-14
2.54863e-14
2.86973e-14
2.5573e-14
2.86537e-14
2.5658e-14
2.86327e-14
2.57414e-14
2.86215e-14
2.5823e-14
2.86439e-14
2.59138e-14
2.8628e-14
2.60137e-14
2.85969e-14
2.61113e-14
2.85853e-14
2.62184e-14
2.86401e-14
2.63348e-14
2.86299e-14
2.6449e-14
2.8601e-14
2.655e-14
2.86349e-14
2.66852e-14
2.86362e-14
2.68077e-14
2.8651e-14
2.69303e-14
2.86304e-14
2.7054e-14
2.86547e-14
2.71912e-14
2.8687e-14
2.73076e-14
2.87021e-14
2.74391e-14
2.87335e-14
2.75514e-14
2.88026e-14
2.76794e-14
2.88619e-14
2.78114e-14
2.89333e-14
2.79472e-14
2.89929e-14
2.8111e-14
2.90391e-14
2.82117e-14
2.90692e-14
2.83187e-14
2.91043e-14
2.84553e-14
2.91428e-14
2.85542e-14
2.92506e-14
2.87288e-14
2.9314e-14
2.88219e-14
2.94439e-14
2.89457e-14
2.95053e-14
2.90553e-14
2.95194e-14
2.91526e-14
2.95736e-14
2.92824e-14
2.96435e-14
2.93778e-14
2.97714e-14
2.95044e-14
2.98464e-14
2.96188e-14
2.99334e-14
2.97204e-14
2.99868e-14
2.98098e-14
3.00497e-14
2.99966e-14
3.0143e-14
3.01087e-14
3.02627e-14
3.02764e-14
3.03645e-14
3.03714e-14
3.04457e-14
3.05228e-14
3.05269e-14
3.06893e-14
3.06687e-14
3.07864e-14
3.08488e-14
3.08738e-14
3.10072e-14
3.0948e-14
3.11048e-14
3.10491e-14
3.11845e-14
3.1177e-14
3.13485e-14
3.13502e-14
3.15347e-14
3.15059e-14
3.16817e-14
3.16251e-14
3.17475e-14
3.17101e-14
3.18102e-14
3.18629e-14
3.19475e-14
3.19816e-14
3.21171e-14
3.21441e-14
3.22615e-14
3.22717e-14
3.23604e-14
3.23654e-14
3.24128e-14
3.24652e-14
3.24734e-14
3.25909e-14
3.25952e-14
3.26658e-14
3.27369e-14
3.27039e-14
3.28076e-14
3.28156e-14
3.28485e-14
3.29255e-14
3.30066e-14
3.30672e-14
3.31348e-14
3.32055e-14
3.32321e-14
3.32308e-14
3.32954e-14
3.34315e-14
3.33983e-14
3.34899e-14
3.3531e-14
3.35464e-14
3.36628e-14
3.37008e-14
3.37685e-14
3.38507e-14
3.38463e-14
3.38978e-14
3.39245e-14
3.40447e-14
3.40392e-14
3.40568e-14
3.40859e-14
3.40975e-14
3.4167e-14
3.41549e-14
3.42848e-14
3.42551e-14
3.43803e-14
3.43364e-14
3.44561e-14
3.43349e-14
3.44807e-14
3.44385e-14
3.4524e-14
3.44971e-14
3.4548e-14
3.45813e-14
3.45791e-14
3.46344e-14
3.46746e-14
3.47422e-14
3.47781e-14
3.47876e-14
3.48623e-14
3.47668e-14
3.49056e-14
3.48788e-14
3.49502e-14
3.49308e-14
3.50499e-14
3.48862e-14
3.50368e-14
3.49156e-14
3.49763e-14
3.4913e-14
3.49398e-14
3.4915e-14
3.49496e-14
3.4892e-14
3.48937e-14
3.4853e-14
3.48826e-14
2.42132e-14
2.50887e-14
2.42129e-14
2.50887e-14
2.42126e-14
2.50886e-14
2.42123e-14
2.50885e-14
2.42119e-14
2.50884e-14
2.42115e-14
2.50882e-14
2.42109e-14
2.50879e-14
2.42103e-14
2.50876e-14
2.42095e-14
2.50873e-14
2.42088e-14
2.50869e-14
2.42079e-14
2.50864e-14
2.4207e-14
2.50859e-14
2.4206e-14
2.50852e-14
2.42049e-14
2.50846e-14
2.42038e-14
2.50839e-14
2.42025e-14
2.50832e-14
2.42012e-14
2.50825e-14
2.41998e-14
2.50817e-14
2.41984e-14
2.50809e-14
2.41968e-14
2.508e-14
2.41952e-14
2.50791e-14
2.41934e-14
2.50783e-14
2.41916e-14
2.50776e-14
2.41896e-14
2.50768e-14
2.41878e-14
2.50758e-14
2.41858e-14
2.50747e-14
2.41835e-14
2.50737e-14
2.41813e-14
2.50728e-14
2.41791e-14
2.5072e-14
2.41768e-14
2.5071e-14
2.41744e-14
2.50697e-14
2.41719e-14
2.50685e-14
2.41693e-14
2.50676e-14
2.41667e-14
2.50668e-14
2.41641e-14
2.50658e-14
2.41614e-14
2.50648e-14
2.41586e-14
2.50637e-14
2.41559e-14
2.50627e-14
2.41531e-14
2.50613e-14
2.41503e-14
2.506e-14
2.41476e-14
2.50589e-14
2.41445e-14
2.50578e-14
2.41416e-14
2.50568e-14
2.41387e-14
2.50556e-14
2.41357e-14
2.50544e-14
2.41328e-14
2.50532e-14
2.413e-14
2.50523e-14
2.41272e-14
2.50514e-14
2.41243e-14
2.50501e-14
2.41215e-14
2.50488e-14
2.41187e-14
2.50473e-14
2.41159e-14
2.50458e-14
2.41134e-14
2.50445e-14
2.41109e-14
2.50431e-14
2.41086e-14
2.50417e-14
2.41063e-14
2.50402e-14
2.41043e-14
2.50386e-14
2.41022e-14
2.50372e-14
2.40999e-14
2.50359e-14
2.40979e-14
2.50342e-14
2.4096e-14
2.50329e-14
2.40943e-14
2.50313e-14
2.40927e-14
2.50302e-14
2.4091e-14
2.50289e-14
2.40894e-14
2.50277e-14
2.40885e-14
2.50266e-14
2.40877e-14
2.5025e-14
2.40869e-14
2.50242e-14
2.40866e-14
2.50228e-14
2.40866e-14
2.5021e-14
2.40864e-14
2.50196e-14
2.40866e-14
2.50184e-14
2.40868e-14
2.50175e-14
2.40872e-14
2.50172e-14
2.40876e-14
2.50167e-14
2.40884e-14
2.50161e-14
2.40895e-14
2.50153e-14
2.40909e-14
2.50151e-14
2.40926e-14
2.50144e-14
2.40937e-14
2.50135e-14
2.40953e-14
2.50131e-14
2.40974e-14
2.50128e-14
2.40994e-14
2.50132e-14
2.41018e-14
2.50137e-14
2.41048e-14
2.50143e-14
2.41076e-14
2.50151e-14
2.41106e-14
2.50163e-14
2.41144e-14
2.5017e-14
2.41186e-14
2.50175e-14
2.41229e-14
2.50185e-14
2.41276e-14
2.50193e-14
2.4132e-14
2.50206e-14
2.41363e-14
2.5022e-14
2.41407e-14
2.50223e-14
2.41451e-14
2.50227e-14
2.415e-14
2.50245e-14
2.41554e-14
2.50272e-14
2.41612e-14
2.50295e-14
2.41678e-14
2.50297e-14
2.41745e-14
2.50301e-14
2.4182e-14
2.50317e-14
2.41879e-14
2.50337e-14
2.41951e-14
2.5037e-14
2.42036e-14
2.50391e-14
2.42104e-14
2.50419e-14
2.42181e-14
2.50443e-14
2.42246e-14
2.50471e-14
2.42311e-14
2.50519e-14
2.42385e-14
2.50554e-14
2.42472e-14
2.50592e-14
2.42546e-14
2.50655e-14
2.4262e-14
2.50713e-14
2.42695e-14
2.50756e-14
2.42788e-14
2.50803e-14
2.42889e-14
2.50852e-14
2.42991e-14
2.50912e-14
2.43084e-14
2.50975e-14
2.43195e-14
2.51041e-14
2.43297e-14
2.51136e-14
2.434e-14
2.51233e-14
2.43512e-14
2.51333e-14
2.43623e-14
2.51398e-14
2.43754e-14
2.51465e-14
2.43894e-14
2.51552e-14
2.44035e-14
2.5164e-14
2.44175e-14
2.51721e-14
2.44297e-14
2.51802e-14
2.44419e-14
2.51904e-14
2.4454e-14
2.51997e-14
2.44691e-14
2.52061e-14
2.44813e-14
2.52174e-14
2.44954e-14
2.52297e-14
2.45106e-14
2.5237e-14
2.45247e-14
2.52443e-14
2.45388e-14
2.52565e-14
2.4556e-14
2.52666e-14
2.45753e-14
2.52786e-14
2.45936e-14
2.52904e-14
2.46097e-14
2.53052e-14
2.46323e-14
2.53165e-14
2.46571e-14
2.53243e-14
2.46733e-14
2.53372e-14
2.46917e-14
2.53574e-14
2.47168e-14
2.53739e-14
2.47397e-14
2.53866e-14
2.47604e-14
2.54044e-14
2.47812e-14
2.54274e-14
2.48044e-14
2.54533e-14
2.48299e-14
2.54798e-14
2.48532e-14
2.55e-14
2.48765e-14
2.5523e-14
2.49069e-14
2.55419e-14
2.49374e-14
2.55659e-14
2.49704e-14
2.55951e-14
2.50036e-14
2.56152e-14
2.50418e-14
2.56331e-14
2.50827e-14
2.5661e-14
2.5114e-14
2.56916e-14
2.51506e-14
2.57273e-14
2.51924e-14
2.57607e-14
2.5232e-14
2.57967e-14
2.5267e-14
2.58327e-14
2.53125e-14
2.58587e-14
2.53509e-14
2.58896e-14
2.53949e-14
2.59306e-14
2.54343e-14
2.59636e-14
2.54691e-14
2.60016e-14
2.55071e-14
2.60393e-14
2.55484e-14
2.60688e-14
2.55852e-14
2.61005e-14
2.562e-14
2.61476e-14
2.56557e-14
2.61969e-14
2.57028e-14
2.6227e-14
2.57509e-14
2.62646e-14
2.57838e-14
2.63097e-14
2.58231e-14
2.63407e-14
2.58689e-14
2.63682e-14
2.59049e-14
2.64141e-14
2.59421e-14
2.64511e-14
2.59861e-14
2.6479e-14
2.60315e-14
2.65089e-14
2.60562e-14
2.65405e-14
2.60825e-14
2.65739e-14
2.6116e-14
2.65866e-14
2.61457e-14
2.6601e-14
2.61887e-14
2.66394e-14
2.6234e-14
2.66737e-14
2.62873e-14
2.67095e-14
2.63263e-14
2.67351e-14
2.63739e-14
2.67735e-14
2.64189e-14
2.68015e-14
2.64559e-14
2.68307e-14
2.64966e-14
2.68724e-14
2.65354e-14
2.6921e-14
2.65782e-14
2.69708e-14
2.66369e-14
2.70044e-14
2.67002e-14
2.70333e-14
2.67334e-14
2.70808e-14
2.67834e-14
2.71119e-14
2.68506e-14
2.71265e-14
2.69061e-14
2.71536e-14
2.69442e-14
2.72049e-14
2.69771e-14
2.72631e-14
2.70223e-14
2.73165e-14
2.70683e-14
2.73652e-14
2.71151e-14
2.74333e-14
2.71689e-14
2.74914e-14
2.72299e-14
2.75457e-14
2.72865e-14
2.76082e-14
2.73268e-14
2.76794e-14
2.73747e-14
2.7748e-14
2.74183e-14
2.78144e-14
2.74817e-14
2.78671e-14
2.75531e-14
2.79066e-14
2.76331e-14
2.79449e-14
2.76743e-14
2.80059e-14
2.77247e-14
2.80419e-14
2.77728e-14
2.8077e-14
2.78427e-14
2.81354e-14
2.7923e-14
2.81934e-14
2.8002e-14
2.8251e-14
2.80562e-14
2.83204e-14
2.81218e-14
2.83903e-14
2.81869e-14
2.84612e-14
2.82756e-14
2.85336e-14
2.83406e-14
2.86079e-14
2.83699e-14
2.86488e-14
2.84355e-14
2.8681e-14
2.8526e-14
2.87524e-14
2.8606e-14
2.88151e-14
2.86524e-14
2.88696e-14
2.87248e-14
2.89046e-14
2.87761e-14
2.90038e-14
2.88418e-14
2.90845e-14
2.88976e-14
2.9136e-14
2.89676e-14
2.91948e-14
2.90638e-14
2.92253e-14
2.91282e-14
2.92983e-14
2.9208e-14
2.93908e-14
2.92795e-14
2.94804e-14
2.93543e-14
2.95564e-14
2.94322e-14
2.96432e-14
2.95132e-14
2.973e-14
2.96088e-14
2.98414e-14
2.97191e-14
2.99432e-14
2.98445e-14
3.00127e-14
2.99165e-14
3.00962e-14
3.00279e-14
3.02174e-14
3.01551e-14
3.03084e-14
3.02766e-14
3.03697e-14
3.03484e-14
3.04468e-14
3.04164e-14
3.0518e-14
3.04808e-14
3.06062e-14
3.05631e-14
3.06901e-14
3.06637e-14
3.07696e-14
3.07381e-14
3.08225e-14
3.08546e-14
3.08946e-14
3.09927e-14
3.10079e-14
3.1042e-14
3.10956e-14
3.11134e-14
3.12035e-14
3.125e-14
3.12893e-14
3.13435e-14
3.13081e-14
3.1419e-14
3.13465e-14
3.15225e-14
3.14472e-14
3.16098e-14
3.15883e-14
3.1723e-14
3.16856e-14
3.18409e-14
3.17611e-14
3.19661e-14
3.18571e-14
3.20789e-14
3.19306e-14
3.22021e-14
3.20222e-14
3.2275e-14
3.21506e-14
3.23388e-14
3.22544e-14
3.24139e-14
3.23571e-14
3.24995e-14
3.25237e-14
3.26129e-14
3.26751e-14
3.26691e-14
3.28337e-14
3.2765e-14
3.29442e-14
3.28385e-14
3.30712e-14
3.29888e-14
3.31795e-14
3.30565e-14
3.33083e-14
3.31588e-14
3.34009e-14
3.32749e-14
3.34773e-14
3.34068e-14
3.35759e-14
3.35188e-14
3.36974e-14
3.35922e-14
3.38257e-14
3.36814e-14
3.38889e-14
3.37503e-14
3.39239e-14
3.39174e-14
3.39296e-14
3.40056e-14
3.40097e-14
3.40546e-14
3.41237e-14
3.42075e-14
3.42019e-14
3.42851e-14
3.43142e-14
3.43259e-14
3.4429e-14
3.43565e-14
3.45176e-14
3.44082e-14
3.45131e-14
3.44859e-14
3.45515e-14
3.45902e-14
3.46279e-14
3.47221e-14
3.47053e-14
3.47171e-14
3.47455e-14
3.48433e-14
3.48545e-14
3.50042e-14
3.49314e-14
3.50454e-14
3.49698e-14
3.50041e-14
3.50009e-14
3.50349e-14
3.503e-14
3.51027e-14
3.50228e-14
3.50575e-14
3.50363e-14
3.50495e-14
3.50758e-14
3.51022e-14
3.50845e-14
3.51871e-14
3.51208e-14
3.51565e-14
3.51446e-14
3.51846e-14
3.51586e-14
3.52413e-14
3.51575e-14
3.51577e-14
3.5162e-14
3.52137e-14
3.51815e-14
3.5204e-14
3.51757e-14
3.52215e-14
3.51759e-14
3.51802e-14
3.51548e-14
3.51635e-14
3.51172e-14
3.5087e-14
3.50568e-14
3.50315e-14
3.5034e-14
3.48229e-14
3.48927e-14
3.47429e-14
3.48482e-14
3.47514e-14
3.48103e-14
3.46852e-14
3.47453e-14
3.4572e-14
3.4655e-14
3.45855e-14
3.46305e-14
3.45252e-14
3.45767e-14
3.44465e-14
3.45185e-14
3.44679e-14
3.44905e-14
3.44801e-14
3.45192e-14
3.44222e-14
3.44893e-14
3.4443e-14
3.44351e-14
3.44563e-14
3.44388e-14
3.44032e-14
3.44662e-14
3.43992e-14
3.44957e-14
3.4442e-14
3.44339e-14
3.44177e-14
3.44293e-14
3.44213e-14
3.44195e-14
3.44222e-14
3.43728e-14
3.43902e-14
3.43183e-14
3.43574e-14
3.43212e-14
3.43569e-14
3.43168e-14
3.43909e-14
3.434e-14
3.43219e-14
3.43241e-14
3.42496e-14
3.43074e-14
3.42751e-14
3.42952e-14
3.42604e-14
3.42477e-14
3.42081e-14
3.42324e-14
3.42277e-14
3.42521e-14
3.41722e-14
3.42337e-14
3.41092e-14
3.41776e-14
3.41115e-14
3.41577e-14
3.41073e-14
3.42096e-14
3.40545e-14
3.42244e-14
3.40639e-14
3.42442e-14
3.40972e-14
3.42328e-14
3.40599e-14
3.42064e-14
3.40288e-14
3.42233e-14
3.40614e-14
3.42479e-14
3.40792e-14
3.4279e-14
3.40412e-14
3.43388e-14
3.40418e-14
3.43726e-14
3.41025e-14
3.43824e-14
3.40441e-14
3.43655e-14
3.41272e-14
3.43228e-14
3.41361e-14
3.42876e-14
3.40729e-14
3.42366e-14
3.40393e-14
3.42321e-14
3.41196e-14
3.4234e-14
3.42143e-14
3.42393e-14
3.42217e-14
3.42232e-14
3.41853e-14
3.41847e-14
3.42122e-14
3.41868e-14
3.42828e-14
3.42285e-14
3.42488e-14
3.42442e-14
3.4193e-14
3.42801e-14
3.41979e-14
3.434e-14
3.4198e-14
3.43384e-14
3.4216e-14
3.42966e-14
3.41879e-14
3.43012e-14
3.42009e-14
3.43318e-14
3.42776e-14
3.42782e-14
3.42447e-14
3.42686e-14
3.42345e-14
3.43487e-14
3.42893e-14
3.4342e-14
3.43216e-14
3.43137e-14
3.4288e-14
3.43072e-14
3.4278e-14
3.43243e-14
3.42683e-14
3.43666e-14
3.42573e-14
3.43436e-14
3.42455e-14
3.43453e-14
3.42321e-14
3.43493e-14
3.42166e-14
3.43566e-14
3.41984e-14
3.43214e-14
3.41777e-14
3.42892e-14
3.4178e-14
3.43292e-14
3.41755e-14
3.43494e-14
3.41583e-14
3.42912e-14
3.4127e-14
3.42587e-14
3.41402e-14
3.43105e-14
3.41509e-14
3.43304e-14
3.41471e-14
3.43538e-14
3.41518e-14
3.43455e-14
3.41416e-14
3.43642e-14
3.4116e-14
3.43868e-14
3.41217e-14
3.43665e-14
3.41238e-14
3.43383e-14
3.40871e-14
3.43367e-14
3.40944e-14
3.43383e-14
3.40983e-14
3.43314e-14
3.41229e-14
3.43157e-14
3.41329e-14
3.43265e-14
3.41405e-14
3.43397e-14
3.41577e-14
3.43193e-14
3.41611e-14
3.43128e-14
3.41627e-14
3.43559e-14
3.41742e-14
3.43654e-14
3.41835e-14
3.43652e-14
3.4179e-14
3.43671e-14
3.41964e-14
3.43353e-14
3.42124e-14
3.43409e-14
3.4227e-14
3.43598e-14
3.42402e-14
3.4344e-14
3.42523e-14
3.43294e-14
3.42636e-14
3.43276e-14
3.42742e-14
3.43386e-14
3.42841e-14
3.43382e-14
3.43055e-14
3.43141e-14
3.43028e-14
3.4314e-14
3.42999e-14
3.43259e-14
3.42968e-14
3.43258e-14
3.42933e-14
3.43258e-14
3.42896e-14
3.4302e-14
3.42976e-14
3.42781e-14
3.43057e-14
3.42895e-14
3.43139e-14
3.43006e-14
3.43221e-14
3.42697e-14
3.43188e-14
3.4256e-14
3.431e-14
3.42535e-14
3.42897e-14
3.42681e-14
3.42814e-14
3.42881e-14
3.42611e-14
3.43137e-14
3.42522e-14
3.43276e-14
3.42544e-14
3.43415e-14
3.42503e-14
3.43558e-14
3.42338e-14
3.4382e-14
3.42455e-14
3.43797e-14
3.42623e-14
3.43662e-14
3.42437e-14
3.43705e-14
3.42476e-14
3.43752e-14
3.42622e-14
3.43746e-14
3.42591e-14
3.43744e-14
3.42554e-14
3.43689e-14
3.42625e-14
3.43695e-14
3.42691e-14
3.43818e-14
3.42865e-14
3.43717e-14
3.42809e-14
3.43564e-14
3.42807e-14
3.43638e-14
3.42857e-14
3.43714e-14
3.42848e-14
3.43849e-14
3.42779e-14
3.43876e-14
3.42761e-14
3.43851e-14
3.42739e-14
3.43831e-14
3.42767e-14
3.4365e-14
3.42738e-14
3.43637e-14
3.42705e-14
3.43682e-14
3.42668e-14
3.43621e-14
3.42682e-14
3.43563e-14
3.42586e-14
3.43509e-14
3.42594e-14
3.4351e-14
3.42546e-14
3.43408e-14
3.42469e-14
3.43283e-14
3.42442e-14
3.43187e-14
3.42387e-14
3.43198e-14
3.4233e-14
3.43159e-14
3.42322e-14
3.43122e-14
3.42235e-14
3.43113e-14
3.42121e-14
3.43105e-14
3.42031e-14
3.42998e-14
3.41964e-14
3.42893e-14
3.4192e-14
3.42791e-14
3.4195e-14
3.42764e-14
3.41952e-14
3.4269e-14
3.41855e-14
3.4264e-14
3.4183e-14
3.42568e-14
3.41827e-14
3.42569e-14
3.41823e-14
3.42547e-14
3.41842e-14
3.42596e-14
3.41812e-14
3.42575e-14
3.41734e-14
3.42483e-14
3.41725e-14
3.42439e-14
3.41715e-14
3.42442e-14
3.41773e-14
3.42467e-14
3.41738e-14
3.42515e-14
3.41703e-14
3.4254e-14
3.41689e-14
3.42543e-14
3.41674e-14
3.4259e-14
3.41637e-14
3.42548e-14
3.41598e-14
3.42529e-14
3.41581e-14
3.42619e-14
3.41562e-14
3.42708e-14
3.41564e-14
3.42711e-14
3.41586e-14
3.42715e-14
3.41564e-14
3.42802e-14
3.41562e-14
3.42827e-14
3.41569e-14
3.42801e-14
3.41575e-14
3.42816e-14
3.416e-14
3.42862e-14
3.41633e-14
3.42898e-14
3.41665e-14
3.42924e-14
3.41676e-14
3.4295e-14
3.41686e-14
3.42947e-14
3.41714e-14
3.42934e-14
3.4174e-14
3.42932e-14
3.41756e-14
3.42949e-14
3.41762e-14
3.42995e-14
3.41757e-14
3.43022e-14
3.4176e-14
3.43031e-14
3.41763e-14
3.43049e-14
3.41755e-14
3.43095e-14
3.41747e-14
3.43105e-14
3.41728e-14
3.43115e-14
3.41736e-14
3.43116e-14
3.41726e-14
3.43136e-14
3.41714e-14
3.43173e-14
3.4171e-14
3.43202e-14
3.41706e-14
3.43214e-14
3.41701e-14
3.43226e-14
3.41703e-14
3.43221e-14
3.41697e-14
3.43234e-14
3.41689e-14
3.43247e-14
3.41685e-14
3.43256e-14
3.41681e-14
3.43258e-14
3.4168e-14
3.43255e-14
3.41682e-14
3.43265e-14
3.41679e-14
3.43272e-14
3.41668e-14
3.43262e-14
3.41668e-14
3.43253e-14
3.4168e-14
3.43244e-14
3.41684e-14
3.43244e-14
3.41682e-14
3.43244e-14
3.41689e-14
3.43236e-14
3.41694e-14
3.43228e-14
3.417e-14
3.43225e-14
3.41704e-14
3.43218e-14
3.41709e-14
3.43207e-14
3.41717e-14
3.43197e-14
3.41729e-14
3.43186e-14
3.41736e-14
3.43193e-14
3.41734e-14
3.43204e-14
3.41745e-14
3.43199e-14
3.41751e-14
3.43185e-14
3.41765e-14
3.43175e-14
3.41779e-14
3.43175e-14
3.41795e-14
3.43176e-14
3.41805e-14
3.43183e-14
3.4182e-14
3.43185e-14
3.41827e-14
3.43179e-14
3.41831e-14
3.43181e-14
3.41841e-14
3.43191e-14
3.41849e-14
3.43199e-14
3.41857e-14
3.43204e-14
3.4186e-14
3.4321e-14
3.41863e-14
3.43216e-14
3.41868e-14
3.43215e-14
3.41875e-14
3.43217e-14
3.41884e-14
3.43221e-14
3.41891e-14
3.43223e-14
3.41893e-14
3.43225e-14
3.41894e-14
3.43227e-14
3.41898e-14
3.4323e-14
3.41904e-14
3.43232e-14
3.41908e-14
3.43227e-14
3.41911e-14
3.43226e-14
3.41912e-14
3.4323e-14
3.41915e-14
3.43235e-14
3.41921e-14
3.43237e-14
3.41925e-14
3.43236e-14
3.41926e-14
3.43235e-14
3.41929e-14
3.43237e-14
3.41928e-14
3.43238e-14
3.41931e-14
3.43238e-14
3.41933e-14
3.43245e-14
3.41934e-14
3.43251e-14
3.41932e-14
3.43254e-14
3.41934e-14
3.43256e-14
3.41938e-14
3.43257e-14
3.41938e-14
3.43257e-14
3.41936e-14
3.43261e-14
3.41938e-14
3.43263e-14
3.41941e-14
3.43266e-14
3.41942e-14
3.43265e-14
3.41945e-14
3.43265e-14
3.41947e-14
3.43264e-14
3.41948e-14
3.43265e-14
3.41949e-14
3.43266e-14
3.41952e-14
3.43265e-14
3.41954e-14
3.43265e-14
3.41957e-14
3.43264e-14
3.4196e-14
3.43263e-14
3.41961e-14
3.43262e-14
3.41962e-14
3.4326e-14
3.41963e-14
3.4326e-14
3.41965e-14
3.43259e-14
3.41966e-14
3.43255e-14
3.41968e-14
3.43254e-14
3.41969e-14
3.43254e-14
3.4197e-14
3.43254e-14
3.41972e-14
3.43254e-14
3.41973e-14
3.43254e-14
3.41974e-14
3.43254e-14
3.41976e-14
3.43252e-14
3.41977e-14
3.43251e-14
3.41978e-14
3.4325e-14
3.41979e-14
3.43249e-14
3.41979e-14
3.43249e-14
3.4198e-14
3.43249e-14
3.41981e-14
3.43249e-14
3.41981e-14
3.43249e-14
3.41982e-14
3.43248e-14
3.41982e-14
3.43247e-14
3.41984e-14
3.43246e-14
3.41985e-14
3.43245e-14
3.41985e-14
3.43245e-14
3.41986e-14
3.43245e-14
3.41986e-14
3.43245e-14
3.41986e-14
3.43245e-14
3.41986e-14
3.43245e-14
3.41987e-14
3.43244e-14
3.41987e-14
3.43245e-14
3.41988e-14
3.43245e-14
3.41988e-14
3.43245e-14
3.41988e-14
3.43245e-14
3.41988e-14
3.43245e-14
3.41988e-14
3.43245e-14
3.41988e-14
3.43245e-14
3.41988e-14
3.43246e-14
3.41988e-14
3.43246e-14
3.41988e-14
3.43246e-14
3.41988e-14
3.43246e-14
3.49332e-14
3.49954e-14
3.48624e-14
3.49759e-14
3.48404e-14
3.48983e-14
3.47869e-14
3.48072e-14
3.46789e-14
3.47233e-14
3.46899e-14
3.47098e-14
3.46759e-14
3.47348e-14
3.46039e-14
3.46589e-14
3.45648e-14
3.45997e-14
3.45272e-14
3.45518e-14
3.452e-14
3.45088e-14
3.45829e-14
3.44965e-14
3.45393e-14
3.45404e-14
3.4532e-14
3.4559e-14
3.45289e-14
3.45862e-14
3.44941e-14
3.45603e-14
3.44874e-14
3.45483e-14
3.44779e-14
3.44827e-14
3.45042e-14
3.44201e-14
3.45433e-14
3.43847e-14
3.44693e-14
3.4405e-14
3.44403e-14
3.43889e-14
3.44544e-14
3.43365e-14
3.43768e-14
3.43431e-14
3.43391e-14
3.43122e-14
3.43428e-14
3.43147e-14
3.43157e-14
3.43157e-14
3.41816e-14
3.43195e-14
3.42178e-14
3.43372e-14
3.42449e-14
3.43673e-14
3.42287e-14
3.4337e-14
3.4209e-14
3.43572e-14
3.42201e-14
3.43947e-14
3.41472e-14
3.44122e-14
3.41747e-14
3.43764e-14
3.42318e-14
3.43573e-14
3.42079e-14
3.43494e-14
3.41602e-14
3.43543e-14
3.42232e-14
3.43938e-14
3.42616e-14
3.43679e-14
3.42595e-14
3.441e-14
3.41949e-14
3.44019e-14
3.42446e-14
3.43848e-14
3.43116e-14
3.43748e-14
3.42799e-14
3.43884e-14
3.42671e-14
3.43676e-14
3.42733e-14
3.43324e-14
3.4198e-14
3.43226e-14
3.42252e-14
3.42991e-14
3.43149e-14
3.4301e-14
3.42805e-14
3.42825e-14
3.42257e-14
3.42864e-14
3.42334e-14
3.4316e-14
3.42168e-14
3.43728e-14
3.42582e-14
3.43301e-14
3.42756e-14
3.43347e-14
3.42052e-14
3.43859e-14
3.41725e-14
3.43784e-14
3.41765e-14
3.43122e-14
3.41757e-14
3.42723e-14
3.41495e-14
3.42791e-14
3.41409e-14
3.43113e-14
3.41701e-14
3.43266e-14
3.41941e-14
3.43473e-14
3.41908e-14
3.43721e-14
3.41814e-14
3.4357e-14
3.41657e-14
3.42788e-14
3.41683e-14
3.42256e-14
3.41682e-14
3.42866e-14
3.41641e-14
3.43497e-14
3.41778e-14
3.43484e-14
3.41868e-14
3.42817e-14
3.41934e-14
3.42623e-14
3.41983e-14
3.42666e-14
3.41786e-14
3.42717e-14
3.4157e-14
3.42785e-14
3.41562e-14
3.43105e-14
3.41523e-14
3.431e-14
3.41338e-14
3.42773e-14
3.41009e-14
3.42707e-14
3.41119e-14
3.42668e-14
3.41554e-14
3.43002e-14
3.41494e-14
3.43239e-14
3.41525e-14
3.43027e-14
3.41534e-14
3.42952e-14
3.41406e-14
3.43129e-14
3.41254e-14
3.43565e-14
3.41189e-14
3.43559e-14
3.41332e-14
3.43228e-14
3.41453e-14
3.42921e-14
3.41439e-14
3.42988e-14
3.41526e-14
3.43194e-14
3.41475e-14
3.433e-14
3.41523e-14
3.43186e-14
3.41671e-14
3.43092e-14
3.41923e-14
3.43134e-14
3.41925e-14
3.43066e-14
3.41915e-14
3.43007e-14
3.42135e-14
3.42956e-14
3.42228e-14
3.4315e-14
3.42434e-14
3.43231e-14
3.42754e-14
3.43199e-14
3.42832e-14
3.43049e-14
3.42909e-14
3.42779e-14
3.4299e-14
3.42746e-14
3.43074e-14
3.43189e-14
3.43158e-14
3.43512e-14
3.43121e-14
3.43479e-14
3.43201e-14
3.43449e-14
3.4328e-14
3.43542e-14
3.43239e-14
3.43638e-14
3.43195e-14
3.43738e-14
3.43149e-14
3.43843e-14
3.43099e-14
3.43598e-14
3.43166e-14
3.43597e-14
3.43111e-14
3.43898e-14
3.43051e-14
3.43909e-14
3.43046e-14
3.43692e-14
3.43036e-14
3.43718e-14
3.43081e-14
3.4387e-14
3.4324e-14
3.4397e-14
3.4322e-14
3.44018e-14
3.43374e-14
3.44072e-14
3.43232e-14
3.44073e-14
3.43148e-14
3.44079e-14
3.43294e-14
3.44091e-14
3.43263e-14
3.44281e-14
3.4323e-14
3.44361e-14
3.43309e-14
3.44157e-14
3.43271e-14
3.43901e-14
3.43347e-14
3.43878e-14
3.43308e-14
3.43972e-14
3.43324e-14
3.43955e-14
3.43169e-14
3.43884e-14
3.4324e-14
3.43929e-14
3.43252e-14
3.43921e-14
3.43263e-14
3.43689e-14
3.43273e-14
3.43572e-14
3.43395e-14
3.43457e-14
3.43573e-14
3.43453e-14
3.43585e-14
3.43393e-14
3.43653e-14
3.43221e-14
3.43614e-14
3.43158e-14
3.43633e-14
3.43038e-14
3.43599e-14
3.4308e-14
3.43569e-14
3.4312e-14
3.4354e-14
3.43212e-14
3.43406e-14
3.43248e-14
3.43435e-14
3.43122e-14
3.43465e-14
3.4289e-14
3.43338e-14
3.42763e-14
3.43267e-14
3.42819e-14
3.43251e-14
3.4282e-14
3.43184e-14
3.42795e-14
3.43067e-14
3.42846e-14
3.4303e-14
3.42973e-14
3.42916e-14
3.43048e-14
3.42804e-14
3.43072e-14
3.42718e-14
3.43046e-14
3.42657e-14
3.43121e-14
3.42622e-14
3.43221e-14
3.42586e-14
3.43273e-14
3.42526e-14
3.43276e-14
3.42465e-14
3.43281e-14
3.42452e-14
3.43433e-14
3.42391e-14
3.43514e-14
3.42352e-14
3.43549e-14
3.42265e-14
3.4361e-14
3.42248e-14
3.43673e-14
3.42252e-14
3.43738e-14
3.42186e-14
3.43805e-14
3.42072e-14
3.43875e-14
3.42048e-14
3.43901e-14
3.42e-14
3.43998e-14
3.41951e-14
3.4412e-14
3.41921e-14
3.44177e-14
3.41912e-14
3.44193e-14
3.41923e-14
3.44189e-14
3.41976e-14
3.44233e-14
3.41961e-14
3.443e-14
3.41965e-14
3.44306e-14
3.41989e-14
3.44272e-14
3.42053e-14
3.44262e-14
3.42094e-14
3.44318e-14
3.42144e-14
3.44344e-14
3.42181e-14
3.44352e-14
3.42216e-14
3.44342e-14
3.42249e-14
3.44355e-14
3.42281e-14
3.44329e-14
3.42302e-14
3.44246e-14
3.42321e-14
3.44165e-14
3.42368e-14
3.44165e-14
3.42375e-14
3.44196e-14
3.4239e-14
3.44209e-14
3.42386e-14
3.44223e-14
3.42409e-14
3.44239e-14
3.42421e-14
3.44238e-14
3.42442e-14
3.44219e-14
3.42443e-14
3.44229e-14
3.42444e-14
3.44232e-14
3.42453e-14
3.44217e-14
3.42452e-14
3.44222e-14
3.4245e-14
3.44219e-14
3.42456e-14
3.44217e-14
3.42462e-14
3.44198e-14
3.42459e-14
3.4419e-14
3.42472e-14
3.44182e-14
3.42493e-14
3.44158e-14
3.42497e-14
3.44144e-14
3.42499e-14
3.44131e-14
3.42485e-14
3.44127e-14
3.42482e-14
3.4412e-14
3.42484e-14
3.44105e-14
3.42484e-14
3.44082e-14
3.42489e-14
3.44073e-14
3.42489e-14
3.44069e-14
3.42485e-14
3.44061e-14
3.42484e-14
3.4405e-14
3.42483e-14
3.44035e-14
3.42486e-14
3.44025e-14
3.42484e-14
3.44024e-14
3.42486e-14
3.44024e-14
3.42483e-14
3.44007e-14
3.42497e-14
3.43995e-14
3.42494e-14
3.43983e-14
3.42495e-14
3.43972e-14
3.42492e-14
3.43966e-14
3.42492e-14
3.4396e-14
3.42496e-14
3.43954e-14
3.42509e-14
3.43949e-14
3.42513e-14
3.43944e-14
3.42516e-14
3.43931e-14
3.42511e-14
3.43918e-14
3.42519e-14
3.43906e-14
3.42524e-14
3.43903e-14
3.42527e-14
3.439e-14
3.42532e-14
3.43895e-14
3.42535e-14
3.43878e-14
3.42542e-14
3.43872e-14
3.42542e-14
3.43879e-14
3.42542e-14
3.43882e-14
3.42544e-14
3.43876e-14
3.42545e-14
3.43868e-14
3.42545e-14
3.43864e-14
3.42546e-14
3.43854e-14
3.42543e-14
3.43839e-14
3.42549e-14
3.43829e-14
3.42548e-14
3.43824e-14
3.42544e-14
3.43819e-14
3.4254e-14
3.43811e-14
3.42541e-14
3.43807e-14
3.42539e-14
3.43805e-14
3.4254e-14
3.43798e-14
3.42542e-14
3.43796e-14
3.42537e-14
3.43805e-14
3.42534e-14
3.43806e-14
3.42536e-14
3.438e-14
3.42538e-14
3.43793e-14
3.42544e-14
3.43789e-14
3.42542e-14
3.4379e-14
3.42536e-14
3.43791e-14
3.42535e-14
3.43788e-14
3.42527e-14
3.43788e-14