/*--------------------------------*- C++ -*----------------------------------*\
| =========                 |                                                 |
| \\      /  F ield         | OpenFOAM: The Open Source CFD Toolbox           |
|  \\    /   O peration     | Version:  2012                                  |
|   \\  /    A nd           | Website:  www.openfoam.com                      |
|    \\/     M anipulation  |                                                 |
\*---------------------------------------------------------------------------*/
FoamFile
{
    version     2.0;
    format      ascii;
    class       volTensorField;
    location    "10700";
    object      grad(U);
}
// * * * * * * * * * * * * * * * * * * * * * * * * * * * * * * * * * * * * * //

dimensions      [0 0 -1 0 0 0 0];


internalField   nonuniform List<tensor> 
2560
(
(0 -1.12508e-14 6.80689e-14 313.799 -1.38778e-17 2.73332 0.45527 0 0.00400176)
(0 0 1.14289e-18 313.478 0.000183052 0.000248435 0.45527 -0.000385479 -0.00399082)
(-2.88386e-16 8.80086e-20 3.42497e-14 312.237 0.0170489 -6.48401e-21 1.36731 4.97237e-05 8.67362e-19)
(0 -5.28051e-20 1.12651e-18 311.923 0.125534 -0.000171957 1.36731 4.8993e-05 -0.00596409)
(-5.9203e-17 -6.93977e-20 2.03934e-18 310.864 -0.0721295 -0.952868 1.86198 3.08335e-05 0.00373881)
(0 1.69157e-19 -3.33109e-18 310.564 0.0554651 -4.16587e-05 1.86024 2.97815e-05 -0.00503204)
(1.85755e-16 -2.71074e-19 5.47225e-19 309.481 -0.0456287 -1.10138 1.88063 5.17758e-07 0.0031341)
(0 2.71074e-19 -5.47225e-19 309.204 0.0353075 -1.58955e-05 1.87902 -7.94186e-07 -0.00312554)
(1.10465e-15 -4.06775e-19 1.34845e-18 308.088 -0.0208028 -0.691113 1.89931 2.24615e-07 0.0017198)
(-5.52327e-16 4.06511e-19 -1.07876e-18 307.839 0.0208673 -9.90564e-06 1.89786 -1.24235e-06 -0.0017151)
(1.53179e-15 -2.03295e-19 3.98738e-19 306.546 -0.0118454 -0.335665 1.91639 9.28652e-07 0.00101955)
(3.54521e-15 2.7105e-19 -5.31651e-19 306.326 0.01212 -2.51518e-06 1.9151 -6.22545e-07 -0.00101676)
(-5.73922e-16 -1.35525e-19 1.31008e-19 304.637 -0.00815184 -0.166974 1.93066 1.19588e-06 0.000677894)
(2.29631e-15 2.7105e-19 -2.62015e-19 304.448 0.0080375 -6.35911e-07 1.92955 -4.07778e-07 -0.00067604)
(-7.06287e-16 2.71123e-19 -3.22825e-19 302.266 -0.00579817 -0.0921721 1.94193 6.44966e-07 0.000493549)
(2.82567e-15 -2.03279e-19 1.93695e-19 302.106 0.00595954 -1.4672e-07 1.94099 -1.01792e-06 -0.0004922)
(1.88218e-15 -2.03286e-19 1.27279e-19 299.63 -0.00467201 -0.0561115 1.9527 1.78495e-06 0.000383211)
(0 2.71028e-19 -1.27279e-19 299.499 0.00451687 -6.78211e-08 1.95194 1.11458e-07 -0.000382163)
(-1.02773e-15 3.38876e-19 -1.88183e-19 297.148 -0.00364658 -0.0368557 1.96585 1.57597e-07 0.000286864)
(0 -2.71002e-19 1.25455e-19 297.045 0.00378921 -2.42104e-08 1.96525 -1.56336e-06 -0.000310644)
(-1.10767e-15 -4.7434e-19 1.45779e-19 294.877 -0.00319442 -0.0256387 1.9793 2.32562e-06 0.00019851)
(0 5.42207e-19 -1.54571e-19 294.799 0.00306001 -3.64004e-08 1.97886 6.49668e-07 -0.000261151)
(1.24308e-15 -8.13199e-19 2.24641e-19 292.662 -0.00270778 -0.0186365 1.99315 -2.72782e-07 0.000144108)
(0 8.13199e-19 -1.82827e-19 292.607 0.00274928 1.15516e-07 1.99285 -2.07609e-06 -0.000225224)
(1.96834e-15 -2.03202e-19 9.01033e-20 290.598 -0.00222084 -0.0140504 2.00866 2.53091e-06 0.000108593)
(-1.96834e-15 2.71014e-19 -9.01033e-20 290.565 0.0425924 0.000153975 2.0085 8.01162e-07 -0.000198148)
(-3.45675e-15 2.66436e-19 -7.20121e-20 288.556 -0.00215615 -0.0108305 2.02279 0.000139708 8.47159e-05)
(6.06654e-15 2.40741e-34 2.9604e-20 288.541 -1.38802e-17 1.84018e-06 2.02275 2.71051e-20 -0.000176494)
(0 5.25234e-19 -1.45898e-19 286.078 -0.00171407 -0.00857574 2.03213 -1.406e-05 6.64623e-05)
(0 -5.25234e-19 1.45898e-19 286.081 0.107591 0.000156417 2.03221 -0.000279527 -0.000160459)
(-1.79634e-15 0 1.61271e-20 282.811 -0.00272879 -0.00686432 2.03472 0.000523726 5.50069e-05)
(7.18527e-15 -4.81482e-35 -2.87614e-20 282.829 -2.01372e-17 7.96889e-06 2.03489 -5.02556e-35 -0.000145644)
(-3.71579e-15 -4.51159e-17 -1.13397e-19 278.638 3.01684e-17 -0.00555187 2.03034 1.0842e-19 4.362e-05)
(-4.03664e-15 7.60443e-17 1.13397e-19 278.668 0.0829788 -0.000163428 2.0306 -0.000302647 -0.000135857)
(0 1.67657e-18 -8.38287e-20 273.958 -0.00171758 -0.00462449 2.02454 0.000845255 3.73316e-05)
(-8.31917e-15 -3.51131e-19 8.38287e-20 273.997 -3.16454e-17 2.42973e-06 2.02487 -1.0842e-19 -0.000126047)
(3.61004e-15 -2.20339e-19 5.50848e-20 269.747 -0.000779883 -0.00386647 2.02612 -0.000270353 3.10715e-05)
(0 1.11277e-29 -6.8856e-20 269.794 3.52585e-17 -4.49923e-06 2.0265 0 -0.000118801)
(2.35902e-15 1.08591e-18 -6.96557e-20 266.781 -0.00196579 -0.00326413 2.03833 0.00100289 2.69596e-05)
(-9.43585e-15 -5.55674e-19 1.08591e-19 266.834 -3.47296e-20 5.24563e-07 2.03875 0 -0.000111589)
(0 -2.14068e-19 -1.20413e-19 264.919 -0.000629142 -0.00277687 2.05648 -0.000839802 2.27385e-05)
(0 3.08228e-19 1.20413e-19 264.975 3.46752e-17 -6.27351e-06 2.05694 0 -0.000106416)
(-2.63823e-15 -4.22001e-19 -1.12443e-20 263.4 -0.00174234 -0.00237996 2.07405 0.00116011 2.01633e-05)
(0 -1.25185e-33 -1.31875e-20 263.459 -3.46543e-17 -6.37906e-07 2.07453 2.34257e-34 -0.00010091)
(7.44224e-15 4.15952e-19 1.31846e-19 261.619 -0.000193361 -0.00211369 2.08819 -0.00126535 1.71353e-05)
(0 0 -1.42984e-19 261.68 -2.16469e-35 0.000272519 2.08868 -1.73175e-34 -9.7127e-05)
(0 1.63996e-18 -5.12488e-20 259.439 -0.00202708 -0.00176946 2.09937 0.00158346 1.6487e-05)
(-1.1694e-14 -6.58465e-19 6.4061e-20 259.5 -5.48721e-20 5.67874e-06 2.09986 -2.1684e-19 -9.14286e-05)
(-2.42498e-16 -8.08229e-19 -5.22878e-20 256.952 -0.000218152 -0.00151803 2.10834 -0.00195607 1.2041e-05)
(3.3105e-15 0 6.31429e-20 257.012 3.68448e-32 -6.03086e-06 2.10883 3.77087e-35 -9.0015e-05)
(-6.42691e-15 3.18658e-18 -1.07296e-19 254.186 -0.00238057 -0.00131841 2.11457 0.00223246 1.28227e-05)
(0 0 8.7133e-20 254.244 -7.45319e-17 1.22743e-05 2.11505 -1.71838e-34 -8.52321e-05)
(1.00797e-14 1.17784e-18 1.29674e-19 251.042 0.000139553 -0.00109541 2.11673 -0.00258728 9.05326e-06)
(2.68787e-14 0 -9.81533e-20 251.099 9.71445e-17 -0.000153329 2.1172 -3.30186e-30 -8.45333e-05)
(0 -3.48288e-18 8.46532e-20 247.39 -0.00242379 -0.000985364 2.1136 0.00268627 9.41228e-06)
(1.40287e-14 0 -8.46532e-20 247.443 -8.71423e-17 8.64904e-06 2.11405 0 -8.12577e-05)
(3.65507e-15 -7.62879e-19 -2.56144e-20 243.183 0.000659009 -0.000856528 2.10521 -0.00287852 7.42305e-06)
(0 3.99734e-19 1.192e-20 243.232 7.03883e-18 4.63947e-06 2.10563 0 -8.03132e-05)
(-7.60529e-15 0 -1.95109e-20 238.613 -0.00266114 -0.000746016 2.09451 0.00298435 7.43661e-06)
(-3.04208e-14 -4.13896e-18 0 238.658 1.03474e-19 1.86341e-06 2.09488 0 -7.75205e-05)
(-3.94887e-15 -1.11175e-18 -5.6256e-20 234.237 0.00112408 -0.000651727 2.08817 -0.0031831 5.68126e-06)
(-2.1867e-14 2.21004e-18 3.47422e-20 234.277 9.00951e-17 -1.34105e-05 2.08851 0 -7.7049e-05)
(0 3.65273e-18 -5.70738e-20 230.908 -0.00302698 -0.000572875 2.09512 0.00329036 5.95851e-06)
(-1.63711e-14 -1.36908e-18 5.70738e-20 230.943 1.1409e-19 -2.76587e-06 2.09541 0 -7.4666e-05)
(0 1.44015e-18 6.7507e-20 229.475 0.00172851 -0.000502152 2.12281 -0.00348834 4.40877e-06)
(1.69373e-14 0 -6.7507e-20 229.504 -1.21093e-19 -1.70319e-05 2.12304 0 -7.44908e-05)
(-4.37457e-15 0 1.68047e-21 230.404 -0.00353213 -0.000441819 2.17394 0.00359597 4.82371e-06)
(0 -1.92593e-34 -3.32697e-20 230.427 -1.06991e-16 -1.80845e-06 2.17413 0 -7.24304e-05)
(-4.51547e-15 -2.09874e-18 -6.4265e-20 233.588 0.00232686 -0.000455636 2.24566 -0.0037901 3.4047e-06)
(0 9.62965e-35 5.46548e-20 233.605 -1.31563e-19 0.000301083 2.24579 -4.33681e-19 -7.2461e-05)
(-4.65947e-15 2.75822e-18 -5.19501e-20 238.414 -0.00431732 -0.000326157 2.33093 0.00419605 5.22833e-06)
(-1.86378e-14 -2.32819e-18 2.15486e-20 238.426 -4.36535e-19 6.99776e-06 2.33102 8.67362e-19 -6.88307e-05)
(1.03766e-14 1.35934e-18 2.64717e-17 244.008 0.00296477 -0.000205669 2.42116 -0.00469425 1.00122e-06)
(-5.56787e-15 -3.85186e-33 -4.24795e-20 244.015 1.11022e-16 0.00105345 2.4212 -1.88647e-34 -7.09087e-05)
(4.96453e-15 -4.01958e-18 3.86505e-20 249.514 -0.00513649 -0.00020612 2.50879 0.00610708 9.07737e-06)
(0 -7.70372e-34 -3.1403e-20 249.517 0 2.19961e-05 2.50879 8.67362e-19 -6.11161e-05)
(-5.12738e-15 -2.64131e-18 0 254.352 0.00370039 -1.97867e-18 2.58974 -0.00765291 3.13215e-50)
(-5.40941e-15 1.06233e-18 1.03176e-20 254.35 1.11288e-16 0.000443629 2.5897 -8.67362e-19 -6.99202e-05)
(0 5.20691e-18 -4.0679e-20 258.436 -0.00582836 -8.55701e-05 2.66594 0.00944114 9.91179e-06)
(0 -1.30994e-18 5.08488e-20 258.429 -5.55112e-16 2.80392e-05 2.66584 1.73472e-18 -5.757e-05)
(-5.47014e-15 -2.56614e-18 3.40966e-18 262.388 0.00439481 1.8838e-18 2.74772 -0.011428 0)
(2.18807e-14 0 0 262.375 -7.93115e-19 -0.000311253 2.74756 -1.73472e-18 -6.95211e-05)
(0 -1.26468e-17 4.94016e-20 267.641 -0.00635597 1.76849e-05 2.85477 0.0128546 7.57196e-06)
(2.25839e-14 0 -4.94016e-20 267.62 -6.67026e-16 2.31763e-05 2.85451 1.5196e-29 -5.93478e-05)
(5.82199e-15 -4.98622e-18 1.92527e-17 276.303 0.00503725 3.63692e-18 3.01349 -0.0145336 0)
(-2.32882e-14 8.06886e-18 6.8171e-20 276.274 6.59921e-43 -0.000719568 3.01313 0 -6.96423e-05)
(5.99822e-15 -7.37213e-18 4.67331e-20 290.676 -0.00680491 9.27768e-05 3.25029 0.0152276 4.46921e-06)
(0 0 -3.83965e-20 290.638 -3.60822e-16 1.25308e-05 3.24982 1.02309e-33 -6.43629e-05)
(3.74362e-15 2.42216e-18 5.02007e-18 312.545 0.00561356 -4.88031e-21 3.58321 -0.0161948 1.35525e-20)
(-9.92116e-15 1.54074e-33 -3.78462e-20 312.497 4.1137e-16 -0.000300833 3.58263 1.00843e-33 -7.01559e-05)
(6.36603e-15 7.16232e-18 -9.80217e-21 342.585 -0.00737513 0.000146459 4.01647 0.0165954 3.43594e-06)
(1.56855e-14 -2.77334e-32 0 342.529 -4.02456e-16 8.03954e-06 4.0158 0 -6.70285e-05)
(9.6388e-15 4.70645e-18 7.28919e-18 380.228 0.00628665 1.76183e-18 4.54117 -0.0172711 0)
(1.66491e-14 0 -2.75768e-20 380.166 8.32667e-16 0.000104906 4.54044 -5.27395e-33 -7.09751e-05)
(-6.80382e-15 0 -1.77674e-20 423.994 -0.00810111 0.000195905 5.14028 0.0177809 4.64936e-06)
(0 -7.70372e-34 -9.06053e-21 423.93 0 9.42788e-06 5.13954 0 -6.72129e-05)
(-7.06931e-15 0 0 472.143 0.00708803 0 5.79723 -0.0185701 0)
(0 3.08149e-32 -1.78613e-20 472.082 4.4523e-16 0.0035674 5.79654 6.34562e-34 -7.21017e-05)
(9.23027e-15 -4.50697e-18 3.52107e-20 523.191 -0.00798341 0.000271704 6.4988 0.0225656 2.62102e-05)
(-9.23027e-15 3.08149e-32 -3.52107e-20 523.137 -4.47221e-16 6.04227e-05 6.49823 -3.46945e-18 -4.26451e-05)
(-7.72412e-15 8.88474e-18 2.54185e-17 575.651 0.0077908 -1.94643e-18 7.22647 -0.0269342 0)
(0 7.70372e-33 -3.4706e-20 575.612 1.11022e-16 -0.00287917 7.22612 0 -7.37794e-05)
(-8.96758e-15 2.18935e-17 -6.84172e-20 627.014 -0.00738577 0.000421303 7.94018 0.0279618 1.06365e-05)
(-3.2506e-14 -1.94009e-17 6.84172e-20 626.997 -6.12563e-16 0.000101941 7.94013 3.46945e-18 -6.60272e-05)
(-8.59154e-15 2.58957e-17 5.75083e-20 672.385 0.00744192 0.000617697 8.55931 -0.0293335 4.47238e-06)
(3.43659e-14 3.15544e-30 -6.74366e-20 672.399 1.3282e-15 0.000210358 8.55971 -5.50756e-30 -7.58356e-05)
(0 2.97786e-17 -4.98525e-20 703.291 -0.00728481 0.000788494 8.94759 0.0301924 1.523e-05)
(0 1.54074e-33 4.98525e-20 703.347 -2.77556e-17 0.000270593 8.94858 -5.81443e-34 -6.83994e-05)
(-9.75777e-15 -1.67724e-17 -4.22968e-20 707.203 0.00484993 0.00102573 8.90953 -0.0313659 1.06374e-05)
(3.90301e-14 0 3.27587e-20 707.311 6.89595e-16 0.00120814 8.91127 0 -7.91878e-05)
(3.78739e-14 -1.65321e-17 4.28947e-20 668.623 -0.00844629 0.00154405 8.21417 0.0326057 2.90507e-05)
(2.49599e-14 -4.93038e-32 -3.22892e-20 668.793 -7.19383e-16 0.00047517 8.21679 9.61193e-33 -6.70805e-05)
(1.66862e-14 1.22213e-17 1.59132e-20 572.039 0.000622347 0.00191436 6.64201 -0.0342191 2.06437e-05)
(0 -4.93038e-32 -1.59132e-20 572.278 7.21645e-16 0.00154318 6.6456 -2.82675e-33 -8.62567e-05)
(-1.20812e-14 -8.03078e-18 -3.15372e-21 406.29 -0.00830491 0.00254632 4.05248 0.0359408 4.66865e-05)
(0 1.01689e-31 -1.56851e-20 406.599 -1.50129e-15 0.000490655 4.05706 4.45798e-33 -6.92283e-05)
(-2.13513e-12 -1.58314e-17 -5.04446e-20 67.7331 -0.00177526 0.00287085 0.452995 -0.0382337 2.99932e-05)
(5.14452e-14 6.16298e-33 6.18412e-20 68.5582 1.11022e-16 0.000843015 0.458513 3.68199e-33 -0.000100151)
(2.58794e-12 0 -3.60647e-21 -0.933303 -0.00331766 0.00318473 0.00633264 0.0402554 5.6635e-05)
(0 0 -3.04774e-20 -6.47828e-15 -2.79312e-18 0.000140291 1.42109e-14 0 -8.24362e-05)
(-2.78821e-14 7.6904e-18 1.75574e-20 -462.661 -0.00119408 0.00320556 3.96152 -0.0430497 3.14495e-05)
(6.42819e-14 0 -6.00812e-20 -462.18 8.67924e-16 -0.000773747 3.9552 5.45112e-33 -0.000121213)
(4.67666e-15 7.58018e-18 -3.80505e-20 -801.057 0.00449259 0.00286926 8.81307 0.0449232 4.88309e-05)
(-1.55242e-14 -5.79942e-32 0 -800.549 -8.35784e-16 -0.000401104 8.80614 -6.93889e-18 -0.000109461)
(-3.17802e-15 -2.98861e-17 -9.21564e-20 -1106.55 -0.00133559 0.00253589 13.5996 -0.0475692 2.28539e-05)
(-5.22651e-14 2.64074e-17 5.83713e-20 -1106.04 3.30093e-18 -0.00210475 13.5924 0 -0.000144386)
(-2.99297e-14 -5.15511e-17 1.11775e-19 -1346.48 0.00933169 0.001724 17.7924 0.0488833 2.67464e-05)
(5.93972e-14 0 -1.15069e-19 -1345.99 -9.40298e-16 -0.000723057 17.7852 6.93889e-18 -0.000142069)
(-1.65978e-14 -5.08123e-17 -2.33774e-19 -1498.76 -0.00523885 0.00124551 20.9471 -0.0507688 9.46318e-06)
(-2.21341e-14 1.40918e-17 1.7013e-19 -1498.32 1.93926e-15 -0.00176569 20.9403 -6.93889e-18 -0.000162133)
(-1.10226e-14 -5.0084e-17 1.07476e-18 -1555.16 0.00951873 3.07642e-18 22.7884 0.0515138 2.71051e-20)
(2.21139e-14 -1.57772e-30 -1.11795e-19 -1554.8 9.50838e-16 0.00196061 22.7824 6.93889e-18 -0.000163892)
(2.02048e-15 2.11569e-17 1.02098e-19 -1520.93 -0.0100283 -0.00023678 23.242 -0.0509323 7.92872e-06)
(0 0 -8.26442e-20 -1520.69 3.48242e-17 0.00050217 23.2374 -6.93889e-18 -0.000147906)
(0 -4.86586e-17 2.20292e-20 -1411.7 0.00782431 2.20292e-20 22.4208 0.0510551 0)
(2.31664e-15 0 -1.90073e-19 -1411.6 8.88178e-16 0.00104349 22.418 5.62686e-30 -0.000158529)
(0 6.8516e-18 8.02922e-20 -1248.58 -0.0120745 -0.000668444 16.3059 -0.0502298 1.90816e-05)
(0 0 -8.02922e-20 -1248.65 -9.4369e-16 0.000179836 16.3059 -6.93889e-18 -0.000135191)
(-8.64435e-16 1.35068e-17 1.70581e-17 -1053.45 0.00656747 -0.000185021 7.30555 0.0500343 1.45037e-06)
(-8.64435e-16 1.2326e-32 0 -1053.7 -1.04695e-32 8.35193e-05 7.30552 -1.04695e-32 -0.000152256)
(2.66264e-17 -3.99396e-17 -1.56014e-19 -845.482 -0.0110139 -0.000618729 -0.201139 -0.0493188 1.96589e-05)
(-2.66264e-17 2.00099e-14 1.56014e-19 -845.904 -1.72085e-15 -5.44768e-06 -0.20117 0 -0.000128989)
(0 0 4.87501e-34 -639.32 0.00593335 -3.44892e-18 -6.13459 0.0490959 5.69688e-36)
(0 0 0 -639.862 8.94992e-16 0.00400647 -6.13461 0 -0.000147669)
(0 1.21259e-18 -3.78935e-20 -444.798 -0.00791035 -0.0176064 -5.79467 -0.00334186 -4.52698e-05)
(-2.61283e-15 0 1.54074e-33 -445.377 8.88178e-16 1.49078e-18 -5.80426 -1.07263e-28 -6.77626e-21)
(0 1.59362e-18 0 -267.667 0.00650796 -0.000289434 -3.07756 0.00280412 4.09748e-06)
(-5.73098e-15 0 0 -268.235 -5.51223e-17 -0.00527009 -3.08683 -6.47569e-34 -4.09757e-06)
(-5.76149e-13 0 0 -75.6487 -0.00619866 -0.000274652 -0.637393 -0.00231089 -4.0828e-06)
(0 0 -9.40395e-38 -76.6803 1.38778e-17 -6.72461e-20 -0.646085 4.45548e-35 -7.86309e-38)
(-4.23906e-15 1.1612e-18 -1.51198e-21 0 0.00563045 -0.000266397 -1.77636e-15 0.00190811 3.23685e-06)
(1.57744e-12 -6.06482e-15 0 0.186516 1.38778e-17 -0.00037578 -0.00159438 0 -3.23684e-06)
(0 -1.62063e-16 2.98061e-21 139.547 4.21779e-19 -0.000240282 -1.50655 2.1684e-19 -3.24737e-06)
(0 1.98919e-15 -4.50661e-22 139.104 -0.0466288 -4.50661e-22 -1.49853 -0.000404389 0)
(0 -5.64075e-19 2.93789e-21 233.702 0.00463901 -0.000229176 -3.34764 0.00123481 2.2693e-06)
(0 3.08149e-33 -2.93789e-21 233.305 -2.79266e-17 -0.000346201 -3.3403 -1.23439e-33 -2.2693e-06)
(1.34652e-17 -6.48747e-17 1.44789e-21 308.658 -1.33423e-19 -0.000203574 -4.8885 -1.0842e-19 -2.29047e-06)
(0 1.8533e-19 -3.1786e-22 308.308 -0.0504567 3.1786e-22 -4.88186 -0.000964019 4.23516e-22)
(1.65997e-16 5.48022e-19 0 366.08 0.00379772 -0.000190699 -6.14155 0.000775542 1.43012e-06)
(0 -2.36299e-15 0 365.785 -1.37705e-17 -0.000288448 -6.13571 0 -1.43011e-06)
(0 -1.57953e-16 0 407.986 -8.33205e-20 -0.000164671 -3.77542 0 -1.45283e-06)
(0 9.00279e-20 -8.06485e-22 407.76 -0.0292622 -4.03242e-22 -3.77539 -0.000603052 2.11758e-22)
(0 -4.43688e-19 6.93262e-22 436.693 0.0032014 -0.00014676 0.160104 0.000492549 7.41363e-07)
(0 3.85186e-34 -6.93262e-22 436.559 -3.53748e-18 -0.000224239 0.160128 0 -7.41306e-07)
(0 -4.00119e-17 6.83326e-22 454.677 5.63785e-18 -0.000118579 4.36669 0 -7.57243e-07)
(-7.16519e-16 -4.37329e-19 3.85186e-34 454.635 -0.0139779 0 4.36671 -0.000398661 1.05879e-22)
(0 7.32803e-19 0 464.283 0.00270898 -0.000103043 8.761 0.000345843 2.51945e-07)
(0 -9.30082e-19 -6.73532e-22 464.311 7.03423e-18 -3.64418e-05 8.76103 -5.42101e-20 8.90218e-07)
(0 -3.18618e-17 0 467.475 -4.77049e-18 -8.49331e-05 9.17127 0 -2.55174e-07)
(0 2.54929e-19 0 467.55 -0.00370323 4.95223e-05 9.17312 -0.000304241 7.01198e-07)
(-1.19883e-15 -8.37585e-19 -1.96309e-21 465.677 0.00227304 -9.64642e-07 9.2248 0.000297105 -5.05961e-07)
(4.79402e-15 0 9.62965e-35 465.783 4.0898e-20 3.05471e-22 9.22714 0 0)
(-1.84267e-15 -5.01415e-17 1.28997e-21 459.695 -3.94302e-18 9.91142e-05 9.19843 0 -7.52229e-08)
(-7.36923e-15 -3.30232e-19 -2.04343e-21 459.818 -0.0015075 -5.56619e-06 9.20103 -0.000290298 1.73971e-07)
(2.49649e-15 -6.91686e-19 -1.27148e-21 449.732 0.00185381 0.000119922 9.08702 0.000272007 6.69556e-08)
(9.98444e-15 -9.62965e-35 1.61291e-21 449.864 4.33681e-19 1.19768e-05 9.08975 0 5.39423e-07)
(-8.41285e-15 -4.14569e-17 0 435.505 3.53697e-18 0.000151553 8.87672 2.71051e-20 -6.77886e-08)
(1.78802e-14 -8.02085e-19 0 435.638 -0.00286158 3.38265e-05 8.87948 -0.000246138 4.31523e-07)
(-3.81782e-15 0 0 416.429 0.00145303 0.000180543 8.54903 0.000233507 5.79168e-08)
(0 -1.38959e-16 0 416.56 3.43739e-18 0.000144741 8.55176 0 -5.79017e-08)
(-4.4755e-15 -1.81428e-17 0 391.842 2.84769e-18 0.000211927 8.0852 2.71051e-20 -6.12844e-08)
(0 1.94814e-19 0 391.969 -0.002488 0.000212859 8.08788 -0.000210161 6.13416e-08)
(-5.12176e-15 -6.9128e-19 0 361.24 0.0010944 0.000231818 7.47164 0.000198331 4.97201e-08)
(2.04856e-14 1.2326e-32 0 361.363 -2.71591e-20 0.000231153 7.47424 0 -4.96262e-08)
(5.74673e-15 -4.84749e-17 0 324.501 -4.36163e-18 0.000244018 6.70473 0 -5.56523e-08)
(0 6.43518e-19 0 324.618 -0.00216995 0.000244834 6.70723 -0.000181794 5.5753e-08)
(9.78098e-15 -3.35803e-19 2.33197e-21 282.037 0.000861092 0.00023881 5.79399 0.000166071 4.23036e-08)
(0 -6.74075e-34 0 282.147 2.19107e-18 0.000238244 5.79638 7.50811e-35 -4.21169e-08)
(-6.88372e-15 -1.31599e-17 0 234.836 2.15903e-20 0.000221927 4.76243 -2.71051e-20 -5.074e-08)
(0 5.33262e-19 0 234.94 -0.00183658 0.00022264 4.76471 -0.000158582 5.08884e-08)
(9.50261e-15 -1.35936e-18 0 184.42 0.000723323 0.000187302 3.6461 0.000137774 3.56229e-08)
(5.89511e-14 2.46519e-32 0 184.517 1.73472e-18 0.000186815 3.64823 1.90298e-32 -3.53172e-08)
(-9.36642e-15 -9.27407e-18 -4.46626e-21 132.756 -1.0842e-19 0.000145487 2.4924 0 -4.63732e-08)
(3.11284e-14 2.67975e-19 0 132.844 -0.00143489 0.000146104 2.49436 -0.000138543 4.65678e-08)
(-1.73456e-14 1.07415e-18 0 82.052 0.00068427 9.51723e-05 1.35377 0.000115726 2.9674e-08)
(-3.24526e-14 -1.16448e-16 0 82.1315 -3.1305e-20 9.47461e-05 1.35554 0 -2.92241e-08)
(1.16724e-13 -5.80372e-18 3.46211e-19 23.7728 -1.30104e-18 1.7003e-05 0.283242 -1.35525e-20 -4.24173e-08)
(-5.30911e-13 -4.85984e-19 -2.18848e-18 23.9034 -0.00108529 -2.36769e-23 0.284797 -0.00011947 0)
(8.41498e-15 4.10588e-19 2.09484e-20 -6.78614e-13 0.000675932 4.30304e-22 0 9.94579e-05 0)
(0 -2.73725e-19 0 -0.012731 8.40609e-19 5.35986e-07 0.000153889 0 -2.38255e-08)
(0 -8.70865e-18 4.95641e-19 -43.4448 1.13841e-18 -1.31362e-05 0.670246 0 -3.87928e-08)
(2.42619e-14 -2.02352e-19 5.87747e-39 -43.3963 -0.000842799 -4.31167e-22 0.668928 -0.000100602 -3.76128e-39)
(-6.50914e-16 1.21333e-18 -4.15524e-21 -71.0997 0.000624466 -6.20749e-05 1.46665 8.70159e-05 1.99353e-08)
(0 -1.92593e-34 0 -71.0627 2.32574e-20 -6.24064e-05 1.46559 1.35525e-20 -1.90823e-08)
(0 -6.99973e-18 0 -90.209 -9.21572e-19 -7.58417e-05 2.0762 0 -3.54889e-08)
(6.26778e-14 1.68742e-18 0 -90.1837 -0.000685213 -7.54659e-05 2.07542 -8.29379e-05 3.57578e-08)
(0 -3.39106e-19 0 -100.674 0.000488235 -8.17235e-05 2.48147 7.67712e-05 1.60297e-08)
(6.08502e-14 0 0 -100.661 8.87727e-19 -8.20098e-05 2.48098 8.52572e-35 -1.49079e-08)
(-1.47866e-14 1.92593e-34 0 -102.826 7.22857e-19 -7.81937e-05 2.67699 1.48849e-35 -3.25534e-08)
(0 0 0 -102.824 -0.000595539 -7.78722e-05 2.67679 -6.86527e-05 3.27898e-08)
(-7.20969e-15 0 0 -97.3202 0.000358566 -7.09631e-05 2.6668 6.73565e-05 1.26059e-08)
(5.76774e-14 -1.92593e-34 0 -97.3291 -6.50521e-19 -7.12017e-05 2.66689 1.35525e-20 -1.11486e-08)
(7.06705e-15 -8.6193e-18 0 -85.0474 -5.27031e-19 -5.97883e-05 2.46302 0 -3.00717e-08)
(0 5.41222e-19 0 -85.0662 -0.000536213 -5.95044e-05 2.4634 -5.77141e-05 3.01948e-08)
(-6.97509e-15 0 0 -67.0327 0.000275402 -4.85296e-05 2.08364 5.82383e-05 9.48715e-09)
(0 0 0 -67.0602 7.61484e-35 -4.87167e-05 2.08427 6.77626e-21 -7.64307e-09)
(-6.94149e-15 -9.62965e-35 0 -44.3799 0 -3.61036e-05 1.5504 -7.59336e-35 -2.81435e-08)
(2.77655e-14 -5.40843e-19 0 -44.4141 -0.000467185 -3.58401e-05 1.55126 -4.8996e-05 2.80626e-08)
(-1.91512e-13 4.07222e-19 0 -8.95574 0.000238549 -2.41395e-05 0.888352 4.98866e-05 6.48203e-09)
(2.01225e-14 3.00927e-36 0 -9.0375 4.33681e-19 -2.42714e-05 0.889382 0 -4.15396e-09)
(-1.39757e-14 0 0 0.0318116 0 -9.50207e-06 0.708888 -6.77626e-21 -2.68811e-08)
(9.82139e-17 -7.29792e-20 0 1.39761e-14 -0.000371042 -9.24331e-06 0.707706 -4.12763e-05 2.64372e-08)
(-1.4459e-14 6.11433e-19 0 39.6886 0.000199105 6.01602e-06 1.57935 4.3274e-05 3.38895e-09)
(0 -1.26632e-17 0 39.6481 -4.33681e-19 5.94298e-06 1.5782 0 -4.97656e-10)
(1.48693e-14 -2.59196e-18 0 68.9484 0 2.52246e-05 2.44886 0 -2.63903e-08)
(-2.7621e-14 5.38857e-19 0 68.9109 -0.000290972 2.54914e-05 2.44782 -3.46465e-05 2.54081e-08)
(6.96017e-15 -5.45111e-19 0 96.6375 0.000193529 4.83093e-05 3.27618 3.81772e-05 4.64106e-11)
(2.78412e-14 0 0 96.6053 5.42101e-20 4.82957e-05 3.27532 0 3.56521e-09)
(2.15307e-14 -4.52998e-18 0 121.395 -2.1684e-19 7.38412e-05 4.01786 0 -2.67551e-08)
(-4.27846e-14 5.40743e-19 0 121.37 -0.00029049 7.41228e-05 4.01722 -2.81254e-05 2.49504e-08)
(-7.27827e-15 4.07383e-19 0 141.906 0.000138297 9.8821e-05 4.63066 3.2393e-05 -3.65632e-09)
(2.91133e-14 6.01853e-35 0 141.889 -2.1684e-19 9.8865e-05 4.63027 3.38813e-21 8.11926e-09)
(0 -5.6058e-19 0 156.98 0 0.000125594 5.07392 0 -2.80097e-08)
(-7.01749e-15 -2.71042e-19 -6.6924e-21 156.972 -0.00022867 0.000125892 5.0738 -2.31642e-05 2.50446e-08)
(-2.07507e-14 5.37613e-19 -3.29824e-21 165.642 9.69546e-05 0.00015181 5.31333 2.7877e-05 -7.72109e-09)
(3.14275e-14 2.40741e-35 -3.29824e-21 165.642 -2.71051e-20 0.000151902 5.31347 -1.41962e-35 1.32847e-08)
(8.22403e-15 -2.25259e-18 0 167.234 -1.35525e-19 0.00017906 5.32458 0 -3.00855e-08)
(0 5.42911e-19 0 167.242 -0.000183884 0.000179365 5.32495 -1.93954e-05 2.54969e-08)
(0 5.44743e-19 0 161.51 0.000111017 0.000208414 5.09689 2.42616e-05 -1.20344e-08)
(-3.45001e-14 -5.28686e-18 0 161.525 -4.97486e-21 0.000208539 5.09745 3.38813e-21 1.89866e-08)
(-1.32475e-14 -3.05776e-19 -6.31689e-21 148.685 1.0842e-19 0.000243011 4.63471 1.69407e-21 -3.27961e-08)
(0 2.71626e-19 0 148.704 -0.000121932 0.000243311 4.63543 -1.50524e-05 2.60196e-08)
(0 5.41693e-19 0 129.457 0.000149809 0.000285847 3.9597 2.22236e-05 -1.63544e-08)
(0 -6.00996e-18 0 129.48 -1.87103e-20 0.000285983 3.96053 1.69407e-21 2.51598e-08)
(9.85103e-15 9.62965e-35 0 104.987 1.41799e-32 0.000340598 3.10942 -1.69407e-21 -3.58491e-08)
(0 -1.08473e-18 0 105.012 -6.17894e-05 0.000340875 3.1103 -9.2222e-06 2.61648e-08)
(1.0202e-14 5.41399e-19 0 76.8094 0.000163763 0.000409042 2.13513 2.18427e-05 -2.03629e-08)
(0 -5.91816e-18 0 76.8355 -1.0842e-19 0.00040917 2.13603 0 3.16393e-08)
(-2.09884e-14 -4.70198e-38 0 46.7109 6.79147e-21 0.000492691 1.09752 6.53777e-38 -3.89148e-08)
(4.19764e-14 0 0 46.7366 -4.10862e-05 0.000492929 1.0984 -2.60094e-06 2.53995e-08)
(9.27462e-14 0 0 3.44735 9.87431e-05 0.0005879 0.0606513 2.18869e-05 -2.3741e-08)
(0 0 0 3.49416 -1.5007e-34 0.000588001 0.061475 3.38813e-21 3.83567e-08)
(2.7571e-13 -4.00591e-19 0 -0.0205882 2.37169e-20 0.00069123 0.000367488 3.5204e-06 -4.17258e-08)
(-1.57772e-30 -3.38515e-19 0 -6.00409e-13 -8.93926e-05 0.000691421 0 2.14287e-06 2.32715e-08)
(1.19742e-14 5.3957e-19 0 -36.9593 -3.81928e-05 0.00079311 0.913105 1.99638e-05 -2.62687e-08)
(-1.19742e-14 -1.27285e-21 0 -36.9405 -7.19932e-20 0.00079318 0.912368 0 4.53894e-08)
(0 -2.07718e-18 -2.25116e-20 -57.6383 0 0.000882443 1.77026 2.61717e-06 -4.42029e-08)
(-1.18026e-14 -3.39081e-19 0 -57.623 -0.000228809 0.000882589 1.76964 2.36772e-06 1.9351e-08)
(1.16334e-14 5.42243e-19 0 -73.1882 -0.000182028 0.000947401 2.47059 1.26453e-05 -2.79136e-08)
(6.85794e-14 -3.36096e-23 0 -73.1765 -9.01571e-22 0.000947447 2.47009 -1.21091e-07 5.30971e-08)
(-1.9494e-14 0 0 -83.4186 0 0.0009744 2.98991 -4.23516e-22 -4.64621e-08)
(3.89882e-14 0 0 -83.4106 -0.000376695 0.000974513 2.98955 -2.32553e-06 1.34158e-08)
(9.47033e-15 -3.38857e-19 0 -88.6188 -0.000314786 0.000950354 3.32243 -6.93509e-07 -2.87947e-08)
(0 -9.62965e-35 0 -88.6143 0 0.000950391 3.3222 -1.60174e-05 6.227e-08)
(0 -4.95968e-18 0 -89.4678 5.84035e-20 0.000868175 3.47948 1.69407e-21 -4.8819e-08)
(-3.68285e-14 -6.37455e-20 0 -89.4663 -0.000415307 0.00086827 3.47937 -1.16368e-05 5.1491e-09)
(-8.96424e-15 -1.0184e-18 -4.18879e-20 -86.9138 -0.00028128 0.000726379 3.48634 -1.61182e-05 -2.91193e-08)
(3.5857e-14 0 0 -86.9147 2.63325e-33 0.000726419 3.48634 -3.47618e-05 7.37927e-08)
(0 -3.07975e-18 0 -82.05 -1.6263e-19 0.000529249 3.37819 3.38813e-21 -5.15111e-08)
(-1.08233e-14 -3.40622e-19 -4.12875e-20 -82.0525 -0.000308045 0.000529341 3.37827 -1.90676e-05 -5.82769e-09)
(0 -3.3574e-19 0 -75.9874 -0.000101595 0.000287915 3.19586 -1.80112e-05 -2.91208e-08)
(1.06682e-14 -1.41181e-20 0 -75.9908 -6.94583e-19 0.000287967 3.19598 -5.08657e-05 8.89097e-08)
(-8.37142e-15 1.08334e-34 0 -69.7291 3.94214e-19 8.39869e-06 2.98066 -3.38813e-21 -5.47697e-08)
(0 0 0 -69.7326 -4.91725e-05 0 2.98081 -1.83036e-05 -2.03146e-08)
(-6.05255e-15 -1.42015e-18 1.10573e-19 -64.081 0.0001776 -0.000231849 2.76949 -1.79704e-05 -2.892e-08)
(6.56682e-14 -8.0712e-21 8.47119e-19 -64.084 -4.06576e-19 -0.000232492 2.76963 -5.81591e-05 1.08806e-07)
(1.0216e-14 -2.80128e-21 0 -59.6089 1.73835e-19 -0.000497527 2.59188 0 -5.8555e-08)
(-1.0216e-14 -2.04597e-19 -3.89709e-20 -59.6109 0.000219191 -0.00049743 2.59199 -4.38585e-06 -3.95074e-08)
(0 4.08131e-19 0 -56.6235 0.000382312 -0.000705706 2.46816 -2.00308e-05 -2.8454e-08)
(-1.00696e-14 -1.96309e-19 0 -56.6244 -3.25261e-19 -0.000705643 2.46823 -5.60666e-05 1.3499e-07)
(-2.3221e-14 -1.42455e-18 3.78618e-20 -55.192 0.000315505 -0.000858144 2.40878 -2.42882e-06 -6.26978e-08)
(7.1848e-14 1.62806e-18 0 -55.1917 0.000347479 -0.000858054 2.40879 2.06325e-05 -6.52245e-08)
(0 -1.6263e-18 0 -55.1718 0.000414732 -0.000947385 2.41445 -4.88479e-06 -2.75306e-08)
(6.05762e-14 1.43566e-17 0 -55.1704 0.000128872 -0.000947328 2.41441 -5.05915e-05 1.69123e-07)
(-7.39136e-15 6.77635e-19 0 -56.2642 0.000335944 -0.000973789 2.47754 1.74724e-05 -6.69788e-08)
(-9.64278e-15 -4.74388e-19 0 -56.2619 0.000291321 -0.000973716 2.47745 2.34966e-05 -9.96745e-08)
(7.19726e-15 -1.62704e-18 0 -58.0714 0.000293788 -0.000943975 2.58416 7.94248e-06 -2.60595e-08)
(5.75782e-14 1.42346e-17 0 -58.0685 3.44485e-07 -0.000943933 2.58404 -5.03875e-05 2.13225e-07)
(0 -1.08329e-18 0 -60.1541 0.000174962 -0.000869266 2.71623 3.26482e-05 -7.10858e-08)
(2.79619e-14 1.12007e-18 0 -60.151 0.000130078 -0.000869212 2.71609 1.21228e-05 -1.45598e-07)
(-2.46079e-15 -5.41588e-19 0 -62.0914 9.79712e-05 -0.000765432 2.85408 1.34593e-05 -2.40979e-08)
(9.23408e-15 8.50577e-21 0 -62.0884 3.52366e-19 -0.000765406 2.85393 -6.12905e-05 2.69516e-07)
(1.30985e-14 -2.18064e-20 0 -63.5219 6.86481e-19 -0.000646478 2.9791 3.92829e-05 -7.4709e-08)
(1.70953e-14 -1.48722e-19 0 -63.5193 -3.20797e-05 -0.000646444 2.97896 6.51245e-06 -2.05285e-07)
(0 4.06395e-19 0 -64.1692 -3.82413e-05 -0.000525143 3.075 1.12364e-05 -2.19504e-08)
(-8.97128e-15 -3.11254e-34 -8.55568e-21 -64.1672 0 -0.000525131 3.07489 -8.47187e-05 3.39186e-07)
(0 -6.26526e-19 0 -63.8633 -5.75009e-05 -0.000411275 3.1294 3.97119e-05 -7.75705e-08)
(2.43915e-14 6.05002e-19 0 -63.8621 -0.00012887 -0.000411256 3.12932 1.11064e-05 -2.78851e-07)
(1.17592e-14 -5.4237e-19 0 -62.5447 -9.38162e-05 -0.000311395 3.13486 4.08436e-06 -2.01143e-08)
(0 5.4237e-19 0 -62.5445 -5.8872e-05 -0.000187981 3.13482 -0.000118869 4.21149e-07)
(1.42627e-14 -1.62281e-18 -4.09652e-21 -60.2516 -7.33019e-05 -0.000228345 3.0889 3.75197e-05 -7.93651e-08)
(2.26865e-14 1.22939e-18 4.21768e-21 -60.2523 -0.0001446 1.54791e-05 3.08891 1.20392e-05 2.51213e-06)
(-8.4679e-15 -1.15179e-18 -6.05672e-21 -57.1057 -8.50557e-05 -0.000162664 2.99349 -4.10364e-06 -1.93584e-08)
(3.03765e-14 1.82051e-18 0 -57.1072 -9.727e-05 3.92734e-20 2.99355 -0.000160552 -8.47033e-22)
(-5.2983e-15 -2.20738e-19 0 -53.2954 -1.71235e-05 -0.000111946 2.8548 3.57451e-05 -7.96852e-08)
(-2.11931e-14 1.06779e-19 -2.40655e-21 -53.2977 -0.000118957 1.74772e-05 2.8549 1.06914e-05 2.85013e-06)
(-1.3363e-14 6.36859e-22 -3.9229e-21 -49.0503 -4.90657e-05 -4.21046e-05 2.68234 -4.75926e-06 6.56373e-09)
(0 2.71048e-19 -3.76158e-37 -49.0532 -6.08873e-05 5.2516e-20 2.68248 -0.000207421 -1.69407e-21)
(-4.99051e-15 -1.95467e-19 0 -44.6182 1.89735e-19 7.83186e-06 2.48762 3.57201e-05 8.40634e-07)
(-1.99619e-14 1.50294e-19 -3.58767e-21 -44.6214 -8.75623e-05 1.63238e-05 2.48778 8.35264e-06 3.074e-06)
(0 -4.06375e-19 -1.90563e-21 -40.2494 -1.64317e-05 7.95485e-06 2.2834 -2.47342e-06 1.58796e-06)
(0 6.098e-19 3.00927e-36 -40.2526 -3.5383e-05 6.5276e-21 2.28358 -0.00025701 1.69407e-21)
(0 -1.09006e-19 -1.87831e-21 -36.1831 -1.69407e-21 7.8279e-06 2.08294 3.72813e-05 1.99205e-06)