/*--------------------------------*- C++ -*----------------------------------*\
| =========                 |                                                 |
| \\      /  F ield         | OpenFOAM: The Open Source CFD Toolbox           |
|  \\    /   O peration     | Version:  2012                                  |
|   \\  /    A nd           | Website:  www.openfoam.com                      |
|    \\/     M anipulation  |                                                 |
\*---------------------------------------------------------------------------*/
FoamFile
{
    version     2.0;
    format      ascii;
    class       volScalarField;
    location    "10700";
    object      nut;
}
// * * * * * * * * * * * * * * * * * * * * * * * * * * * * * * * * * * * * * //

dimensions      [0 2 -1 0 0 0 0];


internalField   nonuniform List<scalar> 
2560
(
3.43023e-09
3.42793e-09
5.58573e-07
5.58229e-07
1.16864e-05
1.16794e-05
8.04303e-05
8.03901e-05
0.000264506
0.000264406
0.000560148
0.000559986
0.000937597
0.000937376
0.00137542
0.00137514
0.00186091
0.00186058
0.00238624
0.00238586
0.00294623
0.00294579
0.0035372
0.00353671
0.00415643
0.00415588
0.00480179
0.00480119
0.00547156
0.0054709
0.00616432
0.00616361
0.00687888
0.00687811
0.00761417
0.00761334
0.00836928
0.0083684
0.00914337
0.00914243
0.00993568
0.00993469
0.0107455
0.0107444
0.0115722
0.011571
0.012415
0.0124138
0.0132735
0.0132722
0.014147
0.0141457
0.0150349
0.0150336
0.0159368
0.0159354
0.0168522
0.0168507
0.0177804
0.0177788
0.018721
0.0187194
0.0196735
0.0196718
0.0206374
0.0206356
0.0216122
0.0216103
0.0225972
0.0225953
0.023592
0.02359
0.024596
0.0245939
0.0256085
0.0256064
0.0266289
0.0266268
0.0276568
0.0276546
0.0286914
0.0286891
0.0297323
0.0297299
0.0307788
0.0307763
0.0318302
0.0318277
0.0328858
0.0328832
0.0339446
0.033942
0.0350056
0.0350029
0.0360674
0.0360646
0.0371282
0.0371254
0.0381863
0.0381834
0.0392393
0.0392364
0.0402849
0.040282
0.0413205
0.0413175
0.0423435
0.0423404
0.0433521
0.0433489
0.0443461
0.0443429
0.045328
0.0453246
0.0463033
0.0462999
0.0472799
0.0472763
0.0482653
0.0482616
0.0492589
0.0492551
0.0502479
0.050244
0.0512076
0.0512037
0.052104
0.0521001
0.0529021
0.0528982
0.0535742
0.0535705
0.054107
0.0541035
0.0545029
0.0544997
0.0547778
0.0547748
0.0549559
0.0549533
0.055065
0.0550625
0.0551312
0.0551289
0.055177
0.0551748
0.0552192
0.0552171
0.0552691
0.055267
0.0553337
0.0553316
0.0554143
0.0554122
0.0555096
0.0555076
0.0556163
0.0556143
0.0557296
0.0557277
0.0558444
0.0558426
0.0559558
0.0559541
0.0560593
0.0560578
0.0561509
0.0561496
0.0562275
0.0562264
0.0562864
0.0562854
0.0563252
0.0563244
0.0563424
0.0563417
0.0563365
0.0563359
0.056307
0.0563065
0.056254
0.0562536
0.0561785
0.0561782
0.0560829
0.0560826
0.0559702
0.05597
0.0558446
0.0558445
0.0557108
0.0557107
0.0555735
0.0555734
0.0554369
0.0554368
0.0553043
0.0553041
0.0551778
0.0551777
0.0550583
0.0550582
0.0549456
0.0549455
0.054839
0.0548388
0.0547374
0.0547373
0.0546403
0.0546402
0.0545477
0.0545476
0.0544601
0.0544599
0.0543788
0.0543787
0.0543056
0.0543055
0.0542426
0.0542425
0.0541914
0.0541913
0.0541531
0.054153
0.0541275
0.0541273
0.0541131
0.054113
0.0541074
0.0541073
0.0541063
0.0541062
0.0541051
0.054105
0.0540992
0.0540991
0.0540846
0.0540846
0.054059
0.054059
0.0540221
0.0540221
0.0539761
0.0539761
0.0539251
0.0539251
0.0538746
0.0538746
0.0538305
0.0538305
0.0537977
0.0537976
0.0537799
0.0537799
0.0537784
0.0537783
0.0537921
0.053792
0.0538187
0.0538186
0.0538554
0.0538553
0.0538993
0.0538992
0.0539487
0.0539486
0.0540028
0.0540027
0.0540621
0.054062
0.054128
0.0541278
0.0542024
0.0542022
0.0542875
0.0542873
0.0543854
0.0543852
0.0544979
0.0544978
0.0546266
0.0546264
0.0547723
0.0547721
0.0549358
0.0549356
0.0551171
0.0551168
0.0553159
0.0553157
0.0555318
0.0555315
0.055764
0.0557637
0.056012
0.0560116
0.0562752
0.0562748
0.0565539
0.0565535
0.0568488
0.0568484
0.0571612
0.0571607
0.0574932
0.0574927
0.0578474
0.0578468
0.0582267
0.0582261
0.0586343
0.0586336
0.0590732
0.0590725
0.0595467
0.0595459
0.0600572
0.0600563
0.0606073
0.0606063
0.0611986
0.0611976
0.0618327
0.0618315
0.06251
0.0625087
0.0632307
0.0632293
0.0639937
0.0639921
0.0647968
0.0647951
0.0656366
0.0656347
0.0665076
0.0665056
0.0674029
0.0674007
0.0683136
0.0683112
0.0692291
0.0692266
0.0701379
0.0701353
0.0710283
0.0710256
0.0718894
0.0718867
0.0727126
0.0727099
0.0734929
0.0734904
0.0742299
0.0742276
0.0749288
0.0749269
0.0756003
0.0755989
0.0762597
0.0762588
0.0769254
0.0769248
0.0776166
0.0776161
0.0783505
0.0783501
0.0791399
0.0791394
0.0799903
0.0799899
0.0808999
0.0808996
0.0818582
0.081858
0.0828486
0.0828487
0.0838509
0.0838515
0.0848444
0.0848456
0.0858098
0.0858114
0.0867307
0.0867327
0.0875956
0.0875978
0.088399
0.0884011
0.0891403
0.0891424
0.0898238
0.0898258
0.0904575
0.0904593
0.0910519
0.0910535
0.0916194
0.0916209
0.0921733
0.0921745
0.0927267
0.0927278
0.0932926
0.0932935
0.093883
0.0938837
0.0945087
0.0945093
0.0951797
0.0951802
0.0959046
0.0959049
0.0966907
0.096691
0.0975446
0.0975447
0.0984715
0.0984716
0.0994756
0.0994755
0.10056
0.100559
0.101725
0.101724
0.102969
0.102969
0.104289
0.104288
0.105675
0.105674
0.107115
0.107114
0.10859
0.108589
0.110078
0.110077
0.111552
0.111551
0.112981
0.11298
0.114336
0.114335
0.115589
0.115588
0.116719
0.116718
0.117713
0.117712
0.11857
0.118569
0.119302
0.119301
0.119933
0.119933
0.120501
0.1205
0.121045
0.121045
0.12161
0.12161
0.122231
0.122231
0.122933
0.122933
0.123719
0.123719
0.124581
0.124581
0.125496
0.125496
0.126438
0.126438
0.127384
0.127384
0.12832
0.12832
0.129245
0.129245
0.130169
0.130169
0.131113
0.131113
0.132103
0.132103
0.133166
0.133166
0.134324
0.134324
0.135595
0.135595
0.136991
0.136991
0.138519
0.138519
0.140181
0.140181
0.141984
0.141984
0.14393
0.14393
0.146028
0.146028
0.148284
0.148284
0.150705
0.150705
0.153298
0.153297
0.156065
0.156065
0.159008
0.159008
0.162127
0.162127
0.16542
0.16542
0.168883
0.168883
0.172515
0.172515
0.176314
0.176314
0.18028
0.18028
0.184416
0.184416
0.188726
0.188726
0.193215
0.193215
0.19789
0.19789
0.202756
0.202756
0.207821
0.207821
0.213087
0.213087
0.218557
0.218557
0.22423
0.22423
0.230105
0.230105
0.236178
0.236178
0.242444
0.242444
0.2489
0.248899
0.25554
0.25554
0.26236
0.26236
0.269355
0.269355
0.27652
0.27652
0.28385
0.28385
0.291338
0.291338
0.298979
0.298979
0.306764
0.306764
0.314687
0.314687
0.322739
0.322739
0.330912
0.330912
0.3392
0.3392
0.347596
0.347596
0.356093
0.356093
0.364687
0.364687
0.373373
0.373373
0.382147
0.382147
0.391003
0.391002
0.399933
0.399933
0.40893
0.40893
0.417983
0.417983
0.427081
0.427081
0.436213
0.436213
0.445369
0.445369
0.454541
0.454541
0.463721
0.463721
0.472905
0.472905
0.482086
0.482086
0.491264
0.491264
0.500434
0.500434
0.509595
0.509595
0.518744
0.518743
0.527875
0.527875
0.536987
0.536987
0.546072
0.546072
0.555127
0.555127
0.564143
0.564143
0.573112
0.573112
0.582021
0.582021
0.590843
0.590843
0.599525
0.599525
0.607938
0.607938
0.615741
0.615741
0.621995
0.621995
0.621813
0.621813
3.42793e-09
3.43023e-09
5.58229e-07
5.58574e-07
1.16794e-05
1.16864e-05
8.03902e-05
8.04304e-05
0.000264407
0.000264506
0.000559986
0.000560149
0.000937376
0.000937597
0.00137514
0.00137542
0.00186058
0.00186091
0.00238586
0.00238624
0.00294579
0.00294623
0.00353671
0.0035372
0.00415588
0.00415643
0.00480119
0.00480179
0.0054709
0.00547156
0.00616362
0.00616433
0.00687811
0.00687888
0.00761335
0.00761417
0.0083684
0.00836928
0.00914244
0.00914338
0.00993469
0.00993569
0.0107444
0.0107455
0.011571
0.0115722
0.0124138
0.012415
0.0132722
0.0132735
0.0141457
0.014147
0.0150336
0.0150349
0.0159354
0.0159368
0.0168507
0.0168522
0.0177788
0.0177804
0.0187194
0.018721
0.0196718
0.0196735
0.0206357
0.0206374
0.0216103
0.0216122
0.0225953
0.0225972
0.02359
0.023592
0.0245939
0.024596
0.0256064
0.0256085
0.0266268
0.0266289
0.0276546
0.0276568
0.0286891
0.0286914
0.0297299
0.0297323
0.0307763
0.0307788
0.0318277
0.0318302
0.0328832
0.0328858
0.033942
0.0339446
0.0350029
0.0350056
0.0360646
0.0360674
0.0371254
0.0371282
0.0381834
0.0381863
0.0392364
0.0392393
0.040282
0.040285
0.0413175
0.0413205
0.0423404
0.0423435
0.0433489
0.0433521
0.0443429
0.0443461
0.0453246
0.045328
0.0462999
0.0463033
0.0472763
0.0472799
0.0482616
0.0482653
0.0492551
0.0492589
0.050244
0.0502479
0.0512037
0.0512076
0.0521001
0.0521041
0.0528982
0.0529021
0.0535705
0.0535742
0.0541035
0.054107
0.0544997
0.0545029
0.0547748
0.0547778
0.0549533
0.054956
0.0550625
0.055065
0.0551289
0.0551313
0.0551748
0.055177
0.0552171
0.0552192
0.055267
0.0552691
0.0553316
0.0553337
0.0554122
0.0554143
0.0555076
0.0555096
0.0556143
0.0556163
0.0557277
0.0557296
0.0558426
0.0558444
0.0559541
0.0559558
0.0560578
0.0560593
0.0561496
0.0561509
0.0562264
0.0562275
0.0562854
0.0562864
0.0563244
0.0563253
0.0563417
0.0563424
0.0563359
0.0563365
0.0563065
0.056307
0.0562536
0.056254
0.0561782
0.0561785
0.0560826
0.0560829
0.05597
0.0559702
0.0558445
0.0558446
0.0557107
0.0557109
0.0555734
0.0555735
0.0554368
0.0554369
0.0553041
0.0553043
0.0551777
0.0551778
0.0550582
0.0550583
0.0549455
0.0549456
0.0548388
0.054839
0.0547373
0.0547374
0.0546402
0.0546403
0.0545476
0.0545477
0.0544599
0.0544601
0.0543787
0.0543788
0.0543055
0.0543056
0.0542425
0.0542426
0.0541913
0.0541914
0.054153
0.0541531
0.0541273
0.0541275
0.054113
0.0541131
0.0541073
0.0541074
0.0541062
0.0541063
0.054105
0.0541051
0.0540991
0.0540992
0.0540845
0.0540846
0.054059
0.054059
0.0540221
0.0540221
0.0539761
0.0539761
0.0539251
0.0539251
0.0538746
0.0538746
0.0538304
0.0538305
0.0537976
0.0537976
0.0537799
0.0537799
0.0537783
0.0537784
0.053792
0.053792
0.0538186
0.0538187
0.0538552
0.0538553
0.0538992
0.0538993
0.0539486
0.0539487
0.0540027
0.0540028
0.0540619
0.0540621
0.0541278
0.0541279
0.0542022
0.0542023
0.0542873
0.0542874
0.0543852
0.0543853
0.0544977
0.0544979
0.0546263
0.0546265
0.054772
0.0547723
0.0549355
0.0549357
0.0551167
0.055117
0.0553156
0.0553159
0.0555314
0.0555317
0.0557636
0.055764
0.0560115
0.0560119
0.0562747
0.0562751
0.0565534
0.0565538
0.0568482
0.0568487
0.0571606
0.0571611
0.0574926
0.0574931
0.0578467
0.0578473
0.058226
0.0582266
0.0586334
0.0586341
0.0590724
0.0590731
0.0595457
0.0595465
0.0600562
0.0600571
0.0606061
0.0606071
0.0611974
0.0611985
0.0618313
0.0618325
0.0625085
0.0625099
0.0632291
0.0632305
0.0639919
0.0639935
0.0647949
0.0647966
0.0656344
0.0656364
0.0665053
0.0665074
0.0674004
0.0674027
0.0683109
0.0683134
0.0692263
0.0692289
0.070135
0.0701377
0.0710253
0.0710281
0.0718864
0.0718892
0.0727096
0.0727125
0.0734901
0.0734928
0.0742274
0.0742297
0.0749266
0.0749286
0.0755986
0.0756001
0.0762585
0.0762595
0.0769245
0.0769252
0.0776158
0.0776163
0.0783497
0.0783502
0.079139
0.0791395
0.0799894
0.0799899
0.0808991
0.0808995
0.0818575
0.0818577
0.0828482
0.082848
0.083851
0.0838504
0.0848451
0.0848439
0.0858109
0.0858092
0.0867322
0.0867301
0.0875973
0.0875951
0.0884007
0.0883985
0.089142
0.0891398
0.0898254
0.0898234
0.090459
0.0904571
0.0910532
0.0910515
0.0916206
0.0916191
0.0921743
0.092173
0.0927275
0.0927264
0.0932932
0.0932923
0.0938834
0.0938826
0.094509
0.0945084
0.0951798
0.0951793
0.0959045
0.0959041
0.0966905
0.0966902
0.0975442
0.097544
0.0984709
0.0984709
0.0994747
0.0994748
0.100559
0.100559
0.101723
0.101724
0.102968
0.102968
0.104287
0.104288
0.105673
0.105674
0.107113
0.107113
0.108588
0.108589
0.110076
0.110077
0.111549
0.11155
0.112979
0.11298
0.114334
0.114335
0.115587
0.115588
0.116717
0.116718
0.117712
0.117713
0.118569
0.11857
0.119301
0.119302
0.119933
0.119934
0.1205
0.120501
0.121045
0.121046
0.12161
0.121611
0.122231
0.122231
0.122932
0.122933
0.123719
0.123719
0.12458
0.12458
0.125495
0.125495
0.126437
0.126437
0.127384
0.127383
0.12832
0.12832
0.129245
0.129245
0.130169
0.130169
0.131113
0.131113
0.132103
0.132103
0.133166
0.133166
0.134324
0.134324
0.135595
0.135595
0.136991
0.136991
0.138519
0.138519
0.140181
0.140181
0.141983
0.141984
0.14393
0.14393
0.146028
0.146028
0.148283
0.148284
0.150704
0.150705
0.153297
0.153297
0.156064
0.156064
0.159007
0.159008
0.162126
0.162127
0.165419
0.165419
0.168882
0.168883
0.172514
0.172514
0.176313
0.176313
0.18028
0.18028
0.184416
0.184416
0.188726
0.188726
0.193215
0.193216
0.19789
0.19789
0.202756
0.202757
0.207821
0.207821
0.213087
0.213087
0.218557
0.218557
0.22423
0.22423
0.230105
0.230105
0.236177
0.236178
0.242444
0.242444
0.248899
0.248899
0.255539
0.25554
0.262359
0.26236
0.269354
0.269355
0.27652
0.27652
0.283849
0.28385
0.291338
0.291338
0.298978
0.298979
0.306763
0.306764
0.314686
0.314686
0.322738
0.322739
0.330912
0.330912
0.3392
0.3392
0.347595
0.347596
0.356092
0.356093
0.364686
0.364687
0.373372
0.373373
0.382146
0.382146
0.391002
0.391002
0.399933
0.399933
0.408929
0.40893
0.417982
0.417982
0.42708
0.42708
0.436212
0.436212
0.445369
0.445369
0.454541
0.454541
0.463721
0.463721
0.472904
0.472904
0.482086
0.482086
0.491263
0.491264
0.500434
0.500434
0.509595
0.509595
0.518743
0.518743
0.527874
0.527875
0.536985
0.536986
0.546071
0.546071
0.555125
0.555125
0.56414
0.564141
0.573109
0.573109
0.582016
0.582016
0.590837
0.590837
0.599518
0.599518
0.607929
0.607929
0.615729
0.615729
0.621982
0.621981
0.621802
0.621801
0.621813
0.621813
0.621997
0.621997
0.615746
0.615746
0.607943
0.607943
0.59953
0.59953
0.590849
0.590849
0.582027
0.582027
0.573119
0.573119
0.564151
0.564151
0.555135
0.555135
0.54608
0.54608
0.536995
0.536995
0.527884
0.527884
0.518752
0.518752
0.509605
0.509605
0.500445
0.500445
0.491275
0.491275
0.482098
0.482098
0.472917
0.472917
0.463734
0.463734
0.454554
0.454554
0.445383
0.445383
0.436227
0.436227
0.427095
0.427095
0.417998
0.417998
0.408946
0.408946
0.399949
0.399949
0.391019
0.391019
0.382163
0.382163
0.37339
0.37339
0.364704
0.364704
0.356111
0.356111
0.347614
0.347614
0.339219
0.339219
0.330931
0.330931
0.322757
0.322756
0.314704
0.314704
0.306781
0.306781
0.298996
0.298996
0.291355
0.291355
0.283867
0.283867
0.276537
0.276536
0.269371
0.269371
0.262375
0.262375
0.255555
0.255555
0.248914
0.248914
0.242458
0.242458
0.236192
0.236191
0.230118
0.230118
0.224243
0.224243
0.218569
0.218569
0.213098
0.213098
0.207832
0.207831
0.202767
0.202766
0.197899
0.197899
0.193224
0.193224
0.188734
0.188734
0.184424
0.184424
0.180287
0.180287
0.176319
0.176319
0.172519
0.172519
0.168886
0.168886
0.165422
0.165422
0.162129
0.162129
0.15901
0.159009
0.156066
0.156065
0.153298
0.153298
0.150705
0.150705
0.148283
0.148283
0.146027
0.146026
0.143928
0.143928
0.141981
0.141981
0.140178
0.140178
0.138515
0.138515
0.136987
0.136987
0.135591
0.135591
0.134319
0.134319
0.133161
0.133161
0.132098
0.132098
0.131108
0.131109
0.130165
0.130165
0.129242
0.129242
0.128318
0.128318
0.127382
0.127382
0.126437
0.126437
0.125495
0.125496
0.124581
0.124581
0.12372
0.12372
0.122934
0.122934
0.122233
0.122233
0.121612
0.121612
0.121048
0.121047
0.120504
0.120503
0.119937
0.119937
0.119307
0.119306
0.118575
0.118574
0.117718
0.117717
0.116724
0.116723
0.115594
0.115593
0.114341
0.11434
0.112986
0.112985
0.111556
0.111555
0.110083
0.110082
0.108595
0.108594
0.107119
0.107119
0.105679
0.105679
0.104293
0.104293
0.102973
0.102973
0.101729
0.101728
0.100563
0.100563
0.0994791
0.099479
0.0984748
0.0984749
0.0975477
0.0975479
0.0966937
0.0966939
0.0959073
0.0959077
0.0951823
0.0951828
0.0945111
0.0945118
0.0938851
0.0938859
0.0932946
0.0932956
0.0927285
0.0927297
0.0921749
0.0921763
0.091621
0.0916225
0.0910534
0.0910551
0.0904588
0.0904608
0.0898249
0.0898271
0.0891413
0.0891435
0.0883998
0.0884022
0.0875964
0.0875987
0.0867312
0.0867334
0.08581
0.0858118
0.0848442
0.0848455
0.0838504
0.083851
0.0828479
0.082848
0.0818574
0.0818572
0.0808991
0.0808988
0.0799894
0.079989
0.0791389
0.0791385
0.0783495
0.078349
0.0776155
0.0776149
0.0769242
0.0769236
0.0762585
0.0762575
0.075599
0.0755975
0.0749275
0.0749255
0.0742286
0.0742262
0.0734918
0.073489
0.0727115
0.0727086
0.0718881
0.0718852
0.0710268
0.0710239
0.0701363
0.0701335
0.0692273
0.0692246
0.0683116
0.0683091
0.0674008
0.0673984
0.0665053
0.0665031
0.065634
0.065632
0.0647941
0.0647923
0.0639908
0.0639891
0.0632276
0.0632261
0.0625067
0.0625053
0.0618291
0.0618279
0.0611949
0.0611938
0.0606033
0.0606023
0.0600531
0.0600521
0.0595423
0.0595415
0.0590687
0.0590679
0.0586295
0.0586288
0.0582217
0.0582211
0.0578422
0.0578417
0.0574878
0.0574873
0.0571556
0.0571551
0.0568429
0.0568425
0.0565478
0.0565474
0.0562689
0.0562685
0.0560054
0.056005
0.0557572
0.0557569
0.0555248
0.0555245
0.0553087
0.0553084
0.0551096
0.0551094
0.0549282
0.0549279
0.0547646
0.0547643
0.0546186
0.0546184
0.0544898
0.0544897
0.0543772
0.054377
0.0542791
0.054279
0.0541939
0.0541938
0.0541193
0.0541192
0.0540533
0.0540531
0.0539937
0.0539936
0.0539394
0.0539393
0.0538898
0.0538897
0.0538456
0.0538455
0.0538088
0.0538087
0.0537821
0.053782
0.0537683
0.0537682
0.0537697
0.0537696
0.0537873
0.0537872
0.05382
0.05382
0.053864
0.053864
0.0539145
0.0539144
0.0539654
0.0539654
0.0540113
0.0540113
0.0540481
0.054048
0.0540736
0.0540735
0.0540881
0.054088
0.054094
0.0540939
0.0540951
0.054095
0.0540962
0.054096
0.0541018
0.0541017
0.0541161
0.0541159
0.0541416
0.0541415
0.0541798
0.0541797
0.0542309
0.0542308
0.0542939
0.0542937
0.0543669
0.0543668
0.0544481
0.054448
0.0545356
0.0545355
0.0546282
0.0546281
0.0547252
0.054725
0.0548267
0.0548265
0.0549333
0.0549331
0.0550459
0.0550458
0.0551653
0.0551652
0.0552917
0.0552915
0.0554243
0.0554241
0.0555609
0.0555607
0.0556981
0.0556979
0.0558318
0.0558316
0.0559574
0.0559571
0.0560701
0.0560698
0.0561658
0.0561655
0.0562414
0.056241
0.0562946
0.056294
0.0563241
0.0563234
0.0563299
0.0563291
0.0563126
0.0563116
0.0562736
0.0562725
0.0562147
0.0562133
0.0561379
0.0561363
0.0560461
0.0560443
0.0559425
0.0559405
0.0558309
0.0558287
0.0557159
0.0557136
0.0556024
0.0556
0.0554957
0.0554932
0.0554002
0.0553977
0.0553195
0.0553169
0.0552548
0.0552522
0.0552048
0.0552022
0.0551625
0.0551598
0.0551168
0.0551139
0.0550505
0.0550474
0.0549414
0.0549381
0.0547634
0.0547598
0.0544889
0.0544849
0.0540932
0.054089
0.0535607
0.0535562
0.0528887
0.0528841
0.0520908
0.0520861
0.0511944
0.0511897
0.0502347
0.0502301
0.0492459
0.0492414
0.0482525
0.0482481
0.0472672
0.047263
0.0462908
0.0462867
0.0453157
0.0453117
0.0443341
0.0443302
0.0433404
0.0433366
0.0423321
0.0423284
0.0413095
0.0413059
0.0402743
0.0402708
0.0392291
0.0392256
0.0381763
0.0381729
0.0371185
0.0371152
0.036058
0.0360548
0.0349966
0.0349934
0.0339359
0.0339328
0.0328774
0.0328744
0.0318221
0.0318191
0.0307709
0.0307681
0.0297248
0.029722
0.0286842
0.0286815
0.0276498
0.0276472
0.0266222
0.0266197
0.025602
0.0255996
0.0245898
0.0245874
0.0235861
0.0235838
0.0225916
0.0225894
0.0216068
0.0216046
0.0206323
0.0206302
0.0196686
0.0196666
0.0187163
0.0187144
0.0177759
0.0177741
0.0168479
0.0168462
0.0159328
0.0159312
0.0150312
0.0150296
0.0141434
0.0141419
0.0132701
0.0132687
0.0124119
0.0124105
0.0115692
0.0115679
0.0107428
0.0107416
0.00993315
0.00993201
0.00914102
0.00913995
0.00836711
0.00836611
0.00761218
0.00761124
0.00687706
0.00687619
0.00616267
0.00616187
0.00547007
0.00546933
0.00480045
0.00479978
0.00415525
0.00415463
0.00353617
0.00353561
0.00294533
0.00294484
0.00238549
0.00238505
0.00186029
0.00185992
0.00137492
0.00137461
0.000937216
0.000936971
0.000559883
0.000559704
0.000264352
0.000264242
8.03712e-05
8.03268e-05
1.16766e-05
1.16689e-05
5.58095e-07
5.57716e-07
3.4274e-09
3.42488e-09
0.621802
0.621802
0.621983
0.621983
0.615734
0.615734
0.607933
0.607933
0.599523
0.599523
0.590843
0.590843
0.582022
0.582023
0.573116
0.573116
0.564148
0.564148
0.555133
0.555133
0.546079
0.546079
0.536994
0.536994
0.527883
0.527883
0.518752
0.518752
0.509604
0.509604
0.500444
0.500444
0.491275
0.491275
0.482098
0.482098
0.472916
0.472917
0.463733
0.463734
0.454553
0.454554
0.445382
0.445382
0.436226
0.436227
0.427095
0.427095
0.417997
0.417998
0.408945
0.408945
0.399949
0.399949
0.391018
0.391019
0.382163
0.382163
0.37339
0.37339
0.364704
0.364704
0.35611
0.356111
0.347614
0.347614
0.339218
0.339219
0.33093
0.330931
0.322756
0.322756
0.314703
0.314704
0.306781
0.306781
0.298995
0.298996
0.291355
0.291355
0.283866
0.283866
0.276536
0.276536
0.26937
0.269371
0.262375
0.262375
0.255554
0.255555
0.248914
0.248914
0.242458
0.242458
0.236191
0.236191
0.230118
0.230118
0.224243
0.224243
0.218569
0.218569
0.213098
0.213098
0.207831
0.207832
0.202767
0.202767
0.197899
0.1979
0.193224
0.193224
0.188734
0.188734
0.184423
0.184424
0.180286
0.180287
0.176319
0.176319
0.172518
0.172519
0.168886
0.168886
0.165421
0.165422
0.162128
0.162129
0.159009
0.159009
0.156065
0.156065
0.153297
0.153297
0.150704
0.150704
0.148282
0.148283
0.146026
0.146026
0.143928
0.143928
0.141981
0.141981
0.140178
0.140178
0.138515
0.138515
0.136987
0.136987
0.135591
0.135591
0.13432
0.13432
0.133161
0.133161
0.132099
0.132098
0.131109
0.131109
0.130165
0.130165
0.129242
0.129242
0.128318
0.128317
0.127382
0.127382
0.126436
0.126436
0.125495
0.125495
0.12458
0.124581
0.12372
0.12372
0.122933
0.122934
0.122232
0.122233
0.121612
0.121612
0.121048
0.121048
0.120503
0.120504
0.119937
0.119938
0.119306
0.119307
0.118574
0.118575
0.117717
0.117718
0.116722
0.116724
0.115592
0.115593
0.114338
0.11434
0.112983
0.112984
0.111554
0.111555
0.110081
0.110081
0.108593
0.108593
0.107117
0.107118
0.105678
0.105678
0.104291
0.104292
0.102972
0.102972
0.101727
0.101728
0.100562
0.100562
0.0994783
0.0994783
0.0984742
0.0984742
0.0975473
0.0975472
0.0966934
0.0966932
0.0959072
0.0959069
0.0951824
0.0951819
0.0945114
0.0945107
0.0938856
0.0938848
0.0932952
0.0932942
0.0927294
0.0927282
0.092176
0.0921746
0.0916222
0.0916207
0.0910548
0.091053
0.0904604
0.0904584
0.0898267
0.0898245
0.0891431
0.0891408
0.0884018
0.0883993
0.0875982
0.0875958
0.0867329
0.0867307
0.0858112
0.0858094
0.084845
0.0848437
0.0838505
0.0838498
0.0828475
0.0828473
0.0818567
0.0818569
0.0808983
0.0808987
0.0799885
0.079989
0.0791381
0.0791385
0.0783487
0.0783492
0.0776146
0.0776152
0.0769233
0.076924
0.0762573
0.0762583
0.0755973
0.0755988
0.0749252
0.0749273
0.0742259
0.0742284
0.0734887
0.0734916
0.0727083
0.0727113
0.0718849
0.071888
0.0710237
0.0710266
0.0701332
0.0701361
0.0692243
0.0692271
0.0683088
0.0683114
0.0673982
0.0674006
0.0665029
0.0665051
0.0656318
0.0656339
0.0647921
0.064794
0.0639889
0.0639906
0.0632259
0.0632274
0.0625051
0.0625066
0.0618277
0.061829
0.0611936
0.0611948
0.0606021
0.0606032
0.060052
0.060053
0.0595413
0.0595422
0.0590678
0.0590686
0.0586287
0.0586294
0.058221
0.0582216
0.0578416
0.0578421
0.0574872
0.0574878
0.057155
0.0571555
0.0568424
0.0568429
0.0565473
0.0565478
0.0562684
0.0562688
0.056005
0.0560053
0.0557568
0.0557572
0.0555244
0.0555247
0.0553083
0.0553086
0.0551093
0.0551096
0.0549279
0.0549281
0.0547643
0.0547645
0.0546184
0.0546186
0.0544896
0.0544898
0.054377
0.0543772
0.054279
0.0542791
0.0541937
0.0541939
0.0541192
0.0541193
0.0540531
0.0540533
0.0539936
0.0539937
0.0539393
0.0539394
0.0538897
0.0538898
0.0538456
0.0538457
0.0538087
0.0538088
0.053782
0.0537821
0.0537682
0.0537683
0.0537697
0.0537697
0.0537873
0.0537873
0.05382
0.05382
0.0538641
0.0538641
0.0539145
0.0539145
0.0539654
0.0539654
0.0540113
0.0540114
0.0540481
0.0540481
0.0540736
0.0540737
0.0540881
0.0540882
0.0540939
0.054094
0.054095
0.0540952
0.0540961
0.0540963
0.0541018
0.0541019
0.054116
0.0541161
0.0541415
0.0541417
0.0541798
0.0541799
0.0542308
0.054231
0.0542938
0.054294
0.0543669
0.054367
0.054448
0.0544482
0.0545356
0.0545357
0.0546282
0.0546283
0.0547251
0.0547253
0.0548266
0.0548268
0.0549332
0.0549334
0.0550458
0.055046
0.0551653
0.0551655
0.0552916
0.0552918
0.0554242
0.0554244
0.0555608
0.055561
0.055698
0.0556982
0.0558317
0.055832
0.0559572
0.0559575
0.0560699
0.0560702
0.0561656
0.056166
0.0562411
0.0562415
0.0562941
0.0562947
0.0563235
0.0563242
0.0563291
0.05633
0.0563117
0.0563128
0.0562726
0.0562738
0.0562134
0.0562148
0.0561364
0.0561381
0.0560444
0.0560462
0.0559406
0.0559426
0.0558288
0.0558311
0.0557137
0.055716
0.0556001
0.0556026
0.0554933
0.0554958
0.0553978
0.0554004
0.055317
0.0553197
0.0552524
0.055255
0.0552023
0.055205
0.0551599
0.0551627
0.055114
0.0551169
0.0550475
0.0550506
0.0549382
0.0549416
0.0547599
0.0547636
0.0544851
0.054489
0.0540891
0.0540934
0.0535563
0.0535608
0.0528843
0.0528889
0.0520862
0.052091
0.0511898
0.0511945
0.0502302
0.0502349
0.0492415
0.0492461
0.0482482
0.0482527
0.0472631
0.0472674
0.0462868
0.046291
0.0453118
0.0453158
0.0443303
0.0443342
0.0433367
0.0433405
0.0423285
0.0423322
0.041306
0.0413096
0.0402709
0.0402745
0.0392257
0.0392292
0.038173
0.0381764
0.0371153
0.0371187
0.0360549
0.0360582
0.0349935
0.0349967
0.0339329
0.033936
0.0328745
0.0328775
0.0318192
0.0318222
0.0307682
0.0307711
0.0297221
0.0297249
0.0286816
0.0286843
0.0276473
0.0276499
0.0266198
0.0266224
0.0255997
0.0256021
0.0245875
0.0245899
0.0235839
0.0235862
0.0225894
0.0225917
0.0216047
0.0216069
0.0206303
0.0206323
0.0196667
0.0196687
0.0187145
0.0187164
0.0177742
0.017776
0.0168463
0.016848
0.0159312
0.0159329
0.0150296
0.0150312
0.014142
0.0141435
0.0132688
0.0132702
0.0124106
0.0124119
0.011568
0.0115693
0.0107416
0.0107428
0.00993204
0.0099332
0.00913998
0.00914107
0.00836614
0.00836715
0.00761127
0.00761222
0.00687621
0.00687709
0.00616189
0.0061627
0.00546935
0.0054701
0.00479979
0.00480048
0.00415465
0.00415527
0.00353563
0.00353619
0.00294485
0.00294535
0.00238506
0.0023855
0.00185993
0.0018603
0.00137462
0.00137493
0.000936976
0.000937224
0.000559707
0.000559888
0.000264244
0.000264355
8.03276e-05
8.03723e-05
1.16691e-05
1.16768e-05
5.57722e-07
5.58104e-07
3.42491e-09
3.42746e-09
)
;

boundaryField
{
    walls
    {
        type            nutUWallFunction;
        blending        stepwise;
        Cmu             0.09;
        kappa           0.41;
        E               9.8;
        value           uniform 0;
    }
    inlet
    {
        type            cyclic;
    }
    outlet
    {
        type            cyclic;
    }
    sides
    {
        type            empty;
    }
}


// ************************************************************************* //
