/*--------------------------------*- C++ -*----------------------------------*\
| =========                 |                                                 |
| \\      /  F ield         | OpenFOAM: The Open Source CFD Toolbox           |
|  \\    /   O peration     | Version:  2012                                  |
|   \\  /    A nd           | Website:  www.openfoam.com                      |
|    \\/     M anipulation  |                                                 |
\*---------------------------------------------------------------------------*/
FoamFile
{
    version     2.0;
    format      ascii;
    class       volScalarField;
    location    "10700";
    object      omega;
}
// * * * * * * * * * * * * * * * * * * * * * * * * * * * * * * * * * * * * * //

dimensions      [0 0 -1 0 0 0 0];


internalField   nonuniform List<scalar> 
2560
(
1.52416e+06
1.52416e+06
264673
264675
88338.9
88341.5
40781.9
40783.5
23736.4
23736.9
16364.7
16364.8
12531.7
12531.5
10229.9
10229.7
8701.35
8701.14
7612.07
7611.86
6795.32
6795.11
6159.18
6158.98
5648.98
5648.8
5230.23
5230.06
4880.07
4879.9
4582.72
4582.56
4327
4326.85
4104.69
4104.54
3909.65
3909.51
3737.19
3737.06
3583.66
3583.53
3446.15
3446.03
3322.37
3322.25
3210.42
3210.31
3108.78
3108.68
3016.18
3016.08
2931.55
2931.45
2854.01
2853.91
2782.79
2782.7
2717.27
2717.17
2656.88
2656.78
2601.15
2601.06
2549.67
2549.58
2502.09
2501.99
2458.07
2457.98
2417.34
2417.25
2379.65
2379.56
2344.78
2344.69
2312.52
2312.43
2282.7
2282.62
2255.18
2255.09
2229.8
2229.71
2206.45
2206.36
2185
2184.91
2165.35
2165.26
2147.38
2147.29
2130.97
2130.88
2115.99
2115.91
2102.31
2102.23
2089.78
2089.69
2078.23
2078.14
2067.5
2067.41
2057.4
2057.31
2047.78
2047.69
2038.49
2038.4
2029.52
2029.43
2020.97
2020.87
2013.09
2013
2006.28
2006.18
2000.92
2000.81
1997
1996.89
1993.99
1993.88
1990.82
1990.7
1986
1985.88
1977.98
1977.87
1965.56
1965.46
1948.16
1948.06
1925.86
1925.77
1899.32
1899.24
1869.55
1869.48
1837.64
1837.59
1804.64
1804.58
1771.36
1771.31
1738.42
1738.38
1706.2
1706.16
1674.93
1674.89
1644.62
1644.58
1615.22
1615.18
1586.61
1586.57
1558.62
1558.58
1531.1
1531.07
1503.9
1503.87
1476.89
1476.87
1449.97
1449.96
1423.06
1423.05
1396.11
1396.1
1369.06
1369.05
1341.89
1341.89
1314.59
1314.59
1287.16
1287.17
1259.63
1259.64
1232.05
1232.06
1204.49
1204.5
1177.04
1177.05
1149.8
1149.81
1122.89
1122.91
1096.42
1096.43
1070.46
1070.47
1045.07
1045.08
1020.29
1020.31
996.124
996.136
972.546
972.558
949.53
949.542
927.046
927.058
905.071
905.082
883.591
883.603
862.608
862.619
842.131
842.142
822.177
822.188
802.765
802.775
783.908
783.918
765.605
765.615
747.838
747.848
730.572
730.581
713.752
713.761
697.312
697.321
681.178
681.187
665.284
665.293
649.573
649.582
634.018
634.027
618.615
618.624
603.393
603.402
588.401
588.41
573.7
573.708
559.349
559.357
545.394
545.402
531.863
531.87
518.752
518.759
506.038
506.045
493.683
493.69
481.648
481.654
469.896
469.902
458.401
458.406
447.148
447.154
436.135
436.141
425.367
425.373
414.852
414.857
404.599
404.604
394.616
394.621
384.908
384.912
375.474
375.479
366.314
366.318
357.42
357.424
348.783
348.788
340.393
340.397
332.236
332.239
324.298
324.302
316.568
316.571
309.035
309.039
301.694
301.697
294.539
294.542
287.572
287.575
280.797
280.799
274.219
274.221
267.846
267.848
261.686
261.688
255.746
255.747
250.032
250.033
244.549
244.55
239.299
239.3
234.285
234.285
229.503
229.504
224.953
224.953
220.627
220.627
216.519
216.517
212.615
212.613
208.901
208.899
205.355
205.352
201.952
201.949
198.662
198.658
195.449
195.445
192.277
192.273
189.111
189.106
185.919
185.914
182.676
182.671
179.369
179.364
175.998
175.994
172.578
172.575
169.135
169.133
165.708
165.707
162.339
162.339
159.071
159.071
155.938
155.938
152.967
152.967
150.165
150.165
147.525
147.525
145.026
145.026
142.632
142.633
140.306
140.308
138.009
138.011
135.705
135.709
133.368
133.372
130.979
130.983
128.528
128.532
126.018
126.022
123.455
123.459
120.854
120.857
118.23
118.233
115.602
115.604
112.987
112.989
110.403
110.405
107.864
107.867
105.386
105.387
102.977
102.978
100.647
100.649
98.4037
98.4049
96.2517
96.2528
94.1953
94.1962
92.237
92.2378
90.3785
90.3792
88.6202
88.6207
86.961
86.9615
85.3978
85.3982
83.9251
83.9254
82.5346
82.5348
81.2144
81.2145
79.9491
79.9491
78.7198
78.7198
77.5052
77.5051
76.2824
76.2822
75.0293
75.0291
73.7265
73.7263
72.3597
72.3594
70.9214
70.9212
69.4127
69.4125
67.843
67.8428
66.2294
66.2294
64.5948
64.5949
62.9641
62.9642
61.3609
61.3611
59.8029
59.8031
58.3012
58.3014
56.8554
56.8556
55.4578
55.458
54.0959
54.0961
52.7557
52.756
51.4255
51.4258
50.0982
50.0986
48.7725
48.7728
47.4519
47.4522
46.1435
46.1438
44.856
44.8563
43.5974
43.5976
42.3735
42.3737
41.1881
41.1883
40.0426
40.0427
38.9364
38.9366
37.8684
37.8686
36.8375
36.8376
35.8429
35.843
34.8841
34.8842
33.9611
33.9612
33.0738
33.0738
32.2216
32.2216
31.4037
31.4038
30.6188
30.6189
29.8653
29.8653
29.1413
29.1413
28.445
28.4451
27.7749
27.775
27.1296
27.1296
26.5081
26.5081
25.9097
25.9097
25.3341
25.3342
24.7814
24.7814
24.2516
24.2516
23.7448
23.7448
23.2611
23.2611
22.8004
22.8004
22.3625
22.3625
21.9467
21.9467
21.5524
21.5525
21.179
21.179
20.8257
20.8257
20.4917
20.4917
20.1764
20.1764
19.8792
19.8792
19.5995
19.5995
19.3368
19.3369
19.0906
19.0906
18.8604
18.8604
18.6455
18.6455
18.4456
18.4456
18.26
18.26
18.0884
18.0884
17.9303
17.9303
17.7853
17.7853
17.6531
17.6531
17.5334
17.5334
17.4261
17.4261
17.3311
17.3311
17.2484
17.2484
17.1778
17.1778
17.1193
17.1193
17.0725
17.0725
17.0374
17.0374
17.0135
17.0135
17.0009
17.0009
16.9991
16.9991
17.0083
17.0083
17.0283
17.0283
17.0593
17.0593
17.1014
17.1014
17.1549
17.1549
17.2201
17.2201
17.2972
17.2972
17.3865
17.3865
17.4885
17.4885
17.6035
17.6035
17.7317
17.7317
17.8736
17.8736
18.0295
18.0295
18.1997
18.1997
18.3843
18.3843
18.5831
18.5831
18.795
18.795
19.0159
19.0159
19.2344
19.2344
19.4179
19.4179
19.3985
19.3985
1.52416e+06
1.52416e+06
264675
264673
88341.5
88338.9
40783.5
40781.9
23736.9
23736.4
16364.8
16364.7
12531.5
12531.7
10229.7
10229.9
8701.14
8701.35
7611.86
7612.07
6795.11
6795.32
6158.98
6159.18
5648.8
5648.99
5230.06
5230.24
4879.9
4880.07
4582.56
4582.73
4326.85
4327
4104.54
4104.69
3909.51
3909.65
3737.06
3737.19
3583.53
3583.66
3446.03
3446.15
3322.25
3322.37
3210.31
3210.42
3108.68
3108.79
3016.08
3016.18
2931.45
2931.55
2853.91
2854.01
2782.7
2782.79
2717.17
2717.27
2656.78
2656.88
2601.06
2601.15
2549.58
2549.67
2502
2502.09
2457.98
2458.07
2417.25
2417.34
2379.56
2379.65
2344.69
2344.78
2312.43
2312.52
2282.62
2282.71
2255.09
2255.18
2229.71
2229.8
2206.36
2206.45
2184.91
2185
2165.26
2165.35
2147.29
2147.38
2130.88
2130.97
2115.91
2115.99
2102.23
2102.31
2089.69
2089.78
2078.15
2078.23
2067.41
2067.5
2057.31
2057.4
2047.69
2047.78
2038.41
2038.5
2029.43
2029.52
2020.87
2020.97
2013
2013.1
2006.18
2006.28
2000.81
2000.92
1996.89
1997
1993.88
1993.99
1990.7
1990.82
1985.88
1986
1977.87
1977.98
1965.46
1965.56
1948.06
1948.16
1925.77
1925.86
1899.24
1899.32
1869.48
1869.55
1837.59
1837.64
1804.59
1804.64
1771.31
1771.36
1738.38
1738.42
1706.16
1706.2
1674.89
1674.93
1644.58
1644.62
1615.18
1615.22
1586.57
1586.61
1558.59
1558.62
1531.07
1531.1
1503.87
1503.9
1476.87
1476.89
1449.96
1449.97
1423.05
1423.07
1396.1
1396.11
1369.05
1369.06
1341.89
1341.89
1314.59
1314.59
1287.17
1287.16
1259.64
1259.63
1232.06
1232.05
1204.5
1204.49
1177.05
1177.04
1149.81
1149.8
1122.91
1122.89
1096.43
1096.42
1070.47
1070.46
1045.08
1045.07
1020.31
1020.29
996.137
996.124
972.558
972.546
949.542
949.53
927.058
927.046
905.083
905.071
883.603
883.592
862.619
862.608
842.142
842.131
822.188
822.177
802.776
802.765
783.919
783.908
765.615
765.605
747.848
747.838
730.581
730.572
713.761
713.752
697.321
697.312
681.188
681.178
665.293
665.284
649.582
649.573
634.027
634.018
618.624
618.615
603.402
603.393
588.41
588.401
573.708
573.7
559.357
559.349
545.402
545.394
531.87
531.863
518.759
518.752
506.044
506.038
493.69
493.683
481.654
481.648
469.902
469.896
458.406
458.4
447.154
447.148
436.141
436.135
425.373
425.367
414.857
414.852
404.604
404.599
394.621
394.616
384.912
384.907
375.479
375.474
366.318
366.314
357.424
357.42
348.787
348.783
340.397
340.393
332.239
332.235
324.301
324.298
316.571
316.568
309.038
309.035
301.696
301.693
294.542
294.539
287.575
287.572
280.799
280.796
274.221
274.219
267.848
267.846
261.687
261.685
255.747
255.745
250.033
250.031
244.55
244.548
239.3
239.299
234.285
234.284
229.503
229.503
224.952
224.952
220.626
220.627
216.517
216.518
212.613
212.615
208.898
208.9
205.352
205.355
201.949
201.952
198.657
198.661
195.444
195.448
192.272
192.277
189.106
189.111
185.913
185.918
182.67
182.676
179.364
179.369
175.994
175.998
172.574
172.578
169.133
169.135
165.707
165.708
162.339
162.339
159.07
159.07
155.938
155.938
152.966
152.966
150.164
150.164
147.525
147.525
145.025
145.025
142.632
142.632
140.307
140.305
138.01
138.008
135.708
135.704
133.371
133.367
130.982
130.978
128.532
128.528
126.021
126.017
123.459
123.455
120.857
120.853
118.233
118.23
115.604
115.601
112.989
112.986
110.405
110.402
107.866
107.864
105.387
105.385
102.978
102.977
100.648
100.647
98.4047
98.4034
96.2525
96.2514
94.1959
94.1949
92.2374
92.2366
90.3787
90.378
88.6202
88.6196
86.9608
86.9604
85.3975
85.3971
83.9246
83.9243
82.5339
82.5337
81.2135
81.2135
79.9481
79.9481
78.7188
78.7189
77.5041
77.5042
76.2813
76.2815
75.0282
75.0285
73.7255
73.7259
72.3589
72.3592
70.9208
70.9211
69.4123
69.4125
67.8427
67.8429
66.2294
66.2295
64.595
64.595
62.9644
62.9642
61.3612
61.361
59.8032
59.803
58.3013
58.3011
56.8555
56.8553
55.4578
55.4576
54.0959
54.0956
52.7558
52.7554
51.4256
51.4253
50.0985
50.0981
48.7728
48.7724
47.4523
47.4519
46.1439
46.1436
44.8565
44.8561
43.5978
43.5975
42.3739
42.3736
41.1885
41.1882
40.0429
40.0427
38.9367
38.9365
37.8686
37.8685
36.8377
36.8376
35.843
35.8429
34.8842
34.8841
33.9612
33.9611
33.0738
33.0737
32.2216
32.2215
31.4037
31.4036
30.6188
30.6187
29.8653
29.8652
29.1413
29.1412
28.445
28.445
27.7749
27.7749
27.1296
27.1295
26.5081
26.508
25.9097
25.9097
25.3342
25.3342
24.7815
24.7814
24.2517
24.2516
23.7449
23.7448
23.2612
23.2611
22.8005
22.8005
22.3625
22.3625
21.9467
21.9467
21.5525
21.5525
21.1791
21.179
20.8257
20.8257
20.4917
20.4917
20.1764
20.1764
19.8792
19.8792
19.5995
19.5995
19.3369
19.3369
19.0907
19.0906
18.8604
18.8604
18.6455
18.6455
18.4456
18.4456
18.2601
18.26
18.0885
18.0884
17.9303
17.9303
17.7853
17.7853
17.6531
17.6531
17.5334
17.5334
17.4261
17.4261
17.3311
17.3311
17.2484
17.2484
17.1778
17.1778
17.1193
17.1193
17.0725
17.0725
17.0374
17.0374
17.0135
17.0135
17.0009
17.0009
16.9991
16.9991
17.0083
17.0083
17.0283
17.0283
17.0593
17.0593
17.1014
17.1014
17.1549
17.1549
17.22
17.2201
17.2971
17.2971
17.3865
17.3865
17.4885
17.4885
17.6035
17.6035
17.7317
17.7317
17.8736
17.8736
18.0294
18.0295
18.1996
18.1996
18.3842
18.3842
18.583
18.583
18.7947
18.7947
19.0156
19.0156
19.234
19.234
19.4174
19.4174
19.3981
19.3981
19.3985
19.3985
19.4179
19.4179
19.2345
19.2345
19.016
19.016
18.7951
18.7951
18.5832
18.5832
18.3844
18.3844
18.1998
18.1998
18.0296
18.0296
17.8737
17.8737
17.7318
17.7318
17.6035
17.6035
17.4886
17.4886
17.3866
17.3866
17.2972
17.2972
17.2201
17.2201
17.155
17.155
17.1015
17.1015
17.0593
17.0593
17.0283
17.0283
17.0083
17.0083
16.9991
16.9991
17.0008
17.0008
17.0135
17.0135
17.0373
17.0373
17.0725
17.0725
17.1192
17.1192
17.1777
17.1777
17.2483
17.2483
17.331
17.331
17.4259
17.4259
17.5332
17.5332
17.6529
17.6529
17.7851
17.7851
17.93
17.93
18.0881
18.0881
18.2596
18.2596
18.4451
18.4451
18.645
18.645
18.8598
18.8598
19.09
19.09
19.3361
19.3361
19.5988
19.5988
19.8783
19.8784
20.1755
20.1755
20.4907
20.4907
20.8246
20.8246
21.1779
21.1779
21.5512
21.5513
21.9454
21.9454
22.3611
22.3611
22.799
22.799
23.2596
23.2596
23.7432
23.7432
24.2498
24.2499
24.7796
24.7796
25.3322
25.3322
25.9076
25.9076
26.5059
26.5059
27.1273
27.1273
27.7724
27.7724
28.4424
28.4424
29.1385
29.1385
29.8624
29.8624
30.6158
30.6159
31.4007
31.4007
32.2184
32.2185
33.0705
33.0706
33.9578
33.9579
34.8807
34.8808
35.8393
35.8394
36.8338
36.8339
37.8646
37.8648
38.9325
38.9327
40.0386
40.0388
41.1841
41.1843
42.3694
42.3696
43.5932
43.5934
44.8518
44.8521
46.1394
46.1397
47.448
47.4483
48.7689
48.7693
50.095
50.0953
51.4225
51.4228
52.7529
52.7532
54.0933
54.0936
55.4554
55.4556
56.8532
56.8533
58.299
58.2992
59.8009
59.8011
61.3589
61.3591
62.9623
62.9624
64.5932
64.5933
66.2282
66.2281
67.8421
67.842
69.412
69.4118
70.9206
70.9204
72.3587
72.3584
73.7252
73.725
75.0277
75.0275
76.2806
76.2804
77.5033
77.5032
78.7179
78.7178
79.947
79.947
81.2121
81.2122
82.5321
82.5322
83.9223
83.9226
85.3947
85.3951
86.9576
86.9581
88.6164
88.617
90.3745
90.3752
92.2326
92.2335
94.1906
94.1916
96.2467
96.2479
98.3983
98.3996
100.641
100.643
102.971
102.972
105.379
105.381
107.858
107.86
110.395
110.398
112.979
112.982
115.594
115.597
118.222
118.225
120.845
120.849
123.446
123.45
126.008
126.013
128.518
128.523
130.968
130.973
133.357
133.361
135.694
135.697
137.996
137.999
140.293
140.295
142.619
142.62
145.012
145.012
147.511
147.511
150.15
150.15
152.952
152.952
155.923
155.923
159.055
159.055
162.324
162.323
165.692
165.691
169.119
169.117
172.561
172.558
175.981
175.977
179.352
179.347
182.659
182.653
185.901
185.895
189.092
189.087
192.257
192.253
195.428
195.424
198.64
198.636
201.93
201.927
205.332
205.329
208.877
208.875
212.59
212.588
216.493
216.492
220.6
220.6
224.925
224.925
229.474
229.475
234.254
234.255
239.268
239.269
244.516
244.517
249.998
250
255.711
255.712
261.649
261.651
267.808
267.811
274.18
274.182
280.756
280.759
287.53
287.533
294.495
294.498
301.647
301.651
308.987
308.991
316.518
316.522
324.246
324.25
332.182
332.185
340.337
340.341
348.725
348.73
357.36
357.365
366.252
366.257
375.411
375.416
384.842
384.847
394.549
394.554
404.53
404.535
414.781
414.786
425.293
425.299
436.059
436.065
447.068
447.074
458.317
458.324
469.81
469.816
481.558
481.565
493.591
493.597
505.943
505.95
518.654
518.662
531.762
531.77
545.29
545.298
559.242
559.251
573.59
573.599
588.289
588.298
603.278
603.288
618.497
618.507
633.897
633.906
649.449
649.459
665.156
665.166
681.048
681.057
697.179
697.188
713.616
713.625
730.432
730.442
747.695
747.705
765.458
765.468
783.757
783.767
802.61
802.62
822.018
822.028
841.967
841.978
862.44
862.451
883.419
883.43
904.894
904.906
926.865
926.876
949.344
949.356
972.355
972.367
995.929
995.941
1020.09
1020.11
1044.87
1044.88
1070.25
1070.26
1096.2
1096.22
1122.67
1122.69
1149.58
1149.59
1176.81
1176.82
1204.26
1204.27
1231.82
1231.83
1259.4
1259.4
1286.92
1286.93
1314.35
1314.35
1341.64
1341.64
1368.81
1368.8
1395.85
1395.84
1422.8
1422.78
1449.7
1449.67
1476.61
1476.58
1503.61
1503.57
1530.8
1530.75
1558.31
1558.26
1586.28
1586.23
1614.89
1614.84
1644.28
1644.23
1674.58
1674.52
1705.85
1705.79
1738.05
1737.99
1770.99
1770.92
1804.26
1804.19
1837.26
1837.18
1869.16
1869.07
1898.93
1898.83
1925.47
1925.36
1947.78
1947.65
1965.19
1965.05
1977.6
1977.46
1985.61
1985.47
1990.43
1990.29
1993.59
1993.46
1996.6
1996.47
2000.52
2000.39
2005.88
2005.76
2012.69
2012.57
2020.56
2020.45
2029.12
2029.01
2038.1
2037.99
2047.38
2047.28
2057.02
2056.91
2067.12
2067.02
2077.86
2077.75
2089.41
2089.3
2101.94
2101.84
2115.63
2115.52
2130.6
2130.49
2147.01
2146.9
2164.98
2164.87
2184.63
2184.52
2206.07
2205.97
2229.42
2229.32
2254.8
2254.69
2282.32
2282.21
2312.13
2312.02
2344.38
2344.27
2379.25
2379.14
2416.93
2416.82
2457.65
2457.54
2501.66
2501.55
2549.24
2549.13
2600.71
2600.59
2656.42
2656.31
2716.8
2716.68
2782.32
2782.19
2853.52
2853.39
2931.05
2930.92
3015.67
3015.53
3108.25
3108.12
3209.87
3209.73
3321.8
3321.65
3445.56
3445.41
3583.04
3582.89
3736.55
3736.39
3908.98
3908.81
4103.99
4103.81
4326.27
4326.08
4581.95
4581.75
4879.25
4879.04
5229.38
5229.15
5648.07
5647.83
6158.21
6157.95
6794.28
6794.02
7610.96
7610.68
8700.15
8699.87
10228.6
10228.4
12530.3
12530.1
16363.4
16363.5
23735.4
23736
40781.9
40783.6
88339.9
88342.5
264673
264676
1.52417e+06
1.52417e+06
19.3981
19.3981
19.4175
19.4175
19.2341
19.2341
19.0157
19.0157
18.7948
18.7948
18.5831
18.5831
18.3843
18.3843
18.1997
18.1997
18.0295
18.0295
17.8737
17.8737
17.7318
17.7318
17.6035
17.6035
17.4886
17.4886
17.3866
17.3866
17.2972
17.2972
17.2201
17.2201
17.155
17.155
17.1015
17.1015
17.0593
17.0593
17.0283
17.0283
17.0083
17.0083
16.9991
16.9991
17.0008
17.0008
17.0135
17.0135
17.0373
17.0373
17.0725
17.0725
17.1192
17.1192
17.1777
17.1777
17.2483
17.2483
17.331
17.331
17.426
17.4259
17.5332
17.5332
17.6529
17.6529
17.7851
17.7851
17.93
17.93
18.0881
18.0881
18.2596
18.2596
18.4451
18.4451
18.645
18.645
18.8598
18.8598
19.09
19.09
19.3362
19.3361
19.5988
19.5988
19.8784
19.8784
20.1755
20.1755
20.4907
20.4907
20.8246
20.8246
21.1779
21.1779
21.5513
21.5513
21.9455
21.9454
22.3611
22.3611
22.799
22.799
23.2596
23.2596
23.7432
23.7432
24.2499
24.2499
24.7796
24.7796
25.3322
25.3322
25.9077
25.9076
26.5059
26.5059
27.1273
27.1272
27.7724
27.7723
28.4424
28.4423
29.1385
29.1384
29.8624
29.8623
30.6158
30.6157
31.4007
31.4006
32.2185
32.2184
33.0706
33.0705
33.9579
33.9578
34.8808
34.8807
35.8394
35.8393
36.834
36.8338
37.8648
37.8647
38.9328
38.9326
40.0389
40.0387
41.1844
41.1842
42.3698
42.3695
43.5936
43.5932
44.8522
44.8519
46.1399
46.1395
47.4484
47.448
48.7692
48.7688
50.0952
50.0948
51.4226
51.4222
52.7529
52.7526
54.0933
54.093
55.4554
55.4552
56.8532
56.853
58.2991
58.2989
59.8011
59.8008
61.3592
61.359
62.9625
62.9624
64.5933
64.5933
66.2281
66.2282
67.8418
67.8421
69.4115
69.4118
70.9199
70.9203
72.3578
72.3582
73.7242
73.7246
75.0266
75.0269
76.2795
76.2797
77.5022
77.5023
78.7168
78.7169
79.946
79.946
81.2113
81.2112
82.5314
82.5312
83.9218
83.9215
85.3944
85.394
86.9574
86.9569
88.6165
88.6158
90.3747
90.374
92.2331
92.2322
94.1912
94.1902
96.2476
96.2464
98.3994
98.398
100.643
100.641
102.972
102.97
105.381
105.379
107.86
107.857
110.398
110.395
112.982
112.979
115.596
115.593
118.225
118.221
120.849
120.845
123.45
123.446
126.012
126.008
128.522
128.518
130.972
130.968
133.361
133.357
135.697
135.693
137.998
137.996
140.294
140.292
142.619
142.618
145.012
145.011
147.511
147.511
150.15
150.15
152.952
152.952
155.923
155.923
159.055
159.055
162.323
162.323
165.691
165.692
169.116
169.119
172.557
172.561
175.977
175.981
179.347
179.352
182.653
182.658
185.895
185.901
189.087
189.092
192.252
192.257
195.423
195.428
198.636
198.64
201.926
201.93
205.329
205.332
208.874
208.877
212.588
212.59
216.491
216.492
220.599
220.6
224.924
224.925
229.474
229.474
234.255
234.254
239.269
239.268
244.517
244.516
249.999
249.998
255.712
255.711
261.651
261.649
267.811
267.808
274.182
274.18
280.759
280.756
287.533
287.53
294.498
294.495
301.651
301.648
308.991
308.988
316.522
316.518
324.25
324.246
332.186
332.182
340.341
340.337
348.73
348.726
357.365
357.36
366.257
366.253
375.416
375.411
384.847
384.842
394.554
394.549
404.536
404.53
414.787
414.781
425.3
425.294
436.065
436.059
447.075
447.069
458.324
458.318
469.817
469.81
481.566
481.559
493.598
493.591
505.95
505.943
518.663
518.655
531.771
531.763
545.299
545.291
559.252
559.243
573.6
573.591
588.299
588.29
603.289
603.28
618.508
618.499
633.907
633.898
649.46
649.451
665.167
665.158
681.059
681.05
697.19
697.18
713.627
713.618
730.443
730.434
747.707
747.697
765.47
765.46
783.769
783.759
802.622
802.612
822.03
822.02
841.98
841.969
862.453
862.442
883.433
883.421
904.908
904.897
926.879
926.867
949.358
949.346
972.37
972.358
995.944
995.932
1020.11
1020.1
1044.88
1044.87
1070.26
1070.25
1096.22
1096.21
1122.69
1122.68
1149.59
1149.58
1176.82
1176.81
1204.27
1204.26
1231.83
1231.82
1259.41
1259.4
1286.93
1286.93
1314.35
1314.35
1341.65
1341.65
1368.8
1368.81
1395.84
1395.85
1422.78
1422.8
1449.68
1449.7
1476.58
1476.61
1503.57
1503.61
1530.76
1530.8
1558.27
1558.31
1586.24
1586.29
1614.84
1614.9
1644.23
1644.29
1674.53
1674.59
1705.8
1705.85
1738
1738.06
1770.93
1770.99
1804.2
1804.26
1837.19
1837.27
1869.08
1869.16
1898.84
1898.94
1925.37
1925.48
1947.66
1947.78
1965.06
1965.19
1977.47
1977.61
1985.48
1985.62
1990.3
1990.44
1993.46
1993.6
1996.47
1996.61
2000.4
2000.53
2005.77
2005.89
2012.58
2012.7
2020.46
2020.57
2029.02
2029.13
2038
2038.11
2047.28
2047.39
2056.92
2057.03
2067.02
2067.13
2077.76
2077.87
2089.31
2089.42
2101.85
2101.95
2115.53
2115.63
2130.5
2130.61
2146.91
2147.02
2164.88
2164.99
2184.53
2184.64
2205.98
2206.08
2229.33
2229.43
2254.7
2254.81
2282.22
2282.33
2312.03
2312.14
2344.28
2344.39
2379.15
2379.26
2416.83
2416.94
2457.55
2457.66
2501.56
2501.67
2549.14
2549.25
2600.6
2600.72
2656.31
2656.43
2716.69
2716.81
2782.2
2782.33
2853.4
2853.53
2930.93
2931.06
3015.54
3015.68
3108.13
3108.26
3209.74
3209.89
3321.66
3321.81
3445.42
3445.58
3582.9
3583.06
3736.4
3736.57
3908.82
3909
4103.82
4104
4326.09
4326.28
4581.77
4581.97
4879.06
4879.27
5229.17
5229.39
5647.85
5648.09
6157.97
6158.22
6794.03
6794.3
7610.7
7610.98
8699.89
8700.18
10228.4
10228.7
12530.1
12530.3
16363.5
16363.5
23736
23735.4
40783.6
40781.9
88342.6
88339.9
264676
264673
1.52417e+06
1.52417e+06
)
;

boundaryField
{
    walls
    {
        blending        binomial2;
        n               2;
        beta1           0.075;
        type            omegaWallFunction;
        value           nonuniform List<scalar> 8(1.52416e+06 1.52416e+06 1.52416e+06 1.52416e+06 1.52417e+06 1.52417e+06 1.52417e+06 1.52417e+06);
    }
    inlet
    {
        type            cyclic;
    }
    outlet
    {
        type            cyclic;
    }
    sides
    {
        type            empty;
    }
}


// ************************************************************************* //
