/*--------------------------------*- C++ -*----------------------------------*\
| =========                 |                                                 |
| \\      /  F ield         | OpenFOAM: The Open Source CFD Toolbox           |
|  \\    /   O peration     | Version:  2012                                  |
|   \\  /    A nd           | Website:  www.openfoam.com                      |
|    \\/     M anipulation  |                                                 |
\*---------------------------------------------------------------------------*/
FoamFile
{
    version     2.0;
    format      ascii;
    class       surfaceScalarField;
    location    "10700";
    object      phi;
}
// * * * * * * * * * * * * * * * * * * * * * * * * * * * * * * * * * * * * * //

dimensions      [0 3 -1 0 0 0 0];
oriented        oriented;


internalField   nonuniform List<scalar> 
5116
(
1.70527e-07
-1.72822e-08
5.79346e-09
1.73176e-08
-5.76949e-09
5.1075e-07
-4.35675e-08
8.78224e-09
4.35733e-08
-8.74591e-09
8.59949e-07
-6.60705e-08
7.51766e-09
6.60473e-08
-7.48656e-09
1.22123e-06
-8.02547e-08
4.73765e-09
8.02123e-08
-4.71805e-09
1.59718e-06
-8.81494e-08
2.63758e-09
8.80973e-08
-2.62667e-09
1.98856e-06
-9.28957e-08
1.58635e-09
9.28425e-08
-1.57979e-09
2.39494e-06
-9.60978e-08
1.07009e-09
9.60482e-08
-1.06566e-09
2.81584e-06
-9.84627e-08
7.90409e-10
9.84172e-08
-7.87139e-10
3.2509e-06
-1.00326e-07
6.22624e-10
1.0028e-07
-6.20049e-10
3.70032e-06
-1.01864e-07
5.13459e-10
1.01817e-07
-5.11335e-10
4.16493e-06
-1.03175e-07
4.3793e-10
1.03126e-07
-4.36118e-10
4.64515e-06
-1.0432e-07
3.83171e-10
1.04268e-07
-3.81586e-10
5.14148e-06
-1.05342e-07
3.42009e-10
1.05302e-07
-3.40594e-10
5.65466e-06
-1.06271e-07
3.09987e-10
1.06228e-07
-3.08704e-10
6.18483e-06
-1.07127e-07
2.85027e-10
1.0712e-07
-2.83848e-10
6.73135e-06
-1.07919e-07
2.64395e-10
1.07974e-07
-2.63299e-10
7.29305e-06
-1.08663e-07
2.48252e-10
1.08737e-07
-2.47226e-10
7.86867e-06
-1.09365e-07
2.34483e-10
1.09393e-07
-2.33513e-10
8.45813e-06
-1.10033e-07
2.23195e-10
1.10045e-07
-2.22273e-10
9.06346e-06
-1.10672e-07
2.13502e-10
1.10653e-07
-2.1262e-10
9.68756e-06
-1.11287e-07
2.05518e-10
1.11254e-07
-2.04669e-10
1.03323e-05
-1.11881e-07
1.98535e-10
1.11837e-07
-1.97715e-10
1.09982e-05
-1.12458e-07
1.9281e-10
1.12409e-07
-1.92014e-10
1.16848e-05
-1.13019e-07
1.87216e-10
1.12963e-07
-1.86441e-10
1.23919e-05
-1.13568e-07
1.83659e-10
1.13517e-07
-1.82902e-10
1.31195e-05
-1.14106e-07
1.79532e-10
1.13998e-07
-1.7879e-10
1.38672e-05
-1.14636e-07
1.77163e-10
1.14529e-07
-1.76433e-10
1.46344e-05
-1.15159e-07
1.74477e-10
1.15058e-07
-1.73758e-10
1.54202e-05
-1.15675e-07
1.72698e-10
1.15573e-07
-1.71987e-10
1.62235e-05
-1.16187e-07
1.70846e-10
1.16088e-07
-1.70142e-10
1.70438e-05
-1.16695e-07
1.6985e-10
1.16598e-07
-1.69153e-10
1.78828e-05
-1.172e-07
1.68697e-10
1.17112e-07
-1.68003e-10
1.87446e-05
-1.17704e-07
1.68341e-10
1.1762e-07
-1.6765e-10
1.96357e-05
-1.18206e-07
1.67788e-10
1.18154e-07
-1.67099e-10
2.05638e-05
-1.18709e-07
1.67972e-10
1.18665e-07
-1.67284e-10
2.15363e-05
-1.19209e-07
1.67115e-10
1.19166e-07
-1.66427e-10
2.25587e-05
-1.19714e-07
1.68641e-10
1.197e-07
-1.67952e-10
2.36341e-05
-1.20209e-07
1.65241e-10
1.20159e-07
-1.6455e-10
2.47634e-05
-1.20718e-07
1.70374e-10
1.20716e-07
-1.69679e-10
2.59463e-05
-1.21216e-07
1.66119e-10
1.21161e-07
-1.65421e-10
2.7183e-05
-1.21734e-07
1.73174e-10
1.21722e-07
-1.72471e-10
2.84768e-05
-1.22245e-07
1.70408e-10
1.22189e-07
-1.69699e-10
2.9838e-05
-1.22773e-07
1.76972e-10
1.22745e-07
-1.76257e-10
3.12862e-05
-1.23305e-07
1.77121e-10
1.23258e-07
-1.76399e-10
3.2851e-05
-1.23847e-07
1.81661e-10
1.23807e-07
-1.80932e-10
3.45701e-05
-1.24397e-07
1.8332e-10
1.24365e-07
-1.82582e-10
3.64845e-05
-1.24956e-07
1.87207e-10
1.24933e-07
-1.86459e-10
3.86343e-05
-1.25523e-07
1.88896e-10
1.25518e-07
-1.88138e-10
4.10558e-05
-1.26101e-07
1.93657e-10
1.26162e-07
-1.92888e-10
4.37806e-05
-1.26645e-07
1.81071e-10
1.26634e-07
-1.8029e-10
4.68373e-05
-1.27247e-07
2.01532e-10
1.27414e-07
-2.00738e-10
5.02486e-05
-1.27854e-07
2.02479e-10
1.27829e-07
-2.01672e-10
5.40229e-05
-1.28483e-07
2.10592e-10
1.28586e-07
-2.0977e-10
5.81371e-05
-1.29122e-07
2.12995e-10
1.29217e-07
-2.12158e-10
6.25129e-05
-1.29783e-07
2.20938e-10
1.2988e-07
-2.20083e-10
6.69885e-05
-1.30448e-07
2.22015e-10
1.3052e-07
-2.21143e-10
7.12989e-05
-1.31144e-07
2.32694e-10
1.31207e-07
-2.31803e-10
7.50729e-05
-1.31838e-07
2.31342e-10
1.31862e-07
-2.3043e-10
7.78595e-05
-1.32574e-07
2.45858e-10
1.32582e-07
-2.44926e-10
7.91849e-05
-1.333e-07
2.42579e-10
1.33269e-07
-2.41625e-10
7.86333e-05
-1.3408e-07
2.60353e-10
1.34029e-07
-2.59377e-10
7.59313e-05
-1.34853e-07
2.58186e-10
1.34749e-07
-2.57187e-10
7.10145e-05
-1.35682e-07
2.76569e-10
1.35546e-07
-2.75545e-10
6.40549e-05
-1.36517e-07
2.79437e-10
1.36377e-07
-2.78386e-10
5.54399e-05
-1.37404e-07
2.95691e-10
1.37177e-07
-2.9461e-10
4.57091e-05
-1.38316e-07
3.04937e-10
1.38015e-07
-3.03822e-10
3.54704e-05
-1.39238e-07
3.07169e-10
1.38857e-07
-3.06015e-10
2.53147e-05
-1.40203e-07
3.23053e-10
1.39759e-07
-3.21858e-10
1.57489e-05
-1.41179e-07
3.25208e-10
1.40576e-07
-3.23966e-10
7.15877e-06
-1.42211e-07
3.45454e-10
1.4157e-07
-3.44161e-10
-1.99662e-07
-1.4326e-07
3.49492e-10
1.42568e-07
-3.48146e-10
-6.18685e-06
-1.4437e-07
3.71473e-10
1.44645e-07
-3.70069e-10
-1.07554e-05
-1.44368e-07
-3.59952e-13
1.44009e-07
1.82228e-12
-1.3922e-05
-1.44376e-07
3.8784e-12
1.44141e-07
-2.3527e-12
-1.57476e-05
-1.44374e-07
-2.53348e-13
1.44213e-07
1.84503e-12
-1.63194e-05
-1.44379e-07
3.19465e-12
1.44231e-07
-1.53446e-12
-1.57423e-05
-1.44377e-07
-1.88803e-13
1.44241e-07
1.91994e-12
-1.41323e-05
-1.4438e-07
2.29919e-12
1.44215e-07
-4.945e-13
-1.16123e-05
-1.44378e-07
-1.59117e-13
1.44204e-07
2.04005e-12
-8.30657e-06
-1.44378e-07
1.45324e-12
1.44186e-07
5.07021e-13
-4.33606e-06
-1.44375e-07
-1.53954e-13
1.44179e-07
2.19684e-12
1.8659e-07
-1.44373e-07
7.03446e-13
1.44183e-07
1.42573e-12
5.16212e-06
-1.4437e-07
-1.61879e-13
1.44186e-07
2.38121e-12
1.05075e-05
-1.44366e-07
1.33423e-13
1.44207e-07
2.18039e-12
1.61554e-05
-1.44362e-07
-1.71331e-13
1.44221e-07
2.58421e-12
2.20517e-05
-1.44356e-07
-3.21115e-13
1.44225e-07
2.83819e-12
2.81498e-05
-1.44352e-07
-1.98321e-13
1.44218e-07
2.82499e-12
3.44039e-05
-1.44347e-07
-1.08699e-13
1.44219e-07
2.85076e-12
4.07621e-05
-1.44342e-07
-2.02386e-13
1.44216e-07
3.06606e-12
4.71605e-05
-1.44336e-07
-1.20177e-13
1.44212e-07
3.11206e-12
5.35189e-05
-1.44331e-07
-2.04813e-13
1.44206e-07
3.33196e-12
5.974e-05
-1.44325e-07
-1.29168e-13
1.44199e-07
3.39892e-12
6.57117e-05
-1.44319e-07
-2.05157e-13
1.44192e-07
3.62519e-12
7.13131e-05
-1.44313e-07
-1.35172e-13
1.44184e-07
3.71347e-12
7.64234e-05
-1.44306e-07
-2.0285e-13
1.44175e-07
3.94749e-12
8.09315e-05
-1.44299e-07
-1.37706e-13
1.44165e-07
4.05709e-12
8.47469e-05
-1.44292e-07
-1.97372e-13
1.44155e-07
4.29972e-12
8.78093e-05
-1.44285e-07
-1.36409e-13
1.44144e-07
4.43045e-12
9.00949e-05
-1.44277e-07
-1.8842e-13
1.44133e-07
4.68246e-12
9.16196e-05
-1.44269e-07
-1.31129e-13
1.4412e-07
4.83438e-12
9.24386e-05
-1.44261e-07
-1.75941e-13
1.44107e-07
5.09695e-12
9.26427e-05
-1.44252e-07
-1.21921e-13
1.44093e-07
5.2708e-12
9.23521e-05
-1.44243e-07
-1.60045e-13
1.44079e-07
5.54585e-12
9.17091e-05
-1.44233e-07
-1.08897e-13
1.44063e-07
5.74302e-12
9.08689e-05
-1.44223e-07
-1.408e-13
1.44047e-07
6.0328e-12
8.99931e-05
-1.44213e-07
-9.20144e-14
1.44029e-07
6.25476e-12
8.92429e-05
-1.44202e-07
-1.17999e-13
1.44012e-07
6.56124e-12
8.87735e-05
-1.44191e-07
-7.08648e-14
1.43993e-07
6.80899e-12
8.87301e-05
-1.44179e-07
-9.0955e-14
1.43974e-07
7.13336e-12
8.92446e-05
-1.44167e-07
-4.44957e-14
1.43953e-07
7.40713e-12
9.0431e-05
-1.44155e-07
-5.8367e-14
1.43932e-07
7.74974e-12
9.23823e-05
-1.44141e-07
-1.12778e-14
1.4391e-07
8.04944e-12
9.51646e-05
-1.44128e-07
-1.81792e-14
1.43887e-07
8.41055e-12
9.88123e-05
-1.44113e-07
3.12225e-14
1.43863e-07
8.7367e-12
0.000103322
-1.44099e-07
3.24791e-14
1.43838e-07
9.11744e-12
0.000108649
-1.44083e-07
8.62995e-14
1.43812e-07
9.47226e-12
0.0001147
-1.44067e-07
9.73477e-14
1.43785e-07
9.87551e-12
0.000121338
-1.44051e-07
1.58119e-13
1.43757e-07
1.02631e-11
0.000128384
-1.44033e-07
1.80922e-13
1.43728e-07
1.06928e-11
0.00013562
-1.44015e-07
2.51457e-13
1.43698e-07
1.11179e-11
0.000142806
-1.43997e-07
2.88084e-13
1.43666e-07
1.15773e-11
0.000149694
-1.43977e-07
3.71177e-13
1.43633e-07
1.20437e-11
0.00015604
-1.43957e-07
4.23407e-13
1.436e-07
1.25332e-11
0.000161632
-1.43937e-07
5.21418e-13
1.43564e-07
1.30418e-11
0.000166296
-1.43915e-07
5.90347e-13
1.43528e-07
1.35587e-11
0.000169922
-1.43893e-07
7.04912e-13
1.43489e-07
1.41092e-11
0.000172461
-1.4387e-07
7.90792e-13
1.4345e-07
1.465e-11
0.000173936
-1.43846e-07
9.22904e-13
1.43409e-07
1.52443e-11
0.000174432
-1.43821e-07
1.0254e-12
1.43366e-07
1.58076e-11
0.000174091
-1.43796e-07
1.17597e-12
1.43322e-07
1.64527e-11
0.000173089
-1.43769e-07
1.29473e-12
1.43276e-07
1.70401e-11
0.000171622
-1.43742e-07
1.46511e-12
1.43229e-07
1.77468e-11
0.000169885
-1.43714e-07
1.60008e-12
1.43179e-07
1.83594e-11
0.000168052
-1.43685e-07
1.7925e-12
1.43128e-07
1.91397e-11
0.000166266
-1.43655e-07
1.94402e-12
1.43075e-07
1.97747e-11
0.000164623
-1.43623e-07
2.16128e-12
1.4302e-07
2.06398e-11
0.000163175
-1.43591e-07
2.33003e-12
1.42963e-07
2.1288e-11
0.000161927
-1.43558e-07
2.57547e-12
1.42904e-07
2.22497e-11
0.000160843
-1.43524e-07
2.7623e-12
1.42842e-07
2.28959e-11
0.00015986
-1.43489e-07
3.03928e-12
1.42779e-07
2.39691e-11
0.000158895
-1.43452e-07
3.24486e-12
1.42713e-07
2.45925e-11
0.000157861
-1.43415e-07
3.55654e-12
1.42645e-07
2.57982e-11
0.000156674
-1.43376e-07
3.7811e-12
1.42574e-07
2.63721e-11
0.000155268
-1.43336e-07
4.13027e-12
1.42502e-07
2.77405e-11
0.000153596
-1.43295e-07
4.37385e-12
1.42426e-07
2.82317e-11
0.000151641
-1.43252e-07
4.76268e-12
1.42349e-07
2.9805e-11
0.00014941
-1.43209e-07
5.02552e-12
1.42268e-07
3.01721e-11
0.000146938
-1.43163e-07
5.45534e-12
1.42186e-07
3.20037e-11
0.000144278
-1.43117e-07
5.7385e-12
1.421e-07
3.21987e-11
0.000141502
-1.43069e-07
6.20955e-12
1.42012e-07
3.43462e-11
0.000138686
-1.4302e-07
6.51532e-12
1.4192e-07
3.43195e-11
0.000135912
-1.42969e-07
7.0262e-12
1.41827e-07
3.68288e-11
0.000133253
-1.42917e-07
7.35882e-12
1.41729e-07
3.65475e-11
0.000130771
-1.42864e-07
7.90575e-12
1.41629e-07
3.94264e-11
0.000128515
-1.42809e-07
8.27172e-12
1.41526e-07
3.89164e-11
0.000126512
-1.42752e-07
8.84903e-12
1.4142e-07
4.20884e-11
0.000124768
-1.42694e-07
9.2552e-12
1.41309e-07
4.22354e-11
0.000123268
-1.42634e-07
9.86169e-12
1.41196e-07
4.47394e-11
0.00012197
-1.42573e-07
1.03031e-11
1.41078e-07
4.57899e-11
0.000120814
-1.42509e-07
1.09493e-11
1.40958e-07
4.73721e-11
0.000119713
-1.42445e-07
1.15287e-11
1.40832e-07
4.87759e-11
0.000118564
-1.42379e-07
1.20644e-11
1.40705e-07
5.00362e-11
0.000117243
-1.42312e-07
1.27216e-11
1.40573e-07
5.18347e-11
0.00011561
-1.42242e-07
1.32785e-11
1.40439e-07
5.27082e-11
0.000113518
-1.42172e-07
1.39918e-11
1.40298e-07
5.50242e-11
0.000110812
-1.42099e-07
1.45456e-11
1.40157e-07
5.53831e-11
0.000107343
-1.42025e-07
1.53313e-11
1.40009e-07
5.83293e-11
0.000102973
-1.41949e-07
1.58705e-11
1.3986e-07
5.81896e-11
9.75873e-05
-1.41872e-07
1.6729e-11
1.39704e-07
6.16896e-11
9.11035e-05
-1.41792e-07
1.72548e-11
1.39548e-07
6.12377e-11
8.34831e-05
-1.41712e-07
1.81794e-11
1.39384e-07
6.51818e-11
7.47404e-05
-1.41628e-07
1.87016e-11
1.39219e-07
6.46401e-11
6.49509e-05
-1.41544e-07
1.96817e-11
1.39045e-07
6.89127e-11
5.4255e-05
-1.41456e-07
2.02163e-11
1.3887e-07
6.85069e-11
4.28601e-05
-1.41366e-07
2.1237e-11
1.38687e-07
7.30604e-11
3.1037e-05
-1.41274e-07
2.18011e-11
1.38501e-07
7.29625e-11
1.9114e-05
-1.41178e-07
2.28423e-11
1.38305e-07
7.7761e-11
7.4645e-06
-1.41079e-07
2.34485e-11
1.38106e-07
7.80682e-11
-3.50952e-06
-1.40978e-07
2.44821e-11
1.37897e-07
8.30766e-11
-1.33939e-05
-1.40872e-07
2.5172e-11
1.37683e-07
8.37525e-11
-2.17878e-05
-1.40763e-07
2.62985e-11
1.37459e-07
8.87846e-11
-2.83264e-05
-1.4065e-07
2.71271e-11
1.3723e-07
8.97259e-11
-3.26987e-05
-1.40534e-07
2.83266e-11
1.36992e-07
9.47118e-11
-3.46712e-05
-1.40414e-07
2.92529e-11
1.36748e-07
9.58752e-11
-3.41e-05
-1.40291e-07
3.0487e-11
1.36494e-07
1.00783e-10
-3.09367e-05
-1.40164e-07
3.14114e-11
1.36233e-07
1.02168e-10
-2.52349e-05
-1.40034e-07
3.27085e-11
1.35963e-07
1.07052e-10
-1.71417e-05
-1.39899e-07
3.36051e-11
1.35686e-07
1.08731e-10
-6.88762e-06
-1.3976e-07
3.49509e-11
1.354e-07
1.13737e-10
5.23293e-06
-1.39617e-07
3.58756e-11
1.35105e-07
1.15834e-10
1.88865e-05
-1.3947e-07
3.72774e-11
1.34799e-07
1.21047e-10
3.37132e-05
-1.39318e-07
3.84575e-11
1.34485e-07
1.2347e-10
4.93498e-05
-1.39161e-07
4.01108e-11
1.3416e-07
1.28882e-10
6.545e-05
-1.39e-07
4.16123e-11
1.33825e-07
1.31692e-10
8.16924e-05
-1.38834e-07
4.35946e-11
1.33478e-07
1.37345e-10
9.77966e-05
-1.38663e-07
4.54638e-11
1.33121e-07
1.40552e-10
0.000113525
-1.38488e-07
4.78342e-11
1.32752e-07
1.46443e-10
0.000128683
-1.38309e-07
5.01008e-11
1.32372e-07
1.50014e-10
0.000143123
-1.38124e-07
5.28995e-11
1.31979e-07
1.56101e-10
0.000156739
-1.37936e-07
5.55791e-11
1.31574e-07
1.59972e-10
0.000169462
-1.37743e-07
5.88301e-11
1.31156e-07
1.66186e-10
0.000181257
-1.37545e-07
6.19268e-11
1.30726e-07
1.70277e-10
0.000192115
-1.37345e-07
6.56413e-11
1.30283e-07
1.7654e-10
0.000202043
-1.3714e-07
6.91505e-11
1.29827e-07
1.8076e-10
0.000211059
-1.36932e-07
7.33299e-11
1.29359e-07
1.86993e-10
0.000219178
-1.36721e-07
7.72406e-11
1.28878e-07
1.91259e-10
0.000226405
-1.36507e-07
8.18792e-11
1.28385e-07
1.97392e-10
0.000232724
-1.36291e-07
8.61742e-11
1.2788e-07
2.01626e-10
0.000238086
-1.36072e-07
9.12606e-11
1.27363e-07
2.07606e-10
0.000242405
-1.35852e-07
9.59157e-11
1.26834e-07
2.1175e-10
0.000245553
-1.35631e-07
1.01432e-10
1.26294e-07
2.17552e-10
0.000247361
-1.35408e-07
1.06415e-10
1.25742e-07
2.21578e-10
0.000247627
-1.35186e-07
1.12339e-10
1.25179e-07
2.27225e-10
0.000246128
-1.34962e-07
1.17613e-10
1.24606e-07
2.31167e-10
0.000242639
-1.34739e-07
1.23927e-10
1.24021e-07
2.36765e-10
0.00023695
-1.34514e-07
1.29464e-10
1.23426e-07
2.40748e-10
0.000228895
-1.34291e-07
1.36171e-10
1.2282e-07
2.46519e-10
0.000218375
-1.34067e-07
1.41965e-10
1.22202e-07
2.50788e-10
0.00020538
-1.33843e-07
1.49111e-10
1.21571e-07
2.57084e-10
0.00019001
-1.33617e-07
1.55193e-10
1.20927e-07
2.61997e-10
0.000172488
-1.33391e-07
1.62868e-10
1.20268e-07
2.69274e-10
0.00015317
-1.33162e-07
1.69298e-10
1.19594e-07
2.75245e-10
0.000132541
-1.3293e-07
1.77619e-10
1.189e-07
2.83985e-10
0.000111212
-1.32694e-07
1.8444e-10
1.18188e-07
2.91379e-10
8.99001e-05
-1.32454e-07
1.93503e-10
1.17451e-07
3.01966e-10
6.94e-05
-1.32207e-07
2.00689e-10
1.16692e-07
3.10962e-10
5.05482e-05
-1.31954e-07
2.1052e-10
1.15904e-07
3.23548e-10
3.41748e-05
-1.31691e-07
2.17936e-10
1.15088e-07
3.34014e-10
2.10379e-05
-1.31421e-07
2.28483e-10
1.1424e-07
3.48435e-10
1.17765e-05
-1.31139e-07
2.35919e-10
1.13362e-07
3.59904e-10
6.84273e-06
-1.30848e-07
2.4715e-10
1.12448e-07
3.75746e-10
6.45902e-06
-1.30545e-07
2.54473e-10
1.11502e-07
3.87584e-10
1.05875e-05
-1.30233e-07
2.66562e-10
1.10518e-07
4.04452e-10
1.89107e-05
-1.29908e-07
2.73892e-10
1.09502e-07
4.16178e-10
3.08673e-05
-1.29575e-07
2.87345e-10
1.08448e-07
4.33978e-10
4.56891e-05
-1.29229e-07
2.9504e-10
1.0736e-07
4.45382e-10
6.24618e-05
-1.28877e-07
3.1056e-10
1.06233e-07
4.64294e-10
8.01939e-05
-1.28512e-07
3.18974e-10
1.05073e-07
4.75259e-10
9.78986e-05
-1.28144e-07
3.37193e-10
1.03872e-07
4.95497e-10
0.00011467
-1.27763e-07
3.46389e-10
1.02639e-07
5.05736e-10
0.000129741
-1.27383e-07
3.6766e-10
1.01362e-07
5.27376e-10
0.000142546
-1.2699e-07
3.77296e-10
1.00056e-07
5.3636e-10
0.000152743
-1.26601e-07
4.01694e-10
9.87045e-08
5.59398e-10
0.000160224
-1.262e-07
4.11115e-10
9.73258e-08
5.66512e-10
0.000165105
-1.25806e-07
4.38612e-10
9.59016e-08
5.91069e-10
0.000167704
-1.254e-07
4.4704e-10
9.44528e-08
5.95772e-10
0.000168491
-1.25005e-07
4.77694e-10
9.29575e-08
6.22194e-10
0.000168038
-1.24598e-07
4.84364e-10
9.1441e-08
6.24013e-10
0.000166958
-1.24205e-07
5.18417e-10
8.98761e-08
6.52793e-10
0.000165846
-1.23797e-07
5.22587e-10
8.82942e-08
6.51152e-10
0.000165247
-1.23408e-07
5.60466e-10
8.66618e-08
6.82771e-10
0.00016562
-1.23002e-07
5.61396e-10
8.50175e-08
6.76862e-10
0.000167302
-1.22621e-07
6.03727e-10
8.33203e-08
7.11757e-10
0.000170505
-1.2222e-07
6.00692e-10
8.16179e-08
7.00559e-10
0.000175332
-1.21851e-07
6.48343e-10
7.98602e-08
7.39216e-10
0.000181789
-1.21458e-07
6.40649e-10
7.81054e-08
7.21592e-10
0.000189789
-1.21106e-07
6.94755e-10
7.62928e-08
7.64652e-10
0.000199178
-1.20727e-07
6.81704e-10
7.44926e-08
7.39395e-10
0.000209746
-1.20398e-07
7.43636e-10
7.26314e-08
7.8771e-10
0.000221261
-1.20038e-07
7.24424e-10
7.07937e-08
7.53518e-10
0.00023346
-1.1974e-07
7.95724e-10
6.88909e-08
8.08149e-10
0.000246059
-1.19406e-07
7.69333e-10
6.70244e-08
7.63578e-10
0.000258768
-1.19147e-07
8.51654e-10
6.50874e-08
8.25791e-10
0.000271272
-1.18846e-07
8.16765e-10
6.32011e-08
7.6922e-10
0.000283282
-1.18636e-07
9.11843e-10
6.12375e-08
8.4051e-10
0.000294524
-1.18376e-07
8.66792e-10
5.93407e-08
7.70159e-10
0.000304743
-1.18223e-07
9.76457e-10
5.73582e-08
8.52303e-10
0.000313757
-1.1801e-07
9.19246e-10
5.54603e-08
7.66261e-10
0.000321481
-1.17923e-07
1.0455e-09
5.34656e-08
8.61386e-10
0.000327913
-1.17764e-07
9.73843e-10
5.15753e-08
7.57614e-10
0.00033314
-1.1775e-07
1.11896e-09
4.95743e-08
8.68214e-10
0.000337334
-1.17649e-07
1.03035e-09
4.76991e-08
7.44482e-10
0.000340742
-1.17718e-07
1.19701e-09
4.56962e-08
8.73385e-10
0.00034364
-1.17679e-07
1.08871e-09
4.38427e-08
7.2712e-10
0.000346281
-1.17836e-07
1.28009e-09
4.1841e-08
8.7744e-10
0.00034888
-1.17864e-07
1.14907e-09
4.00152e-08
7.05598e-10
0.000351577
-1.18116e-07
1.36888e-09
3.8017e-08
8.80732e-10
0.000354396
-1.18214e-07
1.21181e-09
3.62247e-08
6.79741e-10
0.000357296
-1.18569e-07
1.4643e-09
3.42323e-08
8.8345e-10
0.000360155
-1.18742e-07
1.27737e-09
3.24795e-08
6.49213e-10
0.000362787
-1.19209e-07
1.56739e-09
3.04943e-08
8.85745e-10
0.000365024
-1.19461e-07
1.3462e-09
2.87873e-08
6.13643e-10
0.000366727
-1.2005e-07
1.67921e-09
2.68108e-08
8.87865e-10
0.000367817
-1.20385e-07
1.41865e-09
2.51558e-08
5.72715e-10
0.000368314
-1.21106e-07
1.80078e-09
2.31883e-08
8.90178e-10
0.000368333
-1.21528e-07
1.49497e-09
2.15915e-08
5.2611e-10
0.00036809
-1.22393e-07
1.93321e-09
1.96332e-08
8.93071e-10
0.00036787
-1.22906e-07
1.57543e-09
1.81013e-08
4.73348e-10
0.000368035
-1.23926e-07
2.0778e-09
1.61514e-08
8.96731e-10
0.000368976
-1.24537e-07
1.66049e-09
1.46915e-08
4.13559e-10
0.000371031
-1.25726e-07
2.2363e-09
1.27505e-08
9.00918e-10
0.000374516
-1.2644e-07
1.75102e-09
1.13727e-08
3.45286e-10
0.000379701
-1.27817e-07
2.41107e-09
9.44203e-09
9.04831e-10
0.000386739
-1.28643e-07
1.84846e-09
8.15844e-09
2.6641e-10
0.000395669
-1.3023e-07
2.60536e-09
6.24266e-09
9.07074e-10
0.000406443
-1.31181e-07
1.95491e-09
5.07086e-09
1.74146e-10
0.000418928
-1.33005e-07
2.82331e-09
3.1779e-09
9.0574e-10
0.000432906
-1.341e-07
2.07296e-09
2.13937e-09
6.51441e-11
0.000448098
-1.36196e-07
3.06981e-09
2.80016e-10
8.98478e-10
0.000464195
-1.37456e-07
2.20549e-09
-5.97551e-10
-6.43949e-11
0.000480843
-1.39868e-07
3.35032e-09
-2.40699e-09
8.8258e-10
0.000497704
-1.41321e-07
2.35541e-09
-3.09071e-09
-2.18558e-10
0.000514486
-1.44102e-07
3.67067e-09
-4.83332e-09
8.55042e-10
0.000530911
-1.45784e-07
2.52543e-09
-5.28647e-09
-4.01597e-10
0.000546775
-1.48998e-07
4.03711e-09
-6.94194e-09
8.12535e-10
0.000562005
-1.5095e-07
2.71819e-09
-7.1213e-09
-6.17889e-10
0.000576613
-1.54671e-07
4.45667e-09
-8.66295e-09
7.51276e-10
0.000590734
-1.56937e-07
2.93639e-09
-8.51528e-09
-8.72074e-10
0.000604638
-1.6124e-07
4.93774e-09
-9.90276e-09
6.66506e-10
0.000618726
-1.63866e-07
3.18326e-09
-9.35968e-09
-1.16951e-09
0.000633567
-1.68833e-07
5.49122e-09
-1.0533e-08
5.51474e-10
0.000649936
-1.71868e-07
3.46336e-09
-9.50747e-09
-1.51706e-09
0.000668958
-1.77597e-07
6.13149e-09
-1.03832e-08
3.95513e-10
0.0006922
-1.53738e-07
-2.35718e-08
-8.76744e-09
-1.92482e-09
0.000722081
-1.31508e-07
-2.19598e-08
-9.00251e-09
-4.9815e-11
0.000762774
-1.0634e-07
-2.49939e-08
-7.08462e-09
-2.05667e-09
0.000821783
-8.21721e-08
-2.4005e-08
-6.65632e-09
-5.356e-10
0.000911822
-5.53934e-08
-2.66917e-08
-4.58867e-09
-2.06859e-09
0.00105517
-2.8628e-08
-2.66864e-08
-3.45544e-09
-1.10584e-09
0.00135531
-2.90319e-08
4.36905e-10
-1.85805e-09
-1.52225e-09
1.58964e-07
1.73715e-08
-1.73478e-08
4.93221e-07
4.37107e-08
-4.36458e-08
8.44942e-07
6.6256e-08
-6.61586e-08
1.21177e-06
8.04665e-08
-8.03479e-08
1.59191e-06
8.83762e-08
-8.82465e-08
1.98539e-06
9.31369e-08
-9.29961e-08
2.3928e-06
9.63529e-08
-9.62006e-08
2.81426e-06
9.87297e-08
-9.8568e-08
3.24965e-06
1.00597e-07
-1.00433e-07
3.69929e-06
1.02139e-07
-1.01969e-07
4.16405e-06
1.03455e-07
-1.03281e-07
4.64438e-06
1.046e-07
-1.04429e-07
5.14078e-06
1.05638e-07
-1.05453e-07
5.65403e-06
1.06569e-07
-1.06382e-07
6.18425e-06
1.07466e-07
-1.07235e-07
6.73081e-06
1.08329e-07
-1.08026e-07
7.29254e-06
1.09097e-07
-1.0877e-07
7.86819e-06
1.09755e-07
-1.09472e-07
8.45767e-06
1.10408e-07
-1.1014e-07
9.06302e-06
1.11015e-07
-1.1078e-07
9.68714e-06
1.11615e-07
-1.11395e-07
1.03319e-05
1.12196e-07
-1.11989e-07
1.09978e-05
1.12768e-07
-1.12567e-07
1.16844e-05
1.13324e-07
-1.13127e-07
1.23916e-05
1.13879e-07
-1.13677e-07
1.31191e-05
1.14357e-07
-1.14215e-07
1.38668e-05
1.14889e-07
-1.14745e-07
1.46341e-05
1.1542e-07
-1.15268e-07
1.54199e-05
1.15937e-07
-1.15785e-07
1.62231e-05
1.16455e-07
-1.16297e-07
1.70435e-05
1.16968e-07
-1.16805e-07
1.78824e-05
1.17485e-07
-1.1731e-07
1.87442e-05
1.17995e-07
-1.17814e-07
1.96353e-05
1.18531e-07
-1.18317e-07
2.05635e-05
1.19044e-07
-1.18819e-07
2.1536e-05
1.19546e-07
-1.1932e-07
2.25583e-05
1.20082e-07
-1.19825e-07
2.36337e-05
1.20543e-07
-1.2032e-07
2.47631e-05
1.21101e-07
-1.20829e-07
2.5946e-05
1.21548e-07
-1.21328e-07
2.71826e-05
1.2211e-07
-1.21845e-07
2.84764e-05
1.22579e-07
-1.22356e-07
2.98376e-05
1.23137e-07
-1.22885e-07
3.12858e-05
1.23652e-07
-1.23417e-07
3.28507e-05
1.24203e-07
-1.2396e-07
3.45697e-05
1.24762e-07
-1.2451e-07
3.64841e-05
1.25332e-07
-1.25069e-07
3.8634e-05
1.25919e-07
-1.25636e-07
4.10554e-05
1.26566e-07
-1.26215e-07
4.37802e-05
1.27039e-07
-1.26758e-07
4.68369e-05
1.27826e-07
-1.27361e-07
5.02482e-05
1.28253e-07
-1.27968e-07
5.40224e-05
1.29016e-07
-1.28598e-07
5.81367e-05
1.29649e-07
-1.29237e-07
6.25124e-05
1.30315e-07
-1.29897e-07
6.69881e-05
1.30956e-07
-1.30563e-07
7.12985e-05
1.31646e-07
-1.3126e-07
7.50725e-05
1.32301e-07
-1.31953e-07
7.7859e-05
1.33024e-07
-1.32689e-07
7.91845e-05
1.33712e-07
-1.33416e-07
7.86328e-05
1.34475e-07
-1.34196e-07
7.59309e-05
1.35195e-07
-1.34969e-07
7.10141e-05
1.35993e-07
-1.35798e-07
6.40545e-05
1.36818e-07
-1.36634e-07
5.54394e-05
1.37619e-07
-1.37521e-07
4.57086e-05
1.3846e-07
-1.38433e-07
3.54699e-05
1.39296e-07
-1.39355e-07
2.53142e-05
1.40197e-07
-1.40321e-07
1.57484e-05
1.41006e-07
-1.41297e-07
7.15816e-06
1.41999e-07
-1.4233e-07
-2.00281e-07
1.42995e-07
-1.43378e-07
-6.18753e-06
1.45078e-07
-1.44489e-07
-1.07553e-05
1.44462e-07
-1.44488e-07
-1.3922e-05
1.44604e-07
-1.44495e-07
-1.57476e-05
1.44683e-07
-1.44494e-07
-1.63194e-05
1.44704e-07
-1.445e-07
-1.57423e-05
1.44718e-07
-1.44498e-07
-1.41323e-05
1.44697e-07
-1.44501e-07
-1.16123e-05
1.44691e-07
-1.445e-07
-8.3066e-06
1.44679e-07
-1.445e-07
-4.33609e-06
1.44678e-07
-1.44498e-07
1.86545e-07
1.44685e-07
-1.44497e-07
5.16207e-06
1.44694e-07
-1.44495e-07
1.05074e-05
1.4472e-07
-1.44491e-07
1.61554e-05
1.4474e-07
-1.44489e-07
2.20517e-05
1.44752e-07
-1.44484e-07
2.81497e-05
1.44752e-07
-1.44481e-07
3.44038e-05
1.44756e-07
-1.44477e-07
4.0762e-05
1.44759e-07
-1.44474e-07
4.71604e-05
1.44761e-07
-1.44469e-07
5.35188e-05
1.44762e-07
-1.44466e-07
5.97399e-05
1.44762e-07
-1.44461e-07
6.57117e-05
1.44762e-07
-1.44458e-07
7.13131e-05
1.44761e-07
-1.44453e-07
7.64233e-05
1.4476e-07
-1.4445e-07
8.09315e-05
1.44758e-07
-1.44444e-07
8.47469e-05
1.44756e-07
-1.44441e-07
8.78093e-05
1.44754e-07
-1.44435e-07
9.00949e-05
1.44752e-07
-1.44432e-07
9.16196e-05
1.44749e-07
-1.44426e-07
9.24386e-05
1.44746e-07
-1.44422e-07
9.26427e-05
1.44743e-07
-1.44416e-07
9.23522e-05
1.4474e-07
-1.44413e-07
9.17091e-05
1.44736e-07
-1.44406e-07
9.08689e-05
1.44733e-07
-1.44402e-07
8.99932e-05
1.44729e-07
-1.44395e-07
8.9243e-05
1.44726e-07
-1.4439e-07
8.87735e-05
1.44722e-07
-1.44382e-07
8.87302e-05
1.44718e-07
-1.44376e-07
8.92446e-05
1.44714e-07
-1.44367e-07
9.0431e-05
1.4471e-07
-1.4436e-07
9.23823e-05
1.44706e-07
-1.4435e-07
9.51645e-05
1.44702e-07
-1.44342e-07
9.88123e-05
1.44698e-07
-1.44331e-07
0.000103322
1.44695e-07
-1.4432e-07
0.000108648
1.44691e-07
-1.44307e-07
0.0001147
1.44687e-07
-1.44294e-07
0.000121338
1.44683e-07
-1.44279e-07
0.000128384
1.4468e-07
-1.44263e-07
0.00013562
1.44677e-07
-1.44247e-07
0.000142806
1.44674e-07
-1.44229e-07
0.000149694
1.4467e-07
-1.44211e-07
0.00015604
1.44668e-07
-1.44189e-07
0.000161632
1.44664e-07
-1.4417e-07
0.000166296
1.44662e-07
-1.44146e-07
0.000169922
1.44659e-07
-1.44125e-07
0.000172461
1.44657e-07
-1.44099e-07
0.000173936
1.44655e-07
-1.44077e-07
0.000174433
1.44653e-07
-1.44049e-07
0.000174091
1.44651e-07
-1.44027e-07
0.000173089
1.44649e-07
-1.43998e-07
0.000171622
1.44647e-07
-1.43976e-07
0.000169885
1.44646e-07
-1.43947e-07
0.000168053
1.44644e-07
-1.43924e-07
0.000166266
1.44643e-07
-1.43897e-07
0.000164624
1.44641e-07
-1.43875e-07
0.000163176
1.4464e-07
-1.43848e-07
0.000161927
1.44638e-07
-1.43826e-07
0.000160843
1.44637e-07
-1.43801e-07
0.00015986
1.44636e-07
-1.43779e-07
0.000158896
1.44636e-07
-1.43756e-07
0.000157862
1.44635e-07
-1.43734e-07
0.000156675
1.44635e-07
-1.43712e-07
0.000155269
1.44635e-07
-1.43689e-07
0.000153597
1.44636e-07
-1.43667e-07
0.000151642
1.44637e-07
-1.43642e-07
0.000149411
1.44639e-07
-1.43616e-07
0.000146939
1.44641e-07
-1.43591e-07
0.000144279
1.44644e-07
-1.43555e-07
0.000141503
1.44648e-07
-1.43536e-07
0.000138687
1.44653e-07
-1.43479e-07
0.000135913
1.44657e-07
-1.43473e-07
0.000133254
1.44665e-07
-1.43376e-07
0.000130773
1.44671e-07
-1.43395e-07
0.000128517
1.44679e-07
-1.43219e-07
0.000126513
1.4469e-07
-1.43265e-07
0.00012477
1.44695e-07
-1.43169e-07
0.000123269
1.44712e-07
-1.43193e-07
0.000121972
1.44716e-07
-1.43159e-07
0.000120815
1.44739e-07
-1.43111e-07
0.000119714
1.44759e-07
-1.43077e-07
0.000118566
1.44763e-07
-1.4303e-07
0.000117244
1.44785e-07
-1.42957e-07
0.000115612
1.44795e-07
-1.42938e-07
0.00011352
1.44814e-07
-1.42904e-07
0.000110814
1.44832e-07
-1.42795e-07
0.000107345
1.4485e-07
-1.42837e-07
0.000102976
1.44873e-07
-1.42698e-07
9.75903e-05
1.44892e-07
-1.42729e-07
9.11067e-05
1.44918e-07
-1.42588e-07
8.34866e-05
1.44941e-07
-1.42605e-07
7.47443e-05
1.4497e-07
-1.42487e-07
6.4955e-05
1.44995e-07
-1.42471e-07
5.42593e-05
1.45028e-07
-1.4236e-07
4.28646e-05
1.45056e-07
-1.42322e-07
3.10415e-05
1.4509e-07
-1.42227e-07
1.91184e-05
1.45121e-07
-1.42173e-07
7.46873e-06
1.45158e-07
-1.4209e-07
-3.50567e-06
1.45191e-07
-1.42022e-07
-1.33906e-05
1.4523e-07
-1.41944e-07
-2.17852e-05
1.45267e-07
-1.41867e-07
-2.83247e-05
1.45308e-07
-1.4179e-07
-3.26981e-05
1.45348e-07
-1.41707e-07
-3.46718e-05
1.45393e-07
-1.41627e-07
-3.41019e-05
1.45437e-07
-1.41539e-07
-3.094e-05
1.45485e-07
-1.41456e-07
-2.52396e-05
1.45533e-07
-1.41363e-07
-1.71477e-05
1.45583e-07
-1.41275e-07
-6.89498e-06
1.45634e-07
-1.41178e-07
5.22436e-06
1.45689e-07
-1.41084e-07
1.88769e-05
1.45743e-07
-1.40981e-07
3.37026e-05
1.45802e-07
-1.40881e-07
4.93385e-05
1.45861e-07
-1.40772e-07
6.54381e-05
1.45925e-07
-1.40665e-07
8.16802e-05
1.4599e-07
-1.40551e-07
9.77842e-05
1.46061e-07
-1.40438e-07
0.000113513
1.46134e-07
-1.40319e-07
0.000128671
1.46214e-07
-1.40201e-07
0.000143111
1.46297e-07
-1.40076e-07
0.000156728
1.46388e-07
-1.39954e-07
0.000169451
1.46484e-07
-1.39825e-07
0.000181247
1.46587e-07
-1.39699e-07
0.000192106
1.46698e-07
-1.39568e-07
0.000202035
1.46817e-07
-1.39439e-07
0.000211051
1.46944e-07
-1.39306e-07
0.000219172
1.47081e-07
-1.39176e-07
0.0002264
1.47228e-07
-1.39044e-07
0.000232721
1.47385e-07
-1.38915e-07
0.000238085
1.47553e-07
-1.38784e-07
0.000242406
1.47733e-07
-1.38657e-07
0.000245556
1.47925e-07
-1.3853e-07
0.000247367
1.48129e-07
-1.38408e-07
0.000247636
1.48347e-07
-1.38286e-07
0.000246141
1.48579e-07
-1.38169e-07
0.000242655
1.48825e-07
-1.38054e-07
0.00023697
1.49085e-07
-1.37944e-07
0.00022892
1.4936e-07
-1.37837e-07
0.000218404
1.4965e-07
-1.37735e-07
0.000205414
1.49957e-07
-1.37635e-07
0.000190048
1.50279e-07
-1.3754e-07
0.000172531
1.50619e-07
-1.37447e-07
0.000153216
1.50974e-07
-1.37358e-07
0.000132589
1.51349e-07
-1.3727e-07
0.000111262
1.5174e-07
-1.37185e-07
8.99498e-05
1.5215e-07
-1.371e-07
6.94479e-05
1.52578e-07
-1.37016e-07
5.05923e-05
1.53027e-07
-1.3693e-07
3.42131e-05
1.53493e-07
-1.36845e-07
2.10683e-05
1.53981e-07
-1.36755e-07
1.17971e-05
1.54487e-07
-1.36665e-07
6.85198e-06
1.55015e-07
-1.3657e-07
6.45587e-06
1.55561e-07
-1.36474e-07
1.05716e-05
1.56131e-07
-1.36372e-07
1.88823e-05
1.56719e-07
-1.36271e-07
3.08276e-05
1.57334e-07
-1.36163e-07
4.56398e-05
1.5797e-07
-1.36059e-07
6.24055e-05
1.58636e-07
-1.35949e-07
8.01334e-05
1.59326e-07
-1.35845e-07
9.78371e-05
1.60053e-07
-1.35738e-07
0.000114611
1.60807e-07
-1.35641e-07
0.000129687
1.61605e-07
-1.35542e-07
0.000142499
1.62434e-07
-1.35458e-07
0.000152707
1.63312e-07
-1.35374e-07
0.000160198
1.64224e-07
-1.35309e-07
0.00016509
1.65192e-07
-1.35245e-07
0.000167699
1.66193e-07
-1.35206e-07
0.000168495
1.67256e-07
-1.35166e-07
0.000168049
1.68353e-07
-1.35156e-07
0.000166972
1.69515e-07
-1.35145e-07
0.000165861
1.7071e-07
-1.35168e-07
0.000165259
1.71977e-07
-1.35189e-07
0.000165626
1.73274e-07
-1.35249e-07
0.000167299
1.74648e-07
-1.35305e-07
0.000170491
1.7605e-07
-1.35408e-07
0.000175307
1.77537e-07
-1.35503e-07
0.000181751
1.79047e-07
-1.35655e-07
0.000189739
1.80652e-07
-1.35796e-07
0.000199116
1.82278e-07
-1.36003e-07
0.000209673
1.84009e-07
-1.36199e-07
0.00022118
1.85757e-07
-1.36473e-07
0.000233372
1.87625e-07
-1.36732e-07
0.000245967