/*--------------------------------*- C++ -*----------------------------------*\
| =========                 |                                                 |
| \\      /  F ield         | OpenFOAM: The Open Source CFD Toolbox           |
|  \\    /   O peration     | Version:  2012                                  |
|   \\  /    A nd           | Website:  www.openfoam.com                      |
|    \\/     M anipulation  |                                                 |
\*---------------------------------------------------------------------------*/
FoamFile
{
    version     2.0;
    format      ascii;
    class       volTensorField;
    location    "15000";
    object      grad(U);
}
// * * * * * * * * * * * * * * * * * * * * * * * * * * * * * * * * * * * * * //

dimensions      [0 0 -1 0 0 0 0];


internalField   nonuniform List<tensor> 
160
(
(0 -1.15569e-27 -8.66954e-33 39.8811 -9.62304e-32 1.07064e-15 0.866275 0 4.1087e-16)
(0 -6.6582e-30 8.66954e-33 39.8811 -2.74947e-14 -1.80215e-14 0.866275 -2.26923e-15 2.22542e-15)
(4.90244e-16 1.03015e-27 3.48339e-30 39.6087 -2.52435e-29 2.4676e-13 2.83149 0 8.41433e-15)
(-4.90244e-16 -2.61255e-30 -5.22509e-30 39.6087 3.66032e-14 -3.31829e-14 2.83149 1.75653e-15 1.08494e-14)
(7.69448e-16 -3.78197e-28 3.66163e-30 37.5986 0 9.16592e-14 5.30774 0 8.95082e-15)
(0 3.41704e-31 -5.46726e-30 37.5986 -3.4316e-14 -2.65291e-14 5.30774 2.8052e-16 1.23244e-14)
(-8.19054e-16 0 2.86941e-29 30.7026 -1.94143e-15 1.81154e-14 5.22578 4.72949e-16 1.62634e-15)
(1.63811e-15 0 -1.07262e-29 30.7026 -1.15236e-14 -7.56993e-15 5.22578 4.21132e-16 8.83814e-15)
(-1.88823e-15 0 -3.1984e-30 20.4584 -2.28761e-14 8.71026e-15 3.98657 -9.14264e-16 2.46003e-15)
(0 0 5.06649e-31 20.4584 -8.6051e-15 4.53595e-30 3.98657 1.35004e-16 3.65079e-15)
(-1.35283e-15 -3.78838e-30 -2.80439e-46 12.238 -4.81469e-15 -2.02078e-30 3.03477 -7.01874e-16 0)
(5.4113e-15 6.60572e-31 -1.91014e-29 12.238 -4.97799e-15 1.83775e-15 3.03477 3.70384e-16 -2.67903e-16)
(1.65152e-15 -4.92355e-32 -7.77584e-30 7.41701 -2.09363e-15 -2.12311e-14 2.39981 -8.74612e-16 8.42842e-15)
(-6.6061e-15 0 4.86316e-29 7.41701 -2.58963e-15 6.73711e-15 2.39981 2.61249e-16 -1.25149e-15)
(1.83212e-15 -1.23805e-30 1.3018e-29 4.65343 -1.00508e-30 -1.14079e-14 1.95227 0 7.19893e-15)
(7.52061e-15 2.44087e-30 -9.76349e-30 4.65343 6.38768e-16 3.18868e-14 1.95227 3.44304e-16 1.1914e-15)
(-2.06187e-15 7.31756e-31 -2.61293e-30 2.99325 1.7874e-15 1.87402e-16 1.61899 -5.3914e-16 4.21924e-15)
(0 0 0 2.99325 8.92353e-16 2.8711e-14 1.61899 1.07662e-15 1.04872e-15)
(0 0 -4.00855e-30 1.95973 3.90855e-15 1.47481e-14 1.36315 -5.08252e-16 1.97385e-15)
(8.83886e-15 0 0 1.95973 4.26646e-16 2.93481e-14 1.36315 1.18336e-15 2.55778e-16)
(3.5418e-15 -7.86438e-31 6.2915e-30 1.30249 3.59187e-15 2.41088e-14 1.16467 2.90594e-16 1.33032e-15)
(0 0 -6.2915e-30 1.30249 6.2558e-16 2.971e-14 1.16467 2.89876e-16 7.29552e-16)
(0 0 -9.87464e-30 0.878728 2.47668e-15 2.12737e-14 1.01047 1.07967e-15 1.3222e-15)
(0 0 0 0.878728 1.36866e-15 2.45852e-14 1.01047 2.88773e-16 1.05623e-15)
(2.18121e-15 0 7.74922e-30 0.602086 9.42054e-16 1.77974e-14 0.890417 1.46142e-15 -8.26894e-16)
(-2.18121e-15 0 -7.74922e-30 0.602086 1.62308e-15 1.6795e-14 0.890417 1.59578e-15 -1.34185e-16)
(-2.59574e-15 -1.83705e-33 -2.43251e-29 0.418801 3.38976e-16 1.47854e-14 0.795894 1.00549e-15 -5.0362e-16)
(-1.0383e-14 3.80595e-32 2.43251e-29 0.418801 2.78564e-17 1.32623e-14 0.795894 1.03459e-15 -1.51307e-15)
(-2.66163e-15 -4.88324e-32 0 0.295076 8.94948e-16 1.68236e-14 0.71908 9.23164e-16 -2.03011e-15)
(-2.68659e-15 1.49136e-31 0 0.295076 3.19598e-16 1.78816e-14 0.71908 6.14091e-16 -7.7723e-16)
(0 0 -1.46174e-29 0.209543 4.39297e-16 1.13368e-14 0.652138 1.44251e-15 3.82317e-15)
(-1.93166e-14 -8.24574e-31 -2.42887e-31 0.209543 6.62154e-16 1.29447e-14 0.652138 1.77554e-15 -4.46504e-17)
(0 -9.34174e-34 0 0.148514 -1.123e-16 3.94406e-15 0.585526 -3.52152e-17 -2.55204e-15)
(0 4.59225e-32 0 0.148514 -1.50708e-16 4.26012e-15 0.585526 2.79845e-16 -1.24161e-15)
(0 0 4.47716e-31 0.102791 -9.16189e-16 -2.6154e-16 0.503205 3.43319e-15 -6.8092e-16)
(-5.19364e-15 0 -1.2542e-31 0.102791 -8.69148e-16 0 0.503205 2.32243e-15 0)
(2.88246e-15 -8.15415e-31 0 0.0645027 -3.04282e-16 -4.61782e-15 0.357771 -1.03607e-15 7.97597e-16)
(-1.15298e-14 2.94965e-30 0 0.0645027 -3.73363e-16 -4.82346e-15 0.357771 -1.27129e-15 -3.96953e-16)
(-2.95546e-15 3.18195e-32 1.33033e-31 2.04697e-15 0 0 1.06581e-14 -1.11725e-15 -9.58606e-16)
(1.57772e-30 1.77552e-31 -2.27267e-29 5.20702e-29 -1.16329e-16 -5.30123e-16 7.38867e-19 -1.23949e-15 1.6758e-15)
(0 0 5.5485e-31 39.8811 3.39658e-15 -2.41379e-15 -0.866275 1.10946e-14 -4.1087e-16)
(0 0 -1.1097e-30 39.8811 4.4885e-15 2.0481e-13 -0.866275 2.26923e-15 -2.22542e-15)
(-4.90244e-16 -2.17712e-31 -8.58929e-30 39.6087 2.38739e-14 -2.22978e-14 -2.83149 -5.34022e-15 -8.41433e-15)
(0 -2.17712e-31 1.13357e-27 39.6087 2.15145e-14 1.74875e-13 -2.83149 -1.75653e-15 -9.66863e-15)
(-7.69448e-16 -3.41704e-31 5.46726e-30 37.5986 1.28979e-14 -1.25364e-14 -5.30774 1.19989e-15 -1.21128e-14)
(0 0 3.36312e-44 37.5986 1.25944e-14 7.88861e-31 -5.30774 -2.8052e-16 -5.25929e-29)
(-1.22858e-15 0 6.19412e-30 30.7026 9.23363e-15 -7.21748e-15 -5.22578 -4.72949e-16 -1.37389e-14)
(0 0 0 30.7026 1.0476e-14 -8.11196e-14 -5.22578 -4.21132e-16 -8.83814e-15)
(0 0 3.367e-30 20.4584 6.21225e-15 -1.3017e-15 -3.98657 9.14264e-16 -1.39835e-14)
(-3.77645e-15 0 -1.6835e-30 20.4584 7.61174e-15 -8.81698e-14 -3.98657 -1.35004e-16 -3.65079e-15)
(-1.3465e-16 -6.60572e-31 4.12857e-32 12.238 4.93268e-15 -2.03696e-15 -3.03477 1.31436e-15 -1.45612e-14)
(5.4113e-15 -1.32114e-30 -2.47714e-31 12.238 6.12901e-15 -4.53454e-14 -3.03477 -3.70384e-16 1.35854e-15)
(3.98615e-15 1.03678e-30 1.29598e-30 7.41701 3.05653e-15 -9.27981e-15 -2.39981 1.22939e-15 -1.21639e-14)
(-6.6061e-15 6.62777e-31 -2.33276e-30 7.41701 2.10267e-15 -7.57444e-15 -2.39981 -2.61249e-16 2.09392e-15)
(9.60671e-17 -1.27232e-31 2.84768e-30 4.65343 2.64277e-16 -1.99841e-14 -1.95227 1.13426e-15 -8.77378e-15)
(7.52061e-15 0 1.3212e-29 4.65343 2.47505e-15 -1.36134e-14 -1.95227 -3.44304e-16 -1.1914e-15)
(-2.06187e-15 0 0 2.99325 -5.01609e-16 -2.33147e-14 -1.61899 9.83841e-16 -4.6439e-15)
(0 5.75365e-30 2.554e-30 2.99325 5.7627e-16 -3.15529e-14 -1.61899 -1.73822e-16 -1.04872e-15)
(0 2.00428e-30 0 1.95973 -6.94284e-16 -2.40049e-14 -1.36315 5.08252e-16 -1.97385e-15)
(-8.83886e-15 0 0 1.95973 -1.47725e-45 -3.0576e-14 -1.36315 -4.4996e-30 -2.55778e-16)
(2.33185e-15 7.67693e-33 0 1.30249 -3.47394e-16 -2.55958e-14 -1.16467 -2.35275e-16 -1.33032e-15)
(-9.32739e-15 -1.57288e-30 0 1.30249 -2.67179e-15 -2.80395e-14 -1.16467 -2.89876e-16 -7.29552e-16)
(2.43406e-15 8.40362e-32 0 0.878728 -5.22009e-16 -2.43164e-14 -1.01047 -4.74125e-16 -1.3222e-15)
(-2.77946e-15 0 9.87464e-30 0.878728 -1.59091e-16 -2.5676e-14 -1.01047 -2.88773e-16 -1.05623e-15)
(0 0 0 0.602086 -9.08296e-16 -2.0468e-14 -0.890417 -8.77741e-16 8.26894e-16)
(0 1.75162e-46 7.74922e-30 0.602086 3.00583e-46 -1.9997e-14 -0.890417 3.11044e-31 1.34185e-16)
(-5.19148e-15 0 0 0.418801 -9.21267e-16 -1.57525e-14 -0.795894 -1.00549e-15 5.0362e-16)
(0 0 1.21626e-29 0.418801 -1.08275e-15 -1.41485e-14 -0.795894 -1.03459e-15 1.51307e-15)
(2.66163e-15 0 0 0.295076 -1.07398e-16 -1.41623e-14 -0.71908 -9.23164e-16 2.03011e-15)
(-1.06465e-14 0 0 0.295076 -9.27672e-18 -1.67442e-14 -0.71908 -6.14091e-16 7.7723e-16)
(4.21666e-15 9.36286e-31 0 0.209543 -5.98375e-16 -1.29112e-14 -0.652138 -9.84681e-16 -3.82317e-15)
(-1.08833e-14 -8.75812e-46 -2.99611e-29 0.209543 4.27832e-60 -1.38055e-14 -0.652138 -7.88861e-31 4.46504e-17)
(-5.33754e-16 0 2.32785e-29 0.148514 8.21073e-48 -3.03366e-15 -0.585526 6.16298e-33 2.55204e-15)
(-1.11012e-14 -1.8369e-31 -4.39391e-31 0.148514 -1.37025e-16 -2.34026e-15 -0.585526 -2.79845e-16 1.24161e-15)
(0 0 0 0.102791 0 7.88861e-31 -0.503205 0 9.86076e-32)
(-1.13095e-14 -1.34269e-30 -6.28633e-31 0.102791 -2.56217e-16 2.11066e-15 -0.503205 -6.84631e-16 -9.03749e-16)
(4.07576e-15 -2.715e-30 -2.896e-29 0.0645027 -7.89006e-17 4.65083e-15 -0.357771 2.68653e-16 -7.97597e-16)
(-7.45409e-15 3.30521e-30 0 0.0645027 0 4.93072e-15 -0.357771 7.88861e-31 3.96953e-16)
(0 3.71191e-31 2.8026e-45 1.52703e-29 -2.30851e-16 3.9443e-31 1.90879e-30 1.11725e-15 -1.2819e-29)
(8.88178e-15 3.23949e-32 -1.33977e-31 2.04697e-15 -1.10881e-16 2.95879e-15 -7.10247e-15 1.23949e-15 -1.6758e-15)
(-2.9562e-15 5.51182e-32 0 -8.13731e-11 -1.37275e-16 -2.76378e-15 3.53069e-10 -7.78224e-16 -2.20406e-15)
(2.36585e-14 -9.6506e-30 0 -8.15644e-11 -9.1142e-17 -4.14972e-15 3.53072e-10 -3.95451e-16 -1.65098e-15)
(0 -1.73436e-30 8.75812e-47 -0.0645027 1.76954e-16 -1.57772e-30 0.357771 -4.47558e-15 3.9443e-31)
(7.45409e-15 1.81e-30 -3.11075e-32 -0.0645027 1.33842e-15 -6.93413e-15 0.357771 -4.69674e-15 1.1316e-15)
(0 -5.7661e-31 4.61288e-30 -0.102791 1.75976e-16 -1.14625e-14 0.503205 -6.02522e-16 -2.00133e-15)
(0 0 -4.61288e-30 -0.102791 3.96689e-16 -8.19691e-15 0.503205 -1.48049e-15 -7.97844e-16)
(0 0 5.87808e-30 -0.148514 2.39828e-16 -7.07603e-15 0.585526 -1.20563e-15 -9.56072e-16)
(1.11012e-14 0 2.93904e-30 -0.148514 0 -1.14689e-15 0.585526 0 -8.05764e-16)
(5.44163e-15 -5.03617e-31 -1.38284e-30 -0.209543 1.53671e-16 -2.61167e-15 0.652138 -8.48994e-16 6.91123e-16)
(1.08833e-14 2.34071e-31 9.36286e-31 -0.209543 3.92661e-16 -6.14623e-15 0.652138 -1.70735e-15 -7.88513e-16)
(-2.66163e-15 9.44137e-32 2.27762e-32 -0.295076 2.70428e-16 8.13948e-16 0.71908 -1.22208e-15 2.05012e-16)
(0 0 0 -0.295076 1.70115e-16 -3.40732e-16 0.71908 -9.36942e-16 6.4048e-16)
(8.27713e-16 0 0 -0.418801 -4.62461e-17 -1.22601e-15 0.795894 -1.00792e-15 -4.29055e-16)
(-1.38064e-14 -5.27239e-44 -1.95758e-31 -0.418801 5.93938e-30 -3.13212e-30 0.795894 -4.47756e-16 -4.93038e-32)
(2.52084e-15 -1.05697e-31 -4.84326e-31 -0.602086 0 -2.37183e-15 0.890417 -9.86076e-32 3.02324e-17)
(2.01667e-14 2.42163e-31 4.84326e-31 -0.602086 7.5089e-16 -3.06774e-15 0.890417 -4.84181e-16 -8.32783e-17)
(-2.43406e-15 0 0 -0.878728 8.55759e-16 -1.22209e-15 1.01047 -3.17894e-16 -5.54868e-17)
(0 -5.18001e-32 0 -0.878728 -9.86076e-32 -1.73697e-15 1.01047 -3.73259e-16 7.35103e-17)
(0 -3.07958e-31 0 -1.30249 3.72775e-18 1.19365e-16 1.16467 -1.8258e-18 -5.49332e-17)
(9.32739e-15 -6.10153e-33 0 -1.30249 2.10815e-17 1.27758e-17 1.16467 -3.07526e-16 -1.46153e-16)
(-4.41943e-15 1.59126e-33 -7.35682e-45 -1.95973 -9.78384e-46 -8.21902e-31 1.36315 -1.14662e-17 1.2326e-32)
(-2.25661e-15 1.9573e-32 0 -1.95973 2.06948e-16 1.07906e-15 1.36315 -2.79458e-16 7.86137e-17)
(0 1.26117e-44 -1.59625e-31 -2.99325 1.39124e-30 -2.96203e-16 1.61899 -3.18313e-46 -3.35722e-16)
(0 3.99062e-32 -4.37906e-47 -2.99325 -8.99409e-17 -2.16822e-30 1.61899 -3.07665e-16 0)
(-1.88015e-15 -5.08515e-32 -1.01703e-31 -4.65343 4.59086e-16 -2.38422e-16 1.95227 7.02813e-17 -4.66339e-17)
(0 5.08515e-32 1.01703e-31 -4.65343 2.12668e-16 -1.08604e-15 1.95227 2.84366e-17 5.15865e-17)
(0 -8.09985e-32 -6.47988e-32 -7.41701 -5.33722e-16 -1.30037e-16 2.39981 -4.28553e-17 -2.31359e-17)
(6.6061e-15 8.09985e-32 1.07556e-30 -7.41701 6.81113e-16 -4.14952e-16 2.39981 1.07579e-16 7.28737e-17)
(2.97495e-15 -1.74737e-31 8.25715e-32 -12.238 -2.47946e-30 3.08446e-16 3.03477 -4.93038e-32 2.96205e-17)
(-5.4113e-15 0 -8.25715e-32 -12.238 0 -1.32137e-15 3.03477 -1.20881e-16 6.42438e-17)
(-2.83957e-15 1.31523e-31 1.29456e-45 -20.4584 1.46789e-15 7.10254e-31 3.98657 -2.23708e-16 0)
(3.77645e-15 -1.05219e-31 5.26094e-32 -20.4584 -2.31158e-16 -1.95294e-16 3.98657 -3.50891e-17 -6.46527e-17)
(-4.09527e-16 2.72345e-32 0 -30.7026 1.06428e-15 -6.10893e-16 5.22578 -3.35673e-17 1.02831e-17)
(4.30444e-16 7.00649e-46 0 -30.7026 -7.08917e-32 4.96984e-16 5.22578 -7.70372e-34 1.61605e-17)
(0 -6.6739e-33 9.08036e-31 -37.5986 3.24517e-16 -5.69006e-16 5.30774 -1.6395e-17 2.90339e-17)
(0 6.6739e-33 0 -37.5986 -4.54478e-16 -5.5979e-16 5.30774 6.00938e-18 2.67085e-17)
(4.90244e-16 2.79433e-31 4.13508e-31 -39.6087 -6.31837e-33 -3.01823e-15 2.83149 0 2.14754e-17)
(0 -1.78327e-47 0 -39.6087 -2.01049e-33 -2.68144e-15 2.83149 0 2.06599e-17)
(0 1.71057e-49 -2.45489e-30 -39.8811 5.89305e-48 -2.4697e-15 0.866275 1.27845e-49 -1.13546e-17)
(0 0 0 -39.8811 0 -2.59334e-15 0.866275 -1.49474e-18 1.63335e-17)
(-3.43931e-15 -1.42006e-32 0 -8.13738e-11 -4.93038e-32 3.93027e-15 -3.53069e-10 1.57772e-30 2.20406e-15)
(1.18337e-14 -2.12058e-30 0 -8.13738e-11 -1.83098e-16 4.10164e-15 -3.53072e-10 3.94626e-15 1.65098e-15)
(-8.15152e-15 1.81e-30 3.80129e-30 -0.0645027 1.79911e-15 0 -0.357771 4.47558e-15 -3.4239e-15)
(0 -9.05001e-31 0 -0.0645027 1.17373e-15 4.24123e-15 -0.357771 4.69674e-15 -1.1316e-15)
(-2.82736e-15 0 0 -0.102791 -5.6648e-44 1.01154e-14 -0.503205 1.09398e-15 2.00133e-15)
(0 -4.32457e-31 0 -0.102791 1.58233e-16 7.55859e-15 -0.503205 1.48049e-15 7.97844e-16)
(-2.77531e-15 -3.6738e-31 0 -0.148514 -5.66719e-16 8.39464e-15 -0.585526 1.62575e-15 9.56072e-16)
(-3.30906e-15 3.63618e-31 -1.20267e-30 -0.148514 -1.1318e-16 1.13178e-15 -0.585526 2.37332e-16 8.05764e-16)
(-1.49584e-15 2.94023e-31 1.87257e-30 -0.209543 -3.13571e-16 2.61167e-15 -0.652138 5.65471e-16 -6.91123e-16)
(1.08833e-14 -6.91832e-31 -1.87257e-30 -0.209543 3.72547e-16 7.12855e-15 -0.652138 8.82718e-16 7.88513e-16)
(2.68659e-15 0 0 -0.295076 9.86076e-32 -1.90713e-15 -0.71908 0 -2.05012e-16)
(-1.33331e-14 5.8216e-32 0 -0.295076 1.05088e-16 1.06407e-15 -0.71908 1.16234e-15 -6.4048e-16)
(2.59574e-15 0 -5.46971e-45 -0.418801 1.09476e-15 5.3972e-45 -0.795894 1.00792e-15 -9.85336e-30)
(-1.0383e-14 3.67841e-45 1.52032e-30 -0.418801 3.70558e-45 3.43028e-16 -0.795894 6.70367e-30 -3.52646e-16)
(2.52084e-15 0 0 -0.602086 1.27465e-16 2.7589e-15 -0.890417 7.61631e-16 -3.02324e-17)
(0 7.32426e-32 4.84326e-31 -0.602086 0 2.80664e-15 -0.890417 4.84181e-16 8.32783e-17)
(2.77946e-15 0 0 -0.878728 -2.8526e-16 1.1023e-15 -1.01047 3.17894e-16 5.54868e-17)
(0 0 0 -0.878728 -5.4803e-45 1.56349e-15 -1.01047 -3.00753e-30 -7.35103e-17)
(2.33185e-15 -1.08471e-32 0 -1.30249 2.55675e-16 2.19827e-16 -1.16467 2.70218e-16 5.49332e-17)
(0 0 0 -1.30249 2.10176e-16 -5.52856e-46 -1.16467 4.07063e-16 2.46519e-32)
(2.20972e-15 -2.50534e-31 6.26336e-32 -1.95973 5.75092e-16 -9.33385e-16 -1.36315 1.14662e-17 -9.28849e-17)
(-1.10955e-14 5.26282e-60 -6.26336e-32 -1.95973 -1.48135e-46 -8.22822e-17 -1.36315 1.02603e-31 -7.86137e-17)
(2.06187e-15 0 -1.31372e-46 -2.99325 7.15146e-16 9.0666e-46 -1.61899 1.62191e-16 2.2196e-31)
(-8.24748e-15 -1.55377e-30 0 -2.99325 3.27372e-16 -1.71491e-16 -1.61899 9.87465e-17 -2.4412e-16)
(0 0 0 -4.65343 0 1.42365e-15 -1.95227 -3.07265e-31 4.66339e-17)
(-1.11848e-14 0 0 -4.65343 1.41065e-15 4.71535e-16 -1.95227 -2.84366e-17 -5.15865e-17)
(0 3.23994e-32 -6.47988e-32 -7.41701 -1.4274e-15 5.5953e-16 -2.39981 4.28553e-17 2.31359e-17)
(0 -1.54143e-44 -6.47988e-32 -7.41701 0 8.01904e-16 -2.39981 -2.99274e-29 -7.28737e-17)
(0 -4.12857e-32 0 -12.238 -9.50834e-16 4.74871e-16 -3.03477 2.79163e-16 -2.96205e-17)
(-1.37976e-14 2.8026e-45 0 -12.238 -9.86076e-32 2.78478e-16 -3.03477 -2.84324e-30 -6.42438e-17)
(-7.22731e-18 -9.17792e-31 5.26094e-32 -20.4584 4.30048e-16 6.05236e-17 -3.98657 4.91976e-17 -9.66209e-17)
(0 4.6127e-30 1.09476e-47 -20.4584 3.18792e-16 -1.69804e-46 -3.98657 3.50891e-17 1.78596e-32)
(0 -1.67597e-32 1.68867e-45 -30.7026 3.53261e-16 6.34594e-32 -5.22578 3.35673e-17 -1.02831e-17)
(0 -3.50325e-46 0 -30.7026 2.89668e-32 4.26276e-16 -5.22578 -4.68474e-18 -1.61605e-17)
(-7.69448e-16 3.33695e-34 4.27129e-32 -37.5986 1.61916e-16 9.02482e-16 -5.30774 1.6395e-17 -2.90339e-17)
(0 2.10195e-45 -2.60165e-30 -37.5986 0 4.49357e-16 -5.30774 2.91929e-30 -2.67085e-17)
(0 5.31524e-34 2.7214e-32 -39.6087 7.89265e-17 2.37567e-15 -2.83149 -7.11385e-19 -2.14754e-17)
(0 5.02409e-32 -1.52644e-30 -39.6087 -1.51016e-16 2.34552e-15 -2.83149 3.15532e-19 -2.06599e-17)
(-1.56176e-16 1.84244e-33 7.77565e-31 -39.8811 -4.23705e-32 2.4697e-15 -0.866275 3.31905e-18 1.13546e-17)
(1.56176e-16 0 -8.66954e-33 -39.8811 -3.55046e-44 2.25377e-15 -0.866275 1.39004e-30 -1.63335e-17)
)
;

boundaryField
{
    walls
    {
        type            extrapolatedCalculated;
        value           nonuniform List<tensor> 8((0 -1.15569e-27 -8.66954e-33 39.9311 -9.94891e-13 1.07064e-15 0.866275 0 4.1087e-16) (0 0 5.5485e-31 39.9311 -2.79248e-14 3.68076e-14 -0.866275 1.10946e-14 -4.1087e-16) (0 -6.6582e-30 8.66954e-33 39.9311 -1.86076e-13 3.52009e-16 0.866275 -2.26923e-15 2.22542e-15) (0 0 -1.1097e-30 39.9311 -2.31255e-14 2.0481e-13 -0.866275 2.26923e-15 -2.22542e-15) (0 1.71057e-49 -2.45489e-30 -39.9311 3.28094e-16 -7.11459e-16 0.866275 1.27845e-49 -1.13546e-17) (-1.56176e-16 1.84244e-33 7.77565e-31 -39.9311 -2.21097e-17 1.75824e-15 -0.866275 3.31905e-18 1.13546e-17) (0 0 0 -39.9311 -3.25197e-16 -2.04956e-15 0.866275 -1.49474e-18 1.63335e-17) (1.56176e-16 0 -8.66954e-33 -39.9311 4.62998e-16 5.43773e-16 -0.866275 1.39004e-30 -1.63335e-17));
    }
    inlet
    {
        type            cyclic;
    }
    outlet
    {
        type            cyclic;
    }
    sides
    {
        type            empty;
    }
}


// ************************************************************************* //
