/*--------------------------------*- C++ -*----------------------------------*\
| =========                 |                                                 |
| \\      /  F ield         | OpenFOAM: The Open Source CFD Toolbox           |
|  \\    /   O peration     | Version:  2012                                  |
|   \\  /    A nd           | Website:  www.openfoam.com                      |
|    \\/     M anipulation  |                                                 |
\*---------------------------------------------------------------------------*/
FoamFile
{
    version     2.0;
    format      ascii;
    class       volScalarField;
    location    "15000";
    object      p;
}
// * * * * * * * * * * * * * * * * * * * * * * * * * * * * * * * * * * * * * //

dimensions      [0 2 -2 0 0 0 0];


internalField   nonuniform List<scalar> 
160
(
2.5146e-18
9.28909e-16
4.51331e-17
9.02331e-16
1.47164e-17
8.5432e-16
-3.08715e-17
7.78779e-16
-5.66037e-17
6.70784e-16
-8.02872e-17
5.261e-16
-1.1746e-16
3.50067e-16
-1.89002e-16
1.51652e-16
-2.85493e-16
-8.07426e-17
-4.44025e-16
-3.53341e-16
-6.8741e-16
-6.71975e-16
-1.03028e-15
-1.02965e-15
-1.51205e-15
-1.49282e-15
-2.11292e-15
-2.1132e-15
-2.94644e-15
-2.82885e-15
-3.92734e-15
-3.75935e-15
-5.75244e-15
-5.72788e-15
-7.44914e-15
-7.28778e-15
-9.66915e-15
-9.66698e-15
-1.14824e-14
-1.14873e-14
4.22045e-16
5.31821e-16
4.18245e-16
5.28538e-16
4.12135e-16
5.23104e-16
4.0069e-16
5.11699e-16
3.80313e-16
4.88943e-16
3.44462e-16
4.4618e-16
2.82327e-16
3.72979e-16
1.96558e-16
2.6105e-16
5.39688e-17
1.14406e-16
-1.28281e-16
-1.09067e-16
-4.03583e-16
-4.0117e-16
-7.81969e-16
-7.70934e-16
-1.3045e-15
-1.29917e-15
-1.96732e-15
-1.96414e-15
-2.84265e-15
-2.82293e-15
-4.10872e-15
-3.90046e-15
-5.51344e-15
-5.60159e-15
-7.53282e-15
-7.40917e-15
-9.94301e-15
-9.75453e-15
-1.14421e-14
-1.14682e-14
-1.40541e-14
-1.40309e-14
-1.39344e-14
-1.39136e-14
-1.58896e-14
-1.5721e-14
-1.61406e-14
-1.59255e-14
-1.64893e-14
-1.64723e-14
-1.64369e-14
-1.64117e-14
-1.64749e-14
-1.64491e-14
-1.65553e-14
-1.65492e-14
-1.65509e-14
-1.65497e-14
-1.65502e-14
-1.65489e-14
-1.65509e-14
-1.6548e-14
-1.65618e-14
-1.65472e-14
-1.65593e-14
-1.65519e-14
-1.65612e-14
-1.65524e-14
-1.65593e-14
-1.65541e-14
-1.65574e-14
-1.65552e-14
-1.65582e-14
-1.65549e-14
-1.65586e-14
-1.65548e-14
-1.65585e-14
-1.65549e-14
-1.65585e-14
-1.65548e-14
-1.40978e-14
-1.39804e-14
-1.3776e-14
-1.38795e-14
-1.57007e-14
-1.55718e-14
-1.60888e-14
-1.58295e-14
-1.64814e-14
-1.64623e-14
-1.64339e-14
-1.64085e-14
-1.64677e-14
-1.64409e-14
-1.65341e-14
-1.6521e-14
-1.65451e-14
-1.65512e-14
-1.65472e-14
-1.65471e-14
-1.65482e-14
-1.65436e-14
-1.65499e-14
-1.65391e-14
-1.65519e-14
-1.65474e-14
-1.65561e-14
-1.6553e-14
-1.65554e-14
-1.6553e-14
-1.65542e-14
-1.65558e-14
-1.65552e-14
-1.65563e-14
-1.65553e-14
-1.65563e-14
-1.65553e-14
-1.65563e-14
-1.65554e-14
-1.65564e-14
)
;

boundaryField
{
    walls
    {
        type            zeroGradient;
    }
    inlet
    {
        type            cyclic;
    }
    outlet
    {
        type            cyclic;
    }
    sides
    {
        type            empty;
    }
}


// ************************************************************************* //
