/*--------------------------------*- C++ -*----------------------------------*\
| =========                 |                                                 |
| \\      /  F ield         | OpenFOAM: The Open Source CFD Toolbox           |
|  \\    /   O peration     | Version:  2012                                  |
|   \\  /    A nd           | Website:  www.openfoam.com                      |
|    \\/     M anipulation  |                                                 |
\*---------------------------------------------------------------------------*/
FoamFile
{
    version     2.0;
    format      ascii;
    class       surfaceScalarField;
    location    "15000";
    object      phi;
}
// * * * * * * * * * * * * * * * * * * * * * * * * * * * * * * * * * * * * * //

dimensions      [0 3 -1 0 0 0 0];
oriented        oriented;


internalField   nonuniform List<scalar> 
316
(
4.6983e-06
-7.74442e-20
-2.74058e-21
-4.95447e-20
1.31093e-20
1.95687e-05
-2.81554e-19
1.20456e-19
-4.98386e-20
8.4897e-20
4.67435e-05
-5.14809e-19
1.59346e-19
-1.05729e-19
1.27178e-19
9.17601e-05
-7.01582e-19
1.59438e-19
-2.26542e-19
1.444e-19
0.000154292
-8.25003e-19
1.2778e-19
-3.57843e-19
1.30194e-19
0.000232932
-9.24113e-19
8.51631e-20
-4.84595e-19
1.01289e-19
0.000332054
-9.50611e-19
3.81473e-20
-6.37619e-19
6.52876e-20
0.000458632
-1.05173e-18
-1.41634e-20
-5.39016e-19
2.3364e-20
0.000621227
-8.88409e-19
-5.0293e-20
-5.65658e-19
-3.8879e-20
0.000830507
-7.21656e-19
-9.24519e-20
-5.39265e-19
-8.26904e-20
0.00110002
-4.08987e-19
-1.1498e-19
-5.04322e-19
-1.18281e-19
0.00144716
-2.14619e-19
-1.59275e-19
-3.39959e-19
-1.72866e-19
0.00189431
-2.25805e-19
-2.04152e-19
-8.49879e-20
-1.25628e-19
0.00247027
-6.48071e-20
-1.4766e-19
-2.07352e-19
-1.35964e-19
0.00321204
-4.80739e-20
-1.00545e-19
-3.46706e-20
6.67935e-20
0.00416698
3.98277e-19
2.70733e-19
4.60693e-19
2.29132e-19
0.00539535
1.3254e-19
-6.15651e-19
1.47167e-19
-3.31074e-20
0.00697294
-2.7371e-20
6.45333e-20
-1.35201e-20
3.54064e-19
0.00899253
-7.14191e-19
3.66194e-19
-7.29264e-19
6.54748e-20
0.011556
3.52062e-20
-2.87351e-20
3.08861e-19
-2.727e-20
4.6983e-06
1.30089e-21
1.05226e-20
1.95687e-05
1.23787e-19
1.05973e-19
4.67435e-05
2.77607e-19
2.58842e-19
9.17601e-05
4.13673e-19
4.22691e-19
0.000154292
5.51459e-19
5.64226e-19
0.000232932
6.79665e-19
7.21633e-19
0.000332054
6.90992e-19
7.54245e-19
0.000458632
7.93715e-19
7.43054e-19
0.000621227
6.57641e-19
9.31616e-19
0.000830507
6.79501e-19
7.68964e-19
0.00110002
6.55159e-19
4.94785e-19
0.00144716
6.17393e-19
6.39908e-19
0.00189431
4.90281e-19
5.28497e-19
0.00247027
4.00505e-19
3.86745e-19
0.00321204
3.49587e-19
2.71148e-19
0.00416698
2.43481e-19
4.57751e-19
0.00539535
3.44948e-19
2.81908e-19
0.00697294
4.83303e-20
-5.73735e-21
0.00899253
-7.4517e-19
-7.21432e-19
0.011556
3.65465e-20
-1.95021e-20
0.011556
-1.08338e-19
3.62499e-19
-6.77299e-20
-3.73893e-19
0.00899253
7.4823e-19
-2.44118e-19
6.92011e-19
-3.05822e-19
0.00697294
-9.59889e-20
-6.67661e-19
-1.59241e-19
-5.94247e-19
0.00539535
8.49474e-21
6.61202e-22
9.49735e-20
-2.70621e-19
0.00416698
-3.15082e-19
1.42163e-19
-2.55298e-19
4.82708e-20
0.00321204
-1.03981e-19
-5.70381e-20
-1.14408e-19
3.18514e-20
0.00247027
-4.74823e-20
-1.41833e-19
-4.6399e-20
-5.32037e-20
0.00189431
-8.58007e-20
-6.74119e-20
-4.16786e-20
-4.07589e-20
0.00144716
-4.04802e-20
-1.16574e-20
-2.33492e-20
1.45776e-20
0.00110002
-2.11123e-20
-3.75811e-21
-1.83991e-20
3.78653e-21
0.000830507
3.95226e-20
-3.37502e-21
-1.64627e-20
1.97258e-21
0.000621227
-6.25845e-20
-8.15455e-21
-2.60458e-21
-5.47973e-21
0.000458632
7.20898e-21
-2.24742e-21
-3.74186e-21
-2.1534e-21
0.000332054
-4.93549e-20
-8.55938e-22
2.51059e-20
-1.38526e-21
0.000232932
-4.70904e-20
-1.22568e-22
6.039e-21
-1.29405e-21
0.000154292
-8.87506e-21
2.98758e-22
9.04679e-22
-1.07233e-21
9.17601e-05
-4.62546e-22
3.57126e-22
6.2009e-21
-8.35551e-22
4.67435e-05
7.44382e-23
2.45475e-22
1.8518e-21
-6.1398e-22
1.95687e-05
-5.4123e-22
1.4535e-22
-8.52139e-22
-3.58288e-22
4.6983e-06
-6.39976e-23
2.02338e-23
0.011556
-8.65414e-20
-3.31866e-20
0.00899253
7.23748e-19
6.6859e-19
0.00697294
3.53857e-20
-8.92558e-20
0.00539535
6.75778e-20
2.08678e-19
0.00416698
-4.1724e-19
-2.46428e-19
0.00321204
-1.74325e-19
-1.48053e-19
0.00247027
2.98489e-20
-2.4453e-20
0.00189431
-2.02984e-20
1.89568e-20
0.00144716
-4.94513e-20
-8.79731e-20
0.00110002
-2.6645e-20
-3.57703e-20
0.000830507
-6.38753e-22
-9.479e-20
0.000621227
2.52009e-20
3.4007e-20
0.000458632
4.76858e-20
4.86005e-21
0.000332054
-2.10465e-20
6.5574e-21
0.000232932
-2.63818e-20
-8.40751e-21
0.000154292
-2.73794e-21
-2.80878e-21
9.17601e-05
-4.97641e-21
2.07856e-22
4.67435e-05
-1.09199e-21
6.37943e-22
1.95687e-05
3.68739e-22
-4.10614e-22
4.6983e-06
)
;

boundaryField
{
    walls
    {
        type            calculated;
        value           uniform 0;
    }
    inlet
    {
        type            cyclic;
        value           nonuniform List<scalar> 
80
(
-4.6983e-06
-1.95687e-05
-4.67435e-05
-9.17601e-05
-0.000154292
-0.000232932
-0.000332054
-0.000458632
-0.000621227
-0.000830507
-0.00110002
-0.00144716
-0.00189431
-0.00247027
-0.00321204
-0.00416698
-0.00539535
-0.00697294
-0.00899253
-0.011556
-4.6983e-06
-1.95687e-05
-4.67435e-05
-9.17601e-05
-0.000154292
-0.000232932
-0.000332054
-0.000458632
-0.000621227
-0.000830507
-0.00110002
-0.00144716
-0.00189431
-0.00247027
-0.00321204
-0.00416698
-0.00539535
-0.00697294
-0.00899253
-0.011556
-0.011556
-0.00899253
-0.00697294
-0.00539535
-0.00416698
-0.00321204
-0.00247027
-0.00189431
-0.00144716
-0.00110002
-0.000830507
-0.000621227
-0.000458632
-0.000332054
-0.000232932
-0.000154292
-9.17601e-05
-4.67435e-05
-1.95687e-05
-4.6983e-06
-0.011556
-0.00899253
-0.00697294
-0.00539535
-0.00416698
-0.00321204
-0.00247027
-0.00189431
-0.00144716
-0.00110002
-0.000830507
-0.000621227
-0.000458632
-0.000332054
-0.000232932
-0.000154292
-9.17601e-05
-4.67435e-05
-1.95687e-05
-4.6983e-06
)
;
    }
    outlet
    {
        type            cyclic;
        value           nonuniform List<scalar> 
80
(
4.6983e-06
1.95687e-05
4.67435e-05
9.17601e-05
0.000154292
0.000232932
0.000332054
0.000458632
0.000621227
0.000830507
0.00110002
0.00144716
0.00189431
0.00247027
0.00321204
0.00416698
0.00539535
0.00697294
0.00899253
0.011556
4.6983e-06
1.95687e-05
4.67435e-05
9.17601e-05
0.000154292
0.000232932
0.000332054
0.000458632
0.000621227
0.000830507
0.00110002
0.00144716
0.00189431
0.00247027
0.00321204
0.00416698
0.00539535
0.00697294
0.00899253
0.011556
0.011556
0.00899253
0.00697294
0.00539535
0.00416698
0.00321204
0.00247027
0.00189431
0.00144716
0.00110002
0.000830507
0.000621227
0.000458632
0.000332054
0.000232932
0.000154292
9.17601e-05
4.67435e-05
1.95687e-05
4.6983e-06
0.011556
0.00899253
0.00697294
0.00539535
0.00416698
0.00321204
0.00247027
0.00189431
0.00144716
0.00110002
0.000830507
0.000621227
0.000458632
0.000332054
0.000232932
0.000154292
9.17601e-05
4.67435e-05
1.95687e-05
4.6983e-06
)
;
    }
    sides
    {
        type            empty;
        value           nonuniform List<scalar> 0();
    }
}


// ************************************************************************* //
