/*--------------------------------*- C++ -*----------------------------------*\
| =========                 |                                                 |
| \\      /  F ield         | OpenFOAM: The Open Source CFD Toolbox           |
|  \\    /   O peration     | Version:  2012                                  |
|   \\  /    A nd           | Website:  www.openfoam.com                      |
|    \\/     M anipulation  |                                                 |
\*---------------------------------------------------------------------------*/
FoamFile
{
    version     2.0;
    format      ascii;
    class       volTensorField;
    location    "12000";
    object      grad(U);
}
// * * * * * * * * * * * * * * * * * * * * * * * * * * * * * * * * * * * * * //

dimensions      [0 0 -1 0 0 0 0];


internalField   nonuniform List<tensor> 
320
(
(0 -4.76425e-28 8.03365e-31 35.7196 -2.96641e-12 -1.74126e-13 0.401626 -1.66769e-14 -6.61686e-16)
(-7.53757e-17 -2.82691e-28 -5.35577e-31 35.7196 -5.43384e-15 -1.13356e-16 0.401626 -3.60385e-17 1.56196e-15)
(-2.67923e-16 -8.40926e-27 3.33148e-30 35.6745 8.07325e-28 -7.66782e-14 1.25425 0 -1.31255e-15)
(0 -5.33037e-29 -2.85556e-30 35.6745 -2.28406e-14 -7.62893e-16 1.25425 -3.58203e-16 2.84493e-15)
(4.76165e-16 -5.69202e-28 -8.45839e-31 35.6001 7.0932e-14 -5.06905e-14 2.1505 -2.01886e-15 -1.69986e-15)
(-3.43631e-17 3.38335e-29 8.45839e-31 35.6001 -2.32636e-14 -1.22402e-15 2.1505 -5.99253e-16 3.51645e-15)
(-1.23606e-16 2.32065e-29 1.50326e-30 35.3813 2.67754e-13 -4.94369e-14 2.39697 -1.31193e-14 -2.06191e-15)
(-4.94424e-16 -1.20261e-29 -7.51632e-31 35.3813 -3.20628e-14 -1.56046e-15 2.39697 -1.02856e-15 4.29236e-15)
(0 2.13734e-29 2.00376e-30 34.6452 1.2298e-13 -4.62197e-14 2.61057 -2.16899e-14 -2.50679e-15)
(0 -3.74034e-29 -3.33959e-30 34.6452 -4.1596e-14 -2.64431e-15 2.61057 -1.62478e-15 5.07858e-15)
(1.33651e-15 -4.4185e-29 -1.18706e-30 32.6978 0 -3.39756e-14 2.69972 -1.26218e-29 -2.20245e-15)
(-4.76898e-15 9.49645e-30 2.37411e-30 32.6978 -4.85014e-14 -3.7737e-15 2.69972 -2.54639e-15 5.66025e-15)
(0 8.43877e-30 1.05485e-30 29.0462 5.01674e-14 -1.72294e-14 2.59748 -4.03785e-15 -8.6437e-16)
(2.52231e-15 0 0 29.0462 -4.85916e-14 -4.07327e-15 2.59748 -3.63279e-15 5.79416e-15)
(-2.74482e-15 3.33998e-29 -3.69667e-30 24.1651 5.3664e-14 -8.57885e-16 2.35314 -5.18959e-15 -4.40659e-17)
(1.05538e-15 -2.24967e-29 -5.62417e-30 24.1651 -4.6884e-14 -3.54425e-15 2.35314 -4.79336e-15 5.44937e-15)
(-1.87566e-15 3.99822e-29 1.4013e-45 19.2107 5.13684e-14 8.67348e-30 2.07208 -5.8769e-15 -3.9443e-31)
(-4.18804e-15 -3.33185e-29 -4.99777e-30 19.2107 -4.4033e-14 -2.81717e-15 2.07208 -6.07988e-15 4.8076e-15)
(0 1.77646e-29 1.48038e-30 15.0091 4.64711e-14 1.67703e-16 1.81821 -6.00794e-15 -1.16646e-16)
(0 -5.92152e-30 0 15.0091 -3.99254e-14 -2.35147e-15 1.81821 -7.40942e-15 4.05457e-15)
(-1.3813e-15 4.77068e-30 1.76244e-30 11.745 4.25028e-14 -1.62353e-15 1.6084 -6.08829e-15 -4.09634e-16)
(5.52521e-15 0 0 11.745 -3.61029e-14 -1.87494e-15 1.6084 -8.6727e-15 3.23649e-15)
(0 0 -1.16899e-30 9.27966 3.90898e-14 -3.4739e-15 1.43932 -6.37358e-15 -7.55425e-16)
(0 0 1.16899e-30 9.27966 -3.23986e-14 -1.69525e-15 1.43932 -1.00009e-14 2.43261e-15)
(7.03968e-16 -3.97829e-30 -1.67735e-30 7.41707 3.5473e-14 -5.0131e-15 1.30291 -6.51502e-15 -1.12526e-15)
(6.5407e-15 8.31031e-30 3.11636e-30 7.41707 -2.93507e-14 -1.44188e-15 1.30291 -1.13264e-14 1.55326e-15)
(1.74104e-15 -4.12336e-30 5.12989e-31 5.99371 3.19211e-14 -6.07151e-15 1.19157 -6.64621e-15 -1.42599e-15)
(-2.07862e-15 0 -9.23092e-31 5.99371 -2.58706e-14 -9.39228e-16 1.19157 -1.2702e-14 6.87143e-16)
(-1.83653e-15 -9.21153e-30 -4.48286e-30 4.88996 2.83461e-14 -6.55043e-15 1.0992 -6.67549e-15 -1.66399e-15)
(1.46923e-14 1.96868e-29 6.56225e-30 4.88996 -2.21251e-14 3.24072e-15 1.0992 -1.42054e-14 -8.96886e-16)
(0 -5.83137e-30 -8.37252e-30 4.02139 2.53656e-14 -9.64139e-16 1.02123 -6.63269e-15 -1.27371e-16)
(0 5.83137e-30 4.37353e-30 4.02139 -1.90379e-14 -2.70825e-15 1.02123 -1.57784e-14 -4.47319e-16)
(0 -5.1819e-30 -2.8026e-45 3.32866 2.29312e-14 1.57772e-30 0.954248 -6.78002e-15 -7.88861e-31)
(8.01515e-15 5.1819e-30 1.29547e-30 3.32866 -1.58106e-14 -1.17752e-14 0.954248 -1.72666e-14 -1.30989e-15)
(-2.59225e-15 9.20952e-30 1.15119e-30 2.76961 2.08127e-14 1.13751e-14 0.895715 -6.86109e-15 -4.2276e-15)
(0 0 0 2.76961 -1.08029e-14 -9.49699e-15 0.895715 -1.881e-14 -2.12289e-15)
(-2.30353e-15 0 0 2.31391 1.79444e-14 3.42538e-15 0.843762 -7.07957e-15 -1.44359e-15)
(1.71799e-14 0 0 2.31391 -5.5712e-15 -7.66452e-15 0.843762 -1.98971e-14 -2.81546e-15)
(-2.21252e-15 2.97549e-30 3.94469e-31 1.93936 1.36692e-14 2.77982e-15 0.797004 -6.39339e-15 -1.11668e-15)
(0 0 0 1.93936 -3.67704e-15 -5.95948e-15 0.797004 -2.06986e-14 -3.57174e-15)
(2.27374e-15 -3.04096e-30 -3.49868e-31 1.62942 1.12097e-14 2.53765e-15 0.754423 -5.11531e-15 -1.24677e-15)
(0 0 0 1.62942 -4.58734e-16 -3.21229e-15 0.754423 -1.61658e-14 -4.10393e-15)
(4.66303e-15 -1.7146e-29 -3.6176e-30 1.3716 1.07563e-14 2.2541e-15 0.715273 -5.60391e-15 -1.16872e-15)
(0 0 0 1.3716 1.11513e-15 -1.83967e-15 0.715273 -1.18617e-14 -3.41042e-15)
(0 0 0 1.15626 8.79368e-15 9.56018e-17 0.679014 -5.96086e-15 -1.29017e-15)
(-9.54472e-15 9.27418e-30 1.8687e-30 1.15626 9.31347e-16 -8.91176e-17 0.679014 -5.70993e-15 -9.78632e-16)
(2.55279e-15 -9.06931e-30 -1.67901e-31 0.97585 5.74684e-15 -7.26372e-30 0.645256 -4.57783e-15 -7.88861e-31)
(7.19914e-15 -1.14038e-29 -2.33457e-31 0.97585 4.08406e-15 1.65312e-15 0.645256 -2.54218e-15 -3.47814e-15)
(-4.97427e-15 5.91142e-30 1.03631e-30 0.824376 4.86403e-15 1.75662e-15 0.613705 -3.1483e-15 -1.15503e-15)
(0 0 0 0.824376 4.65476e-15 1.66633e-15 0.613705 -4.31161e-15 -3.34972e-15)
(0 0 0 0.69698 5.10853e-15 1.75847e-15 0.584134 -4.36247e-15 -1.55518e-15)
(0 0 0 0.69698 3.58897e-15 9.51365e-16 0.584134 -2.71323e-15 -3.07394e-15)
(3.5826e-15 0 0 0.589681 3.60687e-15 2.61964e-15 0.55634 -4.43413e-15 -1.46611e-15)
(0 0 0 0.589681 2.70102e-15 6.17181e-16 0.55634 -3.51083e-15 -1.87382e-15)
(0 0 0 0.499179 2.76325e-15 2.99736e-15 0.530118 -2.43381e-15 -2.91726e-15)
(3.18358e-15 0 0 0.499179 1.61219e-15 1.85209e-15 0.530118 -1.60841e-15 -1.27881e-15)
(0 5.02533e-30 0 0.422714 2.63882e-15 8.74718e-16 0.505234 -3.66132e-15 -2.68931e-15)
(1.06428e-14 -1.73727e-29 0 0.422714 2.53588e-15 1.06693e-15 0.505234 -1.92412e-15 -2.80542e-15)
(0 0 -1.11641e-30 0.357962 1.82478e-15 -4.35001e-16 0.481402 -2.75781e-15 -3.82468e-16)
(8.28231e-15 -1.08121e-29 -7.45599e-31 0.357962 2.61931e-15 -2.59823e-16 0.481402 -4.44442e-15 -2.81519e-16)
(0 0 -3.56035e-31 0.302955 2.60907e-15 2.92156e-18 0.458251 -2.24891e-15 -2.26869e-18)
(1.09427e-14 -1.1629e-29 -1.75162e-46 0.302955 2.06967e-15 7.87309e-30 0.458251 -2.68138e-15 -1.89469e-46)
(0 0 0 0.256017 2.88815e-15 2.74931e-15 0.435287 -6.08122e-15 -1.99354e-15)
(1.8195e-14 -2.08364e-29 0 0.256017 2.92224e-15 3.53053e-15 0.435287 -3.81409e-15 -2.56023e-15)
(0 0 2.44808e-31 0.215711 1.53221e-15 1.67955e-16 0.411839 -3.8846e-15 1.24456e-15)
(0 0 -4.40655e-31 0.215711 2.39157e-15 2.40248e-16 0.411839 -6.56251e-15 1.2717e-15)
(-2.83615e-15 2.63864e-30 0 0.180787 1.08601e-15 -3.76572e-15 0.386956 -2.12436e-15 -1.60516e-15)
(0 0 0 0.180787 8.28141e-16 -5.29889e-15 0.386956 -2.61185e-15 -1.6495e-15)
(-2.78594e-15 2.47441e-30 1.23721e-30 0.150123 9.62124e-16 -2.51837e-15 0.359223 -2.82044e-15 2.82996e-15)
(-2.78594e-15 2.47441e-30 0 0.150123 5.60323e-16 0 0.359223 -9.56334e-16 1.73139e-15)
(-4.9513e-15 0 0 0.12265 7.16027e-16 0 0.326378 -1.9191e-15 -2.69796e-46)
(1.15853e-14 -4.49554e-30 0 0.12265 8.65078e-16 2.08358e-15 0.326378 -1.8899e-15 8.02445e-16)
(-2.92479e-15 2.12639e-30 0 0.0972232 1.03009e-15 1.55338e-15 0.284463 -2.10575e-15 3.44927e-16)
(0 0 0 0.0972232 1.08849e-15 1.0256e-15 0.284463 -3.02651e-15 1.68533e-16)
(-2.95265e-15 1.60567e-30 -8.68152e-31 0.0723863 3.4701e-17 -3.05644e-15 0.225954 -4.53568e-15 8.36293e-16)
(-1.18106e-14 5.39985e-31 8.68152e-31 0.0723863 1.2819e-30 -2.67821e-15 0.225954 -3.891e-15 1.65488e-16)
(0 1.15082e-42 0 0.0460878 1.29478e-28 1.34011e-29 0.136982 -3.15544e-30 -1.97215e-31)
(0 -3.08584e-30 0 0.0460878 6.66511e-17 1.64679e-15 0.136982 -6.1533e-16 7.03732e-16)
(3.01218e-15 -1.8631e-30 -4.50946e-31 1.97585e-14 8.24905e-16 2.8927e-15 4.61863e-14 -1.85397e-15 -1.78677e-15)
(0 0 7.28384e-31 7.9034e-15 6.45665e-16 4.272e-15 1.77646e-14 -1.45113e-15 -1.76005e-16)
(-7.53757e-17 0 0 35.7196 -1.66471e-15 8.79924e-14 -0.401626 1.66769e-14 6.61686e-16)
(0 0 0 35.7196 -1.63757e-16 1.92827e-13 -0.401626 3.60385e-17 -1.56196e-15)
(0 5.20544e-32 1.9037e-30 35.6745 -3.30027e-15 3.5016e-14 -1.25425 5.40431e-14 1.31255e-15)
(0 -5.20544e-32 -1.9531e-30 35.6745 2.40342e-16 7.9466e-14 -1.25425 3.58203e-16 -2.75594e-15)
(0 2.64325e-32 8.45839e-31 35.6001 -3.28093e-15 2.43096e-14 -2.1505 5.35711e-14 1.69986e-15)
(-3.43631e-17 0 -1.03642e-30 35.6001 1.0066e-16 5.1863e-14 -2.1505 5.99253e-16 -3.17313e-15)
(4.23131e-16 -2.34885e-32 0 35.3813 -4.57175e-15 2.43956e-14 -2.39697 5.03537e-14 2.06191e-15)
(4.94424e-16 2.34885e-32 5.62467e-31 35.3813 3.51618e-16 5.03135e-14 -2.39697 1.02856e-15 -3.27911e-15)
(2.60287e-16 0 0 34.6452 -5.32205e-15 2.14348e-14 -2.61057 4.50166e-14 2.50679e-15)
(0 2.67767e-31 0 34.6452 0 4.093e-14 -2.61057 1.62478e-15 -2.58074e-15)
(4.29059e-16 1.48382e-31 1.18706e-30 32.6978 -5.60651e-15 1.4626e-14 -2.69972 4.6516e-14 2.95546e-15)
(-3.43247e-15 -1.48382e-31 -6.4716e-30 32.6978 -7.64891e-16 2.20667e-14 -2.69972 2.54639e-15 -9.00355e-16)
(0 2.63712e-31 2.10969e-30 29.0462 -5.73536e-15 6.35133e-15 -2.59748 4.5627e-14 3.28458e-15)
(-1.18765e-15 -1.31856e-31 -3.50325e-46 29.0462 -5.39941e-16 0 -2.59748 3.63279e-15 -7.88861e-31)
(-1.68945e-15 1.1717e-31 1.87472e-30 24.1651 -6.53654e-15 4.38218e-16 -2.35314 4.44722e-14 3.44186e-15)
(-4.43427e-15 0 -4.34502e-30 24.1651 -2.46142e-16 -1.53214e-14 -2.35314 4.79336e-15 -9.9928e-16)
(2.92267e-15 -8.32962e-31 0 19.2107 -6.1603e-15 -2.18863e-15 -2.07208 4.31993e-14 3.49514e-15)
(-4.18804e-15 6.24722e-31 2.29922e-31 19.2107 -1.18073e-15 -2.11992e-14 -2.07208 6.07988e-15 -2.22073e-15)
(0 -1.85047e-31 0 15.0091 -4.47226e-15 -2.22615e-15 -1.81821 4.18548e-14 3.55285e-15)
(4.90408e-15 3.70095e-31 7.4657e-31 15.0091 5.47348e-18 -2.17424e-14 -1.81821 7.40942e-15 -2.70967e-15)
(0 6.5775e-31 -1.3155e-30 11.745 -4.34134e-15 -1.43782e-15 -1.6084 4.04646e-14 3.6302e-15)
(-1.48112e-15 1.89085e-30 0 11.745 4.81596e-16 -2.02941e-14 -1.6084 8.6727e-15 -2.96247e-15)
(0 -2.92246e-31 0 9.27966 -5.84549e-15 -1.07178e-15 -1.43932 3.90605e-14 3.7813e-15)
(-6.06549e-15 2.92246e-31 0 9.27966 1.82525e-16 -1.86842e-14 -1.43932 1.00009e-14 -2.43261e-15)
(7.03968e-16 -5.19394e-31 1.03879e-30 7.41707 -6.34854e-15 -1.36549e-15 -1.30291 3.77305e-14 4.00919e-15)
(6.5407e-15 5.19394e-31 0 7.41707 2.45035e-16 -1.73955e-14 -1.30291 1.13264e-14 -1.55326e-15)
(1.74104e-15 -9.23092e-31 0 5.99371 -4.57948e-15 -1.71766e-15 -1.19157 3.63582e-14 4.38109e-15)
(6.96414e-15 -2.8026e-45 0 5.99371 2.02444e-43 -2.21419e-14 -1.19157 1.2702e-14 -6.87143e-16)
(3.68364e-15 8.20282e-31 -8.20282e-31 4.88996 -4.26742e-15 -1.40327e-15 -1.0992 3.48715e-14 4.82606e-15)
(-1.84711e-15 -8.20282e-31 8.20282e-31 4.88996 -4.04534e-15 -1.39259e-14 -1.0992 1.42054e-14 8.96886e-16)
(0 -7.28922e-31 1.09338e-30 4.02139 -4.90044e-15 -1.86379e-15 -1.02123 3.35407e-14 5.31755e-15)
(0 3.64461e-31 -1.09338e-30 4.02139 -4.17215e-15 1.6771e-16 -1.02123 1.57784e-14 4.47319e-16)
(0 6.47737e-31 -9.71606e-31 3.32866 -3.14183e-15 -2.38452e-15 -0.954248 3.21652e-14 5.52608e-15)
(-2.91715e-15 -6.47737e-31 3.23869e-31 3.32866 -4.55974e-15 4.84852e-16 -0.954248 1.72666e-14 1.30989e-15)
(2.07812e-15 0 1.15119e-30 2.76961 -2.19116e-15 -2.23813e-15 -0.895715 3.05867e-14 4.2276e-15)
(0 0 -1.15119e-30 2.76961 -5.0811e-15 4.55271e-16 -0.895715 1.881e-14 2.12289e-15)
(-2.30353e-15 2.04595e-30 -1.79021e-30 2.31391 -3.22476e-15 -1.98127e-15 -0.843762 2.90525e-14 4.06443e-15)
(1.08935e-14 -2.04595e-30 1.79021e-30 2.31391 -4.54941e-15 -1.12212e-17 -0.843762 1.98971e-14 2.81546e-15)
(-2.21252e-15 0 -6.8178e-31 1.93936 -3.99777e-15 -1.40385e-15 -0.797004 2.78341e-14 3.95913e-15)
(0 0 2.2726e-31 1.93936 -4.76403e-15 -1.84459e-16 -0.797004 2.06986e-14 3.57174e-15)
(5.91172e-15 0 -1.89071e-31 1.62942 -3.56747e-15 -2.01996e-15 -0.754423 2.70277e-14 3.76784e-15)
(-2.18279e-14 0 2.01949e-31 1.62942 -4.5003e-15 1.23107e-15 -0.754423 2.16971e-14 4.10393e-15)
(4.66303e-15 1.43565e-30 -5.38369e-31 1.3716 -3.61889e-15 -2.45432e-15 -0.715273 2.59989e-14 3.85755e-15)
(0 1.43565e-30 1.79456e-31 1.3716 -3.69791e-15 1.03685e-15 -0.715273 2.18298e-14 4.007e-15)
(0 0 -4.78407e-31 1.15626 -4.51105e-15 -2.97975e-15 -0.679014 2.51217e-14 3.81368e-15)
(-1.90894e-14 0 3.18938e-31 1.15626 -5.07409e-15 2.94628e-16 -0.679014 2.24168e-14 4.34498e-15)
(-2.43798e-15 2.26733e-30 0 0.97585 -3.74236e-15 -3.11034e-15 -0.645256 2.47348e-14 4.78842e-15)
(-1.95039e-14 -2.26733e-30 -2.34559e-31 0.97585 -5.25635e-15 -6.31089e-30 -0.645256 2.30855e-14 3.8987e-15)
(2.48713e-15 0 0 0.824376 -2.60632e-15 -1.16335e-15 -0.613705 2.44464e-14 4.88875e-15)
(-1.2217e-14 2.0148e-30 -6.29626e-32 0.824376 -4.66521e-15 4.426e-16 -0.613705 2.27563e-14 3.64227e-15)
(-4.03163e-15 1.7904e-30 8.95201e-31 0.69698 -2.91741e-15 6.93758e-16 -0.584134 2.38536e-14 4.5348e-15)
(-6.10366e-15 -1.7904e-30 0 0.69698 -5.33798e-15 -3.96575e-30 -0.584134 2.3131e-14 3.07394e-15)
(0 0 -1.75162e-46 0.589681 -3.36857e-15 -3.45145e-45 -0.55634 2.35189e-14 3.81184e-15)
(-1.03128e-14 0 7.45778e-32 0.589681 -4.05749e-15 -9.95483e-16 -0.55634 2.3509e-14 3.77733e-15)
(5.24091e-15 0 3.31945e-31 0.499179 -3.05757e-15 -3.00184e-16 -0.530118 2.37729e-14 2.91726e-15)
(0 0 -4.41811e-32 0.499179 -2.80767e-15 -4.44141e-17 -0.530118 2.37816e-14 3.18044e-15)
(0 0 0 0.422714 -2.92627e-15 -1.48058e-15 -0.505234 2.18086e-14 2.68931e-15)
(0 5.02533e-30 0 0.422714 -2.82508e-15 -1.69363e-15 -0.505234 2.26292e-14 2.80542e-15)
(2.51392e-15 -4.46562e-30 -5.58203e-31 0.357962 -2.05846e-15 -1.43911e-15 -0.481402 1.5024e-14 3.34062e-15)
(-2.51392e-15 4.46562e-30 5.58203e-31 0.357962 -1.84527e-15 -5.28309e-16 -0.481402 1.4722e-14 3.63581e-15)
(0 0 4.96032e-31 0.302955 1.75237e-16 5.36003e-16 -0.458251 1.12688e-14 3.98194e-15)
(1.09427e-14 -3.30667e-30 1.69921e-31 0.302955 -4.01766e-16 0 -0.458251 1.05249e-14 3.27927e-15)
(1.57107e-15 -3.88985e-30 -3.3059e-31 0.256017 0 3.14728e-15 -0.435287 7.46104e-15 1.99354e-15)
(1.50529e-14 -8.59952e-30 5.50983e-31 0.256017 2.29943e-16 1.46729e-15 -0.435287 7.09036e-15 2.56023e-15)
(9.86023e-15 -2.55859e-30 1.12321e-30 0.215711 -9.10372e-16 9.86076e-32 -0.411839 2.56759e-15 -3.34213e-31)
(1.53768e-14 -2.20708e-29 -7.83386e-31 0.215711 1.47784e-16 1.09084e-15 -0.411839 9.54866e-16 -1.2717e-15)
(-2.9897e-16 -3.45946e-45 -8.7017e-32 0.180787 1.31938e-45 4.81014e-15 -0.386956 6.31089e-30 1.60516e-15)
(0 2.78454e-30 0 0.180787 1.57406e-15 5.37845e-15 -0.386956 2.2834e-15 1.6495e-15)
(8.0907e-17 1.19204e-30 0 0.150123 8.71586e-16 0 -0.359223 8.44789e-15 -3.9443e-31)
(-1.14674e-14 4.02451e-30 1.18321e-30 0.150123 -1.14856e-44 3.40009e-16 -0.359223 7.24992e-15 -4.23427e-16)
(5.79266e-15 -4.76346e-30 -2.19882e-30 0.12265 -9.14719e-17 -3.1943e-15 -0.326378 8.59778e-16 1.51991e-17)
(1.15853e-14 -8.9792e-30 2.19882e-30 0.12265 -1.91916e-16 -3.21118e-15 -0.326378 1.73494e-15 -8.02445e-16)
(2.92479e-15 -2.39368e-30 0 0.0972232 1.71253e-16 -1.01837e-15 -0.284463 2.70079e-16 -3.44927e-16)
(-1.6099e-14 1.1143e-29 -9.76962e-31 0.0972232 3.42604e-16 -1.45308e-15 -0.284463 5.40312e-16 -1.68533e-16)
(2.95265e-15 -1.95721e-30 0 0.0723863 1.01393e-15 2.10617e-15 -0.225954 1.79946e-15 -8.36293e-16)
(-1.18106e-14 7.31954e-30 -8.68152e-31 0.0723863 1.10143e-15 2.96179e-15 -0.225954 2.36631e-15 -1.65488e-16)
(2.98068e-15 -1.1484e-30 3.08584e-30 0.0460878 1.74018e-16 -1.92262e-15 -0.136982 6.40569e-15 1.50883e-15)
(-3.47435e-15 -7.00649e-45 -9.12792e-60 0.0460878 -1.57772e-30 -2.05542e-45 -0.136982 5.64607e-15 7.395e-30)
(1.99269e-18 -1.92679e-45 3.42769e-31 0 0 -5.63872e-15 3.5567e-15 -3.25015e-30 1.78677e-15)
(7.97076e-18 0 -1.63945e-30 7.9034e-15 5.51856e-16 -1.44297e-15 -1.77636e-14 3.49103e-15 1.76005e-16)
(-3.0072e-15 6.89148e-31 2.05661e-30 -1.53541e-09 9.98078e-16 2.32245e-15 3.4504e-09 -6.5824e-15 -4.29803e-15)
(-3.98538e-18 0 -2.05661e-30 -1.53522e-09 7.32383e-16 2.07011e-15 3.4504e-09 -5.23858e-15 1.41356e-15)
(-2.98068e-15 9.88554e-31 1.54292e-30 -0.0460878 4.40849e-16 1.01319e-15 0.136982 -2.25719e-15 2.9611e-15)
(8.44837e-15 -1.78845e-30 2.79559e-43 -0.0460878 6.07859e-16 -3.14402e-29 0.136982 -1.2706e-15 -3.9443e-31)
(2.95265e-15 -1.30961e-30 7.59672e-31 -0.0723863 7.43712e-16 -2.49125e-15 0.225954 -1.3199e-15 -9.39614e-16)
(-1.18106e-14 6.91154e-30 0 -0.0723863 1.70963e-15 -6.3635e-15 0.225954 -3.45651e-15 -2.52524e-15)
(-7.32464e-15 3.11449e-32 1.81271e-30 -0.0972232 1.14252e-15 -1.09865e-15 0.284463 -5.95254e-15 -1.16529e-15)
(2.77982e-14 9.80167e-31 -3.69242e-43 -0.0972232 1.68967e-15 -1.38599e-29 0.284463 -6.04703e-15 9.86076e-32)
(0 0 1.23684e-30 -0.12265 8.22635e-16 2.8759e-15 0.326378 -4.19448e-15 1.78512e-15)
(-1.65366e-14 0 -2.16928e-30 -0.12265 0 0 0.326378 -2.66473e-15 0)
(2.86685e-15 4.13832e-31 0 -0.150123 -4.43734e-31 -8.06241e-16 0.359223 -2.98197e-15 -2.4694e-15)
(-1.42533e-14 3.39096e-30 0 -0.150123 6.9239e-18 -3.34007e-15 0.359223 -8.62262e-18 -1.52022e-15)
(3.13512e-15 -1.55575e-61 -1.39227e-30 -0.180787 9.86076e-32 3.62629e-16 0.386956 1.21543e-61 -4.63215e-16)
(0 0 1.76201e-31 -0.180787 1.32104e-15 0 0.386956 -2.55571e-15 0)
(7.05612e-15 0 0 -0.215711 1.79616e-15 9.31583e-16 0.411839 -2.12258e-15 7.21827e-16)
(-7.05612e-15 0 0 -0.215711 1.18143e-15 2.40738e-15 0.411839 -1.35029e-15 3.41636e-16)
(-2.77066e-15 0 2.18953e-47 -0.256017 1.78626e-15 -2.46519e-31 0.435287 -9.73133e-16 -2.31756e-47)
(0 0 0 -0.256017 1.36473e-15 4.56268e-16 0.435287 -2.77696e-16 3.30026e-16)
(1.73219e-15 6.22184e-32 -2.48016e-31 -0.302955 8.36071e-30 8.32026e-16 0.458251 1.97215e-31 3.91425e-16)
(6.47483e-15 2.26138e-31 2.48016e-31 -0.302955 2.19567e-16 9.17667e-16 0.458251 1.70501e-16 4.28514e-16)
(2.51392e-15 6.97754e-32 5.58203e-31 -0.357962 -1.41461e-15 1.4771e-15 0.481402 3.25362e-16 -1.20093e-15)
(-2.15925e-14 -3.48877e-32 -1.4013e-45 -0.357962 -1.36761e-15 1.97215e-31 0.481402 4.84915e-16 -4.64419e-16)
(2.82901e-15 -3.99312e-31 0 -0.422714 -1.73507e-17 7.40189e-16 0.505234 2.98983e-17 2.51153e-16)
(0 1.4013e-45 0 -0.422714 -1.47911e-31 -5.36182e-16 0.505234 -5.26098e-46 -4.03826e-16)
(0 2.18953e-47 0 -0.499179 7.39557e-32 2.34114e-16 0.530118 -1.67232e-47 -6.70289e-17)
(1.04818e-14 0 3.05198e-31 -0.499179 -2.18065e-16 -3.85093e-30 0.530118 -2.82047e-16 -4.93038e-32)
(-1.00439e-15 0 -1.98874e-31 -0.589681 8.07337e-16 6.23151e-16 0.55634 -2.75016e-16 2.04446e-16)
(1.03128e-14 2.18953e-47 9.94371e-32 -0.589681 0 3.74667e-16 0.55634 2.1496e-47 1.18291e-16)
(2.53382e-15 -8.39251e-32 2.7975e-31 -0.69698 9.89484e-16 -5.05995e-16 0.584134 -2.57513e-16 1.39124e-16)
(2.02706e-14 9.75625e-31 -5.42386e-31 -0.69698 6.48748e-16 5.06322e-16 0.584134 -1.96378e-16 -2.1786e-16)
(0 1.57406e-32 0 -0.824376 3.77308e-16 0 0.613705 -1.50221e-16 5.48009e-17)
(-1.2217e-14 0 0 -0.824376 -9.86076e-32 6.36656e-16 0.613705 -2.81709e-16 -1.32371e-16)
(2.43798e-15 5.71631e-32 1.06281e-31 -0.97585 0 6.46529e-16 0.645256 -4.11903e-16 5.08854e-16)
(9.75193e-15 -1.23995e-31 -1.34766e-31 -0.97585 -1.54446e-16 1.65148e-16 0.645256 -6.32349e-16 -9.62368e-17)
(-2.38618e-15 5.47881e-32 0 -1.15626 -5.80251e-16 -9.31836e-16 0.679014 -4.09088e-16 3.42303e-16)
(9.54472e-15 -9.96682e-33 -3.972e-32 -1.15626 5.97529e-16 4.18751e-16 0.679014 -4.71722e-16 -1.26433e-16)
(-2.33152e-15 -2.2432e-32 -4.02389e-32 -1.3716 -3.93605e-16 1.2326e-31 0.715273 -5.81726e-16 2.01922e-16)
(0 0 6.72961e-32 -1.3716 -5.97709e-46 7.1836e-16 0.715273 -3.2703e-16 7.96684e-17)
(2.27374e-15 0 -9.15079e-32 -1.62942 9.09752e-16 -1.95607e-17 0.754423 -7.18469e-16 1.80142e-16)
(9.09494e-15 0 2.07862e-31 -1.62942 -5.24447e-16 1.63929e-16 0.754423 -7.12748e-16 3.90837e-17)
(-2.21252e-15 1.26641e-31 1.1363e-31 -1.93936 -2.46519e-31 -6.39154e-16 0.797004 -3.89632e-16 9.73182e-17)
(-2.04697e-15 7.10187e-32 -4.38524e-32 -1.93936 6.69142e-16 2.60934e-30 0.797004 -4.84287e-16 0)
(1.56047e-16 0 -1.13981e-32 -2.31391 -4.2908e-17 7.39557e-32 0.843762 -4.3373e-16 8.21317e-17)
(-2.30353e-15 0 1.91808e-31 -2.31391 5.49458e-16 -6.62092e-16 0.843762 -4.89767e-16 2.39155e-17)
(0 8.17969e-47 -3.59747e-32 -2.76961 0 1.10325e-16 0.895715 -3.37865e-16 8.34102e-17)
(0 -1.12421e-32 3.59747e-32 -2.76961 -6.46687e-16 -8.50088e-16 0.895715 -2.94014e-16 -4.83704e-17)
(3.83051e-15 -4.04836e-32 -2.02418e-31 -3.32866 -2.02942e-15 -3.35954e-16 0.954248 -2.95318e-16 -1.29717e-17)
(0 -4.04836e-32 1.61934e-31 -3.32866 -1.45796e-15 -6.52792e-16 0.954248 -3.92944e-16 -6.18441e-17)
(0 -1.38121e-30 9.11152e-32 -4.02139 -5.86533e-30 -4.89854e-16 1.02123 -9.86076e-32 2.42426e-17)
(0 9.11152e-32 0 -4.02139 1.92415e-16 3.53591e-16 1.02123 -1.79788e-16 -1.5534e-16)
(1.83653e-15 -3.02987e-30 -3.0925e-32 -4.88996 5.67381e-16 -5.61125e-31 1.0992 -6.66074e-17 1.2326e-32)
(-9.19325e-15 0 0 -4.88996 8.51471e-16 8.40947e-16 1.0992 -1.94786e-16 -6.34778e-17)
(1.74104e-15 0 2.88466e-32 -5.99371 1.93635e-15 3.72156e-16 1.19157 -1.78877e-16 -8.776e-17)
(6.96414e-15 -1.3131e-32 -6.56859e-46 -5.99371 1.06244e-15 -6.08186e-32 1.19157 -1.10833e-16 -4.57174e-17)
(2.33914e-15 -2.02888e-32 8.75812e-47 -7.41707 1.7528e-16 -1.47911e-31 1.30291 -3.72224e-17 -9.45845e-47)
(0 -7.32051e-33 6.49243e-32 -7.41707 1.97215e-31 -6.48038e-16 1.30291 -5.27499e-17 -4.4273e-17)
(0 -4.24917e-31 -7.30616e-32 -9.27966 -5.14487e-16 -1.39551e-16 1.43932 -4.23815e-17 -4.58692e-17)
(0 4.56635e-32 7.30616e-32 -9.27966 -1.10644e-16 -2.15381e-17 1.43932 -4.36083e-17 -7.71949e-17)
(-2.7626e-15 0 0 -11.745 4.93038e-31 -2.46519e-31 1.6084 -3.03858e-63 -3.72226e-62)
(5.52521e-15 6.16641e-32 4.11094e-32 -11.745 4.75848e-16 4.31718e-16 1.6084 5.71746e-17 -4.32109e-17)
(0 5.20446e-32 -5.91184e-31 -15.0091 7.9639e-16 1.7817e-16 1.81821 -9.24494e-17 -1.15897e-17)
(-6.57084e-15 -6.62909e-32 -9.25237e-32 -15.0091 6.9134e-16 1.3763e-16 1.81821 4.94026e-17 -3.89317e-17)
(-1.04701e-15 -8.1344e-33 -5.20601e-32 -19.2107 7.95194e-16 5.60176e-16 2.07208 -5.78263e-17 -5.06618e-17)
(0 -5.47382e-48 5.20601e-32 -19.2107 -1.97215e-31 -1.28142e-16 2.07208 0 -5.66074e-17)
(8.44723e-16 -3.29541e-32 -5.85851e-32 -24.1651 7.81057e-16 5.24823e-16 2.35314 -2.61447e-17 -3.86239e-17)
(0 3.29541e-32 5.85851e-32 -24.1651 -2.73022e-16 -4.45041e-17 2.35314 1.40239e-17 -5.81228e-17)
(-6.30578e-16 4.1205e-33 3.2964e-32 -29.0462 8.04375e-16 6.76165e-16 2.59748 -8.16286e-18 -3.15153e-17)
(2.52231e-15 8.24099e-33 0 -29.0462 -7.28495e-16 9.9423e-18 2.59748 4.1823e-17 -6.51592e-17)
(1.33651e-15 -4.63694e-33 -3.70955e-32 -32.6978 -1.68436e-16 1.13048e-15 2.69972 -6.90194e-19 -2.59089e-17)
(3.79729e-16 9.27388e-33 3.70955e-32 -32.6978 -6.29634e-16 1.74443e-16 2.69972 3.08197e-17 -6.82059e-17)
(2.60287e-16 -6.12527e-30 -1.46107e-31 -34.6452 -4.95529e-31 1.50391e-15 2.61057 0 -2.01469e-17)
(1.04115e-15 3.85651e-32 1.25235e-31 -34.6452 -3.3549e-16 3.03941e-16 2.61057 2.18976e-17 -5.99085e-17)
(-1.23606e-16 2.93481e-33 0 -35.3813 2.72306e-16 1.59223e-15 2.39697 -9.82229e-18 -1.62575e-17)
(0 5.78038e-33 4.6977e-32 -35.3813 -3.35937e-16 3.28704e-16 2.39697 1.31312e-17 -4.99031e-17)
(8.59076e-18 -4.74958e-33 -2.64325e-32 -35.6001 4.9949e-16 1.56873e-15 2.1505 -1.06675e-17 -1.22291e-17)
(3.43631e-17 7.64063e-33 2.64325e-32 -35.6001 -4.05826e-16 3.41209e-16 2.1505 6.75774e-18 -4.02106e-17)
(0 4.64772e-34 0 -35.6745 2.79321e-16 3.22607e-15 1.25425 -3.14235e-18 -9.80558e-18)
(-2.67923e-16 -9.29544e-34 0 -35.6745 -2.68263e-16 6.83657e-16 1.25425 3.44118e-18 -3.23022e-17)
(0 -2.13774e-34 0 -35.7196 -2.05268e-48 4.47867e-15 0.401627 -9.62965e-35 -7.66442e-18)
(0 1.30756e-34 4.18419e-33 -35.7196 -9.87979e-17 1.08206e-15 0.401627 -2.001e-20 -7.29187e-18)
(6.09858e-15 2.20391e-30 0 -1.53524e-09 1.60867e-15 0 -3.45044e-09 7.6698e-15 7.88861e-31)
(-6.17079e-15 -1.37108e-30 -2.74215e-30 -1.53542e-09 1.14272e-15 -3.71447e-16 -3.45041e-09 5.85489e-15 -1.41356e-15)
(4.9367e-16 -1.61149e-44 0 -0.0460878 -1.82424e-30 3.38862e-16 -0.136982 6.41384e-15 -2.9611e-15)
(-3.47435e-15 0 0 -0.0460878 2.45257e-16 -7.47675e-16 -0.136982 4.98902e-15 -3.51765e-15)
(-2.95265e-15 0 0 -0.0723863 -1.25499e-44 -3.69505e-45 -0.225954 -6.31089e-30 -3.116e-29)
(-1.18106e-14 6.82369e-30 -6.52855e-31 -0.0723863 9.81664e-17 2.11335e-15 -0.225954 1.7422e-16 2.52524e-15)
(-2.92479e-15 0 -2.17169e-30 -0.0972232 8.92009e-16 2.07527e-15 -0.284463 5.95254e-15 1.16529e-15)
(-4.39985e-15 9.76962e-31 2.8026e-45 -0.0972232 1.37382e-15 -3.9443e-31 -0.284463 6.02884e-15 7.80243e-16)
(2.89633e-15 -1.71799e-60 1.86292e-30 -0.12265 0 -1.95059e-15 -0.326378 -5.52203e-30 -1.78512e-15)
(0 1.09941e-30 -1.64912e-30 -0.12265 7.77145e-16 -4.30504e-15 -0.326378 2.93791e-15 -1.36366e-15)
(5.57188e-15 6.18603e-31 0 -0.150123 1.79716e-15 -5.4943e-45 -0.359223 3.96599e-15 6.31089e-30)
(-1.70393e-14 1.60966e-30 7.23613e-32 -0.150123 1.15426e-15 4.03688e-16 -0.359223 1.60214e-15 5.02729e-16)
(3.13512e-15 -6.08996e-31 3.10668e-31 -0.180787 4.80211e-16 -3.9443e-31 -0.386956 3.20692e-15 4.63215e-16)
(-3.13512e-15 6.96136e-31 2.87143e-31 -0.180787 1.48734e-15 4.36648e-16 -0.386956 2.55571e-15 1.11147e-15)
(2.80412e-15 -2.20818e-31 2.97604e-32 -0.215711 4.79263e-16 -2.00098e-15 -0.411839 5.3142e-16 -7.21827e-16)
(-1.47445e-14 0 -3.91693e-31 -0.215711 1.1271e-15 -1.02937e-15 -0.411839 1.35029e-15 -3.41636e-16)
(2.77066e-15 6.76311e-32 2.20393e-31 -0.256017 1.49679e-15 1.79023e-16 -0.435287 9.73133e-16 1.52013e-15)
(-1.10826e-14 -1.10197e-31 -3.3059e-31 -0.256017 9.43117e-16 -3.49419e-16 -0.435287 2.77696e-16 -3.30026e-16)
(0 0 0 -0.302955 5.58897e-17 0 -0.458251 -4.34003e-17 6.60483e-30)
(-1.54106e-14 0 -2.07345e-31 -0.302955 5.76793e-16 -1.61218e-15 -0.458251 -6.73602e-16 -4.28514e-16)
(2.88419e-15 -6.97754e-32 0 -0.357962 1.28743e-16 -1.4202e-15 -0.481402 -3.25362e-16 1.20093e-15)
(0 2.97776e-45 9.80909e-45 -0.357962 0 0 -0.481402 5.80535e-30 1.7215e-29)
(8.15039e-15 -1.09476e-47 2.198e-31 -0.422714 2.13692e-45 0 -0.505234 2.63775e-30 -1.66647e-29)
(-2.12855e-14 2.35562e-31 2.94453e-31 -0.422714 -6.73871e-16 9.31447e-16 -0.505234 6.27818e-16 4.03826e-16)
(2.62046e-15 -3.31358e-32 0 -0.499179 -6.28446e-16 -2.56016e-16 -0.530118 3.14328e-16 6.70289e-17)
(7.29824e-15 -4.19233e-31 0 -0.499179 4.84472e-16 1.55698e-15 -0.530118 2.63987e-16 4.33576e-16)
(2.57821e-15 1.98874e-31 2.98311e-31 -0.589681 -6.92656e-16 -2.38417e-16 -0.55634 2.75016e-16 -2.04446e-16)
(0 -2.27711e-45 -7.34503e-47 -0.589681 -2.55915e-31 1.05097e-45 -0.55634 2.23227e-16 -9.16775e-31)
(2.53382e-15 -1.42819e-31 0 -0.69698 -2.99661e-16 1.55605e-16 -0.584134 1.28938e-16 -1.39124e-16)
(0 -3.55029e-32 0 -0.69698 -1.44201e-15 -1.2073e-15 -0.584134 1.96378e-16 2.41982e-16)
(0 -1.25925e-31 -1.25925e-31 -0.824376 -8.38003e-16 6.46147e-16 -0.613705 1.50221e-16 -5.48009e-17)
(-9.94854e-15 1.25925e-31 6.29626e-32 -0.824376 -7.97058e-16 -4.08928e-16 -0.613705 2.81709e-16 1.32371e-16)
(4.99077e-15 -3.8716e-32 2.8318e-31 -0.97585 -3.9122e-16 1.2326e-32 -0.645256 1.32925e-16 7.88861e-31)
(-2.55279e-15 1.75162e-46 -2.83416e-31 -0.97585 0 -2.52463e-16 -0.645256 0 1.4755e-16)
(2.38618e-15 -1.89594e-31 -2.21613e-31 -1.15626 1.0272e-16 -7.96264e-17 -0.679014 1.92014e-16 -2.15548e-16)
(0 0 -2.62743e-46 -1.15626 4.10589e-16 4.93038e-32 -0.679014 1.27367e-16 4.74723e-31)
(5.56431e-15 0 0 -1.3716 -7.51618e-16 0 -0.715273 5.81726e-16 0)
(6.09327e-15 0 -8.97281e-32 -1.3716 -3.81707e-16 7.96643e-16 -0.715273 3.2703e-16 -7.96684e-17)
(0 0 -5.04871e-32 -1.62942 0 -4.34277e-16 -0.754423 1.24468e-31 -1.80142e-16)
(0 0 0 -1.62942 1.67799e-17 -1.10276e-17 -0.754423 2.27821e-16 -2.48688e-16)
(2.21252e-15 0 -5.38557e-32 -1.93936 8.95037e-16 1.95374e-16 -0.797004 3.89632e-16 -7.59943e-17)
(-1.08971e-14 0 5.6815e-32 -1.93936 3.1821e-16 -8.13599e-16 -0.797004 4.84287e-16 -1.57995e-16)
(1.56047e-16 -1.00269e-31 0 -2.31391 3.61715e-16 3.09178e-45 -0.843762 2.34829e-16 1.73796e-30)
(-1.08935e-14 0 -1.01957e-30 -2.31391 0 -2.55195e-17 -0.843762 0 -2.39155e-17)
(2.07812e-15 -2.30088e-31 1.07924e-31 -2.76961 7.9419e-16 -7.13213e-16 -0.895715 1.32867e-16 -8.34102e-17)
(0 0 1.4013e-45 -2.76961 1.02594e-15 4.93038e-32 -0.895715 2.94014e-16 1.99154e-30)
(-2.91715e-15 0 -2.83385e-31 -3.32866 8.0552e-16 -9.04135e-18 -0.954248 2.95318e-16 1.29717e-17)
(-8.01515e-15 -2.5185e-30 2.83385e-31 -3.32866 4.67955e-16 -9.848e-17 -0.954248 6.9569e-17 6.18441e-17)
(5.2064e-15 4.54107e-32 4.37906e-47 -4.02139 -3.53862e-16 1.71771e-45 -1.02123 1.7561e-16 1.6188e-31)
(-1.09773e-14 -9.11152e-32 2.73346e-31 -4.02139 1.70676e-15 -2.83215e-16 -1.02123 3.47048e-16 1.5534e-16)
(3.67307e-15 0 0 -4.88996 0 -1.08592e-15 -1.0992 0 7.42793e-17)
(-7.34614e-15 0 0 -4.88996 -5.37e-44 5.56244e-17 -1.0992 1.94786e-16 6.34778e-17)
(-2.07862e-15 2.88466e-32 -1.7308e-31 -5.99371 2.64043e-15 -5.87733e-16 -1.19157 1.78877e-16 8.776e-17)
(-2.07862e-15 -1.44233e-32 1.75162e-46 -5.99371 -3.73863e-16 4.20225e-44 -1.19157 1.86453e-16 4.58712e-30)
(1.63518e-15 1.05929e-30 0 -7.41707 0 6.08366e-16 -1.30291 3.72224e-17 9.70173e-17)
(-8.87984e-15 2.05268e-47 0 -7.41707 1.92593e-34 2.86617e-16 -1.30291 3.69779e-32 4.4273e-17)
(2.63232e-15 -3.65308e-32 2.54625e-32 -9.27966 -2.27079e-16 -2.95823e-31 -1.43932 8.48662e-17 4.58692e-17)
(-8.69781e-15 -4.40529e-30 0 -9.27966 8.5288e-16 8.23284e-17 -1.43932 4.36083e-17 7.71949e-17)
(1.48112e-15 -1.79854e-32 4.11094e-32 -11.745 -3.13298e-16 -1.14383e-16 -1.6084 1.27175e-16 6.08918e-17)
(0 1.37736e-29 -4.11094e-32 -11.745 5.48883e-16 6.70622e-17 -1.6084 -4.0179e-17 4.32109e-17)
(-1.22602e-15 0 -4.62619e-32 -15.0091 2.69621e-16 -1.4347e-16 -1.81821 9.24494e-17 7.65511e-17)
(0 7.92568e-30 0 -15.0091 -4.64925e-17 -3.6348e-16 -1.81821 -3.02427e-18 3.89317e-17)
(1.04701e-15 2.44032e-33 1.44408e-31 -19.2107 3.48873e-16 -1.2326e-32 -2.07208 5.78263e-17 5.06618e-17)