/*--------------------------------*- C++ -*----------------------------------*\
| =========                 |                                                 |
| \\      /  F ield         | OpenFOAM: The Open Source CFD Toolbox           |
|  \\    /   O peration     | Version:  2012                                  |
|   \\  /    A nd           | Website:  www.openfoam.com                      |
|    \\/     M anipulation  |                                                 |
\*---------------------------------------------------------------------------*/
FoamFile
{
    version     2.0;
    format      ascii;
    class       volVectorField;
    location    "12000";
    object      U;
}
// * * * * * * * * * * * * * * * * * * * * * * * * * * * * * * * * * * * * * //

dimensions      [0 1 -1 0 0 0 0];


internalField   nonuniform List<vector> 
320
(
(0.0200813 -1.66675e-15 -1.3903e-16)
(0.0200813 -3.05313e-18 -5.17475e-32)
(0.0627125 -5.3984e-15 -2.59417e-16)
(0.0627125 -3.60489e-17 -2.70734e-19)
(0.11062 -5.34793e-15 -3.30028e-16)
(0.11062 -6.03059e-17 -2.01648e-18)
(0.164382 -5.01995e-15 -4.03883e-16)
(0.164382 -1.0337e-16 -3.75404e-18)
(0.224307 -4.4777e-15 -4.89037e-16)
(0.224307 -1.64038e-16 -7.10995e-18)
(0.289571 -4.61687e-15 -5.70242e-16)
(0.289571 -2.55089e-16 -1.34617e-17)
(0.357064 -4.51592e-15 -6.25303e-16)
(0.357064 -3.61682e-16 -2.25796e-17)
(0.422001 -4.38618e-15 -6.46913e-16)
(0.422001 -4.77423e-16 -3.20764e-17)
(0.480829 -4.23926e-15 -6.48014e-16)
(0.480829 -6.0309e-16 -4.07354e-17)
(0.532631 -4.08906e-15 -6.45098e-16)
(0.532631 -7.32151e-16 -4.82959e-17)
(0.578087 -3.93685e-15 -6.47221e-16)
(0.578087 -8.62898e-16 -5.60423e-17)
(0.618297 -3.77751e-15 -6.57461e-16)
(0.618297 -9.96603e-16 -6.19099e-17)
(0.65428 -3.61464e-15 -6.76347e-16)
(0.65428 -1.12975e-15 -7.01469e-17)
(0.686852 -3.44848e-15 -7.04478e-16)
(0.686852 -1.26905e-15 -7.50815e-17)
(0.716642 -3.2816e-15 -7.40128e-16)
(0.716642 -1.39909e-15 -7.99404e-17)
(0.744122 -3.11578e-15 -7.81728e-16)
(0.744122 -1.52876e-15 -3.40441e-17)
(0.769652 -2.94628e-15 -7.84912e-16)
(0.769652 -1.6501e-15 -1.23713e-16)
(0.793509 -2.77475e-15 -6.37275e-16)
(0.793509 -1.76334e-15 -2.08833e-16)
(0.815902 -2.59776e-15 -6.01186e-16)
(0.815902 -1.82797e-15 -2.81885e-16)
(0.836996 -2.43793e-15 -5.73268e-16)
(0.836996 -1.8667e-15 -3.53018e-16)
(0.856921 -2.31004e-15 -5.42099e-16)
(0.856921 -1.9059e-15 -4.07143e-16)
(0.875781 -2.16995e-15 -5.12881e-16)
(0.875781 -1.87341e-15 -4.27621e-16)
(0.893663 -2.02093e-15 -4.81493e-16)
(0.893663 -1.87818e-15 -4.57028e-16)
(0.910638 -1.90648e-15 -5.13748e-16)
(0.910638 -1.84293e-15 -4.26794e-16)
(0.92677 -1.82777e-15 -4.84872e-16)
(0.92677 -1.73514e-15 -4.01129e-16)
(0.942112 -1.71871e-15 -4.45993e-16)
(0.942112 -1.6673e-15 -3.62305e-16)
(0.956716 -1.60786e-15 -4.0934e-16)
(0.956716 -1.57953e-15 -3.62494e-16)
(0.970624 -1.54701e-15 -3.15792e-16)
(0.970624 -1.53932e-15 -3.30524e-16)
(0.983877 -1.45548e-15 -2.47504e-16)
(0.983877 -1.49122e-15 -2.59257e-16)
(0.996508 -1.38653e-15 -2.67353e-16)
(0.996508 -1.38011e-15 -2.69934e-16)
(1.00854 -1.33031e-15 -2.76915e-16)
(1.00854 -1.31308e-15 -2.76971e-16)
(1.02 -1.17828e-15 -1.83716e-16)
(1.02 -1.21772e-15 -1.81147e-16)
(1.03088 -1.08117e-15 -3.32885e-17)
(1.03088 -1.05366e-15 3.88716e-17)
(1.04118 -1.03033e-15 -1.85018e-16)
(1.04118 -9.88364e-16 -1.83617e-16)
(1.05085 -9.59823e-16 -4.57116e-16)
(1.05085 -9.64455e-16 -5.56388e-16)
(1.05983 -9.11845e-16 -4.84192e-16)
(1.05983 -9.17208e-16 -4.61167e-16)
(1.06799 -8.59202e-16 -2.62175e-16)
(1.06799 -8.41545e-16 -2.58025e-16)
(1.0751 -7.4581e-16 -2.51686e-16)
(1.0751 -7.4427e-16 -3.14746e-16)
(1.08075 -7.79321e-16 -8.39921e-16)
(1.08075 -7.63938e-16 -7.56015e-16)
(1.08418 -7.32972e-16 -6.16124e-17)
(1.08418 -7.27659e-16 9.00657e-17)
(0.0200813 -9.35359e-19 7.28614e-17)
(0.0200813 -5.50717e-19 1.56196e-16)
(0.0627125 -5.90456e-18 1.28162e-16)
(0.0627125 2.28634e-19 2.84763e-16)
(0.11062 -9.18263e-18 1.60042e-16)
(0.11062 3.80601e-19 3.53662e-16)
(0.164382 -1.5417e-17 1.97692e-16)
(0.164382 5.14037e-19 4.3299e-16)
(0.224307 -2.39618e-17 2.38357e-16)
(0.224307 1.56065e-18 5.14968e-16)
(0.289571 -3.47307e-17 2.74696e-16)
(0.289571 4.49452e-19 5.79486e-16)
(0.357064 -4.67778e-17 2.96845e-16)
(0.357064 -1.59698e-18 6.01995e-16)
(0.422001 -6.10403e-17 3.02727e-16)
(0.422001 -1.91306e-18 5.77013e-16)
(0.480829 -8.06696e-17 2.985e-16)
(0.480829 -4.8982e-18 5.21495e-16)
(0.532631 -9.64203e-17 2.89813e-16)
(0.532631 -8.7917e-18 4.53753e-16)
(0.578087 -1.0961e-16 2.842e-16)
(0.578087 -4.37237e-18 3.79692e-16)
(0.618297 -1.28538e-16 2.79332e-16)
(0.618297 -3.49103e-18 3.05171e-16)
(0.65428 -1.58408e-16 2.75428e-16)
(0.65428 -2.88504e-18 2.25473e-16)
(0.686852 -1.87334e-16 2.6637e-16)
(0.686852 -1.15314e-18 1.43796e-16)
(0.716642 -2.05549e-16 2.57522e-16)
(0.716642 -2.14503e-17 -9.74816e-18)
(0.744122 -2.38287e-16 2.49972e-16)
(0.744122 -4.90753e-17 -1.06877e-17)
(0.769652 -2.70242e-16 2.32304e-16)
(0.769652 -7.65595e-17 -7.27596e-18)
(0.793509 -2.83918e-16 2.14516e-16)
(0.793509 -1.17667e-16 -3.45553e-18)
(0.815902 -3.07483e-16 1.94743e-16)
(0.815902 -1.61741e-16 3.39159e-19)
(0.836996 -3.45481e-16 1.77355e-16)
(0.836996 -2.03161e-16 -4.15564e-18)
(0.856921 -3.92727e-16 1.65316e-16)
(0.856921 -2.63808e-16 -3.25041e-18)
(0.875781 -4.29944e-16 1.27126e-16)
(0.875781 -3.09579e-16 2.69212e-17)
(0.893663 -4.91242e-16 1.00126e-16)
(0.893663 -3.63504e-16 2.253e-17)
(0.910638 -5.66998e-16 3.49055e-17)
(0.910638 -4.65622e-16 3.69247e-17)
(0.92677 -6.1687e-16 -4.00265e-18)
(0.92677 -5.40492e-16 3.69018e-17)
(0.942112 -6.66647e-16 -7.48691e-18)
(0.942112 -6.45794e-16 5.49112e-17)
(0.956716 -7.44028e-16 2.81557e-17)
(0.956716 -7.7137e-16 -1.52387e-17)
(0.970624 -8.30279e-16 2.40664e-17)
(0.970624 -8.38833e-16 1.24806e-17)
(0.983877 -9.10265e-16 -2.14262e-17)
(0.983877 -9.25491e-16 -2.12847e-17)
(0.996508 -1.01093e-15 -6.67091e-17)
(0.996508 -1.01206e-15 -9.36474e-17)
(1.00854 -1.04859e-15 -1.21279e-16)
(1.00854 -1.04995e-15 -5.09554e-17)
(1.02 -9.91754e-16 -1.56386e-17)
(1.02 -1.04046e-15 -7.4876e-17)
(1.03088 -1.01925e-15 1.57745e-16)
(1.03088 -1.02979e-15 8.82986e-17)
(1.04118 -1.08344e-15 2.45016e-17)
(1.04118 -1.02636e-15 1.86668e-17)
(1.05085 -8.72246e-16 7.40112e-16)
(1.05085 -8.4511e-16 7.29527e-16)
(1.05983 -8.90351e-16 4.82672e-16)
(1.05983 -8.73834e-16 5.41411e-16)
(1.06799 -8.83599e-16 2.96667e-16)
(1.06799 -8.70091e-16 2.74878e-16)
(1.0751 -8.38613e-16 3.35315e-16)
(1.0751 -8.10933e-16 3.31295e-16)
(1.08075 -6.7847e-16 6.89038e-16)
(1.08075 -6.69782e-16 8.26388e-16)
(1.08418 -7.78156e-16 -1.17064e-16)
(1.08418 -6.9088e-16 -1.07666e-16)
(1.08418 -5.68412e-16 1.00921e-16)
(1.08418 -5.96695e-16 3.30098e-16)
(1.08075 -5.11982e-16 4.40342e-16)
(1.08075 -5.6493e-16 5.4278e-16)
(1.0751 -4.78985e-16 3.29809e-16)
(1.0751 -4.78517e-16 7.748e-17)
(1.06799 -2.78885e-16 -5.32192e-16)
(1.06799 -2.68787e-16 -5.75508e-16)
(1.05983 -2.33839e-16 -1.6881e-16)
(1.05983 -2.02168e-16 9.68357e-17)
(1.05085 -1.65002e-16 -1.11128e-16)
(1.05085 -2.24984e-16 -2.87783e-17)
(1.04118 -2.04378e-16 -2.57199e-16)
(1.04118 -1.30519e-16 -3.09944e-16)
(1.03088 -1.0923e-16 -8.95015e-17)
(1.03088 -7.64122e-17 -1.28935e-16)
(1.02 -2.69851e-17 -1.52013e-16)
(1.02 -1.47824e-17 -6.62285e-17)
(1.00854 4.73316e-17 -1.19307e-16)
(1.00854 4.3069e-17 -8.43e-17)
(0.996508 9.22452e-18 -8.73583e-17)
(0.996508 1.50311e-17 -9.4966e-19)
(0.983877 -4.90915e-17 -1.94976e-17)
(0.983877 -4.91696e-17 -9.16922e-18)
(0.970624 -4.93574e-17 -3.69401e-17)
(0.970624 -1.74022e-17 -5.49941e-17)
(0.956716 -4.34419e-17 -9.39393e-18)
(0.956716 -5.68521e-17 -4.18446e-17)
(0.942112 -1.17836e-17 -5.37892e-18)
(0.942112 -2.44668e-18 -3.63981e-17)
(0.92677 2.88599e-19 -2.95062e-17)
(0.92677 4.53189e-18 -1.32371e-17)
(0.910638 3.18414e-18 6.51606e-18)
(0.910638 -1.55373e-17 -1.08312e-17)
(0.893663 -1.19572e-18 -4.75032e-18)
(0.893663 -2.65875e-18 -7.67039e-18)
(0.875781 -1.7246e-17 -2.13068e-17)
(0.875781 2.93346e-18 5.04267e-18)
(0.856921 -1.29557e-17 -9.93789e-18)
(0.856921 -1.80792e-17 1.19459e-17)
(0.836996 3.71412e-18 -2.04809e-17)
(0.836996 -1.12143e-17 1.201e-17)
(0.815902 -4.19431e-18 -2.38994e-17)
(0.815902 -3.92733e-18 6.76318e-18)
(0.793509 2.07048e-18 -1.85886e-17)
(0.793509 -6.34278e-19 -3.45297e-19)
(0.769652 -7.11007e-18 -2.1565e-17)
(0.769652 -1.72044e-17 -7.45844e-18)
(0.744122 -2.74424e-17 -2.36365e-17)
(0.744122 -2.29477e-17 -1.03019e-17)
(0.716642 -2.57772e-17 -2.79067e-17)
(0.716642 -1.54436e-17 -3.36403e-18)
(0.686852 -1.16959e-17 -2.21769e-17)
(0.686852 -1.26728e-17 -2.06692e-19)
(0.65428 -5.1339e-18 -2.36024e-17)
(0.65428 2.65876e-18 -4.47635e-18)
(0.618297 -9.43064e-18 -2.33691e-17)
(0.618297 1.81649e-18 -6.35506e-18)
(0.578087 -1.04902e-17 -2.4662e-17)
(0.578087 1.70426e-18 -4.85314e-18)
(0.532631 -7.67008e-18 -2.43723e-17)
(0.532631 5.09328e-18 -3.20353e-18)
(0.480829 -5.28417e-18 -2.2551e-17)
(0.480829 6.32835e-18 -3.824e-18)
(0.422001 -3.0638e-18 -2.11117e-17)
(0.422001 5.97775e-18 -3.9721e-18)
(0.357064 -1.24833e-18 -1.98451e-17)
(0.357064 4.33875e-18 -4.05637e-18)
(0.289571 6.05487e-19 -1.80562e-17)
(0.289571 2.65518e-18 -3.93863e-18)
(0.224307 -1.68701e-18 -1.53158e-17)
(0.224307 1.7396e-18 -3.3751e-18)
(0.164382 -1.44145e-18 -1.26322e-17)
(0.164382 1.41132e-18 -2.84136e-18)
(0.11062 -8.36059e-19 -1.02012e-17)
(0.11062 6.86983e-19 -2.32147e-18)
(0.0627125 -3.1555e-20 -8.14519e-18)
(0.0627125 2.39916e-19 -1.8664e-18)
(0.0200813 -7.93422e-20 -2.26723e-18)
(0.0200813 -3.51284e-21 -6.3798e-19)
(1.08418 -5.86411e-16 -5.30724e-16)
(1.08418 -5.44508e-16 -1.88743e-16)
(1.08075 -4.26065e-16 -1.44232e-16)
(1.08075 -4.40205e-16 -1.91015e-16)
(1.0751 -4.90992e-16 -4.2377e-16)
(1.0751 -4.86637e-16 -3.30004e-16)
(1.06799 -3.16369e-16 4.15663e-16)
(1.06799 -3.35916e-16 4.97484e-16)
(1.05983 -3.38701e-16 3.47322e-16)
(1.05983 -2.65253e-16 3.95307e-17)
(1.05085 -2.39551e-16 -1.35812e-16)
(1.05085 -2.25199e-16 -1.23244e-16)
(1.04118 -1.16313e-16 2.10878e-16)
(1.04118 -1.25052e-16 1.98797e-16)
(1.03088 -1.03028e-16 1.61684e-16)
(1.03088 -5.86165e-17 1.63099e-16)
(1.02 -7.03282e-17 0)
(1.02 -1.29872e-17 9.92312e-17)
(1.00854 4.62466e-17 1.58449e-16)
(1.00854 2.42912e-17 1.27151e-16)
(0.996508 2.33116e-17 -3.27348e-17)
(0.996508 3.34603e-17 -4.54922e-17)
(0.983877 5.20813e-17 4.4613e-17)
(0.983877 -1.36121e-17 -3.12133e-17)
(0.970624 1.79246e-17 3.02372e-17)
(0.970624 -1.08025e-17 1.16365e-17)
(0.956716 1.59402e-17 2.98385e-17)
(0.956716 3.45293e-17 5.36738e-17)
(0.942112 -1.39677e-17 1.92913e-17)
(0.942112 -1.71911e-17 1.21999e-17)
(0.92677 -1.53107e-17 3.49863e-17)
(0.92677 -3.27028e-17 0)
(0.910638 -4.43745e-17 4.43694e-17)
(0.910638 -4.76976e-17 -3.92379e-18)
(0.893663 -3.97131e-17 3.89806e-17)
(0.893663 -4.45134e-17 -8.53729e-18)
(0.875781 -4.09266e-17 4.14989e-17)
(0.875781 -3.56365e-17 2.92417e-18)
(0.856921 -5.88912e-17 2.79521e-17)
(0.856921 -5.31957e-17 1.2923e-17)
(0.836996 -4.26774e-17 3.02127e-17)
(0.836996 -3.72144e-17 3.78952e-18)
(0.815902 -3.91787e-17 3.21126e-17)
(0.815902 -4.50494e-17 -4.37163e-18)
(0.793509 -3.5857e-17 2.69297e-17)
(0.793509 -2.87672e-17 -4.49174e-18)
(0.769652 -2.24217e-17 2.02678e-17)
(0.769652 -2.70279e-17 1.27403e-18)
(0.744122 -2.30522e-17 2.60608e-17)
(0.744122 -1.17571e-17 -5.2321e-18)
(0.716642 -2.69064e-17 2.04788e-17)
(0.716642 -4.03502e-18 -2.98374e-18)
(0.686852 -6.1918e-18 1.34009e-17)
(0.686852 -5.9725e-18 -4.36505e-18)
(0.65428 1.41166e-18 1.39007e-17)
(0.65428 -7.93374e-18 4.90496e-20)
(0.618297 9.44013e-19 1.87821e-17)
(0.618297 -6.17732e-18 -1.36443e-18)
(0.578087 -2.22731e-18 1.85728e-17)
(0.578087 4.0132e-18 5.32044e-19)
(0.532631 -1.57487e-18 1.67171e-17)
(0.532631 5.01768e-18 -6.89639e-19)
(0.480829 -4.98467e-19 1.74849e-17)
(0.480829 9.91216e-19 -1.83674e-18)
(0.422001 4.49329e-19 1.72493e-17)
(0.422001 2.37273e-19 -1.84018e-18)
(0.357064 4.32049e-19 1.66935e-17)
(0.357064 -1.56452e-19 -2.45955e-18)
(0.289571 -6.74507e-19 1.54653e-17)
(0.289571 4.26787e-19 -2.88196e-18)
(0.224307 -1.67171e-18 1.33012e-17)
(0.224307 4.50153e-19 -2.61575e-18)
(0.164382 -2.6713e-19 1.10065e-17)
(0.164382 2.03863e-19 -2.14895e-18)
(0.11062 -2.30687e-19 8.97825e-18)
(0.11062 -1.12087e-20 -1.69959e-18)
(0.0627125 -2.8268e-19 7.16463e-18)
(0.0627125 1.04202e-19 -1.36382e-18)
(0.0200813 2.79954e-20 1.50079e-18)
(0.0200813 1.51183e-21 -9.12065e-20)
)
;

boundaryField
{
    walls
    {
        type            fixedValue;
        value           uniform (0 0 0);
    }
    inlet
    {
        type            cyclic;
    }
    outlet
    {
        type            cyclic;
    }
    sides
    {
        type            empty;
    }
}


// ************************************************************************* //
