/*--------------------------------*- C++ -*----------------------------------*\
| =========                 |                                                 |
| \\      /  F ield         | OpenFOAM: The Open Source CFD Toolbox           |
|  \\    /   O peration     | Version:  2012                                  |
|   \\  /    A nd           | Website:  www.openfoam.com                      |
|    \\/     M anipulation  |                                                 |
\*---------------------------------------------------------------------------*/
FoamFile
{
    version     2.0;
    format      ascii;
    class       volSymmTensorField;
    location    "11100";
    object      turbulenceProperties:R;
}
// * * * * * * * * * * * * * * * * * * * * * * * * * * * * * * * * * * * * * //

dimensions      [0 2 -2 0 0 0 0];


internalField   nonuniform List<symmTensor> 
2560
(
(0.000574497 -4.29878e-07 -6.22826e-10 0.000574497 -3.23482e-13 0.000574497)
(0.000574497 -4.29878e-07 -6.22826e-10 0.000574497 -4.78769e-13 0.000574497)
(0.0114379 -4.91142e-05 -2.14647e-07 0.0114379 -7.85037e-12 0.0114379)
(0.0114379 -4.91142e-05 -2.14647e-07 0.0114379 -2.44382e-13 0.0114379)
(0.0816145 -0.00103491 -6.20649e-06 0.0816145 3.61764e-11 0.0816145)
(0.0816145 -0.00103491 -6.20649e-06 0.0816145 -1.79488e-13 0.0816145)
(0.294113 -0.00798265 -4.85661e-05 0.294113 9.98729e-10 0.294113)
(0.294113 -0.00798265 -4.85661e-05 0.294113 1.80203e-09 0.294113)
(0.711608 -0.0345268 -0.000213098 0.711608 6.34237e-09 0.711608)
(0.711608 -0.0345268 -0.000213098 0.711608 1.13624e-08 0.711608)
(1.2909 -0.0978844 -0.000612879 1.2909 1.55179e-08 1.2909)
(1.2909 -0.0978844 -0.000612879 1.2909 2.78275e-08 1.2909)
(1.91898 -0.202977 -0.00128932 1.91898 1.99173e-08 1.91898)
(1.91898 -0.202977 -0.00128932 1.91898 3.62256e-08 1.91898)
(2.52643 -0.342155 -0.00220499 2.52643 1.79456e-08 2.52643)
(2.52643 -0.342155 -0.00220499 2.52643 3.3773e-08 2.52643)
(3.09503 -0.505856 -0.00330749 3.09503 1.27351e-08 3.09503)
(3.09503 -0.505856 -0.00330749 3.09503 2.65833e-08 3.09503)
(3.62618 -0.686943 -0.00455719 3.62618 6.28785e-09 3.62618)
(3.62618 -0.686943 -0.00455719 3.62618 1.79906e-08 3.62618)
(4.1255 -0.880643 -0.00592783 4.1255 -1.19709e-09 4.1255)
(4.1255 -0.880643 -0.00592783 4.1255 8.77195e-09 4.1255)
(4.59841 -1.08378 -0.00740235 4.59841 -9.75179e-09 4.59841)
(4.59841 -1.08378 -0.00740235 4.59841 -1.24623e-09 4.59841)
(5.04935 -1.2942 -0.00896961 5.04935 -1.97406e-08 5.04935)
(5.04935 -1.2942 -0.00896961 5.04935 -1.24293e-08 5.04935)
(5.4817 -1.51042 -0.0106224 5.4817 -8.72889e-09 5.4817)
(5.4817 -1.51042 -0.0106224 5.4817 -1.26733e-10 5.4817)
(5.89807 -1.73139 -0.0123559 5.89807 1.91502e-08 5.89807)
(5.89807 -1.73139 -0.0123559 5.89807 3.25753e-08 5.89807)
(6.30042 -1.95636 -0.0141675 6.30042 2.71097e-08 6.30042)
(6.30042 -1.95636 -0.0141675 6.30042 3.05472e-08 6.30042)
(6.69025 -2.1848 -0.0160553 6.69025 2.42036e-08 6.69025)
(6.69025 -2.1848 -0.0160553 6.69025 2.71479e-08 6.69025)
(7.06868 -2.4163 -0.0180185 7.06868 -1.98802e-09 7.06868)
(7.06868 -2.4163 -0.0180185 7.06868 2.157e-08 7.06868)
(7.43654 -2.65053 -0.0200568 7.43654 -3.59497e-08 7.43654)
(7.43654 -2.65053 -0.0200568 7.43654 -1.18412e-08 7.43654)
(7.79442 -2.88722 -0.0221698 7.79442 -4.66321e-08 7.79442)
(7.79442 -2.88722 -0.0221698 7.79442 -4.70009e-08 7.79442)
(8.14274 -3.12611 -0.0243575 8.14274 -5.39838e-08 8.14274)
(8.14274 -3.12611 -0.0243575 8.14274 -5.44434e-08 8.14274)
(8.48174 -3.36692 -0.0266193 8.48174 -6.18958e-08 8.48174)
(8.48174 -3.36692 -0.0266193 8.48174 -6.23965e-08 8.48174)
(8.8115 -3.60932 -0.0289543 8.8115 -7.05314e-08 8.8115)
(8.8115 -3.60932 -0.0289543 8.8115 -7.09457e-08 8.8115)
(9.13203 -3.85296 -0.0313613 9.13203 -7.983e-08 9.13203)
(9.13203 -3.85296 -0.0313613 9.13203 -8.0508e-08 9.13203)
(9.44318 -4.0974 -0.0338378 9.44318 -9.01651e-08 9.44318)
(9.44318 -4.0974 -0.0338378 9.44318 -9.07618e-08 9.44318)
(9.74474 -4.34211 -0.0363808 9.74474 -1.00907e-07 9.74474)
(9.74474 -4.34211 -0.0363808 9.74474 -1.01555e-07 9.74474)
(10.0364 -4.58648 -0.0389862 10.0364 -1.12612e-07 10.0364)
(10.0364 -4.58648 -0.0389862 10.0364 -1.1314e-07 10.0364)
(10.3178 -4.82981 -0.0416489 10.3178 -1.25104e-07 10.3178)
(10.3178 -4.82981 -0.0416489 10.3178 -1.26032e-07 10.3178)
(10.5884 -5.07129 -0.0443622 10.5884 -1.38924e-07 10.5884)
(10.5884 -5.07129 -0.0443622 10.5884 -1.39562e-07 10.5884)
(10.8477 -5.30998 -0.0471178 10.8477 -1.52948e-07 10.8477)
(10.8477 -5.30998 -0.0471178 10.8477 -1.53833e-07 10.8477)
(11.0952 -5.54486 -0.0499069 11.0952 -1.68353e-07 11.0952)
(11.0952 -5.54486 -0.0499069 11.0952 -1.68976e-07 11.0952)
(11.3303 -5.77482 -0.0527185 11.3303 -1.84607e-07 11.3303)
(11.3303 -5.77482 -0.0527185 11.3303 -1.85733e-07 11.3303)
(11.5522 -5.99862 -0.0555402 11.5522 -2.02319e-07 11.5522)
(11.5522 -5.99862 -0.0555402 11.5522 -2.03096e-07 11.5522)
(11.7603 -6.21493 -0.0583578 11.7603 -2.20493e-07 11.7603)
(11.7603 -6.21493 -0.0583578 11.7603 -2.21322e-07 11.7603)
(11.9539 -6.42235 -0.0611563 11.9539 -2.40065e-07 11.9539)
(11.9539 -6.42235 -0.0611563 11.9539 -2.40831e-07 11.9539)
(12.1322 -6.61945 -0.0639189 12.1322 -2.60794e-07 12.1322)
(12.1322 -6.61945 -0.0639189 12.1322 -2.62015e-07 12.1322)
(12.2947 -6.80469 -0.0666268 12.2947 -2.82957e-07 12.2947)
(12.2947 -6.80469 -0.0666268 12.2947 -2.83915e-07 12.2947)
(12.4405 -6.97646 -0.0692601 12.4405 -3.05931e-07 12.4405)
(12.4405 -6.97646 -0.0692601 12.4405 -3.06762e-07 12.4405)
(12.569 -7.13321 -0.0717986 12.569 -3.30281e-07 12.569)
(12.569 -7.13321 -0.0717986 12.569 -3.31153e-07 12.569)
(12.6795 -7.27338 -0.0742206 12.6795 -3.56232e-07 12.6795)
(12.6795 -7.27338 -0.0742206 12.6795 -3.57439e-07 12.6795)
(12.7716 -7.39539 -0.0765028 12.7716 -3.83505e-07 12.7716)
(12.7716 -7.39539 -0.0765028 12.7716 -3.84834e-07 12.7716)
(12.8447 -7.49767 -0.0786215 12.8447 -4.1206e-07 12.8447)
(12.8447 -7.49767 -0.0786215 12.8447 -4.12931e-07 12.8447)
(12.8984 -7.57877 -0.0805535 12.8984 -4.42036e-07 12.8984)
(12.8984 -7.57877 -0.0805535 12.8984 -4.42961e-07 12.8984)
(12.9324 -7.63734 -0.0822749 12.9324 -4.73369e-07 12.9324)
(12.9324 -7.63734 -0.0822749 12.9324 -4.75069e-07 12.9324)
(12.9466 -7.6721 -0.0837617 12.9466 -5.07042e-07 12.9466)
(12.9466 -7.6721 -0.0837617 12.9466 -5.0785e-07 12.9466)
(12.9408 -7.68189 -0.0849904 12.9408 -5.40899e-07 12.9408)
(12.9408 -7.68189 -0.0849904 12.9408 -5.4269e-07 12.9408)
(12.9152 -7.66572 -0.0859385 12.9152 -5.77421e-07 12.9152)
(12.9152 -7.66572 -0.0859385 12.9152 -5.78027e-07 12.9152)
(12.8701 -7.62279 -0.0865848 12.8701 -6.16119e-07 12.8701)
(12.8701 -7.62279 -0.0865848 12.8701 -6.17997e-07 12.8701)
(12.8058 -7.55243 -0.0869079 12.8058 -6.54512e-07 12.8058)
(12.8058 -7.55243 -0.0869079 12.8058 -6.56434e-07 12.8058)
(12.7229 -7.45415 -0.0868895 12.7229 -6.9307e-07 12.7229)
(12.7229 -7.45415 -0.0868895 12.7229 -6.934e-07 12.7229)
(12.6223 -7.32793 -0.0865169 12.6223 -7.37343e-07 12.6223)
(12.6223 -7.32793 -0.0865169 12.6223 -7.39351e-07 12.6223)
(12.505 -7.17376 -0.0857719 12.505 -7.84974e-07 12.505)
(12.505 -7.17376 -0.0857719 12.505 -7.87024e-07 12.505)
(12.3721 -6.99166 -0.0846414 12.3721 -8.24318e-07 12.3721)
(12.3721 -6.99166 -0.0846414 12.3721 -8.21025e-07 12.3721)
(12.2249 -6.78227 -0.083122 12.2249 -8.76422e-07 12.2249)
(12.2249 -6.78227 -0.083122 12.2249 -8.78553e-07 12.2249)
(12.0651 -6.54633 -0.0812029 12.0651 -9.19567e-07 12.0651)
(12.0651 -6.54633 -0.0812029 12.0651 -9.18147e-07 12.0651)
(11.8944 -6.2846 -0.0788814 11.8944 -9.65772e-07 11.8944)
(11.8944 -6.2846 -0.0788814 11.8944 -9.67992e-07 11.8944)
(11.7147 -5.9983 -0.0761594 11.7147 -1.01671e-06 11.7147)
(11.7147 -5.9983 -0.0761594 11.7147 -1.01896e-06 11.7147)
(11.528 -5.68877 -0.0730383 11.528 -1.06095e-06 11.528)
(11.528 -5.68877 -0.0730383 11.528 -1.0587e-06 11.528)
(11.3365 -5.35758 -0.0695272 11.3365 -1.11126e-06 11.3365)
(11.3365 -5.35758 -0.0695272 11.3365 -1.1136e-06 11.3365)
(11.1424 -5.00638 -0.0656326 11.1424 -1.15887e-06 11.1424)
(11.1424 -5.00638 -0.0656326 11.1424 -1.15771e-06 11.1424)
(10.9482 -4.63685 -0.0613653 10.9482 -1.2069e-06 10.9482)
(10.9482 -4.63685 -0.0613653 10.9482 -1.20933e-06 10.9482)
(10.756 -4.25077 -0.0567377 10.756 -1.2446e-06 10.756)
(10.756 -4.25077 -0.0567377 10.756 -1.24595e-06 10.756)
(10.5683 -3.85012 -0.0517687 10.5683 -1.28714e-06 10.5683)
(10.5683 -3.85012 -0.0517687 10.5683 -1.28571e-06 10.5683)
(10.3872 -3.43699 -0.0464766 10.3872 -1.33703e-06 10.3872)
(10.3872 -3.43699 -0.0464766 10.3872 -1.33961e-06 10.3872)
(10.2151 -3.01311 -0.0408732 10.2151 -1.36657e-06 10.2151)
(10.2151 -3.01311 -0.0408732 10.2151 -1.36373e-06 10.2151)
(10.0537 -2.5804 -0.0349845 10.0537 -1.39472e-06 10.0537)
(10.0537 -2.5804 -0.0349845 10.0537 -1.39742e-06 10.0537)
(9.90496 -2.14096 -0.0288316 9.90496 -1.43003e-06 9.90496)
(9.90496 -2.14096 -0.0288316 9.90496 -1.43279e-06 9.90496)
(9.77036 -1.69659 -0.0224338 9.77036 -1.4572e-06 9.77036)
(9.77036 -1.69659 -0.0224338 9.77036 -1.45219e-06 9.77036)
(9.65113 -1.24907 -0.0158149 9.65113 -1.48787e-06 9.65113)
(9.65113 -1.24907 -0.0158149 9.65113 -1.48924e-06 9.65113)
(9.54819 -0.80027 -0.00899835 9.54819 -1.49453e-06 9.54819)
(9.54819 -0.80027 -0.00899835 9.54819 -1.48928e-06 9.54819)
(9.46211 -0.253283 -0.00201434 9.46211 -1.52307e-06 9.46211)
(9.46211 -0.253283 -0.00201434 9.46211 -1.52457e-06 9.46211)
(9.39314 9.61147e-05 -7.75509e-07 9.39314 -1.52791e-06 9.39314)
(9.39314 9.60395e-05 -7.74902e-07 9.39314 -1.52239e-06 9.39314)
(9.34108 0.534612 -0.00520241 9.34108 -1.54951e-06 9.34108)
(9.34108 0.534612 -0.00520241 9.34108 -1.55114e-06 9.34108)
(9.30541 0.969133 -0.0125752 9.30541 -1.55615e-06 9.30541)
(9.30541 0.969133 -0.0125752 9.30541 -1.55033e-06 9.30541)
(9.28531 1.39501 -0.0200361 9.28531 -1.57496e-06 9.28531)
(9.28531 1.39501 -0.0200361 9.28531 -1.57839e-06 9.28531)
(9.27965 1.8102 -0.0275495 9.27965 -1.58087e-06 9.27965)
(9.27965 1.8102 -0.0275495 9.27965 -1.57471e-06 9.27965)
(9.28705 2.21234 -0.035074 9.28705 -1.5978e-06 9.28705)
(9.28705 2.21234 -0.035074 9.28705 -1.60145e-06 9.28705)
(9.30594 2.59901 -0.0425585 9.30594 -1.61611e-06 9.30594)
(9.30594 2.59901 -0.0425585 9.30594 -1.61573e-06 9.30594)
(9.33459 2.9681 -0.0499547 9.33459 -1.64302e-06 9.33459)
(9.33459 2.9681 -0.0499547 9.33459 -1.63837e-06 9.33459)
(9.37118 3.3176 -0.0572172 9.37118 -1.67049e-06 9.37118)
(9.37118 3.3176 -0.0572172 9.37118 -1.67451e-06 9.37118)
(9.41383 3.64554 -0.0642966 9.41383 -1.69761e-06 9.41383)
(9.41383 3.64554 -0.0642966 9.41383 -1.69043e-06 9.41383)
(9.46069 3.95006 -0.0711443 9.46069 -1.74599e-06 9.46069)
(9.46069 3.95006 -0.0711443 9.46069 -1.75029e-06 9.46069)
(9.50994 4.22979 -0.0777112 9.50994 -1.77447e-06 9.50994)
(9.50994 4.22979 -0.0777112 9.50994 -1.76682e-06 9.50994)
(9.55984 4.4837 -0.0839633 9.55984 -1.82131e-06 9.55984)
(9.55984 4.4837 -0.0839633 9.55984 -1.8259e-06 9.55984)
(9.60878 4.71087 -0.0898601 9.60878 -1.87358e-06 9.60878)
(9.60878 4.71087 -0.0898601 9.60878 -1.86547e-06 9.60878)
(9.65527 4.91101 -0.09537 9.65527 -1.92625e-06 9.65527)
(9.65527 4.91101 -0.09537 9.65527 -1.93115e-06 9.65527)
(9.69799 5.08426 -0.100475 9.69799 -1.98024e-06 9.69799)
(9.69799 5.08426 -0.100475 9.69799 -1.97163e-06 9.69799)
(9.73578 5.23096 -0.105159 9.73578 -2.03883e-06 9.73578)
(9.73578 5.23096 -0.105159 9.73578 -2.04406e-06 9.73578)
(9.76765 5.35171 -0.109411 9.76765 -2.09085e-06 9.76765)
(9.76765 5.35171 -0.109411 9.76765 -2.08172e-06 9.76765)
(9.79275 5.44732 -0.113227 9.79275 -2.15866e-06 9.79275)
(9.79275 5.44732 -0.113227 9.79275 -2.16422e-06 9.79275)
(9.81045 5.51897 -0.116604 9.81045 -2.22503e-06 9.81045)
(9.81045 5.51897 -0.116604 9.81045 -2.21538e-06 9.81045)
(9.82022 5.5682 -0.119554 9.82021 -2.28135e-06 9.82022)
(9.82022 5.5682 -0.119554 9.82021 -2.28726e-06 9.82022)
(9.8217 5.59655 -0.122092 9.8217 -2.34221e-06 9.8217)
(9.82169 5.59655 -0.122092 9.8217 -2.33563e-06 9.82169)
(9.81465 5.6055 -0.124233 9.81465 -2.40968e-06 9.81465)
(9.81465 5.6055 -0.124233 9.81465 -2.40271e-06 9.81465)
(9.79898 5.59666 -0.125991 9.79898 -2.48274e-06 9.79898)
(9.79898 5.59666 -0.125991 9.79898 -2.48918e-06 9.79898)
(9.77466 5.57191 -0.12739 9.77466 -2.52799e-06 9.77466)
(9.77466 5.57191 -0.12739 9.77466 -2.51695e-06 9.77466)
(9.74178 5.53285 -0.12846 9.74178 -2.58823e-06 9.74178)
(9.74178 5.53285 -0.12846 9.74178 -2.59505e-06 9.74178)
(9.7005 5.4809 -0.129213 9.7005 -2.64118e-06 9.7005)
(9.7005 5.4809 -0.129213 9.7005 -2.64575e-06 9.7005)
(9.65104 5.41773 -0.129677 9.65104 -2.7028e-06 9.65104)
(9.65104 5.41773 -0.129677 9.65104 -2.69235e-06 9.65104)
(9.59369 5.34482 -0.129879 9.59369 -2.76576e-06 9.59369)
(9.59369 5.34482 -0.129879 9.59369 -2.77317e-06 9.59369)
(9.52875 5.26356 -0.129839 9.52875 -2.8036e-06 9.52875)
(9.52875 5.26356 -0.129839 9.52876 -2.79109e-06 9.52875)
(9.45661 5.17521 -0.129584 9.4566 -2.8327e-06 9.45661)
(9.45661 5.17521 -0.129584 9.4566 -2.84053e-06 9.45661)
(9.37761 5.08083 -0.129131 9.37761 -2.88929e-06 9.37761)
(9.37761 5.08083 -0.129131 9.37761 -2.89732e-06 9.37761)
(9.29218 4.98149 -0.128499 9.29218 -2.93244e-06 9.29218)
(9.29218 4.98149 -0.128499 9.29218 -2.92396e-06 9.29218)
(9.20071 4.87818 -0.12771 9.20071 -2.96261e-06 9.20071)
(9.20071 4.87818 -0.12771 9.20071 -2.96273e-06 9.20071)
(9.10362 4.77176 -0.12678 9.10362 -2.99229e-06 9.10362)
(9.10362 4.77176 -0.12678 9.10362 -3.00098e-06 9.10362)
(9.00133 4.66306 -0.125727 9.00133 -3.02444e-06 9.00133)
(9.00133 4.66306 -0.125727 9.00133 -3.01262e-06 9.00133)
(8.89424 4.55268 -0.124568 8.89424 -3.04693e-06 8.89424)
(8.89424 4.55268 -0.124568 8.89424 -3.05608e-06 8.89424)
(8.78276 4.44125 -0.123311 8.78276 -3.05942e-06 8.78276)
(8.78276 4.44125 -0.123311 8.78276 -3.05924e-06 8.78276)
(8.66729 4.32935 -0.121974 8.66729 -3.07595e-06 8.66729)
(8.66729 4.32935 -0.121974 8.66729 -3.06482e-06 8.66729)
(8.54821 4.21733 -0.120567 8.54821 -3.09743e-06 8.54821)
(8.54821 4.21733 -0.120567 8.54821 -3.10731e-06 8.54821)
(8.4259 4.10561 -0.119095 8.4259 -3.09864e-06 8.4259)
(8.4259 4.10561 -0.119095 8.4259 -3.08429e-06 8.4259)
(8.3007 3.99466 -0.117575 8.3007 -3.08802e-06 8.3007)
(8.3007 3.99466 -0.117575 8.3007 -3.09844e-06 8.3007)
(8.17297 3.8847 -0.116014 8.17298 -3.0866e-06 8.17297)
(8.17297 3.8847 -0.116014 8.17298 -3.09731e-06 8.17297)
(8.04304 3.77597 -0.114417 8.04304 -3.08771e-06 8.04304)
(8.04304 3.77597 -0.114417 8.04304 -3.07012e-06 8.04304)
(7.91121 3.66871 -0.112791 7.91121 -3.08872e-06 7.91121)
(7.91121 3.66871 -0.112791 7.91121 -3.09999e-06 7.91121)
(7.77778 3.56313 -0.111144 7.77778 -3.06691e-06 7.77778)
(7.77778 3.56313 -0.111144 7.77778 -3.04838e-06 7.77778)
(7.64303 3.4594 -0.109483 7.64303 -3.05317e-06 7.64303)
(7.64303 3.4594 -0.109483 7.64303 -3.06506e-06 7.64303)
(7.50723 3.35764 -0.10781 7.50723 -3.00833e-06 7.50723)
(7.50723 3.35764 -0.10781 7.50723 -2.98877e-06 7.50723)
(7.37062 3.25792 -0.106134 7.37062 -3.01103e-06 7.37062)
(7.37062 3.25792 -0.106134 7.37062 -3.02358e-06 7.37062)
(7.23343 3.16029 -0.104452 7.23343 -2.95567e-06 7.23343)
(7.23343 3.16029 -0.104452 7.23343 -2.93499e-06 7.23343)
(7.09587 3.06489 -0.102772 7.09587 -2.92848e-06 7.09587)
(7.09587 3.06489 -0.102772 7.09587 -2.94173e-06 7.09587)
(6.95816 2.97175 -0.101098 6.95816 -2.87869e-06 6.95816)
(6.95816 2.97175 -0.101098 6.95816 -2.86307e-06 6.95816)
(6.82047 2.88087 -0.0994322 6.82047 -2.812e-06 6.82047)
(6.82047 2.88087 -0.0994322 6.82047 -2.82601e-06 6.82047)
(6.68298 2.79221 -0.0977737 6.68298 -2.78023e-06 6.68298)
(6.68298 2.79221 -0.0977737 6.68298 -2.7946e-06 6.68298)
(6.54584 2.70577 -0.0961247 6.54584 -2.72421e-06 6.54584)
(6.54584 2.70577 -0.0961247 6.54584 -2.71289e-06 6.54584)
(6.40921 2.6215 -0.0944871 6.40921 -2.66551e-06 6.40921)
(6.40921 2.6215 -0.0944871 6.40921 -2.6807e-06 6.40921)
(6.27321 2.53932 -0.0928571 6.27322 -2.6034e-06 6.27321)
(6.27321 2.53932 -0.0928571 6.27322 -2.6191e-06 6.27321)
(6.13798 2.45922 -0.0912377 6.13798 -2.5391e-06 6.13798)
(6.13798 2.45922 -0.0912377 6.13798 -2.52865e-06 6.13798)
(6.00363 2.38106 -0.0896275 6.00363 -2.47207e-06 6.00363)
(6.00363 2.38106 -0.0896275 6.00363 -2.4887e-06 6.00363)
(5.87025 2.30477 -0.0880218 5.87025 -2.41388e-06 5.87025)
(5.87025 2.30477 -0.0880218 5.87025 -2.40669e-06 5.87025)
(5.73795 2.23033 -0.0864225 5.73795 -2.32118e-06 5.73795)
(5.73795 2.23033 -0.0864225 5.73795 -2.33884e-06 5.73795)
(5.60681 2.15766 -0.084829 5.60681 -2.23998e-06 5.60681)
(5.60681 2.15766 -0.084829 5.60681 -2.22714e-06 5.60681)
(5.47692 2.08669 -0.0832388 5.47692 -2.16059e-06 5.47692)
(5.47692 2.08669 -0.0832388 5.47692 -2.17935e-06 5.47692)
(5.34835 2.01738 -0.0816519 5.34835 -2.07921e-06 5.34835)
(5.34835 2.01738 -0.0816519 5.34835 -2.06768e-06 5.34835)
(5.22116 1.94972 -0.0800683 5.22116 -1.9824e-06 5.22116)
(5.22116 1.94972 -0.0800683 5.22116 -2.00237e-06 5.22116)
(5.09543 1.88372 -0.0784897 5.09543 -1.88658e-06 5.09543)
(5.09543 1.88372 -0.0784897 5.09543 -1.87158e-06 5.09543)
(4.97121 1.81933 -0.0769173 4.97121 -1.78834e-06 4.97121)
(4.97121 1.81933 -0.0769173 4.97121 -1.80963e-06 4.97121)
(4.84854 1.75651 -0.0753496 4.84854 -1.67958e-06 4.84854)
(4.84854 1.75651 -0.0753496 4.84854 -1.65852e-06 4.84854)
(4.72749 1.69521 -0.0737866 4.72749 -1.59094e-06 4.72749)
(4.72749 1.69521 -0.0737866 4.72749 -1.61369e-06 4.72749)
(4.60808 1.63538 -0.0722279 4.60808 -1.47451e-06 4.60808)
(4.60808 1.63538 -0.0722279 4.60808 -1.44824e-06 4.60808)
(4.49036 1.57695 -0.0706715 4.49036 -1.38738e-06 4.49036)
(4.49036 1.57695 -0.0706715 4.49036 -1.41175e-06 4.49036)
(4.37436 1.51989 -0.0691171 4.37436 -1.25282e-06 4.37436)
(4.37436 1.51989 -0.0691171 4.37436 -1.21824e-06 4.37436)
(4.26011 1.46411 -0.0675631 4.26012 -1.15467e-06 4.26011)
(4.26011 1.46411 -0.0675631 4.26012 -1.19007e-06 4.26011)
(4.14765 1.40956 -0.0660069 4.14765 -1.02957e-06 4.14765)
(4.14765 1.40956 -0.0660069 4.14765 -9.85092e-07 4.14765)
(4.037 1.35619 -0.0644478 4.037 -9.13715e-07 4.037)
(4.037 1.35619 -0.0644478 4.037 -9.85753e-07 4.037)
(3.92818 1.30395 -0.0628843 3.92818 -7.93869e-07 3.92818)
(3.92818 1.30395 -0.0628843 3.92818 -7.20666e-07 3.92818)
(3.82122 1.25282 -0.0613156 3.82122 -6.74632e-07 3.82122)
(3.82122 1.25282 -0.0613156 3.82122 -7.95245e-07 3.82122)
(3.71614 1.20276 -0.0597414 3.71614 -5.61964e-07 3.71614)
(3.71614 1.20276 -0.0597414 3.71614 -4.50363e-07 3.71614)
(3.61295 1.15376 -0.0581613 3.61295 -4.28924e-07 3.61295)
(3.61295 1.15376 -0.0581613 3.61295 -5.95264e-07 3.61295)
(3.51168 1.10581 -0.056576 3.51168 -3.14332e-07 3.51168)
(3.51168 1.10581 -0.056576 3.51168 -1.53036e-07 3.51168)
(3.41235 1.05889 -0.0549854 3.41235 -4.48974e-08 3.41235)
(3.41235 1.05889 -0.0549854 3.41235 -3.45865e-07 3.41235)
(3.31497 1.013 -0.0533897 3.31497 -6.20966e-08 3.31497)
(3.31497 1.013 -0.0533897 3.31497 1.68294e-07 3.31497)
(3.21957 0.96815 -0.0517904 3.21957 1.90705e-24 3.21957)
(3.21956 0.96815 -0.0517904 3.21957 -2.62375e-07 3.21956)
(3.12614 0.924361 -0.0501889 3.12614 1.99061e-07 3.12614)
(3.12614 0.924361 -0.0501889 3.12614 5.29422e-07 3.12614)
(3.03472 0.881696 -0.0485887 3.03472 2.3259e-07 3.03472)
(3.03472 0.881696 -0.0485887 3.03473 -8.06943e-08 3.03472)
(2.94532 0.84024 -0.046995 2.94532 4.71725e-07 2.94532)
(2.94532 0.84024 -0.046995 2.94531 9.41533e-07 2.94532)
(2.85794 0.800124 -0.045415 2.85794 6.39219e-07 2.85794)
(2.85794 0.800124 -0.045415 2.85794 3.45565e-08 2.85794)
(2.7726 0.761511 -0.043859 2.7726 7.36662e-07 2.7726)
(2.7726 0.761511 -0.043859 2.7726 1.38634e-06 2.7726)
(2.6893 0.72459 -0.0423389 2.6893 9.35945e-07 2.6893)
(2.6893 0.72459 -0.0423389 2.68931 1.18371e-07 2.6893)
(2.60805 0.689559 -0.0408696 2.60805 1.00706e-06 2.60805)
(2.60806 0.689559 -0.0408696 2.60805 1.9047e-06 2.60806)
(2.52885 0.656593 -0.0394653 2.52885 1.23138e-06 2.52885)
(2.52885 0.656593 -0.0394653 2.52886 1.07507e-07 2.52885)
(2.45169 0.625833 -0.0381395 2.45169 1.28787e-06 2.45169)
(2.45169 0.625833 -0.0381395 2.45168 2.54767e-06 2.45169)
(2.37655 0.597358 -0.0369038 2.37655 1.53942e-06 2.37655)
(2.37655 0.597358 -0.0369038 2.37656 -1.89441e-08 2.37655)
(2.30342 0.571173 -0.0357655 2.30342 1.54499e-06 2.30342)
(2.30343 0.571173 -0.0357655 2.30341 3.30825e-06 2.30343)
(2.23227 0.547178 -0.0347277 2.23227 1.61002e-06 2.23227)
(2.23227 0.547178 -0.0347277 2.23228 -2.89481e-07 2.23227)
(2.16307 0.525212 -0.0337851 2.16307 1.83203e-06 2.16307)
(2.16307 0.525212 -0.0337851 2.16306 4.32208e-06 2.16307)
(2.09577 0.505033 -0.0329328 2.09577 1.45316e-06 2.09577)
(2.09577 0.505033 -0.0329328 2.09578 -8.51125e-07 2.09577)
(2.03035 0.486273 -0.032154 2.03035 2.06842e-06 2.03035)
(2.03035 0.486273 -0.032154 2.03033 5.57904e-06 2.03035)
(1.96674 0.468506 -0.0314254 1.96674 9.83948e-07 1.96674)
(1.96673 0.468506 -0.0314254 1.96676 -1.69663e-06 1.96673)
(1.90491 0.451337 -0.0307208 1.90491 2.30782e-06 1.90491)
(1.90492 0.451337 -0.0307208 1.9049 7.23805e-06 1.90492)
(1.84482 0.43441 -0.0300174 1.84482 5.00369e-08 1.84482)
(1.84481 0.43441 -0.0300174 1.84484 -3.03749e-06 1.84481)
(1.78641 0.417436 -0.0292917 1.78641 2.5024e-06 1.78641)
(1.78642 0.417436 -0.0292917 1.78639 9.41172e-06 1.78642)
(1.72965 0.400295 -0.0285275 1.72965 -4.11505e-38 1.72965)
(1.72964 0.400295 -0.0285275 1.72968 -4.98159e-06 1.72964)
(1.67451 0.38299 -0.0277224 1.67451 2.6139e-06 1.67451)
(1.67452 0.38299 -0.0277224 1.67448 1.22509e-05 1.67452)
(1.62094 0.365599 -0.0268774 1.62094 -0 1.62094)
(1.62093 0.365599 -0.0268774 1.62097 -7.82072e-06 1.62093)
(1.56893 0.348259 -0.026 1.56893 2.65503e-06 1.56893)
(1.56895 0.348259 -0.026 1.5689 1.61011e-05 1.56895)
(1.51845 0.331185 -0.0251012 1.51845 2.13424e-22 1.51845)
(1.51843 0.331185 -0.0251012 1.51848 -1.18851e-05 1.51843)
(1.46946 0.314531 -0.0242008 1.46946 2.56975e-06 1.46946)
(1.46948 0.314531 -0.0242008 1.46943 2.1325e-05 1.46948)
(1.42196 0.298428 -0.0233025 1.42196 -2.96696e-21 1.42196)
(1.42194 0.298428 -0.0233025 1.422 -1.7613e-05 1.42194)
(1.37592 0.283115 -0.0224242 1.37592 2.34122e-06 1.37592)
(1.37594 0.283115 -0.0224242 1.37588 2.85298e-05 1.37594)
(1.33132 0.268757 -0.0215873 1.33132 7.25288e-22 1.33132)
(1.33129 0.268757 -0.0215874 1.33136 -2.57511e-05 1.33129)
(1.28812 0.255481 -0.0208002 1.28812 1.92388e-06 1.28812)
(1.28814 0.255481 -0.0208002 1.28808 3.85735e-05 1.28814)
(1.24632 0.243373 -0.0200801 1.24632 -0 1.24632)
(1.2463 0.243373 -0.0200802 1.24636 -3.72224e-05 1.2463)
(1.20588 0.232329 -0.0194301 1.20588 4.49999e-06 1.20588)
(1.2059 0.232329 -0.0194301 1.20584 5.25298e-05 1.2059)
(1.16677 0.222216 -0.0188368 1.16677 4.81098e-22 1.16677)
(1.16675 0.222216 -0.0188368 1.1668 -5.24971e-05 1.16675)
(1.12896 0.212893 -0.0182978 1.12896 6.12478e-06 1.12896)
(1.12898 0.212893 -0.0182978 1.12893 6.30654e-05 1.12898)
(1.09243 0.204175 -0.0177974 1.09243 -1.13021e-20 1.09243)
(1.09242 0.204175 -0.0177974 1.09246 -6.65004e-05 1.09242)
(1.05715 0.195837 -0.0173245 1.05715 6.2259e-06 1.05715)
(1.05715 0.195837 -0.0173245 1.05713 6.73065e-05 1.05715)
(1.02308 0.187473 -0.0168542 1.02308 -5.22752e-06 1.02308)
(1.02308 0.187474 -0.0168542 1.02308 -7.02569e-05 1.02308)
(0.990202 0.178885 -0.0163418 0.990202 -3.38986e-07 0.990202)
(0.990199 0.178885 -0.0163418 0.990209 6.86373e-05 0.990199)
(0.958493 0.170156 -0.0157954 0.958493 -6.97072e-06 0.958493)
(0.9585 0.170156 -0.0157954 0.958479 -6.6249e-05 0.9585)
(0.92793 0.161324 -0.0152198 0.92793 9.61545e-21 0.92793)
(0.927919 0.161324 -0.0152198 0.927953 5.95767e-05 0.927919)
(0.898497 0.152567 -0.0146148 0.898497 -6.42463e-06 0.898498)
(0.898512 0.152567 -0.0146148 0.898469 -6.24108e-05 0.898511)
(0.870178 0.143996 -0.0140126 0.870178 -7.03587e-21 0.870178)
(0.870161 0.143996 -0.0140126 0.870211 4.51563e-05 0.870161)
(0.842957 0.135578 -0.0134015 0.842957 -3.4626e-06 0.842957)
(0.842975 0.135578 -0.0134015 0.84292 -4.96998e-05 0.842975)
(0.816822 0.12751 -0.0127876 0.816822 4.20947e-21 0.816822)
(0.816802 0.12751 -0.0127877 0.81686 3.36004e-05 0.816803)
(0.79176 0.119938 -0.0122039 0.79176 -4.07057e-06 0.79176)
(0.791779 0.119938 -0.0122039 0.791722 -3.98198e-05 0.791779)
(0.76776 0.113009 -0.0116484 0.76776 1.72266e-22 0.76776)
(0.767741 0.113009 -0.0116484 0.767798 2.4598e-05 0.767742)
(0.744811 0.107173 -0.0111562 0.744811 -4.5407e-06 0.744811)
(0.744829 0.107173 -0.0111561 0.744775 -3.21977e-05 0.744829)
(0.722898 0.102739 -0.0107892 0.722898 2.79848e-21 0.722898)
(0.722881 0.102739 -0.0107892 0.722933 1.76308e-05 0.722881)
(0.702007 0.0998161 -0.0105584 0.702007 -4.97274e-06 0.702007)
(0.702023 0.0998161 -0.0105584 0.701975 -2.64185e-05 0.702023)
(0.68212 0.0985929 -0.0104883 0.68212 2.71297e-21 0.68212)
(0.682105 0.0985929 -0.0104884 0.682151 1.22128e-05 0.682105)
(0.663217 0.0990928 -0.0106082 0.663217 -5.34367e-06 0.663217)
(0.663231 0.0990928 -0.0106081 0.663189 -2.20005e-05 0.663231)
(0.645272 0.101145 -0.0109093 0.645272 -3.44775e-07 0.645272)
(0.645259 0.101145 -0.0109093 0.645298 7.9502e-06 0.645259)
(0.628258 0.10447 -0.011379 0.628258 -5.6451e-06 0.628259)
(0.62827 0.10447 -0.011379 0.628235 -1.86217e-05 0.62827)
(0.612144 0.108605 -0.0119827 0.612144 -3.5609e-06 0.612144)
(0.612133 0.108605 -0.0119827 0.612166 4.67842e-06 0.612133)
(0.596894 0.112895 -0.0126628 0.596894 -5.87252e-06 0.596894)
(0.596903 0.112895 -0.0126628 0.596874 -1.60155e-05 0.596903)
(0.582472 0.116829 -0.0133339 0.582472 -5.90555e-06 0.582472)
(0.582463 0.116829 -0.0133339 0.58249 1.1582e-06 0.582463)
(0.568843 0.120246 -0.0139654 0.568843 -6.05698e-06 0.568844)
(0.568852 0.120246 -0.0139654 0.568827 -1.39919e-05 0.568852)
(0.555975 0.123262 -0.0145466 0.555975 -6.53033e-06 0.555975)
(0.555967 0.123262 -0.0145466 0.55599 -1.55205e-06 0.555967)
(0.543833 0.12623 -0.0151116 0.543833 -6.2206e-06 0.543833)
(0.54384 0.12623 -0.0151116 0.54382 -1.24468e-05 0.54384)
(0.532386 0.129464 -0.0157093 0.532386 -6.58615e-06 0.532386)
(0.53238 0.129464 -0.0157093 0.532398 -3.39132e-06 0.53238)
(0.5216 0.133173 -0.0163681 0.5216 -6.3424e-06 0.5216)
(0.521605 0.133173 -0.0163681 0.521589 -1.12624e-05 0.521605)
(0.511437 0.137476 -0.0171157 0.511437 -6.6041e-06 0.511437)
(0.511432 0.137476 -0.0171157 0.511447 -4.60757e-06 0.511432)
(0.501857 0.142365 -0.0179604 0.501857 -6.45429e-06 0.501857)
(0.501861 0.142365 -0.0179604 0.501849 -1.03552e-05 0.501861)
(0.492815 0.147748 -0.0188984 0.492815 -6.74267e-06 0.492815)
(0.492811 0.147748 -0.0188984 0.492823 -5.54944e-06 0.492811)
(0.484261 0.15361 -0.0199174 0.484261 -6.72471e-06 0.484261)
(0.484265 0.15361 -0.0199174 0.484255 -9.85595e-06 0.484265)
(0.476141 0.159832 -0.0210314 0.476141 -7.04701e-06 0.476141)
(0.476138 0.159832 -0.0210314 0.476147 -6.39146e-06 0.476138)
(0.468395 0.165986 -0.0222009 0.468395 -7.12551e-06 0.468395)
(0.468398 0.165986 -0.0222009 0.468391 -9.69065e-06 0.468398)
(0.460962 0.171451 -0.0233521 0.460962 -7.44675e-06 0.460962)
(0.460959 0.171451 -0.0233521 0.460966 -7.15088e-06 0.460959)
(0.45378 0.175505 -0.0243861 0.45378 -7.64379e-06 0.45378)
(0.453782 0.175505 -0.0243861 0.453777 -9.76303e-06 0.453782)
(0.446799 0.177625 -0.0251904 0.446799 -8.01989e-06 0.446799)
(0.446799 0.177625 -0.0251904 0.4468 -7.9644e-06 0.446799)
(0.439979 0.177682 -0.0257122 0.439979 -8.27526e-06 0.439979)
(0.439981 0.177682 -0.0257122 0.439976 -1.00502e-05 0.439981)
(0.433294 0.176004 -0.0259442 0.433298 -8.45298e-06 0.433294)
(0.433295 0.176004 -0.0259442 0.433295 -8.55806e-06 0.433295)
(0.426738 0.173326 -0.0259663 0.426738 -8.6753e-06 0.426738)
(0.42674 0.173326 -0.0259663 0.426736 -1.01756e-05 0.42674)
(0.420304 0.170566 -0.0258966 0.420309 -8.58545e-06 0.420304)
(0.420306 0.170566 -0.0258966 0.420306 -8.79782e-06 0.420306)
(0.413996 0.168758 -0.0258831 0.413996 -8.77571e-06 0.413996)
(0.413996 0.168758 -0.0258831 0.413995 -1.00607e-05 0.413996)
(0.4078 0.168421 -0.0260951 0.407803 -8.65903e-06 0.4078)
(0.407801 0.168421 -0.0260951 0.407801 -8.94335e-06 0.407801)
(0.401702 0.169242 -0.0265357 0.401702 -9.18676e-06 0.401702)
(0.401702 0.169242 -0.0265357 0.401702 -1.02607e-05 0.401702)
(0.395669 0.170383 -0.0271204 0.395672 -9.07788e-06 0.395669)
(0.39567 0.170383 -0.0271204 0.39567 -9.41078e-06 0.39567)
(0.389673 0.170865 -0.0276798 0.389672 -9.88751e-06 0.389673)
(0.389673 0.170865 -0.0276798 0.389673 -1.08993e-05 0.389673)
(0.383682 0.170232 -0.028069 0.383685 -9.77071e-06 0.383682)
(0.383683 0.170232 -0.028069 0.383683 -1.01369e-05 0.383683)
(0.377681 0.168496 -0.0282744 0.37768 -1.05058e-05 0.377681)
(0.377681 0.168496 -0.0282744 0.37768 -1.16199e-05 0.377681)
(0.371656 0.165786 -0.0282986 0.371659 -1.05037e-05 0.371656)
(0.371657 0.165786 -0.0282986 0.371657 -1.10196e-05 0.371657)
(0.36561 0.16209 -0.0281676 0.365609 -1.1023e-05 0.36561)
(0.36561 0.16209 -0.0281676 0.365609 -1.22491e-05 0.36561)
(0.359543 0.157158 -0.0278357 0.359546 -1.11651e-05 0.359543)
(0.359544 0.157158 -0.0278357 0.359544 -1.18501e-05 0.359544)
(0.353478 0.150758 -0.0272466 0.353477 -1.16126e-05 0.353478)
(0.353478 0.150758 -0.0272465 0.353477 -1.29616e-05 0.353478)
(0.347438 0.142971 -0.0263548 0.347439 -1.19854e-05 0.347438)
(0.347438 0.142971 -0.0263548 0.347438 -1.28737e-05 0.347438)
(0.341466 0.134576 -0.0252129 0.341466 -1.2163e-05 0.341466)
(0.341466 0.134576 -0.0252129 0.341466 -1.3647e-05 0.341466)
(0.335604 0.12682 -0.0240319 0.335605 -1.23932e-05 0.335604)
(0.335604 0.12682 -0.0240319 0.335604 -1.34387e-05 0.335604)
(0.329891 0.120944 -0.0230528 0.329891 -1.22881e-05 0.329891)
(0.329891 0.120944 -0.0230528 0.329891 -1.39209e-05 0.329891)
(0.32435 0.117921 -0.0225101 0.324352 -1.24928e-05 0.32435)
(0.324351 0.117921 -0.0225101 0.324351 -1.3628e-05 0.324351)
(0.318989 0.118107 -0.0225687 0.318989 -1.261e-05 0.318989)
(0.318989 0.118107 -0.0225687 0.318989 -1.4204e-05 0.318989)
(0.313788 0.12118 -0.0232467 0.313789 -1.29592e-05 0.313788)
(0.313788 0.12118 -0.0232467 0.313788 -1.42162e-05 0.313788)
(0.308711 0.126688 -0.0244508 0.308712 -1.31841e-05 0.308711)
(0.308711 0.126688 -0.0244508 0.308712 -1.4861e-05 0.308711)
(0.303698 0.134165 -0.026143 0.3037 -1.35686e-05 0.303698)
(0.303699 0.134165 -0.026143 0.303699 -1.49126e-05 0.303699)
(0.298671 0.142271 -0.0282141 0.298672 -1.40582e-05 0.298671)
(0.298671 0.142271 -0.0282141 0.298672 -1.58088e-05 0.298671)