/*--------------------------------*- C++ -*----------------------------------*\
| =========                 |                                                 |
| \\      /  F ield         | OpenFOAM: The Open Source CFD Toolbox           |
|  \\    /   O peration     | Version:  2012                                  |
|   \\  /    A nd           | Website:  www.openfoam.com                      |
|    \\/     M anipulation  |                                                 |
\*---------------------------------------------------------------------------*/
FoamFile
{
    version     2.0;
    format      ascii;
    class       volScalarField;
    location    "12300";
    object      k;
}
// * * * * * * * * * * * * * * * * * * * * * * * * * * * * * * * * * * * * * //

dimensions      [0 2 -2 0 0 0 0];


internalField   nonuniform List<scalar> 
2560
(
0.0156062
0.015594
0.445493
0.445172
2.9637
2.96181
8.06488
8.06097
13.4565
13.4514
18.2131
18.2071
22.3968
22.3901
26.1635
26.1562
29.6272
29.6193
32.8642
32.8559
35.9271
35.9183
38.8529
38.8436
41.6689
41.6591
44.3957
44.3856
47.0494
47.0389
49.6428
49.6319
52.1864
52.1751
54.6889
54.6772
57.1576
57.1455
59.5989
59.5864
62.018
62.0051
64.4196
64.4063
66.8078
66.7942
69.1863
69.1723
71.5584
71.5439
73.9271
73.9122
76.2952
76.2799
78.6653
78.6496
81.0399
81.0238
83.4214
83.4049
85.8119
85.795
88.2137
88.1963
90.6286
90.6108
93.0585
93.0402
95.5046
95.4858
97.9682
97.9489
100.45
100.43
102.951
102.931
105.472
105.451
108.014
107.992
110.577
110.555
113.162
113.139
115.77
115.747
118.4
118.377
121.054
121.03
123.729
123.704
126.421
126.396
129.128
129.102
131.842
131.816
134.559
134.531
137.269
137.241
139.967
139.937
142.644
142.614
145.296
145.265
147.924
147.892
150.538
150.505
153.162
153.128
155.834
155.798
158.596
158.559
161.478
161.44
164.476
164.437
167.498
167.458
170.39
170.348
172.939
172.897
174.925
174.882
176.166
176.123
176.56
176.519
176.103
176.063
174.874
174.836
173.013
172.977
170.684
170.652
168.054
168.023
165.266
165.237
162.436
162.409
159.647
159.622
156.953
156.929
154.382
154.359
151.938
151.915
149.606
149.585
147.367
147.347
145.194
145.175
143.056
143.039
140.927
140.912
138.781
138.768
136.597
136.586
134.358
134.348
132.051
132.042
129.667
129.659
127.2
127.194
124.653
124.648
122.029
122.024
119.339
119.335
116.597
116.594
113.823
113.82
111.036
111.034
108.261
108.258
105.516
105.514
102.821
102.819
100.189
100.187
97.6287
97.6269
95.145
95.1433
92.7387
92.7372
90.4085
90.4071
88.152
88.1507
85.9669
85.9657
83.8517
83.8506
81.8062
81.8052
79.8311
79.8302
77.9276
77.9267
76.0967
76.096
74.3384
74.3377
72.6507
72.65
71.0294
71.0288
69.4681
69.4676
67.9583
67.9578
66.4898
66.4894
65.0523
65.052
63.6368
63.6365
62.2365
62.2363
60.8485
60.8484
59.4741
59.474
58.1184
58.1184
56.7899
56.7899
55.4984
55.4984
54.2534
54.2534
53.0622
53.0622
51.9297
51.9297
50.8559
50.8559
49.8375
49.8375
48.8694
48.8695
47.9452
47.9453
47.0588
47.0588
46.205
46.205
45.3803
45.3803
44.583
44.583
43.8125
43.8125
43.0691
43.0691
42.3537
42.3537
41.6669
41.6669
41.0094
41.0093
40.381
40.381
39.7815
39.7814
39.2096
39.2095
38.664
38.664
38.143
38.1429
37.6444
37.6443
37.1666
37.1665
36.7079
36.7078
36.2672
36.267
35.8438
35.8436
35.4378
35.4376
35.0501
35.0498
34.6817
34.6814
34.3343
34.334
34.0099
34.0096
33.7104
33.7099
33.4374
33.4369
33.1927
33.1921
32.9773
32.9767
32.7922
32.7915
32.6375
32.6367
32.5131
32.5122
32.4181
32.4171
32.3509
32.3498
32.3092
32.308
32.2896
32.2884
32.2878
32.2864
32.2981
32.2965
32.3136
32.312
32.3266
32.3248
32.3283
32.3264
32.3098
32.3079
32.2627
32.2609
32.1799
32.1782
32.0564
32.055
31.8908
31.8899
31.6851
31.6848
31.4453
31.4454
31.1803
31.1807
30.9024
30.9028
30.6253
30.6256
30.3623
30.3626
30.1254
30.1255
29.9228
29.9228
29.7587
29.7586
29.6327
29.6325
29.5382
29.5379
29.4657
29.4653
29.403
29.4025
29.3367
29.3364
29.2543
29.2541
29.1449
29.1452
29.0011
29.0018
28.8179
28.8191
28.5938
28.5951
28.3298
28.3311
28.03
28.0312
27.7001
27.7013
27.3474
27.3484
26.9793
26.9803
26.6037
26.6045
26.2277
26.2284
25.8582
25.8588
25.5009
25.5015
25.161
25.1615
24.8426
24.843
24.549
24.5493
24.2829
24.2832
24.0462
24.0463
23.8399
23.84
23.6644
23.6645
23.5194
23.5194
23.4032
23.4031
23.3129
23.3128
23.2444
23.2442
23.1914
23.1912
23.1464
23.1461
23.1
23.0996
23.0416
23.0411
22.9602
22.9597
22.8452
22.8447
22.6875
22.6869
22.4806
22.4799
22.2217
22.221
21.9121
21.9115
21.5588
21.5585
21.172
21.1719
20.7636
20.7637
20.3467
20.3469
19.9338
19.934
19.5351
19.5352
19.1569
19.1569
18.8009
18.8009
18.4654
18.4653
18.1453
18.1452
17.8347
17.8346
17.5278
17.5276
17.2205
17.2204
16.9118
16.9118
16.6027
16.6028
16.2958
16.296
15.9948
15.995
15.7037
15.7038
15.4259
15.426
15.1639
15.164
14.9191
14.9191
14.6919
14.692
14.4823
14.4824
14.2899
14.29
14.1144
14.1144
13.9555
13.9555
13.8131
13.8131
13.6871
13.6871
13.5771
13.5771
13.4827
13.4827
13.4033
13.4033
13.3379
13.3379
13.2856
13.2856
13.2454
13.2454
13.2165
13.2165
13.198
13.198
13.1895
13.1895
13.1908
13.1908
13.2018
13.2018
13.2227
13.2227
13.2539
13.2539
13.2959
13.2959
13.349
13.349
13.4136
13.4136
13.4898
13.4898
13.5776
13.5776
13.6768
13.6768
13.7874
13.7874
13.9089
13.9089
14.0412
14.0412
14.184
14.184
14.3373
14.3373
14.5009
14.5009
14.6747
14.6747
14.8587
14.8586
15.0527
15.0527
15.2567
15.2567
15.4707
15.4707
15.6944
15.6944
15.9279
15.9279
16.1711
16.1711
16.424
16.424
16.6867
16.6867
16.9596
16.9596
17.2429
17.2429
17.5372
17.5372
17.8429
17.8429
18.1606
18.1606
18.4907
18.4907
18.8334
18.8334
19.1888
19.1888
19.5572
19.5572
19.9384
19.9384
20.3327
20.3327
20.7402
20.7402
21.1613
21.1613
21.5967
21.5967
22.047
22.047
22.5132
22.5132
22.9962
22.9962
23.4972
23.4972
24.0174
24.0174
24.5577
24.5577
25.1194
25.1194
25.7036
25.7036
26.3113
26.3113
26.9433
26.9433
27.6002
27.6002
28.2813
28.2813
28.9836
28.9836
29.6987
29.6987
30.4054
30.4054
31.0551
31.0551
31.5419
31.5419
31.5027
31.5027
0.0155939
0.0156062
0.445171
0.445493
2.96181
2.9637
8.06096
8.06488
13.4514
13.4565
18.207
18.2131
22.39
22.3968
26.1562
26.1635
29.6193
29.6272
32.8559
32.8642
35.9182
35.9271
38.8436
38.8529
41.6591
41.6689
44.3855
44.3957
47.0388
47.0494
49.6319
49.6428
52.1751
52.1864
54.6772
54.6889
57.1455
57.1576
59.5864
59.5989
62.0051
62.018
64.4063
64.4196
66.7942
66.8078
69.1723
69.1863
71.5439
71.5584
73.9122
73.9271
76.2799
76.2952
78.6496
78.6653
81.0238
81.0399
83.4049
83.4214
85.795
85.8119
88.1963
88.2137
90.6108
90.6287
93.0401
93.0585
95.4858
95.5046
97.9489
97.9682
100.43
100.45
102.931
102.951
105.451
105.472
107.992
108.014
110.555
110.577
113.139
113.162
115.747
115.77
118.377
118.401
121.03
121.054
123.704
123.729
126.396
126.421
129.102
129.128
131.816
131.842
134.531
134.559
137.241
137.269
139.937
139.967
142.614
142.644
145.265
145.296
147.892
147.924
150.505
150.538
153.128
153.162
155.798
155.834
158.559
158.596
161.44
161.478
164.437
164.476
167.458
167.498
170.348
170.39
172.897
172.939
174.882
174.925
176.123
176.166
176.519
176.56
176.063
176.103
174.836
174.874
172.977
173.013
170.652
170.684
168.023
168.054
165.237
165.266
162.409
162.436
159.622
159.647
156.929
156.953
154.359
154.382
151.915
151.938
149.585
149.606
147.347
147.367
145.175
145.194
143.039
143.056
140.912
140.927
138.768
138.781
136.586
136.597
134.348
134.358
132.042
132.051
129.659
129.667
127.194
127.2
124.648
124.653
122.024
122.029
119.335
119.339
116.594
116.597
113.819
113.823
111.034
111.036
108.258
108.261
105.514
105.516
102.819
102.821
100.187
100.189
97.6269
97.6287
95.1433
95.1449
92.7371
92.7387
90.4071
90.4085
88.1507
88.152
85.9656
85.9668
83.8506
83.8517
81.8052
81.8062
79.8302
79.8311
77.9267
77.9275
76.0959
76.0967
74.3377
74.3384
72.65
72.6506
71.0288
71.0294
69.4676
69.4681
67.9578
67.9582
66.4893
66.4897
65.052
65.0523
63.6365
63.6367
62.2363
62.2365
60.8483
60.8485
59.4739
59.474
58.1183
58.1184
56.7898
56.7898
55.4983
55.4983
54.2533
54.2533
53.0622
53.0622
51.9297
51.9297
50.8558
50.8558
49.8375
49.8374
48.8694
48.8694
47.9452
47.9451
47.0587
47.0587
46.2049
46.2049
45.3802
45.3802
44.5829
44.5829
43.8124
43.8124
43.069
43.069
42.3535
42.3535
41.6668
41.6668
41.0092
41.0092
40.3809
40.3809
39.7813
39.7813
39.2094
39.2095
38.6638
38.6639
38.1427
38.1428
37.6442
37.6443
37.1664
37.1665
36.7076
36.7078
36.2668
36.267
35.8434
35.8436
35.4375
35.4377
35.0496
35.0499
34.6812
34.6815
34.3339
34.3342
34.0094
34.0098
33.7098
33.7102
33.4368
33.4373
33.192
33.1925
32.9765
32.9772
32.7913
32.792
32.6365
32.6373
32.512
32.5129
32.4169
32.4179
32.3496
32.3507
32.3078
32.309
32.2882
32.2895
32.2862
32.2876
32.2963
32.2979
32.3118
32.3135
32.3246
32.3264
32.3262
32.3282
32.3077
32.3097
32.2607
32.2626
32.178
32.1798
32.0548
32.0563
31.8897
31.8907
31.6847
31.685
31.4452
31.4452
31.1805
31.1802
30.9027
30.9023
30.6255
30.6251
30.3624
30.3622
30.1253
30.1252
29.9226
29.9225
29.7583
29.7584
29.6322
29.6324
29.5376
29.5379
29.465
29.4654
29.4022
29.4026
29.336
29.3364
29.2538
29.2539
29.1449
29.1446
29.0015
29.0007
28.8188
28.8176
28.5949
28.5935
28.3309
28.3295
28.031
28.0297
27.7011
27.6999
27.3483
27.3472
26.9801
26.9792
26.6044
26.6035
26.2283
26.2276
25.8587
25.858
25.5013
25.5008
25.1613
25.1608
24.8428
24.8424
24.5491
24.5488
24.2829
24.2827
24.0461
24.0459
23.8397
23.8396
23.6642
23.6641
23.519
23.519
23.4027
23.4028
23.3124
23.3125
23.2437
23.2439
23.1906
23.1909
23.1455
23.1459
23.099
23.0995
23.0406
23.0411
22.9592
22.9598
22.8442
22.8449
22.6865
22.6873
22.4796
22.4805
22.2207
22.2216
21.9114
21.9121
21.5584
21.5589
21.1719
21.1721
20.7638
20.7638
20.347
20.3469
19.9341
19.934
19.5352
19.5352
19.1569
19.1569
18.8009
18.8009
18.4652
18.4653
18.1451
18.1452
17.8344
17.8346
17.5275
17.5277
17.2203
17.2204
16.9118
16.9117
16.6028
16.6026
16.296
16.2958
15.995
15.9948
15.7039
15.7037
15.4261
15.4259
15.164
15.1639
14.9192
14.9191
14.692
14.6919
14.4824
14.4823
14.29
14.2899
14.1144
14.1144
13.9555
13.9555
13.8131
13.8131
13.687
13.687
13.5771
13.577
13.4827
13.4827
13.4032
13.4032
13.3378
13.3378
13.2855
13.2855
13.2453
13.2453
13.2164
13.2164
13.198
13.198
13.1895
13.1895
13.1908
13.1908
13.2018
13.2018
13.2227
13.2227
13.254
13.254
13.2959
13.2959
13.349
13.349
13.4136
13.4136
13.4898
13.4898
13.5776
13.5776
13.6768
13.6768
13.7874
13.7874
13.9089
13.9089
14.0412
14.0412
14.184
14.184
14.3373
14.3373
14.5009
14.5009
14.6747
14.6747
14.8586
14.8586
15.0527
15.0527
15.2567
15.2567
15.4707
15.4707
15.6944
15.6944
15.9279
15.9279
16.1711
16.1711
16.424
16.424
16.6867
16.6867
16.9595
16.9596
17.2429
17.2429
17.5372
17.5372
17.8429
17.8429
18.1606
18.1606
18.4907
18.4907
18.8333
18.8333
19.1888
19.1888
19.5571
19.5571
19.9383
19.9384
20.3326
20.3326
20.7401
20.7401
21.1613
21.1613
21.5966
21.5967
22.047
22.047
22.5131
22.5131
22.9962
22.9962
23.4972
23.4972
24.0173
24.0173
24.5576
24.5577
25.1193
25.1193
25.7034
25.7035
26.311
26.3111
26.943
26.943
27.5998
27.5998
28.2807
28.2807
28.9829
28.9829
29.6978
29.6978
30.4043
30.4043
31.0538
31.0538
31.5406
31.5405
31.5016
31.5016
31.5028
31.5028
31.542
31.542
31.0555
31.0555
30.4058
30.4058
29.6991
29.6991
28.9841
28.9841
28.2817
28.2817
27.6007
27.6007
26.9438
26.9438
26.3118
26.3118
25.7041
25.7041
25.1199
25.1199
24.5582
24.5582
24.0178
24.0178
23.4977
23.4977
22.9967
22.9967
22.5137
22.5137
22.0475
22.0475
21.5972
21.5972
21.1618
21.1618
20.7407
20.7407
20.3332
20.3332
19.939
19.939
19.5577
19.5577
19.1894
19.1894
18.834
18.834
18.4913
18.4913
18.1612
18.1612
17.8435
17.8435
17.5377
17.5377
17.2435
17.2435
16.9602
16.9602
16.6873
16.6873
16.4246
16.4246
16.1717
16.1717
15.9284
15.9284
15.6949
15.6949
15.4711
15.4711
15.2571
15.2571
15.053
15.053
14.859
14.859
14.675
14.675
14.5012
14.5012
14.3375
14.3375
14.1842
14.1842
14.0413
14.0413
13.909
13.909
13.7875
13.7875
13.6769
13.6769
13.5776
13.5776
13.4898
13.4898
13.4135
13.4135
13.3489
13.3489
13.2958
13.2958
13.2538
13.2538
13.2225
13.2225
13.2015
13.2015
13.1905
13.1905
13.1892
13.1892
13.1975
13.1975
13.2159
13.2159
13.2448
13.2448
13.2849
13.2849
13.3371
13.3371
13.4025
13.4025
13.4819
13.4819
13.5762
13.5763
13.6862
13.6862
13.8122
13.8122
13.9545
13.9546
14.1134
14.1134
14.2888
14.2889
14.4812
14.4812
14.6907
14.6908
14.9178
14.9179
15.1626
15.1627
15.4245
15.4246
15.7023
15.7024
15.9934
15.9935
16.2944
16.2946
16.6013
16.6015
16.9105
16.9106
17.2194
17.2193
17.5268
17.5266
17.8338
17.8337
18.1445
18.1444
18.4647
18.4646
18.8003
18.8003
19.1563
19.1563
19.5346
19.5347
19.9334
19.9335
20.3464
20.3466
20.7635
20.7636
21.172
21.1719
21.5591
21.5587
21.9125
21.9119
22.2221
22.2214
22.4811
22.4803
22.688
22.6873
22.8456
22.845
22.9606
22.96
23.0419
23.0415
23.1003
23.0999
23.1467
23.1464
23.1917
23.1915
23.2446
23.2444
23.3131
23.313
23.4033
23.4032
23.5195
23.5195
23.6644
23.6645
23.8398
23.8399
24.046
24.0462
24.2827
24.283
24.5488
24.5491
24.8422
24.8426
25.1606
25.1611
25.5004
25.501
25.8576
25.8583
26.2271
26.2278
26.6029
26.6038
26.9785
26.9795
27.3465
27.3476
27.6992
27.7005
28.029
28.0303
28.3287
28.3301
28.5926
28.594
28.8168
28.818
28.9998
29.0007
29.1437
29.144
29.2529
29.2527
29.3351
29.3348
29.4013
29.4008
29.464
29.4636
29.5365
29.5362
29.6309
29.6307
29.7569
29.7568
29.921
29.921
30.1236
30.1238
30.3605
30.3608
30.6235
30.6238
30.9006
30.901
31.1785
31.1789
31.4434
31.4435
31.6833
31.683
31.8891
31.8882
32.0548
32.0533
32.1783
32.1764
32.261
32.2591
32.3081
32.3061
32.3265
32.3245
32.3248
32.3229
32.3118
32.31
32.2962
32.2945
32.2858
32.2843
32.2876
32.2862
32.3071
32.3058
32.3487
32.3476
32.4158
32.4148
32.5107
32.5098
32.635
32.6342
32.7896
32.7889
32.9746
32.974
33.1898
33.1893
33.4344
33.4339
33.7072
33.7068
34.0066
34.0063
34.3309
34.3305
34.678
34.6777
35.0462
35.0459
35.4337
35.4335
35.8394
35.8392
36.2625
36.2623
36.703
36.7028
37.1614
37.1613
37.6389
37.6388
38.1371
38.137
38.6579
38.6578
39.2032
39.2032
39.7748
39.7748
40.3741
40.3741
41.0022
41.0022
41.6595
41.6595
42.346
42.346
43.0611
43.0611
43.8041
43.8041
44.5742
44.5743
45.3711
45.3711
46.1952
46.1953
47.0486
47.0486
47.9345
47.9346
48.8583
48.8583
49.8259
49.826
50.8438
50.8439
51.9172
51.9173
53.0493
53.0493
54.2399
54.24
55.4845
55.4845
56.7756
56.7756
58.1036
58.1036
59.4588
59.4588
60.8328
60.8327
62.2204
62.2202
63.6202
63.62
65.0354
65.0351
66.4724
66.4721
67.9406
67.9401
69.45
69.4495
71.0107
71.0101
72.6314
72.6308
74.3186
74.3179
76.0764
76.0756
77.9066
77.9058
79.8095
79.8086
81.784
81.7831
83.8289
83.8278
85.9434
85.9423
88.1279
88.1267
90.3838
90.3824
92.7133
92.7118
95.1189
95.1173
97.602
97.6002
100.162
100.16
102.793
102.791
105.487
105.485
108.231
108.229
111.006
111.003
113.791
113.788
116.565
116.562
119.307
119.303
121.997
121.992
124.621
124.615
127.168
127.161
129.633
129.625
132.016
132.008
134.323
134.312
136.561
136.549
138.743
138.729
140.888
140.872
143.016
142.998
145.152
145.133
147.325
147.304
149.562
149.54
151.892
151.869
154.336
154.311
156.905
156.88
159.598
159.572
162.385
162.358
165.214
165.185
168.001
167.97
170.631
170.597
172.959
172.922
174.82
174.781
176.05
176.009
176.509
176.466
176.116
176.072
174.876
174.832
172.891
172.846
170.342
170.298
167.451
167.409
164.431
164.389
161.434
161.394
158.552
158.514
155.79
155.753
153.119
153.083
150.495
150.461
147.882
147.849
145.256
145.223
142.605
142.574
139.929
139.899
137.233
137.204
134.524
134.495
131.809
131.78
129.095
129.068
126.39
126.363
123.698
123.672
121.024
120.999
118.372
118.347
115.742
115.718
113.135
113.111
110.551
110.528
107.989
107.966
105.448
105.426
102.928
102.906
100.427
100.406
97.9457
97.9255
95.4827
95.463
93.0371
93.018
90.6079
90.5892
88.1935
88.1753
85.7922
85.7745
83.4022
83.3849
81.0213
81.0044
78.6472
78.6308
76.2777
76.2617
73.9101
73.8946
71.542
71.5269
69.1705
69.1558
66.7925
66.7782
64.4048
64.3909
62.0036
61.9902
59.585
59.572
57.1443
57.1316
54.6761
54.6639
52.1742
52.1623
49.6311
49.6197
47.0382
47.0272
44.3851
44.3745
41.6588
41.6487
38.8435
38.8337
35.9183
35.909
32.8561
32.8473
29.6197
29.6114
26.1567
26.1491
22.3908
22.3837
18.2079
18.2016
13.4524
13.447
8.06196
8.05787
2.9624
2.96043
0.445282
0.444947
0.0155991
0.0155863
31.5017
31.5016
31.5407
31.5407
31.0542
31.0542
30.4046
30.4046
29.6981
29.6981
28.9833
28.9833
28.2812
28.2812
27.6003
27.6003
26.9435
26.9435
26.3115
26.3116
25.7039
25.7039
25.1198
25.1198
24.5581
24.5581
24.0177
24.0178
23.4976
23.4977
22.9967
22.9967
22.5137
22.5137
22.0475
22.0475
21.5972
21.5972
21.1618
21.1618
20.7407
20.7407
20.3331
20.3332
19.9389
19.9389
19.5577
19.5577
19.1894
19.1894
18.8339
18.8339
18.4912
18.4912
18.1612
18.1612
17.8435
17.8435
17.5377
17.5377
17.2435
17.2435
16.9602
16.9602
16.6873
16.6873
16.4246
16.4246
16.1716
16.1717
15.9284
15.9284
15.6949
15.6949
15.4711
15.4711
15.2571
15.2571
15.053
15.053
14.859
14.859
14.675
14.675
14.5011
14.5011
14.3375
14.3375
14.1842
14.1842
14.0413
14.0413
13.909
13.909
13.7874
13.7875
13.6769
13.6769
13.5776
13.5776
13.4898
13.4898
13.4135
13.4135
13.3489
13.3489
13.2958
13.2958
13.2538
13.2538
13.2225
13.2225
13.2015
13.2015
13.1905
13.1904
13.1891
13.1891
13.1975
13.1975
13.2159
13.2159
13.2447
13.2447
13.2848
13.2848
13.3371
13.3371
13.4024
13.4024
13.4819
13.4818
13.5762
13.5762
13.6862
13.6861
13.8122
13.8122
13.9545
13.9545
14.1134
14.1134
14.2889
14.2888
14.4813
14.4812
14.6908
14.6908
14.9179
14.9178
15.1627
15.1626
15.4247
15.4245
15.7024
15.7023
15.9936
15.9934
16.2946
16.2944
16.6015
16.6013
16.9105
16.9105
17.2192
17.2193
17.5265
17.5267
17.8335
17.8337
18.1443
18.1444
18.4645
18.4646
18.8002
18.8003
19.1563
19.1563
19.5347
19.5347
19.9336
19.9335
20.3467
20.3465
20.7637
20.7636
21.172
21.1721
21.5587
21.5592
21.9118
21.9125
22.2212
22.2221
22.48
22.4809
22.6869
22.6877
22.8445
22.8453
22.9595
22.9602
23.0409
23.0415
23.0994
23.0999
23.1459
23.1463
23.191
23.1913
23.2439
23.2442
23.3125
23.3127
23.4028
23.4029
23.5191
23.5191
23.6642
23.6641
23.8396
23.8395
24.046
24.0458
24.2828
24.2825
24.5489
24.5486
24.8425
24.8421
25.1609
25.1604
25.5009
25.5003
25.8582
25.8575
26.2277
26.2269
26.6037
26.6028
26.9794
26.9783
27.3475
27.3463
27.7003
27.699
28.0301
28.0288
28.3299
28.3285
28.5938
28.5924
28.8177
28.8165
29.0004
28.9995
29.1436
29.1433
29.2524
29.2525
29.3344
29.3348
29.4005
29.401
29.4633
29.4637
29.5359
29.5362
29.6304
29.6307
29.7566
29.7567
29.9208
29.9208
30.1236
30.1234
30.3607
30.3604
30.6237
30.6233
30.9009
30.9005
31.1787
31.1784
31.4434
31.4433
31.6829
31.6832
31.888
31.889
32.0532
32.0547
32.1763
32.1782
32.2589
32.2609
32.3059
32.3079
32.3244
32.3264
32.3227
32.3246
32.3098
32.3116
32.2944
32.296
32.2842
32.2857
32.2861
32.2874
32.3057
32.3069
32.3474
32.3485
32.4146
32.4156
32.5096
32.5106
32.634
32.6349
32.7887
32.7894
32.9738
32.9745
33.1891
33.1897
33.4338
33.4343
33.7066
33.7071
34.0061
34.0065
34.3304
34.3308
34.6776
34.6779
35.0458
35.0461
35.4333
35.4336
35.839
35.8393
36.2622
36.2624
36.7027
36.7029
37.1611
37.1613
37.6387
37.6388
38.1369
38.137
38.6577
38.6578
39.2031
39.2031
39.7747
39.7747
40.374
40.374
41.0021
41.0021
41.6594
41.6594
42.3459
42.3459
43.061
43.061
43.8041
43.804
44.5742
44.5741
45.371
45.371
46.1952
46.1952
47.0485
47.0485
47.9345
47.9345
48.8582
48.8582
49.8259
49.8259
50.8438
50.8438
51.9172
51.9172
53.0492
53.0492
54.2399
54.2399
55.4845
55.4845
56.7755
56.7755
58.1036
58.1036
59.4587
59.4588
60.8327
60.8328
62.2202
62.2204
63.62
63.6202
65.035
65.0354
66.472
66.4724
67.9401
67.9406
69.4494
69.45
71.0101
71.0107
72.6308
72.6314
74.3179
74.3186
76.0756
76.0764
77.9057
77.9066
79.8086
79.8096
81.783
81.7841
83.8278
83.8289
85.9422
85.9435
88.1266
88.128
90.3824
90.3838
92.7118
92.7134
95.1173
95.119
97.6002
97.6021
100.16
100.162
102.791
102.793
105.485
105.488
108.229
108.231
111.003
111.006
113.788
113.791
116.562
116.565
119.303
119.307
121.992
121.997
124.615
124.621
127.161
127.168
129.625
129.633
132.008
132.017
134.312
134.323
136.549
136.561
138.729
138.743
140.872
140.888
142.998
143.016
145.133
145.152
147.304
147.325
149.54
149.562
151.869
151.892
154.311
154.336
156.88
156.906
159.572
159.599
162.358
162.386
165.185
165.215
167.97
168.002
170.597
170.632
172.922
172.959
174.781
174.821
176.009
176.051
176.466
176.509
176.072
176.116
174.832
174.877
172.846
172.891
170.298
170.342
167.409
167.452
164.389
164.431
161.394
161.434
158.514
158.552
155.753
155.79
153.083
153.119
150.461
150.496
147.849
147.883
145.223
145.256
142.574
142.605
139.899
139.93
137.204
137.234
134.495
134.524
131.781
131.809
129.068
129.095
126.363
126.39
123.672
123.698
120.999
121.025
118.347
118.372
115.718
115.742
113.112
113.135
110.528
110.551
107.966
107.989
105.426
105.448
102.906
102.928
100.406
100.427
97.9256
97.9459
95.4631
95.4829
93.018
93.0374
90.5893
90.6081
88.1753
88.1937
85.7745
85.7924
83.385
83.4024
81.0045
81.0215
78.6309
78.6474
76.2618
76.2779
73.8947
73.9103
71.5269
71.5422
69.1558
69.1706
66.7782
66.7926
64.3909
64.4049
61.9902
62.0038
59.572
59.5852
57.1317
57.1445
54.6639
54.6763
52.1623
52.1743
49.6197
49.6312
47.0272
47.0383
44.3745
44.3852
41.6487
41.6589
38.8338
38.8435
35.909
35.9184
32.8473
32.8561
29.6115
29.6197
26.1491
26.1568
22.3837
22.3908
18.2016
18.208
13.447
13.4524
8.05787
8.06199
2.96043
2.96242
0.444947
0.445285
0.0155863
0.0155992
)
;

boundaryField
{
    walls
    {
        type            kqRWallFunction;
        value           nonuniform List<scalar> 8(0.0156062 0.0155939 0.015594 0.0156062 0.0155991 0.0155863 0.0155863 0.0155992);
    }
    inlet
    {
        type            cyclic;
    }
    outlet
    {
        type            cyclic;
    }
    sides
    {
        type            empty;
    }
}


// ************************************************************************* //
