/*--------------------------------*- C++ -*----------------------------------*\
| =========                 |                                                 |
| \\      /  F ield         | OpenFOAM: The Open Source CFD Toolbox           |
|  \\    /   O peration     | Version:  2012                                  |
|   \\  /    A nd           | Website:  www.openfoam.com                      |
|    \\/     M anipulation  |                                                 |
\*---------------------------------------------------------------------------*/
FoamFile
{
    version     2.0;
    format      ascii;
    class       volScalarField;
    location    "12300";
    object      omega;
}
// * * * * * * * * * * * * * * * * * * * * * * * * * * * * * * * * * * * * * //

dimensions      [0 0 -1 0 0 0 0];


internalField   nonuniform List<scalar> 
2560
(
1.52417e+06
1.52417e+06
263934
263937
87368.2
87371.2
41533.6
41534.4
25670.6
25670.2
18586.3
18585.7
14708.1
14707.4
12275.9
12275.2
10606.7
10606
9387.29
9386.68
8455.44
8454.87
7718.72
7718.19
7120.75
7120.25
6625.12
6624.65
6207.27
6206.83
5850.01
5849.6
5540.94
5540.56
5270.89
5270.52
5032.9
5032.55
4821.62
4821.28
4632.85
4632.53
4463.24
4462.94
4310.1
4309.81
4171.22
4170.94
4044.8
4044.52
3929.32
3929.05
3823.52
3823.26
3726.35
3726.1
3636.88
3636.64
3554.35
3554.12
3478.1
3477.86
3407.53
3407.3
3342.15
3341.93
3281.51
3281.29
3225.23
3225.01
3172.94
3172.72
3124.33
3124.12
3079.13
3078.92
3037.07
3036.87
2997.95
2997.74
2961.54
2961.34
2927.69
2927.48
2896.22
2896.01
2866.98
2866.78
2839.83
2839.63
2814.62
2814.42
2791.21
2791
2769.43
2769.22
2749.14
2748.93
2730.17
2729.96
2712.38
2712.17
2695.62
2695.41
2679.76
2679.54
2664.71
2664.49
2650.42
2650.2
2636.96
2636.73
2624.5
2624.27
2613.36
2613.12
2603.86
2603.61
2596.22
2595.97
2590.38
2590.11
2585.53
2585.26
2580.42
2580.14
2573.36
2573.08
2562.63
2562.35
2546.86
2546.59
2525.32
2525.05
2497.97
2497.71
2465.4
2465.15
2428.62
2428.39
2388.82
2388.61
2347.19
2346.99
2304.76
2304.58
2262.36
2262.19
2220.59
2220.43
2179.84
2179.68
2140.31
2140.16
2102.03
2101.89
2064.92
2064.78
2028.81
2028.68
1993.51
1993.39
1958.82
1958.72
1924.54
1924.45
1890.48
1890.4
1856.5
1856.43
1822.45
1822.39
1788.24
1788.19
1753.81
1753.76
1719.1
1719.07
1684.12
1684.09
1648.88
1648.86
1613.45
1613.43
1577.92
1577.91
1542.42
1542.4
1507.08
1507.06
1472.05
1472.04
1437.47
1437.46
1403.47
1403.46
1370.14
1370.14
1337.55
1337.54
1305.72
1305.71
1274.65
1274.65
1244.35
1244.35
1214.79
1214.79
1185.95
1185.95
1157.82
1157.82
1130.4
1130.4
1103.69
1103.69
1077.7
1077.7
1052.44
1052.44
1027.9
1027.9
1004.07
1004.07
980.921
980.922
958.401
958.402
936.447
936.449
914.985
914.987
893.939
893.942
873.239
873.242
852.834
852.837
832.696
832.7
812.831
812.835
793.272
793.276
774.073
774.077
755.3
755.305
737.019
737.023
719.28
719.284
702.114
702.118
685.52
685.523
669.474
669.478
653.939
653.942
638.867
638.87
624.213
624.217
609.941
609.944
596.022
596.025
582.441
582.445
569.193
569.196
556.276
556.279
543.692
543.696
531.445
531.448
519.535
519.538
507.959
507.962
496.711
496.714
485.783
485.786
475.162
475.165
464.834
464.837
454.785
454.788
445
445.002
435.465
435.467
426.172
426.174
417.114
417.116
408.288
408.29
399.697
399.698
391.345
391.346
383.239
383.24
375.387
375.388
367.8
367.8
360.483
360.483
353.443
353.443
346.686
346.686
340.212
340.211
334.021
334.02
328.11
328.108
322.47
322.467
317.091
317.088
311.958
311.954
307.052
307.047
302.347
302.342
297.814
297.809
293.417
293.411
289.116
289.109
284.868
284.861
280.629
280.622
276.361
276.353
272.027
272.02
267.606
267.6
263.088
263.085
258.481
258.48
253.808
253.809
249.106
249.108
244.423
244.425
239.814
239.816
235.334
235.336
231.029
231.03
226.931
226.932
223.056
223.056
219.401
219.401
215.939
215.938
212.633
212.631
209.434
209.433
206.293
206.292
203.161
203.16
199.998
199.999
196.775
196.778
193.476
193.48
190.091
190.095
186.624
186.628
183.086
183.091
179.498
179.502
175.88
175.884
172.258
172.262
168.656
168.659
165.096
165.099
161.6
161.603
158.186
158.189
154.87
154.872
151.665
151.667
148.58
148.582
145.624
145.625
142.801
142.802
140.115
140.116
137.566
137.567
135.153
135.153
132.869
132.869
130.705
130.705
128.649
128.649
126.681
126.681
124.779
124.779
122.917
122.916
121.062
121.061
119.186
119.185
117.257
117.256
115.251
115.249
113.149
113.148
110.944
110.942
108.637
108.636
106.245
106.244
103.793
103.793
101.31
101.311
98.8287
98.8291
96.3793
96.3797
93.987
93.9873
91.6675
91.6677
89.4248
89.4249
87.2539
87.2539
85.1426
85.1424
83.0753
83.0751
81.0378
81.0376
79.0195
79.0194
77.0172
77.0174
75.0329
75.0333
73.072
73.0725
71.1425
71.143
69.2532
69.2536
67.4119
67.4122
65.6237
65.624
63.8914
63.8917
62.2161
62.2163
60.597
60.5971
59.0332
59.0333
57.5236
57.5237
56.0675
56.0677
54.6643
54.6644
53.3134
53.3135
52.0138
52.0139
50.7642
50.7643
49.5629
49.5629
48.4078
48.4078
47.2965
47.2966
46.2269
46.2269
45.1967
45.1967
44.2041
44.2041
43.2477
43.2477
42.3265
42.3265
41.4399
41.44
40.5878
40.5878
39.7701
39.7701
38.9869
38.9869
38.2382
38.2383
37.5239
37.5239
36.8435
36.8435
36.1963
36.1963
35.5815
35.5815
34.998
34.998
34.4449
34.4449
33.921
33.921
33.4255
33.4255
32.9575
32.9575
32.5161
32.5161
32.1005
32.1005
31.71
31.71
31.3438
31.3438
31.0012
31.0012
30.6814
30.6814
30.3837
30.3837
30.1074
30.1074
29.8519
29.8519
29.6167
29.6167
29.4012
29.4012
29.2052
29.2052
29.0287
29.0287
28.8713
28.8713
28.7333
28.7333
28.6144
28.6144
28.5145
28.5145
28.4336
28.4336
28.3712
28.3712
28.3271
28.3271
28.3009
28.3009
28.2923
28.2923
28.3014
28.3014
28.3279
28.3279
28.372
28.372
28.4341
28.4341
28.5145
28.5145
28.6136
28.6136
28.7319
28.7319
28.8701
28.8701
29.0287
29.0287
29.2081
29.2081
29.4091
29.4091
29.6321
29.6321
29.8776
29.8776
30.1458
30.1458
30.4364
30.4364
30.7478
30.7478
31.0753
31.0753
31.4077
31.4077
31.7192
31.7192
31.9544
31.9544
31.9229
31.9229
1.52417e+06
1.52417e+06
263937
263934
87371.2
87368.2
41534.4
41533.6
25670.2
25670.6
18585.7
18586.3
14707.4
14708.1
12275.2
12275.9
10606
10606.7
9386.68
9387.29
8454.87
8455.44
7718.19
7718.72
7120.25
7120.75
6624.65
6625.12
6206.83
6207.27
5849.6
5850.01
5540.55
5540.94
5270.52
5270.89
5032.55
5032.9
4821.28
4821.62
4632.53
4632.85
4462.94
4463.24
4309.8
4310.1
4170.94
4171.22
4044.52
4044.8
3929.05
3929.32
3823.26
3823.52
3726.1
3726.35
3636.64
3636.88
3554.12
3554.35
3477.86
3478.1
3407.3
3407.53
3341.93
3342.15
3281.29
3281.52
3225.01
3225.23
3172.72
3172.94
3124.12
3124.33
3078.92
3079.13
3036.87
3037.07
2997.74
2997.95
2961.34
2961.54
2927.48
2927.69
2896.01
2896.22
2866.78
2866.98
2839.63
2839.83
2814.42
2814.62
2791
2791.21
2769.22
2769.43
2748.93
2749.14
2729.96
2730.17
2712.17
2712.38
2695.41
2695.62
2679.54
2679.76
2664.49
2664.71
2650.2
2650.42
2636.73
2636.96
2624.27
2624.5
2613.12
2613.36
2603.61
2603.86
2595.97
2596.22
2590.11
2590.38
2585.26
2585.53
2580.14
2580.42
2573.08
2573.36
2562.35
2562.63
2546.59
2546.86
2525.05
2525.32
2497.71
2497.97
2465.15
2465.4
2428.39
2428.62
2388.61
2388.82
2346.99
2347.19
2304.58
2304.76
2262.19
2262.36
2220.43
2220.59
2179.68
2179.84
2140.16
2140.31
2101.89
2102.03
2064.78
2064.92
2028.68
2028.81
1993.39
1993.51
1958.72
1958.82
1924.45
1924.54
1890.4
1890.48
1856.42
1856.5
1822.39
1822.45
1788.19
1788.24
1753.76
1753.81
1719.07
1719.1
1684.09
1684.12
1648.86
1648.88
1613.43
1613.45
1577.91
1577.92
1542.4
1542.42
1507.06
1507.08
1472.04
1472.05
1437.46
1437.47
1403.46
1403.47
1370.14
1370.14
1337.54
1337.55
1305.71
1305.72
1274.65
1274.65
1244.35
1244.35
1214.79
1214.79
1185.95
1185.95
1157.82
1157.82
1130.4
1130.4
1103.69
1103.69
1077.7
1077.7
1052.44
1052.44
1027.9
1027.9
1004.07
1004.07
980.922
980.921
958.402
958.401
936.448
936.447
914.987
914.985
893.942
893.939
873.242
873.239
852.837
852.833
832.7
832.696
812.835
812.831
793.276
793.272
774.077
774.073
755.304
755.3
737.023
737.019
719.284
719.279
702.117
702.113
685.523
685.519
669.478
669.474
653.942
653.938
638.87
638.866
624.216
624.213
609.944
609.94
596.025
596.021
582.444
582.441
569.196
569.192
556.279
556.275
543.695
543.692
531.448
531.445
519.537
519.534
507.961
507.958
496.713
496.71
485.785
485.782
475.164
475.161
464.836
464.834
454.787
454.785
445.001
444.999
435.467
435.465
426.173
426.171
417.115
417.113
408.289
408.288
399.698
399.696
391.345
391.344
383.239
383.238
375.388
375.387
367.799
367.799
360.482
360.482
353.443
353.443
346.685
346.685
340.211
340.212
334.019
334.021
328.107
328.109
322.466
322.469
317.087
317.09
311.954
311.957
307.047
307.051
302.342
302.346
297.808
297.813
293.41
293.416
289.108
289.115
284.86
284.867
280.621
280.629
276.352
276.36
272.02
272.027
267.6
267.605
263.084
263.088
258.48
258.481
253.809
253.808
249.107
249.106
244.425
244.423
239.816
239.814
235.336
235.334
231.03
231.029
226.931
226.931
223.055
223.055
219.4
219.4
215.937
215.938
212.63
212.631
209.432
209.433
206.29
206.291
203.159
203.159
199.998
199.997
196.777
196.774
193.479
193.474
190.095
190.09
186.628
186.623
183.091
183.086
179.502
179.497
175.884
175.88
172.261
172.258
168.659
168.655
165.099
165.096
161.602
161.6
158.188
158.186
154.872
154.87
151.666
151.665
148.581
148.58
145.625
145.623
142.802
142.801
140.115
140.114
137.566
137.565
135.152
135.152
132.868
132.867
130.704
130.704
128.647
128.647
126.679
126.68
124.778
124.778
122.914
122.915
121.06
121.061
119.183
119.184
117.254
117.256
115.248
115.25
113.147
113.149
110.942
110.944
108.635
108.637
106.244
106.245
103.793
103.793
101.311
101.311
98.8294
98.829
96.38
96.3795
93.9875
93.9872
91.6677
91.6675
89.4248
89.4248
87.2537
87.2538
85.1421
85.1423
83.0747
83.0751
81.0372
81.0375
79.0192
79.0193
77.0173
77.0171
75.0333
75.0328
73.0726
73.072
71.1431
71.1425
69.2538
69.2533
67.4124
67.4119
65.6241
65.6237
63.8918
63.8915
62.2164
62.2161
60.5972
60.597
59.0334
59.0331
57.5238
57.5236
56.0677
56.0675
54.6644
54.6643
53.3135
53.3133
52.0138
52.0137
50.7642
50.7641
49.5629
49.5628
48.4077
48.4076
47.2965
47.2964
46.2268
46.2268
45.1966
45.1966
44.2041
44.204
43.2477
43.2476
42.3265
42.3265
41.44
41.4399
40.5879
40.5878
39.7702
39.7701
38.987
38.9869
38.2383
38.2383
37.524
37.5239
36.8435
36.8435
36.1963
36.1963
35.5815
35.5815
34.998
34.998
34.4449
34.4448
33.921
33.921
33.4255
33.4255
32.9575
32.9575
32.5161
32.516
32.1005
32.1005
31.71
31.71
31.3438
31.3438
31.0012
31.0012
30.6814
30.6814
30.3837
30.3837
30.1074
30.1074
29.8519
29.8519
29.6167
29.6167
29.4012
29.4012
29.2053
29.2053
29.0287
29.0287
28.8713
28.8713
28.7333
28.7333
28.6144
28.6144
28.5145
28.5145
28.4336
28.4336
28.3712
28.3712
28.327
28.327
28.3008
28.3008
28.2923
28.2923
28.3013
28.3013
28.3279
28.3279
28.372
28.372
28.4341
28.4341
28.5145
28.5145
28.6135
28.6135
28.7319
28.7319
28.8701
28.8701
29.0286
29.0286
29.2081
29.2081
29.409
29.409
29.632
29.632
29.8775
29.8775
30.1456
30.1456
30.4361
30.4361
30.7474
30.7474
31.0748
31.0748
31.4071
31.4071
31.7186
31.7186
31.9537
31.9537
31.9223
31.9223
31.9229
31.9229
31.9544
31.9544
31.7194
31.7194
31.4078
31.4078
31.0754
31.0754
30.748
30.748
30.4366
30.4366
30.146
30.146
29.8778
29.8778
29.6323
29.6323
29.4093
29.4093
29.2083
29.2083
29.0288
29.0288
28.8702
28.8702
28.732
28.732
28.6137
28.6137
28.5146
28.5146
28.4343
28.4343
28.3722
28.3722
28.328
28.328
28.3015
28.3015
28.2924
28.2924
28.301
28.301
28.3271
28.3271
28.3713
28.3713
28.4336
28.4336
28.5146
28.5146
28.6144
28.6144
28.7332
28.7332
28.8713
28.8713
29.0286
29.0286
29.2052
29.2052
29.4011
29.4011
29.6165
29.6165
29.8517
29.8517
30.1071
30.1071
30.3833
30.3833
30.6809
30.6809
31.0006
31.0006
31.3432
31.3432
31.7093
31.7093
32.0998
32.0998
32.5153
32.5153
32.9566
32.9566
33.4246
33.4246
33.92
33.92
34.4437
34.4438
34.9968
34.9968
35.5802
35.5802
36.1949
36.1949
36.842
36.842
37.5223
37.5224
38.2366
38.2366
38.9852
38.9852
39.7682
39.7683
40.5858
40.5859
41.4378
41.4379
42.3243
42.3243
43.2453
43.2454
44.2016
44.2016
45.194
45.194
46.224
46.2241
47.2935
47.2936
48.4047
48.4047
49.5597
49.5598
50.761
50.761
52.0105
52.0105
53.31
53.3101
54.6608
54.6609
56.0639
56.064
57.5199
57.52
59.0293
59.0295
60.593
60.5932
62.212
62.2122
63.8872
63.8875
65.6194
65.6197
67.4075
67.4078
69.2487
69.2491
71.1379
71.1384
73.0675
73.068
75.0286
75.029
77.0132
77.0134
79.0157
79.0157
81.0343
81.034
83.0721
83.0718
85.1395
85.1394
87.2511
87.251
89.4221
89.4222
91.6648
91.665
93.9845
93.9848
96.3769
96.3774
98.8265
98.827
101.308
101.309
103.792
103.791
106.244
106.243
108.636
108.635
110.943
110.941
113.149
113.147
115.25
115.248
117.256
117.254
119.184
119.183
121.061
121.06
122.915
122.914
124.778
124.777
126.679
126.679
128.647
128.646
130.703
130.703
132.866
132.866
135.15
135.15
137.563
137.564
140.112
140.112
142.797
142.798
145.62
145.621
148.576
148.577
151.66
151.662
154.865
154.867
158.181
158.183
161.594
161.597
165.09
165.093
168.649
168.652
172.251
172.255
175.873
175.877
179.49
179.495
183.078
183.083
186.615
186.62
190.082
190.087
193.466
193.471
196.766
196.769
199.988
199.989
203.15
203.15
206.282
206.281
209.422
209.421
212.621
212.62
215.927
215.926
219.389
219.389
223.044
223.044
226.919
226.92
231.017
231.018
235.322
235.323
239.801
239.804
244.41
244.412
249.093
249.094
253.795
253.796
258.468
258.467
263.075
263.071
267.593
267.587
272.014
272.006
276.347
276.339
280.615
280.607
284.853
284.845
289.1
289.093
293.401
293.395
297.798
297.792
302.33
302.325
307.034
307.03
311.94
311.936
317.072
317.069
322.45
322.448
328.089
328.088
334.001
333.999
340.191
340.19
346.663
346.663
353.42
353.42
360.458
360.458
367.774
367.774
375.361
375.362
383.211
383.212
391.315
391.317
399.666
399.668
408.256
408.258
417.08
417.082
426.136
426.138
435.428
435.43
444.96
444.963
454.744
454.746
464.791
464.794
475.117
475.12
485.736
485.739
496.663
496.666
507.909
507.912
519.483
519.487
531.392
531.396
543.638
543.642
556.22
556.223
569.135
569.138
582.381
582.384
595.958
595.962
609.874
609.878
624.144
624.148
638.794
638.798
653.863
653.867
669.397
669.401
685.44
685.444
702.031
702.036
719.195
719.199
736.932
736.936
755.21
755.215
773.981
773.985
793.178
793.182
812.735
812.739
832.597
832.601
852.733
852.737
873.136
873.14
893.834
893.837
914.879
914.882
936.339
936.341
958.29
958.292
980.809
980.81
1003.96
1003.96
1027.78
1027.79
1052.32
1052.32
1077.58
1077.58
1103.57
1103.57
1130.27
1130.27
1157.69
1157.69
1185.82
1185.81
1214.65
1214.65
1244.21
1244.21
1274.51
1274.51
1305.57
1305.57
1337.4
1337.39
1369.99
1369.99
1403.32
1403.31
1437.31
1437.3
1471.88
1471.88
1506.91
1506.9
1542.25
1542.24
1577.75
1577.74
1613.28
1613.26
1648.71
1648.69
1683.95
1683.92
1718.93
1718.9
1753.63
1753.59
1788.06
1788.01
1822.27
1822.2
1856.31
1856.23
1890.29
1890.2
1924.34
1924.24
1958.62
1958.5
1993.3
1993.17
2028.58
2028.45
2064.69
2064.54
2101.8
2101.65
2140.07
2139.91
2179.59
2179.43
2220.34
2220.17
2262.1
2261.92
2304.49
2304.3
2346.92
2346.72
2388.55
2388.33
2428.34
2428.11
2465.13
2464.87
2497.71
2497.44
2525.07
2524.79
2546.62
2546.33
2562.39
2562.09
2573.12
2572.82
2580.18
2579.89
2585.29
2585.01
2590.14
2589.86
2595.99
2595.72
2603.62
2603.36
2613.12
2612.87
2624.27
2624.02
2636.72
2636.48
2650.19
2649.95
2664.48
2664.25
2679.54
2679.31
2695.4
2695.18
2712.17
2711.95
2729.96
2729.74
2748.93
2748.71
2769.23
2769.01
2791.01
2790.79
2814.43
2814.21
2839.64
2839.42
2866.79
2866.57
2896.02
2895.81
2927.49
2927.28
2961.35
2961.13
2997.75
2997.53
3036.88
3036.66
3078.93
3078.71
3124.13
3123.9
3172.73
3172.5
3225.01
3224.78
3281.29
3281.06
3341.92
3341.68
3407.29
3407.05
3477.85
3477.6
3554.1
3553.85
3636.62
3636.36
3726.07
3725.81
3823.24
3822.97
3929.02
3928.74
4044.49
4044.2
4170.9
4170.6
4309.76
4309.45
4462.89
4462.57
4632.48
4632.14
4821.23
4820.88
5032.48
5032.11
5270.45
5270.06
5540.48
5540.07
5849.52
5849.09
6206.75
6206.29
6624.56
6624.07
7120.14
7119.62
7718.07
7717.51
8454.73
8454.13
9386.53
9385.88
10605.8
10605.1
12275
12274.2
14707.1
14706.3
18585.2
18584.5
25669.5
25669.1
41532.9
41533.7
87368.8
87371.8
263935
263938
1.52418e+06
1.52418e+06
31.9223
31.9223
31.9537
31.9537
31.7187
31.7187
31.4072
31.4072
31.0749
31.0749
30.7476
30.7476
30.4363
30.4363
30.1458
30.1458
29.8777
29.8777
29.6322
29.6322
29.4092
29.4092
29.2082
29.2082
29.0287
29.0288
28.8702
28.8702
28.732
28.732
28.6137
28.6137
28.5146
28.5146
28.4342
28.4342
28.3722
28.3722
28.328
28.328
28.3014
28.3014
28.2924
28.2924
28.3009
28.3009
28.3271
28.3271
28.3712
28.3712
28.4336
28.4336
28.5146
28.5146
28.6144
28.6144
28.7332
28.7332
28.8713
28.8713
29.0286
29.0286
29.2052
29.2052
29.4011
29.4011
29.6165
29.6165
29.8517
29.8517
30.1071
30.1071
30.3833
30.3833
30.6809
30.6809
31.0006
31.0006
31.3432
31.3432
31.7093
31.7093
32.0998
32.0998
32.5153
32.5153
32.9566
32.9566
33.4246
33.4246
33.92
33.92
34.4438
34.4437
34.9968
34.9968
35.5802
35.5802
36.195
36.1949
36.8421
36.842
37.5224
37.5224
38.2367
38.2366
38.9852
38.9852
39.7683
39.7683
40.5859
40.5858
41.4379
41.4378
42.3243
42.3242
43.2454
43.2453
44.2016
44.2015
45.194
45.1939
46.224
46.2239
47.2935
47.2934
48.4046
48.4045
49.5597
49.5596
50.761
50.7609
52.0105
52.0104
53.31
53.3099
54.6609
54.6608
56.0641
56.0639
57.52
57.5198
59.0295
59.0293
60.5933
60.593
62.2123
62.212
63.8876
63.8873
65.6198
65.6194
67.408
67.4075
69.2493
69.2487
71.1385
71.1379
73.0681
73.0675
75.029
75.0285
77.0133
77.013
79.0154
79.0155
81.0337
81.034
83.0714
83.0718
85.139
85.1393
87.2508
87.2509
89.422
89.422
91.6651
91.6649
93.985
93.9846
96.3776
96.3772
98.8273
98.8268
101.309
101.309
103.792
103.792
106.243
106.244
108.634
108.636
110.941
110.943
113.146
113.148
115.247
115.249
117.253
117.255
119.182
119.183
121.059
121.06
122.913
122.914
124.776
124.777
126.678
126.678
128.645
128.645
130.702
130.702
132.865
132.865
135.149
135.149
137.563
137.562
140.112
140.111
142.798
142.797
145.621
145.619
148.577
148.575
151.662
151.66
154.867
154.865
158.183
158.18
161.597
161.594
165.092
165.089
168.652
168.649
172.255
172.251
175.877
175.872
179.494
179.49
183.083
183.078
186.62
186.614
190.086
190.081
193.47
193.466
196.768
196.765
199.988
199.987
203.149
203.149
206.279
206.281
209.42
209.421
212.619
212.62
215.926
215.926
219.388
219.388
223.043
223.043
226.919
226.918
231.017
231.016
235.323
235.321
239.803
239.801
244.412
244.41
249.094
249.092
253.795
253.795
258.466
258.467
263.071
263.075
267.586
267.592
272.006
272.013
276.338
276.346
280.607
280.615
284.845
284.852
289.093
289.1
293.394
293.401
297.791
297.797
302.325
302.33
307.029
307.034
311.935
311.939
317.068
317.071
322.447
322.45
328.087
328.089
333.999
334
340.189
340.19
346.662
346.663
353.419
353.419
360.458
360.458
367.774
367.773
375.361
375.36
383.211
383.21
391.316
391.315
399.667
399.666
408.257
408.255
417.081
417.079
426.138
426.136
435.429
435.427
444.962
444.96
454.746
454.743
464.793
464.791
475.119
475.117
485.739
485.736
496.666
496.663
507.912
507.909
519.486
519.483
531.395
531.392
543.641
543.638
556.223
556.219
569.138
569.135
582.384
582.381
595.962
595.958
609.878
609.874
624.148
624.144
638.798
638.794
653.867
653.863
669.401
669.397
685.444
685.44
702.036
702.031
719.199
719.195
736.936
736.932
755.215
755.211
773.985
773.981
793.182
793.178
812.739
812.735
832.601
832.598
852.737
852.733
873.14
873.137
893.837
893.835
914.882
914.879
936.341
936.339
958.292
958.291
980.81
980.809
1003.96
1003.96
1027.79
1027.78
1052.32
1052.32
1077.58
1077.58
1103.57
1103.57
1130.27
1130.27
1157.69
1157.69
1185.81
1185.82
1214.65
1214.65
1244.21
1244.21
1274.51
1274.51
1305.57
1305.57
1337.39
1337.4
1369.99
1369.99
1403.31
1403.32
1437.3
1437.31
1471.88
1471.89
1506.9
1506.91
1542.24
1542.25
1577.74
1577.75
1613.26
1613.28
1648.69
1648.71
1683.92
1683.95
1718.9
1718.93
1753.59
1753.64
1788.01
1788.07
1822.2
1822.27
1856.23
1856.31
1890.2
1890.29
1924.24
1924.34
1958.5
1958.62
1993.17
1993.3
2028.45
2028.59
2064.54
2064.69
2101.65
2101.8
2139.92
2140.07
2179.43
2179.59
2220.17
2220.34
2261.92
2262.1
2304.3
2304.49
2346.72
2346.92
2388.33
2388.55
2428.11
2428.35
2464.87
2465.13
2497.44
2497.71
2524.79
2525.07
2546.33
2546.62
2562.1
2562.39
2572.83
2573.12
2579.89
2580.18
2585.01
2585.3
2589.86
2590.14
2595.72
2595.99
2603.36
2603.63
2612.87
2613.12
2624.02
2624.27
2636.48
2636.73
2649.95
2650.19
2664.25
2664.48
2679.31
2679.54
2695.18
2695.41
2711.95
2712.17
2729.75
2729.97
2748.72
2748.94
2769.02
2769.23
2790.8
2791.01
2814.21
2814.43
2839.42
2839.64
2866.57
2866.79
2895.81
2896.03
2927.28
2927.5
2961.13
2961.35
2997.53
2997.75
3036.66
3036.88
3078.71
3078.93
3123.91
3124.13
3172.5
3172.73
3224.78
3225.01
3281.06
3281.3
3341.69
3341.92
3407.05
3407.29
3477.61
3477.85
3553.85
3554.1
3636.36
3636.62
3725.81
3726.08
3822.97
3823.24
3928.75
3929.03
4044.2
4044.49
4170.6
4170.91
4309.46
4309.77
4462.57
4462.9
4632.14
4632.48
4820.88
4821.23
5032.12
5032.49
5270.06
5270.45
5540.07
5540.49
5849.09
5849.53
6206.29
6206.75
6624.07
6624.56
7119.62
7120.15
7717.51
7718.08
8454.14
8454.74
9385.88
9386.54
10605.1
10605.8
12274.2
12275
14706.3
14707.1
18584.5
18585.2
25669.2
25669.5
41533.7
41533
87371.8
87368.7
263938
263935
1.52418e+06
1.52418e+06
)
;

boundaryField
{
    walls
    {
        blending        binomial2;
        n               2;
        beta1           0.075;
        type            omegaWallFunction;
        value           nonuniform List<scalar> 8(1.52417e+06 1.52417e+06 1.52417e+06 1.52417e+06 1.52418e+06 1.52418e+06 1.52418e+06 1.52418e+06);
    }
    inlet
    {
        type            cyclic;
    }
    outlet
    {
        type            cyclic;
    }
    sides
    {
        type            empty;
    }
}


// ************************************************************************* //
