/*--------------------------------*- C++ -*----------------------------------*\
| =========                 |                                                 |
| \\      /  F ield         | OpenFOAM: The Open Source CFD Toolbox           |
|  \\    /   O peration     | Version:  2012                                  |
|   \\  /    A nd           | Website:  www.openfoam.com                      |
|    \\/     M anipulation  |                                                 |
\*---------------------------------------------------------------------------*/
FoamFile
{
    version     2.0;
    format      ascii;
    class       volVectorField;
    location    "12300";
    object      U;
}
// * * * * * * * * * * * * * * * * * * * * * * * * * * * * * * * * * * * * * //

dimensions      [0 1 -1 0 0 0 0];


internalField   nonuniform List<vector> 
2560
(
(0.031272 -2.65248e-05 0.000548445)
(0.0312353 -1.16024e-05 5.47731e-08)
(0.0940156 -1.29748e-05 0.000775489)
(0.0939058 1.91828e-05 1.85777e-08)
(0.15747 -2.70639e-05 0.00052721)
(0.157289 2.97703e-05 5.9503e-09)
(0.22164 -3.62281e-05 0.000267628)
(0.221392 3.57678e-05 1.71844e-09)
(0.286536 -3.91494e-05 0.000141269)
(0.286226 3.90347e-05 4.20886e-10)
(0.352166 -4.09504e-05 8.64323e-05)
(0.3518 4.08986e-05 1.0914e-10)
(0.418503 -4.2225e-05 5.97462e-05)
(0.418088 4.22362e-05 1.33297e-10)
(0.485492 -4.31786e-05 4.48851e-05)
(0.485034 4.31197e-05 1.64461e-11)
(0.553074 -4.39448e-05 3.56891e-05)
(0.552578 4.39797e-05 9.45437e-11)
(0.621256 -4.45927e-05 2.95414e-05)
(0.62073 4.44791e-05 5.11327e-12)
(0.69012 -4.51403e-05 2.51893e-05)
(0.689568 4.51703e-05 8.68605e-11)
(0.759697 -4.56346e-05 2.19715e-05)
(0.759126 4.54599e-05 -3.48504e-21)
(0.830027 -4.61404e-05 1.95103e-05)
(0.829441 4.60851e-05 7.13038e-11)
(0.901181 -4.64984e-05 1.7566e-05)
(0.900586 5.95939e-05 4.92921e-08)
(0.973159 -4.68709e-05 1.60254e-05)
(0.972558 2.02788e-05 2.54146e-21)
(1.04588 -4.68254e-05 1.47329e-05)
(1.04528 0.00010309 1.21886e-07)
(1.11921 -4.79096e-05 1.37102e-05)
(1.11861 -4.0122e-05 5.36486e-10)
(1.19303 -4.71076e-05 1.28252e-05)
(1.19244 0.000139086 3.96866e-08)
(1.26735 -4.87481e-05 1.20828e-05)
(1.26676 -5.23232e-05 8.00097e-10)
(1.3424 -4.72362e-05 1.14375e-05)
(1.34182 0.000152447 3.84945e-08)
(1.41851 -4.97166e-05 1.08891e-05)
(1.41794 -6.44578e-05 5.83435e-10)
(1.49588 -4.72489e-05 1.04033e-05)
(1.49532 0.000165593 3.67969e-08)
(1.57456 -5.07062e-05 9.98712e-06)
(1.57402 -7.64764e-05 3.35749e-36)
(1.65455 -4.70397e-05 9.5869e-06)
(1.65402 0.000205237 1.45852e-07)
(1.73583 -5.18942e-05 9.29317e-06)
(1.73531 -0.000141871 1.46455e-21)
(1.81842 -4.67234e-05 8.96926e-06)
(1.81793 0.00027839 1.8736e-07)
(1.90235 -5.33299e-05 8.75745e-06)
(1.90187 -0.000222666 1.76988e-09)
(1.9876 -4.61621e-05 8.52754e-06)
(1.98713 0.000330946 7.44071e-08)
(2.07413 -5.49422e-05 8.34202e-06)
(2.07368 -0.000246581 3.63565e-09)
(2.1619 -4.52716e-05 8.15991e-06)
(2.16146 0.00035619 7.65818e-08)
(2.25095 -5.68284e-05 8.01674e-06)
(2.25052 -0.000271344 3.36786e-09)
(2.34149 -4.40241e-05 7.87102e-06)
(2.34107 0.000381808 7.26473e-08)
(2.43396 -5.90779e-05 7.75964e-06)
(2.43356 -0.000295944 1.53081e-09)
(2.52898 -4.23196e-05 7.6423e-06)
(2.52859 0.000407106 6.73242e-08)
(2.62724 -6.17947e-05 7.55639e-06)
(2.62685 -0.000320034 -1.45126e-37)
(2.72933 -4.00998e-05 7.42597e-06)
(2.72895 0.000463965 2.22397e-07)
(2.83568 -6.51434e-05 7.40259e-06)
(2.8353 -0.000408547 -1.14245e-21)
(2.94646 -3.72893e-05 7.17549e-06)
(2.9461 0.000653178 7.33395e-07)
(3.06166 -6.91948e-05 7.30208e-06)
(3.06129 -0.000700063 0)
(3.18109 -3.38106e-05 7.05189e-06)
(3.18073 0.000983255 9.59461e-07)
(3.30459 -7.39302e-05 7.25552e-06)
(3.30424 -0.0010721 -5.2846e-37)
(3.43221 -2.96679e-05 7.07343e-06)
(3.43185 0.00132032 8.04783e-07)
(3.56438 -7.92886e-05 7.25652e-06)
(3.56403 -0.00137652 0)
(3.70216 -2.48825e-05 7.18938e-06)
(3.70181 0.00155287 4.30675e-07)
(3.84714 -8.52394e-05 7.29447e-06)
(3.84678 -0.00153693 -1.08636e-21)
(4.00124 -1.94705e-05 7.28458e-06)
(4.00088 0.0016837 2.65533e-07)
(4.16638 -9.18525e-05 7.36237e-06)
(4.16602 -0.00163652 1.53926e-36)
(4.3441 -1.33617e-05 7.34519e-06)
(4.34373 0.00180003 3.58394e-07)
(4.53537 -9.92271e-05 7.46039e-06)
(4.535 -0.00176834 -1.98281e-37)
(4.7406 -6.47488e-06 7.00587e-06)
(4.74023 0.00224745 2.23753e-06)
(4.95969 -0.000106964 7.60725e-06)
(4.95932 -0.00253819 0)
(5.19195 1.06168e-06 7.35458e-06)
(5.1916 0.00290284 1.6294e-06)
(5.43556 -0.000114627 7.83221e-06)
(5.43522 -0.00307983 3.59446e-08)
(5.68659 8.47443e-06 7.92792e-06)
(5.68627 0.00326737 7.24312e-07)
(5.93762 -0.000122153 8.24232e-06)
(5.93734 -0.00326296 1.57715e-07)
(6.17638 1.43827e-05 8.45905e-06)
(6.17616 0.00348184 1.32843e-06)
(6.38488 -0.000129966 9.04168e-06)
(6.38473 -0.00350961 3.79706e-07)
(6.53978 1.77451e-05 9.45342e-06)
(6.53973 0.0037704 2.12302e-06)
(6.61446 -0.000137283 1.03769e-05)
(6.61454 -0.00384648 6.08284e-07)
(6.5828 1.92498e-05 1.09714e-05)
(6.58302 0.00413627 2.57969e-06)
(6.42394 -0.000141401 1.20871e-05)
(6.42433 -0.00424783 6.54956e-07)
(6.12694 2.02733e-05 1.27132e-05)
(6.12753 0.00452907 2.18459e-06)
(5.69399 -0.000140529 1.36789e-05)
(5.69478 -0.00463012 4.14656e-07)
(5.14109 2.03264e-05 1.41437e-05)
(5.14211 0.00486695 1.0397e-06)
(4.49599 -0.000136007 1.46836e-05)
(4.49726 -0.0049129 0)
(3.79397 1.72227e-05 1.48946e-05)
(3.79549 0.0051042 4.67053e-08)
(3.07268 -0.000130331 1.47668e-05)
(3.07444 -0.00496116 1.13156e-06)
(2.36737 1.03341e-05 1.48196e-05)
(2.36935 0.00510565 3.24059e-07)
(1.70736 -0.000124658 1.44842e-05)
(1.70953 -0.00494243 1.76222e-06)
(1.11436 1.24918e-06 1.45032e-05)
(1.11664 0.00506605 4.09898e-07)
(0.602321 -0.000118906 1.41678e-05)
(0.60459 -0.00490808 1.83111e-06)
(0.178423 -7.97463e-06 1.42291e-05)
(0.180552 0.00503343 3.85718e-07)
(-0.155362 -0.000113152 8.9867e-07)
(-0.153526 -0.000174393 4.33809e-06)
(-0.400791 -1.51689e-05 7.39173e-07)
(-0.399356 0.000259648 4.3851e-07)
(-0.562077 -0.000106891 7.12258e-07)
(-0.56109 -9.82299e-05 1.01587e-06)
(-0.64499 -2.11875e-05 5.61368e-07)
(-0.644461 0.000193726 3.25649e-07)
(-0.656327 -0.000101282 5.36125e-07)
(-0.656244 -4.02515e-05 7.75692e-07)
(-0.603558 -2.63881e-05 4.01564e-07)
(-0.6039 0.000144583 2.39461e-07)
(-0.494555 -9.64173e-05 3.80245e-07)
(-0.495294 1.18735e-07 5.45923e-07)
(-0.337294 -3.08934e-05 2.62363e-07)
(-0.338389 0.000111636 1.63931e-07)
(-0.139602 -9.22164e-05 2.46763e-07)
(-0.140991 2.56121e-05 3.48042e-07)
(0.0911046 -3.4828e-05 1.46678e-07)
(0.0895181 9.2007e-05 1.47518e-07)
(0.348069 -8.85203e-05 1.41105e-07)
(0.346406 3.92721e-05 1.99601e-07)
(0.62534 -3.81773e-05 6.12449e-08)
(0.623702 8.25244e-05 1.95299e-07)
(0.917747 -8.52647e-05 6.47695e-08)
(0.916204 4.46885e-05 2.10794e-07)
(1.22077 -4.10349e-05 0)
(1.21937 8.02669e-05 2.34216e-07)
(1.53035 -8.23697e-05 6.36651e-08)
(1.52911 4.41633e-05 2.23268e-07)
(1.84263 -4.35959e-05 7.49025e-08)
(1.84155 7.9499e-05 2.30851e-07)
(2.1537 -7.98231e-05 1.56018e-07)
(2.15277 4.64493e-05 2.35689e-07)
(2.45946 -4.5885e-05 1.94233e-07)
(2.45867 7.74258e-05 2.4358e-07)
(2.7555 -7.76602e-05 2.99058e-07)
(2.75484 4.83848e-05 2.98274e-07)
(3.03713 -4.79764e-05 3.65341e-07)
(3.03657 7.55211e-05 3.66967e-07)
(3.29951 -7.58529e-05 4.87808e-07)
(3.29905 4.99918e-05 4.87273e-07)
(3.53795 -4.98909e-05 5.67515e-07)
(3.53758 7.37668e-05 5.69141e-07)
(3.74821 -7.43026e-05 6.87466e-07)
(3.74791 5.1365e-05 6.87171e-07)
(3.92685 -5.15937e-05 7.56227e-07)
(3.92661 7.22003e-05 7.57863e-07)
(4.07153 -7.29296e-05 8.48027e-07)
(4.07135 5.2581e-05 8.47955e-07)
(4.18132 -5.30029e-05 8.83085e-07)
(4.1812 7.09061e-05 8.84731e-07)
(4.25679 -7.16467e-05 9.31197e-07)
(4.25671 5.37246e-05 9.31325e-07)
(4.29998 -5.41405e-05 9.24482e-07)
(4.29994 6.98643e-05 9.26132e-07)
(4.31431 -7.04214e-05 9.30635e-07)
(4.3143 5.48257e-05 9.30938e-07)
(4.30433 -5.50844e-05 8.91282e-07)
(4.30434 6.8999e-05 8.92929e-07)
(4.2754 -6.92884e-05 8.70912e-07)
(4.27543 5.58475e-05 8.71367e-07)
(4.23341 -5.58994e-05 8.18229e-07)
(4.23346 6.82472e-05 8.19872e-07)
(4.18441 -6.83267e-05 7.90514e-07)
(4.18446 5.6709e-05 7.91108e-07)
(4.13436 -5.66406e-05 7.40738e-07)
(4.13441 6.75558e-05 7.42385e-07)
(4.08887 -6.75319e-05 7.18512e-07)
(4.08892 5.74129e-05 7.19242e-07)
(4.05309 -5.73309e-05 6.79519e-07)
(4.05312 6.6903e-05 6.81188e-07)
(4.03149 -6.68585e-05 6.67368e-07)
(4.03151 5.8003e-05 6.68246e-07)
(4.02785 -5.79555e-05 6.41026e-07)
(4.02784 6.6305e-05 6.4275e-07)
(4.04509 -6.62575e-05 6.40371e-07)
(4.04506 5.85269e-05 6.41424e-07)
(4.08523 -5.84809e-05 6.29692e-07)
(4.08518 6.57964e-05 6.31516e-07)
(4.14929 -6.57302e-05 6.45091e-07)
(4.14921 5.89822e-05 6.46362e-07)
(4.23716 -5.89181e-05 6.55851e-07)
(4.23706 6.5367e-05 6.57831e-07)
(4.34755 -6.52375e-05 6.966e-07)
(4.34744 5.94067e-05 6.98138e-07)
(4.47793 -5.93521e-05 7.36914e-07)
(4.47781 6.49327e-05 7.39115e-07)
(4.62457 -6.48319e-05 8.06454e-07)
(4.62444 5.97472e-05 8.08315e-07)
(4.78259 -5.97121e-05 8.79074e-07)
(4.78247 6.45647e-05 8.81556e-07)
(4.9462 -6.44978e-05 9.80181e-07)
(4.94608 6.00182e-05 9.82413e-07)
(5.10894 -6.00141e-05 1.08699e-06)
(5.10883 6.42477e-05 1.0898e-06)
(5.26408 -6.41688e-05 1.22475e-06)
(5.26398 6.02856e-05 1.22739e-06)
(5.40502 -6.02357e-05 1.37595e-06)
(5.40493 6.40046e-05 1.37912e-06)
(5.52576 -6.38111e-05 1.56837e-06)
(5.52569 6.05821e-05 1.57142e-06)
(5.6213 -6.03764e-05 1.79065e-06)
(5.62125 6.38361e-05 1.79417e-06)
(5.68803 -6.34519e-05 2.07207e-06)
(5.688 6.08803e-05 2.07549e-06)
(5.72396 -6.04838e-05 2.40486e-06)
(5.72395 6.36951e-05 2.4087e-06)
(5.72882 -6.31902e-05 2.81307e-06)
(5.72883 6.10804e-05 2.81682e-06)
(5.70402 -6.06457e-05 3.28596e-06)
(5.70404 6.34941e-05 3.29006e-06)
(5.6524 -6.3122e-05 3.83415e-06)
(5.65244 6.10859e-05 3.83817e-06)
(5.57796 -6.09844e-05 4.43301e-06)
(5.57801 6.31112e-05 4.43732e-06)
(5.48538 -6.32598e-05 5.0757e-06)
(5.48544 6.08838e-05 5.07993e-06)
(5.3796 -6.15168e-05 5.71905e-06)
(5.37967 6.25295e-05 5.72352e-06)
(5.26536 -6.35909e-05 6.33593e-06)
(5.26542 6.04864e-05 6.34033e-06)
(5.14682 -6.20961e-05 6.87237e-06)
(5.14689 6.18961e-05 6.87696e-06)
(5.02733 -6.38856e-05 7.29635e-06)
(5.0274 6.01231e-05 7.30089e-06)
(4.90924 -6.25173e-05 7.55874e-06)
(4.90931 6.14159e-05 7.56345e-06)
(4.79387 -6.39327e-05 7.6409e-06)
(4.79394 6.00047e-05 7.64558e-06)
(4.68163 -6.25595e-05 7.52001e-06)
(4.6817 6.13097e-05 7.52484e-06)
(4.57214 -6.35823e-05 7.20881e-06)
(4.57221 6.0281e-05 7.21363e-06)
(4.46449 -6.22025e-05 6.71967e-06)
(4.46456 6.15978e-05 6.72462e-06)
(4.35747 -6.29363e-05 6.09541e-06)
(4.35754 6.08496e-05 6.10034e-06)
(4.24978 -6.16481e-05 5.37272e-06)
(4.24985 6.20785e-05 5.37776e-06)
(4.14027 -6.22476e-05 4.60711e-06)
(4.14035 6.14573e-05 4.61213e-06)
(4.0281 -6.11734e-05 3.83742e-06)
(4.02818 6.24748e-05 3.84253e-06)
(3.91282 -6.1749e-05 3.11071e-06)
(3.9129 6.1871e-05 3.11578e-06)
(3.79442 -6.09424e-05 2.45066e-06)
(3.79451 6.26228e-05 2.4558e-06)
(3.67336 -6.15601e-05 1.88074e-06)
(3.67344 6.19706e-05 1.88582e-06)
(3.55044 -6.09607e-05 1.40394e-06)
(3.55053 6.2517e-05 1.40907e-06)
(3.42677 -6.15914e-05 1.02351e-06)
(3.42686 6.18455e-05 1.02857e-06)
(3.30363 -6.1128e-05 7.27045e-07)
(3.30372 6.22573e-05 8.98865e-07)
(3.18233 -6.17156e-05 5.0651e-07)
(3.18242 6.16227e-05 9.11297e-07)
(3.06412 -6.13148e-05 3.44667e-07)
(3.06421 6.19732e-05 9.22759e-07)
(2.95007 -6.18277e-05 2.31615e-07)
(2.95016 6.14069e-05 9.35181e-07)
(2.84101 -6.14529e-05 1.94512e-07)
(2.8411 6.17327e-05 9.46577e-07)
(2.73741 -6.18811e-05 2.12493e-07)
(2.7375 6.12446e-05 9.58842e-07)
(2.63943 -6.15321e-05 2.10637e-07)
(2.63951 6.15459e-05 9.70073e-07)
(2.54682 -6.18798e-05 2.31147e-07)
(2.5469 6.11313e-05 9.81993e-07)
(2.45897 -6.15609e-05 2.26639e-07)
(2.45905 6.14043e-05 9.92973e-07)
(2.37493 -6.18388e-05 2.5023e-07)
(2.375 6.1052e-05 1.00436e-06)
(2.29339 -6.15723e-05 2.53905e-07)
(2.29346 6.1275e-05 1.01507e-06)
(2.21277 -6.17939e-05 2.69471e-07)
(2.21285 6.09707e-05 1.02581e-06)
(2.13126 -6.1508e-05 2.79337e-07)
(2.13134 6.12162e-05 1.03629e-06)
(2.04685 -6.17703e-05 2.81107e-07)
(2.04693 6.0862e-05 1.04639e-06)
(1.95741 -6.14786e-05 2.95795e-07)
(1.9575 6.11172e-05 1.05679e-06)
(1.86082 -6.17058e-05 2.93494e-07)
(1.86093 6.07877e-05 1.06646e-06)
(1.75504 -6.14471e-05 3.1215e-07)
(1.75516 6.1015e-05 1.07704e-06)
(1.63823 -6.16409e-05 3.08233e-07)
(1.63838 6.07067e-05 1.08671e-06)
(1.50893 -6.14129e-05 3.28307e-07)
(1.5091 6.09102e-05 1.0979e-06)
(1.3661 -6.15755e-05 3.25866e-07)
(1.36632 6.06187e-05 1.10823e-06)
(1.20937 -6.13759e-05 3.44097e-07)
(1.20963 6.08027e-05 1.12067e-06)
(1.03906 -6.15092e-05 3.42905e-07)
(1.03939 6.05233e-05 1.13248e-06)
(0.856288 -6.13366e-05 3.59379e-07)
(0.856716 6.06916e-05 1.14696e-06)
(0.663055 -6.14413e-05 3.59223e-07)
(0.663632 6.04203e-05 1.1612e-06)
(0.462212 -6.12941e-05 3.74003e-07)
(0.463001 6.0577e-05 1.17849e-06)
(0.257431 -6.13709e-05 3.74668e-07)
(0.258482 6.03087e-05 1.19598e-06)
(0.0531225 -6.12478e-05 3.87749e-07)
(0.0543921 6.04583e-05 1.21663e-06)
(-0.145686 -6.13037e-05 3.88956e-07)
(-0.144483 6.0195e-05 1.23774e-06)
(-0.333793 -6.11857e-05 4.02237e-07)
(-0.33287 6.03226e-05 1.25962e-06)
(-0.505991 -6.12341e-05 4.06633e-07)
(-0.505357 6.00746e-05 1.28141e-06)
(-0.657165 -6.11211e-05 4.20644e-07)
(-0.656751 6.01832e-05 1.30339e-06)
(-0.782629 -6.11608e-05 4.28043e-07)
(-0.782366 5.99445e-05 1.32509e-06)
(-0.878408 -6.10517e-05 4.42198e-07)
(-0.878248 6.00371e-05 1.34638e-06)
(-0.941427 -6.10843e-05 4.52122e-07)
(-0.941344 5.98042e-05 1.36719e-06)
(-0.969733 -6.09774e-05 4.65636e-07)
(-0.969713 5.98843e-05 1.38724e-06)
(-0.962575 -6.10041e-05 4.76351e-07)
(-0.962614 5.96539e-05 1.40686e-06)
(-0.920409 -6.09007e-05 4.89597e-07)
(-0.920508 5.97221e-05 1.42585e-06)
(-0.844905 -6.09202e-05 4.9887e-07)
(-0.845073 5.94939e-05 1.44495e-06)
(-0.738803 -6.08201e-05 5.12995e-07)
(-0.739064 5.95517e-05 1.46403e-06)
(-0.605756 -6.0834e-05 5.1789e-07)
(-0.606154 5.93221e-05 1.48421e-06)
(-0.450088 -6.07355e-05 5.35208e-07)
(-0.450695 5.9372e-05 1.50513e-06)
(-0.276519 -6.07451e-05 5.37448e-07)
(-0.277412 5.9138e-05 1.52841e-06)
(-0.0900424 -6.06475e-05 5.55844e-07)
(-0.0911953 5.91806e-05 1.55293e-06)
(0.10429 -6.06582e-05 5.57944e-07)
(0.103217 5.89474e-05 1.581e-06)
(0.301919 -6.05471e-05 5.76765e-07)
(0.301129 5.89699e-05 1.6078e-06)
(0.498717 -6.05631e-05 5.83256e-07)
(0.498179 5.87361e-05 1.637e-06)
(0.691015 -6.04448e-05 6.05096e-07)
(0.690647 5.87526e-05 1.66429e-06)
(0.875697 -6.04633e-05 6.16473e-07)
(0.875433 5.85099e-05 1.69448e-06)
(1.05023 -6.03373e-05 6.41563e-07)
(1.05003 5.85207e-05 1.72183e-06)
(1.2127 -6.03542e-05 6.5801e-07)
(1.21255 5.82726e-05 1.75237e-06)
(1.36177 -6.02198e-05 6.86312e-07)
(1.36165 5.82785e-05 1.77902e-06)
(1.49659 -6.02416e-05 7.07792e-07)
(1.49649 5.80183e-05 1.8091e-06)
(1.61673 -6.00833e-05 7.39055e-07)
(1.61665 5.80354e-05 1.83414e-06)
(1.72211 -6.01175e-05 8.50497e-07)
(1.72205 5.77547e-05 1.86293e-06)
(1.8129 -5.99355e-05 1.03367e-06)
(1.81285 5.77838e-05 1.88545e-06)
(1.88937 -5.99777e-05 1.23725e-06)
(1.88933 5.74867e-05 1.91226e-06)
(1.95186 -5.97735e-05 1.45994e-06)
(1.95183 5.75278e-05 1.93148e-06)
(2.00064 -5.98272e-05 1.69643e-06)
(2.00062 5.72099e-05 1.95582e-06)
(2.03581 -5.96056e-05 1.9431e-06)
(2.0358 5.72602e-05 1.97119e-06)
(2.05727 -5.9666e-05 2.19315e-06)
(2.05726 5.69257e-05 2.17362e-06)
(2.06462 -5.94515e-05 2.44015e-06)
(2.06462 5.6963e-05 2.41991e-06)
(2.05723 -5.95003e-05 2.68016e-06)
(2.05723 5.6629e-05 2.65923e-06)
(2.03418 -5.93141e-05 2.90544e-06)
(2.03419 5.66349e-05 2.88414e-06)
(1.9944 -5.93516e-05 3.11587e-06)
(1.99443 5.62996e-05 3.09415e-06)
(1.93679 -5.91852e-05 3.30801e-06)
(1.93682 5.62855e-05 3.28637e-06)
(1.86032 -5.92218e-05 3.48428e-06)
(1.86036 5.59364e-05 3.46256e-06)
(1.76424 -5.90687e-05 3.64674e-06)
(1.76429 5.59118e-05 3.62568e-06)
(1.64827 -5.91033e-05 3.80208e-06)
(1.64833 5.5547e-05 3.78138e-06)
(1.51272 -5.89446e-05 3.95668e-06)
(1.5128 5.55336e-05 3.93733e-06)
(1.35871 -5.89877e-05 4.11675e-06)
(1.35881 5.51379e-05 4.09824e-06)
(1.1882 -5.87994e-05 4.29105e-06)
(1.18833 5.51625e-05 4.27465e-06)
(1.00411 -5.88607e-05 4.48162e-06)
(1.00427 5.472e-05 4.46653e-06)
(0.810246 -5.86373e-05 4.6954e-06)
(0.810445 5.47898e-05 4.68315e-06)
(0.611242 -5.87035e-05 4.93085e-06)
(0.611511 5.43062e-05 4.92027e-06)
(0.412411 -5.84641e-05 5.18715e-06)
(0.412801 5.44032e-05 5.18003e-06)
(0.219532 -5.85183e-05 5.45996e-06)
(0.220124 5.38858e-05 5.45465e-06)
(0.0385959 -5.8287e-05 5.74052e-06)
(0.0394208 5.39865e-05 5.73902e-06)
(-0.124383 -5.83321e-05 6.02239e-06)
(-0.123641 5.34488e-05 6.02248e-06)
(-0.2641 -5.80689e-05 6.2981e-06)
(-0.263658 5.35154e-05 6.29361e-06)
(-0.376243 -5.81822e-05 6.55134e-06)
(-0.376013 5.29416e-05 6.54645e-06)
(-0.457499 -5.78306e-05 6.78668e-06)
(-0.457384 5.30245e-05 6.7778e-06)
(-0.505996 -5.80588e-05 6.98359e-06)
(-0.505948 5.23616e-05 6.97527e-06)
(-0.521491 -5.75889e-05 7.15838e-06)
(-0.521491 5.24886e-05 7.14701e-06)
(-0.505437 -5.79348e-05 7.29383e-06)
(-0.505479 5.17368e-05 7.28432e-06)
(-0.460955 -5.73673e-05 7.41104e-06)
(-0.46104 5.18831e-05 7.39956e-06)
(-0.392541 -5.77889e-05 7.50497e-06)
(-0.392682 5.10885e-05 7.4968e-06)
(-0.305763 -5.71329e-05 7.59515e-06)
(-0.305997 5.12378e-05 7.58589e-06)
(-0.206853 -5.76253e-05 7.67728e-06)
(-0.207243 5.04097e-05 7.67263e-06)
(-0.102301 -5.68805e-05 7.76965e-06)
(-0.10287 5.05513e-05 7.76434e-06)
(0.00159107 -5.7438e-05 7.86622e-06)
(0.00100785 4.97005e-05 7.86645e-06)
(0.0992894 -5.66035e-05 7.9803e-06)
(0.0988872 4.98466e-05 7.97956e-06)
(0.186395 -5.72183e-05 8.10358e-06)
(0.186149 4.89037e-05 8.09885e-06)
(0.259721 -5.62963e-05 8.24491e-06)
(0.259574 4.91307e-05 8.23934e-06)
(0.317444 -5.69866e-05 8.38845e-06)
(0.317356 4.80543e-05 8.37953e-06)
(0.359108 -5.59794e-05 8.54365e-06)
(0.359056 4.83578e-05 8.53437e-06)
(0.385525 -5.67513e-05 8.69582e-06)
(0.385498 4.71462e-05 8.68409e-06)
(0.39858 -5.56393e-05 8.85846e-06)
(0.39857 4.75433e-05 8.84697e-06)
(0.400925 -5.6521e-05 9.01257e-06)
(0.400927 4.61729e-05 8.99953e-06)
(0.395675 -5.5285e-05 9.17873e-06)
(0.395684 4.66801e-05 9.16639e-06)
(0.386095 -5.62864e-05 9.33679e-06)
(0.386107 4.51449e-05 9.32355e-06)
(0.37529 -5.49275e-05 9.51053e-06)
(0.375302 4.57584e-05 9.49814e-06)
(0.366037 -5.60384e-05 9.68273e-06)
(0.366046 4.40719e-05 9.66969e-06)
(0.360626 -5.45411e-05 9.87657e-06)
(0.360629 4.4805e-05 9.86419e-06)
(0.360706 -5.57979e-05 1.00663e-05)
(0.360702 4.29342e-05 1.00532e-05)
(0.367297 -5.41338e-05 1.02831e-05)
(0.367286 4.38134e-05 1.02701e-05)
(0.380857 -5.55481e-05 1.04957e-05)
(0.380838 4.17505e-05 1.04816e-05)
(0.401342 -5.37025e-05 1.07353e-05)
(0.401318 4.27899e-05 1.07208e-05)
(0.428276 -5.53047e-05 1.09625e-05)
(0.428248 4.05091e-05 1.09466e-05)
(0.460841 -5.32589e-05 1.12149e-05)
(0.460811 4.17277e-05 1.11978e-05)
(0.49796 -5.50747e-05 1.14485e-05)
(0.497931 3.92086e-05 1.14296e-05)
(0.538446 -5.27861e-05 1.17096e-05)
(0.538417 4.06502e-05 1.1689e-05)
(0.580969 -5.48751e-05 1.19399e-05)
(0.580942 3.78396e-05 1.19173e-05)
(0.624152 -5.2302e-05 1.22009e-05)
(0.624127 3.95476e-05 1.21763e-05)
(0.666614 -5.46805e-05 1.24265e-05)
(0.666592 3.64363e-05 1.23999e-05)
(0.706951 -5.18393e-05 1.26793e-05)
(0.706932 3.83967e-05 1.26504e-05)
(0.743918 -5.44761e-05 1.28987e-05)
(0.743902 3.50233e-05 1.28682e-05)
(0.776403 -5.13865e-05 1.3139e-05)
(0.77639 3.72187e-05 1.31063e-05)
(0.803467 -5.43081e-05 1.33364e-05)
(0.803457 3.35649e-05 1.33026e-05)
(0.824505 -5.09305e-05 1.35583e-05)
(0.824498 3.60368e-05 1.35224e-05)
(0.839304 -5.41608e-05 1.3728e-05)
(0.8393 3.20867e-05 1.36918e-05)
(0.848006 -5.04974e-05 1.39153e-05)
(0.848004 3.48339e-05 1.38774e-05)
(0.851083 -5.40517e-05 1.40417e-05)
(0.851083 3.05804e-05 1.40042e-05)
(0.849307 -5.00863e-05 1.41872e-05)
(0.849309 3.36187e-05 1.41482e-05)
(0.843688 -5.39754e-05 1.42686e-05)
(0.843691 2.90584e-05 1.42307e-05)
(0.835311 -4.97021e-05 1.43718e-05)
(0.835314 3.2392e-05 1.43325e-05)
(0.825162 -5.39513e-05 1.44092e-05)
(0.825165 2.7507e-05 1.43717e-05)
(0.814073 -4.93367e-05 1.44835e-05)
(0.814077 3.11661e-05 1.44443e-05)
(0.8026 -5.39681e-05 1.44962e-05)
(0.802604 2.59419e-05 1.44593e-05)
(0.79093 -4.90119e-05 1.45594e-05)
(0.790934 2.99223e-05 1.45204e-05)
(0.77901 -5.40063e-05 1.45749e-05)
(0.779014 2.43861e-05 1.45389e-05)
(0.766539 -4.87173e-05 1.46521e-05)
(0.766543 2.86739e-05 1.46133e-05)
(0.753027 -5.40906e-05 1.46838e-05)
(0.753032 2.28187e-05 1.46487e-05)
(0.738039 -4.84357e-05 1.4791e-05)
(0.738044 2.74405e-05 1.47525e-05)
(0.721242 -5.42155e-05 1.48432e-05)
(0.721247 2.12482e-05 1.48094e-05)
(0.702504 -4.81885e-05 1.49683e-05)
(0.70251 2.62021e-05 1.49304e-05)
(0.682004 -5.43731e-05 1.50233e-05)
(0.68201 1.96849e-05 1.49912e-05)
(0.660207 -4.79877e-05 1.51363e-05)
(0.660214 2.49472e-05 1.50993e-05)
(0.637882 -5.45705e-05 1.51564e-05)
(0.637888 1.81231e-05 1.51264e-05)
(0.615988 -4.78439e-05 1.52168e-05)
(0.615994 2.36646e-05 1.51808e-05)
(0.595676 -5.48105e-05 1.51638e-05)
(0.595681 1.65599e-05 1.51361e-05)
(0.578135 -4.7757e-05 1.51386e-05)
(0.578139 2.23531e-05 1.51034e-05)
(0.564391 -5.51115e-05 1.49824e-05)
(0.564394 1.49775e-05 1.49567e-05)
(0.555347 -4.77248e-05 1.48598e-05)
(0.555349 2.10139e-05 1.48246e-05)
(0.55171 -5.54663e-05 1.46032e-05)
(0.55171 1.33849e-05 1.45788e-05)
(0.553834 -4.77465e-05 1.43972e-05)
(0.553832 1.96495e-05 1.43607e-05)
(0.56172 -5.58715e-05 1.40607e-05)
(0.561717 1.17908e-05 1.40365e-05)
(0.57509 -4.78437e-05 1.37952e-05)
(0.575085 1.8243e-05 1.37559e-05)
(0.59339 -5.63163e-05 1.3417e-05)
(0.593384 1.02163e-05 1.33919e-05)
(0.615821 -4.80134e-05 1.31345e-05)
(0.615815 1.68068e-05 1.30908e-05)
(0.641417 -5.68116e-05 1.27488e-05)
(0.64141 8.66674e-06 1.2722e-05)
(0.669119 -4.82794e-05 1.24792e-05)
(0.669112 1.53317e-05 1.24296e-05)
(0.697795 -5.7359e-05 1.21179e-05)
(0.697789 7.16336e-06 1.20891e-05)
(0.726383 -4.86564e-05 1.18898e-05)
(0.726377 1.38221e-05 1.18331e-05)
(0.75397 -5.79728e-05 1.15735e-05)
(0.753966 5.72077e-06 1.15428e-05)
(0.779771 -4.91683e-05 1.14024e-05)
(0.779767 1.22782e-05 1.13377e-05)
(0.803246 -5.86674e-05 1.11418e-05)
(0.803243 4.35918e-06 1.11102e-05)
(0.824237 -4.98298e-05 1.10358e-05)
(0.824234 1.07125e-05 1.09621e-05)
(0.842888 -5.94555e-05 1.08244e-05)
(0.842885 3.10528e-06 1.0793e-05)
(0.859721 -5.0666e-05 1.07612e-05)
(0.859718 9.1304e-06 1.06774e-05)
(0.875676 -6.03567e-05 1.05546e-05)
(0.875674 1.98348e-06 1.05248e-05)
(0.892136 -5.17095e-05 1.04716e-05)
(0.892134 7.53375e-06 1.03761e-05)
(0.911024 -6.13845e-05 1.09009e-05)
(0.911021 1.03052e-06 1.01589e-05)
(0.93495 -5.30088e-05 9.97461e-06)
(0.934946 5.91396e-06 9.86427e-06)
(0.967575 -6.25648e-05 1.17184e-05)
(0.96757 2.8104e-07 9.46036e-06)
(1.01388 -5.46243e-05 9.00955e-06)
(1.01387 4.26393e-06 8.87866e-06)
(1.08097 -4.70789e-05 8.18133e-06)
(1.08096 -2.57061e-07 8.15841e-06)
(1.17951 -3.92476e-05 7.31342e-06)
(1.1795 2.75706e-06 7.20212e-06)
(1.32555 -3.06866e-05 6.0929e-06)
(1.32555 -7.63599e-07 6.06961e-06)
(1.54111 -2.28054e-05 4.79641e-06)
(1.5411 1.42253e-06 4.70902e-06)
(1.85522 -1.31697e-05 3.22203e-06)
(1.85521 -1.29267e-06 3.20188e-06)
(2.40317 -5.16248e-06 1.55227e-06)
(2.40317 7.47581e-08 1.60873e-06)
(0.0312352 -1.1586e-05 -5.47412e-08)
(0.031272 -2.65029e-05 -0.000546811)
(0.0939055 1.92439e-05 -1.85914e-08)
(0.0940155 -1.28834e-05 -0.000773179)
(0.157289 2.98641e-05 -5.97593e-09)
(0.15747 -2.68966e-05 -0.00052564)
(0.221391 3.58844e-05 -1.72518e-09)
(0.22164 -3.58978e-05 -0.000266831)
(0.286225 3.91619e-05 -4.21918e-10)
(0.286536 -3.91113e-05 -0.000140848)
(0.351799 4.10317e-05 -1.0947e-10)
(0.352166 -4.09909e-05 -8.61749e-05)
(0.418087 4.23737e-05 -1.33543e-10)
(0.418503 -4.23162e-05 -5.95683e-05)
(0.485032 4.326e-05 -1.6423e-11)
(0.485492 -4.32858e-05 -4.47514e-05)
(0.552577 4.41229e-05 -9.48091e-11)
(0.553073 -4.40521e-05 -3.55828e-05)
(0.620728 4.4624e-05 -5.12986e-12)
(0.621255 -4.46957e-05 -2.94534e-05)
(0.689566 4.53173e-05 -8.70009e-11)
(0.690119 -4.52355e-05 -2.51143e-05)
(0.759124 4.5608e-05 3.88089e-23)
(0.759696 -4.56664e-05 -2.1906e-05)
(0.829439 4.6235e-05 -7.12452e-11)
(0.830026 -4.60826e-05 -1.94522e-05)
(0.900583 5.9745e-05 -4.92933e-08)
(0.90118 -4.62258e-05 -1.75137e-05)
(0.972556 2.04305e-05 -6.048e-19)
(0.973158 -4.68178e-05 -1.59778e-05)
(1.04527 0.000103243 -1.21883e-07)
(1.04588 -4.6845e-05 -1.4689e-05)
(1.11861 -3.99675e-05 -5.36521e-10)
(1.11921 -4.79622e-05 -1.36694e-05)
(1.19244 0.000139241 -3.96893e-08)
(1.19303 -4.71662e-05 -1.27871e-05)
(1.26676 -5.21676e-05 -8.00104e-10)
(1.26735 -4.88076e-05 -1.20469e-05)
(1.34182 0.000152604 -3.84947e-08)
(1.3424 -4.7289e-05 -1.14036e-05)
(1.41794 -6.43006e-05 -5.83481e-10)
(1.41851 -4.97661e-05 -1.08568e-05)
(1.49532 0.000165752 -3.6797e-08)
(1.49588 -4.72931e-05 -1.03724e-05)
(1.57402 -7.63177e-05 6.15697e-19)
(1.57456 -5.07491e-05 -9.95752e-06)
(1.65402 0.000205398 -1.45852e-07)
(1.65455 -4.70798e-05 -9.55841e-06)
(1.73531 -0.000141711 -1.46455e-21)
(1.73582 -5.19336e-05 -9.26567e-06)
(1.81792 0.000278553 -1.87361e-07)
(1.81842 -4.67611e-05 -8.94263e-06)
(1.90187 -0.000222505 -1.76994e-09)
(1.90235 -5.33671e-05 -8.7316e-06)
(1.98713 0.00033111 -7.44074e-08)
(1.9876 -4.61983e-05 -8.50238e-06)
(2.07367 -0.000246418 -3.6357e-09)
(2.07413 -5.49781e-05 -8.31748e-06)
(2.16145 0.000356356 -7.65821e-08)
(2.16189 -4.5307e-05 -8.13592e-06)
(2.25052 -0.00027118 -3.36791e-09)
(2.25094 -5.68637e-05 -7.99325e-06)
(2.34107 0.000381975 -7.26476e-08)
(2.34149 -4.40592e-05 -7.84797e-06)
(2.43355 -0.000295778 -1.53094e-09)
(2.43396 -5.91131e-05 -7.73698e-06)
(2.52859 0.000407275 -6.73245e-08)
(2.52898 -4.23548e-05 -7.62e-06)
(2.62685 -0.000319868 -5.08762e-19)
(2.62724 -6.183e-05 -7.53441e-06)
(2.72895 0.000464135 -2.22398e-07)
(2.72933 -4.01352e-05 -7.40426e-06)
(2.8353 -0.00040838 0)
(2.83568 -6.51789e-05 -7.38113e-06)
(2.94609 0.00065335 -7.33396e-07)
(2.94646 -3.73249e-05 -7.15425e-06)
(3.06129 -0.000699894 -3.6765e-19)
(3.06166 -6.92306e-05 -7.28102e-06)
(3.18073 0.000983429 -9.59462e-07)
(3.18109 -3.38464e-05 -7.031e-06)
(3.30423 -0.00107193 -3.31392e-21)
(3.30459 -7.39663e-05 -7.23477e-06)
(3.43185 0.00132049 -8.04784e-07)
(3.4322 -2.9704e-05 -7.0528e-06)
(3.56403 -0.00137635 -2.97092e-18)
(3.56438 -7.93249e-05 -7.23598e-06)
(3.70181 0.00155305 -4.30677e-07)
(3.70216 -2.49188e-05 -7.16892e-06)
(3.84678 -0.00153676 0)
(3.84714 -8.5276e-05 -7.27406e-06)
(4.00088 0.00168388 -2.65535e-07)
(4.00124 -1.95071e-05 -7.26421e-06)
(4.16601 -0.00163635 9.88872e-35)
(4.16638 -9.18894e-05 -7.34202e-06)
(4.34373 0.00180021 -3.58396e-07)
(4.3441 -1.33985e-05 -7.32484e-06)
(4.535 -0.00176816 -5.42048e-21)
(4.53537 -9.92643e-05 -7.44002e-06)
(4.74023 0.00224764 -2.23753e-06)
(4.7406 -6.51204e-06 -6.98547e-06)
(4.95932 -0.00253801 -3.26549e-21)
(4.95969 -0.000107001 -7.5868e-06)
(5.1916 0.00290302 -1.6294e-06)
(5.19195 1.02421e-06 -7.33406e-06)
(5.43522 -0.00307965 -3.59447e-08)
(5.43556 -0.000114665 -7.8116e-06)
(5.68627 0.00326755 -7.24313e-07)
(5.68659 8.43664e-06 -7.90721e-06)
(5.93734 -0.00326278 -1.57715e-07)
(5.93762 -0.000122192 -8.2215e-06)
(6.17616 0.00348203 -1.32843e-06)
(6.17638 1.43446e-05 -8.4381e-06)
(6.38473 -0.00350943 -3.79707e-07)
(6.38488 -0.000130005 -9.02059e-06)
(6.53973 0.00377059 -2.12302e-06)
(6.53978 1.77066e-05 -9.43217e-06)
(6.61454 -0.0038463 -6.08284e-07)
(6.61447 -0.000137322 -1.03555e-05)
(6.58302 0.00413647 -2.57969e-06)
(6.58281 1.92109e-05 -1.09498e-05)
(6.42433 -0.00424765 -6.54956e-07)
(6.42394 -0.000141441 -1.20653e-05)
(6.12753 0.00452926 -2.18459e-06)
(6.12695 2.0234e-05 -1.26912e-05)
(5.69479 -0.00462993 -4.14656e-07)
(5.694 -0.000140569 -1.36567e-05)
(5.14212 0.00486714 -1.0397e-06)
(5.14109 2.02867e-05 -1.41212e-05)
(4.49727 -0.00491271 -2.64766e-18)
(4.496 -0.000136047 -1.46609e-05)
(3.7955 0.0051044 -4.67052e-08)
(3.79397 1.71827e-05 -1.48715e-05)
(3.07445 -0.00496097 -1.13156e-06)
(3.07268 -0.000130372 -1.47433e-05)
(2.36936 0.00510585 -3.24059e-07)
(2.36737 1.02936e-05 -1.47956e-05)
(1.70954 -0.00494224 -1.76222e-06)
(1.70737 -0.0001247 -1.44596e-05)
(1.11665 0.00506625 -4.09898e-07)
(1.11437 1.20821e-06 -1.4478e-05)
(0.604599 -0.00490788 -1.83111e-06)
(0.602325 -0.000118948 -1.4142e-05)
(0.18056 0.00503364 -3.85718e-07)
(0.178426 -8.01608e-06 -1.42026e-05)
(-0.153519 -0.000174188 -4.36534e-06)
(-0.155359 -0.000113196 -8.9867e-07)
(-0.399351 0.000259849 -4.3851e-07)
(-0.400789 -1.52108e-05 -7.39173e-07)
(-0.561086 -9.80212e-05 -1.01587e-06)
(-0.562075 -0.000106935 -7.12257e-07)
(-0.644458 0.00019393 -3.25649e-07)
(-0.644989 -2.12299e-05 -5.61369e-07)
(-0.656243 -4.00393e-05 -7.75693e-07)
(-0.656326 -0.000101327 -5.36124e-07)
(-0.6039 0.00014479 -2.39461e-07)
(-0.603557 -2.6431e-05 -4.01565e-07)
(-0.495295 3.34701e-07 -5.45923e-07)
(-0.494554 -9.64637e-05 -3.80244e-07)
(-0.338392 0.000111847 -1.63931e-07)
(-0.337294 -3.09368e-05 -2.62364e-07)
(-0.140994 2.58321e-05 -3.48042e-07)
(-0.139603 -9.22641e-05 -2.46762e-07)
(0.0895141 9.22218e-05 -1.00328e-07)
(0.0911039 -3.48718e-05 -1.4668e-07)
(0.346402 3.94965e-05 -1.89275e-07)
(0.348067 -8.85694e-05 -1.41103e-07)
(0.623697 8.27435e-05 -5.16159e-08)
(0.625338 -3.82216e-05 -6.12471e-08)
(0.916198 4.49177e-05 -7.50034e-08)
(0.917744 -8.53152e-05 -6.47672e-08)
(1.21936 8.04905e-05 -5.92046e-08)
(1.22077 -4.10797e-05 6.38044e-22)
(1.5291 4.43976e-05 -6.23713e-08)
(1.53035 -8.24215e-05 -6.36658e-08)
(1.84154 7.97284e-05 -7.65965e-08)
(1.84262 -4.36419e-05 -7.49012e-08)
(2.15277 4.66879e-05 -1.54975e-07)
(2.1537 -7.98762e-05 -1.56018e-07)
(2.45867 7.76621e-05 -1.95883e-07)
(2.45946 -4.59325e-05 -1.94232e-07)
(2.75483 4.86281e-05 -2.98268e-07)
(2.7555 -7.77145e-05 -2.99058e-07)
(3.03657 7.57648e-05 -3.66975e-07)
(3.03713 -4.80252e-05 -3.65341e-07)
(3.29905 5.02403e-05 -4.87267e-07)
(3.29951 -7.59087e-05 -4.87807e-07)
(3.53757 7.40184e-05 -5.6915e-07)
(3.53795 -4.99412e-05 -5.67514e-07)
(3.7479 5.16192e-05 -6.87165e-07)
(3.74821 -7.43601e-05 -6.87464e-07)
(3.9266 7.24608e-05 -7.57873e-07)
(3.92684 -5.16454e-05 -7.56227e-07)
(4.07135 5.28415e-05 -8.47947e-07)
(4.07153 -7.29891e-05 -8.48024e-07)
(4.18119 7.11762e-05 -8.84742e-07)