/*--------------------------------*- C++ -*----------------------------------*| =========                 |                                                 |
| \      /  F ield         | OpenFOAM: The Open Source CFD Toolbox           |
|  \    /   O peration     | Version:  v2012                                 |
|   \  /    A nd           | Website:  www.openfoam.com                      |
|    \/     M anipulation  |                                                 |
\*---------------------------------------------------------------------------*/
FoamFile
{
    version     2.0;
    format      ascii;
    class       volSymmTensorField;
    location    "0";
    object      bij;
}
// * * * * * * * * * * * * * * * * * * * * * * * * * * * * * * * * * * * * * //

dimensions      [0 0 0 0 0 0 0];


internalField   nonuniform List<symmTensor> 
2560
(
(0.3930959003302249 -0.00016674377737000112 0.0 -0.34922020049087255 0.0 -0.0438756998393524)
(0.3930959003302249 -0.00016674377737000112 0.0 -0.34922020049087255 0.0 -0.0438756998393524)
(0.33948538053092836 -0.0005096040562494491 0.0 -0.29807512293480537 0.0 -0.04141025759612296)
(0.33948538053092836 -0.0005096040562494491 0.0 -0.29807512293480537 0.0 -0.04141025759612296)
(0.4014362472361865 -0.000866790653553705 0.0 -0.3500582886294516 0.0 -0.05137795860673476)
(0.4014362472361865 -0.000866790653553705 0.0 -0.3500582886294516 0.0 -0.05137795860673476)
(0.37852026704571023 -0.001238571754044695 0.0 -0.3262736629579457 0.0 -0.05224660408776457)
(0.37852026704571023 -0.001238571754044695 0.0 -0.3262736629579457 0.0 -0.05224660408776457)
(0.3883372143357234 -0.0016251808825542382 0.0 -0.33168916923064157 0.0 -0.056648045105081826)
(0.3883372143357234 -0.0016251808825542382 0.0 -0.33168916923064157 0.0 -0.056648045105081826)
(0.3971001834548356 -0.0020268219065307175 0.0 -0.33614971134162047 0.0 -0.06095047211321515)
(0.3971001834548356 -0.0020268219065307175 0.0 -0.33614971134162047 0.0 -0.06095047211321515)
(0.3980879425659715 -0.0024436456223047424 0.0 -0.3336586159800108 0.0 -0.06442932658596054)
(0.3980879425659715 -0.0024436456223047424 0.0 -0.3336586159800108 0.0 -0.06442932658596054)
(0.4001150488502187 -0.002875784514149844 0.0 -0.33208611924038267 0.0 -0.06802892960983596)
(0.4001150488502187 -0.002875784514149844 0.0 -0.33208611924038267 0.0 -0.06802892960983596)
(0.404463653237874 -0.0033233020329443584 0.0 -0.3325795209049624 0.0 -0.07188413233291142)
(0.404463653237874 -0.0033233020329443584 0.0 -0.3325795209049624 0.0 -0.07188413233291142)
(0.4090350729218787 -0.0037862195740769626 0.0 -0.33326868772201457 0.0 -0.07576638519986398)
(0.4090350729218787 -0.0037862195740769626 0.0 -0.33326868772201457 0.0 -0.07576638519986398)
(0.41283129256489864 -0.004264571835353597 0.0 -0.33326561093676854 0.0 -0.07956568162813009)
(0.41283129256489864 -0.004264571835353597 0.0 -0.33326561093676854 0.0 -0.07956568162813009)
(0.41625042344946983 -0.004758254617242348 0.0 -0.33292916494968344 0.0 -0.08332125849978642)
(0.41625042344946983 -0.004758254617242348 0.0 -0.33292916494968344 0.0 -0.08332125849978642)
(0.4197595191963038 -0.005267153391022766 0.0 -0.33267974574899617 0.0 -0.0870797734473075)
(0.4197595191963038 -0.005267153391022766 0.0 -0.33267974574899617 0.0 -0.0870797734473075)
(0.42344868857051937 -0.0057911934330643795 0.0 -0.33260073853205735 0.0 -0.09084795003846197)
(0.42344868857051937 -0.0057911934330643795 0.0 -0.33260073853205735 0.0 -0.09084795003846197)
(0.4271978323974891 -0.006330101733704385 0.0 -0.3325890050326403 0.0 -0.09460882736484855)
(0.4271978323974891 -0.006330101733704385 0.0 -0.3325890050326403 0.0 -0.09460882736484855)
(0.43088748125521653 -0.006883682505553958 0.0 -0.33254138455802046 0.0 -0.09834609669719584)
(0.43088748125521653 -0.006883682505553958 0.0 -0.33254138455802046 0.0 -0.09834609669719584)
(0.43449205432743443 -0.00745167499412597 0.0 -0.33243863164081455 0.0 -0.1020534226866198)
(0.43449205432743443 -0.00745167499412597 0.0 -0.33243863164081455 0.0 -0.1020534226866198)
(0.43803651361409923 -0.008033743134184961 0.0 -0.3323068546517022 0.0 -0.10572965896239692)
(0.43803651361409923 -0.008033743134184961 0.0 -0.3323068546517022 0.0 -0.10572965896239692)
(0.44154787313090726 -0.008629531068426214 0.0 -0.3321740108910636 0.0 -0.10937386223984372)
(0.44154787313090726 -0.008629531068426214 0.0 -0.3321740108910636 0.0 -0.10937386223984372)
(0.4450347262939541 -0.00923866563752962 0.0 -0.33205148478281116 0.0 -0.11298324151114301)
(0.4450347262939541 -0.00923866563752962 0.0 -0.33205148478281116 0.0 -0.11298324151114301)
(0.4484864905391187 -0.009860754262524725 0.0 -0.3319334075401262 0.0 -0.1165530829989926)
(0.4484864905391187 -0.009860754262524725 0.0 -0.3319334075401262 0.0 -0.1165530829989926)
(0.45189097622454344 -0.01049534888801008 0.0 -0.33181265065201887 0.0 -0.12007832557252446)
(0.45189097622454344 -0.01049534888801008 0.0 -0.33181265065201887 0.0 -0.12007832557252446)
(0.4552375776592493 -0.011141970567698105 0.0 -0.33168350954936104 0.0 -0.12355406810988816)
(0.4552375776592493 -0.011141970567698105 0.0 -0.33168350954936104 0.0 -0.12355406810988816)
(0.4585231326676679 -0.011800175185018759 0.0 -0.331546509260512 0.0 -0.126976623407156)
(0.4585231326676679 -0.011800175185018759 0.0 -0.331546509260512 0.0 -0.126976623407156)
(0.4617460647209257 -0.012469480989632986 0.0 -0.3314036063754341 0.0 -0.13034245834549157)
(0.4617460647209257 -0.012469480989632986 0.0 -0.3314036063754341 0.0 -0.13034245834549157)
(0.46490498053530444 -0.013149383156726781 0.0 -0.331256895613146 0.0 -0.13364808492215835)
(0.46490498053530444 -0.013149383156726781 0.0 -0.331256895613146 0.0 -0.13364808492215835)
(0.4679974267040835 -0.013839372576066536 0.0 -0.33110739035054776 0.0 -0.13689003635353575)
(0.4679974267040835 -0.013839372576066536 0.0 -0.33110739035054776 0.0 -0.13689003635353575)
(0.47101983421208427 -0.014538986840893683 0.0 -0.33095471822156036 0.0 -0.14006511599052388)
(0.47101983421208427 -0.014538986840893683 0.0 -0.33095471822156036 0.0 -0.14006511599052388)
(0.4739684796357482 -0.015247716545202652 0.0 -0.3307983971976665 0.0 -0.14317008243808166)
(0.4739684796357482 -0.015247716545202652 0.0 -0.3307983971976665 0.0 -0.14317008243808166)
(0.4768397609446974 -0.01596504267901371 0.0 -0.33063793643404193 0.0 -0.14620182451065555)
(0.4768397609446974 -0.01596504267901371 0.0 -0.33063793643404193 0.0 -0.14620182451065555)
(0.4796309448705353 -0.01669052812870505 0.0 -0.3304731965651776 0.0 -0.14915774830535777)
(0.4796309448705353 -0.01669052812870505 0.0 -0.3304731965651776 0.0 -0.14915774830535777)
(0.48233987504211084 -0.01742377237203132 0.0 -0.33030427164394927 0.0 -0.15203560339816158)
(0.48233987504211084 -0.01742377237203132 0.0 -0.33030427164394927 0.0 -0.15203560339816158)
(0.48496421341363544 -0.0181642667268895 0.0 -0.3301312903381765 0.0 -0.15483292307545884)
(0.48496421341363544 -0.0181642667268895 0.0 -0.3301312903381765 0.0 -0.15483292307545884)
(0.4875020586085559 -0.018911575375843623 0.0 -0.32995434921771266 0.0 -0.15754770939084317)
(0.4875020586085559 -0.018911575375843623 0.0 -0.32995434921771266 0.0 -0.15754770939084317)
(0.48995153244106676 -0.019665302308582256 0.0 -0.3297733886076702 0.0 -0.16017814383339646)
(0.48995153244106676 -0.019665302308582256 0.0 -0.3297733886076702 0.0 -0.16017814383339646)
(0.4923111375716029 -0.02042514359819286 0.0 -0.32958825446062967 0.0 -0.16272288311097285)
(0.4923111375716029 -0.02042514359819286 0.0 -0.32958825446062967 0.0 -0.16272288311097285)
(0.4945792795752621 -0.02119069816147508 0.0 -0.32939880183956116 0.0 -0.16518047773570083)
(0.4945792795752621 -0.02119069816147508 0.0 -0.32939880183956116 0.0 -0.16518047773570083)
(0.4967547010608436 -0.021961616124362905 0.0 -0.32920486450682024 0.0 -0.1675498365540233)
(0.4967547010608436 -0.021961616124362905 0.0 -0.32920486450682024 0.0 -0.1675498365540233)
(0.4988362393835503 -0.022737583359245132 0.0 -0.3290062895935159 0.0 -0.16982994979003443)
(0.4988362393835503 -0.022737583359245132 0.0 -0.3290062895935159 0.0 -0.16982994979003443)
(0.5008231206553921 -0.023518372168733974 0.0 -0.3288029033130378 0.0 -0.1720202173423541)
(0.5008231206553921 -0.023518372168733974 0.0 -0.3288029033130378 0.0 -0.1720202173423541)
(0.5027145954125181 -0.02430367092650073 0.0 -0.3285945411896762 0.0 -0.17412005422284185)
(0.5027145954125181 -0.02430367092650073 0.0 -0.3285945411896762 0.0 -0.17412005422284185)
(0.5045103073710026 -0.025093253685806283 0.0 -0.3283810022140859 0.0 -0.17612930515691655)
(0.5045103073710026 -0.025093253685806283 0.0 -0.3283810022140859 0.0 -0.17612930515691655)
(0.5062097747084633 -0.025886907953624784 0.0 -0.3281620639042207 0.0 -0.1780477108042425)
(0.5062097747084633 -0.025886907953624784 0.0 -0.3281620639042207 0.0 -0.1780477108042425)
(0.5078126740661018 -0.026684442339724956 0.0 -0.32793748213887003 0.0 -0.17987519192723156)
(0.5078126740661018 -0.026684442339724956 0.0 -0.32793748213887003 0.0 -0.17987519192723156)
(0.5093189758894764 -0.027485682836994856 0.0 -0.32770699198401193 0.0 -0.1816119839054642)
(0.5093189758894764 -0.027485682836994856 0.0 -0.32770699198401193 0.0 -0.1816119839054642)
(0.5107287853667897 -0.0282904216257243 0.0 -0.32747032394729336 0.0 -0.18325846141949617)
(0.5107287853667897 -0.0282904216257243 0.0 -0.32747032394729336 0.0 -0.18325846141949617)
(0.5120421347837038 -0.029098525679562434 0.0 -0.3272271866413439 0.0 -0.1848149481423598)
(0.5120421347837038 -0.029098525679562434 0.0 -0.3272271866413439 0.0 -0.1848149481423598)
(0.5132591463946391 -0.029909877048211478 0.0 -0.32697727425767326 0.0 -0.18628187213696581)
(0.5132591463946391 -0.029909877048211478 0.0 -0.32697727425767326 0.0 -0.18628187213696581)
(0.51438016364352 -0.030724323386184787 0.0 -0.32672027471693543 0.0 -0.18765988892658458)
(0.51438016364352 -0.030724323386184787 0.0 -0.32672027471693543 0.0 -0.18765988892658458)
(0.5154060213134106 -0.03154193361171025 0.0 -0.3264557884470293 0.0 -0.1889502328663815)
(0.5154060213134106 -0.03154193361171025 0.0 -0.3264557884470293 0.0 -0.1889502328663815)
(0.5163366941053243 -0.03236231720073867 0.0 -0.32618356146591626 0.0 -0.19015313263940822)
(0.5163366941053243 -0.03236231720073867 0.0 -0.32618356146591626 0.0 -0.19015313263940822)
(0.5171724259781177 -0.033185212477957686 0.0 -0.3259032947587014 0.0 -0.1912691312194165)
(0.5171724259781177 -0.033185212477957686 0.0 -0.3259032947587014 0.0 -0.1912691312194165)
(0.5179144954331506 -0.03401117214850861 0.0 -0.3256143889498224 0.0 -0.19230010648332838)
(0.5179144954331506 -0.03401117214850861 0.0 -0.3256143889498224 0.0 -0.19230010648332838)
(0.5185633116805626 -0.03483965122627163 0.0 -0.32531660288376707 0.0 -0.1932467087967955)
(0.5185633116805626 -0.03483965122627163 0.0 -0.32531660288376707 0.0 -0.1932467087967955)
(0.5191193513307806 -0.03567038733758375 0.0 -0.3250096063590699 0.0 -0.19410974497171066)
(0.5191193513307806 -0.03567038733758375 0.0 -0.3250096063590699 0.0 -0.19410974497171066)
(0.5195835088400047 -0.036503906788370205 0.0 -0.3246927638710545 0.0 -0.19489074496895026)
(0.5195835088400047 -0.036503906788370205 0.0 -0.3246927638710545 0.0 -0.19489074496895026)
(0.5199561602395796 -0.0373394185676113 0.0 -0.32436591684822547 0.0 -0.19559024339135397)
(0.5199561602395796 -0.0373394185676113 0.0 -0.32436591684822547 0.0 -0.19559024339135397)
(0.5202385904684499 -0.03817743503517704 0.0 -0.3240283885509816 0.0 -0.19621020191746805)
(0.5202385904684499 -0.03817743503517704 0.0 -0.3240283885509816 0.0 -0.19621020191746805)
(0.5204313096474357 -0.03901742379985482 0.0 -0.3236799137669129 0.0 -0.19675139588052273)
(0.5204313096474357 -0.03901742379985482 0.0 -0.3236799137669129 0.0 -0.19675139588052273)
(0.5205349492306696 -0.039859363015345255 0.0 -0.3233200201676954 0.0 -0.19721492906297422)
(0.5205349492306696 -0.039859363015345255 0.0 -0.3233200201676954 0.0 -0.19721492906297422)
(0.5205503691121922 -0.040703226191851925 0.0 -0.32294821517971234 0.0 -0.1976021539324799)
(0.5205503691121922 -0.040703226191851925 0.0 -0.32294821517971234 0.0 -0.1976021539324799)
(0.5204786275860515 -0.041548981664632244 0.0 -0.32256398765479044 0.0 -0.1979146399312611)
(0.5204786275860515 -0.041548981664632244 0.0 -0.32256398765479044 0.0 -0.1979146399312611)
(0.5203204250566175 -0.04239658179324751 0.0 -0.3221668340210338 0.0 -0.19815359103558375)
(0.5203204250566175 -0.04239658179324751 0.0 -0.3221668340210338 0.0 -0.19815359103558375)
(0.5200764811463265 -0.04324549447436938 0.0 -0.3217564806113249 0.0 -0.19832000053500168)
(0.5200764811463265 -0.04324549447436938 0.0 -0.3217564806113249 0.0 -0.19832000053500168)
(0.5197476197560369 -0.04409590770396986 0.0 -0.3213322971515238 0.0 -0.19841532260451306)
(0.5197476197560369 -0.04409590770396986 0.0 -0.3213322971515238 0.0 -0.19841532260451306)
(0.5193347689179086 -0.04494799298946487 0.0 -0.32089362804625504 0.0 -0.19844114087165368)
(0.5193347689179086 -0.04494799298946487 0.0 -0.32089362804625504 0.0 -0.19844114087165368)
(0.5188390011073668 -0.04580098761921205 0.0 -0.32044031287308977 0.0 -0.19839868823427703)
(0.5188390011073668 -0.04580098761921205 0.0 -0.32044031287308977 0.0 -0.19839868823427703)
(0.5182606984729482 -0.04665527831564284 0.0 -0.31997159444313245 0.0 -0.19828910402981575)
(0.5182606984729482 -0.04665527831564284 0.0 -0.31997159444313245 0.0 -0.19828910402981575)
(0.5176010399907613 -0.04751033891888502 0.0 -0.31948719025624744 0.0 -0.19811384973451399)
(0.5176010399907613 -0.04751033891888502 0.0 -0.31948719025624744 0.0 -0.19811384973451399)
(0.5168607329991086 -0.04836653810183991 0.0 -0.31898630438623693 0.0 -0.19787442861287147)
(0.5168607329991086 -0.04836653810183991 0.0 -0.31898630438623693 0.0 -0.19787442861287147)
(0.5160408645479655 -0.04922335191585623 0.0 -0.31846867041371146 0.0 -0.19757219413425398)
(0.5160408645479655 -0.04922335191585623 0.0 -0.31846867041371146 0.0 -0.19757219413425398)
(0.5151421271631911 -0.050080701378017435 0.0 -0.3179337753961821 0.0 -0.19720835176700882)
(0.5151421271631911 -0.050080701378017435 0.0 -0.3179337753961821 0.0 -0.19720835176700882)
(0.5141651891163032 -0.050938716166180883 0.0 -0.31738095612083267 0.0 -0.19678423299547024)
(0.5141651891163032 -0.050938716166180883 0.0 -0.31738095612083267 0.0 -0.19678423299547024)
(0.5131115919626662 -0.05179689355404916 0.0 -0.3168099519688585 0.0 -0.19630163999380745)
(0.5131115919626662 -0.05179689355404916 0.0 -0.3168099519688585 0.0 -0.19630163999380745)
(0.5119815430303609 -0.05265556839063808 0.0 -0.316219979192828 0.0 -0.19576156383753265)
(0.5119815430303609 -0.05265556839063808 0.0 -0.316219979192828 0.0 -0.19576156383753265)
(0.5107763058637746 -0.053514249249828526 0.0 -0.31561081784248135 0.0 -0.1951654880212931)
(0.5107763058637746 -0.053514249249828526 0.0 -0.31561081784248135 0.0 -0.1951654880212931)
(0.5094962613402718 -0.054373262234552105 0.0 -0.31498167053250514 0.0 -0.1945145908077667)
(0.5094962613402718 -0.054373262234552105 0.0 -0.31498167053250514 0.0 -0.1945145908077667)
(0.5081433567232748 -0.05523193707851937 0.0 -0.314332471345144 0.0 -0.19381088537813096)
(0.5081433567232748 -0.05523193707851937 0.0 -0.314332471345144 0.0 -0.19381088537813096)
(0.506717394076988 -0.05609079398631117 0.0 -0.31366230095201214 0.0 -0.19305509312497593)
(0.506717394076988 -0.05609079398631117 0.0 -0.31366230095201214 0.0 -0.19305509312497593)
(0.5052201526007611 -0.05694918636053112 0.0 -0.3129711450775138 0.0 -0.19224900752324744)
(0.5052201526007611 -0.05694918636053112 0.0 -0.3129711450775138 0.0 -0.19224900752324744)
(0.5036516681945815 -0.057807627962877285 0.0 -0.312258072670755 0.0 -0.19139359552382662)
(0.5036516681945815 -0.057807627962877285 0.0 -0.312258072670755 0.0 -0.19139359552382662)
(0.5020140012102943 -0.05866549937562907 0.0 -0.31152309683234014 0.0 -0.1904909043779542)
(0.5020140012102943 -0.05866549937562907 0.0 -0.31152309683234014 0.0 -0.1904909043779542)
(0.5003072279455961 -0.05952312295036598 0.0 -0.3107654797041322 0.0 -0.1895417482414637)
(0.5003072279455961 -0.05952312295036598 0.0 -0.3107654797041322 0.0 -0.1895417482414637)
(0.4985326296509727 -0.060380271660604834 0.0 -0.3099849665549394 0.0 -0.18854766309603324)
(0.4985326296509727 -0.060380271660604834 0.0 -0.3099849665549394 0.0 -0.18854766309603324)
(0.49669134105589513 -0.06123691502579897 0.0 -0.30918115131328633 0.0 -0.18751018974260888)
(0.49669134105589513 -0.06123691502579897 0.0 -0.30918115131328633 0.0 -0.18751018974260888)
(0.49478437424465027 -0.06209302417594311 0.0 -0.30835365392359093 0.0 -0.18643072032105923)
(0.49478437424465027 -0.06209302417594311 0.0 -0.30835365392359093 0.0 -0.18643072032105923)
(0.49281220173089857 -0.06294874313116848 0.0 -0.3075019508651881 0.0 -0.18531025086571026)
(0.49281220173089857 -0.06294874313116848 0.0 -0.3075019508651881 0.0 -0.18531025086571026)
(0.4907762695955855 -0.06380388163841602 0.0 -0.30662587188969126 0.0 -0.184150397705894)
(0.4907762695955855 -0.06380388163841602 0.0 -0.30662587188969126 0.0 -0.184150397705894)
(0.48867737772202996 -0.06465860214813207 0.0 -0.3057249184823042 0.0 -0.1829524592397257)
(0.48867737772202996 -0.06465860214813207 0.0 -0.3057249184823042 0.0 -0.1829524592397257)
(0.486516925966056 -0.06551272425788535 0.0 -0.3047989754644412 0.0 -0.18171795050161468)
(0.486516925966056 -0.06551272425788535 0.0 -0.3047989754644412 0.0 -0.18171795050161468)
(0.4842959299174874 -0.0663662442499628 0.0 -0.3038477816482822 0.0 -0.18044814826920502)
(0.4842959299174874 -0.0663662442499628 0.0 -0.3038477816482822 0.0 -0.18044814826920502)
(0.48201517395962445 -0.06721933277958801 0.0 -0.3028709132859877 0.0 -0.17914426067363667)
(0.48201517395962445 -0.06721933277958801 0.0 -0.3028709132859877 0.0 -0.17914426067363667)
(0.47967588978240233 -0.06807199883068593 0.0 -0.3018681511874272 0.0 -0.177807738594975)
(0.47967588978240233 -0.06807199883068593 0.0 -0.3018681511874272 0.0 -0.177807738594975)
(0.47727912040912523 -0.06892423886969762 0.0 -0.30083931084815047 0.0 -0.17643980956097466)
(0.47727912040912523 -0.06892423886969762 0.0 -0.30083931084815047 0.0 -0.17643980956097466)
(0.47482648823046864 -0.06977591131403091 0.0 -0.2997844276465275 0.0 -0.17504206058394106)
(0.47482648823046864 -0.06977591131403091 0.0 -0.2997844276465275 0.0 -0.17504206058394106)
(0.472318468809042 -0.07062734718244043 0.0 -0.2987030000788788 0.0 -0.17361546873016315)
(0.472318468809042 -0.07062734718244043 0.0 -0.2987030000788788 0.0 -0.17361546873016315)
(0.4697562849759043 -0.07147855019987213 0.0 -0.29759493219615213 0.0 -0.17216135277975209)
(0.4697562849759043 -0.07147855019987213 0.0 -0.29759493219615213 0.0 -0.17216135277975209)
(0.4671420270800771 -0.07232922901832256 0.0 -0.2964605552992856 0.0 -0.1706814717807913)
(0.4671420270800771 -0.07232922901832256 0.0 -0.2964605552992856 0.0 -0.1706814717807913)
(0.46447572731084386 -0.07317984136556709 0.0 -0.2952992673779338 0.0 -0.16917645993290997)
(0.46447572731084386 -0.07317984136556709 0.0 -0.2952992673779338 0.0 -0.16917645993290997)
(0.46175972352932915 -0.07403011710651067 0.0 -0.29411147826145767 0.0 -0.16764824526787128)
(0.46175972352932915 -0.07403011710651067 0.0 -0.29411147826145767 0.0 -0.16764824526787128)
(0.4589943916400724 -0.07488032663589635 0.0 -0.2928968443006083 0.0 -0.16609754733946383)
(0.4589943916400724 -0.07488032663589635 0.0 -0.2928968443006083 0.0 -0.16609754733946383)
(0.45618113254993325 -0.0757304605370206 0.0 -0.29165545837806756 0.0 -0.16452567417186564)
(0.45618113254993325 -0.0757304605370206 0.0 -0.29165545837806756 0.0 -0.16452567417186564)
(0.4533219617637319 -0.07658038834041442 0.0 -0.29038766459607884 0.0 -0.1629342971676529)
(0.4533219617637319 -0.07658038834041442 0.0 -0.29038766459607884 0.0 -0.1629342971676529)
(0.4504178755424551 -0.0774302186993835 0.0 -0.28909343855853326 0.0 -0.1613244369839217)
(0.4504178755424551 -0.0774302186993835 0.0 -0.28909343855853326 0.0 -0.1613244369839217)
(0.44746987386968606 -0.0782800382276097 0.0 -0.28777279526045924 0.0 -0.1596970786092266)
(0.44746987386968606 -0.0782800382276097 0.0 -0.28777279526045924 0.0 -0.1596970786092266)
(0.44448004234169 -0.07912968316621648 0.0 -0.2864262152437006 0.0 -0.1580538270979894)
(0.44448004234169 -0.07912968316621648 0.0 -0.2864262152437006 0.0 -0.1580538270979894)
(0.4414491049999162 -0.07997936082257658 0.0 -0.2850536040380357 0.0 -0.15639550096188048)
(0.4414491049999162 -0.07997936082257658 0.0 -0.2850536040380357 0.0 -0.15639550096188048)
(0.43837906079969513 -0.0808288491468084 0.0 -0.28365551874836353 0.0 -0.15472354205133168)
(0.43837906079969513 -0.0808288491468084 0.0 -0.28365551874836353 0.0 -0.15472354205133168)
(0.43527114087943114 -0.08167818815733849 0.0 -0.28223216487674974 0.0 -0.15303897600268146)
(0.43527114087943114 -0.08167818815733849 0.0 -0.28223216487674974 0.0 -0.15303897600268146)
(0.43212667799912224 -0.08252740902651459 0.0 -0.2807838013744903 0.0 -0.151342876624632)
(0.43212667799912224 -0.08252740902651459 0.0 -0.2807838013744903 0.0 -0.151342876624632)
(0.428947790464496 -0.08337625165202188 0.0 -0.27931112751724035 0.0 -0.14963666294725567)
(0.428947790464496 -0.08337625165202188 0.0 -0.27931112751724035 0.0 -0.14963666294725567)
(0.42573578085992936 -0.08422469497083086 0.0 -0.27781448463079267 0.0 -0.1479212962291367)
(0.42573578085992936 -0.08422469497083086 0.0 -0.27781448463079267 0.0 -0.1479212962291367)
(0.4224916467692887 -0.08507283158612322 0.0 -0.27629407088405006 0.0 -0.1461975758852386)
(0.4224916467692887 -0.08507283158612322 0.0 -0.27629407088405006 0.0 -0.1461975758852386)
(0.41921809446679065 -0.08592024801497723 0.0 -0.2747509431374411 0.0 -0.14446715132934934)
(0.41921809446679065 -0.08592024801497723 0.0 -0.2747509431374411 0.0 -0.14446715132934934)
(0.4159156266745387 -0.0867670936373567 0.0 -0.2731851560554735 0.0 -0.14273047061906502)
(0.4159156266745387 -0.0867670936373567 0.0 -0.2731851560554735 0.0 -0.14273047061906502)
(0.4125871161866899 -0.0876129465562848 0.0 -0.27159789180905375 0.0 -0.140989224377636)
(0.4125871161866899 -0.0876129465562848 0.0 -0.27159789180905375 0.0 -0.140989224377636)
(0.40923319355670823 -0.0884579232689441 0.0 -0.26998930504281565 0.0 -0.13924388851389236)
(0.40923319355670823 -0.0884579232689441 0.0 -0.26998930504281565 0.0 -0.13924388851389236)
(0.40585623385492786 -0.0893016693355594 0.0 -0.2683604204840297 0.0 -0.1374958133708979)
(0.40585623385492786 -0.0893016693355594 0.0 -0.2683604204840297 0.0 -0.1374958133708979)
(0.40245744807343625 -0.0901441577962001 0.0 -0.2667117164687343 0.0 -0.1357457316047017)
(0.40245744807343625 -0.0901441577962001 0.0 -0.2667117164687343 0.0 -0.1357457316047017)
(0.3990393499611258 -0.09098502108762985 0.0 -0.2650443274741443 0.0 -0.13399502248698128)
(0.3990393499611258 -0.09098502108762985 0.0 -0.2650443274741443 0.0 -0.13399502248698128)
(0.39560354785165436 -0.09182408280363548 0.0 -0.2633589818777179 0.0 -0.13224456597393633)
(0.39560354785165436 -0.09182408280363548 0.0 -0.2633589818777179 0.0 -0.13224456597393633)
(0.39215137097460506 -0.09266126137037003 0.0 -0.26165628561574683 0.0 -0.13049508535885812)
(0.39215137097460506 -0.09266126137037003 0.0 -0.26165628561574683 0.0 -0.13049508535885812)
(0.3886854360051676 -0.09349615530426839 0.0 -0.25993749737210414 0.0 -0.12874793863306347)
(0.3886854360051676 -0.09349615530426839 0.0 -0.25993749737210414 0.0 -0.12874793863306347)
(0.38520664847393365 -0.09432874187362682 0.0 -0.25820304913857656 0.0 -0.12700359933535704)
(0.38520664847393365 -0.09432874187362682 0.0 -0.25820304913857656 0.0 -0.12700359933535704)
(0.38171809159038156 -0.09515850010280116 0.0 -0.2564544773837106 0.0 -0.12526361420667095)
(0.38171809159038156 -0.09515850010280116 0.0 -0.2564544773837106 0.0 -0.12526361420667095)
(0.37822084406997625 -0.09598538821026953 0.0 -0.25469232959805027 0.0 -0.12352851447192577)
(0.37822084406997625 -0.09598538821026953 0.0 -0.25469232959805027 0.0 -0.12352851447192577)
(0.3747171631129569 -0.09680905948208245 0.0 -0.25291774792473437 0.0 -0.12179941518822257)
(0.3747171631129569 -0.09680905948208245 0.0 -0.25291774792473437 0.0 -0.12179941518822257)
(0.3712094030142671 -0.0976291684474151 0.0 -0.2511319474623277 0.0 -0.12007745555193929)
(0.3712094030142671 -0.0976291684474151 0.0 -0.2511319474623277 0.0 -0.12007745555193929)
(0.3676987935154182 -0.09844563470698224 0.0 -0.2493355770695043 0.0 -0.1183632164459138)
(0.3676987935154182 -0.09844563470698224 0.0 -0.2493355770695043 0.0 -0.1183632164459138)
(0.3641880923722689 -0.09925800648042708 0.0 -0.24753006251292461 0.0 -0.11665802985934423)
(0.3641880923722689 -0.09925800648042708 0.0 -0.24753006251292461 0.0 -0.11665802985934423)
(0.3606793836107693 -0.10006601218629811 0.0 -0.24571650774589057 0.0 -0.11496287586487863)
(0.3606793836107693 -0.10006601218629811 0.0 -0.24571650774589057 0.0 -0.11496287586487863)
(0.3571744163203265 -0.10086945842023401 0.0 -0.24389585012805864 0.0 -0.11327856619226778)
(0.3571744163203265 -0.10086945842023401 0.0 -0.24389585012805864 0.0 -0.11327856619226778)
(0.3536753128737959 -0.10166805743676471 0.0 -0.24206922172733714 0.0 -0.11160609114645878)
(0.3536753128737959 -0.10166805743676471 0.0 -0.24206922172733714 0.0 -0.11160609114645878)
(0.35018465415732075 -0.10246143981634301 0.0 -0.2402380175425697 0.0 -0.10994663661475118)
(0.35018465415732075 -0.10246143981634301 0.0 -0.2402380175425697 0.0 -0.10994663661475118)
(0.3467046240795183 -0.10324932446919134 0.0 -0.23840344288828835 0.0 -0.10830118119123003)
(0.3467046240795183 -0.10324932446919134 0.0 -0.23840344288828835 0.0 -0.10830118119123003)
(0.343237035376011 -0.10403151124021728 0.0 -0.23656652389859326 0.0 -0.10667051147741781)
(0.343237035376011 -0.10403151124021728 0.0 -0.23656652389859326 0.0 -0.10667051147741781)
(0.33978414005914914 -0.10480772092614149 0.0 -0.2347285430700378 0.0 -0.10505559698911128)
(0.33978414005914914 -0.10480772092614149 0.0 -0.2347285430700378 0.0 -0.10505559698911128)
(0.3363480792361242 -0.1055776841269458 0.0 -0.23289073872558774 0.0 -0.10345734051053641)
(0.3363480792361242 -0.1055776841269458 0.0 -0.23289073872558774 0.0 -0.10345734051053641)
(0.33293095179072507 -0.10634114038818483 0.0 -0.2310543482724621 0.0 -0.1018766035182629)
(0.33293095179072507 -0.10634114038818483 0.0 -0.2310543482724621 0.0 -0.1018766035182629)
(0.3295348923377505 -0.10709783703542836 0.0 -0.22922065291488183 0.0 -0.10031423942286859)
(0.3295348923377505 -0.10709783703542836 0.0 -0.22922065291488183 0.0 -0.10031423942286859)
(0.3261618906580251 -0.1078475356988626 0.0 -0.22739085379947088 0.0 -0.09877103685855411)
(0.3261618906580251 -0.1078475356988626 0.0 -0.22739085379947088 0.0 -0.09877103685855411)
(0.3228136224066914 -0.10859007671152475 0.0 -0.225566001623961 0.0 -0.09724762078273032)
(0.3228136224066914 -0.10859007671152475 0.0 -0.225566001623961 0.0 -0.09724762078273032)
(0.3194920619246359 -0.10932525051989861 0.0 -0.2237473120617454 0.0 -0.09574474986289058)
(0.3194920619246359 -0.10932525051989861 0.0 -0.2237473120617454 0.0 -0.09574474986289058)
(0.31619876844361694 -0.11005294835779707 0.0 -0.22193573802239897 0.0 -0.09426303042121797)
(0.31619876844361694 -0.11005294835779707 0.0 -0.22193573802239897 0.0 -0.09426303042121797)
(0.3129358904748039 -0.11077295258603498 0.0 -0.2201325737324919 0.0 -0.09280331674231201)
(0.3129358904748039 -0.11077295258603498 0.0 -0.2201325737324919 0.0 -0.09280331674231201)
(0.3097049488267074 -0.11148519062582235 0.0 -0.21833874270696596 0.0 -0.09136620611974132)
(0.3097049488267074 -0.11148519062582235 0.0 -0.21833874270696596 0.0 -0.09136620611974132)
(0.30650743078297826 -0.11218960377932967 0.0 -0.21655512098013957 0.0 -0.08995230980283855)
(0.30650743078297826 -0.11218960377932967 0.0 -0.21655512098013957 0.0 -0.08995230980283855)
(0.30334536624667013 -0.11288602569811473 0.0 -0.2147829060894829 0.0 -0.08856246015718697)
(0.30334536624667013 -0.11288602569811473 0.0 -0.2147829060894829 0.0 -0.08856246015718697)
(0.30021995829485865 -0.1135744232283861 0.0 -0.21302283594198648 0.0 -0.08719712235287201)
(0.30021995829485865 -0.1135744232283861 0.0 -0.21302283594198648 0.0 -0.08719712235287201)
(0.29713293581085715 -0.11425464076803242 0.0 -0.21127595975862382 0.0 -0.08585697605223325)
(0.29713293581085715 -0.11425464076803242 0.0 -0.21127595975862382 0.0 -0.08585697605223325)
(0.29408575992686653 -0.11492656957765239 0.0 -0.2095431918277307 0.0 -0.08454256809913584)
(0.29408575992686653 -0.11492656957765239 0.0 -0.2095431918277307 0.0 -0.08454256809913584)
(0.2910801061834662 -0.11559001545324281 0.0 -0.20782557710061383 0.0 -0.08325452908285234)
(0.2910801061834662 -0.11559001545324281 0.0 -0.20782557710061383 0.0 -0.08325452908285234)
(0.28811739009752374 -0.1162448496630639 0.0 -0.20612403363425094 0.0 -0.08199335646327273)
(0.28811739009752374 -0.1162448496630639 0.0 -0.20612403363425094 0.0 -0.08199335646327273)
(0.2851991995237214 -0.11689091632703011 0.0 -0.2044395580418905 0.0 -0.08075964148183093)
(0.2851991995237214 -0.11689091632703011 0.0 -0.2044395580418905 0.0 -0.08075964148183093)
(0.28232663196384356 -0.1175281813361512 0.0 -0.20277286471847467 0.0 -0.07955376724536889)
(0.28232663196384356 -0.1175281813361512 0.0 -0.20277286471847467 0.0 -0.07955376724536889)
(0.27950140346484115 -0.11815649200192542 0.0 -0.20112502656107137 0.0 -0.07837637690376972)
(0.27950140346484115 -0.11815649200192542 0.0 -0.20112502656107137 0.0 -0.07837637690376972)
(0.276724339708456 -0.11877591620055765 0.0 -0.19949656962086973 0.0 -0.07722777008758615)
(0.276724339708456 -0.11877591620055765 0.0 -0.19949656962086973 0.0 -0.07722777008758615)
(0.27399705062595514 -0.1193863627170896 0.0 -0.1978884950975852 0.0 -0.07610855552836984)
(0.27399705062595514 -0.1193863627170896 0.0 -0.1978884950975852 0.0 -0.07610855552836984)
(0.27132066007252253 -0.11998783857609033 0.0 -0.19630153747072576 0.0 -0.07501912260179665)