/*--------------------------------*- C++ -*----------------------------------*\
| =========                 |                                                 |
| \\      /  F ield         | OpenFOAM: The Open Source CFD Toolbox           |
|  \\    /   O peration     | Version:  2106                                  |
|   \\  /    A nd           | Website:  www.openfoam.com                      |
|    \\/     M anipulation  |                                                 |
\*---------------------------------------------------------------------------*/
FoamFile
{
    version     2.0;
    format      ascii;
    arch        "LSB;label=32;scalar=64";
    class       volVectorField;
    location    "11000";
    object      U;
}
// * * * * * * * * * * * * * * * * * * * * * * * * * * * * * * * * * * * * * //

dimensions      [0 1 -1 0 0 0 0];

internalField   nonuniform List<vector> 
2560
(
(0.00167312 -1.22021e-15 -1.20862e-18)
(0.00167312 2.27612e-19 -8.03692e-22)
(0.00504315 -2.60767e-15 -5.1149e-18)
(0.00504315 -3.1348e-19 9.33564e-22)
(0.00846167 -2.34225e-15 -4.19584e-18)
(0.00846167 -8.14307e-20 1.22373e-21)
(0.0119294 -2.19736e-15 -4.47281e-18)
(0.0119294 -9.94747e-20 3.13589e-21)
(0.0154471 -2.18151e-15 -4.25194e-18)
(0.0154471 -1.27628e-19 5.26332e-21)
(0.0190155 -2.19446e-15 -4.57214e-18)
(0.0190155 -1.59372e-19 7.49374e-21)
(0.0226354 -2.19823e-15 -4.90537e-18)
(0.0226354 -1.82565e-19 9.9753e-21)
(0.0263075 -2.19804e-15 -5.25781e-18)
(0.0263075 -2.0515e-19 1.24119e-20)
(0.0300327 -2.19783e-15 -5.62924e-18)
(0.0300327 -2.50147e-19 1.49953e-20)
(0.0338117 -2.19801e-15 -6.01799e-18)
(0.0338117 -3.01442e-19 1.79894e-20)
(0.0376453 -2.19821e-15 -6.42191e-18)
(0.0376453 -3.25576e-19 2.13923e-20)
(0.0415344 -2.19834e-15 -6.83997e-18)
(0.0415344 -3.33487e-19 2.47842e-20)
(0.0454798 -2.19841e-15 -7.27167e-18)
(0.0454798 -3.6171e-19 2.83806e-20)
(0.0494823 -2.19847e-15 -7.71709e-18)
(0.0494823 -3.95042e-19 3.23649e-20)
(0.0535427 -2.19852e-15 -8.17625e-18)
(0.0535427 -4.29611e-19 3.59991e-20)
(0.057662 -2.1986e-15 -8.64947e-18)
(0.057662 -4.36632e-19 4.01627e-20)
(0.0618411 -2.19868e-15 -9.13702e-18)
(0.0618411 -4.38297e-19 4.48585e-20)
(0.0660806 -2.19876e-15 -9.63925e-18)
(0.0660806 -4.43656e-19 5.03667e-20)
(0.0703817 -2.19887e-15 -1.01564e-17)
(0.0703817 -4.12525e-19 5.63385e-20)
(0.0747451 -2.19897e-15 -1.06891e-17)
(0.0747451 -4.33637e-19 6.21888e-20)
(0.0791717 -2.19903e-15 -1.12373e-17)
(0.0791717 -4.6975e-19 6.7797e-20)
(0.0836625 -2.19914e-15 -1.18013e-17)
(0.0836625 -4.61964e-19 7.40811e-20)
(0.0882184 -2.19936e-15 -1.23817e-17)
(0.0882184 -4.27257e-19 8.13723e-20)
(0.0928402 -2.19952e-15 -1.2979e-17)
(0.0928402 -4.56427e-19 8.82493e-20)
(0.0975288 -2.19968e-15 -1.35934e-17)
(0.0975288 -4.52425e-19 9.71223e-20)
(0.102285 -2.19988e-15 -1.42256e-17)
(0.102285 -4.11222e-19 1.0586e-19)
(0.10711 -2.20006e-15 -1.48756e-17)
(0.10711 -3.52926e-19 1.14173e-19)
(0.112004 -2.20025e-15 -1.55439e-17)
(0.112004 -2.36975e-19 1.20998e-19)
(0.116969 -2.20038e-15 -1.62307e-17)
(0.116969 -2.08654e-19 1.28426e-19)
(0.122005 -2.20047e-15 -1.67921e-17)
(0.122005 -2.58141e-19 1.39825e-19)
(0.127112 -2.20054e-15 -1.68375e-17)
(0.127112 -3.29984e-19 1.54048e-19)
(0.132292 -2.20064e-15 -1.68752e-17)
(0.132292 -3.57932e-19 1.67917e-19)
(0.137545 -2.20086e-15 -1.69038e-17)
(0.137545 -3.19926e-19 1.77983e-19)
(0.142872 -2.20111e-15 -1.69269e-17)
(0.142872 -3.17401e-19 1.88952e-19)
(0.148273 -2.20134e-15 -1.69417e-17)
(0.148273 -3.54261e-19 2.0105e-19)
(0.153749 -2.20148e-15 -1.69472e-17)
(0.153749 -4.03746e-19 2.18667e-19)
(0.159299 -2.20164e-15 -1.69407e-17)
(0.159299 -4.22953e-19 2.35307e-19)
(0.164925 -2.2018e-15 -1.69233e-17)
(0.164925 -4.322e-19 2.49036e-19)
(0.170626 -2.20203e-15 -1.6899e-17)
(0.170626 -5.13702e-19 2.66255e-19)
(0.176402 -2.2023e-15 -1.68639e-17)
(0.176402 -4.94396e-19 2.82432e-19)
(0.182252 -2.2026e-15 -1.68095e-17)
(0.182252 -4.36573e-19 2.98982e-19)
(0.188176 -2.20293e-15 -1.67423e-17)
(0.188176 -3.63521e-19 3.19327e-19)
(0.194174 -2.2032e-15 -1.66643e-17)
(0.194174 -4.24191e-19 3.37758e-19)
(0.200244 -2.20359e-15 -1.65689e-17)
(0.200244 -4.92062e-19 3.63212e-19)
(0.206385 -2.20403e-15 -1.6461e-17)
(0.206385 -3.99767e-19 3.92709e-19)
(0.212595 -2.2045e-15 -1.63387e-17)
(0.212595 -2.27235e-19 4.15244e-19)
(0.218873 -2.20497e-15 -1.61904e-17)
(0.218873 -2.96889e-20 4.34785e-19)
(0.225216 -2.20537e-15 -1.60334e-17)
(0.225216 8.09466e-21 4.61802e-19)
(0.231622 -2.20574e-15 -1.58511e-17)
(0.231622 -4.43259e-20 4.91505e-19)
(0.238089 -2.20613e-15 -1.56458e-17)
(0.238089 -4.92028e-20 5.24298e-19)
(0.244611 -2.20652e-15 -1.54282e-17)
(0.244611 2.5002e-20 5.5824e-19)
(0.251187 -2.2069e-15 -1.51902e-17)
(0.251187 -9.2893e-20 5.94766e-19)
(0.257812 -2.20739e-15 -1.49207e-17)
(0.257812 -1.72729e-19 6.28317e-19)
(0.264482 -2.20789e-15 -1.46366e-17)
(0.264482 -2.90332e-19 6.59331e-19)
(0.271192 -2.20834e-15 -1.43305e-17)
(0.271192 -6.69346e-19 6.80599e-19)
(0.277938 -2.20869e-15 -1.39887e-17)
(0.277938 -9.36594e-19 7.05921e-19)
(0.284714 -2.20901e-15 -1.36214e-17)
(0.284714 -1.13436e-18 7.50878e-19)
(0.291515 -2.20938e-15 -1.32418e-17)
(0.291515 -1.70871e-18 7.9218e-19)
(0.298336 -2.20984e-15 -1.2833e-17)
(0.298336 -1.8355e-18 8.41353e-19)
(0.30517 -2.21056e-15 -1.23991e-17)
(0.30517 -1.62767e-18 8.83083e-19)
(0.312013 -2.21128e-15 -1.19414e-17)
(0.312013 -1.3887e-18 9.28199e-19)
(0.318857 -2.21195e-15 -1.14687e-17)
(0.318857 -8.34454e-19 9.74041e-19)
(0.325698 -2.21238e-15 -1.09768e-17)
(0.325698 -1.53977e-18 1.00874e-18)
(0.33253 -2.2126e-15 -1.04572e-17)
(0.33253 -1.33864e-18 1.02866e-18)
(0.339347 -2.21256e-15 -9.92503e-18)
(0.339347 -1.55396e-18 1.04715e-18)
(0.346144 -2.21253e-15 -9.37524e-18)
(0.346144 -2.24272e-18 1.07467e-18)
(0.352915 -2.21293e-15 -8.78067e-18)
(0.352915 -2.30038e-18 1.09284e-18)
(0.359656 -2.21351e-15 -8.17507e-18)
(0.359656 -2.6073e-18 1.11928e-18)
(0.366361 -2.21432e-15 -7.55192e-18)
(0.366361 -2.75281e-18 1.14964e-18)
(0.373027 -2.21532e-15 -6.95803e-18)
(0.373027 -2.55849e-18 1.17511e-18)
(0.379649 -2.21608e-15 -6.31563e-18)
(0.379649 -2.3123e-18 1.18741e-18)
(0.386223 -2.21696e-15 -5.67441e-18)
(0.386223 -2.54984e-18 1.19307e-18)
(0.392747 -2.21769e-15 -5.01706e-18)
(0.392747 -2.69037e-18 1.19512e-18)
(0.399216 -2.21817e-15 -4.35961e-18)
(0.399216 -2.61181e-18 1.20406e-18)
(0.405629 -2.21879e-15 -3.6731e-18)
(0.405629 -2.72202e-18 1.21794e-18)
(0.411982 -2.21929e-15 -3.00067e-18)
(0.411982 -3.24456e-18 1.22891e-18)
(0.418274 -2.21997e-15 -2.28279e-18)
(0.418274 -3.93501e-18 1.25556e-18)
(0.424503 -2.22086e-15 -1.55508e-18)
(0.424503 -3.97823e-18 1.28792e-18)
(0.430668 -2.22167e-15 -8.37039e-19)
(0.430668 -4.18262e-18 1.30577e-18)
(0.436767 -2.22236e-15 -1.23347e-19)
(0.436767 -4.76167e-18 1.3439e-18)
(0.442799 -2.22251e-15 6.20508e-19)
(0.442799 -5.59713e-18 1.3871e-18)
(0.448764 -2.2221e-15 8.70862e-19)
(0.448764 -7.35201e-18 1.413e-18)
(0.454661 -2.22201e-15 9.10301e-19)
(0.454661 -7.9076e-18 1.44379e-18)
(0.460491 -2.2217e-15 9.52512e-19)
(0.460491 -8.27704e-18 1.47841e-18)
(0.466252 -2.22091e-15 9.92301e-19)
(0.466252 -1.0125e-17 1.52227e-18)
(0.471946 -2.22104e-15 1.00537e-18)
(0.471946 -1.05614e-17 1.55186e-18)
(0.477572 -2.22161e-15 1.03833e-18)
(0.477572 -1.074e-17 1.56116e-18)
(0.483132 -2.22206e-15 1.03669e-18)
(0.483132 -1.12159e-17 1.5575e-18)
(0.488625 -2.22291e-15 1.04813e-18)
(0.488625 -1.0696e-17 1.56259e-18)
(0.494052 -2.22342e-15 1.0747e-18)
(0.494052 -1.09853e-17 1.57117e-18)
(0.499414 -2.22322e-15 1.11708e-18)
(0.499414 -1.20998e-17 1.57342e-18)
(0.504711 -2.2246e-15 1.09965e-18)
(0.504711 -1.19175e-17 1.59085e-18)
(0.509946 -2.22614e-15 1.12557e-18)
(0.509946 -1.17579e-17 1.59472e-18)
(0.515118 -2.22651e-15 1.1303e-18)
(0.515118 -1.25889e-17 1.60386e-18)
(0.520229 -2.22756e-15 1.14205e-18)
(0.520229 -1.38754e-17 1.58523e-18)
(0.525279 -2.22871e-15 1.11141e-18)
(0.525279 -1.43692e-17 1.5914e-18)
(0.530271 -2.23044e-15 1.07284e-18)
(0.530271 -1.39174e-17 1.60015e-18)
(0.535204 -2.2317e-15 1.09811e-18)
(0.535204 -1.38829e-17 1.61157e-18)
(0.540081 -2.23286e-15 1.06335e-18)
(0.540081 -1.27101e-17 1.56324e-18)
(0.544902 -2.23447e-15 1.06153e-18)
(0.544902 -1.10156e-17 1.47207e-18)
(0.549668 -2.23538e-15 1.04731e-18)
(0.549668 -9.57667e-18 1.42218e-18)
(0.554381 -2.23566e-15 1.04394e-18)
(0.554381 -9.42049e-18 1.40199e-18)
(0.559041 -2.23654e-15 9.96852e-19)
(0.559041 -9.17856e-18 1.31764e-18)
(0.56365 -2.2377e-15 9.63541e-19)
(0.56365 -8.13039e-18 1.27328e-18)
(0.568209 -2.23881e-15 9.1628e-19)
(0.568209 -9.24991e-18 1.22875e-18)
(0.57272 -2.2395e-15 9.04827e-19)
(0.57272 -9.3984e-18 1.14136e-18)
(0.577182 -2.23873e-15 8.68787e-19)
(0.577182 -8.95272e-18 1.08501e-18)
(0.581598 -2.23857e-15 8.10864e-19)
(0.581598 -1.05537e-17 1.04278e-18)
(0.585969 -2.23894e-15 7.52592e-19)
(0.585969 -1.18177e-17 1.01538e-18)
(0.590295 -2.23839e-15 7.32125e-19)
(0.590295 -1.24058e-17 1.04861e-18)
(0.594577 -2.23746e-15 6.97085e-19)
(0.594577 -1.3706e-17 1.07265e-18)
(0.598818 -2.23767e-15 6.11703e-19)
(0.598818 -1.41695e-17 1.1103e-18)
(0.603016 -2.23733e-15 5.69061e-19)
(0.603016 -1.5934e-17 6.48818e-19)
(0.607175 -2.23617e-15 4.82513e-19)
(0.607175 -1.75012e-17 -7.05179e-19)
(0.611294 -2.23335e-15 5.17719e-19)
(0.611294 -2.04212e-17 -2.03326e-18)
(0.615375 -2.23065e-15 4.35504e-19)
(0.615375 -2.44043e-17 -3.34048e-18)
(0.619418 -2.2294e-15 3.77926e-19)
(0.619418 -2.64193e-17 -4.74236e-18)
(0.623424 -2.22669e-15 3.59018e-19)
(0.623424 -2.88671e-17 -6.17231e-18)
(0.627395 -2.22328e-15 3.06871e-19)
(0.627395 -3.13466e-17 -7.54217e-18)
(0.631331 -2.21981e-15 2.55348e-19)
(0.631331 -3.52774e-17 -8.83528e-18)
(0.635234 -2.21655e-15 2.40091e-19)
(0.635234 -3.79719e-17 -1.05504e-17)
(0.639103 -2.21313e-15 2.17658e-19)
(0.639103 -3.91352e-17 -1.20536e-17)
(0.642939 -2.21055e-15 1.09729e-19)
(0.642939 -4.02367e-17 -1.37188e-17)
(0.646745 -2.20793e-15 7.54866e-20)
(0.646745 -4.29983e-17 -1.5351e-17)
(0.650519 -2.20454e-15 1.32333e-19)
(0.650519 -4.63266e-17 -1.7137e-17)
(0.654264 -2.20161e-15 2.12732e-19)
(0.654264 -4.94077e-17 -1.85878e-17)
(0.657979 -2.19866e-15 2.93506e-19)
(0.657979 -5.38835e-17 -2.00892e-17)
(0.661666 -2.19702e-15 1.97631e-19)
(0.661666 -5.56962e-17 -2.19546e-17)
(0.665325 -2.19456e-15 3.17168e-19)
(0.665325 -5.8587e-17 -2.4183e-17)
(0.668956 -2.19176e-15 1.90384e-19)
(0.668956 -6.32418e-17 -2.60397e-17)
(0.672562 -2.1908e-15 1.56223e-19)
(0.672562 -6.67731e-17 -2.78577e-17)
(0.676141 -2.18798e-15 1.04186e-19)
(0.676141 -7.27079e-17 -2.95306e-17)
(0.679695 -2.18238e-15 1.1812e-19)
(0.679695 -8.17641e-17 -3.17044e-17)
(0.683225 -2.17578e-15 1.58206e-19)
(0.683225 -9.00046e-17 -3.39724e-17)
(0.68673 -2.16978e-15 1.0589e-19)
(0.68673 -9.68567e-17 -3.56434e-17)
(0.690213 -2.16527e-15 1.01106e-19)
(0.690213 -1.0617e-16 -3.78116e-17)
(0.693672 -2.1614e-15 2.13467e-19)
(0.693672 -1.16586e-16 -3.99198e-17)
(0.697109 -2.1601e-15 6.18468e-20)
(0.697109 -1.20427e-16 -4.19231e-17)
(0.700524 -2.16149e-15 -1.57664e-19)
(0.700524 -1.19255e-16 -4.37538e-17)
(0.703918 -2.16235e-15 -3.07468e-19)
(0.703918 -1.21582e-16 -4.65367e-17)
(0.707291 -2.16342e-15 -4.55964e-19)
(0.707291 -1.22481e-16 -4.9505e-17)
(0.710644 -2.16329e-15 -5.18414e-19)
(0.710644 -1.20188e-16 -5.14327e-17)
(0.713977 -2.16363e-15 -7.35438e-19)
(0.713977 -1.21833e-16 -5.36718e-17)
(0.71729 -2.16301e-15 -7.41754e-19)
(0.71729 -1.22376e-16 -5.68193e-17)
(0.720585 -2.16021e-15 -7.92272e-19)
(0.720585 -1.21004e-16 -5.94481e-17)
(0.723862 -2.15817e-15 -8.3744e-19)
(0.723862 -1.23947e-16 -6.19284e-17)
(0.72712 -2.15506e-15 -9.93645e-19)
(0.72712 -1.23987e-16 -6.46816e-17)
(0.730361 -2.15229e-15 -1.06856e-18)
(0.730361 -1.24935e-16 -6.79389e-17)
(0.733585 -2.14973e-15 -1.13868e-18)
(0.733585 -1.28348e-16 -7.10333e-17)
(0.736792 -2.14441e-15 -1.16271e-18)
(0.736792 -1.33609e-16 -7.39307e-17)
(0.739983 -2.1401e-15 -1.53641e-18)
(0.739983 -1.39192e-16 -7.68192e-17)
(0.743157 -2.1386e-15 -1.77414e-18)
(0.743157 -1.40196e-16 -7.99546e-17)
(0.746316 -2.13357e-15 -1.77134e-18)
(0.746316 -1.44546e-16 -8.29396e-17)
(0.74946 -2.12613e-15 -1.78915e-18)
(0.74946 -1.48284e-16 -8.64344e-17)
(0.752589 -2.11907e-15 -1.87216e-18)
(0.752589 -1.52147e-16 -9.01501e-17)
(0.755703 -2.1121e-15 -2.03762e-18)
(0.755703 -1.63012e-16 -9.43332e-17)
(0.758803 -2.10517e-15 -2.10945e-18)
(0.758803 -1.69673e-16 -9.77756e-17)
(0.761889 -2.1012e-15 -2.26605e-18)
(0.761889 -1.70435e-16 -1.00433e-16)
(0.764962 -2.09157e-15 -2.36628e-18)
(0.764962 -1.75989e-16 -1.03987e-16)
(0.768021 -2.07941e-15 -2.39032e-18)
(0.768021 -1.82467e-16 -1.08534e-16)
(0.771067 -2.06889e-15 -2.65593e-18)
(0.771067 -1.85224e-16 -1.12769e-16)
(0.774101 -2.06212e-15 -2.79137e-18)
(0.774101 -1.90223e-16 -1.1659e-16)
(0.777122 -2.05022e-15 -2.60939e-18)
(0.777122 -1.97356e-16 -1.20515e-16)
(0.780131 -2.04968e-15 -2.43259e-18)
(0.780131 -2.02775e-16 -1.2498e-16)
(0.783128 -2.04254e-15 -2.53594e-18)
(0.783128 -2.08736e-16 -1.2973e-16)
(0.786113 -2.03819e-15 -2.0736e-18)
(0.786113 -2.19558e-16 -1.34663e-16)
(0.789087 -2.0332e-15 -1.70783e-18)
(0.789087 -2.29205e-16 -1.38851e-16)
(0.79205 -2.02447e-15 -2.07066e-18)
(0.79205 -2.39405e-16 -1.43489e-16)
(0.795002 -2.01609e-15 -2.23887e-18)
(0.795002 -2.52403e-16 -1.48715e-16)
(0.797943 -2.01082e-15 -1.98993e-18)
(0.797943 -2.62936e-16 -1.53217e-16)
(0.800874 -2.0039e-15 -1.63247e-18)
(0.800874 -2.73563e-16 -1.57497e-16)
(0.803795 -1.99232e-15 -1.20145e-18)
(0.803795 -2.82734e-16 -1.62232e-16)
(0.806705 -1.98173e-15 -1.55632e-18)
(0.806705 -2.92684e-16 -1.68583e-16)
(0.809606 -1.97319e-15 -1.58917e-18)
(0.809606 -3.06411e-16 -1.73861e-16)
(0.812498 -1.96159e-15 -1.40243e-18)
(0.812498 -3.21385e-16 -1.78653e-16)
(0.81538 -1.95092e-15 -1.26031e-18)
(0.81538 -3.32397e-16 -1.84909e-16)
(0.818252 -1.93696e-15 -7.66597e-19)
(0.818252 -3.48157e-16 -1.90889e-16)
(0.821116 -1.92217e-15 -1.27643e-18)
(0.821116 -3.61781e-16 -1.96293e-16)
(0.823971 -1.9062e-15 -1.97618e-18)
(0.823971 -3.74865e-16 -2.01788e-16)
(0.826817 -1.8879e-15 -2.46507e-18)
(0.826817 -3.95947e-16 -2.06118e-16)
(0.829655 -1.87239e-15 -2.91166e-18)
(0.829655 -4.10063e-16 -2.12093e-16)
(0.832485 -1.86565e-15 -3.44099e-18)
(0.832485 -4.19208e-16 -2.18646e-16)
(0.835306 -1.86258e-15 -2.70989e-18)
(0.835306 -4.25234e-16 -2.24926e-16)
(0.838119 -1.85882e-15 -1.89704e-18)
(0.838119 -4.26319e-16 -2.30913e-16)
(0.840925 -1.8556e-15 -1.44375e-18)
(0.840925 -4.2739e-16 -2.37843e-16)
(0.843723 -1.84945e-15 -1.49714e-18)
(0.843723 -4.2829e-16 -2.45673e-16)
(0.846513 -1.84409e-15 -1.61822e-18)
(0.846513 -4.34671e-16 -2.52843e-16)
(0.849296 -1.83772e-15 -1.48279e-18)
(0.849296 -4.46787e-16 -2.59785e-16)
(0.852071 -1.82902e-15 -1.27228e-18)
(0.852071 -4.57804e-16 -2.66311e-16)
(0.85484 -1.8215e-15 -1.75256e-18)
(0.85484 -4.65449e-16 -2.72706e-16)
(0.857601 -1.81602e-15 -1.35371e-18)
(0.857601 -4.71305e-16 -2.79692e-16)
(0.860356 -1.80989e-15 -1.01621e-18)
(0.860356 -4.76733e-16 -2.88705e-16)
(0.863103 -1.79906e-15 -3.84428e-19)
(0.863103 -4.81695e-16 -2.96797e-16)
(0.865844 -1.78602e-15 -3.5976e-19)
(0.865844 -4.89675e-16 -3.03148e-16)
(0.868579 -1.77432e-15 -1.23578e-18)
(0.868579 -5.0293e-16 -3.09395e-16)
(0.871307 -1.76429e-15 -8.03996e-19)
(0.871307 -5.1781e-16 -3.20185e-16)
(0.874029 -1.75237e-15 -2.73354e-19)
(0.874029 -5.2225e-16 -3.28599e-16)
(0.876744 -1.74156e-15 -5.06313e-19)
(0.876744 -5.3049e-16 -3.3304e-16)
(0.879453 -1.73309e-15 4.1968e-19)
(0.879453 -5.48636e-16 -3.42847e-16)
(0.882156 -1.72254e-15 1.38509e-20)
(0.882156 -5.53488e-16 -3.53551e-16)
(0.884854 -1.70748e-15 -1.57959e-19)
(0.884854 -5.56745e-16 -3.6109e-16)
(0.887545 -1.69121e-15 -1.51701e-18)
(0.887545 -5.64678e-16 -3.68389e-16)
(0.89023 -1.67924e-15 1.1757e-19)
(0.89023 -5.7318e-16 -3.75303e-16)
(0.89291 -1.66651e-15 4.88375e-19)
(0.89291 -5.78516e-16 -3.82477e-16)
(0.895584 -1.65486e-15 -4.23177e-20)
(0.895584 -5.83768e-16 -3.89237e-16)
(0.898252 -1.63797e-15 -1.03821e-18)
(0.898252 -5.97958e-16 -3.83902e-16)
(0.900915 -1.62291e-15 -2.16554e-18)
(0.900915 -6.1116e-16 -3.79529e-16)
(0.903572 -1.62493e-15 -7.99147e-20)
(0.903572 -6.08831e-16 -3.74113e-16)
(0.906224 -1.61682e-15 2.09409e-19)
(0.906224 -6.1335e-16 -3.65022e-16)
(0.90887 -1.60449e-15 -3.27966e-19)
(0.90887 -6.25495e-16 -3.5853e-16)
(0.911512 -1.58987e-15 -5.79552e-19)
(0.911512 -6.29194e-16 -3.52334e-16)
(0.914147 -1.57808e-15 -9.11343e-19)
(0.914147 -6.45061e-16 -3.43073e-16)
(0.916778 -1.56266e-15 -1.28444e-18)
(0.916778 -6.54319e-16 -3.29607e-16)
(0.919403 -1.54408e-15 1.88424e-19)
(0.919403 -6.67069e-16 -3.18152e-16)
(0.922023 -1.53204e-15 5.2866e-19)
(0.922023 -6.78906e-16 -3.07888e-16)
(0.924638 -1.51157e-15 -1.89251e-18)
(0.924638 -6.77545e-16 -3.03407e-16)
(0.927248 -1.50503e-15 1.76986e-19)
(0.927248 -6.87532e-16 -2.94265e-16)
(0.929853 -1.49306e-15 -1.62475e-18)
(0.929853 -7.03259e-16 -2.8236e-16)
(0.932452 -1.4879e-15 -1.49183e-18)
(0.932452 -7.08646e-16 -2.73088e-16)
(0.935047 -1.47837e-15 1.49429e-18)
(0.935047 -7.12783e-16 -2.68354e-16)
(0.937636 -1.4604e-15 1.91811e-18)
(0.937636 -7.26173e-16 -2.58073e-16)
(0.940221 -1.44537e-15 8.33244e-19)
(0.940221 -7.32873e-16 -2.44487e-16)
(0.9428 -1.42923e-15 8.05064e-19)
(0.9428 -7.35651e-16 -2.35105e-16)
(0.945375 -1.41014e-15 7.04224e-19)
(0.945375 -7.49345e-16 -2.28229e-16)
(0.947944 -1.39823e-15 -5.83831e-19)
(0.947944 -7.56726e-16 -2.15342e-16)
(0.950508 -1.38986e-15 -2.90542e-19)
(0.950508 -7.541e-16 -2.00297e-16)
(0.953067 -1.37512e-15 7.08328e-20)
(0.953067 -7.65639e-16 -1.87872e-16)
(0.955621 -1.3546e-15 -4.16546e-20)
(0.955621 -7.75414e-16 -1.76238e-16)
(0.95817 -1.34371e-15 -1.37305e-18)
(0.95817 -7.70406e-16 -1.67539e-16)
(0.960714 -1.33072e-15 1.18329e-19)
(0.960714 -7.7103e-16 -1.54047e-16)
(0.963252 -1.31567e-15 -1.22436e-18)
(0.963252 -7.83645e-16 -1.35457e-16)
(0.965786 -1.3055e-15 -5.81045e-20)
(0.965786 -7.83363e-16 -1.18946e-16)
(0.968314 -1.28809e-15 2.24908e-18)
(0.968314 -7.82942e-16 -1.09776e-16)
(0.970837 -1.27111e-15 -1.51113e-18)
(0.970837 -7.92925e-16 -9.4184e-17)
(0.973354 -1.25531e-15 -4.31405e-18)
(0.973354 -7.86201e-16 -7.69571e-17)
(0.975866 -1.23336e-15 -1.86619e-18)
(0.975866 -7.76145e-16 -6.46919e-17)
(0.978373 -1.22514e-15 7.63671e-19)
(0.978373 -7.76873e-16 -4.66733e-17)
(0.980874 -1.21122e-15 -3.51628e-18)
(0.980874 -7.77786e-16 -3.16652e-17)
(0.983369 -1.20032e-15 -3.15686e-18)
(0.983369 -7.76136e-16 -1.31213e-17)
(0.985859 -1.18717e-15 -6.0593e-19)
(0.985859 -7.72627e-16 8.03961e-18)
(0.988343 -1.17517e-15 -1.93346e-18)
(0.988343 -7.83509e-16 2.66037e-17)
(0.990822 -1.15863e-15 -1.51264e-18)
(0.990822 -7.95728e-16 4.42743e-17)
(0.993294 -1.14204e-15 -1.84316e-18)
(0.993294 -7.90261e-16 6.50985e-17)
(0.995761 -1.12796e-15 -3.37e-18)
(0.995761 -7.88123e-16 5.95018e-17)
(0.998221 -1.11204e-15 -3.65091e-18)
(0.998221 -7.88204e-16 5.3802e-17)
(1.00068 -1.09721e-15 -4.07347e-18)
(1.00068 -7.95827e-16 4.64749e-17)
(1.00312 -1.07506e-15 -1.71901e-18)
(1.00312 -8.01225e-16 3.62533e-17)
(1.00556 -1.03757e-15 3.05263e-18)
(1.00556 -7.85009e-16 2.42491e-17)
(1.008 -1.01447e-15 1.93279e-18)
(1.008 -7.77796e-16 1.6467e-17)
(1.01043 -1.00921e-15 -6.67668e-19)
(1.01043 -7.82032e-16 1.30804e-17)
(1.01285 -9.86723e-16 -6.41723e-19)
(1.01285 -7.68844e-16 8.94157e-18)
(1.01526 -9.69439e-16 -5.95818e-19)
(1.01526 -7.67853e-16 6.63669e-18)
(1.01767 -9.57801e-16 -1.93281e-18)
(1.01767 -7.80868e-16 5.2352e-18)
(1.02007 -9.70486e-16 -6.84564e-18)
(1.02007 -7.84874e-16 1.05842e-17)
(1.02246 -9.57646e-16 -7.96807e-18)
(1.02246 -7.94209e-16 6.11336e-18)
(1.02484 -9.45093e-16 -6.5429e-18)
(1.02484 -8.0734e-16 5.98981e-18)
(1.02722 -9.40447e-16 -1.5111e-18)
(1.02722 -8.04896e-16 3.1829e-18)
(1.02959 -9.2938e-16 -3.8853e-18)
(1.02959 -8.10577e-16 5.46393e-18)
(1.03195 -9.22375e-16 -4.89464e-18)
(1.03195 -8.16564e-16 9.50658e-18)
(1.0343 -9.14865e-16 -7.51196e-18)
(1.0343 -8.07698e-16 1.28461e-17)
(1.03664 -9.11946e-16 -8.41589e-18)
(1.03664 -8.0287e-16 7.98576e-18)
(1.03898 -9.09885e-16 -1.08771e-17)
(1.03898 -8.17654e-16 6.55533e-18)
(1.0413 -8.9608e-16 -5.69059e-18)
(1.0413 -8.21203e-16 3.07849e-18)
(1.04361 -9.14733e-16 2.03613e-18)
(1.04361 -7.97768e-16 -4.4866e-18)
(1.04592 -9.05231e-16 5.16998e-18)
(1.04592 -7.88909e-16 -9.60056e-18)
(1.04821 -8.8489e-16 -3.02003e-18)
(1.04821 -7.93914e-16 -2.10361e-17)
(1.0505 -8.67125e-16 -1.10789e-17)
(1.0505 -7.87318e-16 -1.91022e-17)
(1.05277 -8.46781e-16 1.2693e-17)
(1.05277 -8.17112e-16 -1.79233e-17)
(1.05503 -8.06491e-16 6.32045e-18)
(1.05503 -7.99895e-16 -6.608e-18)
(1.05728 -7.91489e-16 -1.5475e-17)
(1.05728 -7.95666e-16 -1.07664e-18)
(1.05952 -7.8907e-16 -1.59247e-17)
(1.05952 -8.0757e-16 -1.55627e-17)
(1.06174 -7.82356e-16 -1.64769e-17)
(1.06174 -8.15825e-16 -1.94923e-17)
(1.06396 -7.8507e-16 -8.73102e-18)
(1.06396 -8.01174e-16 -1.06522e-17)
(1.06616 -7.88361e-16 1.42233e-18)
(1.06616 -7.69704e-16 -6.45703e-18)
(1.06834 -7.84861e-16 -5.43845e-18)
(1.06834 -7.92236e-16 6.36414e-18)
(1.07051 -7.72436e-16 -2.19175e-17)
(1.07051 -8.0394e-16 -7.58462e-18)
(1.07267 -7.72577e-16 -2.03768e-17)
(1.07267 -8.03119e-16 -9.37018e-19)
(1.07481 -7.83849e-16 -1.43159e-17)
(1.07481 -7.75363e-16 1.55915e-17)
(1.07694 -8.01471e-16 1.48883e-18)
(1.07694 -7.53399e-16 4.20872e-18)
(1.07905 -7.93652e-16 1.47535e-18)
(1.07905 -7.40179e-16 1.28855e-17)
(1.08114 -7.76965e-16 -6.46292e-18)
(1.08114 -7.4304e-16 -1.47312e-17)
(1.08321 -7.71241e-16 -3.27644e-17)
(1.08321 -7.63744e-16 -2.85334e-17)
(1.08527 -7.57526e-16 -3.71435e-17)
(1.08527 -7.78032e-16 -2.95495e-17)
(1.0873 -7.58008e-16 -2.22717e-17)
(1.0873 -7.41413e-16 -1.01776e-17)
(1.08932 -7.511e-16 -1.59086e-17)
(1.08932 -7.53999e-16 1.03312e-17)
(1.09132 -7.55684e-16 -2.31867e-17)
(1.09132 -7.64755e-16 -1.84289e-17)
(1.09329 -7.41613e-16 -9.63668e-18)
(1.09329 -7.80827e-16 -2.56356e-17)
(1.09524 -7.13615e-16 -1.17504e-17)
(1.09524 -7.32088e-16 -2.8998e-17)
(1.09717 -7.19011e-16 -1.9241e-17)
(1.09717 -7.15928e-16 -2.59367e-17)
(1.09907 -6.73751e-16 -1.44677e-18)
(1.09907 -7.13279e-16 -1.46813e-17)
(1.10094 -6.99822e-16 -5.2828e-18)
(1.10094 -6.97225e-16 -7.42934e-18)
(1.10279 -6.35039e-16 1.608e-31)
(1.10279 -6.83244e-16 8.74672e-18)
(1.10461 -6.65985e-16 1.74593e-17)
(1.10461 -6.01427e-16 4.60547e-31)
(1.10641 -6.14765e-16 -1.38945e-17)
(1.10641 -6.8815e-16 1.34628e-17)
(1.10817 -5.89994e-16 -3.09898e-31)
(1.10817 -6.62182e-16 3.45405e-17)
(1.10989 -6.47379e-16 2.85652e-17)
(1.10989 -6.31892e-16 2.29096e-17)
(1.11159 -5.92891e-16 1.66621e-17)
(1.11159 -6.33698e-16 8.41967e-18)
(1.11324 -5.55107e-16 0)
(1.11324 -5.66624e-16 4.0474e-17)
(1.11486 -5.50721e-16 1.04577e-17)
(1.11486 -5.34971e-16 2.60273e-17)
(1.11644 -5.24842e-16 5.81131e-18)
(1.11644 -5.51638e-16 2.06085e-17)
(1.11798 -4.89761e-16 2.24138e-17)
(1.11798 -4.93712e-16 2.40005e-17)
(1.11948 -5.44746e-16 3.64919e-31)
(1.11948 -5.01402e-16 4.29887e-17)
(1.12092 -5.5528e-16 3.49997e-18)
(1.12092 -5.03222e-16 3.3942e-17)
(1.12232 -5.32785e-16 1.29224e-17)
(1.12232 -4.88067e-16 6.89623e-18)
(1.12367 -5.21338e-16 -3.91866e-31)
(1.12367 -4.74655e-16 4.32963e-18)
(1.12496 -5.46583e-16 2.71662e-17)
(1.12496 -4.98541e-16 -3.10534e-17)
(1.1262 -5.17911e-16 1.50433e-17)
(1.1262 -4.99527e-16 -1.13848e-17)
(1.12737 -4.71933e-16 3.44567e-17)
(1.12737 -4.45317e-16 -5.48855e-18)
(1.12848 -4.23335e-16 1.71012e-17)
(1.12848 -4.19912e-16 9.53188e-18)
(1.12953 -3.9292e-16 4.99577e-18)
(1.12953 -4.02945e-16 1.02352e-17)
(1.1305 -4.04668e-16 -2.41044e-17)
(1.1305 -3.8765e-16 1.90309e-17)
(1.13139 -4.06452e-16 -1.66027e-17)
(1.13139 -3.823e-16 -1.67832e-17)
(1.13221 -3.7055e-16 7.32152e-18)
(1.13221 -3.78948e-16 -3.26702e-17)
(1.13294 -3.56409e-16 2.31491e-18)
(1.13294 -3.43737e-16 -1.86689e-17)
(1.13358 -3.01362e-16 1.10112e-17)
(1.13358 -3.67494e-16 -3.88445e-17)
(1.13413 -3.39256e-16 -5.05772e-31)
(1.13413 -3.58814e-16 -2.05294e-17)
(1.13458 -3.41376e-16 8.684e-18)
(1.13458 -3.27318e-16 -1.73273e-17)
(1.13492 -3.19175e-16 -5.09392e-18)
(1.13492 -3.13146e-16 -9.18439e-18)
(1.13515 -2.87707e-16 -5.38799e-31)
(1.13515 -3.08724e-16 -2.23093e-17)
(1.13527 -2.85351e-16 1.11282e-17)
(1.13527 -2.37895e-16 -1.07495e-18)
(0.00167312 1.7852e-19 1.20862e-18)
(0.00167312 4.80228e-20 2.83372e-18)
(0.00504315 -1.32948e-19 3.59417e-18)
(0.00504315 -2.46493e-20 5.02577e-18)
(0.00846167 7.96224e-21 3.97029e-18)
(0.00846167 4.09022e-20 5.17575e-18)
(0.0119294 2.03003e-20 4.05385e-18)
(0.0119294 6.33098e-20 5.33178e-18)
(0.0154471 3.10156e-20 4.26874e-18)
(0.0154471 8.91101e-20 5.49421e-18)
(0.0190155 4.80092e-20 4.57214e-18)
(0.0190155 1.12267e-19 5.66342e-18)
(0.0226354 6.33935e-20 4.90537e-18)
(0.0226354 1.37045e-19 5.83978e-18)
(0.0263075 7.72055e-20 5.25781e-18)
(0.0263075 1.72549e-19 6.0236e-18)
(0.0300327 1.00425e-19 5.62924e-18)
(0.0300327 1.81205e-19 6.21527e-18)
(0.0338117 1.2591e-19 6.01799e-18)
(0.0338117 2.0042e-19 6.41516e-18)
(0.0376453 1.45851e-19 6.42191e-18)
(0.0376453 2.43843e-19 6.62361e-18)
(0.0415344 1.81056e-19 6.83997e-18)
(0.0415344 2.71722e-19 6.84088e-18)
(0.0454798 2.1746e-19 7.27167e-18)
(0.0454798 3.03684e-19 7.0674e-18)
(0.0494823 2.50969e-19 7.71709e-18)
(0.0494823 3.22856e-19 7.30363e-18)
(0.0535427 2.86786e-19 8.17625e-18)
(0.0535427 3.63483e-19 7.55002e-18)
(0.057662 3.35238e-19 8.64947e-18)
(0.057662 4.43331e-19 7.8069e-18)
(0.0618411 3.92277e-19 9.13702e-18)
(0.0618411 5.50961e-19 8.07465e-18)
(0.0660806 3.94747e-19 9.63925e-18)
(0.0660806 6.57893e-19 8.35369e-18)
(0.0703817 4.00987e-19 1.01564e-17)
(0.0703817 7.52375e-19 8.64443e-18)
(0.0747451 4.72132e-19 1.06891e-17)
(0.0747451 8.14705e-19 8.94751e-18)
(0.0791717 5.71698e-19 1.12373e-17)
(0.0791717 8.45339e-19 9.26347e-18)
(0.0836625 6.59888e-19 1.18013e-17)
(0.0836625 8.98501e-19 9.59277e-18)
(0.0882184 7.72408e-19 1.23817e-17)
(0.0882184 9.66628e-19 9.93581e-18)
(0.0928402 8.78899e-19 1.2979e-17)
(0.0928402 1.00434e-18 1.02928e-17)
(0.0975288 9.70014e-19 1.35934e-17)
(0.0975288 1.07637e-18 1.06644e-17)
(0.102285 9.84857e-19 1.42256e-17)
(0.102285 1.23305e-18 1.10509e-17)
(0.10711 9.62799e-19 1.48756e-17)
(0.10711 1.31584e-18 1.14528e-17)
(0.112004 9.57891e-19 1.55439e-17)
(0.112004 1.3922e-18 1.18711e-17)
(0.116969 1.01924e-18 1.62307e-17)
(0.116969 1.4589e-18 1.23063e-17)
(0.122005 1.11493e-18 1.69357e-17)
(0.122005 1.43045e-18 1.27592e-17)
(0.127112 1.1854e-18 1.7659e-17)
(0.127112 1.45744e-18 1.32301e-17)
(0.132292 1.2779e-18 1.84003e-17)
(0.132292 1.60573e-18 1.37199e-17)
(0.137545 1.32798e-18 1.91604e-17)
(0.137545 1.69008e-18 1.42291e-17)
(0.142872 1.51347e-18 1.99391e-17)
(0.142872 1.65201e-18 1.4759e-17)
(0.148273 1.72911e-18 2.07358e-17)
(0.148273 1.80788e-18 1.53092e-17)
(0.153749 1.88142e-18 2.1551e-17)
(0.153749 1.98602e-18 1.58802e-17)
(0.159299 2.12264e-18 2.23844e-17)
(0.159299 2.0851e-18 1.64716e-17)
(0.164925 2.28167e-18 2.32357e-17)
(0.164925 2.18566e-18 1.70841e-17)
(0.170626 2.36109e-18 2.41053e-17)
(0.170626 2.28935e-18 1.77167e-17)
(0.176402 2.48347e-18 2.49924e-17)
(0.176402 2.50955e-18 1.83702e-17)
(0.182252 2.66358e-18 2.58963e-17)
(0.182252 2.7716e-18 1.90439e-17)
(0.188176 3.00171e-18 2.68155e-17)
(0.188176 2.78342e-18 1.97385e-17)
(0.194174 3.2175e-18 2.77482e-17)
(0.194174 2.73258e-18 2.0454e-17)
(0.200244 3.38299e-18 2.86943e-17)
(0.200244 2.8968e-18 2.11896e-17)
(0.206385 3.6137e-18 2.96526e-17)
(0.206385 2.93357e-18 2.19447e-17)
(0.212595 3.86042e-18 3.06216e-17)
(0.212595 3.08949e-18 2.2718e-17)
(0.218873 4.07591e-18 3.15995e-17)
(0.218873 3.31304e-18 2.35098e-17)
(0.225216 4.2577e-18 3.25846e-17)
(0.225216 3.52184e-18 2.43186e-17)
(0.231622 4.48735e-18 3.35726e-17)
(0.231622 3.84409e-18 2.51428e-17)
(0.238089 4.63376e-18 3.45615e-17)
(0.238089 4.27453e-18 2.59821e-17)
(0.244611 4.78691e-18 3.55491e-17)
(0.244611 4.56085e-18 2.68345e-17)
(0.251187 4.86415e-18 3.56207e-17)
(0.251187 4.68959e-18 2.76985e-17)
(0.257812 5.06048e-18 3.47019e-17)
(0.257812 4.70606e-18 2.85723e-17)
(0.264482 5.22941e-18 3.37228e-17)
(0.264482 4.93984e-18 2.94536e-17)
(0.271192 5.39302e-18 3.26609e-17)
(0.271192 5.57197e-18 3.03393e-17)
(0.277938 5.8842e-18 3.15182e-17)
(0.277938 5.9625e-18 3.12294e-17)
(0.284714 6.27288e-18 3.03007e-17)
(0.284714 6.04835e-18 3.21224e-17)
(0.291515 6.54609e-18 3.15754e-17)
(0.291515 6.27653e-18 3.30178e-17)
(0.298336 6.92866e-18 3.28594e-17)
(0.298336 6.44063e-18 3.39154e-17)
(0.30517 7.33017e-18 3.41339e-17)
(0.30517 6.69097e-18 3.48104e-17)
(0.312013 7.61565e-18 3.54058e-17)
(0.312013 7.11293e-18 3.57008e-17)
(0.318857 7.96499e-18 3.66494e-17)
(0.318857 7.75331e-18 3.6584e-17)
(0.325698 8.53688e-18 3.78998e-17)
(0.325698 8.0754e-18 3.74592e-17)
(0.33253 8.85169e-18 3.91333e-17)
(0.33253 8.20194e-18 3.83254e-17)
(0.339347 8.79045e-18 4.03779e-17)
(0.339347 8.67645e-18 3.91815e-17)
(0.346144 8.8744e-18 4.15699e-17)
(0.346144 8.7821e-18 4.00284e-17)
(0.352915 9.32599e-18 4.27596e-17)
(0.352915 9.38434e-18 4.08627e-17)
(0.359656 9.68843e-18 4.39348e-17)
(0.359656 9.98038e-18 4.16871e-17)
(0.366361 9.9567e-18 4.50918e-17)
(0.366361 1.02271e-17 4.25029e-17)
(0.373027 1.03026e-17 4.62235e-17)
(0.373027 1.09537e-17 4.33076e-17)
(0.379649 1.06184e-17 4.73563e-17)
(0.379649 1.15424e-17 4.40996e-17)
(0.386223 1.0979e-17 4.84655e-17)
(0.386223 1.17681e-17 4.48791e-17)
(0.392747 1.12792e-17 4.95599e-17)
(0.392747 1.19577e-17 4.56453e-17)
(0.399216 1.16313e-17 5.06254e-17)
(0.399216 1.2806e-17 4.6402e-17)
(0.405629 1.21892e-17 5.16818e-17)
(0.405629 1.36593e-17 4.71449e-17)
(0.411982 1.27993e-17 5.27341e-17)
(0.411982 1.387e-17 4.78793e-17)
(0.418274 1.28849e-17 5.3541e-17)
(0.418274 1.49611e-17 4.86104e-17)
(0.424503 1.27476e-17 5.38657e-17)
(0.424503 1.60452e-17 4.93398e-17)
(0.430668 1.31576e-17 5.41693e-17)
(0.430668 1.65832e-17 5.00656e-17)
(0.436767 1.37252e-17 5.44515e-17)
(0.436767 1.74388e-17 5.07951e-17)
(0.442799 1.4342e-17 5.47137e-17)
(0.442799 1.8092e-17 5.15307e-17)
(0.448764 1.4695e-17 5.49549e-17)
(0.448764 1.84639e-17 5.22699e-17)
(0.454661 1.49574e-17 5.51825e-17)
(0.454661 1.92422e-17 5.30152e-17)
(0.460491 1.55361e-17 5.53984e-17)
(0.460491 1.99781e-17 5.37709e-17)
(0.466252 1.59722e-17 5.56034e-17)
(0.466252 2.00746e-17 5.45397e-17)
(0.471946 1.63354e-17 5.57987e-17)