/*--------------------------------*- C++ -*----------------------------------*\
| =========                 |                                                 |
| \\      /  F ield         | OpenFOAM: The Open Source CFD Toolbox           |
|  \\    /   O peration     | Version:  2012                                  |
|   \\  /    A nd           | Website:  www.openfoam.com                      |
|    \\/     M anipulation  |                                                 |
\*---------------------------------------------------------------------------*/
FoamFile
{
    version     2.0;
    format      ascii;
    class       volScalarField;
    location    "2000";
    object      p;
}
// * * * * * * * * * * * * * * * * * * * * * * * * * * * * * * * * * * * * * //

dimensions      [0 2 -2 0 0 0 0];


internalField   nonuniform List<scalar> 
1280
(
6.14899e-16
3.27333e-15
1.32954e-15
3.27367e-15
1.35147e-15
3.2739e-15
1.19172e-15
3.27432e-15
1.09446e-15
3.2749e-15
1.03134e-15
3.27565e-15
9.73655e-16
3.27658e-15
9.17587e-16
3.27765e-15
8.63694e-16
3.27884e-15
8.11794e-16
3.2801e-15
7.61382e-16
3.28144e-15
7.12108e-16
3.28283e-15
6.6383e-16
3.28422e-15
6.16636e-16
3.28558e-15
5.70399e-16
3.28692e-15
5.25045e-16
3.28815e-15
4.80796e-16
3.28911e-15
4.37323e-16
3.28974e-15
3.94589e-16
3.29025e-15
3.52652e-16
3.2906e-15
3.11143e-16
3.29079e-15
2.69967e-16
3.2907e-15
2.29242e-16
3.29021e-15
1.88623e-16
3.28936e-15
1.48267e-16
3.288e-15
1.07602e-16
3.28629e-15
6.66246e-17
3.28396e-15
2.51109e-17
3.28105e-15
-1.67977e-17
3.2775e-15
-5.90511e-17
3.27335e-15
-1.0231e-16
3.26862e-15
-1.46374e-16
3.26337e-15
-1.90875e-16
3.25685e-15
-2.36327e-16
3.24961e-15
-2.82309e-16
3.24113e-15
-3.29198e-16
3.23142e-15
-3.76224e-16
3.22081e-15
-4.23746e-16
3.20904e-15
-4.72146e-16
3.19585e-15
-5.20568e-16
3.17969e-15
-5.70045e-16
3.16248e-15
-6.19683e-16
3.14464e-15
-6.69553e-16
3.12594e-15
-7.19391e-16
3.1044e-15
-7.69642e-16
3.08112e-15
-8.21909e-16
3.0577e-15
-8.73367e-16
3.03358e-15
-9.25662e-16
3.00854e-15
-9.7819e-16
2.98041e-15
-1.0287e-15
2.95092e-15
-1.07977e-15
2.91944e-15
-1.1308e-15
2.88703e-15
-1.17773e-15
2.8522e-15
-1.22152e-15
2.81519e-15
-1.26324e-15
2.77891e-15
-1.30401e-15
2.73828e-15
-1.34412e-15
2.69536e-15
-1.38297e-15
2.6523e-15
-1.41615e-15
2.60569e-15
-1.44678e-15
2.55776e-15
-1.47712e-15
2.51079e-15
-1.5086e-15
2.45935e-15
-1.53574e-15
2.40377e-15
-1.56093e-15
2.34841e-15
-1.5826e-15
2.29069e-15
-1.60327e-15
2.23103e-15
-1.62137e-15
2.16781e-15
-1.63953e-15
2.10142e-15
-1.65834e-15
2.03444e-15
-1.67631e-15
1.96735e-15
-1.68977e-15
1.89638e-15
-1.69932e-15
1.82417e-15
-1.70775e-15
1.75119e-15
-1.71792e-15
1.68015e-15
-1.72618e-15
1.60723e-15
-1.73103e-15
1.53072e-15
-1.71977e-15
1.45334e-15
-1.71081e-15
1.37326e-15
-1.70034e-15
1.29765e-15
-1.69128e-15
1.22016e-15
-1.67978e-15
1.13893e-15
-1.66876e-15
1.06113e-15
-1.66117e-15
9.91781e-16
-1.63479e-15
9.17564e-16
-1.60854e-15
8.38736e-16
-1.58757e-15
7.55484e-16
-1.56781e-15
6.86525e-16
-1.54518e-15
6.18206e-16
-1.51559e-15
5.46035e-16
-1.48411e-15
4.74713e-16
-1.4651e-15
4.08917e-16
-1.44972e-15
3.58189e-16
-1.42467e-15
3.04131e-16
-1.41877e-15
2.28091e-16
-1.39495e-15
1.48852e-16
-1.3674e-15
8.95017e-17
-1.35519e-15
3.08409e-17
-1.34939e-15
-2.73232e-17
-1.3318e-15
-8.50885e-17
-1.32162e-15
-1.37928e-16
-1.29574e-15
-2.04932e-16
-1.28698e-15
-2.63664e-16
-1.26727e-15
-3.19647e-16
-1.24594e-15
-3.73891e-16
-1.23209e-15
-4.37099e-16
-1.20646e-15
-5.01264e-16
-1.19625e-15
-5.40063e-16
-1.19195e-15
-5.82657e-16
-1.18415e-15
-6.39711e-16
-1.16266e-15
-6.94305e-16
-1.1355e-15
-7.39654e-16
-1.10086e-15
-8.16209e-16
-1.08294e-15
-8.72199e-16
-1.08872e-15
-9.01844e-16
-1.07998e-15
-9.34856e-16
-1.07389e-15
-9.73497e-16
-1.07762e-15
-9.92322e-16
-1.07244e-15
-1.01104e-15
-1.06678e-15
-1.0214e-15
-1.08795e-15
-1.03385e-15
-1.07176e-15
-1.04784e-15
-1.0821e-15
-1.06541e-15
-1.11935e-15
-1.08641e-15
-1.12042e-15
-1.08153e-15
-1.16097e-15
-1.0692e-15
-1.11613e-15
-1.06383e-15
-1.11283e-15
-1.04956e-15
-1.07797e-15
-1.02396e-15
-1.04665e-15
-1.00705e-15
-1.03537e-15
-1.00106e-15
-1.00572e-15
-9.88096e-16
-9.94733e-16
-9.70282e-16
-9.66856e-16
-9.47683e-16
-9.40075e-16
-9.21756e-16
-8.97558e-16
-9.29857e-16
-8.86342e-16
-9.06229e-16
-8.88045e-16
-8.51838e-16
-8.48958e-16
-8.17127e-16
-8.22316e-16
-7.84475e-16
-8.26119e-16
-8.08541e-16
-8.21693e-16
-7.62624e-16
-7.78313e-16
-7.4518e-16
-7.64616e-16
-7.25055e-16
-7.65561e-16
-7.15991e-16
-7.52726e-16
-7.49104e-16
-7.90024e-16
-7.60583e-16
-8.1312e-16
-8.06025e-16
-8.50494e-16
-8.53168e-16
-8.95059e-16
-9.10014e-16
-9.01439e-16
-9.36997e-16
-9.72384e-16
-9.76087e-16
-1.01069e-15
-9.77616e-16
-1.0621e-15
-1.0341e-15
-1.08832e-15
-1.07516e-15
-1.1283e-15
-1.11082e-15
-1.17867e-15
-1.17942e-15
-1.22423e-15
-1.21336e-15
-1.26156e-15
-1.2452e-15
-1.32022e-15
-1.25999e-15
-1.34743e-15
-1.34727e-15
1.61731e-16
1.81735e-16
1.6201e-16
1.81849e-16
1.62256e-16
1.81972e-16
1.62631e-16
1.82136e-16
1.63142e-16
1.82335e-16
1.6376e-16
1.82578e-16
1.6454e-16
1.82921e-16
1.65394e-16
1.83388e-16
1.6647e-16
1.83861e-16
1.67661e-16
1.84329e-16
1.6896e-16
1.85011e-16
1.70396e-16
1.85776e-16
1.71961e-16
1.86637e-16
1.73616e-16
1.87673e-16
1.75356e-16
1.88824e-16
1.77241e-16
1.89971e-16
1.79052e-16
1.91221e-16
1.80976e-16
1.92731e-16
1.83014e-16
1.94353e-16
1.85228e-16
1.96126e-16
1.87448e-16
1.98256e-16
1.89742e-16
2.00323e-16
1.9201e-16
2.0254e-16
1.9449e-16
2.05061e-16
1.97198e-16
2.07876e-16
1.99814e-16
2.10866e-16
2.02351e-16
2.13796e-16
2.05524e-16
2.16889e-16
2.08778e-16
2.20614e-16
2.12134e-16
2.24262e-16
2.1549e-16
2.28068e-16
2.18987e-16
2.319e-16
2.22778e-16
2.36136e-16
2.27294e-16
2.40918e-16
2.31765e-16
2.4626e-16
2.362e-16
2.51608e-16
2.40903e-16
2.57232e-16
2.45601e-16
2.63728e-16
2.50927e-16
2.69885e-16
2.5725e-16
2.76291e-16
2.62681e-16
2.83259e-16
2.67525e-16
2.91126e-16
2.73146e-16
2.99221e-16
2.78901e-16
3.06814e-16
2.84458e-16
3.14208e-16
2.89835e-16
3.23216e-16
2.95435e-16
3.32738e-16
3.00913e-16
3.41209e-16
3.05509e-16
3.49334e-16
3.10849e-16
3.57874e-16
3.17011e-16
3.6846e-16
3.20707e-16
3.78607e-16
3.26191e-16
3.86544e-16
3.2922e-16
3.93898e-16
3.29771e-16
4.0239e-16
3.32343e-16
4.09314e-16
3.34321e-16
4.1642e-16
3.35766e-16
4.21818e-16
3.36748e-16
4.28257e-16
3.36382e-16
4.34779e-16
3.33746e-16
4.40393e-16
3.35754e-16
4.46036e-16
3.35667e-16
4.49693e-16
3.33547e-16
4.52305e-16
3.29466e-16
4.54848e-16
3.25549e-16
4.53204e-16
3.21932e-16
4.51423e-16
3.20854e-16
4.51589e-16
3.16176e-16
4.47395e-16
3.07998e-16
4.43026e-16
3.00721e-16
4.40641e-16
2.94516e-16
4.35975e-16
2.85213e-16
4.26841e-16
2.75149e-16
4.132e-16
2.66741e-16
4.01623e-16
2.53569e-16
3.94377e-16
2.3799e-16
3.82657e-16
2.24623e-16
3.70997e-16
2.11408e-16
3.64008e-16
1.93963e-16
3.52798e-16
1.724e-16
3.37481e-16
1.51393e-16
3.25062e-16
1.33361e-16
3.13482e-16
1.16178e-16
2.91417e-16
1.04652e-16
2.63533e-16
9.44844e-17
2.39093e-16
7.20638e-17
2.22848e-16
5.608e-17
2.10438e-16
4.20313e-17
1.88147e-16
2.08001e-17
1.60773e-16
-2.78177e-18
1.37843e-16
-1.91814e-17
1.19636e-16
-2.81367e-17
9.22488e-17
-4.33008e-17
6.03166e-17
-6.41305e-17
3.33527e-17
-8.56654e-17
2.1134e-17
-1.07941e-16
1.0092e-17
-1.21484e-16
-8.54421e-18
-1.40031e-16
-4.85823e-17
-1.58244e-16
-7.23164e-17
-1.70989e-16
-8.41528e-17
-1.87556e-16
-9.278e-17
-2.03072e-16
-1.11433e-16
-2.26721e-16
-1.25292e-16
-2.39778e-16
-1.52207e-16
-2.60509e-16
-1.82247e-16
-2.88641e-16
-2.05352e-16
-3.14775e-16
-2.11266e-16
-3.39384e-16
-2.3605e-16
-3.52926e-16
-2.59688e-16
-3.73889e-16
-2.81346e-16
-4.02483e-16
-3.28192e-16
-4.19729e-16
-3.61892e-16
-4.62681e-16
-3.81901e-16
-4.9486e-16
-4.14366e-16
-5.35437e-16
-4.48918e-16
-5.47691e-16
-4.84132e-16
-5.67644e-16
-5.30031e-16
-5.93845e-16
-5.59679e-16
-6.16916e-16
-5.91709e-16
-6.26197e-16
-6.26367e-16
-6.38765e-16
-6.83938e-16
-6.69232e-16
-7.21402e-16
-6.96846e-16
-7.29933e-16
-7.22991e-16
-7.2667e-16
-7.29641e-16
-7.46271e-16
-7.3559e-16
-7.71458e-16
-7.57023e-16
-7.48948e-16
-7.62586e-16
-7.30046e-16
-7.7486e-16
-7.29842e-16
-7.39544e-16
-7.27312e-16
-7.26867e-16
-7.07093e-16
-7.18021e-16
-6.8581e-16
-6.77457e-16
-6.79517e-16
-6.73835e-16
-6.74538e-16
-6.90441e-16
-6.30779e-16
-7.76524e-16
-5.54238e-16
-7.78112e-16
-5.26284e-16
-7.81944e-16
-5.19429e-16
-7.57358e-16
-5.29923e-16
-7.73067e-16
-5.59267e-16
-7.54228e-16
-5.37944e-16
-7.25732e-16
-5.56585e-16
-6.76714e-16
-5.89169e-16
-6.77491e-16
-6.20601e-16
-6.83651e-16
-7.34227e-16
-7.36614e-16
-7.81716e-16
-8.02417e-16
-8.00812e-16
-8.60932e-16
-8.88607e-16
-9.03841e-16
-9.43556e-16
-9.32486e-16
-9.75545e-16
-1.01474e-15
-1.02452e-15
-1.05462e-15
-1.04822e-15
-1.05637e-15
-1.07227e-15
-1.12215e-15
-1.10319e-15
-1.19607e-15
-1.16248e-15
-1.13345e-15
-1.19976e-15
-1.0879e-15
-1.27059e-15
-1.28449e-15
-1.297e-15
-1.30119e-15
-1.34327e-15
-1.34934e-15
-1.47724e-15
-1.50848e-15
-1.54828e-15
-1.61526e-15
-1.60285e-15
-1.63132e-15
-1.6061e-15
-1.83929e-15
-1.67403e-15
-1.85819e-15
-1.77492e-15
-1.87347e-15
-1.83763e-15
-1.87489e-15
-1.8854e-15
-1.95218e-15
-1.93631e-15
-1.99456e-15
-2.01331e-15
-2.06353e-15
-2.05115e-15
-2.11361e-15
-2.08734e-15
-2.15001e-15
-2.12301e-15
-2.14186e-15
-2.1252e-15
-2.15064e-15
-2.12464e-15
-2.17379e-15
-2.15639e-15
-2.2459e-15
-2.22093e-15
-2.22186e-15
-2.24579e-15
-2.25466e-15
-2.19124e-15
-2.23292e-15
-2.22308e-15
-2.2351e-15
-2.2373e-15
-2.20145e-15
-2.2361e-15
-2.21769e-15
-2.20713e-15
-2.25436e-15
-2.21568e-15
-2.27948e-15
-2.23668e-15
-2.27416e-15
-2.25297e-15
-2.27339e-15
-2.26939e-15
-2.29537e-15
-2.27017e-15
-2.28598e-15
-2.27092e-15
-2.3165e-15
-2.27089e-15
-2.37168e-15
-2.30226e-15
-2.37994e-15
-2.32539e-15
-2.41266e-15
-2.35934e-15
-2.41159e-15
-2.36696e-15
-2.42863e-15
-2.38676e-15
-2.44699e-15
-2.42082e-15
-2.46689e-15
-2.41515e-15
-2.47227e-15
-2.42244e-15
-2.48225e-15
-2.4429e-15
-2.49605e-15
-2.47841e-15
-2.53049e-15
-2.4934e-15
-2.54033e-15
-2.4959e-15
-2.54495e-15
-2.49498e-15
-2.56243e-15
-2.50912e-15
-2.57382e-15
-2.52916e-15
-2.55984e-15
-2.54649e-15
-2.56561e-15
-2.544e-15
-2.5819e-15
-2.5494e-15
-2.59036e-15
-2.57189e-15
-2.59965e-15
-2.61228e-15
-2.60882e-15
-2.62496e-15
-2.61768e-15
-2.62878e-15
-2.63587e-15
-2.62341e-15
-2.64527e-15
-2.6267e-15
-2.66495e-15
-2.63837e-15
-2.66721e-15
-2.65821e-15
-2.67024e-15
-2.66807e-15
-2.66424e-15
-2.67761e-15
-2.65808e-15
-2.66833e-15
-2.65187e-15
-2.67312e-15
-2.67346e-15
-2.67801e-15
-2.6855e-15
-2.67802e-15
-2.68829e-15
-2.67773e-15
-2.69136e-15
-2.67711e-15
-2.69472e-15
-2.6808e-15
-2.69831e-15
-2.68893e-15
-2.70672e-15
-2.70164e-15
-2.7105e-15
-2.71438e-15
-2.71427e-15
-2.71323e-15
-2.72282e-15
-2.71229e-15
-2.73162e-15
-2.72077e-15
-2.74066e-15
-2.71994e-15
-2.74541e-15
-2.71908e-15
-2.75526e-15
-2.71812e-15
-2.76103e-15
-2.72159e-15
-2.76739e-15
-2.7248e-15
-2.77433e-15
-2.71848e-15
-2.77731e-15
-2.71178e-15
-2.781e-15
-2.71839e-15
-2.78306e-15
-2.72455e-15
-2.78572e-15
-2.72805e-15
-2.78893e-15
-2.72892e-15
-2.79495e-15
-2.73395e-15
-2.79922e-15
-2.73863e-15
-2.80178e-15
-2.74745e-15
-2.80481e-15
-2.75374e-15
-2.81047e-15
-2.75538e-15
-2.80996e-15
-2.75682e-15
-2.80548e-15
-2.76024e-15
-2.81004e-15
-2.76566e-15
-2.81059e-15
-2.76876e-15
-2.81356e-15
-2.76746e-15
-2.81679e-15
-2.76606e-15
-2.82029e-15
-2.76663e-15
-2.82198e-15
-2.76708e-15
-2.82393e-15
-2.76533e-15
-2.82613e-15
-2.76957e-15
-2.82857e-15
-2.77161e-15
-2.83024e-15
-2.77253e-15
-2.83113e-15
-2.77135e-15
-2.8332e-15
-2.76813e-15
-2.83547e-15
-2.76578e-15
-2.83604e-15
-2.76428e-15
-2.83681e-15
-2.76362e-15
-2.83777e-15
-2.7656e-15
-2.8371e-15
-2.76925e-15
-2.83571e-15
-2.77186e-15
-2.83625e-15
-2.7726e-15
-2.83607e-15
-2.77412e-15
-2.83349e-15
-2.77556e-15
-2.83356e-15
-2.77691e-15
-2.83375e-15
-2.77738e-15
-2.83323e-15
-2.77781e-15
-2.83282e-15
-2.77819e-15
-2.83251e-15
-2.77853e-15
-2.83377e-15
-2.77772e-15
-2.83436e-15
-2.77944e-15
-2.8336e-15
-2.78038e-15
-2.83258e-15
-2.78025e-15
-2.83266e-15
-2.78077e-15
-2.83313e-15
-2.78159e-15
-2.83268e-15
-2.78206e-15
-2.83261e-15
-2.78249e-15
-2.83259e-15
-2.78231e-15
-2.83262e-15
-2.7827e-15
-2.83269e-15
-2.78335e-15
-2.8328e-15
-2.78425e-15
-2.83294e-15
-2.78432e-15
-2.83312e-15
-2.78437e-15
-2.8332e-15
-2.78492e-15
-2.83331e-15
-2.78521e-15
-2.83333e-15
-2.78512e-15
-2.83349e-15
-2.78538e-15
-2.83356e-15
-2.78575e-15
-2.83366e-15
-2.78565e-15
-2.8339e-15
-2.78543e-15
-2.83393e-15
-2.78555e-15
-2.83387e-15
-2.78555e-15
-2.83383e-15
-2.78554e-15
-2.83393e-15
-2.78537e-15
-2.83387e-15
-2.78518e-15
-2.83389e-15
-2.78511e-15
-2.8341e-15
-2.78497e-15
-2.83422e-15
-2.78477e-15
-2.83441e-15
-2.78462e-15
-2.83443e-15
-2.78459e-15
-2.83447e-15
-2.78455e-15
-2.83455e-15
-2.78448e-15
-2.83465e-15
-2.78434e-15
-2.8347e-15
-2.78429e-15
-2.83468e-15
-2.78428e-15
-2.83469e-15
-2.78424e-15
-2.83471e-15
-2.78419e-15
-2.83469e-15
-2.78418e-15
-2.83471e-15
-2.78418e-15
-2.83471e-15
-2.78418e-15
-2.8347e-15
-2.78417e-15
-2.83471e-15
-2.78416e-15
-2.83471e-15
-2.78415e-15
-2.83471e-15
-2.78416e-15
-1.35649e-15
-1.41646e-15
-1.33351e-15
-1.54945e-15
-1.40299e-15
-1.61507e-15
-1.56407e-15
-1.60911e-15
-1.68046e-15
-1.66893e-15
-1.72102e-15
-1.76075e-15
-1.66809e-15
-1.82899e-15
-1.6887e-15
-1.89168e-15
-1.77474e-15
-1.96686e-15
-1.82166e-15
-2.05007e-15
-1.97909e-15
-2.03477e-15
-2.02164e-15
-2.03717e-15
-2.00355e-15
-2.0362e-15
-2.06693e-15
-2.10936e-15
-2.10517e-15
-2.11564e-15
-2.13352e-15
-2.16231e-15
-2.14816e-15
-2.17917e-15
-2.18022e-15
-2.16018e-15
-2.19283e-15
-2.14484e-15
-2.20941e-15
-2.1894e-15
-2.20869e-15
-2.20663e-15
-2.20563e-15
-2.20114e-15
-2.2229e-15
-2.19134e-15
-2.24648e-15
-2.21219e-15
-2.27535e-15
-2.20774e-15
-2.25825e-15
-2.20864e-15
-2.2288e-15
-2.21721e-15
-2.2544e-15
-2.22022e-15
-2.28189e-15
-2.2527e-15
-2.3129e-15
-2.28011e-15
-2.34774e-15
-2.30401e-15
-2.38626e-15
-2.36048e-15
-2.44673e-15
-2.39722e-15
-2.51411e-15
-2.41199e-15
-2.48391e-15
-2.40015e-15
-2.46405e-15
-2.41869e-15
-2.46768e-15
-2.45195e-15
-2.45387e-15
-2.46665e-15
-2.45711e-15
-2.46531e-15
-2.4776e-15
-2.49356e-15
-2.49634e-15
-2.51407e-15
-2.49402e-15
-2.51763e-15
-2.52638e-15
-2.52334e-15
-2.54899e-15
-2.5297e-15
-2.5535e-15
-2.54497e-15
-2.54852e-15
-2.56021e-15
-2.5615e-15
-2.56697e-15
-2.57415e-15
-2.56509e-15
-2.58702e-15
-2.58201e-15
-2.58118e-15
-2.60837e-15
-2.59279e-15
-2.6263e-15
-2.60288e-15
-2.63605e-15
-2.621e-15
-2.64709e-15
-2.62859e-15
-2.65937e-15
-2.61607e-15
-2.67311e-15
-2.62953e-15
-2.67958e-15
-2.6411e-15
-2.68772e-15
-2.65108e-15
-2.69732e-15
-2.64085e-15
-2.69884e-15
-2.66219e-15
-2.70679e-15
-2.67321e-15
-2.70188e-15
-2.6789e-15
-2.69309e-15
-2.67952e-15
-2.69418e-15
-2.68452e-15
-2.69568e-15
-2.69398e-15
-2.6881e-15
-2.70352e-15
-2.6852e-15
-2.70395e-15
-2.68672e-15
-2.70461e-15
-2.68787e-15
-2.70074e-15
-2.6792e-15
-2.70178e-15
-2.68415e-15
-2.70758e-15
-2.68869e-15
-2.70877e-15
-2.68347e-15
-2.71006e-15
-2.68713e-15
-2.70674e-15
-2.69038e-15
-2.708e-15
-2.69798e-15
-2.71374e-15
-2.70073e-15
-2.71934e-15
-2.70788e-15
-2.72019e-15
-2.71026e-15
-2.72089e-15
-2.70795e-15
-2.72146e-15
-2.71468e-15
-2.72414e-15
-2.71903e-15
-2.72665e-15
-2.72329e-15
-2.72897e-15
-2.72749e-15
-2.72211e-15
-2.7339e-15
-2.71949e-15
-2.73585e-15
-2.72103e-15
-2.73118e-15
-2.72673e-15
-2.73316e-15
-2.72998e-15
-2.7373e-15
-2.72646e-15
-2.73923e-15
-2.73141e-15
-2.74331e-15
-2.73183e-15
-2.74737e-15
-2.73419e-15
-2.74715e-15
-2.73423e-15
-2.74271e-15
-2.73411e-15
-2.74249e-15
-2.73383e-15
-2.7485e-15
-2.73545e-15
-2.75445e-15
-2.73687e-15
-2.75632e-15
-2.73812e-15
-2.75618e-15
-2.74119e-15
-2.75807e-15
-2.74212e-15
-2.76093e-15
-2.74194e-15
-2.76282e-15
-2.74066e-15
-2.76089e-15
-2.74588e-15
-2.75618e-15
-2.74628e-15
-2.75621e-15
-2.74657e-15
-2.75533e-15
-2.74768e-15
-2.75357e-15
-2.74958e-15
-2.75094e-15
-2.74964e-15
-2.74922e-15
-2.74707e-15
-2.74666e-15
-2.74954e-15
-2.74496e-15
-2.75192e-15
-2.74163e-15
-2.75341e-15
-2.73913e-15
-2.75405e-15
-2.73745e-15
-2.75387e-15
-2.73577e-15
-2.75368e-15
-2.73409e-15
-2.75384e-15
-2.73129e-15
-2.75362e-15
-2.72997e-15
-2.7534e-15
-2.729e-15
-2.75351e-15
-2.72905e-15
-2.75496e-15
-2.7284e-15
-2.75505e-15
-2.72707e-15
-2.75544e-15
-2.72542e-15
-2.75582e-15
-2.72533e-15
-2.75589e-15
-2.72492e-15
-2.75624e-15
-2.72419e-15
-2.7563e-15
-2.72373e-15
-2.75662e-15
-2.72353e-15
-2.75667e-15
-2.72358e-15
-2.75672e-15
-2.72386e-15
-2.7565e-15
-2.72373e-15
-2.75617e-15
-2.72358e-15
-2.75596e-15
-2.72353e-15
-2.75552e-15
-2.72369e-15
-2.75485e-15
-2.7236e-15
-2.75453e-15
-2.72338e-15
-2.75388e-15
-2.72349e-15
-2.75356e-15
-2.72369e-15
-2.75313e-15
-2.72376e-15
-2.75269e-15
-2.72376e-15
-2.75242e-15
-2.72386e-15
-2.75232e-15
-2.72401e-15
-2.75215e-15
-2.72409e-15
-2.75198e-15
-2.72416e-15
-2.7518e-15
-2.72428e-15
-2.75168e-15
-2.72433e-15
-2.75155e-15
-2.72443e-15
-2.75154e-15
-2.7246e-15
-2.7515e-15
-2.7247e-15
-2.75146e-15
-2.72468e-15
-2.75142e-15
-2.7247e-15
-2.75137e-15
-2.72478e-15
-2.75134e-15
-2.72488e-15
-2.7513e-15
-2.72497e-15
-2.75134e-15
-2.72502e-15
-2.75136e-15
-2.72503e-15
-2.75133e-15
-2.72504e-15
-2.75133e-15
-2.72505e-15
-2.75135e-15
-2.72505e-15
-2.75135e-15
-2.72506e-15
-2.75134e-15
-2.72507e-15
)
;

boundaryField
{
    walls
    {
        type            zeroGradient;
    }
    inlet
    {
        type            cyclic;
    }
    outlet
    {
        type            cyclic;
    }
    sides
    {
        type            empty;
    }
}


// ************************************************************************* //
