/*--------------------------------*- C++ -*----------------------------------*\
| =========                 |                                                 |
| \\      /  F ield         | OpenFOAM: The Open Source CFD Toolbox           |
|  \\    /   O peration     | Version:  2106                                  |
|   \\  /    A nd           | Website:  www.openfoam.com                      |
|    \\/     M anipulation  |                                                 |
\*---------------------------------------------------------------------------*/
FoamFile
{
    version     2.0;
    format      ascii;
    arch        "LSB;label=32;scalar=64";
    class       volSymmTensorField;
    location    "6000";
    object      turbulenceProperties:R;
}
// * * * * * * * * * * * * * * * * * * * * * * * * * * * * * * * * * * * * * //

dimensions      [0 2 -2 0 0 0 0];

internalField   nonuniform List<symmTensor> 
2560
(
(1.02381e-07 -3.0251e-12 -4.37911e-15 1.02381e-07 -2.70427e-26 1.02381e-07)
(1.02381e-07 -3.0251e-12 -4.37911e-15 1.02381e-07 -2.118e-26 1.02381e-07)
(1.66508e-08 -2.82761e-12 -1.23396e-14 1.66508e-08 -6.34675e-27 1.66508e-08)
(1.66508e-08 -2.82761e-12 -1.23396e-14 1.66508e-08 -1.94793e-26 1.66508e-08)
(1.61719e-08 -8.10101e-12 -4.86284e-14 1.61719e-08 -1.01633e-26 1.61719e-08)
(1.61719e-08 -8.10101e-12 -4.86284e-14 1.61719e-08 -3.97431e-27 1.61719e-08)
(4.49963e-08 -4.77961e-11 -2.91081e-13 4.49963e-08 -4.52449e-26 4.49963e-08)
(4.49963e-08 -4.77961e-11 -2.91081e-13 4.49963e-08 -2.38581e-26 4.49963e-08)
(1.1382e-07 -2.13297e-10 -1.31788e-12 1.1382e-07 -2.88357e-25 1.1382e-07)
(1.1382e-07 -2.13297e-10 -1.31788e-12 1.1382e-07 -1.0833e-25 1.1382e-07)
(2.4205e-07 -7.14181e-10 -4.4768e-12 2.4205e-07 -1.00256e-24 2.4205e-07)
(2.4205e-07 -7.14181e-10 -4.4768e-12 2.4205e-07 -3.68873e-25 2.4205e-07)
(4.53327e-07 -1.95138e-09 -1.241e-11 4.53327e-07 -2.7991e-24 4.53327e-07)
(4.53327e-07 -1.95138e-09 -1.241e-11 4.53327e-07 -1.02502e-24 4.53327e-07)
(7.74926e-07 -4.60951e-09 -2.97409e-11 7.74926e-07 -6.73724e-24 7.74926e-07)
(7.74926e-07 -4.60951e-09 -2.97409e-11 7.74926e-07 -2.46239e-24 7.74926e-07)
(1.23773e-06 -9.77069e-09 -6.39577e-11 1.23773e-06 -1.45453e-23 1.23773e-06)
(1.23773e-06 -9.77069e-09 -6.39577e-11 1.23773e-06 -5.3084e-24 1.23773e-06)
(1.87633e-06 -1.90527e-08 -1.2653e-10 1.87633e-06 -2.88914e-23 1.87633e-06)
(1.87633e-06 -1.90527e-08 -1.2653e-10 1.87633e-06 -1.05286e-23 1.87633e-06)
(2.72923e-06 -3.47746e-08 -2.34298e-10 2.72923e-06 -5.37148e-23 2.72923e-06)
(2.72923e-06 -3.47746e-08 -2.34298e-10 2.72923e-06 -1.95434e-23 2.72923e-06)
(3.83902e-06 -6.01529e-08 -4.11179e-10 3.83902e-06 -9.46426e-23 3.83902e-06)
(3.83902e-06 -6.01529e-08 -4.11179e-10 3.83902e-06 -3.43784e-23 3.83902e-06)
(5.25262e-06 -9.95322e-08 -6.90249e-10 5.25262e-06 -1.59501e-22 5.25262e-06)
(5.25262e-06 -9.95322e-08 -6.90249e-10 5.25262e-06 -5.78556e-23 5.25262e-06)
(7.02149e-06 -1.58654e-07 -1.11624e-09 7.02149e-06 -2.58938e-22 7.02149e-06)
(7.02149e-06 -1.58654e-07 -1.11624e-09 7.02149e-06 -9.3774e-23 7.02149e-06)
(9.20192e-06 -2.44965e-07 -1.74856e-09 9.20192e-06 -4.07116e-22 9.20192e-06)
(9.20192e-06 -2.44965e-07 -1.74856e-09 9.20192e-06 -1.47221e-22 9.20192e-06)
(1.18553e-05 -3.67974e-07 -2.66477e-09 1.18553e-05 -6.22612e-22 1.18553e-05)
(1.18553e-05 -3.67974e-07 -2.66477e-09 1.18553e-05 -2.2481e-22 1.18553e-05)
(1.50481e-05 -5.39655e-07 -3.96483e-09 1.50481e-05 -9.29484e-22 1.50481e-05)
(1.50481e-05 -5.39655e-07 -3.96483e-09 1.50481e-05 -3.34987e-22 1.50481e-05)
(1.88528e-05 -7.74899e-07 -5.77586e-09 1.88528e-05 -1.35821e-21 1.88528e-05)
(1.88528e-05 -7.74899e-07 -5.77586e-09 1.88528e-05 -4.88867e-22 1.88528e-05)
(2.33474e-05 -1.09202e-06 -8.25779e-09 2.33474e-05 -1.94732e-21 2.33474e-05)
(2.33474e-05 -1.09202e-06 -8.25779e-09 2.33474e-05 -6.99935e-22 2.33474e-05)
(2.86159e-05 -1.51331e-06 -1.16097e-08 2.86159e-05 -2.74466e-21 2.86159e-05)
(2.86159e-05 -1.51331e-06 -1.16097e-08 2.86159e-05 -9.85215e-22 2.86159e-05)
(3.47489e-05 -2.06564e-06 -1.6077e-08 3.47489e-05 -3.80904e-21 3.47489e-05)
(3.47489e-05 -2.06564e-06 -1.6077e-08 3.47489e-05 -1.36572e-21 3.47489e-05)
(4.1843e-05 -2.78112e-06 -2.19598e-08 4.1843e-05 -5.21193e-21 4.1843e-05)
(4.1843e-05 -2.78112e-06 -2.19598e-08 4.1843e-05 -1.86654e-21 4.1843e-05)
(5.00018e-05 -3.69779e-06 -2.96212e-08 5.00018e-05 -7.03984e-21 5.00018e-05)
(5.00018e-05 -3.69779e-06 -2.96212e-08 5.00018e-05 -2.51712e-21 5.00018e-05)
(5.93352e-05 -4.86031e-06 -3.94978e-08 5.93352e-05 -8.89813e-21 5.93352e-05)
(5.93352e-05 -4.86031e-06 -3.94978e-08 5.93352e-05 -3.35399e-21 5.93352e-05)
(6.99599e-05 -6.32068e-06 -5.21095e-08 6.99599e-05 -4.70843e-21 6.99599e-05)
(6.99599e-05 -6.32068e-06 -5.21095e-08 6.99599e-05 -4.42052e-21 6.99599e-05)
(8.19991e-05 -8.13893e-06 -6.80708e-08 8.19991e-05 -2.96624e-21 8.19991e-05)
(8.19991e-05 -8.13893e-06 -6.80708e-08 8.19991e-05 -5.76394e-21 8.19991e-05)
(9.55822e-05 -1.03838e-05 -8.81018e-08 9.55822e-05 -3.70968e-21 9.55822e-05)
(9.55822e-05 -1.03838e-05 -8.81018e-08 9.55822e-05 -7.43962e-21 9.55822e-05)
(0.000110845 -1.31333e-05 -1.1304e-07 0.000110845 -4.58494e-21 0.000110845)
(0.000110845 -1.31333e-05 -1.1304e-07 0.000110845 -9.50757e-21 0.000110845)
(0.000127927 -1.64751e-05 -1.43848e-07 0.000127927 -5.59361e-21 0.000127927)
(0.000127927 -1.64751e-05 -1.43848e-07 0.000127927 -1.20375e-20 0.000127927)
(0.000146976 -2.05067e-05 -1.81629e-07 0.000146976 -6.7321e-21 0.000146976)
(0.000146976 -2.05067e-05 -1.81629e-07 0.000146976 -1.51088e-20 0.000146976)
(0.000168138 -2.53357e-05 -2.27629e-07 0.000168138 -8.00108e-21 0.000168138)
(0.000168138 -2.53357e-05 -2.27629e-07 0.000168138 -1.88047e-20 0.000168138)
(0.000191568 -3.10793e-05 -2.83245e-07 0.000191568 -9.35369e-21 0.000191568)
(0.000191568 -3.10793e-05 -2.83245e-07 0.000191568 -2.32016e-20 0.000191568)
(0.000217416 -3.78636e-05 -3.50024e-07 0.000217416 -1.07426e-20 0.000217416)
(0.000217416 -3.78636e-05 -3.50024e-07 0.000217416 -2.83779e-20 0.000217416)
(0.000245835 -4.58226e-05 -4.29665e-07 0.000245835 -1.21559e-20 0.000245835)
(0.000245835 -4.58226e-05 -4.29665e-07 0.000245835 -3.44019e-20 0.000245835)
(0.000276974 -5.50968e-05 -5.2401e-07 0.000276974 -1.34967e-20 0.000276974)
(0.000276974 -5.50968e-05 -5.2401e-07 0.000276974 -4.13455e-20 0.000276974)
(0.000310978 -6.58308e-05 -6.35028e-07 0.000310978 -1.45748e-20 0.000310978)
(0.000310978 -6.58308e-05 -6.35028e-07 0.000310978 -4.9297e-20 0.000310978)
(0.000347984 -7.81711e-05 -7.64799e-07 0.000347984 -1.52874e-20 0.000347984)
(0.000347984 -7.81711e-05 -7.64799e-07 0.000347984 -5.82873e-20 0.000347984)
(0.000388117 -9.22625e-05 -9.15487e-07 0.000388117 -1.55351e-20 0.000388117)
(0.000388117 -9.22625e-05 -9.15487e-07 0.000388117 -6.82243e-20 0.000388117)
(0.000431491 -0.000108245 -1.0893e-06 0.000431491 -1.50378e-20 0.000431491)
(0.000431491 -0.000108245 -1.0893e-06 0.000431491 -7.91333e-20 0.000431491)
(0.000478204 -0.00012625 -1.28846e-06 0.000478204 -1.77894e-20 0.000478204)
(0.000478204 -0.00012625 -1.28846e-06 0.000478204 -9.10131e-20 0.000478204)
(0.000528332 -0.000146396 -1.51516e-06 0.000528332 -9.47422e-20 0.000528332)
(0.000528332 -0.000146396 -1.51516e-06 0.000528332 -1.03737e-19 0.000528332)
(0.000581932 -0.000168784 -1.77148e-06 0.000581932 -1.90353e-19 0.000581932)
(0.000581932 -0.000168784 -1.77148e-06 0.000581932 -1.17055e-19 0.000581932)
(0.000639033 -0.000193494 -2.05939e-06 0.000639033 -2.13393e-19 0.000639033)
(0.000639033 -0.000193494 -2.05939e-06 0.000639033 -1.30833e-19 0.000639033)
(0.000699639 -0.000220581 -2.38065e-06 0.000699639 -2.37095e-19 0.000699639)
(0.000699639 -0.000220581 -2.38065e-06 0.000699639 -1.45115e-19 0.000699639)
(0.000763723 -0.000250073 -2.7368e-06 0.000763723 -2.60916e-19 0.000763723)
(0.000763723 -0.000250073 -2.7368e-06 0.000763723 -1.59495e-19 0.000763723)
(0.000831229 -0.000281966 -3.12908e-06 0.000831229 -2.84705e-19 0.000831229)
(0.000831229 -0.000281966 -3.12908e-06 0.000831229 -1.73406e-19 0.000831229)
(0.000902069 -0.000316225 -3.55841e-06 0.000902069 -3.07741e-19 0.000902069)
(0.000902069 -0.000316225 -3.55841e-06 0.000902069 -1.86694e-19 0.000902069)
(0.000976125 -0.000352784 -4.02537e-06 0.000976125 -3.29328e-19 0.000976125)
(0.000976125 -0.000352784 -4.02537e-06 0.000976125 -1.9933e-19 0.000976125)
(0.00105325 -0.000391545 -4.53017e-06 0.00105325 -3.49579e-19 0.00105325)
(0.00105325 -0.000391545 -4.53017e-06 0.00105325 -2.10891e-19 0.00105325)
(0.00113326 -0.000432379 -5.07267e-06 0.00113326 -3.68766e-19 0.00113326)
(0.00113326 -0.000432379 -5.07267e-06 0.00113326 -2.21512e-19 0.00113326)
(0.00121595 -0.000475133 -5.65235e-06 0.00121595 -3.86344e-19 0.00121595)
(0.00121595 -0.000475133 -5.65235e-06 0.00121595 -2.30617e-19 0.00121595)
(0.0013011 -0.000519628 -6.26837e-06 0.0013011 -4.0071e-19 0.0013011)
(0.0013011 -0.000519628 -6.26837e-06 0.0013011 -2.38656e-19 0.0013011)
(0.00138846 -0.00056567 -6.91958e-06 0.00138846 -4.1244e-19 0.00138846)
(0.00138846 -0.00056567 -6.91958e-06 0.00138846 -2.45364e-19 0.00138846)
(0.00147777 -0.000613046 -7.60455e-06 0.00147777 -4.21995e-19 0.00147777)
(0.00147777 -0.000613046 -7.60455e-06 0.00147777 -2.49659e-19 0.00147777)
(0.00156876 -0.000661539 -8.32165e-06 0.00156876 -4.29662e-19 0.00156876)
(0.00156876 -0.000661539 -8.32165e-06 0.00156876 -2.52425e-19 0.00156876)
(0.00166113 -0.000710923 -9.06904e-06 0.00166113 -4.34447e-19 0.00166113)
(0.00166113 -0.000710923 -9.06904e-06 0.00166113 -2.53716e-19 0.00166113)
(0.00175461 -0.000760975 -9.84478e-06 0.00175461 -4.36773e-19 0.00175461)
(0.00175461 -0.000760975 -9.84478e-06 0.00175461 -2.54236e-19 0.00175461)
(0.00184891 -0.000811476 -1.06468e-05 0.00184891 -4.39099e-19 0.00184891)
(0.00184891 -0.000811476 -1.06468e-05 0.00184891 -2.55503e-19 0.00184891)
(0.00194376 -0.000862212 -1.14731e-05 0.00194376 -4.39012e-19 0.00194376)
(0.00194376 -0.000862212 -1.14731e-05 0.00194376 -2.5522e-19 0.00194376)
(0.00203887 -0.000912985 -1.23216e-05 0.00203887 -4.36807e-19 0.00203887)
(0.00203887 -0.000912985 -1.23216e-05 0.00203887 -2.53394e-19 0.00203887)
(0.00213399 -0.000963606 -1.31902e-05 0.00213399 -4.3703e-19 0.00213399)
(0.00213399 -0.000963606 -1.31902e-05 0.00213399 -2.52405e-19 0.00213399)
(0.00222887 -0.0010139 -1.40769e-05 0.00222887 -4.37487e-19 0.00222887)
(0.00222887 -0.0010139 -1.40769e-05 0.00222887 -2.51692e-19 0.00222887)
(0.00232327 -0.00106372 -1.498e-05 0.00232327 -4.3618e-19 0.00232327)
(0.00232327 -0.00106372 -1.498e-05 0.00232327 -2.5396e-19 0.00232327)
(0.00241698 -0.00111291 -1.58976e-05 0.00241698 -4.3591e-19 0.00241698)
(0.00241698 -0.00111291 -1.58976e-05 0.00241698 -2.53524e-19 0.00241698)
(0.0025098 -0.00116136 -1.68281e-05 0.0025098 -4.4182e-19 0.0025098)
(0.0025098 -0.00116136 -1.68281e-05 0.0025098 -2.55161e-19 0.0025098)
(0.00260153 -0.00120896 -1.77701e-05 0.00260153 -4.51785e-19 0.00260153)
(0.00260153 -0.00120896 -1.77701e-05 0.00260153 -2.59324e-19 0.00260153)
(0.00269203 -0.00125561 -1.8722e-05 0.00269203 -4.57267e-19 0.00269203)
(0.00269203 -0.00125561 -1.8722e-05 0.00269203 -2.63654e-19 0.00269203)
(0.00278114 -0.00130125 -1.96828e-05 0.00278114 -4.63037e-19 0.00278114)
(0.00278114 -0.00130125 -1.96828e-05 0.00278114 -2.71206e-19 0.00278114)
(0.00286874 -0.00134581 -2.06513e-05 0.00286874 -4.80536e-19 0.00286874)
(0.00286874 -0.00134581 -2.06513e-05 0.00286874 -2.80027e-19 0.00286874)
(0.0029547 -0.00138924 -2.16265e-05 0.0029547 -5.00117e-19 0.0029547)
(0.0029547 -0.00138924 -2.16265e-05 0.0029547 -2.93613e-19 0.0029547)
(0.00303893 -0.0014315 -2.26076e-05 0.00303893 -5.17151e-19 0.00303893)
(0.00303893 -0.0014315 -2.26076e-05 0.00303893 -3.12212e-19 0.00303893)
(0.00312136 -0.00147256 -2.35939e-05 0.00312136 -5.36388e-19 0.00312136)
(0.00312136 -0.00147256 -2.35939e-05 0.00312136 -3.39812e-19 0.00312136)
(0.00320192 -0.00151242 -2.45847e-05 0.00320192 -5.61137e-19 0.00320192)
(0.00320192 -0.00151242 -2.45847e-05 0.00320192 -3.67557e-19 0.00320192)
(0.00328054 -0.00155105 -2.55796e-05 0.00328054 -5.94467e-19 0.00328054)
(0.00328054 -0.00155105 -2.55796e-05 0.00328054 -3.90604e-19 0.00328054)
(0.00335719 -0.00158846 -2.6578e-05 0.00335719 -6.31499e-19 0.00335719)
(0.00335719 -0.00158846 -2.6578e-05 0.00335719 -4.1712e-19 0.00335719)
(0.00343184 -0.00162466 -2.75797e-05 0.00343184 -6.71429e-19 0.00343184)
(0.00343184 -0.00162466 -2.75797e-05 0.00343184 -4.52781e-19 0.00343184)
(0.00350446 -0.00165964 -2.85844e-05 0.00350446 -7.09829e-19 0.00350446)
(0.00350446 -0.00165964 -2.85844e-05 0.00350446 -4.97679e-19 0.00350446)
(0.00357505 -0.00169342 -2.95919e-05 0.00357505 -7.52404e-19 0.00357505)
(0.00357505 -0.00169342 -2.95919e-05 0.00357505 -5.41055e-19 0.00357505)
(0.00364359 -0.00172602 -3.0602e-05 0.00364359 -8.16455e-19 0.00364359)
(0.00364359 -0.00172602 -3.0602e-05 0.00364359 -5.82304e-19 0.00364359)
(0.00371009 -0.00175747 -3.16146e-05 0.00371009 -8.84764e-19 0.00371009)
(0.00371009 -0.00175747 -3.16146e-05 0.00371009 -6.2555e-19 0.00371009)
(0.00377456 -0.00178777 -3.26297e-05 0.00377456 -9.29952e-19 0.00377456)
(0.00377456 -0.00178777 -3.26297e-05 0.00377456 -6.85272e-19 0.00377456)
(0.00383701 -0.00181696 -3.36472e-05 0.00383701 -1.00901e-18 0.00383701)
(0.00383701 -0.00181696 -3.36472e-05 0.00383701 -7.67861e-19 0.00383701)
(0.00389745 -0.00184506 -3.46672e-05 0.00389745 -1.10126e-18 0.00389745)
(0.00389745 -0.00184506 -3.46672e-05 0.00389745 -8.38152e-19 0.00389745)
(0.00395592 -0.0018721 -3.56897e-05 0.00395592 1.25358e-20 0.00395592)
(0.00395592 -0.0018721 -3.56897e-05 0.00395592 -8.96491e-19 0.00395592)
(0.00401243 -0.0018981 -3.67149e-05 0.00401243 1.96392e-18 0.00401243)
(0.00401243 -0.0018981 -3.67149e-05 0.00401243 -9.57557e-19 0.00401243)
(0.00406702 -0.0019231 -3.77427e-05 0.00406702 2.47162e-18 0.00406702)
(0.00406702 -0.0019231 -3.77427e-05 0.00406702 -1.03751e-18 0.00406702)
(0.0041197 -0.00194712 -3.87732e-05 0.0041197 2.50946e-18 0.0041197)
(0.0041197 -0.00194712 -3.87732e-05 0.0041197 -1.14015e-18 0.0041197)
(0.00417053 -0.00197018 -3.98067e-05 0.00417053 2.53861e-18 0.00417053)
(0.00417053 -0.00197018 -3.98067e-05 0.00417053 -1.24803e-18 0.00417053)
(0.00421952 -0.00199232 -4.08432e-05 0.00421952 2.5733e-18 0.00421952)
(0.00421952 -0.00199232 -4.08432e-05 0.00421952 -1.34846e-18 0.00421952)
(0.00426671 -0.00201356 -4.18829e-05 0.00426671 2.59857e-18 0.00426671)
(0.00426671 -0.00201356 -4.18829e-05 0.00426671 -1.44152e-18 0.00426671)
(0.00431214 -0.00203392 -4.29258e-05 0.00431214 2.61947e-18 0.00431214)
(0.00431214 -0.00203392 -4.29258e-05 0.00431214 -1.56276e-18 0.00431214)
(0.00435584 -0.00205344 -4.39723e-05 0.00435584 2.58667e-18 0.00435584)
(0.00435584 -0.00205344 -4.39723e-05 0.00435584 -1.68199e-18 0.00435584)
(0.00439785 -0.00207214 -4.50223e-05 0.00439785 2.48983e-18 0.00439785)
(0.00439785 -0.00207214 -4.50223e-05 0.00439785 -1.78743e-18 0.00439785)
(0.00443821 -0.00209005 -4.6076e-05 0.00443821 2.44885e-18 0.00443821)
(0.00443821 -0.00209005 -4.6076e-05 0.00443821 -1.92269e-18 0.00443821)
(0.00447694 -0.00210717 -4.71337e-05 0.00447694 2.47722e-18 0.00447694)
(0.00447694 -0.00210717 -4.71337e-05 0.00447694 -2.07427e-18 0.00447694)
(0.00451409 -0.00212355 -4.81954e-05 0.00451409 2.43744e-18 0.00451409)
(0.00451409 -0.00212355 -4.81954e-05 0.00451409 -2.17657e-18 0.00451409)
(0.00454969 -0.0021392 -4.92612e-05 0.00454969 2.38172e-18 0.00454969)
(0.00454969 -0.0021392 -4.92612e-05 0.00454969 -2.26634e-18 0.00454969)
(0.00458378 -0.00215414 -5.03314e-05 0.00458378 2.3828e-18 0.00458378)
(0.00458378 -0.00215414 -5.03314e-05 0.00458378 -2.3576e-18 0.00458378)
(0.00461639 -0.0021684 -5.1406e-05 0.00461639 2.40916e-18 0.00461639)
(0.00461639 -0.0021684 -5.1406e-05 0.00461639 -2.49488e-18 0.00461639)
(0.00464754 -0.00218199 -5.24852e-05 0.00464754 2.44222e-18 0.00464754)
(0.00464754 -0.00218199 -5.24852e-05 0.00464754 -2.66021e-18 0.00464754)
(0.00467729 -0.00219493 -5.35691e-05 0.00467729 2.38732e-18 0.00467729)
(0.00467729 -0.00219493 -5.35691e-05 0.00467729 -2.79597e-18 0.00467729)
(0.00470565 -0.00220724 -5.46578e-05 0.00470565 2.3368e-18 0.00470565)
(0.00470565 -0.00220724 -5.46578e-05 0.00470565 -2.89682e-18 0.00470565)
(0.00473266 -0.00221894 -5.57514e-05 0.00473266 2.33566e-18 0.00473266)
(0.00473266 -0.00221894 -5.57514e-05 0.00473266 -2.9677e-18 0.00473266)
(0.00475835 -0.00223004 -5.68501e-05 0.00475835 2.31878e-18 0.00475835)
(0.00475835 -0.00223004 -5.68501e-05 0.00475835 -3.08284e-18 0.00475835)
(0.00478275 -0.00224056 -5.79539e-05 0.00478275 2.26608e-18 0.00478275)
(0.00478275 -0.00224056 -5.79539e-05 0.00478275 -3.23722e-18 0.00478275)
(0.00480589 -0.00225052 -5.90629e-05 0.00480589 2.25229e-18 0.00480589)
(0.00480589 -0.00225052 -5.90629e-05 0.00480589 -3.36198e-18 0.00480589)
(0.00482779 -0.00225992 -6.01772e-05 0.00482779 2.2535e-18 0.00482779)
(0.00482779 -0.00225992 -6.01772e-05 0.00482779 -3.5213e-18 0.00482779)
(0.00484849 -0.0022688 -6.12969e-05 0.00484849 2.2235e-18 0.00484849)
(0.00484849 -0.0022688 -6.12969e-05 0.00484849 -3.70099e-18 0.00484849)
(0.004868 -0.00227714 -6.2422e-05 0.004868 2.20208e-18 0.004868)
(0.004868 -0.00227714 -6.2422e-05 0.004868 -3.83833e-18 0.004868)
(0.00488637 -0.00228498 -6.35527e-05 0.00488637 2.16783e-18 0.00488637)
(0.00488637 -0.00228498 -6.35527e-05 0.00488637 -3.99397e-18 0.00488637)
(0.0049036 -0.00229232 -6.46889e-05 0.0049036 2.08295e-18 0.0049036)
(0.0049036 -0.00229232 -6.46889e-05 0.0049036 -4.13688e-18 0.0049036)
(0.00491973 -0.00229918 -6.58307e-05 0.00491973 2.065e-18 0.00491973)
(0.00491973 -0.00229918 -6.58307e-05 0.00491973 -4.27312e-18 0.00491973)
(0.00493478 -0.00230556 -6.69782e-05 0.00493478 2.0981e-18 0.00493478)
(0.00493478 -0.00230556 -6.69782e-05 0.00493478 -4.42264e-18 0.00493478)
(0.00494877 -0.00231148 -6.81314e-05 0.00494877 2.04851e-18 0.00494877)
(0.00494877 -0.00231148 -6.81314e-05 0.00494877 -4.57557e-18 0.00494877)
(0.00496172 -0.00231694 -6.92904e-05 0.00496172 2.00788e-18 0.00496172)
(0.00496172 -0.00231694 -6.92904e-05 0.00496172 -4.75535e-18 0.00496172)
(0.00497365 -0.00232196 -7.04551e-05 0.00497365 1.98414e-18 0.00497365)
(0.00497365 -0.00232196 -7.04551e-05 0.00497365 -4.95073e-18 0.00497365)
(0.0049846 -0.00232654 -7.16255e-05 0.0049846 1.90955e-18 0.0049846)
(0.0049846 -0.00232654 -7.16255e-05 0.0049846 -5.15711e-18 0.0049846)
(0.00499457 -0.00233071 -7.28018e-05 0.00499457 1.88708e-18 0.00499457)
(0.00499457 -0.00233071 -7.28018e-05 0.00499457 -5.33859e-18 0.00499457)
(0.00500358 -0.00233445 -7.39838e-05 0.00500358 1.93504e-18 0.00500358)
(0.00500358 -0.00233445 -7.39838e-05 0.00500358 -5.52794e-18 0.00500358)
(0.00501166 -0.00233779 -7.51715e-05 0.00501166 1.87538e-18 0.00501166)
(0.00501166 -0.00233779 -7.51715e-05 0.00501166 -5.75555e-18 0.00501166)
(0.00501882 -0.00234073 -7.63651e-05 0.00501882 1.84447e-18 0.00501882)
(0.00501882 -0.00234073 -7.63651e-05 0.00501882 -5.98472e-18 0.00501882)
(0.00502508 -0.00234327 -7.75644e-05 0.00502508 1.84872e-18 0.00502508)
(0.00502508 -0.00234327 -7.75644e-05 0.00502508 -6.19185e-18 0.00502508)
(0.00503046 -0.00234544 -7.87694e-05 0.00503046 1.78358e-18 0.00503046)
(0.00503046 -0.00234544 -7.87694e-05 0.00503046 -6.42673e-18 0.00503046)
(0.00503498 -0.00234722 -7.99801e-05 0.00503498 1.76422e-18 0.00503498)
(0.00503498 -0.00234722 -7.99801e-05 0.00503498 -7.38875e-18 0.00503498)
(0.00503865 -0.00234864 -8.11965e-05 0.00503865 1.70369e-18 0.00503865)
(0.00503865 -0.00234864 -8.11965e-05 0.00503865 -6.95104e-18 0.00503865)
(0.00504148 -0.0023497 -8.24186e-05 0.00504148 1.72665e-18 0.00504148)
(0.00504148 -0.0023497 -8.24186e-05 0.00504148 -7.9773e-19 0.00504148)
(0.00504351 -0.0023504 -8.36462e-05 0.00504351 1.82363e-18 0.00504351)
(0.00504351 -0.0023504 -8.36462e-05 0.00504351 5.26194e-19 0.00504351)
(0.00504473 -0.00235074 -8.48793e-05 0.00504473 1.81839e-18 0.00504473)
(0.00504473 -0.00235074 -8.48793e-05 0.00504473 5.78399e-19 0.00504473)
(0.00504516 -0.00235075 -8.61179e-05 0.00504516 1.84148e-18 0.00504516)
(0.00504516 -0.00235075 -8.61179e-05 0.00504516 5.44026e-19 0.00504516)
(0.00504482 -0.00235042 -8.7362e-05 0.00504482 1.9126e-18 0.00504482)
(0.00504482 -0.00235042 -8.7362e-05 0.00504482 5.00505e-19 0.00504482)
(0.00504373 -0.00234976 -8.86114e-05 0.00504373 1.82569e-18 0.00504373)
(0.00504373 -0.00234976 -8.86114e-05 0.00504373 4.44052e-19 0.00504373)
(0.00504189 -0.00234877 -8.98661e-05 0.00504189 1.70661e-18 0.00504189)
(0.00504189 -0.00234877 -8.98661e-05 0.00504189 6.09809e-19 0.00504189)
(0.00503932 -0.00234747 -9.11261e-05 0.00503932 1.74875e-18 0.00503932)
(0.00503932 -0.00234747 -9.11261e-05 0.00503932 7.95412e-19 0.00503932)
(0.00503604 -0.00234584 -9.23912e-05 0.00503604 1.75478e-18 0.00503604)
(0.00503604 -0.00234584 -9.23912e-05 0.00503604 6.98099e-19 0.00503604)
(0.00503205 -0.00234392 -9.36613e-05 0.00503205 1.82094e-18 0.00503205)
(0.00503205 -0.00234392 -9.36613e-05 0.00503205 7.12097e-19 0.00503205)
(0.00502737 -0.00234168 -9.49364e-05 0.00502737 1.807e-18 0.00502737)
(0.00502737 -0.00234168 -9.49364e-05 0.00502737 9.40662e-19 0.00502737)
(0.00502202 -0.00233915 -9.62165e-05 0.00502202 1.86739e-18 0.00502202)
(0.00502202 -0.00233915 -9.62165e-05 0.00502202 9.42206e-19 0.00502202)
(0.005016 -0.00233633 -9.75013e-05 0.005016 1.89657e-18 0.005016)
(0.005016 -0.00233633 -9.75013e-05 0.005016 9.97241e-19 0.005016)
(0.00500933 -0.00233322 -9.87908e-05 0.00500933 1.74231e-18 0.00500933)
(0.00500933 -0.00233322 -9.87908e-05 0.00500933 1.30701e-18 0.00500933)
(0.00500201 -0.00232983 -0.000100085 0.00500201 1.85716e-18 0.00500201)
(0.00500201 -0.00232983 -0.000100085 0.00500201 1.38543e-18 0.00500201)
(0.00499407 -0.00232615 -0.000101384 0.00499407 1.82296e-18 0.00499407)
(0.00499407 -0.00232615 -0.000101384 0.00499407 1.40572e-18 0.00499407)
(0.00498551 -0.00232221 -0.000102687 0.00498551 1.59184e-18 0.00498551)
(0.00498551 -0.00232221 -0.000102687 0.00498551 1.529e-18 0.00498551)
(0.00497634 -0.002318 -0.000103994 0.00497634 1.64514e-18 0.00497634)
(0.00497634 -0.002318 -0.000103994 0.00497634 1.56838e-18 0.00497634)
(0.00496658 -0.00231352 -0.000105306 0.00496658 1.68738e-18 0.00496658)
(0.00496658 -0.00231352 -0.000105306 0.00496658 1.63801e-18 0.00496658)
(0.00495624 -0.00230878 -0.000106621 0.00495624 1.6133e-18 0.00495624)
(0.00495624 -0.00230878 -0.000106621 0.00495624 1.80325e-18 0.00495624)
(0.00494532 -0.0023038 -0.000107941 0.00494532 1.59048e-18 0.00494532)
(0.00494532 -0.0023038 -0.000107941 0.00494532 2.01227e-18 0.00494532)
(0.00493384 -0.00229856 -0.000109264 0.00493384 1.47643e-18 0.00493384)
(0.00493384 -0.00229856 -0.000109264 0.00493384 2.14666e-18 0.00493384)
(0.00492181 -0.00229307 -0.000110591 0.00492181 1.50431e-18 0.00492181)
(0.00492181 -0.00229307 -0.000110591 0.00492181 2.03471e-18 0.00492181)
(0.00490924 -0.00228735 -0.000111922 0.00490924 1.53183e-18 0.00490924)
(0.00490924 -0.00228735 -0.000111922 0.00490924 2.07302e-18 0.00490924)
(0.00489614 -0.00228139 -0.000113256 0.00489614 1.66609e-18 0.00489614)
(0.00489614 -0.00228139 -0.000113256 0.00489614 2.30812e-18 0.00489614)
(0.00488252 -0.0022752 -0.000114594 0.00488252 1.69475e-18 0.00488252)
(0.00488252 -0.0022752 -0.000114594 0.00488252 2.45396e-18 0.00488252)
(0.00486839 -0.00226878 -0.000115935 0.00486839 1.55072e-18 0.00486839)
(0.00486839 -0.00226878 -0.000115935 0.00486839 2.5404e-18 0.00486839)
(0.00485376 -0.00226213 -0.000117279 0.00485376 1.39701e-18 0.00485376)
(0.00485376 -0.00226213 -0.000117279 0.00485376 2.71337e-18 0.00485376)
(0.00483865 -0.00225527 -0.000118626 0.00483865 1.22317e-18 0.00483865)
(0.00483865 -0.00225527 -0.000118626 0.00483865 2.70795e-18 0.00483865)
(0.00482305 -0.0022482 -0.000119976 0.00482305 1.58767e-18 0.00482305)
(0.00482305 -0.0022482 -0.000119976 0.00482305 2.61039e-18 0.00482305)
(0.00480699 -0.00224092 -0.000121328 0.00480699 1.74898e-18 0.00480699)
(0.00480699 -0.00224092 -0.000121328 0.00480699 2.98439e-18 0.00480699)
(0.00479047 -0.00223343 -0.000122683 0.00479047 1.47675e-18 0.00479047)
(0.00479047 -0.00223343 -0.000122683 0.00479047 3.08831e-18 0.00479047)
(0.0047735 -0.00222574 -0.000124041 0.0047735 1.32552e-18 0.0047735)
(0.0047735 -0.00222574 -0.000124041 0.0047735 3.02596e-18 0.0047735)
(0.00475609 -0.00221785 -0.0001254 0.00475609 1.1692e-18 0.00475609)
(0.00475609 -0.00221785 -0.0001254 0.00475609 3.27995e-18 0.00475609)
(0.00473825 -0.00220977 -0.000126762 0.00473825 1.09097e-18 0.00473825)
(0.00473825 -0.00220977 -0.000126762 0.00473825 3.00727e-18 0.00473825)
(0.00471999 -0.00220151 -0.000128126 0.00471999 1.36329e-18 0.00471999)
(0.00471999 -0.00220151 -0.000128126 0.00471999 2.39451e-18 0.00471999)
(0.00470132 -0.00219306 -0.000129492 0.00470132 1.45203e-18 0.00470132)
(0.00470132 -0.00219306 -0.000129492 0.00470132 2.78251e-18 0.00470132)
(0.00468225 -0.00218442 -0.00013086 0.00468225 7.98199e-19 0.00468225)
(0.00468225 -0.00218442 -0.00013086 0.00468225 3.84055e-18 0.00468225)
(0.00466278 -0.00217562 -0.000132229 0.00466278 6.13516e-19 0.00466278)
(0.00466278 -0.00217562 -0.000132229 0.00466278 4.16397e-18 0.00466278)
(0.00464294 -0.00216664 -0.0001336 0.00464294 8.07143e-19 0.00464294)
(0.00464294 -0.00216664 -0.0001336 0.00464294 4.33483e-18 0.00464294)
(0.00462272 -0.0021575 -0.000134972 0.00462272 7.12052e-19 0.00462272)
(0.00462272 -0.0021575 -0.000134972 0.00462272 4.7043e-18 0.00462272)
(0.00460214 -0.00214819 -0.000136346 0.00460214 6.63965e-19 0.00460214)
(0.00460214 -0.00214819 -0.000136346 0.00460214 4.61339e-18 0.00460214)
(0.00458121 -0.00213872 -0.00013772 0.00458121 2.77651e-19 0.00458121)
(0.00458121 -0.00213872 -0.00013772 0.00458121 4.6274e-18 0.00458121)
(0.00455993 -0.0021291 -0.000139096 0.00455993 -1.87662e-19 0.00455993)
(0.00455993 -0.0021291 -0.000139096 0.00455993 4.5769e-18 0.00455993)
(0.00453831 -0.00211933 -0.000140472 0.00453831 -2.07812e-19 0.00453831)
(0.00453831 -0.00211933 -0.000140472 0.00453831 4.17777e-18 0.00453831)
(0.00451637 -0.00210941 -0.000141849 0.00451637 -3.53609e-20 0.00451637)
(0.00451637 -0.00210941 -0.000141849 0.00451637 4.40451e-18 0.00451637)
(0.0044941 -0.00209935 -0.000143226 0.0044941 -5.96052e-20 0.0044941)
(0.0044941 -0.00209935 -0.000143226 0.0044941 4.82374e-18 0.0044941)
(0.00447153 -0.00208915 -0.000144604 0.00447153 1.77807e-19 0.00447153)
(0.00447153 -0.00208915 -0.000144604 0.00447153 4.44814e-18 0.00447153)
(0.00444866 -0.00207881 -0.000145982 0.00444866 1.08076e-19 0.00444866)
(0.00444866 -0.00207881 -0.000145982 0.00444866 4.27356e-18 0.00444866)
(0.00442549 -0.00206834 -0.00014736 0.00442549 6.57215e-20 0.00442549)
(0.00442549 -0.00206834 -0.00014736 0.00442549 4.08765e-18 0.00442549)
(0.00440204 -0.00205775 -0.000148738 0.00440204 3.97248e-19 0.00440204)
(0.00440204 -0.00205775 -0.000148738 0.00440204 3.76795e-18 0.00440204)
(0.00437832 -0.00204703 -0.000150115 0.00437832 6.88975e-19 0.00437832)
(0.00437832 -0.00204703 -0.000150115 0.00437832 3.77068e-18 0.00437832)
(0.00435433 -0.0020362 -0.000151493 0.00435433 4.35629e-19 0.00435433)
(0.00435433 -0.0020362 -0.000151493 0.00435433 3.59591e-18 0.00435433)
(0.00433008 -0.00202524 -0.00015287 0.00433008 -5.55633e-20 0.00433008)
(0.00433008 -0.00202524 -0.00015287 0.00433008 3.3062e-18 0.00433008)
(0.00430558 -0.00201418 -0.000154246 0.00430558 -1.53399e-19 0.00430558)
(0.00430558 -0.00201418 -0.000154246 0.00430558 2.98171e-18 0.00430558)
(0.00428083 -0.00200301 -0.000155622 0.00428083 -1.96927e-19 0.00428083)
(0.00428083 -0.00200301 -0.000155622 0.00428083 3.24916e-18 0.00428083)
(0.00425586 -0.00199173 -0.000156996 0.00425586 2.38526e-19 0.00425586)
(0.00425586 -0.00199173 -0.000156996 0.00425586 3.19173e-18 0.00425586)
(0.00423066 -0.00198035 -0.00015837 0.00423066 2.53635e-19 0.00423066)
(0.00423066 -0.00198035 -0.00015837 0.00423066 2.96601e-18 0.00423066)
(0.00420524 -0.00196888 -0.000159743 0.00420524 -2.02595e-19 0.00420524)
(0.00420524 -0.00196888 -0.000159743 0.00420524 3.94299e-18 0.00420524)
(0.00417961 -0.00195731 -0.000161114 0.00417961 1.91001e-19 0.00417961)
(0.00417961 -0.00195731 -0.000161114 0.00417961 4.12365e-18 0.00417961)
(0.00415378 -0.00194565 -0.000162483 0.00415378 5.38287e-19 0.00415378)
(0.00415378 -0.00194565 -0.000162483 0.00415378 4.66762e-18 0.00415378)
(0.00412775 -0.00193391 -0.000163851 0.00412775 9.49836e-19 0.00412775)
(0.00412775 -0.00193391 -0.000163851 0.00412775 4.55266e-18 0.00412775)
(0.00410154 -0.00192208 -0.000165217 0.00410154 8.44342e-19 0.00410154)
(0.00410154 -0.00192208 -0.000165217 0.00410154 4.44514e-18 0.00410154)
(0.00407515 -0.00191017 -0.000166582 0.00407515 1.20308e-19 0.00407515)
(0.00407515 -0.00191017 -0.000166582 0.00407515 4.51336e-18 0.00407515)
(0.00404858 -0.00189819 -0.000167944 0.00404858 1.71741e-19 0.00404858)
(0.00404858 -0.00189819 -0.000167944 0.00404858 4.47413e-18 0.00404858)
(0.00402185 -0.00188613 -0.000169304 0.00402185 4.64671e-19 0.00402185)
(0.00402185 -0.00188613 -0.000169304 0.00402185 5.17016e-18 0.00402185)
(0.00399497 -0.00187401 -0.000170661 0.00399497 9.15064e-19 0.00399497)
(0.00399497 -0.00187401 -0.000170661 0.00399497 4.50409e-18 0.00399497)
(0.00396793 -0.00186181 -0.000172016 0.00396793 1.12108e-18 0.00396793)
(0.00396793 -0.00186181 -0.000172016 0.00396793 4.21491e-18 0.00396793)
(0.00394075 -0.00184955 -0.000173369 0.00394075 8.57014e-20 0.00394075)
(0.00394075 -0.00184955 -0.000173369 0.00394075 5.15568e-18 0.00394075)
(0.00391344 -0.00183724 -0.000174718 0.00391344 2.1538e-19 0.00391344)
(0.00391344 -0.00183724 -0.000174718 0.00391344 5.87428e-18 0.00391344)
(0.00388599 -0.00182486 -0.000176065 0.00388599 9.69764e-19 0.00388599)
(0.00388599 -0.00182486 -0.000176065 0.00388599 5.1027e-18 0.00388599)
(0.00385842 -0.00181243 -0.000177408 0.00385842 5.64923e-19 0.00385842)
(0.00385842 -0.00181243 -0.000177408 0.00385842 4.40304e-18 0.00385842)
(0.00383073 -0.00179995 -0.000178748 0.00383073 3.68645e-19 0.00383073)
(0.00383073 -0.00179995 -0.000178748 0.00383073 5.92825e-18 0.00383073)
(0.00380294 -0.00178741 -0.000180084 0.00380294 6.43601e-19 0.00380294)
(0.00380294 -0.00178741 -0.000180084 0.00380294 6.68098e-18 0.00380294)