/*--------------------------------*- C++ -*----------------------------------*\
| =========                 |                                                 |
| \\      /  F ield         | OpenFOAM: The Open Source CFD Toolbox           |
|  \\    /   O peration     | Version:  2012                                  |
|   \\  /    A nd           | Website:  www.openfoam.com                      |
|    \\/     M anipulation  |                                                 |
\*---------------------------------------------------------------------------*/
FoamFile
{
    version     2.0;
    format      ascii;
    class       volScalarField;
    location    "16400";
    object      nut;
}
// * * * * * * * * * * * * * * * * * * * * * * * * * * * * * * * * * * * * * //

dimensions      [0 2 -1 0 0 0 0];


internalField   nonuniform List<scalar> 
2560
(
7.3959e-09
7.3959e-09
1.04359e-06
1.04359e-06
2.14165e-05
2.14165e-05
0.000133412
0.000133412
0.000387221
0.000387221
0.000750321
0.000750321
0.0011831
0.0011831
0.00166196
0.00166196
0.00217327
0.00217327
0.00270852
0.00270852
0.00326193
0.00326193
0.00382936
0.00382936
0.00440769
0.00440769
0.00499447
0.00499447
0.00558772
0.00558772
0.00618582
0.00618582
0.00678737
0.00678737
0.0073912
0.0073912
0.00799625
0.00799625
0.00860162
0.00860162
0.00920646
0.00920646
0.00981001
0.00981001
0.0104116
0.0104116
0.0110105
0.0110105
0.0116062
0.0116062
0.012198
0.012198
0.0127855
0.0127855
0.013368
0.013368
0.0139451
0.0139451
0.0145162
0.0145162
0.015081
0.015081
0.0156388
0.0156388
0.0161893
0.0161893
0.0167319
0.0167319
0.0172664
0.0172664
0.0177923
0.0177923
0.0183091
0.0183091
0.0188165
0.0188165
0.0193142
0.0193142
0.0198019
0.0198019
0.0202792
0.0202792
0.020746
0.020746
0.0212021
0.0212021
0.0216472
0.0216472
0.0220814
0.0220814
0.0225046
0.0225046
0.0229168
0.0229168
0.0233182
0.0233182
0.0237091
0.0237091
0.0240897
0.0240897
0.0244606
0.0244606
0.0248222
0.0248222
0.0251754
0.0251754
0.0255209
0.0255209
0.0258599
0.0258599
0.0261935
0.0261935
0.026523
0.026523
0.0268501
0.0268501
0.0271765
0.0271765
0.0275043
0.0275043
0.0278354
0.0278354
0.0281724
0.0281724
0.0285176
0.0285176
0.0288739
0.0288739
0.0292439
0.0292439
0.0296306
0.0296306
0.0300368
0.0300368
0.0304654
0.0304654
0.0309193
0.0309193
0.031401
0.031401
0.0319128
0.0319128
0.032457
0.032457
0.033035
0.033035
0.0336481
0.0336481
0.0342971
0.0342971
0.0349819
0.0349819
0.0357023
0.0357023
0.0364573
0.0364573
0.0372453
0.0372453
0.0380643
0.0380643
0.0389118
0.0389118
0.0397851
0.0397851
0.0406809
0.0406809
0.041596
0.041596
0.0425267
0.0425267
0.0434694
0.0434694
0.0444206
0.0444206
0.0453767
0.0453767
0.0463342
0.0463342
0.0472898
0.0472898
0.0482405
0.0482405
0.0491832
0.0491832
0.0501153
0.0501153
0.0510345
0.0510345
0.0519384
0.0519384
0.0528251
0.0528251
0.053693
0.053693
0.0545406
0.0545406
0.0553666
0.0553666
0.05617
0.05617
0.0569501
0.0569501
0.0577061
0.0577061
0.0584376
0.0584376
0.0591444
0.0591444
0.0598261
0.0598261
0.0604829
0.0604829
0.0611148
0.0611148
0.061722
0.061722
0.0623046
0.0623046
0.0628631
0.0628631
0.0633979
0.0633979
0.0639093
0.0639093
0.0643979
0.0643979
0.0648642
0.0648642
0.0653087
0.0653087
0.0657321
0.0657321
0.0661347
0.0661347
0.0665173
0.0665173
0.0668805
0.0668805
0.0672247
0.0672247
0.0675506
0.0675506
0.0678586
0.0678586
0.0681495
0.0681495
0.0684236
0.0684236
0.0686814
0.0686814
0.0689236
0.0689236
0.0691505
0.0691505
0.0693626
0.0693626
0.0695602
0.0695602
0.069744
0.069744
0.0699141
0.0699141
0.0700711
0.0700711
0.0702151
0.0702151
0.0703467
0.0703467
0.0704661
0.0704661
0.0705737
0.0705737
0.0706696
0.0706696
0.0707543
0.0707543
0.070828
0.070828
0.0708909
0.0708909
0.0709434
0.0709434
0.0709856
0.0709856
0.0710178
0.0710178
0.0710403
0.0710403
0.0710532
0.0710532
0.0710567
0.0710567
0.0710512
0.0710512
0.0710369
0.0710369
0.0710139
0.0710139
0.0709825
0.0709825
0.0709431
0.0709431
0.0708957
0.0708957
0.0708407
0.0708407
0.0707785
0.0707785
0.0707091
0.0707091
0.0706331
0.0706331
0.0705507
0.0705507
0.0704622
0.0704622
0.070368
0.070368
0.0702684
0.0702684
0.0701638
0.0701638
0.0700545
0.0700545
0.0699409
0.0699409
0.0698234
0.0698234
0.0697021
0.0697021
0.0695774
0.0695774
0.0694495
0.0694495
0.0693186
0.0693186
0.0691849
0.0691849
0.0690487
0.0690487
0.06891
0.06891
0.068769
0.068769
0.0686258
0.0686258
0.0684808
0.0684808
0.068334
0.068334
0.0681859
0.0681859
0.0680366
0.0680366
0.0678865
0.0678865
0.067736
0.067736
0.0675854
0.0675854
0.0674353
0.0674353
0.0672859
0.0672859
0.0671379
0.0671379
0.0669915
0.0669915
0.0668474
0.0668474
0.0667058
0.0667058
0.0665674
0.0665674
0.0664325
0.0664325
0.0663016
0.0663016
0.0661752
0.0661752
0.066054
0.066054
0.0659384
0.0659384
0.0658293
0.0658293
0.0657273
0.0657273
0.0656333
0.0656333
0.065548
0.065548
0.0654725
0.0654725
0.0654078
0.0654078
0.0653547
0.0653547
0.0653146
0.0653146
0.0652883
0.0652883
0.0652771
0.0652771
0.0652819
0.0652819
0.0653038
0.0653038
0.0653436
0.0653436
0.0654022
0.0654022
0.0654802
0.0654802
0.0655784
0.0655784
0.0656971
0.0656971
0.065837
0.065837
0.0659985
0.0659985
0.0661821
0.0661821
0.0663879
0.0663879
0.0666164
0.0666164
0.0668675
0.0668675
0.0671411
0.0671411
0.0674368
0.0674368
0.0677539
0.0677539
0.0680914
0.0680914
0.0684483
0.0684483
0.0688229
0.0688229
0.0692138
0.0692138
0.0696192
0.0696192
0.0700378
0.0700378
0.0704684
0.0704684
0.0709102
0.0709102
0.0713623
0.0713623
0.071824
0.071824
0.0722942
0.0722942
0.0727716
0.0727716
0.0732542
0.0732542
0.0737399
0.0737399
0.0742267
0.0742268
0.0747129
0.0747129
0.0751969
0.0751969
0.0756773
0.0756773
0.0761532
0.0761532
0.0766241
0.0766241
0.07709
0.0770901
0.0775516
0.0775516
0.0780099
0.0780099
0.0784658
0.0784658
0.0789199
0.07892
0.0793719
0.0793719
0.0798202
0.0798203
0.0802623
0.0802623
0.0806943
0.0806943
0.0811113
0.0811113
0.0815076
0.0815077
0.081878
0.081878
0.0822186
0.0822186
0.0825285
0.0825286
0.0828097
0.0828098
0.0830665
0.0830666
0.0833064
0.0833064
0.083538
0.083538
0.0837676
0.0837676
0.0839979
0.0839979
0.0842279
0.0842278
0.084457
0.084457
0.0846861
0.0846861
0.0849188
0.0849187
0.085161
0.085161
0.0854207
0.0854207
0.0857059
0.0857059
0.0860244
0.0860244
0.0863825
0.0863825
0.0867851
0.0867851
0.0872359
0.0872359
0.0877375
0.0877375
0.0882915
0.0882915
0.0888982
0.0888982
0.0895557
0.0895557
0.0902601
0.0902601
0.0910048
0.0910048
0.091781
0.091781
0.0925779
0.0925779
0.0933826
0.0933826
0.0941805
0.0941805
0.0949575
0.0949576
0.0957016
0.0957016
0.0964017
0.0964018
0.0970454
0.0970454
0.0976179
0.0976179
0.0981053
0.0981053
0.0984997
0.0984997
0.0988028
0.0988028
0.0990244
0.0990244
0.0991809
0.0991809
0.0992964
0.0992964
0.0994023
0.0994023
0.0995293
0.0995293
0.0996979
0.0996979
0.0999172
0.0999172
0.10019
0.10019
0.100519
0.100519
0.100906
0.100906
0.101354
0.101354
0.101864
0.101864
0.102436
0.102436
0.103065
0.103065
0.103739
0.103739
0.10444
0.10444
0.105149
0.105149
0.105843
0.105843
0.106492
0.106492
0.107052
0.107052
0.107487
0.107487
0.107776
0.107776
0.107923
0.107923
0.107953
0.107953
0.107894
0.107894
0.107768
0.107768
0.107596
0.107596
0.107402
0.107402
0.107213
0.107213
0.107046
0.107046
0.106908
0.106908
0.106804
0.106804
0.106745
0.106745
7.3959e-09
7.3959e-09
1.04359e-06
1.04359e-06
2.14165e-05
2.14165e-05
0.000133412
0.000133412
0.000387221
0.000387221
0.000750321
0.000750321
0.0011831
0.0011831
0.00166196
0.00166196
0.00217327
0.00217327
0.00270852
0.00270852
0.00326193
0.00326193
0.00382936
0.00382936
0.00440769
0.00440769
0.00499447
0.00499447
0.00558772
0.00558772
0.00618582
0.00618582
0.00678737
0.00678737
0.0073912
0.0073912
0.00799625
0.00799625
0.00860162
0.00860162
0.00920646
0.00920646
0.00981001
0.00981001
0.0104116
0.0104116
0.0110105
0.0110105
0.0116062
0.0116062
0.012198
0.012198
0.0127855
0.0127855
0.013368
0.013368
0.0139451
0.0139451
0.0145162
0.0145162
0.015081
0.015081
0.0156388
0.0156388
0.0161893
0.0161893
0.016732
0.016732
0.0172664
0.0172664
0.0177923
0.0177923
0.0183091
0.0183091
0.0188165
0.0188165
0.0193142
0.0193142
0.0198019
0.0198019
0.0202792
0.0202792
0.020746
0.020746
0.0212021
0.0212021
0.0216472
0.0216472
0.0220814
0.0220814
0.0225046
0.0225046
0.0229168
0.0229168
0.0233182
0.0233182
0.0237091
0.0237091
0.0240897
0.0240897
0.0244606
0.0244606
0.0248222
0.0248222
0.0251754
0.0251754
0.0255209
0.0255209
0.0258599
0.0258599
0.0261935
0.0261935
0.026523
0.026523
0.0268501
0.0268501
0.0271765
0.0271765
0.0275043
0.0275043
0.0278354
0.0278354
0.0281724
0.0281724
0.0285176
0.0285176
0.0288739
0.0288739
0.0292439
0.0292439
0.0296306
0.0296306
0.0300368
0.0300368
0.0304654
0.0304654
0.0309193
0.0309193
0.031401
0.031401
0.0319128
0.0319128
0.032457
0.032457
0.033035
0.033035
0.0336481
0.0336481
0.0342971
0.0342971
0.0349819
0.0349819
0.0357023
0.0357023
0.0364573
0.0364573
0.0372453
0.0372453
0.0380643
0.0380643
0.0389118
0.0389118
0.0397851
0.0397851
0.0406809
0.0406809
0.041596
0.041596
0.0425266
0.0425266
0.0434694
0.0434694
0.0444206
0.0444206
0.0453767
0.0453767
0.0463342
0.0463342
0.0472898
0.0472898
0.0482405
0.0482405
0.0491832
0.0491832
0.0501153
0.0501153
0.0510345
0.0510345
0.0519384
0.0519384
0.0528251
0.0528251
0.053693
0.053693
0.0545406
0.0545406
0.0553666
0.0553666
0.05617
0.05617
0.05695
0.05695
0.0577061
0.0577061
0.0584376
0.0584376
0.0591443
0.0591443
0.0598261
0.0598261
0.0604829
0.0604829
0.0611148
0.0611148
0.061722
0.061722
0.0623046
0.0623046
0.0628631
0.0628631
0.0633979
0.0633979
0.0639093
0.0639093
0.0643979
0.0643979
0.0648642
0.0648642
0.0653087
0.0653087
0.0657321
0.0657321
0.0661347
0.0661347
0.0665173
0.0665173
0.0668805
0.0668805
0.0672247
0.0672247
0.0675505
0.0675505
0.0678586
0.0678586
0.0681495
0.0681495
0.0684236
0.0684236
0.0686814
0.0686814
0.0689236
0.0689236
0.0691505
0.0691505
0.0693626
0.0693626
0.0695602
0.0695602
0.069744
0.069744
0.0699141
0.0699141
0.070071
0.070071
0.0702151
0.0702151
0.0703467
0.0703467
0.0704661
0.0704661
0.0705737
0.0705737
0.0706696
0.0706696
0.0707543
0.0707543
0.070828
0.070828
0.0708909
0.0708909
0.0709434
0.0709434
0.0709856
0.0709856
0.0710178
0.0710178
0.0710403
0.0710403
0.0710532
0.0710532
0.0710567
0.0710567
0.0710512
0.0710512
0.0710369
0.0710369
0.0710139
0.0710139
0.0709825
0.0709825
0.0709431
0.0709431
0.0708957
0.0708957
0.0708407
0.0708407
0.0707785
0.0707785
0.0707091
0.0707091
0.0706331
0.0706331
0.0705507
0.0705507
0.0704622
0.0704622
0.070368
0.070368
0.0702684
0.0702684
0.0701638
0.0701638
0.0700545
0.0700545
0.0699409
0.0699409
0.0698233
0.0698233
0.0697021
0.0697021
0.0695774
0.0695774
0.0694495
0.0694495
0.0693186
0.0693186
0.0691849
0.0691849
0.0690487
0.0690487
0.06891
0.06891
0.068769
0.068769
0.0686258
0.0686258
0.0684808
0.0684808
0.068334
0.068334
0.0681859
0.0681859
0.0680366
0.0680366
0.0678865
0.0678865
0.067736
0.067736
0.0675854
0.0675854
0.0674353
0.0674353
0.0672859
0.0672859
0.0671379
0.0671379
0.0669915
0.0669915
0.0668474
0.0668474
0.0667058
0.0667058
0.0665674
0.0665674
0.0664325
0.0664325
0.0663016
0.0663016
0.0661752
0.0661752
0.066054
0.066054
0.0659384
0.0659384
0.0658293
0.0658293
0.0657273
0.0657273
0.0656333
0.0656333
0.065548
0.065548
0.0654725
0.0654725
0.0654078
0.0654078
0.0653547
0.0653547
0.0653146
0.0653146
0.0652883
0.0652883
0.0652771
0.0652771
0.0652819
0.0652819
0.0653038
0.0653038
0.0653436
0.0653436
0.0654022
0.0654022
0.0654802
0.0654802
0.0655784
0.0655784
0.0656971
0.0656971
0.0658371
0.0658371
0.0659985
0.0659985
0.0661821
0.0661821
0.066388
0.066388
0.0666164
0.0666164
0.0668676
0.0668676
0.0671411
0.0671411
0.0674368
0.0674368
0.0677539
0.0677539
0.0680915
0.0680915
0.0684483
0.0684483
0.068823
0.068823
0.0692138
0.0692138
0.0696192
0.0696192
0.0700379
0.0700379
0.0704685
0.0704685
0.0709102
0.0709102
0.0713623
0.0713623
0.071824
0.071824
0.0722943
0.0722943
0.0727716
0.0727716
0.0732542
0.0732542
0.07374
0.0737399
0.0742268
0.0742268
0.074713
0.074713
0.0751969
0.0751969
0.0756773
0.0756773
0.0761533
0.0761533
0.0766242
0.0766242
0.0770901
0.0770901
0.0775517
0.0775517
0.0780099
0.0780099
0.0784659
0.0784659
0.07892
0.07892
0.079372
0.079372
0.0798203
0.0798203
0.0802624
0.0802623
0.0806944
0.0806943
0.0811114
0.0811113
0.0815077
0.0815077
0.081878
0.081878
0.0822187
0.0822186
0.0825286
0.0825285
0.0828098
0.0828097
0.0830666
0.0830665
0.0833064
0.0833064
0.083538
0.083538
0.0837676
0.0837677
0.0839979
0.083998
0.0842278
0.0842279
0.084457
0.084457
0.0846861
0.0846861
0.0849187
0.0849188
0.085161
0.0851611
0.0854207
0.0854207
0.0857059
0.0857059
0.0860244
0.0860244
0.0863825
0.0863825
0.0867851
0.0867851
0.0872359
0.0872359
0.0877375
0.0877375
0.0882915
0.0882915
0.0888982
0.0888982
0.0895557
0.0895557
0.0902601
0.0902601
0.0910048
0.0910048
0.091781
0.091781
0.0925779
0.0925779
0.0933826
0.0933826
0.0941805
0.0941805
0.0949576
0.0949575
0.0957016
0.0957016
0.0964017
0.0964017
0.0970454
0.0970454
0.0976179
0.0976179
0.0981052
0.0981052
0.0984997
0.0984997
0.0988027
0.0988027
0.0990244
0.0990244
0.0991809
0.0991809
0.0992964
0.0992964
0.0994023
0.0994023
0.0995293
0.0995293
0.0996979
0.0996979
0.0999172
0.0999172
0.10019
0.10019
0.100519
0.100519
0.100906
0.100906
0.101354
0.101354
0.101864
0.101864
0.102436
0.102436
0.103065
0.103065
0.103739
0.103739
0.10444
0.10444
0.105149
0.105149
0.105843
0.105843
0.106492
0.106492
0.107052
0.107052
0.107487
0.107487
0.107776
0.107776
0.107923
0.107923
0.107953
0.107953
0.107894
0.107894
0.107768
0.107768
0.107596
0.107596
0.107402
0.107402
0.107213
0.107213
0.107046
0.107046
0.106908
0.106908
0.106804
0.106804
0.106745
0.106745
0.106744
0.106744
0.106802
0.106802
0.106905
0.106905
0.107041
0.107041
0.107207
0.107207
0.107393
0.107393
0.107584
0.107584
0.107755
0.107755
0.107876
0.107876
0.107928
0.107928
0.107892
0.107892
0.10774
0.10774
0.107447
0.107448
0.107011
0.107011
0.106452
0.106452
0.105808
0.105808
0.105118
0.105118
0.104413
0.104413
0.103715
0.103715
0.103044
0.103044
0.102419
0.102419
0.10185
0.10185
0.101343
0.101343
0.100898
0.100898
0.100514
0.100514
0.100189
0.100189
0.0999188
0.0999188
0.0997022
0.0997022
0.0995362
0.0995362
0.0994117
0.0994117
0.0993084
0.0993084
0.0991953
0.0991953
0.0990399
0.0990399
0.0988176
0.0988176
0.0985124
0.0985124
0.0981144
0.0981144
0.0976234
0.0976234
0.0970484
0.0970484
0.0964029
0.0964029
0.0957017
0.0957017
0.0949565
0.0949565
0.0941784
0.0941785
0.0933795
0.0933795
0.0925736
0.0925736
0.0917754
0.0917755
0.0909981
0.0909981
0.0902523
0.0902523
0.0895471
0.0895471
0.088889
0.088889
0.0882821
0.0882821
0.087728
0.087728
0.0872264
0.0872264
0.0867756
0.0867756
0.0863729
0.0863729
0.0860149
0.0860149
0.0856968
0.0856967
0.0854118
0.0854118
0.0851523
0.0851523
0.0849103
0.0849102
0.0846782
0.0846782
0.0844498
0.0844498
0.0842211
0.0842211
0.0839913
0.0839912
0.0837608
0.0837608
0.0835307
0.0835307
0.0832984
0.0832985
0.0830583
0.0830583
0.0828014
0.0828015
0.0825202
0.0825202
0.0822098
0.0822099
0.0818685
0.0818686
0.0814978
0.0814978
0.0811014
0.0811015
0.0806848
0.0806849
0.0802537
0.0802537
0.0798129
0.0798129
0.079366
0.079366
0.0789152
0.0789153
0.0784619
0.0784619
0.0780062
0.0780062
0.0775479
0.0775479
0.077086
0.077086
0.0766198
0.0766198
0.0761487
0.0761487
0.0756726
0.0756726
0.075192
0.075192
0.074708
0.074708
0.074222
0.074222
0.0737353
0.0737353
0.0732498
0.0732498
0.0727676
0.0727676
0.0722907
0.0722908
0.0718211
0.0718211
0.0713602
0.0713602
0.0709089
0.0709089
0.0704678
0.0704678
0.0700376
0.0700376
0.0696193
0.0696193
0.0692142
0.0692142
0.0688235
0.0688235
0.0684491
0.0684491
0.0680925
0.0680925
0.0677551
0.0677551
0.0674381
0.0674381
0.0671424
0.0671424
0.0668687
0.0668687
0.0666174
0.0666174
0.0663887
0.0663887
0.0661827
0.0661827
0.065999
0.065999
0.0658374
0.0658374
0.0656975
0.0656975
0.0655788
0.0655788
0.0654807
0.0654807
0.0654027
0.0654027
0.0653442
0.0653442
0.0653045
0.0653045
0.0652828
0.0652828
0.065278
0.065278
0.0652894
0.0652894
0.0653157
0.0653157
0.0653559
0.0653559
0.0654089
0.0654089
0.0654737
0.0654737
0.0655492
0.0655492
0.0656345
0.0656345
0.0657286
0.0657286
0.0658306
0.0658306
0.0659398
0.0659398
0.0660553
0.0660553
0.0661766
0.0661766
0.066303
0.066303
0.0664339
0.0664339
0.0665688
0.0665688
0.0667073
0.0667073
0.0668488
0.0668488
0.0669929
0.0669929
0.0671393
0.0671393
0.0672873
0.0672873
0.0674367
0.0674367
0.0675868
0.0675868
0.0677374
0.0677374
0.0678879
0.0678879
0.0680381
0.0680381
0.0681874
0.0681874
0.0683356
0.0683356
0.0684824
0.0684824
0.0686274
0.0686274
0.0687706
0.0687706
0.0689116
0.0689116
0.0690504
0.0690504
0.0691867
0.0691867
0.0693204
0.0693204
0.0694513
0.0694513
0.0695793
0.0695793
0.069704
0.069704
0.0698253
0.0698253
0.0699429
0.0699429
0.0700566
0.0700566
0.0701658
0.0701658
0.0702704
0.0702704
0.0703701
0.0703701
0.0704643
0.0704643
0.0705528
0.0705528
0.0706353
0.0706353
0.0707114
0.0707114
0.0707807
0.0707807
0.070843
0.070843
0.070898
0.070898
0.0709454
0.0709454
0.070985
0.070985
0.0710164
0.0710164
0.0710394
0.0710394
0.0710538
0.0710538
0.0710594
0.0710594
0.0710558
0.0710558
0.071043
0.071043
0.0710207
0.0710207
0.0709885
0.0709885
0.0709464
0.0709464
0.070894
0.070894
0.0708312
0.0708312
0.0707576
0.0707576
0.070673
0.070673
0.0705771
0.0705771
0.0704696
0.0704696
0.0703503
0.0703503
0.0702187
0.0702187
0.0700747
0.0700747
0.0699178
0.0699178
0.0697477
0.0697477
0.069564
0.069564
0.0693664
0.0693664
0.0691543
0.0691543
0.0689275
0.0689275
0.0686853
0.0686853
0.0684275
0.0684275
0.0681533
0.0681533
0.0678625
0.0678625
0.0675544
0.0675544
0.0672285
0.0672285
0.0668842
0.0668842
0.066521
0.066521
0.0661382
0.0661382
0.0657354
0.0657354
0.065312
0.065312
0.0648673
0.0648673
0.064401
0.064401
0.0639123
0.0639123
0.0634009
0.0634009
0.0628661
0.0628661
0.0623076
0.0623076
0.061725
0.061725
0.0611179
0.0611179
0.060486
0.060486
0.0598292
0.0598292
0.0591474
0.0591474
0.0584406
0.0584406
0.057709
0.057709
0.056953
0.056953
0.056173
0.056173
0.0553696
0.0553696
0.0545437
0.0545437
0.0536962
0.0536962
0.0528284
0.0528284
0.0519417
0.0519417
0.0510377
0.0510377
0.0501185
0.0501185
0.0491861
0.0491861
0.0482429
0.0482429
0.0472919
0.0472919
0.046336
0.046336
0.0453782
0.0453782
0.044422
0.044422
0.0434706
0.0434706
0.0425276
0.0425276
0.0415966
0.0415966
0.0406813
0.0406813
0.0397851
0.0397851
0.0389115
0.0389115
0.0380637
0.0380637
0.0372443
0.0372443
0.036456
0.036456
0.0357008
0.0357008
0.0349801
0.0349801
0.0342949
0.0342949
0.0336457
0.0336457
0.0330323
0.0330323
0.032454
0.032454
0.0319096
0.0319096
0.0313974
0.0313974
0.0309155
0.0309155
0.0304615
0.0304615
0.0300327
0.0300327
0.0296263
0.0296263
0.0292395
0.0292395
0.0288694
0.0288694
0.028513
0.028513
0.0281677
0.0281677
0.0278306
0.0278306
0.0274994
0.0274994
0.0271716
0.0271716
0.0268452
0.0268452
0.0265181
0.0265181
0.0261886
0.0261886
0.0258551
0.0258551
0.0255163
0.0255163
0.0251709
0.0251709
0.0248179
0.0248179
0.0244564
0.0244564
0.0240856
0.0240856
0.0237051
0.0237051
0.0233145
0.0233145
0.0229132
0.0229132
0.0225012
0.0225012
0.0220782
0.0220782
0.0216442
0.0216442
0.0211992
0.0211992
0.0207433
0.0207433
0.0202767
0.0202767
0.0197995
0.0197995
0.0193119
0.0193119
0.0188144
0.0188144
0.0183071
0.0183071
0.0177904
0.0177904
0.0172646
0.0172646
0.0167303
0.0167303
0.0161877
0.0161877
0.0156373
0.0156373
0.0150796
0.0150796
0.0145149
0.0145149
0.0139439
0.0139439
0.0133669
0.0133669
0.0127845
0.0127845
0.0121971
0.0121971
0.0116054
0.0116054
0.0110098
0.0110098
0.0104109
0.0104109
0.00980942
0.00980942
0.00920593
0.00920593
0.00860115
0.00860115
0.00799584
0.00799584
0.00739083
0.00739083
0.00678706
0.00678706
0.00618555
0.00618555
0.0055875
0.0055875
0.00499429
0.00499429
0.00440754
0.00440754
0.00382925
0.00382925
0.00326184
0.00326184
0.00270845
0.00270845
0.00217323
0.00217323
0.00166193
0.00166193
0.00118308
0.00118308
0.000750312
0.000750312
0.000387218
0.000387218
0.000133411
0.000133411
2.14164e-05
2.14164e-05
1.04358e-06
1.04358e-06
7.39597e-09
7.39597e-09
0.106744
0.106744
0.106802
0.106802
0.106905
0.106905
0.107041
0.107041
0.107207
0.107207
0.107393
0.107393
0.107584
0.107584
0.107755
0.107755
0.107876
0.107876
0.107928
0.107928
0.107892
0.107892
0.10774
0.10774
0.107448
0.107447
0.107011
0.107011
0.106452
0.106452
0.105808
0.105808
0.105118
0.105118
0.104413
0.104413
0.103715
0.103715
0.103044
0.103044
0.102419
0.102419
0.10185
0.10185
0.101343
0.101343
0.100898
0.100898
0.100514
0.100514
0.100189
0.100189
0.0999188
0.0999188
0.0997022
0.0997022
0.0995363
0.0995363
0.0994117
0.0994117
0.0993085
0.0993085
0.0991953
0.0991953
0.0990399
0.0990399
0.0988177
0.0988177
0.0985124
0.0985124
0.0981144
0.0981144
0.0976235
0.0976235
0.0970485
0.0970484
0.096403
0.096403
0.0957017
0.0957017
0.0949566
0.0949566
0.0941785
0.0941785
0.0933795
0.0933795
0.0925736
0.0925736
0.0917755
0.0917755
0.0909981
0.0909981
0.0902523
0.0902523
0.0895471
0.0895471
0.0888891
0.0888891
0.0882821
0.0882821
0.087728
0.087728
0.0872264
0.0872264
0.0867756
0.0867756
0.0863729
0.0863729
0.086015
0.086015
0.0856968
0.0856968
0.0854118
0.0854119
0.0851524
0.0851524
0.0849103
0.0849103
0.0846782
0.0846783
0.0844498
0.0844499
0.0842211
0.0842212
0.0839913
0.0839914
0.0837609
0.0837609
0.0835308
0.0835307
0.0832986
0.0832985
0.0830584
0.0830583
0.0828016
0.0828015
0.0825203
0.0825202
0.0822099
0.0822099
0.0818686
0.0818686
0.0814979
0.0814978
0.0811016
0.0811015
0.0806849
0.0806849
0.0802538
0.0802537
0.079813
0.0798129
0.079366
0.079366
0.0789153
0.0789153
0.0784619
0.0784619
0.0780062
0.0780062
0.0775479
0.0775479
0.077086
0.077086
0.0766198
0.0766198
0.0761487
0.0761487
0.0756726
0.0756726
0.075192
0.075192
0.074708
0.074708
0.074222
0.074222
0.0737353
0.0737353
0.0732497
0.0732497
0.0727675
0.0727675
0.0722907
0.0722907
0.0718211
0.0718211
0.0713602
0.0713602
0.0709089
0.0709089
0.0704678
0.0704677
0.0700376
0.0700376
0.0696193
0.0696193
0.0692141
0.0692141
0.0688234
0.0688234
0.068449
0.068449
0.0680924
0.0680924
0.067755
0.067755
0.067438
0.067438
0.0671424
0.0671424
0.0668686
0.0668686
0.0666173
0.0666173
0.0663887
0.0663887
0.0661826
0.0661826
0.0659989
0.0659989
0.0658374
0.0658374
0.0656975
0.0656975
0.0655787
0.0655787
0.0654807
0.0654807
0.0654027
0.0654027
0.0653442
0.0653442
0.0653045
0.0653045
0.0652827
0.0652827
0.065278
0.065278
0.0652893
0.0652893
0.0653156
0.0653156
0.0653558
0.0653558
0.0654089
0.0654089
0.0654737
0.0654737
0.0655492
0.0655492
0.0656345
0.0656345
0.0657286
0.0657286
0.0658306
0.0658306
0.0659397
0.0659397
0.0660553
0.0660553
0.0661766
0.0661766
0.066303
0.066303
0.0664339
0.0664339
0.0665688
0.0665688
0.0667072
0.0667072
0.0668488
0.0668488
0.0669929
0.0669929
0.0671393
0.0671393
0.0672873
0.0672873
0.0674367
0.0674367
0.0675868
0.0675868
0.0677374
0.0677374
0.0678879
0.0678879
0.068038
0.068038
0.0681874
0.0681874
0.0683356
0.0683356
0.0684824
0.0684824
0.0686274
0.0686274
0.0687706
0.0687706
0.0689116
0.0689116
0.0690504
0.0690504
0.0691867
0.0691867
0.0693204
0.0693204
0.0694513
0.0694513
0.0695793
0.0695793
0.069704
0.069704
0.0698253
0.0698253
0.0699429
0.0699429
0.0700565
0.0700565
0.0701658
0.0701658
0.0702704
0.0702704
0.07037
0.07037
0.0704643
0.0704643
0.0705528
0.0705528
0.0706353
0.0706353
0.0707114
0.0707114
0.0707807
0.0707807
0.070843
0.070843
0.070898
0.070898
0.0709454
0.0709454
0.070985
0.070985
0.0710164
0.0710164
0.0710394
0.0710394
0.0710538
0.0710538
0.0710594
0.0710594
0.0710558
0.0710558
0.071043
0.071043
0.0710207
0.0710207
0.0709885
0.0709885
0.0709464
0.0709464
0.070894
0.070894
0.0708312
0.0708312
0.0707576
0.0707576
0.070673
0.070673
0.0705771
0.0705771
0.0704696
0.0704696
0.0703503
0.0703503
0.0702187
0.0702187
0.0700747
0.0700747
0.0699178
0.0699178
0.0697477
0.0697477
0.069564
0.069564
0.0693664
0.0693664
0.0691543
0.0691543
0.0689275
0.0689275
0.0686853
0.0686853
0.0684275
0.0684275
0.0681533
0.0681533
0.0678625
0.0678625
0.0675544
0.0675544
0.0672284
0.0672284
0.0668842
0.0668842
0.066521
0.066521
0.0661382
0.0661382
0.0657354
0.0657354
0.0653119
0.0653119
0.0648673
0.0648673
0.0644009
0.0644009
0.0639123
0.0639123
0.0634009
0.0634009
0.0628661
0.0628661
0.0623076
0.0623076
0.061725
0.061725
0.0611178
0.0611178
0.060486
0.060486
0.0598292
0.0598292
0.0591474
0.0591474
0.0584406
0.0584406
0.057709
0.057709
0.056953
0.056953
0.056173
0.056173
0.0553696
0.0553696
0.0545437
0.0545437
0.0536962
0.0536962
0.0528284
0.0528284
0.0519417
0.0519417
0.0510377
0.0510377
0.0501184
0.0501184
0.049186
0.049186
0.0482429
0.0482429
0.0472919
0.0472919
0.0463359
0.0463359
0.0453782
0.0453782
0.0444219
0.0444219
0.0434705
0.0434705
0.0425276
0.0425276
0.0415966
0.0415966
0.0406813
0.0406813
0.0397851
0.0397851
0.0389115
0.0389115
0.0380636
0.0380636
0.0372443
0.0372443
0.036456
0.036456
0.0357008
0.0357008
0.0349801
0.0349801
0.0342949
0.0342949
0.0336457
0.0336457
0.0330323
0.0330323
0.032454
0.032454
0.0319096
0.0319096
0.0313974
0.0313974
0.0309155
0.0309155
0.0304615
0.0304615
0.0300327
0.0300327
0.0296263
0.0296263
0.0292395
0.0292395
0.0288694
0.0288694
0.028513
0.028513
0.0281677
0.0281677
0.0278306
0.0278306
0.0274994
0.0274994
0.0271716
0.0271716
0.0268452
0.0268452
0.0265181
0.0265181
0.0261886
0.0261886
0.0258551
0.0258551
0.0255163
0.0255163
0.0251709
0.0251709
0.0248179
0.0248179
0.0244564
0.0244564
0.0240856
0.0240856
0.0237051
0.0237051
0.0233145
0.0233145
0.0229132
0.0229132
0.0225012
0.0225012
0.0220782
0.0220782
0.0216442
0.0216442
0.0211992
0.0211992
0.0207433
0.0207433
0.0202767
0.0202767
0.0197995
0.0197995
0.019312
0.019312
0.0188144
0.0188144
0.0183071
0.0183071
0.0177904
0.0177904
0.0172646
0.0172646
0.0167303
0.0167303
0.0161877
0.0161877
0.0156373
0.0156373
0.0150796
0.0150796
0.0145149
0.0145149
0.0139439
0.0139439
0.0133669
0.0133669
0.0127845
0.0127845
0.0121971
0.0121971
0.0116054
0.0116054
0.0110098
0.0110098
0.0104109
0.0104109
0.00980942
0.00980942
0.00920593
0.00920593
0.00860115
0.00860115
0.00799584
0.00799584
0.00739083
0.00739083
0.00678706
0.00678706
0.00618555
0.00618555
0.0055875
0.0055875
0.00499429
0.00499429
0.00440754
0.00440754
0.00382925
0.00382925
0.00326184
0.00326184
0.00270845
0.00270845
0.00217323
0.00217323
0.00166193
0.00166193
0.00118308
0.00118308
0.000750312
0.000750312
0.000387218
0.000387218
0.000133411
0.000133411
2.14163e-05
2.14163e-05
1.04358e-06
1.04358e-06
7.39597e-09
7.39597e-09
)
;

boundaryField
{
    walls
    {
        type            nutUWallFunction;
        blending        stepwise;
        Cmu             0.09;
        kappa           0.41;
        E               9.8;
        value           uniform 0;
    }
    inlet
    {
        type            cyclic;
    }
    outlet
    {
        type            cyclic;
    }
    sides
    {
        type            empty;
    }
}


// ************************************************************************* //
