/*--------------------------------*- C++ -*----------------------------------*\
| =========                 |                                                 |
| \\      /  F ield         | OpenFOAM: The Open Source CFD Toolbox           |
|  \\    /   O peration     | Version:  2012                                  |
|   \\  /    A nd           | Website:  www.openfoam.com                      |
|    \\/     M anipulation  |                                                 |
\*---------------------------------------------------------------------------*/
FoamFile
{
    version     2.0;
    format      ascii;
    class       volScalarField;
    location    "16400";
    object      omega;
}
// * * * * * * * * * * * * * * * * * * * * * * * * * * * * * * * * * * * * * //

dimensions      [0 0 -1 0 0 0 0];


internalField   nonuniform List<scalar> 
2560
(
1.52417e+06
1.52417e+06
264375
264375
87955.6
87955.6
41448.6
41448.6
25303.7
25303.7
18278.9
18278.9
14544.8
14544.8
12258.1
12258.1
10717.6
10717.6
9608.32
9608.32
8770.23
8770.23
8113.6
8113.6
7584.36
7584.36
7148.02
7148.02
6781.51
6781.51
6468.81
6468.81
6198.44
6198.44
5961.95
5961.95
5752.95
5752.95
5566.56
5566.56
5398.95
5398.95
5247.06
5247.06
5108.44
5108.44
4981.09
4981.09
4863.35
4863.35
4753.84
4753.84
4651.4
4651.4
4555.04
4555.04
4463.92
4463.92
4377.3
4377.3
4294.55
4294.55
4215.12
4215.12
4138.53
4138.53
4064.35
4064.35
3992.2
3992.2
3921.76
3921.76
3852.72
3852.72
3784.84
3784.84
3717.89
3717.89
3651.65
3651.65
3585.97
3585.97
3520.7
3520.7
3455.69
3455.69
3390.86
3390.86
3326.11
3326.11
3261.39
3261.39
3196.63
3196.63
3131.82
3131.82
3066.95
3066.95
3002.01
3002.01
2937.03
2937.03
2872.06
2872.06
2807.14
2807.14
2742.34
2742.34
2677.75
2677.75
2613.45
2613.45
2549.57
2549.57
2486.2
2486.2
2423.48
2423.48
2361.55
2361.55
2300.54
2300.54
2240.59
2240.59
2181.85
2181.85
2124.46
2124.46
2068.56
2068.56
2014.29
2014.29
1961.77
1961.77
1911.11
1911.11
1862.41
1862.41
1815.76
1815.76
1771.22
1771.22
1728.82
1728.82
1688.61
1688.61
1650.57
1650.57
1614.68
1614.68
1580.9
1580.9
1549.17
1549.17
1519.4
1519.4
1491.5
1491.5
1465.37
1465.37
1440.86
1440.86
1417.87
1417.87
1396.26
1396.26
1375.88
1375.88
1356.61
1356.61
1338.32
1338.32
1320.87
1320.87
1304.14
1304.14
1288.02
1288.02
1272.4
1272.4
1257.18
1257.18
1242.28
1242.28
1227.61
1227.61
1213.1
1213.1
1198.69
1198.69
1184.33
1184.33
1169.98
1169.98
1155.59
1155.59
1141.13
1141.13
1126.59
1126.59
1111.94
1111.94
1097.18
1097.18
1082.29
1082.29
1067.28
1067.28
1052.14
1052.14
1036.89
1036.89
1021.52
1021.52
1006.04
1006.04
990.469
990.469
974.818
974.818
959.098
959.098
943.323
943.323
927.51
927.51
911.672
911.672
895.825
895.825
879.983
879.983
864.162
864.162
848.375
848.375
832.638
832.638
816.962
816.962
801.361
801.361
785.847
785.847
770.431
770.431
755.125
755.125
739.937
739.937
724.878
724.878
709.956
709.956
695.179
695.179
680.555
680.555
666.088
666.088
651.787
651.787
637.656
637.656
623.7
623.7
609.924
609.924
596.331
596.331
582.925
582.925
569.709
569.709
556.685
556.685
543.856
543.856
531.223
531.223
518.788
518.788
506.553
506.553
494.517
494.517
482.682
482.682
471.049
471.049
459.617
459.617
448.387
448.387
437.357
437.357
426.529
426.529
415.902
415.902
405.474
405.474
395.247
395.247
385.218
385.218
375.386
375.386
365.752
365.752
356.314
356.314
347.071
347.071
338.022
338.022
329.165
329.165
320.499
320.499
312.023
312.023
303.736
303.736
295.634
295.634
287.717
287.717
279.982
279.982
272.427
272.427
265.049
265.049
257.846
257.846
250.814
250.814
243.95
243.95
237.253
237.253
230.717
230.717
224.342
224.342
218.123
218.123
212.058
212.058
206.144
206.144
200.379
200.379
194.76
194.76
189.285
189.285
183.95
183.95
178.755
178.755
173.696
173.696
168.772
168.772
163.979
163.979
159.315
159.315
154.778
154.778
150.365
150.365
146.074
146.074
141.902
141.902
137.847
137.847
133.907
133.907
130.079
130.079
126.361
126.361
122.752
122.752
119.249
119.249
115.85
115.85
112.554
112.554
109.358
109.358
106.262
106.262
103.263
103.263
100.36
100.36
97.5509
97.5509
94.8341
94.8341
92.2076
92.2076
89.6694
89.6694
87.2174
87.2174
84.8492
84.8492
82.5627
82.5627
80.3553
80.3553
78.225
78.225
76.1692
76.1692
74.186
74.186
72.273
72.273
70.4279
70.4279
68.6486
68.6486
66.9324
66.9324
65.2768
65.2768
63.6792
63.6792
62.1367
62.1367
60.6464
60.6464
59.2053
59.2053
57.8105
57.8105
56.4592
56.4592
55.149
55.1489
53.8777
53.8777
52.6437
52.6436
51.4453
51.4453
50.2811
50.2811
49.1495
49.1495
48.0486
48.0486
46.9765
46.9765
45.931
45.931
44.9103
44.9103
43.9126
43.9126
42.9365
42.9365
41.9809
41.9809
41.0448
41.0448
40.1275
40.1275
39.2288
39.2288
38.3486
38.3486
37.4873
37.4873
36.6449
36.6449
35.8215
35.8215
35.0164
35.0164
34.2287
34.2287
33.4568
33.4568
32.6988
32.6988
31.9523
31.9523
31.2148
31.2149
30.4842
30.4842
29.7589
29.7589
29.0386
29.0387
28.3243
28.3244
27.6177
27.6177
26.9212
26.9212
26.2379
26.2379
25.5696
25.5696
24.9167
24.9166
24.2785
24.2784
23.6544
23.6544
23.0444
23.0444
22.4491
22.449
21.8697
21.8697
21.3079
21.3079
20.7653
20.7653
20.2433
20.2433
19.7427
19.7427
19.2641
19.264
18.8075
18.8075
18.3729
18.3729
17.9601
17.9601
17.5684
17.5684
17.197
17.197
16.8446
16.8446
16.5096
16.5095
16.1898
16.1898
15.883
15.883
15.5867
15.5867
15.2981
15.2981
15.0148
15.0148
14.7347
14.7347
14.4562
14.4562
14.1772
14.1772
13.8957
13.8957
13.6099
13.6099
13.3188
13.3188
13.0231
13.0231
12.7248
12.7248
12.4263
12.4263
12.1312
12.1312
11.8437
11.8437
11.5677
11.5677
11.3055
11.3055
11.058
11.058
10.825
10.825
10.6065
10.6065
10.4027
10.4027
10.2135
10.2135
10.039
10.039
9.87894
9.87893
9.73276
9.73275
9.59921
9.59921
9.47664
9.47663
9.36325
9.36325
9.25705
9.25704
9.15518
9.15518
9.05407
9.05407
8.95054
8.95054
8.84312
8.84311
8.73261
8.7326
8.62161
8.6216
8.51304
8.51303
8.4092
8.40919
8.31211
8.3121
8.22418
8.22417
8.14785
8.14785
8.08481
8.08481
8.03592
8.03593
8.00192
8.00193
7.98411
7.98412
1.52417e+06
1.52417e+06
264375
264375
87955.6
87955.6
41448.6
41448.6
25303.7
25303.7
18278.9
18278.9
14544.8
14544.8
12258.1
12258.1
10717.6
10717.6
9608.32
9608.32
8770.23
8770.23
8113.6
8113.6
7584.36
7584.36
7148.02
7148.02
6781.51
6781.51
6468.81
6468.81
6198.44
6198.44
5961.95
5961.95
5752.95
5752.95
5566.56
5566.56
5398.95
5398.95
5247.06
5247.06
5108.44
5108.44
4981.09
4981.09
4863.35
4863.35
4753.84
4753.84
4651.4
4651.4
4555.04
4555.04
4463.92
4463.92
4377.3
4377.3
4294.55
4294.55
4215.12
4215.12
4138.53
4138.53
4064.35
4064.35
3992.2
3992.2
3921.76
3921.76
3852.72
3852.72
3784.84
3784.84
3717.89
3717.89
3651.65
3651.65
3585.97
3585.97
3520.7
3520.7
3455.69
3455.69
3390.86
3390.86
3326.11
3326.11
3261.39
3261.39
3196.63
3196.63
3131.82
3131.82
3066.95
3066.95
3002.01
3002.01
2937.03
2937.03
2872.06
2872.06
2807.14
2807.14
2742.34
2742.34
2677.75
2677.75
2613.45
2613.45
2549.57
2549.57
2486.2
2486.2
2423.48
2423.48
2361.55
2361.55
2300.54
2300.54
2240.59
2240.59
2181.85
2181.85
2124.46
2124.46
2068.56
2068.56
2014.29
2014.29
1961.77
1961.77
1911.11
1911.11
1862.41
1862.41
1815.76
1815.76
1771.22
1771.22
1728.82
1728.82
1688.61
1688.61
1650.57
1650.57
1614.68
1614.68
1580.9
1580.9
1549.17
1549.17
1519.4
1519.4
1491.5
1491.5
1465.37
1465.37
1440.86
1440.86
1417.87
1417.87
1396.26
1396.26
1375.88
1375.88
1356.61
1356.61
1338.32
1338.32
1320.87
1320.87
1304.14
1304.14
1288.02
1288.02
1272.4
1272.4
1257.18
1257.18
1242.28
1242.28
1227.61
1227.61
1213.1
1213.1
1198.69
1198.69
1184.33
1184.33
1169.98
1169.98
1155.59
1155.59
1141.13
1141.13
1126.59
1126.59
1111.94
1111.94
1097.18
1097.18
1082.29
1082.29
1067.28
1067.28
1052.14
1052.14
1036.89
1036.89
1021.52
1021.52
1006.04
1006.04
990.469
990.469
974.818
974.818
959.098
959.098
943.323
943.323
927.51
927.51
911.672
911.672
895.825
895.825
879.983
879.983
864.162
864.162
848.375
848.375
832.638
832.638
816.962
816.962
801.361
801.361
785.847
785.847
770.431
770.431
755.125
755.125
739.937
739.937
724.878
724.878
709.956
709.956
695.179
695.179
680.554
680.554
666.088
666.088
651.787
651.787
637.656
637.656
623.7
623.7
609.924
609.924
596.331
596.331
582.925
582.925
569.709
569.709
556.685
556.685
543.856
543.856
531.223
531.223
518.788
518.788
506.553
506.553
494.517
494.517
482.682
482.682
471.049
471.049
459.617
459.617
448.387
448.387
437.357
437.357
426.529
426.529
415.902
415.902
405.474
405.474
395.247
395.247
385.218
385.218
375.386
375.386
365.752
365.752
356.314
356.314
347.071
347.071
338.022
338.022
329.165
329.165
320.499
320.499
312.023
312.023
303.736
303.736
295.634
295.634
287.717
287.717
279.982
279.982
272.427
272.427
265.049
265.049
257.846
257.846
250.814
250.814
243.95
243.95
237.253
237.253
230.717
230.717
224.342
224.342
218.123
218.123
212.058
212.058
206.144
206.144
200.379
200.379
194.76
194.76
189.285
189.285
183.95
183.95
178.755
178.755
173.696
173.696
168.772
168.772
163.979
163.979
159.315
159.315
154.778
154.778
150.365
150.365
146.074
146.074
141.902
141.902
137.847
137.847
133.907
133.907
130.079
130.079
126.361
126.361
122.752
122.752
119.249
119.249
115.85
115.85
112.554
112.554
109.358
109.358
106.262
106.262
103.263
103.263
100.36
100.36
97.5509
97.5509
94.8341
94.8341
92.2076
92.2076
89.6694
89.6694
87.2174
87.2174
84.8492
84.8492
82.5627
82.5627
80.3553
80.3554
78.225
78.225
76.1692
76.1693
74.186
74.186
72.273
72.273
70.428
70.428
68.6486
68.6486
66.9324
66.9324
65.2768
65.2768
63.6792
63.6792
62.1367
62.1367
60.6464
60.6464
59.2053
59.2053
57.8105
57.8105
56.4592
56.4592
55.149
55.149
53.8777
53.8777
52.6437
52.6437
51.4453
51.4453
50.2811
50.2811
49.1495
49.1495
48.0487
48.0487
46.9765
46.9765
45.931
45.931
44.9103
44.9103
43.9126
43.9126
42.9365
42.9366
41.9809
41.9809
41.0448
41.0448
40.1275
40.1275
39.2288
39.2288
38.3487
38.3487
37.4873
37.4873
36.6449
36.6449
35.8215
35.8215
35.0164
35.0164
34.2287
34.2287
33.4568
33.4568
32.6988
32.6988
31.9523
31.9523
31.2149
31.2149
30.4842
30.4842
29.7589
29.7589
29.0387
29.0387
28.3244
28.3244
27.6177
27.6177
26.9212
26.9212
26.2379
26.2379
25.5696
25.5696
24.9166
24.9167
24.2784
24.2785
23.6544
23.6544
23.0444
23.0444
22.449
22.4491
21.8697
21.8697
21.3079
21.3079
20.7653
20.7653
20.2433
20.2433
19.7427
19.7427
19.264
19.2641
18.8075
18.8075
18.3729
18.3729
17.9601
17.9601
17.5684
17.5684
17.197
17.197
16.8446
16.8446
16.5095
16.5096
16.1898
16.1898
15.883
15.883
15.5867
15.5867
15.2981
15.2981
15.0148
15.0148
14.7347
14.7347
14.4562
14.4562
14.1772
14.1772
13.8957
13.8957
13.6099
13.6099
13.3188
13.3188
13.0231
13.0231
12.7247
12.7248
12.4263
12.4263
12.1312
12.1312
11.8437
11.8437
11.5677
11.5677
11.3055
11.3055
11.058
11.058
10.8249
10.825
10.6065
10.6065
10.4027
10.4027
10.2135
10.2135
10.039
10.039
9.87893
9.87894
9.73276
9.73276
9.59921
9.59922
9.47664
9.47664
9.36325
9.36325
9.25704
9.25705
9.15518
9.15518
9.05407
9.05407
8.95054
8.95054
8.84311
8.84312
8.7326
8.7326
8.6216
8.6216
8.51303
8.51303
8.40919
8.4092
8.3121
8.31211
8.22417
8.22418
8.14785
8.14785
8.08481
8.08481
8.03592
8.03592
8.00193
8.00192
7.98412
7.98411
7.98408
7.98409
8.00185
8.00185
8.03577
8.03578
8.08454
8.08454
8.14748
8.14748
8.22367
8.22366
8.31142
8.31141
8.40836
8.40835
8.51185
8.51185
8.61985
8.61984
8.73029
8.73029
8.84038
8.84037
8.94749
8.94749
9.0509
9.0509
9.15221
9.15221
9.25448
9.25447
9.36108
9.36108
9.47481
9.4748
9.59765
9.59765
9.73144
9.73144
9.8779
9.8779
10.0382
10.0382
10.2131
10.2131
10.4025
10.4025
10.6066
10.6066
10.8254
10.8253
11.0586
11.0586
11.3065
11.3065
11.5689
11.5689
11.8451
11.8451
12.1328
12.1328
12.4282
12.4282
12.7268
12.7267
13.025
13.025
13.3203
13.3202
13.6107
13.6107
13.896
13.896
14.1771
14.1771
14.4557
14.4557
14.7341
14.7341
15.014
15.014
15.2971
15.2971
15.5855
15.5854
15.8816
15.8816
16.1881
16.1881
16.5077
16.5077
16.8426
16.8426
17.1948
17.1948
17.5661
17.5661
17.9577
17.9577
18.3706
18.3706
18.8052
18.8052
19.2617
19.2617
19.7404
19.7404
20.241
20.241
20.7631
20.7631
21.3058
21.3058
21.8676
21.8676
22.447
22.447
23.0425
23.0425
23.6527
23.6527
24.2769
24.2769
24.9151
24.9151
25.5679
25.5679
26.2361
26.2361
26.9192
26.9192
27.6155
27.6155
28.3221
28.3221
29.0364
29.0364
29.7564
29.7564
30.4814
30.4814
31.2119
31.2119
31.9493
31.9493
32.696
32.696
33.4543
33.4543
34.2267
34.2267
35.015
35.015
35.8206
35.8206
36.6444
36.6444
37.4868
37.4868
38.348
38.348
39.228
39.228
40.1265
40.1265
41.0435
41.0435
41.9795
41.9795
42.9349
42.9349
43.9109
43.9109
44.9087
44.9087
45.9294
45.9294
46.975
46.975
48.0473
48.0473
49.1485
49.1485
50.2805
50.2805
51.4452
51.4452
52.6441
52.6441
53.8785
53.8785
55.15
55.15
56.4604
56.4604
57.8118
57.8118
59.2067
59.2066
60.6478
60.6478
62.1382
62.1382
63.6808
63.6808
65.2784
65.2784
66.9338
66.9338
68.6498
68.6498
70.4288
70.4288
72.2736
72.2736
74.1863
74.1863
76.1692
76.1692
78.2248
78.2248
80.3551
80.3551
82.5624
82.5623
84.8489
84.8489
87.2171
87.2171
89.6692
89.6692
92.2074
92.2074
94.834
94.834
97.5509
97.5509
100.36
100.36
103.263
103.263
106.262
106.262
109.358
109.358
112.553
112.553
115.85
115.85
119.249
119.249
122.752
122.752
126.361
126.361
130.079
130.079
133.907
133.907
137.847
137.847
141.902
141.902
146.073
146.073
150.364
150.364
154.777
154.777
159.314
159.314
163.977
163.977
168.77
168.77
173.695
173.695
178.754
178.754
183.949
183.949
189.283
189.283
194.758
194.758
200.377
200.377
206.142
206.142
212.056
212.056
218.121
218.121
224.339
224.339
230.715
230.715
237.25
237.25
243.948
243.948
250.811
250.811
257.843
257.843
265.047
265.047
272.425
272.425
279.98
279.98
287.715
287.715
295.631
295.631
303.733
303.733
312.02
312.02
320.496
320.496
329.161
329.161
338.018
338.018
347.067
347.067
356.31
356.31
365.748
365.748
375.382
375.382
385.213
385.213
395.242
395.242
405.469
405.469
415.897
415.897
426.524
426.524
437.352
437.352
448.381
448.381
459.611
459.611
471.043
471.043
482.677
482.677
494.511
494.511
506.547
506.547
518.783
518.783
531.217
531.217
543.85
543.85
556.68
556.68
569.704
569.704
582.92
582.92
596.326
596.326
609.918
609.918
623.694
623.694
637.65
637.65
651.781
651.781
666.081
666.081
680.548
680.548
695.172
695.172
709.949
709.949
724.87
724.87
739.928
739.928
755.115
755.115
770.42
770.42
785.835
785.835
801.347
801.347
816.947
816.947
832.621
832.621
848.356
848.356
864.14
864.14
879.958
879.958
895.797
895.797
911.642
911.642
927.478
927.478
943.29
943.29
959.063
959.063
974.782
974.782
990.433
990.433
1006
1006
1021.48
1021.48
1036.85
1036.85
1052.11
1052.11
1067.24
1067.24
1082.25
1082.25
1097.14
1097.14
1111.9
1111.9
1126.54
1126.54
1141.09
1141.09
1155.54
1155.54
1169.93
1169.93
1184.29
1184.29
1198.65
1198.65
1213.05
1213.05
1227.55
1227.55
1242.22
1242.22
1257.11
1257.11
1272.31
1272.31
1287.92
1287.92
1304.04
1304.04
1320.76
1320.76
1338.21
1338.21
1356.5
1356.5
1375.76
1375.76
1396.13
1396.13
1417.73
1417.73
1440.72
1440.72
1465.21
1465.21
1491.34
1491.34
1519.23
1519.23
1548.99
1548.99
1580.71
1580.71
1614.48
1614.48
1650.37
1650.37
1688.4
1688.4
1728.61
1728.61
1771
1771
1815.53
1815.53
1862.18
1862.18
1910.88
1910.88
1961.53
1961.53
2014.06
2014.06
2068.33
2068.33
2124.23
2124.23
2181.62
2181.62
2240.36
2240.36
2300.31
2300.31
2361.33
2361.33
2423.27
2423.27
2486
2486
2549.38
2549.38
2613.28
2613.28
2677.59
2677.59
2742.2
2742.2
2807.03
2807.03
2871.98
2871.98
2936.97
2936.97
3001.96
3001.96
3066.92
3066.92
3131.82
3131.82
3196.66
3196.66
3261.44
3261.44
3326.19
3326.19
3390.97
3390.97
3455.82
3455.82
3520.84
3520.84
3586.14
3586.14
3651.84
3651.84
3718.09
3718.09
3785.06
3785.06
3852.95
3852.95
3922
3922
3992.45
3992.45
4064.61
4064.61
4138.8
4138.8
4215.39
4215.39
4294.82
4294.82
4377.58
4377.58
4464.21
4464.2
4555.34
4555.34
4651.71
4651.71
4754.15
4754.15
4863.67
4863.67
4981.41
4981.41
5108.76
5108.76
5247.38
5247.38
5399.26
5399.26
5566.88
5566.88
5753.26
5753.26
5962.25
5962.25
6198.74
6198.74
6469.11
6469.11
6781.8
6781.8
7148.31
7148.31
7584.64
7584.64
8113.87
8113.87
8770.5
8770.5
9608.58
9608.58
10717.8
10717.8
12258.4
12258.4
14545
14545
18279.1
18279.1
25303.8
25303.8
41448.7
41448.7
87955.8
87955.8
264376
264376
1.52418e+06
1.52418e+06
7.98409
7.98408
8.00185
8.00185
8.03578
8.03577
8.08454
8.08454
8.14748
8.14748
8.22366
8.22367
8.31141
8.31142
8.40835
8.40836
8.51185
8.51185
8.61985
8.61985
8.73029
8.73029
8.84037
8.84038
8.94749
8.94749
9.0509
9.0509
9.15221
9.15221
9.25447
9.25447
9.36108
9.36108
9.4748
9.47481
9.59765
9.59765
9.73144
9.73144
9.87789
9.8779
10.0382
10.0382
10.2131
10.2131
10.4025
10.4025
10.6066
10.6066
10.8254
10.8254
11.0586
11.0586
11.3065
11.3065
11.5689
11.5689
11.8451
11.8451
12.1328
12.1328
12.4282
12.4282
12.7268
12.7268
13.025
13.025
13.3203
13.3203
13.6107
13.6108
13.896
13.896
14.1771
14.1771
14.4557
14.4557
14.7341
14.7341
15.014
15.014
15.2971
15.2971
15.5855
15.5855
15.8816
15.8816
16.1881
16.1881
16.5077
16.5077
16.8426
16.8426
17.1948
17.1948
17.5661
17.5661
17.9577
17.9578
18.3706
18.3706
18.8052
18.8052
19.2617
19.2617
19.7404
19.7404
20.241
20.241
20.7631
20.7631
21.3058
21.3058
21.8676
21.8676
22.447
22.447
23.0425
23.0425
23.6527
23.6528
24.2769
24.2769
24.9151
24.9151
25.5679
25.5679
26.2361
26.2361
26.9192
26.9192
27.6155
27.6155
28.3222
28.3221
29.0364
29.0364
29.7565
29.7564
30.4815
30.4815
31.2119
31.2119
31.9494
31.9494
32.696
32.696
33.4543
33.4543
34.2267
34.2267
35.0151
35.0151
35.8207
35.8207
36.6444
36.6444
37.4868
37.4868
38.348
38.348
39.228
39.228
40.1264
40.1265
41.0435
41.0435
41.9795
41.9795
42.9349
42.9349
43.9109
43.9109
44.9086
44.9086
45.9294
45.9294
46.975
46.975
48.0473
48.0473
49.1485
49.1485
50.2804
50.2804
51.4451
51.4451
52.644
52.644
53.8785
53.8785
55.15
55.15
56.4604
56.4604
57.8117
57.8118
59.2066
59.2066
60.6478
60.6478
62.1382
62.1382
63.6807
63.6807
65.2783
65.2783
66.9338
66.9338
68.6497
68.6497
70.4288
70.4288
72.2735
72.2735
74.1862
74.1862
76.1692
76.1692
78.2247
78.2247
80.355
80.355
82.5623
82.5623
84.8489
84.8489
87.217
87.217
89.6691
89.6691
92.2074
92.2074
94.8339
94.834
97.5508
97.5508
100.36
100.36
103.263
103.263
106.262
106.262
109.358
109.358
112.553
112.553
115.85
115.85
119.248
119.249
122.752
122.752
126.361
126.361
130.079
130.079
133.907
133.907
137.847
137.847
141.902
141.902
146.073
146.073
150.364
150.364
154.777
154.777
159.314
159.314
163.977
163.977
168.77
168.77
173.695
173.695
178.754
178.754
183.949
183.949
189.283
189.283
194.758
194.758
200.377
200.377
206.142
206.142
212.056
212.056
218.121
218.121
224.339
224.339
230.715
230.715
237.25
237.25
243.948
243.948
250.811
250.811
257.843
257.843
265.047
265.047
272.425
272.425
279.98
279.98
287.715
287.715
295.631
295.631
303.733
303.733
312.02
312.02
320.496
320.496
329.161
329.161
338.018
338.018
347.067
347.067
356.31
356.31
365.748
365.748
375.382
375.382
385.213
385.213
395.242
395.242
405.469
405.469
415.896
415.896
426.524
426.524
437.352
437.352
448.381
448.381
459.611
459.611
471.043
471.043
482.677
482.677
494.511
494.511
506.547
506.547
518.782
518.782
531.217
531.217
543.85
543.85
556.68
556.68
569.704
569.704
582.92
582.92
596.326
596.326
609.918
609.918
623.694
623.694
637.65
637.65
651.78
651.78
666.081
666.081
680.547
680.547
695.172
695.172
709.949
709.949
724.87
724.87
739.928
739.928
755.115
755.115
770.42
770.42
785.835
785.835
801.347
801.347
816.947
816.947
832.62
832.62
848.356
848.356
864.14
864.14
879.958
879.958
895.797
895.797
911.642
911.642
927.478
927.478
943.29
943.29
959.063
959.063
974.782
974.782
990.433
990.433
1006
1006
1021.48
1021.48
1036.85
1036.85
1052.11
1052.11
1067.24
1067.24
1082.25
1082.25
1097.14
1097.14
1111.9
1111.9
1126.54
1126.54
1141.09
1141.09
1155.54
1155.54
1169.93
1169.93
1184.29
1184.29
1198.65
1198.65
1213.05
1213.05
1227.55
1227.55
1242.22
1242.22
1257.11
1257.11
1272.31
1272.31
1287.92
1287.92
1304.04
1304.04
1320.76
1320.76
1338.21
1338.21
1356.5
1356.5
1375.76
1375.76
1396.13
1396.13
1417.73
1417.73
1440.72
1440.72
1465.21
1465.21
1491.34
1491.34
1519.23
1519.23
1548.99
1548.99
1580.71
1580.71
1614.48
1614.48
1650.37
1650.37
1688.4
1688.4
1728.61
1728.61
1771
1771
1815.53
1815.53
1862.18
1862.18
1910.88
1910.88
1961.53
1961.53
2014.06
2014.06
2068.33
2068.33
2124.23
2124.23
2181.62
2181.62
2240.36
2240.36
2300.31
2300.31
2361.33
2361.33
2423.27
2423.27
2486
2486
2549.38
2549.38
2613.28
2613.28
2677.59
2677.59
2742.2
2742.2
2807.03
2807.03
2871.98
2871.98
2936.97
2936.97
3001.96
3001.96
3066.92
3066.92
3131.82
3131.82
3196.66
3196.66
3261.44
3261.44
3326.19
3326.19
3390.97
3390.97
3455.82
3455.82
3520.84
3520.84
3586.14
3586.14
3651.84
3651.84
3718.09
3718.09
3785.06
3785.06
3852.95
3852.95
3922
3922
3992.45
3992.45
4064.61
4064.61
4138.8
4138.8
4215.39
4215.39
4294.82
4294.82
4377.58
4377.58
4464.2
4464.2
4555.34
4555.34
4651.71
4651.71
4754.15
4754.15
4863.67
4863.67
4981.41
4981.41
5108.76
5108.76
5247.38
5247.38
5399.26
5399.26
5566.87
5566.87
5753.26
5753.26
5962.25
5962.25
6198.74
6198.74
6469.11
6469.11
6781.8
6781.8
7148.3
7148.3
7584.64
7584.64
8113.87
8113.87
8770.5
8770.5
9608.58
9608.58
10717.8
10717.8
12258.4
12258.4
14545
14545
18279.1
18279.1
25303.8
25303.8
41448.7
41448.7
87955.8
87955.8
264376
264376
1.52418e+06
1.52418e+06
)
;

boundaryField
{
    walls
    {
        blending        binomial2;
        n               2;
        beta1           0.075;
        type            omegaWallFunction;
        value           nonuniform List<scalar> 8(1.52417e+06 1.52417e+06 1.52417e+06 1.52417e+06 1.52418e+06 1.52418e+06 1.52418e+06 1.52418e+06);
    }
    inlet
    {
        type            cyclic;
    }
    outlet
    {
        type            cyclic;
    }
    sides
    {
        type            empty;
    }
}


// ************************************************************************* //
