/*--------------------------------*- C++ -*----------------------------------*\
| =========                 |                                                 |
| \\      /  F ield         | OpenFOAM: The Open Source CFD Toolbox           |
|  \\    /   O peration     | Version:  2012                                  |
|   \\  /    A nd           | Website:  www.openfoam.com                      |
|    \\/     M anipulation  |                                                 |
\*---------------------------------------------------------------------------*/
FoamFile
{
    version     2.0;
    format      ascii;
    class       volScalarField;
    location    "16400";
    object      p;
}
// * * * * * * * * * * * * * * * * * * * * * * * * * * * * * * * * * * * * * //

dimensions      [0 2 -2 0 0 0 0];


internalField   nonuniform List<scalar> 
2560
(
9.75241e-10
9.39459e-05
-4.05795e-08
9.38901e-05
-2.36896e-07
9.36838e-05
-8.19661e-07
9.30977e-05
-2.19806e-06
9.172e-05
-4.91214e-06
8.90046e-05
-9.60972e-06
8.43063e-05
-1.70847e-05
7.68291e-05
-2.82788e-05
6.56332e-05
-4.42649e-05
4.96439e-05
-6.62552e-05
2.76508e-05
-9.5612e-05
-1.71053e-06
-0.000133821
-3.99231e-05
-0.000182512
-8.86202e-05
-0.000243458
-0.000149571
-0.000318559
-0.000224679
-0.000409846
-0.000315971
-0.000519471
-0.000425603
-0.000649748
-0.000555887
-0.000803077
-0.000709225
-0.00098197
-0.000888125
-0.00118909
-0.00109525
-0.00142724
-0.00133341
-0.00169922
-0.0016054
-0.00200798
-0.00191417
-0.00235667
-0.00226287
-0.00274845
-0.00265467
-0.00318647
-0.00309269
-0.00367407
-0.0035803
-0.00421474
-0.00412099
-0.00481195
-0.00471821
-0.00546914
-0.00537541
-0.00618993
-0.00609621
-0.00697807
-0.00688436
-0.00783722
-0.00774352
-0.00877102
-0.00867734
-0.00978332
-0.00968965
-0.010878
-0.0107844
-0.0120589
-0.0119653
-0.0133297
-0.0132361
-0.0146944
-0.0146008
-0.016157
-0.0160634
-0.0177213
-0.0176277
-0.019391
-0.0192974
-0.0211702
-0.0210766
-0.0230628
-0.0229692
-0.0250726
-0.024979
-0.0272033
-0.0271098
-0.0294589
-0.0293654
-0.0318436
-0.0317501
-0.0343606
-0.0342671
-0.0370127
-0.0369192
-0.0398059
-0.0397124
-0.0427422
-0.0426488
-0.045825
-0.0457315
-0.0490595
-0.048966
-0.0524469
-0.0523535
-0.0559928
-0.0558994
-0.0596991
-0.0596057
-0.0635688
-0.0634754
-0.0676057
-0.0675124
-0.0718131
-0.0717198
-0.0761945
-0.0761011
-0.0807501
-0.0806568
-0.0854846
-0.0853913
-0.090402
-0.0903087
-0.0955012
-0.0954079
-0.100787
-0.100694
-0.10626
-0.106167
-0.111924
-0.111831
-0.11778
-0.117686
-0.123828
-0.123734
-0.130071
-0.129978
-0.136509
-0.136416
-0.143145
-0.143051
-0.149977
-0.149884
-0.157009
-0.156916
-0.164237
-0.164144
-0.171665
-0.171572
-0.179289
-0.179196
-0.187112
-0.187018
-0.195129
-0.195036
-0.203343
-0.20325
-0.21175
-0.211657
-0.220348
-0.220255
-0.229136
-0.229043
-0.238113
-0.238019
-0.247274
-0.247181
-0.256617
-0.256524
-0.266139
-0.266046
-0.275834
-0.275741
-0.285702
-0.285609
-0.295736
-0.295643
-0.305934
-0.305841
-0.316287
-0.316194
-0.326794
-0.326701
-0.337449
-0.337356
-0.348243
-0.34815
-0.359175
-0.359082
-0.370234
-0.370141
-0.381418
-0.381325
-0.392719
-0.392626
-0.404128
-0.404035
-0.415639
-0.415546
-0.427246
-0.427153
-0.43894
-0.438847
-0.450715
-0.450622
-0.462561
-0.462468
-0.474471
-0.474378
-0.486439
-0.486346
-0.498453
-0.498361
-0.510507
-0.510414
-0.522594
-0.522501
-0.534702
-0.534609
-0.546827
-0.546734
-0.558956
-0.558863
-0.571084
-0.570991
-0.583201
-0.583108
-0.5953
-0.595208
-0.60737
-0.607277
-0.619406
-0.619313
-0.631396
-0.631304
-0.643336
-0.643243
-0.655216
-0.655123
-0.667029
-0.666936
-0.678765
-0.678672
-0.690421
-0.690328
-0.701981
-0.701889
-0.71345
-0.713357
-0.724808
-0.724716
-0.73606
-0.735966
-0.747187
-0.747094
-0.758195
-0.758102
-0.769064
-0.768972
-0.779802
-0.779709
-0.790387
-0.790294
-0.800831
-0.800737
-0.811107
-0.811015
-0.821234
-0.82114
-0.831179
-0.831088
-0.840966
-0.840872
-0.85056
-0.850468
-0.859989
-0.859894
-0.869212
-0.86912
-0.878266
-0.878171
-0.887101
-0.88701
-0.895766
-0.895671
-0.904199
-0.904109
-0.912463
-0.912367
-0.920484
-0.920394
-0.928337
-0.92824
-0.935934
-0.935846
-0.94337
-0.943271
-0.950534
-0.950448
-0.957546
-0.957446
-0.964271
-0.964187
-0.970856
-0.970754
-0.977136
-0.977054
-0.983291
-0.983186
-0.989122
-0.989042
-0.994849
-0.99474
-1.00023
-1.00015
-1.00553
-1.00541
-1.01045
-1.01038
-1.01533
-1.01521
-1.01979
-1.01973
-1.02426
-1.02413
-1.02826
-1.02821
-1.03233
-1.03219
-1.03587
-1.03583
-1.03954
-1.03939
-1.04262
-1.0426
-1.04592
-1.04574
-1.04853
-1.04853
-1.05147
-1.05127
-1.05361
-1.05364
-1.05622
-1.05599
-1.05789
-1.05796
-1.06021
-1.05993
-1.0614
-1.06151
-1.06345
-1.06312
-1.06415
-1.06434
-1.066
-1.06558
-1.06651
-1.06646
-1.06787
-1.06736
-1.06821
-1.06792
-1.0691
-1.06847
-1.06928
-1.06874
-1.0697
-1.06895
-1.06972
-1.06895
-1.06937
-1.06883
-1.06922
-1.06856
-1.06844
-1.06813
-1.06815
-1.0676
-1.06698
-1.06686
-1.06655
-1.06609
-1.065
-1.06507
-1.06445
-1.06406
-1.06271
-1.06278
-1.06186
-1.06154
-1.05999
-1.06001
-1.05883
-1.05855
-1.05681
-1.0568
-1.05536
-1.05511
-1.05319
-1.05314
-1.05147
-1.05124
-1.04915
-1.04908
-1.04717
-1.04697
-1.0447
-1.04461
-1.04249
-1.0423
-1.03987
-1.03976
-1.03744
-1.03727
-1.03467
-1.03455
-1.03204
-1.03187
-1.02912
-1.02899
-1.0263
-1.02614
-1.02323
-1.0231
-1.02024
-1.02008
-1.01703
-1.01689
-1.01386
-1.0137
-1.01049
-1.01035
-1.00714
-1.00698
-1.0036
-1.00346
-1.00007
-0.999915
-0.996362
-0.996216
-0.992638
-0.992483
-0.988756
-0.988608
-0.98485
-0.984695
-0.980806
-0.980657
-0.976732
-0.976577
-0.972531
-0.972379
-0.968288
-0.968132
-0.963923
-0.96377
-0.959505
-0.959348
-0.954968
-0.954814
-0.950371
-0.950213
-0.94566
-0.945504
-0.940881
-0.940723
-0.935991
-0.935834
-0.931024
-0.930865
-0.925954
-0.925795
-0.920805
-0.920645
-0.915565
-0.915405
-0.910247
-0.910086
-0.904845
-0.904684
-0.899361
-0.899198
-0.893798
-0.893635
-0.888147
-0.887984
-0.882422
-0.882259
-0.876599
-0.876435
-0.870702
-0.870538
-0.8647
-0.864535
-0.858632
-0.858467
-0.852455
-0.85229
-0.846222
-0.846057
-0.839879
-0.839713
-0.833499
-0.833334
-0.827013
-0.826848
-0.82051
-0.820345
-0.813894
-0.813728
-0.807266
-0.8071
-0.800498
-0.800332
-0.793714
-0.793547
-0.786762
-0.786594
-0.779792
-0.779624
-0.772635
-0.772465
-0.765486
-0.765316
-0.758148
-0.757976
-0.750859
-0.750686
-0.743378
-0.743204
-0.735976
-0.735801
-0.728348
-0.728172
-0.720816
-0.720637
-0.71302
-0.712839
-0.705355
-0.705173
-0.697397
-0.697212
-0.689612
-0.689424
-0.68149
-0.681299
-0.673584
-0.673389
-0.665287
-0.665089
-0.657256
-0.657053
-0.648775
-0.648568
-0.640637
-0.640424
-0.631997
-0.631779
-0.623792
-0.623565
-0.615024
-0.614791
-0.606803
-0.60656
-0.597952
-0.597701
-0.589777
-0.589512
-0.580886
-0.580613
-0.572819
-0.572528
-0.563922
-0.563624
-0.556012
-0.555688
-0.547137
-0.546809
-0.539438
-0.539076
-0.530589
-0.530229
-0.523109
-0.5227
-0.514263
-0.513868
-0.507057
-0.506589
-0.498257
-0.497826
-0.49145
-0.490905
-0.482799
-0.482335
-0.476589
-0.475943
-0.468194
-0.46771
-0.462734
-0.461951
-0.454582
-0.454102
-0.449954
-0.448978
-0.441979
-0.441552
-0.438342
-0.437094
-0.43053
-0.430237
-0.427973
-0.426504
-0.420452
-0.420418
-0.418309
-0.417413
-0.411957
-0.412311
-0.410275
-0.410036
-0.405274
-0.406123
-0.404109
-0.404594
-0.399696
-0.402028
-0.399074
-0.40123
-0.397176
-0.400303
9.34473e-05
2.16328e-06
9.33916e-05
2.12062e-06
9.31853e-05
1.92397e-06
9.25992e-05
1.34078e-06
9.12216e-05
-3.81488e-08
8.85062e-05
-2.75338e-06
8.38078e-05
-7.45213e-06
7.63306e-05
-1.49294e-05
6.51346e-05
-2.61255e-05
4.91452e-05
-4.21152e-05
2.71521e-05
-6.41085e-05
-2.20949e-06
-9.34702e-05
-4.04221e-05
-0.000131683
-8.91195e-05
-0.000180381
-0.00015007
-0.000241332
-0.000225178
-0.00031644
-0.000316471
-0.000407733
-0.000426104
-0.000517366
-0.000556387
-0.00064765
-0.000709726
-0.000800989
-0.000888626
-0.00097989
-0.00109576
-0.00118702
-0.00133391
-0.00142518
-0.0016059
-0.00169717
-0.00191468
-0.00200594
-0.00226338
-0.00235464
-0.00265517
-0.00274644
-0.0030932
-0.00318447
-0.00358081
-0.00367208
-0.00412149
-0.00421276
-0.00471871
-0.00480998
-0.00537591
-0.00546719
-0.00609671
-0.00618798
-0.00688487
-0.00697614
-0.00774403
-0.0078353
-0.00867785
-0.00876912
-0.00969016
-0.00978143
-0.0107849
-0.0108762
-0.0119658
-0.0120571
-0.0132366
-0.0133279
-0.0146013
-0.0146926
-0.0160639
-0.0161551
-0.0176282
-0.0177195
-0.0192979
-0.0193892
-0.0210771
-0.0211684
-0.0229697
-0.023061
-0.0249795
-0.0250708
-0.0271103
-0.0272016
-0.0293659
-0.0294572
-0.0317506
-0.0318419
-0.0342676
-0.0343589
-0.0369197
-0.037011
-0.0397129
-0.0398042
-0.0426493
-0.0427406
-0.045732
-0.0458234
-0.0489665
-0.0490579
-0.052354
-0.0524454
-0.0558999
-0.0559913
-0.0596062
-0.0596975
-0.0634759
-0.0635672
-0.0675129
-0.0676042
-0.0717203
-0.0718116
-0.0761016
-0.076193
-0.0806573
-0.0807486
-0.0853918
-0.0854832
-0.0903092
-0.0904005
-0.0954084
-0.0954997
-0.100695
-0.100786
-0.106167
-0.106259
-0.111832
-0.111923
-0.117687
-0.117778
-0.123735
-0.123826
-0.129978
-0.13007
-0.136416
-0.136508
-0.143052
-0.143143
-0.149885
-0.149976
-0.156916
-0.157008
-0.164144
-0.164236
-0.171572
-0.171663
-0.179196
-0.179287
-0.187019
-0.18711
-0.195037
-0.195128
-0.20325
-0.203342
-0.211658
-0.211749
-0.220256
-0.220347
-0.229044
-0.229135
-0.23802
-0.238111
-0.247181
-0.247273
-0.256525
-0.256616
-0.266046
-0.266138
-0.275742
-0.275833
-0.285609
-0.285701
-0.295644
-0.295735
-0.305841
-0.305933
-0.316194
-0.316286
-0.326701
-0.326793
-0.337356
-0.337448
-0.348151
-0.348242
-0.359082
-0.359174
-0.370142
-0.370233
-0.381325
-0.381417
-0.392627
-0.392718
-0.404035
-0.404127
-0.415547
-0.415638
-0.427154
-0.427245
-0.438847
-0.438939
-0.450622
-0.450714
-0.462468
-0.46256
-0.474379
-0.474471
-0.486347
-0.486438
-0.498361
-0.498453
-0.510415
-0.510506
-0.522502
-0.522594
-0.53461
-0.534701
-0.546735
-0.546827
-0.558863
-0.558955
-0.570992
-0.571084
-0.583108
-0.5832
-0.595208
-0.5953
-0.607278
-0.60737
-0.619313
-0.619405
-0.631304
-0.631396
-0.643244
-0.643336
-0.655124
-0.655216
-0.666936
-0.667029
-0.678672
-0.678764
-0.690328
-0.69042
-0.701889
-0.701981
-0.713357
-0.71345
-0.724716
-0.724808
-0.735967
-0.736059
-0.747094
-0.747186
-0.758102
-0.758195
-0.768972
-0.769064
-0.779709
-0.779802
-0.790295
-0.790386
-0.800738
-0.80083
-0.811016
-0.811107
-0.821141
-0.821234
-0.831088
-0.831179
-0.840873
-0.840966
-0.850468
-0.850559
-0.859895
-0.859988
-0.869121
-0.869211
-0.878171
-0.878265
-0.88701
-0.8871
-0.895671
-0.895766
-0.90411
-0.904199
-0.912367
-0.912463
-0.920395
-0.920483
-0.92824
-0.928337
-0.935846
-0.935934
-0.943272
-0.943369
-0.950448
-0.950534
-0.957446
-0.957546
-0.964187
-0.964271
-0.970754
-0.970856
-0.977054
-0.977136
-0.983186
-0.983291
-0.989042
-0.989121
-0.99474
-0.994848
-1.00015
-1.00023
-1.00541
-1.00553
-1.01038
-1.01045
-1.01521
-1.01533
-1.01973
-1.01979
-1.02413
-1.02426
-1.02821
-1.02826
-1.03219
-1.03233
-1.03583
-1.03587
-1.03939
-1.03954
-1.0426
-1.04262
-1.04574
-1.04592
-1.04853
-1.04853
-1.05127
-1.05147
-1.05364
-1.05361
-1.05599
-1.05622
-1.05796
-1.05789
-1.05993
-1.06021
-1.06151
-1.0614
-1.06312
-1.06345
-1.06434
-1.06415
-1.06558
-1.066
-1.06646
-1.06651
-1.06736
-1.06787
-1.06792
-1.06821
-1.06847
-1.0691
-1.06874
-1.06928
-1.06895
-1.0697
-1.06895
-1.06972
-1.06883
-1.06937
-1.06856
-1.06922
-1.06813
-1.06844
-1.0676
-1.06815
-1.06686
-1.06698
-1.06609
-1.06655
-1.06507
-1.065
-1.06406
-1.06445
-1.06278
-1.06271
-1.06154
-1.06186
-1.06001
-1.05999
-1.05855
-1.05883
-1.0568
-1.05681
-1.05511
-1.05536
-1.05314
-1.05319
-1.05124
-1.05147
-1.04908
-1.04915
-1.04697
-1.04717
-1.04461
-1.0447
-1.0423
-1.04249
-1.03976
-1.03987
-1.03727
-1.03744
-1.03455
-1.03467
-1.03187
-1.03204
-1.02899
-1.02912
-1.02614
-1.0263
-1.0231
-1.02323
-1.02008
-1.02024
-1.01689
-1.01703
-1.0137
-1.01386
-1.01035
-1.01049
-1.00698
-1.00714
-1.00346
-1.0036
-0.999915
-1.00007
-0.996216
-0.996362
-0.992483
-0.992638
-0.988608
-0.988755
-0.984695
-0.98485
-0.980657
-0.980806
-0.976576
-0.976732
-0.972379
-0.972531
-0.968132
-0.968288
-0.96377
-0.963923
-0.959348
-0.959505
-0.954814
-0.954968
-0.950213
-0.950371
-0.945504
-0.94566
-0.940723
-0.940881
-0.935834
-0.935991
-0.930865
-0.931024
-0.925795
-0.925954
-0.920645
-0.920805
-0.915405
-0.915565
-0.910086
-0.910247
-0.904684
-0.904845
-0.899198
-0.89936
-0.893635
-0.893798
-0.887984
-0.888147
-0.882259
-0.882422
-0.876435
-0.876599
-0.870538
-0.870702
-0.864535
-0.8647
-0.858467
-0.858632
-0.85229
-0.852455
-0.846057
-0.846222
-0.839713
-0.839878
-0.833334
-0.833499
-0.826847
-0.827013
-0.820345
-0.82051
-0.813728
-0.813894
-0.8071
-0.807266
-0.800332
-0.800498
-0.793547
-0.793714
-0.786594
-0.786762
-0.779624
-0.779792
-0.772465
-0.772635
-0.765316
-0.765486
-0.757976
-0.758148
-0.750686
-0.750859
-0.743204
-0.743378
-0.735801
-0.735976
-0.728171
-0.728348
-0.720637
-0.720816
-0.712839
-0.71302
-0.705172
-0.705355
-0.697212
-0.697397
-0.689424
-0.689612
-0.681299
-0.68149
-0.673389
-0.673584
-0.665089
-0.665287
-0.657053
-0.657256
-0.648568
-0.648775
-0.640424
-0.640637
-0.631779
-0.631997
-0.623565
-0.623792
-0.614791
-0.615024
-0.606559
-0.606803
-0.597701
-0.597952
-0.589512
-0.589777
-0.580613
-0.580886
-0.572528
-0.572819
-0.563624
-0.563922
-0.555688
-0.556012
-0.546809
-0.547137
-0.539076
-0.539438
-0.530229
-0.530589
-0.5227
-0.523109
-0.513868
-0.514263
-0.506589
-0.507057
-0.497826
-0.498257
-0.490905
-0.49145
-0.482335
-0.482799
-0.475943
-0.476589
-0.46771
-0.468194
-0.461951
-0.462734
-0.454102
-0.454582
-0.448978
-0.449954
-0.441552
-0.441979
-0.437094
-0.438342
-0.430237
-0.43053
-0.426504
-0.427973
-0.420418
-0.420452
-0.417413
-0.418309
-0.412311
-0.411957
-0.410036
-0.410275
-0.406123
-0.405274
-0.404594
-0.404109
-0.402028
-0.399696
-0.40123
-0.399074
-0.400303
-0.397176
-0.397175
-0.400302
-0.399069
-0.401233
-0.399689
-0.402028
-0.40415
-0.404602
-0.405321
-0.406132
-0.410324
-0.410048
-0.412005
-0.412325
-0.418349
-0.417425
-0.42049
-0.420429
-0.42801
-0.426517
-0.430568
-0.430252
-0.438374
-0.437108
-0.442015
-0.441568
-0.449987
-0.448996
-0.454618
-0.454121
-0.462764
-0.461967
-0.468226
-0.467727
-0.476618
-0.47596
-0.482828
-0.482352
-0.491481
-0.490924
-0.498288
-0.497846
-0.507087
-0.506608
-0.514292
-0.513887
-0.523135
-0.522717
-0.530616
-0.530247
-0.539468
-0.539098
-0.547163
-0.546827
-0.556041
-0.55571
-0.56395
-0.563645
-0.572842
-0.572544
-0.580915
-0.580636
-0.589805
-0.589534
-0.597984
-0.597727
-0.60683
-0.60658
-0.615057
-0.614818
-0.623816
-0.623584
-0.632022
-0.631799
-0.640663
-0.640445
-0.648799
-0.648587
-0.657284
-0.657076
-0.665312
-0.66511
-0.673611
-0.673412
-0.681516
-0.681321
-0.68964
-0.689448
-0.697422
-0.697232
-0.705383
-0.705196
-0.713044
-0.712859
-0.720841
-0.720658
-0.728372
-0.728191
-0.736002
-0.735823
-0.7434
-0.743222
-0.750888
-0.750712
-0.758174
-0.757999
-0.765508
-0.765333
-0.772661
-0.772488
-0.779818
-0.779645
-0.786791
-0.786619
-0.793739
-0.793568
-0.800523
-0.800352
-0.807288
-0.807118
-0.813926
-0.813756
-0.820536
-0.820367
-0.827043
-0.826873
-0.833526
-0.833357
-0.839908
-0.839739
-0.846246
-0.846077
-0.852476
-0.852307
-0.858661
-0.858492
-0.864726
-0.864558
-0.870733
-0.870565
-0.876623
-0.876455
-0.882443
-0.882276
-0.888173
-0.888006
-0.893819
-0.893653
-0.899383
-0.899216
-0.904869
-0.904704
-0.910275
-0.91011
-0.915595
-0.915431
-0.920837
-0.920673
-0.925984
-0.925821
-0.931051
-0.930888
-0.936019
-0.935858
-0.940906
-0.940743
-0.945685
-0.945525
-0.9504
-0.950238
-0.954992
-0.954833
-0.959527
-0.959366
-0.963952
-0.963795
-0.968315
-0.968155
-0.972551
-0.972396
-0.976758
-0.976599
-0.980831
-0.980678
-0.984873
-0.984714
-0.988779
-0.988628
-0.992669
-0.99251
-0.996392
-0.996243
-1.0001
-0.999936
-1.00363
-1.00349
-1.00717
-1.00701
-1.01051
-1.01037
-1.01388
-1.01372
-1.01705
-1.01692
-1.02027
-1.02011
-1.02326
-1.02313
-1.02634
-1.02617
-1.02914
-1.02902
-1.03206
-1.03189
-1.03469
-1.03458
-1.03747
-1.03729
-1.03989
-1.03978
-1.04251
-1.04232
-1.04472
-1.04463
-1.04719
-1.04699
-1.04918
-1.0491
-1.05149
-1.05127
-1.05322
-1.05316
-1.05538
-1.05513
-1.05684
-1.05682
-1.05885
-1.05857
-1.06002
-1.06004
-1.06189
-1.06156
-1.06273
-1.0628
-1.06447
-1.06408
-1.06503
-1.06509
-1.06658
-1.06612
-1.06701
-1.06689
-1.06818
-1.06763
-1.06847
-1.06815
-1.06925
-1.06859
-1.0694
-1.06885
-1.06975
-1.06897
-1.06973
-1.06898
-1.0693
-1.06877
-1.06913
-1.06849
-1.06824
-1.06795
-1.0679
-1.06738
-1.06654
-1.06649
-1.06603
-1.0656
-1.06417
-1.06436
-1.06348
-1.06314
-1.06142
-1.06154
-1.06023
-1.05995
-1.05792
-1.05798
-1.05625
-1.05602
-1.05363
-1.05366
-1.05149
-1.05129
-1.04855
-1.04854
-1.04595
-1.04577
-1.04265
-1.04263
-1.03957
-1.03941
-1.0359
-1.03586
-1.03236
-1.03221
-1.02828
-1.02822
-1.02428
-1.02415
-1.01981
-1.01974
-1.01536
-1.01524
-1.01046
-1.01039
-1.00555
-1.00543
-1.00024
-1.00016
-0.994863
-0.99475
-0.989164
-0.989081
-0.983323
-0.983214
-0.977149
-0.977063
-0.9709
-0.970794
-0.964296
-0.964207
-0.957557
-0.957453
-0.950581
-0.950491
-0.943412
-0.94331
-0.935972
-0.93588
-0.928387
-0.928286
-0.920485
-0.920392
-0.912502
-0.912402
-0.904214
-0.90412
-0.895785
-0.895686
-0.887132
-0.887038
-0.878273
-0.878174
-0.8692
-0.869106
-0.860008
-0.85991
-0.850621
-0.850526
-0.840956
-0.840858
-0.831196
-0.831101
-0.821254
-0.821156
-0.81115
-0.811055
-0.800872
-0.800775
-0.790455
-0.790359
-0.779873
-0.779776
-0.769064
-0.768969
-0.75821
-0.758113
-0.747262
-0.747166
-0.736057
-0.735961
-0.724779
-0.724683
-0.713495
-0.713399
-0.702044
-0.701948
-0.690479
-0.690383
-0.678762
-0.678666
-0.667083
-0.666986
-0.655271
-0.655175
-0.643383
-0.643287
-0.631378
-0.631282
-0.619464
-0.619368
-0.607452
-0.607356
-0.595261
-0.595165
-0.58329
-0.583194
-0.571162
-0.571066
-0.558969
-0.558873
-0.546791
-0.546695
-0.534734
-0.534638
-0.522548
-0.522452
-0.510514
-0.510418
-0.498531
-0.498435
-0.486392
-0.486296
-0.474491
-0.474395
-0.462629
-0.462533
-0.450677
-0.450581
-0.438963
-0.438867
-0.427353
-0.427257
-0.41565
-0.415554
-0.404066
-0.40397
-0.392773
-0.392677
-0.381433
-0.381337
-0.370226
-0.37013
-0.359165
-0.35907
-0.348264
-0.348168
-0.337519
-0.337423
-0.326772
-0.326676
-0.316377
-0.316281
-0.305997
-0.305901
-0.295799
-0.295703
-0.285814
-0.285718
-0.275842
-0.275746
-0.266095
-0.265999
-0.256556
-0.25646
-0.247256
-0.247161
-0.238171
-0.238076
-0.229156
-0.22906
-0.220364
-0.220268
-0.21183
-0.211734
-0.203349
-0.203253
-0.195136
-0.19504
-0.187155
-0.187059
-0.179278
-0.179182
-0.171634
-0.171539
-0.164273
-0.164177
-0.156977
-0.156881
-0.149971
-0.149876
-0.14319
-0.143094
-0.136547
-0.136451
-0.130121
-0.130025
-0.123846
-0.12375
-0.11778
-0.117685
-0.112023
-0.111927
-0.106316
-0.10622
-0.100783
-0.100688
-0.0955752
-0.0954795
-0.0904107
-0.090315
-0.0855558
-0.08546
-0.0807513
-0.0806556
-0.0762499
-0.0761541
-0.0717953
-0.0716996
-0.0676455
-0.0675498
-0.0636465
-0.0635508
-0.0597254
-0.0596297
-0.0560506
-0.0559548
-0.0524687
-0.0523729
-0.0491107
-0.049015
-0.0458536
-0.0457579
-0.042803
-0.0427073
-0.0398557
-0.0397599
-0.0370105
-0.0369148
-0.034362
-0.0342663
-0.0318904
-0.0317947
-0.0295225
-0.0294268
-0.0272391
-0.0271433
-0.0250651
-0.0249693
-0.023114
-0.0230183
-0.0211946
-0.0210989
-0.0194179
-0.0193222
-0.0177357
-0.01764
-0.0161904
-0.0160947
-0.0147258
-0.0146301
-0.0133423
-0.0132466
-0.0120796
-0.0119839
-0.0108987
-0.0108031
-0.00981961
-0.00972392
-0.00878059
-0.0086849
-0.00787066
-0.00777497
-0.00700016
-0.00690447
-0.00620972
-0.00611403
-0.00548971
-0.00539403
-0.0048409
-0.00474522
-0.00425205
-0.00415637
-0.00370259
-0.00360691
-0.00320776
-0.00311207
-0.00277154
-0.00267586
-0.00238049
-0.00228481
-0.00202406
-0.00192838
-0.00172198
-0.0016263
-0.0014493
-0.00135362
-0.0012096
-0.00111392
-0.00100635
-0.000910669
-0.00082991
-0.000734235
-0.000674576
-0.000578898
-0.000542577
-0.000446897
-0.000434332
-0.000338655
-0.000343988
-0.000248313
-0.000267478
-0.000171803
-0.000205619
-0.000109941
-0.000157496
-6.18196e-05
-0.000119729
-2.40547e-05
-8.97935e-05
5.88132e-06
-6.75461e-05
2.81302e-05
-5.18029e-05
4.38726e-05
-4.07902e-05
5.48838e-05
-3.31801e-05
6.24945e-05
-2.84532e-05
6.72217e-05
-2.57861e-05
6.98894e-05
-2.44265e-05
7.12478e-05
-2.38286e-05
7.18482e-05
-2.36233e-05
7.2063e-05
-2.3578e-05
7.21215e-05
-0.400302
-0.397175
-0.401233
-0.39907
-0.402028
-0.399689
-0.404602
-0.40415
-0.406132
-0.405321
-0.410048
-0.410324
-0.412325
-0.412005
-0.417425
-0.418349
-0.420429
-0.42049
-0.426517
-0.42801
-0.430252
-0.430568
-0.437108
-0.438374
-0.441568
-0.442015
-0.448996
-0.449987
-0.454121
-0.454618
-0.461967
-0.462764
-0.467727
-0.468226
-0.47596
-0.476618
-0.482352
-0.482828
-0.490924
-0.491481
-0.497846
-0.498288
-0.506608
-0.507087
-0.513887
-0.514292
-0.522717
-0.523135
-0.530247
-0.530616
-0.539098
-0.539468
-0.546827
-0.547163
-0.55571
-0.556041
-0.563645
-0.56395
-0.572544
-0.572842
-0.580636
-0.580915
-0.589534
-0.589805
-0.597727
-0.597984
-0.60658
-0.60683
-0.614818
-0.615057
-0.623584
-0.623816
-0.631799
-0.632022
-0.640445
-0.640663
-0.648587
-0.648799
-0.657076
-0.657284
-0.66511
-0.665312
-0.673412
-0.673611
-0.681321
-0.681516
-0.689448
-0.68964
-0.697232
-0.697421
-0.705196
-0.705383
-0.712859
-0.713044
-0.720658
-0.720841
-0.728191
-0.728372
-0.735823
-0.736002
-0.743222
-0.7434
-0.750712
-0.750888
-0.757999
-0.758174
-0.765333
-0.765508
-0.772488
-0.772661
-0.779645
-0.779818
-0.786619
-0.786791
-0.793568
-0.793739
-0.800352
-0.800523
-0.807118
-0.807288
-0.813756
-0.813926
-0.820367
-0.820536
-0.826873
-0.827043
-0.833357
-0.833526
-0.839739
-0.839908
-0.846077
-0.846245
-0.852307
-0.852476
-0.858492
-0.858661
-0.864558
-0.864726
-0.870565
-0.870733
-0.876455
-0.876623
-0.882276
-0.882443
-0.888006
-0.888173
-0.893653
-0.893819
-0.899216
-0.899383
-0.904704
-0.904869
-0.91011
-0.910275
-0.915431
-0.915595
-0.920673
-0.920837
-0.925821
-0.925984
-0.930888
-0.931051
-0.935858
-0.936019
-0.940743
-0.940906
-0.945525
-0.945685
-0.950238
-0.9504
-0.954833
-0.954992
-0.959366
-0.959527
-0.963795
-0.963952
-0.968155
-0.968315
-0.972396
-0.972551
-0.976599
-0.976758
-0.980678
-0.980831
-0.984714
-0.984873
-0.988628
-0.988779
-0.99251
-0.992669
-0.996243
-0.996392
-0.999936
-1.0001
-1.00349
-1.00363
-1.00701
-1.00717
-1.01037
-1.01051
-1.01372
-1.01388
-1.01692
-1.01705
-1.02011
-1.02027
-1.02313
-1.02326
-1.02617
-1.02634
-1.02902
-1.02914
-1.03189
-1.03206
-1.03458
-1.03469
-1.03729
-1.03747
-1.03978
-1.03989
-1.04232
-1.04251
-1.04463
-1.04472
-1.04699
-1.04719
-1.0491
-1.04918
-1.05127
-1.05149
-1.05316
-1.05322
-1.05513
-1.05538
-1.05682
-1.05684
-1.05857
-1.05885
-1.06004
-1.06002
-1.06156
-1.06189
-1.0628
-1.06273
-1.06408
-1.06447
-1.06509
-1.06503
-1.06612
-1.06658
-1.06689
-1.06701
-1.06763
-1.06818
-1.06815
-1.06847
-1.06859
-1.06925
-1.06885
-1.0694
-1.06897
-1.06975
-1.06898
-1.06973
-1.06877
-1.0693
-1.06849
-1.06913
-1.06795
-1.06824
-1.06738
-1.0679
-1.06649
-1.06654
-1.0656
-1.06603
-1.06436
-1.06417
-1.06314
-1.06348
-1.06154
-1.06142
-1.05995
-1.06023
-1.05798
-1.05792
-1.05602
-1.05625
-1.05366
-1.05363
-1.05129
-1.05149
-1.04854
-1.04855
-1.04577
-1.04595
-1.04263
-1.04265
-1.03941
-1.03957
-1.03586
-1.0359
-1.03222
-1.03236
-1.02822
-1.02828
-1.02415
-1.02428
-1.01974
-1.01981
-1.01524
-1.01536
-1.01039
-1.01046
-1.00543
-1.00555
-1.00016
-1.00024
-0.99475
-0.994863
-0.989081
-0.989164
-0.983214
-0.983323
-0.977063
-0.977149
-0.970794
-0.9709
-0.964207
-0.964296
-0.957453
-0.957557
-0.950491
-0.950581
-0.94331
-0.943412
-0.93588
-0.935972
-0.928286
-0.928387
-0.920392
-0.920485
-0.912402
-0.912502
-0.90412
-0.904214
-0.895686
-0.895785
-0.887038
-0.887132
-0.878174
-0.878273
-0.869106
-0.8692
-0.85991
-0.860008
-0.850527
-0.850622
-0.840858
-0.840956
-0.831101
-0.831196
-0.821156
-0.821254
-0.811055
-0.81115
-0.800775
-0.800872
-0.790359
-0.790455
-0.779776
-0.779873
-0.768969
-0.769064
-0.758113
-0.75821
-0.747166
-0.747262
-0.735961
-0.736057
-0.724683
-0.724779
-0.713399
-0.713495
-0.701948
-0.702044
-0.690383
-0.690479
-0.678666
-0.678762
-0.666986
-0.667083
-0.655175
-0.655271
-0.643287
-0.643383
-0.631282
-0.631378
-0.619368
-0.619464
-0.607356
-0.607452
-0.595165
-0.595261
-0.583194
-0.58329
-0.571066
-0.571162
-0.558873
-0.55897
-0.546695
-0.546791
-0.534638
-0.534734
-0.522452
-0.522548
-0.510418
-0.510514
-0.498435
-0.498531
-0.486296
-0.486392
-0.474395
-0.474491
-0.462533
-0.462629
-0.450581
-0.450677
-0.438867
-0.438963
-0.427257
-0.427353
-0.415554
-0.41565
-0.40397
-0.404066
-0.392677
-0.392773
-0.381337
-0.381433
-0.37013
-0.370226
-0.35907
-0.359166
-0.348169
-0.348264
-0.337423
-0.337519
-0.326676
-0.326772
-0.316281
-0.316377
-0.305901
-0.305997
-0.295703
-0.295799
-0.285718
-0.285814
-0.275746
-0.275842
-0.265999
-0.266095
-0.25646
-0.256556
-0.247161
-0.247256
-0.238076
-0.238171
-0.22906
-0.229156
-0.220268
-0.220364
-0.211734
-0.21183
-0.203253
-0.203349
-0.19504
-0.195136
-0.187059
-0.187155
-0.179182
-0.179278
-0.171539
-0.171634
-0.164177
-0.164273
-0.156881
-0.156977
-0.149876
-0.149971
-0.143094
-0.14319
-0.136451
-0.136547
-0.130025
-0.130121
-0.12375
-0.123846
-0.117685
-0.11778
-0.111927
-0.112023
-0.10622
-0.106316
-0.100688
-0.100784
-0.0954795
-0.0955753
-0.090315
-0.0904108
-0.08546
-0.0855558
-0.0806556
-0.0807514
-0.0761541
-0.0762499
-0.0716996
-0.0717954
-0.0675498
-0.0676456
-0.0635508
-0.0636466
-0.0596297
-0.0597255
-0.0559548
-0.0560506
-0.0523729
-0.0524687
-0.049015
-0.0491108
-0.0457579
-0.0458537
-0.0427073
-0.0428031
-0.0397599
-0.0398557
-0.0369148
-0.0370106
-0.0342663
-0.0343621
-0.0317947
-0.0318905
-0.0294268
-0.0295226
-0.0271433
-0.0272391
-0.0249693
-0.0250651
-0.0230183
-0.0231141
-0.0210988
-0.0211946
-0.0193222
-0.019418
-0.01764
-0.0177358
-0.0160947
-0.0161905
-0.0146301
-0.0147259
-0.0132466
-0.0133424
-0.0119839
-0.0120796
-0.010803
-0.0108988
-0.0097239
-0.00981967
-0.00868487
-0.00878064
-0.00777494
-0.00787072
-0.00690444
-0.00700022
-0.006114
-0.00620977
-0.00539399
-0.00548977
-0.00474518
-0.00484096
-0.00415634
-0.00425211
-0.00360687
-0.00370264
-0.00311203
-0.00320781
-0.00267582
-0.00277159
-0.00228476
-0.00238053
-0.00192834
-0.00202411
-0.00162626
-0.00172203
-0.00135358
-0.00144935
-0.00111387
-0.00120965
-0.00091062
-0.00100639
-0.000734185
-0.000829954
-0.000578848
-0.000674619
-0.000446846
-0.00054262
-0.000338602
-0.000434374
-0.00024826
-0.000344029
-0.000171749
-0.000267519
-0.000109886
-0.000205659
-6.17643e-05
-0.000157536
-2.3999e-05
-0.000119769
5.93753e-06
-8.98328e-05
2.81868e-05
-6.75852e-05
4.39295e-05
-5.18417e-05
5.49409e-05
-4.08289e-05
6.25517e-05
-3.32186e-05
6.72791e-05
-2.84916e-05
6.99468e-05
-2.58245e-05
7.13052e-05
-2.44648e-05
7.19057e-05
-2.3867e-05
7.21205e-05
-2.36616e-05
7.2179e-05
-2.36163e-05
)
;

boundaryField
{
    walls
    {
        type            zeroGradient;
    }
    inlet
    {
        type            cyclic;
    }
    outlet
    {
        type            cyclic;
    }
    sides
    {
        type            empty;
    }
}


// ************************************************************************* //
