/*--------------------------------*- C++ -*----------------------------------*\
| =========                 |                                                 |
| \\      /  F ield         | OpenFOAM: The Open Source CFD Toolbox           |
|  \\    /   O peration     | Version:  2012                                  |
|   \\  /    A nd           | Website:  www.openfoam.com                      |
|    \\/     M anipulation  |                                                 |
\*---------------------------------------------------------------------------*/
FoamFile
{
    version     2.0;
    format      ascii;
    class       surfaceScalarField;
    location    "16400";
    object      phi;
}
// * * * * * * * * * * * * * * * * * * * * * * * * * * * * * * * * * * * * * //

dimensions      [0 3 -1 0 0 0 0];
oriented        oriented;


internalField   nonuniform List<scalar> 
5116
(
7.81403e-07
-7.49191e-13
-6.69511e-13
-1.87863e-12
6.50852e-13
2.38833e-06
3.09936e-12
-1.05408e-12
-4.81839e-12
9.58854e-13
4.06378e-06
4.96596e-12
-8.08971e-13
-7.07666e-12
7.35893e-13
5.80993e-06
6.79799e-12
-4.53959e-13
-8.31263e-12
4.1296e-13
7.62903e-06
7.09476e-12
-2.4752e-13
-9.00703e-12
2.25172e-13
9.52339e-06
7.90709e-12
-1.53095e-13
-9.40609e-12
1.39281e-13
1.14955e-05
7.84821e-12
-1.07065e-13
-9.71456e-12
9.74113e-14
1.35478e-05
8.39946e-12
-8.17193e-14
-9.92085e-12
7.43602e-14
1.56831e-05
8.2733e-12
-6.62403e-14
-1.01172e-11
6.02823e-14
1.79042e-05
8.73149e-12
-5.60204e-14
-1.0255e-11
5.0992e-14
2.0214e-05
8.56957e-12
-4.88803e-14
-1.04042e-11
4.45006e-14
2.26157e-05
8.97778e-12
-4.36695e-14
-1.05093e-11
3.97677e-14
2.51125e-05
8.80857e-12
-3.97468e-14
-1.0633e-11
3.6204e-14
2.77077e-05
9.18904e-12
-3.67148e-14
-1.07195e-11
3.34541e-14
3.04047e-05
9.00869e-12
-3.43321e-14
-1.08284e-11
3.1292e-14
3.32073e-05
9.36949e-12
-3.24273e-14
-1.09036e-11
2.95684e-14
3.6119e-05
9.18881e-12
-3.08946e-14
-1.10028e-11
2.81805e-14
3.91436e-05
9.53746e-12
-2.96472e-14
-1.10706e-11
2.7056e-14
4.22851e-05
9.35245e-12
-2.86345e-14
-1.11636e-11
2.61421e-14
4.55473e-05
9.69148e-12
-2.78063e-14
-1.12267e-11
2.54002e-14
4.89342e-05
9.50833e-12
-2.71379e-14
-1.13154e-11
2.48006e-14
5.24498e-05
9.84131e-12
-2.65969e-14
-1.13753e-11
2.43211e-14
5.60982e-05
9.65659e-12
-2.61719e-14
-1.14615e-11
2.39442e-14
5.98834e-05
9.98452e-12
-2.58399e-14
-1.15196e-11
2.36563e-14
6.38093e-05
9.80217e-12
-2.55972e-14
-1.16041e-11
2.34465e-14
6.78798e-05
1.01271e-11
-2.54257e-14
-1.16612e-11
2.33062e-14
7.20988e-05
9.94485e-12
-2.53264e-14
-1.17451e-11
2.32284e-14
7.64699e-05
1.02673e-11
-2.52844e-14
-1.18021e-11
2.32077e-14
8.09967e-05
1.00878e-11
-2.53037e-14
-1.18858e-11
2.32394e-14
8.56825e-05
1.04092e-11
-2.5371e-14
-1.19432e-11
2.33201e-14
9.05304e-05
1.0231e-11
-2.54925e-14
-1.20276e-11
2.34467e-14
9.55432e-05
1.05516e-11
-2.5656e-14
-1.20859e-11
2.36172e-14
0.000100723
1.03765e-11
-2.58695e-14
-1.21714e-11
2.38294e-14
0.000106073
1.06973e-11
-2.6121e-14
-1.22311e-11
2.40824e-14
0.000111595
1.05246e-11
-2.64199e-14
-1.23182e-11
2.43747e-14
0.000117289
1.08459e-11
-2.67546e-14
-1.23799e-11
2.47062e-14
0.000123156
1.06766e-11
-2.71357e-14
-1.2469e-11
2.50759e-14
0.000129198
1.09993e-11
-2.75514e-14
-1.2533e-11
2.5484e-14
0.000135414
1.08334e-11
-2.80134e-14
-1.26247e-11
2.59302e-14
0.000141802
1.11578e-11
-2.85098e-14
-1.26914e-11
2.64152e-14
0.000148363
1.09958e-11
-2.90532e-14
-1.27861e-11
2.69388e-14
0.000155092
1.13226e-11
-2.96315e-14
-1.28561e-11
2.7502e-14
0.000161989
1.1165e-11
-3.02582e-14
-1.29542e-11
2.8105e-14
0.000169049
1.14945e-11
-3.09208e-14
-1.30279e-11
2.87491e-14
0.000176267
1.13416e-11
-3.16337e-14
-1.313e-11
2.94346e-14
0.000183639
1.16746e-11
-3.23837e-14
-1.32078e-11
3.01629e-14
0.000191159
1.1527e-11
-3.31862e-14
-1.33144e-11
3.09345e-14
0.00019882
1.1864e-11
-3.40274e-14
-1.33968e-11
3.17509e-14
0.000206613
1.17218e-11
-3.49236e-14
-1.35084e-11
3.26127e-14
0.000214531
1.20633e-11
-3.58598e-14
-1.3596e-11
3.35213e-14
0.000222564
1.19276e-11
-3.68532e-14
-1.37132e-11
3.4477e-14
0.000230701
1.22743e-11
-3.78881e-14
-1.38066e-11
3.54816e-14
0.000238931
1.21449e-11
-3.89824e-14
-1.39298e-11
3.65352e-14
0.000247242
1.24975e-11
-4.01189e-14
-1.40295e-11
3.76391e-14
0.00025562
1.23755e-11
-4.13159e-14
-1.41595e-11
3.87927e-14
0.000264051
1.27346e-11
-4.25546e-14
-1.4266e-11
3.99968e-14
0.00027252
1.26201e-11
-4.38542e-14
-1.44035e-11
4.12507e-14
0.000281012
1.29862e-11
-4.51945e-14
-1.45174e-11
4.2555e-14
0.000289509
1.28802e-11
-4.65945e-14
-1.46628e-11
4.39077e-14
0.000297996
1.32541e-11
-4.80314e-14
-1.47847e-11
4.53081e-14
0.000306453
1.31568e-11
-4.9525e-14
-1.49386e-11
4.67536e-14
0.000314862
1.35392e-11
-5.10504e-14
-1.50689e-11
4.82427e-14
0.000323205
1.34506e-11
-5.26268e-14
-1.52321e-11
4.97712e-14
0.000331462
1.38422e-11
-5.42271e-14
-1.53713e-11
5.13368e-14
0.000339613
1.37629e-11
-5.58713e-14
-1.5544e-11
5.29345e-14
0.000347638
1.41643e-11
-5.7529e-14
-1.56924e-11
5.45603e-14
0.000355519
1.40939e-11
-5.92215e-14
-1.58752e-11
5.62092e-14
0.000363235
1.45055e-11
-6.09166e-14
-1.60331e-11
5.78767e-14
0.000370767
1.44449e-11
-6.2636e-14
-1.6226e-11
5.95566e-14
0.000378097
1.48672e-11
-6.43466e-14
-1.63933e-11
6.12454e-14
0.000385205
1.4815e-11
-6.60725e-14
-1.6597e-11
6.29373e-14
0.000392074
1.52482e-11
-6.77795e-14
-1.67738e-11
6.46292e-14
0.000398688
1.52056e-11
-6.94951e-14
-1.69877e-11
6.63172e-14
0.000405032
1.56497e-11
-7.11853e-14
-1.71739e-11
6.8e-14
0.000411091
1.56152e-11
-7.28821e-14
-1.73986e-11
6.9676e-14
0.000416851
1.60702e-11
-7.45521e-14
-1.7594e-11
7.13465e-14
0.000422302
1.60451e-11
-7.62321e-14
-1.7829e-11
7.30126e-14
0.000427434
1.6511e-11
-7.78891e-14
-1.80335e-11
7.46779e-14
0.000432238
1.6494e-11
-7.95643e-14
-1.82794e-11
7.63457e-14
0.000436708
1.69706e-11
-8.12263e-14
-1.8493e-11
7.8023e-14
0.000440839
1.69633e-11
-8.29213e-14
-1.87495e-11
7.97162e-14
0.000444627
1.74509e-11
-8.46159e-14
-1.89722e-11
8.14321e-14
0.000448073
1.74523e-11
-8.63605e-14
-1.92401e-11
8.31795e-14
0.000451176
1.7951e-11
-8.81202e-14
-1.94724e-11
8.49655e-14
0.000453938
1.79629e-11
-8.99491e-14
-1.97516e-11
8.68008e-14
0.000456363
1.84732e-11
-9.18099e-14
-1.99939e-11
8.8692e-14
0.000458457
1.84958e-11
-9.37605e-14
-2.02859e-11
9.06517e-14
0.000460226
1.90181e-11
-9.57601e-14
-2.0539e-11
9.26846e-14
0.000461678
1.90531e-11
-9.78698e-14
-2.08441e-11
9.48052e-14
0.000462822
1.95885e-11
-1.00045e-13
-2.1109e-11
9.70156e-14
0.000463669
1.96366e-11
-1.02349e-13
-2.14288e-11
9.93327e-14
0.000464229
2.0186e-11
-1.04734e-13
-2.17067e-11
1.01755e-13
0.000464515
2.02488e-11
-1.0727e-13
-2.20421e-11
1.04303e-13
0.00046454
2.08136e-11
-1.09899e-13
-2.23344e-11
1.06971e-13
0.000464315
2.08932e-11
-1.12698e-13
-2.26875e-11
1.09784e-13
0.000463856
2.14747e-11
-1.15605e-13
-2.29959e-11
1.12729e-13
0.000463175
2.15726e-11
-1.18704e-13
-2.33679e-11
1.15842e-13
0.000462286
2.21726e-11
-1.21918e-13
-2.36941e-11
1.19097e-13
0.000461204
2.22914e-11
-1.2535e-13
-2.40876e-11
1.22543e-13
0.000459942
2.29117e-11
-1.28908e-13
-2.44336e-11
1.26141e-13
0.000458513
2.30527e-11
-1.32708e-13
-2.48501e-11
1.29955e-13
0.000456931
2.36954e-11
-1.3664e-13
-2.52182e-11
1.33928e-13
0.000455208
2.38625e-11
-1.40845e-13
-2.56607e-11
1.38147e-13
0.000453358
2.453e-11
-1.45186e-13
-2.60534e-11
1.42529e-13
0.000451392
2.47245e-11
-1.49837e-13
-2.65239e-11
1.47194e-13
0.000449321
2.54193e-11
-1.54621e-13
-2.69437e-11
1.52021e-13
0.000447158
2.56455e-11
-1.59761e-13
-2.74456e-11
1.57175e-13
0.000444911
2.63705e-11
-1.65028e-13
-2.78955e-11
1.62484e-13
0.000442591
2.663e-11
-1.70705e-13
-2.84313e-11
1.68175e-13
0.000440206
2.73881e-11
-1.76491e-13
-2.89144e-11
1.74003e-13
0.000437766
2.76863e-11
-1.82758e-13
-2.94881e-11
1.80285e-13
0.000435278
2.84812e-11
-1.89104e-13
-3.0008e-11
1.86673e-13
0.000432749
2.882e-11
-1.96024e-13
-3.06226e-11
1.93607e-13
0.000430186
2.96552e-11
-2.02971e-13
-3.11829e-11
2.00597e-13
0.000427595
3.00405e-11
-2.10612e-13
-3.1843e-11
2.08252e-13
0.000424981
3.09203e-11
-2.18203e-13
-3.24479e-11
2.15885e-13
0.00042235
3.13544e-11
-2.26646e-13
-3.31573e-11
2.24342e-13
0.000419705
3.22831e-11
-2.3492e-13
-3.3811e-11
2.32658e-13
0.000417051
3.27733e-11
-2.4426e-13
-3.4575e-11
2.42012e-13
0.00041439
3.3756e-11
-2.53256e-13
-3.52827e-11
2.51049e-13
0.000411727
3.43054e-11
-2.63605e-13
-3.61059e-11
2.61411e-13
0.000409064
3.53474e-11
-2.73354e-13
-3.68726e-11
2.712e-13
0.000406402
3.59638e-11
-2.84845e-13
-3.77612e-11
2.82705e-13
0.000403744
3.70712e-11
-2.95369e-13
-3.85927e-11
2.93268e-13
0.000401092
3.77586e-11
-3.08168e-13
-3.95527e-11
3.06079e-13
0.000398447
3.89376e-11
-3.19471e-13
-4.04551e-11
3.1742e-13
0.00039581
3.97055e-11
-3.33783e-13
-4.14936e-11
3.31744e-13
0.000393183
4.09632e-11
-3.45843e-13
-4.24738e-11
3.43841e-13
0.000390566
4.18169e-11
-3.61928e-13
-4.3598e-11
3.59936e-13
0.00038796
4.31609e-11
-3.74683e-13
-4.46632e-11
3.72726e-13
0.000385367
4.41108e-11
-3.92866e-13
-4.58821e-11
3.90918e-13
0.000382787
4.55496e-11
-4.06195e-13
-4.70404e-11
4.0428e-13
0.000380222
4.66026e-11
-4.26902e-13
-4.83628e-11
4.24995e-13
0.000377671
4.81447e-11
-4.40598e-13
-4.96227e-11
4.38722e-13
0.000375137
4.93136e-11
-4.64386e-13
-5.10594e-11
4.62517e-13
0.00037262
5.09688e-11
-4.78113e-13
-5.24302e-11
4.76273e-13
0.000370121
5.22626e-11
-5.05725e-13
-5.39926e-11
5.0389e-13
0.000367641
5.40409e-11
-5.18963e-13
-5.54841e-11
5.17154e-13
0.000365181
5.54743e-11
-5.51396e-13
-5.71855e-11
5.49591e-13
0.000362743
5.73866e-11
-5.63358e-13
-5.88085e-11
5.61578e-13
0.000360326
5.89717e-11
-6.01965e-13
-6.06635e-11
6.00186e-13
0.000357934
6.10289e-11
-6.11483e-13
-6.24289e-11
6.09727e-13
0.000355567
6.27847e-11
-6.58115e-13
-6.44546e-11
6.56359e-13
0.000353226
6.49986e-11
-6.6347e-13
-6.63742e-11
6.61735e-13
0.000350914
6.69413e-11
-7.20684e-13
-6.85897e-11
7.18948e-13
0.000348632
6.93233e-11
-7.19366e-13
-7.0675e-11
7.1765e-13
0.000346384
7.14771e-11
-7.90711e-13
-7.3103e-11
7.88993e-13
0.00034417
7.40385e-11
-7.79083e-13
-7.53657e-11
7.77383e-13
0.000341994
7.64266e-11
-8.69513e-13
-7.80326e-11
8.67809e-13
0.000339858
7.91774e-11
-8.42316e-13
-8.0483e-11
8.4063e-13
0.000337766
8.18337e-11
-9.58785e-13
-8.34202e-11
9.57096e-13
0.000335719
8.47826e-11
-9.0843e-13
-8.60672e-11
9.06757e-13
0.000333721
8.7742e-11
-1.06075e-12
-8.93129e-11
1.05907e-12
0.000331775
9.08938e-11
-9.76301e-13
-9.21615e-11
9.74637e-13
0.000329884
9.42053e-11
-1.17835e-12
-9.57626e-11
1.17668e-12
0.000328052
9.75601e-11
-1.04407e-12
-9.88125e-11
1.04241e-12
0.00032628
1.0128e-10
-1.31559e-12
-1.02828e-10
1.31392e-12
0.000324572
1.04829e-10
-1.1088e-12
-1.0607e-10
1.10714e-12
0.00032293
1.09034e-10
-1.47792e-12
-1.10574e-10
1.47624e-12
0.000321354
1.12756e-10
-1.16593e-12
-1.13985e-10
1.16426e-12
0.000319844
1.17542e-10
-1.67289e-12
-1.19077e-10
1.6712e-12
0.000318401
1.21395e-10
-1.20857e-12
-1.22613e-10
1.20687e-12
0.000317021
1.26895e-10
-1.91111e-12
-1.28422e-10
1.90938e-12
0.000315702
1.30806e-10
-1.22638e-12
-1.32008e-10
1.22463e-12
0.00031444
1.37192e-10
-2.20756e-12
-1.38708e-10
2.20577e-12
0.000313231
1.41044e-10
-1.20393e-12
-1.42224e-10
1.20211e-12
0.00031207
1.48555e-10
-2.5836e-12
-1.50054e-10
2.58172e-12
0.000310952
1.52162e-10
-1.11836e-12
-1.53309e-10
1.11644e-12
0.000309874
1.61123e-10
-3.06985e-12
-1.626e-10
3.06787e-12
0.000308833
1.64194e-10
-9.35849e-13
-1.65305e-10
9.33815e-13
0.00030783
1.7507e-10
-3.71055e-12
-1.76519e-10
3.70844e-12
0.000306864
1.77162e-10
-6.06431e-13
-1.78234e-10
6.04272e-13
0.000305939
1.90613e-10
-4.56983e-12
-1.92028e-10
4.56759e-12
0.000305059
1.91057e-10
-5.63144e-14
-1.92092e-10
5.40179e-14
0.000304229
2.08024e-10
-5.74124e-12
-2.09401e-10
5.73885e-12
0.000303454
2.05818e-10
8.23603e-13
-2.06826e-10
-8.2608e-13
0.000302739
2.27662e-10
-7.36169e-12
-2.28997e-10
7.35909e-12
0.000302088
2.21365e-10
2.19482e-12
-2.22309e-10
-2.19758e-12
0.000301502
2.50039e-10
-9.63255e-12
-2.51292e-10
9.62953e-12
0.000300984
2.37508e-10
4.29667e-12
-2.38298e-10
-4.30002e-12
0.000300534
2.75828e-10
-1.28511e-11
-2.76937e-10
1.28471e-11
0.00030015
2.53734e-10
7.48514e-12
-2.5438e-10
-7.48943e-12
0.000299831
3.05836e-10
-1.74548e-11
-3.0683e-10
1.74506e-11
0.000299571
3.12322e-10
-2.07827e-12
-3.12973e-10
2.07456e-12
0.000299366
3.82812e-10
-2.35946e-11
-3.83846e-10
2.35912e-11
0.00029921
4.24351e-10
-1.38216e-11
-4.25229e-10
1.38186e-11
0.0002991
5.18172e-10
-3.13697e-11
-5.19429e-10
3.1367e-11
0.000299031
6.01633e-10
-2.78096e-11
-6.02785e-10
2.78071e-11
0.000299001
7.23977e-10
-4.08532e-11
-7.25433e-10
4.08506e-11
0.000299011
8.56828e-10
-4.42215e-11
-8.58028e-10
4.42183e-11
0.000299063
9.52767e-10
-3.20277e-11
-9.54191e-10
3.20237e-11
0.000299164
1.07648e-09
-4.11436e-11
-1.07755e-09
4.11391e-11
0.000299314
1.13818e-09
-2.06181e-11
-1.13948e-09
2.06133e-11
0.000299519
1.25155e-09
-3.76951e-11
-1.25251e-09
3.76902e-11
0.000299778
1.27534e-09
-7.99246e-12
-1.27656e-09
7.98766e-12
0.000300092
1.37808e-09
-3.42339e-11
-1.37921e-09
3.42291e-11
0.000300461
1.36117e-09
5.55839e-12
-1.36261e-09
-5.563e-12
0.000300881
1.45473e-09
-3.12619e-11
-1.45636e-09
3.12578e-11
0.000301349
1.43588e-09
6.20868e-12
-1.43782e-09
-6.21215e-12
0.000301856
1.5226e-09
-2.8958e-11
-1.52465e-09
2.89542e-11
0.000302384
1.51662e-09
1.94611e-12
-1.51889e-09
-1.95029e-12
0.000302913
1.59842e-09
-2.72807e-11
-1.60069e-09
2.72759e-11
0.00030342
1.60411e-09
-1.92586e-12
-1.60654e-09
1.92058e-12
0.000303874
1.68262e-09
-2.61598e-11
-1.68496e-09
2.61539e-11
0.000304247
1.69898e-09
-5.48076e-12
-1.70148e-09
5.47453e-12
0.000304508
1.77567e-09
-2.55371e-11
-1.77802e-09
2.55304e-11
0.000304631
1.80192e-09
-8.78399e-12
-1.80445e-09
8.77693e-12
0.000304595
1.87812e-09
-2.53641e-11
-1.88045e-09
2.53566e-11
0.000304393
1.91368e-09
-1.18938e-11
-1.91622e-09
1.18859e-11
0.000304021
1.9906e-09
-2.5599e-11
-1.99291e-09
2.55906e-11
0.000303475
2.03504e-09
-1.48627e-11
-2.03759e-09
1.4854e-11
0.000302748
2.1138e-09
-2.62056e-11
-2.11609e-09
2.61964e-11
0.000301825
2.16685e-09
-1.77385e-11
-2.16941e-09
1.77289e-11
0.000300689
2.24847e-09
-2.71534e-11
-2.25072e-09
2.71433e-11
0.000299314
2.30998e-09
-2.05645e-11
-2.31253e-09
2.0554e-11
0.000297677
2.3954e-09
-2.84177e-11
-2.39763e-09
2.84066e-11
0.000295752
2.46534e-09
-2.33806e-11
-2.46789e-09
2.33691e-11
0.000293515
2.55546e-09
-2.99801e-11
-2.55766e-09
2.9968e-11
0.000290941
2.63392e-09
-2.62242e-11
-2.63647e-09
2.62117e-11
0.000288008
2.72959e-09
-3.18287e-11
-2.73176e-09
3.18156e-11
0.000284708
2.81676e-09
-2.91319e-11
-2.8193e-09
2.91183e-11
0.000281046
2.91883e-09
-3.39583e-11
-2.92096e-09
3.39442e-11
0.000277048
3.01501e-09
-3.214e-11
-3.01753e-09
3.21253e-11
0.000272748
3.12432e-09
-3.63694e-11
-3.12642e-09
3.63541e-11
0.000268185
3.22993e-09
-3.52868e-11
-3.23243e-09
3.5271e-11
0.000263385
3.34734e-09
-3.90659e-11
-3.34939e-09
3.90494e-11
0.000258359
3.46289e-09
-3.8603e-11
-3.46536e-09
3.8586e-11
0.000253092
3.58927e-09
-4.2055e-11
-3.59127e-09
4.20373e-11
0.000247544
3.71537e-09
-4.21198e-11
-3.71779e-09
4.21014e-11
0.000241673
3.85164e-09
-4.5349e-11
-3.85356e-09
4.533e-11
0.000235448
3.989e-09
-4.58742e-11
-3.99136e-09
4.58544e-11
0.000228868
4.13613e-09
-4.89673e-11
-4.13797e-09
4.89468e-11
0.000221957
4.28558e-09
-4.99039e-11
-4.28785e-09
4.98826e-11
0.000214741
4.44463e-09
-5.29352e-11
-4.44635e-09
5.29131e-11
0.000207249
4.6071e-09
-5.42484e-11
-4.60927e-09
5.42255e-11
0.000199505
4.7792e-09
-5.7281e-11
-4.78078e-09
5.72571e-11
0.000191545
4.95576e-09
-5.89469e-11
-4.9578e-09
5.89222e-11
0.000183413
5.14213e-09
-6.20343e-11
-5.14356e-09
6.20085e-11
0.000175168
5.33397e-09
-6.40363e-11
-5.33584e-09
6.40096e-11
0.000166858
5.5359e-09
-6.72224e-11
-5.53715e-09
6.71946e-11
0.000158501
5.74428e-09
-6.9549e-11
-5.74597e-09
6.95202e-11
0.000150067
5.96316e-09
-7.28692e-11
-5.9642e-09
7.28392e-11
0.000141487
6.18943e-09
-7.55138e-11
-6.19091e-09
7.54826e-11
0.000132657
6.42671e-09
-7.89999e-11
-6.42752e-09
7.89675e-11
0.000123467
6.67232e-09
-8.19634e-11
-6.67358e-09
8.19297e-11
0.000113821
6.92957e-09
-8.56495e-11
-6.93013e-09
8.56144e-11
0.000103626
7.19612e-09
-8.89435e-11
-7.19713e-09
8.89071e-11
9.28062e-05
7.47502e-09
-9.28694e-11
-7.47532e-09
9.28315e-11
8.13621e-05
7.76428e-09
-9.65162e-11
-7.76504e-09
9.64769e-11
6.94056e-05
8.06676e-09
-1.00727e-10
-8.06679e-09
1.00686e-10
5.71502e-05
8.38073e-09
-1.04752e-10
-8.38121e-09
1.04709e-10
4.48481e-05
8.70889e-09
-1.09285e-10
-8.70863e-09
1.09241e-10
3.27307e-05
9.04969e-09
-1.13699e-10
-9.04989e-09
1.13653e-10
2.1009e-05
9.4057e-09
-1.18569e-10
-9.40515e-09
1.18521e-10
9.84034e-06
9.77548e-09
-1.23357e-10
-9.77538e-09
1.23307e-10
-7.75246e-07
1.01614e-08
-1.28547e-10
-1.01606e-08
1.28495e-10
-1.10471e-05
1.05621e-08
-1.33653e-10
-1.05617e-08
1.33599e-10
-2.12947e-05
1.09804e-08
-1.39335e-10
-1.09792e-08
1.39279e-10
-3.1762e-05
1.14151e-08
-1.45022e-10
-1.14145e-08
1.44963e-10
-4.24411e-05
1.18693e-08
-1.51304e-10
-1.18679e-08
1.51243e-10
-5.3091e-05
1.23421e-08
-1.57673e-10
-1.23411e-08
1.57609e-10
-6.33805e-05
1.28363e-08
-1.64647e-10
-1.28345e-08
1.64581e-10
-7.304e-05
1.33513e-08
-1.71784e-10
-1.335e-08
1.71714e-10
-8.19075e-05
1.38901e-08
-1.79503e-10
-1.3888e-08
1.79431e-10
-8.98923e-05
1.44521e-08
-1.87451e-10
-1.44506e-08
1.87375e-10
-9.70543e-05
1.50402e-08
-1.95931e-10
-1.50378e-08
1.95852e-10
-0.00010361
1.5654e-08
-2.04712e-10
-1.56521e-08
2.04629e-10
-0.000109816
1.62962e-08
-2.13965e-10
-1.62935e-08
2.13879e-10
-0.000115897
1.69667e-08
-2.23626e-10
-1.69646e-08
2.23535e-10
-0.00012207
1.7668e-08
-2.33702e-10
-1.76651e-08
2.33607e-10
-0.000128591
1.84006e-08
-2.44337e-10
-1.83983e-08
2.44238e-10
-0.000135777
1.91669e-08
-2.55338e-10
-1.91638e-08
2.55235e-10
-0.000143939
1.99678e-08
-2.67134e-10
-1.99655e-08
2.67025e-10
-0.000153338
2.08058e-08
-2.79268e-10
-2.08027e-08
2.79155e-10
-0.000164159
2.16831e-08
-2.92575e-10
-2.16807e-08
2.92456e-10
-0.00017647
2.26019e-08
-3.06219e-10
-2.25989e-08
3.06095e-10
-0.000190315
2.35662e-08
-3.21613e-10
-2.35639e-08
3.21483e-10
-0.000205782
2.45783e-08
-3.37341e-10
-2.45755e-08
3.37207e-10
-0.000222829
2.56448e-08
-3.55687e-10
-2.56428e-08
3.55545e-10
-0.000241223
2.67678e-08
-3.74301e-10
-2.67652e-08
3.74155e-10
-0.000260739
2.79576e-08
-3.96799e-10
-2.79558e-08
3.96645e-10
-0.000281334
2.92155e-08
-4.19261e-10
-2.92131e-08
4.19104e-10
-0.000303158
3.05575e-08
-4.47512e-10
-3.05558e-08
4.47346e-10
-0.000326272
3.19828e-08
-4.75019e-10
-3.19803e-08
4.74852e-10
-0.000350399
3.35164e-08
-5.11378e-10
-3.35145e-08
5.11201e-10
-0.000374956
3.51529e-08
-5.45395e-10
-3.51499e-08
5.45218e-10
-0.000399272
3.69318e-08
-5.93118e-10
-3.69293e-08
5.9293e-10
-0.000422836
3.88366e-08
-6.348e-10
-3.88329e-08
6.34613e-10
-0.000445138
4.09305e-08
-6.98102e-10
-4.09271e-08
6.97901e-10
-0.000465283
4.31737e-08
-7.47545e-10
-4.31687e-08
7.47344e-10
-0.000482195
4.56696e-08
-8.32102e-10
-4.5665e-08
8.31884e-10
-0.000495276
4.8331e-08
-8.86905e-10
-4.83245e-08
8.86685e-10
-0.000504866
5.13327e-08
-1.00072e-09
-5.13267e-08
1.00048e-09
-0.000512148
5.44966e-08
-1.05441e-09
-5.44886e-08
1.05416e-09
-0.000518618
5.81295e-08
-1.21117e-09
-5.81223e-08
1.21089e-09
-0.000525403
6.18844e-08
-1.25142e-09
-6.18752e-08
1.25112e-09
-0.000532687
6.63132e-08
-1.4765e-09
-6.6305e-08
1.47616e-09
-0.000539815
7.07509e-08
-1.47908e-09
-7.07409e-08
1.47873e-09
-0.000545857
7.62061e-08
-1.81867e-09
-7.61971e-08
1.81827e-09
-0.000549947
8.14073e-08
-1.73367e-09
-8.13966e-08
1.73327e-09
-0.000551476
8.82188e-08
-2.2709e-09
-8.82093e-08
2.27044e-09
-0.00055026
9.42177e-08
-1.99923e-09
-9.42046e-08
1.99877e-09
-0.000546581
1.02877e-07
-2.8856e-09
-1.02865e-07
2.88504e-09
-0.000540737
1.09593e-07
-2.2394e-09
-1.0958e-07
2.23874e-09
-0.000532335
1.20847e-07
-3.75154e-09
-1.2084e-07
3.75063e-09
-0.000520683
1.27956e-07
-2.3805e-09
-1.27983e-07
2.37943e-09
-0.000505999
1.42986e-07
-5.01572e-09
-1.43033e-07
5.01419e-09
-0.000489281
1.49889e-07
-2.27949e-09
-1.49847e-07
2.27829e-09
-0.000472022
1.70677e-07
-6.92473e-09
-1.70585e-07
6.92454e-09
-0.000455809
1.75966e-07
-1.70049e-09
-1.75638e-07
1.7028e-09
-0.000441532
2.02511e-07
-8.85062e-09
-2.0213e-07
8.85582e-09
-0.000429016
2.0292e-07
-2.14229e-10
-2.0295e-07
2.18394e-10
-0.000417828
2.20243e-07
-5.82326e-09
-2.20569e-07
5.8228e-09
-0.000408497
2.12256e-07
2.4779e-09
-2.13478e-07
-2.48252e-09
-0.000402001
2.169e-07
-1.57734e-09
-2.18367e-07
1.56626e-09
-0.000398191
1.97788e-07
6.36072e-09
-1.99335e-07
-6.36899e-09
-0.000395525
1.86931e-07
3.66679e-09
-1.88191e-07
-3.67019e-09
-0.000392772
1.31178e-07
1.86799e-08
-1.31968e-07
-1.86746e-08
-0.000391022
7.71846e-08
1.80567e-08
-7.76216e-08
-1.80496e-08
-0.000392367
2.72434e-08
-4.40213e-09
-2.7236e-08
4.22956e-09
7.81404e-07
-1.94492e-12
1.97814e-12
2.38833e-06
-4.83996e-12
4.85535e-12
4.06378e-06
-7.06141e-12
7.05618e-12
5.80993e-06
-8.30509e-12
8.30055e-12
7.62903e-06
-8.98497e-12
8.97182e-12
9.52339e-06
-9.4025e-12
9.39666e-12
1.14955e-05
-9.69736e-12
9.68444e-12
1.35478e-05
-9.91958e-12
9.91359e-12
1.56831e-05
-1.01026e-11
1.009e-11
1.79042e-05
-1.02546e-11
1.02484e-11
2.0214e-05
-1.03901e-11
1.03772e-11
2.26157e-05
-1.05084e-11
1.05014e-11
2.51125e-05
-1.06189e-11
1.06053e-11
2.77077e-05
-1.07182e-11
1.07104e-11
3.04047e-05
-1.08139e-11
1.07995e-11
3.32073e-05
-1.09015e-11
1.08926e-11
3.6119e-05
-1.09878e-11
1.09724e-11
3.91436e-05
-1.10679e-11
1.10579e-11
4.22851e-05
-1.11481e-11
1.11315e-11
4.55473e-05
-1.12232e-11
1.12118e-11
4.89342e-05
-1.12993e-11
1.12814e-11
5.24498e-05
-1.13713e-11
1.13584e-11
5.60982e-05
-1.14448e-11
1.14254e-11
5.98834e-05
-1.15148e-11
1.15002e-11
6.38093e-05
-1.15868e-11
1.15657e-11
6.78798e-05
-1.16558e-11
1.16393e-11
7.20988e-05
-1.17271e-11
1.17042e-11
7.64699e-05
-1.17958e-11
1.17774e-11
8.09967e-05
-1.18672e-11
1.18423e-11
8.56825e-05
-1.19363e-11
1.19157e-11
9.05304e-05
-1.20083e-11
1.19813e-11
9.55432e-05
-1.20784e-11
1.20555e-11
0.000100723
-1.21515e-11
1.21222e-11
0.000106073
-1.2223e-11
1.21978e-11
0.000111595
-1.22977e-11
1.22661e-11
0.000117289
-1.23711e-11
1.23435e-11
0.000123156
-1.24479e-11
1.2414e-11
0.000129198
-1.25237e-11
1.24936e-11
0.000135414
-1.2603e-11
1.25668e-11
0.000141802
-1.26816e-11
1.26491e-11
0.000148363
-1.27639e-11
1.27254e-11
0.000155092
-1.28457e-11
1.28109e-11
0.000161989
-1.29314e-11
1.28908e-11
0.000169049
-1.3017e-11
1.29801e-11
0.000176267
-1.31066e-11
1.3064e-11
0.000183639
-1.31964e-11
1.31575e-11
0.000191159
-1.32905e-11
1.32461e-11
0.00019882
-1.3385e-11
1.33444e-11
0.000206613
-1.3484e-11
1.34381e-11
0.000214531
-1.35839e-11
1.35418e-11
0.000222564
-1.36883e-11
1.36411e-11
0.000230701
-1.3794e-11
1.37508e-11
0.000238931
-1.39045e-11
1.38565e-11
0.000247242
-1.40167e-11
1.39727e-11
0.00025562
-1.41338e-11
1.40853e-11
0.000264051
-1.42531e-11
1.42087e-11
0.00027252
-1.43775e-11
1.43288e-11
0.000281012
-1.45045e-11
1.446e-11
0.000289509
-1.46366e-11
1.45882e-11
0.000297996
-1.47719e-11
1.47278e-11
0.000306453
-1.49123e-11
1.48647e-11
0.000314862
-1.50564e-11
1.50134e-11
0.000323205
-1.52059e-11
1.51594e-11
0.000331462
-1.53593e-11
1.53175e-11
0.000339613
-1.55183e-11
1.54731e-11
0.000347639
-1.56812e-11
1.56412e-11
0.000355519
-1.58503e-11
1.58065e-11
0.000363235
-1.60228e-11
1.59849e-11
0.000370767
-1.62019e-11
1.61603e-11
0.000378097
-1.63837e-11
1.63493e-11
0.000385205
-1.65745e-11
1.65345e-11
0.000392074
-1.67655e-11
1.6734e-11
0.000398689
-1.69672e-11
1.69293e-11
0.000405032
-1.71668e-11
1.71395e-11
0.000411091
-1.7381e-11
1.73443e-11
0.000416851
-1.75887e-11
1.75651e-11
0.000422302
-1.78141e-11
1.77797e-11
0.000427434
-1.8029e-11
1.80113e-11
0.000432238
-1.82688e-11
1.8235e-11
0.000436708
-1.84907e-11
1.84773e-11
0.000440839
-1.87429e-11
1.87106e-11
0.000444627
-1.89711e-11
1.89642e-11
0.000448073
-1.92392e-11
1.92067e-11
0.000451176
-1.94739e-11
1.94717e-11
0.000453938
-1.97556e-11
1.97246e-11
0.000456363
-1.99963e-11
2.00019e-11
0.000458457
-2.02968e-11
2.02649e-11
0.000460226
-2.05444e-11
2.05552e-11
0.000461678
-2.08613e-11
2.08298e-11
0.000462822
-2.11157e-11
2.11344e-11
0.000463669
-2.14541e-11
2.1421e-11
0.000464229
-2.17168e-11
2.17409e-11
0.000464515
-2.20743e-11
2.20416e-11
0.00046454
-2.23459e-11
2.23785e-11
0.000464316
-2.27287e-11
2.26937e-11
0.000463856
-2.30111e-11
2.30492e-11
0.000463175
-2.34171e-11
2.33815e-11
0.000462287
-2.37114e-11
2.37576e-11
0.000461204
-2.41463e-11
2.4108e-11
0.000459942
-2.4455e-11
2.45065e-11
0.000458513
-2.49173e-11
2.4878e-11
0.000456931
-2.5242e-11
2.53014e-11
0.000455208
-2.57379e-11
2.56953e-11
0.000453358
-2.60816e-11
2.6146e-11
0.000451392
-2.66102e-11
2.65657e-11
0.000449322
-2.69749e-11
2.70463e-11
0.000447158
-2.75421e-11
2.74939e-11
0.000444911
-2.79315e-11
2.80073e-11
0.000442591
-2.8537e-11
2.84865e-11
0.000440207
-2.8954e-11
2.90361e-11
0.000437766
-2.96039e-11
2.95494e-11
0.000435278
-3.00524e-11
3.01384e-11
0.000432749
-3.07475e-11
3.06902e-11
0.000430186
-3.12312e-11
3.13225e-11
0.000427595
-3.19775e-11
3.19161e-11
0.000424981
-3.2501e-11
3.25958e-11
0.00042235
-3.33004e-11
3.32361e-11
0.000419705
-3.38681e-11
3.39677e-11
0.000417051
-3.47269e-11
3.46589e-11
0.000414391
-3.53441e-11
3.54472e-11
0.000411727
-3.62655e-11
3.6195e-11
0.000409064
-3.69373e-11
3.70454e-11
0.000406402
-3.79281e-11
3.78549e-11
0.000403745
-3.86609e-11
3.87732e-11
0.000401092
-3.97258e-11
3.96512e-11
0.000398447
-4.05256e-11
4.06437e-11
0.00039581
-4.16721e-11
4.15966e-11
0.000393183
-4.25463e-11
4.267e-11
0.000390566
-4.37807e-11
4.37059e-11
0.00038796
-4.47366e-11
4.48678e-11
0.000385367
-4.60678e-11
4.59944e-11
0.000382787
-4.71138e-11
4.72528e-11
0.000380222
-4.85504e-11
4.848e-11
0.000377671
-4.96952e-11
4.98437e-11
0.000375137
-5.12474e-11
5.11813e-11
0.00037262
-5.25007e-11
5.26596e-11
0.000370121
-5.41797e-11
5.41196e-11
0.000367641
-5.55515e-11
5.57227e-11
0.000365181
-5.73704e-11
5.73176e-11
0.000362743
-5.88717e-11
5.90562e-11
0.000360327
-6.08452e-11
6.0801e-11
0.000357934
-6.24873e-11
6.26866e-11
0.000355567
-6.46315e-11
6.45977e-11
0.000353226
-6.64264e-11
6.66419e-11
0.000350914
-6.87611e-11
6.87386e-11
0.000348633
-7.07207e-11
7.09536e-11
0.000346384
-7.32676e-11
7.3258e-11
0.00034417
-7.54036e-11
7.56553e-11
0.000341994
-7.819e-11
7.81936e-11
0.000339859
-8.05132e-11
8.07844e-11
0.000337766
-8.35691e-11
8.35877e-11
0.000335719
-8.60885e-11
8.63807e-11
0.000333721
-8.94532e-11
8.94869e-11
0.000331775
-9.21741e-11
9.2488e-11
0.000329885
-9.58932e-11
9.59433e-11
0.000328052
-9.88155e-11
9.91525e-11
0.000326281
-1.02949e-10
1.03015e-10
0.000324573
-1.06064e-10
1.06424e-10
0.00032293
-1.10686e-10
1.10769e-10
0.000321354
-1.1397e-10
1.14356e-10
0.000319844
-1.19179e-10
1.19281e-10
0.000318401
-1.22589e-10
1.23002e-10
0.000317021
-1.28514e-10
1.28636e-10
0.000315703
-1.31975e-10
1.32418e-10
0.000314441
-1.38792e-10
1.38934e-10
0.000313231
-1.42183e-10
1.42658e-10
0.00031207
-1.50129e-10
1.50295e-10
0.000310952
-1.53261e-10
1.53774e-10
0.000309874
-1.62668e-10
1.62859e-10
0.000308834
-1.65251e-10
1.65801e-10
0.00030783
-1.76581e-10
1.768e-10
0.000306864
-1.78174e-10
1.78763e-10
0.000305939
-1.92084e-10
1.92329e-10
0.000305059
-1.92026e-10
1.92653e-10
0.000304229
-2.09451e-10
2.09724e-10
0.000303455
-2.06755e-10
2.07417e-10
0.00030274
-2.29042e-10
2.29349e-10
0.000302088
-2.22235e-10
2.22942e-10
0.000301502
-2.51333e-10
2.51686e-10
0.000300984
-2.38222e-10
2.38937e-10
0.000300534
-2.76975e-10
2.77329e-10
0.000300151
-2.54302e-10
2.5496e-10
0.000299832
-3.06865e-10
3.07167e-10
0.000299572
-3.12893e-10
3.1347e-10
0.000299366
-3.83877e-10
3.84112e-10
0.000299211
-4.25147e-10
4.25594e-10
0.0002991
-5.19456e-10
5.19577e-10
0.000299031
-6.027e-10
6.03014e-10
0.000299002
-7.25456e-10
7.25484e-10
0.000299011
-8.57942e-10
8.58221e-10
0.000299064
-9.5421e-10
9.54241e-10
0.000299164
-1.07747e-09
1.07778e-09
0.000299315
-1.1395e-09
1.13957e-09
0.00029952
-1.25242e-09
1.25275e-09
0.000299779
-1.27657e-09
1.27664e-09
0.000300092
-1.37912e-09
1.37926e-09
0.000300461
-1.36261e-09
1.36247e-09
0.000300882
-1.45626e-09
1.456e-09
0.00030135
-1.43781e-09
1.43728e-09
0.000301856
-1.52455e-09
1.52397e-09
0.000302384
-1.51888e-09
1.5181e-09
0.000302914
-1.60058e-09
1.59984e-09
0.00030342
-1.60651e-09
1.6056e-09
0.000303875
-1.68484e-09
1.68403e-09
0.000304248
-1.70144e-09
1.70045e-09
0.000304509
-1.77789e-09
1.77705e-09
0.000304631
-1.8044e-09
1.80336e-09
0.000304596
-1.88031e-09
1.87947e-09
0.000304394
-1.91616e-09
1.91509e-09
0.000304021
-1.99276e-09
1.99192e-09
0.000303475
-2.03752e-09
2.03641e-09
0.000302748
-2.11593e-09
2.11508e-09
0.000301826
-2.16932e-09
2.16818e-09
0.000300689
-2.25056e-09
2.24971e-09
0.000299315
-2.31243e-09
2.31126e-09
0.000297678
-2.39745e-09
2.39659e-09
0.000295753
-2.46778e-09
2.46657e-09
0.000293516
-2.55748e-09
2.55661e-09
0.000290942
-2.63634e-09
2.63509e-09
0.000288009
-2.73157e-09
2.73069e-09
0.000284708
-2.81916e-09
2.81787e-09
0.000281046
-2.92077e-09
2.91987e-09
0.000277048
-3.01739e-09
3.01606e-09
0.000272749
-3.12622e-09
3.12531e-09
0.000268185
-3.23229e-09
3.23093e-09
0.000263386
-3.3492e-09
3.34827e-09
0.000258359
-3.46521e-09
3.46382e-09
0.000253092
-3.59108e-09
3.59015e-09
0.000247544
-3.71764e-09
3.71624e-09
0.000241673
-3.85337e-09
3.85246e-09
0.000235448
-3.9912e-09
3.9898e-09
0.000228868
-4.13778e-09
4.13689e-09
0.000221957
-4.28769e-09
4.28631e-09
0.000214741
-4.44616e-09
4.44531e-09
0.000207249
-4.6091e-09
4.60776e-09
0.000199505
-4.7806e-09
4.77981e-09
0.000191544
-4.95764e-09
4.95634e-09
0.000183412
-5.14338e-09
5.14266e-09
0.000175167
-5.33568e-09
5.33445e-09
0.000166857
-5.53698e-09
5.53635e-09
0.000158499
-5.74582e-09
5.74467e-09
0.000150066
-5.96404e-09
5.96351e-09
0.000141485
-6.19077e-09
6.18972e-09
0.000132655
-6.42738e-09
6.42695e-09
0.000123465
-6.67346e-09
6.6725e-09
0.000113819
-6.93e-09
6.92969e-09
0.000103624
-7.19701e-09
7.19617e-09
9.2804e-05
-7.47521e-09
7.47502e-09
8.13598e-05
-7.76494e-09
7.7642e-09
6.94033e-05
-8.0667e-09
8.06662e-09
5.71478e-05
-8.38114e-09
8.3805e-09
4.48456e-05
-8.70856e-09
8.70859e-09
3.27281e-05
-9.04984e-09
9.0493e-09
2.10064e-05
-9.40511e-09
9.40524e-09
9.83769e-06
-9.77536e-09
9.77491e-09
-7.7792e-07
-1.01606e-08