/*--------------------------------*- C++ -*----------------------------------*\
| =========                 |                                                 |
| \\      /  F ield         | OpenFOAM: The Open Source CFD Toolbox           |
|  \\    /   O peration     | Version:  2012                                  |
|   \\  /    A nd           | Website:  www.openfoam.com                      |
|    \\/     M anipulation  |                                                 |
\*---------------------------------------------------------------------------*/
FoamFile
{
    version     2.0;
    format      ascii;
    class       volVectorField;
    location    "12000";
    object      U;
}
// * * * * * * * * * * * * * * * * * * * * * * * * * * * * * * * * * * * * * //

dimensions      [0 1 -1 0 0 0 0];


internalField   nonuniform List<vector> 
80
(
(0.0965062 4.37704e-16 -3.86634e-16)
(0.0965062 2.73346e-16 -1.36509e-16)
(0.349043 -2.64147e-15 -2.17221e-15)
(0.349043 -3.54499e-16 -8.04189e-16)
(0.626558 -9.77566e-16 -1.77582e-15)
(0.626558 -1.75345e-16 -1.02196e-15)
(0.786993 -6.9606e-16 -1.88661e-15)
(0.786993 -3.35618e-16 -1.48069e-15)
(0.875658 -5.75857e-16 -2.49318e-15)
(0.875658 -4.40549e-16 -2.53418e-15)
(0.931163 -5.23561e-16 -3.39522e-15)
(0.931163 -4.81609e-16 -3.40354e-15)
(0.970317 -3.96466e-16 -4.78323e-15)
(0.970317 -3.78023e-16 -4.78886e-15)
(1.00102 -5.67063e-16 -6.89477e-15)
(1.00102 -5.80605e-16 -6.87155e-15)
(1.02665 -1.97004e-16 -1.0047e-14)
(1.02665 -2.10343e-16 -1.001e-14)
(1.04874 -6.23577e-16 -1.88907e-14)
(1.04874 -6.30972e-16 -1.89076e-14)
(0.0965062 2.44845e-17 7.59414e-17)
(0.0965062 3.3624e-17 1.73755e-17)
(0.349043 -2.37739e-16 3.01174e-16)
(0.349043 -1.97439e-16 2.39552e-16)
(0.626558 -2.28657e-16 7.26256e-16)
(0.626558 -1.78047e-16 6.81423e-16)
(0.786993 -3.33871e-16 1.59135e-15)
(0.786993 -2.60932e-16 1.4737e-15)
(0.875658 -3.96317e-16 2.49318e-15)
(0.875658 -3.4903e-16 2.53418e-15)
(0.931163 -4.15059e-16 3.39522e-15)
(0.931163 -4.05479e-16 3.40354e-15)
(0.970317 -2.79244e-16 4.78323e-15)
(0.970317 -2.64415e-16 4.78886e-15)
(1.00102 -4.63265e-16 6.89477e-15)
(1.00102 -4.62351e-16 6.87155e-15)
(1.02665 -1.84154e-16 1.0047e-14)
(1.02665 -1.87403e-16 1.001e-14)
(1.04874 -6.49616e-16 1.88907e-14)
(1.04874 -6.52889e-16 1.89076e-14)
(1.04874 -7.61019e-16 -1.64574e-14)
(1.04874 -7.56234e-16 -1.64455e-14)
(1.02665 4.03304e-16 -1.80072e-15)
(1.02665 3.74974e-16 -1.92378e-15)
(1.00102 -7.45541e-18 -5.40299e-16)
(1.00102 -2.73144e-17 -4.06851e-16)
(0.970317 6.3777e-18 -9.36336e-17)
(0.970317 4.77609e-17 -1.1385e-16)
(0.931163 5.18636e-17 -4.82594e-17)
(0.931163 5.30107e-17 -1.09881e-16)
(0.875658 3.18398e-17 -4.07854e-17)
(0.875658 3.00685e-17 -5.74729e-17)
(0.786993 -3.35755e-18 -5.76278e-17)
(0.786993 8.46148e-18 -7.3465e-17)
(0.626558 2.03689e-19 -9.96558e-17)
(0.626558 -5.4274e-18 -9.63213e-17)
(0.349043 -9.3635e-19 -1.39737e-16)
(0.349043 -1.22965e-19 -1.26734e-16)
(0.0965062 -6.00095e-19 -2.32198e-17)
(0.0965062 1.30881e-18 -1.22565e-17)
(1.04874 -7.83789e-16 1.63163e-14)
(1.04874 -7.74431e-16 1.62478e-14)
(1.02665 4.11453e-16 1.84273e-15)
(1.02665 3.77902e-16 1.99943e-15)
(1.00102 6.18008e-17 5.68534e-16)
(1.00102 1.60616e-17 4.04105e-16)
(0.970317 -1.21784e-17 1.67011e-16)
(0.970317 -3.71093e-17 1.41725e-16)
(0.931163 -3.91067e-17 1.77182e-17)
(0.931163 -5.50605e-17 1.06266e-16)
(0.875658 8.02881e-18 4.10344e-17)
(0.875658 -2.17795e-17 2.06547e-17)
(0.786993 4.65067e-18 4.6251e-18)
(0.786993 -2.07461e-18 5.27605e-17)
(0.626558 1.62693e-17 1.25035e-17)
(0.626558 -9.42434e-18 6.96841e-17)
(0.349043 3.43405e-18 1.04226e-17)
(0.349043 6.25959e-20 9.75561e-17)
(0.0965062 1.67883e-19 2.30896e-18)
(0.0965062 -1.26955e-18 2.30461e-17)
)
;

boundaryField
{
    walls
    {
        type            fixedValue;
        value           uniform (0 0 0);
    }
    inlet
    {
        type            cyclic;
    }
    outlet
    {
        type            cyclic;
    }
    sides
    {
        type            empty;
    }
}


// ************************************************************************* //
