/*--------------------------------*- C++ -*----------------------------------*\
| =========                 |                                                 |
| \\      /  F ield         | OpenFOAM: The Open Source CFD Toolbox           |
|  \\    /   O peration     | Version:  2012                                  |
|   \\  /    A nd           | Website:  www.openfoam.com                      |
|    \\/     M anipulation  |                                                 |
\*---------------------------------------------------------------------------*/
FoamFile
{
    version     2.0;
    format      ascii;
    class       volTensorField;
    location    "12000";
    object      grad(U);
}
// * * * * * * * * * * * * * * * * * * * * * * * * * * * * * * * * * * * * * //

dimensions      [0 0 -1 0 0 0 0];


internalField   nonuniform List<tensor> 
40
(
(0 5.43995e-30 4.05456e-29 52.8247 7.49204e-14 1.24081e-13 4.82857 4.33941e-15 6.1265e-15)
(0 0 -2.80772e-30 52.8247 -6.38707e-30 1.11165e-13 4.82857 0 3.81388e-15)
(1.34095e-15 1.25623e-29 5.35717e-30 14.1011 -5.50542e-30 3.00109e-15 6.11742 0 3.73135e-16)
(1.84244e-14 -1.06545e-29 0 14.1011 1.24032e-14 4.59614e-31 6.11742 2.73831e-15 1.97215e-31)
(-2.10599e-15 0 0 1.93716 -7.68881e-15 -6.14152e-15 2.77793 1.1061e-14 3.9443e-30)
(0 0 0 1.93716 4.7777e-15 -6.61825e-15 2.77793 7.06751e-15 -7.88861e-30)
(6.39784e-15 1.09459e-30 7.10303e-31 0.319874 -4.39888e-15 -2.82725e-15 2.76744 1.99849e-15 2.95823e-30)
(9.20082e-15 -7.10303e-31 0 0.319874 -3.25785e-15 -2.71994e-15 2.76744 1.48433e-15 2.46519e-30)
(3.9443e-31 0 0 -1.42811e-29 -1.97215e-31 3.64171e-16 -7.75181e-19 6.32274e-30 -3.23217e-15)
(0 -2.94431e-29 4.49235e-31 1.38778e-17 -2.56091e-17 4.6022e-16 -7.75181e-19 -3.51327e-16 -6.5207e-16)
(0 0 0 52.8247 3.24525e-14 -6.73522e-14 -4.82857 -4.33941e-15 -6.1265e-15)
(0 0 0 52.8247 2.44761e-14 -6.31222e-14 -4.82857 1.46393e-15 -3.81388e-15)
(8.88874e-16 -1.77576e-30 -3.11404e-30 14.1011 1.25322e-14 0 -6.11742 -1.69334e-14 -3.73135e-16)
(1.6234e-14 0 -5.4186e-29 14.1011 9.16144e-15 -8.82663e-15 -6.11742 -2.73831e-15 -1.65593e-15)
(2.52897e-15 2.24617e-30 -2.24617e-30 1.93716 -1.9896e-15 5.72823e-15 -2.77793 -7.3576e-15 -3.9443e-30)
(0 0 0 1.93716 -5.3569e-16 4.78414e-15 -2.77793 -1.7888e-15 7.88861e-30)
(-2.3002e-15 -1.64637e-32 0 0.319874 -3.95695e-15 2.46926e-15 -2.76744 -1.99849e-15 -2.95823e-30)
(0 9.48105e-32 1.06134e-34 0.319874 -3.59747e-15 2.71994e-15 -2.76744 -1.48433e-15 -2.4653e-30)
(2.87707e-15 -1.43052e-29 0 1.30451e-15 -1.688e-16 -4.86565e-16 -1.77636e-14 2.31574e-15 3.23217e-15)
(7.46192e-15 -2.14721e-29 0 1.29063e-15 -1.38744e-16 -4.84912e-16 -1.77636e-14 1.90341e-15 6.5207e-16)
(2.87862e-15 -6.81428e-32 7.32303e-33 -1.34493e-08 3.55613e-17 0 1.84508e-07 4.87859e-16 1.02634e-48)
(1.15052e-14 8.86734e-31 0 -1.34493e-08 2.7453e-18 3.91371e-17 1.84508e-07 3.76623e-17 -3.9443e-30)
(2.3002e-15 -8.87878e-32 0 -0.319874 5.84129e-17 -1.51314e-15 2.76744 -4.8978e-16 7.3379e-16)
(9.20082e-15 8.87878e-32 0 -0.319874 6.80498e-17 -1.27481e-15 2.76744 -3.78829e-16 -1.83393e-16)
(-4.21198e-15 1.40386e-31 0 -1.93716 -3.33816e-16 -2.76703e-15 2.77793 7.34619e-18 -1.0917e-16)
(0 -3.99001e-47 -5.61544e-31 -1.93716 0 -2.12088e-15 2.77793 0 -5.54955e-17)
(-2.43612e-15 0 1.10985e-31 -14.1011 0 -2.27769e-15 6.11742 0 -6.70917e-16)
(-1.8083e-15 -2.35985e-31 -1.10985e-31 -14.1011 2.22262e-16 -2.76248e-15 6.11742 -1.99973e-16 9.87956e-17)
(0 -1.09676e-32 3.29029e-32 -52.8247 1.29294e-15 5.10308e-16 4.82857 6.09329e-17 -7.69589e-16)
(0 1.09676e-32 -1.09676e-32 -52.8247 8.5926e-16 -1.50559e-15 4.82857 -8.63164e-17 -2.65699e-16)
(-4.04635e-15 0 0 -1.34494e-08 0 2.71591e-47 -1.84508e-07 1.64904e-29 0)
(-1.15052e-14 -5.9111e-31 0 -1.34493e-08 1.20692e-17 -1.19185e-17 -1.84508e-07 -1.65575e-16 3.9443e-30)
(0 0 -1.42061e-30 -0.319874 0 1.29916e-15 -2.76744 9.15223e-33 -7.3379e-16)
(9.20082e-15 -1.73301e-31 0 -0.319874 9.08421e-18 1.29929e-15 -2.76744 6.66385e-17 1.83393e-16)
(0 1.75482e-31 0 -1.93716 5.12537e-17 1.84959e-15 -2.77793 -7.34619e-18 1.0917e-16)
(0 -1.75482e-31 0 -1.93716 -2.88585e-16 2.33657e-15 -2.77793 -3.50285e-16 5.54955e-17)
(-3.99865e-15 0 6.65909e-31 -14.1011 9.49345e-16 1.30991e-15 -6.11742 5.18527e-16 6.70917e-16)
(0 3.34998e-45 -4.43939e-31 -14.1011 2.95723e-45 1.65672e-15 -6.11742 6.07269e-30 -9.87956e-17)
(0 -9.64567e-60 -7.45601e-30 -52.8247 -1.09488e-45 2.81946e-15 -4.82857 -1.35585e-30 3.86797e-16)
(-7.90302e-16 3.83868e-32 -1.75482e-31 -52.8247 1.81187e-15 4.10243e-15 -4.82857 8.63164e-17 2.65699e-16)
)
;

boundaryField
{
    walls
    {
        type            extrapolatedCalculated;
        value           nonuniform List<tensor> 8((0 5.43995e-30 4.05456e-29 70.3933 8.76568e-14 2.43221e-13 4.82857 4.33941e-15 6.1265e-15) (0 0 0 70.3933 3.88676e-14 -6.4591e-14 -4.82857 -4.33941e-15 -6.1265e-15) (0 0 -2.80772e-30 70.3933 -7.49748e-14 1.73483e-13 4.82857 0 3.81388e-15) (0 0 0 70.3933 3.22911e-14 -6.22822e-14 -4.82857 1.46393e-15 -3.81388e-15) (0 -1.09676e-32 3.29029e-32 -70.3933 3.94703e-16 2.3892e-15 4.82857 6.09329e-17 -7.69589e-16) (0 -9.64567e-60 -7.45601e-30 -70.3933 -2.17132e-15 2.00497e-14 -4.82857 -1.35585e-30 3.86797e-16) (0 1.09676e-32 -1.09676e-32 -70.3933 8.5926e-16 -4.9501e-29 4.82857 -8.63164e-17 -2.65699e-16) (-7.90302e-16 3.83868e-32 -1.75482e-31 -70.3933 1.65747e-15 7.74699e-15 -4.82857 8.63164e-17 2.65699e-16));
    }
    inlet
    {
        type            cyclic;
    }
    outlet
    {
        type            cyclic;
    }
    sides
    {
        type            empty;
    }
}


// ************************************************************************* //
