/*--------------------------------*- C++ -*----------------------------------*\
| =========                 |                                                 |
| \\      /  F ield         | OpenFOAM: The Open Source CFD Toolbox           |
|  \\    /   O peration     | Version:  2012                                  |
|   \\  /    A nd           | Website:  www.openfoam.com                      |
|    \\/     M anipulation  |                                                 |
\*---------------------------------------------------------------------------*/
FoamFile
{
    version     2.0;
    format      ascii;
    class       volScalarField;
    location    "12000";
    object      p;
}
// * * * * * * * * * * * * * * * * * * * * * * * * * * * * * * * * * * * * * //

dimensions      [0 2 -2 0 0 0 0];


internalField   nonuniform List<scalar> 
40
(
-1.71925e-16
-1.36164e-16
-3.15063e-16
-2.36911e-16
-8.38637e-16
-8.14573e-16
-2.3983e-15
-2.12783e-15
-1.69843e-14
-1.66927e-14
-4.01846e-16
-3.79745e-16
-4.20758e-16
-3.99723e-16
-7.57948e-16
-6.79287e-16
-1.80764e-15
-1.79046e-15
-1.6383e-14
-1.62798e-14
-5.44748e-15
-5.2687e-15
-4.89105e-15
-4.89019e-15
-4.81365e-15
-4.81514e-15
-4.80125e-15
-4.80674e-15
-4.80397e-15
-4.8068e-15
-5.29596e-15
-5.30527e-15
-4.88959e-15
-4.88957e-15
-4.80744e-15
-4.81086e-15
-4.77972e-15
-4.79758e-15
-4.78407e-15
-4.79697e-15
)
;

boundaryField
{
    walls
    {
        type            zeroGradient;
    }
    inlet
    {
        type            cyclic;
    }
    outlet
    {
        type            cyclic;
    }
    sides
    {
        type            empty;
    }
}


// ************************************************************************* //
