/*--------------------------------*- C++ -*----------------------------------*\
| =========                 |                                                 |
| \\      /  F ield         | OpenFOAM: The Open Source CFD Toolbox           |
|  \\    /   O peration     | Version:  2012                                  |
|   \\  /    A nd           | Website:  www.openfoam.com                      |
|    \\/     M anipulation  |                                                 |
\*---------------------------------------------------------------------------*/
FoamFile
{
    version     2.0;
    format      ascii;
    class       volVectorField;
    location    "12000";
    object      U;
}
// * * * * * * * * * * * * * * * * * * * * * * * * * * * * * * * * * * * * * //

dimensions      [0 1 -1 0 0 0 0];


internalField   nonuniform List<vector> 
40
(
(0.241428 3.00637e-16 8.34178e-16)
(0.241428 -2.57142e-16 5.94997e-16)
(0.744724 1.18834e-15 1.25974e-15)
(0.744724 -7.47616e-17 1.29229e-15)
(0.89766 6.45018e-16 9.40949e-16)
(0.89766 4.6833e-16 9.47849e-16)
(0.967108 1.67929e-16 1.956e-16)
(0.967108 1.14994e-16 1.47498e-16)
(1.03629 -2.70608e-15 -2.93898e-30)
(1.03629 -2.69729e-15 1.5676e-16)
(0.241428 1.33304e-16 -2.21528e-16)
(0.241428 1.10749e-16 -2.1361e-16)
(0.744724 5.04999e-16 -1.22243e-15)
(0.744724 3.48593e-16 -1.12669e-15)
(0.89766 4.61078e-16 -9.40949e-16)
(0.89766 4.2361e-16 -9.47849e-16)
(0.967108 3.192e-17 -1.956e-16)
(0.967108 3.34396e-17 -1.47498e-16)
(1.03629 -2.64818e-15 -3.23217e-16)
(1.03629 -2.64971e-15 -2.21967e-16)
(1.03629 5.39349e-17 7.96813e-16)
(1.03629 6.10505e-17 7.74054e-16)
(0.967108 -1.8124e-17 4.90283e-16)
(0.967108 -8.69493e-18 4.03139e-16)
(0.89766 2.13403e-17 1.55204e-16)
(0.89766 3.27893e-17 1.56465e-16)
(0.744724 -3.26337e-17 1.13428e-17)
(0.744724 -2.87546e-17 4.29857e-17)
(0.241428 -1.35372e-18 -8.19425e-18)
(0.241428 -2.94701e-18 1.69827e-31)
(1.03629 6.61314e-17 -7.96813e-16)
(1.03629 6.1992e-17 -7.74054e-16)
(0.967108 -3.0854e-17 -4.16904e-16)
(0.967108 -2.9188e-17 -4.21479e-16)
(0.89766 -2.06057e-17 -1.66121e-16)
(0.89766 2.23926e-18 -1.62014e-16)
(0.744724 -1.9219e-17 -7.84346e-17)
(0.744724 -3.3754e-17 -3.31062e-17)
(0.241428 7.447e-18 -6.87646e-17)
(0.241428 -5.68463e-18 -2.65699e-17)
)
;

boundaryField
{
    walls
    {
        type            fixedValue;
        value           uniform (0 0 0);
    }
    inlet
    {
        type            cyclic;
    }
    outlet
    {
        type            cyclic;
    }
    sides
    {
        type            empty;
    }
}


// ************************************************************************* //
