/*--------------------------------*- C++ -*----------------------------------*\
| =========                 |                                                 |
| \\      /  F ield         | OpenFOAM: The Open Source CFD Toolbox           |
|  \\    /   O peration     | Version:  2012                                  |
|   \\  /    A nd           | Website:  www.openfoam.com                      |
|    \\/     M anipulation  |                                                 |
\*---------------------------------------------------------------------------*/
FoamFile
{
    version     2.0;
    format      ascii;
    class       volTensorField;
    location    "20000";
    object      grad(U);
}
// * * * * * * * * * * * * * * * * * * * * * * * * * * * * * * * * * * * * * //

dimensions      [0 0 -1 0 0 0 0];


internalField   nonuniform List<tensor> 
160
(
(0 3.3291e-30 1.38713e-30 39.8811 -4.63922e-13 -1.4351e-13 0.866275 -5.1123e-15 -8.6391e-16)
(0 -1.36489e-28 -1.38713e-30 39.8811 -7.28282e-15 -1.57147e-15 0.866275 -1.45977e-16 6.54907e-16)
(4.90244e-16 -1.79473e-27 -2.61255e-30 39.6087 0 -9.97065e-14 2.83149 -3.15544e-30 -3.26222e-15)
(0 3.48339e-30 2.61255e-30 39.6087 -2.76289e-14 -4.11814e-15 2.83149 -7.96288e-16 -3.76521e-16)
(1.5389e-15 -7.32903e-30 -1.07863e-29 37.5986 1.11068e-13 -3.41504e-14 5.30774 -1.59478e-14 -2.40601e-15)
(0 8.20089e-30 4.10044e-30 37.5986 -2.9372e-14 -4.187e-15 5.30774 -1.82578e-15 -8.26652e-16)
(-8.19054e-16 -1.19114e-29 -7.78701e-30 30.7026 6.92929e-14 -1.69158e-29 5.22578 -1.52709e-14 -7.88861e-31)
(1.63811e-15 1.28715e-29 4.29048e-30 30.7026 -3.04964e-14 -2.25503e-15 5.22578 -3.3245e-15 -1.32364e-15)
(-1.88823e-15 2.23658e-30 1.02231e-30 20.4584 3.4129e-14 5.21834e-15 3.98657 -8.83675e-15 -1.27402e-15)
(0 0 0 20.4584 -2.22001e-14 -4.1825e-16 3.98657 -5.0925e-15 -1.72485e-15)
(1.62213e-15 -9.31249e-30 -6.06682e-30 12.238 2.2826e-14 1.99681e-15 3.03477 -6.49876e-15 -1.09194e-15)
(2.43635e-15 7.92686e-30 -1.24163e-31 12.238 -1.40014e-14 9.33959e-46 3.03477 -6.25123e-15 -8.94687e-16)
(1.65152e-15 3.11708e-30 -1.44412e-30 7.41701 1.70723e-14 4.66636e-30 2.39981 -6.85418e-15 0)
(-6.6061e-15 -4.14712e-30 -5.1839e-30 7.41701 -1.038e-14 -8.8159e-15 2.39981 -7.61676e-15 -1.36483e-15)
(5.49635e-15 -6.50899e-30 -4.88174e-30 4.65343 1.02439e-14 1.34486e-14 1.95227 -5.69096e-15 -4.44664e-15)
(5.68849e-15 3.2545e-30 3.2545e-30 4.65343 -5.06219e-15 -3.7712e-15 1.95227 -8.75363e-15 -1.5571e-15)
(-2.06187e-15 1.15968e-30 1.277e-30 2.99325 6.33437e-15 1.09854e-14 1.61899 -3.77759e-15 -2.3147e-15)
(0 0 0 2.99325 -1.22747e-15 -1.08267e-15 1.61899 -9.26199e-15 -1.68578e-15)
(0 0 0 1.95973 4.98262e-15 4.11949e-15 1.36315 -3.87704e-15 -1.48089e-15)
(6.58225e-15 -2.07449e-30 -4.80461e-31 1.95973 3.34244e-16 -5.52384e-16 1.36315 -6.05562e-15 -1.04764e-15)
(0 -3.14575e-30 0 1.30249 3.52418e-15 1.41222e-15 1.16467 -3.77071e-15 -1.06632e-15)
(0 3.14575e-30 0 1.30249 6.77489e-16 5.91646e-31 1.16467 -2.93935e-15 0)
(0 0 0 0.878728 2.50663e-15 2.96885e-16 1.01047 -3.04631e-15 -2.8086e-16)
(0 2.46866e-30 0 0.878728 1.08215e-15 9.19329e-16 1.01047 -6.75396e-16 -6.57156e-16)
(0 0 0 0.602086 1.19733e-15 -7.18667e-16 0.890417 -3.23409e-15 1.05887e-16)
(0 0 0 0.602086 1.16647e-15 -1.79089e-15 0.890417 -3.5932e-15 5.76606e-16)
(-2.59574e-15 1.35349e-30 -7.6016e-31 0.418801 2.07401e-16 1.07633e-15 0.795894 -2.10187e-16 -1.2546e-15)
(-1.0383e-14 5.6937e-30 7.6016e-31 0.418801 -1.5529e-16 -5.4246e-15 0.795894 -3.58311e-16 -2.36289e-15)
(-2.66163e-15 1.00722e-30 0 0.295076 4.88637e-16 -3.59821e-46 0.71908 -2.68451e-15 -1.51428e-15)
(0 3.50325e-46 -2.73253e-44 0.295076 2.40965e-29 1.23326e-29 0.71908 0 0)
(4.21666e-15 0 1.87257e-30 0.209543 -1.68904e-15 -1.12147e-14 0.652138 -1.02824e-14 4.99264e-15)
(-1.50999e-14 6.13694e-30 0 0.209543 -5.74074e-16 -5.87762e-15 0.652138 -4.7808e-15 2.05184e-15)
(6.61813e-15 0 0 0.148514 3.41319e-17 1.09476e-47 0.585526 -4.44745e-16 -3.9443e-31)
(0 0 0 0.148514 1.06662e-15 -2.56122e-16 0.585526 -5.50589e-15 -5.37072e-16)
(0 0 8.9402e-31 0.102791 3.18889e-16 2.96262e-15 0.503205 -9.07899e-15 -1.20892e-15)
(-5.19364e-15 -1.23147e-30 -2.88305e-31 0.102791 -9.21735e-31 2.95817e-15 0.503205 -8.87369e-15 1.97611e-15)
(-1.1933e-15 -4.95242e-30 1.81e-30 0.0645027 -7.88861e-31 -1.7245e-16 0.357771 -3.15544e-30 7.99066e-15)
(-7.45409e-15 1.31604e-29 3.50325e-46 0.0645027 -3.26058e-16 1.9125e-31 0.357771 -1.11021e-15 -4.99162e-46)
(-2.95546e-15 2.25245e-30 6.71669e-31 4.09048e-15 1.79482e-16 -8.18621e-16 1.77636e-14 -7.78747e-16 -8.87969e-16)
(1.18278e-14 -9.17045e-30 -1.77552e-31 4.09742e-15 2.61986e-16 -7.141e-16 1.77643e-14 -1.13672e-15 7.74594e-16)
(0 0 0 39.8811 -5.21848e-15 5.50786e-14 -0.866275 5.1123e-15 8.6391e-16)
(0 -2.59007e-29 1.47235e-28 39.8811 -1.20834e-15 5.10981e-15 -0.866275 5.24282e-17 -2.21707e-16)
(-4.90244e-16 2.7214e-32 -4.35424e-31 39.6087 -5.68812e-15 3.07436e-14 -2.83149 2.59554e-14 3.26222e-15)
(-4.90244e-16 -4.42028e-31 -5.93071e-29 39.6087 -7.99489e-30 -2.09822e-14 -2.83149 7.96288e-16 3.76521e-16)
(-2.30834e-15 1.70852e-31 -1.02511e-30 37.5986 -8.12174e-15 5.89425e-15 -5.30774 2.22301e-14 4.54188e-15)
(0 0 3.41704e-31 37.5986 -5.70973e-15 -9.17607e-15 -5.30774 1.82578e-15 8.26652e-16)
(-1.22858e-15 0 2.79752e-30 30.7026 -7.62748e-15 -6.23217e-29 -5.22578 1.87297e-14 5.03957e-15)
(0 0 0 30.7026 -5.52906e-15 -7.87842e-15 -5.22578 3.3245e-15 1.32364e-15)
(0 4.20875e-31 -9.46969e-31 20.4584 -5.84827e-15 -4.54962e-15 -3.98657 1.68949e-14 4.95729e-15)
(-5.6719e-15 0 -5.60519e-45 20.4584 -4.02539e-15 0 -3.98657 5.0925e-15 -1.39252e-29)
(-1.3465e-16 3.30286e-31 0 12.238 -4.81176e-15 -3.50853e-15 -3.03477 1.55539e-14 4.97514e-15)
(5.4113e-15 0 -1.65143e-31 12.238 -3.14332e-15 9.13553e-15 -3.03477 6.25123e-15 8.94687e-16)
(3.98615e-15 5.1839e-31 -7.77585e-31 7.41701 -3.19524e-15 -3.13216e-15 -2.39981 1.42764e-14 5.20299e-15)
(-8.94072e-15 -5.1839e-31 1.29598e-30 7.41701 -3.2396e-15 5.06956e-15 -2.39981 7.61676e-15 1.36483e-15)
(9.60671e-17 4.06812e-31 -8.13624e-31 4.65343 -9.56173e-16 -1.94766e-15 -1.95227 1.2973e-14 4.44664e-15)
(7.52061e-15 0 4.06812e-31 4.65343 -2.2084e-15 2.3829e-15 -1.95227 8.75363e-15 1.5571e-15)
(-2.06187e-15 0 0 2.99325 -2.13013e-15 -3.15351e-16 -1.61899 1.2134e-14 2.3147e-15)
(0 0 -3.1925e-31 2.99325 -2.20834e-15 -5.83113e-17 -1.61899 9.26199e-15 1.68578e-15)
(0 1.00214e-30 -7.51603e-31 1.95973 -3.13925e-15 -7.40045e-16 -1.36315 1.17611e-14 1.48089e-15)
(-8.83886e-15 -1.00214e-30 7.51603e-31 1.95973 -3.10583e-15 -3.12341e-16 -1.36315 9.79268e-15 1.91316e-15)
(2.33185e-15 0 -1.96609e-31 1.30249 -2.04128e-15 9.46568e-16 -1.16467 1.14305e-14 1.06632e-15)
(-9.32739e-15 0 0 1.30249 -2.57579e-15 1.69657e-15 -1.16467 1.03278e-14 2.00137e-15)
(2.43406e-15 0 0 0.878728 -1.02121e-15 1.65833e-15 -1.01047 1.10258e-14 2.8086e-16)
(0 1.23433e-30 0 0.878728 -1.5701e-15 3.23257e-15 -1.01047 1.07032e-14 6.57156e-16)
(0 0 0 0.602086 -8.03896e-16 -2.40748e-16 -0.890417 1.04873e-14 -1.05887e-16)
(-2.18121e-15 0 -1.14998e-31 0.602086 -9.24361e-16 4.93038e-32 -0.890417 1.00321e-14 -4.90535e-31)
(-5.19148e-15 4.77105e-31 -1.36435e-32 0.418801 -2.46186e-16 -2.70639e-15 -0.795894 9.09879e-15 1.2546e-15)
(-3.42345e-15 0 0 0.418801 -4.8033e-16 -5.56363e-16 -0.795894 9.1925e-15 2.36289e-15)
(2.66163e-15 -3.71962e-31 -1.48888e-45 0.295076 3.10614e-30 0 -0.71908 7.2315e-15 -2.73162e-30)
(-1.33331e-14 2.56513e-30 -7.45679e-31 0.295076 -8.14548e-16 3.10327e-15 -0.71908 8.76412e-15 5.50971e-15)
(8.43331e-15 0 1.12354e-29 0.209543 -4.92055e-16 1.12749e-14 -0.652138 1.02824e-14 -4.99264e-15)
(-1.50999e-14 -4.35109e-31 -7.49029e-30 0.209543 -2.48101e-15 8.93563e-15 -0.652138 9.87329e-15 -2.05184e-15)
(-3.84282e-15 -7.00649e-46 -5.76599e-30 0.148514 4.93038e-32 -2.2715e-15 -0.585526 0 3.18638e-15)
(-7.79217e-15 4.67096e-30 -1.03324e-30 0.148514 1.71665e-17 -4.92736e-31 -0.585526 2.41737e-15 1.86131e-15)
(0 0 1.44152e-30 0.102791 -9.86076e-32 -2.16142e-15 -0.503205 9.07899e-15 1.20892e-15)
(-1.13095e-14 0 -1.72065e-30 0.102791 3.01499e-17 -2.95817e-15 -0.503205 8.87369e-15 -1.97611e-15)
(4.07576e-15 -3.62e-30 1.58745e-45 0.0645027 -1.28523e-15 -8.26692e-61 -0.357771 4.37616e-15 1.42985e-30)
(-1.15298e-14 4.99622e-30 -3.62e-30 0.0645027 0 1.99339e-16 -0.357771 3.15544e-30 2.08612e-17)
(-4.93038e-32 6.00301e-31 -5.41539e-33 3.46945e-18 3.52156e-16 8.18621e-16 1.3327e-31 1.52795e-15 8.87969e-16)
(8.88178e-15 -9.20875e-30 -1.31857e-30 2.04697e-15 3.27988e-16 7.141e-16 -7.10247e-15 1.42309e-15 -7.74594e-16)
(2.42295e-16 1.70645e-32 1.133e-29 -8.1369e-11 7.64357e-16 2.03836e-16 3.53054e-10 -8.71784e-15 -1.57439e-29)
(2.046e-14 0 0 -8.15603e-11 1.43047e-15 1.24505e-29 3.53051e-10 -8.87248e-15 -1.97215e-31)
(0 8.71241e-31 3.15112e-31 -0.0645027 9.74001e-16 0 0.357771 -3.31643e-15 0)
(7.45409e-15 0 -7.17552e-31 -0.0645027 1.61471e-15 3.15834e-17 0.357771 -6.13863e-15 1.0754e-16)
(2.59682e-15 0 -2.30988e-31 -0.102791 -1.40052e-16 1.97215e-31 0.503205 9.69701e-16 1.66445e-15)
(0 -4.37906e-47 4.61288e-30 -0.102791 -9.15887e-32 1.09854e-16 0.503205 -4.00104e-47 -3.00314e-15)
(0 -1.70156e-32 1.00655e-30 -0.148514 -1.39888e-16 2.0342e-15 0.585526 -2.93336e-16 1.54319e-15)
(1.11012e-14 0 -7.3476e-31 -0.148514 -9.86076e-32 5.28836e-15 0.585526 -7.88861e-31 4.35821e-16)
(5.44163e-15 0 -1.32246e-31 -0.209543 1.70249e-15 -4.23188e-30 0.652138 -2.1296e-15 0)
(1.08833e-14 0 0 -0.209543 2.02608e-15 9.86076e-32 0.652138 -2.48512e-15 1.97215e-31)
(-2.66163e-15 0 0 -0.295076 5.25979e-16 -3.13269e-16 0.71908 5.51975e-17 1.19962e-15)
(0 0 0 -0.295076 0 -1.56276e-15 0.71908 4.93038e-32 6.43495e-16)
(-2.59574e-15 -9.50199e-32 -5.2675e-32 -0.418801 -2.40131e-16 -2.07057e-16 0.795894 -2.46158e-16 -2.09838e-16)
(-1.0383e-14 4.11919e-31 1.14235e-31 -0.418801 -2.16496e-16 -5.4563e-16 0.795894 -5.57292e-16 -5.5296e-16)
(4.70205e-15 -2.89398e-32 -1.14722e-32 -0.602086 0 0 0.890417 0 -1.2326e-32)
(1.79855e-14 1.81622e-31 2.42163e-31 -0.602086 9.85463e-16 8.0064e-16 0.890417 -6.01418e-17 6.65472e-16)
(-2.43406e-15 0 3.08884e-32 -0.878728 8.40594e-17 1.41901e-15 1.01047 -3.0213e-16 -4.46313e-16)
(0 2.1742e-44 4.00136e-45 -0.878728 -2.44838e-30 -4.50568e-31 1.01047 1.07061e-47 4.26571e-48)
(0 -5.28278e-32 2.51524e-31 -1.30249 9.86076e-32 0 1.16467 0 -2.46519e-32)
(9.32739e-15 1.47457e-31 -4.66947e-31 -1.30249 -9.58521e-16 -1.3606e-15 1.16467 -2.34667e-16 -2.8184e-16)
(-4.41943e-15 -1.12104e-44 -3.13168e-31 -1.95973 -1.08589e-30 -1.2051e-15 1.36315 2.46519e-32 -1.06056e-18)
(0 1.07652e-31 6.71143e-32 -1.95973 -5.46228e-16 8.9604e-30 1.36315 -3.03857e-16 0)
(2.87555e-15 5.98593e-32 0 -2.99325 -8.53998e-16 -4.55915e-16 1.61899 1.30593e-16 -2.13259e-16)
(0 0 -7.98124e-32 -2.99325 1.12014e-30 1.6333e-15 1.61899 -2.46519e-32 -2.88658e-17)
(-1.88015e-15 -2.54257e-32 -2.54257e-32 -4.65343 -1.10628e-15 8.49091e-16 1.95227 8.22319e-17 -2.42415e-16)
(0 2.54257e-32 5.08515e-32 -4.65343 7.91286e-16 1.28572e-15 1.95227 6.43279e-18 2.21639e-16)
(0 1.71659e-44 -6.47988e-32 -7.41701 1.92811e-30 1.39854e-16 2.39981 -2.3749e-46 3.63982e-17)
(6.6061e-15 1.29598e-31 8.21921e-32 -7.41701 -1.71204e-16 6.81466e-16 2.39981 5.21104e-17 1.6038e-16)
(0 0 -4.12857e-32 -12.238 8.71351e-16 -8.04088e-16 3.03477 -1.85515e-16 -3.72059e-17)
(-5.4113e-15 0 -4.05644e-32 -12.238 -6.12374e-16 -1.63989e-30 3.03477 -6.63505e-17 2.46519e-32)
(-2.83957e-15 5.26094e-32 -9.36104e-32 -20.4584 1.508e-15 -1.38622e-16 3.98657 -1.6015e-16 -1.58584e-17)
(3.77645e-15 0 -1.76427e-31 -20.4584 1.47458e-15 -4.35802e-16 3.98657 -3.64692e-16 2.71109e-16)
(7.98137e-16 1.67597e-32 2.39425e-44 -30.7026 8.54394e-16 -1.34774e-30 5.22578 2.60921e-17 0)
(4.30444e-16 1.4013e-45 -7.69899e-32 -30.7026 -1.02058e-43 -1.69783e-16 5.22578 -1.06548e-17 2.72371e-16)
(0 -1.41359e-33 -8.43377e-32 -37.5986 -6.58176e-32 4.02298e-16 5.30774 0 -2.83432e-17)
(0 7.67498e-33 4.67173e-32 -37.5986 -4.12773e-16 -3.53615e-16 5.30774 -4.78868e-17 2.49156e-16)
(4.90244e-16 2.92662e-31 -6.80351e-33 -39.6087 -3.92242e-32 1.22208e-15 2.83149 0 -6.34712e-17)
(0 0 4.24002e-32 -39.6087 -1.51453e-16 -1.69595e-15 2.83149 -1.39357e-17 1.82988e-16)
(0 5.5739e-31 8.66954e-33 -39.8811 -2.35378e-17 1.80472e-15 0.866275 1.02127e-18 -1.97441e-17)
(0 0 -4.33477e-33 -39.8811 -1.83884e-17 -1.55071e-15 0.866275 -5.98849e-18 3.14052e-17)
(2.95768e-15 -1.42042e-30 -7.00649e-45 -8.13779e-11 1.31595e-15 -1.01034e-43 -3.53086e-10 8.71784e-15 1.57772e-29)
(8.63517e-15 1.48537e-30 1.62041e-33 -8.13758e-11 1.04632e-15 -1.09786e-15 -3.53079e-10 8.87248e-15 1.41197e-15)
(-4.07576e-15 9.05001e-31 -1.41406e-31 -0.0645027 1.63514e-15 -2.75481e-16 -0.357771 5.99811e-15 -5.55089e-16)
(0 0 1.63038e-31 -0.0645027 1.33329e-15 0 -0.357771 4.5398e-15 -2.93704e-16)
(-2.30542e-16 -1.17189e-31 0 -0.102791 -7.84031e-17 -2.43036e-45 -0.503205 -2.09499e-16 -7.49418e-30)
(-2.59682e-15 0 -4.61288e-30 -0.102791 -1.71342e-16 2.4734e-16 -0.503205 -4.65819e-16 3.00314e-15)
(-2.77531e-15 8.48842e-31 6.16607e-31 -0.148514 -1.2971e-17 -2.83966e-15 -0.585526 2.71994e-17 -1.54319e-15)
(0 1.34143e-30 -3.6738e-31 -0.148514 -1.66861e-16 -3.35838e-15 -0.585526 3.49896e-16 -4.35821e-16)
(-1.49584e-15 0 1.17036e-31 -0.209543 1.78036e-15 -9.56923e-17 -0.652138 2.1296e-15 4.76467e-16)
(1.08833e-14 0 0 -0.209543 1.74707e-15 6.74253e-44 -0.652138 2.48512e-15 -1.34856e-15)
(0 0 0 -0.295076 0 0 -0.71908 6.16298e-33 -1.97215e-31)
(-1.06465e-14 1.8642e-32 1.49136e-31 -0.295076 3.38696e-16 -8.2235e-17 -0.71908 -3.53193e-16 -6.43495e-16)
(2.59574e-15 0 0 -0.418801 2.0235e-17 -2.17703e-16 -0.795894 2.46158e-16 4.27993e-16)
(-1.38064e-14 2.62743e-46 -8.79983e-32 -0.418801 4.37158e-45 2.08224e-16 -0.795894 6.30688e-31 2.11022e-16)
(2.52084e-15 -3.7838e-32 2.42163e-31 -0.602086 -1.47911e-31 -5.83578e-16 -0.890417 2.08534e-16 8.26662e-17)
(0 2.27028e-32 -1.58741e-45 -0.602086 4.71559e-16 -2.46519e-32 -0.890417 6.01418e-17 -2.85962e-30)
(0 -3.85728e-32 -7.71456e-32 -0.878728 -2.05646e-16 0 -1.01047 1.28348e-16 -7.80698e-30)
(0 3.85728e-32 -1.47983e-30 -0.878728 -2.89965e-16 -5.71342e-16 -1.01047 -2.70112e-16 -4.93417e-17)
(2.33185e-15 -7.03776e-32 0 -1.30249 2.18799e-16 3.08893e-16 -1.16467 1.07164e-16 -1.86527e-16)
(0 0 0 -1.30249 0 3.04339e-16 -1.16467 0 2.8184e-16)
(2.20972e-15 -1.87901e-31 6.26336e-32 -1.95973 6.78665e-16 1.57258e-16 -1.36315 -1.2226e-16 1.06056e-18)
(-1.10955e-14 -4.30294e-31 -6.26336e-32 -1.95973 4.33405e-16 6.73573e-16 -1.36315 1.66585e-16 4.83609e-16)
(2.06187e-15 0 0 -2.99325 6.98626e-16 -2.71058e-16 -1.61899 -1.30593e-16 2.13259e-16)
(-1.1123e-14 0 5.5163e-31 -2.99325 -2.84854e-43 3.01709e-16 -1.61899 1.23341e-16 2.88658e-17)
(-1.83212e-15 0 5.03592e-46 -4.65343 3.15292e-45 -8.63341e-46 -1.95227 -1.33488e-30 8.50125e-31)
(-7.52061e-15 0 0 -4.65343 -9.2922e-17 2.21142e-45 -1.95227 -6.43279e-18 -4.43734e-30)
(4.66924e-15 -8.09985e-33 0 -7.41701 -1.94136e-15 7.36047e-16 -2.39981 2.3374e-16 -3.63982e-17)
(0 3.23994e-32 3.23994e-32 -7.41701 -3.2717e-16 -8.65836e-16 -2.39981 -5.21104e-17 -1.91713e-16)
(0 6.13068e-46 1.54822e-32 -12.238 0 -2.72527e-17 -3.03477 1.08468e-30 3.72059e-17)
(-1.08226e-14 4.9869e-30 -1.54822e-32 -12.238 -1.06974e-15 7.82744e-16 -3.03477 6.63505e-17 -1.84635e-16)
(-1.90268e-15 0 2.63047e-32 -20.4584 1.75051e-15 1.00567e-16 -3.98657 1.6015e-16 8.75926e-17)
(1.89545e-15 7.00649e-46 4.92306e-30 -20.4584 -1.24624e-44 5.82129e-17 -3.98657 1.20666e-30 -6.65957e-18)
(0 -1.4013e-45 1.67597e-31 -30.7026 -2.44752e-43 -4.23038e-17 -5.22578 1.39098e-30 7.58709e-17)
(0 5.6564e-32 0 -30.7026 1.70948e-15 -2.37803e-44 -5.22578 1.06548e-17 -8.01441e-30)
(-7.69448e-16 0 -2.13565e-32 -37.5986 -2.80213e-16 -1.89201e-16 -5.30774 1.0186e-17 8.44842e-17)
(0 -1.4013e-45 0 -37.5986 0 -8.94613e-16 -5.30774 -3.8516e-30 -8.3294e-17)
(0 -1.02053e-32 5.4428e-32 -39.6087 4.88735e-17 -1.59311e-18 -2.83149 -2.70216e-18 6.34712e-17)
(-4.90244e-16 6.80351e-33 -2.45665e-32 -39.6087 8.52539e-16 -2.45456e-15 -2.83149 1.39357e-17 -1.59615e-16)
(-1.56176e-16 -2.16738e-33 1.30043e-32 -39.8811 -9.63882e-18 -8.35012e-18 -0.866275 -1.196e-18 1.97441e-17)
(1.56176e-16 3.25108e-33 -7.0638e-30 -39.8811 4.55504e-16 -2.5382e-15 -0.866275 5.98849e-18 -3.14052e-17)
)
;

boundaryField
{
    walls
    {
        type            extrapolatedCalculated;
        value           nonuniform List<tensor> 8((0 3.3291e-30 1.38713e-30 39.9311 -4.63922e-13 -1.4513e-13 0.866275 -5.1123e-15 -8.6391e-16) (0 0 0 39.9311 -7.38315e-15 6.54859e-14 -0.866275 5.1123e-15 8.6391e-16) (0 -1.36489e-28 -1.38713e-30 39.9311 -7.28282e-15 0 0.866275 -1.45977e-16 6.54907e-16) (0 -2.59007e-29 1.47235e-28 39.9311 -6.17481e-15 6.03761e-14 -0.866275 5.24282e-17 -2.21707e-16) (0 5.5739e-31 8.66954e-33 -39.9311 -2.11169e-16 1.82021e-15 0.866275 1.02127e-18 -1.97441e-17) (-1.56176e-16 -2.16738e-33 1.30043e-32 -39.9311 1.00909e-16 1.78199e-28 -0.866275 -1.196e-18 1.97441e-17) (0 0 -4.33477e-33 -39.9311 6.81661e-17 -3.57053e-16 0.866275 -5.98849e-18 3.14052e-17) (1.56176e-16 3.25108e-33 -7.0638e-30 -39.9311 4.83915e-16 -2.5382e-15 -0.866275 5.98849e-18 -3.14052e-17));
    }
    inlet
    {
        type            cyclic;
    }
    outlet
    {
        type            cyclic;
    }
    sides
    {
        type            empty;
    }
}


// ************************************************************************* //
