/*--------------------------------*- C++ -*----------------------------------*\
| =========                 |                                                 |
| \\      /  F ield         | OpenFOAM: The Open Source CFD Toolbox           |
|  \\    /   O peration     | Version:  2012                                  |
|   \\  /    A nd           | Website:  www.openfoam.com                      |
|    \\/     M anipulation  |                                                 |
\*---------------------------------------------------------------------------*/
FoamFile
{
    version     2.0;
    format      ascii;
    class       volScalarField;
    location    "20000";
    object      p;
}
// * * * * * * * * * * * * * * * * * * * * * * * * * * * * * * * * * * * * * //

dimensions      [0 2 -2 0 0 0 0];


internalField   nonuniform List<scalar> 
160
(
1.19588e-16
1.43974e-15
2.7251e-16
1.43069e-15
3.24597e-16
1.40689e-15
3.67797e-16
1.36961e-15
4.43193e-16
1.31762e-15
5.4014e-16
1.25178e-15
6.47098e-16
1.18204e-15
7.4661e-16
1.12407e-15
8.5365e-16
1.08233e-15
9.55062e-16
1.06207e-15
1.03909e-15
1.06511e-15
1.12843e-15
1.13585e-15
1.22705e-15
1.21929e-15
1.34907e-15
1.33669e-15
1.52241e-15
1.55255e-15
1.54232e-15
1.86683e-15
1.97891e-15
2.0153e-15
2.93061e-15
3.06914e-15
3.05629e-15
3.02108e-15
3.46095e-15
3.59726e-15
1.13504e-15
1.27973e-15
1.13503e-15
1.27973e-15
1.13531e-15
1.27989e-15
1.13664e-15
1.28037e-15
1.14119e-15
1.28112e-15
1.15124e-15
1.28098e-15
1.16508e-15
1.28106e-15
1.18987e-15
1.28375e-15
1.20742e-15
1.29916e-15
1.23899e-15
1.31508e-15
1.29056e-15
1.33245e-15
1.34137e-15
1.3576e-15
1.40645e-15
1.42204e-15
1.49109e-15
1.5133e-15
1.57251e-15
1.60198e-15
1.46264e-15
1.73079e-15
2.128e-15
2.06748e-15
2.9127e-15
2.91835e-15
2.7226e-15
2.9016e-15
3.50488e-15
3.4768e-15
3.45101e-15
3.37458e-15
5.26102e-15
5.28838e-15
4.16156e-15
4.31699e-15
4.43509e-15
4.44094e-15
4.5486e-15
4.54351e-15
4.54478e-15
4.54494e-15
4.52605e-15
4.53196e-15
4.48697e-15
4.50729e-15
4.50309e-15
4.5088e-15
4.50776e-15
4.51167e-15
4.50804e-15
4.51354e-15
4.50576e-15
4.51431e-15
4.50903e-15
4.5085e-15
4.50609e-15
4.50911e-15
4.50764e-15
4.50972e-15
4.50935e-15
4.51025e-15
4.50849e-15
4.51069e-15
4.50817e-15
4.5107e-15
4.5081e-15
4.51068e-15
4.50816e-15
4.51062e-15
3.49758e-15
3.53665e-15
5.45288e-15
5.19992e-15
4.27599e-15
4.36822e-15
4.44689e-15
4.44976e-15
4.59626e-15
4.5651e-15
4.55554e-15
4.55503e-15
4.54248e-15
4.56066e-15
4.51507e-15
4.51164e-15
4.51377e-15
4.51516e-15
4.5155e-15
4.52096e-15
4.51614e-15
4.52964e-15
4.51417e-15
4.52345e-15
4.51186e-15
4.5139e-15
4.50739e-15
4.50979e-15
4.50989e-15
4.50889e-15
4.51248e-15
4.50677e-15
4.51195e-15
4.50661e-15
4.51204e-15
4.50696e-15
4.512e-15
4.50711e-15
4.51201e-15
4.50707e-15
)
;

boundaryField
{
    walls
    {
        type            zeroGradient;
    }
    inlet
    {
        type            cyclic;
    }
    outlet
    {
        type            cyclic;
    }
    sides
    {
        type            empty;
    }
}


// ************************************************************************* //
