/*--------------------------------*- C++ -*----------------------------------*\
| =========                 |                                                 |
| \\      /  F ield         | OpenFOAM: The Open Source CFD Toolbox           |
|  \\    /   O peration     | Version:  2012                                  |
|   \\  /    A nd           | Website:  www.openfoam.com                      |
|    \\/     M anipulation  |                                                 |
\*---------------------------------------------------------------------------*/
FoamFile
{
    version     2.0;
    format      ascii;
    class       surfaceScalarField;
    location    "20000";
    object      phi;
}
// * * * * * * * * * * * * * * * * * * * * * * * * * * * * * * * * * * * * * //

dimensions      [0 3 -1 0 0 0 0];
oriented        oriented;


internalField   nonuniform List<scalar> 
316
(
4.6983e-06
-5.43246e-18
-2.74803e-20
-7.28439e-20
3.55193e-21
1.95687e-05
-5.16623e-18
-8.23657e-20
-2.56824e-19
-2.06633e-21
4.67435e-05
-4.78707e-18
-1.24592e-19
-5.24902e-19
-5.18718e-21
9.17601e-05
-4.28697e-18
-1.53037e-19
-8.65199e-19
-1.07124e-20
0.000154292
-3.79702e-18
-1.57626e-19
-1.2068e-18
-1.84905e-20
0.000232932
-3.38058e-18
-1.53974e-19
-1.43733e-18
-2.89436e-20
0.000332054
-2.8839e-18
-1.47801e-19
-1.74882e-18
-4.45789e-20
0.000458632
-2.66138e-18
-1.48732e-19
-1.86341e-18
-5.93372e-20
0.000621227
-2.40151e-18
-1.35919e-19
-1.90971e-18
-8.31411e-20
0.000830507
-2.14173e-18
-1.24144e-19
-1.85673e-18
-1.11561e-19
0.00110002
-1.95534e-18
-1.27613e-19
-1.88556e-18
-1.47821e-19
0.00144716
-1.73314e-18
-1.50909e-19
-1.7117e-18
-1.56788e-19
0.00189431
-1.66129e-18
-1.9036e-19
-1.5789e-18
-1.86202e-19
0.00247027
-1.61503e-18
-2.19209e-19
-1.63433e-18
-3.28092e-19
0.00321204
-1.42869e-18
-1.87723e-19
-1.73088e-18
-1.94455e-19
0.00416698
-1.83109e-18
6.45969e-20
-1.68723e-18
1.62958e-19
0.00539535
-2.2399e-18
-6.93474e-19
-2.2848e-18
-1.39397e-19
0.00697294
-1.78309e-18
1.71654e-19
-1.65145e-18
6.60039e-19
0.00899253
-2.19547e-18
7.31624e-19
-2.28415e-18
-3.9812e-20
0.011556
-1.66087e-19
-1.63795e-18
4.20106e-19
-1.63837e-18
4.6983e-06
-2.02628e-20
-4.37224e-21
1.95687e-05
-7.19413e-20
-2.78096e-20
4.67435e-05
-1.33177e-19
-7.43949e-20
9.17601e-05
-2.20525e-19
-1.42828e-19
0.000154292
-3.19541e-19
-1.88143e-19
0.000232932
-3.77067e-19
-2.64829e-19
0.000332054
-5.29708e-19
-3.06009e-19
0.000458632
-4.60616e-19
-4.33304e-19
0.000621227
-5.88384e-19
-4.87848e-19
0.000830507
-7.33916e-19
-6.22283e-19
0.00110002
-8.74184e-19
-7.81351e-19
0.00144716
-9.17888e-19
-9.07284e-19
0.00189431
-1.03439e-18
-1.08917e-18
0.00247027
-1.09699e-18
-1.00942e-18
0.00321204
-1.05289e-18
-1.29038e-18
0.00416698
-1.96774e-18
-1.68076e-18
0.00539535
-2.08045e-18
-2.12019e-18
0.00697294
-1.77193e-18
-1.76484e-18
0.00899253
-2.26412e-18
-2.28256e-18
0.011556
-1.64707e-18
-1.69555e-18
0.011556
-1.33368e-18
-3.41809e-19
-1.33185e-18
-3.60421e-19
0.00899253
-3.54956e-20
2.36257e-19
-2.40889e-20
6.07616e-19
0.00697294
-5.41149e-19
-2.90506e-19
-3.79066e-19
2.75891e-20
0.00539535
-4.24133e-19
3.32639e-19
-5.86183e-19
1.67614e-19
0.00416698
-1.07635e-19
-6.01909e-20
5.68996e-20
2.46541e-19
0.00321204
-2.05198e-22
1.30096e-21
-3.50242e-20
6.19345e-20
0.00247027
5.33238e-22
-1.09379e-19
-5.797e-20
-1.07446e-19
0.00189431
-8.59715e-20
-9.8551e-20
4.67413e-20
-2.25793e-20
0.00144716
-4.0035e-20
-4.74129e-20
7.38696e-20
-2.75052e-20
0.00110002
3.99771e-20
-1.33386e-20
-1.54901e-20
-3.20331e-20
0.000830507
3.9497e-20
-1.93156e-20
-6.24736e-20
-2.32353e-20
0.000621227
-3.3368e-20
-1.60947e-20
-3.64003e-20
-8.05396e-21
0.000458632
-4.20339e-20
-9.46878e-21
-1.81305e-20
5.17068e-23
0.000332054
-5.34392e-20
-3.18179e-21
-2.45186e-20
2.48459e-21
0.000232932
-3.81617e-20
-1.61714e-21
-3.1341e-20
3.60975e-21
0.000154292
1.82007e-21
-1.25258e-21
-1.6085e-20
3.73158e-21
9.17601e-05
-1.18087e-21
-1.02746e-21
3.40695e-21
3.15334e-21
4.67435e-05
1.02347e-21
-7.43911e-22
9.49455e-22
2.24698e-21
1.95687e-05
-9.00842e-23
-4.41504e-22
5.71247e-23
1.33004e-21
4.6983e-06
-1.07083e-22
1.41154e-22
0.011556
-1.29949e-18
-1.29958e-18
0.00899253
-5.57593e-20
-6.57872e-20
0.00697294
-4.04232e-19
-3.29263e-19
0.00539535
-5.48831e-19
-5.8306e-19
0.00416698
-6.47981e-20
-6.88594e-21
0.00321204
-2.83796e-20
-1.01611e-19
0.00247027
2.86952e-20
6.59956e-20
0.00189431
-4.32906e-20
-2.39106e-20
0.00144716
-1.09302e-20
-3.60156e-20
0.00110002
-4.31339e-20
-4.27201e-20
0.000830507
2.56598e-20
8.97071e-21
0.000621227
2.12025e-20
3.93503e-20
0.000458632
6.8908e-20
1.6695e-20
0.000332054
-3.07185e-20
7.02109e-21
0.000232932
-4.00675e-20
-1.1783e-20
0.000154292
8.42758e-21
-2.86172e-20
9.17601e-05
2.81533e-21
-1.88975e-20
4.67435e-05
1.32992e-21
-9.70551e-21
1.95687e-05
-2.13529e-22
3.78978e-23
4.6983e-06
)
;

boundaryField
{
    walls
    {
        type            calculated;
        value           uniform 0;
    }
    inlet
    {
        type            cyclic;
        value           nonuniform List<scalar> 
80
(
-4.6983e-06
-1.95687e-05
-4.67435e-05
-9.17601e-05
-0.000154292
-0.000232932
-0.000332054
-0.000458632
-0.000621227
-0.000830507
-0.00110002
-0.00144716
-0.00189431
-0.00247027
-0.00321204
-0.00416698
-0.00539535
-0.00697294
-0.00899253
-0.011556
-4.6983e-06
-1.95687e-05
-4.67435e-05
-9.17601e-05
-0.000154292
-0.000232932
-0.000332054
-0.000458632
-0.000621227
-0.000830507
-0.00110002
-0.00144716
-0.00189431
-0.00247027
-0.00321204
-0.00416698
-0.00539535
-0.00697294
-0.00899253
-0.011556
-0.011556
-0.00899253
-0.00697294
-0.00539535
-0.00416698
-0.00321204
-0.00247027
-0.00189431
-0.00144716
-0.00110002
-0.000830507
-0.000621227
-0.000458632
-0.000332054
-0.000232932
-0.000154292
-9.17601e-05
-4.67435e-05
-1.95687e-05
-4.6983e-06
-0.011556
-0.00899253
-0.00697294
-0.00539535
-0.00416698
-0.00321204
-0.00247027
-0.00189431
-0.00144716
-0.00110002
-0.000830507
-0.000621227
-0.000458632
-0.000332054
-0.000232932
-0.000154292
-9.17601e-05
-4.67435e-05
-1.95687e-05
-4.6983e-06
)
;
    }
    outlet
    {
        type            cyclic;
        value           nonuniform List<scalar> 
80
(
4.6983e-06
1.95687e-05
4.67435e-05
9.17601e-05
0.000154292
0.000232932
0.000332054
0.000458632
0.000621227
0.000830507
0.00110002
0.00144716
0.00189431
0.00247027
0.00321204
0.00416698
0.00539535
0.00697294
0.00899253
0.011556
4.6983e-06
1.95687e-05
4.67435e-05
9.17601e-05
0.000154292
0.000232932
0.000332054
0.000458632
0.000621227
0.000830507
0.00110002
0.00144716
0.00189431
0.00247027
0.00321204
0.00416698
0.00539535
0.00697294
0.00899253
0.011556
0.011556
0.00899253
0.00697294
0.00539535
0.00416698
0.00321204
0.00247027
0.00189431
0.00144716
0.00110002
0.000830507
0.000621227
0.000458632
0.000332054
0.000232932
0.000154292
9.17601e-05
4.67435e-05
1.95687e-05
4.6983e-06
0.011556
0.00899253
0.00697294
0.00539535
0.00416698
0.00321204
0.00247027
0.00189431
0.00144716
0.00110002
0.000830507
0.000621227
0.000458632
0.000332054
0.000232932
0.000154292
9.17601e-05
4.67435e-05
1.95687e-05
4.6983e-06
)
;
    }
    sides
    {
        type            empty;
        value           nonuniform List<scalar> 0();
    }
}


// ************************************************************************* //
