/*--------------------------------*- C++ -*----------------------------------*\
| =========                 |                                                 |
| \\      /  F ield         | OpenFOAM: The Open Source CFD Toolbox           |
|  \\    /   O peration     | Version:  2012                                  |
|   \\  /    A nd           | Website:  www.openfoam.com                      |
|    \\/     M anipulation  |                                                 |
\*---------------------------------------------------------------------------*/
FoamFile
{
    version     2.0;
    format      ascii;
    class       volVectorField;
    location    "2000";
    object      U;
}
// * * * * * * * * * * * * * * * * * * * * * * * * * * * * * * * * * * * * * //

dimensions      [0 1 -1 0 0 0 0];


internalField   nonuniform List<vector> 
2560
(
(0.021378 -8.61814e-16 -3.45457e-16)
(0.021378 3.01139e-19 -1.52855e-16)
(0.0644396 -5.2093e-15 -1.33045e-15)
(0.0644396 -1.06763e-17 -6.01447e-16)
(0.108106 -4.62033e-15 -1.36887e-15)
(0.108106 -2.1558e-17 -6.1743e-16)
(0.152288 -4.38959e-15 -1.40076e-15)
(0.152288 -3.40464e-17 -6.30628e-16)
(0.196636 -4.35866e-15 -1.41463e-15)
(0.196636 -4.73724e-17 -6.35621e-16)
(0.24033 -4.3561e-15 -1.39459e-15)
(0.24033 -6.08184e-17 -6.25336e-16)
(0.282112 -4.33503e-15 -1.33224e-15)
(0.282112 -7.37735e-17 -5.9611e-16)
(0.320751 -4.30763e-15 -1.23572e-15)
(0.320751 -8.57995e-17 -5.51645e-16)
(0.355546 -4.28211e-15 -1.12381e-15)
(0.355546 -9.68631e-17 -5.00384e-16)
(0.386425 -4.26023e-15 -1.01349e-15)
(0.386425 -1.06896e-16 -4.49916e-16)
(0.413718 -4.24167e-15 -9.14112e-16)
(0.413718 -1.15991e-16 -4.04402e-16)
(0.437907 -4.22562e-15 -8.28659e-16)
(0.437907 -1.24358e-16 -3.65141e-16)
(0.459477 -4.21142e-15 -7.56742e-16)
(0.459477 -1.32156e-16 -3.31936e-16)
(0.478855 -4.1988e-15 -6.96693e-16)
(0.478855 -1.39017e-16 -3.04023e-16)
(0.496399 -4.18697e-15 -6.46599e-16)
(0.496399 -1.45591e-16 -2.80541e-16)
(0.5124 -4.17577e-15 -6.04705e-16)
(0.5124 -1.52155e-16 -2.60687e-16)
(0.527093 -4.16501e-15 -5.69533e-16)
(0.527093 -1.58546e-16 -2.43787e-16)
(0.540671 -4.15481e-15 -5.3988e-16)
(0.540671 -1.64609e-16 -2.293e-16)
(0.553288 -4.14539e-15 -5.14787e-16)
(0.553288 -1.69941e-16 -2.16802e-16)
(0.565072 -4.13624e-15 -4.93487e-16)
(0.565072 -1.75309e-16 -2.0594e-16)
(0.576129 -4.12708e-15 -4.75367e-16)
(0.576129 -1.80619e-16 -1.96444e-16)
(0.586546 -4.11836e-15 -4.59935e-16)
(0.586546 -1.85602e-16 -1.88093e-16)
(0.596396 -4.11035e-15 -4.46796e-16)
(0.596396 -1.90183e-16 -1.80705e-16)
(0.605741 -4.10236e-15 -4.35631e-16)
(0.605741 -1.94726e-16 -1.74128e-16)
(0.614634 -4.09417e-15 -4.26177e-16)
(0.614634 -1.99406e-16 -1.68242e-16)
(0.623121 -4.08638e-15 -4.18217e-16)
(0.623121 -2.04035e-16 -1.62947e-16)
(0.631239 -4.07881e-15 -4.11574e-16)
(0.631239 -2.08183e-16 -1.58177e-16)
(0.639023 -4.07124e-15 -4.06101e-16)
(0.639023 -2.11804e-16 -1.53856e-16)
(0.646502 -4.06383e-15 -4.01672e-16)
(0.646502 -2.15346e-16 -1.49927e-16)
(0.653702 -4.05654e-15 -3.98185e-16)
(0.653702 -2.19402e-16 -1.46325e-16)
(0.660645 -4.04921e-15 -3.9555e-16)
(0.660645 -2.23385e-16 -1.43011e-16)
(0.667351 -4.04199e-15 -3.93695e-16)
(0.667351 -2.27295e-16 -1.39972e-16)
(0.673838 -4.03514e-15 -3.92556e-16)
(0.673838 -2.31227e-16 -1.3719e-16)
(0.680122 -4.02875e-15 -3.92083e-16)
(0.680122 -2.34584e-16 -1.34614e-16)
(0.686216 -4.02273e-15 -3.92229e-16)
(0.686216 -2.37953e-16 -1.32214e-16)
(0.692134 -4.01641e-15 -3.92952e-16)
(0.692134 -2.41449e-16 -1.29975e-16)
(0.697887 -4.00997e-15 -3.94216e-16)
(0.697887 -2.44916e-16 -1.27891e-16)
(0.703484 -4.00398e-15 -3.95994e-16)
(0.703484 -2.479e-16 -1.25936e-16)
(0.708936 -3.99805e-15 -3.98265e-16)
(0.708936 -2.50549e-16 -1.24087e-16)
(0.714251 -3.99188e-15 -4.01003e-16)
(0.714251 -2.53861e-16 -1.22358e-16)
(0.719436 -3.98567e-15 -4.04194e-16)
(0.719436 -2.57257e-16 -1.20731e-16)
(0.724499 -3.97941e-15 -4.07822e-16)
(0.724499 -2.60349e-16 -1.19191e-16)
(0.729446 -3.97329e-15 -4.11874e-16)
(0.729446 -2.63813e-16 -1.17716e-16)
(0.734282 -3.96716e-15 -4.16341e-16)
(0.734282 -2.66965e-16 -1.16297e-16)
(0.739014 -3.9612e-15 -4.21214e-16)
(0.739014 -2.70216e-16 -1.14951e-16)
(0.743646 -3.95495e-15 -4.26485e-16)
(0.743646 -2.73614e-16 -1.13664e-16)
(0.748182 -3.94859e-15 -4.32146e-16)
(0.748182 -2.76467e-16 -1.12433e-16)
(0.752628 -3.94264e-15 -4.38196e-16)
(0.752628 -2.79915e-16 -1.11251e-16)
(0.756986 -3.93637e-15 -4.4463e-16)
(0.756986 -2.83504e-16 -1.10069e-16)
(0.761261 -3.93013e-15 -4.51447e-16)
(0.761261 -2.86956e-16 -1.08915e-16)
(0.765456 -3.92367e-15 -4.58653e-16)
(0.765456 -2.90004e-16 -1.07773e-16)
(0.769574 -3.91685e-15 -4.66241e-16)
(0.769574 -2.93745e-16 -1.06655e-16)
(0.773618 -3.91028e-15 -4.74211e-16)
(0.773618 -2.97482e-16 -1.05561e-16)
(0.77759 -3.90356e-15 -4.82569e-16)
(0.77759 -3.00972e-16 -1.04463e-16)
(0.781494 -3.89655e-15 -4.91313e-16)
(0.781494 -3.05095e-16 -1.03373e-16)
(0.785331 -3.88909e-15 -5.00446e-16)
(0.785331 -3.08285e-16 -1.02302e-16)
(0.789104 -3.88214e-15 -5.09972e-16)
(0.789104 -3.11337e-16 -1.01201e-16)
(0.792814 -3.87624e-15 -5.19904e-16)
(0.792814 -3.14147e-16 -1.00094e-16)
(0.796465 -3.86977e-15 -5.30245e-16)
(0.796465 -3.165e-16 -9.9019e-17)
(0.800057 -3.86246e-15 -5.40994e-16)
(0.800057 -3.1988e-16 -9.79448e-17)
(0.803592 -3.85523e-15 -5.52161e-16)
(0.803592 -3.23536e-16 -9.6829e-17)
(0.807072 -3.84777e-15 -5.6376e-16)
(0.807072 -3.26636e-16 -9.56978e-17)
(0.810499 -3.84008e-15 -5.75793e-16)
(0.810499 -3.31194e-16 -9.45777e-17)
(0.813873 -3.83257e-15 -5.88269e-16)
(0.813873 -3.34034e-16 -9.34465e-17)
(0.817197 -3.82487e-15 -6.01199e-16)
(0.817197 -3.37162e-16 -9.22869e-17)
(0.820471 -3.81702e-15 -6.14597e-16)
(0.820471 -3.40876e-16 -9.10675e-17)
(0.823697 -3.8093e-15 -6.28464e-16)
(0.823697 -3.43609e-16 -8.98175e-17)
(0.826876 -3.80236e-15 -6.42819e-16)
(0.826876 -3.47417e-16 -8.85482e-17)
(0.830009 -3.79662e-15 -6.5767e-16)
(0.830009 -3.50779e-16 -8.72361e-17)
(0.833097 -3.79082e-15 -6.73036e-16)
(0.833097 -3.53388e-16 -8.5883e-17)
(0.83614 -3.78366e-15 -6.88927e-16)
(0.83614 -3.56017e-16 -8.44695e-17)
(0.839141 -3.77603e-15 -7.0535e-16)
(0.839141 -3.59949e-16 -8.30209e-17)
(0.842099 -3.76863e-15 -7.22315e-16)
(0.842099 -3.63471e-16 -8.15309e-17)
(0.845016 -3.76132e-15 -7.39837e-16)
(0.845016 -3.66762e-16 -8.00427e-17)
(0.847892 -3.7536e-15 -7.57927e-16)
(0.847892 -3.70996e-16 -7.85012e-17)
(0.850728 -3.74562e-15 -7.76603e-16)
(0.850728 -3.75148e-16 -7.67904e-17)
(0.853526 -3.73785e-15 -7.95888e-16)
(0.853526 -3.79279e-16 -7.50341e-17)
(0.856284 -3.73073e-15 -8.15788e-16)
(0.856284 -3.83745e-16 -7.32448e-17)
(0.859005 -3.72309e-15 -8.30727e-16)
(0.859005 -3.88077e-16 -7.13797e-17)
(0.861689 -3.71462e-15 -8.31994e-16)
(0.861689 -3.92041e-16 -6.94454e-17)
(0.864336 -3.70593e-15 -8.33595e-16)
(0.864336 -3.96706e-16 -6.74088e-17)
(0.866947 -3.69782e-15 -8.35294e-16)
(0.866947 -4.02807e-16 -6.5212e-17)
(0.869523 -3.69035e-15 -8.37051e-16)
(0.869523 -4.06425e-16 -6.30046e-17)
(0.872064 -3.68092e-15 -8.39126e-16)
(0.872064 -4.08824e-16 -6.08152e-17)
(0.874571 -3.67075e-15 -8.41394e-16)
(0.874571 -4.13568e-16 -5.84673e-17)
(0.877043 -3.66069e-15 -8.4381e-16)
(0.877043 -4.16988e-16 -5.5951e-17)
(0.879482 -3.65151e-15 -8.46474e-16)
(0.879482 -4.20913e-16 -5.33756e-17)
(0.881889 -3.64292e-15 -8.49209e-16)
(0.881889 -4.25657e-16 -5.07331e-17)
(0.884262 -3.63401e-15 -8.52058e-16)
(0.884262 -4.28768e-16 -4.81077e-17)
(0.886604 -3.62512e-15 -8.55055e-16)
(0.886604 -4.3351e-16 -4.54319e-17)
(0.888914 -3.61612e-15 -8.58029e-16)
(0.888914 -4.38986e-16 -4.25274e-17)
(0.891193 -3.60692e-15 -8.61148e-16)
(0.891193 -4.43543e-16 -3.96117e-17)
(0.89344 -3.5968e-15 -8.64538e-16)
(0.89344 -4.48633e-16 -3.66046e-17)
(0.895657 -3.58778e-15 -8.68105e-16)
(0.895657 -4.54165e-16 -3.33712e-17)
(0.897844 -3.57909e-15 -8.71804e-16)
(0.897844 -4.59988e-16 -3.00326e-17)
(0.900001 -3.56838e-15 -8.7565e-16)
(0.900001 -4.65013e-16 -2.66732e-17)
(0.902129 -3.55784e-15 -8.79949e-16)
(0.902129 -4.68672e-16 -2.32012e-17)
(0.904227 -3.54894e-15 -8.84639e-16)
(0.904227 -4.72834e-16 -1.94403e-17)
(0.906297 -3.54105e-15 -8.89373e-16)
(0.906297 -4.77199e-16 -1.53889e-17)
(0.908338 -3.53234e-15 -8.94124e-16)
(0.908338 -4.81198e-16 -1.13512e-17)
(0.91035 -3.52215e-15 -8.99075e-16)
(0.91035 -4.83766e-16 -7.3985e-18)
(0.912335 -3.51096e-15 -9.04364e-16)
(0.912335 -4.88659e-16 -6.95617e-18)
(0.914292 -3.50031e-15 -9.09841e-16)
(0.914292 -4.94528e-16 -7.08017e-18)
(0.916222 -3.49004e-15 -9.15465e-16)
(0.916222 -4.97498e-16 -7.25664e-18)
(0.918124 -3.47942e-15 -9.2141e-16)
(0.918124 -5.0382e-16 -7.35513e-18)
(0.92 -3.46955e-15 -9.27601e-16)
(0.92 -5.09062e-16 -7.45327e-18)
(0.921849 -3.46089e-15 -9.33974e-16)
(0.921849 -5.10162e-16 -7.37626e-18)
(0.923672 -3.45172e-15 -9.40212e-16)
(0.923672 -5.13648e-16 -7.2579e-18)
(0.925469 -3.44166e-15 -9.46573e-16)
(0.925469 -5.18962e-16 -7.34257e-18)
(0.927239 -3.43147e-15 -9.5322e-16)
(0.927239 -5.2315e-16 -7.50565e-18)
(0.928985 -3.42034e-15 -9.60138e-16)
(0.928985 -5.27792e-16 -7.71171e-18)
(0.930704 -3.40903e-15 -9.67431e-16)
(0.930704 -5.32601e-16 -7.68378e-18)
(0.932399 -3.39679e-15 -9.74678e-16)
(0.932399 -5.39483e-16 -7.68631e-18)
(0.934069 -3.38408e-15 -9.8214e-16)
(0.934069 -5.46104e-16 -7.97851e-18)
(0.935714 -3.37028e-15 -9.90092e-16)
(0.935714 -5.534e-16 -8.17021e-18)
(0.937335 -3.35717e-15 -9.98216e-16)
(0.937335 -5.61193e-16 -8.23673e-18)
(0.938931 -3.34521e-15 -1.0068e-15)
(0.938931 -5.63521e-16 -8.16011e-18)
(0.940504 -3.33501e-15 -1.01569e-15)
(0.940504 -5.64936e-16 -8.33126e-18)
(0.942052 -3.32229e-15 -1.02487e-15)
(0.942052 -5.67305e-16 -8.35962e-18)
(0.943577 -3.31426e-15 -1.03435e-15)
(0.943577 -5.71273e-16 -8.11524e-18)
(0.945079 -3.30299e-15 -1.04376e-15)
(0.945079 -5.75692e-16 -8.00361e-18)
(0.946557 -3.28876e-15 -1.0534e-15)
(0.946557 -5.79814e-16 -7.97758e-18)
(0.948013 -3.27619e-15 -1.06351e-15)
(0.948013 -5.8435e-16 -7.95255e-18)
(0.949446 -3.26489e-15 -1.07358e-15)
(0.949446 -5.90015e-16 -7.79735e-18)
(0.950856 -3.25273e-15 -1.08352e-15)
(0.950856 -5.95608e-16 -7.88252e-18)
(0.952243 -3.23983e-15 -1.09389e-15)
(0.952243 -6.02789e-16 -8.10697e-18)
(0.953609 -3.22613e-15 -1.10443e-15)
(0.953609 -6.11328e-16 -8.111e-18)
(0.954952 -3.21129e-15 -1.11517e-15)
(0.954952 -6.16773e-16 -7.81518e-18)
(0.956274 -3.19426e-15 -1.12578e-15)
(0.956274 -6.24439e-16 -7.77408e-18)
(0.957574 -3.1758e-15 -1.13675e-15)
(0.957574 -6.32832e-16 -8.04038e-18)
(0.958852 -3.16022e-15 -1.1485e-15)
(0.958852 -6.40228e-16 -8.5288e-18)
(0.96011 -3.14695e-15 -1.16103e-15)
(0.96011 -6.46996e-16 -8.31804e-18)
(0.961346 -3.13555e-15 -1.17337e-15)
(0.961346 -6.52754e-16 -7.59468e-18)
(0.962561 -3.12534e-15 -1.18526e-15)
(0.962561 -6.55744e-16 -7.24407e-18)
(0.963756 -3.11416e-15 -1.19723e-15)
(0.963756 -6.584e-16 -7.20379e-18)
(0.964929 -3.10173e-15 -1.20922e-15)
(0.964929 -6.66072e-16 -6.83471e-18)
(0.966083 -3.08961e-15 -1.22098e-15)
(0.966083 -6.76096e-16 -6.68052e-18)
(0.967216 -3.07908e-15 -1.23276e-15)
(0.967216 -6.83453e-16 -6.92375e-18)
(0.96833 -3.06586e-15 -1.24475e-15)
(0.96833 -6.90843e-16 -6.85071e-18)
(0.969423 -3.049e-15 -1.25646e-15)
(0.969423 -7.02604e-16 -6.18619e-18)
(0.970496 -3.03426e-15 -1.26787e-15)
(0.970496 -7.10484e-16 -6.18244e-18)
(0.97155 -3.01914e-15 -1.28004e-15)
(0.97155 -7.15994e-16 -6.42008e-18)
(0.972585 -3.00536e-15 -1.29213e-15)
(0.972585 -7.25318e-16 -5.94809e-18)
(0.9736 -2.99417e-15 -1.3037e-15)
(0.9736 -7.31183e-16 -5.54414e-18)
(0.974597 -2.98115e-15 -1.31511e-15)
(0.974597 -7.34887e-16 -5.45723e-18)
(0.975574 -2.96703e-15 -1.32644e-15)
(0.975574 -7.46651e-16 -4.87335e-18)
(0.976532 -2.94927e-15 -1.33711e-15)
(0.976532 -7.55892e-16 -4.45155e-18)
(0.977472 -2.9301e-15 -1.34774e-15)
(0.977472 -7.6529e-16 -4.28449e-18)
(0.978394 -2.91604e-15 -1.35844e-15)
(0.978394 -7.75155e-16 -3.90196e-18)
(0.979297 -2.90136e-15 -1.36873e-15)
(0.979297 -7.85393e-16 -3.27098e-18)
(0.980182 -2.88195e-15 -1.37837e-15)
(0.980182 -7.97877e-16 -3.02844e-18)
(0.981048 -2.86523e-15 -1.38791e-15)
(0.981048 -8.04983e-16 -3.55132e-18)
(0.981897 -2.84545e-15 -1.39645e-15)
(0.981897 -8.16116e-16 -3.406e-18)
(0.982728 -2.81945e-15 -1.40372e-15)
(0.982728 -8.28292e-16 -3.01359e-18)
(0.983541 -2.79518e-15 -1.41186e-15)
(0.983541 -8.41025e-16 -2.40029e-18)
(0.984337 -2.77744e-15 -1.41961e-15)
(0.984337 -8.58312e-16 -1.72858e-18)
(0.985115 -2.76686e-15 -1.42627e-15)
(0.985115 -8.68454e-16 -1.92148e-18)
(0.985876 -2.75791e-15 -1.43208e-15)
(0.985876 -8.7143e-16 -2.23545e-18)
(0.98662 -2.7446e-15 -1.43741e-15)
(0.98662 -8.77791e-16 -1.1986e-18)
(0.987347 -2.72496e-15 -1.44097e-15)
(0.987347 -8.88057e-16 4.80269e-20)
(0.988057 -2.70467e-15 -1.44391e-15)
(0.988057 -8.93129e-16 4.04839e-19)
(0.98875 -2.68847e-15 -1.44649e-15)
(0.98875 -9.00014e-16 6.58927e-19)
(0.989427 -2.67467e-15 -1.44694e-15)
(0.989427 -9.10647e-16 1.8576e-18)
(0.990087 -2.65993e-15 -1.44443e-15)
(0.990087 -9.20235e-16 2.36712e-18)
(0.99073 -2.64441e-15 -1.44251e-15)
(0.99073 -9.30879e-16 3.02486e-18)
(0.991357 -2.62576e-15 -1.43792e-15)
(0.991357 -9.44741e-16 3.78077e-18)
(0.991968 -2.60584e-15 -1.43207e-15)
(0.991968 -9.55978e-16 4.50526e-18)
(0.992562 -2.58473e-15 -1.42534e-15)
(0.992562 -9.66328e-16 5.05782e-18)
(0.993141 -2.56411e-15 -1.4167e-15)
(0.993141 -9.82163e-16 5.12545e-18)
(0.993703 -2.54134e-15 -1.40728e-15)
(0.993703 -9.94323e-16 5.25996e-18)
(0.99425 -2.51775e-15 -1.39663e-15)
(0.99425 -1.00537e-15 5.72894e-18)
(0.994781 -2.49292e-15 -1.38352e-15)
(0.994781 -1.02387e-15 5.8147e-18)
(0.995296 -2.4675e-15 -1.36954e-15)
(0.995296 -1.04307e-15 6.03524e-18)
(0.995796 -2.44873e-15 -1.35535e-15)
(0.995796 -1.06023e-15 5.82219e-18)
(0.996281 -2.42933e-15 -1.33863e-15)
(0.996281 -1.07948e-15 6.14212e-18)
(0.996749 -2.40885e-15 -1.3208e-15)
(0.996749 -1.0949e-15 5.80698e-18)
(0.997203 -2.38578e-15 -1.30126e-15)
(0.997203 -1.11496e-15 5.87452e-18)
(0.997642 -2.36281e-15 -1.27969e-15)
(0.997642 -1.13454e-15 4.35284e-18)
(0.998065 -2.34169e-15 -1.25865e-15)
(0.998065 -1.15165e-15 2.36808e-18)
(0.998474 -2.3162e-15 -1.23615e-15)
(0.998474 -1.17645e-15 1.35604e-18)
(0.998868 -2.28966e-15 -1.21373e-15)
(0.998868 -1.19775e-15 1.07628e-18)
(0.999247 -2.26792e-15 -1.18992e-15)
(0.999247 -1.21211e-15 1.27005e-18)
(0.999611 -2.24756e-15 -1.16452e-15)
(0.999611 -1.2263e-15 5.42675e-19)
(0.999961 -2.22622e-15 -1.13776e-15)
(0.999961 -1.24045e-15 2.0295e-18)
(1.0003 -2.20037e-15 -1.11087e-15)
(1.0003 -1.25379e-15 4.7616e-18)
(1.00062 -2.17626e-15 -1.08138e-15)
(1.00062 -1.26303e-15 3.11819e-18)
(1.00093 -2.15353e-15 -1.0521e-15)
(1.00093 -1.27764e-15 9.82953e-19)
(1.00122 -2.13382e-15 -1.02183e-15)
(1.00122 -1.29128e-15 -1.06547e-18)
(1.0015 -2.12533e-15 -9.88321e-16)
(1.0015 -1.29121e-15 -3.64512e-18)
(1.00177 -2.11477e-15 -9.59256e-16)
(1.00177 -1.29471e-15 -7.08126e-18)
(1.00203 -2.09735e-15 -9.41474e-16)
(1.00203 -1.3072e-15 -1.01703e-17)
(1.00227 -2.07886e-15 -9.23857e-16)
(1.00227 -1.317e-15 -1.40625e-17)
(1.0025 -2.05548e-15 -9.06376e-16)
(1.0025 -1.32547e-15 -1.85212e-17)
(1.00272 -2.03625e-15 -8.87396e-16)
(1.00272 -1.33385e-15 -2.34505e-17)
(1.00293 -2.02082e-15 -8.68553e-16)
(1.00293 -1.34546e-15 -2.8446e-17)
(1.00312 -1.999e-15 -8.48509e-16)
(1.00312 -1.36733e-15 -3.42251e-17)
(1.00331 -1.97502e-15 -8.30395e-16)
(1.00331 -1.38255e-15 -3.87576e-17)
(1.00348 -1.95246e-15 -8.127e-16)
(1.00348 -1.39689e-15 -4.26459e-17)
(1.00365 -1.93447e-15 -7.94099e-16)
(1.00365 -1.4217e-15 -4.8507e-17)
(1.00381 -1.91599e-15 -7.77836e-16)
(1.00381 -1.43548e-15 -5.28204e-17)
(1.00395 -1.90084e-15 -7.58974e-16)
(1.00395 -1.44383e-15 -5.60555e-17)
(1.00409 -1.88652e-15 -7.40097e-16)
(1.00409 -1.45692e-15 -6.00519e-17)
(1.00423 -1.87091e-15 -7.19231e-16)
(1.00423 -1.46675e-15 -6.2953e-17)
(1.00435 -1.86443e-15 -6.99968e-16)
(1.00435 -1.46339e-15 -7.20342e-17)
(1.00447 -1.86165e-15 -6.79933e-16)
(1.00447 -1.45912e-15 -8.15488e-17)
(1.00458 -1.84751e-15 -6.5709e-16)
(1.00458 -1.46314e-15 -9.60147e-17)
(1.00469 -1.82627e-15 -6.37308e-16)
(1.00469 -1.47033e-15 -1.08135e-16)
(1.00479 -1.8121e-15 -6.21522e-16)
(1.00479 -1.46946e-15 -1.18535e-16)
(1.00488 -1.80953e-15 -6.07e-16)
(1.00488 -1.46206e-15 -1.30092e-16)
(1.00498 -1.80881e-15 -5.88403e-16)
(1.00498 -1.45868e-15 -1.44664e-16)
(1.00506 -1.79641e-15 -5.71302e-16)
(1.00506 -1.44871e-15 -1.51883e-16)
(1.00515 -1.78214e-15 -5.50618e-16)
(1.00515 -1.44061e-15 -1.67289e-16)
(1.00523 -1.77097e-15 -5.32799e-16)
(1.00523 -1.42996e-15 -1.80621e-16)
(1.00531 -1.76713e-15 -5.2009e-16)
(1.00531 -1.42337e-15 -1.87776e-16)
(1.00539 -1.76719e-15 -5.03651e-16)
(1.00539 -1.41741e-15 -1.97088e-16)
(1.00546 -1.76099e-15 -4.83306e-16)
(1.00546 -1.40595e-15 -2.01892e-16)
(1.00554 -1.75706e-15 -4.63767e-16)
(1.00554 -1.40211e-15 -2.10246e-16)
(1.00561 -1.75897e-15 -4.42902e-16)
(1.00561 -1.4e-15 -2.24999e-16)
(1.00568 -1.74938e-15 -4.27484e-16)
(1.00568 -1.3982e-15 -2.37959e-16)
(1.00575 -1.72719e-15 -4.08002e-16)
(1.00575 -1.40771e-15 -2.42692e-16)
(1.00582 -1.70184e-15 -3.92516e-16)
(1.00582 -1.43e-15 -2.48063e-16)
(1.00589 -1.67948e-15 -3.76029e-16)
(1.00589 -1.43894e-15 -2.53535e-16)
(1.00595 -1.67574e-15 -3.64038e-16)
(1.00595 -1.43911e-15 -2.51936e-16)
(1.00602 -1.67438e-15 -3.47151e-16)
(1.00602 -1.4494e-15 -2.47152e-16)
(1.00609 -1.65986e-15 -3.36031e-16)
(1.00609 -1.44941e-15 -2.44472e-16)
(1.00616 -1.63643e-15 -3.22921e-16)
(1.00616 -1.44299e-15 -2.52249e-16)
(1.00623 -1.61317e-15 -3.08014e-16)
(1.00623 -1.46242e-15 -2.45855e-16)
(1.0063 -1.59985e-15 -3.00524e-16)
(1.0063 -1.48057e-15 -2.349e-16)
(1.00637 -1.59232e-15 -2.90675e-16)
(1.00637 -1.47632e-15 -2.26779e-16)
(1.00644 -1.58365e-15 -2.80518e-16)
(1.00644 -1.47298e-15 -2.27044e-16)
(1.00651 -1.58639e-15 -2.67904e-16)
(1.00651 -1.48011e-15 -2.30573e-16)
(1.00658 -1.5793e-15 -2.59634e-16)
(1.00658 -1.47392e-15 -2.23966e-16)
(1.00666 -1.57219e-15 -2.53111e-16)
(1.00666 -1.47028e-15 -2.1529e-16)
(1.00673 -1.57365e-15 -2.4531e-16)
(1.00673 -1.48253e-15 -2.14085e-16)
(1.00681 -1.56843e-15 -2.37013e-16)
(1.00681 -1.47484e-15 -2.12395e-16)
(1.00689 -1.55245e-15 -2.32732e-16)
(1.00689 -1.46329e-15 -2.01066e-16)
(1.00697 -1.55046e-15 -2.28489e-16)
(1.00697 -1.45909e-15 -1.89289e-16)
(1.00705 -1.54808e-15 -2.20464e-16)
(1.00705 -1.44704e-15 -1.77457e-16)
(1.00713 -1.52601e-15 -2.12206e-16)
(1.00713 -1.45425e-15 -1.81616e-16)
(1.00721 -1.50608e-15 -2.04242e-16)
(1.00721 -1.45709e-15 -1.79556e-16)
(1.00729 -1.50428e-15 -1.96767e-16)
(1.00729 -1.45749e-15 -1.75195e-16)
(1.00738 -1.4932e-15 -1.87537e-16)
(1.00738 -1.4782e-15 -1.79083e-16)
(1.00747 -1.46797e-15 -1.78939e-16)
(1.00747 -1.48945e-15 -1.81464e-16)
(1.00756 -1.45992e-15 -1.82225e-16)
(1.00756 -1.48799e-15 -1.75875e-16)
(1.00765 -1.44719e-15 -1.81426e-16)
(1.00765 -1.47473e-15 -1.67086e-16)
(1.00774 -1.43035e-15 -1.79794e-16)
(1.00774 -1.46963e-15 -1.47549e-16)
(1.00784 -1.41075e-15 -1.73621e-16)
(1.00784 -1.47529e-15 -1.32859e-16)
(1.00793 -1.39314e-15 -1.71508e-16)
(1.00793 -1.45085e-15 -1.3082e-16)
(1.00803 -1.37954e-15 -1.79208e-16)
(1.00803 -1.41319e-15 -1.33705e-16)
(1.00813 -1.35824e-15 -1.82754e-16)
(1.00813 -1.3762e-15 -1.3634e-16)
(1.00823 -1.33259e-15 -1.80852e-16)
(1.00823 -1.34073e-15 -1.39601e-16)
(1.00834 -1.32648e-15 -1.86522e-16)
(1.00834 -1.32222e-15 -1.3106e-16)
(1.00844 -1.32334e-15 -1.77701e-16)
(1.00844 -1.32958e-15 -1.4003e-16)
(1.00855 -1.30725e-15 -1.78306e-16)
(1.00855 -1.29112e-15 -1.22774e-16)
(1.00866 -1.29366e-15 -1.80939e-16)
(1.00866 -1.27321e-15 -1.19325e-16)
(1.00877 -1.29591e-15 -1.63787e-16)
(1.00877 -1.25155e-15 -1.24577e-16)
(1.00888 -1.2857e-15 -1.40875e-16)
(1.00888 -1.23141e-15 -1.25174e-16)
(1.009 -1.25888e-15 -1.28063e-16)
(1.009 -1.20986e-15 -1.18977e-16)
(1.00912 -1.23926e-15 -1.00649e-16)
(1.00912 -1.18195e-15 -1.07705e-16)
(1.00924 -1.22678e-15 -7.86312e-17)
(1.00924 -1.16864e-15 -1.03896e-16)
(1.00936 -1.21084e-15 -6.46328e-17)
(1.00936 -1.16674e-15 -9.87336e-17)
(1.00948 -1.19162e-15 -6.41739e-17)
(1.00948 -1.16864e-15 -7.42264e-17)
(1.00961 -1.18669e-15 -6.07482e-17)
(1.00961 -1.17408e-15 -6.60649e-17)
(1.00973 -1.18804e-15 -5.11859e-17)
(1.00973 -1.14985e-15 -5.08503e-17)
(1.00986 -1.15346e-15 -4.73246e-17)
(1.00986 -1.1495e-15 -4.16638e-17)
(1.00999 -1.12936e-15 -5.15374e-17)
(1.00999 -1.14217e-15 -3.52742e-17)
(1.01012 -1.11567e-15 -5.83169e-17)
(1.01012 -1.11517e-15 -3.87242e-17)
(1.01026 -1.10899e-15 -6.16588e-17)
(1.01026 -1.10647e-15 -3.82533e-17)
(1.01039 -1.08554e-15 -5.8709e-17)
(1.01039 -1.08141e-15 -3.11121e-17)
(1.01053 -1.06629e-15 -5.84251e-17)
(1.01053 -1.06572e-15 -2.63246e-17)
(1.01067 -1.05008e-15 -5.61989e-17)
(1.01067 -1.06826e-15 -2.11487e-17)
(1.01081 -1.03688e-15 -6.2084e-17)
(1.01081 -1.05846e-15 -2.78092e-17)
(1.01095 -1.04097e-15 -6.58906e-17)
(1.01095 -1.02708e-15 -2.99479e-17)
(1.0111 -1.02011e-15 -6.58742e-17)
(1.0111 -1.05084e-15 -3.31969e-17)
(1.01124 -9.9595e-16 -7.88515e-17)
(1.01124 -1.04682e-15 -2.86954e-17)
(1.01139 -1.00655e-15 -8.69323e-17)
(1.01139 -1.01741e-15 -3.7048e-17)
(1.01154 -1.01879e-15 -7.95078e-17)
(1.01154 -9.93367e-16 -5.52195e-17)
(1.01169 -1.02224e-15 -7.69351e-17)
(1.01169 -9.92966e-16 -7.07374e-17)
(1.01184 -9.99136e-16 -7.7093e-17)
(1.01184 -1.00556e-15 -6.98662e-17)
(1.01199 -1.00184e-15 -7.45841e-17)
(1.01199 -9.95656e-16 -7.09711e-17)
(1.01214 -9.86824e-16 -6.98919e-17)
(1.01214 -9.72484e-16 -6.17917e-17)
(1.01229 -9.62378e-16 -7.06883e-17)
(1.01229 -9.61663e-16 -5.69661e-17)
(1.01245 -9.5787e-16 -7.18828e-17)
(1.01245 -9.47692e-16 -6.67465e-17)
(1.0126 -9.54335e-16 -7.68758e-17)
(1.0126 -9.4945e-16 -6.47532e-17)
(1.01276 -9.13567e-16 -7.52483e-17)
(1.01276 -9.26885e-16 -5.90145e-17)
(1.01291 -9.06181e-16 -7.46063e-17)
(1.01291 -9.30996e-16 -4.80032e-17)
(1.01307 -9.00837e-16 -6.39669e-17)
(1.01307 -9.61533e-16 -5.59474e-17)
(1.01322 -9.0894e-16 -7.11617e-17)
(1.01322 -9.36048e-16 -5.14489e-17)
(1.01338 -9.09462e-16 -5.59096e-17)
(1.01338 -9.02874e-16 -5.69281e-17)
(1.01354 -9.01001e-16 -4.98609e-17)
(1.01354 -8.95572e-16 -6.68103e-17)
(1.01369 -9.01392e-16 -6.44883e-17)
(1.01369 -8.89116e-16 -3.7368e-17)
(1.01385 -8.87276e-16 -9.18028e-17)
(1.01385 -8.67584e-16 -3.80433e-17)
(1.014 -8.73932e-16 -7.59408e-17)
(1.014 -8.38233e-16 -5.74936e-17)
(1.01415 -8.41559e-16 -6.15363e-17)
(1.01415 -8.48526e-16 -7.24793e-17)
(1.01431 -8.52824e-16 -7.39874e-17)
(1.01431 -8.33189e-16 -7.1885e-17)
(1.01446 -8.23764e-16 -8.24992e-17)
(1.01446 -8.21628e-16 -7.16892e-17)
(1.01461 -7.99965e-16 -9.92744e-17)
(1.01461 -8.22538e-16 -8.20909e-17)
(1.01476 -7.42237e-16 -1.12205e-16)
(1.01476 -7.72712e-16 -8.20461e-17)
(1.0149 -7.23359e-16 -1.10537e-16)
(1.0149 -7.50307e-16 -6.43244e-17)
(1.01505 -7.30897e-16 -1.15812e-16)
(1.01505 -7.48247e-16 -6.27168e-17)
(1.01519 -7.07568e-16 -9.33578e-17)
(1.01519 -7.0167e-16 -5.04505e-17)
(1.01532 -6.94054e-16 -6.98616e-17)
(1.01532 -6.75692e-16 -3.45594e-17)
(1.01546 -6.9548e-16 -4.03531e-17)
(1.01546 -6.9477e-16 -4.05042e-17)
(1.01559 -6.58637e-16 -4.16757e-17)
(1.01559 -6.70932e-16 -7.61072e-18)
(1.01572 -6.61265e-16 -5.11789e-17)
(1.01572 -6.61729e-16 -1.96608e-17)
(1.01584 -6.68385e-16 -4.55846e-17)
(1.01584 -6.61228e-16 2.90416e-18)
(1.01596 -6.58934e-16 -4.7509e-17)
(1.01596 -6.55462e-16 -4.21998e-17)
(1.01607 -6.37044e-16 -6.20332e-17)
(1.01607 -5.91653e-16 -3.82919e-17)
(1.01618 -5.94945e-16 -6.38946e-17)
(1.01618 -5.55499e-16 -5.23686e-17)
(1.01628 -5.58505e-16 -5.06163e-17)
(1.01628 -5.68231e-16 -3.08731e-17)
(1.01638 -5.37953e-16 -5.81105e-17)
(1.01638 -5.54147e-16 8.55669e-19)
(1.01646 -5.52432e-16 -6.55427e-17)
(1.01646 -5.5977e-16 -2.14186e-17)
(1.01655 -5.30676e-16 -6.87604e-17)
(1.01655 -5.31531e-16 -5.46585e-17)
(1.01662 -5.20594e-16 -6.6449e-17)
(1.01662 -4.9584e-16 -2.82122e-17)
(1.01668 -4.98117e-16 -8.71836e-17)
(1.01668 -5.04731e-16 -3.09663e-17)
(1.01674 -4.71396e-16 -6.79657e-17)
(1.01674 -4.75481e-16 -8.47516e-17)
(1.01678 -4.33727e-16 -5.86199e-17)
(1.01678 -4.59142e-16 -1.02754e-16)
(1.01682 -3.98764e-16 -9.28482e-17)
(1.01682 -4.40065e-16 -1.20271e-16)
(1.01684 -4.14307e-16 -1.03576e-16)
(1.01684 -3.95569e-16 -1.69468e-16)
(1.01685 -4.00629e-16 -1.01433e-16)
(1.01685 -4.04552e-16 -1.49645e-16)
(0.021378 -2.43458e-19 1.18075e-16)
(0.021378 2.43252e-20 -1.87182e-17)
(0.0644396 -5.27657e-18 4.54588e-16)
(0.0644396 -2.37601e-18 -2.21848e-16)
(0.108106 -1.12521e-17 4.66645e-16)
(0.108106 -4.94112e-18 -2.27704e-16)
(0.152288 -1.80504e-17 4.76583e-16)
(0.152288 -7.95827e-18 -2.32525e-16)
(0.196636 -2.50029e-17 4.8031e-16)
(0.196636 -1.12153e-17 -2.3431e-16)
(0.24033 -3.1978e-17 4.72482e-16)
(0.24033 -1.46076e-17 -2.30454e-16)
(0.282112 -3.88039e-17 4.50334e-16)
(0.282112 -1.78696e-17 -2.19607e-16)
(0.320751 -4.51932e-17 4.16674e-16)
(0.320751 -2.06216e-17 -2.03154e-16)
(0.355546 -5.09567e-17 3.77893e-16)
(0.355546 -2.34385e-17 -1.84211e-16)
(0.386425 -5.62098e-17 3.39733e-16)
(0.386425 -2.59343e-17 -1.65578e-16)
(0.413718 -6.10896e-17 3.05335e-16)
(0.413718 -2.81482e-17 -1.48793e-16)
(0.437907 -6.5457e-17 2.75682e-16)
(0.437907 -3.0401e-17 -1.3433e-16)
(0.459477 -6.95156e-17 2.50622e-16)
(0.459477 -3.23277e-17 -1.22115e-16)
(0.478855 -7.3569e-17 2.29574e-16)
(0.478855 -3.41439e-17 -1.11863e-16)
(0.496399 -7.71422e-17 2.11878e-16)
(0.496399 -3.59398e-17 -1.03258e-16)
(0.5124 -8.01349e-17 1.96939e-16)
(0.5124 -3.76709e-17 -9.60048e-17)
(0.527093 -8.29134e-17 1.84256e-16)
(0.527093 -3.90173e-17 -8.98598e-17)
(0.540671 -8.58422e-17 1.73413e-16)
(0.540671 -4.03124e-17 -8.46143e-17)
(0.553288 -8.87599e-17 1.6408e-16)
(0.553288 -4.14972e-17 -8.01143e-17)
(0.565072 -9.13602e-17 1.55998e-16)
(0.565072 -4.27017e-17 -7.62234e-17)
(0.576129 -9.37535e-17 1.48956e-16)
(0.576129 -4.40532e-17 -7.28434e-17)
(0.586546 -9.61067e-17 1.42792e-16)
(0.586546 -4.53095e-17 -6.98942e-17)
(0.596396 -9.83638e-17 1.37364e-16)
(0.596396 -4.65373e-17 -6.73258e-17)
(0.605741 -1.00866e-16 1.32562e-16)
(0.605741 -4.78014e-17 -6.50735e-17)
(0.614634 -1.0327e-16 1.28289e-16)
(0.614634 -4.87898e-17 -6.30818e-17)
(0.623121 -1.05749e-16 1.2448e-16)
(0.623121 -4.94516e-17 -6.13097e-17)
(0.631239 -1.08441e-16 1.21073e-16)
(0.631239 -5.05477e-17 -5.9741e-17)
(0.639023 -1.10672e-16 1.18019e-16)
(0.639023 -5.16649e-17 -5.83511e-17)
(0.646502 -1.12837e-16 1.15277e-16)
(0.646502 -5.23334e-17 -5.71376e-17)
(0.653702 -1.15123e-16 1.12798e-16)
(0.653702 -5.3453e-17 -5.60642e-17)
(0.660645 -1.17262e-16 1.10556e-16)
(0.660645 -5.48085e-17 -5.50922e-17)
(0.667351 -1.19408e-16 1.08526e-16)
(0.667351 -5.57824e-17 -5.42166e-17)
(0.673838 -1.22033e-16 1.06683e-16)
(0.673838 -5.66935e-17 -5.34556e-17)
(0.680122 -1.24706e-16 1.04995e-16)
(0.680122 -5.81749e-17 -5.27954e-17)
(0.686216 -1.26856e-16 1.03456e-16)
(0.686216 -5.92172e-17 -5.22105e-17)
(0.692134 -1.2871e-16 1.02065e-16)
(0.692134 -6.01774e-17 -5.16994e-17)
(0.697887 -1.30332e-16 1.00807e-16)
(0.697887 -6.08878e-17 -5.12622e-17)
(0.703484 -1.32188e-16 9.96683e-17)
(0.703484 -6.16767e-17 -5.0902e-17)
(0.708936 -1.33904e-16 9.86265e-17)
(0.708936 -6.34031e-17 -5.0572e-17)
(0.714251 -1.35558e-16 9.76925e-17)
(0.714251 -6.4631e-17 -5.02977e-17)
(0.719436 -1.37473e-16 9.68517e-17)
(0.719436 -6.52921e-17 -5.00761e-17)
(0.724499 -1.39457e-16 9.60915e-17)
(0.724499 -6.67755e-17 -4.9913e-17)
(0.729446 -1.41377e-16 9.54068e-17)
(0.729446 -6.85908e-17 -4.98102e-17)
(0.734282 -1.43519e-16 9.47846e-17)
(0.734282 -6.9402e-17 -4.97273e-17)
(0.739014 -1.45537e-16 9.4216e-17)
(0.739014 -7.11837e-17 -4.96916e-17)
(0.743646 -1.46801e-16 9.37116e-17)
(0.743646 -7.26703e-17 -4.96856e-17)
(0.748182 -1.48289e-16 9.32726e-17)
(0.748182 -7.37587e-17 -4.97095e-17)
(0.752628 -1.5007e-16 9.28972e-17)
(0.752628 -7.52673e-17 -4.98113e-17)
(0.756986 -1.52274e-16 9.25658e-17)
(0.756986 -7.60665e-17 -4.99263e-17)
(0.761261 -1.55183e-16 9.22633e-17)
(0.761261 -7.64184e-17 -5.00746e-17)
(0.765456 -1.58033e-16 9.19814e-17)
(0.765456 -7.73385e-17 -5.02466e-17)
(0.769574 -1.60411e-16 9.17322e-17)
(0.769574 -7.85825e-17 -5.04387e-17)
(0.773618 -1.62466e-16 9.15279e-17)
(0.773618 -8.01967e-17 -5.06773e-17)
(0.77759 -1.64327e-16 9.13608e-17)
(0.77759 -8.19605e-17 -5.09232e-17)
(0.781494 -1.66273e-16 9.12398e-17)
(0.781494 -8.30917e-17 -5.11776e-17)
(0.785331 -1.68149e-16 9.11689e-17)
(0.785331 -8.43138e-17 -5.14978e-17)
(0.789104 -1.70507e-16 9.11242e-17)
(0.789104 -8.58641e-17 -5.1836e-17)
(0.792814 -1.73083e-16 9.11049e-17)
(0.792814 -8.74201e-17 -5.21931e-17)
(0.796465 -1.74874e-16 9.11112e-17)
(0.796465 -8.94341e-17 -5.25729e-17)
(0.800057 -1.76487e-16 9.11537e-17)
(0.800057 -9.14665e-17 -5.29989e-17)
(0.803592 -1.78568e-16 9.12148e-17)
(0.803592 -9.32401e-17 -5.3412e-17)
(0.807072 -1.80793e-16 9.12941e-17)
(0.807072 -9.46068e-17 -5.38444e-17)
(0.810499 -1.8258e-16 9.13961e-17)
(0.810499 -9.65431e-17 -5.43465e-17)
(0.813873 -1.84492e-16 9.15356e-17)
(0.813873 -9.82407e-17 -5.48507e-17)
(0.817197 -1.87573e-16 9.20039e-17)
(0.817197 -9.89879e-17 -5.53975e-17)
(0.820471 -1.91011e-16 9.24252e-17)
(0.820471 -9.98953e-17 -5.59909e-17)
(0.823697 -1.93624e-16 9.28647e-17)
(0.823697 -1.00362e-16 -5.65554e-17)
(0.826876 -1.96194e-16 9.32997e-17)
(0.826876 -1.01859e-16 -5.71619e-17)
(0.830009 -1.98559e-16 9.37642e-17)
(0.830009 -1.04331e-16 -5.77725e-17)
(0.833097 -2.00941e-16 9.4268e-17)
(0.833097 -1.0592e-16 -5.84548e-17)
(0.83614 -2.03622e-16 9.47402e-17)
(0.83614 -1.06314e-16 -5.91384e-17)
(0.839141 -2.05944e-16 9.52103e-17)
(0.839141 -1.07599e-16 -5.9831e-17)
(0.842099 -2.08728e-16 9.56729e-17)
(0.842099 -1.10164e-16 -6.05241e-17)
(0.845016 -2.10647e-16 9.61675e-17)
(0.845016 -1.11912e-16 -6.12665e-17)
(0.847892 -2.12298e-16 9.67599e-17)
(0.847892 -1.13155e-16 -6.21358e-17)
(0.850728 -2.14718e-16 9.72245e-17)
(0.850728 -1.15258e-16 -6.2928e-17)
(0.853526 -2.16219e-16 9.77075e-17)
(0.853526 -1.17688e-16 -6.37257e-17)
(0.856284 -2.17636e-16 9.82481e-17)
(0.856284 -1.21169e-16 -6.45963e-17)
(0.859005 -2.19543e-16 9.87508e-17)
(0.859005 -1.24125e-16 -6.54499e-17)
(0.861689 -2.21415e-16 9.94021e-17)
(0.861689 -1.254e-16 -6.64038e-17)
(0.864336 -2.24437e-16 9.99791e-17)
(0.864336 -1.26581e-16 -6.73959e-17)
(0.866947 -2.27349e-16 1.00455e-16)
(0.866947 -1.28946e-16 -6.83464e-17)