/*--------------------------------*- C++ -*----------------------------------*\
| =========                 |                                                 |
| \\      /  F ield         | OpenFOAM: The Open Source CFD Toolbox           |
|  \\    /   O peration     | Version:  2106                                  |
|   \\  /    A nd           | Website:  www.openfoam.com                      |
|    \\/     M anipulation  |                                                 |
\*---------------------------------------------------------------------------*/
FoamFile
{
    version     2.0;
    format      ascii;
    arch        "LSB;label=32;scalar=64";
    class       volSymmTensorField;
    location    "13000";
    object      turbulenceProperties:R;
}
// * * * * * * * * * * * * * * * * * * * * * * * * * * * * * * * * * * * * * //

dimensions      [0 2 -2 0 0 0 0];

internalField   nonuniform List<symmTensor> 
2560
(
(2.72636e-07 -2.44617e-11 -3.54115e-14 2.72636e-07 5.09588e-27 2.72636e-07)
(2.72636e-07 -2.44617e-11 -3.54115e-14 2.72636e-07 -5.78528e-26 2.72636e-07)
(4.902e-08 -2.52767e-11 -1.10311e-13 4.902e-08 -4.31099e-26 4.902e-08)
(4.902e-08 -2.52767e-11 -1.10311e-13 4.902e-08 -8.85477e-27 4.902e-08)
(7.68044e-08 -1.16816e-10 -7.012e-13 7.68044e-08 -1.95575e-27 7.68044e-08)
(7.68044e-08 -1.16816e-10 -7.012e-13 7.68044e-08 -2.02988e-26 7.68044e-08)
(2.442e-07 -7.87534e-10 -4.79599e-12 2.442e-07 -3.05485e-26 2.442e-07)
(2.442e-07 -7.87534e-10 -4.79599e-12 2.442e-07 -1.36667e-25 2.442e-07)
(6.28848e-07 -3.5775e-09 -2.21033e-11 6.28848e-07 -6.27509e-25 6.28848e-07)
(6.28848e-07 -3.5775e-09 -2.21033e-11 6.28848e-07 -6.19139e-25 6.28848e-07)
(1.34178e-06 -1.2017e-08 -7.53255e-11 1.34178e-06 -2.59017e-24 1.34178e-06)
(1.34178e-06 -1.2017e-08 -7.53255e-11 1.34178e-06 -2.07192e-24 1.34178e-06)
(2.5151e-06 -3.28552e-08 -2.08939e-10 2.5151e-06 -7.42542e-24 2.5151e-06)
(2.5151e-06 -3.28552e-08 -2.08939e-10 2.5151e-06 -5.6378e-24 2.5151e-06)
(4.30036e-06 -7.76028e-08 -5.00679e-10 4.30036e-06 -1.81391e-23 4.30036e-06)
(4.30036e-06 -7.76028e-08 -5.00679e-10 4.30036e-06 -1.32389e-23 4.30036e-06)
(6.86873e-06 -1.64417e-07 -1.0762e-09 6.86873e-06 -3.97412e-23 6.86873e-06)
(6.86873e-06 -1.64417e-07 -1.0762e-09 6.86873e-06 -2.78545e-23 6.86873e-06)
(1.04115e-05 -3.20351e-07 -2.12733e-09 1.04115e-05 -7.97054e-23 1.04115e-05)
(1.04115e-05 -3.20351e-07 -2.12733e-09 1.04115e-05 -5.38352e-23 1.04115e-05)
(1.51407e-05 -5.83987e-07 -3.93433e-09 1.51407e-05 -1.49089e-22 1.51407e-05)
(1.51407e-05 -5.83987e-07 -3.93433e-09 1.51407e-05 -9.7204e-23 1.51407e-05)
(2.12896e-05 -1.00844e-06 -6.89238e-09 2.12896e-05 -2.63605e-22 2.12896e-05)
(2.12896e-05 -1.00844e-06 -6.89238e-09 2.12896e-05 -1.65949e-22 2.12896e-05)
(2.91132e-05 -1.66467e-06 -1.15424e-08 2.91132e-05 -4.44973e-22 2.91132e-05)
(2.91132e-05 -1.66467e-06 -1.15424e-08 2.91132e-05 -2.70199e-22 2.91132e-05)
(3.88881e-05 -2.64512e-06 -1.86059e-08 3.88881e-05 -7.22478e-22 3.88881e-05)
(3.88881e-05 -2.64512e-06 -1.86059e-08 3.88881e-05 -4.22252e-22 3.88881e-05)
(5.09118e-05 -4.06733e-06 -2.90229e-08 5.09118e-05 -1.13388e-21 5.09118e-05)
(5.09118e-05 -4.06733e-06 -2.90229e-08 5.09118e-05 -6.3664e-22 5.09118e-05)
(6.55021e-05 -6.07753e-06 -4.39918e-08 6.55021e-05 -1.72782e-21 6.55021e-05)
(6.55021e-05 -6.07753e-06 -4.39918e-08 6.55021e-05 -9.28755e-22 6.55021e-05)
(8.2995e-05 -8.85381e-06 -6.50087e-08 8.2995e-05 -2.56465e-21 8.2995e-05)
(8.2995e-05 -8.85381e-06 -6.50087e-08 8.2995e-05 -1.31298e-21 8.2995e-05)
(0.000103741 -1.26084e-05 -9.39024e-08 0.000103741 -3.71055e-21 0.000103741)
(0.000103741 -1.26084e-05 -9.39024e-08 0.000103741 -1.80167e-21 0.000103741)
(0.000128102 -1.75884e-05 -1.32862e-07 0.000128102 -5.28725e-21 0.000128102)
(0.000128102 -1.75884e-05 -1.32862e-07 0.000128102 -2.40082e-21 0.000128102)
(0.000156444 -2.40755e-05 -1.84449e-07 0.000156444 -7.19542e-21 0.000156444)
(0.000156444 -2.40755e-05 -1.84449e-07 0.000156444 -3.10534e-21 0.000156444)
(0.000189131 -3.23818e-05 -2.51595e-07 0.000189131 -1.00013e-20 0.000189131)
(0.000189131 -3.23818e-05 -2.51595e-07 0.000189131 -3.89556e-21 0.000189131)
(0.000226516 -4.2844e-05 -3.37566e-07 0.000226516 -1.33109e-20 0.000226516)
(0.000226516 -4.2844e-05 -3.37566e-07 0.000226516 -4.72546e-21 0.000226516)
(0.000268928 -5.58132e-05 -4.45904e-07 0.000268928 -1.74766e-20 0.000268928)
(0.000268928 -5.58132e-05 -4.45904e-07 0.000268928 -5.51907e-21 0.000268928)
(0.000316663 -7.16426e-05 -5.80333e-07 0.000316663 -2.25349e-20 0.000316663)
(0.000316663 -7.16426e-05 -5.80333e-07 0.000316663 -6.16347e-21 0.000316663)
(0.000369969 -9.06706e-05 -7.44629e-07 0.000369969 -2.8561e-20 0.000369969)
(0.000369969 -9.06706e-05 -7.44629e-07 0.000369969 -6.49943e-21 0.000369969)
(0.000429034 -0.000113203 -9.42466e-07 0.000429034 -3.56013e-20 0.000429034)
(0.000429034 -0.000113203 -9.42466e-07 0.000429034 -6.305e-21 0.000429034)
(0.000493973 -0.000139493 -1.17724e-06 0.000493973 -4.36216e-20 0.000493973)
(0.000493973 -0.000139493 -1.17724e-06 0.000493973 -5.34901e-21 0.000493973)
(0.000564815 -0.000169723 -1.4519e-06 0.000564815 -5.25955e-20 0.000564815)
(0.000564815 -0.000169723 -1.4519e-06 0.000564815 -3.35002e-21 0.000564815)
(0.000641499 -0.000203991 -1.76874e-06 0.000641499 -6.24347e-20 0.000641499)
(0.000641499 -0.000203991 -1.76874e-06 0.000641499 1.07566e-21 0.000641499)
(0.000723865 -0.000242294 -2.12933e-06 0.000723865 -7.29951e-20 0.000723865)
(0.000723865 -0.000242294 -2.12933e-06 0.000723865 3.5867e-21 0.000723865)
(0.000811656 -0.000284528 -2.53434e-06 0.000811656 -8.40808e-20 0.000811656)
(0.000811656 -0.000284528 -2.53434e-06 0.000811656 1.17773e-20 0.000811656)
(0.000904519 -0.000330485 -2.98355e-06 0.000904519 -9.5515e-20 0.000904519)
(0.000904519 -0.000330485 -2.98355e-06 0.000904519 2.06612e-20 0.000904519)
(0.00100202 -0.000379866 -3.47583e-06 0.00100202 -1.0712e-19 0.00100202)
(0.00100202 -0.000379866 -3.47583e-06 0.00100202 3.17849e-20 0.00100202)
(0.00110364 -0.000432288 -4.00926e-06 0.00110364 -1.1865e-19 0.00110364)
(0.00110364 -0.000432288 -4.00926e-06 0.00110364 4.51046e-20 0.00110364)
(0.00120882 -0.000487308 -4.58118e-06 0.00120882 -1.30043e-19 0.00120882)
(0.00120882 -0.000487308 -4.58118e-06 0.00120882 6.04744e-20 0.00120882)
(0.00131695 -0.000544442 -5.18841e-06 0.00131695 -1.41235e-19 0.00131695)
(0.00131695 -0.000544442 -5.18841e-06 0.00131695 7.79908e-20 0.00131695)
(0.0014274 -0.000603187 -5.82735e-06 0.0014274 -1.52445e-19 0.0014274)
(0.0014274 -0.000603187 -5.82735e-06 0.0014274 9.76256e-20 0.0014274)
(0.00153954 -0.000663037 -6.49421e-06 0.00153954 -1.6322e-19 0.00153954)
(0.00153954 -0.000663037 -6.49421e-06 0.00153954 1.18813e-19 0.00153954)
(0.00165274 -0.000723507 -7.18512e-06 0.00165274 -1.73575e-19 0.00165274)
(0.00165274 -0.000723507 -7.18512e-06 0.00165274 1.41608e-19 0.00165274)
(0.0017664 -0.000784142 -7.89628e-06 0.0017664 -1.84036e-19 0.0017664)
(0.0017664 -0.000784142 -7.89628e-06 0.0017664 1.66057e-19 0.0017664)
(0.00187998 -0.000844531 -8.62408e-06 0.00187998 -1.94686e-19 0.00187998)
(0.00187998 -0.000844531 -8.62408e-06 0.00187998 1.91432e-19 0.00187998)
(0.00199296 -0.000904308 -9.36517e-06 0.00199296 -2.05502e-19 0.00199296)
(0.00199296 -0.000904308 -9.36517e-06 0.00199296 2.17667e-19 0.00199296)
(0.00210487 -0.000963162 -1.01165e-05 0.00210487 -2.16589e-19 0.00210487)
(0.00210487 -0.000963162 -1.01165e-05 0.00210487 2.44583e-19 0.00210487)
(0.00221531 -0.00102083 -1.08754e-05 0.00221531 -2.28447e-19 0.00221531)
(0.00221531 -0.00102083 -1.08754e-05 0.00221531 2.72397e-19 0.00221531)
(0.00232393 -0.0010771 -1.16396e-05 0.00232393 -2.40616e-19 0.00232393)
(0.00232393 -0.0010771 -1.16396e-05 0.00232393 3.00688e-19 0.00232393)
(0.00243043 -0.00113182 -1.2407e-05 0.00243043 -2.53434e-19 0.00243043)
(0.00243043 -0.00113182 -1.2407e-05 0.00243043 3.28247e-19 0.00243043)
(0.00253457 -0.00118484 -1.3176e-05 0.00253457 -2.67821e-19 0.00253457)
(0.00253457 -0.00118484 -1.3176e-05 0.00253457 3.55924e-19 0.00253457)
(0.00263615 -0.0012361 -1.39452e-05 0.00263615 -2.83132e-19 0.00263615)
(0.00263615 -0.0012361 -1.39452e-05 0.00263615 3.84516e-19 0.00263615)
(0.00273503 -0.00128553 -1.47137e-05 0.00273503 -2.99247e-19 0.00273503)
(0.00273503 -0.00128553 -1.47137e-05 0.00273503 4.13311e-19 0.00273503)
(0.00283107 -0.00133311 -1.54806e-05 0.00283107 -3.16522e-19 0.00283107)
(0.00283107 -0.00133311 -1.54806e-05 0.00283107 4.41776e-19 0.00283107)
(0.00292422 -0.00137883 -1.62452e-05 0.00292422 -3.35096e-19 0.00292422)
(0.00292422 -0.00137883 -1.62452e-05 0.00292422 4.70605e-19 0.00292422)
(0.00301442 -0.0014227 -1.70073e-05 0.00301442 -3.54548e-19 0.00301442)
(0.00301442 -0.0014227 -1.70073e-05 0.00301442 5.00936e-19 0.00301442)
(0.00310165 -0.00146476 -1.77664e-05 0.00310165 -3.76239e-19 0.00310165)
(0.00310165 -0.00146476 -1.77664e-05 0.00310165 5.3137e-19 0.00310165)
(0.00318592 -0.00150503 -1.85226e-05 0.00318592 -3.99948e-19 0.00318592)
(0.00318592 -0.00150503 -1.85226e-05 0.00318592 5.62527e-19 0.00318592)
(0.00326725 -0.00154358 -1.92758e-05 0.00326725 -4.2429e-19 0.00326725)
(0.00326725 -0.00154358 -1.92758e-05 0.00326725 5.95669e-19 0.00326725)
(0.00334568 -0.00158044 -2.00261e-05 0.00334568 -4.5026e-19 0.00334568)
(0.00334568 -0.00158044 -2.00261e-05 0.00334568 6.28328e-19 0.00334568)
(0.00342126 -0.00161569 -2.07737e-05 0.00342126 -4.76894e-19 0.00342126)
(0.00342126 -0.00161569 -2.07737e-05 0.00342126 6.63072e-19 0.00342126)
(0.00349404 -0.00164938 -2.15188e-05 0.00349404 -5.05742e-19 0.00349404)
(0.00349404 -0.00164938 -2.15188e-05 0.00349404 7.02209e-19 0.00349404)
(0.0035641 -0.00168157 -2.22616e-05 0.0035641 -5.38728e-19 0.0035641)
(0.0035641 -0.00168157 -2.22616e-05 0.0035641 7.40833e-19 0.0035641)
(0.00363151 -0.00171234 -2.30025e-05 0.00363151 -5.71878e-19 0.00363151)
(0.00363151 -0.00171234 -2.30025e-05 0.00363151 7.81216e-19 0.00363151)
(0.00369635 -0.00174173 -2.37418e-05 0.00369635 -6.03844e-19 0.00369635)
(0.00369635 -0.00174173 -2.37418e-05 0.00369635 8.25709e-19 0.00369635)
(0.00375871 -0.00176981 -2.44798e-05 0.00375871 -6.38055e-19 0.00375871)
(0.00375871 -0.00176981 -2.44798e-05 0.00375871 8.73053e-19 0.00375871)
(0.00381866 -0.00179665 -2.5217e-05 0.00381866 -6.78067e-19 0.00381866)
(0.00381866 -0.00179665 -2.5217e-05 0.00381866 9.21281e-19 0.00381866)
(0.00387628 -0.0018223 -2.59537e-05 0.00387628 -7.17029e-19 0.00387628)
(0.00387628 -0.0018223 -2.59537e-05 0.00387628 9.70484e-19 0.00387628)
(0.00393168 -0.00184681 -2.66902e-05 0.00393168 -7.56516e-19 0.00393168)
(0.00393168 -0.00184681 -2.66902e-05 0.00393168 1.02108e-18 0.00393168)
(0.00398491 -0.00187026 -2.74269e-05 0.00398491 -7.99449e-19 0.00398491)
(0.00398491 -0.00187026 -2.74269e-05 0.00398491 1.07006e-18 0.00398491)
(0.00403608 -0.00189267 -2.81643e-05 0.00403608 -8.40208e-19 0.00403608)
(0.00403608 -0.00189267 -2.81643e-05 0.00403608 1.12485e-18 0.00403608)
(0.00408526 -0.00191411 -2.89027e-05 0.00408526 -8.86798e-19 0.00408526)
(0.00408526 -0.00191411 -2.89027e-05 0.00408526 1.18125e-18 0.00408526)
(0.00413252 -0.00193463 -2.96425e-05 0.00413252 -9.32624e-19 0.00413252)
(0.00413252 -0.00193463 -2.96425e-05 0.00413252 1.23553e-18 0.00413252)
(0.00417795 -0.00195427 -3.03841e-05 0.00417795 -9.74466e-19 0.00417795)
(0.00417795 -0.00195427 -3.03841e-05 0.00417795 1.29488e-18 0.00417795)
(0.00422162 -0.00197306 -3.11277e-05 0.00422162 -1.02441e-18 0.00422162)
(0.00422162 -0.00197306 -3.11277e-05 0.00422162 1.3602e-18 0.00422162)
(0.0042636 -0.00199106 -3.18738e-05 0.0042636 -1.07933e-18 0.0042636)
(0.0042636 -0.00199106 -3.18738e-05 0.0042636 1.43142e-18 0.0042636)
(0.00430396 -0.00200831 -3.26227e-05 0.00430396 -1.12955e-18 0.00430396)
(0.00430396 -0.00200831 -3.26227e-05 0.00430396 1.50222e-18 0.00430396)
(0.00434276 -0.00202483 -3.33748e-05 0.00434276 -1.1773e-18 0.00434276)
(0.00434276 -0.00202483 -3.33748e-05 0.00434276 1.56601e-18 0.00434276)
(0.00438007 -0.00204066 -3.41303e-05 0.00438007 -1.23322e-18 0.00438007)
(0.00438007 -0.00204066 -3.41303e-05 0.00438007 1.63142e-18 0.00438007)
(0.00441595 -0.00205584 -3.48897e-05 0.00441595 -1.29548e-18 0.00441595)
(0.00441595 -0.00205584 -3.48897e-05 0.00441595 1.70593e-18 0.00441595)
(0.00445046 -0.0020704 -3.56531e-05 0.00445046 -1.35935e-18 0.00445046)
(0.00445046 -0.0020704 -3.56531e-05 0.00445046 1.78002e-18 0.00445046)
(0.00448366 -0.00208437 -3.6421e-05 0.00448366 -1.42385e-18 0.00448366)
(0.00448366 -0.00208437 -3.6421e-05 0.00448366 1.84461e-18 0.00448366)
(0.00451559 -0.00209777 -3.71936e-05 0.00451559 -1.48215e-18 0.00451559)
(0.00451559 -0.00209777 -3.71936e-05 0.00451559 1.89738e-18 0.00451559)
(0.00454631 -0.00211063 -3.79712e-05 0.00454631 -1.54331e-18 0.00454631)
(0.00454631 -0.00211063 -3.79712e-05 0.00454631 1.94644e-18 0.00454631)
(0.00457587 -0.00212297 -3.87541e-05 0.00457587 -1.60321e-18 0.00457587)
(0.00457587 -0.00212297 -3.87541e-05 0.00457587 2.00302e-18 0.00457587)
(0.00460432 -0.00213482 -3.95426e-05 0.00460432 -1.66961e-18 0.00460432)
(0.00460432 -0.00213482 -3.95426e-05 0.00460432 2.06463e-18 0.00460432)
(0.00463169 -0.00214621 -4.03369e-05 0.00463169 -1.74345e-18 0.00463169)
(0.00463169 -0.00214621 -4.03369e-05 0.00463169 2.11211e-18 0.00463169)
(0.00465804 -0.00215714 -4.11374e-05 0.00465804 -1.80555e-18 0.00465804)
(0.00465804 -0.00215714 -4.11374e-05 0.00465804 2.15427e-18 0.00465804)
(0.00468339 -0.00216765 -4.19442e-05 0.00468339 -1.33872e-18 0.00468339)
(0.00468339 -0.00216765 -4.19442e-05 0.00468339 2.20572e-18 0.00468339)
(0.0047078 -0.00217774 -4.27577e-05 0.0047078 8.74535e-20 0.0047078)
(0.0047078 -0.00217774 -4.27577e-05 0.0047078 2.25973e-18 0.0047078)
(0.00473129 -0.00218744 -4.3578e-05 0.00473129 5.43312e-18 0.00473129)
(0.00473129 -0.00218744 -4.3578e-05 0.00473129 2.31972e-18 0.00473129)
(0.0047539 -0.00219677 -4.44055e-05 0.0047539 5.50907e-18 0.0047539)
(0.0047539 -0.00219677 -4.44055e-05 0.0047539 2.36887e-18 0.0047539)
(0.00477567 -0.00220573 -4.52403e-05 0.00477567 5.61139e-18 0.00477567)
(0.00477567 -0.00220573 -4.52403e-05 0.00477567 2.41874e-18 0.00477567)
(0.00479662 -0.00221435 -4.60827e-05 0.00479662 5.69015e-18 0.00479662)
(0.00479662 -0.00221435 -4.60827e-05 0.00479662 2.47272e-18 0.00479662)
(0.00481679 -0.00222264 -4.6933e-05 0.00481679 5.79435e-18 0.00481679)
(0.00481679 -0.00222264 -4.6933e-05 0.00481679 2.53501e-18 0.00481679)
(0.0048362 -0.0022306 -4.77913e-05 0.0048362 5.88432e-18 0.0048362)
(0.0048362 -0.0022306 -4.77913e-05 0.0048362 2.60962e-18 0.0048362)
(0.00485489 -0.00223826 -4.86579e-05 0.00485489 5.95773e-18 0.00485489)
(0.00485489 -0.00223826 -4.86579e-05 0.00485489 2.67072e-18 0.00485489)
(0.00487287 -0.00224562 -4.9533e-05 0.00487287 6.08687e-18 0.00487287)
(0.00487287 -0.00224562 -4.9533e-05 0.00487287 2.74117e-18 0.00487287)
(0.00489017 -0.0022527 -5.04168e-05 0.00489017 6.20049e-18 0.00489017)
(0.00489017 -0.0022527 -5.04168e-05 0.00489017 2.84517e-18 0.00489017)
(0.00490682 -0.00225951 -5.13096e-05 0.00490682 6.31846e-18 0.00490682)
(0.00490682 -0.00225951 -5.13096e-05 0.00490682 2.93484e-18 0.00490682)
(0.00492283 -0.00226605 -5.22115e-05 0.00492283 6.4347e-18 0.00492283)
(0.00492283 -0.00226605 -5.22115e-05 0.00492283 2.98102e-18 0.00492283)
(0.00493823 -0.00227234 -5.31227e-05 0.00493823 6.48332e-18 0.00493823)
(0.00493823 -0.00227234 -5.31227e-05 0.00493823 3.03662e-18 0.00493823)
(0.00495304 -0.00227838 -5.40435e-05 0.00495304 6.56211e-18 0.00495304)
(0.00495304 -0.00227838 -5.40435e-05 0.00495304 3.09464e-18 0.00495304)
(0.00496728 -0.00228419 -5.49741e-05 0.00496728 6.69401e-18 0.00496728)
(0.00496728 -0.00228419 -5.49741e-05 0.00496728 3.15251e-18 0.00496728)
(0.00498097 -0.00228977 -5.59147e-05 0.00498097 6.8155e-18 0.00498097)
(0.00498097 -0.00228977 -5.59147e-05 0.00498097 3.19394e-18 0.00498097)
(0.00499412 -0.00229513 -5.68654e-05 0.00499412 6.90706e-18 0.00499412)
(0.00499412 -0.00229513 -5.68654e-05 0.00499412 3.23966e-18 0.00499412)
(0.00500675 -0.00230027 -5.78265e-05 0.00500675 6.96089e-18 0.00500675)
(0.00500675 -0.00230027 -5.78265e-05 0.00500675 3.30267e-18 0.00500675)
(0.00501888 -0.00230521 -5.87981e-05 0.00501888 7.08792e-18 0.00501888)
(0.00501888 -0.00230521 -5.87981e-05 0.00501888 3.34576e-18 0.00501888)
(0.00503051 -0.00230995 -5.97805e-05 0.00503051 7.20299e-18 0.00503051)
(0.00503051 -0.00230995 -5.97805e-05 0.00503051 3.41492e-18 0.00503051)
(0.00504168 -0.00231449 -6.07738e-05 0.00504168 7.3015e-18 0.00504168)
(0.00504168 -0.00231449 -6.07738e-05 0.00504168 3.49723e-18 0.00504168)
(0.00505238 -0.00231884 -6.17783e-05 0.00505238 7.43706e-18 0.00505238)
(0.00505238 -0.00231884 -6.17783e-05 0.00505238 3.60389e-18 0.00505238)
(0.00506263 -0.00232301 -6.27941e-05 0.00506263 7.51579e-18 0.00506263)
(0.00506263 -0.00232301 -6.27941e-05 0.00506263 3.70179e-18 0.00506263)
(0.00507245 -0.00232701 -6.38214e-05 0.00507245 7.60204e-18 0.00507245)
(0.00507245 -0.00232701 -6.38214e-05 0.00507245 3.7749e-18 0.00507245)
(0.00508185 -0.00233083 -6.48604e-05 0.00508185 7.74207e-18 0.00508185)
(0.00508185 -0.00233083 -6.48604e-05 0.00508185 3.92294e-18 0.00508185)
(0.00509083 -0.00233448 -6.59113e-05 0.00509083 7.85866e-18 0.00509083)
(0.00509083 -0.00233448 -6.59113e-05 0.00509083 4.07149e-18 0.00509083)
(0.00509941 -0.00233797 -6.69742e-05 0.00509941 7.97209e-18 0.00509941)
(0.00509941 -0.00233797 -6.69742e-05 0.00509941 4.17516e-18 0.00509941)
(0.0051076 -0.00234129 -6.80495e-05 0.0051076 8.12638e-18 0.0051076)
(0.0051076 -0.00234129 -6.80495e-05 0.0051076 4.27512e-18 0.0051076)
(0.00511541 -0.00234447 -6.91371e-05 0.00511541 8.24235e-18 0.00511541)
(0.00511541 -0.00234447 -6.91371e-05 0.00511541 4.33344e-18 0.00511541)
(0.00512285 -0.00234749 -7.02374e-05 0.00512285 8.35845e-18 0.00512285)
(0.00512285 -0.00234749 -7.02374e-05 0.00512285 4.42029e-18 0.00512285)
(0.00512992 -0.00235036 -7.13504e-05 0.00512992 8.51147e-18 0.00512992)
(0.00512992 -0.00235036 -7.13504e-05 0.00512992 4.49333e-18 0.00512992)
(0.00513664 -0.00235309 -7.24765e-05 0.00513664 8.69041e-18 0.00513664)
(0.00513664 -0.00235309 -7.24765e-05 0.00513664 4.51529e-18 0.00513664)
(0.00514301 -0.00235568 -7.36157e-05 0.00514301 8.8415e-18 0.00514301)
(0.00514301 -0.00235568 -7.36157e-05 0.00514301 4.57346e-18 0.00514301)
(0.00514905 -0.00235813 -7.47682e-05 0.00514905 8.96921e-18 0.00514905)
(0.00514905 -0.00235813 -7.47682e-05 0.00514905 4.63474e-18 0.00514905)
(0.00515475 -0.00236044 -7.59343e-05 0.00515475 9.19006e-18 0.00515475)
(0.00515475 -0.00236044 -7.59343e-05 0.00515475 4.70526e-18 0.00515475)
(0.00516013 -0.00236262 -7.7114e-05 0.00516013 9.30219e-18 0.00516013)
(0.00516013 -0.00236262 -7.7114e-05 0.00516013 4.74201e-18 0.00516013)
(0.00516518 -0.00236467 -7.83076e-05 0.00516518 9.37243e-18 0.00516518)
(0.00516518 -0.00236467 -7.83076e-05 0.00516518 4.72096e-18 0.00516518)
(0.00516993 -0.0023666 -7.95152e-05 0.00516993 9.56784e-18 0.00516993)
(0.00516993 -0.0023666 -7.95152e-05 0.00516993 4.65919e-18 0.00516993)
(0.00517437 -0.0023684 -8.0737e-05 0.00517437 9.81461e-18 0.00517437)
(0.00517437 -0.0023684 -8.0737e-05 0.00517437 4.58801e-18 0.00517437)
(0.00517851 -0.00237007 -8.19733e-05 0.00517851 9.93604e-18 0.00517851)
(0.00517851 -0.00237007 -8.19733e-05 0.00517851 4.51083e-18 0.00517851)
(0.00518236 -0.00237163 -8.3224e-05 0.00518236 1.00542e-17 0.00518236)
(0.00518236 -0.00237163 -8.3224e-05 0.00518236 4.52359e-18 0.00518236)
(0.00518591 -0.00237306 -8.44895e-05 0.00518591 1.02385e-17 0.00518591)
(0.00518591 -0.00237306 -8.44895e-05 0.00518591 4.64281e-18 0.00518591)
(0.00518919 -0.00237438 -8.57699e-05 0.00518919 1.0382e-17 0.00518919)
(0.00518919 -0.00237438 -8.57699e-05 0.00518919 4.64072e-18 0.00518919)
(0.00519218 -0.00237559 -8.70654e-05 0.00519218 1.04262e-17 0.00519218)
(0.00519218 -0.00237559 -8.70654e-05 0.00519218 4.65507e-18 0.00519218)
(0.0051949 -0.00237668 -8.83761e-05 0.0051949 1.0569e-17 0.0051949)
(0.0051949 -0.00237668 -8.83761e-05 0.0051949 4.74691e-18 0.0051949)
(0.00519734 -0.00237765 -8.97022e-05 0.00519734 1.07301e-17 0.00519734)
(0.00519734 -0.00237765 -8.97022e-05 0.00519734 4.83863e-18 0.00519734)
(0.00519952 -0.00237852 -9.10438e-05 0.00519952 1.08365e-17 0.00519952)
(0.00519952 -0.00237852 -9.10438e-05 0.00519952 4.91833e-18 0.00519952)
(0.00520144 -0.00237928 -9.24012e-05 0.00520144 1.11195e-17 0.00520144)
(0.00520144 -0.00237928 -9.24012e-05 0.00520144 5.06127e-18 0.00520144)
(0.0052031 -0.00237993 -9.37745e-05 0.0052031 1.11281e-17 0.0052031)
(0.0052031 -0.00237993 -9.37745e-05 0.0052031 5.2539e-18 0.0052031)
(0.0052045 -0.00238048 -9.51639e-05 0.0052045 1.11326e-17 0.0052045)
(0.0052045 -0.00238048 -9.51639e-05 0.0052045 5.34832e-18 0.0052045)
(0.00520565 -0.00238091 -9.65694e-05 0.00520565 1.13051e-17 0.00520565)
(0.00520565 -0.00238091 -9.65694e-05 0.00520565 5.40883e-18 0.00520565)
(0.00520655 -0.00238125 -9.79914e-05 0.00520655 1.13032e-17 0.00520655)
(0.00520655 -0.00238125 -9.79914e-05 0.00520655 5.41077e-18 0.00520655)
(0.0052072 -0.00238148 -9.94299e-05 0.0052072 1.13805e-17 0.0052072)
(0.0052072 -0.00238148 -9.94299e-05 0.0052072 5.39008e-18 0.0052072)
(0.00520761 -0.00238161 -0.000100885 0.00520761 1.17703e-17 0.00520761)
(0.00520761 -0.00238161 -0.000100885 0.00520761 5.41979e-18 0.00520761)
(0.00520778 -0.00238164 -0.000102357 0.00520778 1.18306e-17 0.00520778)
(0.00520778 -0.00238164 -0.000102357 0.00520778 5.57176e-18 0.00520778)
(0.00520771 -0.00238157 -0.000103846 0.00520771 1.17553e-17 0.00520771)
(0.00520771 -0.00238157 -0.000103846 0.00520771 5.73225e-18 0.00520771)
(0.00520741 -0.00238139 -0.000105352 0.00520741 1.00989e-17 0.00520741)
(0.00520741 -0.00238139 -0.000105352 0.00520741 5.85467e-18 0.00520741)
(0.00520687 -0.00238112 -0.000106876 0.00520687 6.34432e-19 0.00520687)
(0.00520687 -0.00238112 -0.000106876 0.00520687 6.12431e-18 0.00520687)
(0.0052061 -0.00238075 -0.000108417 0.0052061 -2.39423e-18 0.0052061)
(0.0052061 -0.00238075 -0.000108417 0.0052061 6.30969e-18 0.0052061)
(0.0052051 -0.00238028 -0.000109976 0.0052051 -2.38811e-18 0.0052051)
(0.0052051 -0.00238028 -0.000109976 0.0052051 6.35684e-18 0.0052051)
(0.00520387 -0.00237972 -0.000111552 0.00520387 -2.31399e-18 0.00520387)
(0.00520387 -0.00237972 -0.000111552 0.00520387 6.54093e-18 0.00520387)
(0.00520242 -0.00237906 -0.000113146 0.00520242 -2.26201e-18 0.00520242)
(0.00520242 -0.00237906 -0.000113146 0.00520242 6.7915e-18 0.00520242)
(0.00520074 -0.0023783 -0.000114759 0.00520074 -2.25404e-18 0.00520074)
(0.00520074 -0.0023783 -0.000114759 0.00520074 6.97577e-18 0.00520074)
(0.00519884 -0.00237744 -0.000116389 0.00519884 -2.13472e-18 0.00519884)
(0.00519884 -0.00237744 -0.000116389 0.00519884 6.99152e-18 0.00519884)
(0.00519671 -0.00237649 -0.000118038 0.00519671 -2.16094e-18 0.00519671)
(0.00519671 -0.00237649 -0.000118038 0.00519671 6.91316e-18 0.00519671)
(0.00519437 -0.00237545 -0.000119705 0.00519437 -2.34086e-18 0.00519437)
(0.00519437 -0.00237545 -0.000119705 0.00519437 6.85701e-18 0.00519437)
(0.00519181 -0.00237431 -0.000121391 0.00519181 -2.81749e-18 0.00519181)
(0.00519181 -0.00237431 -0.000121391 0.00519181 6.99325e-18 0.00519181)
(0.00518903 -0.00237307 -0.000123096 0.00518903 -3.2231e-18 0.00518903)
(0.00518903 -0.00237307 -0.000123096 0.00518903 7.47303e-18 0.00518903)
(0.00518603 -0.00237174 -0.000124819 0.00518603 -3.54218e-18 0.00518603)
(0.00518603 -0.00237174 -0.000124819 0.00518603 7.85745e-18 0.00518603)
(0.00518282 -0.00237032 -0.000126562 0.00518282 -4.14031e-18 0.00518282)
(0.00518282 -0.00237032 -0.000126562 0.00518282 8.27957e-18 0.00518282)
(0.0051794 -0.0023688 -0.000128323 0.0051794 -4.69061e-18 0.0051794)
(0.0051794 -0.0023688 -0.000128323 0.0051794 8.84559e-18 0.0051794)
(0.00517576 -0.00236719 -0.000130104 0.00517576 -5.68489e-18 0.00517576)
(0.00517576 -0.00236719 -0.000130104 0.00517576 8.98825e-18 0.00517576)
(0.0051719 -0.00236548 -0.000131904 0.0051719 -6.87091e-18 0.0051719)
(0.0051719 -0.00236548 -0.000131904 0.0051719 9.1474e-18 0.0051719)
(0.00516784 -0.00236368 -0.000133724 0.00516784 -6.68057e-18 0.00516784)
(0.00516784 -0.00236368 -0.000133724 0.00516784 9.54965e-18 0.00516784)
(0.00516356 -0.00236179 -0.000135563 0.00516356 -6.06842e-18 0.00516356)
(0.00516356 -0.00236179 -0.000135563 0.00516356 9.6092e-18 0.00516356)
(0.00515907 -0.0023598 -0.000137422 0.00515907 -6.09347e-18 0.00515907)
(0.00515907 -0.0023598 -0.000137422 0.00515907 9.43646e-18 0.00515907)
(0.00515437 -0.00235771 -0.0001393 0.00515437 -5.88427e-18 0.00515437)
(0.00515437 -0.00235771 -0.0001393 0.00515437 9.29774e-18 0.00515437)
(0.00514945 -0.00235554 -0.000141198 0.00514945 -6.13258e-18 0.00514945)
(0.00514945 -0.00235554 -0.000141198 0.00514945 9.25464e-18 0.00514945)
(0.00514433 -0.00235326 -0.000143116 0.00514433 -6.04717e-18 0.00514433)
(0.00514433 -0.00235326 -0.000143116 0.00514433 9.61653e-18 0.00514433)
(0.005139 -0.00235089 -0.000145055 0.005139 -5.77227e-18 0.005139)
(0.005139 -0.00235089 -0.000145055 0.005139 1.01453e-17 0.005139)
(0.00513345 -0.00234843 -0.000147013 0.00513345 -6.21983e-18 0.00513345)
(0.00513345 -0.00234843 -0.000147013 0.00513345 1.06532e-17 0.00513345)
(0.0051277 -0.00234587 -0.000148991 0.0051277 -6.35356e-18 0.0051277)
(0.0051277 -0.00234587 -0.000148991 0.0051277 1.07108e-17 0.0051277)
(0.00512174 -0.00234322 -0.00015099 0.00512174 -5.8108e-18 0.00512174)
(0.00512174 -0.00234322 -0.00015099 0.00512174 1.04816e-17 0.00512174)
(0.00511556 -0.00234047 -0.000153009 0.00511556 -5.87082e-18 0.00511556)
(0.00511556 -0.00234047 -0.000153009 0.00511556 1.08903e-17 0.00511556)
(0.00510917 -0.00233763 -0.000155048 0.00510917 -6.97343e-18 0.00510917)
(0.00510917 -0.00233763 -0.000155048 0.00510917 1.06627e-17 0.00510917)
(0.00510258 -0.00233468 -0.000157108 0.00510258 -7.111e-18 0.00510258)
(0.00510258 -0.00233468 -0.000157108 0.00510258 1.00355e-17 0.00510258)
(0.00509577 -0.00233165 -0.000159188 0.00509577 -6.11238e-18 0.00509577)
(0.00509577 -0.00233165 -0.000159188 0.00509577 1.00078e-17 0.00509577)
(0.00508875 -0.00232851 -0.000161288 0.00508875 -5.11707e-18 0.00508875)
(0.00508875 -0.00232851 -0.000161288 0.00508875 1.04897e-17 0.00508875)
(0.00508152 -0.00232528 -0.000163409 0.00508152 -5.00137e-18 0.00508152)
(0.00508152 -0.00232528 -0.000163409 0.00508152 1.1358e-17 0.00508152)
(0.00507408 -0.00232194 -0.00016555 0.00507408 -4.67875e-18 0.00507408)
(0.00507408 -0.00232194 -0.00016555 0.00507408 1.13645e-17 0.00507408)
(0.00506643 -0.00231851 -0.000167712 0.00506643 -4.13931e-18 0.00506643)
(0.00506643 -0.00231851 -0.000167712 0.00506643 1.14879e-17 0.00506643)
(0.00505856 -0.00231498 -0.000169895 0.00505856 -4.60265e-18 0.00505856)
(0.00505856 -0.00231498 -0.000169895 0.00505856 1.31146e-17 0.00505856)
(0.00505048 -0.00231135 -0.000172098 0.00505048 -4.7756e-18 0.00505048)
(0.00505048 -0.00231135 -0.000172098 0.00505048 1.3433e-17 0.00505048)
(0.00504219 -0.00230762 -0.000174321 0.00504219 -4.83185e-18 0.00504219)
(0.00504219 -0.00230762 -0.000174321 0.00504219 1.25578e-17 0.00504219)
(0.00503368 -0.00230379 -0.000176565 0.00503368 -4.63779e-18 0.00503368)
(0.00503368 -0.00230379 -0.000176565 0.00503368 1.3195e-17 0.00503368)
(0.00502495 -0.00229986 -0.00017883 0.00502495 -4.32985e-18 0.00502495)
(0.00502495 -0.00229986 -0.00017883 0.00502495 1.42999e-17 0.00502495)
(0.00501601 -0.00229583 -0.000181114 0.00501601 -4.68063e-18 0.00501601)
(0.00501601 -0.00229583 -0.000181114 0.00501601 1.47581e-17 0.00501601)
(0.00500685 -0.00229169 -0.000183419 0.00500685 -4.20686e-18 0.00500685)
(0.00500685 -0.00229169 -0.000183419 0.00500685 1.47099e-17 0.00500685)
(0.00499748 -0.00228745 -0.000185745 0.00499748 -4.3204e-18 0.00499748)
(0.00499748 -0.00228745 -0.000185745 0.00499748 1.5052e-17 0.00499748)
(0.00498788 -0.00228311 -0.00018809 0.00498788 -4.34272e-18 0.00498788)
(0.00498788 -0.00228311 -0.00018809 0.00498788 1.64455e-17 0.00498788)
(0.00497807 -0.00227866 -0.000190456 0.00497807 -2.6263e-18 0.00497807)
(0.00497807 -0.00227866 -0.000190456 0.00497807 1.82214e-17 0.00497807)
(0.00496804 -0.00227411 -0.000192841 0.00496804 -1.72962e-18 0.00496804)
(0.00496804 -0.00227411 -0.000192841 0.00496804 1.92022e-17 0.00496804)
(0.00495778 -0.00226945 -0.000195247 0.00495778 -1.79779e-18 0.00495778)
(0.00495778 -0.00226945 -0.000195247 0.00495778 1.86292e-17 0.00495778)
(0.0049473 -0.00226468 -0.000197672 0.0049473 -1.97281e-18 0.0049473)
(0.0049473 -0.00226468 -0.000197672 0.0049473 1.86454e-17 0.0049473)
(0.0049366 -0.00225981 -0.000200117 0.0049366 -2.074e-18 0.0049366)
(0.0049366 -0.00225981 -0.000200117 0.0049366 1.9587e-17 0.0049366)
(0.00492567 -0.00225483 -0.000202581 0.00492567 -1.45787e-18 0.00492567)
(0.00492567 -0.00225483 -0.000202581 0.00492567 1.9987e-17 0.00492567)
(0.00491451 -0.00224973 -0.000205065 0.00491451 -1.50465e-18 0.00491451)
(0.00491451 -0.00224973 -0.000205065 0.00491451 2.0524e-17 0.00491451)
(0.00490313 -0.00224453 -0.000207568 0.00490313 -1.49106e-18 0.00490313)
(0.00490313 -0.00224453 -0.000207568 0.00490313 2.08249e-17 0.00490313)
(0.00489152 -0.00223922 -0.000210089 0.00489152 -1.91648e-18 0.00489152)
(0.00489152 -0.00223922 -0.000210089 0.00489152 2.24563e-17 0.00489152)
(0.00487968 -0.00223379 -0.000212629 0.00487968 -1.83377e-18 0.00487968)
(0.00487968 -0.00223379 -0.000212629 0.00487968 2.39696e-17 0.00487968)
(0.00486761 -0.00222825 -0.000215188 0.00486761 5.98181e-20 0.00486761)
(0.00486761 -0.00222825 -0.000215188 0.00486761 2.25347e-17 0.00486761)
(0.0048553 -0.0022226 -0.000217765 0.0048553 -5.53745e-19 0.0048553)
(0.0048553 -0.0022226 -0.000217765 0.0048553 2.17567e-17 0.0048553)
(0.00484276 -0.00221683 -0.000220359 0.00484276 -1.14373e-18 0.00484276)
(0.00484276 -0.00221683 -0.000220359 0.00484276 2.32507e-17 0.00484276)
(0.00482998 -0.00221094 -0.000222972 0.00482998 -8.33e-19 0.00482998)
(0.00482998 -0.00221094 -0.000222972 0.00482998 2.3444e-17 0.00482998)
(0.00481697 -0.00220494 -0.000225601 0.00481697 -6.32944e-19 0.00481697)
(0.00481697 -0.00220494 -0.000225601 0.00481697 2.25193e-17 0.00481697)
(0.00480372 -0.00219882 -0.000228248 0.00480372 1.94147e-18 0.00480372)