/*--------------------------------*- C++ -*----------------------------------*\
| =========                 |                                                 |
| \\      /  F ield         | OpenFOAM: The Open Source CFD Toolbox           |
|  \\    /   O peration     | Version:  2106                                  |
|   \\  /    A nd           | Website:  www.openfoam.com                      |
|    \\/     M anipulation  |                                                 |
\*---------------------------------------------------------------------------*/
FoamFile
{
    version     2.0;
    format      ascii;
    arch        "LSB;label=32;scalar=64";
    class       volTensorField;
    location    "16000";
    object      grad(U);
}
// * * * * * * * * * * * * * * * * * * * * * * * * * * * * * * * * * * * * * //

dimensions      [0 0 -1 0 0 0 0];

internalField   nonuniform List<tensor> 
2560
(
(0 1.03945e-30 1.94897e-31 49.2806 -3.19874e-12 -5.74253e-13 0.0713402 -2.31356e-15 -1.95082e-16)
(0 -7.26045e-28 -2.85219e-27 49.2806 0 -4.88307e-14 0.0713402 -1.81511e-28 6.52577e-18)
(0 -5.68447e-25 -2.87385e-26 49.2733 8.07823e-28 -7.80807e-14 0.215037 -3.15544e-30 -2.29334e-16)
(0 -4.09822e-30 -2.56139e-31 49.2733 -7.61478e-15 -5.54754e-14 0.215037 -1.45933e-17 -8.85981e-17)
(-9.03134e-18 0 -4.03913e-31 49.266 2.6756e-12 -3.84163e-14 0.295723 -1.97618e-14 -2.2856e-16)
(0 4.03948e-30 7.57402e-31 49.266 -7.31488e-15 -3.47665e-15 0.295723 -2.5895e-17 -9.12063e-17)
(2.89608e-17 -1.0284e-29 -3.54883e-31 49.2586 2.44709e-13 -3.84161e-14 0.299978 -2.43559e-15 -2.3605e-16)
(0 7.96317e-30 2.48849e-31 49.2586 -8.37961e-15 -3.53414e-15 0.299978 -4.10962e-17 -9.38401e-17)
(1.38082e-16 -1.56981e-29 -7.35847e-31 49.251 3.43635e-14 -3.91134e-14 0.304293 -5.09708e-16 -2.43872e-16)
(0 1.17736e-29 7.35847e-31 49.251 -8.53744e-15 -3.59464e-15 0.304293 -5.6853e-17 -9.64983e-17)
(6.96845e-17 -4.72308e-28 -6.00201e-31 49.2433 0 -3.97744e-14 0.308669 0 -2.51252e-16)
(5.57476e-16 7.73654e-30 4.83534e-31 49.2433 -8.61206e-15 -3.65559e-15 0.308669 -7.32151e-17 -9.91888e-17)
(-9.04871e-17 -1.54062e-28 -3.54317e-31 49.2353 8.92088e-15 -4.03971e-14 0.313105 -2.81632e-17 -2.58937e-16)
(3.61948e-16 1.14385e-29 4.76603e-31 49.2353 -8.61312e-15 -3.71484e-15 0.313105 -8.99869e-17 -1.019e-16)
(-2.43818e-16 6.38321e-30 8.32719e-31 49.2267 1.9541e-14 -4.10504e-14 0.3176 -1.28036e-16 -2.67043e-16)
(4.46357e-16 0 -2.34886e-31 49.2267 -8.66644e-15 -3.77489e-15 0.3176 -1.06783e-16 -1.04629e-16)
(3.93663e-16 -1.37355e-29 -3.65548e-31 49.2172 1.76211e-14 -4.17272e-14 0.322152 -1.22274e-16 -2.75382e-16)
(0 1.11129e-29 4.63039e-31 49.2172 -8.74774e-15 -3.8357e-15 0.322152 -1.24595e-16 -1.07374e-16)
(-2.56932e-16 7.30244e-30 9.12806e-31 49.2063 1.60688e-14 -4.24027e-14 0.326758 -1.0665e-16 -2.83839e-16)
(0 -3.65122e-30 -4.56403e-31 49.2063 -8.89731e-15 -3.89854e-15 0.326758 -1.42467e-16 -1.10139e-16)
(-1.76737e-16 -1.17758e-29 -7.53089e-31 49.1932 1.60105e-14 -4.30623e-14 0.331413 -1.05237e-16 -2.92337e-16)
(0 1.43956e-29 8.99723e-31 49.1932 -9.12729e-15 -3.9585e-15 0.331413 -1.60827e-16 -1.12922e-16)
(4.48702e-16 -1.68058e-29 -2.37037e-30 49.1768 1.63726e-14 -4.36951e-14 0.336107 -1.08989e-16 -3.00805e-16)
(0 1.06419e-29 1.77365e-30 49.1768 -9.22392e-15 -4.01438e-15 0.336107 -1.80303e-16 -1.1571e-16)
(0 -3.49647e-30 -4.37058e-31 49.1559 1.66745e-14 -4.42891e-14 0.340831 -1.1327e-16 -3.0914e-16)
(0 3.49647e-30 4.37058e-31 49.1559 -9.28993e-15 -4.06893e-15 0.340831 -2.00233e-16 -1.18508e-16)
(-2.44741e-16 1.63953e-29 1.029e-30 49.1287 1.68894e-14 -4.48295e-14 0.345569 -1.16369e-16 -3.17222e-16)
(7.36449e-16 -1.03391e-29 -4.30794e-31 49.1287 -9.46145e-15 -4.11863e-15 0.345569 -2.21004e-16 -1.21312e-16)
(0 1.69848e-29 2.1231e-30 49.0928 1.70347e-14 -4.52985e-14 0.350303 -1.19612e-16 -3.2489e-16)
(0 -1.69848e-29 -2.1231e-30 49.0928 -9.54931e-15 -4.16282e-15 0.350303 -2.42504e-16 -1.2411e-16)
(-2.91717e-16 2.6031e-30 1.82699e-31 49.0455 1.7399e-14 -4.56741e-14 0.355007 -1.21853e-16 -3.31956e-16)
(1.16687e-15 0 0 49.0455 -9.71898e-15 -4.19111e-15 0.355007 -2.64166e-16 -1.26902e-16)
(0 9.90085e-30 2.06268e-30 48.9834 1.79869e-14 -4.59315e-14 0.359651 -1.28393e-16 -3.3819e-16)
(-1.26283e-15 -9.90085e-30 -2.06268e-30 48.9834 -1.0107e-14 -4.20503e-15 0.359651 -2.85669e-16 -1.2962e-16)
(-9.15633e-16 9.75894e-30 1.62649e-30 48.9024 1.8158e-14 -4.60412e-14 0.364199 -1.34061e-16 -3.43315e-16)
(-4.44491e-16 -9.75894e-30 -1.62649e-30 48.9024 -1.01033e-14 -4.21186e-15 0.364199 -3.08951e-16 -1.32279e-16)
(9.02509e-16 -6.41271e-30 -8.01589e-31 48.7979 1.81663e-14 -4.59724e-14 0.368606 -1.34705e-16 -3.47056e-16)
(-4.51255e-16 6.41271e-30 8.01589e-31 48.7979 -1.00694e-14 -4.20002e-15 0.368606 -3.32126e-16 -1.3487e-16)
(3.89683e-16 6.89334e-30 9.67825e-31 48.6645 1.84139e-14 -4.56923e-14 0.372821 -1.38114e-16 -3.49074e-16)
(-1.55873e-15 -1.5802e-29 -1.5802e-30 48.6645 -1.03373e-14 -4.16632e-15 0.372821 -3.56195e-16 -1.37373e-16)
(-4.38412e-16 1.24604e-29 1.16816e-30 48.4964 1.87157e-14 -4.51668e-14 0.376786 -1.42451e-16 -3.49041e-16)
(4.38412e-16 -1.24604e-29 -1.16816e-30 48.4964 -1.04348e-14 -4.10929e-15 0.376786 -3.82146e-16 -1.39769e-16)
(-4.4064e-16 -3.56162e-30 -1.46977e-31 48.2872 1.8801e-14 -4.43677e-14 0.380438 -1.46858e-16 -3.46678e-16)
(0 9.21137e-30 1.15142e-30 48.2872 -1.06402e-14 -4.02192e-15 0.380438 -4.08253e-16 -1.42037e-16)
(-4.06499e-17 -2.46626e-29 -3.53597e-30 48.0303 1.89994e-14 -4.32728e-14 0.383707 -1.47971e-16 -3.4172e-16)
(0 2.42116e-29 3.40476e-30 48.0303 -1.10414e-14 -3.90566e-15 0.383707 -4.3574e-16 -1.44112e-16)
(0 1.19323e-29 1.49154e-30 47.7192 1.96739e-14 -4.18627e-14 0.386524 -1.5434e-16 -3.33909e-16)
(-1.97128e-15 -1.49154e-29 -2.61019e-30 47.7192 -1.12359e-14 -3.75963e-15 0.386524 -4.65353e-16 -1.45961e-16)
(5.19321e-16 1.80167e-29 1.20168e-30 47.3475 1.97607e-14 -4.01298e-14 0.388817 -1.63271e-16 -3.23146e-16)
(0 -2.05822e-29 -1.47016e-30 47.3475 -1.1124e-14 -3.58692e-15 0.388817 -4.9356e-16 -1.47549e-16)
(-1.09213e-15 2.54113e-29 4.18168e-30 46.9097 1.93689e-14 -3.808e-14 0.39052 -1.60292e-16 -3.09389e-16)
(0 -2.02872e-29 -3.62272e-30 46.9097 -1.06905e-14 -3.38371e-15 0.39052 -5.21442e-16 -1.4889e-16)
(2.52312e-15 -3.33838e-29 -5.15664e-30 46.401 1.9684e-14 -3.57334e-14 0.391571 -1.61497e-16 -2.92772e-16)
(3.78006e-15 2.57097e-29 4.28496e-30 46.401 -1.02832e-14 -3.15284e-15 0.391571 -5.51183e-16 -1.49941e-16)
(-7.92548e-16 -1.40785e-29 -2.81569e-30 45.8183 2.05262e-14 -3.3122e-14 0.391923 -1.70338e-16 -2.73473e-16)
(2.40055e-15 1.40785e-29 2.81569e-30 45.8183 -1.04257e-14 -2.88551e-15 0.391923 -5.81052e-16 -1.50701e-16)
(-1.53801e-16 5.77927e-30 1.07512e-30 45.1599 2.09899e-14 -3.029e-14 0.391536 -1.80734e-16 -2.5186e-16)
(0 -5.55068e-30 0 45.1599 -1.07458e-14 -2.58387e-15 0.391536 -6.113e-16 -1.50994e-16)
(-1.30943e-15 5.08374e-30 6.46413e-31 44.426 2.08731e-14 -2.72977e-14 0.390392 -1.83431e-16 -2.28435e-16)
(-5.23771e-15 0 0 44.426 -1.05509e-14 -2.27556e-15 0.390392 -6.4398e-16 -1.50801e-16)
(-6.82068e-16 1.06263e-29 2.35574e-30 43.6187 2.08754e-14 -2.42109e-14 0.388485 -1.83957e-16 -2.03715e-16)
(-4.24618e-15 -2.69635e-30 -6.74088e-31 43.6187 -1.03591e-14 -1.99572e-15 0.388485 -6.76072e-16 -1.50228e-16)
(0 1.59462e-29 3.98656e-30 42.7421 2.10358e-14 -2.10998e-14 0.38583 -1.88846e-16 -1.78356e-16)
(-2.83757e-15 -1.59462e-29 -3.98656e-30 42.7421 -1.08288e-14 -1.72129e-15 0.38583 -7.06607e-16 -1.49523e-16)
(7.37356e-16 -1.57177e-29 -2.61962e-30 41.8018 2.09044e-14 -1.80346e-14 0.382458 -1.92273e-16 -1.52935e-16)
(2.20918e-15 1.57177e-29 2.61962e-30 41.8018 -1.11022e-14 -1.42359e-15 0.382458 -7.40121e-16 -1.48402e-16)
(-7.63733e-16 2.52191e-30 3.60796e-31 40.8053 2.08605e-14 -1.50764e-14 0.378415 -1.91945e-16 -1.28018e-16)
(0 5.16414e-30 6.45518e-31 40.8053 -1.11201e-14 -1.13904e-15 0.378415 -7.76381e-16 -1.46824e-16)
(-2.22338e-15 1.26963e-29 2.91353e-30 39.7607 2.07678e-14 -1.22811e-14 0.373757 -1.9708e-16 -1.04147e-16)
(1.43274e-15 -1.01803e-29 -2.54506e-30 39.7607 -1.13394e-14 -8.59187e-16 0.373757 -8.10562e-16 -1.44826e-16)
(-1.5234e-15 1.25457e-29 2.25677e-30 38.6774 2.0023e-14 -9.69779e-15 0.368554 -1.95803e-16 -8.18253e-17)
(-3.26917e-15 -5.01717e-30 -6.27146e-31 38.6774 -1.06203e-14 -6.12896e-16 0.368554 -8.43931e-16 -1.42348e-16)
(8.43655e-16 -9.9259e-30 -2.23585e-30 37.5645 1.91486e-14 -7.36194e-15 0.362879 -1.88453e-16 -6.13823e-17)
(0 7.41789e-30 1.85447e-30 37.5645 -8.96321e-15 -4.01409e-16 0.362879 -8.72849e-16 -1.39621e-16)
(2.24169e-15 -1.46901e-29 -2.82382e-30 36.4317 1.91048e-14 -5.29165e-15 0.356808 -1.84389e-16 -4.3025e-17)
(-1.37202e-15 1.2186e-29 2.43719e-30 36.4317 -8.45354e-15 -2.12455e-16 0.356808 -9.00551e-16 -1.36464e-16)
(-8.95322e-16 1.2107e-29 2.19282e-30 35.2879 1.92642e-14 -3.49129e-15 0.350417 -1.93102e-16 -2.68337e-17)
(0 -4.80452e-30 -1.20113e-30 35.2879 -8.78454e-15 -6.89784e-17 0.350417 -9.32527e-16 -1.33064e-16)
(0 7.10349e-30 1.18391e-30 34.1416 1.85298e-14 -1.96339e-15 0.343781 -1.93007e-16 -1.29905e-17)
(0 -1.18391e-29 -1.77587e-30 34.1416 -8.49606e-15 5.24489e-17 0.343781 -9.61658e-16 -1.2952e-16)
(-9.45358e-16 7.15746e-30 -2.20803e-29 33.0004 1.76796e-14 -2.59195e-16 0.336969 -1.83716e-16 -1.3368e-18)
(3.78143e-15 0 0 33.0004 -7.49922e-15 1.56325e-16 0.336969 -9.88441e-16 -1.25786e-16)
(0 -1.15022e-29 -2.8026e-45 31.8712 1.73e-14 0 0.330044 -1.80995e-16 0)
(3.87881e-15 1.15022e-29 2.87555e-30 31.8712 -7.48698e-15 2.47869e-16 0.330044 -1.01515e-15 -1.21834e-16)
(9.93571e-16 8.85535e-30 1.30134e-30 30.7595 1.67908e-14 1.09608e-15 0.323064 -1.81095e-16 -7.99288e-18)
(-3.97429e-15 -1.13374e-29 -2.26747e-30 30.7595 -8.07661e-15 3.1665e-16 0.323064 -1.04637e-15 -1.17582e-16)
(2.27514e-15 -9.18374e-30 -2.63401e-30 29.6704 1.63631e-14 1.67199e-15 0.316079 -1.75406e-16 -1.53346e-17)
(-1.25818e-15 6.70492e-30 2.23497e-30 29.6704 -7.46187e-15 3.37805e-16 0.316079 -1.07428e-15 -1.13264e-16)
(-1.03985e-15 2.71288e-31 -7.02517e-31 28.6077 1.66512e-14 2.069e-15 0.309131 -1.77118e-16 -2.07243e-17)
(0 6.60882e-30 2.20294e-30 28.6077 -7.43392e-15 3.23837e-16 0.309131 -1.10542e-15 -1.08979e-16)
(1.06226e-15 6.2175e-30 6.86697e-31 27.5744 1.62855e-14 2.30897e-15 0.302258 -1.86888e-16 -2.45241e-17)
(4.24903e-15 -4.34273e-30 -5.42841e-31 27.5744 -7.50443e-15 3.22797e-16 0.302258 -1.13588e-15 -1.04741e-16)
(0 -4.28049e-30 -1.60518e-30 26.5727 1.5613e-14 2.40629e-15 0.295489 -1.74137e-16 -2.6691e-17)
(4.33669e-15 8.56098e-30 1.60518e-30 26.5727 -7.32874e-15 3.19054e-16 0.295489 -1.16204e-15 -1.00328e-16)
(-1.1056e-15 2.46092e-30 9.26986e-31 25.6043 1.55571e-14 2.39003e-15 0.288849 -1.77125e-16 -2.74479e-17)
(0 2.10957e-30 5.27392e-31 25.6043 -7.82582e-15 2.93937e-16 0.288849 -1.19344e-15 -9.58403e-17)
(-1.12654e-15 2.45636e-30 4.00167e-31 24.6701 1.52815e-14 2.2792e-15 0.282356 -1.77952e-16 -2.70989e-17)
(0 4.15867e-30 1.03967e-30 24.6701 -7.72153e-15 2.64299e-16 0.282356 -1.22372e-15 -9.1196e-17)
(1.15378e-15 -8.19813e-30 -1.53715e-30 23.7707 1.46887e-14 2.08401e-15 0.276026 -1.75885e-16 -2.56671e-17)
(0 1.22972e-29 2.04953e-30 23.7707 -6.72858e-15 2.3554e-16 0.276026 -1.24864e-15 -8.64539e-17)
(-2.30427e-15 2.44983e-30 -1.03095e-31 22.906 1.45062e-14 1.82408e-15 0.269869 -1.69138e-16 -2.3274e-17)
(0 8.08063e-30 2.02016e-30 22.906 -6.65378e-15 1.94279e-16 0.269869 -1.27523e-15 -8.15627e-17)
(-1.12095e-15 1.9912e-29 2.9868e-30 22.0759 1.50225e-14 1.51768e-15 0.263893 -1.76657e-16 -2.01787e-17)
(-4.7463e-15 -1.59296e-29 -2.489e-30 22.0759 -7.21084e-15 1.29107e-16 0.263893 -1.3082e-15 -7.68065e-17)
(-1.20569e-15 -1.32625e-29 -2.0488e-30 21.2797 1.51085e-14 1.17441e-15 0.258102 -1.86666e-16 -1.64928e-17)
(4.82276e-15 1.57013e-29 2.94399e-30 21.2797 -7.08818e-15 6.72593e-17 0.258102 -1.34092e-15 -7.20542e-17)
(-1.08905e-15 1.54763e-29 2.41817e-30 20.5168 1.45209e-14 8.03265e-16 0.252498 -1.83958e-16 -1.22875e-17)
(1.08905e-15 -1.54763e-29 -2.41817e-30 20.5168 -6.98227e-15 2.88277e-18 0.252498 -1.37261e-15 -6.72343e-17)
(-1.24265e-15 1.3872e-29 2.31472e-30 19.7863 1.39314e-14 4.11321e-16 0.247081 -1.77402e-16 -7.67149e-18)
(4.97059e-15 -1.14408e-29 -1.90681e-30 19.7863 -6.49201e-15 -7.80171e-17 0.247081 -1.39834e-15 -6.24955e-17)
(2.52104e-15 -1.23721e-29 -1.75957e-30 19.0871 1.35997e-14 1.50709e-18 0.241851 -1.74354e-16 -2.67869e-18)
(5.04208e-15 7.51791e-30 9.39738e-31 19.0871 -7.32368e-15 -1.24679e-16 0.241851 -1.42574e-15 -5.76824e-17)
(0 -3.70508e-30 -9.2627e-31 18.418 1.35218e-14 -4.21393e-16 0.236805 -1.7404e-16 -8.31418e-18)
(0 7.41016e-30 1.3894e-30 18.418 -9.00681e-15 -1.58138e-16 0.236805 -1.46485e-15 -5.25204e-17)
(-1.29511e-15 -1.23395e-30 -4.50509e-32 17.7781 1.39937e-14 -8.44032e-16 0.231939 -1.77421e-16 -1.39824e-17)
(0 7.30395e-30 1.82599e-30 17.7781 -8.73544e-15 -2.6373e-16 0.231939 -1.50492e-15 -4.7365e-17)
(-2.62371e-15 1.5622e-29 1.72476e-30 17.1661 1.43511e-14 -1.26043e-15 0.227249 -1.91671e-16 -1.97781e-17)
(5.24741e-15 -1.43985e-29 -1.79982e-30 17.1661 -8.46189e-15 -3.41998e-16 0.227249 -1.54371e-15 -4.24216e-17)
(-1.32825e-15 2.40713e-30 -4.73442e-31 16.5807 1.41687e-14 -1.67368e-15 0.222731 -1.92249e-16 -2.56895e-17)
(0 3.54804e-30 8.8701e-31 16.5807 -8.28014e-15 -4.03698e-16 0.222731 -1.5816e-15 -3.69434e-17)
(-1.34431e-15 -1.09447e-30 -4.59414e-31 16.0209 1.38046e-14 -2.08281e-15 0.218379 -1.923e-16 -3.17049e-17)
(5.37723e-15 6.99438e-30 1.74859e-30 16.0209 -7.85455e-15 -4.39006e-16 0.218379 -1.61688e-15 -3.15495e-17)
(-1.36004e-15 9.29293e-30 2.1399e-30 15.4854 1.31476e-14 -2.48662e-15 0.214189 -1.87783e-16 -3.7805e-17)
(0 -3.44706e-30 -8.61766e-31 15.4854 -8.86582e-15 -4.57066e-16 0.214189 -1.64918e-15 -2.56325e-17)
(-4.66364e-15 1.4984e-29 1.68552e-30 14.9732 1.2133e-14 -2.88143e-15 0.210153 -1.79445e-16 -4.39045e-17)
(-3.58915e-15 -1.0193e-29 -8.49415e-31 14.9732 -6.95168e-15 -5.31635e-16 0.210153 -1.69072e-15 -1.94179e-17)
(-8.95874e-16 -8.60797e-30 -2.50912e-30 14.4831 1.07165e-14 -3.27021e-15 0.206267 -1.64319e-16 -5.01729e-17)
(9.23939e-15 1.33958e-29 3.34896e-30 14.4831 -3.12981e-15 -5.26885e-16 0.206267 -1.71395e-15 -1.31714e-17)
(-4.21625e-15 2.36864e-29 3.74177e-30 14.014 9.44517e-15 -3.65189e-15 0.202526 -1.43674e-16 -5.64059e-17)
(-5.62167e-15 -1.32039e-29 -2.47572e-30 14.014 -2.63732e-15 -5.2919e-16 0.202526 -1.72538e-15 -6.1503e-18)
(-1.41997e-15 -7.36717e-30 -2.82935e-30 13.565 9.04736e-15 -4.02775e-15 0.198923 -1.31776e-16 -6.28478e-17)
(5.67988e-15 9.76096e-30 3.25365e-30 13.565 -3.31311e-15 -6.4503e-16 0.198923 -1.74302e-15 8.02904e-19)
(1.43426e-15 -1.20122e-29 -2.03015e-30 13.135 9.94522e-15 -4.3911e-15 0.195453 -1.36024e-16 -6.90475e-17)
(0 9.62106e-30 1.60351e-30 13.135 -4.94794e-15 -7.20967e-16 0.195453 -1.75698e-15 7.49742e-18)
(-1.77952e-15 -1.58053e-29 -6.7432e-29 12.723 1.06768e-14 -6.62033e-16 0.19211 -1.62792e-16 -5.04195e-18)
(7.57264e-15 1.58053e-29 2.37079e-30 12.723 -5.91766e-15 -7.84626e-16 0.19211 -1.78807e-15 1.4742e-17)
(0 -3.11575e-30 -7.00649e-46 12.3283 9.78707e-15 -4.28398e-31 0.18889 -1.62458e-16 -7.88861e-31)
(7.60225e-15 9.34724e-30 1.55787e-30 12.3283 -3.6841e-15 -7.99303e-16 0.18889 -1.8224e-15 2.19718e-17)
(-1.72887e-15 1.22844e-29 2.30332e-30 11.9499 9.38031e-15 3.80846e-16 0.185787 -1.39861e-16 -8.33398e-18)
(4.17352e-15 -6.14218e-30 -7.67773e-31 11.9499 -2.27064e-15 -7.70414e-16 0.185787 -1.83949e-15 3.00168e-17)
(0 1.21083e-29 3.02707e-30 11.587 9.25599e-15 2.16761e-17 0.182796 -1.5437e-16 -3.57338e-18)
(0 -1.21083e-29 -3.02707e-30 11.587 -3.54711e-15 -8.12901e-16 0.182796 -1.85895e-15 3.78037e-17)
(-3.00397e-15 4.74051e-30 8.83903e-31 11.2389 8.04905e-15 -3.44209e-16 0.179912 -1.39975e-16 -8.21648e-18)
(0 0 0 11.2389 -4.19683e-15 -9.30081e-16 0.179912 -1.88778e-15 4.53858e-17)
(0 -1.17637e-29 -2.94092e-30 10.9048 8.17768e-15 -6.75308e-16 0.177132 -1.19656e-16 -1.39368e-17)
(6.05943e-15 1.17637e-29 2.94092e-30 10.9048 -3.53597e-15 -9.93966e-16 0.177132 -1.91185e-15 5.34177e-17)
(0 8.69632e-30 1.44939e-30 10.5841 9.09574e-15 -9.97274e-16 0.174449 -1.48318e-16 -1.92306e-17)
(6.11008e-15 -5.79755e-30 -7.24693e-31 10.5841 -3.49161e-15 -9.8363e-16 0.174449 -1.92688e-15 6.22295e-17)
(-1.53998e-15 2.359e-30 4.4349e-31 10.276 8.51218e-15 -1.30108e-15 0.171862 -1.53881e-16 -2.46588e-17)
(0 5.71445e-30 7.14307e-31 10.276 -4.25169e-15 -9.85885e-16 0.171862 -1.93889e-15 7.13591e-17)
(1.55226e-15 3.27337e-30 9.6366e-31 9.97996 7.04722e-15 -1.59135e-15 0.169364 -1.32852e-16 -2.9791e-17)
(-1.58542e-15 -2.81628e-30 0 9.97996 -4.06123e-15 -1.03723e-15 0.169364 -1.96346e-15 8.1135e-17)
(3.1254e-15 -2.77591e-30 -2.08193e-30 9.6954 6.13477e-15 -1.85578e-15 0.166953 -1.07933e-16 -3.4621e-17)
(0 5.55182e-30 2.08193e-30 9.6954 -3.43149e-15 -1.10796e-15 0.166953 -1.98787e-15 9.00052e-17)
(3.0806e-15 -5.47225e-30 -1.36806e-30 9.42174 6.11608e-15 -2.15788e-15 0.164624 -1.0486e-16 -4.13734e-17)
(-3.0806e-15 8.20838e-30 1.36806e-30 9.42174 -3.57542e-15 -1.16436e-15 0.164624 -2.00342e-15 9.87802e-17)
(-1.65775e-15 -6.84012e-31 -4.52258e-31 9.15847 6.22063e-15 -2.49687e-15 0.162374 -1.10432e-16 -4.7827e-17)
(0 5.39382e-30 1.34845e-30 9.15847 -3.37925e-15 -1.23141e-15 0.162374 -2.02004e-15 1.07616e-16)
(-1.59955e-15 1.03265e-29 2.44362e-30 8.90509 7.07853e-15 -2.76624e-15 0.160201 -1.11692e-16 -5.24143e-17)
(0 -7.97477e-30 -1.99369e-30 8.90509 -3.50183e-15 -1.15772e-15 0.160201 -2.05117e-15 1.17103e-16)
(1.61096e-15 2.76668e-31 2.03287e-31 8.66113 7.86049e-15 -2.99627e-15 0.1581 -1.44971e-16 -5.77437e-17)
(-9.39388e-15 0 0 8.66113 -4.47999e-15 -1.15809e-15 0.1581 -2.08867e-15 1.27608e-16)
(0 -5.16521e-30 -1.2913e-30 8.42615 7.1577e-15 -3.27895e-15 0.156068 -1.43912e-16 -6.45664e-17)
(-6.48886e-15 7.74781e-30 1.93695e-30 8.42615 -3.96576e-15 -1.30392e-15 0.156068 -2.12437e-15 1.37024e-16)
(-1.63332e-15 7.43096e-30 3.00141e-30 8.19972 6.85584e-15 -3.55112e-15 0.154103 -1.22823e-16 -6.98059e-17)
(1.30665e-14 -2.54559e-30 -1.27279e-30 8.19972 -2.9543e-15 -1.43371e-15 0.154103 -2.14722e-15 1.46163e-16)
(-1.18072e-15 5.19251e-30 1.42351e-30 7.98146 7.29014e-15 -3.76241e-15 0.152202 -1.36625e-16 -7.4626e-17)
(9.40209e-15 -1.25455e-29 -3.13638e-30 7.98146 -4.22921e-15 -1.4263e-15 0.152202 -2.16656e-15 1.55097e-16)
(0 0 6.18285e-31 7.77098 7.33452e-15 -3.99517e-15 0.150363 -1.43209e-16 -8.09794e-17)
(0 4.94628e-30 0 7.77098 -4.17599e-15 -1.34013e-15 0.150363 -2.21175e-15 1.65938e-16)
(-1.66577e-15 -9.86277e-30 -2.58371e-30 7.56794 7.00214e-15 -4.26546e-15 0.148582 -1.42368e-16 -8.75672e-17)
(6.66308e-15 1.46262e-29 3.65654e-30 7.56794 -3.89911e-15 -1.3483e-15 0.148582 -2.23921e-15 1.77335e-16)
(-1.67632e-15 1.19332e-29 -6.5705e-45 7.37199 8.03312e-15 4.73455e-29 0.146857 -1.34179e-16 0)
(-6.70528e-15 -4.80551e-30 -6.00689e-31 7.37199 -5.83167e-15 -1.45201e-15 0.146857 -2.2744e-15 1.88525e-16)
(1.68674e-15 -9.4142e-30 -3.42377e-30 7.18282 9.9976e-15 6.33411e-15 0.145187 -1.88158e-16 -9.52216e-17)
(6.74697e-15 7.10495e-30 2.9604e-30 7.18282 -5.16773e-15 -1.61082e-15 0.145187 -2.31181e-15 1.98901e-16)
(-1.69704e-15 1.3971e-29 3.36698e-30 7.00013 9.91338e-15 7.64227e-15 0.143568 -2.18567e-16 -1.62813e-16)
(6.78816e-15 -1.16719e-29 -2.91797e-30 7.00013 -4.39952e-15 -1.57273e-15 0.143568 -2.3248e-15 2.09605e-16)
(-1.70722e-15 4.60002e-30 -1.29405e-31 6.82363 7.75833e-15 7.14616e-15 0.141999 -1.90171e-16 -1.52367e-16)
(0 -2.30092e-30 5.75229e-31 6.82363 -4.24007e-15 -1.49261e-15 0.141999 -2.36389e-15 2.22201e-16)
(-1.71729e-15 3.71613e-32 4.42225e-31 6.65306 5.24424e-15 6.78264e-15 0.140478 -1.34122e-16 -1.46668e-16)
(0 4.53588e-30 1.13397e-30 6.65306 -5.66742e-16 -1.49745e-15 0.140478 -2.38979e-15 2.34542e-16)
(-1.72724e-15 -6.63219e-30 -1.23792e-30 6.48816 4.62596e-15 6.45363e-15 0.139004 -8.82171e-17 -1.41283e-16)
(4.39208e-15 1.11772e-29 1.67657e-30 6.48816 1.47012e-15 -1.49659e-15 0.139004 -2.38798e-15 2.47325e-16)
(1.73708e-15 -1.11171e-29 -1.53681e-30 6.32868 5.02384e-15 6.17482e-15 0.137573 -1.11223e-16 -1.36689e-16)
(0 8.81357e-30 1.1017e-30 6.32868 5.24891e-17 -1.52804e-15 0.137573 -2.39813e-15 2.59544e-16)
(2.44524e-15 -6.51544e-30 -1.08591e-30 6.1744 4.02021e-15 5.96475e-15 0.136185 -1.08316e-16 -1.33148e-16)
(0 8.68725e-30 1.08591e-30 6.1744 -1.21786e-15 -1.57184e-15 0.136185 -2.41569e-15 2.71814e-16)
(-1.75646e-15 -4.11607e-30 4.27999e-31 6.02509 4.1992e-15 5.82859e-15 0.134838 -6.96574e-17 -1.31311e-16)
(0 8.56274e-30 1.07034e-30 6.02509 -1.84607e-15 -1.77863e-15 0.134838 -2.45086e-15 2.82583e-16)
(0 -1.688e-29 -3.69251e-30 5.88056 6.09324e-15 5.49178e-15 0.13353 -1.196e-16 -1.30879e-16)
(1.4128e-14 1.688e-29 4.22001e-30 5.88056 -1.15661e-15 -1.83985e-15 0.13353 -2.47966e-15 2.90349e-16)
(-2.3416e-15 4.15952e-30 1.03988e-30 5.7406 6.375e-15 5.08852e-15 0.13226 -1.58766e-16 -1.19674e-16)
(7.10174e-15 2.07976e-30 5.19941e-31 5.7406 -6.83114e-16 -1.58195e-15 0.13226 -2.48053e-15 3.00805e-16)
(-1.78478e-15 1.66363e-29 3.49351e-30 5.60503 5.64648e-15 4.93301e-15 0.131027 -1.36244e-16 -1.15905e-16)
(-7.13914e-15 -1.22997e-29 -2.56244e-30 5.60503 -2.80907e-16 -1.5199e-15 0.131027 -2.48741e-15 3.1333e-16)
(4.8092e-16 8.34723e-30 1.93059e-30 5.47367 4.45345e-15 4.83863e-15 0.129829 -1.28946e-16 -1.15822e-16)
(-9.45113e-15 -4.04115e-30 -1.01029e-30 5.47367 4.51696e-16 -1.71193e-15 0.129829 -2.48965e-15 3.24058e-16)
(0 5.97484e-30 1.49371e-30 5.34635 3.90486e-15 4.72102e-15 0.128664 -8.29642e-17 -1.1477e-16)
(0 -1.99161e-30 -4.97903e-31 5.34635 8.52859e-16 -1.82555e-15 0.128664 -2.48524e-15 3.32648e-16)
(0 5.8892e-30 1.4723e-30 5.22291 4.86439e-15 4.44918e-15 0.127533 -1.06006e-16 -1.13487e-16)
(7.24919e-15 -1.96307e-30 -4.90767e-31 5.22291 -1.41647e-16 -1.84811e-15 0.127533 -2.48756e-15 3.40262e-16)
(-3.5724e-16 1.32051e-29 2.97975e-30 5.1032 5.23431e-15 4.20385e-15 0.126432 -1.32805e-16 -1.047e-16)
(0 -1.16096e-29 -2.41867e-30 5.1032 -1.89309e-15 -1.93454e-15 0.126432 -2.5052e-15 3.48475e-16)
(0 -1.9072e-29 -4.768e-30 4.98707 5.29924e-15 4.05812e-15 0.125362 -1.27655e-16 -1.04514e-16)
(1.46418e-14 1.9072e-29 4.768e-30 4.98707 -8.22324e-16 -2.02136e-15 0.125362 -2.53555e-15 3.54966e-16)
(0 -3.75973e-30 -9.39932e-31 4.87439 4.66464e-15 3.75934e-15 0.124322 -1.39998e-16 -1.00355e-16)
(1.47125e-14 7.51946e-30 1.4099e-30 4.87439 -1.65508e-15 -1.96202e-15 0.124322 -2.52981e-15 3.60934e-16)
(-3.69566e-15 4.5367e-30 7.97364e-31 4.76501 3.73711e-15 3.5535e-15 0.123309 -9.86511e-17 -9.21589e-17)
(0 0 0 4.76501 -2.97484e-15 -1.97491e-15 0.123309 -2.54249e-15 3.68928e-16)
(-1.85652e-15 2.26673e-30 3.95723e-31 4.65883 5.1181e-15 3.3592e-15 0.122324 -9.55447e-17 -9.25193e-17)
(1.48522e-14 3.65273e-30 9.13182e-31 4.65883 -1.43447e-15 -2.04191e-15 0.122324 -2.56767e-15 3.75134e-16)
(1.86515e-15 -9.45023e-30 -1.29406e-30 4.55571 5.95743e-15 3.04285e-15 0.121365 -1.74884e-16 -8.45395e-17)
(0 7.20075e-30 9.00094e-31 4.55571 -2.69801e-15 -1.9982e-15 0.121365 -2.57889e-15 3.82017e-16)
(-1.8737e-15 5.79924e-30 3.9204e-31 4.45555 4.55514e-15 2.86423e-15 0.120432 -1.43568e-16 -7.8184e-17)
(0 0 8.87193e-31 4.45555 -2.98217e-15 -2.0413e-15 0.120432 -2.61615e-15 3.88782e-16)
(-1.88218e-15 9.2497e-30 1.26414e-30 4.35822 4.54247e-15 2.76955e-15 0.119523 -1.03351e-16 -7.72519e-17)
(7.52872e-15 -6.99582e-30 -8.74477e-31 4.35822 -5.68612e-16 -2.12103e-15 0.119523 -2.63568e-15 3.9439e-16)
(5.03293e-17 9.13826e-30 1.24943e-30 4.26364 5.0086e-15 2.59044e-15 0.118638 -1.47071e-16 -7.52232e-17)
(5.62146e-15 -3.44778e-30 -8.61944e-31 4.26364 -3.46383e-16 -2.16759e-15 0.118638 -2.63498e-15 3.993e-16)
(-3.7979e-15 4.48404e-30 7.71498e-31 4.1717 3.86457e-15 1.71754e-15 0.117776 -1.32606e-16 -6.94371e-17)
(0 0 0 4.1717 -1.02036e-15 -2.07242e-15 0.117776 -2.64796e-15 4.03714e-16)
(-2.15495e-17 5.59731e-30 1.228e-30 4.0823 2.80903e-15 7.82504e-16 0.116936 -8.60724e-17 -2.75978e-17)
(-1.88569e-15 -3.34965e-30 0 4.0823 -1.83384e-15 -2.06804e-15 0.116936 -2.66604e-15 4.11698e-16)
(0 -6.60329e-30 -8.25411e-31 3.99536 3.21843e-15 5.67711e-16 0.116117 -7.53591e-17 -1.73192e-17)
(-7.66186e-15 6.60329e-30 8.25411e-31 3.99536 -1.74694e-15 -2.23646e-15 0.116117 -2.6937e-15 4.17245e-16)
(1.92363e-15 -5.49404e-30 -3.91545e-31 3.91079 4.25449e-15 4.42006e-16 0.11532 -1.12649e-16 -1.57857e-17)
(7.69453e-15 3.25432e-30 0 3.91079 -1.33586e-15 -2.28124e-15 0.11532 -2.7007e-15 4.21678e-16)
(1.93174e-15 -8.64692e-30 -1.19376e-30 3.8285 4.48226e-15 2.97686e-16 0.114542 -1.39327e-16 -1.03331e-17)
(-7.72697e-15 6.41536e-30 8.0192e-31 3.8285 -1.70956e-15 -2.20212e-15 0.114542 -2.72705e-15 4.26968e-16)
(-1.9398e-15 5.39142e-30 1.18091e-30 3.74841 4.50674e-15 2.56713e-16 0.113784 -1.29724e-16 -7.51997e-18)
(4.19942e-15 0 0 3.74841 -7.79172e-16 -2.20452e-15 0.113784 -2.75152e-15 4.33194e-16)
(0 6.23278e-30 1.5582e-30 3.67046 5.38155e-15 1.39119e-16 0.113045 -1.44911e-16 -8.12184e-18)
(-1.75437e-15 -3.11639e-30 -7.79098e-31 3.67046 -1.03371e-15 -2.3299e-15 0.113045 -2.74402e-15 4.38715e-16)
(-3.45845e-15 9.21517e-30 1.53586e-30 3.59456 5.86359e-15 -6.89203e-17 0.112324 -1.8798e-16 -4.77884e-18)
(6.09372e-15 -3.07172e-30 0 3.59456 -1.40532e-15 -2.39548e-15 0.112324 -2.75889e-15 4.43472e-16)
(1.96363e-15 -8.26575e-30 -3.86538e-31 3.52065 4.83987e-15 -1.77385e-16 0.111621 -1.79598e-16 -6.51724e-18)
(0 6.0554e-30 0 3.52065 -1.36075e-15 -2.2054e-15 0.111621 -2.77287e-15 4.48658e-16)
(0 5.96861e-30 7.46076e-31 3.44866 4.97376e-15 -1.5193e-16 0.110935 -1.27894e-16 -3.26411e-18)
(-1.12459e-14 0 0 3.44866 -2.39123e-15 -2.25578e-15 0.110935 -2.80605e-15 4.58523e-16)
(-3.31187e-15 5.88306e-30 7.35383e-31 3.37853 6.31919e-15 -2.93406e-16 0.110265 -1.93563e-16 -1.60385e-17)
(0 2.94153e-30 0 3.37853 -1.84302e-15 -2.44281e-15 0.110265 -2.83618e-15 4.61278e-16)
(1.6322e-15 5.79874e-30 7.24843e-31 3.31019 5.78916e-15 -4.96541e-16 0.109612 -2.20372e-16 -1.69513e-17)
(-1.6322e-15 0 0 3.31019 -1.37431e-15 -2.37457e-15 0.109612 -2.84552e-15 4.66928e-16)
(1.9947e-15 9.23937e-30 1.7616e-30 3.24359 3.88483e-15 -5.04338e-16 0.108974 -1.63769e-16 -1.70375e-17)
(0 -1.14313e-29 -2.14336e-30 3.24359 -1.74122e-15 -2.29023e-15 0.108974 -2.83864e-15 4.73396e-16)
(2.00234e-15 6.2505e-30 1.02657e-30 3.17866 2.23517e-15 -4.32735e-16 0.108352 -9.75586e-17 -1.25166e-17)
(0 -2.81686e-30 -7.04214e-31 3.17866 3.98106e-16 -2.32276e-15 0.108352 -2.84289e-15 4.81198e-16)
(-4.01989e-15 7.18399e-30 1.45348e-30 3.11537 1.78081e-15 -5.15522e-16 0.107744 -5.49564e-17 -2.33209e-17)
(8.03979e-15 -2.77648e-30 -6.94121e-31 3.11537 2.29591e-15 -2.48696e-15 0.107744 -2.8363e-15 4.85279e-16)
(-2.01751e-15 -5.38815e-31 3.78204e-31 3.05364 8.78556e-16 -7.64832e-16 0.10715 -6.86697e-17 -3.05559e-17)
(0 5.47338e-30 0 3.05364 1.54007e-15 -2.25064e-15 0.10715 -2.8269e-15 4.88229e-16)
(3.03708e-15 0 6.74366e-31 2.99344 -5.39067e-16 -6.05164e-16 0.106571 -3.12697e-17 -1.25213e-17)
(-3.03708e-15 0 -6.74366e-31 2.99344 3.05861e-15 -2.1124e-15 0.106571 -2.81717e-15 4.97342e-16)
(0 5.60519e-45 1.3294e-30 2.93472 -8.86181e-30 -2.94535e-16 0.106004 0 -8.78662e-18)
(-2.99355e-15 -2.6588e-30 -6.64701e-31 2.93472 3.9056e-15 -2.20889e-15 0.106004 -2.73387e-15 5.01451e-16)
(-2.95064e-15 7.86209e-30 1.31035e-30 2.87742 1.63198e-15 -1.68768e-16 0.105451 -4.01503e-17 -3.57844e-18)
(-2.95064e-15 -2.6207e-30 0 2.87742 3.76243e-15 -2.37932e-15 0.105451 -2.70467e-15 5.07425e-16)
(0 2.58314e-30 1.29157e-30 2.82151 1.94715e-15 -1.58963e-16 0.104911 -8.00711e-17 -8.30766e-18)
(1.63786e-14 -2.58314e-30 -6.45784e-31 2.82151 3.93923e-15 -2.73168e-15 0.104911 -2.70115e-15 5.06111e-16)
(-4.10934e-15 6.94524e-30 7.51482e-31 2.76694 1.07551e-15 -4.46186e-16 0.104383 -6.49958e-17 -2.55673e-17)
(8.21869e-15 -2.54611e-30 0 2.76694 1.42813e-15 -2.57416e-15 0.104383 -2.68861e-15 5.02383e-16)
(2.06199e-15 -5.48591e-30 -1.63137e-30 2.71368 8.34185e-16 -5.27265e-16 0.103866 -1.60042e-17 -1.48184e-17)
(0 2.50962e-30 1.25481e-30 2.71368 -2.91391e-16 -2.17115e-15 0.103866 -2.70966e-15 5.05779e-16)
(0 4.9473e-30 6.18413e-31 2.66167 2.38527e-15 -3.03124e-16 0.103362 -5.23566e-17 -8.73829e-18)
(-8.27705e-15 0 1.23683e-30 2.66167 -5.14688e-16 -2.57702e-15 0.103362 -2.73547e-15 5.08897e-16)
(-2.0765e-15 -7.56506e-30 -8.45695e-31 2.61089 4.04642e-15 -4.56066e-16 0.102869 -1.33944e-16 -2.74212e-17)
(8.30602e-15 9.75279e-30 2.4382e-30 2.61089 -6.74685e-16 -2.84683e-15 0.102869 -2.73882e-15 4.96861e-16)
(0 4.8065e-30 2.40325e-30 2.5613 4.29458e-15 -7.23205e-16 0.102387 -1.86059e-16 -3.05581e-17)
(-2.70582e-15 -2.40325e-30 0 2.5613 -1.43259e-15 -2.57004e-15 0.102387 -2.73999e-15 4.93771e-16)
(0 -4.73761e-30 0 2.51286 2.80406e-15 -7.42295e-16 0.101915 -1.57899e-16 -2.97878e-17)
(2.66704e-15 7.10642e-30 1.1844e-30 2.51286 -2.70019e-15 -2.6189e-15 0.101915 -2.76988e-15 4.90968e-16)
(-2.09801e-15 -1.56782e-31 3.72503e-31 2.46554 8.22926e-16 -6.73819e-16 0.101454 -6.94433e-17 -2.57639e-17)
(0 2.33486e-30 0 2.46554 -2.05525e-15 -3.00498e-15 0.101454 -2.82093e-15 4.82316e-16)
(-4.21023e-15 5.60519e-45 -2.71561e-30 2.4193 8.73466e-30 -9.09838e-16 0.101003 6.06089e-46 -5.05553e-17)
(1.94321e-14 1.61097e-29 2.87674e-30 2.4193 1.06015e-16 -2.78189e-15 0.101003 -2.83262e-15 4.68092e-16)
(2.554e-15 1.02541e-30 5.67102e-31 2.37412 3.39219e-15 -1.05675e-15 0.100562 -7.20013e-17 -3.90825e-17)
(-2.554e-15 0 0 2.37412 2.77856e-16 -2.25499e-15 0.100562 -2.80225e-15 4.70724e-16)
(-2.51739e-15 8.94358e-30 1.67692e-30 2.32996 4.96152e-15 -7.75407e-16 0.100131 -2.40015e-16 -2.76259e-17)
(-2.51739e-15 -2.23589e-30 0 2.32996 7.72188e-17 -2.83719e-15 0.100131 -2.80169e-15 4.71009e-16)
(-6.37869e-15 -9.01539e-30 -1.64996e-30 2.2868 3.80888e-15 -9.00453e-16 0.0997084 -1.86972e-16 -5.12346e-17)
(1.70098e-14 1.76308e-29 2.75481e-30 2.2868 1.16085e-15 -3.2121e-15 0.0997084 -2.8098e-15 4.52471e-16)
(0 -1.73781e-29 -1.6292e-30 2.2446 2.64081e-15 -1.21903e-15 0.0992953 -1.45585e-16 -5.68859e-17)
(1.70657e-14 1.73781e-29 1.6292e-30 2.2446 -2.61326e-16 -2.64709e-15 0.0992953 -2.7873e-15 4.46148e-16)
(2.70542e-16 1.07066e-29 2.51216e-30 2.20334 2.02496e-15 -1.01481e-15 0.098891 -8.81349e-17 -3.42317e-17)
(-2.41069e-15 -4.28225e-30 0 2.20334 -1.7118e-15 -2.69841e-15 0.098891 -2.80241e-15 4.46275e-16)
(2.14707e-15 -1.90226e-29 -3.53595e-30 2.163 2.77866e-15 -7.99389e-16 0.0984954 -9.40515e-17 -3.8751e-17)