/*--------------------------------*- C++ -*----------------------------------*\
| =========                 |                                                 |
| \\      /  F ield         | OpenFOAM: The Open Source CFD Toolbox           |
|  \\    /   O peration     | Version:  2106                                  |
|   \\  /    A nd           | Website:  www.openfoam.com                      |
|    \\/     M anipulation  |                                                 |
\*---------------------------------------------------------------------------*/
FoamFile
{
    version     2.0;
    format      ascii;
    arch        "LSB;label=32;scalar=64";
    class       volScalarField;
    location    "16000";
    object      p;
}
// * * * * * * * * * * * * * * * * * * * * * * * * * * * * * * * * * * * * * //

dimensions      [0 2 -2 0 0 0 0];

internalField   nonuniform List<scalar> 
2560
(
9.52625e-16
2.61396e-14
2.07325e-15
2.61399e-14
2.44421e-15
2.61404e-14
2.64102e-15
2.61414e-14
2.85769e-15
2.61428e-14
3.08963e-15
2.61446e-14
3.31581e-15
2.61468e-14
3.53443e-15
2.61494e-14
3.74808e-15
2.61525e-14
3.95779e-15
2.6156e-14
4.16365e-15
2.61599e-14
4.36565e-15
2.61642e-14
4.5639e-15
2.61689e-14
4.75845e-15
2.6174e-14
4.94932e-15
2.61795e-14
5.13659e-15
2.61854e-14
5.32038e-15
2.61918e-14
5.50072e-15
2.61986e-14
5.67771e-15
2.62057e-14
5.85158e-15
2.62133e-14
6.02239e-15
2.62213e-14
6.19025e-15
2.62297e-14
6.35533e-15
2.62386e-14
6.51799e-15
2.62479e-14
6.67822e-15
2.62577e-14
6.83628e-15
2.62679e-14
6.99242e-15
2.62787e-14
7.14704e-15
2.629e-14
7.30024e-15
2.63019e-14
7.45224e-15
2.63145e-14
7.6034e-15
2.63275e-14
7.75394e-15
2.6341e-14
7.90413e-15
2.63552e-14
8.05431e-15
2.63703e-14
8.20469e-15
2.63862e-14
8.35535e-15
2.6403e-14
8.50662e-15
2.64206e-14
8.65886e-15
2.6439e-14
8.81232e-15
2.64583e-14
8.96677e-15
2.64786e-14
9.12259e-15
2.64998e-14
9.27994e-15
2.65222e-14
9.43902e-15
2.65458e-14
9.59984e-15
2.65703e-14
9.76267e-15
2.65959e-14
9.9273e-15
2.66226e-14
1.00938e-14
2.66508e-14
1.02626e-14
2.66804e-14
1.04332e-14
2.67113e-14
1.06058e-14
2.67437e-14
1.07808e-14
2.67776e-14
1.09579e-14
2.68126e-14
1.11368e-14
2.68492e-14
1.13179e-14
2.68872e-14
1.15009e-14
2.69269e-14
1.16858e-14
2.69683e-14
1.18729e-14
2.7012e-14
1.20623e-14
2.70573e-14
1.22532e-14
2.71045e-14
1.24457e-14
2.71542e-14
1.26398e-14
2.72061e-14
1.28358e-14
2.72608e-14
1.30333e-14
2.73174e-14
1.32319e-14
2.73763e-14
1.34328e-14
2.74375e-14
1.36349e-14
2.74999e-14
1.38391e-14
2.75637e-14
1.40448e-14
2.763e-14
1.42517e-14
2.76985e-14
1.44609e-14
2.77698e-14
1.46705e-14
2.78424e-14
1.48822e-14
2.79163e-14
1.50952e-14
2.79914e-14
1.53102e-14
2.80695e-14
1.55259e-14
2.81497e-14
1.57431e-14
2.82319e-14
1.59615e-14
2.8315e-14
1.61817e-14
2.84003e-14
1.64037e-14
2.84872e-14
1.66268e-14
2.85767e-14
1.68502e-14
2.86687e-14
1.70742e-14
2.87607e-14
1.72998e-14
2.8854e-14
1.75257e-14
2.895e-14
1.7752e-14
2.90502e-14
1.79789e-14
2.91523e-14
1.82062e-14
2.92556e-14
1.84332e-14
2.936e-14
1.86596e-14
2.94672e-14
1.88846e-14
2.95789e-14
1.91089e-14
2.96919e-14
1.93332e-14
2.98061e-14
1.95565e-14
2.99208e-14
1.97814e-14
3.00358e-14
2.00069e-14
3.01503e-14
2.0233e-14
3.02653e-14
2.04578e-14
3.0386e-14
2.0682e-14
3.051e-14
2.09047e-14
3.06317e-14
2.11285e-14
3.0752e-14
2.13534e-14
3.08738e-14
2.15792e-14
3.09971e-14
2.18022e-14
3.11218e-14
2.2026e-14
3.125e-14
2.22506e-14
3.13817e-14
2.24748e-14
3.15141e-14
2.26977e-14
3.16491e-14
2.29201e-14
3.17859e-14
2.31419e-14
3.19235e-14
2.3364e-14
3.2063e-14
2.35854e-14
3.22044e-14
2.38049e-14
3.23487e-14
2.40244e-14
3.2491e-14
2.4246e-14
3.26343e-14
2.44675e-14
3.27798e-14
2.46877e-14
3.29275e-14
2.49087e-14
3.30744e-14
2.51303e-14
3.32225e-14
2.53472e-14
3.33731e-14
2.55656e-14
3.35273e-14
2.57876e-14
3.36765e-14
2.60023e-14
3.38296e-14
2.62161e-14
3.39832e-14
2.6431e-14
3.41375e-14
2.6648e-14
3.42893e-14
2.68627e-14
3.44431e-14
2.70749e-14
3.46011e-14
2.72912e-14
3.47524e-14
2.75091e-14
3.49015e-14
2.77243e-14
3.50462e-14
2.79409e-14
3.51933e-14
2.81545e-14
3.53497e-14
2.83739e-14
3.55042e-14
2.85945e-14
3.56501e-14
2.88071e-14
3.58056e-14
2.90206e-14
3.5962e-14
2.9235e-14
3.61168e-14
2.94478e-14
3.62725e-14
2.96659e-14
3.6441e-14
2.98821e-14
3.66014e-14
3.00939e-14
3.67514e-14
3.03036e-14
3.69122e-14
3.05133e-14
3.70771e-14
3.07275e-14
3.7232e-14
3.09392e-14
3.73911e-14
3.11528e-14
3.75523e-14
3.13635e-14
3.77135e-14
3.15806e-14
3.78698e-14
3.17992e-14
3.80192e-14
3.20192e-14
3.81736e-14
3.22356e-14
3.83285e-14
3.24531e-14
3.84913e-14
3.26715e-14
3.86573e-14
3.28907e-14
3.88194e-14
3.30982e-14
3.89778e-14
3.33061e-14
3.91278e-14
3.35191e-14
3.92769e-14
3.37321e-14
3.94424e-14
3.39474e-14
3.96123e-14
3.41573e-14
3.9772e-14
3.43617e-14
3.99267e-14
3.45628e-14
4.00888e-14
3.47603e-14
4.02587e-14
3.49713e-14
4.04268e-14
3.51758e-14
4.05833e-14
3.53834e-14
4.07434e-14
3.55889e-14
4.09023e-14
3.5787e-14
4.10603e-14
3.59876e-14
4.12227e-14
3.61853e-14
4.13796e-14
3.63797e-14
4.15515e-14
3.65857e-14
4.17186e-14
3.67829e-14
4.18812e-14
3.69809e-14
4.20397e-14
3.71795e-14
4.21993e-14
3.73733e-14
4.23454e-14
3.7562e-14
4.24881e-14
3.77605e-14
4.26279e-14
3.79533e-14
4.27751e-14
3.81401e-14
4.2925e-14
3.83358e-14
4.30626e-14
3.85299e-14
4.31935e-14
3.87172e-14
4.33177e-14
3.89024e-14
4.34508e-14
3.90954e-14
4.35779e-14
3.92858e-14
4.36991e-14
3.94785e-14
4.38147e-14
3.9658e-14
4.39351e-14
3.98442e-14
4.40603e-14
4.00319e-14
4.41857e-14
4.02206e-14
4.43165e-14
4.04052e-14
4.44278e-14
4.05953e-14
4.45399e-14
4.07859e-14
4.46681e-14
4.09765e-14
4.47977e-14
4.1172e-14
4.49034e-14
4.13571e-14
4.50158e-14
4.15415e-14
4.51652e-14
4.1735e-14
4.53016e-14
4.19172e-14
4.54253e-14
4.21077e-14
4.55668e-14
4.2276e-14
4.57164e-14
4.24618e-14
4.58594e-14
4.26446e-14
4.60012e-14
4.2834e-14
4.61272e-14
4.30295e-14
4.62576e-14
4.3221e-14
4.64028e-14
4.34179e-14
4.65229e-14
4.36103e-14
4.66482e-14
4.38078e-14
4.67688e-14
4.40102e-14
4.69046e-14
4.42075e-14
4.70259e-14
4.43995e-14
4.71327e-14
4.45963e-14
4.72547e-14
4.48074e-14
4.73821e-14
4.49933e-14
4.75345e-14
4.5193e-14
4.76826e-14
4.53867e-14
4.77969e-14
4.55743e-14
4.79269e-14
4.57652e-14
4.80823e-14
4.5959e-14
4.82143e-14
4.61653e-14
4.83231e-14
4.63646e-14
4.8457e-14
4.65569e-14
4.8616e-14
4.67515e-14
4.87321e-14
4.69485e-14
4.88441e-14
4.71383e-14
4.89707e-14
4.73307e-14
4.9112e-14
4.75255e-14
4.92678e-14
4.77127e-14
4.94093e-14
4.79015e-14
4.95268e-14
4.81017e-14
4.9668e-14
4.82941e-14
4.98515e-14
4.8497e-14
4.99917e-14
4.87011e-14
5.01073e-14
4.88878e-14
5.0264e-14
4.91042e-14
5.03954e-14
4.93032e-14
5.05386e-14
4.9504e-14
5.0665e-14
4.9707e-14
5.08019e-14
4.99312e-14
5.09389e-14
5.01403e-14
5.1047e-14
5.03542e-14
5.11712e-14
5.05464e-14
5.13191e-14
5.07725e-14
5.14345e-14
5.09793e-14
5.15981e-14
5.11669e-14
5.17358e-14
5.13729e-14
5.18473e-14
5.15259e-14
5.19847e-14
5.16982e-14
5.2093e-14
5.18902e-14
5.21885e-14
5.2068e-14
5.23405e-14
5.22679e-14
5.24585e-14
5.24384e-14
5.26116e-14
5.25977e-14
5.27456e-14
5.2781e-14
5.28421e-14
5.29379e-14
5.29692e-14
5.30692e-14
5.31604e-14
5.32426e-14
5.33471e-14
5.34059e-14
5.34779e-14
5.35262e-14
5.36386e-14
5.36703e-14
5.3761e-14
5.37869e-14
5.38621e-14
5.39446e-14
5.39759e-14
5.40594e-14
5.41173e-14
5.4215e-14
5.4202e-14
5.4279e-14
5.42603e-14
5.44012e-14
5.42907e-14
5.45177e-14
5.43873e-14
5.46126e-14
5.44978e-14
5.46683e-14
5.46048e-14
5.46987e-14
5.46771e-14
5.47662e-14
5.47323e-14
5.48865e-14
5.4834e-14
5.50283e-14
5.49479e-14
5.51292e-14
5.50403e-14
5.51902e-14
5.50789e-14
5.51961e-14
5.51571e-14
5.52676e-14
5.52303e-14
5.53251e-14
5.53286e-14
5.54597e-14
5.54218e-14
5.55357e-14
5.54615e-14
5.55554e-14
5.55063e-14
5.5606e-14
5.55569e-14
5.56706e-14
5.56716e-14
5.57008e-14
5.58224e-14
5.57318e-14
5.58538e-14
5.57915e-14
5.58399e-14
5.5852e-14
5.59198e-14
5.58811e-14
5.60063e-14
5.59605e-14
5.60741e-14
5.60013e-14
5.61235e-14
5.61154e-14
5.61537e-14
5.61414e-14
5.62125e-14
5.61611e-14
5.62447e-14
5.62283e-14
5.62791e-14
5.63178e-14
5.62853e-14
5.62994e-14
5.63105e-14
5.63293e-14
5.63599e-14
5.63529e-14
5.63815e-14
5.63953e-14
5.64267e-14
5.63991e-14
5.64951e-14
5.64607e-14
5.65696e-14
5.6503e-14
5.66026e-14
5.64763e-14
5.66196e-14
5.65758e-14
5.66272e-14
5.66386e-14
5.66404e-14
5.66737e-14
5.66527e-14
5.67076e-14
5.66857e-14
5.67383e-14
5.6715e-14
5.67182e-14
5.67646e-14
5.6686e-14
5.6795e-14
5.67025e-14
5.6816e-14
5.67234e-14
5.68279e-14
5.67255e-14
5.683e-14
5.67562e-14
5.68243e-14
5.67979e-14
5.68285e-14
5.68351e-14
5.68399e-14
5.68515e-14
5.68544e-14
5.68719e-14
5.68701e-14
2.34084e-14
2.57001e-14
2.34086e-14
2.57002e-14
2.3409e-14
2.57004e-14
2.34096e-14
2.57007e-14
2.34104e-14
2.57012e-14
2.34115e-14
2.57017e-14
2.34129e-14
2.57025e-14
2.34145e-14
2.57033e-14
2.34164e-14
2.57044e-14
2.34186e-14
2.57055e-14
2.3421e-14
2.57069e-14
2.34237e-14
2.57083e-14
2.34266e-14
2.571e-14
2.34298e-14
2.57118e-14
2.34333e-14
2.57138e-14
2.3437e-14
2.57159e-14
2.3441e-14
2.57183e-14
2.34454e-14
2.57208e-14
2.34501e-14
2.57234e-14
2.3455e-14
2.57261e-14
2.34603e-14
2.57291e-14
2.34658e-14
2.57323e-14
2.34717e-14
2.57358e-14
2.34778e-14
2.57395e-14
2.34844e-14
2.57433e-14
2.34913e-14
2.57472e-14
2.34984e-14
2.57514e-14
2.3506e-14
2.5756e-14
2.35141e-14
2.57609e-14
2.35227e-14
2.5766e-14
2.35316e-14
2.57712e-14
2.3541e-14
2.57768e-14
2.3551e-14
2.57829e-14
2.35617e-14
2.57893e-14
2.35728e-14
2.5796e-14
2.35845e-14
2.58032e-14
2.3597e-14
2.58106e-14
2.36102e-14
2.58185e-14
2.36241e-14
2.58267e-14
2.36388e-14
2.58353e-14
2.36544e-14
2.58446e-14
2.36705e-14
2.58545e-14
2.36877e-14
2.5865e-14
2.37059e-14
2.5876e-14
2.3725e-14
2.58877e-14
2.3745e-14
2.59001e-14
2.37661e-14
2.59134e-14
2.37881e-14
2.59275e-14
2.38113e-14
2.59422e-14
2.38354e-14
2.59576e-14
2.38609e-14
2.59736e-14
2.38874e-14
2.59906e-14
2.39154e-14
2.60086e-14
2.39446e-14
2.60273e-14
2.39752e-14
2.6047e-14
2.4007e-14
2.6068e-14
2.40402e-14
2.60897e-14
2.40746e-14
2.61128e-14
2.41104e-14
2.61374e-14
2.41476e-14
2.61625e-14
2.41867e-14
2.61886e-14
2.42272e-14
2.62162e-14
2.42691e-14
2.62453e-14
2.43125e-14
2.62745e-14
2.4357e-14
2.63053e-14
2.44039e-14
2.63371e-14
2.44524e-14
2.6369e-14
2.45021e-14
2.64028e-14
2.45537e-14
2.64374e-14
2.46065e-14
2.64728e-14
2.46606e-14
2.65101e-14
2.47163e-14
2.65492e-14
2.47736e-14
2.65898e-14
2.48325e-14
2.66321e-14
2.48931e-14
2.66756e-14
2.49554e-14
2.67192e-14
2.50196e-14
2.67646e-14
2.5086e-14
2.68119e-14
2.5154e-14
2.68589e-14
2.52227e-14
2.69074e-14
2.52934e-14
2.6959e-14
2.53663e-14
2.70117e-14
2.54405e-14
2.70661e-14
2.55169e-14
2.7122e-14
2.55955e-14
2.71792e-14
2.5675e-14
2.72375e-14
2.57551e-14
2.72991e-14
2.58373e-14
2.73606e-14
2.59201e-14
2.74238e-14
2.60051e-14
2.74895e-14
2.60941e-14
2.7556e-14
2.61835e-14
2.76258e-14
2.62743e-14
2.76973e-14
2.63666e-14
2.77679e-14
2.6461e-14
2.78427e-14
2.65568e-14
2.79219e-14
2.66541e-14
2.80055e-14
2.67535e-14
2.8089e-14
2.68553e-14
2.81696e-14
2.69584e-14
2.82528e-14
2.70648e-14
2.83413e-14
2.71688e-14
2.84326e-14
2.7277e-14
2.85264e-14
2.73884e-14
2.8622e-14
2.74983e-14
2.87203e-14
2.76124e-14
2.88182e-14
2.7725e-14
2.89199e-14
2.78388e-14
2.90271e-14
2.7956e-14
2.91331e-14
2.80764e-14
2.92408e-14
2.81971e-14
2.93531e-14
2.83192e-14
2.94651e-14
2.84425e-14
2.95767e-14
2.85701e-14
2.96888e-14
2.8699e-14
2.98036e-14
2.88313e-14
2.99211e-14
2.89628e-14
3.0039e-14
2.90986e-14
3.01575e-14
2.92357e-14
3.02807e-14
2.9374e-14
3.04032e-14
2.95158e-14
3.05262e-14
2.96587e-14
3.06484e-14
2.98018e-14
3.0771e-14
2.99494e-14
3.08982e-14
3.00982e-14
3.10279e-14
3.02482e-14
3.11599e-14
3.03973e-14
3.12944e-14
3.05498e-14
3.14291e-14
3.07034e-14
3.15616e-14
3.08628e-14
3.1692e-14
3.10166e-14
3.18314e-14
3.11739e-14
3.19775e-14
3.13324e-14
3.21213e-14
3.1492e-14
3.22651e-14
3.16551e-14
3.24133e-14
3.18194e-14
3.25636e-14
3.19872e-14
3.27183e-14
3.21515e-14
3.28728e-14
3.23147e-14
3.30317e-14
3.2479e-14
3.31879e-14
3.26514e-14
3.33367e-14
3.28156e-14
3.34944e-14
3.29856e-14
3.36611e-14
3.31591e-14
3.38225e-14
3.33337e-14
3.39786e-14
3.3507e-14
3.41388e-14
3.36815e-14
3.43078e-14
3.38618e-14
3.44809e-14
3.40433e-14
3.46508e-14
3.42235e-14
3.48199e-14
3.44023e-14
3.49929e-14
3.45847e-14
3.51601e-14
3.47657e-14
3.5336e-14
3.49502e-14
3.55158e-14
3.51383e-14
3.56895e-14
3.53274e-14
3.58621e-14
3.55201e-14
3.60384e-14
3.57016e-14
3.62182e-14
3.58892e-14
3.64017e-14
3.60828e-14
3.65837e-14
3.62726e-14
3.67642e-14
3.64586e-14
3.69433e-14
3.6658e-14
3.71182e-14
3.68488e-14
3.72964e-14
3.70458e-14
3.74778e-14
3.7229e-14
3.76623e-14
3.74135e-14
3.78549e-14
3.75992e-14
3.80455e-14
3.77911e-14
3.82292e-14
3.79793e-14
3.84108e-14
3.81636e-14
3.86054e-14
3.83543e-14
3.87878e-14
3.85562e-14
3.8958e-14
3.87544e-14
3.91308e-14
3.89239e-14
3.93212e-14
3.90998e-14
3.9494e-14
3.92821e-14
3.96692e-14
3.94507e-14
3.98621e-14
3.96206e-14
4.00473e-14
3.97917e-14
4.02147e-14
3.99692e-14
4.03846e-14
4.01278e-14
4.05669e-14
4.02875e-14
4.07517e-14
4.04433e-14
4.09237e-14
4.0595e-14
4.10932e-14
4.07628e-14
4.12754e-14
4.09365e-14
4.14603e-14
4.1116e-14
4.16428e-14
4.12861e-14
4.18129e-14
4.14569e-14
4.19909e-14
4.16234e-14
4.21615e-14
4.17905e-14
4.2325e-14
4.19583e-14
4.24963e-14
4.21266e-14
4.26756e-14
4.22954e-14
4.2853e-14
4.24747e-14
4.30182e-14
4.26595e-14
4.31816e-14
4.28195e-14
4.33631e-14
4.29951e-14
4.35377e-14
4.31912e-14
4.36904e-14
4.33728e-14
4.38561e-14
4.35449e-14
4.40449e-14
4.37177e-14
4.42266e-14
4.3896e-14
4.43964e-14
4.4085e-14
4.45542e-14
4.42647e-14
4.473e-14
4.44351e-14
4.49038e-14
4.46062e-14
4.50756e-14
4.4788e-14
4.52455e-14
4.49604e-14
4.54235e-14
4.51234e-14
4.55999e-14
4.52768e-14
4.57847e-14
4.54501e-14
4.59486e-14
4.56532e-14
4.61115e-14
4.58467e-14
4.62831e-14
4.60107e-14
4.64636e-14
4.6175e-14
4.66331e-14
4.6359e-14
4.67919e-14
4.65629e-14
4.69597e-14
4.67575e-14
4.71363e-14
4.69528e-14
4.73117e-14
4.71294e-14
4.74956e-14
4.73166e-14
4.76689e-14
4.75048e-14
4.78317e-14
4.7694e-14
4.80032e-14
4.78651e-14
4.81835e-14
4.80277e-14
4.83438e-14
4.82205e-14
4.84941e-14
4.84148e-14
4.86823e-14
4.86108e-14
4.88698e-14
4.87895e-14
4.9047e-14
4.89797e-14
4.92241e-14
4.91623e-14
4.94392e-14
4.93562e-14
4.96356e-14
4.95422e-14
4.98044e-14
4.97299e-14
4.99838e-14
4.99479e-14
5.0136e-14
5.01311e-14
5.0298e-14
5.03271e-14
5.04885e-14
5.05077e-14
5.06703e-14
5.06918e-14
5.0825e-14
5.08701e-14
5.09993e-14
5.10428e-14
5.11655e-14
5.12189e-14
5.13518e-14
5.13981e-14
5.15311e-14
5.15986e-14
5.16764e-14
5.1748e-14
5.18236e-14
5.19378e-14
5.20092e-14
5.21313e-14
5.21973e-14
5.23292e-14
5.23702e-14
5.24782e-14
5.25285e-14
5.26322e-14
5.26732e-14
5.27733e-14
5.2858e-14
5.29358e-14
5.30132e-14
5.31374e-14
5.3157e-14
5.32738e-14
5.32882e-14
5.34157e-14
5.34428e-14
5.35804e-14
5.36038e-14
5.36809e-14
5.37535e-14
5.37851e-14
5.39105e-14
5.396e-14
5.40595e-14
5.41033e-14
5.41656e-14
5.42335e-14
5.42624e-14
5.43693e-14
5.43831e-14
5.44942e-14
5.45444e-14
5.46241e-14
5.4697e-14
5.47747e-14
5.48265e-14
5.48983e-14
5.49675e-14
5.50112e-14
5.51062e-14
5.51294e-14
5.52451e-14
5.52196e-14
5.53532e-14
5.52987e-14
5.54322e-14
5.53681e-14
5.54996e-14
5.54443e-14
5.56049e-14
5.55415e-14
5.57016e-14
5.56264e-14
5.57742e-14
5.57156e-14
5.58229e-14
5.5796e-14
5.58943e-14
5.58701e-14
5.59886e-14
5.59064e-14
5.60921e-14
5.59634e-14
5.61628e-14
5.60383e-14
5.62176e-14
5.61627e-14
5.62573e-14
5.62373e-14
5.6339e-14
5.6294e-14
5.6434e-14
5.63757e-14
5.65152e-14
5.64245e-14
5.65815e-14
5.65443e-14
5.66514e-14
5.66223e-14
5.66961e-14
5.66628e-14
5.67719e-14
5.67806e-14
5.67951e-14
5.68401e-14
5.68738e-14
5.68424e-14
5.69539e-14
5.6864e-14
5.70161e-14
5.68739e-14
5.70374e-14
5.68994e-14
5.70484e-14
5.69677e-14
5.70487e-14
5.70292e-14
5.70069e-14
5.69889e-14
5.70213e-14
5.70297e-14
5.70686e-14
5.71249e-14
5.70981e-14
5.71514e-14
5.70778e-14
5.71176e-14
5.70794e-14
5.71216e-14
5.7103e-14
5.716e-14
5.70737e-14
5.71168e-14
5.70853e-14
5.71077e-14
5.70935e-14
5.71523e-14
5.7101e-14
5.72059e-14
5.71039e-14
5.72031e-14
5.71198e-14
5.7191e-14
5.71505e-14
5.71904e-14
5.71521e-14
5.7108e-14
5.71723e-14
5.71168e-14
5.71776e-14
5.70972e-14
5.71449e-14
5.70977e-14
5.71421e-14
5.70937e-14
5.70994e-14
5.70883e-14
5.71019e-14
5.70776e-14
5.71272e-14
5.70543e-14
5.71137e-14
5.69003e-14
5.6911e-14
5.68944e-14
5.69162e-14
5.69212e-14
5.69114e-14
5.69171e-14
5.69167e-14
5.68812e-14
5.68886e-14
5.69061e-14
5.68999e-14
5.68768e-14
5.69036e-14
5.68589e-14
5.6902e-14
5.68982e-14
5.6921e-14
5.69296e-14
5.69854e-14
5.69241e-14
5.69816e-14
5.69538e-14
5.69814e-14
5.69959e-14
5.70045e-14
5.7005e-14
5.7048e-14
5.70518e-14
5.70908e-14
5.70637e-14
5.7106e-14
5.70936e-14
5.70949e-14
5.71194e-14
5.71062e-14
5.71151e-14
5.71141e-14
5.71307e-14
5.71201e-14
5.71404e-14
5.71744e-14
5.72214e-14
5.72274e-14
5.73263e-14
5.72778e-14
5.73272e-14
5.73489e-14
5.73262e-14
5.73927e-14
5.74011e-14
5.74413e-14
5.74433e-14
5.74925e-14
5.74799e-14
5.75478e-14
5.75397e-14
5.76098e-14
5.7565e-14
5.76202e-14
5.75847e-14
5.7604e-14
5.7659e-14
5.76447e-14
5.77626e-14
5.76822e-14
5.77546e-14
5.77699e-14
5.78366e-14
5.7812e-14
5.78934e-14
5.7866e-14
5.78783e-14
5.79167e-14
5.78456e-14
5.79689e-14
5.78812e-14
5.79971e-14
5.79397e-14
5.80156e-14
5.7931e-14
5.80533e-14
5.79452e-14
5.80819e-14
5.80141e-14
5.81019e-14
5.79993e-14
5.81262e-14
5.80866e-14
5.81256e-14
5.81237e-14
5.81581e-14
5.81422e-14
5.81441e-14
5.81752e-14
5.81782e-14
5.82569e-14
5.82288e-14
5.83577e-14
5.8262e-14
5.83817e-14
5.82746e-14
5.83618e-14
5.82822e-14
5.83783e-14
5.8302e-14
5.84479e-14
5.83332e-14
5.84219e-14
5.83403e-14
5.83975e-14
5.83583e-14
5.84064e-14
5.84061e-14
5.84132e-14
5.84347e-14
5.84001e-14
5.84274e-14
5.83839e-14
5.84528e-14
5.84153e-14
5.84951e-14
5.84255e-14
5.85204e-14
5.84137e-14
5.85292e-14
5.84491e-14
5.85917e-14
5.84968e-14
5.86039e-14
5.85233e-14
5.85816e-14
5.853e-14
5.85589e-14
5.85352e-14
5.85709e-14
5.85567e-14
5.86005e-14
5.85585e-14
5.85936e-14
5.85766e-14
5.86035e-14
5.85931e-14
5.86124e-14
5.859e-14
5.86204e-14
5.85853e-14
5.85914e-14
5.85794e-14
5.85975e-14
5.85901e-14
5.86392e-14
5.85988e-14
5.86621e-14
5.86052e-14
5.86386e-14
5.86099e-14
5.86234e-14
5.86412e-14
5.86719e-14
5.86714e-14
5.87107e-14
5.86909e-14
5.874e-14
5.8709e-14
5.87692e-14
5.87255e-14
5.88079e-14
5.87402e-14
5.88379e-14
5.87623e-14
5.88501e-14
5.87732e-14
5.88632e-14
5.87728e-14
5.88865e-14
5.87895e-14
5.89109e-14
5.87944e-14
5.89175e-14
5.8826e-14
5.89161e-14
5.88368e-14
5.89349e-14
5.88362e-14
5.89549e-14
5.88531e-14
5.89473e-14
5.88586e-14
5.89504e-14
5.88625e-14
5.90031e-14
5.88739e-14
5.90185e-14
5.88733e-14
5.90354e-14
5.88899e-14
5.90344e-14
5.89045e-14
5.90153e-14
5.89173e-14
5.90363e-14
5.89285e-14
5.90584e-14
5.89379e-14
5.90618e-14
5.89457e-14
5.90664e-14
5.89519e-14
5.90821e-14
5.89665e-14
5.90989e-14
5.89893e-14
5.91069e-14
5.90108e-14
5.91059e-14
5.90211e-14
5.91156e-14
5.90303e-14
5.91358e-14
5.90482e-14
5.91569e-14
5.9055e-14
5.91886e-14
5.90804e-14
5.91812e-14
5.9105e-14
5.91743e-14
5.91189e-14
5.91977e-14
5.9122e-14
5.92214e-14
5.91343e-14
5.92155e-14
5.9146e-14
5.92098e-14
5.91521e-14
5.92144e-14
5.91627e-14
5.92292e-14
5.91779e-14
5.92391e-14
5.91876e-14
5.92594e-14
5.91968e-14
5.92749e-14
5.92158e-14
5.92858e-14
5.92244e-14
5.9297e-14
5.92327e-14
5.93237e-14
5.9261e-14
5.93206e-14
5.92891e-14
5.93127e-14
5.92871e-14
5.93201e-14
5.93003e-14
5.93327e-14
5.93238e-14
5.93404e-14
5.93273e-14
5.93482e-14
5.9331e-14
5.93511e-14
5.93399e-14
5.93592e-14
5.9349e-14
5.93775e-14
5.93583e-14
5.93706e-14
5.93628e-14
5.93739e-14
5.93625e-14
5.93924e-14
5.93675e-14
5.94162e-14
5.93725e-14
5.94502e-14
5.93776e-14
5.94694e-14
5.93776e-14
5.94838e-14
5.93827e-14
5.94986e-14
5.93927e-14
5.94986e-14
5.93976e-14
5.95142e-14
5.94074e-14
5.95301e-14
5.94172e-14
5.95363e-14
5.94269e-14
5.95428e-14
5.94315e-14
5.95446e-14
5.94411e-14
5.95517e-14
5.94456e-14
5.95491e-14
5.94401e-14
5.95468e-14
5.94347e-14
5.95497e-14
5.94341e-14
5.95579e-14
5.94335e-14
5.95565e-14
5.94378e-14
5.95603e-14
5.9437e-14
5.95693e-14
5.94362e-14
5.95737e-14
5.94352e-14
5.95685e-14
5.94316e-14
5.9566e-14
5.94279e-14
5.95663e-14
5.9429e-14
5.95668e-14
5.94324e-14
5.95627e-14
5.94235e-14
5.95662e-14
5.94168e-14
5.95675e-14
5.94125e-14
5.9574e-14
5.94104e-14
5.95758e-14
5.94178e-14
5.95828e-14
5.94178e-14
5.95804e-14
5.94103e-14
5.95636e-14
5.94075e-14
5.95544e-14
5.94118e-14
5.95479e-14
5.94207e-14
5.95464e-14
5.94199e-14
5.95499e-14
5.94166e-14
5.95487e-14
5.94179e-14
5.95478e-14
5.94192e-14
5.95517e-14
5.94179e-14
5.95464e-14
5.94166e-14
5.95389e-14
5.94128e-14
5.9548e-14
5.94159e-14
5.95525e-14
5.94143e-14
5.95502e-14
5.94126e-14
5.95481e-14
5.94108e-14
5.95508e-14
5.94112e-14
5.95467e-14
5.94093e-14
5.95382e-14
5.9405e-14
5.95367e-14
5.94029e-14
5.954e-14
5.9403e-14
5.95388e-14
5.94031e-14
5.95378e-14
5.94008e-14
5.95369e-14
5.93985e-14
5.95361e-14
5.93984e-14
5.95333e-14
5.94004e-14
5.95328e-14
5.94001e-14
5.95347e-14
5.9402e-14
5.95366e-14
5.94038e-14
5.95343e-14
5.94056e-14
5.95299e-14
5.94095e-14
5.95268e-14
5.94122e-14
5.9527e-14
5.94149e-14
5.9524e-14
5.94176e-14
5.95201e-14
5.94223e-14
5.95152e-14
5.9426e-14
5.95157e-14
5.94264e-14
5.95184e-14
5.9429e-14
5.95191e-14
5.94335e-14
5.95167e-14
5.94371e-14
5.95143e-14
5.94395e-14
5.95131e-14
5.9444e-14
5.95109e-14
5.94464e-14
5.95099e-14
5.94489e-14
5.95088e-14
5.94473e-14
5.95078e-14
5.94477e-14
5.95059e-14
5.94491e-14
5.9506e-14
5.94496e-14
5.95042e-14
5.945e-14
5.94987e-14
5.94504e-14
5.94951e-14
5.94547e-14
5.94906e-14
5.94542e-14
5.9489e-14
5.94537e-14
5.94874e-14
5.94533e-14
5.9485e-14
5.94529e-14
5.94817e-14
5.94525e-14
5.94803e-14
5.94521e-14
5.94789e-14
5.94517e-14
5.9474e-14
5.94505e-14
5.947e-14
5.9451e-14
5.94669e-14
5.94498e-14
5.94665e-14
5.94478e-14
5.9467e-14
5.94467e-14
5.94658e-14
5.94439e-14
5.94621e-14
5.94429e-14
5.94602e-14
5.9441e-14
5.9459e-14
5.94392e-14
5.94579e-14
5.94374e-14
5.94577e-14
5.94364e-14
5.94563e-14
5.94339e-14
5.94541e-14
5.9431e-14
5.94531e-14
5.94297e-14
5.94525e-14
5.94284e-14
5.94523e-14
5.94276e-14
5.94514e-14
5.94256e-14
5.94509e-14
5.94237e-14
5.94504e-14
5.94225e-14
5.94485e-14
5.94211e-14
5.94477e-14
5.94196e-14
5.94476e-14
5.94181e-14
5.94468e-14
5.94164e-14
5.94464e-14
5.94143e-14
5.94457e-14
5.94136e-14
5.9445e-14
5.94129e-14
5.9444e-14
5.94126e-14
5.94415e-14
5.94113e-14
5.94402e-14
5.94094e-14
5.94406e-14
5.94076e-14
5.94418e-14
5.94058e-14
5.94424e-14
5.94043e-14
5.94424e-14
5.94026e-14
5.94425e-14
5.94012e-14
5.94428e-14
5.93995e-14
5.94428e-14
5.93979e-14
5.94432e-14
5.93963e-14
5.94446e-14
5.93948e-14
5.94454e-14
5.93932e-14
5.94457e-14
5.93921e-14
5.94461e-14
5.93914e-14
5.94466e-14
5.93899e-14
5.9447e-14
5.93887e-14
5.94476e-14
5.93876e-14
5.94483e-14
5.93869e-14
5.9449e-14
5.93859e-14
5.94493e-14
5.93849e-14
5.94495e-14
5.93841e-14
5.94498e-14
5.93833e-14
5.94502e-14
5.93825e-14
5.94506e-14
5.93818e-14
5.94509e-14
5.93813e-14
5.94513e-14
5.93808e-14
5.94514e-14
5.93803e-14
5.94517e-14
5.93796e-14
5.94519e-14
5.93792e-14
5.9452e-14
5.93787e-14
5.9452e-14
5.93783e-14
5.94521e-14
5.93779e-14
5.94519e-14
5.93775e-14
5.94519e-14
5.93772e-14
5.9452e-14
5.93769e-14
5.94519e-14
5.93767e-14
5.94519e-14
5.93763e-14
5.94519e-14
5.93759e-14
5.94519e-14
5.93757e-14
5.94518e-14
5.93755e-14
5.94517e-14
5.93753e-14
5.94516e-14
5.93751e-14
5.94516e-14
5.93748e-14
5.94516e-14
5.93747e-14
5.94517e-14
5.93745e-14
5.94518e-14
5.93744e-14
5.94518e-14
5.93742e-14
5.94519e-14
5.9374e-14
5.94519e-14
5.93739e-14
5.94519e-14
5.93738e-14
5.94519e-14
5.93736e-14
5.9452e-14
5.93735e-14
5.94521e-14
5.93734e-14
5.94521e-14
5.93733e-14
5.94521e-14
5.93733e-14
5.94522e-14
5.93732e-14
5.94521e-14
5.93731e-14
5.94522e-14
5.9373e-14
5.94522e-14
5.9373e-14
5.94522e-14
5.93729e-14
5.94523e-14
5.93729e-14
5.94523e-14
5.93728e-14
5.94523e-14
5.93728e-14
5.94523e-14
5.93728e-14
5.94523e-14
5.93728e-14
5.94523e-14
5.93728e-14
5.94523e-14
5.93727e-14
5.94523e-14
5.70134e-14
5.70846e-14
5.70159e-14
5.70819e-14
5.70407e-14
5.70574e-14
5.7026e-14
5.7047e-14
5.69931e-14
5.7003e-14
5.70138e-14
5.69923e-14
5.69984e-14
5.70325e-14
5.69865e-14
5.70393e-14
5.69761e-14
5.70147e-14
5.70141e-14
5.70255e-14
5.70321e-14
5.70405e-14
5.71052e-14
5.70604e-14
5.71191e-14
5.71047e-14
5.71422e-14
5.71536e-14
5.71468e-14
5.72103e-14
5.71242e-14
5.72049e-14
5.7173e-14
5.71622e-14
5.72277e-14
5.71474e-14
5.72442e-14
5.71526e-14
5.72766e-14
5.72034e-14
5.72702e-14
5.72783e-14
5.7296e-14
5.73056e-14
5.73245e-14
5.73378e-14
5.73247e-14
5.74013e-14
5.73733e-14
5.74192e-14
5.74481e-14
5.747e-14
5.74957e-14
5.74962e-14
5.74892e-14
5.75228e-14
5.75658e-14
5.76081e-14
5.76122e-14
5.76685e-14
5.76565e-14
5.76775e-14
5.77022e-14
5.77197e-14
5.77485e-14
5.77953e-14
5.77029e-14
5.78489e-14
5.77501e-14
5.78702e-14
5.78472e-14
5.79311e-14
5.7878e-14
5.79543e-14
5.78742e-14
5.79984e-14
5.79405e-14
5.80356e-14
5.79881e-14
5.80333e-14
5.80039e-14
5.80649e-14
5.79872e-14
5.80846e-14
5.80451e-14
5.81096e-14
5.81167e-14
5.81065e-14
5.81284e-14
5.81501e-14
5.81722e-14
5.81636e-14
5.82178e-14
5.81608e-14
5.81869e-14
5.81882e-14
5.82049e-14
5.82323e-14
5.83026e-14
5.82778e-14
5.83184e-14
5.8323e-14
5.83495e-14
5.83529e-14
5.83803e-14
5.84345e-14
5.84093e-14
5.8521e-14
5.84841e-14
5.85145e-14
5.85086e-14
5.8529e-14
5.85345e-14
5.85473e-14
5.85451e-14
5.85855e-14
5.85394e-14
5.85933e-14
5.8517e-14
5.86227e-14
5.85279e-14
5.86408e-14
5.85546e-14
5.86471e-14
5.85631e-14
5.86928e-14
5.85701e-14
5.87096e-14
5.85573e-14
5.87495e-14
5.85756e-14
5.87257e-14
5.85908e-14
5.86899e-14
5.86044e-14
5.86758e-14
5.86171e-14
5.87363e-14
5.86457e-14
5.87656e-14
5.86727e-14
5.87635e-14
5.86808e-14
5.8729e-14
5.86887e-14
5.8733e-14
5.86969e-14
5.87392e-14
5.87053e-14
5.8766e-14
5.87138e-14
5.87775e-14
5.87222e-14
5.881e-14
5.87303e-14
5.88179e-14
5.87286e-14
5.88011e-14
5.87266e-14
5.88058e-14
5.87521e-14
5.8813e-14
5.87867e-14
5.88596e-14
5.87928e-14
5.88991e-14
5.88073e-14
5.88848e-14
5.88213e-14
5.88817e-14
5.8835e-14
5.89083e-14
5.88483e-14
5.89554e-14
5.88511e-14
5.89667e-14
5.88719e-14
5.89419e-14
5.88925e-14
5.89277e-14
5.89036e-14
5.89332e-14
5.89245e-14
5.89488e-14
5.89361e-14
5.89552e-14
5.89481e-14
5.89522e-14
5.89702e-14
5.89686e-14
5.90028e-14
5.90047e-14
5.9007e-14
5.90115e-14
5.90118e-14
5.90282e-14
5.9027e-14
5.90352e-14
5.90329e-14
5.90522e-14
5.90492e-14
5.90696e-14
5.90659e-14
5.90676e-14
5.90635e-14
5.90558e-14
5.90716e-14
5.90439e-14
5.90805e-14
5.90614e-14
5.91e-14
5.90885e-14
5.91202e-14
5.91156e-14
5.9131e-14
5.91228e-14
5.91523e-14
5.912e-14
5.91644e-14
5.9147e-14
5.91672e-14
5.91739e-14
5.91703e-14
5.92109e-14
5.91735e-14
5.92383e-14
5.91766e-14
5.92363e-14
5.91896e-14
5.9255e-14
5.92025e-14
5.92743e-14
5.92051e-14
5.92841e-14
5.92074e-14
5.92744e-14
5.92095e-14
5.92855e-14
5.92165e-14
5.92871e-14
5.92231e-14
5.92843e-14
5.92094e-14
5.92869e-14
5.92156e-14
5.92849e-14
5.91962e-14
5.92833e-14
5.91814e-14
5.92821e-14
5.91862e-14
5.92864e-14
5.91804e-14
5.93113e-14
5.91788e-14
5.93266e-14
5.91814e-14
5.93122e-14
5.91732e-14
5.92984e-14
5.91743e-14
5.93154e-14
5.91746e-14
5.93329e-14
5.91891e-14
5.93357e-14
5.91827e-14
5.93391e-14
5.91905e-14
5.93532e-14
5.91924e-14
5.93627e-14
5.91884e-14
5.93575e-14
5.91786e-14
5.93631e-14
5.9188e-14
5.93793e-14
5.92016e-14
5.94061e-14
5.91992e-14
5.94284e-14
5.92009e-14
5.94362e-14
5.92017e-14
5.94445e-14
5.92116e-14
5.94485e-14
5.92257e-14
5.9463e-14
5.92288e-14
5.94782e-14
5.92311e-14
5.94989e-14
5.92275e-14
5.95202e-14
5.9238e-14
5.9522e-14
5.92476e-14
5.95045e-14
5.92413e-14
5.94924e-14
5.92393e-14
5.9511e-14
5.92515e-14
5.951e-14
5.92629e-14
5.95046e-14
5.92687e-14
5.95046e-14
5.92838e-14
5.95149e-14
5.92883e-14
5.95157e-14
5.92923e-14
5.95119e-14
5.92957e-14
5.95085e-14
5.93036e-14
5.95103e-14
5.93135e-14
5.95149e-14
5.93205e-14
5.95149e-14
5.93246e-14
5.95101e-14
5.93332e-14
5.95032e-14
5.93439e-14
5.95088e-14
5.93495e-14
5.95121e-14
5.93596e-14
5.95059e-14
5.93597e-14
5.95022e-14
5.93669e-14
5.94987e-14
5.93787e-14
5.94953e-14
5.93806e-14
5.9492e-14
5.93775e-14
5.94889e-14
5.93768e-14
5.94858e-14
5.93758e-14
5.94853e-14
5.93699e-14
5.9492e-14
5.93639e-14
5.94916e-14
5.93625e-14
5.94842e-14
5.9361e-14
5.94769e-14
5.93616e-14
5.94745e-14
5.93551e-14
5.94721e-14
5.93484e-14
5.94628e-14
5.93463e-14
5.94513e-14
5.93441e-14
5.94468e-14
5.93418e-14
5.9447e-14
5.93394e-14
5.9445e-14
5.93322e-14
5.9443e-14
5.93296e-14
5.94365e-14
5.93268e-14
5.94346e-14
5.9324e-14
5.94328e-14
5.9321e-14
5.94265e-14
5.9318e-14
5.94202e-14
5.93216e-14
5.94185e-14
5.93206e-14
5.94191e-14
5.93196e-14
5.94219e-14
5.93118e-14
5.94248e-14
5.93105e-14
5.94232e-14
5.93092e-14
5.94173e-14
5.93078e-14
5.94137e-14
5.93041e-14
5.94144e-14
5.93015e-14
5.94119e-14
5.92988e-14
5.94084e-14
5.92981e-14
5.94081e-14
5.92974e-14
5.94058e-14
5.92965e-14
5.94024e-14
5.92977e-14
5.9396e-14
5.92989e-14
5.93906e-14
5.92989e-14
5.93873e-14
5.93008e-14
5.9382e-14
5.92997e-14
5.93778e-14
5.93005e-14
5.93757e-14
5.92973e-14
5.93745e-14
5.92959e-14
5.93724e-14
5.92966e-14
5.93673e-14
5.92972e-14
5.93633e-14
5.92957e-14
5.93632e-14
5.92952e-14
5.9363e-14
5.92937e-14
5.9362e-14
5.92921e-14
5.93619e-14
5.92906e-14
5.93598e-14
5.92889e-14
5.93588e-14
5.92873e-14
5.93596e-14
5.92865e-14
5.93595e-14
5.92848e-14
5.93576e-14
5.92858e-14
5.93557e-14
5.92822e-14
5.93556e-14
5.92796e-14
5.93555e-14
5.92769e-14
5.93563e-14
5.92759e-14
5.93562e-14
5.92749e-14
5.9357e-14
5.92756e-14
5.93569e-14
5.92763e-14
5.9356e-14
5.92752e-14
5.93534e-14
5.92741e-14
5.93509e-14
5.92746e-14
5.93492e-14
5.92751e-14
5.93484e-14
5.92744e-14
5.93483e-14
5.92748e-14
5.93467e-14
5.92764e-14
5.93428e-14
5.92775e-14
5.934e-14
5.92782e-14
5.93396e-14
5.92785e-14
5.93385e-14
5.92795e-14
5.93358e-14
5.92805e-14
5.9334e-14
5.92815e-14
5.93336e-14
5.92824e-14
5.93325e-14
5.92826e-14
5.93307e-14
5.92845e-14
5.93297e-14
5.92853e-14
5.933e-14
5.92854e-14
5.93306e-14
5.92859e-14
5.93303e-14
5.92863e-14
5.93306e-14
5.92867e-14
5.93308e-14
5.92874e-14
5.93299e-14
5.92881e-14
5.93298e-14
5.92872e-14
5.93316e-14
5.9287e-14
5.93328e-14
5.92867e-14
5.93331e-14
5.9287e-14
5.9333e-14
5.92873e-14
5.93341e-14
5.92867e-14
5.93355e-14
5.92859e-14
5.93368e-14
5.92856e-14
5.93376e-14
5.92847e-14
5.93386e-14
5.92844e-14
5.93398e-14
5.92836e-14