/*--------------------------------*- C++ -*----------------------------------*\
| =========                 |                                                 |
| \\      /  F ield         | OpenFOAM: The Open Source CFD Toolbox           |
|  \\    /   O peration     | Version:  2106                                  |
|   \\  /    A nd           | Website:  www.openfoam.com                      |
|    \\/     M anipulation  |                                                 |
\*---------------------------------------------------------------------------*/
FoamFile
{
    version     2.0;
    format      ascii;
    arch        "LSB;label=32;scalar=64";
    class       surfaceScalarField;
    location    "16000";
    object      phi;
}
// * * * * * * * * * * * * * * * * * * * * * * * * * * * * * * * * * * * * * //

dimensions      [0 3 -1 0 0 0 0];

oriented        oriented;

internalField   nonuniform List<scalar> 
5116
(
2.58167e-08
-4.7843e-18
-4.14728e-22
-8.41249e-22
-2.36057e-23
7.89493e-08
-4.77913e-18
-1.83545e-21
-3.82117e-21
-3.4557e-22
1.34392e-07
-4.77383e-18
-1.89074e-21
-6.87821e-21
-3.60815e-22
1.92223e-07
-4.76835e-18
-1.95095e-21
-1.00573e-20
-3.76703e-22
2.52523e-07
-4.76272e-18
-2.01323e-21
-1.33115e-20
-3.93259e-22
3.15375e-07
-4.75684e-18
-2.07758e-21
-1.67187e-20
-4.10509e-22
3.80865e-07
-4.75088e-18
-2.14436e-21
-2.00897e-20
-4.28477e-22
4.4908e-07
-4.74477e-18
-2.21358e-21
-2.35779e-20
-4.47191e-22
5.20112e-07
-4.73845e-18
-2.28525e-21
-2.71398e-20
-4.66677e-22
5.94053e-07
-4.73195e-18
-2.35939e-21
-3.07457e-20
-4.86961e-22
6.70997e-07
-4.72518e-18
-2.43606e-21
-3.46202e-20
-5.08067e-22
7.51041e-07
-4.71825e-18
-2.5153e-21
-3.8508e-20
-5.30011e-22
8.3428e-07
-4.711e-18
-2.59714e-21
-4.2469e-20
-5.52809e-22
9.20812e-07
-4.70357e-18
-2.68157e-21
-4.6673e-20
-5.76471e-22
1.01073e-06
-4.69594e-18
-2.76856e-21
-5.08662e-20
-6.00991e-22
1.10414e-06
-4.68829e-18
-2.858e-21
-5.52576e-20
-6.26361e-22
1.20112e-06
-4.6798e-18
-2.94976e-21
-5.99033e-20
-6.52552e-22
1.30176e-06
-4.67134e-18
-3.04362e-21
-6.45029e-20
-6.79515e-22
1.40614e-06
-4.6629e-18
-3.13927e-21
-6.92189e-20
-7.07196e-22
1.51434e-06
-4.65403e-18
-3.23633e-21
-7.41408e-20
-7.35507e-22
1.62639e-06
-4.64493e-18
-3.33431e-21
-7.9118e-20
-7.64343e-22
1.74236e-06
-4.63548e-18
-3.43261e-21
-8.4343e-20
-7.93571e-22
1.86227e-06
-4.62635e-18
-3.53055e-21
-8.98991e-20
-8.23024e-22
1.98612e-06
-4.61595e-18
-3.62734e-21
-9.55725e-20
-8.52507e-22
2.11389e-06
-4.60588e-18
-3.72216e-21
-1.01265e-19
-8.818e-22
2.24556e-06
-4.59565e-18
-3.8141e-21
-1.0669e-19
-9.10672e-22
2.38106e-06
-4.58565e-18
-3.90222e-21
-1.1211e-19
-9.38896e-22
2.52031e-06
-4.57441e-18
-3.9856e-21
-1.17831e-19
-9.66229e-22
2.66319e-06
-4.56293e-18
-4.06344e-21
-1.23648e-19
-9.92434e-22
2.8096e-06
-4.55156e-18
-4.13495e-21
-1.29443e-19
-1.0173e-21
2.95937e-06
-4.53991e-18
-4.19953e-21
-1.34831e-19
-1.04064e-21
3.11238e-06
-4.52806e-18
-4.25669e-21
-1.41154e-19
-1.06232e-21
3.26844e-06
-4.51614e-18
-4.30615e-21
-1.47742e-19
-1.08223e-21
3.4274e-06
-4.5043e-18
-4.34779e-21
-1.54043e-19
-1.10027e-21
3.58909e-06
-4.49166e-18
-4.38168e-21
-1.60909e-19
-1.11643e-21
3.75337e-06
-4.47989e-18
-4.40806e-21
-1.6743e-19
-1.13073e-21
3.92008e-06
-4.46814e-18
-4.42728e-21
-1.72572e-19
-1.14322e-21
4.0891e-06
-4.45727e-18
-4.43984e-21
-1.77884e-19
-1.15402e-21
4.2603e-06
-4.44419e-18
-4.44623e-21
-1.83332e-19
-1.16322e-21
4.43359e-06
-4.43314e-18
-4.44711e-21
-1.88804e-19
-1.17096e-21
4.60887e-06
-4.42146e-18
-4.44307e-21
-1.93796e-19
-1.1774e-21
4.78609e-06
-4.41065e-18
-4.43468e-21
-1.98532e-19
-1.18266e-21
4.96519e-06
-4.39894e-18
-4.42261e-21
-2.04281e-19
-1.18692e-21
5.14613e-06
-4.38904e-18
-4.40744e-21
-2.08678e-19
-1.19028e-21
5.3289e-06
-4.37679e-18
-4.38963e-21
-2.13767e-19
-1.19296e-21
5.5135e-06
-4.36553e-18
-4.36973e-21
-2.19525e-19
-1.19504e-21
5.69992e-06
-4.35544e-18
-4.34817e-21
-2.24346e-19
-1.19657e-21
5.88818e-06
-4.34342e-18
-4.32529e-21
-2.30061e-19
-1.1977e-21
6.0783e-06
-4.33277e-18
-4.30151e-21
-2.35591e-19
-1.19847e-21
6.27033e-06
-4.32188e-18
-4.27706e-21
-2.40811e-19
-1.19895e-21
6.4643e-06
-4.31169e-18
-4.25224e-21
-2.45285e-19
-1.19918e-21
6.66026e-06
-4.29974e-18
-4.22719e-21
-2.50887e-19
-1.19931e-21
6.85826e-06
-4.28848e-18
-4.20218e-21
-2.56389e-19
-1.19931e-21
7.05836e-06
-4.27686e-18
-4.17731e-21
-2.61907e-19
-1.1992e-21
7.26062e-06
-4.26587e-18
-4.15273e-21
-2.66611e-19
-1.19904e-21
7.46509e-06
-4.25472e-18
-4.12851e-21
-2.72626e-19
-1.19884e-21
7.67186e-06
-4.2449e-18
-4.10473e-21
-2.80431e-19
-1.19859e-21
7.88098e-06
-4.23269e-18
-4.08132e-21
-2.86659e-19
-1.1983e-21
8.09253e-06
-4.22056e-18
-4.05847e-21
-2.94963e-19
-1.19807e-21
8.30657e-06
-4.20855e-18
-4.03619e-21
-3.01181e-19
-1.19766e-21
8.52319e-06
-4.19662e-18
-4.0145e-21
-3.08281e-19
-1.19712e-21
8.74244e-06
-4.18544e-18
-3.99339e-21
-3.16105e-19
-1.19645e-21
8.96442e-06
-4.17406e-18
-3.97284e-21
-3.22387e-19
-1.19557e-21
9.18919e-06
-4.16502e-18
-3.95288e-21
-3.25702e-19
-1.19443e-21
9.41683e-06
-4.15594e-18
-3.93344e-21
-3.26876e-19
-1.19308e-21
9.64741e-06
-4.14791e-18
-3.91453e-21
-3.30282e-19
-1.19165e-21
9.88103e-06
-4.13949e-18
-3.89615e-21
-3.34546e-19
-1.1899e-21
1.01177e-05
-4.12717e-18
-3.87805e-21
-3.40985e-19
-1.18814e-21
1.03576e-05
-4.11962e-18
-3.86042e-21
-3.45422e-19
-1.18619e-21
1.06008e-05
-4.10915e-18
-3.84286e-21
-3.45821e-19
-1.18404e-21
1.08473e-05
-4.10054e-18
-3.82557e-21
-3.50238e-19
-1.18211e-21
1.10972e-05
-4.09192e-18
-3.8084e-21
-3.53246e-19
-1.18019e-21
1.13506e-05
-4.08477e-18
-3.7913e-21
-3.58474e-19
-1.17833e-21
1.16076e-05
-4.07439e-18
-3.77408e-21
-3.61121e-19
-1.17629e-21
1.18682e-05
-4.06567e-18
-3.75706e-21
-3.66275e-19
-1.17409e-21
1.21326e-05
-4.05772e-18
-3.73996e-21
-3.70146e-19
-1.17143e-21
1.24009e-05
-4.05195e-18
-3.72279e-21
-3.74076e-19
-1.16882e-21
1.2673e-05
-4.045e-18
-3.7053e-21
-3.77333e-19
-1.16624e-21
1.29491e-05
-4.03805e-18
-3.68772e-21
-3.81363e-19
-1.16319e-21
1.32293e-05
-4.02995e-18
-3.66999e-21
-3.86213e-19
-1.15976e-21
1.35137e-05
-4.02037e-18
-3.65232e-21
-3.90844e-19
-1.15609e-21
1.38023e-05
-4.01278e-18
-3.63477e-21
-3.94412e-19
-1.15193e-21
1.40952e-05
-4.004e-18
-3.617e-21
-3.9897e-19
-1.14732e-21
1.43926e-05
-3.99601e-18
-3.59931e-21
-4.04417e-19
-1.14197e-21
1.46945e-05
-3.9869e-18
-3.58161e-21
-4.0928e-19
-1.1357e-21
1.5001e-05
-3.9785e-18
-3.56379e-21
-4.13247e-19
-1.12873e-21
1.53121e-05
-3.96906e-18
-3.54579e-21
-4.20644e-19
-1.1215e-21
1.56281e-05
-3.95482e-18
-3.52805e-21
-4.27805e-19
-1.11306e-21
1.59489e-05
-3.94213e-18
-3.51111e-21
-4.33809e-19
-1.10335e-21
1.62747e-05
-3.93022e-18
-3.49487e-21
-4.40688e-19
-1.09268e-21
1.66056e-05
-3.92615e-18
-3.48003e-21
-4.39896e-19
-1.08067e-21
1.69416e-05
-3.91831e-18
-3.46503e-21
-4.37071e-19
-1.06868e-21
1.72829e-05
-3.91246e-18
-3.45039e-21
-4.39023e-19
-1.05688e-21
1.76295e-05
-3.90546e-18
-3.43578e-21
-4.38416e-19
-1.04436e-21
1.79815e-05
-3.90184e-18
-3.42147e-21
-4.40944e-19
-1.03286e-21
1.83392e-05
-3.8912e-18
-3.40615e-21
-4.43112e-19
-1.02205e-21
1.87024e-05
-3.88425e-18
-3.39098e-21
-4.46038e-19
-1.01117e-21
1.90715e-05
-3.87317e-18
-3.37501e-21
-4.45243e-19
-9.9931e-22
1.94464e-05
-3.86731e-18
-3.35969e-21
-4.423e-19
-9.86844e-22
1.98272e-05
-3.86318e-18
-3.3445e-21
-4.43564e-19
-9.75168e-22
2.02141e-05
-3.85377e-18
-3.32907e-21
-4.42596e-19
-9.63658e-22
2.06072e-05
-3.84657e-18
-3.31322e-21
-4.46221e-19
-9.5224e-22
2.10066e-05
-3.83803e-18
-3.29721e-21
-4.46846e-19
-9.40193e-22
2.14124e-05
-3.83023e-18
-3.28099e-21
-4.50846e-19
-9.28149e-22
2.18247e-05
-3.82534e-18
-3.26335e-21
-4.54991e-19
-9.15107e-22
2.22437e-05
-3.81638e-18
-3.24583e-21
-4.56932e-19
-9.0101e-22
2.26694e-05
-3.80491e-18
-3.22717e-21
-4.62035e-19
-8.87005e-22
2.31019e-05
-3.79872e-18
-3.209e-21
-4.67169e-19
-8.7325e-22
2.35415e-05
-3.79081e-18
-3.19088e-21
-4.67218e-19
-8.58194e-22
2.39881e-05
-3.78147e-18
-3.17267e-21
-4.68755e-19
-8.42615e-22
2.4442e-05
-3.77388e-18
-3.154e-21
-4.70889e-19
-8.26633e-22
2.49032e-05
-3.77003e-18
-3.13579e-21
-4.73329e-19
-8.08504e-22
2.53719e-05
-3.76458e-18
-3.1167e-21
-4.76434e-19
-7.89157e-22
2.58482e-05
-3.75644e-18
-3.09743e-21
-4.79159e-19
-7.686e-22
2.63322e-05
-3.74786e-18
-3.07781e-21
-4.83121e-19
-7.46465e-22
2.68241e-05
-3.73861e-18
-3.05802e-21
-4.83328e-19
-7.23205e-22
2.73241e-05
-3.73007e-18
-3.03835e-21
-4.85002e-19
-6.99008e-22
2.78321e-05
-3.71579e-18
-3.01952e-21
-4.89529e-19
-6.73338e-22
2.83485e-05
-3.70721e-18
-3.00158e-21
-4.92716e-19
-6.45683e-22
2.88732e-05
-3.70137e-18
-2.98248e-21
-4.94071e-19
-6.16184e-22
2.94066e-05
-3.68258e-18
-2.96218e-21
-5.01236e-19
-5.8654e-22
2.99486e-05
-3.6722e-18
-2.94418e-21
-5.02129e-19
-5.53615e-22
3.04995e-05
-3.6637e-18
-2.92607e-21
-5.08322e-19
-5.18328e-22
3.10594e-05
-3.66195e-18
-2.90987e-21
-5.05666e-19
-4.8102e-22
3.16285e-05
-3.65469e-18
-2.89246e-21
-4.98846e-19
-4.44718e-22
3.22069e-05
-3.65128e-18
-2.87508e-21
-4.99682e-19
-4.09763e-22
3.27947e-05
-3.6569e-18
-2.85713e-21
-4.89286e-19
-3.75667e-22
3.33922e-05
-3.6571e-18
-2.83799e-21
-4.80803e-19
-3.42104e-22
3.39995e-05
-3.64894e-18
-2.81923e-21
-4.72514e-19
-3.0551e-22
3.46167e-05
-3.64881e-18
-2.80376e-21
-4.5983e-19
-2.68018e-22
3.52441e-05
-3.63969e-18
-2.78348e-21
-4.64077e-19
-2.34428e-22
3.58817e-05
-3.64419e-18
-2.76602e-21
-4.61338e-19
-1.98644e-22
3.65298e-05
-3.63816e-18
-2.74426e-21
-4.58235e-19
-1.64871e-22
3.71886e-05
-3.62529e-18
-2.72135e-21
-4.66017e-19
-1.32793e-22
3.78582e-05
-3.61422e-18
-2.70513e-21
-4.68048e-19
-9.58078e-23
3.85387e-05
-3.6088e-18
-2.69011e-21
-4.73889e-19
-5.60418e-23
3.92305e-05
-3.60466e-18
-2.6733e-21
-4.77192e-19
-1.70272e-23
3.99336e-05
-3.60554e-18
-2.65286e-21
-4.85169e-19
2.58769e-23
4.06482e-05
-3.59595e-18
-2.62887e-21
-4.79103e-19
7.57136e-23
4.13747e-05
-3.57921e-18
-2.60707e-21
-4.72692e-19
1.27399e-22
4.2113e-05
-3.57003e-18
-2.59388e-21
-4.78028e-19
1.79765e-22
4.28635e-05
-3.56105e-18
-2.57984e-21
-4.79014e-19
2.3717e-22
4.36263e-05
-3.56026e-18
-2.56771e-21
-4.78904e-19
2.94554e-22
4.44017e-05
-3.54976e-18
-2.55214e-21
-4.7993e-19
3.51899e-22
4.51898e-05
-3.54026e-18
-2.53762e-21
-4.83217e-19
4.1317e-22
4.59909e-05
-3.52939e-18
-2.52363e-21
-4.89534e-19
4.73102e-22
4.68052e-05
-3.5287e-18
-2.51376e-21
-4.86678e-19
5.30801e-22
4.76329e-05
-3.52537e-18
-2.49782e-21
-4.86205e-19
5.8054e-22
4.84742e-05
-3.52176e-18
-2.47823e-21
-4.95461e-19
6.29757e-22
4.93293e-05
-3.50188e-18
-2.45349e-21
-5.08108e-19
6.8343e-22
5.01985e-05
-3.48531e-18
-2.4319e-21
-5.23516e-19
7.42804e-22
5.1082e-05
-3.4734e-18
-2.41694e-21
-5.3452e-19
8.14597e-22
5.198e-05
-3.46071e-18
-2.4034e-21
-5.37002e-19
8.88957e-22
5.28928e-05
-3.43374e-18
-2.39435e-21
-5.50506e-19
9.58148e-22
5.38206e-05
-3.42191e-18
-2.40097e-21
-5.55531e-19
1.03773e-21
5.47637e-05
-3.40903e-18
-2.40887e-21
-5.67113e-19
1.11225e-21
5.57224e-05
-3.39195e-18
-2.42038e-21
-5.79318e-19
1.18647e-21
5.66967e-05
-3.37948e-18
-2.42963e-21
-5.88769e-19
1.27526e-21
5.76871e-05
-3.35736e-18
-2.44261e-21
-6.04291e-19
1.36424e-21
5.86939e-05
-3.32919e-18
-2.46487e-21
-6.12341e-19
1.45469e-21
5.97171e-05
-3.31096e-18
-2.4946e-21
-6.2728e-19
1.55036e-21
6.07572e-05
-3.29418e-18
-2.52676e-21
-6.42619e-19
1.66077e-21
6.18144e-05
-3.30311e-18
-2.57466e-21
-6.53609e-19
1.77649e-21
6.2889e-05
-3.30854e-18
-2.59232e-21
-6.45312e-19
1.88507e-21
6.39813e-05
-3.29799e-18
-2.61353e-21
-6.59179e-19
1.96931e-21
6.50915e-05
-3.28963e-18
-2.63351e-21
-6.67275e-19
2.05785e-21
6.622e-05
-3.28725e-18
-2.66887e-21
-6.75072e-19
2.13349e-21
6.7367e-05
-3.2803e-18
-2.7156e-21
-7.03075e-19
2.21367e-21
6.85329e-05
-3.27006e-18
-2.77067e-21
-7.03237e-19
2.30779e-21
6.9718e-05
-3.26351e-18
-2.83071e-21
-7.17722e-19
2.404e-21
7.09225e-05
-3.26993e-18
-2.88582e-21
-7.30434e-19
2.49673e-21
7.21468e-05
-3.2515e-18
-2.93119e-21
-7.51978e-19
2.61296e-21
7.33913e-05
-3.25787e-18
-3.01365e-21
-7.58797e-19
2.75522e-21
7.46562e-05
-3.23901e-18
-3.07677e-21
-7.51508e-19
2.91136e-21
7.59418e-05
-3.23203e-18
-3.10563e-21
-7.62069e-19
3.03668e-21
7.72486e-05
-3.21388e-18
-3.12785e-21
-7.57685e-19
3.19994e-21
7.85769e-05
-3.20805e-18
-3.169e-21
-7.69e-19
3.343e-21
7.99269e-05
-3.19171e-18
-3.17866e-21
-7.79746e-19
3.46091e-21
8.12991e-05
-3.17303e-18
-3.17576e-21
-7.78091e-19
3.59256e-21
8.26939e-05
-3.17231e-18
-3.17356e-21
-7.8192e-19
3.73175e-21
8.41115e-05
-3.15443e-18
-3.14592e-21
-7.84842e-19
3.83661e-21
8.55524e-05
-3.12568e-18
-3.08663e-21
-7.81802e-19
3.8981e-21
8.70169e-05
-3.11024e-18
-3.05591e-21
-7.86158e-19
3.94073e-21
8.85055e-05
-3.10184e-18
-3.01167e-21
-7.91649e-19
4.00325e-21
9.00184e-05
-3.08206e-18
-2.93893e-21
-7.84623e-19
4.06922e-21
9.15562e-05
-3.06402e-18
-2.89437e-21
-7.98376e-19
4.08454e-21
9.31192e-05
-3.02294e-18
-2.85849e-21
-8.16964e-19
4.09344e-21
9.47078e-05
-3.01405e-18
-2.87219e-21
-8.35491e-19
4.10039e-21
9.63224e-05
-3.0006e-18
-2.83146e-21
-8.54606e-19
4.139e-21
9.79635e-05
-2.98728e-18
-2.77398e-21
-8.6932e-19
4.19096e-21
9.96315e-05
-2.96053e-18
-2.68996e-21
-8.61288e-19
4.25216e-21
0.000101327
-2.93702e-18
-2.61349e-21
-8.68812e-19
4.30097e-21
0.00010305
-2.90578e-18
-2.52764e-21
-8.92204e-19
4.34503e-21
0.000104801
-2.87939e-18
-2.44021e-21
-8.97728e-19
4.43172e-21
0.000106581
-2.8673e-18
-2.35096e-21
-9.11968e-19
4.51288e-21
0.00010839
-2.82171e-18
-2.24686e-21
-9.33145e-19
4.55975e-21
0.000110229
-2.80154e-18
-2.19128e-21
-9.63299e-19
4.60826e-21
0.000112097
-2.77439e-18
-2.08452e-21
-9.84408e-19
4.67886e-21
0.000113996
-2.7396e-18
-2.03202e-21
-1.00482e-18
4.72187e-21
0.000115927
-2.72099e-18
-2.09188e-21
-1.03317e-18
4.76694e-21
0.000117889
-2.67434e-18
-2.12878e-21
-1.05877e-18
4.82969e-21
0.000119882
-2.67166e-18
-2.22044e-21
-1.06694e-18
4.86738e-21
0.000121909
-2.65756e-18
-2.30314e-21
-1.07177e-18
4.96786e-21
0.000123968
-2.65278e-18
-2.38147e-21
-1.03968e-18
5.10648e-21
0.000126061
-2.64548e-18
-2.47309e-21
-1.04882e-18
5.19416e-21
0.000128189
-2.62547e-18
-2.47083e-21
-1.07896e-18
5.26162e-21
0.000130351
-2.63031e-18
-2.39265e-21
-1.05835e-18
5.32522e-21
0.000132548
-2.613e-18
-2.23125e-21
-1.07141e-18
5.27738e-21
0.000134781
-2.63233e-18
-2.03226e-21
-1.04702e-18
5.25392e-21
0.00013705
-2.6145e-18
-1.70442e-21
-1.08477e-18
5.0657e-21
0.000139357
-2.5998e-18
-1.36747e-21
-1.09954e-18
5.0546e-21
0.000141701
-2.57924e-18
-1.11696e-21
-1.10929e-18
5.1137e-21
0.000144083
-2.55856e-18
-9.78835e-22
-1.1081e-18
5.19665e-21
0.000146504
-2.54754e-18
-9.623e-22
-1.09417e-18
5.18856e-21
0.000148964
-2.50771e-18
-9.13771e-22
-1.13341e-18
5.01512e-21
0.000151465
-2.49666e-18
-9.74948e-22
-1.14948e-18
4.96317e-21
0.000154006
-2.4733e-18
-1.04021e-21
-1.16044e-18
5.00894e-21
0.000156588
-2.45462e-18
-1.25489e-21
-1.1826e-18
5.05518e-21
0.000159212
-2.44213e-18
-1.55037e-21
-1.19631e-18
5.12933e-21
0.000161879
-2.42579e-18
-1.78754e-21
-1.20658e-18
5.18737e-21
0.000164589
-2.41993e-18
-2.0047e-21
-1.21863e-18
5.07464e-21
0.000167343
-2.402e-18
-2.08181e-21
-1.23374e-18
4.82938e-21
0.000170142
-2.38294e-18
-2.21213e-21
-1.26239e-18
4.72609e-21
0.000172986
-2.37064e-18
-2.35927e-21
-1.25831e-18
4.7775e-21
0.000175877
-2.33255e-18
-2.48428e-21
-1.28639e-18
4.50279e-21
0.000178814
-2.31531e-18
-2.49412e-21
-1.30258e-18
4.15416e-21
0.000181798
-2.30828e-18
-2.46744e-21
-1.32857e-18
3.95061e-21
0.000184831
-2.2738e-18
-2.42991e-21
-1.35529e-18
3.85324e-21
0.000187913
-2.25456e-18
-2.57581e-21
-1.36516e-18
3.62289e-21
0.000191045
-2.26368e-18
-2.85499e-21
-1.38317e-18
3.17627e-21
0.000194227
-2.28499e-18
-3.00198e-21
-1.41035e-18
2.60851e-21
0.000197461
-2.25158e-18
-2.98258e-21
-1.4466e-18
1.98645e-21
0.000200747
-2.26189e-18
-3.15991e-21
-1.42782e-18
1.43713e-21
0.000204086
-2.27341e-18
-3.41624e-21
-1.41857e-18
7.84975e-22
0.000207479
-2.26088e-18
-3.56084e-21
-1.43651e-18
1.8297e-22
0.000210927
-2.29039e-18
-3.90031e-21
-1.41083e-18
-5.63505e-23
0.00021443
-2.26879e-18
-4.1895e-21
-1.44675e-18
-2.31966e-22
0.00021799
-2.27864e-18
-4.45069e-21
-1.45963e-18
-1.89178e-22
0.000221606
-2.28078e-18
-4.88735e-21
-1.46325e-18
-3.84849e-22
0.000225281
-2.31485e-18
-5.16473e-21
-1.46438e-18
-5.23809e-22
0.000229015
-2.30043e-18
-4.94887e-21
-1.44419e-18
-5.30628e-22
0.000232809
-2.29018e-18
-4.56935e-21
-1.47248e-18
-1.30646e-21
0.000236664
-2.26416e-18
-4.18111e-21
-1.48999e-18
-1.67553e-21
0.000240581
-2.294e-18
-4.24487e-21
-1.44096e-18
-1.94939e-21
0.00024456
-2.25504e-18
-4.14772e-21
-1.50722e-18
-2.72805e-21
0.000248603
-2.16666e-18
-3.93617e-21
-1.54113e-18
-2.93453e-21
0.000252711
-2.1399e-18
-3.69788e-21
-1.56279e-18
-3.90995e-21
0.000256884
-2.02123e-18
-3.91298e-21
-1.62087e-18
-5.31482e-21
0.000261124
-1.9684e-18
-4.95437e-21
-1.54196e-18
-5.95286e-21
0.000265432
-1.99045e-18
-5.78343e-21
-1.45738e-18
-7.38395e-21
0.000269808
-1.96105e-18
-4.95506e-21
-1.46548e-18
-9.10509e-21
0.000274254
-1.92584e-18
-4.08857e-21
-1.45098e-18
-1.00256e-20
0.000278771
-1.88503e-18
-3.44733e-21
-1.45341e-18
-1.12516e-20
0.00028336
-1.81455e-18
-3.53361e-21
-1.44729e-18
-1.17349e-20
0.000288021
-1.78136e-18
-4.40834e-21
-1.43297e-18
-1.22633e-20
0.000292757
-1.71324e-18
-3.95222e-21
-1.49152e-18
-1.25575e-20
0.000297567
-1.62763e-18
-3.55812e-21
-1.53286e-18
-1.21804e-20
0.000302454
-1.62181e-18
-3.98179e-21
-1.51196e-18
-1.03749e-20
0.000307418
-1.61308e-18
-2.71613e-21
-1.41957e-18
-8.69355e-21
0.00031246
-1.52265e-18
-7.05974e-22
-1.47149e-18
-8.62101e-21
0.000317582
-1.54444e-18
-4.18141e-22
-1.43801e-18
-7.7152e-21
0.000322785
-1.50717e-18
5.31902e-22
-1.42408e-18
-6.96067e-21
0.000328069
-1.51367e-18
1.18786e-21
-1.40383e-18
-6.00461e-21
0.000333437
-1.47887e-18
2.3455e-21
-1.35655e-18
-5.42157e-21
0.000338888
-1.50507e-18
2.99234e-21
-1.30867e-18
-5.90026e-21
0.000344426
-1.35955e-18
3.61937e-21
-1.25084e-18
-7.50223e-21
0.000350049
-1.42152e-18
9.73993e-22
-1.19189e-18
-9.5829e-21
0.000355761
-1.35824e-18
4.14953e-22
-1.27495e-18
-1.28486e-20
0.000361562
-1.35883e-18
-8.02899e-22
-1.30264e-18
-1.47093e-20
0.000367453
-1.2476e-18
-1.90204e-21
-1.38005e-18
-1.6845e-20
0.000373435
-1.27143e-18
-4.08839e-21
-1.3693e-18
-1.75243e-20
0.00037951
-1.31554e-18
-5.22308e-21
-1.39445e-18
-1.88497e-20
0.00038568
-1.37607e-18
-4.65585e-21
-1.33917e-18
-1.84825e-20
0.000391944
-1.40792e-18
-2.18966e-21
-1.28465e-18
-1.92719e-20
0.000398305
-1.32894e-18
-2.43827e-22
-1.26195e-18
-1.76607e-20
0.000404764
-1.22796e-18
4.65828e-22
-1.25101e-18
-1.64312e-20
0.000411322
-1.14391e-18
-5.68428e-22
-1.37419e-18
-1.63295e-20
0.000417981
-1.26368e-18
-3.62164e-21
-1.25018e-18
-1.42863e-20
0.000424741
-1.25731e-18
-3.99904e-21
-1.1918e-18
-1.4914e-20
0.000431604
-1.35893e-18
-3.74395e-21
-1.18538e-18
-1.62197e-20
0.000438571
-1.23259e-18
-1.80942e-21
-1.18263e-18
-1.79791e-20
0.000445644
-1.13819e-18
-5.02566e-21
-1.25013e-18
-1.91685e-20
0.000452824
-1.13929e-18
-1.18403e-20
-1.23218e-18
-1.88979e-20
0.000460111
-1.05519e-18
-1.59963e-20
-1.28133e-18
-2.1909e-20
0.000467508
-1.01462e-18
-2.02021e-20
-1.27474e-18
-2.09947e-20
0.000475015
-1.1145e-18
-2.69183e-20
-1.13379e-18
-2.01767e-20
0.000482634
-1.11244e-18
-2.86806e-20
-1.0889e-18
-2.47286e-20
0.000490365
-1.10996e-18
-3.27131e-20
-1.15427e-18
-3.22171e-20
0.000498211
-1.05516e-18
-3.59141e-20
-1.16854e-18
-3.30419e-20
0.000506172
-1.1475e-18
-4.24244e-20
-1.17113e-18
-3.48745e-20
0.00051425
-1.09969e-18
-4.90244e-20
-1.14425e-18
-3.24693e-20
0.000522444
-1.15418e-18
-5.15911e-20
-1.09815e-18
-3.51277e-20
0.000530758
-1.1101e-18
-4.78187e-20
-1.05393e-18
-4.10459e-20
0.00053919
-1.08777e-18
-4.76496e-20
-1.04787e-18
-4.78946e-20
0.000547744
-1.09337e-18
-4.86387e-20
-1.06801e-18
-5.2005e-20
0.000556419
-1.15766e-18
-4.93505e-20
-1.05485e-18
-5.37032e-20
0.000565215
-1.06227e-18
-4.92631e-20
-1.03962e-18
-5.43874e-20
0.000574136
-9.85819e-19
-5.25731e-20
-1.02351e-18
-4.97341e-20
0.000583179
-9.51327e-19
-4.91985e-20
-1.1085e-18
-4.7524e-20
0.000592347
-1.0875e-18
-5.18864e-20
-1.09871e-18
-4.58603e-20
0.00060164
-9.53702e-19
-4.76822e-20
-9.93641e-19
-4.15816e-20
0.000611059
-1.05215e-18
-4.96094e-20
-1.07469e-18
-3.23764e-20
0.000620603
-1.03634e-18
-4.11853e-20
-1.03149e-18
-2.23889e-20
0.000630273
-9.54599e-19
-4.08005e-20
-9.94943e-19
-2.18476e-20
0.000640068
-1.15659e-18
-4.86437e-20
-9.69287e-19
-2.03772e-20
0.00064999
-1.18015e-18
-4.3682e-20
-1.029e-18
-2.39884e-20
0.000660037
-1.11721e-18
-4.12702e-20
-1.03329e-18
-2.45543e-20
0.000670209
-1.02492e-18
-4.74841e-20
-9.96873e-19
-2.67086e-20
0.000680505
-9.68703e-19
-5.37952e-20
-9.43816e-19
-2.83768e-20
0.000690925
-8.65679e-19
-6.02065e-20
-1.06972e-18
-2.84459e-20
0.000701468
-8.75594e-19
-6.20284e-20
-1.10312e-18
-2.87568e-20
0.000712132
-9.0291e-19
-6.21402e-20
-1.06698e-18
-2.41026e-20
0.000722915
-1.05484e-18
-5.58251e-20
-8.72664e-19
-2.24015e-20
0.000733817
-1.02948e-18
-4.78273e-20
-1.0102e-18
-3.05011e-20
0.000744834
-1.04556e-18
-4.16067e-20
-1.07608e-18
-2.28641e-20
0.000755965
-1.11216e-18
-3.66419e-20
-9.4853e-19
-1.53006e-20
0.000767207
-1.04301e-18
-2.68584e-20
-9.87194e-19
-1.96563e-20
0.000778557
-1.04781e-18
-2.26541e-20
-1.07935e-18
-2.62464e-20
0.000790013
-1.07901e-18
-1.85969e-20
-1.01433e-18
-2.92481e-20
0.00080157
-1.64512e-20
-1.11738e-18
-2.81037e-20
-1.05738e-18
2.58167e-08
-3.32954e-22
-1.01862e-22
7.89493e-08
-1.84329e-21
-7.77723e-22
1.34392e-07
-3.41699e-21
-1.47126e-21
1.92223e-07
-5.05831e-21
-2.15774e-21
2.52523e-07
-6.70394e-21
-2.9133e-21
3.15375e-07
-8.42343e-21
-3.67906e-21
3.80865e-07
-1.0202e-20
-4.51368e-21
4.4908e-07
-1.2016e-20
-5.33501e-21
5.20112e-07
-1.37948e-20
-6.26681e-21
5.94053e-07
-1.57665e-20
-7.134e-21
6.70997e-07
-1.77854e-20
-8.03602e-21
7.51041e-07
-1.97685e-20
-9.01789e-21
8.3428e-07
-2.17841e-20
-1.01785e-20
9.20812e-07
-2.39464e-20
-1.12772e-20
1.01073e-06
-2.61099e-20
-1.24896e-20
1.10414e-06
-2.82019e-20
-1.36092e-20
1.20112e-06
-3.10548e-20
-1.43794e-20
1.30176e-06
-3.34832e-20
-1.56093e-20
1.40614e-06
-3.60567e-20
-1.67148e-20
1.51434e-06
-3.85842e-20
-1.80138e-20
1.62639e-06
-4.07393e-20
-1.95603e-20
1.74236e-06
-4.33425e-20
-2.11148e-20
1.86227e-06
-4.59787e-20
-2.28342e-20
1.98612e-06
-4.9009e-20
-2.43096e-20
2.11389e-06
-5.20016e-20
-2.54155e-20
2.24556e-06
-5.49539e-20
-2.72035e-20
2.38106e-06
-5.81398e-20
-2.92669e-20
2.52031e-06
-6.15194e-20
-3.1331e-20
2.66319e-06
-6.46444e-20
-3.32268e-20
2.8096e-06
-6.81667e-20
-3.54447e-20
2.95937e-06
-7.12125e-20
-3.75254e-20
3.11238e-06
-7.49512e-20
-3.95336e-20
3.26844e-06
-7.84709e-20
-4.1895e-20
3.4274e-06
-8.12612e-20
-4.39788e-20
3.58909e-06
-8.46263e-20
-4.61015e-20
3.75337e-06
-8.82543e-20
-4.7183e-20
3.92008e-06
-9.23521e-20
-4.89484e-20
4.0891e-06
-9.52663e-20
-5.09559e-20
4.2603e-06
-9.89025e-20
-5.32265e-20
4.43359e-06
-1.02209e-19
-5.48858e-20
4.60887e-06
-1.04453e-19
-5.66569e-20
4.78609e-06
-1.0936e-19
-5.92112e-20
4.96519e-06
-1.1344e-19
-6.0869e-20
5.14613e-06
-1.16982e-19
-6.34612e-20
5.3289e-06
-1.19662e-19
-6.61946e-20
5.5135e-06
-1.23054e-19
-6.793e-20
5.69992e-06
-1.26337e-19
-7.02888e-20
5.88818e-06
-1.29813e-19
-7.22506e-20
6.0783e-06
-1.32772e-19
-7.34853e-20
6.27033e-06
-1.37372e-19
-7.47108e-20
6.4643e-06
-1.40371e-19
-7.76217e-20
6.66026e-06
-1.44462e-19
-8.03635e-20
6.85826e-06
-1.47781e-19
-8.25828e-20
7.05836e-06
-1.51178e-19
-8.46974e-20
7.26062e-06
-1.5382e-19
-8.60258e-20
7.46509e-06
-1.57087e-19
-8.83204e-20
7.67186e-06
-1.60079e-19
-9.08638e-20
7.88098e-06
-1.63723e-19
-9.44976e-20
8.09253e-06
-1.67808e-19
-9.64989e-20
8.30657e-06
-1.7188e-19
-9.82021e-20
8.52319e-06
-1.75739e-19
-1.00445e-19
8.74244e-06
-1.79112e-19
-1.01966e-19
8.96442e-06
-1.82376e-19
-1.03541e-19
9.18919e-06
-1.86305e-19
-1.05072e-19
9.41683e-06
-1.90112e-19
-1.07012e-19
9.64741e-06
-1.96618e-19
-1.05577e-19
9.88103e-06
-1.99427e-19
-1.08423e-19
1.01177e-05
-2.01944e-19
-1.11046e-19
1.03576e-05
-2.03372e-19
-1.13128e-19
1.06008e-05
-2.05864e-19
-1.16108e-19
1.08473e-05
-2.08046e-19
-1.18609e-19
1.10972e-05
-2.10015e-19
-1.20738e-19
1.13506e-05
-2.12455e-19
-1.22691e-19
1.16076e-05
-2.17214e-19
-1.22567e-19
1.18682e-05
-2.19928e-19
-1.20455e-19
1.21326e-05
-2.23123e-19
-1.23774e-19
1.24009e-05
-2.24513e-19
-1.26696e-19
1.2673e-05
-2.27722e-19
-1.24194e-19
1.29491e-05
-2.28934e-19
-1.26521e-19
1.32293e-05
-2.31499e-19
-1.33159e-19
1.35137e-05
-2.34504e-19
-1.35801e-19
1.38023e-05
-2.35633e-19
-1.38343e-19
1.40952e-05
-2.38711e-19
-1.40848e-19
1.43926e-05
-2.42041e-19
-1.43098e-19
1.46945e-05
-2.43233e-19
-1.46489e-19
1.5001e-05
-2.42576e-19
-1.52035e-19
1.53121e-05
-2.43971e-19
-1.51678e-19
1.56281e-05
-2.46652e-19
-1.51105e-19
1.59489e-05
-2.4877e-19
-1.53866e-19
1.62747e-05
-2.57031e-19
-1.54002e-19
1.66056e-05
-2.58771e-19
-1.57571e-19
1.69416e-05
-2.61019e-19
-1.6201e-19
1.72829e-05
-2.63383e-19
-1.62073e-19
1.76295e-05
-2.67617e-19
-1.69097e-19
1.79815e-05
-2.67124e-19
-1.75091e-19
1.83392e-05
-2.71753e-19
-1.77835e-19
1.87024e-05
-2.72204e-19
-1.77282e-19
1.90715e-05
-2.76498e-19
-1.75146e-19
1.94464e-05
-2.79609e-19
-1.76939e-19
1.98272e-05
-2.81565e-19
-1.79484e-19
2.02141e-05
-2.78832e-19
-1.81565e-19
2.06072e-05
-2.80794e-19
-1.83086e-19
2.10066e-05
-2.83194e-19
-1.86761e-19
2.14124e-05
-2.79843e-19
-1.84773e-19
2.18247e-05
-2.87335e-19
-1.82301e-19
2.22437e-05
-2.8366e-19
-1.85623e-19
2.26694e-05
-2.86418e-19
-1.90009e-19
2.31019e-05
-2.90265e-19
-1.88914e-19
2.35415e-05
-2.91706e-19
-1.90325e-19
2.39881e-05
-2.91211e-19
-1.94441e-19
2.4442e-05
-2.96913e-19
-1.93443e-19
2.49032e-05
-2.98322e-19
-1.96204e-19
2.53719e-05
-3.01883e-19
-1.97712e-19
2.58482e-05
-3.02784e-19
-1.98721e-19
2.63322e-05
-3.04056e-19
-2.02971e-19
2.68241e-05
-3.05903e-19
-2.03123e-19
2.73241e-05
-3.11999e-19
-2.0161e-19
2.78321e-05
-3.14288e-19
-2.03561e-19
2.83485e-05
-3.14729e-19
-2.05797e-19
2.88732e-05
-3.16427e-19
-2.09984e-19
2.94066e-05
-3.17183e-19
-2.10646e-19
2.99486e-05
-3.17501e-19
-2.06769e-19
3.04995e-05
-3.26008e-19
-2.03124e-19
3.10594e-05
-3.2707e-19
-2.04376e-19
3.16285e-05
-3.23483e-19
-2.06184e-19
3.22069e-05
-3.22577e-19
-2.11223e-19
3.27947e-05
-3.3133e-19
-2.05246e-19
3.33922e-05
-3.3736e-19
-1.95919e-19
3.39995e-05
-3.4198e-19
-1.99167e-19
3.46167e-05
-3.32273e-19
-2.10613e-19
3.52441e-05
-3.35471e-19
-2.15345e-19
3.58817e-05
-3.36336e-19
-2.20308e-19
3.65298e-05
-3.36804e-19
-2.22202e-19
3.71886e-05
-3.4762e-19
-2.21434e-19
3.78582e-05
-3.45258e-19
-2.19518e-19
3.85387e-05
-3.40107e-19
-2.26642e-19
3.92305e-05
-3.29488e-19
-2.2599e-19
3.99336e-05
-3.23355e-19
-2.27674e-19
4.06482e-05
-3.20201e-19
-2.21609e-19
4.13747e-05
-3.24803e-19
-2.19413e-19
4.2113e-05
-3.19379e-19
-2.24415e-19
4.28635e-05
-3.2115e-19
-2.25741e-19
4.36263e-05
-3.21933e-19
-2.22744e-19
4.44017e-05
-3.23592e-19
-2.21801e-19
4.51898e-05
-3.25135e-19
-2.28248e-19
4.59909e-05
-3.34266e-19
-2.32111e-19
4.68052e-05
-3.36448e-19
-2.34742e-19
4.76329e-05
-3.3861e-19
-2.30687e-19
4.84742e-05
-3.39331e-19
-2.33559e-19
4.93293e-05
-3.36654e-19
-2.32005e-19
5.01985e-05
-3.36533e-19
-2.25967e-19
5.1082e-05
-3.30998e-19
-2.32658e-19
5.198e-05
-3.32669e-19
-2.3909e-19
5.28928e-05
-3.36231e-19
-2.37785e-19
5.38206e-05
-3.33331e-19
-2.43152e-19
5.47637e-05
-3.34834e-19
-2.44076e-19
5.57224e-05
-3.25044e-19
-2.33769e-19
5.66967e-05
-3.26709e-19
-2.37528e-19
5.76871e-05
-3.29656e-19
-2.33716e-19
5.86939e-05
-3.31243e-19
-2.22051e-19
5.97171e-05
-3.36583e-19
-2.19719e-19
6.07572e-05
-3.49706e-19
-2.20221e-19
6.18144e-05
-3.26008e-19
-2.15245e-19
6.2889e-05
-3.26598e-19
-2.10347e-19
6.39813e-05
-3.06059e-19
-2.05361e-19
6.50915e-05
-3.05197e-19
-2.18091e-19
6.622e-05
-3.05499e-19
-2.10272e-19
6.7367e-05
-3.07681e-19
-2.13176e-19
6.85329e-05
-3.1132e-19
-1.97487e-19
6.9718e-05
-3.12848e-19
-1.99887e-19
7.09225e-05
-3.21484e-19
-1.88337e-19
7.21468e-05
-3.36403e-19
-1.86897e-19
7.33913e-05
-3.26724e-19
-1.75044e-19
7.46562e-05
-2.87619e-19
-1.84844e-19
7.59418e-05
-2.82822e-19
-1.69447e-19
7.72486e-05
-2.8683e-19
-1.76524e-19
7.85769e-05
-2.70615e-19
-1.80048e-19
7.99269e-05
-2.60496e-19
-1.67379e-19
8.12991e-05
-2.59831e-19
-1.49435e-19
8.26939e-05
-2.63551e-19
-1.45758e-19
8.41115e-05
-2.44556e-19
-1.5113e-19
8.55524e-05
-2.45148e-19
-1.51175e-19
8.70169e-05
-2.34693e-19
-1.45871e-19
8.85055e-05
-2.32726e-19
-1.443e-19
9.00184e-05
-2.60712e-19
-1.50921e-19
9.15562e-05
-2.81524e-19
-1.58355e-19
9.31192e-05
-2.98503e-19
-1.6869e-19
9.47078e-05
-2.89975e-19
-1.54427e-19
9.63224e-05
-2.97653e-19
-1.5167e-19
9.79635e-05
-2.98023e-19
-1.50992e-19
9.96315e-05
-3.02135e-19
-1.35429e-19
0.000101327
-3.06268e-19
-1.33815e-19
0.00010305
-3.04858e-19
-1.35998e-19
0.000104801
-3.03128e-19
-1.32971e-19
0.000106581
-3.09833e-19
-1.30446e-19
0.00010839
-3.08379e-19
-1.20512e-19
0.000110229
-2.91141e-19
-1.11093e-19
0.000112097
-3.00161e-19
-1.02671e-19
0.000113996
-3.05478e-19
-9.16711e-20
0.000115927
-2.73221e-19
-8.40022e-20
0.000117889
-2.48668e-19
-8.4263e-20
0.000119882
-2.4656e-19
-5.25354e-20
0.000121909
-2.37e-19
-4.88015e-20
0.000123968
-2.5006e-19
-4.48999e-20
0.000126061
-2.30967e-19
-5.35395e-20
0.000128189
-2.13833e-19
-6.9416e-20
0.000130351
-2.26069e-19
-7.39768e-20
0.000132548
-2.22735e-19
-6.05628e-20
0.000134781
-2.16066e-19
-7.28997e-20
0.00013705
-1.99958e-19
-7.28691e-20
0.000139357
-2.13119e-19
-6.27473e-20
0.000141701
-2.30547e-19
-5.32036e-20
0.000144083
-2.51839e-19
-7.12446e-20
0.000146504
-2.32813e-19
-8.08849e-20
0.000148964
-2.16334e-19
-7.89643e-20
0.000151465
-2.15447e-19
-6.25678e-20
0.000154006
-2.44136e-19
-5.26089e-20
0.000156588
-2.68102e-19
-6.32137e-20
0.000159212
-2.71449e-19
-9.18685e-20
0.000161879
-2.72001e-19
-1.12767e-19
0.000164589
-2.46105e-19
-9.95008e-20
0.000167343
-2.40335e-19
-6.50319e-20
0.000170142
-2.35565e-19
-3.39383e-20
0.000172986
-2.3844e-19
-2.91328e-20
0.000175877
-2.05507e-19
-3.96703e-20
0.000178814
-2.16281e-19
-3.34406e-20
0.000181798
-2.30186e-19
-1.97385e-20
0.000184831
-2.32849e-19
-2.60033e-20
0.000187913
-2.38189e-19
-4.96958e-20
0.000191045
-2.27991e-19
-7.72777e-20
0.000194227
-2.19866e-19
-9.89048e-20
0.000197461
-2.11239e-19
-1.03624e-19
0.000200747
-2.25602e-19
-8.40497e-20
0.000204086
-2.1447e-19
-7.24963e-20
0.000207479
-2.24382e-19
-6.68482e-20
0.000210927