/*--------------------------------*- C++ -*----------------------------------*\
| =========                 |                                                 |
| \\      /  F ield         | OpenFOAM: The Open Source CFD Toolbox           |
|  \\    /   O peration     | Version:  2106                                  |
|   \\  /    A nd           | Website:  www.openfoam.com                      |
|    \\/     M anipulation  |                                                 |
\*---------------------------------------------------------------------------*/
FoamFile
{
    version     2.0;
    format      ascii;
    arch        "LSB;label=32;scalar=64";
    class       volVectorField;
    location    "16000";
    object      U;
}
// * * * * * * * * * * * * * * * * * * * * * * * * * * * * * * * * * * * * * //

dimensions      [0 1 -1 0 0 0 0];

internalField   nonuniform List<vector> 
2560
(
(0.00356701 -2.31417e-16 -3.06051e-17)
(0.00356701 9.51293e-20 -1.4408e-18)
(0.0107518 -2.70668e-15 -1.36408e-16)
(0.0107518 -1.2007e-18 -1.71152e-17)
(0.0180401 -1.97512e-15 -1.42141e-16)
(0.0180401 -2.13886e-18 -1.76253e-17)
(0.0254331 -1.91423e-15 -1.47855e-16)
(0.0254331 -3.38263e-18 -1.81513e-17)
(0.0329326 -1.90149e-15 -1.53756e-16)
(0.0329326 -4.6725e-18 -1.86938e-17)
(0.0405399 -1.9038e-15 -1.59853e-16)
(0.0405399 -6.00147e-18 -1.9254e-17)
(0.0482566 -1.9031e-15 -1.66134e-16)
(0.0482566 -7.35252e-18 -1.98315e-17)
(0.0560843 -1.8999e-15 -1.72608e-16)
(0.0560843 -8.72074e-18 -2.04269e-17)
(0.0640243 -1.89684e-15 -1.79284e-16)
(0.0640243 -1.01286e-17 -2.10407e-17)
(0.0720781 -1.89417e-15 -1.86168e-16)
(0.0720781 -1.15635e-17 -2.16734e-17)
(0.080247 -1.89154e-15 -1.93264e-16)
(0.080247 -1.30622e-17 -2.23261e-17)
(0.0885323 -1.88882e-15 -2.00573e-16)
(0.0885323 -1.46167e-17 -2.29975e-17)
(0.096935 -1.88599e-15 -2.08093e-16)
(0.096935 -1.61923e-17 -2.36884e-17)
(0.105456 -1.88308e-15 -2.15821e-16)
(0.105456 -1.78152e-17 -2.43984e-17)
(0.114095 -1.88009e-15 -2.23752e-16)
(0.114095 -1.94974e-17 -2.51271e-17)
(0.122853 -1.87704e-15 -2.31874e-16)
(0.122853 -2.11991e-17 -2.58737e-17)
(0.131728 -1.87383e-15 -2.40173e-16)
(0.131728 -2.2992e-17 -2.66339e-17)
(0.140719 -1.87048e-15 -2.48628e-16)
(0.140719 -2.48862e-17 -2.74075e-17)
(0.149824 -1.86711e-15 -2.57211e-16)
(0.149824 -2.67302e-17 -2.81925e-17)
(0.159039 -1.86366e-15 -2.65887e-16)
(0.159039 -2.8667e-17 -2.89842e-17)
(0.16836 -1.8601e-15 -2.74614e-16)
(0.16836 -3.06678e-17 -2.97793e-17)
(0.177779 -1.85643e-15 -2.8334e-16)
(0.177779 -3.26993e-17 -3.05721e-17)
(0.18729 -1.85273e-15 -2.92007e-16)
(0.18729 -3.48398e-17 -3.1356e-17)
(0.196883 -1.84887e-15 -3.0055e-16)
(0.196883 -3.70916e-17 -3.21254e-17)
(0.206546 -1.84479e-15 -3.08898e-16)
(0.206546 -3.93739e-17 -3.28729e-17)
(0.216267 -1.84078e-15 -3.16976e-16)
(0.216267 -4.16455e-17 -3.35936e-17)
(0.226029 -1.83674e-15 -3.24711e-16)
(0.226029 -4.38132e-17 -3.4278e-17)
(0.235819 -1.83248e-15 -3.3203e-16)
(0.235819 -4.59785e-17 -3.49218e-17)
(0.245617 -1.82796e-15 -3.38867e-16)
(0.245617 -4.82711e-17 -3.55111e-17)
(0.255405 -1.82338e-15 -3.45164e-16)
(0.255405 -5.06397e-17 -3.60421e-17)
(0.265165 -1.81878e-15 -3.50875e-16)
(0.265165 -5.29131e-17 -3.6512e-17)
(0.274877 -1.81406e-15 -3.55968e-16)
(0.274877 -5.52648e-17 -3.69326e-17)
(0.284523 -1.80925e-15 -3.60426e-16)
(0.284523 -5.78191e-17 -3.72911e-17)
(0.294084 -1.80445e-15 -3.6425e-16)
(0.294084 -6.03662e-17 -3.75863e-17)
(0.303545 -1.79953e-15 -3.6745e-16)
(0.303545 -6.30037e-17 -3.78217e-17)
(0.312889 -1.79463e-15 -3.70054e-16)
(0.312889 -6.57298e-17 -3.79922e-17)
(0.322103 -1.78992e-15 -3.721e-16)
(0.322103 -6.80971e-17 -3.81154e-17)
(0.331175 -1.78531e-15 -3.73634e-16)
(0.331175 -7.00905e-17 -3.81872e-17)
(0.340095 -1.78048e-15 -3.7471e-16)
(0.340095 -7.22736e-17 -3.82201e-17)
(0.348855 -1.77566e-15 -3.75381e-16)
(0.348855 -7.44925e-17 -3.82216e-17)
(0.35745 -1.77106e-15 -3.75705e-16)
(0.35745 -7.65917e-17 -3.81932e-17)
(0.365874 -1.76654e-15 -3.75739e-16)
(0.365874 -7.83578e-17 -3.81408e-17)
(0.374125 -1.76201e-15 -3.75539e-16)
(0.374125 -8.05121e-17 -3.80633e-17)
(0.382202 -1.75763e-15 -3.75156e-16)
(0.382202 -8.26452e-17 -3.79726e-17)
(0.390104 -1.7532e-15 -3.74637e-16)
(0.390104 -8.45291e-17 -3.78814e-17)
(0.397832 -1.74853e-15 -3.74024e-16)
(0.397832 -8.67093e-17 -3.77957e-17)
(0.405388 -1.74417e-15 -3.73357e-16)
(0.405388 -8.86878e-17 -3.77024e-17)
(0.412776 -1.73975e-15 -3.72671e-16)
(0.412776 -9.08323e-17 -3.76163e-17)
(0.419997 -1.7353e-15 -3.71993e-16)
(0.419997 -9.31544e-17 -3.75347e-17)
(0.427056 -1.7309e-15 -3.71352e-16)
(0.427056 -9.53009e-17 -3.74634e-17)
(0.433956 -1.72667e-15 -3.7077e-16)
(0.433956 -9.71037e-17 -3.73964e-17)
(0.440703 -1.72225e-15 -3.70265e-16)
(0.440703 -9.92682e-17 -3.73477e-17)
(0.4473 -1.71759e-15 -3.69853e-16)
(0.4473 -1.01463e-16 -3.73185e-17)
(0.453753 -1.71299e-15 -3.69546e-16)
(0.453753 -1.03615e-16 -3.73066e-17)
(0.460065 -1.70855e-15 -3.69354e-16)
(0.460065 -1.05808e-16 -3.73169e-17)
(0.466242 -1.70419e-15 -3.69287e-16)
(0.466242 -1.07711e-16 -3.73561e-17)
(0.472289 -1.69984e-15 -3.69354e-16)
(0.472289 -1.10505e-16 -3.73967e-17)
(0.478209 -1.69541e-15 -3.69562e-16)
(0.478209 -1.13565e-16 -3.7459e-17)
(0.484007 -1.69062e-15 -3.69912e-16)
(0.484007 -1.1626e-16 -3.75709e-17)
(0.489689 -1.68581e-15 -3.70406e-16)
(0.489689 -1.19227e-16 -3.76877e-17)
(0.495257 -1.681e-15 -3.71048e-16)
(0.495257 -1.21876e-16 -3.78451e-17)
(0.500716 -1.67631e-15 -3.71841e-16)
(0.500716 -1.24634e-16 -3.79899e-17)
(0.506071 -1.67182e-15 -3.72786e-16)
(0.506071 -1.28073e-16 -3.81646e-17)
(0.511325 -1.66771e-15 -3.73884e-16)
(0.511325 -1.29546e-16 -3.83668e-17)
(0.516482 -1.66412e-15 -3.75138e-16)
(0.516482 -1.30318e-16 -3.85431e-17)
(0.521545 -1.66083e-15 -3.76548e-16)
(0.521545 -1.31472e-16 -3.87529e-17)
(0.526518 -1.65743e-15 -3.78119e-16)
(0.526518 -1.3277e-16 -3.90208e-17)
(0.531404 -1.65336e-15 -3.79845e-16)
(0.531404 -1.35194e-16 -3.92942e-17)
(0.536207 -1.6493e-15 -3.79971e-16)
(0.536207 -1.37275e-16 -3.96187e-17)
(0.540929 -1.6458e-15 -3.79763e-16)
(0.540929 -1.38031e-16 -3.99115e-17)
(0.545574 -1.64194e-15 -3.79674e-16)
(0.545574 -1.39057e-16 -4.02228e-17)
(0.550144 -1.63844e-15 -3.79747e-16)
(0.550144 -1.40858e-16 -4.05582e-17)
(0.554641 -1.63545e-15 -3.79952e-16)
(0.554641 -1.42441e-16 -4.09738e-17)
(0.55907 -1.63174e-15 -3.80301e-16)
(0.55907 -1.4375e-16 -4.13717e-17)
(0.563431 -1.62789e-15 -3.80782e-16)
(0.563431 -1.45343e-16 -4.17909e-17)
(0.567727 -1.62457e-15 -3.81398e-16)
(0.567727 -1.47336e-16 -4.22024e-17)
(0.571962 -1.62187e-15 -3.82143e-16)
(0.571962 -1.48811e-16 -4.2678e-17)
(0.576135 -1.61925e-15 -3.83008e-16)
(0.576135 -1.50312e-16 -4.31633e-17)
(0.580251 -1.61649e-15 -3.84043e-16)
(0.580251 -1.51958e-16 -4.37029e-17)
(0.58431 -1.6137e-15 -3.85238e-16)
(0.58431 -1.53326e-16 -4.42627e-17)
(0.588315 -1.61008e-15 -3.86549e-16)
(0.588315 -1.55132e-16 -4.47508e-17)
(0.592268 -1.60648e-15 -3.87992e-16)
(0.592268 -1.57446e-16 -4.53274e-17)
(0.59617 -1.60341e-15 -3.89607e-16)
(0.59617 -1.58822e-16 -4.59667e-17)
(0.600022 -1.59999e-15 -3.91352e-16)
(0.600022 -1.6024e-16 -4.66838e-17)
(0.603827 -1.59641e-15 -3.93217e-16)
(0.603827 -1.62889e-16 -4.73347e-17)
(0.607586 -1.59285e-15 -3.95242e-16)
(0.607586 -1.64296e-16 -4.79884e-17)
(0.611301 -1.5895e-15 -3.97431e-16)
(0.611301 -1.66747e-16 -4.86665e-17)
(0.614972 -1.58479e-15 -3.9505e-16)
(0.614972 -1.70146e-16 -4.94439e-17)
(0.618602 -1.57933e-15 -3.9098e-16)
(0.618602 -1.71989e-16 -5.03045e-17)
(0.622191 -1.57458e-15 -3.87171e-16)
(0.622191 -1.7469e-16 -5.10651e-17)
(0.625741 -1.57122e-15 -3.83504e-16)
(0.625741 -1.76418e-16 -5.18665e-17)
(0.629253 -1.56902e-15 -3.79972e-16)
(0.629253 -1.75271e-16 -5.26545e-17)
(0.632728 -1.56624e-15 -3.76555e-16)
(0.632728 -1.7484e-16 -5.34784e-17)
(0.636167 -1.56353e-15 -3.73226e-16)
(0.636167 -1.75219e-16 -5.43242e-17)
(0.639572 -1.56179e-15 -3.69943e-16)
(0.639572 -1.76195e-16 -5.52212e-17)
(0.642943 -1.5588e-15 -3.66672e-16)
(0.642943 -1.77296e-16 -5.6326e-17)
(0.646281 -1.55483e-15 -3.6368e-16)
(0.646281 -1.77508e-16 -5.73195e-17)
(0.649588 -1.55142e-15 -3.60782e-16)
(0.649588 -1.78089e-16 -5.8156e-17)
(0.652863 -1.5482e-15 -3.57886e-16)
(0.652863 -1.77832e-16 -5.91053e-17)
(0.656109 -1.54612e-15 -3.55017e-16)
(0.656109 -1.77551e-16 -6.01967e-17)
(0.659326 -1.54347e-15 -3.5218e-16)
(0.659326 -1.76797e-16 -6.13122e-17)
(0.662514 -1.54015e-15 -3.49563e-16)
(0.662514 -1.77737e-16 -6.24634e-17)
(0.665675 -1.53696e-15 -3.4695e-16)
(0.665675 -1.79156e-16 -6.37198e-17)
(0.668809 -1.53346e-15 -3.44441e-16)
(0.668809 -1.78762e-16 -6.50152e-17)
(0.671917 -1.531e-15 -3.42137e-16)
(0.671917 -1.81297e-16 -6.62319e-17)
(0.675 -1.52861e-15 -3.39824e-16)
(0.675 -1.82618e-16 -6.75821e-17)
(0.678058 -1.52424e-15 -3.3771e-16)
(0.678058 -1.83182e-16 -6.89234e-17)
(0.681092 -1.52065e-15 -3.35756e-16)
(0.681092 -1.86244e-16 -7.02542e-17)
(0.684103 -1.51806e-15 -3.33824e-16)
(0.684103 -1.87213e-16 -7.16937e-17)
(0.687091 -1.51439e-15 -3.31944e-16)
(0.687091 -1.87019e-16 -7.31741e-17)
(0.690057 -1.51107e-15 -3.30208e-16)
(0.690057 -1.87703e-16 -7.47212e-17)
(0.693001 -1.50892e-15 -3.29518e-16)
(0.693001 -1.88465e-16 -7.61092e-17)
(0.695925 -1.50703e-15 -3.29085e-16)
(0.695925 -1.90347e-16 -7.76953e-17)
(0.698828 -1.50422e-15 -3.2869e-16)
(0.698828 -1.91004e-16 -7.93713e-17)
(0.701711 -1.50074e-15 -3.28432e-16)
(0.701711 -1.92329e-16 -8.10706e-17)
(0.704574 -1.49749e-15 -3.28244e-16)
(0.704574 -1.93569e-16 -8.2676e-17)
(0.707419 -1.49387e-15 -3.28041e-16)
(0.707419 -1.93506e-16 -8.44288e-17)
(0.710245 -1.48917e-15 -3.28031e-16)
(0.710245 -1.95179e-16 -8.62764e-17)
(0.713053 -1.48468e-15 -3.2815e-16)
(0.713053 -1.957e-16 -8.81841e-17)
(0.715843 -1.48148e-15 -3.28313e-16)
(0.715843 -1.97351e-16 -8.97813e-17)
(0.718617 -1.47664e-15 -3.28395e-16)
(0.718617 -1.99562e-16 -9.18268e-17)
(0.721373 -1.47113e-15 -3.28796e-16)
(0.721373 -2.00357e-16 -9.37791e-17)
(0.724114 -1.46704e-15 -3.29219e-16)
(0.724114 -2.0185e-16 -9.57704e-17)
(0.726838 -1.4646e-15 -3.29645e-16)
(0.726838 -2.0329e-16 -9.76368e-17)
(0.729547 -1.46323e-15 -3.29958e-16)
(0.729547 -2.01143e-16 -9.97424e-17)
(0.73224 -1.46151e-15 -3.30541e-16)
(0.73224 -1.99311e-16 -1.0195e-16)
(0.734919 -1.4617e-15 -3.31305e-16)
(0.734919 -1.98441e-16 -1.03699e-16)
(0.737583 -1.46248e-15 -3.31618e-16)
(0.737583 -1.93825e-16 -1.05723e-16)
(0.740234 -1.46147e-15 -3.31838e-16)
(0.740234 -1.91384e-16 -1.07698e-16)
(0.74287 -1.45947e-15 -3.31927e-16)
(0.74287 -1.86898e-16 -1.10097e-16)
(0.745493 -1.45785e-15 -3.32135e-16)
(0.745493 -1.84053e-16 -1.12792e-16)
(0.748102 -1.45745e-15 -3.32774e-16)
(0.748102 -1.84219e-16 -1.14961e-16)
(0.750699 -1.45614e-15 -3.33145e-16)
(0.750699 -1.84614e-16 -1.16957e-16)
(0.753283 -1.45279e-15 -3.33363e-16)
(0.753283 -1.85222e-16 -1.19985e-16)
(0.755855 -1.44814e-15 -3.34049e-16)
(0.755855 -1.85947e-16 -1.22575e-16)
(0.758414 -1.44419e-15 -3.34812e-16)
(0.758414 -1.88102e-16 -1.25134e-16)
(0.760962 -1.44245e-15 -3.35557e-16)
(0.760962 -1.91444e-16 -1.279e-16)
(0.763499 -1.44251e-15 -3.36201e-16)
(0.763499 -1.92323e-16 -1.31335e-16)
(0.766024 -1.44071e-15 -3.37465e-16)
(0.766024 -1.91208e-16 -1.33712e-16)
(0.768538 -1.43471e-15 -3.38442e-16)
(0.768538 -1.91745e-16 -1.36122e-16)
(0.771041 -1.43003e-15 -3.39133e-16)
(0.771041 -1.91032e-16 -1.39831e-16)
(0.773534 -1.42639e-15 -3.40414e-16)
(0.773534 -1.89201e-16 -1.43136e-16)
(0.776016 -1.42419e-15 -3.41836e-16)
(0.776016 -1.91642e-16 -1.45693e-16)
(0.778488 -1.42184e-15 -3.42692e-16)
(0.778488 -1.93043e-16 -1.49211e-16)
(0.780951 -1.41784e-15 -3.4366e-16)
(0.780951 -1.9147e-16 -1.52697e-16)
(0.783403 -1.41451e-15 -3.44916e-16)
(0.783403 -1.94756e-16 -1.56125e-16)
(0.785847 -1.41155e-15 -3.46072e-16)
(0.785847 -1.95178e-16 -1.59313e-16)
(0.788281 -1.41057e-15 -3.46814e-16)
(0.788281 -1.94777e-16 -1.62471e-16)
(0.790705 -1.40972e-15 -3.47089e-16)
(0.790705 -1.96269e-16 -1.66486e-16)
(0.793121 -1.40498e-15 -3.47565e-16)
(0.793121 -2.00273e-16 -1.70305e-16)
(0.795529 -1.39733e-15 -3.48076e-16)
(0.795529 -2.07482e-16 -1.74602e-16)
(0.797927 -1.39184e-15 -3.49069e-16)
(0.797927 -2.10535e-16 -1.78748e-16)
(0.800318 -1.38685e-15 -3.50205e-16)
(0.800318 -2.14041e-16 -1.82495e-16)
(0.8027 -1.37873e-15 -3.51482e-16)
(0.8027 -2.17546e-16 -1.86323e-16)
(0.805074 -1.37123e-15 -3.52837e-16)
(0.805074 -2.2025e-16 -1.90072e-16)
(0.80744 -1.36613e-15 -3.5337e-16)
(0.80744 -2.26471e-16 -1.94442e-16)
(0.809799 -1.36025e-15 -3.53737e-16)
(0.809799 -2.3011e-16 -1.99951e-16)
(0.81215 -1.35463e-15 -3.55104e-16)
(0.81215 -2.31334e-16 -2.04614e-16)
(0.814493 -1.34769e-15 -3.56939e-16)
(0.814493 -2.38304e-16 -2.08426e-16)
(0.81683 -1.33721e-15 -3.58384e-16)
(0.81683 -2.45126e-16 -2.12809e-16)
(0.819159 -1.32745e-15 -3.59874e-16)
(0.819159 -2.47798e-16 -2.1815e-16)
(0.821481 -1.32034e-15 -3.61969e-16)
(0.821481 -2.53144e-16 -2.23599e-16)
(0.823796 -1.31875e-15 -3.64153e-16)
(0.823796 -2.59442e-16 -2.28564e-16)
(0.826105 -1.32235e-15 -3.66502e-16)
(0.826105 -2.6006e-16 -2.33046e-16)
(0.828407 -1.32231e-15 -3.67613e-16)
(0.828407 -2.60643e-16 -2.38754e-16)
(0.830703 -1.31714e-15 -3.69232e-16)
(0.830703 -2.65992e-16 -2.44197e-16)
(0.832992 -1.31561e-15 -3.71413e-16)
(0.832992 -2.67921e-16 -2.49764e-16)
(0.835275 -1.31387e-15 -3.73338e-16)
(0.835275 -2.74937e-16 -2.55867e-16)
(0.837552 -1.30949e-15 -3.75672e-16)
(0.837552 -2.82242e-16 -2.56994e-16)
(0.839823 -1.30652e-15 -3.7786e-16)
(0.839823 -2.83721e-16 -2.59067e-16)
(0.842088 -1.30668e-15 -3.80631e-16)
(0.842088 -2.89231e-16 -2.60818e-16)
(0.844347 -1.30409e-15 -3.8302e-16)
(0.844347 -2.97151e-16 -2.61668e-16)
(0.846601 -1.30249e-15 -3.85767e-16)
(0.846601 -3.02674e-16 -2.62132e-16)
(0.848849 -1.29995e-15 -3.8764e-16)
(0.848849 -3.01537e-16 -2.62866e-16)
(0.851091 -1.29417e-15 -3.90391e-16)
(0.851091 -3.03086e-16 -2.62628e-16)
(0.853328 -1.28949e-15 -3.92219e-16)
(0.853328 -3.02667e-16 -2.62539e-16)
(0.85556 -1.28397e-15 -3.93371e-16)
(0.85556 -3.05588e-16 -2.62947e-16)
(0.857786 -1.27997e-15 -3.94348e-16)
(0.857786 -3.11402e-16 -2.63573e-16)
(0.860008 -1.27336e-15 -3.96375e-16)
(0.860008 -3.09819e-16 -2.64655e-16)
(0.862224 -1.26933e-15 -3.98552e-16)
(0.862224 -3.12315e-16 -2.65415e-16)
(0.864436 -1.26493e-15 -3.99297e-16)
(0.864436 -3.14206e-16 -2.65786e-16)
(0.866642 -1.25591e-15 -3.99579e-16)
(0.866642 -3.13794e-16 -2.65953e-16)
(0.868844 -1.24734e-15 -3.99853e-16)
(0.868844 -3.14187e-16 -2.67239e-16)
(0.871041 -1.24244e-15 -4.00428e-16)
(0.871041 -3.14271e-16 -2.68012e-16)
(0.873234 -1.23737e-15 -4.00382e-16)
(0.873234 -3.15395e-16 -2.67746e-16)
(0.875422 -1.22905e-15 -3.99689e-16)
(0.875422 -3.16211e-16 -2.67694e-16)
(0.877605 -1.21782e-15 -3.98866e-16)
(0.877605 -3.22319e-16 -2.67848e-16)
(0.879784 -1.20752e-15 -3.98976e-16)
(0.879784 -3.31387e-16 -2.68954e-16)
(0.881958 -1.20282e-15 -3.99213e-16)
(0.881958 -3.3819e-16 -2.69957e-16)
(0.884129 -1.19759e-15 -3.99302e-16)
(0.884129 -3.44501e-16 -2.7152e-16)
(0.886294 -1.18948e-15 -3.99776e-16)
(0.886294 -3.47021e-16 -2.7147e-16)
(0.888456 -1.18055e-15 -3.98035e-16)
(0.888456 -3.47237e-16 -2.72502e-16)
(0.890614 -1.1682e-15 -3.96082e-16)
(0.890614 -3.52123e-16 -2.74555e-16)
(0.892767 -1.15638e-15 -3.95626e-16)
(0.892767 -3.55421e-16 -2.75735e-16)
(0.894917 -1.14979e-15 -3.9524e-16)
(0.894917 -3.6074e-16 -2.7466e-16)
(0.897062 -1.13781e-15 -3.92197e-16)
(0.897062 -3.73838e-16 -2.74825e-16)
(0.899204 -1.12495e-15 -3.90823e-16)
(0.899204 -3.77495e-16 -2.78938e-16)
(0.901341 -1.11404e-15 -3.91902e-16)
(0.901341 -3.85048e-16 -2.80879e-16)
(0.903475 -1.10221e-15 -3.92114e-16)
(0.903475 -4.02695e-16 -2.80729e-16)
(0.905605 -1.0927e-15 -3.90598e-16)
(0.905605 -4.07969e-16 -2.8334e-16)
(0.907731 -1.07916e-15 -3.92416e-16)
(0.907731 -4.16958e-16 -2.84791e-16)
(0.909853 -1.06857e-15 -3.94897e-16)
(0.909853 -4.25866e-16 -2.86134e-16)
(0.911972 -1.06537e-15 -3.96261e-16)
(0.911972 -4.28646e-16 -2.86088e-16)
(0.914087 -1.0622e-15 -3.97021e-16)
(0.914087 -4.22707e-16 -2.8435e-16)
(0.916199 -1.05994e-15 -3.95095e-16)
(0.916199 -4.16195e-16 -2.83806e-16)
(0.918306 -1.05476e-15 -3.93701e-16)
(0.918306 -4.24563e-16 -2.8418e-16)
(0.92041 -1.05092e-15 -3.9453e-16)
(0.92041 -4.28504e-16 -2.81148e-16)
(0.922511 -1.04789e-15 -3.91533e-16)
(0.922511 -4.26927e-16 -2.80689e-16)
(0.924608 -1.04793e-15 -3.89641e-16)
(0.924608 -4.24823e-16 -2.79687e-16)
(0.926702 -1.05049e-15 -3.84604e-16)
(0.926702 -4.27264e-16 -2.82014e-16)
(0.928791 -1.04334e-15 -3.82531e-16)
(0.928791 -4.31771e-16 -2.78671e-16)
(0.930878 -1.0365e-15 -3.79086e-16)
(0.930878 -4.44229e-16 -2.73389e-16)
(0.932961 -1.02848e-15 -3.7327e-16)
(0.932961 -4.44392e-16 -2.71021e-16)
(0.93504 -1.0199e-15 -3.67716e-16)
(0.93504 -4.40506e-16 -2.69121e-16)
(0.937117 -1.01165e-15 -3.64525e-16)
(0.937117 -4.45569e-16 -2.69933e-16)
(0.939189 -1.00092e-15 -3.64389e-16)
(0.939189 -4.5248e-16 -2.70595e-16)
(0.941258 -9.9305e-16 -3.63558e-16)
(0.941258 -4.62439e-16 -2.65208e-16)
(0.943324 -9.85549e-16 -3.58592e-16)
(0.943324 -4.74179e-16 -2.63999e-16)
(0.945386 -9.79674e-16 -3.55616e-16)
(0.945386 -4.73459e-16 -2.66444e-16)
(0.947445 -9.7389e-16 -3.55848e-16)
(0.947445 -4.7553e-16 -2.63904e-16)
(0.9495 -9.68256e-16 -3.50965e-16)
(0.9495 -4.89947e-16 -2.58445e-16)
(0.951552 -9.64455e-16 -3.42392e-16)
(0.951552 -4.93e-16 -2.56436e-16)
(0.9536 -9.57125e-16 -3.38554e-16)
(0.9536 -4.93848e-16 -2.5787e-16)
(0.955645 -9.50768e-16 -3.38621e-16)
(0.955645 -5.0486e-16 -2.52019e-16)
(0.957686 -9.41969e-16 -3.30109e-16)
(0.957686 -5.12116e-16 -2.47134e-16)
(0.959724 -9.29954e-16 -3.23509e-16)
(0.959724 -5.16358e-16 -2.42229e-16)
(0.961758 -9.2378e-16 -3.1915e-16)
(0.961758 -5.25677e-16 -2.40866e-16)
(0.963789 -9.15221e-16 -3.14338e-16)
(0.963789 -5.37165e-16 -2.42066e-16)
(0.965816 -9.05932e-16 -3.13833e-16)
(0.965816 -5.42237e-16 -2.38606e-16)
(0.967839 -9.03003e-16 -3.12082e-16)
(0.967839 -5.48365e-16 -2.32532e-16)
(0.969859 -9.09524e-16 -3.04343e-16)
(0.969859 -5.66254e-16 -2.32882e-16)
(0.971875 -9.07741e-16 -2.98563e-16)
(0.971875 -5.68634e-16 -2.39609e-16)
(0.973887 -9.00472e-16 -3.00746e-16)
(0.973887 -5.70163e-16 -2.34814e-16)
(0.975895 -9.07454e-16 -2.93932e-16)
(0.975895 -5.754e-16 -2.26493e-16)
(0.9779 -9.08198e-16 -2.84348e-16)
(0.9779 -5.70522e-16 -2.27416e-16)
(0.9799 -9.08578e-16 -2.79401e-16)
(0.9799 -5.67195e-16 -2.23712e-16)
(0.981897 -9.12008e-16 -2.68484e-16)
(0.981897 -5.7158e-16 -2.20029e-16)
(0.98389 -9.10161e-16 -2.61678e-16)
(0.98389 -5.8091e-16 -2.12332e-16)
(0.985878 -9.12743e-16 -2.50626e-16)
(0.985878 -5.87823e-16 -2.06433e-16)
(0.987863 -9.18876e-16 -2.39394e-16)
(0.987863 -5.81014e-16 -1.99824e-16)
(0.989843 -9.22933e-16 -2.27264e-16)
(0.989843 -5.81771e-16 -1.8539e-16)
(0.991819 -9.17381e-16 -2.07253e-16)
(0.991819 -5.88902e-16 -1.80057e-16)
(0.99379 -9.10348e-16 -1.93164e-16)
(0.99379 -5.90194e-16 -1.75749e-16)
(0.995757 -9.14608e-16 -1.8143e-16)
(0.995757 -5.84396e-16 -1.63564e-16)
(0.99772 -9.11162e-16 -1.62527e-16)
(0.99772 -5.8636e-16 -1.61054e-16)
(0.999678 -8.85571e-16 -1.5592e-16)
(0.999678 -6.06291e-16 -1.53043e-16)
(1.00163 -8.61992e-16 -1.46899e-16)
(1.00163 -6.26636e-16 -1.41428e-16)
(1.00358 -8.2965e-16 -1.51951e-16)
(1.00358 -6.40324e-16 -1.41632e-16)
(1.00552 -8.00106e-16 -1.58585e-16)
(1.00552 -6.3148e-16 -1.50575e-16)
(1.00746 -7.89532e-16 -1.67915e-16)
(1.00746 -6.05209e-16 -1.56009e-16)
(1.00939 -7.89399e-16 -1.6294e-16)
(1.00939 -5.80195e-16 -1.62934e-16)
(1.01132 -7.79004e-16 -1.53064e-16)
(1.01132 -5.82778e-16 -1.66262e-16)
(1.01324 -7.60101e-16 -1.46512e-16)
(1.01324 -5.82656e-16 -1.7438e-16)
(1.01516 -7.4403e-16 -1.4676e-16)
(1.01516 -5.77339e-16 -1.7983e-16)
(1.01707 -7.21601e-16 -1.57574e-16)
(1.01707 -5.76976e-16 -1.81853e-16)
(1.01898 -6.94049e-16 -1.53588e-16)
(1.01898 -5.89327e-16 -1.78199e-16)
(1.02088 -6.69065e-16 -1.54856e-16)
(1.02088 -6.02452e-16 -1.79684e-16)
(1.02277 -6.52721e-16 -1.59805e-16)
(1.02277 -6.04152e-16 -1.78387e-16)
(1.02466 -6.42076e-16 -1.47615e-16)
(1.02466 -5.8909e-16 -1.67629e-16)
(1.02654 -6.27533e-16 -1.39001e-16)
(1.02654 -5.77694e-16 -1.75355e-16)
(1.02841 -6.10957e-16 -1.54626e-16)
(1.02841 -5.79363e-16 -1.82352e-16)
(1.03028 -6.07691e-16 -1.60964e-16)
(1.03028 -5.74473e-16 -1.76788e-16)
(1.03213 -6.03936e-16 -1.53013e-16)
(1.03213 -5.71464e-16 -1.74958e-16)
(1.03399 -5.98793e-16 -1.56289e-16)
(1.03399 -5.47302e-16 -1.65093e-16)
(1.03583 -5.9714e-16 -1.5075e-16)
(1.03583 -5.29652e-16 -1.78152e-16)
(1.03767 -5.70473e-16 -1.60319e-16)
(1.03767 -5.16032e-16 -1.97505e-16)
(1.03949 -5.60944e-16 -1.8073e-16)
(1.03949 -4.84839e-16 -2.28365e-16)
(1.04131 -5.56053e-16 -1.93563e-16)
(1.04131 -4.91248e-16 -2.55044e-16)
(1.04312 -5.42139e-16 -2.04179e-16)
(1.04312 -5.15171e-16 -2.71248e-16)
(1.04492 -5.18919e-16 -2.11658e-16)
(1.04492 -5.30706e-16 -2.91436e-16)
(1.04672 -5.04001e-16 -2.40641e-16)
(1.04672 -5.52775e-16 -3.01897e-16)
(1.0485 -5.18046e-16 -2.55088e-16)
(1.0485 -5.61293e-16 -3.18768e-16)
(1.05027 -5.37604e-16 -2.47416e-16)
(1.05027 -5.51975e-16 -3.12134e-16)
(1.05203 -5.57652e-16 -2.30207e-16)
(1.05203 -5.19438e-16 -3.15636e-16)
(1.05378 -5.49415e-16 -2.25747e-16)
(1.05378 -5.01158e-16 -3.20173e-16)
(1.05552 -5.07189e-16 -2.28522e-16)
(1.05552 -5.01826e-16 -3.32978e-16)
(1.05725 -4.72585e-16 -2.54824e-16)
(1.05725 -5.33396e-16 -3.40519e-16)
(1.05897 -4.81526e-16 -2.74433e-16)
(1.05897 -5.27901e-16 -3.36328e-16)
(1.06067 -5.05307e-16 -2.82682e-16)
(1.06067 -4.77545e-16 -3.40005e-16)
(1.06236 -5.13652e-16 -2.63375e-16)
(1.06236 -4.68237e-16 -3.56021e-16)
(1.06404 -5.16505e-16 -2.40178e-16)
(1.06404 -4.69612e-16 -3.65032e-16)
(1.0657 -4.76876e-16 -2.58382e-16)
(1.0657 -4.89689e-16 -3.78275e-16)
(1.06735 -4.5829e-16 -3.16646e-16)
(1.06735 -5.04228e-16 -3.7755e-16)
(1.06899 -4.40782e-16 -3.41454e-16)
(1.06899 -4.87566e-16 -3.85556e-16)
(1.0706 -4.05562e-16 -3.45408e-16)
(1.0706 -5.16701e-16 -3.84541e-16)
(1.0722 -4.26775e-16 -3.74049e-16)
(1.0722 -4.76507e-16 -3.73157e-16)
(1.07379 -4.49024e-16 -3.78078e-16)
(1.07379 -4.60991e-16 -4.09452e-16)
(1.07535 -4.35759e-16 -4.16148e-16)
(1.07535 -4.18122e-16 -4.36014e-16)
(1.0769 -4.31051e-16 -4.3416e-16)
(1.0769 -4.56396e-16 -4.45461e-16)
(1.07843 -4.44913e-16 -4.3883e-16)
(1.07843 -4.72794e-16 -4.71003e-16)
(1.07993 -4.51264e-16 -4.81757e-16)
(1.07993 -4.64895e-16 -4.48108e-16)
(1.08142 -4.94025e-16 -4.92123e-16)
(1.08142 -4.50913e-16 -4.72078e-16)
(1.08288 -4.47265e-16 -4.6983e-16)
(1.08288 -4.18989e-16 -4.80063e-16)
(1.08432 -4.45371e-16 -4.52076e-16)
(1.08432 -4.20228e-16 -5.02645e-16)
(1.08573 -4.40355e-16 -4.47265e-16)
(1.08573 -4.24114e-16 -5.10034e-16)
(1.08712 -4.45764e-16 -4.4747e-16)
(1.08712 -4.23338e-16 -5.06479e-16)
(1.08848 -4.50041e-16 -4.64214e-16)
(1.08848 -4.23292e-16 -5.04775e-16)
(1.08981 -3.70511e-16 -4.93607e-16)
(1.08981 -4.06948e-16 -4.6775e-16)
(1.09111 -3.82603e-16 -4.53693e-16)
(1.09111 -4.21545e-16 -4.70134e-16)
(1.09238 -4.12848e-16 -4.87656e-16)
(1.09238 -4.65112e-16 -4.88471e-16)
(1.09361 -3.99687e-16 -5.40156e-16)
(1.09361 -4.12771e-16 -4.83052e-16)
(1.09481 -3.63159e-16 -5.54021e-16)
(1.09481 -4.08558e-16 -4.5846e-16)
(1.09598 -4.20115e-16 -5.1252e-16)
(1.09598 -4.2647e-16 -4.16386e-16)
(1.0971 -3.96674e-16 -5.01778e-16)
(1.0971 -4.05549e-16 -4.16215e-16)
(1.09818 -3.78415e-16 -5.39663e-16)
(1.09818 -3.91431e-16 -4.23001e-16)
(1.09922 -4.68177e-16 -4.84565e-16)
(1.09922 -4.00638e-16 -4.0256e-16)
(1.10021 -4.65264e-16 -4.15826e-16)
(1.10021 -4.19086e-16 -3.95999e-16)
(1.10116 -4.35496e-16 -4.30898e-16)
(1.10116 -4.12234e-16 -3.95708e-16)
(1.10205 -3.9747e-16 -4.71332e-16)
(1.10205 -3.79054e-16 -3.92751e-16)
(1.10289 -3.62355e-16 -4.51149e-16)
(1.10289 -3.98383e-16 -3.88636e-16)
(1.10367 -3.52306e-16 -4.3967e-16)
(1.10367 -4.34892e-16 -3.77696e-16)
(1.10439 -3.9008e-16 -4.67315e-16)
(1.10439 -4.38915e-16 -3.59761e-16)
(1.10504 -3.90271e-16 -4.20155e-16)
(1.10504 -3.88733e-16 -3.53073e-16)
(1.10563 -4.22616e-16 -4.01288e-16)
(1.10563 -3.64474e-16 -3.85423e-16)
(1.10614 -3.93343e-16 -3.8269e-16)
(1.10614 -4.29906e-16 -3.52074e-16)
(1.10658 -4.30462e-16 -3.86243e-16)
(1.10658 -4.2242e-16 -3.2833e-16)
(1.10694 -4.2926e-16 -3.44653e-16)
(1.10694 -3.74783e-16 -3.17226e-16)
(1.10722 -4.16346e-16 -3.22082e-16)
(1.10722 -4.12378e-16 -3.14727e-16)
(1.10741 -4.29154e-16 -2.84703e-16)
(1.10741 -4.35814e-16 -3.31843e-16)
(1.1075 -4.36134e-16 -2.45798e-16)
(1.1075 -3.95265e-16 -3.20758e-16)
(0.00356701 6.09853e-20 1.10969e-17)
(0.00356701 5.02802e-20 2.09338e-18)
(0.0107518 -5.77281e-19 4.5173e-17)
(0.0107518 -2.58635e-19 8.25541e-18)
(0.0180401 -1.05621e-18 4.6491e-17)
(0.0180401 -4.50642e-19 8.50467e-18)
(0.0254331 -1.69481e-18 4.78443e-17)
(0.0254331 -7.26989e-19 8.76731e-18)
(0.0329326 -2.35027e-18 4.92337e-17)
(0.0329326 -1.0128e-18 9.04401e-18)
(0.0405399 -3.02101e-18 5.06601e-17)
(0.0405399 -1.32004e-18 9.33509e-18)
(0.0482566 -3.71721e-18 5.21241e-17)
(0.0482566 -1.64617e-18 9.64153e-18)
(0.0560843 -4.4386e-18 5.36266e-17)
(0.0560843 -1.95753e-18 9.96398e-18)
(0.0640243 -5.15293e-18 5.51681e-17)
(0.0640243 -2.33093e-18 1.03033e-17)
(0.0720781 -5.90293e-18 5.67493e-17)
(0.0720781 -2.6832e-18 1.06595e-17)
(0.080247 -6.70703e-18 5.83701e-17)
(0.080247 -3.02046e-18 1.10338e-17)
(0.0885323 -7.50558e-18 6.00299e-17)
(0.0885323 -3.41362e-18 1.14265e-17)
(0.096935 -8.3068e-18 6.1728e-17)
(0.096935 -3.83098e-18 1.18376e-17)
(0.105456 -9.15383e-18 6.34631e-17)
(0.105456 -4.28524e-18 1.22672e-17)
(0.114095 -1.00088e-17 6.52318e-17)
(0.114095 -4.75301e-18 1.27161e-17)
(0.122853 -1.08746e-17 6.70304e-17)
(0.122853 -5.2175e-18 1.31834e-17)
(0.131728 -1.18545e-17 6.88536e-17)
(0.131728 -5.57491e-18 1.36719e-17)
(0.140719 -1.28818e-17 7.06909e-17)
(0.140719 -6.00891e-18 1.41796e-17)
(0.149824 -1.39029e-17 7.25365e-17)
(0.149824 -6.48242e-18 1.47054e-17)
(0.159039 -1.49053e-17 7.438e-17)
(0.159039 -6.95252e-18 1.5247e-17)
(0.16836 -1.58541e-17 7.6211e-17)
(0.16836 -7.54675e-18 1.58025e-17)
(0.177779 -1.68362e-17 7.80184e-17)
(0.177779 -8.12592e-18 1.63684e-17)
(0.18729 -1.78832e-17 7.97855e-17)
(0.18729 -8.73413e-18 1.69448e-17)
(0.196883 -1.90107e-17 8.1494e-17)
(0.196883 -9.44366e-18 1.75293e-17)
(0.206546 -2.01924e-17 8.31219e-17)
(0.206546 -9.9821e-18 1.8118e-17)
(0.216267 -2.1402e-17 8.46501e-17)
(0.216267 -1.04987e-17 1.87046e-17)
(0.226029 -2.26603e-17 8.60622e-17)
(0.226029 -1.13051e-17 1.92839e-17)
(0.235819 -2.39617e-17 8.73399e-17)
(0.235819 -1.21267e-17 1.98517e-17)
(0.245617 -2.52328e-17 8.84657e-17)
(0.245617 -1.28588e-17 2.04118e-17)
(0.255405 -2.65766e-17 8.94256e-17)
(0.255405 -1.37583e-17 2.0962e-17)
(0.265165 -2.79106e-17 9.02088e-17)
(0.265165 -1.46941e-17 2.14891e-17)
(0.274877 -2.92609e-17 9.0812e-17)
(0.274877 -1.5396e-17 2.19804e-17)
(0.284523 -3.07082e-17 9.12311e-17)
(0.284523 -1.6193e-17 2.2451e-17)
(0.294084 -3.19678e-17 9.14673e-17)
(0.294084 -1.72719e-17 2.29039e-17)
(0.303545 -3.32117e-17 9.15275e-17)
(0.303545 -1.80526e-17 2.33391e-17)
(0.312889 -3.46073e-17 9.14202e-17)
(0.312889 -1.86633e-17 2.37574e-17)
(0.322103 -3.61376e-17 9.11516e-17)
(0.322103 -1.91878e-17 2.41533e-17)
(0.331175 -3.7544e-17 9.07347e-17)
(0.331175 -1.99646e-17 2.45409e-17)
(0.340095 -3.88215e-17 9.01879e-17)
(0.340095 -2.09791e-17 2.49137e-17)
(0.348855 -4.02124e-17 8.95271e-17)
(0.348855 -2.16733e-17 2.52696e-17)
(0.35745 -4.13095e-17 8.8771e-17)
(0.35745 -2.22524e-17 2.56146e-17)
(0.365874 -4.27672e-17 8.794e-17)
(0.365874 -2.3157e-17 2.59574e-17)
(0.374125 -4.45706e-17 8.70392e-17)
(0.374125 -2.41245e-17 2.63052e-17)
(0.382202 -4.60933e-17 8.60831e-17)
(0.382202 -2.47824e-17 2.66462e-17)
(0.390104 -4.73818e-17 8.50897e-17)
(0.390104 -2.60129e-17 2.69835e-17)
(0.397832 -4.85194e-17 8.40725e-17)
(0.397832 -2.68789e-17 2.73216e-17)
(0.405388 -4.98719e-17 8.30354e-17)
(0.405388 -2.75159e-17 2.76696e-17)
(0.412776 -5.12438e-17 8.19887e-17)
(0.412776 -2.8512e-17 2.80323e-17)
(0.419997 -5.24955e-17 8.09331e-17)
(0.419997 -2.92175e-17 2.84151e-17)
(0.427056 -5.40325e-17 7.9875e-17)
(0.427056 -2.95626e-17 2.8818e-17)
(0.433956 -5.55286e-17 7.88113e-17)
(0.433956 -3.04194e-17 2.92401e-17)
(0.440703 -5.69541e-17 7.77584e-17)
(0.440703 -3.15519e-17 2.96671e-17)
(0.4473 -5.84432e-17 7.67115e-17)
(0.4473 -3.26287e-17 3.01131e-17)
(0.453753 -5.98095e-17 7.5674e-17)
(0.453753 -3.36463e-17 3.05832e-17)
(0.460065 -6.10569e-17 7.46516e-17)
(0.460065 -3.40262e-17 3.10673e-17)
(0.466242 -6.21393e-17 7.36452e-17)
(0.466242 -3.4863e-17 3.15878e-17)
(0.472289 -6.33311e-17 7.26531e-17)
(0.472289 -3.59804e-17 3.21447e-17)
(0.478209 -6.4703e-17 7.16856e-17)
(0.478209 -3.69269e-17 3.27225e-17)
(0.484007 -6.62466e-17 7.07492e-17)
(0.484007 -3.81105e-17 3.33288e-17)
(0.489689 -6.7937e-17 6.98294e-17)
(0.489689 -3.89333e-17 3.39934e-17)
(0.495257 -6.95711e-17 6.89233e-17)
(0.495257 -3.98117e-17 3.46902e-17)
(0.500716 -7.09874e-17 6.80348e-17)
(0.500716 -4.02833e-17 3.54266e-17)
(0.506071 -7.2268e-17 6.71568e-17)
(0.506071 -4.09988e-17 3.62228e-17)
(0.511325 -7.37341e-17 6.62806e-17)
(0.511325 -4.18494e-17 3.70496e-17)
(0.516482 -7.52079e-17 6.54023e-17)
(0.516482 -4.22198e-17 3.79281e-17)
(0.521545 -7.72558e-17 6.45234e-17)
(0.521545 -4.283e-17 3.88332e-17)
(0.526518 -7.91948e-17 6.3788e-17)
(0.526518 -4.29272e-17 3.97706e-17)
(0.531404 -8.02804e-17 6.30914e-17)
(0.531404 -4.3613e-17 4.07684e-17)
(0.536207 -8.10381e-17 6.23967e-17)
(0.536207 -4.49651e-17 4.18159e-17)
(0.540929 -8.18638e-17 6.17166e-17)
(0.540929 -4.59178e-17 4.29132e-17)
(0.545574 -8.28959e-17 6.10777e-17)
(0.545574 -4.68388e-17 4.40032e-17)
(0.550144 -8.35045e-17 6.04658e-17)
(0.550144 -4.79205e-17 4.50968e-17)
(0.554641 -8.44736e-17 5.98695e-17)
(0.554641 -4.87435e-17 4.63156e-17)
(0.55907 -8.59316e-17 5.93149e-17)
(0.55907 -4.89376e-17 4.75947e-17)
(0.563431 -8.7332e-17 5.87475e-17)
(0.563431 -4.85456e-17 4.89268e-17)
(0.567727 -8.8681e-17 5.81392e-17)
(0.567727 -4.90107e-17 5.03159e-17)
(0.571962 -8.95472e-17 5.7534e-17)
(0.571962 -4.99762e-17 5.16785e-17)
(0.576135 -9.04021e-17 5.69646e-17)
(0.576135 -5.00301e-17 5.30413e-17)
(0.580251 -9.14376e-17 5.63712e-17)
(0.580251 -5.0046e-17 5.44645e-17)
(0.58431 -9.20803e-17 5.57891e-17)
(0.58431 -5.17911e-17 5.5973e-17)
(0.588315 -9.30827e-17 5.52525e-17)