/*--------------------------------*- C++ -*----------------------------------*\
| =========                 |                                                 |
| \\      /  F ield         | OpenFOAM: The Open Source CFD Toolbox           |
|  \\    /   O peration     | Version:  2012                                  |
|   \\  /    A nd           | Website:  www.openfoam.com                      |
|    \\/     M anipulation  |                                                 |
\*---------------------------------------------------------------------------*/
FoamFile
{
    version     2.0;
    format      ascii;
    class       volScalarField;
    location    "4000";
    object      p;
}
// * * * * * * * * * * * * * * * * * * * * * * * * * * * * * * * * * * * * * //

dimensions      [0 2 -2 0 0 0 0];


internalField   nonuniform List<scalar> 
40
(
-6.54783e-17
-5.18036e-16
-1.61373e-16
-4.65491e-16
-6.8684e-17
-6.56897e-17
-6.05394e-17
1.69737e-16
1.12726e-17
2.9325e-16
-4.10418e-16
-4.74694e-16
-4.02337e-16
-4.63581e-16
-3.44992e-16
-3.31634e-16
2.61466e-16
2.69932e-16
3.49202e-16
6.31104e-16
4.92969e-16
4.93146e-16
7.41359e-16
6.78045e-16
7.36315e-16
7.33075e-16
7.34169e-16
7.28404e-16
7.31078e-16
7.27091e-16
4.9331e-16
7.19139e-16
6.79393e-16
7.44007e-16
7.44097e-16
7.44196e-16
7.63553e-16
7.54217e-16
7.60563e-16
7.5314e-16
)
;

boundaryField
{
    walls
    {
        type            zeroGradient;
    }
    inlet
    {
        type            cyclic;
    }
    outlet
    {
        type            cyclic;
    }
    sides
    {
        type            empty;
    }
}


// ************************************************************************* //
