/*--------------------------------*- C++ -*----------------------------------*\
| =========                 |                                                 |
| \\      /  F ield         | OpenFOAM: The Open Source CFD Toolbox           |
|  \\    /   O peration     | Version:  2106                                  |
|   \\  /    A nd           | Website:  www.openfoam.com                      |
|    \\/     M anipulation  |                                                 |
\*---------------------------------------------------------------------------*/
FoamFile
{
    version     2.0;
    format      ascii;
    arch        "LSB;label=32;scalar=64";
    class       volTensorField;
    location    "1000";
    object      grad(U);
}
// * * * * * * * * * * * * * * * * * * * * * * * * * * * * * * * * * * * * * //

dimensions      [0 0 -1 0 0 0 0];

internalField   nonuniform List<tensor> 
2560
(
(0 4.15781e-30 3.24829e-32 73.2696 -1.11528e-11 -1.45304e-13 0.106086 -8.07238e-15 -9.35287e-17)
(0 -2.0789e-30 0 73.2696 -1.47285e-15 -7.27681e-18 0.106086 -1.49363e-18 7.12934e-17)
(0 -6.66739e-25 -3.82436e-27 73.217 8.07826e-28 -1.92782e-14 0.319694 0 -5.66229e-17)
(0 -4.09822e-30 -1.28069e-31 73.217 -1.55108e-15 -8.36265e-18 0.319694 -2.82892e-18 7.49791e-17)
(5.75243e-17 -4.75391e-30 -9.93233e-32 73.1266 1.08234e-12 -8.01845e-15 0.438646 -4.67285e-15 -3.88239e-17)
(-7.10633e-17 1.61579e-29 1.89351e-31 73.1266 -2.06418e-15 -3.12286e-18 0.438646 -5.96175e-18 7.71478e-17)
(4.32212e-17 -1.0505e-29 -2.13944e-31 72.9937 6.14564e-13 -6.80929e-15 0.444087 -8.25382e-15 -4.35532e-17)
(0 7.96317e-30 1.86637e-31 72.9937 -2.12361e-15 -4.28784e-18 0.444087 -9.00491e-18 7.93723e-17)
(2.76163e-16 -2.64256e-27 -2.45282e-31 72.819 1.21181e-27 -7.39473e-15 0.449337 -3.15544e-30 -4.71959e-17)
(0 1.96226e-29 1.83962e-31 72.819 -2.16443e-15 -4.8162e-18 0.449337 -1.21977e-17 8.16566e-17)
(2.39887e-16 -1.5292e-29 -8.96425e-32 72.6035 1.59547e-15 -7.66209e-15 0.454393 -1.80301e-16 -4.8181e-17)
(8.30277e-16 1.54731e-29 6.04417e-32 72.6035 -2.11632e-15 -5.23986e-18 0.454393 -1.5484e-17 8.40011e-17)
(-1.34641e-16 -3.93332e-28 -2.91439e-32 72.3479 -1.17721e-27 -7.69989e-15 0.459249 0 -4.90593e-17)
(5.38562e-16 1.52513e-29 1.19151e-31 72.3479 -2.14034e-15 -5.92044e-18 0.459249 -1.89025e-17 8.64088e-17)
(-4.3032e-16 1.49838e-29 9.03508e-32 72.0533 8.01337e-15 -7.7571e-15 0.463901 -5.14982e-17 -5.03307e-17)
(6.63447e-16 -3.75818e-30 0 72.0533 -2.34658e-15 -6.02672e-18 0.463901 -2.2187e-17 8.8876e-17)
(1.97435e-16 -1.48207e-29 -1.48593e-31 71.7205 6.18113e-15 -7.85809e-15 0.468346 -5.11635e-17 -5.18186e-17)
(0 1.48173e-29 1.1576e-31 71.7205 -2.41061e-15 -4.99214e-18 0.468346 -2.60296e-17 9.14154e-17)
(0 7.30244e-30 1.14101e-31 71.3506 4.15657e-15 -7.97828e-15 0.472577 -2.90183e-17 -5.34015e-17)
(0 0 -5.70503e-32 71.3506 -2.29971e-15 -6.32588e-18 0.472577 -2.93921e-17 9.40341e-17)
(-7.68079e-16 -1.06858e-29 -7.71191e-32 70.9446 3.78634e-15 -8.10335e-15 0.476593 -2.57705e-17 -5.5022e-17)
(0 1.79945e-29 1.68698e-31 70.9446 -2.24417e-15 -4.30551e-18 0.476593 -3.30592e-17 9.67178e-17)
(7.93363e-16 -2.85402e-29 -4.80073e-31 70.5033 3.11649e-15 -8.23152e-15 0.480388 -2.48792e-17 -5.67181e-17)
(-4.99239e-16 2.12839e-29 3.87987e-31 70.5033 -2.19177e-15 -4.38169e-18 0.480388 -3.7249e-17 9.94953e-17)
(4.92084e-16 -1.39859e-29 -1.63897e-31 70.0279 2.62665e-15 -8.36463e-15 0.48396 -1.73673e-17 -5.84801e-17)
(0 1.74823e-29 2.18529e-31 70.0279 -2.01573e-15 -6.58446e-18 0.48396 -4.03427e-17 1.02334e-16)
(-3.60079e-16 1.06018e-29 1.47112e-31 69.5193 3.11103e-15 -8.49913e-15 0.487303 -1.88136e-17 -6.02724e-17)
(1.44031e-15 0 0 69.5193 -1.93227e-15 -8.45166e-18 0.487303 -4.34234e-17 1.05268e-16)
(0 2.37787e-29 4.2462e-31 68.9785 3.65013e-15 -8.6334e-15 0.490415 -2.46924e-17 -6.21101e-17)
(0 -2.37787e-29 -4.2462e-31 68.9785 -2.29691e-15 -1.13523e-17 0.490415 -4.78204e-17 1.08259e-16)
(-4.27091e-16 3.70627e-30 4.23549e-32 68.4062 3.79232e-15 -8.7682e-15 0.49329 -2.70613e-17 -6.39904e-17)
(1.70836e-15 0 0 68.4062 -2.76497e-15 -7.39488e-18 0.49329 -5.3528e-17 1.11317e-16)
(0 2.64023e-29 5.15669e-31 67.8036 3.78416e-15 -8.90337e-15 0.495924 -2.74753e-17 -6.59159e-17)
(-1.84382e-15 -2.64023e-29 -5.15669e-31 67.8036 -3.17079e-15 -5.93174e-18 0.495924 -5.91351e-17 1.14469e-16)
(-9.15633e-16 2.60238e-29 4.06623e-31 67.1712 3.528e-15 -9.03828e-15 0.498313 -2.77342e-17 -6.78763e-17)
(-1.0645e-15 -2.60238e-29 -4.06623e-31 67.1712 -2.94644e-15 -7.85776e-18 0.498313 -6.64634e-17 1.17698e-16)
(9.02509e-16 -6.41271e-30 -3.00596e-31 66.5101 3.45219e-15 -9.1721e-15 0.500451 -2.4461e-17 -6.98709e-17)
(0 9.61907e-30 3.00596e-31 66.5101 -2.61798e-15 -9.95579e-18 0.500451 -7.16569e-17 1.21008e-16)
(5.63779e-16 2.15807e-29 2.47441e-31 65.8209 3.71684e-15 -9.30322e-15 0.502333 -2.73999e-17 -7.18767e-17)
(-2.25512e-15 -2.84436e-29 -3.9505e-31 65.8209 -2.89492e-15 -8.10332e-18 0.502333 -7.762e-17 1.24381e-16)
(-8.76824e-16 2.18057e-29 3.89388e-31 65.1043 3.1211e-15 -9.43145e-15 0.503955 -2.92389e-17 -7.39141e-17)
(8.76824e-16 -2.18057e-29 -3.89388e-31 65.1043 -2.27971e-15 -4.99211e-18 0.503955 -8.52387e-17 1.27846e-16)
(-6.33192e-16 3.70251e-30 -2.35443e-31 64.361 2.18013e-15 -9.56023e-15 0.505309 -1.89277e-17 -7.60162e-17)
(0 9.21137e-30 3.83807e-31 64.361 -1.47818e-15 -9.71068e-18 0.505309 -8.90621e-17 1.31364e-16)
(1.83766e-16 -3.56411e-29 -7.96905e-31 63.5918 2.41299e-15 -9.68666e-15 0.506391 -1.52326e-17 -7.81053e-17)
(0 3.93439e-29 7.56613e-31 63.5918 -2.05279e-15 -9.6565e-18 0.506391 -9.21076e-17 1.34913e-16)
(0 1.78984e-29 4.66105e-31 62.7973 3.68193e-15 -9.8082e-15 0.507194 -2.32137e-17 -8.0219e-17)
(-2.81252e-15 -2.38646e-29 -6.52547e-31 62.7973 -2.84583e-15 -7.50876e-18 0.507194 -9.84579e-17 1.38554e-16)
(7.38252e-16 1.98243e-29 5.84984e-31 61.9783 4.51285e-15 -9.92447e-15 0.507715 -3.63088e-17 -8.23111e-17)
(0 -2.35225e-29 -6.43195e-31 61.9783 -3.17108e-15 -1.01095e-17 0.507715 -1.05591e-16 1.42275e-16)
(-1.5469e-15 3.63752e-29 7.54521e-31 61.1355 4.84176e-15 -1.00332e-14 0.507948 -3.75991e-17 -8.43886e-17)
(0 -2.89818e-29 -6.33976e-31 61.1355 -3.36835e-15 -1.16843e-17 0.507948 -1.15327e-16 1.46052e-16)
(2.42611e-15 -3.96504e-29 -1.07983e-30 60.2697 5.80143e-15 -1.01391e-14 0.507889 -4.28764e-17 -8.652e-17)
(6.46963e-15 2.85664e-29 9.81969e-31 60.2697 -3.35056e-15 -4.31744e-18 0.507889 -1.26023e-16 1.49842e-16)
(0 -2.25256e-29 -6.15933e-31 59.3818 5.92918e-15 -1.02414e-14 0.507535 -5.49934e-17 -8.86223e-17)
(3.37598e-15 2.81569e-29 7.03924e-31 59.3818 -3.22204e-15 4.56162e-18 0.507535 -1.32838e-16 1.53768e-16)
(8.79303e-16 1.85932e-30 1.06669e-31 58.4729 4.61414e-15 -1.03402e-14 0.506883 -4.63328e-17 -9.07821e-17)
(0 0 0 58.4729 -3.23332e-15 -2.54477e-18 0.506883 -1.39043e-16 1.57793e-16)
(-1.82921e-15 1.91331e-30 2.2368e-31 57.5439 3.97403e-15 -1.04356e-14 0.505933 -3.36244e-17 -9.29086e-17)
(-7.31685e-15 5.47112e-30 -8.54863e-32 57.5439 -3.77558e-15 -1.31547e-17 0.505933 -1.47327e-16 1.61864e-16)
(-9.49886e-16 9.08356e-30 2.39991e-31 56.5961 4.82465e-15 -1.05256e-14 0.504684 -3.63416e-17 -9.50598e-17)
(-5.31746e-15 0 0 56.5961 -4.36023e-15 -1.08312e-17 0.504684 -1.57345e-16 1.66015e-16)
(0 3.18925e-29 9.9664e-31 55.6307 5.70207e-15 -1.06126e-14 0.503136 -4.99092e-17 -9.72183e-17)
(-3.94048e-15 -3.18925e-29 -9.9664e-31 55.6307 -4.10171e-15 -7.75128e-18 0.503136 -1.66603e-16 1.7027e-16)
(0 -2.61962e-29 -6.54904e-31 54.649 5.93701e-15 -1.06978e-14 0.501294 -5.34175e-17 -9.94224e-17)
(4.08115e-15 2.61962e-29 6.54904e-31 54.649 -3.94944e-15 -4.59277e-18 0.501294 -1.75806e-16 1.74555e-16)
(-1.05537e-15 3.68322e-30 -8.23986e-32 53.6526 5.84876e-15 -1.07789e-14 0.499159 -5.57206e-17 -1.01589e-16)
(0 0 3.22759e-31 53.6526 -4.31995e-15 -1.35273e-18 0.499159 -1.88781e-16 1.78954e-16)
(-1.09034e-15 2.40422e-29 5.58812e-31 52.6428 5.53861e-15 -1.08584e-14 0.496736 -5.33247e-17 -1.03849e-16)
(0 -2.03605e-29 -4.77199e-31 52.6428 -3.82701e-15 -9.01635e-18 0.496736 -1.98919e-16 1.83461e-16)
(-1.12518e-15 1.37145e-29 5.54677e-31 51.6212 5.91994e-15 -1.09382e-14 0.494031 -5.14427e-17 -1.06108e-16)
(-4.50074e-15 -5.01717e-30 -1.56787e-31 51.6212 -3.66058e-15 -2.97955e-17 0.494031 -2.07408e-16 1.88002e-16)
(1.15988e-15 -1.35671e-29 -5.50702e-31 50.5895 5.58172e-15 -1.10163e-14 0.49105 -6.2259e-17 -1.08423e-16)
(0 9.89052e-30 4.63618e-31 50.5895 -3.69851e-15 -2.20007e-17 0.49105 -2.1931e-16 1.92442e-16)
(1.1944e-15 -2.31749e-29 -6.99207e-31 49.5492 4.08422e-15 -1.10994e-14 0.487802 -4.63158e-17 -1.10869e-16)
(0 1.94975e-29 6.09298e-31 49.5492 -2.31323e-15 -1.40503e-17 0.487802 -2.29208e-16 1.97111e-16)
(-1.22874e-15 8.48253e-30 5.43249e-31 48.502 4.07955e-15 -1.11826e-14 0.484294 -3.42837e-17 -1.1328e-16)
(0 0 -1.50141e-31 48.502 -1.98375e-15 -2.79128e-17 0.484294 -2.36108e-16 2.0176e-16)
(0 9.47132e-30 7.39947e-31 47.4496 4.75521e-15 -1.1261e-14 0.480535 -4.75782e-17 -1.15722e-16)
(0 -1.89426e-29 -1.03593e-30 47.4496 -2.45172e-15 -1.24211e-17 0.480535 -2.44012e-16 2.06466e-16)
(-1.29676e-15 8.34063e-30 3.90607e-31 46.3935 4.82827e-15 -1.13388e-14 0.476535 -4.91271e-17 -1.18215e-16)
(5.18705e-15 -4.66779e-30 0 46.3935 -2.16035e-15 -6.95437e-18 0.476535 -2.51437e-16 2.11269e-16)
(0 -2.30044e-29 -8.62666e-31 45.3354 5.41868e-15 -1.14202e-14 0.472304 -5.04901e-17 -1.20829e-16)
(5.32166e-15 2.30044e-29 8.62666e-31 45.3354 -3.24637e-15 -1.36833e-18 0.472304 -2.59921e-16 2.16015e-16)
(1.36381e-15 9.93692e-30 3.19999e-31 44.2767 6.45885e-15 -1.15052e-14 0.467852 -6.30133e-17 -1.23497e-16)
(-5.45523e-15 -2.26747e-29 -7.08585e-31 44.2767 -4.6013e-15 -8.01028e-18 0.467852 -2.74309e-16 2.20989e-16)
(1.39692e-15 -1.70742e-29 -5.27458e-31 43.2192 6.13427e-15 -1.15941e-14 0.46319 -7.42171e-17 -1.26295e-16)
(0 1.34098e-29 4.19057e-31 43.2192 -4.22344e-15 -2.1564e-17 0.46319 -2.84226e-16 2.25878e-16)
(-1.42973e-15 -7.40949e-31 -4.39004e-31 42.1641 5.36033e-15 -1.16898e-14 0.458329 -5.78158e-17 -1.29222e-16)
(0 8.81176e-30 8.26102e-31 42.1641 -3.48428e-15 -2.70259e-17 0.458329 -2.9981e-16 2.30898e-16)
(1.46224e-15 5.0226e-30 4.27692e-31 41.1129 6.22038e-15 -1.17871e-14 0.45328 -5.93526e-17 -1.32168e-16)
(5.84894e-15 -4.34273e-30 -2.71421e-31 41.1129 -3.14756e-15 -2.90814e-17 0.45328 -3.1059e-16 2.35832e-16)
(0 -1.28415e-29 -5.35061e-31 40.0669 6.42294e-15 -1.18854e-14 0.448053 -7.8719e-17 -1.35235e-16)
(5.97765e-15 1.28415e-29 5.35061e-31 40.0669 -3.91028e-15 -2.08277e-17 0.448053 -3.16457e-16 2.40903e-16)
(-1.52625e-15 3.6577e-30 3.85945e-31 39.0275 5.52608e-15 -1.19878e-14 0.442661 -6.56813e-17 -1.38394e-16)
(0 0 0 39.0275 -5.59801e-15 -2.26939e-17 0.442661 -3.32929e-16 2.46046e-16)
(-1.55774e-15 3.65705e-30 1.25942e-31 37.9958 5.42995e-15 -1.20937e-14 0.437115 -6.04064e-17 -1.41667e-16)
(0 4.15867e-30 0 37.9958 -5.73734e-15 -2.10951e-17 0.437115 -3.53861e-16 2.51337e-16)
(2.30757e-15 -4.09906e-30 -2.56191e-31 36.9729 6.07317e-15 -1.22103e-14 0.431424 -6.53632e-17 -1.45206e-16)
(0 4.09906e-30 2.56191e-31 36.9729 -4.65296e-15 -3.72482e-17 0.431424 -3.71363e-16 2.56741e-16)
(-3.8941e-15 3.65098e-30 -1.18933e-31 35.9599 7.93871e-15 -1.23305e-14 0.4256 -7.73965e-17 -1.48705e-16)
(0 8.08063e-30 7.57559e-31 35.9599 -6.01958e-15 -4.94567e-17 0.4256 -3.85872e-16 2.62001e-16)
(-4.48379e-15 1.9912e-29 1.9912e-30 34.9578 1.03064e-14 -1.24516e-14 0.419654 -1.12064e-16 -1.52408e-16)
(-4.35794e-15 -1.9912e-29 -1.7423e-30 34.9578 -7.97956e-15 -3.43449e-17 0.419654 -4.10134e-16 2.67328e-16)
(-1.67992e-15 -1.99161e-29 -1.33039e-30 33.9675 1.09726e-14 -1.25818e-14 0.413596 -1.37332e-16 -1.56277e-16)
(6.71968e-15 2.74773e-29 1.71733e-30 33.9675 -7.25472e-15 -2.71831e-17 0.413596 -4.42208e-16 2.72791e-16)
(0 2.32144e-29 1.20908e-30 32.9897 1.05695e-14 -1.27165e-14 0.407435 -1.3181e-16 -1.60249e-16)
(0 -2.32144e-29 -1.20908e-30 32.9897 -7.44676e-15 -4.86443e-17 0.407435 -4.67136e-16 2.78266e-16)
(-3.88549e-15 1.50679e-29 6.26767e-31 32.0254 9.89824e-15 -1.28499e-14 0.401183 -1.31249e-16 -1.64248e-16)
(9.10132e-15 -1.14408e-29 -4.76702e-31 32.0254 -7.49926e-15 -2.5078e-17 0.401183 -4.90843e-16 2.83578e-16)
(3.53466e-15 -1.47672e-29 -1.01363e-30 31.075 8.26772e-15 -1.29933e-14 0.394848 -1.18598e-16 -1.68644e-16)
(7.06932e-15 7.51791e-30 7.04804e-31 31.075 -5.26925e-15 -1.7568e-17 0.394848 -5.12981e-16 2.89286e-16)
(2.08577e-15 -3.70508e-30 -4.63135e-31 30.1394 6.58977e-15 -1.31492e-14 0.38844 -9.30194e-17 -1.73142e-16)
(-2.08577e-15 3.70508e-30 4.63135e-31 30.1394 -4.25458e-15 -4.96623e-17 0.38844 -5.29651e-16 2.94856e-16)
(2.32411e-16 -2.75415e-32 1.63504e-31 29.219 5.62815e-15 -1.33076e-14 0.381968 -7.8144e-17 -1.7779e-16)
(-2.05588e-15 7.30395e-30 2.28248e-31 29.219 -3.61574e-15 -5.05943e-17 0.381968 -5.46507e-16 3.00398e-16)
(-3.70176e-15 1.80449e-29 1.23636e-30 28.3143 5.48115e-15 -1.34697e-14 0.375441 -7.02036e-17 -1.82582e-16)
(7.40351e-15 -1.79982e-29 -1.12489e-30 28.3143 -3.21059e-15 -3.08637e-17 0.375441 -5.62127e-16 3.0588e-16)
(-1.87784e-15 7.16762e-30 1.73062e-31 27.4257 6.34018e-15 -1.36379e-14 0.368866 -7.6472e-17 -1.87596e-16)
(0 0 4.43505e-31 27.4257 -3.68928e-15 -2.4478e-17 0.368866 -5.82036e-16 3.11631e-16)
(-1.90436e-15 3.61372e-30 -4.77696e-31 26.5537 7.28781e-15 -1.38097e-14 0.362252 -9.57443e-17 -1.92697e-16)
(7.61742e-15 3.49719e-30 1.09287e-30 26.5537 -3.99584e-15 -2.20299e-17 0.362252 -6.01134e-16 3.17211e-16)
(-3.87094e-15 1.05031e-29 1.04484e-30 25.6985 7.54229e-15 -1.39879e-14 0.355607 -1.04995e-16 -1.98104e-16)
(0 -3.44706e-30 -2.15442e-31 25.6985 -6.02009e-15 -8.50125e-18 0.355607 -6.16285e-16 3.22935e-16)
(-3.91203e-15 1.74043e-29 1.43828e-30 24.8604 7.99752e-15 -1.4175e-14 0.348938 -1.0571e-16 -2.03683e-16)
(-7.82406e-15 -1.0193e-29 -1.06177e-30 24.8604 -6.14801e-15 -2.75962e-17 0.348938 -6.43945e-16 3.28623e-16)
(-3.96231e-15 -1.28933e-29 -8.68723e-31 24.0396 9.27972e-15 -1.43686e-14 0.342252 -1.21067e-16 -2.09517e-16)
(1.58492e-14 1.67448e-29 1.25586e-30 24.0396 -5.60225e-15 -1.80308e-17 0.342252 -6.61527e-16 3.34312e-16)
(-7.87578e-15 3.71872e-29 2.24757e-30 23.2364 1.02401e-14 -1.45702e-14 0.335557 -1.45943e-16 -2.15571e-16)
(-8.02333e-15 -2.64077e-29 -1.65048e-30 23.2364 -7.62209e-15 -5.50838e-18 0.335557 -6.88082e-16 3.40311e-16)
(-2.03005e-15 -1.91875e-29 -1.01547e-30 22.4507 1.06011e-14 -1.4776e-14 0.328857 -1.52834e-16 -2.21791e-16)
(8.12019e-15 2.60292e-29 1.62683e-30 22.4507 -7.68063e-15 -2.83762e-17 0.328857 -7.32054e-16 3.4626e-16)
(2.05379e-15 -1.64108e-29 -1.01211e-30 21.6828 1.01022e-14 -1.49956e-14 0.32216 -1.6098e-16 -2.28529e-16)
(0 1.28281e-29 8.01755e-31 21.6828 -6.90699e-15 -2.53872e-17 0.32216 -7.62465e-16 3.51951e-16)
(0 -2.21274e-29 -1.97566e-30 20.9327 7.82427e-15 -1.52243e-14 0.315472 -1.42222e-16 -2.35304e-16)
(8.30831e-15 2.21274e-29 1.97566e-30 20.9327 -4.63629e-15 -4.55639e-17 0.315472 -7.90143e-16 3.57662e-16)
(1.75401e-15 -6.2315e-30 -7.78937e-31 20.2003 6.49868e-15 -1.54608e-14 0.308797 -9.57969e-17 -2.42587e-16)
(6.64557e-15 6.2315e-30 7.78937e-31 20.2003 -3.2765e-15 -8.78852e-17 0.308797 -8.08689e-16 3.62825e-16)
(0 1.22844e-29 1.53555e-30 19.4856 9.29096e-15 -1.56986e-14 0.302142 -1.05121e-16 -2.49706e-16)
(8.48898e-15 -3.07109e-30 -7.67773e-31 19.4856 -6.37913e-15 -5.11508e-17 0.302142 -8.37141e-16 3.67625e-16)
(-3.40818e-15 2.11895e-29 1.89192e-30 18.7887 1.16785e-14 -1.59252e-14 0.295511 -1.86794e-16 -2.56956e-16)
(3.40818e-15 -2.11895e-29 -1.89192e-30 18.7887 -9.06367e-15 -1.64697e-17 0.295511 -8.82466e-16 3.72585e-16)
(-4.3311e-15 4.12896e-30 1.09894e-31 18.1094 1.13698e-14 -1.61639e-14 0.28891 -1.84705e-16 -2.64778e-16)
(0 2.98369e-30 3.72961e-31 18.1094 -9.59225e-15 -4.01603e-17 0.28891 -9.35991e-16 3.77273e-16)
(0 -2.35274e-29 -2.20569e-30 17.4476 1.24101e-14 -1.6413e-14 0.282341 -1.8223e-16 -2.72699e-16)
(8.74604e-15 2.35274e-29 2.20569e-30 17.4476 -9.69375e-15 -1.74144e-17 0.282341 -9.90154e-16 3.81574e-16)
(-3.26373e-15 1.15951e-29 7.24693e-31 16.8033 1.33613e-14 -1.66573e-14 0.275811 -2.24427e-16 -2.80711e-16)
(8.82803e-15 -5.79755e-30 0 16.8033 -1.01271e-14 1.40479e-17 0.275811 -1.03229e-15 3.86228e-16)
(-2.22705e-15 3.52816e-30 2.62235e-31 16.1761 1.3156e-14 -1.69067e-14 0.269323 -2.19395e-16 -2.89153e-16)
(0 5.71445e-30 7.14307e-31 16.1761 -9.49353e-15 -8.77509e-18 0.269323 -1.07034e-15 3.91129e-16)
(2.24663e-15 2.1127e-30 8.24055e-32 15.5661 1.18603e-14 -1.71697e-14 0.26288 -2.24033e-16 -2.97991e-16)
(0 0 0 15.5661 -7.91504e-15 -7.572e-17 0.26288 -1.10937e-15 3.96257e-16)
(3.1254e-15 -1.11036e-29 -1.04097e-30 14.973 9.97271e-15 -1.74373e-14 0.256487 -1.81196e-16 -3.06975e-16)
(0 1.11036e-29 1.04097e-30 14.973 -7.70724e-15 -1.07786e-16 0.256487 -1.13939e-15 4.00696e-16)
(3.0806e-15 -5.47225e-30 -1.71008e-30 14.3965 8.64765e-15 -1.76969e-14 0.250146 -1.64639e-16 -3.15923e-16)
(-3.0806e-15 5.47225e-30 1.71008e-30 14.3965 -7.19437e-15 -1.07177e-16 0.250146 -1.17996e-15 4.05004e-16)
(-1.56888e-15 1.63282e-30 2.4949e-31 13.8366 7.64122e-15 -1.79559e-14 0.243861 -1.3953e-16 -3.25283e-16)
(0 5.39382e-30 3.37114e-31 13.8366 -4.718e-15 -1.20187e-16 0.243861 -1.21685e-15 4.08848e-16)
(-2.32045e-15 1.41441e-29 1.29842e-30 13.2929 8.25879e-15 -1.82228e-14 0.237635 -1.33264e-16 -3.34916e-16)
(0 -1.0633e-29 -9.96846e-31 13.2929 -3.56522e-15 -8.65697e-17 0.237635 -1.23543e-15 4.1222e-16)
(2.33779e-15 1.73865e-30 -3.1015e-31 12.7652 9.54637e-15 -1.84891e-14 0.231471 -1.66151e-16 -3.44669e-16)
(-9.35118e-15 -5.24031e-30 0 12.7652 -6.30319e-15 -6.87908e-17 0.231471 -1.26706e-15 4.15663e-16)
(2.90775e-15 -1.03304e-29 -6.45651e-31 12.2533 1.05006e-14 -1.87623e-14 0.22537 -1.84834e-16 -3.54989e-16)
(-9.41881e-15 1.03304e-29 6.45651e-31 12.2533 -7.93563e-15 -6.97787e-17 0.22537 -1.32064e-15 4.18585e-16)
(-2.37118e-15 1.36665e-29 2.23715e-30 11.7569 1.15128e-14 -1.90367e-14 0.219337 -2.06858e-16 -3.65218e-16)
(1.61033e-14 -5.09117e-30 -1.27279e-30 11.7569 -6.48676e-15 -7.30606e-18 0.219337 -1.35872e-15 4.21625e-16)
(2.38722e-15 1.15805e-29 9.17319e-31 11.2758 1.2804e-14 -1.93191e-14 0.213372 -2.28815e-16 -3.76308e-16)
(9.5489e-15 -2.5091e-29 -2.5091e-30 11.2758 -8.08888e-15 4.06692e-18 0.213372 -1.39021e-15 4.25359e-16)
(0 0 -6.18285e-31 10.8096 1.35759e-14 -1.96134e-14 0.207479 -2.62832e-16 -3.87459e-16)
(0 4.94628e-30 1.23657e-30 10.8096 -9.85075e-15 -4.19429e-17 0.207479 -1.4641e-15 4.28832e-16)
(-2.41805e-15 -1.60497e-29 -2.08078e-30 10.3581 1.39399e-14 -1.99069e-14 0.201658 -2.65795e-16 -3.99007e-16)
(9.67221e-15 2.92523e-29 3.04712e-30 10.3581 -9.8898e-15 -6.09662e-17 0.201658 -1.51551e-15 4.32138e-16)
(-2.43284e-15 1.30506e-29 2.77006e-30 9.92107 1.51402e-14 -2.02008e-14 0.195912 -2.85015e-16 -4.10674e-16)
(-9.73137e-15 -4.80551e-30 -1.20138e-30 9.92107 -1.07726e-14 -9.92696e-17 0.195912 -1.58307e-15 4.35046e-16)
(2.44722e-15 -1.28976e-29 -1.56212e-30 9.49813 1.51034e-14 -2.05027e-14 0.190243 -3.22034e-16 -4.23063e-16)
(9.7889e-15 9.47327e-30 1.18416e-30 9.49813 -9.43914e-15 -1.13175e-16 0.190243 -1.66209e-15 4.36813e-16)
(-5.08947e-15 2.67627e-29 2.72341e-30 9.08902 1.41092e-14 -2.08122e-14 0.184652 -2.91855e-16 -4.35565e-16)
(1.24731e-14 -2.33437e-29 -2.33437e-30 9.08902 -8.70606e-15 -7.48728e-17 0.184652 -1.70985e-15 4.38053e-16)
(-2.47478e-15 3.40963e-30 4.00472e-31 8.69346 1.37888e-14 -2.11129e-14 0.179141 -2.90157e-16 -4.48131e-16)
(0 0 0 8.69346 -9.64729e-15 -1.04532e-16 0.179141 -1.78767e-15 4.38905e-16)
(-2.48796e-15 3.40056e-30 4.1235e-31 8.31114 1.26541e-14 -2.14058e-14 0.17371 -2.86898e-16 -4.60851e-16)
(0 4.53588e-30 1.13397e-30 8.31114 -8.94389e-15 -1.56468e-16 0.17371 -1.85076e-15 4.3839e-16)
(-2.50076e-15 -5.54489e-30 -2.36969e-30 7.94177 1.19525e-14 -2.16885e-14 0.168361 -2.50129e-16 -4.73524e-16)
(1.0003e-14 1.34126e-29 3.35315e-30 7.94177 -7.97257e-15 -9.62926e-17 0.168361 -1.90125e-15 4.36911e-16)
(2.51317e-15 -1.6607e-29 -2.08969e-30 7.58506 1.23205e-14 -2.1966e-14 0.163096 -2.64858e-16 -4.86566e-16)
(0 1.32204e-29 1.65255e-30 7.58506 -8.73019e-15 -1.00921e-16 0.163096 -1.94881e-15 4.35432e-16)
(2.44524e-15 -4.34363e-30 -2.17181e-30 7.2407 1.3171e-14 -2.22332e-14 0.157914 -2.73659e-16 -4.99328e-16)
(0 4.34363e-30 2.71477e-30 7.2407 -1.18468e-14 -1.35716e-16 0.157914 -1.99124e-15 4.32592e-16)
(-2.53687e-15 -9.14934e-31 -6.06795e-31 6.90841 1.53881e-14 -2.24833e-14 0.152817 -3.10598e-16 -5.12152e-16)
(0 8.56274e-30 2.14069e-30 6.90841 -1.33669e-14 -9.11528e-17 0.152817 -2.05301e-15 4.28971e-16)
(0 -2.95401e-29 -6.85751e-30 6.58789 1.74866e-14 -2.27361e-14 0.147805 -3.82138e-16 -5.25576e-16)
(2.03854e-14 2.95401e-29 6.85751e-30 6.58789 -1.06342e-14 -5.38499e-17 0.147805 -2.10287e-15 4.24906e-16)
(-2.3416e-15 4.15952e-30 1.03988e-30 6.27884 1.73502e-14 -2.29872e-14 0.14288 -4.16165e-16 -5.38865e-16)
(1.02364e-14 0 0 6.27884 -9.36089e-15 -8.71884e-17 0.14288 -2.13061e-15 4.20633e-16)
(-4.87774e-15 2.38312e-29 6.65605e-30 5.98096 1.65712e-14 -2.32244e-14 0.138041 -3.86967e-16 -5.52195e-16)
(-1.02788e-14 -1.63996e-29 -5.12489e-30 5.98096 -1.14431e-14 -1.73124e-16 0.138041 -2.1965e-15 4.14839e-16)
(-3.04972e-16 1.14021e-29 2.54205e-30 5.69398 1.72128e-14 -2.34358e-14 0.133289 -3.91498e-16 -5.64802e-16)
(-1.03197e-14 -8.08229e-30 -2.02057e-30 5.69398 -1.25899e-14 -1.75031e-16 0.133289 -2.27918e-15 4.07197e-16)
(0 3.98323e-30 9.95806e-31 5.4176 1.74458e-14 -2.36313e-14 0.128624 -4.29104e-16 -5.77892e-16)
(0 0 0 5.4176 -1.14152e-14 -1.16201e-16 0.128624 -2.33373e-15 3.9878e-16)
(0 3.92614e-30 2.9446e-30 5.15154 1.83811e-14 -2.38194e-14 0.124047 -4.14313e-16 -5.90637e-16)
(8.18735e-15 0 -1.96307e-30 5.15154 -1.28077e-14 -9.47336e-17 0.124047 -2.38956e-15 3.89695e-16)
(-3.927e-15 2.76943e-29 6.20276e-30 4.8955 1.9048e-14 -2.3988e-14 0.119557 -4.87884e-16 -6.03274e-16)
(2.17854e-15 -2.32192e-29 -5.8048e-30 4.8955 -1.4456e-14 -7.56113e-17 0.119557 -2.48224e-15 3.79344e-16)
(0 -3.43296e-29 -8.5824e-30 4.64922 1.61188e-14 -2.41593e-14 0.115155 -4.59883e-16 -6.1665e-16)
(2.09402e-14 3.43296e-29 8.5824e-30 4.64922 -9.80775e-15 -1.32806e-16 0.115155 -2.57688e-15 3.68713e-16)
(2.11654e-15 -1.50389e-29 -1.87986e-30 4.41241 1.42459e-14 -2.43131e-14 0.110841 -3.53201e-16 -6.28881e-16)
(2.10089e-14 7.51946e-30 1.87986e-30 4.41241 -9.59214e-15 -2.01612e-16 0.110841 -2.61007e-15 3.55334e-16)
(-5.26879e-15 6.48089e-30 3.17002e-31 4.1848 1.51503e-14 -2.44218e-14 0.106613 -3.7672e-16 -6.40405e-16)
(0 0 9.26461e-31 4.1848 -1.21213e-14 -1.42452e-16 0.106613 -2.70453e-15 3.40439e-16)
(-2.64237e-15 3.21986e-30 6.40196e-31 3.96612 1.78703e-14 -2.44852e-14 0.102473 -4.10891e-16 -6.50669e-16)
(2.11389e-14 7.30546e-30 9.13182e-31 3.96612 -1.03826e-14 -1.12462e-16 0.102473 -2.82528e-15 3.24834e-16)
(2.65004e-15 -1.0383e-29 -2.45912e-30 3.7561 2.02846e-14 -2.45097e-14 0.0984202 -5.32211e-16 -6.60486e-16)
(0 7.20075e-30 1.80019e-30 3.7561 -1.29496e-14 -1.0381e-16 0.0984202 -2.91886e-15 3.0716e-16)
(-2.65742e-15 3.15762e-30 6.78041e-31 3.55447 2.08345e-14 -2.45019e-14 0.0944536 -5.53012e-16 -6.69303e-16)
(0 3.54877e-30 8.87193e-31 3.55447 -1.47658e-14 -8.94755e-17 0.0944536 -3.04908e-15 2.88265e-16)
(-2.66451e-15 1.36252e-29 4.19569e-30 3.36099 2.29368e-14 -2.44339e-14 0.0905729 -5.77861e-16 -6.76066e-16)
(1.06581e-14 -1.04937e-29 -3.49791e-30 3.36099 -1.25592e-14 -8.56532e-17 0.0905729 -3.16419e-15 2.68833e-16)
(-6.55318e-15 1.34377e-29 3.30326e-30 3.1754 2.52956e-14 -2.43417e-14 0.0867778 -6.85808e-16 -6.83718e-16)
(1.06853e-14 -6.89555e-30 -8.61944e-31 3.1754 -1.3963e-14 -8.1637e-17 0.0867778 -3.21581e-15 2.48234e-16)
(-5.35572e-15 6.14159e-30 1.47606e-30 2.99744 2.37831e-14 -2.42136e-14 0.0830675 -7.27508e-16 -6.88558e-16)
(0 0 0 2.99744 -1.48036e-14 -1.17446e-17 0.0830675 -3.29053e-15 2.27641e-16)
(-2.68413e-15 6.41835e-30 5.78325e-30 2.82688 1.8139e-14 -2.40363e-14 0.0794416 -6.19557e-16 -6.9348e-16)
(-3.77137e-15 0 -3.34965e-30 2.82688 -1.17568e-14 -1.05125e-16 0.0794416 -3.39159e-15 2.08473e-16)
(3.71732e-15 -9.90493e-30 -3.30164e-30 2.66346 1.44529e-14 -2.38508e-14 0.0758992 -4.21946e-16 -6.97827e-16)
(-1.07605e-14 9.90493e-30 4.12705e-30 2.66346 -9.89225e-15 -2.4359e-16 0.0758992 -3.47552e-15 1.835e-16)
(2.69588e-15 -9.5806e-30 -5.68182e-30 2.50696 1.61825e-14 -2.36286e-14 0.0724396 -4.21123e-16 -7.00551e-16)
(1.07835e-14 6.50865e-30 4.88148e-30 2.50696 -1.01978e-14 -1.43042e-16 0.0724396 -3.54035e-15 1.55352e-16)
(2.70137e-15 -9.45936e-30 -5.63297e-30 2.35715 1.85904e-14 -2.33474e-14 0.0690621 -5.37405e-16 -7.01259e-16)
(-1.08055e-14 6.41536e-30 4.81152e-30 2.35715 -1.10282e-14 -9.6032e-17 0.0690621 -3.61415e-15 1.26322e-16)
(-2.70662e-15 9.34709e-30 2.42414e-30 2.21379 1.94752e-14 -2.29659e-14 0.0657658 -5.79088e-16 -6.97667e-16)
(1.08265e-14 -3.16171e-30 0 2.21379 -1.16351e-14 -8.68121e-17 0.0657658 -3.70409e-15 9.48848e-17)
(-3.50874e-15 6.23278e-30 3.11639e-30 2.07668 2.10761e-14 -2.24982e-14 0.0625499 -6.07431e-16 -6.92685e-16)
(0 -3.11639e-30 0 2.07668 -1.33339e-14 -3.92643e-17 0.0625499 -3.78857e-15 6.12761e-17)
(-3.45845e-15 1.22869e-29 4.60759e-30 1.9456 2.29946e-14 -2.19663e-14 0.0594137 -6.95707e-16 -6.84515e-16)
(1.08656e-14 -6.14345e-30 -1.53586e-30 1.9456 -1.4393e-14 1.97807e-17 0.0594137 -3.89827e-15 2.65195e-17)
(6.12984e-15 -1.20297e-29 -3.93683e-30 1.82033 2.33146e-14 -2.1346e-14 0.0563561 -7.46387e-16 -6.7323e-16)
(-3.40889e-15 9.0831e-30 3.0277e-30 1.82033 -1.52596e-14 3.02816e-17 0.0563561 -3.98893e-15 -8.03175e-18)
(0 5.96861e-30 2.9843e-30 1.70068 2.40653e-14 -2.06299e-14 0.0533765 -7.36592e-16 -6.58015e-16)
(-1.09011e-14 -5.96861e-30 -1.49215e-30 1.70068 -1.63101e-14 -6.31062e-17 0.0533765 -4.10792e-15 -4.29487e-17)
(-3.31187e-15 2.94153e-30 1.47077e-30 1.58646 2.61362e-14 -1.97814e-14 0.0504739 -8.17048e-16 -6.36997e-16)
(0 5.88306e-30 1.47077e-30 1.58646 -1.61968e-14 -5.4105e-17 0.0504739 -4.23894e-15 -8.05199e-17)
(0 8.69812e-30 2.89937e-30 1.47747 2.4484e-14 -1.88044e-14 0.0476478 -8.94748e-16 -6.11916e-16)
(0 -5.79874e-30 0 1.47747 -1.46343e-14 2.58722e-17 0.0476478 -4.37023e-15 -1.16947e-16)
(2.73697e-15 8.57085e-30 4.71498e-30 1.37354 2.06557e-14 -1.77514e-14 0.0448974 -7.30437e-16 -5.84181e-16)
(0 -1.14313e-29 -2.12521e-32 1.37354 -1.17698e-14 -2.51449e-30 0.0448974 -4.45717e-15 -1.53138e-16)
(2.74046e-15 5.59868e-30 3.20218e-30 1.27449 2.02744e-14 -1.66118e-14 0.0422222 -6.61083e-16 -5.51357e-16)
(0 -2.81686e-30 -2.81686e-30 1.27449 -1.0127e-14 -2.29889e-16 0.0422222 -4.54342e-15 -1.94495e-16)
(-5.48749e-15 5.64816e-30 7.03159e-31 1.18016 2.11203e-14 -1.53281e-14 0.0396218 -7.25577e-16 -5.11605e-16)
(1.0975e-14 0 1.38824e-30 1.18016 -1.03705e-14 -1.53816e-16 0.0396218 -4.63777e-15 -2.37241e-16)
(-2.74685e-15 2.79789e-30 1.06819e-30 1.09039 2.20059e-14 -1.38699e-14 0.0370959 -7.39546e-16 -4.64137e-16)
(0 5.47338e-30 2.73669e-30 1.09039 -1.16303e-14 -3.92763e-17 0.0370959 -4.73213e-15 -2.80317e-16)
(0 1.07899e-29 0 1.00504 2.32427e-14 -1.22489e-14 0.0346443 -8.09613e-16 -4.10018e-16)
(-3.03708e-15 -5.39493e-30 0 1.00504 -1.1817e-14 -2.50818e-30 0.0346443 -4.87021e-15 -3.22599e-16)
(-2.99355e-15 5.31761e-30 5.31761e-30 0.923974 2.34514e-14 -1.04798e-14 0.0322674 -8.50155e-16 -3.48656e-16)
(0 0 -2.6588e-30 0.923974 -1.34232e-14 -3.41361e-20 0.0322674 -4.96979e-15 -3.67883e-16)
(-2.95064e-15 5.24139e-30 7.00649e-46 0.847056 2.2775e-14 2.34015e-30 0.0299655 -8.48556e-16 0)
(0 0 0 0.847056 -1.50774e-14 1.13883e-16 0.0299655 -5.11332e-15 -4.10335e-16)
(0 5.16627e-30 1.29157e-30 0.774176 2.11163e-14 2.40474e-14 0.0277393 -8.24992e-16 -7.83221e-16)
(2.20595e-14 0 0 0.774176 -1.44731e-14 2.55243e-16 0.0277393 -5.28088e-15 -4.49945e-16)
(-5.51933e-15 5.37375e-30 1.93286e-30 0.705227 2.02167e-14 2.75008e-14 0.02559 -7.48842e-16 -1.01135e-15)
(1.10387e-14 0 0 0.705227 -1.50791e-14 3.64763e-16 0.02559 -5.42395e-15 -4.84362e-16)
(2.76173e-15 -1.26975e-29 -5.94061e-30 0.640117 2.08173e-14 2.89103e-14 0.0235189 -7.8062e-16 -1.06929e-15)
(0 5.01924e-30 5.01924e-30 0.640117 -1.69324e-14 3.22784e-16 0.0235189 -5.61171e-15 -5.16184e-16)
(0 4.9473e-30 2.47365e-30 0.578762 2.04019e-14 3.05735e-14 0.0215279 -8.17206e-16 -1.14993e-15)
(-1.10545e-14 0 0 0.578762 -1.53254e-14 2.84665e-16 0.0215279 -5.8226e-15 -5.4533e-16)
(-5.51056e-15 -1.20132e-29 -6.49697e-30 0.521089 1.96036e-14 3.19993e-14 0.0196192 -7.70905e-16 -1.23105e-15)
(1.10616e-14 1.46292e-29 8.53369e-30 0.521089 -1.21582e-14 2.66203e-16 0.0196192 -5.96009e-15 -5.69616e-16)
(-2.70582e-15 4.8065e-30 3.60488e-30 0.467037 1.95011e-14 3.29909e-14 0.0177953 -7.77627e-16 -1.29705e-15)
(0 0 -2.40325e-30 0.467037 -1.32015e-14 3.26711e-16 0.0177953 -6.08977e-15 -5.89926e-16)
(2.66704e-15 -9.47523e-30 -3.55321e-30 0.41655 1.83708e-14 3.41439e-14 0.0160592 -7.85214e-16 -1.34715e-15)
(-2.66704e-15 4.73761e-30 4.73761e-30 0.41655 -1.46527e-14 2.79301e-16 0.0160592 -6.26059e-15 -6.03403e-16)
(-2.76983e-15 2.56725e-30 6.55606e-31 0.369579 1.61575e-14 3.51354e-14 0.014414 -7.07843e-16 -1.42947e-15)
(0 0 0 0.369579 -1.31038e-14 2.23835e-16 0.014414 -6.44559e-15 -6.16682e-16)
(-2.95095e-15 -1.32899e-29 -8.00028e-30 0.326078 1.54099e-14 3.58516e-14 0.0128628 -6.24327e-16 -1.46899e-15)
(2.21683e-14 1.84111e-29 9.20556e-30 0.326078 -1.10149e-14 3.16284e-16 0.0128628 -6.58727e-15 -6.23272e-16)
(0 4.53681e-30 1.1342e-30 0.286 1.74524e-14 3.66435e-14 0.0114088 -6.65553e-16 -1.53172e-15)
(0 0 0 0.286 -1.26446e-14 2.26229e-16 0.0114088 -6.72021e-15 -6.23562e-16)
(-2.51739e-15 8.94358e-30 3.35384e-30 0.249293 1.79401e-14 3.18711e-14 0.0100547 -8.17294e-16 -1.57974e-15)
(0 0 -1.11795e-30 0.249293 -1.23635e-14 9.58322e-17 0.0100547 -6.93729e-15 -6.23002e-16)
(-8.32196e-15 -5.79693e-30 -5.07947e-30 0.215892 1.57565e-14 2.47826e-14 0.00880293 -7.27365e-16 -1.16253e-15)
(2.21919e-14 1.32231e-29 -7.82553e-32 0.215892 -7.47902e-15 3.77441e-44 0.00880293 -7.07483e-15 -5.63889e-16)
(0 -1.30336e-29 -7.60291e-30 0.185721 1.39232e-14 2.32702e-14 0.00765487 -6.49023e-16 -1.00205e-15)
(2.21981e-14 1.30336e-29 7.60291e-30 0.185721 -7.86956e-15 -5.10904e-15 0.00765487 -7.1024e-15 -5.4811e-16)
(2.04596e-15 1.10361e-29 3.67678e-30 0.158683 1.43254e-14 2.42587e-14 0.00661105 -5.84945e-16 -1.06151e-15)
(-4.82139e-15 -8.56451e-30 -2.14113e-30 0.158683 -1.14013e-14 -5.06046e-15 0.00661105 -7.21397e-15 -5.45328e-16)