/*--------------------------------*- C++ -*----------------------------------*\
| =========                 |                                                 |
| \\      /  F ield         | OpenFOAM: The Open Source CFD Toolbox           |
|  \\    /   O peration     | Version:  2012                                  |
|   \\  /    A nd           | Website:  www.openfoam.com                      |
|    \\/     M anipulation  |                                                 |
\*---------------------------------------------------------------------------*/
FoamFile
{
    version     2.0;
    format      ascii;
    class       volScalarField;
    location    "13600";
    object      k;
}
// * * * * * * * * * * * * * * * * * * * * * * * * * * * * * * * * * * * * * //

dimensions      [0 2 -2 0 0 0 0];


internalField   nonuniform List<scalar> 
2560
(
0.0233684
0.0233511
0.666055
0.665604
4.29288
4.29039
10.9147
10.9101
17.4565
17.4505
23.1383
23.1313
28.1334
28.1256
32.6408
32.6324
36.7955
36.7865
40.6864
40.6768
44.3741
44.364
47.9016
47.891
51.3004
51.2893
54.5945
54.5829
57.8024
57.7903
60.9391
60.9266
64.0168
64.0038
67.0454
67.032
70.0337
70.0198
72.9888
72.9745
75.9169
75.9022
78.8234
78.8083
81.713
81.6974
84.5897
84.5736
87.4573
87.4408
90.3192
90.3022
93.1784
93.161
96.0379
96.02
98.9003
98.8819
101.768
101.749
104.644
104.624
107.529
107.509
110.426
110.406
113.337
113.316
116.263
116.242
119.205
119.183
122.163
122.14
125.138
125.114
128.13
128.106
131.139
131.115
134.167
134.142
137.214
137.188
140.281
140.254
143.367
143.339
146.472
146.444
149.596
149.567
152.734
152.704
155.883
155.852
159.038
159.006
162.192
162.16
165.342
165.309
168.48
168.446
171.603
171.568
174.712
174.676
177.81
177.773
180.915
180.877
184.056
184.016
187.273
187.232
190.611
190.568
194.092
194.047
197.695
197.649
201.317
201.269
204.774
204.725
207.826
207.776
210.222
210.171
211.755
211.704
212.306
212.256
211.864
211.815
210.511
210.464
208.398
208.354
205.711
205.669
202.636
202.597
199.343
199.306
195.972
195.937
192.627
192.594
189.379
189.348
186.269
186.238
183.31
183.281
180.497
180.469
177.81
177.783
175.218
175.194
172.69
172.667
170.19
170.169
167.687
167.668
165.151
165.134
162.558
162.543
159.888
159.875
157.127
157.116
154.265
154.255
151.3
151.291
148.235
148.227
145.08
145.072
141.851
141.844
138.57
138.564
135.261
135.256
131.953
131.948
128.67
128.665
125.436
125.431
122.27
122.266
119.185
119.181
116.189
116.186
113.287
113.284
110.48
110.477
107.766
107.763
105.144
105.141
102.612
102.61
100.171
100.168
97.8195
97.8174
95.559
95.557
93.3888
93.387
91.3078
91.3061
89.3127
89.3111
87.3979
87.3965
85.5556
85.5543
83.7759
83.7747
82.0474
82.0464
80.3592
80.3582
78.7015
78.7007
77.0677
77.067
75.4553
75.4547
73.8665
73.866
72.3078
72.3074
70.7891
70.7887
69.3217
69.3214
67.9164
67.9161
66.5814
66.5811
65.3221
65.3218
64.1382
64.1379
63.0258
63.0256
61.9785
61.9782
60.9882
60.988
60.0472
60.047
59.1487
59.1485
58.2876
58.2874
57.4607
57.4605
56.6665
56.6663
55.9044
55.9042
55.1745
55.1743
54.477
54.4768
53.8121
53.8119
53.1791
53.1789
52.5771
52.5769
52.0046
52.0044
51.4593
51.4591
50.939
50.9388
50.4411
50.4409
49.9633
49.9631
49.5037
49.5034
49.0609
49.0606
48.6344
48.634
48.2244
48.224
47.8321
47.8316
47.4591
47.4586
47.1077
47.1072
46.7804
46.7798
46.4798
46.4792
46.2083
46.2076
45.9679
45.9672
45.7604
45.7595
45.5866
45.5857
45.447
45.446
45.3412
45.34
45.2678
45.2666
45.2247
45.2233
45.2084
45.2068
45.2142
45.2125
45.2361
45.2343
45.2667
45.2647
45.2969
45.2948
45.3166
45.3144
45.315
45.3127
45.2811
45.2788
45.2048
45.2027
45.0779
45.0761
44.8953
44.8941
44.6563
44.6558
44.3643
44.3645
44.0275
44.0281
43.6584
43.6591
43.273
43.2737
42.8892
42.8899
42.5248
42.5253
42.195
42.1953
41.9111
41.9112
41.6791
41.6791
41.4989
41.4987
41.3627
41.3623
41.2586
41.2581
41.1711
41.1705
41.083
41.0824
40.9776
40.977
40.8397
40.8394
40.6582
40.6585
40.4259
40.4269
40.1397
40.1411
39.7997
39.8012
39.4097
39.4112
38.9766
38.9781
38.5093
38.5107
38.0176
38.0189
37.5119
37.513
37.0021
37.0031
36.4979
36.4987
36.0076
36.0083
35.5388
35.5394
35.0978
35.0983
34.6898
34.6902
34.3188
34.3191
33.9878
33.988
33.6986
33.6987
33.4518
33.4518
33.2466
33.2466
33.0806
33.0805
32.9497
32.9495
32.8474
32.8472
32.7652
32.7648
32.692
32.6916
32.6149
32.6144
32.5195
32.5189
32.3907
32.39
32.2143
32.2135
31.9782
31.9773
31.6739
31.673
31.2979
31.2971
30.8535
30.853
30.3496
30.3495
29.7988
29.7991
29.2166
29.2169
28.6208
28.6212
28.0286
28.0289
27.4539
27.4541
26.9057
26.9059
26.3879
26.3879
25.8992
25.8992
25.434
25.4339
24.9848
24.9847
24.5446
24.5444
24.1077
24.1075
23.6715
23.6713
23.2363
23.2361
22.8054
22.8053
22.3833
22.3834
21.9749
21.975
21.5842
21.5843
21.2145
21.2146
20.8677
20.8678
20.5449
20.545
20.2462
20.2462
19.9712
19.9713
19.7197
19.7198
19.4914
19.4914
19.2859
19.2859
19.1029
19.1029
18.9421
18.9421
18.8027
18.8027
18.6838
18.6838
18.5844
18.5844
18.5031
18.5031
18.4387
18.4387
18.39
18.39
18.356
18.356
18.336
18.336
18.3296
18.3297
18.3369
18.3369
18.358
18.358
18.3935
18.3935
18.4439
18.4439
18.5097
18.5097
18.5914
18.5914
18.6892
18.6892
18.8031
18.8031
18.9331
18.9331
19.0787
19.0787
19.2397
19.2397
19.4156
19.4156
19.6063
19.6063
19.8114
19.8114
20.0309
20.0309
20.2644
20.2644
20.512
20.512
20.7735
20.7735
21.0487
21.0487
21.3376
21.3376
21.6398
21.6398
21.9554
21.9554
22.2843
22.2843
22.6264
22.6264
22.982
22.982
23.3514
23.3514
23.7352
23.7352
24.1341
24.1341
24.5488
24.5488
24.98
24.98
25.4283
25.4282
25.894
25.894
26.3775
26.3775
26.8788
26.8788
27.3979
27.3979
27.935
27.935
28.4903
28.4903
29.0643
29.0643
29.6576
29.6576
30.2714
30.2714
30.9069
30.9069
31.5654
31.5654
32.2485
32.2485
32.9577
32.9577
33.6945
33.6945
34.4606
34.4606
35.2573
35.2573
36.086
36.086
36.9476
36.9476
37.842
37.842
38.7672
38.7672
39.7168
39.7168
40.6749
40.6749
41.6062
41.6062
42.4379
42.4379
43.0309
43.0309
42.9772
42.9772
0.0233511
0.0233684
0.665603
0.666055
4.29039
4.29288
10.91
10.9147
17.4505
17.4565
23.1313
23.1383
28.1256
28.1334
32.6324
32.6408
36.7865
36.7955
40.6768
40.6864
44.364
44.3741
47.891
47.9016
51.2893
51.3004
54.5828
54.5945
57.7903
57.8024
60.9266
60.9391
64.0038
64.0168
67.032
67.0454
70.0198
70.0337
72.9745
72.9888
75.9022
75.9169
78.8082
78.8234
81.6973
81.713
84.5736
84.5897
87.4407
87.4573
90.3022
90.3192
93.161
93.1785
96.02
96.0379
98.8819
98.9003
101.749
101.768
104.624
104.644
107.509
107.529
110.406
110.426
113.316
113.337
116.242
116.263
119.183
119.205
122.14
122.163
125.114
125.138
128.106
128.13
131.115
131.139
134.142
134.167
137.188
137.214
140.254
140.281
143.339
143.367
146.444
146.472
149.567
149.596
152.704
152.734
155.852
155.883
159.006
159.038
162.16
162.192
165.308
165.342
168.446
168.48
171.568
171.603
174.676
174.712
177.773
177.81
180.877
180.915
184.016
184.056
187.232
187.273
190.567
190.611
194.047
194.092
197.649
197.695
201.269
201.317
204.724
204.774
207.776
207.826
210.171
210.222
211.704
211.755
212.256
212.306
211.815
211.864
210.464
210.511
208.354
208.398
205.669
205.711
202.597
202.636
199.306
199.343
195.937
195.972
192.594
192.627
189.348
189.379
186.238
186.269
183.281
183.31
180.469
180.497
177.783
177.81
175.193
175.218
172.667
172.69
170.169
170.19
167.668
167.687
165.134
165.151
162.543
162.558
159.875
159.888
157.115
157.127
154.255
154.265
151.291
151.3
148.227
148.235
145.072
145.08
141.844
141.851
138.564
138.569
135.256
135.261
131.948
131.953
128.665
128.67
125.431
125.436
122.265
122.269
119.181
119.184
116.186
116.189
113.284
113.287
110.477
110.48
107.763
107.766
105.141
105.144
102.61
102.612
100.168
100.171
97.8174
97.8195
95.5569
95.5589
93.387
93.3888
91.3061
91.3077
89.3111
89.3126
87.3964
87.3979
85.5543
85.5556
83.7746
83.7758
82.0463
82.0474
80.3582
80.3591
78.7006
78.7014
77.0669
77.0676
75.4546
75.4552
73.8659
73.8664
72.3073
72.3077
70.7886
70.7891
69.3213
69.3216
67.916
67.9163
66.581
66.5813
65.3217
65.322
64.1378
64.1381
63.0254
63.0257
61.9781
61.9783
60.9878
60.988
60.0468
60.047
59.1483
59.1485
58.2872
58.2874
57.4604
57.4606
56.6661
56.6663
55.904
55.9042
55.1741
55.1743
54.4766
54.4768
53.8117
53.8119
53.1787
53.1789
52.5767
52.5769
52.0042
52.0044
51.4589
51.4591
50.9386
50.9388
50.4407
50.4409
49.9628
49.9631
49.5032
49.5035
49.0603
49.0607
48.6338
48.6342
48.2238
48.2242
47.8314
47.8318
47.4584
47.4589
47.1069
47.1075
46.7796
46.7802
46.4789
46.4796
46.2074
46.2081
45.9669
45.9677
45.7593
45.7601
45.5854
45.5864
45.4457
45.4468
45.3398
45.341
45.2663
45.2676
45.223
45.2245
45.2066
45.2081
45.2123
45.214
45.2341
45.2359
45.2645
45.2665
45.2945
45.2967
45.3141
45.3164
45.3125
45.3148
45.2786
45.281
45.2025
45.2047
45.0759
45.0778
44.8939
44.8952
44.6557
44.6561
44.3644
44.3642
44.028
44.0274
43.659
43.6582
43.2736
43.2729
42.8897
42.8891
42.5251
42.5246
42.1951
42.1948
41.911
41.9108
41.6788
41.6788
41.4983
41.4986
41.3619
41.3623
41.2576
41.2582
41.17
41.1707
41.0819
41.0826
40.9765
40.9771
40.839
40.8393
40.6581
40.6578
40.4265
40.4255
40.1408
40.1393
39.8009
39.7993
39.411
39.4094
38.9779
38.9764
38.5105
38.5091
38.0187
38.0174
37.5128
37.5117
37.0029
37.002
36.4985
36.4977
36.0081
36.0074
35.5392
35.5386
35.0981
35.0976
34.69
34.6896
34.3189
34.3186
33.9877
33.9875
33.6984
33.6983
33.4514
33.4514
33.2461
33.2461
33.08
33.0801
32.9489
32.9491
32.8465
32.8468
32.7641
32.7645
32.6909
32.6914
32.6137
32.6143
32.5182
32.5189
32.3893
32.3902
32.2129
32.2138
31.9768
31.9778
31.6726
31.6737
31.2968
31.2978
30.8529
30.8535
30.3495
30.3496
29.7992
29.7989
29.2171
29.2167
28.6213
28.621
28.029
28.0287
27.4541
27.4539
26.9058
26.9057
26.3878
26.3878
25.8991
25.8991
25.4337
25.4338
24.9845
24.9847
24.5442
24.5444
24.1073
24.1075
23.6711
23.6714
23.236
23.2362
22.8052
22.8053
22.3833
22.3833
21.975
21.9749
21.5843
21.5842
21.2146
21.2145
20.8678
20.8677
20.545
20.5449
20.2462
20.2461
19.9713
19.9712
19.7198
19.7197
19.4914
19.4913
19.2858
19.2858
19.1029
19.1029
18.942
18.942
18.8026
18.8026
18.6837
18.6837
18.5843
18.5843
18.503
18.503
18.4386
18.4386
18.3899
18.3899
18.3559
18.3559
18.336
18.336
18.3296
18.3296
18.3369
18.3369
18.3581
18.358
18.3935
18.3935
18.4439
18.4439
18.5097
18.5097
18.5914
18.5914
18.6892
18.6892
18.8031
18.8031
18.9331
18.9331
19.0787
19.0787
19.2396
19.2396
19.4156
19.4156
19.6063
19.6063
19.8114
19.8114
20.0308
20.0309
20.2644
20.2644
20.512
20.512
20.7735
20.7735
21.0487
21.0487
21.3375
21.3375
21.6398
21.6398
21.9554
21.9554
22.2843
22.2843
22.6264
22.6264
22.982
22.982
23.3514
23.3514
23.7352
23.7352
24.1341
24.1341
24.5488
24.5488
24.98
24.98
25.4282
25.4282
25.894
25.894
26.3775
26.3775
26.8787
26.8787
27.3979
27.3979
27.9349
27.935
28.4902
28.4902
29.0642
29.0642
29.6576
29.6576
30.2714
30.2714
30.9069
30.9069
31.5654
31.5654
32.2484
32.2484
32.9576
32.9576
33.6944
33.6944
34.4604
34.4604
35.2571
35.2571
36.0856
36.0856
36.9471
36.9471
37.8413
37.8413
38.7664
38.7664
39.7157
39.7157
40.6736
40.6736
41.6047
41.6047
42.4364
42.4364
43.0296
43.0296
42.9761
42.9761
42.9772
42.9772
43.031
43.031
42.4381
42.4381
41.6064
41.6064
40.6751
40.6751
39.7172
39.7172
38.7677
38.7677
37.8425
37.8425
36.9481
36.9481
36.0866
36.0866
35.2579
35.2578
34.4611
34.4611
33.695
33.695
32.9582
32.9582
32.249
32.249
31.566
31.566
30.9075
30.9075
30.2721
30.2721
29.6583
29.6583
29.0649
29.0649
28.4909
28.4909
27.9357
27.9357
27.3986
27.3986
26.8795
26.8795
26.3783
26.3783
25.8948
25.8948
25.429
25.429
24.9807
24.9807
24.5495
24.5495
24.1349
24.1349
23.736
23.736
23.3522
23.3522
22.9828
22.9828
22.6272
22.6272
22.285
22.285
21.9561
21.9561
21.6404
21.6404
21.3381
21.3381
21.0492
21.0492
20.774
20.774
20.5125
20.5125
20.2648
20.2648
20.0312
20.0312
19.8118
19.8118
19.6066
19.6066
19.4159
19.4159
19.2398
19.2398
19.0788
19.0788
18.9332
18.9332
18.8032
18.8032
18.6892
18.6892
18.5913
18.5913
18.5096
18.5096
18.4437
18.4437
18.3933
18.3933
18.3578
18.3578
18.3366
18.3366
18.3292
18.3292
18.3355
18.3355
18.3554
18.3554
18.3893
18.3893
18.4379
18.4379
18.5022
18.5023
18.5835
18.5835
18.6829
18.6829
18.8017
18.8017
18.941
18.941
19.1018
19.1018
19.2847
19.2848
19.4902
19.4902
19.7185
19.7185
19.9699
19.97
20.2448
20.2449
20.5435
20.5436
20.8663
20.8664
21.213
21.213
21.5826
21.5827
21.9732
21.9733
22.3816
22.3816
22.8037
22.8036
23.2347
23.2345
23.67
23.6698
24.1064
24.1061
24.5434
24.5432
24.9838
24.9836
25.433
25.433
25.8984
25.8984
26.3871
26.3871
26.9051
26.9052
27.4533
27.4535
28.0282
28.0284
28.6205
28.6208
29.2164
29.2168
29.7989
29.7992
30.3499
30.3499
30.8541
30.8536
31.2985
31.2976
31.6746
31.6735
31.9788
31.9778
32.2148
32.2139
32.3912
32.3904
32.52
32.5193
32.6155
32.6149
32.6925
32.6921
32.7657
32.7653
32.8478
32.8475
32.95
32.9498
33.0809
33.0808
33.2467
33.2467
33.4519
33.4519
33.6986
33.6988
33.9878
33.988
34.3187
34.319
34.6896
34.69
35.0975
35.098
35.5384
35.539
36.0071
36.0078
36.4972
36.4981
37.0014
37.0024
37.511
37.5122
38.0167
38.018
38.5083
38.5098
38.9756
38.9771
39.4085
39.4102
39.7984
39.8001
40.1384
40.1398
40.4246
40.4256
40.6568
40.6571
40.8382
40.8379
40.976
40.9753
41.0813
41.0805
41.1692
41.1685
41.2566
41.2561
41.3607
41.3603
41.497
41.4967
41.6772
41.6771
41.9091
41.9093
42.193
42.1934
42.5228
42.5233
42.8873
42.8879
43.271
43.2718
43.6564
43.6572
44.0255
44.0262
44.3624
44.3626
44.6545
44.654
44.8937
44.8924
45.0763
45.0744
45.2032
45.2009
45.2794
45.277
45.3133
45.3109
45.3149
45.3125
45.2951
45.2929
45.2649
45.2628
45.2343
45.2324
45.2124
45.2106
45.2065
45.2049
45.2227
45.2213
45.2658
45.2645
45.3391
45.3379
45.4448
45.4437
45.5843
45.5833
45.758
45.7571
45.9654
45.9646
46.2056
46.2049
46.477
46.4764
46.7775
46.7769
47.1046
47.104
47.4558
47.4553
47.8285
47.8281
48.2206
48.2202
48.6303
48.6299
49.0565
49.0562
49.499
49.4987
49.9583
49.958
50.4358
50.4355
50.9334
50.9331
51.4534
51.4531
51.9983
51.9981
52.5706
52.5704
53.1723
53.1721
53.805
53.8048
54.4697
54.4695
55.1668
55.1666
55.8964
55.8962
56.6581
56.658
57.4519
57.4517
58.2782
58.2781
59.1388
59.1386
60.0368
60.0366
60.9772
60.977
61.9669
61.9667
63.0138
63.0136
64.1257
64.1255
65.3091
65.3088
66.5679
66.5676
67.9023
67.902
69.3071
69.3068
70.774
70.7736
72.2922
72.2918
73.8504
73.8498
75.4387
75.4381
77.0506
77.0499
78.6839
78.6831
80.3412
80.3403
82.0291
82.028
83.7571
83.7559
85.5364
85.5351
87.3781
87.3767
89.2923
89.2908
91.2868
91.2852
93.3672
93.3654
95.5367
95.5348
97.7966
97.7946
100.147
100.145
102.588
102.586
105.119
105.116
107.74
107.738
110.454
110.451
113.26
113.257
116.161
116.158
119.156
119.152
122.24
122.236
125.406
125.401
128.639
128.634
131.921
131.916
135.228
135.223
138.536
138.53
141.817
141.81
145.045
145.038
148.2
148.192
151.265
151.256
154.23
154.22
157.091
157.079
159.851
159.838
162.52
162.505
165.111
165.094
167.646
167.627
170.148
170.127
172.647
172.623
175.174
175.148
177.764
177.736
180.45
180.421
183.261
183.231
186.219
186.188
189.328
189.295
192.575
192.54
195.918
195.882
199.288
199.25
202.58
202.54
205.654
205.611
208.341
208.295
210.454
210.406
211.809
211.759
212.253
212.202
211.704
211.651
210.172
210.12
207.777
207.725
204.725
204.674
201.269
201.22
197.65
197.602
194.047
194.001
190.567
190.522
187.23
187.187
184.013
183.972
180.873
180.833
177.769
177.731
174.672
174.634
171.565
171.528
168.443
168.407
165.306
165.271
162.158
162.124
159.004
158.971
155.85
155.819
152.702
152.672
149.565
149.535
146.443
146.414
143.339
143.31
140.253
140.226
137.188
137.161
134.142
134.116
131.115
131.089
128.106
128.081
125.115
125.09
122.14
122.117
119.183
119.16
116.242
116.22
113.317
113.295
110.406
110.385
107.51
107.489
104.625
104.605
101.75
101.73
98.8824
98.8633
96.0206
96.002
93.1617
93.1436
90.303
90.2854
87.4416
87.4245
84.5745
84.5579
81.6983
81.6821
78.8092
78.7935
75.9032
75.888
72.9756
72.9608
70.0209
70.0066
67.0332
67.0193
64.005
63.9916
60.9279
60.9149
57.7917
57.7792
54.5843
54.5722
51.2908
51.2792
47.8925
47.8815
44.3656
44.3551
40.6785
40.6686
36.7883
36.7789
32.6342
32.6255
28.1275
28.1195
23.1332
23.126
17.4524
17.4462
10.9118
10.9069
4.29143
4.28885
0.665806
0.665338
0.0233601
0.0233422
42.9761
42.9761
43.0296
43.0296
42.4367
42.4367
41.6051
41.605
40.674
40.674
39.7163
39.7163
38.7669
38.7669
37.8419
37.8419
36.9477
36.9477
36.0862
36.0863
35.2576
35.2576
34.4609
34.461
33.6949
33.6949
32.9581
32.9581
32.2489
32.249
31.5659
31.566
30.9075
30.9075
30.2721
30.2721
29.6583
29.6583
29.0648
29.0649
28.4909
28.4909
27.9356
27.9356
27.3986
27.3986
26.8795
26.8795
26.3782
26.3782
25.8947
25.8947
25.429
25.429
24.9807
24.9807
24.5495
24.5495
24.1349
24.1349
23.736
23.736
23.3522
23.3522
22.9828
22.9828
22.6272
22.6272
22.285
22.285
21.9561
21.9561
21.6404
21.6404
21.3381
21.3381
21.0492
21.0492
20.7739
20.774
20.5124
20.5124
20.2648
20.2648
20.0312
20.0312
19.8117
19.8117
19.6066
19.6066
19.4158
19.4158
19.2398
19.2398
19.0788
19.0788
18.9332
18.9332
18.8032
18.8032
18.6892
18.6892
18.5913
18.5913
18.5096
18.5096
18.4437
18.4437
18.3933
18.3933
18.3578
18.3578
18.3366
18.3366
18.3292
18.3292
18.3355
18.3355
18.3554
18.3554
18.3893
18.3892
18.4379
18.4378
18.5022
18.5022
18.5834
18.5834
18.6828
18.6828
18.8016
18.8016
18.941
18.941
19.1018
19.1018
19.2847
19.2847
19.4902
19.4902
19.7185
19.7185
19.97
19.9699
20.2449
20.2448
20.5436
20.5435
20.8664
20.8663
21.213
21.213
21.5827
21.5826
21.9733
21.9732
22.3816
22.3816
22.8036
22.8036
23.2344
23.2346
23.6697
23.6699
24.106
24.1062
24.543
24.5432
24.9834
24.9836
25.4328
25.4329
25.8982
25.8983
26.3871
26.387
26.9052
26.905
27.4536
27.4534
28.0285
28.0283
28.621
28.6206
29.2169
29.2165
29.7993
29.799
30.3499
30.35
30.8535
30.854
31.2975
31.2984
31.6733
31.6743
31.9774
31.9785
32.2135
32.2144
32.3899
32.3907
32.5188
32.5195
32.6143
32.6149
32.6914
32.692
32.7647
32.7651
32.847
32.8473
32.9493
32.9495
33.0803
33.0804
33.2463
33.2463
33.4516
33.4515
33.6984
33.6983
33.9877
33.9875
34.3188
34.3185
34.6898
34.6894
35.0978
35.0973
35.5389
35.5382
36.0077
36.0069
36.498
36.4971
37.0023
37.0013
37.512
37.5109
38.0178
38.0165
38.5096
38.5081
38.9769
38.9754
39.41
39.4083
39.7998
39.7981
40.1395
40.1381
40.4252
40.4242
40.6567
40.6564
40.8375
40.8379
40.9749
40.9756
41.0802
41.0809
41.1681
41.1688
41.2557
41.2563
41.36
41.3604
41.4964
41.4967
41.6769
41.6769
41.9091
41.9089
42.1932
42.1929
42.5232
42.5227
42.8878
42.8872
43.2717
43.2709
43.6571
43.6563
44.0261
44.0255
44.3625
44.3623
44.6539
44.6544
44.8923
44.8936
45.0743
45.0762
45.2008
45.2031
45.2769
45.2793
45.3107
45.3131
45.3124
45.3147
45.2927
45.295
45.2627
45.2647
45.2322
45.2342
45.2104
45.2122
45.2047
45.2063
45.2211
45.2226
45.2643
45.2656
45.3377
45.3389
45.4435
45.4447
45.5831
45.5842
45.7569
45.7578
45.9644
45.9653
46.2047
46.2055
46.4762
46.4768
46.7767
46.7773
47.1039
47.1044
47.4551
47.4556
47.8279
47.8284
48.22
48.2204
48.6297
48.6301
49.056
49.0563
49.4985
49.4988
49.9579
49.9582
50.4354
50.4356
50.9329
50.9332
51.453
51.4532
51.998
51.9982
52.5703
52.5705
53.1719
53.1721
53.8046
53.8048
54.4693
54.4695
55.1665
55.1667
55.8961
55.8963
56.6578
56.658
57.4516
57.4518
58.2779
58.2781
59.1385
59.1387
60.0365
60.0367
60.9769
60.9771
61.9666
61.9668
63.0135
63.0137
64.1254
64.1256
65.3087
65.309
66.5675
66.5678
67.9019
67.9022
69.3067
69.307
70.7735
70.774
72.2917
72.2922
73.8497
73.8503
75.438
75.4386
77.0498
77.0505
78.683
78.6839
80.3402
80.3411
82.0279
82.029
83.7558
83.757
85.535
85.5363
87.3766
87.3781
89.2906
89.2923
91.285
91.2868
93.3653
93.3672
95.5347
95.5367
97.7944
97.7966
100.145
100.147
102.585
102.588
105.116
105.119
107.737
107.74
110.45
110.454
113.257
113.26
116.158
116.161
119.152
119.156
122.236
122.24
125.401
125.406
128.634
128.639
131.916
131.921
135.223
135.228
138.53
138.536
141.81
141.817
145.038
145.045
148.192
148.2
151.256
151.265
154.22
154.23
157.079
157.091
159.838
159.851
162.505
162.52
165.094
165.112
167.627
167.646
170.127
170.148
172.623
172.647
175.148
175.174
177.736
177.764
180.421
180.45
183.231
183.262
186.187
186.219
189.295
189.328
192.54
192.575
195.882
195.918
199.25
199.289
202.54
202.581
205.611
205.655
208.295
208.342
210.406
210.455
211.759
211.809
212.201
212.253
211.651
211.704
210.119
210.172
207.725
207.777
204.674
204.725
201.219
201.269
197.602
197.65
194.001
194.048
190.522
190.567
187.187
187.23
183.971
184.013
180.833
180.873
177.73
177.769
174.634
174.672
171.528
171.565
168.407
168.443
165.271
165.306
162.124
162.158
158.971
159.004
155.819
155.85
152.672
152.703
149.535
149.565
146.414
146.443
143.31
143.339
140.226
140.254
137.161
137.188
134.116
134.142
131.089
131.115
128.081
128.106
125.09
125.115
122.117
122.141
119.16
119.183
116.22
116.242
113.295
113.317
110.385
110.407
107.489
107.51
104.605
104.625
101.73
101.75
98.8633
98.8826
96.002
96.0208
93.1436
93.1618
90.2854
90.3031
87.4245
87.4417
84.5579
84.5746
81.6821
81.6984
78.7935
78.8093
75.888
75.9033
72.9608
72.9756
70.0066
70.021
67.0193
67.0333
63.9916
64.0051
60.9149
60.9279
57.7792
57.7917
54.5722
54.5843
51.2792
51.2908
47.8815
47.8926
44.3551
44.3657
40.6686
40.6786
36.7789
36.7883
32.6255
32.6343
28.1195
28.1276
23.126
23.1333
17.4462
17.4525
10.9069
10.9118
4.28885
4.29144
0.665338
0.665808
0.0233421
0.0233601
)
;

boundaryField
{
    walls
    {
        type            kqRWallFunction;
        value           nonuniform List<scalar> 8(0.0233684 0.0233511 0.0233511 0.0233684 0.0233601 0.0233421 0.0233422 0.0233601);
    }
    inlet
    {
        type            cyclic;
    }
    outlet
    {
        type            cyclic;
    }
    sides
    {
        type            empty;
    }
}


// ************************************************************************* //
