/*--------------------------------*- C++ -*----------------------------------*\
| =========                 |                                                 |
| \\      /  F ield         | OpenFOAM: The Open Source CFD Toolbox           |
|  \\    /   O peration     | Version:  2012                                  |
|   \\  /    A nd           | Website:  www.openfoam.com                      |
|    \\/     M anipulation  |                                                 |
\*---------------------------------------------------------------------------*/
FoamFile
{
    version     2.0;
    format      ascii;
    class       volScalarField;
    location    "13600";
    object      nut;
}
// * * * * * * * * * * * * * * * * * * * * * * * * * * * * * * * * * * * * * //

dimensions      [0 2 -1 0 0 0 0];


internalField   nonuniform List<scalar> 
2560
(
1.53317e-08
1.53204e-08
2.5278e-06
2.52606e-06
4.92411e-05
4.9211e-05
0.000258241
0.000258127
0.000652914
0.000652702
0.00117668
0.00117637
0.00178984
0.00178944
0.00247115
0.00247066
0.00320837
0.00320778
0.00399368
0.00399299
0.00482165
0.00482086
0.00568828
0.00568739
0.00659046
0.00658947
0.00752571
0.00752461
0.00849195
0.00849074
0.00948744
0.00948611
0.0105106
0.0105092
0.0115602
0.0115587
0.012635
0.0126333
0.0137338
0.013732
0.0148557
0.0148538
0.0159997
0.0159977
0.0171649
0.0171627
0.0183505
0.0183481
0.0195555
0.019553
0.0207793
0.0207766
0.022021
0.0220182
0.0232799
0.023277
0.0245553
0.0245522
0.0258465
0.0258433
0.0271528
0.0271493
0.0284734
0.0284698
0.0298076
0.0298039
0.0311548
0.0311509
0.0325141
0.03251
0.0338848
0.0338805
0.0352659
0.0352615
0.0366568
0.0366522
0.0380565
0.0380517
0.0394641
0.0394592
0.040879
0.0408739
0.0423004
0.0422951
0.0437274
0.0437219
0.0451593
0.0451536
0.046595
0.0465892
0.0480336
0.0480276
0.0494738
0.0494675
0.0509141
0.0509077
0.052353
0.0523464
0.053789
0.0537821
0.0552203
0.0552132
0.0566457
0.0566384
0.0580639
0.0580564
0.0594742
0.0594665
0.060877
0.0608691
0.0622743
0.062266
0.0636698
0.0636613
0.0650694
0.0650607
0.0664787
0.0664697
0.0678999
0.0678906
0.0693275
0.069318
0.0707425
0.0707328
0.0721142
0.0721042
0.0734031
0.073393
0.0745695
0.0745593
0.0755811
0.075571
0.0764204
0.0764104
0.0770859
0.077076
0.0775911
0.0775815
0.0779601
0.0779509
0.0782228
0.078214
0.0784101
0.0784017
0.078551
0.0785429
0.0786702
0.0786624
0.0787871
0.0787796
0.0789158
0.0789085
0.0790649
0.0790578
0.0792381
0.0792312
0.0794354
0.0794286
0.0796531
0.0796466
0.0798856
0.0798794
0.080126
0.0801203
0.080367
0.0803616
0.0806009
0.080596
0.0808208
0.0808163
0.0810202
0.0810161
0.0811934
0.0811897
0.0813357
0.0813323
0.0814434
0.0814403
0.0815142
0.0815114
0.0815472
0.0815446
0.0815432
0.0815408
0.0815049
0.0815026
0.0814364
0.0814342
0.0813434
0.0813414
0.0812325
0.0812306
0.0811109
0.081109
0.0809852
0.0809834
0.0808615
0.0808598
0.0807448
0.0807431
0.0806386
0.0806369
0.0805453
0.0805438
0.0804665
0.080465
0.0804032
0.0804018
0.0803562
0.0803548
0.0803263
0.0803249
0.0803148
0.0803135
0.0803233
0.080322
0.0803534
0.0803522
0.0804068
0.0804056
0.0804845
0.0804833
0.0805868
0.0805857
0.080713
0.080712
0.0808612
0.0808602
0.0810282
0.0810273
0.08121
0.0812091
0.0814022
0.0814014
0.081601
0.0816002
0.0818035
0.0818027
0.0820089
0.0820082
0.0822189
0.0822183
0.0824376
0.082437
0.0826711
0.0826705
0.0829271
0.0829265
0.0832134
0.0832128
0.0835367
0.0835361
0.0839025
0.0839019
0.084313
0.0843125
0.0847681
0.0847676
0.0852657
0.0852652
0.0858027
0.0858021
0.0863753
0.0863748
0.0869807
0.0869801
0.0876166
0.087616
0.088282
0.0882815
0.0889771
0.0889765
0.0897026
0.089702
0.0904599
0.0904593
0.0912505
0.0912499
0.0920755
0.0920749
0.092936
0.0929353
0.0938322
0.0938315
0.094764
0.0947633
0.0957308
0.0957301
0.0967315
0.0967307
0.0977648
0.097764
0.0988296
0.0988287
0.099925
0.099924
0.10105
0.10105
0.102206
0.102205
0.103394
0.103393
0.104615
0.104614
0.105873
0.105871
0.10717
0.107168
0.10851
0.108508
0.109897
0.109895
0.111334
0.111333
0.112825
0.112824
0.114373
0.114371
0.115978
0.115976
0.117643
0.117641
0.119367
0.119364
0.121147
0.121145
0.122983
0.12298
0.124868
0.124865
0.126796
0.126793
0.128759
0.128755
0.130745
0.130742
0.132742
0.132739
0.134736
0.134732
0.13671
0.136706
0.138647
0.138644
0.140533
0.14053
0.142355
0.142352
0.144104
0.144102
0.145779
0.145778
0.147383
0.147383
0.148928
0.148929
0.150434
0.150435
0.151926
0.151927
0.153435
0.153436
0.154991
0.154991
0.156621
0.156621
0.158348
0.158348
0.160183
0.160182
0.162127
0.162126
0.164167
0.164166
0.16628
0.166278
0.168435
0.168434
0.1706
0.170598
0.172738
0.172737
0.174821
0.17482
0.176823
0.176824
0.178729
0.178731
0.180529
0.180532
0.182222
0.182225
0.183815
0.183818
0.18532
0.185323
0.186754
0.186757
0.18814
0.188143
0.189501
0.189503
0.190859
0.190861
0.19224
0.192242
0.193666
0.193667
0.195158
0.195159
0.196736
0.196736
0.198415
0.198416
0.200212
0.200212
0.202136
0.202136
0.204197
0.204197
0.206399
0.206398
0.208741
0.20874
0.211218
0.211218
0.213819
0.213818
0.216524
0.216523
0.219305
0.219304
0.222128
0.222126
0.224948
0.224946
0.227718
0.227716
0.230386
0.230383
0.232901
0.232898
0.235219
0.235216
0.237307
0.237303
0.239145
0.239142
0.240739
0.240737
0.242114
0.242114
0.243311
0.243312
0.244382
0.244384
0.245397
0.245398
0.246424
0.246425
0.247525
0.247525
0.248744
0.248744
0.250106
0.250106
0.251615
0.251615
0.253251
0.25325
0.254986
0.254985
0.25679
0.256789
0.258641
0.258639
0.260527
0.260525
0.262454
0.262453
0.264444
0.264443
0.266528
0.266528
0.26874
0.26874
0.271112
0.271112
0.273674
0.273674
0.27645
0.27645
0.279457
0.279457
0.282708
0.282708
0.286215
0.286215
0.289985
0.289985
0.29403
0.29403
0.298358
0.298358
0.302978
0.302978
0.3079
0.307899
0.313126
0.313126
0.318661
0.318661
0.324505
0.324505
0.330656
0.330655
0.33711
0.33711
0.343866
0.343866
0.350922
0.350921
0.358277
0.358276
0.365934
0.365934
0.373899
0.373899
0.382179
0.382179
0.390784
0.390783
0.399721
0.399721
0.409001
0.409001
0.41863
0.41863
0.42861
0.42861
0.438943
0.438943
0.449624
0.449624
0.460649
0.460649
0.472011
0.472011
0.483701
0.483701
0.495712
0.495711
0.508033
0.508033
0.520657
0.520657
0.533574
0.533574
0.546774
0.546774
0.560247
0.560246
0.573979
0.573979
0.58796
0.58796
0.602176
0.602176
0.616612
0.616612
0.631256
0.631256
0.646095
0.646095
0.661117
0.661117
0.676314
0.676314
0.691678
0.691678
0.707202
0.707202
0.722879
0.722879
0.738702
0.738702
0.754659
0.754659
0.770738
0.770738
0.786921
0.78692
0.803188
0.803188
0.819519
0.819519
0.835895
0.835895
0.852298
0.852298
0.868712
0.868712
0.885127
0.885126
0.901532
0.901532
0.917921
0.917921
0.934289
0.934289
0.950632
0.950632
0.966944
0.966944
0.983217
0.983217
0.999444
0.999444
1.01561
1.01561
1.03171
1.03171
1.04772
1.04772
1.06361
1.06361
1.07931
1.07931
1.09471
1.09471
1.10959
1.10959
1.12348
1.12348
1.13547
1.13547
1.14387
1.14387
1.14357
1.14357
1.53204e-08
1.53317e-08
2.52605e-06
2.5278e-06
4.9211e-05
4.92411e-05
0.000258127
0.000258241
0.000652702
0.000652915
0.00117637
0.00117668
0.00178944
0.00178984
0.00247066
0.00247115
0.00320778
0.00320838
0.00399299
0.00399368
0.00482086
0.00482165
0.00568739
0.00568828
0.00658946
0.00659046
0.0075246
0.00752571
0.00849074
0.00849195
0.00948611
0.00948744
0.0105092
0.0105106
0.0115587
0.0115602
0.0126333
0.012635
0.013732
0.0137338
0.0148538
0.0148557
0.0159977
0.0159997
0.0171627
0.0171649
0.0183481
0.0183505
0.019553
0.0195555
0.0207766
0.0207793
0.0220182
0.022021
0.023277
0.0232799
0.0245522
0.0245553
0.0258433
0.0258465
0.0271493
0.0271528
0.0284698
0.0284734
0.0298039
0.0298076
0.0311509
0.0311548
0.03251
0.0325141
0.0338805
0.0338848
0.0352615
0.0352659
0.0366522
0.0366568
0.0380517
0.0380565
0.0394592
0.0394641
0.0408739
0.040879
0.042295
0.0423004
0.0437219
0.0437274
0.0451536
0.0451593
0.0465891
0.046595
0.0480276
0.0480336
0.0494675
0.0494738
0.0509076
0.0509141
0.0523464
0.052353
0.0537821
0.053789
0.0552132
0.0552203
0.0566384
0.0566457
0.0580563
0.0580639
0.0594665
0.0594742
0.060869
0.060877
0.062266
0.0622742
0.0636613
0.0636698
0.0650607
0.0650694
0.0664697
0.0664787
0.0678906
0.0678999
0.0693179
0.0693275
0.0707328
0.0707425
0.0721042
0.0721142
0.073393
0.0734031
0.0745593
0.0745694
0.075571
0.0755811
0.0764103
0.0764204
0.077076
0.0770859
0.0775815
0.0775911
0.0779509
0.0779601
0.078214
0.0782228
0.0784017
0.0784101
0.0785429
0.078551
0.0786624
0.0786701
0.0787796
0.0787871
0.0789085
0.0789158
0.0790577
0.0790649
0.0792311
0.0792381
0.0794286
0.0794354
0.0796465
0.079653
0.0798794
0.0798856
0.0801202
0.080126
0.0803616
0.0803669
0.080596
0.0806009
0.0808163
0.0808208
0.0810161
0.0810202
0.0811897
0.0811934
0.0813323
0.0813357
0.0814403
0.0814434
0.0815113
0.0815142
0.0815445
0.0815472
0.0815408
0.0815432
0.0815026
0.0815049
0.0814342
0.0814364
0.0813413
0.0813434
0.0812306
0.0812325
0.081109
0.0811108
0.0809833
0.0809851
0.0808597
0.0808615
0.0807431
0.0807447
0.0806369
0.0806385
0.0805437
0.0805453
0.080465
0.0804665
0.0804018
0.0804032
0.0803547
0.0803561
0.0803249
0.0803262
0.0803135
0.0803148
0.080322
0.0803232
0.0803522
0.0803534
0.0804056
0.0804067
0.0804833
0.0804844
0.0805857
0.0805867
0.080712
0.080713
0.0808602
0.0808612
0.0810272
0.0810281
0.081209
0.0812099
0.0814013
0.0814022
0.0816001
0.0816009
0.0818027
0.0818034
0.0820082
0.0820089
0.0822182
0.0822189
0.0824369
0.0824375
0.0826704
0.082671
0.0829264
0.082927
0.0832127
0.0832133
0.083536
0.0835366
0.0839018
0.0839024
0.0843123
0.0843129
0.0847674
0.084768
0.085265
0.0852656
0.0858019
0.0858025
0.0863746
0.0863752
0.08698
0.0869806
0.0876159
0.0876164
0.0882813
0.0882819
0.0889763
0.0889769
0.0897018
0.0897024
0.0904591
0.0904597
0.0912496
0.0912503
0.0920747
0.0920753
0.0929351
0.0929358
0.0938313
0.093832
0.0947631
0.0947638
0.0957298
0.0957306
0.0967304
0.0967312
0.0977637
0.0977646
0.0988285
0.0988294
0.0999238
0.0999247
0.101049
0.10105
0.102205
0.102206
0.103393
0.103394
0.104614
0.104615
0.105871
0.105872
0.107168
0.107169
0.108508
0.108509
0.109895
0.109896
0.111332
0.111334
0.112823
0.112825
0.114371
0.114372
0.115976
0.115978
0.117641
0.117643
0.119364
0.119366
0.121145
0.121147
0.12298
0.122982
0.124864
0.124867
0.126792
0.126796
0.128755
0.128758
0.130741
0.130745
0.132739
0.132742
0.134732
0.134736
0.136706
0.136709
0.138643
0.138647
0.14053
0.140533
0.142352
0.142355
0.144102
0.144104
0.145778
0.145779
0.147383
0.147383
0.148929
0.148928
0.150435
0.150434
0.151927
0.151926
0.153435
0.153435
0.154991
0.15499
0.156621
0.156621
0.158347
0.158347
0.160182
0.160182
0.162126
0.162126
0.164165
0.164166
0.166277
0.166279
0.168433
0.168434
0.170597
0.170599
0.172736
0.172737
0.174819
0.17482
0.176823
0.176822
0.17873
0.178728
0.180531
0.180528
0.182225
0.182221
0.183817
0.183814
0.185322
0.185319
0.186757
0.186754
0.188142
0.18814
0.189502
0.1895
0.190861
0.190859
0.192241
0.19224
0.193667
0.193666
0.195159
0.195158
0.196736
0.196735
0.198415
0.198415
0.200211
0.200211
0.202135
0.202135
0.204196
0.204196
0.206397
0.206397
0.208739
0.208739
0.211216
0.211217
0.213816
0.213817
0.21652
0.216522
0.219301
0.219303
0.222124
0.222126
0.224944
0.224946
0.227713
0.227716
0.230381
0.230384
0.232896
0.2329
0.235214
0.235218
0.237302
0.237306
0.239141
0.239145
0.240737
0.240739
0.242114
0.242114
0.243312
0.243311
0.244384
0.244383
0.245399
0.245398
0.246425
0.246424
0.247525
0.247525
0.248744
0.248744
0.250106
0.250106
0.251614
0.251614
0.253249
0.25325
0.254984
0.254985
0.256788
0.256789
0.258638
0.25864
0.260525
0.260526
0.262452
0.262454
0.264443
0.264444
0.266528
0.266528
0.26874
0.26874
0.271112
0.271112
0.273674
0.273674
0.27645
0.27645
0.279457
0.279457
0.282708
0.282708
0.286214
0.286214
0.289985
0.289985
0.294029
0.294029
0.298357
0.298357
0.302978
0.302978
0.307899
0.307899
0.313125
0.313126
0.31866
0.318661
0.324504
0.324504
0.330655
0.330655
0.337109
0.33711
0.343865
0.343866
0.350921
0.350921
0.358276
0.358276
0.365934
0.365934
0.373899
0.373899
0.382179
0.38218
0.390784
0.390784
0.399721
0.399722
0.409001
0.409002
0.41863
0.41863
0.42861
0.428611
0.438942
0.438943
0.449624
0.449624
0.460649
0.460649
0.472011
0.472011
0.483701
0.483701
0.495711
0.495711
0.508033
0.508033
0.520657
0.520657
0.533574
0.533574
0.546774
0.546774
0.560246
0.560246
0.573979
0.573979
0.58796
0.58796
0.602175
0.602175
0.616612
0.616612
0.631255
0.631256
0.646094
0.646095
0.661117
0.661117
0.676314
0.676314
0.691677
0.691678
0.707201
0.707202
0.722879
0.722879
0.738701
0.738701
0.754658
0.754659
0.770737
0.770737
0.786919
0.78692
0.803186
0.803187
0.819518
0.819518
0.835894
0.835894
0.852297
0.852297
0.868711
0.868712
0.885126
0.885126
0.901531
0.901531
0.91792
0.91792
0.934288
0.934289
0.950631
0.950631
0.966942
0.966942
0.983215
0.983215
0.999441
0.999441
1.01561
1.01561
1.03171
1.03171
1.04771
1.04771
1.0636
1.0636
1.07929
1.07929
1.0947
1.0947
1.10957
1.10957
1.12346
1.12346
1.13545
1.13545
1.14385
1.14385
1.14356
1.14356
1.14357
1.14357
1.14387
1.14387
1.13547
1.13547
1.12348
1.12348
1.10959
1.10959
1.09472
1.09472
1.07931
1.07931
1.06361
1.06361
1.04773
1.04773
1.03172
1.03172
1.01562
1.01562
0.999454
0.999454
0.983228
0.983227
0.966954
0.966954
0.950644
0.950644
0.934302
0.934302
0.917935
0.917934
0.901546
0.901546
0.885142
0.885141
0.868728
0.868727
0.852314
0.852313
0.835912
0.835911
0.819537
0.819536
0.803206
0.803206
0.78694
0.786939
0.770758
0.770757
0.754679
0.754679
0.738722
0.738722
0.7229
0.7229
0.707223
0.707223
0.6917
0.6917
0.676337
0.676337
0.66114
0.66114
0.646118
0.646118
0.631279
0.631279
0.616634
0.616634
0.602197
0.602197
0.587981
0.587981
0.574
0.574
0.560267
0.560267
0.546794
0.546794
0.533594
0.533594
0.520677
0.520676
0.508052
0.508052
0.49573
0.49573
0.483719
0.483719
0.472028
0.472028
0.460666
0.460665
0.44964
0.449639
0.438958
0.438957
0.428624
0.428624
0.418643
0.418643
0.409014
0.409014
0.399733
0.399733
0.390794
0.390794
0.382189
0.382189
0.373908
0.373908
0.365942
0.365942
0.358284
0.358283
0.350927
0.350927
0.343871
0.34387
0.337114
0.337113
0.330658
0.330658
0.324507
0.324506
0.318662
0.318662
0.313127
0.313126
0.307899
0.307899
0.302978
0.302977
0.298356
0.298356
0.294028
0.294028
0.289983
0.289983
0.286212
0.286211
0.282705
0.282705
0.279453
0.279453
0.276445
0.276445
0.273669
0.273669
0.271106
0.271106
0.268734
0.268734
0.266522
0.266521
0.264438
0.264437
0.262449
0.262447
0.260522
0.26052
0.258637
0.258635
0.256787
0.256786
0.254983
0.254982
0.253249
0.253248
0.251614
0.251613
0.250105
0.250105
0.248743
0.248744
0.247524
0.247525
0.246424
0.246425
0.245398
0.245399
0.244384
0.244386
0.243314
0.243315
0.242118
0.242118
0.240744
0.240742
0.23915
0.239147
0.237312
0.237308
0.235225
0.235221
0.232906
0.232903
0.230391
0.230388
0.227723
0.227721
0.224954
0.224951
0.222133
0.222131
0.219311
0.219309
0.216529
0.216527
0.213824
0.213823
0.211223
0.211222
0.208745
0.208745
0.206403
0.206402
0.204201
0.204201
0.20214
0.20214
0.200215
0.200216
0.198419
0.198419
0.196739
0.196739
0.195161
0.195162
0.193668
0.19367
0.192242
0.192244
0.190861
0.190863
0.189502
0.189504
0.188142
0.188144
0.186756
0.186759
0.185321
0.185324
0.183816
0.183819
0.182223
0.182226
0.180529
0.180532
0.178729
0.178731
0.176824
0.176824
0.174821
0.174821
0.172738
0.172737
0.170599
0.170597
0.168435
0.168433
0.166279
0.166277
0.164166
0.164165
0.162126
0.162126
0.160182
0.160182
0.158347
0.158347
0.15662
0.15662
0.15499
0.15499
0.153434
0.153435
0.151926
0.151927
0.150433
0.150434
0.148928
0.148928
0.147382
0.147383
0.145779
0.145778
0.144104
0.144102
0.142355
0.142352
0.140533
0.14053
0.138647
0.138643
0.13671
0.136706
0.134736
0.134732
0.132742
0.132739
0.130745
0.130741
0.128758
0.128755
0.126796
0.126793
0.124867
0.124865
0.122982
0.12298
0.121147
0.121145
0.119366
0.119364
0.117643
0.11764
0.115978
0.115976
0.114372
0.11437
0.112824
0.112823
0.111333
0.111332
0.109896
0.109894
0.108508
0.108507
0.107168
0.107167
0.105871
0.10587
0.104613
0.104612
0.103392
0.103391
0.102204
0.102203
0.101048
0.101047
0.099922
0.099921
0.0988263
0.0988254
0.0977612
0.0977604
0.0967276
0.0967268
0.0957267
0.0957259
0.0947597
0.094759
0.0938277
0.0938269
0.0929312
0.0929305
0.0920705
0.0920699
0.0912453
0.0912446
0.0904545
0.0904539
0.089697
0.0896964
0.0889712
0.0889706
0.0882759
0.0882753
0.0876101
0.0876095
0.0869739
0.0869733
0.0863682
0.0863676
0.0857951
0.0857945
0.0852579
0.0852573
0.0847601
0.0847595
0.0843047
0.0843041
0.0838939
0.0838933
0.0835279
0.0835273
0.0832043
0.0832037
0.0829178
0.0829172
0.0826617
0.0826611
0.082428
0.0824273
0.0822092
0.0822085
0.081999
0.0819983
0.0817934
0.0817927
0.0815908
0.08159
0.0813919
0.0813911
0.0811996
0.0811987
0.0810178
0.0810168
0.0808507
0.0808497
0.0807024
0.0807014
0.0805761
0.080575
0.0804736
0.0804725
0.0803958
0.0803946
0.0803423
0.0803411
0.0803121
0.0803108
0.0803035
0.0803022
0.0803148
0.0803135
0.0803446
0.0803432
0.0803916
0.0803902
0.0804548
0.0804533
0.0805335
0.0805319
0.0806267
0.0806251
0.0807328
0.0807311
0.0808494
0.0808477
0.080973
0.0809712
0.0810986
0.0810967
0.0812202
0.0812182
0.0813309
0.0813289
0.0814239
0.0814217
0.0814924
0.0814901
0.0815308
0.0815283
0.0815349
0.0815322
0.081502
0.0814991
0.0814312
0.0814281
0.0813234
0.08132
0.081181
0.0811772
0.0810077
0.0810035
0.0808081
0.0808035
0.0805881
0.080583
0.0803539
0.0803484
0.0801128
0.0801069
0.0798722
0.0798658
0.0796395
0.0796328
0.0794217
0.0794147
0.0792243
0.0792171
0.0790509
0.0790435
0.0789017
0.0788941
0.0787729
0.0787651
0.0786558
0.0786478
0.0785366
0.0785282
0.0783957
0.078387
0.0782084
0.0781992
0.0779457
0.0779362
0.0775769
0.077567
0.077072
0.0770618
0.0764069
0.0763965
0.0755681
0.0755576
0.0745567
0.0745462
0.0733906
0.0733801
0.0721018
0.0720915
0.0707304
0.0707203
0.0693158
0.0693059
0.0678884
0.0678788
0.0664674
0.0664581
0.0650583
0.0650492
0.0636589
0.0636501
0.0622635
0.062255
0.0608665
0.0608582
0.059464
0.0594559
0.058054
0.0580462
0.0566362
0.0566286
0.0552111
0.0552038
0.05378
0.0537729
0.0523444
0.0523375
0.0509058
0.0508991
0.0494658
0.0494593
0.048026
0.0480196
0.0465877
0.0465816
0.0451522
0.0451463
0.0437206
0.0437149
0.0422939
0.0422884
0.0408728
0.0408675
0.0394582
0.0394531
0.0380508
0.0380459
0.0366514
0.0366466
0.0352608
0.0352562
0.0338799
0.0338755
0.0325095
0.0325053
0.0311504
0.0311463
0.0298034
0.0297996
0.0284694
0.0284657
0.027149
0.0271455
0.025843
0.0258396
0.024552
0.0245488
0.0232768
0.0232737
0.0220181
0.0220152
0.0207765
0.0207738
0.0195529
0.0195504
0.0183481
0.0183457
0.0171627
0.0171604
0.0159977
0.0159955
0.0148538
0.0148518
0.0137321
0.0137302
0.0126334
0.0126317
0.0115588
0.0115572
0.0105093
0.0105078
0.00948625
0.00948488
0.00849089
0.00848963
0.00752476
0.00752362
0.00658963
0.0065886
0.00568755
0.00568663
0.00482103
0.00482021
0.00399315
0.00399244
0.00320794
0.00320733
0.0024708
0.00247029
0.00178957
0.00178915
0.00117648
0.00117616
0.000652784
0.000652565
0.000258174
0.000258057
4.92243e-05
4.91931e-05
2.52685e-06
2.52504e-06
1.53262e-08
1.53145e-08
1.14356
1.14356
1.14385
1.14385
1.13546
1.13545
1.12346
1.12346
1.10958
1.10958
1.0947
1.0947
1.0793
1.0793
1.06361
1.06361
1.04772
1.04772
1.03172
1.03172
1.01562
1.01562
0.999452
0.999452
0.983226
0.983226
0.966953
0.966953
0.950643
0.950643
0.934301
0.934301
0.917934
0.917934
0.901545
0.901546
0.885141
0.885141
0.868727
0.868727
0.852313
0.852313
0.835911
0.835911
0.819536
0.819536
0.803205
0.803205
0.786939
0.786939
0.770757
0.770757
0.754678
0.754679
0.738722
0.738722
0.7229
0.7229
0.707223
0.707223
0.6917
0.6917
0.676337
0.676337
0.66114
0.66114
0.646118
0.646118
0.631278
0.631279
0.616634
0.616634
0.602197
0.602197
0.587981
0.587981
0.574
0.574
0.560266
0.560267
0.546794
0.546794
0.533593
0.533594
0.520676
0.520676
0.508051
0.508052
0.495729
0.49573
0.483718
0.483719
0.472027
0.472028
0.460665
0.460666
0.449639
0.44964
0.438957
0.438958
0.428624
0.428625
0.418643
0.418643
0.409014
0.409014
0.399733
0.399733
0.390794
0.390795
0.382189
0.382189
0.373908
0.373908
0.365942
0.365942
0.358283
0.358283
0.350927
0.350927
0.34387
0.34387
0.337113
0.337113
0.330657
0.330657
0.324506
0.324506
0.318661
0.318662
0.313126
0.313126
0.307899
0.307899
0.302977
0.302977
0.298356
0.298356
0.294027
0.294027
0.289982
0.289983
0.286211
0.286211
0.282705
0.282705
0.279453
0.279453
0.276445
0.276445
0.273669
0.273669
0.271106
0.271106
0.268734
0.268734
0.266521
0.266521
0.264437
0.264438
0.262447
0.262448
0.26052
0.260522
0.258634
0.258636
0.256785
0.256786
0.254981
0.254982
0.253247
0.253248
0.251612
0.251613
0.250105
0.250105
0.248744
0.248743
0.247525
0.247525
0.246426
0.246425
0.2454
0.245399
0.244386
0.244385
0.243315
0.243314
0.242118
0.242118
0.240742
0.240744
0.239146
0.23915
0.237307
0.237312
0.23522
0.235224
0.232901
0.232905
0.230386
0.230389
0.227719
0.227722
0.224949
0.224952
0.222129
0.222131
0.219307
0.219309
0.216526
0.216527
0.213821
0.213822
0.21122
0.211221
0.208743
0.208744
0.206401
0.206402
0.2042
0.2042
0.202139
0.202139
0.200215
0.200215
0.198419
0.198418
0.196739
0.196738
0.195161
0.19516
0.193669
0.193668
0.192244
0.192242
0.190863
0.190861
0.189504
0.189502
0.188144
0.188141
0.186758
0.186755
0.185324
0.18532
0.183819
0.183815
0.182226
0.182222
0.180532
0.180529
0.17873
0.178728
0.176823
0.176823
0.17482
0.17482
0.172736
0.172738
0.170597
0.170598
0.168432
0.168434
0.166277
0.166278
0.164164
0.164166
0.162125
0.162126
0.160181
0.160182
0.158346
0.158346
0.15662
0.15662
0.15499
0.154989
0.153435
0.153434
0.151926
0.151925
0.150434
0.150433
0.148928
0.148927
0.147382
0.147382
0.145777
0.145778
0.144102
0.144104
0.142352
0.142355
0.140529
0.140533
0.138643
0.138647
0.136705
0.136709
0.134732
0.134736
0.132738
0.132742
0.130741
0.130745
0.128755
0.128758
0.126792
0.126795
0.124864
0.124867
0.122979
0.122982
0.121144
0.121147
0.119364
0.119366
0.11764
0.117642
0.115976
0.115978
0.11437
0.114372
0.112822
0.112824
0.111331
0.111333
0.109894
0.109895
0.108507
0.108508
0.107167
0.107168
0.10587
0.105871
0.104612
0.104613
0.103391
0.103392
0.102203
0.102204
0.101047
0.101048
0.0999208
0.0999218
0.0988252
0.0988261
0.0977602
0.0977611
0.0967266
0.0967274
0.0957257
0.0957265
0.0947588
0.0947595
0.0938268
0.0938275
0.0929303
0.092931
0.0920697
0.0920704
0.0912445
0.0912451
0.0904537
0.0904544
0.0896962
0.0896969
0.0889705
0.0889711
0.0882751
0.0882757
0.0876094
0.08761
0.0869731
0.0869737
0.0863675
0.0863681
0.0857944
0.085795
0.0852572
0.0852578
0.0847594
0.08476
0.084304
0.0843046
0.0838932
0.0838938
0.0835272
0.0835278
0.0832036
0.0832042
0.0829171
0.0829178
0.082661
0.0826616
0.0824272
0.0824279
0.0822084
0.0822091
0.0819982
0.0819989
0.0817926
0.0817934
0.0815899
0.0815907
0.081391
0.0813919
0.0811987
0.0811996
0.0810168
0.0810177
0.0808496
0.0808507
0.0807013
0.0807024
0.0805749
0.080576
0.0804724
0.0804736
0.0803945
0.0803957
0.080341
0.0803423
0.0803107
0.080312
0.0803021
0.0803034
0.0803134
0.0803148
0.0803432
0.0803446
0.0803901
0.0803916
0.0804532
0.0804548
0.0805319
0.0805335
0.080625
0.0806266
0.080731
0.0807328
0.0808476
0.0808494
0.0809711
0.080973
0.0810966
0.0810986
0.0812181
0.0812202
0.0813288
0.0813309
0.0814216
0.0814239
0.08149
0.0814924
0.0815282
0.0815308
0.0815321
0.0815349
0.081499
0.081502
0.081428
0.0814312
0.0813199
0.0813234
0.0811771
0.081181
0.0810034
0.0810077
0.0808034
0.0808081
0.0805829
0.0805881
0.0803483
0.0803539
0.0801068
0.0801128
0.0798658
0.0798722
0.0796327
0.0796395
0.0794146
0.0794217
0.079217
0.0792243
0.0790434
0.0790509
0.0788941
0.0789017
0.078765
0.0787729
0.0786477
0.0786558
0.0785282
0.0785366
0.0783869
0.0783957
0.0781992
0.0782084
0.0779361
0.0779457
0.0775669
0.0775769
0.0770618
0.077072
0.0763965
0.0764069
0.0755575
0.0755681
0.0745461
0.0745567
0.0733801
0.0733906
0.0720914
0.0721018
0.0707202
0.0707304
0.0693058
0.0693158
0.0678788
0.0678884
0.066458
0.0664674
0.0650492
0.0650583
0.06365
0.0636589
0.0622549
0.0622635
0.0608582
0.0608665
0.0594559
0.059464
0.0580461
0.058054
0.0566286
0.0566362
0.0552037
0.0552111
0.0537729
0.05378
0.0523374
0.0523444
0.0508991
0.0509058
0.0494593
0.0494658
0.0480196
0.048026
0.0465815
0.0465877
0.0451463
0.0451522
0.0437149
0.0437206
0.0422884
0.0422939
0.0408675
0.0408728
0.0394531
0.0394582
0.0380458
0.0380508
0.0366466
0.0366514
0.0352562
0.0352608
0.0338755
0.0338799
0.0325052
0.0325095
0.0311463
0.0311504
0.0297996
0.0298035
0.0284657
0.0284694
0.0271455
0.027149
0.0258396
0.025843
0.0245488
0.024552
0.0232737
0.0232768
0.0220152
0.0220181
0.0207738
0.0207765
0.0195504
0.019553
0.0183456
0.0183481
0.0171604
0.0171627
0.0159955
0.0159977
0.0148518
0.0148539
0.0137302
0.0137321
0.0126317
0.0126334
0.0115572
0.0115588
0.0105078
0.0105093
0.00948488
0.00948626
0.00848963
0.00849089
0.00752362
0.00752477
0.0065886
0.00658963
0.00568663
0.00568756
0.00482021
0.00482103
0.00399244
0.00399316
0.00320733
0.00320794
0.00247029
0.00247081
0.00178915
0.00178957
0.00117616
0.00117648
0.000652564
0.000652785
0.000258056
0.000258175
4.91931e-05
4.92244e-05
2.52504e-06
2.52686e-06
1.53144e-08
1.53262e-08
)
;

boundaryField
{
    walls
    {
        type            nutUWallFunction;
        blending        stepwise;
        Cmu             0.09;
        kappa           0.41;
        E               9.8;
        value           uniform 0;
    }
    inlet
    {
        type            cyclic;
    }
    outlet
    {
        type            cyclic;
    }
    sides
    {
        type            empty;
    }
}


// ************************************************************************* //
