/*--------------------------------*- C++ -*----------------------------------*\
| =========                 |                                                 |
| \\      /  F ield         | OpenFOAM: The Open Source CFD Toolbox           |
|  \\    /   O peration     | Version:  2012                                  |
|   \\  /    A nd           | Website:  www.openfoam.com                      |
|    \\/     M anipulation  |                                                 |
\*---------------------------------------------------------------------------*/
FoamFile
{
    version     2.0;
    format      ascii;
    class       volTensorField;
    location    "19000";
    object      grad(U);
}
// * * * * * * * * * * * * * * * * * * * * * * * * * * * * * * * * * * * * * //

dimensions      [0 0 -1 0 0 0 0];


internalField   nonuniform List<tensor> 
2560
(
(0 -4.1765e-25 6.49658e-32 32.3918 0 3.54288e-13 0.0468913 -1.57772e-30 1.553e-16)
(0 -4.15781e-30 2.90095e-26 32.3918 2.81742e-15 3.49913e-13 0.0468913 1.15025e-18 2.53249e-16)
(0 5.12277e-31 3.23817e-26 32.387 -6.93628e-13 8.01927e-14 0.141342 -2.96176e-15 2.35538e-16)
(-1.80242e-17 0 2.77228e-31 32.387 6.04834e-15 2.40093e-13 0.141342 9.30542e-18 7.05188e-16)
(-5.9362e-18 -1.16022e-25 3.9154e-31 32.3822 4.03922e-28 4.19463e-14 0.194377 0 2.64648e-16)
(0 2.01974e-30 -5.04935e-31 32.3822 7.70347e-15 2.39519e-14 0.194377 2.34106e-17 7.99899e-16)
(1.90357e-17 -4.61714e-30 1.19898e-31 32.3773 5.40372e-13 4.44981e-14 0.197174 -5.71857e-15 2.73521e-16)
(0 3.98158e-30 0 32.3773 7.8139e-15 2.42558e-14 0.197174 3.79684e-17 9.19853e-16)
(6.90408e-17 -7.84903e-30 1.47169e-30 32.3724 4.74063e-14 4.52063e-14 0.20001 -7.80365e-16 2.81151e-16)
(0 5.88678e-30 -4.90565e-31 32.3724 7.90763e-15 2.45632e-14 0.20001 4.9154e-17 1.04472e-15)
(1.13854e-16 -7.18842e-30 1.33865e-31 32.3673 -2.88319e-14 4.58696e-14 0.202886 -1.5261e-16 2.89849e-16)
(3.66425e-16 5.82243e-30 1.97709e-31 32.3673 8.00389e-15 2.4875e-14 0.202886 5.04798e-17 1.17314e-15)
(-5.94763e-17 -2.41531e-30 -1.41064e-31 32.3622 -2.00678e-14 4.66373e-14 0.205803 -1.00429e-16 2.99152e-16)
(2.37905e-16 5.73798e-30 -4.2978e-31 32.3622 8.0225e-15 2.51895e-14 0.205803 5.08307e-17 1.30607e-15)
(-7.33462e-17 8.91544e-30 -6.18256e-31 32.3569 -1.61636e-14 4.74554e-14 0.208762 -1.06697e-16 3.08898e-16)
(1.61156e-16 -5.60974e-30 0 32.3569 7.98823e-15 2.55071e-14 0.208762 5.15162e-17 1.43069e-15)
(2.1775e-16 -5.1055e-30 6.1918e-31 32.3515 -1.66945e-14 4.83066e-14 0.211762 -1.10322e-16 3.19059e-16)
(0 3.70431e-30 -4.63039e-31 32.3515 8.05235e-15 2.58267e-14 0.211762 5.31591e-17 1.47205e-15)
(0 7.30244e-30 0 32.346 -1.66144e-14 4.91844e-14 0.214804 -1.08759e-16 3.29607e-16)
(0 -3.65122e-30 0 32.346 8.19359e-15 2.61461e-14 0.214804 5.49013e-17 1.51454e-15)
(1.04604e-17 -3.99137e-30 2.77621e-31 32.3403 -1.61389e-14 5.0082e-14 0.217888 -1.07146e-16 3.40501e-16)
(-1.26625e-16 5.39834e-30 -4.49861e-31 32.3403 8.25275e-15 2.64658e-14 0.217888 5.55135e-17 1.55817e-15)
(3.80469e-16 -1.20511e-29 6.24128e-31 32.3344 -1.59378e-14 5.09935e-14 0.221015 -1.09196e-16 3.51724e-16)
(0 8.86827e-30 0 32.3344 8.20427e-15 2.67868e-14 0.221015 5.58468e-17 1.60297e-15)
(0 -3.49647e-30 0 32.3281 -1.61485e-14 5.19155e-14 0.224184 -1.13206e-16 3.63263e-16)
(0 3.49647e-30 0 32.3281 8.26944e-15 2.71075e-14 0.224184 5.80437e-17 1.64898e-15)
(-1.60856e-16 6.58329e-30 -1.98571e-31 32.3215 -1.62561e-14 5.28459e-14 0.227396 -1.1391e-16 3.7512e-16)
(4.00907e-16 -3.3639e-30 0 32.3215 8.37794e-15 2.74249e-14 0.227396 5.90096e-17 1.69621e-15)
(0 6.79392e-30 0 32.3143 -1.61813e-14 5.37823e-14 0.230649 -1.15454e-16 3.87274e-16)
(0 -6.79392e-30 0 32.3143 8.30127e-15 2.77396e-14 0.230649 5.86495e-17 1.74467e-15)
(-1.9173e-16 -1.92979e-30 -2.17717e-31 32.3065 -1.62868e-14 5.47225e-14 0.233944 -1.18775e-16 3.99726e-16)
(7.66921e-16 3.45235e-30 0 32.3065 8.213e-15 2.80518e-14 0.233944 5.94596e-17 1.79439e-15)
(0 4.95042e-30 -8.25071e-31 32.2979 -1.65964e-14 5.56633e-14 0.237279 -1.23385e-16 4.12445e-16)
(-8.30002e-16 -5.06504e-30 8.25071e-31 32.2979 8.24818e-15 2.83573e-14 0.237279 6.08845e-17 1.84539e-15)
(0 4.87947e-30 -8.13245e-31 32.2882 -1.68446e-14 5.66017e-14 0.240652 -1.25955e-16 4.25425e-16)
(-8.93988e-16 -5.0043e-30 8.13245e-31 32.2882 8.4006e-15 2.86548e-14 0.240652 6.34738e-17 1.89768e-15)
(4.51255e-16 -3.20636e-30 8.01589e-31 32.2771 -1.68012e-14 5.75347e-14 0.244062 -1.26343e-16 4.3864e-16)
(0 3.20636e-30 0 32.2771 8.36775e-15 2.89435e-14 0.244062 6.2171e-17 1.95128e-15)
(2.5618e-16 1.73169e-30 2.60244e-31 32.2644 -1.67589e-14 5.8458e-14 0.247506 -1.28995e-16 4.52055e-16)
(-1.02472e-15 -4.8895e-30 7.90101e-31 32.2644 8.2606e-15 2.92182e-14 0.247506 6.36889e-17 2.00619e-15)
(-4.38412e-16 7.78776e-30 -7.78776e-31 32.2495 -1.70063e-14 5.93653e-14 0.25098 -1.33896e-16 4.65615e-16)
(4.38412e-16 -7.78776e-30 7.78776e-31 32.2495 8.43166e-15 2.94737e-14 0.25098 6.66553e-17 2.06242e-15)
(-2.89801e-16 -1.637e-30 4.83783e-31 32.2321 -1.74892e-14 6.02497e-14 0.254481 -1.404e-16 4.79267e-16)
(0 4.60569e-30 -7.67614e-31 32.2321 8.59952e-15 2.97075e-14 0.254481 6.8206e-17 2.11994e-15)
(5.449e-16 -1.36956e-29 2.7302e-30 32.2115 -1.76986e-14 6.11038e-14 0.258002 -1.41175e-16 4.92941e-16)
(0 1.51323e-29 -7.56613e-31 32.2115 8.59906e-15 2.99153e-14 0.258002 6.86005e-17 2.17873e-15)
(-8.39661e-16 5.96615e-30 -7.45768e-31 32.1871 -1.73123e-14 6.1919e-14 0.261539 -1.38233e-16 5.0656e-16)
(-4.57868e-16 -7.65629e-30 7.45768e-31 32.1871 8.42927e-15 3.00935e-14 0.261539 6.74436e-17 2.23872e-15)
(3.42038e-16 5.90825e-30 3.22422e-31 32.1581 -1.7401e-14 6.26864e-14 0.265082 -1.46773e-16 5.20039e-16)
(0 -7.3508e-30 0 32.1581 8.28533e-15 3.02411e-14 0.265082 6.82359e-17 2.29989e-15)
(-1.53565e-15 1.73817e-29 -1.39693e-30 32.1236 -1.7925e-14 6.33946e-14 0.268623 -1.5105e-16 5.33249e-16)
(8.15764e-16 -1.44909e-29 7.24544e-31 32.1236 8.2053e-15 3.03458e-14 0.268623 6.808e-17 2.36227e-15)
(1.13427e-15 -1.72008e-29 2.47965e-30 32.0827 -1.80809e-14 6.4029e-14 0.272152 -1.5372e-16 5.46043e-16)
(3.02472e-15 1.47582e-29 -1.42832e-30 32.0827 8.34948e-15 3.04016e-14 0.272152 7.26826e-17 2.42574e-15)
(0 -1.12628e-29 1.40785e-30 32.0341 -1.82333e-14 6.45763e-14 0.275656 -1.581e-16 5.58296e-16)
(1.58595e-15 1.15119e-29 -1.40785e-30 32.0341 8.7944e-15 3.04002e-14 0.275656 7.77376e-17 2.4902e-15)
(4.15135e-16 2.70792e-30 2.88308e-28 31.9767 -1.83116e-14 3.71018e-14 0.279121 -1.59591e-16 1.60916e-16)
(-7.81188e-16 -1.38767e-30 0 31.9767 8.89108e-15 3.03261e-14 0.279121 7.65013e-17 2.55548e-15)
(-8.68059e-16 2.91661e-30 -9.02498e-31 31.9091 -1.83367e-14 1.37894e-14 0.282531 -1.63177e-16 8.12144e-17)
(-3.47224e-15 -5.57638e-31 0 31.9091 8.78946e-15 3.01726e-14 0.282531 7.82133e-17 2.62143e-15)
(-4.53171e-16 5.50643e-30 -1.80062e-30 31.8297 -1.8393e-14 8.71527e-15 0.285869 -1.65278e-16 7.4363e-17)
(-2.57164e-15 -1.64322e-30 0 31.8297 8.68189e-15 2.99315e-14 0.285869 7.68073e-17 2.6879e-15)
(0 1.19597e-29 -1.32885e-30 31.737 -1.85658e-14 7.7733e-15 0.289116 -1.71111e-16 6.64043e-17)
(-1.89023e-15 -1.22709e-29 1.32885e-30 31.737 8.57102e-15 2.96026e-14 0.289116 7.84813e-17 2.75473e-15)
(0 -1.17883e-29 0 31.6293 -1.9006e-14 6.76206e-15 0.29225 -1.78269e-16 5.78197e-17)
(1.96873e-15 1.21149e-29 0 31.6293 8.72801e-15 2.91776e-14 0.29225 8.19636e-17 2.82169e-15)
(-5.12046e-16 1.47249e-30 -4.5532e-31 31.505 -1.91549e-14 5.66841e-15 0.295249 -1.78921e-16 4.78077e-17)
(0 1.29104e-30 0 31.505 8.68754e-15 2.86471e-14 0.295249 8.00202e-17 2.88845e-15)
(-5.32139e-16 1.16575e-29 -4.56042e-31 31.3621 -1.87768e-14 4.45149e-15 0.298089 -1.76286e-16 3.6324e-17)
(0 -1.01803e-29 0 31.3621 8.27908e-15 2.80016e-14 0.298089 7.65811e-17 2.95483e-15)
(-5.52454e-16 5.24384e-30 -4.5659e-31 31.199 -1.85941e-14 3.1214e-15 0.300745 -1.8063e-16 2.34937e-17)
(-2.20982e-15 -1.63471e-30 0 31.199 8.08415e-15 2.72375e-14 0.300745 7.85956e-17 3.02047e-15)
(5.72983e-16 -7.66627e-30 1.69318e-30 31.0139 -1.87879e-14 1.71424e-15 0.303191 -1.85251e-16 9.78786e-18)
(0 6.18158e-30 -1.23632e-30 31.0139 8.32392e-15 2.63543e-14 0.303191 8.35273e-17 3.0851e-15)
(5.93714e-16 -1.00186e-29 2.02196e-29 30.8054 -1.90091e-14 9.25094e-29 0.305404 -1.90321e-16 3.9443e-31)
(0 8.53017e-30 0 30.8054 8.25812e-15 2.53543e-14 0.305404 7.95886e-17 3.14826e-15)
(-1.29081e-15 5.09518e-30 7.25273e-30 30.5719 -1.93425e-14 -1.0507e-15 0.307359 -1.9741e-16 5.26479e-18)
(0 -1.20113e-30 0 30.5719 8.25068e-15 2.4237e-14 0.307359 8.58239e-17 3.20975e-15)
(0 7.10349e-30 -1.18391e-30 30.3122 -1.95625e-14 -2.95352e-15 0.309032 -2.00402e-16 2.14878e-17)
(0 -9.47132e-30 1.18391e-30 30.3122 8.61754e-15 2.2996e-14 0.309032 8.94342e-17 3.26921e-15)
(-6.56983e-16 6.16843e-30 -4.41934e-31 30.0254 -1.93587e-14 -4.61682e-15 0.310403 -1.98959e-16 3.86942e-17)
(2.62793e-15 -1.86516e-30 -1.16695e-30 30.0254 8.5354e-15 2.16511e-14 0.310403 8.66311e-17 3.32621e-15)
(1.29503e-15 -1.15022e-29 0 29.7109 -1.9022e-14 -6.3103e-15 0.311453 -1.99174e-16 5.66807e-17)
(1.41847e-15 1.19956e-29 1.7247e-31 29.7109 7.81859e-15 2.02236e-14 0.311453 7.6942e-17 3.06967e-15)
(6.99888e-16 3.02571e-30 -7.05304e-31 29.3683 -1.90353e-14 -8.03676e-15 0.312168 -2.05071e-16 7.553e-17)
(-2.79955e-15 -9.58123e-30 7.76971e-31 29.3683 7.21198e-15 1.87224e-14 0.312168 7.61942e-17 2.78869e-15)
(7.21498e-16 -3.74891e-30 1.53818e-30 28.9977 -1.91376e-14 -9.75263e-15 0.312536 -2.07227e-16 9.52677e-17)
(0 2.23497e-30 -1.11749e-30 28.9977 6.95386e-15 1.71534e-14 0.312536 7.35949e-17 2.50142e-15)
(-7.43182e-16 1.51883e-30 -4.12433e-31 28.5997 -1.91427e-14 -1.14299e-14 0.312549 -2.11191e-16 1.14977e-16)
(0 2.20294e-30 0 28.5997 6.81337e-15 1.55542e-14 0.312549 7.53331e-17 2.20901e-15)
(7.64918e-16 2.82064e-30 4.03587e-31 28.175 -1.9723e-14 -1.30628e-14 0.312205 -2.2626e-16 1.34984e-16)
(3.05967e-15 -1.61103e-30 -1.68784e-31 28.175 7.68901e-15 1.39324e-14 0.312205 9.53086e-17 1.91161e-15)
(1.20485e-15 -6.42073e-30 0 27.7249 -2.00512e-14 -1.45916e-14 0.311506 -2.24815e-16 1.54816e-16)
(3.14671e-15 7.0107e-30 1.10425e-30 27.7249 8.12918e-15 1.22726e-14 0.311506 8.75142e-17 1.61039e-15)
(-8.08439e-16 3.64516e-30 -3.84581e-31 27.251 -1.92054e-14 -1.60361e-14 0.310457 -2.13443e-16 1.73581e-16)
(0 0 0 27.251 7.2663e-15 1.06274e-14 0.310457 7.82632e-17 1.30724e-15)
(-8.30174e-16 1.54041e-30 -3.74401e-31 26.7554 -1.86509e-14 -1.74027e-14 0.30907 -2.18467e-16 1.92559e-16)
(0 2.07933e-30 0 26.7554 6.83944e-15 9.01481e-15 0.30907 8.01217e-17 1.00181e-15)
(0 -4.09906e-30 1.02477e-30 26.2401 -1.80129e-14 -1.86129e-14 0.307358 -2.04598e-16 2.10541e-16)
(0 4.09906e-30 0 26.2401 6.53819e-15 7.42426e-15 0.307358 7.34272e-17 6.95518e-16)
(2.63782e-16 3.57542e-30 -1.36337e-30 25.7075 -1.67102e-14 -1.97002e-14 0.305338 -1.93592e-16 2.26837e-16)
(-1.13725e-15 2.02016e-30 0 25.7075 5.69283e-15 5.89626e-15 0.305338 6.21741e-17 3.90144e-16)
(0 1.39384e-29 -1.9912e-30 25.1602 -1.6577e-14 -2.06985e-14 0.303032 -2.07347e-16 2.42812e-16)
(-3.57989e-15 -1.26599e-29 -1.02026e-30 25.1602 5.40346e-15 4.44344e-15 0.303032 6.85301e-17 8.54585e-17)
(-2.02124e-15 -8.24937e-30 -3.31176e-31 24.6009 -1.69168e-14 -2.15348e-14 0.300462 -2.07659e-16 2.57797e-16)
(3.66542e-15 1.25127e-29 2.05275e-30 24.6009 5.3659e-15 3.07465e-15 0.300462 6.30672e-17 2.98626e-17)
(0 1.35417e-29 0 24.0322 -1.67971e-14 -7.54019e-15 0.297651 -2.1042e-16 5.18243e-16)
(0 -1.35417e-29 0 24.0322 4.97302e-15 1.79543e-15 0.297651 6.06881e-17 1.47141e-17)
(-9.58668e-16 5.38652e-30 6.54728e-31 23.4568 -1.69247e-14 7.3328e-15 0.294627 -2.16989e-16 4.47464e-16)
(3.83467e-15 -3.04345e-30 1.12138e-30 23.4568 5.54201e-15 4.1767e-17 0.294627 7.93866e-17 2.63662e-19)
(1.95912e-15 -8.79449e-30 6.32622e-31 22.8771 -1.70187e-14 7.41518e-15 0.291413 -2.1901e-16 3.47959e-16)
(3.91823e-15 6.43359e-30 -5.60519e-45 22.8771 6.04141e-15 -8.06975e-29 0.291413 7.53527e-17 5.75842e-46)
(1.04289e-15 -3.70508e-30 9.2627e-31 22.2957 -1.70614e-14 6.6428e-15 0.288037 -2.24463e-16 2.44596e-16)
(-1.04289e-15 3.70508e-30 0 22.2957 5.4724e-15 -5.06437e-16 0.288037 6.68156e-17 1.32399e-17)
(-1.02072e-15 1.59029e-30 -3.48326e-31 21.7148 -1.66024e-14 5.99071e-15 0.284522 -2.13234e-16 1.623e-16)
(0 1.82599e-30 0 21.7148 5.55942e-15 1.40262e-14 0.284522 7.98713e-17 3.7236e-16)
(-3.09514e-15 1.2193e-29 -5.92579e-31 21.1366 -1.56389e-14 5.35489e-15 0.280894 -2.05076e-16 4.59216e-16)
(5.17708e-15 -1.17356e-29 1.9234e-30 21.1366 5.60236e-15 2.74011e-14 0.280894 6.99299e-17 3.60582e-16)
(-1.06097e-15 1.60256e-30 -2.44702e-31 20.563 -1.49856e-14 4.78862e-15 0.277174 -2.01621e-16 7.52044e-16)
(0 1.77402e-30 0 20.563 4.78306e-15 2.61464e-14 0.277174 5.98128e-17 3.48968e-16)
(-1.08073e-15 -1.88817e-30 -1.93931e-31 19.9956 -1.42938e-14 4.33521e-15 0.273386 -1.91894e-16 1.03884e-15)
(4.32293e-15 7.9017e-30 2.03354e-30 19.9956 4.52353e-15 2.49608e-14 0.273386 6.47803e-17 3.38261e-16)
(-1.10024e-15 6.78684e-30 -1.43936e-31 19.436 -1.31598e-14 3.95967e-15 0.269548 -1.75619e-16 1.31994e-15)
(0 -3.44706e-30 0 19.436 3.20124e-15 2.3863e-14 0.269548 2.43571e-17 3.28298e-16)
(-3.19531e-15 1.00377e-29 -1.89653e-31 18.8856 -1.2178e-14 3.61872e-15 0.265679 -1.69485e-16 1.59481e-15)
(-3.52155e-15 -7.74613e-30 -2.13622e-30 18.8856 2.679e-15 2.2834e-14 0.265679 5.1769e-17 3.18795e-16)
(-2.2769e-15 -6.80711e-30 -1.76739e-30 18.3453 -1.31304e-14 3.31168e-15 0.261796 -2.08349e-16 1.8645e-15)
(9.1076e-15 1.03161e-29 4.37005e-30 18.3453 3.38117e-15 2.18649e-14 0.261796 4.54077e-17 3.09847e-16)
(-3.47147e-15 1.80744e-29 0 17.8161 -1.48095e-14 3.0778e-15 0.257913 -2.23789e-16 2.12077e-15)
(-6.4869e-15 -1.41925e-29 -2.23257e-30 17.8161 3.18043e-15 2.09426e-14 0.257913 4.7387e-17 3.01031e-16)
(6.56055e-16 -9.75679e-30 0 17.2989 -1.46808e-14 2.90181e-15 0.254044 -2.10616e-16 2.04297e-15)
(2.87071e-15 1.40093e-29 2.27912e-30 17.2989 3.75407e-15 2.0025e-14 0.254044 6.3839e-17 2.91568e-16)
(1.19375e-15 -6.44797e-30 0 16.794 -1.36437e-14 2.7821e-15 0.2502 -1.98977e-16 1.96637e-15)
(0 4.81053e-30 0 16.794 3.53913e-15 1.91801e-14 0.2502 4.22742e-17 2.84296e-16)
(0 -1.42247e-29 0 16.3021 -1.31391e-14 2.66139e-15 0.246391 -2.01301e-16 1.89079e-15)
(4.84656e-15 1.52507e-29 2.36677e-30 16.3021 3.75194e-15 1.84032e-14 0.246391 7.22389e-17 2.76269e-16)
(0 -6.2315e-30 0 15.8234 -1.31829e-14 2.64933e-15 0.242626 -2.06171e-16 1.81609e-15)
(4.91703e-15 7.28641e-30 2.40969e-30 15.8234 4.26067e-15 1.75796e-14 0.242626 5.93501e-17 2.66986e-16)
(-1.72887e-15 1.07488e-29 -1.53555e-30 15.3581 -1.2191e-14 2.6733e-15 0.238913 -1.7587e-16 1.7436e-15)
(4.98644e-15 -5.05466e-30 -6.17839e-31 15.3581 3.08778e-15 1.66293e-14 0.238913 3.73105e-17 2.54349e-16)
(0 1.05948e-29 0 14.9064 -1.12136e-14 2.65184e-15 0.235258 -1.80891e-16 1.6719e-15)
(0 -1.05948e-29 -2.26871e-28 14.9064 1.76863e-15 6.38841e-15 0.235258 1.88193e-17 5.08066e-17)
(-2.56104e-15 3.34031e-31 0 14.4681 -1.18835e-14 2.64715e-15 0.231665 -2.028e-16 1.60156e-15)
(0 2.98369e-30 0 14.4681 1.73555e-15 3.23593e-15 0.231665 3.73278e-17 5.36514e-17)
(0 -1.17637e-29 -1.47046e-30 14.0433 -1.11059e-14 2.73348e-15 0.228138 -1.60541e-16 1.53225e-15)
(5.18833e-15 1.28792e-29 4.08217e-30 14.0433 2.85792e-15 3.36752e-15 0.228138 5.63885e-17 5.66348e-17)
(0 5.79755e-30 0 13.6318 -9.55865e-15 2.83062e-15 0.224682 -1.56969e-16 1.46542e-15)
(5.25357e-15 -3.20109e-30 2.61723e-30 13.6318 2.67792e-15 3.51075e-15 0.224682 3.2398e-17 6.00157e-17)
(-1.32945e-15 1.67368e-30 0 13.2335 -9.51188e-15 2.91304e-15 0.221298 -1.63656e-16 1.39951e-15)
(0 1.42861e-30 0 13.2335 1.38579e-15 3.65944e-15 0.221298 1.41755e-17 6.33417e-17)
(1.34527e-15 3.95731e-30 0 12.8481 -9.85048e-15 2.97132e-15 0.217989 -1.73229e-16 1.33583e-15)
(0 -4.22441e-30 -1.40814e-30 12.8481 1.69707e-15 3.83566e-15 0.217989 4.40679e-17 6.78428e-17)
(1.5627e-15 -2.77591e-30 1.38796e-30 12.4753 -1.09943e-14 3.00278e-15 0.214756 -2.08418e-16 1.27282e-15)
(0 2.77591e-30 0 12.4753 2.46849e-15 4.05236e-15 0.214756 4.15459e-17 7.27693e-17)
(3.0806e-15 -8.20838e-30 0 12.1149 -1.11552e-14 3.1585e-15 0.211598 -1.84007e-16 1.21176e-15)
(0 8.20838e-30 1.36806e-30 12.1149 3.03848e-17 4.28275e-15 0.211598 2.67345e-19 7.79978e-17)
(-1.26436e-15 -4.71112e-30 1.34845e-30 11.7665 -9.72202e-15 3.37814e-15 0.208518 -1.62978e-16 1.15333e-15)
(0 1.07876e-29 0 11.7665 1.0969e-16 4.49227e-15 0.208518 3.67387e-18 8.24363e-17)
(-1.40618e-15 1.23302e-29 0 11.4299 -8.23558e-15 3.50296e-15 0.205513 -1.35159e-16 1.09726e-15)
(0 -1.0633e-29 0 11.4299 7.28846e-16 4.63304e-15 0.205513 2.28674e-17 8.54194e-17)
(1.42084e-15 9.18576e-31 0 11.1046 -6.908e-15 3.51772e-15 0.202586 -1.18606e-16 1.0419e-15)
(-8.63341e-15 -9.4299e-30 -3.97514e-30 11.1046 -6.28261e-31 4.88374e-15 0.202586 3.9443e-31 9.41317e-17)
(2.90775e-15 -5.16521e-30 0 10.7904 -6.23616e-15 3.70865e-15 0.199733 -1.13885e-16 9.87778e-16)
(-8.64894e-15 6.49624e-30 -2.67386e-30 10.7904 -4.90184e-16 5.23017e-15 0.199733 1.81918e-17 1.00933e-16)
(-2.88258e-15 9.34956e-30 0 10.4869 -4.821e-15 3.94756e-15 0.196955 -6.81573e-17 9.36924e-16)
(1.15963e-14 7.00649e-46 2.82382e-30 10.4869 0 5.46253e-15 0.196955 7.31395e-46 1.05743e-16)
(1.46358e-15 5.81593e-30 0 10.1938 -3.84766e-15 4.01225e-15 0.19425 -7.9594e-17 8.8741e-16)
(5.85433e-15 -8.75782e-30 2.69685e-30 10.1938 -5.33881e-16 5.59946e-15 0.19425 5.12244e-18 1.09183e-16)
(0 0 0 9.91058 -5.41979e-15 4.08113e-15 0.191618 -1.31813e-16 8.38773e-16)
(0 4.94628e-30 0 9.91058 -1.36224e-15 5.76944e-15 0.191618 6.83109e-17 1.15507e-16)
(-1.49108e-15 -1.04731e-29 -2.43769e-30 9.63705 -5.66117e-15 4.30235e-15 0.189057 -9.15302e-17 7.92248e-16)
(5.96432e-15 0 5.15684e-30 9.63705 3.25652e-31 6.01923e-15 0.189057 3.9443e-31 1.2232e-16)
(-1.50454e-15 8.92898e-30 0 9.37281 -4.0949e-15 4.39567e-15 0.186564 -7.24454e-17 7.48347e-16)
(-6.01817e-15 -4.34849e-29 -2.7311e-30 9.37281 -5.27863e-16 6.28731e-15 0.186564 5.28886e-18 1.29713e-16)
(1.51783e-15 -1.11919e-29 0 9.11755 -4.31325e-15 4.49204e-15 0.18414 -1.03154e-16 7.04638e-16)
(6.0713e-15 1.07483e-29 2.74499e-30 9.11755 -9.06961e-16 6.52786e-15 0.18414 9.91738e-17 1.35756e-16)
(-1.53093e-15 1.57325e-29 0 8.87092 -4.32775e-15 4.69868e-15 0.181782 -7.51702e-17 6.64266e-16)
(6.12372e-15 -1.27865e-29 2.76035e-30 8.87092 -4.95124e-16 6.70043e-15 0.181782 2.37547e-16 1.40683e-16)
(-1.54386e-15 1.73236e-30 0 8.63262 -3.12063e-15 4.82219e-15 0.179488 -5.5289e-17 6.25089e-16)
(0 0 0 8.63262 -2.1691e-15 6.90359e-15 0.179488 3.85661e-16 1.48297e-16)
(-1.55663e-15 1.73584e-30 0 8.40233 -2.51748e-15 4.9914e-15 0.177258 -5.15761e-17 5.87767e-16)
(0 2.26794e-30 0 8.40233 -1.837e-15 7.17109e-15 0.177258 5.64711e-16 1.56244e-16)
(-1.56923e-15 -7.20191e-30 0 8.17974 -2.04646e-15 5.09228e-15 0.175088 -3.64708e-17 5.52401e-16)
(6.27691e-15 1.21909e-29 2.80873e-30 8.17974 -4.85162e-16 7.36041e-15 0.175088 6.61045e-16 1.60856e-16)
(1.58167e-15 -8.34338e-30 0 7.96458 -2.77309e-15 5.10643e-15 0.172978 -8.50744e-17 5.18013e-16)
(0 6.61018e-30 0 7.96458 -5.2639e-16 7.51395e-15 0.172978 7.11487e-16 1.6758e-16)
(2.44524e-15 -4.34363e-30 0 7.75655 -4.10538e-15 5.26816e-15 0.170926 -9.70415e-17 4.85898e-16)
(0 6.51544e-30 2.17181e-30 7.75655 -1.46584e-15 7.76046e-15 0.170926 8.21055e-16 1.76577e-16)
(8.04104e-16 -2.54079e-30 0 7.55538 -3.08244e-15 5.41835e-15 0.16893 -4.12158e-17 4.57711e-16)
(-2.4102e-15 8.56274e-30 0 7.55538 -2.26079e-15 8.07033e-15 0.16893 9.0057e-16 1.8653e-16)
(2.37565e-15 -7.83319e-30 0 7.36082 -1.52842e-28 5.5891e-15 0.166989 0 4.30551e-16)
(1.29447e-14 2.06881e-29 7.84886e-30 7.36082 -1.36941e-15 8.26054e-15 0.166989 9.73518e-16 1.90493e-16)
(-2.3416e-15 0 -2.07976e-30 7.1726 1.35845e-15 5.8083e-15 0.165101 -1.88031e-17 4.07232e-16)
(6.51974e-15 4.97069e-30 2.88823e-30 7.1726 -1.29326e-15 8.29003e-15 0.165101 1.05937e-15 1.9337e-16)
(-3.94969e-15 1.60811e-29 -2.04995e-30 6.99049 1.01189e-15 5.77006e-15 0.163264 -4.42795e-17 3.85687e-16)
(-6.56658e-15 -1.30486e-29 -2.90439e-30 6.99049 -2.19172e-15 8.39713e-15 0.163264 1.17382e-15 2.01141e-16)
(6.21741e-16 9.81703e-30 2.02057e-30 6.81425 -8.5068e-17 5.76414e-15 0.161477 -7.08253e-18 3.64605e-16)
(-8.88785e-15 -6.73576e-30 -2.92059e-30 6.81425 -1.441e-15 8.66752e-15 0.161477 1.32011e-15 2.12014e-16)
(0 -1.73365e-30 0 6.64365 1.39908e-28 5.92822e-15 0.159738 1.57772e-30 3.46735e-16)
(0 -3.98323e-30 -1.99161e-30 6.64365 -1.78743e-15 8.89285e-15 0.159738 1.45824e-15 2.18007e-16)
(-2.21022e-15 7.85227e-30 0 6.47849 1.41536e-15 6.15861e-15 0.158046 -3.11364e-17 3.31422e-16)
(6.70395e-15 -3.38689e-30 2.96123e-30 6.47849 -3.94772e-15 9.05544e-15 0.158046 1.58602e-15 2.26258e-16)
(-4.91358e-16 1.56915e-29 -1.93493e-30 6.31854 1.18484e-15 6.15475e-15 0.156399 -3.83448e-17 3.19438e-16)
(0 -1.35445e-29 -1.93493e-30 6.31854 -5.39303e-15 9.22169e-15 0.156399 1.7605e-15 2.32728e-16)
(0 -2.28864e-29 0 6.16363 1.13511e-15 6.13037e-15 0.154797 -2.04926e-17 3.05829e-16)
(1.35861e-14 2.35307e-29 6.0125e-30 6.16363 -4.9668e-15 9.30204e-15 0.154797 1.92846e-15 2.36973e-16)
(2.11654e-15 -3.75973e-30 0 6.01354 1.41465e-15 6.39978e-15 0.153237 -3.69391e-17 2.96772e-16)
(1.36737e-14 6.06345e-30 7.93902e-30 6.01354 -5.1436e-15 9.35992e-15 0.153237 2.12158e-15 2.42532e-16)
(-3.44012e-15 3.43253e-30 0 5.8681 1.33519e-15 5.57417e-15 0.151718 -3.55166e-17 2.9235e-16)
(0 0 0 5.8681 -5.12588e-15 9.45511e-15 0.151718 2.39485e-15 2.48897e-16)
(-1.73079e-15 -1.11101e-31 0 5.72714 1.43004e-15 -2.11857e-15 0.150239 -3.38613e-17 2.76958e-16)
(1.38463e-14 7.30546e-30 6.15396e-30 5.72714 -4.26233e-15 9.58509e-15 0.150239 2.48026e-15 2.5654e-16)
(1.74142e-15 -8.91298e-30 0 5.59049 1.63571e-15 -8.79943e-15 0.148799 -4.15943e-17 1.73618e-16)
(0 7.20075e-30 0 5.59049 -5.74188e-15 9.74061e-15 0.148799 2.47331e-15 2.64568e-16)
(-1.75194e-15 1.70887e-30 0 5.45798 1.59919e-15 -8.73331e-15 0.147397 -4.5935e-17 7.08683e-17)
(0 5.32316e-30 0 5.45798 -5.26812e-15 9.92882e-15 0.147397 2.44859e-15 2.74343e-16)
(-1.76235e-15 1.04518e-29 0 5.32947 1.5606e-15 -8.61592e-15 0.146031 -4.08164e-17 -3.04835e-17)
(7.04941e-15 -8.74477e-30 3.16501e-30 5.32947 -3.59194e-15 9.7481e-15 0.146031 2.44182e-15 2.62295e-16)
(-1.77267e-15 1.03217e-29 0 5.20479 2.14389e-15 -8.48703e-15 0.1447 -4.51408e-17 -1.29706e-16)
(5.14976e-15 -5.17166e-30 3.31662e-30 5.20479 -4.70909e-15 3.1981e-15 0.1447 2.43455e-15 4.46616e-17)
(-3.56578e-15 1.68727e-30 0 5.08383 2.70195e-15 -8.43659e-15 0.143403 -7.48315e-17 -2.28468e-16)
(0 1.69918e-30 0 5.08383 -4.37528e-15 1.428e-15 0.143403 2.40118e-15 3.62055e-17)
(-1.79302e-15 8.38973e-30 1.67483e-30 4.96643 2.81472e-15 -8.3703e-15 0.142139 -7.83194e-17 -3.25514e-16)
(-1.88569e-15 -3.34965e-30 -1.67483e-30 4.96643 -4.08078e-15 1.04431e-15 0.142139 2.38885e-15 2.37489e-17)
(0 -6.60329e-30 0 4.85246 3.42693e-15 -8.25479e-15 0.140908 -8.35547e-17 -4.20814e-16)
(-7.2122e-15 8.25411e-30 -3.32744e-30 4.85246 -5.07473e-15 6.69514e-16 0.140908 2.37437e-15 1.52441e-17)
(1.813e-15 -1.14393e-29 0 4.74181 3.81556e-15 -8.17363e-15 0.139707 -1.16585e-16 -5.13902e-16)
(7.25198e-15 9.76297e-30 3.32627e-30 4.74181 -5.62426e-15 4.45005e-16 0.139707 2.34712e-15 1.10614e-17)
(1.82285e-15 -9.69053e-30 0 4.63436 3.4575e-15 -8.10536e-15 0.138537 -1.09169e-16 -6.06182e-16)
(-7.29141e-15 8.0192e-30 -3.32294e-30 4.63436 -5.88999e-15 3.39273e-16 0.138537 2.28923e-15 9.29621e-18)
(-1.83262e-15 6.41005e-30 0 4.52998 3.81822e-15 -8.15381e-15 0.137395 -9.83449e-17 -6.98117e-16)
(7.33049e-15 -1.58085e-30 1.74177e-30 4.52998 -4.61423e-15 2.62738e-17 0.137395 2.24902e-15 4.00112e-19)
(0 7.79098e-30 0 4.42857 4.73546e-15 -8.07134e-15 0.136282 -1.345e-16 -7.89815e-16)
(-1.75437e-15 -3.11639e-30 1.4882e-44 4.42857 -3.52341e-15 -5.86127e-29 0.136282 2.24649e-15 7.88861e-31)
(-1.72923e-15 7.67931e-30 -1.53586e-30 4.33003 5.09225e-15 -7.96085e-15 0.135197 -1.58324e-16 -8.77101e-16)
(5.67845e-15 -1.53586e-30 2.2893e-31 4.33003 -3.48165e-15 -3.32736e-16 0.135197 2.23095e-15 1.0226e-17)
(1.86145e-15 -7.69566e-30 0 4.23425 5.01772e-15 -8.02975e-15 0.134138 -1.60973e-16 -9.67291e-16)
(0 6.0554e-30 0 4.23425 -5.72613e-15 -4.85972e-16 0.134138 2.21569e-15 1.06391e-17)
(0 7.46076e-30 0 4.14114 5.08821e-15 -7.86105e-15 0.133105 -1.58187e-16 -1.05518e-15)
(-7.48359e-15 -5.96861e-30 -6.26004e-30 4.14114 -6.91537e-15 -7.80345e-16 0.133105 2.16347e-15 2.03438e-17)
(-3.31187e-15 4.4123e-30 -2.94153e-30 4.05061 5.46075e-15 -7.71777e-15 0.132096 -1.7027e-16 -1.13883e-15)
(0 0 0 4.05061 -5.22453e-15 -9.39372e-16 0.132096 2.13174e-15 3.00863e-17)
(0 5.79874e-30 0 3.96256 5.44923e-15 -7.77827e-15 0.131112 -1.87389e-16 -1.22332e-15)
(0 -4.34906e-30 0 3.96256 -5.51712e-15 -1.04896e-15 0.131112 2.10519e-15 3.14275e-17)
(1.89881e-15 9.8175e-30 1.42891e-30 3.87691 4.46587e-15 -7.75731e-15 0.130152 -1.74487e-16 -1.30671e-15)
(0 -1.14313e-29 -1.42891e-30 3.87691 -6.14754e-15 -1.24455e-15 0.130152 2.0753e-15 3.82999e-17)
(3.49372e-15 1.2002e-30 0 3.79358 3.58204e-15 -7.59375e-15 0.129215 -1.26127e-16 -1.38734e-15)
(-1.58575e-15 -2.81686e-30 -1.40843e-30 3.79358 -5.17202e-15 -1.46416e-15 0.129215 2.04434e-15 4.56254e-17)
(-3.83412e-15 4.50876e-31 0 3.7125 3.84082e-15 -7.42268e-15 0.128299 -1.1873e-16 -1.46492e-15)
(7.66825e-15 2.77648e-30 3.19451e-30 3.7125 -5.19296e-15 -1.64268e-15 0.128299 2.0042e-15 5.45459e-17)
(-1.92609e-15 4.33771e-30 0 3.63358 4.84871e-15 -7.47628e-15 0.127405 -1.47902e-16 -1.54048e-15)
(0 0 0 3.63358 -4.90028e-15 -1.77434e-15 0.127405 1.96275e-15 5.94354e-17)
(0 2.69747e-30 0 3.55675 6.19726e-15 -7.51946e-15 0.126532 -1.93653e-16 -1.61595e-15)
(0 -2.69747e-30 0 3.55675 -2.97845e-15 -2.14441e-15 0.126532 1.93471e-15 6.54762e-17)
(0 5.31761e-30 1.3294e-30 3.48195 6.34964e-15 -7.32817e-15 0.12568 -2.49219e-16 -1.6894e-15)
(-2.99355e-15 -2.6588e-30 -1.3294e-30 3.48195 -3.78002e-15 -2.64904e-15 0.12568 1.9319e-15 8.77907e-17)
(0 5.24139e-30 0 3.4091 5.02124e-15 -7.13024e-15 0.124847 -2.10444e-16 -1.75912e-15)
(-2.95064e-15 -2.6207e-30 -1.31035e-30 3.4091 -3.66208e-15 -3.08314e-15 0.124847 1.88674e-15 1.04214e-16)
(2.90835e-15 2.58314e-30 2.58314e-30 3.33815 3.82611e-15 -6.95771e-15 0.124033 -1.58186e-16 -1.82613e-15)
(1.27841e-14 0 3.53324e-30 3.33815 -1.38084e-15 -3.52834e-15 0.124033 1.87114e-15 1.22496e-16)
(-3.94055e-15 6.18198e-31 0 3.26903 4.56899e-15 -6.7936e-15 0.123238 -1.26855e-16 -1.88957e-15)
(7.88111e-15 2.54611e-30 3.02286e-30 3.26903 -2.85524e-15 -3.86015e-15 0.123238 1.88924e-15 1.40701e-16)
(1.97894e-15 -6.58197e-30 0 3.20169 7.06168e-15 -6.64912e-15 0.12246 -2.19421e-16 -1.95086e-15)
(0 5.01924e-30 0 3.20169 -5.14772e-15 -4.26327e-15 0.12246 1.84569e-15 1.51366e-16)
(0 2.47365e-30 0 3.13606 7.829e-15 -6.38203e-15 0.121701 -3.23256e-16 -2.00727e-15)
(-7.95016e-15 0 -4.18211e-30 3.13606 -4.36143e-15 -4.82063e-15 0.121701 1.78127e-15 1.75983e-16)
(-1.99609e-15 -5.77967e-30 -3.6573e-30 3.07209 7.20266e-15 -6.22085e-15 0.120958 -2.86024e-16 -2.05753e-15)
(7.98435e-15 9.75279e-30 6.55692e-30 3.07209 -3.50933e-15 -5.02813e-15 0.120958 1.76284e-15 1.99511e-16)
(0 2.40325e-30 2.40325e-30 3.00974 6.02346e-15 -6.22709e-15 0.120232 -2.82891e-16 -2.10993e-15)
(-2.70582e-15 0 -2.40325e-30 3.00974 -4.80082e-15 -5.19892e-15 0.120232 1.73172e-15 1.97647e-16)
(0 -4.73761e-30 0 2.94894 4.96703e-15 -5.91057e-15 0.119522 -1.99216e-16 -2.15864e-15)
(0 4.73761e-30 1.1844e-30 2.94894 -5.77028e-15 -5.73076e-15 0.119522 1.67671e-15 2.19142e-16)
(-2.02141e-15 1.52235e-30 0 2.88965 5.03758e-15 -5.74242e-15 0.118828 -2.04662e-16 -2.19766e-15)
(0 0 0 2.88965 -5.45478e-15 -6.11622e-15 0.118828 1.60488e-15 2.46992e-16)
(-1.46837e-15 -1.30845e-29 -3.45209e-30 2.83182 4.9208e-15 -5.76241e-15 0.118149 -2.10913e-16 -2.23745e-15)
(1.6238e-14 1.61097e-29 1.00421e-29 2.83182 -5.02295e-15 -6.30587e-15 0.118149 1.54377e-15 2.57587e-16)
(0 4.53681e-30 0 2.77541 6.38441e-15 -5.34444e-15 0.117485 -2.00813e-16 -2.27124e-15)
(0 -2.26841e-30 0 2.77541 -5.63856e-15 -6.69617e-15 0.117485 1.5078e-15 2.70214e-16)
(0 6.70768e-30 0 2.72038 7.68314e-15 -4.89879e-15 0.116835 -3.42259e-16 -2.29069e-15)
(-2.51739e-15 -2.23589e-30 -1.11795e-30 2.72038 -5.03601e-15 -7.24667e-15 0.116835 1.44523e-15 2.98511e-16)
(-3.68213e-15 -6.62907e-30 -2.20385e-30 2.66668 7.61329e-15 -4.73522e-15 0.1162 -3.19377e-16 -2.30581e-15)
(1.64358e-14 1.32231e-29 8.38774e-30 2.66668 -3.07376e-15 -7.51377e-15 0.1162 1.40114e-15 3.25892e-16)
(0 -1.73781e-29 -4.34452e-30 2.61427 7.72457e-15 -4.64886e-15 0.115577 -3.46137e-16 -2.31649e-15)
(1.6501e-14 1.73781e-29 9.31536e-30 2.61427 -4.51317e-15 -7.34856e-15 0.115577 1.37658e-15 3.30767e-16)
(-2.07073e-15 1.00061e-29 2.14113e-30 2.56312 7.17948e-15 -4.42828e-15 0.114969 -3.38671e-16 -2.33072e-15)
(0 -6.42338e-30 -2.14113e-30 2.56312 -6.34733e-15 -7.39521e-15 0.114969 1.32593e-15 3.20685e-16)
(2.07879e-15 -1.83219e-29 -5.2761e-30 2.51318 6.47406e-15 -4.21313e-15 0.114373 -3.06889e-16 -2.33735e-15)
(1.66303e-14 1.68835e-29 1.0024e-29 2.51318 -4.30783e-15 -7.70556e-15 0.114373 1.21601e-15 3.44683e-16)
(0 -1.24811e-29 -3.12029e-30 2.46442 6.00613e-15 -3.42289e-15 0.11379 -2.83749e-16 -2.33821e-15)
(8.34724e-15 1.24811e-29 5.43356e-30 2.46442 -3.98928e-15 -7.78743e-15 0.11379 1.19079e-15 3.58606e-16)
(2.09479e-15 -5.52677e-30 0 2.41681 6.30882e-15 -2.42647e-15 0.113218 -2.72241e-16 -2.3182e-15)
(0 4.10075e-30 0 2.41681 -4.3405e-15 -7.53543e-15 0.113218 1.12876e-15 3.62415e-16)
(4.20544e-15 -8.05088e-31 0 2.37031 6.14843e-15 -2.25387e-15 0.112659 -3.207e-16 -2.29579e-15)
(6.13544e-15 -2.02099e-30 1.89415e-31 2.37031 -2.90065e-15 -7.34918e-15 0.112659 1.10475e-15 3.45268e-16)
(0 1.99202e-30 1.99202e-30 2.32489 5.04354e-15 -2.47819e-15 0.112112 -2.6482e-16 -2.27249e-15)
(0 0 -1.99202e-30 2.32489 -2.77329e-15 -7.32749e-15 0.112112 1.10767e-15 3.55154e-16)
(2.21067e-15 -3.92695e-30 0 2.28052 4.46722e-15 -2.64048e-15 0.111576 -2.22494e-16 -2.2509e-15)
(8.47386e-15 3.92695e-30 3.08341e-30 2.28052 -3.12513e-15 -7.30344e-15 0.111576 1.06957e-15 3.53269e-16)
(4.25256e-15 -6.69508e-30 0 2.23717 5.08431e-15 -2.69152e-15 0.11105 -2.15637e-16 -2.22629e-15)
(0 3.87066e-30 0 2.23717 -4.73261e-15 -7.32078e-15 0.11105 1.04037e-15 3.63182e-16)
(2.13406e-15 -1.09297e-29 -1.90759e-30 2.1948 5.9024e-15 -2.67341e-15 0.110536 -2.90868e-16 -2.19975e-15)