/*--------------------------------*- C++ -*----------------------------------*\
| =========                 |                                                 |
| \\      /  F ield         | OpenFOAM: The Open Source CFD Toolbox           |
|  \\    /   O peration     | Version:  2012                                  |
|   \\  /    A nd           | Website:  www.openfoam.com                      |
|    \\/     M anipulation  |                                                 |
\*---------------------------------------------------------------------------*/
FoamFile
{
    version     2.0;
    format      ascii;
    class       surfaceScalarField;
    location    "19000";
    object      phi;
}
// * * * * * * * * * * * * * * * * * * * * * * * * * * * * * * * * * * * * * //

dimensions      [0 3 -1 0 0 0 0];
oriented        oriented;


internalField   nonuniform List<scalar> 
5116
(
1.69691e-08
-2.52458e-18
3.06329e-22
3.76397e-22
9.16468e-23
5.18928e-08
-2.52982e-18
1.95254e-21
3.21881e-21
4.42272e-22
8.83348e-08
-2.5352e-18
2.01148e-21
6.1168e-21
4.61817e-22
1.26347e-07
-2.54073e-18
2.06426e-21
9.10406e-21
4.82202e-22
1.65981e-07
-2.54642e-18
2.11846e-21
1.21224e-20
5.03462e-22
2.07294e-07
-2.55222e-18
2.1747e-21
1.52243e-20
5.25634e-22
2.5034e-07
-2.55816e-18
2.23273e-21
1.84033e-20
5.48758e-22
2.95178e-07
-2.56418e-18
2.29248e-21
2.15468e-20
5.72873e-22
3.41868e-07
-2.57047e-18
2.35394e-21
2.4839e-20
5.9802e-22
3.90471e-07
-2.57684e-18
2.41711e-21
2.82181e-20
6.24242e-22
4.41052e-07
-2.58341e-18
2.482e-21
3.17057e-20
6.51579e-22
4.93675e-07
-2.58997e-18
2.54864e-21
3.51322e-20
6.80078e-22
5.48408e-07
-2.59697e-18
2.61707e-21
3.87081e-20
7.09785e-22
6.0532e-07
-2.60401e-18
2.68734e-21
4.23489e-20
7.40746e-22
6.64483e-07
-2.61115e-18
2.75947e-21
4.61002e-20
7.73008e-22
7.25969e-07
-2.61846e-18
2.83352e-21
4.96525e-20
8.06621e-22
7.89854e-07
-2.62607e-18
2.90953e-21
5.35366e-20
8.41633e-22
8.56215e-07
-2.63385e-18
2.98752e-21
5.73958e-20
8.78093e-22
9.2513e-07
-2.64181e-18
3.06752e-21
6.13513e-20
9.16049e-22
9.9668e-07
-2.64969e-18
3.14957e-21
6.51461e-20
9.5555e-22
1.07095e-06
-2.65796e-18
3.23366e-21
6.93841e-20
9.96639e-22
1.14801e-06
-2.66645e-18
3.31981e-21
7.34615e-20
1.03936e-21
1.22797e-06
-2.67554e-18
3.408e-21
7.78435e-20
1.08374e-21
1.31089e-06
-2.6841e-18
3.49821e-21
8.20735e-20
1.12982e-21
1.39687e-06
-2.693e-18
3.59038e-21
8.63074e-20
1.17763e-21
1.48599e-06
-2.70236e-18
3.68444e-21
9.07123e-20
1.22719e-21
1.57834e-06
-2.71195e-18
3.78031e-21
9.47867e-20
1.27851e-21
1.67401e-06
-2.72173e-18
3.87785e-21
9.95913e-20
1.3316e-21
1.77307e-06
-2.73164e-18
3.9769e-21
1.04377e-19
1.38643e-21
1.87562e-06
-2.74186e-18
4.07726e-21
1.09292e-19
1.44296e-21
1.98172e-06
-2.75211e-18
4.1787e-21
1.1428e-19
1.50113e-21
2.09146e-06
-2.76265e-18
4.28092e-21
1.19012e-19
1.56087e-21
2.2049e-06
-2.77364e-18
4.3836e-21
1.23969e-19
1.62211e-21
2.32211e-06
-2.78487e-18
4.48636e-21
1.29e-19
1.68472e-21
2.44315e-06
-2.79601e-18
4.58879e-21
1.33976e-19
1.74858e-21
2.56807e-06
-2.80694e-18
4.69041e-21
1.38665e-19
1.8135e-21
2.69692e-06
-2.81869e-18
4.79071e-21
1.43939e-19
1.87933e-21
2.82972e-06
-2.8305e-18
4.88918e-21
1.48937e-19
1.94583e-21
2.96652e-06
-2.84248e-18
4.98526e-21
1.53955e-19
2.0128e-21
3.10731e-06
-2.85515e-18
5.07838e-21
1.59755e-19
2.07999e-21
3.2521e-06
-2.86747e-18
5.16797e-21
1.65153e-19
2.14712e-21
3.40091e-06
-2.88009e-18
5.25345e-21
1.70147e-19
2.21394e-21
3.55369e-06
-2.89246e-18
5.33427e-21
1.74898e-19
2.28022e-21
3.71045e-06
-2.90583e-18
5.40988e-21
1.79976e-19
2.34569e-21
3.87113e-06
-2.91827e-18
5.47981e-21
1.8399e-19
2.4101e-21
4.03571e-06
-2.93189e-18
5.54361e-21
1.89472e-19
2.47328e-21
4.20414e-06
-2.94675e-18
5.60097e-21
1.95481e-19
2.53497e-21
4.37636e-06
-2.95994e-18
5.65168e-21
2.0043e-19
2.59494e-21
4.55232e-06
-2.973e-18
5.69545e-21
2.0559e-19
2.65309e-21
4.73197e-06
-2.98719e-18
5.73216e-21
2.10285e-19
2.70924e-21
4.91524e-06
-2.99858e-18
5.76183e-21
2.14337e-19
2.76326e-21
5.10207e-06
-3.01116e-18
5.78436e-21
2.18805e-19
2.81513e-21
5.29242e-06
-3.02435e-18
5.79992e-21
2.22623e-19
2.86478e-21
5.48622e-06
-3.03733e-18
5.80869e-21
2.26414e-19
2.91224e-21
5.68343e-06
-3.05037e-18
5.81089e-21
2.31046e-19
2.95749e-21
5.88401e-06
-3.06408e-18
5.80673e-21
2.35678e-19
3.00055e-21
6.08791e-06
-3.07811e-18
5.7965e-21
2.40318e-19
3.04149e-21
6.29511e-06
-3.09203e-18
5.78055e-21
2.448e-19
3.08036e-21
6.50557e-06
-3.10424e-18
5.75909e-21
2.49679e-19
3.11728e-21
6.71929e-06
-3.11758e-18
5.7324e-21
2.53867e-19
3.15232e-21
6.93625e-06
-3.12947e-18
5.70085e-21
2.57299e-19
3.1856e-21
7.15644e-06
-3.14154e-18
5.66464e-21
2.60609e-19
3.21722e-21
7.37987e-06
-3.15125e-18
5.62407e-21
2.62794e-19
3.24721e-21
7.60654e-06
-3.16291e-18
5.57935e-21
2.6565e-19
3.27579e-21
7.83648e-06
-3.17721e-18
5.53072e-21
2.68429e-19
3.30305e-21
8.0697e-06
-3.19029e-18
5.47861e-21
2.72711e-19
3.32906e-21
8.30623e-06
-3.20366e-18
5.42326e-21
2.74766e-19
3.35392e-21
8.5461e-06
-3.21488e-18
5.3649e-21
2.78902e-19
3.37772e-21
8.78936e-06
-3.2292e-18
5.30356e-21
2.83359e-19
3.40062e-21
9.03603e-06
-3.24053e-18
5.23957e-21
2.85925e-19
3.42269e-21
9.28618e-06
-3.25133e-18
5.17294e-21
2.8828e-19
3.44397e-21
9.53985e-06
-3.26322e-18
5.10384e-21
2.89442e-19
3.46441e-21
9.79709e-06
-3.27618e-18
5.03232e-21
2.93088e-19
3.48404e-21
1.0058e-05
-3.28389e-18
4.95872e-21
2.95026e-19
3.50283e-21
1.03225e-05
-3.29555e-18
4.88269e-21
2.97208e-19
3.52103e-21
1.05909e-05
-3.30404e-18
4.80458e-21
2.97592e-19
3.5385e-21
1.0863e-05
-3.31732e-18
4.72421e-21
3.0243e-19
3.55538e-21
1.11391e-05
-3.33014e-18
4.64188e-21
3.02684e-19
3.57131e-21
1.14191e-05
-3.34018e-18
4.55779e-21
3.02934e-19
3.58684e-21
1.17032e-05
-3.35013e-18
4.47148e-21
3.0229e-19
3.60193e-21
1.19914e-05
-3.35718e-18
4.38327e-21
3.05199e-19
3.61643e-21
1.22838e-05
-3.36613e-18
4.29299e-21
3.03348e-19
3.62997e-21
1.25804e-05
-3.37064e-18
4.20087e-21
3.04199e-19
3.64297e-21
1.28815e-05
-3.37404e-18
4.10632e-21
2.9934e-19
3.65536e-21
1.3187e-05
-3.38158e-18
4.00939e-21
2.98462e-19
3.66758e-21
1.3497e-05
-3.39051e-18
3.91025e-21
2.99986e-19
3.67944e-21
1.38116e-05
-3.39196e-18
3.80894e-21
2.98336e-19
3.69034e-21
1.4131e-05
-3.40054e-18
3.70483e-21
2.97303e-19
3.70081e-21
1.44552e-05
-3.40493e-18
3.59862e-21
2.95691e-19
3.71034e-21
1.47842e-05
-3.40885e-18
3.4897e-21
2.93449e-19
3.71957e-21
1.51183e-05
-3.41316e-18
3.37791e-21
2.91388e-19
3.7285e-21
1.54574e-05
-3.41474e-18
3.26357e-21
2.89465e-19
3.73658e-21
1.58018e-05
-3.41795e-18
3.14653e-21
2.89516e-19
3.74359e-21
1.61514e-05
-3.4261e-18
3.02692e-21
2.87483e-19
3.74989e-21
1.65064e-05
-3.42856e-18
2.90565e-21
2.85564e-19
3.75495e-21
1.68669e-05
-3.4308e-18
2.78216e-21
2.80648e-19
3.758e-21
1.72329e-05
-3.42722e-18
2.65667e-21
2.80067e-19
3.76018e-21
1.76047e-05
-3.42508e-18
2.52845e-21
2.75596e-19
3.76096e-21
1.79823e-05
-3.42674e-18
2.39747e-21
2.77006e-19
3.76079e-21
1.83657e-05
-3.426e-18
2.26448e-21
2.73596e-19
3.75809e-21
1.87552e-05
-3.42458e-18
2.129e-21
2.65761e-19
3.75314e-21
1.91508e-05
-3.42055e-18
1.99131e-21
2.59059e-19
3.74709e-21
1.95527e-05
-3.42104e-18
1.85043e-21
2.49859e-19
3.73916e-21
1.99609e-05
-3.41784e-18
1.70722e-21
2.40788e-19
3.73014e-21
2.03756e-05
-3.415e-18
1.56164e-21
2.33828e-19
3.71985e-21
2.07969e-05
-3.41232e-18
1.41258e-21
2.27382e-19
3.70844e-21
2.12249e-05
-3.41128e-18
1.26041e-21
2.15337e-19
3.69535e-21
2.16597e-05
-3.40688e-18
1.10547e-21
2.08191e-19
3.68097e-21
2.21014e-05
-3.4053e-18
9.47304e-22
2.03517e-19
3.66567e-21
2.25503e-05
-3.40215e-18
7.86283e-22
1.9249e-19
3.64854e-21
2.30063e-05
-3.39567e-18
6.23622e-22
1.84012e-19
3.62987e-21
2.34697e-05
-3.39181e-18
4.58233e-22
1.804e-19
3.60972e-21
2.39405e-05
-3.38547e-18
2.89632e-22
1.6952e-19
3.58699e-21
2.44189e-05
-3.37699e-18
1.18161e-22
1.58856e-19
3.56277e-21
2.4905e-05
-3.37287e-18
-5.60155e-23
1.47052e-19
3.53685e-21
2.5399e-05
-3.36332e-18
-2.32643e-22
1.39284e-19
3.50793e-21
2.5901e-05
-3.35654e-18
-4.11348e-22
1.31303e-19
3.47722e-21
2.64112e-05
-3.34344e-18
-5.92554e-22
1.27343e-19
3.44469e-21
2.69296e-05
-3.33593e-18
-7.78259e-22
1.12821e-19
3.40864e-21
2.74564e-05
-3.32658e-18
-9.65246e-22
1.0015e-19
3.37287e-21
2.79918e-05
-3.31319e-18
-1.15436e-21
9.02999e-20
3.33578e-21
2.8536e-05
-3.30149e-18
-1.34728e-21
7.815e-20
3.29804e-21
2.9089e-05
-3.29168e-18
-1.54274e-21
6.33585e-20
3.25864e-21
2.9651e-05
-3.28725e-18
-1.7401e-21
5.51824e-20
3.21829e-21
3.02222e-05
-3.27603e-18
-1.93763e-21
4.2058e-20
3.17517e-21
3.08027e-05
-3.26557e-18
-2.13761e-21
2.70156e-20
3.13037e-21
3.13928e-05
-3.25209e-18
-2.33557e-21
2.75138e-20
3.0832e-21
3.19925e-05
-3.23773e-18
-2.5363e-21
1.67176e-20
3.02875e-21
3.2602e-05
-3.22537e-18
-2.73601e-21
7.63659e-21
2.96801e-21
3.32215e-05
-3.219e-18
-2.93567e-21
7.26665e-21
2.9044e-21
3.38512e-05
-3.20783e-18
-3.13006e-21
-3.21838e-21
2.8333e-21
3.44912e-05
-3.19071e-18
-3.32159e-21
-1.5039e-20
2.75902e-21
3.51417e-05
-3.17214e-18
-3.51016e-21
-2.26162e-20
2.67817e-21
3.58029e-05
-3.15183e-18
-3.697e-21
-3.2678e-20
2.59146e-21
3.64749e-05
-3.13543e-18
-3.87993e-21
-4.82337e-20
2.49864e-21
3.71581e-05
-3.12957e-18
-4.06049e-21
-5.83245e-20
2.40105e-21
3.78524e-05
-3.10877e-18
-4.23061e-21
-7.09222e-20
2.2948e-21
3.85582e-05
-3.10152e-18
-4.39344e-21
-8.98391e-20
2.1823e-21
3.92756e-05
-3.08552e-18
-4.54217e-21
-1.05412e-19
2.06811e-21
4.00048e-05
-3.06109e-18
-4.67521e-21
-1.11207e-19
1.9482e-21
4.07461e-05
-3.04349e-18
-4.80598e-21
-1.24736e-19
1.82356e-21
4.14996e-05
-3.01885e-18
-4.9196e-21
-1.38076e-19
1.69028e-21
4.22654e-05
-3.00253e-18
-5.03091e-21
-1.50198e-19
1.55156e-21
4.3044e-05
-2.97999e-18
-5.13507e-21
-1.68118e-19
1.41058e-21
4.38353e-05
-2.96714e-18
-5.23646e-21
-1.77287e-19
1.27164e-21
4.46397e-05
-2.9437e-18
-5.32619e-21
-1.92736e-19
1.13167e-21
4.54574e-05
-2.9291e-18
-5.41967e-21
-1.98154e-19
9.91077e-22
4.62886e-05
-2.9093e-18
-5.51205e-21
-2.08415e-19
8.52671e-22
4.71335e-05
-2.8975e-18
-5.60599e-21
-2.18318e-19
7.17964e-22
4.79924e-05
-2.88338e-18
-5.69991e-21
-2.29849e-19
5.90701e-22
4.88654e-05
-2.86288e-18
-5.78686e-21
-2.496e-19
4.65161e-22
4.97529e-05
-2.84391e-18
-5.87641e-21
-2.64651e-19
3.51307e-22
5.0655e-05
-2.8248e-18
-5.95961e-21
-2.70377e-19
2.41564e-22
5.1572e-05
-2.79971e-18
-6.03922e-21
-2.82859e-19
1.25993e-22
5.25042e-05
-2.78283e-18
-6.12021e-21
-2.95816e-19
1.62402e-23
5.34517e-05
-2.76648e-18
-6.19821e-21
-3.09096e-19
-9.16421e-23
5.4415e-05
-2.74786e-18
-6.27553e-21
-3.27364e-19
-1.97443e-22
5.53941e-05
-2.7306e-18
-6.3347e-21
-3.38993e-19
-2.84613e-22
5.63894e-05
-2.71088e-18
-6.39098e-21
-3.3917e-19
-3.67252e-22
5.74012e-05
-2.68995e-18
-6.44194e-21
-3.4582e-19
-4.66224e-22
5.84297e-05
-2.66073e-18
-6.47441e-21
-3.62219e-19
-5.68586e-22
5.94751e-05
-2.64035e-18
-6.50632e-21
-3.71326e-19
-6.4926e-22
6.05379e-05
-2.61942e-18
-6.5492e-21
-3.90752e-19
-7.08823e-22
6.16182e-05
-2.59216e-18
-6.58401e-21
-3.95684e-19
-7.4734e-22
6.27164e-05
-2.56015e-18
-6.62561e-21
-4.28933e-19
-7.89436e-22
6.38327e-05
-2.5262e-18
-6.65611e-21
-4.52224e-19
-8.18153e-22
6.49674e-05
-2.47968e-18
-6.68146e-21
-4.75554e-19
-8.323e-22
6.61209e-05
-2.45109e-18
-6.71969e-21
-5.0003e-19
-8.22143e-22
6.72935e-05
-2.41401e-18
-6.75327e-21
-5.26331e-19
-8.0429e-22
6.84854e-05
-2.37388e-18
-6.78802e-21
-5.5756e-19
-7.88433e-22
6.9697e-05
-2.33499e-18
-6.80889e-21
-5.80747e-19
-7.73096e-22
7.09286e-05
-2.31599e-18
-6.82436e-21
-5.79188e-19
-7.59854e-22
7.21806e-05
-2.29082e-18
-6.83252e-21
-5.91763e-19
-7.55335e-22
7.34532e-05
-2.2962e-18
-6.85635e-21
-5.97956e-19
-7.58632e-22
7.47468e-05
-2.28523e-18
-6.82668e-21
-5.83124e-19
-7.85914e-22
7.60618e-05
-2.27337e-18
-6.79379e-21
-5.902e-19
-8.35944e-22
7.73985e-05
-2.25615e-18
-6.74632e-21
-5.90907e-19
-9.03674e-22
7.87573e-05
-2.25475e-18
-6.69218e-21
-5.90218e-19
-9.89176e-22
8.01384e-05
-2.23918e-18
-6.62658e-21
-5.98105e-19
-1.08673e-21
8.15424e-05
-2.22682e-18
-6.56808e-21
-5.90348e-19
-1.18402e-21
8.29695e-05
-2.21772e-18
-6.49023e-21
-5.97045e-19
-1.33286e-21
8.44202e-05
-2.20133e-18
-6.38646e-21
-5.90692e-19
-1.5176e-21
8.58947e-05
-2.19758e-18
-6.30139e-21
-5.90863e-19
-1.72077e-21
8.73936e-05
-2.20494e-18
-6.2067e-21
-5.7789e-19
-1.8669e-21
8.89172e-05
-2.1882e-18
-6.10995e-21
-5.82084e-19
-1.9841e-21
9.04659e-05
-2.16983e-18
-6.03158e-21
-5.69769e-19
-2.08494e-21
9.20402e-05
-2.16789e-18
-5.9726e-21
-5.75263e-19
-2.18094e-21
9.36403e-05
-2.14755e-18
-5.91666e-21
-5.72804e-19
-2.21214e-21
9.52669e-05
-2.11681e-18
-5.86889e-21
-6.02444e-19
-2.22743e-21
9.69202e-05
-2.10735e-18
-5.86976e-21
-6.08394e-19
-2.18843e-21
9.86007e-05
-2.08463e-18
-5.90749e-21
-6.03009e-19
-2.12845e-21
0.000100309
-2.07111e-18
-5.95778e-21
-5.9829e-19
-2.0705e-21
0.000102045
-2.05462e-18
-6.02245e-21
-6.03927e-19
-2.04327e-21
0.00010381
-2.03596e-18
-6.07358e-21
-6.2068e-19
-2.02222e-21
0.000105604
-2.01773e-18
-6.15046e-21
-6.21793e-19
-1.97683e-21
0.000107427
-2.00434e-18
-6.22466e-21
-6.2604e-19
-1.94859e-21
0.000109281
-1.98966e-18
-6.2739e-21
-6.24723e-19
-1.90594e-21
0.000111165
-1.96696e-18
-6.2698e-21
-6.42011e-19
-1.84372e-21
0.000113079
-1.9448e-18
-6.28392e-21
-6.4222e-19
-1.74591e-21
0.000115026
-1.92178e-18
-6.33642e-21
-6.43615e-19
-1.65822e-21
0.000117004
-1.86651e-18
-6.34404e-21
-6.59658e-19
-1.59158e-21
0.000119015
-1.853e-18
-6.40117e-21
-6.50715e-19
-1.53978e-21
0.000121058
-1.84004e-18
-6.39699e-21
-6.4606e-19
-1.57704e-21
0.000123136
-1.83502e-18
-6.37367e-21
-6.41925e-19
-1.66e-21
0.000125247
-1.85162e-18
-6.36174e-21
-6.35515e-19
-1.71989e-21
0.000127393
-1.84484e-18
-6.1928e-21
-6.29562e-19
-1.7553e-21
0.000129574
-1.83891e-18
-6.02474e-21
-6.1981e-19
-1.8264e-21
0.000131791
-1.84075e-18
-5.85552e-21
-6.21683e-19
-1.87566e-21
0.000134044
-1.83067e-18
-5.65529e-21
-6.2248e-19
-1.86596e-21
0.000136334
-1.83108e-18
-5.54247e-21
-6.26152e-19
-1.92609e-21
0.000138662
-1.83954e-18
-5.42572e-21
-6.3396e-19
-1.86864e-21
0.000141028
-1.81691e-18
-5.24346e-21
-6.13733e-19
-1.74339e-21
0.000143432
-1.80971e-18
-5.15404e-21
-5.72357e-19
-1.63712e-21
0.000145876
-1.81958e-18
-5.09117e-21
-5.35721e-19
-1.43373e-21
0.00014836
-1.76958e-18
-4.94853e-21
-5.55019e-19
-1.144e-21
0.000150884
-1.76942e-18
-4.92248e-21
-5.33938e-19
-5.76577e-22
0.00015345
-1.75634e-18
-4.8308e-21
-5.08794e-19
-3.48284e-23
0.000156057
-1.7632e-18
-4.74273e-21
-5.25619e-19
3.66654e-22
0.000158707
-1.7558e-18
-4.64868e-21
-5.5127e-19
8.17397e-22
0.000161401
-1.76192e-18
-4.48753e-21
-5.68405e-19
1.26498e-21
0.000164138
-1.75872e-18
-4.33309e-21
-5.72103e-19
1.64986e-21
0.00016692
-1.74756e-18
-4.02614e-21
-5.85739e-19
1.89083e-21
0.000169747
-1.73765e-18
-3.75695e-21
-6.35643e-19
2.08639e-21
0.00017262
-1.72817e-18
-3.62578e-21
-6.56509e-19
2.53185e-21
0.00017554
-1.69542e-18
-3.58919e-21
-6.62312e-19
2.87674e-21
0.000178508
-1.68012e-18
-3.53857e-21
-6.97526e-19
3.07301e-21
0.000181524
-1.65068e-18
-3.36535e-21
-7.03392e-19
3.37406e-21
0.000184589
-1.64913e-18
-3.48926e-21
-7.25024e-19
3.4906e-21
0.000187703
-1.62553e-18
-3.54758e-21
-7.44714e-19
3.60684e-21
0.000190869
-1.65427e-18
-3.75698e-21
-7.56073e-19
3.77692e-21
0.000194085
-1.64409e-18
-3.73809e-21
-7.76504e-19
4.11702e-21
0.000197354
-1.63113e-18
-3.63514e-21
-7.87101e-19
4.68672e-21
0.000200676
-1.64571e-18
-3.51945e-21
-7.84136e-19
5.16956e-21
0.000204052
-1.64825e-18
-3.45069e-21
-7.8357e-19
5.53023e-21
0.000207482
-1.63926e-18
-3.24125e-21
-8.04065e-19
5.68778e-21
0.000210968
-1.62155e-18
-2.79428e-21
-7.93947e-19
5.92637e-21
0.00021451
-1.61301e-18
-2.43095e-21
-8.09117e-19
6.12928e-21
0.00021811
-1.61029e-18
-1.68285e-21
-8.00286e-19
5.95234e-21
0.000221768
-1.60299e-18
-9.71702e-22
-8.09575e-19
5.45259e-21
0.000225485
-1.57166e-18
9.05454e-23
-8.47196e-19
4.82123e-21
0.000229262
-1.55142e-18
8.13974e-22
-8.32699e-19
4.77509e-21
0.000233099
-1.53284e-18
1.43064e-21
-8.59803e-19
4.27788e-21
0.000236999
-1.52869e-18
1.78795e-21
-8.65759e-19
4.22017e-21
0.000240961
-1.53208e-18
1.79907e-21
-8.60438e-19
4.27962e-21
0.000244987
-1.50146e-18
1.74397e-21
-9.14328e-19
4.41704e-21
0.000249078
-1.46339e-18
1.66547e-21
-9.7411e-19
5.18333e-21
0.000253235
-1.40855e-18
2.20643e-21
-9.65962e-19
6.17084e-21
0.000257458
-1.32567e-18
2.57183e-21
-8.80005e-19
6.34635e-21
0.000261749
-1.25891e-18
1.93584e-21
-8.89085e-19
6.21876e-21
0.000266109
-1.21506e-18
1.1454e-21
-8.28566e-19
6.3113e-21
0.000270538
-1.17119e-18
7.70626e-22
-8.50699e-19
6.66699e-21
0.000275038
-1.1487e-18
5.06208e-22
-8.2688e-19
7.46332e-21
0.000279611
-1.11158e-18
1.12053e-21
-8.49614e-19
7.20628e-21
0.000284256
-1.08303e-18
2.12282e-21
-8.36513e-19
7.39396e-21
0.000288975
-1.08079e-18
3.106e-21
-8.36299e-19
6.86718e-21
0.00029377
-1.13114e-18
5.27956e-21
-7.70817e-19
6.58202e-21
0.00029864
-1.09922e-18
7.17841e-21
-7.67505e-19
5.74912e-21
0.000303588
-1.03766e-18
7.07703e-21
-7.63982e-19
5.73916e-21
0.000308615
-1.05097e-18
7.12746e-21
-7.49204e-19
6.00693e-21
0.000313721
-9.98008e-19
7.6614e-21
-7.28286e-19
5.38462e-21
0.000318908
-9.74318e-19
6.28825e-21
-7.25e-19
3.98356e-21
0.000324177
-1.00995e-18
4.49443e-21
-7.33573e-19
2.1151e-21
0.00032953
-9.95402e-19
2.71607e-21
-8.40006e-19
-4.98876e-22
0.000334966
-1.04486e-18
5.66459e-22
-8.4646e-19
-2.50049e-21
0.000340489
-1.02467e-18
-1.87677e-21
-8.84015e-19
-3.05182e-21
0.000346098
-9.98427e-19
-3.92614e-21
-8.77594e-19
-3.21059e-21
0.000351795
-9.97742e-19
-5.97756e-21
-8.67756e-19
-4.05913e-21
0.000357581
-1.00923e-18
-7.3356e-21
-9.07086e-19
-6.66319e-21
0.000363458
-1.00918e-18
-7.82998e-21
-8.88123e-19
-9.76556e-21
0.000369426
-9.08578e-19
-8.26055e-21
-1.01215e-18
-1.42778e-20
0.000375488
-8.36389e-19
-1.00209e-20
-1.07359e-18
-1.66891e-20
0.000381644
-9.10473e-19
-1.3965e-20
-9.93845e-19
-1.79453e-20
0.000387895
-1.00624e-18
-1.68266e-20
-9.95487e-19
-2.05677e-20
0.000394243
-1.08147e-18
-1.86316e-20
-9.71183e-19
-2.20108e-20
0.000400689
-1.01201e-18
-1.83785e-20
-9.37256e-19
-2.32009e-20
0.000407235
-9.81374e-19
-1.93714e-20
-9.68254e-19
-2.32117e-20
0.000413881
-9.39237e-19
-1.98492e-20
-9.57329e-19
-2.3199e-20
0.000420629
-9.70314e-19
-2.19784e-20
-9.30179e-19
-2.42206e-20
0.00042748
-9.12082e-19
-2.27321e-20
-9.12313e-19
-2.5812e-20
0.000434436
-1.02908e-18
-2.42686e-20
-9.32627e-19
-2.64302e-20
0.000441497
-9.13517e-19
-2.42809e-20
-9.31548e-19
-2.24151e-20
0.000448666
-9.08817e-19
-2.72611e-20
-9.24954e-19
-1.86575e-20
0.000455943
-8.44004e-19
-2.95101e-20
-8.9265e-19
-1.77199e-20
0.000463329
-8.43403e-19
-3.27255e-20
-8.78425e-19
-1.43149e-20
0.000470827
-7.82808e-19
-3.11232e-20
-8.30769e-19
-1.24102e-20
0.000478436
-7.28297e-19
-2.79126e-20
-8.69157e-19
-1.15067e-20
0.000486159
-8.18143e-19
-2.62808e-20
-7.50571e-19
-1.00381e-20
0.000493996
-8.25072e-19
-2.3734e-20
-8.08432e-19
-1.18485e-20
0.000501948
-7.90408e-19
-1.89701e-20
-8.50766e-19
-1.07854e-20
0.000510018
-8.57417e-19
-1.73231e-20
-7.41387e-19
-9.82439e-21
0.000518205
-8.79877e-19
-1.89359e-20
-8.58337e-19
-1.56713e-20
0.000526511
-1.01649e-18
-2.2304e-20
-9.13369e-19
-1.63253e-20
0.000534938
-9.18985e-19
-2.34591e-20
-9.39193e-19
-1.65509e-20
0.000543485
-9.37608e-19
-2.66515e-20
-9.66293e-19
-1.79726e-20
0.000552154
-9.93406e-19
-3.20373e-20
-9.34419e-19
-2.06765e-20
0.000560946
-9.44536e-19
-3.27412e-20
-9.87704e-19
-2.43283e-20
0.000569862
-8.41068e-19
-3.70263e-20
-9.12714e-19
-2.67657e-20
0.000578902
-9.44065e-19
-4.23999e-20
-9.37372e-19
-3.12984e-20
0.000588066
-9.09339e-19
-3.65864e-20
-1.00994e-18
-3.14936e-20
0.000597357
-1.023e-18
-3.6837e-20
-9.92392e-19
-3.57017e-20
0.000606773
-9.56352e-19
-3.39052e-20
-9.56904e-19
-3.8778e-20
0.000616316
-9.61832e-19
-3.1472e-20
-1.01759e-18
-3.22829e-20
0.000625985
-1.13148e-18
-3.31155e-20
-1.04069e-18
-2.87175e-20
0.000635781
-1.00045e-18
-3.36399e-20
-1.13028e-18
-3.32063e-20
0.000645704
-1.2717e-18
-4.55789e-20
-1.1369e-18
-3.44427e-20
0.000655753
-1.18908e-18
-3.78549e-20
-1.10672e-18
-3.65171e-20
0.000665928
-1.25576e-18
-3.40894e-20
-1.16855e-18
-4.08804e-20
0.000676228
-1.23742e-18
-2.94024e-20
-1.13059e-18
-4.27807e-20
0.000686653
-1.15211e-18
-2.8979e-20
-1.10957e-18
-4.10128e-20
0.000697201
-9.64922e-19
-2.31066e-20
-1.18881e-18
-4.09773e-20
0.000707871
-9.78772e-19
-3.15573e-20
-1.28984e-18
-3.72668e-20
0.000718662
-1.14266e-18
-4.617e-20
-1.31016e-18
-2.74076e-20
0.000729573
-1.22016e-18
-2.59187e-20
-1.20288e-18
-1.80294e-20
0.0007406
-1.1134e-18
-1.67147e-20
-1.171e-18
-1.70971e-20
0.000751741
-1.20599e-18
-1.24026e-20
-1.07541e-18
-1.38863e-20
0.000762995
-1.17437e-18
-1.02322e-20
-1.19145e-18
-1.27436e-20
0.000774357
-1.15143e-18
-1.0765e-20
-1.20956e-18
-3.82538e-21
0.000785826
-1.07487e-18
-8.96438e-21
-1.16143e-18
5.32302e-21
0.000797397
-1.16817e-18
-1.43709e-20
-9.64974e-19
4.10124e-21
0.000809067
-1.46592e-20
-1.2114e-18
-9.8059e-21
-1.03901e-18
1.69691e-08
2.6842e-22
1.26709e-22
5.18928e-08
1.96459e-21
8.27919e-22
8.83348e-08
3.72404e-21
1.55185e-21
1.26347e-07
5.5305e-21
2.28993e-21
1.65981e-07
7.36516e-21
3.0816e-21
2.07294e-07
9.22419e-21
3.93096e-21
2.5034e-07
1.1074e-20
4.81699e-21
2.95178e-07
1.30391e-20
5.75747e-21
3.41868e-07
1.49842e-20
6.72746e-21
3.90471e-07
1.70227e-20
7.70388e-21
4.41052e-07
1.91777e-20
8.72916e-21
4.93675e-07
2.12831e-20
9.7488e-21
5.48408e-07
2.3562e-20
1.0849e-20
6.0532e-07
2.59632e-20
1.18817e-20
6.64483e-07
2.81474e-20
1.32338e-20
7.25969e-07
3.06343e-20
1.44896e-20
7.89854e-07
3.29666e-20
1.59504e-20
8.56215e-07
3.53574e-20
1.74395e-20
9.2513e-07
3.79698e-20
1.90328e-20
9.9668e-07
4.05383e-20
2.04339e-20
1.07095e-06
4.30623e-20
2.21851e-20
1.14801e-06
4.56482e-20
2.37984e-20
1.22797e-06
4.86354e-20
2.54742e-20
1.31089e-06
5.11022e-20
2.72628e-20
1.39687e-06
5.4017e-20
2.96225e-20
1.48599e-06
5.71222e-20
3.15255e-20
1.57834e-06
6.00019e-20
3.34009e-20
1.67401e-06
6.32423e-20
3.54474e-20
1.77307e-06
6.64589e-20
3.73275e-20
1.87562e-06
6.98402e-20
3.93246e-20
1.98172e-06
7.29389e-20
4.16938e-20
2.09146e-06
7.59031e-20
4.47483e-20
2.2049e-06
7.93252e-20
4.71762e-20
2.32211e-06
8.28034e-20
5.01697e-20
2.44315e-06
8.59657e-20
5.2943e-20
2.56807e-06
8.90953e-20
5.61379e-20
2.69692e-06
9.28122e-20
5.9143e-20
2.82972e-06
9.63911e-20
6.23492e-20
2.96652e-06
1.00802e-19
6.50836e-20
3.10731e-06
1.04813e-19
6.8508e-20
3.2521e-06
1.09284e-19
7.18048e-20
3.40091e-06
1.13072e-19
7.50368e-20
3.55369e-06
1.16997e-19
7.85968e-20
3.71045e-06
1.20454e-19
8.20982e-20
3.87113e-06
1.23439e-19
8.70219e-20
4.03571e-06
1.27276e-19
9.23942e-20
4.20414e-06
1.30876e-19
9.6956e-20
4.37636e-06
1.34224e-19
1.0327e-19
4.55232e-06
1.37492e-19
1.08928e-19
4.73197e-06
1.40673e-19
1.1339e-19
4.91524e-06
1.42979e-19
1.18946e-19
5.10207e-06
1.46118e-19
1.23994e-19
5.29242e-06
1.49508e-19
1.29556e-19
5.48622e-06
1.53821e-19
1.34951e-19
5.68343e-06
1.57307e-19
1.40685e-19
5.88401e-06
1.61083e-19
1.45826e-19
6.08791e-06
1.64943e-19
1.50916e-19
6.29511e-06
1.67911e-19
1.56425e-19
6.50557e-06
1.71459e-19
1.61209e-19
6.71929e-06
1.75318e-19
1.67056e-19
6.93625e-06
1.78126e-19
1.72118e-19
7.15644e-06
1.81434e-19
1.7729e-19
7.37987e-06
1.85354e-19
1.82487e-19
7.60654e-06
1.87673e-19
1.8724e-19
7.83648e-06
1.90771e-19
1.91619e-19
8.0697e-06
1.95401e-19
1.9654e-19
8.30623e-06
1.99742e-19
1.99699e-19
8.5461e-06
2.03214e-19
2.05893e-19
8.78936e-06
2.06465e-19
2.11665e-19
9.03603e-06
2.10453e-19
2.1678e-19
9.28618e-06
2.16072e-19
2.21199e-19
9.53985e-06
2.19976e-19
2.2415e-19
9.79709e-06
2.25785e-19
2.27598e-19
1.0058e-05
2.31031e-19
2.32605e-19
1.03225e-05
2.36307e-19
2.35663e-19
1.05909e-05
2.41227e-19
2.39569e-19
1.0863e-05
2.44441e-19
2.4347e-19
1.11391e-05
2.49738e-19
2.49886e-19
1.14191e-05
2.51644e-19
2.56055e-19
1.17032e-05
2.5679e-19
2.59683e-19
1.19914e-05
2.60251e-19
2.6338e-19
1.22838e-05
2.64394e-19
2.67576e-19
1.25804e-05
2.67652e-19
2.71762e-19
1.28815e-05
2.71602e-19
2.75686e-19
1.3187e-05
2.72618e-19
2.83862e-19
1.3497e-05
2.7306e-19
2.90386e-19
1.38116e-05
2.74312e-19
3.00587e-19
1.4131e-05
2.74524e-19
3.06184e-19
1.44552e-05
2.73708e-19
3.15018e-19
1.47842e-05
2.71253e-19
3.24255e-19
1.51183e-05
2.70394e-19
3.29958e-19
1.54574e-05
2.7179e-19
3.3141e-19
1.58018e-05
2.73786e-19
3.38309e-19
1.61514e-05
2.7891e-19
3.42514e-19
1.65064e-05
2.84922e-19
3.41643e-19
1.68669e-05
2.90761e-19
3.45007e-19
1.72329e-05
2.95168e-19
3.48814e-19
1.76047e-05
2.97664e-19
3.56115e-19
1.79823e-05
3.01978e-19
3.62923e-19
1.83657e-05
3.04063e-19
3.66587e-19
1.87552e-05
3.07984e-19
3.7141e-19
1.91508e-05
3.1027e-19
3.72879e-19
1.95527e-05
3.11783e-19
3.76575e-19
1.99609e-05
3.16154e-19
3.81559e-19
2.03756e-05
3.15734e-19
3.89372e-19
2.07969e-05
3.16669e-19
3.931e-19
2.12249e-05
3.17579e-19
3.96398e-19
2.16597e-05
3.20251e-19
4.04864e-19
2.21014e-05
3.2152e-19
4.09174e-19
2.25503e-05
3.28339e-19
4.09887e-19
2.30063e-05
3.309e-19
4.12511e-19
2.34697e-05
3.28109e-19
4.17602e-19
2.39405e-05
3.30097e-19
4.21633e-19
2.44189e-05
3.3535e-19
4.22253e-19
2.4905e-05
3.36651e-19
4.17556e-19
2.5399e-05
3.44193e-19
4.23361e-19
2.5901e-05
3.46334e-19
4.2841e-19
2.64112e-05
3.44077e-19
4.28774e-19
2.69296e-05
3.4674e-19
4.34135e-19
2.74564e-05
3.48153e-19
4.3656e-19
2.79918e-05
3.47122e-19
4.42393e-19
2.8536e-05
3.47167e-19
4.44496e-19
2.9089e-05
3.45829e-19
4.50174e-19
2.9651e-05
3.45394e-19
4.52688e-19
3.02222e-05
3.45789e-19
4.53396e-19
3.08027e-05
3.55899e-19
4.54312e-19
3.13928e-05
3.446e-19
4.59442e-19
3.19925e-05
3.42128e-19
4.58171e-19
3.2602e-05
3.34299e-19
4.64203e-19
3.32215e-05
3.34159e-19
4.64137e-19
3.38512e-05
3.30429e-19
4.6945e-19
3.44912e-05
3.29107e-19
4.65967e-19
3.51417e-05
3.24093e-19
4.69894e-19
3.58029e-05
3.26877e-19
4.69992e-19
3.64749e-05
3.20627e-19
4.70935e-19
3.71581e-05
3.22072e-19
4.70451e-19
3.78524e-05
3.27338e-19
4.6838e-19
3.85582e-05
3.29105e-19
4.6747e-19
3.92756e-05
3.39862e-19
4.66493e-19
4.00048e-05
3.29467e-19
4.78066e-19
4.07461e-05
3.41594e-19
4.69122e-19
4.14996e-05
3.30277e-19
4.71644e-19
4.22654e-05
3.24304e-19
4.77657e-19
4.3044e-05
3.19629e-19
4.70953e-19
4.38353e-05
3.24309e-19
4.69466e-19
4.46397e-05
3.13183e-19
4.67718e-19
4.54574e-05
3.06989e-19
4.77598e-19
4.62886e-05
3.05336e-19
4.78917e-19
4.71335e-05
2.94821e-19
4.83613e-19
4.79924e-05
2.95927e-19
4.83277e-19
4.88654e-05
2.92984e-19
4.85828e-19
4.97529e-05
3.01665e-19
4.78498e-19
5.0655e-05
3.01166e-19
4.66568e-19
5.1572e-05
2.98999e-19
4.59588e-19
5.25042e-05
2.96656e-19
4.52841e-19
5.34517e-05
2.87972e-19
4.50532e-19
5.4415e-05
3.00576e-19
4.57821e-19
5.53941e-05
2.9267e-19
4.54261e-19
5.63894e-05
2.86682e-19
4.4718e-19
5.74012e-05
2.88971e-19
4.42947e-19
5.84297e-05
2.78869e-19
4.39139e-19
5.94751e-05
2.55096e-19
4.42418e-19
6.05379e-05
2.61177e-19
4.44449e-19
6.16182e-05
2.60178e-19
4.37856e-19
6.27164e-05
2.72937e-19
4.23143e-19
6.38327e-05
2.73106e-19
4.20708e-19
6.49674e-05
2.68993e-19
4.32765e-19
6.61209e-05
2.62492e-19
4.26987e-19
6.72935e-05
2.53253e-19
4.14182e-19
6.84854e-05
2.53343e-19
4.03834e-19
6.9697e-05
2.44854e-19
3.93118e-19
7.09286e-05
2.27571e-19
4.04565e-19
7.21806e-05
2.026e-19
4.11106e-19
7.34532e-05
2.07509e-19
4.05221e-19
7.47468e-05
2.01729e-19
4.02589e-19
7.60618e-05
2.1463e-19
3.82032e-19
7.73985e-05
2.27402e-19
3.82738e-19
7.87573e-05
2.28601e-19
3.74845e-19
8.01384e-05
2.29505e-19
3.63168e-19
8.15424e-05
2.39652e-19
3.54068e-19
8.29695e-05
2.49476e-19
3.41287e-19
8.44202e-05
2.46205e-19
3.29294e-19
8.58947e-05
2.46963e-19
3.36488e-19
8.73936e-05
2.22996e-19
3.40558e-19
8.89172e-05
2.05878e-19
3.26351e-19
9.04659e-05
1.88745e-19
3.14114e-19
9.20402e-05
1.68164e-19
3.16727e-19
9.36403e-05
1.65531e-19
3.10525e-19
9.52669e-05
1.53754e-19
3.02034e-19
9.69202e-05
1.29427e-19
3.05532e-19
9.86007e-05
1.33056e-19
3.15542e-19
0.000100309
1.22428e-19
3.1067e-19
0.000102045
1.22594e-19
2.99137e-19
0.00010381
1.1237e-19
2.90187e-19
0.000105604
1.19034e-19
2.85219e-19
0.000107427
1.23963e-19
2.87501e-19
0.000109281
1.3039e-19
2.9846e-19
0.000111165
1.20515e-19
3.07969e-19
0.000113079
1.15955e-19
3.11232e-19
0.000115026
1.4143e-19
3.13689e-19
0.000117004
1.57473e-19
3.1484e-19
0.000119015
1.73295e-19
3.0739e-19
0.000121058
1.73305e-19
2.97346e-19
0.000123136
1.51848e-19
2.99806e-19
0.000125247
1.66746e-19
3.15282e-19
0.000127393
1.62424e-19
3.09704e-19
0.000129574
1.65127e-19
3.08246e-19
0.000131791
1.69801e-19
3.14777e-19
0.000134044
1.51086e-19
2.83546e-19
0.000136334
1.46423e-19
2.84223e-19
0.000138662
1.4748e-19
2.72474e-19
0.000141028
1.30898e-19
2.50302e-19
0.000143432
1.0752e-19
2.50773e-19
0.000145876
9.6874e-20
2.50375e-19
0.00014836
1.01815e-19
2.55336e-19
0.000150884
1.01309e-19
2.46585e-19
0.00015345
1.05784e-19
2.40513e-19
0.000156057
8.94772e-20
2.42139e-19
0.000158707
9.33892e-20
2.21158e-19
0.000161401
7.45682e-20
2.2868e-19
0.000164138
1.0712e-19
2.5222e-19
0.00016692
1.12843e-19
2.47842e-19
0.000169747
9.37498e-20
2.64559e-19
0.00017262
8.91361e-20
2.76824e-19
0.00017554
1.25565e-19
2.78627e-19
0.000178508
1.46007e-19
2.73482e-19
0.000181524
1.1184e-19
2.66365e-19
0.000184589
1.24858e-19
2.79902e-19
0.000187703
1.22491e-19
2.78377e-19
0.000190869
1.27633e-19
2.92255e-19
0.000194085
1.42449e-19
3.12484e-19
0.000197354
1.35757e-19
3.12314e-19
0.000200676
9.30156e-20
3.24418e-19
0.000204052
9.22645e-20
2.99518e-19
0.000207482
1.13565e-19
2.78382e-19
0.000210968
1.05323e-19
2.90319e-19
0.00021451
1.60968e-19
2.62872e-19
0.00021811
1.54091e-19
2.6471e-19
0.000221768
1.81979e-19
2.25965e-19
0.000225485
1.48671e-19
2.38847e-19
0.000229262
1.4097e-19
2.13793e-19
0.000233099
1.22167e-19
2.24643e-19
0.000236999
1.00755e-19
2.23697e-19
0.000240961
1.00943e-19
2.42543e-19
0.000244987
1.12206e-19
2.51114e-19
0.000249078
1.80793e-19
2.76691e-19
0.000253235
1.83781e-19
2.61755e-19
0.000257458
1.49804e-19
2.86891e-19
0.000261749
1.80039e-19
2.53435e-19
0.000266109
2.24274e-19
2.95408e-19
0.000270538
2.44099e-19
2.84773e-19
0.000275038
2.98098e-19
2.28821e-19
0.000279611
3.09517e-19
2.20777e-19
0.000284256
2.88421e-19
1.30295e-19
0.000288975
3.59437e-19
1.39332e-19
0.00029377
2.8738e-19
1.89767e-19
0.00029864
1.80769e-19
2.63925e-19
0.000303588
2.55195e-19
2.77096e-19
0.000308615
2.92505e-19
2.55042e-19
0.000313721
2.58419e-19
2.64181e-19
0.000318908
2.92431e-19
2.73066e-19
0.000324177