/*--------------------------------*- C++ -*----------------------------------*\
| =========                 |                                                 |
| \\      /  F ield         | OpenFOAM: The Open Source CFD Toolbox           |
|  \\    /   O peration     | Version:  2106                                  |
|   \\  /    A nd           | Website:  www.openfoam.com                      |
|    \\/     M anipulation  |                                                 |
\*---------------------------------------------------------------------------*/
FoamFile
{
    version     2.0;
    format      ascii;
    arch        "LSB;label=32;scalar=64";
    class       volSymmTensorField;
    location    "20000";
    object      turbulenceProperties:R;
}
// * * * * * * * * * * * * * * * * * * * * * * * * * * * * * * * * * * * * * //

dimensions      [0 2 -2 0 0 0 0];

internalField   nonuniform List<symmTensor> 
2560
(
(5.38508e-06 -1.42987e-08 -2.06993e-11 5.38508e-06 4.16365e-25 5.38508e-06)
(5.38508e-06 -1.42987e-08 -2.06993e-11 5.38508e-06 7.91612e-27 5.38508e-06)
(2.35413e-06 -3.59055e-08 -1.56709e-10 2.35413e-06 -2.46167e-24 2.35413e-06)
(2.35413e-06 -3.59055e-08 -1.56709e-10 2.35413e-06 2.81136e-26 2.35413e-06)
(1.14987e-05 -5.15367e-07 -3.09181e-09 1.14987e-05 -2.12113e-23 1.14987e-05)
(1.14987e-05 -5.15367e-07 -3.09181e-09 1.14987e-05 4.67079e-25 1.14987e-05)
(4.14659e-05 -3.88522e-06 -2.36032e-08 4.14659e-05 -6.40765e-23 4.14659e-05)
(4.14659e-05 -3.88522e-06 -2.36032e-08 4.14659e-05 4.45152e-24 4.14659e-05)
(0.000107101 -1.70863e-05 -1.04807e-07 0.000107101 -4.96391e-22 0.000107101)
(0.000107101 -1.70863e-05 -1.04807e-07 0.000107101 2.06968e-23 0.000107101)
(0.000222745 -5.22781e-05 -3.22436e-07 0.000222745 1.97302e-23 0.000222745)
(0.000222745 -5.22781e-05 -3.22436e-07 0.000222745 6.50041e-23 0.000222745)
(0.000395853 -0.000121858 -7.52989e-07 0.000395853 3.85084e-22 0.000395853)
(0.000395853 -0.000121858 -7.52989e-07 0.000395853 1.48652e-22 0.000395853)
(0.000620989 -0.000228979 -1.41635e-06 0.000620989 1.06186e-20 0.000620989)
(0.000620989 -0.000228979 -1.41635e-06 0.000620989 2.62859e-22 0.000620989)
(0.000880052 -0.000363235 -2.25452e-06 0.000880052 2.63568e-20 0.000880052)
(0.000880052 -0.000363235 -2.25452e-06 0.000880052 4.01534e-22 0.000880052)
(0.00115001 -0.000507124 -3.17166e-06 0.00115001 4.59598e-20 0.00115001)
(0.00115001 -0.000507124 -3.17166e-06 0.00115001 5.74676e-22 0.00115001)
(0.00141156 -0.00064564 -4.08512e-06 0.00141156 6.44869e-20 0.00141156)
(0.00141156 -0.00064564 -4.08512e-06 0.00141156 7.57605e-22 0.00141156)
(0.00165286 -0.000770453 -4.94597e-06 0.00165286 7.8583e-20 0.00165286)
(0.00165286 -0.000770453 -4.94597e-06 0.00165286 9.55944e-22 0.00165286)
(0.00186886 -0.000878885 -5.73424e-06 0.00186886 8.7164e-20 0.00186886)
(0.00186886 -0.000878885 -5.73424e-06 0.00186886 1.15413e-21 0.00186886)
(0.00205892 -0.000971455 -6.44738e-06 0.00205892 9.06654e-20 0.00205892)
(0.00205892 -0.000971455 -6.44738e-06 0.00205892 9.4907e-22 0.00205892)
(0.00222475 -0.00105 -7.09113e-06 0.00222475 9.02674e-20 0.00222475)
(0.00222475 -0.00105 -7.09113e-06 0.00222475 1.88555e-22 0.00222475)
(0.00236899 -0.00111665 -7.67418e-06 0.00236899 8.69097e-20 0.00236899)
(0.00236899 -0.00111665 -7.67418e-06 0.00236899 -3.06168e-22 0.00236899)
(0.0024945 -0.00117343 -8.20561e-06 0.0024945 8.13683e-20 0.0024945)
(0.0024945 -0.00117343 -8.20561e-06 0.0024945 -3.02365e-24 0.0024945)
(0.00260396 -0.00122205 -8.69372e-06 0.00260396 7.43542e-20 0.00260396)
(0.00260396 -0.00122205 -8.69372e-06 0.00260396 3.4156e-22 0.00260396)
(0.00269976 -0.00126395 -9.14574e-06 0.00269976 6.60964e-20 0.00269976)
(0.00269976 -0.00126395 -9.14574e-06 0.00269976 3.75644e-22 0.00269976)
(0.00278396 -0.00130029 -9.56774e-06 0.00278396 5.73196e-20 0.00278396)
(0.00278396 -0.00130029 -9.56774e-06 0.00278396 5.57593e-22 0.00278396)
(0.00285827 -0.00133201 -9.96479e-06 0.00285827 4.8024e-20 0.00285827)
(0.00285827 -0.00133201 -9.96479e-06 0.00285827 7.06086e-22 0.00285827)
(0.00292416 -0.00135985 -1.03411e-05 0.00292416 3.83085e-20 0.00292416)
(0.00292416 -0.00135985 -1.03411e-05 0.00292416 7.10528e-22 0.00292416)
(0.00298284 -0.00138444 -1.07001e-05 0.00298284 2.82241e-20 0.00298284)
(0.00298284 -0.00138444 -1.07001e-05 0.00298284 1.51206e-21 0.00298284)
(0.00303532 -0.00140627 -1.10447e-05 0.00303532 1.78496e-20 0.00303532)
(0.00303532 -0.00140627 -1.10447e-05 0.00303532 2.52552e-21 0.00303532)
(0.00308244 -0.00142575 -1.13774e-05 0.00308244 7.85362e-21 0.00308244)
(0.00308244 -0.00142575 -1.13774e-05 0.00308244 2.97661e-21 0.00308244)
(0.00312491 -0.00144321 -1.17e-05 0.00312491 -2.97414e-21 0.00312491)
(0.00312491 -0.00144321 -1.17e-05 0.00312491 1.202e-21 0.00312491)
(0.00316334 -0.00145893 -1.20144e-05 0.00316334 -1.41531e-20 0.00316334)
(0.00316334 -0.00145893 -1.20144e-05 0.00316334 8.9064e-22 0.00316334)
(0.00319823 -0.00147314 -1.2322e-05 0.00319823 -2.43972e-20 0.00319823)
(0.00319823 -0.00147314 -1.2322e-05 0.00319823 -2.78871e-22 0.00319823)
(0.00323 -0.00148602 -1.26239e-05 0.00323 -3.47022e-20 0.00323)
(0.00323 -0.00148602 -1.26239e-05 0.00323 3.24938e-21 0.00323)
(0.00325902 -0.00149776 -1.29212e-05 0.00325902 -4.60834e-20 0.00325902)
(0.00325902 -0.00149776 -1.29212e-05 0.00325902 6.15259e-21 0.00325902)
(0.00328561 -0.00150847 -1.32149e-05 0.00328561 -5.73874e-20 0.00328561)
(0.00328561 -0.00150847 -1.32149e-05 0.00328561 6.00005e-21 0.00328561)
(0.00331003 -0.00151829 -1.35057e-05 0.00331003 -6.88198e-20 0.00331003)
(0.00331003 -0.00151829 -1.35057e-05 0.00331003 3.41337e-21 0.00331003)
(0.00333251 -0.0015273 -1.37943e-05 0.00333251 -8.06536e-20 0.00333251)
(0.00333251 -0.0015273 -1.37943e-05 0.00333251 3.84604e-21 0.00333251)
(0.00335326 -0.0015356 -1.40812e-05 0.00335326 -9.19765e-20 0.00335326)
(0.00335326 -0.0015356 -1.40812e-05 0.00335326 4.32754e-21 0.00335326)
(0.00337245 -0.00154326 -1.43671e-05 0.00337245 -1.03185e-19 0.00337245)
(0.00337245 -0.00154326 -1.43671e-05 0.00337245 6.08776e-21 0.00337245)
(0.00339023 -0.00155034 -1.46523e-05 0.00339023 -1.15471e-19 0.00339023)
(0.00339023 -0.00155034 -1.46523e-05 0.00339023 9.0642e-21 0.00339023)
(0.00340674 -0.00155691 -1.49373e-05 0.00340674 -1.28037e-19 0.00340674)
(0.00340674 -0.00155691 -1.49373e-05 0.00340674 9.71191e-21 0.00340674)
(0.0034221 -0.00156301 -1.52224e-05 0.0034221 -1.39361e-19 0.0034221)
(0.0034221 -0.00156301 -1.52224e-05 0.0034221 9.92893e-21 0.0034221)
(0.0034364 -0.00156868 -1.55081e-05 0.0034364 -1.51455e-19 0.0034364)
(0.0034364 -0.00156868 -1.55081e-05 0.0034364 1.13704e-20 0.0034364)
(0.00344975 -0.00157396 -1.57945e-05 0.00344975 -1.64377e-19 0.00344975)
(0.00344975 -0.00157396 -1.57945e-05 0.00344975 8.45308e-21 0.00344975)
(0.00346222 -0.0015789 -1.60819e-05 0.00346222 -1.781e-19 0.00346222)
(0.00346222 -0.0015789 -1.60819e-05 0.00346222 7.85003e-21 0.00346222)
(0.00347388 -0.0015835 -1.63707e-05 0.00347388 -1.9112e-19 0.00347388)
(0.00347388 -0.0015835 -1.63707e-05 0.00347388 8.15601e-21 0.00347388)
(0.00348481 -0.00158781 -1.6661e-05 0.00348481 -2.04088e-19 0.00348481)
(0.00348481 -0.00158781 -1.6661e-05 0.00348481 1.43889e-20 0.00348481)
(0.00349505 -0.00159185 -1.6953e-05 0.00349505 -2.15937e-19 0.00349505)
(0.00349505 -0.00159185 -1.6953e-05 0.00349505 1.89205e-20 0.00349505)
(0.00350467 -0.00159564 -1.7247e-05 0.00350467 -2.30322e-19 0.00350467)
(0.00350467 -0.00159564 -1.7247e-05 0.00350467 1.69669e-20 0.00350467)
(0.0035137 -0.00159919 -1.75431e-05 0.0035137 -2.4578e-19 0.0035137)
(0.0035137 -0.00159919 -1.75431e-05 0.0035137 1.17379e-20 0.0035137)
(0.00352219 -0.00160253 -1.78415e-05 0.00352219 -2.57972e-19 0.00352219)
(0.00352219 -0.00160253 -1.78415e-05 0.00352219 9.81018e-21 0.00352219)
(0.00353019 -0.00160567 -1.81423e-05 0.00353019 -2.71782e-19 0.00353019)
(0.00353019 -0.00160567 -1.81423e-05 0.00353019 1.396e-20 0.00353019)
(0.00353771 -0.00160863 -1.84457e-05 0.00353771 -2.86138e-19 0.00353771)
(0.00353771 -0.00160863 -1.84457e-05 0.00353771 1.69431e-20 0.00353771)
(0.0035448 -0.00161141 -1.87519e-05 0.0035448 -3.0026e-19 0.0035448)
(0.0035448 -0.00161141 -1.87519e-05 0.0035448 1.91442e-20 0.0035448)
(0.00355149 -0.00161403 -1.90609e-05 0.00355149 -3.14427e-19 0.00355149)
(0.00355149 -0.00161403 -1.90609e-05 0.00355149 2.16647e-20 0.00355149)
(0.00355779 -0.0016165 -1.93729e-05 0.00355779 -3.27736e-19 0.00355779)
(0.00355779 -0.0016165 -1.93729e-05 0.00355779 2.14983e-20 0.00355779)
(0.00356374 -0.00161883 -1.9688e-05 0.00356374 -3.42225e-19 0.00356374)
(0.00356374 -0.00161883 -1.9688e-05 0.00356374 2.21077e-20 0.00356374)
(0.00356936 -0.00162103 -2.00064e-05 0.00356936 -3.60457e-19 0.00356936)
(0.00356936 -0.00162103 -2.00064e-05 0.00356936 1.62262e-20 0.00356936)
(0.00357466 -0.0016231 -2.03281e-05 0.00357466 -3.77116e-19 0.00357466)
(0.00357466 -0.0016231 -2.03281e-05 0.00357466 1.53753e-20 0.00357466)
(0.00357966 -0.00162506 -2.06532e-05 0.00357966 -3.93625e-19 0.00357966)
(0.00357966 -0.00162506 -2.06532e-05 0.00357966 1.52131e-20 0.00357966)
(0.00358438 -0.00162691 -2.09819e-05 0.00358438 -4.122e-19 0.00358438)
(0.00358438 -0.00162691 -2.09819e-05 0.00358438 3.08538e-20 0.00358438)
(0.00358884 -0.00162865 -2.13143e-05 0.00358884 -4.30739e-19 0.00358884)
(0.00358884 -0.00162865 -2.13143e-05 0.00358884 3.4773e-20 0.00358884)
(0.00359305 -0.00163029 -2.16504e-05 0.00359305 -4.47395e-19 0.00359305)
(0.00359305 -0.00163029 -2.16504e-05 0.00359305 2.43819e-20 0.00359305)
(0.00359703 -0.00163185 -2.19904e-05 0.00359703 -4.62121e-19 0.00359703)
(0.00359703 -0.00163185 -2.19904e-05 0.00359703 2.07114e-20 0.00359703)
(0.00360078 -0.00163331 -2.23343e-05 0.00360078 -4.80423e-19 0.00360078)
(0.00360078 -0.00163331 -2.23343e-05 0.00360078 3.03066e-20 0.00360078)
(0.00360432 -0.00163469 -2.26823e-05 0.00360432 -4.98679e-19 0.00360432)
(0.00360432 -0.00163469 -2.26823e-05 0.00360432 4.55424e-20 0.00360432)
(0.00360765 -0.00163599 -2.30344e-05 0.00360765 -5.16452e-19 0.00360765)
(0.00360765 -0.00163599 -2.30344e-05 0.00360765 3.85033e-20 0.00360765)
(0.00361079 -0.00163721 -2.33907e-05 0.00361079 -5.38635e-19 0.00361079)
(0.00361079 -0.00163721 -2.33907e-05 0.00361079 4.35925e-20 0.00361079)
(0.00361375 -0.00163837 -2.37513e-05 0.00361375 -5.60218e-19 0.00361375)
(0.00361375 -0.00163837 -2.37513e-05 0.00361375 4.97073e-20 0.00361375)
(0.00361653 -0.00163945 -2.41163e-05 0.00361653 -5.78017e-19 0.00361653)
(0.00361653 -0.00163945 -2.41163e-05 0.00361653 5.38338e-20 0.00361653)
(0.00361914 -0.00164047 -2.44859e-05 0.00361914 -5.98781e-19 0.00361914)
(0.00361914 -0.00164047 -2.44859e-05 0.00361914 5.55833e-20 0.00361914)
(0.0036216 -0.00164142 -2.48599e-05 0.0036216 -6.20406e-19 0.0036216)
(0.0036216 -0.00164142 -2.48599e-05 0.0036216 5.51716e-20 0.0036216)
(0.0036239 -0.00164231 -2.52387e-05 0.0036239 -6.36509e-19 0.0036239)
(0.0036239 -0.00164231 -2.52387e-05 0.0036239 5.32035e-20 0.0036239)
(0.00362605 -0.00164315 -2.56222e-05 0.00362605 -6.54621e-19 0.00362605)
(0.00362605 -0.00164315 -2.56222e-05 0.00362605 5.63216e-20 0.00362605)
(0.00362805 -0.00164393 -2.60105e-05 0.00362805 -6.75951e-19 0.00362805)
(0.00362805 -0.00164393 -2.60105e-05 0.00362805 7.97587e-20 0.00362805)
(0.00362993 -0.00164466 -2.64037e-05 0.00362993 -7.05136e-19 0.00362993)
(0.00362993 -0.00164466 -2.64037e-05 0.00362993 7.46761e-20 0.00362993)
(0.00363167 -0.00164533 -2.68019e-05 0.00363167 -7.30534e-19 0.00363167)
(0.00363167 -0.00164533 -2.68019e-05 0.00363167 7.09761e-20 0.00363167)
(0.00363328 -0.00164596 -2.72051e-05 0.00363328 -7.43831e-19 0.00363328)
(0.00363328 -0.00164596 -2.72051e-05 0.00363328 6.13097e-20 0.00363328)
(0.00363477 -0.00164653 -2.76136e-05 0.00363477 -7.75281e-19 0.00363477)
(0.00363477 -0.00164653 -2.76136e-05 0.00363477 8.66537e-20 0.00363477)
(0.00363614 -0.00164706 -2.80272e-05 0.00363614 -8.13802e-19 0.00363614)
(0.00363614 -0.00164706 -2.80272e-05 0.00363614 1.1097e-19 0.00363614)
(0.0036374 -0.00164755 -2.84462e-05 0.0036374 -8.38823e-19 0.0036374)
(0.0036374 -0.00164755 -2.84462e-05 0.0036374 9.31989e-20 0.0036374)
(0.00363854 -0.00164799 -2.88706e-05 0.00363854 -8.71683e-19 0.00363854)
(0.00363854 -0.00164799 -2.88706e-05 0.00363854 9.25022e-20 0.00363854)
(0.00363958 -0.00164839 -2.93004e-05 0.00363958 -8.96221e-19 0.00363958)
(0.00363958 -0.00164839 -2.93004e-05 0.00363958 1.06648e-19 0.00363958)
(0.00364051 -0.00164875 -2.97359e-05 0.00364051 -9.41008e-19 0.00364051)
(0.00364051 -0.00164875 -2.97359e-05 0.00364051 1.30843e-19 0.00364051)
(0.00364134 -0.00164907 -3.0177e-05 0.00364134 -9.67007e-19 0.00364134)
(0.00364134 -0.00164907 -3.0177e-05 0.00364134 1.73941e-19 0.00364134)
(0.00364208 -0.00164935 -3.06238e-05 0.00364208 -9.86878e-19 0.00364208)
(0.00364208 -0.00164935 -3.06238e-05 0.00364208 1.35711e-19 0.00364208)
(0.00364271 -0.00164959 -3.10764e-05 0.00364271 -1.02357e-18 0.00364271)
(0.00364271 -0.00164959 -3.10764e-05 0.00364271 1.24823e-19 0.00364271)
(0.00364326 -0.00164979 -3.1535e-05 0.00364326 -1.04969e-18 0.00364326)
(0.00364326 -0.00164979 -3.1535e-05 0.00364326 9.14638e-20 0.00364326)
(0.00364371 -0.00164996 -3.19995e-05 0.00364371 -1.0733e-18 0.00364371)
(0.00364371 -0.00164996 -3.19995e-05 0.00364371 1.35111e-19 0.00364371)
(0.00364407 -0.00165009 -3.24701e-05 0.00364407 -1.10078e-18 0.00364407)
(0.00364407 -0.00165009 -3.24701e-05 0.00364407 1.58111e-19 0.00364407)
(0.00364434 -0.00165019 -3.29469e-05 0.00364434 -1.13444e-18 0.00364434)
(0.00364434 -0.00165019 -3.29469e-05 0.00364434 1.87048e-19 0.00364434)
(0.00364453 -0.00165025 -3.34299e-05 0.00364453 -1.16436e-18 0.00364453)
(0.00364453 -0.00165025 -3.34299e-05 0.00364453 1.57642e-19 0.00364453)
(0.00364464 -0.00165028 -3.39192e-05 0.00364464 -1.1968e-18 0.00364464)
(0.00364464 -0.00165028 -3.39192e-05 0.00364464 1.20928e-19 0.00364464)
(0.00364466 -0.00165028 -3.44149e-05 0.00364466 -1.23255e-18 0.00364466)
(0.00364466 -0.00165028 -3.44149e-05 0.00364466 1.6915e-19 0.00364466)
(0.0036446 -0.00165025 -3.49171e-05 0.0036446 -1.25808e-18 0.0036446)
(0.0036446 -0.00165025 -3.49171e-05 0.0036446 1.89512e-19 0.0036446)
(0.00364446 -0.00165018 -3.54259e-05 0.00364446 -1.29544e-18 0.00364446)
(0.00364446 -0.00165018 -3.54259e-05 0.00364446 1.7848e-19 0.00364446)
(0.00364425 -0.00165008 -3.59414e-05 0.00364425 -1.32326e-18 0.00364425)
(0.00364425 -0.00165008 -3.59414e-05 0.00364425 2.03571e-19 0.00364425)
(0.00364396 -0.00164996 -3.64637e-05 0.00364396 -1.35195e-18 0.00364396)
(0.00364396 -0.00164996 -3.64637e-05 0.00364396 2.45425e-19 0.00364396)
(0.00364359 -0.0016498 -3.69927e-05 0.00364359 -1.39308e-18 0.00364359)
(0.00364359 -0.0016498 -3.69927e-05 0.00364359 2.16522e-19 0.00364359)
(0.00364314 -0.00164961 -3.75288e-05 0.00364314 -1.42676e-18 0.00364314)
(0.00364314 -0.00164961 -3.75288e-05 0.00364314 1.3066e-19 0.00364314)
(0.00364263 -0.00164939 -3.80718e-05 0.00364263 -1.44527e-18 0.00364263)
(0.00364263 -0.00164939 -3.80718e-05 0.00364263 1.7105e-19 0.00364263)
(0.00364204 -0.00164915 -3.86219e-05 0.00364204 -1.49386e-18 0.00364204)
(0.00364204 -0.00164915 -3.86219e-05 0.00364204 3.18689e-19 0.00364204)
(0.00364138 -0.00164887 -3.91793e-05 0.00364138 -1.56946e-18 0.00364138)
(0.00364138 -0.00164887 -3.91793e-05 0.00364138 3.78876e-19 0.00364138)
(0.00364064 -0.00164857 -3.97439e-05 0.00364064 -1.60582e-18 0.00364064)
(0.00364064 -0.00164857 -3.97439e-05 0.00364064 3.11634e-19 0.00364064)
(0.00363984 -0.00164823 -4.0316e-05 0.00363984 -1.64041e-18 0.00363984)
(0.00363984 -0.00164823 -4.0316e-05 0.00363984 2.6691e-19 0.00363984)
(0.00363897 -0.00164787 -4.08955e-05 0.00363897 -1.64791e-18 0.00363897)
(0.00363897 -0.00164787 -4.08955e-05 0.00363897 2.79761e-19 0.00363897)
(0.00363803 -0.00164748 -4.14825e-05 0.00363803 -1.70074e-18 0.00363803)
(0.00363803 -0.00164748 -4.14825e-05 0.00363803 3.01651e-19 0.00363803)
(0.00363702 -0.00164706 -4.20772e-05 0.00363702 -1.77718e-18 0.00363702)
(0.00363702 -0.00164706 -4.20772e-05 0.00363702 2.41273e-19 0.00363702)
(0.00363594 -0.00164662 -4.26797e-05 0.00363594 -1.82909e-18 0.00363594)
(0.00363594 -0.00164662 -4.26797e-05 0.00363594 3.30072e-19 0.00363594)
(0.00363479 -0.00164614 -4.329e-05 0.00363479 -1.89312e-18 0.00363479)
(0.00363479 -0.00164614 -4.329e-05 0.00363479 3.44586e-19 0.00363479)
(0.00363358 -0.00164564 -4.39083e-05 0.00363358 -1.92761e-18 0.00363358)
(0.00363358 -0.00164564 -4.39083e-05 0.00363358 3.58078e-19 0.00363358)
(0.0036323 -0.00164511 -4.45346e-05 0.0036323 -1.97019e-18 0.0036323)
(0.0036323 -0.00164511 -4.45346e-05 0.0036323 4.11138e-19 0.0036323)
(0.00363095 -0.00164456 -4.5169e-05 0.00363095 -2.04693e-18 0.00363095)
(0.00363095 -0.00164456 -4.5169e-05 0.00363095 3.95304e-19 0.00363095)
(0.00362954 -0.00164397 -4.58116e-05 0.00362954 -2.09531e-18 0.00362954)
(0.00362954 -0.00164397 -4.58116e-05 0.00362954 3.98585e-19 0.00362954)
(0.00362806 -0.00164336 -4.64625e-05 0.00362806 -2.14413e-18 0.00362806)
(0.00362806 -0.00164336 -4.64625e-05 0.00362806 4.48597e-19 0.00362806)
(0.00362651 -0.00164272 -4.71219e-05 0.00362651 -2.19556e-18 0.00362651)
(0.00362651 -0.00164272 -4.71219e-05 0.00362651 5.57969e-19 0.00362651)
(0.0036249 -0.00164206 -4.77897e-05 0.0036249 -2.23082e-18 0.0036249)
(0.0036249 -0.00164206 -4.77897e-05 0.0036249 4.89463e-19 0.0036249)
(0.00362322 -0.00164137 -4.84662e-05 0.00362322 -2.28673e-18 0.00362322)
(0.00362322 -0.00164137 -4.84662e-05 0.00362322 4.9424e-19 0.00362322)
(0.00362148 -0.00164065 -4.91513e-05 0.00362148 -2.33682e-18 0.00362148)
(0.00362148 -0.00164065 -4.91513e-05 0.00362148 5.49995e-19 0.00362148)
(0.00361967 -0.0016399 -4.98453e-05 0.00361967 -2.3894e-18 0.00361967)
(0.00361967 -0.0016399 -4.98453e-05 0.00361967 5.90604e-19 0.00361967)
(0.0036178 -0.00163912 -5.05481e-05 0.0036178 -2.45338e-18 0.0036178)
(0.0036178 -0.00163912 -5.05481e-05 0.0036178 5.8349e-19 0.0036178)
(0.00361586 -0.00163832 -5.12599e-05 0.00361586 -2.54028e-18 0.00361586)
(0.00361586 -0.00163832 -5.12599e-05 0.00361586 6.10541e-19 0.00361586)
(0.00361385 -0.00163749 -5.19809e-05 0.00361385 -2.65794e-18 0.00361385)
(0.00361385 -0.00163749 -5.19809e-05 0.00361385 6.56523e-19 0.00361385)
(0.00361178 -0.00163663 -5.2711e-05 0.00361178 -2.69907e-18 0.00361178)
(0.00361178 -0.00163663 -5.2711e-05 0.00361178 7.49567e-19 0.00361178)
(0.00360964 -0.00163574 -5.34504e-05 0.00360964 -2.78627e-18 0.00360964)
(0.00360964 -0.00163574 -5.34504e-05 0.00360964 7.92425e-19 0.00360964)
(0.00360744 -0.00163483 -5.41991e-05 0.00360744 -2.75189e-18 0.00360744)
(0.00360744 -0.00163483 -5.41991e-05 0.00360744 7.65826e-19 0.00360744)
(0.00360517 -0.00163388 -5.49574e-05 0.00360517 -2.88454e-18 0.00360517)
(0.00360517 -0.00163388 -5.49574e-05 0.00360517 6.6789e-19 0.00360517)
(0.00360283 -0.00163291 -5.57252e-05 0.00360283 -2.90165e-18 0.00360283)
(0.00360283 -0.00163291 -5.57252e-05 0.00360283 6.61113e-19 0.00360283)
(0.00360043 -0.00163191 -5.65028e-05 0.00360043 -2.96953e-18 0.00360043)
(0.00360043 -0.00163191 -5.65028e-05 0.00360043 6.09315e-19 0.00360043)
(0.00359796 -0.00163088 -5.72901e-05 0.00359796 -3.10154e-18 0.00359796)
(0.00359796 -0.00163088 -5.72901e-05 0.00359796 6.16433e-19 0.00359796)
(0.00359542 -0.00162982 -5.80872e-05 0.00359542 -3.17222e-18 0.00359542)
(0.00359542 -0.00162982 -5.80872e-05 0.00359542 8.60792e-19 0.00359542)
(0.00359282 -0.00162874 -5.88944e-05 0.00359282 -3.1917e-18 0.00359282)
(0.00359282 -0.00162874 -5.88944e-05 0.00359282 9.87664e-19 0.00359282)
(0.00359015 -0.00162762 -5.97116e-05 0.00359015 -3.23075e-18 0.00359015)
(0.00359015 -0.00162762 -5.97116e-05 0.00359015 7.92372e-19 0.00359015)
(0.00358741 -0.00162648 -6.05391e-05 0.00358741 -3.31683e-18 0.00358741)
(0.00358741 -0.00162648 -6.05391e-05 0.00358741 6.55113e-19 0.00358741)
(0.0035846 -0.0016253 -6.13768e-05 0.0035846 -3.49323e-18 0.0035846)
(0.0035846 -0.0016253 -6.13768e-05 0.0035846 6.42769e-19 0.0035846)
(0.00358172 -0.0016241 -6.22248e-05 0.00358172 -3.57547e-18 0.00358172)
(0.00358172 -0.0016241 -6.22248e-05 0.00358172 9.88591e-19 0.00358172)
(0.00357878 -0.00162286 -6.30834e-05 0.00357878 -3.59767e-18 0.00357878)
(0.00357878 -0.00162286 -6.30834e-05 0.00357878 1.21853e-18 0.00357878)
(0.00357576 -0.0016216 -6.39525e-05 0.00357576 -3.71083e-18 0.00357576)
(0.00357576 -0.0016216 -6.39525e-05 0.00357576 9.8678e-19 0.00357576)
(0.00357268 -0.0016203 -6.48323e-05 0.00357268 -3.8185e-18 0.00357268)
(0.00357268 -0.0016203 -6.48323e-05 0.00357268 9.48304e-19 0.00357268)
(0.00356952 -0.00161897 -6.57228e-05 0.00356952 -3.83016e-18 0.00356952)
(0.00356952 -0.00161897 -6.57228e-05 0.00356952 1.17713e-18 0.00356952)
(0.0035663 -0.00161761 -6.66243e-05 0.0035663 -3.96363e-18 0.0035663)
(0.0035663 -0.00161761 -6.66243e-05 0.0035663 1.14671e-18 0.0035663)
(0.003563 -0.00161622 -6.75367e-05 0.003563 -3.99435e-18 0.003563)
(0.003563 -0.00161622 -6.75367e-05 0.003563 1.06773e-18 0.003563)
(0.00355963 -0.0016148 -6.84601e-05 0.00355963 -4.28749e-18 0.00355963)
(0.00355963 -0.0016148 -6.84601e-05 0.00355963 1.53126e-18 0.00355963)
(0.00355619 -0.00161335 -6.93947e-05 0.00355619 -2.97912e-18 0.00355619)
(0.00355619 -0.00161335 -6.93947e-05 0.00355619 1.26831e-18 0.00355619)
(0.00355267 -0.00161186 -7.03406e-05 0.00355267 -1.4113e-18 0.00355267)
(0.00355267 -0.00161186 -7.03406e-05 0.00355267 1.32189e-18 0.00355267)
(0.00354908 -0.00161034 -7.12978e-05 0.00354908 -9.76603e-19 0.00354908)
(0.00354908 -0.00161034 -7.12978e-05 0.00354908 1.12746e-18 0.00354908)
(0.00354542 -0.00160879 -7.22665e-05 0.00354542 -8.23661e-19 0.00354542)
(0.00354542 -0.00160879 -7.22665e-05 0.00354542 1.66076e-18 0.00354542)
(0.00354169 -0.00160721 -7.32467e-05 0.00354169 -6.82397e-19 0.00354169)
(0.00354169 -0.00160721 -7.32467e-05 0.00354169 1.51638e-18 0.00354169)
(0.00353787 -0.00160559 -7.42385e-05 0.00353787 -8.59693e-19 0.00353787)
(0.00353787 -0.00160559 -7.42385e-05 0.00353787 1.3939e-18 0.00353787)
(0.00353399 -0.00160394 -7.5242e-05 0.00353399 -9.64592e-19 0.00353399)
(0.00353399 -0.00160394 -7.5242e-05 0.00353399 1.72177e-18 0.00353399)
(0.00353002 -0.00160225 -7.62574e-05 0.00353002 -7.97182e-19 0.00353002)
(0.00353002 -0.00160225 -7.62574e-05 0.00353002 2.00236e-18 0.00353002)
(0.00352598 -0.00160053 -7.72847e-05 0.00352598 -7.00878e-19 0.00352598)
(0.00352598 -0.00160053 -7.72847e-05 0.00352598 1.96449e-18 0.00352598)
(0.00352186 -0.00159877 -7.83239e-05 0.00352186 -6.80842e-19 0.00352186)
(0.00352186 -0.00159877 -7.83239e-05 0.00352186 1.92801e-18 0.00352186)
(0.00351766 -0.00159698 -7.93752e-05 0.00351766 -8.01045e-19 0.00351766)
(0.00351766 -0.00159698 -7.93752e-05 0.00351766 2.02118e-18 0.00351766)
(0.00351339 -0.00159515 -8.04387e-05 0.00351339 -7.36701e-19 0.00351339)
(0.00351339 -0.00159515 -8.04387e-05 0.00351339 2.07953e-18 0.00351339)
(0.00350903 -0.00159328 -8.15145e-05 0.00350903 -9.37202e-19 0.00350903)
(0.00350903 -0.00159328 -8.15145e-05 0.00350903 1.82644e-18 0.00350903)
(0.00350459 -0.00159138 -8.26025e-05 0.00350459 -9.80285e-19 0.00350459)
(0.00350459 -0.00159138 -8.26025e-05 0.00350459 2.398e-18 0.00350459)
(0.00350008 -0.00158944 -8.3703e-05 0.00350008 -1.01836e-18 0.00350008)
(0.00350008 -0.00158944 -8.3703e-05 0.00350008 2.89258e-18 0.00350008)
(0.00349548 -0.00158746 -8.4816e-05 0.00349548 -1.14436e-18 0.00349548)
(0.00349548 -0.00158746 -8.4816e-05 0.00349548 3.09678e-18 0.00349548)
(0.00349079 -0.00158545 -8.59415e-05 0.00349079 -9.60825e-19 0.00349079)
(0.00349079 -0.00158545 -8.59415e-05 0.00349079 2.77778e-18 0.00349079)
(0.00348602 -0.00158339 -8.70797e-05 0.00348602 -1.23519e-18 0.00348602)
(0.00348602 -0.00158339 -8.70797e-05 0.00348602 2.17925e-18 0.00348602)
(0.00348117 -0.0015813 -8.82306e-05 0.00348117 -1.89871e-18 0.00348117)
(0.00348117 -0.0015813 -8.82306e-05 0.00348117 2.44128e-18 0.00348117)
(0.00347624 -0.00157917 -8.93943e-05 0.00347624 -1.75818e-18 0.00347624)
(0.00347624 -0.00157917 -8.93943e-05 0.00347624 3.51356e-18 0.00347624)
(0.00347121 -0.001577 -9.05708e-05 0.00347121 -1.65776e-18 0.00347121)
(0.00347121 -0.001577 -9.05708e-05 0.00347121 3.87378e-18 0.00347121)
(0.0034661 -0.00157478 -9.17603e-05 0.0034661 -1.41056e-18 0.0034661)
(0.0034661 -0.00157478 -9.17603e-05 0.0034661 3.16104e-18 0.0034661)
(0.0034609 -0.00157253 -9.29627e-05 0.0034609 -1.52261e-18 0.0034609)
(0.0034609 -0.00157253 -9.29627e-05 0.0034609 2.83906e-18 0.0034609)
(0.00345562 -0.00157024 -9.41782e-05 0.00345562 -1.19569e-18 0.00345562)
(0.00345562 -0.00157024 -9.41782e-05 0.00345562 3.32262e-18 0.00345562)
(0.00345024 -0.0015679 -9.54068e-05 0.00345024 -9.32071e-19 0.00345024)
(0.00345024 -0.0015679 -9.54068e-05 0.00345024 3.94683e-18 0.00345024)
(0.00344477 -0.00156552 -9.66486e-05 0.00344477 -8.14232e-19 0.00344477)
(0.00344477 -0.00156552 -9.66486e-05 0.00344477 4.08977e-18 0.00344477)
(0.00343921 -0.0015631 -9.79036e-05 0.00343921 -4.9414e-19 0.00343921)
(0.00343921 -0.0015631 -9.79036e-05 0.00343921 3.91514e-18 0.00343921)
(0.00343356 -0.00156063 -9.91718e-05 0.00343356 -4.87845e-19 0.00343356)
(0.00343356 -0.00156063 -9.91718e-05 0.00343356 4.02621e-18 0.00343356)
(0.00342781 -0.00155812 -0.000100453 0.00342781 -1.29689e-19 0.00342781)
(0.00342781 -0.00155812 -0.000100453 0.00342781 4.32229e-18 0.00342781)
(0.00342197 -0.00155557 -0.000101748 0.00342197 9.43457e-20 0.00342197)
(0.00342197 -0.00155557 -0.000101748 0.00342197 4.41124e-18 0.00342197)
(0.00341604 -0.00155297 -0.000103056 0.00341604 -9.98134e-20 0.00341604)
(0.00341604 -0.00155297 -0.000103056 0.00341604 4.06773e-18 0.00341604)
(0.00341001 -0.00155032 -0.000104378 0.00341001 1.91358e-19 0.00341001)
(0.00341001 -0.00155032 -0.000104378 0.00341001 4.59775e-18 0.00341001)
(0.00340388 -0.00154763 -0.000105713 0.00340388 4.55587e-19 0.00340388)
(0.00340388 -0.00154763 -0.000105713 0.00340388 5.20002e-18 0.00340388)
(0.00339765 -0.00154489 -0.000107062 0.00339765 9.3079e-19 0.00339765)
(0.00339765 -0.00154489 -0.000107062 0.00339765 4.96977e-18 0.00339765)
(0.00339132 -0.00154211 -0.000108424 0.00339132 9.99584e-19 0.00339132)
(0.00339132 -0.00154211 -0.000108424 0.00339132 5.33912e-18 0.00339132)
(0.00338489 -0.00153927 -0.0001098 0.00338489 1.14752e-18 0.00338489)
(0.00338489 -0.00153927 -0.0001098 0.00338489 5.65449e-18 0.00338489)
(0.00337836 -0.00153639 -0.000111189 0.00337836 1.78017e-18 0.00337836)
(0.00337836 -0.00153639 -0.000111189 0.00337836 5.43092e-18 0.00337836)
(0.00337173 -0.00153346 -0.000112591 0.00337173 2.27516e-18 0.00337173)
(0.00337173 -0.00153346 -0.000112591 0.00337173 5.43678e-18 0.00337173)
(0.00336499 -0.00153048 -0.000114007 0.00336499 2.13993e-18 0.00336499)
(0.00336499 -0.00153048 -0.000114007 0.00336499 4.94792e-18 0.00336499)
(0.00335815 -0.00152744 -0.000115437 0.00335815 1.24756e-18 0.00335815)
(0.00335815 -0.00152744 -0.000115437 0.00335815 5.53226e-18 0.00335815)
(0.0033512 -0.00152436 -0.00011688 0.0033512 1.1196e-18 0.0033512)
(0.0033512 -0.00152436 -0.00011688 0.0033512 6.89008e-18 0.0033512)
(0.00334414 -0.00152122 -0.000118337 0.00334414 2.11377e-18 0.00334414)
(0.00334414 -0.00152122 -0.000118337 0.00334414 6.91666e-18 0.00334414)
(0.00333697 -0.00151804 -0.000119807 0.00333697 1.83264e-18 0.00333697)
(0.00333697 -0.00151804 -0.000119807 0.00333697 6.73138e-18 0.00333697)
(0.0033297 -0.00151479 -0.00012129 0.0033297 1.54462e-18 0.0033297)
(0.0033297 -0.00151479 -0.00012129 0.0033297 6.59205e-18 0.0033297)
(0.00332231 -0.0015115 -0.000122787 0.00332231 1.5663e-18 0.00332231)
(0.00332231 -0.0015115 -0.000122787 0.00332231 7.13355e-18 0.00332231)
(0.00331481 -0.00150815 -0.000124297 0.00331481 1.69569e-18 0.00331481)
(0.00331481 -0.00150815 -0.000124297 0.00331481 7.88703e-18 0.00331481)
(0.0033072 -0.00150474 -0.000125821 0.0033072 2.06611e-18 0.0033072)
(0.0033072 -0.00150474 -0.000125821 0.0033072 8.41411e-18 0.0033072)
(0.00329947 -0.00150128 -0.000127357 0.00329947 2.30118e-18 0.00329947)
(0.00329947 -0.00150128 -0.000127357 0.00329947 8.15426e-18 0.00329947)
(0.00329163 -0.00149776 -0.000128907 0.00329163 2.29242e-18 0.00329163)
(0.00329163 -0.00149776 -0.000128907 0.00329163 8.2778e-18 0.00329163)
(0.00328366 -0.00149418 -0.00013047 0.00328366 2.28876e-18 0.00328366)
(0.00328366 -0.00149418 -0.00013047 0.00328366 8.41788e-18 0.00328366)
(0.00327558 -0.00149054 -0.000132046 0.00327558 2.2105e-18 0.00327558)
(0.00327558 -0.00149054 -0.000132046 0.00327558 8.66211e-18 0.00327558)
(0.00326738 -0.00148685 -0.000133634 0.00326738 2.52846e-18 0.00326738)
(0.00326738 -0.00148685 -0.000133634 0.00326738 9.75703e-18 0.00326738)
(0.00325906 -0.00148309 -0.000135236 0.00325906 2.61068e-18 0.00325906)
(0.00325906 -0.00148309 -0.000135236 0.00325906 9.30577e-18 0.00325906)
(0.00325061 -0.00147928 -0.00013685 0.00325061 2.74626e-18 0.00325061)
(0.00325061 -0.00147928 -0.00013685 0.00325061 8.40864e-18 0.00325061)
(0.00324204 -0.0014754 -0.000138476 0.00324204 2.42236e-18 0.00324204)
(0.00324204 -0.0014754 -0.000138476 0.00324204 9.77222e-18 0.00324204)
(0.00323335 -0.00147146 -0.000140115 0.00323335 3.04493e-18 0.00323335)
(0.00323335 -0.00147146 -0.000140115 0.00323335 1.19329e-17 0.00323335)
(0.00322452 -0.00146745 -0.000141766 0.00322452 3.65678e-18 0.00322452)
(0.00322452 -0.00146745 -0.000141766 0.00322452 1.10248e-17 0.00322452)
(0.00321557 -0.00146338 -0.00014343 0.00321557 1.36607e-18 0.00321557)
(0.00321557 -0.00146338 -0.00014343 0.00321557 8.69597e-18 0.00321557)
(0.00320649 -0.00145925 -0.000145105 0.00320649 1.27728e-18 0.00320649)
(0.00320649 -0.00145925 -0.000145105 0.00320649 1.13479e-17 0.00320649)
(0.00319727 -0.00145505 -0.000146791 0.00319727 2.42682e-18 0.00319727)
(0.00319727 -0.00145505 -0.000146791 0.00319727 1.22664e-17 0.00319727)
(0.00318793 -0.00145079 -0.00014849 0.00318793 2.33627e-18 0.00318793)
(0.00318793 -0.00145079 -0.00014849 0.00318793 1.2204e-17 0.00318793)
(0.00317844 -0.00144645 -0.000150199 0.00317844 2.11161e-19 0.00317844)
(0.00317844 -0.00144645 -0.000150199 0.00317844 1.10147e-17 0.00317844)
(0.00316883 -0.00144205 -0.000151919 0.00316883 -9.67745e-19 0.00316883)
(0.00316883 -0.00144205 -0.000151919 0.00316883 1.38162e-17 0.00316883)