/*--------------------------------*- C++ -*----------------------------------*\
| =========                 |                                                 |
| \\      /  F ield         | OpenFOAM: The Open Source CFD Toolbox           |
|  \\    /   O peration     | Version:  2012                                  |
|   \\  /    A nd           | Website:  www.openfoam.com                      |
|    \\/     M anipulation  |                                                 |
\*---------------------------------------------------------------------------*/
FoamFile
{
    version     2.0;
    format      ascii;
    class       volScalarField;
    location    "12100";
    object      omega;
}
// * * * * * * * * * * * * * * * * * * * * * * * * * * * * * * * * * * * * * //

dimensions      [0 0 -1 0 0 0 0];


internalField   nonuniform List<scalar> 
2560
(
1.52416e+06
1.52416e+06
265010
265010
89252.1
89252.1
41343.8
41343.8
23327.2
23327.2
15445.3
15445.3
11513.7
11513.7
9276.76
9276.76
7860.37
7860.37
6889.33
6889.32
6183.46
6183.46
5647.27
5647.27
5225.92
5225.92
4885.81
4885.81
4605.26
4605.26
4369.65
4369.65
4168.78
4168.78
3995.28
3995.28
3843.73
3843.73
3710.02
3710.02
3591
3591
3484.18
3484.18
3387.58
3387.58
3299.61
3299.61
3218.97
3218.97
3144.56
3144.56
3075.49
3075.49
3010.99
3010.99
2950.41
2950.41
2893.19
2893.19
2838.84
2838.84
2786.94
2786.94
2737.11
2737.11
2689.04
2689.04
2642.43
2642.43
2597.03
2597.03
2552.61
2552.61
2508.96
2508.96
2465.92
2465.92
2423.31
2423.31
2381.02
2381.02
2338.9
2338.9
2296.87
2296.87
2254.84
2254.84
2212.74
2212.74
2170.51
2170.51
2128.11
2128.11
2085.52
2085.52
2042.73
2042.73
1999.74
1999.74
1956.57
1956.57
1913.26
1913.26
1869.84
1869.84
1826.37
1826.37
1782.92
1782.92
1739.58
1739.58
1696.43
1696.43
1653.58
1653.58
1611.13
1611.13
1569.19
1569.19
1527.89
1527.89
1487.35
1487.35
1447.68
1447.68
1409.02
1409.02
1371.47
1371.47
1335.14
1335.14
1300.13
1300.13
1266.53
1266.53
1234.41
1234.41
1203.82
1203.82
1174.79
1174.79
1147.34
1147.34
1121.47
1121.47
1097.15
1097.15
1074.34
1074.34
1052.97
1052.97
1032.98
1032.98
1014.27
1014.27
996.746
996.746
980.305
980.305
964.837
964.837
950.233
950.233
936.385
936.385
923.186
923.186
910.538
910.538
898.346
898.346
886.523
886.523
874.992
874.992
863.684
863.684
852.536
852.536
841.495
841.495
830.518
830.518
819.567
819.567
808.612
808.612
797.63
797.63
786.603
786.603
775.519
775.519
764.37
764.37
753.152
753.152
741.865
741.865
730.512
730.512
719.098
719.098
707.629
707.629
696.113
696.113
684.56
684.56
672.98
672.98
661.383
661.383
649.781
649.781
638.185
638.185
626.605
626.605
615.053
615.053
603.539
603.539
592.074
592.074
580.666
580.666
569.325
569.325
558.06
558.06
546.879
546.879
535.79
535.79
524.799
524.799
513.914
513.914
503.139
503.139
492.481
492.481
481.944
481.944
471.533
471.533
461.251
461.251
451.101
451.101
441.088
441.088
431.212
431.212
421.477
421.477
411.884
411.884
402.435
402.435
393.131
393.131
383.973
383.973
374.961
374.961
366.096
366.096
357.379
357.379
348.81
348.81
340.387
340.387
332.112
332.112
323.984
323.984
316.002
316.002
308.166
308.166
300.475
300.475
292.928
292.928
285.525
285.525
278.264
278.264
271.144
271.144
264.165
264.165
257.325
257.325
250.624
250.624
244.06
244.06
237.632
237.632
231.339
231.339
225.181
225.181
219.155
219.155
213.262
213.262
207.499
207.499
201.866
201.866
196.362
196.362
190.986
190.986
185.736
185.736
180.61
180.61
175.609
175.609
170.729
170.729
165.969
165.969
161.327
161.327
156.802
156.802
152.39
152.39
148.09
148.09
143.899
143.899
139.815
139.815
135.836
135.836
131.958
131.958
128.18
128.18
124.5
124.5
120.916
120.916
117.426
117.426
114.028
114.028
110.721
110.721
107.502
107.502
104.371
104.371
101.325
101.325
98.3637
98.3637
95.4847
95.4847
92.6865
92.6865
89.9675
89.9675
87.326
87.326
84.7603
84.7603
82.2687
82.2687
79.8496
79.8496
77.5015
77.5015
75.2229
75.2229
73.0126
73.0125
70.8692
70.8691
68.7915
68.7915
66.7786
66.7786
64.8294
64.8293
62.9427
62.9427
61.1178
61.1178
59.3537
59.3536
57.6493
57.6493
56.0036
56.0036
54.4157
54.4157
52.8843
52.8843
51.4081
51.4081
49.9857
49.9857
48.6157
48.6157
47.2964
47.2964
46.0264
46.0263
44.8038
44.8038
43.6273
43.6273
42.4954
42.4954
41.4065
41.4065
40.3591
40.3591
39.3515
39.3515
38.3821
38.3821
37.449
37.449
36.5501
36.5501
35.6835
35.6835
34.8468
34.8468
34.0377
34.0377
33.254
33.254
32.4937
32.4936
31.755
31.755
31.0367
31.0367
30.3378
30.3378
29.6576
29.6576
28.9955
28.9955
28.3506
28.3506
27.722
27.722
27.1082
27.1082
26.508
26.508
25.92
25.92
25.3434
25.3434
24.7773
24.7773
24.2212
24.2212
23.6748
23.6748
23.1381
23.1381
22.6113
22.6113
22.095
22.095
21.5899
21.5899
21.0968
21.0967
20.6157
20.6157
20.1467
20.1467
19.689
19.689
19.2414
19.2414
18.8022
18.8022
18.3694
18.3694
17.9405
17.9404
17.5133
17.5133
17.0867
17.0867
16.6603
16.6603
16.2353
16.2353
15.8136
15.8136
15.3976
15.3976
14.9896
14.9895
14.5913
14.5913
14.2034
14.2034
13.826
13.8259
13.4584
13.4584
13.1008
13.1007
12.7535
12.7535
12.4178
12.4178
12.0949
12.0949
11.7858
11.7858
11.4911
11.4911
11.211
11.211
10.9454
10.9454
10.694
10.694
10.4568
10.4568
10.2335
10.2335
10.0243
10.0242
9.82881
9.8288
9.64689
9.64689
9.47781
9.47781
9.32043
9.32044
9.17323
9.17324
9.03424
9.03427
8.90115
8.90119
8.7716
8.77166
8.64354
8.64363
8.51515
8.51525
8.38433
8.38444
8.24867
8.24875
8.10713
8.10713
7.95859
7.9585
7.8022
7.80207
7.63818
7.63805
7.46885
7.46874
7.29758
7.29749
7.12866
7.12859
6.96589
6.96584
6.8115
6.81146
6.66568
6.66564
6.52835
6.52832
6.39958
6.39956
6.27943
6.27941
6.16783
6.16782
6.06485
6.06483
5.9706
5.97059
5.88512
5.88512
5.80782
5.80783
5.73775
5.73778
5.67375
5.6738
5.61437
5.61446
5.55726
5.55738
5.49907
5.49923
5.43672
5.43688
5.36936
5.36944
5.29968
5.29964
5.23029
5.2302
5.16277
5.16267
5.09815
5.09808
5.03797
5.03793
4.98403
4.98401
4.93783
4.93783
4.9001
4.90011
4.87098
4.871
4.85067
4.8507
4.84
4.84003
1.52416e+06
1.52416e+06
265010
265010
89252.1
89252.1
41343.8
41343.8
23327.2
23327.2
15445.3
15445.3
11513.7
11513.7
9276.76
9276.76
7860.37
7860.37
6889.32
6889.32
6183.45
6183.45
5647.26
5647.26
5225.92
5225.92
4885.81
4885.81
4605.26
4605.26
4369.65
4369.65
4168.78
4168.78
3995.28
3995.28
3843.73
3843.73
3710.02
3710.02
3591
3591
3484.18
3484.18
3387.58
3387.58
3299.61
3299.61
3218.97
3218.97
3144.56
3144.56
3075.49
3075.49
3010.99
3010.99
2950.41
2950.41
2893.19
2893.19
2838.84
2838.84
2786.94
2786.94
2737.11
2737.11
2689.04
2689.04
2642.43
2642.43
2597.03
2597.03
2552.61
2552.61
2508.96
2508.96
2465.92
2465.92
2423.31
2423.31
2381.02
2381.02
2338.9
2338.9
2296.87
2296.87
2254.84
2254.84
2212.74
2212.74
2170.51
2170.51
2128.11
2128.11
2085.52
2085.52
2042.73
2042.73
1999.74
1999.74
1956.57
1956.57
1913.26
1913.26
1869.84
1869.84
1826.37
1826.37
1782.92
1782.92
1739.58
1739.58
1696.43
1696.43
1653.58
1653.58
1611.13
1611.13
1569.19
1569.19
1527.89
1527.89
1487.35
1487.35
1447.68
1447.68
1409.02
1409.02
1371.47
1371.47
1335.14
1335.14
1300.13
1300.13
1266.53
1266.53
1234.41
1234.41
1203.82
1203.82
1174.79
1174.79
1147.34
1147.34
1121.47
1121.47
1097.15
1097.15
1074.34
1074.34
1052.97
1052.97
1032.98
1032.98
1014.27
1014.27
996.746
996.746
980.305
980.305
964.837
964.837
950.233
950.233
936.385
936.385
923.186
923.186
910.538
910.538
898.345
898.345
886.523
886.523
874.992
874.992
863.684
863.684
852.536
852.536
841.495
841.495
830.518
830.518
819.567
819.567
808.612
808.612
797.63
797.63
786.603
786.603
775.519
775.519
764.369
764.369
753.152
753.152
741.865
741.865
730.512
730.512
719.098
719.098
707.629
707.629
696.113
696.113
684.56
684.56
672.98
672.98
661.383
661.383
649.781
649.781
638.185
638.185
626.605
626.605
615.053
615.053
603.539
603.539
592.073
592.073
580.666
580.666
569.325
569.325
558.06
558.06
546.879
546.879
535.79
535.79
524.799
524.799
513.914
513.914
503.139
503.139
492.481
492.481
481.944
481.944
471.533
471.533
461.251
461.251
451.101
451.101
441.088
441.088
431.212
431.212
421.477
421.477
411.884
411.884
402.435
402.435
393.131
393.131
383.973
383.973
374.961
374.961
366.096
366.096
357.379
357.379
348.809
348.809
340.387
340.387
332.112
332.112
323.984
323.984
316.002
316.002
308.166
308.166
300.475
300.475
292.928
292.928
285.525
285.525
278.264
278.264
271.144
271.144
264.165
264.165
257.325
257.325
250.624
250.624
244.06
244.06
237.632
237.632
231.339
231.339
225.181
225.181
219.155
219.155
213.262
213.262
207.499
207.499
201.866
201.866
196.362
196.362
190.986
190.986
185.735
185.735
180.61
180.61
175.608
175.608
170.729
170.729
165.969
165.969
161.327
161.327
156.802
156.802
152.39
152.39
148.09
148.09
143.899
143.899
139.815
139.815
135.835
135.835
131.958
131.958
128.18
128.18
124.5
124.5
120.916
120.916
117.426
117.426
114.028
114.028
110.721
110.721
107.502
107.502
104.371
104.371
101.325
101.325
98.3636
98.3636
95.4846
95.4846
92.6865
92.6865
89.9675
89.9675
87.3259
87.3259
84.7602
84.7602
82.2686
82.2686
79.8495
79.8495
77.5014
77.5014
75.2228
75.2229
73.0125
73.0125
70.8691
70.8691
68.7915
68.7915
66.7785
66.7785
64.8293
64.8293
62.9426
62.9426
61.1177
61.1177
59.3535
59.3535
57.6491
57.6492
56.0035
56.0035
54.4156
54.4156
52.8841
52.8842
51.4079
51.4079
49.9856
49.9856
48.6155
48.6156
47.2963
47.2963
46.0262
46.0262
44.8036
44.8037
43.6271
43.6272
42.4952
42.4952
41.4063
41.4063
40.3588
40.3589
39.3513
39.3513
38.3819
38.3819
37.4487
37.4488
36.5499
36.5499
35.6832
35.6832
34.8465
34.8465
34.0374
34.0374
33.2537
33.2537
32.4934
32.4934
31.7547
31.7547
31.0364
31.0364
30.3375
30.3375
29.6573
29.6574
28.9952
28.9953
28.3504
28.3504
27.7217
27.7218
27.108
27.108
26.5077
26.5077
25.9198
25.9198
25.3432
25.3432
24.7771
24.7771
24.221
24.221
23.6746
23.6746
23.1379
23.1379
22.6111
22.6111
22.0948
22.0948
21.5898
21.5898
21.0966
21.0966
20.6156
20.6156
20.1466
20.1466
19.6888
19.6889
19.2413
19.2413
18.8021
18.8021
18.3693
18.3693
17.9404
17.9404
17.5133
17.5133
17.0866
17.0867
16.6603
16.6603
16.2353
16.2354
15.8136
15.8137
15.3976
15.3976
14.9896
14.9896
14.5913
14.5914
14.2035
14.2035
13.826
13.826
13.4585
13.4585
13.1008
13.1008
12.7536
12.7536
12.4178
12.4179
12.0949
12.095
11.7858
11.7858
11.4911
11.4911
11.211
11.211
10.9454
10.9454
10.694
10.694
10.4567
10.4568
10.2335
10.2335
10.0242
10.0242
9.8287
9.82871
9.64675
9.64676
9.47764
9.47764
9.32025
9.32024
9.17303
9.17301
9.03403
9.034
8.90094
8.9009
8.77141
8.77135
8.64339
8.64331
8.51504
8.51494
8.38427
8.38416
8.24863
8.24854
8.10706
8.10706
7.95848
7.95857
7.8021
7.80224
7.63812
7.63826
7.46884
7.46895
7.2976
7.29769
7.12869
7.12876
6.96592
6.96597
6.81151
6.81155
6.66568
6.66571
6.52834
6.52837
6.39956
6.39959
6.2794
6.27942
6.16779
6.16781
6.06479
6.0648
5.97052
5.97053
5.88502
5.88502
5.8077
5.80769
5.73762
5.7376
5.67363
5.67358
5.61427
5.61419
5.5572
5.55708
5.49908
5.49892
5.43677
5.43661
5.36938
5.3693
5.29964
5.29967
5.23023
5.23032
5.16273
5.16283
5.09815
5.09823
5.038
5.03805
4.98408
4.9841
4.93789
4.93789
4.90016
4.90015
4.87104
4.87102
4.85073
4.85071
4.84006
4.84003
4.84
4.84003
4.85067
4.8507
4.87098
4.871
4.90003
4.90004
4.93768
4.93768
4.98379
4.98377
5.03758
5.03753
5.09762
5.09754
5.16199
5.16189
5.22899
5.22889
5.29788
5.29785
5.36719
5.36728
5.43425
5.43442
5.49641
5.49659
5.55478
5.55491
5.61231
5.6124
5.67212
5.67217
5.73651
5.73654
5.80692
5.80693
5.88455
5.88455
5.9704
5.97039
6.06501
6.065
6.16836
6.16834
6.28031
6.28029
6.40082
6.40079
6.52994
6.52991
6.66761
6.66758
6.81378
6.81374
6.96851
6.96845
7.13157
7.13149
7.30082
7.30072
7.47239
7.47226
7.64182
7.64167
7.80567
7.80553
7.96163
7.96153
8.10958
8.10958
8.25059
8.25067
8.38585
8.38596
8.51635
8.51646
8.64454
8.64463
8.77242
8.77249
8.90181
8.90186
9.03475
9.03478
9.17356
9.17357
9.32058
9.32059
9.47779
9.47779
9.64673
9.64672
9.82852
9.82851
10.0239
10.0238
10.233
10.233
10.4562
10.4561
10.6933
10.6933
10.9446
10.9445
11.2101
11.21
11.4901
11.49
11.7846
11.7846
12.0936
12.0936
12.4164
12.4164
12.752
12.752
13.0993
13.0992
13.457
13.457
13.8245
13.8245
14.2019
14.2018
14.5895
14.5895
14.9875
14.9875
15.3952
15.3952
15.8111
15.8111
16.2327
16.2327
16.6576
16.6576
17.0838
17.0837
17.5101
17.5101
17.937
17.937
18.3659
18.3659
18.7989
18.7989
19.2384
19.2384
19.6865
19.6865
20.1449
20.1449
20.6145
20.6144
21.0958
21.0958
21.5891
21.5891
22.094
22.094
22.6101
22.6101
23.1367
23.1367
23.6733
23.6733
24.2195
24.2195
24.7754
24.7754
25.3415
25.3415
25.9182
25.9182
26.5062
26.5062
27.1066
27.1066
27.7206
27.7206
28.3496
28.3496
28.9949
28.9949
29.6575
29.6575
30.3383
30.3383
31.0377
31.0376
31.7563
31.7562
32.4951
32.4951
33.2556
33.2556
34.0393
34.0393
34.8485
34.8485
35.6854
35.6854
36.5521
36.5521
37.451
37.451
38.384
38.384
39.3532
39.3532
40.3604
40.3604
41.4075
41.4075
42.4961
42.4961
43.6278
43.6278
44.8041
44.8041
46.0266
46.0265
47.2966
47.2966
48.6159
48.6159
49.986
49.986
51.4084
51.4084
52.8847
52.8846
54.4162
54.4162
56.0042
56.0042
57.6499
57.6499
59.3544
59.3543
61.1185
61.1185
62.9434
62.9434
64.83
64.83
66.7793
66.7793
68.7922
68.7922
70.8698
70.8698
73.0132
73.0132
75.2235
75.2235
77.5021
77.5021
79.8503
79.8503
82.2694
82.2694
84.7609
84.7609
87.3265
87.3265
89.9679
89.9679
92.6868
92.6868
95.4849
95.4848
98.3638
98.3638
101.325
101.325
104.371
104.371
107.502
107.502
110.72
110.72
114.028
114.028
117.426
117.426
120.916
120.916
124.5
124.5
128.18
128.18
131.958
131.958
135.835
135.835
139.815
139.815
143.899
143.899
148.09
148.09
152.39
152.39
156.802
156.802
161.327
161.327
165.969
165.969
170.728
170.728
175.608
175.608
180.61
180.61
185.735
185.735
190.985
190.985
196.362
196.362
201.866
201.865
207.498
207.498
213.261
213.261
219.154
219.154
225.18
225.18
231.338
231.338
237.631
237.631
244.058
244.058
250.622
250.622
257.324
257.324
264.163
264.163
271.142
271.142
278.262
278.262
285.523
285.523
292.927
292.927
300.474
300.474
308.165
308.165
316.001
316.001
323.984
323.984
332.112
332.112
340.388
340.388
348.81
348.81
357.38
357.38
366.097
366.097
374.962
374.962
383.974
383.974
393.132
393.132
402.436
402.436
411.885
411.885
421.478
421.478
431.214
431.214
441.089
441.089
451.102
451.102
461.251
461.251
471.533
471.533
481.944
481.944
492.48
492.48
503.137
503.137
513.91
513.91
524.794
524.794
535.783
535.783
546.87
546.87
558.048
558.048
569.311
569.311
580.649
580.649
592.055
592.055
603.52
603.52
615.034
615.034
626.585
626.585
638.164
638.164
649.76
649.76
661.362
661.362
672.958
672.958
684.538
684.538
696.089
696.089
707.603
707.603
719.072
719.072
730.486
730.486
741.839
741.839
753.126
753.126
764.346
764.346
775.496
775.496
786.58
786.58
797.607
797.607
808.587
808.587
819.537
819.537
830.479
830.479
841.445
841.445
852.473
852.473
863.613
863.613
874.917
874.917
886.445
886.445
898.263
898.263
910.451
910.451
923.094
923.094
936.285
936.285
950.126
950.126
964.723
964.723
980.183
980.183
996.617
996.617
1014.14
1014.14
1032.84
1032.84
1052.83
1052.83
1074.19
1074.19
1097
1097
1121.32
1121.32
1147.19
1147.19
1174.63
1174.63
1203.66
1203.66
1234.25
1234.25
1266.37
1266.37
1299.97
1299.97
1334.98
1334.98
1371.31
1371.31
1408.86
1408.86
1447.53
1447.53
1487.2
1487.2
1527.74
1527.74
1569.04
1569.04
1610.98
1610.98
1653.45
1653.45
1696.31
1696.31
1739.47
1739.47
1782.83
1782.83
1826.29
1826.29
1869.78
1869.78
1913.23
1913.23
1956.56
1956.56
1999.74
1999.74
2042.75
2042.75
2085.56
2085.56
2128.17
2128.17
2170.59
2170.59
2212.84
2212.84
2254.96
2254.96
2297.01
2297.01
2339.06
2339.06
2381.18
2381.18
2423.49
2423.49
2466.11
2466.11
2509.16
2509.16
2552.81
2552.81
2597.24
2597.24
2642.65
2642.65
2689.26
2689.26
2737.33
2737.33
2787.15
2787.15
2839.05
2839.05
2893.4
2893.4
2950.63
2950.63
3011.21
3011.21
3075.72
3075.72
3144.79
3144.79
3219.2
3219.2
3299.85
3299.84
3387.81
3387.81
3484.4
3484.4
3591.22
3591.22
3710.23
3710.23
3843.93
3843.93
3995.48
3995.48
4168.97
4168.97
4369.84
4369.84
4605.45
4605.45
4886
4886
5226.1
5226.1
5647.44
5647.44
6183.63
6183.63
6889.49
6889.49
7860.53
7860.53
9276.91
9276.91
11513.8
11513.8
15445.4
15445.4
23327.3
23327.3
41343.9
41343.9
89252.3
89252.3
265010
265010
1.52417e+06
1.52417e+06
4.84007
4.84003
4.85074
4.85071
4.87105
4.87103
4.9001
4.90009
4.93774
4.93775
4.98384
4.98387
5.03761
5.03767
5.09762
5.0977
5.16195
5.16205
5.22892
5.22902
5.29784
5.29787
5.36722
5.36713
5.43431
5.43414
5.49643
5.49626
5.55472
5.55459
5.61221
5.61212
5.67199
5.67194
5.73638
5.73635
5.8068
5.80679
5.88445
5.88445
5.97032
5.97033
6.06495
6.06497
6.16832
6.16833
6.28028
6.2803
6.4008
6.40083
6.52992
6.52996
6.66761
6.66765
6.81379
6.81384
6.96853
6.96859
7.13159
7.13167
7.30083
7.30093
7.47236
7.47249
7.64175
7.64189
7.80555
7.80571
7.96151
7.96161
8.10951
8.1095
8.25054
8.25045
8.38578
8.38567
8.51624
8.51613
8.64439
8.6443
8.77223
8.77217
8.9016
8.90155
9.03454
9.0345
9.17335
9.17333
9.32039
9.32038
9.47763
9.47763
9.64659
9.64659
9.8284
9.82841
10.0238
10.0238
10.233
10.233
10.4561
10.4561
10.6933
10.6933
10.9445
10.9445
11.2101
11.2101
11.4901
11.4901
11.7846
11.7847
12.0937
12.0937
12.4165
12.4165
12.7521
12.7521
13.0993
13.0993
13.457
13.4571
13.8245
13.8246
14.2019
14.2019
14.5896
14.5896
14.9876
14.9876
15.3953
15.3953
15.8111
15.8111
16.2327
16.2328
16.6576
16.6576
17.0837
17.0837
17.51
17.5101
17.9369
17.9369
18.3658
18.3658
18.7988
18.7988
19.2383
19.2383
19.6864
19.6864
20.1447
20.1448
20.6143
20.6143
21.0957
21.0957
21.5889
21.5889
22.0939
22.0939
22.6099
22.61
23.1365
23.1365
23.6731
23.6731
24.2193
24.2193
24.7752
24.7752
25.3413
25.3413
25.918
25.918
26.506
26.506
27.1063
27.1063
27.7203
27.7203
28.3493
28.3494
28.9946
28.9946
29.6573
29.6573
30.3381
30.3381
31.0374
31.0374
31.756
31.756
32.4949
32.4949
33.2553
33.2553
34.0391
34.0391
34.8483
34.8483
35.6851
35.6852
36.5519
36.5519
37.4508
37.4508
38.3838
38.3838
39.3529
39.353
40.3602
40.3602
41.4073
41.4073
42.4959
42.4959
43.6276
43.6276
44.8039
44.8039
46.0264
46.0264
47.2965
47.2965
48.6158
48.6158
49.9858
49.9858
51.4082
51.4082
52.8845
52.8845
54.4161
54.4161
56.0041
56.0041
57.6498
57.6498
59.3542
59.3542
61.1184
61.1184
62.9433
62.9433
64.8299
64.8299
66.7792
66.7792
68.7921
68.7922
70.8697
70.8697
73.0131
73.0131
75.2235
75.2235
77.5021
77.5021
79.8502
79.8502
82.2693
82.2693
84.7608
84.7609
87.3265
87.3265
89.9679
89.9679
92.6867
92.6868
95.4848
95.4848
98.3637
98.3637
101.325
101.325
104.371
104.371
107.502
107.502
110.72
110.72
114.028
114.028
117.426
117.426
120.916
120.916
124.5
124.5
128.18
128.18
131.958
131.958
135.835
135.835
139.815
139.815
143.899
143.899
148.09
148.09
152.39
152.39
156.802
156.802
161.327
161.327
165.969
165.969
170.728
170.728
175.608
175.608
180.61
180.61
185.735
185.735
190.985
190.985
196.361
196.361
201.865
201.865
207.498
207.498
213.261
213.261
219.154
219.154
225.18
225.18
231.338
231.338
237.631
237.631
244.058
244.058
250.622
250.622
257.324
257.324
264.163
264.163
271.142
271.142
278.262
278.262
285.523
285.523
292.927
292.927
300.474
300.474
308.165
308.165
316.001
316.001
323.983
323.983
332.112
332.112
340.388
340.388
348.81
348.81
357.38
357.38
366.097
366.097
374.962
374.962
383.974
383.974
393.132
393.132
402.436
402.436
411.885
411.885
421.478
421.478
431.214
431.214
441.089
441.089
451.102
451.102
461.251
461.251
471.533
471.533
481.944
481.944
492.48
492.48
503.137
503.137
513.91
513.91
524.794
524.794
535.783
535.783
546.87
546.87
558.048
558.048
569.31
569.31
580.649
580.649
592.055
592.055
603.52
603.52
615.034
615.034
626.585
626.585
638.164
638.164
649.76
649.76
661.362
661.362
672.958
672.958
684.538
684.538
696.089
696.089
707.603
707.603
719.072
719.072
730.486
730.486
741.839
741.839
753.126
753.126
764.345
764.345
775.496
775.496
786.58
786.58
797.607
797.607
808.587
808.587
819.537
819.537
830.479
830.479
841.445
841.445
852.473
852.473
863.613
863.613
874.917
874.917
886.445
886.445
898.263
898.263
910.451
910.451
923.094
923.094
936.285
936.285
950.126
950.126
964.722
964.722
980.182
980.182
996.617
996.617
1014.14
1014.14
1032.84
1032.84
1052.83
1052.83
1074.19
1074.19
1097
1097
1121.32
1121.32
1147.19
1147.19
1174.63
1174.63
1203.66
1203.66
1234.25
1234.25
1266.37
1266.37
1299.97
1299.97
1334.98
1334.98
1371.31
1371.31
1408.86
1408.86
1447.53
1447.53
1487.2
1487.2
1527.74
1527.74
1569.04
1569.04
1610.99
1610.99
1653.45
1653.45
1696.31
1696.31
1739.47
1739.47
1782.83
1782.83
1826.29
1826.29
1869.78
1869.78
1913.23
1913.23
1956.56
1956.56
1999.74
1999.74
2042.75
2042.75
2085.56
2085.56
2128.17
2128.17
2170.59
2170.59
2212.84
2212.84
2254.96
2254.96
2297.01
2297.01
2339.06
2339.06
2381.18
2381.18
2423.49
2423.49
2466.11
2466.11
2509.16
2509.16
2552.81
2552.81
2597.24
2597.24
2642.64
2642.64
2689.26
2689.26
2737.33
2737.33
2787.15
2787.15
2839.05
2839.05
2893.4
2893.4
2950.63
2950.63
3011.21
3011.21
3075.72
3075.72
3144.79
3144.79
3219.2
3219.2
3299.84
3299.84
3387.81
3387.81
3484.4
3484.4
3591.22
3591.22
3710.23
3710.23
3843.93
3843.93
3995.48
3995.48
4168.97
4168.97
4369.84
4369.84
4605.45
4605.45
4885.99
4885.99
5226.09
5226.09
5647.44
5647.44
6183.63
6183.63
6889.49
6889.49
7860.53
7860.53
9276.91
9276.91
11513.8
11513.8
15445.4
15445.4
23327.3
23327.3
41343.9
41343.9
89252.3
89252.3
265010
265010
1.52417e+06
1.52417e+06
)
;

boundaryField
{
    walls
    {
        blending        binomial2;
        n               2;
        beta1           0.075;
        type            omegaWallFunction;
        value           nonuniform List<scalar> 8(1.52416e+06 1.52416e+06 1.52416e+06 1.52416e+06 1.52417e+06 1.52417e+06 1.52417e+06 1.52417e+06);
    }
    inlet
    {
        type            cyclic;
    }
    outlet
    {
        type            cyclic;
    }
    sides
    {
        type            empty;
    }
}


// ************************************************************************* //
