/*--------------------------------*- C++ -*----------------------------------*\
| =========                 |                                                 |
| \\      /  F ield         | OpenFOAM: The Open Source CFD Toolbox           |
|  \\    /   O peration     | Version:  2012                                  |
|   \\  /    A nd           | Website:  www.openfoam.com                      |
|    \\/     M anipulation  |                                                 |
\*---------------------------------------------------------------------------*/
FoamFile
{
    version     2.0;
    format      ascii;
    class       volScalarField;
    location    "12500";
    object      k;
}
// * * * * * * * * * * * * * * * * * * * * * * * * * * * * * * * * * * * * * //

dimensions      [0 2 -2 0 0 0 0];


internalField   nonuniform List<scalar> 
2560
(
0.0026926
0.0026926
0.0601005
0.0601006
0.425753
0.425753
1.46148
1.46149
3.14652
3.14653
5.01153
5.01154
6.77405
6.77405
8.38815
8.38815
9.87424
9.87425
11.2584
11.2584
12.5616
12.5616
13.7989
13.7989
14.9815
14.9815
16.1177
16.1177
17.2135
17.2135
18.2733
18.2733
19.3005
19.3005
20.2976
20.2976
21.2664
21.2664
22.2082
22.2082
23.1237
23.1237
24.0134
24.0134
24.8774
24.8774
25.7155
25.7155
26.5273
26.5273
27.3122
27.3122
28.0694
28.0694
28.7978
28.7978
29.4965
29.4965
30.1642
30.1642
30.7995
30.7995
31.4009
31.4009
31.9671
31.9671
32.4965
32.4965
32.9874
32.9874
33.4385
33.4385
33.8481
33.8481
34.2148
34.2148
34.5372
34.5372
34.8142
34.8142
35.0445
35.0445
35.2273
35.2273
35.3618
35.3618
35.4476
35.4476
35.4845
35.4845
35.4726
35.4726
35.4122
35.4122
35.3041
35.3041
35.1495
35.1495
34.9499
34.9499
34.7073
34.7073
34.4239
34.4239
34.1025
34.1025
33.7463
33.7463
33.3589
33.3589
32.9443
32.9443
32.5067
32.5067
32.0509
32.0509
31.5818
31.5818
31.1045
31.1044
30.6243
30.6243
30.1469
30.1469
29.6775
29.6775
29.2217
29.2217
28.7846
28.7846
28.3712
28.3712
27.9862
27.9862
27.6337
27.6337
27.3173
27.3173
27.0401
27.0401
26.8043
26.8043
26.6114
26.6114
26.4623
26.4623
26.3568
26.3568
26.2943
26.2943
26.2729
26.2729
26.2905
26.2905
26.3439
26.3439
26.4298
26.4298
26.5443
26.5443
26.683
26.683
26.8415
26.8415
27.0151
27.0151
27.1993
27.1993
27.3895
27.3895
27.5811
27.5811
27.7701
27.7701
27.9525
27.9525
28.1246
28.1246
28.2833
28.2833
28.4256
28.4256
28.5491
28.5491
28.6516
28.6516
28.7315
28.7315
28.7874
28.7874
28.8183
28.8183
28.8236
28.8236
28.803
28.803
28.7563
28.7563
28.6838
28.6838
28.5859
28.5859
28.4631
28.4631
28.3162
28.3162
28.1461
28.1461
27.9538
27.9538
27.7404
27.7404
27.5069
27.5069
27.2546
27.2546
26.9847
26.9847
26.6985
26.6985
26.397
26.397
26.0816
26.0816
25.7535
25.7535
25.4137
25.4137
25.0635
25.0635
24.7039
24.7039
24.336
24.336
23.9608
23.9608
23.5792
23.5792
23.1921
23.1921
22.8005
22.8005
22.405
22.405
22.0065
22.0065
21.6056
21.6056
21.2031
21.2031
20.7996
20.7996
20.3956
20.3956
19.9917
19.9917
19.5883
19.5883
19.186
19.186
18.7851
18.7851
18.3861
18.3861
17.9893
17.9893
17.5951
17.5951
17.2037
17.2037
16.8155
16.8155
16.4308
16.4308
16.0498
16.0498
15.6726
15.6726
15.2996
15.2996
14.9309
14.9309
14.5667
14.5667
14.2071
14.2071
13.8523
13.8523
13.5024
13.5024
13.1576
13.1576
12.818
12.818
12.4836
12.4836
12.1546
12.1546
11.8311
11.8311
11.5131
11.5131
11.2007
11.2007
10.894
10.894
10.5931
10.5931
10.298
10.298
10.0088
10.0088
9.72559
9.72559
9.44834
9.44834
9.17711
9.17711
8.91194
8.91194
8.65284
8.65284
8.39983
8.39983
8.15289
8.15289
7.91199
7.91199
7.6771
7.6771
7.44816
7.44815
7.22509
7.22508
7.0078
7.0078
6.7962
6.7962
6.59018
6.59018
6.38963
6.38962
6.19443
6.19443
6.00449
6.00448
5.81969
5.81969
5.63995
5.63995
5.46518
5.46518
5.2953
5.29529
5.13023
5.13023
4.96991
4.96991
4.81427
4.81427
4.66324
4.66323
4.51675
4.51674
4.37472
4.37472
4.2371
4.2371
4.10379
4.10379
3.97472
3.97471
3.84979
3.84979
3.72893
3.72892
3.61204
3.61204
3.49905
3.49905
3.38988
3.38987
3.28445
3.28444
3.1827
3.18269
3.08456
3.08456
2.99
2.98999
2.89894
2.89894
2.81136
2.81135
2.72719
2.72718
2.64639
2.64639
2.56893
2.56893
2.49475
2.49475
2.4238
2.4238
2.35602
2.35602
2.29135
2.29135
2.22971
2.22971
2.17102
2.17101
2.11518
2.11517
2.06209
2.06208
2.01165
2.01164
1.96376
1.96375
1.91832
1.91831
1.87523
1.87523
1.83441
1.83441
1.79574
1.79574
1.75913
1.75913
1.72446
1.72446
1.6916
1.69159
1.66041
1.6604
1.63074
1.63074
1.60245
1.60245
1.57536
1.57536
1.54931
1.54931
1.52416
1.52416
1.49979
1.49979
1.47611
1.47611
1.45307
1.45307
1.43063
1.43063
1.40874
1.40874
1.38736
1.38736
1.36642
1.36642
1.34583
1.34582
1.32547
1.32547
1.30528
1.30527
1.28517
1.28517
1.2651
1.2651
1.24505
1.24505
1.225
1.225
1.20498
1.20497
1.18501
1.18501
1.16519
1.16519
1.14559
1.14559
1.12629
1.12629
1.10734
1.10733
1.08873
1.08873
1.07043
1.07043
1.05233
1.05233
1.0343
1.0343
1.01615
1.01614
0.997661
0.997659
0.97866
0.978658
0.959042
0.959039
0.938819
0.938815
0.918121
0.918116
0.89716
0.897155
0.876203
0.876197
0.855506
0.8555
0.835262
0.835256
0.815562
0.815555
0.796413
0.796407
0.777791
0.777783
0.7597
0.759692
0.742217
0.742209
0.725472
0.725464
0.709613
0.709604
0.694763
0.694756
0.68101
0.681003
0.668392
0.668386
0.656919
0.656914
0.646584
0.646581
0.637382
0.63738
0.629307
0.629307
0.622354
0.622356
0.616506
0.616512
0.611721
0.611732
0.607916
0.607932
0.604957
0.60498
0.602669
0.6027
0.600825
0.600864
0.59916
0.599204
0.597402
0.597446
0.595341
0.595372
0.592876
0.592877
0.589801
0.589766
0.585757
0.585701
0.580309
0.580247
0.573303
0.573245
0.564783
0.564733
0.554956
0.554913
0.54414
0.544104
0.532787
0.532757
0.521456
0.521432
0.510644
0.510625
0.500641
0.500627
0.491488
0.491477
0.483178
0.483168
0.475716
0.475709
0.469113
0.469107
0.463365
0.463361
0.458483
0.45848
0.454477
0.454477
0.451327
0.451329
0.448946
0.448953
0.447187
0.447199
0.445878
0.445896
0.444807
0.444833
0.443637
0.443672
0.441907
0.441948
0.43919
0.439234
0.435289
0.435332
0.430332
0.43037
0.424684
0.424715
0.418727
0.418745
0.412738
0.412739
0.407028
0.407013
0.401853
0.401834
0.397397
0.397381
0.393737
0.393726
0.390886
0.39088
0.388866
0.388864
0.387786
0.387787
0.0026926
0.0026926
0.0601006
0.0601005
0.425753
0.425753
1.46149
1.46148
3.14653
3.14652
5.01154
5.01153
6.77405
6.77405
8.38815
8.38815
9.87425
9.87424
11.2584
11.2584
12.5616
12.5616
13.7989
13.7989
14.9815
14.9815
16.1177
16.1177
17.2135
17.2135
18.2733
18.2733
19.3005
19.3005
20.2976
20.2976
21.2664
21.2664
22.2082
22.2082
23.1237
23.1237
24.0134
24.0134
24.8774
24.8774
25.7155
25.7155
26.5273
26.5273
27.3122
27.3122
28.0694
28.0694
28.7978
28.7978
29.4965
29.4965
30.1642
30.1642
30.7995
30.7995
31.401
31.401
31.9671
31.9671
32.4965
32.4965
32.9874
32.9874
33.4385
33.4385
33.8481
33.8481
34.2148
34.2148
34.5372
34.5372
34.8142
34.8142
35.0445
35.0445
35.2273
35.2273
35.3618
35.3618
35.4477
35.4477
35.4845
35.4845
35.4726
35.4726
35.4122
35.4122
35.3041
35.3041
35.1495
35.1495
34.9499
34.9499
34.7073
34.7073
34.4239
34.4239
34.1025
34.1025
33.7463
33.7463
33.359
33.359
32.9443
32.9443
32.5067
32.5068
32.0509
32.0509
31.5818
31.5818
31.1045
31.1045
30.6243
30.6243
30.1469
30.1469
29.6775
29.6775
29.2217
29.2217
28.7846
28.7846
28.3712
28.3712
27.9862
27.9862
27.6337
27.6337
27.3173
27.3173
27.0401
27.0401
26.8043
26.8043
26.6114
26.6114
26.4623
26.4623
26.3568
26.3568
26.2943
26.2943
26.2729
26.2729
26.2904
26.2904
26.3439
26.3439
26.4298
26.4298
26.5442
26.5442
26.683
26.683
26.8415
26.8415
27.0151
27.0151
27.1993
27.1993
27.3894
27.3894
27.5811
27.5811
27.7701
27.7701
27.9525
27.9525
28.1246
28.1246
28.2833
28.2833
28.4256
28.4256
28.5491
28.5491
28.6516
28.6516
28.7315
28.7315
28.7874
28.7874
28.8183
28.8183
28.8236
28.8236
28.803
28.803
28.7563
28.7563
28.6838
28.6838
28.5859
28.5859
28.4631
28.4631
28.3162
28.3162
28.1461
28.1461
27.9538
27.9538
27.7404
27.7404
27.5069
27.5069
27.2546
27.2546
26.9847
26.9847
26.6985
26.6985
26.397
26.397
26.0816
26.0816
25.7535
25.7535
25.4137
25.4137
25.0635
25.0635
24.7039
24.7039
24.336
24.336
23.9608
23.9608
23.5792
23.5792
23.1921
23.1921
22.8004
22.8004
22.405
22.405
22.0065
22.0065
21.6056
21.6056
21.2031
21.2031
20.7996
20.7996
20.3956
20.3956
19.9917
19.9917
19.5883
19.5883
19.186
19.186
18.7851
18.7851
18.3861
18.3861
17.9893
17.9893
17.5951
17.5951
17.2037
17.2037
16.8155
16.8155
16.4308
16.4308
16.0497
16.0497
15.6726
15.6726
15.2996
15.2996
14.9309
14.9309
14.5667
14.5667
14.2071
14.2071
13.8523
13.8523
13.5024
13.5024
13.1576
13.1576
12.818
12.818
12.4836
12.4836
12.1546
12.1546
11.831
11.831
11.513
11.513
11.2007
11.2007
10.894
10.894
10.5931
10.5931
10.298
10.298
10.0088
10.0088
9.72559
9.72559
9.44833
9.44833
9.1771
9.17711
8.91193
8.91193
8.65284
8.65284
8.39982
8.39982
8.15288
8.15288
7.91198
7.91199
7.67709
7.6771
7.44815
7.44815
7.22508
7.22508
7.00779
7.00779
6.79619
6.79619
6.59017
6.59017
6.38962
6.38962
6.19442
6.19443
6.00448
6.00448
5.81968
5.81969
5.63994
5.63995
5.46517
5.46517
5.29529
5.29529
5.13022
5.13023
4.9699
4.96991
4.81426
4.81426
4.66323
4.66323
4.51674
4.51674
4.37472
4.37472
4.23709
4.23709
4.10378
4.10379
3.97471
3.97471
3.84978
3.84978
3.72892
3.72892
3.61203
3.61204
3.49904
3.49905
3.38987
3.38987
3.28444
3.28444
3.18269
3.18269
3.08455
3.08456
2.98999
2.98999
2.89893
2.89894
2.81134
2.81135
2.72718
2.72718
2.64638
2.64638
2.56892
2.56892
2.49474
2.49474
2.42379
2.42379
2.35601
2.35601
2.29134
2.29134
2.2297
2.2297
2.171
2.17101
2.11516
2.11516
2.06207
2.06207
2.01163
2.01163
1.96374
1.96374
1.9183
1.9183
1.87522
1.87522
1.83439
1.83439
1.79573
1.79573
1.75912
1.75912
1.72444
1.72444
1.69158
1.69158
1.66039
1.66039
1.63072
1.63073
1.60243
1.60243
1.57534
1.57534
1.54929
1.54929
1.52414
1.52414
1.49977
1.49977
1.4761
1.4761
1.45305
1.45306
1.43061
1.43061
1.40872
1.40872
1.38735
1.38735
1.3664
1.36641
1.34581
1.34581
1.32546
1.32546
1.30526
1.30526
1.28515
1.28516
1.26509
1.26509
1.24504
1.24504
1.22499
1.22499
1.20496
1.20496
1.185
1.185
1.16518
1.16518
1.14558
1.14558
1.12628
1.12628
1.10733
1.10733
1.08872
1.08873
1.07042
1.07043
1.05233
1.05233
1.0343
1.0343
1.01614
1.01614
0.997658
0.99766
0.978659
0.978661
0.959041
0.959044
0.938819
0.938822
0.91812
0.918125
0.89716
0.897166
0.876203
0.876208
0.855506
0.855513
0.835262
0.835269
0.815562
0.815569
0.796413
0.79642
0.77779
0.777797
0.759698
0.759706
0.742214
0.742222
0.725469
0.725477
0.709608
0.709616
0.694758
0.694766
0.681005
0.681012
0.668386
0.668392
0.656913
0.656918
0.646579
0.646583
0.637377
0.637379
0.629303
0.629303
0.622351
0.622348
0.616505
0.616499
0.611723
0.611712
0.607921
0.607905
0.604968
0.604945
0.602686
0.602655
0.60085
0.600811
0.59919
0.599145
0.597432
0.597388
0.595359
0.595328
0.592866
0.592865
0.589758
0.589792
0.585695
0.585752
0.580245
0.580307
0.573247
0.573305
0.564737
0.564788
0.554919
0.554963
0.544112
0.544149
0.532766
0.532796
0.52144
0.521464
0.510631
0.51065
0.500631
0.500645
0.491479
0.49149
0.48317
0.483179
0.475709
0.475717
0.469106
0.469112
0.463359
0.463364
0.458477
0.45848
0.454472
0.454472
0.451323
0.45132
0.448945
0.448938
0.447189
0.447178
0.445886
0.445868
0.444822
0.444796
0.443662
0.443628
0.44194
0.441899
0.439229
0.439184
0.435329
0.435286
0.43037
0.430332
0.424717
0.424686
0.418748
0.41873
0.412743
0.412741
0.407017
0.407032
0.401837
0.401857
0.397384
0.3974
0.393729
0.39374
0.390882
0.390888
0.388866
0.388868
0.387789
0.387788
0.387778
0.387779
0.388841
0.388839
0.390844
0.390838
0.393669
0.393658
0.397301
0.397285
0.401727
0.401708
0.406867
0.406853
0.412542
0.412544
0.418479
0.418499
0.424349
0.424381
0.429911
0.429949
0.434801
0.434842
0.438652
0.438695
0.44135
0.441389
0.44311
0.443143
0.444343
0.444367
0.44548
0.445497
0.446849
0.44686
0.448661
0.448667
0.451094
0.451097
0.454301
0.454301
0.458366
0.458363
0.463306
0.463302
0.469111
0.469105
0.475773
0.475765
0.483291
0.483282
0.491659
0.491648
0.500869
0.500855
0.510929
0.51091
0.521791
0.521768
0.533178
0.533149
0.544583
0.544546
0.555424
0.555381
0.565244
0.565194
0.573722
0.573665
0.580654
0.580594
0.586029
0.585974
0.590022
0.589989
0.593067
0.593068
0.595514
0.595545
0.597559
0.597602
0.599295
0.599339
0.600941
0.600979
0.602761
0.602792
0.605026
0.605049
0.607963
0.607979
0.611749
0.611759
0.616516
0.616523
0.62235
0.622353
0.62929
0.629291
0.637353
0.637351
0.646542
0.646538
0.656863
0.656859
0.668324
0.668318
0.68093
0.680923
0.694672
0.694664
0.709509
0.709501
0.725357
0.725349
0.742091
0.742083
0.759573
0.759565
0.777667
0.77766
0.796286
0.79628
0.815422
0.815416
0.835103
0.835096
0.855318
0.855312
0.875981
0.875975
0.896915
0.89691
0.917865
0.917861
0.938552
0.938548
0.958749
0.958746
0.978331
0.978329
0.997305
0.997304
1.01579
1.01578
1.03395
1.03395
1.05201
1.05201
1.07016
1.07016
1.08852
1.08852
1.10717
1.10717
1.12616
1.12615
1.14546
1.14546
1.16505
1.16505
1.18486
1.18486
1.2048
1.2048
1.22481
1.22481
1.24485
1.24484
1.26488
1.26488
1.28494
1.28494
1.30506
1.30505
1.32526
1.32525
1.34561
1.34561
1.36623
1.36623
1.3872
1.3872
1.40862
1.40861
1.43055
1.43055
1.45305
1.45305
1.47613
1.47613
1.49983
1.49983
1.52422
1.52422
1.54939
1.54938
1.57544
1.57544
1.60255
1.60255
1.63086
1.63086
1.66053
1.66053
1.69173
1.69173
1.72459
1.72458
1.75924
1.75924
1.79584
1.79583
1.83448
1.83448
1.87528
1.87528
1.91835
1.91835
1.96378
1.96377
2.01166
2.01166
2.06211
2.0621
2.1152
2.1152
2.17105
2.17105
2.22975
2.22975
2.2914
2.29139
2.35608
2.35608
2.42387
2.42386
2.49483
2.49482
2.56901
2.56901
2.64648
2.64647
2.72727
2.72727
2.81145
2.81144
2.89904
2.89904
2.9901
2.9901
3.08467
3.08466
3.1828
3.1828
3.28456
3.28455
3.38999
3.38999
3.49918
3.49917
3.61217
3.61217
3.72906
3.72905
3.84992
3.84991
3.97484
3.97484
4.10391
4.10391
4.23722
4.23721
4.37484
4.37484
4.51686
4.51686
4.66336
4.66335
4.81439
4.81439
4.97004
4.97003
5.13036
5.13036
5.29543
5.29543
5.46533
5.46532
5.64011
5.6401
5.81985
5.81985
6.00464
6.00464
6.19459
6.19459
6.38979
6.38979
6.59036
6.59036
6.79639
6.79639
7.00801
7.00801
7.22531
7.22531
7.4484
7.4484
7.67735
7.67735
7.91225
7.91225
8.15316
8.15316
8.40011
8.40011
8.65313
8.65312
8.91223
8.91222
9.1774
9.1774
9.44864
9.44864
9.7259
9.7259
10.0092
10.0092
10.2984
10.2984
10.5934
10.5934
10.8944
10.8944
11.2011
11.201
11.5134
11.5134
11.8315
11.8315
12.155
12.155
12.484
12.484
12.8184
12.8184
13.1581
13.1581
13.503
13.503
13.8529
13.8529
14.2077
14.2077
14.5673
14.5673
14.9316
14.9316
15.3004
15.3004
15.6735
15.6735
16.0507
16.0507
16.4318
16.4318
16.8166
16.8166
17.2048
17.2048
17.5962
17.5962
17.9904
17.9904
18.3873
18.3873
18.7863
18.7863
19.1872
19.1872
19.5896
19.5896
19.9931
19.9931
20.3971
20.3971
20.8011
20.8011
21.2047
21.2047
21.6072
21.6072
22.008
22.008
22.4065
22.4065
22.8019
22.8019
23.1936
23.1936
23.5806
23.5806
23.9621
23.9621
24.3372
24.3372
24.705
24.705
25.0644
25.0644
25.4145
25.4145
25.7542
25.7542
26.0823
26.0823
26.3977
26.3977
26.6991
26.6991
26.9854
26.9854
27.2554
27.2554
27.5077
27.5077
27.7412
27.7412
27.9547
27.9547
28.1469
28.1469
28.317
28.317
28.4639
28.4639
28.5867
28.5867
28.6847
28.6847
28.7573
28.7573
28.8042
28.8042
28.825
28.825
28.8197
28.8197
28.7889
28.7889
28.7329
28.7329
28.6528
28.6528
28.5498
28.5498
28.4257
28.4257
28.2827
28.2827
28.1236
28.1236
27.9512
27.9512
27.7687
27.7687
27.5795
27.5795
27.3876
27.3876
27.1971
27.1971
27.0125
27.0125
26.8384
26.8384
26.6795
26.6795
26.5404
26.5404
26.4256
26.4256
26.3393
26.3393
26.2855
26.2855
26.2678
26.2678
26.2889
26.2889
26.3511
26.3511
26.4563
26.4563
26.6051
26.6051
26.7976
26.7976
27.0331
27.0331
27.3101
27.3101
27.6262
27.6262
27.9785
27.9785
28.3633
28.3633
28.7765
28.7765
29.2135
29.2135
29.6692
29.6692
30.1384
30.1384
30.6156
30.6156
31.0955
31.0955
31.5728
31.5727
32.042
32.042
32.498
32.498
32.9357
32.9357
33.3506
33.3506
33.7384
33.7384
34.0951
34.0951
34.4171
34.4171
34.7009
34.7009
34.9439
34.9439
35.1438
35.1438
35.299
35.299
35.4077
35.4077
35.4685
35.4685
35.481
35.481
35.4447
35.4446
35.3593
35.3593
35.2252
35.2252
35.0428
35.0428
34.8128
34.8128
34.5362
34.5362
34.214
34.214
33.8474
33.8474
33.438
33.438
32.9871
32.9871
32.4963
32.4963
31.967
31.967
31.4009
31.4009
30.7994
30.7994
30.1641
30.1641
29.4966
29.4966
28.798
28.798
28.0697
28.0697
27.3126
27.3126
26.5278
26.5278
25.716
25.716
24.8779
24.8779
24.014
24.014
23.1242
23.1242
22.2087
22.2087
21.2669
21.2669
20.298
20.298
19.3009
19.3009
18.2736
18.2736
17.2138
17.2138
16.118
16.118
14.9818
14.9818
13.7991
13.7991
12.5618
12.5618
11.2587
11.2587
9.87442
9.87443
8.3883
8.3883
6.77417
6.77417
5.01163
5.01163
3.14659
3.14659
1.46152
1.46152
0.425763
0.425764
0.0601017
0.0601018
0.00269272
0.00269273
0.387781
0.38778
0.388842
0.388843
0.390841
0.390847
0.393661
0.393672
0.397289
0.397304
0.401712
0.401731
0.406857
0.406871
0.412548
0.412546
0.418502
0.418482
0.424382
0.424351
0.429948
0.429911
0.434839
0.434798
0.438689
0.438646
0.441381
0.441342
0.443133
0.443101
0.444357
0.444332
0.445487
0.44547
0.44685
0.446839
0.448659
0.448652
0.45109
0.451087
0.454296
0.454296
0.45836
0.458362
0.4633
0.463304
0.469104
0.46911
0.475766
0.475773
0.483284
0.483293
0.491651
0.491662
0.50086
0.500874
0.510917
0.510935
0.521775
0.521799
0.533157
0.533187
0.544555
0.544591
0.555389
0.555432
0.565199
0.565249
0.573667
0.573724
0.580592
0.580652
0.585969
0.586024
0.58998
0.590013
0.593057
0.593055
0.595532
0.5955
0.597588
0.597544
0.599324
0.59928
0.600964
0.600926
0.602778
0.602748
0.605037
0.605014
0.607968
0.607953
0.61175
0.61174
0.616515
0.616509
0.622347
0.622345
0.629286
0.629286
0.637348
0.63735
0.646537
0.64654
0.656858
0.656863
0.668318
0.668324
0.680924
0.680931
0.694667
0.694674
0.709505
0.709513
0.725353
0.725361
0.742088
0.742096
0.759571
0.759579
0.777667
0.777674
0.796286
0.796293
0.815423
0.815429
0.835103
0.835109
0.855319
0.855325
0.875981
0.875987
0.896915
0.89692
0.917865
0.917869
0.938551
0.938555
0.958748
0.958751
0.97833
0.978332
0.997303
0.997305
1.01578
1.01578
1.03395
1.03395
1.05201
1.05201
1.07015
1.07015
1.08851
1.08851
1.10716
1.10716
1.12615
1.12615
1.14545
1.14546
1.16504
1.16504
1.18485
1.18485
1.20479
1.20479
1.2248
1.2248
1.24483
1.24483
1.26487
1.26487
1.28493
1.28493
1.30504
1.30504
1.32524
1.32524
1.3456
1.3456
1.36621
1.36622
1.38718
1.38718
1.4086
1.4086
1.43053
1.43053
1.45303
1.45303
1.47611
1.47611
1.49981
1.49982
1.5242
1.52421
1.54937
1.54937
1.57542
1.57543
1.60253
1.60253
1.63084
1.63084
1.66051
1.66052
1.69171
1.69171
1.72457
1.72457
1.75923
1.75923
1.79582
1.79582
1.83446
1.83447
1.87527
1.87527
1.91833
1.91833
1.96376
1.96376
2.01165
2.01165
2.06209
2.06209
2.11519
2.11519
2.17103
2.17104
2.22974
2.22974
2.29138
2.29139
2.35607
2.35607
2.42386
2.42386
2.49481
2.49482
2.569
2.569
2.64647
2.64647
2.72726
2.72726
2.81144
2.81144
2.89903
2.89903
2.99009
2.99009
3.08466
3.08466
3.18279
3.18279
3.28455
3.28455
3.38998
3.38999
3.49917
3.49917
3.61216
3.61217
3.72905
3.72905
3.84991
3.84991
3.97483
3.97483
4.1039
4.10391
4.23721
4.23721
4.37483
4.37483
4.51685
4.51686
4.66335
4.66335
4.81438
4.81439
4.97003
4.97003
5.13035
5.13036
5.29542
5.29543
5.46532
5.46532
5.6401
5.6401
5.81984
5.81984
6.00464
6.00464
6.19458
6.19459
6.38979
6.38979
6.59035
6.59035
6.79639
6.79639
7.00801
7.00801
7.22531
7.22531
7.44839
7.44839
7.67735
7.67735
7.91225
7.91225
8.15315
8.15315
8.4001
8.4001
8.65312
8.65312
8.91222
8.91222
9.1774
9.1774
9.44863
9.44863
9.7259
9.7259
10.0091
10.0092
10.2983
10.2983
10.5934
10.5934
10.8944
10.8944
11.201
11.201
11.5134
11.5134
11.8314
11.8314
12.155
12.155
12.484
12.484
12.8184
12.8184
13.1581
13.1581
13.5029
13.503
13.8528
13.8529
14.2077
14.2077
14.5673
14.5673
14.9316
14.9316
15.3004
15.3004
15.6734
15.6735
16.0507
16.0507
16.4318
16.4318
16.8166
16.8166
17.2048
17.2048
17.5962
17.5962
17.9904
17.9904
18.3873
18.3873
18.7863
18.7863
19.1872
19.1872
19.5896
19.5896
19.9931
19.9931
20.397
20.397
20.8011
20.8011
21.2046
21.2046
21.6072
21.6072
22.008
22.008
22.4065
22.4065
22.8019
22.8019
23.1936
23.1936
23.5806
23.5806
23.9621
23.9621
24.3372
24.3372
24.705
24.705
25.0644
25.0644
25.4145
25.4145
25.7542
25.7542
26.0823
26.0823
26.3977
26.3977
26.6991
26.6991
26.9854
26.9854
27.2554
27.2554
27.5077
27.5077
27.7412
27.7412
27.9547
27.9547
28.1469
28.1469
28.317
28.317
28.4639
28.4639
28.5867
28.5867
28.6847
28.6847
28.7573
28.7573
28.8041
28.8041
28.8249
28.8249
28.8197
28.8197
28.7889
28.7889
28.7329
28.7329
28.6528
28.6528
28.5498
28.5498
28.4257
28.4257
28.2827
28.2827
28.1236
28.1236
27.9512
27.9512
27.7687
27.7687
27.5795
27.5795
27.3875
27.3875
27.1971
27.1971
27.0125
27.0125
26.8384
26.8384
26.6795
26.6795
26.5404
26.5404
26.4255
26.4255
26.3393
26.3393
26.2855
26.2855
26.2678
26.2678
26.2888
26.2888
26.3511
26.3511
26.4563
26.4563
26.6051
26.6051
26.7976
26.7976
27.0331
27.0331
27.3101
27.3101
27.6262
27.6262
27.9785
27.9785
28.3633
28.3633
28.7765
28.7765
29.2135
29.2135
29.6692
29.6692
30.1384
30.1384
30.6156
30.6156
31.0955
31.0955
31.5728
31.5728
32.042
32.042
32.498
32.498
32.9357
32.9357
33.3506
33.3506
33.7384
33.7384
34.0951
34.0951
34.4171
34.4171
34.701
34.701
34.9439
34.9439
35.1438
35.1438
35.299
35.299
35.4077
35.4077
35.4686
35.4686
35.481
35.481
35.4447
35.4447
35.3593
35.3593
35.2252
35.2252
35.0428
35.0428
34.8128
34.8128
34.5362
34.5362
34.214
34.214
33.8474
33.8474
33.438
33.438
32.9871
32.9871
32.4963
32.4963
31.967
31.967
31.4009
31.4009
30.7994
30.7994
30.1641
30.1641
29.4966
29.4966
28.798
28.798
28.0697
28.0697
27.3126
27.3126
26.5278
26.5278
25.716
25.716
24.8779
24.8779
24.014
24.014
23.1242
23.1242
22.2087
22.2087
21.2669
21.2669
20.298
20.298
19.3009
19.3009
18.2736
18.2736
17.2138
17.2138
16.118
16.118
14.9818
14.9818
13.7991
13.7991
12.5618
12.5618
11.2587
11.2586
9.87442
9.87442
8.3883
8.3883
6.77417
6.77417
5.01163
5.01163
3.14659
3.14659
1.46152
1.46152
0.425764
0.425763
0.0601018
0.0601017
0.00269273
0.00269272
)
;

boundaryField
{
    walls
    {
        type            kqRWallFunction;
        value           nonuniform List<scalar> 8(0.0026926 0.0026926 0.0026926 0.0026926 0.00269272 0.00269273 0.00269273 0.00269272);
    }
    inlet
    {
        type            cyclic;
    }
    outlet
    {
        type            cyclic;
    }
    sides
    {
        type            empty;
    }
}


// ************************************************************************* //
