/*--------------------------------*- C++ -*----------------------------------*\
| =========                 |                                                 |
| \\      /  F ield         | OpenFOAM: The Open Source CFD Toolbox           |
|  \\    /   O peration     | Version:  2012                                  |
|   \\  /    A nd           | Website:  www.openfoam.com                      |
|    \\/     M anipulation  |                                                 |
\*---------------------------------------------------------------------------*/
FoamFile
{
    version     2.0;
    format      ascii;
    class       volScalarField;
    location    "12500";
    object      nut;
}
// * * * * * * * * * * * * * * * * * * * * * * * * * * * * * * * * * * * * * //

dimensions      [0 2 -1 0 0 0 0];


internalField   nonuniform List<scalar> 
2560
(
1.76661e-09
1.76662e-09
2.26826e-07
2.26826e-07
4.77802e-06
4.77803e-06
3.5446e-05
3.5446e-05
0.000134284
0.000134284
0.000318871
0.000318871
0.000571623
0.000571624
0.000871239
0.000871239
0.00120331
0.00120331
0.00155876
0.00155876
0.00193164
0.00193164
0.00231782
0.00231782
0.00271431
0.00271431
0.00311883
0.00311883
0.00352958
0.00352958
0.0039451
0.0039451
0.0043642
0.0043642
0.00478585
0.00478585
0.00520917
0.00520918
0.00563339
0.00563339
0.00605782
0.00605782
0.00648182
0.00648182
0.00690483
0.00690484
0.00732632
0.00732632
0.00774578
0.00774578
0.00816274
0.00816274
0.00857674
0.00857674
0.00898737
0.00898737
0.00939418
0.00939418
0.00979678
0.00979678
0.0101948
0.0101948
0.0105877
0.0105877
0.0109753
0.0109753
0.0113572
0.0113572
0.0117329
0.0117329
0.0121021
0.0121021
0.0124645
0.0124645
0.0128198
0.0128198
0.0131676
0.0131676
0.0135076
0.0135076
0.0138397
0.0138397
0.0141634
0.0141634
0.0144787
0.0144788
0.0147854
0.0147854
0.0150833
0.0150833
0.0153723
0.0153723
0.0156525
0.0156525
0.0159238
0.0159238
0.0161863
0.0161864
0.0164404
0.0164404
0.0166862
0.0166862
0.0169242
0.0169242
0.0171547
0.0171547
0.0173786
0.0173786
0.0175964
0.0175964
0.0178092
0.0178092
0.0180179
0.0180179
0.0182237
0.0182237
0.018428
0.018428
0.0186324
0.0186324
0.0188384
0.0188384
0.0190479
0.0190479
0.0192629
0.0192629
0.0194855
0.0194855
0.0197177
0.0197177
0.0199618
0.0199618
0.02022
0.02022
0.0204943
0.0204943
0.0207867
0.0207867
0.0210991
0.0210991
0.0214328
0.0214328
0.0217892
0.0217892
0.022169
0.022169
0.0225727
0.0225727
0.0230002
0.0230002
0.023451
0.023451
0.0239242
0.0239242
0.0244185
0.0244185
0.024932
0.024932
0.0254629
0.0254629
0.0260087
0.0260087
0.0265671
0.0265671
0.0271356
0.0271356
0.0277114
0.0277114
0.028292
0.028292
0.0288748
0.0288748
0.0294575
0.0294575
0.0300376
0.0300376
0.0306132
0.0306132
0.0311821
0.0311821
0.0317428
0.0317428
0.0322937
0.0322937
0.0328333
0.0328333
0.0333607
0.0333607
0.0338747
0.0338747
0.0343747
0.0343747
0.0348601
0.0348601
0.0353303
0.0353303
0.035785
0.035785
0.0362241
0.0362241
0.0366475
0.0366475
0.0370551
0.0370551
0.037447
0.037447
0.0378234
0.0378234
0.0381844
0.0381844
0.0385305
0.0385305
0.0388617
0.0388617
0.0391786
0.0391786
0.0394814
0.0394814
0.0397705
0.0397705
0.0400464
0.0400464
0.0403092
0.0403093
0.0405596
0.0405596
0.0407979
0.0407979
0.0410243
0.0410243
0.0412395
0.0412395
0.0414436
0.0414436
0.0416371
0.0416371
0.0418202
0.0418202
0.0419935
0.0419935
0.042157
0.042157
0.0423113
0.0423113
0.0424565
0.0424565
0.0425929
0.0425929
0.0427208
0.0427208
0.0428404
0.0428404
0.0429519
0.0429519
0.0430556
0.0430556
0.0431517
0.0431517
0.0432402
0.0432402
0.0433215
0.0433215
0.0433957
0.0433957
0.0434628
0.0434628
0.0435232
0.0435232
0.0435768
0.0435768
0.0436238
0.0436238
0.0436644
0.0436644
0.0436987
0.0436987
0.0437267
0.0437267
0.0437487
0.0437487
0.0437646
0.0437646
0.0437746
0.0437746
0.0437788
0.0437788
0.0437772
0.0437772
0.0437701
0.0437701
0.0437574
0.0437574
0.0437393
0.0437393
0.0437159
0.0437159
0.0436874
0.0436874
0.0436538
0.0436538
0.0436152
0.0436152
0.0435719
0.0435719
0.043524
0.043524
0.0434717
0.0434717
0.0434151
0.0434151
0.0433544
0.0433544
0.04329
0.04329
0.0432219
0.0432219
0.0431505
0.0431505
0.043076
0.043076
0.0429986
0.0429986
0.0429187
0.0429187
0.0428363
0.0428363
0.0427518
0.0427518
0.0426654
0.0426654
0.0425772
0.0425772
0.0424874
0.0424874
0.0423961
0.0423961
0.0423034
0.0423034
0.0422093
0.0422093
0.0421139
0.0421139
0.0420173
0.0420173
0.0419195
0.0419195
0.0418206
0.0418206
0.0417208
0.0417208
0.0416202
0.0416202
0.041519
0.041519
0.0414174
0.0414174
0.0413156
0.0413156
0.0412139
0.0412139
0.0411127
0.0411127
0.0410122
0.0410122
0.0409127
0.0409127
0.0408145
0.0408145
0.040718
0.040718
0.0406234
0.0406234
0.0405311
0.0405311
0.0404414
0.0404414
0.0403545
0.0403545
0.0402709
0.0402709
0.040191
0.040191
0.0401151
0.0401151
0.0400437
0.0400437
0.0399775
0.0399775
0.039917
0.039917
0.0398629
0.0398629
0.0398159
0.0398159
0.0397767
0.0397767
0.0397462
0.0397462
0.0397252
0.0397252
0.0397146
0.0397146
0.0397152
0.0397152
0.0397277
0.0397277
0.039753
0.039753
0.0397918
0.0397918
0.0398446
0.0398446
0.0399119
0.0399119
0.0399941
0.0399941
0.0400916
0.0400916
0.0402046
0.0402046
0.0403334
0.0403334
0.0404783
0.0404783
0.0406393
0.0406394
0.0408166
0.0408166
0.04101
0.0410101
0.0412193
0.0412193
0.0414439
0.0414439
0.0416831
0.0416831
0.0419358
0.0419358
0.0422008
0.0422009
0.0424767
0.0424768
0.0427619
0.0427619
0.0430548
0.0430548
0.0433542
0.0433542
0.0436592
0.0436592
0.0439691
0.0439692
0.0442837
0.0442838
0.0446026
0.0446026
0.0449251
0.0449251
0.0452502
0.0452503
0.0455767
0.0455767
0.0459027
0.0459028
0.046227
0.0462271
0.0465482
0.0465483
0.0468654
0.0468654
0.0471778
0.0471779
0.0474853
0.0474854
0.0477878
0.0477879
0.0480861
0.0480862
0.0483814
0.0483815
0.0486754
0.0486755
0.0489696
0.0489698
0.0492652
0.0492653
0.0495621
0.0495622
0.0498595
0.0498597
0.0501553
0.0501554
0.050446
0.0504462
0.0507273
0.0507275
0.0509936
0.0509938
0.0512398
0.05124
0.0514624
0.0514626
0.0516608
0.0516609
0.0518371
0.0518372
0.0519964
0.0519966
0.0521455
0.0521456
0.0522914
0.0522915
0.0524402
0.0524403
0.052595
0.0525951
0.0527569
0.052757
0.0529259
0.052926
0.0531028
0.0531029
0.0532912
0.0532913
0.0534966
0.0534967
0.0537256
0.0537257
0.0539845
0.0539847
0.0542784
0.0542786
0.0546109
0.0546111
0.0549842
0.0549845
0.0554002
0.0554006
0.0558602
0.0558607
0.0563657
0.0563663
0.0569178
0.0569185
0.0575168
0.0575177
0.0581618
0.0581629
0.0588493
0.0588507
0.0595735
0.0595752
0.0603259
0.0603281
0.0610954
0.0610979
0.0618684
0.0618712
0.0626308
0.0626336
0.0633713
0.0633734
0.064084
0.0640845
0.0647569
0.0647556
0.0653703
0.0653678
0.065899
0.0658962
0.0663323
0.0663297
0.0666694
0.0666672
0.0669183
0.0669165
0.0670937
0.0670923
0.0672192
0.0672181
0.0673265
0.0673257
0.0674461
0.0674456
0.0675975
0.0675973
0.067785
0.067785
0.0680099
0.06801
0.068274
0.0682742
0.0685792
0.0685795
0.0689265
0.068927
0.0693174
0.069318
0.0697531
0.0697539
0.0702324
0.0702334
0.0707484
0.0707497
0.0712893
0.0712911
0.071841
0.0718432
0.0723856
0.0723884
0.0728953
0.0728989
0.0733321
0.0733362
0.0736597
0.0736641
0.0738593
0.0738635
0.0739373
0.0739412
0.0739198
0.073923
0.0738351
0.0738373
0.0737041
0.0737047
0.0735513
0.0735504
0.0733978
0.0733964
0.0732591
0.0732579
0.0731416
0.0731408
0.0730457
0.0730453
0.0729726
0.0729725
0.0729305
0.0729307
1.76662e-09
1.76661e-09
2.26826e-07
2.26826e-07
4.77803e-06
4.77802e-06
3.5446e-05
3.5446e-05
0.000134284
0.000134284
0.000318871
0.000318871
0.000571624
0.000571623
0.000871239
0.000871239
0.00120331
0.00120331
0.00155876
0.00155876
0.00193164
0.00193164
0.00231782
0.00231782
0.00271431
0.00271431
0.00311883
0.00311883
0.00352958
0.00352958
0.0039451
0.0039451
0.0043642
0.0043642
0.00478585
0.00478585
0.00520918
0.00520918
0.0056334
0.00563339
0.00605782
0.00605782
0.00648183
0.00648182
0.00690484
0.00690484
0.00732632
0.00732632
0.00774578
0.00774578
0.00816274
0.00816274
0.00857675
0.00857674
0.00898737
0.00898737
0.00939418
0.00939418
0.00979678
0.00979678
0.0101948
0.0101948
0.0105877
0.0105877
0.0109753
0.0109753
0.0113572
0.0113572
0.0117329
0.0117329
0.0121021
0.0121021
0.0124645
0.0124645
0.0128198
0.0128198
0.0131676
0.0131676
0.0135076
0.0135076
0.0138397
0.0138397
0.0141635
0.0141635
0.0144788
0.0144788
0.0147854
0.0147854
0.0150833
0.0150833
0.0153723
0.0153723
0.0156525
0.0156525
0.0159238
0.0159238
0.0161864
0.0161864
0.0164404
0.0164404
0.0166862
0.0166862
0.0169242
0.0169242
0.0171547
0.0171547
0.0173786
0.0173786
0.0175964
0.0175964
0.0178092
0.0178092
0.0180179
0.0180179
0.0182237
0.0182237
0.018428
0.018428
0.0186324
0.0186324
0.0188384
0.0188384
0.0190479
0.0190479
0.0192629
0.0192629
0.0194855
0.0194855
0.0197177
0.0197177
0.0199618
0.0199618
0.02022
0.02022
0.0204943
0.0204943
0.0207867
0.0207867
0.0210991
0.0210991
0.0214328
0.0214328
0.0217892
0.0217892
0.022169
0.022169
0.0225727
0.0225727
0.0230002
0.0230002
0.023451
0.023451
0.0239242
0.0239242
0.0244185
0.0244185
0.024932
0.024932
0.0254628
0.0254628
0.0260087
0.0260087
0.0265671
0.0265671
0.0271356
0.0271356
0.0277114
0.0277114
0.028292
0.028292
0.0288748
0.0288748
0.0294575
0.0294575
0.0300376
0.0300376
0.0306132
0.0306132
0.0311821
0.0311821
0.0317428
0.0317428
0.0322937
0.0322937
0.0328333
0.0328333
0.0333607
0.0333607
0.0338747
0.0338747
0.0343747
0.0343747
0.0348601
0.0348601
0.0353303
0.0353303
0.035785
0.035785
0.0362241
0.0362241
0.0366475
0.0366475
0.037055
0.037055
0.037447
0.037447
0.0378233
0.0378233
0.0381844
0.0381844
0.0385305
0.0385305
0.0388617
0.0388617
0.0391786
0.0391786
0.0394814
0.0394814
0.0397705
0.0397705
0.0400463
0.0400463
0.0403092
0.0403092
0.0405596
0.0405596
0.0407978
0.0407978
0.0410243
0.0410243
0.0412394
0.0412394
0.0414436
0.0414436
0.041637
0.041637
0.0418202
0.0418202
0.0419934
0.0419934
0.042157
0.042157
0.0423113
0.0423113
0.0424565
0.0424565
0.0425929
0.0425929
0.0427208
0.0427208
0.0428404
0.0428404
0.0429519
0.0429519
0.0430556
0.0430556
0.0431517
0.0431517
0.0432402
0.0432402
0.0433215
0.0433215
0.0433957
0.0433957
0.0434628
0.0434628
0.0435232
0.0435232
0.0435768
0.0435768
0.0436238
0.0436238
0.0436644
0.0436644
0.0436987
0.0436987
0.0437267
0.0437267
0.0437487
0.0437487
0.0437646
0.0437646
0.0437746
0.0437746
0.0437787
0.0437787
0.0437772
0.0437772
0.0437701
0.0437701
0.0437574
0.0437574
0.0437393
0.0437393
0.0437159
0.0437159
0.0436874
0.0436874
0.0436538
0.0436538
0.0436152
0.0436152
0.0435719
0.0435719
0.043524
0.043524
0.0434717
0.0434717
0.0434151
0.0434151
0.0433544
0.0433544
0.04329
0.04329
0.0432219
0.0432219
0.0431505
0.0431505
0.043076
0.043076
0.0429986
0.0429986
0.0429186
0.0429186
0.0428363
0.0428363
0.0427518
0.0427518
0.0426654
0.0426654
0.0425772
0.0425772
0.0424874
0.0424874
0.0423961
0.0423961
0.0423034
0.0423034
0.0422093
0.0422093
0.0421139
0.0421139
0.0420173
0.0420173
0.0419195
0.0419195
0.0418206
0.0418206
0.0417208
0.0417208
0.0416202
0.0416202
0.041519
0.041519
0.0414173
0.0414173
0.0413156
0.0413156
0.0412139
0.0412139
0.0411127
0.0411127
0.0410121
0.0410121
0.0409126
0.0409126
0.0408145
0.0408145
0.040718
0.040718
0.0406234
0.0406234
0.0405311
0.0405311
0.0404414
0.0404414
0.0403545
0.0403545
0.0402709
0.0402709
0.0401909
0.0401909
0.040115
0.040115
0.0400437
0.0400437
0.0399775
0.0399775
0.039917
0.039917
0.0398628
0.0398628
0.0398158
0.0398158
0.0397767
0.0397767
0.0397462
0.0397462
0.0397252
0.0397252
0.0397145
0.0397145
0.0397151
0.0397151
0.0397276
0.0397276
0.039753
0.039753
0.0397917
0.0397917
0.0398445
0.0398445
0.0399118
0.0399118
0.039994
0.039994
0.0400915
0.0400915
0.0402045
0.0402045
0.0403333
0.0403333
0.0404781
0.0404781
0.0406392
0.0406392
0.0408165
0.0408164
0.0410099
0.0410099
0.0412191
0.0412191
0.0414437
0.0414437
0.0416829
0.0416828
0.0419356
0.0419356
0.0422007
0.0422006
0.0424765
0.0424765
0.0427617
0.0427616
0.0430546
0.0430545
0.043354
0.0433539
0.043659
0.0436589
0.0439689
0.0439689
0.0442835
0.0442835
0.0446024
0.0446023
0.0449249
0.0449248
0.04525
0.04525
0.0455765
0.0455764
0.0459026
0.0459025
0.0462268
0.0462268
0.046548
0.046548
0.0468652
0.0468651
0.0471777
0.0471776
0.0474851
0.0474851
0.0477877
0.0477876
0.048086
0.0480859
0.0483813
0.0483812
0.0486753
0.0486752
0.0489696
0.0489695
0.0492651
0.049265
0.0495621
0.049562
0.0498596
0.0498594
0.0501553
0.0501552
0.0504462
0.050446
0.0507274
0.0507273
0.0509938
0.0509936
0.05124
0.0512399
0.0514626
0.0514625
0.051661
0.0516609
0.0518374
0.0518373
0.0519967
0.0519966
0.0521458
0.0521456
0.0522917
0.0522916
0.0524405
0.0524404
0.0525953
0.0525952
0.0527573
0.0527571
0.0529262
0.0529261
0.0531031
0.053103
0.0532915
0.0532914
0.0534968
0.0534968
0.0537258
0.0537257
0.0539848
0.0539846
0.0542787
0.0542785
0.0546111
0.0546109
0.0549845
0.0549842
0.0554005
0.0554001
0.0558605
0.0558601
0.0563661
0.0563655
0.0569182
0.0569175
0.0575173
0.0575165
0.0581624
0.0581613
0.0588502
0.0588488
0.0595746
0.0595729
0.0603274
0.0603253
0.0610972
0.0610947
0.0618705
0.0618676
0.0626329
0.0626301
0.0633728
0.0633707
0.064084
0.0640834
0.0647552
0.0647565
0.0653676
0.06537
0.0658962
0.0658989
0.0663299
0.0663324
0.0666675
0.0666697
0.0669169
0.0669187
0.0670928
0.0670942
0.0672186
0.0672197
0.0673262
0.0673269
0.067446
0.0674465
0.0675976
0.0675978
0.0677852
0.0677852
0.0680101
0.06801
0.0682742
0.068274
0.0685795
0.0685791
0.0689269
0.0689264
0.0693178
0.0693172
0.0697536
0.0697528
0.0702329
0.0702319
0.0707491
0.0707477
0.0712903
0.0712886
0.0718424
0.0718402
0.0723876
0.0723847
0.0728981
0.0728946
0.0733356
0.0733315
0.0736636
0.0736593
0.0738633
0.0738591
0.0739411
0.0739373
0.0739232
0.0739199
0.0738376
0.0738354
0.073705
0.0737044
0.0735508
0.0735516
0.0733967
0.0733981
0.0732582
0.0732594
0.0731411
0.0731419
0.0730455
0.073046
0.0729727
0.0729728
0.0729308
0.0729307
0.0729296
0.0729297
0.0729698
0.0729697
0.0730411
0.0730407
0.0731342
0.0731334
0.0732489
0.0732478
0.0733848
0.0733834
0.073535
0.0735342
0.0736847
0.0736854
0.0738112
0.0738135
0.0738885
0.0738918
0.0738989
0.0739027
0.0738155
0.0738196
0.073612
0.0736162
0.0732829
0.0732868
0.0728485
0.0728519
0.0723438
0.0723465
0.0718045
0.0718066
0.0712577
0.0712594
0.0707212
0.0707225
0.0702095
0.0702105
0.0697349
0.0697357
0.069304
0.0693046
0.0689179
0.0689183
0.0685751
0.0685754
0.0682744
0.0682747
0.0680147
0.0680149
0.0677942
0.0677942
0.0676108
0.0676106
0.0674633
0.0674628
0.0673471
0.0673463
0.0672434
0.0672423
0.0671212
0.0671197
0.0669474
0.0669456
0.0666982
0.066696
0.0663588
0.0663563
0.0659216
0.0659188
0.065389
0.0653865
0.0647729
0.0647716
0.0640983
0.0640988
0.0633847
0.0633868
0.0626433
0.062646
0.0618797
0.0618824
0.0611056
0.061108
0.0603348
0.0603369
0.0595811
0.0595828
0.0588557
0.0588571
0.058167
0.0581681
0.0575211
0.0575219
0.0569212
0.0569219
0.0563684
0.0563689
0.0558622
0.0558626
0.0554014
0.0554018
0.0549848
0.054985
0.0546107
0.054611
0.0542777
0.0542779
0.0539832
0.0539833
0.0537238
0.0537239
0.0534942
0.0534943
0.0532884
0.0532884
0.0530999
0.0531
0.052923
0.0529231
0.0527539
0.052754
0.0525915
0.0525917
0.0524361
0.0524362
0.0522865
0.0522866
0.0521396
0.0521397
0.0519899
0.05199
0.0518303
0.0518304
0.0516536
0.0516538
0.0514547
0.0514548
0.0512312
0.0512314
0.0509844
0.0509845
0.050718
0.0507181
0.050437
0.0504372
0.050147
0.0501471
0.0498524
0.0498526
0.0495564
0.0495565
0.0492606
0.0492607
0.0489658
0.0489659
0.0486718
0.0486719
0.0483777
0.0483778
0.048082
0.0480821
0.0477834
0.0477835
0.0474807
0.0474808
0.047173
0.0471731
0.0468604
0.0468604
0.0465432
0.0465432
0.0462221
0.0462222
0.045898
0.0458981
0.0455721
0.0455721
0.045246
0.0452461
0.0449214
0.0449215
0.0445995
0.0445996
0.0442815
0.0442815
0.0439678
0.0439678
0.0436584
0.0436585
0.0433539
0.0433539
0.0430548
0.0430549
0.0427622
0.0427622
0.0424772
0.0424773
0.0422016
0.0422016
0.0419368
0.0419368
0.0416842
0.0416843
0.0414452
0.0414452
0.0412206
0.0412206
0.0410112
0.0410112
0.0408176
0.0408176
0.0406401
0.0406401
0.0404788
0.0404789
0.0403338
0.0403338
0.0402049
0.0402049
0.0400919
0.0400919
0.0399944
0.0399944
0.0399123
0.0399123
0.039845
0.039845
0.0397923
0.0397923
0.0397536
0.0397537
0.0397284
0.0397284
0.039716
0.039716
0.0397155
0.0397155
0.0397262
0.0397262
0.0397472
0.0397472
0.0397777
0.0397777
0.0398169
0.0398169
0.0398639
0.0398639
0.0399181
0.0399181
0.0399786
0.0399786
0.0400448
0.0400448
0.0401162
0.0401162
0.0401921
0.0401921
0.0402721
0.0402721
0.0403558
0.0403558
0.0404426
0.0404426
0.0405323
0.0405323
0.0406246
0.0406246
0.0407192
0.0407192
0.0408157
0.0408157
0.0409138
0.0409138
0.0410133
0.0410133
0.0411139
0.0411139
0.0412151
0.0412151
0.0413168
0.0413168
0.0414186
0.0414186
0.0415202
0.0415202
0.0416215
0.0416215
0.0417221
0.0417221
0.0418219
0.0418219
0.0419208
0.0419208
0.0420186
0.0420186
0.0421152
0.0421152
0.0422106
0.0422106
0.0423048
0.0423048
0.0423976
0.0423976
0.0424889
0.0424889
0.0425788
0.0425788
0.042667
0.042667
0.0427534
0.0427534
0.0428379
0.0428379
0.0429203
0.0429203
0.0430002
0.0430002
0.0430776
0.0430776
0.0431521
0.0431521
0.0432236
0.0432236
0.0432916
0.0432916
0.0433561
0.0433561
0.0434168
0.0434168
0.0434734
0.0434734
0.0435258
0.0435258
0.0435737
0.0435737
0.043617
0.043617
0.0436556
0.0436556
0.0436893
0.0436893
0.0437178
0.0437178
0.0437413
0.0437413
0.0437594
0.0437594
0.0437721
0.0437721
0.0437793
0.0437793
0.0437809
0.0437809
0.0437768
0.0437768
0.0437669
0.0437669
0.043751
0.043751
0.0437292
0.0437292
0.0437012
0.0437012
0.0436671
0.0436671
0.0436265
0.0436265
0.0435795
0.0435795
0.0435259
0.0435259
0.0434656
0.0434656
0.0433985
0.0433985
0.0433244
0.0433244
0.0432432
0.0432432
0.0431547
0.0431547
0.0430587
0.0430587
0.042955
0.042955
0.0428435
0.0428435
0.0427239
0.0427239
0.042596
0.042596
0.0424596
0.0424596
0.0423144
0.0423144
0.0421601
0.0421601
0.0419965
0.0419965
0.0418232
0.0418232
0.0416399
0.0416399
0.0414464
0.0414464
0.0412421
0.0412421
0.0410268
0.0410268
0.0408003
0.0408003
0.040562
0.040562
0.0403116
0.0403116
0.0400487
0.0400487
0.0397729
0.0397729
0.0394838
0.0394838
0.039181
0.039181
0.0388641
0.0388641
0.0385329
0.0385329
0.0381869
0.0381869
0.0378257
0.0378257
0.0374493
0.0374493
0.0370574
0.0370574
0.0366499
0.0366499
0.0362265
0.0362266
0.0357875
0.0357875
0.0353329
0.0353329
0.0348628
0.0348628
0.0343775
0.0343775
0.0338775
0.0338775
0.0333634
0.0333634
0.0328359
0.0328359
0.032296
0.032296
0.0317448
0.0317448
0.0311837
0.0311837
0.0306145
0.0306145
0.0300388
0.0300388
0.0294585
0.0294585
0.0288757
0.0288757
0.0282927
0.0282927
0.0277118
0.0277118
0.0271358
0.0271358
0.0265671
0.0265671
0.0260083
0.0260084
0.0254622
0.0254622
0.0249311
0.0249311
0.0244173
0.0244173
0.0239229
0.0239229
0.0234495
0.0234495
0.0229985
0.0229985
0.0225708
0.0225708
0.0221669
0.0221669
0.0217869
0.0217869
0.0214303
0.0214303
0.0210964
0.0210964
0.0207839
0.0207839
0.0204913
0.0204913
0.0202169
0.0202169
0.0199587
0.0199587
0.0197145
0.0197145
0.0194822
0.0194822
0.0192596
0.0192596
0.0190445
0.0190445
0.0188349
0.0188349
0.0186288
0.0186288
0.0184244
0.0184244
0.0182201
0.0182201
0.0180143
0.0180143
0.0178057
0.0178057
0.017593
0.017593
0.0173752
0.0173752
0.0171516
0.0171516
0.0169211
0.0169211
0.0166833
0.0166833
0.0164376
0.0164376
0.0161836
0.0161836
0.0159212
0.0159212
0.0156501
0.0156501
0.01537
0.01537
0.0150812
0.0150812
0.0147834
0.0147834
0.0144769
0.0144769
0.0141617
0.0141617
0.0138381
0.0138381
0.0135062
0.0135062
0.0131662
0.0131662
0.0128185
0.0128185
0.0124633
0.0124633
0.012101
0.012101
0.0117319
0.0117319
0.0113562
0.0113562
0.0109745
0.0109745
0.0105869
0.0105869
0.010194
0.010194
0.00979605
0.00979605
0.00939352
0.00939352
0.00898677
0.00898677
0.00857621
0.00857621
0.00816227
0.00816227
0.00774537
0.00774537
0.00732596
0.00732596
0.00690452
0.00690452
0.00648155
0.00648155
0.00605758
0.00605758
0.00563319
0.00563319
0.005209
0.005209
0.0047857
0.0047857
0.00436408
0.00436408
0.003945
0.003945
0.00352949
0.00352949
0.00311877
0.00311877
0.00271427
0.00271427
0.00231779
0.00231779
0.00193162
0.00193162
0.00155875
0.00155875
0.00120331
0.00120331
0.00087124
0.000871241
0.000571627
0.000571627
0.000318874
0.000318874
0.000134287
0.000134287
3.54468e-05
3.54468e-05
4.77813e-06
4.77814e-06
2.2683e-07
2.2683e-07
1.76669e-09
1.76669e-09
0.0729299
0.0729297
0.0729699
0.07297
0.0730409
0.0730413
0.0731337
0.0731345
0.0732481
0.0732492
0.0733838
0.0733851
0.0735345
0.0735353
0.0736857
0.073685
0.0738138
0.0738115
0.073892
0.0738886
0.0739027
0.0738989
0.0738194
0.0738153
0.0736157
0.0736115
0.0732862
0.0732822
0.0728512
0.0728478
0.0723457
0.072343
0.0718058
0.0718037
0.0712586
0.071257
0.0707218
0.0707205
0.07021
0.070209
0.0697353
0.0697346
0.0693044
0.0693038
0.0689182
0.0689177
0.0685754
0.0685751
0.0682747
0.0682745
0.0680149
0.0680148
0.0677943
0.0677943
0.0676108
0.067611
0.0674632
0.0674637
0.0673468
0.0673476
0.0672428
0.067244
0.0671202
0.0671217
0.066946
0.0669479
0.0666963
0.0666985
0.0663564
0.066359
0.0659188
0.0659215
0.0653863
0.0653887
0.0647712
0.0647725
0.0640983
0.0640977
0.0633861
0.063384
0.0626453
0.0626425
0.0618817
0.0618789
0.0611073
0.0611048
0.0603362
0.0603342
0.0595822
0.0595805
0.0588565
0.0588552
0.0581677
0.0581666
0.0575216
0.0575207
0.0569216
0.056921
0.0563687
0.0563682
0.0558625
0.055862
0.0554017
0.0554013
0.054985
0.0549847
0.054611
0.0546107
0.0542779
0.0542777
0.0539834
0.0539833
0.053724
0.0537239
0.0534945
0.0534944
0.0532886
0.0532885
0.0531002
0.0531001
0.0529233
0.0529232
0.0527542
0.0527541
0.0525919
0.0525918
0.0524364
0.0524363
0.0522868
0.0522867
0.0521398
0.0521397
0.0519901
0.05199
0.0518305
0.0518304
0.0516539
0.0516537
0.0514549
0.0514548
0.0512314
0.0512312
0.0509846
0.0509844
0.0507181
0.050718
0.0504371
0.050437
0.0501471
0.0501469
0.0498525
0.0498523
0.0495564
0.0495562
0.0492606
0.0492604
0.0489658
0.0489657
0.0486717
0.0486716
0.0483776
0.0483775
0.0480819
0.0480819
0.0477833
0.0477832
0.0474805
0.0474805
0.0471729
0.0471728
0.0468602
0.0468601
0.046543
0.0465429
0.046222
0.0462219
0.0458978
0.0458977
0.0455719
0.0455718
0.0452458
0.0452458
0.0449212
0.0449211
0.0445993
0.0445993
0.0442813
0.0442812
0.0439675
0.0439675
0.0436582
0.0436582
0.0433537
0.0433536
0.0430546
0.0430546
0.042762
0.042762
0.042477
0.042477
0.0422014
0.0422013
0.0419366
0.0419366
0.041684
0.041684
0.041445
0.041445
0.0412204
0.0412204
0.041011
0.041011
0.0408174
0.0408174
0.0406399
0.0406399
0.0404787
0.0404787
0.0403337
0.0403337
0.0402048
0.0402048
0.0400918
0.0400917
0.0399943
0.0399943
0.0399122
0.0399122
0.0398449
0.0398449
0.0397922
0.0397922
0.0397536
0.0397536
0.0397284
0.0397284
0.0397159
0.0397159
0.0397154
0.0397154
0.0397261
0.0397261
0.0397471
0.0397471
0.0397776
0.0397776
0.0398168
0.0398168
0.0398639
0.0398639
0.039918
0.039918
0.0399786
0.0399786
0.0400448
0.0400448
0.0401162
0.0401162
0.0401921
0.0401921
0.0402721
0.0402721
0.0403557
0.0403557
0.0404426
0.0404426
0.0405323
0.0405323
0.0406246
0.0406246
0.0407191
0.0407191
0.0408156
0.0408156
0.0409138
0.0409138
0.0410133
0.0410133
0.0411138
0.0411138
0.0412151
0.0412151
0.0413168
0.0413168
0.0414185
0.0414185
0.0415202
0.0415202
0.0416215
0.0416215
0.0417221
0.0417221
0.0418219
0.0418219
0.0419208
0.0419208
0.0420186
0.0420186
0.0421152
0.0421152
0.0422106
0.0422106
0.0423048
0.0423048
0.0423976
0.0423976
0.0424889
0.0424889
0.0425788
0.0425788
0.042667
0.042667
0.0427534
0.0427534
0.0428379
0.0428379
0.0429203
0.0429203
0.0430002
0.0430002
0.0430776
0.0430776
0.0431521
0.0431521
0.0432236
0.0432236
0.0432916
0.0432916
0.0433561
0.0433561
0.0434168
0.0434168
0.0434734
0.0434734
0.0435258
0.0435258
0.0435737
0.0435737
0.043617
0.043617
0.0436556
0.0436556
0.0436892
0.0436892
0.0437178
0.0437178
0.0437413
0.0437413
0.0437594
0.0437594
0.0437721
0.0437721
0.0437793
0.0437793
0.0437809
0.0437809
0.0437768
0.0437768
0.0437669
0.0437669
0.043751
0.043751
0.0437292
0.0437292
0.0437012
0.0437012
0.0436671
0.0436671
0.0436265
0.0436265
0.0435795
0.0435795
0.0435259
0.0435259
0.0434656
0.0434656
0.0433985
0.0433985
0.0433244
0.0433244
0.0432431
0.0432431
0.0431546
0.0431546
0.0430587
0.0430587
0.042955
0.042955
0.0428435
0.0428435
0.0427239
0.0427239
0.042596
0.042596
0.0424596
0.0424596
0.0423143
0.0423143
0.0421601
0.0421601
0.0419965
0.0419965
0.0418232
0.0418232
0.0416399
0.0416399
0.0414464
0.0414464
0.0412421
0.0412421
0.0410268
0.0410268
0.0408002
0.0408002
0.040562
0.040562
0.0403116
0.0403116
0.0400487
0.0400487
0.0397729
0.0397729
0.0394838
0.0394838
0.039181
0.039181
0.0388641
0.0388641
0.0385329
0.0385329
0.0381869
0.0381869
0.0378257
0.0378257
0.0374493
0.0374493
0.0370574
0.0370574
0.0366498
0.0366498
0.0362265
0.0362265
0.0357875
0.0357875
0.0353329
0.0353329
0.0348628
0.0348628
0.0343775
0.0343775
0.0338775
0.0338775
0.0333634
0.0333634
0.0328359
0.0328359
0.032296
0.032296
0.0317448
0.0317448
0.0311837
0.0311837
0.0306145
0.0306145
0.0300387
0.0300387
0.0294585
0.0294585
0.0288757
0.0288757
0.0282926
0.0282926
0.0277118
0.0277118
0.0271358
0.0271358
0.0265671
0.026567
0.0260083
0.0260083
0.0254622
0.0254622
0.0249311
0.0249311
0.0244173
0.0244173
0.0239229
0.0239229
0.0234495
0.0234495
0.0229985
0.0229985
0.0225708
0.0225708
0.0221669
0.0221669
0.0217869
0.0217869
0.0214303
0.0214303
0.0210964
0.0210964
0.0207839
0.0207839
0.0204913
0.0204913
0.0202169
0.0202169
0.0199587
0.0199587
0.0197145
0.0197145
0.0194822
0.0194822
0.0192596
0.0192596
0.0190445
0.0190445
0.0188349
0.0188349
0.0186288
0.0186288
0.0184244
0.0184244
0.0182201
0.0182201
0.0180143
0.0180143
0.0178057
0.0178057
0.017593
0.017593
0.0173753
0.0173753
0.0171516
0.0171516
0.0169211
0.0169211
0.0166833
0.0166833
0.0164376
0.0164376
0.0161836
0.0161836
0.0159212
0.0159212
0.0156501
0.0156501
0.01537
0.01537
0.0150812
0.0150812
0.0147834
0.0147834
0.0144769
0.0144769
0.0141617
0.0141617
0.0138381
0.0138381
0.0135062
0.0135062
0.0131662
0.0131662
0.0128185
0.0128185
0.0124633
0.0124633
0.012101
0.012101
0.0117319
0.0117319
0.0113562
0.0113562
0.0109745
0.0109745
0.0105869
0.0105869
0.010194
0.010194
0.00979605
0.00979605
0.00939352
0.00939352
0.00898677
0.00898677
0.00857622
0.00857621
0.00816227
0.00816227
0.00774537
0.00774537
0.00732596
0.00732596
0.00690452
0.00690452
0.00648155
0.00648155
0.00605758
0.00605758
0.00563319
0.00563319
0.005209
0.005209
0.0047857
0.0047857
0.00436408
0.00436408
0.003945
0.003945
0.00352949
0.00352949
0.00311877
0.00311877
0.00271427
0.00271427
0.00231779
0.00231779
0.00193162
0.00193162
0.00155875
0.00155875
0.00120331
0.00120331
0.00087124
0.00087124
0.000571627
0.000571626
0.000318874
0.000318874
0.000134287
0.000134286
3.54468e-05
3.54467e-05
4.77813e-06
4.77813e-06
2.2683e-07
2.2683e-07
1.76669e-09
1.76668e-09
)
;

boundaryField
{
    walls
    {
        type            nutUWallFunction;
        blending        stepwise;
        Cmu             0.09;
        kappa           0.41;
        E               9.8;
        value           uniform 0;
    }
    inlet
    {
        type            cyclic;
    }
    outlet
    {
        type            cyclic;
    }
    sides
    {
        type            empty;
    }
}


// ************************************************************************* //
