/*--------------------------------*- C++ -*----------------------------------*\
| =========                 |                                                 |
| \\      /  F ield         | OpenFOAM: The Open Source CFD Toolbox           |
|  \\    /   O peration     | Version:  2106                                  |
|   \\  /    A nd           | Website:  www.openfoam.com                      |
|    \\/     M anipulation  |                                                 |
\*---------------------------------------------------------------------------*/
FoamFile
{
    version     2.0;
    format      ascii;
    arch        "LSB;label=32;scalar=64";
    class       volVectorField;
    location    "7000";
    object      U;
}
// * * * * * * * * * * * * * * * * * * * * * * * * * * * * * * * * * * * * * //

dimensions      [0 1 -1 0 0 0 0];

internalField   nonuniform List<vector> 
2560
(
(0.0069599 -3.15051e-16 -6.37971e-17)
(0.0069599 -1.73713e-19 -1.14813e-17)
(0.0209796 -4.6972e-15 -3.22577e-16)
(0.0209796 -2.17952e-18 -1.36379e-16)
(0.0352016 -2.83549e-15 -3.34637e-16)
(0.0352016 -4.65437e-18 -1.40369e-16)
(0.0496284 -3.02141e-15 -3.46517e-16)
(0.0496284 -7.39014e-18 -1.44471e-16)
(0.0642622 -2.98023e-15 -3.58667e-16)
(0.0642622 -1.02122e-17 -1.48683e-16)
(0.0791046 -2.9809e-15 -3.71132e-16)
(0.0791046 -1.3138e-17 -1.52996e-16)
(0.0941555 -2.97896e-15 -3.83836e-16)
(0.0941555 -1.61553e-17 -1.5739e-16)
(0.109412 -2.97204e-15 -3.96693e-16)
(0.109412 -1.92452e-17 -1.61825e-16)
(0.124867 -2.9651e-15 -4.09568e-16)
(0.124867 -2.24992e-17 -1.66244e-16)
(0.140505 -2.95854e-15 -4.22245e-16)
(0.140505 -2.59259e-17 -1.70555e-16)
(0.156305 -2.95199e-15 -4.34426e-16)
(0.156305 -2.93605e-17 -1.74639e-16)
(0.17223 -2.94534e-15 -4.45736e-16)
(0.17223 -3.28516e-17 -1.78347e-16)
(0.188233 -2.9386e-15 -4.55744e-16)
(0.188233 -3.65365e-17 -1.81513e-16)
(0.204253 -2.93166e-15 -4.64009e-16)
(0.204253 -4.0267e-17 -1.83966e-16)
(0.220218 -2.92428e-15 -4.70137e-16)
(0.220218 -4.4243e-17 -1.85558e-16)
(0.236044 -2.91664e-15 -4.7384e-16)
(0.236044 -4.83789e-17 -1.86182e-16)
(0.251649 -2.90894e-15 -4.74988e-16)
(0.251649 -5.23921e-17 -1.85798e-16)
(0.266951 -2.9012e-15 -4.73629e-16)
(0.266951 -5.65145e-17 -1.84429e-16)
(0.281878 -2.89353e-15 -4.69972e-16)
(0.281878 -6.05068e-17 -1.82172e-16)
(0.296369 -2.88581e-15 -4.64352e-16)
(0.296369 -6.44677e-17 -1.79162e-16)
(0.31038 -2.87817e-15 -4.57175e-16)
(0.31038 -6.84294e-17 -1.75564e-16)
(0.323882 -2.87079e-15 -4.48863e-16)
(0.323882 -7.20349e-17 -1.7154e-16)
(0.33686 -2.86377e-15 -4.39819e-16)
(0.33686 -7.54414e-17 -1.67249e-16)
(0.34931 -2.85691e-15 -4.30394e-16)
(0.34931 -7.8902e-17 -1.62828e-16)
(0.361241 -2.84988e-15 -4.20879e-16)
(0.361241 -8.23223e-17 -1.5839e-16)
(0.372666 -2.8429e-15 -4.11499e-16)
(0.372666 -8.59465e-17 -1.54025e-16)
(0.383606 -2.83592e-15 -4.02421e-16)
(0.383606 -8.97121e-17 -1.49801e-16)
(0.394081 -2.82905e-15 -3.93765e-16)
(0.394081 -9.31925e-17 -1.45742e-16)
(0.404118 -2.82242e-15 -3.85609e-16)
(0.404118 -9.62535e-17 -1.4187e-16)
(0.413741 -2.81584e-15 -3.78001e-16)
(0.413741 -9.9548e-17 -1.38219e-16)
(0.422974 -2.8093e-15 -3.70963e-16)
(0.422974 -1.03083e-16 -1.3479e-16)
(0.431843 -2.80306e-15 -3.64502e-16)
(0.431843 -1.06575e-16 -1.31594e-16)
(0.44037 -2.79742e-15 -3.58615e-16)
(0.44037 -1.09482e-16 -1.2861e-16)
(0.448577 -2.79219e-15 -3.5329e-16)
(0.448577 -1.11896e-16 -1.25835e-16)
(0.456485 -2.7871e-15 -3.48508e-16)
(0.456485 -1.14395e-16 -1.23257e-16)
(0.464114 -2.78195e-15 -3.44246e-16)
(0.464114 -1.17054e-16 -1.20869e-16)
(0.471481 -2.77676e-15 -3.40483e-16)
(0.471481 -1.19696e-16 -1.18667e-16)
(0.478603 -2.77176e-15 -3.37193e-16)
(0.478603 -1.22029e-16 -1.16638e-16)
(0.485496 -2.76696e-15 -3.34355e-16)
(0.485496 -1.24332e-16 -1.14766e-16)
(0.492174 -2.76208e-15 -3.31944e-16)
(0.492174 -1.26806e-16 -1.13052e-16)
(0.49865 -2.75742e-15 -3.29939e-16)
(0.49865 -1.28936e-16 -1.11483e-16)
(0.504936 -2.7527e-15 -3.28317e-16)
(0.504936 -1.30757e-16 -1.10039e-16)
(0.511044 -2.748e-15 -3.27061e-16)
(0.511044 -1.33317e-16 -1.08727e-16)
(0.516984 -2.74376e-15 -3.26153e-16)
(0.516984 -1.35467e-16 -1.07513e-16)
(0.522766 -2.73953e-15 -3.25578e-16)
(0.522766 -1.37261e-16 -1.06427e-16)
(0.528399 -2.73505e-15 -3.25318e-16)
(0.528399 -1.39486e-16 -1.05458e-16)
(0.533891 -2.73061e-15 -3.25358e-16)
(0.533891 -1.4141e-16 -1.04579e-16)
(0.539249 -2.7262e-15 -3.2569e-16)
(0.539249 -1.43387e-16 -1.03783e-16)
(0.544482 -2.72181e-15 -3.26297e-16)
(0.544482 -1.45643e-16 -1.03086e-16)
(0.549594 -2.71731e-15 -3.27174e-16)
(0.549594 -1.47764e-16 -1.02475e-16)
(0.554594 -2.71244e-15 -3.2831e-16)
(0.554594 -1.49645e-16 -1.01917e-16)
(0.559486 -2.70757e-15 -3.29694e-16)
(0.559486 -1.52047e-16 -1.01461e-16)
(0.564275 -2.70291e-15 -3.31321e-16)
(0.564275 -1.54268e-16 -1.01066e-16)
(0.568967 -2.69783e-15 -3.33182e-16)
(0.568967 -1.56867e-16 -1.00757e-16)
(0.573566 -2.69275e-15 -3.35268e-16)
(0.573566 -1.59872e-16 -1.00514e-16)
(0.578077 -2.68804e-15 -3.37577e-16)
(0.578077 -1.61819e-16 -1.00324e-16)
(0.582504 -2.68388e-15 -3.40102e-16)
(0.582504 -1.64238e-16 -1.00177e-16)
(0.58685 -2.67976e-15 -3.42844e-16)
(0.58685 -1.67038e-16 -1.0009e-16)
(0.591119 -2.67546e-15 -3.45792e-16)
(0.591119 -1.6885e-16 -1.00077e-16)
(0.595314 -2.6713e-15 -3.48947e-16)
(0.595314 -1.71152e-16 -1.00121e-16)
(0.599439 -2.66751e-15 -3.52308e-16)
(0.599439 -1.72611e-16 -1.00189e-16)
(0.603497 -2.66372e-15 -3.55874e-16)
(0.603497 -1.73855e-16 -1.00303e-16)
(0.607489 -2.65938e-15 -3.59639e-16)
(0.607489 -1.77078e-16 -1.00476e-16)
(0.61142 -2.65521e-15 -3.636e-16)
(0.61142 -1.78314e-16 -1.00714e-16)
(0.615291 -2.65095e-15 -3.67757e-16)
(0.615291 -1.8002e-16 -1.00973e-16)
(0.619105 -2.64669e-15 -3.7211e-16)
(0.619105 -1.82725e-16 -1.0129e-16)
(0.622863 -2.64221e-15 -3.76659e-16)
(0.622863 -1.85029e-16 -1.01668e-16)
(0.626569 -2.63755e-15 -3.81403e-16)
(0.626569 -1.87648e-16 -1.02065e-16)
(0.630223 -2.63319e-15 -3.8634e-16)
(0.630223 -1.89795e-16 -1.02542e-16)
(0.633829 -2.62805e-15 -3.91474e-16)
(0.633829 -1.92236e-16 -1.03053e-16)
(0.637387 -2.62228e-15 -3.96796e-16)
(0.637387 -1.95122e-16 -1.03592e-16)
(0.640899 -2.61754e-15 -4.02314e-16)
(0.640899 -1.98433e-16 -1.04165e-16)
(0.644367 -2.613e-15 -4.08022e-16)
(0.644367 -2.00977e-16 -1.04816e-16)
(0.647792 -2.60808e-15 -4.13916e-16)
(0.647792 -2.03149e-16 -1.05506e-16)
(0.651176 -2.60327e-15 -4.19999e-16)
(0.651176 -2.05636e-16 -1.06234e-16)
(0.65452 -2.59914e-15 -4.26264e-16)
(0.65452 -2.07777e-16 -1.06976e-16)
(0.657826 -2.59635e-15 -4.32725e-16)
(0.657826 -2.08756e-16 -1.07753e-16)
(0.661095 -2.59389e-15 -4.39381e-16)
(0.661095 -2.0937e-16 -1.08596e-16)
(0.664327 -2.59105e-15 -4.4338e-16)
(0.664327 -2.10408e-16 -1.09498e-16)
(0.667524 -2.58811e-15 -4.44683e-16)
(0.667524 -2.10924e-16 -1.10443e-16)
(0.670688 -2.58405e-15 -4.46058e-16)
(0.670688 -2.12281e-16 -1.11365e-16)
(0.673818 -2.58026e-15 -4.47488e-16)
(0.673818 -2.15031e-16 -1.12351e-16)
(0.676917 -2.57717e-15 -4.49094e-16)
(0.676917 -2.16378e-16 -1.13492e-16)
(0.679984 -2.57266e-15 -4.46594e-16)
(0.679984 -2.17577e-16 -1.14673e-16)
(0.683022 -2.56792e-15 -4.42535e-16)
(0.683022 -2.2106e-16 -1.15847e-16)
(0.68603 -2.56409e-15 -4.38632e-16)
(0.68603 -2.23859e-16 -1.17084e-16)
(0.68901 -2.55992e-15 -4.34876e-16)
(0.68901 -2.26753e-16 -1.18349e-16)
(0.691962 -2.55606e-15 -4.31296e-16)
(0.691962 -2.28276e-16 -1.19613e-16)
(0.694887 -2.55425e-15 -4.27759e-16)
(0.694887 -2.2709e-16 -1.21009e-16)
(0.697786 -2.55281e-15 -4.24338e-16)
(0.697786 -2.27479e-16 -1.22351e-16)
(0.70066 -2.55084e-15 -4.20915e-16)
(0.70066 -2.28811e-16 -1.2379e-16)
(0.703508 -2.54932e-15 -4.1757e-16)
(0.703508 -2.29044e-16 -1.25275e-16)
(0.706333 -2.54751e-15 -4.14292e-16)
(0.706333 -2.28724e-16 -1.26816e-16)
(0.709134 -2.54589e-15 -4.11115e-16)
(0.709134 -2.28949e-16 -1.28323e-16)
(0.711912 -2.54441e-15 -4.07888e-16)
(0.711912 -2.30547e-16 -1.29956e-16)
(0.714668 -2.54235e-15 -4.0472e-16)
(0.714668 -2.30701e-16 -1.31703e-16)
(0.717401 -2.53963e-15 -4.01636e-16)
(0.717401 -2.29899e-16 -1.33508e-16)
(0.720114 -2.53624e-15 -3.9874e-16)
(0.720114 -2.31108e-16 -1.35235e-16)
(0.722805 -2.53369e-15 -3.95897e-16)
(0.722805 -2.32324e-16 -1.36976e-16)
(0.725476 -2.53131e-15 -3.9304e-16)
(0.725476 -2.33864e-16 -1.38884e-16)
(0.728128 -2.52814e-15 -3.90267e-16)
(0.728128 -2.34227e-16 -1.40891e-16)
(0.730759 -2.52425e-15 -3.87754e-16)
(0.730759 -2.35305e-16 -1.4296e-16)
(0.733372 -2.52101e-15 -3.85381e-16)
(0.733372 -2.36672e-16 -1.45103e-16)
(0.735966 -2.5182e-15 -3.8311e-16)
(0.735966 -2.3665e-16 -1.47351e-16)
(0.738542 -2.51599e-15 -3.81164e-16)
(0.738542 -2.39295e-16 -1.49559e-16)
(0.7411 -2.51393e-15 -3.82209e-16)
(0.7411 -2.40988e-16 -1.51949e-16)
(0.743641 -2.50996e-15 -3.85614e-16)
(0.743641 -2.42189e-16 -1.54292e-16)
(0.746165 -2.5059e-15 -3.89178e-16)
(0.746165 -2.45742e-16 -1.56639e-16)
(0.748671 -2.50267e-15 -3.92918e-16)
(0.748671 -2.48291e-16 -1.59319e-16)
(0.751162 -2.4985e-15 -3.96979e-16)
(0.751162 -2.50478e-16 -1.61962e-16)
(0.753636 -2.49416e-15 -4.01386e-16)
(0.753636 -2.53283e-16 -1.64611e-16)
(0.756095 -2.49029e-15 -4.06056e-16)
(0.756095 -2.56231e-16 -1.67349e-16)
(0.758538 -2.48779e-15 -4.10909e-16)
(0.758538 -2.59134e-16 -1.70072e-16)
(0.760966 -2.48715e-15 -4.15784e-16)
(0.760966 -2.58733e-16 -1.72918e-16)
(0.763379 -2.48625e-15 -4.2073e-16)
(0.763379 -2.58521e-16 -1.75813e-16)
(0.765778 -2.48499e-15 -4.25762e-16)
(0.765778 -2.58953e-16 -1.78792e-16)
(0.768162 -2.48148e-15 -4.30845e-16)
(0.768162 -2.59065e-16 -1.81925e-16)
(0.770532 -2.47735e-15 -4.3627e-16)
(0.770532 -2.59076e-16 -1.84961e-16)
(0.772889 -2.47435e-15 -4.41539e-16)
(0.772889 -2.58376e-16 -1.88173e-16)
(0.775231 -2.47094e-15 -4.46809e-16)
(0.775231 -2.60589e-16 -1.91313e-16)
(0.777561 -2.46697e-15 -4.52155e-16)
(0.777561 -2.62052e-16 -1.94728e-16)
(0.779877 -2.46292e-15 -4.57602e-16)
(0.779877 -2.61941e-16 -1.98098e-16)
(0.782181 -2.45859e-15 -4.62941e-16)
(0.782181 -2.62046e-16 -2.01662e-16)
(0.784471 -2.45369e-15 -4.68365e-16)
(0.784471 -2.63873e-16 -2.05407e-16)
(0.78675 -2.45015e-15 -4.73987e-16)
(0.78675 -2.6607e-16 -2.09338e-16)
(0.789016 -2.44691e-15 -4.7989e-16)
(0.789016 -2.68761e-16 -2.13397e-16)
(0.79127 -2.44171e-15 -4.85966e-16)
(0.79127 -2.72217e-16 -2.1736e-16)
(0.793512 -2.43706e-15 -4.92221e-16)
(0.793512 -2.75002e-16 -2.21448e-16)
(0.795742 -2.43076e-15 -4.98682e-16)
(0.795742 -2.78812e-16 -2.25799e-16)
(0.797961 -2.42131e-15 -5.05639e-16)
(0.797961 -2.82446e-16 -2.30656e-16)
(0.800169 -2.41486e-15 -5.13414e-16)
(0.800169 -2.8483e-16 -2.35642e-16)
(0.802365 -2.41022e-15 -5.21815e-16)
(0.802365 -2.87584e-16 -2.40183e-16)
(0.804551 -2.40596e-15 -5.30379e-16)
(0.804551 -2.91562e-16 -2.44826e-16)
(0.806725 -2.40456e-15 -5.39031e-16)
(0.806725 -2.90994e-16 -2.49871e-16)
(0.808889 -2.40517e-15 -5.47945e-16)
(0.808889 -2.8793e-16 -2.54951e-16)
(0.811043 -2.40523e-15 -5.56632e-16)
(0.811043 -2.8757e-16 -2.59822e-16)
(0.813186 -2.40586e-15 -5.65258e-16)
(0.813186 -2.88987e-16 -2.65218e-16)
(0.815318 -2.40726e-15 -5.7358e-16)
(0.815318 -2.89272e-16 -2.71078e-16)
(0.817441 -2.40748e-15 -5.82432e-16)
(0.817441 -2.89687e-16 -2.76228e-16)
(0.819554 -2.40503e-15 -5.90997e-16)
(0.819554 -2.9312e-16 -2.81629e-16)
(0.821657 -2.40306e-15 -5.99119e-16)
(0.821657 -2.94689e-16 -2.8786e-16)
(0.82375 -2.40192e-15 -6.07272e-16)
(0.82375 -2.95488e-16 -2.94203e-16)
(0.825833 -2.39965e-15 -6.15665e-16)
(0.825833 -2.99989e-16 -2.99906e-16)
(0.827907 -2.39674e-15 -6.23556e-16)
(0.827907 -3.03482e-16 -3.06444e-16)
(0.829972 -2.39241e-15 -6.31415e-16)
(0.829972 -3.05462e-16 -3.13052e-16)
(0.832028 -2.38894e-15 -6.39205e-16)
(0.832028 -3.13097e-16 -3.19554e-16)
(0.834074 -2.38291e-15 -6.46758e-16)
(0.834074 -3.19628e-16 -3.26523e-16)
(0.836112 -2.37618e-15 -6.54673e-16)
(0.836112 -3.25606e-16 -3.33442e-16)
(0.838141 -2.37288e-15 -6.62452e-16)
(0.838141 -3.3231e-16 -3.40732e-16)
(0.840161 -2.36904e-15 -6.70302e-16)
(0.840161 -3.38858e-16 -3.48019e-16)
(0.842172 -2.36406e-15 -6.77891e-16)
(0.842172 -3.47501e-16 -3.56093e-16)
(0.844175 -2.35769e-15 -6.86122e-16)
(0.844175 -3.53559e-16 -3.64215e-16)
(0.846169 -2.35163e-15 -6.94966e-16)
(0.846169 -3.59996e-16 -3.71817e-16)
(0.848155 -2.34736e-15 -7.04065e-16)
(0.848155 -3.6416e-16 -3.79822e-16)
(0.850132 -2.34326e-15 -7.13247e-16)
(0.850132 -3.67961e-16 -3.87741e-16)
(0.852101 -2.34106e-15 -7.21507e-16)
(0.852101 -3.76587e-16 -3.96318e-16)
(0.854063 -2.33955e-15 -7.28987e-16)
(0.854063 -3.81553e-16 -4.06016e-16)
(0.856016 -2.33601e-15 -7.36943e-16)
(0.856016 -3.8529e-16 -4.15449e-16)
(0.857961 -2.32838e-15 -7.45834e-16)
(0.857961 -3.94257e-16 -4.23786e-16)
(0.859899 -2.3156e-15 -7.53953e-16)
(0.859899 -4.05307e-16 -4.3287e-16)
(0.861829 -2.30564e-15 -7.62602e-16)
(0.861829 -4.09578e-16 -4.42966e-16)
(0.863751 -2.3037e-15 -7.70955e-16)
(0.863751 -4.08791e-16 -4.52394e-16)
(0.865665 -2.3028e-15 -7.7794e-16)
(0.865665 -4.10151e-16 -4.62202e-16)
(0.867572 -2.30288e-15 -7.84959e-16)
(0.867572 -4.11721e-16 -4.72606e-16)
(0.869472 -2.30488e-15 -7.91292e-16)
(0.869472 -4.15364e-16 -4.83288e-16)
(0.871364 -2.30206e-15 -7.96852e-16)
(0.871364 -4.209e-16 -4.94086e-16)
(0.873249 -2.29726e-15 -8.0237e-16)
(0.873249 -4.2186e-16 -5.05681e-16)
(0.875127 -2.29578e-15 -8.07649e-16)
(0.875127 -4.2686e-16 -5.17687e-16)
(0.876997 -2.29227e-15 -8.1244e-16)
(0.876997 -4.34441e-16 -5.30171e-16)
(0.878861 -2.28997e-15 -8.16772e-16)
(0.878861 -4.35444e-16 -5.42953e-16)
(0.880717 -2.28829e-15 -8.20125e-16)
(0.880717 -4.40752e-16 -5.55541e-16)
(0.882566 -2.28191e-15 -8.23055e-16)
(0.882566 -4.47037e-16 -5.68233e-16)
(0.884409 -2.27563e-15 -8.25214e-16)
(0.884409 -4.52798e-16 -5.82215e-16)
(0.886245 -2.27065e-15 -8.27034e-16)
(0.886245 -4.61272e-16 -5.9612e-16)
(0.888074 -2.26238e-15 -8.27963e-16)
(0.888074 -4.70695e-16 -6.08898e-16)
(0.889896 -2.25263e-15 -8.28669e-16)
(0.889896 -4.77411e-16 -6.08334e-16)
(0.891711 -2.24576e-15 -8.28427e-16)
(0.891711 -4.87823e-16 -6.07117e-16)
(0.89352 -2.23728e-15 -8.27314e-16)
(0.89352 -4.9766e-16 -6.05787e-16)
(0.895323 -2.22356e-15 -8.26843e-16)
(0.895323 -5.06207e-16 -6.04714e-16)
(0.897119 -2.21085e-15 -8.27128e-16)
(0.897119 -5.19599e-16 -6.02423e-16)
(0.898908 -2.19755e-15 -8.26309e-16)
(0.898908 -5.3103e-16 -5.99875e-16)
(0.900691 -2.18259e-15 -8.25018e-16)
(0.900691 -5.42288e-16 -5.96504e-16)
(0.902468 -2.16942e-15 -8.23142e-16)
(0.902468 -5.53311e-16 -5.93787e-16)
(0.904238 -2.15694e-15 -8.21044e-16)
(0.904238 -5.60358e-16 -5.90211e-16)
(0.906003 -2.14234e-15 -8.17898e-16)
(0.906003 -5.71853e-16 -5.8694e-16)
(0.907761 -2.12562e-15 -8.14638e-16)
(0.907761 -5.8234e-16 -5.83124e-16)
(0.909513 -2.11168e-15 -8.10547e-16)
(0.909513 -5.89968e-16 -5.78462e-16)
(0.911259 -2.10252e-15 -8.04394e-16)
(0.911259 -6.03558e-16 -5.74164e-16)
(0.912998 -2.09409e-15 -7.98126e-16)
(0.912998 -6.14616e-16 -5.68718e-16)
(0.914732 -2.08392e-15 -7.91023e-16)
(0.914732 -6.27956e-16 -5.6359e-16)
(0.91646 -2.07325e-15 -7.83382e-16)
(0.91646 -6.42452e-16 -5.56967e-16)
(0.918182 -2.06126e-15 -7.74969e-16)
(0.918182 -6.5829e-16 -5.5167e-16)
(0.919898 -2.04742e-15 -7.65576e-16)
(0.919898 -6.77628e-16 -5.47582e-16)
(0.921608 -2.0319e-15 -7.56613e-16)
(0.921608 -6.95037e-16 -5.42085e-16)
(0.923313 -2.01819e-15 -7.48325e-16)
(0.923313 -7.15507e-16 -5.34415e-16)
(0.925012 -2.0029e-15 -7.38408e-16)
(0.925012 -7.39209e-16 -5.2815e-16)
(0.926705 -1.98688e-15 -7.28401e-16)
(0.926705 -7.48838e-16 -5.2411e-16)
(0.928392 -1.97505e-15 -7.20536e-16)
(0.928392 -7.61987e-16 -5.16704e-16)
(0.930074 -1.96535e-15 -7.10005e-16)
(0.930074 -7.86207e-16 -5.07471e-16)
(0.93175 -1.94981e-15 -6.97405e-16)
(0.93175 -7.96745e-16 -4.99857e-16)
(0.93342 -1.9253e-15 -6.87016e-16)
(0.93342 -8.13143e-16 -4.92687e-16)
(0.935085 -1.90043e-15 -6.77632e-16)
(0.935085 -8.30458e-16 -4.8627e-16)
(0.936744 -1.88301e-15 -6.66695e-16)
(0.936744 -8.43455e-16 -4.79538e-16)
(0.938398 -1.8686e-15 -6.5411e-16)
(0.938398 -8.59598e-16 -4.73988e-16)
(0.940047 -1.85382e-15 -6.42985e-16)
(0.940047 -8.72843e-16 -4.67766e-16)
(0.94169 -1.83661e-15 -6.3167e-16)
(0.94169 -8.87912e-16 -4.62046e-16)
(0.943328 -1.81611e-15 -6.18899e-16)
(0.943328 -9.04799e-16 -4.54758e-16)
(0.94496 -1.79456e-15 -6.06779e-16)
(0.94496 -9.17888e-16 -4.46558e-16)
(0.946587 -1.77536e-15 -5.94645e-16)
(0.946587 -9.34733e-16 -4.40029e-16)
(0.948209 -1.75586e-15 -5.83846e-16)
(0.948209 -9.56718e-16 -4.34321e-16)
(0.949825 -1.73252e-15 -5.76495e-16)
(0.949825 -9.71564e-16 -4.25172e-16)
(0.951436 -1.71604e-15 -5.68917e-16)
(0.951436 -9.89588e-16 -4.13146e-16)
(0.953042 -1.69513e-15 -5.55457e-16)
(0.953042 -9.97836e-16 -4.04299e-16)
(0.954643 -1.67629e-15 -5.44745e-16)
(0.954643 -1.00499e-15 -4.02957e-16)
(0.956238 -1.66177e-15 -5.36202e-16)
(0.956238 -1.0164e-15 -4.037e-16)
(0.957829 -1.63892e-15 -5.28521e-16)
(0.957829 -1.02561e-15 -4.06455e-16)
(0.959414 -1.62399e-15 -5.20868e-16)
(0.959414 -1.04149e-15 -4.0798e-16)
(0.960994 -1.61114e-15 -5.1998e-16)
(0.960994 -1.05476e-15 -4.08715e-16)
(0.962569 -1.59397e-15 -5.23205e-16)
(0.962569 -1.05741e-15 -4.10275e-16)
(0.964139 -1.581e-15 -5.24357e-16)
(0.964139 -1.0577e-15 -4.08867e-16)
(0.965703 -1.56909e-15 -5.23278e-16)
(0.965703 -1.06819e-15 -4.08128e-16)
(0.967263 -1.55672e-15 -5.18034e-16)
(0.967263 -1.07361e-15 -4.05978e-16)
(0.968817 -1.54432e-15 -5.15526e-16)
(0.968817 -1.0661e-15 -4.04856e-16)
(0.970367 -1.52492e-15 -5.14334e-16)
(0.970367 -1.07616e-15 -4.05795e-16)
(0.971911 -1.50233e-15 -5.17231e-16)
(0.971911 -1.08614e-15 -4.07221e-16)
(0.973451 -1.48467e-15 -5.16704e-16)
(0.973451 -1.076e-15 -4.13097e-16)
(0.974985 -1.4725e-15 -5.11732e-16)
(0.974985 -1.08128e-15 -4.14405e-16)
(0.976515 -1.45529e-15 -5.10217e-16)
(0.976515 -1.08418e-15 -4.15032e-16)
(0.978039 -1.43878e-15 -5.13698e-16)
(0.978039 -1.07937e-15 -4.18912e-16)
(0.979558 -1.42461e-15 -5.13038e-16)
(0.979558 -1.07976e-15 -4.29249e-16)
(0.981073 -1.41723e-15 -5.11956e-16)
(0.981073 -1.08576e-15 -4.30821e-16)
(0.982582 -1.41366e-15 -5.06021e-16)
(0.982582 -1.08296e-15 -4.30363e-16)
(0.984086 -1.40058e-15 -5.02102e-16)
(0.984086 -1.08497e-15 -4.31819e-16)
(0.985586 -1.38826e-15 -4.98186e-16)
(0.985586 -1.10092e-15 -4.36358e-16)
(0.98708 -1.37482e-15 -4.94104e-16)
(0.98708 -1.09582e-15 -4.36984e-16)
(0.988569 -1.36396e-15 -4.92413e-16)
(0.988569 -1.09257e-15 -4.3567e-16)
(0.990053 -1.35215e-15 -4.88684e-16)
(0.990053 -1.09988e-15 -4.32956e-16)
(0.991532 -1.33805e-15 -4.8426e-16)
(0.991532 -1.10237e-15 -4.3248e-16)
(0.993006 -1.33197e-15 -4.84447e-16)
(0.993006 -1.0979e-15 -4.37389e-16)
(0.994475 -1.32512e-15 -4.79697e-16)
(0.994475 -1.08423e-15 -4.37423e-16)
(0.995939 -1.31682e-15 -4.72428e-16)
(0.995939 -1.07876e-15 -4.33038e-16)
(0.997398 -1.31446e-15 -4.66128e-16)
(0.997398 -1.06754e-15 -4.3016e-16)
(0.998852 -1.31262e-15 -4.55205e-16)
(0.998852 -1.04834e-15 -4.28249e-16)
(1.0003 -1.30168e-15 -4.50976e-16)
(1.0003 -1.05239e-15 -4.29201e-16)
(1.00174 -1.27748e-15 -4.45284e-16)
(1.00174 -1.06381e-15 -4.27224e-16)
(1.00318 -1.25908e-15 -4.39946e-16)
(1.00318 -1.06386e-15 -4.15385e-16)
(1.00461 -1.24292e-15 -4.23003e-16)
(1.00461 -1.07772e-15 -4.08754e-16)
(1.00604 -1.22198e-15 -4.2465e-16)
(1.00604 -1.0931e-15 -4.00026e-16)
(1.00746 -1.20608e-15 -4.34465e-16)
(1.00746 -1.09782e-15 -3.91461e-16)
(1.00888 -1.18588e-15 -4.46067e-16)
(1.00888 -1.11261e-15 -3.85398e-16)
(1.01029 -1.16177e-15 -4.35036e-16)
(1.01029 -1.11888e-15 -3.78349e-16)
(1.0117 -1.15757e-15 -4.35471e-16)
(1.0117 -1.11611e-15 -3.6349e-16)
(1.0131 -1.16203e-15 -4.3639e-16)
(1.0131 -1.11074e-15 -3.59446e-16)
(1.01449 -1.15745e-15 -4.25582e-16)
(1.01449 -1.10273e-15 -3.63145e-16)
(1.01588 -1.15427e-15 -4.33536e-16)
(1.01588 -1.08168e-15 -3.69926e-16)
(1.01727 -1.14321e-15 -4.25723e-16)
(1.01727 -1.07897e-15 -3.75706e-16)
(1.01864 -1.13467e-15 -4.24905e-16)
(1.01864 -1.08733e-15 -3.88188e-16)
(1.02002 -1.12718e-15 -4.243e-16)
(1.02002 -1.09432e-15 -4.10176e-16)
(1.02138 -1.12737e-15 -4.08518e-16)
(1.02138 -1.09044e-15 -4.16823e-16)
(1.02274 -1.13158e-15 -3.897e-16)
(1.02274 -1.08577e-15 -4.25669e-16)
(1.0241 -1.12614e-15 -3.95873e-16)
(1.0241 -1.08217e-15 -4.23186e-16)
(1.02545 -1.11666e-15 -4.05565e-16)
(1.02545 -1.09203e-15 -4.22891e-16)
(1.02679 -1.12716e-15 -4.17886e-16)
(1.02679 -1.09899e-15 -4.18228e-16)
(1.02812 -1.15867e-15 -4.06308e-16)
(1.02812 -1.07532e-15 -4.29786e-16)
(1.02945 -1.14203e-15 -3.90263e-16)
(1.02945 -1.08343e-15 -4.35623e-16)
(1.03077 -1.10828e-15 -3.9071e-16)
(1.03077 -1.09145e-15 -4.45269e-16)
(1.03209 -1.07839e-15 -3.86438e-16)
(1.03209 -1.08609e-15 -4.5413e-16)
(1.0334 -1.05571e-15 -3.8453e-16)
(1.0334 -1.09957e-15 -4.70361e-16)
(1.0347 -1.04831e-15 -3.77769e-16)
(1.0347 -1.09172e-15 -4.58137e-16)
(1.03599 -1.02942e-15 -3.75793e-16)
(1.03599 -1.07089e-15 -4.50206e-16)
(1.03728 -1.03841e-15 -3.85326e-16)
(1.03728 -1.05319e-15 -4.41582e-16)
(1.03856 -1.03227e-15 -3.78139e-16)
(1.03856 -1.05716e-15 -4.49328e-16)
(1.03983 -1.02599e-15 -3.89329e-16)
(1.03983 -1.07258e-15 -4.15287e-16)
(1.0411 -1.04452e-15 -3.92651e-16)
(1.0411 -1.05475e-15 -3.83069e-16)
(1.04235 -1.02442e-15 -3.89225e-16)
(1.04235 -1.03421e-15 -3.85501e-16)
(1.0436 -1.01714e-15 -3.87768e-16)
(1.0436 -1.01595e-15 -3.61919e-16)
(1.04484 -1.03349e-15 -3.78798e-16)
(1.04484 -1.00468e-15 -3.62161e-16)
(1.04607 -1.02955e-15 -3.71104e-16)
(1.04607 -9.93515e-16 -3.59505e-16)
(1.04729 -1.02771e-15 -3.57911e-16)
(1.04729 -9.88266e-16 -3.67631e-16)
(1.0485 -1.01824e-15 -3.39058e-16)
(1.0485 -9.91938e-16 -3.60664e-16)
(1.04971 -1.00475e-15 -3.44515e-16)
(1.04971 -9.90707e-16 -3.15591e-16)
(1.0509 -1.00099e-15 -3.37968e-16)
(1.0509 -9.79774e-16 -3.22921e-16)
(1.05208 -9.97097e-16 -3.23738e-16)
(1.05208 -9.77234e-16 -3.54173e-16)
(1.05325 -9.94712e-16 -3.09018e-16)
(1.05325 -9.62258e-16 -3.71978e-16)
(1.05442 -9.78947e-16 -3.09344e-16)
(1.05442 -9.38683e-16 -3.52161e-16)
(1.05557 -9.74448e-16 -3.18147e-16)
(1.05557 -9.50925e-16 -3.59339e-16)
(1.0567 -9.88346e-16 -3.14347e-16)
(1.0567 -9.93191e-16 -3.79042e-16)
(1.05783 -9.8269e-16 -2.93308e-16)
(1.05783 -9.81175e-16 -3.77967e-16)
(1.05894 -9.59731e-16 -2.8652e-16)
(1.05894 -9.76835e-16 -3.44644e-16)
(1.06004 -9.22287e-16 -2.79483e-16)
(1.06004 -9.80172e-16 -3.08749e-16)
(1.06113 -9.08886e-16 -2.88704e-16)
(1.06113 -9.43274e-16 -3.17481e-16)
(1.0622 -9.10061e-16 -2.77432e-16)
(1.0622 -9.11947e-16 -3.07697e-16)
(1.06325 -8.66065e-16 -2.55604e-16)
(1.06325 -8.80226e-16 -2.81929e-16)
(1.06429 -8.20322e-16 -2.54537e-16)
(1.06429 -8.43248e-16 -2.72338e-16)
(1.06532 -8.00048e-16 -2.51012e-16)
(1.06532 -8.08913e-16 -2.35492e-16)
(1.06633 -7.88521e-16 -2.44786e-16)
(1.06633 -7.90509e-16 -2.14325e-16)
(1.06731 -7.55363e-16 -2.32885e-16)
(1.06731 -7.70432e-16 -2.57862e-16)
(1.06828 -7.21892e-16 -2.49281e-16)
(1.06828 -7.10625e-16 -2.41744e-16)
(1.06923 -7.07093e-16 -1.85842e-16)
(1.06923 -7.18716e-16 -2.05837e-16)
(1.07016 -6.80045e-16 -2.06901e-16)
(1.07016 -7.07615e-16 -2.32629e-16)
(1.07106 -6.61492e-16 -2.43724e-16)
(1.07106 -6.52792e-16 -2.44249e-16)
(1.07195 -6.60318e-16 -2.17937e-16)
(1.07195 -6.80067e-16 -2.14132e-16)
(1.0728 -6.70099e-16 -1.76604e-16)
(1.0728 -6.76087e-16 -2.06212e-16)
(1.07363 -6.20525e-16 -1.84134e-16)
(1.07363 -6.40775e-16 -2.05593e-16)
(1.07443 -6.44559e-16 -2.07239e-16)
(1.07443 -6.05481e-16 -2.16838e-16)
(1.07521 -6.97957e-16 -1.61369e-16)
(1.07521 -5.94254e-16 -2.06172e-16)
(1.07595 -6.51047e-16 -1.1757e-16)
(1.07595 -6.1404e-16 -2.0037e-16)
(1.07665 -5.66156e-16 -1.44097e-16)
(1.07665 -6.29298e-16 -2.10754e-16)
(1.07732 -5.50205e-16 -1.5984e-16)
(1.07732 -5.75181e-16 -2.12389e-16)
(1.07795 -5.09333e-16 -1.25058e-16)
(1.07795 -5.2131e-16 -1.94971e-16)
(1.07854 -4.82949e-16 -1.432e-16)
(1.07854 -4.99339e-16 -1.77303e-16)
(1.07909 -4.84891e-16 -1.83854e-16)
(1.07909 -5.00396e-16 -1.76667e-16)
(1.07958 -4.96188e-16 -1.64714e-16)
(1.07958 -4.87865e-16 -1.38709e-16)
(1.08003 -4.53821e-16 -1.59528e-16)
(1.08003 -4.31288e-16 -1.39494e-16)
(1.08043 -4.14496e-16 -1.63576e-16)
(1.08043 -4.35193e-16 -1.17384e-16)
(1.08077 -4.13442e-16 -1.35454e-16)
(1.08077 -4.23288e-16 -1.78551e-16)
(1.08104 -3.99133e-16 -1.00961e-16)
(1.08104 -3.78516e-16 -2.01353e-16)
(1.08126 -3.71399e-16 -8.91003e-17)
(1.08126 -3.77441e-16 -3.05661e-16)
(1.0814 -3.72505e-16 -8.26725e-17)
(1.0814 -3.40128e-16 -3.29046e-16)
(1.08148 -3.47382e-16 -8.71398e-17)
(1.08148 -3.29715e-16 -3.25046e-16)
(0.0069599 -1.02757e-19 3.03729e-17)
(0.0069599 -1.38107e-19 6.07835e-18)
(0.0209796 -1.06124e-18 1.41467e-16)
(0.0209796 -5.3446e-19 2.39659e-17)
(0.0352016 -2.34092e-18 1.45583e-16)
(0.0352016 -1.45869e-18 2.46723e-17)
(0.0496284 -3.77466e-18 1.49808e-16)
(0.0496284 -2.37043e-18 2.5411e-17)
(0.0642622 -5.26695e-18 1.54139e-16)
(0.0642622 -3.32127e-18 2.61805e-17)
(0.0791046 -6.82455e-18 1.58567e-16)
(0.0791046 -4.33312e-18 2.69795e-17)
(0.0941555 -8.43305e-18 1.63069e-16)
(0.0941555 -5.37442e-18 2.7805e-17)
(0.109412 -1.01487e-17 1.67605e-16)
(0.109412 -6.39292e-18 2.86513e-17)
(0.124867 -1.18862e-17 1.72111e-16)
(0.124867 -7.5743e-18 2.95077e-17)
(0.140505 -1.36653e-17 1.76495e-16)
(0.140505 -8.81386e-18 3.03614e-17)
(0.156305 -1.55179e-17 1.8063e-16)
(0.156305 -1.00493e-17 3.11906e-17)
(0.17223 -1.7344e-17 1.84363e-16)
(0.17223 -1.1421e-17 3.19681e-17)
(0.188233 -1.92607e-17 1.8752e-16)
(0.188233 -1.28393e-17 3.26641e-17)
(0.204253 -2.12818e-17 1.89924e-16)
(0.204253 -1.42733e-17 3.32479e-17)
(0.220218 -2.33359e-17 1.91422e-16)
(0.220218 -1.56536e-17 3.36926e-17)
(0.236044 -2.54293e-17 1.91906e-16)
(0.236044 -1.69525e-17 3.39807e-17)
(0.251649 -2.76028e-17 1.91335e-16)
(0.251649 -1.81378e-17 3.41036e-17)
(0.266951 -2.98863e-17 1.89737e-16)
(0.266951 -1.94139e-17 3.40655e-17)
(0.281878 -3.21504e-17 1.87206e-16)
(0.281878 -2.07137e-17 3.38818e-17)
(0.296369 -3.42435e-17 1.83888e-16)
(0.296369 -2.20364e-17 3.35758e-17)
(0.31038 -3.62828e-17 1.7995e-16)
(0.31038 -2.333e-17 3.31794e-17)
(0.323882 -3.83665e-17 1.75569e-16)
(0.323882 -2.45453e-17 3.27201e-17)
(0.33686 -4.03408e-17 1.70906e-16)
(0.33686 -2.58058e-17 3.22233e-17)
(0.34931 -4.24417e-17 1.66104e-16)
(0.34931 -2.71969e-17 3.17143e-17)
(0.361241 -4.44938e-17 1.61273e-16)
(0.361241 -2.83905e-17 3.12155e-17)
(0.372666 -4.64259e-17 1.56509e-16)
(0.372666 -2.95409e-17 3.07443e-17)
(0.383606 -4.83778e-17 1.51878e-16)
(0.383606 -3.0851e-17 3.03139e-17)
(0.394081 -5.02744e-17 1.47421e-16)
(0.394081 -3.18756e-17 2.99424e-17)
(0.404118 -5.22098e-17 1.43165e-16)
(0.404118 -3.27849e-17 2.96287e-17)
(0.413741 -5.4096e-17 1.3912e-16)
(0.413741 -3.39841e-17 2.93695e-17)
(0.422974 -5.57801e-17 1.35296e-16)
(0.422974 -3.51933e-17 2.91765e-17)
(0.431843 -5.74876e-17 1.31692e-16)
(0.431843 -3.61675e-17 2.90472e-17)
(0.44037 -5.94805e-17 1.28302e-16)
(0.44037 -3.71714e-17 2.89809e-17)
(0.448577 -6.12374e-17 1.25113e-16)
(0.448577 -3.84487e-17 2.89705e-17)
(0.456485 -6.26167e-17 1.2212e-16)
(0.456485 -3.93639e-17 2.90228e-17)
(0.464114 -6.41892e-17 1.19315e-16)
(0.464114 -4.02594e-17 2.91304e-17)
(0.471481 -6.58896e-17 1.1668e-16)
(0.471481 -4.11771e-17 2.92938e-17)
(0.478603 -6.75949e-17 1.14205e-16)
(0.478603 -4.20516e-17 2.95084e-17)
(0.485496 -6.91975e-17 1.11872e-16)
(0.485496 -4.30846e-17 2.97862e-17)
(0.492174 -7.06039e-17 1.09676e-16)
(0.492174 -4.37846e-17 3.01226e-17)
(0.49865 -7.18844e-17 1.07614e-16)
(0.49865 -4.4412e-17 3.05135e-17)
(0.504936 -7.34335e-17 1.05676e-16)
(0.504936 -4.54618e-17 3.09549e-17)
(0.511044 -7.53258e-17 1.03843e-16)
(0.511044 -4.64383e-17 3.14469e-17)
(0.516984 -7.73001e-17 1.02103e-16)
(0.516984 -4.70067e-17 3.20062e-17)
(0.522766 -7.9074e-17 1.00459e-16)
(0.522766 -4.80626e-17 3.26041e-17)
(0.528399 -8.03314e-17 9.88993e-17)
(0.528399 -4.88229e-17 3.32518e-17)
(0.533891 -8.16595e-17 9.74297e-17)
(0.533891 -4.96511e-17 3.39602e-17)
(0.539249 -8.29682e-17 9.60393e-17)
(0.539249 -5.09184e-17 3.47168e-17)
(0.544482 -8.43449e-17 9.47218e-17)
(0.544482 -5.21673e-17 3.55146e-17)
(0.549594 -8.62516e-17 9.34721e-17)
(0.549594 -5.25591e-17 3.63698e-17)
(0.554594 -8.77611e-17 9.22658e-17)
(0.554594 -5.31916e-17 3.73025e-17)
(0.559486 -8.91241e-17 9.1119e-17)
(0.559486 -5.44473e-17 3.82679e-17)
(0.564275 -9.0614e-17 9.00202e-17)
(0.564275 -5.57721e-17 3.92852e-17)
(0.568967 -9.20479e-17 8.89676e-17)
(0.568967 -5.6735e-17 4.03496e-17)
(0.573566 -9.37352e-17 8.79576e-17)
(0.573566 -5.67484e-17 4.14844e-17)
(0.578077 -9.51683e-17 8.69841e-17)
(0.578077 -5.69949e-17 4.26913e-17)
(0.582504 -9.63652e-17 8.6035e-17)
(0.582504 -5.82124e-17 4.39745e-17)
(0.58685 -9.77233e-17 8.51362e-17)
(0.58685 -5.92385e-17 4.52984e-17)
(0.591119 -9.91301e-17 8.42639e-17)
(0.591119 -5.99385e-17 4.66663e-17)
(0.595314 -1.00625e-16 8.34079e-17)
(0.595314 -6.06879e-17 4.81053e-17)
(0.599439 -1.02023e-16 8.25581e-17)
(0.599439 -6.15635e-17 4.9644e-17)
(0.603497 -1.03221e-16 8.1736e-17)
(0.603497 -6.24035e-17 5.12224e-17)
(0.607489 -1.04278e-16 8.09453e-17)
(0.607489 -6.31831e-17 5.28257e-17)
(0.61142 -1.05329e-16 8.01679e-17)
(0.61142 -6.47138e-17 5.44778e-17)
(0.615291 -1.07248e-16 7.94447e-17)
(0.615291 -6.6443e-17 5.62002e-17)
(0.619105 -1.0946e-16 7.87405e-17)
(0.619105 -6.78892e-17 5.79467e-17)
(0.622863 -1.10798e-16 7.80334e-17)
(0.622863 -6.85071e-17 5.97573e-17)
(0.626569 -1.11696e-16 7.73541e-17)
(0.626569 -6.91427e-17 6.16471e-17)
(0.630223 -1.12477e-16 7.66777e-17)
(0.630223 -7.0419e-17 6.35816e-17)
(0.633829 -1.13332e-16 7.60068e-17)
(0.633829 -7.18325e-17 6.56085e-17)
(0.637387 -1.14474e-16 7.53454e-17)
(0.637387 -7.30968e-17 6.77148e-17)
(0.640899 -1.15204e-16 7.46792e-17)
(0.640899 -7.445e-17 6.98687e-17)
(0.644367 -1.16066e-16 7.40242e-17)
(0.644367 -7.57274e-17 7.20728e-17)
(0.647792 -1.17484e-16 7.3383e-17)
(0.647792 -7.57402e-17 7.43516e-17)
(0.651176 -1.18707e-16 7.27217e-17)
(0.651176 -7.51873e-17 7.67248e-17)
(0.65452 -1.19995e-16 7.20433e-17)
(0.65452 -7.52593e-17 7.92278e-17)
(0.657826 -1.21222e-16 7.13378e-17)
(0.657826 -7.54552e-17 8.18236e-17)
(0.661095 -1.22114e-16 7.06496e-17)
(0.661095 -7.63128e-17 8.44563e-17)
(0.664327 -1.23015e-16 6.99471e-17)
(0.664327 -7.77338e-17 8.71579e-17)
(0.667524 -1.23854e-16 6.92509e-17)
(0.667524 -7.89597e-17 8.9953e-17)
(0.670688 -1.25188e-16 6.85504e-17)