/*--------------------------------*- C++ -*----------------------------------*\
| =========                 |                                                 |
| \\      /  F ield         | OpenFOAM: The Open Source CFD Toolbox           |
|  \\    /   O peration     | Version:  2012                                  |
|   \\  /    A nd           | Website:  www.openfoam.com                      |
|    \\/     M anipulation  |                                                 |
\*---------------------------------------------------------------------------*/
FoamFile
{
    version     2.0;
    format      ascii;
    class       volSymmTensorField;
    location    "20000";
    object      turbulenceProperties:R;
}
// * * * * * * * * * * * * * * * * * * * * * * * * * * * * * * * * * * * * * //

dimensions      [0 2 -2 0 0 0 0];


internalField   nonuniform List<symmTensor> 
2560
(
(9.60033e-08 -2.74165e-12 -3.96897e-15 9.60033e-08 2.95044e-17 9.60033e-08)
(9.60033e-08 -2.74165e-12 -3.96897e-15 9.60033e-08 2.89805e-17 9.60033e-08)
(2.09095e-08 -3.43165e-12 -1.49764e-14 2.09095e-08 5.62251e-18 2.09095e-08)
(2.09095e-08 -3.43165e-12 -1.49764e-14 2.09095e-08 5.679e-18 2.09095e-08)
(5.33458e-08 -2.58244e-11 -1.55013e-13 5.33458e-08 2.11111e-17 5.33458e-08)
(5.33458e-08 -2.58244e-11 -1.55013e-13 5.33458e-08 2.13701e-17 5.33458e-08)
(1.82944e-07 -1.87785e-10 -1.14358e-12 1.82944e-07 1.56803e-16 1.82944e-07)
(1.82944e-07 -1.87785e-10 -1.14358e-12 1.82944e-07 1.58573e-16 1.82944e-07)
(4.7537e-07 -8.60785e-10 -5.31827e-12 4.7537e-07 7.28449e-16 4.7537e-07)
(4.7537e-07 -8.60785e-10 -5.31827e-12 4.7537e-07 7.36932e-16 4.7537e-07)
(1.01602e-06 -2.89644e-09 -1.81552e-11 1.01602e-06 2.48499e-15 1.01602e-06)
(1.01602e-06 -2.89644e-09 -1.81552e-11 1.01602e-06 2.51431e-15 1.01602e-06)
(1.90537e-06 -7.92339e-09 -5.03851e-11 1.90537e-06 6.8964e-15 1.90537e-06)
(1.90537e-06 -7.92339e-09 -5.03851e-11 1.90537e-06 6.97913e-15 1.90537e-06)
(3.25859e-06 -1.87212e-08 -1.20775e-10 3.25859e-06 1.65301e-14 3.25859e-06)
(3.25859e-06 -1.87212e-08 -1.20775e-10 3.25859e-06 1.67366e-14 3.25859e-06)
(5.20581e-06 -3.96812e-08 -2.5971e-10 5.20581e-06 3.55343e-14 5.20581e-06)
(5.20581e-06 -3.96812e-08 -2.5971e-10 5.20581e-06 3.60118e-14 5.20581e-06)
(7.89283e-06 -7.73666e-08 -5.1372e-10 7.89283e-06 7.02493e-14 7.89283e-06)
(7.89283e-06 -7.73666e-08 -5.1372e-10 7.89283e-06 7.131e-14 7.89283e-06)
(1.14819e-05 -1.41181e-07 -9.51061e-10 1.14819e-05 1.29914e-13 1.14819e-05)
(1.14819e-05 -1.41181e-07 -9.51061e-10 1.14819e-05 1.32257e-13 1.14819e-05)
(1.61524e-05 -2.44156e-07 -1.66861e-09 1.61524e-05 2.27002e-13 1.61524e-05)
(1.61524e-05 -2.44156e-07 -1.66861e-09 1.61524e-05 2.32072e-13 1.61524e-05)
(2.21023e-05 -4.0388e-07 -2.80028e-09 2.21023e-05 3.75888e-13 2.21023e-05)
(2.21023e-05 -4.0388e-07 -2.80028e-09 2.21023e-05 3.8642e-13 2.21023e-05)
(2.95486e-05 -6.43569e-07 -4.5268e-09 2.95486e-05 5.91537e-13 2.95486e-05)
(2.95486e-05 -6.43569e-07 -4.5268e-09 2.95486e-05 6.17826e-13 2.95486e-05)
(3.87285e-05 -9.93251e-07 -7.08745e-09 3.87285e-05 8.58755e-13 3.87285e-05)
(3.87285e-05 -9.93251e-07 -7.08745e-09 3.87285e-05 8.91676e-13 3.87285e-05)
(4.99008e-05 -1.49115e-06 -1.07939e-08 4.99008e-05 1.19504e-12 4.99008e-05)
(4.99008e-05 -1.49115e-06 -1.07939e-08 4.99008e-05 1.23095e-12 4.99008e-05)
(6.33465e-05 -2.18523e-06 -1.60465e-08 6.33465e-05 1.60998e-12 6.33465e-05)
(6.33465e-05 -2.18523e-06 -1.60465e-08 6.33465e-05 1.65523e-12 6.33465e-05)
(7.93702e-05 -3.13509e-06 -2.33546e-08 7.93702e-05 2.14988e-12 7.93702e-05)
(7.93702e-05 -3.13509e-06 -2.33546e-08 7.93702e-05 2.20707e-12 7.93702e-05)
(9.83004e-05 -4.41415e-06 -3.33605e-08 9.83004e-05 2.8874e-12 9.83004e-05)
(9.83004e-05 -4.41415e-06 -3.33605e-08 9.83004e-05 2.96255e-12 9.83004e-05)
(0.000120491 -6.11192e-06 -4.68633e-08 0.000120491 3.89889e-12 0.000120491)
(0.000120491 -6.11192e-06 -4.68633e-08 0.000120491 3.9987e-12 0.000120491)
(0.000146321 -8.33592e-06 -6.48426e-08 0.000146321 5.23972e-12 0.000146321)
(0.000146321 -8.33592e-06 -6.48426e-08 0.000146321 5.37338e-12 0.000146321)
(0.000176197 -1.12137e-05 -8.84882e-08 0.000176197 6.9128e-12 0.000176197)
(0.000176197 -1.12137e-05 -8.84882e-08 0.000176197 7.09151e-12 0.000176197)
(0.000210549 -1.48954e-05 -1.19236e-07 0.000210549 8.71708e-12 0.000210549)
(0.000210549 -1.48954e-05 -1.19236e-07 0.000210549 8.95445e-12 0.000210549)
(0.000249835 -1.9557e-05 -1.58809e-07 0.000249835 1.03586e-11 0.000249835)
(0.000249835 -1.9557e-05 -1.58809e-07 0.000249835 1.05862e-11 0.000249835)
(0.000294535 -2.54028e-05 -2.09252e-07 0.000294535 9.85778e-12 0.000294535)
(0.000294535 -2.54028e-05 -2.09252e-07 0.000294535 1.02397e-11 0.000294535)
(0.000345155 -3.26675e-05 -2.7297e-07 0.000345155 6.08853e-12 0.000345155)
(0.000345155 -3.26675e-05 -2.7297e-07 0.000345155 5.94416e-12 0.000345155)
(0.000402218 -4.16181e-05 -3.52766e-07 0.000402218 -1.32782e-12 0.000402218)
(0.000402218 -4.16181e-05 -3.52766e-07 0.000402218 3.59764e-13 0.000402218)
(0.000466267 -5.25553e-05 -4.51875e-07 0.000466267 -1.27137e-11 0.000466267)
(0.000466267 -5.25553e-05 -4.51875e-07 0.000466267 -1.18731e-11 0.000466267)
(0.000537856 -6.5815e-05 -5.74011e-07 0.000537856 -2.7255e-11 0.000537856)
(0.000537856 -6.5815e-05 -5.74011e-07 0.000537856 -2.62106e-11 0.000537856)
(0.000617545 -8.17699e-05 -7.23411e-07 0.000617545 7.79968e-12 0.000617545)
(0.000617545 -8.17699e-05 -7.23411e-07 0.000617545 -2.20531e-12 0.000617545)
(0.000705896 -0.000100832 -9.04899e-07 0.000705895 2.51771e-10 0.000705896)
(0.000705896 -0.000100832 -9.04899e-07 0.000705895 2.38945e-10 0.000705896)
(0.000803459 -0.000123456 -1.12392e-06 0.000803458 5.29999e-10 0.000803459)
(0.000803459 -0.000123456 -1.12392e-06 0.000803458 5.30873e-10 0.000803459)
(0.000910767 -0.000150133 -1.38656e-06 0.000910767 6.08061e-10 0.000910767)
(0.000910767 -0.000150133 -1.38656e-06 0.000910767 6.09113e-10 0.000910767)
(0.00102832 -0.000181388 -1.69944e-06 0.00102832 6.29219e-10 0.00102832)
(0.00102832 -0.000181388 -1.69944e-06 0.00102832 6.30424e-10 0.00102832)
(0.00115658 -0.000217759 -2.06964e-06 0.00115658 5.90443e-10 0.00115658)
(0.00115658 -0.000217759 -2.06964e-06 0.00115658 5.91491e-10 0.00115658)
(0.00129594 -0.000259784 -2.50453e-06 0.00129594 5.24466e-10 0.00129594)
(0.00129594 -0.000259784 -2.50453e-06 0.00129594 5.24845e-10 0.00129594)
(0.00144673 -0.000307982 -3.01163e-06 0.00144673 4.95678e-10 0.00144673)
(0.00144673 -0.000307982 -3.01163e-06 0.00144673 4.96702e-10 0.00144673)
(0.00160919 -0.000362838 -3.59852e-06 0.00160919 5.95621e-10 0.00160919)
(0.00160919 -0.000362838 -3.59852e-06 0.00160919 5.97101e-10 0.00160919)
(0.00178344 -0.000424788 -4.27267e-06 0.00178344 9.23657e-10 0.00178344)
(0.00178344 -0.000424788 -4.27267e-06 0.00178344 9.25648e-10 0.00178344)
(0.00196952 -0.000494224 -5.04149e-06 0.00196953 1.54595e-09 0.00196952)
(0.00196952 -0.000494224 -5.04149e-06 0.00196953 1.54808e-09 0.00196952)
(0.00216733 -0.000571494 -5.91244e-06 0.00216734 2.84592e-10 0.00216733)
(0.00216733 -0.000571494 -5.91244e-06 0.00216734 1.03078e-11 0.00216733)
(0.00237664 -0.000656929 -6.89329e-06 0.00237664 -6.78712e-10 0.00237664)
(0.00237664 -0.000656929 -6.89329e-06 0.00237664 -8.86485e-10 0.00237664)
(0.00259709 -0.000750865 -7.99224e-06 0.00259708 -8.36923e-10 0.00259709)
(0.00259709 -0.000750865 -7.99224e-06 0.00259708 -8.36534e-10 0.00259709)
(0.00282816 -0.000853633 -9.21765e-06 0.00282816 -6.16807e-10 0.00282816)
(0.00282816 -0.000853633 -9.21765e-06 0.00282816 -6.15516e-10 0.00282816)
(0.00306924 -0.000965508 -1.05772e-05 0.00306923 -5.14829e-10 0.00306924)
(0.00306924 -0.000965508 -1.05772e-05 0.00306923 -5.12359e-10 0.00306924)
(0.00331953 -0.00108661 -1.20766e-05 0.00331952 -6.66352e-10 0.00331953)
(0.00331953 -0.00108661 -1.20766e-05 0.00331952 -6.62541e-10 0.00331953)
(0.00357812 -0.00121682 -1.37187e-05 0.00357812 -1.18917e-09 0.00357812)
(0.00357812 -0.00121682 -1.37187e-05 0.00357812 -1.18602e-09 0.00357812)
(0.00384401 -0.00135572 -1.5503e-05 0.003844 -2.15479e-09 0.00384401)
(0.00384401 -0.00135572 -1.5503e-05 0.003844 -2.14875e-09 0.00384401)
(0.00411606 -0.00150264 -1.74263e-05 0.00411603 -4.34541e-09 0.00411606)
(0.00411606 -0.00150264 -1.74263e-05 0.00411603 -4.3376e-09 0.00411606)
(0.00439307 -0.00165671 -1.94831e-05 0.00439302 -9.92139e-09 0.00439307)
(0.00439307 -0.00165671 -1.94831e-05 0.00439302 -9.91187e-09 0.00439307)
(0.00467379 -0.00181687 -2.16643e-05 0.00467371 -2.20847e-08 0.00467379)
(0.00467379 -0.00181687 -2.16643e-05 0.00467371 -2.20734e-08 0.00467379)
(0.00495694 -0.00198156 -2.39519e-05 0.00495684 -4.44389e-08 0.00495694)
(0.00495694 -0.00198156 -2.39519e-05 0.00495684 -4.44295e-08 0.00495694)
(0.00524126 -0.00214831 -2.63123e-05 0.00524116 -6.40039e-08 0.00524126)
(0.00524126 -0.00214831 -2.63123e-05 0.00524116 -6.36071e-08 0.00524126)
(0.00552551 -0.00231306 -2.86855e-05 0.00552551 -5.76928e-08 0.00552551)
(0.00552551 -0.00231306 -2.86855e-05 0.00552551 -5.72731e-08 0.00552551)
(0.00580868 -0.00246945 -3.09763e-05 0.00580874 -5.3002e-08 0.00580868)
(0.00580868 -0.00246945 -3.09763e-05 0.00580874 -5.30024e-08 0.00580868)
(0.00608986 -0.00260863 -3.30532e-05 0.00609016 -6.61891e-08 0.00608986)
(0.00608986 -0.00260863 -3.30532e-05 0.00609016 -6.61849e-08 0.00608986)
(0.00636867 -0.00271982 -3.47592e-05 0.00636917 -6.78751e-08 0.00636867)
(0.00636867 -0.00271982 -3.47592e-05 0.00636917 -6.78734e-08 0.00636867)
(0.0066452 -0.002792 -3.59406e-05 0.00664578 -5.35603e-08 0.0066452)
(0.0066452 -0.002792 -3.59406e-05 0.00664578 -5.35637e-08 0.0066452)
(0.00692014 -0.00281667 -3.64889e-05 0.00692065 -5.63097e-09 0.00692014)
(0.00692014 -0.00281667 -3.64889e-05 0.00692065 -5.68544e-09 0.00692014)
(0.00719483 -0.00279104 -3.6386e-05 0.00719507 1.09072e-09 0.00719483)
(0.00719483 -0.00279104 -3.6386e-05 0.00719506 1.09169e-09 0.00719483)
(0.00747106 -0.00272045 -3.57363e-05 0.00747093 7.92727e-08 0.00747106)
(0.00747106 -0.00272045 -3.57363e-05 0.00747093 7.91918e-08 0.00747107)
(0.00775095 -0.00261927 -3.47724e-05 0.00775048 1.38253e-07 0.00775095)
(0.00775095 -0.00261927 -3.47724e-05 0.00775048 1.38086e-07 0.00775095)
(0.00803661 -0.00250942 -3.38273e-05 0.00803588 1.86649e-07 0.00803661)
(0.00803661 -0.00250942 -3.38273e-05 0.00803588 1.86296e-07 0.00803661)
(0.00832788 -0.00241677 -3.32768e-05 0.00833317 1.88877e-07 0.00832788)
(0.00832787 -0.00241677 -3.32768e-05 0.00833319 1.88099e-07 0.00832787)
(0.00863204 -0.00236631 -3.34701e-05 0.00863204 -6.87729e-08 0.00863205)
(0.00863193 -0.00236631 -3.34701e-05 0.00863228 -6.61911e-08 0.00863193)
(0.00894709 -0.00237778 -3.46741e-05 0.00893921 -2.7505e-07 0.00894709)
(0.00894707 -0.00237778 -3.46741e-05 0.00893926 -2.73976e-07 0.00894706)
(0.00926883 -0.0024628 -3.70376e-05 0.00926407 2.24661e-09 0.00926883)
(0.0092688 -0.0024628 -3.70376e-05 0.00926413 -7.58845e-10 0.0092688)
(0.0096008 -0.00262411 -4.05874e-05 0.00959903 -2.08796e-08 0.0096008)
(0.0096008 -0.00262411 -4.05874e-05 0.00959902 -2.15251e-08 0.0096008)
(0.00994262 -0.00285679 -4.52529e-05 0.00994293 -2.89569e-09 0.00994262)
(0.00994262 -0.00285679 -4.52529e-05 0.00994294 -3.28132e-09 0.00994262)
(0.0102937 -0.00315083 -5.09018e-05 0.010294 -2.57353e-09 0.0102937)
(0.0102937 -0.00315083 -5.09018e-05 0.010294 -2.36835e-09 0.0102937)
(0.0106518 -0.00349391 -5.73771e-05 0.0106522 3.12565e-08 0.0106518)
(0.0106518 -0.00349391 -5.73771e-05 0.0106522 3.11852e-08 0.0106518)
(0.0110155 -0.00387366 -6.45255e-05 0.0110157 4.51382e-08 0.0110155)
(0.0110155 -0.00387366 -6.45255e-05 0.0110157 4.51064e-08 0.0110155)
(0.0113828 -0.00427898 -7.22094e-05 0.0113829 5.11341e-08 0.0113828)
(0.0113828 -0.00427898 -7.22094e-05 0.0113829 5.1125e-08 0.0113828)
(0.0117516 -0.00470048 -8.03094e-05 0.0117516 5.14768e-08 0.0117516)
(0.0117516 -0.00470048 -8.03094e-05 0.0117516 5.14813e-08 0.0117516)
(0.0121197 -0.00513025 -8.87188e-05 0.0121197 4.86502e-08 0.0121197)
(0.0121197 -0.00513025 -8.87188e-05 0.0121197 4.86626e-08 0.0121197)
(0.0124849 -0.00556138 -9.73364e-05 0.0124849 4.46813e-08 0.0124849)
(0.0124849 -0.00556138 -9.73364e-05 0.0124849 4.46986e-08 0.0124849)
(0.012845 -0.00598763 -0.000106063 0.012845 4.0659e-08 0.012845)
(0.012845 -0.00598763 -0.000106063 0.012845 4.06802e-08 0.012845)
(0.0131979 -0.00640325 -0.000114801 0.0131978 3.69791e-08 0.0131979)
(0.0131979 -0.00640325 -0.000114801 0.0131978 3.70031e-08 0.0131979)
(0.0135412 -0.00680315 -0.000123464 0.0135412 3.33664e-08 0.0135412)
(0.0135412 -0.00680315 -0.000123464 0.0135412 3.33933e-08 0.0135412)
(0.0138731 -0.0071831 -0.000131972 0.0138731 -8.30663e-09 0.0138731)
(0.0138731 -0.0071831 -0.000131972 0.0138731 -7.46768e-09 0.0138731)
(0.0141916 -0.0075398 -0.000140261 0.0141916 -4.69952e-08 0.0141916)
(0.0141916 -0.0075398 -0.000140261 0.0141916 -4.61367e-08 0.0141916)
(0.0144951 -0.00787104 -0.000148285 0.0144951 -3.96274e-08 0.0144951)
(0.0144951 -0.00787104 -0.000148285 0.0144951 -3.95874e-08 0.0144951)
(0.014782 -0.00817563 -0.000156011 0.014782 -3.14282e-08 0.014782)
(0.014782 -0.00817563 -0.000156011 0.014782 -3.14265e-08 0.014782)
(0.0150511 -0.00845298 -0.000163412 0.0150507 -2.14695e-08 0.0150511)
(0.0150511 -0.00845298 -0.000163412 0.0150507 -2.12276e-08 0.0150511)
(0.0153008 -0.00870275 -0.000170463 0.0153008 -1.77496e-08 0.0153008)
(0.0153007 -0.00870275 -0.000170463 0.0153009 -1.82118e-08 0.0153007)
(0.0155305 -0.00892444 -0.000177128 0.0155305 1.39849e-10 0.0155305)
(0.0155304 -0.00892444 -0.000177128 0.0155307 4.02314e-09 0.0155304)
(0.0157393 -0.00911716 -0.000183363 0.0157393 3.62401e-08 0.0157393)
(0.0157393 -0.00911716 -0.000183363 0.0157392 3.49534e-08 0.0157393)
(0.0159264 -0.00927948 -0.000189109 0.0159264 4.7884e-08 0.0159264)
(0.0159264 -0.00927948 -0.000189109 0.0159264 4.80861e-08 0.0159264)
(0.0160915 -0.00940952 -0.000194298 0.0160915 5.66422e-08 0.0160915)
(0.0160915 -0.00940952 -0.000194298 0.0160915 5.6581e-08 0.0160915)
(0.0162342 -0.00950525 -0.000198859 0.0162342 4.89383e-08 0.0162342)
(0.0162342 -0.00950525 -0.000198859 0.0162342 4.90948e-08 0.0162342)
(0.0163546 -0.00956483 -0.000202726 0.0163546 3.32661e-09 0.0163546)
(0.0163546 -0.00956483 -0.000202726 0.0163546 3.39419e-09 0.0163546)
(0.0164527 -0.00958708 -0.000205849 0.0164528 -3.12988e-08 0.0164527)
(0.0164527 -0.00958708 -0.000205849 0.0164528 -3.12612e-08 0.0164527)
(0.0165292 -0.00957199 -0.000208209 0.0165293 -3.20199e-08 0.0165292)
(0.0165292 -0.00957199 -0.000208209 0.0165293 -3.199e-08 0.0165292)
(0.0165847 -0.00952105 -0.000209819 0.0165847 -3.07352e-08 0.0165847)
(0.0165847 -0.00952105 -0.000209819 0.0165847 -3.07093e-08 0.0165847)
(0.0166201 -0.00943742 -0.000210735 0.0166201 -2.73184e-08 0.0166201)
(0.0166201 -0.00943742 -0.000210735 0.0166201 -2.72951e-08 0.0166201)
(0.0166367 -0.00932581 -0.000211051 0.0166367 -2.18898e-08 0.0166367)
(0.0166367 -0.00932581 -0.000211051 0.0166367 -2.18678e-08 0.0166367)
(0.0166357 -0.00919237 -0.000210897 0.0166357 -1.52622e-08 0.0166357)
(0.0166357 -0.00919237 -0.000210897 0.0166357 -1.5242e-08 0.0166357)
(0.0166187 -0.00904413 -0.000210424 0.0166187 -7.99521e-09 0.0166187)
(0.0166187 -0.00904413 -0.000210424 0.0166187 -7.97632e-09 0.0166187)
(0.016587 -0.0088884 -0.000209794 0.0165869 9.42045e-10 0.016587)
(0.016587 -0.0088884 -0.000209794 0.0165869 6.54982e-10 0.016587)
(0.0165421 -0.0087322 -0.000209164 0.016542 4.00019e-09 0.0165421)
(0.0165421 -0.0087322 -0.000209164 0.016542 4.01782e-09 0.0165421)
(0.0164853 -0.00858174 -0.000208675 0.0164853 1.01866e-08 0.0164853)
(0.0164853 -0.00858174 -0.000208675 0.0164853 1.0204e-08 0.0164853)
(0.0164179 -0.00844201 -0.000208443 0.0164179 1.34191e-08 0.0164179)
(0.0164179 -0.00844201 -0.000208443 0.0164179 1.34359e-08 0.0164179)
(0.0163409 -0.00831658 -0.000208552 0.0163408 1.49809e-08 0.0163409)
(0.0163409 -0.00831658 -0.000208552 0.0163408 1.49971e-08 0.0163409)
(0.016255 -0.00820752 -0.000209052 0.016255 1.52181e-08 0.016255)
(0.016255 -0.00820752 -0.000209052 0.016255 1.52338e-08 0.016255)
(0.016161 -0.00811549 -0.000209963 0.016161 1.45345e-08 0.016161)
(0.016161 -0.00811549 -0.000209963 0.016161 1.45287e-08 0.016161)
(0.0160592 -0.00804 -0.000211276 0.0160592 1.31884e-08 0.0160592)
(0.0160592 -0.00804 -0.000211276 0.0160592 1.31644e-08 0.0160592)
(0.0159499 -0.00797954 -0.000212959 0.0159499 1.13541e-08 0.0159499)
(0.0159499 -0.00797954 -0.000212959 0.0159499 1.13517e-08 0.0159499)
(0.0158331 -0.00793189 -0.000214959 0.0158331 9.42465e-09 0.0158331)
(0.0158331 -0.00793189 -0.000214959 0.0158331 9.42251e-09 0.0158331)
(0.0157086 -0.00789423 -0.000217205 0.0157086 7.38514e-09 0.0157086)
(0.0157086 -0.00789423 -0.000217205 0.0157086 7.38265e-09 0.0157086)
(0.0155763 -0.0078633 -0.00021961 0.0155763 5.46691e-09 0.0155763)
(0.0155763 -0.0078633 -0.00021961 0.0155763 5.46456e-09 0.0155763)
(0.0154357 -0.00783539 -0.000222071 0.0154357 3.31404e-09 0.0154357)
(0.0154357 -0.00783539 -0.000222071 0.0154357 3.31203e-09 0.0154357)
(0.0152865 -0.00780643 -0.000224466 0.0152865 8.66916e-10 0.0152865)
(0.0152865 -0.00780643 -0.000224466 0.0152865 8.64517e-10 0.0152865)
(0.0151281 -0.00777197 -0.000226658 0.0151281 -2.07781e-09 0.0151281)
(0.0151281 -0.00777197 -0.000226658 0.0151281 -2.08277e-09 0.0151281)
(0.0149601 -0.00772732 -0.000228493 0.0149601 -5.38216e-09 0.0149601)
(0.0149601 -0.00772732 -0.000228493 0.0149601 -5.39414e-09 0.0149601)
(0.014782 -0.00766763 -0.000229808 0.014782 -9.19786e-09 0.014782)
(0.014782 -0.00766763 -0.000229808 0.014782 -9.19996e-09 0.014782)
(0.0145934 -0.00758819 -0.000230441 0.0145935 -1.29735e-08 0.0145934)
(0.0145934 -0.00758819 -0.000230441 0.0145935 -1.29757e-08 0.0145934)
(0.0143943 -0.00748474 -0.000230238 0.0143943 -1.66117e-08 0.0143943)
(0.0143943 -0.00748474 -0.000230238 0.0143943 -1.66141e-08 0.0143943)
(0.0141844 -0.00735379 -0.000229067 0.0141844 -2.05945e-08 0.0141844)
(0.0141844 -0.00735379 -0.000229067 0.0141844 -2.0596e-08 0.0141844)
(0.0139641 -0.00719306 -0.000226833 0.0139641 -2.43799e-08 0.0139641)
(0.0139641 -0.00719306 -0.000226833 0.0139641 -2.43823e-08 0.0139641)
(0.0137336 -0.00700173 -0.000223492 0.0137336 -2.84658e-08 0.0137336)
(0.0137336 -0.00700173 -0.000223492 0.0137336 -2.84681e-08 0.0137336)
(0.0134937 -0.00678071 -0.000219054 0.0134937 -3.35306e-08 0.0134937)
(0.0134937 -0.00678071 -0.000219054 0.0134937 -3.35346e-08 0.0134937)
(0.0132452 -0.00653267 -0.000213592 0.0132452 -3.96904e-08 0.0132452)
(0.0132452 -0.00653267 -0.000213592 0.0132452 -3.96949e-08 0.0132452)
(0.0129894 -0.00626199 -0.000207238 0.0129893 -4.75234e-08 0.0129894)
(0.0129894 -0.00626199 -0.000207238 0.0129893 -4.75276e-08 0.0129894)
(0.0127273 -0.00597442 -0.000200176 0.0127273 -5.74411e-08 0.0127273)
(0.0127273 -0.00597442 -0.000200176 0.0127273 -5.74452e-08 0.0127273)
(0.0124605 -0.00567672 -0.000192628 0.0124605 -6.91183e-08 0.0124605)
(0.0124605 -0.00567672 -0.000192628 0.0124605 -6.91222e-08 0.0124605)
(0.0121904 -0.00537601 -0.00018483 0.0121904 -8.28397e-08 0.0121904)
(0.0121904 -0.00537601 -0.00018483 0.0121904 -8.28437e-08 0.0121904)
(0.0119183 -0.00507925 -0.00017702 0.0119183 -9.75781e-08 0.0119183)
(0.0119183 -0.00507925 -0.00017702 0.0119183 -9.75731e-08 0.0119183)
(0.0116457 -0.00479263 -0.00016941 0.0116457 -1.12577e-07 0.0116457)
(0.0116457 -0.00479263 -0.00016941 0.0116457 -1.12578e-07 0.0116457)
(0.0113738 -0.0045211 -0.00016217 0.0113739 -1.25943e-07 0.0113738)
(0.0113738 -0.0045211 -0.00016217 0.0113739 -1.25944e-07 0.0113738)
(0.0111037 -0.00426807 -0.000155422 0.0111038 -1.35032e-07 0.0111037)
(0.0111037 -0.00426807 -0.000155422 0.0111038 -1.3503e-07 0.0111037)
(0.0108364 -0.00403529 -0.000149226 0.0108365 -1.38151e-07 0.0108364)
(0.0108364 -0.00403529 -0.000149226 0.0108365 -1.38149e-07 0.0108364)
(0.0105726 -0.00382284 -0.000143584 0.0105727 -1.33672e-07 0.0105726)
(0.0105726 -0.00382284 -0.000143584 0.0105727 -1.33671e-07 0.0105726)
(0.0103131 -0.00362943 -0.000138453 0.0103132 -1.20848e-07 0.0103131)
(0.0103131 -0.00362943 -0.000138453 0.0103132 -1.20812e-07 0.0103131)
(0.0100583 -0.00345274 -0.00013375 0.0100584 -1.00242e-07 0.0100583)
(0.0100583 -0.00345274 -0.00013375 0.0100584 -1.00206e-07 0.0100583)
(0.00980866 -0.00328982 -0.000129369 0.00980874 -7.15684e-08 0.00980866)
(0.00980866 -0.00328982 -0.000129369 0.00980874 -7.15332e-08 0.00980866)
(0.00956457 -0.00313747 -0.000125198 0.00956461 -3.64743e-08 0.00956457)
(0.00956457 -0.00313747 -0.000125198 0.00956461 -3.64393e-08 0.00956457)
(0.00932629 -0.00299268 -0.000121132 0.00932629 1.66924e-09 0.00932629)
(0.00932629 -0.00299268 -0.000121132 0.00932629 1.72933e-09 0.00932629)
(0.00909408 -0.00285294 -0.000117087 0.00909403 4.16122e-08 0.00909408)
(0.00909408 -0.00285294 -0.000117087 0.00909403 4.16458e-08 0.00909408)
(0.00886817 -0.00271639 -0.000113 0.00886809 7.7926e-08 0.00886817)
(0.00886817 -0.00271639 -0.000113 0.00886809 7.796e-08 0.00886817)
(0.00864879 -0.00258188 -0.000108842 0.00864869 1.08948e-07 0.00864879)
(0.00864879 -0.00258188 -0.000108842 0.00864869 1.08946e-07 0.00864879)
(0.00843618 -0.00244901 -0.000104609 0.00843606 1.31119e-07 0.00843618)
(0.00843618 -0.00244901 -0.000104609 0.00843606 1.31116e-07 0.00843618)
(0.00823056 -0.00231802 -0.000100326 0.00823045 1.43049e-07 0.00823056)
(0.00823056 -0.00231802 -0.000100326 0.00823045 1.43045e-07 0.00823056)
(0.00803217 -0.00218965 -9.60348e-05 0.00803207 1.45892e-07 0.00803217)
(0.00803217 -0.00218965 -9.60348e-05 0.00803207 1.45889e-07 0.00803217)
(0.00784123 -0.00206496 -9.17942e-05 0.00784115 1.40929e-07 0.00784123)
(0.00784123 -0.00206496 -9.17942e-05 0.00784115 1.40927e-07 0.00784123)
(0.00765794 -0.00194517 -8.76679e-05 0.00765789 1.30886e-07 0.00765794)
(0.00765794 -0.00194517 -8.76679e-05 0.00765789 1.30885e-07 0.00765794)
(0.0074825 -0.00183148 -8.37175e-05 0.00748248 1.16066e-07 0.0074825)
(0.0074825 -0.00183148 -8.37175e-05 0.00748248 1.16064e-07 0.0074825)
(0.00731509 -0.00172494 -7.99983e-05 0.00731509 9.86581e-08 0.00731509)
(0.00731509 -0.00172494 -7.99983e-05 0.00731509 9.86794e-08 0.00731509)
(0.00715583 -0.00162631 -7.65542e-05 0.00715585 8.02431e-08 0.00715583)
(0.00715583 -0.00162631 -7.65542e-05 0.00715585 8.0242e-08 0.00715583)
(0.00700484 -0.00153606 -7.34134e-05 0.00700487 6.27996e-08 0.00700484)
(0.00700484 -0.00153606 -7.34134e-05 0.00700487 6.27991e-08 0.00700484)
(0.00686219 -0.0014543 -7.05877e-05 0.00686223 4.74434e-08 0.00686219)
(0.00686219 -0.0014543 -7.05877e-05 0.00686223 4.74422e-08 0.00686219)
(0.00672794 -0.00138078 -6.80737e-05 0.00672797 3.47461e-08 0.00672794)
(0.00672794 -0.00138078 -6.80737e-05 0.00672797 3.47458e-08 0.00672794)
(0.0066021 -0.00131501 -6.58532e-05 0.00660213 2.46959e-08 0.0066021)
(0.0066021 -0.00131501 -6.58532e-05 0.00660213 2.46953e-08 0.0066021)
(0.00648466 -0.00125619 -6.38947e-05 0.00648469 1.70932e-08 0.00648466)
(0.00648466 -0.00125619 -6.38947e-05 0.00648469 1.70932e-08 0.00648466)
(0.00637562 -0.0012034 -6.21581e-05 0.00637564 1.16412e-08 0.00637562)
(0.00637562 -0.0012034 -6.21581e-05 0.00637564 1.16409e-08 0.00637562)
(0.00627491 -0.00115559 -6.05967e-05 0.00627493 6.3688e-09 0.00627491)
(0.00627491 -0.00115559 -6.05967e-05 0.00627493 5.82838e-09 0.00627491)
(0.0061825 -0.00111168 -5.91595e-05 0.00618251 -3.15674e-09 0.0061825)
(0.0061825 -0.00111168 -5.91595e-05 0.00618251 -3.77747e-09 0.0061825)
(0.00609831 -0.00107057 -5.77942e-05 0.00609831 -8.30234e-09 0.0060983)
(0.00609831 -0.00107057 -5.77942e-05 0.00609831 -8.52128e-09 0.0060983)
(0.00602226 -0.00103123 -5.64491e-05 0.00602226 -2.41078e-09 0.00602226)
(0.00602226 -0.00103123 -5.64491e-05 0.00602226 -1.10435e-10 0.00602226)
(0.00595428 -0.000992701 -5.50747e-05 0.00595429 1.01963e-09 0.00595428)
(0.00595428 -0.000992701 -5.50747e-05 0.00595429 1.46479e-09 0.00595428)
(0.00589429 -0.00095416 -5.36279e-05 0.00589429 1.2448e-09 0.00589429)
(0.00589429 -0.00095416 -5.36279e-05 0.00589429 2.04383e-09 0.00589429)
(0.0058422 -0.00091492 -5.2071e-05 0.0058422 1.96307e-10 0.0058422)
(0.0058422 -0.00091492 -5.2071e-05 0.0058422 1.55585e-09 0.0058422)
(0.00579793 -0.000874453 -5.03741e-05 0.00579793 1.06351e-09 0.00579793)
(0.00579793 -0.000874453 -5.03741e-05 0.00579793 1.49408e-09 0.00579793)
(0.00576139 -0.000832452 -4.85228e-05 0.00576139 1.04159e-09 0.00576139)
(0.00576139 -0.000832452 -4.85228e-05 0.00576139 1.2465e-09 0.00576139)
(0.0057325 -0.000788901 -4.65197e-05 0.0057325 1.22234e-09 0.0057325)
(0.0057325 -0.000788901 -4.65197e-05 0.0057325 1.15083e-09 0.0057325)
(0.00571117 -0.000744104 -4.43892e-05 0.00571117 1.13711e-09 0.00571117)
(0.00571117 -0.000744104 -4.43892e-05 0.00571117 1.05746e-09 0.00571117)
(0.00569732 -0.000698751 -4.21837e-05 0.00569732 1.13486e-09 0.00569732)
(0.00569732 -0.000698751 -4.21837e-05 0.00569732 9.95629e-10 0.00569732)
(0.00569084 -0.000653981 -3.99888e-05 0.00569084 1.06486e-09 0.00569084)
(0.00569084 -0.000653981 -3.99888e-05 0.00569084 9.33202e-10 0.00569084)
(0.00569165 -0.000611415 -3.79263e-05 0.00569165 1.01964e-09 0.00569165)
(0.00569165 -0.000611415 -3.79263e-05 0.00569165 8.81627e-10 0.00569165)
(0.00569965 -0.000573168 -3.61571e-05 0.00569965 9.57416e-10 0.00569965)
(0.00569965 -0.000573168 -3.61571e-05 0.00569965 8.3086e-10 0.00569965)
(0.00571471 -0.000541846 -3.48841e-05 0.00571471 9.04318e-10 0.00571471)
(0.00571471 -0.000541846 -3.48841e-05 0.00571471 7.84742e-10 0.00571471)
(0.00573674 -0.000520492 -3.43459e-05 0.00573674 8.48405e-10 0.00573674)
(0.00573674 -0.000520492 -3.43459e-05 0.00573674 7.40205e-10 0.00573674)
(0.00576559 -0.000512489 -3.48154e-05 0.00576559 7.98206e-10 0.00576559)
(0.00576559 -0.000512489 -3.48154e-05 0.00576559 6.99358e-10 0.00576559)
(0.00580114 -0.000521423 -3.65872e-05 0.00580114 7.46002e-10 0.00580114)
(0.00580114 -0.000521423 -3.65872e-05 0.00580114 6.57147e-10 0.00580114)
(0.00584324 -0.00055089 -3.99657e-05 0.00584324 7.00944e-10 0.00584324)
(0.00584324 -0.00055089 -3.99657e-05 0.00584324 6.20823e-10 0.00584324)
(0.00589174 -0.000604292 -4.52499e-05 0.00589174 6.52464e-10 0.00589173)
(0.00589174 -0.000604292 -4.52499e-05 0.00589174 5.80686e-10 0.00589173)
(0.00594645 -0.000684623 -5.27173e-05 0.00594645 6.09269e-10 0.00594645)
(0.00594645 -0.000684623 -5.27173e-05 0.00594645 5.44885e-10 0.00594645)
(0.00600719 -0.000794232 -6.26029e-05 0.00600719 5.65317e-10 0.00600719)
(0.00600719 -0.000794232 -6.26029e-05 0.00600719 5.07752e-10 0.00600719)
(0.00607371 -0.000934579 -7.50782e-05 0.00607371 5.24548e-10 0.00607371)
(0.00607371 -0.000934579 -7.50782e-05 0.00607371 4.73034e-10 0.00607371)
(0.00614572 -0.00110611 -9.02465e-05 0.00614572 4.80357e-10 0.00614572)
(0.00614572 -0.00110611 -9.02465e-05 0.00614572 4.34317e-10 0.00614572)
(0.00622285 -0.00130811 -0.000108111 0.00622285 4.43088e-10 0.00622285)
(0.00622285 -0.00130811 -0.000108111 0.00622285 4.01888e-10 0.00622285)
(0.00630466 -0.00153851 -0.000128574 0.00630466 4.00884e-10 0.00630466)
(0.00630466 -0.00153851 -0.000128574 0.00630466 3.64043e-10 0.00630466)
(0.00639058 -0.00179412 -0.000151447 0.00639058 3.66419e-10 0.00639058)
(0.00639058 -0.00179412 -0.000151447 0.00639058 3.33418e-10 0.00639058)
(0.00647991 -0.00207058 -0.000176427 0.00647991 3.28169e-10 0.00647991)
(0.00647991 -0.00207058 -0.000176427 0.00647991 2.99316e-10 0.00647991)
(0.00657185 -0.00236246 -0.000203125 0.00657185 2.90067e-10 0.00657185)
(0.00657185 -0.00236246 -0.000203125 0.00657185 2.63402e-10 0.00657185)
(0.00666545 -0.0026637 -0.000231082 0.00666545 2.62668e-10 0.00666545)
(0.00666545 -0.0026637 -0.000231082 0.00666545 2.38629e-10 0.00666545)
(0.00675965 -0.00296766 -0.000259768 0.00675965 2.30237e-10 0.00675965)
(0.00675965 -0.00296766 -0.000259768 0.00675965 2.08458e-10 0.00675965)
(0.00685329 -0.00326752 -0.000288625 0.00685329 2.00734e-10 0.00685329)
(0.00685329 -0.00326752 -0.000288625 0.00685329 1.80963e-10 0.00685329)
(0.00694516 -0.00355658 -0.000317082 0.00694517 1.77049e-10 0.00694516)
(0.00694516 -0.00355658 -0.000317082 0.00694517 1.58981e-10 0.00694516)
(0.00703403 -0.00382863 -0.000344595 0.00703404 1.5392e-10 0.00703403)
(0.00703403 -0.00382863 -0.000344595 0.00703404 1.37424e-10 0.00703403)
(0.00711869 -0.00407832 -0.000370676 0.00711869 1.34966e-10 0.00711869)
(0.00711869 -0.00407832 -0.000370676 0.00711869 1.19802e-10 0.00711869)
(0.00719796 -0.00430116 -0.000394874 0.00719796 1.12662e-10 0.00719796)
(0.00719796 -0.00430116 -0.000394874 0.00719796 1.08679e-10 0.00719796)
(0.00727081 -0.00449365 -0.000416825 0.00727081 7.69231e-11 0.00727081)
(0.00727081 -0.00449365 -0.000416825 0.00727081 8.57981e-11 0.00727081)
(0.0073363 -0.00465352 -0.00043626 0.0073363 8.38434e-11 0.0073363)
(0.0073363 -0.00465352 -0.00043626 0.0073363 8.83529e-11 0.0073363)
(0.00739368 -0.00477954 -0.000452976 0.00739368 -1.08416e-09 0.00739368)
(0.00739368 -0.00477954 -0.000452976 0.00739368 -1.06408e-09 0.00739368)
(0.00744236 -0.00487152 -0.000466874 0.00744236 -4.38964e-09 0.00744236)
(0.00744236 -0.00487152 -0.000466874 0.00744236 -4.34774e-09 0.00744236)
(0.00748193 -0.00493019 -0.00047792 0.00748193 -7.49116e-09 0.00748193)
(0.00748193 -0.00493019 -0.00047792 0.00748193 -7.48961e-09 0.00748193)
(0.00751217 -0.00495688 -0.000486132 0.00751217 -9.51479e-09 0.00751217)
(0.00751217 -0.00495688 -0.000486132 0.00751217 -9.51423e-09 0.00751217)
(0.00753302 -0.00495352 -0.0004916 0.00753302 -1.20096e-08 0.00753302)
(0.00753302 -0.00495352 -0.0004916 0.00753302 -1.19548e-08 0.00753302)
(0.0075446 -0.00492246 -0.000494443 0.00754461 -1.46161e-08 0.0075446)
(0.0075446 -0.00492246 -0.000494443 0.00754461 -1.46153e-08 0.0075446)
(0.00754717 -0.00486621 -0.000494801 0.00754717 -1.78005e-08 0.00754717)
(0.00754717 -0.00486621 -0.000494801 0.00754717 -1.77304e-08 0.00754717)
(0.00754112 -0.00478738 -0.000492843 0.00754112 -2.11535e-08 0.00754112)
(0.00754112 -0.00478738 -0.000492843 0.00754112 -2.1098e-08 0.00754112)
(0.00752694 -0.00468859 -0.000488734 0.00752694 -2.46253e-08 0.00752694)
(0.00752694 -0.00468859 -0.000488734 0.00752694 -2.45976e-08 0.00752694)
(0.00750522 -0.00457227 -0.000482632 0.00750522 -2.81743e-08 0.00750522)
(0.00750522 -0.00457227 -0.000482632 0.00750522 -2.8104e-08 0.00750522)