/*--------------------------------*- C++ -*----------------------------------*\
| =========                 |                                                 |
| \\      /  F ield         | OpenFOAM: The Open Source CFD Toolbox           |
|  \\    /   O peration     | Version:  2012                                  |
|   \\  /    A nd           | Website:  www.openfoam.com                      |
|    \\/     M anipulation  |                                                 |
\*---------------------------------------------------------------------------*/
FoamFile
{
    version     2.0;
    format      ascii;
    class       volScalarField;
    location    "11000";
    object      k;
}
// * * * * * * * * * * * * * * * * * * * * * * * * * * * * * * * * * * * * * //

dimensions      [0 2 -2 0 0 0 0];


internalField   nonuniform List<scalar> 
2560
(
0.0071953
0.00719008
0.204384
0.204249
1.41334
1.41248
4.31846
4.31636
7.92097
7.918
11.2757
11.2722
14.2517
14.2478
16.9247
16.9205
19.3722
19.3677
21.6503
21.6455
23.7982
23.7932
25.8439
25.8387
27.8081
27.8026
29.7062
29.7005
31.5503
31.5444
33.3499
33.3439
35.113
35.1068
36.846
36.8395
38.5543
38.5477
40.2427
40.2359
41.9151
41.9081
43.575
43.5678
45.2256
45.2182
46.8695
46.8619
48.5092
48.5015
50.1472
50.1393
51.7856
51.7774
53.4265
53.4181
55.0717
55.0631
56.7233
56.7145
58.383
58.374
60.0527
60.0434
61.7339
61.7244
63.4282
63.4185
65.1371
65.1271
66.8617
66.8515
68.6031
68.5926
70.3624
70.3517
72.1405
72.1295
73.9385
73.9273
75.7575
75.746
77.5986
77.5868
79.4627
79.4506
81.3505
81.3381
83.2622
83.2495
85.1969
85.1839
87.1528
87.1395
89.1266
89.113
91.1136
91.0997
93.1077
93.0935
95.1012
95.0866
97.0851
97.0702
99.0497
99.0345
100.986
100.97
102.888
102.872
104.757
104.741
106.609
106.592
108.472
108.454
110.383
110.365
112.38
112.361
114.466
114.446
116.581
116.56
118.61
118.589
120.392
120.37
121.754
121.733
122.557
122.536
122.728
122.708
122.274
122.255
121.266
121.25
119.822
119.807
118.072
118.058
116.14
116.128
114.132
114.121
112.124
112.113
110.167
110.156
108.289
108.279
106.499
106.489
104.791
104.782
103.153
103.144
101.564
101.556
100.006
99.998
98.4581
98.4512
96.9046
96.8986
95.3313
95.3261
93.7273
93.723
92.0846
92.0811
90.3976
90.3948
88.6629
88.6607
86.8796
86.878
85.0492
85.0481
83.1761
83.1754
81.2677
81.2672
79.334
79.3338
77.3879
77.3878
75.4435
75.4436
73.5155
73.5157
71.6173
71.6175
69.7601
69.7603
67.9516
67.9518
66.1963
66.1965
64.495
64.4952
62.8463
62.8465
61.2472
61.2475
59.6948
59.6951
58.1865
58.1868
56.7209
56.7212
55.2983
55.2986
53.9197
53.92
52.587
52.5874
51.3021
51.3024
50.0662
50.0665
48.8791
48.8794
47.7382
47.7385
46.6392
46.6395
45.5759
45.5762
44.5405
44.5408
43.5249
43.5252
42.5214
42.5218
41.5244
41.5248
40.531
40.5314
39.5417
39.5421
38.5601
38.5605
37.5925
37.5929
36.6463
36.6467
35.7288
35.7291
34.8454
34.8457
33.9997
34
33.1915
33.1918
32.4182
32.4185
31.6758
31.6761
30.9598
30.9601
30.2661
30.2663
29.5915
29.5918
28.9344
28.9347
28.2944
28.2946
27.672
27.6722
27.0681
27.0683
26.4841
26.4843
25.9209
25.9211
25.3792
25.3794
24.8593
24.8595
24.3611
24.3612
23.884
23.8841
23.427
23.4271
22.9891
22.9891
22.5688
22.5688
22.1648
22.1649
21.7759
21.776
21.4012
21.4012
21.04
21.04
20.6922
20.6922
20.3582
20.3581
20.0387
20.0386
19.7346
19.7345
19.4473
19.4472
19.1778
19.1777
18.9274
18.9272
18.697
18.6968
18.4874
18.4872
18.2992
18.2989
18.1327
18.1323
17.9877
17.9873
17.8641
17.8636
17.7611
17.7605
17.6775
17.6769
17.6118
17.6111
17.5615
17.5607
17.5235
17.5226
17.494
17.4931
17.4682
17.4672
17.4409
17.4398
17.4062
17.405
17.3586
17.3574
17.2932
17.292
17.2063
17.2051
17.096
17.095
16.963
16.9621
16.8102
16.8096
16.643
16.6427
16.4684
16.4683
16.2946
16.2945
16.1295
16.1294
15.98
15.98
15.851
15.851
15.7445
15.7444
15.6597
15.6596
15.5923
15.5922
15.5361
15.5361
15.4836
15.4837
15.427
15.4273
15.3595
15.36
15.2752
15.276
15.1703
15.1712
15.0427
15.0436
14.8924
14.8933
14.7211
14.722
14.5319
14.5327
14.3286
14.3293
14.1153
14.116
13.8966
13.8971
13.6765
13.677
13.459
13.4594
13.2473
13.2476
13.0444
13.0447
12.8525
12.8528
12.6737
12.6739
12.5094
12.5096
12.3607
12.3608
12.2285
12.2286
12.1132
12.1133
12.0151
12.0152
11.9341
11.9341
11.8693
11.8693
11.8194
11.8194
11.7825
11.7824
11.7553
11.7552
11.734
11.7339
11.7135
11.7134
11.6882
11.6881
11.6519
11.6517
11.5986
11.5984
11.523
11.5228
11.4213
11.4211
11.2917
11.2915
11.1348
11.1346
10.9537
10.9535
10.754
10.7538
10.5429
10.5427
10.3282
10.3281
10.117
10.1169
9.91454
9.91454
9.72447
9.72447
9.54685
9.54686
9.37972
9.37974
9.21969
9.21975
9.06295
9.06305
8.90603
8.90615
8.74655
8.74668
8.58404
8.58417
8.41963
8.41975
8.25556
8.25566
8.09455
8.09463
7.93923
7.9393
7.79166
7.79172
7.65314
7.65318
7.52429
7.52432
7.40508
7.40511
7.29527
7.29529
7.19456
7.19457
7.10273
7.10274
7.01969
7.0197
6.94544
6.94545
6.87997
6.87998
6.82317
6.82318
6.77481
6.77481
6.73447
6.73447
6.70166
6.70166
6.67578
6.67578
6.65626
6.65626
6.64258
6.64258
6.63432
6.63432
6.6312
6.6312
6.63309
6.6331
6.64003
6.64003
6.65216
6.65216
6.66969
6.66969
6.69291
6.69291
6.72203
6.72203
6.75724
6.75724
6.79861
6.79861
6.84614
6.84614
6.89973
6.89973
6.95924
6.95924
7.02454
7.02454
7.09551
7.09551
7.17204
7.17204
7.25407
7.25407
7.34155
7.34155
7.43444
7.43444
7.53272
7.53272
7.63634
7.63634
7.74528
7.74528
7.8595
7.8595
7.97894
7.97894
8.10357
8.10357
8.23338
8.23337
8.36836
8.36836
8.50859
8.50859
8.6542
8.6542
8.80539
8.80539
8.9624
8.9624
9.12548
9.12548
9.29487
9.29486
9.47074
9.47074
9.65322
9.65321
9.84237
9.84237
10.0382
10.0382
10.2409
10.2409
10.4503
10.4503
10.6667
10.6667
10.8903
10.8903
11.1215
11.1215
11.3606
11.3606
11.6081
11.6081
11.8646
11.8646
12.1306
12.1306
12.4068
12.4068
12.6937
12.6937
12.992
12.992
13.3022
13.3022
13.6249
13.6249
13.9606
13.9606
14.3099
14.3099
14.6729
14.6729
15.049
15.049
15.4357
15.4357
15.8256
15.8256
16.1984
16.1984
16.4994
16.4994
16.4786
16.4786
0.00719008
0.00719531
0.204249
0.204385
1.41248
1.41334
4.31636
4.31847
7.918
7.92098
11.2722
11.2757
14.2478
14.2517
16.9205
16.9247
19.3677
19.3722
21.6455
21.6503
23.7932
23.7982
25.8387
25.8439
27.8026
27.8081
29.7005
29.7062
31.5444
31.5503
33.3439
33.35
35.1068
35.113
36.8396
36.846
38.5477
38.5543
40.2359
40.2427
41.9081
41.9151
43.5679
43.5751
45.2182
45.2256
46.8619
46.8695
48.5015
48.5093
50.1393
50.1473
51.7775
51.7857
53.4181
53.4265
55.0631
55.0718
56.7145
56.7233
58.374
58.3831
60.0434
60.0527
61.7244
61.7339
63.4185
63.4283
65.1272
65.1372
66.8515
66.8617
68.5927
68.6032
70.3517
70.3624
72.1296
72.1406
73.9273
73.9386
75.746
75.7576
77.5868
77.5986
79.4506
79.4627
81.3382
81.3506
83.2495
83.2622
85.1839
85.1969
87.1395
87.1528
89.113
89.1267
91.0998
91.1137
93.0935
93.1078
95.0867
95.1012
97.0703
97.0852
99.0345
99.0498
100.97
100.986
102.872
102.888
104.741
104.758
106.592
106.609
108.454
108.472
110.365
110.383
112.361
112.381
114.446
114.466
116.56
116.581
118.589
118.61
120.371
120.392
121.733
121.754
122.536
122.557
122.708
122.728
122.255
122.274
121.25
121.266
119.807
119.822
118.058
118.072
116.128
116.141
114.121
114.132
112.113
112.124
110.156
110.167
108.279
108.289
106.489
106.499
104.782
104.791
103.144
103.153
101.556
101.564
99.998
100.006
98.4512
98.4582
96.8986
96.9047
95.3261
95.3313
93.723
93.7274
92.0811
92.0846
90.3948
90.3976
88.6608
88.6629
86.878
86.8796
85.0481
85.0492
83.1754
83.1762
81.2672
81.2677
79.3338
79.3341
77.3879
77.3879
75.4436
75.4436
73.5157
73.5155
71.6175
71.6173
69.7603
69.7601
67.9518
67.9516
66.1965
66.1963
64.4952
64.495
62.8465
62.8463
61.2475
61.2473
59.6951
59.6948
58.1868
58.1865
56.7212
56.7209
55.2986
55.2983
53.92
53.9197
52.5874
52.587
51.3024
51.3021
50.0665
50.0662
48.8794
48.8791
47.7385
47.7382
46.6395
46.6392
45.5762
45.5759
44.5408
44.5405
43.5252
43.5249
42.5218
42.5214
41.5248
41.5244
40.5314
40.531
39.5421
39.5417
38.5605
38.5601
37.5929
37.5925
36.6467
36.6463
35.7291
35.7287
34.8457
34.8454
34
33.9996
33.1917
33.1914
32.4184
32.4181
31.6761
31.6758
30.9601
30.9598
30.2663
30.2661
29.5917
29.5915
28.9346
28.9344
28.2946
28.2944
27.6721
27.6719
27.0683
27.0681
26.4843
26.4841
25.921
25.9209
25.3793
25.3792
24.8594
24.8593
24.3612
24.361
23.884
23.8839
23.427
23.4269
22.9891
22.989
22.5688
22.5687
22.1648
22.1648
21.7759
21.7759
21.4011
21.4011
21.0399
21.0399
20.6921
20.6921
20.3581
20.3581
20.0385
20.0386
19.7345
19.7346
19.4471
19.4472
19.1776
19.1777
18.9271
18.9273
18.6967
18.6969
18.4871
18.4874
18.2988
18.2992
18.1322
18.1326
17.9872
17.9877
17.8635
17.864
17.7604
17.761
17.6768
17.6774
17.6109
17.6117
17.5606
17.5614
17.5225
17.5234
17.4929
17.4939
17.4671
17.4682
17.4396
17.4408
17.4049
17.4061
17.3573
17.3585
17.2919
17.2931
17.205
17.2062
17.0949
17.096
16.962
16.9629
16.8095
16.8101
16.6426
16.6429
16.4682
16.4684
16.2944
16.2945
16.1293
16.1294
15.9799
15.9799
15.8509
15.8509
15.7443
15.7444
15.6594
15.6596
15.592
15.5921
15.5359
15.5359
15.4835
15.4834
15.4272
15.4269
15.3598
15.3593
15.2758
15.275
15.171
15.1701
15.0434
15.0425
14.8931
14.8922
14.7219
14.721
14.5326
14.5318
14.3292
14.3285
14.1159
14.1152
13.8971
13.8965
13.6769
13.6764
13.4593
13.4589
13.2476
13.2472
13.0446
13.0443
12.8527
12.8524
12.6738
12.6736
12.5095
12.5093
12.3607
12.3606
12.2284
12.2283
12.1131
12.1131
12.015
12.015
11.9339
11.9339
11.8691
11.8691
11.8192
11.8192
11.7821
11.7822
11.755
11.7551
11.7336
11.7337
11.7131
11.7133
11.6878
11.688
11.6515
11.6517
11.5982
11.5984
11.5226
11.5229
11.4209
11.4212
11.2913
11.2917
11.1345
11.1348
10.9535
10.9538
10.7538
10.754
10.5428
10.5429
10.3282
10.3282
10.117
10.117
9.91455
9.91456
9.72445
9.72446
9.54681
9.54681
9.37967
9.37966
9.21968
9.21962
9.06298
9.06287
8.9061
8.90596
8.74665
8.7465
8.58416
8.58402
8.41977
8.41963
8.25569
8.25557
8.09468
8.09458
7.93935
7.93926
7.79176
7.79169
7.65322
7.65316
7.52435
7.52431
7.40513
7.40509
7.29531
7.29527
7.19458
7.19456
7.10275
7.10272
7.0197
7.01969
6.94544
6.94543
6.87996
6.87995
6.82316
6.82315
6.77478
6.77477
6.73444
6.73444
6.70162
6.70162
6.67574
6.67574
6.65623
6.65623
6.64255
6.64255
6.6343
6.6343
6.63119
6.63119
6.63309
6.63309
6.64004
6.64004
6.65217
6.65217
6.66971
6.66971
6.69292
6.69292
6.72205
6.72205
6.75725
6.75726
6.79862
6.79863
6.84615
6.84615
6.89973
6.89973
6.95924
6.95925
7.02454
7.02455
7.0955
7.09551
7.17204
7.17204
7.25406
7.25407
7.34154
7.34155
7.43444
7.43444
7.53271
7.53271
7.63633
7.63634
7.74527
7.74528
7.85949
7.85949
7.97893
7.97894
8.10357
8.10357
8.23337
8.23337
8.36835
8.36836
8.50858
8.50859
8.6542
8.6542
8.80539
8.80539
8.9624
8.9624
9.12547
9.12548
9.29485
9.29486
9.47072
9.47073
9.6532
9.6532
9.84235
9.84235
10.0382
10.0382
10.2408
10.2408
10.4503
10.4503
10.6667
10.6667
10.8903
10.8903
11.1215
11.1215
11.3606
11.3606
11.6081
11.6081
11.8646
11.8646
12.1306
12.1306
12.4068
12.4068
12.6937
12.6937
12.9919
12.9919
13.3021
13.3021
13.6248
13.6248
13.9605
13.9605
14.3098
14.3098
14.6727
14.6727
15.0487
15.0487
15.4353
15.4353
15.8251
15.8251
16.1977
16.1977
16.4987
16.4987
16.478
16.478
16.4787
16.4787
16.4995
16.4995
16.1986
16.1986
15.8258
15.8258
15.4359
15.4359
15.0492
15.0492
14.6731
14.6731
14.3102
14.3102
13.9609
13.9609
13.6251
13.6251
13.3024
13.3024
12.9922
12.9922
12.694
12.694
12.4071
12.4071
12.1309
12.1309
11.8649
11.8649
11.6084
11.6084
11.3609
11.3609
11.1218
11.1218
10.8906
10.8906
10.667
10.667
10.4506
10.4506
10.2412
10.2412
10.0386
10.0386
9.84271
9.84271
9.65356
9.65356
9.47108
9.47108
9.29521
9.29521
9.12583
9.12583
8.96275
8.96275
8.80575
8.80574
8.65456
8.65456
8.50895
8.50894
8.3687
8.3687
8.2337
8.2337
8.10387
8.10387
7.97921
7.97921
7.85974
7.85974
7.74551
7.74551
7.63656
7.63656
7.53292
7.53292
7.43464
7.43463
7.34173
7.34173
7.25423
7.25423
7.17218
7.17218
7.09563
7.09563
7.02464
7.02464
6.95932
6.95932
6.89978
6.89978
6.84618
6.84617
6.79863
6.79862
6.75723
6.75723
6.72199
6.72199
6.69285
6.69285
6.66961
6.66961
6.65204
6.65204
6.63988
6.63988
6.63292
6.63292
6.63099
6.63099
6.63406
6.63406
6.64226
6.64226
6.65589
6.65589
6.67537
6.67537
6.70122
6.70122
6.73401
6.73401
6.77433
6.77433
6.82267
6.82268
6.87944
6.87945
6.94488
6.94489
7.0191
7.01911
7.10209
7.10211
7.19388
7.1939
7.29456
7.29459
7.40435
7.40438
7.52353
7.52357
7.65235
7.6524
7.79084
7.7909
7.93838
7.93846
8.09369
8.09378
8.25473
8.25483
8.41887
8.41899
8.58336
8.58349
8.74595
8.74609
8.90552
8.90564
9.06251
9.06261
9.21934
9.2194
9.37942
9.37945
9.5466
9.54661
9.72427
9.72427
9.91439
9.91439
10.1169
10.1168
10.3281
10.3281
10.5429
10.5428
10.7542
10.754
10.9541
10.9538
11.1352
11.135
11.2921
11.2919
11.4217
11.4215
11.5234
11.5231
11.5989
11.5987
11.6522
11.652
11.6885
11.6884
11.7138
11.7137
11.7343
11.7342
11.7556
11.7555
11.7827
11.7826
11.8196
11.8196
11.8694
11.8694
11.9342
11.9342
12.0152
12.0152
12.1132
12.1133
12.2284
12.2285
12.3606
12.3608
12.5092
12.5094
12.6735
12.6737
12.8523
12.8526
13.0441
13.0444
13.2469
13.2473
13.4586
13.459
13.6761
13.6766
13.8961
13.8967
14.1148
14.1155
14.328
14.3287
14.5313
14.5321
14.7204
14.7213
14.8916
14.8926
15.0419
15.0429
15.1695
15.1704
15.2743
15.2751
15.3585
15.3591
15.4259
15.4262
15.4824
15.4825
15.5348
15.5348
15.591
15.5909
15.6584
15.6583
15.7432
15.7431
15.8497
15.8496
15.9786
15.9786
16.1281
16.128
16.2931
16.2931
16.467
16.4668
16.6415
16.6412
16.8087
16.8081
16.9615
16.9606
17.0946
17.0935
17.2049
17.2036
17.2917
17.2904
17.3571
17.3557
17.4045
17.4033
17.4391
17.438
17.4664
17.4653
17.4921
17.4911
17.5216
17.5207
17.5594
17.5586
17.6097
17.6089
17.6753
17.6747
17.7588
17.7582
17.8617
17.8612
17.9852
17.9848
18.1301
18.1297
18.2965
18.2962
18.4846
18.4843
18.694
18.6938
18.9242
18.924
19.1745
19.1744
19.4438
19.4437
19.731
19.7309
20.0349
20.0348
20.3542
20.3542
20.688
20.688
21.0355
21.0355
21.3965
21.3965
21.771
21.7711
22.1597
22.1597
22.5634
22.5635
22.9834
22.9835
23.4211
23.4212
23.8779
23.878
24.3548
24.3549
24.8528
24.8529
25.3724
25.3726
25.9139
25.9141
26.4768
26.477
27.0606
27.0608
27.6641
27.6643
28.2862
28.2864
28.9258
28.9261
29.5825
29.5828
30.2567
30.257
30.95
30.9503
31.6656
31.6659
32.4076
32.408
33.1806
33.1809
33.9884
33.9888
34.8337
34.8341
35.7167
35.7171
36.6339
36.6343
37.5797
37.5801
38.5469
38.5474
39.5281
39.5285
40.517
40.5174
41.51
41.5104
42.5066
42.507
43.5097
43.51
44.525
44.5253
45.56
45.5603
46.6229
46.6232
47.7213
47.7216
48.8617
48.862
50.0483
50.0486
51.2837
51.284
52.568
52.5684
53.9001
53.9005
55.2781
55.2785
56.7002
56.7005
58.1651
58.1655
59.6728
59.6731
61.2246
61.2249
62.823
62.8233
64.4711
64.4714
66.1718
66.172
67.9265
67.9267
69.7342
69.7344
71.5907
71.5909
73.4882
73.4883
75.4155
75.4155
77.3592
77.3591
79.3048
79.3045
81.2381
81.2376
83.1463
83.1455
85.0191
85.0179
86.849
86.8472
88.6315
88.6291
90.3653
90.3622
92.0513
92.0475
93.6931
93.6882
95.296
95.2902
96.8682
96.8613
98.4205
98.4127
99.9669
99.9582
101.524
101.515
103.111
103.101
104.749
104.738
106.455
106.444
108.244
108.233
110.121
110.109
112.077
112.065
114.084
114.071
116.092
116.078
118.022
118.007
119.772
119.755
121.216
121.197
122.224
122.204
122.679
122.657
122.509
122.486
121.706
121.683
120.345
120.321
118.563
118.539
116.534
116.511
114.42
114.398
112.335
112.314
110.338
110.318
108.427
108.408
106.566
106.547
104.715
104.697
102.846
102.829
100.946
100.928
99.0109
98.9939
97.0477
97.0311
95.065
95.0488
93.0725
93.0567
91.0794
91.0639
89.0934
89.0783
87.1206
87.1058
85.1656
85.1512
83.2318
83.2177
81.321
81.3073
79.434
79.4206
77.5707
77.5576
75.7304
75.7176
73.9121
73.8997
72.1148
72.1026
70.3373
70.3255
68.5787
68.5671
66.8379
66.8266
65.114
65.1029
63.4057
63.3949
61.7119
61.7014
60.0313
60.021
58.3622
58.3521
56.703
56.6932
55.052
55.0425
53.4074
53.3981
51.7671
51.758
50.1293
50.1205
48.4919
48.4833
46.8527
46.8443
45.2093
45.2011
43.5593
43.5514
41.9
41.8922
40.2281
40.2206
38.5403
38.533
36.8325
36.8254
35.1001
35.0932
33.3376
33.331
31.5385
31.5321
29.6951
29.6888
27.7976
27.7916
25.8341
25.8283
23.789
23.7835
21.6418
21.6366
19.3645
19.3595
16.9178
16.9131
14.2456
14.2413
11.2705
11.2667
7.91692
7.91369
4.31584
4.31357
1.41235
1.41142
0.204236
0.20409
0.00719028
0.00718467
16.478
16.478
16.4988
16.4988
16.1979
16.1979
15.8253
15.8253
15.4355
15.4355
15.0489
15.0489
14.6729
14.6729
14.31
14.31
13.9608
13.9608
13.625
13.625
13.3023
13.3024
12.9922
12.9922
12.6939
12.6939
12.407
12.407
12.1309
12.1309
11.8649
11.8649
11.6084
11.6084
11.3609
11.3609
11.1218
11.1218
10.8906
10.8906
10.667
10.667
10.4506
10.4506
10.2412
10.2412
10.0385
10.0386
9.84269
9.8427
9.65354
9.65355
9.47106
9.47107
9.2952
9.2952
9.12582
9.12582
8.96274
8.96275
8.80574
8.80575
8.65455
8.65456
8.50894
8.50895
8.3687
8.3687
8.23369
8.2337
8.10386
8.10387
7.9792
7.9792
7.85973
7.85974
7.7455
7.74551
7.63655
7.63656
7.53291
7.53292
7.43463
7.43463
7.34172
7.34172
7.25422
7.25423
7.17217
7.17218
7.09562
7.09563
7.02464
7.02464
6.95932
6.95932
6.89978
6.89979
6.84618
6.84618
6.79864
6.79864
6.75724
6.75724
6.72201
6.72201
6.69287
6.69287
6.66963
6.66963
6.65205
6.65205
6.63989
6.63989
6.63292
6.63291
6.63098
6.63098
6.63404
6.63404
6.64223
6.64223
6.65586
6.65586
6.67533
6.67533
6.70118
6.70118
6.73398
6.73397
6.7743
6.77429
6.82265
6.82264
6.87943
6.87942
6.94488
6.94487
7.01911
7.01909
7.10211
7.10209
7.19391
7.19388
7.2946
7.29457
7.40439
7.40435
7.52359
7.52355
7.65244
7.65238
7.79095
7.79087
7.9385
7.93841
8.09382
8.09371
8.25486
8.25474
8.419
8.41886
8.58348
8.58333
8.74606
8.7459
8.90559
8.90544
9.06253
9.06242
9.21932
9.21925
9.37938
9.37936
9.54655
9.54656
9.72424
9.72425
9.91439
9.9144
10.1169
10.1169
10.3281
10.3282
10.5428
10.543
10.754
10.7542
10.9538
10.9541
11.1349
11.1352
11.2917
11.2921
11.4213
11.4216
11.5229
11.5232
11.5984
11.5987
11.6517
11.652
11.6881
11.6883
11.7134
11.7136
11.7339
11.734
11.7552
11.7553
11.7824
11.7824
11.8193
11.8194
11.8692
11.8692
11.934
11.934
12.0151
12.015
12.1131
12.1131
12.2284
12.2283
12.3606
12.3605
12.5093
12.5091
12.6737
12.6734
12.8525
12.8522
13.0443
13.044
13.2473
13.2469
13.4589
13.4585
13.6765
13.676
13.8966
13.896
14.1154
14.1147
14.3287
14.3279
14.532
14.5312
14.7212
14.7203
14.8925
14.8915
15.0427
15.0417
15.1703
15.1693
15.275
15.2742
15.3589
15.3583
15.4261
15.4257
15.4823
15.4822
15.5346
15.5347
15.5907
15.5909
15.6582
15.6583
15.743
15.7431
15.8495
15.8496
15.9785
15.9786
16.1279
16.128
16.293
16.2931
16.4668
16.4669
16.6411
16.6415
16.808
16.8086
16.9605
16.9614
17.0934
17.0945
17.2035
17.2048
17.2903
17.2917
17.3556
17.357
17.4032
17.4045
17.4378
17.4391
17.4652
17.4664
17.491
17.4921
17.5206
17.5215
17.5585
17.5594
17.6088
17.6096
17.6746
17.6753
17.7581
17.7587
17.8611
17.8616
17.9847
17.9852
18.1296
18.13
18.2961
18.2964
18.4842
18.4845
18.6937
18.6939
18.924
18.9242
19.1743
19.1745
19.4436
19.4438
19.7309
19.731
20.0348
20.0348
20.3541
20.3542
20.6879
20.688
21.0355
21.0355
21.3965
21.3965
21.771
21.771
22.1597
22.1597
22.5634
22.5634
22.9835
22.9834
23.4212
23.4211
23.8779
23.8778
24.3549
24.3548
24.8529
24.8528
25.3726
25.3724
25.914
25.9139
26.477
26.4768
27.0608
27.0606
27.6643
27.6641
28.2864
28.2862
28.9261
28.9258
29.5828
29.5825
30.257
30.2567
30.9503
30.9501
31.6659
31.6657
32.408
32.4077
33.1809
33.1806
33.9888
33.9885
34.8342
34.8338
35.7172
35.7168
36.6343
36.6339
37.5802
37.5798
38.5474
38.547
39.5286
39.5282
40.5175
40.5171
41.5105
41.5101
42.5071
42.5067
43.5101
43.5098
44.5254
44.5251
45.5604
45.5601
46.6233
46.623
47.7217
47.7215
48.8621
48.8618
50.0487
50.0485
51.2841
51.2838
52.5685
52.5682
53.9006
53.9003
55.2786
55.2783
56.7007
56.7004
58.1656
58.1653
59.6733
59.673
61.2251
61.2248
62.8235
62.8233
64.4716
64.4714
66.1722
66.172
67.9269
67.9267
69.7346
69.7345
71.5911
71.591
73.4885
73.4885
75.4157
75.4158
77.3593
77.3595
79.3047
79.3051
81.2378
81.2384
83.1457
83.1466
85.0181
85.0195
86.8474
86.8493
88.6294
88.6318
90.3624
90.3656
92.0477
92.0517
93.6885
93.6934
95.2904
95.2964
96.8616
96.8686
98.413
98.421
99.9585
99.9673
101.515
101.525
103.102
103.112
104.739
104.749
106.445
106.456
108.233
108.245
110.11
110.121
112.065
112.077
114.072
114.085
116.078
116.092
118.007
118.023
119.755
119.772
121.198
121.217
122.204
122.225
122.658
122.68
122.486
122.509
121.683
121.707
120.321
120.345
118.54
118.564
116.511
116.535
114.398
114.421
112.314
112.336
110.318
110.339
108.408
108.428
106.547
106.566
104.697
104.716
102.829
102.847
100.929
100.946
98.9943
99.0115
97.0316
97.0483
95.0492
95.0656
93.0571
93.0731
91.0643
91.0799
89.0787
89.0939
87.1062
87.1211
85.1516
85.1661
83.2181
83.2323
81.3076
81.3215
79.4209
79.4345
77.5579
77.5712
75.7179
75.7309
73.9
73.9126
72.1029
72.1153
70.3258
70.3378
68.5674
68.5791
66.8269
66.8383
65.1032
65.1144
63.3952
63.4061
61.7017
61.7123
60.0212
60.0316
58.3524
58.3625
56.6935
56.7034
55.0427
55.0524
53.3983
53.4077
51.7583
51.7674
50.1207
50.1296
48.4835
48.4922
46.8445
46.8529
45.2013
45.2096
43.5516
43.5596
41.8924
41.9002
40.2207
40.2283
38.5331
38.5405
36.8256
36.8327
35.0934
35.1003
33.3311
33.3378
31.5322
31.5387
29.689
29.6952
27.7917
27.7978
25.8284
25.8342
23.7836
23.7891
21.6367
21.6419
19.3596
19.3646
16.9132
16.9179
14.2414
14.2457
11.2668
11.2706
7.91373
7.91699
4.31359
4.31589
1.41143
1.41237
0.204091
0.204238
0.00718471
0.00719036
)
;

boundaryField
{
    walls
    {
        type            kqRWallFunction;
        value           nonuniform List<scalar> 8(0.0071953 0.00719008 0.00719008 0.00719531 0.00719028 0.00718471 0.00718467 0.00719036);
    }
    inlet
    {
        type            cyclic;
    }
    outlet
    {
        type            cyclic;
    }
    sides
    {
        type            empty;
    }
}


// ************************************************************************* //
