/*--------------------------------*- C++ -*----------------------------------*\
| =========                 |                                                 |
| \\      /  F ield         | OpenFOAM: The Open Source CFD Toolbox           |
|  \\    /   O peration     | Version:  2012                                  |
|   \\  /    A nd           | Website:  www.openfoam.com                      |
|    \\/     M anipulation  |                                                 |
\*---------------------------------------------------------------------------*/
FoamFile
{
    version     2.0;
    format      ascii;
    class       volScalarField;
    location    "11000";
    object      omega;
}
// * * * * * * * * * * * * * * * * * * * * * * * * * * * * * * * * * * * * * //

dimensions      [0 0 -1 0 0 0 0];


internalField   nonuniform List<scalar> 
2560
(
1.52416e+06
1.52416e+06
264515
264517
88038.7
88041.5
40842.9
40844.4
24163.6
24163.9
16913.9
16913.8
13089.5
13089.2
10762.2
10761.8
9200.43
9200.07
8078.69
8078.34
7232.46
7232.13
6570.19
6569.88
6037.01
6036.72
5598.02
5597.74
5229.96
5229.7
4916.75
4916.51
4646.87
4646.64
4411.88
4411.66
4205.42
4205.21
4022.64
4022.44
3859.73
3859.54
3713.68
3713.5
3582.09
3581.91
3462.98
3462.81
3354.75
3354.58
3256.07
3255.91
3165.82
3165.67
3083.07
3082.92
3007.03
3006.88
2937
2936.86
2872.43
2872.28
2812.79
2812.65
2757.67
2757.53
2706.66
2706.53
2659.45
2659.31
2615.71
2615.58
2575.2
2575.07
2537.67
2537.54
2502.91
2502.78
2470.73
2470.6
2440.96
2440.83
2413.46
2413.33
2388.09
2387.96
2364.72
2364.59
2343.23
2343.1
2323.5
2323.37
2305.39
2305.27
2288.78
2288.65
2273.51
2273.38
2259.43
2259.3
2246.37
2246.24
2234.17
2234.04
2222.65
2222.52
2211.68
2211.54
2201.13
2201
2191.01
2190.88
2181.45
2181.3
2172.71
2172.57
2165.19
2165.04
2159.22
2159.07
2154.81
2154.65
2151.34
2151.18
2147.69
2147.52
2142.31
2142.14
2133.62
2133.46
2120.36
2120.2
2101.89
2101.74
2078.27
2078.13
2050.14
2050.01
2018.5
2018.39
1984.51
1984.4
1949.21
1949.12
1913.53
1913.44
1878.11
1878.04
1843.42
1843.34
1809.68
1809.61
1776.99
1776.92
1745.29
1745.22
1714.47
1714.4
1684.36
1684.3
1654.8
1654.74
1625.62
1625.57
1596.66
1596.62
1567.81
1567.78
1538.97
1538.95
1510.07
1510.05
1481.05
1481.04
1451.88
1451.87
1422.53
1422.53
1393.02
1393.02
1363.38
1363.38
1333.66
1333.66
1303.93
1303.94
1274.31
1274.31
1244.9
1244.91
1215.82
1215.83
1187.2
1187.2
1159.11
1159.12
1131.63
1131.64
1104.79
1104.8
1078.61
1078.62
1053.06
1053.07
1028.13
1028.14
1003.78
1003.79
979.987
979.996
956.747
956.756
934.055
934.063
911.92
911.928
890.357
890.366
869.383
869.392
849.008
849.016
829.229
829.237
810.023
810.031
791.352
791.359
773.158
773.166
755.373
755.381
737.921
737.929
720.733
720.741
703.755
703.763
686.956
686.964
670.338
670.346
653.927
653.935
637.776
637.784
621.947
621.954
606.5
606.508
591.485
591.492
576.929
576.936
562.831
562.837
549.167
549.173
535.9
535.906
522.989
522.995
510.395
510.401
498.09
498.095
486.055
486.061
474.286
474.291
462.783
462.788
451.555
451.56
440.608
440.612
429.949
429.954
419.584
419.588
409.511
409.515
399.729
399.733
390.23
390.234
381.005
381.009
372.043
372.047
363.33
363.333
354.852
354.855
346.598
346.601
338.557
338.56
330.723
330.726
323.092
323.095
315.666
315.669
308.449
308.451
301.446
301.448
294.665
294.666
288.114
288.115
281.801
281.802
275.731
275.732
269.91
269.91
264.339
264.339
259.02
259.02
253.95
253.949
249.125
249.124
244.539
244.538
240.182
240.18
236.039
236.036
232.092
232.089
228.318
228.314
224.688
224.684
221.168
221.163
217.722
217.717
214.31
214.304
210.894
210.888
207.441
207.435
203.927
203.921
200.339
200.333
196.678
196.674
192.962
192.959
189.22
189.218
185.493
185.492
181.826
181.827
178.267
178.267
174.854
174.854
171.612
171.613
168.554
168.554
165.674
165.673
162.946
162.945
160.336
160.336
157.803
157.803
155.303
155.305
152.8
152.803
150.262
150.266
147.669
147.673
145.008
145.012
142.278
142.283
139.487
139.492
136.649
136.653
133.78
133.784
130.9
130.904
128.03
128.033
125.188
125.191
122.392
122.394
119.656
119.659
116.995
116.997
114.418
114.42
111.934
111.935
109.548
109.549
107.267
107.268
105.092
105.093
103.027
103.027
101.07
101.071
99.222
99.2225
97.4781
97.4785
95.8323
95.8325
94.2748
94.2749
92.7925
92.7925
91.3679
91.3678
89.9802
89.98
88.6057
88.6054
87.2195
87.2191
85.7973
85.7968
84.3183
84.3176
82.7669
82.7662
81.1354
81.1347
79.4254
79.4246
77.6473
77.6466
75.8202
75.8197
73.9701
73.9698
72.1248
72.1247
70.309
70.3091
68.5418
68.5419
66.8357
66.8358
65.1908
65.1909
63.5999
63.6001
62.0507
62.051
60.5294
60.5298
59.0235
59.024
57.5241
57.5246
56.0291
56.0297
54.5418
54.5423
53.0692
53.0696
51.62
51.6204
50.2026
50.2029
48.8235
48.8238
47.4868
47.487
46.1942
46.1944
44.9455
44.9456
43.7396
43.7398
42.5755
42.5756
41.4523
41.4524
40.3694
40.3695
39.3267
39.3268
38.3238
38.3239
37.3602
37.3602
36.4349
36.4349
35.5464
35.5465
34.6931
34.6931
33.8729
33.873
33.0841
33.0841
32.3247
32.3247
31.5934
31.5934
30.889
30.889
30.2109
30.2109
29.5586
29.5586
28.932
28.932
28.3312
28.3312
27.7564
27.7564
27.2074
27.2075
26.6843
26.6844
26.1867
26.1867
25.714
25.714
25.2655
25.2655
24.8403
24.8403
24.4377
24.4378
24.057
24.057
23.6973
23.6973
23.3579
23.358
23.0384
23.0384
22.738
22.738
22.4562
22.4562
22.1925
22.1925
21.9461
21.9461
21.7167
21.7167
21.5036
21.5036
21.3063
21.3063
21.1242
21.1242
20.9571
20.9571
20.8046
20.8046
20.6663
20.6663
20.5422
20.5422
20.4321
20.4321
20.3361
20.3361
20.254
20.254
20.1856
20.1856
20.1309
20.1309
20.0895
20.0895
20.0612
20.0612
20.0457
20.0457
20.043
20.043
20.0528
20.0528
20.0752
20.0752
20.1103
20.1103
20.1582
20.1582
20.2193
20.2193
20.2939
20.2939
20.3824
20.3824
20.4851
20.4851
20.6023
20.6023
20.7346
20.7346
20.8824
20.8824
21.0459
21.0459
21.2256
21.2256
21.4219
21.4219
21.6348
21.6348
21.8639
21.8639
22.1074
22.1074
22.3599
22.3599
22.6065
22.6065
22.8081
22.8081
22.7856
22.7856
1.52416e+06
1.52416e+06
264517
264515
88041.5
88038.7
40844.4
40842.9
24163.9
24163.6
16913.8
16913.9
13089.2
13089.5
10761.8
10762.2
9200.07
9200.43
8078.34
8078.69
7232.13
7232.46
6569.88
6570.19
6036.72
6037.01
5597.74
5598.02
5229.7
5229.96
4916.51
4916.75
4646.64
4646.87
4411.66
4411.88
4205.21
4205.42
4022.44
4022.64
3859.54
3859.73
3713.5
3713.68
3581.91
3582.09
3462.81
3462.98
3354.59
3354.75
3255.91
3256.07
3165.67
3165.82
3082.92
3083.07
3006.88
3007.03
2936.86
2937.01
2872.29
2872.43
2812.65
2812.79
2757.53
2757.67
2706.53
2706.66
2659.31
2659.45
2615.58
2615.72
2575.07
2575.2
2537.54
2537.67
2502.78
2502.91
2470.6
2470.73
2440.83
2440.96
2413.33
2413.46
2387.96
2388.09
2364.59
2364.72
2343.1
2343.23
2323.37
2323.5
2305.27
2305.39
2288.65
2288.78
2273.38
2273.51
2259.3
2259.43
2246.24
2246.37
2234.04
2234.17
2222.52
2222.65
2211.54
2211.68
2201
2201.13
2190.88
2191.01
2181.3
2181.45
2172.57
2172.71
2165.04
2165.19
2159.07
2159.23
2154.65
2154.81
2151.18
2151.34
2147.52
2147.69
2142.15
2142.32
2133.46
2133.62
2120.2
2120.36
2101.74
2101.89
2078.13
2078.27
2050.01
2050.14
2018.39
2018.5
1984.4
1984.51
1949.12
1949.21
1913.44
1913.53
1878.04
1878.11
1843.34
1843.42
1809.61
1809.69
1776.92
1776.99
1745.22
1745.29
1714.4
1714.47
1684.3
1684.36
1654.74
1654.8
1625.57
1625.62
1596.62
1596.66
1567.78
1567.81
1538.95
1538.97
1510.05
1510.07
1481.04
1481.05
1451.87
1451.88
1422.53
1422.53
1393.02
1393.02
1363.38
1363.38
1333.66
1333.66
1303.94
1303.93
1274.31
1274.31
1244.91
1244.9
1215.83
1215.82
1187.2
1187.2
1159.12
1159.11
1131.64
1131.63
1104.8
1104.79
1078.62
1078.61
1053.07
1053.06
1028.14
1028.13
1003.79
1003.78
979.997
979.988
956.756
956.747
934.064
934.055
911.929
911.92
890.366
890.358
869.392
869.384
849.016
849.008
829.237
829.229
810.031
810.023
791.359
791.352
773.166
773.158
755.381
755.373
737.929
737.921
720.741
720.733
703.763
703.755
686.964
686.956
670.346
670.338
653.935
653.927
637.784
637.776
621.954
621.947
606.508
606.5
591.492
591.485
576.936
576.929
562.837
562.831
549.173
549.167
535.906
535.9
522.995
522.989
510.401
510.395
498.095
498.09
486.061
486.055
474.291
474.286
462.788
462.783
451.559
451.554
440.612
440.607
429.954
429.949
419.588
419.583
409.515
409.511
399.733
399.728
390.234
390.23
381.009
381.005
372.046
372.043
363.333
363.329
354.855
354.852
346.601
346.597
338.56
338.557
330.725
330.722
323.095
323.092
315.669
315.666
308.451
308.448
301.447
301.445
294.666
294.664
288.115
288.114
281.801
281.8
275.732
275.731
269.91
269.909
264.339
264.339
259.019
259.019
253.949
253.949
249.124
249.125
244.537
244.539
240.179
240.181
236.035
236.038
232.088
232.091
228.313
228.317
224.683
224.687
221.163
221.168
217.716
217.722
214.303
214.309
210.887
210.894
207.434
207.441
203.921
203.927
200.333
200.339
196.673
196.678
192.958
192.961
189.218
189.219
185.492
185.492
181.826
181.826
178.267
178.267
174.853
174.853
171.612
171.612
168.553
168.554
165.673
165.673
162.945
162.945
160.335
160.335
157.802
157.802
155.304
155.302
152.802
152.799
150.265
150.261
147.673
147.668
145.012
145.007
142.282
142.277
139.491
139.487
136.652
136.648
133.783
133.779
130.903
130.9
128.033
128.03
125.19
125.188
122.394
122.391
119.658
119.656
116.997
116.995
114.419
114.418
111.935
111.933
109.549
109.548
107.267
107.266
105.093
105.092
103.027
103.026
101.07
101.07
99.2218
99.2213
97.4777
97.4773
95.8316
95.8314
94.2739
94.2739
92.7914
92.7914
91.3667
91.3668
89.9789
89.9792
88.6043
88.6047
87.218
87.2186
85.7959
85.7965
84.3168
84.3176
82.7655
82.7664
81.1342
81.1352
79.4243
79.4253
77.6465
77.6474
75.8197
75.8204
73.9699
73.9704
72.1248
72.125
70.3092
70.3092
68.542
68.5419
66.8358
66.8357
65.1908
65.1907
63.5999
63.5997
62.0508
62.0504
60.5296
60.5291
59.0238
59.0232
57.5246
57.5239
56.0297
56.029
54.5424
54.5418
53.0698
53.0692
51.6206
51.6201
50.2031
50.2027
48.824
48.8236
47.4872
47.4869
46.1945
46.1943
44.9457
44.9455
43.7399
43.7396
42.5757
42.5755
41.4525
41.4523
40.3696
40.3694
39.3268
39.3267
38.3239
38.3238
37.3602
37.3601
36.4349
36.4348
35.5464
35.5463
34.6931
34.693
33.8729
33.8728
33.084
33.084
32.3247
32.3246
31.5934
31.5933
30.889
30.889
30.2109
30.2109
29.5586
29.5586
28.9321
28.932
28.3313
28.3313
27.7564
27.7564
27.2075
27.2075
26.6844
26.6844
26.1868
26.1867
25.714
25.714
25.2655
25.2655
24.8404
24.8403
24.4378
24.4378
24.057
24.057
23.6973
23.6973
23.358
23.3579
23.0384
23.0384
22.738
22.738
22.4563
22.4562
22.1925
22.1925
21.9461
21.9461
21.7167
21.7167
21.5036
21.5036
21.3063
21.3063
21.1243
21.1242
20.9571
20.9571
20.8046
20.8046
20.6663
20.6663
20.5422
20.5422
20.4321
20.4321
20.3361
20.3361
20.254
20.254
20.1856
20.1856
20.1309
20.1309
20.0895
20.0895
20.0612
20.0612
20.0457
20.0457
20.043
20.043
20.0528
20.0528
20.0752
20.0752
20.1103
20.1103
20.1582
20.1582
20.2193
20.2193
20.2939
20.2939
20.3824
20.3824
20.485
20.485
20.6023
20.6023
20.7346
20.7346
20.8823
20.8823
21.0458
21.0458
21.2255
21.2256
21.4218
21.4218
21.6347
21.6347
21.8637
21.8637
22.1071
22.1071
22.3595
22.3595
22.606
22.606
22.8076
22.8076
22.7852
22.7852
22.7856
22.7856
22.8081
22.8081
22.6066
22.6066
22.36
22.36
22.1075
22.1075
21.8641
21.8641
21.635
21.635
21.4221
21.4221
21.2258
21.2258
21.046
21.046
20.8825
20.8825
20.7347
20.7347
20.6024
20.6024
20.4851
20.4851
20.3825
20.3825
20.294
20.294
20.2194
20.2194
20.1583
20.1583
20.1104
20.1104
20.0753
20.0753
20.0528
20.0528
20.043
20.043
20.0458
20.0458
20.0612
20.0612
20.0895
20.0895
20.1309
20.1309
20.1856
20.1856
20.254
20.254
20.3361
20.3361
20.4321
20.4321
20.5421
20.5421
20.6662
20.6662
20.8045
20.8045
20.957
20.957
21.124
21.1241
21.306
21.306
21.5032
21.5032
21.7163
21.7163
21.9457
21.9457
22.192
22.192
22.4557
22.4557
22.7374
22.7374
23.0377
23.0378
23.3572
23.3572
23.6965
23.6965
24.0561
24.0561
24.4368
24.4368
24.8393
24.8393
25.2644
25.2644
25.7128
25.7128
26.1855
26.1855
26.683
26.683
27.206
27.206
27.7549
27.7549
28.3296
28.3296
28.9303
28.9303
29.5567
29.5568
30.209
30.209
30.887
30.887
31.5912
31.5912
32.3223
32.3224
33.0815
33.0816
33.8703
33.8703
34.6903
34.6904
35.5436
35.5437
36.432
36.432
37.3572
37.3573
38.3207
38.3208
39.3235
39.3236
40.3662
40.3663
41.4489
41.449
42.572
42.5721
43.736
43.7362
44.9418
44.9419
46.1904
46.1906
47.4829
47.4832
48.8196
48.8199
50.1986
50.1989
51.616
51.6163
53.0652
53.0657
54.5381
54.5386
56.0257
56.0262
57.5209
57.5215
59.0205
59.0211
60.5267
60.5271
62.0482
62.0486
63.5976
63.5978
65.1886
65.1887
66.8336
66.8337
68.5398
68.54
70.3071
70.3072
72.1231
72.123
73.9687
73.9683
75.8191
75.8185
77.6466
77.6459
79.4249
79.4241
81.1349
81.1341
82.7661
82.7654
84.3173
84.3166
85.796
85.7955
87.218
87.2176
88.6042
88.6038
89.9786
89.9783
91.3661
91.366
92.7905
92.7905
94.2726
94.2727
95.8297
95.83
97.4753
97.4757
99.2189
99.2194
101.067
101.067
103.023
103.024
105.088
105.089
107.262
107.263
109.543
109.545
111.929
111.93
114.413
114.414
116.989
116.991
119.65
119.653
122.385
122.388
125.181
125.184
128.022
128.026
130.893
130.896
133.772
133.776
136.64
136.645
139.478
139.483
142.269
142.274
144.998
145.003
147.659
147.664
150.252
150.256
152.789
152.792
155.291
155.293
157.79
157.791
160.323
160.323
162.933
162.932
165.66
165.66
168.541
168.541
171.599
171.599
174.839
174.84
178.253
178.253
181.812
181.812
185.478
185.477
189.204
189.203
192.946
192.943
196.662
196.658
200.323
200.317
203.911
203.905
207.425
207.418
210.877
210.87
214.292
214.285
217.703
217.697
221.149
221.144
224.668
224.663
228.297
228.293
232.07
232.067
236.016
236.013
240.158
240.156
244.515
244.513
249.1
249.099
253.924
253.923
258.993
258.992
264.311
264.311
269.88
269.881
275.7
275.701
281.769
281.77
288.081
288.082
294.63
294.632
301.41
301.412
308.412
308.414
315.628
315.63
323.052
323.055
330.68
330.683
338.513
338.516
346.552
346.555
354.804
354.807
363.28
363.283
371.991
371.995
380.951
380.955
390.174
390.178
399.671
399.676
409.452
409.456
419.522
419.527
429.886
429.891
440.543
440.548
451.488
451.493
462.714
462.72
474.214
474.22
485.981
485.986
498.012
498.018
510.314
510.32
522.905
522.911
535.813
535.819
549.077
549.084
562.739
562.746
576.834
576.841
591.387
591.395
606.4
606.408
621.843
621.851
637.67
637.679
653.819
653.827
670.227
670.235
686.842
686.851
703.638
703.647
720.614
720.622
737.799
737.807
755.249
755.257
773.031
773.039
791.221
791.23
809.889
809.898
829.091
829.1
848.867
848.876
869.239
869.248
890.209
890.218
911.767
911.777
933.898
933.908
956.587
956.596
979.824
979.833
1003.61
1003.62
1027.95
1027.96
1052.89
1052.9
1078.43
1078.44
1104.61
1104.62
1131.44
1131.45
1158.92
1158.93
1187
1187.01
1215.62
1215.63
1244.69
1244.7
1274.1
1274.1
1303.72
1303.73
1333.44
1333.45
1363.17
1363.17
1392.81
1392.81
1422.31
1422.31
1451.65
1451.64
1480.82
1480.8
1509.83
1509.81
1538.73
1538.7
1567.56
1567.52
1596.4
1596.35
1625.35
1625.29
1654.52
1654.46
1684.07
1684
1714.17
1714.09
1744.98
1744.9
1776.67
1776.59
1809.36
1809.28
1843.09
1843
1877.78
1877.69
1913.18
1913.09
1948.87
1948.76
1984.15
1984.04
2018.14
2018.02
2049.78
2049.63
2077.91
2077.76
2101.54
2101.37
2120.02
2119.84
2133.28
2133.1
2141.97
2141.78
2147.34
2147.15
2150.99
2150.8
2154.46
2154.28
2158.87
2158.7
2164.83
2164.67
2172.35
2172.19
2181.09
2180.93
2190.66
2190.5
2200.78
2200.63
2211.33
2211.18
2222.31
2222.17
2233.84
2233.69
2246.04
2245.9
2259.1
2258.96
2273.19
2273.04
2288.46
2288.31
2305.07
2304.93
2323.18
2323.03
2342.91
2342.77
2364.4
2364.25
2387.76
2387.62
2413.13
2412.99
2440.63
2440.49
2470.39
2470.25
2502.57
2502.43
2537.33
2537.18
2574.85
2574.71
2615.36
2615.21
2659.09
2658.93
2706.29
2706.14
2757.29
2757.13
2812.41
2812.25
2872.03
2871.87
2936.6
2936.43
3006.61
3006.44
3082.64
3082.47
3165.38
3165.2
3255.61
3255.43
3354.28
3354.09
3462.49
3462.3
3581.58
3581.38
3713.16
3712.95
3859.18
3858.96
4022.07
4021.84
4204.82
4204.59
4411.25
4411
4646.21
4645.95
4916.06
4915.78
5229.23
5228.94
5597.24
5596.93
6036.18
6035.85
6569.31
6568.95
7231.51
7231.13
8077.67
8077.27
9199.32
9198.91
10761
10760.6
13088.3
13087.9
16912.7
16912.5
24162.6
24162.9
40842.7
40844.2
88039.6
88042.5
264516
264518
1.52417e+06
1.52417e+06
22.7852
22.7852
22.8076
22.8076
22.6062
22.6062
22.3596
22.3596
22.1072
22.1072
21.8638
21.8638
21.6348
21.6348
21.4219
21.4219
21.2257
21.2257
21.0459
21.046
20.8824
20.8824
20.7347
20.7347
20.6024
20.6024
20.4851
20.4851
20.3825
20.3825
20.294
20.294
20.2194
20.2194
20.1583
20.1583
20.1104
20.1104
20.0752
20.0752
20.0528
20.0528
20.043
20.043
20.0458
20.0458
20.0612
20.0612
20.0895
20.0895
20.1309
20.1309
20.1856
20.1856
20.254
20.254
20.3361
20.3361
20.4321
20.4321
20.5421
20.5421
20.6662
20.6662
20.8045
20.8045
20.957
20.957
21.1241
21.124
21.306
21.306
21.5032
21.5032
21.7163
21.7163
21.9457
21.9457
22.192
22.192
22.4557
22.4557
22.7374
22.7374
23.0378
23.0377
23.3572
23.3572
23.6965
23.6965
24.0561
24.0561
24.4368
24.4368
24.8393
24.8393
25.2644
25.2644
25.7129
25.7129
26.1855
26.1855
26.6831
26.6831
27.2061
27.2061
27.7549
27.7549
28.3297
28.3297
28.9304
28.9303
29.5568
29.5568
30.209
30.2089
30.887
30.887
31.5912
31.5911
32.3223
32.3223
33.0815
33.0814
33.8703
33.8702
34.6903
34.6902
35.5436
35.5435
36.432
36.4319
37.3573
37.3572
38.3208
38.3207
39.3237
39.3235
40.3663
40.3662
41.4491
41.4489
42.5722
42.572
43.7362
43.736
44.9421
44.9418
46.1908
46.1905
47.4833
47.483
48.8201
48.8197
50.1991
50.1987
51.6165
51.616
53.0658
53.0653
54.5386
54.538
56.0262
56.0255
57.5214
57.5207
59.0209
59.0203
60.5269
60.5264
62.0483
62.048
63.5976
63.5974
65.1886
65.1885
66.8337
66.8336
68.54
68.5399
70.3073
70.3073
72.123
72.1232
73.9684
73.9689
75.8185
75.8192
77.6458
77.6467
79.4238
79.4248
81.1336
81.1346
82.7647
82.7656
84.3158
84.3166
85.7945
85.7952
87.2165
87.2171
88.6027
88.6032
89.9772
89.9775
91.3649
91.3651
92.7894
92.7895
94.2717
94.2716
95.8291
95.8288
97.4749
97.4745
99.2187
99.2182
101.067
101.066
103.023
103.022
105.089
105.088
107.263
107.262
109.544
109.543
111.93
111.928
114.414
114.412
116.991
116.989
119.652
119.65
122.387
122.385
125.184
125.181
128.026
128.022
130.896
130.892
133.776
133.771
136.644
136.64
139.483
139.478
142.273
142.268
145.003
144.997
147.663
147.658
150.255
150.251
152.791
152.788
155.292
155.291
157.79
157.789
160.322
160.322
162.932
162.932
165.659
165.66
168.54
168.54
171.598
171.598
174.839
174.839
178.253
178.252
181.812
181.811
185.477
185.477
189.202
189.204
192.942
192.946
196.657
196.662
200.317
200.323
203.904
203.911
207.417
207.425
210.869
210.876
214.285
214.291
217.697
217.703
221.143
221.149
224.663
224.667
228.293
228.297
232.066
232.07
236.013
236.016
240.156
240.158
244.513
244.515
249.099
249.1
253.923
253.923
258.992
258.992
264.311
264.311
269.881
269.88
275.701
275.7
281.77
281.769
288.082
288.081
294.632
294.63
301.412
301.41
308.414
308.411
315.63
315.628
323.055
323.052
330.683
330.68
338.516
338.513
346.555
346.552
354.807
354.804
363.283
363.28
371.995
371.991
380.955
380.951
390.178
390.174
399.676
399.671
409.456
409.452
419.527
419.523
429.891
429.887
440.548
440.543
451.493
451.488
462.72
462.715
474.22
474.214
485.987
485.981
498.018
498.012
510.321
510.315
522.911
522.905
535.82
535.813
549.084
549.078
562.746
562.739
576.842
576.835
591.395
591.388
606.408
606.401
621.852
621.844
637.679
637.671
653.828
653.82
670.236
670.228
686.852
686.844
703.648
703.639
720.623
720.615
737.808
737.8
755.258
755.25
773.04
773.033
791.231
791.223
809.899
809.891
829.101
829.093
848.877
848.869
869.249
869.24
890.219
890.211
911.778
911.769
933.909
933.9
956.598
956.589
979.835
979.826
1003.62
1003.61
1027.97
1027.96
1052.9
1052.89
1078.44
1078.43
1104.62
1104.61
1131.45
1131.44
1158.93
1158.92
1187.01
1187
1215.63
1215.62
1244.7
1244.69
1274.11
1274.1
1303.73
1303.72
1333.45
1333.45
1363.17
1363.17
1392.81
1392.81
1422.31
1422.32
1451.64
1451.66
1480.81
1480.82
1509.81
1509.84
1538.7
1538.73
1567.52
1567.56
1596.35
1596.4
1625.29
1625.35
1654.46
1654.53
1684.01
1684.08
1714.1
1714.17
1744.91
1744.99
1776.6
1776.68
1809.28
1809.37
1843.01
1843.09
1877.69
1877.78
1913.09
1913.19
1948.77
1948.87
1984.04
1984.16
2018.02
2018.15
2049.64
2049.78
2077.76
2077.92
2101.38
2101.55
2119.84
2120.03
2133.1
2133.29
2141.79
2141.98
2147.16
2147.35
2150.81
2150.99
2154.28
2154.46
2158.7
2158.88
2164.67
2164.84
2172.2
2172.36
2180.94
2181.1
2190.51
2190.67
2200.64
2200.79
2211.19
2211.34
2222.17
2222.32
2233.7
2233.84
2245.9
2246.05
2258.96
2259.11
2273.05
2273.19
2288.32
2288.47
2304.94
2305.08
2323.04
2323.19
2342.77
2342.92
2364.26
2364.4
2387.63
2387.77
2412.99
2413.14
2440.49
2440.64
2470.26
2470.4
2502.43
2502.58
2537.19
2537.34
2574.71
2574.86
2615.22
2615.37
2658.94
2659.09
2706.15
2706.3
2757.14
2757.3
2812.26
2812.42
2871.88
2872.04
2936.44
2936.6
3006.45
3006.62
3082.48
3082.65
3165.21
3165.39
3255.44
3255.62
3354.1
3354.29
3462.3
3462.5
3581.39
3581.59
3712.96
3713.17
3858.97
3859.19
4021.85
4022.08
4204.59
4204.84
4411.01
4411.26
4645.96
4646.22
4915.79
4916.07
5228.95
5229.24
5596.94
5597.25
6035.86
6036.2
6568.97
6569.32
7231.15
7231.52
8077.28
8077.68
9198.93
9199.34
10760.6
10761
13087.9
13088.3
16912.5
16912.7
24162.9
24162.6
40844.2
40842.7
88042.5
88039.6
264518
264516
1.52417e+06
1.52417e+06
)
;

boundaryField
{
    walls
    {
        blending        binomial2;
        n               2;
        beta1           0.075;
        type            omegaWallFunction;
        value           nonuniform List<scalar> 8(1.52416e+06 1.52416e+06 1.52416e+06 1.52416e+06 1.52417e+06 1.52417e+06 1.52417e+06 1.52417e+06);
    }
    inlet
    {
        type            cyclic;
    }
    outlet
    {
        type            cyclic;
    }
    sides
    {
        type            empty;
    }
}


// ************************************************************************* //
