/*--------------------------------*- C++ -*----------------------------------*\
| =========                 |                                                 |
| \\      /  F ield         | OpenFOAM: The Open Source CFD Toolbox           |
|  \\    /   O peration     | Version:  2106                                  |
|   \\  /    A nd           | Website:  www.openfoam.com                      |
|    \\/     M anipulation  |                                                 |
\*---------------------------------------------------------------------------*/
FoamFile
{
    version     2.0;
    format      ascii;
    arch        "LSB;label=32;scalar=64";
    class       volTensorField;
    location    "9000";
    object      grad(U);
}
// * * * * * * * * * * * * * * * * * * * * * * * * * * * * * * * * * * * * * //

dimensions      [0 0 -1 0 0 0 0];

internalField   nonuniform List<tensor> 
2560
(
(0 3.11836e-30 -2.73691e-48 50.6014 -8.69284e-12 0 0.0732516 -7.34273e-15 1.03889e-26)
(-9.14312e-18 -2.28306e-29 -3.55558e-26 50.6014 -8.87438e-16 -6.25972e-14 0.0732516 -9.28841e-19 -6.17144e-17)
(0 -1.49743e-25 -1.28069e-31 50.5948 1.94069e-32 -1.23289e-13 0.220801 0 -2.29351e-16)
(0 0 -2.77704e-31 50.5948 -1.80177e-15 -2.75623e-14 0.220801 -2.24688e-18 -8.09544e-17)
(-9.27237e-18 -2.01974e-30 1.26234e-31 50.588 9.82476e-13 -1.00704e-14 0.303661 -1.18788e-14 -2.41716e-16)
(0 4.03948e-30 -2.52467e-31 50.588 -2.3864e-15 -1.37823e-14 0.303661 -6.9305e-18 -8.33395e-17)
(2.97363e-17 -1.32741e-25 1.24424e-31 50.581 -6.52282e-32 -9.99316e-15 0.308033 0 -2.53381e-16)
(0 9.95396e-30 -1.24424e-31 50.581 -2.31549e-15 -1.39848e-14 0.308033 -1.1076e-17 -8.57929e-17)
(1.38082e-16 -1.37358e-29 2.45282e-31 50.5738 5.48387e-14 -1.04213e-14 0.312467 -1.08633e-15 -2.65798e-16)
(0 1.17736e-29 -2.45282e-31 50.5738 -2.38858e-15 -1.41897e-14 0.312467 -1.55543e-17 -8.83125e-17)
(2.07656e-16 -9.13169e-28 0 50.5663 -3.21847e-14 -1.07214e-14 0.316963 -1.00151e-16 -2.79039e-16)
(5.72424e-16 9.67067e-30 -1.15238e-30 50.5663 -2.49326e-15 -1.43965e-14 0.316963 -2.05309e-17 -9.08997e-17)
(-9.29144e-17 -1.90588e-28 0 50.5583 -6.55673e-28 -1.08688e-14 0.321519 0 -2.92671e-16)
(3.71658e-16 7.62565e-30 -4.68614e-31 50.5583 -2.491e-15 -1.46043e-14 0.321519 -2.58074e-17 -9.35421e-17)
(-1.14584e-16 1.14558e-29 -2.34886e-31 50.5496 7.29593e-15 -1.10268e-14 0.326135 -4.647e-17 -3.06682e-16)
(3.26106e-16 -3.75818e-30 -2.47433e-31 50.5496 -2.34785e-15 -1.48106e-14 0.326135 -3.05047e-17 -9.62251e-17)
(3.97233e-16 -9.4674e-30 0 50.5396 5.89413e-15 -1.12093e-14 0.330807 -4.70064e-17 -3.21135e-16)
(0 9.26079e-30 -2.3152e-31 50.5396 -2.44724e-15 -1.50132e-14 0.330807 -3.54054e-17 -9.89341e-17)
(-2.56932e-16 7.30244e-30 -2.28201e-31 50.5277 4.32155e-15 -1.13967e-14 0.335531 -2.94783e-17 -3.36064e-16)
(0 -3.65122e-30 2.28201e-31 50.5277 -2.71357e-15 -1.52101e-14 0.335531 -4.05895e-17 -1.01659e-16)
(-6.87983e-16 -6.93745e-30 6.74792e-31 50.513 4.13017e-15 -1.15788e-14 0.340299 -2.74952e-17 -3.51476e-16)
(0 8.99723e-30 -6.74792e-31 50.513 -2.69142e-15 -1.53976e-14 0.340299 -4.62662e-17 -1.04359e-16)
(4.54051e-16 -1.27008e-29 2.21707e-31 50.4942 3.9713e-15 -1.1754e-14 0.345102 -2.77628e-17 -3.67363e-16)
(0 8.86827e-30 -2.21707e-31 50.4942 -2.53247e-15 -1.557e-14 0.345102 -5.23732e-17 -1.06994e-16)
(2.46042e-16 -8.74117e-30 0 50.4696 3.85816e-15 -1.1919e-14 0.349926 -2.61286e-17 -3.83744e-16)
(0 1.04894e-29 0 50.4696 -2.53181e-15 -1.57208e-14 0.349926 -5.82614e-17 -1.09508e-16)
(-2.51319e-16 7.22691e-30 -2.15397e-31 50.4369 3.83115e-15 -1.20674e-14 0.354751 -2.70067e-17 -4.00609e-16)
(1.00528e-15 -1.72318e-30 -3.58397e-31 50.4369 -2.67706e-15 -1.58425e-14 0.354751 -6.45907e-17 -1.1184e-16)
(0 1.01909e-29 -4.2462e-31 50.3933 3.79144e-15 -1.21946e-14 0.359555 -2.6514e-17 -4.17942e-16)
(0 -1.01909e-29 4.2462e-31 50.3933 -2.5562e-15 -1.59248e-14 0.359555 -7.03995e-17 -1.13892e-16)
(-2.99558e-16 2.05579e-30 0 50.3355 4.27047e-15 -1.22933e-14 0.364305 -2.72308e-17 -4.35723e-16)
(1.19823e-15 0 -6.08255e-31 50.3355 -2.50698e-15 -1.59564e-14 0.364305 -7.44724e-17 -1.15573e-16)
(-4.64473e-16 1.32011e-29 -4.12535e-31 50.2591 4.87939e-15 -1.23547e-14 0.368965 -3.42291e-17 -4.53903e-16)
(-8.32288e-16 -1.32011e-29 1.03879e-30 50.2591 -3.18715e-15 -1.59265e-14 0.368965 -7.93174e-17 -1.1679e-16)
(0 9.75894e-30 -4.06623e-31 50.1593 4.64278e-15 -1.23714e-14 0.373489 -3.69768e-17 -4.72462e-16)
(-1.39666e-15 -9.75894e-30 1.05138e-30 50.1593 -3.25944e-15 -1.58227e-14 0.373489 -8.6997e-17 -1.17411e-16)
(1.35376e-15 -6.41271e-30 -2.00397e-31 50.0305 4.1146e-15 -1.23357e-14 0.377825 -3.17042e-17 -4.91333e-16)
(-9.02509e-16 6.41271e-30 -4.00795e-31 50.0305 -2.81565e-15 -1.56297e-14 0.377825 -9.26233e-17 -1.17292e-16)
(4.00129e-16 7.42965e-30 -3.9505e-31 49.8663 4.25728e-15 -1.2238e-14 0.38191 -3.00709e-17 -5.10431e-16)
(-1.60052e-15 -1.26416e-29 1.07819e-30 49.8663 -3.09217e-15 -1.53355e-14 0.38191 -9.85399e-17 -1.16336e-16)
(-4.38412e-16 1.24604e-29 -3.89388e-31 49.6597 4.40492e-15 -1.20658e-14 0.385677 -3.48224e-17 -5.29711e-16)
(4.38412e-16 -1.24604e-29 3.89388e-31 49.6597 -3.04864e-15 -1.49299e-14 0.385677 -1.06318e-16 -1.14412e-16)
(-4.524e-16 -4.09189e-30 0 49.4037 4.12433e-15 -1.18128e-14 0.389053 -3.32503e-17 -5.48999e-16)
(0 1.22818e-29 0 49.4037 -2.59341e-15 -1.44023e-14 0.389053 -1.13408e-16 -1.11411e-16)
(3.72878e-16 -1.61103e-29 3.78306e-31 49.0909 4.0602e-15 -1.14741e-14 0.391962 -3.14106e-17 -5.68225e-16)
(0 1.81587e-29 -7.56613e-31 49.0909 -2.57534e-15 -1.37447e-14 0.391962 -1.20432e-16 -1.07225e-16)
(0 1.19323e-29 0 48.7142 4.14113e-15 -1.10465e-14 0.394326 -3.31966e-17 -5.87154e-16)
(-2.02345e-15 -1.49154e-29 7.63217e-31 48.7142 -2.67722e-15 -1.29534e-14 0.394326 -1.27544e-16 -1.0181e-16)
(5.32981e-16 9.71486e-30 -3.6754e-31 48.2674 4.08322e-15 -1.05308e-14 0.396074 -3.36465e-17 -6.05659e-16)
(0 -1.17613e-29 3.6754e-31 48.2674 -3.07223e-15 -1.20342e-14 0.396074 -1.34058e-16 -9.52057e-17)
(-1.9364e-15 2.14803e-29 -3.62272e-31 47.7451 4.08697e-15 -9.92949e-15 0.397137 -3.32138e-17 -6.23536e-16)
(8.15764e-16 -1.73891e-29 3.62272e-31 47.7451 -3.2448e-15 -1.09991e-14 0.397137 -1.41459e-16 -8.74704e-17)
(1.76348e-15 -2.32738e-29 3.5708e-31 47.1435 4.31024e-15 -9.25453e-15 0.397463 -3.46949e-17 -6.40671e-16)
(4.70263e-15 1.99965e-29 -2.35663e-30 47.1435 -2.34181e-15 -9.86223e-15 0.397463 -1.49057e-16 -7.86928e-17)
(0 -8.44708e-30 7.03924e-31 46.4608 4.51626e-15 -8.51742e-15 0.39701 -3.79773e-17 -6.56961e-16)
(2.46188e-15 1.12628e-29 -1.5429e-30 46.4608 -1.60048e-15 -8.64463e-15 0.39701 -1.53999e-16 -6.90605e-17)
(6.43193e-16 3.50876e-30 -6.93835e-31 45.6968 4.33905e-15 -7.73411e-15 0.395757 -3.92597e-17 -6.72224e-16)
(0 -2.77534e-30 6.93835e-31 45.6968 -1.7142e-15 -7.37078e-15 0.395757 -1.57569e-16 -5.87377e-17)
(-1.34188e-15 4.08322e-30 0 44.8541 3.83408e-15 -6.92492e-15 0.393699 -3.59931e-17 -6.86375e-16)
(-5.36752e-15 0 1.74116e-30 44.8541 -2.04836e-15 -6.07041e-15 0.393699 -1.6376e-16 -4.80295e-17)
(-6.98653e-16 1.01305e-29 0 43.9369 3.9721e-15 -6.1068e-15 0.390853 -3.14574e-17 -6.99299e-16)
(-2.79461e-15 -2.69635e-30 1.22097e-30 43.9369 -2.70328e-15 -4.77792e-15 0.390853 -1.71291e-16 -3.72108e-17)
(-1.49616e-15 1.32885e-29 -3.32213e-31 42.9517 5.04461e-15 -5.29905e-15 0.387254 -3.95298e-17 -7.1101e-16)
(-1.40894e-15 -1.32885e-29 1.22756e-30 42.9517 -3.49329e-15 -3.527e-15 0.387254 -1.7841e-16 -2.66093e-17)
(0 -1.04785e-29 9.82356e-31 41.9065 5.34357e-15 -4.51779e-15 0.382953 -5.19502e-17 -7.21591e-16)
(3.01496e-15 1.04785e-29 -1.88713e-30 41.9065 -3.71744e-15 -2.34505e-15 0.382953 -1.88503e-16 -1.64189e-17)
(-7.80999e-16 2.03555e-30 0 40.8106 5.07459e-15 -3.77791e-15 0.378014 -4.62226e-17 -7.3091e-16)
(0 2.58207e-30 0 40.8106 -4.0066e-15 -1.25047e-15 0.378014 -2.02611e-16 -6.82952e-18)
(-2.24074e-15 1.22139e-29 -6.36266e-31 39.6741 4.74768e-15 -3.0926e-15 0.372513 -4.84199e-17 -7.38968e-16)
(1.43274e-15 -1.01803e-29 3.05193e-29 39.6741 -3.81163e-15 -5.72905e-32 0.372513 -2.15139e-16 0)
(-8.34671e-16 9.5594e-30 0 38.5073 3.37661e-15 -2.47624e-15 0.36653 -4.1347e-17 -7.45958e-16)
(-3.33868e-15 -2.50859e-30 2.60284e-29 38.5073 -2.44061e-15 4.03602e-16 0.36653 -2.22211e-16 -1.93662e-18)
(8.6099e-16 -1.19262e-29 0 37.3206 2.58211e-15 -1.93572e-15 0.360148 -2.33316e-17 -7.5192e-16)
(0 9.89052e-30 0 37.3206 -1.5075e-15 1.37725e-15 0.360148 -2.24247e-16 -9.93003e-18)
(2.25893e-15 -1.17832e-29 0 36.1237 2.49762e-15 -1.46934e-15 0.353451 -2.69748e-17 -7.56976e-16)
(-1.37202e-15 9.74877e-30 0 36.1237 -1.4593e-15 2.0171e-15 0.353451 -2.28787e-16 -1.6939e-17)
(-9.12398e-16 9.24135e-30 -6.00565e-31 34.9259 2.49774e-15 -1.07845e-15 0.346516 -2.23338e-17 -7.61216e-16)
(0 -2.40226e-30 6.00565e-31 34.9259 -1.81543e-15 2.53962e-15 0.346516 -2.3608e-16 -2.29535e-17)
(0 7.10349e-30 -5.91957e-31 33.7353 2.932e-15 -7.59236e-16 0.339418 -2.77674e-17 -7.64844e-16)
(0 -9.47132e-30 5.91957e-31 33.7353 -1.96418e-15 2.94948e-15 0.339418 -2.40207e-16 -2.79841e-17)
(-9.61977e-16 4.36604e-30 0 32.5591 2.55077e-15 -5.05483e-16 0.332224 -3.18826e-17 -7.67981e-16)
(3.84791e-15 0 -5.8517e-31 32.5591 -1.53954e-15 3.25437e-15 0.332224 -2.43398e-16 -3.20208e-17)
(1.29503e-15 -1.38027e-29 5.75111e-31 31.4033 1.90357e-15 -3.12891e-16 0.324994 -2.06588e-17 -7.70688e-16)
(2.6491e-15 1.38027e-29 -1.44388e-30 31.4033 -1.88396e-15 3.46477e-15 0.324994 -2.49139e-16 -3.51395e-17)
(-2.66887e-16 7.03636e-30 0 30.2728 2.19554e-15 -1.73803e-16 0.317778 -1.91723e-17 -7.73132e-16)
(-2.76187e-15 -9.06988e-30 8.60698e-31 30.2728 -2.24461e-15 3.59485e-15 0.317778 -2.58279e-16 -3.73944e-17)
(1.03263e-15 -1.09716e-29 0 29.1717 2.08759e-15 -7.81286e-17 0.310621 -2.75088e-17 -7.75262e-16)
(0 8.93989e-30 0 29.1717 -1.38199e-15 3.65595e-15 0.310621 -2.63487e-16 -3.8951e-17)
(-1.05516e-15 -1.70267e-31 0 28.103 1.41788e-15 -2.63441e-17 0.303558 -1.73914e-17 -7.7719e-16)
(0 6.60882e-30 0 28.103 -8.08741e-16 3.65989e-15 0.303558 -2.67542e-16 -3.98158e-17)
(1.07719e-15 2.30988e-30 0 27.0689 1.97799e-15 -1.51119e-17 0.296621 -1.35707e-17 -7.79094e-16)
(4.30876e-15 0 -8.37315e-31 27.0689 -1.26142e-15 3.61335e-15 0.296621 -2.67004e-16 -4.01786e-17)
(1.20485e-15 -6.42073e-30 0 26.0707 2.4288e-15 -3.15634e-17 0.289833 -3.0411e-17 -7.81068e-16)
(4.39485e-15 8.56098e-30 -8.30054e-31 26.0707 -1.90252e-15 3.51865e-15 0.289833 -2.68573e-16 -3.99427e-17)
(-1.11974e-15 -7.91017e-32 0 25.1094 1.97245e-15 -7.388e-17 0.283211 -2.41838e-17 -7.83116e-16)
(0 6.32871e-30 0 25.1094 -1.92159e-15 3.39339e-15 0.283211 -2.74647e-16 -3.92097e-17)
(-1.14029e-15 2.03097e-30 0 24.1853 1.86433e-15 -1.36069e-16 0.276769 -2.08106e-17 -7.85262e-16)
(0 2.07933e-30 0 24.1853 -1.59178e-15 3.24544e-15 0.276769 -2.76905e-16 -3.8233e-17)
(1.15378e-15 -6.14859e-30 -5.12383e-31 23.2983 2.14575e-15 -2.1304e-16 0.270517 -2.23703e-17 -7.87514e-16)
(0 8.19813e-30 0 23.2983 -1.50922e-15 3.07401e-15 0.270517 -2.77238e-16 -3.69077e-17)
(-2.31722e-15 -2.01113e-30 2.5252e-31 22.4478 2.6292e-15 -3.00786e-16 0.26446 -2.80796e-17 -7.9001e-16)
(0 8.08063e-30 0 22.4478 -1.95593e-15 2.88396e-15 0.26446 -2.82466e-16 -3.52962e-17)
(-1.12095e-15 1.59296e-29 -4.97801e-31 21.6333 2.86555e-15 -3.98509e-16 0.258603 -3.46318e-17 -7.9271e-16)
(-4.79655e-15 -1.39384e-29 1.2967e-30 21.6333 -1.97464e-15 2.68426e-15 0.258603 -2.91727e-16 -3.34264e-17)
(-2.32275e-15 -9.74901e-30 0 20.8538 2.99565e-15 -5.0502e-16 0.252945 -3.46588e-17 -7.95743e-16)
(4.87146e-15 1.37386e-29 -7.93728e-31 20.8538 -1.76856e-15 2.48087e-15 0.252945 -2.9905e-16 -3.14661e-17)
(-1.08905e-15 9.67267e-30 0 20.1083 2.86775e-15 -6.11922e-16 0.247486 -3.88612e-17 -7.98958e-16)
(1.08905e-15 -9.67267e-30 0 20.1083 -2.49054e-15 2.27339e-15 0.247486 -3.04487e-16 -2.93797e-17)
(-1.25408e-15 9.65245e-30 0 19.3954 2.18618e-15 -7.22712e-16 0.242225 -3.24675e-17 -8.02469e-16)
(5.01631e-15 -7.62723e-30 -7.84537e-31 19.3954 -2.27976e-15 2.0617e-15 0.242225 -3.07945e-16 -2.71863e-17)
(3.60123e-15 -1.15702e-29 0 18.7141 2.13952e-15 -8.40684e-16 0.237156 -2.26643e-17 -8.06511e-16)
(4.02831e-15 7.51791e-30 -7.80542e-31 18.7141 -2.08153e-15 1.85127e-15 0.237156 -3.12999e-16 -2.48562e-17)
(2.08577e-15 -7.41016e-30 0 18.0631 2.67448e-15 -9.53798e-16 0.232276 -3.22147e-17 -8.10865e-16)
(0 9.2627e-30 0 18.0631 -3.33165e-15 1.64229e-15 0.232276 -3.24621e-16 -2.25528e-17)
(7.50388e-16 -3.45647e-30 0 17.4409 3.22612e-15 -1.06235e-15 0.227579 -3.73331e-17 -8.15482e-16)
(-2.05588e-15 7.30395e-30 0 17.4409 -2.96577e-15 1.43963e-15 0.227579 -3.35356e-16 -2.01135e-17)
(-2.64382e-15 9.43655e-30 0 16.8465 3.95478e-15 -1.1678e-15 0.223061 -4.781e-17 -8.20585e-16)
(5.28764e-15 -7.19927e-30 -7.7078e-31 16.8465 -2.89229e-15 1.24469e-15 0.223061 -3.43239e-16 -1.78308e-17)
(-1.33799e-15 2.41484e-31 0 16.2783 4.52039e-15 -1.27123e-15 0.218714 -5.80614e-17 -8.26009e-16)
(0 5.32206e-30 0 16.2783 -3.98884e-15 1.0456e-15 0.218714 -3.59133e-16 -1.54496e-17)
(-1.35375e-15 -1.48458e-30 0 15.7353 3.68653e-15 -1.37458e-15 0.214533 -6.46732e-17 -8.31678e-16)
(5.41499e-15 8.74297e-30 -7.66028e-31 15.7353 -2.42793e-15 8.46577e-16 0.214533 -3.774e-16 -1.29104e-17)
(-1.36919e-15 8.90931e-30 0 15.2161 1.3684e-15 -1.48053e-15 0.210513 -3.66344e-17 -8.37737e-16)
(-3.88105e-15 -3.44706e-30 0 15.2161 -7.40978e-16 6.66203e-16 0.210513 -3.7929e-16 -1.03822e-17)
(-4.68138e-15 1.42331e-29 0 14.7197 1.88873e-16 -1.5895e-15 0.206646 -1.33826e-18 -8.44484e-16)
(-3.62463e-15 -1.0193e-29 7.62551e-31 14.7197 3.17176e-16 5.0696e-16 0.206646 -3.79459e-16 -8.21309e-18)
(-2.79838e-15 -7.686e-30 4.1862e-31 14.2448 5.12536e-16 -1.69387e-15 0.202926 -1.44346e-17 -8.5155e-16)
(1.11935e-14 1.17214e-29 -1.94123e-30 14.2448 6.6068e-16 3.41166e-16 0.202926 -3.80147e-16 -6.14021e-18)
(-6.09958e-15 2.25627e-29 -4.07826e-31 13.7905 -2.87021e-16 -1.80097e-15 0.199347 -8.63702e-18 -8.47505e-16)
(-5.65507e-15 -1.32039e-29 1.17321e-30 13.7905 -6.34002e-17 1.78357e-16 0.199347 -3.80661e-16 -3.65175e-18)
(-1.42808e-15 -6.30555e-30 4.13428e-31 13.3555 -2.73192e-28 -1.90299e-15 0.195904 0 -8.18698e-16)
(5.71232e-15 1.30146e-29 -1.16657e-30 13.3555 4.46158e-16 3.19981e-17 0.195904 -3.8302e-16 -1.53605e-18)
(1.44213e-15 -5.22805e-30 -1.17676e-32 12.9391 1.75062e-16 -1.99621e-15 0.192591 -1.95333e-18 -7.90239e-16)
(0 3.20702e-30 0 12.9391 2.70365e-16 -1.15968e-16 0.192591 -3.77064e-16 -2.8942e-18)
(0 -9.48316e-30 0 12.5401 7.60384e-17 -2.08368e-15 0.189401 -3.31303e-18 -7.62244e-16)
(5.82375e-15 9.48316e-30 -7.55324e-31 12.5401 1.40979e-16 -2.59225e-16 0.189401 -3.7501e-16 -5.01802e-18)
(3.50802e-15 -6.2315e-30 0 12.1578 -1.63487e-16 -2.17225e-15 0.18633 -4.0466e-18 -7.34663e-16)
(2.37001e-15 9.34724e-30 -7.53381e-31 12.1578 1.33786e-15 -3.93211e-16 0.18633 -3.74823e-16 -7.1501e-18)
(-1.72887e-15 0 3.83886e-31 11.7913 7.15491e-44 -2.25756e-15 0.183373 0 -7.07262e-16)
(5.93139e-15 -3.07109e-30 -7.51663e-31 11.7913 1.0204e-15 -5.20125e-16 0.183373 -3.66825e-16 -9.17345e-18)
(0 1.21083e-29 0 11.4397 1.4163e-15 -2.3336e-15 0.180524 -3.32611e-17 -6.80186e-16)
(0 -1.21083e-29 0 11.4397 -9.71524e-16 -6.43906e-16 0.180524 -3.68323e-16 -1.13258e-17)
(-3.01775e-15 4.0325e-30 7.42979e-32 11.1024 1.91562e-16 -2.41672e-15 0.177778 -1.16377e-17 -6.53513e-16)
(0 0 0 11.1024 -1.13386e-15 -7.62718e-16 0.177778 -3.81666e-16 -1.33046e-17)
(0 -2.01809e-30 0 10.7785 2.48439e-28 -2.50262e-15 0.175131 0 -6.26804e-16)
(6.08631e-15 1.17637e-29 -7.48181e-31 10.7785 4.49182e-16 -8.72024e-16 0.175131 -3.85153e-16 -1.52627e-17)
(0 8.69632e-30 0 10.4675 -6.93802e-16 -2.58056e-15 0.172579 -5.37225e-17 -6.00121e-16)
(6.13633e-15 -2.89877e-30 -2.29623e-32 10.4675 8.7337e-16 -9.77801e-16 0.172579 -3.80183e-16 -1.72338e-17)
(-1.5464e-15 -6.50857e-30 5.28578e-32 10.1687 2.39419e-28 -2.65303e-15 0.170118 0 -5.73562e-16)
(0 2.85723e-30 0 10.1687 2.31059e-16 -1.07514e-15 0.170118 -3.80143e-16 -1.90144e-17)
(1.55853e-15 6.43755e-30 -4.10232e-31 9.88151 3.10039e-16 -2.72419e-15 0.167742 -3.27731e-17 -5.46942e-16)
(0 -2.81628e-30 3.52034e-31 9.88151 1.59552e-16 -1.16866e-15 0.167742 -3.85991e-16 -2.09594e-17)
(3.1254e-15 -5.55182e-30 0 9.6053 -2.14066e-15 -2.80977e-15 0.16545 -5.18999e-17 -5.20374e-16)
(-3.1254e-15 8.32773e-30 0 9.6053 8.78906e-16 -1.25787e-15 0.16545 -3.76023e-16 -2.26887e-17)
(3.0806e-15 -8.20838e-30 0 9.33958 -2.81874e-15 -2.89736e-15 0.163236 -4.72709e-17 -4.93101e-16)
(0 8.20838e-30 0 9.33958 8.85113e-16 -1.34465e-15 0.163236 -3.66549e-16 -2.46495e-17)
(-1.66958e-15 -1.6615e-29 4.86771e-31 9.08382 -6.98649e-16 -2.9586e-15 0.161098 -6.23653e-18 -4.65727e-16)
(0 8.09073e-30 -6.74227e-31 9.08382 3.88922e-16 -1.43933e-15 0.161098 -3.65674e-16 -2.67588e-17)
(-1.60537e-15 6.30584e-44 8.04103e-32 8.83756 4.48121e-28 -3.00611e-15 0.159032 1.38706e-45 -4.38858e-16)
(0 -7.97477e-30 0 8.83756 8.86068e-16 -1.5357e-15 0.159032 -3.58479e-16 -2.88878e-17)
(1.61668e-15 -4.63843e-30 -8.60744e-32 8.60033 4.52345e-16 -3.06301e-15 0.157035 -1.14344e-17 -4.12464e-16)
(-6.46672e-15 2.62016e-30 1.40613e-30 8.60033 5.48959e-16 -1.619e-15 0.157035 -3.48535e-16 -3.06266e-17)
(0 -5.16521e-30 -6.45651e-31 8.37172 -2.07223e-16 -3.13215e-15 0.155104 -1.30025e-17 -3.85785e-16)
(-6.51138e-15 7.74781e-30 7.52293e-31 8.37172 9.69907e-17 -1.6921e-15 0.155104 -3.50722e-16 -3.24794e-17)
(-4.50494e-15 8.75678e-30 9.78271e-32 8.15132 -1.47909e-16 -3.19533e-15 0.153237 -1.3988e-18 -3.58767e-16)
(1.31109e-14 -5.09117e-30 -1.18837e-30 8.15132 1.29374e-15 -1.77615e-15 0.153237 -3.48927e-16 -3.47264e-17)
(1.64975e-15 -4.04579e-30 -1.03776e-31 7.93874 0 -3.24858e-15 0.15143 0 -3.32101e-16)
(6.599e-15 -1.00364e-29 -7.54596e-31 7.93874 7.5044e-16 -1.87e-15 0.15143 -3.44882e-16 -3.70591e-17)
(0 0 0 7.73363 -7.04072e-16 -3.30044e-15 0.149681 -4.10417e-17 -3.05861e-16)
(0 2.47314e-30 0 7.73363 1.12519e-15 -1.9528e-15 0.149681 -3.62461e-16 -3.89911e-17)
(-1.67112e-15 -5.29653e-30 1.15734e-31 7.53565 -2.287e-15 -3.3554e-15 0.147988 -4.93619e-17 -2.79629e-16)
(6.68448e-15 9.75078e-30 -7.58664e-31 7.53565 2.48301e-15 -2.02025e-15 0.147988 -3.48313e-16 -4.08282e-17)
(-1.68162e-15 -1.40797e-29 1.21901e-31 7.34448 -2.04071e-28 -3.40099e-15 0.146348 0 -2.53117e-16)
(-6.72647e-15 -2.40276e-30 7.61414e-31 7.34448 1.00484e-15 -2.08089e-15 0.146348 -3.42364e-16 -4.25812e-17)
(1.69199e-15 -1.38612e-29 -1.28063e-31 7.1598 1.08185e-15 -3.43286e-15 0.14476 -1.61088e-17 -2.26723e-16)
(6.76797e-15 1.18416e-29 -7.64836e-31 7.1598 1.21781e-15 -2.13244e-15 0.14476 -3.37282e-16 -4.41358e-17)
(-1.70225e-15 1.36888e-29 1.3427e-31 6.98134 3.82944e-16 -3.47036e-15 0.14322 -2.79651e-17 -2.00241e-16)
(6.809e-15 -1.16719e-29 -7.68142e-31 6.98134 1.63461e-15 -2.18722e-15 0.14322 -3.08145e-16 -4.61045e-17)
(-1.7124e-15 4.32138e-30 1.40658e-31 6.80882 -3.22417e-16 -3.51292e-15 0.141728 -3.3734e-18 -1.73792e-16)
(0 -2.30092e-30 0 6.80882 -4.18836e-16 -2.24261e-15 0.141728 -3.1395e-16 -4.77639e-17)
(-1.72243e-15 2.5924e-44 1.47067e-31 6.64199 1.92366e-28 -3.54366e-15 0.14028 5.60806e-46 -1.47075e-16)
(0 4.53588e-30 0 6.64199 -8.11591e-16 -2.29669e-15 0.14028 -3.22335e-16 -4.97681e-17)
(-1.73236e-15 -4.68766e-30 7.12256e-31 6.48059 3.8433e-16 -3.56529e-15 0.138876 -9.77015e-18 -1.20849e-16)
(6.92944e-15 8.94173e-30 -1.33884e-30 6.48059 1.24204e-16 -2.35499e-15 0.138876 -3.17329e-16 -5.16925e-17)
(1.74219e-15 -1.11365e-29 -1.59861e-31 6.32439 6.19083e-16 -3.5846e-15 0.137514 -6.76406e-18 -9.49407e-17)
(0 8.81357e-30 0 6.32439 2.20244e-16 -2.41014e-15 0.137514 -3.24673e-16 -5.36537e-17)
(0 -6.51544e-30 0 6.17319 6.05146e-16 -3.59553e-15 0.136191 -2.07426e-17 -8.03623e-17)
(2.44524e-15 8.68725e-30 -5.42953e-31 6.17319 -3.89228e-16 -2.4731e-15 0.136191 -3.36767e-16 -5.60188e-17)
(-4.17174e-15 -1.23477e-31 1.67527e-31 6.02676 -2.43297e-16 -3.6103e-15 0.134907 -1.70935e-17 -8.20555e-17)
(2.4102e-15 6.42206e-30 0 6.02676 -5.33943e-16 -2.54267e-15 0.134907 -3.50864e-16 -5.83774e-17)
(0 -2.01993e-30 0 5.88491 1.77099e-28 -3.61741e-15 0.13366 0 -8.30431e-17)
(1.41686e-14 1.688e-29 -1.59893e-30 5.88491 4.46794e-17 -2.62779e-15 0.13366 -3.59583e-16 -6.15728e-17)
(-2.3416e-15 0 0 5.74746 1.71164e-15 -3.60597e-15 0.132448 -4.25836e-17 -8.39256e-17)
(7.12207e-15 4.15952e-30 -8.0565e-31 5.74746 -4.22321e-16 -2.728e-15 0.132448 -3.61562e-16 -6.47614e-17)
(-1.78987e-15 1.4309e-29 6.89012e-31 5.61422 -3.04704e-16 -3.61598e-15 0.131271 -5.15751e-17 -8.59497e-17)
(-7.15948e-15 -1.22997e-29 8.12701e-31 5.61422 -8.14556e-16 -2.79866e-15 0.131271 -3.72916e-16 -6.67198e-17)
(-1.79914e-15 8.07781e-30 1.79482e-31 5.48503 -1.62685e-15 -3.64081e-15 0.130126 -2.57709e-17 -8.7576e-17)
(-7.19655e-15 -4.04115e-30 8.17202e-31 5.48503 -5.43904e-16 -2.85324e-15 0.130126 -3.66748e-16 -6.92786e-17)
(0 -2.39714e-30 0 5.35972 -1.7108e-28 -3.64865e-15 0.129013 0 -8.88489e-17)
(-2.24236e-15 -1.99161e-30 0 5.35972 -1.96618e-16 -2.93388e-15 0.129013 -3.50104e-16 -7.26015e-17)
(0 -2.58106e-30 4.90767e-31 5.23814 1.02847e-15 -3.63122e-15 0.127931 -1.26127e-17 -8.92806e-17)
(7.2697e-15 -1.96307e-30 -8.25012e-31 5.23814 -1.05095e-15 -3.015e-15 0.127931 -3.36821e-16 -7.53164e-17)
(-2.53063e-15 1.34742e-29 7.78614e-31 5.12015 2.50448e-15 -3.60469e-15 0.126878 -5.65135e-17 -9.01216e-17)
(2.17854e-15 -1.16096e-29 -4.83733e-31 5.12015 -2.69861e-15 -3.08651e-15 0.126878 -3.38922e-16 -8.68706e-17)
(-2.14732e-15 -2.09792e-29 0 5.00561 5.09045e-16 -2.87973e-15 0.125853 -6.82125e-17 -5.50257e-17)
(1.68305e-14 2.09792e-29 -1.64791e-30 5.00561 -9.9289e-16 -3.16678e-15 0.125853 -3.5829e-16 -9.86794e-17)
(0 -7.51946e-30 0 4.89438 -1.91557e-15 1.97215e-31 0.124855 -5.48939e-17 0)
(1.47541e-14 9.39932e-30 -1.67643e-30 4.89438 -7.95566e-16 -3.25326e-15 0.124855 -3.4691e-16 -8.50685e-17)
(-3.70613e-15 4.41409e-44 3.59743e-31 4.78634 1.58936e-28 5.76007e-15 0.123884 3.15544e-30 -1.60317e-16)
(0 1.85292e-30 0 4.78634 -1.98947e-15 -3.32838e-15 0.123884 -3.51358e-16 -8.79283e-17)
(-1.86179e-15 8.21802e-31 1.41473e-31 4.68137 9.42179e-16 5.78103e-15 0.122938 -1.24193e-17 -4.00282e-16)
(1.48943e-14 3.65273e-30 -1.69922e-30 4.68137 -8.46308e-16 -3.36622e-15 0.122938 -3.60188e-16 -8.95701e-17)
(1.87045e-15 -9.20053e-30 -1.02645e-31 4.57936 9.81287e-16 5.66242e-15 0.122017 -4.34209e-17 -6.42631e-16)
(0 7.20075e-30 0 4.57936 -2.13685e-15 -2.68955e-15 0.122017 -3.54977e-16 -5.40442e-17)
(-1.87904e-15 2.00099e-30 6.95776e-32 4.4802 -1.43256e-16 5.59758e-15 0.121119 -1.67802e-17 -8.46774e-16)
(0 3.54877e-30 0 4.4802 -2.25027e-15 -2.08175e-15 0.121119 -3.69551e-16 -5.89683e-17)
(8.15825e-17 1.24957e-29 -4.02145e-31 4.38378 -2.55276e-16 5.60867e-15 0.120243 -3.51384e-18 -1.05945e-15)
(5.58111e-15 -1.04937e-29 -4.38928e-31 4.38378 1.07264e-16 -2.1772e-15 0.120243 -3.68148e-16 -6.0921e-17)
(-1.89603e-15 8.88776e-30 -4.3091e-31 4.29 -1.14239e-15 5.56441e-15 0.11939 -6.07132e-17 -1.27548e-15)
(5.64319e-15 -1.72389e-30 -4.47716e-31 4.29 5.28627e-16 -2.17917e-15 0.11939 -3.50874e-16 -6.08067e-17)
(-3.80885e-15 3.9846e-30 0 4.19877 -2.32045e-15 5.49565e-15 0.118558 -7.08656e-17 -1.23958e-15)
(0 0 0 4.19877 1.01942e-15 -2.07948e-15 0.118558 -3.44874e-16 -5.70147e-17)
(-3.79845e-15 8.69814e-30 -8.37413e-31 4.11001 -2.04114e-15 5.47704e-15 0.117747 -4.63153e-17 -1.20361e-15)
(0 -3.34965e-30 8.37413e-31 4.11001 5.33878e-16 -2.15636e-15 0.117747 -3.22242e-16 -6.70407e-17)
(0 -4.95247e-30 0 4.02361 -2.17407e-15 5.45194e-15 0.116955 -8.0752e-17 -1.16673e-15)
(-5.82553e-15 8.25411e-30 4.70106e-31 4.02361 2.47267e-16 -2.27764e-15 0.116955 -3.10763e-16 -6.58109e-17)
(1.92927e-15 -8.50784e-30 4.0679e-31 3.93951 -2.39443e-15 5.31824e-15 0.116182 -6.08081e-17 -1.12953e-15)
(7.71708e-15 6.50865e-30 -1.29218e-30 3.93951 1.1761e-15 -2.22855e-15 0.116182 -2.95572e-16 -6.60781e-17)
(1.93744e-15 -1.1621e-29 4.0096e-31 3.85762 -2.18176e-15 5.2029e-15 0.115428 -7.02555e-17 -1.09387e-15)
(-7.74974e-15 9.62304e-30 4.84025e-31 3.85762 1.04299e-16 -2.28173e-15 0.115428 -2.96228e-16 -7.09551e-17)
(-3.72543e-15 8.32488e-30 -3.95213e-31 3.77786 -2.03546e-15 5.14691e-15 0.114692 -5.36131e-17 -1.05861e-15)
(7.78219e-15 -3.16171e-30 -4.93047e-31 3.77786 5.31426e-16 -2.31146e-15 0.114692 -2.87285e-16 -6.98375e-17)
(0 0 -3.89549e-31 3.70017 0 5.10455e-15 0.113973 -1.21858e-45 -1.0231e-15)
(0 -6.23278e-30 3.89549e-31 3.70017 1.86169e-15 -2.37213e-15 0.113973 -2.31564e-16 -7.68105e-17)
(-3.45845e-15 9.21517e-30 0 3.62447 1.61733e-15 5.17818e-15 0.113271 -5.04536e-17 -9.88743e-16)
(7.84645e-15 -3.07172e-30 -5.09791e-31 3.62447 1.66689e-15 -2.37614e-15 0.113271 -1.98572e-16 -7.21365e-17)
(2.65124e-16 -5.02495e-30 3.78462e-31 3.5507 6.29805e-16 5.18257e-15 0.112585 -5.09546e-17 -9.53175e-16)
(1.70444e-15 3.0277e-30 -3.78462e-31 3.5507 5.55517e-16 -2.23838e-15 0.112585 -1.68309e-16 -7.02338e-17)
(0 5.96861e-30 -7.46076e-31 3.47879 -3.24684e-16 5.09e-15 0.111915 -9.59888e-18 -9.17835e-16)
(-7.90989e-15 0 1.64076e-30 3.47879 -4.89062e-17 -2.3361e-15 0.111915 -1.61924e-16 -8.06019e-17)
(-3.31187e-15 2.20057e-30 7.35383e-31 3.40869 -8.01684e-17 5.18564e-15 0.11126 -1.31223e-18 -8.81693e-16)
(0 5.88306e-30 0 3.40869 6.1761e-16 -2.52381e-15 0.11126 -1.49326e-16 -8.46704e-17)
(0 5.79874e-30 -3.62421e-31 3.34033 -3.93675e-16 5.25238e-15 0.110619 -2.50089e-17 -8.42835e-16)
(0 -2.89937e-30 3.62421e-31 3.34033 -6.20924e-16 -2.61622e-15 0.110619 -1.24065e-16 -8.91463e-17)
(2.0009e-15 1.2297e-29 -1.07168e-30 3.27366 -1.463e-15 5.135e-15 0.109993 -7.39382e-17 -8.03563e-16)
(0 -1.42891e-29 1.07168e-30 3.27366 -6.50214e-16 -2.44781e-15 0.109993 -1.0568e-16 -7.57188e-17)
(2.00862e-15 3.65301e-30 -7.04214e-31 3.20863 -3.54099e-15 5.05646e-15 0.109381 -1.6885e-16 -7.67139e-16)
(0 -2.81686e-30 0 3.20863 3.48678e-15 -2.43108e-15 0.109381 -6.87322e-17 -9.06054e-17)
(-4.03258e-15 6.74936e-30 0 3.14518 -4.80319e-15 5.08669e-15 0.108782 -1.64294e-16 -7.29658e-16)
(8.06516e-15 -2.77648e-30 -9.11086e-31 3.14518 5.21626e-15 -2.6051e-15 0.108782 1.97425e-17 -9.00955e-17)
(-2.02392e-15 1.99097e-30 0 3.08326 -4.40989e-15 5.01457e-15 0.108196 -1.45917e-16 -6.90191e-16)
(0 5.47338e-30 0 3.08326 3.20384e-15 -2.56102e-15 0.108196 1.05837e-16 -9.01355e-17)
(0 2.69747e-30 0 3.02283 -3.19892e-15 4.85004e-15 0.107623 -8.20176e-17 -6.49544e-16)
(0 -2.69747e-30 0 3.02283 2.78029e-15 -2.51444e-15 0.107623 1.49318e-16 -8.93846e-17)
(0 7.97641e-30 -9.97052e-31 2.96384 -1.76893e-15 4.65196e-15 0.107062 -4.58554e-17 -6.12126e-16)
(0 -2.6588e-30 6.64701e-31 2.96384 2.14995e-15 -2.63883e-15 0.107062 2.07298e-16 -1.01852e-16)
(-2.95064e-15 1.04828e-29 -6.55174e-31 2.90625 -1.59205e-15 4.68963e-15 0.106512 -7.13268e-17 -5.76695e-16)
(0 -5.24139e-30 3.27587e-31 2.90625 9.27999e-16 -2.93687e-15 0.106512 2.36362e-16 -1.14065e-16)
(-2.90835e-15 7.74941e-30 -9.68676e-31 2.85001 -3.16921e-15 4.75056e-15 0.105974 -1.65643e-16 -5.37806e-16)
(1.64322e-14 -2.58314e-30 -8.90947e-31 2.85001 1.98486e-15 -3.00671e-15 0.105974 2.60809e-16 -1.10081e-16)
(-4.1229e-15 3.98721e-30 0 2.79508 -4.76892e-15 4.65547e-15 0.105448 -1.95302e-16 -4.99276e-16)
(8.2458e-15 0 -9.41148e-31 2.79508 2.45115e-15 -2.7835e-15 0.105448 3.13497e-16 -1.00399e-16)
(4.89442e-15 -7.03314e-30 6.27405e-31 2.74143 -3.91368e-15 4.53918e-15 0.104932 -1.04385e-16 -4.60494e-16)
(0 7.52886e-30 -9.41108e-31 2.74143 1.19279e-15 -2.56748e-15 0.104932 3.50201e-16 -9.66069e-17)
(0 2.47365e-30 -3.09206e-31 2.68902 -2.87048e-15 4.35534e-15 0.104426 -1.19211e-16 -4.23302e-16)
(-8.30476e-15 0 9.3985e-31 2.68902 1.12039e-15 -2.8219e-15 0.104426 3.65037e-16 -1.23293e-16)
(-2.0835e-15 -7.71759e-30 1.52387e-30 2.63781 -2.03634e-15 4.27217e-15 0.103931 -4.10751e-17 -3.84726e-16)
(5.58885e-15 9.75279e-30 -2.47797e-30 2.63781 1.65894e-15 -3.02081e-15 0.103931 3.97467e-16 -1.15263e-16)
(0 5.35298e-30 -9.01219e-31 2.58776 -2.77669e-16 4.30187e-15 0.103445 -5.56299e-18 -3.48444e-16)
(0 -4.8065e-30 9.01219e-31 2.58776 8.03403e-17 -2.87387e-15 0.103445 4.43459e-16 -1.15043e-16)
(2.66704e-15 -4.73761e-30 2.96101e-31 2.53885 -1.16442e-15 4.21171e-15 0.102969 -8.97166e-17 -3.08777e-16)
(0 7.10642e-30 -8.88302e-31 2.53885 -1.7484e-15 -2.92521e-15 0.102969 4.52684e-16 -1.22843e-16)
(-2.10524e-15 2.01776e-30 -2.91857e-31 2.49104 -3.02781e-15 4.145e-15 0.102503 -1.60547e-16 -2.76072e-16)
(0 0 2.91857e-31 2.49104 -6.79574e-16 -3.13945e-15 0.102503 4.36133e-16 -1.36214e-16)
(9.57446e-16 -1.43701e-29 2.01372e-30 2.44429 -3.54588e-15 3.89779e-15 0.102045 -1.36015e-16 -2.40646e-16)
(1.68993e-14 1.84111e-29 -4.84467e-30 2.44429 4.79522e-16 -3.10767e-15 0.102045 4.5407e-16 -1.23763e-16)
(0 -1.20344e-29 -5.67102e-31 2.39858 -8.78838e-29 3.59349e-15 0.101597 0 -2.10612e-16)
(-2.554e-15 0 5.67102e-31 2.39858 -1.90853e-15 -2.8548e-15 0.101597 4.73888e-16 -1.18579e-16)
(0 6.70768e-30 -5.58974e-31 2.35389 -4.02077e-17 3.83668e-15 0.101157 -3.35365e-17 -1.79123e-16)
(0 -2.23589e-30 5.58974e-31 2.35389 -3.30258e-15 -3.17437e-15 0.101157 4.30407e-16 -1.55115e-16)
(-6.40124e-15 -1.15718e-29 2.75481e-30 2.31017 -1.42417e-15 3.89017e-15 0.100725 -9.13377e-17 -1.42369e-16)
(1.707e-14 1.76308e-29 -5.30646e-30 2.31017 -1.19415e-15 -3.45843e-15 0.100725 3.90666e-16 -1.47056e-16)
(2.44575e-15 -2.09556e-29 2.71533e-30 2.26741 -1.23093e-15 3.68398e-15 0.100301 -2.72835e-17 -1.05142e-16)
(1.46806e-14 1.95504e-29 -4.75105e-30 2.26741 -1.70561e-15 -3.17625e-15 0.100301 4.10903e-16 -1.34459e-16)
(-2.14781e-15 8.44774e-30 -1.60585e-30 2.22557 -7.94975e-16 3.70605e-15 0.099885 -4.43471e-17 -6.56521e-17)
(-2.41069e-15 -2.14113e-30 2.14113e-30 2.22557 -2.74846e-15 -3.16398e-15 0.099885 3.76745e-16 -1.50252e-16)
(4.53094e-15 -2.31203e-29 2.63805e-30 2.18464 -1.58103e-15 3.66778e-15 0.0994767 -1.00338e-16 -1.97195e-17)
(1.48622e-14 2.11044e-29 -4.69098e-30 2.18464 -2.61389e-16 -3.3066e-15 0.0994767 3.3953e-16 -1.51508e-16)
(0 -8.32077e-30 2.08019e-30 2.14459 -2.08775e-15 3.44881e-15 0.0990759 -9.29019e-17 2.19788e-17)
(8.64703e-15 8.32077e-30 -3.12114e-30 2.14459 -5.24282e-16 -3.2018e-15 0.0990759 3.77923e-16 -1.4488e-16)
(2.16869e-15 -8.26219e-30 1.51039e-30 2.1054 -9.48197e-29 2.1819e-15 0.0986822 0 5.12368e-17)
(0 8.20151e-30 -1.02519e-30 2.1054 -1.75589e-15 -3.18321e-15 0.0986822 3.58667e-16 -1.54188e-16)
(2.07574e-15 -5.21623e-33 5.5288e-30 2.06703 1.86322e-15 1.4766e-30 0.0982956 -7.25694e-17 -1.2326e-32)