/*--------------------------------*- C++ -*----------------------------------*\
| =========                 |                                                 |
| \\      /  F ield         | OpenFOAM: The Open Source CFD Toolbox           |
|  \\    /   O peration     | Version:  2106                                  |
|   \\  /    A nd           | Website:  www.openfoam.com                      |
|    \\/     M anipulation  |                                                 |
\*---------------------------------------------------------------------------*/
FoamFile
{
    version     2.0;
    format      ascii;
    arch        "LSB;label=32;scalar=64";
    class       surfaceScalarField;
    location    "9000";
    object      phi;
}
// * * * * * * * * * * * * * * * * * * * * * * * * * * * * * * * * * * * * * //

dimensions      [0 3 -1 0 0 0 0];

oriented        oriented;

internalField   nonuniform List<scalar> 
5116
(
1.17008e-08
-9.31618e-18
-3.30442e-22
-6.50725e-22
-1.29498e-23
3.57817e-08
-9.31367e-18
-8.60584e-22
-2.20499e-21
-8.08403e-23
6.09095e-08
-9.31112e-18
-8.80853e-22
-3.78985e-21
-8.44128e-23
8.71202e-08
-9.30849e-18
-9.11364e-22
-5.42263e-21
-8.81384e-23
1.14451e-07
-9.30577e-18
-9.42117e-22
-7.12121e-21
-9.20237e-23
1.42939e-07
-9.30299e-18
-9.73394e-22
-8.85154e-21
-9.60758e-23
1.72624e-07
-9.30005e-18
-1.00593e-21
-1.06877e-20
-1.00302e-22
2.03548e-07
-9.29701e-18
-1.03974e-21
-1.25704e-20
-1.04708e-22
2.35751e-07
-9.29391e-18
-1.07474e-21
-1.45426e-20
-1.09303e-22
2.69277e-07
-9.29073e-18
-1.11094e-21
-1.65273e-20
-1.14093e-22
3.04171e-07
-9.28738e-18
-1.1484e-21
-1.85998e-20
-1.19087e-22
3.40478e-07
-9.284e-18
-1.18718e-21
-2.07188e-20
-1.24293e-22
3.78246e-07
-9.28044e-18
-1.22735e-21
-2.29897e-20
-1.29721e-22
4.17523e-07
-9.27679e-18
-1.26895e-21
-2.51647e-20
-1.35378e-22
4.58361e-07
-9.27297e-18
-1.31205e-21
-2.76081e-20
-1.41277e-22
5.0081e-07
-9.2691e-18
-1.35669e-21
-3.0011e-20
-1.47425e-22
5.44925e-07
-9.26494e-18
-1.40293e-21
-3.26209e-20
-1.53835e-22
5.9076e-07
-9.26085e-18
-1.45084e-21
-3.50965e-20
-1.60516e-22
6.38373e-07
-9.25667e-18
-1.50048e-21
-3.76788e-20
-1.67478e-22
6.87822e-07
-9.25196e-18
-1.55191e-21
-4.07064e-20
-1.74731e-22
7.39167e-07
-9.24731e-18
-1.60519e-21
-4.34513e-20
-1.82288e-22
7.9247e-07
-9.2426e-18
-1.6604e-21
-4.64166e-20
-1.90165e-22
8.47795e-07
-9.23785e-18
-1.71759e-21
-4.94559e-20
-1.98374e-22
9.05208e-07
-9.23264e-18
-1.77684e-21
-5.25709e-20
-2.06927e-22
9.64776e-07
-9.22705e-18
-1.83823e-21
-5.59246e-20
-2.15835e-22
1.02657e-06
-9.22131e-18
-1.90182e-21
-5.94063e-20
-2.25117e-22
1.09066e-06
-9.21619e-18
-1.96768e-21
-6.26635e-20
-2.34785e-22
1.15712e-06
-9.21061e-18
-2.03589e-21
-6.58228e-20
-2.44858e-22
1.22602e-06
-9.20407e-18
-2.10651e-21
-6.94892e-20
-2.55353e-22
1.29744e-06
-9.19771e-18
-2.17963e-21
-7.35302e-20
-2.66272e-22
1.37146e-06
-9.19114e-18
-2.25531e-21
-7.72377e-20
-2.77628e-22
1.44816e-06
-9.1846e-18
-2.33362e-21
-8.13308e-20
-2.8945e-22
1.52763e-06
-9.17745e-18
-2.41463e-21
-8.55758e-20
-3.01749e-22
1.60993e-06
-9.17044e-18
-2.49839e-21
-8.96356e-20
-3.14529e-22
1.69517e-06
-9.163e-18
-2.58496e-21
-9.40894e-20
-3.27801e-22
1.78342e-06
-9.1553e-18
-2.67441e-21
-9.85291e-20
-3.41579e-22
1.87477e-06
-9.14727e-18
-2.76678e-21
-1.0355e-19
-3.5587e-22
1.96932e-06
-9.1388e-18
-2.86209e-21
-1.08641e-19
-3.7068e-22
2.06714e-06
-9.1302e-18
-2.96035e-21
-1.13397e-19
-3.86014e-22
2.16833e-06
-9.12075e-18
-3.06156e-21
-1.19209e-19
-4.01921e-22
2.27297e-06
-9.11134e-18
-3.1657e-21
-1.24218e-19
-4.18391e-22
2.38116e-06
-9.10255e-18
-3.27273e-21
-1.29668e-19
-4.35441e-22
2.49297e-06
-9.09231e-18
-3.38259e-21
-1.35338e-19
-4.53054e-22
2.60851e-06
-9.08293e-18
-3.49525e-21
-1.41061e-19
-4.71229e-22
2.72784e-06
-9.07246e-18
-3.61058e-21
-1.4685e-19
-4.89978e-22
2.85105e-06
-9.06099e-18
-3.72847e-21
-1.53477e-19
-5.09274e-22
2.97823e-06
-9.05031e-18
-3.8488e-21
-1.59826e-19
-5.29081e-22
3.10944e-06
-9.03939e-18
-3.97135e-21
-1.66342e-19
-5.49425e-22
3.24476e-06
-9.0273e-18
-4.09595e-21
-1.7369e-19
-5.70267e-22
3.38426e-06
-9.01552e-18
-4.22239e-21
-1.80779e-19
-5.91574e-22
3.528e-06
-9.00335e-18
-4.3504e-21
-1.87719e-19
-6.13298e-22
3.67603e-06
-8.99027e-18
-4.47972e-21
-1.95118e-19
-6.35406e-22
3.82842e-06
-8.97634e-18
-4.61009e-21
-2.04055e-19
-6.57868e-22
3.98519e-06
-8.96232e-18
-4.74114e-21
-2.12879e-19
-6.80589e-22
4.1464e-06
-8.94813e-18
-4.87254e-21
-2.2204e-19
-7.03537e-22
4.31208e-06
-8.93463e-18
-5.00396e-21
-2.3064e-19
-7.26688e-22
4.48226e-06
-8.92156e-18
-5.13498e-21
-2.38282e-19
-7.50019e-22
4.65694e-06
-8.9066e-18
-5.26521e-21
-2.46018e-19
-7.73618e-22
4.83616e-06
-8.89227e-18
-5.39438e-21
-2.54453e-19
-7.97386e-22
5.01992e-06
-8.8766e-18
-5.52208e-21
-2.62712e-19
-8.21193e-22
5.20822e-06
-8.86105e-18
-5.64802e-21
-2.72107e-19
-8.45033e-22
5.40107e-06
-8.84415e-18
-5.77185e-21
-2.80474e-19
-8.68773e-22
5.59845e-06
-8.82674e-18
-5.8933e-21
-2.90302e-19
-8.92551e-22
5.80035e-06
-8.80859e-18
-6.01209e-21
-3.00846e-19
-9.16286e-22
6.00678e-06
-8.78908e-18
-6.12803e-21
-3.12364e-19
-9.39979e-22
6.21771e-06
-8.77176e-18
-6.24109e-21
-3.21214e-19
-9.63488e-22
6.43312e-06
-8.75558e-18
-6.35091e-21
-3.30074e-19
-9.86889e-22
6.65301e-06
-8.73808e-18
-6.45732e-21
-3.40686e-19
-1.01029e-21
6.87736e-06
-8.72186e-18
-6.56027e-21
-3.51102e-19
-1.03341e-21
7.10616e-06
-8.7013e-18
-6.65971e-21
-3.61742e-19
-1.05628e-21
7.33939e-06
-8.68222e-18
-6.75586e-21
-3.73012e-19
-1.07898e-21
7.57705e-06
-8.66269e-18
-6.84871e-21
-3.84844e-19
-1.10144e-21
7.81913e-06
-8.64334e-18
-6.93818e-21
-3.95574e-19
-1.12371e-21
8.06563e-06
-8.62419e-18
-7.02442e-21
-4.08649e-19
-1.14565e-21
8.31654e-06
-8.6046e-18
-7.10735e-21
-4.21272e-19
-1.1672e-21
8.57188e-06
-8.58397e-18
-7.18716e-21
-4.35309e-19
-1.18849e-21
8.83166e-06
-8.56286e-18
-7.26407e-21
-4.48633e-19
-1.20946e-21
9.09588e-06
-8.54255e-18
-7.33833e-21
-4.61514e-19
-1.23034e-21
9.36457e-06
-8.52413e-18
-7.40986e-21
-4.75927e-19
-1.25114e-21
9.63776e-06
-8.50167e-18
-7.47854e-21
-4.91466e-19
-1.27172e-21
9.91546e-06
-8.48014e-18
-7.54489e-21
-5.05321e-19
-1.29201e-21
1.01977e-05
-8.45859e-18
-7.60898e-21
-5.20043e-19
-1.31229e-21
1.04846e-05
-8.4353e-18
-7.67092e-21
-5.35314e-19
-1.33243e-21
1.07761e-05
-8.41585e-18
-7.731e-21
-5.47546e-19
-1.35237e-21
1.10722e-05
-8.39661e-18
-7.78889e-21
-5.59457e-19
-1.37235e-21
1.13731e-05
-8.37652e-18
-7.84458e-21
-5.70054e-19
-1.39252e-21
1.16788e-05
-8.3561e-18
-7.89826e-21
-5.79389e-19
-1.41321e-21
1.19894e-05
-8.33704e-18
-7.95007e-21
-5.88441e-19
-1.43454e-21
1.23048e-05
-8.31434e-18
-7.99991e-21
-5.99819e-19
-1.45675e-21
1.26253e-05
-8.2934e-18
-8.04824e-21
-6.11098e-19
-1.47949e-21
1.29508e-05
-8.27128e-18
-8.09529e-21
-6.22479e-19
-1.50262e-21
1.32814e-05
-8.24895e-18
-8.14096e-21
-6.34474e-19
-1.52634e-21
1.36173e-05
-8.22691e-18
-8.18571e-21
-6.45079e-19
-1.55027e-21
1.39584e-05
-8.20628e-18
-8.22959e-21
-6.53484e-19
-1.57463e-21
1.43049e-05
-8.18485e-18
-8.27254e-21
-6.66171e-19
-1.60052e-21
1.46569e-05
-8.16127e-18
-8.31473e-21
-6.78172e-19
-1.62726e-21
1.50144e-05
-8.13701e-18
-8.35615e-21
-6.921e-19
-1.65471e-21
1.53776e-05
-8.11598e-18
-8.39686e-21
-7.04326e-19
-1.6821e-21
1.57465e-05
-8.0885e-18
-8.437e-21
-7.19918e-19
-1.71038e-21
1.61213e-05
-8.06755e-18
-8.47608e-21
-7.30235e-19
-1.73967e-21
1.6502e-05
-8.04132e-18
-8.5139e-21
-7.46621e-19
-1.77039e-21
1.68888e-05
-8.01593e-18
-8.55138e-21
-7.61546e-19
-1.80075e-21
1.72817e-05
-7.99322e-18
-8.58818e-21
-7.7769e-19
-1.83177e-21
1.76809e-05
-7.97208e-18
-8.62404e-21
-7.94027e-19
-1.86133e-21
1.80865e-05
-7.95063e-18
-8.65854e-21
-8.07678e-19
-1.89073e-21
1.84986e-05
-7.92695e-18
-8.69322e-21
-8.22292e-19
-1.91993e-21
1.89173e-05
-7.90105e-18
-8.72826e-21
-8.39953e-19
-1.94816e-21
1.93428e-05
-7.87614e-18
-8.76367e-21
-8.57352e-19
-1.97559e-21
1.97751e-05
-7.8534e-18
-8.80055e-21
-8.7378e-19
-2.00054e-21
2.02144e-05
-7.82985e-18
-8.83754e-21
-8.82272e-19
-2.0239e-21
2.06607e-05
-7.80216e-18
-8.87408e-21
-8.98334e-19
-2.04791e-21
2.11144e-05
-7.78337e-18
-8.911e-21
-9.10993e-19
-2.06995e-21
2.15754e-05
-7.76132e-18
-8.94667e-21
-9.30215e-19
-2.09077e-21
2.20439e-05
-7.73269e-18
-8.98137e-21
-9.48e-19
-2.10946e-21
2.252e-05
-7.70939e-18
-9.01582e-21
-9.63457e-19
-2.12712e-21
2.30039e-05
-7.6807e-18
-9.04966e-21
-9.802e-19
-2.14366e-21
2.34957e-05
-7.65676e-18
-9.0828e-21
-9.90167e-19
-2.15768e-21
2.39956e-05
-7.62418e-18
-9.11646e-21
-1.00098e-18
-2.16997e-21
2.45037e-05
-7.59755e-18
-9.15012e-21
-1.01767e-18
-2.18235e-21
2.50201e-05
-7.57416e-18
-9.18251e-21
-1.0284e-18
-2.1912e-21
2.55451e-05
-7.54895e-18
-9.21295e-21
-1.03774e-18
-2.19959e-21
2.60787e-05
-7.52682e-18
-9.24244e-21
-1.04995e-18
-2.20803e-21
2.66211e-05
-7.50497e-18
-9.26913e-21
-1.05649e-18
-2.21575e-21
2.71724e-05
-7.48465e-18
-9.29255e-21
-1.06844e-18
-2.22722e-21
2.77329e-05
-7.4603e-18
-9.31178e-21
-1.07769e-18
-2.24043e-21
2.83027e-05
-7.43955e-18
-9.32885e-21
-1.08854e-18
-2.25529e-21
2.8882e-05
-7.41543e-18
-9.33996e-21
-1.09647e-18
-2.27301e-21
2.94709e-05
-7.3913e-18
-9.34791e-21
-1.1063e-18
-2.29396e-21
3.00695e-05
-7.36926e-18
-9.35057e-21
-1.11157e-18
-2.31555e-21
3.06782e-05
-7.34243e-18
-9.35096e-21
-1.12832e-18
-2.34053e-21
3.1297e-05
-7.30954e-18
-9.34752e-21
-1.15317e-18
-2.36521e-21
3.19261e-05
-7.27884e-18
-9.34746e-21
-1.17135e-18
-2.38635e-21
3.25657e-05
-7.24521e-18
-9.34703e-21
-1.19523e-18
-2.40521e-21
3.3216e-05
-7.21018e-18
-9.34971e-21
-1.2215e-18
-2.41714e-21
3.38772e-05
-7.1768e-18
-9.35285e-21
-1.24229e-18
-2.42537e-21
3.45495e-05
-7.15345e-18
-9.35489e-21
-1.25087e-18
-2.42933e-21
3.5233e-05
-7.13925e-18
-9.35297e-21
-1.26316e-18
-2.43645e-21
3.5928e-05
-7.12417e-18
-9.34182e-21
-1.27613e-18
-2.44524e-21
3.66347e-05
-7.11115e-18
-9.32502e-21
-1.28259e-18
-2.45406e-21
3.73532e-05
-7.09234e-18
-9.3025e-21
-1.28433e-18
-2.46669e-21
3.80838e-05
-7.06495e-18
-9.27871e-21
-1.29858e-18
-2.48319e-21
3.88267e-05
-7.04569e-18
-9.25197e-21
-1.30472e-18
-2.49563e-21
3.95821e-05
-7.0211e-18
-9.22759e-21
-1.30735e-18
-2.50783e-21
4.03502e-05
-6.99396e-18
-9.20585e-21
-1.32653e-18
-2.52088e-21
4.11313e-05
-6.97113e-18
-9.19071e-21
-1.32856e-18
-2.51752e-21
4.19255e-05
-6.95133e-18
-9.17536e-21
-1.34071e-18
-2.51094e-21
4.27331e-05
-6.92954e-18
-9.15761e-21
-1.33994e-18
-2.50169e-21
4.35543e-05
-6.90819e-18
-9.14367e-21
-1.34264e-18
-2.49472e-21
4.43894e-05
-6.88128e-18
-9.12873e-21
-1.35453e-18
-2.48945e-21
4.52385e-05
-6.84598e-18
-9.10986e-21
-1.37274e-18
-2.47939e-21
4.61021e-05
-6.82356e-18
-9.08859e-21
-1.38936e-18
-2.46504e-21
4.69802e-05
-6.79951e-18
-9.06305e-21
-1.40135e-18
-2.44076e-21
4.78731e-05
-6.77234e-18
-9.03485e-21
-1.41342e-18
-2.41899e-21
4.87811e-05
-6.72969e-18
-9.0006e-21
-1.42243e-18
-2.39813e-21
4.97045e-05
-6.70214e-18
-8.97393e-21
-1.4365e-18
-2.37251e-21
5.06435e-05
-6.6732e-18
-8.94468e-21
-1.4542e-18
-2.34924e-21
5.15983e-05
-6.65312e-18
-8.91788e-21
-1.46648e-18
-2.33012e-21
5.25693e-05
-6.62514e-18
-8.87542e-21
-1.48106e-18
-2.30133e-21
5.35568e-05
-6.58235e-18
-8.83507e-21
-1.49421e-18
-2.26318e-21
5.45609e-05
-6.53574e-18
-8.80722e-21
-1.51186e-18
-2.23056e-21
5.5582e-05
-6.49821e-18
-8.78678e-21
-1.53235e-18
-2.19711e-21
5.66204e-05
-6.46477e-18
-8.76802e-21
-1.56366e-18
-2.14558e-21
5.76764e-05
-6.44568e-18
-8.75557e-21
-1.57949e-18
-2.07442e-21
5.87503e-05
-6.4232e-18
-8.73326e-21
-1.58991e-18
-1.99943e-21
5.98423e-05
-6.41306e-18
-8.7147e-21
-1.59447e-18
-1.93057e-21
6.09528e-05
-6.40344e-18
-8.67453e-21
-1.60197e-18
-1.87828e-21
6.20821e-05
-6.36594e-18
-8.61445e-21
-1.63069e-18
-1.84608e-21
6.32306e-05
-6.33321e-18
-8.56027e-21
-1.66566e-18
-1.8175e-21
6.43984e-05
-6.30579e-18
-8.50245e-21
-1.69726e-18
-1.78424e-21
6.5586e-05
-6.28058e-18
-8.44225e-21
-1.71419e-18
-1.71464e-21
6.67938e-05
-6.25738e-18
-8.38577e-21
-1.73869e-18
-1.64086e-21
6.80219e-05
-6.22191e-18
-8.33191e-21
-1.74899e-18
-1.55302e-21
6.92709e-05
-6.21139e-18
-8.31369e-21
-1.73439e-18
-1.44331e-21
7.0541e-05
-6.19294e-18
-8.28431e-21
-1.74099e-18
-1.36488e-21
7.18325e-05
-6.19161e-18
-8.24651e-21
-1.71597e-18
-1.28586e-21
7.3146e-05
-6.18118e-18
-8.23174e-21
-1.72322e-18
-1.21319e-21
7.44816e-05
-6.16938e-18
-8.23866e-21
-1.72509e-18
-1.12717e-21
7.58398e-05
-6.13118e-18
-8.24514e-21
-1.73736e-18
-1.04891e-21
7.7221e-05
-6.12384e-18
-8.28056e-21
-1.73874e-18
-9.18815e-22
7.86256e-05
-6.10272e-18
-8.33021e-21
-1.74461e-18
-7.59641e-22
8.00539e-05
-6.07531e-18
-8.39001e-21
-1.74983e-18
-6.02968e-22
8.15063e-05
-6.0546e-18
-8.44904e-21
-1.75047e-18
-4.71452e-22
8.29833e-05
-6.04209e-18
-8.50372e-21
-1.76119e-18
-3.44879e-22
8.44852e-05
-6.02967e-18
-8.5813e-21
-1.75056e-18
-1.75983e-22
8.60125e-05
-6.00195e-18
-8.65266e-21
-1.76664e-18
-3.13901e-23
8.75656e-05
-5.97338e-18
-8.75616e-21
-1.78259e-18
1.0662e-22
8.91449e-05
-5.94157e-18
-8.83239e-21
-1.7888e-18
2.43381e-22
9.07509e-05
-5.91183e-18
-8.92769e-21
-1.80453e-18
3.52138e-22
9.23839e-05
-5.88814e-18
-9.00606e-21
-1.82504e-18
4.72693e-22
9.40445e-05
-5.86664e-18
-9.06174e-21
-1.8363e-18
5.83127e-22
9.57332e-05
-5.83092e-18
-9.12651e-21
-1.85618e-18
7.02569e-22
9.74503e-05
-5.79179e-18
-9.1994e-21
-1.86185e-18
8.52553e-22
9.91963e-05
-5.75088e-18
-9.31435e-21
-1.87823e-18
9.90629e-22
0.000100972
-5.71051e-18
-9.45573e-21
-1.89452e-18
1.13208e-21
0.000102777
-5.6724e-18
-9.60309e-21
-1.91061e-18
1.2573e-21
0.000104613
-5.63786e-18
-9.73977e-21
-1.92984e-18
1.30942e-21
0.00010648
-5.59265e-18
-9.88903e-21
-1.96003e-18
1.3318e-21
0.000108378
-5.54361e-18
-1.00266e-20
-1.99782e-18
1.34281e-21
0.000110308
-5.50011e-18
-1.02494e-20
-2.031e-18
1.32154e-21
0.00011227
-5.47533e-18
-1.05137e-20
-2.06961e-18
1.28742e-21
0.000114266
-5.40388e-18
-1.07011e-20
-2.10845e-18
1.25507e-21
0.000116295
-5.37737e-18
-1.09531e-20
-2.11861e-18
1.22922e-21
0.000118358
-5.34314e-18
-1.11308e-20
-2.15335e-18
1.10704e-21
0.000120455
-5.30725e-18
-1.13521e-20
-2.17064e-18
1.06325e-21
0.000122588
-5.26422e-18
-1.15985e-20
-2.22502e-18
1.01966e-21
0.000124757
-5.24698e-18
-1.17902e-20
-2.26225e-18
9.56279e-22
0.000126962
-5.20674e-18
-1.1924e-20
-2.27912e-18
9.58906e-22
0.000129204
-5.18968e-18
-1.2059e-20
-2.30301e-18
9.35971e-22
0.000131484
-5.16351e-18
-1.21325e-20
-2.31514e-18
9.59563e-22
0.000133802
-5.12307e-18
-1.214e-20
-2.3512e-18
9.01891e-22
0.000136158
-5.11521e-18
-1.21733e-20
-2.35805e-18
9.11214e-22
0.000138554
-5.05139e-18
-1.20443e-20
-2.39468e-18
6.42139e-22
0.00014099
-4.98353e-18
-1.20348e-20
-2.43676e-18
3.64965e-22
0.000143467
-4.9445e-18
-1.22178e-20
-2.48831e-18
1.71103e-22
0.000145986
-4.86991e-18
-1.23707e-20
-2.51167e-18
1.21422e-24
0.000148546
-4.84425e-18
-1.25709e-20
-2.52435e-18
-1.54908e-22
0.000151149
-4.77718e-18
-1.26966e-20
-2.56517e-18
-3.89533e-22
0.000153795
-4.73335e-18
-1.28249e-20
-2.59171e-18
-6.40544e-22
0.000156486
-4.6922e-18
-1.29807e-20
-2.62225e-18
-9.12216e-22
0.000159221
-4.64425e-18
-1.31034e-20
-2.65055e-18
-1.05735e-21
0.000162002
-4.59845e-18
-1.33213e-20
-2.6573e-18
-1.22208e-21
0.00016483
-4.54963e-18
-1.3471e-20
-2.68238e-18
-1.58344e-21
0.000167704
-4.53068e-18
-1.37114e-20
-2.70693e-18
-1.76377e-21
0.000170626
-4.52511e-18
-1.39257e-20
-2.69531e-18
-1.78991e-21
0.000173597
-4.46603e-18
-1.39545e-20
-2.71498e-18
-2.02648e-21
0.000176617
-4.41632e-18
-1.40502e-20
-2.74178e-18
-2.34661e-21
0.000179687
-4.36369e-18
-1.40159e-20
-2.76324e-18
-2.39117e-21
0.000182808
-4.31014e-18
-1.41741e-20
-2.77595e-18
-2.16802e-21
0.00018598
-4.28886e-18
-1.4138e-20
-2.78008e-18
-2.33595e-21
0.000189206
-4.2631e-18
-1.38702e-20
-2.79463e-18
-2.59711e-21
0.000192484
-4.20335e-18
-1.34793e-20
-2.80109e-18
-2.7607e-21
0.000195817
-4.18915e-18
-1.33549e-20
-2.79592e-18
-2.84471e-21
0.000199205
-4.14815e-18
-1.30382e-20
-2.81727e-18
-3.36219e-21
0.000202649
-4.10022e-18
-1.3047e-20
-2.83784e-18
-3.80137e-21
0.00020615
-4.0671e-18
-1.3269e-20
-2.88334e-18
-4.24465e-21
0.000209709
-4.04196e-18
-1.3603e-20
-2.89958e-18
-4.37926e-21
0.000213326
-3.97702e-18
-1.39842e-20
-2.90265e-18
-4.32017e-21
0.000217003
-3.99637e-18
-1.43867e-20
-2.88205e-18
-4.72393e-21
0.00022074
-3.98465e-18
-1.46425e-20
-2.91168e-18
-5.39798e-21
0.000224539
-3.94671e-18
-1.44641e-20
-2.93331e-18
-5.84199e-21
0.0002284
-3.93295e-18
-1.41697e-20
-2.94212e-18
-5.95872e-21
0.000232324
-3.90783e-18
-1.36416e-20
-2.94015e-18
-6.44464e-21
0.000236313
-3.90472e-18
-1.293e-20
-2.91227e-18
-7.11413e-21
0.000240367
-3.86536e-18
-1.24625e-20
-2.90707e-18
-7.86901e-21
0.000244488
-3.856e-18
-1.22571e-20
-2.92265e-18
-8.57086e-21
0.000248675
-3.81629e-18
-1.16993e-20
-2.9737e-18
-8.92252e-21
0.000252932
-3.78662e-18
-1.03959e-20
-2.98705e-18
-9.57985e-21
0.000257257
-3.68879e-18
-9.46448e-21
-2.9696e-18
-1.10235e-20
0.000261654
-3.57212e-18
-9.57449e-21
-2.97174e-18
-1.22932e-20
0.000266121
-3.54568e-18
-1.09212e-20
-3.04957e-18
-1.31822e-20
0.000270662
-3.47253e-18
-1.22933e-20
-3.08186e-18
-1.32278e-20
0.000275276
-3.49546e-18
-1.47122e-20
-3.00805e-18
-1.25759e-20
0.000279965
-3.46294e-18
-1.70226e-20
-3.04878e-18
-1.33089e-20
0.00028473
-3.42092e-18
-1.93733e-20
-3.04494e-18
-1.39101e-20
0.000289572
-3.36865e-18
-2.20071e-20
-2.99422e-18
-1.45453e-20
0.000294493
-3.34305e-18
-2.37753e-20
-3.0209e-18
-1.61129e-20
0.000299493
-3.30525e-18
-2.47932e-20
-3.07775e-18
-1.75532e-20
0.000304574
-3.27381e-18
-2.59922e-20
-3.10138e-18
-1.73827e-20
0.000309736
-3.22393e-18
-2.48005e-20
-3.10376e-18
-1.75171e-20
0.000314981
-3.21918e-18
-2.36581e-20
-3.08287e-18
-1.81902e-20
0.000320311
-3.21531e-18
-2.23173e-20
-3.06803e-18
-1.89474e-20
0.000325726
-3.1956e-18
-2.01427e-20
-3.08758e-18
-1.852e-20
0.000331228
-3.22559e-18
-1.8603e-20
-3.08173e-18
-1.74539e-20
0.000336817
-3.20263e-18
-1.77868e-20
-3.06946e-18
-1.56718e-20
0.000342496
-3.20721e-18
-1.60959e-20
-3.07946e-18
-1.43188e-20
0.000348265
-3.13618e-18
-1.50084e-20
-2.96094e-18
-1.21588e-20
0.000354126
-3.16941e-18
-1.46839e-20
-2.95142e-18
-1.28491e-20
0.00036008
-3.03566e-18
-1.31163e-20
-3.06011e-18
-1.51014e-20
0.000366128
-3.01332e-18
-1.25952e-20
-3.03223e-18
-1.56371e-20
0.000372272
-2.98639e-18
-1.20851e-20
-2.99659e-18
-1.62892e-20
0.000378512
-2.95212e-18
-1.07455e-20
-3.04545e-18
-1.72522e-20
0.000384851
-2.95227e-18
-1.00562e-20
-3.04972e-18
-1.7666e-20
0.000391289
-2.96848e-18
-9.18371e-21
-3.04182e-18
-1.80115e-20
0.000397828
-3.06927e-18
-7.65738e-21
-2.91785e-18
-1.77473e-20
0.000404468
-2.96077e-18
-5.53923e-21
-2.93733e-18
-1.72342e-20
0.000411213
-2.85013e-18
-4.39313e-21
-2.89964e-18
-1.81648e-20
0.000418062
-2.78863e-18
-5.34563e-21
-2.96296e-18
-2.02966e-20
0.000425017
-2.86675e-18
-8.58698e-21
-2.97008e-18
-1.9433e-20
0.00043208
-2.84521e-18
-8.84858e-21
-2.95982e-18
-1.74015e-20
0.000439251
-2.89003e-18
-9.42192e-21
-2.91216e-18
-1.42963e-20
0.000446532
-2.89502e-18
-1.0568e-20
-2.86954e-18
-1.23123e-20
0.000453924
-2.88218e-18
-9.68884e-21
-2.88387e-18
-1.35613e-20
0.000461429
-2.83518e-18
-1.22114e-20
-2.88127e-18
-1.43221e-20
0.000469048
-2.83607e-18
-1.51694e-20
-2.88995e-18
-1.62591e-20
0.000476782
-2.80347e-18
-1.61854e-20
-2.9195e-18
-1.52228e-20
0.000484632
-2.74998e-18
-1.83355e-20
-2.91258e-18
-1.09001e-20
0.0004926
-2.81043e-18
-2.17577e-20
-2.77395e-18
-8.08427e-21
0.000500686
-2.67361e-18
-2.41358e-20
-2.75258e-18
-9.76667e-21
0.000508893
-2.69082e-18
-2.59443e-20
-2.56407e-18
-7.88196e-21
0.00051722
-2.72156e-18
-2.36749e-20
-2.62752e-18
-1.12808e-20
0.000525669
-2.55096e-18
-1.71424e-20
-2.45435e-18
-9.68412e-21
0.000534242
-2.62168e-18
-1.32138e-20
-2.34242e-18
-1.22019e-20
0.000542938
-2.28699e-18
-2.5686e-21
-2.37675e-18
-1.61615e-20
0.00055176
-2.29588e-18
-2.81036e-21
-2.2339e-18
-1.71404e-20
0.000560707
-2.17346e-18
5.37318e-22
-2.24655e-18
-2.25172e-20
0.000569781
-2.20024e-18
-1.65873e-21
-2.20938e-18
-2.29493e-20
0.000578982
-1.84915e-18
-4.18174e-21
-2.12969e-18
-2.06452e-20
0.000588311
-1.85567e-18
-1.15834e-20
-2.1162e-18
-1.56679e-20
0.000597768
-1.80871e-18
-1.32019e-20
-1.87187e-18
-8.66027e-21
0.000607354
-1.81315e-18
-1.91597e-20
-1.79031e-18
-9.74797e-21
0.000617069
-1.7389e-18
-2.14332e-20
-1.7635e-18
-9.35103e-21
0.000626913
-1.82237e-18
-2.06825e-20
-1.80482e-18
-7.55632e-21
0.000636886
-1.78339e-18
-9.36945e-21
-1.673e-18
-2.81939e-21
0.000646987
-1.65091e-18
-4.70123e-21
-1.69399e-18
2.64621e-21
0.000657217
-1.87562e-18
-1.04938e-20
-1.63278e-18
5.43638e-21
0.000667575
-1.72344e-18
-1.36129e-21
-1.75591e-18
2.89329e-21
0.000678059
-1.67449e-18
-4.78788e-21
-1.69628e-18
2.87917e-21
0.000688669
-1.67814e-18
-1.18685e-20
-1.4972e-18
-4.02966e-22
0.000699403
-1.52969e-18
-1.5642e-20
-1.50131e-18
-7.20882e-21
0.00071026
-1.39177e-18
-1.92741e-20
-1.57782e-18
-9.536e-21
0.000721237
-1.32797e-18
-2.19728e-20
-1.58964e-18
-1.19858e-20
0.000732332
-1.44857e-18
-3.34481e-20
-1.40821e-18
-9.78425e-21
0.000743543
-1.40818e-18
-2.59293e-20
-1.4198e-18
-1.74399e-20
0.000754866
-1.35568e-18
-2.65684e-20
-1.40874e-18
-1.68854e-20
0.000766298
-1.33295e-18
-1.98558e-20
-1.37991e-18
-1.49474e-20
0.000777835
-1.37351e-18
-1.39317e-20
-1.19636e-18
-1.35483e-20
0.000789474
-1.37557e-18
-1.43245e-21
-1.24229e-18
-1.23905e-20
0.000801209
-1.07176e-18
1.85792e-20
-1.13634e-18
2.36957e-21
0.000813036
-1.08773e-18
1.63429e-20
-1.11252e-18
6.98533e-21
0.00082495
1.4571e-20
-1.04252e-18
5.10011e-21
-1.09795e-18
1.17008e-08
-3.00241e-22
-4.40292e-23
3.57817e-08
-1.07547e-21
-2.08405e-22
6.09095e-08
-1.87091e-21
-3.79775e-22
8.71202e-08
-2.67763e-21
-5.44189e-22
1.14451e-07
-3.49763e-21
-7.49041e-22
1.42939e-07
-4.33642e-21
-9.77644e-22
1.72624e-07
-5.25611e-21
-1.21003e-21
2.03548e-07
-6.17229e-21
-1.43085e-21
2.35751e-07
-7.09576e-21
-1.67362e-21
2.69277e-07
-8.16414e-21
-1.88352e-21
3.04171e-07
-9.20433e-21
-2.0541e-21
3.40478e-07
-1.02661e-20
-2.26512e-21
3.78246e-07
-1.14561e-20
-2.50825e-21
4.17523e-07
-1.264e-20
-2.7578e-21
4.58361e-07
-1.38131e-20
-3.04212e-21
5.0081e-07
-1.48736e-20
-3.3428e-21
5.44925e-07
-1.62456e-20
-3.57623e-21
5.9076e-07
-1.77531e-20
-3.61881e-21
6.38373e-07
-1.91126e-20
-3.67521e-21
6.87822e-07
-2.05379e-20
-3.97798e-21
7.39167e-07
-2.18958e-20
-4.28356e-21
7.9247e-07
-2.3373e-20
-4.60186e-21
8.47795e-07
-2.48931e-20
-4.91548e-21
9.05208e-07
-2.67251e-20
-5.08497e-21
9.64776e-07
-2.82155e-20
-5.63982e-21
1.02657e-06
-2.96323e-20
-6.22996e-21
1.09066e-06
-3.14134e-20
-6.88241e-21
1.15712e-06
-3.29695e-20
-7.46004e-21
1.22602e-06
-3.49649e-20
-7.80795e-21
1.29744e-06
-3.66646e-20
-8.39408e-21
1.37146e-06
-3.8432e-20
-9.10821e-21
1.44816e-06
-4.0782e-20
-9.81399e-21
1.52763e-06
-4.27191e-20
-1.04366e-20
1.60993e-06
-4.49785e-20
-1.0678e-20
1.69517e-06
-4.75483e-20
-1.10993e-20
1.78342e-06
-5.0624e-20
-1.11436e-20
1.87477e-06
-5.31868e-20
-1.17532e-20
1.96932e-06
-5.56956e-20
-1.22992e-20
2.06714e-06
-5.79499e-20
-1.34453e-20
2.16833e-06
-6.00857e-20
-1.44258e-20
2.27297e-06
-6.21009e-20
-1.54092e-20
2.38116e-06
-6.47512e-20
-1.6478e-20
2.49297e-06
-6.78257e-20
-1.73495e-20
2.60851e-06
-7.06524e-20
-1.85669e-20
2.72784e-06
-7.33707e-20
-1.93579e-20
2.85105e-06
-7.5903e-20
-2.00698e-20
2.97823e-06
-7.87078e-20
-2.19019e-20
3.10944e-06
-8.18973e-20
-2.33124e-20
3.24476e-06
-8.50765e-20
-2.5039e-20
3.38426e-06
-8.87341e-20
-2.6003e-20
3.528e-06
-9.26418e-20
-2.68789e-20
3.67603e-06
-9.73655e-20
-2.82083e-20
3.82842e-06
-1.00577e-19
-2.9679e-20
3.98519e-06
-1.03735e-19
-3.04972e-20
4.1464e-06
-1.07789e-19
-3.20365e-20
4.31208e-06
-1.11367e-19
-3.41028e-20
4.48226e-06
-1.15453e-19
-3.76456e-20
4.65694e-06
-1.19668e-19
-4.00168e-20
4.83616e-06
-1.2382e-19
-4.17214e-20
5.01992e-06
-1.28132e-19
-4.34547e-20
5.20822e-06
-1.32489e-19
-4.35562e-20
5.40107e-06
-1.36225e-19
-4.54609e-20
5.59845e-06
-1.40082e-19
-4.83422e-20
5.80035e-06
-1.44152e-19
-5.29271e-20
6.00678e-06
-1.50378e-19
-5.57529e-20
6.21771e-06
-1.54683e-19
-5.76052e-20
6.43312e-06
-1.59298e-19
-6.10687e-20
6.65301e-06
-1.63369e-19
-6.22689e-20
6.87736e-06
-1.68362e-19
-6.45407e-20
7.10616e-06
-1.73341e-19
-6.80331e-20
7.33939e-06
-1.78926e-19
-7.05314e-20
7.57705e-06
-1.82095e-19
-7.49158e-20
7.81913e-06
-1.87618e-19
-7.66848e-20
8.06563e-06
-1.91001e-19
-7.97373e-20
8.31654e-06
-1.95354e-19
-8.3678e-20
8.57188e-06
-2.00417e-19
-8.67088e-20
8.83166e-06
-2.06536e-19
-9.06442e-20
9.09588e-06
-2.10789e-19
-9.36986e-20
9.36457e-06
-2.13988e-19
-9.67189e-20
9.63776e-06
-2.18391e-19
-1.00201e-19
9.91546e-06
-2.24542e-19
-1.0458e-19
1.01977e-05
-2.30963e-19
-1.08493e-19
1.04846e-05
-2.36865e-19
-1.13403e-19
1.07761e-05
-2.42911e-19
-1.17161e-19
1.10722e-05
-2.48748e-19
-1.20472e-19
1.13731e-05
-2.54219e-19
-1.23876e-19
1.16788e-05
-2.60303e-19
-1.25881e-19
1.19894e-05
-2.66665e-19
-1.29409e-19
1.23048e-05
-2.72084e-19
-1.33122e-19
1.26253e-05
-2.79663e-19
-1.35286e-19
1.29508e-05
-2.84524e-19
-1.3886e-19
1.32814e-05
-2.91124e-19
-1.42852e-19
1.36173e-05
-2.96876e-19
-1.47629e-19
1.39584e-05
-3.02592e-19
-1.55642e-19
1.43049e-05
-3.08102e-19
-1.62468e-19
1.46569e-05
-3.12046e-19
-1.70143e-19
1.50144e-05
-3.17068e-19
-1.7396e-19
1.53776e-05
-3.27689e-19
-1.79056e-19
1.57465e-05
-3.28404e-19
-1.83775e-19
1.61213e-05
-3.34247e-19
-1.86554e-19
1.6502e-05
-3.41755e-19
-1.84438e-19
1.68888e-05
-3.46592e-19
-1.88549e-19
1.72817e-05
-3.50763e-19
-1.84478e-19
1.76809e-05
-3.51271e-19
-1.88823e-19
1.80865e-05
-3.57672e-19
-1.91052e-19
1.84986e-05
-3.63507e-19
-1.92325e-19
1.89173e-05
-3.6807e-19
-1.96772e-19
1.93428e-05
-3.78563e-19
-1.95577e-19
1.97751e-05
-3.8431e-19
-2.00947e-19
2.02144e-05
-3.88734e-19
-2.08984e-19
2.06607e-05
-3.93419e-19
-2.13698e-19
2.11144e-05
-3.9866e-19
-2.17151e-19
2.15754e-05
-4.03961e-19
-2.20457e-19
2.20439e-05
-4.06256e-19
-2.29445e-19
2.252e-05
-4.13113e-19
-2.35462e-19
2.30039e-05
-4.16793e-19
-2.36509e-19
2.34957e-05
-4.30351e-19
-2.36638e-19
2.39956e-05
-4.33008e-19
-2.48055e-19
2.45037e-05
-4.37359e-19
-2.49231e-19
2.50201e-05
-4.41966e-19
-2.5361e-19
2.55451e-05
-4.49014e-19
-2.59447e-19
2.60787e-05
-4.54765e-19
-2.60961e-19
2.66211e-05
-4.61149e-19
-2.66942e-19
2.71724e-05
-4.65411e-19
-2.73793e-19
2.77329e-05
-4.71597e-19
-2.79526e-19
2.83027e-05
-4.72338e-19
-2.87091e-19
2.8882e-05
-4.82811e-19
-2.89405e-19
2.94709e-05
-4.86784e-19
-2.86257e-19
3.00695e-05
-5.00425e-19
-2.91769e-19
3.06782e-05
-5.03202e-19
-2.99094e-19
3.1297e-05
-5.18231e-19
-3.03795e-19
3.19261e-05
-5.25142e-19
-3.04878e-19
3.25657e-05
-5.39536e-19
-2.99908e-19
3.3216e-05
-5.46103e-19
-3.08239e-19
3.38772e-05
-5.50158e-19
-3.07489e-19
3.45495e-05
-5.55802e-19
-3.10595e-19
3.5233e-05
-5.55392e-19
-3.18226e-19
3.5928e-05
-5.58305e-19
-3.27267e-19
3.66347e-05
-5.60017e-19
-3.37713e-19
3.73532e-05
-5.64295e-19
-3.45759e-19
3.80838e-05
-5.56603e-19
-3.54442e-19
3.88267e-05
-5.68089e-19
-3.59572e-19
3.95821e-05
-5.73775e-19
-3.66452e-19
4.03502e-05
-5.85043e-19
-3.6609e-19
4.11313e-05
-5.89695e-19
-3.67287e-19
4.19255e-05
-5.95231e-19
-3.73809e-19
4.27331e-05
-6.10045e-19
-3.7626e-19
4.35543e-05
-6.15807e-19
-3.82921e-19
4.43894e-05
-6.16308e-19
-3.89409e-19
4.52385e-05
-6.16474e-19
-3.95837e-19
4.61021e-05
-6.24023e-19
-3.93632e-19
4.69802e-05
-6.32303e-19
-4.04861e-19
4.78731e-05
-6.34416e-19
-4.09514e-19
4.87811e-05
-6.38556e-19
-4.07563e-19
4.97045e-05
-6.42277e-19
-4.16063e-19
5.06435e-05
-6.53967e-19
-4.26601e-19
5.15983e-05
-6.51104e-19
-4.19453e-19
5.25693e-05
-6.61774e-19
-4.14932e-19
5.35568e-05
-6.73829e-19
-4.17464e-19
5.45609e-05
-6.80884e-19
-4.22141e-19
5.5582e-05
-6.87569e-19
-4.25945e-19
5.66204e-05
-6.97275e-19
-4.34858e-19
5.76764e-05
-6.93733e-19
-4.36041e-19
5.87503e-05
-6.93133e-19
-4.41343e-19
5.98423e-05
-6.83877e-19
-4.50581e-19
6.09528e-05
-6.84801e-19
-4.62018e-19
6.20821e-05
-6.8458e-19
-4.71044e-19
6.32306e-05
-6.81735e-19
-4.81607e-19
6.43984e-05
-6.84475e-19
-4.65595e-19
6.5586e-05
-6.92876e-19
-4.70694e-19
6.67938e-05
-7.01954e-19
-4.86307e-19
6.80219e-05
-7.20621e-19
-4.84363e-19
6.92709e-05
-7.17207e-19
-4.98005e-19
7.0541e-05
-7.07295e-19
-5.0301e-19
7.18325e-05
-7.33293e-19
-4.91985e-19
7.3146e-05
-7.48722e-19
-5.01854e-19
7.44816e-05
-7.52001e-19
-5.16608e-19
7.58398e-05
-7.46696e-19
-5.1724e-19
7.7221e-05
-7.58793e-19
-5.2606e-19
7.86256e-05
-7.58895e-19
-5.35479e-19
8.00539e-05
-7.51298e-19
-5.50476e-19
8.15063e-05
-7.47024e-19
-5.54272e-19
8.29833e-05
-7.67048e-19
-5.47618e-19
8.44852e-05
-7.73476e-19
-5.53251e-19
8.60125e-05
-7.9699e-19
-5.64019e-19
8.75656e-05
-7.93684e-19
-5.75662e-19
8.91449e-05
-8.11868e-19
-5.87208e-19
9.07509e-05
-8.10098e-19
-5.74814e-19
9.23839e-05
-8.15105e-19
-5.76594e-19
9.40445e-05
-8.39616e-19
-5.67157e-19
9.57332e-05
-8.42895e-19
-5.59136e-19
9.74503e-05
-8.60634e-19
-5.55774e-19
9.91963e-05
-8.73377e-19
-5.59417e-19
0.000100972
-8.75144e-19
-5.6593e-19
0.000102777
-8.7003e-19
-5.80776e-19
0.000104613
-8.73283e-19
-5.77555e-19
0.00010648
-8.54365e-19
-5.73288e-19
0.000108378
-8.69452e-19
-5.69487e-19
0.000110308
-8.65495e-19
-5.55566e-19
0.00011227
-8.37857e-19
-5.39584e-19
0.000114266
-8.20889e-19
-5.20319e-19
0.000116295
-7.94637e-19
-5.25537e-19
0.000118358
-8.02078e-19
-5.09669e-19
0.000120455
-8.0801e-19
-5.14885e-19
0.000122588
-7.83717e-19
-5.53295e-19
0.000124757
-7.84948e-19
-5.3835e-19
0.000126962
-7.873e-19
-5.36933e-19
0.000129204
-7.97064e-19
-5.10754e-19
0.000131484
-7.91993e-19
-5.16412e-19
0.000133802
-7.94806e-19
-5.16262e-19
0.000136158
-7.82662e-19
-5.57489e-19
0.000138554
-8.00629e-19
-5.56368e-19
0.00014099
-8.34914e-19
-5.60667e-19
0.000143467
-8.32919e-19
-5.78842e-19
0.000145986
-8.15918e-19
-5.67614e-19
0.000148546
-8.30429e-19
-5.66799e-19
0.000151149
-8.20732e-19
-5.75641e-19
0.000153795
-8.3693e-19
-5.84488e-19
0.000156486
-8.44172e-19
-5.75617e-19
0.000159221
-8.63385e-19
-5.72976e-19
0.000162002
-8.39157e-19
-5.80626e-19
0.00016483
-8.39329e-19
-5.76718e-19
0.000167704
-8.54406e-19
-5.75318e-19
0.000170626
-8.59167e-19
-5.59518e-19
0.000173597
-8.59272e-19
-5.7316e-19
0.000176617
-8.37311e-19
-5.703e-19
0.000179687
-8.65786e-19
-5.41502e-19
0.000182808
-8.27431e-19
-5.98388e-19
0.00018598
-8.21196e-19
-6.15136e-19
0.000189206
-8.18978e-19
-6.26075e-19
0.000192484
-8.32691e-19
-6.25895e-19
0.000195817
-8.26003e-19
-6.74254e-19
0.000199205
-8.71557e-19
-6.69011e-19