/*--------------------------------*- C++ -*----------------------------------*\
| =========                 |                                                 |
| \\      /  F ield         | OpenFOAM: The Open Source CFD Toolbox           |
|  \\    /   O peration     | Version:  2106                                  |
|   \\  /    A nd           | Website:  www.openfoam.com                      |
|    \\/     M anipulation  |                                                 |
\*---------------------------------------------------------------------------*/
FoamFile
{
    version     2.0;
    format      ascii;
    arch        "LSB;label=32;scalar=64";
    class       volVectorField;
    location    "9000";
    object      U;
}
// * * * * * * * * * * * * * * * * * * * * * * * * * * * * * * * * * * * * * //

dimensions      [0 1 -1 0 0 0 0];

internalField   nonuniform List<vector> 
2560
(
(0.00161667 -1.00401e-15 -2.64021e-17)
(0.00161667 -8.8056e-20 -2.58198e-18)
(0.00487299 -4.21627e-15 -7.37405e-17)
(0.00487299 -5.7478e-19 -1.01775e-17)
(0.00817618 -3.95417e-15 -7.70964e-17)
(0.00817618 -1.18714e-18 -1.04759e-17)
(0.0115269 -3.76797e-15 -7.99156e-17)
(0.0115269 -1.83506e-18 -1.0781e-17)
(0.014926 -3.70933e-15 -8.2882e-17)
(0.014926 -2.50694e-18 -1.10935e-17)
(0.0183741 -3.72039e-15 -8.59804e-17)
(0.0183741 -3.19222e-18 -1.14139e-17)
(0.021872 -3.72285e-15 -8.91686e-17)
(0.021872 -3.9034e-18 -1.17426e-17)
(0.0254205 -3.72015e-15 -9.24508e-17)
(0.0254205 -4.64622e-18 -1.20798e-17)
(0.0290202 -3.71807e-15 -9.58391e-17)
(0.0290202 -5.4169e-18 -1.24253e-17)
(0.0326721 -3.71677e-15 -9.93384e-17)
(0.0326721 -6.20876e-18 -1.27793e-17)
(0.0363769 -3.71558e-15 -1.02951e-16)
(0.0363769 -7.01961e-18 -1.31423e-17)
(0.0401354 -3.7143e-15 -1.0668e-16)
(0.0401354 -7.8568e-18 -1.35139e-17)
(0.0439484 -3.71293e-15 -1.10527e-16)
(0.0439484 -8.73646e-18 -1.38947e-17)
(0.0478167 -3.7115e-15 -1.14497e-16)
(0.0478167 -9.62056e-18 -1.4285e-17)
(0.0517413 -3.71001e-15 -1.18592e-16)
(0.0517413 -1.05482e-17 -1.46853e-17)
(0.0557228 -3.70848e-15 -1.22817e-16)
(0.0557228 -1.15135e-17 -1.50952e-17)
(0.0597623 -3.70686e-15 -1.27176e-16)
(0.0597623 -1.25149e-17 -1.55154e-17)
(0.0638605 -3.70521e-15 -1.31671e-16)
(0.0638605 -1.35497e-17 -1.59451e-17)
(0.0680183 -3.70356e-15 -1.36309e-16)
(0.0680183 -1.45428e-17 -1.63851e-17)
(0.0722367 -3.70178e-15 -1.41092e-16)
(0.0722367 -1.56705e-17 -1.68348e-17)
(0.0765164 -3.69991e-15 -1.46024e-16)
(0.0765164 -1.68281e-17 -1.72952e-17)
(0.0808584 -3.69804e-15 -1.51109e-16)
(0.0808584 -1.79632e-17 -1.77682e-17)
(0.0852637 -3.69614e-15 -1.56352e-16)
(0.0852637 -1.91588e-17 -1.82526e-17)
(0.0897329 -3.69416e-15 -1.61757e-16)
(0.0897329 -2.03901e-17 -1.87475e-17)
(0.0942672 -3.69199e-15 -1.67328e-16)
(0.0942672 -2.16922e-17 -1.92525e-17)
(0.0988673 -3.68974e-15 -1.73067e-16)
(0.0988673 -2.30737e-17 -1.977e-17)
(0.103534 -3.68758e-15 -1.78981e-16)
(0.103534 -2.44191e-17 -2.0301e-17)
(0.108268 -3.68541e-15 -1.85072e-16)
(0.108268 -2.56855e-17 -2.08461e-17)
(0.113071 -3.683e-15 -1.91344e-16)
(0.113071 -2.70364e-17 -2.14039e-17)
(0.117943 -3.68042e-15 -1.97801e-16)
(0.117943 -2.85896e-17 -2.19708e-17)
(0.122885 -3.67784e-15 -2.04446e-16)
(0.122885 -3.0157e-17 -2.25472e-17)
(0.127898 -3.67523e-15 -2.1128e-16)
(0.127898 -3.17177e-17 -2.31396e-17)
(0.132982 -3.67247e-15 -2.18308e-16)
(0.132982 -3.33801e-17 -2.37491e-17)
(0.138139 -3.66962e-15 -2.25531e-16)
(0.138139 -3.50307e-17 -2.43703e-17)
(0.143368 -3.66675e-15 -2.32949e-16)
(0.143368 -3.67228e-17 -2.50003e-17)
(0.14867 -3.66375e-15 -2.40564e-16)
(0.14867 -3.85028e-17 -2.56402e-17)
(0.154045 -3.66063e-15 -2.48376e-16)
(0.154045 -4.04031e-17 -2.62902e-17)
(0.159494 -3.6573e-15 -2.56382e-16)
(0.159494 -4.23895e-17 -2.69513e-17)
(0.165017 -3.65388e-15 -2.6458e-16)
(0.165017 -4.43841e-17 -2.76184e-17)
(0.170614 -3.65028e-15 -2.72967e-16)
(0.170614 -4.65348e-17 -2.82984e-17)
(0.176285 -3.64649e-15 -2.81535e-16)
(0.176285 -4.87205e-17 -2.89912e-17)
(0.182028 -3.64285e-15 -2.90279e-16)
(0.182028 -5.07384e-17 -2.96912e-17)
(0.187845 -3.63906e-15 -2.99191e-16)
(0.187845 -5.30002e-17 -3.03958e-17)
(0.193733 -3.63513e-15 -3.08259e-16)
(0.193733 -5.52942e-17 -3.11049e-17)
(0.199692 -3.63117e-15 -3.17474e-16)
(0.199692 -5.75853e-17 -3.18237e-17)
(0.205721 -3.62681e-15 -3.26819e-16)
(0.205721 -6.00859e-17 -3.25443e-17)
(0.211817 -3.62233e-15 -3.36279e-16)
(0.211817 -6.26153e-17 -3.32626e-17)
(0.21798 -3.61801e-15 -3.45835e-16)
(0.21798 -6.52206e-17 -3.39828e-17)
(0.224206 -3.61348e-15 -3.55468e-16)
(0.224206 -6.80312e-17 -3.46982e-17)
(0.230493 -3.60869e-15 -3.65156e-16)
(0.230493 -7.09034e-17 -3.541e-17)
(0.236839 -3.60389e-15 -3.74875e-16)
(0.236839 -7.36371e-17 -3.61125e-17)
(0.24324 -3.59887e-15 -3.84601e-16)
(0.24324 -7.65785e-17 -3.68042e-17)
(0.249692 -3.59343e-15 -3.94309e-16)
(0.249692 -7.98328e-17 -3.74854e-17)
(0.256192 -3.5878e-15 -4.03968e-16)
(0.256192 -8.33543e-17 -3.81404e-17)
(0.262735 -3.58223e-15 -4.13551e-16)
(0.262735 -8.70135e-17 -3.8767e-17)
(0.269317 -3.5767e-15 -4.23031e-16)
(0.269317 -9.04642e-17 -3.93675e-17)
(0.275933 -3.57133e-15 -4.32379e-16)
(0.275933 -9.37314e-17 -3.99416e-17)
(0.282578 -3.56576e-15 -4.41572e-16)
(0.282578 -9.69216e-17 -4.05117e-17)
(0.289247 -3.55992e-15 -4.50581e-16)
(0.289247 -1.0007e-16 -4.10651e-17)
(0.295934 -3.55393e-15 -4.59385e-16)
(0.295934 -1.03399e-16 -4.15723e-17)
(0.302634 -3.54766e-15 -4.67959e-16)
(0.302634 -1.06965e-16 -4.20508e-17)
(0.309342 -3.54116e-15 -4.76287e-16)
(0.309342 -1.10357e-16 -4.24909e-17)
(0.316051 -3.53432e-15 -4.84348e-16)
(0.316051 -1.14325e-16 -4.29175e-17)
(0.322756 -3.52716e-15 -4.92131e-16)
(0.322756 -1.1821e-16 -4.32992e-17)
(0.329452 -3.51957e-15 -4.99623e-16)
(0.329452 -1.22589e-16 -4.36578e-17)
(0.336133 -3.51226e-15 -5.06818e-16)
(0.336133 -1.26852e-16 -4.39895e-17)
(0.342794 -3.50554e-15 -5.13714e-16)
(0.342794 -1.30224e-16 -4.42788e-17)
(0.34943 -3.49883e-15 -5.20311e-16)
(0.34943 -1.34242e-16 -4.45588e-17)
(0.356036 -3.49206e-15 -5.26612e-16)
(0.356036 -1.3837e-16 -4.47822e-17)
(0.362608 -3.48473e-15 -5.32627e-16)
(0.362608 -1.42523e-16 -4.49507e-17)
(0.369141 -3.47672e-15 -5.38356e-16)
(0.369141 -1.46933e-16 -4.50965e-17)
(0.375633 -3.46902e-15 -5.43816e-16)
(0.375633 -1.51673e-16 -4.52185e-17)
(0.382078 -3.46131e-15 -5.49013e-16)
(0.382078 -1.56192e-16 -4.53098e-17)
(0.388474 -3.45352e-15 -5.53966e-16)
(0.388474 -1.6076e-16 -4.53645e-17)
(0.394818 -3.44584e-15 -5.58686e-16)
(0.394818 -1.65874e-16 -4.53674e-17)
(0.401108 -3.43774e-15 -5.63193e-16)
(0.401108 -1.71336e-16 -4.53224e-17)
(0.40734 -3.4294e-15 -5.67504e-16)
(0.40734 -1.7673e-16 -4.52392e-17)
(0.413514 -3.42111e-15 -5.71638e-16)
(0.413514 -1.81997e-16 -4.51294e-17)
(0.419627 -3.41335e-15 -5.75611e-16)
(0.419627 -1.87611e-16 -4.49652e-17)
(0.425679 -3.40532e-15 -5.79443e-16)
(0.425679 -1.93386e-16 -4.47406e-17)
(0.431668 -3.39648e-15 -5.8315e-16)
(0.431668 -1.9913e-16 -4.45083e-17)
(0.437593 -3.38768e-15 -5.86755e-16)
(0.437593 -2.05391e-16 -4.42648e-17)
(0.443454 -3.37884e-15 -5.90277e-16)
(0.443454 -2.11203e-16 -4.39704e-17)
(0.44925 -3.37037e-15 -5.9373e-16)
(0.44925 -2.16181e-16 -4.36081e-17)
(0.454981 -3.36245e-15 -5.97139e-16)
(0.454981 -2.21509e-16 -4.32225e-17)
(0.460648 -3.35456e-15 -6.00521e-16)
(0.460648 -2.25774e-16 -4.28159e-17)
(0.46625 -3.34658e-15 -6.03888e-16)
(0.46625 -2.29889e-16 -4.24375e-17)
(0.471787 -3.33853e-15 -6.07256e-16)
(0.471787 -2.33986e-16 -4.20361e-17)
(0.477261 -3.33004e-15 -6.07675e-16)
(0.477261 -2.37591e-16 -4.16439e-17)
(0.482671 -3.32143e-15 -5.97683e-16)
(0.482671 -2.4214e-16 -4.12786e-17)
(0.488019 -3.31279e-15 -5.87525e-16)
(0.488019 -2.47022e-16 -4.08865e-17)
(0.493305 -3.30397e-15 -5.77254e-16)
(0.493305 -2.51504e-16 -4.04773e-17)
(0.49853 -3.29519e-15 -5.66988e-16)
(0.49853 -2.557e-16 -4.00401e-17)
(0.503695 -3.28647e-15 -5.56627e-16)
(0.503695 -2.59656e-16 -3.95888e-17)
(0.5088 -3.27832e-15 -5.46068e-16)
(0.5088 -2.64255e-16 -3.92189e-17)
(0.513847 -3.26942e-15 -5.35486e-16)
(0.513847 -2.69014e-16 -3.88655e-17)
(0.518837 -3.25958e-15 -5.24863e-16)
(0.518837 -2.73546e-16 -3.85144e-17)
(0.523771 -3.25066e-15 -5.14285e-16)
(0.523771 -2.78953e-16 -3.80764e-17)
(0.52865 -3.24103e-15 -5.04694e-16)
(0.52865 -2.851e-16 -3.76483e-17)
(0.533475 -3.23131e-15 -4.98966e-16)
(0.533475 -2.90334e-16 -3.72089e-17)
(0.538247 -3.22176e-15 -4.93147e-16)
(0.538247 -2.95038e-16 -3.68725e-17)
(0.542967 -3.21128e-15 -4.8734e-16)
(0.542967 -3.01824e-16 -3.64264e-17)
(0.547637 -3.20152e-15 -4.81518e-16)
(0.547637 -3.08531e-16 -3.59097e-17)
(0.552257 -3.19264e-15 -4.75733e-16)
(0.552257 -3.1397e-16 -3.52821e-17)
(0.556829 -3.18442e-15 -4.70021e-16)
(0.556829 -3.20598e-16 -3.46261e-17)
(0.561353 -3.17576e-15 -4.64381e-16)
(0.561353 -3.26169e-16 -3.38639e-17)
(0.565832 -3.16553e-15 -4.58861e-16)
(0.565832 -3.31945e-16 -3.29728e-17)
(0.570265 -3.15524e-15 -4.53494e-16)
(0.570265 -3.39837e-16 -3.21411e-17)
(0.574654 -3.14602e-15 -4.48273e-16)
(0.574654 -3.46466e-16 -3.10678e-17)
(0.579 -3.13663e-15 -4.43204e-16)
(0.579 -3.51009e-16 -2.98598e-17)
(0.583304 -3.12637e-15 -4.38204e-16)
(0.583304 -3.55911e-16 -2.86972e-17)
(0.587567 -3.11732e-15 -4.33386e-16)
(0.587567 -3.61492e-16 -2.74057e-17)
(0.59179 -3.10896e-15 -4.28564e-16)
(0.59179 -3.68693e-16 -2.59744e-17)
(0.595975 -3.09873e-15 -4.23837e-16)
(0.595975 -3.75632e-16 -2.43233e-17)
(0.600121 -3.0885e-15 -4.19294e-16)
(0.600121 -3.82181e-16 -2.26816e-17)
(0.60423 -3.07819e-15 -4.14835e-16)
(0.60423 -3.89084e-16 -2.09897e-17)
(0.608303 -3.06744e-15 -4.10539e-16)
(0.608303 -3.94214e-16 -1.91181e-17)
(0.612341 -3.0562e-15 -4.06286e-16)
(0.612341 -3.9834e-16 -1.71369e-17)
(0.616345 -3.04449e-15 -4.0221e-16)
(0.616345 -4.02866e-16 -1.51673e-17)
(0.620315 -3.03413e-15 -3.98253e-16)
(0.620315 -4.0921e-16 -1.30902e-17)
(0.624252 -3.02457e-15 -3.9424e-16)
(0.624252 -4.13424e-16 -1.09364e-17)
(0.628158 -3.01532e-15 -3.90197e-16)
(0.628158 -4.17285e-16 -8.69493e-18)
(0.632032 -3.00645e-15 -3.86099e-16)
(0.632032 -4.21171e-16 -6.44984e-18)
(0.635877 -2.9977e-15 -3.81814e-16)
(0.635877 -4.25227e-16 -4.47391e-18)
(0.639691 -2.98885e-15 -3.77394e-16)
(0.639691 -4.29229e-16 -2.60237e-18)
(0.643478 -2.98019e-15 -3.72889e-16)
(0.643478 -4.32762e-16 -2.5765e-18)
(0.647236 -2.97109e-15 -3.68218e-16)
(0.647236 -4.37115e-16 -2.47676e-18)
(0.650966 -2.96116e-15 -3.63321e-16)
(0.650966 -4.40525e-16 -2.40301e-18)
(0.654671 -2.95207e-15 -3.58219e-16)
(0.654671 -4.44439e-16 -2.31646e-18)
(0.658349 -2.94211e-15 -3.52875e-16)
(0.658349 -4.48494e-16 -2.5001e-18)
(0.662002 -2.93042e-15 -3.47639e-16)
(0.662002 -4.55499e-16 -2.79106e-18)
(0.66563 -2.91797e-15 -3.42723e-16)
(0.66563 -4.64066e-16 -2.85992e-18)
(0.669234 -2.90463e-15 -3.37842e-16)
(0.669234 -4.7401e-16 -3.00414e-18)
(0.672815 -2.89121e-15 -3.33105e-16)
(0.672815 -4.83687e-16 -3.26989e-18)
(0.676373 -2.87755e-15 -3.28657e-16)
(0.676373 -4.92036e-16 -3.42308e-18)
(0.679909 -2.8657e-15 -3.24332e-16)
(0.679909 -4.98596e-16 -3.31485e-18)
(0.683422 -2.85793e-15 -3.19712e-16)
(0.683422 -5.03924e-16 -3.34859e-18)
(0.686915 -2.85246e-15 -3.14854e-16)
(0.686915 -5.0824e-16 -3.51864e-18)
(0.690387 -2.84709e-15 -3.09966e-16)
(0.690387 -5.10766e-16 -3.53095e-18)
(0.693839 -2.84016e-15 -3.04859e-16)
(0.693839 -5.14526e-16 -3.47166e-18)
(0.697271 -2.83141e-15 -2.99593e-16)
(0.697271 -5.17532e-16 -3.81278e-18)
(0.700684 -2.82231e-15 -2.94771e-16)
(0.700684 -5.19112e-16 -3.96937e-18)
(0.704078 -2.81328e-15 -2.90057e-16)
(0.704078 -5.22646e-16 -3.94574e-18)
(0.707454 -2.80318e-15 -2.85354e-16)
(0.707454 -5.27569e-16 -4.3165e-18)
(0.710812 -2.79292e-15 -2.81098e-16)
(0.710812 -5.29981e-16 -4.35753e-18)
(0.714153 -2.78478e-15 -2.76876e-16)
(0.714153 -5.34373e-16 -4.53899e-18)
(0.717477 -2.77625e-15 -2.72752e-16)
(0.717477 -5.36033e-16 -4.51777e-18)
(0.720784 -2.76734e-15 -2.68522e-16)
(0.720784 -5.36341e-16 -4.53401e-18)
(0.724075 -2.75838e-15 -2.64218e-16)
(0.724075 -5.39009e-16 -4.66942e-18)
(0.72735 -2.74567e-15 -2.60041e-16)
(0.72735 -5.45176e-16 -4.86144e-18)
(0.73061 -2.73365e-15 -2.56145e-16)
(0.73061 -5.53451e-16 -5.09943e-18)
(0.733855 -2.72475e-15 -2.52318e-16)
(0.733855 -5.57085e-16 -5.24604e-18)
(0.737085 -2.71441e-15 -2.48507e-16)
(0.737085 -5.62819e-16 -5.26914e-18)
(0.740301 -2.70045e-15 -2.44627e-16)
(0.740301 -5.67159e-16 -5.20572e-18)
(0.743502 -2.68665e-15 -2.40907e-16)
(0.743502 -5.70853e-16 -5.13978e-18)
(0.74669 -2.675e-15 -2.36984e-16)
(0.74669 -5.79649e-16 -5.20312e-18)
(0.749865 -2.66525e-15 -2.32986e-16)
(0.749865 -5.84822e-16 -5.38654e-18)
(0.753027 -2.65583e-15 -2.28831e-16)
(0.753027 -5.87681e-16 -5.49752e-18)
(0.756176 -2.64179e-15 -2.24588e-16)
(0.756176 -5.94802e-16 -5.3331e-18)
(0.759312 -2.62337e-15 -2.20251e-16)
(0.759312 -6.03218e-16 -5.45808e-18)
(0.762436 -2.60627e-15 -2.16193e-16)
(0.762436 -6.08838e-16 -5.8859e-18)
(0.765549 -2.5924e-15 -2.12599e-16)
(0.765549 -6.18513e-16 -6.50185e-18)
(0.76865 -2.58113e-15 -2.09649e-16)
(0.76865 -6.28782e-16 -6.69644e-18)
(0.771739 -2.57391e-15 -2.06715e-16)
(0.771739 -6.33635e-16 -6.74826e-18)
(0.774817 -2.56841e-15 -2.03831e-16)
(0.774817 -6.36466e-16 -6.56739e-18)
(0.777884 -2.56303e-15 -2.00289e-16)
(0.777884 -6.39598e-16 -6.43083e-18)
(0.780941 -2.55386e-15 -1.95976e-16)
(0.780941 -6.46075e-16 -6.80494e-18)
(0.783987 -2.5397e-15 -1.92129e-16)
(0.783987 -6.59313e-16 -7.29202e-18)
(0.787024 -2.52684e-15 -1.88763e-16)
(0.787024 -6.74317e-16 -7.93368e-18)
(0.79005 -2.51671e-15 -1.8604e-16)
(0.79005 -6.8239e-16 -8.44983e-18)
(0.793066 -2.50777e-15 -1.83987e-16)
(0.793066 -6.90042e-16 -9.12915e-18)
(0.796073 -2.49543e-15 -1.82785e-16)
(0.796073 -6.98499e-16 -9.49798e-18)
(0.79907 -2.48669e-15 -1.82513e-16)
(0.79907 -6.96957e-16 -9.35755e-18)
(0.802058 -2.48131e-15 -1.82045e-16)
(0.802058 -6.94124e-16 -9.7148e-18)
(0.805038 -2.47677e-15 -1.8204e-16)
(0.805038 -6.91724e-16 -9.08231e-18)
(0.808008 -2.47537e-15 -1.80964e-16)
(0.808008 -6.87364e-16 -9.3393e-18)
(0.81097 -2.46949e-15 -1.79856e-16)
(0.81097 -6.9046e-16 -9.48899e-18)
(0.813923 -2.45976e-15 -1.78606e-16)
(0.813923 -6.93953e-16 -1.02941e-17)
(0.816869 -2.45137e-15 -1.78815e-16)
(0.816869 -6.93217e-16 -1.07222e-17)
(0.819806 -2.44571e-15 -1.79194e-16)
(0.819806 -6.965e-16 -1.09658e-17)
(0.822735 -2.43556e-15 -1.79859e-16)
(0.822735 -6.99021e-16 -1.11868e-17)
(0.825656 -2.42567e-15 -1.80933e-16)
(0.825656 -7.00973e-16 -1.12988e-17)
(0.828569 -2.41925e-15 -1.82159e-16)
(0.828569 -7.02783e-16 -1.18194e-17)
(0.831475 -2.41456e-15 -1.83751e-16)
(0.831475 -7.03541e-16 -1.15341e-17)
(0.834374 -2.40716e-15 -1.84864e-16)
(0.834374 -6.99969e-16 -1.12639e-17)
(0.837265 -2.39506e-15 -1.866e-16)
(0.837265 -7.09354e-16 -1.01864e-17)
(0.840149 -2.38375e-15 -1.88885e-16)
(0.840149 -7.13089e-16 -9.05355e-18)
(0.843026 -2.37093e-15 -1.91086e-16)
(0.843026 -7.18969e-16 -9.0499e-18)
(0.845896 -2.36047e-15 -1.93099e-16)
(0.845896 -7.25661e-16 -9.8959e-18)
(0.84876 -2.35114e-15 -1.94722e-16)
(0.84876 -7.32129e-16 -9.70988e-18)
(0.851616 -2.33869e-15 -1.95292e-16)
(0.851616 -7.38997e-16 -8.54259e-18)
(0.854466 -2.32559e-15 -1.9574e-16)
(0.854466 -7.44224e-16 -7.03634e-18)
(0.85731 -2.30843e-15 -1.95793e-16)
(0.85731 -7.47839e-16 -7.37522e-18)
(0.860147 -2.2915e-15 -1.95776e-16)
(0.860147 -7.52183e-16 -8.30877e-18)
(0.862978 -2.27645e-15 -1.95306e-16)
(0.862978 -7.59889e-16 -5.68408e-18)
(0.865802 -2.26132e-15 -1.93715e-16)
(0.865802 -7.72642e-16 -3.73364e-18)
(0.868621 -2.24615e-15 -1.91719e-16)
(0.868621 -7.76418e-16 -6.82891e-18)
(0.871433 -2.22678e-15 -1.90879e-16)
(0.871433 -7.86832e-16 -7.92537e-18)
(0.87424 -2.20907e-15 -1.90505e-16)
(0.87424 -8.10091e-16 -5.68108e-18)
(0.87704 -2.19625e-15 -1.90096e-16)
(0.87704 -8.20542e-16 -6.48738e-18)
(0.879835 -2.17596e-15 -1.8974e-16)
(0.879835 -8.34699e-16 -8.39633e-18)
(0.882624 -2.15531e-15 -1.91017e-16)
(0.882624 -8.46042e-16 -7.07473e-18)
(0.885407 -2.14394e-15 -1.9092e-16)
(0.885407 -8.54415e-16 -6.47353e-18)
(0.888185 -2.13036e-15 -1.9113e-16)
(0.888185 -8.65442e-16 -6.43241e-18)
(0.890957 -2.11441e-15 -1.91045e-16)
(0.890957 -8.78487e-16 -8.8232e-18)
(0.893723 -2.10211e-15 -1.92512e-16)
(0.893723 -8.96253e-16 -9.64699e-18)
(0.896484 -2.09142e-15 -1.932e-16)
(0.896484 -9.08379e-16 -9.25987e-18)
(0.899239 -2.07913e-15 -1.92751e-16)
(0.899239 -9.17321e-16 -7.59933e-18)
(0.901989 -2.06916e-15 -1.90393e-16)
(0.901989 -9.24703e-16 -6.60022e-18)
(0.904734 -2.05781e-15 -1.86694e-16)
(0.904734 -9.32867e-16 -9.47574e-18)
(0.907473 -2.04757e-15 -1.83792e-16)
(0.907473 -9.37915e-16 -7.19193e-18)
(0.910207 -2.03379e-15 -1.77496e-16)
(0.910207 -9.54062e-16 -3.29306e-18)
(0.912936 -2.00739e-15 -1.71603e-16)
(0.912936 -9.68124e-16 -4.49089e-18)
(0.915659 -1.98478e-15 -1.677e-16)
(0.915659 -9.84954e-16 -1.0699e-18)
(0.918377 -1.96369e-15 -1.6544e-16)
(0.918377 -9.99682e-16 1.5277e-20)
(0.92109 -1.94287e-15 -1.65183e-16)
(0.92109 -1.00381e-15 -1.92108e-18)
(0.923798 -1.92318e-15 -1.62653e-16)
(0.923798 -1.01908e-15 -4.76152e-18)
(0.9265 -1.90227e-15 -1.61055e-16)
(0.9265 -1.0364e-15 -7.71759e-18)
(0.929198 -1.88586e-15 -1.54156e-16)
(0.929198 -1.04014e-15 -1.08333e-17)
(0.93189 -1.86766e-15 -1.53383e-16)
(0.93189 -1.04963e-15 -1.23769e-17)
(0.934576 -1.84749e-15 -1.53698e-16)
(0.934576 -1.06733e-15 -1.41001e-17)
(0.937258 -1.82952e-15 -1.53198e-16)
(0.937258 -1.07042e-15 -1.80076e-17)
(0.939934 -1.81698e-15 -1.53697e-16)
(0.939934 -1.07219e-15 -1.97709e-17)
(0.942606 -1.81103e-15 -1.53862e-16)
(0.942606 -1.07951e-15 -1.97763e-17)
(0.945271 -1.79821e-15 -1.5197e-16)
(0.945271 -1.08762e-15 -2.20693e-17)
(0.947932 -1.7763e-15 -1.5082e-16)
(0.947932 -1.09059e-15 -2.51894e-17)
(0.950587 -1.75517e-15 -1.48295e-16)
(0.950587 -1.101e-15 -2.52997e-17)
(0.953237 -1.73364e-15 -1.47819e-16)
(0.953237 -1.1095e-15 -2.26099e-17)
(0.955882 -1.72043e-15 -1.4533e-16)
(0.955882 -1.10842e-15 -2.40121e-17)
(0.958521 -1.71013e-15 -1.40533e-16)
(0.958521 -1.11341e-15 -2.6314e-17)
(0.961155 -1.69347e-15 -1.34615e-16)
(0.961155 -1.12494e-15 -2.75707e-17)
(0.963783 -1.68007e-15 -1.31462e-16)
(0.963783 -1.11736e-15 -2.80025e-17)
(0.966406 -1.66586e-15 -1.26504e-16)
(0.966406 -1.11692e-15 -3.2622e-17)
(0.969023 -1.64951e-15 -1.24776e-16)
(0.969023 -1.13839e-15 -3.63546e-17)
(0.971635 -1.63396e-15 -1.2508e-16)
(0.971635 -1.14284e-15 -4.00121e-17)
(0.974241 -1.61955e-15 -1.2639e-16)
(0.974241 -1.15334e-15 -4.06893e-17)
(0.976841 -1.60315e-15 -1.2807e-16)
(0.976841 -1.16098e-15 -3.9565e-17)
(0.979435 -1.5946e-15 -1.29867e-16)
(0.979435 -1.15639e-15 -4.26426e-17)
(0.982024 -1.59713e-15 -1.30283e-16)
(0.982024 -1.16259e-15 -4.80289e-17)
(0.984606 -1.58535e-15 -1.2685e-16)
(0.984606 -1.16479e-15 -5.12344e-17)
(0.987182 -1.57596e-15 -1.22488e-16)
(0.987182 -1.17483e-15 -5.15092e-17)
(0.989752 -1.56849e-15 -1.16232e-16)
(0.989752 -1.18256e-15 -5.49112e-17)
(0.992316 -1.56022e-15 -1.0859e-16)
(0.992316 -1.17029e-15 -5.97468e-17)
(0.994874 -1.55687e-15 -1.03164e-16)
(0.994874 -1.16289e-15 -6.51393e-17)
(0.997425 -1.54575e-15 -1.00009e-16)
(0.997425 -1.16089e-15 -6.99323e-17)
(0.999969 -1.53585e-15 -9.40902e-17)
(0.999969 -1.17393e-15 -7.17582e-17)
(1.00251 -1.52067e-15 -8.24096e-17)
(1.00251 -1.19752e-15 -7.59404e-17)
(1.00504 -1.49295e-15 -7.39505e-17)
(1.00504 -1.19486e-15 -8.61323e-17)
(1.00756 -1.45325e-15 -7.37379e-17)
(1.00756 -1.18778e-15 -9.46761e-17)
(1.01008 -1.42277e-15 -8.29041e-17)
(1.01008 -1.20651e-15 -1.00067e-16)
(1.01259 -1.40247e-15 -9.19824e-17)
(1.01259 -1.2222e-15 -9.89745e-17)
(1.01509 -1.39295e-15 -1.08504e-16)
(1.01509 -1.21917e-15 -9.27484e-17)
(1.01759 -1.39216e-15 -1.23744e-16)
(1.01759 -1.21207e-15 -9.67477e-17)
(1.02007 -1.37766e-15 -1.38813e-16)
(1.02007 -1.21713e-15 -9.96685e-17)
(1.02255 -1.3585e-15 -1.55425e-16)
(1.02255 -1.20812e-15 -1.02726e-16)
(1.02502 -1.33953e-15 -1.65506e-16)
(1.02502 -1.20742e-15 -1.12166e-16)
(1.02748 -1.33162e-15 -1.70118e-16)
(1.02748 -1.21945e-15 -1.20441e-16)
(1.02994 -1.31841e-15 -1.75789e-16)
(1.02994 -1.23206e-15 -1.17562e-16)
(1.03238 -1.29806e-15 -1.65325e-16)
(1.03238 -1.23978e-15 -1.16773e-16)
(1.03482 -1.28834e-15 -1.55449e-16)
(1.03482 -1.23828e-15 -1.19522e-16)
(1.03725 -1.28177e-15 -1.44538e-16)
(1.03725 -1.23014e-15 -1.22713e-16)
(1.03966 -1.28167e-15 -1.28584e-16)
(1.03966 -1.23381e-15 -1.18225e-16)
(1.04207 -1.28408e-15 -1.17053e-16)
(1.04207 -1.23945e-15 -1.09823e-16)
(1.04447 -1.2881e-15 -1.10313e-16)
(1.04447 -1.22589e-15 -9.71962e-17)
(1.04686 -1.28386e-15 -9.83957e-17)
(1.04686 -1.22681e-15 -8.75323e-17)
(1.04923 -1.26995e-15 -9.04328e-17)
(1.04923 -1.21269e-15 -7.32627e-17)
(1.0516 -1.26516e-15 -8.72097e-17)
(1.0516 -1.18068e-15 -7.63122e-17)
(1.05395 -1.23983e-15 -7.67827e-17)
(1.05395 -1.20265e-15 -8.84038e-17)
(1.0563 -1.20768e-15 -7.26757e-17)
(1.0563 -1.21734e-15 -9.02277e-17)
(1.05863 -1.19838e-15 -6.87329e-17)
(1.05863 -1.19772e-15 -9.26432e-17)
(1.06095 -1.18709e-15 -6.0238e-17)
(1.06095 -1.21218e-15 -9.6714e-17)
(1.06325 -1.1785e-15 -5.55661e-17)
(1.06325 -1.23007e-15 -9.76141e-17)
(1.06555 -1.18293e-15 -5.00176e-17)
(1.06555 -1.22637e-15 -9.80969e-17)
(1.06783 -1.20829e-15 -4.1107e-17)
(1.06783 -1.18438e-15 -9.52726e-17)
(1.07009 -1.20897e-15 -2.93099e-17)
(1.07009 -1.16475e-15 -9.11923e-17)
(1.07234 -1.15759e-15 -2.29124e-17)
(1.07234 -1.17039e-15 -9.47386e-17)
(1.07458 -1.13061e-15 -2.74805e-17)
(1.07458 -1.18001e-15 -1.0434e-16)
(1.0768 -1.13299e-15 -4.35108e-17)
(1.0768 -1.18691e-15 -9.84682e-17)
(1.079 -1.13837e-15 -4.41938e-17)
(1.079 -1.18262e-15 -8.6911e-17)
(1.08119 -1.14868e-15 -4.63828e-17)
(1.08119 -1.16692e-15 -7.03785e-17)
(1.08335 -1.15535e-15 -5.12793e-17)
(1.08335 -1.1548e-15 -5.97432e-17)
(1.08551 -1.15973e-15 -4.63394e-17)
(1.08551 -1.15516e-15 -6.48606e-17)
(1.08764 -1.14546e-15 -5.7567e-17)
(1.08764 -1.16157e-15 -6.75173e-17)
(1.08975 -1.13543e-15 -7.04869e-17)
(1.08975 -1.1529e-15 -7.55501e-17)
(1.09184 -1.12228e-15 -7.413e-17)
(1.09184 -1.1489e-15 -6.97212e-17)
(1.09391 -1.11119e-15 -8.27739e-17)
(1.09391 -1.16753e-15 -4.92077e-17)
(1.09596 -1.12137e-15 -9.68152e-17)
(1.09596 -1.15943e-15 -3.59725e-17)
(1.09799 -1.09267e-15 -1.05858e-16)
(1.09799 -1.11164e-15 -4.28359e-17)
(1.09999 -1.07288e-15 -1.12159e-16)
(1.09999 -1.05662e-15 -3.40742e-17)
(1.10196 -1.08147e-15 -1.00881e-16)
(1.10196 -1.0419e-15 -4.80688e-17)
(1.10391 -1.05727e-15 -7.19987e-17)
(1.10391 -1.01528e-15 -4.06736e-17)
(1.10584 -1.08833e-15 -5.47027e-17)
(1.10584 -9.59191e-16 -5.05138e-17)
(1.10773 -9.7781e-16 -1.04812e-17)
(1.10773 -9.39363e-16 -6.59471e-17)
(1.10959 -9.20722e-16 -1.13033e-17)
(1.10959 -9.25976e-16 -6.89388e-17)
(1.11142 -8.96167e-16 2.13012e-18)
(1.11142 -8.95551e-16 -8.92664e-17)
(1.11322 -8.75775e-16 -6.48158e-18)
(1.11322 -8.89028e-16 -8.96754e-17)
(1.11499 -8.1767e-16 -1.61061e-17)
(1.11499 -8.99233e-16 -7.9516e-17)
(1.11671 -7.22482e-16 -4.39745e-17)
(1.11671 -8.33936e-16 -5.94808e-17)
(1.1184 -7.2652e-16 -4.94005e-17)
(1.1184 -7.92348e-16 -3.24061e-17)
(1.12005 -7.14524e-16 -7.06665e-17)
(1.12005 -7.54628e-16 -3.59534e-17)
(1.12166 -7.11717e-16 -7.7919e-17)
(1.12166 -6.88457e-16 -3.39951e-17)
(1.12322 -7.13392e-16 -7.41122e-17)
(1.12322 -7.10516e-16 -2.70768e-17)
(1.12473 -7.2509e-16 -3.30926e-17)
(1.12473 -7.00359e-16 -9.95802e-18)
(1.12619 -6.8561e-16 -1.63666e-17)
(1.12619 -6.72221e-16 9.21237e-18)
(1.1276 -6.85856e-16 -3.60091e-17)
(1.1276 -6.63123e-16 1.86547e-17)
(1.12896 -7.25252e-16 -4.60426e-18)
(1.12896 -6.80836e-16 9.78589e-18)
(1.13025 -6.89368e-16 -1.59618e-17)
(1.13025 -7.02971e-16 9.59856e-18)
(1.13149 -6.75552e-16 -3.90001e-17)
(1.13149 -6.39169e-16 -1.32415e-18)
(1.13265 -6.32694e-16 -5.06631e-17)
(1.13265 -5.89968e-16 -2.33488e-17)
(1.13375 -5.78557e-16 -6.15325e-17)
(1.13375 -6.15755e-16 -2.80899e-17)
(1.13477 -5.51816e-16 -6.91426e-17)
(1.13477 -6.30805e-16 -3.77162e-17)
(1.13571 -5.53352e-16 -1.03744e-16)
(1.13571 -6.04786e-16 -3.03472e-17)
(1.13657 -5.69418e-16 -7.92704e-17)
(1.13657 -5.66419e-16 -5.33168e-17)
(1.13734 -5.62177e-16 -8.00603e-17)
(1.13734 -5.51506e-16 -5.08818e-17)
(1.13802 -5.22441e-16 -5.89752e-17)
(1.13802 -5.71955e-16 -4.43964e-17)
(1.1386 -5.41297e-16 -4.07866e-17)
(1.1386 -5.28245e-16 -3.96642e-17)
(1.13907 -5.49626e-16 -4.13353e-18)
(1.13907 -4.75669e-16 -3.57547e-17)
(1.13943 -4.86889e-16 5.28445e-17)
(1.13943 -4.74643e-16 6.73974e-18)
(1.13968 -4.39685e-16 4.58177e-17)
(1.13968 -4.64983e-16 1.95835e-17)
(1.13981 -4.2072e-16 4.02646e-17)
(1.13981 -4.24985e-16 1.40933e-17)
(0.00161667 -3.88695e-20 4.07277e-18)
(0.00161667 -7.13457e-22 -9.96495e-19)
(0.00487299 -2.76495e-19 1.09577e-17)
(0.00487299 -5.54688e-20 -1.18391e-17)
(0.00817618 -5.83787e-19 1.12781e-17)
(0.00817618 -1.15831e-19 -1.21846e-17)
(0.0115269 -9.06417e-19 1.16074e-17)
(0.0115269 -1.83793e-19 -1.25405e-17)
(0.014926 -1.23288e-18 1.19458e-17)
(0.014926 -2.57754e-19 -1.29067e-17)
(0.0183741 -1.56629e-18 1.22937e-17)
(0.0183741 -3.45462e-19 -1.32833e-17)
(0.021872 -1.91667e-18 1.26515e-17)
(0.021872 -4.39027e-19 -1.36706e-17)
(0.0254205 -2.28364e-18 1.30192e-17)
(0.0254205 -5.21362e-19 -1.40692e-17)
(0.0290202 -2.64952e-18 1.33972e-17)
(0.0290202 -6.25061e-19 -1.44794e-17)
(0.0326721 -3.04738e-18 1.37857e-17)
(0.0326721 -7.12298e-19 -1.49013e-17)
(0.0363769 -3.4722e-18 1.41848e-17)
(0.0363769 -7.83187e-19 -1.53357e-17)
(0.0401354 -3.8916e-18 1.45948e-17)
(0.0401354 -8.68022e-19 -1.57826e-17)
(0.0439484 -4.34183e-18 1.50161e-17)
(0.0439484 -9.51786e-19 -1.6242e-17)
(0.0478167 -4.82349e-18 1.54488e-17)
(0.0478167 -1.04988e-18 -1.67146e-17)
(0.0517413 -5.29116e-18 1.58932e-17)
(0.0517413 -1.15806e-18 -1.7201e-17)
(0.0557228 -5.73816e-18 1.63495e-17)
(0.0557228 -1.27945e-18 -1.77013e-17)
(0.0597623 -6.2208e-18 1.68184e-17)
(0.0597623 -1.37771e-18 -1.82167e-17)
(0.0638605 -6.79055e-18 1.72992e-17)
(0.0638605 -1.44392e-18 -1.87475e-17)
(0.0680183 -7.37899e-18 1.77911e-17)
(0.0680183 -1.46098e-18 -1.9294e-17)
(0.0722367 -7.91667e-18 1.82951e-17)
(0.0722367 -1.53049e-18 -1.98549e-17)
(0.0765164 -8.46982e-18 1.88121e-17)
(0.0765164 -1.6602e-18 -2.04308e-17)
(0.0808584 -9.05093e-18 1.93433e-17)
(0.0808584 -1.76823e-18 -2.10232e-17)
(0.0852637 -9.64998e-18 1.98889e-17)
(0.0852637 -1.88393e-18 -2.1634e-17)
(0.0897329 -1.03258e-17 2.04488e-17)
(0.0897329 -2.00385e-18 -2.22638e-17)
(0.0942672 -1.09786e-17 2.10216e-17)
(0.0942672 -2.1504e-18 -2.291e-17)
(0.0988673 -1.1569e-17 2.16102e-17)
(0.0988673 -2.35956e-18 -2.35731e-17)
(0.103534 -1.22135e-17 2.22152e-17)
(0.103534 -2.62743e-18 -2.42537e-17)
(0.108268 -1.28751e-17 2.28359e-17)
(0.108268 -2.8688e-18 -2.49541e-17)
(0.113071 -1.3573e-17 2.3473e-17)
(0.113071 -3.0233e-18 -2.56774e-17)
(0.117943 -1.43157e-17 2.41243e-17)
(0.117943 -3.24626e-18 -2.64217e-17)
(0.122885 -1.50321e-17 2.47915e-17)
(0.122885 -3.53772e-18 -2.71826e-17)
(0.127898 -1.58462e-17 2.54759e-17)
(0.127898 -3.77703e-18 -2.79591e-17)
(0.132982 -1.66877e-17 2.61756e-17)
(0.132982 -4.01024e-18 -2.87566e-17)
(0.138139 -1.75371e-17 2.68912e-17)
(0.138139 -4.26559e-18 -2.95775e-17)
(0.143368 -1.85115e-17 2.76202e-17)
(0.143368 -4.35083e-18 -3.04186e-17)
(0.14867 -1.96248e-17 2.83624e-17)
(0.14867 -4.42535e-18 -3.12814e-17)
(0.154045 -2.07532e-17 2.91133e-17)
(0.154045 -4.54897e-18 -3.2161e-17)
(0.159494 -2.17752e-17 2.98757e-17)
(0.159494 -4.78707e-18 -3.30634e-17)
(0.165017 -2.27243e-17 3.06479e-17)
(0.165017 -5.22281e-18 -3.39824e-17)
(0.170614 -2.35977e-17 3.14336e-17)
(0.170614 -5.59707e-18 -3.49163e-17)
(0.176285 -2.44184e-17 3.22343e-17)
(0.176285 -5.9134e-18 -3.58717e-17)
(0.182028 -2.5363e-17 3.30497e-17)
(0.182028 -6.34441e-18 -3.68493e-17)
(0.187845 -2.65122e-17 3.38754e-17)
(0.187845 -6.82195e-18 -3.78466e-17)
(0.193733 -2.76961e-17 3.47082e-17)
(0.193733 -7.14089e-18 -3.88534e-17)
(0.199692 -2.88263e-17 3.55494e-17)
(0.199692 -7.61164e-18 -3.98751e-17)
(0.205721 -2.98374e-17 3.63953e-17)
(0.205721 -7.90946e-18 -4.09053e-17)
(0.211817 -3.09131e-17 3.72455e-17)
(0.211817 -8.32243e-18 -4.19421e-17)
(0.21798 -3.21401e-17 3.81014e-17)
(0.21798 -9.04673e-18 -4.29928e-17)
(0.224206 -3.33796e-17 3.89557e-17)
(0.224206 -9.723e-18 -4.40485e-17)
(0.230493 -3.476e-17 3.98086e-17)
(0.230493 -1.01727e-17 -4.51093e-17)
(0.236839 -3.62884e-17 4.06526e-17)
(0.236839 -1.05577e-17 -4.61676e-17)
(0.24324 -3.8011e-17 4.14816e-17)
(0.24324 -1.10097e-17 -4.72167e-17)
(0.249692 -3.95867e-17 4.22893e-17)
(0.249692 -1.1604e-17 -4.8256e-17)
(0.256192 -4.08386e-17 4.3081e-17)
(0.256192 -1.2151e-17 -4.9284e-17)
(0.262735 -4.23002e-17 4.3855e-17)
(0.262735 -1.24235e-17 -5.02971e-17)
(0.269317 -4.3845e-17 4.46094e-17)
(0.269317 -1.31634e-17 -5.13019e-17)
(0.275933 -4.53326e-17 4.53429e-17)
(0.275933 -1.43991e-17 -5.22789e-17)
(0.282578 -4.70295e-17 4.60584e-17)
(0.282578 -1.54375e-17 -5.32343e-17)
(0.289247 -4.87219e-17 4.67465e-17)
(0.289247 -1.63382e-17 -5.41782e-17)
(0.295934 -5.03674e-17 4.73983e-17)
(0.295934 -1.70911e-17 -5.50953e-17)
(0.302634 -5.21222e-17 4.80121e-17)
(0.302634 -1.74708e-17 -5.59948e-17)
(0.309342 -5.37354e-17 4.85806e-17)
(0.309342 -1.77112e-17 -5.68479e-17)
(0.316051 -5.52315e-17 4.91158e-17)
(0.316051 -1.8707e-17 -5.7675e-17)
(0.322756 -5.68217e-17 4.96187e-17)
(0.322756 -2.0337e-17 -5.84464e-17)
(0.329452 -5.88925e-17 5.01003e-17)
(0.329452 -2.1645e-17 -5.92001e-17)
(0.336133 -6.10235e-17 5.05391e-17)
(0.336133 -2.28235e-17 -5.99448e-17)
(0.342794 -6.28293e-17 5.09425e-17)
(0.342794 -2.37481e-17 -6.06176e-17)
(0.34943 -6.45776e-17 5.13231e-17)
(0.34943 -2.45268e-17 -6.12834e-17)
(0.356036 -6.6372e-17 5.16655e-17)
(0.356036 -2.54266e-17 -6.19267e-17)
(0.362608 -6.83655e-17 5.19669e-17)
(0.362608 -2.65263e-17 -6.25218e-17)
(0.369141 -7.04889e-17 5.22372e-17)
(0.369141 -2.76444e-17 -6.30925e-17)
(0.375633 -7.21225e-17 5.24639e-17)
(0.375633 -2.90856e-17 -6.36275e-17)
(0.382078 -7.39239e-17 5.26756e-17)
(0.382078 -3.03907e-17 -6.41233e-17)
(0.388474 -7.57617e-17 5.28473e-17)
(0.388474 -3.12105e-17 -6.45747e-17)
(0.394818 -7.72727e-17 5.3003e-17)
(0.394818 -3.2631e-17 -6.5023e-17)
(0.401108 -7.91742e-17 5.31389e-17)
(0.401108 -3.42963e-17 -6.54501e-17)
(0.40734 -8.13895e-17 5.3251e-17)
(0.40734 -3.54216e-17 -6.583e-17)
(0.413514 -8.34255e-17 5.3346e-17)
(0.413514 -3.68018e-17 -6.62213e-17)
(0.419627 -8.50304e-17 5.34303e-17)