/*--------------------------------*- C++ -*----------------------------------*\
| =========                 |                                                 |
| \\      /  F ield         | OpenFOAM: The Open Source CFD Toolbox           |
|  \\    /   O peration     | Version:  2106                                  |
|   \\  /    A nd           | Website:  www.openfoam.com                      |
|    \\/     M anipulation  |                                                 |
\*---------------------------------------------------------------------------*/
FoamFile
{
    version     2.0;
    format      ascii;
    arch        "LSB;label=32;scalar=64";
    class       surfaceScalarField;
    location    "4000";
    object      phi;
}
// * * * * * * * * * * * * * * * * * * * * * * * * * * * * * * * * * * * * * //

dimensions      [0 3 -1 0 0 0 0];

oriented        oriented;

internalField   nonuniform List<scalar> 
5116
(
2.8201e-08
-4.57765e-18
-1.83106e-22
-4.77643e-22
3.38973e-23
8.62456e-08
-4.57749e-18
6.3412e-23
-9.17636e-22
2.22965e-22
1.46818e-07
-4.57736e-18
6.7579e-23
-1.35197e-21
2.32859e-22
2.10001e-07
-4.57722e-18
6.58249e-23
-1.82413e-21
2.43205e-22
2.75883e-07
-4.57713e-18
6.44048e-23
-2.29908e-21
2.54023e-22
3.44552e-07
-4.57687e-18
6.36369e-23
-2.88759e-21
2.65334e-22
4.16101e-07
-4.5766e-18
6.31804e-23
-3.53449e-21
2.77162e-22
4.90623e-07
-4.57621e-18
6.28887e-23
-4.27428e-21
2.89531e-22
5.68215e-07
-4.57609e-18
6.26592e-23
-4.88589e-21
3.0246e-22
6.48975e-07
-4.57569e-18
6.23889e-23
-5.72404e-21
3.1597e-22
7.33004e-07
-4.57531e-18
6.19891e-23
-6.49384e-21
3.30084e-22
8.20403e-07
-4.57511e-18
6.14066e-23
-7.17559e-21
3.44816e-22
9.11274e-07
-4.57479e-18
6.06071e-23
-7.99372e-21
3.60177e-22
1.00572e-06
-4.57427e-18
5.95647e-23
-8.55427e-21
3.76176e-22
1.10384e-06
-4.57389e-18
5.82521e-23
-9.2563e-21
3.92813e-22
1.20572e-06
-4.57327e-18
5.66487e-23
-1.03742e-20
4.10082e-22
1.31147e-06
-4.57284e-18
5.47268e-23
-1.13414e-20
4.27968e-22
1.42116e-06
-4.57192e-18
5.24667e-23
-1.24504e-20
4.46435e-22
1.53487e-06
-4.57196e-18
4.98347e-23
-1.34263e-20
4.65435e-22
1.65267e-06
-4.57115e-18
4.68199e-23
-1.45407e-20
4.84907e-22
1.77459e-06
-4.57034e-18
4.33815e-23
-1.56762e-20
5.0477e-22
1.90067e-06
-4.56984e-18
3.9496e-23
-1.6833e-20
5.24926e-22
2.03092e-06
-4.57006e-18
3.51388e-23
-1.81783e-20
5.45254e-22
2.16532e-06
-4.56869e-18
3.03019e-23
-1.97373e-20
5.65637e-22
2.30383e-06
-4.56769e-18
2.49235e-23
-2.16559e-20
5.85925e-22
2.44639e-06
-4.5675e-18
1.90052e-23
-2.26875e-20
6.05969e-22
2.59292e-06
-4.56684e-18
1.25492e-23
-2.42231e-20
6.25599e-22
2.7433e-06
-4.56581e-18
5.53446e-24
-2.58715e-20
6.44681e-22
2.89739e-06
-4.56442e-18
-2.04706e-24
-2.75253e-20
6.63074e-22
3.05504e-06
-4.56333e-18
-1.02057e-23
-2.95492e-20
6.80665e-22
3.2161e-06
-4.5627e-18
-1.89317e-23
-3.10654e-20
6.97358e-22
3.38038e-06
-4.56178e-18
-2.82183e-23
-3.27603e-20
7.13058e-22
3.54771e-06
-4.56068e-18
-3.80585e-23
-3.45493e-20
7.27725e-22
3.71792e-06
-4.55937e-18
-4.84269e-23
-3.63532e-20
7.41354e-22
3.89085e-06
-4.55668e-18
-5.92944e-23
-3.9884e-20
7.53955e-22
4.06633e-06
-4.55541e-18
-7.06639e-23
-4.19976e-20
7.65579e-22
4.24423e-06
-4.55312e-18
-8.25091e-23
-4.48548e-20
7.76226e-22
4.42442e-06
-4.55157e-18
-9.48156e-23
-4.79493e-20
7.85981e-22
4.60679e-06
-4.54909e-18
-1.0757e-22
-5.09749e-20
7.9495e-22
4.79127e-06
-4.54727e-18
-1.20804e-22
-5.3665e-20
8.0322e-22
4.97777e-06
-4.54477e-18
-1.34498e-22
-5.66201e-20
8.10868e-22
5.16626e-06
-4.54235e-18
-1.48675e-22
-5.92864e-20
8.17998e-22
5.35669e-06
-4.53899e-18
-1.63367e-22
-6.39944e-20
8.24687e-22
5.54904e-06
-4.53636e-18
-1.78649e-22
-6.67801e-20
8.31089e-22
5.74332e-06
-4.53375e-18
-1.94535e-22
-7.05914e-20
8.37244e-22
5.93953e-06
-4.5302e-18
-2.11055e-22
-7.40402e-20
8.4327e-22
6.13769e-06
-4.52807e-18
-2.28239e-22
-7.65259e-20
8.49223e-22
6.33783e-06
-4.52524e-18
-2.46056e-22
-7.9436e-20
8.55111e-22
6.53999e-06
-4.52195e-18
-2.64567e-22
-8.30574e-20
8.61034e-22
6.74423e-06
-4.51999e-18
-2.83801e-22
-8.66694e-20
8.67023e-22
6.95058e-06
-4.51512e-18
-3.03738e-22
-9.09918e-20
8.73089e-22
7.15911e-06
-4.51175e-18
-3.24495e-22
-9.4017e-20
8.79254e-22
7.36989e-06
-4.50859e-18
-3.46084e-22
-9.85784e-20
8.85481e-22
7.58297e-06
-4.5052e-18
-3.6849e-22
-1.02955e-19
8.91897e-22
7.79843e-06
-4.50152e-18
-3.91801e-22
-1.06261e-19
8.98501e-22
8.01634e-06
-4.50069e-18
-4.16018e-22
-1.07687e-19
9.05273e-22
8.23678e-06
-4.49929e-18
-4.41051e-22
-1.10453e-19
9.12138e-22
8.45982e-06
-4.49576e-18
-4.66923e-22
-1.14121e-19
9.19071e-22
8.68554e-06
-4.49125e-18
-4.93778e-22
-1.17793e-19
9.26041e-22
8.91401e-06
-4.48728e-18
-5.21738e-22
-1.2065e-19
9.33128e-22
9.14533e-06
-4.4841e-18
-5.50897e-22
-1.22419e-19
9.40345e-22
9.37956e-06
-4.47808e-18
-5.81165e-22
-1.26592e-19
9.47664e-22
9.61679e-06
-4.47396e-18
-6.12701e-22
-1.30222e-19
9.55079e-22
9.85711e-06
-4.4705e-18
-6.45459e-22
-1.32139e-19
9.62746e-22
1.01006e-05
-4.46517e-18
-6.79572e-22
-1.36415e-19
9.705e-22
1.03473e-05
-4.46101e-18
-7.15177e-22
-1.40749e-19
9.78356e-22
1.05974e-05
-4.45805e-18
-7.52304e-22
-1.4174e-19
9.86295e-22
1.08509e-05
-4.45321e-18
-7.9071e-22
-1.45491e-19
9.93996e-22
1.11079e-05
-4.44733e-18
-8.30654e-22
-1.4934e-19
1.0018e-21
1.13685e-05
-4.43788e-18
-8.72184e-22
-1.54234e-19
1.00968e-21
1.16327e-05
-4.43279e-18
-9.15567e-22
-1.58806e-19
1.0176e-21
1.19007e-05
-4.42576e-18
-9.60615e-22
-1.63077e-19
1.02546e-21
1.21726e-05
-4.42039e-18
-1.00749e-21
-1.68353e-19
1.03318e-21
1.24484e-05
-4.41366e-18
-1.05613e-21
-1.71664e-19
1.04079e-21
1.27282e-05
-4.40622e-18
-1.10673e-21
-1.76368e-19
1.04819e-21
1.30122e-05
-4.40009e-18
-1.15942e-21
-1.81891e-19
1.05535e-21
1.33003e-05
-4.39432e-18
-1.21434e-21
-1.89377e-19
1.06245e-21
1.35927e-05
-4.38699e-18
-1.27141e-21
-1.97442e-19
1.06939e-21
1.38895e-05
-4.38087e-18
-1.33076e-21
-2.03989e-19
1.07641e-21
1.41908e-05
-4.37098e-18
-1.39208e-21
-2.12556e-19
1.08314e-21
1.44967e-05
-4.36489e-18
-1.4557e-21
-2.19868e-19
1.08962e-21
1.48071e-05
-4.35769e-18
-1.52094e-21
-2.27397e-19
1.09531e-21
1.51224e-05
-4.35082e-18
-1.58811e-21
-2.3456e-19
1.10039e-21
1.54425e-05
-4.33722e-18
-1.65715e-21
-2.46407e-19
1.10537e-21
1.57675e-05
-4.32652e-18
-1.7282e-21
-2.51724e-19
1.11056e-21
1.60976e-05
-4.3149e-18
-1.8008e-21
-2.59451e-19
1.11521e-21
1.64328e-05
-4.30458e-18
-1.87517e-21
-2.66511e-19
1.11943e-21
1.67732e-05
-4.30034e-18
-1.95139e-21
-2.68303e-19
1.12307e-21
1.71189e-05
-4.2874e-18
-2.02859e-21
-2.75843e-19
1.12549e-21
1.74701e-05
-4.27768e-18
-2.10808e-21
-2.82476e-19
1.12703e-21
1.78268e-05
-4.26849e-18
-2.18954e-21
-2.91111e-19
1.12753e-21
1.81891e-05
-4.25459e-18
-2.27255e-21
-2.97474e-19
1.12722e-21
1.85572e-05
-4.24023e-18
-2.35848e-21
-3.0801e-19
1.12653e-21
1.8931e-05
-4.2287e-18
-2.44663e-21
-3.15782e-19
1.12518e-21
1.93109e-05
-4.21851e-18
-2.53665e-21
-3.23164e-19
1.12192e-21
1.96967e-05
-4.20294e-18
-2.62899e-21
-3.34451e-19
1.1175e-21
2.00888e-05
-4.18899e-18
-2.72423e-21
-3.44402e-19
1.11267e-21
2.0487e-05
-4.17471e-18
-2.82231e-21
-3.51484e-19
1.10743e-21
2.08917e-05
-4.16193e-18
-2.92364e-21
-3.58763e-19
1.10082e-21
2.13028e-05
-4.15107e-18
-3.02719e-21
-3.64403e-19
1.09222e-21
2.17206e-05
-4.1361e-18
-3.13308e-21
-3.70214e-19
1.08181e-21
2.2145e-05
-4.1188e-18
-3.2408e-21
-3.80727e-19
1.06965e-21
2.25763e-05
-4.10404e-18
-3.35178e-21
-3.90394e-19
1.05578e-21
2.30145e-05
-4.09562e-18
-3.46591e-21
-3.95338e-19
1.04096e-21
2.34598e-05
-4.07756e-18
-3.58177e-21
-4.07334e-19
1.02455e-21
2.39122e-05
-4.06287e-18
-3.70268e-21
-4.14842e-19
1.00781e-21
2.4372e-05
-4.04673e-18
-3.82705e-21
-4.27381e-19
9.90315e-22
2.48392e-05
-4.03094e-18
-3.95419e-21
-4.36014e-19
9.70572e-22
2.53139e-05
-4.01739e-18
-4.08457e-21
-4.47296e-19
9.48528e-22
2.57963e-05
-3.99983e-18
-4.21741e-21
-4.59846e-19
9.25126e-22
2.62865e-05
-3.98068e-18
-4.35284e-21
-4.70815e-19
9.00266e-22
2.67846e-05
-3.96543e-18
-4.49159e-21
-4.81269e-19
8.75176e-22
2.72908e-05
-3.95174e-18
-4.63286e-21
-4.92738e-19
8.49286e-22
2.78052e-05
-3.94088e-18
-4.77651e-21
-4.98598e-19
8.21664e-22
2.83279e-05
-3.92186e-18
-4.92129e-21
-5.10379e-19
7.91959e-22
2.8859e-05
-3.90157e-18
-5.06922e-21
-5.16327e-19
7.61119e-22
2.93988e-05
-3.88864e-18
-5.21978e-21
-5.27232e-19
7.27864e-22
2.99473e-05
-3.85952e-18
-5.37123e-21
-5.35276e-19
6.92602e-22
3.05047e-05
-3.83989e-18
-5.52685e-21
-5.4828e-19
6.55278e-22
3.10712e-05
-3.83093e-18
-5.68466e-21
-5.53403e-19
6.17519e-22
3.16468e-05
-3.82438e-18
-5.84111e-21
-5.55729e-19
5.76607e-22
3.22317e-05
-3.81267e-18
-5.99517e-21
-5.62604e-19
5.30903e-22
3.2826e-05
-3.79839e-18
-6.14843e-21
-5.73525e-19
4.81659e-22
3.343e-05
-3.78575e-18
-6.30148e-21
-5.79641e-19
4.30687e-22
3.40438e-05
-3.77808e-18
-6.45358e-21
-5.82771e-19
3.77168e-22
3.46675e-05
-3.76917e-18
-6.60285e-21
-5.92343e-19
3.21661e-22
3.53013e-05
-3.75167e-18
-6.75065e-21
-5.9383e-19
2.64143e-22
3.59453e-05
-3.73898e-18
-6.89808e-21
-5.93352e-19
1.99701e-22
3.65998e-05
-3.71445e-18
-7.04205e-21
-6.03196e-19
1.25348e-22
3.72648e-05
-3.69234e-18
-7.18803e-21
-6.05876e-19
4.81287e-23
3.79405e-05
-3.67812e-18
-7.33079e-21
-6.1362e-19
-3.59225e-23
3.86271e-05
-3.65713e-18
-7.46894e-21
-6.19195e-19
-1.24252e-22
3.93248e-05
-3.63616e-18
-7.60662e-21
-6.32763e-19
-2.21955e-22
4.00338e-05
-3.61663e-18
-7.74449e-21
-6.39297e-19
-3.24946e-22
4.07542e-05
-3.59217e-18
-7.88496e-21
-6.42313e-19
-4.31071e-22
4.14862e-05
-3.57685e-18
-8.02651e-21
-6.5293e-19
-5.39299e-22
4.22299e-05
-3.55712e-18
-8.16716e-21
-6.6261e-19
-6.51364e-22
4.29857e-05
-3.54699e-18
-8.30677e-21
-6.72761e-19
-7.63857e-22
4.37535e-05
-3.52528e-18
-8.43632e-21
-6.72243e-19
-8.73571e-22
4.45337e-05
-3.4916e-18
-8.55986e-21
-6.77074e-19
-9.8919e-22
4.53265e-05
-3.47119e-18
-8.68588e-21
-6.95306e-19
-1.10559e-21
4.61319e-05
-3.44873e-18
-8.7989e-21
-7.02344e-19
-1.22333e-21
4.69503e-05
-3.42563e-18
-8.90147e-21
-7.11529e-19
-1.34994e-21
4.77817e-05
-3.40345e-18
-8.99401e-21
-7.16707e-19
-1.48469e-21
4.86265e-05
-3.37582e-18
-9.07302e-21
-7.38776e-19
-1.62313e-21
4.94848e-05
-3.34743e-18
-9.14245e-21
-7.53661e-19
-1.75876e-21
5.03568e-05
-3.32894e-18
-9.19986e-21
-7.62314e-19
-1.89969e-21
5.12427e-05
-3.30802e-18
-9.23897e-21
-7.66941e-19
-2.05032e-21
5.21428e-05
-3.29345e-18
-9.26336e-21
-7.73086e-19
-2.20216e-21
5.30573e-05
-3.27684e-18
-9.26909e-21
-7.81996e-19
-2.35444e-21
5.39863e-05
-3.25757e-18
-9.26046e-21
-7.87262e-19
-2.50769e-21
5.49301e-05
-3.23948e-18
-9.24678e-21
-7.99813e-19
-2.65669e-21
5.58889e-05
-3.21545e-18
-9.22849e-21
-8.10232e-19
-2.79747e-21
5.6863e-05
-3.17761e-18
-9.20703e-21
-8.2578e-19
-2.93547e-21
5.78525e-05
-3.15362e-18
-9.18599e-21
-8.294e-19
-3.05987e-21
5.88577e-05
-3.13878e-18
-9.16142e-21
-8.36642e-19
-3.18897e-21
5.98789e-05
-3.12302e-18
-9.12732e-21
-8.33869e-19
-3.32134e-21
6.09163e-05
-3.09486e-18
-9.07427e-21
-8.4818e-19
-3.44951e-21
6.19701e-05
-3.03656e-18
-9.02226e-21
-8.73235e-19
-3.56241e-21
6.30406e-05
-3.02536e-18
-8.98933e-21
-8.82964e-19
-3.66272e-21
6.41279e-05
-2.99195e-18
-8.94728e-21
-8.76926e-19
-3.75062e-21
6.52325e-05
-3.00267e-18
-8.91071e-21
-8.83234e-19
-3.82988e-21
6.63545e-05
-3.00288e-18
-8.85693e-21
-8.82987e-19
-3.89132e-21
6.74942e-05
-2.99028e-18
-8.78179e-21
-8.88902e-19
-3.94358e-21
6.86518e-05
-2.9781e-18
-8.72219e-21
-8.94784e-19
-3.98735e-21
6.98277e-05
-2.96194e-18
-8.64763e-21
-8.91271e-19
-4.01807e-21
7.1022e-05
-2.94988e-18
-8.56908e-21
-8.86324e-19
-4.03478e-21
7.22351e-05
-2.93581e-18
-8.50462e-21
-8.77122e-19
-4.03639e-21
7.34672e-05
-2.93355e-18
-8.43823e-21
-8.73055e-19
-4.01587e-21
7.47187e-05
-2.909e-18
-8.36837e-21
-8.69321e-19
-3.96229e-21
7.59898e-05
-2.91183e-18
-8.2903e-21
-8.67127e-19
-3.89269e-21
7.72808e-05
-2.89915e-18
-8.19866e-21
-8.58421e-19
-3.80565e-21
7.8592e-05
-2.88876e-18
-8.10056e-21
-8.5435e-19
-3.71108e-21
7.99236e-05
-2.88835e-18
-7.99223e-21
-8.43595e-19
-3.6067e-21
8.12761e-05
-2.87141e-18
-7.8573e-21
-8.51696e-19
-3.51421e-21
8.26496e-05
-2.85395e-18
-7.72184e-21
-8.53497e-19
-3.38328e-21
8.40446e-05
-2.84312e-18
-7.62088e-21
-8.44716e-19
-3.23416e-21
8.54613e-05
-2.82805e-18
-7.51653e-21
-8.35657e-19
-3.10093e-21
8.69e-05
-2.8218e-18
-7.40681e-21
-8.24709e-19
-2.94235e-21
8.83611e-05
-2.79433e-18
-7.28553e-21
-8.44655e-19
-2.75788e-21
8.98449e-05
-2.77574e-18
-7.17251e-21
-8.55917e-19
-2.5531e-21
9.13517e-05
-2.75429e-18
-7.04356e-21
-8.57259e-19
-2.32789e-21
9.28819e-05
-2.72884e-18
-6.92378e-21
-8.75059e-19
-2.09303e-21
9.44357e-05
-2.69732e-18
-6.79211e-21
-8.92811e-19
-1.82244e-21
9.60136e-05
-2.67056e-18
-6.64799e-21
-9.00578e-19
-1.53981e-21
9.76159e-05
-2.63261e-18
-6.50506e-21
-9.17038e-19
-1.2886e-21
9.92429e-05
-2.60958e-18
-6.36635e-21
-9.29882e-19
-1.0493e-21
0.000100895
-2.6041e-18
-6.23776e-21
-9.45194e-19
-8.0489e-22
0.000102573
-2.57606e-18
-6.05067e-21
-9.66278e-19
-5.46444e-22
0.000104276
-2.56558e-18
-5.89047e-21
-9.82724e-19
-2.72064e-22
0.000106006
-2.53901e-18
-5.69149e-21
-9.96485e-19
-1.51917e-23
0.000107762
-2.52137e-18
-5.49256e-21
-1.00857e-18
2.40006e-22
0.000109545
-2.49266e-18
-5.27632e-21
-1.03172e-18
4.79354e-22
0.000111356
-2.4763e-18
-5.03498e-21
-1.05602e-18
7.37769e-22
0.000113194
-2.43884e-18
-4.7814e-21
-1.07685e-18
1.00528e-21
0.000115061
-2.41838e-18
-4.58404e-21
-1.10106e-18
1.24519e-21
0.000116956
-2.40081e-18
-4.3568e-21
-1.12487e-18
1.51762e-21
0.00011888
-2.39216e-18
-4.09324e-21
-1.15295e-18
1.84e-21
0.000120833
-2.36879e-18
-3.83125e-21
-1.17894e-18
2.19747e-21
0.000122816
-2.3685e-18
-3.69584e-21
-1.17224e-18
2.65192e-21
0.00012483
-2.32807e-18
-3.58714e-21
-1.21759e-18
3.16804e-21
0.000126874
-2.30674e-18
-3.50235e-21
-1.20715e-18
3.73288e-21
0.000128949
-2.3098e-18
-3.29861e-21
-1.19398e-18
4.17672e-21
0.000131055
-2.30235e-18
-3.03726e-21
-1.18591e-18
4.6186e-21
0.000133194
-2.29085e-18
-2.7707e-21
-1.19073e-18
5.08563e-21
0.000135365
-2.26782e-18
-2.49887e-21
-1.20146e-18
5.55771e-21
0.000137569
-2.25406e-18
-2.2566e-21
-1.21484e-18
5.98598e-21
0.000139806
-2.22884e-18
-2.01131e-21
-1.22051e-18
6.44999e-21
0.000142078
-2.20779e-18
-1.8003e-21
-1.21315e-18
6.87337e-21
0.000144383
-2.19892e-18
-1.55156e-21
-1.22187e-18
7.21746e-21
0.000146723
-2.17968e-18
-1.2414e-21
-1.24772e-18
7.57477e-21
0.000149099
-2.14298e-18
-8.528e-22
-1.255e-18
7.98903e-21
0.00015151
-2.13699e-18
-5.52939e-22
-1.27931e-18
8.39552e-21
0.000153958
-2.09422e-18
-3.07273e-22
-1.2803e-18
8.89274e-21
0.000156442
-2.07347e-18
-2.28917e-23
-1.31166e-18
9.3184e-21
0.000158964
-2.05098e-18
5.19485e-22
-1.29977e-18
9.82757e-21
0.000161523
-2.0596e-18
1.0221e-21
-1.31201e-18
1.02332e-20
0.000164121
-2.03335e-18
1.67674e-21
-1.32086e-18
1.06469e-20
0.000166757
-2.03454e-18
2.18353e-21
-1.32296e-18
1.10699e-20
0.000169433
-2.01851e-18
2.76082e-21
-1.30579e-18
1.16706e-20
0.000172149
-2.03641e-18
3.22285e-21
-1.32343e-18
1.21702e-20
0.000174905
-2.01207e-18
3.93824e-21
-1.3601e-18
1.24819e-20
0.000177703
-2.01248e-18
4.51145e-21
-1.37112e-18
1.27385e-20
0.000180542
-2.02067e-18
5.06469e-21
-1.37204e-18
1.26482e-20
0.000183423
-1.98096e-18
5.56328e-21
-1.39008e-18
1.21549e-20
0.000186347
-1.9898e-18
5.80566e-21
-1.41417e-18
1.14916e-20
0.000189314
-1.9539e-18
6.16822e-21
-1.42886e-18
1.11859e-20
0.000192325
-1.94049e-18
6.1295e-21
-1.43102e-18
1.09104e-20
0.00019538
-1.91462e-18
5.53771e-21
-1.45541e-18
1.07124e-20
0.000198481
-1.96632e-18
4.95578e-21
-1.50821e-18
1.04335e-20
0.000201627
-1.99834e-18
4.72429e-21
-1.48554e-18
1.03814e-20
0.00020482
-2.02456e-18
4.72934e-21
-1.51865e-18
1.04189e-20
0.00020806
-2.01374e-18
4.99375e-21
-1.54512e-18
1.0463e-20
0.000211347
-2.00832e-18
5.18724e-21
-1.56902e-18
1.02271e-20
0.000214682
-2.00803e-18
5.17443e-21
-1.58102e-18
9.75347e-21
0.000218066
-2.01201e-18
5.08315e-21
-1.6035e-18
9.16853e-21
0.0002215
-1.99898e-18
4.8918e-21
-1.60862e-18
8.61289e-21
0.000224983
-2.00303e-18
4.87178e-21
-1.62084e-18
7.82053e-21
0.000228518
-1.98199e-18
5.09576e-21
-1.61981e-18
6.74599e-21
0.000232104
-1.98506e-18
4.97906e-21
-1.62605e-18
6.09544e-21
0.000235742
-1.99434e-18
4.65938e-21
-1.63762e-18
5.28642e-21
0.000239433
-2.00319e-18
4.45666e-21
-1.62695e-18
4.30731e-21
0.000243177
-1.99875e-18
4.22083e-21
-1.63403e-18
3.01457e-21
0.000246976
-1.95149e-18
3.60978e-21
-1.65006e-18
2.27737e-21
0.000250829
-1.98987e-18
2.73656e-21
-1.66675e-18
1.82172e-21
0.000254738
-1.94182e-18
2.5219e-21
-1.68541e-18
1.89021e-21
0.000258703
-1.887e-18
3.01932e-21
-1.64364e-18
1.65432e-21
0.000262725
-1.80536e-18
2.89666e-21
-1.66005e-18
1.12214e-21
0.000266805
-1.7597e-18
2.33588e-21
-1.63888e-18
8.34142e-22
0.000270944
-1.71308e-18
1.58092e-21
-1.63736e-18
5.11962e-22
0.000275141
-1.73665e-18
1.14787e-21
-1.60433e-18
4.0411e-22
0.000279399
-1.65328e-18
9.22468e-22
-1.62098e-18
2.17387e-22
0.000283717
-1.65492e-18
-1.05426e-21
-1.59331e-18
8.61851e-22
0.000288097
-1.60738e-18
-2.88891e-21
-1.56679e-18
1.20876e-21
0.000292539
-1.57635e-18
-4.66646e-21
-1.50055e-18
9.4637e-22
0.000297044
-1.5255e-18
-5.2432e-21
-1.50603e-18
-5.93733e-22
0.000301613
-1.51967e-18
-6.33994e-21
-1.51439e-18
-6.42505e-22
0.000306247
-1.58951e-18
-7.15004e-21
-1.41499e-18
-7.79768e-22
0.000310946
-1.56029e-18
-6.74921e-21
-1.37919e-18
-1.62254e-21
0.000315711
-1.56065e-18
-6.98951e-21
-1.3559e-18
-3.37608e-21
0.000320544
-1.56843e-18
-8.63548e-21
-1.41732e-18
-4.81026e-21
0.000325444
-1.56115e-18
-9.73924e-21
-1.44894e-18
-5.58916e-21
0.000330413
-1.61603e-18
-1.14337e-20
-1.4717e-18
-6.4544e-21
0.000335452
-1.57682e-18
-1.33099e-20
-1.51856e-18
-7.41231e-21
0.000340562
-1.57868e-18
-1.59385e-20
-1.54722e-18
-7.91258e-21
0.000345743
-1.51324e-18
-1.6203e-20
-1.46042e-18
-9.76579e-21
0.000350996
-1.52152e-18
-1.72843e-20
-1.45666e-18
-1.34089e-20
0.000356323
-1.53598e-18
-1.71737e-20
-1.48159e-18
-1.67929e-20
0.000361724
-1.47341e-18
-1.60443e-20
-1.45698e-18
-1.83789e-20
0.0003672
-1.457e-18
-1.64442e-20
-1.4301e-18
-1.94591e-20
0.000372752
-1.48313e-18
-1.6401e-20
-1.42739e-18
-2.11606e-20
0.000378382
-1.35739e-18
-1.58021e-20
-1.5393e-18
-2.33367e-20
0.00038409
-1.38274e-18
-1.66747e-20
-1.49132e-18
-2.20329e-20
0.000389877
-1.35759e-18
-1.66361e-20
-1.50146e-18
-2.12447e-20
0.000395745
-1.34743e-18
-1.72487e-20
-1.34817e-18
-2.09503e-20
0.000401694
-1.3099e-18
-1.85109e-20
-1.27685e-18
-2.101e-20
0.000407726
-1.25512e-18
-1.99399e-20
-1.24555e-18
-2.29704e-20
0.000413841
-1.22122e-18
-2.28035e-20
-1.26425e-18
-2.32041e-20
0.000420042
-1.20772e-18
-2.3475e-20
-1.25115e-18
-2.4772e-20
0.000426328
-1.16657e-18
-2.4469e-20
-1.33133e-18
-2.57726e-20
0.000432702
-1.1806e-18
-2.89491e-20
-1.24469e-18
-2.31274e-20
0.000439165
-1.24397e-18
-3.27014e-20
-1.17805e-18
-2.3099e-20
0.000445717
-1.18494e-18
-3.29786e-20
-1.14325e-18
-2.63093e-20
0.000452361
-1.13361e-18
-3.51006e-20
-1.17281e-18
-2.68194e-20
0.000459097
-1.12922e-18
-3.61474e-20
-1.03e-18
-2.35194e-20
0.000465927
-1.11189e-18
-3.5522e-20
-1.05513e-18
-2.52907e-20
0.000472853
-1.06506e-18
-3.62117e-20
-1.02756e-18
-2.74013e-20
0.000479875
-9.66338e-19
-3.75564e-20
-9.83651e-19
-2.93941e-20
0.000486996
-9.5737e-19
-3.9474e-20
-9.65963e-19
-2.7554e-20
0.000494216
-9.62886e-19
-3.99297e-20
-9.20422e-19
-2.6321e-20
0.000501537
-1.05083e-18
-4.19013e-20
-8.90346e-19
-3.02377e-20
0.000508962
-9.94461e-19
-3.98662e-20
-7.98931e-19
-3.45035e-20
0.00051649
-8.02165e-19
-3.74372e-20
-8.28435e-19
-3.6218e-20
0.000524125
-9.04785e-19
-4.04709e-20
-8.01576e-19
-3.69154e-20
0.000531867
-9.64358e-19
-3.70964e-20
-9.00091e-19
-3.94598e-20
0.000539718
-8.07066e-19
-2.91982e-20
-9.91188e-19
-3.83667e-20
0.00054768
-7.20516e-19
-2.58736e-20
-7.80056e-19
-3.52325e-20
0.000555755
-7.89732e-19
-2.52683e-20
-8.44828e-19
-3.63539e-20
0.000563943
-8.40443e-19
-1.70408e-20
-7.78072e-19
-3.09862e-20
0.000572248
-8.82538e-19
-1.22382e-20
-7.75919e-19
-3.20774e-20
0.00058067
-7.6033e-19
-8.54919e-21
-8.7944e-19
-3.35207e-20
0.000589211
-8.98072e-19
-1.05785e-20
-9.37294e-19
-2.90001e-20
0.000597873
-8.30649e-19
-9.70654e-21
-9.55379e-19
-2.52046e-20
0.000606658
-8.27919e-19
-1.55927e-20
-8.64884e-19
-1.69407e-20
0.000615568
-9.04325e-19
-2.33269e-20
-1.06244e-18
-2.02097e-20
0.000624603
-1.06138e-18
-2.77772e-20
-9.57691e-19
-1.83052e-20
0.000633767
-9.9385e-19
-2.61502e-20
-1.00913e-18
-1.35786e-20
0.00064306
-9.42564e-19
-2.70883e-20
-8.65835e-19
-4.87267e-21
0.000652485
-9.07117e-19
-2.15422e-20
-8.41922e-19
-8.75813e-21
0.000662043
-9.10323e-19
-1.86412e-20
-8.00714e-19
-5.55581e-21
0.000671736
-9.1246e-19
-1.75739e-20
-8.08663e-19
-8.19892e-21
0.000681565
-1.06707e-18
-2.00242e-20
-8.4392e-19
-1.37184e-20
0.000691533
-9.01348e-19
-7.68538e-21
-1.02043e-18
-2.42825e-20
0.00070164
-7.43276e-19
-1.55178e-20
-9.75999e-19
-2.05866e-20
0.000711889
-9.72021e-19
-2.84655e-20
-1.05113e-18
-1.72435e-20
0.000722281
-9.42228e-19
-1.8958e-20
-9.7479e-19
-2.1087e-20
0.000732818
-8.87516e-19
-1.14715e-20
-8.67941e-19
-2.2073e-20
0.0007435
-8.83624e-19
-7.94791e-21
-8.91529e-19
-3.3457e-20
0.00075433
-8.44758e-19
-3.99482e-21
-8.49982e-19
-3.8355e-20
0.000765309
-1.50739e-22
-8.20198e-19
-3.93057e-20
-8.42125e-19
2.8201e-08
-1.71825e-22
2.09402e-23
8.62456e-08
-2.23549e-22
3.55371e-22
1.46818e-07
-3.30283e-22
7.57591e-22
2.10001e-07
-4.43126e-22
1.16181e-21
2.75883e-07
-4.62661e-22
1.50799e-21
3.44552e-07
-5.66146e-22
1.92091e-21
4.16101e-07
-6.74533e-22
2.33935e-21
4.90623e-07
-6.50757e-22
2.65856e-21
5.68215e-07
-7.01334e-22
2.95175e-21
6.48975e-07
-9.5033e-22
3.5645e-21
7.33004e-07
-1.12473e-21
4.10668e-21
8.20403e-07
-1.41148e-21
4.63161e-21
9.11274e-07
-1.54692e-21
5.21582e-21
1.00572e-06
-1.70261e-21
5.817e-21
1.10384e-06
-1.79188e-21
6.45502e-21
1.20572e-06
-2.01133e-21
7.17591e-21
1.31147e-06
-2.08605e-21
7.82476e-21
1.42116e-06
-2.37882e-21
8.34249e-21
1.53487e-06
-2.57247e-21
9.25275e-21
1.65267e-06
-2.68444e-21
9.91426e-21
1.77459e-06
-2.49365e-21
1.05889e-20
1.90067e-06
-2.56335e-21
1.09429e-20
2.03092e-06
-2.53338e-21
1.22449e-20
2.16532e-06
-3.7598e-21
1.34023e-20
2.30383e-06
-4.422e-21
1.50006e-20
2.44639e-06
-5.15183e-21
1.64036e-20
2.59292e-06
-6.15417e-21
1.78271e-20
2.7433e-06
-6.77134e-21
1.87985e-20
2.89739e-06
-7.38602e-21
2.00625e-20
3.05504e-06
-7.84782e-21
2.12453e-20
3.2161e-06
-8.59602e-21
2.22534e-20
3.38038e-06
-9.29528e-21
2.36749e-20
3.54771e-06
-9.5759e-21
2.47383e-20
3.71792e-06
-9.46198e-21
2.59747e-20
3.89085e-06
-9.03281e-21
2.74459e-20
4.06633e-06
-9.4242e-21
2.84875e-20
4.24423e-06
-8.8682e-21
2.87257e-20
4.42442e-06
-8.79518e-21
2.90486e-20
4.60679e-06
-8.85177e-21
2.97637e-20
4.79127e-06
-8.55216e-21
3.08717e-20
4.97777e-06
-8.10306e-21
3.13217e-20
5.16626e-06
-8.33366e-21
3.12357e-20
5.35669e-06
-9.93944e-21
3.30617e-20
5.54904e-06
-1.20682e-20
3.55801e-20
5.74332e-06
-1.41796e-20
3.79594e-20
5.93953e-06
-1.57941e-20
4.04922e-20
6.13769e-06
-1.75362e-20
4.24397e-20
6.33783e-06
-1.96977e-20
4.58598e-20
6.53999e-06
-2.17639e-20
4.90205e-20
6.74423e-06
-2.42954e-20
5.16622e-20
6.95058e-06
-2.61896e-20
5.32661e-20
7.15911e-06
-2.85875e-20
5.39944e-20
7.36989e-06
-3.00662e-20
5.54265e-20
7.58297e-06
-3.25977e-20
5.80202e-20
7.79843e-06
-3.32383e-20
6.06785e-20
8.01634e-06
-3.35733e-20
6.194e-20
8.23678e-06
-3.35691e-20
6.2914e-20
8.45982e-06
-3.37882e-20
6.23156e-20
8.68554e-06
-3.44025e-20
6.17638e-20
8.91401e-06
-3.68458e-20
6.25132e-20
9.14533e-06
-3.72813e-20
6.45045e-20
9.37956e-06
-3.67968e-20
6.47039e-20
9.61679e-06
-3.67091e-20
6.73877e-20
9.85711e-06
-3.94874e-20
6.84329e-20
1.01006e-05
-4.13553e-20
6.8921e-20
1.03473e-05
-4.40343e-20
6.98795e-20
1.05974e-05
-4.3434e-20
7.02018e-20
1.08509e-05
-4.43426e-20
7.22816e-20
1.11079e-05
-4.36759e-20
7.17974e-20
1.13685e-05
-4.34659e-20
7.15242e-20
1.16327e-05
-4.38227e-20
7.19029e-20
1.19007e-05
-4.3818e-20
7.21967e-20
1.21726e-05
-4.43255e-20
7.19734e-20
1.24484e-05
-4.55447e-20
7.28905e-20
1.27282e-05
-4.67882e-20
7.23894e-20
1.30122e-05
-5.05553e-20
7.49916e-20
1.33003e-05
-5.24981e-20
7.59081e-20
1.35927e-05
-5.41592e-20
7.94967e-20
1.38895e-05
-5.30172e-20
7.97117e-20
1.41908e-05
-5.42437e-20
7.96287e-20
1.44967e-05
-5.46026e-20
7.72931e-20
1.48071e-05
-5.88886e-20
7.77019e-20
1.51224e-05
-6.20918e-20
8.13188e-20
1.54425e-05
-6.11775e-20
8.22289e-20
1.57675e-05
-5.91441e-20
8.27435e-20
1.60976e-05
-5.7762e-20
8.30634e-20
1.64328e-05
-5.8671e-20
8.369e-20
1.67732e-05
-5.73175e-20
8.49248e-20
1.71189e-05
-5.86295e-20
8.45583e-20
1.74701e-05
-6.06644e-20
8.62801e-20
1.78268e-05
-5.99274e-20
8.9267e-20
1.81891e-05
-6.48055e-20
9.37515e-20
1.85572e-05
-6.38718e-20
9.13102e-20
1.8931e-05
-6.38303e-20
8.61209e-20
1.93109e-05
-6.81119e-20
8.73751e-20
1.96967e-05
-7.02989e-20
8.64651e-20
2.00888e-05
-7.22475e-20
8.53984e-20
2.0487e-05
-7.5629e-20
8.37552e-20
2.08917e-05
-7.12505e-20
8.25415e-20
2.13028e-05
-7.08897e-20
8.32935e-20
2.17206e-05
-6.58696e-20
8.26215e-20
2.2145e-05
-6.5915e-20
7.72743e-20
2.25763e-05
-6.70074e-20
7.47809e-20
2.30145e-05
-6.58765e-20
7.62415e-20
2.34598e-05
-7.32132e-20
7.93627e-20
2.39122e-05
-7.60916e-20
8.34361e-20
2.4372e-05
-7.49509e-20
7.92594e-20
2.48392e-05
-7.68669e-20
7.82366e-20
2.53139e-05
-7.86653e-20
7.70434e-20
2.57963e-05
-8.06921e-20
7.40743e-20
2.62865e-05
-8.54463e-20
7.55271e-20
2.67846e-05
-8.84807e-20
7.56675e-20
2.72908e-05
-9.27372e-20
7.37859e-20
2.78052e-05
-9.46182e-20
7.48133e-20
2.83279e-05
-9.79716e-20
7.47651e-20
2.8859e-05
-1.00155e-19
7.79199e-20
2.93988e-05
-1.03158e-19
7.846e-20
2.99473e-05
-1.04592e-19
7.84926e-20
3.05047e-05
-1.09316e-19
7.95644e-20
3.10712e-05
-1.10103e-19
7.83515e-20
3.16468e-05
-1.10645e-19
7.17228e-20
3.22317e-05
-1.14525e-19
7.02209e-20
3.2826e-05
-1.1821e-19
7.68729e-20
3.343e-05
-1.19219e-19
8.20973e-20
3.40438e-05
-1.16928e-19
8.99575e-20
3.46675e-05
-1.21923e-19
9.35937e-20
3.53013e-05
-1.29327e-19
9.25194e-20
3.59453e-05
-1.35211e-19
8.66901e-20
3.65998e-05
-1.46761e-19
8.95566e-20
3.72648e-05
-1.4518e-19
8.83233e-20
3.79405e-05
-1.45361e-19
9.18442e-20
3.86271e-05
-1.50615e-19
8.40497e-20
3.93248e-05
-1.5773e-19
7.75199e-20
4.00338e-05
-1.70944e-19
7.66461e-20
4.07542e-05
-1.76031e-19
7.95626e-20
4.14862e-05
-1.85858e-19
7.13246e-20
4.22299e-05
-1.91427e-19
6.69318e-20
4.29857e-05
-1.8896e-19
6.57724e-20
4.37535e-05
-1.87192e-19
6.05457e-20
4.45337e-05
-1.94578e-19
6.41824e-20
4.53265e-05
-1.88489e-19
5.32517e-20
4.61319e-05
-1.90379e-19
4.56962e-20
4.69503e-05
-1.95728e-19
3.77304e-20
4.77817e-05
-1.98792e-19
3.32263e-20
4.86265e-05
-2.05494e-19
2.9196e-20
4.94848e-05
-2.08712e-19
2.2947e-20
5.03568e-05
-2.09067e-19
1.20267e-20
5.12427e-05
-2.08782e-19
1.17047e-20
5.21428e-05
-2.08764e-19
4.62086e-21
5.30573e-05
-2.13028e-19
-2.5835e-21
5.39863e-05
-2.22873e-19
-5.33356e-21
5.49301e-05
-2.31732e-19
-1.28011e-20
5.58889e-05
-2.39159e-19
-2.27585e-20
5.6863e-05
-2.39063e-19
-2.58017e-20
5.78525e-05
-2.47217e-19
-3.81095e-20
5.88577e-05
-2.57655e-19
-4.92738e-20
5.98789e-05
-2.53057e-19
-4.90682e-20
6.09163e-05
-2.56971e-19
-5.28832e-20
6.19701e-05
-2.53874e-19
-6.34205e-20
6.30406e-05
-2.66144e-19
-7.07105e-20
6.41279e-05
-2.67233e-19
-8.85056e-20
6.52325e-05
-2.80324e-19
-1.03434e-19
6.63545e-05
-2.73786e-19
-1.1019e-19
6.74942e-05
-2.86212e-19
-1.25349e-19
6.86518e-05
-2.72317e-19
-1.38133e-19
6.98277e-05
-2.71937e-19
-1.41877e-19
7.1022e-05
-2.87548e-19
-1.43983e-19
7.22351e-05
-2.8484e-19
-1.4154e-19
7.34672e-05
-2.96604e-19
-1.33018e-19
7.47187e-05
-2.88259e-19
-1.3489e-19
7.59898e-05
-3.04733e-19
-1.4588e-19
7.72808e-05
-3.04998e-19
-1.5803e-19
7.8592e-05
-3.03296e-19
-1.59239e-19
7.99236e-05
-2.99046e-19
-1.63812e-19
8.12761e-05
-2.92692e-19
-1.58138e-19
8.26496e-05
-3.14629e-19
-1.63537e-19
8.40446e-05
-3.22606e-19
-1.69805e-19
8.54613e-05
-3.24529e-19
-1.61356e-19
8.69e-05
-3.25877e-19
-1.57143e-19
8.83611e-05
-3.21255e-19
-1.66746e-19
8.98449e-05
-3.14348e-19
-1.65055e-19
9.13517e-05
-3.22511e-19
-1.68428e-19
9.28819e-05
-3.22522e-19
-1.73031e-19
9.44357e-05
-3.22876e-19
-1.80556e-19
9.60136e-05
-3.34748e-19
-1.93693e-19
9.76159e-05
-3.37034e-19
-2.105e-19
9.92429e-05
-3.5427e-19
-2.16066e-19
0.000100895
-3.47971e-19
-2.1384e-19
0.000102573
-3.64534e-19
-2.12788e-19
0.000104276
-3.6692e-19
-2.23741e-19
0.000106006
-3.69991e-19
-2.20641e-19
0.000107762
-3.74996e-19
-2.21184e-19
0.000109545
-3.68374e-19
-2.23056e-19
0.000111356
-3.73426e-19
-2.28215e-19
0.000113194
-3.79551e-19
-2.37645e-19
0.000115061
-3.55926e-19
-2.34244e-19
0.000116956
-3.24456e-19
-2.28954e-19
0.00011888
-3.06889e-19
-2.27938e-19
0.000120833
-3.11324e-19
-2.10787e-19
0.000122816
-3.02743e-19
-1.74744e-19
0.00012483
-2.714e-19
-1.90212e-19
0.000126874
-2.20105e-19
-2.21699e-19
0.000128949
-2.19062e-19
-2.18833e-19
0.000131055
-2.26894e-19
-2.16888e-19
0.000133194
-2.26517e-19
-2.15661e-19
0.000135365
-2.25534e-19
-2.24995e-19
0.000137569
-2.28507e-19
-2.21011e-19
0.000139806
-2.3101e-19
-2.26223e-19
0.000142078
-2.20313e-19
-2.32379e-19
0.000144383
-2.27429e-19
-2.35196e-19
0.000146723
-2.25048e-19
-2.18013e-19
0.000149099
-2.5408e-19
-2.0573e-19
0.00015151
-3.02751e-19
-2.19087e-19
0.000153958
-2.80619e-19
-2.44862e-19
0.000156442
-2.2924e-19
-2.48811e-19
0.000158964
-2.47346e-19
-2.52904e-19
0.000161523
-2.2998e-19
-2.47915e-19
0.000164121
-2.42049e-19
-2.44013e-19
0.000166757
-2.36303e-19
-2.08235e-19
0.000169433
-2.41666e-19
-1.82978e-19
0.000172149
-1.91222e-19
-1.70751e-19
0.000174905
-1.73779e-19
-1.67295e-19
0.000177703
-1.56549e-19
-1.89184e-19
0.000180542
-1.44749e-19
-1.75625e-19
0.000183423
-1.14816e-19
-1.7366e-19
0.000186347
-7.45001e-20
-1.32859e-19
0.000189314
-8.48613e-20
-1.23434e-19
0.000192325
-1.45749e-19
-6.9848e-20
0.00019538
-1.17149e-19
-7.21266e-20
0.000198481
-1.15614e-19
-6.69973e-20
0.000201627
-1.06115e-19
-6.96691e-21
0.00020482
-8.43912e-20
7.58073e-21
0.00020806
-6.20887e-20
-2.86319e-21
0.000211347
-6.00934e-20
-2.3105e-20
0.000214682
-4.80294e-20
-3.63911e-20
0.000218066
-3.92689e-20
-3.79579e-20
0.0002215
2.10792e-20
-4.07246e-20
0.000224983
5.09937e-20
-5.34259e-20
0.000228518
5.63908e-21
6.42873e-21
0.000232104
-4.62228e-20
-2.19258e-20
0.000235742
-6.67401e-20
-3.57251e-20
0.000239433
-1.08494e-19
-6.51431e-20
0.000243177
-1.51463e-19
-1.40986e-20
0.000246976