/*--------------------------------*- C++ -*----------------------------------*\
| =========                 |                                                 |
| \\      /  F ield         | OpenFOAM: The Open Source CFD Toolbox           |
|  \\    /   O peration     | Version:  2012                                  |
|   \\  /    A nd           | Website:  www.openfoam.com                      |
|    \\/     M anipulation  |                                                 |
\*---------------------------------------------------------------------------*/
FoamFile
{
    version     2.0;
    format      ascii;
    class       volScalarField;
    location    "15900";
    object      nut;
}
// * * * * * * * * * * * * * * * * * * * * * * * * * * * * * * * * * * * * * //

dimensions      [0 2 -1 0 0 0 0];


internalField   nonuniform List<scalar> 
2560
(
6.5145e-09
6.5145e-09
9.12978e-07
9.12978e-07
1.88253e-05
1.88253e-05
0.000119972
0.000119972
0.000356783
0.000356783
0.000701895
0.000701895
0.00111669
0.00111669
0.00157754
0.00157754
0.00207074
0.00207074
0.00258775
0.00258775
0.0031228
0.0031228
0.00367177
0.00367177
0.00423156
0.00423156
0.00479974
0.00479974
0.00537437
0.00537437
0.00595383
0.00595383
0.00653676
0.00653676
0.007122
0.007122
0.00770851
0.00770851
0.00829539
0.00829539
0.00888182
0.00888182
0.00946706
0.00946706
0.0100504
0.0100504
0.0106313
0.0106313
0.011209
0.011209
0.011783
0.011783
0.0123528
0.0123528
0.0129178
0.0129178
0.0134775
0.0134775
0.0140315
0.0140315
0.0145792
0.0145792
0.0151202
0.0151202
0.0156541
0.0156541
0.0161804
0.0161804
0.0166987
0.0166987
0.0172086
0.0172086
0.0177097
0.0177097
0.0182016
0.0182016
0.018684
0.018684
0.0191567
0.0191567
0.0196192
0.0196192
0.0200714
0.0200714
0.0205131
0.0205131
0.0209441
0.0209441
0.0213644
0.0213644
0.0217739
0.0217739
0.0221726
0.0221726
0.0225607
0.0225607
0.0229385
0.0229385
0.0233062
0.0233062
0.0236642
0.0236642
0.0240132
0.0240132
0.0243539
0.0243539
0.0246869
0.0246869
0.0250135
0.0250135
0.0253347
0.0253347
0.0256519
0.0256519
0.0259666
0.0259666
0.0262805
0.0262805
0.0265956
0.0265956
0.026914
0.026914
0.0272379
0.0272379
0.0275699
0.0275699
0.0279125
0.0279125
0.0282684
0.0282684
0.0286406
0.0286406
0.0290317
0.0290317
0.0294447
0.0294447
0.0298821
0.0298821
0.0303466
0.0303466
0.0308404
0.0308404
0.0313655
0.0313655
0.0319234
0.0319234
0.0325153
0.0325153
0.0331419
0.0331419
0.0338031
0.0338031
0.0344984
0.0344984
0.0352269
0.0352269
0.035987
0.035987
0.0367767
0.0367767
0.0375935
0.0375935
0.0384345
0.0384345
0.0392968
0.0392968
0.0401769
0.0401769
0.0410714
0.0410714
0.0419768
0.0419768
0.0428896
0.0428896
0.0438063
0.0438063
0.0447237
0.0447237
0.0456384
0.0456384
0.0465477
0.0465477
0.0474486
0.0474486
0.0483387
0.0483387
0.0492155
0.0492155
0.0500772
0.0500772
0.0509218
0.0509218
0.0517478
0.0517478
0.0525538
0.0525538
0.0533388
0.0533388
0.0541017
0.0541017
0.0548418
0.0548418
0.0555587
0.0555587
0.0562518
0.0562518
0.0569211
0.0569211
0.0575662
0.0575662
0.0581874
0.0581874
0.0587846
0.0587846
0.0593582
0.0593582
0.0599083
0.0599083
0.0604353
0.0604353
0.0609397
0.0609397
0.0614218
0.0614218
0.0618823
0.0618823
0.0623215
0.0623215
0.06274
0.06274
0.0631384
0.0631384
0.0635173
0.0635173
0.0638771
0.0638771
0.0642185
0.0642185
0.064542
0.064542
0.0648481
0.0648481
0.0651374
0.0651374
0.0654105
0.0654105
0.0656677
0.0656677
0.0659096
0.0659096
0.0661366
0.0661366
0.0663493
0.0663493
0.0665479
0.0665479
0.066733
0.066733
0.0669048
0.0669048
0.0670639
0.0670639
0.0672104
0.0672104
0.0673448
0.0673448
0.0674674
0.0674674
0.0675784
0.0675784
0.0676782
0.0676782
0.067767
0.067767
0.0678452
0.0678452
0.0679129
0.0679129
0.0679704
0.0679704
0.068018
0.068018
0.0680558
0.0680558
0.0680841
0.0680841
0.0681031
0.0681031
0.0681131
0.0681131
0.0681141
0.0681141
0.0681065
0.0681065
0.0680905
0.0680905
0.0680663
0.0680663
0.068034
0.068034
0.067994
0.067994
0.0679465
0.0679465
0.0678918
0.0678918
0.06783
0.06783
0.0677615
0.0677615
0.0676867
0.0676867
0.0676057
0.0676057
0.0675189
0.0675189
0.0674267
0.0674267
0.0673294
0.0673294
0.0672273
0.0672273
0.0671208
0.0671208
0.0670101
0.0670101
0.0668957
0.0668957
0.0667778
0.0667778
0.0666567
0.0666567
0.0665325
0.0665325
0.0664056
0.0664056
0.066276
0.066276
0.066144
0.066144
0.0660096
0.0660096
0.0658731
0.0658731
0.0657346
0.0657346
0.0655942
0.0655942
0.0654522
0.0654522
0.0653089
0.0653089
0.0651646
0.0651646
0.0650195
0.0650195
0.064874
0.064874
0.0647285
0.0647285
0.0645834
0.0645834
0.0644392
0.0644392
0.0642962
0.0642962
0.0641549
0.0641549
0.0640157
0.0640157
0.0638791
0.0638791
0.0637455
0.0637455
0.0636154
0.0636154
0.0634892
0.0634892
0.0633674
0.0633674
0.0632506
0.0632506
0.0631393
0.0631393
0.0630343
0.0630343
0.0629362
0.0629362
0.0628459
0.0628459
0.0627641
0.0627641
0.0626919
0.0626919
0.0626301
0.0626301
0.0625798
0.0625798
0.062542
0.062542
0.0625178
0.0625178
0.0625082
0.0625082
0.0625143
0.0625143
0.0625371
0.0625371
0.0625774
0.0625774
0.062636
0.062636
0.0627136
0.0627136
0.0628109
0.0628109
0.0629282
0.0629282
0.0630662
0.0630662
0.0632252
0.0632252
0.0634056
0.0634056
0.0636079
0.0636079
0.0638321
0.0638321
0.0640784
0.0640784
0.0643465
0.0643465
0.064636
0.064636
0.0649463
0.0649463
0.0652764
0.0652764
0.0656251
0.0656251
0.0659909
0.0659909
0.0663723
0.0663723
0.0667675
0.0667675
0.0671752
0.0671752
0.0675943
0.0675943
0.0680239
0.0680239
0.0684632
0.0684633
0.0689116
0.0689116
0.069368
0.069368
0.0698309
0.0698309
0.0702986
0.0702986
0.070769
0.0707691
0.0712402
0.0712402
0.0717104
0.0717104
0.072178
0.072178
0.0726419
0.0726419
0.0731011
0.0731011
0.0735552
0.0735552
0.0740042
0.0740042
0.0744489
0.0744489
0.0748904
0.0748904
0.0753296
0.0753296
0.0757672
0.0757673
0.0762029
0.0762029
0.0766353
0.0766353
0.0770616
0.0770617
0.0774783
0.0774784
0.0778805
0.0778805
0.0782624
0.0782625
0.0786188
0.0786188
0.078946
0.078946
0.079243
0.0792431
0.0795119
0.079512
0.0797571
0.0797572
0.0799852
0.0799853
0.0802041
0.0802042
0.0804212
0.0804212
0.08064
0.08064
0.0808608
0.0808608
0.0810816
0.0810816
0.0813033
0.0813032
0.0815294
0.0815293
0.081766
0.081766
0.0820209
0.0820208
0.082302
0.082302
0.082617
0.082617
0.0829721
0.0829721
0.0833719
0.0833719
0.0838201
0.0838201
0.0843192
0.0843192
0.0848708
0.0848708
0.0854752
0.0854752
0.0861309
0.0861309
0.0868341
0.0868341
0.0875785
0.0875785
0.0883554
0.0883554
0.0891542
0.0891542
0.089962
0.0899621
0.0907645
0.0907645
0.0915474
0.0915474
0.0922986
0.0922986
0.093007
0.093007
0.0936601
0.0936601
0.0942427
0.0942427
0.0947408
0.0947408
0.0951463
0.0951463
0.0954605
0.0954605
0.0956932
0.0956932
0.0958605
0.0958605
0.0959867
0.0959867
0.0961031
0.0961031
0.0962404
0.0962404
0.0964188
0.0964188
0.0966469
0.0966469
0.0969274
0.0969274
0.0972626
0.0972626
0.0976549
0.0976549
0.0981066
0.0981066
0.0986194
0.0986194
0.0991927
0.0991927
0.0998213
0.0998213
0.100493
0.100493
0.101192
0.101192
0.101898
0.101898
0.10259
0.10259
0.103235
0.103235
0.103793
0.103793
0.104226
0.104226
0.104513
0.104513
0.10466
0.10466
0.104691
0.104691
0.104634
0.104634
0.104513
0.104513
0.104346
0.104346
0.104158
0.104158
0.103975
0.103975
0.103814
0.103814
0.103681
0.103681
0.10358
0.10358
0.103523
0.103523
6.5145e-09
6.5145e-09
9.12978e-07
9.12978e-07
1.88253e-05
1.88253e-05
0.000119972
0.000119972
0.000356783
0.000356783
0.000701895
0.000701895
0.00111669
0.00111669
0.00157754
0.00157754
0.00207074
0.00207074
0.00258775
0.00258775
0.0031228
0.0031228
0.00367177
0.00367177
0.00423156
0.00423156
0.00479974
0.00479974
0.00537437
0.00537437
0.00595383
0.00595383
0.00653676
0.00653676
0.007122
0.007122
0.00770851
0.00770851
0.00829539
0.00829539
0.00888182
0.00888182
0.00946706
0.00946706
0.0100504
0.0100504
0.0106313
0.0106313
0.011209
0.011209
0.011783
0.011783
0.0123528
0.0123528
0.0129178
0.0129178
0.0134775
0.0134775
0.0140315
0.0140315
0.0145792
0.0145792
0.0151202
0.0151202
0.0156541
0.0156541
0.0161804
0.0161804
0.0166987
0.0166987
0.0172086
0.0172086
0.0177097
0.0177097
0.0182016
0.0182016
0.018684
0.018684
0.0191567
0.0191567
0.0196192
0.0196192
0.0200714
0.0200714
0.0205131
0.0205131
0.0209441
0.0209441
0.0213644
0.0213644
0.0217739
0.0217739
0.0221726
0.0221726
0.0225607
0.0225607
0.0229385
0.0229385
0.0233062
0.0233062
0.0236642
0.0236642
0.0240132
0.0240132
0.0243539
0.0243539
0.0246869
0.0246869
0.0250135
0.0250135
0.0253347
0.0253347
0.0256519
0.0256519
0.0259666
0.0259666
0.0262805
0.0262805
0.0265956
0.0265956
0.026914
0.026914
0.0272379
0.0272379
0.0275699
0.0275699
0.0279125
0.0279125
0.0282684
0.0282684
0.0286406
0.0286406
0.0290317
0.0290317
0.0294447
0.0294447
0.0298821
0.0298821
0.0303466
0.0303466
0.0308404
0.0308404
0.0313655
0.0313655
0.0319234
0.0319234
0.0325153
0.0325153
0.0331419
0.0331419
0.0338031
0.0338031
0.0344984
0.0344984
0.0352269
0.0352269
0.035987
0.035987
0.0367767
0.0367767
0.0375935
0.0375935
0.0384345
0.0384345
0.0392968
0.0392968
0.0401769
0.0401769
0.0410714
0.0410714
0.0419768
0.0419768
0.0428896
0.0428896
0.0438063
0.0438063
0.0447237
0.0447237
0.0456384
0.0456384
0.0465477
0.0465477
0.0474486
0.0474486
0.0483387
0.0483387
0.0492155
0.0492155
0.0500772
0.0500772
0.0509218
0.0509218
0.0517478
0.0517478
0.0525538
0.0525538
0.0533388
0.0533388
0.0541017
0.0541017
0.0548418
0.0548418
0.0555587
0.0555587
0.0562518
0.0562518
0.0569211
0.0569211
0.0575662
0.0575662
0.0581874
0.0581874
0.0587846
0.0587846
0.0593582
0.0593582
0.0599083
0.0599083
0.0604353
0.0604353
0.0609397
0.0609397
0.0614218
0.0614218
0.0618823
0.0618823
0.0623215
0.0623215
0.06274
0.06274
0.0631384
0.0631384
0.0635173
0.0635173
0.0638771
0.0638771
0.0642185
0.0642185
0.064542
0.064542
0.0648481
0.0648481
0.0651374
0.0651374
0.0654105
0.0654105
0.0656677
0.0656677
0.0659096
0.0659096
0.0661366
0.0661366
0.0663493
0.0663493
0.0665479
0.0665479
0.066733
0.066733
0.0669048
0.0669048
0.0670639
0.0670639
0.0672104
0.0672104
0.0673448
0.0673448
0.0674674
0.0674674
0.0675784
0.0675784
0.0676782
0.0676782
0.067767
0.067767
0.0678452
0.0678452
0.0679129
0.0679129
0.0679704
0.0679704
0.068018
0.068018
0.0680558
0.0680558
0.0680841
0.0680841
0.0681031
0.0681031
0.0681131
0.0681131
0.0681141
0.0681141
0.0681065
0.0681065
0.0680905
0.0680905
0.0680663
0.0680663
0.068034
0.068034
0.067994
0.067994
0.0679465
0.0679465
0.0678918
0.0678918
0.06783
0.06783
0.0677615
0.0677615
0.0676867
0.0676867
0.0676057
0.0676057
0.0675189
0.0675189
0.0674267
0.0674267
0.0673294
0.0673294
0.0672273
0.0672273
0.0671208
0.0671208
0.0670101
0.0670101
0.0668957
0.0668957
0.0667778
0.0667778
0.0666567
0.0666567
0.0665325
0.0665325
0.0664056
0.0664056
0.066276
0.066276
0.066144
0.066144
0.0660096
0.0660096
0.0658731
0.0658731
0.0657346
0.0657346
0.0655942
0.0655942
0.0654522
0.0654522
0.0653089
0.0653089
0.0651646
0.0651646
0.0650195
0.0650195
0.064874
0.064874
0.0647285
0.0647285
0.0645834
0.0645834
0.0644392
0.0644392
0.0642962
0.0642962
0.0641549
0.0641549
0.0640157
0.0640157
0.0638791
0.0638791
0.0637455
0.0637455
0.0636154
0.0636154
0.0634892
0.0634892
0.0633674
0.0633674
0.0632506
0.0632506
0.0631393
0.0631393
0.0630343
0.0630343
0.0629362
0.0629362
0.0628459
0.0628459
0.0627641
0.0627641
0.0626919
0.0626919
0.0626301
0.0626301
0.0625798
0.0625798
0.062542
0.062542
0.0625178
0.0625178
0.0625082
0.0625082
0.0625143
0.0625143
0.0625371
0.0625371
0.0625774
0.0625774
0.062636
0.062636
0.0627136
0.0627136
0.0628109
0.0628109
0.0629282
0.0629282
0.0630662
0.0630662
0.0632252
0.0632252
0.0634057
0.0634057
0.0636079
0.0636079
0.0638322
0.0638322
0.0640784
0.0640784
0.0643465
0.0643465
0.064636
0.064636
0.0649463
0.0649463
0.0652764
0.0652764
0.0656252
0.0656251
0.065991
0.065991
0.0663723
0.0663723
0.0667675
0.0667675
0.0671753
0.0671753
0.0675944
0.0675944
0.068024
0.068024
0.0684633
0.0684633
0.0689117
0.0689117
0.069368
0.069368
0.069831
0.069831
0.0702987
0.0702987
0.0707691
0.0707691
0.0712403
0.0712403
0.0717104
0.0717104
0.0721781
0.0721781
0.072642
0.0726419
0.0731012
0.0731012
0.0735553
0.0735552
0.0740043
0.0740043
0.074449
0.074449
0.0748904
0.0748904
0.0753297
0.0753297
0.0757673
0.0757673
0.076203
0.076203
0.0766353
0.0766353
0.0770617
0.0770617
0.0774784
0.0774784
0.0778806
0.0778805
0.0782625
0.0782624
0.0786189
0.0786188
0.0789461
0.078946
0.0792431
0.079243
0.079512
0.0795119
0.0797573
0.0797572
0.0799853
0.0799852
0.0802042
0.0802041
0.0804212
0.0804212
0.08064
0.0806401
0.0808608
0.0808608
0.0810816
0.0810816
0.0813032
0.0813033
0.0815293
0.0815294
0.081766
0.081766
0.0820208
0.0820209
0.082302
0.082302
0.082617
0.082617
0.0829721
0.0829721
0.0833719
0.0833719
0.0838201
0.0838201
0.0843192
0.0843192
0.0848708
0.0848708
0.0854752
0.0854752
0.086131
0.0861309
0.0868342
0.0868341
0.0875785
0.0875785
0.0883554
0.0883554
0.0891542
0.0891542
0.0899621
0.0899621
0.0907645
0.0907645
0.0915474
0.0915474
0.0922986
0.0922986
0.093007
0.093007
0.0936601
0.09366
0.0942427
0.0942427
0.0947408
0.0947408
0.0951462
0.0951462
0.0954604
0.0954604
0.0956931
0.0956931
0.0958605
0.0958605
0.0959866
0.0959866
0.0961031
0.0961031
0.0962404
0.0962404
0.0964187
0.0964187
0.0966469
0.0966469
0.0969274
0.0969274
0.0972626
0.0972626
0.0976549
0.0976549
0.0981066
0.0981066
0.0986195
0.0986194
0.0991928
0.0991927
0.0998214
0.0998213
0.100493
0.100493
0.101192
0.101192
0.101898
0.101898
0.10259
0.10259
0.103235
0.103235
0.103793
0.103793
0.104226
0.104226
0.104513
0.104513
0.10466
0.10466
0.104691
0.104691
0.104634
0.104634
0.104513
0.104513
0.104346
0.104346
0.104158
0.104158
0.103975
0.103975
0.103814
0.103814
0.103681
0.103681
0.10358
0.10358
0.103523
0.103523
0.103522
0.103522
0.103578
0.103579
0.103678
0.103678
0.103809
0.103809
0.103969
0.103969
0.104149
0.104149
0.104334
0.104335
0.104499
0.104499
0.104617
0.104617
0.104666
0.104666
0.104629
0.104629
0.104477
0.104477
0.104186
0.104186
0.103751
0.103751
0.103196
0.103196
0.102555
0.102555
0.101868
0.101868
0.101165
0.101165
0.10047
0.10047
0.0998005
0.0998006
0.0991753
0.0991753
0.0986055
0.0986055
0.0980962
0.0980963
0.0976478
0.0976479
0.0972587
0.0972587
0.0969267
0.0969267
0.0966491
0.0966491
0.0964237
0.0964237
0.0962481
0.0962481
0.0961133
0.0961133
0.0959996
0.0959996
0.0958759
0.0958759
0.0957096
0.0957096
0.0954764
0.0954764
0.09516
0.09516
0.0947509
0.0947509
0.0942492
0.0942492
0.0936639
0.0936639
0.0930091
0.0930091
0.0922994
0.0922995
0.0915472
0.0915472
0.0907632
0.0907632
0.0899597
0.0899597
0.0891506
0.0891507
0.0883506
0.0883506
0.0875725
0.0875725
0.0868271
0.0868271
0.086123
0.0861231
0.0854668
0.0854668
0.084862
0.084862
0.0843102
0.0843102
0.0838111
0.0838111
0.0833629
0.0833629
0.0829629
0.0829629
0.082608
0.082608
0.0822932
0.0822932
0.0820122
0.0820122
0.0817575
0.0817575
0.0815211
0.081521
0.0812955
0.0812954
0.0810745
0.0810745
0.0808541
0.0808541
0.0806334
0.0806334
0.0804143
0.0804143
0.0801968
0.0801968
0.0799772
0.0799773
0.0797488
0.0797489
0.0795035
0.0795036
0.0792346
0.0792346
0.0789371
0.0789372
0.0786092
0.0786093
0.0782524
0.0782524
0.0778705
0.0778706
0.0774688
0.0774688
0.0770529
0.0770529
0.0766278
0.0766278
0.0761969
0.0761969
0.0757624
0.0757624
0.0753256
0.0753256
0.0748866
0.0748866
0.074445
0.0744451
0.0740001
0.0740001
0.0735507
0.0735508
0.0730965
0.0730965
0.0726371
0.0726371
0.072173
0.072173
0.0717054
0.0717054
0.0712354
0.0712354
0.0707644
0.0707644
0.0702941
0.0702941
0.0698268
0.0698268
0.0693644
0.0693644
0.0689087
0.0689087
0.0684611
0.0684611
0.0680226
0.0680226
0.0675936
0.0675936
0.067175
0.067175
0.0667676
0.0667676
0.0663726
0.0663726
0.0659914
0.0659914
0.0656258
0.0656258
0.0652774
0.0652774
0.0649475
0.0649475
0.0646373
0.0646373
0.0643477
0.0643477
0.0640795
0.0640795
0.0638331
0.0638331
0.0636087
0.0636087
0.0634062
0.0634062
0.0632256
0.0632256
0.0630665
0.0630665
0.0629286
0.0629286
0.0628112
0.0628112
0.0627141
0.0627141
0.0626365
0.0626365
0.062578
0.062578
0.0625378
0.0625378
0.0625152
0.0625152
0.0625091
0.0625091
0.0625188
0.0625188
0.0625431
0.0625431
0.0625809
0.0625809
0.0626312
0.0626312
0.062693
0.062693
0.0627653
0.0627653
0.0628471
0.0628471
0.0629375
0.0629375
0.0630355
0.0630355
0.0631406
0.0631406
0.0632519
0.0632519
0.0633688
0.0633688
0.0634906
0.0634906
0.0636168
0.0636168
0.0637469
0.0637469
0.0638805
0.0638805
0.0640171
0.0640171
0.0641562
0.0641562
0.0642975
0.0642975
0.0644405
0.0644405
0.0645848
0.0645848
0.0647299
0.0647299
0.0648754
0.0648754
0.0650209
0.0650209
0.065166
0.065166
0.0653104
0.0653104
0.0654538
0.0654538
0.0655957
0.0655957
0.0657361
0.0657361
0.0658747
0.0658747
0.0660112
0.0660112
0.0661456
0.0661456
0.0662777
0.0662777
0.0664073
0.0664073
0.0665344
0.0665344
0.0666585
0.0666585
0.0667797
0.0667797
0.0668977
0.0668977
0.0670121
0.0670121
0.0671227
0.0671227
0.0672293
0.0672293
0.0673314
0.0673314
0.0674287
0.0674287
0.067521
0.067521
0.0676078
0.0676078
0.0676888
0.0676888
0.0677637
0.0677637
0.0678322
0.0678322
0.067894
0.067894
0.0679488
0.0679488
0.0679963
0.0679963
0.0680364
0.0680364
0.0680687
0.0680687
0.068093
0.068093
0.068109
0.068109
0.0681167
0.0681167
0.0681157
0.0681157
0.0681058
0.0681058
0.0680868
0.0680868
0.0680586
0.0680586
0.0680209
0.0680209
0.0679734
0.0679734
0.067916
0.067916
0.0678484
0.0678484
0.0677703
0.0677703
0.0676815
0.0676815
0.0675818
0.0675818
0.0674708
0.0674708
0.0673483
0.0673483
0.0672139
0.0672139
0.0670674
0.0670674
0.0669084
0.0669084
0.0667366
0.0667366
0.0665517
0.0665517
0.066353
0.066353
0.0661404
0.0661404
0.0659134
0.0659134
0.0656715
0.0656715
0.0654142
0.0654142
0.0651412
0.0651412
0.0648518
0.0648518
0.0645456
0.0645456
0.0642221
0.0642221
0.0638806
0.0638806
0.0635207
0.0635207
0.0631417
0.0631417
0.0627431
0.0627431
0.0623245
0.0623245
0.0618852
0.0618852
0.0614248
0.0614248
0.0609426
0.0609426
0.0604382
0.0604382
0.0599112
0.0599112
0.0593611
0.0593611
0.0587876
0.0587876
0.0581904
0.0581904
0.0575692
0.0575692
0.056924
0.056924
0.0562547
0.0562547
0.0555616
0.0555616
0.0548447
0.0548447
0.0541046
0.0541046
0.0533417
0.0533417
0.0525569
0.0525569
0.051751
0.051751
0.050925
0.050925
0.0500804
0.0500804
0.0492187
0.0492187
0.0483417
0.0483417
0.0474514
0.0474514
0.0465501
0.0465501
0.0456405
0.0456405
0.0447254
0.0447254
0.0438078
0.0438078
0.0428909
0.0428909
0.0419779
0.0419779
0.0410723
0.0410723
0.0401775
0.0401775
0.0392971
0.0392971
0.0384346
0.0384346
0.0375932
0.0375932
0.0367761
0.0367761
0.0359861
0.0359861
0.0352257
0.0352257
0.0344969
0.0344969
0.0338012
0.0338012
0.0331398
0.0331398
0.0325129
0.0325129
0.0319208
0.0319208
0.0313626
0.0313626
0.0308372
0.0308372
0.0303432
0.0303432
0.0298784
0.0298784
0.0294408
0.0294408
0.0290277
0.0290277
0.0286364
0.0286364
0.0282641
0.0282641
0.0279081
0.0279081
0.0275654
0.0275654
0.0272333
0.0272333
0.0269093
0.0269093
0.0265908
0.0265908
0.0262757
0.0262757
0.0259617
0.0259617
0.0256471
0.0256471
0.02533
0.02533
0.0250088
0.0250088
0.0246824
0.0246824
0.0243495
0.0243495
0.024009
0.024009
0.0236602
0.0236602
0.0233022
0.0233022
0.0229346
0.0229346
0.0225571
0.0225571
0.0221691
0.0221691
0.0217705
0.0217705
0.0213612
0.0213612
0.0209411
0.0209411
0.0205103
0.0205103
0.0200688
0.0200688
0.0196167
0.0196167
0.0191543
0.0191543
0.0186818
0.0186818
0.0181995
0.0181995
0.0177077
0.0177077
0.0172068
0.0172068
0.016697
0.016697
0.0161788
0.0161788
0.0156526
0.0156526
0.0151188
0.0151188
0.0145779
0.0145779
0.0140302
0.0140302
0.0134763
0.0134763
0.0129167
0.0129167
0.0123518
0.0123518
0.0117821
0.0117821
0.0112082
0.0112082
0.0106305
0.0106305
0.0100498
0.0100498
0.00946649
0.00946649
0.00888132
0.00888132
0.00829494
0.00829494
0.00770811
0.00770811
0.00712165
0.00712165
0.00653647
0.00653647
0.00595358
0.00595358
0.00537416
0.00537416
0.00479957
0.00479957
0.00423142
0.00423142
0.00367166
0.00367166
0.00312271
0.00312271
0.00258768
0.00258768
0.0020707
0.0020707
0.00157752
0.00157752
0.00111668
0.00111668
0.000701888
0.000701888
0.000356781
0.000356781
0.000119971
0.000119971
1.88252e-05
1.88252e-05
9.12971e-07
9.12971e-07
6.51458e-09
6.51458e-09
0.103522
0.103522
0.103579
0.103578
0.103678
0.103678
0.103809
0.103809
0.103969
0.103969
0.104149
0.104149
0.104335
0.104334
0.104499
0.104499
0.104617
0.104617
0.104666
0.104666
0.104629
0.104629
0.104477
0.104477
0.104186
0.104186
0.103751
0.103751
0.103196
0.103196
0.102555
0.102555
0.101868
0.101868
0.101165
0.101165
0.10047
0.10047
0.0998006
0.0998005
0.0991753
0.0991753
0.0986055
0.0986055
0.0980963
0.0980962
0.0976479
0.0976478
0.0972588
0.0972587
0.0969267
0.0969267
0.0966491
0.0966491
0.0964238
0.0964238
0.0962481
0.0962481
0.0961133
0.0961133
0.0959997
0.0959997
0.0958759
0.0958759
0.0957097
0.0957097
0.0954764
0.0954764
0.09516
0.09516
0.0947509
0.0947509
0.0942492
0.0942492
0.093664
0.093664
0.0930091
0.0930091
0.0922995
0.0922995
0.0915472
0.0915472
0.0907632
0.0907632
0.0899598
0.0899597
0.0891507
0.0891507
0.0883506
0.0883506
0.0875726
0.0875725
0.0868271
0.0868271
0.0861231
0.0861231
0.0854668
0.0854668
0.084862
0.084862
0.0843103
0.0843102
0.0838111
0.0838111
0.0833629
0.0833629
0.082963
0.082963
0.082608
0.082608
0.0822932
0.0822932
0.0820123
0.0820123
0.0817575
0.0817576
0.0815211
0.0815211
0.0812955
0.0812956
0.0810745
0.0810746
0.0808541
0.0808542
0.0806335
0.0806335
0.0804144
0.0804144
0.0801969
0.0801969
0.0799774
0.0799773
0.079749
0.0797489
0.0795037
0.0795036
0.0792347
0.0792346
0.0789372
0.0789372
0.0786093
0.0786093
0.0782525
0.0782525
0.0778706
0.0778706
0.0774689
0.0774688
0.077053
0.077053
0.0766279
0.0766278
0.0761969
0.0761969
0.0757625
0.0757624
0.0753256
0.0753256
0.0748866
0.0748866
0.0744451
0.0744451
0.0740001
0.0740001
0.0735508
0.0735507
0.0730965
0.0730964
0.0726371
0.0726371
0.072173
0.072173
0.0717053
0.0717053
0.0712354
0.0712354
0.0707643
0.0707643
0.0702941
0.0702941
0.0698268
0.0698268
0.0693643
0.0693643
0.0689086
0.0689086
0.068461
0.068461
0.0680225
0.0680225
0.0675936
0.0675936
0.0671749
0.0671749
0.0667675
0.0667675
0.0663725
0.0663725
0.0659914
0.0659914
0.0656258
0.0656258
0.0652773
0.0652773
0.0649474
0.0649474
0.0646372
0.0646372
0.0643477
0.0643477
0.0640794
0.0640794
0.063833
0.063833
0.0636086
0.0636086
0.0634062
0.0634062
0.0632255
0.0632255
0.0630665
0.0630665
0.0629285
0.0629285
0.0628112
0.0628112
0.062714
0.062714
0.0626365
0.0626365
0.0625779
0.0625779
0.0625377
0.0625377
0.0625151
0.0625151
0.0625091
0.0625091
0.0625187
0.0625187
0.062543
0.062543
0.0625808
0.0625808
0.0626312
0.0626312
0.062693
0.062693
0.0627653
0.0627653
0.0628471
0.0628471
0.0629374
0.0629374
0.0630355
0.0630355
0.0631406
0.0631406
0.0632519
0.0632519
0.0633687
0.0633687
0.0634906
0.0634906
0.0636168
0.0636168
0.0637469
0.0637469
0.0638805
0.0638805
0.064017
0.064017
0.0641562
0.0641562
0.0642975
0.0642975
0.0644405
0.0644405
0.0645848
0.0645848
0.0647299
0.0647299
0.0648754
0.0648754
0.0650209
0.0650209
0.065166
0.065166
0.0653104
0.0653104
0.0654538
0.0654538
0.0655957
0.0655957
0.0657361
0.0657361
0.0658746
0.0658746
0.0660112
0.0660112
0.0661456
0.0661456
0.0662777
0.0662777
0.0664073
0.0664073
0.0665343
0.0665343
0.0666585
0.0666585
0.0667797
0.0667797
0.0668976
0.0668976
0.0670121
0.0670121
0.0671227
0.0671227
0.0672293
0.0672293
0.0673314
0.0673314
0.0674287
0.0674287
0.067521
0.067521
0.0676078
0.0676078
0.0676888
0.0676888
0.0677637
0.0677637
0.0678322
0.0678322
0.067894
0.067894
0.0679488
0.0679488
0.0679963
0.0679963
0.0680364
0.0680364
0.0680687
0.0680687
0.0680929
0.0680929
0.068109
0.068109
0.0681167
0.0681167
0.0681157
0.0681157
0.0681058
0.0681058
0.0680868
0.0680868
0.0680586
0.0680586
0.0680209
0.0680209
0.0679734
0.0679734
0.067916
0.067916
0.0678484
0.0678484
0.0677703
0.0677703
0.0676815
0.0676815
0.0675818
0.0675818
0.0674708
0.0674708
0.0673483
0.0673483
0.0672139
0.0672139
0.0670674
0.0670674
0.0669084
0.0669084
0.0667366
0.0667366
0.0665516
0.0665516
0.066353
0.066353
0.0661404
0.0661404
0.0659134
0.0659134
0.0656715
0.0656715
0.0654142
0.0654142
0.0651412
0.0651412
0.0648518
0.0648518
0.0645456
0.0645456
0.0642221
0.0642221
0.0638806
0.0638806
0.0635207
0.0635207
0.0631417
0.0631417
0.0627431
0.0627431
0.0623245
0.0623245
0.0618852
0.0618852
0.0614247
0.0614247
0.0609426
0.0609426
0.0604382
0.0604382
0.0599112
0.0599112
0.0593611
0.0593611
0.0587876
0.0587876
0.0581904
0.0581904
0.0575692
0.0575692
0.056924
0.056924
0.0562547
0.0562547
0.0555616
0.0555616
0.0548447
0.0548447
0.0541046
0.0541046
0.0533417
0.0533417
0.0525569
0.0525569
0.051751
0.051751
0.050925
0.050925
0.0500804
0.0500804
0.0492187
0.0492187
0.0483417
0.0483417
0.0474514
0.0474514
0.0465501
0.0465501
0.0456405
0.0456405
0.0447254
0.0447254
0.0438078
0.0438078
0.0428909
0.0428909
0.0419779
0.0419779
0.0410722
0.0410722
0.0401775
0.0401775
0.0392971
0.0392971
0.0384345
0.0384345
0.0375932
0.0375932
0.0367761
0.0367761
0.0359861
0.0359861
0.0352257
0.0352257
0.0344969
0.0344969
0.0338012
0.0338012
0.0331398
0.0331398
0.0325129
0.0325129
0.0319208
0.0319208
0.0313626
0.0313626
0.0308372
0.0308372
0.0303431
0.0303431
0.0298784
0.0298784
0.0294408
0.0294408
0.0290277
0.0290277
0.0286364
0.0286364
0.0282641
0.0282641
0.0279081
0.0279081
0.0275654
0.0275654
0.0272333
0.0272333
0.0269093
0.0269093
0.0265908
0.0265908
0.0262757
0.0262757
0.0259617
0.0259617
0.0256471
0.0256471
0.02533
0.02533
0.0250088
0.0250088
0.0246824
0.0246824
0.0243495
0.0243495
0.024009
0.024009
0.0236602
0.0236602
0.0233022
0.0233022
0.0229346
0.0229346
0.0225571
0.0225571
0.0221691
0.0221691
0.0217705
0.0217705
0.0213612
0.0213612
0.0209411
0.0209411
0.0205103
0.0205103
0.0200688
0.0200688
0.0196167
0.0196167
0.0191543
0.0191543
0.0186818
0.0186818
0.0181995
0.0181995
0.0177077
0.0177077
0.0172068
0.0172068
0.016697
0.016697
0.0161788
0.0161788
0.0156526
0.0156526
0.0151188
0.0151188
0.0145779
0.0145779
0.0140302
0.0140302
0.0134763
0.0134763
0.0129167
0.0129167
0.0123518
0.0123518
0.0117821
0.0117821
0.0112082
0.0112082
0.0106306
0.0106306
0.0100498
0.0100498
0.00946649
0.00946649
0.00888132
0.00888132
0.00829494
0.00829494
0.00770811
0.00770811
0.00712165
0.00712165
0.00653647
0.00653647
0.00595358
0.00595358
0.00537416
0.00537416
0.00479957
0.00479957
0.00423142
0.00423142
0.00367166
0.00367166
0.00312271
0.00312271
0.00258768
0.00258768
0.0020707
0.0020707
0.00157752
0.00157752
0.00111668
0.00111668
0.000701888
0.000701888
0.000356781
0.000356781
0.000119971
0.000119971
1.88252e-05
1.88252e-05
9.1297e-07
9.1297e-07
6.51458e-09
6.51458e-09
)
;

boundaryField
{
    walls
    {
        type            nutUWallFunction;
        blending        stepwise;
        Cmu             0.09;
        kappa           0.41;
        E               9.8;
        value           uniform 0;
    }
    inlet
    {
        type            cyclic;
    }
    outlet
    {
        type            cyclic;
    }
    sides
    {
        type            empty;
    }
}


// ************************************************************************* //
