/*--------------------------------*- C++ -*----------------------------------*\
| =========                 |                                                 |
| \\      /  F ield         | OpenFOAM: The Open Source CFD Toolbox           |
|  \\    /   O peration     | Version:  2012                                  |
|   \\  /    A nd           | Website:  www.openfoam.com                      |
|    \\/     M anipulation  |                                                 |
\*---------------------------------------------------------------------------*/
FoamFile
{
    version     2.0;
    format      ascii;
    class       volScalarField;
    location    "15900";
    object      p;
}
// * * * * * * * * * * * * * * * * * * * * * * * * * * * * * * * * * * * * * //

dimensions      [0 2 -2 0 0 0 0];


internalField   nonuniform List<scalar> 
2560
(
1.25475e-09
0.000113522
-3.92822e-08
0.000113467
-2.3618e-07
0.000113259
-8.20437e-07
0.000112671
-2.19769e-06
0.000111295
-4.9112e-06
0.00010858
-9.60882e-06
0.000103882
-1.70834e-05
9.64048e-05
-2.82773e-05
8.52088e-05
-4.42627e-05
6.92196e-05
-6.62526e-05
4.72265e-05
-9.56085e-05
1.78653e-05
-0.000133817
-2.03472e-05
-0.000182507
-6.90442e-05
-0.000243452
-0.000129995
-0.000318552
-0.000205102
-0.000409838
-0.000296395
-0.000519461
-0.000406027
-0.000649737
-0.00053631
-0.000803065
-0.000689648
-0.000981957
-0.000868548
-0.00118907
-0.00107568
-0.00142722
-0.00131383
-0.0016992
-0.00158582
-0.00200796
-0.0018946
-0.00235665
-0.00224329
-0.00274843
-0.00263509
-0.00318644
-0.00307312
-0.00367404
-0.00356073
-0.00421471
-0.00410141
-0.00481192
-0.00469863
-0.00546911
-0.00535583
-0.00618989
-0.00607662
-0.00697803
-0.00686478
-0.00783718
-0.00772394
-0.00877098
-0.00865776
-0.00978328
-0.00967007
-0.010878
-0.0107648
-0.0120589
-0.0119457
-0.0133297
-0.0132165
-0.0146944
-0.0145812
-0.0161569
-0.0160438
-0.0177212
-0.0176081
-0.0193909
-0.0192778
-0.0211701
-0.021057
-0.0230627
-0.0229496
-0.0250725
-0.0249595
-0.0272032
-0.0270902
-0.0294588
-0.0293458
-0.0318435
-0.0317305
-0.0343605
-0.0342475
-0.0370126
-0.0368996
-0.0398058
-0.0396928
-0.0427421
-0.0426292
-0.0458249
-0.0457119
-0.0490594
-0.0489464
-0.0524469
-0.0523339
-0.0559927
-0.0558798
-0.059699
-0.0595861
-0.0635687
-0.0634558
-0.0676056
-0.0674928
-0.071813
-0.0717002
-0.0761943
-0.0760815
-0.08075
-0.0806372
-0.0854845
-0.0853717
-0.0904019
-0.0902891
-0.0955011
-0.0953883
-0.100787
-0.100674
-0.10626
-0.106147
-0.111924
-0.111812
-0.117779
-0.117667
-0.123827
-0.123715
-0.130071
-0.129958
-0.136509
-0.136396
-0.143145
-0.143032
-0.149977
-0.149864
-0.157009
-0.156896
-0.164237
-0.164124
-0.171665
-0.171552
-0.179289
-0.179176
-0.187111
-0.186999
-0.195129
-0.195017
-0.203343
-0.20323
-0.21175
-0.211637
-0.220348
-0.220235
-0.229136
-0.229024
-0.238112
-0.238
-0.247274
-0.247161
-0.256617
-0.256504
-0.266139
-0.266026
-0.275834
-0.275722
-0.285702
-0.285589
-0.295736
-0.295624
-0.305934
-0.305821
-0.316287
-0.316174
-0.326794
-0.326681
-0.337449
-0.337336
-0.348243
-0.348131
-0.359175
-0.359062
-0.370234
-0.370122
-0.381418
-0.381305
-0.392719
-0.392606
-0.404128
-0.404015
-0.415639
-0.415526
-0.427246
-0.427134
-0.43894
-0.438827
-0.450714
-0.450602
-0.462561
-0.462448
-0.474471
-0.474359
-0.486439
-0.486326
-0.498453
-0.498341
-0.510507
-0.510395
-0.522594
-0.522482
-0.534702
-0.53459
-0.546827
-0.546715
-0.558955
-0.558843
-0.571084
-0.570972
-0.5832
-0.583088
-0.5953
-0.595188
-0.60737
-0.607258
-0.619405
-0.619293
-0.631396
-0.631284
-0.643336
-0.643224
-0.655216
-0.655104
-0.667029
-0.666916
-0.678764
-0.678652
-0.69042
-0.690308
-0.701981
-0.701869
-0.71345
-0.713337
-0.724808
-0.724696
-0.736059
-0.735947
-0.747186
-0.747075
-0.758195
-0.758082
-0.769064
-0.768952
-0.779801
-0.779689
-0.790387
-0.790275
-0.80083
-0.800717
-0.811107
-0.810996
-0.821233
-0.82112
-0.831179
-0.831068
-0.840966
-0.840852
-0.85056
-0.850449
-0.859988
-0.859874
-0.869212
-0.869101
-0.878265
-0.878151
-0.887101
-0.886991
-0.895765
-0.89565
-0.9042
-0.90409
-0.912462
-0.912347
-0.920484
-0.920375
-0.928336
-0.92822
-0.935935
-0.935827
-0.943368
-0.943251
-0.950535
-0.950429
-0.957545
-0.957426
-0.964273
-0.964168
-0.970854
-0.970733
-0.977137
-0.977035
-0.983289
-0.983165
-0.989123
-0.989024
-0.994846
-0.994719
-1.00023
-1.00013
-1.00552
-1.00539
-1.01045
-1.01036
-1.01533
-1.01519
-1.0198
-1.01971
-1.02426
-1.02411
-1.02827
-1.02819
-1.03232
-1.03217
-1.03587
-1.03581
-1.03954
-1.03937
-1.04262
-1.04258
-1.04591
-1.04572
-1.04853
-1.04851
-1.05146
-1.05125
-1.05362
-1.05362
-1.05621
-1.05597
-1.0579
-1.05794
-1.0602
-1.05991
-1.0614
-1.0615
-1.06344
-1.06309
-1.06416
-1.06432
-1.06599
-1.06556
-1.0665
-1.06645
-1.06786
-1.06733
-1.0682
-1.0679
-1.06909
-1.06845
-1.06926
-1.06873
-1.06969
-1.06893
-1.06971
-1.06893
-1.06935
-1.06881
-1.06921
-1.06854
-1.06843
-1.06811
-1.06814
-1.06758
-1.06696
-1.06684
-1.06654
-1.06607
-1.06499
-1.06505
-1.06444
-1.06404
-1.06271
-1.06276
-1.06185
-1.06152
-1.06
-1.05999
-1.05882
-1.05853
-1.05682
-1.05678
-1.05535
-1.05509
-1.0532
-1.05313
-1.05146
-1.05122
-1.04915
-1.04906
-1.04716
-1.04695
-1.0447
-1.04459
-1.04249
-1.04228
-1.03987
-1.03974
-1.03744
-1.03724
-1.03467
-1.03453
-1.03204
-1.03185
-1.02912
-1.02897
-1.0263
-1.02612
-1.02324
-1.02309
-1.02024
-1.02006
-1.01703
-1.01687
-1.01386
-1.01368
-1.01049
-1.01033
-1.00714
-1.00696
-1.00361
-1.00344
-1.00007
-0.999893
-0.996363
-0.996197
-0.992636
-0.992461
-0.988757
-0.988588
-0.984849
-0.984674
-0.980808
-0.980637
-0.976731
-0.976555
-0.972532
-0.972359
-0.968287
-0.96811
-0.963924
-0.963749
-0.959505
-0.959327
-0.954969
-0.954793
-0.95037
-0.950192
-0.945661
-0.945483
-0.940881
-0.940701
-0.935992
-0.935813
-0.931025
-0.930843
-0.925955
-0.925774
-0.920806
-0.920623
-0.915566
-0.915384
-0.910248
-0.910064
-0.904846
-0.904662
-0.899361
-0.899177
-0.893799
-0.893614
-0.888148
-0.887963
-0.882423
-0.882237
-0.8766
-0.876414
-0.870703
-0.870516
-0.864701
-0.864513
-0.858633
-0.858445
-0.852456
-0.852268
-0.846222
-0.846034
-0.83988
-0.839692
-0.833499
-0.833311
-0.827015
-0.826826
-0.820511
-0.820322
-0.813896
-0.813707
-0.807267
-0.807078
-0.8005
-0.800311
-0.793714
-0.793524
-0.786764
-0.786573
-0.779792
-0.779601
-0.772637
-0.772445
-0.765486
-0.765293
-0.75815
-0.757956
-0.750859
-0.750663
-0.74338
-0.743183
-0.735976
-0.735777
-0.728351
-0.728151
-0.720815
-0.720613
-0.713023
-0.712819
-0.705355
-0.705149
-0.6974
-0.697192
-0.689611
-0.6894
-0.681493
-0.68128
-0.673583
-0.673365
-0.665291
-0.665069
-0.657254
-0.657028
-0.648779
-0.648549
-0.640636
-0.640399
-0.632002
-0.63176
-0.623791
-0.623539
-0.61503
-0.614772
-0.606803
-0.606533
-0.597958
-0.597681
-0.589777
-0.589485
-0.580893
-0.580593
-0.57282
-0.572499
-0.56393
-0.563602
-0.556014
-0.555658
-0.547146
-0.546787
-0.539442
-0.539044
-0.530599
-0.530205
-0.523116
-0.522667
-0.514273
-0.513843
-0.507066
-0.506553
-0.498267
-0.497801
-0.491462
-0.490867
-0.482808
-0.482309
-0.476606
-0.475901
-0.468202
-0.467684
-0.462758
-0.461905
-0.454586
-0.454077
-0.449986
-0.448928
-0.441977
-0.441528
-0.438384
-0.437037
-0.43052
-0.430217
-0.427966
-0.426442
-0.420435
-0.4204
-0.418293
-0.417351
-0.411935
-0.412292
-0.410254
-0.409978
-0.40525
-0.4061
-0.404085
-0.404544
-0.399393
-0.401998
-0.398772
-0.401185
-0.39687
-0.400267
0.000112882
2.67906e-06
0.000112827
2.6371e-06
0.00011262
2.43982e-06
0.000112032
1.85511e-06
0.000110656
4.77282e-07
0.000107941
-2.23754e-06
0.000103242
-6.93647e-06
9.5765e-05
-1.44137e-05
8.45689e-05
-2.56099e-05
6.85794e-05
-4.15994e-05
4.65861e-05
-6.35928e-05
1.72245e-05
-9.29544e-05
-2.09883e-05
-0.000131167
-6.96858e-05
-0.000179865
-0.000130637
-0.000240816
-0.000205745
-0.000315924
-0.000297038
-0.000407217
-0.000406671
-0.00051685
-0.000536955
-0.000647134
-0.000690293
-0.000800473
-0.000869193
-0.000979373
-0.00107632
-0.0011865
-0.00131448
-0.00142466
-0.00158647
-0.00169665
-0.00189525
-0.00200543
-0.00224394
-0.00235412
-0.00263574
-0.00274592
-0.00307377
-0.00318395
-0.00356138
-0.00367156
-0.00410206
-0.00421224
-0.00469928
-0.00480947
-0.00535649
-0.00546667
-0.00607728
-0.00618746
-0.00686544
-0.00697562
-0.0077246
-0.00783479
-0.00865842
-0.0087686
-0.00967073
-0.00978091
-0.0107655
-0.0108756
-0.0119464
-0.0120565
-0.0132172
-0.0133274
-0.0145819
-0.0146921
-0.0160444
-0.0161546
-0.0176087
-0.0177189
-0.0192785
-0.0193887
-0.0210577
-0.0211679
-0.0229503
-0.0230605
-0.0249601
-0.0250703
-0.0270909
-0.0272011
-0.0293465
-0.0294567
-0.0317312
-0.0318414
-0.0342482
-0.0343584
-0.0369003
-0.0370105
-0.0396935
-0.0398037
-0.0426299
-0.0427401
-0.0457126
-0.0458228
-0.0489471
-0.0490573
-0.0523346
-0.0524448
-0.0558805
-0.0559907
-0.0595868
-0.059697
-0.0634565
-0.0635667
-0.0674935
-0.0676037
-0.0717008
-0.0718111
-0.0760822
-0.0761924
-0.0806379
-0.0807481
-0.0853724
-0.0854826
-0.0902898
-0.0904
-0.095389
-0.0954992
-0.100675
-0.100785
-0.106148
-0.106258
-0.111812
-0.111923
-0.117667
-0.117778
-0.123715
-0.123826
-0.129959
-0.130069
-0.136397
-0.136507
-0.143033
-0.143143
-0.149865
-0.149975
-0.156897
-0.157007
-0.164125
-0.164235
-0.171553
-0.171663
-0.179177
-0.179287
-0.187
-0.18711
-0.195017
-0.195128
-0.203231
-0.203341
-0.211638
-0.211748
-0.220236
-0.220347
-0.229024
-0.229135
-0.238001
-0.238111
-0.247162
-0.247272
-0.256505
-0.256616
-0.266027
-0.266137
-0.275722
-0.275833
-0.28559
-0.2857
-0.295624
-0.295735
-0.305822
-0.305932
-0.316175
-0.316285
-0.326682
-0.326792
-0.337337
-0.337447
-0.348131
-0.348242
-0.359063
-0.359173
-0.370122
-0.370233
-0.381306
-0.381416
-0.392607
-0.392718
-0.404016
-0.404126
-0.415527
-0.415638
-0.427134
-0.427245
-0.438828
-0.438939
-0.450603
-0.450713
-0.462449
-0.46256
-0.474359
-0.47447
-0.486327
-0.486438
-0.498341
-0.498452
-0.510395
-0.510506
-0.522482
-0.522593
-0.53459
-0.534701
-0.546715
-0.546826
-0.558844
-0.558955
-0.570972
-0.571083
-0.583089
-0.5832
-0.595188
-0.595299
-0.607258
-0.607369
-0.619293
-0.619404
-0.631285
-0.631395
-0.643224
-0.643335
-0.655104
-0.655215
-0.666917
-0.667028
-0.678653
-0.678764
-0.690308
-0.690419
-0.70187
-0.70198
-0.713338
-0.713449
-0.724697
-0.724808
-0.735947
-0.736058
-0.747075
-0.747186
-0.758083
-0.758194
-0.768953
-0.769063
-0.779689
-0.779801
-0.790275
-0.790386
-0.800718
-0.80083
-0.810996
-0.811107
-0.821121
-0.821233
-0.831069
-0.831179
-0.840853
-0.840965
-0.850449
-0.850559
-0.859875
-0.859987
-0.869101
-0.869211
-0.878151
-0.878264
-0.886991
-0.887101
-0.895651
-0.895765
-0.904091
-0.904199
-0.912347
-0.912462
-0.920376
-0.920484
-0.92822
-0.928335
-0.935827
-0.935935
-0.943251
-0.943368
-0.950429
-0.950535
-0.957426
-0.957544
-0.964168
-0.964272
-0.970733
-0.970854
-0.977035
-0.977137
-0.983165
-0.983289
-0.989024
-0.989123
-0.994719
-0.994846
-1.00013
-1.00023
-1.00539
-1.00552
-1.01036
-1.01045
-1.01519
-1.01532
-1.01971
-1.01979
-1.02411
-1.02426
-1.02819
-1.02827
-1.03217
-1.03232
-1.03581
-1.03587
-1.03937
-1.03954
-1.04258
-1.04262
-1.04572
-1.04591
-1.04851
-1.04853
-1.05125
-1.05146
-1.05362
-1.05362
-1.05597
-1.05621
-1.05794
-1.0579
-1.05991
-1.0602
-1.0615
-1.0614
-1.06309
-1.06344
-1.06432
-1.06416
-1.06556
-1.06599
-1.06645
-1.0665
-1.06733
-1.06786
-1.0679
-1.0682
-1.06845
-1.06909
-1.06873
-1.06926
-1.06893
-1.06969
-1.06893
-1.06971
-1.06881
-1.06935
-1.06854
-1.06921
-1.06811
-1.06843
-1.06758
-1.06814
-1.06684
-1.06696
-1.06607
-1.06654
-1.06505
-1.06499
-1.06404
-1.06444
-1.06276
-1.06271
-1.06152
-1.06185
-1.05999
-1.06
-1.05853
-1.05882
-1.05678
-1.05682
-1.05509
-1.05535
-1.05313
-1.0532
-1.05122
-1.05146
-1.04906
-1.04915
-1.04695
-1.04716
-1.04459
-1.0447
-1.04228
-1.04249
-1.03974
-1.03987
-1.03724
-1.03744
-1.03453
-1.03467
-1.03185
-1.03204
-1.02897
-1.02912
-1.02612
-1.0263
-1.02309
-1.02324
-1.02006
-1.02024
-1.01687
-1.01703
-1.01368
-1.01385
-1.01033
-1.01049
-1.00696
-1.00714
-1.00344
-1.00361
-0.999893
-1.00007
-0.996197
-0.996363
-0.992461
-0.992636
-0.988588
-0.988757
-0.984674
-0.984849
-0.980637
-0.980808
-0.976555
-0.976731
-0.972359
-0.972532
-0.96811
-0.968287
-0.963749
-0.963924
-0.959327
-0.959504
-0.954793
-0.954969
-0.950192
-0.95037
-0.945483
-0.945661
-0.940701
-0.940881
-0.935813
-0.935992
-0.930843
-0.931025
-0.925774
-0.925955
-0.920623
-0.920805
-0.915383
-0.915566
-0.910064
-0.910248
-0.904662
-0.904846
-0.899176
-0.899361
-0.893614
-0.893799
-0.887963
-0.888148
-0.882237
-0.882423
-0.876414
-0.8766
-0.870516
-0.870703
-0.864513
-0.864701
-0.858445
-0.858632
-0.852268
-0.852456
-0.846034
-0.846222
-0.839692
-0.83988
-0.833311
-0.833499
-0.826826
-0.827014
-0.820322
-0.820511
-0.813707
-0.813896
-0.807078
-0.807267
-0.800311
-0.8005
-0.793524
-0.793714
-0.786573
-0.786764
-0.779601
-0.779792
-0.772445
-0.772637
-0.765293
-0.765486
-0.757956
-0.75815
-0.750663
-0.750859
-0.743183
-0.74338
-0.735777
-0.735976
-0.728151
-0.728351
-0.720613
-0.720815
-0.712819
-0.713023
-0.705149
-0.705354
-0.697192
-0.6974
-0.6894
-0.689611
-0.681279
-0.681493
-0.673365
-0.673582
-0.665069
-0.66529
-0.657028
-0.657254
-0.648549
-0.648779
-0.640399
-0.640636
-0.63176
-0.632002
-0.623539
-0.623791
-0.614772
-0.615029
-0.606533
-0.606803
-0.597681
-0.597958
-0.589485
-0.589777
-0.580593
-0.580893
-0.572499
-0.57282
-0.563602
-0.56393
-0.555658
-0.556014
-0.546787
-0.547146
-0.539044
-0.539442
-0.530205
-0.530599
-0.522667
-0.523115
-0.513843
-0.514273
-0.506553
-0.507066
-0.497801
-0.498267
-0.490867
-0.491462
-0.482309
-0.482808
-0.475901
-0.476606
-0.467684
-0.468202
-0.461905
-0.462758
-0.454077
-0.454586
-0.448928
-0.449986
-0.441528
-0.441977
-0.437037
-0.438384
-0.430217
-0.43052
-0.426442
-0.427966
-0.4204
-0.420435
-0.417351
-0.418293
-0.412292
-0.411935
-0.409978
-0.410253
-0.4061
-0.405249
-0.404544
-0.404085
-0.401998
-0.399393
-0.401185
-0.398772
-0.400267
-0.39687
-0.396869
-0.400266
-0.398767
-0.401188
-0.399386
-0.401998
-0.404129
-0.404552
-0.4053
-0.406109
-0.410306
-0.409991
-0.411986
-0.412307
-0.418337
-0.417364
-0.420476
-0.420412
-0.428006
-0.426457
-0.430562
-0.430233
-0.438419
-0.437053
-0.442017
-0.441546
-0.450022
-0.448946
-0.454625
-0.454097
-0.462791
-0.461922
-0.468237
-0.467702
-0.476639
-0.47592
-0.482841
-0.482327
-0.491496
-0.490888
-0.498301
-0.497822
-0.507098
-0.506574
-0.514305
-0.513864
-0.523144
-0.522685
-0.530628
-0.530225
-0.539475
-0.539067
-0.547175
-0.546807
-0.556046
-0.555681
-0.563961
-0.563625
-0.572846
-0.572517
-0.580925
-0.580617
-0.589808
-0.589508
-0.597992
-0.597708
-0.606832
-0.606555
-0.615065
-0.6148
-0.623818
-0.62356
-0.63203
-0.631781
-0.640665
-0.640421
-0.648806
-0.648569
-0.657285
-0.657053
-0.665319
-0.665092
-0.673612
-0.673389
-0.681522
-0.681303
-0.689641
-0.689425
-0.697427
-0.697214
-0.705385
-0.705174
-0.713049
-0.712841
-0.720842
-0.720636
-0.728378
-0.728173
-0.736004
-0.735801
-0.743405
-0.743204
-0.75089
-0.75069
-0.758179
-0.75798
-0.76551
-0.765312
-0.772666
-0.772469
-0.77982
-0.779624
-0.786795
-0.7866
-0.793742
-0.793547
-0.800527
-0.800333
-0.807291
-0.807098
-0.81393
-0.813737
-0.820539
-0.820346
-0.827047
-0.826854
-0.833529
-0.833336
-0.839913
-0.839719
-0.846249
-0.846056
-0.85248
-0.852287
-0.858664
-0.858472
-0.86473
-0.864538
-0.870737
-0.870545
-0.876626
-0.876435
-0.882447
-0.882256
-0.888176
-0.887986
-0.893823
-0.893633
-0.899386
-0.899197
-0.904872
-0.904684
-0.910278
-0.91009
-0.915599
-0.915412
-0.92084
-0.920653
-0.925988
-0.925802
-0.931054
-0.930868
-0.936023
-0.935839
-0.940908
-0.940723
-0.945688
-0.945506
-0.950402
-0.950219
-0.954995
-0.954815
-0.959528
-0.959346
-0.963955
-0.963776
-0.968316
-0.968135
-0.972555
-0.972378
-0.976759
-0.976579
-0.980834
-0.98066
-0.984874
-0.984694
-0.988783
-0.98861
-0.99267
-0.99249
-0.996396
-0.996225
-1.0001
-0.999916
-1.00364
-1.00347
-1.00717
-1.00699
-1.01051
-1.01035
-1.01388
-1.0137
-1.01706
-1.0169
-1.02027
-1.02009
-1.02327
-1.02311
-1.02633
-1.02615
-1.02915
-1.029
-1.03206
-1.03187
-1.0347
-1.03456
-1.03747
-1.03727
-1.03989
-1.03976
-1.04251
-1.0423
-1.04473
-1.04461
-1.04719
-1.04697
-1.04918
-1.04908
-1.05149
-1.05125
-1.05323
-1.05315
-1.05538
-1.05511
-1.05685
-1.0568
-1.05885
-1.05855
-1.06003
-1.06002
-1.06189
-1.06154
-1.06274
-1.06278
-1.06446
-1.06407
-1.06502
-1.06507
-1.06657
-1.0661
-1.067
-1.06687
-1.06817
-1.06761
-1.06846
-1.06813
-1.06924
-1.06857
-1.06939
-1.06884
-1.06974
-1.06896
-1.06972
-1.06896
-1.06929
-1.06875
-1.06912
-1.06848
-1.06823
-1.06793
-1.06789
-1.06736
-1.06653
-1.06647
-1.06602
-1.06558
-1.06419
-1.06434
-1.06347
-1.06312
-1.06143
-1.06152
-1.06022
-1.05993
-1.05793
-1.05797
-1.05625
-1.056
-1.05364
-1.05364
-1.05148
-1.05127
-1.04856
-1.04853
-1.04594
-1.04575
-1.04266
-1.04261
-1.03957
-1.03939
-1.03591
-1.03584
-1.03236
-1.0322
-1.02829
-1.02821
-1.02428
-1.02413
-1.01981
-1.01973
-1.01536
-1.01522
-1.01047
-1.01037
-1.00555
-1.00541
-1.00025
-1.00015
-0.994863
-0.994731
-0.989168
-0.989064
-0.983323
-0.983195
-0.977153
-0.977047
-0.9709
-0.970775
-0.9643
-0.964191
-0.957558
-0.957434
-0.950585
-0.950474
-0.943413
-0.943291
-0.935975
-0.935863
-0.928388
-0.928267
-0.920488
-0.920375
-0.912503
-0.912383
-0.904217
-0.904103
-0.895787
-0.895668
-0.887135
-0.887021
-0.878274
-0.878156
-0.869203
-0.869088
-0.86001
-0.859892
-0.850624
-0.850509
-0.840957
-0.84084
-0.831199
-0.831083
-0.821255
-0.821138
-0.811153
-0.811037
-0.800874
-0.800758
-0.790458
-0.790342
-0.779875
-0.779758
-0.769067
-0.768951
-0.758212
-0.758095
-0.747264
-0.747148
-0.736059
-0.735943
-0.724781
-0.724666
-0.713497
-0.713381
-0.702046
-0.70193
-0.690482
-0.690365
-0.678765
-0.678649
-0.667085
-0.666969
-0.655273
-0.655157
-0.643385
-0.643269
-0.63138
-0.631264
-0.619467
-0.619351
-0.607454
-0.607338
-0.595263
-0.595147
-0.583292
-0.583176
-0.571164
-0.571048
-0.558972
-0.558856
-0.546793
-0.546677
-0.534737
-0.534621
-0.522551
-0.522435
-0.510517
-0.510401
-0.498534
-0.498418
-0.486395
-0.486279
-0.474493
-0.474377
-0.462631
-0.462515
-0.450679
-0.450563
-0.438965
-0.438849
-0.427355
-0.42724
-0.415653
-0.415537
-0.404069
-0.403953
-0.392775
-0.39266
-0.381435
-0.381319
-0.370228
-0.370113
-0.359168
-0.359052
-0.348267
-0.348151
-0.337521
-0.337406
-0.326774
-0.326659
-0.316379
-0.316263
-0.305999
-0.305883
-0.295801
-0.295686
-0.285817
-0.285701
-0.275844
-0.275728
-0.266097
-0.265981
-0.256559
-0.256443
-0.247259
-0.247143
-0.238174
-0.238058
-0.229158
-0.229042
-0.220366
-0.22025
-0.211832
-0.211716
-0.203351
-0.203236
-0.195138
-0.195023
-0.187157
-0.187042
-0.17928
-0.179165
-0.171637
-0.171521
-0.164275
-0.16416
-0.156979
-0.156863
-0.149974
-0.149858
-0.143192
-0.143076
-0.13655
-0.136434
-0.130123
-0.130008
-0.123848
-0.123733
-0.117783
-0.117667
-0.112026
-0.11191
-0.106318
-0.106203
-0.100786
-0.10067
-0.0955773
-0.0954617
-0.0904133
-0.0902977
-0.0855578
-0.0854422
-0.0807538
-0.0806382
-0.0762519
-0.0761363
-0.0717978
-0.0716822
-0.0676477
-0.0675321
-0.0636488
-0.0635332
-0.0597277
-0.0596121
-0.0560528
-0.0559372
-0.052471
-0.0523554
-0.0491129
-0.0489973
-0.045856
-0.0457404
-0.0428052
-0.0426896
-0.039858
-0.0397424
-0.0370127
-0.0368971
-0.0343644
-0.0342488
-0.0318926
-0.031777
-0.0295249
-0.0294093
-0.0272412
-0.0271256
-0.0250675
-0.0249519
-0.0231162
-0.0230006
-0.0211969
-0.0210814
-0.0194201
-0.0193045
-0.0177381
-0.0176225
-0.0161926
-0.0160771
-0.0147281
-0.0146125
-0.0133446
-0.0132291
-0.0120818
-0.0119663
-0.0109011
-0.0107855
-0.00982182
-0.00970627
-0.00878292
-0.00866738
-0.00787286
-0.00775731
-0.00700248
-0.00688693
-0.00621194
-0.00609639
-0.00549201
-0.00537646
-0.00484315
-0.0047276
-0.00425433
-0.00413879
-0.00370485
-0.0035893
-0.00321002
-0.00309448
-0.00277381
-0.00265827
-0.00238274
-0.0022672
-0.00202633
-0.00191079
-0.00172423
-0.00160869
-0.00145157
-0.00133603
-0.00121186
-0.00109631
-0.00100862
-0.000893073
-0.000832169
-0.000716631
-0.000676841
-0.0005613
-0.000544838
-0.000429295
-0.000436596
-0.000321055
-0.000346248
-0.00023071
-0.000269742
-0.000154202
-0.00020788
-9.23386e-05
-0.000159758
-4.42184e-05
-0.000121989
-6.45127e-06
-9.20557e-05
2.34826e-05
-6.98068e-05
4.57331e-05
-5.40643e-05
6.14747e-05
-4.30502e-05
7.24872e-05
-3.54414e-05
8.00966e-05
-3.07137e-05
8.48246e-05
-2.80469e-05
8.74919e-05
-2.66884e-05
8.88492e-05
-2.60893e-05
8.94509e-05
-2.58832e-05
8.96666e-05
-2.58385e-05
8.97249e-05
-0.400266
-0.396869
-0.401188
-0.398768
-0.401998
-0.399386
-0.404552
-0.404129
-0.406109
-0.4053
-0.409991
-0.410306
-0.412307
-0.411986
-0.417364
-0.418337
-0.420412
-0.420476
-0.426457
-0.428006
-0.430233
-0.430562
-0.437053
-0.438419
-0.441546
-0.442017
-0.448946
-0.450022
-0.454097
-0.454625
-0.461922
-0.462791
-0.467702
-0.468237
-0.47592
-0.476639
-0.482328
-0.482841
-0.490888
-0.491496
-0.497822
-0.498301
-0.506574
-0.507098
-0.513864
-0.514305
-0.522685
-0.523144
-0.530225
-0.530628
-0.539068
-0.539475
-0.546807
-0.547175
-0.555681
-0.556046
-0.563625
-0.563961
-0.572517
-0.572846
-0.580617
-0.580925
-0.589508
-0.589808
-0.597708
-0.597992
-0.606555
-0.606832
-0.6148
-0.615065
-0.62356
-0.623818
-0.631781
-0.63203
-0.640421
-0.640665
-0.648569
-0.648806
-0.657053
-0.657285
-0.665092
-0.665319
-0.673389
-0.673612
-0.681303
-0.681522
-0.689425
-0.689641
-0.697214
-0.697427
-0.705174
-0.705385
-0.712841
-0.713049
-0.720636
-0.720842
-0.728173
-0.728378
-0.735801
-0.736004
-0.743204
-0.743405
-0.75069
-0.750891
-0.75798
-0.758179
-0.765312
-0.76551
-0.772469
-0.772666
-0.779624
-0.77982
-0.7866
-0.786795
-0.793547
-0.793742
-0.800333
-0.800527
-0.807098
-0.807291
-0.813737
-0.81393
-0.820346
-0.820539
-0.826854
-0.827047
-0.833336
-0.833529
-0.839719
-0.839913
-0.846056
-0.846249
-0.852287
-0.85248
-0.858472
-0.858664
-0.864538
-0.86473
-0.870545
-0.870737
-0.876435
-0.876626
-0.882256
-0.882447
-0.887986
-0.888176
-0.893633
-0.893823
-0.899197
-0.899386
-0.904684
-0.904872
-0.91009
-0.910278
-0.915412
-0.915599
-0.920653
-0.92084
-0.925802
-0.925988
-0.930868
-0.931054
-0.935839
-0.936023
-0.940724
-0.940908
-0.945506
-0.945688
-0.950219
-0.950402
-0.954815
-0.954995
-0.959346
-0.959528
-0.963776
-0.963955
-0.968135
-0.968316
-0.972378
-0.972555
-0.976579
-0.976759
-0.98066
-0.980834
-0.984694
-0.984874
-0.98861
-0.988783
-0.99249
-0.99267
-0.996225
-0.996396
-0.999916
-1.0001
-1.00347
-1.00364
-1.00699
-1.00717
-1.01035
-1.01051
-1.0137
-1.01388
-1.0169
-1.01706
-1.02009
-1.02027
-1.02311
-1.02327
-1.02615
-1.02633
-1.029
-1.02915
-1.03187
-1.03206
-1.03456
-1.0347
-1.03727
-1.03747
-1.03976
-1.03989
-1.0423
-1.04251
-1.04461
-1.04473
-1.04697
-1.04719
-1.04908
-1.04918
-1.05125
-1.05149
-1.05315
-1.05323
-1.05511
-1.05538
-1.0568
-1.05685
-1.05855
-1.05885
-1.06002
-1.06003
-1.06154
-1.06189
-1.06278
-1.06274
-1.06407
-1.06446
-1.06507
-1.06502
-1.0661
-1.06657
-1.06687
-1.067
-1.06761
-1.06817
-1.06813
-1.06846
-1.06857
-1.06924
-1.06884
-1.06939
-1.06896
-1.06974
-1.06896
-1.06972
-1.06875
-1.06929
-1.06848
-1.06912
-1.06793
-1.06823
-1.06736
-1.06789
-1.06647
-1.06653
-1.06558
-1.06602
-1.06434
-1.06419
-1.06312
-1.06347
-1.06152
-1.06143
-1.05993
-1.06022
-1.05797
-1.05793
-1.056
-1.05625
-1.05364
-1.05364
-1.05127
-1.05148
-1.04853
-1.04856
-1.04575
-1.04594
-1.04261
-1.04266
-1.03939
-1.03957
-1.03584
-1.03591
-1.0322
-1.03236
-1.02821
-1.02829
-1.02413
-1.02428
-1.01973
-1.01981
-1.01522
-1.01536
-1.01037
-1.01047
-1.00541
-1.00555
-1.00015
-1.00025
-0.994731
-0.994863
-0.989064
-0.989168
-0.983195
-0.983323
-0.977047
-0.977153
-0.970775
-0.9709
-0.964191
-0.9643
-0.957434
-0.957558
-0.950474
-0.950585
-0.943291
-0.943413
-0.935863
-0.935975
-0.928267
-0.928388
-0.920375
-0.920488
-0.912384
-0.912503
-0.904103
-0.904217
-0.895668
-0.895787
-0.887021
-0.887135
-0.878156
-0.878274
-0.869088
-0.869203
-0.859892
-0.86001
-0.850509
-0.850624
-0.84084
-0.840957
-0.831084
-0.831199
-0.821138
-0.821255
-0.811038
-0.811153
-0.800758
-0.800874
-0.790342
-0.790457
-0.779758
-0.779874
-0.768951
-0.769067
-0.758095
-0.758212
-0.747149
-0.747264
-0.735943
-0.736059
-0.724666
-0.724781
-0.713381
-0.713497
-0.70193
-0.702046
-0.690365
-0.690481
-0.678649
-0.678765
-0.666969
-0.667085
-0.655157
-0.655273
-0.643269
-0.643385
-0.631264
-0.63138
-0.619351
-0.619467
-0.607338
-0.607454
-0.595148
-0.595263
-0.583176
-0.583292
-0.571048
-0.571164
-0.558856
-0.558972
-0.546677
-0.546793
-0.534621
-0.534737
-0.522435
-0.522551
-0.510401
-0.510516
-0.498418
-0.498534
-0.486279
-0.486394
-0.474377
-0.474493
-0.462515
-0.462631
-0.450563
-0.450679
-0.438849
-0.438965
-0.42724
-0.427355
-0.415537
-0.415652
-0.403953
-0.404068
-0.39266
-0.392775
-0.381319
-0.381435
-0.370113
-0.370228
-0.359052
-0.359168
-0.348151
-0.348267
-0.337406
-0.337521
-0.326659
-0.326774
-0.316263
-0.316379
-0.305884
-0.305999
-0.295686
-0.295801
-0.285701
-0.285816
-0.275728
-0.275844
-0.265982
-0.266097
-0.256443
-0.256558
-0.247143
-0.247259
-0.238058
-0.238174
-0.229042
-0.229158
-0.22025
-0.220366
-0.211717
-0.211832
-0.203236
-0.203351
-0.195023
-0.195138
-0.187042
-0.187157
-0.179165
-0.17928
-0.171521
-0.171637
-0.16416
-0.164275
-0.156863
-0.156979
-0.149858
-0.149974
-0.143076
-0.143192
-0.136434
-0.136549
-0.130008
-0.130123
-0.123733
-0.123848
-0.117667
-0.117782
-0.11191
-0.112025
-0.106203
-0.106318
-0.10067
-0.100786
-0.0954618
-0.0955771
-0.0902978
-0.0904131
-0.0854423
-0.0855576
-0.0806383
-0.0807537
-0.0761364
-0.0762518
-0.0716823
-0.0717976
-0.0675322
-0.0676476
-0.0635333
-0.0636487
-0.0596122
-0.0597276
-0.0559373
-0.0560527
-0.0523556
-0.0524709
-0.0489974
-0.0491127
-0.0457405
-0.0458558
-0.0426897
-0.042805
-0.0397426
-0.0398579
-0.0368972
-0.0370125
-0.034249
-0.0343643
-0.0317772
-0.0318924
-0.0294095
-0.0295248
-0.0271258
-0.0272411
-0.024952
-0.0250673
-0.0230007
-0.023116
-0.0210815
-0.0211968
-0.0193046
-0.0194199
-0.0176227
-0.0177379
-0.0160772
-0.0161925
-0.0146127
-0.0147279
-0.0132292
-0.0133445
-0.0119664
-0.0120817
-0.0107856
-0.0109009
-0.00970641
-0.00982168
-0.00866752
-0.00878279
-0.00775745
-0.00787273
-0.00688707
-0.00700235
-0.00609653
-0.00621182
-0.0053766
-0.00549189
-0.00472774
-0.00484302
-0.00413893
-0.00425421
-0.00358945
-0.00370472
-0.00309462
-0.0032099
-0.00265841
-0.00277369
-0.00226734
-0.00238262
-0.00191094
-0.00202621
-0.00160884
-0.00172411
-0.00133618
-0.00145146
-0.00109646
-0.00121174
-0.000893219
-0.0010085
-0.000716777
-0.000832052
-0.000561447
-0.000676724
-0.000429442
-0.000544722
-0.000321202
-0.00043648
-0.000230857
-0.000346132
-0.00015435
-0.000269627
-9.24863e-05
-0.000207765
-4.43663e-05
-0.000159644
-6.5993e-06
-0.000121875
2.33344e-05
-9.19421e-05
4.55848e-05
-6.96934e-05
6.13263e-05
-5.39512e-05
7.23388e-05
-4.29372e-05
7.99481e-05
-3.53286e-05
8.4676e-05
-3.06009e-05
8.73434e-05
-2.79342e-05
8.87007e-05
-2.65756e-05
8.93025e-05
-2.59765e-05
8.95182e-05
-2.57704e-05
8.95764e-05
-2.57258e-05
)
;

boundaryField
{
    walls
    {
        type            zeroGradient;
    }
    inlet
    {
        type            cyclic;
    }
    outlet
    {
        type            cyclic;
    }
    sides
    {
        type            empty;
    }
}


// ************************************************************************* //
