/*--------------------------------*- C++ -*----------------------------------*\
| =========                 |                                                 |
| \\      /  F ield         | OpenFOAM: The Open Source CFD Toolbox           |
|  \\    /   O peration     | Version:  2012                                  |
|   \\  /    A nd           | Website:  www.openfoam.com                      |
|    \\/     M anipulation  |                                                 |
\*---------------------------------------------------------------------------*/
FoamFile
{
    version     2.0;
    format      ascii;
    class       volTensorField;
    location    "15000";
    object      grad(U);
}
// * * * * * * * * * * * * * * * * * * * * * * * * * * * * * * * * * * * * * //

dimensions      [0 0 -1 0 0 0 0];


internalField   nonuniform List<tensor> 
2560
(
(0 -9.20453e-15 1.69581e-14 301.025 0 0.722252 0.436889 -5.42101e-20 0.0010415)
(-7.3145e-17 0 1.42861e-19 300.785 -0.00153291 0.000203018 0.436819 -0.000354659 -0.00376199)
(0 7.04068e-20 1.15307e-14 299.467 0.0312924 -1.38795e-17 1.3119 -3.63492e-06 2.1684e-19)
(0 -5.28051e-20 2.81627e-19 299.231 0.118509 -0.00015312 1.31169 0.000112942 -0.00567888)
(-5.69318e-17 -6.93977e-20 1.77927e-19 298.1 -0.0634655 -0.207123 1.78539 -9.0935e-05 0.000677304)
(0 1.38795e-19 -5.55182e-19 297.876 0.0579132 -2.1376e-05 1.78409 0.00012321 -0.00506436)
(1.78342e-16 -2.40554e-19 5.47225e-19 296.728 -0.0362528 -0.283288 1.803 -0.000136282 0.000945564)
(0 2.39411e-19 -5.47225e-19 296.523 0.0394466 -9.56253e-06 1.80181 0.00013979 -0.00343168)
(1.10465e-15 -3.53969e-19 4.71959e-19 295.351 -0.017437 -0.204734 1.82067 -7.72189e-05 0.000539341)
(0 3.70825e-19 -4.04536e-19 295.168 0.0239511 -9.09742e-06 1.81961 0.000104625 -0.00195743)
(4.25042e-16 -1.50432e-19 1.32913e-19 293.832 -0.0103342 -0.10633 1.83677 -5.12225e-05 0.000318948)
(3.40059e-15 3.55141e-19 -1.32913e-19 293.674 0.0138201 -2.51701e-06 1.83586 6.71229e-05 -0.00115759)
(-5.50611e-16 -1.26611e-19 3.27519e-20 291.958 -0.00691817 -0.0534903 1.85016 -3.60302e-05 0.000209258)
(2.20245e-15 3.55157e-19 -6.55039e-20 291.825 0.00903769 -6.18125e-07 1.8494 4.68586e-05 -0.000759504)
(-6.77509e-16 3.2939e-19 -9.68475e-20 289.643 -0.0049831 -0.0292794 1.8607 -2.77515e-05 0.000150441)
(2.70993e-15 -1.56935e-19 6.4565e-20 289.535 0.00658965 -1.03686e-07 1.86008 3.74977e-05 -0.000546049)
(1.84785e-15 -2.30979e-19 4.77297e-20 287.093 -0.00382591 -0.0176149 1.87098 -2.19352e-05 0.00011565)
(-1.04267e-15 2.70468e-19 -6.36396e-20 287.009 0.00498295 -1.7863e-07 1.87051 2.71958e-05 -0.000419789)
(0 2.66592e-19 -1.56819e-20 284.742 -0.00306842 -0.0114465 1.88397 -1.85029e-05 8.94374e-05)
(-1.02773e-15 -2.03864e-19 0 284.68 0.00413514 3.50921e-08 1.88363 2.73348e-05 -0.000338647)
(-1.06199e-15 -4.53233e-19 5.95166e-20 282.658 -0.00256065 -0.00789207 1.8977 -1.57351e-05 6.13038e-05)
(-2.026e-15 4.79171e-19 -6.18285e-20 282.616 0.00325358 -4.99593e-07 1.89748 1.61126e-05 -0.000283029)
(5.18554e-15 -7.12096e-19 7.93369e-20 280.7 -0.0021616 -0.00569497 1.9124 -1.35892e-05 4.41576e-05)
(-3.99392e-15 6.09423e-19 -7.61779e-20 280.676 0.00300697 -1.53679e-06 1.91229 2.4764e-05 -0.000242973)
(1.96834e-15 -1.95224e-19 3.00344e-20 278.983 -0.00174972 -0.0042883 1.92948 -1.0483e-05 3.30611e-05)
(-1.96834e-15 2.7031e-19 -3.7543e-20 278.976 0.0414822 0.000145537 1.92948 0.000207441 -0.000212984)
(-1.45353e-15 3.9291e-19 -1.83771e-20 277.394 -0.00185386 -0.00326915 1.94606 -1.54528e-05 2.59397e-05)
(5.81363e-15 0 7.40099e-21 277.4 -5.96861e-21 2.37627e-06 1.94614 0 -0.000189219)
(0 -1.28324e-17 -3.64746e-20 275.498 -0.00101092 -0.00260054 1.95893 -3.58216e-06 1.96878e-05)
(0 -4.08515e-19 3.64746e-20 275.516 0.117325 0.000191983 1.95909 -5.81005e-05 -0.000171528)
(-1.72168e-15 0 -3.41999e-21 272.961 -0.00235495 -0.00204101 1.96631 0.000340206 1.71538e-05)
(6.88621e-15 0 0 272.988 -2.95231e-17 7.60073e-06 1.96653 -7.36795e-35 -0.000155319)
(0 -2.26794e-19 -3.54365e-20 269.688 -0.00079529 -0.001595 1.96822 -0.0010746 1.21599e-05)
(-7.43092e-15 4.47758e-19 3.54365e-20 269.723 2.23879e-20 -0.000213342 1.9685 0 -0.000144659)
(0 1.34126e-18 -2.79429e-20 266.101 -0.00156395 -0.00135585 1.97043 0.00068486 1.11021e-05)
(-7.97601e-15 -4.64678e-19 2.79429e-20 266.141 -4.18787e-17 2.32463e-06 1.97074 0 -0.000134121)
(3.61004e-15 0 1.37712e-20 263.197 -0.000426026 -0.00112834 1.98194 -0.00121487 8.9506e-06)
(0 8.87339e-30 -1.37712e-20 263.239 2.88112e-17 -5.27372e-06 1.98227 0 -0.000126113)
(-1.29487e-15 1.08591e-18 -1.0168e-20 261.767 -0.00180926 -0.000949264 2.00621 0.000820344 7.98609e-06)
(-5.49494e-15 -6.97756e-19 2.03607e-20 261.81 -4.36098e-20 8.82983e-07 2.00654 0 -0.000118437)
(0 -2.14068e-19 -2.00689e-20 261.683 -0.00024903 -0.000804251 2.0387 -0.00135258 6.46482e-06)
(0 2.53253e-19 2.00689e-20 261.727 3.12092e-17 -6.63039e-06 2.03904 0 -0.000112694)
(-2.53484e-15 -4.22001e-19 3.33531e-21 262.193 -0.00168743 -0.000687646 2.07302 0.000954701 5.96237e-06)
(0 -1.63704e-33 -1.31875e-20 262.235 -4.50544e-17 -1.13545e-06 2.07335 1.75693e-34 -0.00010689)
(7.54837e-15 2.07976e-19 3.89419e-20 262.688 0.000166765 -0.000653873 2.10637 -0.00148674 4.8124e-06)
(-6.81496e-15 -9.62965e-35 -4.22451e-20 262.729 -1.44312e-35 0.000270539 2.10668 -1.1545e-34 -0.000102662)
(0 1.63996e-18 -1.60153e-20 263.023 -0.00198436 -0.000504456 2.13919 0.00135524 5.59581e-06)
(-1.12623e-14 -7.49676e-19 2.56244e-20 263.061 -6.2473e-20 5.32241e-06 2.13949 0 -9.67763e-05)
(-3.66146e-15 -8.08229e-19 -2.19181e-20 263.27 0.000223032 -0.000440353 2.17214 -0.00215784 2.52419e-06)
(6.62101e-15 4.81482e-35 2.52571e-20 263.305 3.69779e-32 7.96815e-05 2.17242 -2.1684e-19 -9.49913e-05)
(-6.21159e-15 3.5849e-18 -3.01397e-20 263.427 -0.00234393 -0.000359636 2.20449 0.00207241 4.7024e-06)
(0 -9.62965e-35 2.48951e-20 263.46 -8.4298e-17 1.18341e-05 2.20475 -1.94354e-34 -8.96413e-05)
(9.76376e-15 2.74829e-18 4.06029e-20 263.36 0.000590497 -0.000233545 2.23462 -0.00295473 1.24741e-06)
(2.6036e-14 -1.57772e-30 -3.37402e-20 263.39 8.32667e-17 -0.000253495 2.23486 4.33681e-19 -8.90725e-05)
(0 -3.09589e-18 1.51166e-20 262.887 -0.00246059 -0.000251532 2.26093 0.00258704 2.69944e-06)
(7.2833e-15 0 -2.11633e-20 262.914 -9.87644e-17 7.09675e-06 2.26115 -4.33681e-19 -8.57878e-05)
(3.55983e-15 -1.14432e-18 -8.80973e-21 261.91 0.00109147 -0.00021226 2.28301 -0.00321631 1.59377e-06)
(0 3.82634e-19 8.93999e-21 261.935 9.56585e-20 2.26026e-06 2.28321 0 -8.44913e-05)
(-7.43087e-15 0 -5.72428e-21 260.563 -0.00274017 -0.000179816 2.30327 0.00285017 2.09225e-06)
(-2.97229e-14 -4.59327e-18 0 260.584 1.14832e-19 1.80423e-06 2.30345 4.33681e-19 -8.17327e-05)
(-3.87185e-15 -1.11175e-18 -1.17601e-20 259.339 0.0015591 -0.000153198 2.32787 -0.00348803 1.06525e-06)
(-1.54871e-14 2.09897e-18 2.89519e-21 259.358 9.01007e-17 -1.22042e-05 2.32802 0 -8.09237e-05)
(0 4.38327e-18 -1.71222e-20 259.032 -0.00313257 -0.000133356 2.36514 0.00311932 1.67479e-06)
(-1.61126e-14 -1.49177e-18 1.71222e-20 259.047 1.24314e-19 -1.89232e-06 2.36526 0 -7.86043e-05)
(5.89885e-15 2.16022e-18 1.4064e-20 260.43 0.00214686 -0.000115009 2.42195 -0.00376062 7.34357e-07)
(1.08387e-14 0 -1.4064e-20 260.442 -1.14244e-19 -1.47019e-05 2.42204 -4.33681e-19 -7.81158e-05)
(-4.34161e-15 0 -5.5787e-21 263.945 -0.00364428 -0.000101083 2.50044 0.00338822 1.38419e-06)
(0 -9.62965e-35 0 263.953 -1.14783e-16 -2.09781e-06 2.5005 0 -7.61435e-05)
(-4.50169e-15 -2.79833e-18 3.38026e-18 269.419 0.0027362 -0.000104511 2.5972 -0.00402498 4.94291e-07)
(0 0 1.63964e-20 269.424 1.37543e-17 0.000320719 2.59724 -4.33681e-19 -7.58919e-05)
(-4.66699e-15 3.44777e-18 -1.848e-20 276.196 -0.0043828 -6.66549e-05 2.70471 0.00397284 2.59398e-06)
(-1.86678e-14 -2.46719e-18 1.34679e-20 276.199 -4.62598e-19 6.75841e-06 2.70474 8.67362e-19 -7.22533e-05)
(1.04074e-14 2.03901e-18 9.09679e-21 283.366 0.00335791 -1.24683e-18 2.81391 -0.00493696 -3.38813e-21)
(-5.56787e-15 -1.92593e-33 -7.9649e-21 283.367 5.55112e-17 0.00104171 2.81392 -2.8297e-34 -7.41774e-05)
(5.02048e-15 -5.35944e-18 1.12533e-20 290.043 -0.00514377 -1.75652e-05 2.91681 0.00588678 7.06845e-06)
(0 -7.70372e-34 -1.04677e-20 290.043 0 2.15919e-05 2.9168 0 -6.4442e-05)
(-5.2101e-15 -1.32066e-18 7.48555e-35 295.62 0.00405064 -6.09864e-19 3.00893 -0.00789463 0)
(0 1.03001e-18 5.15881e-21 295.618 1.1128e-16 0.000431391 3.00891 0 -7.30258e-05)
(0 6.50864e-18 -1.01698e-20 299.993 -0.00579322 4.01572e-05 3.09182 0.00922135 9.44709e-06)
(0 -1.34649e-18 1.01698e-20 299.989 -4.44089e-16 2.74654e-05 3.09177 1.73472e-18 -6.07856e-05)
(-5.61031e-15 0 8.70592e-18 303.764 0.00469427 5.69206e-19 3.17544 -0.011668 0)
(2.24411e-14 0 2.506e-21 303.757 -7.76621e-19 -0.000322332 3.17535 -1.73472e-18 -7.24392e-05)
(0 -1.26468e-17 9.88032e-21 308.349 -0.00629402 9.0404e-05 3.27906 0.0126347 8.21509e-06)
(2.3265e-14 0 -9.88032e-21 308.339 -7.78067e-16 2.24519e-05 3.27893 1.51713e-29 -6.24238e-05)
(-4.18875e-15 -7.47933e-18 2.32687e-17 315.84 0.00527407 1.2484e-18 3.42868 -0.0147728 -3.38813e-21)
(-1.38803e-14 7.93421e-18 1.46081e-20 315.825 0 -0.000724144 3.42849 0 -7.23472e-05)
(1.62956e-14 -9.82951e-18 1.14037e-20 328.519 -0.00670937 0.000123026 3.65024 0.0150046 4.68534e-06)
(-1.00654e-14 0 -9.59913e-21 328.497 -3.60822e-16 1.17513e-05 3.64996 1.36412e-33 -6.72463e-05)
(3.48084e-15 4.84431e-18 5.36232e-18 348.145 0.0057769 -2.87148e-20 3.9612 -0.016432 0)
(-9.92116e-15 0 -4.73078e-21 348.117 4.05158e-16 -0.000308957 3.96085 1.34457e-33 -7.26363e-05)
(6.65911e-15 7.16232e-18 -2.27674e-21 375.367 -0.00719677 0.000142107 4.36516 0.0163631 3.26516e-06)
(2.66364e-14 -3.08149e-32 4.66297e-21 375.332 -4.30211e-16 7.15469e-06 4.36474 0 -6.97457e-05)
(9.6388e-15 4.70645e-18 5.81117e-18 409.581 0.00633358 5.82759e-19 4.85253 -0.0174993 3.38813e-21)
(1.79386e-14 0 -9.19228e-21 409.541 8.60423e-16 0.000145096 4.85206 -5.23403e-33 -7.32325e-05)
(-7.15431e-15 0 -2.20994e-21 449.272 -0.00778103 0.000160348 5.40552 0.017574 4.34161e-06)
(0 -7.70372e-34 -4.53027e-21 449.229 0 9.13175e-06 5.40503 0 -6.94278e-05)
(-7.44593e-15 0 0 492.667 0.00696364 0 6.00684 -0.0188673 0)
(0 3.08149e-32 -4.46533e-21 492.626 4.40652e-16 0.00328785 6.00636 3.54007e-34 -7.41376e-05)
(9.23027e-15 -4.50697e-18 0 538.259 -0.00765397 0.000200496 6.6427 0.0221621 -7.18865e-10)
(-9.23027e-15 4.62223e-32 -6.47236e-21 538.221 -6.6928e-16 -1.10453e-18 6.64229 -3.46945e-18 -4.66383e-05)
(-1.7243e-14 8.88474e-18 1.36481e-17 584.558 0.00747863 -5.40285e-19 7.29432 -0.0267664 3.38813e-21)
(0 1.54074e-33 -1.30148e-20 584.529 -6.16503e-34 -0.00121862 7.29403 0 -7.55499e-05)
(-8.96758e-15 2.18935e-17 -8.55215e-21 629.09 -0.00704584 0.000306065 7.92192 0.0287539 7.79481e-06)
(-3.42558e-14 -2.03123e-17 0 629.074 -5.57143e-16 9.87152e-05 7.92182 0 -5.72946e-05)
(-1.788e-14 2.58957e-17 8.36807e-18 667.048 0.00696751 0.000480118 8.44596 -0.0320737 2.94458e-06)
(3.61635e-14 0 -2.52887e-20 667.053 1.3834e-15 -0.0013933 8.44617 6.93889e-18 -7.74088e-05)
(-8.71236e-15 2.55245e-17 -2.07719e-20 690.12 -0.00663722 0.000586686 8.73238 0.0323793 1.17207e-05)
(8.71236e-15 0 2.07719e-20 690.153 -9.2827e-31 0.00021637 8.733 -6.33769e-34 -7.12732e-05)
(-2.73881e-14 -1.67724e-17 -2.35911e-20 686.023 0.00446471 0.000768116 8.58918 -0.0339929 7.64538e-06)
(5.80265e-14 0 2.04742e-20 686.094 7.36452e-16 0.00096417 8.59035 0 -8.03236e-05)
(2.184e-14 -1.65321e-17 8.07229e-21 639.603 -0.00711421 0.00117387 7.79034 0.0346011 1.99497e-05)
(4.36787e-14 -4.93038e-32 -8.07229e-21 639.719 -7.19207e-16 0.000381477 7.79216 1.00023e-32 -7.0486e-05)
(0 8.14755e-18 1.59132e-20 535.772 0.000620095 0.00146399 6.12256 -0.0365708 1.54646e-05)
(0 -5.23853e-32 -1.59132e-20 535.94 7.77156e-16 0.00122863 6.1251 -2.2614e-33 -8.62491e-05)
(-1.24876e-14 -8.03078e-18 0 363.851 -0.00654315 0.00196228 3.4523 0.0375617 2.12566e-05)
(0 1.07852e-31 0 364.071 -1.61247e-15 0.00039422 3.45558 6.68697e-33 -7.25336e-05)
(-2.56205e-12 -1.58314e-17 -3.73426e-20 0.138954 -0.00173592 0.00221862 0.000929315 -0.0400758 2.28252e-05)
(0 -3.08149e-33 3.86508e-20 -1.42109e-14 -1.90574e-33 0.000665318 -7.98305e-30 3.81148e-33 -9.76471e-05)
(3.00234e-12 0 0 -30.3622 -0.00214353 0.00246362 0.206013 0.041303 3.13536e-05)
(0 0 0 -29.777 -2.90449e-18 0.000114091 0.202042 6.93889e-18 -8.34531e-05)
(-2.79739e-14 7.6904e-18 2.47176e-20 -512.79 -0.00162849 0.00247712 4.65164 -0.0442165 2.38685e-05)
(6.46485e-14 6.16298e-33 -4.50609e-20 -512.448 8.81423e-16 -0.0006282 4.64711 6.93889e-18 -0.000114765)
(-1.08913e-14 1.51604e-17 -3.16538e-20 -849.386 0.00439761 0.00220028 9.50326 0.0453215 3.76979e-05)
(-1.55242e-14 -6.18507e-32 2.96101e-20 -849.032 -8.91363e-16 -0.00031895 9.49837 0 -0.000105436)
(-1.8484e-14 -2.98861e-17 -6.13616e-20 -1151.13 -0.0019872 0.001926 14.2593 -0.0481167 1.67376e-05)
(-3.69714e-14 2.64353e-17 4.37785e-20 -1150.78 3.30441e-18 -0.00168949 14.2543 0 -0.000133628)
(-2.98656e-14 -5.15511e-17 5.57323e-20 -1385.92 0.00844197 0.00126155 18.3958 0.0487693 1.95575e-05)
(5.91399e-14 0 -4.31511e-20 -1385.6 -9.1251e-16 -0.000577747 18.391 6.93889e-18 -0.000131999)
(-1.64214e-14 -5.08123e-17 -1.21683e-19 -1532.43 -0.00523818 0.000757436 21.4773 -0.0509606 5.52402e-06)
(-2.93317e-14 1.40077e-17 8.50652e-20 -1532.16 1.92769e-15 -0.00141487 21.4729 -6.93889e-18 -0.000148393)
(-3.61672e-15 -5.0084e-17 1.31003e-20 -1583.22 0.0086992 -1.74828e-18 23.2398 0.0511543 0)
(1.447e-14 0 -4.1923e-20 -1583.02 9.78627e-16 0.00157238 23.2363 2.83658e-30 -0.00015023)
(1.92491e-15 1.41046e-17 2.37974e-20 -1544.27 -0.00913418 -0.000359699 23.6207 -0.0513786 8.77427e-06)
(0 -3.08149e-33 -1.3774e-20 -1544.15 3.48178e-17 0.000401338 23.6183 0 -0.000137931)
(0 -5.56098e-17 1.49345e-17 -1431.65 0.00741005 -0.000259626 22.7425 0.0510751 1.97727e-06)
(1.87678e-15 0 -5.43065e-20 -1431.62 9.15934e-16 0.000824255 22.7414 4.48603e-30 -0.000147094)
(0 6.8516e-18 4.01461e-20 -1266.6 -0.0108225 -0.000747986 15.6918 -0.0511015 1.84892e-05)
(1.75401e-15 0 -4.01461e-20 -1266.68 -9.15934e-16 0.000168451 15.6938 6.93889e-18 -0.000129203)
(-8.64435e-16 1.35068e-17 6.89259e-18 -1070.81 0.00641973 -0.000577576 6.55617 0.050538 4.52759e-06)
(-8.64435e-16 0 3.95707e-20 -1070.99 -1.22878e-31 0.0043099 6.558 6.93889e-18 -0.000143366)
(2.13011e-16 -1.66415e-18 -2.60024e-20 -863.025 -0.00922994 -0.000741715 -1.08655 -0.0506316 1.98557e-05)
(-2.13011e-16 4.19802e-13 2.60024e-20 -863.31 0 0.000203278 -1.08497 4.33681e-19 1.25488e-09)
(0 0 -2.03001e-20 -657.345 0.00655294 -0.000448948 -7.16153 0.0500447 3.62237e-06)
(0 0 0 -657.689 8.37876e-17 -0.00486072 -7.16026 0 -4.48185e-05)
(0 4.04198e-19 5.05247e-20 -463.038 -0.00742717 -0.000562278 -6.09505 -0.0502767 1.68584e-05)
(-3.09947e-15 0 -5.05247e-20 -463.395 -8.32667e-17 -0.000102437 -6.10089 4.33681e-19 -3.24571e-05)
(0 1.19521e-18 4.2036e-18 -285.399 0.00601251 -0.000173558 -3.36614 0.0497919 1.44139e-06)
(-3.0433e-15 0 2.49003e-20 -285.743 -5.51232e-17 -0.00032937 -3.37172 -6.46091e-34 -3.99232e-05)
(-3.40144e-13 0 -6.27834e-21 -106.166 -0.00601166 -0.000360182 -0.89452 -0.0501525 1.28373e-05)
(0 0 -1.22717e-20 -106.787 1.38778e-17 -0.000102938 -0.899753 3.50301e-35 -3.01685e-05)
(-4.68145e-15 1.1612e-18 1.97183e-20 1.77636e-15 0.005276 0 0 0.0497981 1.35525e-20)
(7.17637e-13 -4.96997e-15 1.20958e-20 0.108343 0 -0.000327718 -0.000926138 0 -3.65263e-05)
(0 -1.90759e-19 3.57673e-20 129.836 -0.00507739 -0.000180585 -1.30204 -0.050263 9.06561e-06)
(0 0 -3.57673e-20 129.565 -0.0638506 -9.52237e-05 -1.29718 -0.000802475 -2.94825e-05)
(0 -1.88025e-19 3.85186e-34 228.73 0.00442773 -9.76358e-21 -3.21578 0.0500305 0)
(0 3.08149e-33 -3.52547e-20 228.483 -2.10228e-17 -0.000281653 -3.21126 -2.1684e-19 -3.45559e-05)
(5.19479e-16 -9.26651e-20 8.04247e-21 309.101 -0.00430609 -2.21435e-05 -4.84604 -0.0505874 5.58016e-06)
(0 9.26651e-20 -3.47494e-20 308.877 -0.0415586 -8.32605e-05 -4.84186 -0.000714366 -2.9916e-05)
(4.00738e-16 5.48022e-19 -2.94908e-34 372.302 0.00369062 -2.18243e-18 -6.20056 0.0504618 -6.11861e-36)
(0 -1.94763e-15 3.42514e-20 372.105 -1.37257e-17 -0.000236056 -6.19675 0 -3.38739e-05)
(0 9.00279e-20 0 420.042 -0.0036356 0.000127234 -5.44182 -0.0448082 -7.07599e-10)
(0 -1.80056e-19 0 419.877 -0.0241542 -7.425e-05 -5.44274 -0.000408066 -3.13463e-05)
(0 -3.5495e-19 1.00798e-20 454.358 0.00314587 -1.07412e-18 -1.36766 0.0381621 0)
(0 0 -3.32766e-20 454.242 -1.17663e-19 -0.000184412 -1.3687 1.0842e-19 -3.43871e-05)
(-7.16519e-16 4.81061e-19 -1.09332e-20 477.491 -0.00297764 0.000281597 3.03034 -0.0284982 -4.73999e-10)
(0 -3.49863e-19 0 477.432 -0.0115646 3.89236e-05 3.0292 -0.000229023 -3.35371e-05)
(0 6.03485e-19 2.10008e-20 491.621 0.00267982 0 7.66507 0.0175283 0)
(0 -5.52738e-19 5.38826e-20 491.61 1.14735e-17 -4.84728e-05 7.66388 1.0842e-19 -3.49155e-05)
(0 6.37324e-20 0 498.615 -0.00241488 -0.00761504 9.81551 -0.00152875 -3.64823e-05)
(0 1.27465e-19 0 498.64 -0.00312708 4.32179e-05 9.81627 -0.00014156 9.10285e-07)
(-1.03282e-15 -1.08886e-18 2.04958e-18 499.854 0.00241899 2.89905e-22 9.93112 0.000814157 0)
(4.12997e-15 0 -6.54364e-22 499.903 9.15535e-20 1.45132e-05 9.93229 0 1.13543e-07)
(-7.12944e-15 5.02178e-19 -6.44985e-22 496.142 -0.00202645 3.94075e-05 9.95317 -0.000676322 1.0292e-06)
(-6.87418e-15 -2.68314e-19 -6.44985e-22 496.207 -0.00131626 -3.37175e-06 9.95461 -0.000119053 3.52997e-08)
(2.42023e-15 -4.88249e-19 1.01127e-18 487.708 0.00201785 2.3459e-20 9.87662 0.000759321 0)
(9.67934e-15 9.62965e-35 -6.35741e-22 487.783 4.33681e-19 1.34816e-05 9.87824 1.0842e-19 -2.83036e-07)
(-3.1318e-15 7.62012e-19 0 474.307 -0.00176047 2.71088e-05 9.6879 -0.000525743 2.2844e-07)
(1.25256e-14 -6.6172e-19 0 474.388 -0.00261297 3.72378e-05 9.68964 -7.12253e-05 -3.09116e-08)
(-3.84837e-15 -7.90589e-20 0 455.398 0.00163437 9.20625e-05 9.36883 0.000686664 8.25123e-07)
(0 -1.2789e-16 0 455.483 7.7251e-18 0.000136714 9.37064 0 -1.43078e-07)
(-4.56346e-15 1.14261e-19 0 430.363 -0.00157573 0.00012541 8.90096 -0.000353629 -4.14056e-07)
(0 2.14296e-19 0 430.449 -0.00230471 0.000179531 8.90283 -3.09182e-05 -5.86037e-09)
(4.79893e-15 -6.9128e-19 0 398.736 0.00128782 0.000196288 8.27099 0.000615064 2.7591e-07)
(1.10052e-14 0 0 398.823 1.41134e-19 0.000195944 8.27288 0 -1.69054e-08)
(1.58761e-14 -6.69073e-19 -2.36588e-21 360.437 -0.00141552 0.000208026 7.47572 -0.000175429 -4.15355e-07)
(-9.9232e-15 5.3942e-19 2.36588e-21 360.524 -0.00204066 0.000208543 7.47761 1.99224e-06 -5.07125e-09)
(0 -3.73115e-19 2.33197e-21 315.927 0.00104836 0.000204579 6.52537 0.00054393 2.89548e-07)
(0 -1.73334e-33 0 316.012 6.14225e-18 0.000204279 6.52724 7.24921e-35 -1.52566e-08)
(-7.20648e-15 -1.4782e-17 0 266.257 1.45093e-19 0.000191916 5.44412 0 -4.07279e-07)
(0 6.06816e-19 0 266.339 -0.00175867 0.000192385 5.44594 2.97311e-05 -4.93069e-09)
(0 -1.15999e-18 0 213.03 0.000892252 0.000163483 4.26968 0.000475428 3.01325e-07)
(6.19756e-14 0 0 213.108 5.85469e-18 0.000163223 4.27141 1.88079e-32 -1.27902e-08)
(0 -1.09212e-17 -2.23313e-21 158.314 0 0.000129265 3.05173 0 -3.92901e-07)
(3.28493e-14 2.67975e-19 0 158.386 -0.00141295 0.00012969 3.05335 5.40934e-05 -5.30749e-09)
(-1.7824e-14 8.45231e-19 -4.40224e-21 104.435 0.000824224 8.68528e-05 1.84542 0.00041244 3.10215e-07)
(-3.43663e-14 -1.16198e-16 0 104.502 -1.25288e-19 8.66197e-05 1.8469 5.42101e-20 -9.70036e-09)
(2.21923e-16 -7.65948e-18 3.46143e-19 53.7243 -1.07336e-17 1.6438e-05 0.706758 0 -3.74896e-07)
(-3.55109e-14 -3.38725e-19 -2.15509e-18 53.7831 -0.00110531 0 0.708075 7.70927e-05 -6.07664e-09)
(1.90785e-13 3.42156e-19 -4.27696e-21 7.6412e-13 0.00078768 6.74062e-06 0 0.000355327 1.29587e-07)
(0 -2.73725e-19 0 0.0612771 4.65098e-18 6.53059e-06 0.000740702 -5.42101e-20 -6.3131e-09)
(1.04294e-13 -1.20912e-17 3.67142e-19 -25.4718 9.75782e-18 -7.83953e-06 0.312374 1.0842e-19 -3.55023e-07)
(-1.7502e-13 -2.04459e-19 -9.70694e-25 -25.38 -0.000884318 0 0.311248 9.95106e-05 -6.99459e-09)
(-8.66829e-15 9.64015e-19 -4.15524e-21 -60.2213 0.000718351 -4.79728e-05 1.16936 0.000302934 3.19887e-07)
(0 0 0 -60.1891 1.14754e-19 -4.81632e-05 1.16844 0 -2.83022e-09)
(0 -1.00421e-17 -4.09568e-21 -81.4499 -8.89046e-18 -6.01107e-05 1.83249 1.0842e-19 -3.34523e-07)
(6.83279e-14 1.63008e-18 4.09568e-21 -81.4275 -0.000733932 -5.98177e-05 1.8318 0.000120563 -7.88651e-09)
(0 -3.55254e-19 4.03698e-21 -93.6572 0.000578005 -6.59545e-05 2.28326 0.000254141 3.22039e-07)
(7.5026e-14 0 0 -93.6445 4.33902e-18 -6.61206e-05 2.28281 5.42101e-20 5.74566e-10)
(-1.6226e-14 2.26297e-33 0 -97.1993 8.34156e-18 -6.31692e-05 2.51603 5.92174e-35 -3.14446e-07)
(0 0 0 -97.196 -0.000642074 -6.29059e-05 2.51583 0.000138376 -8.55827e-09)
(-7.93434e-15 0 0 -92.7866 0.000444426 -5.75219e-05 2.53556 0.00020784 3.22949e-07)
(6.3475e-14 -1.05926e-33 0 -92.7923 -4.01155e-18 -5.76603e-05 2.5356 -8.54175e-35 3.82686e-09)
(7.7959e-15 -1.17295e-17 0 -81.3808 -7.17563e-18 -4.79344e-05 2.35538 0 -2.95154e-07)
(0 5.41222e-19 0 -81.3946 -0.000577638 -4.76921e-05 2.35565 0.000152936 -8.85841e-09)
(-7.70742e-15 0 0 -64.0853 0.000352757 -3.85556e-05 1.99528 0.000163549 3.22821e-07)
(0 0 0 -64.106 5.92265e-35 -3.86587e-05 1.99575 0 6.94934e-09)
(-7.67644e-15 0 0 -42.0758 0 -2.7681e-05 1.47892 -7.95449e-35 -2.76868e-07)
(3.07055e-14 -4.80749e-19 0 -42.102 -0.000505445 -2.74456e-05 1.47957 0.000165186 -8.69094e-09)
(-2.13484e-13 3.25778e-19 0 -6.20913 0.000303733 -1.74478e-05 0.833091 0.000121647 3.21298e-07)
(2.30689e-14 0 -1.85101e-21 -6.2721 3.57787e-18 -1.75124e-05 0.83388 0 1.00448e-08)
(-1.54333e-14 -2.40741e-35 0 0.0238354 0 -4.38708e-06 0.728817 0 -2.59298e-07)
(1.01017e-16 0 -1.11179e-24 1.721e-14 -0.000409435 0 0.727902 0.000176183 -8.0113e-09)
(-7.64924e-15 5.46693e-19 0 40.0318 0.000254384 9.29548e-06 1.579 8.30124e-05 3.18221e-07)
(-7.54275e-15 -1.41259e-17 0 40.0004 -3.46945e-18 9.27617e-06 1.57811 -5.42101e-20 1.32747e-08)
(0 -3.91984e-18 0 68.562 2.71051e-20 2.67537e-05 2.4265 -1.0842e-19 -2.42368e-07)
(-3.0565e-14 6.09759e-19 3.54511e-21 68.5327 -0.000327834 2.70049e-05 2.42569 0.000185837 -6.82356e-09)
(7.69797e-15 -4.75225e-19 3.4943e-21 95.489 0.000237448 4.76432e-05 3.2304 4.74889e-05 3.13114e-07)
(3.07921e-14 -1.54074e-33 -3.4943e-21 95.4637 5.42101e-20 4.76701e-05 3.22972 5.42101e-20 1.68186e-08)
(7.82257e-15 -6.17568e-18 0 119.466 -5.06865e-18 7.12496e-05 3.94765 0 -2.25803e-07)
(-3.12904e-14 5.31201e-19 0 119.446 -0.000318746 7.15176e-05 3.94714 0.000184055 -5.1758e-09)
(-8.01495e-15 4.07383e-19 0 139.19 0.000176709 9.43795e-05 4.53524 1.31444e-05 3.06013e-07)
(2.49402e-14 8.66668e-34 0 139.176 -3.03577e-18 9.44545e-05 4.53493 5.42101e-20 2.08366e-08)
(0 -9.10208e-19 0 153.474 2.71051e-20 0.000119661 4.95249 0 -2.09716e-07)
(0 -3.48005e-19 0 153.467 -0.000255035 0.000119948 4.95238 0.000154589 -3.13873e-09)
(-1.38338e-14 4.22175e-19 -3.29824e-21 161.338 0.000129654 0.00014452 5.16473 -1.82064e-05 2.9679e-07)
(3.43434e-14 4.81482e-35 -6.59648e-21 161.338 -1.82111e-34 0.000144636 5.16482 -5.42101e-20 2.54125e-08)
(8.94675e-15 -3.47702e-18 0 162.112 -4.25549e-18 0.00017085 5.14713 5.42101e-20 -1.93964e-07)
(0 4.68139e-19 0 162.118 -0.000207524 0.000171148 5.14742 0.000131231 -8.13133e-10)
(0 4.87065e-19 3.20437e-21 155.534 0.000134912 0.000199271 4.88843 -4.68491e-05 2.85857e-07)
(-3.73587e-14 -6.30506e-18 -3.20437e-21 155.545 -8.7945e-20 0.000199416 4.88889 5.42101e-20 3.0505e-08)
(-1.32475e-14 -5.84837e-19 -6.31689e-21 141.812 3.88958e-18 0.000233089 4.39293 0 -1.78638e-07)
(0 2.0214e-19 0 141.828 -0.000144281 0.000233388 4.39351 0.000109995 1.68949e-09)
(0 4.73203e-19 0 121.652 0.000165251 0.000274829 3.68274 -7.1821e-05 2.73299e-07)
(0 -6.58986e-18 -6.22635e-21 121.671 1.45942e-19 0.000274986 3.68342 0 3.5923e-08)
(1.05297e-14 0 6.13711e-21 96.2411 0 0.000328339 2.79671 -5.42101e-20 -1.63446e-07)
(0 -8.83744e-19 -6.13711e-21 96.2622 -8.23284e-05 0.000328621 2.79745 9.03733e-05 4.26195e-09)
(1.08637e-14 4.79406e-19 0 67.166 0.000174382 0.000395148 1.78825 -6.12386e-05 2.59608e-07)
(0 -6.33609e-18 0 67.1879 -2.49366e-18 0.0003953 1.78902 0 4.13508e-08)
(-2.22719e-14 0 0 36.2829 6.45397e-18 0.000477128 0.720834 6.21279e-35 -1.48357e-07)
(4.45434e-14 8.65858e-20 0 36.3047 -5.73064e-05 0.000477381 0.721582 7.38237e-05 6.81564e-09)
(3.2282e-14 8.68802e-21 0 0.0191927 0.000109609 0.000570775 0.000337669 -5.05878e-05 2.44957e-07)
(0 0 0 0.0338688 -1.17446e-34 0.000570906 0.000595875 5.42101e-20 4.64206e-08)
(9.86516e-14 -9.17984e-19 0 -18.9601 -2.95445e-18 0.000673225 0.338426 0 -1.33207e-07)
(-2.42966e-14 -3.47566e-19 -1.15855e-20 -18.9207 -9.90507e-05 0.000673437 0.337724 6.31918e-05 9.31178e-09)
(0 4.79618e-19 0 -48.3144 -2.50443e-05 0.000775258 1.32437 -4.29154e-05 2.29981e-07)
(0 -4.17324e-20 -1.14195e-20 -48.2984 -2.22046e-18 0.000775364 1.32374 0 5.0844e-08)
(-1.18026e-14 -2.38752e-18 0 -68.6552 1.0093e-19 0.00086651 2.18152 0 -1.18425e-07)
(-1.18026e-14 -3.37674e-19 -2.25116e-20 -68.6422 -0.00023093 0.000866686 2.18098 5.91836e-05 1.17749e-08)
(1.16334e-14 4.88157e-19 0 -83.536 -0.000169394 0.000935326 2.86886 -4.27872e-05 2.1494e-07)
(7.17441e-14 -1.54074e-33 0 -83.5263 -2.1413e-18 0.000935411 2.86844 5.42101e-20 5.45117e-08)
(-2.02404e-14 0 0 -92.8185 5.42101e-20 0.000968484 3.36297 -5.42101e-20 -1.04428e-07)
(4.0481e-14 9.72882e-20 0 -92.812 -0.000375635 0.000968633 3.36266 5.62908e-05 1.4297e-08)
(9.82496e-15 -3.64325e-19 0 -96.8748 -0.000306901 0.000952607 3.66015 -4.1777e-05 2.00371e-07)
(0 0 4.31149e-20 -96.8715 0 0.000952687 3.65997 0 5.75228e-08)
(0 -5.17503e-18 0 -96.4856 2.59126e-18 0.000880128 3.77504 5.42101e-20 -9.1987e-08)
(-3.81885e-14 -1.57148e-19 0 -96.4849 -0.00041906 0.000880266 3.77496 5.30316e-05 1.70128e-08)
(-2.02737e-14 -7.92716e-19 0 -92.7044 -0.00028505 0.000748446 3.73685 -3.52642e-05 1.86329e-07)
(4.81531e-14 0 0 -92.7057 7.15294e-20 0.000748533 3.73687 0 6.00967e-08)
(0 -3.42214e-18 0 -86.7192 -2.43945e-18 0.000560772 3.58477 0 -8.1501e-08)
(0 -3.50944e-19 -4.12875e-20 -86.7219 -0.000320755 0.000560909 3.58486 4.46943e-05 2.00305e-08)
(1.06682e-14 -3.25566e-19 0 -79.7142 -0.000117047 0.00032691 3.36318 -2.24804e-05 1.73188e-07)
(0 -9.62965e-35 4.06958e-20 -79.7176 -3.33392e-18 0.000327011 3.36331 2.71051e-20 6.24782e-08)
(-8.68088e-15 1.31204e-33 0 -72.738 4.71656e-18 8.09469e-06 3.11611 1.32045e-35 -7.35141e-08)
(0 0 0 -72.7413 -6.81654e-05 1.3546e-20 3.11625 3.04216e-05 -3.30872e-24)
(-6.6622e-15 -1.14407e-18 4.42532e-19 -66.6123 0.000157476 -0.000143238 2.88207 -1.99624e-05 1.6104e-07)
(6.81071e-14 1.54074e-33 3.21233e-18 -66.6151 1.43923e-18 -0.000143345 2.8822 1.27183e-33 6.48271e-08)
(0 -4.51439e-20 0 -61.8919 2.37609e-18 -0.000455583 2.69104 5.42101e-20 -6.82259e-08)
(-1.0216e-14 -1.94855e-19 -3.89709e-20 -61.8938 0.000202908 -0.000455437 2.69114 3.12442e-05 2.69467e-08)
(0 3.84124e-19 0 -58.8557 0.000367011 -0.000669472 2.56281 -2.72856e-05 1.5049e-07)
(-1.00696e-14 -1.92062e-19 -3.84124e-20 -58.8565 1.51788e-18 -0.000669359 2.56286 0 6.71749e-08)
(-1.41558e-14 -1.08872e-18 0 -57.525 0.000190442 -0.000829762 2.50644 -4.16064e-06 -6.60391e-08)
(6.42165e-14 1.64272e-18 0 -57.5246 0.000340904 -0.000829623 2.50644 3.15734e-05 3.04944e-08)
(0 -1.36215e-18 0 -57.7051 0.000408053 -0.000927925 2.52074 -2.86903e-05 1.42104e-07)
(6.28014e-14 1.54804e-17 0 -57.7038 0.000109789 -0.000927822 2.5207 2.43348e-06 6.94283e-08)
(-7.65957e-15 6.58697e-19 0 -59.0465 0.000326118 -0.000963146 2.59595 -7.33353e-06 -6.7266e-08)
(0 -4.78196e-19 -1.83921e-20 -59.0443 0.000293801 -0.000963027 2.59587 2.41505e-05 3.38135e-08)
(7.45442e-15 -1.38805e-18 0 -61.1068 0.00029222 -0.000941151 2.71611 -2.21554e-05 1.36969e-07)
(5.96358e-14 1.44574e-17 0 -61.1041 4.80523e-06 -0.000941067 2.716 1.09628e-07 7.13919e-08)
(0 -8.75567e-19 0 -63.4129 0.000168781 -0.00087259 2.86138 -4.38352e-06 -7.26402e-08)
(2.89431e-14 1.01577e-18 0 -63.41 0.000135817 -0.000872496 2.86124 1.25548e-05 3.66769e-08)
(7.00608e-15 -5.05457e-19 0 -65.5232 9.47483e-05 -0.000773036 3.01074 -1.12928e-05 1.35979e-07)
(0 -9.62965e-35 0 -65.5203 -1.6263e-18 -0.000772974 3.0106 -6.59945e-35 7.29495e-08)
(1.35385e-14 -2.82192e-21 0 -67.0683 3.95794e-18 -0.000656497 3.14485 2.71051e-20 -8.29579e-08)
(1.79755e-14 -6.1922e-20 -8.68008e-21 -67.0658 -2.88993e-05 -0.000656429 3.14472 6.28914e-06 3.90405e-08)
(0 4.10672e-19 8.55568e-21 -67.7755 -4.66491e-05 -0.000466748 3.24725 -7.53633e-06 1.40429e-07)
(-8.97128e-15 8.47108e-35 -8.55568e-21 -67.7736 -1.52601e-19 -0.000535979 3.24714 0 7.40228e-08)
(0 -5.56162e-19 4.21653e-21 -67.4878 -7.72176e-05 -0.000144293 3.30585 -1.89353e-06 1.58682e-06)
(2.5169e-14 6.14963e-19 0 -67.4866 -0.000130354 -0.000395259 3.30578 1.09789e-05 4.09658e-08)
(1.21223e-14 -5.48623e-19 5.69913e-21 -66.1636 -0.000107455 3.85768e-05 3.31394 -8.84997e-06 1.42271e-06)
(0 4.82107e-19 -4.15609e-21 -66.1632 -6.99629e-05 -0.000146727 3.3139 1.74058e-06 -2.25387e-06)
(5.84033e-15 -1.16995e-18 5.19583e-21 -63.8609 -0.000107436 3.9499e-05 3.26996 -2.71172e-06 2.57347e-06)
(2.33615e-14 1.08964e-18 -4.09652e-21 -63.8613 -0.000149506 2.23906e-05 3.26996 1.2036e-05 -2.25756e-06)
(-8.4679e-15 -8.88318e-19 4.03781e-21 -60.7186 -0.000101803 3.88841e-05 3.17684 -7.75231e-06 1.40094e-06)
(3.09993e-14 1.39339e-18 -4.03781e-21 -60.7197 -0.000116883 2.23619e-05 3.17688 2.99306e-06 -2.47983e-06)
(-5.44054e-15 -1.34297e-19 -1.80615e-21 -56.9377 -5.92967e-05 3.99828e-05 3.04155 -1.54051e-06 2.76387e-06)
(-2.17623e-14 6.9896e-20 -3.97994e-21 -56.9395 -0.000125221 2.2165e-05 3.04163 1.07505e-05 -2.46725e-06)
(-1.34912e-14 8.53981e-20 -1.01746e-20 -52.7531 -6.67919e-05 3.8758e-05 2.87414 -5.53015e-06 1.3119e-06)
(0 1.25533e-19 -3.9229e-21 -52.7553 -8.34901e-05 2.20031e-05 2.87425 2.20059e-06 -2.73223e-06)
(-5.10402e-15 -1.54848e-19 -2.20486e-21 -48.4096 -2.25946e-05 4.0008e-05 2.68625 -6.04197e-07 2.97951e-06)
(-2.04162e-14 6.47619e-20 -3.86667e-21 -48.412 -9.39804e-05 2.16099e-05 2.68638 8.3986e-06 -2.69074e-06)
(0 -2.7441e-19 7.6225e-21 -44.1467 -3.42236e-05 3.80713e-05 2.49036 -3.1279e-06 1.13863e-06)
(7.99277e-15 4.11615e-19 -7.6225e-21 -44.1493 -5.91523e-05 2.1277e-05 2.4905 1.60478e-06 -3.01215e-06)