/*--------------------------------*- C++ -*----------------------------------*\
| =========                 |                                                 |
| \\      /  F ield         | OpenFOAM: The Open Source CFD Toolbox           |
|  \\    /   O peration     | Version:  2012                                  |
|   \\  /    A nd           | Website:  www.openfoam.com                      |
|    \\/     M anipulation  |                                                 |
\*---------------------------------------------------------------------------*/
FoamFile
{
    version     2.0;
    format      ascii;
    class       volScalarField;
    location    "15000";
    object      omega;
}
// * * * * * * * * * * * * * * * * * * * * * * * * * * * * * * * * * * * * * //

dimensions      [0 0 -1 0 0 0 0];


internalField   nonuniform List<scalar> 
2560
(
1.52416e+06
1.52416e+06
264822
264824
88686.8
88689.1
40843.1
40844.7
23358.6
23359.4
15799.3
15799.6
11932.8
11932.9
9651.49
9651.48
8158.33
8158.28
7106.47
7106.4
6324.99
6324.91
5720.9
5720.82
5239.49
5239.41
4846.56
4846.48
4519.59
4519.52
4243.22
4243.15
4006.53
4006.46
3801.6
3801.53
3622.52
3622.46
3464.78
3464.72
3324.9
3324.84
3200.12
3200.06
3088.23
3088.17
2987.45
2987.4
2896.34
2896.29
2813.69
2813.64
2738.5
2738.45
2669.93
2669.88
2607.28
2607.23
2549.94
2549.89
2497.39
2497.34
2449.19
2449.14
2404.96
2404.91
2364.36
2364.31
2327.09
2327.05
2292.89
2292.85
2261.53
2261.48
2232.79
2232.74
2206.49
2206.44
2182.47
2182.43
2160.6
2160.55
2140.73
2140.68
2122.77
2122.72
2106.6
2106.55
2092.12
2092.07
2079.23
2079.18
2067.8
2067.75
2057.73
2057.67
2048.86
2048.81
2041.05
2041
2034.16
2034.11
2028.01
2027.96
2022.44
2022.39
2017.3
2017.25
2012.49
2012.44
2008.02
2007.96
2004.02
2003.97
2000.83
2000.77
1998.86
1998.79
1998.45
1998.38
1999.61
1999.54
2001.61
2001.54
2003.18
2003.11
2002.6
2002.53
1998.13
1998.06
1988.44
1988.38
1972.93
1972.87
1951.72
1951.68
1925.6
1925.57
1895.71
1895.68
1863.31
1863.29
1829.57
1829.55
1795.44
1795.42
1761.63
1761.62
1728.62
1728.6
1696.66
1696.64
1665.81
1665.79
1636.02
1636.01
1607.16
1607.15
1579.04
1579.03
1551.47
1551.46
1524.25
1524.24
1497.21
1497.21
1470.22
1470.21
1443.14
1443.14
1415.89
1415.89
1388.39
1388.4
1360.6
1360.61
1332.48
1332.5
1304.04
1304.06
1275.29
1275.31
1246.3
1246.32
1217.15
1217.17
1187.96
1187.97
1158.87
1158.89
1130.03
1130.05
1101.59
1101.61
1073.68
1073.7
1046.38
1046.4
1019.75
1019.77
993.803
993.82
968.534
968.55
943.91
943.926
919.897
919.913
896.468
896.483
873.604
873.619
851.306
851.321
829.585
829.599
808.46
808.474
787.955
787.968
768.085
768.098
748.852
748.864
730.234
730.246
712.19
712.202
694.657
694.668
677.553
677.564
660.793
660.804
644.294
644.305
627.993
628.003
611.856
611.866
595.884
595.894
580.117
580.127
564.62
564.629
549.47
549.479
534.743
534.752
520.493
520.501
506.742
506.749
493.481
493.488
480.668
480.675
468.244
468.251
456.152
456.158
444.339
444.345
432.772
432.778
421.437
421.443
410.335
410.34
399.477
399.482
388.881
388.886
378.564
378.569
368.541
368.546
358.819
358.824
349.403
349.408
340.289
340.293
331.469
331.473
322.931
322.935
314.657
314.661
306.629
306.633
298.827
298.831
291.233
291.237
283.832
283.835
276.614
276.617
269.574
269.577
262.715
262.718
256.041
256.044
249.565
249.567
243.297
243.299
237.251
237.253
231.439
231.442
225.874
225.876
220.565
220.566
215.516
215.517
210.733
210.734
206.216
206.216
201.962
201.962
197.966
197.965
194.217
194.216
190.7
190.699
187.395
187.393
184.276
184.274
181.311
181.308
178.46
178.457
175.682
175.678
172.93
172.926
170.161
170.157
167.335
167.33
164.421
164.416
161.401
161.397
158.275
158.271
155.06
155.057
151.793
151.791
148.523
148.522
145.309
145.309
142.21
142.21
139.275
139.275
136.539
136.539
134.014
134.014
131.69
131.69
129.533
129.533
127.496
127.497
125.526
125.528
123.571
123.574
121.586
121.59
119.535
119.539
117.398
117.403
115.167
115.171
112.845
112.849
110.442
110.446
107.977
107.981
105.47
105.473
102.943
102.946
100.418
100.421
97.9165
97.9189
95.4577
95.4599
93.059
93.0609
90.7354
90.737
88.4997
88.5011
86.3626
86.3638
84.3327
84.3338
82.4167
82.4176
80.6194
80.6202
78.9433
78.944
77.3889
77.3895
75.9541
75.9546
74.6334
74.6338
73.418
73.4183
72.2952
72.2954
71.2481
71.2482
70.2562
70.2562
69.2953
69.2952
68.3391
68.339
67.3607
67.3606
66.3341
66.334
65.237
65.2369
64.0525
64.0524
62.7716
62.7715
61.3945
61.3944
59.9316
59.9315
58.4029
58.4029
56.836
56.8362
55.2627
55.263
53.7136
53.7139
52.2133
52.2136
50.7782
50.7785
49.4088
49.4091
48.0951
48.0954
46.8205
46.8208
45.5661
45.5664
44.3163
44.3166
43.0619
43.0623
41.8018
41.8022
40.5417
40.542
39.2919
39.2922
38.0644
38.0647
36.8702
36.8704
35.7169
35.7172
34.609
34.6092
33.5472
33.5474
32.5306
32.5308
31.5571
31.5572
30.6247
30.6248
29.7325
29.7326
28.88
28.8801
28.0675
28.0675
27.2947
27.2948
26.5613
26.5614
25.8658
25.8659
25.2061
25.2061
24.5792
24.5793
23.9823
23.9824
23.4125
23.4126
22.8674
22.8675
22.345
22.3451
21.8441
21.8441
21.3639
21.364
20.9043
20.9044
20.4654
20.4655
20.0476
20.0476
19.6512
19.6512
19.2764
19.2764
18.9231
18.9231
18.591
18.591
18.2795
18.2795
17.9877
17.9877
17.7148
17.7148
17.4597
17.4597
17.2218
17.2218
17.0002
17.0003
16.7944
16.7944
16.6038
16.6038
16.4277
16.4277
16.2657
16.2657
16.1172
16.1172
15.9817
15.9817
15.8587
15.8587
15.7477
15.7477
15.6482
15.6482
15.5597
15.5597
15.4819
15.4819
15.4144
15.4144
15.3571
15.3571
15.3098
15.3098
15.2727
15.2727
15.2457
15.2457
15.2289
15.2289
15.2223
15.2223
15.2258
15.2258
15.2392
15.2392
15.2623
15.2623
15.295
15.295
15.337
15.337
15.3883
15.3883
15.4489
15.4489
15.5188
15.5188
15.5984
15.5984
15.6877
15.6877
15.7873
15.7873
15.8973
15.8973
16.0181
16.0181
16.1501
16.1501
16.2935
16.2935
16.4488
16.4488
16.6163
16.6163
16.7963
16.7963
16.9892
16.9892
17.1951
17.1951
17.4142
17.4142
17.6459
17.6459
17.8882
17.8882
18.1329
18.1329
18.3498
18.3498
18.3317
18.3317
1.52416e+06
1.52416e+06
264822
264822
88687.9
88687
40843.8
40843.2
23358.9
23358.7
15799.4
15799.3
11932.7
11932.8
9651.41
9651.49
8158.24
8158.34
7106.38
7106.47
6324.9
6324.99
5720.81
5720.9
5239.41
5239.49
4846.48
4846.56
4519.52
4519.6
4243.15
4243.22
4006.46
4006.53
3801.54
3801.6
3622.46
3622.52
3464.73
3464.79
3324.85
3324.9
3200.06
3200.12
3088.17
3088.23
2987.4
2987.45
2896.29
2896.34
2813.64
2813.69
2738.45
2738.5
2669.89
2669.93
2607.24
2607.28
2549.89
2549.94
2497.34
2497.39
2449.15
2449.19
2404.92
2404.96
2364.32
2364.36
2327.05
2327.09
2292.85
2292.89
2261.49
2261.53
2232.75
2232.79
2206.45
2206.49
2182.43
2182.48
2160.56
2160.6
2140.69
2140.73
2122.73
2122.77
2106.56
2106.6
2092.08
2092.12
2079.19
2079.23
2067.76
2067.8
2057.68
2057.73
2048.82
2048.86
2041.01
2041.06
2034.12
2034.16
2027.97
2028.01
2022.4
2022.44
2017.26
2017.3
2012.45
2012.49
2007.97
2008.02
2003.98
2004.03
2000.79
2000.84
1998.81
1998.86
1998.4
1998.45
1999.55
1999.61
2001.56
2001.62
2003.12
2003.18
2002.54
2002.6
1998.07
1998.13
1988.39
1988.45
1972.88
1972.93
1951.68
1951.73
1925.57
1925.61
1895.69
1895.72
1863.29
1863.32
1829.55
1829.57
1795.42
1795.44
1761.62
1761.64
1728.6
1728.62
1696.64
1696.66
1665.79
1665.81
1636.01
1636.02
1607.15
1607.16
1579.03
1579.05
1551.46
1551.47
1524.24
1524.25
1497.21
1497.22
1470.21
1470.22
1443.14
1443.14
1415.89
1415.89
1388.4
1388.39
1360.61
1360.6
1332.49
1332.49
1304.05
1304.04
1275.31
1275.3
1246.31
1246.3
1217.16
1217.15
1187.97
1187.96
1158.88
1158.87
1130.05
1130.03
1101.61
1101.6
1073.69
1073.68
1046.39
1046.38
1019.76
1019.75
993.816
993.805
968.546
968.536
943.922
943.912
919.909
919.9
896.479
896.47
873.615
873.607
851.317
851.308
829.595
829.587
808.47
808.462
787.964
787.957
768.094
768.087
748.861
748.854
730.243
730.236
712.198
712.192
694.664
694.658
677.561
677.555
660.801
660.795
644.301
644.296
628
627.994
611.862
611.857
595.891
595.886
580.124
580.118
564.626
564.621
549.476
549.471
534.749
534.744
520.498
520.494
506.746
506.742
493.486
493.482
480.672
480.668
468.249
468.245
456.156
456.152
444.343
444.339
432.776
432.773
421.441
421.438
410.338
410.335
399.48
399.477
388.884
388.881
378.567
378.564
368.543
368.541
358.822
358.819
349.405
349.403
340.291
340.289
331.471
331.469
322.933
322.931
314.659
314.657
306.631
306.629
298.829
298.827
291.235
291.233
283.833
283.832
276.615
276.614
269.575
269.574
262.716
262.714
256.042
256.041
249.565
249.564
243.297
243.296
237.251
237.25
231.44
231.439
225.875
225.874
220.564
220.564
215.516
215.516
210.733
210.733
206.215
206.215
201.961
201.962
197.964
197.965
194.215
194.216
190.698
190.699
187.393
187.394
184.273
184.275
181.307
181.31
178.456
178.459
175.678
175.681
172.926
172.929
170.156
170.16
167.33
167.334
164.416
164.42
161.396
161.4
158.271
158.275
155.057
155.06
151.79
151.793
148.521
148.523
145.308
145.309
142.209
142.209
139.274
139.275
136.538
136.539
134.014
134.014
131.689
131.689
129.532
129.532
127.496
127.496
125.527
125.526
123.573
123.571
121.589
121.586
119.538
119.535
117.401
117.398
115.17
115.167
112.848
112.845
110.445
110.442
107.98
107.977
105.472
105.47
102.945
102.943
100.42
100.418
97.9179
97.9163
95.4589
95.4575
93.06
93.0588
90.7362
90.7351
88.5003
88.4993
86.363
86.3622
84.3329
84.3322
82.4168
82.4162
80.6192
80.6187
78.943
78.9426
77.3885
77.3881
75.9535
75.9532
74.6326
74.6324
73.417
73.4169
72.2941
72.294
71.2469
71.2469
70.2548
70.2549
69.2938
69.294
68.3377
68.3378
67.3592
67.3595
66.3328
66.333
65.2358
65.236
64.0515
64.0517
62.7707
62.771
61.3938
61.394
59.9312
59.9313
58.4027
58.4028
56.8361
56.836
55.2629
55.2627
53.7138
53.7135
52.2134
52.2131
50.7782
50.7779
49.4086
49.4084
48.0949
48.0947
46.8202
46.8199
45.5659
45.5656
44.3162
44.3158
43.062
43.0616
41.8021
41.8016
40.542
40.5416
39.2923
39.2919
38.0649
38.0645
36.8706
36.8703
35.7173
35.717
34.6093
34.609
33.5475
33.5472
32.5308
32.5306
31.5572
31.557
30.6248
30.6247
29.7326
29.7324
28.8801
28.88
28.0675
28.0674
27.2947
27.2946
26.5613
26.5611
25.8658
25.8656
25.2059
25.2058
24.5791
24.579
23.9822
23.9821
23.4124
23.4123
22.8674
22.8673
22.345
22.3449
21.8442
21.8441
21.364
21.364
20.9045
20.9044
20.4656
20.4655
20.0478
20.0477
19.6513
19.6513
19.2765
19.2765
18.9232
18.9232
18.5911
18.5911
18.2796
18.2796
17.9878
17.9878
17.7148
17.7148
17.4598
17.4597
17.2218
17.2218
17.0003
17.0003
16.7945
16.7945
16.6038
16.6038
16.4277
16.4277
16.2657
16.2657
16.1172
16.1172
15.9817
15.9817
15.8587
15.8587
15.7477
15.7477
15.6482
15.6482
15.5597
15.5597
15.4819
15.4819
15.4144
15.4144
15.3571
15.3571
15.3098
15.3098
15.2727
15.2727
15.2457
15.2457
15.2289
15.2289
15.2223
15.2223
15.2258
15.2258
15.2392
15.2392
15.2623
15.2623
15.295
15.295
15.337
15.337
15.3883
15.3883
15.4489
15.4489
15.5188
15.5188
15.5984
15.5984
15.6877
15.6877
15.7873
15.7873
15.8973
15.8973
16.0181
16.0181
16.15
16.1501
16.2935
16.2935
16.4488
16.4488
16.6163
16.6163
16.7963
16.7963
16.9891
16.9891
17.195
17.195
17.414
17.414
17.6457
17.6457
17.8879
17.8879
18.1325
18.1325
18.3494
18.3494
18.3314
18.3314
18.3318
18.3318
18.35
18.35
18.1331
18.1331
17.8884
17.8884
17.6461
17.6462
17.4144
17.4144
17.1953
17.1953
16.9894
16.9894
16.7965
16.7965
16.6165
16.6165
16.449
16.449
16.2937
16.2937
16.1502
16.1502
16.0182
16.0182
15.8974
15.8974
15.7874
15.7874
15.6879
15.6879
15.5985
15.5985
15.5189
15.5189
15.4489
15.4489
15.3884
15.3884
15.3371
15.3371
15.295
15.2951
15.2624
15.2624
15.2392
15.2392
15.2258
15.2258
15.2223
15.2223
15.2289
15.2289
15.2457
15.2457
15.2726
15.2726
15.3097
15.3097
15.357
15.357
15.4143
15.4143
15.4817
15.4817
15.5595
15.5595
15.6479
15.6479
15.7473
15.7473
15.8582
15.8582
15.9812
15.9812
16.1166
16.1166
16.265
16.265
16.427
16.427
16.603
16.603
16.7936
16.7936
16.9993
16.9993
17.2207
17.2207
17.4586
17.4586
17.7135
17.7135
17.9864
17.9864
18.2781
18.2781
18.5895
18.5895
18.9214
18.9214
19.2746
19.2746
19.6493
19.6493
20.0456
20.0456
20.4633
20.4632
20.902
20.902
21.3615
21.3615
21.8415
21.8415
22.3422
22.3422
22.8643
22.8643
23.4092
23.4092
23.9788
23.9787
24.5755
24.5755
25.2022
25.2022
25.8619
25.8618
26.5572
26.5572
27.2905
27.2904
28.063
28.063
28.8754
28.8753
29.7277
29.7276
30.6197
30.6196
31.5519
31.5518
32.5253
32.5252
33.5419
33.5417
34.6036
34.6033
35.7115
35.7112
36.8647
36.8644
38.059
38.0587
39.2867
39.2863
40.5368
40.5364
41.7974
41.797
43.0579
43.0575
44.3126
44.3122
45.5627
45.5624
46.8175
46.8171
48.0924
48.0921
49.4062
49.4059
50.7758
50.7754
52.211
52.2106
53.7115
53.7111
55.2608
55.2605
56.8343
56.8341
58.4016
58.4015
59.9308
59.9308
61.3939
61.394
62.7709
62.771
64.0516
64.0518
65.2358
65.236
66.3326
66.3328
67.359
67.3592
68.3375
68.3376
69.2938
69.2938
70.2547
70.2547
71.2466
71.2465
72.2935
72.2933
73.4162
73.4159
74.6314
74.631
75.9519
75.9514
77.3866
77.386
78.9408
78.94
80.6167
80.6158
82.4138
82.4128
84.3296
84.3285
86.3594
86.358
88.4964
88.4948
90.7319
90.7301
93.0554
93.0533
95.454
95.4517
97.9127
97.91
100.414
100.411
102.939
102.936
105.466
105.463
107.974
107.97
110.439
110.434
112.841
112.836
115.163
115.159
117.394
117.39
119.531
119.526
121.58
121.576
123.564
123.56
125.517
125.514
127.485
127.484
129.521
129.52
131.678
131.677
134.002
134.001
136.526
136.526
139.261
139.261
142.196
142.195
145.295
145.295
148.508
148.508
151.776
151.778
155.042
155.045
158.255
158.259
161.381
161.385
164.4
164.405
167.313
167.318
170.139
170.143
172.907
172.911
175.658
175.662
178.436
178.439
181.286
181.289
184.251
184.254
187.37
187.372
190.674
190.675
194.19
194.191
197.939
197.939
201.934
201.934
206.187
206.186
210.703
210.702
215.486
215.484
220.533
220.531
225.842
225.84
231.406
231.403
237.216
237.213
243.26
243.257
249.527
249.524
256.002
255.999
262.674
262.67
269.532
269.528
276.569
276.565
283.785
283.781
291.184
291.18
298.776
298.772
306.576
306.571
314.601
314.597
322.873
322.868
331.41
331.405
340.228
340.222
349.34
349.334
358.754
358.749
368.474
368.468
378.496
378.49
388.81
388.804
399.404
399.397
410.258
410.251
421.357
421.35
432.688
432.681
444.251
444.244
456.06
456.052
468.149
468.141
480.569
480.561
493.379
493.371
506.636
506.627
520.384
520.375
534.631
534.621
549.355
549.344
564.501
564.49
579.996
579.984
595.759
595.747
611.726
611.714
627.86
627.848
644.157
644.145
660.652
660.64
677.409
677.396
694.508
694.495
712.037
712.024
730.077
730.063
748.689
748.675
767.917
767.902
787.782
787.766
808.282
808.266
829.401
829.384
851.117
851.1
873.41
873.393
896.268
896.25
919.692
919.674
943.699
943.68
968.318
968.298
993.582
993.561
1019.52
1019.5
1046.15
1046.13
1073.44
1073.42
1101.35
1101.33
1129.78
1129.76
1158.61
1158.59
1187.7
1187.67
1216.88
1216.86
1246.03
1246.01
1275.02
1275
1303.77
1303.75
1332.21
1332.19
1360.31
1360.3
1388.09
1388.08
1415.57
1415.57
1442.81
1442.81
1469.88
1469.88
1496.86
1496.86
1523.88
1523.89
1551.08
1551.09
1578.64
1578.65
1606.75
1606.76
1635.59
1635.61
1665.37
1665.38
1696.21
1696.22
1728.16
1728.17
1761.16
1761.17
1794.96
1794.97
1829.07
1829.09
1862.81
1862.83
1895.2
1895.23
1925.08
1925.11
1951.2
1951.24
1972.4
1972.45
1987.91
1987.97
1997.59
1997.66
2002.06
2002.13
2002.63
2002.7
2001.06
2001.13
1999.06
1999.13
1997.9
1997.97
1998.31
1998.38
2000.29
2000.35
2003.49
2003.54
2007.48
2007.54
2011.96
2012.02
2016.77
2016.83
2021.92
2021.98
2027.5
2027.55
2033.66
2033.71
2040.55
2040.61
2048.36
2048.41
2057.23
2057.28
2067.31
2067.36
2078.73
2078.78
2091.62
2091.67
2106.1
2106.15
2122.27
2122.32
2140.23
2140.28
2160.09
2160.14
2181.96
2182.01
2205.97
2206.02
2232.26
2232.31
2260.99
2261.04
2292.35
2292.4
2326.54
2326.59
2363.8
2363.85
2404.39
2404.44
2448.61
2448.66
2496.79
2496.84
2549.32
2549.37
2606.65
2606.7
2669.29
2669.34
2737.84
2737.89
2813.01
2813.07
2895.64
2895.7
2986.73
2986.79
3087.48
3087.54
3199.34
3199.4
3324.1
3324.16
3463.95
3464.01
3621.65
3621.71
3800.69
3800.76
4005.57
4005.64
4242.21
4242.29
4518.54
4518.62
4845.44
4845.52
5238.31
5238.39
5719.64
5719.73
6323.66
6323.74
7105.06
7105.14
8156.85
8156.91
9649.97
9649.98
11931.3
11931.2
15798.2
15797.9
23358.6
23357.7
40845.1
40843.3
88690.2
88687.8
264824
264822
1.52417e+06
1.52417e+06
18.3315
18.3314
18.3496
18.3496
18.1327
18.1327
17.8881
17.8881
17.6459
17.6459
17.4143
17.4143
17.1952
17.1952
16.9893
16.9893
16.7965
16.7965
16.6165
16.6165
16.449
16.449
16.2937
16.2937
16.1502
16.1502
16.0182
16.0182
15.8974
15.8974
15.7874
15.7874
15.6879
15.6879
15.5985
15.5985
15.5189
15.5189
15.4489
15.4489
15.3883
15.3883
15.337
15.3371
15.295
15.295
15.2624
15.2624
15.2392
15.2392
15.2258
15.2258
15.2223
15.2223
15.2289
15.2289
15.2457
15.2457
15.2726
15.2726
15.3098
15.3098
15.357
15.357
15.4143
15.4143
15.4817
15.4817
15.5595
15.5595
15.6479
15.6479
15.7473
15.7473
15.8582
15.8582
15.9812
15.9812
16.1166
16.1166
16.265
16.265
16.427
16.427
16.603
16.603
16.7936
16.7936
16.9993
16.9993
17.2208
17.2208
17.4586
17.4586
17.7136
17.7135
17.9865
17.9864
18.2782
18.2781
18.5896
18.5896
18.9216
18.9215
19.2747
19.2747
19.6494
19.6494
20.0457
20.0457
20.4634
20.4634
20.9021
20.9021
21.3616
21.3615
21.8415
21.8415
22.3422
22.3422
22.8643
22.8642
23.4091
23.4091
23.9787
23.9786
24.5754
24.5754
25.2021
25.2021
25.8618
25.8618
26.5572
26.5572
27.2905
27.2905
28.0631
28.0631
28.8756
28.8755
29.7278
29.7278
30.6199
30.6199
31.5521
31.5521
32.5256
32.5256
33.5422
33.5422
34.6039
34.6039
35.7119
35.7119
36.8651
36.8652
38.0595
38.0595
39.2871
39.2872
40.5372
40.5373
41.7977
41.7978
43.0581
43.0582
44.3127
44.3128
45.5627
45.5628
46.8175
46.8176
48.0924
48.0925
49.4064
49.4065
50.776
50.7762
52.2114
52.2116
53.712
53.7122
55.2614
55.2616
56.835
56.8351
58.4023
58.4023
59.9314
59.9314
61.3943
61.3943
62.771
62.771
64.0515
64.0515
65.2355
65.2354
66.332
66.332
67.3583
67.3583
68.3366
68.3366
69.2927
69.2928
70.2536
70.2537
71.2455
71.2456
72.2923
72.2925
73.415
73.4152
74.6302
74.6305
75.9507
75.9512
77.3854
77.3859
78.9396
78.9403
80.6155
80.6162
82.4127
82.4135
84.3284
84.3294
86.358
86.3592
88.4949
88.4962
90.7303
90.7318
93.0535
93.0553
95.4519
95.4539
97.9103
97.9125
100.411
100.414
102.936
102.939
105.463
105.466
107.97
107.973
110.434
110.438
112.836
112.84
115.159
115.163
117.389
117.394
119.526
119.53
121.576
121.579
123.56
123.563
125.514
125.516
127.483
127.484
129.52
129.52
131.677
131.677
134.001
134.001
136.525
136.526
139.261
139.261
142.195
142.196
145.295
145.295
148.508
148.508
151.778
151.776
155.044
155.042
158.259
158.255
161.385
161.381
164.404
164.4
167.318
167.313
170.143
170.139
172.911
172.907
175.661
175.658
178.439
178.436
181.288
181.286
184.253
184.251
187.371
187.369
190.675
190.673
194.19
194.19
197.938
197.938
201.933
201.934
206.186
206.187
210.702
210.703
215.484
215.485
220.531
220.533
225.839
225.841
231.403
231.405
237.213
237.215
243.257
243.26
249.523
249.527
255.999
256.002
262.67
262.674
269.528
269.531
276.565
276.569
283.781
283.785
291.18
291.184
298.772
298.776
306.571
306.575
314.597
314.601
322.868
322.873
331.404
331.409
340.222
340.227
349.334
349.34
358.749
358.754
368.468
368.474
378.489
378.496
388.804
388.81
399.397
399.403
410.251
410.258
421.35
421.357
432.681
432.688
444.244
444.251
456.052
456.059
468.141
468.148
480.561
480.569
493.371
493.379
506.627
506.636
520.375
520.384
534.621
534.631
549.344
549.355
564.49
564.501
579.984
579.996
595.747
595.759
611.715
611.726
627.848
627.86
644.145
644.157
660.64
660.652
677.396
677.409
694.495
694.508
712.024
712.038
730.063
730.077
748.675
748.689
767.902
767.917
787.766
787.782
808.266
808.282
829.385
829.401
851.1
851.117
873.393
873.411
896.25
896.269
919.674
919.693
943.68
943.699
968.298
968.318
993.561
993.582
1019.5
1019.52
1046.13
1046.15
1073.42
1073.44
1101.33
1101.35
1129.76
1129.78
1158.59
1158.61
1187.67
1187.7
1216.86
1216.88
1246.01
1246.03
1275
1275.03
1303.75
1303.77
1332.19
1332.21
1360.3
1360.31
1388.08
1388.09
1415.57
1415.57
1442.81
1442.81
1469.88
1469.88
1496.86
1496.86
1523.89
1523.88
1551.09
1551.08
1578.65
1578.64
1606.76
1606.75
1635.61
1635.6
1665.38
1665.37
1696.22
1696.21
1728.17
1728.16
1761.18
1761.16
1794.97
1794.96
1829.09
1829.08
1862.83
1862.81
1895.23
1895.2
1925.12
1925.08
1951.24
1951.2
1972.45
1972.4
1987.97
1987.91
1997.66
1997.59
2002.13
2002.06
2002.71
2002.63
2001.13
2001.06
1999.13
1999.06
1997.97
1997.9
1998.38
1998.31
2000.35
2000.29
2003.54
2003.49
2007.54
2007.48
2012.02
2011.96
2016.83
2016.78
2021.98
2021.92
2027.56
2027.5
2033.71
2033.66
2040.61
2040.55
2048.41
2048.36
2057.28
2057.23
2067.36
2067.31
2078.78
2078.73
2091.67
2091.62
2106.15
2106.1
2122.32
2122.27
2140.28
2140.23
2160.14
2160.09
2182.01
2181.96
2206.02
2205.97
2232.31
2232.26
2261.04
2261
2292.4
2292.35
2326.59
2326.54
2363.85
2363.8
2404.44
2404.39
2448.66
2448.61
2496.84
2496.79
2549.37
2549.32
2606.7
2606.65
2669.34
2669.29
2737.89
2737.84
2813.07
2813.01
2895.7
2895.64
2986.79
2986.73
3087.54
3087.48
3199.4
3199.34
3324.16
3324.1
3464.01
3463.95
3621.71
3621.65
3800.76
3800.69
4005.64
4005.57
4242.29
4242.21
4518.62
4518.54
4845.52
4845.44
5238.39
5238.31
5719.73
5719.64
6323.74
6323.66
7105.14
7105.06
8156.91
8156.86
9649.98
9649.97
11931.2
11931.3
15797.9
15798.2
23357.7
23358.6
40843.3
40845.1
88687.8
88690.2
264822
264824
1.52417e+06
1.52417e+06
)
;

boundaryField
{
    walls
    {
        blending        binomial2;
        n               2;
        beta1           0.075;
        type            omegaWallFunction;
        value           nonuniform List<scalar> 8(1.52416e+06 1.52416e+06 1.52416e+06 1.52416e+06 1.52417e+06 1.52417e+06 1.52417e+06 1.52417e+06);
    }
    inlet
    {
        type            cyclic;
    }
    outlet
    {
        type            cyclic;
    }
    sides
    {
        type            empty;
    }
}


// ************************************************************************* //
