/*--------------------------------*- C++ -*----------------------------------*\
| =========                 |                                                 |
| \\      /  F ield         | OpenFOAM: The Open Source CFD Toolbox           |
|  \\    /   O peration     | Version:  2012                                  |
|   \\  /    A nd           | Website:  www.openfoam.com                      |
|    \\/     M anipulation  |                                                 |
\*---------------------------------------------------------------------------*/
FoamFile
{
    version     2.0;
    format      ascii;
    class       volVectorField;
    location    "15000";
    object      U;
}
// * * * * * * * * * * * * * * * * * * * * * * * * * * * * * * * * * * * * * //

dimensions      [0 1 -1 0 0 0 0];


internalField   nonuniform List<vector> 
2560
(
(0.0218506 -2.39857e-05 0.000104204)
(0.0218331 -1.24619e-05 4.88492e-08)
(0.0656135 -3.66238e-06 0.000156478)
(0.0655611 1.21961e-05 9.64241e-09)
(0.109811 -1.50234e-05 0.000139545)
(0.109725 2.22406e-05 4.11866e-09)
(0.154446 -2.25465e-05 9.45558e-05)
(0.154327 2.94328e-05 3.30668e-09)
(0.199521 -2.59535e-05 5.39337e-05)
(0.199372 3.41481e-05 1.21852e-09)
(0.245038 -2.7884e-05 3.18951e-05)
(0.244863 3.67638e-05 5.26441e-10)
(0.290957 -2.91646e-05 2.09265e-05)
(0.290759 3.84418e-05 4.39658e-10)
(0.337211 -3.00653e-05 1.50449e-05)
(0.336994 3.96133e-05 3.31142e-10)
(0.383729 -3.07591e-05 1.15659e-05)
(0.383496 4.05507e-05 4.07785e-10)
(0.430503 -3.13075e-05 9.33e-06)
(0.430259 4.12306e-05 2.7156e-10)
(0.477602 -3.17701e-05 7.79741e-06)
(0.47735 4.1914e-05 4.21418e-10)
(0.525045 -3.21634e-05 6.69347e-06)
(0.524787 4.23168e-05 1.0107e-10)
(0.572855 -3.25032e-05 5.86694e-06)
(0.572594 4.29359e-05 -9.91918e-11)
(0.621092 -3.27652e-05 5.21845e-06)
(0.620831 5.66925e-05 5.05714e-08)
(0.669743 -3.31516e-05 4.72626e-06)
(0.669485 1.68428e-05 -3.3038e-37)
(0.718716 -3.32411e-05 4.29741e-06)
(0.718462 9.9148e-05 1.1983e-07)
(0.767874 -3.4003e-05 3.99341e-06)
(0.767625 -4.11935e-05 1.00989e-09)
(0.81708 -3.35222e-05 3.71586e-06)
(0.816838 0.000134378 4.31805e-08)
(0.86634 -3.45929e-05 3.49209e-06)
(0.866106 -5.40854e-05 1.26313e-09)
(0.915889 -3.36677e-05 3.29244e-06)
(0.915663 0.000148473 4.17958e-08)
(0.966044 -3.53005e-05 3.13082e-06)
(0.965826 -6.68874e-05 1.01249e-09)
(1.01701 -3.37409e-05 2.98176e-06)
(1.0168 0.000162307 3.98082e-08)
(1.06884 -3.59895e-05 2.86145e-06)
(1.06864 -7.9622e-05 -3.38027e-21)
(1.1215 -3.36414e-05 2.72156e-06)
(1.1213 0.00020257 1.48771e-07)
(1.17498 -3.68302e-05 2.65845e-06)
(1.17479 -0.000145538 0)
(1.22928 -3.35031e-05 2.54089e-06)
(1.2291 0.000274537 1.83791e-07)
(1.28439 -3.78591e-05 2.50971e-06)
(1.28422 -0.000223386 2.27831e-09)
(1.34026 -3.31891e-05 2.44222e-06)
(1.34009 0.000326063 7.8838e-08)
(1.39678 -3.89866e-05 2.40238e-06)
(1.39662 -0.000248109 4.22097e-09)
(1.45386 -3.2628e-05 2.35007e-06)
(1.4537 0.000352131 8.09105e-08)
(1.51144 -4.02936e-05 2.32344e-06)
(1.51129 -0.000273673 3.9055e-09)
(1.56963 -3.18155e-05 2.28157e-06)
(1.56949 0.000378535 7.65424e-08)
(1.62876 -4.18459e-05 2.26321e-06)
(1.62862 -0.000299002 1.98601e-09)
(1.68931 -3.06759e-05 2.22861e-06)
(1.68917 0.000404545 7.08219e-08)
(1.75182 -4.37196e-05 2.21625e-06)
(1.75168 -0.000323841 2.4494e-21)
(1.81675 -2.91828e-05 2.1514e-06)
(1.81661 0.000461803 2.24641e-07)
(1.88437 -4.60493e-05 2.18498e-06)
(1.88423 -0.000412461 1.19235e-21)
(1.95472 -2.7291e-05 2.00827e-06)
(1.95458 0.000651643 7.38711e-07)
(2.02764 -4.8881e-05 2.17881e-06)
(2.0275 -0.000705113 0)
(2.10286 -2.49326e-05 1.96628e-06)
(2.10272 0.000983087 9.67182e-07)
(2.18016 -5.21956e-05 2.20246e-06)
(2.18002 -0.00107889 1.14793e-21)
(2.25954 -2.20975e-05 2.04699e-06)
(2.2594 0.00132191 8.13794e-07)
(2.34152 -5.59506e-05 2.25237e-06)
(2.34137 -0.00138526 0)
(2.42724 -1.87851e-05 2.2027e-06)
(2.42709 0.00155606 4.38415e-07)
(2.51849 -6.01308e-05 2.31983e-06)
(2.51833 -0.00154704 -4.35908e-37)
(2.61752 -1.50044e-05 2.31759e-06)
(2.61736 0.00168853 2.74746e-07)
(2.72665 -6.48056e-05 2.39922e-06)
(2.72647 -0.00164856 1.12838e-36)
(2.84797 -1.06922e-05 2.38307e-06)
(2.84778 0.00180565 3.60939e-07)
(2.9831 -7.00645e-05 2.49161e-06)
(2.9829 -0.00178 -2.0465e-37)
(3.13327 -5.76841e-06 2.01946e-06)
(3.13306 0.00226002 2.28333e-06)
(3.29934 -7.55274e-05 2.61708e-06)
(3.29912 -0.00256412 -1.12201e-21)
(3.4817 -2.65523e-07 2.36265e-06)
(3.48147 0.00291421 1.58514e-06)
(3.67975 -8.0912e-05 2.80715e-06)
(3.67951 -0.00308911 3.70589e-08)
(3.8909 5.21142e-06 2.88076e-06)
(3.89067 0.0032718 7.46921e-07)
(4.10921 -8.63242e-05 3.17378e-06)
(4.10899 -0.00327534 1.62345e-07)
(4.32394 9.38135e-06 3.36491e-06)
(4.32375 0.00349021 1.3685e-06)
(4.51869 -9.23052e-05 3.92827e-06)
(4.51856 -0.00352685 3.90899e-07)
(4.67176 1.12658e-05 4.31488e-06)
(4.67168 0.0037848 2.18683e-06)
(4.75807 -9.81559e-05 5.2256e-06)
(4.75807 -0.00387118 6.26547e-07)
(4.75292 1.16875e-05 5.79623e-06)
(4.75302 0.00415894 2.65772e-06)
(4.63662 -0.000101218 6.90106e-06)
(4.63684 -0.00428185 6.74988e-07)
(4.39904 1.22001e-05 7.49777e-06)
(4.39938 0.00456074 2.25096e-06)
(4.04256 -9.97737e-05 8.44022e-06)
(4.04303 -0.00467283 4.27699e-07)
(3.58266 1.241e-05 8.85866e-06)
(3.58325 0.00490588 1.07168e-06)
(3.04573 -9.52923e-05 9.3476e-06)
(3.04643 -0.00496132 0)
(2.46474 1.01281e-05 9.4857e-06)
(2.46552 0.00514736 4.78893e-08)
(1.87422 -9.03418e-05 9.26634e-06)
(1.87506 -0.00500757 1.17118e-06)
(1.30566 4.68245e-06 9.21691e-06)
(1.30653 0.00514506 3.35018e-07)
(0.784238 -8.60392e-05 8.75468e-06)
(0.785099 -0.00498599 1.81565e-06)
(0.327475 -2.42131e-06 8.64149e-06)
(0.328284 0.00510141 4.4459e-07)
(-0.0546223 -8.21861e-05 8.1451e-06)
(-0.0539083 -0.000297006 5.23866e-06)
(-0.358317 -8.65533e-06 8.05454e-06)
(-0.357735 0.000361947 5.3772e-07)
(-0.584447 -7.79295e-05 7.63308e-06)
(-0.58401 -0.00019413 1.35659e-06)
(-0.736823 -1.3772e-05 7.59705e-06)
(-0.736533 0.000269745 4.41349e-07)
(-0.820976 -7.38328e-05 7.27611e-06)
(-0.820826 -0.00011144 1.09437e-06)
(-0.843339 -1.80008e-05 7.29603e-06)
(-0.84332 0.000197606 3.44491e-07)
(-0.810788 -7.01018e-05 7.06939e-06)
(-0.81089 -5.00399e-05 8.23099e-07)
(-0.730394 -2.16785e-05 7.14157e-06)
(-0.730609 0.00014543 2.54348e-07)
(-0.609243 -6.68818e-05 7.00207e-06)
(-0.609562 -7.07256e-06 5.81752e-07)
(-0.454229 -2.4893e-05 7.12369e-06)
(-0.454643 0.00011028 1.74724e-07)
(-0.271875 -6.41257e-05 5.62109e-06)
(-0.272373 2.01983e-05 3.72335e-07)
(-0.0681382 -2.76873e-05 7.26329e-06)
(-0.0687035 8.92355e-05 1.03133e-07)
(0.151778 -6.17018e-05 4.87158e-06)
(0.151172 3.48894e-05 2.03098e-07)
(0.38352 -3.00291e-05 7.56632e-06)
(0.382899 7.90093e-05 1.38758e-07)
(0.623535 -5.95724e-05 6.12355e-08)
(0.622918 4.07753e-05 1.57187e-07)
(0.868922 -3.19674e-05 2.08898e-07)
(0.868325 7.64992e-05 1.80866e-07)
(1.1172 -5.75675e-05 2.04198e-07)
(1.11663 4.02461e-05 1.71279e-07)
(1.36603 -3.36402e-05 2.48738e-07)
(1.3655 7.56979e-05 1.77602e-07)
(1.61295 -5.58494e-05 2.28809e-07)
(1.61245 4.268e-05 1.84991e-07)
(1.85514 -3.5146e-05 2.77188e-07)
(1.85469 7.34637e-05 2.16177e-07)
(2.08936 -5.4428e-05 3.25129e-07)
(2.08896 4.47743e-05 3.2862e-07)
(2.31189 -3.65505e-05 4.10581e-07)
(2.31153 7.14166e-05 4.06499e-07)
(2.51866 -5.3291e-05 5.36812e-07)
(2.51835 4.65023e-05 5.4004e-07)
(2.70555 -3.78649e-05 6.37685e-07)
(2.70529 6.95331e-05 6.34066e-07)
(2.86869 -5.23447e-05 7.63766e-07)
(2.86847 4.79693e-05 7.66758e-07)
(3.00479 -3.90401e-05 8.5325e-07)
(3.00462 6.78545e-05 8.50066e-07)
(3.11153 -5.15128e-05 9.50348e-07)
(3.11141 4.92582e-05 9.53129e-07)
(3.18783 -3.99729e-05 1.00256e-06)
(3.18774 6.64774e-05 9.9978e-07)
(3.23396 -5.07056e-05 1.05233e-06)
(3.23391 5.04651e-05 1.05491e-06)
(3.25163 -4.0675e-05 1.05722e-06)
(3.25162 6.53838e-05 1.05482e-06)
(3.24382 -4.98924e-05 1.06046e-06)
(3.24384 5.16262e-05 1.06287e-06)
(3.21459 -4.12231e-05 1.02745e-06)
(3.21462 6.44915e-05 1.0254e-06)
(3.16878 -4.91182e-05 1.00082e-06)
(3.16883 5.2702e-05 1.00305e-06)
(3.11169 -4.16825e-05 9.51414e-07)
(3.11176 6.37297e-05 9.49665e-07)
(3.04879 -4.84807e-05 9.16464e-07)
(3.04886 5.35995e-05 9.18537e-07)
(2.9854 -4.21101e-05 8.69253e-07)
(2.98547 6.30368e-05 8.67793e-07)
(2.92652 -4.79833e-05 8.40777e-07)
(2.92658 5.43202e-05 8.42718e-07)
(2.87664 -4.25281e-05 8.05098e-07)
(2.87669 6.23854e-05 8.03915e-07)
(2.83967 -4.75805e-05 7.88605e-07)
(2.8397 5.49135e-05 7.9045e-07)
(2.81884 -4.2915e-05 7.66958e-07)
(2.81885 6.17933e-05 7.66057e-07)
(2.81667 -4.72211e-05 7.64376e-07)
(2.81666 5.54345e-05 7.66171e-07)
(2.83489 -4.32257e-05 7.60735e-07)
(2.83486 6.13014e-05 7.60134e-07)
(2.87437 -4.69109e-05 7.77888e-07)
(2.87431 5.58806e-05 7.79689e-07)
(2.93503 -4.34684e-05 7.99784e-07)
(2.93495 6.08987e-05 7.99517e-07)
(3.01579 -4.66071e-05 8.48571e-07)
(3.0157 5.62973e-05 8.50442e-07)
(3.11448 -4.37415e-05 9.068e-07)
(3.11438 6.04837e-05 9.06907e-07)
(3.22786 -4.63777e-05 9.92496e-07)
(3.22775 5.66189e-05 9.94508e-07)
(3.35167 -4.39559e-05 1.09177e-06)
(3.35156 6.0143e-05 1.0923e-06)
(3.48079 -4.62082e-05 1.21923e-06)
(3.48068 5.68622e-05 1.22145e-06)
(3.60947 -4.41277e-05 1.36359e-06)
(3.60936 5.98582e-05 1.36457e-06)
(3.73168 -4.60192e-05 1.54097e-06)
(3.73159 5.71084e-05 1.54344e-06)
(3.8415 -4.42237e-05 1.74532e-06)
(3.84142 5.96604e-05 1.74677e-06)
(3.93357 -4.57689e-05 1.99771e-06)
(3.93351 5.7401e-05 2.00046e-06)
(4.00349 -4.4238e-05 2.29885e-06)
(4.00345 5.95535e-05 2.30076e-06)
(4.0482 -4.54909e-05 2.67366e-06)
(4.04817 5.77079e-05 2.67668e-06)
(4.06622 -4.42263e-05 3.12683e-06)
(4.06621 5.94802e-05 3.12916e-06)
(4.05776 -4.53151e-05 3.67857e-06)
(4.05777 5.79004e-05 3.68184e-06)
(4.02465 -4.43026e-05 4.32921e-06)
(4.02467 5.93251e-05 4.33191e-06)
(3.97011 -4.53755e-05 5.08323e-06)
(3.97015 5.78455e-05 5.0867e-06)
(3.89839 -4.46346e-05 5.9218e-06)
(3.89844 5.89193e-05 5.92482e-06)
(3.81431 -4.57043e-05 6.82711e-06)
(3.81437 5.7512e-05 6.83074e-06)
(3.72281 -4.52594e-05 7.7534e-06)
(3.72287 5.82242e-05 7.7567e-06)
(3.62843 -4.63039e-05 8.65455e-06)
(3.6285 5.68984e-05 8.65834e-06)
(3.53501 -4.59938e-05 9.46587e-06)
(3.53508 5.74219e-05 9.46943e-06)
(3.44539 -4.68754e-05 1.01315e-05)
(3.44546 5.63045e-05 1.01355e-05)
(3.36131 -4.65576e-05 1.05879e-05)
(3.36137 5.67909e-05 1.05917e-05)
(3.28341 -4.71196e-05 1.07942e-05)
(3.28347 5.60303e-05 1.07983e-05)
(3.21136 -4.66206e-05 1.07192e-05)
(3.21141 5.66603e-05 1.07234e-05)
(3.14408 -4.6795e-05 1.03654e-05)
(3.14413 5.6318e-05 1.03698e-05)
(3.08001 -4.61129e-05 9.75036e-06)
(3.08006 5.70991e-05 9.75479e-06)
(3.01735 -4.60089e-05 8.92218e-06)
(3.0174 5.70605e-05 8.92684e-06)
(2.95433 -4.52916e-05 7.93641e-06)
(2.95438 5.78499e-05 7.94114e-06)
(2.88944 -4.51083e-05 6.86481e-06)
(2.88949 5.79107e-05 6.8697e-06)
(2.82153 -4.45544e-05 5.77039e-06)
(2.82159 5.85145e-05 5.77538e-06)
(2.75 -4.44448e-05 4.71794e-06)
(2.75006 5.85172e-05 4.72302e-06)
(2.67473 -4.41625e-05 3.75131e-06)
(2.67479 5.88311e-05 3.75652e-06)
(2.59611 -4.42248e-05 2.90351e-06)
(2.59617 5.86739e-05 2.90873e-06)
(2.51493 -4.4151e-05 2.18822e-06)
(2.51499 5.8764e-05 2.19359e-06)
(2.43228 -4.43394e-05 1.77755e-06)
(2.43235 5.84895e-05 1.61422e-06)
(2.34943 -4.43868e-05 1.83778e-06)
(2.3495 5.8446e-05 1.22572e-06)
(2.26768 -4.4608e-05 1.87335e-06)
(2.26775 5.81451e-05 1.25218e-06)
(2.18826 -4.46758e-05 1.93769e-06)
(2.18833 5.80703e-05 1.28226e-06)
(2.11222 -4.48696e-05 1.97271e-06)
(2.11229 5.78015e-05 1.30942e-06)
(2.04037 -4.49081e-05 2.04181e-06)
(2.04043 5.77465e-05 1.33987e-06)
(1.97321 -4.50464e-05 2.0746e-06)
(1.97327 5.75366e-05 1.36739e-06)
(1.91095 -4.50615e-05 2.14909e-06)
(1.91101 5.74964e-05 1.39767e-06)
(1.85348 -4.51397e-05 2.17756e-06)
(1.85353 5.73489e-05 1.42509e-06)
(1.80038 -4.51438e-05 2.25824e-06)
(1.80043 5.73119e-05 1.45451e-06)
(1.75096 -4.517e-05 2.29704e-06)
(1.75101 5.72181e-05 1.48136e-06)
(1.7043 -4.52067e-05 2.36587e-06)
(1.70435 5.71414e-05 1.50917e-06)
(1.65927 -4.51958e-05 2.41797e-06)
(1.65932 5.7086e-05 1.53504e-06)
(1.61456 -4.5148e-05 2.45937e-06)
(1.61461 5.70874e-05 1.56069e-06)
(1.56875 -4.52593e-05 2.5171e-06)
(1.5688 5.69099e-05 1.58528e-06)
(1.52032 -4.51564e-05 2.54712e-06)
(1.52037 5.69604e-05 1.60859e-06)
(1.46773 -4.52546e-05 2.61119e-06)
(1.46779 5.67963e-05 1.63182e-06)
(1.40951 -4.51671e-05 2.63356e-06)
(1.40958 5.68252e-05 1.65305e-06)
(1.34427 -4.52525e-05 2.70181e-06)
(1.34435 5.66746e-05 1.67526e-06)
(1.27087 -4.51787e-05 2.72682e-06)
(1.27096 5.66832e-05 1.69518e-06)
(1.18844 -4.52539e-05 2.79109e-06)
(1.18855 5.65446e-05 1.71722e-06)
(1.09651 -4.5191e-05 2.81939e-06)
(1.09664 5.65342e-05 1.73718e-06)
(0.995066 -4.52589e-05 2.8821e-06)
(0.99522 5.64062e-05 1.76044e-06)
(0.884632 -4.52045e-05 2.91555e-06)
(0.884816 5.63771e-05 1.78226e-06)
(0.766323 -4.52672e-05 2.97965e-06)
(0.766543 5.62593e-05 1.80852e-06)
(0.641857 -4.52181e-05 3.0205e-06)
(0.642121 5.6212e-05 1.83413e-06)
(0.513547 -4.52792e-05 3.08866e-06)
(0.513866 5.61032e-05 1.86508e-06)
(0.384257 -4.52308e-05 3.13859e-06)
(0.384642 5.60381e-05 1.89603e-06)
(0.257325 -4.52943e-05 3.21233e-06)
(0.257784 5.59378e-05 1.93265e-06)
(0.136433 -4.52428e-05 3.27145e-06)
(0.136962 5.58532e-05 1.96939e-06)
(0.0254329 -4.53116e-05 3.35008e-06)
(0.0259995 5.57629e-05 2.01126e-06)
(-0.0718208 -4.52582e-05 3.41569e-06)
(-0.0712988 5.56611e-05 2.05234e-06)
(-0.151788 -4.53224e-05 3.49673e-06)
(-0.15138 5.5566e-05 2.09576e-06)
(-0.21147 -4.52752e-05 3.56635e-06)
(-0.211199 5.54578e-05 2.13702e-06)
(-0.24856 -4.53394e-05 3.64502e-06)
(-0.248423 5.53573e-05 2.17919e-06)
(-0.261671 -4.52908e-05 3.71287e-06)
(-0.261663 5.52408e-05 2.21818e-06)
(-0.250438 -4.53604e-05 3.78595e-06)
(-0.250555 5.51356e-05 2.25741e-06)
(-0.21552 -4.53096e-05 3.84825e-06)
(-0.215765 5.50053e-05 2.29354e-06)
(-0.15859 -4.53853e-05 3.91773e-06)
(-0.158965 5.49013e-05 2.33071e-06)
(-0.0821724 -4.53288e-05 3.97372e-06)
(-0.0826585 5.47534e-05 2.36621e-06)
(0.0105564 -4.54179e-05 4.04718e-06)
(0.0100252 5.46524e-05 2.40459e-06)
(0.116059 -4.53554e-05 4.10679e-06)
(0.115575 5.44899e-05 2.44266e-06)
(0.230765 -4.54424e-05 4.18637e-06)
(0.230362 5.43716e-05 2.4831e-06)
(0.351161 -4.53931e-05 4.25761e-06)
(0.350838 5.42128e-05 2.52488e-06)
(0.474005 -4.54723e-05 4.3488e-06)
(0.473749 5.40735e-05 2.57002e-06)
(0.596467 -4.54343e-05 4.43506e-06)
(0.596264 5.39152e-05 2.61701e-06)
(0.716154 -4.55115e-05 4.54029e-06)
(0.71599 5.37527e-05 2.66768e-06)
(0.831173 -4.5477e-05 4.6425e-06)
(0.83104 5.35981e-05 2.7199e-06)
(0.940087 -4.5558e-05 4.76187e-06)
(0.939977 5.341e-05 2.7756e-06)
(1.04184 -4.55262e-05 4.87889e-06)
(1.04175 5.32565e-05 2.83193e-06)
(1.13575 -4.56044e-05 5.01078e-06)
(1.13567 5.30519e-05 2.89122e-06)
(1.22142 -4.55742e-05 5.14004e-06)
(1.22136 5.28977e-05 2.94983e-06)
(1.29867 -4.56622e-05 5.28161e-06)
(1.29861 5.26667e-05 3.01069e-06)
(1.36748 -4.56044e-05 5.41955e-06)
(1.36744 5.2539e-05 3.06928e-06)
(1.42797 -4.57171e-05 5.56721e-06)
(1.42794 5.22688e-05 3.12943e-06)
(1.4803 -4.56314e-05 5.7097e-06)
(1.48027 5.21666e-05 3.18554e-06)
(1.52464 -4.57613e-05 5.85945e-06)
(1.52462 5.18671e-05 3.24265e-06)
(1.56112 -4.56497e-05 6.0021e-06)
(1.5611 5.17878e-05 3.29389e-06)
(1.5898 -4.58049e-05 6.1499e-06)
(1.58979 5.14531e-05 3.34587e-06)
(1.61065 -4.56748e-05 6.28849e-06)
(1.61064 5.13894e-05 3.6275e-06)
(1.62347 -4.58482e-05 6.43078e-06)
(1.62346 5.1029e-05 4.09319e-06)
(1.62794 -4.57443e-05 6.56182e-06)
(1.62794 5.09367e-05 4.55194e-06)
(1.6236 -4.59035e-05 6.69614e-06)
(1.62361 5.05851e-05 4.99247e-06)
(1.6099 -4.58633e-05 6.81764e-06)
(1.60991 5.04276e-05 5.40321e-06)
(1.58621 -4.60108e-05 6.94352e-06)
(1.58623 5.00843e-05 5.78029e-06)
(1.55192 -4.6016e-05 7.05586e-06)
(1.55194 4.98806e-05 6.12108e-06)
(1.50651 -4.61732e-05 7.17568e-06)
(1.50654 4.95258e-05 6.42683e-06)
(1.44961 -4.62086e-05 7.28233e-06)
(1.44964 4.92919e-05 6.70595e-06)
(1.38111 -4.6376e-05 7.40179e-06)
(1.38114 4.89259e-05 6.96766e-06)
(1.30122 -4.64037e-05 7.50938e-06)
(1.30126 4.86994e-05 7.22879e-06)
(1.21054 -4.66052e-05 7.63708e-06)
(1.21059 4.82986e-05 7.49725e-06)
(1.11014 -4.65789e-05 7.81167e-06)
(1.1102 4.81251e-05 7.79444e-06)
(1.00155 -4.68383e-05 8.13735e-06)
(1.00162 4.76642e-05 8.12004e-06)
(0.886806 -4.67455e-05 8.50661e-06)
(0.886891 4.75541e-05 8.49249e-06)
(0.768444 -4.70471e-05 8.91802e-06)
(0.768541 4.70471e-05 8.90426e-06)
(0.649459 -4.692e-05 9.37066e-06)
(0.64957 4.69657e-05 9.36033e-06)
(0.53326 -4.72434e-05 9.8569e-06)
(0.533385 4.64296e-05 9.84724e-06)
(0.423536 -4.71215e-05 1.03622e-05)
(0.423674 4.63335e-05 1.03561e-05)
(0.32412 -4.74594e-05 1.0875e-05)
(0.324267 4.5772e-05 1.08696e-05)
(0.238766 -4.73367e-05 1.13739e-05)
(0.238913 4.5664e-05 1.13716e-05)
(0.170815 -4.77766e-05 1.18374e-05)
(0.170946 4.49859e-05 1.18355e-05)
(0.12296 -4.75514e-05 1.22629e-05)
(0.123055 4.49639e-05 1.22635e-05)
(0.0968831 -4.81885e-05 1.26183e-05)
(0.0969242 4.40715e-05 1.26185e-05)
(0.0930395 -4.7802e-05 1.29236e-05)
(0.0930196 4.41928e-05 1.29251e-05)
(0.110529 -4.86455e-05 1.31542e-05)
(0.110457 4.30757e-05 1.31541e-05)
(0.147063 -4.81295e-05 1.33429e-05)
(0.146959 4.33082e-05 1.33428e-05)
(0.199234 -4.9109e-05 1.34888e-05)
(0.199118 4.20373e-05 1.34859e-05)
(0.26279 -4.84757e-05 1.36241e-05)
(0.26268 4.23701e-05 1.36198e-05)
(0.33302 -4.95911e-05 1.37477e-05)
(0.332922 4.09471e-05 1.37398e-05)
(0.405128 -4.88383e-05 1.38892e-05)
(0.405047 4.13842e-05 1.38791e-05)
(0.474637 -5.00914e-05 1.40408e-05)
(0.474572 3.98096e-05 1.40268e-05)
(0.537701 -4.91934e-05 1.42246e-05)
(0.537651 4.03792e-05 1.42082e-05)
(0.591309 -5.06594e-05 1.44135e-05)
(0.591272 3.85806e-05 1.43933e-05)
(0.633479 -4.95333e-05 1.46379e-05)
(0.633453 3.93688e-05 1.46157e-05)
(0.663278 -5.12878e-05 1.48477e-05)
(0.663262 3.72744e-05 1.48225e-05)
(0.680779 -4.99185e-05 1.50787e-05)
(0.680772 3.83003e-05 1.50523e-05)
(0.686977 -5.19939e-05 1.52803e-05)
(0.686977 3.58817e-05 1.5252e-05)
(0.683636 -5.03236e-05 1.55016e-05)
(0.683641 3.72068e-05 1.5473e-05)
(0.673058 -5.27938e-05 1.5681e-05)
(0.673066 3.4394e-05 1.56513e-05)
(0.657846 -5.07618e-05 1.58857e-05)
(0.657856 3.60822e-05 1.58565e-05)
(0.640668 -5.36715e-05 1.60471e-05)
(0.640679 3.28336e-05 1.60175e-05)
(0.62401 -5.12485e-05 1.62437e-05)
(0.624019 3.49168e-05 1.62146e-05)
(0.610053 -5.46114e-05 1.64046e-05)
(0.61006 3.12216e-05 1.63753e-05)
(0.60055 -5.17368e-05 1.6614e-05)
(0.600553 3.37627e-05 1.6585e-05)
(0.596686 -5.5649e-05 1.67792e-05)
(0.596686 2.95276e-05 1.67497e-05)
(0.599096 -5.22371e-05 1.70056e-05)
(0.599092 3.26149e-05 1.69759e-05)
(0.607923 -5.6755e-05 1.71839e-05)
(0.607916 2.77872e-05 1.71532e-05)
(0.622882 -5.27415e-05 1.74293e-05)
(0.622871 3.14884e-05 1.73978e-05)
(0.643321 -5.79539e-05 1.76108e-05)
(0.643308 2.59838e-05 1.75777e-05)
(0.668328 -5.32656e-05 1.78636e-05)
(0.668314 3.03759e-05 1.78291e-05)
(0.696815 -5.92547e-05 1.80404e-05)
(0.696801 2.41179e-05 1.80038e-05)
(0.727675 -5.378e-05 1.83001e-05)
(0.727661 2.93173e-05 1.82615e-05)
(0.759755 -6.06821e-05 1.84619e-05)
(0.759741 2.2176e-05 1.8421e-05)
(0.791934 -5.43107e-05 1.87187e-05)
(0.791921 2.8298e-05 1.86757e-05)
(0.823156 -6.21952e-05 1.88663e-05)
(0.823145 2.02114e-05 1.8821e-05)
(0.852379 -5.49056e-05 1.91102e-05)
(0.852369 2.72828e-05 1.90626e-05)
(0.878726 -6.3771e-05 1.92425e-05)
(0.878718 1.8261e-05 1.9193e-05)
(0.901432 -5.55454e-05 1.94683e-05)
(0.901425 2.63045e-05 1.94166e-05)
(0.919856 -6.54782e-05 1.95625e-05)
(0.919851 1.627e-05 1.95093e-05)
(0.933627 -5.62094e-05 1.97627e-05)
(0.933624 2.53976e-05 1.97077e-05)
(0.942691 -6.72922e-05 1.98124e-05)
(0.942689 1.42768e-05 1.97566e-05)
(0.947266 -5.69359e-05 1.99666e-05)
(0.947265 2.45361e-05 1.99093e-05)
(0.947826 -6.92371e-05 1.99529e-05)
(0.947826 1.22702e-05 1.98954e-05)
(0.945073 -5.77236e-05 2.0055e-05)
(0.945074 2.37329e-05 1.99961e-05)
(0.939886 -7.13044e-05 1.99798e-05)
(0.939888 1.02702e-05 1.99215e-05)
(0.933178 -5.85817e-05 2.00333e-05)
(0.93318 2.29887e-05 1.99735e-05)
(0.925738 -7.35219e-05 1.99019e-05)
(0.925741 8.25991e-06 1.98432e-05)
(0.918203 -5.95024e-05 1.99282e-05)
(0.918205 2.23207e-05 1.98675e-05)
(0.910952 -7.58751e-05 1.97694e-05)
(0.910954 6.26506e-06 1.97103e-05)
(0.904042 -6.05211e-05 1.9794e-05)
(0.904043 2.17036e-05 1.97323e-05)
(0.897333 -7.83409e-05 1.96459e-05)
(0.897335 4.3213e-06 1.95862e-05)
(0.89049 -6.16306e-05 1.97023e-05)
(0.890492 2.11559e-05 1.96392e-05)
(0.883022 -8.09567e-05 1.95821e-05)
(0.883024 2.4054e-06 1.95218e-05)
(0.874504 -6.28165e-05 1.96904e-05)
(0.874507 2.07048e-05 1.96257e-05)
(0.8646 -8.37212e-05 1.96027e-05)
(0.864604 5.35418e-07 1.95419e-05)
(0.853131 -6.41183e-05 1.97454e-05)
(0.853135 2.03249e-05 1.96791e-05)
(0.840162 -8.66301e-05 1.96658e-05)
(0.840166 -1.26673e-06 1.96049e-05)
(0.825969 -6.55631e-05 1.98025e-05)
(0.825973 2.00036e-05 1.97347e-05)
(0.81106 -8.97009e-05 1.96819e-05)
(0.811064 -2.99898e-06 1.96212e-05)
(0.79608 -6.71778e-05 1.97599e-05)
(0.796085 1.97295e-05 1.96904e-05)
(0.78184 -9.29462e-05 1.95494e-05)
(0.781844 -4.6533e-06 1.94892e-05)
(0.7692 -6.89762e-05 1.95265e-05)
(0.769203 1.9505e-05 1.94549e-05)
(0.7589 -9.63994e-05 1.91887e-05)
(0.758902 -6.23961e-06 1.91287e-05)
(0.751624 -7.09712e-05 1.90504e-05)
(0.751625 1.93366e-05 1.89755e-05)
(0.747941 -0.000100062 1.94105e-05)
(0.747941 -7.73126e-06 1.85297e-05)
(0.748148 -7.31783e-05 1.83551e-05)
(0.748147 1.92324e-05 1.82749e-05)
(0.752262 -0.000103943 2.00134e-05)
(0.752259 -9.10011e-06 1.77373e-05)
(0.760083 -7.56436e-05 1.74984e-05)
(0.76008 1.91771e-05 1.74103e-05)
(0.771202 -0.000108043 2.06902e-05)
(0.771198 -1.03002e-05 1.68312e-05)
(0.78502 -7.83842e-05 1.69166e-05)
(0.785016 1.91944e-05 1.64839e-05)
(0.800833 -0.000112395 2.14562e-05)
(0.800828 -1.13022e-05 1.59082e-05)
(0.817898 -8.14532e-05 1.73773e-05)
(0.817893 1.92831e-05 1.55755e-05)
(0.835439 -0.000117024 2.23265e-05)
(0.835435 -1.20524e-05 1.50449e-05)
(0.852767 -8.48961e-05 1.79268e-05)
(0.852762 1.94619e-05 1.47587e-05)
(0.869329 -0.000121978 2.3314e-05)
(0.869325 -1.25006e-05 1.43006e-05)
(0.884652 -8.87722e-05 1.8576e-05)
(0.884648 1.9747e-05 1.40757e-05)
(0.898431 -0.00012731 2.44296e-05)
(0.898428 -1.25831e-05 1.37061e-05)
(0.910627 -9.31332e-05 1.93338e-05)
(0.910624 2.01736e-05 1.35467e-05)
(0.921356 -0.000133079 2.56834e-05)
(0.921353 -1.22209e-05 1.32612e-05)
(0.930923 -9.80473e-05 2.02102e-05)
(0.93092 2.07707e-05 1.31331e-05)
(0.939817 -0.000139362 2.70852e-05)
(0.939814 -1.1328e-05 1.28816e-05)
(0.948657 -0.000103596 1.29415e-05)
(0.948655 2.15662e-05 1.27001e-05)
(0.958196 -0.000122332 1.24828e-05)
(0.958193 -9.82355e-06 1.2387e-05)
(0.969293 -8.57129e-05 1.22619e-05)
(0.96929 2.28118e-05 1.20435e-05)
(0.983057 -0.000104502 1.15874e-05)
(0.983054 -7.91988e-06 1.14921e-05)
(1.00081 -6.71633e-05 1.10124e-05)
(1.0008 2.45273e-05 1.08173e-05)
(1.02458 -8.5791e-05 9.96424e-06)
(1.02457 -5.65827e-06 9.87123e-06)
(1.05846 -4.77292e-05 8.90622e-06)
(1.05846 2.673e-05 8.73535e-06)
(1.11147 -6.60924e-05 7.39459e-06)
(1.11146 -3.09249e-06 7.30448e-06)
(1.20185 -2.71533e-05 5.81771e-06)
(1.20184 2.94278e-05 5.67078e-06)
(1.36795 -4.52e-05 3.90511e-06)
(1.36793 -2.51651e-07 3.81335e-06)
(1.78742 -5.31957e-06 2.06873e-06)
(1.78742 3.24143e-05 1.7773e-06)
(0.0218383 -1.47737e-05 -5.37325e-08)
(0.0218487 -2.3004e-05 -0.000376248)
(0.0655767 3.29889e-06 -9.41407e-09)
(0.065608 -9.01913e-07 -0.000567897)
(0.109751 5.92986e-06 3.72821e-10)
(0.109803 -9.91954e-06 -0.00050644)
(0.154363 8.09422e-06 6.68293e-10)
(0.154434 -1.54538e-05 -0.000343171)
(0.199417 9.4627e-06 4.65978e-10)
(0.199506 -1.76741e-05 -0.000195744)
(0.244914 1.0138e-05 -2.8864e-10)
(0.245021 -1.90137e-05 -0.000115759)
(0.290816 1.05934e-05 -7.12572e-10)
(0.290939 -1.99271e-05 -7.59509e-05)
(0.337056 1.09288e-05 -8.58396e-10)
(0.337191 -2.05182e-05 -5.46053e-05)
(0.38356 1.11639e-05 -9.6766e-10)
(0.383708 -2.10026e-05 -4.19793e-05)
(0.430324 1.13877e-05 -1.0713e-09)
(0.430483 -2.13608e-05 -3.3865e-05)
(0.477414 1.15068e-05 -1.1543e-09)
(0.477582 -2.1706e-05 -2.83033e-05)
(0.52485 1.1713e-05 -1.36995e-09)
(0.525025 -2.19366e-05 -2.42974e-05)
(0.572655 1.1588e-05 -1.50488e-09)
(0.572836 -2.21918e-05 -2.12983e-05)
(0.620889 2.54132e-05 -4.83077e-08)
(0.621074 -2.22858e-05 -1.89725e-05)
(0.669539 -1.45194e-05 -5.82744e-19)
(0.669726 -2.26528e-05 -1.71528e-05)
(0.718513 6.72617e-05 -1.17671e-07)
(0.7187 -2.26349e-05 -1.56517e-05)
(0.767673 -7.34569e-05 6.68885e-10)
(0.767859 -2.33352e-05 -1.44669e-05)
(0.816882 0.000102008 -4.10517e-08)
(0.817066 -2.27658e-05 -1.34553e-05)
(0.866147 -8.68941e-05 9.0432e-10)
(0.866328 -2.37796e-05 -1.26125e-05)
(0.915701 0.000115702 -3.97016e-08)
(0.915877 -2.27759e-05 -1.18855e-05)
(0.965862 -9.99576e-05 5.98776e-10)
(0.966033 -2.43567e-05 -1.12705e-05)
(1.01684 0.000129211 -3.75672e-08)
(1.017 -2.27232e-05 -1.07288e-05)
(1.06867 -0.000112684 6.28626e-19)
(1.06883 -2.49261e-05 -1.02662e-05)
(1.12133 0.000169165 -1.46263e-07)
(1.12149 -2.25042e-05 -9.8264e-06)
(1.17482 -0.000178954 -3.9026e-22)
(1.17497 -2.56554e-05 -9.49913e-06)
(1.22913 0.000240745 -1.81103e-07)
(1.22927 -2.22507e-05 -9.14792e-06)
(1.28425 -0.000257614 1.32189e-10)
(1.28438 -2.65795e-05 -8.90953e-06)
(1.34012 0.000291894 -7.6424e-08)
(1.34025 -2.18238e-05 -8.65762e-06)
(1.39665 -0.000282645 -1.82241e-09)
(1.39677 -2.76075e-05 -8.45335e-06)
(1.45372 0.000317645 -7.84577e-08)
(1.45385 -2.11504e-05 -8.25418e-06)
(1.51131 -0.000308509 -1.47638e-09)
(1.51143 -2.88201e-05 -8.09628e-06)
(1.56951 0.000343747 -7.42381e-08)
(1.56963 -2.02244e-05 -7.93697e-06)
(1.62864 -0.000334216 6.66464e-10)
(1.62876 -3.0283e-05 -7.81357e-06)
(1.68919 0.000369498 -6.80936e-08)
(1.6893 -1.89684e-05 -7.68517e-06)
(1.75171 -0.000358779 -5.13002e-19)
(1.75181 -3.20725e-05 -7.58919e-06)
(1.81664 0.000426467 -2.21294e-07)
(1.81674 -1.73538e-05 -7.44997e-06)
(1.88426 -0.000447647 0)
(1.88436 -3.43241e-05 -7.41774e-06)
(1.9546 0.000615969 -7.35297e-07)
(1.95471 -1.53334e-05 -7.18291e-06)
(2.02752 -0.000740582 -3.90374e-19)
(2.02763 -3.70851e-05 -7.30258e-06)
(2.10275 0.000947067 -9.63573e-07)
(2.10285 -1.28366e-05 -7.04574e-06)
(2.18004 -0.00111461 -2.00884e-21)
(2.18015 -4.03382e-05 -7.24392e-06)
(2.25943 0.00128557 -8.10348e-07)
(2.25953 -9.85021e-06 -7.05617e-06)
(2.3414 -0.00142133 -2.98663e-18)
(2.34151 -4.40431e-05 -7.23472e-06)
(2.42711 0.00151925 -4.33801e-07)
(2.42723 -6.36983e-06 -7.16304e-06)
(2.51836 -0.00158307 -5.62389e-22)
(2.51848 -4.8188e-05 -7.26363e-06)
(2.61739 0.00165132 -2.71608e-07)
(2.61751 -2.39998e-06 -7.24932e-06)
(2.72651 -0.00168512 -5.59906e-22)
(2.72664 -5.28462e-05 -7.32325e-06)
(2.84781 0.00176809 -3.56481e-07)
(2.84795 2.12801e-06 -7.30372e-06)
(2.98294 -0.00181667 -5.5945e-21)
(2.98309 -5.81125e-05 -7.41376e-06)
(3.1331 0.00222198 -2.01953e-06)
(3.13326 7.30097e-06 -6.94716e-06)
(3.29916 -0.00260112 -4.48799e-21)
(3.29933 -6.36129e-05 -7.55499e-06)
(3.48152 0.00287565 -1.58317e-06)
(3.48168 1.30946e-05 -7.3146e-06)
(3.67957 -0.00312646 -3.70268e-08)
(3.67973 -6.90735e-05 -7.77794e-06)
(3.89072 0.00323272 -7.47442e-07)
(3.89088 1.89139e-05 -7.87424e-06)
(4.10905 -0.00331297 -1.63276e-07)
(4.10919 -7.461e-05 -8.1947e-06)
(4.3238 0.00345073 -1.36995e-06)
(4.32392 2.34902e-05 -8.4171e-06)
(4.5186 -0.00356478 -3.92771e-07)
(4.51869 -8.07762e-05 -9.01581e-06)
(4.67172 0.0037449 -2.18923e-06)
(4.67176 2.58601e-05 -9.44019e-06)
(4.75809 -0.00390943 -6.29326e-07)
(4.75807 -8.68881e-05 -1.03913e-05)
(4.75302 0.00411861 -2.66087e-06)
(4.75293 2.68638e-05 -1.1003e-05)
(4.63681 -0.00432043 -6.78563e-07)
(4.63664 -9.03056e-05 -1.21515e-05)
(4.39932 0.00451995 -2.25528e-06)
(4.39907 2.80757e-05 -1.27945e-05)
(4.04294 -0.0047119 -4.31488e-07)
(4.04259 -8.93325e-05 -1.37905e-05)
(3.58313 0.00486452 -1.07124e-06)
(3.5827 2.9128e-05 -1.42716e-05)
(3.04629 -0.00500077 -2.73752e-18)
(3.04577 -8.54657e-05 -1.48393e-05)
(2.46536 0.0051053 -4.59152e-08)
(2.46478 2.78659e-05 -1.50709e-05)
(1.8749 -0.00504752 -1.16633e-06)
(1.87427 -8.13098e-05 -1.49642e-05)
(1.30636 0.00510283 -3.30047e-07)
(1.3057 2.36647e-05 -1.50444e-05)
(0.784943 -0.00502411 -1.82857e-06)
(0.784282 -7.80309e-05 -1.47359e-05)
(0.328141 0.00505622 -4.21437e-07)
(0.327515 1.8092e-05 -1.47812e-05)
(-0.0540327 -0.00498097 -1.93073e-06)
(-0.0545888 -7.54895e-05 -5.23853e-06)
(-0.357837 0.00501313 -3.78412e-07)
(-0.358291 1.34094e-05 -5.01957e-06)
(-0.584088 -0.00494975 -1.7364e-06)
(-0.584429 -7.30305e-05 -4.6023e-06)
(-0.736587 0.00499296 -2.86342e-07)
(-0.736813 9.81279e-06 -4.43367e-06)
(-0.820857 -0.00494141 -1.46836e-06)
(-0.820974 -7.04466e-05 -4.11122e-06)
(-0.84333 0.00499781 -1.91746e-07)
(-0.843343 6.57566e-06 -3.99712e-06)
(-0.810882 -0.00495619 -1.21765e-06)
(-0.810797 -6.75505e-05 -3.77135e-06)
(-0.730583 0.00502473 -1.06172e-07)
(-0.730408 3.09933e-06 -3.70994e-06)
(-0.609521 -0.00499186 -9.95126e-07)
(-0.609261 -6.43641e-05 -3.57335e-06)
(-0.454589 0.00507108 -3.47554e-08)
(-0.454251 -6.8646e-07 -3.56212e-06)
(-0.272307 -0.0044167 -5.62116e-06)
(-0.271901 -6.10048e-05 -3.50697e-06)
(-0.0686277 0.0038439 9.91673e-22)
(-0.0681669 -4.45016e-06 -3.54184e-06)
(0.151255 -0.00278811 -4.87163e-06)
(0.151748 -5.77917e-05 -3.55681e-06)
(0.382987 0.00178286 -8.00435e-18)
(0.383489 -7.74526e-06 -3.63031e-06)
(0.62301 -9.77911e-05 -3.70947e-06)
(0.623504 -5.49313e-05 -6.61582e-08)
(0.868419 0.000113383 3.70833e-19)
(0.868892 -1.05279e-05 -1.69511e-07)
(1.11673 -7.44756e-05 -1.01278e-07)
(1.11717 -5.21513e-05 -1.6775e-07)
(1.36559 0.000109572 -6.28644e-08)
(1.366 -1.29052e-05 -2.05906e-07)
(1.61255 -6.8993e-05 -2.05965e-07)
(1.61292 -4.98025e-05 -1.88083e-07)
(1.85479 0.000103812 -1.94675e-07)
(1.85512 -1.4986e-05 -2.30484e-07)
(2.08905 -6.32687e-05 -3.66535e-07)
(2.08934 -4.78662e-05 -3.29206e-07)
(2.31162 9.80568e-05 -3.8299e-07)
(2.31187 -1.68643e-05 -4.0819e-07)
(2.51843 -5.76767e-05 -5.78348e-07)
(2.51865 -4.63031e-05 -5.40547e-07)
(2.70536 9.22579e-05 -6.0873e-07)
(2.70554 -1.85768e-05 -6.35592e-07)
(2.86854 -5.22057e-05 -8.04494e-07)
(2.86868 -4.49962e-05 -7.67251e-07)
(3.00468 8.65829e-05 -8.23118e-07)
(3.00479 -2.00963e-05 -8.51345e-07)
(3.11145 -4.68747e-05 -9.89638e-07)
(3.11153 -4.38489e-05 -9.5366e-07)