/*--------------------------------*- C++ -*----------------------------------*\
| =========                 |                                                 |
| \\      /  F ield         | OpenFOAM: The Open Source CFD Toolbox           |
|  \\    /   O peration     | Version:  2012                                  |
|   \\  /    A nd           | Website:  www.openfoam.com                      |
|    \\/     M anipulation  |                                                 |
\*---------------------------------------------------------------------------*/
FoamFile
{
    version     2.0;
    format      ascii;
    class       volScalarField;
    location    "12200";
    object      p;
}
// * * * * * * * * * * * * * * * * * * * * * * * * * * * * * * * * * * * * * //

dimensions      [0 2 -2 0 0 0 0];


internalField   nonuniform List<scalar> 
2560
(
-3.10885e-09
0.000267711
-3.78742e-08
0.000267661
-2.3456e-07
0.000267452
-8.41631e-07
0.000266841
-2.22285e-06
0.000265463
-4.92388e-06
0.000262765
-9.62347e-06
0.000258066
-1.71033e-05
0.000250589
-2.83021e-05
0.000239392
-4.42946e-05
0.000223403
-6.62921e-05
0.000201409
-9.56575e-05
0.000172048
-0.000133876
0.000133835
-0.000182579
8.5138e-05
-0.000243536
2.41872e-05
-0.000318651
-5.09209e-05
-0.000409951
-0.000142213
-0.000519592
-0.000251846
-0.000649885
-0.00038213
-0.000803233
-0.000535468
-0.000982143
-0.000714368
-0.00118928
-0.000921498
-0.00142745
-0.00115965
-0.00169945
-0.00143164
-0.00200824
-0.00174042
-0.00235695
-0.00208912
-0.00274876
-0.00248091
-0.0031868
-0.00291894
-0.00367443
-0.00340655
-0.00421512
-0.00394723
-0.00481236
-0.00454445
-0.00546958
-0.00520165
-0.00619039
-0.00592245
-0.00697857
-0.00671061
-0.00783775
-0.00756977
-0.00877158
-0.00850358
-0.00978391
-0.00951589
-0.0108787
-0.0106106
-0.0120596
-0.0117915
-0.0133304
-0.0130624
-0.0146951
-0.014427
-0.0161577
-0.0158896
-0.017722
-0.0174539
-0.0193918
-0.0191236
-0.021171
-0.0209029
-0.0230636
-0.0227954
-0.0250735
-0.0248053
-0.0272043
-0.026936
-0.0294599
-0.0291916
-0.0318446
-0.0315764
-0.0343616
-0.0340933
-0.0370137
-0.0367454
-0.039807
-0.0395386
-0.0427434
-0.042475
-0.0458262
-0.0455578
-0.0490607
-0.0487922
-0.0524482
-0.0521798
-0.0559941
-0.0557256
-0.0597004
-0.0594319
-0.0635701
-0.0633016
-0.0676071
-0.0673386
-0.0718145
-0.071546
-0.0761959
-0.0759273
-0.0807516
-0.080483
-0.0854862
-0.0852175
-0.0904035
-0.0901348
-0.0955028
-0.0952341
-0.100789
-0.10052
-0.106262
-0.105993
-0.111926
-0.111657
-0.117781
-0.117512
-0.123829
-0.123561
-0.130073
-0.129804
-0.136511
-0.136242
-0.143147
-0.142878
-0.149979
-0.14971
-0.157011
-0.156742
-0.164239
-0.16397
-0.171667
-0.171398
-0.179291
-0.179022
-0.187114
-0.186845
-0.195132
-0.194862
-0.203345
-0.203076
-0.211752
-0.211483
-0.22035
-0.220081
-0.229139
-0.228869
-0.238115
-0.237846
-0.247276
-0.247007
-0.25662
-0.25635
-0.266141
-0.265872
-0.275837
-0.275567
-0.285704
-0.285435
-0.295739
-0.295469
-0.305936
-0.305667
-0.316289
-0.31602
-0.326797
-0.326527
-0.337452
-0.337182
-0.348246
-0.347976
-0.359178
-0.358908
-0.370237
-0.369967
-0.381421
-0.381151
-0.392722
-0.392452
-0.404131
-0.403861
-0.415642
-0.415372
-0.427249
-0.426979
-0.438943
-0.438673
-0.450718
-0.450448
-0.462564
-0.462294
-0.474474
-0.474204
-0.486442
-0.486172
-0.498457
-0.498186
-0.510511
-0.51024
-0.522598
-0.522327
-0.534706
-0.534436
-0.54683
-0.54656
-0.558959
-0.558689
-0.571087
-0.570817
-0.583205
-0.582934
-0.595304
-0.595033
-0.607374
-0.607104
-0.619409
-0.619138
-0.631401
-0.63113
-0.64334
-0.643069
-0.655221
-0.65495
-0.667032
-0.666761
-0.678769
-0.678498
-0.690424
-0.690153
-0.701986
-0.701715
-0.713453
-0.713182
-0.724814
-0.724543
-0.736062
-0.735791
-0.747192
-0.746921
-0.758198
-0.757927
-0.76907
-0.768799
-0.779804
-0.779533
-0.790393
-0.790122
-0.800833
-0.800561
-0.811114
-0.810843
-0.821236
-0.820964
-0.831187
-0.830916
-0.840968
-0.840696
-0.850568
-0.850296
-0.859989
-0.859717
-0.869221
-0.868949
-0.878266
-0.877993
-0.887111
-0.886839
-0.895765
-0.895492
-0.904211
-0.903939
-0.912461
-0.912188
-0.920496
-0.920225
-0.928333
-0.92806
-0.935949
-0.935678
-0.943364
-0.94309
-0.950551
-0.95028
-0.957539
-0.957264
-0.96429
-0.96402
-0.970846
-0.970571
-0.977158
-0.976888
-0.983278
-0.983002
-0.989147
-0.988878
-0.994832
-0.994554
-1.00025
-0.999988
-1.00551
-1.00523
-1.01048
-1.01022
-1.0153
-1.01502
-1.01983
-1.01957
-1.02423
-1.02394
-1.02831
-1.02805
-1.03229
-1.03199
-1.03592
-1.03567
-1.03949
-1.03919
-1.04268
-1.04244
-1.04586
-1.04555
-1.0486
-1.04837
-1.0514
-1.05107
-1.0537
-1.05349
-1.05614
-1.05579
-1.05799
-1.0578
-1.06011
-1.05973
-1.06151
-1.06136
-1.06334
-1.06292
-1.06429
-1.06418
-1.06587
-1.06539
-1.06638
-1.0663
-1.06773
-1.06717
-1.06807
-1.06776
-1.06895
-1.06829
-1.06913
-1.06858
-1.06955
-1.06877
-1.06957
-1.06878
-1.06922
-1.06865
-1.06907
-1.06839
-1.0683
-1.06795
-1.06801
-1.06742
-1.06685
-1.06669
-1.06642
-1.06591
-1.06504
-1.0649
-1.06432
-1.06388
-1.0628
-1.06261
-1.06176
-1.06135
-1.06007
-1.05985
-1.05873
-1.05835
-1.05688
-1.05664
-1.05527
-1.05491
-1.05325
-1.05299
-1.05139
-1.05105
-1.0492
-1.04892
-1.04711
-1.04677
-1.04474
-1.04445
-1.04244
-1.0421
-1.0399
-1.0396
-1.03739
-1.03707
-1.03469
-1.03439
-1.032
-1.03167
-1.02914
-1.02883
-1.02627
-1.02594
-1.02325
-1.02294
-1.02021
-1.01989
-1.01704
-1.01672
-1.01383
-1.0135
-1.0105
-1.01018
-1.00712
-1.00679
-1.00361
-1.00329
-1.00005
-0.999721
-0.996371
-0.996042
-0.992622
-0.992289
-0.988764
-0.988431
-0.984837
-0.984501
-0.980814
-0.980478
-0.976722
-0.976383
-0.972538
-0.972198
-0.968281
-0.967938
-0.96393
-0.963586
-0.959501
-0.959154
-0.954976
-0.954628
-0.950369
-0.950019
-0.945667
-0.945315
-0.940882
-0.940527
-0.935999
-0.935643
-0.931028
-0.930669
-0.925962
-0.925602
-0.920811
-0.920448
-0.915574
-0.915209
-0.910256
-0.909888
-0.904855
-0.904485
-0.899372
-0.899
-0.893809
-0.893434
-0.888162
-0.887785
-0.882434
-0.882054
-0.876617
-0.876235
-0.870715
-0.87033
-0.864721
-0.864334
-0.858645
-0.858256
-0.852479
-0.852087
-0.846236
-0.845842
-0.839907
-0.83951
-0.833514
-0.833115
-0.827045
-0.826644
-0.820526
-0.820122
-0.81393
-0.813524
-0.807283
-0.806874
-0.800538
-0.800128
-0.79373
-0.793316
-0.786806
-0.786391
-0.779808
-0.779389
-0.772683
-0.772263
-0.765501
-0.765076
-0.7582
-0.757775
-0.750873
-0.750442
-0.743435
-0.743005
-0.735989
-0.73555
-0.728411
-0.727974
-0.720827
-0.72038
-0.713088
-0.712644
-0.705365
-0.704908
-0.697471
-0.697021
-0.68962
-0.689153
-0.681569
-0.681113
-0.673588
-0.673111
-0.66537
-0.664909
-0.657255
-0.656768
-0.648861
-0.648398
-0.640629
-0.640135
-0.632083
-0.631621
-0.623772
-0.623274
-0.615109
-0.614648
-0.606774
-0.606264
-0.598035
-0.597574
-0.58974
-0.58921
-0.580967
-0.580503
-0.572778
-0.572214
-0.563998
-0.563534
-0.55597
-0.555361
-0.547203
-0.546743
-0.539398
-0.538732
-0.53064
-0.530192
-0.523077
-0.522337
-0.514288
-0.513868
-0.507041
-0.506199
-0.498244
-0.497874
-0.491461
-0.490482
-0.482728
-0.482443
-0.476641
-0.475478
-0.468046
-0.467892
-0.462839
-0.461442
-0.454337
-0.454369
-0.450112
-0.448435
-0.441629
-0.441896
-0.438529
-0.436557
-0.430098
-0.430618
-0.427528
-0.42606
-0.420008
-0.420762
-0.417843
-0.41712
-0.411494
-0.412618
-0.409797
-0.409878
-0.40477
-0.406396
-0.403586
-0.404556
-0.399549
-0.402262
-0.398919
-0.401314
-0.396999
-0.40048
0.000267534
-2.57555e-06
0.000267484
-2.60768e-06
0.000267275
-2.80358e-06
0.000266665
-3.41035e-06
0.000265287
-4.79129e-06
0.000262588
-7.49176e-06
0.00025789
-1.21903e-05
0.000250412
-1.96686e-05
0.000239215
-3.08655e-05
0.000223226
-4.68552e-05
0.000201232
-6.88494e-05
0.000171871
-9.8211e-05
0.000133658
-0.000136425
8.49608e-05
-0.000185122
2.40099e-05
-0.000246074
-5.10982e-05
-0.000321182
-0.000142391
-0.000412476
-0.000252024
-0.000522109
-0.000382307
-0.000652394
-0.000535646
-0.000805733
-0.000714546
-0.000984634
-0.000921676
-0.00119176
-0.00115983
-0.00142992
-0.00143182
-0.00170191
-0.0017406
-0.00201069
-0.0020893
-0.00235939
-0.00248109
-0.00275118
-0.00291912
-0.00318921
-0.00340673
-0.00367683
-0.00394741
-0.00421751
-0.00454463
-0.00481473
-0.00520183
-0.00547194
-0.00592263
-0.00619274
-0.00671079
-0.00698089
-0.00756995
-0.00784006
-0.00850376
-0.00877388
-0.00951607
-0.00978619
-0.0106108
-0.0108809
-0.0117917
-0.0120618
-0.0130625
-0.0133327
-0.0144272
-0.0146973
-0.0158898
-0.0161599
-0.0174541
-0.0177242
-0.0191238
-0.019394
-0.0209031
-0.0211732
-0.0227956
-0.0230658
-0.0248055
-0.0250756
-0.0269362
-0.0272064
-0.0291918
-0.029462
-0.0315765
-0.0318467
-0.0340935
-0.0343637
-0.0367456
-0.0370158
-0.0395388
-0.039809
-0.0424752
-0.0427454
-0.045558
-0.0458282
-0.0487924
-0.0490626
-0.05218
-0.0524502
-0.0557258
-0.055996
-0.0594321
-0.0597023
-0.0633018
-0.063572
-0.0673388
-0.067609
-0.0715461
-0.0718164
-0.0759275
-0.0761978
-0.0804832
-0.0807534
-0.0852177
-0.085488
-0.090135
-0.0904053
-0.0952343
-0.0955046
-0.10052
-0.100791
-0.105993
-0.106263
-0.111658
-0.111928
-0.117513
-0.117783
-0.123561
-0.123831
-0.129804
-0.130074
-0.136242
-0.136513
-0.142878
-0.143148
-0.14971
-0.149981
-0.156742
-0.157013
-0.16397
-0.164241
-0.171398
-0.171668
-0.179022
-0.179292
-0.186845
-0.187115
-0.194863
-0.195133
-0.203076
-0.203346
-0.211483
-0.211754
-0.220081
-0.220352
-0.228869
-0.22914
-0.237846
-0.238116
-0.247007
-0.247278
-0.25635
-0.256621
-0.265872
-0.266143
-0.275568
-0.275838
-0.285435
-0.285706
-0.29547
-0.29574
-0.305667
-0.305938
-0.31602
-0.316291
-0.326527
-0.326798
-0.337182
-0.337453
-0.347976
-0.348247
-0.358908
-0.359179
-0.369968
-0.370238
-0.381151
-0.381422
-0.392452
-0.392723
-0.403861
-0.404132
-0.415372
-0.415643
-0.426979
-0.42725
-0.438673
-0.438944
-0.450448
-0.450719
-0.462294
-0.462565
-0.474205
-0.474476
-0.486172
-0.486443
-0.498187
-0.498458
-0.510241
-0.510512
-0.522327
-0.522599
-0.534436
-0.534707
-0.54656
-0.546831
-0.558689
-0.55896
-0.570817
-0.571088
-0.582934
-0.583205
-0.595033
-0.595305
-0.607104
-0.607375
-0.619138
-0.61941
-0.63113
-0.631402
-0.643069
-0.64334
-0.65495
-0.655221
-0.666762
-0.667033
-0.678499
-0.67877
-0.690153
-0.690424
-0.701715
-0.701987
-0.713182
-0.713454
-0.724543
-0.724814
-0.735791
-0.736063
-0.746921
-0.747193
-0.757927
-0.758199
-0.768799
-0.769071
-0.779533
-0.779805
-0.790122
-0.790394
-0.800561
-0.800833
-0.810843
-0.811115
-0.820964
-0.821236
-0.830916
-0.831187
-0.840696
-0.840968
-0.850297
-0.850568
-0.859717
-0.85999
-0.868949
-0.869221
-0.877993
-0.878266
-0.88684
-0.887111
-0.895492
-0.895765
-0.903939
-0.904211
-0.912188
-0.912461
-0.920225
-0.920497
-0.92806
-0.928334
-0.935678
-0.935949
-0.943091
-0.943365
-0.95028
-0.950551
-0.957264
-0.957539
-0.96402
-0.964291
-0.970571
-0.970846
-0.976888
-0.977158
-0.983002
-0.983279
-0.988878
-0.989147
-0.994554
-0.994832
-0.999988
-1.00025
-1.00523
-1.00551
-1.01022
-1.01048
-1.01502
-1.0153
-1.01957
-1.01983
-1.02394
-1.02423
-1.02805
-1.02831
-1.032
-1.03229
-1.03567
-1.03592
-1.03919
-1.03949
-1.04244
-1.04268
-1.04555
-1.04586
-1.04837
-1.0486
-1.05107
-1.0514
-1.05349
-1.0537
-1.05579
-1.05614
-1.0578
-1.05799
-1.05973
-1.06011
-1.06136
-1.06151
-1.06292
-1.06334
-1.06418
-1.06429
-1.06539
-1.06587
-1.0663
-1.06638
-1.06717
-1.06773
-1.06776
-1.06807
-1.06829
-1.06895
-1.06858
-1.06913
-1.06877
-1.06955
-1.06878
-1.06957
-1.06865
-1.06922
-1.06839
-1.06907
-1.06795
-1.0683
-1.06742
-1.06801
-1.06669
-1.06685
-1.06591
-1.06642
-1.0649
-1.06504
-1.06388
-1.06432
-1.06261
-1.0628
-1.06135
-1.06176
-1.05985
-1.06007
-1.05835
-1.05873
-1.05664
-1.05688
-1.05491
-1.05527
-1.05299
-1.05325
-1.05105
-1.05139
-1.04892
-1.0492
-1.04677
-1.04711
-1.04445
-1.04474
-1.0421
-1.04244
-1.0396
-1.0399
-1.03707
-1.03739
-1.03439
-1.03469
-1.03167
-1.032
-1.02883
-1.02914
-1.02594
-1.02627
-1.02294
-1.02325
-1.01989
-1.02021
-1.01672
-1.01704
-1.0135
-1.01383
-1.01018
-1.0105
-1.00679
-1.00712
-1.00329
-1.00361
-0.999721
-1.00005
-0.996042
-0.996371
-0.992289
-0.992622
-0.988431
-0.988764
-0.984502
-0.984837
-0.980478
-0.980814
-0.976383
-0.976722
-0.972198
-0.972538
-0.967938
-0.968281
-0.963586
-0.96393
-0.959154
-0.9595
-0.954628
-0.954976
-0.950019
-0.950369
-0.945316
-0.945667
-0.940527
-0.940882
-0.935643
-0.935999
-0.930669
-0.931028
-0.925602
-0.925962
-0.920448
-0.920811
-0.915209
-0.915574
-0.909888
-0.910256
-0.904485
-0.904855
-0.899
-0.899372
-0.893434
-0.893809
-0.887785
-0.888162
-0.882054
-0.882434
-0.876235
-0.876617
-0.87033
-0.870715
-0.864334
-0.86472
-0.858256
-0.858646
-0.852087
-0.852479
-0.845842
-0.846236
-0.83951
-0.839906
-0.833115
-0.833514
-0.826644
-0.827045
-0.820123
-0.820527
-0.813524
-0.81393
-0.806874
-0.807283
-0.800128
-0.800538
-0.793317
-0.793731
-0.786391
-0.786805
-0.779389
-0.779809
-0.772263
-0.772682
-0.765077
-0.765502
-0.757775
-0.758199
-0.750443
-0.750874
-0.743004
-0.743434
-0.735551
-0.73599
-0.727974
-0.72841
-0.720381
-0.720828
-0.712644
-0.713087
-0.70491
-0.705367
-0.69702
-0.69747
-0.689154
-0.689621
-0.681111
-0.681567
-0.673112
-0.67359
-0.664908
-0.665368
-0.65677
-0.657257
-0.648397
-0.648859
-0.640136
-0.64063
-0.63162
-0.632081
-0.623276
-0.623774
-0.614647
-0.615107
-0.606266
-0.606776
-0.597572
-0.598033
-0.589212
-0.589742
-0.580502
-0.580964
-0.572217
-0.57278
-0.563532
-0.563995
-0.555363
-0.555972
-0.546741
-0.547201
-0.538735
-0.539401
-0.53019
-0.530637
-0.522339
-0.52308
-0.513866
-0.514285
-0.506202
-0.507043
-0.497872
-0.49824
-0.490484
-0.491464
-0.482441
-0.482725
-0.47548
-0.476644
-0.46789
-0.468042
-0.461443
-0.462842
-0.454368
-0.454332
-0.448436
-0.450117
-0.441895
-0.441624
-0.436557
-0.438534
-0.430618
-0.430093
-0.42606
-0.427523
-0.420762
-0.420003
-0.41712
-0.417838
-0.412617
-0.41149
-0.409879
-0.409792
-0.406396
-0.404765
-0.404556
-0.403582
-0.402262
-0.39956
-0.401314
-0.398929
-0.40048
-0.39701
-0.396998
-0.400479
-0.398916
-0.401318
-0.399546
-0.402263
-0.403679
-0.404563
-0.404862
-0.406401
-0.409888
-0.409885
-0.411586
-0.412626
-0.417928
-0.417127
-0.420093
-0.420769
-0.427614
-0.426067
-0.430184
-0.430629
-0.438603
-0.436566
-0.441713
-0.441906
-0.450188
-0.448447
-0.45442
-0.454381
-0.462911
-0.461453
-0.468124
-0.467904
-0.476713
-0.475491
-0.482803
-0.482456
-0.491534
-0.490498
-0.498318
-0.49789
-0.507111
-0.506216
-0.51436
-0.513885
-0.523143
-0.522351
-0.530708
-0.530209
-0.539469
-0.538753
-0.54727
-0.54676
-0.556038
-0.555382
-0.564066
-0.563554
-0.572841
-0.572231
-0.581036
-0.580526
-0.589807
-0.589232
-0.598106
-0.5976
-0.606839
-0.606286
-0.61518
-0.614676
-0.623836
-0.623294
-0.632147
-0.631642
-0.640694
-0.640156
-0.648923
-0.648417
-0.657322
-0.656792
-0.665434
-0.664931
-0.673654
-0.673134
-0.681634
-0.681136
-0.689686
-0.689177
-0.697534
-0.697042
-0.705432
-0.704933
-0.71315
-0.712666
-0.72089
-0.720402
-0.728473
-0.727996
-0.736053
-0.735574
-0.743495
-0.743025
-0.75094
-0.750469
-0.758264
-0.7578
-0.76556
-0.765096
-0.772746
-0.772288
-0.77987
-0.779413
-0.786871
-0.786418
-0.793793
-0.79334
-0.800599
-0.800151
-0.807342
-0.806895
-0.813998
-0.813555
-0.820589
-0.820148
-0.827111
-0.826673
-0.833578
-0.833142
-0.839973
-0.83954
-0.846297
-0.845865
-0.852537
-0.852108
-0.858711
-0.858285
-0.864784
-0.86436
-0.870782
-0.870361
-0.876676
-0.876258
-0.882491
-0.882075
-0.888224
-0.88781
-0.893866
-0.893455
-0.89943
-0.899022
-0.904915
-0.904509
-0.910319
-0.909916
-0.91564
-0.915239
-0.920879
-0.920481
-0.926028
-0.925632
-0.93109
-0.930696
-0.936063
-0.935671
-0.940942
-0.940553
-0.945728
-0.945341
-0.950433
-0.950048
-0.955035
-0.954652
-0.959557
-0.959177
-0.963994
-0.963615
-0.968342
-0.967966
-0.972594
-0.972219
-0.976783
-0.97641
-0.980875
-0.980502
-0.984895
-0.984526
-0.988824
-0.988454
-0.992687
-0.992322
-0.996438
-0.996072
-1.00011
-0.999748
-1.00368
-1.00332
-1.00718
-1.00682
-1.01056
-1.0102
-1.01389
-1.01353
-1.01711
-1.01675
-1.02027
-1.01992
-1.02332
-1.02296
-1.02633
-1.02598
-1.02921
-1.02885
-1.03205
-1.03171
-1.03477
-1.03441
-1.03744
-1.03711
-1.03997
-1.03961
-1.04248
-1.04215
-1.04482
-1.04445
-1.04714
-1.04682
-1.04929
-1.04891
-1.05142
-1.05111
-1.05336
-1.05297
-1.05528
-1.05499
-1.05701
-1.0566
-1.05872
-1.05845
-1.06022
-1.05979
-1.06172
-1.06148
-1.06298
-1.06252
-1.06424
-1.06405
-1.06527
-1.06475
-1.06628
-1.06614
-1.06706
-1.06657
-1.06779
-1.06773
-1.06832
-1.06802
-1.06875
-1.0688
-1.06902
-1.06895
-1.06914
-1.0693
-1.06914
-1.06928
-1.06894
-1.06886
-1.06865
-1.06868
-1.06812
-1.0678
-1.06753
-1.06746
-1.06667
-1.06611
-1.06575
-1.0656
-1.06454
-1.06401
-1.06328
-1.06307
-1.06172
-1.06124
-1.06009
-1.05983
-1.05817
-1.05772
-1.05616
-1.05587
-1.05384
-1.05342
-1.05143
-1.05112
-1.04873
-1.04833
-1.04591
-1.04559
-1.04281
-1.04242
-1.03956
-1.03922
-1.03604
-1.03566
-1.03236
-1.03202
-1.02841
-1.02803
-1.0243
-1.02395
-1.01992
-1.01955
-1.01539
-1.01504
-1.01057
-1.0102
-1.00558
-1.00523
-1.00034
-0.999977
-0.994901
-0.99455
-0.989254
-0.988893
-0.983366
-0.983013
-0.977235
-0.976876
-0.970947
-0.970594
-0.964378
-0.964019
-0.957607
-0.957253
-0.95066
-0.950302
-0.943465
-0.943111
-0.936049
-0.935691
-0.928442
-0.928087
-0.92056
-0.920203
-0.912559
-0.912204
-0.904287
-0.90393
-0.895844
-0.895489
-0.887203
-0.886847
-0.878333
-0.877978
-0.86927
-0.868914
-0.86007
-0.859715
-0.85069
-0.850334
-0.841018
-0.840663
-0.831264
-0.830908
-0.821317
-0.820962
-0.811218
-0.810862
-0.800936
-0.800581
-0.790522
-0.790167
-0.779936
-0.779581
-0.769131
-0.768776
-0.758273
-0.757919
-0.747328
-0.746973
-0.736121
-0.735767
-0.724846
-0.724491
-0.713559
-0.713205
-0.70211
-0.701756
-0.690543
-0.690189
-0.678829
-0.678474
-0.667147
-0.666792
-0.655336
-0.654982
-0.643448
-0.643094
-0.631443
-0.631089
-0.61953
-0.619176
-0.607516
-0.607162
-0.595328
-0.594974
-0.583353
-0.582999
-0.571228
-0.570874
-0.559033
-0.558679
-0.546858
-0.546504
-0.534798
-0.534444
-0.522615
-0.522261
-0.510578
-0.510225
-0.498597
-0.498243
-0.486457
-0.486103
-0.474556
-0.474203
-0.462693
-0.462339
-0.450743
-0.450389
-0.439027
-0.438673
-0.427419
-0.427065
-0.415715
-0.415361
-0.404132
-0.403778
-0.392837
-0.392484
-0.381498
-0.381144
-0.370291
-0.369937
-0.35923
-0.358877
-0.34833
-0.347977
-0.337583
-0.33723
-0.326838
-0.326485
-0.316441
-0.316087
-0.306062
-0.305709
-0.295864
-0.29551
-0.285879
-0.285526
-0.275907
-0.275553
-0.26616
-0.265806
-0.256621
-0.256268
-0.247321
-0.246968
-0.238237
-0.237883
-0.22922
-0.228867
-0.220429
-0.220076
-0.211894
-0.211541
-0.203415
-0.203062
-0.1952
-0.194847
-0.18722
-0.186867
-0.179342
-0.178989
-0.1717
-0.171347
-0.164337
-0.163984
-0.157042
-0.156689
-0.150036
-0.149683
-0.143254
-0.142901
-0.136613
-0.13626
-0.130185
-0.129832
-0.123912
-0.123559
-0.117844
-0.117491
-0.112089
-0.111737
-0.106379
-0.106026
-0.100851
-0.100498
-0.0956366
-0.0952839
-0.0904791
-0.0901264
-0.0856169
-0.0852642
-0.0808195
-0.0804668
-0.0763117
-0.075959
-0.0718624
-0.0715097
-0.0677089
-0.0673563
-0.0637117
-0.0633591
-0.0597904
-0.0594379
-0.0561145
-0.055762
-0.0525345
-0.0521819
-0.0491742
-0.0488217
-0.0459196
-0.0455671
-0.0428666
-0.042514
-0.0399214
-0.0395689
-0.0370742
-0.0367217
-0.0344279
-0.0340754
-0.0319539
-0.0316014
-0.0295886
-0.0292361
-0.0273023
-0.0269498
-0.0251315
-0.024779
-0.0231771
-0.0228246
-0.0212608
-0.0209083
-0.0194815
-0.019129
-0.0178013
-0.0174489
-0.0162546
-0.0159022
-0.0147906
-0.0144382
-0.0134073
-0.0130549
-0.0121438
-0.0117914
-0.0109642
-0.0106118
-0.00988338
-0.00953101
-0.00884632
-0.00849394
-0.00793445
-0.00758206
-0.00706564
-0.00671325
-0.00627387
-0.0059215
-0.00555483
-0.00520246
-0.00490537
-0.00455301
-0.00431688
-0.00396454
-0.00376725
-0.0034149
-0.00327248
-0.00292012
-0.00283633
-0.00248398
-0.00244504
-0.00209271
-0.00208897
-0.00173664
-0.00178652
-0.00143418
-0.00151413
-0.00116179
-0.00127426
-0.000921924
-0.00107111
-0.000718776
-0.000894582
-0.000542253
-0.00073932
-0.000386989
-0.000607287
-0.000254954
-0.000499062
-0.000146733
-0.000408683
-5.63599e-05
-0.00033221
2.01143e-05
-0.000270334
8.19932e-05
-0.000222221
0.000130102
-0.000184429
0.00016789
-0.000154522
0.000197798
-0.000132261
0.000220061
-0.000116524
0.000235796
-0.000105495
0.000246822
-9.7902e-05
0.000254416
-9.3169e-05
0.000259148
-9.05119e-05
0.000261802
-8.91498e-05
0.000263159
-8.85312e-05
0.000263781
-8.83264e-05
0.000263999
-8.8293e-05
0.000264053
-0.400479
-0.397009
-0.401318
-0.398927
-0.402262
-0.399557
-0.404563
-0.403674
-0.4064
-0.404857
-0.409885
-0.409883
-0.412626
-0.411581
-0.417127
-0.417923
-0.420768
-0.420088
-0.426067
-0.427609
-0.430628
-0.430179
-0.436566
-0.438608
-0.441905
-0.441709
-0.448448
-0.450192
-0.45438
-0.454416
-0.461454
-0.462915
-0.467902
-0.46812
-0.475493
-0.476716
-0.482454
-0.4828
-0.4905
-0.491537
-0.497888
-0.498315
-0.506218
-0.507114
-0.513883
-0.514357
-0.522353
-0.523146
-0.530207
-0.530705
-0.538755
-0.539471
-0.546758
-0.547268
-0.555384
-0.556041
-0.563552
-0.564064
-0.572233
-0.572843
-0.580525
-0.581033
-0.589234
-0.589809
-0.597598
-0.598104
-0.606288
-0.606841
-0.614674
-0.615178
-0.623296
-0.623837
-0.63164
-0.632145
-0.640158
-0.640696
-0.648416
-0.648922
-0.656794
-0.657324
-0.66493
-0.665433
-0.673135
-0.673655
-0.681134
-0.681632
-0.689178
-0.689688
-0.697041
-0.697532
-0.704935
-0.705433
-0.712665
-0.713149
-0.720403
-0.720891
-0.727995
-0.728472
-0.735575
-0.736054
-0.743025
-0.743494
-0.75047
-0.75094
-0.7578
-0.758263
-0.765097
-0.765561
-0.772288
-0.772746
-0.779413
-0.779871
-0.786418
-0.786871
-0.793341
-0.793793
-0.80015
-0.800599
-0.806895
-0.807342
-0.813555
-0.813998
-0.820148
-0.82059
-0.826672
-0.827111
-0.833142
-0.833578
-0.839539
-0.839973
-0.845866
-0.846297
-0.852108
-0.852536
-0.858285
-0.858711
-0.86436
-0.864783
-0.870361
-0.870782
-0.876258
-0.876676
-0.882076
-0.882491
-0.88781
-0.888223
-0.893456
-0.893866
-0.899022
-0.89943
-0.904509
-0.904915
-0.909916
-0.910319
-0.91524
-0.91564
-0.920481
-0.920879
-0.925633
-0.926028
-0.930696
-0.93109
-0.935671
-0.936063
-0.940553
-0.940941
-0.945341
-0.945728
-0.950048
-0.950433
-0.954652
-0.955035
-0.959177
-0.959557
-0.963615
-0.963994
-0.967966
-0.968342
-0.972219
-0.972594
-0.97641
-0.976782
-0.980502
-0.980874
-0.984526
-0.984895
-0.988454
-0.988823
-0.992322
-0.992687
-0.996072
-0.996438
-0.999748
-1.00011
-1.00332
-1.00368
-1.00682
-1.00718
-1.0102
-1.01056
-1.01353
-1.01389
-1.01675
-1.01711
-1.01992
-1.02027
-1.02296
-1.02332
-1.02598
-1.02633
-1.02885
-1.02921
-1.03171
-1.03205
-1.03441
-1.03477
-1.03711
-1.03744
-1.03961
-1.03997
-1.04215
-1.04248
-1.04445
-1.04482
-1.04682
-1.04714
-1.04891
-1.04929
-1.05111
-1.05142
-1.05297
-1.05335
-1.05499
-1.05528
-1.0566
-1.05701
-1.05845
-1.05872
-1.05979
-1.06022
-1.06148
-1.06172
-1.06252
-1.06298
-1.06405
-1.06424
-1.06475
-1.06527
-1.06614
-1.06628
-1.06657
-1.06706
-1.06773
-1.06779
-1.06802
-1.06832
-1.0688
-1.06875
-1.06895
-1.06902
-1.0693
-1.06914
-1.06928
-1.06914
-1.06886
-1.06894
-1.06868
-1.06865
-1.0678
-1.06812
-1.06746
-1.06753
-1.06611
-1.06667
-1.0656
-1.06575
-1.06401
-1.06454
-1.06307
-1.06328
-1.06124
-1.06172
-1.05983
-1.06009
-1.05772
-1.05817
-1.05587
-1.05616
-1.05342
-1.05384
-1.05112
-1.05143
-1.04833
-1.04873
-1.04559
-1.04591
-1.04242
-1.04281
-1.03922
-1.03956
-1.03566
-1.03604
-1.03202
-1.03236
-1.02803
-1.0284
-1.02395
-1.0243
-1.01955
-1.01992
-1.01504
-1.01539
-1.0102
-1.01057
-1.00523
-1.00558
-0.999977
-1.00034
-0.994549
-0.994901
-0.988893
-0.989254
-0.983013
-0.983366
-0.976875
-0.977235
-0.970593
-0.970947
-0.964019
-0.964378
-0.957253
-0.957607
-0.950302
-0.95066
-0.94311
-0.943465
-0.935691
-0.936048
-0.928087
-0.928441
-0.920203
-0.92056
-0.912203
-0.912558
-0.90393
-0.904287
-0.895489
-0.895844
-0.886847
-0.887203
-0.877978
-0.878333
-0.868914
-0.86927
-0.859715
-0.86007
-0.850334
-0.85069
-0.840663
-0.841018
-0.830908
-0.831263
-0.820962
-0.821316
-0.810862
-0.811217
-0.800581
-0.800936
-0.790167
-0.790522
-0.779581
-0.779936
-0.768776
-0.769131
-0.757919
-0.758273
-0.746973
-0.747328
-0.735766
-0.736121
-0.724491
-0.724845
-0.713204
-0.713559
-0.701755
-0.70211
-0.690189
-0.690543
-0.678474
-0.678828
-0.666792
-0.667147
-0.654982
-0.655336
-0.643093
-0.643448
-0.631088
-0.631443
-0.619176
-0.61953
-0.607161
-0.607515
-0.594973
-0.595327
-0.582999
-0.583353
-0.570874
-0.571228
-0.558678
-0.559032
-0.546503
-0.546857
-0.534444
-0.534797
-0.52226
-0.522614
-0.510224
-0.510578
-0.498243
-0.498596
-0.486103
-0.486456
-0.474202
-0.474556
-0.462338
-0.462692
-0.450388
-0.450742
-0.438673
-0.439027
-0.427065
-0.427418
-0.415361
-0.415714
-0.403778
-0.404131
-0.392483
-0.392837
-0.381144
-0.381497
-0.369937
-0.37029
-0.358876
-0.35923
-0.347976
-0.348329
-0.337229
-0.337583
-0.326484
-0.326837
-0.316087
-0.31644
-0.305709
-0.306062
-0.29551
-0.295863
-0.285525
-0.285878
-0.275553
-0.275906
-0.265806
-0.266159
-0.256268
-0.256621
-0.246967
-0.24732
-0.237883
-0.238236
-0.228866
-0.229219
-0.220076
-0.220429
-0.21154
-0.211893
-0.203061
-0.203414
-0.194847
-0.1952
-0.186867
-0.18722
-0.178989
-0.179341
-0.171346
-0.171699
-0.163984
-0.164336
-0.156689
-0.157041
-0.149683
-0.150035
-0.142901
-0.143254
-0.136259
-0.136612
-0.129832
-0.130184
-0.123558
-0.123911
-0.117491
-0.117843
-0.111736
-0.112089
-0.106026
-0.106378
-0.100498
-0.10085
-0.0952833
-0.0956358
-0.0901258
-0.0904783
-0.0852635
-0.0856161
-0.0804662
-0.0808187
-0.0759583
-0.0763108
-0.0715091
-0.0718616
-0.0673556
-0.0677081
-0.0633584
-0.0637109
-0.0594372
-0.0597896
-0.0557613
-0.0561137
-0.0521812
-0.0525336
-0.048821
-0.0491734
-0.0455664
-0.0459188
-0.0425133
-0.0428657
-0.0395682
-0.0399206
-0.036721
-0.0370734
-0.0340747
-0.034427
-0.0316007
-0.031953
-0.0292354
-0.0295877
-0.026949
-0.0273014
-0.0247783
-0.0251306
-0.0228239
-0.0231762
-0.0209075
-0.0212598
-0.0191282
-0.0194805
-0.0174481
-0.0178004
-0.0159014
-0.0162537
-0.0144374
-0.0147897
-0.0130541
-0.0134064
-0.0117906
-0.0121428
-0.010611
-0.0109633
-0.00953019
-0.00988241
-0.00849312
-0.00884535
-0.00758122
-0.00793348
-0.00671242
-0.00706466
-0.00592065
-0.00627288
-0.00520162
-0.00555384
-0.00455216
-0.00490437
-0.00396368
-0.00431588
-0.00341404
-0.00376625
-0.00291925
-0.00327147
-0.00248311
-0.00283532
-0.00209183
-0.00244402
-0.00173576
-0.00208794
-0.00143329
-0.00178549
-0.0011609
-0.0015131
-0.000921029
-0.00127322
-0.000717878
-0.00107007
-0.000541351
-0.000893539
-0.000386084
-0.000738273
-0.000254046
-0.000606238
-0.000145822
-0.00049801
-5.54467e-05
-0.000407629
2.10297e-05
-0.000331153
8.29106e-05
-0.000269275
0.000131022
-0.000221161
0.000168811
-0.000183368
0.00019872
-0.000153459
0.000220984
-0.000131197
0.00023672
-0.000115459
0.000247746
-0.000104429
0.00025534
-9.68363e-05
0.000260073
-9.21034e-05
0.000262727
-8.94462e-05
0.000264084
-8.80842e-05
0.000264705
-8.74657e-05
0.000264924
-8.72606e-05
0.000264979
-8.72267e-05
)
;

boundaryField
{
    walls
    {
        type            zeroGradient;
    }
    inlet
    {
        type            cyclic;
    }
    outlet
    {
        type            cyclic;
    }
    sides
    {
        type            empty;
    }
}


// ************************************************************************* //
