/*--------------------------------*- C++ -*----------------------------------*\
| =========                 |                                                 |
| \\      /  F ield         | OpenFOAM: The Open Source CFD Toolbox           |
|  \\    /   O peration     | Version:  2012                                  |
|   \\  /    A nd           | Website:  www.openfoam.com                      |
|    \\/     M anipulation  |                                                 |
\*---------------------------------------------------------------------------*/
FoamFile
{
    version     2.0;
    format      ascii;
    class       volSymmTensorField;
    location    "12200";
    object      turbulenceProperties:R;
}
// * * * * * * * * * * * * * * * * * * * * * * * * * * * * * * * * * * * * * //

dimensions      [0 2 -2 0 0 0 0];


internalField   nonuniform List<symmTensor> 
2560
(
(0.00149019 -1.42747e-06 -2.06778e-09 0.00149019 1.40088e-12 0.00149019)
(0.00149019 -1.42747e-06 -2.06778e-09 0.00149019 6.39014e-16 0.00149019)
(0.0327469 -0.000180157 -7.87091e-07 0.0327469 -4.8511e-14 0.0327469)
(0.0327469 -0.000180158 -7.87091e-07 0.0327469 3.06546e-13 0.0327469)
(0.232426 -0.00379241 -2.27484e-05 0.232426 -5.20576e-10 0.232426)
(0.232426 -0.00379241 -2.27484e-05 0.232426 1.36112e-11 0.232426)
(0.807135 -0.0283951 -0.000172793 0.807135 -9.46122e-09 0.807135)
(0.807135 -0.0283951 -0.000172793 0.807135 1.23222e-10 0.807135)
(1.77854 -0.110516 -0.00068227 1.77854 -3.46267e-08 1.77854)
(1.77854 -0.110516 -0.00068227 1.77854 3.70395e-10 1.77854)
(2.89202 -0.270022 -0.00169115 2.89202 -5.2273e-08 2.89202)
(2.89203 -0.270022 -0.00169115 2.89203 6.20719e-10 2.89203)
(3.96111 -0.493705 -0.00313703 3.96111 -5.20016e-08 3.96111)
(3.96111 -0.493705 -0.00313703 3.96111 1.15636e-09 3.96111)
(4.94482 -0.761817 -0.00491112 4.94482 -4.62875e-08 4.94482)
(4.94482 -0.761817 -0.00491112 4.94482 2.00582e-09 4.94482)
(5.85133 -1.06037 -0.00693549 5.85133 -4.18665e-08 5.85133)
(5.85133 -1.06037 -0.00693549 5.85133 3.27254e-09 5.85133)
(6.69548 -1.38052 -0.0091615 6.69548 -4.01392e-08 6.69548)
(6.69548 -1.38052 -0.0091615 6.69548 4.90586e-09 6.69548)
(7.48977 -1.71662 -0.0115587 7.48977 -4.10667e-08 7.48977)
(7.48977 -1.71662 -0.0115587 7.48977 -3.10561e-09 7.48977)
(8.24358 -2.06486 -0.0141073 8.24358 -4.45456e-08 8.24358)
(8.24358 -2.06486 -0.0141073 8.24358 -2.91648e-08 8.24358)
(8.96381 -2.42262 -0.0167943 8.96381 -5.05203e-08 8.96381)
(8.96381 -2.42262 -0.0167943 8.96381 -5.0419e-08 8.96381)
(9.65551 -2.78802 -0.019611 9.65551 -5.91442e-08 9.65551)
(9.65551 -2.78802 -0.019611 9.65551 -5.90474e-08 9.65551)
(10.3225 -3.15967 -0.0225516 10.3225 -6.93591e-08 10.3225)
(10.3225 -3.15967 -0.0225516 10.3225 -7.04345e-08 10.3225)
(10.9675 -3.53653 -0.025612 10.9675 -5.27076e-08 10.9675)
(10.9675 -3.53653 -0.025612 10.9675 -8.47487e-08 10.9675)
(11.5926 -3.91778 -0.0287897 11.5926 -3.04612e-08 11.5926)
(11.5926 -3.91778 -0.0287897 11.5926 -1.02285e-07 11.5926)
(12.1995 -4.30275 -0.0320827 12.1995 -3.60281e-08 12.1995)
(12.1995 -4.30275 -0.0320827 12.1995 -1.23307e-07 12.1995)
(12.7891 -4.69084 -0.0354894 12.7891 -4.21999e-08 12.7891)
(12.7891 -4.69084 -0.0354894 12.7891 -1.36747e-10 12.7891)
(13.3624 -5.08152 -0.0390085 13.3624 -4.8977e-08 13.3624)
(13.3624 -5.08152 -0.0390085 13.3624 4.18863e-09 13.3624)
(13.9199 -5.47424 -0.0426382 13.9199 -5.63671e-08 13.9199)
(13.9199 -5.47424 -0.0426382 13.9199 2.92027e-08 13.9199)
(14.4617 -5.86842 -0.0463763 14.4617 -6.43853e-08 14.4617)
(14.4617 -5.86842 -0.0463763 14.4617 2.4172e-08 14.4617)
(14.9881 -6.26341 -0.0502198 14.9881 -7.32227e-08 14.9881)
(14.9881 -6.26341 -0.0502198 14.9881 -2.71443e-08 14.9881)
(15.4988 -6.65852 -0.054165 15.4988 -8.25507e-08 15.4988)
(15.4988 -6.65852 -0.054165 15.4988 -8.28163e-08 15.4988)
(15.9938 -7.05292 -0.0582069 15.9938 -9.28966e-08 15.9938)
(15.9938 -7.05292 -0.0582069 15.9938 -9.31136e-08 15.9938)
(16.4725 -7.44569 -0.0623389 16.4725 -1.03721e-07 16.4725)
(16.4725 -7.44569 -0.0623389 16.4725 -1.03967e-07 16.4725)
(16.9345 -7.83579 -0.0665535 16.9345 -1.15724e-07 16.9345)
(16.9345 -7.83579 -0.0665535 16.9345 -1.15576e-07 16.9345)
(17.3792 -8.22207 -0.0708414 17.3792 -1.28166e-07 17.3792)
(17.3792 -8.22207 -0.0708414 17.3792 -1.28523e-07 17.3792)
(17.8059 -8.60322 -0.0751914 17.8059 -1.41988e-07 17.8059)
(17.8059 -8.60322 -0.0751914 17.8059 -1.42056e-07 17.8059)
(18.2139 -8.9778 -0.0795901 18.2139 -1.56055e-07 18.2139)
(18.2139 -8.9778 -0.0795901 18.2139 -1.56361e-07 18.2139)
(18.6023 -9.34425 -0.084023 18.6023 -1.71752e-07 18.6023)
(18.6023 -9.34425 -0.084023 18.6023 -1.71475e-07 18.6023)
(18.9702 -9.70092 -0.0884735 18.9702 -1.87821e-07 18.9702)
(18.9702 -9.70092 -0.0884735 18.9702 -1.88243e-07 18.9702)
(19.3168 -10.046 -0.0929224 19.3168 -2.05548e-07 19.3168)
(19.3168 -10.046 -0.0929224 19.3168 -2.05539e-07 19.3168)
(19.641 -10.3776 -0.0973485 19.641 -2.23432e-07 19.641)
(19.641 -10.3776 -0.0973485 19.641 -2.2373e-07 19.641)
(19.9419 -10.6937 -0.10173 19.9419 -2.43276e-07 19.9419)
(19.9419 -10.6937 -0.10173 19.9419 -2.43118e-07 19.9419)
(20.2185 -10.9923 -0.106042 20.2185 -2.6378e-07 20.2185)
(20.2185 -10.9923 -0.106042 20.2185 -2.64215e-07 20.2185)
(20.4699 -11.2713 -0.110257 20.4699 -2.85905e-07 20.4699)
(20.4699 -11.2713 -0.110257 20.4699 -2.85925e-07 20.4699)
(20.6951 -11.5285 -0.114348 20.6951 -3.0833e-07 20.6951)
(20.6951 -11.5285 -0.114348 20.6951 -3.08607e-07 20.6951)
(20.8933 -11.7618 -0.118285 20.8933 -3.32835e-07 20.8933)
(20.8933 -11.7618 -0.118285 20.8933 -3.32713e-07 20.8933)
(21.0637 -11.9691 -0.122039 21.0637 -3.58333e-07 21.0637)
(21.0637 -11.9691 -0.122039 21.0637 -3.58749e-07 21.0637)
(21.2056 -12.1483 -0.125577 21.2056 -3.85518e-07 21.2056)
(21.2056 -12.1483 -0.125577 21.2056 -3.85736e-07 21.2056)
(21.3184 -12.2973 -0.128865 21.3184 -4.13336e-07 21.3184)
(21.3184 -12.2973 -0.128865 21.3184 -4.13474e-07 21.3184)
(21.4016 -12.4143 -0.131872 21.4016 -4.43417e-07 21.4016)
(21.4016 -12.4143 -0.131872 21.4016 -4.42931e-07 21.4016)
(21.4549 -12.4974 -0.134566 21.4549 -4.74025e-07 21.4549)
(21.4549 -12.4974 -0.134566 21.4549 -4.74572e-07 21.4549)
(21.4782 -12.5451 -0.136912 21.4782 -5.0708e-07 21.4782)
(21.4782 -12.5451 -0.136912 21.4782 -5.06575e-07 21.4782)
(21.4714 -12.5559 -0.138879 21.4714 -5.40218e-07 21.4714)
(21.4714 -12.5559 -0.138879 21.4714 -5.40818e-07 21.4714)
(21.4349 -12.5285 -0.140435 21.4349 -5.75668e-07 21.4349)
(21.4349 -12.5285 -0.140435 21.4349 -5.75407e-07 21.4349)
(21.369 -12.4618 -0.141552 21.369 -6.13492e-07 21.369)
(21.369 -12.4618 -0.141552 21.369 -6.14374e-07 21.369)
(21.2745 -12.355 -0.142198 21.2745 -6.52109e-07 21.2745)
(21.2745 -12.355 -0.142198 21.2745 -6.51568e-07 21.2745)
(21.1522 -12.2076 -0.14235 21.1522 -6.88171e-07 21.1522)
(21.1522 -12.2076 -0.14235 21.1522 -6.88012e-07 21.1522)
(21.0034 -12.0195 -0.141987 21.0034 -7.3262e-07 21.0034)
(21.0034 -12.0195 -0.141987 21.0034 -7.32061e-07 21.0034)
(20.8296 -11.7906 -0.141084 20.8296 -7.75937e-07 20.8296)
(20.8296 -11.7906 -0.141084 20.8296 -7.78794e-07 20.8296)
(20.6323 -11.5211 -0.139621 20.6323 -8.11518e-07 20.6323)
(20.6323 -11.5211 -0.139621 20.6323 -8.15356e-07 20.6323)
(20.4135 -11.2117 -0.137592 20.4135 -8.63017e-07 20.4135)
(20.4135 -11.2117 -0.137592 20.4135 -8.6746e-07 20.4135)
(20.1756 -10.8633 -0.134978 20.1756 -9.05832e-07 20.1756)
(20.1756 -10.8633 -0.134978 20.1756 -9.07737e-07 20.1756)
(19.9209 -10.477 -0.131773 19.9209 -9.54309e-07 19.9209)
(19.9209 -10.477 -0.131773 19.9209 -9.53714e-07 19.9209)
(19.652 -10.0542 -0.127976 19.652 -1.00152e-06 19.652)
(19.652 -10.0542 -0.127976 19.652 -1.00334e-06 19.652)
(19.372 -9.59656 -0.123585 19.372 -1.04197e-06 19.372)
(19.372 -9.59656 -0.123585 19.372 -1.04484e-06 19.372)
(19.0839 -9.10613 -0.118608 19.0839 -1.09257e-06 19.0839)
(19.0839 -9.10613 -0.118608 19.0839 -1.09552e-06 19.0839)
(18.7909 -8.58497 -0.113049 18.7909 -1.13856e-06 18.7909)
(18.7909 -8.58497 -0.113049 18.7909 -1.14051e-06 18.7909)
(18.4962 -8.03516 -0.106918 18.4962 -1.18747e-06 18.4962)
(18.4962 -8.03516 -0.106918 18.4962 -1.18947e-06 18.4962)
(18.2033 -7.45894 -0.100225 18.2033 -1.22542e-06 18.2033)
(18.2033 -7.45894 -0.100225 18.2033 -1.22667e-06 18.2033)
(17.9156 -6.8588 -0.0929915 17.9156 -1.26587e-06 17.9156)
(17.9156 -6.8588 -0.0929915 17.9156 -1.26733e-06 17.9156)
(17.6364 -6.23739 -0.0852357 17.6364 -1.31523e-06 17.6364)
(17.6364 -6.23739 -0.0852357 17.6364 -1.31844e-06 17.6364)
(17.3689 -5.59689 -0.0769677 17.3689 -1.34503e-06 17.3689)
(17.3689 -5.59689 -0.0769677 17.3689 -1.34769e-06 17.3689)
(17.1163 -4.93966 -0.0682163 17.1163 -1.37816e-06 17.1163)
(17.1163 -4.93966 -0.0682163 17.1163 -1.37939e-06 17.1163)
(16.8812 -4.26839 -0.0590034 16.8812 -1.41239e-06 16.8812)
(16.8812 -4.26839 -0.0590034 16.8812 -1.41632e-06 16.8812)
(16.6663 -3.58531 -0.0493481 16.6663 -1.43339e-06 16.6663)
(16.6663 -3.58531 -0.0493481 16.6663 -1.44237e-06 16.6663)
(16.4738 -2.89261 -0.0392751 16.4738 -1.46759e-06 16.4738)
(16.4738 -2.89261 -0.0392751 16.4738 -1.47851e-06 16.4738)
(16.3055 -2.19258 -0.0288084 16.3055 -1.46522e-06 16.3055)
(16.3055 -2.19258 -0.0288084 16.3055 -1.48305e-06 16.3055)
(16.1626 -1.48762 -0.0179803 16.1626 -1.50556e-06 16.1626)
(16.1626 -1.48762 -0.0179803 16.1626 -1.52163e-06 16.1626)
(16.0461 -0.77996 -0.00681186 16.0461 -1.49992e-06 16.0461)
(16.0461 -0.77996 -0.00681186 16.0461 -1.51885e-06 16.0461)
(15.9564 -0.000162121 -1.32711e-06 15.9564 -1.53275e-06 15.9564)
(15.9564 -0.000162017 -1.32625e-06 15.9564 -1.54562e-06 15.9564)
(15.8932 0.571071 -0.0047427 15.8932 -1.53159e-06 15.8932)
(15.8932 0.571071 -0.00474271 15.8932 -1.54672e-06 15.8932)
(15.8561 1.33453 -0.0167031 15.8561 -1.55883e-06 15.8561)
(15.8561 1.33453 -0.0167031 15.8561 -1.56747e-06 15.8561)
(15.8438 2.02783 -0.0289125 15.8438 -1.55464e-06 15.8438)
(15.8438 2.02783 -0.0289125 15.8438 -1.567e-06 15.8438)
(15.8549 2.71042 -0.0413228 15.8549 -1.58045e-06 15.8549)
(15.8549 2.71042 -0.0413228 15.8549 -1.5831e-06 15.8549)
(15.8875 3.37889 -0.0538704 15.8875 -1.59141e-06 15.8875)
(15.8875 3.37889 -0.0538704 15.8875 -1.59486e-06 15.8875)
(15.9393 4.03003 -0.0664923 15.9393 -1.6088e-06 15.9393)
(15.9393 4.03003 -0.0664923 15.9393 -1.61412e-06 15.9393)
(16.0079 4.66055 -0.0791249 16.0079 -1.6345e-06 16.0079)
(16.0079 4.66055 -0.0791249 16.0079 -1.63708e-06 16.0079)
(16.0906 5.26698 -0.0916951 16.0906 -1.63884e-06 16.0906)
(16.0906 5.26698 -0.0916951 16.0906 -1.65407e-06 16.0906)
(16.1845 5.84577 -0.104125 16.1845 -1.6877e-06 16.1845)
(16.1845 5.84577 -0.104125 16.1845 -1.69764e-06 16.1845)
(16.287 6.39382 -0.116332 16.287 -1.69575e-06 16.287)
(16.287 6.39382 -0.116332 16.287 -1.71439e-06 16.287)
(16.395 6.90828 -0.128246 16.395 -1.74968e-06 16.395)
(16.395 6.90828 -0.128247 16.395 -1.75661e-06 16.395)
(16.5058 7.38631 -0.139788 16.5058 -1.78287e-06 16.5058)
(16.5058 7.38631 -0.139788 16.5058 -1.79673e-06 16.5058)
(16.6167 7.82584 -0.150882 16.6167 -1.8407e-06 16.6167)
(16.6167 7.82584 -0.150882 16.6167 -1.84564e-06 16.6167)
(16.7253 8.22535 -0.161471 16.7253 -1.8716e-06 16.7253)
(16.7253 8.22535 -0.161471 16.7253 -1.88785e-06 16.7253)
(16.8291 8.58358 -0.171498 16.8291 -1.93769e-06 16.8291)
(16.8291 8.58358 -0.171498 16.8291 -1.94411e-06 16.8291)
(16.9261 8.89972 -0.180909 16.9261 -1.96652e-06 16.9261)
(16.9261 8.89972 -0.180909 16.9261 -1.98536e-06 16.9261)
(17.0142 9.1734 -0.189664 17.0142 -2.04662e-06 17.0142)
(17.0142 9.1734 -0.189664 17.0142 -2.05248e-06 17.0142)
(17.092 9.40489 -0.197724 17.092 -2.09643e-06 17.092)
(17.092 9.40489 -0.197724 17.092 -2.10961e-06 17.092)
(17.1579 9.59516 -0.205073 17.1579 -2.16785e-06 17.1579)
(17.1579 9.59516 -0.205073 17.1579 -2.16681e-06 17.1579)
(17.2108 9.74545 -0.211702 17.2108 -2.2107e-06 17.2108)
(17.2108 9.74545 -0.211702 17.2108 -2.2205e-06 17.2108)
(17.2498 9.85708 -0.217604 17.2498 -2.2779e-06 17.2498)
(17.2498 9.85708 -0.217604 17.2498 -2.28171e-06 17.2498)
(17.2741 9.93187 -0.222779 17.2741 -2.35756e-06 17.2741)
(17.2741 9.93187 -0.222779 17.2741 -2.36011e-06 17.2741)
(17.2832 9.97221 -0.227243 17.2832 -2.38302e-06 17.2832)
(17.2832 9.97221 -0.227243 17.2832 -2.40206e-06 17.2832)
(17.2768 9.98033 -0.231024 17.2768 -2.46563e-06 17.2768)
(17.2768 9.98033 -0.231024 17.2768 -2.46548e-06 17.2768)
(17.2549 9.95841 -0.234133 17.2549 -2.51989e-06 17.2549)
(17.2549 9.95841 -0.234133 17.2549 -2.51876e-06 17.2549)
(17.2174 9.90915 -0.236601 17.2174 -2.56564e-06 17.2174)
(17.2174 9.90915 -0.236601 17.2174 -2.57928e-06 17.2174)
(17.1646 9.83513 -0.238469 17.1646 -2.64585e-06 17.1646)
(17.1646 9.83513 -0.238469 17.1646 -2.64955e-06 17.1646)
(17.0967 9.73894 -0.239767 17.0967 -2.66608e-06 17.0967)
(17.0967 9.73894 -0.239767 17.0967 -2.68426e-06 17.0967)
(17.0141 9.62307 -0.24054 17.0141 -2.72296e-06 17.0141)
(17.0141 9.62307 -0.24054 17.0141 -2.72178e-06 17.0141)
(16.9174 9.48976 -0.240821 16.9174 -2.77976e-06 16.9174)
(16.9174 9.48976 -0.240821 16.9174 -2.77857e-06 16.9174)
(16.8071 9.34137 -0.240647 16.8071 -2.81256e-06 16.8071)
(16.8071 9.34137 -0.240647 16.8071 -2.81994e-06 16.8071)
(16.6839 9.18011 -0.240063 16.6839 -2.85124e-06 16.6839)
(16.6839 9.18011 -0.240063 16.6839 -2.86107e-06 16.6839)
(16.5483 9.00803 -0.239103 16.5483 -2.89669e-06 16.5483)
(16.5483 9.00803 -0.239103 16.5483 -2.89547e-06 16.5483)
(16.4012 8.82709 -0.237808 16.4012 -2.9076e-06 16.4012)
(16.4012 8.82709 -0.237808 16.4012 -2.92437e-06 16.4012)
(16.2433 8.63891 -0.236214 16.2433 -2.95881e-06 16.2433)
(16.2433 8.63891 -0.236214 16.2433 -2.95804e-06 16.2433)
(16.0752 8.44511 -0.23435 16.0752 -2.96088e-06 16.0752)
(16.0752 8.44511 -0.23435 16.0752 -2.97414e-06 16.0752)
(15.8978 8.2472 -0.232254 15.8978 -2.97553e-06 15.8978)
(15.8978 8.2472 -0.232254 15.8978 -2.98431e-06 15.8978)
(15.7117 8.04628 -0.229953 15.7117 -3.01535e-06 15.7117)
(15.7117 8.04628 -0.229953 15.7117 -3.01409e-06 15.7117)
(15.5177 7.84353 -0.227468 15.5177 -3.00275e-06 15.5177)
(15.5177 7.84353 -0.227468 15.5177 -3.01651e-06 15.5177)
(15.3165 7.64012 -0.224833 15.3165 -3.01202e-06 15.3165)
(15.3165 7.64012 -0.224833 15.3165 -3.01758e-06 15.3165)
(15.1087 7.43682 -0.22207 15.1087 -3.02191e-06 15.1087)
(15.1087 7.43682 -0.22207 15.1087 -3.02247e-06 15.1087)
(14.8951 7.23434 -0.219197 14.8951 -2.98752e-06 14.8951)
(14.8951 7.23434 -0.219197 14.8951 -3.01567e-06 14.8951)
(14.6763 7.0334 -0.216233 14.6763 -3.01494e-06 14.6763)
(14.6763 7.0334 -0.216233 14.6763 -3.03298e-06 14.6763)
(14.4528 6.83461 -0.213197 14.4528 -2.95999e-06 14.4528)
(14.4528 6.83461 -0.213197 14.4528 -3.00094e-06 14.4528)
(14.2253 6.63843 -0.210106 14.2253 -2.97867e-06 14.2253)
(14.2253 6.63843 -0.210106 14.2254 -3.00544e-06 14.2253)
(13.9944 6.44527 -0.206971 13.9944 -2.89644e-06 13.9944)
(13.9944 6.44527 -0.206971 13.9944 -2.94791e-06 13.9944)
(13.7605 6.25542 -0.203807 13.7605 -2.93478e-06 13.7605)
(13.7605 6.25542 -0.203807 13.7605 -2.97078e-06 13.7605)
(13.5242 6.0691 -0.20062 13.5242 -2.85104e-06 13.5242)
(13.5242 6.0691 -0.20062 13.5242 -2.90036e-06 13.5242)
(13.2858 5.88661 -0.197421 13.2858 -2.86955e-06 13.2858)
(13.2858 5.88661 -0.197421 13.2858 -2.8951e-06 13.2858)
(13.046 5.70812 -0.194222 13.046 -2.79397e-06 13.046)
(13.046 5.70812 -0.194222 13.046 -2.82798e-06 13.046)
(12.805 5.53368 -0.191027 12.805 -2.77805e-06 12.805)
(12.805 5.53368 -0.191027 12.805 -2.7853e-06 12.805)
(12.5632 5.36331 -0.18784 12.5632 -2.72656e-06 12.5632)
(12.5632 5.36331 -0.18784 12.5632 -2.74313e-06 12.5632)
(12.3211 5.19708 -0.184666 12.3211 -2.67866e-06 12.3211)
(12.3211 5.19708 -0.184666 12.3211 -2.67858e-06 12.3211)
(12.0788 5.03489 -0.181508 12.0788 -2.61176e-06 12.0788)
(12.0788 5.03489 -0.181508 12.0788 -2.63292e-06 12.0788)
(11.8369 4.87669 -0.178364 11.8369 -2.57499e-06 11.8369)
(11.8369 4.87669 -0.178364 11.8369 -2.59219e-06 11.8369)
(11.5954 4.72246 -0.175238 11.5954 -2.4566e-06 11.5954)
(11.5954 4.72246 -0.175238 11.5954 -2.49869e-06 11.5954)
(11.3548 4.57202 -0.17213 11.3548 -2.43777e-06 11.3548)
(11.3548 4.57202 -0.17213 11.3548 -2.47026e-06 11.3548)
(11.1151 4.42525 -0.169033 11.1151 -2.3293e-06 11.1151)
(11.1151 4.42525 -0.169033 11.1151 -2.3759e-06 11.1151)
(10.8767 4.28211 -0.165952 10.8767 -2.29074e-06 10.8767)
(10.8767 4.28211 -0.165952 10.8767 -2.33033e-06 10.8767)
(10.6398 4.14247 -0.162885 10.6398 -2.14151e-06 10.6398)
(10.6398 4.14247 -0.162885 10.6398 -2.20389e-06 10.6398)
(10.4046 4.00622 -0.159829 10.4046 -2.12455e-06 10.4046)
(10.4046 4.00622 -0.159829 10.4046 -2.18294e-06 10.4046)
(10.1712 3.87329 -0.156784 10.1712 -1.97042e-06 10.1712)
(10.1712 3.87329 -0.156784 10.1712 -2.04465e-06 10.1712)
(9.93975 3.74365 -0.153751 9.93975 -1.94749e-06 9.93975)
(9.93975 3.74365 -0.153751 9.93975 -2.02098e-06 9.93975)
(9.71049 3.61726 -0.150732 9.71049 -1.75834e-06 9.71049)
(9.71049 3.61726 -0.150732 9.71049 -1.85315e-06 9.71049)
(9.48352 3.49404 -0.147728 9.48352 -1.74774e-06 9.48352)
(9.48352 3.49404 -0.147728 9.48352 -1.84734e-06 9.48352)
(9.25897 3.37392 -0.144737 9.25897 -1.52384e-06 9.25897)
(9.25897 3.37392 -0.144737 9.25897 -1.64694e-06 9.25897)
(9.03696 3.25679 -0.141759 9.03696 -1.5413e-06 9.03696)
(9.03696 3.25679 -0.141759 9.03696 -1.67594e-06 9.03696)
(8.81759 3.14257 -0.138794 8.81759 -1.28526e-06 8.81759)
(8.81759 3.14257 -0.138794 8.81759 -1.4424e-06 8.81759)
(8.60096 3.03114 -0.135837 8.60096 -1.32911e-06 8.60096)
(8.60096 3.03114 -0.135837 8.60096 -1.50572e-06 8.60096)
(8.38716 2.92241 -0.13289 8.38716 -1.01814e-06 8.38716)
(8.38716 2.92241 -0.13289 8.38716 -1.221e-06 8.38716)
(8.17628 2.81626 -0.129948 8.17628 -1.09524e-06 8.17628)
(8.17628 2.81626 -0.129948 8.17628 -1.32526e-06 8.17628)
(7.96838 2.71258 -0.127009 7.96838 -7.47897e-07 7.96838)
(7.96838 2.71258 -0.127009 7.96838 -9.97844e-07 7.96838)
(7.76354 2.6113 -0.124071 7.76354 -8.66428e-07 7.76354)
(7.76354 2.6113 -0.124071 7.76355 -1.1748e-06 7.76354)
(7.56183 2.51231 -0.121133 7.56183 -5.56337e-07 7.56183)
(7.56183 2.51231 -0.121133 7.56183 -7.62047e-07 7.56183)
(7.3633 2.41558 -0.118192 7.3633 -6.34174e-07 7.3633)
(7.36329 2.41558 -0.118192 7.3633 -1.05455e-06 7.36329)
(7.168 2.32103 -0.11525 7.16799 -3.95505e-07 7.168)
(7.168 2.32103 -0.11525 7.168 -5.29997e-07 7.168)
(6.97599 2.22865 -0.112304 6.97599 -2.76551e-07 6.97599)
(6.97599 2.22865 -0.112304 6.97599 -9.45878e-07 6.97599)
(6.78732 2.13839 -0.109356 6.78731 -2.57624e-07 6.78732)
(6.78731 2.13839 -0.109356 6.78731 -2.82162e-07 6.78731)
(6.60202 2.05022 -0.106407 6.60202 -1.72841e-23 6.60202)
(6.60202 2.05022 -0.106407 6.60203 -8.36317e-07 6.60202)
(6.42015 1.96414 -0.103457 6.42015 -3.99119e-08 6.42015)
(6.42015 1.96414 -0.103457 6.42015 1.0522e-07 6.42015)
(6.24174 1.88013 -0.100508 6.24174 5.41416e-24 6.24174)
(6.24174 1.88013 -0.100508 6.24174 -8.49637e-07 6.24174)
(6.06683 1.79824 -0.0975624 6.06683 2.1732e-07 6.06683)
(6.06683 1.79824 -0.0975624 6.06682 6.06838e-07 6.06683)
(5.89544 1.71854 -0.0946259 5.89544 -2.75117e-22 5.89544)
(5.89544 1.71854 -0.0946259 5.89545 -1.09921e-06 5.89544)
(5.72762 1.64114 -0.0917061 5.72762 4.84505e-07 5.72762)
(5.72763 1.64114 -0.0917061 5.72762 1.23091e-06 5.72763)
(5.56339 1.56623 -0.0888137 5.56339 7.54239e-08 5.56339)
(5.56338 1.56623 -0.0888137 5.5634 -1.1358e-06 5.56338)
(5.40276 1.49403 -0.085964 5.40276 7.41945e-07 5.40276)
(5.40277 1.49403 -0.085964 5.40276 2.00554e-06 5.40277)
(5.24576 1.4248 -0.0831746 5.24576 2.58914e-07 5.24576)
(5.24576 1.4248 -0.0831746 5.24577 -1.2869e-06 5.24576)
(5.0924 1.35883 -0.0804671 5.0924 1.00252e-06 5.0924)
(5.09241 1.35883 -0.0804671 5.09239 3.01187e-06 5.09241)
(4.94268 1.29636 -0.0778623 4.94268 2.77805e-07 4.94268)
(4.94267 1.29636 -0.0778623 4.94269 -1.71914e-06 4.94267)
(4.79659 1.23758 -0.0753801 4.79659 1.27086e-06 4.79659)
(4.79659 1.23758 -0.0753801 4.79657 4.35222e-06 4.79659)
(4.65411 1.1826 -0.0730377 4.65411 1.62837e-07 4.65411)
(4.6541 1.1826 -0.0730377 4.65412 -2.38442e-06 4.6541)
(4.51522 1.13142 -0.0708461 4.51522 1.51242e-06 4.51522)
(4.51523 1.13142 -0.0708461 4.5152 6.10193e-06 4.51523)
(4.37988 1.0839 -0.0688102 4.37988 -1.9335e-35 4.37988)
(4.37987 1.0839 -0.0688102 4.3799 -3.42722e-06 4.37987)
(4.24805 1.03978 -0.0669228 4.24805 1.78057e-06 4.24805)
(4.24806 1.03978 -0.0669228 4.24803 7.88993e-06 4.24806)
(4.11967 0.998726 -0.0651773 4.11967 -1.13083e-21 4.11967)
(4.11966 0.998726 -0.0651773 4.11969 -5.00949e-06 4.11966)
(3.99468 0.960188 -0.0635499 3.99468 1.99398e-06 3.99468)
(3.99469 0.960188 -0.0635499 3.99465 1.01287e-05 3.99469)
(3.87301 0.923552 -0.0620077 3.87301 -1.07077e-21 3.87301)
(3.873 0.923552 -0.0620077 3.87304 -6.92433e-06 3.873)
(3.7546 0.888235 -0.0605132 3.7546 2.2057e-06 3.7546)
(3.75461 0.888235 -0.0605132 3.75457 1.30273e-05 3.75461)
(3.63937 0.853716 -0.0590338 3.63937 -2.41166e-22 3.63937)
(3.63935 0.853716 -0.0590338 3.6394 -9.4525e-06 3.63935)
(3.52726 0.819567 -0.0575358 3.52726 2.36696e-06 3.52726)
(3.52728 0.819567 -0.0575358 3.52723 1.67574e-05 3.52728)
(3.41821 0.785597 -0.055996 3.41821 -0 3.41821)
(3.41819 0.785597 -0.055996 3.41825 -1.31336e-05 3.41819)
(3.31216 0.7518 -0.0544105 3.31216 2.43865e-06 3.31216)
(3.31218 0.751801 -0.0544105 3.31212 2.15391e-05 3.31218)
(3.20906 0.718268 -0.0527807 3.20906 -0 3.20906)
(3.20904 0.718268 -0.0527807 3.2091 -1.8134e-05 3.20904)
(3.10886 0.685182 -0.051117 3.10886 2.43348e-06 3.10886)
(3.10888 0.685183 -0.051117 3.10881 2.77975e-05 3.10888)
(3.01151 0.652837 -0.0494349 3.01151 3.36352e-22 3.01151)
(3.01149 0.652837 -0.0494349 3.01156 -2.48677e-05 3.01149)
(2.91698 0.621439 -0.0477626 2.91698 2.29655e-06 2.91698)
(2.91701 0.621439 -0.0477626 2.91693 3.59826e-05 2.91701)
(2.82522 0.591163 -0.0461052 2.82522 -7.47089e-23 2.82522)
(2.82519 0.591163 -0.0461052 2.82527 -3.38632e-05 2.82519)
(2.73619 0.562341 -0.0444879 2.73619 2.0151e-06 2.73619)
(2.73622 0.562341 -0.0444879 2.73614 4.67924e-05 2.73622)
(2.64986 0.535198 -0.042942 2.64986 2.11271e-36 2.64986)
(2.64983 0.535198 -0.042942 2.64991 -4.5956e-05 2.64983)
(2.56617 0.509907 -0.0414788 2.56617 2.18983e-06 2.56617)
(2.5662 0.509907 -0.0414788 2.56611 6.11641e-05 2.5662)
(2.48509 0.486584 -0.0401237 2.48509 -8.27876e-21 2.48509)
(2.48506 0.486584 -0.0401237 2.48514 -6.15112e-05 2.48506)
(2.40656 0.465072 -0.0388804 2.40656 5.86701e-06 2.40656)
(2.40659 0.465072 -0.0388805 2.40651 7.89395e-05 2.40659)
(2.33055 0.445173 -0.0377308 2.33055 5.36486e-22 2.33055)
(2.33052 0.445173 -0.0377308 2.33059 -8.24097e-05 2.33052)
(2.25698 0.426679 -0.0366711 2.25698 6.21125e-06 2.25699)
(2.257 0.426679 -0.0366711 2.25695 8.82779e-05 2.257)
(2.18583 0.409319 -0.0356791 2.18583 2.17647e-06 2.18583)
(2.18581 0.40932 -0.0356792 2.18586 -9.45116e-05 2.18581)
(2.11703 0.392763 -0.0347392 2.11703 6.26716e-06 2.11703)
(2.11704 0.392763 -0.0347392 2.11701 9.50068e-05 2.11704)
(2.05053 0.376424 -0.0338158 2.05053 -5.2526e-06 2.05053)
(2.05053 0.376424 -0.0338158 2.05054 -9.89348e-05 2.05053)
(1.98629 0.360011 -0.0328452 1.98629 -2.43454e-06 1.98629)
(1.98629 0.360011 -0.0328452 1.98629 9.76911e-05 1.98629)
(1.92426 0.34364 -0.031839 1.92426 -7.05691e-06 1.92426)
(1.92427 0.34364 -0.031839 1.92425 -9.5723e-05 1.92427)
(1.86441 0.327359 -0.0308046 1.86441 1.49494e-20 1.86441)
(1.8644 0.327359 -0.0308046 1.86444 9.18497e-05 1.8644)
(1.80671 0.311422 -0.0297422 1.80671 -7.17829e-06 1.80671)
(1.80672 0.311422 -0.0297422 1.80668 -9.25981e-05 1.80672)
(1.75111 0.295983 -0.0286985 1.75111 -1.01174e-21 1.75111)
(1.75109 0.295983 -0.0286985 1.75114 7.59232e-05 1.75109)
(1.69758 0.280995 -0.0276568 1.69758 -4.73762e-06 1.69758)
(1.69761 0.280995 -0.0276568 1.69754 -7.89497e-05 1.6976)
(1.64611 0.266735 -0.0266271 1.64611 -1.00913e-21 1.64611)
(1.64609 0.266735 -0.0266271 1.64616 6.11499e-05 1.64609)
(1.59667 0.253414 -0.0256567 1.59667 -3.81676e-06 1.59667)
(1.59669 0.253414 -0.0256567 1.59662 -6.53775e-05 1.59669)
(1.54922 0.241238 -0.0247438 1.54922 1.26924e-21 1.54922)
(1.54919 0.241238 -0.0247438 1.54927 4.85988e-05 1.5492)
(1.50375 0.230854 -0.0239392 1.50375 -4.29719e-06 1.50375)
(1.50377 0.230854 -0.0239392 1.5037 -5.4351e-05 1.50377)
(1.46022 0.222702 -0.023333 1.46022 -2.01308e-21 1.46022)
(1.46019 0.222702 -0.023333 1.46027 3.84038e-05 1.46019)
(1.41861 0.216939 -0.022941 1.41861 -4.75306e-06 1.41861)
(1.41863 0.216939 -0.022941 1.41856 -4.55044e-05 1.41863)
(1.37887 0.213832 -0.0227998 1.37887 -4.17526e-21 1.37887)
(1.37885 0.213832 -0.0227998 1.37892 3.00986e-05 1.37885)
(1.34098 0.213409 -0.0229511 1.34098 -5.15573e-06 1.34098)
(1.341 0.213409 -0.0229511 1.34094 -3.83635e-05 1.341)
(1.30489 0.215419 -0.0233834 1.30489 -0 1.30489)
(1.30486 0.21542 -0.0233834 1.30493 2.3287e-05 1.30486)
(1.27054 0.219454 -0.0240782 1.27054 -5.49312e-06 1.27054)
(1.27055 0.219455 -0.0240782 1.2705 -3.25958e-05 1.27055)
(1.23788 0.224842 -0.0249861 1.23788 -0 1.23788)
(1.23786 0.224842 -0.0249862 1.23791 1.43577e-05 1.23786)
(1.20685 0.230629 -0.0260242 1.20685 -5.75808e-06 1.20685)
(1.20686 0.23063 -0.0260243 1.20681 -2.79128e-05 1.20686)
(1.17738 0.236078 -0.0270699 1.17738 6.02739e-23 1.17738)
(1.17737 0.236078 -0.02707 1.17742 5.96116e-06 1.17737)
(1.14943 0.240946 -0.028079 1.14943 -5.97977e-06 1.14943)
(1.14944 0.240947 -0.0280791 1.1494 -2.40963e-05 1.14944)
(1.12292 0.245392 -0.0290362 1.12292 -2.76629e-06 1.12292)
(1.12291 0.245393 -0.0290363 1.12295 -1.79925e-07 1.12291)
(1.09781 0.249914 -0.0299901 1.09781 -6.17926e-06 1.09781)
(1.09782 0.249914 -0.0299901 1.09778 -2.10124e-05 1.09782)
(1.07403 0.254949 -0.0310103 1.07403 -5.09234e-06 1.07403)
(1.07402 0.254949 -0.0310104 1.07405 -4.81876e-06 1.07402)
(1.05152 0.260786 -0.0321369 1.05152 -6.33422e-06 1.05152)
(1.05153 0.260786 -0.032137 1.0515 -1.85136e-05 1.05153)
(1.03021 0.267581 -0.0334088 1.03026 -5.07787e-06 1.03021)
(1.03023 0.267582 -0.0334089 1.03023 -6.67341e-06 1.03023)
(1.01007 0.275306 -0.0348366 1.01007 -6.47652e-06 1.01007)
(1.01008 0.275307 -0.0348366 1.01005 -1.6485e-05 1.01008)
(0.990965 0.283817 -0.0364132 0.991002 -2.43704e-06 0.990965)
(0.990977 0.283818 -0.0364133 0.990977 -6.8445e-06 0.990977)
(0.972866 0.293072 -0.03812 0.972866 -6.77127e-06 0.972866)
(0.972872 0.293073 -0.0381201 0.972853 -1.50294e-05 0.972872)
(0.955636 0.302889 -0.039975 0.955663 -4.35205e-07 0.955636)
(0.955645 0.30289 -0.0399751 0.955645 -7.16929e-06 0.955645)
(0.939219 0.312638 -0.04192 0.939219 -7.18829e-06 0.939219)
(0.939224 0.312639 -0.0419201 0.939209 -1.40453e-05 0.939224)
(0.923481 0.32142 -0.0438481 0.923502 -1.41028e-06 0.923481)
(0.923488 0.321421 -0.0438483 0.923488 -7.57707e-06 0.923488)
(0.908354 0.328194 -0.0456165 0.908354 -7.71283e-06 0.908354)
(0.908358 0.328194 -0.0456167 0.908346 -1.3412e-05 0.908358)
(0.893724 0.332202 -0.0470635 0.893739 -3.00332e-06 0.893724)
(0.893728 0.332203 -0.0470636 0.893728 -8.14747e-06 0.893728)
(0.879542 0.33325 -0.0481124 0.879542 -8.34278e-06 0.879542)
(0.879545 0.333251 -0.0481125 0.879535 -1.30899e-05 0.879545)
(0.865739 0.331795 -0.0487509 0.86575 -4.43593e-06 0.865739)
(0.865742 0.331795 -0.0487511 0.865742 -8.68536e-06 0.865742)
(0.852298 0.328866 -0.0490909 0.852298 -8.73864e-06 0.852298)
(0.8523 0.328867 -0.0490911 0.852293 -1.26918e-05 0.8523)
(0.839184 0.325758 -0.0492983 0.839192 -5.41069e-06 0.839184)
(0.839186 0.325759 -0.0492984 0.839186 -8.9143e-06 0.839186)
(0.82639 0.323928 -0.0495809 0.82639 -8.8365e-06 0.82639)
(0.826391 0.323929 -0.0495811 0.826387 -1.21314e-05 0.826391)
(0.813878 0.324103 -0.0501771 0.813883 -6.07288e-06 0.813878)
(0.81388 0.324104 -0.0501773 0.81388 -9.05194e-06 0.81388)
(0.801614 0.325825 -0.0510893 0.801614 -9.14788e-06 0.801614)
(0.801614 0.325826 -0.0510895 0.801613 -1.19527e-05 0.801614)
(0.789537 0.327899 -0.0521956 0.789538 -6.90604e-06 0.789537)
(0.789537 0.327901 -0.0521959 0.789537 -9.51117e-06 0.789537)
(0.777591 0.328934 -0.0532542 0.777591 -9.82228e-06 0.777591)
(0.777591 0.328935 -0.0532544 0.777591 -1.22662e-05 0.777591)
(0.765723 0.328276 -0.0540582 0.765723 -7.95589e-06 0.765723)
(0.765723 0.328278 -0.0540584 0.765723 -1.02273e-05 0.765723)
(0.753893 0.325943 -0.0545872 0.753893 -1.05841e-05 0.753893)
(0.753893 0.325945 -0.0545874 0.753893 -1.27082e-05 0.753893)
(0.742076 0.322117 -0.054844 0.742075 -9.02583e-06 0.742076)
(0.742075 0.322118 -0.0548442 0.742075 -1.09758e-05 0.742075)
(0.730254 0.316777 -0.0548643 0.730254 -1.12621e-05 0.730254)
(0.730253 0.316778 -0.0548645 0.730255 -1.3106e-05 0.730253)
(0.718427 0.309571 -0.0545825 0.718425 -9.94739e-06 0.718427)
(0.718426 0.309572 -0.0545827 0.718426 -1.1656e-05 0.718426)
(0.706604 0.300168 -0.0539179 0.706604 -1.20482e-05 0.706604)
(0.706603 0.300169 -0.0539181 0.706606 -1.36418e-05 0.706603)
(0.69482 0.288683 -0.0528052 0.694817 -1.10323e-05 0.69482)
(0.694819 0.288684 -0.0528054 0.694819 -1.25132e-05 0.694819)
(0.683118 0.276219 -0.0513179 0.683118 -1.27497e-05 0.683118)
(0.683116 0.27622 -0.051318 0.68312 -1.42174e-05 0.683116)
(0.671557 0.264545 -0.0497541 0.671552 -1.16354e-05 0.671557)
(0.671555 0.264546 -0.0497543 0.671555 -1.29874e-05 0.671555)
(0.660181 0.255414 -0.0484546 0.660181 -1.30369e-05 0.660181)
(0.660179 0.255416 -0.0484549 0.660185 -1.44552e-05 0.660179)
(0.649027 0.250197 -0.0477491 0.649021 -1.18334e-05 0.649027)
(0.649025 0.250199 -0.0477495 0.649025 -1.3183e-05 0.649025)
(0.638091 0.249387 -0.0478684 0.638091 -1.33887e-05 0.638091)
(0.638088 0.24939 -0.0478688 0.638095 -1.47703e-05 0.638088)
(0.627351 0.252512 -0.0488336 0.627343 -1.23798e-05 0.627351)
(0.627348 0.252516 -0.0488342 0.627348 -1.37619e-05 0.627348)
(0.616739 0.258912 -0.0505079 0.616739 -1.40407e-05 0.616739)
(0.616736 0.258917 -0.0505087 0.616744 -1.55124e-05 0.616736)
(0.606177 0.267911 -0.0528318 0.606168 -1.29467e-05 0.606177)
(0.606174 0.267916 -0.0528328 0.606174 -1.44729e-05 0.606174)
(0.595538 0.277602 -0.055646 0.595538 -1.49629e-05 0.595538)
(0.595535 0.277608 -0.0556472 0.595544 -1.65757e-05 0.595535)
(0.584704 0.284567 -0.0583687 0.584694 -1.39168e-05 0.584704)
(0.5847 0.284573 -0.0583699 0.5847 -1.56526e-05 0.5847)
(0.573545 0.285286 -0.0601704 0.573545 -1.63485e-05 0.573545)
(0.573541 0.285291 -0.0601716 0.573551 -1.81993e-05 0.573541)
(0.562009 0.277873 -0.0603503 0.561998 -1.50979e-05 0.562009)