/*--------------------------------*- C++ -*----------------------------------*\
| =========                 |                                                 |
| \\      /  F ield         | OpenFOAM: The Open Source CFD Toolbox           |
|  \\    /   O peration     | Version:  2012                                  |
|   \\  /    A nd           | Website:  www.openfoam.com                      |
|    \\/     M anipulation  |                                                 |
\*---------------------------------------------------------------------------*/
FoamFile
{
    version     2.0;
    format      ascii;
    class       volScalarField;
    location    "1000";
    object      k;
}
// * * * * * * * * * * * * * * * * * * * * * * * * * * * * * * * * * * * * * //

dimensions      [0 2 -2 0 0 0 0];


internalField   nonuniform List<scalar> 
5120
(
1.42705e-06
1.42705e-06
2.10591e-07
2.10591e-07
6.34956e-08
6.34956e-08
2.7847e-08
2.7847e-08
1.57071e-08
1.57071e-08
1.12391e-08
1.12391e-08
1.03384e-08
1.03384e-08
1.17463e-08
1.17463e-08
1.51052e-08
1.51052e-08
2.04047e-08
2.04047e-08
2.77922e-08
2.77922e-08
3.74986e-08
3.74986e-08
4.98048e-08
4.98048e-08
6.50259e-08
6.50259e-08
8.35024e-08
8.35024e-08
1.05596e-07
1.05596e-07
1.31684e-07
1.31684e-07
1.62161e-07
1.62161e-07
1.97431e-07
1.97431e-07
2.37914e-07
2.37914e-07
2.84033e-07
2.84033e-07
3.36222e-07
3.36222e-07
3.94921e-07
3.94921e-07
4.6057e-07
4.6057e-07
5.33614e-07
5.33614e-07
6.14494e-07
6.14494e-07
7.03649e-07
7.03649e-07
8.01511e-07
8.01511e-07
9.08507e-07
9.08507e-07
1.02505e-06
1.02505e-06
1.15154e-06
1.15154e-06
1.28836e-06
1.28836e-06
1.43588e-06
1.43588e-06
1.59444e-06
1.59444e-06
1.76436e-06
1.76436e-06
1.94595e-06
1.94595e-06
2.13946e-06
2.13946e-06
2.34514e-06
2.34514e-06
2.56319e-06
2.56319e-06
2.79378e-06
2.79378e-06
3.03706e-06
3.03706e-06
3.29313e-06
3.29313e-06
3.56205e-06
3.56205e-06
3.84387e-06
3.84387e-06
4.13857e-06
4.13857e-06
4.44612e-06
4.44612e-06
4.76643e-06
4.76643e-06
5.09941e-06
5.09941e-06
5.4449e-06
5.4449e-06
5.80274e-06
5.80274e-06
6.1727e-06
6.1727e-06
6.55457e-06
6.55457e-06
6.94808e-06
6.94808e-06
7.35294e-06
7.35294e-06
7.76884e-06
7.76884e-06
8.19545e-06
8.19545e-06
8.63244e-06
8.63244e-06
9.07943e-06
9.07943e-06
9.53606e-06
9.53606e-06
1.00019e-05
1.00019e-05
1.04767e-05
1.04767e-05
1.09599e-05
1.09599e-05
1.14512e-05
1.14512e-05
1.19502e-05
1.19502e-05
1.24564e-05
1.24564e-05
1.29696e-05
1.29696e-05
1.34892e-05
1.34892e-05
1.4015e-05
1.4015e-05
1.45466e-05
1.45466e-05
1.50835e-05
1.50835e-05
1.56256e-05
1.56256e-05
1.61723e-05
1.61723e-05
1.67235e-05
1.67235e-05
1.72789e-05
1.72789e-05
1.7838e-05
1.7838e-05
1.84008e-05
1.84008e-05
1.89668e-05
1.89668e-05
1.9536e-05
1.9536e-05
2.01079e-05
2.01079e-05
2.06826e-05
2.06826e-05
2.12597e-05
2.12597e-05
2.18391e-05
2.18391e-05
2.24206e-05
2.24206e-05
2.3004e-05
2.3004e-05
2.35894e-05
2.35894e-05
2.41764e-05
2.41764e-05
2.4765e-05
2.4765e-05
2.53551e-05
2.53551e-05
2.59466e-05
2.59466e-05
2.65394e-05
2.65394e-05
2.71334e-05
2.71334e-05
2.77286e-05
2.77286e-05
2.83249e-05
2.83249e-05
2.89221e-05
2.89221e-05
2.95203e-05
2.95203e-05
3.01193e-05
3.01193e-05
3.07191e-05
3.07191e-05
3.13197e-05
3.13197e-05
3.19209e-05
3.19209e-05
3.25226e-05
3.25226e-05
3.31249e-05
3.31249e-05
3.37275e-05
3.37275e-05
3.43304e-05
3.43304e-05
3.49336e-05
3.49336e-05
3.55368e-05
3.55368e-05
3.61401e-05
3.61401e-05
3.67432e-05
3.67432e-05
3.7346e-05
3.7346e-05
3.79484e-05
3.79484e-05
3.85503e-05
3.85503e-05
3.91514e-05
3.91514e-05
3.97516e-05
3.97516e-05
4.03508e-05
4.03508e-05
4.09486e-05
4.09486e-05
4.15451e-05
4.15451e-05
4.21398e-05
4.21398e-05
4.27327e-05
4.27327e-05
4.33235e-05
4.33235e-05
4.39119e-05
4.39119e-05
4.44977e-05
4.44977e-05
4.50807e-05
4.50807e-05
4.56606e-05
4.56606e-05
4.62372e-05
4.62372e-05
4.68102e-05
4.68102e-05
4.73792e-05
4.73792e-05
4.79441e-05
4.79441e-05
4.85046e-05
4.85046e-05
4.90603e-05
4.90603e-05
4.96111e-05
4.96111e-05
5.01565e-05
5.01565e-05
5.06964e-05
5.06964e-05
5.12305e-05
5.12305e-05
5.17584e-05
5.17584e-05
5.22799e-05
5.22799e-05
5.27948e-05
5.27948e-05
5.33026e-05
5.33026e-05
5.38033e-05
5.38033e-05
5.42965e-05
5.42965e-05
5.4782e-05
5.4782e-05
5.52595e-05
5.52595e-05
5.57287e-05
5.57287e-05
5.61896e-05
5.61896e-05
5.66417e-05
5.66417e-05
5.7085e-05
5.7085e-05
5.75192e-05
5.75192e-05
5.79441e-05
5.79441e-05
5.83596e-05
5.83596e-05
5.87654e-05
5.87654e-05
5.91615e-05
5.91615e-05
5.95476e-05
5.95476e-05
5.99236e-05
5.99236e-05
6.02895e-05
6.02895e-05
6.0645e-05
6.0645e-05
6.09901e-05
6.09901e-05
6.13247e-05
6.13247e-05
6.16487e-05
6.16487e-05
6.19621e-05
6.19621e-05
6.22647e-05
6.22647e-05
6.25567e-05
6.25567e-05
6.28378e-05
6.28378e-05
6.31082e-05
6.31082e-05
6.33677e-05
6.33677e-05
6.36164e-05
6.36164e-05
6.38544e-05
6.38544e-05
6.40816e-05
6.40816e-05
6.4298e-05
6.4298e-05
6.45037e-05
6.45037e-05
6.46988e-05
6.46988e-05
6.48833e-05
6.48833e-05
6.50574e-05
6.50574e-05
6.5221e-05
6.5221e-05
6.53743e-05
6.53743e-05
6.55174e-05
6.55174e-05
6.56505e-05
6.56505e-05
6.57737e-05
6.57737e-05
6.58873e-05
6.58873e-05
6.59914e-05
6.59914e-05
6.60864e-05
6.60864e-05
6.61725e-05
6.61725e-05
6.62501e-05
6.62501e-05
6.63196e-05
6.63196e-05
6.63815e-05
6.63815e-05
6.64362e-05
6.64362e-05
6.64844e-05
6.64844e-05
6.65265e-05
6.65265e-05
6.65631e-05
6.65631e-05
6.65948e-05
6.65948e-05
6.66222e-05
6.66222e-05
6.66457e-05
6.66457e-05
6.66658e-05
6.66658e-05
6.66831e-05
6.66831e-05
6.66979e-05
6.66979e-05
6.67106e-05
6.67106e-05
6.67214e-05
6.67214e-05
6.67307e-05
6.67307e-05
6.67387e-05
6.67387e-05
6.67456e-05
6.67456e-05
6.67515e-05
6.67515e-05
6.67566e-05
6.67566e-05
6.6761e-05
6.6761e-05
6.67649e-05
6.67649e-05
6.67682e-05
6.67682e-05
6.67712e-05
6.67712e-05
6.67737e-05
6.67737e-05
6.67759e-05
6.67759e-05
6.67779e-05
6.67779e-05
6.67796e-05
6.67796e-05
6.67811e-05
6.67811e-05
6.67825e-05
6.67825e-05
6.67837e-05
6.67837e-05
6.67847e-05
6.67847e-05
6.67856e-05
6.67856e-05
6.67865e-05
6.67865e-05
6.67872e-05
6.67872e-05
6.67878e-05
6.67878e-05
6.67884e-05
6.67884e-05
6.67889e-05
6.67889e-05
6.67894e-05
6.67894e-05
6.67898e-05
6.67898e-05
6.67901e-05
6.67901e-05
6.67904e-05
6.67904e-05
6.67907e-05
6.67907e-05
6.67909e-05
6.67909e-05
6.67911e-05
6.67911e-05
6.67913e-05
6.67913e-05
6.67915e-05
6.67915e-05
6.67916e-05
6.67916e-05
6.67917e-05
6.67917e-05
6.67918e-05
6.67918e-05
6.67919e-05
6.67919e-05
6.6792e-05
6.6792e-05
6.6792e-05
6.6792e-05
6.6792e-05
6.6792e-05
6.67921e-05
6.67921e-05
6.67921e-05
6.67921e-05
6.67921e-05
6.67921e-05
6.67921e-05
6.67921e-05
6.67921e-05
6.67921e-05
6.6792e-05
6.6792e-05
6.6792e-05
6.6792e-05
6.6792e-05
6.6792e-05
6.67919e-05
6.67919e-05
6.67919e-05
6.67919e-05
6.67918e-05
6.67918e-05
6.67917e-05
6.67917e-05
6.67917e-05
6.67917e-05
6.67916e-05
6.67916e-05
6.67915e-05
6.67915e-05
6.67914e-05
6.67914e-05
6.67914e-05
6.67914e-05
6.67913e-05
6.67913e-05
6.67912e-05
6.67912e-05
6.67911e-05
6.67911e-05
6.6791e-05
6.6791e-05
6.67909e-05
6.67909e-05
6.67908e-05
6.67908e-05
6.67907e-05
6.67907e-05
6.67906e-05
6.67906e-05
6.67905e-05
6.67905e-05
6.67903e-05
6.67903e-05
6.67902e-05
6.67902e-05
6.67901e-05
6.67901e-05
6.679e-05
6.679e-05
6.67899e-05
6.67899e-05
6.67897e-05
6.67897e-05
6.67896e-05
6.67896e-05
6.67895e-05
6.67895e-05
6.67894e-05
6.67894e-05
6.67892e-05
6.67892e-05
6.67891e-05
6.67891e-05
6.6789e-05
6.6789e-05
6.67888e-05
6.67888e-05
6.67887e-05
6.67887e-05
6.67885e-05
6.67885e-05
6.67884e-05
6.67884e-05
6.67883e-05
6.67883e-05
6.67881e-05
6.67881e-05
6.6788e-05
6.6788e-05
6.67878e-05
6.67878e-05
6.67877e-05
6.67877e-05
6.67875e-05
6.67875e-05
6.67873e-05
6.67873e-05
6.67872e-05
6.67872e-05
6.6787e-05
6.6787e-05
6.67869e-05
6.67869e-05
6.67867e-05
6.67867e-05
6.67865e-05
6.67865e-05
6.67864e-05
6.67864e-05
6.67862e-05
6.67862e-05
6.6786e-05
6.6786e-05
6.67859e-05
6.67859e-05
6.67857e-05
6.67857e-05
6.67855e-05
6.67855e-05
6.67853e-05
6.67853e-05
6.67852e-05
6.67852e-05
6.6785e-05
6.6785e-05
6.67848e-05
6.67848e-05
6.67846e-05
6.67846e-05
6.67844e-05
6.67844e-05
6.67843e-05
6.67843e-05
6.67841e-05
6.67841e-05
6.67839e-05
6.67839e-05
6.67837e-05
6.67837e-05
6.67835e-05
6.67835e-05
6.67833e-05
6.67833e-05
6.67831e-05
6.67831e-05
6.67829e-05
6.67829e-05
6.67827e-05
6.67827e-05
6.67825e-05
6.67825e-05
6.67823e-05
6.67823e-05
6.67821e-05
6.67821e-05
6.67819e-05
6.67819e-05
6.67817e-05
6.67817e-05
6.67815e-05
6.67815e-05
6.67813e-05
6.67813e-05
6.67811e-05
6.67811e-05
6.67809e-05
6.67809e-05
6.67807e-05
6.67807e-05
6.67805e-05
6.67805e-05
6.67803e-05
6.67803e-05
6.67801e-05
6.67801e-05
6.67799e-05
6.67799e-05
6.67796e-05
6.67796e-05
6.67794e-05
6.67794e-05
6.67792e-05
6.67792e-05
6.6779e-05
6.6779e-05
6.67788e-05
6.67788e-05
6.67786e-05
6.67786e-05
6.67783e-05
6.67783e-05
6.67781e-05
6.67781e-05
6.67779e-05
6.67779e-05
6.67777e-05
6.67777e-05
6.67775e-05
6.67775e-05
6.67772e-05
6.67772e-05
6.6777e-05
6.6777e-05
6.67768e-05
6.67768e-05
6.67766e-05
6.67766e-05
6.67764e-05
6.67764e-05
6.67761e-05
6.67761e-05
6.67759e-05
6.67759e-05
6.67757e-05
6.67757e-05
6.67755e-05
6.67755e-05
6.67753e-05
6.67753e-05
6.67751e-05
6.67751e-05
6.67748e-05
6.67748e-05
6.67746e-05
6.67746e-05
6.67744e-05
6.67744e-05
6.67742e-05
6.67742e-05
6.6774e-05
6.6774e-05
6.67738e-05
6.67738e-05
6.67736e-05
6.67736e-05
6.67734e-05
6.67734e-05
6.67732e-05
6.67732e-05
6.6773e-05
6.6773e-05
6.67728e-05
6.67728e-05
6.67726e-05
6.67726e-05
6.67724e-05
6.67724e-05
6.67722e-05
6.67722e-05
6.6772e-05
6.6772e-05
6.67718e-05
6.67718e-05
6.67716e-05
6.67716e-05
6.67715e-05
6.67715e-05
6.67713e-05
6.67713e-05
6.67711e-05
6.67711e-05
6.6771e-05
6.6771e-05
6.67708e-05
6.67708e-05
6.67707e-05
6.67707e-05
6.67705e-05
6.67705e-05
6.67704e-05
6.67704e-05
6.67702e-05
6.67702e-05
6.67701e-05
6.67701e-05
6.677e-05
6.677e-05
6.67699e-05
6.67699e-05
6.67698e-05
6.67698e-05
6.67697e-05
6.67697e-05
6.67696e-05
6.67696e-05
6.67695e-05
6.67695e-05
6.67694e-05
6.67694e-05
6.67694e-05
6.67694e-05
6.67693e-05
6.67693e-05
6.67693e-05
6.67693e-05
6.67692e-05
6.67692e-05
6.67692e-05
6.67692e-05
6.67692e-05
6.67692e-05
6.67692e-05
6.67692e-05
6.67692e-05
6.67692e-05
6.67693e-05
6.67693e-05
6.67693e-05
6.67693e-05
6.67694e-05
6.67694e-05
6.67694e-05
6.67694e-05
6.67695e-05
6.67695e-05
6.67696e-05
6.67696e-05
6.67697e-05
6.67697e-05
6.67699e-05
6.67699e-05
6.677e-05
6.677e-05
6.67702e-05
6.67702e-05
6.67704e-05
6.67704e-05
6.67706e-05
6.67706e-05
6.67709e-05
6.67709e-05
6.67711e-05
6.67711e-05
6.67714e-05
6.67714e-05
6.67717e-05
6.67717e-05
6.6772e-05
6.6772e-05
6.67724e-05
6.67724e-05
6.67728e-05
6.67728e-05
6.67732e-05
6.67732e-05
6.67736e-05
6.67736e-05
6.67741e-05
6.67741e-05
6.67746e-05
6.67746e-05
6.67751e-05
6.67751e-05
6.67757e-05
6.67757e-05
6.67763e-05
6.67763e-05
6.67769e-05
6.67769e-05
6.67775e-05
6.67775e-05
6.67782e-05
6.67782e-05
6.6779e-05
6.6779e-05
6.67798e-05
6.67798e-05
6.67806e-05
6.67806e-05
6.67815e-05
6.67815e-05
6.67824e-05
6.67824e-05
6.67833e-05
6.67833e-05
6.67843e-05
6.67843e-05
6.67854e-05
6.67854e-05
6.67865e-05
6.67865e-05
6.67876e-05
6.67876e-05
6.67888e-05
6.67888e-05
6.67901e-05
6.67901e-05
6.67914e-05
6.67914e-05
6.67928e-05
6.67928e-05
6.67942e-05
6.67942e-05
6.67957e-05
6.67957e-05
6.67973e-05
6.67973e-05
6.67989e-05
6.67989e-05
6.68006e-05
6.68006e-05
6.68024e-05
6.68024e-05
6.68042e-05
6.68042e-05
6.68061e-05
6.68061e-05
6.68081e-05
6.68081e-05
6.68102e-05
6.68102e-05
6.68124e-05
6.68124e-05
6.68146e-05
6.68146e-05
6.68169e-05
6.68169e-05
6.68194e-05
6.68194e-05
6.68219e-05
6.68219e-05
6.68245e-05
6.68245e-05
6.68272e-05
6.68272e-05
6.683e-05
6.683e-05
6.68329e-05
6.68329e-05
6.6836e-05
6.6836e-05
6.68391e-05
6.68391e-05
6.68424e-05
6.68424e-05
6.68457e-05
6.68457e-05
6.68492e-05
6.68492e-05
6.68528e-05
6.68528e-05
6.68566e-05
6.68566e-05
6.68605e-05
6.68605e-05
6.68645e-05
6.68645e-05
6.68686e-05
6.68686e-05
6.68729e-05
6.68729e-05
6.68774e-05
6.68774e-05
6.6882e-05
6.6882e-05
6.68867e-05
6.68867e-05
6.68916e-05
6.68916e-05
6.68967e-05
6.68967e-05
6.6902e-05
6.6902e-05
6.69074e-05
6.69074e-05
6.6913e-05
6.6913e-05
6.69188e-05
6.69188e-05
6.69248e-05
6.69248e-05
6.69309e-05
6.69309e-05
6.69373e-05
6.69373e-05
6.69438e-05
6.69438e-05
6.69506e-05
6.69506e-05
6.69576e-05
6.69576e-05
6.69648e-05
6.69648e-05
6.69723e-05
6.69723e-05
6.69799e-05
6.69799e-05
6.69878e-05
6.69878e-05
6.6996e-05
6.6996e-05
6.70044e-05
6.70044e-05
6.7013e-05
6.7013e-05
6.70219e-05
6.70219e-05
6.70311e-05
6.70311e-05
6.70406e-05
6.70406e-05
6.70503e-05
6.70503e-05
6.70603e-05
6.70603e-05
6.70706e-05
6.70706e-05
6.70813e-05
6.70813e-05
6.70922e-05
6.70922e-05
6.71034e-05
6.71034e-05
6.7115e-05
6.7115e-05
6.71268e-05
6.71268e-05
6.7139e-05
6.7139e-05
6.71516e-05
6.71516e-05
6.71645e-05
6.71645e-05
6.71777e-05
6.71777e-05
6.71914e-05
6.71914e-05
6.72054e-05
6.72054e-05
6.72197e-05
6.72197e-05
6.72345e-05
6.72345e-05
6.72496e-05
6.72496e-05
6.72651e-05
6.72651e-05
6.72811e-05
6.72811e-05
6.72974e-05
6.72974e-05
6.73142e-05
6.73142e-05
6.73313e-05
6.73313e-05
6.7349e-05
6.7349e-05
6.7367e-05
6.7367e-05
6.73855e-05
6.73855e-05
6.74044e-05
6.74044e-05
6.74238e-05
6.74238e-05
6.74437e-05
6.74437e-05
6.7464e-05
6.7464e-05
6.74848e-05
6.74848e-05
6.75061e-05
6.75061e-05
6.75278e-05
6.75278e-05
6.75501e-05
6.75501e-05
6.75728e-05
6.75728e-05
6.7596e-05
6.7596e-05
6.76197e-05
6.76197e-05
6.76439e-05
6.76439e-05
6.76686e-05
6.76686e-05
6.76938e-05
6.76938e-05
6.77195e-05
6.77195e-05
6.77457e-05
6.77457e-05
6.77724e-05
6.77724e-05
6.77996e-05
6.77996e-05
6.78274e-05
6.78274e-05
6.78556e-05
6.78556e-05
6.78843e-05
6.78843e-05
6.79135e-05
6.79135e-05
6.79431e-05
6.79431e-05
6.79733e-05
6.79733e-05
6.80039e-05
6.80039e-05
6.8035e-05
6.8035e-05
6.80665e-05
6.80665e-05
6.80985e-05
6.80985e-05
6.81309e-05
6.81309e-05
6.81638e-05
6.81638e-05
6.8197e-05
6.8197e-05
6.82307e-05
6.82307e-05
6.82647e-05
6.82647e-05
6.82991e-05
6.82991e-05
6.83338e-05
6.83338e-05
6.83688e-05
6.83688e-05
6.84041e-05
6.84041e-05
6.84397e-05
6.84397e-05
6.84756e-05
6.84756e-05
6.85117e-05
6.85117e-05
6.85479e-05
6.85479e-05
6.85843e-05
6.85843e-05
6.86209e-05
6.86209e-05
6.86575e-05
6.86575e-05
6.86942e-05
6.86942e-05
6.87309e-05
6.87309e-05
6.87676e-05
6.87676e-05
6.88042e-05
6.88042e-05
6.88407e-05
6.88407e-05
6.8877e-05
6.8877e-05
6.89132e-05
6.89132e-05
6.89491e-05
6.89491e-05
6.89847e-05
6.89847e-05
6.90199e-05
6.90199e-05
6.90548e-05
6.90548e-05
6.90891e-05
6.90891e-05
6.91229e-05
6.91229e-05
6.91562e-05
6.91562e-05
6.91888e-05
6.91888e-05
6.92206e-05
6.92206e-05
6.92517e-05
6.92517e-05
6.92819e-05
6.92819e-05
6.93112e-05
6.93112e-05
6.93396e-05
6.93396e-05
6.93668e-05
6.93668e-05
6.9393e-05
6.9393e-05
6.94179e-05
6.94179e-05
6.94415e-05
6.94415e-05
6.94638e-05
6.94638e-05
6.94846e-05
6.94846e-05
6.9504e-05
6.9504e-05
6.95217e-05
6.95217e-05
6.95378e-05
6.95378e-05
6.95522e-05
6.95522e-05
6.95648e-05
6.95648e-05
6.95755e-05
6.95755e-05
6.95842e-05
6.95842e-05
6.9591e-05
6.9591e-05
6.95956e-05
6.95956e-05
6.95981e-05
6.95981e-05
6.95984e-05
6.95984e-05
6.95965e-05
6.95965e-05
6.95922e-05
6.95922e-05
6.95855e-05
6.95855e-05
6.95764e-05
6.95764e-05
6.95649e-05
6.95649e-05
6.95509e-05
6.95509e-05
6.95343e-05
6.95343e-05
6.95152e-05
6.95152e-05
6.94936e-05
6.94936e-05
6.94694e-05
6.94694e-05
6.94426e-05
6.94426e-05
6.94132e-05
6.94132e-05
6.93813e-05
6.93813e-05
6.93469e-05
6.93469e-05
6.931e-05
6.931e-05
6.92706e-05
6.92706e-05
6.92289e-05
6.92289e-05
6.91849e-05
6.91849e-05
6.91387e-05
6.91387e-05
6.90903e-05
6.90903e-05
6.90399e-05
6.90399e-05
6.89877e-05
6.89877e-05
6.89337e-05
6.89337e-05
6.8878e-05
6.8878e-05
6.8821e-05
6.8821e-05
6.87627e-05
6.87627e-05
6.87033e-05
6.87033e-05
6.86431e-05
6.86431e-05
6.85822e-05
6.85822e-05
6.8521e-05
6.8521e-05
6.84596e-05
6.84596e-05
6.83983e-05
6.83983e-05
6.83375e-05
6.83375e-05
6.82774e-05
6.82774e-05
6.82182e-05
6.82182e-05
6.81604e-05
6.81604e-05
6.81043e-05
6.81043e-05
6.80501e-05
6.80501e-05
6.79982e-05
6.79982e-05
6.7949e-05
6.7949e-05
6.79028e-05
6.79028e-05
6.78599e-05
6.78599e-05
6.78206e-05
6.78206e-05
6.77853e-05
6.77853e-05
6.77543e-05
6.77543e-05
6.77279e-05
6.77279e-05
6.77064e-05
6.77064e-05
6.769e-05
6.769e-05
6.76788e-05
6.76788e-05
6.76732e-05
6.76732e-05
1.42705e-06
1.42705e-06
2.10591e-07
2.10591e-07
6.34956e-08
6.34956e-08
2.7847e-08
2.7847e-08
1.57071e-08
1.57071e-08
1.12391e-08
1.12391e-08
1.03384e-08
1.03384e-08
1.17463e-08
1.17463e-08
1.51052e-08
1.51052e-08
2.04047e-08
2.04047e-08
2.77922e-08
2.77922e-08
3.74986e-08
3.74986e-08
4.98048e-08
4.98048e-08
6.50259e-08
6.50259e-08
8.35024e-08
8.35024e-08
1.05596e-07
1.05596e-07
1.31684e-07
1.31684e-07
1.62161e-07
1.62161e-07
1.97431e-07
1.97431e-07
2.37914e-07
2.37914e-07
2.84033e-07
2.84033e-07
3.36222e-07
3.36222e-07
3.94921e-07
3.94921e-07
4.6057e-07
4.6057e-07
5.33614e-07
5.33614e-07
6.14494e-07
6.14494e-07
7.03649e-07
7.03649e-07
8.01511e-07
8.01511e-07
9.08507e-07
9.08507e-07
1.02505e-06
1.02505e-06
1.15154e-06
1.15154e-06
1.28836e-06
1.28836e-06
1.43588e-06
1.43588e-06
1.59444e-06
1.59444e-06
1.76436e-06
1.76436e-06
1.94595e-06
1.94595e-06
2.13946e-06
2.13946e-06
2.34514e-06
2.34514e-06
2.56319e-06
2.56319e-06
2.79378e-06
2.79378e-06
3.03706e-06
3.03706e-06
3.29313e-06
3.29313e-06
3.56205e-06
3.56205e-06
3.84387e-06
3.84387e-06
4.13857e-06
4.13857e-06
4.44612e-06
4.44612e-06
4.76643e-06
4.76643e-06
5.09941e-06
5.09941e-06
5.4449e-06
5.4449e-06
5.80274e-06
5.80274e-06
6.1727e-06
6.1727e-06
6.55457e-06
6.55457e-06
6.94808e-06
6.94808e-06
7.35294e-06
7.35294e-06
7.76884e-06
7.76884e-06
8.19545e-06
8.19545e-06
8.63244e-06
8.63244e-06
9.07943e-06
9.07943e-06
9.53606e-06
9.53606e-06
1.00019e-05
1.00019e-05
1.04767e-05
1.04767e-05
1.09599e-05
1.09599e-05
1.14512e-05
1.14512e-05
1.19502e-05
1.19502e-05
1.24564e-05
1.24564e-05
1.29696e-05
1.29696e-05
1.34892e-05
1.34892e-05
1.4015e-05
1.4015e-05
1.45466e-05
1.45466e-05
1.50835e-05
1.50835e-05
1.56256e-05
1.56256e-05
1.61723e-05
1.61723e-05
1.67235e-05
1.67235e-05
1.72789e-05
1.72789e-05
1.7838e-05
1.7838e-05
1.84008e-05
1.84008e-05
1.89668e-05
1.89668e-05
1.9536e-05
1.9536e-05
2.01079e-05
2.01079e-05
2.06826e-05
2.06826e-05
2.12597e-05
2.12597e-05
2.18391e-05
2.18391e-05
2.24206e-05
2.24206e-05
2.3004e-05
2.3004e-05
2.35894e-05
2.35894e-05
2.41764e-05
2.41764e-05
2.4765e-05
2.4765e-05
2.53551e-05
2.53551e-05
2.59466e-05
2.59466e-05
2.65394e-05
2.65394e-05
2.71334e-05
2.71334e-05
2.77286e-05
2.77286e-05
2.83249e-05
2.83249e-05
2.89221e-05
2.89221e-05
2.95203e-05
2.95203e-05
3.01193e-05
3.01193e-05
3.07191e-05
3.07191e-05
3.13197e-05
3.13197e-05
3.19209e-05
3.19209e-05
3.25226e-05
3.25226e-05
3.31249e-05
3.31249e-05
3.37275e-05
3.37275e-05
3.43304e-05
3.43304e-05
3.49336e-05
3.49336e-05
3.55368e-05
3.55368e-05
3.61401e-05
3.61401e-05
3.67432e-05
3.67432e-05
3.7346e-05
3.7346e-05
3.79484e-05
3.79484e-05
3.85503e-05
3.85503e-05
3.91514e-05
3.91514e-05
3.97516e-05
3.97516e-05
4.03508e-05
4.03508e-05
4.09486e-05
4.09486e-05
4.15451e-05
4.15451e-05
4.21398e-05
4.21398e-05
4.27327e-05
4.27327e-05
4.33235e-05
4.33235e-05
4.39119e-05
4.39119e-05
4.44977e-05
4.44977e-05
4.50807e-05
4.50807e-05
4.56606e-05
4.56606e-05
4.62372e-05
4.62372e-05
4.68102e-05
4.68102e-05
4.73792e-05
4.73792e-05
4.79441e-05
4.79441e-05
4.85046e-05
4.85046e-05
4.90603e-05
4.90603e-05
4.96111e-05
4.96111e-05
5.01565e-05
5.01565e-05
5.06964e-05
5.06964e-05
5.12305e-05
5.12305e-05
5.17584e-05
5.17584e-05
5.22799e-05
5.22799e-05
5.27948e-05
5.27948e-05
5.33026e-05
5.33026e-05
5.38033e-05
5.38033e-05
5.42965e-05
5.42965e-05
5.4782e-05
5.4782e-05
5.52595e-05
5.52595e-05
5.57287e-05
5.57287e-05
5.61896e-05
5.61896e-05
5.66417e-05
5.66417e-05
5.7085e-05
5.7085e-05
5.75192e-05
5.75192e-05
5.79441e-05
5.79441e-05
5.83596e-05
5.83596e-05
5.87654e-05
5.87654e-05
5.91615e-05
5.91615e-05
5.95476e-05
5.95476e-05
5.99236e-05
5.99236e-05
6.02895e-05
6.02895e-05
6.0645e-05
6.0645e-05
6.09901e-05
6.09901e-05
6.13247e-05
6.13247e-05
6.16487e-05
6.16487e-05
6.19621e-05
6.19621e-05
6.22647e-05
6.22647e-05
6.25567e-05
6.25567e-05
6.28378e-05
6.28378e-05
6.31082e-05
6.31082e-05
6.33677e-05
6.33677e-05
6.36164e-05
6.36164e-05
6.38544e-05
6.38544e-05
6.40816e-05
6.40816e-05
6.4298e-05
6.4298e-05
6.45037e-05
6.45037e-05
6.46988e-05
6.46988e-05
6.48833e-05
6.48833e-05
6.50574e-05
6.50574e-05
6.5221e-05
6.5221e-05
6.53743e-05
6.53743e-05
6.55174e-05
6.55174e-05
6.56505e-05
6.56505e-05
6.57737e-05
6.57737e-05
6.58873e-05
6.58873e-05
6.59914e-05
6.59914e-05
6.60864e-05
6.60864e-05
6.61725e-05
6.61725e-05
6.62501e-05
6.62501e-05
6.63196e-05
6.63196e-05
6.63815e-05
6.63815e-05
6.64362e-05
6.64362e-05
6.64844e-05
6.64844e-05
6.65265e-05
6.65265e-05
6.65631e-05
6.65631e-05
6.65948e-05
6.65948e-05
6.66222e-05
6.66222e-05
6.66457e-05
6.66457e-05
6.66658e-05
6.66658e-05
6.66831e-05
6.66831e-05
6.66979e-05
6.66979e-05
6.67106e-05
6.67106e-05
6.67214e-05
6.67214e-05
6.67307e-05
6.67307e-05
6.67387e-05
6.67387e-05
6.67456e-05
6.67456e-05
6.67515e-05
6.67515e-05
6.67566e-05
6.67566e-05
6.6761e-05
6.6761e-05
6.67649e-05
6.67649e-05
6.67682e-05
6.67682e-05
6.67712e-05
6.67712e-05
6.67737e-05
6.67737e-05
6.67759e-05
6.67759e-05
6.67779e-05
6.67779e-05
6.67796e-05
6.67796e-05
6.67811e-05
6.67811e-05
6.67825e-05
6.67825e-05
6.67837e-05
6.67837e-05
6.67847e-05
6.67847e-05
6.67856e-05
6.67856e-05
6.67865e-05
6.67865e-05
6.67872e-05
6.67872e-05
6.67878e-05
6.67878e-05
6.67884e-05
6.67884e-05
6.67889e-05
6.67889e-05
6.67894e-05
6.67894e-05
6.67898e-05
6.67898e-05
6.67901e-05
6.67901e-05
6.67904e-05
6.67904e-05
6.67907e-05
6.67907e-05
6.67909e-05
6.67909e-05
6.67911e-05
6.67911e-05
6.67913e-05
6.67913e-05
6.67915e-05
6.67915e-05
6.67916e-05
6.67916e-05
6.67917e-05
6.67917e-05
6.67918e-05
6.67918e-05
6.67919e-05
6.67919e-05
6.6792e-05
6.6792e-05
6.6792e-05
6.6792e-05
6.6792e-05
6.6792e-05
6.67921e-05
6.67921e-05
6.67921e-05
6.67921e-05
6.67921e-05
6.67921e-05
6.67921e-05
6.67921e-05
6.67921e-05
6.67921e-05
6.6792e-05
6.6792e-05
6.6792e-05
6.6792e-05
6.6792e-05
6.6792e-05
6.67919e-05
6.67919e-05
6.67919e-05
6.67919e-05
6.67918e-05
6.67918e-05
6.67917e-05
6.67917e-05
6.67917e-05
6.67917e-05
6.67916e-05
6.67916e-05
6.67915e-05
6.67915e-05
6.67914e-05
6.67914e-05
6.67914e-05
6.67914e-05
6.67913e-05
6.67913e-05
6.67912e-05
6.67912e-05
6.67911e-05
6.67911e-05
6.6791e-05
6.6791e-05
6.67909e-05
6.67909e-05
6.67908e-05
6.67908e-05
6.67907e-05
6.67907e-05
6.67906e-05
6.67906e-05
6.67905e-05
6.67905e-05
6.67903e-05
6.67903e-05
6.67902e-05
6.67902e-05
6.67901e-05
6.67901e-05
6.679e-05
6.679e-05
6.67899e-05
6.67899e-05
6.67897e-05
6.67897e-05
6.67896e-05
6.67896e-05
6.67895e-05
6.67895e-05
6.67894e-05
6.67894e-05
6.67892e-05
6.67892e-05
6.67891e-05
6.67891e-05
6.6789e-05
6.6789e-05
6.67888e-05
6.67888e-05
6.67887e-05
6.67887e-05
6.67885e-05
6.67885e-05
6.67884e-05
6.67884e-05
6.67883e-05
6.67883e-05
6.67881e-05
6.67881e-05
6.6788e-05
6.6788e-05
6.67878e-05
6.67878e-05
6.67877e-05
6.67877e-05
6.67875e-05
6.67875e-05
6.67873e-05
6.67873e-05
6.67872e-05
6.67872e-05
6.6787e-05
6.6787e-05
6.67869e-05
6.67869e-05
6.67867e-05
6.67867e-05
6.67865e-05
6.67865e-05
6.67864e-05
6.67864e-05
6.67862e-05
6.67862e-05
6.6786e-05
6.6786e-05
6.67859e-05
6.67859e-05
6.67857e-05
6.67857e-05
6.67855e-05
6.67855e-05
6.67853e-05
6.67853e-05
6.67852e-05
6.67852e-05
6.6785e-05
6.6785e-05
6.67848e-05
6.67848e-05
6.67846e-05
6.67846e-05
6.67844e-05
6.67844e-05
6.67843e-05
6.67843e-05
6.67841e-05
6.67841e-05
6.67839e-05
6.67839e-05
6.67837e-05
6.67837e-05
6.67835e-05
6.67835e-05
6.67833e-05
6.67833e-05
6.67831e-05
6.67831e-05
6.67829e-05
6.67829e-05
6.67827e-05
6.67827e-05
6.67825e-05
6.67825e-05
6.67823e-05
6.67823e-05
6.67821e-05
6.67821e-05
6.67819e-05
6.67819e-05
6.67817e-05
6.67817e-05
6.67815e-05
6.67815e-05
6.67813e-05
6.67813e-05
6.67811e-05
6.67811e-05
6.67809e-05
6.67809e-05
6.67807e-05
6.67807e-05
6.67805e-05
6.67805e-05
6.67803e-05
6.67803e-05
6.67801e-05
6.67801e-05
6.67799e-05
6.67799e-05
6.67796e-05
6.67796e-05
6.67794e-05
6.67794e-05
6.67792e-05
6.67792e-05
6.6779e-05
6.6779e-05
6.67788e-05
6.67788e-05
6.67786e-05
6.67786e-05
6.67783e-05
6.67783e-05
6.67781e-05
6.67781e-05
6.67779e-05
6.67779e-05
6.67777e-05
6.67777e-05
6.67775e-05
6.67775e-05
6.67772e-05
6.67772e-05
6.6777e-05
6.6777e-05
6.67768e-05
6.67768e-05
6.67766e-05
6.67766e-05
6.67764e-05
6.67764e-05
6.67761e-05
6.67761e-05
6.67759e-05
6.67759e-05
6.67757e-05
6.67757e-05
6.67755e-05
6.67755e-05
6.67753e-05
6.67753e-05
6.67751e-05
6.67751e-05
6.67748e-05
6.67748e-05
6.67746e-05
6.67746e-05
6.67744e-05
6.67744e-05
6.67742e-05
6.67742e-05
6.6774e-05
6.6774e-05
6.67738e-05
6.67738e-05
6.67736e-05
6.67736e-05
6.67734e-05
6.67734e-05
6.67732e-05
6.67732e-05
6.6773e-05
6.6773e-05
6.67728e-05
6.67728e-05
6.67726e-05
6.67726e-05
6.67724e-05
6.67724e-05
6.67722e-05
6.67722e-05
6.6772e-05
6.6772e-05
6.67718e-05
6.67718e-05
6.67716e-05
6.67716e-05
6.67715e-05
6.67715e-05
6.67713e-05
6.67713e-05
6.67711e-05
6.67711e-05
6.6771e-05
6.6771e-05
6.67708e-05
6.67708e-05
6.67707e-05
6.67707e-05
6.67705e-05
6.67705e-05
6.67704e-05
6.67704e-05
6.67702e-05
6.67702e-05
6.67701e-05
6.67701e-05
6.677e-05
6.677e-05
6.67699e-05
6.67699e-05
6.67698e-05
6.67698e-05
6.67697e-05
6.67697e-05
6.67696e-05
6.67696e-05
6.67695e-05
6.67695e-05
6.67694e-05
6.67694e-05
6.67694e-05
6.67694e-05
6.67693e-05
6.67693e-05
6.67693e-05
6.67693e-05
6.67692e-05
6.67692e-05
6.67692e-05
6.67692e-05
6.67692e-05
6.67692e-05
6.67692e-05
6.67692e-05
6.67692e-05
6.67692e-05
6.67693e-05
6.67693e-05
6.67693e-05
6.67693e-05
6.67694e-05
6.67694e-05
6.67694e-05
6.67694e-05
6.67695e-05
6.67695e-05
6.67696e-05
6.67696e-05
6.67697e-05
6.67697e-05
6.67699e-05
6.67699e-05
6.677e-05
6.677e-05
6.67702e-05
6.67702e-05
6.67704e-05
6.67704e-05
6.67706e-05
6.67706e-05
6.67709e-05
6.67709e-05
6.67711e-05
6.67711e-05
6.67714e-05
6.67714e-05
6.67717e-05
6.67717e-05
6.6772e-05
6.6772e-05
6.67724e-05
6.67724e-05
6.67728e-05
6.67728e-05
6.67732e-05
6.67732e-05
6.67736e-05
6.67736e-05
6.67741e-05
6.67741e-05
6.67746e-05
6.67746e-05
6.67751e-05
6.67751e-05
6.67757e-05
6.67757e-05
6.67763e-05
6.67763e-05
6.67769e-05
6.67769e-05
6.67775e-05
6.67775e-05
6.67782e-05
6.67782e-05
6.6779e-05
6.6779e-05
6.67798e-05
6.67798e-05
6.67806e-05
6.67806e-05
6.67815e-05
6.67815e-05
6.67824e-05
6.67824e-05
6.67833e-05
6.67833e-05
6.67843e-05
6.67843e-05
6.67854e-05
6.67854e-05
6.67865e-05
6.67865e-05
6.67876e-05
6.67876e-05
6.67888e-05
6.67888e-05
6.67901e-05
6.67901e-05
6.67914e-05
6.67914e-05
6.67928e-05
6.67928e-05
6.67942e-05
6.67942e-05
6.67957e-05
6.67957e-05
6.67973e-05
6.67973e-05
6.67989e-05
6.67989e-05
6.68006e-05
6.68006e-05
6.68024e-05
6.68024e-05
6.68042e-05
6.68042e-05
6.68061e-05
6.68061e-05
6.68081e-05
6.68081e-05
6.68102e-05
6.68102e-05
6.68124e-05
6.68124e-05
6.68146e-05
6.68146e-05
6.68169e-05
6.68169e-05
6.68194e-05
6.68194e-05
6.68219e-05
6.68219e-05
6.68245e-05
6.68245e-05
6.68272e-05
6.68272e-05
6.683e-05
6.683e-05
6.68329e-05
6.68329e-05
6.6836e-05
6.6836e-05
6.68391e-05
6.68391e-05
6.68424e-05
6.68424e-05
6.68457e-05
6.68457e-05
6.68492e-05
6.68492e-05
6.68528e-05
6.68528e-05
6.68566e-05
6.68566e-05
6.68605e-05
6.68605e-05
6.68645e-05
6.68645e-05
6.68686e-05
6.68686e-05
6.68729e-05
6.68729e-05
6.68774e-05
6.68774e-05
6.6882e-05
6.6882e-05
6.68867e-05
6.68867e-05
6.68916e-05
6.68916e-05
6.68967e-05
6.68967e-05
6.6902e-05
6.6902e-05
6.69074e-05
6.69074e-05
6.6913e-05
6.6913e-05
6.69188e-05
6.69188e-05
6.69248e-05
6.69248e-05
6.69309e-05
6.69309e-05
6.69373e-05
6.69373e-05
6.69438e-05
6.69438e-05
6.69506e-05
6.69506e-05
6.69576e-05
6.69576e-05
6.69648e-05
6.69648e-05
6.69723e-05
6.69723e-05
6.69799e-05
6.69799e-05
6.69878e-05
6.69878e-05
6.6996e-05
6.6996e-05
6.70044e-05
6.70044e-05
6.7013e-05
6.7013e-05
6.70219e-05
6.70219e-05
6.70311e-05
6.70311e-05
6.70406e-05
6.70406e-05
6.70503e-05
6.70503e-05
6.70603e-05
6.70603e-05
6.70706e-05
6.70706e-05
6.70813e-05
6.70813e-05
6.70922e-05
6.70922e-05
6.71034e-05
6.71034e-05
6.7115e-05
6.7115e-05
6.71268e-05
6.71268e-05
6.7139e-05
6.7139e-05
6.71516e-05
6.71516e-05
6.71645e-05
6.71645e-05
6.71777e-05
6.71777e-05
6.71914e-05
6.71914e-05
6.72054e-05
6.72054e-05
6.72197e-05
6.72197e-05
6.72345e-05
6.72345e-05
6.72496e-05
6.72496e-05
6.72651e-05
6.72651e-05
6.72811e-05
6.72811e-05
6.72974e-05
6.72974e-05
6.73142e-05
6.73142e-05
6.73313e-05
6.73313e-05
6.7349e-05
6.7349e-05
6.7367e-05
6.7367e-05
6.73855e-05
6.73855e-05
6.74044e-05
6.74044e-05
6.74238e-05
6.74238e-05
6.74437e-05
6.74437e-05
6.7464e-05
6.7464e-05
6.74848e-05
6.74848e-05
6.75061e-05
6.75061e-05
6.75278e-05
6.75278e-05
6.75501e-05
6.75501e-05
6.75728e-05
6.75728e-05
6.7596e-05
6.7596e-05
6.76197e-05
6.76197e-05
6.76439e-05
6.76439e-05
6.76686e-05
6.76686e-05
6.76938e-05
6.76938e-05
6.77195e-05
6.77195e-05
6.77457e-05
6.77457e-05
6.77724e-05
6.77724e-05
6.77996e-05
6.77996e-05
6.78274e-05
6.78274e-05
6.78556e-05
6.78556e-05
6.78843e-05
6.78843e-05
6.79135e-05
6.79135e-05
6.79431e-05
6.79431e-05
6.79733e-05
6.79733e-05
6.80039e-05
6.80039e-05
6.8035e-05
6.8035e-05
6.80665e-05
6.80665e-05
6.80985e-05
6.80985e-05
6.81309e-05
6.81309e-05
6.81638e-05
6.81638e-05
6.8197e-05
6.8197e-05
6.82307e-05
6.82307e-05
6.82647e-05
6.82647e-05
6.82991e-05
6.82991e-05
6.83338e-05
6.83338e-05
6.83688e-05
6.83688e-05
6.84041e-05
6.84041e-05
6.84397e-05
6.84397e-05
6.84756e-05
6.84756e-05
6.85117e-05
6.85117e-05
6.85479e-05
6.85479e-05
6.85843e-05
6.85843e-05
6.86209e-05
6.86209e-05
6.86575e-05
6.86575e-05
6.86942e-05
6.86942e-05
6.87309e-05
6.87309e-05
6.87676e-05
6.87676e-05
6.88042e-05
6.88042e-05
6.88407e-05
6.88407e-05
6.8877e-05
6.8877e-05
6.89132e-05
6.89132e-05
6.89491e-05
6.89491e-05
6.89847e-05
6.89847e-05
6.90199e-05
6.90199e-05
6.90548e-05
6.90548e-05
6.90891e-05
6.90891e-05
6.91229e-05
6.91229e-05
6.91562e-05
6.91562e-05
6.91888e-05
6.91888e-05
6.92206e-05
6.92206e-05
6.92517e-05
6.92517e-05
6.92819e-05
6.92819e-05
6.93112e-05
6.93112e-05
6.93396e-05
6.93396e-05
6.93668e-05
6.93668e-05
6.9393e-05
6.9393e-05
6.94179e-05
6.94179e-05
6.94415e-05
6.94415e-05
6.94638e-05
6.94638e-05
6.94846e-05
6.94846e-05
6.9504e-05
6.9504e-05
6.95217e-05
6.95217e-05
6.95378e-05
6.95378e-05
6.95522e-05
6.95522e-05
6.95648e-05
6.95648e-05
6.95755e-05
6.95755e-05