/*--------------------------------*- C++ -*----------------------------------*\
| =========                 |                                                 |
| \\      /  F ield         | OpenFOAM: The Open Source CFD Toolbox           |
|  \\    /   O peration     | Version:  2012                                  |
|   \\  /    A nd           | Website:  www.openfoam.com                      |
|    \\/     M anipulation  |                                                 |
\*---------------------------------------------------------------------------*/
FoamFile
{
    version     2.0;
    format      ascii;
    class       volScalarField;
    location    "1000";
    object      nut;
}
// * * * * * * * * * * * * * * * * * * * * * * * * * * * * * * * * * * * * * //

dimensions      [0 2 -1 0 0 0 0];


internalField   nonuniform List<scalar> 
5120
(
2.48553e-13
2.48553e-13
2.09928e-13
2.09928e-13
1.85464e-13
1.85464e-13
1.71207e-13
1.71207e-13
1.69085e-13
1.69085e-13
1.89051e-13
1.89051e-13
2.51781e-13
2.51781e-13
3.92315e-13
3.92315e-13
6.64443e-13
6.64443e-13
1.14576e-12
1.14576e-12
1.94328e-12
1.94328e-12
3.19965e-12
3.19965e-12
5.09985e-12
5.09985e-12
7.87837e-12
7.87837e-12
1.18269e-11
1.18269e-11
1.73023e-11
1.73023e-11
2.47349e-11
2.47349e-11
3.46372e-11
3.46372e-11
4.76128e-11
4.76128e-11
6.43644e-11
6.43644e-11
8.57037e-11
8.57037e-11
1.12559e-10
1.12559e-10
1.45983e-10
1.45983e-10
1.87162e-10
1.87162e-10
2.37424e-10
2.37424e-10
2.9824e-10
2.9824e-10
3.71237e-10
3.71237e-10
4.58198e-10
4.58198e-10
5.61068e-10
5.61068e-10
6.81957e-10
6.81957e-10
8.23143e-10
8.23143e-10
9.87071e-10
9.87071e-10
1.17636e-09
1.17636e-09
1.39378e-09
1.39378e-09
1.64229e-09
1.64229e-09
1.92501e-09
1.92501e-09
2.24521e-09
2.24521e-09
2.60634e-09
2.60634e-09
3.01198e-09
3.01198e-09
3.46589e-09
3.46589e-09
3.97197e-09
3.97197e-09
4.53428e-09
4.53428e-09
5.15701e-09
5.15701e-09
5.8445e-09
5.8445e-09
6.60124e-09
6.60124e-09
7.43186e-09
7.43186e-09
8.34115e-09
8.34115e-09
9.33403e-09
9.33403e-09
1.04156e-08
1.04156e-08
1.1591e-08
1.1591e-08
1.28658e-08
1.28658e-08
1.42454e-08
1.42454e-08
1.57356e-08
1.57356e-08
1.73424e-08
1.73424e-08
1.90719e-08
1.90719e-08
2.09304e-08
2.09304e-08
2.29246e-08
2.29246e-08
2.50612e-08
2.50612e-08
2.73475e-08
2.73475e-08
2.97907e-08
2.97907e-08
3.23986e-08
3.23986e-08
3.51793e-08
3.51793e-08
3.81411e-08
3.81411e-08
4.12928e-08
4.12928e-08
4.46436e-08
4.46436e-08
4.82033e-08
4.82033e-08
5.19819e-08
5.19819e-08
5.59901e-08
5.59901e-08
6.0239e-08
6.0239e-08
6.47406e-08
6.47406e-08
6.95072e-08
6.95072e-08
7.4552e-08
7.4552e-08
7.98887e-08
7.98887e-08
8.55321e-08
8.55321e-08
9.14976e-08
9.14976e-08
9.78015e-08
9.78015e-08
1.04461e-07
1.04461e-07
1.11495e-07
1.11495e-07
1.18921e-07
1.18921e-07
1.26762e-07
1.26762e-07
1.35038e-07
1.35038e-07
1.43773e-07
1.43773e-07
1.5299e-07
1.5299e-07
1.62716e-07
1.62716e-07
1.72979e-07
1.72979e-07
1.83806e-07
1.83806e-07
1.95229e-07
1.95229e-07
2.07281e-07
2.07281e-07
2.19995e-07
2.19995e-07
2.3341e-07
2.3341e-07
2.47564e-07
2.47564e-07
2.62498e-07
2.62498e-07
2.78257e-07
2.78257e-07
2.94886e-07
2.94886e-07
3.12437e-07
3.12437e-07
3.30961e-07
3.30961e-07
3.50515e-07
3.50515e-07
3.71158e-07
3.71158e-07
3.92953e-07
3.92953e-07
4.15969e-07
4.15969e-07
4.40276e-07
4.40276e-07
4.65952e-07
4.65952e-07
4.93077e-07
4.93077e-07
5.21738e-07
5.21738e-07
5.52028e-07
5.52028e-07
5.84045e-07
5.84045e-07
6.17893e-07
6.17893e-07
6.53686e-07
6.53686e-07
6.91542e-07
6.91542e-07
7.31589e-07
7.31589e-07
7.73965e-07
7.73965e-07
8.18814e-07
8.18814e-07
8.66295e-07
8.66295e-07
9.16572e-07
9.16572e-07
9.69827e-07
9.69827e-07
1.02625e-06
1.02625e-06
1.08605e-06
1.08605e-06
1.14945e-06
1.14945e-06
1.21668e-06
1.21668e-06
1.28801e-06
1.28801e-06
1.3637e-06
1.3637e-06
1.44405e-06
1.44405e-06
1.52939e-06
1.52939e-06
1.62006e-06
1.62006e-06
1.71643e-06
1.71643e-06
1.8189e-06
1.8189e-06
1.92792e-06
1.92792e-06
2.04395e-06
2.04395e-06
2.16751e-06
2.16751e-06
2.29916e-06
2.29916e-06
2.43949e-06
2.43949e-06
2.58918e-06
2.58918e-06
2.74894e-06
2.74894e-06
2.91955e-06
2.91955e-06
3.10186e-06
3.10186e-06
3.29683e-06
3.29683e-06
3.50547e-06
3.50547e-06
3.72892e-06
3.72892e-06
3.9684e-06
3.9684e-06
4.22529e-06
4.22529e-06
4.5011e-06
4.5011e-06
4.79747e-06
4.79747e-06
5.11626e-06
5.11626e-06
5.4595e-06
5.4595e-06
5.82946e-06
5.82946e-06
6.22866e-06
6.22866e-06
6.65991e-06
6.65991e-06
7.12635e-06
7.12635e-06
7.63151e-06
7.63151e-06
8.17933e-06
8.17933e-06
8.77427e-06
8.77427e-06
9.42134e-06
9.42134e-06
1.01262e-05
1.01262e-05
1.08953e-05
1.08953e-05
1.1736e-05
1.1736e-05
1.26566e-05
1.26566e-05
1.36666e-05
1.36666e-05
1.4777e-05
1.4777e-05
1.60003e-05
1.60003e-05
1.73511e-05
1.73511e-05
1.88461e-05
1.88461e-05
2.05048e-05
2.05048e-05
2.23498e-05
2.23498e-05
2.44077e-05
2.44077e-05
2.67094e-05
2.67094e-05
2.92911e-05
2.92911e-05
3.21959e-05
3.21959e-05
3.5474e-05
3.5474e-05
3.91854e-05
3.91853e-05
4.34004e-05
4.34004e-05
4.82031e-05
4.82031e-05
5.36925e-05
5.36925e-05
5.99862e-05
5.99862e-05
6.72233e-05
6.72232e-05
7.55673e-05
7.55673e-05
8.52106e-05
8.52106e-05
9.63768e-05
9.63768e-05
0.000109325
0.000109325
0.000124349
0.000124349
0.000141784
0.000141784
0.000161997
0.000161996
0.000185389
0.000185388
0.000212385
0.000212385
0.000243425
0.000243425
0.000278948
0.000278947
0.000319377
0.000319376
0.000365102
0.000365101
0.00041646
0.00041646
0.000473723
0.000473723
0.000537077
0.000537076
0.000606614
0.000606614
0.000682328
0.000682328
0.000764107
0.000764106
0.000851736
0.000851736
0.000944907
0.000944906
0.00104322
0.00104322
0.00114619
0.00114619
0.00125328
0.00125328
0.0013639
0.0013639
0.00147741
0.00147741
0.00159317
0.00159317
0.00171052
0.00171052
0.0018288
0.0018288
0.00194738
0.00194738
0.00206565
0.00206565
0.00218303
0.00218303
0.002299
0.002299
0.00241306
0.00241306
0.00252479
0.00252479
0.0026338
0.0026338
0.00273976
0.00273976
0.00284239
0.00284239
0.00294147
0.00294147
0.00303681
0.00303681
0.00312829
0.00312829
0.00321581
0.00321581
0.00329932
0.00329932
0.0033788
0.0033788
0.00345426
0.00345426
0.00352575
0.00352575
0.00359333
0.00359333
0.00365708
0.00365708
0.0037171
0.0037171
0.00377351
0.00377351
0.00382644
0.00382644
0.00387601
0.00387601
0.00392237
0.00392237
0.00396566
0.00396566
0.00400603
0.00400603
0.00404362
0.00404362
0.00407858
0.00407858
0.00411105
0.00411105
0.00414118
0.00414118
0.00416911
0.00416911
0.00419496
0.00419496
0.00421887
0.00421887
0.00424096
0.00424096
0.00426135
0.00426135
0.00428015
0.00428015
0.00429748
0.00429748
0.00431343
0.00431343
0.00432811
0.00432811
0.0043416
0.0043416
0.00435399
0.00435399
0.00436536
0.00436536
0.00437579
0.00437579
0.00438535
0.00438535
0.0043941
0.0043941
0.00440212
0.00440212
0.00440945
0.00440945
0.00441615
0.00441615
0.00442227
0.00442227
0.00442786
0.00442786
0.00443296
0.00443296
0.00443762
0.00443762
0.00444186
0.00444186
0.00444572
0.00444572
0.00444924
0.00444924
0.00445244
0.00445244
0.00445535
0.00445535
0.00445799
0.00445799
0.0044604
0.0044604
0.00446258
0.00446258
0.00446456
0.00446456
0.00446636
0.00446636
0.00446799
0.00446799
0.00446947
0.00446947
0.00447081
0.00447081
0.00447202
0.00447202
0.00447312
0.00447312
0.00447411
0.00447411
0.004475
0.004475
0.00447581
0.00447581
0.00447654
0.00447654
0.0044772
0.0044772
0.0044778
0.0044778
0.00447834
0.00447834
0.00447882
0.00447882
0.00447926
0.00447926
0.00447965
0.00447965
0.00448001
0.00448001
0.00448032
0.00448032
0.00448061
0.00448061
0.00448087
0.00448087
0.0044811
0.0044811
0.00448131
0.00448131
0.00448149
0.00448149
0.00448166
0.00448166
0.00448181
0.00448181
0.00448194
0.00448194
0.00448206
0.00448206
0.00448217
0.00448217
0.00448227
0.00448227
0.00448235
0.00448235
0.00448243
0.00448243
0.0044825
0.0044825
0.00448256
0.00448256
0.00448261
0.00448261
0.00448266
0.00448266
0.00448271
0.00448271
0.00448275
0.00448275
0.00448278
0.00448278
0.00448281
0.00448281
0.00448284
0.00448284
0.00448286
0.00448286
0.00448288
0.00448288
0.0044829
0.0044829
0.00448292
0.00448292
0.00448293
0.00448293
0.00448295
0.00448295
0.00448296
0.00448296
0.00448297
0.00448297
0.00448298
0.00448298
0.00448299
0.00448299
0.00448299
0.00448299
0.004483
0.004483
0.00448301
0.00448301
0.00448301
0.00448301
0.00448302
0.00448302
0.00448302
0.00448302
0.00448302
0.00448302
0.00448303
0.00448303
0.00448303
0.00448303
0.00448303
0.00448303
0.00448303
0.00448303
0.00448304
0.00448304
0.00448304
0.00448304
0.00448304
0.00448304
0.00448304
0.00448304
0.00448304
0.00448304
0.00448305
0.00448305
0.00448305
0.00448305
0.00448305
0.00448305
0.00448305
0.00448305
0.00448305
0.00448305
0.00448306
0.00448306
0.00448306
0.00448306
0.00448306
0.00448306
0.00448306
0.00448306
0.00448306
0.00448306
0.00448307
0.00448307
0.00448307
0.00448307
0.00448307
0.00448307
0.00448307
0.00448307
0.00448308
0.00448308
0.00448308
0.00448308
0.00448308
0.00448308
0.00448308
0.00448308
0.00448309
0.00448309
0.00448309
0.00448309
0.0044831
0.0044831
0.0044831
0.0044831
0.0044831
0.0044831
0.00448311
0.00448311
0.00448311
0.00448311
0.00448312
0.00448312
0.00448312
0.00448312
0.00448313
0.00448313
0.00448313
0.00448313
0.00448314
0.00448314
0.00448314
0.00448314
0.00448315
0.00448315
0.00448316
0.00448316
0.00448317
0.00448317
0.00448317
0.00448317
0.00448318
0.00448318
0.00448319
0.00448319
0.0044832
0.0044832
0.00448321
0.00448321
0.00448321
0.00448321
0.00448322
0.00448322
0.00448323
0.00448323
0.00448324
0.00448324
0.00448326
0.00448326
0.00448327
0.00448327
0.00448328
0.00448328
0.00448329
0.00448329
0.0044833
0.0044833
0.00448332
0.00448332
0.00448333
0.00448333
0.00448335
0.00448335
0.00448336
0.00448336
0.00448338
0.00448338
0.00448339
0.00448339
0.00448341
0.00448341
0.00448343
0.00448343
0.00448345
0.00448345
0.00448346
0.00448346
0.00448348
0.00448348
0.0044835
0.0044835
0.00448352
0.00448352
0.00448355
0.00448355
0.00448357
0.00448357
0.00448359
0.00448359
0.00448362
0.00448362
0.00448364
0.00448364
0.00448367
0.00448367
0.0044837
0.0044837
0.00448372
0.00448372
0.00448375
0.00448375
0.00448378
0.00448378
0.00448381
0.00448381
0.00448385
0.00448385
0.00448388
0.00448388
0.00448391
0.00448391
0.00448395
0.00448395
0.00448399
0.00448399
0.00448402
0.00448402
0.00448406
0.00448406
0.0044841
0.0044841
0.00448415
0.00448415
0.00448419
0.00448419
0.00448424
0.00448424
0.00448428
0.00448428
0.00448433
0.00448433
0.00448438
0.00448438
0.00448443
0.00448443
0.00448448
0.00448448
0.00448454
0.00448454
0.0044846
0.0044846
0.00448465
0.00448465
0.00448471
0.00448471
0.00448478
0.00448478
0.00448484
0.00448484
0.00448491
0.00448491
0.00448498
0.00448498
0.00448505
0.00448505
0.00448512
0.00448512
0.0044852
0.0044852
0.00448527
0.00448527
0.00448535
0.00448535
0.00448544
0.00448544
0.00448552
0.00448552
0.00448561
0.00448561
0.0044857
0.0044857
0.00448579
0.00448579
0.00448589
0.00448589
0.00448599
0.00448599
0.00448609
0.00448609
0.0044862
0.0044862
0.00448631
0.00448631
0.00448642
0.00448642
0.00448654
0.00448654
0.00448666
0.00448666
0.00448678
0.00448678
0.00448691
0.00448691
0.00448704
0.00448704
0.00448717
0.00448717
0.00448731
0.00448731
0.00448745
0.00448745
0.0044876
0.0044876
0.00448775
0.00448775
0.00448791
0.00448791
0.00448807
0.00448807
0.00448823
0.00448823
0.0044884
0.0044884
0.00448858
0.00448858
0.00448876
0.00448876
0.00448895
0.00448895
0.00448914
0.00448914
0.00448933
0.00448933
0.00448954
0.00448954
0.00448974
0.00448974
0.00448996
0.00448996
0.00449018
0.00449018
0.00449041
0.00449041
0.00449064
0.00449064
0.00449088
0.00449088
0.00449113
0.00449113
0.00449138
0.00449138
0.00449164
0.00449164
0.00449191
0.00449191
0.00449218
0.00449218
0.00449247
0.00449247
0.00449276
0.00449276
0.00449306
0.00449306
0.00449336
0.00449336
0.00449368
0.00449368
0.00449401
0.00449401
0.00449434
0.00449434
0.00449468
0.00449468
0.00449503
0.00449503
0.0044954
0.0044954
0.00449577
0.00449577
0.00449615
0.00449615
0.00449654
0.00449654
0.00449694
0.00449694
0.00449735
0.00449735
0.00449778
0.00449778
0.00449821
0.00449821
0.00449865
0.00449865
0.00449911
0.00449911
0.00449958
0.00449958
0.00450006
0.00450006
0.00450055
0.00450055
0.00450106
0.00450106
0.00450158
0.00450158
0.00450211
0.00450211
0.00450265
0.00450265
0.00450321
0.00450321
0.00450378
0.00450378
0.00450436
0.00450436
0.00450496
0.00450496
0.00450558
0.00450558
0.00450621
0.00450621
0.00450685
0.00450685
0.00450751
0.00450751
0.00450818
0.00450818
0.00450887
0.00450887
0.00450957
0.00450957
0.00451029
0.00451029
0.00451103
0.00451103
0.00451178
0.00451178
0.00451255
0.00451255
0.00451333
0.00451333
0.00451413
0.00451413
0.00451495
0.00451495
0.00451579
0.00451579
0.00451664
0.00451664
0.00451751
0.00451751
0.0045184
0.0045184
0.0045193
0.0045193
0.00452022
0.00452022
0.00452116
0.00452116
0.00452212
0.00452212
0.00452309
0.00452309
0.00452408
0.00452408
0.00452509
0.00452509
0.00452612
0.00452612
0.00452716
0.00452716
0.00452822
0.00452822
0.0045293
0.0045293
0.00453039
0.00453039
0.0045315
0.0045315
0.00453263
0.00453263
0.00453377
0.00453377
0.00453493
0.00453493
0.0045361
0.0045361
0.00453729
0.00453729
0.0045385
0.0045385
0.00453971
0.00453971
0.00454094
0.00454094
0.00454219
0.00454219
0.00454344
0.00454344
0.00454471
0.00454471
0.00454599
0.00454599
0.00454727
0.00454727
0.00454857
0.00454857
0.00454988
0.00454988
0.00455119
0.00455119
0.00455251
0.00455251
0.00455383
0.00455383
0.00455516
0.00455516
0.0045565
0.0045565
0.00455783
0.00455783
0.00455917
0.00455916
0.0045605
0.0045605
0.00456183
0.00456183
0.00456316
0.00456316
0.00456448
0.00456448
0.0045658
0.0045658
0.00456711
0.00456711
0.00456841
0.00456841
0.0045697
0.0045697
0.00457097
0.00457097
0.00457223
0.00457223
0.00457347
0.00457347
0.00457469
0.00457469
0.00457589
0.00457589
0.00457707
0.00457707
0.00457822
0.00457822
0.00457934
0.00457934
0.00458043
0.00458043
0.0045815
0.00458149
0.00458252
0.00458252
0.00458351
0.00458351
0.00458446
0.00458446
0.00458537
0.00458537
0.00458623
0.00458623
0.00458705
0.00458705
0.00458782
0.00458782
0.00458853
0.00458853
0.0045892
0.0045892
0.0045898
0.0045898
0.00459035
0.00459035
0.00459084
0.00459084
0.00459127
0.00459127
0.00459163
0.00459163
0.00459192
0.00459192
0.00459215
0.00459215
0.0045923
0.0045923
0.00459238
0.00459238
0.00459239
0.00459238
0.00459232
0.00459231
0.00459217
0.00459217
0.00459194
0.00459194
0.00459163
0.00459163
0.00459125
0.00459125
0.00459078
0.00459078
0.00459023
0.00459023
0.00458959
0.00458959
0.00458888
0.00458888
0.00458808
0.00458808
0.0045872
0.0045872
0.00458625
0.00458625
0.00458521
0.00458521
0.0045841
0.00458409
0.00458291
0.0045829
0.00458164
0.00458164
0.00458031
0.00458031
0.00457891
0.00457891
0.00457745
0.00457745
0.00457593
0.00457593
0.00457435
0.00457435
0.00457272
0.00457272
0.00457105
0.00457105
0.00456934
0.00456934
0.0045676
0.0045676
0.00456583
0.00456583
0.00456405
0.00456405
0.00456225
0.00456225
0.00456045
0.00456045
0.00455866
0.00455866
0.00455689
0.00455689
0.00455514
0.00455514
0.00455342
0.00455342
0.00455176
0.00455175
0.00455014
0.00455014
0.0045486
0.00454859
0.00454712
0.00454712
0.00454574
0.00454574
0.00454446
0.00454446
0.00454328
0.00454328
0.00454222
0.00454222
0.00454129
0.00454129
0.0045405
0.0045405
0.00453985
0.00453985
0.00453936
0.00453936
0.00453903
0.00453903
0.00453886
0.00453886
2.48553e-13
2.48553e-13
2.09928e-13
2.09928e-13
1.85464e-13
1.85464e-13
1.71207e-13
1.71207e-13
1.69085e-13
1.69085e-13
1.89051e-13
1.89051e-13
2.51781e-13
2.51781e-13
3.92315e-13
3.92315e-13
6.64443e-13
6.64443e-13
1.14576e-12
1.14576e-12
1.94328e-12
1.94328e-12
3.19965e-12
3.19965e-12
5.09985e-12
5.09985e-12
7.87837e-12
7.87837e-12
1.18269e-11
1.18269e-11
1.73023e-11
1.73023e-11
2.47349e-11
2.47349e-11
3.46372e-11
3.46372e-11
4.76128e-11
4.76128e-11
6.43644e-11
6.43644e-11
8.57037e-11
8.57036e-11
1.12559e-10
1.12559e-10
1.45983e-10
1.45983e-10
1.87162e-10
1.87162e-10
2.37424e-10
2.37424e-10
2.9824e-10
2.9824e-10
3.71237e-10
3.71237e-10
4.58198e-10
4.58198e-10
5.61068e-10
5.61068e-10
6.81957e-10
6.81957e-10
8.23143e-10
8.23143e-10
9.87071e-10
9.87071e-10
1.17636e-09
1.17636e-09
1.39378e-09
1.39378e-09
1.64229e-09
1.64229e-09
1.92501e-09
1.92501e-09
2.24521e-09
2.24521e-09
2.60634e-09
2.60634e-09
3.01198e-09
3.01198e-09
3.46589e-09
3.46589e-09
3.97197e-09
3.97197e-09
4.53428e-09
4.53428e-09
5.15701e-09
5.15701e-09
5.8445e-09
5.8445e-09
6.60124e-09
6.60124e-09
7.43186e-09
7.43186e-09
8.34115e-09
8.34115e-09
9.33403e-09
9.33403e-09
1.04156e-08
1.04156e-08
1.1591e-08
1.1591e-08
1.28658e-08
1.28658e-08
1.42454e-08
1.42454e-08
1.57356e-08
1.57356e-08
1.73424e-08
1.73424e-08
1.90719e-08
1.90719e-08
2.09304e-08
2.09304e-08
2.29246e-08
2.29246e-08
2.50612e-08
2.50612e-08
2.73475e-08
2.73475e-08
2.97907e-08
2.97907e-08
3.23986e-08
3.23986e-08
3.51793e-08
3.51793e-08
3.81411e-08
3.81411e-08
4.12928e-08
4.12928e-08
4.46436e-08
4.46436e-08
4.82033e-08
4.82033e-08
5.19819e-08
5.19819e-08
5.59901e-08
5.59901e-08
6.0239e-08
6.0239e-08
6.47406e-08
6.47406e-08
6.95072e-08
6.95072e-08
7.4552e-08
7.4552e-08
7.98887e-08
7.98887e-08
8.55321e-08
8.55321e-08
9.14976e-08
9.14976e-08
9.78015e-08
9.78015e-08
1.04461e-07
1.04461e-07
1.11495e-07
1.11495e-07
1.18921e-07
1.18921e-07
1.26762e-07
1.26762e-07
1.35038e-07
1.35038e-07
1.43773e-07
1.43773e-07
1.5299e-07
1.5299e-07
1.62716e-07
1.62716e-07
1.72979e-07
1.72979e-07
1.83806e-07
1.83806e-07
1.95229e-07
1.95229e-07
2.07281e-07
2.07281e-07
2.19995e-07
2.19995e-07
2.3341e-07
2.3341e-07
2.47564e-07
2.47564e-07
2.62498e-07
2.62498e-07
2.78257e-07
2.78257e-07
2.94886e-07
2.94886e-07
3.12437e-07
3.12437e-07
3.30961e-07
3.30961e-07
3.50515e-07
3.50515e-07
3.71158e-07
3.71158e-07
3.92953e-07
3.92953e-07
4.15969e-07
4.15969e-07
4.40276e-07
4.40276e-07
4.65952e-07
4.65952e-07
4.93077e-07
4.93077e-07
5.21738e-07
5.21738e-07
5.52028e-07
5.52028e-07
5.84045e-07
5.84045e-07
6.17893e-07
6.17893e-07
6.53686e-07
6.53686e-07
6.91542e-07
6.91542e-07
7.31589e-07
7.31589e-07
7.73965e-07
7.73965e-07
8.18814e-07
8.18814e-07
8.66294e-07
8.66294e-07
9.16572e-07
9.16572e-07
9.69827e-07
9.69827e-07
1.02625e-06
1.02625e-06
1.08605e-06
1.08605e-06
1.14945e-06
1.14945e-06
1.21668e-06
1.21668e-06
1.28801e-06
1.28801e-06
1.3637e-06
1.3637e-06
1.44405e-06
1.44405e-06
1.52939e-06
1.52939e-06
1.62006e-06
1.62006e-06
1.71643e-06
1.71643e-06
1.8189e-06
1.8189e-06
1.92792e-06
1.92792e-06
2.04395e-06
2.04395e-06
2.16751e-06
2.16751e-06
2.29916e-06
2.29916e-06
2.43949e-06
2.43949e-06
2.58918e-06
2.58918e-06
2.74894e-06
2.74894e-06
2.91955e-06
2.91955e-06
3.10186e-06
3.10186e-06
3.29683e-06
3.29683e-06
3.50547e-06
3.50547e-06
3.72892e-06
3.72892e-06
3.9684e-06
3.9684e-06
4.22529e-06
4.22529e-06
4.5011e-06
4.5011e-06
4.79747e-06
4.79747e-06
5.11626e-06
5.11626e-06
5.4595e-06
5.4595e-06
5.82946e-06
5.82946e-06
6.22866e-06
6.22866e-06
6.65991e-06
6.65991e-06
7.12635e-06
7.12635e-06
7.63151e-06
7.63151e-06
8.17933e-06
8.17933e-06
8.77427e-06
8.77427e-06
9.42134e-06
9.42134e-06
1.01262e-05
1.01262e-05
1.08953e-05
1.08953e-05
1.1736e-05
1.1736e-05
1.26566e-05
1.26566e-05
1.36666e-05
1.36666e-05
1.4777e-05
1.4777e-05
1.60003e-05
1.60003e-05
1.73511e-05
1.73511e-05
1.88461e-05
1.88461e-05
2.05048e-05
2.05048e-05
2.23498e-05
2.23498e-05
2.44077e-05
2.44077e-05
2.67094e-05
2.67094e-05
2.92911e-05
2.92911e-05
3.21959e-05
3.21959e-05
3.5474e-05
3.5474e-05
3.91853e-05
3.91853e-05
4.34004e-05
4.34004e-05
4.82031e-05
4.82031e-05
5.36925e-05
5.36925e-05
5.99862e-05
5.99862e-05
6.72232e-05
6.72232e-05
7.55673e-05
7.55673e-05
8.52106e-05
8.52106e-05
9.63768e-05
9.63768e-05
0.000109325
0.000109325
0.000124349
0.000124349
0.000141784
0.000141784
0.000161996
0.000161996
0.000185389
0.000185388
0.000212385
0.000212385
0.000243425
0.000243425
0.000278948
0.000278947
0.000319377
0.000319376
0.000365101
0.000365101
0.00041646
0.00041646
0.000473723
0.000473723
0.000537077
0.000537076
0.000606614
0.000606614
0.000682328
0.000682328
0.000764106
0.000764106
0.000851736
0.000851736
0.000944906
0.000944906
0.00104322
0.00104322
0.00114619
0.00114619
0.00125328
0.00125328
0.0013639
0.0013639
0.00147741
0.00147741
0.00159317
0.00159317
0.00171052
0.00171052
0.0018288
0.0018288
0.00194738
0.00194738
0.00206565
0.00206565
0.00218303
0.00218303
0.002299
0.002299
0.00241306
0.00241306
0.00252479
0.00252479
0.0026338
0.0026338
0.00273976
0.00273976
0.00284239
0.00284239
0.00294147
0.00294147
0.00303681
0.00303681
0.00312829
0.00312829
0.00321581
0.00321581
0.00329932
0.00329932
0.0033788
0.0033788
0.00345426
0.00345426
0.00352575
0.00352575
0.00359333
0.00359333
0.00365708
0.00365708
0.0037171
0.0037171
0.00377351
0.00377351
0.00382644
0.00382644
0.00387601
0.00387601
0.00392237
0.00392237
0.00396566
0.00396566
0.00400603
0.00400603
0.00404362
0.00404362
0.00407858
0.00407858
0.00411105
0.00411105
0.00414118
0.00414118
0.00416911
0.00416911
0.00419496
0.00419496
0.00421887
0.00421887
0.00424096
0.00424096
0.00426135
0.00426135
0.00428015
0.00428015
0.00429748
0.00429748
0.00431343
0.00431343
0.00432811
0.00432811
0.0043416
0.0043416
0.00435399
0.00435399
0.00436536
0.00436536
0.00437579
0.00437579
0.00438535
0.00438535
0.0043941
0.0043941
0.00440212
0.00440212
0.00440945
0.00440945
0.00441615
0.00441615
0.00442227
0.00442227
0.00442786
0.00442786
0.00443296
0.00443296
0.00443762
0.00443762
0.00444186
0.00444186
0.00444572
0.00444572
0.00444924
0.00444924
0.00445244
0.00445244
0.00445535
0.00445535
0.00445799
0.00445799
0.0044604
0.0044604
0.00446258
0.00446258
0.00446456
0.00446456
0.00446636
0.00446636
0.00446799
0.00446799
0.00446947
0.00446947
0.00447081
0.00447081
0.00447202
0.00447202
0.00447312
0.00447312
0.00447411
0.00447411
0.004475
0.004475
0.00447581
0.00447581
0.00447654
0.00447654
0.0044772
0.0044772
0.0044778
0.0044778
0.00447834
0.00447834
0.00447882
0.00447882
0.00447926
0.00447926
0.00447965
0.00447965
0.00448001
0.00448001
0.00448032
0.00448032
0.00448061
0.00448061
0.00448087
0.00448087
0.0044811
0.0044811
0.00448131
0.00448131
0.00448149
0.00448149
0.00448166
0.00448166
0.00448181
0.00448181
0.00448194
0.00448194
0.00448206
0.00448206
0.00448217
0.00448217
0.00448227
0.00448227
0.00448235
0.00448235
0.00448243
0.00448243
0.0044825
0.0044825
0.00448256
0.00448256
0.00448261
0.00448261
0.00448266
0.00448266
0.00448271
0.00448271
0.00448275
0.00448275
0.00448278
0.00448278
0.00448281
0.00448281
0.00448284
0.00448284
0.00448286
0.00448286
0.00448288
0.00448288
0.0044829
0.0044829
0.00448292
0.00448292
0.00448293
0.00448293
0.00448295
0.00448295
0.00448296
0.00448296
0.00448297
0.00448297
0.00448298
0.00448298
0.00448299
0.00448299
0.00448299
0.00448299
0.004483
0.004483
0.00448301
0.00448301
0.00448301
0.00448301
0.00448302
0.00448302
0.00448302
0.00448302
0.00448302
0.00448302
0.00448303
0.00448303
0.00448303
0.00448303
0.00448303
0.00448303
0.00448303
0.00448303
0.00448304
0.00448304
0.00448304
0.00448304
0.00448304
0.00448304
0.00448304
0.00448304
0.00448304
0.00448304
0.00448305
0.00448305
0.00448305
0.00448305
0.00448305
0.00448305
0.00448305
0.00448305
0.00448305
0.00448305
0.00448306
0.00448306
0.00448306
0.00448306
0.00448306
0.00448306
0.00448306
0.00448306
0.00448306
0.00448306
0.00448307
0.00448307
0.00448307
0.00448307
0.00448307
0.00448307
0.00448307
0.00448307
0.00448308
0.00448308
0.00448308
0.00448308
0.00448308
0.00448308
0.00448308
0.00448308
0.00448309
0.00448309
0.00448309
0.00448309
0.0044831
0.0044831
0.0044831
0.0044831
0.0044831
0.0044831
0.00448311
0.00448311
0.00448311
0.00448311
0.00448312
0.00448312
0.00448312
0.00448312
0.00448313
0.00448313
0.00448313
0.00448313
0.00448314
0.00448314
0.00448314
0.00448314
0.00448315
0.00448315
0.00448316
0.00448316
0.00448317
0.00448317
0.00448317
0.00448317
0.00448318
0.00448318
0.00448319
0.00448319
0.0044832
0.0044832
0.00448321
0.00448321
0.00448321
0.00448321
0.00448322
0.00448322
0.00448323
0.00448323
0.00448324
0.00448324
0.00448326
0.00448326
0.00448327
0.00448327
0.00448328
0.00448328
0.00448329
0.00448329
0.0044833
0.0044833
0.00448332
0.00448332
0.00448333
0.00448333
0.00448335
0.00448335
0.00448336
0.00448336
0.00448338
0.00448338
0.00448339
0.00448339
0.00448341
0.00448341
0.00448343
0.00448343
0.00448345
0.00448345
0.00448346
0.00448346
0.00448348
0.00448348
0.0044835
0.0044835
0.00448352
0.00448352
0.00448355
0.00448355
0.00448357
0.00448357
0.00448359
0.00448359
0.00448362
0.00448362
0.00448364
0.00448364
0.00448367
0.00448367
0.0044837
0.0044837
0.00448372
0.00448372
0.00448375
0.00448375
0.00448378
0.00448378
0.00448381
0.00448381
0.00448385
0.00448385
0.00448388
0.00448388
0.00448391
0.00448391
0.00448395
0.00448395
0.00448399
0.00448399
0.00448402
0.00448402
0.00448406
0.00448406
0.0044841
0.0044841
0.00448415
0.00448415
0.00448419
0.00448419
0.00448424
0.00448424
0.00448428
0.00448428
0.00448433
0.00448433
0.00448438
0.00448438
0.00448443
0.00448443
0.00448448
0.00448448
0.00448454
0.00448454
0.0044846
0.0044846
0.00448465
0.00448465
0.00448471
0.00448471
0.00448478
0.00448478
0.00448484
0.00448484
0.00448491
0.00448491
0.00448498
0.00448498
0.00448505
0.00448505
0.00448512
0.00448512
0.0044852
0.0044852
0.00448527
0.00448527
0.00448535
0.00448535
0.00448544
0.00448544
0.00448552
0.00448552
0.00448561
0.00448561
0.0044857
0.0044857
0.00448579
0.00448579
0.00448589
0.00448589
0.00448599
0.00448599
0.00448609
0.00448609
0.0044862
0.0044862
0.00448631
0.00448631
0.00448642
0.00448642
0.00448654
0.00448654
0.00448666
0.00448666
0.00448678
0.00448678
0.00448691
0.00448691
0.00448704
0.00448704
0.00448717
0.00448717
0.00448731
0.00448731
0.00448745
0.00448745
0.0044876
0.0044876
0.00448775
0.00448775
0.00448791
0.00448791
0.00448807
0.00448807
0.00448823
0.00448823
0.0044884
0.0044884
0.00448858
0.00448858
0.00448876
0.00448876
0.00448895
0.00448895
0.00448914
0.00448914
0.00448933
0.00448933
0.00448954
0.00448954
0.00448974
0.00448974
0.00448996
0.00448996
0.00449018
0.00449018
0.00449041
0.00449041
0.00449064
0.00449064
0.00449088
0.00449088
0.00449113
0.00449113
0.00449138
0.00449138
0.00449164
0.00449164
0.00449191
0.00449191
0.00449218
0.00449218
0.00449247
0.00449247
0.00449276
0.00449276
0.00449306
0.00449306
0.00449336
0.00449336
0.00449368
0.00449368
0.00449401
0.00449401
0.00449434
0.00449434
0.00449468
0.00449468
0.00449503
0.00449503
0.0044954
0.0044954
0.00449577
0.00449577
0.00449615
0.00449615
0.00449654
0.00449654
0.00449694
0.00449694
0.00449735
0.00449735
0.00449778
0.00449778
0.00449821
0.00449821
0.00449865
0.00449865
0.00449911
0.00449911
0.00449958
0.00449958
0.00450006
0.00450006
0.00450055
0.00450055
0.00450106
0.00450106
0.00450158
0.00450158
0.00450211
0.00450211
0.00450265
0.00450265
0.00450321
0.00450321
0.00450378
0.00450378
0.00450436
0.00450436
0.00450496
0.00450496
0.00450558
0.00450558
0.00450621
0.00450621
0.00450685
0.00450685
0.00450751
0.00450751
0.00450818
0.00450818
0.00450887
0.00450887
0.00450957
0.00450957
0.00451029
0.00451029
0.00451103
0.00451103
0.00451178
0.00451178
0.00451255
0.00451255
0.00451333
0.00451333
0.00451413
0.00451413
0.00451495
0.00451495
0.00451579
0.00451579
0.00451664
0.00451664
0.00451751
0.00451751
0.0045184
0.0045184
0.0045193
0.0045193
0.00452022
0.00452022
0.00452116
0.00452116
0.00452212
0.00452212
0.00452309
0.00452309
0.00452408
0.00452408
0.00452509
0.00452509
0.00452612
0.00452612
0.00452716
0.00452716
0.00452822
0.00452822
0.0045293
0.0045293
0.00453039
0.00453039
0.0045315
0.0045315
0.00453263
0.00453263
0.00453377
0.00453377
0.00453493
0.00453493
0.0045361
0.0045361
0.00453729
0.00453729
0.0045385
0.0045385
0.00453971
0.00453971
0.00454094
0.00454094
0.00454219
0.00454219
0.00454344
0.00454344
0.00454471
0.00454471
0.00454599
0.00454599
0.00454727
0.00454727
0.00454857
0.00454857
0.00454988
0.00454988
0.00455119
0.00455119
0.00455251
0.00455251
0.00455383
0.00455383
0.00455516
0.00455516
0.0045565
0.0045565
0.00455783
0.00455783
0.00455917
0.00455916
0.0045605
0.0045605
0.00456183
0.00456183
0.00456316
0.00456316
0.00456448
0.00456448
0.0045658
0.0045658
0.00456711
0.00456711
0.00456841
0.00456841
0.0045697
0.0045697
0.00457097
0.00457097
0.00457223
0.00457223
0.00457347
0.00457347
0.00457469
0.00457469
0.00457589
0.00457589
0.00457707
0.00457707
0.00457822
0.00457822
0.00457934
0.00457934
0.00458043
0.00458043
0.00458149
0.00458149
0.00458252
0.00458252
0.00458351
0.00458351
0.00458446
0.00458446
0.00458537
0.00458537
0.00458623
0.00458623
0.00458705
0.00458705
0.00458782
0.00458782
0.00458853
0.00458853
0.0045892
0.0045892
0.0045898
0.0045898
0.00459035
0.00459035
0.00459084
0.00459084
0.00459127
0.00459127
0.00459163
0.00459163
0.00459192
0.00459192
0.00459215
0.00459214
0.0045923
0.0045923
0.00459238
0.00459238
0.00459238
0.00459238
0.00459231
0.00459231
0.00459217
0.00459217
0.00459194
0.00459194
0.00459163
0.00459163
0.00459125
0.00459124
0.00459078
0.00459078
0.00459023
0.00459023
0.00458959
0.00458959
0.00458888
0.00458888
0.00458808
0.00458808
0.0045872
0.0045872
0.00458625
0.00458624
0.00458521
0.00458521
0.00458409
0.00458409
0.00458291
0.0045829
0.00458164
0.00458164
0.00458031
0.00458031
0.00457891
0.00457891
0.00457745
0.00457745
0.00457593
0.00457592
0.00457435
0.00457435
0.00457272
0.00457272
0.00457105
0.00457105
0.00456934
0.00456934
0.0045676
0.0045676
0.00456583
0.00456583
0.00456405
0.00456404
0.00456225
0.00456225
0.00456045
0.00456045
0.00455866
0.00455866
0.00455689
0.00455689
0.00455514
0.00455514
0.00455342
0.00455342
0.00455175
0.00455175
0.00455014
0.00455014
0.00454859
0.00454859
0.00454712
0.00454712
0.00454574
0.00454574
0.00454446
0.00454445
0.00454328
0.00454328
0.00454222
0.00454222
0.00454129
0.00454129
0.0045405
0.0045405
0.00453985
0.00453985
0.00453936
0.00453936
0.00453903
0.00453902
0.00453886
0.00453886
0.00453886
0.00453886
0.00453903
0.00453903
0.00453936
0.00453936
0.00453986
0.00453985
0.0045405
0.0045405
0.0045413
0.0045413
0.00454223
0.00454223
0.00454329
0.00454328
0.00454446
0.00454446
0.00454575
0.00454575
0.00454713
0.00454713
0.0045486
0.0045486
0.00455015
0.00455015
0.00455176
0.00455176
0.00455343
0.00455343
0.00455515
0.00455515
0.0045569
0.0045569
0.00455867
0.00455867
0.00456046
0.00456046
0.00456226
0.00456226
0.00456406
0.00456406
0.00456584