/*--------------------------------*- C++ -*----------------------------------*\
| =========                 |                                                 |
| \\      /  F ield         | OpenFOAM: The Open Source CFD Toolbox           |
|  \\    /   O peration     | Version:  2012                                  |
|   \\  /    A nd           | Website:  www.openfoam.com                      |
|    \\/     M anipulation  |                                                 |
\*---------------------------------------------------------------------------*/
FoamFile
{
    version     2.0;
    format      ascii;
    class       volScalarField;
    location    "1000";
    object      p;
}
// * * * * * * * * * * * * * * * * * * * * * * * * * * * * * * * * * * * * * //

dimensions      [0 2 -2 0 0 0 0];


internalField   nonuniform List<scalar> 
5120
(
6.46477e-15
1.46609e-13
1.39591e-14
1.46609e-13
1.4733e-14
1.46609e-13
1.36113e-14
1.46608e-13
1.28813e-14
1.46608e-13
1.23849e-14
1.46607e-13
1.19152e-14
1.46607e-13
1.14322e-14
1.46606e-13
1.09485e-14
1.46605e-13
1.04692e-14
1.46604e-13
9.99402e-15
1.46603e-13
9.52265e-15
1.46602e-13
9.05511e-15
1.466e-13
8.59135e-15
1.46599e-13
8.13132e-15
1.46597e-13
7.6747e-15
1.46595e-13
7.22136e-15
1.46593e-13
6.7718e-15
1.46592e-13
6.32605e-15
1.4659e-13
5.88346e-15
1.46588e-13
5.44424e-15
1.46585e-13
5.00842e-15
1.46583e-13
4.57619e-15
1.46581e-13
4.14732e-15
1.46578e-13
3.72209e-15
1.46575e-13
3.30005e-15
1.46572e-13
2.8812e-15
1.46569e-13
2.46575e-15
1.46565e-13
2.05379e-15
1.46562e-13
1.64517e-15
1.46558e-13
1.2397e-15
1.46554e-13
8.37312e-16
1.4655e-13
4.38483e-16
1.46546e-13
4.30004e-17
1.46542e-13
-3.49493e-16
1.46537e-13
-7.39052e-16
1.46533e-13
-1.12559e-15
1.46529e-13
-1.50886e-15
1.46524e-13
-1.88909e-15
1.4652e-13
-2.26618e-15
1.46515e-13
-2.63977e-15
1.4651e-13
-3.01034e-15
1.46505e-13
-3.37783e-15
1.465e-13
-3.74215e-15
1.46494e-13
-4.10323e-15
1.46488e-13
-4.46142e-15
1.46482e-13
-4.81663e-15
1.46476e-13
-5.16906e-15
1.4647e-13
-5.51799e-15
1.46464e-13
-5.86373e-15
1.46457e-13
-6.20677e-15
1.4645e-13
-6.54676e-15
1.46443e-13
-6.88353e-15
1.46436e-13
-7.21739e-15
1.46429e-13
-7.54804e-15
1.46422e-13
-7.87619e-15
1.46414e-13
-8.20151e-15
1.46406e-13
-8.52371e-15
1.46398e-13
-8.84311e-15
1.46389e-13
-9.15954e-15
1.4638e-13
-9.47232e-15
1.46371e-13
-9.78228e-15
1.46362e-13
-1.00888e-14
1.46352e-13
-1.03926e-14
1.46342e-13
-1.06938e-14
1.46332e-13
-1.09923e-14
1.46322e-13
-1.12881e-14
1.46311e-13
-1.15811e-14
1.46302e-13
-1.18722e-14
1.46292e-13
-1.21614e-14
1.46283e-13
-1.24477e-14
1.46272e-13
-1.27313e-14
1.46261e-13
-1.30117e-14
1.4625e-13
-1.32896e-14
1.46239e-13
-1.35646e-14
1.46227e-13
-1.38371e-14
1.46216e-13
-1.41071e-14
1.46204e-13
-1.43742e-14
1.46192e-13
-1.46386e-14
1.4618e-13
-1.49006e-14
1.46167e-13
-1.51608e-14
1.46155e-13
-1.54182e-14
1.46143e-13
-1.56726e-14
1.46131e-13
-1.59245e-14
1.46118e-13
-1.61739e-14
1.46104e-13
-1.64208e-14
1.4609e-13
-1.66648e-14
1.46077e-13
-1.69062e-14
1.46064e-13
-1.71453e-14
1.4605e-13
-1.73823e-14
1.46035e-13
-1.76162e-14
1.46021e-13
-1.78473e-14
1.46006e-13
-1.80757e-14
1.4599e-13
-1.83016e-14
1.45974e-13
-1.85253e-14
1.45956e-13
-1.87457e-14
1.45939e-13
-1.89638e-14
1.45922e-13
-1.91802e-14
1.45904e-13
-1.93944e-14
1.45886e-13
-1.96053e-14
1.45867e-13
-1.9814e-14
1.45849e-13
-2.002e-14
1.45829e-13
-2.02237e-14
1.45809e-13
-2.04251e-14
1.45789e-13
-2.06237e-14
1.45769e-13
-2.08207e-14
1.45748e-13
-2.10148e-14
1.45727e-13
-2.12065e-14
1.45705e-13
-2.13953e-14
1.45682e-13
-2.15825e-14
1.45659e-13
-2.17676e-14
1.45636e-13
-2.19506e-14
1.45614e-13
-2.21316e-14
1.45591e-13
-2.23095e-14
1.45567e-13
-2.24853e-14
1.45543e-13
-2.26583e-14
1.45518e-13
-2.28288e-14
1.45493e-13
-2.29968e-14
1.45468e-13
-2.31632e-14
1.45442e-13
-2.33267e-14
1.45415e-13
-2.34877e-14
1.45389e-13
-2.36467e-14
1.45363e-13
-2.38032e-14
1.45336e-13
-2.39573e-14
1.45308e-13
-2.41095e-14
1.4528e-13
-2.42593e-14
1.45251e-13
-2.44063e-14
1.45222e-13
-2.45522e-14
1.45191e-13
-2.46952e-14
1.45161e-13
-2.48368e-14
1.4513e-13
-2.49756e-14
1.45098e-13
-2.51115e-14
1.45066e-13
-2.52454e-14
1.45033e-13
-2.53771e-14
1.44998e-13
-2.55064e-14
1.44964e-13
-2.56331e-14
1.44928e-13
-2.57583e-14
1.44893e-13
-2.58801e-14
1.44856e-13
-2.59999e-14
1.44818e-13
-2.61176e-14
1.4478e-13
-2.6233e-14
1.44742e-13
-2.63458e-14
1.44702e-13
-2.6457e-14
1.44662e-13
-2.65661e-14
1.44622e-13
-2.66729e-14
1.44581e-13
-2.67778e-14
1.44539e-13
-2.68806e-14
1.44496e-13
-2.69814e-14
1.44453e-13
-2.70805e-14
1.44409e-13
-2.71773e-14
1.44363e-13
-2.72725e-14
1.44318e-13
-2.73655e-14
1.44272e-13
-2.74565e-14
1.44225e-13
-2.75456e-14
1.44177e-13
-2.76325e-14
1.44129e-13
-2.77176e-14
1.44078e-13
-2.78014e-14
1.44027e-13
-2.78841e-14
1.43976e-13
-2.79647e-14
1.43924e-13
-2.80436e-14
1.43871e-13
-2.81204e-14
1.43816e-13
-2.81963e-14
1.4376e-13
-2.827e-14
1.43704e-13
-2.8343e-14
1.43647e-13
-2.84151e-14
1.43588e-13
-2.84863e-14
1.43528e-13
-2.85566e-14
1.43467e-13
-2.86264e-14
1.43403e-13
-2.86953e-14
1.43338e-13
-2.8764e-14
1.43272e-13
-2.88321e-14
1.43203e-13
-2.88998e-14
1.43131e-13
-2.89681e-14
1.43056e-13
-2.90375e-14
1.42977e-13
-2.91078e-14
1.42895e-13
-2.91791e-14
1.42809e-13
-2.92529e-14
1.42719e-13
-2.9329e-14
1.42624e-13
-2.9408e-14
1.42521e-13
-2.9491e-14
1.4241e-13
-2.95796e-14
1.42291e-13
-2.96733e-14
1.42163e-13
-2.97743e-14
1.42025e-13
-2.98835e-14
1.41873e-13
-3.00037e-14
1.41707e-13
-3.01311e-14
1.41528e-13
-3.02734e-14
1.41334e-13
-3.04332e-14
1.41121e-13
-3.06092e-14
1.40885e-13
-3.07979e-14
1.4063e-13
-3.10038e-14
1.40344e-13
-3.12313e-14
1.40037e-13
-3.14775e-14
1.39697e-13
-3.17418e-14
1.39329e-13
-3.20271e-14
1.3892e-13
-3.23415e-14
1.38476e-13
-3.26783e-14
1.38011e-13
-3.3034e-14
1.37501e-13
-3.34233e-14
1.36946e-13
-3.38291e-14
1.36338e-13
-3.42676e-14
1.35697e-13
-3.47256e-14
1.35017e-13
-3.52081e-14
1.34303e-13
-3.5721e-14
1.33565e-13
-3.6248e-14
1.32781e-13
-3.67785e-14
1.31932e-13
-3.73434e-14
1.31052e-13
-3.79154e-14
1.30143e-13
-3.85013e-14
1.29195e-13
-3.91085e-14
1.28192e-13
-3.97258e-14
1.27162e-13
-4.03614e-14
1.26097e-13
-4.1014e-14
1.25061e-13
-4.16714e-14
1.23973e-13
-4.23209e-14
1.2281e-13
-4.29825e-14
1.2163e-13
-4.36551e-14
1.20467e-13
-4.43258e-14
1.19255e-13
-4.50167e-14
1.18065e-13
-4.5727e-14
1.16865e-13
-4.64802e-14
1.15669e-13
-4.72273e-14
1.14428e-13
-4.79918e-14
1.1317e-13
-4.87359e-14
1.11883e-13
-4.94959e-14
1.10617e-13
-5.02336e-14
1.09337e-13
-5.09609e-14
1.0802e-13
-5.17023e-14
1.06703e-13
-5.24068e-14
1.05326e-13
-5.3112e-14
1.03926e-13
-5.38047e-14
1.02544e-13
-5.44976e-14
1.01167e-13
-5.51775e-14
9.98095e-14
-5.587e-14
9.8447e-14
-5.65494e-14
9.7055e-14
-5.72285e-14
9.56216e-14
-5.78944e-14
9.41859e-14
-5.85473e-14
9.28122e-14
-5.92126e-14
9.14125e-14
-5.98652e-14
9.00255e-14
-6.05177e-14
8.86895e-14
-6.11704e-14
8.73298e-14
-6.1811e-14
8.59348e-14
-6.24274e-14
8.458e-14
-6.30572e-14
8.31914e-14
-6.3688e-14
8.18562e-14
-6.43203e-14
8.05131e-14
-6.49421e-14
7.91752e-14
-6.55418e-14
7.7855e-14
-6.60958e-14
7.65167e-14
-6.6653e-14
7.51254e-14
-6.72135e-14
7.37771e-14
-6.77423e-14
7.24603e-14
-6.82755e-14
7.11867e-14
-6.88132e-14
6.99097e-14
-6.93444e-14
6.86181e-14
-6.98579e-14
6.73243e-14
-7.03659e-14
6.60517e-14
-7.08688e-14
6.48004e-14
-7.13673e-14
6.35595e-14
-7.18506e-14
6.23292e-14
-7.23082e-14
6.10988e-14
-7.27741e-14
5.98687e-14
-7.32488e-14
5.86724e-14
-7.36779e-14
5.74991e-14
-7.41061e-14
5.62728e-14
-7.45553e-14
5.50704e-14
-7.49937e-14
5.39133e-14
-7.54113e-14
5.2727e-14
-7.58195e-14
5.15228e-14
-7.62294e-14
5.0354e-14
-7.66415e-14
4.91789e-14
-7.7015e-14
4.79981e-14
-7.74126e-14
4.6812e-14
-7.78242e-14
4.56519e-14
-7.82199e-14
4.45179e-14
-7.86005e-14
4.33598e-14
-7.89766e-14
4.21883e-14
-7.93887e-14
4.11034e-14
-7.97875e-14
3.99664e-14
-8.01641e-14
3.88178e-14
-8.0529e-14
3.77357e-14
-8.08831e-14
3.66716e-14
-8.12462e-14
3.55683e-14
-8.15999e-14
3.44743e-14
-8.19543e-14
3.34278e-14
-8.23006e-14
3.23817e-14
-8.26211e-14
3.12714e-14
-8.29259e-14
3.02e-14
-8.32251e-14
2.91124e-14
-8.35284e-14
2.80457e-14
-8.38003e-14
2.70001e-14
-8.40688e-14
2.59309e-14
-8.43523e-14
2.48746e-14
-8.46338e-14
2.38226e-14
-8.49137e-14
2.28019e-14
-8.52015e-14
2.18211e-14
-8.54633e-14
2.07936e-14
-8.5717e-14
1.97721e-14
-8.59637e-14
1.87913e-14
-8.62039e-14
1.7834e-14
-8.64386e-14
1.69006e-14
-8.66517e-14
1.59076e-14
-8.68277e-14
1.49227e-14
-8.70171e-14
1.39958e-14
-8.72042e-14
1.30284e-14
-8.73896e-14
1.20866e-14
-8.75579e-14
1.11544e-14
-8.77101e-14
1.02001e-14
-8.7863e-14
9.22466e-15
-8.80172e-14
8.26031e-15
-8.81735e-14
7.32309e-15
-8.83479e-14
6.41312e-15
-8.84947e-14
5.49966e-15
-8.86303e-14
4.58327e-15
-8.87555e-14
3.71015e-15
-8.88863e-14
2.88023e-15
-8.89934e-14
2.03341e-15
-8.91075e-14
1.09599e-15
-8.92294e-14
2.02842e-16
-8.93007e-14
-6.60826e-16
-8.94105e-14
-1.50952e-15
-8.95299e-14
-2.35741e-15
-8.96309e-14
-3.20398e-15
-8.97142e-14
-4.04875e-15
-8.97952e-14
-4.89123e-15
-8.99026e-14
-5.71689e-15
-8.99531e-14
-6.5813e-15
-9.00174e-14
-7.42796e-15
-9.00823e-14
-8.27041e-15
-9.01348e-14
-9.08089e-15
-9.01622e-14
-9.85935e-15
-9.02194e-14
-1.06057e-14
-9.02534e-14
-1.14002e-14
-9.02783e-14
-1.22151e-14
-9.03215e-14
-1.29704e-14
-9.03701e-14
-1.37189e-14
-9.0386e-14
-1.44732e-14
-9.04348e-14
-1.51552e-14
-9.04911e-14
-1.58167e-14
-9.05557e-14
-1.65337e-14
-9.05913e-14
-1.72542e-14
-9.06241e-14
-1.79653e-14
-9.0655e-14
-1.86789e-14
-9.06847e-14
-1.94069e-14
-9.07016e-14
-2.01117e-14
-9.07311e-14
-2.08054e-14
-9.07738e-14
-2.15116e-14
-9.08061e-14
-2.21818e-14
-9.08052e-14
-2.28158e-14
-9.08316e-14
-2.34846e-14
-9.0862e-14
-2.41873e-14
-9.08739e-14
-2.48994e-14
-9.09145e-14
-2.55739e-14
-9.09614e-14
-2.62338e-14
-9.10037e-14
-2.69017e-14
-9.1031e-14
-2.75541e-14
-9.10555e-14
-2.81795e-14
-9.1078e-14
-2.88e-14
-9.10995e-14
-2.94374e-14
-9.11207e-14
-3.00909e-14
-9.11315e-14
-3.06721e-14
-9.11328e-14
-3.12901e-14
-9.11687e-14
-3.19008e-14
-9.11966e-14
-3.24609e-14
-9.11962e-14
-3.30554e-14
-9.11899e-14
-3.36728e-14
-9.1189e-14
-3.42808e-14
-9.11838e-14
-3.49102e-14
-9.1175e-14
-3.55087e-14
-9.11942e-14
-3.60248e-14
-9.12216e-14
-3.65405e-14
-9.12074e-14
-3.71261e-14
-9.11728e-14
-3.77198e-14
-9.1129e-14
-3.83111e-14
-9.10866e-14
-3.88697e-14
-9.10562e-14
-3.94352e-14
-9.1009e-14
-3.9997e-14
-9.09556e-14
-4.05645e-14
-9.08776e-14
-4.11084e-14
-9.08333e-14
-4.16191e-14
-9.07945e-14
-4.21344e-14
-9.07525e-14
-4.2682e-14
-9.06892e-14
-4.31956e-14
-9.06057e-14
-4.36846e-14
-9.05306e-14
-4.41673e-14
-9.04644e-14
-4.46524e-14
-9.04078e-14
-4.51031e-14
-9.03432e-14
-4.55735e-14
-9.02715e-14
-4.60808e-14
-9.02379e-14
-4.65263e-14
-9.01897e-14
-4.70161e-14
-9.01189e-14
-4.75667e-14
-9.00527e-14
-4.80637e-14
-9.0026e-14
-4.85249e-14
-8.99362e-14
-4.90017e-14
-8.987e-14
-4.94936e-14
-8.97598e-14
-4.99829e-14
-8.9691e-14
-5.04191e-14
-8.96301e-14
-5.09026e-14
-8.95612e-14
-5.14157e-14
-8.94683e-14
-5.19577e-14
-8.93851e-14
-5.24792e-14
-8.92955e-14
-5.30125e-14
-8.92163e-14
-5.34931e-14
-8.91477e-14
-5.39214e-14
-8.90903e-14
-5.43771e-14
-8.90129e-14
-5.48753e-14
-8.89475e-14
-5.5337e-14
-8.88944e-14
-5.5778e-14
-8.88541e-14
-5.62137e-14
-8.88268e-14
-5.66441e-14
-8.8813e-14
-5.70991e-14
-8.87377e-14
-5.75782e-14
-8.86919e-14
-5.80061e-14
-8.86462e-14
-5.84875e-14
-8.86008e-14
-5.8918e-14
-8.85562e-14
-5.93128e-14
-8.85275e-14
-5.97014e-14
-8.85007e-14
-6.0127e-14
-8.84762e-14
-6.05457e-14
-8.84545e-14
-6.09575e-14
-8.8436e-14
-6.13482e-14
-8.8393e-14
-6.17739e-14
-8.83543e-14
-6.22062e-14
-8.8334e-14
-6.26171e-14
-8.83185e-14
-6.30481e-14
-8.82671e-14
-6.34442e-14
-8.82079e-14
-6.38194e-14
-8.81681e-14
-6.42009e-14
-8.81346e-14
-6.46018e-14
-8.81207e-14
-6.49953e-14
-8.81135e-14
-6.5355e-14
-8.80739e-14
-6.57599e-14
-8.80677e-14
-6.61182e-14
-8.80561e-14
-6.64305e-14
-8.80525e-14
-6.67869e-14
-8.80445e-14
-6.7123e-14
-8.80579e-14
-6.74262e-14
-8.80426e-14
-6.77844e-14
-8.80244e-14
-6.8147e-14
-8.80159e-14
-6.84768e-14
-8.80296e-14
-6.87739e-14
-8.80169e-14
-6.90753e-14
-8.80149e-14
-6.94048e-14
-8.80119e-14
-6.97259e-14
-8.802e-14
-7.00386e-14
-8.80041e-14
-7.03192e-14
-8.80119e-14
-7.05915e-14
-8.80669e-14
-7.08906e-14
-8.8053e-14
-7.1181e-14
-8.80982e-14
-7.14741e-14
-8.81449e-14
-7.17355e-14
-8.81937e-14
-7.19652e-14
-8.82677e-14
-7.22197e-14
-8.83562e-14
-7.24644e-14
-8.84485e-14
-7.27547e-14
-8.85342e-14
-7.29791e-14
-8.86362e-14
-7.31819e-14
-8.87443e-14
-7.3406e-14
-8.88701e-14
-7.36291e-14
-8.90037e-14
-7.37858e-14
-8.91248e-14
-7.39827e-14
-8.92136e-14
-7.42396e-14
-8.93028e-14
-7.44708e-14
-8.9435e-14
-7.46865e-14
-8.95692e-14
-7.48445e-14
-8.96964e-14
-7.4996e-14
-8.98487e-14
-7.51501e-14
-8.99865e-14
-7.53563e-14
-9.01012e-14
-7.55423e-14
-9.01943e-14
-7.57176e-14
-9.02571e-14
-7.58912e-14
-9.03208e-14
-7.60921e-14
-9.0347e-14
-7.6329e-14
-9.03172e-14
-7.66012e-14
-9.02613e-14
-7.68404e-14
-9.02182e-14
-7.70664e-14
-9.01495e-14
-7.73653e-14
-9.01028e-14
-7.76512e-14
-9.00491e-14
-7.79247e-14
-8.99976e-14
-7.82053e-14
-8.99758e-14
-7.84746e-14
-8.99185e-14
-7.87424e-14
-8.98534e-14
-7.90275e-14
-8.9807e-14
-7.93484e-14
-8.97605e-14
-7.96062e-14
-8.97492e-14
-7.98292e-14
-8.9737e-14
-8.00893e-14
-8.97058e-14
-8.03599e-14
-8.97259e-14
-8.0571e-14
-8.97441e-14
-8.07582e-14
-8.97781e-14
-8.09912e-14
-8.98104e-14
-8.12522e-14
-8.9841e-14
-8.15238e-14
-8.99037e-14
-8.17555e-14
-8.99475e-14
-8.20151e-14
-8.99558e-14
-8.22356e-14
-9.00285e-14
-8.24344e-14
-9.00988e-14
-8.26613e-14
-9.01504e-14
-8.28996e-14
-9.02161e-14
-8.31493e-14
-9.02791e-14
-8.33945e-14
-9.03554e-14
-8.36194e-14
-9.04449e-14
-8.38086e-14
-9.04841e-14
-8.40258e-14
-9.05522e-14
-8.42709e-14
-9.0633e-14
-8.45126e-14
-9.0695e-14
-8.47202e-14
-9.07382e-14
-8.4987e-14
-9.08235e-14
-8.51751e-14
-9.09202e-14
-8.53614e-14
-9.10281e-14
-8.56217e-14
-9.11019e-14
-8.58199e-14
-9.12016e-14
-8.60019e-14
-9.12976e-14
-8.61528e-14
-9.14049e-14
-8.63019e-14
-9.14948e-14
-8.64341e-14
-9.15971e-14
-8.6636e-14
-9.17261e-14
-8.68344e-14
-9.18389e-14
-8.70434e-14
-9.19359e-14
-8.72485e-14
-9.20598e-14
-8.73931e-14
-9.21828e-14
-8.75335e-14
-9.23197e-14
-8.7683e-14
-9.24293e-14
-8.78823e-14
-9.25397e-14
-8.80757e-14
-9.26374e-14
-8.82354e-14
-9.27501e-14
-8.83617e-14
-9.28379e-14
-8.85082e-14
-9.29418e-14
-8.87146e-14
-9.30349e-14
-8.88869e-14
-9.31441e-14
-8.90124e-14
-9.32435e-14
-8.9157e-14
-9.33336e-14
-8.93723e-14
-9.33884e-14
-8.95671e-14
-9.34591e-14
-8.97168e-14
-9.352e-14
-8.98093e-14
-9.35843e-14
-8.99849e-14
-9.36516e-14
-9.01544e-14
-9.37216e-14
-9.02931e-14
-9.37941e-14
-9.04388e-14
-9.38442e-14
-9.06288e-14
-9.38959e-14
-9.08391e-14
-9.39359e-14
-9.09971e-14
-9.40123e-14
-9.11285e-14
-9.40764e-14
-9.12575e-14
-9.41644e-14
-9.13842e-14
-9.42048e-14
-9.14965e-14
-9.42691e-14
-9.1642e-14
-9.43564e-14
-9.17856e-14
-9.44197e-14
-9.19038e-14
-9.44708e-14
-9.20551e-14
-9.45441e-14
-9.22052e-14
-9.45928e-14
-9.23434e-14
-9.46623e-14
-9.24364e-14
-9.47296e-14
-9.25636e-14
-9.48058e-14
-9.27251e-14
-9.49014e-14
-9.28985e-14
-9.49713e-14
-9.30396e-14
-9.50373e-14
-9.31384e-14
-9.51103e-14
-9.32396e-14
-9.51903e-14
-9.33866e-14
-9.52441e-14
-9.35467e-14
-9.53356e-14
-9.36342e-14
-9.54223e-14
-9.37136e-14
-9.55049e-14
-9.38697e-14
-9.55831e-14
-9.40283e-14
-9.56772e-14
-9.41481e-14
-9.5756e-14
-9.42918e-14
-9.58294e-14
-9.43972e-14
-9.59079e-14
-9.44958e-14
-9.59916e-14
-9.45874e-14
-9.60704e-14
-9.4692e-14
-9.61546e-14
-9.48498e-14
-9.62335e-14
-9.50212e-14
-9.63158e-14
-9.51175e-14
-9.63818e-14
-9.52188e-14
-9.64512e-14
-9.53256e-14
-9.65332e-14
-9.54579e-14
-9.6598e-14
-9.55774e-14
-9.66643e-14
-9.56946e-14
-9.67027e-14
-9.58004e-14
-9.67221e-14
-9.59344e-14
-9.67205e-14
-9.60317e-14
-9.67623e-14
-9.61038e-14
-9.679e-14
-9.62264e-14
-9.68769e-14
-9.6307e-14
-9.69112e-14
-9.64013e-14
-9.69662e-14
-9.6492e-14
-9.70226e-14
-9.65613e-14
-9.70806e-14
-9.66277e-14
-9.71217e-14
-9.67099e-14
-9.71813e-14
-9.67728e-14
-9.72591e-14
-9.68169e-14
-9.73023e-14
-9.68591e-14
-9.73465e-14
-9.68987e-14
-9.73917e-14
-9.69709e-14
-9.74371e-14
-9.70237e-14
-9.74654e-14
-9.71094e-14
-9.74932e-14
-9.71941e-14
-9.75361e-14
-9.71768e-14
-9.7561e-14
-9.72097e-14
-9.75853e-14
-9.72917e-14
-9.76076e-14
-9.73732e-14
-9.76265e-14
-9.7439e-14
-9.76405e-14
-9.74743e-14
-9.76658e-14
-9.75457e-14
-9.77007e-14
-9.75885e-14
-9.77289e-14
-9.76033e-14
-9.77501e-14
-9.76221e-14
-9.78122e-14
-9.76603e-14
-9.78361e-14
-9.76687e-14
-9.78544e-14
-9.77261e-14
-9.78818e-14
-9.77855e-14
-9.78702e-14
-9.77852e-14
-9.78818e-14
-9.78041e-14
-9.79005e-14
-9.78571e-14
-9.7925e-14
-9.78532e-14
-9.79557e-14
-9.78382e-14
-9.79947e-14
-9.78409e-14
-9.8043e-14
-9.78598e-14
-9.80419e-14
-9.79234e-14
-9.80345e-14
-9.79135e-14
-9.80353e-14
-9.79345e-14
-9.80725e-14
-9.79417e-14
-9.80883e-14
-9.79483e-14
-9.80981e-14
-9.79388e-14
-9.81021e-14
-9.79556e-14
-9.81286e-14
-9.79405e-14
-9.81504e-14
-9.7949e-14
-9.81819e-14
-9.79941e-14
-9.82084e-14
-9.80764e-14
-9.82559e-14
-9.81274e-14
-9.82686e-14
-9.81472e-14
-9.82892e-14
-9.82197e-14
-9.83296e-14
-9.82499e-14
-9.83627e-14
-9.82652e-14
-9.83755e-14
-9.83326e-14
-9.83924e-14
-9.84409e-14
1.00897e-13
1.08575e-13
1.00897e-13
1.08575e-13
1.00897e-13
1.08575e-13
1.00897e-13
1.08575e-13
1.00897e-13
1.08575e-13
1.00897e-13
1.08575e-13
1.00897e-13
1.08574e-13
1.00896e-13
1.08574e-13
1.00896e-13
1.08574e-13
1.00896e-13
1.08573e-13
1.00895e-13
1.08573e-13
1.00895e-13
1.08572e-13
1.00894e-13
1.08572e-13
1.00894e-13
1.08571e-13
1.00894e-13
1.0857e-13
1.00893e-13
1.08569e-13
1.00893e-13
1.08568e-13
1.00892e-13
1.08567e-13
1.00892e-13
1.08567e-13
1.00891e-13
1.08566e-13
1.0089e-13
1.08565e-13
1.0089e-13
1.08564e-13
1.00888e-13
1.08564e-13
1.00887e-13
1.08563e-13
1.00886e-13
1.08563e-13
1.00885e-13
1.08563e-13
1.00883e-13
1.08562e-13
1.00882e-13
1.08562e-13
1.0088e-13
1.08561e-13
1.00879e-13
1.08561e-13
1.00878e-13
1.0856e-13
1.00877e-13
1.08559e-13
1.00875e-13
1.08558e-13
1.00874e-13
1.08557e-13
1.00872e-13
1.08556e-13
1.0087e-13
1.08555e-13
1.00868e-13
1.08554e-13
1.00867e-13
1.08553e-13
1.00866e-13
1.08552e-13
1.00865e-13
1.08551e-13
1.00863e-13
1.08549e-13
1.00861e-13
1.08548e-13
1.00859e-13
1.08546e-13
1.00857e-13
1.08544e-13
1.00855e-13
1.08543e-13
1.00853e-13
1.08541e-13
1.0085e-13
1.0854e-13
1.00847e-13
1.08539e-13
1.00844e-13
1.08538e-13
1.0084e-13
1.08537e-13
1.00837e-13
1.08536e-13
1.00832e-13
1.08535e-13
1.00827e-13
1.08535e-13
1.00823e-13
1.08534e-13
1.00818e-13
1.08534e-13
1.00813e-13
1.08533e-13
1.00807e-13
1.08532e-13
1.00801e-13
1.08531e-13
1.00795e-13
1.0853e-13
1.00789e-13
1.08529e-13
1.00783e-13
1.08528e-13
1.00777e-13
1.08526e-13
1.00771e-13
1.08525e-13
1.00766e-13
1.08523e-13
1.0076e-13
1.08521e-13
1.00754e-13
1.08519e-13
1.00747e-13
1.08517e-13
1.0074e-13
1.08516e-13
1.00734e-13
1.08514e-13
1.00728e-13
1.08511e-13
1.00722e-13
1.08508e-13
1.00716e-13
1.08504e-13
1.00709e-13
1.08501e-13
1.00702e-13
1.08498e-13
1.00696e-13
1.08495e-13
1.00689e-13
1.08493e-13
1.00682e-13
1.0849e-13
1.00674e-13
1.08487e-13
1.00666e-13
1.08485e-13
1.00657e-13
1.08483e-13
1.00648e-13
1.08482e-13
1.00639e-13
1.0848e-13
1.00628e-13
1.08479e-13
1.00617e-13
1.08479e-13
1.00606e-13
1.08478e-13
1.00595e-13
1.08477e-13
1.00583e-13
1.08476e-13
1.0057e-13
1.08475e-13
1.00557e-13
1.08474e-13
1.00544e-13
1.08474e-13
1.00531e-13
1.08473e-13
1.00518e-13
1.08472e-13
1.00504e-13
1.08471e-13
1.00491e-13
1.08469e-13
1.00478e-13
1.08466e-13
1.00465e-13
1.08464e-13
1.00451e-13
1.08461e-13
1.00437e-13
1.08458e-13
1.00424e-13
1.08455e-13
1.00411e-13
1.08451e-13
1.00398e-13
1.08446e-13
1.00384e-13
1.08441e-13
1.0037e-13
1.08436e-13
1.00356e-13
1.08431e-13
1.00342e-13
1.08425e-13
1.00327e-13
1.08419e-13
1.00314e-13
1.08413e-13
1.003e-13
1.08407e-13
1.00285e-13
1.084e-13
1.0027e-13
1.08393e-13
1.00255e-13
1.08386e-13
1.00238e-13
1.0838e-13
1.00222e-13
1.08375e-13
1.00204e-13
1.08369e-13
1.00186e-13
1.08363e-13
1.00167e-13
1.08358e-13
1.00147e-13
1.08353e-13
1.00125e-13
1.08349e-13
1.00103e-13
1.08345e-13
1.0008e-13
1.08341e-13
1.00057e-13
1.08337e-13
1.00033e-13
1.08333e-13
1.0001e-13
1.08329e-13
9.99856e-14
1.08326e-13
9.99611e-14
1.08322e-13
9.99366e-14
1.08317e-13
9.99122e-14
1.08311e-13
9.98879e-14
1.08305e-13
9.98623e-14
1.08299e-13
9.98374e-14
1.08292e-13
9.98128e-14
1.08285e-13
9.9788e-14
1.08278e-13
9.97628e-14
1.0827e-13
9.97377e-14
1.0826e-13
9.97125e-14
1.0825e-13
9.96874e-14
1.08239e-13
9.96621e-14
1.08229e-13
9.96367e-14
1.08218e-13
9.9611e-14
1.08207e-13
9.95853e-14
1.08195e-13
9.95597e-14
1.08182e-13
9.95345e-14
1.08168e-13
9.95088e-14
1.08155e-13
9.94821e-14
1.0814e-13
9.94556e-14
1.08124e-13
9.94284e-14
1.08109e-13
9.94011e-14
1.08093e-13
9.93741e-14
1.08077e-13
9.93463e-14
1.08059e-13
9.93182e-14
1.0804e-13
9.92892e-14
1.08022e-13
9.92606e-14
1.08003e-13
9.92324e-14
1.07984e-13
9.92031e-14
1.07963e-13
9.91739e-14
1.07941e-13
9.91443e-14
1.07919e-13
9.91139e-14
1.07897e-13
9.90828e-14
1.07874e-13
9.90504e-14
1.0785e-13
9.90172e-14
1.07825e-13
9.89847e-14
1.07799e-13
9.89514e-14
1.07773e-13
9.89167e-14
1.07745e-13
9.88817e-14
1.07715e-13
9.88461e-14
1.07686e-13
9.88088e-14
1.07655e-13
9.87708e-14
1.07622e-13
9.87314e-14
1.07587e-13
9.86911e-14
1.07551e-13
9.86485e-14
1.07513e-13
9.86055e-14
1.07474e-13
9.85588e-14
1.07433e-13
9.85097e-14
1.07389e-13
9.84587e-14
1.07342e-13
9.84041e-14
1.07292e-13
9.83467e-14
1.0724e-13
9.82867e-14
1.07184e-13
9.82218e-14
1.07122e-13
9.81525e-14
1.07056e-13
9.80784e-14
1.06984e-13
9.79981e-14
1.06905e-13
9.79074e-14
1.06819e-13
9.78077e-14
1.06725e-13
9.77023e-14
1.0662e-13
9.75847e-14
1.06505e-13
9.74532e-14
1.06378e-13
9.73062e-14
1.06241e-13
9.71414e-14
1.06084e-13
9.69609e-14
1.05911e-13
9.67529e-14
1.05726e-13
9.65259e-14
1.05521e-13
9.62768e-14
1.05292e-13
9.60053e-14
1.05031e-13
9.57045e-14
1.04755e-13
9.5374e-14
1.0446e-13
9.50204e-14
1.04122e-13
9.46316e-14
1.03747e-13
9.42156e-14
1.03356e-13
9.37667e-14
1.02943e-13
9.32867e-14
1.02488e-13
9.27785e-14
1.01995e-13
9.22156e-14
1.01503e-13
9.16235e-14
1.00968e-13
9.10028e-14
1.00395e-13
9.03386e-14
9.98072e-14
8.96468e-14
9.91905e-14
8.89284e-14
9.85542e-14
8.81847e-14
9.7882e-14
8.7417e-14
9.71928e-14
8.66172e-14
9.64882e-14
8.57861e-14
9.57601e-14
8.49246e-14
9.49997e-14
8.40338e-14
9.41866e-14
8.31255e-14
9.33848e-14
8.22014e-14
9.25863e-14
8.12741e-14
9.1715e-14
8.03344e-14
9.0827e-14
7.93491e-14
8.99815e-14
7.83539e-14
8.91111e-14
7.73383e-14
8.82166e-14
7.63035e-14
8.73353e-14
7.52629e-14
8.64443e-14
7.41932e-14
8.55325e-14
7.31201e-14
8.46131e-14
7.20198e-14
8.36997e-14
7.09058e-14
8.27808e-14
6.97917e-14
8.18825e-14
6.86786e-14
8.09426e-14
6.75801e-14
7.99871e-14
6.64845e-14
7.89658e-14
6.53926e-14
7.79812e-14
6.4318e-14
7.70085e-14
6.32488e-14
7.59975e-14
6.21599e-14
7.49742e-14
6.1065e-14
7.39393e-14
5.99645e-14
7.28805e-14
5.89099e-14
7.18113e-14
5.78508e-14
7.07448e-14
5.68004e-14
6.97067e-14
5.57591e-14
6.86343e-14
5.47022e-14
6.75281e-14
5.36927e-14
6.64765e-14
5.26685e-14
6.54419e-14
5.16424e-14
6.43624e-14
5.06024e-14
6.33253e-14
4.95613e-14
6.23181e-14
4.85439e-14
6.12551e-14
4.75138e-14
6.02103e-14
4.65198e-14
5.91836e-14
4.55257e-14
5.81631e-14
4.45438e-14
5.71249e-14
4.35147e-14
5.61289e-14
4.24865e-14
5.51512e-14
4.14595e-14
5.42035e-14
4.04455e-14
5.32156e-14
3.94215e-14
5.22694e-14
3.84223e-14
5.12952e-14
3.74135e-14
5.03167e-14
3.64068e-14
4.93681e-14
3.54023e-14
4.84152e-14
3.43891e-14
4.75145e-14
3.33673e-14
4.6632e-14
3.23817e-14
4.57121e-14
3.13879e-14
4.47775e-14
3.03971e-14
4.38504e-14
2.94203e-14
4.29526e-14
2.84574e-14
4.20407e-14
2.74872e-14
4.11256e-14
2.6531e-14
4.0229e-14
2.55571e-14
3.93083e-14
2.45975e-14
3.84166e-14
2.36417e-14
3.75431e-14
2.27001e-14
3.66567e-14
2.17727e-14
3.5768e-14
2.08901e-14
3.48466e-14
2.00011e-14
3.39638e-14
1.9106e-14
3.30691e-14
1.8215e-14
3.21927e-14
1.73581e-14
3.12947e-14
1.65053e-14
3.03953e-14
1.56666e-14
2.95045e-14
1.48225e-14
2.86707e-14
1.39925e-14
2.78354e-14
1.31862e-14
2.69509e-14
1.23939e-14
2.60275e-14
1.15968e-14
2.51508e-14
1.07951e-14
2.42828e-14
9.98908e-15
2.34048e-14
9.20666e-15
2.25263e-14
8.43854e-15
2.16474e-14
7.69383e-15
2.07591e-14
6.91815e-15
1.99159e-14
6.15701e-15
1.90635e-14
5.42822e-15
1.82108e-14
4.69613e-15
1.73493e-14
3.96978e-15
1.65406e-14
3.24057e-15
1.5758e-14
2.45676e-15
1.49837e-14
1.68809e-15
1.41835e-14
9.34518e-16
1.3375e-14
1.96015e-16
1.25413e-14
-5.10602e-16
1.17336e-14
-1.16887e-15
1.0918e-14
-1.84562e-15
1.01114e-14
-2.55686e-15
9.29719e-15
-3.23646e-15
8.49204e-15
-3.9009e-15
7.69587e-15
-4.56629e-15
6.90865e-15
-5.21641e-15
6.09832e-15
-5.85124e-15
5.29709e-15
-6.53388e-15
4.53646e-15
-7.21644e-15
3.73765e-15
-7.88317e-15
2.94796e-15
-8.56493e-15
2.19822e-15
-9.20001e-15
1.42668e-15
-9.88015e-15
6.64163e-16
-1.05592e-14
-8.93478e-17
-1.12219e-14
-8.33882e-16
-1.18833e-14
-1.59926e-15
-1.25283e-14
-2.35548e-15
-1.31863e-14
-3.07323e-15
-1.38569e-14
-3.78207e-15
-1.45399e-14
-4.49648e-15
-1.52203e-14
-5.18751e-15
-1.5884e-14
-5.85533e-15
-1.65308e-14
-6.54263e-15
-1.71891e-14
-7.2771e-15
-1.78444e-14
-8.00211e-15
-1.84828e-14
-8.7038e-15
-1.91456e-14
-9.39614e-15
-1.97639e-14
-1.00928e-14
-2.04061e-14
-1.07664e-14
-2.10447e-14
-1.14441e-14
-2.16795e-14
-1.21257e-14
-2.23371e-14
-1.27712e-14
-2.29773e-14
-1.34337e-14
-2.36134e-14
-1.41127e-14
-2.42582e-14
-1.47949e-14
-2.48598e-14
-1.54414e-14
-2.54444e-14
-1.6091e-14
-2.60755e-14
-1.67309e-14
-2.67018e-14
-1.73609e-14
-2.72982e-14
-1.79937e-14
-2.78898e-14
-1.86415e-14
-2.84888e-14
-1.93039e-14
-2.9046e-14
-1.99437e-14
-2.95982e-14
-2.05491e-14
-3.01816e-14
-2.11566e-14
-3.07236e-14
-2.17901e-14
-3.12483e-14
-2.2449e-14
-3.17677e-14
-2.31211e-14
-3.2305e-14
-2.38062e-14
-3.28248e-14
-2.44573e-14
-3.3327e-14
-2.51328e-14
-3.38346e-14
-2.57977e-14
-3.43473e-14
-2.64636e-14
-3.48534e-14
-2.71077e-14
-3.53302e-14
-2.77078e-14
-3.58225e-14
-2.83203e-14
-3.63188e-14
-2.89339e-14
-3.68188e-14
-2.95484e-14
-3.73221e-14
-3.01748e-14
-3.78285e-14
-3.07476e-14
-3.83161e-14
-3.13107e-14
-3.88172e-14
-3.19175e-14
-3.92886e-14
-3.25355e-14
-3.97729e-14
-3.31013e-14
-4.028e-14
-3.36363e-14
-4.07886e-14
-3.41722e-14
-4.1247e-14
-3.47499e-14
-4.17273e-14
-3.52459e-14
-4.22189e-14
-3.57629e-14
-4.27113e-14
-3.63106e-14
-4.32144e-14
-3.68183e-14
-4.37178e-14
-3.73161e-14
-4.42117e-14
-3.77941e-14
-4.4696e-14
-3.82818e-14
-4.51707e-14
-3.87888e-14
-4.56649e-14
-3.92272e-14
-4.61205e-14
-3.96268e-14
-4.65763e-14
-4.01023e-14
-4.70416e-14
-4.05767e-14
-4.74972e-14
-4.10309e-14
-4.79527e-14
-4.14837e-14
-4.84172e-14
-4.19256e-14
-4.88536e-14
-4.2338e-14
-4.92807e-14
-4.27761e-14
-4.96983e-14
-4.32212e-14
-5.01067e-14
-4.37089e-14
-5.05503e-14
-4.4176e-14
-5.09577e-14
-4.46491e-14
-5.1382e-14
-4.51546e-14
-5.17791e-14
-4.56744e-14
-5.21751e-14
-4.61299e-14
-5.257e-14
-4.65564e-14
-5.29465e-14
-4.70227e-14
-5.33387e-14
-4.74771e-14
-5.37125e-14
-4.79196e-14
-5.41183e-14
-4.83334e-14
-5.44723e-14
-4.88021e-14
-5.48412e-14
-4.92585e-14
-5.51917e-14
-4.967e-14
-5.55403e-14
-5.01348e-14
-5.59029e-14
-5.05872e-14
-5.62149e-14
-5.0995e-14
-5.65885e-14
-5.14068e-14
-5.69118e-14
-5.18223e-14
-5.72798e-14
-5.22413e-14
-5.76134e-14
-5.26635e-14
-5.79908e-14
-5.30423e-14
-5.83803e-14
-5.34087e-14
-5.86746e-14
-5.37933e-14
-5.89812e-14
-5.41653e-14
-5.93149e-14
-5.45247e-14
-5.96601e-14
-5.48862e-14
-6.00019e-14
-5.52795e-14
-6.03105e-14
-5.563e-14
-6.06156e-14
-5.59966e-14
-6.09317e-14
-5.63208e-14
-6.12586e-14
-5.66462e-14
-6.15816e-14
-5.70013e-14
-6.1915e-14
-5.73852e-14
-6.22444e-14
-5.77691e-14
-6.25416e-14
-5.8181e-14
-6.28626e-14
-5.85785e-14
-6.3193e-14
-5.89339e-14
-6.35189e-14
-5.92751e-14
-6.38403e-14
-5.96156e-14
-6.41572e-14
-5.99144e-14
-6.44832e-14
-6.02796e-14
-6.47914e-14
-6.0643e-14
-6.51084e-14
-6.09779e-14
-6.54474e-14
-6.13108e-14
-6.57294e-14
-6.16938e-14
-6.602e-14
-6.2035e-14
-6.63061e-14
-6.23606e-14
-6.66005e-14
-6.27219e-14
-6.69029e-14
-6.31184e-14
-6.72003e-14
-6.35114e-14
-6.75051e-14
-6.38761e-14
-6.77922e-14
-6.42375e-14
-6.80616e-14
-6.45957e-14
-6.83502e-14
-6.49629e-14
-6.86454e-14
-6.52779e-14
-6.89107e-14
-6.56139e-14
-6.91704e-14
-6.59705e-14
-6.94362e-14
-6.62639e-14
-6.96843e-14
-6.65302e-14
-6.99501e-14
-6.68167e-14
-7.02334e-14
-6.71111e-14
-7.05106e-14
-6.74247e-14
-7.07933e-14
-6.77456e-14
-7.10927e-14
-6.8039e-14
-7.13631e-14
-6.83278e-14
-7.16501e-14
-6.86233e-14
-7.1942e-14
-6.89362e-14
-7.22166e-14
-6.92329e-14
-7.24849e-14
-6.95243e-14
-7.27688e-14
-6.98104e-14
-7.30463e-14
-7.01128e-14
-7.33173e-14
-7.0388e-14
-7.35925e-14
-7.0679e-14
-7.38716e-14
-7.10177e-14
-7.41438e-14
-7.13716e-14
-7.44089e-14
-7.16985e-14
-7.46666e-14
-7.20303e-14
-7.4927e-14
-7.23359e-14
-7.52002e-14
-7.2626e-14
-7.54652e-14
-7.29111e-14
-7.57018e-14
-7.31913e-14
-7.59401e-14
-7.34666e-14
-7.621e-14
-7.37071e-14
-7.64612e-14
-7.39428e-14
-7.66646e-14
-7.42033e-14
-7.68694e-14
-7.44783e-14
-7.70754e-14
-7.47288e-14
-7.72922e-14
-7.49742e-14
-7.75003e-14
-7.52531e-14
-7.77e-14
-7.55172e-14
-7.7929e-14
-7.57477e-14
-7.81306e-14
-7.59447e-14
-7.83523e-14
-7.62017e-14
-7.8566e-14
-7.64712e-14
-7.87809e-14
-7.67161e-14
-7.90245e-14
-7.69824e-14
-7.92241e-14
-7.72513e-14
-7.94343e-14
-7.74684e-14
-7.96193e-14
-7.77058e-14
-7.9806e-14
-7.79812e-14
-8.0012e-14
-7.82587e-14
-8.02016e-14
-7.85207e-14
-8.03748e-14
-7.87677e-14
-8.05835e-14
-7.90347e-14
-8.07582e-14
-7.93044e-14
-8.09332e-14
-7.95941e-14
-8.11587e-14
-7.98698e-14
-8.13665e-14
-8.01488e-14
-8.15899e-14
-8.03976e-14
-8.18289e-14
-8.06e-14
-8.2067e-14
-8.08058e-14
-8.22882e-14
-8.10636e-14
-8.25251e-14
-8.13239e-14
-8.27615e-14
-8.15217e-14
-8.29816e-14
-8.17216e-14
-8.32019e-14
-8.1955e-14
-8.34223e-14
-8.21896e-14
-8.3643e-14
-8.24411e-14
-8.3864e-14
-8.26466e-14
-8.4101e-14
-8.28528e-14
-8.4308e-14
-8.31055e-14
-8.44853e-14
-8.33427e-14
-8.47396e-14
-8.35497e-14
-8.49493e-14
-8.37716e-14
-8.51451e-14
-8.4008e-14
-8.53569e-14
-8.42438e-14
-8.55844e-14
-8.4479e-14
-8.57687e-14
-8.46844e-14
-8.5954e-14
-8.49334e-14
-8.61545e-14
-8.51825e-14
-8.63408e-14
-8.54319e-14
-8.65413e-14
-8.56534e-14
-8.67272e-14
-8.59327e-14
-8.69122e-14
-8.61424e-14
-8.71382e-14
-8.63258e-14
-8.73493e-14
-8.65247e-14
-8.75456e-14
-8.67528e-14
-8.77411e-14
-8.6996e-14
-8.7908e-14