/*--------------------------------*- C++ -*----------------------------------*\
| =========                 |                                                 |
| \\      /  F ield         | OpenFOAM: The Open Source CFD Toolbox           |
|  \\    /   O peration     | Version:  2012                                  |
|   \\  /    A nd           | Website:  www.openfoam.com                      |
|    \\/     M anipulation  |                                                 |
\*---------------------------------------------------------------------------*/
FoamFile
{
    version     2.0;
    format      ascii;
    class       volTensorField;
    location    "17000";
    object      grad(U);
}
// * * * * * * * * * * * * * * * * * * * * * * * * * * * * * * * * * * * * * //

dimensions      [0 0 -1 0 0 0 0];


internalField   nonuniform List<tensor> 
2560
(
(0 -3.48782e-23 -1.16048e-17 1547.09 0.000101209 -0.000155616 2.24047 6.50845e-08 -3.44567e-07)
(-2.9258e-16 4.12394e-18 -6.97565e-23 1547.09 3.38813e-21 -5.40146e-07 2.24047 6.94767e-08 3.26588e-07)
(0 6.99222e-19 -4.00217e-35 1545.68 -8.47351e-22 4.93974e-25 6.74991 0 -5.29396e-23)
(-1.15355e-15 0 -6.87567e-23 1545.68 3.63078e-05 -1.44758e-06 6.74991 2.94033e-07 3.63791e-07)
(-2.55926e-15 0 -6.77712e-23 1544.2 -7.67211e-05 9.40996e-05 9.26534 1.91436e-07 -3.29228e-07)
(2.27402e-15 0 1.35542e-22 1544.2 -4.86609e-05 -1.67101e-06 9.26534 1.45002e-07 2.61838e-07)
(9.10799e-16 1.67e-23 -6.67999e-23 1542.64 -4.80458e-05 8.05715e-05 9.39032 -8.93136e-08 -1.69999e-07)
(0 -1.67e-23 6.67999e-23 1542.64 -2.51186e-05 -1.33277e-06 9.39032 -7.5938e-08 1.33667e-07)
(4.41861e-15 -1.64606e-23 -4.93819e-23 1541.01 7.89985e-06 4.12413e-05 9.5166 -1.1551e-07 -8.2136e-08)
(0 1.51436e-23 3.29212e-23 1541.01 4.9369e-21 -1.12288e-06 9.5166 0 6.26788e-08)
(2.18747e-15 8.11235e-24 -1.62247e-23 1539.34 1.44063e-05 1.98058e-05 9.64443 -5.30026e-08 -4.03972e-08)
(1.74997e-14 -1.62247e-23 1.62247e-23 1539.34 1.32059e-05 -1.18755e-06 9.64443 -4.64436e-08 2.84821e-08)
(-7.13155e-15 7.99608e-24 -7.99608e-24 1537.67 7.82663e-06 1.13403e-05 9.77411 -2.98487e-08 -1.69431e-08)
(1.56476e-14 -1.59922e-23 7.99608e-24 1537.67 6.55191e-06 -1.39665e-06 9.77411 -2.34159e-08 8.69007e-09)
(-3.49861e-15 1.11035e-19 0 1536.04 1.4856e-06 8.07318e-06 9.9059 -7.60762e-09 -2.36045e-10)
(1.39944e-14 1.18222e-23 -2.80442e-24 1536.04 3.2455e-06 2.94082e-07 9.9059 -1.12901e-09 -9.41916e-10)
(4.16735e-15 1.26238e-23 -1.4566e-24 1534.48 2.53933e-06 6.89095e-06 10.0401 -6.63369e-09 -1.61953e-16)
(0 0 1.94213e-24 1534.48 -1.92933e-27 8.11205e-06 10.0401 2.58494e-26 9.30558e-17)
(0 9.12192e-20 0 1533.03 -4.23575e-22 6.67045e-06 10.1768 0 4.07204e-16)
(-8.22182e-15 1.24429e-23 -3.82858e-24 1533.03 1.60705e-06 6.24357e-06 10.1768 1.32017e-08 5.9516e-16)
(-1.36358e-14 4.15108e-23 0 1531.7 6.83474e-07 6.97593e-06 10.3163 5.70978e-09 1.00468e-15)
(8.10398e-15 5.87747e-39 0 1531.7 4.76456e-22 6.67406e-06 10.3163 1.21128e-08 1.15172e-15)
(6.22792e-15 5.80494e-23 0 1530.52 1.1878e-06 7.24034e-06 10.4587 6.85177e-09 1.6778e-15)
(0 -5.39345e-23 0 1530.52 7.6747e-07 7.39497e-06 10.4587 1.61194e-08 1.79903e-15)
(0 9.46168e-21 0 1529.49 5.1084e-07 5.21444e-06 10.6042 1.75864e-09 -1.28848e-09)
(0 -2.74973e-23 0 1529.49 2.34991e-07 7.11316e-06 10.6042 1.87313e-08 2.95972e-09)
(-7.64864e-15 -2.26582e-23 1.44551e-23 1528.61 5.26804e-07 3.49735e-06 10.7528 5.62916e-09 -9.92508e-09)
(2.28341e-14 -1.17549e-38 5.87747e-39 1528.61 7.57591e-22 -1.69058e-25 10.7528 1.90667e-08 1.65436e-24)
(1.52985e-14 1.11899e-20 0 1527.88 -5.14506e-25 3.97831e-06 10.9044 1.65436e-24 2.79402e-11)
(-1.52985e-14 4.98676e-23 0 1527.88 -4.31993e-08 1.20827e-06 10.9044 2.1213e-08 1.03908e-12)
(-9.10888e-15 -9.73441e-25 0 1527.29 3.3496e-07 4.31389e-06 11.0592 6.4889e-09 2.10123e-11)
(3.64355e-14 0 0 1527.29 7.67624e-22 4.31383e-06 11.0592 1.9891e-08 7.6422e-13)
(0 -5.1909e-23 0 1526.83 6.1512e-07 4.66704e-06 11.217 2.45607e-09 2.82933e-11)
(-3.94175e-14 5.1909e-23 0 1526.83 3.2896e-07 4.66693e-06 11.217 2.25601e-08 1.04583e-12)
(0 0 0 1526.45 0 5.03281e-06 11.3776 3.30872e-24 2.13562e-11)
(-4.24417e-14 4.7754e-23 0 1526.45 -4.01127e-07 5.0327e-06 11.3776 2.33122e-08 7.7858e-13)
(0 1.84916e-23 2.68969e-23 1526.14 4.66208e-08 5.40478e-06 11.5408 5.23566e-09 2.88131e-11)
(1.44402e-14 3.14268e-20 0 1526.14 -7.67624e-22 5.40463e-06 11.5408 2.05531e-08 1.06557e-12)
(1.21551e-14 -3.80414e-23 0 1525.84 6.01895e-07 5.7959e-06 11.7063 3.92465e-09 2.18701e-11)
(-4.86203e-14 4.97088e-23 0 1525.84 3.55809e-07 5.7958e-06 11.7063 2.27107e-08 8.03176e-13)
(0 8.46147e-21 0 1525.52 2.49899e-08 6.21113e-06 11.8738 9.65632e-11 2.93332e-11)
(0 4.89964e-23 0 1525.52 2.32821e-08 6.21099e-06 11.8738 2.41862e-08 1.09666e-12)
(-2.75727e-14 -2.10123e-41 0 1525.11 -6.05639e-25 6.63042e-06 12.0429 0 2.23232e-11)
(1.38281e-14 -2.89765e-23 0 1525.11 -9.63911e-07 6.63028e-06 12.0429 2.37901e-08 8.1428e-13)
(1.27032e-14 7.93366e-23 5.07754e-23 1524.56 5.21605e-07 7.05941e-06 12.2129 1.11554e-08 3.00138e-11)
(0 4.85006e-24 0 1524.56 -3.03091e-39 7.05925e-06 12.2129 1.74742e-08 1.08455e-12)
(0 6.86421e-20 0 1523.81 7.40431e-22 7.52183e-06 12.3834 0 2.28955e-11)
(-6.15216e-14 5.00477e-23 0 1523.81 4.4752e-07 7.52171e-06 12.3834 2.71531e-08 8.40324e-13)
(1.6216e-14 -5.46863e-23 0 1522.78 -3.82602e-07 8.00401e-06 12.5537 9.70938e-09 3.06416e-11)
(0 8.07586e-20 0 1522.78 0 8.00386e-06 12.5537 2.18473e-08 1.1414e-12)
(-8.02281e-15 0 0 1521.4 -7.83391e-38 8.48396e-06 12.723 -9.76103e-40 2.3441e-11)
(-2.61045e-14 6.9896e-23 0 1521.4 -9.16595e-07 8.4838e-06 12.723 2.31865e-08 8.51442e-13)
(5.37696e-14 7.4885e-23 0 1519.58 8.3134e-07 8.98326e-06 12.8905 8.73821e-09 3.14306e-11)
(1.43386e-13 4.16823e-24 0 1519.58 4.94602e-22 8.98309e-06 12.8905 1.50176e-08 1.12567e-12)
(-2.53615e-14 1.42241e-20 -9.4479e-23 1517.24 -6.8902e-22 9.52249e-06 13.0555 0 2.4086e-11)
(1.00541e-13 -5.90494e-23 0 1517.24 2.36515e-07 9.52236e-06 13.0555 2.94812e-08 8.63678e-13)
(1.96783e-14 -2.91015e-23 0 1514.31 -5.50674e-07 1.0079e-05 13.2168 1.14449e-08 3.21606e-11)
(-2.4998e-14 2.45686e-24 -9.31249e-23 1514.31 1.07353e-39 1.00788e-05 13.2168 1.77035e-08 1.18077e-12)
(-4.11473e-14 0 0 1510.68 -1.05879e-22 1.06361e-05 13.3736 0 2.4697e-11)
(-1.64589e-13 0 0 1510.68 -7.4454e-07 1.06359e-05 13.3736 2.39584e-08 8.79186e-13)
(-2.14807e-14 -3.32211e-23 0 1506.27 6.91408e-07 1.12169e-05 13.5246 5.63442e-09 3.30237e-11)
(-8.59226e-14 1.64764e-24 0 1506.27 3.69079e-22 1.12167e-05 13.5246 1.18725e-08 1.16733e-12)
(0 2.95481e-20 0 1500.98 -8.06157e-25 1.18412e-05 13.6689 0 2.53947e-11)
(-8.95964e-14 6.68834e-23 0 1500.98 2.8931e-07 1.18411e-05 13.6689 2.94635e-08 8.84031e-13)
(0 6.18045e-23 0 1494.74 -9.07496e-07 1.24809e-05 13.8052 8.91302e-09 3.38414e-11)
(9.33146e-14 0 0 1494.74 2.11758e-22 1.24807e-05 13.8052 1.51301e-08 1.21895e-12)
(-2.4269e-14 -1.70444e-41 0 1487.44 -4.91271e-25 1.31243e-05 13.9322 0 2.60616e-11)
(0 -1.35375e-23 0 1487.44 -3.77156e-07 1.31241e-05 13.9322 2.03662e-08 9.07659e-13)
(2.06282e-14 -5.33738e-23 0 1478.99 7.46599e-07 1.38035e-05 14.0487 6.20437e-09 3.47744e-11)
(-4.58478e-14 1.72096e-24 0 1478.99 0 1.38033e-05 14.0487 1.24008e-08 1.20837e-12)
(-2.61798e-14 5.17916e-21 0 1469.33 2.43373e-23 1.45268e-05 14.1534 0 2.68213e-11)
(-1.04719e-13 2.89349e-23 0 1469.33 -1.076e-08 1.45266e-05 14.1534 2.66735e-08 8.99066e-13)
(2.71492e-14 3.37056e-23 0 1458.35 -8.71272e-07 1.5264e-05 14.2449 6.82663e-09 3.56792e-11)
(0 1.80444e-24 0 1458.35 4.23516e-22 1.52639e-05 14.2449 1.30023e-08 1.25287e-12)
(-1.57776e-14 3.11185e-24 0 1445.97 -3.17248e-22 1.60085e-05 14.3218 0 2.7552e-11)
(4.39045e-14 -4.98338e-23 0 1445.97 -3.84858e-07 1.60083e-05 14.3218 1.73755e-08 9.2068e-13)
(-2.91123e-14 -3.27464e-23 0 1432.14 6.9211e-07 1.6792e-05 14.3828 3.89441e-09 3.66831e-11)
(-4.32753e-14 1.39471e-24 0 1432.14 2.78346e-22 1.67918e-05 14.3828 1.005e-08 1.23798e-12)
(4.2655e-14 2.73281e-20 0 1416.77 4.76456e-22 1.76266e-05 14.4266 0 2.83565e-11)
(-4.2655e-14 5.46227e-23 0 1416.77 1.41375e-07 1.76265e-05 14.4266 2.34902e-08 9.11672e-13)
(-3.11018e-14 -1.71308e-23 0 1399.81 -7.35072e-07 1.84845e-05 14.4517 6.14294e-09 3.76565e-11)
(8.23635e-14 4.89453e-24 -3.1325e-22 1399.81 1.05879e-22 1.84844e-05 14.4517 1.22788e-08 1.28666e-12)
(-4.14411e-14 0 0 1381.19 0 1.93438e-05 14.4567 0 2.91522e-11)
(1.69857e-13 -6.15108e-23 0 1381.19 -9.21205e-07 1.93436e-05 14.4567 1.49955e-08 9.25543e-13)
(3.31093e-14 -4.13111e-23 0 1360.87 1.35737e-06 2.0249e-05 14.4403 -2.57423e-09 3.87318e-11)
(-1.32437e-13 0 0 1360.87 0 2.02488e-05 14.4403 3.54272e-09 1.26696e-12)
(3.41167e-14 6.24906e-24 0 1338.8 -5.30958e-22 2.12007e-05 14.4013 0 3.00151e-11)
(0 -2.81225e-23 0 1338.8 -9.3425e-07 2.12005e-05 14.4013 2.86199e-08 9.04932e-13)
(-3.51247e-14 1.84796e-23 0 1314.96 2.35974e-07 2.21757e-05 14.3384 -1.19958e-08 3.9801e-11)
(0 5.87747e-39 0 1314.96 1.49773e-22 2.21755e-05 14.3384 4.80855e-39 1.29413e-12)
(3.61319e-14 -4.59177e-40 0 1289.31 -1.70382e-37 2.31674e-05 14.2504 3.30872e-24 3.08864e-11)
(1.44527e-13 1.36611e-23 -2.91436e-22 1289.31 -1.20306e-06 2.31672e-05 14.2504 3.06079e-08 9.01288e-13)
(3.85552e-14 1.79537e-23 2.87259e-22 1261.85 1.01953e-06 2.41933e-05 14.1361 -2.48323e-08 4.09736e-11)
(1.48546e-13 0 0 1261.85 8.47033e-22 2.41931e-05 14.1361 -1.03637e-38 1.24884e-12)
(-3.81371e-14 3.50776e-20 0 1232.56 8.47033e-22 2.53096e-05 13.9945 0 3.18045e-11)
(0 -1.32723e-23 0 1232.56 1.23675e-06 2.53095e-05 13.9945 4.17183e-08 8.76909e-13)
(-3.91317e-14 0 0 1201.45 -4.42391e-06 2.63899e-05 13.8245 -1.03061e-08 4.20823e-11)
(0 -1.52624e-23 0 1201.45 -2.35037e-06 2.63898e-05 13.8245 -4.24039e-09 1.31671e-12)
(0 1.93418e-23 5.50167e-22 1168.52 -5.2548e-07 2.73839e-05 13.6253 -1.64811e-08 3.25731e-11)
(3.69211e-14 -3.22363e-23 0 1168.52 -6.24713e-07 2.73838e-05 13.6253 -3.66899e-09 1.0384e-12)
(-7.74877e-14 1.90646e-23 0 1133.82 1.07157e-05 2.86508e-05 13.3965 -1.76865e-08 4.32809e-11)
(0 1.17549e-37 0 1133.82 1.69407e-21 2.86506e-05 13.3965 0 1.32308e-12)
(0 1.53897e-23 -5.34509e-22 1097.38 -3.38044e-21 2.98781e-05 13.1369 0 3.38733e-11)
(-2.04116e-13 6.68137e-23 0 1097.38 -1.37049e-05 2.98779e-05 13.1369 1.16935e-07 6.84789e-13)
(-1.13726e-13 9.87841e-23 0 1059.22 4.08039e-06 3.09013e-05 12.846 -1.85145e-07 4.4781e-11)
(2.42766e-13 0 0 1059.22 7.59844e-21 3.09011e-05 12.846 -9.70126e-35 1.07558e-12)
(0 1.57044e-19 0 1019.42 -2.27951e-23 3.22202e-05 12.5238 0 3.48489e-11)
(0 6.49122e-23 0 1019.42 6.86482e-06 3.22201e-05 12.5238 1.70284e-07 6.92445e-13)
(-4.48676e-14 -3.19909e-23 0 978.039 -1.34252e-05 3.3394e-05 12.1698 -1.02783e-07 4.56709e-11)
(1.7947e-13 -1.17549e-38 0 978.039 3.38813e-21 3.33939e-05 12.1698 1.32349e-23 1.47445e-12)
(9.15312e-14 3.30105e-23 0 935.141 1.34499e-05 3.45817e-05 11.7838 -4.0542e-09 3.56003e-11)
(1.83062e-13 -3.30105e-23 0 935.141 1.32214e-05 3.45815e-05 11.7838 1.96368e-09 9.4563e-13)
(0 9.41509e-24 4.97287e-22 890.823 -1.69877e-21 3.58305e-05 11.3661 0 4.74082e-11)
(6.67448e-14 -3.10805e-23 0 890.823 -1.1267e-05 3.58303e-05 11.3661 7.38599e-08 1.07775e-12)
(-4.74923e-14 0 0 845.183 3.58591e-06 3.688e-05 10.9168 -1.51069e-07 3.70042e-11)
(0 -4.4081e-37 0 845.183 6.36281e-21 3.68799e-05 10.9168 -8.50292e-39 5.85351e-13)
(-9.66328e-14 0 0 798.333 -2.54922e-21 3.80676e-05 10.4366 -1.32349e-23 4.86885e-11)
(1.93266e-13 6.03918e-23 0 798.333 2.00759e-06 3.80675e-05 10.4366 1.23077e-07 1.17667e-12)
(-4.91115e-14 0 0 750.392 -2.11319e-06 3.92357e-05 9.92596 -1.2628e-07 3.80158e-11)
(0 2.35099e-38 0 750.392 8.34589e-24 3.92355e-05 9.92596 0 6.3139e-13)
(-4.98752e-14 2.32486e-20 0 701.482 1.70656e-21 4.03453e-05 9.38573 0 5.03112e-11)
(1.99501e-13 -2.93365e-23 0 701.482 9.06494e-07 4.03452e-05 9.38573 9.60554e-08 9.64565e-13)
(1.14914e-14 -2.89161e-23 0 651.734 -9.50111e-06 4.1172e-05 8.81688 -1.15142e-07 3.90225e-11)
(-6.20968e-14 2.89161e-23 -1.85063e-21 651.734 -3.38056e-21 4.11718e-05 8.81688 1.32349e-23 6.99952e-13)
(-1.026e-13 -4.98779e-23 0 601.301 1.20658e-05 4.2011e-05 8.22091 -4.24512e-08 5.16476e-11)
(-2.052e-13 4.98779e-23 0 601.301 1.18098e-05 4.20108e-05 8.22091 -3.64491e-08 1.09104e-12)
(-1.64243e-13 0 0 550.349 -3.76097e-24 4.30818e-05 7.5994 6.61744e-24 4.04489e-11)
(4.75982e-13 -4.9163e-23 0 550.349 -1.77031e-06 4.30817e-05 7.5994 6.01995e-08 3.76676e-13)
(-1.57721e-13 -8.30715e-23 0 499.024 -1.4573e-05 4.36043e-05 6.95359 -6.76207e-08 5.29069e-11)
(-2.10294e-13 9.69167e-23 0 499.024 -1.48461e-05 4.36042e-05 6.95359 -6.16188e-08 1.32165e-12)
(-5.31487e-14 8.18808e-23 -1.74679e-21 447.495 1.71726e-05 4.41126e-05 6.28585 -1.60144e-07 4.17073e-11)
(2.12595e-13 0 0 447.495 -2.13918e-23 4.41124e-05 6.28585 -2.64698e-23 2.28276e-13)
(5.36803e-14 5.21071e-23 0 395.953 -5.0822e-21 4.45762e-05 5.5984 0 5.48949e-11)
(0 -2.69024e-23 0 395.953 -1.53223e-05 4.45761e-05 5.5984 1.9374e-07 8.90208e-13)
(-5.69445e-14 0 0 344.574 1.47936e-05 4.49352e-05 4.89342 -3.66349e-07 4.29457e-11)
(2.73611e-13 0 0 344.574 6.77626e-21 4.4935e-05 4.89342 -5.29396e-23 1.5141e-13)
(0 9.62965e-35 8.36377e-22 293.537 5.84322e-23 4.51147e-05 4.17356 5.29396e-23 5.67323e-11)
(2.18424e-13 1.82066e-23 0 293.537 -1.72316e-05 4.51145e-05 4.17356 3.9426e-07 6.35844e-13)
(-5.53239e-14 1.03049e-22 -1.64878e-21 243.03 8.92566e-06 4.49402e-05 3.44155 -3.75106e-07 4.45523e-11)
(1.64665e-13 0 -1.64878e-21 243.03 6.41999e-38 4.494e-05 3.44155 1.05879e-22 -2.93607e-13)
(1.09062e-13 1.00724e-20 0 193.246 -9.97863e-21 4.49527e-05 2.70061 0 5.84044e-11)
(-1.09062e-13 0 0 193.246 -3.61712e-09 4.49525e-05 2.70061 4.03131e-07 5.47781e-13)
(-1.1126e-13 8.44091e-23 0 144.37 -8.1099e-06 4.46217e-05 1.95343 -3.84452e-07 4.57533e-11)
(0 0 0 144.37 -1.19532e-20 4.46216e-05 1.95343 0 -3.47288e-13)
(0 3.30347e-19 0 96.5802 6.71244e-21 4.42695e-05 1.20354 0 5.98587e-11)
(2.23478e-13 -1.67696e-22 0 96.5802 9.47992e-06 4.42693e-05 1.20354 4.12456e-07 6.33126e-13)
(0 0 0 50.0651 -9.81362e-06 4.38503e-05 0.454202 -3.94329e-07 4.7022e-11)
(1.19789e-13 0 0 50.0651 1.17835e-20 4.38501e-05 0.454202 1.24899e-37 -5.15288e-13)
(2.58542e-14 1.28591e-19 0 0.0088227 -5.0822e-21 4.33258e-05 7.43374e-05 0 6.15338e-11)
(0 0 0 0.00882258 7.50428e-06 4.33255e-05 7.43364e-05 3.1389e-07 4.66931e-13)
(1.9898e-13 -3.35325e-24 0 -34.099 -1.21379e-05 4.26237e-05 0.291486 -4.04738e-07 4.84985e-11)
(-3.87245e-13 8.07531e-19 0 -34.099 0 4.26235e-05 0.291486 0 -8.89546e-13)
(1.00013e-13 4.69574e-19 0 -80.2396 -2.96898e-23 4.20141e-05 1.03026 -1.32349e-23 6.29903e-11)
(0 -4.65721e-23 0 -80.2396 1.44204e-05 4.2014e-05 1.03026 1.13024e-07 5.2149e-13)
(4.92896e-14 0 2.93789e-21 -120.086 -1.50223e-05 4.14055e-05 1.75851 -1.8201e-07 4.92919e-11)
(0 0 0 -120.086 3.41255e-21 4.14053e-05 1.75851 -2.64698e-23 -5.73676e-13)
(-1.36797e-14 -2.26233e-23 1.44789e-21 -157.922 1.38785e-05 4.08007e-05 2.473 -1.5781e-07 6.41748e-11)
(-4.85832e-14 5.16199e-19 0 -157.922 5.25632e-06 4.08004e-05 2.473 -4.69208e-08 6.85339e-13)
(-1.02993e-13 -2.64486e-37 0 -193.648 -1.98005e-21 4.02135e-05 3.17084 -5.8806e-39 5.12301e-11)
(4.78869e-14 3.34486e-23 0 -193.648 -1.49358e-05 4.02132e-05 3.17084 7.03956e-08 -1.55185e-12)
(5.4745e-14 -1.76619e-25 0 -227.174 1.08985e-05 3.95593e-05 3.84906 -4.29534e-07 6.56805e-11)
(-2.1898e-13 2.35765e-22 -2.81337e-21 -227.174 1.17882e-22 3.95591e-05 3.84906 -5.29396e-23 4.33797e-13)
(0 3.74903e-23 1.38652e-21 -258.422 -4.19767e-21 3.92254e-05 4.50483 0 5.26145e-11)
(-2.17366e-13 0 0 -258.422 -4.49964e-06 3.92253e-05 4.50483 2.76247e-07 -2.01986e-12)
(-1.45612e-13 1.13746e-23 0 -287.343 -3.4129e-06 3.86862e-05 5.13539 -4.40726e-07 6.64999e-11)
(4.3118e-13 -4.81482e-35 0 -287.343 0 3.8686e-05 5.13539 -3.0653e-35 6.64644e-13)
(5.34156e-14 2.70361e-19 0 -313.907 0 3.83392e-05 5.73879 0 5.3534e-11)
(2.13662e-13 8.41915e-23 0 -313.907 5.93099e-06 3.83391e-05 5.73879 2.19503e-07 -2.165e-12)
(0 0 0 -338.093 -1.97961e-06 3.82418e-05 6.31276 -4.15861e-07 6.71427e-11)
(0 8.22846e-37 0 -338.093 5.92923e-21 3.82416e-05 6.31276 -5.29396e-23 1.0856e-12)
(-5.23469e-14 -5.87747e-39 0 -359.908 2.50147e-23 3.80661e-05 6.85546 2.64698e-23 5.50132e-11)
(2.09388e-13 -1.43142e-22 0 -359.908 -2.45775e-06 3.80659e-05 6.85546 1.86393e-07 -2.80804e-12)
(-5.1765e-14 9.04046e-25 0 -379.381 1.81585e-06 3.79548e-05 7.3657 -4.63971e-07 6.75842e-11)
(-2.0706e-13 2.57756e-22 -2.57994e-21 -379.381 6.44391e-23 3.79545e-05 7.3657 0 1.36196e-12)
(5.11547e-14 6.18046e-23 0 -396.548 -2.99552e-21 3.79083e-05 7.84237 -2.64698e-23 5.62352e-11)
(2.04619e-13 -3.97338e-23 0 -396.548 -2.22426e-06 3.79082e-05 7.84237 2.28836e-07 -3.53513e-12)
(-5.05184e-14 6.55742e-24 0 -411.458 -5.26822e-07 3.78226e-05 8.28456 -4.75865e-07 6.78064e-11)
(2.02074e-13 -9.87415e-37 0 -411.458 7.05976e-21 3.78223e-05 8.28456 -4.72828e-38 1.76637e-12)
(-4.98588e-14 3.46771e-37 0 -424.171 -2.51076e-21 3.80323e-05 8.69164 -2.64698e-23 5.75374e-11)
(0 0 0 -424.171 5.94759e-06 3.80322e-05 8.69164 2.24816e-07 -4.33653e-12)
(-4.91784e-14 0 0 -434.764 -6.2947e-06 3.82868e-05 9.06316 -4.05502e-07 6.70751e-11)
(0 -7.52316e-37 0 -434.764 5.13761e-21 3.82865e-05 9.06316 5.29396e-23 2.75777e-12)
(3.20604e-14 4.37216e-20 0 -443.333 -1.23293e-23 3.84613e-05 9.39931 1.32349e-23 5.89078e-11)
(1.13378e-13 -9.37609e-23 0 -443.333 3.14919e-06 3.84612e-05 9.39931 9.50465e-08 -5.53193e-12)
(1.2715e-13 7.39336e-23 0 -449.976 -5.93865e-06 3.85501e-05 9.70047 -3.41335e-07 6.6513e-11)
(-7.93856e-14 1.88079e-37 0 -449.976 -8.00526e-22 3.85498e-05 9.70047 -5.29396e-23 3.62685e-12)
(3.91239e-14 2.77418e-19 0 -454.79 1.69407e-21 3.88936e-05 9.96708 -4.0233e-08 6.03241e-11)
(0 -5.46555e-23 0 -454.79 1.08665e-05 3.88935e-05 9.96708 -3.40072e-08 -6.63525e-12)
(-4.6296e-14 3.59147e-23 0 -457.883 -7.87647e-06 3.93959e-05 10.1996 -1.00011e-07 6.48563e-11)
(0 -7.18295e-23 0 -457.883 -8.31872e-06 3.93955e-05 10.1996 -9.37763e-08 5.12019e-12)
(0 1.416e-22 0 -459.377 -3.15104e-06 3.94027e-05 10.3992 -2.2284e-07 6.2276e-11)
(3.64374e-13 -4.81482e-35 0 -459.377 -2.96462e-21 3.94027e-05 10.3992 -4.61161e-35 -8.77775e-12)
(-3.74657e-14 3.48926e-23 -2.23313e-21 -459.386 1.1583e-05 3.97959e-05 10.5671 -1.73659e-07 6.22615e-11)
(1.79161e-13 -6.22218e-20 0 -459.386 9.80726e-06 3.97955e-05 10.5671 -1.13523e-07 7.50294e-12)
(-1.54814e-13 3.89889e-35 -2.20112e-21 -458.019 -1.69975e-21 4.01541e-05 10.7042 0 6.49921e-11)
(-1.02256e-13 1.28972e-22 0 -458.019 -1.22615e-05 4.01542e-05 10.7042 4.71952e-08 -1.15986e-11)
(-6.86383e-15 -1.35598e-22 2.16957e-21 -455.397 9.97026e-06 4.04065e-05 10.812 -4.64072e-07 5.93479e-11)
(-2.45852e-13 1.90598e-22 0 -455.397 5.58652e-21 4.0406e-05 10.812 0 9.75263e-12)
(0 3.90402e-23 0 -451.638 -3.31005e-21 4.09147e-05 10.8919 0 6.81518e-11)
(0 3.34137e-23 -4.27696e-21 -451.638 -4.36575e-06 4.09149e-05 10.8919 2.8759e-07 -1.53131e-11)
(0 0 0 -446.856 -4.45832e-06 4.09756e-05 10.9456 -5.43209e-07 5.50086e-11)
(1.31554e-13 2.27312e-19 -4.21566e-21 -446.856 6.6174e-21 4.09751e-05 10.9456 0 1.353e-11)
(-2.87494e-14 7.83359e-20 -4.15524e-21 -441.162 -2.5411e-21 4.11357e-05 10.9747 0 7.20772e-11)
(0 1.62314e-22 0 -441.162 7.02107e-06 4.1136e-05 10.9747 1.8287e-07 -1.95687e-11)
(0 2.5598e-22 0 -434.658 -7.61637e-07 4.15797e-05 10.9808 -4.11395e-07 4.87041e-11)
(3.21608e-13 -2.40741e-35 0 -434.658 -8.89385e-21 4.15791e-05 10.9808 5.29396e-23 1.87723e-11)
(0 1.20371e-35 0 -427.446 -8.47033e-22 4.16905e-05 10.9654 2.64698e-23 7.76118e-11)
(3.15538e-13 -6.30778e-23 0 -427.446 -5.0936e-06 4.16909e-05 10.9654 1.63964e-07 -2.60052e-11)
(-7.73775e-14 0 0 -419.625 7.4101e-06 4.18825e-05 10.9304 -5.49352e-07 4.10829e-11)
(0 0 0 -419.625 1.10114e-20 4.18818e-05 10.9304 0 2.5353e-11)
(-3.79413e-14 9.13238e-37 0 -411.287 -3.29029e-21 4.20596e-05 10.8772 5.20346e-54 8.54767e-11)
(3.03531e-13 -6.12826e-23 0 -411.287 -6.69111e-06 4.20601e-05 10.8772 3.58828e-07 -3.45963e-11)
(6.96304e-14 -2.50632e-23 0 -402.519 4.81504e-06 4.20881e-05 10.8077 -5.58552e-07 3.0524e-11)
(-3.24293e-14 4.14594e-36 0 -402.519 1.50432e-20 4.20872e-05 10.8077 -1.05879e-22 3.44234e-11)
(-3.64687e-14 -4.70198e-38 0 -393.399 1.35211e-22 4.22607e-05 10.7234 1.05879e-22 9.56956e-11)
(0 0 0 -393.399 -9.78792e-07 4.22614e-05 10.7234 4.93458e-07 -4.60263e-11)
(-3.57449e-14 3.16431e-23 0 -384.001 -2.4209e-06 4.2183e-05 10.6257 -5.55766e-07 1.66431e-11)
(1.4298e-13 -2.25695e-36 0 -384.001 -7.83909e-21 4.21818e-05 10.6257 0 4.69825e-11)
(-3.50304e-14 5.68731e-20 0 -374.395 -5.41617e-22 4.20612e-05 10.5163 0 1.09697e-10)
(1.40122e-13 0 0 -374.395 3.01137e-06 4.20622e-05 10.5163 4.31814e-07 -6.09369e-11)
(-6.86512e-14 4.76563e-23 0 -364.638 3.78953e-06 4.22474e-05 10.3965 -5.46416e-07 -2.2223e-12)
(0 0 0 -364.638 2.25951e-22 4.2246e-05 10.3965 -1.05879e-22 6.40723e-11)
(-3.36311e-14 0 0 -354.788 0 4.19848e-05 10.2674 1.05879e-22 1.28867e-10)
(0 0 0 -354.788 -1.00581e-05 4.19861e-05 10.2674 5.41051e-07 -8.15712e-11)
(2.97386e-14 0 0 -344.899 1.4042e-05 4.18671e-05 10.1306 -5.28027e-07 -2.65244e-11)
(-1.31788e-13 5.68842e-22 0 -344.899 0 4.18652e-05 10.1306 0 8.66986e-11)
(3.2274e-14 2.64015e-22 0 -335.014 -8.47033e-21 4.1626e-05 9.98718 0 1.5537e-10)
(1.29096e-13 0 0 -335.014 -1.41358e-05 4.16278e-05 9.98718 9.57516e-07 -1.09285e-10)
(3.1612e-14 -1.3737e-22 0 -325.171 1.5446e-05 4.13649e-05 9.83811 -4.9747e-07 -5.93804e-11)
(-1.26448e-13 8.22135e-22 0 -325.171 1.31415e-20 4.13626e-05 9.83811 0 1.17496e-10)
(-3.09614e-14 0 0 -315.407 -3.61885e-36 4.1161e-05 9.68446 -5.511e-38 1.90985e-10)
(1.23845e-13 2.02743e-22 0 -315.407 -1.22332e-05 4.11634e-05 9.68446 1.0718e-06 -1.46561e-10)
(-2.80699e-14 0 0 -305.753 1.1997e-05 4.0826e-05 9.5272 -4.50473e-07 -1.03245e-10)
(0 -5.17218e-36 0 -305.753 1.87324e-20 4.0823e-05 9.5272 0 1.59528e-10)
(-5.53353e-14 -4.70198e-38 -6.59648e-21 -296.235 -4.5139e-36 4.03395e-05 9.3672 2.11758e-22 2.39744e-10)
(9.11097e-14 3.53454e-22 0 -296.235 -1.17874e-05 4.03426e-05 9.3672 1.19393e-06 -1.96625e-10)
(8.36203e-14 -2.74038e-22 0 -286.876 1.33495e-05 3.98027e-05 9.20519 -3.81428e-07 -1.61959e-10)
(-5.45422e-14 0 0 -286.876 2.03288e-20 3.97988e-05 9.20519 0 2.16047e-10)
(-2.68802e-14 6.32136e-22 0 -277.693 -1.86347e-20 3.94722e-05 9.04193 0 3.05716e-10)
(-1.13893e-13 -5.20233e-22 0 -277.693 -7.118e-06 3.94764e-05 9.04193 1.3466e-06 -2.64382e-10)
(-2.6495e-14 3.94806e-22 -6.31689e-21 -268.701 6.45379e-06 3.89223e-05 8.8779 -2.82913e-07 -2.41062e-10)
(0 6.142e-36 0 -268.701 2.21289e-20 3.89172e-05 8.8779 -8.52373e-52 2.93121e-10)
(0 0 0 -259.913 0 3.83567e-05 8.71374 0 3.95439e-10)
(0 0 0 -259.913 -3.21464e-06 3.83623e-05 8.71374 1.53891e-06 -3.55582e-10)
(2.67277e-14 -3.80813e-22 0 -251.34 5.85884e-06 3.77457e-05 8.55 -1.45051e-07 -3.47783e-10)
(0 -1.29775e-35 0 -251.34 4.66927e-20 3.7739e-05 8.55 5.5522e-38 3.97522e-10)
(2.61683e-14 3.8018e-22 0 -242.988 7.60359e-22 3.69226e-05 8.38706 0 5.17542e-10)
(0 0 0 -242.988 -4.79251e-06 3.69301e-05 8.38706 1.78275e-06 -4.79545e-10)
(-5.124e-14 0 0 -234.859 5.08603e-20 3.64432e-05 8.22522 4.89603e-37 -4.92316e-10)
(1.0248e-13 -1.73448e-21 0 -234.859 2.70646e-06 3.64343e-05 8.22522 -4.69339e-08 5.40013e-10)
(-2.50827e-14 0 0 -226.956 -3.38813e-21 3.54254e-05 8.06477 4.23516e-22 6.84448e-10)
(0 0 0 -226.956 -1.62955e-05 3.54353e-05 8.06477 2.09403e-06 -6.47918e-10)
(0 -9.62965e-35 0 -219.28 3.04932e-20 3.48309e-05 7.90601 0 -6.87958e-10)
(-4.85932e-14 0 0 -219.28 1.72273e-05 3.48193e-05 7.90601 -3.07498e-07 7.33348e-10)
(-4.78968e-14 3.84005e-48 0 -211.828 2.33882e-21 3.39082e-05 7.74897 0 9.0983e-10)
(0 0 0 -211.828 -2.51549e-05 3.39212e-05 7.74897 2.4935e-06 -8.7515e-10)
(-2.36051e-14 1.41059e-36 -5.6279e-21 -204.599 4.78146e-21 3.29276e-05 7.59388 -8.47033e-22 -9.51293e-10)
(-2.36051e-14 0 0 -204.599 2.36624e-05 3.29124e-05 7.59388 -6.61073e-07 9.94578e-10)
(0 7.41152e-22 0 -197.587 -1.4823e-21 3.19609e-05 7.44083 0 1.21522e-09)
(1.84318e-13 2.59652e-21 0 -197.587 -2.19826e-05 3.19781e-05 7.44083 3.00794e-06 -1.18207e-09)
(-4.51098e-14 0 0 -190.787 6.77626e-21 3.1218e-05 7.28972 -1.69407e-21 -1.30884e-09)
(9.02196e-14 -2.75235e-21 0 -190.787 2.39226e-05 3.1198e-05 7.28972 -1.13768e-06 1.34983e-09)
(4.46847e-14 9.11718e-22 5.38937e-21 -184.195 0 2.99078e-05 7.14069 0 1.63111e-09)
(0 0 0 -184.195 -2.97017e-05 2.99306e-05 7.14069 3.673e-06 -1.59979e-09)
(0 -1.54301e-33 0 -177.807 5.61242e-20 2.88671e-05 6.99375 0 -1.7941e-09)
(-8.64608e-14 3.21576e-21 -5.31212e-21 -177.807 3.18953e-05 2.88406e-05 6.99375 -1.77774e-06 1.83306e-09)
(-2.11601e-14 -2.63311e-36 0 -171.615 -4.56417e-21 2.76171e-05 6.84885 1.69407e-21 2.19639e-09)
(6.2679e-14 2.0495e-21 0 -171.615 -3.25189e-05 2.76472e-05 6.84885 4.53607e-06 -2.16652e-09)
(0 -1.28946e-21 0 -165.615 6.09864e-20 2.67197e-05 6.70598 1.69407e-21 -2.45391e-09)
(0 0 -5.16094e-21 -165.615 3.50954e-05 2.66848e-05 6.70598 -2.63469e-06 2.49065e-09)
(2.13363e-14 9.62965e-35 0 -159.802 -2.81668e-21 2.51974e-05 6.56514 0 2.96613e-09)
(0 0 0 -159.802 -4.04272e-05 2.52373e-05 6.56514 5.6596e-06 -2.93802e-09)
(-1.98519e-14 4.36344e-35 0 -154.172 1.57781e-19 2.41599e-05 6.42638 4.42416e-37 -3.35203e-09)
(0 0 0 -154.172 4.39718e-05 2.41137e-05 6.42638 -3.77958e-06 3.38678e-09)
(2.58929e-15 -3.00927e-36 1.48266e-20 -148.719 -7.00663e-21 2.24848e-05 6.28969 1.69407e-21 4.01506e-09)
(1.34746e-13 3.63665e-21 0 -148.719 -4.86332e-05 2.25376e-05 6.28969 7.12658e-06 -3.98838e-09)
(0 -1.97457e-21 0 -143.438 8.92135e-20 2.14247e-05 6.15499 0 -4.57596e-09)
(-2.0432e-14 0 0 -143.438 5.2816e-05 2.13635e-05 6.15499 -5.30682e-06 4.60855e-09)
(-4.02783e-14 1.92593e-34 -4.80155e-21 -138.321 -9.97017e-20 1.96904e-05 6.02224 0 5.44522e-09)
(0 0 0 -138.321 -5.70154e-05 1.97605e-05 6.02224 9.04695e-06 -5.42021e-09)
(-5.47079e-14 6.92131e-35 0 -133.364 1.21524e-19 1.87331e-05 5.89137 3.38813e-21 -6.2457e-09)
(1.45888e-13 -9.00882e-21 0 -133.364 6.18776e-05 1.8652e-05 5.89137 -7.34195e-06 6.2764e-09)
(0 3.62301e-34 0 -128.559 0 1.68211e-05 5.76227 3.38813e-21 7.39858e-09)
(1.42832e-13 4.13136e-21 0 -128.559 -6.8176e-05 1.69143e-05 5.76227 1.15669e-05 -7.3749e-09)
(-3.67663e-14 0 0 -123.901 1.34449e-19 1.58332e-05 5.63486 8.39164e-37 -8.52714e-09)
(0 0 0 -123.901 7.32757e-05 1.57255e-05 5.63486 -1.00523e-05 8.55579e-09)
(1.71159e-14 3.352e-21 0 -119.383 -7.85601e-34 1.3657e-05 5.50904 3.38813e-21 1.00689e-08)
(1.36927e-13 5.76911e-21 0 -119.383 -8.06345e-05 1.3781e-05 5.50904 1.48809e-05 -1.00469e-08)
(0 0 0 -115 -1.49722e-20 1.29275e-05 5.38465 0 -1.16486e-08)
(6.70382e-14 -7.38559e-21 0 -115 8.96019e-05 1.27841e-05 5.38465 -1.36612e-05 1.16754e-08)
(1.64115e-14 8.34429e-21 9.72534e-20 -110.745 -1.73047e-19 5.06773e-06 5.26163 0 1.37252e-08)
(0 0 0 -110.745 -9.99936e-05 1.01146e-05 5.26163 1.92486e-05 -1.37045e-08)
(3.21435e-14 -1.8659e-20 0 -106.614 5.50547e-19 9.86903e-06 5.13985 0 -1.59247e-08)
(4.60836e-14 -8.40477e-21 0 -106.614 0.000109146 9.67809e-06 5.13985 -1.84668e-05 1.59495e-08)
(0 3.85186e-34 8.48481e-20 -102.603 2.08349e-20 -8.36632e-22 5.01924 6.77626e-21 3.30872e-24)
(0 0 -1.11825e-19 -102.603 -0.000118625 3.11249e-06 5.01924 2.50165e-05 -1.87169e-08)
(1.76854e-14 -5.81008e-21 0 -98.7057 1.936e-19 6.88102e-06 4.89973 6.77626e-21 -2.17902e-08)
(6.16673e-14 -9.43275e-21 0 -98.7057 0.000127686 6.62626e-06 4.89973 -2.48679e-05 2.18132e-08)
(3.0203e-14 2.59358e-20 8.90623e-20 -94.9201 -5.14996e-19 0 4.78125 0 -3.30872e-24)
(0 0 0 -94.9201 -0.00013999 4.13034e-06 4.78125 3.26477e-05 -2.55978e-08)
(1.47942e-14 -1.4459e-20 8.19305e-21 -91.2423 2.96343e-19 3.70432e-06 4.6638 -6.77626e-21 -2.98497e-08)
(5.91768e-14 -1.03748e-20 0 -91.2423 0.00015169 3.36392e-06 4.6638 -3.33989e-05 2.98707e-08)
(1.69358e-14 1.61428e-20 4.573e-21 -87.669 -5.96311e-19 4.23516e-22 4.5473 -6.77626e-21 -6.61744e-24)
(4.10435e-14 4.74692e-22 0 -87.669 -0.000165993 8.15207e-07 4.5473 4.27632e-05 -3.50579e-08)
(-1.42033e-14 0 0 -84.1974 0 4.94275e-07 4.43174 0 -4.09404e-08)
(-5.68134e-14 1.11276e-20 0 -84.1974 0.000180223 3.86461e-08 4.43174 -4.4777e-05 4.09596e-08)
(-3.03735e-14 -2.34723e-34 -1.58692e-37 -80.8254 -4.21518e-19 -2.79963e-22 4.31712 -2.78958e-36 -6.61744e-24)
(0 0 0 -80.8254 -0.000197463 -2.75196e-06 4.31712 5.61966e-05 -4.80854e-08)
(-1.36438e-14 1.88079e-36 0 -77.5514 3.79471e-19 -2.80034e-06 4.20346 -1.35525e-20 -5.62281e-08)
(-5.45752e-14 1.15282e-20 0 -77.5514 0.000214036 -3.41121e-06 4.20346 -5.99662e-05 5.62452e-08)
(1.59855e-14 7.70372e-34 1.20371e-35 -74.3755 0 -8.47033e-22 4.09085 1.35525e-20 1.32349e-23)
(-1.59855e-14 0 0 -74.3755 -0.000233462 -6.41921e-06 4.09085 7.40687e-05 -6.60558e-08)
(3.15129e-14 -1.39572e-20 0 -71.2986 5.42101e-20 -6.2046e-06 3.97944 -1.35525e-20 -7.73366e-08)
(7.34063e-14 -2.25395e-20 0 -71.2986 0.000251327 -7.02513e-06 3.97944 -8.0265e-05 7.73518e-08)
(-2.83923e-14 -6.01853e-36 2.93874e-39 -68.3233 0 0 3.86947 1.35525e-20 3.50139e-39)
(6.69772e-14 8.01836e-21 0 -68.3233 -0.000271878 -1.02206e-05 3.86947 9.789e-05 -9.08887e-08)
(-4.5924e-14 -1.73618e-20 -7.29943e-21 -65.4538 5.42101e-19 -9.44583e-06 3.76127 0 -1.06537e-07)
(-3.51547e-14 -4.7877e-21 0 -65.4538 0.000292516 -1.05501e-05 3.76127 -0.000107425 1.0655e-07)
(-3.01772e-14 6.9815e-34 6.34767e-37 -62.695 -1.27134e-18 -1.14027e-21 3.65527 -1.61412e-35 2.64698e-23)
(1.50886e-14 2.87792e-20 0 -62.695 -0.000318724 -1.42473e-05 3.65527 0.0001297 -1.25271e-07)
(-1.76001e-14 -8.09492e-34 -7.09169e-21 -60.0527 8.64007e-20 -1.26929e-05 3.55198 0 -1.47008e-07)
(6.34508e-14 -3.49306e-20 0 -60.0527 0.000345576 -1.4182e-05 3.55198 -0.000143816 1.47018e-07)
(1.46592e-14 1.54074e-33 2.40741e-35 -57.5317 -9.6547e-20 -9.60212e-23 3.4519 2.71051e-20 2.64698e-23)
(0 0 0 -57.5317 -0.000376768 -1.82376e-05 3.4519 0.000172259 -1.72967e-07)
(1.44491e-14 -5.38324e-20 6.88986e-21 -55.136 9.75782e-19 -1.60034e-05 3.35553 -2.71051e-20 -2.03208e-07)
(0 5.51189e-20 0 -55.136 0.000406061 -1.80153e-05 3.35553 -0.000192647 2.03215e-07)
(-2.29718e-14 -6.01853e-35 -1.95132e-36 -52.8673 -1.20327e-19 -3.52095e-21 3.2633 0 0)
(0 0 0 -52.8673 -0.000439247 -2.23649e-05 3.2633 0.000216767 -2.39263e-07)
(2.76014e-15 -3.35485e-20 6.69378e-21 -50.725 9.50008e-19 -1.88977e-05 3.17549 0 -2.8141e-07)