/*--------------------------------*- C++ -*----------------------------------*\
| =========                 |                                                 |
| \\      /  F ield         | OpenFOAM: The Open Source CFD Toolbox           |
|  \\    /   O peration     | Version:  2012                                  |
|   \\  /    A nd           | Website:  www.openfoam.com                      |
|    \\/     M anipulation  |                                                 |
\*---------------------------------------------------------------------------*/
FoamFile
{
    version     2.0;
    format      ascii;
    class       volScalarField;
    location    "17000";
    object      p;
}
// * * * * * * * * * * * * * * * * * * * * * * * * * * * * * * * * * * * * * //

dimensions      [0 2 -2 0 0 0 0];


internalField   nonuniform List<scalar> 
2560
(
3.17099e-10
7.06947e-05
-4.28947e-08
7.06388e-05
-2.38847e-07
7.04338e-05
-8.2101e-07
6.98494e-05
-2.20174e-06
6.84702e-05
-4.91832e-06
6.57544e-05
-9.61796e-06
6.10562e-05
-1.70973e-05
5.35788e-05
-2.82953e-05
4.23828e-05
-4.42883e-05
2.63931e-05
-6.62843e-05
4.39986e-06
-9.56505e-05
-2.4962e-05
-0.000133867
-6.31749e-05
-0.00018257
-0.000111873
-0.000243526
-0.000172824
-0.000318641
-0.000247932
-0.000409939
-0.000339225
-0.00051958
-0.000448858
-0.000649871
-0.000579143
-0.000803218
-0.000732482
-0.000982126
-0.000911382
-0.00118927
-0.00111851
-0.00142743
-0.00135667
-0.00169943
-0.00162866
-0.00200821
-0.00193744
-0.00235693
-0.00228614
-0.00274873
-0.00267793
-0.00318677
-0.00311596
-0.00367439
-0.00360357
-0.00421509
-0.00414425
-0.00481232
-0.00474148
-0.00546953
-0.00539868
-0.00619034
-0.00611948
-0.00697851
-0.00690763
-0.00783769
-0.0077668
-0.00877152
-0.00870061
-0.00978384
-0.00971292
-0.0108786
-0.0108077
-0.0120595
-0.0119886
-0.0133303
-0.0132594
-0.014695
-0.0146241
-0.0161576
-0.0160866
-0.0177219
-0.0176509
-0.0193917
-0.0193207
-0.0211709
-0.0210999
-0.0230635
-0.0229925
-0.0250734
-0.0250023
-0.0272041
-0.0271331
-0.0294597
-0.0293887
-0.0318445
-0.0317734
-0.0343615
-0.0342904
-0.0370136
-0.0369425
-0.0398068
-0.0397357
-0.0427432
-0.0426721
-0.045826
-0.0457548
-0.0490605
-0.0489893
-0.052448
-0.0523768
-0.0559939
-0.0559227
-0.0597002
-0.059629
-0.06357
-0.0634987
-0.0676069
-0.0675357
-0.0718143
-0.0717431
-0.0761957
-0.0761244
-0.0807514
-0.0806801
-0.0854859
-0.0854146
-0.0904033
-0.090332
-0.0955025
-0.0954312
-0.100789
-0.100717
-0.106261
-0.10619
-0.111926
-0.111854
-0.117781
-0.11771
-0.123829
-0.123758
-0.130073
-0.130001
-0.136511
-0.136439
-0.143146
-0.143075
-0.149979
-0.149907
-0.157011
-0.156939
-0.164239
-0.164167
-0.171666
-0.171595
-0.17929
-0.179219
-0.187113
-0.187042
-0.195131
-0.19506
-0.203345
-0.203273
-0.211752
-0.21168
-0.22035
-0.220278
-0.229138
-0.229067
-0.238114
-0.238043
-0.247276
-0.247204
-0.256619
-0.256547
-0.266141
-0.266069
-0.275836
-0.275765
-0.285704
-0.285632
-0.295738
-0.295667
-0.305936
-0.305864
-0.316289
-0.316217
-0.326796
-0.326724
-0.337451
-0.337379
-0.348245
-0.348174
-0.359177
-0.359105
-0.370237
-0.370165
-0.38142
-0.381348
-0.392721
-0.39265
-0.40413
-0.404058
-0.415641
-0.415569
-0.427249
-0.427177
-0.438942
-0.43887
-0.450717
-0.450645
-0.462563
-0.462491
-0.474474
-0.474402
-0.486442
-0.48637
-0.498456
-0.498384
-0.51051
-0.510438
-0.522597
-0.522525
-0.534705
-0.534633
-0.54683
-0.546758
-0.558958
-0.558886
-0.571087
-0.571015
-0.583203
-0.583131
-0.595303
-0.595231
-0.607373
-0.607301
-0.619409
-0.619336
-0.631399
-0.631327
-0.64334
-0.643267
-0.655219
-0.655147
-0.667032
-0.66696
-0.678767
-0.678695
-0.690424
-0.690351
-0.701984
-0.701912
-0.713453
-0.713381
-0.724811
-0.724739
-0.736063
-0.73599
-0.74719
-0.747117
-0.758199
-0.758126
-0.769067
-0.768995
-0.779806
-0.779732
-0.79039
-0.790318
-0.800835
-0.800761
-0.81111
-0.811039
-0.821238
-0.821164
-0.831182
-0.831111
-0.84097
-0.840896
-0.850562
-0.850491
-0.859993
-0.859918
-0.869214
-0.869144
-0.87827
-0.878195
-0.887104
-0.887033
-0.89577
-0.895695
-0.904202
-0.904132
-0.912468
-0.912391
-0.920486
-0.920417
-0.928342
-0.928265
-0.935936
-0.935869
-0.943375
-0.943296
-0.950536
-0.95047
-0.957552
-0.957471
-0.964273
-0.964209
-0.970862
-0.970779
-0.977137
-0.977076
-0.983297
-0.983211
-0.989123
-0.989065
-0.994855
-0.994765
-1.00023
-1.00017
-1.00553
-1.00544
-1.01045
-1.0104
-1.01534
-1.01523
-1.01979
-1.01975
-1.02427
-1.02416
-1.02826
-1.02823
-1.03234
-1.03221
-1.03587
-1.03585
-1.03955
-1.03941
-1.04262
-1.04262
-1.04593
-1.04577
-1.04852
-1.04855
-1.05148
-1.0513
-1.05361
-1.05366
-1.05624
-1.05602
-1.05788
-1.05798
-1.06022
-1.05996
-1.06139
-1.06154
-1.06347
-1.06314
-1.06416
-1.06436
-1.06602
-1.06561
-1.06653
-1.06649
-1.06789
-1.06738
-1.06823
-1.06795
-1.06912
-1.0685
-1.0693
-1.06877
-1.06972
-1.06898
-1.06974
-1.06897
-1.06939
-1.06886
-1.06924
-1.06859
-1.06846
-1.06815
-1.06817
-1.06763
-1.06699
-1.06689
-1.06657
-1.06612
-1.06502
-1.06509
-1.06446
-1.06409
-1.0627
-1.0628
-1.06188
-1.06156
-1.05999
-1.06004
-1.05884
-1.05857
-1.05681
-1.05682
-1.05537
-1.05514
-1.05319
-1.05317
-1.05148
-1.05127
-1.04915
-1.0491
-1.04718
-1.04699
-1.0447
-1.04463
-1.0425
-1.04233
-1.03987
-1.03978
-1.03745
-1.03729
-1.03467
-1.03457
-1.03205
-1.0319
-1.02912
-1.02901
-1.02631
-1.02617
-1.02324
-1.02313
-1.02025
-1.02011
-1.01703
-1.01691
-1.01387
-1.01373
-1.01049
-1.01037
-1.00715
-1.00701
-1.00361
-1.00348
-1.00008
-0.999941
-0.996366
-0.99624
-0.992646
-0.992509
-0.98876
-0.988632
-0.984858
-0.984721
-0.980811
-0.980681
-0.976739
-0.976602
-0.972536
-0.972404
-0.968295
-0.968158
-0.963928
-0.963794
-0.959512
-0.959374
-0.954974
-0.954838
-0.950378
-0.950239
-0.945666
-0.945529
-0.940888
-0.940748
-0.935997
-0.935859
-0.931031
-0.930891
-0.92596
-0.92582
-0.920811
-0.920671
-0.915571
-0.91543
-0.910253
-0.910112
-0.904851
-0.904709
-0.899366
-0.899224
-0.893804
-0.893661
-0.888153
-0.88801
-0.882428
-0.882285
-0.876605
-0.876461
-0.870708
-0.870564
-0.864705
-0.864561
-0.858638
-0.858494
-0.85246
-0.852315
-0.846228
-0.846083
-0.839883
-0.839739
-0.833505
-0.83336
-0.827018
-0.826873
-0.820517
-0.820372
-0.813899
-0.813753
-0.807273
-0.807128
-0.800503
-0.800357
-0.793721
-0.793574
-0.786766
-0.786619
-0.779799
-0.779651
-0.772639
-0.77249
-0.765493
-0.765343
-0.758152
-0.758001
-0.750867
-0.750714
-0.743382
-0.743228
-0.735984
-0.735829
-0.728352
-0.728196
-0.720824
-0.720666
-0.713023
-0.712863
-0.705364
-0.705201
-0.6974
-0.697236
-0.68962
-0.689453
-0.681492
-0.681322
-0.673592
-0.673419
-0.665289
-0.665112
-0.657264
-0.657083
-0.648777
-0.648591
-0.640646
-0.640455
-0.631999
-0.631802
-0.623801
-0.623597
-0.615025
-0.614815
-0.606811
-0.606592
-0.597951
-0.597725
-0.589785
-0.589546
-0.580885
-0.580638
-0.572826
-0.572562
-0.56392
-0.563649
-0.556018
-0.555724
-0.547134
-0.546835
-0.539443
-0.539113
-0.530585
-0.530255
-0.523112
-0.522739
-0.514258
-0.513895
-0.507058
-0.50663
-0.498253
-0.497855
-0.491447
-0.490948
-0.482795
-0.482364
-0.476581
-0.475989
-0.468193
-0.467739
-0.462721
-0.462001
-0.454584
-0.454131
-0.449933
-0.449033
-0.441987
-0.441578
-0.438311
-0.437154
-0.430545
-0.430259
-0.427984
-0.426569
-0.420474
-0.420439
-0.418334
-0.41748
-0.411993
-0.412336
-0.410313
-0.410101
-0.405309
-0.406149
-0.40413
-0.404643
-0.399961
-0.402053
-0.399341
-0.401269
-0.397449
-0.400333
7.11698e-05
-1.80027e-06
7.11138e-05
-1.84364e-06
7.09087e-05
-2.03945e-06
7.03244e-05
-2.62112e-06
6.89451e-05
-4.00134e-06
6.62292e-05
-6.71681e-06
6.1531e-05
-1.14153e-05
5.40536e-05
-1.88926e-05
4.28574e-05
-3.00886e-05
2.68677e-05
-4.60782e-05
4.87434e-06
-6.80714e-05
-2.44877e-05
-9.7433e-05
-6.27007e-05
-0.000135646
-0.000111399
-0.000184343
-0.00017235
-0.000245294
-0.000247458
-0.000320402
-0.000338752
-0.000411695
-0.000448385
-0.000521328
-0.00057867
-0.000651612
-0.000732009
-0.000804951
-0.00091091
-0.000983851
-0.00111804
-0.00119098
-0.0013562
-0.00142914
-0.00162819
-0.00170113
-0.00193696
-0.0020099
-0.00228566
-0.0023586
-0.00267746
-0.0027504
-0.00311549
-0.00318843
-0.0036031
-0.00367604
-0.00414378
-0.00421672
-0.00474101
-0.00481394
-0.00539821
-0.00547115
-0.00611901
-0.00619194
-0.00690717
-0.0069801
-0.00776633
-0.00783926
-0.00870015
-0.00877308
-0.00971246
-0.00978539
-0.0108072
-0.0108801
-0.0119881
-0.012061
-0.0132589
-0.0133319
-0.0146236
-0.0146965
-0.0160862
-0.0161591
-0.0176505
-0.0177234
-0.0193202
-0.0193932
-0.0210995
-0.0211724
-0.022992
-0.023065
-0.0250019
-0.0250748
-0.0271326
-0.0272055
-0.0293882
-0.0294611
-0.031773
-0.0318459
-0.0342899
-0.0343629
-0.036942
-0.037015
-0.0397352
-0.0398082
-0.0426716
-0.0427446
-0.0457544
-0.0458273
-0.0489889
-0.0490618
-0.0523764
-0.0524493
-0.0559223
-0.0559952
-0.0596285
-0.0597015
-0.0634983
-0.0635712
-0.0675352
-0.0676082
-0.0717426
-0.0718156
-0.076124
-0.0761969
-0.0806796
-0.0807526
-0.0854142
-0.0854871
-0.0903315
-0.0904045
-0.0954307
-0.0955037
-0.100717
-0.10079
-0.10619
-0.106263
-0.111854
-0.111927
-0.117709
-0.117782
-0.123757
-0.12383
-0.130001
-0.130074
-0.136439
-0.136512
-0.143074
-0.143147
-0.149907
-0.14998
-0.156939
-0.157012
-0.164167
-0.16424
-0.171594
-0.171667
-0.179218
-0.179291
-0.187041
-0.187114
-0.195059
-0.195132
-0.203273
-0.203346
-0.21168
-0.211753
-0.220278
-0.220351
-0.229066
-0.229139
-0.238042
-0.238115
-0.247204
-0.247277
-0.256547
-0.25662
-0.266069
-0.266142
-0.275764
-0.275837
-0.285632
-0.285705
-0.295666
-0.295739
-0.305864
-0.305937
-0.316217
-0.31629
-0.326724
-0.326797
-0.337379
-0.337452
-0.348173
-0.348246
-0.359105
-0.359178
-0.370164
-0.370237
-0.381348
-0.381421
-0.392649
-0.392722
-0.404058
-0.404131
-0.415569
-0.415642
-0.427176
-0.427249
-0.43887
-0.438943
-0.450645
-0.450718
-0.462491
-0.462564
-0.474402
-0.474475
-0.486369
-0.486442
-0.498384
-0.498457
-0.510437
-0.51051
-0.522525
-0.522598
-0.534632
-0.534705
-0.546757
-0.546831
-0.558886
-0.558959
-0.571014
-0.571088
-0.583131
-0.583204
-0.595231
-0.595304
-0.6073
-0.607374
-0.619336
-0.619409
-0.631327
-0.6314
-0.643267
-0.64334
-0.655147
-0.655219
-0.666959
-0.667033
-0.678695
-0.678768
-0.690351
-0.690424
-0.701912
-0.701985
-0.71338
-0.713454
-0.724739
-0.724812
-0.73599
-0.736063
-0.747117
-0.74719
-0.758126
-0.758199
-0.768995
-0.769067
-0.779732
-0.779806
-0.790318
-0.79039
-0.800761
-0.800835
-0.811038
-0.811111
-0.821164
-0.821238
-0.831111
-0.831183
-0.840896
-0.840971
-0.850491
-0.850563
-0.859918
-0.859993
-0.869143
-0.869215
-0.878195
-0.87827
-0.887033
-0.887104
-0.895695
-0.895771
-0.904132
-0.904202
-0.912391
-0.912468
-0.920417
-0.920486
-0.928264
-0.928342
-0.935869
-0.935937
-0.943296
-0.943375
-0.95047
-0.950537
-0.957471
-0.957552
-0.964209
-0.964273
-0.970779
-0.970862
-0.977076
-0.977138
-0.983211
-0.983297
-0.989064
-0.989123
-0.994765
-0.994855
-1.00017
-1.00023
-1.00544
-1.00553
-1.0104
-1.01045
-1.01523
-1.01534
-1.01975
-1.01979
-1.02416
-1.02427
-1.02823
-1.02826
-1.03221
-1.03234
-1.03585
-1.03587
-1.03941
-1.03955
-1.04262
-1.04262
-1.04577
-1.04593
-1.04855
-1.04852
-1.0513
-1.05148
-1.05366
-1.05361
-1.05602
-1.05624
-1.05798
-1.05788
-1.05996
-1.06022
-1.06154
-1.06139
-1.06314
-1.06347
-1.06436
-1.06416
-1.06561
-1.06602
-1.06649
-1.06653
-1.06738
-1.06789
-1.06795
-1.06823
-1.0685
-1.06912
-1.06877
-1.0693
-1.06898
-1.06972
-1.06897
-1.06974
-1.06886
-1.06939
-1.06859
-1.06924
-1.06815
-1.06846
-1.06763
-1.06817
-1.06689
-1.06699
-1.06612
-1.06657
-1.06509
-1.06502
-1.06409
-1.06446
-1.0628
-1.0627
-1.06156
-1.06188
-1.06004
-1.05999
-1.05857
-1.05884
-1.05682
-1.05681
-1.05514
-1.05537
-1.05317
-1.05319
-1.05127
-1.05148
-1.0491
-1.04915
-1.04699
-1.04718
-1.04463
-1.0447
-1.04233
-1.0425
-1.03978
-1.03987
-1.03729
-1.03745
-1.03457
-1.03467
-1.0319
-1.03205
-1.02901
-1.02912
-1.02617
-1.02631
-1.02313
-1.02324
-1.02011
-1.02025
-1.01691
-1.01703
-1.01373
-1.01387
-1.01037
-1.01049
-1.00701
-1.00715
-1.00348
-1.00361
-0.999941
-1.00008
-0.99624
-0.996366
-0.992509
-0.992646
-0.988632
-0.98876
-0.984721
-0.984858
-0.980681
-0.980811
-0.976602
-0.976739
-0.972403
-0.972536
-0.968158
-0.968295
-0.963794
-0.963928
-0.959374
-0.959512
-0.954838
-0.954974
-0.950239
-0.950378
-0.945529
-0.945665
-0.940748
-0.940888
-0.935859
-0.935997
-0.930891
-0.931031
-0.92582
-0.92596
-0.92067
-0.920811
-0.91543
-0.915571
-0.910111
-0.910253
-0.904709
-0.904851
-0.899224
-0.899366
-0.893661
-0.893804
-0.88801
-0.888153
-0.882285
-0.882428
-0.876461
-0.876605
-0.870564
-0.870708
-0.864561
-0.864705
-0.858494
-0.858638
-0.852315
-0.85246
-0.846083
-0.846228
-0.839739
-0.839883
-0.83336
-0.833505
-0.826873
-0.827018
-0.820372
-0.820516
-0.813753
-0.813899
-0.807127
-0.807273
-0.800357
-0.800503
-0.793574
-0.793721
-0.786619
-0.786766
-0.779651
-0.779799
-0.77249
-0.772639
-0.765343
-0.765493
-0.758001
-0.758152
-0.750714
-0.750867
-0.743228
-0.743381
-0.735829
-0.735984
-0.728195
-0.728352
-0.720666
-0.720824
-0.712863
-0.713023
-0.705201
-0.705364
-0.697236
-0.6974
-0.689453
-0.68962
-0.681322
-0.681492
-0.673419
-0.673592
-0.665112
-0.665289
-0.657083
-0.657264
-0.648591
-0.648777
-0.640455
-0.640646
-0.631802
-0.631999
-0.623597
-0.623801
-0.614815
-0.615025
-0.606592
-0.606811
-0.597725
-0.597951
-0.589546
-0.589785
-0.580638
-0.580885
-0.572562
-0.572826
-0.563649
-0.56392
-0.555724
-0.556018
-0.546835
-0.547134
-0.539113
-0.539443
-0.530255
-0.530585
-0.522739
-0.523112
-0.513895
-0.514258
-0.50663
-0.507058
-0.497855
-0.498253
-0.490948
-0.491447
-0.482364
-0.482795
-0.475989
-0.476581
-0.467739
-0.468192
-0.462001
-0.462721
-0.454131
-0.454584
-0.449033
-0.449933
-0.441578
-0.441987
-0.437154
-0.438311
-0.430259
-0.430545
-0.426569
-0.427984
-0.420439
-0.420474
-0.41748
-0.418334
-0.412336
-0.411993
-0.410101
-0.410313
-0.406149
-0.405309
-0.404643
-0.40413
-0.402053
-0.399961
-0.401269
-0.399341
-0.400333
-0.397449
-0.397449
-0.400332
-0.39934
-0.401273
-0.39996
-0.402053
-0.40417
-0.404648
-0.405341
-0.406149
-0.410341
-0.410101
-0.412022
-0.412338
-0.41836
-0.417482
-0.420502
-0.420442
-0.428013
-0.426574
-0.430573
-0.430266
-0.438332
-0.43716
-0.442012
-0.441585
-0.449955
-0.449042
-0.454609
-0.454141
-0.46274
-0.462008
-0.468214
-0.467747
-0.476601
-0.475997
-0.482814
-0.482372
-0.491468
-0.490959
-0.498273
-0.497865
-0.507077
-0.50664
-0.514277
-0.513905
-0.523128
-0.522746
-0.530602
-0.530264
-0.539463
-0.539126
-0.54715
-0.546844
-0.556037
-0.555736
-0.563938
-0.56366
-0.57284
-0.57257
-0.580904
-0.580651
-0.589803
-0.589558
-0.597973
-0.597741
-0.606828
-0.606604
-0.615047
-0.614833
-0.623815
-0.623607
-0.632014
-0.631813
-0.640662
-0.640467
-0.648791
-0.648601
-0.657283
-0.657097
-0.665305
-0.665124
-0.67361
-0.673432
-0.681509
-0.681335
-0.689639
-0.689468
-0.697415
-0.697247
-0.705382
-0.705216
-0.713037
-0.712874
-0.720839
-0.720677
-0.728366
-0.728206
-0.736
-0.735842
-0.743395
-0.743238
-0.750886
-0.75073
-0.758169
-0.758014
-0.765506
-0.765352
-0.772656
-0.772504
-0.779815
-0.779663
-0.786786
-0.786635
-0.793737
-0.793587
-0.800518
-0.800368
-0.807286
-0.807137
-0.813921
-0.813772
-0.820533
-0.820385
-0.827038
-0.82689
-0.833523
-0.833375
-0.839904
-0.839756
-0.846242
-0.846094
-0.852471
-0.852323
-0.858658
-0.85851
-0.864722
-0.864575
-0.87073
-0.870583
-0.876619
-0.876472
-0.88244
-0.882293
-0.888169
-0.888023
-0.893816
-0.89367
-0.899379
-0.899233
-0.904865
-0.90472
-0.910272
-0.910127
-0.915591
-0.915448
-0.920834
-0.92069
-0.92598
-0.925838
-0.931048
-0.930905
-0.936015
-0.935874
-0.940903
-0.94076
-0.945681
-0.945541
-0.950397
-0.950255
-0.954988
-0.954849
-0.959524
-0.959383
-0.963948
-0.96381
-0.968313
-0.968172
-0.972547
-0.972411
-0.976756
-0.976616
-0.980827
-0.980693
-0.984872
-0.984732
-0.988774
-0.988643
-0.992668
-0.992528
-0.996387
-0.996258
-1.00009
-0.999954
-1.00363
-1.0035
-1.00717
-1.00702
-1.0105
-1.01038
-1.01388
-1.01374
-1.01705
-1.01693
-1.02027
-1.02012
-1.02326
-1.02314
-1.02634
-1.02619
-1.02914
-1.02903
-1.03207
-1.03191
-1.03469
-1.03459
-1.03747
-1.0373
-1.03988
-1.03979
-1.04252
-1.04234
-1.04472
-1.04464
-1.0472
-1.04701
-1.04917
-1.04911
-1.0515
-1.05129
-1.05321
-1.05318
-1.05539
-1.05515
-1.05683
-1.05683
-1.05886
-1.05859
-1.06001
-1.06005
-1.0619
-1.06158
-1.06272
-1.06282
-1.06448
-1.0641
-1.06503
-1.06511
-1.06659
-1.06613
-1.06702
-1.0669
-1.06819
-1.06764
-1.06848
-1.06816
-1.06926
-1.0686
-1.06941
-1.06887
-1.06976
-1.06899
-1.06974
-1.06899
-1.06932
-1.06878
-1.06914
-1.06851
-1.06825
-1.06796
-1.06791
-1.06739
-1.06655
-1.0665
-1.06604
-1.06562
-1.06418
-1.06437
-1.06349
-1.06316
-1.0614
-1.06155
-1.06024
-1.05997
-1.05791
-1.058
-1.05626
-1.05604
-1.05362
-1.05367
-1.05149
-1.0513
-1.04854
-1.04856
-1.04595
-1.04579
-1.04264
-1.04264
-1.03957
-1.03943
-1.03589
-1.03587
-1.03236
-1.03223
-1.02827
-1.02824
-1.02428
-1.02417
-1.0198
-1.01976
-1.01536
-1.01526
-1.01045
-1.0104
-1.00555
-1.00545
-1.00024
-1.00018
-0.994861
-0.994768
-0.989156
-0.989095
-0.983321
-0.983231
-0.977142
-0.977078
-0.970898
-0.970811
-0.964289
-0.964222
-0.957554
-0.95747
-0.950575
-0.950506
-0.943409
-0.943327
-0.935966
-0.935895
-0.928383
-0.928303
-0.920479
-0.920407
-0.912498
-0.912419
-0.904208
-0.904136
-0.895782
-0.895703
-0.887127
-0.887053
-0.878269
-0.878191
-0.869195
-0.869121
-0.860005
-0.859927
-0.850617
-0.850542
-0.840952
-0.840874
-0.831192
-0.831117
-0.82125
-0.821173
-0.811146
-0.811071
-0.800869
-0.800792
-0.790451
-0.790375
-0.779869
-0.779792
-0.76906
-0.768985
-0.758206
-0.758129
-0.747258
-0.747182
-0.736053
-0.735977
-0.724775
-0.724699
-0.713491
-0.713415
-0.70204
-0.701964
-0.690476
-0.6904
-0.678758
-0.678683
-0.667079
-0.667003
-0.655267
-0.655191
-0.643379
-0.643303
-0.631374
-0.631298
-0.61946
-0.619385
-0.607448
-0.607372
-0.595257
-0.595181
-0.583286
-0.58321
-0.571158
-0.571082
-0.558966
-0.55889
-0.546787
-0.546711
-0.534731
-0.534655
-0.522544
-0.522469
-0.510511
-0.510435
-0.498527
-0.498452
-0.486389
-0.486313
-0.474487
-0.474411
-0.462625
-0.462549
-0.450673
-0.450597
-0.438959
-0.438884
-0.427349
-0.427274
-0.415647
-0.415571
-0.404062
-0.403987
-0.392769
-0.392694
-0.381429
-0.381353
-0.370222
-0.370147
-0.359162
-0.359086
-0.348261
-0.348185
-0.337515
-0.33744
-0.326768
-0.326693
-0.316373
-0.316297
-0.305993
-0.305918
-0.295795
-0.29572
-0.285811
-0.285735
-0.275838
-0.275762
-0.266091
-0.266016
-0.256553
-0.256477
-0.247253
-0.247177
-0.238168
-0.238092
-0.229152
-0.229076
-0.22036
-0.220284
-0.211826
-0.211751
-0.203345
-0.20327
-0.195133
-0.195057
-0.187151
-0.187076
-0.179274
-0.179199
-0.171631
-0.171555
-0.164269
-0.164194
-0.156973
-0.156897
-0.149968
-0.149892
-0.143186
-0.14311
-0.136544
-0.136468
-0.130117
-0.130042
-0.123842
-0.123767
-0.117777
-0.117701
-0.112019
-0.111944
-0.106313
-0.106237
-0.10078
-0.100704
-0.0955719
-0.0954963
-0.0904068
-0.0903312
-0.0855524
-0.0854768
-0.0807474
-0.0806718
-0.0762464
-0.0761709
-0.0717915
-0.0717159
-0.067642
-0.0675664
-0.0636428
-0.0635672
-0.0597217
-0.0596462
-0.056047
-0.0559714
-0.0524649
-0.0523894
-0.0491071
-0.0490316
-0.0458499
-0.0457743
-0.0427994
-0.0427239
-0.0398519
-0.0397764
-0.0370069
-0.0369314
-0.0343583
-0.0342827
-0.0318868
-0.0318113
-0.0295187
-0.0294432
-0.0272355
-0.02716
-0.0250612
-0.0249857
-0.0231105
-0.0230349
-0.0211908
-0.0211152
-0.0194143
-0.0193388
-0.017732
-0.0176565
-0.0161868
-0.0161112
-0.0147221
-0.0146466
-0.0133386
-0.0132631
-0.0120759
-0.0120004
-0.010895
-0.0108195
-0.00981599
-0.00974046
-0.00877682
-0.00870129
-0.00786704
-0.00779151
-0.00699641
-0.00692087
-0.00620607
-0.00613054
-0.00548598
-0.00541045
-0.00483723
-0.0047617
-0.00424834
-0.00417282
-0.0036989
-0.00362337
-0.00320405
-0.00312852
-0.00276784
-0.00269231
-0.00237679
-0.00230127
-0.00202034
-0.00194481
-0.00171829
-0.00164276
-0.00144559
-0.00137006
-0.0012059
-0.00113037
-0.00100264
-0.000927107
-0.000826207
-0.00075068
-0.000670864
-0.000595335
-0.000538869
-0.000463337
-0.00043062
-0.00035509
-0.000340279
-0.000264752
-0.000263765
-0.000188237
-0.000201907
-0.000126377
-0.000153782
-7.82526e-05
-0.000116017
-4.04896e-05
-8.60787e-05
-1.05504e-05
-6.38327e-05
1.16972e-05
-4.8088e-05
2.74412e-05
-3.70768e-05
3.84511e-05
-2.9465e-05
4.60635e-05
-2.47388e-05
5.07901e-05
-2.20714e-05
5.3458e-05
-2.07106e-05
5.48179e-05
-2.0114e-05
5.54172e-05
-1.99096e-05
5.56308e-05
-1.98635e-05
5.56895e-05
-0.400332
-0.397449
-0.401273
-0.39934
-0.402053
-0.399961
-0.404648
-0.40417
-0.406149
-0.405341
-0.410101
-0.410341
-0.412338
-0.412022
-0.417482
-0.41836
-0.420442
-0.420502
-0.426574
-0.428013
-0.430266
-0.430573
-0.43716
-0.438332
-0.441585
-0.442012
-0.449042
-0.449955
-0.454141
-0.454609
-0.462008
-0.46274
-0.467747
-0.468214
-0.475997
-0.476601
-0.482372
-0.482814
-0.490959
-0.491468
-0.497865
-0.498273
-0.50664
-0.507077
-0.513905
-0.514277
-0.522746
-0.523128
-0.530264
-0.530602
-0.539126
-0.539463
-0.546844
-0.54715
-0.555736
-0.556037
-0.56366
-0.563938
-0.57257
-0.57284
-0.580651
-0.580904
-0.589558
-0.589803
-0.597741
-0.597973
-0.606604
-0.606828
-0.614833
-0.615047
-0.623607
-0.623815
-0.631813
-0.632014
-0.640467
-0.640662
-0.648601
-0.648791
-0.657097
-0.657283
-0.665124
-0.665305
-0.673432
-0.67361
-0.681335
-0.681509
-0.689468
-0.689639
-0.697247
-0.697415
-0.705216
-0.705382
-0.712874
-0.713037
-0.720677
-0.720839
-0.728206
-0.728366
-0.735842
-0.736
-0.743238
-0.743395
-0.75073
-0.750886
-0.758014
-0.758169
-0.765352
-0.765506
-0.772504
-0.772656
-0.779663
-0.779815
-0.786635
-0.786786
-0.793587
-0.793737
-0.800368
-0.800518
-0.807137
-0.807286
-0.813772
-0.813921
-0.820385
-0.820533
-0.82689
-0.827038
-0.833375
-0.833523
-0.839756
-0.839904
-0.846094
-0.846242
-0.852323
-0.852471
-0.85851
-0.858657
-0.864575
-0.864722
-0.870583
-0.87073
-0.876472
-0.876619
-0.882293
-0.88244
-0.888023
-0.888169
-0.89367
-0.893816
-0.899233
-0.899379
-0.90472
-0.904865
-0.910127
-0.910272
-0.915448
-0.915591
-0.92069
-0.920834
-0.925838
-0.92598
-0.930905
-0.931048
-0.935874
-0.936015
-0.94076
-0.940903
-0.945541
-0.945681
-0.950255
-0.950397
-0.954849
-0.954988
-0.959383
-0.959524
-0.96381
-0.963948
-0.968172
-0.968313
-0.972411
-0.972547
-0.976616
-0.976756
-0.980693
-0.980827
-0.984732
-0.984872
-0.988643
-0.988774
-0.992528
-0.992668
-0.996258
-0.996387
-0.999954
-1.00009
-1.0035
-1.00363
-1.00702
-1.00717
-1.01038
-1.0105
-1.01374
-1.01388
-1.01693
-1.01705
-1.02012
-1.02027
-1.02314
-1.02326
-1.02619
-1.02634
-1.02903
-1.02914
-1.03191
-1.03207
-1.03459
-1.03469
-1.0373
-1.03747
-1.03979
-1.03988
-1.04234
-1.04252
-1.04464
-1.04472
-1.04701
-1.0472
-1.04911
-1.04917
-1.05129
-1.0515
-1.05318
-1.05321
-1.05515
-1.05539
-1.05683
-1.05683
-1.05859
-1.05886
-1.06005
-1.06001
-1.06158
-1.0619
-1.06282
-1.06272
-1.0641
-1.06448
-1.06511
-1.06503
-1.06613
-1.06659
-1.0669
-1.06702
-1.06764
-1.06819
-1.06816
-1.06848
-1.0686
-1.06926
-1.06887
-1.06941
-1.06899
-1.06976
-1.06899
-1.06974
-1.06878
-1.06932
-1.06851
-1.06914
-1.06796
-1.06825
-1.06739
-1.06791
-1.0665
-1.06655
-1.06562
-1.06604
-1.06437
-1.06418
-1.06316
-1.06349
-1.06155
-1.0614
-1.05997
-1.06024
-1.058
-1.05791
-1.05604
-1.05626
-1.05367
-1.05362
-1.0513
-1.05149
-1.04856
-1.04854
-1.04579
-1.04595
-1.04264
-1.04264
-1.03943
-1.03957
-1.03587
-1.03589
-1.03223
-1.03236
-1.02824
-1.02827
-1.02417
-1.02428
-1.01976
-1.0198
-1.01526
-1.01536
-1.0104
-1.01045
-1.00545
-1.00555
-1.00018
-1.00024
-0.994768
-0.994861
-0.989095
-0.989156
-0.983231
-0.983321
-0.977078
-0.977142
-0.970811
-0.970898
-0.964222
-0.964289
-0.95747
-0.957554
-0.950506
-0.950575
-0.943327
-0.943409
-0.935895
-0.935966
-0.928303
-0.928383
-0.920407
-0.920479
-0.912419
-0.912498
-0.904136
-0.904208
-0.895703
-0.895782
-0.887053
-0.887127
-0.878191
-0.878269
-0.869121
-0.869195
-0.859927
-0.860004
-0.850542
-0.850617
-0.840874
-0.840952
-0.831117
-0.831192
-0.821173
-0.82125
-0.811071
-0.811146
-0.800792
-0.800869
-0.790375
-0.790451
-0.779792
-0.779869
-0.768985
-0.76906
-0.758129
-0.758206
-0.747182
-0.747257
-0.735977
-0.736053
-0.724699
-0.724775
-0.713415
-0.713491
-0.701964
-0.702039
-0.690399
-0.690476
-0.678683
-0.678758
-0.667003
-0.667079
-0.655191
-0.655266
-0.643303
-0.643379
-0.631298
-0.631374
-0.619384
-0.61946
-0.607372
-0.607448
-0.595181
-0.595257
-0.58321
-0.583286
-0.571082
-0.571158
-0.55889
-0.558966
-0.546711
-0.546787
-0.534655
-0.534731
-0.522469
-0.522544
-0.510435
-0.51051
-0.498452
-0.498527
-0.486313
-0.486388
-0.474411
-0.474487
-0.462549
-0.462625
-0.450597
-0.450673
-0.438883
-0.438959
-0.427274
-0.427349
-0.415571
-0.415647
-0.403987
-0.404062
-0.392694
-0.392769
-0.381353
-0.381429
-0.370147
-0.370222
-0.359086
-0.359162
-0.348185
-0.348261
-0.33744
-0.337515
-0.326692
-0.326768
-0.316297
-0.316373
-0.305917
-0.305993
-0.29572
-0.295795
-0.285735
-0.28581
-0.275762
-0.275838
-0.266015
-0.266091
-0.256477
-0.256552
-0.247177
-0.247253
-0.238092
-0.238167
-0.229076
-0.229152
-0.220284
-0.22036
-0.211751
-0.211826
-0.20327
-0.203345
-0.195057
-0.195132
-0.187075
-0.187151
-0.179199
-0.179274
-0.171555
-0.17163
-0.164194
-0.164269
-0.156897
-0.156973
-0.149892
-0.149968
-0.14311
-0.143186
-0.136468
-0.136543
-0.130042
-0.130117
-0.123766
-0.123842
-0.117701
-0.117777
-0.111944
-0.112019
-0.106237
-0.106313
-0.100704
-0.100779
-0.0954962
-0.0955717
-0.0903311
-0.0904066
-0.0854767
-0.0855522
-0.0806717
-0.0807472
-0.0761708
-0.0762463
-0.0717158
-0.0717913
-0.0675663
-0.0676418
-0.0635671
-0.0636426
-0.0596461
-0.0597216
-0.0559713
-0.0560468
-0.0523893
-0.0524648
-0.0490315
-0.049107
-0.0457742
-0.0458497
-0.0427238
-0.0427993
-0.0397763
-0.0398518
-0.0369313
-0.0370068
-0.0342827
-0.0343581
-0.0318112
-0.0318867
-0.0294431
-0.0295186
-0.0271599
-0.0272354
-0.0249856
-0.0250611
-0.0230349
-0.0231104
-0.0211152
-0.0211907
-0.0193387
-0.0194142
-0.0176564
-0.0177319
-0.0161112
-0.0161867
-0.0146465
-0.014722
-0.0132631
-0.0133385
-0.0120003
-0.0120758
-0.0108194
-0.0108949
-0.00974043
-0.00981591
-0.00870126
-0.00877674
-0.00779147
-0.00786696
-0.00692085
-0.00699633
-0.00613051
-0.006206
-0.00541043
-0.00548591
-0.00476168
-0.00483716
-0.0041728
-0.00424828
-0.00362335
-0.00369883
-0.00312851
-0.00320399
-0.0026923
-0.00276778
-0.00230126
-0.00237673
-0.00194481
-0.00202028
-0.00164276
-0.00171823
-0.00137006
-0.00144554
-0.00113037
-0.00120585
-0.000927107
-0.00100259
-0.000750681
-0.000826158
-0.000595338
-0.000670817
-0.000463342
-0.000538824
-0.000355096
-0.000430576
-0.000264759
-0.000340236
-0.000188245
-0.000263724
-0.000126386
-0.000201867
-7.8263e-05
-0.000153742
-4.05007e-05
-0.000115978
-1.05623e-05
-8.60407e-05
1.16848e-05
-6.37952e-05
2.74282e-05
-4.80511e-05
3.84378e-05
-3.70402e-05
4.60499e-05
-2.94286e-05
5.07763e-05
-2.47026e-05
5.34441e-05
-2.20354e-05
5.4804e-05
-2.06746e-05
5.54033e-05
-2.00779e-05
5.56168e-05
-1.98736e-05
5.56756e-05
-1.98275e-05
)
;

boundaryField
{
    walls
    {
        type            zeroGradient;
    }
    inlet
    {
        type            cyclic;
    }
    outlet
    {
        type            cyclic;
    }
    sides
    {
        type            empty;
    }
}


// ************************************************************************* //
