/*--------------------------------*- C++ -*----------------------------------*\
| =========                 |                                                 |
| \\      /  F ield         | OpenFOAM: The Open Source CFD Toolbox           |
|  \\    /   O peration     | Version:  2012                                  |
|   \\  /    A nd           | Website:  www.openfoam.com                      |
|    \\/     M anipulation  |                                                 |
\*---------------------------------------------------------------------------*/
FoamFile
{
    version     2.0;
    format      ascii;
    class       volSymmTensorField;
    location    "16000";
    object      turbulenceProperties:R;
}
// * * * * * * * * * * * * * * * * * * * * * * * * * * * * * * * * * * * * * //

dimensions      [0 2 -2 0 0 0 0];


internalField   nonuniform List<symmTensor> 
2560
(
(0.00679511 -9.70952e-06 -1.40615e-08 0.00679511 2.63824e-12 0.00679511)
(0.00679511 -9.70952e-06 -1.40615e-08 0.00679511 3.20002e-15 0.00679511)
(0.165461 -0.00136136 -5.9453e-06 0.165461 -8.31872e-31 0.165461)
(0.165461 -0.00136136 -5.9453e-06 0.165461 1.17257e-12 0.165461)
(1.13482 -0.0280164 -0.000168096 1.13482 -3.03176e-09 1.13482)
(1.13482 -0.0280164 -0.000168096 1.13482 3.29378e-11 1.13482)
(3.38162 -0.177537 -0.00108066 3.38162 -1.80943e-08 3.38162)
(3.38162 -0.177537 -0.00108066 3.38162 1.98585e-10 3.38162)
(6.0711 -0.524729 -0.00324038 6.0711 -2.90121e-08 6.0711)
(6.0711 -0.524729 -0.00324038 6.0711 4.47266e-10 6.0711)
(8.55925 -1.02783 -0.0064394 8.55925 -2.70671e-08 8.55925)
(8.55925 -1.02783 -0.0064394 8.55925 9.44081e-10 8.55925)
(10.7813 -1.63027 -0.0103623 10.7813 -2.31569e-08 10.7813)
(10.7813 -1.63027 -0.0103623 10.7813 1.70188e-09 10.7813)
(12.7944 -2.29773 -0.0148175 12.7944 -2.11995e-08 12.7944)
(12.7944 -2.29773 -0.0148175 12.7944 2.80785e-09 12.7944)
(14.651 -3.01043 -0.0196965 14.651 -2.13951e-08 14.651)
(14.651 -3.01043 -0.0196965 14.651 -1.59041e-09 14.651)
(16.3876 -3.75612 -0.0249338 16.3876 -2.36008e-08 16.3876)
(16.3876 -3.75612 -0.0249338 16.3876 -1.63882e-08 16.3876)
(18.0292 -4.5267 -0.0304876 18.0292 -2.7699e-08 18.0292)
(18.0292 -4.5267 -0.0304876 18.0292 -2.87175e-08 18.0292)
(19.5933 -5.31645 -0.0363293 19.5933 -3.37733e-08 19.5933)
(19.5933 -5.31645 -0.0363293 19.5933 -3.46595e-08 19.5933)
(21.0921 -6.12119 -0.0424392 21.0921 -4.00135e-08 21.0921)
(21.0921 -6.12119 -0.0424392 21.0921 -4.27226e-08 21.0921)
(22.5345 -6.93771 -0.0488027 22.5345 -3.24995e-08 22.5345)
(22.5345 -6.93771 -0.0488027 22.5345 -5.30891e-08 22.5345)
(23.927 -7.76348 -0.0554088 23.927 -2.29359e-08 23.927)
(23.927 -7.76348 -0.0554088 23.927 -4.84005e-08 23.927)
(25.2745 -8.59642 -0.0622491 25.2745 -2.75967e-08 25.2745)
(25.2745 -8.59642 -0.0622491 25.2745 -1.2105e-10 25.2745)
(26.5804 -9.43474 -0.0693164 26.5804 -3.27394e-08 26.5804)
(26.5804 -9.43474 -0.0693164 26.5804 -4.84476e-09 26.5804)
(27.8473 -10.2768 -0.0766042 27.8473 -3.84361e-08 27.8473)
(27.8473 -10.2768 -0.0766042 27.8473 -3.86084e-08 27.8473)
(29.0771 -11.1213 -0.084106 29.0771 -4.47125e-08 29.0771)
(29.0771 -11.1213 -0.084106 29.0771 -4.48325e-08 29.0771)
(30.271 -11.9665 -0.0918154 30.271 -5.15805e-08 30.271)
(30.271 -11.9665 -0.0918154 30.271 -5.17339e-08 30.271)
(31.4297 -12.8111 -0.0997247 31.4297 -5.91257e-08 31.4297)
(31.4297 -12.8111 -0.0997247 31.4297 -5.93504e-08 31.4297)
(32.5535 -13.6535 -0.107825 32.5535 -6.72634e-08 32.5535)
(32.5535 -13.6535 -0.107825 32.5535 -6.74978e-08 32.5535)
(33.6423 -14.4921 -0.116107 33.6423 -7.61189e-08 33.6423)
(33.6423 -14.4921 -0.116107 33.6423 -7.61997e-08 33.6423)
(34.6959 -15.3251 -0.124557 34.6959 -8.56643e-08 34.6959)
(34.6959 -15.3251 -0.124557 34.6959 -8.59661e-08 34.6959)
(35.7135 -16.1506 -0.133163 35.7135 -9.61996e-08 35.7135)
(35.7135 -16.1506 -0.133163 35.7135 -9.63554e-08 35.7135)
(36.6945 -16.9665 -0.141907 36.6945 -1.07062e-07 36.6945)
(36.6945 -16.9665 -0.141907 36.6945 -1.07346e-07 36.6945)
(37.6378 -17.7705 -0.15077 37.6378 -1.18928e-07 37.6378)
(37.6378 -17.7705 -0.15077 37.6378 -1.19027e-07 37.6378)
(38.5422 -18.5601 -0.159731 38.5422 -1.31714e-07 38.5422)
(38.5422 -18.5601 -0.159731 38.5422 -1.32112e-07 38.5422)
(39.4064 -19.3328 -0.168765 39.4064 -1.45586e-07 39.4064)
(39.4064 -19.3328 -0.168765 39.4064 -1.45693e-07 39.4064)
(40.229 -20.0856 -0.177843 40.229 -1.59776e-07 40.229)
(40.229 -20.0856 -0.177843 40.229 -1.60126e-07 40.229)
(41.0084 -20.8156 -0.186936 41.0084 -1.75137e-07 41.0084)
(41.0084 -20.8156 -0.186936 41.0084 -1.75253e-07 41.0084)
(41.7432 -21.5197 -0.196009 41.7432 -1.91665e-07 41.7432)
(41.7432 -21.5197 -0.196009 41.7432 -1.9213e-07 41.7432)
(42.4316 -22.1946 -0.205024 42.4316 -2.09275e-07 42.4316)
(42.4316 -22.1946 -0.205024 42.4316 -2.09399e-07 42.4316)
(43.0721 -22.8367 -0.213942 43.0721 -2.2732e-07 43.0721)
(43.0721 -22.8367 -0.213942 43.0721 -2.2766e-07 43.0721)
(43.663 -23.4427 -0.22272 43.663 -2.46832e-07 43.663)
(43.663 -23.4427 -0.22272 43.663 -2.46964e-07 43.663)
(44.2027 -24.009 -0.231311 44.2027 -2.67606e-07 44.2027)
(44.2027 -24.009 -0.231311 44.2027 -2.68085e-07 44.2027)
(44.6897 -24.5321 -0.239668 44.6897 -2.89493e-07 44.6897)
(44.6897 -24.5321 -0.239668 44.6897 -2.89633e-07 44.6897)
(45.1225 -25.0081 -0.247739 45.1225 -3.11944e-07 45.1225)
(45.1225 -25.0081 -0.247739 45.1225 -3.12269e-07 45.1225)
(45.5 -25.4338 -0.255472 45.5 -3.35963e-07 45.5)
(45.5 -25.4338 -0.255472 45.5 -3.3611e-07 45.5)
(45.8208 -25.8056 -0.262814 45.8208 -3.61553e-07 45.8208)
(45.8208 -25.8056 -0.262814 45.8208 -3.6202e-07 45.8208)
(46.0841 -26.1203 -0.269708 46.0841 -3.88451e-07 46.0841)
(46.0841 -26.1203 -0.269708 46.0841 -3.88605e-07 46.0841)
(46.2892 -26.3745 -0.276097 46.2892 -4.15809e-07 46.2892)
(46.2892 -26.3745 -0.276097 46.2892 -4.16114e-07 46.2892)
(46.4355 -26.5655 -0.281927 46.4355 -4.44829e-07 46.4355)
(46.4355 -26.5655 -0.281927 46.4355 -4.44989e-07 46.4355)
(46.5228 -26.6904 -0.28714 46.5228 -4.75671e-07 46.5228)
(46.5228 -26.6904 -0.28714 46.5228 -4.76294e-07 46.5228)
(46.5512 -26.747 -0.291683 46.5512 -5.07323e-07 46.5512)
(46.5512 -26.747 -0.291683 46.5512 -5.07616e-07 46.5512)
(46.5212 -26.7332 -0.2955 46.5212 -5.40573e-07 46.5212)
(46.5212 -26.7332 -0.2955 46.5212 -5.41265e-07 46.5212)
(46.4335 -26.6471 -0.29854 46.4335 -5.74358e-07 46.4335)
(46.4335 -26.6471 -0.29854 46.4335 -5.74964e-07 46.4335)
(46.2893 -26.4875 -0.300754 46.2893 -6.12146e-07 46.2893)
(46.2893 -26.4875 -0.300754 46.2893 -6.13132e-07 46.2893)
(46.0902 -26.2533 -0.302094 46.0902 -6.48838e-07 46.0902)
(46.0902 -26.2533 -0.302094 46.0902 -6.49017e-07 46.0902)
(45.8382 -25.9441 -0.302516 45.8382 -6.8405e-07 45.8382)
(45.8382 -25.9441 -0.302516 45.8382 -6.84489e-07 45.8382)
(45.5357 -25.56 -0.301991 45.5357 -7.269e-07 45.5357)
(45.5357 -25.56 -0.301991 45.5357 -7.27363e-07 45.5357)
(45.1856 -25.1015 -0.300476 45.1856 -7.69891e-07 45.1856)
(45.1856 -25.1015 -0.300476 45.1856 -7.72879e-07 45.1856)
(44.791 -24.5689 -0.297937 44.791 -8.02925e-07 44.791)
(44.791 -24.5689 -0.297937 44.791 -8.07778e-07 44.791)
(44.3559 -23.964 -0.294364 44.3559 -8.53981e-07 44.3559)
(44.3559 -23.964 -0.294364 44.3559 -8.58483e-07 44.3559)
(43.8842 -23.2884 -0.289727 43.8842 -8.94247e-07 43.8842)
(43.8842 -23.2884 -0.289727 43.8842 -8.97048e-07 43.8842)
(43.3806 -22.5441 -0.284014 43.3806 -9.41006e-07 43.3806)
(43.3806 -22.5441 -0.284014 43.3806 -9.412e-07 43.3806)
(42.85 -21.7337 -0.27722 42.85 -9.87557e-07 42.85)
(42.85 -21.7337 -0.27722 42.85 -9.89539e-07 42.85)
(42.2976 -20.8601 -0.26934 42.2976 -1.02505e-06 42.2976)
(42.2976 -20.8601 -0.26934 42.2976 -1.02922e-06 42.2976)
(41.729 -19.9266 -0.260384 41.729 -1.07543e-06 41.729)
(41.729 -19.9266 -0.260384 41.729 -1.07881e-06 41.729)
(41.15 -18.9367 -0.250353 41.15 -1.11843e-06 41.15)
(41.15 -18.9367 -0.250353 41.15 -1.12196e-06 41.15)
(40.5666 -17.8938 -0.239258 40.5666 -1.1677e-06 40.5666)
(40.5666 -17.8938 -0.239258 40.5666 -1.17034e-06 40.5666)
(39.9849 -16.8014 -0.227112 39.9849 -1.20289e-06 39.9849)
(39.9849 -16.8014 -0.227112 39.9849 -1.20615e-06 39.9849)
(39.4111 -15.6636 -0.213939 39.4111 -1.24442e-06 39.4111)
(39.4111 -15.6636 -0.213939 39.4111 -1.24464e-06 39.4111)
(38.8514 -14.4844 -0.199763 38.8514 -1.29358e-06 38.8514)
(38.8514 -14.4844 -0.199763 38.8514 -1.29557e-06 38.8514)
(38.3118 -13.2671 -0.18459 38.3118 -1.32373e-06 38.3118)
(38.3118 -13.2671 -0.18459 38.3118 -1.32395e-06 38.3118)
(37.7981 -12.0154 -0.168457 37.7981 -1.35443e-06 37.7981)
(37.7981 -12.0154 -0.168457 37.7981 -1.35915e-06 37.7981)
(37.3158 -10.7333 -0.151386 37.3158 -1.39212e-06 37.3158)
(37.3158 -10.7333 -0.151386 37.3158 -1.39787e-06 37.3158)
(36.87 -9.42386 -0.133396 36.87 -1.411e-06 36.87)
(36.87 -9.42386 -0.133396 36.87 -1.4232e-06 36.87)
(36.4653 -8.09029 -0.114512 36.4653 -1.44995e-06 36.4653)
(36.4653 -8.09029 -0.114512 36.4653 -1.46328e-06 36.4653)
(36.1057 -6.73568 -0.0947545 36.1057 -1.44875e-06 36.1057)
(36.1057 -6.73568 -0.0947545 36.1057 -1.46667e-06 36.1057)
(35.7945 -5.36324 -0.0741572 35.7945 -1.49074e-06 35.7945)
(35.7945 -5.36324 -0.0741572 35.7945 -1.50961e-06 35.7945)
(35.5345 -3.97582 -0.0527331 35.5345 -1.48589e-06 35.5345)
(35.5345 -3.97582 -0.0527331 35.5345 -1.50488e-06 35.5345)
(35.3273 -2.57636 -0.0305207 35.3273 -1.51945e-06 35.3273)
(35.3273 -2.57636 -0.0305207 35.3273 -1.53505e-06 35.3273)
(35.1739 -0.909469 -0.00755308 35.1739 -1.5142e-06 35.1739)
(35.1739 -0.909468 -0.00755307 35.1739 -1.53301e-06 35.1739)
(35.0747 0.000295406 -2.489e-06 35.0747 -1.54398e-06 35.0747)
(35.0747 0.00029548 -2.48962e-06 35.0747 -1.55486e-06 35.0747)
(35.0289 1.66107 -0.0164605 35.0289 -1.53422e-06 35.0289)
(35.0289 1.66107 -0.0164605 35.0289 -1.54964e-06 35.0289)
(35.0349 3.07474 -0.0413433 35.0349 -1.55943e-06 35.0349)
(35.0349 3.07474 -0.0413433 35.0349 -1.56347e-06 35.0349)
(35.0905 4.48156 -0.0668772 35.0905 -1.56317e-06 35.0905)
(35.0905 4.48156 -0.0668772 35.0905 -1.57007e-06 35.0905)
(35.1926 5.87686 -0.0929879 35.1926 -1.5754e-06 35.1926)
(35.1926 5.87686 -0.0929879 35.1926 -1.57976e-06 35.1926)
(35.3379 7.25555 -0.119595 35.3379 -1.59416e-06 35.3379)
(35.3379 7.25555 -0.119595 35.3379 -1.59678e-06 35.3379)
(35.5219 8.61184 -0.146599 35.5219 -1.58735e-06 35.5219)
(35.5219 8.61184 -0.146599 35.5219 -1.60455e-06 35.5219)
(35.7403 9.93942 -0.173882 35.7403 -1.62823e-06 35.7403)
(35.7403 9.93942 -0.173882 35.7403 -1.63927e-06 35.7403)
(35.9881 11.2322 -0.201312 35.9881 -1.62211e-06 35.9881)
(35.9881 11.2322 -0.201312 35.9881 -1.64377e-06 35.9881)
(36.26 12.484 -0.228767 36.26 -1.66751e-06 36.26)
(36.26 12.484 -0.228767 36.26 -1.6764e-06 36.26)
(36.5509 13.688 -0.256094 36.5509 -1.68466e-06 36.5509)
(36.5509 13.688 -0.256094 36.5509 -1.70239e-06 36.5509)
(36.8551 14.8385 -0.283142 36.8551 -1.73412e-06 36.8551)
(36.8551 14.8385 -0.283142 36.8551 -1.74173e-06 36.8551)
(37.1676 15.93 -0.309772 37.1676 -1.74806e-06 37.1676)
(37.1676 15.93 -0.309772 37.1676 -1.7689e-06 37.1676)
(37.4829 16.9571 -0.335838 37.4829 -1.80676e-06 37.4829)
(37.4829 16.9571 -0.335838 37.4829 -1.8165e-06 37.4829)
(37.7961 17.9149 -0.361191 37.7961 -1.81863e-06 37.7961)
(37.7961 17.9149 -0.361191 37.7961 -1.84271e-06 37.7961)
(38.1023 18.7991 -0.38569 38.1023 -1.89293e-06 38.1023)
(38.1023 18.7991 -0.38569 38.1023 -1.90266e-06 38.1023)
(38.397 19.6064 -0.409198 38.397 -1.92664e-06 38.397)
(38.397 19.6064 -0.409198 38.397 -1.94557e-06 38.397)
(38.6762 20.3346 -0.431603 38.6762 -1.99429e-06 38.6762)
(38.6762 20.3346 -0.431603 38.6762 -1.99752e-06 38.6762)
(38.9359 20.9822 -0.452807 38.9359 -2.02229e-06 38.9359)
(38.9359 20.9822 -0.452807 38.9359 -2.03834e-06 38.9359)
(39.1728 21.5479 -0.472717 39.1728 -2.09135e-06 39.1728)
(39.1728 21.5479 -0.472717 39.1728 -2.09172e-06 39.1728)
(39.384 22.0317 -0.491247 39.384 -2.15794e-06 39.384)
(39.384 22.0317 -0.491247 39.384 -2.1583e-06 39.384)
(39.5668 22.4348 -0.508342 39.5668 -2.18499e-06 39.5668)
(39.5668 22.4348 -0.508342 39.5668 -2.19982e-06 39.5668)
(39.7191 22.7585 -0.523977 39.7191 -2.25205e-06 39.7191)
(39.7191 22.7585 -0.523977 39.7191 -2.25242e-06 39.7191)
(39.8391 23.0047 -0.5381 39.8391 -2.31523e-06 39.8391)
(39.8391 23.0047 -0.5381 39.8391 -2.31562e-06 39.8391)
(39.9256 23.1763 -0.550705 39.9256 -2.34329e-06 39.9256)
(39.9256 23.1763 -0.550705 39.9256 -2.36658e-06 39.9256)
(39.9775 23.2767 -0.561802 39.9775 -2.4315e-06 39.9775)
(39.9775 23.2767 -0.561802 39.9775 -2.4443e-06 39.9775)
(39.9943 23.3097 -0.571401 39.9943 -2.43948e-06 39.9943)
(39.9943 23.3097 -0.571401 39.9943 -2.46942e-06 39.9943)
(39.9755 23.2793 -0.579541 39.9755 -2.51244e-06 39.9755)
(39.9755 23.2793 -0.579541 39.9755 -2.51837e-06 39.9755)
(39.9214 23.1896 -0.586252 39.9214 -2.55207e-06 39.9214)
(39.9214 23.1896 -0.586252 39.9214 -2.57158e-06 39.9214)
(39.832 23.0451 -0.59158 39.832 -2.60991e-06 39.832)
(39.832 23.0451 -0.59158 39.832 -2.61367e-06 39.832)
(39.7081 22.8504 -0.595587 39.7081 -2.62466e-06 39.7081)
(39.7081 22.8504 -0.595587 39.7081 -2.65196e-06 39.7081)
(39.5504 22.6103 -0.598335 39.5504 -2.69244e-06 39.5504)
(39.5504 22.6103 -0.598335 39.5504 -2.70714e-06 39.5504)
(39.3597 22.3294 -0.599896 39.3597 -2.68375e-06 39.3597)
(39.3597 22.3294 -0.599896 39.3597 -2.72212e-06 39.3597)
(39.1373 22.0122 -0.600345 39.1373 -2.76031e-06 39.1373)
(39.1373 22.0122 -0.600345 39.1373 -2.78218e-06 39.1373)
(38.8843 21.6629 -0.599745 38.8843 -2.74079e-06 38.8843)
(38.8843 21.6629 -0.599745 38.8843 -2.7808e-06 38.8843)
(38.6021 21.286 -0.598188 38.6021 -2.79766e-06 38.6021)
(38.6021 21.286 -0.598188 38.6021 -2.81366e-06 38.6021)
(38.2922 20.8851 -0.595744 38.2922 -2.79918e-06 38.2922)
(38.2922 20.8851 -0.595744 38.2922 -2.83303e-06 38.2922)
(37.9561 20.4643 -0.592478 37.9561 -2.83821e-06 37.9561)
(37.9561 20.4643 -0.592478 37.9561 -2.85898e-06 37.9561)
(37.5953 20.0272 -0.58848 37.5953 -2.79873e-06 37.5953)
(37.5953 20.0272 -0.58848 37.5953 -2.85103e-06 37.5953)
(37.2113 19.5769 -0.583821 37.2113 -2.85514e-06 37.2113)
(37.2113 19.5769 -0.583821 37.2113 -2.90098e-06 37.2113)
(36.8059 19.1165 -0.578564 36.8059 -2.79438e-06 36.8059)
(36.8059 19.1165 -0.578564 36.8059 -2.85574e-06 36.8059)
(36.3806 18.6488 -0.572776 36.3806 -2.86004e-06 36.3806)
(36.3806 18.6488 -0.572776 36.3806 -2.93517e-06 36.3806)
(35.9369 18.1764 -0.566526 35.9369 -2.79191e-06 35.9369)
(35.9369 18.1764 -0.566526 35.9369 -2.85306e-06 35.9369)
(35.4764 17.7015 -0.559872 35.4764 -2.8356e-06 35.4764)
(35.4764 17.7015 -0.559872 35.4764 -2.93379e-06 35.4764)
(35.0006 17.2262 -0.552868 35.0005 -2.75225e-06 35.0006)
(35.0006 17.2262 -0.552868 35.0006 -2.81199e-06 35.0006)
(34.5109 16.7522 -0.54557 34.5109 -2.80322e-06 34.5109)
(34.5109 16.7522 -0.54557 34.5109 -2.91646e-06 34.5109)
(34.0089 16.281 -0.538017 34.0089 -2.71947e-06 34.0089)
(34.0089 16.281 -0.538017 34.0089 -2.77617e-06 34.0089)
(33.4958 15.8142 -0.530256 33.4958 -2.74891e-06 33.4958)
(33.4958 15.8142 -0.530256 33.4958 -2.87569e-06 33.4958)
(32.9731 15.3529 -0.522332 32.9731 -2.66361e-06 32.9731)
(32.9731 15.3529 -0.522332 32.9731 -2.71506e-06 32.9731)
(32.4419 14.898 -0.514277 32.4419 -2.66758e-06 32.4419)
(32.4419 14.898 -0.514277 32.4419 -2.81048e-06 32.4419)
(31.9034 14.4503 -0.506119 31.9034 -2.59757e-06 31.9034)
(31.9034 14.4503 -0.506119 31.9034 -2.64077e-06 31.9034)
(31.3587 14.0105 -0.497884 31.3587 -2.57758e-06 31.3587)
(31.3587 14.0105 -0.497884 31.3587 -2.74197e-06 31.3587)
(30.8091 13.5789 -0.4896 30.8091 -2.50936e-06 30.8091)
(30.8091 13.5789 -0.4896 30.8091 -2.54024e-06 30.8091)
(30.2553 13.1559 -0.481275 30.2553 -2.48241e-06 30.2553)
(30.2553 13.1559 -0.481275 30.2553 -2.67314e-06 30.2553)
(29.6985 12.7419 -0.472934 29.6985 -2.40172e-06 29.6985)
(29.6985 12.7419 -0.472934 29.6985 -2.41483e-06 29.6985)
(29.1395 12.3368 -0.464587 29.1395 -2.35259e-06 29.1395)
(29.1395 12.3368 -0.464587 29.1395 -2.57681e-06 29.1395)
(28.5792 11.9407 -0.456236 28.5792 -2.30128e-06 28.5792)
(28.5792 11.9407 -0.456236 28.5792 -2.28926e-06 28.5792)
(28.0183 11.5538 -0.447897 28.0183 -2.21186e-06 28.0183)
(28.0183 11.5538 -0.447897 28.0183 -2.47898e-06 28.0183)
(27.4576 11.1759 -0.439576 27.4576 -2.13683e-06 27.4576)
(27.4576 11.1759 -0.439576 27.4576 -2.08981e-06 27.4576)
(26.8978 10.807 -0.431275 26.8978 -2.05083e-06 26.8978)
(26.8978 10.807 -0.431275 26.8978 -2.37325e-06 26.8978)
(26.3395 10.447 -0.423001 26.3395 -1.98455e-06 26.3395)
(26.3395 10.447 -0.423001 26.3395 -1.88934e-06 26.3395)
(25.7833 10.096 -0.41476 25.7833 -1.8778e-06 25.7833)
(25.7833 10.096 -0.41476 25.7833 -2.27185e-06 25.7833)
(25.2299 9.75391 -0.406558 25.2299 -1.79943e-06 25.2299)
(25.2299 9.75391 -0.406558 25.2299 -1.63838e-06 25.2299)
(24.6797 9.42059 -0.398403 24.6797 -1.68096e-06 24.6797)
(24.6797 9.42059 -0.398403 24.6797 -2.16823e-06 24.6797)
(24.1332 9.09588 -0.390294 24.1332 -1.59921e-06 24.1332)
(24.1332 9.09588 -0.390294 24.1332 -1.34873e-06 24.1332)
(23.5908 8.77962 -0.382233 23.5908 -1.47629e-06 23.5908)
(23.5908 8.77962 -0.382233 23.5908 -2.08533e-06 23.5908)
(23.0531 8.47158 -0.374221 23.0531 -1.40047e-06 23.0531)
(23.0531 8.47158 -0.374221 23.0531 -1.02903e-06 23.0531)
(22.5203 8.17155 -0.366253 22.5203 -1.26469e-06 22.5203)
(22.5203 8.17155 -0.366253 22.5203 -2.03337e-06 22.5203)
(21.9928 7.87931 -0.358331 21.9928 -1.18487e-06 21.9928)
(21.9928 7.87931 -0.358331 21.9928 -6.50315e-07 21.9928)
(21.471 7.59459 -0.350451 21.471 -1.03019e-06 21.471)
(21.471 7.59459 -0.350451 21.471 -2.00881e-06 21.471)
(20.9551 7.31716 -0.342607 20.9551 -9.67797e-07 20.9551)
(20.9551 7.31716 -0.342607 20.9551 -2.1376e-07 20.9551)
(20.4455 7.04679 -0.334798 20.4455 -5.93826e-07 20.4455)
(20.4455 7.04679 -0.334798 20.4455 -2.05501e-06 20.4455)
(19.9424 6.78329 -0.327021 19.9424 -7.3867e-07 19.9424)
(19.9424 6.78329 -0.327021 19.9424 3.10245e-07 19.9424)
(19.446 6.52648 -0.319274 19.446 -6.48416e-25 19.446)
(19.446 6.52648 -0.319274 19.446 -1.91853e-06 19.446)
(18.9565 6.27622 -0.311556 18.9565 -5.14391e-07 18.9565)
(18.9565 6.27622 -0.311556 18.9565 9.30296e-07 18.9565)
(18.4743 6.03236 -0.303868 18.4743 -0 18.4743)
(18.4743 6.03236 -0.303868 18.4743 -2.34444e-06 18.4743)
(17.9993 5.79481 -0.296211 17.9993 -2.75988e-07 17.9993)
(17.9994 5.79481 -0.296211 17.9993 1.69961e-06 17.9994)
(17.532 5.56343 -0.288586 17.532 4.49966e-22 17.532)
(17.5319 5.56343 -0.288586 17.532 -2.79651e-06 17.5319)
(17.0722 5.33813 -0.280994 17.0722 -3.52894e-08 17.0722)
(17.0723 5.33813 -0.280994 17.0722 2.65239e-06 17.0723)
(16.6204 5.11888 -0.273439 16.6204 3.06712e-23 16.6204)
(16.6204 5.11888 -0.273439 16.6204 -3.37876e-06 16.6204)
(16.1765 4.90566 -0.265925 16.1765 2.11241e-07 16.1765)
(16.1765 4.90566 -0.265925 16.1764 3.85419e-06 16.1765)
(15.7407 4.69854 -0.258462 15.7407 -9.25432e-22 15.7407)
(15.7406 4.69854 -0.258462 15.7407 -4.23609e-06 15.7406)
(15.313 4.49768 -0.251065 15.313 4.65229e-07 15.313)
(15.3131 4.49768 -0.251065 15.313 5.39033e-06 15.3131)
(14.8937 4.30332 -0.24375 14.8937 -9.23149e-22 14.8937)
(14.8937 4.30332 -0.24375 14.8938 -5.46268e-06 14.8937)
(14.4828 4.11579 -0.236546 14.4828 7.06333e-07 14.4828)
(14.4828 4.11579 -0.236546 14.4828 7.3536e-06 14.4828)
(14.0804 3.93549 -0.229481 14.0804 -1.76811e-21 14.0804)
(14.0804 3.93549 -0.229481 14.0804 -7.18254e-06 14.0804)
(13.6864 3.76286 -0.222595 13.6864 9.46941e-07 13.6864)
(13.6864 3.76286 -0.222595 13.6864 9.90971e-06 13.6864)
(13.301 3.59825 -0.215921 13.301 6.16985e-24 13.301)
(13.301 3.59825 -0.215921 13.301 -9.35933e-06 13.301)
(12.9242 3.44196 -0.209496 12.9242 1.19116e-06 12.9242)
(12.9242 3.44196 -0.209496 12.9241 1.32608e-05 12.9242)
(12.5559 3.29413 -0.203349 12.5559 -1.59209e-21 12.5559)
(12.5558 3.29413 -0.203349 12.5559 -1.17469e-05 12.5558)
(12.1961 3.15471 -0.1975 12.1961 1.40387e-06 12.1961)
(12.1961 3.15471 -0.1975 12.1961 1.65203e-05 12.1961)
(11.8448 3.02342 -0.191957 11.8448 4.557e-22 11.8448)
(11.8448 3.02342 -0.191957 11.8449 -1.47923e-05 11.8448)
(11.5019 2.8998 -0.18671 11.5019 1.638e-06 11.5019)
(11.502 2.8998 -0.18671 11.5019 2.05995e-05 11.502)
(11.1674 2.78322 -0.181749 11.1674 -1.28379e-22 11.1674)
(11.1674 2.78322 -0.181749 11.1674 -1.87506e-05 11.1674)
(10.841 2.67273 -0.177033 10.841 1.81143e-06 10.841)
(10.8411 2.67273 -0.177033 10.841 2.56053e-05 10.8411)
(10.5228 2.56724 -0.172509 10.5228 -3.61763e-21 10.5228)
(10.5228 2.56724 -0.172509 10.5229 -2.37403e-05 10.5228)
(10.2126 2.46572 -0.168112 10.2126 1.97657e-06 10.2126)
(10.2126 2.46572 -0.168112 10.2125 3.18333e-05 10.2126)
(9.91022 2.36724 -0.16379 9.91022 7.62375e-21 9.91022)
(9.91018 2.36724 -0.16379 9.91028 -3.01195e-05 9.91018)
(9.6156 2.27103 -0.159484 9.6156 2.08383e-06 9.6156)
(9.61563 2.27103 -0.159484 9.61553 3.95527e-05 9.61563)
(9.32861 2.17673 -0.155155 9.32861 -7.17526e-21 9.32861)
(9.32857 2.17673 -0.155155 9.32868 -3.81632e-05 9.32857)
(9.04913 2.08427 -0.150798 9.04913 2.09367e-06 9.04913)
(9.04917 2.08427 -0.150798 9.04905 4.90912e-05 9.04917)
(8.77707 1.99375 -0.146414 8.77707 -0 8.77707)
(8.77703 1.99375 -0.146414 8.77715 -4.83507e-05 8.77703)
(8.51231 1.90546 -0.142022 8.51231 2.0193e-06 8.51231)
(8.51236 1.90546 -0.142022 8.51223 6.09902e-05 8.51236)
(8.25477 1.81983 -0.137646 8.25477 5.9974e-22 8.25477)
(8.25473 1.81983 -0.137646 8.25486 -6.12158e-05 8.25473)
(8.00435 1.73717 -0.133335 8.00435 1.80775e-06 8.00435)
(8.00439 1.73717 -0.133335 8.00426 7.582e-05 8.00439)
(7.76095 1.65774 -0.129098 7.76095 -1.42876e-20 7.76095)
(7.76091 1.65774 -0.129098 7.76104 -7.74063e-05 7.76091)
(7.52448 1.58207 -0.124978 7.52448 1.45179e-06 7.52448)
(7.52453 1.58207 -0.124978 7.52439 9.43954e-05 7.52453)
(7.29485 1.51048 -0.121027 7.29485 4.22658e-36 7.29485)
(7.2948 1.51048 -0.121027 7.29494 -9.78683e-05 7.29481)
(7.07195 1.44325 -0.117264 7.07195 5.43225e-06 7.07195)
(7.07199 1.44325 -0.117264 7.07186 0.000117732 7.07199)
(6.85567 1.38054 -0.113734 6.85567 -1.40362e-20 6.85567)
(6.85563 1.38054 -0.113734 6.85575 -0.0001192 6.85563)
(6.64591 1.32203 -0.110443 6.64591 5.98177e-06 6.64591)
(6.64595 1.32203 -0.110443 6.64584 0.000137929 6.64595)
(6.44256 1.26738 -0.107361 6.44256 2.07138e-22 6.44256)
(6.44253 1.26738 -0.107361 6.44262 -0.000142252 6.44253)
(6.24549 1.21618 -0.10448 6.24549 6.29753e-06 6.24549)
(6.24552 1.21619 -0.10448 6.24544 0.000149376 6.24552)
(6.05459 1.16796 -0.101765 6.05459 2.16907e-06 6.05459)
(6.05456 1.16796 -0.101765 6.05463 -0.000156654 6.05456)
(5.86973 1.12212 -0.0991887 5.86973 6.31138e-06 5.86973)
(5.86974 1.12212 -0.0991887 5.8697 0.000157609 5.86974)
(5.6908 1.07764 -0.0966914 5.6908 -5.29527e-06 5.6908)
(5.69079 1.07764 -0.0966914 5.69081 -0.000163008 5.69079)
(5.51768 1.03398 -0.0941652 5.51768 -2.42882e-06 5.51768)
(5.51768 1.03398 -0.0941652 5.51768 0.000162758 5.51768)
(5.35027 0.99133 -0.0916301 5.35027 -7.14257e-06 5.35028)
(5.35028 0.99133 -0.0916301 5.35027 -0.000161595 5.35028)
(5.18848 0.949735 -0.0890993 5.18848 -2.00654e-21 5.18848)
(5.18847 0.949735 -0.0890993 5.1885 0.000158649 5.18847)
(5.0322 0.909602 -0.0865735 5.0322 -7.30762e-06 5.0322)
(5.03222 0.909602 -0.0865735 5.03217 -0.000160164 5.03222)
(4.88135 0.871167 -0.0841324 4.88135 -8.59386e-22 4.88135)
(4.88133 0.871167 -0.0841324 4.8814 0.000143658 4.88133)
(4.73584 0.834326 -0.0817486 4.73584 -7.41416e-06 4.73584)
(4.73587 0.834326 -0.0817486 4.73579 -0.000147814 4.73587)
(4.5956 0.79953 -0.0794393 4.5956 -1.71456e-21 4.5956)
(4.59557 0.79953 -0.0794393 4.59566 0.000127803 4.59557)
(4.46054 0.767111 -0.0772855 4.46054 -4.42304e-06 4.46054)
(4.46057 0.767111 -0.0772855 4.46047 -0.000129904 4.46057)
(4.33059 0.737403 -0.0752853 4.33059 2.14481e-21 4.33059)
(4.33055 0.737403 -0.0752853 4.33066 0.000110101 4.33055)
(4.20566 0.711479 -0.0735253 4.20566 -3.98584e-06 4.20566)
(4.2057 0.711479 -0.0735253 4.20559 -0.00011294 4.2057)
(4.08569 0.690069 -0.0721595 4.08569 1.28234e-20 4.08569)
(4.08565 0.69007 -0.0721595 4.08577 9.40932e-05 4.08565)
(3.97058 0.673417 -0.0712153 3.97058 -4.45203e-06 3.97058)
(3.97062 0.673417 -0.0712153 3.97051 -9.8457e-05 3.97062)
(3.86025 0.661951 -0.0707551 3.86025 -1.13204e-21 3.86025)
(3.86021 0.661951 -0.0707551 3.86033 8.03123e-05 3.86021)
(3.75458 0.655696 -0.07085 3.75458 -4.87924e-06 3.75458)
(3.75462 0.655696 -0.07085 3.75451 -8.60505e-05 3.75462)
(3.65347 0.654198 -0.0714804 3.65347 -0 3.65347)
(3.65344 0.654198 -0.0714804 3.65355 6.84088e-05 3.65344)
(3.5568 0.656736 -0.0726144 3.5568 -5.25111e-06 3.5568)
(3.55684 0.656736 -0.0726144 3.55673 -7.54218e-05 3.55684)
(3.46443 0.662141 -0.074168 3.46443 -8.57536e-22 3.46443)
(3.46439 0.662141 -0.074168 3.4645 5.82253e-05 3.46439)
(3.37622 0.668769 -0.0759996 3.37622 -5.55699e-06 3.37622)
(3.37626 0.668769 -0.0759997 3.37615 -6.62944e-05 3.37626)
(3.29204 0.675341 -0.0779011 3.29204 1.38597e-22 3.29204)
(3.292 0.675341 -0.0779012 3.2921 4.26267e-05 3.292)
(3.21173 0.681424 -0.0797971 3.21173 -5.8232e-06 3.21173)
(3.21176 0.681424 -0.0797971 3.21167 -5.7242e-05 3.21176)
(3.13517 0.687257 -0.0816611 3.13517 -6.05142e-21 3.13517)
(3.13514 0.687257 -0.0816611 3.13523 2.95764e-05 3.13514)
(3.06223 0.693656 -0.0835745 3.06223 -6.06884e-06 3.06223)
(3.06226 0.693657 -0.0835745 3.06217 -4.66515e-05 3.06226)
(2.99276 0.701332 -0.0856541 2.99276 -9.55749e-22 2.99276)
(2.99273 0.701332 -0.0856541 2.99281 2.11572e-05 2.99273)
(2.92663 0.710737 -0.0879657 2.92663 -6.27019e-06 2.92663)
(2.92666 0.710738 -0.0879657 2.92658 -3.86928e-05 2.92666)
(2.86369 0.722103 -0.0905726 2.86369 -8.76095e-22 2.86369)
(2.86367 0.722103 -0.0905727 2.86374 1.41276e-05 2.86367)
(2.80379 0.735341 -0.0934905 2.80379 -6.45531e-06 2.80379)
(2.80382 0.735342 -0.0934905 2.80375 -3.27845e-05 2.80382)
(2.74676 0.750176 -0.0967045 2.74676 -1.39872e-07 2.74676)
(2.74674 0.750176 -0.0967046 2.74681 6.76977e-06 2.74674)
(2.69243 0.766498 -0.10018 2.69243 -6.78845e-06 2.69243)
(2.69245 0.766498 -0.10018 2.69239 -2.86185e-05 2.69245)
(2.64059 0.783963 -0.103944 2.64059 -3.08423e-06 2.64059)
(2.64057 0.783964 -0.103944 2.64063 4.45407e-07 2.64057)
(2.59106 0.80148 -0.107895 2.59106 -7.23556e-06 2.59106)
(2.59108 0.801481 -0.107895 2.59103 -2.57962e-05 2.59108)
(2.54364 0.81751 -0.111851 2.54364 -5.76866e-06 2.54364)
(2.54362 0.817511 -0.111851 2.54367 -3.76845e-06 2.54362)
(2.4981 0.83028 -0.115569 2.4981 -7.77929e-06 2.4981)
(2.49812 0.830281 -0.115569 2.49807 -2.40207e-05 2.49812)
(2.45428 0.838503 -0.118776 2.45428 -8.4534e-06 2.45428)
(2.45427 0.838504 -0.118776 2.4543 -7.34535e-06 2.45427)
(2.41201 0.841829 -0.121342 2.41201 -8.41828e-06 2.41201)
(2.41202 0.841829 -0.121342 2.41198 -2.30786e-05 2.41202)
(2.37113 0.840992 -0.123242 2.37117 -7.54554e-06 2.37113)
(2.37115 0.840993 -0.123243 2.37115 -8.9139e-06 2.37115)
(2.3316 0.837684 -0.124661 2.3316 -8.81742e-06 2.3316)
(2.33161 0.837684 -0.124661 2.33158 -2.24749e-05 2.33161)
(2.29326 0.834022 -0.125868 2.2933 -5.65444e-06 2.29326)
(2.29327 0.834023 -0.125868 2.29327 -9.13283e-06 2.29327)
(2.25609 0.832395 -0.127205 2.25609 -8.91517e-06 2.25609)
(2.2561 0.832395 -0.127205 2.25607 -2.20277e-05 2.2561)
(2.21994 0.833969 -0.129062 2.21997 -3.94293e-06 2.21994)
(2.21995 0.83397 -0.129062 2.21995 -9.25838e-06 2.21995)
(2.18474 0.837946 -0.131435 2.18474 -9.22254e-06 2.18474)
(2.18475 0.837947 -0.131435 2.18473 -2.21579e-05 2.18475)
(2.15031 0.842309 -0.134116 2.15034 -2.73285e-06 2.15031)
(2.15032 0.84231 -0.134116 2.15032 -9.70081e-06 2.15032)
(2.11656 0.844716 -0.136697 2.11656 -9.88573e-06 2.11656)
(2.11656 0.844717 -0.136697 2.11654 -2.29453e-05 2.11656)
(2.08331 0.844064 -0.13883 2.08332 -1.89044e-06 2.08331)
(2.08331 0.844065 -0.13883 2.08331 -1.03941e-05 2.08331)
(2.05048 0.840357 -0.140474 2.05048 -1.06295e-05 2.05048)
(2.05049 0.840359 -0.140474 2.05047 -2.29286e-05 2.05049)
(2.01798 0.833879 -0.141631 2.01799 -1.14225e-06 2.01798)
(2.01798 0.83388 -0.141631 2.01798 -1.11177e-05 2.01798)
(1.98575 0.824575 -0.142352 1.98575 -1.12877e-05 1.98575)
(1.98575 0.824577 -0.142353 1.98574 -2.27246e-05 1.98575)
(1.95373 0.811846 -0.142525 1.95374 -7.18645e-07 1.95373)
(1.95373 0.811848 -0.142525 1.95373 -1.17771e-05 1.95373)
(1.92192 0.795128 -0.142011 1.92192 -1.20612e-05 1.92192)
(1.92192 0.79513 -0.142011 1.92191 -2.28456e-05 1.92192)
(1.89032 0.7746 -0.140695 1.89033 -2.10291e-06 1.89032)
(1.89032 0.774602 -0.140696 1.89032 -1.26292e-05 1.89032)
(1.85899 0.752079 -0.138696 1.85899 -1.2769e-05 1.85899)
(1.85899 0.752081 -0.138697 1.85899 -2.32134e-05 1.85899)
(1.82798 0.73049 -0.136504 1.82799 -2.83736e-06 1.82798)
(1.82799 0.730492 -0.136504 1.82799 -1.31235e-05 1.82799)
(1.79736 0.712736 -0.134678 1.79736 -1.30872e-05 1.79736)
(1.79736 0.712739 -0.134679 1.79736 -2.34701e-05 1.79736)
(1.76715 0.701084 -0.133762 1.76715 -2.98147e-06 1.76715)
(1.76715 0.701087 -0.133763 1.76715 -1.33639e-05 1.76715)
(1.73734 0.696349 -0.134134 1.73734 -1.3486e-05 1.73734)
(1.73734 0.696353 -0.134135 1.73735 -2.40402e-05 1.73734)
(1.70787 0.697744 -0.135825 1.70787 -3.25202e-06 1.70787)
(1.70787 0.69775 -0.135826 1.70787 -1.39967e-05 1.70787)
(1.67862 0.704177 -0.138604 1.67862 -1.41772e-05 1.67862)
(1.67862 0.704184 -0.138605 1.67862 -2.52738e-05 1.67862)
(1.64943 0.714532 -0.14237 1.64943 -3.26487e-06 1.64943)
(1.64943 0.71454 -0.142371 1.64943 -1.47412e-05 1.64943)
(1.62011 0.725669 -0.146856 1.62011 -1.5098e-05 1.62011)
(1.62011 0.72568 -0.146858 1.62012 -2.70605e-05 1.62011)
(1.59044 0.731968 -0.151103 1.59043 -3.34241e-06 1.59044)
(1.59044 0.731982 -0.151105 1.59044 -1.59044e-05 1.59044)
(1.56024 0.727656 -0.153743 1.56024 -1.6423e-05 1.56024)
(1.56023 0.727674 -0.153747 1.56025 -2.96543e-05 1.56023)
(1.5294 0.709672 -0.153628 1.52938 -3.25969e-06 1.5294)
(1.52939 0.709697 -0.153632 1.52939 -1.72528e-05 1.52939)
(1.49792 0.67868 -0.150418 1.49792 -1.74842e-05 1.49792)
(1.49792 0.678715 -0.150424 1.49794 -3.24739e-05 1.49792)
(1.46596 0.636965 -0.1445 1.46594 -2.1699e-06 1.46596)
(1.46595 0.637019 -0.144509 1.46595 -1.81987e-05 1.46595)
(1.4337 0.5875 -0.136251 1.4337 -1.83609e-05 1.4337)
(1.43369 0.587584 -0.136265 1.43371 -3.56859e-05 1.43369)
(1.40144 0.536385 -0.0942301 1.40141 -2.80025e-07 1.40144)
(1.40143 0.5365 -0.0942302 1.40143 -1.88918e-05 1.40143)