/*--------------------------------*- C++ -*----------------------------------*\
| =========                 |                                                 |
| \\      /  F ield         | OpenFOAM: The Open Source CFD Toolbox           |
|  \\    /   O peration     | Version:  2012                                  |
|   \\  /    A nd           | Website:  www.openfoam.com                      |
|    \\/     M anipulation  |                                                 |
\*---------------------------------------------------------------------------*/
FoamFile
{
    version     2.0;
    format      ascii;
    class       volScalarField;
    location    "1000";
    object      k;
}
// * * * * * * * * * * * * * * * * * * * * * * * * * * * * * * * * * * * * * //

dimensions      [0 2 -2 0 0 0 0];


internalField   nonuniform List<scalar> 
40
(
0.00298176
0.00298176
0.0252402
0.0252402
0.10033
0.10033
0.247996
0.247996
0.0521503
0.0521503
0.00298176
0.00298176
0.0252402
0.0252402
0.10033
0.10033
0.247996
0.247996
0.0521503
0.0521503
0.0521503
0.0521503
0.247996
0.247996
0.10033
0.10033
0.0252402
0.0252402
0.00298176
0.00298176
0.0521503
0.0521503
0.247996
0.247996
0.10033
0.10033
0.0252402
0.0252402
0.00298176
0.00298176
)
;

boundaryField
{
    walls
    {
        type            kqRWallFunction;
        value           nonuniform List<scalar> 8(0.00298176 0.00298176 0.00298176 0.00298176 0.00298176 0.00298176 0.00298176 0.00298176);
    }
    inlet
    {
        type            cyclic;
    }
    outlet
    {
        type            cyclic;
    }
    sides
    {
        type            empty;
    }
}


// ************************************************************************* //
