/*--------------------------------*- C++ -*----------------------------------*\
| =========                 |                                                 |
| \\      /  F ield         | OpenFOAM: The Open Source CFD Toolbox           |
|  \\    /   O peration     | Version:  2012                                  |
|   \\  /    A nd           | Website:  www.openfoam.com                      |
|    \\/     M anipulation  |                                                 |
\*---------------------------------------------------------------------------*/
FoamFile
{
    version     2.0;
    format      ascii;
    class       volScalarField;
    location    "11700";
    object      omega;
}
// * * * * * * * * * * * * * * * * * * * * * * * * * * * * * * * * * * * * * //

dimensions      [0 0 -1 0 0 0 0];


internalField   nonuniform List<scalar> 
2560
(
1.52416e+06
1.52416e+06
265053
265053
89396.3
89396.3
41491.9
41491.9
23271
23271
15190.9
15190.9
11166.8
11166.8
8902.42
8902.42
7486.06
7486.06
6525.26
6525.26
5832.87
5832.87
5310.6
5310.6
4902.56
4902.56
4574.78
4574.78
4305.51
4305.51
4080.18
4080.18
3888.67
3888.67
3723.72
3723.72
3580.02
3580.02
3453.53
3453.53
3341.18
3341.18
3240.56
3240.56
3149.75
3149.75
3067.21
3067.21
2991.67
2991.67
2922.11
2922.11
2857.63
2857.63
2797.52
2797.52
2741.14
2741.14
2687.96
2687.96
2637.52
2637.52
2589.39
2589.39
2543.24
2543.24
2498.74
2498.74
2455.63
2455.63
2413.65
2413.65
2372.59
2372.59
2332.25
2332.25
2292.46
2292.46
2253.07
2253.07
2213.95
2213.95
2174.98
2174.98
2136.07
2136.07
2097.12
2097.12
2058.08
2058.08
2018.89
2018.89
1979.51
1979.51
1939.92
1939.92
1900.11
1900.11
1860.08
1860.08
1819.85
1819.85
1779.45
1779.45
1738.92
1738.92
1698.33
1698.33
1657.73
1657.73
1617.21
1617.21
1576.86
1576.86
1536.78
1536.78
1497.07
1497.07
1457.84
1457.84
1419.21
1419.21
1381.31
1381.31
1344.24
1344.24
1308.13
1308.13
1273.09
1273.09
1239.22
1239.22
1206.62
1206.62
1175.36
1175.36
1145.52
1145.52
1117.14
1117.14
1090.24
1090.24
1064.85
1064.85
1040.94
1040.94
1018.5
1018.5
997.47
997.47
977.787
977.787
959.375
959.375
942.144
942.144
925.996
925.996
910.83
910.83
896.54
896.54
883.019
883.019
870.165
870.165
857.878
857.878
846.066
846.066
834.642
834.642
823.528
823.528
812.653
812.653
801.956
801.956
791.382
791.382
780.888
780.888
770.434
770.434
759.991
759.991
749.534
749.534
739.046
739.046
728.513
728.513
717.927
717.927
707.284
707.284
696.582
696.582
685.825
685.825
675.015
675.015
664.159
664.159
653.264
653.264
642.339
642.339
631.393
631.393
620.436
620.436
609.478
609.478
598.529
598.529
587.6
587.6
576.701
576.701
565.841
565.841
555.03
555.03
544.277
544.277
533.59
533.59
522.978
522.978
512.447
512.447
502.006
502.006
491.66
491.66
481.415
481.415
471.277
471.277
461.25
461.25
451.34
451.34
441.55
441.55
431.884
431.884
422.345
422.345
412.935
412.935
403.656
403.656
394.512
394.512
385.502
385.502
376.63
376.63
367.895
367.895
359.298
359.298
350.84
350.84
342.522
342.522
334.343
334.343
326.304
326.304
318.404
318.404
310.643
310.643
303.021
303.021
295.537
295.537
288.191
288.191
280.981
280.981
273.907
273.907
266.968
266.968
260.163
260.163
253.491
253.491
246.95
246.95
240.541
240.541
234.262
234.262
228.111
228.111
222.088
222.088
216.192
216.192
210.421
210.421
204.775
204.775
199.252
199.252
193.852
193.852
188.573
188.573
183.414
183.414
178.375
178.375
173.454
173.454
168.65
168.65
163.962
163.962
159.389
159.389
154.928
154.928
150.579
150.579
146.338
146.338
142.205
142.205
138.178
138.178
134.253
134.253
130.429
130.429
126.704
126.704
123.074
123.074
119.539
119.539
116.095
116.095
112.741
112.741
109.476
109.476
106.296
106.296
103.201
103.201
100.189
100.189
97.2589
97.2589
94.4086
94.4086
91.6369
91.6369
88.9423
88.9423
86.3233
86.3233
83.7785
83.7785
81.3061
81.3061
78.9048
78.9048
76.5728
76.5728
74.3087
74.3087
72.1109
72.1109
69.9781
69.9781
67.9088
67.9088
65.902
65.902
63.9563
63.9563
62.0709
62.0709
60.2446
60.2446
58.4766
58.4766
56.766
56.766
55.1118
55.1118
53.5133
53.5133
51.9696
51.9696
50.4798
50.4798
49.0429
49.0429
47.6578
47.6578
46.3233
46.3233
45.0382
45.0382
43.801
43.801
42.6103
42.6103
41.4646
41.4646
40.3624
40.3624
39.3023
39.3023
38.2828
38.2828
37.3027
37.3026
36.3603
36.3603
35.4542
35.4542
34.5828
34.5828
33.7444
33.7444
32.9369
32.9369
32.1586
32.1585
31.4071
31.4071
30.6803
30.6803
29.976
29.976
29.2924
29.2924
28.6278
28.6278
27.9812
27.9812
27.3516
27.3516
26.7385
26.7385
26.1414
26.1414
25.5596
25.5596
24.9922
24.9922
24.4379
24.4379
23.8955
23.8955
23.364
23.364
22.8423
22.8423
22.3299
22.3299
21.8262
21.8262
21.3311
21.3311
20.8447
20.8447
20.3673
20.3673
19.8994
19.8994
19.442
19.442
18.9957
18.9957
18.5609
18.5609
18.1373
18.1373
17.7245
17.7245
17.3212
17.3212
16.9259
16.9259
16.5363
16.5363
16.1503
16.1503
15.7656
15.7656
15.3808
15.3808
14.996
14.996
14.6121
14.6121
14.231
14.231
13.8552
13.8552
13.487
13.487
13.128
13.128
12.7789
12.7789
12.4396
12.4396
12.1097
12.1097
11.789
11.789
11.4783
11.4783
11.1784
11.1784
10.8906
10.8906
10.6157
10.6157
10.3542
10.3542
10.106
10.106
9.87082
9.87082
9.64842
9.64842
9.4386
9.4386
9.24126
9.24126
9.05643
9.05643
8.88416
8.88416
8.72433
8.72433
8.5764
8.5764
8.43942
8.43942
8.31203
8.31203
8.19242
8.19242
8.07842
8.07842
7.96777
7.96777
7.85854
7.85854
7.74895
7.74895
7.63696
7.63696
7.52002
7.52002
7.39555
7.39555
7.26182
7.26182
7.11864
7.11864
6.96844
6.96844
6.81393
6.81392
6.65785
6.65784
6.50352
6.50352
6.35467
6.35466
6.2134
6.2134
6.07982
6.07982
5.95381
5.95381
5.83547
5.83547
5.72484
5.72484
5.6218
5.6218
5.52635
5.52635
5.43873
5.43873
5.35899
5.35899
5.28678
5.28678
5.22134
5.22135
5.16169
5.1617
5.10655
5.10656
5.05427
5.05427
5.00253
5.00252
4.94844
4.94843
4.88922
4.88921
4.8262
4.8262
4.76215
4.76215
4.69952
4.69953
4.63991
4.63992
4.58466
4.58467
4.53538
4.53539
4.49334
4.49335
4.45912
4.45913
4.43279
4.43281
4.41447
4.41448
4.40484
4.40485
1.52416e+06
1.52416e+06
265053
265053
89396.3
89396.3
41491.9
41491.9
23271
23271
15190.9
15190.9
11166.8
11166.8
8902.42
8902.42
7486.05
7486.05
6525.26
6525.26
5832.87
5832.87
5310.6
5310.6
4902.56
4902.56
4574.78
4574.78
4305.51
4305.51
4080.18
4080.18
3888.67
3888.67
3723.72
3723.72
3580.01
3580.01
3453.53
3453.53
3341.18
3341.18
3240.56
3240.56
3149.75
3149.75
3067.21
3067.21
2991.67
2991.67
2922.11
2922.11
2857.63
2857.63
2797.52
2797.52
2741.14
2741.14
2687.96
2687.96
2637.51
2637.52
2589.39
2589.39
2543.24
2543.24
2498.74
2498.74
2455.63
2455.63
2413.65
2413.65
2372.59
2372.59
2332.25
2332.25
2292.46
2292.46
2253.07
2253.07
2213.95
2213.95
2174.98
2174.98
2136.07
2136.07
2097.12
2097.12
2058.08
2058.08
2018.89
2018.89
1979.51
1979.51
1939.92
1939.92
1900.11
1900.11
1860.08
1860.08
1819.85
1819.85
1779.45
1779.45
1738.92
1738.92
1698.33
1698.33
1657.73
1657.73
1617.21
1617.21
1576.86
1576.86
1536.78
1536.78
1497.07
1497.07
1457.84
1457.84
1419.21
1419.21
1381.31
1381.31
1344.24
1344.24
1308.13
1308.13
1273.09
1273.09
1239.22
1239.22
1206.62
1206.62
1175.37
1175.37
1145.52
1145.52
1117.14
1117.14
1090.24
1090.24
1064.85
1064.85
1040.94
1040.94
1018.5
1018.5
997.47
997.47
977.787
977.787
959.375
959.375
942.144
942.144
925.996
925.996
910.83
910.83
896.54
896.54
883.019
883.019
870.165
870.165
857.878
857.878
846.066
846.066
834.642
834.642
823.528
823.528
812.653
812.653
801.956
801.956
791.382
791.382
780.888
780.888
770.434
770.434
759.991
759.991
749.534
749.534
739.046
739.046
728.513
728.513
717.927
717.927
707.284
707.284
696.582
696.582
685.825
685.825
675.015
675.015
664.159
664.159
653.264
653.264
642.338
642.338
631.392
631.392
620.435
620.435
609.478
609.478
598.529
598.529
587.6
587.6
576.701
576.701
565.841
565.841
555.03
555.03
544.277
544.277
533.59
533.59
522.978
522.978
512.447
512.447
502.006
502.006
491.659
491.659
481.415
481.415
471.277
471.277
461.25
461.25
451.34
451.34
441.55
441.55
431.884
431.884
422.345
422.345
412.935
412.935
403.656
403.656
394.512
394.512
385.502
385.502
376.63
376.63
367.895
367.895
359.298
359.298
350.84
350.84
342.522
342.522
334.343
334.343
326.304
326.304
318.404
318.404
310.643
310.643
303.021
303.021
295.537
295.537
288.191
288.191
280.981
280.981
273.907
273.907
266.968
266.968
260.163
260.163
253.49
253.49
246.95
246.95
240.541
240.541
234.262
234.262
228.111
228.111
222.088
222.088
216.192
216.192
210.421
210.421
204.775
204.775
199.252
199.252
193.852
193.852
188.573
188.573
183.414
183.414
178.375
178.375
173.454
173.454
168.65
168.65
163.962
163.962
159.389
159.389
154.928
154.928
150.579
150.579
146.338
146.338
142.205
142.205
138.178
138.178
134.253
134.253
130.429
130.429
126.704
126.704
123.074
123.074
119.539
119.539
116.095
116.095
112.741
112.741
109.476
109.476
106.296
106.296
103.201
103.201
100.189
100.189
97.2588
97.2588
94.4085
94.4086
91.6368
91.6369
88.9423
88.9423
86.3233
86.3233
83.7784
83.7784
81.3061
81.3061
78.9047
78.9048
76.5728
76.5728
74.3087
74.3087
72.1109
72.1109
69.978
69.978
67.9088
67.9088
65.9019
65.9019
63.9563
63.9563
62.0708
62.0708
60.2446
60.2446
58.4765
58.4765
56.7659
56.7659
55.1117
55.1117
53.5132
53.5132
51.9695
51.9695
50.4797
50.4797
49.0428
49.0428
47.6576
47.6577
46.3232
46.3232
45.038
45.038
43.8009
43.8009
42.6102
42.6102
41.4645
41.4645
40.3623
40.3623
39.3021
39.3022
38.2827
38.2827
37.3025
37.3025
36.3601
36.3601
35.454
35.454
34.5826
34.5826
33.7441
33.7442
32.9367
32.9367
32.1583
32.1583
31.4068
31.4068
30.68
30.68
29.9758
29.9758
29.2922
29.2922
28.6276
28.6276
27.9809
27.9809
27.3513
27.3513
26.7382
26.7383
26.1412
26.1412
25.5594
25.5594
24.9919
24.992
24.4377
24.4377
23.8953
23.8953
23.3638
23.3638
22.8421
22.8421
22.3297
22.3297
21.826
21.826
21.331
21.331
20.8445
20.8445
20.3671
20.3671
19.8993
19.8993
19.4419
19.4419
18.9956
18.9956
18.5607
18.5607
18.1372
18.1372
17.7244
17.7244
17.3211
17.3211
16.9258
16.9258
16.5363
16.5363
16.1502
16.1502
15.7655
15.7655
15.3808
15.3808
14.996
14.996
14.6121
14.6121
14.2311
14.2311
13.8553
13.8553
13.4871
13.4871
13.1281
13.1281
12.779
12.779
12.4397
12.4397
12.1098
12.1098
11.7891
11.7892
11.4784
11.4784
11.1785
11.1785
10.8907
10.8907
10.6158
10.6158
10.3542
10.3542
10.106
10.106
9.87081
9.87083
9.6484
9.64842
9.43855
9.43857
9.24119
9.24121
9.05634
9.05635
8.88404
8.88405
8.72417
8.72418
8.5762
8.5762
8.43918
8.43918
8.31175
8.31175
8.19212
8.19211
8.0781
8.07808
7.96745
7.96743
7.85823
7.8582
7.74867
7.74863
7.63672
7.63667
7.51985
7.51978
7.39545
7.39536
7.2618
7.26171
7.11869
7.11861
6.96854
6.96849
6.81404
6.81404
6.65796
6.65801
6.50362
6.50368
6.35475
6.3548
6.21347
6.2135
6.07986
6.07989
5.95383
5.95386
5.83548
5.8355
5.72484
5.72486
5.62177
5.62179
5.52631
5.52632
5.43865
5.43865
5.35888
5.35887
5.28664
5.28661
5.22117
5.22113
5.16149
5.16145
5.10632
5.1063
5.05402
5.05405
5.00229
5.00236
4.94825
4.94834
4.88911
4.88919
4.82618
4.82625
4.76219
4.76225
4.69961
4.69965
4.64001
4.64005
4.58477
4.58479
4.53547
4.53549
4.49341
4.49343
4.45918
4.45919
4.43284
4.43285
4.4145
4.41451
4.40487
4.40487
4.40484
4.40486
4.41447
4.41449
4.4328
4.43281
4.45904
4.45905
4.49317
4.49318
4.53512
4.53513
4.58425
4.58426
4.63935
4.63936
4.69871
4.69871
4.76081
4.76081
4.82428
4.82428
4.88684
4.88684
4.94575
4.94574
4.99975
4.99974
5.0517
5.0517
5.10441
5.10441
5.16
5.16001
5.22006
5.22007
5.28586
5.28587
5.35842
5.35842
5.43854
5.43854
5.52652
5.52652
5.62231
5.62231
5.72569
5.72569
5.83666
5.83666
5.95532
5.95532
6.08166
6.08166
6.21556
6.21556
6.35713
6.35713
6.50626
6.50626
6.6609
6.66089
6.81725
6.81725
6.97187
6.97186
7.12191
7.12191
7.26466
7.26466
7.39773
7.39773
7.52161
7.52161
7.63813
7.63813
7.74987
7.74987
7.85932
7.85932
7.96844
7.96844
8.07898
8.07897
8.19288
8.19288
8.31236
8.31236
8.43961
8.43961
8.57647
8.57647
8.72429
8.72429
8.88403
8.88403
9.0562
9.0562
9.24093
9.24093
9.43816
9.43816
9.64786
9.64786
9.87014
9.87015
10.1052
10.1052
10.3533
10.3533
10.6147
10.6147
10.8894
10.8894
11.1771
11.1771
11.4769
11.4769
11.7876
11.7876
12.1082
12.1082
12.4381
12.4381
12.7773
12.7773
13.1262
13.1262
13.4849
13.4849
13.8528
13.8528
14.2284
14.2284
14.6094
14.6094
14.9932
14.9932
15.3779
15.3779
15.7622
15.7622
16.1467
16.1467
16.5328
16.5328
16.9225
16.9225
17.3182
17.3182
17.722
17.722
18.1355
18.1355
18.5595
18.5595
18.9947
18.9947
19.4411
19.4411
19.8984
19.8984
20.3661
20.3661
20.8433
20.8433
21.3296
21.3296
21.8245
21.8245
22.328
22.328
22.8404
22.8404
23.3622
23.3622
23.8938
23.8938
24.4363
24.4363
24.9908
24.9908
25.5586
25.5586
26.1408
26.1408
26.7385
26.7385
27.3522
27.3522
27.9822
27.9822
28.6292
28.6292
29.294
29.294
29.9777
29.9777
30.682
30.682
31.4089
31.4089
32.1606
32.1606
32.939
32.939
33.7465
33.7465
34.5848
34.5848
35.456
35.456
36.3617
36.3617
37.3038
37.3038
38.2837
38.2837
39.3029
39.3029
40.3628
40.3628
41.465
41.465
42.6106
42.6106
43.8013
43.8013
45.0385
45.0385
46.3237
46.3237
47.6583
47.6583
49.0435
49.0435
50.4805
50.4805
51.9704
51.9704
53.5142
53.5142
55.1126
55.1126
56.7668
56.7668
58.4774
58.4774
60.2455
60.2455
62.0718
62.0718
63.9572
63.9572
65.9028
65.9028
67.9097
67.9097
69.9789
69.9789
72.1119
72.1119
74.3096
74.3097
76.5737
76.5737
78.9056
78.9056
81.3068
81.3068
83.779
83.779
86.3238
86.3238
88.9427
88.9427
91.6372
91.6372
94.4089
94.4089
97.2591
97.2591
100.189
100.189
103.201
103.201
106.296
106.296
109.476
109.476
112.742
112.742
116.095
116.095
119.539
119.539
123.074
123.074
126.704
126.704
130.429
130.429
134.253
134.253
138.178
138.178
142.206
142.206
146.339
146.339
150.579
150.579
154.928
154.928
159.389
159.389
163.963
163.963
168.651
168.651
173.454
173.454
178.375
178.375
183.414
183.414
188.572
188.572
193.851
193.851
199.251
199.251
204.774
204.774
210.42
210.42
216.191
216.191
222.087
222.087
228.11
228.11
234.261
234.261
240.54
240.54
246.95
246.95
253.49
253.49
260.162
260.162
266.967
266.967
273.907
273.907
280.981
280.981
288.191
288.191
295.538
295.538
303.022
303.022
310.645
310.645
318.406
318.406
326.306
326.306
334.346
334.346
342.525
342.525
350.843
350.843
359.301
359.301
367.897
367.897
376.632
376.632
385.505
385.505
394.515
394.515
403.66
403.66
412.938
412.938
422.347
422.347
431.887
431.887
441.552
441.552
451.341
451.341
461.25
461.25
471.276
471.276
481.412
481.412
491.656
491.656
502
502
512.439
512.439
522.967
522.967
533.577
533.577
544.262
544.262
555.015
555.015
565.825
565.825
576.684
576.684
587.583
587.583
598.512
598.512
609.46
609.46
620.418
620.418
631.375
631.375
642.319
642.319
653.242
653.242
664.137
664.137
674.993
674.993
685.803
685.803
696.561
696.561
707.264
707.264
717.909
717.909
728.495
728.495
739.028
739.028
749.514
749.514
759.966
759.966
770.4
770.4
780.842
780.842
791.325
791.325
801.89
801.89
812.583
812.583
823.455
823.455
834.566
834.566
845.985
845.985
857.792
857.792
870.071
870.071
882.918
882.918
896.431
896.431
910.714
910.714
925.874
925.874
942.017
942.017
959.244
959.244
977.654
977.654
997.335
997.335
1018.36
1018.36
1040.8
1040.8
1064.71
1064.71
1090.1
1090.1
1116.99
1116.99
1145.37
1145.37
1175.22
1175.22
1206.47
1206.47
1239.08
1239.08
1272.95
1272.95
1307.99
1307.99
1344.11
1344.11
1381.17
1381.17
1419.08
1419.08
1457.71
1457.71
1496.94
1496.94
1536.66
1536.66
1576.76
1576.76
1617.12
1617.12
1657.65
1657.65
1698.27
1698.27
1738.88
1738.88
1779.43
1779.43
1819.85
1819.85
1860.09
1860.09
1900.14
1900.14
1939.97
1939.97
1979.58
1979.58
2018.98
2018.98
2058.19
2058.19
2097.25
2097.25
2136.21
2136.21
2175.13
2175.13
2214.12
2214.12
2253.25
2253.25
2292.65
2292.65
2332.44
2332.44
2372.78
2372.78
2413.85
2413.85
2455.83
2455.83
2498.95
2498.95
2543.45
2543.45
2589.6
2589.6
2637.72
2637.72
2688.16
2688.16
2741.35
2741.35
2797.73
2797.73
2857.85
2857.85
2922.32
2922.32
2991.89
2991.89
3067.42
3067.42
3149.96
3149.96
3240.77
3240.77
3341.38
3341.38
3453.72
3453.72
3580.2
3580.2
3723.91
3723.91
3888.85
3888.85
4080.36
4080.36
4305.69
4305.69
4574.95
4574.95
4902.73
4902.73
5310.76
5310.76
5833.03
5833.03
6525.42
6525.42
7486.21
7486.21
8902.56
8902.56
11166.9
11166.9
15191
15191
23271.1
23271.1
41491.9
41491.9
89396.5
89396.5
265053
265053
1.52416e+06
1.52416e+06
4.40487
4.40487
4.41451
4.41451
4.43284
4.43285
4.4591
4.45911
4.49325
4.49326
4.53521
4.53523
4.58435
4.58438
4.63945
4.63948
4.69879
4.69883
4.76084
4.7609
4.82425
4.82433
4.88673
4.88682
4.94556
4.94564
4.99951
4.99958
5.05145
5.05148
5.10418
5.10416
5.1598
5.15976
5.21989
5.21985
5.28572
5.2857
5.35832
5.3583
5.43847
5.43847
5.52648
5.52649
5.62229
5.6223
5.72568
5.7257
5.83667
5.83669
5.95535
5.95537
6.0817
6.08173
6.21563
6.21566
6.35722
6.35727
6.50637
6.50642
6.66101
6.66106
6.81737
6.81737
6.97196
6.97191
7.12196
7.12188
7.26464
7.26455
7.39763
7.39754
7.52143
7.52136
7.6379
7.63784
7.74959
7.74955
7.85901
7.85898
7.96812
7.9681
8.07866
8.07865
8.19258
8.19257
8.31208
8.31208
8.43938
8.43938
8.57627
8.57628
8.72414
8.72414
8.88391
8.88392
9.05611
9.05613
9.24087
9.24088
9.43812
9.43814
9.64784
9.64786
9.87014
9.87016
10.1052
10.1052
10.3533
10.3533
10.6147
10.6147
10.8895
10.8895
11.1772
11.1772
11.477
11.477
11.7877
11.7877
12.1083
12.1083
12.4382
12.4382
12.7774
12.7774
13.1263
13.1263
13.485
13.485
13.8529
13.8529
14.2285
14.2285
14.6095
14.6095
14.9933
14.9933
15.3778
15.3779
15.7622
15.7622
16.1467
16.1467
16.5327
16.5327
16.9224
16.9224
17.3181
17.3181
17.7219
17.7219
18.1353
18.1353
18.5594
18.5594
18.9946
18.9946
19.441
19.441
19.8983
19.8983
20.3659
20.3659
20.8431
20.8431
21.3294
21.3294
21.8243
21.8243
22.3278
22.3278
22.8402
22.8402
23.362
23.362
23.8936
23.8936
24.436
24.4361
24.9906
24.9906
25.5583
25.5584
26.1406
26.1406
26.7382
26.7382
27.3519
27.3519
27.982
27.982
28.6289
28.629
29.2937
29.2937
29.9775
29.9775
30.6818
30.6818
31.4087
31.4087
32.1603
32.1603
32.9388
32.9388
33.7463
33.7463
34.5846
34.5846
35.4558
35.4558
36.3615
36.3615
37.3036
37.3036
38.2835
38.2835
39.3027
39.3027
40.3627
40.3627
41.4648
41.4648
42.6105
42.6105
43.8012
43.8012
45.0384
45.0384
46.3236
46.3236
47.6582
47.6582
49.0434
49.0434
50.4804
50.4804
51.9703
51.9704
53.5141
53.5141
55.1126
55.1126
56.7667
56.7667
58.4774
58.4774
60.2454
60.2454
62.0717
62.0717
63.9571
63.9571
65.9027
65.9027
67.9096
67.9096
69.9789
69.9789
72.1118
72.1118
74.3096
74.3096
76.5737
76.5737
78.9055
78.9055
81.3068
81.3068
83.779
83.779
86.3238
86.3238
88.9426
88.9427
91.6372
91.6372
94.4088
94.4088
97.2591
97.2591
100.189
100.189
103.201
103.201
106.296
106.296
109.476
109.476
112.742
112.742
116.095
116.095
119.539
119.539
123.074
123.074
126.704
126.704
130.429
130.429
134.253
134.253
138.178
138.178
142.206
142.206
146.339
146.339
150.579
150.579
154.928
154.928
159.389
159.389
163.963
163.963
168.651
168.651
173.454
173.454
178.375
178.375
183.414
183.414
188.572
188.572
193.851
193.851
199.251
199.251
204.774
204.774
210.42
210.42
216.191
216.191
222.087
222.087
228.11
228.11
234.261
234.261
240.54
240.54
246.95
246.95
253.49
253.49
260.162
260.162
266.967
266.967
273.907
273.907
280.981
280.981
288.191
288.191
295.538
295.538
303.022
303.022
310.645
310.645
318.406
318.406
326.306
326.306
334.346
334.346
342.524
342.524
350.843
350.843
359.3
359.3
367.897
367.897
376.632
376.632
385.505
385.505
394.515
394.515
403.66
403.66
412.938
412.938
422.347
422.347
431.886
431.886
441.552
441.552
451.341
451.341
461.25
461.25
471.276
471.276
481.412
481.412
491.656
491.656
502
502
512.439
512.439
522.966
522.966
533.577
533.577
544.262
544.262
555.015
555.015
565.825
565.825
576.684
576.684
587.583
587.583
598.512
598.512
609.46
609.46
620.418
620.418
631.374
631.374
642.319
642.319
653.242
653.242
664.137
664.137
674.993
674.993
685.803
685.803
696.561
696.561
707.264
707.264
717.909
717.909
728.495
728.495
739.028
739.028
749.514
749.514
759.966
759.966
770.4
770.4
780.842
780.842
791.325
791.325
801.889
801.889
812.582
812.582
823.455
823.455
834.565
834.565
845.985
845.985
857.792
857.792
870.071
870.071
882.918
882.918
896.431
896.431
910.714
910.714
925.874
925.874
942.017
942.017
959.244
959.244
977.654
977.654
997.335
997.335
1018.36
1018.36
1040.81
1040.81
1064.71
1064.71
1090.1
1090.1
1116.99
1116.99
1145.37
1145.37
1175.22
1175.22
1206.47
1206.47
1239.08
1239.08
1272.95
1272.95
1307.99
1307.99
1344.11
1344.11
1381.17
1381.17
1419.08
1419.08
1457.71
1457.71
1496.94
1496.94
1536.66
1536.66
1576.76
1576.76
1617.12
1617.12
1657.65
1657.65
1698.27
1698.27
1738.88
1738.88
1779.43
1779.43
1819.85
1819.85
1860.09
1860.09
1900.14
1900.14
1939.97
1939.97
1979.58
1979.58
2018.98
2018.98
2058.19
2058.19
2097.25
2097.25
2136.21
2136.21
2175.13
2175.13
2214.12
2214.12
2253.25
2253.25
2292.65
2292.65
2332.44
2332.44
2372.78
2372.78
2413.85
2413.85
2455.83
2455.83
2498.95
2498.95
2543.45
2543.45
2589.6
2589.6
2637.72
2637.72
2688.16
2688.16
2741.35
2741.35
2797.73
2797.73
2857.85
2857.85
2922.32
2922.32
2991.89
2991.89
3067.42
3067.42
3149.96
3149.96
3240.77
3240.77
3341.38
3341.38
3453.72
3453.72
3580.2
3580.2
3723.91
3723.91
3888.85
3888.85
4080.36
4080.36
4305.69
4305.69
4574.95
4574.95
4902.72
4902.72
5310.76
5310.76
5833.03
5833.03
6525.42
6525.42
7486.2
7486.2
8902.56
8902.56
11166.9
11166.9
15191
15191
23271.1
23271.1
41491.9
41491.9
89396.5
89396.5
265053
265053
1.52416e+06
1.52416e+06
)
;

boundaryField
{
    walls
    {
        blending        binomial2;
        n               2;
        beta1           0.075;
        type            omegaWallFunction;
        value           nonuniform List<scalar> 8(1.52416e+06 1.52416e+06 1.52416e+06 1.52416e+06 1.52416e+06 1.52416e+06 1.52416e+06 1.52416e+06);
    }
    inlet
    {
        type            cyclic;
    }
    outlet
    {
        type            cyclic;
    }
    sides
    {
        type            empty;
    }
}


// ************************************************************************* //
