/*--------------------------------*- C++ -*----------------------------------*\
| =========                 |                                                 |
| \\      /  F ield         | OpenFOAM: The Open Source CFD Toolbox           |
|  \\    /   O peration     | Version:  2012                                  |
|   \\  /    A nd           | Website:  www.openfoam.com                      |
|    \\/     M anipulation  |                                                 |
\*---------------------------------------------------------------------------*/
FoamFile
{
    version     2.0;
    format      ascii;
    class       volScalarField;
    location    "12300";
    object      k;
}
// * * * * * * * * * * * * * * * * * * * * * * * * * * * * * * * * * * * * * //

dimensions      [0 2 -2 0 0 0 0];


internalField   nonuniform List<scalar> 
2560
(
0.002384
0.002384
0.0526782
0.0526782
0.37366
0.37366
1.29266
1.29266
2.82603
2.82603
4.56215
4.56215
6.21947
6.21947
7.74174
7.74174
9.14403
9.14403
10.4499
10.4499
11.6789
11.6789
12.8455
12.8455
13.9602
13.9602
15.0309
15.0309
16.0634
16.0634
17.0619
17.0619
18.0297
18.0297
18.9692
18.9692
19.8821
19.8821
20.7695
20.7695
21.6324
21.6324
22.471
22.471
23.2856
23.2856
24.0759
24.0759
24.8416
24.8416
25.5822
25.5822
26.2968
26.2968
26.9845
26.9845
27.6443
27.6443
28.2751
28.2751
28.8754
28.8754
29.444
29.444
29.9795
29.9795
30.4803
30.4803
30.945
30.945
31.3721
31.3721
31.7602
31.7602
32.1078
32.1078
32.4136
32.4136
32.6764
32.6764
32.8952
32.8952
33.069
33.069
33.1971
33.1971
33.2791
33.2791
33.3147
33.3147
33.304
33.304
33.2473
33.2473
33.1455
33.1455
32.9994
32.9994
32.8106
32.8106
32.5809
32.5809
32.3125
32.3125
32.0081
32.0081
31.6706
31.6706
31.3034
31.3034
30.9104
30.9104
30.4957
30.4957
30.0636
30.0636
29.619
29.619
29.1667
29.1667
28.7119
28.7119
28.2598
28.2598
27.8155
27.8155
27.3842
27.3842
26.9709
26.9709
26.5803
26.5803
26.2168
26.2168
25.8844
25.8844
25.5863
25.5863
25.3255
25.3255
25.104
25.104
24.9231
24.9231
24.7836
24.7836
24.6853
24.6853
24.6273
24.6273
24.608
24.608
24.625
24.625
24.6754
24.6754
24.7559
24.7559
24.8627
24.8627
24.9917
24.9917
25.1386
25.1386
25.2989
25.2989
25.4684
25.4684
25.6427
25.6427
25.8176
25.8176
25.9891
25.9891
26.1538
26.1538
26.3081
26.3081
26.4492
26.4492
26.5744
26.5744
26.6814
26.6814
26.7684
26.7684
26.8339
26.8339
26.8768
26.8768
26.8961
26.8961
26.8914
26.8914
26.8624
26.8624
26.8092
26.8092
26.732
26.732
26.6313
26.6313
26.5076
26.5076
26.3617
26.3617
26.1945
26.1945
26.007
26.007
25.8001
25.8001
25.5749
25.5749
25.3327
25.3327
25.0745
25.0745
24.8014
24.8014
24.5146
24.5146
24.2153
24.2153
23.9045
23.9045
23.5833
23.5833
23.2528
23.2528
22.9139
22.9139
22.5676
22.5676
22.2149
22.2149
21.8566
21.8566
21.4936
21.4936
21.1265
21.1265
20.7562
20.7562
20.3834
20.3834
20.0087
20.0087
19.6326
19.6326
19.2559
19.2559
18.8789
18.8789
18.5022
18.5022
18.1262
18.1262
17.7513
17.7513
17.378
17.378
17.0065
17.0065
16.6373
16.6373
16.2705
16.2705
15.9066
15.9066
15.5457
15.5457
15.1882
15.1882
14.8341
14.8341
14.4838
14.4838
14.1374
14.1374
13.7951
13.7951
13.457
13.457
13.1233
13.1233
12.7941
12.7941
12.4696
12.4696
12.1497
12.1497
11.8348
11.8348
11.5248
11.5248
11.2198
11.2198
10.9199
10.9199
10.6252
10.6252
10.3357
10.3357
10.0516
10.0516
9.77287
9.77287
9.49957
9.49957
9.23177
9.23177
8.96952
8.96952
8.71285
8.71285
8.46179
8.46179
8.21639
8.21639
7.97665
7.97664
7.74257
7.74257
7.51415
7.51415
7.29136
7.29136
7.07416
7.07416
6.8625
6.8625
6.6563
6.6563
6.45548
6.45548
6.25995
6.25995
6.0696
6.0696
5.88433
5.88433
5.70403
5.70403
5.5286
5.5286
5.35795
5.35795
5.19198
5.19198
5.03062
5.03062
4.87379
4.87379
4.72141
4.72141
4.57344
4.57344
4.4298
4.4298
4.29042
4.29042
4.15525
4.15525
4.02423
4.02423
3.89727
3.89727
3.77431
3.7743
3.65526
3.65526
3.54006
3.54006
3.42862
3.42862
3.32085
3.32085
3.21669
3.21669
3.11606
3.11606
3.01889
3.01889
2.92513
2.92513
2.83471
2.83471
2.74759
2.74759
2.66372
2.66372
2.58305
2.58305
2.50555
2.50555
2.43117
2.43117
2.35988
2.35988
2.29163
2.29163
2.22637
2.22637
2.16405
2.16405
2.1046
2.1046
2.04796
2.04796
1.99405
1.99405
1.94278
1.94278
1.89406
1.89406
1.84779
1.84778
1.80387
1.80387
1.76222
1.76222
1.72275
1.72275
1.68537
1.68537
1.64998
1.64998
1.61648
1.61648
1.58477
1.58477
1.55473
1.55473
1.52623
1.52623
1.49912
1.49912
1.47327
1.47327
1.44851
1.44851
1.4247
1.4247
1.40169
1.40169
1.37939
1.37939
1.3577
1.3577
1.33658
1.33658
1.31598
1.31598
1.29589
1.29589
1.27626
1.27626
1.25701
1.25701
1.23807
1.23807
1.21934
1.21934
1.20074
1.20074
1.18221
1.18221
1.1637
1.1637
1.1452
1.14519
1.12668
1.12668
1.10818
1.10818
1.08974
1.08974
1.07143
1.07143
1.05333
1.05333
1.03552
1.03552
1.01804
1.01804
1.0009
1.0009
0.984057
0.984056
0.967411
0.967411
0.950831
0.950831
0.934139
0.934138
0.917134
0.917134
0.899639
0.899639
0.881554
0.881553
0.862892
0.862891
0.843775
0.843774
0.824408
0.824407
0.805045
0.805044
0.785933
0.785932
0.767252
0.76725
0.749088
0.749087
0.731448
0.731447
0.714306
0.714305
0.697668
0.697666
0.681604
0.681602
0.666237
0.666236
0.651705
0.651703
0.638121
0.63812
0.625561
0.62556
0.614057
0.614056
0.60361
0.603609
0.594211
0.594211
0.585853
0.585853
0.578532
0.578532
0.572246
0.572246
0.566988
0.566989
0.562723
0.562725
0.559379
0.559382
0.556835
0.556839
0.554928
0.554934
0.553447
0.553455
0.552137
0.552148
0.550738
0.550751
0.549025
0.54904
0.546793
0.546806
0.543902
0.543909
0.540163
0.540157
0.535285
0.53527
0.528955
0.528936
0.521141
0.521124
0.512039
0.512025
0.501954
0.501942
0.491318
0.491309
0.480671
0.480665
0.470493
0.470489
0.461064
0.46106
0.452414
0.452411
0.444536
0.444534
0.437438
0.437436
0.431126
0.431125
0.425597
0.425596
0.420859
0.420859
0.416925
0.416925
0.413787
0.413789
0.411367
0.411369
0.40953
0.409534
0.408119
0.408125
0.406935
0.406945
0.405662
0.405675
0.40385
0.403869
0.401086
0.401109
0.397173
0.397199
0.392234
0.392255
0.386759
0.386768
0.381194
0.38119
0.375774
0.375765
0.37062
0.370611
0.365907
0.365902
0.361836
0.361834
0.358499
0.3585
0.355904
0.355906
0.354066
0.35407
0.353084
0.353089
0.002384
0.002384
0.0526782
0.0526782
0.37366
0.37366
1.29266
1.29266
2.82603
2.82603
4.56215
4.56215
6.21947
6.21947
7.74174
7.74174
9.14403
9.14403
10.4499
10.4499
11.6789
11.6789
12.8455
12.8455
13.9602
13.9602
15.0309
15.0309
16.0634
16.0634
17.0619
17.0619
18.0297
18.0297
18.9692
18.9692
19.8821
19.8821
20.7695
20.7695
21.6324
21.6324
22.471
22.471
23.2856
23.2856
24.0759
24.0759
24.8416
24.8416
25.5822
25.5822
26.2968
26.2968
26.9845
26.9845
27.6443
27.6443
28.2751
28.2751
28.8754
28.8754
29.444
29.444
29.9795
29.9795
30.4803
30.4803
30.945
30.945
31.3721
31.3721
31.7602
31.7602
32.1078
32.1078
32.4136
32.4136
32.6764
32.6764
32.8952
32.8952
33.069
33.069
33.1971
33.1971
33.2791
33.2791
33.3147
33.3147
33.304
33.304
33.2474
33.2474
33.1455
33.1455
32.9994
32.9994
32.8106
32.8106
32.5809
32.5809
32.3125
32.3125
32.0081
32.0081
31.6706
31.6706
31.3034
31.3034
30.9104
30.9104
30.4957
30.4957
30.0636
30.0636
29.619
29.619
29.1667
29.1667
28.7119
28.7119
28.2598
28.2598
27.8155
27.8155
27.3842
27.3842
26.9709
26.9709
26.5803
26.5803
26.2169
26.2169
25.8844
25.8844
25.5863
25.5863
25.3255
25.3255
25.104
25.104
24.9231
24.9231
24.7836
24.7836
24.6853
24.6853
24.6273
24.6273
24.608
24.608
24.625
24.625
24.6754
24.6754
24.7559
24.7559
24.8627
24.8627
24.9917
24.9917
25.1386
25.1386
25.2989
25.2989
25.4684
25.4684
25.6427
25.6427
25.8175
25.8175
25.9891
25.9891
26.1538
26.1538
26.3081
26.3081
26.4492
26.4492
26.5744
26.5744
26.6814
26.6814
26.7684
26.7684
26.8339
26.8339
26.8767
26.8767
26.8961
26.8961
26.8914
26.8914
26.8624
26.8624
26.8092
26.8092
26.732
26.732
26.6313
26.6313
26.5076
26.5076
26.3617
26.3617
26.1945
26.1945
26.0069
26.0069
25.8001
25.8001
25.5749
25.5749
25.3327
25.3327
25.0744
25.0744
24.8014
24.8014
24.5146
24.5146
24.2153
24.2153
23.9045
23.9045
23.5833
23.5833
23.2528
23.2528
22.9139
22.9139
22.5676
22.5676
22.2149
22.2149
21.8566
21.8566
21.4936
21.4936
21.1265
21.1265
20.7562
20.7562
20.3834
20.3834
20.0087
20.0087
19.6326
19.6326
19.2559
19.2559
18.8789
18.8789
18.5022
18.5022
18.1262
18.1262
17.7513
17.7513
17.378
17.378
17.0065
17.0065
16.6373
16.6373
16.2705
16.2705
15.9066
15.9066
15.5457
15.5457
15.1882
15.1882
14.8341
14.8341
14.4838
14.4838
14.1374
14.1374
13.7951
13.7951
13.457
13.457
13.1233
13.1233
12.7941
12.7941
12.4696
12.4696
12.1497
12.1497
11.8348
11.8348
11.5248
11.5248
11.2198
11.2198
10.9199
10.9199
10.6252
10.6252
10.3357
10.3357
10.0516
10.0516
9.77286
9.77286
9.49957
9.49957
9.23177
9.23177
8.96951
8.96951
8.71284
8.71284
8.46179
8.46179
8.21638
8.21638
7.97664
7.97664
7.74256
7.74256
7.51414
7.51414
7.29135
7.29136
7.07416
7.07416
6.8625
6.8625
6.6563
6.6563
6.45548
6.45548
6.25995
6.25995
6.0696
6.0696
5.88433
5.88433
5.70403
5.70403
5.5286
5.5286
5.35794
5.35794
5.19198
5.19198
5.03061
5.03061
4.87378
4.87378
4.72141
4.72141
4.57343
4.57344
4.42979
4.42979
4.29042
4.29042
4.15525
4.15525
4.02422
4.02422
3.89726
3.89726
3.7743
3.7743
3.65526
3.65526
3.54005
3.54005
3.42861
3.42861
3.32085
3.32085
3.21669
3.21669
3.11605
3.11606
3.01889
3.01889
2.92512
2.92512
2.8347
2.8347
2.74758
2.74758
2.66371
2.66371
2.58304
2.58304
2.50554
2.50554
2.43117
2.43117
2.35987
2.35987
2.29162
2.29162
2.22636
2.22636
2.16404
2.16404
2.10459
2.10459
2.04795
2.04795
1.99404
1.99404
1.94277
1.94277
1.89404
1.89404
1.84777
1.84777
1.80386
1.80386
1.76221
1.76221
1.72274
1.72274
1.68535
1.68535
1.64996
1.64996
1.61647
1.61647
1.58476
1.58476
1.55471
1.55471
1.52621
1.52621
1.4991
1.49911
1.47325
1.47325
1.44849
1.44849
1.42468
1.42468
1.40168
1.40168
1.37937
1.37937
1.35768
1.35768
1.33656
1.33656
1.31597
1.31597
1.29588
1.29588
1.27624
1.27624
1.257
1.257
1.23806
1.23806
1.21933
1.21933
1.20073
1.20073
1.18219
1.18219
1.16369
1.16369
1.14518
1.14518
1.12667
1.12667
1.10817
1.10817
1.08973
1.08973
1.07142
1.07142
1.05332
1.05332
1.03551
1.03551
1.01803
1.01803
1.00089
1.0009
0.98405
0.98405
0.967405
0.967406
0.950826
0.950827
0.934135
0.934136
0.917132
0.917132
0.899638
0.899639
0.881555
0.881555
0.862893
0.862894
0.843777
0.843778
0.824412
0.824413
0.80505
0.805051
0.785938
0.785939
0.767257
0.767258
0.749094
0.749095
0.731454
0.731455
0.714312
0.714313
0.697673
0.697674
0.681608
0.68161
0.666241
0.666242
0.651707
0.651709
0.638123
0.638124
0.625562
0.625563
0.614057
0.614058
0.603608
0.603609
0.594208
0.594209
0.585849
0.58585
0.578527
0.578527
0.572239
0.572239
0.56698
0.566979
0.562714
0.562712
0.559368
0.559365
0.556823
0.556819
0.554916
0.55491
0.553436
0.553428
0.552128
0.552117
0.550732
0.550719
0.549022
0.549007
0.546791
0.546777
0.543896
0.54389
0.540149
0.540154
0.535266
0.535281
0.528937
0.528955
0.521129
0.521146
0.512033
0.512047
0.501952
0.501963
0.491319
0.491328
0.480674
0.48068
0.470496
0.470501
0.461065
0.461069
0.452414
0.452417
0.444536
0.444538
0.437437
0.437438
0.431124
0.431125
0.425594
0.425595
0.420855
0.420855
0.416919
0.416918
0.41378
0.413778
0.411358
0.411356
0.409521
0.409517
0.40811
0.408104
0.40693
0.40692
0.405661
0.405647
0.403856
0.403838
0.4011
0.401077
0.397194
0.397168
0.392254
0.392233
0.38677
0.386761
0.381194
0.381198
0.37577
0.37578
0.370617
0.370626
0.365907
0.365912
0.36184
0.361841
0.358504
0.358503
0.35591
0.355907
0.354073
0.354069
0.353091
0.353087
0.35308
0.353084
0.354053
0.354056
0.355881
0.355883
0.358456
0.358457
0.361774
0.361772
0.365824
0.365818
0.370507
0.370497
0.375633
0.375622
0.38101
0.381005
0.386504
0.386515
0.391902
0.391925
0.39677
0.396797
0.40063
0.400654
0.403372
0.403392
0.40521
0.405224
0.406542
0.406552
0.407787
0.407794
0.409254
0.409258
0.41114
0.411142
0.413608
0.413609
0.416797
0.416798
0.420785
0.420785
0.425576
0.425575
0.431157
0.431156
0.437522
0.43752
0.444672
0.44467
0.452602
0.452599
0.461304
0.4613
0.470784
0.470779
0.481007
0.481
0.491704
0.491694
0.502386
0.502374
0.512493
0.512477
0.521583
0.521564
0.529351
0.529331
0.535606
0.535589
0.540419
0.540413
0.544116
0.544123
0.546978
0.546993
0.549191
0.549207
0.550886
0.5509
0.552268
0.552279
0.553561
0.55357
0.555023
0.55503
0.556909
0.556914
0.559434
0.559438
0.562761
0.562764
0.567011
0.567013
0.572256
0.572257
0.57853
0.57853
0.585839
0.585839
0.594184
0.594184
0.603571
0.60357
0.614005
0.614004
0.625496
0.625495
0.638045
0.638044
0.651618
0.651616
0.666138
0.666137
0.681494
0.681492
0.697556
0.697555
0.714197
0.714196
0.731335
0.731334
0.748963
0.748961
0.767107
0.767105
0.78576
0.785759
0.80484
0.804839
0.824179
0.824178
0.843536
0.843535
0.862641
0.862641
0.881279
0.881279
0.899329
0.899328
0.916798
0.916798
0.933797
0.933797
0.950499
0.950499
0.967108
0.967108
0.983801
0.9838
1.0007
1.0007
1.01789
1.01789
1.0354
1.0354
1.05321
1.05321
1.0713
1.0713
1.0896
1.0896
1.10802
1.10802
1.1265
1.1265
1.145
1.145
1.16349
1.16349
1.182
1.182
1.20053
1.20053
1.21914
1.21914
1.23787
1.23787
1.25683
1.25683
1.27611
1.27611
1.29578
1.29578
1.31591
1.31591
1.33656
1.33656
1.35772
1.35772
1.37943
1.37943
1.40176
1.40176
1.42478
1.42478
1.4486
1.4486
1.47337
1.47337
1.49924
1.49924
1.52635
1.52635
1.55486
1.55486
1.5849
1.5849
1.61659
1.61659
1.65007
1.65007
1.68544
1.68544
1.7228
1.7228
1.76226
1.76226
1.8039
1.8039
1.84781
1.84781
1.89408
1.89408
1.94281
1.94281
1.99408
1.99408
2.048
2.048
2.10465
2.10465
2.1641
2.1641
2.22644
2.22644
2.29171
2.29171
2.35997
2.35996
2.43126
2.43126
2.50564
2.50564
2.58314
2.58314
2.66381
2.66381
2.74769
2.74769
2.83481
2.83481
2.92523
2.92523
3.019
3.019
3.11618
3.11618
3.21682
3.21682
3.32098
3.32098
3.42875
3.42875
3.54019
3.54019
3.65539
3.65539
3.77443
3.77443
3.89739
3.89739
4.02434
4.02434
4.15537
4.15537
4.29054
4.29054
4.42992
4.42992
4.57357
4.57357
4.72155
4.72155
4.87392
4.87392
5.03077
5.03077
5.19214
5.19214
5.35811
5.35811
5.52876
5.52876
5.70419
5.70419
5.8845
5.8845
6.06978
6.06978
6.26015
6.26015
6.4557
6.4557
6.65653
6.65653
6.86274
6.86274
7.07442
7.07442
7.29162
7.29162
7.51442
7.51442
7.74285
7.74285
7.97693
7.97693
8.21668
8.21667
8.46209
8.46209
8.71315
8.71315
8.96983
8.96983
9.23209
9.23209
9.4999
9.4999
9.77321
9.77321
10.052
10.052
10.3361
10.3361
10.6256
10.6256
10.9203
10.9203
11.2202
11.2202
11.5252
11.5252
11.8352
11.8352
12.1502
12.1502
12.4701
12.4701
12.7947
12.7947
13.1239
13.1239
13.4576
13.4576
13.7958
13.7958
14.1382
14.1382
14.4846
14.4846
14.835
14.835
15.1891
15.1891
15.5468
15.5468
15.9077
15.9077
16.2716
16.2716
16.6384
16.6384
17.0077
17.0077
17.3792
17.3792
17.7526
17.7526
18.1275
18.1275
18.5036
18.5036
18.8803
18.8803
19.2573
19.2573
19.6341
19.6341
20.0102
20.0102
20.3849
20.3849
20.7577
20.7577
21.128
21.128
21.495
21.495
21.858
21.858
22.2162
22.2162
22.5688
22.5688
22.9149
22.9149
23.2536
23.2536
23.5841
23.5841
23.9052
23.9052
24.216
24.216
24.5153
24.5153
24.8021
24.8021
25.0752
25.0752
25.3335
25.3335
25.5757
25.5757
25.8009
25.8009
26.0078
26.0078
26.1953
26.1953
26.3625
26.3625
26.5084
26.5084
26.6321
26.6321
26.7329
26.7329
26.8102
26.8102
26.8636
26.8636
26.8927
26.8927
26.8975
26.8975
26.8783
26.8783
26.8354
26.8354
26.7697
26.7697
26.6822
26.6822
26.5746
26.5746
26.4487
26.4487
26.3072
26.3072
26.1526
26.1526
25.9878
25.9878
25.816
25.816
25.6409
25.6409
25.4664
25.4664
25.2965
25.2965
25.1357
25.1357
24.9885
24.9885
24.8591
24.8591
24.7519
24.7519
24.6711
24.6711
24.6204
24.6204
24.6031
24.6031
24.6222
24.6222
24.68
24.68
24.778
24.778
24.9173
24.9173
25.0978
25.0978
25.319
25.319
25.5796
25.5796
25.8774
25.8774
26.2097
26.2097
26.573
26.573
26.9634
26.9634
27.3766
27.3766
27.8078
27.8078
28.2519
28.2519
28.7038
28.7038
29.1584
29.1584
29.6106
29.6106
30.0553
30.0553
30.4875
30.4875
30.9024
30.9024
31.2957
31.2957
31.6632
31.6632
32.0013
32.0013
32.3063
32.3063
32.5751
32.5751
32.8051
32.8051
32.9942
32.9942
33.1408
33.1408
33.2433
33.2433
33.3004
33.3004
33.3116
33.3116
33.2765
33.2765
33.1949
33.1949
33.0672
33.0672
32.8937
32.8937
32.6753
32.6753
32.4128
32.4128
32.1072
32.1072
31.7598
31.7598
31.3719
31.3719
30.9449
30.9449
30.4803
30.4803
29.9795
29.9795
29.4441
29.4441
28.8754
28.8754
28.2751
28.2751
27.6445
27.6445
26.9848
26.9848
26.2972
26.2972
25.5827
25.5827
24.8422
24.8422
24.0765
24.0765
23.2862
23.2862
22.4716
22.4716
21.6329
21.6329
20.77
20.77
19.8825
19.8825
18.9696
18.9696
18.0301
18.0301
17.0623
17.0623
16.0637
16.0637
15.0313
15.0313
13.9605
13.9605
12.8458
12.8458
11.6792
11.6792
10.4502
10.4502
9.14422
9.14423
7.74191
7.74191
6.21961
6.21961
4.56226
4.56226
2.8261
2.8261
1.29269
1.29269
0.373671
0.373671
0.0526796
0.0526796
0.00238413
0.00238413
0.353087
0.353083
0.354059
0.354056
0.355887
0.355885
0.358462
0.358461
0.361777
0.361779
0.365824
0.36583
0.370503
0.370513
0.375628
0.375639
0.38101
0.381014
0.386517
0.386506
0.391924
0.391901
0.396792
0.396764
0.400645
0.40062
0.403379
0.403359
0.405209
0.405195
0.406537
0.406527
0.407779
0.407772
0.409244
0.40924
0.411131
0.411128
0.4136
0.413599
0.416791
0.416791
0.420781
0.420781
0.425573
0.425574
0.431155
0.431156
0.437521
0.437522
0.444672
0.444674
0.452603
0.452605
0.461305
0.461309
0.470787
0.470792
0.48101
0.481017
0.491705
0.491715
0.502384
0.502396
0.512486
0.512501
0.521569
0.521588
0.529332
0.529352
0.535585
0.535602
0.540404
0.54041
0.54411
0.544103
0.546977
0.546962
0.549188
0.549172
0.55088
0.550866
0.552259
0.552247
0.55355
0.553541
0.555011
0.555004
0.556898
0.556893
0.559424
0.55942
0.562752
0.56275
0.567003
0.567002
0.572249
0.572249
0.578525
0.578525
0.585835
0.585835
0.594181
0.594182
0.603569
0.60357
0.614004
0.614005
0.625497
0.625498
0.638047
0.638048
0.65162
0.651622
0.666142
0.666143
0.681498
0.6815
0.697561
0.697563
0.714203
0.714205
0.731341
0.731342
0.748969
0.74897
0.767112
0.767114
0.785765
0.785767
0.804844
0.804846
0.824183
0.824184
0.843539
0.84354
0.862643
0.862644
0.88128
0.88128
0.899328
0.899329
0.916796
0.916797
0.933794
0.933794
0.950495
0.950495
0.967102
0.967102
0.983793
0.983794
1.00069
1.00069
1.01788
1.01788
1.03539
1.03539
1.0532
1.0532
1.07129
1.07129
1.08958
1.08959
1.10801
1.10801
1.12649
1.12649
1.14499
1.14499
1.16348
1.16348
1.18198
1.18198
1.20052
1.20052
1.21912
1.21912
1.23786
1.23786
1.25682
1.25682
1.27609
1.27609
1.29576
1.29576
1.3159
1.3159
1.33654
1.33654
1.3577
1.3577
1.37941
1.37941
1.40174
1.40174
1.42476
1.42476
1.44858
1.44858
1.47335
1.47335
1.49922
1.49922
1.52633
1.52633
1.55484
1.55484
1.58488
1.58488
1.61658
1.61658
1.65005
1.65005
1.68543
1.68543
1.72279
1.72279
1.76224
1.76224
1.80388
1.80388
1.84779
1.84779
1.89407
1.89407
1.94279
1.9428
1.99407
1.99407
2.04799
2.04799
2.10464
2.10464
2.16409
2.16409
2.22643
2.22643
2.2917
2.2917
2.35996
2.35996
2.43125
2.43125
2.50563
2.50563
2.58313
2.58313
2.66381
2.66381
2.74768
2.74768
2.8348
2.83481
2.92523
2.92523
3.019
3.019
3.11617
3.11617
3.21681
3.21681
3.32098
3.32098
3.42874
3.42874
3.54018
3.54018
3.65538
3.65538
3.77442
3.77442
3.89738
3.89738
4.02434
4.02434
4.15537
4.15537
4.29054
4.29054
4.42992
4.42992
4.57356
4.57356
4.72154
4.72154
4.87392
4.87392
5.03076
5.03076
5.19213
5.19213
5.3581
5.3581
5.52876
5.52876
5.70419
5.70419
5.8845
5.8845
6.06978
6.06978
6.26014
6.26014
6.45569
6.45569
6.65653
6.65653
6.86274
6.86274
7.07441
7.07441
7.29162
7.29162
7.51442
7.51442
7.74284
7.74284
7.97692
7.97692
8.21667
8.21667
8.46208
8.46208
8.71314
8.71314
8.96982
8.96982
9.23209
9.23209
9.4999
9.4999
9.7732
9.7732
10.052
10.052
10.3361
10.3361
10.6255
10.6255
10.9203
10.9203
11.2202
11.2202
11.5252
11.5252
11.8352
11.8352
12.1502
12.1502
12.4701
12.4701
12.7947
12.7947
13.1239
13.1239
13.4576
13.4576
13.7958
13.7958
14.1382
14.1382
14.4846
14.4846
14.835
14.835
15.1891
15.1891
15.5467
15.5467
15.9077
15.9077
16.2716
16.2716
16.6384
16.6384
17.0077
17.0077
17.3792
17.3792
17.7526
17.7526
18.1275
18.1275
18.5036
18.5036
18.8803
18.8803
19.2573
19.2573
19.6341
19.6341
20.0102
20.0102
20.3849
20.3849
20.7577
20.7577
21.128
21.128
21.495
21.495
21.858
21.858
22.2162
22.2162
22.5688
22.5688
22.9149
22.9149
23.2536
23.2536
23.5841
23.5841
23.9052
23.9052
24.216
24.216
24.5153
24.5153
24.8021
24.8021
25.0752
25.0752
25.3335
25.3335
25.5757
25.5757
25.8009
25.8009
26.0078
26.0078
26.1953
26.1953
26.3625
26.3625
26.5084
26.5084
26.6321
26.6321
26.7329
26.7329
26.8102
26.8102
26.8636
26.8636
26.8927
26.8927
26.8975
26.8975
26.8783
26.8783
26.8354
26.8354
26.7697
26.7697
26.6822
26.6822
26.5745
26.5745
26.4487
26.4487
26.3072
26.3072
26.1526
26.1526
25.9878
25.9878
25.816
25.816
25.6409
25.6409
25.4664
25.4664
25.2965
25.2965
25.1357
25.1357
24.9885
24.9885
24.8591
24.8591
24.7519
24.7519
24.6711
24.6711
24.6204
24.6204
24.6031
24.6031
24.6222
24.6222
24.68
24.68
24.778
24.778
24.9173
24.9173
25.0978
25.0978
25.319
25.319
25.5796
25.5796
25.8774
25.8774
26.2097
26.2097
26.573
26.573
26.9634
26.9634
27.3766
27.3766
27.8078
27.8078
28.2519
28.2519
28.7038
28.7038
29.1584
29.1584
29.6106
29.6106
30.0553
30.0553
30.4875
30.4875
30.9024
30.9024
31.2957
31.2957
31.6632
31.6632
32.0013
32.0013
32.3063
32.3063
32.5751
32.5751
32.8051
32.8051
32.9942
32.9942
33.1408
33.1408
33.2433
33.2433
33.3004
33.3004
33.3116
33.3116
33.2765
33.2765
33.1949
33.1949
33.0672
33.0672
32.8937
32.8937
32.6753
32.6753
32.4128
32.4128
32.1072
32.1072
31.7598
31.7598
31.3719
31.3719
30.9449
30.9449
30.4803
30.4803
29.9795
29.9795
29.4441
29.4441
28.8754
28.8754
28.2751
28.2751
27.6445
27.6445
26.9848
26.9848
26.2972
26.2972
25.5827
25.5827
24.8422
24.8422
24.0765
24.0765
23.2862
23.2862
22.4716
22.4716
21.6329
21.6329
20.77
20.77
19.8825
19.8825
18.9696
18.9696
18.0301
18.0301
17.0623
17.0623
16.0637
16.0637
15.0312
15.0312
13.9605
13.9605
12.8458
12.8458
11.6792
11.6792
10.4502
10.4502
9.14422
9.14422
7.74191
7.74191
6.21961
6.2196
4.56226
4.56226
2.8261
2.8261
1.29269
1.29269
0.373671
0.373671
0.0526796
0.0526796
0.00238413
0.00238412
)
;

boundaryField
{
    walls
    {
        type            kqRWallFunction;
        value           nonuniform List<scalar> 8(0.002384 0.002384 0.002384 0.002384 0.00238413 0.00238413 0.00238413 0.00238412);
    }
    inlet
    {
        type            cyclic;
    }
    outlet
    {
        type            cyclic;
    }
    sides
    {
        type            empty;
    }
}


// ************************************************************************* //
