/*--------------------------------*- C++ -*----------------------------------*\
| =========                 |                                                 |
| \\      /  F ield         | OpenFOAM: The Open Source CFD Toolbox           |
|  \\    /   O peration     | Version:  2012                                  |
|   \\  /    A nd           | Website:  www.openfoam.com                      |
|    \\/     M anipulation  |                                                 |
\*---------------------------------------------------------------------------*/
FoamFile
{
    version     2.0;
    format      ascii;
    class       volScalarField;
    location    "12300";
    object      nut;
}
// * * * * * * * * * * * * * * * * * * * * * * * * * * * * * * * * * * * * * //

dimensions      [0 2 -1 0 0 0 0];


internalField   nonuniform List<scalar> 
2560
(
1.56415e-09
1.56415e-09
1.98795e-07
1.98795e-07
4.18998e-06
4.18999e-06
3.1312e-05
3.1312e-05
0.000120902
0.000120902
0.000292829
0.000292829
0.000532327
0.000532327
0.000818795
0.000818795
0.00113783
0.00113783
0.00148028
0.00148028
0.00184016
0.00184016
0.00221334
0.00221334
0.00259679
0.00259679
0.00298825
0.00298825
0.00338593
0.00338593
0.00378838
0.00378838
0.00419442
0.00419442
0.00460303
0.00460303
0.00501333
0.00501333
0.00542458
0.00542458
0.00583607
0.00583607
0.0062472
0.0062472
0.0066574
0.0066574
0.00706615
0.00706615
0.00747296
0.00747296
0.00787736
0.00787736
0.0082789
0.0082789
0.00867716
0.00867716
0.00907173
0.00907173
0.0094622
0.0094622
0.00984818
0.00984818
0.0102293
0.0102293
0.0106052
0.0106052
0.0109754
0.0109754
0.0113397
0.0113397
0.0116976
0.0116976
0.0120489
0.0120489
0.0123932
0.0123932
0.0127301
0.0127301
0.0130595
0.0130595
0.0133811
0.0133811
0.0136945
0.0136945
0.0139997
0.0139997
0.0142963
0.0142963
0.0145844
0.0145844
0.0148637
0.0148637
0.0151343
0.0151343
0.0153963
0.0153963
0.0156496
0.0156496
0.0158945
0.0158945
0.0161313
0.0161313
0.0163604
0.0163604
0.0165821
0.0165821
0.0167972
0.0167972
0.0170064
0.0170064
0.0172104
0.0172104
0.0174105
0.0174105
0.0176076
0.0176076
0.0178032
0.0178032
0.0179987
0.0179987
0.0181958
0.0181958
0.0183963
0.0183963
0.018602
0.018602
0.0188151
0.0188151
0.0190375
0.0190375
0.0192715
0.0192715
0.0195192
0.0195192
0.0197825
0.0197825
0.0200635
0.0200635
0.0203638
0.0203638
0.0206849
0.0206849
0.021028
0.021028
0.0213937
0.0213937
0.0217825
0.0217825
0.0221942
0.0221942
0.0226283
0.0226283
0.0230839
0.0230839
0.0235595
0.0235595
0.0240535
0.0240535
0.0245638
0.0245638
0.0250882
0.0250882
0.0256244
0.0256244
0.0261697
0.0261697
0.0267217
0.0267217
0.0272778
0.0272778
0.0278355
0.0278355
0.0283926
0.0283926
0.0289469
0.0289469
0.0294962
0.0294962
0.0300389
0.0300389
0.0305732
0.0305732
0.0310978
0.0310978
0.0316113
0.0316113
0.0321127
0.0321127
0.0326012
0.0326012
0.033076
0.033076
0.0335366
0.0335366
0.0339825
0.0339825
0.0344136
0.0344136
0.0348297
0.0348297
0.0352306
0.0352306
0.0356165
0.0356165
0.0359874
0.0359874
0.0363435
0.0363435
0.036685
0.036685
0.0370122
0.0370122
0.0373253
0.0373253
0.0376248
0.0376248
0.037911
0.037911
0.0381842
0.0381842
0.0384447
0.0384447
0.0386931
0.0386931
0.0389296
0.0389296
0.0391546
0.0391546
0.0393684
0.0393684
0.0395716
0.0395716
0.0397643
0.0397643
0.039947
0.039947
0.0401199
0.0401199
0.0402834
0.0402834
0.0404378
0.0404378
0.0405834
0.0405834
0.0407204
0.0407204
0.040849
0.040849
0.0409696
0.0409696
0.0410824
0.0410824
0.0411875
0.0411875
0.0412852
0.0412852
0.0413756
0.0413756
0.0414589
0.0414589
0.0415353
0.0415353
0.0416049
0.0416049
0.0416679
0.0416679
0.0417243
0.0417243
0.0417744
0.0417744
0.0418182
0.0418182
0.0418558
0.0418558
0.0418874
0.0418874
0.0419131
0.0419131
0.0419329
0.0419329
0.041947
0.041947
0.0419554
0.0419554
0.0419583
0.0419583
0.0419557
0.0419557
0.0419477
0.0419477
0.0419344
0.0419344
0.0419159
0.0419159
0.0418924
0.0418924
0.0418639
0.0418639
0.0418305
0.0418305
0.0417924
0.0417924
0.0417497
0.0417497
0.0417026
0.0417026
0.0416513
0.0416513
0.0415959
0.0415959
0.0415365
0.0415365
0.0414736
0.0414736
0.0414072
0.0414072
0.0413376
0.0413376
0.041265
0.041265
0.0411897
0.0411897
0.0411119
0.0411119
0.0410319
0.0410319
0.0409499
0.0409499
0.040866
0.040866
0.0407805
0.0407805
0.0406934
0.0406934
0.0406049
0.0406049
0.0405151
0.0405151
0.040424
0.040424
0.0403317
0.0403317
0.0402382
0.0402382
0.0401436
0.0401436
0.0400479
0.0400479
0.0399514
0.0399514
0.0398541
0.0398541
0.0397562
0.0397562
0.0396579
0.0396579
0.0395595
0.0395595
0.0394611
0.0394611
0.0393632
0.0393632
0.039266
0.039266
0.0391698
0.0391698
0.0390749
0.0390749
0.0389815
0.0389815
0.0388901
0.0388901
0.0388008
0.0388008
0.038714
0.038714
0.0386301
0.0386301
0.0385492
0.0385492
0.0384719
0.0384719
0.0383985
0.0383985
0.0383294
0.0383294
0.0382654
0.0382654
0.0382069
0.0382069
0.0381545
0.0381545
0.0381091
0.0381091
0.0380712
0.0380712
0.0380418
0.0380418
0.0380216
0.0380216
0.0380115
0.0380115
0.0380122
0.0380122
0.0380246
0.0380246
0.0380494
0.0380494
0.0380873
0.0380873
0.0381388
0.0381388
0.0382044
0.0382044
0.0382845
0.0382845
0.0383794
0.0383794
0.0384894
0.0384894
0.0386147
0.0386147
0.0387556
0.0387556
0.0389121
0.0389121
0.0390844
0.0390844
0.0392723
0.0392723
0.0394754
0.0394754
0.0396933
0.0396933
0.0399253
0.0399253
0.0401703
0.0401703
0.040427
0.040427
0.040694
0.040694
0.0409697
0.0409697
0.0412526
0.0412527
0.0415416
0.0415416
0.0418356
0.0418356
0.0421341
0.0421341
0.0424368
0.0424368
0.0427434
0.0427434
0.0430533
0.0430533
0.0433656
0.0433656
0.0436788
0.0436788
0.0439915
0.0439915
0.0443021
0.0443021
0.0446096
0.0446096
0.0449129
0.0449129
0.0452115
0.0452115
0.045505
0.045505
0.0457937
0.0457937
0.0460782
0.0460782
0.0463599
0.0463599
0.0466404
0.0466405
0.0469214
0.0469214
0.0472039
0.047204
0.0474882
0.0474882
0.0477732
0.0477732
0.0480569
0.0480569
0.048336
0.048336
0.048606
0.048606
0.0488615
0.0488615
0.0490972
0.0490972
0.0493097
0.0493098
0.0494984
0.0494984
0.0496655
0.0496655
0.0498159
0.0498159
0.0499564
0.0499564
0.0500942
0.0500942
0.0502351
0.0502351
0.0503824
0.0503824
0.0505369
0.050537
0.0506988
0.0506988
0.0508688
0.0508688
0.0510504
0.0510504
0.051249
0.051249
0.0514712
0.0514712
0.0517229
0.0517229
0.052009
0.052009
0.0523326
0.0523327
0.0526958
0.0526959
0.0531001
0.0531002
0.0535468
0.0535469
0.0540372
0.0540373
0.0545724
0.0545726
0.0551534
0.0551536
0.0557792
0.0557794
0.0564467
0.056447
0.0571505
0.0571508
0.0578822
0.0578826
0.058631
0.0586315
0.0593833
0.059384
0.0601252
0.060126
0.060844
0.0608449
0.0615281
0.0615289
0.0621688
0.0621693
0.0627546
0.0627544
0.0632678
0.0632671
0.0636884
0.0636875
0.0640116
0.0640107
0.064245
0.0642443
0.0644033
0.0644027
0.0645098
0.0645094
0.0645963
0.064596
0.0646934
0.0646933
0.0648206
0.0648205
0.0649815
0.0649815
0.0651774
0.0651774
0.0654103
0.0654103
0.0656818
0.0656819
0.0659929
0.0659931
0.0663451
0.0663452
0.0667397
0.0667399
0.0671767
0.0671769
0.0676495
0.0676498
0.0681471
0.0681476
0.068656
0.0686566
0.0691589
0.0691599
0.0696285
0.0696298
0.0700262
0.0700279
0.0703153
0.0703174
0.0704762
0.0704786
0.0705153
0.0705172
0.0704706
0.0704715
0.0703782
0.070378
0.0702568
0.0702561
0.0701157
0.070115
0.0699698
0.0699694
0.0698367
0.0698366
0.0697246
0.0697247
0.0696336
0.0696338
0.0695642
0.0695645
0.0695243
0.0695247
1.56415e-09
1.56415e-09
1.98795e-07
1.98795e-07
4.18999e-06
4.18998e-06
3.1312e-05
3.1312e-05
0.000120902
0.000120902
0.000292829
0.000292829
0.000532327
0.000532327
0.000818795
0.000818795
0.00113783
0.00113783
0.00148028
0.00148028
0.00184016
0.00184016
0.00221334
0.00221334
0.00259679
0.00259679
0.00298825
0.00298825
0.00338593
0.00338593
0.00378838
0.00378838
0.00419442
0.00419442
0.00460303
0.00460303
0.00501334
0.00501334
0.00542458
0.00542458
0.00583607
0.00583607
0.0062472
0.0062472
0.0066574
0.0066574
0.00706615
0.00706615
0.00747296
0.00747296
0.00787736
0.00787736
0.0082789
0.0082789
0.00867716
0.00867716
0.00907173
0.00907173
0.0094622
0.0094622
0.00984819
0.00984819
0.0102293
0.0102293
0.0106052
0.0106052
0.0109754
0.0109754
0.0113397
0.0113397
0.0116976
0.0116976
0.0120489
0.0120489
0.0123932
0.0123932
0.0127301
0.0127301
0.0130595
0.0130595
0.0133811
0.0133811
0.0136945
0.0136945
0.0139997
0.0139997
0.0142963
0.0142963
0.0145844
0.0145844
0.0148637
0.0148637
0.0151343
0.0151343
0.0153963
0.0153963
0.0156496
0.0156496
0.0158945
0.0158945
0.0161313
0.0161313
0.0163604
0.0163604
0.0165821
0.0165821
0.0167972
0.0167972
0.0170064
0.0170064
0.0172104
0.0172104
0.0174105
0.0174105
0.0176076
0.0176076
0.0178032
0.0178032
0.0179987
0.0179987
0.0181958
0.0181958
0.0183963
0.0183963
0.018602
0.018602
0.0188151
0.0188151
0.0190375
0.0190375
0.0192715
0.0192715
0.0195192
0.0195192
0.0197825
0.0197825
0.0200635
0.0200635
0.0203638
0.0203638
0.0206849
0.0206849
0.021028
0.021028
0.0213937
0.0213937
0.0217825
0.0217825
0.0221942
0.0221942
0.0226283
0.0226283
0.0230838
0.0230838
0.0235595
0.0235595
0.0240535
0.0240535
0.0245638
0.0245638
0.0250882
0.0250882
0.0256244
0.0256244
0.0261697
0.0261697
0.0267217
0.0267217
0.0272778
0.0272778
0.0278355
0.0278355
0.0283926
0.0283926
0.0289469
0.0289469
0.0294962
0.0294962
0.0300389
0.0300389
0.0305732
0.0305732
0.0310978
0.0310978
0.0316113
0.0316113
0.0321127
0.0321127
0.0326012
0.0326012
0.033076
0.033076
0.0335366
0.0335366
0.0339825
0.0339825
0.0344136
0.0344136
0.0348297
0.0348297
0.0352306
0.0352306
0.0356165
0.0356165
0.0359874
0.0359874
0.0363435
0.0363435
0.036685
0.036685
0.0370122
0.0370122
0.0373253
0.0373253
0.0376248
0.0376248
0.037911
0.037911
0.0381842
0.0381842
0.0384447
0.0384447
0.0386931
0.0386931
0.0389295
0.0389295
0.0391545
0.0391545
0.0393684
0.0393684
0.0395716
0.0395716
0.0397643
0.0397643
0.039947
0.039947
0.0401199
0.0401199
0.0402834
0.0402834
0.0404378
0.0404378
0.0405834
0.0405834
0.0407203
0.0407203
0.040849
0.040849
0.0409696
0.0409696
0.0410824
0.0410824
0.0411875
0.0411875
0.0412852
0.0412852
0.0413756
0.0413756
0.0414589
0.0414589
0.0415353
0.0415353
0.0416049
0.0416049
0.0416678
0.0416678
0.0417243
0.0417243
0.0417744
0.0417744
0.0418182
0.0418182
0.0418558
0.0418558
0.0418874
0.0418874
0.0419131
0.0419131
0.0419329
0.0419329
0.041947
0.041947
0.0419554
0.0419554
0.0419583
0.0419583
0.0419557
0.0419557
0.0419477
0.0419477
0.0419344
0.0419344
0.0419159
0.0419159
0.0418924
0.0418924
0.0418638
0.0418638
0.0418305
0.0418305
0.0417924
0.0417924
0.0417497
0.0417497
0.0417026
0.0417026
0.0416513
0.0416513
0.0415958
0.0415958
0.0415365
0.0415365
0.0414736
0.0414736
0.0414072
0.0414072
0.0413375
0.0413375
0.041265
0.041265
0.0411897
0.0411897
0.0411119
0.0411119
0.0410319
0.0410319
0.0409499
0.0409499
0.040866
0.040866
0.0407805
0.0407805
0.0406934
0.0406934
0.0406049
0.0406049
0.0405151
0.0405151
0.040424
0.040424
0.0403317
0.0403317
0.0402382
0.0402382
0.0401435
0.0401436
0.0400479
0.0400479
0.0399514
0.0399514
0.0398541
0.0398541
0.0397561
0.0397561
0.0396579
0.0396579
0.0395594
0.0395594
0.0394611
0.0394611
0.0393632
0.0393632
0.039266
0.039266
0.0391698
0.0391698
0.0390748
0.0390748
0.0389815
0.0389815
0.03889
0.03889
0.0388008
0.0388008
0.038714
0.038714
0.03863
0.03863
0.0385492
0.0385492
0.0384718
0.0384718
0.0383984
0.0383984
0.0383294
0.0383294
0.0382653
0.0382653
0.0382068
0.0382068
0.0381545
0.0381545
0.038109
0.038109
0.0380712
0.0380712
0.0380418
0.0380418
0.0380216
0.0380216
0.0380114
0.0380114
0.0380121
0.0380121
0.0380245
0.0380245
0.0380493
0.0380493
0.0380872
0.0380872
0.0381387
0.0381387
0.0382043
0.0382043
0.0382844
0.0382844
0.0383793
0.0383793
0.0384893
0.0384893
0.0386146
0.0386146
0.0387554
0.0387554
0.038912
0.038912
0.0390842
0.0390842
0.0392721
0.0392721
0.0394752
0.0394752
0.0396931
0.0396931
0.0399251
0.0399251
0.04017
0.04017
0.0404267
0.0404267
0.0406937
0.0406937
0.0409694
0.0409694
0.0412524
0.0412524
0.0415413
0.0415413
0.0418353
0.0418353
0.0421338
0.0421338
0.0424366
0.0424365
0.0427431
0.0427431
0.0430531
0.043053
0.0433653
0.0433653
0.0436785
0.0436785
0.0439912
0.0439912
0.0443019
0.0443019
0.0446093
0.0446093
0.0449126
0.0449126
0.0452112
0.0452112
0.0455048
0.0455047
0.0457934
0.0457934
0.046078
0.0460779
0.0463597
0.0463597
0.0466402
0.0466402
0.0469213
0.0469212
0.0472038
0.0472038
0.047488
0.047488
0.0477731
0.0477731
0.0480568
0.0480568
0.048336
0.0483359
0.048606
0.0486059
0.0488615
0.0488614
0.0490972
0.0490972
0.0493098
0.0493098
0.0494985
0.0494985
0.0496656
0.0496656
0.0498161
0.049816
0.0499566
0.0499566
0.0500944
0.0500944
0.0502353
0.0502353
0.0503826
0.0503826
0.0505372
0.0505372
0.050699
0.050699
0.050869
0.050869
0.0510506
0.0510506
0.0512492
0.0512492
0.0514713
0.0514713
0.051723
0.051723
0.052009
0.052009
0.0523326
0.0523326
0.0526958
0.0526958
0.0531
0.0531
0.0535467
0.0535466
0.054037
0.0540369
0.0545722
0.0545721
0.0551531
0.0551529
0.0557788
0.0557786
0.0564463
0.056446
0.05715
0.0571496
0.0578817
0.0578813
0.0586305
0.05863
0.0593829
0.0593823
0.060125
0.0601242
0.060844
0.0608431
0.0615281
0.0615273
0.0621686
0.0621682
0.062754
0.0627542
0.0632669
0.0632677
0.0636876
0.0636885
0.064011
0.0640119
0.0642448
0.0642455
0.0644034
0.0644039
0.06451
0.0645104
0.0645966
0.0645969
0.0646937
0.0646939
0.0648208
0.0648209
0.0649817
0.0649817
0.0651775
0.0651775
0.0654103
0.0654103
0.0656818
0.0656817
0.0659929
0.0659928
0.0663449
0.0663447
0.0667394
0.0667392
0.0671762
0.0671759
0.0676489
0.0676486
0.0681465
0.068146
0.0686554
0.0686548
0.0691586
0.0691577
0.0696286
0.0696273
0.0700269
0.0700252
0.0703167
0.0703146
0.0704781
0.0704758
0.0705172
0.0705152
0.0704717
0.0704708
0.0703784
0.0703786
0.0702566
0.0702573
0.0701156
0.0701163
0.0699699
0.0699703
0.0698371
0.0698372
0.0697251
0.069725
0.0696342
0.0696339
0.0695648
0.0695645
0.069525
0.0695246
0.0695237
0.0695242
0.0695624
0.0695628
0.0696307
0.0696309
0.0697196
0.0697197
0.0698297
0.0698295
0.0699606
0.0699601
0.0701037
0.0701029
0.0702421
0.0702412
0.0703595
0.0703593
0.0704458
0.0704468
0.0704838
0.0704859
0.0704387
0.0704412
0.0702734
0.0702757
0.0699826
0.0699844
0.0695871
0.0695885
0.0691224
0.0691235
0.0686247
0.0686254
0.0681205
0.0681211
0.0676272
0.0676276
0.0671585
0.0671588
0.0667261
0.0667263
0.066336
0.0663361
0.0659883
0.0659884
0.0656815
0.0656816
0.0654142
0.0654143
0.0651856
0.0651856
0.0649937
0.0649936
0.0648366
0.0648365
0.0647131
0.0647129
0.0646191
0.0646188
0.0645359
0.0645355
0.0644324
0.0644318
0.0642755
0.0642747
0.0640414
0.0640405
0.0637157
0.0637147
0.0632908
0.06329
0.062774
0.0627737
0.0621858
0.0621863
0.0615434
0.0615443
0.0608582
0.0608592
0.0601383
0.0601392
0.0593954
0.0593962
0.0586421
0.0586427
0.0578921
0.0578926
0.0571592
0.0571596
0.0564543
0.0564546
0.0557857
0.0557859
0.055159
0.0551592
0.0545772
0.0545773
0.0540411
0.0540412
0.0535499
0.05355
0.0531025
0.0531026
0.0526975
0.0526976
0.0523336
0.0523336
0.0520092
0.0520093
0.0517226
0.0517226
0.0514703
0.0514703
0.0512476
0.0512476
0.0510484
0.0510484
0.0508667
0.0508667
0.0506967
0.0506967
0.0505346
0.0505347
0.0503796
0.0503796
0.0502317
0.0502317
0.0500899
0.0500899
0.049951
0.0499511
0.0498098
0.0498099
0.0496591
0.0496591
0.0494917
0.0494918
0.0493024
0.0493025
0.049089
0.049089
0.0488526
0.0488526
0.048597
0.0485971
0.0483273
0.0483273
0.0480489
0.048049
0.0477664
0.0477664
0.0474827
0.0474827
0.0471996
0.0471996
0.0469178
0.0469178
0.046637
0.0466371
0.0463563
0.0463564
0.0460743
0.0460744
0.0457895
0.0457895
0.0455006
0.0455006
0.0452068
0.0452068
0.044908
0.044908
0.0446047
0.0446047
0.0442974
0.0442974
0.0439868
0.0439868
0.0436743
0.0436743
0.0433615
0.0433615
0.0430497
0.0430498
0.0427405
0.0427405
0.0424347
0.0424347
0.0421328
0.0421328
0.0418349
0.0418349
0.0415414
0.0415414
0.0412528
0.0412528
0.0409701
0.0409701
0.0406945
0.0406946
0.0404278
0.0404278
0.0401713
0.0401713
0.0399265
0.0399265
0.0396947
0.0396947
0.0394767
0.0394767
0.0392734
0.0392734
0.0390854
0.0390854
0.0389129
0.0389129
0.0387562
0.0387562
0.0386152
0.0386152
0.0384898
0.0384898
0.0383798
0.0383798
0.0382849
0.0382849
0.0382048
0.0382048
0.0381393
0.0381393
0.0380878
0.0380878
0.0380501
0.0380501
0.0380254
0.0380254
0.0380131
0.0380131
0.0380124
0.0380124
0.0380226
0.0380226
0.0380428
0.0380428
0.0380722
0.0380722
0.0381101
0.0381101
0.0381556
0.0381556
0.038208
0.038208
0.0382665
0.0382665
0.0383306
0.0383306
0.0383996
0.0383996
0.038473
0.038473
0.0385504
0.0385504
0.0386313
0.0386313
0.0387153
0.0387153
0.038802
0.038802
0.0388913
0.0388913
0.0389827
0.0389827
0.039076
0.039076
0.0391709
0.0391709
0.0392672
0.0392672
0.0393644
0.0393644
0.0394623
0.0394623
0.0395606
0.0395606
0.0396591
0.0396591
0.0397574
0.0397574
0.0398553
0.0398553
0.0399527
0.0399527
0.0400492
0.0400492
0.0401449
0.0401449
0.0402395
0.0402395
0.040333
0.040333
0.0404254
0.0404254
0.0405165
0.0405165
0.0406064
0.0406064
0.0406949
0.0406949
0.040782
0.040782
0.0408676
0.0408676
0.0409515
0.0409515
0.0410335
0.0410335
0.0411135
0.0411135
0.0411913
0.0411913
0.0412666
0.0412666
0.0413392
0.0413392
0.0414088
0.0414088
0.0414752
0.0414752
0.0415382
0.0415382
0.0415975
0.0415975
0.041653
0.041653
0.0417044
0.0417044
0.0417515
0.0417515
0.0417942
0.0417942
0.0418323
0.0418323
0.0418657
0.0418657
0.0418943
0.0418943
0.0419179
0.0419179
0.0419364
0.0419364
0.0419497
0.0419497
0.0419577
0.0419577
0.0419604
0.0419604
0.0419576
0.0419576
0.0419493
0.0419493
0.0419353
0.0419353
0.0419155
0.0419155
0.04189
0.04189
0.0418584
0.0418584
0.0418208
0.0418208
0.0417771
0.0417771
0.041727
0.041727
0.0416706
0.0416706
0.0416077
0.0416077
0.0415381
0.0415381
0.0414618
0.0414618
0.0413785
0.0413785
0.0412882
0.0412882
0.0411906
0.0411906
0.0410855
0.0410855
0.0409727
0.0409727
0.0408521
0.0408521
0.0407234
0.0407234
0.0405864
0.0405864
0.0404408
0.0404408
0.0402864
0.0402864
0.0401228
0.0401228
0.0399498
0.0399498
0.0397671
0.0397671
0.0395742
0.0395742
0.0393709
0.0393709
0.0391569
0.0391569
0.0389319
0.0389319
0.0386954
0.0386954
0.038447
0.038447
0.0381865
0.0381865
0.0379133
0.0379133
0.0376272
0.0376272
0.0373277
0.0373277
0.0370146
0.0370146
0.0366874
0.0366874
0.0363458
0.0363458
0.0359897
0.0359897
0.0356188
0.0356188
0.035233
0.035233
0.0348321
0.0348321
0.0344161
0.0344161
0.0339851
0.0339851
0.0335392
0.0335392
0.0330787
0.0330787
0.0326039
0.0326039
0.0321154
0.0321154
0.0316139
0.0316139
0.0311001
0.0311001
0.0305752
0.0305752
0.0300405
0.0300405
0.0294976
0.0294976
0.028948
0.028948
0.0283936
0.0283936
0.0278364
0.0278364
0.0272784
0.0272784
0.0267221
0.0267221
0.0261699
0.0261699
0.0256243
0.0256243
0.0250879
0.0250879
0.0245632
0.0245632
0.0240526
0.0240526
0.0235584
0.0235584
0.0230825
0.0230825
0.0226268
0.0226268
0.0221925
0.0221925
0.0217806
0.0217806
0.0213917
0.0213917
0.0210258
0.0210258
0.0206825
0.0206825
0.0203612
0.0203612
0.0200608
0.0200608
0.0197797
0.0197797
0.0195162
0.0195162
0.0192685
0.0192685
0.0190344
0.0190344
0.0188119
0.0188119
0.0185988
0.0185988
0.018393
0.018393
0.0181924
0.0181924
0.0179952
0.0179952
0.0177997
0.0177997
0.0176041
0.0176041
0.017407
0.017407
0.0172071
0.0172071
0.0170031
0.0170031
0.016794
0.016794
0.0165791
0.0165791
0.0163575
0.0163575
0.0161285
0.0161285
0.0158918
0.0158918
0.015647
0.015647
0.0153938
0.0153938
0.0151321
0.0151321
0.0148616
0.0148616
0.0145824
0.0145824
0.0142945
0.0142945
0.0139979
0.0139979
0.0136929
0.0136929
0.0133796
0.0133796
0.0130582
0.0130582
0.0127289
0.0127289
0.012392
0.012392
0.0120478
0.0120478
0.0116966
0.0116966
0.0113387
0.0113387
0.0109745
0.0109745
0.0106043
0.0106043
0.0102285
0.0102285
0.00984747
0.00984747
0.00946153
0.00946153
0.00907112
0.00907112
0.00867662
0.00867662
0.00827842
0.00827842
0.00787693
0.00787693
0.00747259
0.00747259
0.00706583
0.00706583
0.00665712
0.00665713
0.00624696
0.00624696
0.00583586
0.00583586
0.0054244
0.0054244
0.00501318
0.00501318
0.0046029
0.0046029
0.00419431
0.00419431
0.0037883
0.0037883
0.00338586
0.00338586
0.0029882
0.0029882
0.00259675
0.00259675
0.00221331
0.00221331
0.00184015
0.00184015
0.00148028
0.00148028
0.00113783
0.00113783
0.000818799
0.000818799
0.000532332
0.000532332
0.000292834
0.000292834
0.000120905
0.000120905
3.13128e-05
3.13128e-05
4.1901e-06
4.1901e-06
1.988e-07
1.988e-07
1.56422e-09
1.56422e-09
0.0695244
0.069524
0.0695631
0.0695628
0.0696313
0.0696311
0.0697202
0.0697201
0.06983
0.0698302
0.0699607
0.0699611
0.0701034
0.0701042
0.0702418
0.0702426
0.0703597
0.0703599
0.070447
0.0704459
0.0704858
0.0704837
0.0704408
0.0704383
0.0702749
0.0702727
0.0699834
0.0699816
0.0695873
0.0695859
0.0691222
0.0691212
0.0686242
0.0686234
0.06812
0.0681194
0.0676266
0.0676262
0.067158
0.0671578
0.0667257
0.0667255
0.0663358
0.0663356
0.0659882
0.0659881
0.0656815
0.0656814
0.0654143
0.0654143
0.0651857
0.0651857
0.0649939
0.0649939
0.0648368
0.0648369
0.0647134
0.0647136
0.0646195
0.0646198
0.0645362
0.0645366
0.0644325
0.0644331
0.0642753
0.0642761
0.0640408
0.0640418
0.0637148
0.0637158
0.0632898
0.0632906
0.0627733
0.0627735
0.0621856
0.0621851
0.0615435
0.0615426
0.0608582
0.0608573
0.0601382
0.0601373
0.0593951
0.0593944
0.0586416
0.058641
0.0578916
0.0578912
0.0571587
0.0571583
0.0564539
0.0564536
0.0557853
0.0557851
0.0551587
0.0551585
0.0545769
0.0545768
0.0540409
0.0540408
0.0535498
0.0535497
0.0531025
0.0531024
0.0526975
0.0526974
0.0523336
0.0523336
0.0520093
0.0520093
0.0517227
0.0517227
0.0514705
0.0514704
0.0512478
0.0512477
0.0510486
0.0510486
0.0508669
0.0508669
0.0506969
0.0506969
0.0505349
0.0505349
0.0503799
0.0503798
0.0502319
0.0502319
0.0500901
0.0500901
0.0499512
0.0499512
0.04981
0.04981
0.0496593
0.0496592
0.0494919
0.0494918
0.0493025
0.0493025
0.049089
0.049089
0.0488526
0.0488526
0.048597
0.048597
0.0483273
0.0483272
0.0480489
0.0480488
0.0477663
0.0477663
0.0474826
0.0474825
0.0471995
0.0471994
0.0469176
0.0469176
0.0466368
0.0466368
0.0463561
0.0463561
0.0460741
0.0460741
0.0457892
0.0457892
0.0455003
0.0455003
0.0452066
0.0452066
0.0449078
0.0449078
0.0446044
0.0446044
0.0442971
0.0442971
0.0439866
0.0439865
0.043674
0.043674
0.0433612
0.0433612
0.0430495
0.0430495
0.0427402
0.0427402
0.0424344
0.0424344
0.0421325
0.0421325
0.0418346
0.0418346
0.0415411
0.0415411
0.0412525
0.0412525
0.0409698
0.0409698
0.0406943
0.0406943
0.0404275
0.0404275
0.0401711
0.040171
0.0399263
0.0399263
0.0396944
0.0396944
0.0394765
0.0394765
0.0392732
0.0392732
0.0390852
0.0390852
0.0389128
0.0389127
0.038756
0.038756
0.038615
0.038615
0.0384896
0.0384896
0.0383796
0.0383796
0.0382847
0.0382847
0.0382047
0.0382047
0.0381392
0.0381392
0.0380877
0.0380877
0.03805
0.03805
0.0380253
0.0380253
0.038013
0.038013
0.0380123
0.0380123
0.0380225
0.0380225
0.0380427
0.0380427
0.0380722
0.0380722
0.03811
0.03811
0.0381556
0.0381556
0.0382079
0.0382079
0.0382664
0.0382664
0.0383305
0.0383305
0.0383995
0.0383995
0.038473
0.038473
0.0385504
0.0385504
0.0386313
0.0386313
0.0387153
0.0387153
0.038802
0.038802
0.0388912
0.0388912
0.0389827
0.0389827
0.039076
0.039076
0.0391709
0.0391709
0.0392671
0.0392671
0.0393644
0.0393644
0.0394623
0.0394623
0.0395606
0.0395606
0.0396591
0.0396591
0.0397574
0.0397574
0.0398553
0.0398553
0.0399527
0.0399527
0.0400492
0.0400492
0.0401448
0.0401448
0.0402395
0.0402395
0.040333
0.040333
0.0404253
0.0404253
0.0405165
0.0405165
0.0406064
0.0406064
0.0406949
0.0406949
0.040782
0.040782
0.0408676
0.0408676
0.0409514
0.0409514
0.0410335
0.0410335
0.0411135
0.0411135
0.0411913
0.0411913
0.0412666
0.0412666
0.0413392
0.0413392
0.0414088
0.0414088
0.0414752
0.0414752
0.0415382
0.0415382
0.0415975
0.0415975
0.041653
0.041653
0.0417044
0.0417044
0.0417515
0.0417515
0.0417942
0.0417942
0.0418323
0.0418323
0.0418657
0.0418657
0.0418943
0.0418943
0.0419178
0.0419178
0.0419364
0.0419364
0.0419497
0.0419497
0.0419577
0.0419577
0.0419604
0.0419604
0.0419576
0.0419576
0.0419493
0.0419493
0.0419353
0.0419353
0.0419155
0.0419155
0.0418899
0.0418899
0.0418584
0.0418584
0.0418208
0.0418208
0.0417771
0.0417771
0.041727
0.041727
0.0416706
0.0416706
0.0416077
0.0416077
0.0415381
0.0415381
0.0414618
0.0414618
0.0413785
0.0413785
0.0412882
0.0412882
0.0411905
0.0411905
0.0410855
0.0410855
0.0409727
0.0409727
0.0408521
0.0408521
0.0407234
0.0407234
0.0405864
0.0405864
0.0404408
0.0404408
0.0402864
0.0402864
0.0401228
0.0401228
0.0399498
0.0399498
0.0397671
0.0397671
0.0395742
0.0395742
0.0393709
0.0393709
0.0391569
0.0391569
0.0389319
0.0389319
0.0386954
0.0386954
0.038447
0.038447
0.0381865
0.0381865
0.0379133
0.0379133
0.0376272
0.0376272
0.0373277
0.0373277
0.0370146
0.0370146
0.0366874
0.0366874
0.0363458
0.0363458
0.0359897
0.0359897
0.0356188
0.0356188
0.035233
0.035233
0.0348321
0.0348321
0.0344161
0.0344161
0.0339851
0.0339851
0.0335392
0.0335392
0.0330787
0.0330787
0.0326039
0.0326039
0.0321154
0.0321154
0.0316139
0.0316139
0.0311001
0.0311001
0.0305752
0.0305752
0.0300405
0.0300405
0.0294975
0.0294975
0.028948
0.028948
0.0283936
0.0283936
0.0278364
0.0278363
0.0272784
0.0272784
0.0267221
0.0267221
0.0261699
0.0261699
0.0256243
0.0256243
0.0250879
0.0250879
0.0245632
0.0245632
0.0240526
0.0240526
0.0235584
0.0235584
0.0230825
0.0230825
0.0226268
0.0226268
0.0221925
0.0221925
0.0217806
0.0217806
0.0213917
0.0213917
0.0210258
0.0210258
0.0206825
0.0206825
0.0203612
0.0203612
0.0200608
0.0200608
0.0197797
0.0197797
0.0195162
0.0195162
0.0192685
0.0192685
0.0190344
0.0190344
0.0188119
0.0188119
0.0185988
0.0185988
0.018393
0.018393
0.0181924
0.0181924
0.0179953
0.0179953
0.0177997
0.0177997
0.0176041
0.0176041
0.017407
0.017407
0.0172071
0.0172071
0.0170031
0.0170031
0.016794
0.016794
0.0165791
0.0165791
0.0163575
0.0163575
0.0161285
0.0161285
0.0158918
0.0158918
0.015647
0.015647
0.0153938
0.0153938
0.0151321
0.0151321
0.0148616
0.0148616
0.0145824
0.0145824
0.0142945
0.0142945
0.0139979
0.0139979
0.0136929
0.0136929
0.0133796
0.0133796
0.0130582
0.0130582
0.0127289
0.0127289
0.012392
0.012392
0.0120478
0.0120478
0.0116966
0.0116966
0.0113387
0.0113387
0.0109745
0.0109745
0.0106043
0.0106043
0.0102285
0.0102285
0.00984747
0.00984747
0.00946153
0.00946153
0.00907112
0.00907112
0.00867662
0.00867662
0.00827842
0.00827842
0.00787693
0.00787693
0.00747259
0.00747259
0.00706583
0.00706583
0.00665713
0.00665713
0.00624696
0.00624696
0.00583586
0.00583586
0.0054244
0.0054244
0.00501318
0.00501318
0.0046029
0.0046029
0.00419431
0.00419431
0.0037883
0.0037883
0.00338586
0.00338586
0.0029882
0.0029882
0.00259675
0.00259675
0.00221331
0.00221331
0.00184015
0.00184015
0.00148028
0.00148028
0.00113783
0.00113783
0.000818799
0.000818799
0.000532332
0.000532332
0.000292833
0.000292833
0.000120905
0.000120905
3.13128e-05
3.13128e-05
4.1901e-06
4.1901e-06
1.988e-07
1.988e-07
1.56422e-09
1.56422e-09
)
;

boundaryField
{
    walls
    {
        type            nutUWallFunction;
        blending        stepwise;
        Cmu             0.09;
        kappa           0.41;
        E               9.8;
        value           uniform 0;
    }
    inlet
    {
        type            cyclic;
    }
    outlet
    {
        type            cyclic;
    }
    sides
    {
        type            empty;
    }
}


// ************************************************************************* //
