/*--------------------------------*- C++ -*----------------------------------*\
| =========                 |                                                 |
| \\      /  F ield         | OpenFOAM: The Open Source CFD Toolbox           |
|  \\    /   O peration     | Version:  2012                                  |
|   \\  /    A nd           | Website:  www.openfoam.com                      |
|    \\/     M anipulation  |                                                 |
\*---------------------------------------------------------------------------*/
FoamFile
{
    version     2.0;
    format      ascii;
    class       volScalarField;
    location    "12300";
    object      omega;
}
// * * * * * * * * * * * * * * * * * * * * * * * * * * * * * * * * * * * * * //

dimensions      [0 0 -1 0 0 0 0];


internalField   nonuniform List<scalar> 
2560
(
1.52416e+06
1.52416e+06
264987
264987
89179.3
89179.3
41283.2
41283.2
23374.5
23374.5
15579.6
15579.6
11683.6
11683.6
9455.04
9455.04
8036.39
8036.39
7059.42
7059.42
6346.68
6346.68
5803.68
5803.68
5375.95
5375.95
5030.01
5030.01
4744.16
4744.16
4503.74
4503.74
4298.5
4298.5
4121.02
4121.02
3965.83
3965.83
3828.78
3828.78
3706.67
3706.67
3596.97
3596.97
3497.7
3497.7
3407.21
3407.21
3324.2
3324.2
3247.56
3247.56
3176.36
3176.36
3109.83
3109.83
3047.31
3047.31
2988.21
2988.21
2932.05
2932.05
2878.4
2878.4
2826.88
2826.88
2777.15
2777.15
2728.92
2728.92
2681.93
2681.93
2635.95
2635.95
2590.77
2590.77
2546.21
2546.21
2502.11
2502.11
2458.33
2458.33
2414.76
2414.76
2371.28
2371.28
2327.81
2327.81
2284.27
2284.27
2240.62
2240.62
2196.82
2196.82
2152.83
2152.83
2108.64
2108.64
2064.27
2064.27
2019.73
2019.73
1975.05
1975.05
1930.28
1930.28
1885.47
1885.47
1840.69
1840.69
1796.03
1796.03
1751.57
1751.57
1707.42
1707.42
1663.69
1663.69
1620.49
1620.49
1577.94
1577.94
1536.17
1536.17
1495.29
1495.29
1455.44
1455.44
1416.73
1416.73
1379.26
1379.26
1343.13
1343.13
1308.45
1308.45
1275.27
1275.27
1243.65
1243.65
1213.64
1213.64
1185.24
1185.24
1158.45
1158.45
1133.27
1133.27
1109.63
1109.63
1087.49
1087.49
1066.76
1066.76
1047.37
1047.37
1029.2
1029.2
1012.17
1012.17
996.152
996.152
981.041
981.041
966.726
966.726
953.1
953.1
940.058
940.058
927.504
927.504
915.349
915.349
903.51
903.51
891.915
891.915
880.498
880.498
869.204
869.204
857.985
857.985
846.8
846.8
835.617
835.617
824.411
824.411
813.16
813.16
801.852
801.852
790.476
790.476
779.028
779.028
767.506
767.506
755.912
755.912
744.25
744.25
732.526
732.526
720.749
720.749
708.927
708.926
697.07
697.07
685.19
685.19
673.297
673.297
661.403
661.403
649.52
649.52
637.659
637.659
625.83
625.83
614.045
614.045
602.313
602.313
590.645
590.645
579.05
579.05
567.535
567.535
556.11
556.11
544.783
544.783
533.559
533.559
522.445
522.445
511.447
511.447
500.571
500.571
489.82
489.82
479.2
479.2
468.714
468.714
458.364
458.364
448.155
448.155
438.089
438.089
428.166
428.166
418.391
418.391
408.762
408.762
399.283
399.283
389.953
389.953
380.774
380.774
371.746
371.746
362.869
362.869
354.143
354.143
345.568
345.567
337.143
337.143
328.869
328.869
320.745
320.745
312.77
312.77
304.944
304.943
297.264
297.264
289.732
289.732
282.346
282.346
275.104
275.104
268.006
268.006
261.051
261.051
254.237
254.237
247.564
247.564
241.03
241.03
234.636
234.636
228.378
228.378
222.257
222.257
216.271
216.271
210.419
210.419
204.7
204.7
199.113
199.113
193.656
193.656
188.329
188.329
183.129
183.129
178.056
178.056
173.106
173.106
168.279
168.279
163.572
163.572
158.983
158.983
154.509
154.509
150.148
150.148
145.899
145.898
141.757
141.757
137.721
137.721
133.788
133.788
129.957
129.957
126.226
126.226
122.592
122.592
119.054
119.054
115.609
115.609
112.257
112.257
108.996
108.996
105.823
105.823
102.738
102.738
99.7385
99.7385
96.8229
96.8229
93.9896
93.9896
91.2367
91.2367
88.5626
88.5626
85.9655
85.9655
83.4438
83.4438
80.9958
80.9958
78.6202
78.6201
76.3154
76.3154
74.0802
74.0802
71.9134
71.9134
69.8139
69.8139
67.7805
67.7804
65.8122
65.8121
63.9079
63.9079
62.0668
62.0668
60.2878
60.2878
58.5698
58.5698
56.9117
56.9117
55.3123
55.3123
53.7702
53.7702
52.284
52.284
50.8522
50.8522
49.4732
49.4731
48.1452
48.1452
46.8667
46.8666
45.636
45.636
44.4517
44.4517
43.3121
43.3121
42.2158
42.2158
41.1609
41.1609
40.1458
40.1458
39.1686
39.1685
38.2271
38.2271
37.3192
37.3192
36.4427
36.4427
35.5952
35.5952
34.7745
34.7744
33.9783
33.9783
33.205
33.205
32.4532
32.4532
31.7219
31.7219
31.0104
31.0104
30.318
30.318
29.6437
29.6437
28.9865
28.9864
28.3449
28.3449
27.7177
27.7177
27.1035
27.1035
26.5013
26.5012
25.9102
25.9102
25.3298
25.3297
24.7595
24.7595
24.1995
24.1995
23.6498
23.6498
23.1111
23.1111
22.5841
22.584
22.0692
22.0692
21.5669
21.5669
21.0769
21.0769
20.5985
20.5985
20.1305
20.1305
19.6713
19.6713
19.2186
19.2186
18.7701
18.7701
18.3236
18.3236
17.8779
17.8779
17.4327
17.4327
16.9892
16.9891
16.5491
16.5491
16.115
16.1149
15.6891
15.6891
15.2732
15.2732
14.8681
14.868
14.4735
14.4735
14.0892
14.0892
13.715
13.715
13.3516
13.3516
13
13
12.6615
12.6615
12.3373
12.3373
12.028
12.0279
11.7337
11.7337
11.4546
11.4546
11.1904
11.1904
10.941
10.9409
10.7062
10.7062
10.486
10.486
10.2802
10.2802
10.0884
10.0884
9.90985
9.90986
9.74331
9.74333
9.5872
9.58724
9.4395
9.43955
9.29785
9.29792
9.15986
9.15995
9.02348
9.02359
8.88688
8.88698
8.74879
8.74884
8.60754
8.60748
8.46062
8.46048
8.30535
8.30518
8.14135
8.1412
7.9701
7.96997
7.79391
7.79381
7.61618
7.61609
7.44115
7.44109
7.27266
7.27261
7.11292
7.11288
6.96219
6.96215
6.8204
6.82037
6.6876
6.68757
6.56386
6.56383
6.44913
6.44911
6.34349
6.34347
6.24703
6.24701
6.15969
6.15968
6.08086
6.08086
6.0095
6.00952
5.9444
5.94443
5.88406
5.88412
5.82609
5.82617
5.76713
5.76725
5.7041
5.70426
5.63556
5.63574
5.5624
5.56254
5.48823
5.48828
5.41636
5.41632
5.34858
5.3485
5.28583
5.28576
5.2295
5.22946
5.18117
5.18115
5.14164
5.14164
5.11109
5.11111
5.08978
5.0898
5.07857
5.07861
1.52416e+06
1.52416e+06
264987
264987
89179.3
89179.3
41283.2
41283.2
23374.5
23374.5
15579.6
15579.6
11683.6
11683.6
9455.04
9455.04
8036.39
8036.39
7059.42
7059.42
6346.67
6346.67
5803.68
5803.68
5375.95
5375.95
5030.01
5030.01
4744.16
4744.16
4503.74
4503.74
4298.5
4298.5
4121.02
4121.02
3965.83
3965.83
3828.78
3828.78
3706.67
3706.67
3596.97
3596.97
3497.69
3497.69
3407.21
3407.21
3324.2
3324.2
3247.56
3247.56
3176.36
3176.36
3109.83
3109.83
3047.31
3047.31
2988.21
2988.21
2932.05
2932.05
2878.4
2878.4
2826.88
2826.88
2777.15
2777.15
2728.92
2728.92
2681.93
2681.93
2635.95
2635.95
2590.77
2590.77
2546.21
2546.21
2502.11
2502.11
2458.33
2458.33
2414.76
2414.76
2371.28
2371.28
2327.81
2327.81
2284.27
2284.27
2240.62
2240.62
2196.82
2196.82
2152.83
2152.83
2108.64
2108.64
2064.27
2064.27
2019.73
2019.73
1975.05
1975.05
1930.28
1930.28
1885.47
1885.47
1840.69
1840.69
1796.03
1796.03
1751.57
1751.57
1707.42
1707.42
1663.69
1663.69
1620.49
1620.49
1577.94
1577.94
1536.17
1536.17
1495.3
1495.3
1455.44
1455.44
1416.73
1416.73
1379.26
1379.26
1343.13
1343.13
1308.45
1308.45
1275.27
1275.27
1243.65
1243.65
1213.64
1213.64
1185.24
1185.24
1158.46
1158.46
1133.27
1133.27
1109.63
1109.63
1087.49
1087.49
1066.76
1066.76
1047.37
1047.37
1029.2
1029.2
1012.17
1012.17
996.152
996.152
981.041
981.041
966.726
966.726
953.1
953.1
940.058
940.058
927.504
927.504
915.349
915.349
903.51
903.51
891.915
891.915
880.498
880.498
869.204
869.204
857.985
857.985
846.8
846.8
835.617
835.617
824.411
824.411
813.16
813.16
801.852
801.852
790.476
790.476
779.028
779.028
767.506
767.506
755.912
755.912
744.25
744.25
732.526
732.526
720.749
720.749
708.926
708.926
697.07
697.07
685.19
685.19
673.297
673.297
661.403
661.403
649.52
649.52
637.659
637.659
625.83
625.83
614.045
614.045
602.313
602.313
590.645
590.645
579.049
579.049
567.535
567.535
556.11
556.11
544.783
544.783
533.559
533.559
522.445
522.445
511.447
511.447
500.571
500.571
489.82
489.82
479.2
479.2
468.713
468.713
458.364
458.364
448.155
448.155
438.089
438.089
428.166
428.166
418.391
418.391
408.762
408.762
399.283
399.283
389.953
389.953
380.774
380.774
371.746
371.746
362.869
362.869
354.143
354.143
345.567
345.567
337.143
337.143
328.869
328.869
320.745
320.745
312.77
312.77
304.943
304.943
297.264
297.264
289.732
289.732
282.346
282.346
275.104
275.104
268.006
268.006
261.05
261.051
254.237
254.237
247.564
247.564
241.03
241.03
234.635
234.635
228.378
228.378
222.257
222.257
216.271
216.271
210.419
210.419
204.7
204.7
199.113
199.113
193.656
193.656
188.329
188.329
183.129
183.129
178.056
178.056
173.106
173.106
168.279
168.279
163.572
163.572
158.983
158.983
154.509
154.509
150.148
150.148
145.898
145.898
141.757
141.757
137.721
137.721
133.788
133.788
129.957
129.957
126.226
126.226
122.592
122.592
119.054
119.054
115.609
115.609
112.257
112.257
108.996
108.996
105.823
105.823
102.738
102.738
99.7384
99.7385
96.8229
96.8229
93.9895
93.9895
91.2367
91.2367
88.5625
88.5625
85.9654
85.9655
83.4437
83.4437
80.9958
80.9958
78.6201
78.6201
76.3153
76.3153
74.0801
74.0801
71.9133
71.9133
69.8138
69.8138
67.7804
67.7804
65.812
65.8121
63.9078
63.9078
62.0667
62.0667
60.2877
60.2877
58.5697
58.5697
56.9116
56.9116
55.3121
55.3122
53.7701
53.7701
52.2839
52.2839
50.8521
50.8521
49.473
49.473
48.145
48.145
46.8665
46.8665
45.6358
45.6358
44.4515
44.4515
43.3119
43.312
42.2156
42.2156
41.1607
41.1608
40.1456
40.1456
39.1683
39.1683
38.2268
38.2269
37.319
37.319
36.4425
36.4425
35.595
35.595
34.7742
34.7742
33.978
33.9781
33.2047
33.2048
32.453
32.453
31.7217
31.7217
31.0102
31.0102
30.3177
30.3178
29.6435
29.6435
28.9862
28.9863
28.3447
28.3447
27.7175
27.7175
27.1033
27.1033
26.5011
26.5011
25.91
25.91
25.3296
25.3296
24.7594
24.7594
24.1993
24.1993
23.6497
23.6497
23.111
23.111
22.5839
22.5839
22.0691
22.0691
21.5668
21.5668
21.0768
21.0768
20.5984
20.5984
20.1304
20.1305
19.6712
19.6712
19.2185
19.2185
18.77
18.7701
18.3236
18.3236
17.8779
17.8779
17.4327
17.4327
16.9892
16.9892
16.5491
16.5492
16.115
16.115
15.6891
15.6892
15.2733
15.2733
14.8681
14.8681
14.4736
14.4736
14.0893
14.0893
13.7151
13.7151
13.3516
13.3517
13
13.0001
12.6616
12.6616
12.3373
12.3373
12.0279
12.028
11.7337
11.7338
11.4546
11.4546
11.1904
11.1904
10.9409
10.9409
10.7061
10.7062
10.4859
10.4859
10.2801
10.2801
10.0883
10.0883
9.90974
9.90973
9.74319
9.74318
9.58708
9.58704
9.43939
9.43933
9.29775
9.29767
9.15978
9.15969
9.02344
9.02333
8.88685
8.88675
8.74873
8.74868
8.6074
8.60746
8.46044
8.46058
8.30518
8.30535
8.14124
8.14139
7.97003
7.97016
7.79388
7.79399
7.61617
7.61626
7.44116
7.44123
7.27266
7.27272
7.11292
7.11296
6.96218
6.96222
6.82038
6.82041
6.68758
6.68761
6.56383
6.56385
6.44909
6.44912
6.34344
6.34346
6.24696
6.24698
6.15962
6.15962
6.08078
6.08077
6.00942
6.0094
5.94432
5.94429
5.88401
5.88395
5.82606
5.82598
5.76716
5.76703
5.70419
5.70403
5.6357
5.63552
5.56254
5.56239
5.4883
5.48824
5.41635
5.41639
5.34854
5.34862
5.2858
5.28588
5.2295
5.22954
5.18119
5.18121
5.14168
5.14167
5.11114
5.11112
5.08983
5.0898
5.07863
5.07859
5.07855
5.07858
5.08971
5.08973
5.11097
5.11099
5.1414
5.1414
5.1808
5.18078
5.229
5.22895
5.28513
5.28505
5.3477
5.34761
5.41518
5.41514
5.48655
5.48662
5.56018
5.56034
5.63284
5.63303
5.70101
5.70118
5.76389
5.76402
5.82306
5.82315
5.88148
5.88154
5.94228
5.94231
6.00779
6.00781
6.07951
6.07951
6.15868
6.15868
6.2464
6.24638
6.34325
6.34323
6.44927
6.44925
6.56436
6.56434
6.68848
6.68845
6.82164
6.8216
6.96379
6.96375
7.11487
7.11482
7.27494
7.27488
7.44372
7.44365
7.61907
7.61898
7.7971
7.79698
7.97337
7.97323
8.14446
8.14429
8.30802
8.30784
8.46261
8.46246
8.60896
8.6089
8.74984
8.74989
8.88768
8.88779
9.0241
9.02422
9.16031
9.16042
9.29815
9.29823
9.43966
9.43972
9.58719
9.58723
9.74313
9.74315
9.90951
9.90952
10.0879
10.0879
10.2796
10.2796
10.4853
10.4852
10.7054
10.7054
10.9401
10.94
11.1894
11.1894
11.4535
11.4535
11.7325
11.7325
12.0266
12.0266
12.3359
12.3359
12.6601
12.66
12.9984
12.9984
13.35
13.3499
13.7134
13.7134
14.0877
14.0876
14.472
14.4719
14.8664
14.8664
15.2714
15.2713
15.687
15.687
16.1126
16.1125
16.5465
16.5465
16.9865
16.9865
17.43
17.43
17.875
17.8749
18.3204
18.3204
18.7666
18.7666
19.2151
19.2151
19.668
19.6679
20.1276
20.1275
20.5961
20.5961
21.0751
21.0751
21.5656
21.5656
22.0683
22.0683
22.5832
22.5832
23.1102
23.1102
23.6487
23.6487
24.1981
24.1981
24.758
24.758
25.3281
25.3281
25.9084
25.9084
26.4994
26.4994
27.1017
27.1017
27.716
27.7159
28.3433
28.3433
28.985
28.985
29.6426
29.6426
30.3173
30.3173
31.0104
31.0103
31.7225
31.7224
32.4542
32.4541
33.2062
33.2062
33.9797
33.9797
34.776
34.776
35.5969
35.5968
36.4445
36.4444
37.3211
37.3211
38.229
38.229
39.1705
39.1705
40.1477
40.1477
41.1625
41.1625
42.2171
42.2171
43.3131
43.3131
44.4524
44.4523
45.6364
45.6364
46.8669
46.8669
48.1453
48.1453
49.4733
49.4733
50.8524
50.8524
52.2842
52.2842
53.7704
53.7704
55.3126
55.3126
56.9121
56.9121
58.5703
58.5703
60.2884
60.2884
62.0675
62.0674
63.9085
63.9085
65.8127
65.8127
67.781
67.781
69.8145
69.8145
71.914
71.914
74.0808
74.0808
76.3159
76.3159
78.6207
78.6207
80.9964
80.9964
83.4444
83.4444
85.9661
85.9661
88.5631
88.5631
91.2371
91.2371
93.9899
93.9899
96.8231
96.8231
99.7386
99.7385
102.738
102.738
105.823
105.823
108.996
108.996
112.257
112.257
115.609
115.609
119.053
119.053
122.592
122.592
126.226
126.226
129.957
129.957
133.788
133.788
137.72
137.72
141.756
141.756
145.898
145.898
150.148
150.148
154.509
154.509
158.982
158.982
163.572
163.572
168.279
168.279
173.106
173.106
178.055
178.055
183.129
183.129
188.328
188.328
193.656
193.656
199.112
199.112
204.699
204.699
210.418
210.418
216.269
216.269
222.255
222.255
228.377
228.376
234.634
234.634
241.029
241.029
247.562
247.562
254.235
254.235
261.049
261.049
268.004
268.004
275.102
275.102
282.344
282.344
289.73
289.73
297.263
297.263
304.942
304.942
312.769
312.769
320.744
320.744
328.868
328.868
337.142
337.142
345.567
345.567
354.143
354.143
362.869
362.869
371.747
371.747
380.775
380.775
389.954
389.954
399.284
399.284
408.763
408.763
418.391
418.391
428.167
428.167
438.089
438.089
448.156
448.156
458.365
458.365
468.714
468.714
479.2
479.2
489.82
489.82
500.569
500.569
511.445
511.445
522.442
522.442
533.554
533.554
544.777
544.777
556.103
556.103
567.526
567.526
579.037
579.037
590.63
590.63
602.296
602.296
614.026
614.026
625.811
625.811
637.639
637.639
649.499
649.499
661.382
661.382
673.276
673.276
685.168
685.168
697.048
697.048
708.904
708.904
720.725
720.725
732.501
732.501
744.224
744.224
755.886
755.886
767.48
767.48
779.002
779.002
790.452
790.452
801.829
801.829
813.137
813.137
824.387
824.387
835.592
835.592
846.769
846.769
857.946
857.946
869.153
869.153
880.436
880.436
891.844
891.844
903.435
903.435
915.27
915.27
927.422
927.422
939.971
939.971
953.007
953.007
966.627
966.627
980.934
980.934
996.037
996.037
1012.05
1012.05
1029.07
1029.07
1047.23
1047.23
1066.62
1066.62
1087.34
1087.34
1109.49
1109.49
1133.12
1133.12
1158.3
1158.3
1185.08
1185.08
1213.48
1213.48
1243.49
1243.49
1275.1
1275.1
1308.28
1308.28
1342.97
1342.97
1379.09
1379.09
1416.56
1416.56
1455.28
1455.28
1495.14
1495.14
1536.02
1536.02
1577.79
1577.79
1620.34
1620.34
1663.54
1663.54
1707.29
1707.29
1751.45
1751.45
1795.92
1795.92
1840.59
1840.59
1885.39
1885.39
1930.22
1930.22
1975.02
1975.02
2019.72
2019.72
2064.27
2064.27
2108.66
2108.66
2152.86
2152.86
2196.88
2196.88
2240.7
2240.7
2284.37
2284.37
2327.93
2327.93
2371.41
2371.41
2414.91
2414.91
2458.5
2458.5
2502.29
2502.29
2546.4
2546.4
2590.97
2590.97
2636.15
2636.15
2682.14
2682.14
2729.14
2729.14
2777.37
2777.37
2827.1
2827.1
2878.62
2878.62
2932.27
2932.27
2988.43
2988.43
3047.53
3047.53
3110.06
3110.06
3176.59
3176.59
3247.8
3247.8
3324.44
3324.44
3407.45
3407.45
3497.93
3497.93
3597.2
3597.2
3706.89
3706.89
3829
3829
3966.05
3966.05
4121.23
4121.23
4298.71
4298.71
4503.95
4503.94
4744.36
4744.36
5030.2
5030.2
5376.14
5376.14
5803.86
5803.86
6346.86
6346.86
7059.6
7059.6
8036.56
8036.56
9455.2
9455.2
11683.7
11683.7
15579.7
15579.7
23374.5
23374.5
41283.2
41283.2
89179.5
89179.5
264988
264988
1.52417e+06
1.52417e+06
5.0786
5.07857
5.08976
5.08973
5.11102
5.111
5.14143
5.14143
5.18082
5.18084
5.22899
5.22904
5.2851
5.28518
5.34765
5.34774
5.41517
5.41521
5.48663
5.48656
5.56033
5.56017
5.63299
5.6328
5.70111
5.70094
5.76392
5.7638
5.82304
5.82295
5.88142
5.88136
5.9422
5.94217
6.0077
6.00769
6.07942
6.07942
6.15861
6.15861
6.24633
6.24635
6.3432
6.34321
6.44923
6.44925
6.56433
6.56436
6.68845
6.68848
6.82162
6.82165
6.96377
6.96381
7.11486
7.11491
7.27494
7.275
7.44373
7.4438
7.61906
7.61916
7.79706
7.79718
7.9733
7.97344
8.14433
8.14449
8.30783
8.30802
8.46242
8.46257
8.60882
8.60888
8.74978
8.74973
8.88764
8.88754
9.02405
9.02393
9.16024
9.16014
9.29805
9.29797
9.43955
9.43949
9.58707
9.58703
9.74301
9.74299
9.90939
9.90939
10.0878
10.0878
10.2795
10.2795
10.4852
10.4852
10.7053
10.7053
10.94
10.94
11.1893
11.1894
11.4535
11.4535
11.7325
11.7325
12.0266
12.0267
12.3359
12.3359
12.6601
12.6601
12.9985
12.9985
13.35
13.35
13.7135
13.7135
14.0877
14.0877
14.472
14.472
14.8664
14.8665
15.2714
15.2714
15.687
15.6871
16.1126
16.1126
16.5465
16.5466
16.9865
16.9866
17.43
17.43
17.8749
17.875
18.3203
18.3204
18.7666
18.7666
19.215
19.2151
19.6679
19.6679
20.1275
20.1275
20.596
20.596
21.075
21.075
21.5655
21.5655
22.0682
22.0682
22.5831
22.5831
23.11
23.11
23.6485
23.6485
24.1979
24.198
24.7578
24.7578
25.3279
25.3279
25.9082
25.9082
26.4992
26.4992
27.1015
27.1015
27.7157
27.7158
28.3431
28.3431
28.9848
28.9848
29.6424
29.6424
30.3171
30.3171
31.0101
31.0101
31.7222
31.7222
32.4539
32.4539
33.206
33.206
33.9795
33.9795
34.7758
34.7758
35.5966
35.5966
36.4442
36.4442
37.3209
37.3209
38.2288
38.2288
39.1703
39.1703
40.1475
40.1475
41.1623
41.1623
42.2169
42.2169
43.3129
43.3129
44.4522
44.4522
45.6362
45.6362
46.8667
46.8667
48.1452
48.1452
49.4731
49.4731
50.8522
50.8523
52.2841
52.2841
53.7703
53.7703
55.3124
55.3125
56.912
56.912
58.5702
58.5702
60.2883
60.2883
62.0673
62.0674
63.9084
63.9085
65.8126
65.8126
67.7809
67.7809
69.8144
69.8144
71.9139
71.914
74.0807
74.0807
76.3158
76.3158
78.6206
78.6206
80.9963
80.9963
83.4443
83.4443
85.966
85.9661
88.5631
88.5631
91.2371
91.2371
93.9898
93.9898
96.823
96.8231
99.7385
99.7385
102.738
102.738
105.823
105.823
108.995
108.995
112.257
112.257
115.609
115.609
119.053
119.053
122.592
122.592
126.226
126.226
129.957
129.957
133.788
133.788
137.72
137.72
141.756
141.756
145.898
145.898
150.148
150.148
154.509
154.509
158.982
158.982
163.572
163.572
168.279
168.279
173.106
173.106
178.055
178.055
183.129
183.129
188.328
188.328
193.656
193.656
199.112
199.112
204.699
204.699
210.418
210.418
216.269
216.269
222.255
222.255
228.376
228.376
234.634
234.634
241.029
241.029
247.562
247.562
254.235
254.235
261.049
261.049
268.004
268.004
275.102
275.102
282.344
282.344
289.73
289.73
297.263
297.263
304.942
304.942
312.768
312.768
320.744
320.744
328.868
328.868
337.142
337.142
345.567
345.567
354.143
354.143
362.869
362.869
371.747
371.747
380.775
380.775
389.954
389.954
399.283
399.283
408.763
408.763
418.391
418.391
428.167
428.167
438.089
438.089
448.156
448.156
458.365
458.365
468.714
468.714
479.2
479.2
489.82
489.82
500.569
500.569
511.445
511.445
522.442
522.442
533.554
533.554
544.777
544.777
556.103
556.103
567.526
567.526
579.037
579.037
590.63
590.63
602.296
602.296
614.026
614.026
625.811
625.811
637.639
637.639
649.499
649.499
661.382
661.382
673.275
673.275
685.168
685.168
697.048
697.048
708.904
708.904
720.725
720.725
732.501
732.501
744.224
744.224
755.886
755.886
767.48
767.48
779.002
779.002
790.452
790.452
801.828
801.828
813.137
813.137
824.387
824.387
835.592
835.592
846.769
846.769
857.946
857.946
869.153
869.153
880.435
880.436
891.844
891.844
903.434
903.434
915.27
915.27
927.422
927.422
939.971
939.971
953.007
953.007
966.627
966.627
980.934
980.934
996.037
996.037
1012.05
1012.05
1029.07
1029.07
1047.23
1047.23
1066.62
1066.62
1087.34
1087.34
1109.49
1109.49
1133.12
1133.12
1158.3
1158.3
1185.08
1185.08
1213.48
1213.48
1243.49
1243.49
1275.1
1275.1
1308.28
1308.28
1342.97
1342.97
1379.09
1379.09
1416.56
1416.56
1455.28
1455.28
1495.14
1495.14
1536.02
1536.02
1577.79
1577.79
1620.34
1620.34
1663.54
1663.54
1707.29
1707.29
1751.45
1751.45
1795.92
1795.92
1840.59
1840.59
1885.39
1885.39
1930.22
1930.22
1975.02
1975.02
2019.72
2019.72
2064.27
2064.27
2108.66
2108.66
2152.86
2152.86
2196.88
2196.88
2240.7
2240.7
2284.37
2284.37
2327.93
2327.93
2371.41
2371.41
2414.91
2414.91
2458.5
2458.5
2502.29
2502.29
2546.4
2546.4
2590.97
2590.97
2636.15
2636.15
2682.14
2682.14
2729.13
2729.13
2777.37
2777.37
2827.1
2827.1
2878.62
2878.62
2932.27
2932.27
2988.43
2988.43
3047.53
3047.53
3110.06
3110.06
3176.59
3176.59
3247.79
3247.79
3324.44
3324.44
3407.45
3407.45
3497.93
3497.93
3597.2
3597.2
3706.89
3706.89
3829
3829
3966.05
3966.05
4121.23
4121.23
4298.7
4298.7
4503.94
4503.94
4744.36
4744.36
5030.2
5030.2
5376.14
5376.14
5803.86
5803.86
6346.86
6346.86
7059.6
7059.6
8036.56
8036.56
9455.2
9455.2
11683.7
11683.7
15579.7
15579.7
23374.5
23374.5
41283.2
41283.2
89179.5
89179.5
264988
264988
1.52417e+06
1.52417e+06
)
;

boundaryField
{
    walls
    {
        blending        binomial2;
        n               2;
        beta1           0.075;
        type            omegaWallFunction;
        value           nonuniform List<scalar> 8(1.52416e+06 1.52416e+06 1.52416e+06 1.52416e+06 1.52417e+06 1.52417e+06 1.52417e+06 1.52417e+06);
    }
    inlet
    {
        type            cyclic;
    }
    outlet
    {
        type            cyclic;
    }
    sides
    {
        type            empty;
    }
}


// ************************************************************************* //
