/*--------------------------------*- C++ -*----------------------------------*\
| =========                 |                                                 |
| \\      /  F ield         | OpenFOAM: The Open Source CFD Toolbox           |
|  \\    /   O peration     | Version:  2012                                  |
|   \\  /    A nd           | Website:  www.openfoam.com                      |
|    \\/     M anipulation  |                                                 |
\*---------------------------------------------------------------------------*/
FoamFile
{
    version     2.0;
    format      ascii;
    class       volScalarField;
    location    "12300";
    object      p;
}
// * * * * * * * * * * * * * * * * * * * * * * * * * * * * * * * * * * * * * //

dimensions      [0 2 -2 0 0 0 0];


internalField   nonuniform List<scalar> 
2560
(
-1.85877e-09
0.00032231
-3.61047e-08
0.00032226
-2.32474e-07
0.000322051
-8.38147e-07
0.000321441
-2.21804e-06
0.000320064
-4.91863e-06
0.000317365
-9.61675e-06
0.000312667
-1.70931e-05
0.000305189
-2.82879e-05
0.000293993
-4.42743e-05
0.000278004
-6.62652e-05
0.000256011
-9.56219e-05
0.00022665
-0.000133831
0.000188438
-0.000182522
0.000139742
-0.000243468
7.87915e-05
-0.000318568
3.68442e-06
-0.000409854
-8.7607e-05
-0.000519479
-0.000197239
-0.000649755
-0.000327521
-0.000803084
-0.000480858
-0.000981975
-0.000659757
-0.00118909
-0.000866885
-0.00142724
-0.00110504
-0.00169922
-0.00137703
-0.00200798
-0.0016858
-0.00235667
-0.0020345
-0.00274845
-0.00242629
-0.00318647
-0.00286432
-0.00367407
-0.00335192
-0.00421473
-0.0038926
-0.00481194
-0.00448982
-0.00546913
-0.00514702
-0.00618992
-0.00586782
-0.00697806
-0.00665597
-0.00783721
-0.00751513
-0.00877101
-0.00844894
-0.0097833
-0.00946125
-0.010878
-0.010556
-0.0120589
-0.0117369
-0.0133297
-0.0130077
-0.0146944
-0.0143724
-0.0161569
-0.0158349
-0.0177212
-0.0173992
-0.019391
-0.019069
-0.0211702
-0.0208482
-0.0230627
-0.0227408
-0.0250726
-0.0247506
-0.0272033
-0.0268813
-0.0294589
-0.0291369
-0.0318436
-0.0315217
-0.0343606
-0.0340386
-0.0370126
-0.0366907
-0.0398059
-0.039484
-0.0427422
-0.0424203
-0.045825
-0.0455031
-0.0490594
-0.0487375
-0.0524469
-0.0521251
-0.0559928
-0.0556709
-0.0596991
-0.0593772
-0.0635688
-0.0632469
-0.0676057
-0.0672839
-0.0718131
-0.0714912
-0.0761944
-0.0758726
-0.0807501
-0.0804283
-0.0854846
-0.0851628
-0.0904019
-0.0900801
-0.0955012
-0.0951794
-0.100787
-0.100465
-0.10626
-0.105938
-0.111924
-0.111603
-0.11778
-0.117458
-0.123828
-0.123506
-0.130071
-0.129749
-0.136509
-0.136187
-0.143145
-0.142823
-0.149977
-0.149656
-0.157009
-0.156687
-0.164237
-0.163915
-0.171665
-0.171343
-0.179289
-0.178967
-0.187112
-0.18679
-0.19513
-0.194808
-0.203343
-0.203021
-0.21175
-0.211428
-0.220348
-0.220026
-0.229136
-0.228814
-0.238113
-0.237791
-0.247274
-0.246952
-0.256617
-0.256295
-0.266139
-0.265817
-0.275834
-0.275513
-0.285702
-0.28538
-0.295736
-0.295415
-0.305934
-0.305612
-0.316287
-0.315965
-0.326794
-0.326472
-0.337449
-0.337127
-0.348243
-0.347921
-0.359175
-0.358853
-0.370235
-0.369913
-0.381418
-0.381096
-0.392719
-0.392397
-0.404128
-0.403806
-0.415639
-0.415317
-0.427246
-0.426924
-0.43894
-0.438618
-0.450715
-0.450393
-0.462561
-0.462239
-0.474472
-0.474149
-0.486439
-0.486117
-0.498454
-0.498131
-0.510508
-0.510185
-0.522594
-0.522272
-0.534703
-0.534381
-0.546827
-0.546505
-0.558956
-0.558634
-0.571084
-0.570762
-0.583201
-0.582879
-0.595301
-0.594978
-0.607371
-0.607049
-0.619406
-0.619083
-0.631397
-0.631075
-0.643336
-0.643014
-0.655217
-0.654895
-0.667029
-0.666706
-0.678766
-0.678443
-0.69042
-0.690098
-0.701983
-0.70166
-0.71345
-0.713127
-0.72481
-0.724488
-0.736059
-0.735736
-0.747189
-0.746866
-0.758194
-0.757872
-0.769067
-0.768744
-0.779801
-0.779478
-0.790389
-0.790067
-0.800829
-0.800506
-0.811111
-0.810788
-0.821232
-0.820909
-0.831183
-0.83086
-0.840964
-0.840641
-0.850564
-0.850241
-0.859986
-0.859662
-0.869217
-0.868894
-0.878262
-0.877938
-0.887107
-0.886784
-0.895761
-0.895437
-0.904207
-0.903884
-0.912457
-0.912133
-0.920492
-0.92017
-0.92833
-0.928005
-0.935945
-0.935622
-0.943361
-0.943035
-0.950547
-0.950225
-0.957535
-0.957209
-0.964286
-0.963965
-0.970843
-0.970516
-0.977154
-0.976833
-0.983275
-0.982947
-0.989142
-0.988823
-0.994829
-0.994499
-1.00025
-0.999932
-1.0055
-1.00517
-1.01048
-1.01016
-1.0153
-1.01496
-1.01983
-1.01951
-1.02423
-1.02389
-1.0283
-1.028
-1.03229
-1.03194
-1.03592
-1.03562
-1.03949
-1.03914
-1.04268
-1.04238
-1.04586
-1.04549
-1.0486
-1.04832
-1.0514
-1.05102
-1.05369
-1.05343
-1.05614
-1.05574
-1.05799
-1.05775
-1.06011
-1.05968
-1.06151
-1.0613
-1.06334
-1.06287
-1.06428
-1.06412
-1.06587
-1.06533
-1.06638
-1.06625
-1.06773
-1.06711
-1.06807
-1.0677
-1.06895
-1.06823
-1.06913
-1.06852
-1.06955
-1.06872
-1.06957
-1.06872
-1.06922
-1.0686
-1.06907
-1.06833
-1.0683
-1.06789
-1.06801
-1.06737
-1.06685
-1.06664
-1.06642
-1.06586
-1.06503
-1.06485
-1.06433
-1.06382
-1.06279
-1.06256
-1.06176
-1.06129
-1.06007
-1.0598
-1.05873
-1.0583
-1.05688
-1.05658
-1.05527
-1.05486
-1.05325
-1.05293
-1.05139
-1.05099
-1.04919
-1.04886
-1.04711
-1.04671
-1.04474
-1.04439
-1.04243
-1.04205
-1.0399
-1.03954
-1.03739
-1.03701
-1.03469
-1.03433
-1.032
-1.03162
-1.02914
-1.02877
-1.02627
-1.02589
-1.02325
-1.02288
-1.02021
-1.01983
-1.01704
-1.01666
-1.01383
-1.01345
-1.0105
-1.01012
-1.00712
-1.00673
-1.00361
-1.00323
-1.00005
-0.999663
-0.99637
-0.995984
-0.992621
-0.992231
-0.988763
-0.988373
-0.984837
-0.984443
-0.980814
-0.980419
-0.976722
-0.976324
-0.972538
-0.972139
-0.968281
-0.967879
-0.96393
-0.963527
-0.959501
-0.959095
-0.954976
-0.954568
-0.950369
-0.949959
-0.945668
-0.945256
-0.940883
-0.940468
-0.936
-0.935583
-0.931029
-0.930609
-0.925964
-0.925542
-0.920813
-0.920388
-0.915576
-0.915148
-0.910258
-0.909828
-0.904857
-0.904424
-0.899374
-0.898939
-0.893811
-0.893373
-0.888164
-0.887723
-0.882437
-0.881993
-0.87662
-0.876173
-0.870718
-0.870268
-0.864724
-0.864271
-0.858649
-0.858194
-0.852482
-0.852025
-0.84624
-0.84578
-0.83991
-0.839447
-0.833519
-0.833053
-0.827048
-0.82658
-0.820531
-0.82006
-0.813933
-0.81346
-0.807288
-0.806811
-0.800542
-0.800064
-0.793736
-0.793254
-0.786809
-0.786326
-0.779814
-0.779327
-0.772686
-0.772198
-0.765508
-0.765014
-0.758203
-0.75771
-0.75088
-0.75038
-0.743438
-0.742938
-0.735997
-0.735489
-0.728413
-0.727908
-0.720836
-0.720319
-0.71309
-0.712577
-0.705375
-0.704847
-0.697472
-0.696953
-0.68963
-0.689092
-0.681569
-0.681043
-0.6736
-0.673051
-0.665369
-0.664839
-0.657267
-0.65671
-0.648859
-0.648327
-0.640642
-0.640078
-0.632079
-0.631549
-0.623788
-0.623218
-0.615104
-0.614573
-0.606794
-0.606208
-0.598029
-0.597495
-0.589766
-0.589154
-0.58096
-0.580421
-0.57281
-0.572158
-0.563989
-0.563446
-0.55601
-0.555303
-0.547192
-0.546651
-0.53945
-0.538672
-0.530623
-0.530095
-0.523143
-0.522274
-0.514264
-0.513765
-0.507125
-0.506132
-0.498208
-0.497768
-0.49157
-0.490406
-0.482675
-0.482336
-0.476783
-0.47539
-0.467966
-0.467789
-0.463025
-0.461335
-0.454217
-0.454276
-0.450357
-0.448302
-0.441456
-0.441822
-0.438567
-0.43639
-0.429867
-0.430569
-0.427313
-0.425856
-0.419729
-0.420734
-0.417564
-0.416945
-0.411214
-0.41257
-0.409516
-0.409728
-0.404486
-0.406332
-0.403302
-0.404426
-0.399158
-0.402182
-0.398528
-0.401202
-0.396606
-0.400385
0.000321894
1.2289e-06
0.000321844
1.19661e-06
0.000321635
1.00032e-06
0.000321025
3.94154e-07
0.000319648
-9.86065e-07
0.000316949
-3.68732e-06
0.00031225
-8.38633e-06
0.000304772
-1.58645e-05
0.000293576
-2.70613e-05
0.000277587
-4.30509e-05
0.000255593
-6.5045e-05
0.000226233
-9.44064e-05
0.00018802
-0.00013262
0.000139323
-0.000181317
7.83724e-05
-0.000242269
3.26483e-06
-0.000317377
-8.80272e-05
-0.00040867
-0.00019766
-0.000518303
-0.000327943
-0.000648587
-0.000481281
-0.000801927
-0.00066018
-0.000980827
-0.000867309
-0.00118796
-0.00110546
-0.00142611
-0.00137745
-0.0016981
-0.00168623
-0.00200688
-0.00203493
-0.00235558
-0.00242672
-0.00274737
-0.00286475
-0.0031854
-0.00335235
-0.00367302
-0.00389303
-0.0042137
-0.00449026
-0.00481092
-0.00514746
-0.00546813
-0.00586825
-0.00618892
-0.00665641
-0.00697708
-0.00751557
-0.00783625
-0.00844938
-0.00877006
-0.00946169
-0.00978237
-0.0105564
-0.0108771
-0.0117373
-0.012058
-0.0130082
-0.0133288
-0.0143728
-0.0146935
-0.0158354
-0.0161561
-0.0173997
-0.0177204
-0.0190694
-0.0193902
-0.0208487
-0.0211694
-0.0227412
-0.023062
-0.0247511
-0.0250718
-0.0268818
-0.0272025
-0.0291374
-0.0294581
-0.0315221
-0.0318429
-0.0340391
-0.0343599
-0.0366912
-0.037012
-0.0394844
-0.0398052
-0.0424208
-0.0427416
-0.0455035
-0.0458243
-0.048738
-0.0490588
-0.0521255
-0.0524463
-0.0556714
-0.0559922
-0.0593777
-0.0596985
-0.0632474
-0.0635682
-0.0672844
-0.0676052
-0.0714917
-0.0718126
-0.0758731
-0.0761939
-0.0804287
-0.0807496
-0.0851633
-0.0854842
-0.0900806
-0.0904015
-0.0951799
-0.0955008
-0.100466
-0.100787
-0.105939
-0.10626
-0.111603
-0.111924
-0.117458
-0.117779
-0.123506
-0.123827
-0.12975
-0.130071
-0.136188
-0.136509
-0.142823
-0.143144
-0.149656
-0.149977
-0.156688
-0.157009
-0.163916
-0.164237
-0.171343
-0.171664
-0.178967
-0.179289
-0.18679
-0.187111
-0.194808
-0.195129
-0.203021
-0.203343
-0.211429
-0.21175
-0.220027
-0.220348
-0.228815
-0.229136
-0.237791
-0.238112
-0.246952
-0.247274
-0.256296
-0.256617
-0.265818
-0.266139
-0.275513
-0.275834
-0.285381
-0.285702
-0.295415
-0.295736
-0.305613
-0.305934
-0.315965
-0.316287
-0.326473
-0.326794
-0.337128
-0.337449
-0.347922
-0.348243
-0.358853
-0.359175
-0.369913
-0.370235
-0.381096
-0.381418
-0.392398
-0.392719
-0.403806
-0.404128
-0.415318
-0.415639
-0.426925
-0.427247
-0.438619
-0.43894
-0.450393
-0.450715
-0.46224
-0.462561
-0.47415
-0.474472
-0.486118
-0.48644
-0.498132
-0.498454
-0.510186
-0.510508
-0.522273
-0.522595
-0.534381
-0.534703
-0.546506
-0.546828
-0.558635
-0.558957
-0.570762
-0.571085
-0.58288
-0.583202
-0.594979
-0.595301
-0.607049
-0.607371
-0.619084
-0.619406
-0.631076
-0.631398
-0.643014
-0.643337
-0.654895
-0.655218
-0.666707
-0.667029
-0.678444
-0.678766
-0.690098
-0.690421
-0.701661
-0.701983
-0.713127
-0.71345
-0.724488
-0.724811
-0.735737
-0.736059
-0.746866
-0.747189
-0.757872
-0.758195
-0.768744
-0.769067
-0.779478
-0.779801
-0.790067
-0.79039
-0.800507
-0.80083
-0.810788
-0.811111
-0.820909
-0.821233
-0.830861
-0.831184
-0.840641
-0.840964
-0.850242
-0.850565
-0.859662
-0.859986
-0.868894
-0.869217
-0.877939
-0.878262
-0.886785
-0.887108
-0.895438
-0.895762
-0.903884
-0.904207
-0.912133
-0.912458
-0.92017
-0.920493
-0.928005
-0.92833
-0.935623
-0.935945
-0.943036
-0.943361
-0.950225
-0.950547
-0.95721
-0.957536
-0.963965
-0.964287
-0.970516
-0.970843
-0.976833
-0.977154
-0.982947
-0.983275
-0.988823
-0.989143
-0.994499
-0.994829
-0.999932
-1.00025
-1.00517
-1.0055
-1.01016
-1.01048
-1.01496
-1.0153
-1.01951
-1.01983
-1.02389
-1.02423
-1.028
-1.02831
-1.03194
-1.03229
-1.03562
-1.03592
-1.03914
-1.03949
-1.04238
-1.04268
-1.04549
-1.04586
-1.04832
-1.0486
-1.05102
-1.0514
-1.05343
-1.05369
-1.05574
-1.05614
-1.05775
-1.05799
-1.05968
-1.06011
-1.0613
-1.06151
-1.06287
-1.06334
-1.06412
-1.06428
-1.06533
-1.06587
-1.06625
-1.06638
-1.06711
-1.06773
-1.0677
-1.06807
-1.06823
-1.06895
-1.06852
-1.06913
-1.06872
-1.06955
-1.06872
-1.06958
-1.0686
-1.06922
-1.06833
-1.06907
-1.0679
-1.0683
-1.06737
-1.06801
-1.06664
-1.06685
-1.06586
-1.06642
-1.06485
-1.06503
-1.06382
-1.06433
-1.06256
-1.06279
-1.06129
-1.06176
-1.0598
-1.06007
-1.0583
-1.05873
-1.05658
-1.05688
-1.05486
-1.05527
-1.05293
-1.05325
-1.05099
-1.05139
-1.04886
-1.04919
-1.04671
-1.04711
-1.04439
-1.04474
-1.04205
-1.04244
-1.03954
-1.0399
-1.03701
-1.03739
-1.03433
-1.03469
-1.03162
-1.032
-1.02877
-1.02914
-1.02589
-1.02627
-1.02288
-1.02325
-1.01983
-1.02021
-1.01666
-1.01704
-1.01345
-1.01383
-1.01012
-1.0105
-1.00673
-1.00712
-1.00323
-1.00361
-0.999663
-1.00005
-0.995984
-0.996371
-0.992231
-0.992622
-0.988373
-0.988764
-0.984443
-0.984838
-0.980419
-0.980814
-0.976324
-0.976722
-0.972139
-0.972538
-0.967879
-0.968281
-0.963527
-0.963931
-0.959095
-0.959502
-0.954569
-0.954977
-0.949959
-0.95037
-0.945256
-0.945669
-0.940468
-0.940883
-0.935583
-0.936001
-0.930609
-0.931029
-0.925542
-0.925965
-0.920388
-0.920813
-0.915149
-0.915576
-0.909828
-0.910258
-0.904425
-0.904858
-0.898939
-0.899375
-0.893373
-0.893812
-0.887723
-0.888165
-0.881993
-0.882437
-0.876173
-0.87662
-0.870269
-0.870719
-0.864271
-0.864724
-0.858194
-0.85865
-0.852025
-0.852483
-0.84578
-0.846241
-0.839447
-0.839911
-0.833053
-0.833519
-0.82658
-0.827049
-0.82006
-0.820532
-0.81346
-0.813934
-0.806812
-0.807289
-0.800064
-0.800542
-0.793254
-0.793737
-0.786326
-0.78681
-0.779327
-0.779815
-0.772198
-0.772686
-0.765014
-0.765508
-0.75771
-0.758203
-0.75038
-0.750881
-0.742938
-0.743438
-0.735489
-0.735998
-0.727907
-0.728414
-0.720319
-0.720837
-0.712577
-0.71309
-0.704848
-0.705376
-0.696952
-0.697473
-0.689093
-0.689631
-0.681043
-0.68157
-0.673052
-0.673601
-0.664839
-0.66537
-0.656711
-0.657269
-0.648326
-0.648859
-0.640079
-0.640643
-0.631549
-0.632079
-0.623219
-0.62379
-0.614573
-0.615104
-0.606209
-0.606795
-0.597495
-0.598029
-0.589154
-0.589767
-0.58042
-0.58096
-0.572158
-0.572811
-0.563446
-0.563989
-0.555304
-0.556012
-0.54665
-0.547191
-0.538673
-0.539451
-0.530094
-0.530623
-0.522274
-0.523144
-0.513765
-0.514263
-0.506133
-0.507127
-0.497767
-0.498207
-0.490407
-0.491572
-0.482336
-0.482674
-0.475391
-0.476786
-0.467788
-0.467965
-0.461335
-0.463028
-0.454275
-0.454216
-0.448302
-0.450361
-0.441822
-0.441454
-0.436389
-0.438565
-0.430569
-0.429864
-0.425855
-0.427311
-0.420735
-0.419726
-0.416945
-0.41756
-0.41257
-0.411211
-0.409727
-0.409513
-0.406332
-0.404483
-0.404426
-0.403299
-0.402182
-0.399166
-0.401203
-0.398535
-0.400385
-0.396613
-0.396605
-0.400384
-0.398526
-0.401206
-0.399156
-0.402183
-0.403412
-0.404432
-0.404596
-0.406336
-0.409624
-0.409733
-0.411323
-0.412578
-0.417667
-0.416951
-0.419833
-0.42074
-0.427419
-0.425862
-0.429973
-0.430576
-0.43867
-0.436398
-0.44156
-0.44183
-0.450447
-0.448313
-0.454319
-0.454287
-0.463112
-0.461346
-0.468061
-0.4678
-0.476869
-0.475403
-0.482766
-0.482349
-0.491656
-0.490423
-0.498298
-0.497785
-0.507209
-0.506149
-0.51435
-0.513784
-0.523222
-0.52229
-0.530706
-0.530113
-0.539533
-0.538695
-0.547272
-0.54667
-0.556092
-0.555326
-0.56407
-0.56347
-0.572885
-0.572177
-0.581041
-0.580447
-0.589845
-0.589179
-0.598113
-0.597525
-0.606871
-0.606233
-0.615188
-0.614605
-0.623864
-0.623241
-0.632155
-0.631573
-0.640719
-0.640103
-0.648934
-0.64835
-0.657346
-0.656737
-0.665446
-0.664864
-0.673677
-0.673078
-0.681647
-0.68107
-0.689709
-0.68912
-0.697547
-0.696977
-0.705453
-0.704876
-0.713164
-0.712602
-0.720911
-0.720344
-0.728487
-0.727933
-0.736072
-0.735516
-0.74351
-0.742963
-0.750959
-0.750411
-0.758279
-0.757738
-0.765579
-0.765038
-0.772761
-0.772227
-0.779888
-0.779354
-0.786887
-0.786357
-0.79381
-0.793282
-0.800614
-0.80009
-0.807359
-0.806836
-0.814014
-0.813495
-0.820606
-0.820089
-0.827126
-0.826613
-0.833594
-0.833083
-0.839988
-0.83948
-0.846312
-0.845807
-0.852551
-0.852049
-0.858726
-0.858227
-0.864798
-0.864302
-0.870797
-0.870303
-0.876691
-0.8762
-0.882506
-0.882018
-0.888237
-0.887753
-0.89388
-0.893398
-0.899444
-0.898965
-0.904928
-0.904452
-0.910332
-0.90986
-0.915653
-0.915183
-0.920892
-0.920424
-0.926041
-0.925576
-0.931102
-0.93064
-0.936075
-0.935615
-0.940954
-0.940497
-0.94574
-0.945285
-0.950445
-0.949993
-0.955046
-0.954597
-0.959569
-0.959122
-0.964006
-0.96356
-0.968354
-0.967911
-0.972605
-0.972164
-0.976794
-0.976355
-0.980885
-0.980448
-0.984906
-0.984472
-0.988834
-0.9884
-0.992698
-0.992268
-0.996448
-0.996018
-1.00012
-0.999695
-1.00369
-1.00326
-1.00719
-1.00677
-1.01057
-1.01015
-1.0139
-1.01348
-1.01712
-1.01669
-1.02028
-1.01987
-1.02333
-1.02291
-1.02634
-1.02593
-1.02922
-1.0288
-1.03206
-1.03166
-1.03478
-1.03435
-1.03745
-1.03705
-1.03998
-1.03955
-1.04249
-1.0421
-1.04483
-1.0444
-1.04715
-1.04677
-1.0493
-1.04886
-1.05143
-1.05106
-1.05336
-1.05291
-1.05529
-1.05494
-1.05702
-1.05655
-1.05873
-1.0584
-1.06023
-1.05973
-1.06173
-1.06143
-1.06299
-1.06246
-1.06425
-1.064
-1.06528
-1.0647
-1.06629
-1.0661
-1.06707
-1.06653
-1.0678
-1.06769
-1.06832
-1.06798
-1.06876
-1.06875
-1.06903
-1.0689
-1.06915
-1.06926
-1.06915
-1.06923
-1.06895
-1.06881
-1.06866
-1.06863
-1.06813
-1.06775
-1.06754
-1.06741
-1.06667
-1.06606
-1.06576
-1.06555
-1.06455
-1.06395
-1.06329
-1.06302
-1.06173
-1.06118
-1.0601
-1.05979
-1.05818
-1.05767
-1.05617
-1.05583
-1.05385
-1.05337
-1.05144
-1.05107
-1.04874
-1.04827
-1.04592
-1.04554
-1.04282
-1.04237
-1.03956
-1.03917
-1.03605
-1.03561
-1.03237
-1.03197
-1.02841
-1.02798
-1.0243
-1.0239
-1.01993
-1.0195
-1.0154
-1.01499
-1.01057
-1.01015
-1.00559
-1.00518
-1.00035
-0.999924
-0.994909
-0.994498
-0.989261
-0.98884
-0.983373
-0.982962
-0.977242
-0.976823
-0.970955
-0.970542
-0.964385
-0.963967
-0.957615
-0.957202
-0.950667
-0.95025
-0.943472
-0.943059
-0.936055
-0.935639
-0.928449
-0.928035
-0.920567
-0.920151
-0.912566
-0.912152
-0.904294
-0.903878
-0.895851
-0.895437
-0.88721
-0.886795
-0.87834
-0.877926
-0.869277
-0.868862
-0.860077
-0.859663
-0.850697
-0.850283
-0.841025
-0.840612
-0.831271
-0.830857
-0.821324
-0.82091
-0.811225
-0.810811
-0.800943
-0.800529
-0.790529
-0.790115
-0.779943
-0.77953
-0.769138
-0.768724
-0.75828
-0.757867
-0.747335
-0.746922
-0.736128
-0.735715
-0.724852
-0.724439
-0.713566
-0.713153
-0.702117
-0.701704
-0.69055
-0.690137
-0.678835
-0.678422
-0.667154
-0.666741
-0.655343
-0.65493
-0.643455
-0.643042
-0.63145
-0.631037
-0.619537
-0.619124
-0.607523
-0.60711
-0.595334
-0.594922
-0.58336
-0.582948
-0.571235
-0.570823
-0.55904
-0.558627
-0.546864
-0.546452
-0.534805
-0.534392
-0.522621
-0.522209
-0.510585
-0.510173
-0.498604
-0.498191
-0.486463
-0.486051
-0.474563
-0.474151
-0.462699
-0.462287
-0.450749
-0.450337
-0.439034
-0.438622
-0.427425
-0.427013
-0.415721
-0.415309
-0.404139
-0.403727
-0.392844
-0.392432
-0.381505
-0.381093
-0.370298
-0.369886
-0.359237
-0.358825
-0.348337
-0.347925
-0.33759
-0.337178
-0.326844
-0.326433
-0.316447
-0.316036
-0.306069
-0.305657
-0.29587
-0.295459
-0.285886
-0.285474
-0.275913
-0.275502
-0.266166
-0.265755
-0.256628
-0.256217
-0.247328
-0.246916
-0.238243
-0.237832
-0.229227
-0.228815
-0.220436
-0.220025
-0.2119
-0.211489
-0.203421
-0.20301
-0.195207
-0.194796
-0.187227
-0.186816
-0.179349
-0.178938
-0.171706
-0.171295
-0.164344
-0.163932
-0.157048
-0.156637
-0.150042
-0.149631
-0.143261
-0.14285
-0.136619
-0.136208
-0.130191
-0.129781
-0.123918
-0.123507
-0.117851
-0.11744
-0.112096
-0.111685
-0.106385
-0.105975
-0.100857
-0.100447
-0.0956431
-0.0952324
-0.0904853
-0.0900746
-0.0856234
-0.0852127
-0.0808257
-0.080415
-0.0763181
-0.0759074
-0.0718686
-0.0714579
-0.0677153
-0.0673047
-0.0637179
-0.0633074
-0.0597967
-0.0593862
-0.0561208
-0.0557103
-0.0525407
-0.0521302
-0.0491805
-0.04877
-0.0459258
-0.0455153
-0.0428729
-0.0424624
-0.0399276
-0.0395171
-0.0370805
-0.03667
-0.0344341
-0.0340237
-0.0319602
-0.0315498
-0.0295948
-0.0291843
-0.0273085
-0.0268982
-0.0251376
-0.0247272
-0.0231834
-0.022773
-0.0212669
-0.0208565
-0.0194877
-0.0190773
-0.0178075
-0.0173971
-0.0162608
-0.0158505
-0.0147968
-0.0143865
-0.0134135
-0.0130032
-0.0121499
-0.0117397
-0.0109703
-0.0105601
-0.00988957
-0.00947933
-0.00885242
-0.00844217
-0.00794064
-0.00753036
-0.00707175
-0.00666149
-0.00628003
-0.00586979
-0.00556095
-0.00515072
-0.00491151
-0.00450129
-0.004323
-0.0039128
-0.00377337
-0.00336316
-0.0032786
-0.00286838
-0.00284244
-0.00243224
-0.00245116
-0.00204097
-0.00209506
-0.00168489
-0.00179263
-0.00138244
-0.00152022
-0.00111004
-0.00128036
-0.000870179
-0.0010772
-0.000667026
-0.000900674
-0.000490505
-0.000745407
-0.000335238
-0.000613374
-0.000203202
-0.000505146
-9.49805e-05
-0.000414766
-4.60744e-06
-0.00033829
7.18687e-05
-0.000276413
0.000133748
-0.000228299
0.000181858
-0.000190506
0.000219645
-0.000160597
0.000249555
-0.000138336
0.000271817
-0.000122598
0.000287553
-0.000111569
0.000298578
-0.000103975
0.000306172
-9.92413e-05
0.000310905
-9.65834e-05
0.000313559
-9.52219e-05
0.000314915
-9.46037e-05
0.000315535
-9.43987e-05
0.000315754
-9.43654e-05
0.000315809
-0.400385
-0.396613
-0.401206
-0.398534
-0.402183
-0.399163
-0.404432
-0.403408
-0.406336
-0.404592
-0.409733
-0.40962
-0.412578
-0.411318
-0.41695
-0.417662
-0.420741
-0.419829
-0.425861
-0.427416
-0.430577
-0.429969
-0.436397
-0.438667
-0.441829
-0.441557
-0.448313
-0.450449
-0.454287
-0.454316
-0.461346
-0.463114
-0.467799
-0.468059
-0.475404
-0.476871
-0.482348
-0.482764
-0.490423
-0.491658
-0.497784
-0.498296
-0.50615
-0.50721
-0.513783
-0.514349
-0.52229
-0.523223
-0.530112
-0.530704
-0.538695
-0.539534
-0.546669
-0.547271
-0.555327
-0.556092
-0.563469
-0.564069
-0.572177
-0.572886
-0.580446
-0.58104
-0.589179
-0.589845
-0.597524
-0.598112
-0.606234
-0.606872
-0.614604
-0.615187
-0.623242
-0.623864
-0.631572
-0.632155
-0.640104
-0.640719
-0.648349
-0.648933
-0.656737
-0.657347
-0.664863
-0.665445
-0.673078
-0.673678
-0.681069
-0.681646
-0.68912
-0.689709
-0.696977
-0.697547
-0.704876
-0.705453
-0.712601
-0.713164
-0.720344
-0.720911
-0.727932
-0.728487
-0.735516
-0.736073
-0.742962
-0.743509
-0.750411
-0.750959
-0.757738
-0.758279
-0.765038
-0.765579
-0.772226
-0.772761
-0.779354
-0.779888
-0.786357
-0.786886
-0.793282
-0.79381
-0.80009
-0.800614
-0.806836
-0.807359
-0.813495
-0.814013
-0.820089
-0.820606
-0.826613
-0.827126
-0.833083
-0.833594
-0.83948
-0.839987
-0.845807
-0.846312
-0.852049
-0.852551
-0.858227
-0.858726
-0.864301
-0.864798
-0.870303
-0.870797
-0.8762
-0.87669
-0.882018
-0.882506
-0.887753
-0.888237
-0.893398
-0.89388
-0.898965
-0.899443
-0.904452
-0.904928
-0.909859
-0.910332
-0.915183
-0.915653
-0.920424
-0.920891
-0.925576
-0.926041
-0.93064
-0.931102
-0.935615
-0.936075
-0.940497
-0.940953
-0.945285
-0.945739
-0.949993
-0.950445
-0.954596
-0.955046
-0.959122
-0.959568
-0.96356
-0.964005
-0.967911
-0.968354
-0.972164
-0.972605
-0.976355
-0.976793
-0.980448
-0.980885
-0.984472
-0.984905
-0.9884
-0.988834
-0.992268
-0.992698
-0.996018
-0.996448
-0.999694
-1.00012
-1.00326
-1.00369
-1.00677
-1.00719
-1.01015
-1.01057
-1.01348
-1.0139
-1.01669
-1.01712
-1.01987
-1.02028
-1.02291
-1.02333
-1.02593
-1.02634
-1.0288
-1.02922
-1.03166
-1.03206
-1.03435
-1.03478
-1.03705
-1.03745
-1.03955
-1.03998
-1.0421
-1.04249
-1.0444
-1.04483
-1.04677
-1.04715
-1.04886
-1.0493
-1.05106
-1.05143
-1.05291
-1.05336
-1.05494
-1.05529
-1.05655
-1.05701
-1.0584
-1.05873
-1.05973
-1.06023
-1.06143
-1.06173
-1.06246
-1.06299
-1.064
-1.06425
-1.0647
-1.06528
-1.0661
-1.06629
-1.06652
-1.06707
-1.06769
-1.0678
-1.06798
-1.06832
-1.06875
-1.06876
-1.0689
-1.06903
-1.06926
-1.06915
-1.06923
-1.06915
-1.06881
-1.06895
-1.06863
-1.06866
-1.06775
-1.06813
-1.06741
-1.06754
-1.06606
-1.06667
-1.06555
-1.06576
-1.06395
-1.06455
-1.06302
-1.06329
-1.06118
-1.06173
-1.05979
-1.0601
-1.05767
-1.05818
-1.05583
-1.05617
-1.05337
-1.05385
-1.05107
-1.05144
-1.04827
-1.04874
-1.04554
-1.04592
-1.04237
-1.04282
-1.03917
-1.03956
-1.03561
-1.03605
-1.03197
-1.03237
-1.02798
-1.02841
-1.0239
-1.0243
-1.0195
-1.01993
-1.01499
-1.0154
-1.01015
-1.01057
-1.00518
-1.00559
-0.999924
-1.00035
-0.994498
-0.994908
-0.98884
-0.989261
-0.982962
-0.983373
-0.976823
-0.977242
-0.970542
-0.970954
-0.963967
-0.964385
-0.957202
-0.957615
-0.95025
-0.950667
-0.943059
-0.943472
-0.935639
-0.936055
-0.928035
-0.928449
-0.920151
-0.920567
-0.912152
-0.912566
-0.903878
-0.904294
-0.895437
-0.895851
-0.886795
-0.88721
-0.877926
-0.87834
-0.868862
-0.869277
-0.859663
-0.860077
-0.850283
-0.850697
-0.840611
-0.841025
-0.830857
-0.831271
-0.82091
-0.821324
-0.810811
-0.811224
-0.800529
-0.800943
-0.790115
-0.790529
-0.77953
-0.779943
-0.768724
-0.769138
-0.757867
-0.75828
-0.746922
-0.747335
-0.735715
-0.736128
-0.724439
-0.724852
-0.713153
-0.713566
-0.701704
-0.702117
-0.690137
-0.69055
-0.678422
-0.678835
-0.666741
-0.667154
-0.65493
-0.655343
-0.643042
-0.643455
-0.631037
-0.63145
-0.619124
-0.619537
-0.60711
-0.607523
-0.594922
-0.595334
-0.582948
-0.58336
-0.570823
-0.571235
-0.558627
-0.55904
-0.546452
-0.546864
-0.534392
-0.534805
-0.522209
-0.522621
-0.510173
-0.510585
-0.498191
-0.498604
-0.486051
-0.486463
-0.474151
-0.474563
-0.462287
-0.462699
-0.450337
-0.450749
-0.438622
-0.439034
-0.427013
-0.427425
-0.415309
-0.415721
-0.403727
-0.404139
-0.392432
-0.392844
-0.381093
-0.381505
-0.369886
-0.370298
-0.358825
-0.359237
-0.347925
-0.348337
-0.337178
-0.33759
-0.326433
-0.326844
-0.316036
-0.316447
-0.305657
-0.306069
-0.295459
-0.29587
-0.285474
-0.285885
-0.275502
-0.275913
-0.265755
-0.266166
-0.256217
-0.256628
-0.246916
-0.247327
-0.237832
-0.238243
-0.228815
-0.229227
-0.220025
-0.220436
-0.211489
-0.2119
-0.20301
-0.203421
-0.194796
-0.195207
-0.186816
-0.187227
-0.178938
-0.179349
-0.171295
-0.171706
-0.163933
-0.164344
-0.156637
-0.157048
-0.149632
-0.150042
-0.14285
-0.143261
-0.136208
-0.136619
-0.129781
-0.130191
-0.123507
-0.123918
-0.11744
-0.117851
-0.111685
-0.112096
-0.105975
-0.106385
-0.100447
-0.100857
-0.0952324
-0.0956431
-0.0900747
-0.0904853
-0.0852127
-0.0856234
-0.0804151
-0.0808257
-0.0759075
-0.0763181
-0.071458
-0.0718686
-0.0673047
-0.0677153
-0.0633074
-0.063718
-0.0593862
-0.0597967
-0.0557104
-0.0561209
-0.0521303
-0.0525407
-0.0487701
-0.0491805
-0.0455154
-0.0459258
-0.0424625
-0.0428729
-0.0395172
-0.0399277
-0.0366701
-0.0370805
-0.0340237
-0.0344341
-0.0315499
-0.0319602
-0.0291844
-0.0295948
-0.0268982
-0.0273086
-0.0247273
-0.0251376
-0.0227731
-0.0231834
-0.0208566
-0.0212669
-0.0190774
-0.0194877
-0.0173972
-0.0178075
-0.0158506
-0.0162609
-0.0143866
-0.0147968
-0.0130033
-0.0134135
-0.0117398
-0.01215
-0.0105602
-0.0109704
-0.00947942
-0.00988963
-0.00844227
-0.00885248
-0.00753046
-0.0079407
-0.00666159
-0.00707181
-0.00586989
-0.00628009
-0.00515082
-0.00556101
-0.00450139
-0.00491157
-0.0039129
-0.00432307
-0.00336327
-0.00377344
-0.00286849
-0.00327867
-0.00243235
-0.00284251
-0.00204108
-0.00245123
-0.001685
-0.00209514
-0.00138256
-0.00179271
-0.00111015
-0.0015203
-0.000870294
-0.00128044
-0.000667141
-0.00107728
-0.000490621
-0.000900753
-0.000335354
-0.000745486
-0.000203319
-0.000613454
-9.50983e-05
-0.000505226
-4.72582e-06
-0.000414848
7.17498e-05
-0.000338372
0.000133629
-0.000276495
0.000181738
-0.000228382
0.000219525
-0.00019059
0.000249434
-0.000160681
0.000271697
-0.00013842
0.000287432
-0.000122682
0.000298457
-0.000111653
0.000306051
-0.000104059
0.000310783
-9.93259e-05
0.000313437
-9.6668e-05
0.000314793
-9.53066e-05
0.000315414
-9.46884e-05
0.000315633
-9.44833e-05
0.000315688
-9.44498e-05
)
;

boundaryField
{
    walls
    {
        type            zeroGradient;
    }
    inlet
    {
        type            cyclic;
    }
    outlet
    {
        type            cyclic;
    }
    sides
    {
        type            empty;
    }
}


// ************************************************************************* //
