/*--------------------------------*- C++ -*----------------------------------*\
| =========                 |                                                 |
| \\      /  F ield         | OpenFOAM: The Open Source CFD Toolbox           |
|  \\    /   O peration     | Version:  2012                                  |
|   \\  /    A nd           | Website:  www.openfoam.com                      |
|    \\/     M anipulation  |                                                 |
\*---------------------------------------------------------------------------*/
FoamFile
{
    version     2.0;
    format      ascii;
    class       surfaceScalarField;
    location    "1000";
    object      phi;
}
// * * * * * * * * * * * * * * * * * * * * * * * * * * * * * * * * * * * * * //

dimensions      [0 3 -1 0 0 0 0];
oriented        oriented;


internalField   nonuniform List<scalar> 
636
(
1.13245e-06
-1.65724e-17
-1.888e-20
-4.68311e-20
1.57253e-21
3.97976e-06
-1.64204e-17
-4.48057e-20
-1.56748e-19
3.00505e-21
7.89971e-06
-1.62179e-17
-6.02972e-20
-3.06802e-19
3.93874e-21
1.321e-05
-1.59366e-17
-8.27289e-20
-5.10201e-19
4.8221e-21
2.02839e-05
-1.55646e-17
-1.10453e-19
-7.77962e-19
5.27598e-21
2.94649e-05
-1.50983e-17
-1.40089e-19
-1.10841e-18
4.65824e-21
4.08801e-05
-1.45546e-17
-1.65657e-19
-1.49455e-18
2.33799e-21
5.43602e-05
-1.39473e-17
-1.83188e-19
-1.92014e-18
-1.84371e-21
6.96895e-05
-1.33057e-17
-1.94228e-19
-2.33104e-18
-7.64751e-21
8.68615e-05
-1.26538e-17
-2.02572e-19
-2.75525e-18
-1.51791e-20
0.00010608
-1.19896e-17
-2.10774e-19
-3.18707e-18
-2.45641e-20
0.000127669
-1.13438e-17
-2.19544e-19
-3.56772e-18
-3.58094e-20
0.000152024
-1.06882e-17
-2.289e-19
-3.95026e-18
-4.94235e-20
0.000179586
-1.0052e-17
-2.38257e-19
-4.27806e-18
-6.54383e-20
0.000210851
-9.38572e-18
-2.46925e-19
-4.61991e-18
-8.4193e-20
0.000246366
-8.71669e-18
-2.54526e-19
-4.93893e-18
-1.04729e-19
0.000286745
-8.16424e-18
-2.62215e-19
-5.20172e-18
-1.23886e-19
0.00033267
-7.65933e-18
-2.66193e-19
-5.312e-18
-1.41897e-19
0.000384908
-7.08079e-18
-2.64656e-19
-5.46948e-18
-1.59545e-19
0.00044432
-6.68342e-18
-2.61979e-19
-5.45586e-18
-1.72733e-19
0.000511873
-6.26519e-18
-2.49716e-19
-5.38499e-18
-1.87303e-19
0.000588655
-5.95679e-18
-2.38588e-19
-5.38226e-18
-2.02076e-19
0.000675891
-5.66405e-18
-2.27785e-19
-5.32242e-18
-2.10688e-19
0.000774961
-5.35177e-18
-2.1909e-19
-5.12297e-18
-2.07792e-19
0.000887421
-5.10166e-18
-2.14387e-19
-5.01782e-18
-2.04074e-19
0.00101503
-5.07584e-18
-2.12683e-19
-4.93297e-18
-2.00977e-19
0.00115976
-4.79717e-18
-1.95004e-19
-4.9156e-18
-2.14471e-19
0.00132386
-4.86064e-18
-2.1158e-19
-4.77715e-18
-1.85872e-19
0.00150984
-4.81598e-18
-1.71955e-19
-4.69478e-18
-1.58734e-19
0.00172054
-4.35004e-18
-9.94828e-20
-4.47342e-18
-9.82386e-20
0.00195916
-4.12148e-18
-1.19335e-19
-4.2124e-18
-8.15598e-20
0.00222926
-3.88449e-18
-8.84981e-20
-3.93194e-18
-5.54846e-20
0.00253485
-3.88422e-18
-1.44537e-19
-3.7172e-18
-5.74388e-20
0.00288038
-3.57388e-18
-5.31866e-20
-3.55917e-18
1.01781e-20
0.00327076
-3.06173e-18
-1.35897e-19
-3.12368e-18
2.57504e-19
0.00371131
-2.83057e-18
1.19512e-19
-2.88494e-18
2.01287e-19
0.00420769
-2.4369e-18
4.61171e-20
-2.47913e-18
1.855e-20
0.0047656
-2.19092e-18
1.2035e-19
-2.14354e-18
2.19965e-19
0.00539008
-2.03908e-18
-6.07233e-19
-2.17051e-18
-3.62862e-19
0.0060841
-6.52741e-19
-1.68953e-18
1.69981e-19
-1.48956e-18
1.13245e-06
-1.43953e-20
-2.88356e-21
3.97976e-06
-4.74363e-20
-1.13294e-20
7.89971e-06
-8.82501e-20
-2.49308e-20
1.321e-05
-1.5007e-19
-4.2271e-20
2.02839e-05
-2.33899e-19
-6.54378e-20
2.94649e-05
-3.37076e-19
-9.92894e-20
4.08801e-05
-4.49019e-19
-1.4389e-19
5.43602e-05
-5.77845e-19
-1.89343e-19
6.96895e-05
-7.28504e-19
-2.62839e-19
8.68615e-05
-8.89454e-19
-3.36115e-19
0.00010608
-1.00437e-18
-4.11718e-19
0.000127669
-1.15268e-18
-5.24284e-19
0.000152024
-1.28636e-18
-6.38541e-19
0.000179586
-1.44606e-18
-7.84384e-19
0.000210851
-1.57271e-18
-9.78878e-19
0.000246366
-1.75187e-18
-1.09971e-18
0.000286745
-1.88005e-18
-1.34532e-18
0.00033267
-2.0247e-18
-1.60046e-18
0.000384908
-2.19021e-18
-1.86239e-18
0.00044432
-2.27808e-18
-2.13571e-18
0.000511873
-2.49438e-18
-2.3381e-18
0.000588655
-2.71676e-18
-2.51437e-18
0.000675891
-2.95134e-18
-2.69473e-18
0.000774961
-3.1368e-18
-2.95043e-18
0.000887421
-3.24839e-18
-3.19072e-18
0.00101503
-3.44157e-18
-3.45154e-18
0.00115976
-3.56853e-18
-3.52628e-18
0.00132386
-3.65904e-18
-3.62944e-18
0.00150984
-3.82879e-18
-3.75618e-18
0.00172054
-3.80573e-18
-3.87218e-18
0.00195916
-3.64416e-18
-3.74017e-18
0.00222926
-3.70797e-18
-3.71773e-18
0.00253485
-3.67768e-18
-3.53141e-18
0.00288038
-3.55922e-18
-3.25688e-18
0.00327076
-3.01435e-18
-3.19639e-18
0.00371131
-3.01753e-18
-3.086e-18
0.00420769
-2.47874e-18
-2.47027e-18
0.0047656
-2.35925e-18
-2.29441e-18
0.00539008
-1.94844e-18
-1.99227e-18
0.0060841
-1.57337e-18
-1.57405e-18
0.0060841
-1.26913e-18
-1.81102e-19
-1.44149e-18
-5.77683e-19
0.00539008
-1.02304e-18
2.21847e-19
-9.6535e-19
1.6173e-19
0.00476559
-7.33624e-19
6.33912e-20
-7.38543e-19
1.89936e-19
0.00420769
-6.82454e-19
-3.79663e-19
-7.08209e-19
-4.1084e-19
0.00371131
-4.14362e-19
3.50098e-20
-3.01411e-19
2.2783e-19
0.00327076
-1.68745e-19
1.92478e-20
-1.82206e-19
5.54939e-20
0.00288038
-4.29482e-19
-9.31405e-20
-4.58832e-19
2.80752e-21
0.00253485
-2.17691e-19
-2.38617e-20
-2.38982e-19
7.97735e-20
0.00222926
-4.15181e-19
-4.09458e-20
-4.26244e-19
-2.79626e-20
0.00195915
-1.04718e-19
7.35184e-20
-1.27477e-19
4.45467e-20
0.00172054
-3.20977e-19
-2.94756e-20
-1.72549e-19
2.22905e-20
0.00150984
-2.90078e-19
7.32637e-21
-3.07036e-19
-3.85586e-20
0.00132386
-1.83803e-19
4.91361e-21
-2.51766e-19
-6.48815e-20
0.00115976
-2.81899e-19
2.50785e-21
-1.84452e-19
-5.67671e-20
0.00101503
-6.4429e-20
2.49196e-20
-1.23274e-19
-1.01259e-20
0.000887421
4.62656e-20
1.13788e-20
1.46149e-20
8.46709e-21
0.000774961
2.52771e-20
9.14449e-21
1.10177e-21
-3.97342e-21
0.000675891
-4.88088e-20
8.48949e-21
6.37375e-21
-2.16915e-21
0.000588655
3.90317e-20
1.88791e-20
3.56078e-20
-2.80754e-21
0.000511873
1.39393e-20
1.08619e-20
1.54814e-20
-3.49545e-21
0.00044432
-1.23136e-20
8.97317e-21
7.35261e-21
-4.01166e-21
0.000384908
-2.73018e-20
8.45154e-21
-9.28983e-21
-3.69745e-21
0.00033267
3.10537e-20
9.0649e-21
-2.44757e-21
-1.60368e-21
0.000286745
-9.91894e-21
6.75615e-21
-2.30402e-20
-1.96882e-22
0.000246366
-2.54442e-20
5.60305e-21
-2.64722e-20
9.05722e-22
0.000210851
-1.55043e-20
4.50273e-21
-1.96616e-20
1.53015e-21
0.000179586
-1.07024e-20
3.13165e-21
1.4115e-20
1.80021e-21
0.000152024
-1.32429e-21
2.64477e-21
4.95577e-21
1.39381e-21
0.000127669
9.83091e-21
2.25841e-21
-1.79861e-20
1.42128e-21
0.00010608
6.95195e-22
1.97518e-21
-1.38382e-20
1.47483e-21
8.68615e-05
-7.71465e-21
1.75396e-21
9.70172e-21
1.44301e-21
6.96895e-05
3.81153e-21
1.53585e-21
1.09925e-20
1.26623e-21
5.43603e-05
4.70255e-21
1.33309e-21
5.57646e-21
1.09577e-21
4.08801e-05
5.76815e-21
1.11752e-21
6.68441e-21
9.31506e-22
2.94649e-05
-6.16928e-22
8.87142e-22
6.09987e-21
7.48666e-22
2.02839e-05
-3.01326e-22
6.66453e-22
3.85337e-21
5.69729e-22
1.321e-05
-1.25508e-21
4.81618e-22
1.93567e-21
4.1619e-22
7.89972e-06
4.91523e-23
3.42681e-22
9.38234e-22
2.98537e-22
3.97977e-06
-1.79864e-22
2.41314e-22
1.48596e-22
2.1235e-22
1.13245e-06
-1.71276e-23
2.47827e-23
0.0060841
-1.13302e-18
-1.19731e-18
0.00539008
-1.05082e-18
-9.52443e-19
0.00476559
-1.00544e-18
-1.05589e-18
0.00420769
-5.596e-19
-4.85196e-19
0.00371131
-3.66122e-19
-3.62061e-19
0.00327076
-2.27014e-19
-1.89765e-19
0.00288038
-4.09934e-19
-3.75278e-19
0.00253485
-2.57033e-19
-2.96686e-19
0.00222926
-2.0942e-19
-3.23073e-19
0.00195915
-1.41607e-19
-9.21338e-20
0.00172054
9.93201e-21
-5.24749e-20
0.00150984
-1.13435e-19
-2.25537e-19
0.00132386
-9.93618e-20
-1.71561e-19
0.00115976
-1.4531e-19
1.93546e-20
0.00101503
-1.54791e-19
-7.63466e-20
0.000887421
2.09286e-20
-1.08978e-19
0.000774961
6.34304e-21
-3.02398e-20
0.000675891
7.38107e-20
-6.16706e-20
0.000588655
-8.72919e-20
1.02434e-21
0.000511873
-5.19853e-20
-3.30086e-20
0.00044432
-6.62465e-20
-6.31587e-20
0.000384908
-4.1423e-20
-3.04891e-20
0.00033267
-7.90708e-20
-5.52441e-21
0.000286745
-6.62198e-20
-3.53617e-21
0.000246366
-6.11187e-20
-1.36022e-20
0.000210851
-7.48072e-20
-5.87474e-21
0.000179586
-1.90912e-20
-3.30387e-20
0.000152024
-1.98259e-20
-7.58373e-21
0.000127669
-2.4236e-21
-2.77043e-20
0.00010608
1.49055e-21
-2.83777e-20
8.68615e-05
-9.87283e-21
-2.55495e-20
6.96895e-05
-1.53462e-21
-2.0895e-20
5.43603e-05
-3.82952e-21
-1.80838e-20
4.08801e-05
-5.26284e-22
-1.02774e-20
2.94649e-05
-3.51038e-21
-4.60546e-21
2.02839e-05
-3.04155e-21
-3.54531e-21
1.321e-05
-1.78309e-21
-1.40149e-21
7.89972e-06
-1.14407e-21
-4.43257e-22
3.97977e-06
-1.62717e-22
-1.72373e-23
1.13245e-06
)
;

boundaryField
{
    walls
    {
        type            calculated;
        value           uniform 0;
    }
    inlet
    {
        type            cyclic;
        value           nonuniform List<scalar> 
160
(
-1.13245e-06
-3.97976e-06
-7.89971e-06
-1.321e-05
-2.02839e-05
-2.94649e-05
-4.08801e-05
-5.43602e-05
-6.96895e-05
-8.68615e-05
-0.00010608
-0.000127669
-0.000152024
-0.000179586
-0.000210851
-0.000246366
-0.000286745
-0.00033267
-0.000384908
-0.00044432
-0.000511873
-0.000588655
-0.000675891
-0.000774961
-0.000887421
-0.00101503
-0.00115976
-0.00132386
-0.00150984
-0.00172054
-0.00195916
-0.00222926
-0.00253485
-0.00288038
-0.00327076
-0.00371131
-0.00420769
-0.0047656
-0.00539008
-0.0060841
-1.13245e-06
-3.97976e-06
-7.89971e-06
-1.321e-05
-2.02839e-05
-2.94649e-05
-4.08801e-05
-5.43602e-05
-6.96895e-05
-8.68615e-05
-0.00010608
-0.000127669
-0.000152024
-0.000179586
-0.000210851
-0.000246366
-0.000286745
-0.00033267
-0.000384908
-0.00044432
-0.000511873
-0.000588655
-0.000675891
-0.000774961
-0.000887421
-0.00101503
-0.00115976
-0.00132386
-0.00150984
-0.00172054
-0.00195916
-0.00222926
-0.00253485
-0.00288038
-0.00327076
-0.00371131
-0.00420769
-0.0047656
-0.00539008
-0.0060841
-0.0060841
-0.00539008
-0.00476559
-0.00420769
-0.00371131
-0.00327076
-0.00288038
-0.00253485
-0.00222926
-0.00195915
-0.00172054
-0.00150984
-0.00132386
-0.00115976
-0.00101503
-0.000887421
-0.000774961
-0.000675891
-0.000588655
-0.000511873
-0.00044432
-0.000384908
-0.00033267
-0.000286745
-0.000246366
-0.000210851
-0.000179586
-0.000152024
-0.000127669
-0.00010608
-8.68615e-05
-6.96895e-05
-5.43603e-05
-4.08801e-05
-2.94649e-05
-2.02839e-05
-1.321e-05
-7.89972e-06
-3.97977e-06
-1.13245e-06
-0.0060841
-0.00539008
-0.00476559
-0.00420769
-0.00371131
-0.00327076
-0.00288038
-0.00253485
-0.00222926
-0.00195915
-0.00172054
-0.00150984
-0.00132386
-0.00115976
-0.00101503
-0.000887421
-0.000774961
-0.000675891
-0.000588655
-0.000511873
-0.00044432
-0.000384908
-0.00033267
-0.000286745
-0.000246366
-0.000210851
-0.000179586
-0.000152024
-0.000127669
-0.00010608
-8.68615e-05
-6.96895e-05
-5.43603e-05
-4.08801e-05
-2.94649e-05
-2.02839e-05
-1.321e-05
-7.89972e-06
-3.97977e-06
-1.13245e-06
)
;
    }
    outlet
    {
        type            cyclic;
        value           nonuniform List<scalar> 
160
(
1.13245e-06
3.97976e-06
7.89971e-06
1.321e-05
2.02839e-05
2.94649e-05
4.08801e-05
5.43602e-05
6.96895e-05
8.68615e-05
0.00010608
0.000127669
0.000152024
0.000179586
0.000210851
0.000246366
0.000286745
0.00033267
0.000384908
0.00044432
0.000511873
0.000588655
0.000675891
0.000774961
0.000887421
0.00101503
0.00115976
0.00132386
0.00150984
0.00172054
0.00195916
0.00222926
0.00253485
0.00288038
0.00327076
0.00371131
0.00420769
0.0047656
0.00539008
0.0060841
1.13245e-06
3.97976e-06
7.89971e-06
1.321e-05
2.02839e-05
2.94649e-05
4.08801e-05
5.43602e-05
6.96895e-05
8.68615e-05
0.00010608
0.000127669
0.000152024
0.000179586
0.000210851
0.000246366
0.000286745
0.00033267
0.000384908
0.00044432
0.000511873
0.000588655
0.000675891
0.000774961
0.000887421
0.00101503
0.00115976
0.00132386
0.00150984
0.00172054
0.00195916
0.00222926
0.00253485
0.00288038
0.00327076
0.00371131
0.00420769
0.0047656
0.00539008
0.0060841
0.0060841
0.00539008
0.00476559
0.00420769
0.00371131
0.00327076
0.00288038
0.00253485
0.00222926
0.00195915
0.00172054
0.00150984
0.00132386
0.00115976
0.00101503
0.000887421
0.000774961
0.000675891
0.000588655
0.000511873
0.00044432
0.000384908
0.00033267
0.000286745
0.000246366
0.000210851
0.000179586
0.000152024
0.000127669
0.00010608
8.68615e-05
6.96895e-05
5.43603e-05
4.08801e-05
2.94649e-05
2.02839e-05
1.321e-05
7.89972e-06
3.97977e-06
1.13245e-06
0.0060841
0.00539008
0.00476559
0.00420769
0.00371131
0.00327076
0.00288038
0.00253485
0.00222926
0.00195915
0.00172054
0.00150984
0.00132386
0.00115976
0.00101503
0.000887421
0.000774961
0.000675891
0.000588655
0.000511873
0.00044432
0.000384908
0.00033267
0.000286745
0.000246366
0.000210851
0.000179586
0.000152024
0.000127669
0.00010608
8.68615e-05
6.96895e-05
5.43603e-05
4.08801e-05
2.94649e-05
2.02839e-05
1.321e-05
7.89972e-06
3.97977e-06
1.13245e-06
)
;
    }
    sides
    {
        type            empty;
        value           nonuniform List<scalar> 0();
    }
}


// ************************************************************************* //
