/*--------------------------------*- C++ -*----------------------------------*\
| =========                 |                                                 |
| \\      /  F ield         | OpenFOAM: The Open Source CFD Toolbox           |
|  \\    /   O peration     | Version:  2012                                  |
|   \\  /    A nd           | Website:  www.openfoam.com                      |
|    \\/     M anipulation  |                                                 |
\*---------------------------------------------------------------------------*/
FoamFile
{
    version     2.0;
    format      ascii;
    class       volScalarField;
    location    "13400";
    object      k;
}
// * * * * * * * * * * * * * * * * * * * * * * * * * * * * * * * * * * * * * //

dimensions      [0 2 -2 0 0 0 0];


internalField   nonuniform List<scalar> 
2560
(
0.0222237
0.0222074
0.633672
0.633246
4.10239
4.10002
10.5202
10.5157
16.9095
16.9037
22.4675
22.4608
27.3536
27.3462
31.7614
31.7533
35.823
35.8143
39.6257
39.6165
43.2292
43.2195
46.6755
46.6653
49.9957
49.985
53.2132
53.2021
56.3464
56.3349
59.4099
59.3979
62.4156
62.4032
65.3734
65.3605
68.2917
68.2784
71.1777
71.164
74.0374
74.0233
76.8761
76.8616
79.6984
79.6835
82.5084
82.493
85.3097
85.2939
88.1057
88.0894
90.8994
90.8827
93.6937
93.6766
96.4912
96.4736
99.2945
99.2764
102.106
102.087
104.927
104.908
107.761
107.742
110.609
110.589
113.472
113.451
116.351
116.33
119.247
119.225
122.16
122.138
125.091
125.068
128.04
128.016
131.008
130.984
133.995
133.971
137.003
136.977
140.031
140.005
143.079
143.052
146.145
146.117
149.226
149.198
152.318
152.289
155.417
155.387
158.516
158.485
161.609
161.577
164.69
164.658
167.756
167.722
170.804
170.77
173.841
173.806
176.882
176.845
179.954
179.916
183.099
183.059
186.36
186.319
189.761
189.719
193.285
193.241
196.827
196.782
200.21
200.163
203.196
203.149
205.539
205.491
207.033
206.985
207.564
207.517
207.119
207.073
205.782
205.738
203.702
203.661
201.062
201.024
198.046
198.01
194.82
194.787
191.521
191.49
188.251
188.222
185.078
185.05
182.04
182.014
179.151
179.125
176.403
176.378
173.775
173.752
171.24
171.218
168.763
168.743
166.312
166.294
163.854
163.839
161.364
161.35
158.815
158.803
156.191
156.181
153.476
153.468
150.664
150.656
147.75
147.744
144.74
144.734
141.643
141.638
138.475
138.47
135.258
135.254
132.016
132.012
128.775
128.772
125.561
125.558
122.397
122.394
119.299
119.297
116.283
116.28
113.354
113.351
110.516
110.514
107.771
107.769
105.116
105.115
102.551
102.549
100.073
100.072
97.6826
97.6811
95.3796
95.3783
93.1646
93.1633
91.0375
91.0364
88.9973
88.9963
87.041
87.04
85.1631
85.1623
83.3561
83.3553
81.61
81.6093
79.9139
79.9133
78.2567
78.2562
76.6288
76.6284
75.0235
75.0231
73.4382
73.4379
71.8749
71.8747
70.3401
70.3399
68.8433
68.8431
67.3956
67.3955
66.0077
66.0076
64.6878
64.6877
63.4411
63.441
62.2674
62.2673
61.163
61.1629
60.1216
60.1215
59.1354
59.1353
58.1969
58.1968
57.2996
57.2995
56.4387
56.4386
55.611
55.6109
54.8153
54.8152
54.0511
54.051
53.3186
53.3185
52.6182
52.6181
51.95
51.9499
51.3136
51.3135
50.708
50.7079
50.1318
50.1316
49.583
49.5828
49.0592
49.059
48.5581
48.5579
48.0774
48.0772
47.6152
47.615
47.1703
47.17
46.742
46.7417
46.3306
46.3302
45.9371
45.9367
45.5632
45.5628
45.2111
45.2106
44.8831
44.8826
44.5817
44.5812
44.3093
44.3086
44.0678
44.0671
43.8588
43.858
43.6833
43.6824
43.5416
43.5406
43.4333
43.4322
43.3573
43.3561
43.3113
43.3099
43.2921
43.2906
43.2953
43.2936
43.3149
43.3131
43.3438
43.3419
43.3733
43.3713
43.3937
43.3915
43.3942
43.3919
43.3643
43.362
43.294
43.2918
43.1752
43.1733
43.0029
43.0016
42.7761
42.7755
42.4982
42.4983
42.177
42.1775
41.8244
41.8251
41.456
41.4567
41.0891
41.0897
40.7406
40.7411
40.4256
40.426
40.1549
40.155
39.934
39.934
39.763
39.7628
39.6341
39.6337
39.5358
39.5353
39.453
39.4524
39.3691
39.3685
39.2678
39.2673
39.1348
39.1346
38.9593
38.9596
38.7345
38.7355
38.4576
38.459
38.1287
38.1303
37.7519
37.7534
37.3338
37.3353
36.8832
36.8845
36.4095
36.4107
35.9227
35.9237
35.4324
35.4334
34.9479
34.9487
34.4771
34.4778
34.0273
34.0279
33.6044
33.6049
33.2133
33.2137
32.8579
32.8582
32.5409
32.5411
32.264
32.2642
32.0279
32.0279
31.8317
31.8317
31.6733
31.6732
31.5485
31.5484
31.4515
31.4512
31.3738
31.3735
31.3051
31.3046
31.2328
31.2323
31.1431
31.1425
31.0216
31.0208
30.8544
30.8536
30.63
30.6292
30.3402
30.3393
29.9815
29.9807
29.557
29.5565
29.0752
29.0751
28.5486
28.5488
27.992
27.9923
27.4227
27.423
26.857
26.8572
26.3084
26.3086
25.7855
25.7856
25.2917
25.2918
24.8259
24.8259
24.3823
24.3823
23.9538
23.9537
23.5334
23.5332
23.1156
23.1154
22.6981
22.6979
22.2813
22.2812
21.8685
21.8685
21.4642
21.4643
21.073
21.0731
20.6989
20.699
20.345
20.345
20.0132
20.0133
19.7045
19.7045
19.4189
19.419
19.1562
19.1562
18.916
18.916
18.698
18.698
18.5019
18.5019
18.3275
18.3275
18.1743
18.1743
18.0417
18.0417
17.9289
17.9289
17.8347
17.8347
17.7579
17.7579
17.6974
17.6974
17.6518
17.6518
17.6204
17.6204
17.6024
17.6024
17.5975
17.5975
17.6056
17.6056
17.627
17.6271
17.6622
17.6622
17.7117
17.7117
17.776
17.776
17.8556
17.8556
17.9506
17.9506
18.0611
18.0611
18.1869
18.1869
18.3278
18.3278
18.4833
18.4833
18.6533
18.6533
18.8374
18.8374
19.0354
19.0353
19.247
19.247
19.4723
19.4723
19.711
19.711
19.963
19.963
20.2283
20.2283
20.5066
20.5066
20.7979
20.7979
21.102
21.102
21.4188
21.4188
21.7484
21.7484
22.0909
22.0909
22.4468
22.4467
22.8164
22.8164
23.2006
23.2006
23.5999
23.5999
24.0151
24.0151
24.4467
24.4467
24.8951
24.8951
25.3604
25.3604
25.8429
25.8429
26.3425
26.3425
26.8594
26.8594
27.3938
27.3937
27.9461
27.9461
28.5171
28.5171
29.1077
29.1077
29.7192
29.7192
30.3529
30.3529
31.0102
31.0101
31.6926
31.6926
32.4016
32.4016
33.1387
33.1387
33.9053
33.9053
34.7027
34.7027
35.5317
35.5317
36.3926
36.3926
37.2835
37.2835
38.1984
38.1984
39.1228
39.1228
40.0235
40.0235
40.8311
40.8311
41.4109
41.4109
41.3592
41.3592
0.0222073
0.0222237
0.633245
0.633672
4.10002
4.10239
10.5157
10.5202
16.9037
16.9095
22.4608
22.4675
27.3462
27.3536
31.7533
31.7614
35.8143
35.823
39.6165
39.6257
43.2195
43.2292
46.6653
46.6755
49.985
49.9957
53.2021
53.2132
56.3349
56.3464
59.3979
59.4099
62.4031
62.4156
65.3605
65.3734
68.2784
68.2917
71.164
71.1777
74.0233
74.0374
76.8616
76.8761
79.6834
79.6984
82.493
82.5084
85.2938
85.3097
88.0894
88.1057
90.8827
90.8994
93.6766
93.6937
96.4736
96.4912
99.2764
99.2945
102.087
102.106
104.908
104.927
107.742
107.761
110.589
110.609
113.451
113.472
116.33
116.351
119.225
119.247
122.137
122.16
125.068
125.091
128.016
128.04
130.984
131.008
133.971
133.995
136.977
137.003
140.005
140.031
143.052
143.079
146.117
146.145
149.198
149.226
152.289
152.318
155.387
155.417
158.485
158.516
161.577
161.609
164.657
164.69
167.722
167.756
170.77
170.804
173.806
173.841
176.845
176.882
179.916
179.954
183.059
183.099
186.319
186.36
189.719
189.761
193.241
193.285
196.782
196.827
200.163
200.21
203.149
203.196
205.49
205.539
206.985
207.033
207.517
207.564
207.073
207.119
205.738
205.782
203.661
203.702
201.023
201.062
198.01
198.046
194.787
194.82
191.49
191.521
188.222
188.251
185.05
185.078
182.013
182.04
179.125
179.151
176.378
176.403
173.752
173.775
171.218
171.24
168.743
168.763
166.294
166.311
163.839
163.854
161.35
161.363
158.803
158.815
156.18
156.191
153.467
153.476
150.656
150.664
147.744
147.75
144.734
144.74
141.638
141.643
138.47
138.475
135.254
135.258
132.012
132.016
128.772
128.775
125.558
125.561
122.394
122.397
119.297
119.299
116.28
116.283
113.351
113.354
110.514
110.516
107.769
107.771
105.115
105.116
102.549
102.551
100.071
100.073
97.6811
97.6825
95.3782
95.3795
93.1633
93.1645
91.0363
91.0375
88.9962
88.9973
87.04
87.0409
85.1622
85.1631
83.3552
83.356
81.6093
81.61
79.9132
79.9139
78.2561
78.2567
76.6283
76.6287
75.023
75.0234
73.4378
73.4381
71.8746
71.8749
70.3398
70.34
68.843
68.8432
67.3954
67.3955
66.0075
66.0076
64.6876
64.6877
63.4408
63.4409
62.2672
62.2673
61.1628
61.1629
60.1213
60.1214
59.1352
59.1353
58.1967
58.1968
57.2994
57.2995
56.4384
56.4385
55.6108
55.6109
54.815
54.8151
54.0508
54.0509
53.3183
53.3184
52.6179
52.6181
51.9497
51.9498
51.3133
51.3134
50.7077
50.7078
50.1314
50.1316
49.5826
49.5828
49.0588
49.059
48.5577
48.5579
48.077
48.0772
47.6148
47.615
47.1698
47.1701
46.7414
46.7418
46.33
46.3304
45.9365
45.9369
45.5626
45.563
45.2104
45.2109
44.8824
44.8829
44.5809
44.5815
44.3084
44.3091
44.0668
44.0676
43.8578
43.8586
43.6821
43.6831
43.5403
43.5414
43.432
43.4331
43.3558
43.3571
43.3097
43.3111
43.2904
43.2919
43.2934
43.295
43.3129
43.3147
43.3417
43.3436
43.3711
43.3732
43.3913
43.3935
43.3917
43.394
43.3618
43.3641
43.2916
43.2938
43.1732
43.1751
43.0014
43.0027
42.7754
42.776
42.4982
42.4981
42.1774
42.1769
41.825
41.8243
41.4566
41.4559
41.0895
41.0889
40.7409
40.7405
40.4257
40.4254
40.1547
40.1546
39.9337
39.9337
39.7624
39.7627
39.6333
39.6337
39.5349
39.5354
39.4519
39.4526
39.368
39.3687
39.2668
39.2674
39.1341
39.1344
38.9592
38.9588
38.7352
38.7341
38.4587
38.4572
38.13
38.1284
37.7532
37.7516
37.3351
37.3336
36.8843
36.883
36.4105
36.4093
35.9236
35.9225
35.4332
35.4323
34.9486
34.9477
34.4777
34.477
34.0277
34.0271
33.6047
33.6042
33.2135
33.2131
32.8579
32.8576
32.5408
32.5406
32.2638
32.2637
32.0275
32.0275
31.8312
31.8312
31.6726
31.6728
31.5478
31.548
31.4506
31.4509
31.3728
31.3732
31.3039
31.3044
31.2316
31.2322
31.1418
31.1425
31.0202
31.021
30.8531
30.854
30.6287
30.6297
30.339
30.34
29.9805
29.9814
29.5563
29.5569
29.0751
29.0752
28.5489
28.5486
27.9924
27.9921
27.4231
27.4228
26.8573
26.8571
26.3086
26.3084
25.7856
25.7855
25.2917
25.2917
24.8258
24.8258
24.3821
24.3822
23.9535
23.9536
23.533
23.5332
23.1152
23.1155
22.6978
22.698
22.2811
22.2812
21.8684
21.8685
21.4643
21.4642
21.0731
21.073
20.699
20.6989
20.3451
20.345
20.0133
20.0132
19.7045
19.7045
19.419
19.4189
19.1562
19.1562
18.916
18.916
18.698
18.698
18.5019
18.5019
18.3274
18.3274
18.1742
18.1742
18.0416
18.0416
17.9288
17.9288
17.8346
17.8346
17.7578
17.7578
17.6973
17.6973
17.6518
17.6518
17.6204
17.6204
17.6024
17.6024
17.5975
17.5975
17.6056
17.6056
17.6271
17.6271
17.6623
17.6622
17.7117
17.7117
17.776
17.776
17.8556
17.8556
17.9506
17.9506
18.0611
18.0611
18.1869
18.1869
18.3278
18.3278
18.4833
18.4833
18.6533
18.6533
18.8374
18.8374
19.0353
19.0353
19.247
19.247
19.4722
19.4723
19.711
19.711
19.963
19.963
20.2283
20.2283
20.5066
20.5066
20.7979
20.7979
21.102
21.102
21.4188
21.4188
21.7484
21.7484
22.0909
22.0909
22.4467
22.4468
22.8164
22.8164
23.2006
23.2006
23.5999
23.5999
24.0151
24.0151
24.4466
24.4466
24.895
24.895
25.3604
25.3604
25.8429
25.8429
26.3425
26.3425
26.8593
26.8593
27.3937
27.3937
27.946
27.946
28.517
28.517
29.1077
29.1077
29.7192
29.7192
30.3528
30.3528
31.0101
31.0101
31.6925
31.6925
32.4014
32.4015
33.1385
33.1385
33.905
33.9051
34.7023
34.7023
35.5313
35.5313
36.392
36.392
37.2826
37.2826
38.1974
38.1974
39.1215
39.1216
40.0221
40.0221
40.8296
40.8296
41.4095
41.4095
41.3581
41.358
41.3593
41.3593
41.4109
41.411
40.8314
40.8314
40.0238
40.0238
39.1231
39.1231
38.1989
38.1989
37.2839
37.2839
36.3932
36.3932
35.5323
35.5323
34.7033
34.7032
33.9058
33.9058
33.1392
33.1392
32.4021
32.4021
31.6931
31.6931
31.0107
31.0107
30.3534
30.3534
29.7198
29.7198
29.1084
29.1084
28.5177
28.5177
27.9467
27.9467
27.3944
27.3944
26.8601
26.8601
26.3432
26.3432
25.8437
25.8437
25.3612
25.3612
24.8958
24.8958
24.4474
24.4474
24.0158
24.0158
23.6007
23.6006
23.2013
23.2013
22.8172
22.8172
22.4475
22.4475
22.0917
22.0917
21.7491
21.7491
21.4195
21.4195
21.1026
21.1026
20.7985
20.7985
20.5072
20.5072
20.2288
20.2288
19.9635
19.9635
19.7114
19.7114
19.4727
19.4727
19.2474
19.2474
19.0357
19.0357
18.8377
18.8377
18.6535
18.6535
18.4835
18.4835
18.3279
18.3279
18.187
18.187
18.0611
18.0611
17.9506
17.9506
17.8555
17.8555
17.7759
17.7759
17.7115
17.7116
17.662
17.662
17.6268
17.6268
17.6053
17.6053
17.5971
17.5971
17.602
17.602
17.6199
17.6199
17.6512
17.6512
17.6966
17.6966
17.7571
17.7571
17.8338
17.8338
17.9279
17.9279
18.0407
18.0407
18.1733
18.1733
18.3264
18.3264
18.5008
18.5008
18.6968
18.6968
18.9148
18.9148
19.1549
19.155
19.4176
19.4176
19.7031
19.7032
20.0118
20.0118
20.3434
20.3435
20.6973
20.6974
21.0713
21.0714
21.4625
21.4626
21.8668
21.8668
22.2797
22.2796
22.6967
22.6965
23.1143
23.1141
23.5322
23.532
23.9528
23.9526
24.3814
24.3813
24.8251
24.8251
25.291
25.291
25.7848
25.7849
26.3078
26.308
26.8565
26.8568
27.4223
27.4226
27.9918
27.9922
28.5486
28.5489
29.0755
29.0754
29.5575
29.557
29.9821
29.9812
30.3409
30.3399
30.6306
30.6297
30.8549
30.8541
31.0221
31.0213
31.1436
31.1429
31.2333
31.2327
31.3056
31.3051
31.3743
31.3739
31.4519
31.4516
31.5488
31.5487
31.6735
31.6734
31.8319
31.8318
32.028
32.028
32.264
32.2642
32.5408
32.541
32.8577
32.858
33.2131
33.2135
33.6041
33.6046
34.0269
34.0275
34.4766
34.4774
34.9473
34.9481
35.4317
35.4327
35.9218
35.923
36.4086
36.4098
36.8822
36.8836
37.3328
37.3344
37.7508
37.7524
38.1275
38.1292
38.4563
38.4578
38.7332
38.7343
38.9579
38.9583
39.1334
39.1331
39.2663
39.2657
39.3674
39.3667
39.4511
39.4505
39.5339
39.5333
39.6322
39.6318
39.7611
39.7609
39.9321
39.9321
40.153
40.1531
40.4237
40.4241
40.7387
40.7392
41.0871
41.0878
41.4541
41.4548
41.8225
41.8232
42.1751
42.1757
42.4964
42.4965
42.7744
42.7738
43.0013
42.9999
43.1736
43.1717
43.2924
43.2901
43.3626
43.3602
43.3925
43.3902
43.392
43.3897
43.3716
43.3695
43.3421
43.3401
43.3132
43.3113
43.2935
43.2918
43.2903
43.2887
43.3094
43.308
43.3553
43.354
43.4313
43.4301
43.5395
43.5384
43.6811
43.6801
43.8565
43.8556
44.0654
44.0646
44.3068
44.3061
44.5791
44.5784
44.8803
44.8797
45.2081
45.2076
45.5601
45.5596
45.9337
45.9333
46.327
46.3266
46.7381
46.7377
47.1661
47.1658
47.6108
47.6105
48.0726
48.0724
48.553
48.5528
49.0538
49.0536
49.5773
49.5771
50.1259
50.1257
50.7018
50.7017
51.3071
51.307
51.9433
51.9432
52.6112
52.6111
53.3114
53.3113
54.0435
54.0434
54.8074
54.8073
55.6027
55.6026
56.4298
56.4297
57.2903
57.2902
58.1871
58.187
59.125
59.1249
60.1106
60.1106
61.1517
61.1516
62.2556
62.2555
63.4288
63.4287
64.675
64.6749
65.9944
65.9943
67.3818
67.3817
68.829
68.8289
70.3254
70.3252
71.8597
71.8595
73.4225
73.4223
75.0074
75.0071
76.6123
76.6119
78.2398
78.2393
79.8967
79.8961
81.5924
81.5917
83.338
83.3373
85.1446
85.1437
87.0219
87.0209
88.9777
88.9767
91.0173
91.0162
93.1437
93.1425
95.3581
95.3569
97.6605
97.6591
100.05
100.049
102.527
102.526
105.092
105.091
107.746
107.745
110.491
110.489
113.328
113.325
116.256
116.254
119.272
119.27
122.368
122.366
125.532
125.529
128.745
128.742
131.985
131.981
135.226
135.222
138.443
138.439
141.611
141.606
144.708
144.702
147.718
147.711
150.631
150.623
153.443
153.434
156.156
156.146
158.78
158.768
161.327
161.313
163.817
163.801
166.273
166.254
168.723
168.702
171.198
171.176
173.732
173.709
176.359
176.333
179.106
179.079
181.994
181.966
185.03
185.001
188.202
188.171
191.471
191.438
194.769
194.734
197.993
197.956
201.009
200.969
203.648
203.606
205.729
205.683
207.067
207.02
207.513
207.464
206.984
206.935
205.491
205.441
203.15
203.1
200.164
200.116
196.782
196.735
193.242
193.196
189.719
189.675
186.318
186.275
183.057
183.016
179.913
179.873
176.841
176.803
173.802
173.765
170.766
170.73
167.719
167.684
164.654
164.621
161.574
161.542
158.482
158.451
155.385
155.354
152.287
152.257
149.196
149.167
146.116
146.087
143.051
143.023
140.004
139.977
136.977
136.951
133.97
133.945
130.984
130.959
128.017
127.992
125.068
125.044
122.138
122.115
119.225
119.203
116.33
116.308
113.452
113.43
110.589
110.568
107.742
107.722
104.909
104.889
102.088
102.068
99.2769
99.2582
96.4742
96.456
93.6773
93.6595
90.8835
90.8662
88.0903
88.0734
85.2948
85.2784
82.494
82.478
79.6845
79.669
76.8626
76.8476
74.0244
74.0098
71.1651
71.1509
68.2796
68.2658
65.3617
65.3484
62.4044
62.3915
59.3992
59.3868
56.3362
56.3242
53.2035
53.192
49.9865
49.9755
46.6669
46.6563
43.2211
43.211
39.6182
39.6087
35.8161
35.8071
31.7551
31.7468
27.3481
27.3404
22.4627
22.4558
16.9056
16.8996
10.5174
10.5127
4.10103
4.09858
0.633441
0.632999
0.022216
0.0221991
41.3581
41.358
41.4095
41.4095
40.83
40.83
40.0224
40.0224
39.122
39.122
38.1979
38.1979
37.2832
37.2832
36.3926
36.3926
35.5319
35.5319
34.7029
34.703
33.9056
33.9056
33.1391
33.1391
32.402
32.402
31.693
31.693
31.0106
31.0106
30.3534
30.3534
29.7198
29.7198
29.1083
29.1084
28.5177
28.5177
27.9467
27.9467
27.3944
27.3944
26.86
26.86
26.3432
26.3432
25.8436
25.8436
25.3611
25.3612
24.8958
24.8958
24.4474
24.4474
24.0158
24.0158
23.6006
23.6006
23.2013
23.2013
22.8172
22.8172
22.4475
22.4475
22.0917
22.0917
21.7491
21.7491
21.4195
21.4195
21.1026
21.1026
20.7985
20.7985
20.5071
20.5071
20.2288
20.2288
19.9635
19.9635
19.7114
19.7114
19.4726
19.4727
19.2474
19.2474
19.0357
19.0357
18.8377
18.8377
18.6535
18.6535
18.4835
18.4835
18.3279
18.3279
18.187
18.187
18.0611
18.0611
17.9506
17.9506
17.8555
17.8555
17.7759
17.7759
17.7116
17.7116
17.662
17.662
17.6268
17.6268
17.6053
17.6053
17.5971
17.5971
17.6019
17.6019
17.6198
17.6198
17.6511
17.6511
17.6965
17.6965
17.757
17.757
17.8337
17.8337
17.9279
17.9279
18.0407
18.0407
18.1732
18.1732
18.3264
18.3263
18.5008
18.5007
18.6968
18.6968
18.9148
18.9148
19.155
19.1549
19.4176
19.4176
19.7032
19.7031
20.0118
20.0118
20.3435
20.3434
20.6974
20.6973
21.0714
21.0713
21.4626
21.4625
21.8667
21.8668
22.2795
22.2797
22.6963
22.6966
23.1139
23.1142
23.5318
23.532
23.9524
23.9526
24.3811
24.3812
24.8249
24.825
25.2909
25.2909
25.7849
25.7848
26.308
26.3078
26.8569
26.8566
27.4228
27.4224
27.9923
27.9919
28.5489
28.5487
29.0754
29.0756
29.5568
29.5575
29.981
29.982
30.3396
30.3406
30.6293
30.6303
30.8536
30.8545
31.0207
31.0216
31.1423
31.1431
31.2321
31.2327
31.3045
31.305
31.3733
31.3737
31.451
31.4513
31.5481
31.5483
31.6729
31.673
31.8314
31.8314
32.0276
32.0276
32.2638
32.2637
32.5407
32.5405
32.8578
32.8575
33.2133
33.2129
33.6044
33.6039
34.0274
34.0268
34.4772
34.4765
34.948
34.9471
35.4326
35.4316
35.9228
35.9217
36.4097
36.4084
36.8835
36.882
37.3342
37.3326
37.7522
37.7505
38.1289
38.1272
38.4575
38.456
38.7339
38.7329
38.9579
38.9575
39.1327
39.133
39.2653
39.2659
39.3663
39.367
39.4501
39.4508
39.533
39.5335
39.6315
39.6319
39.7606
39.7608
39.9318
39.9319
40.1529
40.1527
40.4239
40.4236
40.7391
40.7386
41.0876
41.087
41.4547
41.454
41.8231
41.8224
42.1756
42.175
42.4964
42.4963
42.7737
42.7743
42.9998
43.0012
43.1716
43.1735
43.2899
43.2922
43.3601
43.3625
43.39
43.3924
43.3895
43.3918
43.3693
43.3715
43.3399
43.3419
43.3111
43.313
43.2916
43.2933
43.2885
43.2901
43.3078
43.3092
43.3538
43.3552
43.4299
43.4311
43.5382
43.5393
43.6799
43.6809
43.8555
43.8563
44.0644
44.0652
44.3059
44.3066
44.5783
44.5789
44.8796
44.8801
45.2074
45.208
45.5595
45.5599
45.9332
45.9336
46.3264
46.3268
46.7376
46.7379
47.1656
47.1659
47.6103
47.6106
48.0722
48.0725
48.5526
48.5529
49.0534
49.0536
49.5769
49.5771
50.1255
50.1257
50.7015
50.7017
51.3068
51.307
51.943
51.9431
52.611
52.6111
53.3111
53.3112
54.0433
54.0434
54.8072
54.8073
55.6025
55.6026
56.4296
56.4297
57.2901
57.2902
58.1869
58.187
59.1248
59.1249
60.1104
60.1105
61.1515
61.1516
62.2554
62.2555
63.4286
63.4287
64.6748
64.6749
65.9942
65.9943
67.3816
67.3817
68.8288
68.8289
70.3251
70.3253
71.8594
71.8597
73.4222
73.4225
75.007
75.0074
76.6118
76.6122
78.2392
78.2398
79.896
79.8966
81.5916
81.5924
83.3372
83.338
85.1436
85.1445
87.0208
87.0218
88.9766
88.9776
91.0161
91.0173
93.1424
93.1437
95.3567
95.3581
97.659
97.6605
100.049
100.05
102.526
102.527
105.091
105.092
107.744
107.746
110.489
110.491
113.325
113.328
116.253
116.256
119.269
119.272
122.366
122.368
125.529
125.532
128.742
128.745
131.981
131.985
135.222
135.226
138.438
138.443
141.605
141.611
144.702
144.708
147.711
147.718
150.623
150.631
153.434
153.443
156.146
156.157
158.767
158.78
161.313
161.327
163.8
163.817
166.254
166.273
168.702
168.723
171.176
171.198
173.708
173.733
176.333
176.359
179.079
179.106
181.966
181.994
185.001
185.03
188.171
188.202
191.438
191.471
194.734
194.769
197.956
197.994
200.969
201.009
203.606
203.649
205.683
205.729
207.02
207.067
207.464
207.513
206.934
206.984
205.441
205.491
203.1
203.15
200.115
200.164
196.735
196.782
193.196
193.242
189.675
189.719
186.275
186.318
183.016
183.057
179.873
179.913
176.803
176.841
173.765
173.802
170.73
170.766
167.684
167.719
164.621
164.655
161.542
161.575
158.451
158.483
155.354
155.385
152.257
152.288
149.167
149.196
146.087
146.116
143.023
143.051
139.977
140.004
136.951
136.977
133.945
133.97
130.959
130.984
127.992
128.017
125.044
125.068
122.115
122.138
119.203
119.225
116.308
116.33
113.43
113.452
110.568
110.589
107.722
107.742
104.889
104.909
102.069
102.088
99.2582
99.2771
96.456
96.4744
93.6595
93.6774
90.8662
90.8836
88.0734
88.0904
85.2784
85.2949
82.478
82.4941
79.669
79.6846
76.8476
76.8627
74.0098
74.0245
71.1509
71.1652
68.2658
68.2797
65.3484
65.3618
62.3915
62.4045
59.3868
59.3993
56.3242
56.3363
53.192
53.2036
49.9755
49.9866
46.6563
46.6669
43.211
43.2212
39.6087
39.6183
35.8071
35.8161
31.7468
31.7552
27.3404
27.3481
22.4558
22.4628
16.8996
16.9056
10.5127
10.5174
4.09858
4.10104
0.632998
0.633442
0.022199
0.022216
)
;

boundaryField
{
    walls
    {
        type            kqRWallFunction;
        value           nonuniform List<scalar> 8(0.0222237 0.0222073 0.0222074 0.0222237 0.022216 0.022199 0.0221991 0.022216);
    }
    inlet
    {
        type            cyclic;
    }
    outlet
    {
        type            cyclic;
    }
    sides
    {
        type            empty;
    }
}


// ************************************************************************* //
