/*--------------------------------*- C++ -*----------------------------------*\
| =========                 |                                                 |
| \\      /  F ield         | OpenFOAM: The Open Source CFD Toolbox           |
|  \\    /   O peration     | Version:  2012                                  |
|   \\  /    A nd           | Website:  www.openfoam.com                      |
|    \\/     M anipulation  |                                                 |
\*---------------------------------------------------------------------------*/
FoamFile
{
    version     2.0;
    format      ascii;
    class       volScalarField;
    location    "13400";
    object      omega;
}
// * * * * * * * * * * * * * * * * * * * * * * * * * * * * * * * * * * * * * //

dimensions      [0 0 -1 0 0 0 0];


internalField   nonuniform List<scalar> 
2560
(
1.52418e+06
1.52418e+06
263552
263556
87193.6
87196.4
42159.3
42159.8
26592.8
26592.3
19521.7
19520.9
15585.8
15585
13086.6
13085.8
11355.8
11355.1
10082.9
10082.3
9105.21
9104.63
8329.09
8328.56
7697.09
7696.59
7171.85
7171.38
6728.04
6727.61
6347.86
6347.45
6018.41
6018.03
5730.13
5729.77
5475.74
5475.4
5249.64
5249.31
5047.4
5047.09
4865.51
4865.21
4701.11
4700.82
4551.88
4551.6
4415.9
4415.63
4291.57
4291.31
4177.56
4177.31
4072.73
4072.49
3976.11
3975.88
3886.88
3886.65
3804.33
3804.1
3727.83
3727.61
3656.86
3656.64
3590.92
3590.7
3529.6
3529.39
3472.52
3472.31
3419.33
3419.13
3369.74
3369.54
3323.48
3323.27
3280.29
3280.09
3239.97
3239.77
3202.32
3202.13
3167.18
3166.98
3134.38
3134.18
3103.76
3103.56
3075.18
3074.98
3048.48
3048.28
3023.51
3023.31
3000.12
2999.92
2978.16
2977.95
2957.49
2957.28
2937.99
2937.78
2919.55
2919.33
2902.11
2901.89
2885.66
2885.44
2870.29
2870.06
2856.2
2855.96
2843.68
2843.44
2833.05
2832.8
2824.47
2824.21
2817.73
2817.47
2812.03
2811.75
2805.99
2805.71
2797.89
2797.6
2785.93
2785.65
2768.71
2768.43
2745.43
2745.16
2716.03
2715.76
2681.06
2680.81
2641.54
2641.31
2598.68
2598.46
2553.69
2553.49
2507.69
2507.49
2461.56
2461.38
2415.99
2415.82
2371.43
2371.27
2328.14
2327.99
2286.21
2286.06
2245.59
2245.45
2206.15
2206.02
2167.7
2167.57
2130.01
2129.9
2092.88
2092.78
2056.08
2055.99
2019.44
2019.36
1982.79
1982.73
1946.01
1945.95
1908.99
1908.94
1871.67
1871.63
1834.03
1834
1796.08
1796.05
1757.87
1757.84
1719.5
1719.48
1681.08
1681.07
1642.78
1642.77
1604.76
1604.74
1567.16
1567.14
1530.13
1530.12
1493.78
1493.77
1458.2
1458.19
1423.43
1423.42
1389.49
1389.48
1356.39
1356.38
1324.11
1324.11
1292.65
1292.65
1262
1261.99
1232.14
1232.14
1203.08
1203.08
1174.82
1174.82
1147.36
1147.36
1120.7
1120.7
1094.8
1094.8
1069.64
1069.64
1045.15
1045.15
1021.29
1021.29
997.961
997.962
975.098
975.1
952.634
952.636
930.52
930.522
908.734
908.737
887.285
887.288
866.209
866.212
845.563
845.566
825.415
825.418
805.83
805.833
786.857
786.86
768.528
768.531
750.84
750.843
733.768
733.771
717.269
717.272
701.295
701.298
685.795
685.798
670.726
670.729
656.056
656.059
641.763
641.766
627.835
627.837
614.266
614.269
601.056
601.058
588.202
588.204
575.701
575.704
563.549
563.552
551.737
551.74
540.254
540.256
529.085
529.087
518.213
518.215
507.623
507.625
497.299
497.301
487.228
487.23
477.399
477.401
467.807
467.808
458.449
458.45
449.327
449.328
440.448
440.449
431.819
431.82
423.449
423.449
415.347
415.348
407.523
407.523
399.982
399.982
392.73
392.729
385.767
385.766
379.093
379.092
372.704
372.701
366.59
366.587
360.738
360.735
355.133
355.129
349.75
349.746
344.564
344.559
339.54
339.534
334.641
334.635
329.824
329.817
325.045
325.037
320.259
320.251
315.427
315.419
310.514
310.508
305.501
305.497
300.382
300.38
295.167
295.167
289.882
289.884
284.569
284.572
279.281
279.284
274.077
274.079
269.015
269.017
264.146
264.147
259.504
259.505
255.109
255.11
250.959
250.959
247.026
247.026
243.273
243.272
239.649
239.647
236.099
236.097
232.572
232.57
229.021
229.02
225.412
225.413
221.724
221.727
217.946
217.95
214.078
214.083
210.129
210.134
206.119
206.123
202.069
202.074
198.007
198.011
193.958
193.961
189.949
189.952
186.005
186.007
182.146
182.148
178.392
178.394
174.758
174.76
171.258
171.259
167.9
167.901
164.692
164.693
161.637
161.638
158.737
158.737
155.988
155.989
153.385
153.385
150.916
150.916
148.565
148.565
146.312
146.311
144.129
144.128
141.985
141.984
139.847
139.846
137.681
137.679
135.452
135.451
133.134
133.133
130.708
130.706
128.163
128.161
125.506
125.505
122.754
122.754
119.932
119.933
117.072
117.073
114.211
114.212
111.382
111.383
108.614
108.615
105.926
105.926
103.323
103.324
100.804
100.804
98.3562
98.3562
95.9634
95.9632
93.6106
93.6104
91.2863
91.286
88.9845
88.9842
86.7054
86.7052
84.4552
84.4552
82.2423
82.2425
80.0753
80.0755
77.9617
77.962
75.9074
75.9076
73.9157
73.9159
71.9881
71.9883
70.1245
70.1246
68.324
68.3242
66.5857
66.5858
64.9086
64.9087
63.2919
63.292
61.7348
61.7349
60.2362
60.2363
58.7946
58.7946
57.4079
57.408
56.074
56.074
54.7902
54.7903
53.5541
53.5542
52.3633
52.3634
51.2158
51.2159
50.1099
50.1099
49.0445
49.0445
48.0189
48.019
47.0329
47.0329
46.0864
46.0865
45.1796
45.1796
44.3124
44.3124
43.4847
43.4847
42.696
42.696
41.9456
41.9456
41.2325
41.2325
40.5556
40.5556
39.9137
39.9138
39.3058
39.3058
38.7305
38.7305
38.187
38.187
37.6742
37.6742
37.1913
37.1913
36.7373
36.7373
36.3113
36.3114
35.9126
35.9126
35.5402
35.5402
35.1932
35.1932
34.871
34.871
34.5727
34.5727
34.2978
34.2978
34.0457
34.0457
33.8161
33.8161
33.6089
33.6089
33.4241
33.4241
33.2615
33.2615
33.1212
33.1212
33.0031
33.0031
32.9069
32.9069
32.8323
32.8323
32.779
32.779
32.7466
32.7466
32.7347
32.7347
32.7432
32.7432
32.7719
32.7719
32.8211
32.8211
32.891
32.891
32.9821
32.9821
33.0949
33.0949
33.2301
33.2301
33.3881
33.3881
33.5699
33.5699
33.7758
33.7758
34.0067
34.0067
34.263
34.263
34.5452
34.5452
34.8534
34.8534
35.1865
35.1865
35.5419
35.5419
35.9125
35.9125
36.2829
36.2829
36.6208
36.6208
36.8642
36.8642
36.8277
36.8277
1.52418e+06
1.52418e+06
263556
263552
87196.4
87193.6
42159.8
42159.3
26592.3
26592.7
19520.9
19521.7
15585
15585.8
13085.8
13086.6
11355.1
11355.8
10082.3
10082.9
9104.63
9105.21
8328.56
8329.09
7696.59
7697.09
7171.38
7171.85
6727.61
6728.04
6347.45
6347.86
6018.03
6018.41
5729.77
5730.13
5475.4
5475.74
5249.31
5249.64
5047.09
5047.4
4865.21
4865.51
4700.82
4701.11
4551.6
4551.88
4415.63
4415.9
4291.31
4291.57
4177.31
4177.56
4072.49
4072.73
3975.87
3976.11
3886.65
3886.88
3804.1
3804.33
3727.61
3727.83
3656.64
3656.86
3590.7
3590.92
3529.39
3529.6
3472.31
3472.52
3419.13
3419.33
3369.54
3369.74
3323.27
3323.48
3280.09
3280.29
3239.77
3239.97
3202.12
3202.32
3166.98
3167.18
3134.18
3134.38
3103.56
3103.76
3074.98
3075.18
3048.28
3048.48
3023.31
3023.51
2999.92
3000.12
2977.95
2978.16
2957.28
2957.49
2937.78
2937.99
2919.33
2919.55
2901.89
2902.11
2885.44
2885.66
2870.06
2870.29
2855.96
2856.2
2843.44
2843.68
2832.8
2833.05
2824.21
2824.47
2817.46
2817.73
2811.75
2812.03
2805.71
2805.99
2797.6
2797.89
2785.65
2785.93
2768.43
2768.71
2745.16
2745.43
2715.76
2716.03
2680.81
2681.07
2641.31
2641.55
2598.46
2598.68
2553.49
2553.69
2507.49
2507.69
2461.38
2461.56
2415.82
2415.99
2371.27
2371.43
2327.99
2328.14
2286.06
2286.21
2245.45
2245.59
2206.02
2206.15
2167.57
2167.7
2129.9
2130.01
2092.78
2092.88
2055.99
2056.08
2019.36
2019.44
1982.73
1982.79
1945.95
1946.01
1908.94
1908.99
1871.63
1871.67
1834
1834.03
1796.05
1796.08
1757.84
1757.87
1719.48
1719.5
1681.07
1681.08
1642.77
1642.78
1604.74
1604.76
1567.14
1567.16
1530.12
1530.13
1493.77
1493.78
1458.19
1458.2
1423.42
1423.43
1389.48
1389.49
1356.38
1356.39
1324.11
1324.11
1292.65
1292.65
1261.99
1262
1232.14
1232.14
1203.08
1203.08
1174.82
1174.82
1147.36
1147.36
1120.7
1120.7
1094.8
1094.8
1069.64
1069.64
1045.15
1045.15
1021.29
1021.29
997.962
997.961
975.1
975.098
952.636
952.634
930.522
930.52
908.737
908.734
887.288
887.285
866.212
866.209
845.566
845.563
825.418
825.415
805.833
805.829
786.86
786.856
768.531
768.527
750.843
750.84
733.77
733.767
717.272
717.269
701.298
701.295
685.797
685.794
670.728
670.726
656.058
656.055
641.765
641.762
627.837
627.834
614.268
614.266
601.058
601.055
588.203
588.201
575.703
575.7
563.551
563.549
551.739
551.737
540.255
540.253
529.086
529.084
518.214
518.212
507.624
507.622
497.3
497.299
487.229
487.227
477.4
477.398
467.807
467.806
458.449
458.448
449.328
449.327
440.448
440.447
431.819
431.818
423.448
423.448
415.347
415.347
407.522
407.522
399.981
399.981
392.728
392.729
385.765
385.766
379.091
379.093
372.7
372.703
366.586
366.589
360.734
360.737
355.128
355.132
349.745
349.75
344.558
344.563
339.534
339.54
334.634
334.641
329.816
329.824
325.037
325.044
320.251
320.259
315.418
315.426
310.507
310.514
305.496
305.501
300.38
300.381
295.167
295.166
289.884
289.882
284.572
284.569
279.283
279.281
274.079
274.076
269.017
269.015
264.147
264.145
259.505
259.504
255.109
255.108
250.958
250.958
247.025
247.025
243.271
243.272
239.646
239.647
236.096
236.098
232.569
232.57
229.019
229.019
225.412
225.411
221.726
221.723
217.949
217.945
214.082
214.077
210.134
210.129
206.123
206.118
202.073
202.069
198.01
198.006
193.961
193.958
189.952
189.949
186.007
186.004
182.148
182.146
178.394
178.392
174.76
174.758
171.259
171.257
167.901
167.899
164.692
164.691
161.637
161.636
158.736
158.736
155.987
155.987
153.384
153.384
150.915
150.915
148.564
148.564
146.31
146.31
144.126
144.127
141.983
141.984
139.845
139.846
137.678
137.679
135.449
135.451
133.132
133.134
130.705
130.707
128.161
128.163
125.504
125.506
122.753
122.754
119.933
119.932
117.073
117.073
114.212
114.211
111.383
111.382
108.615
108.614
105.926
105.926
103.323
103.323
100.804
100.804
98.3558
98.3559
95.9628
95.963
93.6099
93.6102
91.2856
91.286
88.9839
88.9843
86.705
86.7052
84.4551
84.4551
82.2424
82.2422
80.0756
80.0753
77.962
77.9617
75.9077
75.9074
73.916
73.9157
71.9883
71.9881
70.1247
70.1245
68.3242
68.324
66.5858
66.5856
64.9087
64.9085
63.292
63.2919
61.7349
61.7348
60.2362
60.2361
58.7945
58.7944
57.4079
57.4078
56.0739
56.0738
54.7902
54.7901
53.5541
53.554
52.3633
52.3632
51.2158
51.2157
50.1099
50.1098
49.0445
49.0445
48.019
48.0189
47.033
47.0329
46.0865
46.0865
45.1797
45.1796
44.3125
44.3124
43.4848
43.4847
42.6961
42.696
41.9456
41.9456
41.2325
41.2325
40.5556
40.5556
39.9138
39.9137
39.3058
39.3057
38.7305
38.7305
38.187
38.187
37.6742
37.6742
37.1913
37.1913
36.7373
36.7373
36.3113
36.3113
35.9126
35.9126
35.5402
35.5402
35.1932
35.1932
34.871
34.871
34.5727
34.5727
34.2978
34.2978
34.0457
34.0457
33.8161
33.8161
33.6089
33.6089
33.4241
33.4241
33.2615
33.2615
33.1212
33.1212
33.0031
33.0031
32.9069
32.9069
32.8323
32.8323
32.779
32.779
32.7466
32.7466
32.7347
32.7347
32.7431
32.7431
32.7719
32.7719
32.8211
32.8211
32.891
32.891
32.9821
32.9821
33.0949
33.0949
33.23
33.23
33.3881
33.3881
33.5698
33.5698
33.7757
33.7757
34.0066
34.0066
34.2629
34.2629
34.545
34.545
34.8531
34.8531
35.1861
35.1861
35.5414
35.5414
35.9119
35.9119
36.2822
36.2822
36.6201
36.6201
36.8636
36.8636
36.8271
36.8271
36.8277
36.8277
36.8643
36.8643
36.6209
36.6209
36.283
36.283
35.9126
35.9126
35.542
35.542
35.1867
35.1867
34.8536
34.8536
34.5455
34.5455
34.2632
34.2632
34.0069
34.0069
33.776
33.776
33.57
33.57
33.3883
33.3883
33.2302
33.2302
33.0951
33.0951
32.9823
32.9823
32.8912
32.8912
32.8213
32.8213
32.7721
32.7721
32.7433
32.7433
32.7348
32.7348
32.7467
32.7467
32.7792
32.7792
32.8325
32.8325
32.907
32.907
33.0032
33.0032
33.1213
33.1213
33.2616
33.2616
33.4241
33.4241
33.6089
33.6089
33.8161
33.8161
34.0456
34.0456
34.2977
34.2977
34.5725
34.5726
34.8707
34.8708
35.1929
35.1929
35.5398
35.5398
35.9121
35.9121
36.3108
36.3108
36.7367
36.7367
37.1906
37.1906
37.6735
37.6735
38.1862
38.1862
38.7296
38.7296
39.3048
39.3048
39.9127
39.9127
40.5544
40.5544
41.2312
41.2312
41.9442
41.9442
42.6945
42.6946
43.4831
43.4832
44.3108
44.3108
45.1779
45.1779
46.0846
46.0846
47.0309
47.031
48.0168
48.0168
49.0422
49.0423
50.1075
50.1076
51.2133
51.2133
52.3606
52.3607
53.5513
53.5513
54.7872
54.7873
56.0709
56.0709
57.4047
57.4048
58.7913
58.7914
60.2329
60.233
61.7314
61.7315
63.2884
63.2885
64.905
64.9051
66.582
66.5821
68.3202
68.3204
70.1206
70.1208
71.9841
71.9843
73.9116
73.9119
75.9031
75.9034
77.9573
77.9576
80.0708
80.0711
82.2377
82.238
84.4507
84.4508
86.7011
86.701
88.9805
88.9802
91.2826
91.2823
93.6072
93.6069
95.9602
95.96
98.3533
98.3532
100.802
100.802
103.321
103.321
105.923
105.924
108.612
108.612
111.38
111.381
114.209
114.21
117.071
117.072
119.931
119.932
122.753
122.753
125.506
125.504
128.163
128.161
130.707
130.705
133.134
133.132
135.451
135.45
137.68
137.678
139.846
139.845
141.984
141.983
144.127
144.127
146.31
146.31
148.564
148.564
150.914
150.914
153.383
153.383
155.986
155.986
158.734
158.735
161.634
161.635
164.688
164.689
167.896
167.898
171.254
171.255
174.754
174.756
178.387
178.389
182.141
182.143
185.999
186.002
189.944
189.947
193.952
193.956
198
198.004
202.063
202.067
206.112
206.117
210.122
210.127
214.07
214.075
217.938
217.943
221.716
221.719
225.403
225.405
229.012
229.011
232.562
232.561
236.089
236.087
239.638
239.637
243.263
243.261
247.016
247.015
250.948
250.948
255.098
255.099
259.493
259.494
264.135
264.136
269.004
269.006
274.066
274.068
279.27
279.273
284.558
284.561
289.871
289.873
295.155
295.156
300.371
300.369
305.49
305.486
310.503
310.496
315.415
315.407
320.247
320.239
325.033
325.025
329.812
329.804
334.629
334.622
339.527
339.521
344.551
344.545
349.737
349.732
355.118
355.114
360.724
360.72
366.574
366.571
372.688
372.685
379.077
379.075
385.75
385.749
392.712
392.711
399.964
399.963
407.504
407.503
415.327
415.327
423.428
423.428
431.797
431.797
440.425
440.426
449.303
449.304
458.423
458.424
467.779
467.78
477.37
477.372
487.197
487.199
497.267
497.269
507.589
507.591
518.177
518.179
529.047
529.049
540.215
540.217
551.697
551.7
563.507
563.51
575.658
575.661
588.157
588.16
601.01
601.013
614.219
614.222
627.785
627.788
641.711
641.714
656.001
656.004
670.669
670.672
685.735
685.738
701.232
701.235
717.204
717.207
733.7
733.703
750.77
750.774
768.456
768.459
786.782
786.786
805.753
805.756
825.336
825.34
845.482
845.486
866.126
866.13
887.2
887.204
908.647
908.65
930.432
930.434
952.544
952.546
975.007
975.009
997.868
997.869
1021.19
1021.19
1045.06
1045.06
1069.54
1069.54
1094.7
1094.7
1120.59
1120.59
1147.26
1147.26
1174.72
1174.71
1202.97
1202.97
1232.03
1232.02
1261.88
1261.88
1292.54
1292.53
1324
1323.99
1356.27
1356.26
1389.37
1389.36
1423.3
1423.29
1458.07
1458.06
1493.65
1493.64
1529.99
1529.98
1567.02
1567.01
1604.62
1604.61
1642.64
1642.63
1680.94
1680.93
1719.35
1719.33
1757.73
1757.7
1795.94
1795.91
1833.89
1833.86
1871.53
1871.49
1908.85
1908.8
1945.86
1945.81
1982.64
1982.58
2019.29
2019.21
2055.92
2055.83
2092.71
2092.61
2129.84
2129.72
2167.52
2167.39
2205.96
2205.83
2245.4
2245.25
2286.01
2285.86
2327.94
2327.78
2371.22
2371.06
2415.78
2415.6
2461.34
2461.15
2507.46
2507.26
2553.47
2553.26
2598.45
2598.22
2641.32
2641.07
2680.84
2680.58
2715.82
2715.54
2745.23
2744.95
2768.52
2768.23
2785.75
2785.45
2797.71
2797.41
2805.81
2805.52
2811.85
2811.56
2817.56
2817.28
2824.3
2824.03
2832.88
2832.62
2843.51
2843.26
2856.02
2855.78
2870.12
2869.88
2885.49
2885.26
2901.94
2901.71
2919.39
2919.17
2937.84
2937.62
2957.34
2957.13
2978.02
2977.8
2999.98
2999.77
3023.38
3023.17
3048.35
3048.14
3075.05
3074.84
3103.63
3103.43
3134.25
3134.05
3167.06
3166.85
3202.2
3202
3239.85
3239.64
3280.17
3279.96
3323.35
3323.14
3369.62
3369.41
3419.2
3418.99
3472.38
3472.17
3529.46
3529.24
3590.78
3590.56
3656.71
3656.48
3727.68
3727.45
3804.17
3803.93
3886.71
3886.47
3975.94
3975.69
4072.55
4072.29
4177.37
4177.11
4291.37
4291.1
4415.69
4415.41
4551.66
4551.37
4700.88
4700.58
4865.26
4864.95
5047.14
5046.81
5249.36
5249.02
5475.44
5475.08
5729.81
5729.43
6018.07
6017.67
6347.49
6347.07
6727.64
6727.19
7171.42
7170.94
7696.62
7696.1
8328.59
8328.03
9104.65
9104.05
10082.3
10081.7
11355.1
11354.4
13085.8
13085.1
15584.9
15584.1
19520.7
19520
26591.8
26591.3
42158.6
42159.1
87193.9
87196.8
263553
263557
1.52419e+06
1.52419e+06
36.8271
36.8271
36.8636
36.8636
36.6202
36.6202
36.2823
36.2823
35.9121
35.9121
35.5416
35.5416
35.1863
35.1864
34.8533
34.8533
34.5453
34.5453
34.2631
34.2631
34.0068
34.0068
33.7759
33.7759
33.57
33.57
33.3883
33.3883
33.2302
33.2302
33.0951
33.0951
32.9823
32.9823
32.8912
32.8912
32.8213
32.8213
32.772
32.772
32.7433
32.7433
32.7348
32.7348
32.7467
32.7467
32.7792
32.7792
32.8325
32.8325
32.907
32.907
33.0032
33.0032
33.1213
33.1213
33.2616
33.2616
33.4241
33.4241
33.609
33.6089
33.8161
33.8161
34.0456
34.0456
34.2977
34.2977
34.5725
34.5725
34.8707
34.8707
35.1929
35.1929
35.5398
35.5397
35.9121
35.9121
36.3108
36.3108
36.7367
36.7367
37.1906
37.1906
37.6735
37.6735
38.1862
38.1862
38.7296
38.7296
39.3048
39.3048
39.9127
39.9127
40.5545
40.5544
41.2313
41.2312
41.9443
41.9442
42.6946
42.6946
43.4832
43.4832
44.3108
44.3108
45.1779
45.1779
46.0847
46.0846
47.031
47.0309
48.0168
48.0168
49.0423
49.0422
50.1075
50.1075
51.2133
51.2132
52.3606
52.3605
53.5512
53.5511
54.7872
54.7871
56.0708
56.0707
57.4047
57.4046
58.7913
58.7912
60.2329
60.2328
61.7315
61.7313
63.2885
63.2883
64.9051
64.9049
66.5821
66.5819
68.3204
68.3202
70.1208
70.1206
71.9843
71.9841
73.9119
73.9116
75.9034
75.9031
77.9576
77.9573
80.0711
80.0708
82.2379
82.2377
84.4506
84.4506
86.7007
86.701
88.9799
88.9803
91.2819
91.2823
93.6065
93.6068
95.9596
95.9598
98.3528
98.3529
100.801
100.801
103.321
103.321
105.924
105.923
108.613
108.612
111.381
111.38
114.21
114.209
117.072
117.071
119.932
119.931
122.753
122.753
125.504
125.505
128.16
128.162
130.705
130.707
133.131
133.133
135.449
135.45
137.677
137.678
139.844
139.845
141.982
141.983
144.125
144.126
146.308
146.309
148.562
148.562
150.913
150.913
153.382
153.382
155.985
155.985
158.734
158.733
161.634
161.633
164.689
164.688
167.897
167.896
171.255
171.253
174.755
174.754
178.389
178.387
182.143
182.141
186.002
185.999
189.946
189.943
193.955
193.952
198.004
198
202.067
202.062
206.116
206.111
210.127
210.122
214.074
214.069
217.942
217.937
221.718
221.715
225.404
225.402
229.01
229.011
232.56
232.561
236.086
236.088
239.636
239.637
243.26
243.262
247.014
247.015
250.947
250.947
255.098
255.098
259.494
259.493
264.136
264.134
269.006
269.004
274.068
274.065
279.272
279.269
284.56
284.557
289.873
289.87
295.156
295.155
300.369
300.37
305.485
305.49
310.496
310.503
315.407
315.415
320.239
320.247
325.024
325.032
329.804
329.811
334.621
334.628
339.521
339.527
344.545
344.55
349.731
349.736
355.114
355.118
360.719
360.723
366.571
366.574
372.685
372.687
379.074
379.076
385.748
385.749
392.71
392.711
399.962
399.963
407.503
407.503
415.326
415.326
423.427
423.427
431.797
431.796
440.425
440.424
449.303
449.302
458.423
458.422
467.78
467.778
477.371
477.369
487.198
487.196
497.268
497.266
507.59
507.588
518.178
518.176
529.048
529.046
540.217
540.214
551.699
551.696
563.509
563.507
575.66
575.657
588.159
588.156
601.012
601.009
614.221
614.218
627.788
627.785
641.713
641.71
656.004
656.001
670.671
670.668
685.738
685.735
701.235
701.232
717.207
717.204
733.703
733.7
750.773
750.77
768.459
768.455
786.786
786.782
805.756
805.753
825.339
825.336
845.485
845.482
866.129
866.126
887.203
887.2
908.65
908.647
930.434
930.432
952.546
952.544
975.008
975.007
997.869
997.868
1021.19
1021.19
1045.06
1045.06
1069.54
1069.54
1094.7
1094.7
1120.59
1120.59
1147.26
1147.26
1174.71
1174.72
1202.97
1202.97
1232.02
1232.03
1261.88
1261.88
1292.53
1292.54
1323.99
1324
1356.26
1356.27
1389.36
1389.37
1423.29
1423.3
1458.06
1458.07
1493.64
1493.65
1529.98
1529.99
1567.01
1567.02
1604.6
1604.62
1642.63
1642.64
1680.92
1680.94
1719.33
1719.35
1757.7
1757.73
1795.91
1795.94
1833.86
1833.89
1871.49
1871.53
1908.8
1908.85
1945.8
1945.86
1982.58
1982.64
2019.21
2019.29
2055.83
2055.92
2092.61
2092.71
2129.72
2129.84
2167.39
2167.52
2205.83
2205.97
2245.25
2245.4
2285.86
2286.02
2327.78
2327.94
2371.06
2371.23
2415.6
2415.78
2461.15
2461.34
2507.27
2507.47
2553.26
2553.47
2598.22
2598.46
2641.07
2641.32
2680.58
2680.85
2715.54
2715.82
2744.95
2745.24
2768.23
2768.53
2785.45
2785.75
2797.41
2797.71
2805.52
2805.82
2811.56
2811.85
2817.28
2817.56
2824.03
2824.3
2832.62
2832.89
2843.26
2843.51
2855.78
2856.03
2869.88
2870.12
2885.26
2885.49
2901.72
2901.95
2919.17
2919.39
2937.62
2937.84
2957.13
2957.35
2977.81
2978.02
2999.77
2999.99
3023.17
3023.38
3048.14
3048.35
3074.85
3075.05
3103.43
3103.64
3134.05
3134.26
3166.85
3167.06
3202
3202.21
3239.64
3239.85
3279.96
3280.17
3323.15
3323.36
3369.41
3369.62
3418.99
3419.21
3472.17
3472.39
3529.24
3529.46
3590.56
3590.78
3656.48
3656.71
3727.45
3727.68
3803.94
3804.17
3886.48
3886.72
3975.69
3975.94
4072.3
4072.55
4177.11
4177.37
4291.11
4291.38
4415.41
4415.69
4551.37
4551.66
4700.58
4700.88
4864.95
4865.26
5046.82
5047.14
5249.02
5249.36
5475.08
5475.45
5729.43
5729.81
6017.67
6018.07
6347.07
6347.49
6727.19
6727.65
7170.94
7171.42
7696.11
7696.63
8328.03
8328.59
9104.05
9104.66
10081.7
10082.3
11354.4
11355.1
13085.1
13085.8
15584.1
15584.9
19520
19520.8
26591.3
26591.8
42159.1
42158.6
87196.8
87193.9
263557
263553
1.52419e+06
1.52419e+06
)
;

boundaryField
{
    walls
    {
        blending        binomial2;
        n               2;
        beta1           0.075;
        type            omegaWallFunction;
        value           nonuniform List<scalar> 8(1.52418e+06 1.52418e+06 1.52418e+06 1.52418e+06 1.52419e+06 1.52419e+06 1.52419e+06 1.52419e+06);
    }
    inlet
    {
        type            cyclic;
    }
    outlet
    {
        type            cyclic;
    }
    sides
    {
        type            empty;
    }
}


// ************************************************************************* //
