/*--------------------------------*- C++ -*----------------------------------*\
| =========                 |                                                 |
| \\      /  F ield         | OpenFOAM: The Open Source CFD Toolbox           |
|  \\    /   O peration     | Version:  2012                                  |
|   \\  /    A nd           | Website:  www.openfoam.com                      |
|    \\/     M anipulation  |                                                 |
\*---------------------------------------------------------------------------*/
FoamFile
{
    version     2.0;
    format      ascii;
    class       volScalarField;
    location    "13400";
    object      p;
}
// * * * * * * * * * * * * * * * * * * * * * * * * * * * * * * * * * * * * * //

dimensions      [0 2 -2 0 0 0 0];


internalField   nonuniform List<scalar> 
2560
(
4.16294e-08
-1.22329
-3.70369e-05
-1.22331
-3.90054e-05
-1.22332
-3.03926e-05
-1.22332
-2.81842e-05
-1.22333
-2.76819e-05
-1.22333
-2.72645e-05
-1.22333
-2.70768e-05
-1.22333
-2.6826e-05
-1.22333
-2.65946e-05
-1.22333
-2.62549e-05
-1.22333
-2.60234e-05
-1.22333
-2.76527e-05
-1.22333
-3.83711e-05
-1.22259
-8.95949e-05
-1.22344
-0.000174331
-1.22139
-0.000362206
-1.22401
-0.000568622
-1.22402
-0.000832144
-1.22489
-0.0010599
-1.22491
-0.00134816
-1.22586
-0.00157536
-1.22588
-0.00187241
-1.22687
-0.00209199
-1.22359
-0.00247295
-1.22815
-0.00283014
-1.22346
-0.00346346
-1.2301
-0.00404707
-1.23016
-0.00492027
-1.23264
-0.00561298
-1.23276
-0.00658157
-1.23544
-0.0072166
-1.23556
-0.00815181
-1.23819
-0.00861579
-1.23825
-0.00950214
-1.24077
-0.00985849
-1.23448
-0.0109033
-1.24364
-0.0114075
-1.21702
-0.0129095
-1.24799
-0.013798
-1.21333
-0.0159102
-1.25446
-0.0172294
-1.22801
-0.0198748
-1.26276
-0.0214659
-1.25348
-0.0244297
-1.27201
-0.0260907
-1.27043
-0.02924
-1.28166
-0.0309074
-1.27616
-0.0343137
-1.29184
-0.0361707
-1.20895
-0.0401743
-1.30507
-0.0431597
-1.24258
-0.049575
-1.32332
-0.0572792
-1.32474
-0.0714816
-1.35415
-0.0913268
-1.36043
-0.121485
-1.41353
-0.160647
-1.42852
-0.209937
-1.51205
-0.265312
-1.53573
-0.322626
-1.63557
-0.376239
-1.66066
-0.419384
-1.74373
-0.44962
-1.75933
-0.46209
-1.79801
-0.460834
-1.79633
-0.443962
-1.75617
-0.420186
-1.74491
-0.388064
-1.685
-0.356892
-1.67142
-0.323438
-1.6122
-0.295278
-1.60008
-0.267454
-0.263281
-0.245732
-0.250225
-0.22481
-0.220758
-0.209252
-0.211582
-0.194279
-0.190272
-0.183801
-0.183878
-0.173665
-0.169662
-0.167254
-0.16551
-0.16093
-0.156911
-0.157632
-0.154499
-0.154099
-0.150063
-0.152927
-0.148886
-0.151262
-0.147218
-0.151521
-0.146867
-0.151461
-0.147192
-0.152819
-0.14851
-0.154334
-0.150073
-0.157457
-0.153165
-0.161197
-0.156948
-0.166834
-0.162561
-0.173484
-0.169252
-0.182141
-0.177891
-0.191878
-0.187666
-0.203354
-0.19913
-0.215566
-0.211378
-0.228876
-0.224681
-0.242288
-0.238127
-0.25603
-0.251866
-0.269236
-0.265103
-0.282154
-0.278022
-0.294132
-0.29003
-0.30551
-0.301411
-0.315862
-0.31179
-0.325588
-0.321523
-0.334415
-0.330376
-0.342747
-0.338715
-0.35038
-0.346373
-0.357678
-0.353681
-0.364473
-0.3605
-0.371084
-0.367122
-0.377388
-0.373451
-0.383682
-0.379758
-0.389891
-0.385992
-0.396319
-0.392436
-0.402923
-0.399064
-0.409966
-0.406126
-0.417424
-0.41361
-0.425525
-0.421733
-0.434256
-0.430492
-0.443836
-0.440096
-0.454297
-0.450587
-0.465908
-0.462224
-0.4788
-0.475146
-0.493328
-0.489702
-0.509739
-0.506144
-0.528445
-0.52488
-0.549732
-0.546199
-0.573955
-0.570451
-0.601263
-0.597791
-0.631775
-0.628332
-0.665323
-0.661912
-0.701611
-0.69823
-0.740042
-0.736692
-0.7799
-0.776578
-0.820236
-0.816945
-0.860087
-0.856824
-0.898422
-0.895189
-0.93436
-0.931155
-0.967123
-0.963947
-0.996205
-0.993057
-1.02129
-1.01817
-1.04236
-1.03926
-1.05954
-1.05647
-1.07319
-1.07015
-1.08372
-1.08071
-1.09165
-1.08866
-1.09745
-1.09449
-1.1016
-1.09866
-1.10449
-1.10158
-1.10647
-1.10357
-1.10778
-1.10492
-1.10865
-1.10581
-1.10921
-1.10639
-1.10957
-1.10677
-1.1098
-1.10701
-1.10993
-1.10717
-1.11
-1.10726
-1.11004
-1.10731
-1.11004
-1.10733
-1.11001
-1.10732
-1.10996
-1.10729
-1.1099
-1.10725
-1.10983
-1.10719
-1.10975
-1.10713
-1.10966
-1.10706
-1.10957
-1.10698
-1.10948
-1.1069
-1.10939
-1.10681
-1.10929
-1.10673
-1.10921
-1.10666
-1.10913
-1.10658
-1.10906
-1.10652
-1.10899
-1.10645
-1.10894
-1.1064
-1.1089
-1.10636
-1.10886
-1.10632
-1.10882
-1.10629
-1.10879
-1.10627
-1.10877
-1.10626
-1.10875
-1.10625
-1.10873
-1.10624
-1.10872
-1.10624
-1.1087
-1.10624
-1.10869
-1.10623
-1.10867
-1.10623
-1.10865
-1.10622
-1.10862
-1.1062
-1.10858
-1.10616
-1.10852
-1.10611
-1.10844
-1.10604
-1.10834
-1.10593
-1.10819
-1.10579
-1.10799
-1.10559
-1.10772
-1.10532
-1.10736
-1.10498
-1.10689
-1.10452
-1.1063
-1.10395
-1.10556
-1.10322
-1.10463
-1.10231
-1.10349
-1.10119
-1.10213
-1.09985
-1.1005
-1.09824
-1.09859
-1.09636
-1.09638
-1.09418
-1.09387
-1.0917
-1.09105
-1.08891
-1.08792
-1.08581
-1.0845
-1.08243
-1.08082
-1.07878
-1.07689
-1.07488
-1.07275
-1.07077
-1.06842
-1.06648
-1.06394
-1.06203
-1.05932
-1.05743
-1.05458
-1.05272
-1.04972
-1.04789
-1.04475
-1.04294
-1.03965
-1.03786
-1.03442
-1.03265
-1.02904
-1.02728
-1.0235
-1.02176
-1.01779
-1.01605
-1.01191
-1.01018
-1.00586
-1.00413
-0.999676
-0.997948
-0.993339
-0.991618
-0.986922
-0.985211
-0.980411
-0.97871
-0.973889
-0.972203
-0.967332
-0.965659
-0.960826
-0.95917
-0.954332
-0.952688
-0.947927
-0.946298
-0.941548
-0.93993
-0.935272
-0.933666
-0.929014
-0.927414
-0.922853
-0.921261
-0.916685
-0.915094
-0.910603
-0.909015
-0.904484
-0.902894
-0.898441
-0.896857
-0.89234
-0.890755
-0.886313
-0.884738
-0.880209
-0.878634
-0.874185
-0.87262
-0.868063
-0.866499
-0.862025
-0.860472
-0.855865
-0.854313
-0.84979
-0.848249
-0.843558
-0.842016
-0.837411
-0.835882
-0.83107
-0.829539
-0.824813
-0.823296
-0.818324
-0.816804
-0.811926
-0.810424
-0.805261
-0.803757
-0.798705
-0.797221
-0.791847
-0.790362
-0.785125
-0.783664
-0.778067
-0.776606
-0.771178
-0.769747
-0.763921
-0.762489
-0.756869
-0.755473
-0.749417
-0.748019
-0.742218
-0.740862
-0.734584
-0.733223
-0.727259
-0.725949
-0.719469
-0.718149
-0.712058
-0.710796
-0.704151
-0.702872
-0.696699
-0.695487
-0.688713
-0.687475
-0.681266
-0.680105
-0.673237
-0.672038
-0.665825
-0.664715
-0.657767
-0.656606
-0.650397
-0.649339
-0.642299
-0.641173
-0.634962
-0.633956
-0.626798
-0.625704
-0.619474
-0.61852
-0.611225
-0.610161
-0.603914
-0.603012
-0.595587
-0.594548
-0.588324
-0.587473
-0.579967
-0.578949
-0.572828
-0.572027
-0.564523
-0.563521
-0.557615
-0.556865
-0.549464
-0.548474
-0.542896
-0.542196
-0.534987
-0.534006
-0.528845
-0.528202
-0.521245
-0.520269
-0.515581
-0.515001
-0.508314
-0.507339
-0.50314
-0.502636
-0.496198
-0.495222
-0.491491
-0.491082
-0.484843
-0.483859
-0.480554
-0.480261
-0.474155
-0.473155
-0.470222
-0.470085
-0.464026
-0.463016
-0.460374
-0.460438
-0.454333
-0.453254
-0.450912
-0.45085
-0.44507
-0.440346
-0.44192
-0.438185
-0.436431
-0.431617
-0.433634
-0.429622
-0.42871
-0.423727
-0.426446
-0.422011
-0.422427
-0.417184
-0.420917
-0.4159
-0.418213
-0.412567
-0.417585
-0.411869
-0.416645
-0.410309
-1.22686
-0.000505076
-1.22689
-0.000542108
-1.22689
-0.000544016
-1.2269
-0.000535104
-1.2269
-0.000532361
-1.2269
-0.000531554
-1.2269
-0.000531067
-1.2269
-0.000530969
-1.2269
-0.00053098
-1.2269
-0.000530912
-1.2269
-0.000530681
-1.2269
-0.000530455
-1.2269
-0.000532018
-1.22617
-0.000542645
-1.22702
-0.000593885
-1.22496
-0.000678675
-1.22758
-0.000866474
-1.22759
-0.00107295
-1.22846
-0.0013364
-1.22848
-0.00156415
-1.22943
-0.00185235
-1.22945
-0.00207953
-1.23044
-0.00237652
-1.22716
-0.00259608
-1.23172
-0.00297698
-1.22703
-0.00333412
-1.23368
-0.00396737
-1.23373
-0.00455091
-1.23621
-0.00542404
-1.23633
-0.00611666
-1.23901
-0.00708516
-1.23913
-0.00772009
-1.24176
-0.0086552
-1.24182
-0.00911906
-1.24434
-0.0100053
-1.23805
-0.0103615
-1.24721
-0.0114063
-1.22059
-0.0119103
-1.25156
-0.0134122
-1.21691
-0.0143006
-1.25804
-0.0164127
-1.23158
-0.0177317
-1.26634
-0.020377
-1.25705
-0.021968
-1.27558
-0.0249316
-1.274
-0.0265925
-1.28523
-0.0297417
-1.27973
-0.0314089
-1.29541
-0.0348151
-1.21252
-0.036672
-1.30864
-0.0406755
-1.24615
-0.0436607
-1.32689
-0.0500759
-1.32831
-0.0577799
-1.35772
-0.0719822
-1.364
-0.0918272
-1.4171
-0.121986
-1.43209
-0.161147
-1.51562
-0.210437
-1.5393
-0.265812
-1.63914
-0.323126
-1.66423
-0.376738
-1.7473
-0.419884
-1.7629
-0.450119
-1.80159
-0.462589
-1.7999
-0.461333
-1.75974
-0.444461
-1.74849
-0.420684
-1.68858
-0.388562
-1.67499
-0.35739
-1.61577
-0.323936
-1.60365
-0.295776
-0.266849
-0.267951
-0.253794
-0.246229
-0.224327
-0.225307
-0.215151
-0.209749
-0.193841
-0.194776
-0.187447
-0.184298
-0.173231
-0.174162
-0.169078
-0.16775
-0.16048
-0.161426
-0.158068
-0.158128
-0.153631
-0.154595
-0.152454
-0.153423
-0.150787
-0.151758
-0.150436
-0.152017
-0.150761
-0.151957
-0.152079
-0.153314
-0.153642
-0.154829
-0.156733
-0.157952
-0.160517
-0.161692
-0.166129
-0.167329
-0.17282
-0.173979
-0.181459
-0.182635
-0.191234
-0.192373
-0.202699
-0.203848
-0.214946
-0.21606
-0.22825
-0.22937
-0.241695
-0.242782
-0.255435
-0.256524
-0.268672
-0.269729
-0.281591
-0.282647
-0.293599
-0.294626
-0.30498
-0.306003
-0.31536
-0.316355
-0.325091
-0.326081
-0.333945
-0.334908
-0.342284
-0.343239
-0.349943
-0.350873
-0.35725
-0.358171
-0.364069
-0.364965
-0.370691
-0.371576
-0.37702
-0.377881
-0.383327
-0.384174
-0.389562
-0.390383
-0.396005
-0.396811
-0.402635
-0.403415
-0.409694
-0.410457
-0.417181
-0.417915
-0.425302
-0.426016
-0.434063
-0.434748
-0.443664
-0.444327
-0.454158
-0.454789
-0.465792
-0.466399
-0.478718
-0.479291
-0.493271
-0.493818
-0.509717
-0.51023
-0.528448
-0.528935
-0.549772
-0.550224
-0.574019
-0.574444
-0.601365
-0.601754
-0.6319
-0.632264
-0.665487
-0.665813
-0.701797
-0.7021
-0.740268
-0.740533
-0.780145
-0.780388
-0.820522
-0.820727
-0.86039
-0.860575
-0.898768
-0.898913
-0.934719
-0.934847
-0.967527
-0.967613
-0.99662
-0.996692
-1.02175
-1.02178
-1.04283
-1.04284
-1.06006
-1.06003
-1.07371
-1.07368
-1.0843
-1.08421
-1.09222
-1.09214
-1.09808
-1.09794
-1.10222
-1.10209
-1.10517
-1.10498
-1.10712
-1.10695
-1.10852
-1.10827
-1.10935
-1.10914
-1.10999
-1.1097
-1.11031
-1.11006
-1.11063
-1.11028
-1.11072
-1.11042
-1.11088
-1.11049
-1.11092
-1.11053
-1.11096
-1.11052
-1.11095
-1.1105
-1.1109
-1.11045
-1.11087
-1.11039
-1.11078
-1.11032
-1.11075
-1.11024
-1.11063
-1.11015
-1.11059
-1.11006
-1.11046
-1.10996
-1.11042
-1.10987
-1.1103
-1.10978
-1.11026
-1.1097
-1.11015
-1.10961
-1.11012
-1.10954
-1.11003
-1.10948
-1.11
-1.10943
-1.10993
-1.10938
-1.10992
-1.10934
-1.10987
-1.10931
-1.10986
-1.10928
-1.10984
-1.10925
-1.10984
-1.10923
-1.10983
-1.10922
-1.10982
-1.1092
-1.10982
-1.10919
-1.10981
-1.10917
-1.1098
-1.10915
-1.10979
-1.10913
-1.10976
-1.1091
-1.10974
-1.10906
-1.10966
-1.109
-1.10961
-1.10892
-1.10946
-1.10882
-1.10936
-1.10867
-1.10912
-1.10847
-1.10889
-1.1082
-1.10851
-1.10784
-1.10809
-1.10737
-1.10748
-1.10679
-1.10678
-1.10603
-1.10585
-1.10511
-1.10476
-1.10397
-1.10339
-1.10261
-1.10181
-1.10097
-1.09991
-1.09907
-1.09775
-1.09686
-1.09525
-1.09435
-1.09247
-1.09152
-1.08936
-1.0884
-1.08599
-1.08498
-1.08233
-1.0813
-1.07844
-1.07736
-1.07433
-1.07323
-1.07004
-1.06889
-1.06559
-1.06442
-1.061
-1.05978
-1.05629
-1.05505
-1.05145
-1.05018
-1.04651
-1.04522
-1.04143
-1.04011
-1.03622
-1.03489
-1.03085
-1.02949
-1.02533
-1.02397
-1.01962
-1.01824
-1.01376
-1.01239
-1.0077
-1.00632
-1.00153
-1.00015
-0.995181
-0.993791
-0.98879
-0.987394
-0.982274
-0.98086
-0.975785
-0.97436
-0.969223
-0.967778
-0.962755
-0.961297
-0.956252
-0.954775
-0.949887
-0.948397
-0.943494
-0.941988
-0.937258
-0.935743
-0.930978
-0.929451
-0.924855
-0.923324
-0.918657
-0.917119
-0.912612
-0.911075
-0.906456
-0.904917
-0.900456
-0.898915
-0.894316
-0.89277
-0.888339
-0.886789
-0.882194
-0.880637
-0.876225
-0.874661
-0.870058
-0.868487
-0.86408
-0.862502
-0.857871
-0.856286
-0.85186
-0.850268
-0.845574
-0.843976
-0.839496
-0.83789
-0.833096
-0.831484
-0.826914
-0.825293
-0.820362
-0.818733
-0.814046
-0.812406
-0.807315
-0.805666
-0.800848
-0.799185
-0.793921
-0.792246
-0.787296
-0.785603
-0.780169
-0.778459
-0.773385
-0.771653
-0.766057
-0.764305
-0.75912
-0.75734
-0.751593
-0.749791
-0.744518
-0.742682
-0.736807
-0.734946
-0.729614
-0.727716
-0.721744
-0.719819
-0.714472
-0.712506
-0.706479
-0.704487
-0.699173
-0.697136
-0.691098
-0.689036
-0.683802
-0.681692
-0.675677
-0.673545
-0.668422
-0.666239
-0.660263
-0.65806
-0.653055
-0.650798
-0.644851
-0.642576
-0.63768
-0.635348
-0.629405
-0.62706
-0.622252
-0.619845
-0.613887
-0.611472
-0.60675
-0.604269
-0.598301
-0.595819
-0.591214
-0.588662
-0.58273
-0.580185
-0.57577
-0.573149
-0.567333
-0.564729
-0.560605
-0.557918
-0.552319
-0.549658
-0.545932
-0.54318
-0.537887
-0.535168
-0.531931
-0.529108
-0.524192
-0.521412
-0.518721
-0.51582
-0.511311
-0.508462
-0.506343
-0.503351
-0.49925
-0.496321
-0.494773
-0.49167
-0.487956
-0.484931
-0.483932
-0.480698
-0.477332
-0.474198
-0.473717
-0.47033
-0.467265
-0.46401
-0.464013
-0.460447
-0.457653
-0.454256
-0.454752
-0.450968
-0.448479
-0.444922
-0.44599
-0.441965
-0.439879
-0.436162
-0.437959
-0.433659
-0.405732
-0.428285
-0.404039
-0.426339
-0.399277
-0.421959
-0.398016
-0.420676
-0.394739
-0.417714
-0.394063
-0.417206
-0.392539
-0.416136
-0.416662
-0.410283
-0.417672
-0.411778
-0.41831
-0.41246
-0.42107
-0.415752
-0.422578
-0.417022
-0.426645
-0.421819
-0.428903
-0.423526
-0.433874
-0.429396
-0.436662
-0.431393
-0.442202
-0.437959
-0.445332
-0.440137
-0.451209
-0.452904
-0.454596
-0.455212
-0.460657
-0.46223
-0.464301
-0.464908
-0.470521
-0.471887
-0.474459
-0.475046
-0.480873
-0.482067
-0.48517
-0.485731
-0.491829
-0.49288
-0.496546
-0.497079
-0.503493
-0.504428
-0.508677
-0.509182
-0.515946
-0.516785
-0.52162
-0.522099
-0.529224
-0.529984
-0.535373
-0.535824
-0.543283
-0.543973
-0.54986
-0.550284
-0.558006
-0.558631
-0.564929
-0.565322
-0.57323
-0.573792
-0.580383
-0.580742
-0.588734
-0.58923
-0.596012
-0.596333
-0.60433
-0.604761
-0.611652
-0.611928
-0.619901
-0.620264
-0.627232
-0.627461
-0.635399
-0.635694
-0.642743
-0.642921
-0.650842
-0.65107
-0.65822
-0.658346
-0.666279
-0.66644
-0.673696
-0.673767
-0.681728
-0.681823
-0.689179
-0.689196
-0.697165
-0.697195
-0.704623
-0.704584
-0.712533
-0.7125
-0.719947
-0.719853
-0.727744
-0.72765
-0.735072
-0.734925
-0.742701
-0.74255
-0.74991
-0.749714
-0.757361
-0.75716
-0.764421
-0.764182
-0.771674
-0.77143
-0.778566
-0.77829
-0.785621
-0.785341
-0.792356
-0.792051
-0.799208
-0.7989
-0.80577
-0.805441
-0.812432
-0.812102
-0.818834
-0.818487
-0.825317
-0.82497
-0.831573
-0.831211
-0.837922
-0.83756
-0.844068
-0.843693
-0.850304
-0.849929
-0.856373
-0.855985
-0.86253
-0.862141
-0.868573
-0.868172
-0.87469
-0.874288
-0.880717
-0.880303
-0.886823
-0.886407
-0.892854
-0.892429
-0.898959
-0.898533
-0.905005
-0.904573
-0.911121
-0.910691
-0.917199
-0.916766
-0.923369
-0.922933
-0.929526
-0.929083
-0.935785
-0.935334
-0.942067
-0.941603
-0.948439
-0.947963
-0.954842
-0.954349
-0.961348
-0.960841
-0.967851
-0.967326
-0.974399
-0.973859
-0.98093
-0.980374
-0.987441
-0.986872
-0.993855
-0.993275
-1.00019
-0.999607
-1.00639
-1.0058
-1.01244
-1.01185
-1.01831
-1.01771
-1.02403
-1.02343
-1.02956
-1.02894
-1.03494
-1.03431
-1.04017
-1.03952
-1.04528
-1.04461
-1.05025
-1.04954
-1.05511
-1.05438
-1.05986
-1.0591
-1.06448
-1.06368
-1.06895
-1.06812
-1.07329
-1.07243
-1.07742
-1.07653
-1.08135
-1.08042
-1.08504
-1.08407
-1.08846
-1.08746
-1.09158
-1.09055
-1.09441
-1.09335
-1.09692
-1.09583
-1.09913
-1.098
-1.10104
-1.09988
-1.10267
-1.10149
-1.10404
-1.10283
-1.10518
-1.10395
-1.1061
-1.10485
-1.10685
-1.10558
-1.10744
-1.10616
-1.10791
-1.10661
-1.10826
-1.10696
-1.10854
-1.10723
-1.10874
-1.10742
-1.10889
-1.10757
-1.10899
-1.10767
-1.10907
-1.10775
-1.10912
-1.1078
-1.10917
-1.10783
-1.1092
-1.10785
-1.10922
-1.10786
-1.10924
-1.10786
-1.10926
-1.10787
-1.10927
-1.10787
-1.10929
-1.10787
-1.1093
-1.10788
-1.10933
-1.10789
-1.10935
-1.1079
-1.10938
-1.10792
-1.10941
-1.10795
-1.10945
-1.10799
-1.10949
-1.10803
-1.10955
-1.10809
-1.10961
-1.10814
-1.10969
-1.10821
-1.10976
-1.10828
-1.10985
-1.10836
-1.10994
-1.10844
-1.11004
-1.10853
-1.11013
-1.1086
-1.11023
-1.10869
-1.11031
-1.10875
-1.11039
-1.10882
-1.11046
-1.10887
-1.11053
-1.10892
-1.11057
-1.10894
-1.1106
-1.10896
-1.1106
-1.10893
-1.11057
-1.10889
-1.11049
-1.10878
-1.11037
-1.10864
-1.11013
-1.10838
-1.10978
-1.10801
-1.10921
-1.10742
-1.10836
-1.10654
-1.10703
-1.10518
-1.10507
-1.10321
-1.10215
-1.10026
-1.09804
-1.09612
-1.0922
-1.09026
-1.0843
-1.08232
-1.07376
-1.07176
-1.06009
-1.05806
-1.04285
-1.04079
-1.02185
-1.01977
-0.996883
-0.994768
-0.967578
-0.965434
-0.934909
-0.932734
-0.89897
-0.896766
-0.860738
-0.858503
-0.820869
-0.818603
-0.78065
-0.778352
-0.740782
-0.738453
-0.70211
-0.699749
-0.665864
-0.663471
-0.632505
-0.630079
-0.601773
-0.599315
-0.574415
-0.571923
-0.550357
-0.547835
-0.529095
-0.526538
-0.510378
-0.507791
-0.493878
-0.491257
-0.479423
-0.476773
-0.466526
-0.463843
-0.45491
-0.452199
-0.444389
-0.441646
-0.434876
-0.432109
-0.426155
-0.423358
-0.417978
-0.415159
-0.410595
-0.407748
-0.40355
-0.400683
-0.396906
-0.394012
-0.390458
-0.387548
-0.384279
-0.381342
-0.377952
-0.375
-0.371669
-0.368692
-0.365104
-0.362114
-0.358232
-0.355217
-0.350979
-0.347954
-0.343373
-0.340321
-0.334973
-0.331913
-0.326185
-0.323097
-0.316537
-0.313443
-0.306097
-0.302973
-0.29465
-0.291522
-0.282786
-0.279627
-0.269832
-0.266672
-0.25659
-0.253396
-0.242856
-0.239665
-0.229471
-0.226244
-0.216233
-0.213013
-0.203901
-0.200643
-0.192559
-0.189313
-0.182775
-0.179488
-0.174128
-0.170861
-0.167489
-0.164177
-0.161806
-0.15852
-0.158034
-0.154699
-0.154932
-0.151633
-0.153413
-0.15006
-0.152084
-0.148777
-0.15212
-0.148452
-0.151816
-0.1488
-0.153516
-0.15047
-0.15466
-0.151651
-0.158237
-0.156066
-0.161474
-0.158483
-0.167883
-0.167164
-0.174278
-0.171305
-0.184389
-0.185537
-0.194927
-0.191953
-0.209932
-0.21253
-0.22529
-0.222269
-0.246317
-1.5712
-0.267876
-1.58001
-0.295942
-1.63042
-0.324057
-1.64196
-0.357133
-1.70157
-0.388354
-1.71501
-0.421008
-1.77588
-0.444253
-1.78708
-0.461484
-1.82738
-0.462722
-1.82908
-0.450023
-1.79052
-0.420334
-1.77487
-0.376187
-1.69114
-0.323562
-1.66643
-0.266542
-1.56609
-0.21064
-1.54241
-0.16157
-1.4585
-0.122088
-1.44353
-0.0920726
-1.39016
-0.0721161
-1.38392
-0.0579595
-1.35431
-0.0502454
-1.3529
-0.0436669
-1.25383
-0.0407507
-1.33424
-0.0367572
-1.24683
-0.0349603
-1.32126
-0.0314841
-1.30192
-0.0298018
-1.31093
-0.0266914
-1.30137
-0.0250274
-1.30136
-0.0220385
-1.2821
-0.0204598
-1.2921
-0.0178106
-1.25953
-0.016519
-1.28384
-0.0143527
-1.24046
-0.0135077
-1.27731
-0.0119717
-1.24754
-0.0114757
-1.27299
-0.0104144
-1.26303
-0.0100653
-1.2701
-0.00917876
-1.26759
-0.0087067
-1.26753
-0.00777592
-1.26491
-0.00714891
-1.26479
-0.00619507
-1.26214
-0.00548927
-1.26201
-0.00460572
-1.25952
-0.00402436
-1.25947
-0.00339359
-1.25304
-0.00302642
-1.25751
-0.00265482
-1.25298
-0.00243346
-1.25624
-0.00213543
-1.25524
-0.00191267
-1.25523
-0.00162856
-1.25428
-0.00139838
-1.25426
-0.00113131
-1.25337
-0.000928811
-1.25337
-0.000741484
-1.25076
-0.000655273
-1.2528
-0.000602629
-1.25192
-0.000590976
-1.25268
-0.000588588
-1.25268
-0.000588614
-1.25268
-0.000589599
-1.25268
-0.000589663
-1.25268
-0.000590496
-1.25268
-0.000590652
-1.25268
-0.000591455
-1.25268
-0.000592066
-1.25268
-0.000594557
-1.25268
-0.000603407
-1.25267
-0.00060145
-1.25267
-0.000564123
-1.25264
-0.392535
-0.416141
-0.394051
-0.417216
-0.394724
-0.417728
-0.397995
-0.420695
-0.399254
-0.421981
-0.404013
-0.426362
-0.405706
-0.428315
-0.437914
-0.433691
-0.439831
-0.436197
-0.44594
-0.442005
-0.448423
-0.444962
-0.454687
-0.451002
-0.45758
-0.45428
-0.463933
-0.460464
-0.46718
-0.464026
-0.473625
-0.470345
-0.477237
-0.474215
-0.483834
-0.480716
-0.487854
-0.484948
-0.494671
-0.49169
-0.499147
-0.496341
-0.506238
-0.503372
-0.511204
-0.508483
-0.518612
-0.515841
-0.524083
-0.521434
-0.531825
-0.529135
-0.537777
-0.535192
-0.545825
-0.543207
-0.552209
-0.549685
-0.560491
-0.557943
-0.567223
-0.564759
-0.575658
-0.573178
-0.582621
-0.580219
-0.591101
-0.588692
-0.598192
-0.595856
-0.606633
-0.604299
-0.613769
-0.611504
-0.622136
-0.619879
-0.629286
-0.627092
-0.637565
-0.635386
-0.644732
-0.642613
-0.652938
-0.650837
-0.660144
-0.658099
-0.668304
-0.666281
-0.675555
-0.673584
-0.683682
-0.681736
-0.690974
-0.689077
-0.699049
-0.697179
-0.706354
-0.70453
-0.714348
-0.712551
-0.721616
-0.719862
-0.729492
-0.727766
-0.736682
-0.734995
-0.744387
-0.742726
-0.751468
-0.749841
-0.758992
-0.757389
-0.765933
-0.764359
-0.773256
-0.771703
-0.780039
-0.77851
-0.787163
-0.78565
-0.793799
-0.792305
-0.800719
-0.799238
-0.80719
-0.805724
-0.813917
-0.812461
-0.820237
-0.818792
-0.826782
-0.825345
-0.832962
-0.831534
-0.839369
-0.837948
-0.845446
-0.844032
-0.851736
-0.850329
-0.857739
-0.85634
-0.863945
-0.862553
-0.869928
-0.868544
-0.876089
-0.874713
-0.88206
-0.88069
-0.888206
-0.886843
-0.894188
-0.892831
-0.90033
-0.898978
-0.906333
-0.904983
-0.912487
-0.911139
-0.918528
-0.917179
-0.924727
-0.923385
-0.930846
-0.929509
-0.937126
-0.935801
-0.943368
-0.942053
-0.949753
-0.948454
-0.956115
-0.95483
-0.962628
-0.961363
-0.969093
-0.967842
-0.975644
-0.974414
-0.982141
-0.980923
-0.988656
-0.987455
-0.995043
-0.99385
-1.00139
-1.00021
-1.00757
-1.00639
-1.01363
-1.01246
-1.01948
-1.0183
-1.02521
-1.02404
-1.03072
-1.02956
-1.03609
-1.03496
-1.04129
-1.04017
-1.04638
-1.04529
-1.05132
-1.05025
-1.05616
-1.05513
-1.06087
-1.05986
-1.06546
-1.06449
-1.0699
-1.06896
-1.0742
-1.07331
-1.0783
-1.07743
-1.08219
-1.08137
-1.08585
-1.08505
-1.08922
-1.08847
-1.09233
-1.09159
-1.09511
-1.09443
-1.09761
-1.09694
-1.09976
-1.09915
-1.10166
-1.10105
-1.10325
-1.10269
-1.10462
-1.10405
-1.1057
-1.10519
-1.10664
-1.10612
-1.10734
-1.10687
-1.10795
-1.10746
-1.10836
-1.10793
-1.10875
-1.10828
-1.10897
-1.10855
-1.10922
-1.10875
-1.10931
-1.1089
-1.10947
-1.10901
-1.10952
-1.10909
-1.1096
-1.10914
-1.10962
-1.10919
-1.10965
-1.10921
-1.10966
-1.10924
-1.10967
-1.10926
-1.10968
-1.10927
-1.10968
-1.10929
-1.10968
-1.10931
-1.1097
-1.10932
-1.1097
-1.10935
-1.10972
-1.10937
-1.10973
-1.1094
-1.10978
-1.10943
-1.10979
-1.10947
-1.10986
-1.10952
-1.10989
-1.10957
-1.10998
-1.10963
-1.11001
-1.10971
-1.11012
-1.10978
-1.11016
-1.10987
-1.11028
-1.10996
-1.11032
-1.11006
-1.11045
-1.11015
-1.11049
-1.11025
-1.11061
-1.11033
-1.11064
-1.11041
-1.11074
-1.11048
-1.11076
-1.11055
-1.11081
-1.11059
-1.11082
-1.11063
-1.11077
-1.11062
-1.11074
-1.11059
-1.11058
-1.11051
-1.11048
-1.11039
-1.11013
-1.11015
-1.10985
-1.10981
-1.10918
-1.10923
-1.10837
-1.10838
-1.10695
-1.10705
-1.10503
-1.1051
-1.10203
-1.10217
-1.09794
-1.09806
-1.09203
-1.09222
-1.08414
-1.08432
-1.07354
-1.07378
-1.05987
-1.06011
-1.04258
-1.04287
-1.02158
-1.02188
-0.996554
-0.996904
-0.967243
-0.967603
-0.934523
-0.93493
-0.898573
-0.898995
-0.860293
-0.86076
-0.820409
-0.820894
-0.780144
-0.780672
-0.740258
-0.740807
-0.701542
-0.702132
-0.665275
-0.665889
-0.631874
-0.632527
-0.601119
-0.601798
-0.57372
-0.574438
-0.549638
-0.550382
-0.528336
-0.529118
-0.509594
-0.510403
-0.493056
-0.493902
-0.478577
-0.479448
-0.465642
-0.46655
-0.454003
-0.454935
-0.443447
-0.444412
-0.433912
-0.434901
-0.425159
-0.426179
-0.416963
-0.418003
-0.409549
-0.410619
-0.402487
-0.403575
-0.395814
-0.39693
-0.389352
-0.390484
-0.383145
-0.384304
-0.376805
-0.377977
-0.370496
-0.371694
-0.363919
-0.365129
-0.357021
-0.358257
-0.349759
-0.351005
-0.342125
-0.343398
-0.333719
-0.334999
-0.324902
-0.326211
-0.315249
-0.316563
-0.304778
-0.306123
-0.293328
-0.294676
-0.281433
-0.282812
-0.268478
-0.269858
-0.255203
-0.256617
-0.241472
-0.242883
-0.228051
-0.229498
-0.214821
-0.21626
-0.20245
-0.203928
-0.191121
-0.192587
-0.181296
-0.182803
-0.172669
-0.174156
-0.165986
-0.167517
-0.160329
-0.161834
-0.156509
-0.158062
-0.153442
-0.15496
-0.151871
-0.153442
-0.150586
-0.152112
-0.150262
-0.15215
-0.15061
-0.151857
-0.15228
-0.153547
-0.153461
-0.154701
-0.157876
-0.158269
-0.160293
-0.161515
-0.168973
-0.167915
-0.173114
-0.17432
-0.187345
-0.184422
-0.193762
-0.19497
-0.214928
-0.209964
-0.224079
-0.225334
-0.253446
-0.246349
-0.266539
-0.267915
-1.63655
-0.295992
-1.64868
-0.324098
-1.70771
-0.357183
-1.72115
-0.388396
-1.78202
-0.421058
-1.79322
-0.444296
-1.83351
-0.461534
-1.83522
-0.462766
-1.79666
-0.450073
-1.78101
-0.42038
-1.69728
-0.376237
-1.67257
-0.323608
-1.57224
-0.266591
-1.54855
-0.210688
-1.46464
-0.161621
-1.44967
-0.122137
-1.3963
-0.0921231
-1.39007
-0.0721651
-1.36046
-0.0580105
-1.35904
-0.0502951
-1.25997
-0.0437183
-1.34039
-0.0408011
-1.25298
-0.0368089
-1.3274
-0.0350114
-1.30807
-0.0315363
-1.31708
-0.0298535
-1.30752
-0.026744
-1.30751
-0.0250796
-1.28825
-0.0220916
-1.29825
-0.0205126
-1.26569
-0.0178641
-1.28999
-0.0165724
-1.24661
-0.0144066
-1.28346
-0.0135615
-1.25369
-0.0120261
-1.27914
-0.0115301
-1.26918
-0.0104691
-1.27626
-0.0101201
-1.27374
-0.00923389
-1.27368
-0.00876194
-1.27106
-0.00783141
-1.27095
-0.00720453
-1.26829
-0.00625089
-1.26816
-0.00554523
-1.26568
-0.00466186
-1.26563
-0.00408064
-1.2592
-0.00345002
-1.26367
-0.00308298
-1.25913
-0.00271153
-1.2624
-0.00249027
-1.2614
-0.00219239
-1.26139
-0.00196968
-1.26043
-0.00168575
-1.26042
-0.00145557
-1.25953
-0.00118872
-1.25953
-0.00098613
-1.25692
-0.000799097
-1.25896
-0.000712667
-1.25809
-0.000660437
-1.25884
-0.000648793
-1.25884
-0.00064645
-1.25884
-0.000646513
-1.25884
-0.000647446
-1.25884
-0.000647539
-1.25884
-0.00064832
-1.25884
-0.000648497
-1.25884
-0.000649262
-1.25884
-0.000649887
-1.25884
-0.000652384
-1.25883
-0.000661265
-1.25883
-0.000659304
-1.2588
-0.000621944
)
;

boundaryField
{
    walls
    {
        type            zeroGradient;
    }
    inlet
    {
        type            cyclic;
    }
    outlet
    {
        type            cyclic;
    }
    sides
    {
        type            empty;
    }
}


// ************************************************************************* //
