/*--------------------------------*- C++ -*----------------------------------*\
| =========                 |                                                 |
| \\      /  F ield         | OpenFOAM: The Open Source CFD Toolbox           |
|  \\    /   O peration     | Version:  2012                                  |
|   \\  /    A nd           | Website:  www.openfoam.com                      |
|    \\/     M anipulation  |                                                 |
\*---------------------------------------------------------------------------*/
FoamFile
{
    version     2.0;
    format      ascii;
    class       volTensorField;
    location    "10600";
    object      grad(U);
}
// * * * * * * * * * * * * * * * * * * * * * * * * * * * * * * * * * * * * * //

dimensions      [0 0 -1 0 0 0 0];


internalField   nonuniform List<tensor> 
2560
(
(0 5.87747e-39 5.7642e-18 630.788 -6.77626e-21 0.000340842 0.914081 6.40819e-08 3.94069e-07)
(-1.4629e-16 -3.48782e-23 -1.47225e-17 630.788 0.000118926 0.00043329 0.914081 1.76254e-07 5.82122e-07)
(0 6.87567e-23 2.75027e-22 629.39 0.000125465 8.94336e-05 2.75151 3.38081e-07 6.0642e-07)
(0 0 1.81043e-22 629.39 0.000107941 2.35404e-05 2.7515 5.20894e-07 6.91415e-08)
(-1.17447e-16 5.88283e-19 0 627.947 0.000104693 8.16334e-07 3.76517 3.11971e-07 6.19148e-07)
(0 0 -4.70198e-38 627.947 4.22797e-05 -1.94065e-24 3.76517 1.25987e-07 1.05879e-22)
(3.72433e-16 1.05362e-22 0 626.429 -3.22221e-05 -2.83716e-05 3.81039 1.15865e-07 6.10015e-07)
(0 0 0 626.429 -2.0078e-05 -2.36375e-05 3.81039 6.06996e-08 7.14607e-08)
(1.10465e-15 0 0 624.803 -0.000149035 -6.61222e-05 3.85539 5.34781e-07 5.48526e-07)
(0 0 2.6337e-22 624.803 -0.000143202 -8.72831e-05 3.85539 5.56289e-07 3.95328e-07)
(3.06954e-15 -8.11235e-24 0 623.057 -0.000140319 -8.06783e-05 3.90011 -1.33728e-08 4.12286e-07)
(7.13522e-15 1.62247e-23 0 623.057 -0.000136395 -0.000105785 3.90011 1.65261e-08 5.3608e-07)
(-1.15634e-15 -2.12721e-18 0 621.2 -2.74846e-24 -6.41675e-05 3.94471 0 2.80392e-07)
(4.62535e-15 -7.98598e-23 0 621.2 -4.42158e-05 -8.44143e-05 3.94471 -1.39589e-07 3.66409e-07)
(-1.42383e-15 -3.6298e-19 0 619.277 4.36397e-06 -3.85529e-05 3.98954 -1.39774e-08 1.95524e-07)
(5.69534e-15 -6.71926e-23 -1.26104e-22 619.277 1.32465e-05 -5.17747e-05 3.98954 -1.4906e-07 2.55479e-07)
(5.86504e-15 -1.10212e-23 0 617.348 2.33145e-05 -1.86131e-05 4.03501 -1.50255e-07 1.48202e-07)
(-4.17069e-15 0 0 617.348 2.38002e-05 -2.67311e-05 4.03501 -1.47153e-07 1.91944e-07)
(-2.05546e-15 0 0 615.481 1.78497e-05 -5.41462e-06 4.0816 -1.49784e-07 1.24462e-07)
(0 0 0 615.481 1.86855e-05 -1.04895e-05 4.0816 -1.12695e-07 1.10158e-07)
(1.80758e-15 3.5266e-24 -6.1411e-23 613.738 1.0801e-05 3.5352e-06 4.12973 -8.2069e-08 1.08146e-07)
(-4.05199e-15 0 0 613.738 1.11741e-05 -3.0615e-06 4.12973 -7.00314e-08 2.75689e-08)
(6.51793e-15 -4.63569e-23 3.79539e-24 612.177 8.63638e-06 1.01936e-05 4.17982 -6.22908e-08 8.97634e-08)
(0 2.9757e-23 1.31597e-18 612.177 9.05498e-06 -3.91558e-06 4.17982 -3.64312e-08 1.32867e-08)
(3.93667e-15 0 1.20371e-35 610.846 5.782e-06 -1.05879e-22 4.23225 -4.60679e-08 0)
(0 1.46652e-23 0 610.846 6.10722e-06 -1.89615e-05 4.23225 -7.30935e-09 7.83703e-08)
(-3.0928e-15 1.55821e-23 -5.78202e-23 609.788 3.77362e-06 -1.49038e-05 4.28736 -2.45235e-08 8.64878e-08)
(8.49094e-15 -1.44551e-23 -5.78202e-23 609.788 4.0756e-06 -1.34784e-05 4.28736 6.65487e-09 3.59695e-08)
(0 4.27436e-23 -5.69915e-23 609.034 2.38719e-06 -1.32855e-05 4.34547 -1.7545e-08 4.34125e-08)
(0 -4.27436e-23 5.69915e-23 609.034 2.65395e-06 -2.79458e-07 4.34547 2.21816e-08 5.0737e-13)
(-3.67524e-15 1.16595e-24 0 608.612 1.51534e-06 -1.24446e-06 4.40683 -5.44767e-09 4.20029e-09)
(1.4701e-14 0 0 608.612 2.34904e-06 1.0901e-05 4.40683 2.6314e-08 4.85016e-13)
(0 3.4606e-23 0 608.538 2.32014e-06 1.07157e-05 4.47168 -5.3634e-10 2.18182e-12)
(-1.58881e-14 -3.4606e-23 0 608.538 2.54726e-06 1.18749e-05 4.47168 3.99873e-08 5.0091e-13)
(0 3.411e-23 0 608.824 1.31618e-07 1.28602e-05 4.54018 4.71035e-09 2.5869e-12)
(-1.70912e-14 -3.411e-23 0 608.824 3.44877e-07 1.28602e-05 4.54018 4.56299e-08 4.95316e-13)
(7.22008e-15 0 1.07588e-22 609.469 7.94093e-23 1.38431e-05 4.61243 2.00691e-09 2.2629e-12)
(0 1.34484e-23 0 609.469 4.25673e-07 1.38431e-05 4.61243 4.32328e-08 5.16633e-13)
(-2.22928e-15 1.98835e-23 0 610.468 1.97834e-06 1.48663e-05 4.68851 8.00711e-09 2.5273e-12)
(-1.24326e-14 -3.31392e-23 0 610.468 2.16864e-06 1.48663e-05 4.68851 4.96005e-08 5.10823e-13)
(0 3.26642e-23 0 611.808 5.27861e-07 1.59445e-05 4.7684 1.85834e-08 2.38073e-12)
(0 -3.26642e-23 0 611.808 7.0974e-07 1.59445e-05 4.7684 6.04673e-08 5.3845e-13)
(-5.52082e-15 -6.43922e-24 0 613.465 -1.90727e-06 1.70243e-05 4.85203 1.34347e-08 2.65463e-12)
(0 1.6098e-23 0 613.465 -1.73099e-06 1.70243e-05 4.85203 5.5634e-08 5.23789e-13)
(7.78453e-15 -1.38913e-24 1.01551e-22 615.41 1.74633e-22 1.81238e-05 4.93925 5.00489e-09 2.23761e-12)
(0 6.34693e-23 0 615.41 1.32409e-06 1.81238e-05 4.93925 4.75124e-08 5.30526e-13)
(0 2.81518e-23 0 617.607 1.85699e-06 1.93101e-05 5.02988 2.41999e-08 2.72669e-12)
(-2.47022e-14 -3.44078e-23 0 617.607 2.02114e-06 1.931e-05 5.02988 6.69863e-08 5.68103e-13)
(6.51156e-15 3.39146e-23 0 620.013 -1.40521e-06 2.05459e-05 5.12362 2.12138e-08 2.43637e-12)
(0 -3.39146e-23 0 620.013 -1.24646e-06 2.05459e-05 5.12362 6.42798e-08 5.73833e-13)
(-2.02335e-14 5.16623e-23 0 622.574 -1.94898e-06 2.17726e-05 5.22009 1.399e-08 2.7571e-12)
(6.52611e-15 -5.16623e-23 0 622.574 -1.79211e-06 2.17726e-05 5.22009 5.73504e-08 5.66965e-13)
(3.44717e-14 -8.81617e-25 0 625.234 1.16144e-37 2.30509e-05 5.31886 6.35272e-09 2.32034e-12)
(4.47524e-14 6.58988e-23 0 625.234 2.0497e-06 2.3051e-05 5.31886 4.99888e-08 5.87565e-13)
(0 -3.39534e-23 0 627.932 1.09461e-06 2.44373e-05 5.41947 3.15562e-08 2.71741e-12)
(3.02292e-14 3.69059e-23 0 627.932 1.24165e-06 2.44373e-05 5.41947 7.54576e-08 5.99906e-13)
(-4.57978e-15 -1.12119e-19 0 630.599 -6.4253e-08 2.58716e-05 5.52127 1.67388e-08 2.60819e-12)
(0 -8.73046e-24 -1.8625e-22 630.599 -1.66607e-06 2.58715e-05 5.52127 6.09056e-08 6.13587e-13)
(-1.65763e-14 0 0 633.158 -1.61295e-06 2.73099e-05 5.62359 1.72488e-08 2.79283e-12)
(-6.63052e-14 0 0 633.158 -1.47138e-06 2.73099e-05 5.62359 6.17055e-08 6.27632e-13)
(-8.66419e-15 0 0 635.531 0 2.88169e-05 5.7257 3.73041e-09 2.40883e-12)
(-4.68001e-14 -5.65466e-24 0 635.531 1.7219e-06 2.88169e-05 5.7257 4.84461e-08 6.39849e-13)
(0 4.59823e-23 0 637.641 1.06114e-06 3.04457e-05 5.82682 3.30017e-08 2.85684e-12)
(-3.61898e-14 -4.59823e-23 0 637.641 1.20184e-06 3.04457e-05 5.82682 7.79817e-08 6.62004e-13)
(1.17977e-14 -3.35644e-20 0 639.4 -2.07948e-06 3.21234e-05 5.926 1.43342e-08 2.59487e-12)
(2.59543e-14 4.39499e-23 0 639.4 -2.49382e-06 3.21234e-05 5.926 5.95825e-08 6.70921e-13)
(-9.83585e-15 0 0 640.72 -7.02117e-07 3.38213e-05 6.02228 1.02375e-08 2.94327e-12)
(0 1.083e-23 0 640.72 -5.63563e-07 3.38214e-05 6.02228 5.57706e-08 6.99947e-13)
(-1.02409e-14 -2.82016e-35 0 641.511 2.68799e-22 3.56259e-05 6.11468 9.16073e-09 2.53736e-12)
(0 -3.73617e-23 0 641.511 1.8582e-06 3.56259e-05 6.11468 5.49571e-08 7.05141e-13)
(-3.32484e-14 2.89349e-23 0 641.689 3.05435e-07 3.7562e-05 6.20214 2.80362e-08 2.96097e-12)
(-4.26122e-14 -1.84131e-23 0 641.689 4.44445e-07 3.7562e-05 6.20214 7.41066e-08 7.47498e-13)
(1.10721e-14 -2.07419e-23 0 641.162 -2.59125e-06 3.95513e-05 6.28346 1.32442e-08 2.66274e-12)
(0 2.07419e-23 0 641.162 -2.45344e-06 3.95513e-05 6.28346 5.96036e-08 7.44175e-13)
(1.14979e-14 -4.96202e-20 0 639.838 0 4.15803e-05 6.35747 4.26172e-09 3.02839e-12)
(0 3.0667e-23 0 639.838 -4.50678e-07 4.15803e-05 6.35747 5.08941e-08 7.95403e-13)
(-3.35675e-14 1.51137e-23 0 637.632 1.42767e-06 4.37337e-05 6.423 8.95969e-09 2.71677e-12)
(0 -5.03791e-24 -6.44852e-22 637.632 1.56683e-06 4.37337e-05 6.423 5.58961e-08 7.87852e-13)
(-1.06638e-14 2.48285e-23 0 634.466 9.35808e-07 4.60491e-05 6.47885 2.00737e-08 3.21003e-12)
(1.06638e-14 -4.46913e-23 0 634.466 1.07441e-06 4.60491e-05 6.47885 6.7296e-08 8.71719e-13)
(-1.28112e-14 9.78906e-24 0 630.259 -2.47703e-06 4.84526e-05 6.52372 1.98993e-08 2.68052e-12)
(5.12447e-14 0 -6.265e-22 630.259 -2.33756e-06 4.84526e-05 6.52372 6.74118e-08 8.29956e-13)
(2.07205e-14 -8.72922e-20 0 624.93 0 5.08947e-05 6.5563 0 3.25294e-12)
(3.23168e-14 4.82438e-23 0 624.93 -1.50222e-06 5.08947e-05 6.5563 4.36923e-08 9.30901e-13)
(1.37116e-14 2.37762e-23 0 618.411 2.82931e-06 5.34918e-05 6.5754 4.49349e-09 2.94676e-12)
(-5.48464e-14 -3.80418e-23 0 618.411 2.97132e-06 5.34918e-05 6.5754 5.26325e-08 9.02252e-13)
(1.41673e-14 -2.10918e-23 0 610.645 -1.53111e-06 5.62519e-05 6.57982 2.75743e-08 3.26466e-12)
(0 2.10918e-23 0 610.645 -1.38777e-06 5.62519e-05 6.57982 7.6054e-08 1.01211e-12)
(-1.46254e-14 -3.77033e-21 0 601.574 2.72211e-23 5.91167e-05 6.56832 0 3.06594e-12)
(0 1.84796e-23 0 601.574 -1.80797e-09 5.91167e-05 6.56832 3.79796e-08 9.68664e-13)
(1.50852e-14 2.04916e-23 0 591.15 -2.29163e-06 6.20716e-05 6.53974 2.81989e-08 3.44886e-12)
(4.07827e-14 -9.10737e-24 -1.16574e-21 591.15 -2.14217e-06 6.20716e-05 6.53974 7.73412e-08 1.11414e-12)
(1.92776e-14 -4.89231e-24 1.14903e-21 579.335 8.47033e-22 6.51687e-05 6.49299 0 2.82167e-12)
(4.29041e-14 1.79537e-23 0 579.335 2.19579e-06 6.51687e-05 6.49299 1.42818e-08 9.26673e-13)
(-1.60051e-14 0 0 566.102 4.0379e-06 6.85569e-05 6.4271 5.40644e-08 3.79108e-12)
(0 1.21662e-23 0 566.102 4.19315e-06 6.85569e-05 6.4271 1.0391e-07 1.34439e-12)
(-1.6463e-14 0 0 551.431 -1.24483e-05 7.19022e-05 6.341 1.17692e-08 3.12099e-12)
(0 8.72136e-24 0 551.431 -1.22964e-05 7.19022e-05 6.341 6.20447e-08 1.07596e-12)
(1.84605e-14 -3.91954e-20 0 535.311 -2.12374e-21 7.50817e-05 6.23391 0 3.86495e-12)
(0 0 0 535.311 -6.68481e-07 7.50817e-05 6.23391 -3.80657e-08 1.35354e-12)
(-3.55642e-14 -8.47315e-24 -1.08456e-21 517.761 2.74389e-05 7.90417e-05 6.10543 5.35371e-09 4.76433e-12)
(0 1.69463e-23 0 517.761 2.75953e-05 7.90416e-05 6.10543 5.64473e-08 2.4497e-12)
(-1.79352e-14 0 -1.06902e-21 498.797 -3.59605e-05 8.2937e-05 5.95464 2.41497e-07 2.96482e-12)
(-7.12514e-14 -4.28538e-19 0 498.797 -3.11198e-05 8.29372e-05 5.95464 1.88123e-07 1.56044e-13)
(-1.82501e-14 0 0 478.429 -3.01266e-23 8.63771e-05 5.78098 -5.29396e-23 2.15434e-12)
(7.30006e-14 -8.79463e-23 0 478.429 1.19549e-05 8.63774e-05 5.78098 -2.23694e-07 7.7322e-13)
(0 0 0 456.714 1.57707e-05 9.06116e-05 5.58467 3.99308e-07 3.39117e-12)
(0 0 0 456.714 1.59252e-05 9.06113e-05 5.58467 1.92454e-07 2.08781e-12)
(-3.62715e-14 -5.87747e-39 0 433.709 0 9.4533e-05 5.36522 -4.74545e-39 5.10902e-12)
(9.3561e-14 0 0 433.709 -3.18204e-05 9.45328e-05 5.36522 -1.93533e-07 1.53895e-12)
(3.90049e-14 -2.36493e-23 0 409.469 3.08065e-05 9.85045e-05 5.12277 3.71871e-09 5.3515e-12)
(7.80097e-14 2.36493e-23 0 409.469 3.09529e-05 9.85047e-05 5.12277 5.71365e-08 2.5325e-12)
(1.66862e-14 -1.55402e-23 1.98915e-21 384.083 -2.53167e-05 0.000102652 4.8578 1.49765e-07 2.90814e-12)
(-1.66862e-14 3.10805e-23 0 384.083 -2.51303e-05 0.000102652 4.8578 1.98023e-07 5.61358e-13)
(-2.02716e-14 -1.88667e-36 0 357.648 6.77626e-21 0.000106276 4.57072 5.29396e-23 3.5229e-12)
(0 0 0 357.648 5.19949e-06 0.000106276 4.57072 -2.34887e-07 1.25208e-12)
(-4.1263e-14 0 0 330.277 8.91087e-06 0.000110229 4.26255 2.25941e-07 4.05796e-12)
(8.2526e-14 1.29206e-23 0 330.277 9.09092e-06 0.000110229 4.26255 2.02973e-07 1.99667e-12)
(-2.09729e-14 -1.81164e-19 0 302.095 -1.47722e-23 0.000114105 3.93417 -2.64698e-23 4.45929e-12)
(0 0 0 302.095 -8.68755e-06 0.000114104 3.93417 -1.57311e-07 1.5246e-12)
(-2.1294e-14 -2.20024e-23 0 273.23 4.63557e-06 0.000117742 3.58682 1.13459e-07 4.4365e-12)
(8.51762e-14 3.66707e-23 0 273.23 4.81173e-06 0.000117742 3.58682 1.69424e-07 1.72346e-12)
(-2.15936e-14 0 0 243.826 -2.92054e-05 0.000120503 3.22201 -1.50608e-07 6.13788e-12)
(0 0 0 243.826 -2.89697e-05 0.000120503 3.22201 -9.39608e-08 1.28002e-12)
(-1.04947e-13 0 0 214.049 2.01602e-23 0.00012321 2.84183 0 2.71053e-12)
(-2.62728e-14 6.51252e-20 0 214.049 3.50116e-05 0.00012321 2.84183 -2.33096e-07 2.28953e-12)
(-4.42433e-14 0 0 184.083 -9.69342e-06 0.000126381 2.44848 3.63598e-07 1.78394e-12)
(1.76973e-13 2.27363e-22 0 184.083 -9.4852e-06 0.000126381 2.44848 2.16447e-07 1.16435e-12)
(-6.70432e-14 3.00927e-36 0 154.094 2.03895e-20 0.000127946 2.04387 -5.29396e-23 5.96878e-12)
(-8.93909e-14 6.91529e-23 0 154.094 -3.47491e-05 0.000127946 2.04387 -2.54094e-07 1.31514e-12)
(-2.25468e-14 -2.72936e-23 0 124.269 3.91633e-05 0.000129295 1.63108 -1.35385e-07 5.9901e-12)
(9.01873e-14 2.72936e-23 0 124.269 3.93429e-05 0.000129295 1.63108 -7.6142e-08 2.39082e-12)
(2.2718e-14 -4.03536e-23 0 94.8188 -3.49069e-05 0.000130407 1.21301 1.4503e-07 3.77656e-12)
(0 4.03536e-23 0 94.8188 -2.98874e-05 0.000130408 1.21301 2.05062e-07 -4.84434e-13)
(5.69445e-14 -9.21642e-23 0 65.9342 -9.21642e-23 0.000131156 0.792537 0 4.1652e-12)
(3.44977e-14 -1.88771e-22 0 65.9343 3.32993e-05 0.000131156 0.792537 -2.63161e-07 2.27315e-12)
(5.61283e-14 0 0 37.8067 -4.28624e-05 0.000131298 0.372903 5.17357e-07 2.23637e-12)
(9.18951e-14 2.7609e-22 0 37.8067 -3.00732e-05 0.000131298 0.372903 2.32364e-07 -9.15944e-13)
(3.4845e-13 2.35099e-38 -3.29756e-21 0.00521031 6.39469e-36 0.000130525 4.08434e-05 -2.11758e-22 1.84595e-12)
(3.68817e-14 -5.62663e-22 -3.29756e-21 0.00520997 2.12563e-05 0.000130525 4.08407e-05 -2.70897e-07 1.01361e-13)
(4.05241e-13 0 0 -5.36457 -3.17998e-08 0.000130239 0.0426641 5.31998e-07 1.80843e-12)
(-7.55952e-13 0 0 -5.36457 1.95538e-07 0.000130239 0.0426641 2.40025e-07 -1.7627e-13)
(-4.59093e-14 3.76158e-36 0 -40.1523 -2.72964e-20 0.000129211 0.450615 -5.30997e-38 2.59425e-12)
(0 0 0 -40.1523 -2.04021e-05 0.000129211 0.450615 -2.78173e-07 -1.39138e-12)
(0 0 0 -63.4399 2.10735e-05 0.000128219 0.848143 5.4751e-07 2.59628e-12)
(9.13625e-14 3.07985e-22 0 -63.4399 2.12796e-05 0.000128219 0.848143 2.46955e-07 1.32245e-14)
(0 -3.43057e-19 0 -85.1373 -3.72694e-20 0.000127344 1.23188 -2.11758e-22 2.65319e-12)
(6.46977e-14 -3.92439e-22 0 -85.1373 -2.0274e-05 0.000127344 1.23188 -2.84951e-07 -1.21598e-12)
(-2.254e-14 0 0 -105.147 1.17578e-05 0.000126378 1.59901 4.23901e-07 1.17047e-12)
(0 0 0 -105.147 1.19728e-05 0.000126378 1.59901 2.54264e-07 -1.52976e-12)
(7.30901e-14 -7.83212e-19 0 -123.399 0 0.000125243 1.94724 0 1.25182e-12)
(-5.07335e-14 0 0 -123.399 -2.3863e-05 0.000125242 1.94724 -2.92205e-07 -2.88724e-12)
(0 -2.3286e-23 0 -139.837 2.93877e-05 0.000124621 2.27448 3.17377e-08 3.37839e-12)
(0 3.4929e-23 0 -139.837 2.96217e-05 0.000124621 2.27448 1.00358e-07 -1.13177e-12)
(2.46448e-14 0 0 -154.429 -3.13859e-05 0.00012428 2.57865 -2.91305e-07 3.01419e-12)
(0 0 0 -154.429 -3.11348e-05 0.00012428 2.57865 -3.00315e-07 -1.73449e-12)
(-1.90984e-14 0 5.79157e-21 -167.191 -7.13694e-23 0.0001242 2.85843 -1.05879e-22 1.21181e-12)
(0 0 0 -167.191 2.75209e-05 0.0001242 2.85843 -3.05529e-07 -1.63421e-12)
(-2.14436e-14 3.34486e-23 0 -178.159 -3.19599e-05 0.000124333 3.11315 1.26599e-07 9.59976e-14)
(0 -7.5571e-20 0 -178.159 -3.04576e-05 0.000124332 3.11315 1.97858e-07 -4.32091e-12)
(2.11799e-14 -1.52927e-22 0 -187.39 -1.52927e-22 0.000124477 3.34239 0 -5.87444e-13)
(-1.0832e-13 3.96161e-22 0 -187.39 2.1617e-05 0.000124477 3.34239 -3.1534e-07 -3.67371e-12)
(0 0 0 -194.954 -5.61992e-06 0.000125573 3.54608 5.45108e-07 -9.88399e-13)
(-8.36222e-14 -1.84623e-22 0 -194.954 -5.37288e-06 0.000125573 3.54608 2.85715e-07 -3.32941e-12)
(2.30623e-15 -2.33141e-19 0 -200.951 1.69407e-20 0.000126194 3.72439 0 -1.3043e-13)
(1.4205e-13 -9.17947e-22 0 -200.951 -1.59309e-05 0.000126194 3.72439 -3.24596e-07 -5.38731e-12)
(2.03319e-14 6.31436e-23 0 -205.491 2.11002e-05 0.000127321 3.87844 2.67222e-07 1.15424e-12)
(8.13275e-14 -3.65489e-23 0 -205.491 2.13344e-05 0.000127321 3.87844 2.94921e-07 -2.43696e-12)
(0 -1.37992e-19 0 -208.683 -1.01644e-20 0.000129175 4.009 -1.05879e-22 1.08286e-12)
(0 0 0 -208.683 -9.40691e-06 0.000129175 4.009 -3.33612e-07 -4.14332e-12)
(-1.97349e-14 -6.90149e-23 0 -210.657 -5.16289e-06 0.000130706 4.11727 9.87782e-08 2.69562e-14)
(7.89395e-14 7.41271e-23 0 -210.657 -4.90451e-06 0.000130706 4.11727 1.7684e-07 -4.39242e-12)
(-1.94309e-14 -7.47614e-36 0 -211.544 1.25742e-20 0.000132356 4.20496 0 1.29167e-13)
(-7.77237e-14 2.90136e-22 0 -211.544 2.96373e-06 0.000132356 4.20496 -3.43832e-07 -4.26905e-12)
(1.91248e-14 -2.98003e-23 0 -211.466 -6.10917e-06 0.000134049 4.27368 1.7422e-07 -5.53742e-13)
(7.64993e-14 2.98003e-23 0 -211.466 -5.8364e-06 0.000134049 4.27368 2.54625e-07 -4.85531e-12)
(-1.88176e-14 -7.52686e-20 0 -210.542 1.46998e-20 0.000135522 4.32498 2.11758e-22 -1.25726e-12)
(7.52704e-14 -3.57815e-22 0 -210.542 -2.55549e-06 0.000135523 4.32498 -3.5494e-07 -5.76239e-12)
(-1.85101e-14 0 0 -208.879 1.67816e-05 0.000137708 4.36047 1.39673e-07 -8.82373e-14)
(0 0 0 -208.879 1.70489e-05 0.000137707 4.36047 2.22623e-07 -3.84845e-12)
(-1.82032e-14 -2.47337e-19 0 -206.584 1.0267e-20 0.000139898 4.38157 0 6.1147e-13)
(0 0 0 -206.584 -1.88476e-05 0.000139898 4.38157 -3.66141e-07 -5.32748e-12)
(-3.80324e-14 0 0 -203.762 7.98753e-06 0.000141706 4.39004 -2.50491e-07 5.31675e-13)
(9.17244e-14 7.50087e-23 0 -203.762 8.25861e-06 0.000141706 4.39004 -1.64687e-07 -4.73411e-12)
(1.75933e-14 -1.10611e-19 0 -200.505 -1.57398e-05 0.000143093 4.38748 -1.71972e-07 2.63744e-12)
(0 0 0 -200.505 -1.83363e-05 0.000143093 4.38748 -3.77823e-07 -5.26009e-12)
(0 -9.01167e-23 0 -196.884 6.59603e-21 0.00014515 4.37522 0 -4.84147e-13)
(1.9562e-14 0 0 -196.884 3.28948e-05 0.000145151 4.37522 -3.84997e-07 -3.3725e-12)
(-3.62737e-14 -1.79574e-23 0 -192.97 -2.65657e-05 0.000147509 4.35431 1.69859e-07 -3.02203e-12)
(1.92816e-14 2.69361e-23 0 -192.97 -2.62616e-05 0.000147509 4.35431 2.597e-07 -7.33028e-12)
(0 -1.04516e-19 9.0624e-21 -188.834 -1.69407e-20 0.000148292 4.32604 0 -1.87644e-12)
(1.33567e-13 -8.49769e-22 0 -188.834 -8.28487e-06 0.000148292 4.32604 -3.98708e-07 -7.8557e-12)
(-1.87328e-14 1.74463e-23 -8.93251e-21 -184.526 3.05567e-05 0.000150085 4.29172 4.72274e-10 2.65326e-12)
(6.56114e-14 1.74463e-23 0 -184.526 3.08483e-05 0.000150085 4.29172 9.35068e-08 -3.36598e-12)
(-3.45777e-14 1.22217e-23 -8.80449e-21 -180.086 -3.38012e-05 0.000151709 4.25186 -4.6605e-07 2.17266e-12)
(-6.44534e-14 0 0 -180.086 -3.34727e-05 0.000151709 4.25186 -4.59064e-07 -5.58319e-12)
(2.37212e-15 1.33638e-51 8.67829e-21 -175.558 3.38813e-21 0.000152887 4.20735 -1.30832e-51 -1.38533e-12)
(-6.33103e-14 1.48614e-22 0 -175.558 2.45981e-05 0.000152887 4.20735 -4.19037e-07 -5.64337e-12)
(0 3.34137e-23 0 -170.978 -8.67309e-06 0.000154789 4.15907 4.04901e-08 -2.62174e-12)
(-1.79389e-14 -1.67069e-23 0 -170.978 -8.3496e-06 0.000154788 4.15907 1.38682e-07 -6.18319e-12)
(0 -4.85254e-19 0 -166.375 1.35525e-20 0.000155189 4.10752 0 2.08647e-12)
(6.10713e-14 -2.57212e-22 0 -166.375 -2.11056e-05 0.000155189 4.10752 -4.34688e-07 -6.48151e-12)
(1.49941e-14 1.94777e-22 -1.66209e-20 -161.773 2.78018e-05 0.000155856 4.05345 -4.65447e-07 1.14742e-12)
(-1.74283e-14 -6.49256e-23 0 -161.773 2.8123e-05 0.000155856 4.05345 -3.63438e-07 -5.17398e-12)
(0 -2.5598e-22 0 -157.187 -1.08613e-05 0.000157316 3.99714 -3.00242e-07 -1.47105e-12)
(1.17796e-13 2.5598e-22 0 -157.187 -1.05261e-05 0.000157315 3.99714 -1.9648e-07 -7.27429e-12)
(0 -1.98424e-19 0 -152.636 -1.69407e-21 0.000157715 3.93896 0 1.00909e-12)
(1.15674e-13 -1.87887e-22 0 -152.636 -8.80206e-06 0.000157715 3.93896 -4.59887e-07 -6.13054e-12)
(-2.83967e-14 2.80472e-23 0 -148.134 1.32173e-05 0.000158264 3.8794 -4.19341e-07 1.69478e-12)
(0 0 0 -148.134 1.35623e-05 0.000158264 3.8794 -4.12526e-07 -6.04557e-12)
(-1.39418e-14 0 0 -143.694 -1.25009e-05 0.000158777 3.81871 -3.82385e-07 -6.5667e-13)
(1.11534e-13 0 0 -143.694 -1.21393e-05 0.000158777 3.81871 -2.72413e-07 -7.20093e-12)
(-1.87397e-14 -2.34312e-22 0 -139.328 9.12816e-21 0.000158716 3.75725 0 -6.43718e-13)
(3.24293e-14 0 0 -139.328 3.35821e-06 0.000158716 3.75725 -4.87832e-07 -7.66097e-12)
(-1.34418e-14 0 0 -135.039 7.67256e-06 0.000159152 3.69528 -2.84444e-07 1.34666e-12)
(0 0 0 -135.039 8.04476e-06 0.000159152 3.69528 -1.70059e-07 -5.9153e-12)
(-1.31984e-14 1.05278e-23 0 -130.835 -2.29352e-05 0.000158661 3.63286 -5.55716e-07 3.19187e-12)
(5.27936e-14 0 0 -130.835 -2.25429e-05 0.000158661 3.63286 -5.14751e-07 -7.39609e-12)
(-1.29593e-14 9.40395e-38 0 -126.724 2.50917e-22 0.000158107 3.5704 3.48217e-38 -1.38543e-12)
(3.63099e-14 -1.47591e-22 0 -126.724 2.38059e-05 0.000158108 3.5704 -5.18761e-07 -6.31037e-12)
(-2.54491e-14 0 0 -122.705 -6.39543e-06 0.000158413 3.50797 4.32866e-08 -1.83546e-12)
(0 0 0 -122.705 -5.99505e-06 0.000158412 3.50797 1.64779e-07 -7.87713e-12)
(2.59135e-15 -1.50518e-19 0 -118.782 0 0.000157372 3.44554 0 -1.14692e-13)
(-1.50855e-14 0 -1.43867e-20 -118.782 -1.51897e-05 0.000157371 3.44554 -5.41471e-07 -9.02694e-12)
(0 -1.10785e-22 1.41805e-20 -114.961 2.27363e-05 0.000156641 3.38352 -3.79489e-07 5.94541e-12)
(-1.93333e-14 0 0 -114.961 2.31383e-05 0.000156641 3.38352 -2.52553e-07 -2.78995e-12)
(1.2046e-14 0 0 -111.241 -2.52122e-05 0.000155636 3.32197 -4.17311e-07 1.43382e-12)
(4.8184e-14 0 0 -111.241 -2.47725e-05 0.000155636 3.32197 -2.87282e-07 -9.43997e-12)
(1.18282e-14 -3.1002e-22 0 -107.622 1.01644e-20 0.000154416 3.2609 0 -4.52082e-13)
(-4.73129e-14 2.25011e-22 0 -107.622 2.36601e-05 0.000154417 3.2609 -5.78742e-07 -5.8797e-12)
(2.62453e-15 2.65223e-23 0 -104.106 -1.58294e-05 0.000153516 3.20043 3.09872e-07 3.28428e-13)
(3.22191e-14 -2.65223e-23 0 -104.106 -1.53655e-05 0.000153516 3.20043 4.45588e-07 -8.88826e-12)
(0 -2.23233e-22 0 -100.693 1.69407e-21 0.000152036 3.14068 -2.11758e-22 8.31451e-13)
(-1.4035e-14 0 0 -100.693 8.4344e-06 0.000152036 3.14068 -6.0705e-07 -5.86402e-12)
(-1.38338e-14 -5.1535e-23 -1.3193e-20 -97.3836 -1.16705e-05 0.000150189 3.08175 6.01729e-07 1.30232e-12)
(3.09631e-14 7.77858e-23 0 -97.3836 -1.11888e-05 0.000150189 3.08175 6.03567e-07 -8.93704e-12)
(1.09975e-14 -5.53248e-22 0 -94.1762 1.69407e-20 0.000148011 3.02365 0 -2.31271e-12)
(0 0 0 -94.1762 9.0112e-06 0.000148011 3.02365 -6.37337e-07 -6.55264e-12)
(0 0 0 -91.0688 7.1339e-06 0.00014671 2.96652 9.29529e-07 5.20796e-13)
(-4.31983e-14 -2.45216e-22 0 -91.0688 7.63036e-06 0.00014671 2.96652 6.36606e-07 -8.06587e-12)
(-1.32475e-14 -1.68469e-19 -2.52676e-20 -88.059 1.69407e-20 0.000144453 2.91023 -2.11758e-22 -1.69319e-12)
(0 0 0 -88.059 -1.94167e-05 0.000144453 2.91023 -6.69487e-07 -7.94312e-12)
(0 7.29651e-23 0 -85.1474 2.49335e-05 0.000142417 2.85492 3.29662e-07 2.66549e-12)
(0 -7.29651e-23 0 -85.1474 2.54422e-05 0.000142417 2.85492 4.8631e-07 -6.19254e-12)
(1.02282e-14 -4.92603e-19 0 -82.3323 3.38813e-21 0.000139896 2.80067 0 2.57654e-12)
(0 0 0 -82.3323 -2.93689e-05 0.000139895 2.80067 -7.03392e-07 -2.74371e-12)
(1.0045e-14 -3.88048e-24 0 -79.6099 2.70448e-05 0.000137068 2.74746 -6.19298e-07 6.96256e-12)
(-1.2686e-14 0 0 -79.6099 2.76011e-05 0.000137068 2.74746 -4.82055e-07 -9.61716e-12)
(-1.97304e-14 0 0 -76.9767 -1.48304e-05 0.000134932 2.69522 -1.7567e-08 -6.76304e-12)
(3.94608e-14 0 0 -76.9767 -1.43137e-05 0.000134932 2.69522 1.51398e-07 -1.54829e-12)
(-9.68884e-15 -1.3428e-20 0 -74.4305 0 0.000131523 2.64396 0 4.68398e-12)
(0 0 0 -74.4305 -1.10665e-06 0.000131523 2.64396 -7.49351e-07 -1.53687e-11)
(0 4.5256e-23 0 -71.9667 1.54129e-05 0.000128954 2.59369 -3.97516e-08 -5.26652e-12)
(-1.21483e-14 -4.5256e-23 0 -71.9667 1.59358e-05 0.000128954 2.59369 1.38483e-07 6.11979e-12)
(1.19742e-14 -4.47943e-20 0 -69.5812 -1.68846e-05 0.00012594 2.54422 -3.05762e-07 1.33468e-11)
(-1.19742e-14 0 -2.2839e-20 -69.5812 -1.91343e-05 0.000125941 2.54422 -4.11542e-07 -1.70196e-11)
(-1.18026e-14 5.87747e-38 -2.25116e-20 -67.2717 2.02544e-22 0.000122011 2.49561 -1.05879e-22 -1.58873e-11)
(0 0 0 -67.2717 9.44943e-06 0.000122011 2.49561 -5.41355e-07 9.93571e-12)
(1.16334e-14 0 0 -65.0325 4.61656e-06 0.000118942 2.44779 -2.40119e-07 1.79936e-11)
(6.04989e-14 0 0 -65.0325 5.3497e-06 0.000118942 2.44779 -4.63953e-08 -2.25761e-11)
(-1.7713e-14 -2.35099e-38 0 -62.8594 8.47033e-22 0.000115754 2.40055 0 -2.01201e-11)
(3.54261e-14 0 0 -62.8594 -4.2306e-06 0.000115754 2.40055 -3.37006e-07 2.02831e-11)
(8.69965e-15 0 0 -60.7507 -5.93736e-06 0.000111634 2.35393 -3.93057e-07 2.85403e-11)
(1.13023e-14 0 0 -60.7507 -5.12258e-06 0.000111635 2.35393 -1.88015e-07 -3.33941e-11)
(0 -1.59491e-34 0 -58.7027 5.46317e-21 0.000107324 2.30787 0 -3.79103e-11)
(-4.53239e-14 0 0 -58.7027 5.77748e-06 0.000107323 2.30787 -5.26511e-07 3.4286e-11)
(-1.93759e-14 -2.45437e-22 0 -56.7121 3.35139e-06 0.000103561 2.26227 -1.56108e-07 4.55877e-11)
(3.3581e-14 2.45437e-22 0 -56.7121 4.27746e-06 0.000103562 2.26227 6.11225e-08 -4.88623e-11)
(1.08233e-14 -6.00693e-20 0 -54.7772 -4.23516e-21 9.96124e-05 2.2171 1.05879e-22 -5.7034e-11)
(-1.08233e-14 0 0 -54.7772 -3.88425e-06 9.96111e-05 2.2171 -3.54577e-07 5.79632e-11)
(0 -1.58968e-22 0 -52.8967 -1.29356e-06 9.50993e-05 2.17234 -2.99456e-07 7.33484e-11)
(1.06682e-14 7.9484e-23 0 -52.8967 -2.19196e-07 9.5101e-05 2.17234 -6.88057e-08 -7.58193e-11)
(-7.96164e-15 2.25695e-36 0 -51.0701 8.19087e-21 9.04915e-05 2.12804 -1.05879e-22 -9.31339e-11)
(0 0 0 -51.0701 1.96915e-06 9.04896e-05 2.12804 -3.58573e-07 9.4349e-11)
(-5.28166e-15 -3.86109e-22 1.97688e-20 -49.2955 -2.66225e-06 8.56757e-05 2.08421 -2.02797e-07 1.17363e-10)
(7.29494e-14 3.86109e-22 0 -49.2955 -1.37578e-06 8.56783e-05 2.08421 4.23645e-08 -1.18857e-10)
(0 -9.27683e-23 0 -47.5708 5.02975e-21 8.07657e-05 2.04079 0 -1.4921e-10)
(-1.0216e-14 0 0 -47.5708 3.0806e-06 8.07627e-05 2.04079 -4.15569e-07 1.50598e-10)
(-1.00696e-14 7.50242e-23 -1.92062e-20 -45.8941 3.20705e-07 7.60246e-05 1.99777 -4.89521e-08 1.8666e-10)
(0 0 0 -45.8941 1.90066e-06 7.60285e-05 1.99777 2.1197e-07 -1.86767e-10)
(-2.22754e-14 2.35099e-36 0 -44.263 4.25563e-21 7.11796e-05 1.9551 1.05879e-22 -2.37006e-10)
(5.9401e-14 5.91591e-22 0 -44.263 -5.67206e-07 7.11749e-05 1.9551 -3.39569e-07 2.40707e-10)
(0 -2.18667e-22 0 -42.6752 -3.8778e-07 6.61739e-05 1.91271 -4.31542e-08 2.97744e-10)
(5.83863e-14 2.18667e-22 0 -42.6752 1.61332e-06 6.61799e-05 1.91271 2.34988e-07 -2.96943e-10)
(-7.17434e-15 -1.39725e-20 0 -41.1286 3.81165e-21 6.08434e-05 1.87058 0 -3.77856e-10)
(0 -1.43689e-22 0 -41.1286 -2.78382e-06 6.0836e-05 1.87058 -2.80384e-07 3.82907e-10)
(7.05328e-15 -2.83258e-22 0 -39.6204 1.50035e-06 5.53578e-05 1.82862 -1.2776e-07 4.78031e-10)
(5.64262e-14 2.83258e-22 0 -39.6204 4.12254e-06 5.53673e-05 1.82862 1.69161e-07 -4.72619e-10)
(-9.36835e-15 -1.20371e-35 0 -38.1482 -2.3379e-22 5.04432e-05 1.78674 -5.29396e-23 -6.05956e-10)
(3.71088e-14 5.58397e-22 0 -38.1482 4.26576e-06 5.04316e-05 1.78674 -1.13841e-07 6.14178e-10)
(6.81984e-15 -1.03199e-22 0 -36.7099 -1.25205e-05 4.48057e-05 1.74488 1.26869e-07 7.66044e-10)
(0 1.03199e-22 0 -36.7099 -8.97774e-06 4.48205e-05 1.74488 4.44247e-07 -7.59291e-10)
(1.3415e-14 -5.06009e-22 0 -35.3037 1.64346e-20 3.94453e-05 1.703 0 -9.71069e-10)
(1.77282e-14 0 -3.47203e-20 -35.3037 1.36829e-05 3.94275e-05 1.703 -5.82641e-07 9.7811e-10)
(0 0 0 -33.9282 -1.51148e-05 3.41018e-05 1.66102 8.77321e-07 1.222e-09)
(0 -6.68412e-23 -3.42227e-20 -33.9282 -1.02134e-05 3.41245e-05 1.66102 1.217e-06 -1.2139e-09)
(0 -2.11743e-22 3.37322e-20 -32.5821 5.92929e-21 2.85857e-05 1.61893 0 -1.55087e-09)
(2.59662e-14 0 0 -32.5821 9.66632e-06 2.85578e-05 1.61893 -1.17322e-06 1.56e-09)
(1.2776e-14 0 0 -31.2645 -1.72051e-05 2.26462e-05 1.57668 1.51036e-06 1.95702e-09)
(0 0 0 -31.2645 -1.02754e-05 2.26815e-05 1.57668 1.87448e-06 -1.95123e-09)
(1.48785e-14 -6.1827e-22 0 -29.9746 1.2316e-20 1.69145e-05 1.53428 0 -2.48493e-09)
(2.51498e-14 1.02413e-21 0 -29.9746 1.31606e-05 1.68707e-05 1.53428 -1.84938e-06 2.50219e-09)
(0 0 0 -28.7114 -2.40609e-05 1.06517e-05 1.49169 1.37226e-06 3.13869e-09)
(2.47594e-14 0 0 -28.7114 -1.40741e-05 1.07072e-05 1.49169 2.8111e-06 -3.13201e-09)
(-6.09525e-15 0 0 -27.4746 3.38813e-21 4.92547e-06 1.4489 -4.23516e-22 -3.99429e-09)
(-2.4381e-14 0 0 -27.4746 1.92123e-05 4.85657e-06 1.4489 -2.839e-06 4.01054e-09)
(-1.42306e-14 1.10914e-19 3.00927e-36 -26.264 -1.61931e-05 -2.93966e-23 1.40592 4.26809e-07 -8.27181e-25)
(0 0 0 -26.264 -2.29085e-05 -7.61787e-07 1.40592 4.21708e-06 -5.03827e-09)
(-5.91508e-15 0 0 -25.0801 2.71051e-20 -7.62045e-06 1.36277 -4.09789e-51 -6.4308e-09)
(-2.36603e-14 0 0 -25.0801 2.89092e-05 -7.72863e-06 1.36277 -4.47848e-06 6.44073e-09)
(0 1.65623e-34 3.049e-20 -23.9249 0 -1.45596e-05 1.31956 8.47033e-22 8.13786e-09)
(0 0 0 -23.9249 -3.199e-05 -1.44238e-05 1.31956 6.38226e-06 -8.11369e-09)
(0 -1.02313e-21 3.0053e-20 -22.8009 6.77626e-21 -2.08868e-05 1.27641 0 -1.03493e-08)
(4.59755e-14 0 0 -22.8009 3.44086e-05 -2.10564e-05 1.27641 -6.90199e-06 1.03585e-08)
(-5.66729e-15 0 0 -21.7124 0 -2.79605e-05 1.23356 3.36309e-37 1.31151e-08)
(2.26691e-14 0 0 -21.7124 -3.22625e-05 -2.77467e-05 1.23356 9.21895e-06 -1.30848e-08)
(0 -1.42756e-21 -2.91977e-20 -20.665 5.42101e-20 -3.399e-05 1.19134 0 -1.6699e-08)
(-3.00159e-14 -3.64971e-21 0 -20.665 3.54325e-05 -3.4258e-05 1.19134 -9.77894e-06 1.67059e-08)
(-7.5443e-15 6.09376e-35 -2.87792e-20 -19.6653 -1.1036e-19 -4.22948e-05 1.15014 -1.69407e-21 2.12052e-08)
(0 1.7987e-21 0 -19.6653 -4.31879e-05 -4.19568e-05 1.15014 1.26513e-05 -2.1166e-08)
(-1.99133e-15 -2.39989e-34 -2.83668e-20 -18.7201 2.1587e-20 -4.75884e-05 1.11047 -1.69407e-21 -2.70302e-08)
(2.17794e-14 -5.31877e-21 0 -18.7201 5.86824e-05 -4.80124e-05 1.11047 -1.39249e-05 2.70316e-08)
(0 -5.44771e-36 2.79602e-20 -17.8359 -9.81372e-21 -5.66799e-05 1.07279 3.38813e-21 3.43704e-08)
(0 0 0 -17.8359 -7.37132e-05 -5.61454e-05 1.07279 1.82465e-05 -3.4318e-08)
(7.22454e-15 -5.96132e-21 2.75594e-20 -17.0177 1.0842e-19 -6.19501e-05 1.03759 0 -4.38452e-08)
(0 6.88986e-21 0 -17.0177 8.83625e-05 -6.26218e-05 1.03759 -2.08842e-05 4.38363e-08)
(-1.04865e-14 -2.25695e-35 0 -16.2687 -4.17031e-20 -7.1766e-05 1.00527 3.38813e-21 5.58305e-08)
(0 0 0 -16.2687 -0.000100535 -7.09177e-05 1.00527 2.69106e-05 -5.5759e-08)
(1.83937e-15 -4.40264e-21 2.67751e-20 -15.5895 1.4502e-19 -7.54418e-05 0.976096 0 -7.13121e-08)
(0 0 0 -15.5895 0.000122397 -7.65107e-05 0.976096 -3.10809e-05 7.12857e-08)