/*--------------------------------*- C++ -*----------------------------------*\
| =========                 |                                                 |
| \\      /  F ield         | OpenFOAM: The Open Source CFD Toolbox           |
|  \\    /   O peration     | Version:  2012                                  |
|   \\  /    A nd           | Website:  www.openfoam.com                      |
|    \\/     M anipulation  |                                                 |
\*---------------------------------------------------------------------------*/
FoamFile
{
    version     2.0;
    format      ascii;
    class       volScalarField;
    location    "10600";
    object      k;
}
// * * * * * * * * * * * * * * * * * * * * * * * * * * * * * * * * * * * * * //

dimensions      [0 2 -2 0 0 0 0];


internalField   nonuniform List<scalar> 
2560
(
0.000413331
0.000413331
0.00740344
0.00740344
0.0528844
0.0528844
0.192969
0.192969
0.486507
0.486507
0.948188
0.948188
1.51743
1.51743
2.11359
2.11359
2.69214
2.69214
3.24004
3.24004
3.75732
3.75732
4.24755
4.24755
4.71468
4.71468
5.16214
5.16214
5.59268
5.59268
6.00846
6.00846
6.41117
6.41117
6.80208
6.80208
7.18218
7.18218
7.55216
7.55216
7.91252
7.91252
8.26357
8.26357
8.60546
8.60546
8.9382
8.9382
9.26167
9.26167
9.57565
9.57565
9.87981
9.87981
10.1737
10.1737
10.4568
10.4568
10.7286
10.7286
10.9883
10.9883
11.2353
11.2353
11.4687
11.4687
11.6877
11.6877
11.8915
11.8915
12.0792
12.0792
12.2499
12.2499
12.4027
12.4027
12.5369
12.5369
12.6515
12.6515
12.746
12.746
12.8196
12.8196
12.8719
12.8719
12.9023
12.9023
12.9107
12.9107
12.897
12.897
12.8612
12.8612
12.8036
12.8036
12.7247
12.7247
12.6253
12.6253
12.5064
12.5064
12.369
12.369
12.2147
12.2147
12.0452
12.0452
11.8623
11.8623
11.6682
11.6682
11.4651
11.4651
11.2555
11.2555
11.042
11.042
10.8272
10.8272
10.6138
10.6138
10.4045
10.4045
10.2018
10.2018
10.0082
10.0082
9.82602
9.82602
9.6572
9.6572
9.50347
9.50347
9.36617
9.36617
9.24625
9.24625
9.14426
9.14426
9.06034
9.06034
8.99423
8.99423
8.94516
8.94516
8.91207
8.91207
8.89359
8.89359
8.8881
8.8881
8.89379
8.89379
8.90873
8.90873
8.93094
8.93094
8.95844
8.95844
8.9893
8.9893
9.02168
9.02168
9.05392
9.05392
9.08447
9.08447
9.112
9.112
9.13533
9.13533
9.15349
9.15349
9.16568
9.16568
9.17129
9.17129
9.16983
9.16983
9.16099
9.16099
9.14457
9.14457
9.12049
9.12049
9.08877
9.08877
9.0495
9.0495
9.00285
9.00285
8.94903
8.94903
8.8883
8.8883
8.82097
8.82097
8.74735
8.74735
8.6678
8.6678
8.58265
8.58265
8.49229
8.49229
8.39707
8.39707
8.29735
8.29735
8.19351
8.19351
8.08589
8.08589
7.97486
7.97486
7.86074
7.86074
7.74386
7.74386
7.62455
7.62455
7.50311
7.50311
7.37983
7.37983
7.25499
7.25499
7.12885
7.12885
7.00167
7.00167
6.87368
6.87368
6.7451
6.7451
6.61615
6.61615
6.48702
6.48702
6.35789
6.35789
6.22893
6.22893
6.1003
6.1003
5.97214
5.97214
5.84457
5.84457
5.71774
5.71774
5.59173
5.59173
5.46666
5.46666
5.34261
5.34261
5.21966
5.21966
5.0979
5.0979
4.97739
4.97739
4.8582
4.8582
4.74037
4.74037
4.62397
4.62397
4.50904
4.50904
4.39562
4.39562
4.28375
4.28375
4.17347
4.17347
4.06481
4.06481
3.95779
3.95779
3.85245
3.85245
3.74879
3.74879
3.64684
3.64684
3.54662
3.54662
3.44813
3.44813
3.35141
3.35141
3.25645
3.25645
3.16328
3.16328
3.07191
3.07191
2.98234
2.98234
2.89459
2.89459
2.80867
2.80867
2.7246
2.7246
2.64238
2.64238
2.56203
2.56203
2.48355
2.48355
2.40697
2.40697
2.33227
2.33227
2.25948
2.25948
2.18859
2.18859
2.11959
2.11959
2.05248
2.05248
1.98724
1.98724
1.92385
1.92385
1.86228
1.86228
1.8025
1.8025
1.74445
1.74445
1.68811
1.68811
1.63341
1.63341
1.58031
1.58031
1.52876
1.52876
1.47871
1.47871
1.43013
1.43013
1.38298
1.38298
1.33722
1.33722
1.29284
1.29284
1.24979
1.24979
1.20807
1.20808
1.16766
1.16766
1.12853
1.12853
1.09066
1.09066
1.05403
1.05403
1.01863
1.01863
0.984416
0.984416
0.951374
0.951374
0.919471
0.919471
0.888682
0.888682
0.858976
0.858976
0.830327
0.830327
0.802711
0.802711
0.776106
0.776106
0.750494
0.750494
0.72586
0.72586
0.702191
0.70219
0.679474
0.679474
0.657702
0.657702
0.636862
0.636862
0.616948
0.616948
0.59795
0.59795
0.579858
0.579858
0.562658
0.562658
0.546337
0.546337
0.530874
0.530874
0.51625
0.51625
0.502437
0.502437
0.489406
0.489406
0.477124
0.477124
0.465557
0.465557
0.45467
0.45467
0.444432
0.444432
0.434814
0.434814
0.425784
0.425784
0.417312
0.417312
0.409364
0.409364
0.401901
0.401901
0.394881
0.394881
0.388254
0.388254
0.381969
0.381969
0.375967
0.375967
0.370186
0.370186
0.364567
0.364567
0.359061
0.359061
0.353633
0.353633
0.348267
0.348267
0.342963
0.342963
0.337727
0.337727
0.33257
0.33257
0.32749
0.32749
0.322476
0.322476
0.317501
0.317501
0.312537
0.312537
0.307558
0.307558
0.302551
0.302551
0.297509
0.297509
0.292436
0.292436
0.287344
0.287344
0.282256
0.282257
0.277209
0.277209
0.272249
0.272249
0.267426
0.267426
0.262783
0.262783
0.258348
0.258348
0.254128
0.254128
0.250109
0.250109
0.246253
0.246253
0.2425
0.2425
0.238768
0.238768
0.234954
0.234954
0.230962
0.230962
0.226734
0.226734
0.222272
0.222272
0.217636
0.217636
0.212928
0.212928
0.208268
0.208268
0.203763
0.203763
0.199481
0.199481
0.195447
0.195447
0.191655
0.191655
0.188083
0.188083
0.184723
0.184723
0.181596
0.181596
0.17874
0.17874
0.176195
0.176195
0.173973
0.173973
0.172057
0.172057
0.170407
0.170407
0.168985
0.168985
0.167761
0.167761
0.166724
0.166724
0.16588
0.16588
0.165254
0.165254
0.164881
0.164881
0.164796
0.164797
0.165013
0.165013
0.16552
0.16552
0.166274
0.166274
0.167208
0.167208
0.168227
0.168227
0.169228
0.169228
0.170126
0.170126
0.170841
0.170841
0.171269
0.171269
0.171257
0.171257
0.170633
0.170633
0.169271
0.169271
0.167145
0.167145
0.164317
0.164317
0.160913
0.160913
0.157131
0.157131
0.153244
0.153244
0.14949
0.14949
0.145966
0.145966
0.14265
0.14265
0.139536
0.139536
0.136655
0.136655
0.134006
0.134006
0.131541
0.131541
0.129226
0.129226
0.127067
0.127067
0.125102
0.125102
0.123371
0.123372
0.121878
0.121878
0.120602
0.120603
0.119504
0.119504
0.118476
0.118476
0.117335
0.117335
0.115907
0.115907
0.114135
0.114135
0.11212
0.112121
0.110038
0.110038
0.10802
0.10802
0.106134
0.106134
0.104425
0.104425
0.102939
0.102939
0.101688
0.101689
0.100679
0.100679
0.0999169
0.0999173
0.0993869
0.0993874
0.0991011
0.0991017
0.000413331
0.000413331
0.00740344
0.00740344
0.0528844
0.0528844
0.192969
0.192969
0.486507
0.486507
0.948188
0.948188
1.51743
1.51743
2.11359
2.11359
2.69214
2.69214
3.24004
3.24004
3.75732
3.75732
4.24755
4.24755
4.71468
4.71468
5.16214
5.16214
5.59268
5.59268
6.00846
6.00846
6.41117
6.41117
6.80208
6.80208
7.18218
7.18218
7.55216
7.55216
7.91252
7.91252
8.26357
8.26357
8.60546
8.60546
8.9382
8.9382
9.26167
9.26167
9.57566
9.57566
9.87981
9.87981
10.1737
10.1737
10.4568
10.4568
10.7286
10.7286
10.9883
10.9883
11.2353
11.2353
11.4687
11.4687
11.6877
11.6877
11.8915
11.8915
12.0792
12.0792
12.2499
12.2499
12.4027
12.4027
12.5369
12.5369
12.6515
12.6515
12.746
12.746
12.8196
12.8196
12.8719
12.8719
12.9023
12.9023
12.9107
12.9107
12.897
12.897
12.8612
12.8612
12.8036
12.8036
12.7247
12.7247
12.6253
12.6253
12.5064
12.5064
12.369
12.369
12.2147
12.2147
12.0452
12.0452
11.8623
11.8623
11.6682
11.6682
11.4651
11.4651
11.2555
11.2555
11.042
11.042
10.8272
10.8272
10.6138
10.6138
10.4045
10.4045
10.2018
10.2018
10.0082
10.0082
9.82602
9.82602
9.65721
9.65721
9.50347
9.50347
9.36617
9.36617
9.24625
9.24625
9.14426
9.14426
9.06034
9.06034
8.99423
8.99423
8.94516
8.94516
8.91207
8.91207
8.89359
8.89359
8.8881
8.8881
8.89379
8.89379
8.90873
8.90873
8.93094
8.93094
8.95844
8.95844
8.98929
8.98929
9.02168
9.02168
9.05392
9.05392
9.08447
9.08447
9.112
9.112
9.13533
9.13533
9.15349
9.15349
9.16568
9.16568
9.17128
9.17128
9.16982
9.16982
9.16098
9.16098
9.14457
9.14457
9.12049
9.12049
9.08877
9.08877
9.0495
9.0495
9.00285
9.00285
8.94903
8.94903
8.8883
8.8883
8.82097
8.82097
8.74735
8.74735
8.66779
8.66779
8.58265
8.58265
8.49229
8.49229
8.39706
8.39706
8.29735
8.29735
8.19351
8.19351
8.08589
8.08589
7.97485
7.97485
7.86073
7.86073
7.74386
7.74386
7.62455
7.62455
7.50311
7.50311
7.37983
7.37983
7.25499
7.25499
7.12885
7.12885
7.00167
7.00167
6.87368
6.87368
6.7451
6.7451
6.61615
6.61615
6.48702
6.48702
6.35789
6.35789
6.22893
6.22893
6.1003
6.1003
5.97213
5.97213
5.84457
5.84457
5.71773
5.71773
5.59173
5.59173
5.46665
5.46665
5.3426
5.3426
5.21966
5.21966
5.0979
5.0979
4.97739
4.97739
4.85819
4.85819
4.74037
4.74037
4.62397
4.62397
4.50903
4.50903
4.39562
4.39562
4.28375
4.28375
4.17347
4.17347
4.06481
4.06481
3.95779
3.95779
3.85244
3.85244
3.74879
3.74879
3.64684
3.64684
3.54661
3.54661
3.44813
3.44813
3.35141
3.35141
3.25645
3.25645
3.16328
3.16328
3.07191
3.07191
2.98234
2.98234
2.89459
2.89459
2.80867
2.80867
2.7246
2.7246
2.64238
2.64238
2.56203
2.56203
2.48355
2.48355
2.40697
2.40697
2.33227
2.33227
2.25948
2.25948
2.18859
2.18859
2.11959
2.11959
2.05248
2.05248
1.98724
1.98724
1.92385
1.92385
1.86228
1.86228
1.8025
1.8025
1.74445
1.74445
1.68811
1.68811
1.63341
1.63341
1.58031
1.58031
1.52876
1.52876
1.47871
1.47871
1.43013
1.43013
1.38298
1.38298
1.33722
1.33722
1.29284
1.29284
1.24979
1.24979
1.20807
1.20807
1.16766
1.16766
1.12853
1.12853
1.09066
1.09066
1.05403
1.05403
1.01863
1.01863
0.984416
0.984416
0.951373
0.951373
0.919471
0.919471
0.888681
0.888681
0.858976
0.858976
0.830327
0.830327
0.80271
0.80271
0.776105
0.776105
0.750493
0.750493
0.725859
0.725859
0.70219
0.70219
0.679474
0.679474
0.657701
0.657701
0.636862
0.636862
0.616947
0.616947
0.597949
0.597949
0.579857
0.579857
0.562657
0.562657
0.546335
0.546335
0.530873
0.530873
0.516248
0.516248
0.502435
0.502435
0.489404
0.489404
0.477122
0.477122
0.465554
0.465554
0.454668
0.454668
0.44443
0.44443
0.434811
0.434811
0.425781
0.425781
0.417309
0.417309
0.409361
0.409361
0.401898
0.401898
0.394877
0.394877
0.388251
0.388251
0.381966
0.381966
0.375963
0.375963
0.370182
0.370182
0.364563
0.364564
0.359057
0.359057
0.35363
0.35363
0.348264
0.348264
0.342959
0.342959
0.337724
0.337724
0.332567
0.332567
0.327487
0.327487
0.322473
0.322473
0.317498
0.317498
0.312534
0.312534
0.307556
0.307556
0.302549
0.302549
0.297507
0.297507
0.292434
0.292434
0.287342
0.287342
0.282255
0.282255
0.277207
0.277207
0.272247
0.272247
0.267424
0.267424
0.262781
0.262781
0.258346
0.258346
0.254127
0.254127
0.250107
0.250107
0.246251
0.246251
0.242499
0.242499
0.238767
0.238767
0.234954
0.234954
0.230962
0.230962
0.226734
0.226734
0.222273
0.222273
0.217637
0.217637
0.212929
0.21293
0.20827
0.20827
0.203765
0.203765
0.199483
0.199483
0.19545
0.19545
0.191657
0.191657
0.188085
0.188085
0.184725
0.184725
0.181597
0.181597
0.178741
0.178741
0.176195
0.176195
0.173973
0.173973
0.172057
0.172057
0.170407
0.170407
0.168984
0.168984
0.16776
0.16776
0.166723
0.166723
0.165879
0.165879
0.165252
0.165252
0.164879
0.164879
0.164793
0.164793
0.165008
0.165008
0.165513
0.165513
0.166267
0.166267
0.1672
0.1672
0.168218
0.168218
0.169219
0.169219
0.170117
0.170117
0.170833
0.170833
0.171262
0.171262
0.171252
0.171252
0.17063
0.17063
0.169271
0.169271
0.167147
0.167148
0.164322
0.164322
0.160919
0.160919
0.157138
0.157138
0.15325
0.15325
0.149494
0.149494
0.145969
0.145969
0.142653
0.142653
0.139538
0.139538
0.136656
0.136656
0.134006
0.134006
0.131542
0.131542
0.129226
0.129226
0.127066
0.127066
0.125101
0.125101
0.123369
0.123369
0.121874
0.121875
0.120598
0.120598
0.119499
0.119499
0.11847
0.11847
0.11733
0.11733
0.115905
0.115905
0.114136
0.114136
0.112122
0.112123
0.11004
0.110041
0.108023
0.108023
0.106136
0.106136
0.104427
0.104427
0.10294
0.10294
0.101689
0.101689
0.100679
0.100679
0.0999164
0.0999162
0.0993863
0.0993859
0.0991004
0.0991001
0.0990936
0.0990942
0.0993645
0.099365
0.099879
0.0998795
0.100621
0.100622
0.10161
0.101611
0.102841
0.102842
0.104309
0.104309
0.105999
0.105999
0.107861
0.107861
0.109841
0.109841
0.111884
0.111884
0.113867
0.113867
0.115616
0.115616
0.117035
0.117035
0.118192
0.118192
0.119255
0.119255
0.120392
0.120392
0.121704
0.121704
0.123233
0.123233
0.124998
0.124998
0.126994
0.126994
0.129181
0.129181
0.13152
0.13152
0.134008
0.134008
0.136684
0.136684
0.139592
0.139592
0.142731
0.142731
0.146072
0.146072
0.149622
0.149622
0.153402
0.153402
0.157322
0.157322
0.161133
0.161133
0.164551
0.164551
0.167373
0.167373
0.169473
0.169473
0.170792
0.170792
0.171379
0.171379
0.171369
0.171369
0.170932
0.170932
0.170215
0.170215
0.169317
0.169317
0.168316
0.168316
0.167298
0.167298
0.166362
0.166362
0.165605
0.165605
0.165097
0.165097
0.164878
0.164878
0.164961
0.164961
0.16533
0.16533
0.165952
0.165952
0.166788
0.166788
0.167815
0.167815
0.169031
0.169031
0.170447
0.170447
0.172085
0.172085
0.173989
0.173989
0.176199
0.176199
0.178732
0.178732
0.181576
0.181576
0.184695
0.184695
0.188049
0.188049
0.191612
0.191612
0.195392
0.195392
0.199411
0.199411
0.203675
0.203675
0.208161
0.208161
0.212806
0.212806
0.217506
0.217506
0.222134
0.222134
0.226581
0.226581
0.230789
0.230789
0.234766
0.234766
0.238577
0.238577
0.242314
0.242314
0.246081
0.246081
0.24996
0.24996
0.254006
0.254006
0.258249
0.258249
0.262699
0.262699
0.267347
0.267347
0.272167
0.272167
0.27712
0.27712
0.282159
0.282159
0.287241
0.287241
0.292327
0.292327
0.297394
0.297394
0.302434
0.302434
0.307445
0.307445
0.312426
0.312426
0.317394
0.317394
0.32238
0.32238
0.327411
0.327411
0.33251
0.33251
0.337693
0.337693
0.342957
0.342957
0.348283
0.348283
0.353662
0.353662
0.359101
0.359101
0.364614
0.364614
0.370237
0.370237
0.376025
0.376025
0.382036
0.382036
0.388328
0.388328
0.394957
0.394957
0.401976
0.401976
0.40943
0.40943
0.417368
0.417368
0.42583
0.42583
0.434848
0.434849
0.444458
0.444458
0.45469
0.45469
0.465575
0.465575
0.477143
0.477143
0.489427
0.489427
0.502461
0.502461
0.516276
0.516276
0.530905
0.530905
0.546373
0.546373
0.5627
0.5627
0.579904
0.579904
0.598
0.598
0.616999
0.616999
0.636914
0.636914
0.657755
0.657756
0.679532
0.679532
0.702251
0.702251
0.725921
0.725921
0.750556
0.750556
0.776171
0.776171
0.80278
0.80278
0.830401
0.830401
0.859054
0.859054
0.88876
0.88876
0.919549
0.919549
0.95145
0.95145
0.984491
0.984491
1.0187
1.0187
1.05411
1.05411
1.09073
1.09073
1.12861
1.12861
1.16774
1.16774
1.20816
1.20816
1.24988
1.24988
1.29293
1.29293
1.33732
1.33732
1.38308
1.38308
1.43024
1.43024
1.47882
1.47882
1.52886
1.52886
1.58042
1.58042
1.63353
1.63353
1.68824
1.68824
1.74459
1.74459
1.80265
1.80265
1.86244
1.86244
1.92402
1.92402
1.98741
1.98741
2.05266
2.05266
2.11977
2.11977
2.18877
2.18877
2.25967
2.25967
2.33246
2.33246
2.40716
2.40716
2.48375
2.48375
2.56223
2.56223
2.64259
2.64259
2.72481
2.72481
2.80889
2.80889
2.89482
2.89482
2.98257
2.98257
3.07215
3.07215
3.16353
3.16353
3.25671
3.25671
3.35168
3.35168
3.44841
3.44841
3.54691
3.54691
3.64715
3.64715
3.74912
3.74912
3.85281
3.85281
3.95818
3.95818
4.06523
4.06523
4.17393
4.17393
4.28424
4.28424
4.39615
4.39615
4.5096
4.5096
4.62456
4.62456
4.74098
4.74098
4.85883
4.85883
4.97805
4.97805
5.09859
5.09859
5.22038
5.22038
5.34337
5.34337
5.46747
5.46747
5.59258
5.59258
5.71862
5.71862
5.84548
5.84548
5.97307
5.97307
6.10124
6.10124
6.22987
6.22987
6.35884
6.35884
6.48796
6.48796
6.61707
6.61707
6.74599
6.74599
6.87452
6.87452
7.00242
7.00242
7.12952
7.12952
7.2556
7.2556
7.38041
7.38041
7.50368
7.50368
7.62513
7.62513
7.74443
7.74443
7.86132
7.86132
7.97545
7.97545
8.0865
8.0865
8.19414
8.19414
8.298
8.298
8.39767
8.39767
8.49286
8.49286
8.58324
8.58324
8.66841
8.66841
8.74799
8.74799
8.82168
8.82168
8.88912
8.88912
8.94994
8.94994
9.00383
9.00383
9.05053
9.05053
9.08977
9.08977
9.12136
9.12136
9.14518
9.14518
9.16121
9.16121
9.16967
9.16967
9.17087
9.17087
9.16515
9.16515
9.1529
9.1529
9.13465
9.13465
9.11121
9.11121
9.08354
9.08354
9.05276
9.05276
9.0203
9.0203
8.98768
8.98768
8.9566
8.9566
8.92893
8.92893
8.90661
8.90661
8.89159
8.89159
8.88587
8.88587
8.89138
8.89138
8.90987
8.90987
8.94295
8.94295
8.99199
8.99199
9.05808
9.05808
9.14196
9.14196
9.24391
9.24391
9.3638
9.3638
9.50107
9.50107
9.65478
9.65478
9.82357
9.82357
10.0058
10.0058
10.1993
10.1993
10.402
10.402
10.6112
10.6112
10.8245
10.8245
11.0393
11.0393
11.2529
11.2529
11.4626
11.4626
11.6658
11.6658
11.8601
11.8601
12.0432
12.0432
12.213
12.213
12.3676
12.3676
12.5052
12.5052
12.6243
12.6243
12.7238
12.7238
12.803
12.803
12.8609
12.8609
12.8969
12.8969
12.9109
12.9109
12.9027
12.9027
12.8724
12.8724
12.8203
12.8203
12.7469
12.7469
12.6526
12.6526
12.538
12.538
12.4038
12.4038
12.251
12.251
12.0803
12.0803
11.8926
11.8926
11.6888
11.6888
11.4698
11.4698
11.2363
11.2363
10.9893
10.9893
10.7295
10.7295
10.4577
10.4577
10.1746
10.1746
9.88073
9.88073
9.57659
9.57659
9.26261
9.26261
8.93911
8.93911
8.60633
8.60633
8.26439
8.26439
7.91328
7.91328
7.55286
7.55286
7.18283
7.18283
6.80269
6.80269
6.41173
6.41173
6.00898
6.00898
5.59316
5.59316
5.16259
5.16259
4.7151
4.7151
4.24792
4.24792
3.75766
3.75766
3.24035
3.24035
2.6924
2.6924
2.11381
2.11381
1.51761
1.51761
0.948311
0.948311
0.486576
0.486576
0.192997
0.192997
0.0528921
0.0528921
0.00740449
0.00740449
0.000413376
0.000413376
0.0990929
0.0990925
0.0993638
0.0993635
0.0998786
0.0998783
0.100621
0.100621
0.101611
0.101611
0.102842
0.102842
0.10431
0.10431
0.106001
0.106001
0.107864
0.107864
0.109844
0.109844
0.111886
0.111886
0.113867
0.113867
0.115614
0.115614
0.117031
0.117031
0.118186
0.118186
0.11925
0.11925
0.120388
0.120388
0.121701
0.121701
0.123231
0.123231
0.124997
0.124997
0.126994
0.126994
0.129181
0.129181
0.131521
0.131521
0.134009
0.134009
0.136685
0.136685
0.139593
0.139594
0.142733
0.142733
0.146075
0.146075
0.149626
0.149627
0.153408
0.153408
0.157329
0.157329
0.16114
0.16114
0.164556
0.164556
0.167376
0.167376
0.169473
0.169473
0.170789
0.170789
0.171374
0.171374
0.171362
0.171362
0.170923
0.170923
0.170206
0.170206
0.169308
0.169308
0.168307
0.168307
0.16729
0.16729
0.166355
0.166355
0.165599
0.165599
0.165092
0.165092
0.164875
0.164875
0.164959
0.164959
0.165329
0.165329
0.16595
0.165951
0.166787
0.166787
0.167815
0.167815
0.169031
0.169031
0.170446
0.170446
0.172085
0.172085
0.173989
0.173989
0.176199
0.176199
0.178733
0.178733
0.181578
0.181578
0.184697
0.184697
0.188051
0.188051
0.191614
0.191614
0.195394
0.195394
0.199413
0.199413
0.203677
0.203677
0.208163
0.208163
0.212808
0.212808
0.217507
0.217507
0.222135
0.222135
0.226582
0.226582
0.230789
0.230789
0.234766
0.234766
0.238576
0.238576
0.242313
0.242313
0.246079
0.246079
0.249958
0.249958
0.254004
0.254004
0.258247
0.258247
0.262698
0.262698
0.267345
0.267345
0.272165
0.272165
0.277119
0.277119
0.282158
0.282158
0.287239
0.287239
0.292325
0.292325
0.297391
0.297391
0.302431
0.302431
0.307443
0.307443
0.312423
0.312424
0.317392
0.317392
0.322377
0.322377
0.327408
0.327408
0.332506
0.332506
0.33769
0.33769
0.342954
0.342954
0.348279
0.348279
0.353659
0.353659
0.359097
0.359097
0.36461
0.36461
0.370234
0.370234
0.376022
0.376022
0.382033
0.382033
0.388324
0.388324
0.394953
0.394953
0.401972
0.401972
0.409427
0.409427
0.417365
0.417365
0.425827
0.425827
0.434846
0.434846
0.444455
0.444455
0.454687
0.454687
0.465572
0.465572
0.477141
0.477141
0.489425
0.489425
0.502459
0.502459
0.516275
0.516275
0.530904
0.530904
0.546371
0.546371
0.562698
0.562698
0.579903
0.579903
0.597999
0.597999
0.616998
0.616998
0.636913
0.636913
0.657755
0.657755
0.679532
0.679532
0.70225
0.70225
0.725921
0.725921
0.750556
0.750556
0.77617
0.77617
0.802779
0.802779
0.830401
0.830401
0.859053
0.859053
0.88876
0.88876
0.919548
0.919548
0.951449
0.951449
0.984491
0.984491
1.0187
1.0187
1.05411
1.05411
1.09073
1.09073
1.12861
1.12861
1.16774
1.16774
1.20816
1.20816
1.24988
1.24988
1.29293
1.29293
1.33732
1.33732
1.38308
1.38308
1.43024
1.43024
1.47882
1.47882
1.52886
1.52886
1.58042
1.58042
1.63353
1.63353
1.68824
1.68824
1.74459
1.74459
1.80265
1.80265
1.86244
1.86244
1.92402
1.92402
1.98741
1.98741
2.05266
2.05266
2.11977
2.11977
2.18877
2.18877
2.25967
2.25967
2.33246
2.33246
2.40716
2.40716
2.48375
2.48375
2.56223
2.56223
2.64259
2.64259
2.72481
2.72481
2.80889
2.80889
2.89482
2.89482
2.98257
2.98257
3.07215
3.07215
3.16353
3.16353
3.25671
3.25671
3.35168
3.35168
3.44841
3.44841
3.54691
3.54691
3.64715
3.64715
3.74912
3.74912
3.8528
3.8528
3.95818
3.95818
4.06523
4.06523
4.17392
4.17392
4.28424
4.28424
4.39615
4.39615
4.5096
4.5096
4.62455
4.62455
4.74098
4.74098
4.85883
4.85883
4.97805
4.97805
5.09858
5.09858
5.22038
5.22038
5.34337
5.34337
5.46747
5.46747
5.59258
5.59258
5.71862
5.71862
5.84548
5.84548
5.97307
5.97307
6.10123
6.10123
6.22987
6.22987
6.35884
6.35884
6.48796
6.48796
6.61706
6.61706
6.74599
6.74599
6.87451
6.87451
7.00242
7.00242
7.12952
7.12952
7.2556
7.2556
7.3804
7.3804
7.50368
7.50368
7.62513
7.62513
7.74443
7.74443
7.86132
7.86132
7.97545
7.97545
8.0865
8.0865
8.19414
8.19414
8.298
8.298
8.39767
8.39767
8.49286
8.49286
8.58324
8.58324
8.66841
8.66841
8.74799
8.74799
8.82168
8.82168
8.88912
8.88912
8.94994
8.94994
9.00383
9.00383
9.05053
9.05053
9.08977
9.08977
9.12136
9.12136
9.14518
9.14518
9.16121
9.16121
9.16967
9.16967
9.17086
9.17086
9.16515
9.16515
9.1529
9.1529
9.13465
9.13465
9.11121
9.11121
9.08353
9.08353
9.05276
9.05276
9.02029
9.02029
8.98768
8.98768
8.9566
8.9566
8.92893
8.92893
8.90661
8.90661
8.89159
8.89159
8.88587
8.88587
8.89138
8.89138
8.90987
8.90987
8.94295
8.94295
8.99199
8.99199
9.05808
9.05808
9.14196
9.14196
9.24392
9.24392
9.36381
9.36381
9.50108
9.50108
9.65478
9.65478
9.82358
9.82358
10.0058
10.0058
10.1993
10.1993
10.402
10.402
10.6112
10.6112
10.8245
10.8245
11.0393
11.0393
11.2529
11.2529
11.4626
11.4626
11.6658
11.6658
11.8601
11.8601
12.0432
12.0432
12.213
12.213
12.3676
12.3676
12.5052
12.5052
12.6243
12.6243
12.7238
12.7238
12.803
12.803
12.8609
12.8609
12.8969
12.8969
12.9109
12.9109
12.9027
12.9027
12.8724
12.8724
12.8204
12.8204
12.7469
12.7469
12.6526
12.6526
12.538
12.538
12.4038
12.4038
12.251
12.251
12.0803
12.0803
11.8926
11.8926
11.6888
11.6888
11.4698
11.4698
11.2363
11.2363
10.9893
10.9893
10.7295
10.7295
10.4577
10.4577
10.1746
10.1746
9.88073
9.88073
9.57659
9.57659
9.26261
9.26261
8.93911
8.93911
8.60633
8.60633
8.26439
8.26439
7.91328
7.91328
7.55286
7.55286
7.18283
7.18283
6.80269
6.80269
6.41173
6.41173
6.00898
6.00898
5.59316
5.59316
5.16259
5.16259
4.7151
4.7151
4.24792
4.24792
3.75766
3.75766
3.24035
3.24035
2.6924
2.6924
2.11381
2.11381
1.51761
1.51761
0.948311
0.948311
0.486576
0.486575
0.192997
0.192997
0.0528921
0.0528921
0.00740449
0.00740449
0.000413376
0.000413376
)
;

boundaryField
{
    walls
    {
        type            kqRWallFunction;
        value           nonuniform List<scalar> 8(0.000413331 0.000413331 0.000413331 0.000413331 0.000413376 0.000413376 0.000413376 0.000413376);
    }
    inlet
    {
        type            cyclic;
    }
    outlet
    {
        type            cyclic;
    }
    sides
    {
        type            empty;
    }
}


// ************************************************************************* //
