/*--------------------------------*- C++ -*----------------------------------*\
| =========                 |                                                 |
| \\      /  F ield         | OpenFOAM: The Open Source CFD Toolbox           |
|  \\    /   O peration     | Version:  2106                                  |
|   \\  /    A nd           | Website:  www.openfoam.com                      |
|    \\/     M anipulation  |                                                 |
\*---------------------------------------------------------------------------*/
FoamFile
{
    version     2.0;
    format      ascii;
    arch        "LSB;label=32;scalar=64";
    class       volSymmTensorField;
    location    "8000";
    object      turbulenceProperties:R;
}
// * * * * * * * * * * * * * * * * * * * * * * * * * * * * * * * * * * * * * //

dimensions      [0 2 -2 0 0 0 0];

internalField   nonuniform List<symmTensor> 
2560
(
(5.68446e-06 -1.55053e-08 -2.24456e-11 5.68446e-06 6.9606e-25 5.68446e-06)
(5.68446e-06 -1.55053e-08 -2.24456e-11 5.68446e-06 1.63772e-26 5.68446e-06)
(2.50602e-06 -3.92657e-08 -1.71369e-10 2.50602e-06 -1.03202e-23 2.50602e-06)
(2.50602e-06 -3.92657e-08 -1.71369e-10 2.50602e-06 5.45218e-26 2.50602e-06)
(1.22885e-05 -5.657e-07 -3.39369e-09 1.22885e-05 -7.93295e-23 1.22885e-05)
(1.22885e-05 -5.657e-07 -3.39369e-09 1.22885e-05 8.3029e-25 1.22885e-05)
(4.43134e-05 -4.26146e-06 -2.58849e-08 4.43134e-05 -3.83344e-22 4.43134e-05)
(4.43134e-05 -4.26146e-06 -2.58849e-08 4.43134e-05 7.99095e-24 4.43134e-05)
(0.000114378 -1.86947e-05 -1.14622e-07 0.000114378 -1.44162e-21 0.000114378)
(0.000114378 -1.86947e-05 -1.14622e-07 0.000114378 3.65119e-23 0.000114378)
(0.0002375 -5.69337e-05 -3.50839e-07 0.0002375 4.32916e-23 0.0002375)
(0.0002375 -5.69337e-05 -3.50839e-07 0.0002375 1.10456e-22 0.0002375)
(0.000420908 -0.000131805 -8.13391e-07 0.000420908 1.53368e-20 0.000420908)
(0.000420908 -0.000131805 -8.13391e-07 0.000420908 2.41758e-22 0.000420908)
(0.000657758 -0.000245647 -1.5172e-06 0.000657758 5.87769e-20 0.000657758)
(0.000657758 -0.000245647 -1.5172e-06 0.000657758 4.18164e-22 0.000657758)
(0.000928031 -0.000386439 -2.39537e-06 0.000928031 1.32189e-19 0.000928031)
(0.000928031 -0.000386439 -2.39537e-06 0.000928031 6.22226e-22 0.000928031)
(0.00120733 -0.000535502 -3.34587e-06 0.00120733 2.19894e-19 0.00120733)
(0.00120733 -0.000535502 -3.34587e-06 0.00120733 7.94917e-22 0.00120733)
(0.00147589 -0.000677575 -4.2846e-06 0.00147589 3.00729e-19 0.00147589)
(0.00147589 -0.000677575 -4.2846e-06 0.00147589 9.22301e-22 0.00147589)
(0.00172209 -0.000804623 -5.16386e-06 0.00172209 3.61652e-19 0.00172209)
(0.00172209 -0.000804623 -5.16386e-06 0.00172209 1.02876e-21 0.00172209)
(0.00194129 -0.000914372 -5.96547e-06 0.00194129 3.99737e-19 0.00194129)
(0.00194129 -0.000914372 -5.96547e-06 0.00194129 -4.79071e-22 0.00194129)
(0.00213326 -0.00100765 -6.68837e-06 0.00213326 4.17691e-19 0.00213326)
(0.00213326 -0.00100765 -6.68837e-06 0.00213326 -8.02271e-22 0.00213326)
(0.00230004 -0.00108651 -7.33934e-06 0.00230004 4.20334e-19 0.00230004)
(0.00230004 -0.00108651 -7.33934e-06 0.00230004 -1.10949e-21 0.00230004)
(0.0024445 -0.0011532 -7.92773e-06 0.0024445 4.11917e-19 0.0024445)
(0.0024445 -0.0011532 -7.92773e-06 0.0024445 -1.09847e-21 0.0024445)
(0.00256964 -0.00120982 -8.46302e-06 0.00256964 3.95772e-19 0.00256964)
(0.00256964 -0.00120982 -8.46302e-06 0.00256964 -1.00095e-21 0.00256964)
(0.00267828 -0.00125813 -8.95378e-06 0.00267828 3.74936e-19 0.00267828)
(0.00267828 -0.00125813 -8.95378e-06 0.00267828 -1.11476e-21 0.00267828)
(0.00277286 -0.00129959 -9.40736e-06 0.00277286 3.50265e-19 0.00277286)
(0.00277286 -0.00129959 -9.40736e-06 0.00277286 -1.02079e-21 0.00277286)
(0.0028555 -0.00133537 -9.82993e-06 0.0028555 3.22851e-19 0.0028555)
(0.0028555 -0.00133537 -9.82993e-06 0.0028555 -1.14588e-21 0.0028555)
(0.00292795 -0.00136642 -1.02266e-05 0.00292795 2.94638e-19 0.00292795)
(0.00292795 -0.00136642 -1.02266e-05 0.00292795 -1.6731e-21 0.00292795)
(0.0029917 -0.00139351 -1.06016e-05 0.0029917 2.65794e-19 0.0029917)
(0.0029917 -0.00139351 -1.06016e-05 0.0029917 -1.71974e-21 0.0029917)
(0.00304798 -0.00141724 -1.09584e-05 0.00304798 2.36326e-19 0.00304798)
(0.00304798 -0.00141724 -1.09584e-05 0.00304798 -1.21883e-21 0.00304798)
(0.00309781 -0.00143813 -1.12999e-05 0.00309781 2.06201e-19 0.00309781)
(0.00309781 -0.00143813 -1.12999e-05 0.00309781 -3.84196e-22 0.00309781)
(0.00314206 -0.00145658 -1.16284e-05 0.00314206 1.76926e-19 0.00314206)
(0.00314206 -0.00145658 -1.16284e-05 0.00314206 -2.24335e-21 0.00314206)
(0.00318143 -0.00147292 -1.19461e-05 0.00318143 1.47181e-19 0.00318143)
(0.00318143 -0.00147292 -1.19461e-05 0.00318143 -2.774e-21 0.00318143)
(0.00321655 -0.00148743 -1.22544e-05 0.00321655 1.17368e-19 0.00321655)
(0.00321655 -0.00148743 -1.22544e-05 0.00321655 -3.2424e-21 0.00321655)
(0.00324791 -0.00150035 -1.2555e-05 0.00324791 8.76098e-20 0.00324791)
(0.00324791 -0.00150035 -1.2555e-05 0.00324791 -3.39631e-21 0.00324791)
(0.00327595 -0.00151187 -1.28488e-05 0.00327595 5.77149e-20 0.00327595)
(0.00327595 -0.00151187 -1.28488e-05 0.00327595 -1.66194e-21 0.00327595)
(0.00330105 -0.00152214 -1.31371e-05 0.00330105 2.81065e-20 0.00330105)
(0.00330105 -0.00152214 -1.31371e-05 0.00330105 3.98303e-22 0.00330105)
(0.00332351 -0.00153132 -1.34205e-05 0.00332351 -1.65851e-21 0.00332351)
(0.00332351 -0.00153132 -1.34205e-05 0.00332351 3.52819e-22 0.00332351)
(0.00334362 -0.0015395 -1.37e-05 0.00334362 -3.09142e-20 0.00334362)
(0.00334362 -0.0015395 -1.37e-05 0.00334362 -2.01162e-21 0.00334362)
(0.0033616 -0.00154681 -1.3976e-05 0.0033616 -6.12952e-20 0.0033616)
(0.0033616 -0.00154681 -1.3976e-05 0.0033616 -2.90967e-21 0.0033616)
(0.00337767 -0.00155332 -1.42493e-05 0.00337767 -9.15037e-20 0.00337767)
(0.00337767 -0.00155332 -1.42493e-05 0.00337767 -2.93667e-21 0.00337767)
(0.00339199 -0.00155911 -1.45202e-05 0.00339199 -1.21537e-19 0.00339199)
(0.00339199 -0.00155911 -1.45202e-05 0.00339199 -6.81412e-22 0.00339199)
(0.00340474 -0.00156424 -1.47892e-05 0.00340474 -1.51382e-19 0.00340474)
(0.00340474 -0.00156424 -1.47892e-05 0.00340474 2.54493e-21 0.00340474)
(0.00341603 -0.00156878 -1.50567e-05 0.00341603 -1.81266e-19 0.00341603)
(0.00341603 -0.00156878 -1.50567e-05 0.00341603 1.51942e-21 0.00341603)
(0.003426 -0.00157277 -1.53229e-05 0.003426 -2.10618e-19 0.003426)
(0.003426 -0.00157277 -1.53229e-05 0.003426 -6.44258e-22 0.003426)
(0.00343475 -0.00157625 -1.55883e-05 0.00343475 -2.41118e-19 0.00343475)
(0.00343475 -0.00157625 -1.55883e-05 0.00343475 -4.74529e-22 0.00343475)
(0.00344237 -0.00157926 -1.5853e-05 0.00344237 -2.72064e-19 0.00344237)
(0.00344237 -0.00157926 -1.5853e-05 0.00344237 -1.0866e-21 0.00344237)
(0.00344896 -0.00158185 -1.61173e-05 0.00344896 -3.01757e-19 0.00344896)
(0.00344896 -0.00158185 -1.61173e-05 0.00344896 -4.85567e-22 0.00344896)
(0.00345458 -0.00158403 -1.63814e-05 0.00345458 -3.31863e-19 0.00345458)
(0.00345458 -0.00158403 -1.63814e-05 0.00345458 7.51719e-22 0.00345458)
(0.0034593 -0.00158584 -1.66455e-05 0.0034593 -3.63886e-19 0.0034593)
(0.0034593 -0.00158584 -1.66455e-05 0.0034593 3.36044e-21 0.0034593)
(0.00346318 -0.0015873 -1.69097e-05 0.00346318 -3.93492e-19 0.00346318)
(0.00346318 -0.0015873 -1.69097e-05 0.00346318 3.99265e-21 0.00346318)
(0.00346628 -0.00158844 -1.71742e-05 0.00346628 -4.24156e-19 0.00346628)
(0.00346628 -0.00158844 -1.71742e-05 0.00346628 3.43114e-21 0.00346628)
(0.00346865 -0.00158927 -1.74391e-05 0.00346865 -4.56166e-19 0.00346865)
(0.00346865 -0.00158927 -1.74391e-05 0.00346865 1.75545e-22 0.00346865)
(0.00347034 -0.00158981 -1.77046e-05 0.00347034 -4.87084e-19 0.00347034)
(0.00347034 -0.00158981 -1.77046e-05 0.00347034 -5.01072e-21 0.00347034)
(0.00347137 -0.00159008 -1.79708e-05 0.00347137 -5.20682e-19 0.00347137)
(0.00347137 -0.00159008 -1.79708e-05 0.00347137 -1.41964e-21 0.00347137)
(0.0034718 -0.00159009 -1.82377e-05 0.0034718 -5.54135e-19 0.0034718)
(0.0034718 -0.00159009 -1.82377e-05 0.0034718 5.86461e-22 0.0034718)
(0.00347165 -0.00158986 -1.85055e-05 0.00347165 -5.85391e-19 0.00347165)
(0.00347165 -0.00158986 -1.85055e-05 0.00347165 -2.58389e-21 0.00347165)
(0.00347096 -0.0015894 -1.87743e-05 0.00347096 -6.16135e-19 0.00347096)
(0.00347096 -0.0015894 -1.87743e-05 0.00347096 -5.42522e-22 0.00347096)
(0.00346975 -0.00158872 -1.90441e-05 0.00346975 -6.48824e-19 0.00346975)
(0.00346975 -0.00158872 -1.90441e-05 0.00346975 1.89448e-21 0.00346975)
(0.00346805 -0.00158784 -1.93149e-05 0.00346805 -6.81967e-19 0.00346805)
(0.00346805 -0.00158784 -1.93149e-05 0.00346805 -5.69079e-22 0.00346805)
(0.00346588 -0.00158675 -1.9587e-05 0.00346588 -7.15924e-19 0.00346588)
(0.00346588 -0.00158675 -1.9587e-05 0.00346588 -1.10817e-20 0.00346588)
(0.00346328 -0.00158547 -1.98603e-05 0.00346328 -7.49813e-19 0.00346328)
(0.00346328 -0.00158547 -1.98603e-05 0.00346328 -1.19548e-20 0.00346328)
(0.00346025 -0.00158401 -2.01349e-05 0.00346025 -7.87885e-19 0.00346025)
(0.00346025 -0.00158401 -2.01349e-05 0.00346025 -4.33594e-21 0.00346025)
(0.00345681 -0.00158238 -2.04109e-05 0.00345681 -8.25358e-19 0.00345681)
(0.00345681 -0.00158238 -2.04109e-05 0.00345681 6.0079e-21 0.00345681)
(0.003453 -0.00158059 -2.06882e-05 0.003453 -8.60627e-19 0.003453)
(0.003453 -0.00158059 -2.06882e-05 0.003453 2.43661e-21 0.003453)
(0.00344881 -0.00157863 -2.0967e-05 0.00344881 -8.99777e-19 0.00344881)
(0.00344881 -0.00157863 -2.0967e-05 0.00344881 -1.44647e-20 0.00344881)
(0.00344427 -0.00157652 -2.12473e-05 0.00344427 -9.3765e-19 0.00344427)
(0.00344427 -0.00157652 -2.12473e-05 0.00344427 -1.10549e-20 0.00344427)
(0.00343939 -0.00157426 -2.15292e-05 0.00343939 -9.73474e-19 0.00343939)
(0.00343939 -0.00157426 -2.15292e-05 0.00343939 -9.62815e-22 0.00343939)
(0.00343419 -0.00157186 -2.18126e-05 0.00343419 -1.01334e-18 0.00343419)
(0.00343419 -0.00157186 -2.18126e-05 0.00343419 8.46902e-21 0.00343419)
(0.00342868 -0.00156933 -2.20976e-05 0.00342868 -1.0547e-18 0.00342868)
(0.00342868 -0.00156933 -2.20976e-05 0.00342868 4.12215e-21 0.00342868)
(0.00342286 -0.00156666 -2.23843e-05 0.00342286 -1.09118e-18 0.00342286)
(0.00342286 -0.00156666 -2.23843e-05 0.00342286 -1.05607e-20 0.00342286)
(0.00341676 -0.00156387 -2.26726e-05 0.00341676 -1.13219e-18 0.00341676)
(0.00341676 -0.00156387 -2.26726e-05 0.00341676 2.20019e-22 0.00341676)
(0.00341038 -0.00156095 -2.29627e-05 0.00341038 -1.17452e-18 0.00341038)
(0.00341038 -0.00156095 -2.29627e-05 0.00341038 1.35299e-20 0.00341038)
(0.00340374 -0.00155792 -2.32545e-05 0.00340374 -1.21667e-18 0.00340374)
(0.00340374 -0.00155792 -2.32545e-05 0.00340374 1.29442e-20 0.00340374)
(0.00339683 -0.00155477 -2.35481e-05 0.00339683 -1.2649e-18 0.00339683)
(0.00339683 -0.00155477 -2.35481e-05 0.00339683 -3.22381e-21 0.00339683)
(0.00338968 -0.00155151 -2.38435e-05 0.00338968 -1.30567e-18 0.00338968)
(0.00338968 -0.00155151 -2.38435e-05 0.00338968 -6.58075e-21 0.00338968)
(0.00338229 -0.00154815 -2.41407e-05 0.00338229 -1.34811e-18 0.00338229)
(0.00338229 -0.00154815 -2.41407e-05 0.00338229 3.31548e-21 0.00338229)
(0.00337467 -0.00154468 -2.44398e-05 0.00337467 -1.38944e-18 0.00337467)
(0.00337467 -0.00154468 -2.44398e-05 0.00337467 2.26418e-20 0.00337467)
(0.00336682 -0.00154111 -2.47408e-05 0.00336682 -1.43688e-18 0.00336682)
(0.00336682 -0.00154111 -2.47408e-05 0.00336682 3.0833e-20 0.00336682)
(0.00335875 -0.00153745 -2.50436e-05 0.00335875 -1.48214e-18 0.00335875)
(0.00335875 -0.00153745 -2.50436e-05 0.00335875 1.87666e-20 0.00335875)
(0.00335048 -0.0015337 -2.53484e-05 0.00335048 -1.52826e-18 0.00335048)
(0.00335048 -0.0015337 -2.53484e-05 0.00335048 1.5677e-20 0.00335048)
(0.00334201 -0.00152985 -2.56551e-05 0.00334201 -1.58244e-18 0.00334201)
(0.00334201 -0.00152985 -2.56551e-05 0.00334201 2.92302e-20 0.00334201)
(0.00333333 -0.00152592 -2.59638e-05 0.00333333 -1.62977e-18 0.00333333)
(0.00333333 -0.00152592 -2.59638e-05 0.00333333 4.57903e-20 0.00333333)
(0.00332447 -0.0015219 -2.62745e-05 0.00332447 -1.67246e-18 0.00332447)
(0.00332447 -0.0015219 -2.62745e-05 0.00332447 4.67604e-20 0.00332447)
(0.00331543 -0.0015178 -2.65872e-05 0.00331543 -1.73083e-18 0.00331543)
(0.00331543 -0.0015178 -2.65872e-05 0.00331543 4.89404e-20 0.00331543)
(0.00330621 -0.00151362 -2.6902e-05 0.00330621 -1.78959e-18 0.00330621)
(0.00330621 -0.00151362 -2.6902e-05 0.00330621 4.45247e-20 0.00330621)
(0.00329682 -0.00150937 -2.72187e-05 0.00329682 -1.83635e-18 0.00329682)
(0.00329682 -0.00150937 -2.72187e-05 0.00329682 4.84962e-20 0.00329682)
(0.00328726 -0.00150504 -2.75376e-05 0.00328726 -1.87655e-18 0.00328726)
(0.00328726 -0.00150504 -2.75376e-05 0.00328726 9.87077e-20 0.00328726)
(0.00327754 -0.00150063 -2.78586e-05 0.00327754 -1.93002e-18 0.00327754)
(0.00327754 -0.00150063 -2.78586e-05 0.00327754 1.04293e-19 0.00327754)
(0.00326766 -0.00149616 -2.81816e-05 0.00326766 -1.97918e-18 0.00326766)
(0.00326766 -0.00149616 -2.81816e-05 0.00326766 8.10261e-20 0.00326766)
(0.00325764 -0.00149162 -2.85068e-05 0.00325764 -2.01899e-18 0.00325764)
(0.00325764 -0.00149162 -2.85068e-05 0.00325764 5.04253e-20 0.00325764)
(0.00324746 -0.00148702 -2.88342e-05 0.00324746 -2.0767e-18 0.00324746)
(0.00324746 -0.00148702 -2.88342e-05 0.00324746 9.52174e-20 0.00324746)
(0.00323715 -0.00148235 -2.91637e-05 0.00323715 -2.14391e-18 0.00323715)
(0.00323715 -0.00148235 -2.91637e-05 0.00323715 1.49173e-19 0.00323715)
(0.0032267 -0.00147762 -2.94954e-05 0.0032267 -2.20754e-18 0.0032267)
(0.0032267 -0.00147762 -2.94954e-05 0.0032267 1.81578e-19 0.0032267)
(0.00321611 -0.00147283 -2.98293e-05 0.00321611 -2.26649e-18 0.00321611)
(0.00321611 -0.00147283 -2.98293e-05 0.00321611 1.4425e-19 0.00321611)
(0.0032054 -0.00146799 -3.01654e-05 0.0032054 -2.33106e-18 0.0032054)
(0.0032054 -0.00146799 -3.01654e-05 0.0032054 1.39872e-19 0.0032054)
(0.00319456 -0.00146309 -3.05038e-05 0.00319456 -2.39653e-18 0.00319456)
(0.00319456 -0.00146309 -3.05038e-05 0.00319456 1.84139e-19 0.00319456)
(0.0031836 -0.00145813 -3.08444e-05 0.0031836 -2.4498e-18 0.0031836)
(0.0031836 -0.00145813 -3.08444e-05 0.0031836 2.03446e-19 0.0031836)
(0.00317253 -0.00145313 -3.11873e-05 0.00317253 -2.52417e-18 0.00317253)
(0.00317253 -0.00145313 -3.11873e-05 0.00317253 1.85215e-19 0.00317253)
(0.00316134 -0.00144807 -3.15325e-05 0.00316134 -2.59871e-18 0.00316134)
(0.00316134 -0.00144807 -3.15325e-05 0.00316134 2.22023e-19 0.00316134)
(0.00315004 -0.00144296 -3.188e-05 0.00315004 -2.68079e-18 0.00315004)
(0.00315004 -0.00144296 -3.188e-05 0.00315004 2.93005e-19 0.00315004)
(0.00313864 -0.00143781 -3.22299e-05 0.00313864 -2.75946e-18 0.00313864)
(0.00313864 -0.00143781 -3.22299e-05 0.00313864 2.84835e-19 0.00313864)
(0.00312713 -0.00143262 -3.2582e-05 0.00312713 -2.81202e-18 0.00312713)
(0.00312713 -0.00143262 -3.2582e-05 0.00312713 2.23184e-19 0.00312713)
(0.00311553 -0.00142738 -3.29366e-05 0.00311553 -2.84548e-18 0.00311553)
(0.00311553 -0.00142738 -3.29366e-05 0.00311553 2.14034e-19 0.00311553)
(0.00310383 -0.00142209 -3.32935e-05 0.00310383 -2.89797e-18 0.00310383)
(0.00310383 -0.00142209 -3.32935e-05 0.00310383 3.38684e-19 0.00310383)
(0.00309204 -0.00141677 -3.36528e-05 0.00309204 -2.98105e-18 0.00309204)
(0.00309204 -0.00141677 -3.36528e-05 0.00309204 4.00502e-19 0.00309204)
(0.00308016 -0.00141141 -3.40145e-05 0.00308016 -3.05992e-18 0.00308016)
(0.00308016 -0.00141141 -3.40145e-05 0.00308016 3.48075e-19 0.00308016)
(0.0030682 -0.00140601 -3.43787e-05 0.0030682 -3.101e-18 0.0030682)
(0.0030682 -0.00140601 -3.43787e-05 0.0030682 2.70496e-19 0.0030682)
(0.00305615 -0.00140058 -3.47454e-05 0.00305615 -3.15278e-18 0.00305615)
(0.00305615 -0.00140058 -3.47454e-05 0.00305615 2.79622e-19 0.00305615)
(0.00304402 -0.00139511 -3.51145e-05 0.00304402 -3.25409e-18 0.00304402)
(0.00304402 -0.00139511 -3.51145e-05 0.00304402 2.72246e-19 0.00304402)
(0.00303182 -0.00138961 -3.5486e-05 0.00303182 -3.35435e-18 0.00303182)
(0.00303182 -0.00138961 -3.5486e-05 0.00303182 2.89481e-19 0.00303182)
(0.00301955 -0.00138408 -3.58601e-05 0.00301955 -3.45075e-18 0.00301955)
(0.00301955 -0.00138408 -3.58601e-05 0.00301955 3.19579e-19 0.00301955)
(0.0030072 -0.00137851 -3.62368e-05 0.0030072 -3.55141e-18 0.0030072)
(0.0030072 -0.00137851 -3.62368e-05 0.0030072 3.49516e-19 0.0030072)
(0.00299478 -0.00137292 -3.6616e-05 0.00299478 -3.62351e-18 0.00299478)
(0.00299478 -0.00137292 -3.6616e-05 0.00299478 4.02552e-19 0.00299478)
(0.0029823 -0.0013673 -3.69977e-05 0.0029823 -3.7067e-18 0.0029823)
(0.0029823 -0.0013673 -3.69977e-05 0.0029823 4.33751e-19 0.0029823)
(0.00296976 -0.00136165 -3.7382e-05 0.00296976 -3.80708e-18 0.00296976)
(0.00296976 -0.00136165 -3.7382e-05 0.00296976 3.98873e-19 0.00296976)
(0.00295716 -0.00135598 -3.7769e-05 0.00295716 -3.91712e-18 0.00295716)
(0.00295716 -0.00135598 -3.7769e-05 0.00295716 3.7076e-19 0.00295716)
(0.0029445 -0.00135029 -3.81585e-05 0.0029445 -4.00867e-18 0.0029445)
(0.0029445 -0.00135029 -3.81585e-05 0.0029445 4.52163e-19 0.0029445)
(0.00293178 -0.00134457 -3.85507e-05 0.00293178 -4.1029e-18 0.00293178)
(0.00293178 -0.00134457 -3.85507e-05 0.00293178 5.44231e-19 0.00293178)
(0.00291902 -0.00133883 -3.89456e-05 0.00291902 -4.26143e-18 0.00291902)
(0.00291902 -0.00133883 -3.89456e-05 0.00291902 5.73694e-19 0.00291902)
(0.0029062 -0.00133307 -3.93432e-05 0.0029062 -4.25832e-18 0.0029062)
(0.0029062 -0.00133307 -3.93432e-05 0.0029062 5.61691e-19 0.0029062)
(0.00289334 -0.00132729 -3.97434e-05 0.00289334 -4.37612e-18 0.00289334)
(0.00289334 -0.00132729 -3.97434e-05 0.00289334 5.72586e-19 0.00289334)
(0.00288043 -0.00132149 -4.01464e-05 0.00288043 -4.47292e-18 0.00288043)
(0.00288043 -0.00132149 -4.01464e-05 0.00288043 5.40168e-19 0.00288043)
(0.00286747 -0.00131567 -4.05521e-05 0.00286747 -4.58315e-18 0.00286747)
(0.00286747 -0.00131567 -4.05521e-05 0.00286747 4.98734e-19 0.00286747)
(0.00285448 -0.00130984 -4.09606e-05 0.00285448 -4.69798e-18 0.00285448)
(0.00285448 -0.00130984 -4.09606e-05 0.00285448 5.73979e-19 0.00285448)
(0.00284145 -0.001304 -4.13719e-05 0.00284145 -4.82196e-18 0.00284145)
(0.00284145 -0.001304 -4.13719e-05 0.00284145 7.22859e-19 0.00284145)
(0.00282839 -0.00129814 -4.1786e-05 0.00282839 -4.86868e-18 0.00282839)
(0.00282839 -0.00129814 -4.1786e-05 0.00282839 7.7316e-19 0.00282839)
(0.00281529 -0.00129226 -4.22029e-05 0.00281529 -4.98522e-18 0.00281529)
(0.00281529 -0.00129226 -4.22029e-05 0.00281529 7.79658e-19 0.00281529)
(0.00280215 -0.00128638 -4.26227e-05 0.00280215 -5.12069e-18 0.00280215)
(0.00280215 -0.00128638 -4.26227e-05 0.00280215 7.89282e-19 0.00280215)
(0.00278899 -0.00128048 -4.30453e-05 0.00278899 -5.28633e-18 0.00278899)
(0.00278899 -0.00128048 -4.30453e-05 0.00278899 8.20989e-19 0.00278899)
(0.0027758 -0.00127457 -4.34708e-05 0.0027758 -5.36273e-18 0.0027758)
(0.0027758 -0.00127457 -4.34708e-05 0.0027758 8.77183e-19 0.0027758)
(0.00276259 -0.00126866 -4.38993e-05 0.00276259 -5.49097e-18 0.00276259)
(0.00276259 -0.00126866 -4.38993e-05 0.00276259 8.99876e-19 0.00276259)
(0.00274935 -0.00126273 -4.43307e-05 0.00274935 -5.63215e-18 0.00274935)
(0.00274935 -0.00126273 -4.43307e-05 0.00274935 9.48756e-19 0.00274935)
(0.00273609 -0.0012568 -4.4765e-05 0.00273609 -5.72428e-18 0.00273609)
(0.00273609 -0.0012568 -4.4765e-05 0.00273609 1.10795e-18 0.00273609)
(0.00272281 -0.00125086 -4.52024e-05 0.00272281 -5.92408e-18 0.00272281)
(0.00272281 -0.00125086 -4.52024e-05 0.00272281 1.26921e-18 0.00272281)
(0.00270951 -0.00124492 -4.56427e-05 0.00270951 -5.95648e-18 0.00270951)
(0.00270951 -0.00124492 -4.56427e-05 0.00270951 1.25269e-18 0.00270951)
(0.0026962 -0.00123897 -4.60861e-05 0.0026962 -6.1202e-18 0.0026962)
(0.0026962 -0.00123897 -4.60861e-05 0.0026962 1.14438e-18 0.0026962)
(0.00268287 -0.00123302 -4.65325e-05 0.00268287 -5.17133e-18 0.00268287)
(0.00268287 -0.00123302 -4.65325e-05 0.00268287 1.09042e-18 0.00268287)
(0.00266953 -0.00122706 -4.6982e-05 0.00266953 -3.10368e-18 0.00266953)
(0.00266953 -0.00122706 -4.6982e-05 0.00266953 1.48408e-18 0.00266953)
(0.00265618 -0.0012211 -4.74346e-05 0.00265618 -1.72827e-18 0.00265618)
(0.00265618 -0.0012211 -4.74346e-05 0.00265618 1.69406e-18 0.00265618)
(0.00264282 -0.00121514 -4.78903e-05 0.00264282 -1.56454e-18 0.00264282)
(0.00264282 -0.00121514 -4.78903e-05 0.00264282 1.43826e-18 0.00264282)
(0.00262945 -0.00120917 -4.83492e-05 0.00262945 -1.57927e-18 0.00262945)
(0.00262945 -0.00120917 -4.83492e-05 0.00262945 1.41288e-18 0.00262945)
(0.00261608 -0.00120321 -4.88112e-05 0.00261608 -1.387e-18 0.00261608)
(0.00261608 -0.00120321 -4.88112e-05 0.00261608 1.52802e-18 0.00261608)
(0.0026027 -0.00119725 -4.92764e-05 0.0026027 -1.31884e-18 0.0026027)
(0.0026027 -0.00119725 -4.92764e-05 0.0026027 1.37569e-18 0.0026027)
(0.00258932 -0.00119129 -4.97449e-05 0.00258932 -1.44502e-18 0.00258932)
(0.00258932 -0.00119129 -4.97449e-05 0.00258932 1.3818e-18 0.00258932)
(0.00257593 -0.00118533 -5.02166e-05 0.00257593 -1.24316e-18 0.00257593)
(0.00257593 -0.00118533 -5.02166e-05 0.00257593 1.56717e-18 0.00257593)
(0.00256255 -0.00117937 -5.06915e-05 0.00256255 -1.06121e-18 0.00256255)
(0.00256255 -0.00117937 -5.06915e-05 0.00256255 1.7332e-18 0.00256255)
(0.00254917 -0.00117341 -5.11698e-05 0.00254917 -1.2933e-18 0.00254917)
(0.00254917 -0.00117341 -5.11698e-05 0.00254917 1.58536e-18 0.00254917)
(0.00253579 -0.00116746 -5.16513e-05 0.00253579 -1.26347e-18 0.00253579)
(0.00253579 -0.00116746 -5.16513e-05 0.00253579 1.54442e-18 0.00253579)
(0.00252242 -0.00116151 -5.21362e-05 0.00252242 -1.04089e-18 0.00252242)
(0.00252242 -0.00116151 -5.21362e-05 0.00252242 1.80081e-18 0.00252242)
(0.00250905 -0.00115557 -5.26245e-05 0.00250905 -1.03681e-18 0.00250905)
(0.00250905 -0.00115557 -5.26245e-05 0.00250905 1.76636e-18 0.00250905)
(0.00249569 -0.00114963 -5.31161e-05 0.00249569 -1.17311e-18 0.00249569)
(0.00249569 -0.00114963 -5.31161e-05 0.00249569 1.79216e-18 0.00249569)
(0.00248234 -0.0011437 -5.36111e-05 0.00248234 -1.15384e-18 0.00248234)
(0.00248234 -0.0011437 -5.36111e-05 0.00248234 1.99069e-18 0.00248234)
(0.00246899 -0.00113777 -5.41096e-05 0.00246899 -9.97049e-19 0.00246899)
(0.00246899 -0.00113777 -5.41096e-05 0.00246899 2.08227e-18 0.00246899)
(0.00245566 -0.00113185 -5.46115e-05 0.00245566 -1.06912e-18 0.00245566)
(0.00245566 -0.00113185 -5.46115e-05 0.00245566 2.15488e-18 0.00245566)
(0.00244234 -0.00112594 -5.51169e-05 0.00244234 -1.03929e-18 0.00244234)
(0.00244234 -0.00112594 -5.51169e-05 0.00244234 2.24696e-18 0.00244234)
(0.00242903 -0.00112003 -5.56259e-05 0.00242903 -8.64323e-19 0.00242903)
(0.00242903 -0.00112003 -5.56259e-05 0.00242903 2.1906e-18 0.00242903)
(0.00241574 -0.00111413 -5.61383e-05 0.00241574 -7.54903e-19 0.00241574)
(0.00241574 -0.00111413 -5.61383e-05 0.00241574 2.18166e-18 0.00241574)
(0.00240246 -0.00110824 -5.66543e-05 0.00240246 -6.60047e-19 0.00240246)
(0.00240246 -0.00110824 -5.66543e-05 0.00240246 2.20732e-18 0.00240246)
(0.00238919 -0.00110236 -5.71738e-05 0.00238919 -5.32533e-19 0.00238919)
(0.00238919 -0.00110236 -5.71738e-05 0.00238919 2.48498e-18 0.00238919)
(0.00237595 -0.00109649 -5.7697e-05 0.00237595 -6.30902e-19 0.00237595)
(0.00237595 -0.00109649 -5.7697e-05 0.00237595 2.7848e-18 0.00237595)
(0.00236272 -0.00109063 -5.82237e-05 0.00236272 -6.84812e-19 0.00236272)
(0.00236272 -0.00109063 -5.82237e-05 0.00236272 2.96743e-18 0.00236272)
(0.00234951 -0.00108478 -5.87541e-05 0.00234951 -4.98798e-19 0.00234951)
(0.00234951 -0.00108478 -5.87541e-05 0.00234951 2.70325e-18 0.00234951)
(0.00233633 -0.00107894 -5.92882e-05 0.00233633 -5.34468e-19 0.00233633)
(0.00233633 -0.00107894 -5.92882e-05 0.00233633 2.4271e-18 0.00233633)
(0.00232316 -0.00107311 -5.98259e-05 0.00232316 -4.16291e-19 0.00232316)
(0.00232316 -0.00107311 -5.98259e-05 0.00232316 2.8127e-18 0.00232316)
(0.00231001 -0.00106729 -6.03674e-05 0.00231001 5.33515e-19 0.00231001)
(0.00231001 -0.00106729 -6.03674e-05 0.00231001 3.66333e-18 0.00231001)
(0.00229689 -0.00106148 -6.09125e-05 0.00229689 1.11114e-18 0.00229689)
(0.00229689 -0.00106148 -6.09125e-05 0.00229689 3.19746e-18 0.00229689)
(0.00228379 -0.00105568 -6.14614e-05 0.00228379 9.60331e-19 0.00228379)
(0.00228379 -0.00105568 -6.14614e-05 0.00228379 2.97137e-18 0.00228379)
(0.00227072 -0.0010499 -6.20141e-05 0.00227072 6.00821e-19 0.00227072)
(0.00227072 -0.0010499 -6.20141e-05 0.00227072 3.34635e-18 0.00227072)
(0.00225767 -0.00104413 -6.25705e-05 0.00225767 4.0403e-19 0.00225767)
(0.00225767 -0.00104413 -6.25705e-05 0.00225767 3.84516e-18 0.00225767)
(0.00224464 -0.00103836 -6.31307e-05 0.00224464 5.16749e-19 0.00224464)
(0.00224464 -0.00103836 -6.31307e-05 0.00224464 3.97041e-18 0.00224464)
(0.00223164 -0.00103262 -6.36948e-05 0.00223164 7.78664e-19 0.00223164)
(0.00223164 -0.00103262 -6.36948e-05 0.00223164 4.13318e-18 0.00223164)
(0.00221867 -0.00102688 -6.42626e-05 0.00221867 8.47034e-19 0.00221867)
(0.00221867 -0.00102688 -6.42626e-05 0.00221867 4.27755e-18 0.00221867)
(0.00220573 -0.00102116 -6.48343e-05 0.00220573 8.41481e-19 0.00220573)
(0.00220573 -0.00102116 -6.48343e-05 0.00220573 4.30998e-18 0.00220573)
(0.00219281 -0.00101545 -6.54099e-05 0.00219281 5.40207e-19 0.00219281)
(0.00219281 -0.00101545 -6.54099e-05 0.00219281 4.46434e-18 0.00219281)
(0.00217992 -0.00100975 -6.59893e-05 0.00217992 2.38439e-19 0.00217992)
(0.00217992 -0.00100975 -6.59893e-05 0.00217992 4.62211e-18 0.00217992)
(0.00216706 -0.00100407 -6.65727e-05 0.00216706 -1.54964e-19 0.00216706)
(0.00216706 -0.00100407 -6.65727e-05 0.00216706 4.39439e-18 0.00216706)
(0.00215423 -0.000998399 -6.71599e-05 0.00215423 -7.13838e-19 0.00215423)
(0.00215423 -0.000998399 -6.71599e-05 0.00215423 5.46997e-18 0.00215423)
(0.00214143 -0.000992742 -6.7751e-05 0.00214143 -1.15556e-18 0.00214143)
(0.00214143 -0.000992742 -6.7751e-05 0.00214143 5.6775e-18 0.00214143)
(0.00212866 -0.0009871 -6.8346e-05 0.00212866 -2.89645e-19 0.00212866)
(0.00212866 -0.0009871 -6.8346e-05 0.00212866 5.58594e-18 0.00212866)
(0.00211592 -0.000981471 -6.8945e-05 0.00211592 -3.73357e-19 0.00211592)
(0.00211592 -0.000981471 -6.8945e-05 0.00211592 5.77636e-18 0.00211592)
(0.00210321 -0.000975856 -6.95479e-05 0.00210321 -1.68284e-19 0.00210321)
(0.00210321 -0.000975856 -6.95479e-05 0.00210321 6.06498e-18 0.00210321)
(0.00209054 -0.000970254 -7.01547e-05 0.00209054 -3.42239e-19 0.00209054)
(0.00209054 -0.000970254 -7.01547e-05 0.00209054 6.25488e-18 0.00209054)
(0.00207789 -0.000964667 -7.07655e-05 0.00207789 -4.44211e-20 0.00207789)
(0.00207789 -0.000964667 -7.07655e-05 0.00207789 6.13876e-18 0.00207789)
(0.00206528 -0.000959093 -7.13802e-05 0.00206528 1.15234e-19 0.00206528)
(0.00206528 -0.000959093 -7.13802e-05 0.00206528 6.21114e-18 0.00206528)
(0.0020527 -0.000953533 -7.19988e-05 0.0020527 -2.76197e-19 0.0020527)
(0.0020527 -0.000953533 -7.19988e-05 0.0020527 5.83294e-18 0.0020527)
(0.00204015 -0.000947987 -7.26214e-05 0.00204015 -2.23823e-19 0.00204015)
(0.00204015 -0.000947987 -7.26214e-05 0.00204015 6.636e-18 0.00204015)
(0.00202763 -0.000942454 -7.32479e-05 0.00202763 5.34211e-19 0.00202763)
(0.00202763 -0.000942454 -7.32479e-05 0.00202763 7.06679e-18 0.00202763)
(0.00201514 -0.000936935 -7.38783e-05 0.00201514 6.02462e-19 0.00201514)
(0.00201514 -0.000936935 -7.38783e-05 0.00201514 7.19485e-18 0.00201514)
(0.00200269 -0.00093143 -7.45127e-05 0.00200269 4.09522e-19 0.00200269)
(0.00200269 -0.00093143 -7.45127e-05 0.00200269 6.99092e-18 0.00200269)
(0.00199027 -0.000925939 -7.51509e-05 0.00199027 4.67234e-19 0.00199027)
(0.00199027 -0.000925939 -7.51509e-05 0.00199027 7.36168e-18 0.00199027)
(0.00197788 -0.000920461 -7.57931e-05 0.00197788 1.54695e-18 0.00197788)
(0.00197788 -0.000920461 -7.57931e-05 0.00197788 7.77939e-18 0.00197788)
(0.00196553 -0.000914996 -7.64391e-05 0.00196553 1.80068e-18 0.00196553)
(0.00196553 -0.000914996 -7.64391e-05 0.00196553 7.71606e-18 0.00196553)
(0.00195321 -0.000909545 -7.7089e-05 0.00195321 1.84396e-18 0.00195321)
(0.00195321 -0.000909545 -7.7089e-05 0.00195321 7.88955e-18 0.00195321)
(0.00194092 -0.000904106 -7.77428e-05 0.00194092 1.81933e-18 0.00194092)
(0.00194092 -0.000904106 -7.77428e-05 0.00194092 7.89299e-18 0.00194092)
(0.00192866 -0.000898681 -7.84003e-05 0.00192866 1.95765e-18 0.00192866)
(0.00192866 -0.000898681 -7.84003e-05 0.00192866 7.99689e-18 0.00192866)
(0.00191644 -0.000893268 -7.90617e-05 0.00191644 2.59621e-18 0.00191644)
(0.00191644 -0.000893268 -7.90617e-05 0.00191644 8.50043e-18 0.00191644)
(0.00190424 -0.000887868 -7.97268e-05 0.00190424 2.90011e-18 0.00190424)
(0.00190424 -0.000887868 -7.97268e-05 0.00190424 8.75072e-18 0.00190424)
(0.00189208 -0.00088248 -8.03957e-05 0.00189208 2.91205e-18 0.00189208)
(0.00189208 -0.00088248 -8.03957e-05 0.00189208 8.43725e-18 0.00189208)
(0.00187995 -0.000877104 -8.10683e-05 0.00187995 2.74654e-18 0.00187995)
(0.00187995 -0.000877104 -8.10683e-05 0.00187995 8.25617e-18 0.00187995)
(0.00186785 -0.000871741 -8.17445e-05 0.00186785 2.52778e-18 0.00186785)
(0.00186785 -0.000871741 -8.17445e-05 0.00186785 9.27476e-18 0.00186785)
(0.00185579 -0.000866389 -8.24243e-05 0.00185579 3.63394e-18 0.00185579)
(0.00185579 -0.000866389 -8.24243e-05 0.00185579 1.01961e-17 0.00185579)
(0.00184375 -0.000861048 -8.31078e-05 0.00184375 4.1375e-18 0.00184375)
(0.00184375 -0.000861048 -8.31078e-05 0.00184375 9.34673e-18 0.00184375)
(0.00183175 -0.000855718 -8.37947e-05 0.00183175 2.9472e-18 0.00183175)
(0.00183175 -0.000855718 -8.37947e-05 0.00183175 8.04108e-18 0.00183175)
(0.00181977 -0.000850399 -8.44851e-05 0.00181977 2.51779e-18 0.00181977)
(0.00181977 -0.000850399 -8.44851e-05 0.00181977 1.00296e-17 0.00181977)
(0.00180782 -0.000845091 -8.51788e-05 0.00180782 3.81863e-18 0.00180782)
(0.00180782 -0.000845091 -8.51788e-05 0.00180782 1.15377e-17 0.00180782)
(0.00179591 -0.000839793 -8.5876e-05 0.00179591 4.65306e-18 0.00179591)
(0.00179591 -0.000839793 -8.5876e-05 0.00179591 1.0553e-17 0.00179591)
(0.00178402 -0.000834505 -8.65763e-05 0.00178402 4.82706e-18 0.00178402)
(0.00178402 -0.000834505 -8.65763e-05 0.00178402 9.95104e-18 0.00178402)
(0.00177216 -0.000829226 -8.72799e-05 0.00177216 4.44396e-18 0.00177216)