/*--------------------------------*- C++ -*----------------------------------*\
| =========                 |                                                 |
| \\      /  F ield         | OpenFOAM: The Open Source CFD Toolbox           |
|  \\    /   O peration     | Version:  2106                                  |
|   \\  /    A nd           | Website:  www.openfoam.com                      |
|    \\/     M anipulation  |                                                 |
\*---------------------------------------------------------------------------*/
FoamFile
{
    version     2.0;
    format      ascii;
    arch        "LSB;label=32;scalar=64";
    class       volScalarField;
    location    "12000";
    object      p;
}
// * * * * * * * * * * * * * * * * * * * * * * * * * * * * * * * * * * * * * //

dimensions      [0 2 -2 0 0 0 0];

internalField   nonuniform List<scalar> 
2560
(
3.04081e-15
2.03418e-14
6.36626e-15
2.0341e-14
6.82404e-15
2.03399e-14
6.50406e-15
2.03383e-14
6.28583e-15
2.0336e-14
6.1456e-15
2.03331e-14
6.01009e-15
2.03296e-14
5.86814e-15
2.03254e-14
5.72563e-15
2.03206e-14
5.5855e-15
2.03151e-14
5.44818e-15
2.03091e-14
5.31383e-15
2.03024e-14
5.18258e-15
2.02951e-14
5.05448e-15
2.02871e-14
4.92942e-15
2.02786e-14
4.80746e-15
2.02695e-14
4.6885e-15
2.02597e-14
4.5724e-15
2.02495e-14
4.45923e-15
2.02386e-14
4.34907e-15
2.0227e-14
4.24167e-15
2.02149e-14
4.13702e-15
2.02023e-14
4.03507e-15
2.01891e-14
3.93597e-15
2.01754e-14
3.8395e-15
2.01611e-14
3.74564e-15
2.01462e-14
3.6543e-15
2.01309e-14
3.56568e-15
2.01151e-14
3.47953e-15
2.00989e-14
3.39585e-15
2.00822e-14
3.31469e-15
2.00649e-14
3.23589e-15
2.00468e-14
3.1595e-15
2.00284e-14
3.08556e-15
2.00095e-14
3.01399e-15
1.99902e-14
2.94451e-15
1.99705e-14
2.8772e-15
1.99502e-14
2.81217e-15
1.99294e-14
2.74948e-15
1.9908e-14
2.68893e-15
1.98861e-14
2.63032e-15
1.98638e-14
2.57371e-15
1.98413e-14
2.51924e-15
1.98184e-14
2.46653e-15
1.97951e-14
2.41597e-15
1.97711e-14
2.36718e-15
1.97466e-14
2.32022e-15
1.97218e-14
2.27528e-15
1.96967e-14
2.23192e-15
1.96712e-14
2.19035e-15
1.96452e-14
2.15074e-15
1.96187e-14
2.11267e-15
1.95916e-14
2.07589e-15
1.95638e-14
2.04088e-15
1.95355e-14
2.00723e-15
1.95068e-14
1.97499e-15
1.94778e-14
1.94433e-15
1.94484e-14
1.91529e-15
1.94183e-14
1.88763e-15
1.93875e-14
1.86068e-15
1.93568e-14
1.83493e-15
1.93258e-14
1.81099e-15
1.92941e-14
1.7882e-15
1.92613e-14
1.76677e-15
1.92278e-14
1.74634e-15
1.9194e-14
1.72712e-15
1.91595e-14
1.70859e-15
1.91244e-14
1.69127e-15
1.90884e-14
1.67553e-15
1.90518e-14
1.66116e-15
1.90148e-14
1.64694e-15
1.89774e-14
1.63353e-15
1.89395e-14
1.62073e-15
1.89008e-14
1.60938e-15
1.88615e-14
1.59883e-15
1.88217e-14
1.58935e-15
1.8781e-14
1.58087e-15
1.87396e-14
1.574e-15
1.86973e-14
1.56837e-15
1.8654e-14
1.56364e-15
1.86102e-14
1.5591e-15
1.85666e-14
1.55537e-15
1.85214e-14
1.55271e-15
1.84752e-14
1.55043e-15
1.84293e-14
1.54846e-15
1.83845e-14
1.54744e-15
1.83392e-14
1.54662e-15
1.82937e-14
1.54594e-15
1.82473e-14
1.54605e-15
1.82013e-14
1.54654e-15
1.81559e-14
1.54771e-15
1.81099e-14
1.54876e-15
1.80636e-14
1.55111e-15
1.80167e-14
1.5551e-15
1.79689e-14
1.5603e-15
1.79191e-14
1.56588e-15
1.7868e-14
1.57452e-15
1.78189e-14
1.58422e-15
1.77707e-14
1.5925e-15
1.77203e-14
1.60412e-15
1.76677e-14
1.6166e-15
1.76145e-14
1.6307e-15
1.75608e-14
1.64298e-15
1.75076e-14
1.65672e-15
1.74541e-14
1.67356e-15
1.74004e-14
1.68911e-15
1.73456e-14
1.70499e-15
1.72907e-14
1.722e-15
1.7235e-14
1.73913e-15
1.71776e-14
1.75719e-15
1.71213e-14
1.77515e-15
1.70653e-14
1.79195e-15
1.70097e-14
1.80932e-15
1.69509e-14
1.82808e-15
1.68917e-14
1.84813e-15
1.68323e-14
1.86837e-15
1.67728e-14
1.88965e-15
1.67103e-14
1.91085e-15
1.66479e-14
1.93183e-15
1.65857e-14
1.95443e-15
1.65249e-14
1.97953e-15
1.64584e-14
2.0009e-15
1.63925e-14
2.02344e-15
1.63252e-14
2.04908e-15
1.62566e-14
2.07457e-15
1.61848e-14
2.09867e-15
1.61162e-14
2.12119e-15
1.60498e-14
2.14618e-15
1.59785e-14
2.17457e-15
1.59022e-14
2.19646e-15
1.58265e-14
2.2203e-15
1.57558e-14
2.2415e-15
1.56904e-14
2.26869e-15
1.56196e-14
2.30174e-15
1.55365e-14
2.32928e-15
1.54593e-14
2.36234e-15
1.53746e-14
2.39623e-15
1.52869e-14
2.42846e-15
1.51965e-14
2.46802e-15
1.51173e-14
2.50549e-15
1.50286e-14
2.54063e-15
1.49328e-14
2.5779e-15
1.48442e-14
2.61235e-15
1.4763e-14
2.64848e-15
1.46704e-14
2.68607e-15
1.45832e-14
2.72248e-15
1.44992e-14
2.75986e-15
1.44139e-14
2.80284e-15
1.43224e-14
2.84633e-15
1.42249e-14
2.88765e-15
1.41314e-14
2.93145e-15
1.40371e-14
2.97753e-15
1.39472e-14
3.02563e-15
1.38593e-14
3.07553e-15
1.37711e-14
3.11188e-15
1.36779e-14
3.14946e-15
1.35771e-14
3.19054e-15
1.3474e-14
3.23746e-15
1.33866e-14
3.29256e-15
1.32997e-14
3.34279e-15
1.31982e-14
3.39045e-15
1.30924e-14
3.43011e-15
1.29928e-14
3.47702e-15
1.28995e-14
3.53097e-15
1.28024e-14
3.57867e-15
1.26989e-14
3.63031e-15
1.25996e-14
3.68832e-15
1.25022e-14
3.74194e-15
1.24013e-14
3.8015e-15
1.23025e-14
3.85617e-15
1.22058e-14
3.91103e-15
1.2122e-14
3.97117e-15
1.20354e-14
4.03101e-15
1.19352e-14
4.09033e-15
1.18378e-14
4.14352e-15
1.17485e-14
4.20113e-15
1.16512e-14
4.25213e-15
1.15624e-14
4.31256e-15
1.14767e-14
4.36045e-15
1.1405e-14
4.4064e-15
1.13368e-14
4.46102e-15
1.12559e-14
4.51315e-15
1.11732e-14
4.56257e-15
1.10889e-14
4.61454e-15
1.10141e-14
4.65781e-15
1.09378e-14
4.70866e-15
1.08549e-14
4.76136e-15
1.07708e-14
4.8102e-15
1.06855e-14
4.85494e-15
1.06048e-14
4.88981e-15
1.05398e-14
4.92e-15
1.0474e-14
4.95629e-15
1.03966e-14
4.99289e-15
1.03188e-14
5.02957e-15
1.02631e-14
5.06045e-15
1.02072e-14
5.09633e-15
1.01236e-14
5.13144e-15
1.00458e-14
5.16556e-15
1.00018e-14
5.19835e-15
9.94733e-15
5.22388e-15
9.87687e-15
5.25301e-15
9.82429e-15
5.25735e-15
9.78426e-15
5.28114e-15
9.72364e-15
5.30729e-15
9.65378e-15
5.3187e-15
9.59161e-15
5.37105e-15
9.50937e-15
5.40829e-15
9.45174e-15
5.44143e-15
9.37393e-15
5.48155e-15
9.2984e-15
5.50615e-15
9.22512e-15
5.53751e-15
9.15403e-15
5.56429e-15
9.07391e-15
5.59772e-15
8.96217e-15
5.61567e-15
8.88555e-15
5.64031e-15
8.81046e-15
5.63791e-15
8.77041e-15
5.65254e-15
8.72119e-15
5.65041e-15
8.62967e-15
5.64259e-15
8.56274e-15
5.63974e-15
8.53171e-15
5.6523e-15
8.44818e-15
5.65806e-15
8.35653e-15
5.66825e-15
8.30085e-15
5.67154e-15
8.25904e-15
5.6675e-15
8.1872e-15
5.66689e-15
8.08544e-15
5.66995e-15
8.00843e-15
5.67687e-15
7.94493e-15
5.67653e-15
7.89487e-15
5.67961e-15
7.81435e-15
5.68614e-15
7.71395e-15
5.68567e-15
7.6367e-15
5.68928e-15
7.60411e-15
5.69666e-15
7.51821e-15
5.68659e-15
7.41114e-15
5.68143e-15
7.33646e-15
5.6922e-15
7.25048e-15
5.68711e-15
7.17432e-15
5.68815e-15
7.05379e-15
5.68577e-15
6.96251e-15
5.6809e-15
6.88858e-15
5.67403e-15
6.78865e-15
5.67685e-15
6.69351e-15
5.66935e-15
6.62309e-15
5.70517e-15
6.53412e-15
5.71245e-15
6.47724e-15
5.7133e-15
6.40963e-15
5.73022e-15
6.30954e-15
5.70287e-15
6.21646e-15
5.67414e-15
6.12876e-15
5.66533e-15
6.04507e-15
5.65733e-15
6.02562e-15
5.65038e-15
5.96714e-15
5.60476e-15
5.9713e-15
5.60093e-15
5.91703e-15
5.59903e-15
5.84464e-15
5.58102e-15
5.81335e-15
5.54699e-15
5.82266e-15
5.55546e-15
5.8135e-15
5.54752e-15
5.74585e-15
5.52616e-15
5.69771e-15
5.51163e-15
5.60863e-15
5.46675e-15
5.49664e-15
5.4729e-15
5.43815e-15
5.4346e-15
5.4106e-15
5.41069e-15
5.37408e-15
5.34353e-15
5.28937e-15
5.31042e-15
5.23267e-15
5.33102e-15
5.20188e-15
5.27441e-15
5.2329e-15
5.19443e-15
5.23445e-15
5.10569e-15
5.1734e-15
5.08094e-15
5.0896e-15
5.08442e-15
5.05535e-15
5.09911e-15
5.08608e-15
5.10599e-15
5.07102e-15
5.06984e-15
5.00972e-15
5.00972e-15
4.95449e-15
4.99642e-15
4.92171e-15
4.99291e-15
4.96239e-15
5.03327e-15
4.98789e-15
5.04743e-15
4.96212e-15
5.00202e-15
4.93561e-15
4.96423e-15
4.9076e-15
4.96617e-15
4.94739e-15
4.97103e-15
4.987e-15
4.96014e-15
4.95988e-15
4.96808e-15
4.91642e-15
4.9614e-15
4.98677e-15
4.96802e-15
5.04281e-15
5.01758e-15
5.05452e-15
5.01159e-15
5.0846e-15
5.10879e-15
5.10136e-15
5.08723e-15
5.13017e-15
5.0409e-15
5.14227e-15
5.0599e-15
5.14365e-15
5.11315e-15
5.06964e-15
5.0536e-15
5.06335e-15
5.05914e-15
5.09709e-15
5.00454e-15
5.05067e-15
5.00705e-15
5.01344e-15
4.97257e-15
5.03959e-15
4.95416e-15
5.04382e-15
4.97995e-15
5.05669e-15
4.93235e-15
5.0475e-15
5.00824e-15
5.0508e-15
5.04392e-15
5.05883e-15
5.07525e-15
5.06763e-15
5.13316e-15
5.1005e-15
5.13384e-15
5.15596e-15
5.1279e-15
5.18694e-15
5.05474e-15
5.19854e-15
5.1178e-15
5.17582e-15
5.14364e-15
5.1887e-15
5.10799e-15
5.18205e-15
5.1394e-15
5.15824e-15
5.1379e-15
5.15841e-15
5.15775e-15
5.18491e-15
5.14854e-15
5.16378e-15
5.14047e-15
5.14581e-15
1.6522e-14
1.68064e-14
1.65216e-14
1.68063e-14
1.65211e-14
1.68062e-14
1.65203e-14
1.68059e-14
1.65192e-14
1.68056e-14
1.65177e-14
1.68051e-14
1.6516e-14
1.68046e-14
1.65139e-14
1.6804e-14
1.65115e-14
1.68032e-14
1.65088e-14
1.68024e-14
1.65058e-14
1.68014e-14
1.65025e-14
1.68003e-14
1.64989e-14
1.6799e-14
1.6495e-14
1.67977e-14
1.64908e-14
1.67962e-14
1.64863e-14
1.67946e-14
1.64816e-14
1.67928e-14
1.64767e-14
1.67908e-14
1.64715e-14
1.67886e-14
1.64661e-14
1.67862e-14
1.64605e-14
1.67838e-14
1.64545e-14
1.67812e-14
1.64483e-14
1.67785e-14
1.64417e-14
1.67756e-14
1.64351e-14
1.67725e-14
1.64282e-14
1.67692e-14
1.64209e-14
1.67659e-14
1.64133e-14
1.67625e-14
1.64055e-14
1.67591e-14
1.63975e-14
1.67554e-14
1.63892e-14
1.67515e-14
1.63805e-14
1.67474e-14
1.63718e-14
1.67433e-14
1.63629e-14
1.67391e-14
1.63538e-14
1.67344e-14
1.63444e-14
1.67296e-14
1.63349e-14
1.67245e-14
1.63249e-14
1.67194e-14
1.63148e-14
1.67138e-14
1.63043e-14
1.67082e-14
1.62935e-14
1.67026e-14
1.62823e-14
1.6697e-14
1.6271e-14
1.66912e-14
1.62595e-14
1.6685e-14
1.62476e-14
1.66789e-14
1.62354e-14
1.66724e-14
1.62231e-14
1.66658e-14
1.62104e-14
1.66591e-14
1.61975e-14
1.6652e-14
1.61843e-14
1.66447e-14
1.61709e-14
1.66372e-14
1.61573e-14
1.66292e-14
1.61438e-14
1.66213e-14
1.61298e-14
1.6613e-14
1.61155e-14
1.66046e-14
1.6101e-14
1.65958e-14
1.60862e-14
1.65868e-14
1.60713e-14
1.65773e-14
1.60559e-14
1.65679e-14
1.60402e-14
1.65576e-14
1.60242e-14
1.65471e-14
1.60078e-14
1.65362e-14
1.59907e-14
1.65254e-14
1.59733e-14
1.65137e-14
1.59552e-14
1.65017e-14
1.59373e-14
1.64893e-14
1.59189e-14
1.64761e-14
1.59e-14
1.64632e-14
1.58806e-14
1.64489e-14
1.58607e-14
1.64339e-14
1.58403e-14
1.64187e-14
1.58196e-14
1.64029e-14
1.57985e-14
1.6387e-14
1.57768e-14
1.63705e-14
1.57546e-14
1.63531e-14
1.57322e-14
1.63346e-14
1.57096e-14
1.63155e-14
1.56868e-14
1.62958e-14
1.56632e-14
1.62751e-14
1.56387e-14
1.62535e-14
1.56141e-14
1.62316e-14
1.55889e-14
1.62087e-14
1.55633e-14
1.6185e-14
1.55368e-14
1.61607e-14
1.55098e-14
1.6136e-14
1.5482e-14
1.61102e-14
1.54526e-14
1.60843e-14
1.54228e-14
1.60566e-14
1.53924e-14
1.60282e-14
1.53609e-14
1.59992e-14
1.53297e-14
1.59691e-14
1.52968e-14
1.59389e-14
1.52632e-14
1.59075e-14
1.52295e-14
1.5873e-14
1.51947e-14
1.58395e-14
1.5159e-14
1.58074e-14
1.51229e-14
1.57756e-14
1.50873e-14
1.57418e-14
1.50522e-14
1.57034e-14
1.50151e-14
1.56645e-14
1.49785e-14
1.56274e-14
1.494e-14
1.55891e-14
1.4903e-14
1.55519e-14
1.48674e-14
1.55124e-14
1.48291e-14
1.54733e-14
1.47924e-14
1.54319e-14
1.4753e-14
1.53899e-14
1.47117e-14
1.53509e-14
1.46712e-14
1.53087e-14
1.46317e-14
1.5266e-14
1.45912e-14
1.52245e-14
1.45489e-14
1.51816e-14
1.45058e-14
1.51372e-14
1.44657e-14
1.50913e-14
1.44229e-14
1.50477e-14
1.43803e-14
1.50054e-14
1.43342e-14
1.49617e-14
1.42902e-14
1.49175e-14
1.42437e-14
1.48757e-14
1.41965e-14
1.48314e-14
1.41498e-14
1.47857e-14
1.41026e-14
1.47363e-14
1.40548e-14
1.46875e-14
1.40077e-14
1.46412e-14
1.39592e-14
1.45955e-14
1.39134e-14
1.45494e-14
1.38632e-14
1.45017e-14
1.38105e-14
1.44568e-14
1.37566e-14
1.44093e-14
1.37057e-14
1.4357e-14
1.36514e-14
1.43108e-14
1.3596e-14
1.42665e-14
1.35394e-14
1.42174e-14
1.34818e-14
1.41656e-14
1.34208e-14
1.41158e-14
1.33633e-14
1.40611e-14
1.33072e-14
1.40084e-14
1.32455e-14
1.39554e-14
1.3183e-14
1.39021e-14
1.31196e-14
1.38486e-14
1.30648e-14
1.37855e-14
1.30022e-14
1.37269e-14
1.29413e-14
1.36752e-14
1.28846e-14
1.36187e-14
1.28297e-14
1.35549e-14
1.2772e-14
1.34909e-14
1.27138e-14
1.34317e-14
1.26578e-14
1.33724e-14
1.26015e-14
1.33131e-14
1.25451e-14
1.32488e-14
1.24836e-14
1.31896e-14
1.2427e-14
1.31254e-14
1.23654e-14
1.30713e-14
1.23064e-14
1.30198e-14
1.22451e-14
1.29585e-14
1.21788e-14
1.29e-14
1.21154e-14
1.28443e-14
1.20445e-14
1.2789e-14
1.19766e-14
1.27394e-14
1.19141e-14
1.26877e-14
1.18469e-14
1.26341e-14
1.17775e-14
1.2576e-14
1.17268e-14
1.25058e-14
1.16662e-14
1.24442e-14
1.16142e-14
1.23835e-14
1.15525e-14
1.23185e-14
1.14862e-14
1.2265e-14
1.14261e-14
1.22075e-14
1.13722e-14
1.21405e-14
1.13139e-14
1.20749e-14
1.12514e-14
1.20266e-14
1.11952e-14
1.19637e-14
1.11455e-14
1.18917e-14
1.10917e-14
1.18265e-14
1.10284e-14
1.17792e-14
1.09719e-14
1.17176e-14
1.09167e-14
1.16523e-14
1.08466e-14
1.16e-14
1.07833e-14
1.15443e-14
1.0727e-14
1.14745e-14
1.06667e-14
1.14124e-14
1.05969e-14
1.13582e-14
1.05342e-14
1.1301e-14
1.04729e-14
1.12301e-14
1.04077e-14
1.11563e-14
1.03497e-14
1.1102e-14
1.02987e-14
1.10395e-14
1.02495e-14
1.09802e-14
1.0191e-14
1.09128e-14
1.01398e-14
1.08544e-14
1.00793e-14
1.07881e-14
1.00097e-14
1.07197e-14
9.93638e-15
1.0666e-14
9.87047e-15
1.06106e-14
9.80633e-15
1.05535e-14
9.74393e-15
1.04894e-14
9.68885e-15
1.04184e-14
9.61321e-15
1.0363e-14
9.55041e-15
1.03009e-14
9.51166e-15
1.02155e-14
9.45802e-15
1.01515e-14
9.38954e-15
1.00977e-14
9.31175e-15
1.00599e-14
9.2468e-15
1.00104e-14
9.19456e-15
9.94413e-15
9.13829e-15
9.89465e-15
9.08905e-15
9.83986e-15
9.0468e-15
9.75748e-15
9.01178e-15
9.68108e-15
8.95056e-15
9.63299e-15
8.90786e-15
9.56868e-15
8.83892e-15
9.52187e-15
8.7883e-15
9.43699e-15
8.76732e-15
9.34773e-15
8.75417e-15
9.2649e-15
8.70476e-15
9.1881e-15
8.64178e-15
9.10594e-15
8.57652e-15
9.02948e-15
8.53137e-15
8.95885e-15
8.47322e-15
8.88282e-15
8.4134e-15
8.81234e-15
8.34086e-15
8.74753e-15
8.28876e-15
8.67766e-15
8.23502e-15
8.61376e-15
8.19081e-15
8.5447e-15
8.1233e-15
8.49255e-15
8.03233e-15
8.41373e-15
7.98369e-15
8.34171e-15
7.93349e-15
8.30936e-15
7.89249e-15
8.26216e-15
7.83882e-15
8.18957e-15
7.78363e-15
8.1028e-15
7.71634e-15
8.06715e-15
7.65821e-15
7.99592e-15
7.58745e-15
7.90029e-15
7.52602e-15
7.81291e-15
7.48497e-15
7.69023e-15
7.42217e-15
7.59592e-15
7.37042e-15
7.52941e-15
7.2976e-15
7.45874e-15
7.24641e-15
7.37364e-15
7.18521e-15
7.2951e-15
7.1249e-15
7.20188e-15
7.06587e-15
7.13617e-15
7.00815e-15
7.07675e-15
6.96179e-15
6.98182e-15
6.86441e-15
6.89258e-15
6.79945e-15
6.83008e-15
6.74525e-15
6.77388e-15
6.72267e-15
6.70366e-15
6.64995e-15
6.63964e-15
6.58896e-15
6.5824e-15
6.51868e-15
6.53175e-15
6.45885e-15
6.46791e-15
6.40965e-15
6.39026e-15
6.33075e-15
6.31848e-15
6.30271e-15
6.27321e-15
6.28538e-15
6.25376e-15
6.17871e-15
6.21941e-15
6.06025e-15
6.19221e-15
6.04573e-15
6.13575e-15
5.99672e-15
6.02938e-15
5.91499e-15
5.93111e-15
5.86002e-15
5.88017e-15
5.79149e-15
5.89622e-15
5.7453e-15
5.84614e-15
5.72106e-15
5.78876e-15
5.68204e-15
5.76245e-15
5.62795e-15
5.71077e-15
5.59576e-15
5.67228e-15
5.56706e-15
5.60773e-15
5.52556e-15
5.51501e-15
5.4935e-15
5.4295e-15
5.47326e-15
5.42371e-15
5.46395e-15
5.44248e-15
5.44553e-15
5.41293e-15
5.43671e-15
5.40839e-15
5.43818e-15
5.41213e-15
5.46969e-15
5.42593e-15
5.42537e-15
5.46829e-15
5.42622e-15
5.47232e-15
5.45296e-15
5.45642e-15
5.49064e-15
5.47225e-15
5.50811e-15
5.44977e-15
5.47538e-15
5.4748e-15
5.44114e-15
5.49837e-15
5.43542e-15
5.47278e-15
5.51071e-15
5.46631e-15
5.50502e-15
5.44138e-15
5.48874e-15
5.49485e-15
5.55697e-15
5.53095e-15
5.61303e-15
5.5821e-15
5.66058e-15
5.6163e-15
5.63484e-15
5.63408e-15
5.59875e-15
5.60711e-15
5.58491e-15
5.59989e-15
5.6235e-15
5.61303e-15
5.68459e-15
5.58573e-15
5.62623e-15
5.57301e-15
5.6607e-15
5.60807e-15
5.7611e-15
5.60286e-15
5.73048e-15
5.61086e-15
5.6596e-15
5.63526e-15
5.6576e-15
5.62768e-15
5.66493e-15
5.58812e-15
5.63257e-15
5.56986e-15
5.58441e-15
5.57368e-15
5.59756e-15
5.60576e-15
5.66885e-15
5.58507e-15
5.64149e-15
5.58382e-15
5.62544e-15
5.60212e-15
5.6169e-15
5.58868e-15
5.53977e-15
5.57005e-15
5.5423e-15
5.5554e-15
5.51702e-15
5.56846e-15
5.54082e-15
5.59002e-15
5.50729e-15
5.5446e-15
5.47019e-15
5.5084e-15
5.42571e-15
5.47775e-15
5.36942e-15
5.42904e-15
5.13838e-15
5.15714e-15
5.09377e-15
5.12833e-15
5.11121e-15
5.11322e-15
5.06678e-15
5.05951e-15
5.0152e-15
4.99477e-15
5.0138e-15
4.97155e-15
4.93489e-15
4.96191e-15
4.87355e-15
4.94867e-15
4.85209e-15
4.91307e-15
4.85012e-15
4.93667e-15
4.78231e-15
4.88783e-15
4.78222e-15
4.82331e-15
4.77164e-15
4.81798e-15
4.69412e-15
4.81635e-15
4.68188e-15
4.8001e-15
4.7072e-15
4.76742e-15
4.69336e-15
4.74079e-15
4.69925e-15
4.71918e-15
4.69891e-15
4.66914e-15
4.638e-15
4.61372e-15
4.57232e-15
4.64206e-15
4.58555e-15
4.61009e-15
4.59251e-15
4.57379e-15
4.53631e-15
4.59322e-15
4.47456e-15
4.54988e-15
4.53179e-15
4.50902e-15
4.49643e-15
4.49524e-15
4.39891e-15
4.47959e-15
4.36214e-15
4.47034e-15
4.31771e-15
4.43568e-15
4.19724e-15
4.37605e-15
4.16065e-15
4.29545e-15
4.18073e-15
4.25485e-15
4.09424e-15
4.21694e-15
4.10189e-15
4.15066e-15
4.08987e-15
4.11972e-15
4.04052e-15
4.07143e-15
3.97075e-15
4.04067e-15
3.94853e-15
4.01272e-15
3.92061e-15
3.96975e-15
3.85232e-15
3.9289e-15
3.7958e-15
3.89151e-15
3.82408e-15
3.84082e-15
3.72483e-15
3.79081e-15
3.7484e-15
3.74432e-15
3.71755e-15
3.73369e-15
3.63125e-15
3.68701e-15
3.56074e-15
3.66164e-15
3.56172e-15
3.65896e-15
3.6167e-15
3.64157e-15
3.5965e-15
3.60617e-15
3.5205e-15
3.55183e-15
3.50157e-15
3.51703e-15
3.54061e-15
3.51931e-15
3.50471e-15
3.49848e-15
3.46878e-15
3.49464e-15
3.4899e-15
3.52892e-15
3.52935e-15
3.52389e-15
3.4911e-15
3.49718e-15
3.43388e-15
3.48828e-15
3.41504e-15
3.49889e-15
3.45375e-15
3.45041e-15
3.39266e-15
3.41916e-15
3.37072e-15
3.44571e-15
3.36597e-15
3.45105e-15
3.35846e-15
3.41481e-15
3.30803e-15
3.3771e-15
3.29571e-15
3.37971e-15
3.30064e-15
3.3824e-15
3.30267e-15
3.38433e-15
3.30186e-15
3.40544e-15
3.29761e-15
3.40517e-15
3.28974e-15
3.4258e-15
3.27756e-15
3.40541e-15
3.26094e-15
3.38558e-15
3.23985e-15
3.42945e-15
3.25545e-15
3.43351e-15
3.24475e-15
3.36524e-15
3.24071e-15
3.31843e-15
3.26573e-15
3.34584e-15
3.27766e-15
3.36272e-15
3.27651e-15
3.36941e-15
3.27261e-15
3.36583e-15
3.26609e-15
3.37326e-15
3.25682e-15
3.38141e-15
3.25545e-15
3.36896e-15
3.24059e-15
3.35727e-15
3.20138e-15
3.34604e-15
3.20278e-15
3.34643e-15
3.19046e-15
3.32587e-15
3.20836e-15
3.30618e-15
3.19138e-15
3.30876e-15
3.18314e-15
3.31196e-15
3.18366e-15
3.27191e-15
3.17152e-15
3.24312e-15
3.14695e-15
3.25854e-15
3.14263e-15
3.25245e-15
3.12558e-15
3.23587e-15
3.11803e-15
3.20882e-15
3.09806e-15
3.17104e-15
3.07694e-15
3.16665e-15
3.06558e-15
3.17369e-15
3.05268e-15
3.14788e-15
3.03843e-15
3.1226e-15
3.02295e-15
3.12014e-15
2.99502e-15
3.12951e-15
2.98784e-15
3.12856e-15
2.99026e-15
3.10607e-15
2.96898e-15
3.10658e-15
2.95742e-15
3.11916e-15
2.94426e-15
3.12158e-15
2.92945e-15
3.12516e-15
2.92414e-15
3.08511e-15
2.93984e-15
3.04589e-15
2.93219e-15
3.05194e-15
2.92359e-15
3.05846e-15
2.91398e-15
3.02063e-15
2.898e-15
2.98307e-15
2.87019e-15
2.96805e-15
2.83609e-15
2.96438e-15
2.81793e-15
2.96101e-15
2.79879e-15
2.95801e-15
2.77864e-15
2.94987e-15
2.76859e-15
2.93664e-15
2.75754e-15
2.92392e-15
2.73997e-15
2.91727e-15
2.73259e-15
2.87764e-15
2.72998e-15
2.83273e-15
2.69892e-15
2.81014e-15
2.6728e-15
2.79319e-15
2.65713e-15
2.77082e-15
2.63525e-15
2.7541e-15
2.60716e-15
2.72637e-15
2.58389e-15
2.71535e-15
2.5654e-15
2.71001e-15
2.55716e-15
2.67725e-15
2.5427e-15
2.6391e-15
2.52214e-15
2.62303e-15
2.50649e-15
2.6125e-15
2.49573e-15
2.60204e-15
2.48437e-15
2.58069e-15
2.46703e-15
2.55392e-15
2.45466e-15
2.53262e-15
2.4473e-15
2.50043e-15
2.4396e-15
2.48446e-15
2.43157e-15
2.47379e-15
2.42328e-15
2.45758e-15
2.42552e-15
2.43585e-15
2.41149e-15
2.41929e-15
2.40806e-15
2.40788e-15
2.39919e-15
2.39092e-15
2.39026e-15
2.37377e-15
2.38661e-15
2.35641e-15
2.37764e-15
2.35469e-15
2.36864e-15
2.34745e-15
2.36487e-15
2.34524e-15
2.3532e-15
2.34805e-15
2.33626e-15
2.35587e-15
2.32184e-15
2.35052e-15
2.30991e-15
2.34769e-15
2.29786e-15
2.34736e-15
2.28823e-15
2.35211e-15
2.28354e-15
2.34913e-15
2.26592e-15
2.35125e-15
2.25573e-15
2.34831e-15
2.24785e-15
2.35299e-15
2.24225e-15
2.35017e-15
2.2389e-15
2.35495e-15
2.23029e-15
2.3523e-15
2.21648e-15
2.33984e-15
2.20492e-15
2.33741e-15
2.19803e-15
2.33755e-15
2.19578e-15
2.34024e-15
2.18596e-15
2.34546e-15
2.17589e-15
2.34595e-15
2.17039e-15
2.34656e-15
2.16703e-15
2.34732e-15
2.16339e-15
2.33869e-15
2.15949e-15
2.33025e-15
2.15535e-15
2.33374e-15
2.15564e-15
2.33967e-15
2.15102e-15
2.33641e-15
2.14849e-15
2.33331e-15
2.14571e-15
2.33265e-15
2.14499e-15
2.33213e-15
2.14404e-15
2.32721e-15
2.14286e-15
2.32469e-15
2.1437e-15
2.32678e-15
2.14432e-15
2.32675e-15
2.14474e-15
2.32683e-15
2.14495e-15
2.32484e-15
2.14498e-15
2.3208e-15
2.14482e-15
2.3169e-15
2.14449e-15
2.31527e-15
2.14294e-15
2.31586e-15
2.14124e-15
2.31864e-15
2.14044e-15
2.31732e-15
2.13847e-15
2.31714e-15
2.13841e-15
2.3191e-15
2.13617e-15
2.32317e-15
2.13583e-15
2.32325e-15
2.13435e-15
2.32243e-15
2.13573e-15
2.32071e-15
2.13303e-15
2.324e-15
2.1312e-15
2.32831e-15
2.13022e-15
2.33074e-15
2.12912e-15
2.33036e-15
2.12696e-15
2.33007e-15
2.12563e-15
2.32892e-15
2.12513e-15
2.32694e-15
2.1236e-15
2.32689e-15
2.12197e-15
2.3269e-15
2.12025e-15
2.32609e-15
2.12022e-15
2.32268e-15
2.11921e-15
2.32378e-15
2.1181e-15
2.32405e-15
2.11692e-15
2.32008e-15
2.11735e-15
2.3162e-15
2.11937e-15
2.31411e-15
2.12046e-15
2.31376e-15
2.12062e-15
2.31182e-15
2.1207e-15
2.30913e-15
2.1215e-15
2.30651e-15
2.12143e-15
2.30477e-15
2.12128e-15
2.30231e-15
2.12107e-15
2.29874e-15
2.11964e-15
2.29641e-15
2.12043e-15
2.29414e-15
2.12041e-15
2.29419e-15
2.11921e-15
2.29426e-15
2.11943e-15
2.29254e-15
2.11923e-15
2.28943e-15
2.11898e-15
2.28781e-15
2.11868e-15
2.2873e-15
2.11832e-15
2.28683e-15
2.11792e-15
2.28638e-15
2.11782e-15
2.28495e-15
2.11733e-15
2.28322e-15
2.11747e-15
2.28154e-15
2.11789e-15
2.28089e-15
2.11827e-15
2.27994e-15
2.11859e-15
2.27903e-15
2.11888e-15
2.27814e-15
2.1188e-15
2.27697e-15
2.11931e-15
2.27521e-15
2.11979e-15
2.2741e-15
2.12022e-15
2.27333e-15
2.12091e-15
2.27197e-15
2.12127e-15
2.27094e-15
2.1216e-15
2.26963e-15
2.12248e-15
2.2685e-15
2.12318e-15
2.26754e-15
2.124e-15
2.26557e-15
2.12449e-15
2.2645e-15
2.12452e-15
2.26417e-15
2.12467e-15
2.26442e-15
2.1248e-15
2.26426e-15
2.1249e-15
2.26396e-15
2.12483e-15
2.26353e-15
2.12489e-15
2.26354e-15
2.12464e-15
2.26342e-15
2.12451e-15
2.2633e-15
2.12422e-15
2.26406e-15
2.12419e-15
2.26425e-15
2.124e-15
2.26431e-15
2.12408e-15
2.26408e-15
2.12428e-15
2.2643e-15
2.12403e-15
2.26439e-15
2.12377e-15
2.26477e-15
2.12392e-15
2.26502e-15
2.12414e-15
2.26528e-15
2.12427e-15
2.26539e-15
2.12438e-15
2.26552e-15
2.12448e-15
2.26565e-15
2.12442e-15
2.26587e-15
2.12441e-15
2.26609e-15
2.12439e-15
2.26641e-15
2.12444e-15
2.26673e-15
2.12447e-15
2.2669e-15
2.12449e-15
2.26708e-15
2.12442e-15
2.26718e-15
2.12441e-15
2.26721e-15
2.1244e-15
2.26741e-15
2.12446e-15
2.26754e-15
2.12442e-15
2.26749e-15
2.12446e-15
2.26763e-15
2.12449e-15
2.2679e-15
2.12451e-15
2.2681e-15
2.12451e-15
2.26839e-15
2.12447e-15
2.26874e-15
2.12455e-15
2.269e-15
2.12458e-15
2.26922e-15
2.12465e-15
2.26935e-15
2.12461e-15
2.26949e-15
2.12461e-15
2.26973e-15
2.1246e-15
2.27003e-15
2.12463e-15
2.27034e-15
2.12461e-15
2.27068e-15
2.12457e-15
2.27097e-15
2.12453e-15
2.27119e-15
2.12453e-15
2.27142e-15
2.12453e-15
2.2717e-15
2.12451e-15
2.27196e-15
2.12449e-15
2.2722e-15
2.12451e-15
2.27245e-15
2.1245e-15
2.27264e-15
2.12451e-15
2.2728e-15
2.12449e-15
2.27295e-15
2.12448e-15
2.27304e-15
2.12447e-15
2.27313e-15
2.12447e-15
2.27322e-15
2.12449e-15
2.27328e-15
2.12446e-15
2.27335e-15
2.12444e-15
2.27338e-15
2.12443e-15
2.27342e-15
2.12444e-15
2.27345e-15
2.12443e-15
2.2735e-15
2.12442e-15
2.27352e-15
2.12442e-15
2.27354e-15
2.12441e-15
2.27354e-15
5.29636e-15
5.36203e-15
5.22542e-15
5.34924e-15
5.22333e-15
5.26977e-15
5.16997e-15
5.18321e-15
5.0956e-15
5.10764e-15
5.05167e-15
5.06855e-15
5.0077e-15
5.06565e-15
4.93314e-15
5.0239e-15
4.84957e-15
4.97205e-15
4.83169e-15
4.94005e-15
4.82628e-15
4.89418e-15
4.87131e-15
4.85686e-15
4.83879e-15
4.84789e-15
4.80889e-15
4.81303e-15
4.81379e-15
4.80707e-15
4.76853e-15
4.77149e-15
4.78479e-15
4.73614e-15
4.78149e-15
4.72478e-15
4.75823e-15
4.70775e-15
4.77306e-15
4.71774e-15
4.70831e-15
4.75805e-15
4.67553e-15
4.74724e-15
4.64e-15
4.687e-15
4.53932e-15
4.69823e-15
4.51909e-15
4.63291e-15
4.49098e-15
4.58011e-15
4.42147e-15
4.53706e-15
4.33922e-15
4.47202e-15
4.34195e-15
4.48188e-15
4.33345e-15
4.43674e-15
4.28467e-15
4.36555e-15
4.19935e-15
4.36619e-15
4.1708e-15
4.31319e-15
4.09816e-15
4.27123e-15
4.08245e-15
4.20767e-15
4.10993e-15
4.17061e-15
4.06492e-15
4.12115e-15
3.99947e-15
4.07618e-15
4.01815e-15
4.03635e-15
3.98461e-15
3.98018e-15
3.91709e-15
3.94155e-15
3.81355e-15
3.88631e-15
3.79661e-15
3.83432e-15
3.79521e-15
3.7655e-15
3.7236e-15
3.76755e-15
3.66735e-15
3.71689e-15
3.6259e-15
3.66781e-15
3.50755e-15
3.67589e-15
3.49274e-15
3.65406e-15
3.54513e-15
3.63878e-15
3.4976e-15
3.6082e-15
3.46255e-15
3.58188e-15
3.45998e-15
3.61818e-15
3.45069e-15
3.68176e-15
3.50885e-15
3.62133e-15
3.50496e-15
3.6057e-15
3.4982e-15
3.61494e-15
3.46799e-15
3.62956e-15
3.41163e-15
3.63143e-15
3.40642e-15
3.62248e-15
3.4141e-15
3.60221e-15
3.41622e-15
3.62904e-15
3.41165e-15
3.66471e-15
3.44065e-15
3.67066e-15
3.40359e-15
3.68596e-15
3.40014e-15
3.63042e-15
3.3913e-15
3.5629e-15
3.3997e-15
3.54279e-15
3.38532e-15
3.6105e-15
3.38726e-15
3.68644e-15
3.40408e-15
3.66918e-15
3.41619e-15
3.61903e-15
3.42525e-15
3.61722e-15
3.4527e-15
3.60046e-15
3.45797e-15
3.58865e-15
3.44151e-15
3.56031e-15
3.44582e-15
3.57777e-15
3.43885e-15
3.56724e-15
3.42063e-15
3.51826e-15
3.39155e-15
3.49398e-15
3.39383e-15
3.47267e-15
3.42799e-15
3.49647e-15
3.4193e-15
3.52248e-15
3.41011e-15
3.49744e-15
3.40066e-15
3.48545e-15
3.39101e-15
3.4863e-15
3.37006e-15
3.52198e-15
3.34785e-15
3.52835e-15
3.33505e-15
3.49476e-15
3.33192e-15
3.45326e-15
3.32813e-15
3.44694e-15
3.3236e-15
3.44296e-15
3.30742e-15
3.43024e-15
3.2905e-15
3.3976e-15
3.27293e-15
3.37789e-15
3.26579e-15
3.37112e-15
3.236e-15
3.35501e-15
3.21649e-15
3.32959e-15
3.19627e-15
3.30576e-15
3.18644e-15
3.30569e-15
3.18701e-15
3.28516e-15
3.18717e-15
3.25494e-15
3.16496e-15
3.21453e-15
3.15396e-15
3.1748e-15
3.13209e-15
3.15779e-15
3.12162e-15
3.18586e-15
3.11114e-15
3.19231e-15
3.1005e-15
3.17727e-15
3.08969e-15
3.15187e-15
3.07886e-15
3.14951e-15
3.05674e-15
3.14777e-15
3.04558e-15
3.14675e-15
3.03413e-15
3.15771e-15
3.011e-15
3.13607e-15
2.99852e-15
3.13796e-15
2.98538e-15
3.15222e-15
2.96018e-15
3.14532e-15
2.93965e-15
3.11743e-15
2.92384e-15
3.11901e-15
2.9127e-15
3.11086e-15
2.90631e-15
3.10419e-15
2.88231e-15
3.09893e-15
2.87983e-15
3.08393e-15
2.8542e-15
3.07029e-15
2.82776e-15
3.05242e-15
2.82281e-15
3.0415e-15
2.81148e-15
3.04862e-15
2.79928e-15
3.046e-15
2.79176e-15
3.01144e-15
2.77796e-15
2.97269e-15
2.77473e-15
2.96294e-15
2.76544e-15
2.95988e-15
2.77231e-15
2.93576e-15
2.75671e-15
2.90713e-15
2.75196e-15
2.89049e-15
2.74155e-15
2.87468e-15
2.72549e-15
2.83763e-15
2.70389e-15
2.81234e-15
2.69876e-15
2.79325e-15
2.68816e-15
2.79123e-15
2.66661e-15
2.77885e-15
2.65051e-15
2.75075e-15
2.62897e-15
2.72871e-15
2.61287e-15
2.70728e-15
2.60221e-15
2.69186e-15
2.58073e-15
2.68239e-15
2.55924e-15
2.67887e-15
2.53229e-15
2.67054e-15
2.52132e-15
2.64674e-15
2.51021e-15
2.61821e-15
2.48833e-15
2.59558e-15
2.48234e-15
2.58945e-15
2.48155e-15
2.57319e-15
2.48067e-15
2.55739e-15
2.4692e-15
2.55255e-15
2.46821e-15
2.55335e-15
2.45931e-15
2.54927e-15
2.45037e-15
2.54033e-15
2.4414e-15
2.52656e-15
2.43501e-15
2.5235e-15
2.43118e-15
2.52076e-15
2.4299e-15
2.51574e-15
2.42604e-15
2.50333e-15
2.42474e-15
2.48867e-15
2.43108e-15
2.48442e-15
2.42987e-15
2.47784e-15
2.42872e-15
2.46642e-15
2.42013e-15
2.45768e-15
2.41914e-15
2.44911e-15
2.42321e-15
2.44564e-15
2.41747e-15
2.44228e-15
2.40449e-15
2.43659e-15
2.39656e-15
2.43346e-15
2.39117e-15
2.43288e-15
2.37862e-15
2.43965e-15
2.36859e-15
2.43929e-15
2.36343e-15
2.43188e-15
2.36309e-15
2.42225e-15
2.36516e-15
2.41987e-15
2.35786e-15
2.4223e-15
2.35297e-15
2.41547e-15
2.3528e-15
2.40414e-15
2.35498e-15
2.39756e-15
2.35261e-15
2.39798e-15
2.35258e-15
2.39618e-15
2.35034e-15
2.39219e-15
2.34592e-15
2.38604e-15
2.34157e-15
2.38669e-15
2.3373e-15
2.38073e-15
2.33309e-15
2.37046e-15
2.33114e-15
2.3625e-15
2.33142e-15
2.35897e-15
2.32528e-15
2.36196e-15
2.32136e-15
2.36283e-15
2.31431e-15
2.36268e-15
2.31156e-15
2.36362e-15
2.3078e-15
2.35938e-15
2.30513e-15
2.35625e-15
2.30044e-15
2.35729e-15
2.29988e-15
2.35634e-15
2.29833e-15
2.35442e-15
2.29781e-15
2.35655e-15
2.29829e-15
2.35672e-15
2.29878e-15
2.35791e-15
2.30025e-15
2.35718e-15
2.29979e-15
2.35745e-15
2.3003e-15
2.35776e-15
2.30272e-15
2.35809e-15
2.30043e-15
2.36032e-15
2.29819e-15
2.36256e-15
2.29321e-15
2.36756e-15
2.29193e-15
2.36982e-15
2.29157e-15
2.3712e-15
2.29121e-15
2.37082e-15
2.29174e-15
2.37224e-15
2.29139e-15
2.37282e-15
2.29191e-15
2.37256e-15
2.29242e-15
2.37148e-15
2.29294e-15
2.36877e-15
2.29428e-15
2.36612e-15
2.29479e-15
2.36517e-15
2.29693e-15
2.36345e-15
2.29743e-15
2.36017e-15
2.30033e-15
2.35694e-15
2.30006e-15
2.35457e-15
2.29979e-15
2.35302e-15
2.30031e-15
2.35151e-15
2.30083e-15
2.35042e-15
2.30211e-15
2.34898e-15
2.30412e-15
2.34795e-15
2.30465e-15
2.34731e-15
2.30447e-15
2.34597e-15
2.30394e-15
2.34395e-15
2.30413e-15
2.34267e-15
2.30468e-15
2.34177e-15
2.30455e-15
2.34089e-15
2.30476e-15
2.33936e-15
2.30533e-15
2.33684e-15
2.3059e-15
2.33536e-15
2.30581e-15
2.33589e-15
2.30574e-15
2.33608e-15
2.306e-15
2.33501e-15
2.30563e-15
2.33426e-15
2.30559e-15
2.33417e-15
2.30556e-15
2.33409e-15
2.30492e-15
2.33308e-15
2.30521e-15
2.33271e-15
2.30521e-15
2.33296e-15
2.30432e-15
2.33321e-15
2.30374e-15
2.33287e-15
2.30361e-15
2.33268e-15
2.30349e-15
2.33266e-15
2.30324e-15
2.3322e-15
2.30314e-15
2.33205e-15
2.30232e-15
2.33262e-15
2.3018e-15
2.33262e-15
2.30143e-15
2.3322e-15
2.30136e-15
2.33165e-15
2.30143e-15
2.33138e-15
2.30123e-15
2.33156e-15
2.30074e-15
2.33174e-15
2.3004e-15
2.33135e-15
2.29964e-15
2.33125e-15
2.29946e-15
2.33145e-15