/*--------------------------------*- C++ -*----------------------------------*\
| =========                 |                                                 |
| \\      /  F ield         | OpenFOAM: The Open Source CFD Toolbox           |
|  \\    /   O peration     | Version:  2012                                  |
|   \\  /    A nd           | Website:  www.openfoam.com                      |
|    \\/     M anipulation  |                                                 |
\*---------------------------------------------------------------------------*/
FoamFile
{
    version     2.0;
    format      ascii;
    class       volVectorField;
    location    "20000";
    object      U;
}
// * * * * * * * * * * * * * * * * * * * * * * * * * * * * * * * * * * * * * //

dimensions      [0 1 -1 0 0 0 0];


internalField   nonuniform List<vector> 
320
(
(0.0200813 -2.01647e-15 -1.74534e-16)
(0.0200813 -5.96862e-17 -1.03495e-31)
(0.0627125 -6.68461e-15 -2.89081e-16)
(0.0627125 3.41153e-18 -1.10728e-17)
(0.11062 -6.42473e-15 -3.50766e-16)
(0.11062 -7.60383e-17 -1.99526e-17)
(0.164382 -5.7253e-15 -4.04296e-16)
(0.164382 -1.32684e-16 -3.86337e-17)
(0.224307 -5.6737e-15 -4.57373e-16)
(0.224307 -2.14546e-16 -6.42092e-17)
(0.289571 -5.53784e-15 -4.98628e-16)
(0.289571 -3.2194e-16 -9.44953e-17)
(0.357064 -5.38254e-15 -5.12798e-16)
(0.357064 -4.53892e-16 -1.24307e-16)
(0.422001 -5.19973e-15 -4.97926e-16)
(0.422001 -5.99795e-16 -1.49309e-16)
(0.480829 -5.00272e-15 -4.66989e-16)
(0.480829 -7.57834e-16 -1.69767e-16)
(0.532631 -4.7928e-15 -4.32383e-16)
(0.532631 -9.10582e-16 -1.86769e-16)
(0.578087 -4.57689e-15 -3.99386e-16)
(0.578087 -1.05419e-15 -2.04565e-16)
(0.618297 -4.34983e-15 -3.6739e-16)
(0.618297 -1.21533e-15 -2.19543e-16)
(0.65428 -4.11608e-15 -3.34336e-16)
(0.65428 -1.36271e-15 -2.82753e-16)
(0.686852 -3.86564e-15 -6.63092e-16)
(0.686852 -1.50183e-15 -3.88443e-16)
(0.716642 -3.61428e-15 -1.11154e-15)
(0.716642 -1.63038e-15 -4.74864e-16)
(0.744122 -3.39123e-15 -1.18106e-15)
(0.744122 -1.74309e-15 -5.37624e-16)
(0.769652 -3.18179e-15 -1.16973e-15)
(0.769652 -1.83464e-15 -5.86343e-16)
(0.793509 -2.96642e-15 -1.11726e-15)
(0.793509 -1.91459e-15 -6.0483e-16)
(0.815902 -2.7541e-15 -9.8469e-16)
(0.815902 -1.96258e-15 -5.93029e-16)
(0.836996 -2.56066e-15 -8.52285e-16)
(0.836996 -1.97612e-15 -5.72615e-16)
(0.856921 -2.40786e-15 -7.26819e-16)
(0.856921 -1.99661e-15 -5.31399e-16)
(0.875781 -2.26906e-15 -6.02078e-16)
(0.875781 -1.99603e-15 -4.95618e-16)
(0.893663 -2.15089e-15 -5.09586e-16)
(0.893663 -1.99878e-15 -4.44391e-16)
(0.910638 -2.04573e-15 -4.25577e-16)
(0.910638 -1.93572e-15 -3.92485e-16)
(0.92677 -1.95592e-15 -3.67551e-16)
(0.92677 -1.86967e-15 -3.46944e-16)
(0.942112 -1.88516e-15 -3.13985e-16)
(0.942112 -1.85222e-15 -3.0265e-16)
(0.956716 -1.8071e-15 -2.84131e-16)
(0.956716 -1.80638e-15 -2.45998e-16)
(0.970624 -1.74667e-15 -1.54642e-16)
(0.970624 -1.76363e-15 -9.59688e-17)
(0.983877 -1.7056e-15 5.10318e-17)
(0.983877 -1.73121e-15 5.50778e-17)
(0.996508 -1.65274e-15 2.78157e-16)
(0.996508 -1.6328e-15 2.85885e-16)
(1.00854 -1.51914e-15 6.95997e-16)
(1.00854 -1.54143e-15 5.00145e-16)
(1.02 -1.45477e-15 7.41724e-16)
(1.02 -1.43899e-15 6.38134e-16)
(1.03088 -1.4028e-15 1.00505e-15)
(1.03088 -1.39306e-15 9.1107e-16)
(1.04118 -1.38548e-15 1.00787e-15)
(1.04118 -1.42863e-15 1.03731e-15)
(1.05085 -1.33927e-15 1.10124e-15)
(1.05085 -1.3738e-15 1.14444e-15)
(1.05983 -1.20559e-15 8.19016e-16)
(1.05983 -1.19399e-15 7.20438e-16)
(1.06799 -1.2888e-15 9.44958e-16)
(1.06799 -1.29083e-15 9.75447e-16)
(1.0751 -1.14516e-15 7.65091e-16)
(1.0751 -1.15989e-15 6.07111e-16)
(1.08075 -8.81594e-16 4.79074e-16)
(1.08075 -9.19985e-16 9.25788e-16)
(1.08418 -7.66233e-16 1.19396e-15)
(1.08418 -7.42381e-16 1.53341e-15)
(0.0200813 -7.61867e-18 7.268e-17)
(0.0200813 -3.557e-18 1.02422e-16)
(0.0627125 -1.46746e-19 1.38233e-16)
(0.0627125 4.06902e-18 3.50781e-16)
(0.11062 -1.23218e-17 1.73951e-16)
(0.11062 1.21438e-18 4.20162e-16)
(0.164382 -2.18004e-17 2.17072e-16)
(0.164382 2.22487e-18 4.8461e-16)
(0.224307 -3.66904e-17 2.6481e-16)
(0.224307 4.27488e-18 5.28234e-16)
(0.289571 -5.62294e-17 3.08415e-16)
(0.289571 5.40768e-18 5.27676e-16)
(0.357064 -8.24466e-17 3.35985e-16)
(0.357064 3.01342e-18 4.66609e-16)
(0.422001 -1.2072e-16 3.43552e-16)
(0.422001 -2.22204e-18 3.55278e-16)
(0.480829 -1.67413e-16 3.36988e-16)
(0.480829 -1.22239e-17 2.21397e-16)
(0.532631 -2.14152e-16 3.23229e-16)
(0.532631 -2.60121e-17 8.61642e-17)
(0.578087 -2.49744e-16 3.09243e-16)
(0.578087 -4.73625e-17 -4.65058e-17)
(0.618297 -2.81967e-16 2.98149e-16)
(0.618297 -8.30163e-17 2.11937e-17)
(0.65428 -3.17035e-16 2.88058e-16)
(0.65428 -1.29104e-16 2.66086e-17)
(0.686852 -3.64824e-16 2.81986e-16)
(0.686852 -1.69254e-16 1.86789e-17)
(0.716642 -4.23089e-16 2.72187e-16)
(0.716642 -2.13689e-16 1.27628e-17)
(0.744122 -4.70604e-16 2.5576e-16)
(0.744122 -2.87568e-16 8.95357e-18)
(0.769652 -5.31323e-16 2.49003e-16)
(0.769652 -3.59388e-16 -7.39835e-18)
(0.793509 -6.15153e-16 2.19593e-16)
(0.793509 -4.28278e-16 -1.14873e-17)
(0.815902 -6.90209e-16 1.78184e-16)
(0.815902 -5.1246e-16 -4.88915e-17)
(0.836996 -7.47691e-16 1.37544e-16)
(0.836996 -5.82941e-16 -1.02273e-16)
(0.856921 -8.02313e-16 1.07981e-16)
(0.856921 -6.92153e-16 -1.15946e-16)
(0.875781 -8.59124e-16 4.11338e-17)
(0.875781 -7.83304e-16 -1.57885e-16)
(0.893663 -9.05596e-16 -7.4891e-17)
(0.893663 -8.2678e-16 -1.99986e-16)
(0.910638 -9.72438e-16 -2.23452e-16)
(0.910638 -8.94183e-16 -1.7386e-16)
(0.92677 -1.0342e-15 -3.97527e-16)
(0.92677 -9.72256e-16 -1.90937e-16)
(0.942112 -1.0907e-15 -4.28923e-16)
(0.942112 -1.05698e-15 -3.38618e-16)
(0.956716 -1.14465e-15 -4.62418e-16)
(0.956716 -1.13677e-15 -3.80063e-16)
(0.970624 -1.17545e-15 -3.81614e-16)
(0.970624 -1.19275e-15 -4.2758e-16)
(0.983877 -1.22351e-15 -4.60439e-16)
(0.983877 -1.2399e-15 -5.43905e-16)
(0.996508 -1.25662e-15 -5.52401e-16)
(0.996508 -1.30006e-15 -5.92954e-16)
(1.00854 -1.27322e-15 -5.35951e-16)
(1.00854 -1.29564e-15 -6.55724e-16)
(1.02 -1.31671e-15 -5.9117e-16)
(1.02 -1.30385e-15 -5.07449e-16)
(1.03088 -1.30726e-15 -8.25329e-16)
(1.03088 -1.345e-15 -9.01257e-16)
(1.04118 -1.34071e-15 -1.11393e-15)
(1.04118 -1.31089e-15 -1.11165e-15)
(1.05085 -1.31344e-15 -1.17032e-15)
(1.05085 -1.30657e-15 -9.57266e-16)
(1.05983 -1.23453e-15 -8.51687e-16)
(1.05983 -1.19502e-15 -7.55941e-16)
(1.06799 -1.28872e-15 -9.81768e-16)
(1.06799 -1.27817e-15 -9.74738e-16)
(1.0751 -1.21003e-15 -5.27581e-16)
(1.0751 -1.20913e-15 -6.32808e-16)
(1.08075 -8.41155e-16 -1.05393e-15)
(1.08075 -9.49214e-16 -7.60237e-16)
(1.08418 -7.75909e-16 -1.47535e-15)
(1.08418 -7.80887e-16 -1.2992e-15)
(1.08418 -7.20956e-16 1.23222e-15)
(1.08418 -6.73938e-16 1.12147e-15)
(1.08075 -5.44165e-16 1.06493e-15)
(1.08075 -5.58435e-16 1.27651e-15)
(1.0751 -4.20568e-16 -2.75155e-17)
(1.0751 -5.32523e-16 3.683e-16)
(1.06799 -2.34884e-16 -5.34312e-17)
(1.06799 -2.95064e-16 -3.89849e-17)
(1.05983 -1.46239e-16 5.07863e-16)
(1.05983 -1.38505e-16 6.28299e-16)
(1.05085 -1.16297e-16 -4.62995e-17)
(1.05085 -1.52259e-16 1.96962e-16)
(1.04118 -7.35846e-17 5.71025e-18)
(1.04118 -7.16192e-17 -3.73069e-17)
(1.03088 -3.66162e-17 -1.03277e-16)
(1.03088 -4.80087e-17 -1.4258e-17)
(1.02 -6.81056e-17 5.93461e-17)
(1.02 -6.92083e-17 -1.34147e-16)
(1.00854 -1.93094e-17 5.32789e-18)
(1.00854 1.14331e-17 -1.04977e-17)
(0.996508 2.26946e-17 -2.22629e-18)
(0.996508 2.78163e-17 -1.91313e-17)
(0.983877 -7.71622e-18 -5.02313e-17)
(0.983877 -6.3535e-17 -4.82546e-18)
(0.970624 -1.8749e-17 -8.71922e-18)
(0.970624 -4.6309e-17 -1.56404e-17)
(0.956716 -1.93751e-17 -1.53706e-17)
(0.956716 -5.63838e-17 -3.92409e-18)
(0.942112 -4.54752e-18 -2.49804e-17)
(0.942112 -3.43693e-17 2.79146e-17)
(0.92677 -3.80336e-17 -3.90159e-17)
(0.92677 1.49531e-17 2.47685e-17)
(0.910638 -2.35938e-17 -5.31275e-18)
(0.910638 -1.035e-17 -1.53243e-17)
(0.893663 -3.22774e-18 -9.16893e-19)
(0.893663 1.84489e-17 -1.09299e-17)
(0.875781 -1.35352e-17 -9.31736e-19)
(0.875781 4.89778e-18 -5.22123e-18)
(0.856921 7.06757e-19 1.81714e-17)
(0.856921 -7.48174e-18 -8.80721e-19)
(0.836996 1.63886e-17 -6.7916e-18)
(0.836996 -5.71185e-19 -9.52571e-18)
(0.815902 9.78957e-18 -7.2801e-18)
(0.815902 7.68495e-18 -1.49187e-17)
(0.793509 1.44185e-17 -1.49835e-17)
(0.793509 2.79889e-18 -1.0549e-17)
(0.769652 -1.00006e-17 -2.38286e-17)
(0.769652 5.77984e-18 -5.56123e-18)
(0.744122 -8.68593e-18 -1.99583e-17)
(0.744122 1.31569e-17 -1.21155e-17)
(0.716642 -2.62403e-17 -1.08929e-17)
(0.716642 1.23052e-17 -1.11537e-17)
(0.686852 -2.07321e-17 -4.52998e-18)
(0.686852 7.87443e-18 -1.43791e-17)
(0.65428 -1.93001e-17 -4.01798e-18)
(0.65428 1.34795e-17 -1.68613e-17)
(0.618297 -1.49609e-17 -1.93696e-18)
(0.618297 8.40039e-18 -2.21298e-17)
(0.578087 -8.36066e-18 -2.80731e-19)
(0.578087 2.44402e-18 -2.046e-17)
(0.532631 -5.3071e-18 -1.56131e-18)
(0.532631 4.79049e-18 -1.94303e-17)
(0.480829 -4.48144e-19 -2.57019e-18)
(0.480829 3.44405e-19 -2.01839e-17)
(0.422001 -2.93654e-18 -3.16649e-18)
(0.422001 8.53296e-21 -2.05627e-17)
(0.357064 -3.00848e-18 -2.87577e-18)
(0.357064 -8.91949e-19 -1.96406e-17)
(0.289571 -3.46551e-18 -2.61385e-18)
(0.289571 -6.30579e-19 -1.76614e-17)
(0.224307 -1.48396e-18 -2.41241e-18)
(0.224307 -8.39464e-19 -1.49547e-17)
(0.164382 -7.23189e-19 -1.96118e-18)
(0.164382 -3.48412e-19 -1.22052e-17)
(0.11062 -4.22844e-19 -1.58288e-18)
(0.11062 -4.04627e-19 -9.79018e-18)
(0.0627125 -3.85479e-20 -1.31639e-18)
(0.0627125 -3.84224e-19 -7.78077e-18)
(0.0200813 -1.31761e-19 -1.03482e-18)
(0.0200813 1.53942e-20 -1.63022e-18)
(1.08418 -6.72179e-16 -1.34982e-15)
(1.08418 -6.71998e-16 -1.37957e-15)
(1.08075 -4.90168e-16 -5.99177e-16)
(1.08075 -5.76908e-16 -5.66058e-16)
(1.0751 -5.25724e-16 -7.25945e-16)
(1.0751 -5.4175e-16 -8.32274e-16)
(1.06799 -3.14134e-16 -3.49318e-16)
(1.06799 -3.32854e-16 -3.38207e-16)
(1.05983 -6.57074e-17 -1.1418e-16)
(1.05983 -1.07483e-16 -1.32912e-16)
(1.05085 -1.25923e-16 -2.39999e-16)
(1.05085 -1.12386e-16 -3.13268e-16)
(1.04118 -5.79912e-17 1.12721e-16)
(1.04118 -1.17449e-16 -1.04691e-16)
(1.03088 -1.23639e-17 -3.65174e-17)
(1.03088 -1.72067e-17 2.15197e-16)
(1.02 -1.26809e-17 1.18753e-16)
(1.02 -2.44553e-18 3.89925e-17)
(1.00854 -5.66981e-17 3.27934e-18)
(1.00854 -2.38666e-17 3.50217e-17)
(0.996508 -1.56369e-17 -2.09051e-30)
(0.996508 1.34396e-17 6.63701e-18)
(0.983877 -2.89058e-17 9.16459e-17)
(0.983877 -2.14918e-19 5.64986e-17)
(0.970624 -4.26949e-17 -8.95821e-18)
(0.970624 -8.71452e-17 3.53736e-17)
(0.956716 -3.86965e-17 -2.26153e-17)
(0.956716 -4.55211e-17 -1.10229e-17)
(0.942112 -3.60281e-17 -9.73397e-18)
(0.942112 -4.97985e-17 -9.06903e-18)
(0.92677 -2.96241e-17 3.48263e-17)
(0.92677 -5.20671e-17 1.95453e-18)
(0.910638 -2.89607e-17 4.35971e-17)
(0.910638 -3.56487e-17 1.80564e-17)
(0.893663 -5.05701e-17 2.39327e-17)
(0.893663 -2.37137e-17 3.12278e-17)
(0.875781 -4.25614e-17 -1.368e-17)
(0.875781 -4.2076e-17 7.56246e-18)
(0.856921 -5.39704e-17 1.05688e-17)
(0.856921 -3.82857e-17 -3.51629e-18)
(0.836996 -2.6269e-17 3.33115e-17)
(0.836996 -3.88551e-17 -1.97871e-19)
(0.815902 -2.30381e-17 2.88997e-17)
(0.815902 -1.97763e-17 6.38297e-18)
(0.793509 -2.02126e-17 1.13419e-17)
(0.793509 -5.48163e-18 8.73816e-18)
(0.769652 8.19226e-18 1.62791e-17)
(0.769652 -1.14637e-17 -3.79634e-18)
(0.744122 -5.76933e-18 1.9998e-17)
(0.744122 -1.27337e-17 -9.95555e-18)
(0.716642 -1.02765e-17 1.99867e-17)
(0.716642 -7.71858e-18 -7.68775e-18)
(0.686852 -4.94812e-18 1.71648e-17)
(0.686852 -1.8749e-19 -9.06656e-18)
(0.65428 -4.07924e-18 1.38759e-17)
(0.65428 5.89625e-18 -5.4945e-18)
(0.618297 2.82463e-18 1.29671e-17)
(0.618297 -7.31476e-18 -3.95489e-18)
(0.578087 -7.91206e-19 1.17178e-17)
(0.578087 2.96995e-18 -2.89466e-18)
(0.532631 -5.01855e-18 1.00603e-17)
(0.532631 2.65149e-18 -5.91622e-18)
(0.480829 -4.78599e-18 9.65701e-18)
(0.480829 1.85451e-18 -5.97601e-18)
(0.422001 -3.30107e-18 9.03812e-18)
(0.422001 3.78249e-19 -5.22391e-18)
(0.357064 -3.25921e-18 8.2344e-18)
(0.357064 1.81601e-18 -5.18885e-18)
(0.289571 -2.57465e-18 7.20902e-18)
(0.289571 2.15899e-18 -5.31539e-18)
(0.224307 -1.62405e-18 6.07324e-18)
(0.224307 5.83953e-19 -4.75284e-18)
(0.164382 -1.4844e-18 5.01591e-18)
(0.164382 5.7974e-19 -4.03466e-18)
(0.11062 -9.96135e-19 4.05403e-18)
(0.11062 2.89897e-19 -3.34142e-18)
(0.0627125 -2.89071e-19 3.24894e-18)
(0.0627125 1.63281e-19 -2.7079e-18)
(0.0200813 -2.10347e-19 9.39881e-19)
(0.0200813 8.55269e-20 -1.84111e-19)
)
;

boundaryField
{
    walls
    {
        type            fixedValue;
        value           uniform (0 0 0);
    }
    inlet
    {
        type            cyclic;
    }
    outlet
    {
        type            cyclic;
    }
    sides
    {
        type            empty;
    }
}


// ************************************************************************* //
