/*--------------------------------*- C++ -*----------------------------------*\
| =========                 |                                                 |
| \\      /  F ield         | OpenFOAM: The Open Source CFD Toolbox           |
|  \\    /   O peration     | Version:  2012                                  |
|   \\  /    A nd           | Website:  www.openfoam.com                      |
|    \\/     M anipulation  |                                                 |
\*---------------------------------------------------------------------------*/
FoamFile
{
    version     2.0;
    format      ascii;
    class       volScalarField;
    location    "9000";
    object      p;
}
// * * * * * * * * * * * * * * * * * * * * * * * * * * * * * * * * * * * * * //

dimensions      [0 2 -2 0 0 0 0];


internalField   nonuniform List<scalar> 
2560
(
3.48264e-15
4.30235e-14
7.20637e-15
4.30228e-14
7.82204e-15
4.30219e-14
7.60128e-15
4.30205e-14
7.45789e-15
4.30185e-14
7.3881e-15
4.3016e-14
7.32845e-15
4.3013e-14
7.26453e-15
4.30094e-14
7.19997e-15
4.30052e-14
7.13695e-15
4.30005e-14
7.07582e-15
4.29952e-14
7.01665e-15
4.29894e-14
6.95949e-15
4.2983e-14
6.90435e-15
4.2976e-14
6.8511e-15
4.29685e-14
6.79974e-15
4.29605e-14
6.75023e-15
4.2952e-14
6.70258e-15
4.29429e-14
6.65669e-15
4.29333e-14
6.6127e-15
4.29232e-14
6.5705e-15
4.29125e-14
6.53e-15
4.29014e-14
6.49124e-15
4.28898e-14
6.45444e-15
4.28776e-14
6.41939e-15
4.28647e-14
6.38595e-15
4.28513e-14
6.35423e-15
4.28374e-14
6.32422e-15
4.2823e-14
6.29595e-15
4.28081e-14
6.26927e-15
4.27926e-14
6.24424e-15
4.27765e-14
6.2209e-15
4.27596e-14
6.1992e-15
4.27422e-14
6.17914e-15
4.27243e-14
6.16065e-15
4.27061e-14
6.14378e-15
4.26872e-14
6.12833e-15
4.26676e-14
6.11459e-15
4.26475e-14
6.10243e-15
4.26268e-14
6.09172e-15
4.26055e-14
6.08244e-15
4.25836e-14
6.07458e-15
4.25612e-14
6.06838e-15
4.25382e-14
6.06354e-15
4.25145e-14
6.06034e-15
4.249e-14
6.05855e-15
4.24647e-14
6.05802e-15
4.24388e-14
6.05944e-15
4.2412e-14
6.06215e-15
4.23845e-14
6.06628e-15
4.23562e-14
6.07222e-15
4.23271e-14
6.07941e-15
4.22973e-14
6.08803e-15
4.22667e-14
6.09823e-15
4.2235e-14
6.10996e-15
4.22024e-14
6.12317e-15
4.21692e-14
6.13791e-15
4.21353e-14
6.15464e-15
4.21002e-14
6.17307e-15
4.20641e-14
6.19303e-15
4.20268e-14
6.21488e-15
4.19886e-14
6.23858e-15
4.19496e-14
6.26411e-15
4.1909e-14
6.29132e-15
4.18677e-14
6.32004e-15
4.18253e-14
6.35065e-15
4.17816e-14
6.38272e-15
4.17367e-14
6.41675e-15
4.16905e-14
6.45302e-15
4.16431e-14
6.49122e-15
4.15948e-14
6.53047e-15
4.15455e-14
6.57187e-15
4.14948e-14
6.6157e-15
4.14424e-14
6.66194e-15
4.13885e-14
6.71087e-15
4.13336e-14
6.76216e-15
4.1277e-14
6.81548e-15
4.12187e-14
6.87141e-15
4.11591e-14
6.92928e-15
4.10979e-14
6.99002e-15
4.10358e-14
7.05226e-15
4.09732e-14
7.11661e-15
4.09078e-14
7.18437e-15
4.08392e-14
7.25411e-15
4.077e-14
7.32509e-15
4.07007e-14
7.39895e-15
4.06302e-14
7.47421e-15
4.05585e-14
7.55149e-15
4.04842e-14
7.63107e-15
4.04084e-14
7.71286e-15
4.03335e-14
7.79562e-15
4.02576e-14
7.87999e-15
4.01809e-14
7.96624e-15
4.01042e-14
8.05384e-15
4.00265e-14
8.14345e-15
3.9947e-14
8.23335e-15
3.98667e-14
8.32497e-15
3.97881e-14
8.41572e-15
3.97113e-14
8.50622e-15
3.96332e-14
8.6021e-15
3.95498e-14
8.70076e-15
3.94652e-14
8.80374e-15
3.93787e-14
8.90663e-15
3.92914e-14
9.01356e-15
3.92032e-14
9.12527e-15
3.91144e-14
9.23896e-15
3.90232e-14
9.35445e-15
3.89317e-14
9.47335e-15
3.88372e-14
9.59457e-15
3.87407e-14
9.71792e-15
3.86451e-14
9.84225e-15
3.85506e-14
9.96641e-15
3.84564e-14
1.00901e-14
3.83599e-14
1.0215e-14
3.82631e-14
1.03409e-14
3.8169e-14
1.04664e-14
3.8076e-14
1.05914e-14
3.79812e-14
1.07175e-14
3.78879e-14
1.08405e-14
3.77942e-14
1.0963e-14
3.77032e-14
1.10886e-14
3.76074e-14
1.12122e-14
3.75117e-14
1.13373e-14
3.74164e-14
1.14689e-14
3.73177e-14
1.16035e-14
3.72166e-14
1.17388e-14
3.71177e-14
1.18766e-14
3.70189e-14
1.20123e-14
3.69206e-14
1.21498e-14
3.68208e-14
1.22803e-14
3.67197e-14
1.24204e-14
3.66155e-14
1.25634e-14
3.65147e-14
1.27153e-14
3.64069e-14
1.28739e-14
3.62921e-14
1.30322e-14
3.61771e-14
1.31921e-14
3.60621e-14
1.33599e-14
3.59428e-14
1.35263e-14
3.58239e-14
1.37021e-14
3.57079e-14
1.38782e-14
3.55859e-14
1.40473e-14
3.54537e-14
1.42182e-14
3.53339e-14
1.43882e-14
3.52177e-14
1.45568e-14
3.50941e-14
1.47261e-14
3.49746e-14
1.48909e-14
3.48617e-14
1.50533e-14
3.47465e-14
1.52173e-14
3.46292e-14
1.5378e-14
3.45076e-14
1.55373e-14
3.4389e-14
1.56947e-14
3.42713e-14
1.58544e-14
3.41616e-14
1.60115e-14
3.40556e-14
1.61701e-14
3.39489e-14
1.63132e-14
3.38392e-14
1.64569e-14
3.37221e-14
1.66007e-14
3.36049e-14
1.67467e-14
3.35094e-14
1.69014e-14
3.34095e-14
1.70525e-14
3.3296e-14
1.72043e-14
3.31809e-14
1.73587e-14
3.30621e-14
1.75203e-14
3.29447e-14
1.76886e-14
3.28263e-14
1.78536e-14
3.27024e-14
1.80246e-14
3.25754e-14
1.81915e-14
3.24503e-14
1.8354e-14
3.23274e-14
1.85165e-14
3.22017e-14
1.86738e-14
3.20834e-14
1.88306e-14
3.19726e-14
1.89913e-14
3.18595e-14
1.91457e-14
3.17394e-14
1.92935e-14
3.16173e-14
1.94443e-14
3.14983e-14
1.95928e-14
3.13776e-14
1.97387e-14
3.12602e-14
1.98817e-14
3.11413e-14
2.00265e-14
3.10358e-14
2.01629e-14
3.09339e-14
2.03055e-14
3.08258e-14
2.0439e-14
3.07115e-14
2.05682e-14
3.05961e-14
2.06978e-14
3.04845e-14
2.08225e-14
3.03669e-14
2.09523e-14
3.02382e-14
2.10769e-14
3.01083e-14
2.11911e-14
2.99772e-14
2.13099e-14
2.98447e-14
2.1413e-14
2.97209e-14
2.15153e-14
2.95956e-14
2.16168e-14
2.94586e-14
2.17172e-14
2.93199e-14
2.18218e-14
2.91944e-14
2.19203e-14
2.90767e-14
2.20177e-14
2.89316e-14
2.21142e-14
2.87938e-14
2.22148e-14
2.86833e-14
2.23196e-14
2.85695e-14
2.24186e-14
2.84372e-14
2.25221e-14
2.83262e-14
2.26002e-14
2.82162e-14
2.2683e-14
2.81017e-14
2.27659e-14
2.79977e-14
2.28489e-14
2.78988e-14
2.29222e-14
2.78049e-14
2.2986e-14
2.77157e-14
2.30503e-14
2.7611e-14
2.31054e-14
2.75008e-14
2.31515e-14
2.74046e-14
2.31887e-14
2.73223e-14
2.3227e-14
2.7214e-14
2.32668e-14
2.70892e-14
2.33083e-14
2.69774e-14
2.33521e-14
2.68782e-14
2.33884e-14
2.68013e-14
2.34175e-14
2.67066e-14
2.34397e-14
2.65943e-14
2.34553e-14
2.64936e-14
2.34745e-14
2.6424e-14
2.34873e-14
2.63165e-14
2.34942e-14
2.62004e-14
2.34956e-14
2.61047e-14
2.34919e-14
2.60292e-14
2.34731e-14
2.59346e-14
2.34784e-14
2.58212e-14
2.34693e-14
2.57177e-14
2.34657e-14
2.56237e-14
2.34486e-14
2.55488e-14
2.34277e-14
2.54543e-14
2.34032e-14
2.53303e-14
2.33755e-14
2.52249e-14
2.33643e-14
2.51573e-14
2.33505e-14
2.50503e-14
2.33255e-14
2.49229e-14
2.32998e-14
2.48126e-14
2.32742e-14
2.47095e-14
2.32494e-14
2.46038e-14
2.32169e-14
2.44759e-14
2.31778e-14
2.43627e-14
2.3152e-14
2.42636e-14
2.31214e-14
2.41404e-14
2.31063e-14
2.40107e-14
2.30805e-14
2.38919e-14
2.30549e-14
2.3792e-14
2.30215e-14
2.37006e-14
2.29813e-14
2.35989e-14
2.29548e-14
2.34679e-14
2.28706e-14
2.33425e-14
2.27845e-14
2.32222e-14
2.2715e-14
2.31068e-14
2.26632e-14
2.30134e-14
2.2576e-14
2.29232e-14
2.25256e-14
2.28364e-14
2.24592e-14
2.27169e-14
2.24132e-14
2.25278e-14
2.23203e-14
2.24079e-14
2.22343e-14
2.23203e-14
2.21722e-14
2.22296e-14
2.20828e-14
2.2117e-14
2.19676e-14
2.20164e-14
2.1878e-14
2.18928e-14
2.17625e-14
2.17624e-14
2.16909e-14
2.16592e-14
2.1612e-14
2.15816e-14
2.15606e-14
2.14946e-14
2.14365e-14
2.13799e-14
2.13753e-14
2.12548e-14
2.1295e-14
2.12004e-14
2.11788e-14
2.11505e-14
2.10577e-14
2.10914e-14
2.0929e-14
2.09602e-14
2.0809e-14
2.08405e-14
2.07464e-14
2.07814e-14
2.07085e-14
2.075e-14
2.06303e-14
2.06982e-14
2.05276e-14
2.05958e-14
2.04e-14
2.04915e-14
2.03413e-14
2.03867e-14
2.02578e-14
2.0342e-14
2.0243e-14
2.02811e-14
2.01749e-14
2.01875e-14
2.00867e-14
2.00762e-14
1.99944e-14
1.99763e-14
1.99276e-14
1.99477e-14
1.98388e-14
1.99158e-14
1.9725e-14
1.98093e-14
1.96596e-14
1.97035e-14
1.95832e-14
1.96846e-14
1.95218e-14
1.9609e-14
1.95071e-14
1.95626e-14
1.94535e-14
1.94856e-14
1.94496e-14
1.94335e-14
1.93572e-14
1.94019e-14
1.92848e-14
1.93678e-14
1.92559e-14
1.93362e-14
1.92426e-14
1.92796e-14
1.91378e-14
1.91951e-14
1.91274e-14
1.9166e-14
1.90522e-14
1.90813e-14
1.90188e-14
1.90459e-14
1.89689e-14
1.90325e-14
1.89506e-14
1.9021e-14
1.894e-14
1.8987e-14
1.88639e-14
1.89548e-14
1.8919e-14
1.89312e-14
1.89396e-14
1.89077e-14
1.89604e-14
1.88786e-14
1.89643e-14
1.88869e-14
1.89492e-14
1.8909e-14
1.89111e-14
1.89257e-14
1.88667e-14
1.88946e-14
1.8883e-14
1.88881e-14
1.887e-14
1.8904e-14
1.88464e-14
1.8898e-14
1.88551e-14
1.88961e-14
1.88721e-14
1.89182e-14
1.8918e-14
1.89444e-14
1.89269e-14
1.89485e-14
1.8969e-14
1.8975e-14
3.99854e-14
4.16444e-14
3.99851e-14
4.16443e-14
3.99847e-14
4.16442e-14
3.99839e-14
4.16439e-14
3.9983e-14
4.16436e-14
3.99817e-14
4.16432e-14
3.99801e-14
4.16427e-14
3.99783e-14
4.16421e-14
3.99761e-14
4.16414e-14
3.99738e-14
4.16405e-14
3.99711e-14
4.16395e-14
3.99681e-14
4.16384e-14
3.99649e-14
4.16372e-14
3.99615e-14
4.16359e-14
3.99577e-14
4.16345e-14
3.99537e-14
4.16329e-14
3.99494e-14
4.16313e-14
3.99449e-14
4.16295e-14
3.99401e-14
4.16276e-14
3.9935e-14
4.16255e-14
3.99296e-14
4.16234e-14
3.99239e-14
4.16211e-14
3.9918e-14
4.16188e-14
3.99118e-14
4.16162e-14
3.99054e-14
4.16134e-14
3.98988e-14
4.16103e-14
3.98919e-14
4.1607e-14
3.98848e-14
4.16037e-14
3.98775e-14
4.16002e-14
3.987e-14
4.15965e-14
3.98622e-14
4.15924e-14
3.98541e-14
4.1588e-14
3.98457e-14
4.15837e-14
3.98373e-14
4.15792e-14
3.98286e-14
4.15743e-14
3.98197e-14
4.15692e-14
3.98105e-14
4.15637e-14
3.98012e-14
4.1558e-14
3.97916e-14
4.15518e-14
3.97818e-14
4.15453e-14
3.97718e-14
4.15387e-14
3.97612e-14
4.15319e-14
3.97506e-14
4.15247e-14
3.97398e-14
4.15171e-14
3.97286e-14
4.15094e-14
3.97169e-14
4.15015e-14
3.9705e-14
4.14931e-14
3.96925e-14
4.14848e-14
3.96795e-14
4.14759e-14
3.9666e-14
4.14668e-14
3.96523e-14
4.14571e-14
3.96381e-14
4.14468e-14
3.96238e-14
4.14361e-14
3.9609e-14
4.14248e-14
3.95937e-14
4.14129e-14
3.95779e-14
4.14004e-14
3.95617e-14
4.13871e-14
3.9545e-14
4.13732e-14
3.95276e-14
4.13587e-14
3.95099e-14
4.13432e-14
3.94918e-14
4.13269e-14
3.94735e-14
4.13097e-14
3.94543e-14
4.12922e-14
3.94345e-14
4.12734e-14
3.94143e-14
4.12537e-14
3.93944e-14
4.12329e-14
3.93732e-14
4.12113e-14
3.93512e-14
4.11895e-14
3.93286e-14
4.11665e-14
3.93052e-14
4.1142e-14
3.92806e-14
4.1117e-14
3.92556e-14
4.10913e-14
3.92297e-14
4.10651e-14
3.92027e-14
4.10384e-14
3.91743e-14
4.10107e-14
3.91451e-14
4.09816e-14
3.9115e-14
4.0952e-14
3.90842e-14
4.09219e-14
3.90522e-14
4.08901e-14
3.90188e-14
4.08568e-14
3.89843e-14
4.08226e-14
3.89498e-14
4.07872e-14
3.89141e-14
4.0751e-14
3.88771e-14
4.0714e-14
3.88397e-14
4.06757e-14
3.88009e-14
4.06362e-14
3.87607e-14
4.05958e-14
3.87192e-14
4.05531e-14
3.86771e-14
4.05088e-14
3.86332e-14
4.04643e-14
3.85896e-14
4.04177e-14
3.85443e-14
4.03715e-14
3.84978e-14
4.03243e-14
3.845e-14
4.02732e-14
3.84018e-14
4.02211e-14
3.83524e-14
4.01713e-14
3.83011e-14
4.01223e-14
3.82496e-14
4.00709e-14
3.81986e-14
4.00145e-14
3.81474e-14
3.99563e-14
3.80961e-14
3.9899e-14
3.80414e-14
3.98418e-14
3.79875e-14
3.97845e-14
3.79346e-14
3.97239e-14
3.78783e-14
3.96625e-14
3.7823e-14
3.95994e-14
3.77636e-14
3.95347e-14
3.77026e-14
3.94719e-14
3.7642e-14
3.94056e-14
3.7581e-14
3.93387e-14
3.75177e-14
3.92729e-14
3.74531e-14
3.92046e-14
3.73882e-14
3.91338e-14
3.73231e-14
3.90623e-14
3.72569e-14
3.89912e-14
3.71907e-14
3.89196e-14
3.71196e-14
3.88465e-14
3.70506e-14
3.87709e-14
3.69798e-14
3.86977e-14
3.69093e-14
3.86212e-14
3.68381e-14
3.85432e-14
3.67673e-14
3.84639e-14
3.66951e-14
3.83832e-14
3.66236e-14
3.83031e-14
3.65518e-14
3.82249e-14
3.64829e-14
3.81443e-14
3.64078e-14
3.80625e-14
3.63326e-14
3.79837e-14
3.62597e-14
3.79016e-14
3.61892e-14
3.78163e-14
3.61169e-14
3.7732e-14
3.60429e-14
3.76509e-14
3.59695e-14
3.75645e-14
3.58946e-14
3.74771e-14
3.58162e-14
3.73931e-14
3.57431e-14
3.73061e-14
3.5671e-14
3.72204e-14
3.55957e-14
3.7134e-14
3.55172e-14
3.70491e-14
3.54379e-14
3.69613e-14
3.53623e-14
3.68706e-14
3.5277e-14
3.67816e-14
3.51958e-14
3.6699e-14
3.51163e-14
3.66138e-14
3.50365e-14
3.65214e-14
3.49543e-14
3.64288e-14
3.48719e-14
3.63406e-14
3.47896e-14
3.62569e-14
3.47073e-14
3.6171e-14
3.46231e-14
3.60782e-14
3.45368e-14
3.59879e-14
3.44533e-14
3.58908e-14
3.43682e-14
3.58035e-14
3.42861e-14
3.57167e-14
3.42025e-14
3.56209e-14
3.41199e-14
3.55211e-14
3.40432e-14
3.54219e-14
3.3956e-14
3.53283e-14
3.38725e-14
3.52357e-14
3.37907e-14
3.51416e-14
3.37058e-14
3.50462e-14
3.36155e-14
3.49496e-14
3.35344e-14
3.48397e-14
3.34458e-14
3.47313e-14
3.33619e-14
3.46267e-14
3.32756e-14
3.45164e-14
3.31821e-14
3.44102e-14
3.30913e-14
3.43033e-14
3.29984e-14
3.41763e-14
3.29035e-14
3.40536e-14
3.28019e-14
3.39453e-14
3.27035e-14
3.38219e-14
3.26134e-14
3.36834e-14
3.2522e-14
3.35546e-14
3.24094e-14
3.34404e-14
3.23057e-14
3.33163e-14
3.21959e-14
3.31972e-14
3.20801e-14
3.30932e-14
3.19783e-14
3.29797e-14
3.18757e-14
3.28616e-14
3.17773e-14
3.27492e-14
3.16682e-14
3.26426e-14
3.15584e-14
3.25419e-14
3.14531e-14
3.24223e-14
3.13421e-14
3.22989e-14
3.12356e-14
3.21871e-14
3.11337e-14
3.20719e-14
3.10414e-14
3.19484e-14
3.09388e-14
3.18168e-14
3.08411e-14
3.16922e-14
3.07334e-14
3.15648e-14
3.06208e-14
3.14295e-14
3.05084e-14
3.13118e-14
3.03963e-14
3.12017e-14
3.02844e-14
3.10895e-14
3.01878e-14
3.09604e-14
3.00966e-14
3.08244e-14
2.99808e-14
3.07069e-14
2.98755e-14
3.05729e-14
2.97861e-14
3.04223e-14
2.96823e-14
3.02804e-14
2.95595e-14
3.0162e-14
2.94326e-14
3.00374e-14
2.93215e-14
2.98967e-14
2.92164e-14
2.97449e-14
2.90972e-14
2.96221e-14
2.89741e-14
2.94983e-14
2.88568e-14
2.93535e-14
2.87455e-14
2.92179e-14
2.86202e-14
2.91015e-14
2.84907e-14
2.89744e-14
2.8337e-14
2.88669e-14
2.82084e-14
2.87396e-14
2.80948e-14
2.86029e-14
2.79861e-14
2.84667e-14
2.78526e-14
2.8331e-14
2.7724e-14
2.81859e-14
2.76099e-14
2.80414e-14
2.75106e-14
2.79073e-14
2.73966e-14
2.77834e-14
2.72777e-14
2.76499e-14
2.7144e-14
2.75167e-14
2.70248e-14
2.73841e-14
2.69104e-14
2.72619e-14
2.68104e-14
2.71304e-14
2.66859e-14
2.70091e-14
2.65368e-14
2.68688e-14
2.64213e-14
2.67197e-14
2.63101e-14
2.66003e-14
2.61935e-14
2.64814e-14
2.60811e-14
2.63339e-14
2.59635e-14
2.61674e-14
2.58317e-14
2.60488e-14
2.56947e-14
2.59202e-14
2.55521e-14
2.57723e-14
2.54323e-14
2.56246e-14
2.53067e-14
2.5467e-14
2.51658e-14
2.53275e-14
2.50474e-14
2.52062e-14
2.4913e-14
2.50842e-14
2.47907e-14
2.4943e-14
2.46707e-14
2.48107e-14
2.45528e-14
2.46684e-14
2.44463e-14
2.45345e-14
2.43419e-14
2.44088e-14
2.42304e-14
2.42534e-14
2.40565e-14
2.4123e-14
2.39298e-14
2.39997e-14
2.38306e-14
2.38471e-14
2.37418e-14
2.37008e-14
2.35917e-14
2.3596e-14
2.34521e-14
2.34791e-14
2.33398e-14
2.33505e-14
2.32188e-14
2.32279e-14
2.31607e-14
2.31109e-14
2.30593e-14
2.29802e-14
2.29689e-14
2.28539e-14
2.29087e-14
2.27488e-14
2.27563e-14
2.26635e-14
2.2598e-14
2.25996e-14
2.25182e-14
2.25082e-14
2.24126e-14
2.23894e-14
2.22991e-14
2.22609e-14
2.22134e-14
2.2157e-14
2.20869e-14
2.20945e-14
2.19689e-14
2.19899e-14
2.1858e-14
2.18783e-14
2.17545e-14
2.17769e-14
2.16241e-14
2.16698e-14
2.15157e-14
2.1574e-14
2.13955e-14
2.14559e-14
2.12804e-14
2.12986e-14
2.1156e-14
2.11665e-14
2.10557e-14
2.10919e-14
2.09776e-14
2.10262e-14
2.08714e-14
2.09369e-14
2.07845e-14
2.08407e-14
2.06857e-14
2.07217e-14
2.06087e-14
2.06268e-14
2.04906e-14
2.05396e-14
2.04083e-14
2.04294e-14
2.03298e-14
2.03094e-14
2.02729e-14
2.02234e-14
2.02245e-14
2.01395e-14
2.01271e-14
2.01018e-14
2.00228e-14
2.00524e-14
1.99383e-14
1.99793e-14
1.99184e-14
1.98849e-14
1.98204e-14
1.98247e-14
1.97014e-14
1.97995e-14
1.96706e-14
1.97296e-14
1.96125e-14
1.96705e-14
1.95566e-14
1.9623e-14
1.95001e-14
1.95598e-14
1.94451e-14
1.94796e-14
1.93941e-14
1.94356e-14
1.93738e-14
1.93716e-14
1.93871e-14
1.9312e-14
1.92811e-14
1.92788e-14
1.92647e-14
1.92508e-14
1.93134e-14
1.92027e-14
1.92799e-14
1.91254e-14
1.91719e-14
1.90909e-14
1.91106e-14
1.90519e-14
1.91168e-14
1.89847e-14
1.90483e-14
1.89568e-14
1.89977e-14
1.89458e-14
1.89821e-14
1.89311e-14
1.9024e-14
1.89136e-14
1.90081e-14
1.89093e-14
1.8984e-14
1.89418e-14
1.89944e-14
1.89453e-14
1.89474e-14
1.89215e-14
1.89566e-14
1.89445e-14
1.89497e-14
1.89447e-14
1.89746e-14
1.89711e-14
1.90088e-14
1.89555e-14
1.90382e-14
1.89813e-14
1.90396e-14
1.90008e-14
1.90335e-14
1.90182e-14
1.89817e-14
1.90217e-14
1.89852e-14
1.9051e-14
1.90432e-14
1.90903e-14
1.90676e-14
1.91374e-14
1.90784e-14
1.91268e-14
1.91483e-14
1.91706e-14
1.91869e-14
1.91936e-14
1.91956e-14
1.92138e-14
1.92697e-14
1.92564e-14
1.93203e-14
1.93183e-14
1.92979e-14
1.93293e-14
1.93424e-14
1.93417e-14
1.93808e-14
1.94005e-14
1.93856e-14
1.94355e-14
1.94025e-14
1.94747e-14
1.94555e-14
1.94946e-14
1.95004e-14
1.95174e-14
1.9539e-14
1.95409e-14
1.95728e-14
1.95628e-14
1.96021e-14
1.95826e-14
1.9599e-14
1.96786e-14
1.969e-14
1.9726e-14
1.97741e-14
1.9773e-14
1.98011e-14
1.98727e-14
1.98463e-14
1.99494e-14
1.99638e-14
2.00338e-14
2.00462e-14
2.01237e-14
2.01226e-14
2.01916e-14
2.02247e-14
2.02932e-14
2.02945e-14
2.03421e-14
2.03317e-14
2.03641e-14
2.04536e-14
2.04449e-14
2.05768e-14
2.05537e-14
2.06141e-14
2.06604e-14
2.06962e-14
2.07397e-14
2.07784e-14
2.08065e-14
2.07986e-14
2.0874e-14
2.08441e-14
2.08988e-14
2.09168e-14
2.09241e-14
2.09872e-14
2.0962e-14
2.09941e-14
2.1026e-14
2.10428e-14
2.10718e-14
2.11188e-14
2.11153e-14
2.11121e-14
2.11388e-14
2.12281e-14
2.11593e-14
2.12807e-14
2.122e-14
2.1285e-14
2.12581e-14
2.13039e-14
2.13085e-14
2.13865e-14
2.13729e-14
2.15021e-14
2.14508e-14
2.1553e-14
2.14746e-14
2.154e-14
2.14933e-14
2.15789e-14
2.15422e-14
2.16526e-14
2.16218e-14
2.16771e-14
2.16644e-14
2.17017e-14
2.17223e-14
2.17763e-14
2.17977e-14
2.18325e-14
2.18569e-14
2.18531e-14
2.18823e-14
2.18553e-14
2.19431e-14
2.19067e-14
2.20061e-14
2.19373e-14
2.20537e-14
2.19277e-14
2.20858e-14
2.19643e-14
2.21214e-14
2.19936e-14
2.21783e-14
2.19971e-14
2.22035e-14
2.19922e-14
2.2197e-14
2.20149e-14
2.22313e-14
2.20837e-14
2.22707e-14
2.21091e-14
2.22964e-14
2.21638e-14
2.2326e-14
2.2213e-14
2.2359e-14
2.22395e-14
2.23768e-14
2.2225e-14
2.23982e-14
2.22611e-14
2.23864e-14
2.23309e-14
2.24143e-14
2.23429e-14
2.24442e-14
2.23247e-14
2.24199e-14
2.23135e-14
2.24066e-14
2.23563e-14
2.24324e-14
2.23787e-14
2.24595e-14
2.23903e-14
2.24692e-14
2.24002e-14
2.24612e-14
2.24089e-14
2.24634e-14
2.24069e-14
2.24757e-14
2.24131e-14
2.24698e-14
2.24084e-14
2.24645e-14
2.23929e-14
2.2469e-14
2.2395e-14
2.24836e-14
2.2405e-14
2.24892e-14
2.2423e-14
2.24957e-14
2.24299e-14
2.2522e-14
2.24449e-14
2.25394e-14
2.24582e-14
2.25184e-14
2.24703e-14
2.25073e-14
2.24814e-14
2.25353e-14
2.24913e-14
2.25439e-14
2.25e-14
2.25524e-14
2.25077e-14
2.25512e-14
2.25145e-14
2.25398e-14
2.25205e-14
2.25576e-14
2.25255e-14
2.25847e-14
2.25295e-14
2.25919e-14
2.25323e-14
2.2599e-14
2.2534e-14
2.2616e-14
2.25343e-14
2.2643e-14
2.25431e-14
2.26603e-14
2.25603e-14
2.26578e-14
2.25662e-14
2.26752e-14
2.25707e-14
2.27027e-14
2.25837e-14
2.27206e-14
2.25952e-14
2.27386e-14
2.26052e-14
2.27269e-14
2.26341e-14
2.27152e-14
2.2632e-14
2.27435e-14
2.26388e-14
2.27719e-14
2.26443e-14
2.27604e-14
2.26487e-14
2.2759e-14
2.2657e-14
2.27627e-14
2.26642e-14
2.27765e-14
2.26754e-14
2.27855e-14
2.26856e-14
2.27996e-14
2.26948e-14
2.28038e-14
2.2708e-14
2.28133e-14
2.27203e-14
2.28178e-14
2.27318e-14
2.28377e-14
2.27575e-14
2.28326e-14
2.27877e-14
2.28225e-14
2.27923e-14
2.28324e-14
2.28016e-14
2.28473e-14
2.28204e-14
2.28622e-14
2.28238e-14
2.28822e-14
2.28268e-14
2.28922e-14
2.28292e-14
2.29074e-14
2.28412e-14
2.29328e-14
2.28527e-14
2.29333e-14
2.28586e-14
2.29291e-14
2.28591e-14
2.29501e-14
2.28642e-14
2.29763e-14
2.28687e-14
2.30079e-14
2.28725e-14
2.30249e-14
2.28707e-14
2.30424e-14
2.28733e-14
2.30554e-14
2.28801e-14
2.3064e-14
2.28812e-14
2.30831e-14
2.28815e-14
2.31079e-14
2.28861e-14
2.31233e-14
2.28998e-14
2.31345e-14
2.29028e-14
2.31364e-14
2.29199e-14
2.31488e-14
2.29314e-14
2.3147e-14
2.29373e-14
2.31408e-14
2.29525e-14
2.31401e-14
2.29573e-14
2.31496e-14
2.29713e-14
2.31546e-14
2.29848e-14
2.316e-14
2.29929e-14
2.31756e-14
2.30005e-14
2.31914e-14
2.30101e-14
2.31955e-14
2.30168e-14
2.32047e-14
2.30278e-14
2.32119e-14
2.30432e-14
2.32193e-14
2.30582e-14
2.32247e-14
2.30585e-14
2.32375e-14
2.30631e-14
2.32481e-14
2.30698e-14
2.32615e-14
2.30784e-14
2.32727e-14
2.30937e-14
2.32912e-14
2.31016e-14
2.32982e-14
2.3102e-14
2.32938e-14
2.31068e-14
2.32966e-14
2.31136e-14
2.33021e-14
2.31225e-14
2.33101e-14
2.31263e-14
2.33206e-14
2.31276e-14
2.33268e-14
2.31332e-14
2.33308e-14
2.31385e-14
2.33374e-14
2.31412e-14
2.3335e-14
2.31437e-14
2.33352e-14
2.31437e-14
2.33491e-14
2.31479e-14
2.33631e-14
2.31474e-14
2.33684e-14
2.31467e-14
2.3376e-14
2.31457e-14
2.33861e-14
2.31467e-14
2.33919e-14
2.31431e-14
2.33957e-14
2.31392e-14
2.34041e-14
2.31416e-14
2.34148e-14
2.31438e-14
2.34235e-14
2.31457e-14
2.34325e-14
2.31431e-14
2.34394e-14
2.31445e-14
2.34423e-14
2.31457e-14
2.34454e-14
2.31487e-14
2.34488e-14
2.31494e-14
2.34523e-14
2.31509e-14
2.34549e-14
2.31543e-14
2.34557e-14
2.31574e-14
2.34547e-14
2.31603e-14
2.34569e-14
2.3162e-14
2.34613e-14
2.31635e-14
2.34608e-14
2.31637e-14
2.34605e-14
2.31668e-14
2.34603e-14
2.31677e-14
2.34623e-14
2.31675e-14
2.34664e-14
2.3169e-14
2.34687e-14
2.31684e-14
2.34702e-14
2.31677e-14
2.34708e-14
2.31688e-14
2.34687e-14
2.31706e-14
2.34687e-14
2.31704e-14
2.34698e-14
2.31728e-14
2.34673e-14
2.31751e-14
2.3464e-14
2.31763e-14
2.34618e-14
2.31782e-14
2.34624e-14
2.31792e-14
2.34622e-14
2.318e-14
2.34586e-14
2.31825e-14
2.34552e-14
2.31857e-14
2.34527e-14
2.31879e-14
2.3453e-14
2.31891e-14
2.34516e-14
2.31903e-14
2.34503e-14
2.31921e-14
2.34483e-14
2.31931e-14
2.34481e-14
2.31939e-14
2.34471e-14
2.31955e-14
2.34446e-14
2.31962e-14
2.3443e-14
2.31975e-14
2.34415e-14
2.3198e-14
2.34423e-14
2.31973e-14
2.34429e-14
2.3197e-14
2.34416e-14
2.31958e-14
2.34393e-14
2.31956e-14
2.34378e-14
2.31962e-14
2.34367e-14
2.31966e-14
2.34361e-14
2.31967e-14
2.34355e-14
2.31977e-14
2.34336e-14
2.3198e-14
2.34308e-14
2.31979e-14
2.3429e-14
2.31991e-14
2.3428e-14
2.31999e-14
2.3427e-14
2.32012e-14
2.34255e-14
2.32019e-14
2.3424e-14
2.32025e-14
2.34225e-14
2.32031e-14
2.34208e-14
2.32042e-14
2.34189e-14
2.3205e-14
2.34176e-14
2.32061e-14
2.34161e-14
2.32068e-14
2.34146e-14
2.32074e-14
2.34129e-14
2.3208e-14
2.34116e-14
2.32086e-14
2.34105e-14
2.32094e-14
2.3409e-14
2.32099e-14
2.3408e-14
2.32101e-14
2.34076e-14
2.32105e-14
2.34072e-14
2.32109e-14
2.34068e-14
2.32113e-14
2.3406e-14
2.32113e-14
2.34053e-14
2.32114e-14
2.34052e-14
2.32112e-14
2.34048e-14
2.32111e-14
2.34046e-14
2.32113e-14
2.3405e-14
2.32114e-14
2.34052e-14
2.32114e-14
2.3405e-14
2.32116e-14
2.34048e-14
2.3212e-14
2.34048e-14
2.32119e-14
2.34046e-14
2.32118e-14
2.34046e-14
2.3212e-14
2.34045e-14
2.32122e-14
2.34046e-14
2.32122e-14
2.34043e-14
2.32124e-14
2.34041e-14
2.32125e-14
2.34038e-14
2.32124e-14
2.34039e-14
2.32122e-14
2.34039e-14
2.32122e-14
2.3404e-14
2.32121e-14
2.3404e-14
2.32121e-14
2.34039e-14
2.32119e-14
2.34039e-14
2.32117e-14
2.34039e-14
2.32115e-14
2.34039e-14
2.32115e-14
2.34039e-14
2.32114e-14
2.34038e-14
2.32113e-14
2.34036e-14
2.32113e-14
2.34036e-14
2.32114e-14
2.34036e-14
2.32113e-14
2.34036e-14
2.32112e-14
2.34037e-14
2.32111e-14
2.34038e-14
2.3211e-14
2.34038e-14
2.3211e-14
2.34038e-14
2.32109e-14
2.34037e-14
2.32108e-14
2.34036e-14
2.32107e-14
2.34036e-14
2.32106e-14
2.34037e-14
2.32106e-14
2.34037e-14
2.32105e-14
2.34038e-14
2.32103e-14
2.34039e-14
2.32102e-14
2.3404e-14
2.321e-14
2.3404e-14
2.32099e-14
2.34041e-14
2.32097e-14
2.34042e-14
2.32095e-14
2.34042e-14
2.32094e-14
2.34043e-14
2.32093e-14
2.34043e-14
2.32093e-14
2.34043e-14
2.32092e-14
2.34044e-14
2.32091e-14
2.34044e-14
2.32091e-14
2.34044e-14
2.3209e-14
2.34045e-14
2.3209e-14
2.34045e-14
2.32089e-14
2.34045e-14
2.32089e-14
2.34045e-14
2.32089e-14
2.34045e-14
2.32089e-14
2.34045e-14
2.32089e-14
2.34045e-14
2.32089e-14
2.34045e-14
2.32089e-14
2.34045e-14
2.32089e-14
2.34045e-14
1.90124e-14
1.90367e-14
1.90358e-14
1.90605e-14
1.90825e-14
1.90892e-14
1.91082e-14
1.9119e-14
1.91356e-14
1.91259e-14
1.92161e-14
1.91784e-14
1.92601e-14
1.92502e-14
1.92631e-14
1.92772e-14
1.9293e-14
1.93108e-14
1.93224e-14
1.93507e-14
1.93484e-14
1.93722e-14
1.94492e-14
1.93995e-14
1.94885e-14
1.94246e-14
1.95171e-14
1.9469e-14
1.95336e-14
1.95101e-14
1.95345e-14
1.95253e-14
1.95927e-14
1.95413e-14
1.96356e-14
1.95794e-14
1.96896e-14
1.95876e-14
1.97602e-14
1.96403e-14
1.97433e-14
1.97383e-14
1.97877e-14
1.98125e-14
1.98347e-14
1.98388e-14
1.98845e-14
1.99239e-14
1.99349e-14
1.99875e-14
2.00132e-14
2.00577e-14
2.00621e-14
2.0133e-14
2.00779e-14
2.02151e-14
2.01967e-14
2.03092e-14
2.0307e-14
2.03842e-14
2.03838e-14
2.04376e-14
2.04592e-14
2.04978e-14
2.05327e-14
2.05927e-14
2.05413e-14
2.06936e-14
2.06283e-14
2.07609e-14
2.07662e-14
2.0853e-14
2.08383e-14
2.09219e-14
2.08761e-14
2.09976e-14
2.10013e-14
2.10527e-14
2.10799e-14
2.11147e-14
2.1144e-14
2.11989e-14
2.11779e-14
2.12278e-14
2.12448e-14
2.12794e-14
2.13135e-14
2.13211e-14
2.13387e-14
2.1384e-14
2.13809e-14
2.13898e-14
2.14251e-14
2.14e-14
2.14082e-14
2.14451e-14
2.14414e-14
2.15115e-14
2.15394e-14
2.15676e-14
2.15541e-14
2.15774e-14
2.1568e-14
2.15902e-14
2.16154e-14
2.16565e-14
2.16282e-14
2.17437e-14
2.17046e-14
2.17526e-14
2.17631e-14
2.17647e-14
2.18229e-14
2.1795e-14
2.18501e-14
2.1859e-14
2.186e-14
2.19236e-14
2.1903e-14
2.19912e-14
2.19442e-14
2.208e-14
2.2035e-14
2.21392e-14
2.21246e-14
2.21674e-14
2.21984e-14
2.21981e-14
2.22221e-14
2.22478e-14
2.22483e-14
2.22814e-14
2.2259e-14
2.2245e-14
2.22733e-14
2.22449e-14
2.23279e-14
2.22805e-14
2.23684e-14
2.23334e-14
2.2358e-14
2.23679e-14
2.23312e-14
2.23482e-14
2.23605e-14
2.23286e-14
2.23733e-14
2.23632e-14
2.23693e-14
2.23789e-14
2.23662e-14
2.23947e-14
2.23815e-14
2.24295e-14
2.23964e-14
2.24372e-14
2.24018e-14
2.2427e-14
2.23887e-14
2.24363e-14
2.2394e-14
2.24464e-14
2.24364e-14
2.24762e-14
2.24407e-14
2.24974e-14
2.24539e-14
2.24912e-14
2.24574e-14
2.24858e-14
2.24704e-14
2.25095e-14
2.24737e-14
2.25438e-14
2.24765e-14
2.25605e-14
2.24884e-14
2.255e-14
2.25001e-14
2.25408e-14
2.25119e-14
2.25615e-14
2.25236e-14
2.26026e-14
2.25448e-14
2.26161e-14
2.2556e-14
2.26017e-14
2.2577e-14
2.2598e-14
2.25984e-14
2.26244e-14
2.26006e-14
2.26418e-14
2.26127e-14
2.26602e-14
2.26151e-14
2.26797e-14
2.26273e-14
2.27104e-14
2.26393e-14
2.27328e-14
2.26608e-14
2.2747e-14
2.26624e-14
2.2743e-14
2.26638e-14
2.27404e-14
2.26851e-14
2.27688e-14
2.26963e-14
2.28185e-14
2.27073e-14
2.285e-14
2.27177e-14
2.28635e-14
2.27277e-14
2.28689e-14
2.27372e-14
2.28961e-14
2.27362e-14
2.29252e-14
2.27344e-14
2.29463e-14
2.27417e-14
2.29495e-14
2.2748e-14
2.29347e-14
2.27736e-14
2.29419e-14
2.27886e-14
2.29609e-14
2.28029e-14
2.29613e-14
2.28169e-14
2.29432e-14
2.28255e-14
2.29515e-14
2.28339e-14
2.29559e-14
2.28573e-14
2.29565e-14
2.28604e-14
2.2953e-14
2.28786e-14
2.29504e-14
2.28718e-14
2.29535e-14
2.28699e-14
2.29473e-14
2.28883e-14
2.29367e-14
2.28916e-14
2.29567e-14
2.29e-14
2.29623e-14
2.29134e-14
2.29431e-14
2.29169e-14
2.29244e-14
2.29306e-14
2.2931e-14
2.29395e-14
2.29478e-14
2.29536e-14
2.29548e-14
2.29529e-14
2.29517e-14
2.29674e-14
2.29638e-14
2.29721e-14
2.2966e-14
2.29721e-14
2.29631e-14
2.29773e-14
2.29652e-14
2.29877e-14
2.29724e-14
2.30033e-14
2.29895e-14
2.30042e-14
2.30016e-14
2.30152e-14
2.29985e-14
2.30165e-14
2.29954e-14
2.30281e-14
2.29922e-14
2.30399e-14
2.30037e-14
2.30421e-14
2.30199e-14
2.30445e-14
2.30409e-14
2.30372e-14
2.30568e-14
2.30499e-14
2.30628e-14
2.30626e-14
2.30637e-14
2.30657e-14
2.30646e-14
2.30787e-14
2.3085e-14
2.30918e-14
2.30955e-14
2.311e-14
2.31011e-14
2.31136e-14
2.31164e-14
2.3132e-14
2.31316e-14
2.31358e-14
2.31467e-14
2.31398e-14
2.31546e-14
2.31414e-14
2.31599e-14
2.31504e-14
2.31701e-14
2.31618e-14
2.31851e-14
2.31709e-14
2.31929e-14
2.318e-14
2.31958e-14
2.31892e-14
2.32011e-14
2.32008e-14
2.3216e-14
2.32053e-14
2.3226e-14
2.32122e-14
2.32289e-14
2.32097e-14
2.32318e-14
2.32144e-14
2.32371e-14
2.32261e-14
2.32446e-14
2.32308e-14
2.32498e-14
2.32309e-14
2.32526e-14
2.32334e-14
2.32577e-14
2.32335e-14
2.32698e-14
2.32337e-14
2.32841e-14
2.32316e-14
2.32915e-14
2.32318e-14
2.32966e-14
2.32342e-14
2.33018e-14
2.32389e-14
2.33115e-14
2.32345e-14
2.33235e-14
2.32323e-14
2.3331e-14
2.32346e-14
2.33297e-14
2.32412e-14
2.33306e-14
2.32411e-14
2.33426e-14
2.32432e-14
2.33525e-14
2.32431e-14
2.33558e-14
2.3245e-14
2.33569e-14
2.32469e-14
2.33625e-14
2.32466e-14
2.33659e-14
2.32484e-14
2.33608e-14
2.32502e-14
2.33558e-14
2.3254e-14
2.33572e-14
2.32556e-14
2.33629e-14
2.32573e-14
2.33665e-14
2.32567e-14
2.33722e-14
2.32624e-14
2.33759e-14
2.32659e-14
2.33744e-14
2.32704e-14
2.3374e-14
2.32728e-14
2.33777e-14
2.32742e-14
2.33814e-14
2.32765e-14
2.33811e-14
2.32788e-14
2.33838e-14
2.32801e-14
2.33845e-14
2.32823e-14
2.33853e-14
2.32844e-14
2.33842e-14
2.32837e-14
2.3385e-14
2.32848e-14
2.33849e-14
2.32868e-14
2.33829e-14
2.3286e-14
2.33819e-14
2.3288e-14
2.33809e-14
2.32863e-14
2.33818e-14
2.32854e-14
2.33818e-14
2.32864e-14
2.3381e-14
2.32874e-14
2.33792e-14
2.32892e-14
2.33801e-14
2.32902e-14
2.33811e-14
2.32893e-14
2.33812e-14
2.3291e-14
2.33796e-14
2.32919e-14
2.3378e-14
2.32936e-14
2.33772e-14
2.32953e-14
2.33782e-14
2.32969e-14
2.33784e-14
2.32977e-14
2.33761e-14
2.33009e-14
2.33738e-14
2.33017e-14
2.33724e-14
2.33024e-14
2.33718e-14
2.33024e-14
2.33712e-14
2.33031e-14
2.33706e-14
2.33046e-14
2.33701e-14
2.33072e-14
2.33695e-14
2.33086e-14
2.33697e-14
2.33089e-14
2.33692e-14
2.33089e-14
2.3368e-14
2.33102e-14
2.33667e-14
2.33116e-14
2.33666e-14
2.33116e-14
2.33672e-14
2.33115e-14
2.33674e-14
2.33114e-14
2.33663e-14
2.33114e-14
2.33668e-14
2.33106e-14
2.33694e-14
2.33099e-14
2.33713e-14
2.33095e-14
2.33719e-14
2.33092e-14
2.33731e-14
2.33088e-14
2.33749e-14
2.33084e-14
2.33761e-14
2.33074e-14
2.33763e-14
2.33077e-14
2.33769e-14
2.33073e-14
2.3378e-14
2.33069e-14
2.33789e-14
2.33066e-14
2.33791e-14
2.33062e-14
2.33797e-14
2.33064e-14
2.33805e-14
2.33064e-14
2.33808e-14
2.33065e-14
2.33813e-14
2.33062e-14
2.33827e-14
2.33059e-14
2.33833e-14
2.33056e-14
2.33831e-14
2.33056e-14
2.33829e-14
2.33058e-14
2.33831e-14
2.33058e-14
2.33836e-14
2.33055e-14
2.33839e-14
2.33056e-14
2.33837e-14
2.33054e-14
2.33836e-14
2.33056e-14
2.33838e-14
2.33055e-14
2.33838e-14