/*--------------------------------*- C++ -*----------------------------------*\
| =========                 |                                                 |
| \\      /  F ield         | OpenFOAM: The Open Source CFD Toolbox           |
|  \\    /   O peration     | Version:  2012                                  |
|   \\  /    A nd           | Website:  www.openfoam.com                      |
|    \\/     M anipulation  |                                                 |
\*---------------------------------------------------------------------------*/
FoamFile
{
    version     2.0;
    format      ascii;
    class       volScalarField;
    location    "6000";
    object      nut;
}
// * * * * * * * * * * * * * * * * * * * * * * * * * * * * * * * * * * * * * //

dimensions      [0 2 -1 0 0 0 0];


internalField   nonuniform List<scalar> 
2560
(
5.69115e-15
5.69115e-15
4.80612e-15
4.80612e-15
4.29549e-15
4.29549e-15
4.35157e-15
4.35157e-15
5.9145e-15
5.9145e-15
1.12819e-14
1.12819e-14
2.49201e-14
2.49201e-14
5.45103e-14
5.45103e-14
1.12263e-13
1.12263e-13
2.16534e-13
2.16534e-13
3.93801e-13
3.93801e-13
6.81041e-13
6.81041e-13
1.12858e-12
1.12858e-12
1.80351e-12
1.80351e-12
2.79368e-12
2.79368e-12
4.2125e-12
4.2125e-12
6.20449e-12
6.20449e-12
8.95187e-12
8.95187e-12
1.26821e-11
1.26821e-11
1.76771e-11
1.76771e-11
2.42829e-11
2.42829e-11
3.29225e-11
3.29225e-11
4.41089e-11
4.41089e-11
5.84616e-11
5.84616e-11
7.67245e-11
7.67245e-11
9.97876e-11
9.97876e-11
1.2871e-10
1.2871e-10
1.6475e-10
1.6475e-10
2.09392e-10
2.09392e-10
2.64388e-10
2.64388e-10
3.31795e-10
3.31795e-10
4.14025e-10
4.14025e-10
5.13893e-10
5.13893e-10
6.34681e-10
6.34681e-10
7.80206e-10
7.80206e-10
9.54897e-10
9.54897e-10
1.16388e-09
1.16388e-09
1.41308e-09
1.41308e-09
1.70934e-09
1.70934e-09
2.0605e-09
2.0605e-09
2.47563e-09
2.47563e-09
2.96509e-09
2.96509e-09
3.54075e-09
3.54075e-09
4.21622e-09
4.21622e-09
5.00702e-09
5.00702e-09
5.93085e-09
5.93085e-09
7.00786e-09
7.00786e-09
8.261e-09
8.261e-09
9.7163e-09
9.7163e-09
1.14033e-08
1.14033e-08
1.33555e-08
1.33555e-08
1.56108e-08
1.56108e-08
1.8212e-08
1.8212e-08
2.12074e-08
2.12074e-08
2.46515e-08
2.46515e-08
2.86057e-08
2.86057e-08
3.3139e-08
3.3139e-08
3.83291e-08
3.83291e-08
4.42629e-08
4.42629e-08
5.10381e-08
5.10381e-08
5.8764e-08
5.8764e-08
6.75629e-08
6.75629e-08
7.75714e-08
7.75714e-08
8.89418e-08
8.89418e-08
1.01844e-07
1.01844e-07
1.16467e-07
1.16467e-07
1.33022e-07
1.33022e-07
1.51741e-07
1.51741e-07
1.72885e-07
1.72885e-07
1.9674e-07
1.9674e-07
2.23624e-07
2.23624e-07
2.53888e-07
2.53888e-07
2.8792e-07
2.8792e-07
3.26146e-07
3.26146e-07
3.69038e-07
3.69038e-07
4.17112e-07
4.17112e-07
4.70935e-07
4.70935e-07
5.31131e-07
5.31131e-07
5.98379e-07
5.98379e-07
6.73424e-07
6.73424e-07
7.57078e-07
7.57078e-07
8.50225e-07
8.50225e-07
9.5383e-07
9.5383e-07
1.06894e-06
1.06894e-06
1.19668e-06
1.19668e-06
1.33828e-06
1.33828e-06
1.49507e-06
1.49507e-06
1.66848e-06
1.66848e-06
1.86004e-06
1.86004e-06
2.07141e-06
2.07141e-06
2.30436e-06
2.30436e-06
2.56079e-06
2.56079e-06
2.84272e-06
2.84272e-06
3.15231e-06
3.15231e-06
3.49185e-06
3.49185e-06
3.86379e-06
3.86379e-06
4.27071e-06
4.27071e-06
4.71531e-06
4.71531e-06
5.20048e-06
5.20048e-06
5.72924e-06
5.72924e-06
6.30474e-06
6.30474e-06
6.9303e-06
6.9303e-06
7.60937e-06
7.60937e-06
8.34555e-06
8.34555e-06
9.14256e-06
9.14256e-06
1.00043e-05
1.00043e-05
1.09347e-05
1.09347e-05
1.19378e-05
1.19378e-05
1.3018e-05
1.3018e-05
1.41794e-05
1.41794e-05
1.54266e-05
1.54266e-05
1.67639e-05
1.67639e-05
1.8196e-05
1.8196e-05
1.97273e-05
1.97273e-05
2.13625e-05
2.13625e-05
2.31063e-05
2.31063e-05
2.49633e-05
2.49633e-05
2.69382e-05
2.69382e-05
2.90355e-05
2.90355e-05
3.12598e-05
3.12598e-05
3.36157e-05
3.36157e-05
3.61075e-05
3.61075e-05
3.87397e-05
3.87397e-05
4.15166e-05
4.15166e-05
4.44422e-05
4.44422e-05
4.75206e-05
4.75206e-05
5.07556e-05
5.07556e-05
5.41511e-05
5.41511e-05
5.77106e-05
5.77106e-05
6.14375e-05
6.14375e-05
6.5335e-05
6.5335e-05
6.94062e-05
6.94062e-05
7.36541e-05
7.36541e-05
7.80812e-05
7.80812e-05
8.26901e-05
8.26901e-05
8.74831e-05
8.74831e-05
9.24623e-05
9.24623e-05
9.76297e-05
9.76297e-05
0.000102987
0.000102987
0.000108536
0.000108536
0.000114277
0.000114277
0.000120213
0.000120213
0.000126343
0.000126343
0.00013267
0.00013267
0.000139193
0.000139193
0.000145913
0.000145913
0.000152831
0.000152831
0.000159946
0.000159946
0.000167259
0.000167259
0.00017477
0.00017477
0.000182479
0.000182479
0.000190385
0.000190385
0.000198488
0.000198488
0.000206788
0.000206788
0.000215284
0.000215284
0.000223974
0.000223974
0.00023286
0.00023286
0.000241939
0.000241939
0.00025121
0.00025121
0.000260673
0.000260673
0.000270327
0.000270327
0.000280171
0.000280171
0.000290202
0.000290202
0.000300421
0.000300421
0.000310825
0.000310825
0.000321414
0.000321414
0.000332186
0.000332186
0.000343139
0.000343139
0.000354272
0.000354272
0.000365584
0.000365584
0.000377072
0.000377072
0.000388736
0.000388736
0.000400573
0.000400573
0.000412583
0.000412583
0.000424763
0.000424763
0.000437111
0.000437111
0.000449626
0.000449626
0.000462306
0.000462306
0.000475149
0.000475149
0.000488154
0.000488154
0.000501318
0.000501318
0.000514639
0.000514639
0.000528116
0.000528116
0.000541747
0.000541747
0.000555529
0.000555529
0.000569461
0.000569461
0.000583541
0.000583541
0.000597766
0.000597766
0.000612134
0.000612134
0.000626644
0.000626644
0.000641293
0.000641293
0.000656078
0.000656078
0.000670999
0.000670999
0.000686051
0.000686051
0.000701234
0.000701234
0.000716545
0.000716545
0.000731981
0.000731981
0.00074754
0.00074754
0.00076322
0.00076322
0.000779018
0.000779018
0.000794931
0.000794931
0.000810958
0.000810958
0.000827095
0.000827095
0.000843339
0.000843339
0.000859689
0.000859689
0.000876141
0.000876141
0.000892692
0.000892692
0.00090934
0.00090934
0.000926082
0.000926082
0.000942915
0.000942915
0.000959835
0.000959835
0.00097684
0.00097684
0.000993926
0.000993926
0.00101109
0.00101109
0.00102833
0.00102833
0.00104564
0.00104564
0.00106302
0.00106302
0.00108046
0.00108046
0.00109796
0.00109796
0.00111552
0.00111552
0.00113314
0.00113314
0.0011508
0.0011508
0.00116851
0.00116851
0.00118626
0.00118626
0.00120404
0.00120404
0.00122186
0.00122186
0.00123971
0.00123971
0.00125758
0.00125758
0.00127547
0.00127547
0.00129337
0.00129337
0.00131128
0.00131128
0.00132919
0.00132919
0.0013471
0.0013471
0.00136501
0.00136501
0.0013829
0.0013829
0.00140078
0.00140078
0.00141862
0.00141862
0.00143644
0.00143644
0.00145422
0.00145422
0.00147196
0.00147196
0.00148965
0.00148965
0.00150728
0.00150728
0.00152485
0.00152485
0.00154234
0.00154234
0.00155975
0.00155975
0.00157708
0.00157708
0.00159431
0.00159431
0.00161144
0.00161144
0.00162845
0.00162845
0.00164535
0.00164535
0.00166211
0.00166211
0.00167873
0.00167873
0.0016952
0.0016952
0.00171151
0.00171151
0.00172765
0.00172765
0.00174361
0.00174361
0.00175937
0.00175937
0.00177493
0.00177493
0.00179027
0.00179027
0.00180538
0.00180538
0.00182025
0.00182025
0.00183485
0.00183485
0.00184919
0.00184919
0.00186325
0.00186325
0.001877
0.001877
0.00189043
0.00189043
0.00190354
0.00190354
0.00191629
0.00191629
0.00192868
0.00192868
0.00194068
0.00194068
0.00195228
0.00195228
0.00196345
0.00196345
0.00197418
0.00197418
0.00198444
0.00198444
0.00199421
0.00199421
0.00200348
0.00200348
0.00201221
0.00201221
0.00202037
0.00202037
0.00202796
0.00202796
0.00203492
0.00203492
0.00204125
0.00204125
0.0020469
0.0020469
0.00205185
0.00205185
0.00205607
0.00205607
0.00205952
0.00205952
0.00206216
0.00206216
0.00206396
0.00206396
0.00206489
0.00206489
0.0020649
0.0020649
0.00206395
0.00206395
0.002062
0.002062
0.002059
0.002059
0.00205492
0.00205492
0.00204969
0.00204969
0.00204329
0.00204329
0.00203565
0.00203565
0.00202673
0.00202673
0.00201649
0.00201649
0.00200488
0.00200488
0.00199184
0.00199184
0.00197736
0.00197736
0.00196139
0.00196139
0.00194391
0.00194391
0.00192491
0.00192491
0.00190439
0.00190439
0.00188239
0.00188239
0.00185895
0.00185895
0.00183419
0.00183419
0.00180823
0.00180823
0.00178129
0.00178129
0.00175364
0.00175364
0.00172565
0.00172565
0.00169778
0.00169778
0.00167062
0.00167062
0.00164485
0.00164485
0.00162128
0.00162128
0.00160079
0.00160079
0.00158427
0.00158427
0.00157259
0.00157259
0.00156649
0.00156649
5.69115e-15
5.69115e-15
4.80612e-15
4.80612e-15
4.29549e-15
4.29549e-15
4.35157e-15
4.35157e-15
5.9145e-15
5.9145e-15
1.12819e-14
1.12819e-14
2.49201e-14
2.49201e-14
5.45103e-14
5.45103e-14
1.12263e-13
1.12263e-13
2.16534e-13
2.16534e-13
3.93801e-13
3.93801e-13
6.81041e-13
6.81041e-13
1.12858e-12
1.12858e-12
1.80351e-12
1.80351e-12
2.79368e-12
2.79368e-12
4.2125e-12
4.2125e-12
6.20449e-12
6.20449e-12
8.95187e-12
8.95187e-12
1.26821e-11
1.26821e-11
1.76771e-11
1.76771e-11
2.42829e-11
2.42829e-11
3.29225e-11
3.29225e-11
4.41089e-11
4.41089e-11
5.84616e-11
5.84616e-11
7.67245e-11
7.67245e-11
9.97876e-11
9.97876e-11
1.2871e-10
1.2871e-10
1.6475e-10
1.6475e-10
2.09392e-10
2.09392e-10
2.64388e-10
2.64388e-10
3.31795e-10
3.31795e-10
4.14025e-10
4.14025e-10
5.13893e-10
5.13893e-10
6.34681e-10
6.34681e-10
7.80206e-10
7.80206e-10
9.54897e-10
9.54897e-10
1.16388e-09
1.16388e-09
1.41308e-09
1.41308e-09
1.70934e-09
1.70934e-09
2.0605e-09
2.0605e-09
2.47563e-09
2.47563e-09
2.96509e-09
2.96509e-09
3.54075e-09
3.54075e-09
4.21622e-09
4.21622e-09
5.00702e-09
5.00702e-09
5.93085e-09
5.93085e-09
7.00786e-09
7.00786e-09
8.261e-09
8.261e-09
9.7163e-09
9.7163e-09
1.14033e-08
1.14033e-08
1.33555e-08
1.33555e-08
1.56108e-08
1.56108e-08
1.8212e-08
1.8212e-08
2.12074e-08
2.12074e-08
2.46515e-08
2.46515e-08
2.86057e-08
2.86057e-08
3.3139e-08
3.3139e-08
3.83291e-08
3.83291e-08
4.42629e-08
4.42629e-08
5.10381e-08
5.10381e-08
5.8764e-08
5.8764e-08
6.75629e-08
6.75629e-08
7.75714e-08
7.75714e-08
8.89418e-08
8.89418e-08
1.01844e-07
1.01844e-07
1.16467e-07
1.16467e-07
1.33022e-07
1.33022e-07
1.51741e-07
1.51741e-07
1.72885e-07
1.72885e-07
1.9674e-07
1.9674e-07
2.23624e-07
2.23624e-07
2.53888e-07
2.53888e-07
2.8792e-07
2.8792e-07
3.26146e-07
3.26146e-07
3.69038e-07
3.69038e-07
4.17112e-07
4.17112e-07
4.70935e-07
4.70935e-07
5.31131e-07
5.31131e-07
5.98379e-07
5.98379e-07
6.73424e-07
6.73424e-07
7.57078e-07
7.57078e-07
8.50225e-07
8.50225e-07
9.5383e-07
9.5383e-07
1.06894e-06
1.06894e-06
1.19668e-06
1.19668e-06
1.33828e-06
1.33828e-06
1.49507e-06
1.49507e-06
1.66848e-06
1.66848e-06
1.86004e-06
1.86004e-06
2.07141e-06
2.07141e-06
2.30436e-06
2.30436e-06
2.56079e-06
2.56079e-06
2.84272e-06
2.84272e-06
3.15231e-06
3.15231e-06
3.49185e-06
3.49185e-06
3.86379e-06
3.86379e-06
4.27071e-06
4.27071e-06
4.71531e-06
4.71531e-06
5.20048e-06
5.20048e-06
5.72924e-06
5.72924e-06
6.30474e-06
6.30474e-06
6.9303e-06
6.9303e-06
7.60937e-06
7.60937e-06
8.34555e-06
8.34555e-06
9.14256e-06
9.14256e-06
1.00043e-05
1.00043e-05
1.09347e-05
1.09347e-05
1.19378e-05
1.19378e-05
1.3018e-05
1.3018e-05
1.41794e-05
1.41794e-05
1.54266e-05
1.54266e-05
1.67639e-05
1.67639e-05
1.8196e-05
1.8196e-05
1.97273e-05
1.97273e-05
2.13625e-05
2.13625e-05
2.31063e-05
2.31063e-05
2.49633e-05
2.49633e-05
2.69382e-05
2.69382e-05
2.90355e-05
2.90355e-05
3.12598e-05
3.12598e-05
3.36157e-05
3.36157e-05
3.61075e-05
3.61075e-05
3.87397e-05
3.87397e-05
4.15166e-05
4.15166e-05
4.44422e-05
4.44422e-05
4.75206e-05
4.75206e-05
5.07556e-05
5.07556e-05
5.41511e-05
5.41511e-05
5.77106e-05
5.77106e-05
6.14375e-05
6.14375e-05
6.5335e-05
6.5335e-05
6.94062e-05
6.94062e-05
7.36541e-05
7.36541e-05
7.80812e-05
7.80812e-05
8.26901e-05
8.26901e-05
8.74831e-05
8.74831e-05
9.24623e-05
9.24623e-05
9.76297e-05
9.76297e-05
0.000102987
0.000102987
0.000108536
0.000108536
0.000114277
0.000114277
0.000120213
0.000120213
0.000126343
0.000126343
0.00013267
0.00013267
0.000139193
0.000139193
0.000145913
0.000145913
0.000152831
0.000152831
0.000159946
0.000159946
0.000167259
0.000167259
0.00017477
0.00017477
0.000182479
0.000182479
0.000190385
0.000190385
0.000198488
0.000198488
0.000206788
0.000206788
0.000215284
0.000215284
0.000223974
0.000223974
0.00023286
0.00023286
0.000241939
0.000241939
0.00025121
0.00025121
0.000260673
0.000260673
0.000270327
0.000270327
0.000280171
0.000280171
0.000290202
0.000290202
0.000300421
0.000300421
0.000310825
0.000310825
0.000321414
0.000321414
0.000332186
0.000332186
0.000343139
0.000343139
0.000354272
0.000354272
0.000365584
0.000365584
0.000377072
0.000377072
0.000388736
0.000388736
0.000400573
0.000400573
0.000412583
0.000412583
0.000424763
0.000424763
0.000437111
0.000437111
0.000449626
0.000449626
0.000462306
0.000462306
0.000475149
0.000475149
0.000488154
0.000488154
0.000501318
0.000501318
0.000514639
0.000514639
0.000528116
0.000528116
0.000541747
0.000541747
0.000555529
0.000555529
0.000569461
0.000569461
0.000583541
0.000583541
0.000597766
0.000597766
0.000612134
0.000612134
0.000626644
0.000626644
0.000641293
0.000641293
0.000656078
0.000656078
0.000670999
0.000670999
0.000686051
0.000686051
0.000701234
0.000701234
0.000716545
0.000716545
0.000731981
0.000731981
0.00074754
0.00074754
0.00076322
0.00076322
0.000779018
0.000779018
0.000794931
0.000794931
0.000810958
0.000810958
0.000827095
0.000827095
0.000843339
0.000843339
0.000859689
0.000859689
0.000876141
0.000876141
0.000892692
0.000892692
0.00090934
0.00090934
0.000926082
0.000926082
0.000942915
0.000942915
0.000959835
0.000959835
0.00097684
0.00097684
0.000993926
0.000993926
0.00101109
0.00101109
0.00102833
0.00102833
0.00104564
0.00104564
0.00106302
0.00106302
0.00108046
0.00108046
0.00109796
0.00109796
0.00111552
0.00111552
0.00113314
0.00113314
0.0011508
0.0011508
0.00116851
0.00116851
0.00118626
0.00118626
0.00120404
0.00120404
0.00122186
0.00122186
0.00123971
0.00123971
0.00125758
0.00125758
0.00127547
0.00127547
0.00129337
0.00129337
0.00131128
0.00131128
0.00132919
0.00132919
0.0013471
0.0013471
0.00136501
0.00136501
0.0013829
0.0013829
0.00140078
0.00140078
0.00141862
0.00141862
0.00143644
0.00143644
0.00145422
0.00145422
0.00147196
0.00147196
0.00148965
0.00148965
0.00150728
0.00150728
0.00152485
0.00152485
0.00154234
0.00154234
0.00155975
0.00155975
0.00157708
0.00157708
0.00159431
0.00159431
0.00161144
0.00161144
0.00162845
0.00162845
0.00164535
0.00164535
0.00166211
0.00166211
0.00167873
0.00167873
0.0016952
0.0016952
0.00171151
0.00171151
0.00172765
0.00172765
0.00174361
0.00174361
0.00175937
0.00175937
0.00177493
0.00177493
0.00179027
0.00179027
0.00180538
0.00180538
0.00182025
0.00182025
0.00183485
0.00183485
0.00184919
0.00184919
0.00186325
0.00186325
0.001877
0.001877
0.00189043
0.00189043
0.00190354
0.00190354
0.00191629
0.00191629
0.00192868
0.00192868
0.00194068
0.00194068
0.00195228
0.00195228
0.00196345
0.00196345
0.00197418
0.00197418
0.00198444
0.00198444
0.00199421
0.00199421
0.00200348
0.00200348
0.00201221
0.00201221
0.00202037
0.00202037
0.00202796
0.00202796
0.00203492
0.00203492
0.00204125
0.00204125
0.0020469
0.0020469
0.00205185
0.00205185
0.00205607
0.00205607
0.00205952
0.00205952
0.00206216
0.00206216
0.00206396
0.00206396
0.00206489
0.00206489
0.0020649
0.0020649
0.00206395
0.00206395
0.002062
0.002062
0.002059
0.002059
0.00205492
0.00205492
0.00204969
0.00204969
0.00204329
0.00204329
0.00203565
0.00203565
0.00202673
0.00202673
0.00201649
0.00201649
0.00200488
0.00200488
0.00199184
0.00199184
0.00197736
0.00197736
0.00196139
0.00196139
0.00194391
0.00194391
0.00192491
0.00192491
0.00190439
0.00190439
0.00188239
0.00188239
0.00185895
0.00185895
0.00183419
0.00183419
0.00180823
0.00180823
0.00178129
0.00178129
0.00175364
0.00175364
0.00172565
0.00172565
0.00169778
0.00169778
0.00167062
0.00167062
0.00164485
0.00164485
0.00162128
0.00162128
0.00160079
0.00160079
0.00158427
0.00158427
0.00157259
0.00157259
0.00156649
0.00156649
0.00156649
0.00156649
0.0015726
0.0015726
0.00158427
0.00158428
0.0016008
0.0016008
0.00162129
0.00162129
0.00164487
0.00164487
0.00167063
0.00167063
0.0016978
0.0016978
0.00172566
0.00172566
0.00175366
0.00175366
0.00178131
0.00178131
0.00180825
0.00180825
0.00183421
0.00183421
0.00185897
0.00185897
0.00188241
0.00188241
0.00190441
0.00190441
0.00192493
0.00192493
0.00194393
0.00194393
0.00196141
0.00196141
0.00197738
0.00197738
0.00199187
0.00199187
0.0020049
0.0020049
0.00201651
0.00201651
0.00202675
0.00202675
0.00203567
0.00203567
0.00204331
0.00204331
0.00204971
0.00204971
0.00205494
0.00205494
0.00205902
0.00205902
0.00206202
0.00206202
0.00206397
0.00206397
0.00206492
0.00206492
0.00206491
0.00206491
0.00206398
0.00206398
0.00206218
0.00206218
0.00205953
0.00205953
0.00205609
0.00205609
0.00205187
0.00205187
0.00204692
0.00204692
0.00204126
0.00204126
0.00203494
0.00203494
0.00202797
0.00202797
0.00202039
0.00202039
0.00201222
0.00201222
0.00200349
0.00200349
0.00199423
0.00199423
0.00198445
0.00198445
0.00197419
0.00197419
0.00196346
0.00196346
0.00195229
0.00195229
0.00194069
0.00194069
0.00192869
0.00192869
0.0019163
0.0019163
0.00190355
0.00190355
0.00189045
0.00189045
0.00187701
0.00187701
0.00186326
0.00186326
0.0018492
0.0018492
0.00183487
0.00183487
0.00182026
0.00182026
0.00180539
0.00180539
0.00179028
0.00179028
0.00177494
0.00177494
0.00175938
0.00175938
0.00174362
0.00174362
0.00172766
0.00172766
0.00171152
0.00171152
0.00169521
0.00169521
0.00167874
0.00167874
0.00166212
0.00166212
0.00164536
0.00164536
0.00162846
0.00162846
0.00161145
0.00161145
0.00159432
0.00159432
0.00157709
0.00157709
0.00155976
0.00155976
0.00154235
0.00154235
0.00152485
0.00152485
0.00150729
0.00150729
0.00148966
0.00148966
0.00147197
0.00147197
0.00145423
0.00145423
0.00143645
0.00143645
0.00141863
0.00141863
0.00140078
0.00140078
0.00138291
0.00138291
0.00136502
0.00136502
0.00134711
0.00134711
0.0013292
0.0013292
0.00131128
0.00131128
0.00129337
0.00129337
0.00127547
0.00127547
0.00125758
0.00125758
0.00123971
0.00123971
0.00122187
0.00122187
0.00120405
0.00120405
0.00118626
0.00118626
0.00116851
0.00116851
0.00115081
0.00115081
0.00113314
0.00113314
0.00111553
0.00111553
0.00109797
0.00109797
0.00108047
0.00108047
0.00106302
0.00106302
0.00104564
0.00104564
0.00102833
0.00102833
0.00101109
0.00101109
0.00099393
0.00099393
0.000976844
0.000976844
0.000959839
0.000959839
0.000942919
0.000942919
0.000926087
0.000926087
0.000909345
0.000909345
0.000892697
0.000892697
0.000876145
0.000876145
0.000859693
0.000859693
0.000843343
0.000843343
0.000827099
0.000827099
0.000810962
0.000810962
0.000794935
0.000794935
0.000779022
0.000779022
0.000763224
0.000763224
0.000747544
0.000747544
0.000731985
0.000731985
0.000716549
0.000716549
0.000701238
0.000701238
0.000686055
0.000686055
0.000671002
0.000671002
0.000656082
0.000656082
0.000641296
0.000641296
0.000626648
0.000626648
0.000612138
0.000612138
0.000597769
0.000597769
0.000583544
0.000583544
0.000569465
0.000569465
0.000555533
0.000555533
0.000541751
0.000541751
0.00052812
0.00052812
0.000514643
0.000514643
0.000501321
0.000501321
0.000488157
0.000488157
0.000475153
0.000475153
0.000462309
0.000462309
0.000449629
0.000449629
0.000437114
0.000437114
0.000424766
0.000424766
0.000412586
0.000412586
0.000400576
0.000400576
0.000388739
0.000388739
0.000377075
0.000377075
0.000365586
0.000365586
0.000354275
0.000354275
0.000343141
0.000343141
0.000332188
0.000332188
0.000321417
0.000321417
0.000310828
0.000310828
0.000300423
0.000300423
0.000290205
0.000290205
0.000280173
0.000280173
0.00027033
0.00027033
0.000260676
0.000260676
0.000251212
0.000251212
0.000241941
0.000241941
0.000232862
0.000232862
0.000223976
0.000223976
0.000215286
0.000215286
0.00020679
0.00020679
0.00019849
0.00019849
0.000190387
0.000190387
0.000182481
0.000182481
0.000174772
0.000174772
0.000167261
0.000167261
0.000159948
0.000159948
0.000152832
0.000152832
0.000145915
0.000145915
0.000139194
0.000139194
0.000132671
0.000132671
0.000126345
0.000126345
0.000120214
0.000120214
0.000114279
0.000114279
0.000108537
0.000108537
0.000102988
0.000102988
9.76309e-05
9.76309e-05
9.24635e-05
9.24635e-05
8.74843e-05
8.74843e-05
8.26912e-05
8.26912e-05
7.80823e-05
7.80823e-05
7.36551e-05
7.36551e-05
6.94072e-05
6.94072e-05
6.53359e-05
6.53359e-05
6.14384e-05
6.14384e-05
5.77114e-05
5.77114e-05
5.41519e-05
5.41519e-05
5.07564e-05
5.07564e-05
4.75213e-05
4.75213e-05
4.44429e-05
4.44429e-05
4.15172e-05
4.15172e-05
3.87404e-05
3.87404e-05
3.61081e-05
3.61081e-05
3.36162e-05
3.36162e-05
3.12603e-05
3.12603e-05
2.9036e-05
2.9036e-05
2.69386e-05
2.69386e-05
2.49638e-05
2.49638e-05
2.31067e-05
2.31067e-05
2.13629e-05
2.13629e-05
1.97277e-05
1.97277e-05
1.81963e-05
1.81963e-05
1.67643e-05
1.67643e-05
1.54269e-05
1.54269e-05
1.41797e-05
1.41797e-05
1.30182e-05
1.30182e-05
1.1938e-05
1.1938e-05
1.09349e-05
1.09349e-05
1.00045e-05
1.00045e-05
9.14274e-06
9.14274e-06
8.34571e-06
8.34571e-06
7.60953e-06
7.60953e-06
6.93044e-06
6.93044e-06
6.30487e-06
6.30487e-06
5.72936e-06
5.72936e-06
5.20059e-06
5.20059e-06
4.71541e-06
4.71541e-06
4.2708e-06
4.2708e-06
3.86388e-06
3.86388e-06
3.49193e-06
3.49193e-06
3.15237e-06
3.15237e-06
2.84278e-06
2.84278e-06
2.56084e-06
2.56084e-06
2.30441e-06
2.30441e-06
2.07146e-06
2.07146e-06
1.86008e-06
1.86008e-06
1.66852e-06
1.66852e-06
1.49511e-06
1.49511e-06
1.33831e-06
1.33831e-06
1.19671e-06
1.19671e-06
1.06896e-06
1.06896e-06
9.53852e-07
9.53852e-07
8.50245e-07
8.50245e-07
7.57095e-07
7.57095e-07
6.7344e-07
6.7344e-07
5.98393e-07
5.98393e-07
5.31143e-07
5.31143e-07
4.70947e-07
4.70947e-07
4.17122e-07
4.17122e-07
3.69047e-07
3.69047e-07
3.26154e-07
3.26154e-07
2.87927e-07
2.87927e-07
2.53894e-07
2.53894e-07
2.23629e-07
2.23629e-07
1.96745e-07
1.96745e-07
1.72889e-07
1.72889e-07
1.51745e-07
1.51745e-07
1.33025e-07
1.33025e-07
1.1647e-07
1.1647e-07
1.01847e-07
1.01847e-07
8.8944e-08
8.8944e-08
7.75733e-08
7.75733e-08
6.75647e-08
6.75647e-08
5.87656e-08
5.87656e-08
5.10394e-08
5.10394e-08
4.4264e-08
4.4264e-08
3.833e-08
3.833e-08
3.31399e-08
3.31399e-08
2.86064e-08
2.86064e-08
2.46521e-08
2.46521e-08
2.12079e-08
2.12079e-08
1.82125e-08
1.82125e-08
1.56112e-08
1.56112e-08
1.33559e-08
1.33559e-08
1.14036e-08
1.14036e-08
9.71656e-09
9.71656e-09
8.26122e-09
8.26122e-09
7.00805e-09
7.00805e-09
5.93101e-09
5.93101e-09
5.00716e-09
5.00716e-09
4.21634e-09
4.21634e-09
3.54085e-09
3.54085e-09
2.96517e-09
2.96517e-09
2.4757e-09
2.4757e-09
2.06056e-09
2.06056e-09
1.70938e-09
1.70938e-09
1.41312e-09
1.41312e-09
1.16391e-09
1.16391e-09
9.54924e-10
9.54924e-10
7.80228e-10
7.80228e-10
6.34698e-10
6.34698e-10
5.13907e-10
5.13907e-10
4.14036e-10
4.14036e-10
3.31805e-10
3.31805e-10
2.64395e-10
2.64395e-10
2.09397e-10
2.09397e-10
1.64754e-10
1.64754e-10
1.28714e-10
1.28714e-10
9.97904e-11
9.97904e-11
7.67267e-11
7.67267e-11
5.84632e-11
5.84632e-11
4.41101e-11
4.41101e-11
3.29234e-11
3.29234e-11
2.42836e-11
2.42836e-11
1.76776e-11
1.76776e-11
1.26825e-11
1.26825e-11
8.95212e-12
8.95212e-12
6.20467e-12
6.20467e-12
4.21261e-12
4.21261e-12
2.79375e-12
2.79375e-12
1.80356e-12
1.80356e-12
1.12861e-12
1.12861e-12
6.8106e-13
6.8106e-13
3.93812e-13
3.93812e-13
2.1654e-13
2.1654e-13
1.12266e-13
1.12266e-13
5.45118e-14
5.45118e-14
2.49206e-14
2.49206e-14
1.12821e-14
1.12821e-14
5.91452e-15
5.91452e-15
4.35153e-15
4.35153e-15
4.29544e-15
4.29544e-15
4.80606e-15
4.80606e-15
5.69109e-15
5.69109e-15
0.00156649
0.00156649
0.0015726
0.0015726
0.00158428
0.00158428
0.0016008
0.0016008
0.0016213
0.0016213
0.00164487
0.00164487
0.00167063
0.00167063
0.0016978
0.0016978
0.00172566
0.00172566
0.00175366
0.00175366
0.00178131
0.00178131
0.00180825
0.00180825
0.00183421
0.00183421
0.00185897
0.00185897
0.00188241
0.00188241
0.00190441
0.00190441
0.00192493
0.00192493
0.00194393
0.00194393
0.00196141
0.00196141
0.00197738
0.00197738
0.00199187
0.00199187
0.0020049
0.0020049
0.00201651
0.00201651
0.00202675
0.00202675
0.00203567
0.00203567
0.00204331
0.00204331
0.00204971
0.00204971
0.00205494
0.00205494
0.00205902
0.00205902
0.00206202
0.00206202
0.00206397
0.00206397
0.00206492
0.00206492
0.00206491
0.00206491
0.00206398
0.00206398
0.00206218
0.00206218
0.00205953
0.00205953
0.00205609
0.00205609
0.00205187
0.00205187
0.00204692
0.00204692
0.00204126
0.00204126
0.00203494
0.00203494
0.00202797
0.00202797
0.00202039
0.00202039
0.00201222
0.00201222
0.00200349
0.00200349
0.00199423
0.00199423
0.00198445
0.00198445
0.00197419
0.00197419
0.00196346
0.00196346
0.00195229
0.00195229
0.00194069
0.00194069
0.00192869
0.00192869
0.0019163
0.0019163
0.00190355
0.00190355
0.00189045
0.00189045
0.00187701
0.00187701
0.00186326
0.00186326
0.0018492
0.0018492
0.00183487
0.00183487
0.00182026
0.00182026
0.00180539
0.00180539
0.00179028
0.00179028
0.00177494
0.00177494
0.00175938
0.00175938
0.00174362
0.00174362
0.00172766
0.00172766
0.00171152
0.00171152
0.00169521
0.00169521
0.00167874
0.00167874
0.00166212
0.00166212
0.00164536
0.00164536
0.00162846
0.00162846
0.00161145
0.00161145
0.00159432
0.00159432
0.00157709
0.00157709
0.00155976
0.00155976
0.00154235
0.00154235
0.00152485
0.00152485
0.00150729
0.00150729
0.00148966
0.00148966
0.00147197
0.00147197
0.00145423
0.00145423
0.00143645
0.00143645
0.00141863
0.00141863
0.00140078
0.00140078
0.00138291
0.00138291
0.00136502
0.00136502
0.00134711
0.00134711
0.0013292
0.0013292
0.00131128
0.00131128
0.00129337
0.00129337
0.00127547
0.00127547
0.00125758
0.00125758
0.00123971
0.00123971
0.00122187
0.00122187
0.00120405
0.00120405
0.00118626
0.00118626
0.00116851
0.00116851
0.00115081
0.00115081
0.00113314
0.00113314
0.00111553
0.00111553
0.00109797
0.00109797
0.00108047
0.00108047
0.00106302
0.00106302
0.00104564
0.00104564
0.00102833
0.00102833
0.00101109
0.00101109
0.00099393
0.00099393
0.000976844
0.000976844
0.000959839
0.000959839
0.000942919
0.000942919
0.000926087
0.000926087
0.000909345
0.000909345
0.000892697
0.000892697
0.000876145
0.000876145
0.000859693
0.000859693
0.000843343
0.000843343
0.000827099
0.000827099
0.000810962
0.000810962
0.000794935
0.000794935
0.000779022
0.000779022
0.000763224
0.000763224
0.000747544
0.000747544
0.000731985
0.000731985
0.000716549
0.000716549
0.000701238
0.000701238
0.000686055
0.000686055
0.000671002
0.000671002
0.000656082
0.000656082
0.000641296
0.000641296
0.000626648
0.000626648
0.000612138
0.000612138
0.000597769
0.000597769
0.000583544
0.000583544
0.000569465
0.000569465
0.000555533
0.000555533
0.000541751
0.000541751
0.00052812
0.00052812
0.000514643
0.000514643
0.000501321
0.000501321
0.000488157
0.000488157
0.000475153
0.000475153
0.000462309
0.000462309
0.000449629
0.000449629
0.000437114
0.000437114
0.000424766
0.000424766
0.000412586
0.000412586
0.000400576
0.000400576
0.000388739
0.000388739
0.000377075
0.000377075
0.000365586
0.000365586
0.000354275
0.000354275
0.000343141
0.000343141
0.000332188
0.000332188
0.000321417
0.000321417
0.000310828
0.000310828
0.000300423
0.000300423
0.000290205
0.000290205
0.000280173
0.000280173
0.00027033
0.00027033
0.000260676
0.000260676
0.000251212
0.000251212
0.000241941
0.000241941
0.000232862
0.000232862
0.000223976
0.000223976
0.000215286
0.000215286
0.00020679
0.00020679
0.00019849
0.00019849
0.000190387
0.000190387
0.000182481
0.000182481
0.000174772
0.000174772
0.000167261
0.000167261
0.000159948
0.000159948
0.000152832
0.000152832
0.000145915
0.000145915
0.000139194
0.000139194
0.000132671
0.000132671
0.000126345
0.000126345
0.000120214
0.000120214
0.000114279
0.000114279
0.000108537
0.000108537
0.000102988
0.000102988
9.76309e-05
9.76309e-05
9.24635e-05
9.24635e-05
8.74843e-05
8.74843e-05
8.26912e-05
8.26912e-05
7.80823e-05
7.80823e-05
7.36551e-05
7.36551e-05
6.94072e-05
6.94072e-05
6.53359e-05
6.53359e-05
6.14384e-05
6.14384e-05
5.77114e-05
5.77114e-05
5.41519e-05
5.41519e-05
5.07564e-05
5.07564e-05
4.75213e-05
4.75213e-05
4.44429e-05
4.44429e-05
4.15172e-05
4.15172e-05
3.87404e-05
3.87404e-05
3.61081e-05
3.61081e-05
3.36162e-05
3.36162e-05
3.12603e-05
3.12603e-05
2.9036e-05
2.9036e-05
2.69386e-05
2.69386e-05
2.49638e-05
2.49638e-05
2.31067e-05
2.31067e-05
2.13629e-05
2.13629e-05
1.97277e-05
1.97277e-05
1.81963e-05
1.81963e-05
1.67643e-05
1.67643e-05
1.54269e-05
1.54269e-05
1.41797e-05
1.41797e-05
1.30182e-05
1.30182e-05
1.1938e-05
1.1938e-05
1.09349e-05
1.09349e-05
1.00045e-05
1.00045e-05
9.14274e-06
9.14274e-06
8.34571e-06
8.34571e-06
7.60953e-06
7.60953e-06
6.93044e-06
6.93044e-06
6.30487e-06
6.30487e-06
5.72936e-06
5.72936e-06
5.20059e-06
5.20059e-06
4.71541e-06
4.71541e-06
4.2708e-06
4.2708e-06
3.86388e-06
3.86388e-06
3.49193e-06
3.49193e-06
3.15237e-06
3.15237e-06
2.84278e-06
2.84278e-06
2.56084e-06
2.56084e-06
2.30441e-06
2.30441e-06
2.07146e-06
2.07146e-06
1.86008e-06
1.86008e-06
1.66852e-06
1.66852e-06
1.49511e-06
1.49511e-06
1.33831e-06
1.33831e-06
1.19671e-06
1.19671e-06
1.06896e-06
1.06896e-06
9.53852e-07
9.53852e-07
8.50245e-07
8.50245e-07
7.57095e-07
7.57095e-07
6.7344e-07
6.7344e-07
5.98393e-07
5.98393e-07
5.31143e-07
5.31143e-07
4.70947e-07
4.70947e-07
4.17122e-07
4.17122e-07
3.69047e-07
3.69047e-07
3.26154e-07
3.26154e-07
2.87927e-07
2.87927e-07
2.53894e-07
2.53894e-07
2.23629e-07
2.23629e-07
1.96745e-07
1.96745e-07
1.72889e-07
1.72889e-07
1.51745e-07
1.51745e-07
1.33025e-07
1.33025e-07
1.1647e-07
1.1647e-07
1.01847e-07
1.01847e-07
8.8944e-08
8.8944e-08
7.75733e-08
7.75733e-08
6.75647e-08
6.75647e-08
5.87656e-08
5.87656e-08
5.10394e-08
5.10394e-08
4.4264e-08
4.4264e-08
3.833e-08
3.833e-08
3.31399e-08
3.31399e-08
2.86064e-08
2.86064e-08
2.46521e-08
2.46521e-08
2.12079e-08
2.12079e-08
1.82125e-08
1.82125e-08
1.56112e-08
1.56112e-08
1.33559e-08
1.33559e-08
1.14036e-08
1.14036e-08
9.71656e-09
9.71656e-09
8.26122e-09
8.26122e-09
7.00805e-09
7.00805e-09
5.93101e-09
5.93101e-09
5.00716e-09
5.00716e-09
4.21634e-09
4.21634e-09
3.54085e-09
3.54085e-09
2.96517e-09
2.96517e-09
2.4757e-09
2.4757e-09
2.06056e-09
2.06056e-09
1.70938e-09
1.70938e-09
1.41312e-09
1.41312e-09
1.16391e-09
1.16391e-09
9.54924e-10
9.54924e-10
7.80228e-10
7.80228e-10
6.34698e-10
6.34698e-10
5.13907e-10
5.13907e-10
4.14036e-10
4.14036e-10
3.31805e-10
3.31805e-10
2.64395e-10
2.64395e-10
2.09397e-10
2.09397e-10
1.64754e-10
1.64754e-10
1.28714e-10
1.28714e-10
9.97904e-11
9.97904e-11
7.67267e-11
7.67267e-11
5.84632e-11
5.84632e-11
4.41101e-11
4.41101e-11
3.29234e-11
3.29234e-11
2.42836e-11
2.42836e-11