/*--------------------------------*- C++ -*----------------------------------*\
| =========                 |                                                 |
| \\      /  F ield         | OpenFOAM: The Open Source CFD Toolbox           |
|  \\    /   O peration     | Version:  2012                                  |
|   \\  /    A nd           | Website:  www.openfoam.com                      |
|    \\/     M anipulation  |                                                 |
\*---------------------------------------------------------------------------*/
FoamFile
{
    version     2.0;
    format      ascii;
    class       volScalarField;
    location    "19000";
    object      p;
}
// * * * * * * * * * * * * * * * * * * * * * * * * * * * * * * * * * * * * * //

dimensions      [0 2 -2 0 0 0 0];


internalField   nonuniform List<scalar> 
160
(
-1.03679e-16
5.85302e-16
-1.49241e-16
5.66005e-16
-2.35515e-16
5.17259e-16
-3.34903e-16
4.35024e-16
-4.0522e-16
3.10426e-16
-4.79077e-16
1.34083e-16
-5.77798e-16
-9.18334e-17
-7.17782e-16
-3.55635e-16
-8.95302e-16
-6.51954e-16
-1.15233e-15
-9.99874e-16
-1.49717e-15
-1.39225e-15
-1.91369e-15
-1.89349e-15
-2.49334e-15
-2.50757e-15
-3.21917e-15
-3.22246e-15
-4.12672e-15
-4.13207e-15
-5.38464e-15
-5.20311e-15
-7.07639e-15
-7.09925e-15
-9.48721e-15
-9.36039e-15
-1.31514e-14
-1.30561e-14
-1.6803e-14
-1.66643e-14
-2.60401e-16
-1.5542e-16
-2.61307e-16
-1.55692e-16
-2.65005e-16
-1.57829e-16
-2.73114e-16
-1.64267e-16
-2.88875e-16
-1.8002e-16
-3.20394e-16
-2.13482e-16
-3.8042e-16
-2.80141e-16
-4.66874e-16
-3.88253e-16
-6.17359e-16
-5.47757e-16
-8.36735e-16
-7.77217e-16
-1.15017e-15
-1.1153e-15
-1.61058e-15
-1.58883e-15
-2.22636e-15
-2.22368e-15
-3.02141e-15
-3.02383e-15
-3.99881e-15
-4.01868e-15
-5.40501e-15
-5.22573e-15
-6.86015e-15
-6.91148e-15
-9.44052e-15
-9.50311e-15
-1.34182e-14
-1.31408e-14
-1.66195e-14
-1.66461e-14
-2.12383e-14
-2.12601e-14
-2.28994e-14
-2.28485e-14
-2.42349e-14
-2.40242e-14
-2.51532e-14
-2.49406e-14
-2.50464e-14
-2.5049e-14
-2.50794e-14
-2.50749e-14
-2.50047e-14
-2.5003e-14
-2.50764e-14
-2.5074e-14
-2.50633e-14
-2.50603e-14
-2.50584e-14
-2.5052e-14
-2.50574e-14
-2.5044e-14
-2.50681e-14
-2.50532e-14
-2.50652e-14
-2.50585e-14
-2.50692e-14
-2.50594e-14
-2.50689e-14
-2.50614e-14
-2.50663e-14
-2.50626e-14
-2.5067e-14
-2.50624e-14
-2.50673e-14
-2.50621e-14
-2.50673e-14
-2.50622e-14
-2.50672e-14
-2.50623e-14
-2.11872e-14
-2.11625e-14
-2.28061e-14
-2.27544e-14
-2.4188e-14
-2.39611e-14
-2.47624e-14
-2.46658e-14
-2.49932e-14
-2.50774e-14
-2.50531e-14
-2.50252e-14
-2.49901e-14
-2.49846e-14
-2.50513e-14
-2.50395e-14
-2.50546e-14
-2.50485e-14
-2.50585e-14
-2.50471e-14
-2.50662e-14
-2.50402e-14
-2.50615e-14
-2.5046e-14
-2.506e-14
-2.50545e-14
-2.50644e-14
-2.50602e-14
-2.50638e-14
-2.50603e-14
-2.50627e-14
-2.5063e-14
-2.50639e-14
-2.50635e-14
-2.50638e-14
-2.50636e-14
-2.50638e-14
-2.50637e-14
-2.50638e-14
-2.50637e-14
)
;

boundaryField
{
    walls
    {
        type            zeroGradient;
    }
    inlet
    {
        type            cyclic;
    }
    outlet
    {
        type            cyclic;
    }
    sides
    {
        type            empty;
    }
}


// ************************************************************************* //
