/*--------------------------------*- C++ -*----------------------------------*\
| =========                 |                                                 |
| \\      /  F ield         | OpenFOAM: The Open Source CFD Toolbox           |
|  \\    /   O peration     | Version:  2012                                  |
|   \\  /    A nd           | Website:  www.openfoam.com                      |
|    \\/     M anipulation  |                                                 |
\*---------------------------------------------------------------------------*/
FoamFile
{
    version     2.0;
    format      ascii;
    class       volVectorField;
    location    "19000";
    object      U;
}
// * * * * * * * * * * * * * * * * * * * * * * * * * * * * * * * * * * * * * //

dimensions      [0 1 -1 0 0 0 0];


internalField   nonuniform List<vector> 
160
(
(0.0433138 -7.68594e-16 1.1456e-16)
(0.0433138 -6.71649e-18 2.14568e-32)
(0.141574 3.13212e-15 1.48701e-15)
(0.141574 2.59661e-18 -7.16467e-18)
(0.265387 1.60047e-15 1.95142e-15)
(0.265387 5.60741e-17 -5.69693e-17)
(0.408837 1.52517e-15 1.93633e-15)
(0.408837 1.32942e-16 -5.72351e-17)
(0.539481 1.07287e-15 1.83504e-15)
(0.539481 1.31678e-16 1.83802e-16)
(0.639145 7.71071e-16 1.81914e-15)
(0.639145 1.65944e-16 4.4317e-16)
(0.715015 5.65293e-16 1.90659e-15)
(0.715015 1.77387e-16 7.12495e-16)
(0.77501 3.91505e-16 2.00663e-15)
(0.77501 1.67415e-16 1.09948e-15)
(0.823817 2.8774e-16 2.06642e-15)
(0.823817 1.71291e-16 1.61624e-15)
(0.864291 2.5782e-16 2.13904e-15)
(0.864291 1.91236e-16 2.00428e-15)
(0.89837 2.35896e-16 2.20671e-15)
(0.89837 2.41198e-16 2.30178e-15)
(0.927487 2.59234e-16 2.48339e-15)
(0.927487 3.04606e-16 2.56139e-15)
(0.952749 3.19827e-16 2.69647e-15)
(0.952749 3.35043e-16 2.66367e-15)
(0.975009 3.04232e-16 2.9084e-15)
(0.975009 3.14788e-16 2.93725e-15)
(0.994906 3.46516e-16 3.52868e-15)
(0.994906 3.42668e-16 2.98548e-15)
(1.01288 3.64247e-16 4.43712e-15)
(1.01288 4.47912e-16 4.57785e-15)
(1.02919 3.07915e-16 5.93485e-15)
(1.02919 3.32103e-16 5.59428e-15)
(1.04382 6.62816e-16 8.0409e-15)
(1.04382 6.62107e-16 7.94522e-15)
(1.05641 2.64578e-16 7.83488e-15)
(1.05641 2.84703e-16 7.90069e-15)
(1.06535 3.94189e-16 1.0116e-14)
(1.06535 4.88465e-16 1.00547e-14)
(0.0433138 8.61721e-18 -3.24266e-17)
(0.0433138 1.02268e-17 1.41281e-17)
(0.141574 3.96105e-17 -5.64747e-16)
(0.141574 2.71673e-17 -4.97837e-16)
(0.265387 1.47245e-16 -7.51056e-16)
(0.265387 1.08931e-16 -5.53792e-16)
(0.408837 2.72954e-16 -1.02586e-15)
(0.408837 2.12317e-16 -4.47444e-16)
(0.539481 3.90166e-16 -1.14164e-15)
(0.539481 3.16532e-16 -2.67264e-16)
(0.639145 5.13925e-16 -1.15596e-15)
(0.639145 4.42233e-16 -1.28195e-16)
(0.715015 6.06891e-16 -1.15816e-15)
(0.715015 5.4063e-16 -4.19002e-16)
(0.77501 6.85199e-16 -1.18827e-15)
(0.77501 6.29783e-16 -6.60962e-16)
(0.823817 7.64377e-16 -1.17325e-15)
(0.823817 7.1985e-16 -8.8452e-16)
(0.864291 7.82737e-16 -1.18405e-15)
(0.864291 7.64259e-16 -1.2332e-15)
(0.89837 7.8849e-16 -1.54329e-15)
(0.89837 7.7636e-16 -1.66763e-15)
(0.927487 7.58232e-16 -2.00051e-15)
(0.927487 7.64059e-16 -2.11106e-15)
(0.952749 6.89067e-16 -2.53167e-15)
(0.952749 7.14897e-16 -2.56368e-15)
(0.975009 5.94099e-16 -2.90425e-15)
(0.975009 6.14441e-16 -2.92822e-15)
(0.994906 5.5225e-16 -3.80002e-15)
(0.994906 5.21205e-16 -3.32049e-15)
(1.01288 4.77529e-16 -3.91236e-15)
(1.01288 4.2049e-16 -4.25969e-15)
(1.02919 3.70634e-16 -5.86148e-15)
(1.02919 3.86547e-16 -6.147e-15)
(1.04382 7.57255e-16 -8.85916e-15)
(1.04382 7.55276e-16 -8.15667e-15)
(1.05641 2.35105e-16 -6.88202e-15)
(1.05641 2.23713e-16 -7.68297e-15)
(1.06535 3.79777e-16 -1.00812e-14)
(1.06535 4.16292e-16 -9.88539e-15)
(1.06535 3.53663e-16 2.21579e-15)
(1.06535 3.73986e-16 2.14765e-15)
(1.05641 3.91956e-16 2.4256e-15)
(1.05641 4.35846e-16 2.37894e-15)
(1.04382 4.18756e-16 1.63026e-15)
(1.04382 4.17285e-16 1.55555e-15)
(1.02919 -2.29364e-16 4.99611e-31)
(1.02919 -3.26356e-17 2.49519e-16)
(1.01288 -1.34167e-16 -1.11466e-16)
(1.01288 -9.90298e-17 -5.17791e-17)
(0.994906 -8.81292e-17 -2.07953e-17)
(0.994906 -6.76687e-17 -2.82753e-17)
(0.975009 -1.32037e-16 3.76383e-17)
(0.975009 -1.56836e-16 -2.62114e-17)
(0.952749 -8.02241e-17 -1.06019e-18)
(0.952749 -7.92751e-17 6.90948e-18)
(0.927487 -2.27813e-17 1.30479e-17)
(0.927487 -2.55518e-17 1.163e-17)
(0.89837 -1.69655e-17 -4.71174e-18)
(0.89837 -3.31403e-17 1.88891e-17)
(0.864291 9.15066e-18 1.46087e-17)
(0.864291 2.34171e-17 -2.70895e-18)
(0.823817 -1.21273e-17 0)
(0.823817 2.15934e-17 2.99374e-17)
(0.77501 9.34042e-18 -8.76372e-18)
(0.77501 2.85119e-18 2.23688e-17)
(0.715015 -9.2027e-18 -2.43069e-18)
(0.715015 1.05352e-17 2.93479e-17)
(0.639145 3.00011e-18 -2.63454e-18)
(0.639145 1.32196e-17 2.72937e-17)
(0.539481 -1.75842e-17 5.34193e-19)
(0.539481 2.99927e-18 1.28274e-17)
(0.408837 -2.45784e-18 -5.7608e-18)
(0.408837 2.99541e-18 1.58187e-17)
(0.265387 -3.27798e-18 -4.71067e-18)
(0.265387 3.01745e-18 1.59647e-17)
(0.141574 5.69465e-19 -3.21518e-18)
(0.141574 5.10885e-19 1.19425e-17)
(0.0433138 7.99901e-20 -1.34596e-19)
(0.0433138 -2.74702e-19 2.6963e-18)
(1.06535 4.0527e-16 -2.31909e-15)
(1.06535 3.41316e-16 -2.05185e-15)
(1.05641 4.11214e-16 -2.44352e-15)
(1.05641 4.19409e-16 -2.34612e-15)
(1.04382 3.60753e-16 -1.08277e-15)
(1.04382 3.52116e-16 -1.2879e-15)
(1.02919 -2.60293e-17 -3.51186e-16)
(1.02919 1.78243e-17 -5.83076e-16)
(1.01288 -5.38086e-17 -9.11144e-17)
(1.01288 -1.28048e-16 1.79639e-17)
(0.994906 -1.01353e-16 -1.23081e-17)
(0.994906 -1.00695e-16 -1.82744e-17)
(0.975009 -1.09177e-16 -9.81798e-18)
(0.975009 -1.41174e-16 -2.50857e-17)
(0.952749 -2.07873e-17 -4.4607e-17)
(0.952749 -2.51957e-17 -3.65903e-17)
(0.927487 -2.28727e-17 -2.60712e-17)
(0.927487 -2.69062e-17 1.8618e-17)
(0.89837 -1.16034e-18 1.36195e-18)
(0.89837 -3.56667e-17 6.53506e-18)
(0.864291 -1.66705e-17 8.16261e-18)
(0.864291 -3.07896e-17 -4.25231e-17)
(0.823817 -2.23847e-17 -5.94597e-18)
(0.823817 -1.27292e-17 -3.87374e-17)
(0.77501 -1.11865e-17 -6.01115e-18)
(0.77501 8.60313e-18 -1.75794e-17)
(0.715015 -3.44793e-18 -1.68976e-17)
(0.715015 7.96946e-18 -1.37524e-17)
(0.639145 -1.26311e-17 -1.65466e-17)
(0.639145 -1.52321e-17 -8.52207e-18)
(0.539481 -1.06957e-17 -9.02097e-18)
(0.539481 -6.07764e-18 -1.39848e-18)
(0.408837 1.05464e-18 -1.0609e-17)
(0.408837 1.74319e-18 -1.79925e-18)
(0.265387 -4.47815e-19 -1.127e-17)
(0.265387 1.15111e-18 -5.96668e-19)
(0.141574 1.43926e-19 -8.47474e-18)
(0.141574 3.05579e-19 -2.38923e-19)
(0.0433138 -3.88489e-19 -1.85372e-18)
(0.0433138 9.70815e-20 -5.28795e-20)
)
;

boundaryField
{
    walls
    {
        type            fixedValue;
        value           uniform (0 0 0);
    }
    inlet
    {
        type            cyclic;
    }
    outlet
    {
        type            cyclic;
    }
    sides
    {
        type            empty;
    }
}


// ************************************************************************* //
