/*--------------------------------*- C++ -*----------------------------------*\
| =========                 |                                                 |
| \\      /  F ield         | OpenFOAM: The Open Source CFD Toolbox           |
|  \\    /   O peration     | Version:  2012                                  |
|   \\  /    A nd           | Website:  www.openfoam.com                      |
|    \\/     M anipulation  |                                                 |
\*---------------------------------------------------------------------------*/
FoamFile
{
    version     2.0;
    format      ascii;
    class       volVectorField;
    location    "6000";
    object      U;
}
// * * * * * * * * * * * * * * * * * * * * * * * * * * * * * * * * * * * * * //

dimensions      [0 1 -1 0 0 0 0];


internalField   nonuniform List<vector> 
2560
(
(0.00381693 -4.68144e-16 -1.31329e-17)
(0.00381693 -2.75766e-19 4.15593e-22)
(0.0115056 -1.99388e-15 -5.38882e-17)
(0.0115056 -2.83877e-19 3.82801e-21)
(0.0193051 -1.85799e-15 -5.60555e-17)
(0.0193051 -9.21506e-19 5.19838e-21)
(0.027217 -1.6641e-15 -5.81195e-17)
(0.027217 -1.43956e-18 6.09269e-21)
(0.0352426 -1.74759e-15 -6.03413e-17)
(0.0352426 -1.97067e-18 7.18526e-21)
(0.0433833 -1.75736e-15 -6.26627e-17)
(0.0433833 -2.53383e-18 8.22773e-21)
(0.0516407 -1.75985e-15 -6.5041e-17)
(0.0516407 -3.11099e-18 9.3451e-21)
(0.060016 -1.75858e-15 -6.74748e-17)
(0.060016 -3.71907e-18 1.03596e-20)
(0.0685106 -1.757e-15 -6.99729e-17)
(0.0685106 -4.37414e-18 1.11108e-20)
(0.0771258 -1.7557e-15 -7.25419e-17)
(0.0771258 -5.00664e-18 1.28295e-20)
(0.0858627 -1.75451e-15 -7.51854e-17)
(0.0858627 -5.61262e-18 1.39779e-20)
(0.0947223 -1.7533e-15 -7.79051e-17)
(0.0947223 -6.2735e-18 1.50105e-20)
(0.103705 -1.75209e-15 -8.07008e-17)
(0.103705 -6.96994e-18 1.58016e-20)
(0.112812 -1.75089e-15 -8.35708e-17)
(0.112812 -7.62578e-18 1.70702e-20)
(0.122041 -1.74967e-15 -8.65114e-17)
(0.122041 -8.26289e-18 1.8147e-20)
(0.131393 -1.74844e-15 -8.9517e-17)
(0.131393 -8.92918e-18 1.82932e-20)
(0.140866 -1.7472e-15 -9.25797e-17)
(0.140866 -9.66802e-18 1.86302e-20)
(0.150456 -1.74584e-15 -9.5689e-17)
(0.150456 -1.05442e-17 1.83537e-20)
(0.16016 -1.74442e-15 -9.8831e-17)
(0.16016 -1.13965e-17 1.78767e-20)
(0.169973 -1.74302e-15 -1.0199e-16)
(0.169973 -1.23132e-17 1.65477e-20)
(0.179886 -1.74154e-15 -1.05145e-16)
(0.179886 -1.32622e-17 1.51758e-20)
(0.189893 -1.74004e-15 -1.08274e-16)
(0.189893 -1.41748e-17 1.31002e-20)
(0.19998 -1.73846e-15 -1.1135e-16)
(0.19998 -1.51358e-17 1.09645e-20)
(0.210137 -1.73671e-15 -1.14348e-16)
(0.210137 -1.62909e-17 7.20433e-21)
(0.220348 -1.73476e-15 -1.17238e-16)
(0.220348 -1.74222e-17 4.93832e-21)
(0.230597 -1.73292e-15 -1.1999e-16)
(0.230597 -1.85566e-17 -9.55053e-22)
(0.240865 -1.73102e-15 -1.22579e-16)
(0.240865 -1.97577e-17 -8.91762e-21)
(0.251133 -1.72912e-15 -1.2498e-16)
(0.251133 -2.08023e-17 -1.64174e-20)
(0.261382 -1.72723e-15 -1.27172e-16)
(0.261382 -2.18259e-17 -2.44421e-20)
(0.271589 -1.72533e-15 -1.2914e-16)
(0.271589 -2.29094e-17 -3.00012e-20)
(0.281736 -1.72355e-15 -1.30874e-16)
(0.281736 -2.39723e-17 -3.62959e-20)
(0.291801 -1.72155e-15 -1.32372e-16)
(0.291801 -2.52582e-17 -4.82708e-20)
(0.301766 -1.71956e-15 -1.33636e-16)
(0.301766 -2.65613e-17 -5.77058e-20)
(0.311614 -1.71767e-15 -1.34677e-16)
(0.311614 -2.75109e-17 -6.57243e-20)
(0.321328 -1.71576e-15 -1.35505e-16)
(0.321328 -2.83925e-17 -7.41707e-20)
(0.330896 -1.71409e-15 -1.36138e-16)
(0.330896 -2.93519e-17 -8.13986e-20)
(0.340305 -1.71248e-15 -1.36598e-16)
(0.340305 -3.04312e-17 -9.41501e-20)
(0.349547 -1.71067e-15 -1.36904e-16)
(0.349547 -3.16134e-17 -1.08598e-19)
(0.358613 -1.70877e-15 -1.37079e-16)
(0.358613 -3.29207e-17 -1.21022e-19)
(0.3675 -1.70687e-15 -1.37145e-16)
(0.3675 -3.41429e-17 -1.32351e-19)
(0.376202 -1.70505e-15 -1.37124e-16)
(0.376202 -3.54606e-17 -1.51343e-19)
(0.384719 -1.70331e-15 -1.37038e-16)
(0.384719 -3.65217e-17 -1.65777e-19)
(0.39305 -1.70162e-15 -1.36903e-16)
(0.39305 -3.76692e-17 -1.7834e-19)
(0.401195 -1.69988e-15 -1.3674e-16)
(0.401195 -3.8905e-17 -1.8893e-19)
(0.409157 -1.69844e-15 -1.36562e-16)
(0.409157 -3.9891e-17 -2.00444e-19)
(0.416939 -1.69686e-15 -1.36382e-16)
(0.416939 -4.09953e-17 -2.14807e-19)
(0.424543 -1.69511e-15 -1.36212e-16)
(0.424543 -4.21527e-17 -2.34447e-19)
(0.431974 -1.6935e-15 -1.36063e-16)
(0.431974 -4.3448e-17 -2.48245e-19)
(0.439237 -1.69177e-15 -1.35942e-16)
(0.439237 -4.47022e-17 -2.62278e-19)
(0.446335 -1.69008e-15 -1.35856e-16)
(0.446335 -4.57687e-17 -2.77754e-19)
(0.453274 -1.68813e-15 -1.35815e-16)
(0.453274 -4.69138e-17 -2.97989e-19)
(0.460059 -1.68616e-15 -1.35819e-16)
(0.460059 -4.84202e-17 -3.16973e-19)
(0.466695 -1.68442e-15 -1.35874e-16)
(0.466695 -4.97079e-17 -3.49334e-19)
(0.473187 -1.68232e-15 -1.35982e-16)
(0.473187 -5.10628e-17 -3.8116e-19)
(0.479541 -1.6802e-15 -1.36143e-16)
(0.479541 -5.26114e-17 -4.163e-19)
(0.48576 -1.67851e-15 -1.36359e-16)
(0.48576 -5.33774e-17 -4.3867e-19)
(0.49185 -1.67754e-15 -1.36635e-16)
(0.49185 -5.40895e-17 -4.62368e-19)
(0.497816 -1.67669e-15 -1.36975e-16)
(0.497816 -5.46818e-17 -4.74816e-19)
(0.503663 -1.67542e-15 -1.37375e-16)
(0.503663 -5.4707e-17 -5.0204e-19)
(0.509394 -1.67434e-15 -1.37838e-16)
(0.509394 -5.51505e-17 -5.20552e-19)
(0.515014 -1.67339e-15 -1.37335e-16)
(0.515014 -5.53813e-17 -5.42196e-19)
(0.520528 -1.67247e-15 -1.35928e-16)
(0.520528 -5.51765e-17 -5.58506e-19)
(0.525939 -1.6716e-15 -1.34873e-16)
(0.525939 -5.61277e-17 -5.91511e-19)
(0.531251 -1.67038e-15 -1.35337e-16)
(0.531251 -5.63743e-17 -6.3112e-19)
(0.536468 -1.66889e-15 -1.35878e-16)
(0.536468 -5.66391e-17 -6.68638e-19)
(0.541594 -1.66818e-15 -1.36473e-16)
(0.541594 -5.66307e-17 -6.90822e-19)
(0.546631 -1.6676e-15 -1.3711e-16)
(0.546631 -5.62212e-17 -7.32867e-19)
(0.551583 -1.66653e-15 -1.37804e-16)
(0.551583 -5.68983e-17 -7.80023e-19)
(0.556454 -1.66501e-15 -1.3853e-16)
(0.556454 -5.73027e-17 -8.34607e-19)
(0.561245 -1.66242e-15 -1.39362e-16)
(0.561245 -5.80564e-17 -8.9478e-19)
(0.56596 -1.65999e-15 -1.40226e-16)
(0.56596 -5.87031e-17 -9.34728e-19)
(0.570602 -1.6587e-15 -1.41122e-16)
(0.570602 -5.94481e-17 -9.79964e-19)
(0.575173 -1.65751e-15 -1.42077e-16)
(0.575173 -6.03916e-17 -1.03963e-18)
(0.579676 -1.65591e-15 -1.43116e-16)
(0.579676 -6.01579e-17 -1.06338e-18)
(0.584113 -1.65425e-15 -1.4418e-16)
(0.584113 -6.01991e-17 -1.11051e-18)
(0.588486 -1.65264e-15 -1.45315e-16)
(0.588486 -6.04879e-17 -1.13105e-18)
(0.592797 -1.65151e-15 -1.46468e-16)
(0.592797 -6.16533e-17 -1.14226e-18)
(0.597049 -1.65063e-15 -1.47692e-16)
(0.597049 -6.247e-17 -1.16561e-18)
(0.601243 -1.64941e-15 -1.48973e-16)
(0.601243 -6.35609e-17 -1.20794e-18)
(0.605382 -1.64755e-15 -1.50341e-16)
(0.605382 -6.48781e-17 -1.29386e-18)
(0.609467 -1.6454e-15 -1.5172e-16)
(0.609467 -6.54705e-17 -1.25594e-18)
(0.6135 -1.64336e-15 -1.53118e-16)
(0.6135 -6.69702e-17 -1.18929e-18)
(0.617482 -1.64184e-15 -1.54624e-16)
(0.617482 -6.784e-17 -1.24443e-18)
(0.621415 -1.64031e-15 -1.56151e-16)
(0.621415 -6.82822e-17 -1.34042e-18)
(0.625301 -1.63816e-15 -1.57723e-16)
(0.625301 -7.03548e-17 -1.36073e-18)
(0.62914 -1.63707e-15 -1.59387e-16)
(0.62914 -6.97173e-17 -1.31554e-18)
(0.632936 -1.63693e-15 -1.61062e-16)
(0.632936 -6.87381e-17 -1.23573e-18)
(0.636688 -1.63604e-15 -1.62767e-16)
(0.636688 -6.85225e-17 -1.13455e-18)
(0.640397 -1.63507e-15 -1.64587e-16)
(0.640397 -6.68189e-17 -1.14754e-18)
(0.644067 -1.63437e-15 -1.66442e-16)
(0.644067 -6.63768e-17 -1.11772e-18)
(0.647696 -1.63327e-15 -1.68381e-16)
(0.647696 -6.68544e-17 -1.02966e-18)
(0.651287 -1.63171e-15 -1.7041e-16)
(0.651287 -6.66308e-17 -1.00054e-18)
(0.654841 -1.63037e-15 -1.72419e-16)
(0.654841 -6.6034e-17 -9.55528e-19)
(0.658358 -1.62999e-15 -1.74477e-16)
(0.658358 -6.61675e-17 -8.91486e-19)
(0.66184 -1.62944e-15 -1.76648e-16)
(0.66184 -6.68866e-17 -7.77092e-19)
(0.665288 -1.6285e-15 -1.78839e-16)
(0.665288 -6.63805e-17 -7.6535e-19)
(0.668702 -1.62687e-15 -1.81176e-16)
(0.668702 -6.46832e-17 -8.1296e-19)
(0.672083 -1.62481e-15 -1.83608e-16)
(0.672083 -6.48045e-17 -7.69965e-19)
(0.675433 -1.62374e-15 -1.85994e-16)
(0.675433 -6.63076e-17 -6.07179e-19)
(0.678752 -1.62228e-15 -1.88522e-16)
(0.678752 -6.733e-17 -5.29453e-19)
(0.68204 -1.61954e-15 -1.91032e-16)
(0.68204 -6.6655e-17 -4.79892e-19)
(0.6853 -1.6154e-15 -1.93733e-16)
(0.6853 -6.81213e-17 -4.87699e-19)
(0.68853 -1.61269e-15 -1.96325e-16)
(0.68853 -6.96653e-17 -4.9003e-19)
(0.691733 -1.6116e-15 -1.99e-16)
(0.691733 -6.82399e-17 -5.21608e-19)
(0.694908 -1.61017e-15 -2.01832e-16)
(0.694908 -7.0154e-17 -4.99371e-19)
(0.698057 -1.60934e-15 -2.04732e-16)
(0.698057 -7.11543e-17 -5.28518e-19)
(0.701179 -1.6085e-15 -2.07554e-16)
(0.701179 -7.08942e-17 -4.94819e-19)
(0.704277 -1.60813e-15 -2.10513e-16)
(0.704277 -7.30125e-17 -3.37573e-19)
(0.707349 -1.60656e-15 -2.1361e-16)
(0.707349 -7.44709e-17 -3.68682e-19)
(0.710397 -1.60426e-15 -2.16715e-16)
(0.710397 -7.52278e-17 -3.99015e-19)
(0.713422 -1.60288e-15 -2.19979e-16)
(0.713422 -7.66547e-17 -3.83193e-19)
(0.716423 -1.60093e-15 -2.23295e-16)
(0.716423 -7.7762e-17 -2.95741e-19)
(0.719402 -1.59981e-15 -2.26551e-16)
(0.719402 -7.9454e-17 -1.85362e-19)
(0.722358 -1.59871e-15 -2.29941e-16)
(0.722358 -8.07736e-17 -1.59548e-19)
(0.725293 -1.59619e-15 -2.33459e-16)
(0.725293 -8.33286e-17 -9.99668e-20)
(0.728207 -1.59564e-15 -2.37099e-16)
(0.728207 -8.48849e-17 7.1779e-21)
(0.7311 -1.59552e-15 -2.40769e-16)
(0.7311 -8.42128e-17 5.4602e-20)
(0.733972 -1.59299e-15 -2.4466e-16)
(0.733972 -8.45007e-17 -3.67064e-20)
(0.736825 -1.59147e-15 -2.48312e-16)
(0.736825 -8.32306e-17 1.06258e-19)
(0.739658 -1.59047e-15 -2.52229e-16)
(0.739658 -8.34724e-17 4.10298e-19)
(0.742472 -1.58752e-15 -2.56447e-16)
(0.742472 -8.39932e-17 6.11731e-19)
(0.745267 -1.58325e-15 -2.60519e-16)
(0.745267 -8.48506e-17 6.38497e-19)
(0.748043 -1.57763e-15 -2.64684e-16)
(0.748043 -8.89284e-17 5.64505e-19)
(0.750802 -1.57327e-15 -2.69007e-16)
(0.750802 -9.34793e-17 6.63369e-19)
(0.753543 -1.57254e-15 -2.73448e-16)
(0.753543 -9.52756e-17 7.25979e-19)
(0.756266 -1.57138e-15 -2.7798e-16)
(0.756266 -9.80363e-17 6.17137e-19)
(0.758973 -1.57013e-15 -2.82706e-16)
(0.758973 -1.02052e-16 7.16343e-19)
(0.761663 -1.56974e-15 -2.87541e-16)
(0.761663 -1.03359e-16 1.01256e-18)
(0.764336 -1.56842e-15 -2.92678e-16)
(0.764336 -1.05465e-16 1.2359e-18)
(0.766993 -1.56511e-15 -2.97676e-16)
(0.766993 -1.08728e-16 1.11978e-18)
(0.769634 -1.56276e-15 -3.02928e-16)
(0.769634 -1.11784e-16 7.72164e-19)
(0.77226 -1.56306e-15 -3.08396e-16)
(0.77226 -1.1504e-16 7.44153e-19)
(0.774871 -1.56238e-15 -3.14208e-16)
(0.774871 -1.18959e-16 1.31322e-18)
(0.777466 -1.5604e-15 -3.19997e-16)
(0.777466 -1.21524e-16 1.46714e-18)
(0.780046 -1.55877e-15 -3.25885e-16)
(0.780046 -1.23762e-16 1.26396e-18)
(0.782612 -1.55777e-15 -3.31921e-16)
(0.782612 -1.28758e-16 1.48073e-18)
(0.785164 -1.55693e-15 -3.38453e-16)
(0.785164 -1.35944e-16 1.63259e-18)
(0.787702 -1.55544e-15 -3.44687e-16)
(0.787702 -1.40266e-16 1.34268e-18)
(0.790225 -1.55169e-15 -3.5142e-16)
(0.790225 -1.43934e-16 1.40794e-18)
(0.792735 -1.54583e-15 -3.58231e-16)
(0.792735 -1.52246e-16 1.78557e-18)
(0.795232 -1.54204e-15 -3.64779e-16)
(0.795232 -1.58541e-16 1.68358e-18)
(0.797715 -1.53854e-15 -3.7181e-16)
(0.797715 -1.6218e-16 1.4288e-18)
(0.800186 -1.53432e-15 -3.79173e-16)
(0.800186 -1.68717e-16 1.75774e-18)
(0.802643 -1.53102e-15 -3.86408e-16)
(0.802643 -1.73611e-16 1.80578e-18)
(0.805088 -1.52734e-15 -3.93972e-16)
(0.805088 -1.77252e-16 1.64774e-18)
(0.807521 -1.52316e-15 -4.01693e-16)
(0.807521 -1.85816e-16 1.73246e-18)
(0.809941 -1.51607e-15 -4.0967e-16)
(0.809941 -1.91806e-16 1.83806e-18)
(0.812349 -1.50941e-15 -4.17683e-16)
(0.812349 -1.98859e-16 1.88693e-18)
(0.814745 -1.50595e-15 -4.25634e-16)
(0.814745 -2.05087e-16 2.04854e-18)
(0.817129 -1.50455e-15 -4.34178e-16)
(0.817129 -2.04072e-16 2.36798e-18)
(0.819502 -1.50275e-15 -4.42855e-16)
(0.819502 -2.12129e-16 2.22349e-18)
(0.821863 -1.50165e-15 -4.5199e-16)
(0.821863 -2.12885e-16 2.13555e-18)
(0.824213 -1.50133e-15 -4.61236e-16)
(0.824213 -2.16031e-16 2.05587e-18)
(0.826552 -1.49589e-15 -4.71025e-16)
(0.826552 -2.21561e-16 2.04295e-18)
(0.828879 -1.48961e-15 -4.80365e-16)
(0.828879 -2.23249e-16 1.97662e-18)
(0.831196 -1.48652e-15 -4.86355e-16)
(0.831196 -2.30579e-16 1.86722e-18)
(0.833502 -1.4851e-15 -4.87668e-16)
(0.833502 -2.33549e-16 1.84724e-18)
(0.835798 -1.48236e-15 -4.89108e-16)
(0.835798 -2.36405e-16 1.99658e-18)
(0.838083 -1.47362e-15 -4.90342e-16)
(0.838083 -2.49263e-16 2.23041e-18)
(0.840358 -1.46174e-15 -4.90643e-16)
(0.840358 -2.54865e-16 1.82026e-18)
(0.842622 -1.45224e-15 -4.91138e-16)
(0.842622 -2.5908e-16 1.59144e-18)
(0.844876 -1.45028e-15 -4.9267e-16)
(0.844876 -2.64843e-16 1.60004e-18)
(0.847121 -1.45494e-15 -4.94281e-16)
(0.847121 -2.71346e-16 1.64483e-18)
(0.849355 -1.45443e-15 -4.94225e-16)
(0.849355 -2.75726e-16 1.4959e-18)
(0.85158 -1.44974e-15 -4.94365e-16)
(0.85158 -2.82972e-16 1.64568e-18)
(0.853795 -1.44458e-15 -4.9512e-16)
(0.853795 -2.91709e-16 1.83688e-18)
(0.856 -1.439e-15 -4.95413e-16)
(0.856 -2.9657e-16 1.8994e-18)
(0.858196 -1.4381e-15 -4.96448e-16)
(0.858196 -3.01961e-16 1.82878e-18)
(0.860383 -1.43714e-15 -4.96808e-16)
(0.860383 -3.07916e-16 1.69078e-18)
(0.862561 -1.43375e-15 -4.96788e-16)
(0.862561 -3.10681e-16 1.51862e-18)
(0.864729 -1.4325e-15 -4.96956e-16)
(0.864729 -3.16459e-16 1.34767e-18)
(0.866888 -1.42999e-15 -4.95988e-16)
(0.866888 -3.22214e-16 1.06622e-18)
(0.869038 -1.42457e-15 -4.93676e-16)
(0.869038 -3.27672e-16 6.67389e-19)
(0.87118 -1.41898e-15 -4.92091e-16)
(0.87118 -3.36827e-16 4.88883e-19)
(0.873312 -1.40918e-15 -4.90683e-16)
(0.873312 -3.48395e-16 5.78565e-19)
(0.875436 -1.39847e-15 -4.89296e-16)
(0.875436 -3.54213e-16 5.55302e-19)
(0.877551 -1.3929e-15 -4.88411e-16)
(0.877551 -3.61098e-16 3.76117e-19)
(0.879658 -1.38925e-15 -4.86349e-16)
(0.879658 -3.6968e-16 -4.66471e-20)
(0.881756 -1.38356e-15 -4.84646e-16)
(0.881756 -3.72954e-16 2.99462e-19)
(0.883846 -1.37886e-15 -4.83025e-16)
(0.883846 -3.80177e-16 -7.47874e-21)
(0.885927 -1.37074e-15 -4.80938e-16)
(0.885927 -3.89119e-16 -3.21366e-19)
(0.888 -1.36224e-15 -4.78827e-16)
(0.888 -3.98131e-16 -6.43926e-19)
(0.890065 -1.35577e-15 -4.76293e-16)
(0.890065 -4.06649e-16 -6.72223e-19)
(0.892122 -1.34652e-15 -4.7366e-16)
(0.892122 -4.1434e-16 -5.70089e-19)
(0.894171 -1.33535e-15 -4.70598e-16)
(0.894171 -4.27432e-16 -1.53049e-19)
(0.896212 -1.32463e-15 -4.6794e-16)
(0.896212 -4.36164e-16 -2.65201e-20)
(0.898244 -1.31599e-15 -4.64635e-16)
(0.898244 -4.45492e-16 3.0992e-19)
(0.900269 -1.30636e-15 -4.61345e-16)
(0.900269 -4.57578e-16 -3.02833e-19)
(0.902287 -1.29607e-15 -4.58437e-16)
(0.902287 -4.67533e-16 -1.15206e-18)
(0.904296 -1.28989e-15 -4.55387e-16)
(0.904296 -4.74709e-16 -7.61004e-19)
(0.906298 -1.27983e-15 -4.49704e-16)
(0.906298 -4.84639e-16 -5.26595e-19)
(0.908292 -1.26354e-15 -4.43837e-16)
(0.908292 -4.97295e-16 -9.48001e-19)
(0.910278 -1.24737e-15 -4.39991e-16)
(0.910278 -5.07948e-16 -2.96537e-18)
(0.912257 -1.23586e-15 -4.36512e-16)
(0.912257 -5.18862e-16 -4.40889e-18)
(0.914229 -1.22727e-15 -4.3225e-16)
(0.914229 -5.24783e-16 -3.09168e-18)
(0.916193 -1.21521e-15 -4.2749e-16)
(0.916193 -5.49808e-16 -2.67985e-18)
(0.91815 -1.20426e-15 -4.22412e-16)
(0.91815 -5.51057e-16 -5.67663e-18)
(0.920099 -1.19475e-15 -4.20695e-16)
(0.920099 -5.51442e-16 -5.27968e-18)
(0.922041 -1.18569e-15 -4.15033e-16)
(0.922041 -5.61031e-16 -3.00227e-18)
(0.923976 -1.17186e-15 -4.07596e-16)
(0.923976 -5.6604e-16 -3.58463e-18)
(0.925904 -1.15068e-15 -4.01434e-16)
(0.925904 -5.76441e-16 -6.66498e-18)
(0.927824 -1.13071e-15 -4.01923e-16)
(0.927824 -5.92782e-16 -5.93746e-18)
(0.929738 -1.12574e-15 -3.98813e-16)
(0.929738 -5.92323e-16 -6.0862e-18)
(0.931644 -1.12138e-15 -3.9373e-16)
(0.931644 -5.97136e-16 -6.1259e-18)
(0.933543 -1.11158e-15 -3.88242e-16)
(0.933543 -5.94386e-16 -5.32501e-18)
(0.935435 -1.10959e-15 -3.84017e-16)
(0.935435 -5.92232e-16 -4.96622e-18)
(0.93732 -1.10393e-15 -3.77277e-16)
(0.93732 -5.93577e-16 -4.55615e-18)
(0.939199 -1.09291e-15 -3.68747e-16)
(0.939199 -5.93734e-16 -5.33979e-18)
(0.94107 -1.08467e-15 -3.61551e-16)
(0.94107 -6.00337e-16 -7.36624e-18)
(0.942934 -1.08106e-15 -3.55333e-16)
(0.942934 -6.0394e-16 -8.13899e-18)
(0.944792 -1.06973e-15 -3.49334e-16)
(0.944792 -5.97081e-16 -7.94156e-18)
(0.946643 -1.05432e-15 -3.4337e-16)
(0.946643 -6.12671e-16 -5.72506e-18)
(0.948487 -1.04809e-15 -3.37474e-16)
(0.948487 -6.11801e-16 -4.28584e-18)
(0.950324 -1.04599e-15 -3.27298e-16)
(0.950324 -6.04574e-16 -8.38579e-18)
(0.952154 -1.04149e-15 -3.18483e-16)
(0.952154 -6.06543e-16 -1.22242e-17)
(0.953978 -1.031e-15 -3.13503e-16)
(0.953978 -6.09279e-16 -1.38518e-17)
(0.955795 -1.01998e-15 -3.08762e-16)
(0.955795 -6.23751e-16 -1.07806e-17)
(0.957605 -1.01069e-15 -3.02632e-16)
(0.957605 -6.29575e-16 -9.53586e-18)
(0.959409 -1.00312e-15 -2.96029e-16)
(0.959409 -6.26706e-16 -1.47118e-17)
(0.961206 -9.93347e-16 -2.94457e-16)
(0.961206 -6.27234e-16 -1.33367e-17)
(0.962996 -9.78646e-16 -2.88472e-16)
(0.962996 -6.36265e-16 -9.28737e-18)
(0.96478 -9.71253e-16 -2.8052e-16)
(0.96478 -6.34807e-16 -1.12276e-17)
(0.966557 -9.67654e-16 -2.75864e-16)
(0.966557 -6.29446e-16 -1.44907e-17)
(0.968327 -9.6052e-16 -2.69178e-16)
(0.968327 -6.35386e-16 -1.10032e-17)
(0.970091 -9.49856e-16 -2.60498e-16)
(0.970091 -6.41786e-16 -9.95395e-18)
(0.971849 -9.41053e-16 -2.56475e-16)
(0.971849 -6.38719e-16 -1.1156e-17)
(0.973599 -9.3799e-16 -2.5025e-16)
(0.973599 -6.4253e-16 -1.23949e-17)
(0.975343 -9.30792e-16 -2.43276e-16)
(0.975343 -6.43406e-16 -1.36871e-17)
(0.977081 -9.27529e-16 -2.34447e-16)
(0.977081 -6.3921e-16 -1.44967e-17)
(0.978812 -9.16988e-16 -2.28882e-16)
(0.978812 -6.46575e-16 -9.48889e-18)
(0.980536 -9.10683e-16 -2.20027e-16)
(0.980536 -6.60818e-16 -8.78716e-18)
(0.982254 -9.16388e-16 -2.11505e-16)
(0.982254 -6.61822e-16 -1.76611e-17)
(0.983965 -9.10577e-16 -2.04442e-16)
(0.983965 -6.6391e-16 -1.85325e-17)
(0.98567 -9.01598e-16 -1.96226e-16)
(0.98567 -6.78257e-16 -1.30093e-17)
(0.987368 -9.01036e-16 -1.86769e-16)
(0.987368 -6.70084e-16 -1.32862e-17)
(0.989059 -8.97207e-16 -1.74637e-16)
(0.989059 -6.66254e-16 -1.62523e-17)
(0.990744 -8.9605e-16 -1.62479e-16)
(0.990744 -6.68325e-16 -1.33204e-17)
(0.992422 -8.93885e-16 -1.45081e-16)
(0.992422 -6.61846e-16 -1.00163e-17)
(0.994093 -8.84254e-16 -1.29268e-16)
(0.994093 -6.65198e-16 -1.2082e-17)
(0.995758 -8.8388e-16 -1.17101e-16)
(0.995758 -6.60799e-16 -1.47251e-17)
(0.997416 -8.86745e-16 -9.91116e-17)
(0.997416 -6.64401e-16 -1.17193e-17)
(0.999068 -8.83501e-16 -8.01338e-17)
(0.999068 -6.67907e-16 -7.38782e-18)
(1.00071 -8.82382e-16 -7.19086e-17)
(1.00071 -6.53581e-16 -7.93892e-18)
(1.00235 -8.93368e-16 -6.522e-17)
(1.00235 -6.47984e-16 -1.01893e-17)
(1.00398 -8.95897e-16 -5.47334e-17)
(1.00398 -6.44776e-16 -1.46516e-17)
(1.00561 -8.86599e-16 -4.06166e-17)
(1.00561 -6.54848e-16 -1.55715e-17)
(1.00722 -8.69003e-16 -2.51265e-17)
(1.00722 -6.54128e-16 -6.61233e-18)
(1.00883 -8.31122e-16 -1.09536e-17)
(1.00883 -6.83196e-16 -1.21837e-17)
(1.01044 -7.97034e-16 -7.73939e-18)
(1.01044 -6.92697e-16 -2.29517e-17)
(1.01203 -7.86779e-16 -2.48811e-17)
(1.01203 -6.9255e-16 -3.55076e-17)
(1.01362 -7.77559e-16 -2.21924e-17)
(1.01362 -6.73138e-16 -4.06523e-17)
(1.0152 -7.66132e-16 -1.40223e-17)
(1.0152 -6.78507e-16 -4.40961e-17)
(1.01678 -7.58894e-16 -2.01806e-17)
(1.01678 -6.90937e-16 -3.82735e-17)
(1.01835 -7.43081e-16 -2.2128e-17)
(1.01835 -6.91608e-16 -3.0199e-17)
(1.01991 -7.29991e-16 -3.07751e-17)
(1.01991 -6.75662e-16 -2.42922e-17)
(1.02146 -7.21702e-16 -3.31828e-17)
(1.02146 -6.67497e-16 -2.51388e-17)
(1.02301 -7.0956e-16 -3.47452e-17)
(1.02301 -6.66684e-16 -2.69715e-17)
(1.02454 -7.13916e-16 -3.90704e-17)
(1.02454 -6.68774e-16 -3.29886e-17)
(1.02607 -6.90026e-16 -2.86412e-17)
(1.02607 -6.5284e-16 -3.47505e-17)
(1.0276 -6.79872e-16 -2.53921e-17)
(1.0276 -6.38575e-16 -4.46411e-17)
(1.02911 -6.57275e-16 -2.8658e-17)
(1.02911 -6.38718e-16 -4.65782e-17)
(1.03062 -6.50877e-16 -2.58207e-17)
(1.03062 -6.42429e-16 -4.89361e-17)
(1.03212 -6.20988e-16 -2.2967e-17)
(1.03212 -6.41791e-16 -4.81367e-17)
(1.03361 -6.28918e-16 -2.04964e-17)
(1.03361 -5.96945e-16 -4.74671e-17)
(1.03509 -6.25596e-16 -2.16989e-17)
(1.03509 -5.77598e-16 -5.32635e-17)
(1.03656 -6.17311e-16 -1.73964e-17)
(1.03656 -5.67005e-16 -5.64276e-17)
(1.03803 -5.85126e-16 -1.39246e-17)
(1.03803 -5.41081e-16 -7.07218e-17)
(1.03949 -5.58772e-16 -1.8256e-17)
(1.03949 -5.67258e-16 -6.93956e-17)
(1.04094 -5.28638e-16 -2.63004e-17)
(1.04094 -5.73116e-16 -6.47492e-17)
(1.04237 -5.34643e-16 -3.84188e-17)
(1.04237 -5.58274e-16 -5.23415e-17)
(1.0438 -5.55117e-16 -4.38628e-17)
(1.0438 -5.59442e-16 -5.2709e-17)
(1.04523 -5.50863e-16 -4.7782e-17)
(1.04523 -5.7434e-16 -5.56266e-17)
(1.04664 -5.48669e-16 -5.54443e-17)
(1.04664 -5.43576e-16 -5.36703e-17)
(1.04804 -5.47642e-16 -6.65137e-17)
(1.04804 -5.67237e-16 -4.61326e-17)
(1.04943 -5.47046e-16 -7.20095e-17)
(1.04943 -5.67736e-16 -5.13164e-17)
(1.05081 -5.38672e-16 -8.66567e-17)
(1.05081 -5.62562e-16 -5.20858e-17)
(1.05218 -5.58393e-16 -9.47334e-17)
(1.05218 -5.35505e-16 -6.45366e-17)
(1.05354 -5.70331e-16 -9.34322e-17)
(1.05354 -5.35941e-16 -7.49746e-17)
(1.05489 -5.50693e-16 -8.03204e-17)
(1.05489 -5.273e-16 -8.16585e-17)
(1.05623 -5.49396e-16 -7.3682e-17)
(1.05623 -5.28802e-16 -8.29869e-17)
(1.05756 -5.41296e-16 -7.59865e-17)
(1.05756 -5.26299e-16 -7.20859e-17)
(1.05887 -5.31068e-16 -7.62226e-17)
(1.05887 -5.1845e-16 -8.05671e-17)
(1.06017 -5.27299e-16 -8.12768e-17)
(1.06017 -5.11185e-16 -9.85911e-17)
(1.06147 -5.18394e-16 -8.34958e-17)
(1.06147 -4.73876e-16 -1.22515e-16)
(1.06274 -4.9932e-16 -9.37739e-17)
(1.06274 -4.6364e-16 -1.21279e-16)
(1.06401 -4.77356e-16 -1.02335e-16)
(1.06401 -4.82471e-16 -1.19189e-16)
(1.06526 -4.60809e-16 -1.14291e-16)
(1.06526 -5.16453e-16 -1.17096e-16)
(1.06649 -4.3254e-16 -1.34769e-16)
(1.06649 -4.77312e-16 -1.32305e-16)
(1.06771 -4.38138e-16 -1.45105e-16)
(1.06771 -4.60432e-16 -1.33468e-16)
(1.06892 -4.59735e-16 -1.45465e-16)
(1.06892 -4.83677e-16 -1.33331e-16)
(1.07011 -4.8063e-16 -1.57115e-16)
(1.07011 -4.56865e-16 -1.48479e-16)
(1.07128 -4.83547e-16 -1.83061e-16)
(1.07128 -4.67489e-16 -1.86233e-16)
(1.07244 -4.70154e-16 -1.84332e-16)
(1.07244 -4.73298e-16 -1.90215e-16)
(1.07358 -4.42468e-16 -1.92654e-16)
(1.07358 -4.9064e-16 -1.83668e-16)
(1.0747 -4.65667e-16 -2.01663e-16)
(1.0747 -4.84007e-16 -1.80376e-16)
(1.0758 -4.68762e-16 -1.9023e-16)
(1.0758 -4.70906e-16 -1.84767e-16)
(1.07688 -4.56441e-16 -1.96842e-16)
(1.07688 -4.71073e-16 -1.91927e-16)
(1.07794 -4.55047e-16 -2.08538e-16)
(1.07794 -4.42697e-16 -1.86382e-16)
(1.07897 -4.43898e-16 -1.70745e-16)
(1.07897 -4.4577e-16 -1.4891e-16)
(1.07999 -4.4314e-16 -1.36245e-16)
(1.07999 -4.69779e-16 -1.2565e-16)
(1.08097 -4.51511e-16 -1.1068e-16)
(1.08097 -4.05508e-16 -1.14441e-16)
(1.08194 -4.60977e-16 -8.88622e-17)
(1.08194 -4.41197e-16 -7.9454e-17)
(1.08287 -4.74682e-16 -6.04076e-17)
(1.08287 -4.73756e-16 -6.40728e-17)
(1.08378 -4.70802e-16 -5.68245e-17)
(1.08378 -4.80686e-16 -6.5176e-17)
(1.08465 -4.72796e-16 -8.46921e-17)
(1.08465 -4.93393e-16 -5.59339e-17)
(1.08549 -5.10414e-16 -8.2856e-17)
(1.08549 -5.06456e-16 -5.75735e-17)
(1.0863 -4.828e-16 -8.69742e-17)
(1.0863 -4.93952e-16 -7.12825e-17)
(1.08707 -4.91617e-16 -1.30802e-16)
(1.08707 -5.36547e-16 -6.65442e-17)
(1.0878 -5.26555e-16 -1.37362e-16)
(1.0878 -4.87994e-16 -1.13474e-16)
(1.08849 -5.33528e-16 -1.16133e-16)
(1.08849 -4.76001e-16 -1.38286e-16)
(1.08913 -5.27427e-16 -1.28214e-16)
(1.08913 -4.84031e-16 -1.24701e-16)
(1.08973 -5.34827e-16 -1.35543e-16)
(1.08973 -5.18041e-16 -1.13028e-16)
(1.09027 -5.4784e-16 -1.00686e-16)
(1.09027 -5.24152e-16 -8.57902e-17)
(1.09076 -5.37054e-16 -8.75624e-17)
(1.09076 -5.08473e-16 -8.35707e-17)
(1.09119 -5.22939e-16 -8.93749e-17)
(1.09119 -5.4111e-16 -8.55894e-17)
(1.09156 -5.17924e-16 -9.06591e-17)
(1.09156 -5.02586e-16 -1.09171e-16)
(1.09187 -4.89422e-16 -9.32238e-17)
(1.09187 -5.12264e-16 -9.98127e-17)
(1.0921 -4.66011e-16 -7.02111e-17)
(1.0921 -4.92304e-16 -1.09104e-16)
(1.09226 -4.63521e-16 -4.1511e-17)
(1.09226 -4.36752e-16 -1.27494e-16)
(1.09234 -4.31897e-16 -3.71101e-17)
(1.09234 -4.14768e-16 -1.28585e-16)
(0.00381693 -1.5534e-19 3.32488e-18)
(0.00381693 -7.4536e-20 1.51561e-17)
(0.0115056 -5.24762e-20 1.08417e-17)
(0.0115056 9.63225e-21 5.14352e-17)
(0.0193051 -3.80473e-19 1.09386e-17)
(0.0193051 -1.41856e-19 5.29375e-17)
(0.027217 -6.16877e-19 1.16786e-17)
(0.027217 -2.39131e-19 5.44839e-17)
(0.0352426 -8.5525e-19 1.22543e-17)
(0.0352426 -3.5642e-19 5.60755e-17)
(0.0433833 -1.0758e-18 1.27174e-17)
(0.0433833 -5.08901e-19 5.77127e-17)
(0.0516407 -1.29724e-18 1.31679e-17)
(0.0516407 -6.65005e-19 5.93971e-17)
(0.060016 -1.56233e-18 1.36278e-17)
(0.060016 -7.51011e-19 6.11286e-17)
(0.0685106 -1.86813e-18 1.40973e-17)
(0.0685106 -8.71584e-19 6.29093e-17)
(0.0771258 -2.1941e-18 1.45779e-17)
(0.0771258 -9.82933e-19 6.47401e-17)
(0.0858627 -2.54443e-18 1.5073e-17)
(0.0858627 -1.05303e-18 6.66187e-17)
(0.0947223 -2.90816e-18 1.55815e-17)
(0.0947223 -1.15809e-18 6.85466e-17)
(0.103705 -3.25061e-18 1.6104e-17)
(0.103705 -1.27165e-18 7.05213e-17)
(0.112812 -3.61575e-18 1.66404e-17)
(0.112812 -1.39856e-18 7.25401e-17)
(0.122041 -3.94335e-18 1.71903e-17)
(0.122041 -1.53455e-18 7.45995e-17)
(0.131393 -4.23931e-18 1.77533e-17)
(0.131393 -1.66584e-18 7.66923e-17)
(0.140866 -4.52766e-18 1.8328e-17)
(0.140866 -1.71709e-18 7.88139e-17)
(0.150456 -4.87822e-18 1.89083e-17)
(0.150456 -1.77927e-18 8.09559e-17)
(0.16016 -5.30914e-18 1.94928e-17)
(0.16016 -1.81836e-18 8.31058e-17)
(0.169973 -5.67813e-18 2.00806e-17)
(0.169973 -1.9285e-18 8.525e-17)
(0.179886 -6.08487e-18 2.06664e-17)
(0.179886 -2.15129e-18 8.7371e-17)
(0.189893 -6.53986e-18 2.12495e-17)
(0.189893 -2.31381e-18 8.94493e-17)
(0.19998 -7.04462e-18 2.18224e-17)
(0.19998 -2.51478e-18 9.14632e-17)
(0.210137 -7.59259e-18 2.23792e-17)
(0.210137 -2.79429e-18 9.33956e-17)
(0.220348 -8.07841e-18 2.29073e-17)
(0.220348 -2.84137e-18 9.52278e-17)
(0.230597 -8.70835e-18 2.34088e-17)
(0.230597 -2.74764e-18 9.6934e-17)
(0.240865 -9.48023e-18 2.38808e-17)
(0.240865 -2.95941e-18 9.84929e-17)
(0.251133 -1.0239e-17 2.43178e-17)
(0.251133 -3.21281e-18 9.98888e-17)
(0.261382 -1.08482e-17 2.47106e-17)
(0.261382 -3.32346e-18 1.01105e-16)
(0.271589 -1.13409e-17 2.50558e-17)
(0.271589 -3.61716e-18 1.02138e-16)
(0.281736 -1.18362e-17 2.53525e-17)
(0.281736 -3.95464e-18 1.02983e-16)
(0.291801 -1.23305e-17 2.56108e-17)
(0.291801 -4.07148e-18 1.03626e-16)
(0.301766 -1.29026e-17 2.58249e-17)
(0.301766 -4.33234e-18 1.04078e-16)
(0.311614 -1.33785e-17 2.59936e-17)
(0.311614 -4.8171e-18 1.04349e-16)
(0.321328 -1.37792e-17 2.61265e-17)
(0.321328 -4.89052e-18 1.04455e-16)
(0.330896 -1.45124e-17 2.62236e-17)
(0.330896 -4.92798e-18 1.04407e-16)
(0.340305 -1.52455e-17 2.62769e-17)
(0.340305 -5.11066e-18 1.04222e-16)
(0.349547 -1.56604e-17 2.63023e-17)
(0.349547 -5.54011e-18 1.03919e-16)
(0.358613 -1.60008e-17 2.62931e-17)
(0.358613 -5.95203e-18 1.03525e-16)
(0.3675 -1.65071e-17 2.62673e-17)
(0.3675 -6.09168e-18 1.03049e-16)
(0.376202 -1.71723e-17 2.62285e-17)
(0.376202 -6.25295e-18 1.02504e-16)
(0.384719 -1.78909e-17 2.61885e-17)
(0.384719 -6.71944e-18 1.01908e-16)
(0.39305 -1.87527e-17 2.61343e-17)
(0.39305 -7.30446e-18 1.01282e-16)
(0.401195 -1.95935e-17 2.60579e-17)
(0.401195 -7.24496e-18 1.00643e-16)
(0.409157 -2.02511e-17 2.59851e-17)
(0.409157 -7.62757e-18 9.99782e-17)
(0.416939 -2.0761e-17 2.59118e-17)
(0.416939 -7.73088e-18 9.93194e-17)
(0.424543 -2.14502e-17 2.58472e-17)
(0.424543 -7.70436e-18 9.86625e-17)
(0.431974 -2.20581e-17 2.57913e-17)
(0.431974 -8.12796e-18 9.8023e-17)
(0.439237 -2.24515e-17 2.57379e-17)
(0.439237 -8.29845e-18 9.74153e-17)
(0.446335 -2.3076e-17 2.56959e-17)
(0.446335 -8.42926e-18 9.68354e-17)
(0.453274 -2.37484e-17 2.56586e-17)
(0.453274 -8.67533e-18 9.62871e-17)
(0.460059 -2.44212e-17 2.56433e-17)
(0.460059 -8.99364e-18 9.57704e-17)
(0.466695 -2.49297e-17 2.56317e-17)
(0.466695 -9.55903e-18 9.52867e-17)
(0.473187 -2.54049e-17 2.56369e-17)
(0.473187 -9.73929e-18 9.48543e-17)
(0.479541 -2.59554e-17 2.56497e-17)
(0.479541 -9.34918e-18 9.44716e-17)
(0.48576 -2.61082e-17 2.56782e-17)
(0.48576 -9.60952e-18 9.4133e-17)
(0.49185 -2.63973e-17 2.57185e-17)
(0.49185 -1.01243e-17 9.38482e-17)
(0.497816 -2.67712e-17 2.57693e-17)
(0.497816 -1.04048e-17 9.35964e-17)
(0.503663 -2.75315e-17 2.58594e-17)
(0.503663 -1.04832e-17 9.33493e-17)
(0.509394 -2.86072e-17 2.58969e-17)
(0.509394 -1.05776e-17 9.31947e-17)
(0.515014 -2.896e-17 2.59509e-17)
(0.515014 -1.09689e-17 9.30597e-17)
(0.520528 -2.93955e-17 2.60138e-17)
(0.520528 -1.04329e-17 9.29736e-17)
(0.525939 -3.00235e-17 2.61098e-17)
(0.525939 -1.04283e-17 9.28969e-17)
(0.531251 -3.01846e-17 2.61972e-17)
(0.531251 -1.13681e-17 9.28872e-17)
(0.536468 -3.10645e-17 2.63229e-17)
(0.536468 -1.17835e-17 9.29169e-17)
(0.541594 -3.22541e-17 2.64279e-17)
(0.541594 -1.17259e-17 9.29877e-17)
(0.546631 -3.26303e-17 2.65266e-17)
(0.546631 -1.11e-17 9.31168e-17)
(0.551583 -3.28905e-17 2.66625e-17)
(0.551583 -1.08435e-17 9.32717e-17)
(0.556454 -3.35936e-17 2.67861e-17)
(0.556454 -1.10294e-17 9.35062e-17)
(0.561245 -3.42354e-17 2.68682e-17)
(0.561245 -1.13047e-17 9.38411e-17)
(0.56596 -3.45712e-17 2.70184e-17)
(0.56596 -1.165e-17 9.41958e-17)
(0.570602 -3.48144e-17 2.71674e-17)
(0.570602 -1.2314e-17 9.45866e-17)
(0.575173 -3.5268e-17 2.73331e-17)
(0.575173 -1.28597e-17 9.49955e-17)
(0.579676 -3.52475e-17 2.75155e-17)
(0.579676 -1.26811e-17 9.54572e-17)
(0.584113 -3.52198e-17 2.77833e-17)
(0.584113 -1.21169e-17 9.59158e-17)
(0.588486 -3.55336e-17 2.80021e-17)
(0.588486 -1.21069e-17 9.64883e-17)
(0.592797 -3.55794e-17 2.82401e-17)
(0.592797 -1.19098e-17 9.70781e-17)
(0.597049 -3.59574e-17 2.8501e-17)
(0.597049 -1.19604e-17 9.7683e-17)
(0.601243 -3.60642e-17 2.87455e-17)
(0.601243 -1.23753e-17 9.83816e-17)
(0.605382 -3.60256e-17 2.90522e-17)
(0.605382 -1.28643e-17 9.91314e-17)
(0.609467 -3.6495e-17 2.94105e-17)
(0.609467 -1.38181e-17 9.99186e-17)
(0.6135 -3.72215e-17 2.97647e-17)
(0.6135 -1.44874e-17 1.00679e-16)
(0.617482 -3.75176e-17 3.01333e-17)