/*--------------------------------*- C++ -*----------------------------------*\
| =========                 |                                                 |
| \\      /  F ield         | OpenFOAM: The Open Source CFD Toolbox           |
|  \\    /   O peration     | Version:  2012                                  |
|   \\  /    A nd           | Website:  www.openfoam.com                      |
|    \\/     M anipulation  |                                                 |
\*---------------------------------------------------------------------------*/
FoamFile
{
    version     2.0;
    format      ascii;
    class       surfaceScalarField;
    location    "3000";
    object      phi;
}
// * * * * * * * * * * * * * * * * * * * * * * * * * * * * * * * * * * * * * //

dimensions      [0 3 -1 0 0 0 0];
oriented        oriented;


internalField   nonuniform List<scalar> 
5116
(
1.55686e-08
-5.02774e-18
1.68098e-22
1.87841e-22
5.48105e-23
4.76085e-08
-5.03078e-18
1.10798e-21
1.90538e-21
2.07423e-22
8.10354e-08
-5.03387e-18
1.13199e-21
3.64446e-21
2.16521e-22
1.1589e-07
-5.037e-18
1.1503e-21
5.39103e-21
2.25971e-22
1.52214e-07
-5.0402e-18
1.16972e-21
7.17811e-21
2.35781e-22
1.90049e-07
-5.0434e-18
1.19076e-21
8.97047e-21
2.45961e-22
2.2944e-07
-5.04666e-18
1.21217e-21
1.07736e-20
2.56522e-22
2.7043e-07
-5.05004e-18
1.23369e-21
1.25912e-20
2.67477e-22
3.13066e-07
-5.05339e-18
1.25535e-21
1.43692e-20
2.78839e-22
3.57394e-07
-5.05681e-18
1.27714e-21
1.6227e-20
2.90621e-22
4.03462e-07
-5.0602e-18
1.29906e-21
1.8129e-20
3.02835e-22
4.51318e-07
-5.06376e-18
1.32111e-21
2.00219e-20
3.15495e-22
5.01013e-07
-5.06748e-18
1.34329e-21
2.18485e-20
3.28613e-22
5.52598e-07
-5.07104e-18
1.36559e-21
2.37005e-20
3.42204e-22
6.06126e-07
-5.07454e-18
1.38802e-21
2.55691e-20
3.5628e-22
6.61649e-07
-5.07844e-18
1.41057e-21
2.75615e-20
3.70859e-22
7.19224e-07
-5.08227e-18
1.43325e-21
2.95377e-20
3.85953e-22
7.78906e-07
-5.08593e-18
1.45603e-21
3.12033e-20
4.01579e-22
8.40753e-07
-5.08988e-18
1.47891e-21
3.30949e-20
4.17754e-22
9.04824e-07
-5.09366e-18
1.50189e-21
3.48891e-20
4.34492e-22
9.71181e-07
-5.09754e-18
1.52495e-21
3.68173e-20
4.51809e-22
1.03988e-06
-5.10165e-18
1.54807e-21
3.87003e-20
4.69717e-22
1.111e-06
-5.10562e-18
1.57126e-21
4.06201e-20
4.88232e-22
1.18459e-06
-5.10965e-18
1.59449e-21
4.22905e-20
5.07373e-22
1.26072e-06
-5.11381e-18
1.61775e-21
4.40203e-20
5.27161e-22
1.33946e-06
-5.11817e-18
1.64103e-21
4.61217e-20
5.47606e-22
1.42088e-06
-5.12269e-18
1.6643e-21
4.82791e-20
5.6871e-22
1.50505e-06
-5.12749e-18
1.68755e-21
5.06476e-20
5.90495e-22
1.59204e-06
-5.13133e-18
1.71076e-21
5.23903e-20
6.12971e-22
1.68194e-06
-5.13572e-18
1.73387e-21
5.42363e-20
6.36166e-22
1.7748e-06
-5.13984e-18
1.75688e-21
5.61325e-20
6.60094e-22
1.87072e-06
-5.14407e-18
1.77975e-21
5.79755e-20
6.84754e-22
1.96977e-06
-5.14803e-18
1.80243e-21
5.95886e-20
7.10161e-22
2.07203e-06
-5.15242e-18
1.82489e-21
6.0845e-20
7.36324e-22
2.17758e-06
-5.15716e-18
1.84711e-21
6.33135e-20
7.63265e-22
2.2865e-06
-5.16193e-18
1.86905e-21
6.52783e-20
7.90958e-22
2.39887e-06
-5.16652e-18
1.89066e-21
6.69067e-20
8.19406e-22
2.51479e-06
-5.17114e-18
1.91189e-21
6.8891e-20
8.48615e-22
2.63432e-06
-5.17599e-18
1.93268e-21
7.08377e-20
8.78588e-22
2.75757e-06
-5.18005e-18
1.95297e-21
7.25284e-20
9.09298e-22
2.88461e-06
-5.18431e-18
1.97269e-21
7.39251e-20
9.40708e-22
3.01553e-06
-5.18848e-18
1.99179e-21
7.54404e-20
9.72812e-22
3.1504e-06
-5.1932e-18
2.01017e-21
7.61704e-20
1.00557e-21
3.28933e-06
-5.198e-18
2.02777e-21
7.81837e-20
1.03896e-21
3.43237e-06
-5.20342e-18
2.04451e-21
7.96839e-20
1.0729e-21
3.57963e-06
-5.20822e-18
2.06032e-21
8.13315e-20
1.10739e-21
3.73117e-06
-5.21368e-18
2.07507e-21
8.29323e-20
1.14239e-21
3.88708e-06
-5.21908e-18
2.08869e-21
8.42856e-20
1.17784e-21
4.04743e-06
-5.22433e-18
2.10109e-21
8.64954e-20
1.21367e-21
4.21229e-06
-5.22999e-18
2.11218e-21
8.88256e-20
1.2498e-21
4.38174e-06
-5.23519e-18
2.1219e-21
9.00308e-20
1.28618e-21
4.55584e-06
-5.23925e-18
2.13014e-21
9.10232e-20
1.32281e-21
4.73465e-06
-5.24335e-18
2.13671e-21
9.14223e-20
1.35959e-21
4.91825e-06
-5.24672e-18
2.14161e-21
9.17577e-20
1.39651e-21
5.10668e-06
-5.24963e-18
2.1447e-21
9.08169e-20
1.43349e-21
5.30001e-06
-5.2542e-18
2.14591e-21
9.11915e-20
1.47052e-21
5.49829e-06
-5.25844e-18
2.14526e-21
9.13559e-20
1.50747e-21
5.70156e-06
-5.26219e-18
2.14272e-21
9.14357e-20
1.54418e-21
5.90989e-06
-5.26566e-18
2.1382e-21
9.1536e-20
1.58065e-21
6.12331e-06
-5.26889e-18
2.13159e-21
9.13367e-20
1.61687e-21
6.34186e-06
-5.2721e-18
2.12289e-21
9.17787e-20
1.65276e-21
6.5656e-06
-5.27699e-18
2.1121e-21
9.35658e-20
1.68823e-21
6.79456e-06
-5.28127e-18
2.09928e-21
9.45008e-20
1.72305e-21
7.02878e-06
-5.28561e-18
2.08442e-21
9.51331e-20
1.75729e-21
7.2683e-06
-5.2892e-18
2.06749e-21
9.52309e-20
1.79095e-21
7.51316e-06
-5.29303e-18
2.04841e-21
9.48384e-20
1.82393e-21
7.76339e-06
-5.2947e-18
2.02727e-21
9.23545e-20
1.85629e-21
8.01904e-06
-5.2966e-18
2.00396e-21
9.11405e-20
1.8881e-21
8.28014e-06
-5.29894e-18
1.97832e-21
8.92324e-20
1.91938e-21
8.54673e-06
-5.29971e-18
1.95055e-21
8.84763e-20
1.95009e-21
8.81885e-06
-5.30113e-18
1.92065e-21
8.51098e-20
1.98004e-21
9.09654e-06
-5.3042e-18
1.88865e-21
8.32633e-20
2.00934e-21
9.37985e-06
-5.30376e-18
1.85465e-21
7.72132e-20
2.03795e-21
9.66881e-06
-5.30703e-18
1.81851e-21
7.41926e-20
2.06617e-21
9.96348e-06
-5.30784e-18
1.78063e-21
7.18501e-20
2.0938e-21
1.02639e-05
-5.31015e-18
1.74084e-21
7.22868e-20
2.12078e-21
1.05701e-05
-5.31017e-18
1.69927e-21
6.75236e-20
2.14703e-21
1.08822e-05
-5.31187e-18
1.65583e-21
6.19537e-20
2.17273e-21
1.12002e-05
-5.31253e-18
1.6107e-21
5.72951e-20
2.19799e-21
1.15241e-05
-5.31553e-18
1.56384e-21
5.73155e-20
2.22307e-21
1.18541e-05
-5.31801e-18
1.51542e-21
5.64873e-20
2.24738e-21
1.21901e-05
-5.31997e-18
1.46533e-21
5.49994e-20
2.27118e-21
1.25323e-05
-5.32602e-18
1.41377e-21
5.73461e-20
2.29462e-21
1.28806e-05
-5.33109e-18
1.36109e-21
5.8266e-20
2.31756e-21
1.32353e-05
-5.33262e-18
1.30699e-21
5.66428e-20
2.34e-21
1.35963e-05
-5.3325e-18
1.25161e-21
5.28385e-20
2.36226e-21
1.39637e-05
-5.333e-18
1.19489e-21
5.09129e-20
2.38429e-21
1.43376e-05
-5.33373e-18
1.13723e-21
4.65085e-20
2.40595e-21
1.4718e-05
-5.32933e-18
1.07875e-21
3.90907e-20
2.42707e-21
1.51051e-05
-5.32885e-18
1.01882e-21
3.54639e-20
2.44804e-21
1.5499e-05
-5.33304e-18
9.58157e-22
3.34006e-20
2.46829e-21
1.58996e-05
-5.33371e-18
8.97456e-22
3.09927e-20
2.48758e-21
1.63071e-05
-5.33702e-18
8.36447e-22
2.8848e-20
2.50641e-21
1.67215e-05
-5.33918e-18
7.76067e-22
2.80975e-20
2.52461e-21
1.71431e-05
-5.3371e-18
7.15517e-22
2.72375e-20
2.54155e-21
1.75718e-05
-5.34082e-18
6.54772e-22
2.8222e-20
2.55716e-21
1.80077e-05
-5.33795e-18
5.948e-22
2.42862e-20
2.57147e-21
1.8451e-05
-5.33128e-18
5.35038e-22
2.1293e-20
2.58549e-21
1.89017e-05
-5.33013e-18
4.74704e-22
1.79065e-20
2.59864e-21
1.93599e-05
-5.32691e-18
4.13859e-22
1.74081e-20
2.61068e-21
1.98258e-05
-5.32413e-18
3.51599e-22
1.62059e-20
2.62187e-21
2.02994e-05
-5.31554e-18
2.88325e-22
9.80744e-21
2.63185e-21
2.07808e-05
-5.31519e-18
2.22162e-22
9.04159e-21
2.64157e-21
2.12702e-05
-5.31433e-18
1.54629e-22
3.35748e-21
2.6513e-21
2.17676e-05
-5.30771e-18
8.67438e-23
-4.31705e-21
2.66168e-21
2.22731e-05
-5.30219e-18
1.59869e-23
-1.1377e-20
2.67222e-21
2.2787e-05
-5.29382e-18
-5.66983e-23
-1.82707e-20
2.68264e-21
2.33092e-05
-5.28756e-18
-1.32129e-22
-2.99123e-20
2.69261e-21
2.38399e-05
-5.27709e-18
-2.098e-22
-3.75202e-20
2.70274e-21
2.43793e-05
-5.27039e-18
-2.90267e-22
-4.86235e-20
2.7131e-21
2.49273e-05
-5.25903e-18
-3.7204e-22
-5.84015e-20
2.7231e-21
2.54842e-05
-5.244e-18
-4.55195e-22
-6.87989e-20
2.73318e-21
2.60501e-05
-5.24198e-18
-5.41336e-22
-8.28245e-20
2.74257e-21
2.6625e-05
-5.23613e-18
-6.26836e-22
-8.88365e-20
2.75127e-21
2.72092e-05
-5.22771e-18
-7.13899e-22
-9.58004e-20
2.75944e-21
2.78027e-05
-5.22158e-18
-8.04135e-22
-1.02793e-19
2.76694e-21
2.84057e-05
-5.21649e-18
-8.94239e-22
-1.08539e-19
2.77551e-21
2.90183e-05
-5.2092e-18
-9.85346e-22
-1.19005e-19
2.78422e-21
2.96406e-05
-5.20248e-18
-1.07788e-21
-1.2973e-19
2.79455e-21
3.02728e-05
-5.19363e-18
-1.17062e-21
-1.38739e-19
2.80718e-21
3.0915e-05
-5.17725e-18
-1.26369e-21
-1.51838e-19
2.81984e-21
3.15674e-05
-5.17944e-18
-1.35721e-21
-1.58425e-19
2.83346e-21
3.223e-05
-5.17586e-18
-1.44862e-21
-1.61581e-19
2.84631e-21
3.2903e-05
-5.17199e-18
-1.53984e-21
-1.60574e-19
2.85916e-21
3.35866e-05
-5.16556e-18
-1.63074e-21
-1.65402e-19
2.87028e-21
3.4281e-05
-5.16167e-18
-1.72398e-21
-1.77338e-19
2.88213e-21
3.49862e-05
-5.1489e-18
-1.81838e-21
-1.75436e-19
2.89766e-21
3.57023e-05
-5.14369e-18
-1.91489e-21
-1.81763e-19
2.91021e-21
3.64297e-05
-5.12851e-18
-2.01202e-21
-1.91015e-19
2.92348e-21
3.71683e-05
-5.11362e-18
-2.11569e-21
-2.0192e-19
2.93882e-21
3.79185e-05
-5.10576e-18
-2.22425e-21
-2.0895e-19
2.95583e-21
3.86802e-05
-5.09669e-18
-2.3301e-21
-2.22053e-19
2.97326e-21
3.94538e-05
-5.08068e-18
-2.43627e-21
-2.35281e-19
2.99127e-21
4.02393e-05
-5.06517e-18
-2.54276e-21
-2.48252e-19
3.01029e-21
4.10369e-05
-5.05476e-18
-2.65447e-21
-2.63843e-19
3.0292e-21
4.18467e-05
-5.04225e-18
-2.76399e-21
-2.81465e-19
3.05119e-21
4.26691e-05
-5.01805e-18
-2.87572e-21
-3.00977e-19
3.07205e-21
4.3504e-05
-5.01214e-18
-2.98984e-21
-3.16462e-19
3.09451e-21
4.43517e-05
-4.98964e-18
-3.10012e-21
-3.33187e-19
3.1207e-21
4.52124e-05
-4.96179e-18
-3.21409e-21
-3.54236e-19
3.14827e-21
4.60862e-05
-4.94767e-18
-3.33374e-21
-3.80731e-19
3.17459e-21
4.69733e-05
-4.9159e-18
-3.45392e-21
-3.99143e-19
3.21473e-21
4.7874e-05
-4.90644e-18
-3.58677e-21
-4.09922e-19
3.25574e-21
4.87883e-05
-4.89342e-18
-3.71693e-21
-4.19859e-19
3.29788e-21
4.97165e-05
-4.87948e-18
-3.84597e-21
-4.32268e-19
3.34472e-21
5.06587e-05
-4.85909e-18
-3.97613e-21
-4.46022e-19
3.39205e-21
5.16152e-05
-4.84438e-18
-4.11145e-21
-4.61461e-19
3.43545e-21
5.25861e-05
-4.83492e-18
-4.24456e-21
-4.79156e-19
3.47754e-21
5.35717e-05
-4.81933e-18
-4.37536e-21
-5.01229e-19
3.5217e-21
5.45721e-05
-4.80234e-18
-4.50876e-21
-5.19983e-19
3.57297e-21
5.55875e-05
-4.7923e-18
-4.64471e-21
-5.34745e-19
3.62231e-21
5.66182e-05
-4.77223e-18
-4.77471e-21
-5.62324e-19
3.66489e-21
5.76643e-05
-4.74666e-18
-4.90887e-21
-5.80786e-19
3.70994e-21
5.8726e-05
-4.71661e-18
-5.04778e-21
-6.12359e-19
3.74377e-21
5.98036e-05
-4.68924e-18
-5.18672e-21
-6.38852e-19
3.77482e-21
6.08973e-05
-4.66537e-18
-5.32987e-21
-6.6477e-19
3.7986e-21
6.20073e-05
-4.64527e-18
-5.48403e-21
-6.79642e-19
3.81625e-21
6.31337e-05
-4.63892e-18
-5.62917e-21
-6.90632e-19
3.82217e-21
6.42769e-05
-4.58338e-18
-5.76903e-21
-7.15172e-19
3.8199e-21
6.5437e-05
-4.55466e-18
-5.94824e-21
-7.2259e-19
3.81341e-21
6.66143e-05
-4.51558e-18
-6.13271e-21
-7.53917e-19
3.80155e-21
6.7809e-05
-4.50606e-18
-6.31847e-21
-7.77419e-19
3.81041e-21
6.90213e-05
-4.49525e-18
-6.48629e-21
-7.93746e-19
3.82038e-21
7.02514e-05
-4.46031e-18
-6.62455e-21
-8.07709e-19
3.81933e-21
7.14996e-05
-4.44745e-18
-6.78653e-21
-8.25791e-19
3.81952e-21
7.27662e-05
-4.41483e-18
-6.91733e-21
-8.54824e-19
3.83084e-21
7.40513e-05
-4.3842e-18
-7.04314e-21
-8.75671e-19
3.86303e-21
7.53552e-05
-4.34277e-18
-7.15957e-21
-9.04722e-19
3.89449e-21
7.66782e-05
-4.30644e-18
-7.28649e-21
-9.23012e-19
3.93135e-21
7.80205e-05
-4.27812e-18
-7.41487e-21
-9.53043e-19
3.9581e-21
7.93822e-05
-4.2454e-18
-7.5144e-21
-9.73745e-19
3.99112e-21
8.07638e-05
-4.1998e-18
-7.58262e-21
-9.90228e-19
4.00438e-21
8.21654e-05
-4.16054e-18
-7.65279e-21
-1.02176e-18
4.00114e-21
8.35874e-05
-4.11669e-18
-7.73376e-21
-1.05296e-18
3.9934e-21
8.50298e-05
-4.06954e-18
-7.82345e-21
-1.083e-18
3.98625e-21
8.64931e-05
-4.03331e-18
-7.93208e-21
-1.11644e-18
3.99078e-21
8.79774e-05
-4.00926e-18
-8.05648e-21
-1.13462e-18
4.00304e-21
8.94831e-05
-3.98037e-18
-8.14958e-21
-1.14239e-18
3.97509e-21
9.10103e-05
-3.93495e-18
-8.20859e-21
-1.18403e-18
3.91298e-21
9.25594e-05
-3.90087e-18
-8.28239e-21
-1.22949e-18
3.8655e-21
9.41306e-05
-3.85336e-18
-8.37274e-21
-1.2767e-18
3.8033e-21
9.57242e-05
-3.81969e-18
-8.47729e-21
-1.29853e-18
3.72507e-21
9.73405e-05
-3.77875e-18
-8.59561e-21
-1.3554e-18
3.62281e-21
9.89797e-05
-3.71536e-18
-8.71585e-21
-1.39012e-18
3.56407e-21
0.000100642
-3.67744e-18
-8.87797e-21
-1.43839e-18
3.47937e-21
0.000102328
-3.62127e-18
-9.07256e-21
-1.48133e-18
3.36643e-21
0.000104038
-3.58718e-18
-9.26658e-21
-1.51192e-18
3.19823e-21
0.000105771
-3.55675e-18
-9.49321e-21
-1.55576e-18
2.99968e-21
0.000107529
-3.52896e-18
-9.69113e-21
-1.58798e-18
2.80417e-21
0.000109312
-3.49099e-18
-9.87129e-21
-1.613e-18
2.58783e-21
0.000111119
-3.44023e-18
-1.00431e-20
-1.62972e-18
2.34563e-21
0.000112951
-3.40001e-18
-1.02228e-20
-1.66856e-18
2.03773e-21
0.000114809
-3.34768e-18
-1.04023e-20
-1.71516e-18
1.74424e-21
0.000116692
-3.30163e-18
-1.05634e-20
-1.74671e-18
1.46585e-21
0.000118602
-3.24512e-18
-1.07227e-20
-1.76149e-18
1.21255e-21
0.000120537
-3.20872e-18
-1.0931e-20
-1.77764e-18
9.35215e-22
0.0001225
-3.14474e-18
-1.1118e-20
-1.79127e-18
6.37435e-22
0.000124488
-3.12489e-18
-1.12545e-20
-1.80677e-18
3.39771e-22
0.000126504
-3.07984e-18
-1.13351e-20
-1.82122e-18
8.94342e-23
0.000128547
-3.03596e-18
-1.14326e-20
-1.83737e-18
-1.60086e-22
0.000130618
-2.94661e-18
-1.1467e-20
-1.85432e-18
-4.09963e-22
0.000132717
-2.86868e-18
-1.15449e-20
-1.8808e-18
-6.39188e-22
0.000134843
-2.82415e-18
-1.15531e-20
-1.87962e-18
-1.0259e-21
0.000136998
-2.77511e-18
-1.15549e-20
-1.88448e-18
-1.54032e-21
0.000139182
-2.71828e-18
-1.16373e-20
-1.89854e-18
-2.1167e-21
0.000141394
-2.70251e-18
-1.20256e-20
-1.95093e-18
-2.56226e-21
0.000143636
-2.6869e-18
-1.24619e-20
-1.9587e-18
-2.96173e-21
0.000145907
-2.66442e-18
-1.29254e-20
-1.98234e-18
-3.42818e-21
0.000148207
-2.64768e-18
-1.33277e-20
-2.02431e-18
-3.99696e-21
0.000150538
-2.61721e-18
-1.37868e-20
-2.04361e-18
-4.49985e-21
0.000152899
-2.57973e-18
-1.42797e-20
-2.06716e-18
-4.99131e-21
0.00015529
-2.55014e-18
-1.47006e-20
-2.08135e-18
-5.4015e-21
0.000157712
-2.55657e-18
-1.49826e-20
-2.0389e-18
-5.7243e-21
0.000160165
-2.53561e-18
-1.5348e-20
-2.0517e-18
-6.08065e-21
0.000162649
-2.49926e-18
-1.54991e-20
-2.05024e-18
-6.4203e-21
0.000165165
-2.47247e-18
-1.55061e-20
-2.06412e-18
-6.90215e-21
0.000167712
-2.46063e-18
-1.54109e-20
-2.0733e-18
-7.23181e-21
0.000170292
-2.41923e-18
-1.55467e-20
-2.04218e-18
-7.40145e-21
0.000172904
-2.39269e-18
-1.58476e-20
-2.05063e-18
-7.69288e-21
0.00017555
-2.3747e-18
-1.60389e-20
-2.03472e-18
-7.91579e-21
0.000178228
-2.37024e-18
-1.63336e-20
-1.98631e-18
-8.18305e-21
0.000180941
-2.3546e-18
-1.65156e-20
-1.96731e-18
-8.79298e-21
0.000183687
-2.36559e-18
-1.66149e-20
-1.97859e-18
-9.49196e-21
0.000186468
-2.35344e-18
-1.67479e-20
-1.96797e-18
-9.8743e-21
0.000189284
-2.32557e-18
-1.6989e-20
-1.94624e-18
-1.05315e-20
0.000192136
-2.30891e-18
-1.71212e-20
-1.93216e-18
-1.14333e-20
0.000195025
-2.25793e-18
-1.7177e-20
-1.97169e-18
-1.22602e-20
0.00019795
-2.26631e-18
-1.76813e-20
-1.93362e-18
-1.2692e-20
0.000200912
-2.28239e-18
-1.7909e-20
-1.90399e-18
-1.33717e-20
0.000203913
-2.28027e-18
-1.78078e-20
-1.87069e-18
-1.39948e-20
0.000206953
-2.24987e-18
-1.74873e-20
-1.89228e-18
-1.44717e-20
0.000210033
-2.21185e-18
-1.72591e-20
-1.89617e-18
-1.46878e-20
0.000213154
-2.16583e-18
-1.67791e-20
-1.8885e-18
-1.51824e-20
0.000216316
-2.13964e-18
-1.66898e-20
-1.83755e-18
-1.54332e-20
0.00021952
-2.06136e-18
-1.64924e-20
-1.88353e-18
-1.57829e-20
0.000222768
-2.01754e-18
-1.65491e-20
-1.83248e-18
-1.54814e-20
0.000226059
-2.00761e-18
-1.69043e-20
-1.82747e-18
-1.52787e-20
0.000229396
-2.01808e-18
-1.66281e-20
-1.80124e-18
-1.5444e-20
0.000232779
-1.9477e-18
-1.58484e-20
-1.86047e-18
-1.55345e-20
0.000236208
-1.9491e-18
-1.4847e-20
-1.84026e-18
-1.52547e-20
0.000239686
-1.87757e-18
-1.39506e-20
-1.88664e-18
-1.49139e-20
0.000243212
-1.82539e-18
-1.40121e-20
-1.9448e-18
-1.4396e-20
0.000246788
-1.83152e-18
-1.42021e-20
-1.91835e-18
-1.33837e-20
0.000250415
-1.8902e-18
-1.46782e-20
-1.8588e-18
-1.26319e-20
0.000254093
-1.83555e-18
-1.41568e-20
-1.93725e-18
-1.24783e-20
0.000257824
-1.86252e-18
-1.41493e-20
-1.94433e-18
-1.17472e-20
0.000261608
-1.83969e-18
-1.31245e-20
-1.91151e-18
-1.10279e-20
0.000265447
-1.77251e-18
-1.27861e-20
-1.87202e-18
-1.06474e-20
0.000269341
-1.75847e-18
-1.29952e-20
-1.81964e-18
-1.02717e-20
0.000273292
-1.76309e-18
-1.32079e-20
-1.7496e-18
-9.70211e-21
0.0002773
-1.73307e-18
-1.27157e-20
-1.76957e-18
-9.1418e-21
0.000281366
-1.74032e-18
-1.24073e-20
-1.70821e-18
-8.38801e-21
0.000285492
-1.71351e-18
-1.17153e-20
-1.73852e-18
-9.40438e-21
0.000289678
-1.69101e-18
-1.13548e-20
-1.6986e-18
-1.01032e-20
0.000293925
-1.67842e-18
-1.24778e-20
-1.65131e-18
-1.15371e-20
0.000298235
-1.66556e-18
-1.29382e-20
-1.68313e-18
-1.30911e-20
0.000302607
-1.68292e-18
-1.35484e-20
-1.66355e-18
-1.41162e-20
0.000307045
-1.68252e-18
-1.43231e-20
-1.68122e-18
-1.56686e-20
0.000311547
-1.69256e-18
-1.41172e-20
-1.65114e-18
-1.68462e-20
0.000316116
-1.68661e-18
-1.32133e-20
-1.65667e-18
-1.86507e-20
0.000320752
-1.70071e-18
-1.35817e-20
-1.66017e-18
-1.99517e-20
0.000325457
-1.69981e-18
-1.39434e-20
-1.64932e-18
-2.00267e-20
0.000330231
-1.69451e-18
-1.44064e-20
-1.69126e-18
-2.06911e-20
0.000335076
-1.66783e-18
-1.47182e-20
-1.64073e-18
-2.07612e-20
0.000339993
-1.68825e-18
-1.50681e-20
-1.66788e-18
-2.17534e-20
0.000344982
-1.59868e-18
-1.48806e-20
-1.63314e-18
-2.22747e-20
0.000350045
-1.58337e-18
-1.66194e-20
-1.62606e-18
-2.35027e-20
0.000355183
-1.62532e-18
-1.84981e-20
-1.63347e-18
-2.27052e-20
0.000360398
-1.52521e-18
-1.97705e-20
-1.67024e-18
-2.16682e-20
0.000365689
-1.52364e-18
-2.25528e-20
-1.65323e-18
-2.01336e-20
0.00037106
-1.60505e-18
-2.5379e-20
-1.60585e-18
-1.87064e-20
0.000376509
-1.57373e-18
-2.57256e-20
-1.62449e-18
-1.94103e-20
0.00038204
-1.66996e-18
-2.58383e-20
-1.63248e-18
-1.97853e-20
0.000387652
-1.68274e-18
-2.38991e-20
-1.64625e-18
-2.00703e-20
0.000393348
-1.66253e-18
-2.18989e-20
-1.55297e-18
-1.92638e-20
0.000399128
-1.62233e-18
-1.94324e-20
-1.56468e-18
-1.90699e-20
0.000404994
-1.61237e-18
-1.75419e-20
-1.55241e-18
-1.85894e-20
0.000410947
-1.61739e-18
-1.54347e-20
-1.65703e-18
-1.86572e-20
0.000416988
-1.61838e-18
-1.26013e-20
-1.70794e-18
-1.6387e-20
0.000423118
-1.61287e-18
-1.19409e-20
-1.70286e-18
-1.02193e-20
0.000429339
-1.59256e-18
-1.11063e-20
-1.62515e-18
-5.52097e-21
0.000435653
-1.60847e-18
-1.13113e-20
-1.57785e-18
-4.80376e-21
0.000442059
-1.69103e-18
-1.16161e-20
-1.55777e-18
-7.83793e-21
0.000448561
-1.67409e-18
-1.0283e-20
-1.57508e-18
-9.99327e-21
0.000455158
-1.63131e-18
-1.01814e-20
-1.593e-18
-1.03812e-20
0.000461854
-1.66685e-18
-1.03605e-20
-1.6374e-18
-1.09421e-20
0.000468647
-1.6422e-18
-9.9532e-21
-1.6528e-18
-1.2798e-20
0.000475542
-1.65644e-18
-1.25143e-20
-1.65437e-18
-1.45308e-20
0.000482537
-1.68704e-18
-1.31549e-20
-1.65787e-18
-1.2857e-20
0.000489636
-1.719e-18
-1.22944e-20
-1.66236e-18
-1.21626e-20
0.000496839
-1.5938e-18
-1.34592e-20
-1.48461e-18
-1.50479e-20
0.000504148
-1.62077e-18
-1.59792e-20
-1.59119e-18
-2.29686e-20
0.000511565
-1.47209e-18
-1.26684e-20
-1.49366e-18
-2.57275e-20
0.00051909
-1.46163e-18
-1.12678e-20
-1.42192e-18
-2.7848e-20
0.000526726
-1.39637e-18
-8.0263e-21
-1.47725e-18
-2.5316e-20
0.000534473
-1.37568e-18
-7.45525e-21
-1.41864e-18
-1.98325e-20
0.000542333
-1.21305e-18
-6.42252e-21
-1.23955e-18
-1.67963e-20
0.000550308
-1.21519e-18
-1.12324e-20
-1.31383e-18
-2.08001e-20
0.0005584
-1.09781e-18
-9.04693e-21
-1.20556e-18
-1.54236e-20
0.000566609
-1.03761e-18
-1.36091e-20
-1.0969e-18
-1.94161e-20
0.000574937
-1.03442e-18
-2.12986e-20
-1.07884e-18
-2.60826e-20
0.000583386
-1.04956e-18
-2.35159e-20
-1.04399e-18
-1.94632e-20
0.000591957
-1.08401e-18
-2.36793e-20
-9.9108e-19
-1.40116e-20
0.000600651
-1.00557e-18
-2.33509e-20
-9.14061e-19
-2.24337e-20
0.000609471
-1.08472e-18
-2.14976e-20
-1.0331e-18
-2.7802e-20
0.000618418
-1.01481e-18
-7.86269e-21
-1.01181e-18
-2.75911e-20
0.000627493
-9.76672e-19
-2.63667e-21
-9.54623e-19
-2.21765e-20
0.000636697
-9.58382e-19
4.17534e-22
-8.77444e-19
-1.87845e-20
0.000646033
-9.10992e-19
1.4216e-21
-8.9774e-19
-2.24623e-20
0.000655501
-8.68725e-19
-1.83486e-21
-8.07974e-19
-1.17259e-20
0.000665104
-8.22852e-19
-6.35714e-21
-8.46811e-19
-1.01231e-20
0.000674842
-9.45364e-19
-1.58404e-20
-7.72297e-19
-1.24294e-20
0.000684717
-7.2715e-19
-9.21725e-21
-9.15575e-19
-1.76076e-20
0.000694731
-7.59417e-19
-1.98935e-20
-7.76304e-19
-1.3755e-20
0.000704884
-7.23449e-19
-2.39844e-20
-7.9473e-19
-1.07523e-20
0.000715178
-6.95633e-19
-2.09093e-20
-7.19579e-19
-9.6097e-21
0.000725615
-7.5437e-19
-1.67331e-20
-7.50822e-19
-8.9653e-21
0.000736196
-7.14443e-19
1.03924e-21
-5.88473e-19
-9.32649e-21
0.000746921
-6.17792e-19
7.66678e-21
-7.72691e-19
-2.0007e-20
0.000757793
3.33746e-21
-7.51679e-19
-2.2934e-20
-7.19322e-19
1.55686e-08
1.5157e-22
7.3309e-23
4.76085e-08
1.1291e-21
4.06614e-22
8.10354e-08
2.13921e-21
7.57721e-22
1.1589e-07
3.15438e-21
1.12268e-21
1.52214e-07
4.17935e-21
1.52165e-21
1.90049e-07
5.21247e-21
1.94071e-21
2.2944e-07
6.26832e-21
2.32289e-21
2.7043e-07
7.34642e-21
2.80019e-21
3.13066e-07
8.36332e-21
3.29289e-21
3.57394e-07
9.50882e-21
3.74733e-21
4.03462e-07
1.06548e-20
4.29746e-21
4.51318e-07
1.18056e-20
4.7654e-21
5.01013e-07
1.29225e-20
5.27659e-21
5.52598e-07
1.41122e-20
5.72468e-21
6.06126e-07
1.52256e-20
6.40361e-21
6.61649e-07
1.65196e-20
7.16672e-21
7.19224e-07
1.76847e-20
8.0074e-21
7.78906e-07
1.88429e-20
8.69082e-21
8.40753e-07
2.01698e-20
9.47911e-21
9.04824e-07
2.14108e-20
1.01957e-20
9.71181e-07
2.29934e-20
1.07546e-20
1.03988e-06
2.43991e-20
1.12292e-20
1.111e-06
2.61852e-20
1.18574e-20
1.18459e-06
2.76082e-20
1.27017e-20
1.26072e-06
2.90508e-20
1.35577e-20
1.33946e-06
3.04049e-20
1.41363e-20
1.42088e-06
3.11793e-20
1.51431e-20
1.50505e-06
3.2119e-20
1.61215e-20
1.59204e-06
3.32347e-20
1.72893e-20
1.68194e-06
3.44855e-20
1.85917e-20
1.7748e-06
3.55318e-20
1.97115e-20
1.87072e-06
3.66752e-20
2.09977e-20
1.96977e-06
3.7896e-20
2.16688e-20
2.07203e-06
3.99831e-20
2.25965e-20
2.17758e-06
4.15961e-20
2.38187e-20
2.2865e-06
4.33337e-20
2.48506e-20
2.39887e-06
4.49752e-20
2.56438e-20
2.51479e-06
4.63415e-20
2.70038e-20
2.63432e-06
4.83828e-20
2.82665e-20
2.75757e-06
5.01717e-20
2.92895e-20
2.88461e-06
5.25491e-20
3.04426e-20
3.01553e-06
5.43135e-20
3.10588e-20
3.1504e-06
5.58297e-20
3.1907e-20
3.28933e-06
5.78967e-20
3.28888e-20
3.43237e-06
5.96437e-20
3.48595e-20
3.57963e-06
6.15328e-20
3.67447e-20
3.73117e-06
6.26032e-20
3.87887e-20
3.88708e-06
6.4483e-20
4.02366e-20
4.04743e-06
6.57481e-20
4.21848e-20
4.21229e-06
6.74814e-20
4.46641e-20
4.38174e-06
6.9059e-20
4.66806e-20
4.55584e-06
6.96129e-20
4.71397e-20
4.73465e-06
7.21312e-20
4.85742e-20
4.91825e-06
7.33589e-20
5.09334e-20
5.10668e-06
7.54015e-20
5.32443e-20
5.30001e-06
7.78645e-20
5.50582e-20
5.49829e-06
8.04723e-20
5.53091e-20
5.70156e-06
8.24347e-20
5.69646e-20
5.90989e-06
8.30945e-20
5.93062e-20
6.12331e-06
8.43226e-20
6.14108e-20
6.34186e-06
8.59155e-20
6.38426e-20
6.5656e-06
8.74152e-20
6.51389e-20
6.79456e-06
8.88928e-20
6.76931e-20
7.02878e-06
8.99573e-20
6.98458e-20
7.2683e-06
9.01033e-20
7.10251e-20
7.51316e-06
9.2251e-20
7.34103e-20
7.76339e-06
9.48599e-20
7.61848e-20
8.01904e-06
9.4499e-20
8.00618e-20
8.28014e-06
9.69484e-20
8.18967e-20
8.54673e-06
9.9743e-20
8.32487e-20
8.81885e-06
1.02179e-19
8.53895e-20
9.09654e-06
1.04251e-19
8.81055e-20
9.37985e-06
1.061e-19
9.04145e-20
9.66881e-06
1.08967e-19
9.24161e-20
9.96348e-06
1.10619e-19
9.44481e-20
1.02639e-05
1.11122e-19
9.87806e-20
1.05701e-05
1.1214e-19
1.01336e-19
1.08822e-05
1.14115e-19
1.02363e-19
1.12002e-05
1.17208e-19
1.0522e-19
1.15241e-05
1.19339e-19
1.04604e-19
1.18541e-05
1.18796e-19
1.0605e-19
1.21901e-05
1.20324e-19
1.07633e-19
1.25323e-05
1.21035e-19
1.10059e-19
1.28806e-05
1.17924e-19
1.11009e-19
1.32353e-05
1.18817e-19
1.13677e-19
1.35963e-05
1.19954e-19
1.15804e-19
1.39637e-05
1.22459e-19
1.20275e-19
1.43376e-05
1.22553e-19
1.22263e-19
1.4718e-05
1.2066e-19
1.25653e-19
1.51051e-05
1.21225e-19
1.2865e-19
1.5499e-05
1.22342e-19
1.31676e-19
1.58996e-05
1.23842e-19
1.35896e-19
1.63071e-05
1.28463e-19
1.38521e-19
1.67215e-05
1.2569e-19
1.40158e-19
1.71431e-05
1.26009e-19
1.41688e-19
1.75718e-05
1.26158e-19
1.43096e-19
1.80077e-05
1.27834e-19
1.46223e-19
1.8451e-05
1.29953e-19
1.47604e-19
1.89017e-05
1.3206e-19
1.49365e-19
1.93599e-05
1.32325e-19
1.54268e-19
1.98258e-05
1.3515e-19
1.54333e-19
2.02994e-05
1.34067e-19
1.55072e-19
2.07808e-05
1.34365e-19
1.61467e-19
2.12702e-05
1.42378e-19
1.69632e-19
2.17676e-05
1.42704e-19
1.73194e-19
2.22731e-05
1.4458e-19
1.74499e-19
2.2787e-05
1.42811e-19
1.77588e-19
2.33092e-05
1.41439e-19
1.78267e-19
2.38399e-05
1.40911e-19
1.82052e-19
2.43793e-05
1.41856e-19
1.81215e-19
2.49273e-05
1.44169e-19
1.83664e-19
2.54842e-05
1.42463e-19
1.84566e-19
2.60501e-05
1.44998e-19
1.83534e-19
2.6625e-05
1.41117e-19
1.87728e-19
2.72092e-05
1.32518e-19
1.89546e-19
2.78027e-05
1.36319e-19
1.97796e-19
2.84057e-05
1.36386e-19
2.00498e-19
2.90183e-05
1.35851e-19
2.02057e-19
2.96406e-05
1.36138e-19
2.0774e-19
3.02728e-05
1.36638e-19
2.0923e-19
3.0915e-05
1.42134e-19
2.08437e-19
3.15674e-05
1.3812e-19
2.08508e-19
3.223e-05
1.36375e-19
2.15545e-19
3.2903e-05
1.39155e-19
2.15427e-19
3.35866e-05
1.39777e-19
2.14961e-19
3.4281e-05
1.41893e-19
2.1901e-19
3.49862e-05
1.46444e-19
2.18929e-19
3.57023e-05
1.4611e-19
2.23894e-19
3.64297e-05
1.37373e-19
2.25785e-19
3.71683e-05
1.34412e-19
2.24332e-19
3.79185e-05
1.46711e-19
2.27443e-19
3.86802e-05
1.47432e-19
2.27556e-19
3.94538e-05
1.50792e-19
2.29702e-19
4.02393e-05
1.40187e-19
2.28206e-19
4.10369e-05
1.4161e-19
2.36185e-19
4.18467e-05
1.34666e-19
2.35509e-19
4.26691e-05
1.43122e-19
2.34702e-19
4.3504e-05
1.48589e-19
2.40003e-19
4.43517e-05
1.52186e-19
2.43004e-19
4.52124e-05
1.55797e-19
2.34169e-19
4.60862e-05
1.5351e-19
2.45726e-19
4.69733e-05
1.45035e-19
2.42043e-19
4.7874e-05
1.46033e-19
2.44987e-19
4.87883e-05
1.43717e-19
2.47992e-19
4.97165e-05
1.37592e-19
2.47497e-19
5.06587e-05
1.30298e-19
2.46115e-19
5.16152e-05
1.33318e-19
2.50078e-19
5.25861e-05
1.36472e-19
2.53607e-19
5.35717e-05
1.33174e-19
2.58068e-19
5.45721e-05
1.26459e-19
2.59233e-19
5.55875e-05
1.2783e-19
2.55254e-19
5.66182e-05
1.21853e-19
2.55322e-19
5.76643e-05
1.15851e-19
2.53926e-19
5.8726e-05
1.20646e-19
2.52144e-19
5.98036e-05
1.19865e-19
2.52326e-19
6.08973e-05
1.08974e-19
2.52811e-19
6.20073e-05
1.24264e-19
2.44651e-19
6.31337e-05
1.24145e-19
2.41189e-19
6.42769e-05
1.1434e-19
2.39671e-19
6.5437e-05
1.09958e-19
2.50938e-19
6.66143e-05
1.14906e-19
2.51934e-19
6.7809e-05
1.13745e-19
2.42456e-19
6.90213e-05
1.31959e-19
2.38942e-19
7.02514e-05
1.22313e-19
2.50225e-19
7.14996e-05
1.3843e-19
2.63247e-19
7.27662e-05
1.37235e-19
2.70706e-19
7.40513e-05
1.40858e-19
2.69051e-19
7.53552e-05
1.32147e-19
2.66787e-19
7.66782e-05
1.2176e-19
2.60618e-19
7.80205e-05
1.21073e-19
2.60229e-19
7.93822e-05
1.17529e-19
2.38785e-19
8.07638e-05
1.06966e-19
2.28527e-19
8.21654e-05
9.55218e-20
2.25053e-19
8.35874e-05
9.40576e-20
2.3038e-19
8.50298e-05
9.40449e-20
2.36233e-19
8.64931e-05
8.89144e-20
2.38308e-19
8.79774e-05
1.04425e-19
2.36998e-19
8.94831e-05
1.26897e-19
2.38858e-19
9.10103e-05
1.3109e-19
2.38896e-19
9.25594e-05
1.20899e-19
2.36007e-19
9.41306e-05
1.25703e-19
2.32422e-19
9.57242e-05
1.20113e-19
2.37473e-19
9.73405e-05
1.25053e-19
2.41693e-19
9.89797e-05
1.21242e-19
2.37675e-19
0.000100642
9.32259e-20
2.32021e-19
0.000102328
1.00405e-19
2.0845e-19
0.000104038
6.96022e-20
2.08045e-19
0.000105771
6.88906e-20
2.11738e-19
0.000107529
5.59812e-20
2.08906e-19
0.000109312
4.66589e-20
2.05467e-19
0.000111119
4.65841e-20
1.90833e-19
0.000112951
3.63554e-20
1.91746e-19
0.000114809
4.14823e-20
1.73887e-19
0.000116692
4.18687e-20
1.69014e-19
0.000118602
3.6349e-20
1.61943e-19
0.000120537
3.62668e-20
1.51416e-19
0.0001225
6.44882e-20
1.49102e-19
0.000124488
4.8781e-20
1.65645e-19
0.000126504
3.69546e-20
1.59127e-19
0.000128547
5.08296e-20
1.61746e-19
0.000130618
6.63268e-20
1.85588e-19
0.000132717
1.20994e-19
1.33815e-19
0.000134843
1.32081e-19
1.14294e-19
0.000136998
1.27789e-19
1.04786e-19
0.000139182
6.53482e-20
1.64301e-19
0.000141394
4.76808e-20
1.66128e-19
0.000143636
4.05693e-20
1.65583e-19
0.000145907
7.65841e-20
1.43329e-19
0.000148207
6.32844e-20
1.44887e-19
0.000150538
4.7308e-20
1.24013e-19
0.000152899
4.6743e-20
1.17934e-19
0.00015529
4.40518e-20
1.07908e-19
0.000157712
-4.26972e-20
9.91801e-20
0.000160165
-7.43166e-21
6.50072e-20
0.000162649
2.28159e-20
1.98406e-20
0.000165165
2.45975e-20
3.37339e-20
0.000167712
-5.96277e-20
5.48548e-20
0.000170292
-8.54819e-20
4.18167e-20
0.000172904
-5.55242e-20
2.04135e-20
0.00017555
-7.42285e-20
2.04798e-20
0.000178228
-5.91199e-20
4.84746e-21
0.000180941
-3.64783e-20
-1.97219e-20
0.000183687
-6.99894e-20
9.22487e-21
0.000186468
-9.61034e-20
-1.80643e-20
0.000189284
-7.15593e-20
-4.4413e-20
0.000192136
-7.4554e-20
-5.41377e-20
0.000195025
-1.29958e-19
-4.90637e-20
0.00019795
-1.20395e-19
-6.90559e-20
0.000200912
-1.28515e-19
-7.05682e-20
0.000203913
-1.40755e-19
-6.84968e-20
0.000206953
-1.62565e-19
-9.30735e-20
0.000210033
-1.27325e-19
-1.60883e-19
0.000213154
-1.81118e-19
-1.36713e-19
0.000216316
-1.90298e-19
-1.36199e-19
0.00021952
-2.03498e-19
-1.49684e-19
0.000222768
-2.46649e-19
-1.65397e-19
0.000226059
-2.04403e-19
-2.36124e-19
0.000229396
-2.11674e-19
-2.30706e-19
0.000232779
-1.76539e-19
-3.06264e-19
0.000236208
-2.41144e-19
-3.20588e-19
0.000239686
-3.27935e-19
-3.39996e-19
0.000243212
-3.39513e-19
-3.60348e-19
0.000246788
-4.09242e-19
-3.80037e-19
0.000250415
-3.91361e-19
-3.9814e-19
0.000254093
-4.34387e-19
-4.45896e-19
0.000257824
-4.00365e-19
-4.43057e-19
0.000261608
-4.84225e-19
-4.56135e-19
0.000265447
-4.95422e-19
-4.92103e-19
0.000269341
-4.99472e-19
-4.8074e-19
0.000273292
-4.55472e-19
-4.52011e-19
0.0002773
-4.43516e-19
-4.8862e-19
0.000281366
-4.25796e-19
-5.84207e-19
0.000285492
-4.5068e-19
-5.9834e-19
0.000289678
-5.7912e-19
-6.26269e-19
0.000293925
-5.31254e-19
-5.74187e-19
0.000298235
-5.19857e-19
-5.49902e-19
0.000302607