/*--------------------------------*- C++ -*----------------------------------*\
| =========                 |                                                 |
| \\      /  F ield         | OpenFOAM: The Open Source CFD Toolbox           |
|  \\    /   O peration     | Version:  2012                                  |
|   \\  /    A nd           | Website:  www.openfoam.com                      |
|    \\/     M anipulation  |                                                 |
\*---------------------------------------------------------------------------*/
FoamFile
{
    version     2.0;
    format      ascii;
    class       volTensorField;
    location    "4000";
    object      grad(U);
}
// * * * * * * * * * * * * * * * * * * * * * * * * * * * * * * * * * * * * * //

dimensions      [0 0 -1 0 0 0 0];


internalField   nonuniform List<tensor> 
5120
(
(-9.12381e-18 -1.6773e-24 -9.61899e-27 71.5874 -8.17021e-12 -2.14334e-13 0.0519254 -2.96266e-15 -4.46293e-17)
(0 -4.48565e-28 0 71.5874 -1.97215e-31 -2.55586e-13 0.0519254 6.50001e-34 3.87929e-17)
(-1.81166e-17 0 2.41687e-31 71.5736 1.61561e-27 -3.5118e-14 0.156138 9.69576e-45 -5.13102e-17)
(1.81166e-17 -2.05962e-29 2.66506e-26 71.5736 -2.42611e-15 -1.48429e-13 0.156138 -1.9567e-18 -7.78511e-17)
(6.50394e-17 -8.17931e-30 -8.72812e-32 71.5499 9.38501e-12 -1.59264e-14 0.211311 -1.9384e-14 -4.24098e-17)
(0 8.17931e-30 0 71.5499 -2.34538e-15 -6.81583e-15 0.211311 -3.60781e-18 -7.89777e-17)
(-7.14293e-17 -5.1174e-26 1.26884e-31 71.5149 -4.43399e-13 -1.42378e-14 0.212718 -6.57246e-16 -4.20069e-17)
(0 -8.12057e-30 0 71.5149 -2.64522e-15 -6.86337e-15 0.212718 -5.71277e-18 -8.01106e-17)
(3.59421e-17 -1.18223e-26 -4.30745e-32 71.4687 -9.07785e-14 -1.42236e-14 0.214102 -1.35534e-16 -4.29404e-17)
(1.43769e-16 2.41868e-29 0 71.4687 -2.63475e-15 -6.91144e-15 0.214102 -7.83809e-18 -8.125e-17)
(-1.21017e-16 1.48878e-29 1.69407e-31 71.4115 -4.29075e-14 -1.43642e-14 0.215461 -1.22519e-16 -4.34655e-17)
(2.02439e-16 -8.00437e-30 1.25068e-31 71.4115 -2.63247e-15 -6.95957e-15 0.215461 -9.94488e-18 -8.23955e-17)
(-6.53753e-17 8.40779e-45 1.69789e-31 71.3432 1.91702e-27 -1.44352e-14 0.216795 0 -4.39959e-17)
(0 -1.19203e-29 -1.2417e-31 71.3432 -2.63556e-15 -7.00749e-15 0.216795 -1.20341e-17 -8.35461e-17)
(-8.02368e-17 1.8673e-29 4.68955e-32 71.264 1.56372e-14 -1.45302e-14 0.218104 -5.45006e-17 -4.46783e-17)
(-3.20947e-16 -1.57796e-29 0 71.264 -2.60797e-15 -7.05565e-15 0.218104 -1.41792e-17 -8.47015e-17)
(-9.51927e-17 -1.02264e-30 4.81869e-32 71.1741 8.82984e-15 -1.46563e-14 0.219387 -4.08778e-17 -4.54123e-17)
(0 7.83316e-30 0 71.1741 -2.60853e-15 -7.10444e-15 0.219387 -1.63009e-17 -8.58623e-17)
(-2.20482e-16 2.13487e-29 2.20517e-31 71.0734 3.75575e-15 -1.47895e-14 0.220645 -1.32973e-17 -4.6155e-17)
(-5.77778e-16 -1.55538e-29 -1.21514e-31 71.0734 -2.57729e-15 -7.15437e-15 0.220645 -1.85499e-17 -8.70288e-17)
(0 -3.86053e-30 0 70.9622 3.55149e-15 -1.49233e-14 0.221877 -9.9431e-18 -4.69091e-17)
(1.00304e-15 7.72107e-30 0 70.9622 -2.66363e-15 -7.20503e-15 0.221877 -2.07219e-17 -8.82016e-17)
(1.40609e-16 -6.7299e-30 -5.21973e-32 70.8405 4.1936e-15 -1.50592e-14 0.223081 -1.2212e-17 -4.76815e-17)
(-5.62437e-16 7.66563e-30 1.19775e-31 70.8405 -2.95768e-15 -7.2552e-15 0.223081 -2.30993e-17 -8.93793e-17)
(3.1185e-16 -1.98764e-30 1.17572e-32 70.7085 4.60365e-15 -1.51982e-14 0.22426 -1.41352e-17 -4.84729e-17)
(6.237e-16 -3.80529e-30 -1.18915e-31 70.7085 -2.88715e-15 -7.30472e-15 0.22426 -2.57457e-17 -9.05604e-17)
(0 3.77796e-30 0 70.5663 4.70908e-15 -1.53403e-14 0.225411 -1.49929e-17 -4.92823e-17)
(6.85306e-16 0 1.18061e-31 70.5663 -2.70639e-15 -7.35304e-15 0.225411 -2.80538e-17 -9.17444e-17)
(-7.713e-17 8.35693e-30 2.95227e-31 70.4139 4.70611e-15 -1.54849e-14 0.226534 -1.50147e-17 -5.01079e-17)
(-2.63942e-16 -3.75083e-30 1.17214e-31 70.4139 -2.81858e-15 -7.4031e-15 0.226534 -3.04977e-17 -9.29294e-17)
(-7.26471e-16 1.0343e-29 2.90613e-31 70.2516 4.6726e-15 -1.56314e-14 0.22763 -1.51913e-17 -5.09481e-17)
(8.09514e-16 0 0 70.2516 -2.69601e-15 -7.4545e-15 0.22763 -3.32062e-17 -9.4121e-17)
(2.18025e-16 -6.59192e-30 -5.93497e-32 70.0794 4.49897e-15 -1.57792e-14 0.228698 -1.50153e-17 -5.18014e-17)
(1.48404e-15 3.69716e-30 0 70.0794 -2.55312e-15 -7.50506e-15 0.228698 -3.54826e-17 -9.53131e-17)
(2.58296e-16 -1.10118e-29 -1.14707e-31 69.8975 4.42353e-15 -1.59287e-14 0.229737 -1.42772e-17 -5.26723e-17)
(0 1.10118e-29 0 69.8975 -2.81568e-15 -7.55545e-15 0.229737 -3.7794e-17 -9.65083e-17)
(-5.12883e-16 1.4577e-29 2.27766e-31 69.706 4.53207e-15 -1.60797e-14 0.230748 -1.47367e-17 -5.35544e-17)
(-2.56441e-16 -3.64425e-30 0 69.706 -2.86509e-15 -7.6069e-15 0.230748 -4.05527e-17 -9.77039e-17)
(-5.30852e-16 2.02594e-29 1.279e-31 69.505 4.53608e-15 -1.62314e-14 0.23173 -1.52041e-17 -5.445e-17)
(0 -1.44723e-29 0 69.505 -2.77173e-15 -7.65885e-15 0.23173 -4.29363e-17 -9.89037e-17)
(-5.34145e-16 1.00774e-29 6.55382e-32 69.2947 4.27996e-15 -1.63843e-14 0.232683 -1.49774e-17 -5.53604e-17)
(0 -3.5921e-30 0 69.2947 -2.66178e-15 -7.70873e-15 0.232683 -4.53758e-17 -1.00103e-16)
(5.94781e-16 -1.29186e-29 -1.34309e-31 69.0751 3.81331e-15 -1.65388e-14 0.233607 -1.37021e-17 -5.6287e-17)
(1.18956e-15 7.13261e-30 0 69.0751 -2.25314e-15 -7.75935e-15 0.233607 -4.78601e-17 -1.01302e-16)
(0 0 0 68.8465 3.5476e-15 -1.66946e-14 0.234502 -1.20334e-17 -5.72275e-17)
(0 3.5407e-30 0 68.8465 -2.20237e-15 -7.80977e-15 0.234502 -4.99882e-17 -1.02505e-16)
(4.94731e-16 7.03054e-30 0 68.609 3.55885e-15 -1.68515e-14 0.235366 -1.20878e-17 -5.81826e-17)
(-1.31851e-15 -7.03054e-30 0 68.609 -2.47741e-15 -7.86058e-15 0.235366 -5.23612e-17 -1.03706e-16)
(0 6.98006e-30 0 68.3627 3.65409e-15 -1.70093e-14 0.236201 -1.22854e-17 -5.91503e-17)
(0 -3.49003e-30 0 68.3627 -2.51128e-15 -7.91412e-15 0.236201 -5.48132e-17 -1.04912e-16)
(-1.08637e-15 2.25359e-29 2.21735e-31 68.1077 3.78535e-15 -1.71673e-14 0.237005 -1.29226e-17 -6.01293e-17)
(0 -1.38599e-29 0 68.1077 -2.29112e-15 -7.97078e-15 0.237005 -5.73447e-17 -1.06123e-16)
(4.84149e-16 -1.03203e-29 -2.15005e-31 67.8443 3.65157e-15 -1.73264e-14 0.23778 -1.33791e-17 -6.11266e-17)
(2.54353e-15 1.03203e-29 2.15005e-31 67.8443 -2.24454e-15 -8.02943e-15 0.23778 -5.95601e-17 -1.07341e-16)
(-3.94856e-16 -7.35459e-30 -1.35991e-31 67.5725 3.36463e-15 -1.74872e-14 0.238524 -1.21707e-17 -6.21395e-17)
(1.57943e-15 1.02461e-29 0 67.5725 -2.31469e-15 -8.08244e-15 0.238524 -6.16282e-17 -1.0856e-16)
(0 0 0 67.2925 3.44217e-15 -1.76485e-14 0.239237 -1.15434e-17 -6.31634e-17)
(1.64523e-15 3.39086e-30 0 67.2925 -2.29332e-15 -8.13126e-15 0.239237 -6.39198e-17 -1.09771e-16)
(0 1.68325e-29 0 67.0045 3.70208e-15 -1.78107e-14 0.239919 -1.28999e-17 -6.4206e-17)
(-1.71126e-15 -2.0199e-29 -2.10407e-31 67.0045 -2.49004e-15 -8.18529e-15 0.239919 -6.64931e-17 -1.10981e-16)
(-8.88743e-16 9.12354e-30 3.74989e-31 66.7086 3.86014e-15 -1.7974e-14 0.240571 -1.35764e-17 -6.52608e-17)
(0 -3.34233e-30 -2.08896e-31 66.7086 -2.38873e-15 -8.24108e-15 0.240571 -6.90155e-17 -1.12196e-16)
(0 6.63666e-30 0 66.4049 4.04432e-15 -1.8138e-14 0.241191 -1.42297e-17 -6.63322e-17)
(1.84391e-15 -3.31833e-30 0 66.4049 -2.20956e-15 -8.29595e-15 0.241191 -7.14799e-17 -1.13406e-16)
(9.41292e-16 -2.92458e-29 -4.98741e-31 66.0936 4.06569e-15 -1.83036e-14 0.241781 -1.51145e-17 -6.74225e-17)
(1.44687e-15 2.30615e-29 4.11813e-31 66.0936 -2.27382e-15 -8.35244e-15 0.241781 -7.4055e-17 -1.14617e-16)
(-9.88664e-16 -1.05752e-29 1.7784e-31 65.7749 4.13108e-15 -1.84704e-14 0.242339 -1.45931e-17 -6.85275e-17)
(3.95465e-15 1.30834e-29 0 65.7749 -2.49267e-15 -8.41242e-15 0.242339 -7.64018e-17 -1.15825e-16)
(-9.68099e-16 9.38361e-30 4.96867e-31 65.4488 4.23896e-15 -1.86377e-14 0.242865 -1.58169e-17 -6.96458e-17)
(2.50132e-15 -6.49472e-30 -4.0592e-31 65.4488 -2.56659e-15 -8.46959e-15 0.242865 -7.97258e-17 -1.17039e-16)
(-1.05572e-15 -1.03432e-29 1.86016e-31 65.1157 4.25924e-15 -1.88061e-14 0.24336 -1.56076e-17 -7.07848e-17)
(4.22286e-15 1.28962e-29 0 65.1157 -2.20891e-15 -8.52129e-15 0.24336 -8.24707e-17 -1.1824e-16)
(0 -3.20089e-30 -2.00055e-31 64.7756 4.43539e-15 -1.89773e-14 0.243824 -1.61986e-17 -7.1949e-17)
(0 3.20089e-30 2.00055e-31 64.7756 -2.62475e-15 -8.57626e-15 0.243824 -8.44662e-17 -1.19437e-16)
(-5.61539e-16 9.24342e-30 2.95856e-31 64.4286 4.34296e-15 -1.915e-14 0.244256 -1.71638e-17 -7.31259e-17)
(0 -3.1779e-30 3.97238e-31 64.4286 -3.09831e-15 -8.63181e-15 0.244256 -8.74442e-17 -1.20633e-16)
(-5.78432e-16 6.04245e-30 9.9409e-32 64.075 4.38196e-15 -1.93225e-14 0.244656 -1.5731e-17 -7.43142e-17)
(0 0 0 64.075 -2.67673e-15 -8.69035e-15 0.244656 -9.06934e-17 -1.21824e-16)
(0 -6.26485e-30 0 63.7149 4.67884e-15 -1.94957e-14 0.245024 -1.77117e-17 -7.55233e-17)
(0 6.26485e-30 0 63.7149 -2.78866e-15 -8.75076e-15 0.245024 -9.37714e-17 -1.23019e-16)
(6.12312e-16 1.26637e-29 9.05078e-32 63.3485 4.48769e-15 -1.96704e-14 0.245361 -1.82493e-17 -7.67503e-17)
(-2.44925e-15 -1.55497e-29 -1.94371e-31 63.3485 -3.19131e-15 -8.80912e-15 0.245361 -9.72955e-17 -1.24207e-16)
(6.29295e-16 -1.21487e-29 -1.06146e-31 62.9759 4.35238e-15 -1.98472e-14 0.245666 -1.64838e-17 -7.80039e-17)
(0 9.2628e-30 0 62.9759 -2.96268e-15 -8.86825e-15 0.245666 -1.00367e-16 -1.25391e-16)
(0 0 0 62.5972 4.59138e-15 -2.00251e-14 0.245939 -1.74554e-17 -7.92667e-17)
(0 3.06543e-30 0 62.5972 -3.02191e-15 -8.92683e-15 0.245939 -1.02894e-16 -1.26568e-16)
(0 -1.21737e-29 -1.90213e-31 62.2127 4.61821e-15 -2.0203e-14 0.24618 -1.86069e-17 -8.05485e-17)
(0 1.21737e-29 1.90213e-31 62.2127 -3.23233e-15 -8.98488e-15 0.24618 -1.06336e-16 -1.27735e-16)
(-6.80389e-16 -6.18015e-30 -2.64454e-31 61.8225 4.48123e-15 -2.03817e-14 0.246389 -1.79218e-17 -8.18462e-17)
(0 6.04312e-30 3.77695e-31 61.8225 -2.98971e-15 -9.0463e-15 0.246389 -1.09874e-16 -1.28891e-16)
(-6.97461e-16 -1.15809e-31 1.15689e-31 61.4268 4.29455e-15 -2.05604e-14 0.246566 -1.77817e-17 -8.31575e-17)
(0 5.99972e-30 0 61.4268 -2.84445e-15 -9.10754e-15 0.246566 -1.12621e-16 -1.30042e-16)
(-7.1455e-16 2.88368e-30 1.18177e-31 61.0257 4.20267e-15 -2.0739e-14 0.246712 -1.66785e-17 -8.44835e-17)
(0 2.97832e-30 0 61.0257 -2.94074e-15 -9.1669e-15 0.246712 -1.15696e-16 -1.31177e-16)
(8.32303e-16 -8.8708e-30 0 60.6193 4.5598e-15 -2.09191e-14 0.246826 -1.72945e-17 -8.58363e-17)
(0 8.8708e-30 0 60.6193 -2.85717e-15 -9.22164e-15 0.246826 -1.19158e-16 -1.323e-16)
(1.65265e-15 -1.17428e-29 0 60.208 4.8621e-15 -2.11006e-14 0.246908 -1.98387e-17 -8.72032e-17)
(0 1.17428e-29 0 60.208 -3.23457e-15 -9.27374e-15 0.246908 -1.21706e-16 -1.33393e-16)
(-1.53179e-15 2.03366e-29 6.16115e-31 59.7917 4.46926e-15 -2.12823e-14 0.246959 -2.00336e-17 -8.8589e-17)
(-3.06358e-15 -1.45731e-29 -3.64327e-31 59.7917 -3.06667e-15 -9.32894e-15 0.246959 -1.25894e-16 -1.34473e-16)
(3.14731e-17 -1.44805e-29 -2.33158e-31 59.3707 3.89754e-15 -2.14652e-14 0.246977 -1.68702e-17 -8.9996e-17)
(5.44972e-15 1.73621e-29 3.61711e-31 59.3707 -1.46434e-15 -9.38764e-15 0.246977 -1.286e-16 -1.35532e-16)
(1.60882e-15 -2.29916e-29 -4.90371e-31 58.9451 4.02137e-15 -2.1649e-14 0.246965 -1.55508e-17 -9.14216e-17)
(2.39202e-15 1.72375e-29 0 58.9451 -1.8112e-15 -9.45107e-15 0.246965 -1.29232e-16 -1.36579e-16)
(-8.1731e-16 2.88023e-30 1.34004e-31 58.5151 4.56468e-15 -2.1834e-14 0.246921 -1.81565e-17 -9.28697e-17)
(0 2.85228e-30 0 58.5151 -2.86688e-15 -9.51046e-15 0.246921 -1.33278e-16 -1.37615e-16)
(0 0 -3.53975e-31 58.0808 4.75e-15 -2.20203e-14 0.246845 -2.03788e-17 -9.43384e-17)
(3.33782e-15 0 0 58.0808 -2.92044e-15 -9.5661e-15 0.246845 -1.36558e-16 -1.38625e-16)
(-1.70319e-15 2.54379e-29 6.30701e-31 57.6425 4.69237e-15 -2.2208e-14 0.246738 -2.00013e-17 -9.5831e-17)
(-3.40639e-15 -1.96802e-29 -3.51433e-31 57.6425 -3.29917e-15 -9.62777e-15 0.246738 -1.39946e-16 -1.3962e-16)
(-1.73747e-15 1.73921e-31 2.85038e-31 57.2002 5.07665e-15 -2.23964e-14 0.246601 -2.01794e-17 -9.73385e-17)
(3.47495e-15 8.37382e-30 3.48909e-31 57.2002 -2.85425e-15 -9.68942e-15 0.246601 -1.44327e-16 -1.40612e-16)
(0 5.54246e-30 0 56.7542 5.27278e-15 -2.25856e-14 0.246432 -2.3618e-17 -9.88717e-17)
(0 0 0 56.7542 -2.75712e-15 -9.73961e-15 0.246432 -1.47841e-16 -1.41577e-16)
(-9.02999e-16 1.11305e-29 4.92344e-31 56.3046 4.87245e-15 -2.2777e-14 0.246232 -2.21823e-17 -1.00432e-16)
(-3.612e-15 -5.50266e-30 0 56.3046 -3.25206e-15 -9.79836e-15 0.246232 -1.5159e-16 -1.42498e-16)
(1.53774e-15 -2.45842e-29 -6.82893e-31 55.8514 4.64939e-15 -2.29715e-14 0.246002 -2.04454e-17 -1.02028e-16)
(2.14273e-15 2.45842e-29 6.82893e-31 55.8514 -2.57639e-15 -9.87109e-15 0.246002 -1.54856e-16 -1.43417e-16)
(0 -2.44076e-29 -3.38995e-31 55.395 3.98755e-15 -2.31691e-14 0.245741 -2.05314e-17 -1.03651e-16)
(7.49778e-15 2.44076e-29 3.38995e-31 55.395 -1.38531e-15 -9.92617e-15 0.245741 -1.56327e-16 -1.44322e-16)
(-1.51573e-15 5.38497e-30 3.3656e-31 54.9355 3.05719e-15 -2.33673e-14 0.245449 -1.48458e-17 -1.05288e-16)
(0 0 0 54.9355 -1.2404e-15 -9.96723e-15 0.245449 -1.58581e-16 -1.4516e-16)
(5.33457e-16 -1.58359e-29 -1.73295e-31 54.4729 2.62994e-15 -2.35662e-14 0.245128 -1.24808e-17 -1.06953e-16)
(-5.39041e-15 1.06926e-29 0 54.4729 -9.38029e-16 -1.00259e-14 0.245128 -1.60971e-16 -1.45982e-16)
(0 7.96186e-30 3.31744e-31 54.0075 2.74781e-15 -2.37689e-14 0.244776 -1.11996e-17 -1.08662e-16)
(2.45975e-15 -2.65395e-30 0 54.0075 -3.28855e-17 -1.01034e-14 0.244776 -1.60795e-16 -1.46828e-16)
(0 1.05396e-29 0 53.5395 3.44345e-15 -2.39741e-14 0.244394 -1.3735e-17 -1.10388e-16)
(4.02195e-15 -7.90468e-30 0 53.5395 -9.00075e-16 -1.01741e-14 0.244394 -1.60987e-16 -1.4769e-16)
(-1.0225e-15 -1.28216e-29 -1.56282e-31 53.0689 3.62744e-15 -2.41795e-14 0.243983 -1.7741e-17 -1.12137e-16)
(0 1.56958e-29 3.26997e-31 53.0689 -1.60524e-15 -1.02374e-14 0.243983 -1.63383e-16 -1.48528e-16)
(0 -1.55831e-29 -3.24649e-31 52.5959 3.54468e-15 -2.43842e-14 0.243542 -1.56337e-17 -1.13894e-16)
(4.15797e-15 1.55831e-29 3.24649e-31 52.5959 -8.05146e-16 -1.03137e-14 0.243542 -1.64683e-16 -1.49366e-16)
(-2.50805e-15 1.06085e-29 1.77573e-31 52.1207 4.09856e-15 -2.45881e-14 0.243073 -1.72287e-17 -1.15675e-16)
(0 -5.15708e-30 0 52.1207 -4.49615e-16 -1.03831e-14 0.243073 -1.66663e-16 -1.50225e-16)
(-3.67771e-16 4.80817e-30 1.38921e-31 51.6434 4.54669e-15 -2.47944e-14 0.242574 -2.10507e-17 -1.17495e-16)
(-1.44116e-15 0 0 51.6434 -5.30311e-16 -1.04387e-14 0.242574 -1.66263e-16 -1.51047e-16)
(-2.52111e-15 2.32046e-29 1.13777e-30 51.1642 4.44903e-15 -2.50021e-14 0.242046 -2.17082e-17 -1.19329e-16)
(-4.36119e-15 -1.52498e-29 -6.3541e-31 51.1642 -7.19305e-16 -1.04959e-14 0.242046 -1.64384e-16 -1.51852e-16)
(-2.21434e-15 1.33127e-29 1.00742e-30 50.6832 4.19591e-15 -2.52092e-14 0.24149 -2.04279e-17 -1.21184e-16)
(-4.42868e-15 -7.57016e-30 -6.30847e-31 50.6832 -1.73868e-15 -1.05555e-14 0.24149 -1.64772e-16 -1.52614e-16)
(-3.65836e-15 3.07945e-29 1.01028e-30 50.2005 3.71049e-15 -2.54154e-14 0.240905 -1.95998e-17 -1.2305e-16)
(-3.0857e-15 -2.50527e-29 -6.26317e-31 50.2005 -2.29254e-15 -1.06119e-14 0.240905 -1.66287e-16 -1.53338e-16)
(0 -2.48728e-30 -6.21819e-31 49.7164 2.99219e-15 -2.56241e-14 0.240293 -1.60429e-17 -1.2497e-16)
(4.56324e-15 2.48728e-30 6.21819e-31 49.7164 -1.19913e-15 -1.06666e-14 0.240293 -1.68645e-16 -1.53999e-16)
(-1.15757e-15 2.87123e-30 1.99553e-31 49.2309 2.99294e-15 -2.58357e-14 0.239653 -1.29069e-17 -1.26907e-16)
(4.63029e-15 2.46942e-30 0 49.2309 -1.19536e-15 -1.07208e-14 0.239653 -1.69846e-16 -1.54619e-16)
(0 0 0 48.7442 3.27043e-15 -2.60465e-14 0.238985 -1.62833e-17 -1.28861e-16)
(4.69718e-15 2.45168e-30 3.0646e-31 48.7442 -1.62919e-15 -1.07663e-14 0.238985 -1.73725e-16 -1.55176e-16)
(-2.38195e-15 8.17437e-30 4.14755e-31 48.2564 3.29896e-15 -2.62582e-14 0.23829 -1.58289e-17 -1.30851e-16)
(4.76389e-15 -2.43408e-30 0 48.2564 -1.1695e-15 -1.08132e-14 0.23829 -1.76546e-16 -1.55673e-16)
(-1.20761e-15 2.86966e-30 2.11385e-31 47.7677 3.17062e-15 -2.64711e-14 0.237569 -1.68028e-17 -1.32861e-16)
(4.83043e-15 2.4166e-30 0 47.7677 -1.42414e-15 -1.08672e-14 0.237569 -1.78336e-16 -1.56124e-16)
(0 -4.79849e-30 0 47.2782 2.78963e-15 -2.66865e-14 0.23682 -1.47755e-17 -1.3492e-16)
(4.89679e-15 4.79849e-30 0 47.2782 -1.49469e-15 -1.09231e-14 0.23682 -1.83346e-16 -1.56533e-16)
(0 2.38202e-30 0 46.7881 3.04746e-15 -2.69038e-14 0.236046 -1.32101e-17 -1.36994e-16)
(3.62199e-15 -2.38202e-30 0 46.7881 -1.067e-15 -1.09785e-14 0.236046 -1.84084e-16 -1.56878e-16)
(0 7.09474e-30 5.91228e-31 46.2974 3.59671e-15 -2.71214e-14 0.235245 -1.76052e-17 -1.39103e-16)
(5.02891e-15 -2.36491e-30 0 46.2974 -1.76015e-15 -1.10341e-14 0.235245 -1.82889e-16 -1.57157e-16)
(-2.59543e-15 1.46072e-29 8.15062e-31 45.8063 4.47247e-15 -2.73408e-14 0.234419 -1.90134e-17 -1.41239e-16)
(1.32177e-15 -9.39172e-30 -5.86982e-31 45.8063 -2.05701e-15 -1.10959e-14 0.234419 -1.87395e-16 -1.57387e-16)
(-2.22257e-17 1.79643e-30 -2.32428e-31 45.315 5.08875e-15 -2.75617e-14 0.233568 -2.68727e-17 -1.43412e-16)
(5.1602e-15 0 0 45.315 -1.69836e-15 -1.1161e-14 0.233568 -1.90552e-16 -1.5757e-16)
(0 1.62003e-29 0 44.8235 4.16812e-15 -2.77831e-14 0.232692 -2.5677e-17 -1.45602e-16)
(-5.22551e-15 -2.0829e-29 -5.78582e-31 44.8235 -2.29845e-15 -1.11994e-14 0.232692 -1.92457e-16 -1.57681e-16)
(0 1.83817e-29 1.14886e-30 44.332 3.58031e-15 -2.80057e-14 0.231791 -1.76517e-17 -1.47834e-16)
(-5.2906e-15 -1.83817e-29 -1.14886e-30 44.332 -2.83821e-15 -1.122e-14 0.231791 -1.94779e-16 -1.57664e-16)
(1.33886e-15 6.26018e-30 8.947e-31 43.8407 3.74559e-15 -2.82308e-14 0.230866 -1.98688e-17 -1.501e-16)
(-1.07109e-14 -9.12484e-30 -1.14061e-30 43.8407 -2.60098e-15 -1.12869e-14 0.230866 -1.99321e-16 -1.57584e-16)
(0 0 0 43.3496 2.74031e-15 -2.84576e-14 0.229917 -1.96585e-17 -1.52399e-16)
(1.08401e-14 0 0 43.3496 -1.05954e-15 -1.13751e-14 0.229917 -2.03525e-16 -1.57557e-16)
(-1.3711e-15 -6.12849e-30 -3.06879e-31 42.8588 1.77556e-15 -2.86854e-14 0.228944 -9.43288e-18 -1.54727e-16)
(1.09688e-14 8.99427e-30 5.62142e-31 42.8588 -1.04619e-15 -1.14311e-14 0.228944 -2.02694e-16 -1.57417e-16)
(-1.38713e-15 -1.59922e-30 2.60058e-31 42.3685 2.63827e-15 -2.89125e-14 0.227949 -9.57753e-18 -1.5707e-16)
(0 4.46484e-30 5.58105e-31 42.3685 -2.53236e-15 -1.14708e-14 0.227949 -2.06019e-16 -1.57142e-16)
(-1.40308e-15 2.05951e-29 8.19024e-31 41.8789 3.68972e-15 -2.91399e-14 0.22693 -1.89069e-17 -1.59452e-16)
(0 -1.77311e-29 -5.54097e-31 41.8789 -2.31081e-15 -1.15158e-14 0.22693 -2.10646e-16 -1.5678e-16)
(-1.41898e-15 2.4868e-29 1.37011e-30 41.3899 3.48328e-15 -2.93687e-14 0.22589 -2.11785e-17 -1.61863e-16)
(0 -2.20047e-29 -1.10024e-30 41.3899 -1.23671e-15 -1.15729e-14 0.22589 -2.14323e-16 -1.56362e-16)
(1.4348e-15 1.50588e-30 -2.74894e-31 40.9018 3.32391e-15 -2.96014e-14 0.224827 -1.69147e-17 -1.6434e-16)
(5.73919e-15 -4.36934e-30 0 40.9018 -5.54392e-16 -1.1633e-14 0.224827 -2.14875e-16 -1.55886e-16)
(2.9011e-15 1.16266e-29 -1.77449e-32 40.4147 3.77217e-15 -2.98381e-14 0.223742 -1.97235e-17 -1.6685e-16)
(0 -1.73519e-29 -5.42246e-31 40.4147 -1.35284e-15 -1.16737e-14 0.223742 -2.15489e-16 -1.55346e-16)
(0 4.30682e-30 5.38352e-31 39.9286 4.22482e-15 -3.00737e-14 0.222637 -2.21536e-17 -1.69369e-16)
(-5.86491e-15 0 0 39.9286 -1.999e-15 -1.17193e-14 0.222637 -2.21205e-16 -1.54674e-16)
(1.48183e-15 9.96718e-30 2.35532e-31 39.4436 4.8675e-15 -2.48887e-14 0.22151 -2.50885e-17 -1.10676e-16)
(-5.92733e-15 -1.28277e-29 -5.34486e-31 39.4436 -1.84218e-15 -1.1796e-14 0.22151 -2.23393e-16 -1.53989e-16)
(-8.92465e-16 9.87633e-30 7.54314e-31 38.96 4.67049e-15 -1.67072e-14 0.220364 -2.97383e-17 -7.86993e-17)
(0 -8.49037e-30 -5.30648e-31 38.96 -1.68703e-15 -1.18702e-14 0.220364 -2.25937e-16 -1.53248e-16)
(2.37267e-15 -4.2147e-30 -5.26838e-31 38.4777 3.92705e-15 -1.38606e-14 0.219197 -2.32103e-17 -7.96466e-17)
(3.67859e-15 4.2147e-30 0 38.4777 -3.17147e-16 -1.19384e-14 0.219197 -2.26467e-16 -1.5243e-16)
(-7.00749e-16 -1.10187e-29 -4.22604e-31 37.9969 4.49393e-15 -1.39075e-14 0.21801 -2.16463e-17 -8.0383e-17)
(3.75713e-15 1.67377e-29 1.04611e-30 37.9969 -7.99614e-16 -1.20014e-14 0.21801 -2.24194e-16 -1.51549e-16)
(-3.08697e-15 1.4024e-29 1.14769e-30 37.5176 5.6002e-15 -1.39363e-14 0.216805 -3.00935e-17 -8.11375e-17)
(-6.17393e-15 -8.30877e-30 -5.19298e-31 37.5176 -4.10149e-15 -1.20528e-14 0.216805 -2.30969e-16 -1.50558e-16)
(-3.88061e-15 1.52299e-29 1.34783e-30 37.0401 5.17474e-15 -1.39513e-14 0.215581 -3.48284e-17 -8.17259e-17)
(-3.91287e-15 -1.23737e-29 -1.03114e-30 37.0401 -4.09505e-15 -1.21015e-14 0.215581 -2.38749e-16 -1.49476e-16)
(7.31416e-16 -5.3325e-30 -7.04564e-31 36.5643 4.02675e-15 -1.3978e-14 0.214338 -2.55458e-17 -8.26312e-17)
(3.99007e-15 8.18987e-30 1.02373e-30 36.5643 -8.75873e-16 -1.21582e-14 0.214338 -2.40128e-16 -1.4828e-16)
(0 -8.13106e-30 -1.01638e-30 36.0904 3.9569e-15 -1.3381e-14 0.213077 -2.17871e-17 -7.58161e-17)
(6.3555e-15 8.13106e-30 1.01638e-30 36.0904 -1.39044e-16 -1.22306e-14 0.213077 -2.39507e-16 -1.46997e-16)
(2.27226e-15 -8.07267e-30 -5.04542e-31 35.6184 4.18964e-15 -1.08401e-14 0.2118 -2.50865e-17 -5.34112e-17)
(0 8.07267e-30 0 35.6184 -1.71182e-15 -1.22924e-14 0.2118 -2.42152e-16 -1.45637e-16)
(-1.61871e-15 6.86286e-30 8.30733e-31 35.1485 4.10201e-15 -8.94249e-15 0.210505 -2.48898e-17 -5.40349e-17)
(0 0 0 35.1485 -2.38625e-15 -1.23584e-14 0.210505 -2.46383e-16 -1.44131e-16)
(-3.26701e-15 5.70923e-30 6.62681e-31 34.6808 4.14444e-15 -9.0034e-15 0.209193 -2.4394e-17 -5.49265e-17)
(6.53401e-15 0 0 34.6808 -1.19095e-15 -1.24137e-14 0.209193 -2.52081e-16 -1.42605e-16)
(0 7.90001e-30 4.93751e-31 34.2152 5.67573e-15 -9.06677e-15 0.207866 -2.57665e-17 -5.55945e-17)
(4.36916e-15 -3.95001e-30 0 34.2152 2.12656e-16 -1.2456e-14 0.207866 -2.53515e-16 -1.40905e-16)
(-4.96025e-15 1.28368e-29 1.13614e-30 33.752 6.79112e-15 -9.14219e-15 0.206522 -4.34812e-17 -5.66532e-17)
(6.65125e-15 -7.84328e-30 0 33.752 4.64261e-18 -1.25133e-14 0.206522 -2.50107e-16 -1.39136e-16)
(2.19183e-15 -7.78696e-30 -9.7337e-31 33.2911 4.55802e-15 -9.18964e-15 0.205164 -3.98844e-17 -5.69906e-17)
(0 7.78696e-30 9.7337e-31 33.2911 -7.26096e-16 -1.2581e-14 0.205164 -2.53204e-16 -1.37155e-16)
(0 1.93276e-29 4.8319e-31 32.8327 3.01816e-15 -9.21009e-15 0.20379 -1.63972e-17 -5.77313e-17)
(0 -1.93276e-29 -4.8319e-31 32.8327 -1.19774e-15 -1.26299e-14 0.20379 -2.51346e-16 -1.35165e-16)
(3.86656e-15 -6.68857e-30 -1.2962e-30 32.3769 3.64356e-15 -9.26448e-15 0.202403 -2.12138e-17 -5.85029e-17)
(0 3.83776e-30 9.59441e-31 32.3769 -1.23752e-15 -1.26678e-14 0.202403 -2.49606e-16 -1.33011e-16)
(-3.44066e-15 2.09395e-29 1.15108e-30 31.9237 3.97203e-15 -9.32948e-15 0.201001 -2.45099e-17 -5.93938e-17)
(6.88132e-15 -7.62041e-30 0 31.9237 -1.12997e-15 -1.27484e-14 0.201001 -2.54784e-16 -1.3071e-16)
(0 1.51314e-29 9.45711e-31 31.4731 4.98956e-15 -9.40451e-15 0.199586 -2.56876e-17 -6.03106e-17)
(6.9379e-15 -7.56569e-30 0 31.4731 -1.14436e-15 -1.28098e-14 0.199586 -2.58151e-16 -1.28349e-16)
(1.74852e-15 4.66622e-30 -3.38745e-31 31.0253 5.42755e-15 -9.49193e-15 0.198158 -3.78638e-17 -6.13809e-17)
(6.99409e-15 -3.75568e-30 0 31.0253 -1.23899e-15 -1.28436e-14 0.198158 -2.64017e-16 -1.25823e-16)
(0 1.49148e-29 9.32177e-31 30.5804 4.20177e-15 -9.56505e-15 0.196717 -3.16959e-17 -6.21339e-17)
(0 -1.49148e-29 -9.32177e-31 30.5804 -2.17413e-15 -1.28915e-14 0.196717 -2.6793e-16 -1.23223e-16)
(1.77632e-15 -2.13548e-29 -1.26575e-30 30.1383 4.72434e-15 -9.61973e-15 0.195264 -2.25279e-17 -6.29857e-17)
(7.10529e-15 1.85097e-29 9.25483e-31 30.1383 -2.74505e-15 -1.29457e-14 0.195264 -2.72357e-16 -1.20442e-16)
(3.02223e-15 1.06861e-29 4.73665e-31 29.6992 6.08472e-15 -9.69929e-15 0.1938 -3.89773e-17 -6.40819e-17)
(2.06904e-15 -1.83768e-29 -9.18838e-31 29.6992 -2.29629e-15 -1.29959e-14 0.1938 -2.79508e-16 -1.17522e-16)
(0 7.29792e-30 9.1224e-31 29.2632 5.61485e-15 -9.77082e-15 0.192324 -4.07408e-17 -6.48474e-17)
(5.16073e-15 -3.64896e-30 0 29.2632 -2.23009e-15 -1.30531e-14 0.192324 -2.78587e-16 -1.14445e-16)
(0 -1.08683e-29 -9.05689e-31 28.8302 4.2964e-15 -9.84977e-15 0.190838 -3.33208e-17 -6.60653e-17)
(7.26912e-15 1.08683e-29 9.05689e-31 28.8302 -1.80501e-15 -1.31071e-14 0.190838 -2.83154e-16 -1.11253e-16)
(-1.83073e-15 2.83889e-30 3.43456e-31 28.4003 5.10849e-15 -9.94367e-15 0.189341 -2.3746e-17 -6.70505e-17)
(7.32292e-15 3.59674e-30 0 28.4003 -1.72146e-15 -1.31627e-14 0.189341 -2.86307e-16 -1.07831e-16)
(-2.17641e-15 1.85913e-29 1.44117e-30 27.9736 7.29215e-15 -1.00331e-14 0.187835 -4.4715e-17 -6.82352e-17)
(2.01024e-15 -1.78546e-29 -8.92728e-31 27.9736 -4.23858e-15 -1.32159e-14 0.187835 -2.88877e-16 -1.04308e-16)
(1.99581e-15 0 -8.86317e-31 27.5502 5.99585e-15 -1.01146e-14 0.186319 -5.36406e-17 -6.9134e-17)
(-1.99581e-15 7.09054e-30 8.86317e-31 27.5502 -3.67356e-15 -1.3272e-14 0.186319 -2.97159e-16 -1.00601e-16)
(0 -1.75991e-29 -8.79953e-31 27.13 4.18369e-15 -1.02077e-14 0.184794 -2.76955e-17 -7.05039e-17)
(1.49637e-14 1.75991e-29 8.79953e-31 27.13 -8.39795e-16 -1.33277e-14 0.184794 -2.9764e-16 -9.67315e-17)
(0 1.04836e-29 0 26.7133 5.07774e-15 -1.03148e-14 0.18326 -2.95407e-17 -7.16191e-17)
(-1.96725e-15 -3.49454e-30 0 26.7133 -2.54321e-15 -1.33506e-14 0.18326 -3.00195e-16 -9.25487e-17)
(0 1.04083e-29 0 26.2999 6.09692e-15 -1.03704e-14 0.181719 -4.04605e-17 -7.23024e-17)
(-7.58571e-15 -6.93888e-30 0 26.2999 -3.27218e-15 -1.33788e-14 0.181719 -3.06949e-16 -8.81649e-17)
(-3.84835e-15 1.31622e-29 3.4911e-31 25.8899 5.81062e-15 -1.04577e-14 0.180169 -4.41648e-17 -7.38829e-17)
(7.637e-15 -6.88906e-30 0 25.8899 -2.19295e-15 -1.34202e-14 0.180169 -3.08777e-16 -8.37007e-17)
(-3.20414e-18 4.01151e-30 5.04783e-31 25.4834 4.51916e-15 -1.05986e-14 0.178613 -3.70315e-17 -7.53432e-17)
(1.92517e-15 -1.02594e-29 -8.54948e-31 25.4834 -3.0221e-15 -1.3466e-14 0.178613 -3.13797e-16 -7.90541e-17)
(3.84593e-15 -2.65952e-29 -1.2001e-30 25.0804 3.21214e-15 -1.0722e-14 0.17705 -2.65573e-17 -7.67123e-17)
(7.73832e-15 2.03714e-29 8.48809e-31 25.0804 -2.76888e-15 -1.34938e-14 0.17705 -3.22684e-16 -7.41468e-17)
(1.89762e-15 -6.74171e-30 0 24.681 3.52321e-15 -1.07935e-14 0.175481 -1.8967e-17 -7.74609e-17)
(0 6.74171e-30 0 24.681 -3.29176e-15 -1.35177e-14 0.175481 -3.25406e-16 -6.88106e-17)
(0 1.00399e-29 0 24.2852 3.98166e-15 -1.08498e-14 0.173905 -3.14022e-17 -7.86401e-17)
(-7.83791e-15 -1.67332e-29 -8.36662e-31 24.2852 -4.27208e-15 -1.35653e-14 0.173905 -3.3479e-16 -6.33496e-17)
(-4.04482e-15 -1.49044e-30 2.34244e-31 23.893 3.53886e-15 -1.0964e-14 0.172324 -2.5862e-17 -8.02455e-17)
(7.88705e-15 6.64523e-30 0 23.893 -3.25647e-15 -1.3609e-14 0.172324 -3.38651e-16 -5.77921e-17)
(-3.96788e-15 -1.08439e-29 -1.12209e-31 23.5045 3.79177e-15 -1.10959e-14 0.170739 -2.54182e-17 -8.17144e-17)
(7.93576e-15 9.89627e-30 8.24689e-31 23.5045 -2.92194e-15 -1.36531e-14 0.170739 -3.47881e-16 -5.19771e-17)
(0 -6.55014e-30 -8.18767e-31 23.1197 3.42984e-15 -1.11979e-14 0.169148 -2.99423e-17 -8.29149e-17)
(7.98404e-15 6.55014e-30 0 23.1197 -3.63275e-15 -1.36874e-14 0.169148 -3.54104e-16 -4.58948e-17)
(1.83046e-15 -6.5031e-30 0 22.7386 3.73949e-15 -1.12777e-14 0.167554 -2.0447e-17 -8.40867e-17)
(0 6.5031e-30 0 22.7386 -4.776e-15 -1.37184e-14 0.167554 -3.57646e-16 -3.95111e-17)
(0 9.68461e-30 1.6141e-30 22.3612 4.94205e-15 -1.13857e-14 0.165955 -3.49788e-17 -8.57353e-17)
(0 -9.68461e-30 -1.6141e-30 22.3612 -5.42451e-15 -1.37694e-14 0.165955 -3.6809e-16 -3.29728e-17)
(-4.06311e-15 5.64099e-30 7.2388e-31 21.9876 5.17612e-15 -1.15036e-14 0.164354 -3.87448e-17 -8.70859e-17)
(0 0 0 21.9876 -4.68503e-15 -1.3853e-14 0.164354 -3.78072e-16 -2.61947e-17)
(5.87767e-15 -8.82054e-30 -7.26915e-31 21.6178 5.36254e-15 -1.1614e-14 0.162749 -3.90158e-17 -8.86567e-17)
(6.38141e-15 3.18201e-30 0 21.6178 -3.01762e-15 -1.39171e-14 0.162749 -3.8373e-16 -1.92181e-17)
(0 -1.26366e-29 -1.57958e-30 21.2519 4.96686e-15 -1.17217e-14 0.161142 -4.21383e-17 -8.99963e-17)
(8.21879e-15 1.26366e-29 1.57958e-30 21.2519 -2.93309e-15 -1.39404e-14 0.161142 -3.87339e-16 -1.19375e-17)
(0 -6.27294e-30 -7.84118e-31 20.8897 4.18933e-15 -1.18223e-14 0.159533 -3.35298e-17 -9.14948e-17)
(-3.53135e-15 6.27294e-30 7.84118e-31 20.8897 -4.26452e-15 -1.39959e-14 0.159533 -3.97843e-16 -4.46579e-18)
(3.50599e-15 -3.11395e-30 -7.78487e-31 20.5314 4.88812e-15 -1.1922e-14 0.157922 -3.0771e-17 -9.28492e-17)
(8.30958e-15 3.11395e-30 0 20.5314 -4.04879e-15 -1.40573e-14 0.157922 -4.08364e-16 3.10002e-18)
(-2.08858e-15 -1.57358e-29 -4.02886e-31 20.177 6.0738e-15 -1.20623e-14 0.156309 -4.48606e-17 -9.5017e-17)
(8.35431e-15 1.85495e-29 7.72897e-31 20.177 -4.38256e-15 -1.41053e-14 0.156309 -4.13852e-16 1.09201e-17)
(0 -3.06939e-30 -7.67346e-31 19.8265 4.87266e-15 -1.22201e-14 0.154696 -4.97502e-17 -9.66811e-17)
(0 3.06939e-30 0 19.8265 -3.85189e-15 -1.41765e-14 0.154696 -4.27788e-16 1.90115e-17)
(7.65221e-15 -1.17225e-29 -1.50923e-30 19.4799 2.01916e-15 -1.23259e-14 0.153082 -2.66019e-17 -9.80734e-17)
(8.44242e-15 6.09469e-30 7.61836e-31 19.4799 -1.80979e-15 -1.42554e-14 0.153082 -4.33475e-16 2.73843e-17)
(0 -1.21018e-29 -7.56366e-31 19.1372 1.05523e-15 -1.24062e-14 0.151468 -5.22395e-18 -9.93674e-17)
(0 1.21018e-29 7.56366e-31 19.1372 -3.28574e-15 -1.4319e-14 0.151468 -4.35428e-16 3.59615e-17)
(-2.13218e-15 2.08377e-29 1.12846e-30 18.7984 2.80419e-15 -1.25175e-14 0.149854 -1.15923e-17 -1.01288e-16)
(0 -1.80224e-29 -7.50934e-31 18.7984 -2.97057e-15 -1.43662e-14 0.149854 -4.50155e-16 4.46772e-17)
(0 -1.49108e-29 -1.49108e-30 18.4636 4.69568e-15 -1.27201e-14 0.148241 -3.3436e-17 -1.04094e-16)
(1.71425e-14 1.49108e-29 1.49108e-30 18.4636 -1.96061e-15 -1.44066e-14 0.148241 -4.5556e-16 5.36264e-17)
(0 5.9215e-30 7.40188e-31 18.1326 5.04394e-15 -1.29035e-14 0.146629 -4.24099e-17 -1.05751e-16)
(-8.61327e-15 0 7.40188e-31 18.1326 -5.0048e-15 -1.44402e-14 0.146629 -4.68381e-16 6.29957e-17)
(-4.32743e-15 1.73667e-29 2.23673e-30 17.8056 4.50639e-15 -1.30674e-14 0.145018 -3.96053e-17 -1.083e-16)
(0 -1.1758e-29 -1.46975e-30 17.8056 -5.3376e-15 -1.44858e-14 0.145018 -4.86158e-16 7.25955e-17)
(-4.348e-15 1.72813e-29 1.50071e-30 17.4826 4.35027e-15 -1.3318e-14 0.143409 -3.41888e-17 -1.11435e-16)
(0 -1.16735e-29 -7.29596e-31 17.4826 -4.18554e-15 -1.45053e-14 0.143409 -4.89779e-16 8.22915e-17)
(-2.18418e-15 -9.54767e-32 3.8791e-31 17.1635 4.67077e-15 -1.35351e-14 0.141802 -3.75954e-17 -1.13493e-16)