/*--------------------------------*- C++ -*----------------------------------*\
| =========                 |                                                 |
| \\      /  F ield         | OpenFOAM: The Open Source CFD Toolbox           |
|  \\    /   O peration     | Version:  2012                                  |
|   \\  /    A nd           | Website:  www.openfoam.com                      |
|    \\/     M anipulation  |                                                 |
\*---------------------------------------------------------------------------*/
FoamFile
{
    version     2.0;
    format      ascii;
    class       surfaceScalarField;
    location    "4000";
    object      phi;
}
// * * * * * * * * * * * * * * * * * * * * * * * * * * * * * * * * * * * * * //

dimensions      [0 3 -1 0 0 0 0];
oriented        oriented;


internalField   nonuniform List<scalar> 
10236
(
9.41529e-09
-5.2275e-18
-3.72017e-23
-1.00076e-22
7.03442e-24
2.85162e-08
-5.22673e-18
-2.54907e-22
-5.95114e-22
-1.42162e-23
4.80268e-08
-5.22598e-18
-2.55279e-22
-1.0804e-21
-1.45246e-23
6.79507e-08
-5.2252e-18
-2.57411e-22
-1.57797e-21
-1.48379e-23
8.82916e-08
-5.22443e-18
-2.59757e-22
-2.0687e-21
-1.5156e-23
1.09053e-07
-5.22365e-18
-2.62073e-22
-2.57086e-21
-1.54789e-23
1.30239e-07
-5.22285e-18
-2.64435e-22
-3.06878e-21
-1.58068e-23
1.51853e-07
-5.22204e-18
-2.66847e-22
-3.56573e-21
-1.61395e-23
1.73899e-07
-5.22126e-18
-2.6928e-22
-4.06319e-21
-1.64772e-23
1.9638e-07
-5.22044e-18
-2.71729e-22
-4.55491e-21
-1.682e-23
2.19299e-07
-5.21965e-18
-2.74193e-22
-5.07002e-21
-1.71678e-23
2.4266e-07
-5.21883e-18
-2.76671e-22
-5.6543e-21
-1.75207e-23
2.66467e-07
-5.21793e-18
-2.79163e-22
-6.23494e-21
-1.78785e-23
2.90723e-07
-5.21705e-18
-2.81666e-22
-6.78514e-21
-1.82411e-23
3.15432e-07
-5.21614e-18
-2.84181e-22
-7.31408e-21
-1.86086e-23
3.40596e-07
-5.21518e-18
-2.86704e-22
-7.90193e-21
-1.89809e-23
3.66219e-07
-5.21429e-18
-2.89236e-22
-8.38887e-21
-1.9358e-23
3.92304e-07
-5.21346e-18
-2.91776e-22
-8.98795e-21
-1.97402e-23
4.18855e-07
-5.21245e-18
-2.94322e-22
-9.57329e-21
-2.01272e-23
4.45875e-07
-5.21156e-18
-2.96876e-22
-1.01241e-20
-2.0519e-23
4.73366e-07
-5.21056e-18
-2.99436e-22
-1.07377e-20
-2.09157e-23
5.01332e-07
-5.20988e-18
-3.02002e-22
-1.11907e-20
-2.13172e-23
5.29776e-07
-5.20906e-18
-3.04573e-22
-1.168e-20
-2.17239e-23
5.58702e-07
-5.20833e-18
-3.07149e-22
-1.21513e-20
-2.21358e-23
5.88111e-07
-5.20758e-18
-3.09729e-22
-1.27331e-20
-2.25532e-23
6.18006e-07
-5.20671e-18
-3.12313e-22
-1.31615e-20
-2.29761e-23
6.48392e-07
-5.2059e-18
-3.14899e-22
-1.36752e-20
-2.34047e-23
6.7927e-07
-5.20519e-18
-3.17489e-22
-1.42611e-20
-2.38379e-23
7.10643e-07
-5.20441e-18
-3.20082e-22
-1.47435e-20
-2.42762e-23
7.42514e-07
-5.20362e-18
-3.22676e-22
-1.52675e-20
-2.47193e-23
7.74886e-07
-5.2027e-18
-3.25272e-22
-1.5814e-20
-2.51672e-23
8.07761e-07
-5.20176e-18
-3.27869e-22
-1.63301e-20
-2.56198e-23
8.41142e-07
-5.20089e-18
-3.30468e-22
-1.68342e-20
-2.60773e-23
8.75032e-07
-5.19993e-18
-3.33066e-22
-1.73834e-20
-2.65396e-23
9.09432e-07
-5.19888e-18
-3.35665e-22
-1.80501e-20
-2.70069e-23
9.44346e-07
-5.19795e-18
-3.38262e-22
-1.85483e-20
-2.74789e-23
9.79775e-07
-5.19687e-18
-3.40857e-22
-1.90737e-20
-2.79555e-23
1.01572e-06
-5.19587e-18
-3.43451e-22
-1.99493e-20
-2.84366e-23
1.05219e-06
-5.19486e-18
-3.46042e-22
-2.04767e-20
-2.89217e-23
1.08918e-06
-5.19365e-18
-3.48627e-22
-2.1178e-20
-2.94124e-23
1.12669e-06
-5.19259e-18
-3.51208e-22
-2.19613e-20
-2.99077e-23
1.16474e-06
-5.19164e-18
-3.53782e-22
-2.26614e-20
-3.04072e-23
1.20331e-06
-5.19039e-18
-3.56349e-22
-2.33831e-20
-3.09106e-23
1.24241e-06
-5.18933e-18
-3.5891e-22
-2.42346e-20
-3.14175e-23
1.28204e-06
-5.1882e-18
-3.61461e-22
-2.49112e-20
-3.19267e-23
1.32221e-06
-5.18713e-18
-3.64004e-22
-2.56407e-20
-3.24389e-23
1.36291e-06
-5.18603e-18
-3.66537e-22
-2.63693e-20
-3.29535e-23
1.40415e-06
-5.18496e-18
-3.69058e-22
-2.71962e-20
-3.34696e-23
1.44594e-06
-5.18366e-18
-3.7157e-22
-2.79461e-20
-3.3986e-23
1.48826e-06
-5.18236e-18
-3.74072e-22
-2.88424e-20
-3.45035e-23
1.53113e-06
-5.18144e-18
-3.76565e-22
-2.91332e-20
-3.50214e-23
1.57454e-06
-5.18053e-18
-3.79045e-22
-2.95652e-20
-3.55405e-23
1.6185e-06
-5.17912e-18
-3.8151e-22
-3.03966e-20
-3.60619e-23
1.663e-06
-5.17798e-18
-3.83964e-22
-3.11557e-20
-3.65835e-23
1.70806e-06
-5.17668e-18
-3.86403e-22
-3.1992e-20
-3.71063e-23
1.75366e-06
-5.17531e-18
-3.88828e-22
-3.28245e-20
-3.76312e-23
1.79982e-06
-5.1738e-18
-3.91237e-22
-3.37356e-20
-3.81565e-23
1.84653e-06
-5.17254e-18
-3.9363e-22
-3.42799e-20
-3.86793e-23
1.89379e-06
-5.17117e-18
-3.96003e-22
-3.5245e-20
-3.92017e-23
1.94161e-06
-5.17009e-18
-3.9836e-22
-3.5831e-20
-3.97229e-23
1.98999e-06
-5.16922e-18
-4.00696e-22
-3.60147e-20
-4.02433e-23
2.03892e-06
-5.16849e-18
-4.03003e-22
-3.60447e-20
-4.07687e-23
2.08841e-06
-5.16791e-18
-4.05279e-22
-3.60149e-20
-4.12998e-23
2.13846e-06
-5.16683e-18
-4.07523e-22
-3.64732e-20
-4.18366e-23
2.18907e-06
-5.16571e-18
-4.09737e-22
-3.68399e-20
-4.23764e-23
2.24024e-06
-5.16491e-18
-4.11918e-22
-3.69998e-20
-4.29211e-23
2.29197e-06
-5.16361e-18
-4.14058e-22
-3.71549e-20
-4.34701e-23
2.34426e-06
-5.16231e-18
-4.16162e-22
-3.72176e-20
-4.40232e-23
2.39712e-06
-5.16096e-18
-4.18235e-22
-3.76445e-20
-4.4573e-23
2.45054e-06
-5.15973e-18
-4.20278e-22
-3.78892e-20
-4.51126e-23
2.50452e-06
-5.15824e-18
-4.2229e-22
-3.8971e-20
-4.56443e-23
2.55907e-06
-5.15778e-18
-4.2427e-22
-3.90785e-20
-4.61616e-23
2.61418e-06
-5.1567e-18
-4.26214e-22
-3.95817e-20
-4.66704e-23
2.66986e-06
-5.1557e-18
-4.28123e-22
-4.01535e-20
-4.71674e-23
2.7261e-06
-5.15478e-18
-4.29993e-22
-4.03352e-20
-4.76526e-23
2.78291e-06
-5.15345e-18
-4.31824e-22
-4.08214e-20
-4.81279e-23
2.84029e-06
-5.153e-18
-4.33619e-22
-4.15008e-20
-4.85897e-23
2.89823e-06
-5.15178e-18
-4.35369e-22
-4.15086e-20
-4.90357e-23
2.95674e-06
-5.15091e-18
-4.37078e-22
-4.21875e-20
-4.94684e-23
3.01581e-06
-5.14925e-18
-4.38742e-22
-4.28466e-20
-4.98858e-23
3.07545e-06
-5.14756e-18
-4.40369e-22
-4.33855e-20
-5.02846e-23
3.13566e-06
-5.14624e-18
-4.41959e-22
-4.43319e-20
-5.06655e-23
3.19643e-06
-5.14517e-18
-4.43501e-22
-4.52479e-20
-5.10253e-23
3.25777e-06
-5.14387e-18
-4.44996e-22
-4.54943e-20
-5.13671e-23
3.31968e-06
-5.14267e-18
-4.46447e-22
-4.6412e-20
-5.16964e-23
3.38215e-06
-5.14266e-18
-4.47853e-22
-4.67907e-20
-5.19941e-23
3.44519e-06
-5.14151e-18
-4.49192e-22
-4.76943e-20
-5.22624e-23
3.5088e-06
-5.14016e-18
-4.50475e-22
-4.82646e-20
-5.25083e-23
3.57297e-06
-5.13882e-18
-4.51704e-22
-4.8762e-20
-5.27331e-23
3.63771e-06
-5.13793e-18
-4.52871e-22
-4.88781e-20
-5.29347e-23
3.70301e-06
-5.13659e-18
-4.53972e-22
-4.95999e-20
-5.31152e-23
3.76887e-06
-5.13522e-18
-4.55007e-22
-5.0272e-20
-5.32674e-23
3.83531e-06
-5.13346e-18
-4.55965e-22
-5.03613e-20
-5.33972e-23
3.9023e-06
-5.13163e-18
-4.56852e-22
-5.12597e-20
-5.35064e-23
3.96986e-06
-5.13073e-18
-4.57678e-22
-5.14377e-20
-5.35844e-23
4.03798e-06
-5.12884e-18
-4.5843e-22
-5.1557e-20
-5.36325e-23
4.10667e-06
-5.12676e-18
-4.59125e-22
-5.31514e-20
-5.36473e-23
4.17592e-06
-5.12446e-18
-4.59766e-22
-5.47926e-20
-5.36236e-23
4.24573e-06
-5.12359e-18
-4.60364e-22
-5.50293e-20
-5.35523e-23
4.3161e-06
-5.12158e-18
-4.60898e-22
-5.5143e-20
-5.34395e-23
4.38703e-06
-5.12048e-18
-4.61377e-22
-5.56336e-20
-5.32841e-23
4.45852e-06
-5.11862e-18
-4.61786e-22
-5.62793e-20
-5.30935e-23
4.53058e-06
-5.11697e-18
-4.62128e-22
-5.74917e-20
-5.28609e-23
4.60319e-06
-5.11576e-18
-4.62394e-22
-5.66258e-20
-5.25765e-23
4.67636e-06
-5.11155e-18
-4.62574e-22
-5.72607e-20
-5.22543e-23
4.75009e-06
-5.111e-18
-4.62695e-22
-5.70529e-20
-5.18692e-23
4.82437e-06
-5.10936e-18
-4.62723e-22
-5.78803e-20
-5.14291e-23
4.89922e-06
-5.10831e-18
-4.62652e-22
-5.80683e-20
-5.09387e-23
4.97462e-06
-5.10636e-18
-4.62482e-22
-5.85392e-20
-5.03916e-23
5.05057e-06
-5.10456e-18
-4.62218e-22
-5.94573e-20
-4.97745e-23
5.12708e-06
-5.10226e-18
-4.61877e-22
-5.9486e-20
-4.90871e-23
5.20415e-06
-5.10044e-18
-4.61435e-22
-6.02606e-20
-4.83575e-23
5.28176e-06
-5.09909e-18
-4.60908e-22
-6.19056e-20
-4.7562e-23
5.35994e-06
-5.09603e-18
-4.60266e-22
-6.24614e-20
-4.66825e-23
5.43866e-06
-5.09399e-18
-4.59537e-22
-6.3132e-20
-4.57248e-23
5.51794e-06
-5.0917e-18
-4.58702e-22
-6.48518e-20
-4.46945e-23
5.59776e-06
-5.09106e-18
-4.57755e-22
-6.44277e-20
-4.35651e-23
5.67814e-06
-5.08603e-18
-4.56677e-22
-6.68732e-20
-4.23575e-23
5.75907e-06
-5.08451e-18
-4.55529e-22
-6.81573e-20
-4.10584e-23
5.84055e-06
-5.08255e-18
-4.54289e-22
-6.88324e-20
-3.96482e-23
5.92257e-06
-5.0806e-18
-4.52933e-22
-6.99239e-20
-3.81166e-23
6.00515e-06
-5.0778e-18
-4.51466e-22
-7.08982e-20
-3.64751e-23
6.08827e-06
-5.07493e-18
-4.49919e-22
-7.20507e-20
-3.4731e-23
6.17194e-06
-5.07303e-18
-4.48274e-22
-7.33809e-20
-3.2868e-23
6.25616e-06
-5.07195e-18
-4.46531e-22
-7.50498e-20
-3.08785e-23
6.34093e-06
-5.0706e-18
-4.44675e-22
-7.60703e-20
-2.87306e-23
6.42624e-06
-5.06805e-18
-4.42707e-22
-7.78672e-20
-2.64598e-23
6.51209e-06
-5.06742e-18
-4.40639e-22
-7.94709e-20
-2.40685e-23
6.59849e-06
-5.0643e-18
-4.38423e-22
-8.11407e-20
-2.15379e-23
6.68544e-06
-5.06353e-18
-4.36127e-22
-8.25097e-20
-1.88538e-23
6.77293e-06
-5.06224e-18
-4.33716e-22
-8.46999e-20
-1.60246e-23
6.86097e-06
-5.05936e-18
-4.31169e-22
-8.73959e-20
-1.30593e-23
6.94955e-06
-5.05702e-18
-4.285e-22
-8.91952e-20
-9.93669e-24
7.03867e-06
-5.05461e-18
-4.25704e-22
-9.1088e-20
-6.65125e-24
7.12834e-06
-5.05227e-18
-4.22775e-22
-9.25863e-20
-3.20846e-24
7.21855e-06
-5.04975e-18
-4.19703e-22
-9.39964e-20
3.85706e-25
7.3093e-06
-5.04874e-18
-4.16489e-22
-9.62959e-20
4.11447e-24
7.4006e-06
-5.04429e-18
-4.13121e-22
-9.85536e-20
7.99465e-24
7.49243e-06
-5.0419e-18
-4.09651e-22
-1.00524e-19
1.20465e-23
7.58482e-06
-5.04173e-18
-4.06049e-22
-1.00699e-19
1.6297e-23
7.67774e-06
-5.04147e-18
-4.02276e-22
-1.02555e-19
2.07057e-23
7.77121e-06
-5.03938e-18
-3.98365e-22
-1.0409e-19
2.53046e-23
7.86522e-06
-5.03714e-18
-3.94306e-22
-1.05295e-19
3.00665e-23
7.95978e-06
-5.03471e-18
-3.90063e-22
-1.08173e-19
3.5075e-23
8.05488e-06
-5.03257e-18
-3.85703e-22
-1.09936e-19
4.03328e-23
8.15052e-06
-5.0299e-18
-3.81248e-22
-1.13029e-19
4.58027e-23
8.24671e-06
-5.02773e-18
-3.76708e-22
-1.15173e-19
5.15674e-23
8.34344e-06
-5.02487e-18
-3.72081e-22
-1.15345e-19
5.76259e-23
8.44072e-06
-5.02315e-18
-3.67362e-22
-1.16854e-19
6.39522e-23
8.53854e-06
-5.02103e-18
-3.62521e-22
-1.19614e-19
7.05617e-23
8.63691e-06
-5.01973e-18
-3.57496e-22
-1.21301e-19
7.74357e-23
8.73583e-06
-5.01655e-18
-3.52342e-22
-1.24929e-19
8.45922e-23
8.83529e-06
-5.01516e-18
-3.47101e-22
-1.2707e-19
9.20723e-23
8.9353e-06
-5.0116e-18
-3.41726e-22
-1.2964e-19
9.98741e-23
9.03586e-06
-5.01018e-18
-3.36244e-22
-1.3191e-19
1.07998e-22
9.13698e-06
-5.00549e-18
-3.30615e-22
-1.36283e-19
1.16439e-22
9.23864e-06
-5.00266e-18
-3.24937e-22
-1.4012e-19
1.2525e-22
9.34085e-06
-5.00417e-18
-3.19135e-22
-1.38486e-19
1.34486e-22
9.44361e-06
-5.00465e-18
-3.13129e-22
-1.38499e-19
1.4401e-22
9.54693e-06
-5.00543e-18
-3.06962e-22
-1.38654e-19
1.53811e-22
9.65081e-06
-5.00638e-18
-3.00602e-22
-1.3888e-19
1.63916e-22
9.75524e-06
-5.00756e-18
-2.94062e-22
-1.38122e-19
1.74346e-22
9.86023e-06
-5.00749e-18
-2.87282e-22
-1.3968e-19
1.85056e-22
9.96577e-06
-5.00849e-18
-2.80341e-22
-1.37294e-19
1.96134e-22
1.00719e-05
-5.00976e-18
-2.73199e-22
-1.36734e-19
2.07479e-22
1.01785e-05
-5.00991e-18
-2.65803e-22
-1.37077e-19
2.19171e-22
1.02858e-05
-5.009e-18
-2.58226e-22
-1.36964e-19
2.31257e-22
1.03936e-05
-5.01199e-18
-2.50465e-22
-1.36024e-19
2.43676e-22
1.05019e-05
-5.01082e-18
-2.42427e-22
-1.35607e-19
2.56417e-22
1.06109e-05
-5.01147e-18
-2.34145e-22
-1.35632e-19
2.69487e-22
1.07204e-05
-5.01135e-18
-2.2572e-22
-1.36519e-19
2.82899e-22
1.08305e-05
-5.01103e-18
-2.17062e-22
-1.38093e-19
2.96688e-22
1.09411e-05
-5.01138e-18
-2.08123e-22
-1.39681e-19
3.10847e-22
1.10523e-05
-5.01009e-18
-1.98864e-22
-1.4153e-19
3.25376e-22
1.11641e-05
-5.00919e-18
-1.89354e-22
-1.43081e-19
3.4035e-22
1.12765e-05
-5.00711e-18
-1.79588e-22
-1.44487e-19
3.55697e-22
1.13895e-05
-5.00719e-18
-1.69621e-22
-1.46472e-19
3.71485e-22
1.15031e-05
-5.00576e-18
-1.59364e-22
-1.47603e-19
3.87707e-22
1.16172e-05
-5.00451e-18
-1.48835e-22
-1.49238e-19
4.0429e-22
1.1732e-05
-5.0049e-18
-1.38096e-22
-1.5168e-19
4.21252e-22
1.18473e-05
-5.00329e-18
-1.27069e-22
-1.54919e-19
4.38667e-22
1.19632e-05
-5.00277e-18
-1.15787e-22
-1.58352e-19
4.56611e-22
1.20797e-05
-5.00146e-18
-1.04258e-22
-1.61627e-19
4.75083e-22
1.21969e-05
-4.99871e-18
-9.26745e-23
-1.63264e-19
4.94053e-22
1.23146e-05
-4.99623e-18
-8.09466e-23
-1.65254e-19
5.13581e-22
1.2433e-05
-4.99501e-18
-6.90619e-23
-1.66966e-19
5.33697e-22
1.25519e-05
-4.9909e-18
-5.69707e-23
-1.68703e-19
5.54355e-22
1.26715e-05
-4.98964e-18
-4.47892e-23
-1.70705e-19
5.75581e-22
1.27917e-05
-4.98962e-18
-3.24537e-23
-1.73177e-19
5.97395e-22
1.29125e-05
-4.98645e-18
-1.98521e-23
-1.76266e-19
6.19813e-22
1.30339e-05
-4.98486e-18
-7.11453e-24
-1.77351e-19
6.42852e-22
1.3156e-05
-4.98327e-18
5.81698e-24
-1.81559e-19
6.66449e-22
1.32787e-05
-4.9804e-18
1.89469e-23
-1.84165e-19
6.9079e-22
1.3402e-05
-4.98055e-18
3.22397e-23
-1.85776e-19
7.15751e-22
1.3526e-05
-4.97812e-18
4.58038e-23
-1.90715e-19
7.41291e-22
1.36506e-05
-4.97665e-18
5.9606e-23
-1.9318e-19
7.67554e-22
1.37759e-05
-4.9752e-18
7.35925e-23
-1.9304e-19
7.94554e-22
1.39018e-05
-4.97368e-18
8.76938e-23
-1.94769e-19
8.22079e-22
1.40284e-05
-4.9731e-18
1.01867e-22
-1.97057e-19
8.502e-22
1.41556e-05
-4.9752e-18
1.16235e-22
-1.95981e-19
8.79057e-22
1.42835e-05
-4.97625e-18
1.30862e-22
-1.97344e-19
9.08561e-22
1.44121e-05
-4.97593e-18
1.45669e-22
-1.98647e-19
9.38758e-22
1.45413e-05
-4.97705e-18
1.60647e-22
-2.01792e-19
9.69759e-22
1.46713e-05
-4.97485e-18
1.75906e-22
-2.05073e-19
1.00163e-21
1.48019e-05
-4.97439e-18
1.9138e-22
-2.07625e-19
1.03414e-21
1.49332e-05
-4.97454e-18
2.07115e-22
-2.11515e-19
1.06728e-21
1.50652e-05
-4.97261e-18
2.2314e-22
-2.15315e-19
1.10114e-21
1.51979e-05
-4.97171e-18
2.39371e-22
-2.19072e-19
1.13581e-21
1.53312e-05
-4.97e-18
2.55848e-22
-2.24424e-19
1.17131e-21
1.54653e-05
-4.97249e-18
2.72468e-22
-2.23162e-19
1.20746e-21
1.56002e-05
-4.97028e-18
2.8961e-22
-2.30562e-19
1.24409e-21
1.57357e-05
-4.97056e-18
3.0703e-22
-2.34608e-19
1.28155e-21
1.5872e-05
-4.96688e-18
3.24926e-22
-2.38527e-19
1.31974e-21
1.60089e-05
-4.96533e-18
3.43031e-22
-2.45046e-19
1.35855e-21
1.61467e-05
-4.96145e-18
3.61387e-22
-2.51595e-19
1.398e-21
1.62851e-05
-4.95832e-18
3.80072e-22
-2.59682e-19
1.43833e-21
1.64243e-05
-4.95765e-18
3.99086e-22
-2.60671e-19
1.47969e-21
1.65643e-05
-4.95385e-18
4.18448e-22
-2.68292e-19
1.52155e-21
1.6705e-05
-4.94804e-18
4.37977e-22
-2.77421e-19
1.56448e-21
1.68465e-05
-4.94839e-18
4.57498e-22
-2.81603e-19
1.60879e-21
1.69887e-05
-4.94655e-18
4.77284e-22
-2.89268e-19
1.65407e-21
1.71318e-05
-4.93985e-18
4.97281e-22
-2.94078e-19
1.70063e-21
1.72756e-05
-4.93589e-18
5.17114e-22
-2.99274e-19
1.74833e-21
1.74202e-05
-4.93082e-18
5.36777e-22
-3.05461e-19
1.79737e-21
1.75656e-05
-4.92834e-18
5.56587e-22
-3.13721e-19
1.84756e-21
1.77118e-05
-4.92225e-18
5.76481e-22
-3.18494e-19
1.89912e-21
1.78588e-05
-4.91444e-18
5.96093e-22
-3.26445e-19
1.95189e-21
1.80066e-05
-4.91679e-18
6.15373e-22
-3.23123e-19
2.0061e-21
1.81552e-05
-4.91914e-18
6.35053e-22
-3.24866e-19
2.06095e-21
1.83047e-05
-4.92298e-18
6.55078e-22
-3.23978e-19
2.11677e-21
1.8455e-05
-4.92095e-18
6.75387e-22
-3.27292e-19
2.17327e-21
1.86061e-05
-4.92677e-18
6.95759e-22
-3.24931e-19
2.23098e-21
1.87581e-05
-4.92471e-18
7.16665e-22
-3.2983e-19
2.28935e-21
1.8911e-05
-4.92797e-18
7.37579e-22
-3.34092e-19
2.34873e-21
1.90647e-05
-4.92915e-18
7.59129e-22
-3.33498e-19
2.40871e-21
1.92193e-05
-4.9248e-18
7.8099e-22
-3.37782e-19
2.46899e-21
1.93747e-05
-4.92474e-18
8.0262e-22
-3.43485e-19
2.53023e-21
1.9531e-05
-4.92102e-18
8.24469e-22
-3.49351e-19
2.59272e-21
1.96883e-05
-4.91855e-18
8.46462e-22
-3.54109e-19
2.65602e-21
1.98464e-05
-4.91854e-18
8.68674e-22
-3.60698e-19
2.72026e-21
2.00054e-05
-4.91563e-18
8.91575e-22
-3.6453e-19
2.78554e-21
2.01653e-05
-4.911e-18
9.14554e-22
-3.73728e-19
2.85141e-21
2.03262e-05
-4.90934e-18
9.37337e-22
-3.82449e-19
2.91858e-21
2.0488e-05
-4.90695e-18
9.60558e-22
-3.88796e-19
2.98665e-21
2.06507e-05
-4.90109e-18
9.84264e-22
-3.98198e-19
3.05526e-21
2.08144e-05
-4.8993e-18
1.00804e-21
-4.06764e-19
3.12478e-21
2.0979e-05
-4.89239e-18
1.03237e-21
-4.13782e-19
3.19507e-21
2.11446e-05
-4.88581e-18
1.05689e-21
-4.29861e-19
3.26604e-21
2.13111e-05
-4.88045e-18
1.0813e-21
-4.39786e-19
3.33834e-21
2.14787e-05
-4.87551e-18
1.10571e-21
-4.5177e-19
3.41193e-21
2.16472e-05
-4.87059e-18
1.13e-21
-4.63797e-19
3.48667e-21
2.18167e-05
-4.86234e-18
1.15426e-21
-4.7843e-19
3.56277e-21
2.19871e-05
-4.85477e-18
1.17792e-21
-4.92208e-19
3.64049e-21
2.21586e-05
-4.8502e-18
1.2006e-21
-5.02682e-19
3.71993e-21
2.23312e-05
-4.84773e-18
1.2226e-21
-5.06825e-19
3.80062e-21
2.25047e-05
-4.84634e-18
1.24456e-21
-5.11518e-19
3.88163e-21
2.26793e-05
-4.85017e-18
1.26653e-21
-5.1478e-19
3.96318e-21
2.28549e-05
-4.84722e-18
1.28915e-21
-5.20102e-19
4.04505e-21
2.30316e-05
-4.84838e-18
1.31187e-21
-5.28417e-19
4.12726e-21
2.32093e-05
-4.85111e-18
1.33481e-21
-5.36432e-19
4.20993e-21
2.33881e-05
-4.84764e-18
1.35811e-21
-5.44401e-19
4.29306e-21
2.3568e-05
-4.84229e-18
1.38108e-21
-5.54474e-19
4.37621e-21
2.37489e-05
-4.83774e-18
1.40373e-21
-5.62136e-19
4.45971e-21
2.3931e-05
-4.83592e-18
1.4262e-21
-5.70205e-19
4.54329e-21
2.41141e-05
-4.83317e-18
1.44877e-21
-5.80753e-19
4.62684e-21
2.42984e-05
-4.8287e-18
1.47121e-21
-5.9253e-19
4.70978e-21
2.44838e-05
-4.82827e-18
1.49337e-21
-6.0304e-19
4.79255e-21
2.46703e-05
-4.81825e-18
1.51583e-21
-6.15356e-19
4.87595e-21
2.48579e-05
-4.81162e-18
1.53763e-21
-6.29022e-19
4.95921e-21
2.50467e-05
-4.80497e-18
1.55936e-21
-6.42095e-19
5.04177e-21
2.52367e-05
-4.80036e-18
1.58111e-21
-6.55205e-19
5.1241e-21
2.54278e-05
-4.79608e-18
1.60276e-21
-6.68563e-19
5.20662e-21
2.56201e-05
-4.78463e-18
1.62433e-21
-6.84117e-19
5.28894e-21
2.58136e-05
-4.77884e-18
1.64484e-21
-7.0074e-19
5.37136e-21
2.60083e-05
-4.77315e-18
1.66473e-21
-7.1616e-19
5.45377e-21
2.62042e-05
-4.76857e-18
1.68378e-21
-7.33552e-19
5.53587e-21
2.64013e-05
-4.7604e-18
1.70237e-21
-7.49067e-19
5.61784e-21
2.65996e-05
-4.75226e-18
1.71961e-21
-7.67265e-19
5.69895e-21
2.67992e-05
-4.74267e-18
1.73525e-21
-7.8839e-19
5.78009e-21
2.7e-05
-4.73487e-18
1.74945e-21
-7.96897e-19
5.86047e-21
2.72021e-05
-4.72822e-18
1.76284e-21
-8.0744e-19
5.93857e-21
2.74054e-05
-4.72603e-18
1.77533e-21
-8.17189e-19
6.01474e-21
2.761e-05
-4.71945e-18
1.78828e-21
-8.30129e-19
6.08807e-21
2.78159e-05
-4.71591e-18
1.80122e-21
-8.39502e-19
6.15929e-21
2.80231e-05
-4.70876e-18
1.81394e-21
-8.51491e-19
6.22823e-21
2.82316e-05
-4.70567e-18
1.82554e-21
-8.63562e-19
6.29401e-21
2.84414e-05
-4.69932e-18
1.83664e-21
-8.7634e-19
6.35669e-21
2.86526e-05
-4.69859e-18
1.84652e-21
-8.91612e-19
6.4149e-21
2.88651e-05
-4.69382e-18
1.85559e-21
-9.05436e-19
6.46971e-21
2.90789e-05
-4.68892e-18
1.8643e-21
-9.19883e-19
6.52026e-21
2.92941e-05
-4.68908e-18
1.87172e-21
-9.34455e-19
6.5659e-21
2.95107e-05
-4.68354e-18
1.87891e-21
-9.49196e-19
6.60594e-21
2.97287e-05
-4.67423e-18
1.88479e-21
-9.61999e-19
6.64103e-21
2.99481e-05
-4.66877e-18
1.88825e-21
-9.7832e-19
6.67038e-21
3.01689e-05
-4.66244e-18
1.8901e-21
-9.94301e-19
6.69463e-21
3.03911e-05
-4.65538e-18
1.89014e-21
-1.00926e-18
6.71305e-21
3.06148e-05
-4.65355e-18
1.88908e-21
-1.0267e-18
6.72627e-21
3.08399e-05
-4.64705e-18
1.88784e-21
-1.04235e-18
6.73409e-21
3.10665e-05
-4.63916e-18
1.88371e-21
-1.0549e-18
6.73734e-21
3.12945e-05
-4.63205e-18
1.87796e-21
-1.06363e-18
6.73546e-21
3.1524e-05
-4.63246e-18
1.86992e-21
-1.08444e-18
6.72797e-21
3.17551e-05
-4.62567e-18
1.86061e-21
-1.09987e-18
6.717e-21
3.19877e-05
-4.62315e-18
1.85002e-21
-1.11057e-18
6.70061e-21
3.22218e-05
-4.61615e-18
1.83957e-21
-1.12541e-18
6.67858e-21
3.24574e-05
-4.60994e-18
1.82875e-21
-1.14051e-18
6.65013e-21
3.26946e-05
-4.59939e-18
1.81643e-21
-1.15714e-18
6.61485e-21
3.29334e-05
-4.59369e-18
1.80203e-21
-1.16974e-18
6.57451e-21
3.31738e-05
-4.58887e-18
1.78756e-21
-1.18212e-18
6.52983e-21
3.34158e-05
-4.58709e-18
1.77151e-21
-1.19105e-18
6.48024e-21
3.36594e-05
-4.58123e-18
1.75586e-21
-1.20441e-18
6.42302e-21
3.39047e-05
-4.57344e-18
1.73933e-21
-1.21546e-18
6.35965e-21
3.41516e-05
-4.57388e-18
1.72049e-21
-1.23068e-18
6.29009e-21
3.44002e-05
-4.57337e-18
1.69988e-21
-1.23572e-18
6.21622e-21
3.46505e-05
-4.57514e-18
1.6786e-21
-1.23743e-18
6.13707e-21
3.49025e-05
-4.56912e-18
1.65568e-21
-1.24302e-18
6.05188e-21
3.51562e-05
-4.56932e-18
1.63095e-21
-1.25305e-18
5.96297e-21
3.54116e-05
-4.56194e-18
1.60463e-21
-1.26605e-18
5.86884e-21
3.56689e-05
-4.55949e-18
1.57383e-21
-1.26448e-18
5.7719e-21
3.59279e-05
-4.56236e-18
1.54123e-21
-1.27029e-18
5.66859e-21
3.61886e-05
-4.56879e-18
1.50875e-21
-1.27879e-18
5.56125e-21
3.64512e-05
-4.56522e-18
1.47737e-21
-1.28031e-18
5.4516e-21
3.67157e-05
-4.56805e-18
1.44467e-21
-1.28845e-18
5.33936e-21
3.6982e-05
-4.57231e-18
1.4131e-21
-1.28088e-18
5.22777e-21
3.72501e-05
-4.56225e-18
1.38178e-21
-1.29726e-18
5.11157e-21
3.75201e-05
-4.55012e-18
1.34739e-21
-1.32218e-18
4.99582e-21
3.77921e-05
-4.54122e-18
1.30899e-21
-1.3383e-18
4.88235e-21
3.80659e-05
-4.52946e-18
1.26834e-21
-1.35861e-18
4.7698e-21
3.83417e-05
-4.52338e-18
1.22852e-21
-1.37967e-18
4.6597e-21
3.86194e-05
-4.50874e-18
1.19138e-21
-1.3899e-18
4.55234e-21
3.88992e-05
-4.50445e-18
1.15385e-21
-1.42267e-18
4.44412e-21
3.91809e-05
-4.50319e-18
1.11878e-21
-1.43788e-18
4.34095e-21
3.94646e-05
-4.49605e-18
1.08661e-21
-1.4505e-18
4.23761e-21
3.97503e-05
-4.49388e-18
1.05712e-21
-1.46063e-18
4.13209e-21
4.00381e-05
-4.48723e-18
1.03092e-21
-1.46509e-18
4.02654e-21
4.03279e-05
-4.48012e-18
1.00965e-21
-1.48239e-18
3.91815e-21
4.06199e-05
-4.474e-18
9.89061e-22
-1.4936e-18
3.81517e-21
4.09139e-05
-4.47459e-18
9.70298e-22
-1.50588e-18
3.71255e-21
4.121e-05
-4.47187e-18
9.55594e-22
-1.51291e-18
3.61589e-21
4.15083e-05
-4.46456e-18
9.38846e-22
-1.52263e-18
3.52194e-21
4.18087e-05
-4.4566e-18
9.18414e-22
-1.53825e-18
3.43163e-21
4.21113e-05
-4.45645e-18
8.96759e-22
-1.5314e-18
3.34704e-21
4.24161e-05
-4.45415e-18
8.77154e-22
-1.53415e-18
3.26471e-21
4.2723e-05
-4.44854e-18
8.5655e-22
-1.52951e-18
3.18323e-21
4.30322e-05
-4.44408e-18
8.35753e-22
-1.53319e-18
3.10035e-21
4.33437e-05
-4.44229e-18
8.13773e-22
-1.53813e-18
3.01876e-21
4.36574e-05
-4.43804e-18
7.9103e-22
-1.54148e-18
2.93753e-21
4.39733e-05
-4.44821e-18
7.6875e-22
-1.54132e-18
2.85613e-21
4.42916e-05
-4.44319e-18
7.52982e-22
-1.54873e-18
2.77251e-21
4.46121e-05
-4.4433e-18
7.34717e-22
-1.55059e-18
2.68986e-21
4.4935e-05
-4.43907e-18
7.17589e-22
-1.55193e-18
2.61099e-21
4.52602e-05
-4.43754e-18
6.97484e-22
-1.54311e-18
2.53337e-21
4.55878e-05
-4.44214e-18
6.81204e-22
-1.53867e-18
2.45551e-21
4.59178e-05
-4.43912e-18
6.66788e-22
-1.53934e-18
2.38035e-21
4.62502e-05
-4.44089e-18
6.48353e-22
-1.54019e-18
2.31314e-21
4.65849e-05
-4.43936e-18
6.27907e-22
-1.54609e-18
2.25197e-21
4.69222e-05
-4.4393e-18
6.06343e-22
-1.55758e-18
2.19651e-21
4.72618e-05
-4.44143e-18
5.83371e-22
-1.55798e-18
2.14905e-21
4.7604e-05
-4.44116e-18
5.56763e-22
-1.55662e-18
2.10473e-21
4.79486e-05
-4.44023e-18
5.23957e-22
-1.55967e-18
2.06959e-21
4.82957e-05
-4.45582e-18
4.88004e-22
-1.54671e-18
2.03622e-21
4.86454e-05
-4.45286e-18
4.53809e-22
-1.55104e-18
2.00833e-21
4.89976e-05
-4.45381e-18
4.20288e-22
-1.54182e-18
1.98948e-21
4.93524e-05
-4.45764e-18
3.8867e-22
-1.53974e-18
1.96967e-21
4.97097e-05
-4.45998e-18
3.60486e-22
-1.53767e-18
1.95144e-21
5.00697e-05
-4.45972e-18
3.34926e-22
-1.53575e-18
1.93981e-21
5.04323e-05
-4.45965e-18
3.10068e-22
-1.51787e-18
1.93079e-21
5.07975e-05
-4.4636e-18
2.87785e-22
-1.51642e-18
1.91087e-21
5.11654e-05
-4.4696e-18
2.64994e-22
-1.50667e-18
1.89011e-21
5.15359e-05
-4.46652e-18
2.46456e-22
-1.50277e-18
1.86468e-21
5.19092e-05
-4.46629e-18
2.259e-22
-1.49907e-18
1.84129e-21
5.22852e-05
-4.4636e-18
2.08782e-22
-1.49946e-18
1.81638e-21
5.26639e-05
-4.46425e-18
1.94567e-22
-1.47961e-18
1.79456e-21
5.30454e-05
-4.46331e-18
1.82685e-22
-1.47685e-18
1.76829e-21
5.34297e-05
-4.46577e-18
1.6921e-22
-1.47566e-18
1.73948e-21
5.38168e-05
-4.4793e-18
1.52227e-22
-1.46041e-18
1.71167e-21
5.42067e-05
-4.48244e-18
1.35703e-22
-1.43828e-18
1.67941e-21
5.45994e-05
-4.48976e-18
1.1611e-22
-1.43779e-18
1.63737e-21
5.4995e-05
-4.49651e-18
9.27044e-23
-1.43257e-18
1.59742e-21
5.53935e-05
-4.49552e-18
6.69798e-23
-1.4285e-18
1.55097e-21
5.57949e-05
-4.503e-18
3.15034e-23
-1.42154e-18
1.50167e-21
5.61993e-05
-4.5003e-18
-3.90534e-24
-1.4173e-18
1.45945e-21
5.66065e-05
-4.50454e-18
-4.61781e-23
-1.4013e-18
1.42062e-21
5.70168e-05
-4.51965e-18
-9.76954e-23
-1.40177e-18
1.38485e-21
5.743e-05
-4.52752e-18
-1.46115e-22
-1.41691e-18
1.36275e-21
5.78463e-05
-4.53204e-18
-1.8751e-22
-1.42356e-18
1.35185e-21
5.82656e-05
-4.53391e-18
-2.30121e-22
-1.41133e-18
1.34412e-21
5.8688e-05
-4.54902e-18
-2.70397e-22
-1.41328e-18
1.33038e-21
5.91135e-05
-4.55546e-18
-3.00102e-22
-1.41146e-18
1.32018e-21
5.9542e-05
-4.55921e-18
-3.32655e-22
-1.41325e-18
1.31247e-21
5.99737e-05
-4.55952e-18
-3.65149e-22
-1.41703e-18
1.30192e-21
6.04086e-05
-4.559e-18
-3.96859e-22
-1.41696e-18
1.29898e-21
6.08466e-05
-4.55834e-18
-4.25451e-22
-1.40121e-18
1.3099e-21
6.12878e-05
-4.54719e-18
-4.58978e-22
-1.42154e-18
1.31664e-21
6.17323e-05
-4.5264e-18
-4.9607e-22
-1.45107e-18
1.32522e-21
6.218e-05
-4.53464e-18
-5.41946e-22
-1.47717e-18
1.33824e-21
6.2631e-05
-4.52156e-18
-5.73459e-22
-1.49845e-18
1.35846e-21
6.30853e-05
-4.51276e-18
-5.97875e-22
-1.49147e-18
1.36996e-21
6.35429e-05
-4.5025e-18
-6.17606e-22
-1.50392e-18
1.37507e-21
6.40038e-05
-4.503e-18
-6.2724e-22
-1.51283e-18
1.37707e-21
6.44681e-05
-4.49748e-18
-6.49663e-22
-1.50854e-18
1.39015e-21
6.49359e-05
-4.50604e-18
-6.73645e-22
-1.50516e-18
1.39664e-21
6.5407e-05
-4.47302e-18
-6.86413e-22
-1.54115e-18
1.38802e-21
6.58816e-05
-4.48432e-18
-7.19323e-22
-1.52971e-18
1.39635e-21
6.63597e-05
-4.47252e-18
-7.32495e-22
-1.54857e-18
1.39772e-21
6.68412e-05
-4.45666e-18
-7.53066e-22
-1.55279e-18
1.39761e-21
6.73263e-05
-4.45215e-18
-7.69679e-22
-1.56107e-18
1.3989e-21
6.7815e-05
-4.44614e-18
-7.87151e-22
-1.5537e-18
1.38383e-21
6.83072e-05
-4.45128e-18
-7.93487e-22
-1.57272e-18
1.35369e-21
6.8803e-05
-4.43726e-18
-7.90216e-22
-1.57991e-18
1.33734e-21
6.93025e-05
-4.43591e-18
-7.64485e-22
-1.59872e-18
1.29491e-21
6.98056e-05
-4.43338e-18
-7.28846e-22
-1.59793e-18
1.25034e-21
7.03124e-05
-4.42768e-18
-6.88005e-22
-1.60458e-18
1.18414e-21
7.0823e-05
-4.42997e-18
-6.39349e-22
-1.61142e-18
1.11565e-21
7.13373e-05
-4.42459e-18
-5.75696e-22
-1.62646e-18
1.04227e-21
7.18553e-05
-4.42516e-18
-5.02746e-22
-1.62662e-18
9.7345e-22
7.23771e-05
-4.42255e-18
-4.27651e-22
-1.6344e-18
8.92104e-22
7.29028e-05
-4.42128e-18
-3.45346e-22
-1.66221e-18
7.8927e-22
7.34323e-05
-4.41225e-18
-2.64378e-22
-1.67197e-18
7.00716e-22
7.39657e-05
-4.40707e-18
-1.83197e-22
-1.65937e-18
6.01878e-22
7.45031e-05
-4.40991e-18
-9.29707e-23
-1.68042e-18
4.7627e-22
7.50443e-05
-4.39884e-18
1.45112e-23
-1.69807e-18
3.56107e-22
7.55896e-05
-4.39449e-18
1.36904e-22
-1.70182e-18
2.57038e-22
7.61388e-05
-4.3968e-18
2.67976e-22
-1.70204e-18
1.63195e-22
7.66921e-05
-4.39369e-18
4.0747e-22
-1.71677e-18
7.17134e-23
7.72495e-05
-4.38468e-18
5.6028e-22
-1.71993e-18
-2.17429e-23
7.78109e-05
-4.37146e-18
6.97697e-22
-1.7247e-18
-1.17887e-22
7.83765e-05
-4.35518e-18
8.10423e-22
-1.76025e-18
-1.94934e-22
7.89462e-05
-4.35497e-18
8.83099e-22
-1.77278e-18
-2.09515e-22
7.95201e-05
-4.35051e-18
9.33275e-22
-1.77138e-18
-2.02599e-22
8.00982e-05
-4.36175e-18
9.51788e-22
-1.76292e-18
-1.80199e-22
8.06806e-05
-4.34837e-18
9.63862e-22
-1.77019e-18
-1.52776e-22
8.12672e-05
-4.34483e-18
9.4213e-22
-1.77935e-18
-1.07209e-22
8.18582e-05
-4.32306e-18
9.12289e-22
-1.79172e-18
9.08948e-25
8.24535e-05
-4.3368e-18
8.50159e-22
-1.77318e-18
1.47117e-22
8.30532e-05
-4.35089e-18
7.95314e-22
-1.77961e-18
2.83329e-22
8.36573e-05
-4.36462e-18
7.61147e-22
-1.77076e-18
4.47458e-22
8.42658e-05
-4.38578e-18
7.3586e-22
-1.7519e-18
6.20125e-22
8.48789e-05
-4.3943e-18
7.41116e-22
-1.74289e-18
7.88504e-22
8.54964e-05
-4.40896e-18
7.52767e-22
-1.71884e-18
9.37318e-22
8.61185e-05
-4.4185e-18
7.80402e-22
-1.71198e-18
1.03907e-21
8.67452e-05
-4.42238e-18
8.0356e-22
-1.71045e-18
1.13732e-21
8.73765e-05
-4.42933e-18
8.21889e-22
-1.70245e-18
1.24706e-21
8.80124e-05
-4.43301e-18
8.61681e-22
-1.69663e-18
1.35759e-21
8.8653e-05
-4.4354e-18
9.01833e-22
-1.69516e-18
1.4524e-21
8.92983e-05
-4.4311e-18
9.31991e-22
-1.69601e-18
1.56715e-21
8.99484e-05
-4.40816e-18
9.27106e-22
-1.70862e-18
1.7137e-21
9.06033e-05
-4.43098e-18
8.90408e-22
-1.70984e-18
1.83941e-21
9.1263e-05
-4.41842e-18
8.5935e-22
-1.70948e-18
1.95474e-21
9.19276e-05
-4.41424e-18
7.64555e-22
-1.68084e-18
2.07622e-21
9.25971e-05
-4.43123e-18
6.1511e-22
-1.68433e-18
2.18097e-21
9.32715e-05
-4.42299e-18
4.63589e-22
-1.65686e-18
2.29347e-21
9.39509e-05
-4.43466e-18
2.84108e-22
-1.66602e-18
2.35423e-21
9.46353e-05
-4.44043e-18
1.16679e-22
-1.66449e-18
2.43683e-21
9.53247e-05
-4.46887e-18
-5.68283e-23
-1.64344e-18
2.55495e-21
9.60193e-05
-4.44876e-18
-1.80374e-22
-1.64587e-18
2.62208e-21
9.67189e-05
-4.45857e-18
-3.24921e-22
-1.62702e-18
2.65865e-21
9.74238e-05
-4.4645e-18
-4.5354e-22
-1.64504e-18
2.62089e-21
9.81338e-05
-4.46701e-18
-5.93e-22
-1.64848e-18
2.62357e-21
9.88491e-05
-4.47288e-18
-7.25676e-22
-1.62378e-18
2.61863e-21
9.95696e-05
-4.46387e-18
-8.71175e-22
-1.62245e-18
2.53352e-21
0.000100295
-4.46536e-18
-1.05233e-21
-1.63728e-18
2.40331e-21
0.000101027
-4.46077e-18
-1.21219e-21
-1.62869e-18
2.33548e-21
0.000101763
-4.4952e-18
-1.40393e-21
-1.60375e-18
2.27079e-21
0.000102505
-4.49096e-18
-1.49437e-21
-1.60716e-18
2.12825e-21
0.000103253
-4.4443e-18
-1.56121e-21
-1.64406e-18
1.94021e-21
0.000104006
-4.44312e-18
-1.67059e-21
-1.65543e-18
1.77802e-21
0.000104765
-4.44211e-18
-1.74913e-21
-1.6542e-18
1.60452e-21
0.000105529
-4.43611e-18