/*--------------------------------*- C++ -*----------------------------------*\
| =========                 |                                                 |
| \\      /  F ield         | OpenFOAM: The Open Source CFD Toolbox           |
|  \\    /   O peration     | Version:  2106                                  |
|   \\  /    A nd           | Website:  www.openfoam.com                      |
|    \\/     M anipulation  |                                                 |
\*---------------------------------------------------------------------------*/
FoamFile
{
    version     2.0;
    format      ascii;
    arch        "LSB;label=32;scalar=64";
    class       volTensorField;
    location    "14000";
    object      grad(U);
}
// * * * * * * * * * * * * * * * * * * * * * * * * * * * * * * * * * * * * * //

dimensions      [0 0 -1 0 0 0 0];

internalField   nonuniform List<tensor> 
2560
(
(0 4.15781e-30 -8.98793e-27 51.2352 -1.44281e-11 -1.26218e-29 0.0741696 -1.04427e-14 -2.46519e-32)
(0 -2.0789e-30 -3.24829e-32 51.2352 -1.76795e-15 -2.26073e-18 0.0741696 -1.27065e-18 2.49595e-16)
(0 -7.51074e-25 4.8026e-32 51.2276 1.61562e-27 3.48838e-15 0.223565 0 -6.62002e-17)
(0 -4.09822e-30 -1.60087e-32 51.2276 -1.55814e-15 -5.79659e-18 0.223565 -2.99488e-18 4.9616e-16)
(-9.38945e-18 -2.56608e-26 -7.91053e-29 51.22 3.7829e-13 -6.4944e-16 0.307453 -1.12725e-15 -1.93524e-18)
(0 1.21184e-29 4.73377e-32 51.22 -1.53171e-15 -7.34308e-18 0.307453 -4.0624e-18 5.10651e-16)
(3.01093e-17 -1.88547e-29 -8.79731e-32 51.2124 1.03312e-12 -6.73068e-16 0.311877 -1.00135e-14 -6.23504e-18)
(0 1.59263e-29 6.22122e-32 51.2124 -1.76814e-15 -7.86882e-18 0.311877 -5.46484e-18 5.25555e-16)
(1.38082e-16 -2.35471e-29 -1.22641e-31 51.2047 5.40087e-16 -1.2401e-15 0.316364 -2.45353e-15 -8.9992e-18)
(0 1.96226e-29 1.07311e-31 51.2047 -1.896e-15 -8.09139e-18 0.316364 -7.26125e-18 5.40884e-16)
(2.08551e-16 -1.54105e-26 -8.66889e-32 51.1968 -3.45729e-14 -1.52383e-15 0.320914 -1.07582e-16 -9.97492e-18)
(5.79585e-16 1.93413e-29 6.04417e-32 51.1968 -1.92123e-15 -8.50102e-18 0.320914 -9.11811e-18 5.56651e-16)
(-9.40759e-17 -2.72966e-28 -3.01162e-33 51.1885 -1.36894e-27 -1.61783e-15 0.325526 0 -1.04585e-17)
(3.76304e-16 1.90641e-29 5.95754e-32 51.1885 -1.9967e-15 -8.47826e-18 0.325526 -1.12023e-17 5.72861e-16)
(-1.16015e-16 1.55923e-29 5.66944e-32 51.1796 3.04725e-15 -1.66779e-15 0.330199 -3.01778e-17 -1.09117e-17)
(4.64061e-16 -3.75818e-30 0 51.1796 -2.08444e-15 -9.07592e-18 0.330199 -1.30417e-17 5.89528e-16)
(6.59607e-16 -1.91378e-29 -1.14748e-31 51.1695 9.52091e-16 -1.70593e-15 0.33493 -8.70737e-18 -1.12642e-17)
(0 2.22259e-29 8.68199e-32 51.1695 -2.16032e-15 -9.65417e-18 0.33493 -1.5353e-17 6.06649e-16)
(-2.56932e-16 1.09537e-29 2.85252e-32 51.1575 7.88565e-16 -1.72839e-15 0.339713 -3.63117e-18 -1.15297e-17)
(0 0 0 51.1575 -2.0937e-15 -1.11128e-17 0.339713 -1.73869e-17 6.24235e-16)
(-1.8375e-16 -1.72726e-29 -8.32597e-32 51.1427 1.33944e-15 -1.74009e-15 0.344541 -6.79035e-18 -1.17519e-17)
(0 2.51922e-29 1.12465e-31 51.1427 -2.09368e-15 -1.29465e-17 0.344541 -1.89852e-17 6.42268e-16)
(4.56602e-16 -3.62457e-29 -1.96154e-31 51.1236 1.40063e-15 -1.74618e-15 0.349404 -1.11611e-17 -1.19506e-17)
(-2.4962e-16 3.19258e-29 1.38567e-31 51.1236 -2.27793e-15 -1.30533e-17 0.349404 -2.12793e-17 6.60749e-16)
(0 -1.04894e-29 -5.46323e-32 51.0985 1.54235e-15 -1.74825e-15 0.354285 -7.82583e-18 -1.2125e-17)
(0 1.39859e-29 5.46323e-32 51.0985 -2.3032e-15 -1.31254e-17 0.354285 -2.39298e-17 6.79663e-16)
(-7.39487e-16 1.81045e-29 8.51149e-32 51.0649 2.05866e-15 -1.74416e-15 0.359166 -1.34538e-17 -1.22431e-17)
(1.01782e-15 -6.89271e-30 -2.69246e-32 51.0649 -2.41364e-15 -1.34191e-17 0.359166 -2.70062e-17 6.98983e-16)
(0 2.71757e-29 1.06155e-31 51.0199 2.32107e-15 -1.7325e-15 0.364021 -1.53207e-17 -1.23137e-17)
(0 -2.71757e-29 -1.06155e-31 51.0199 -2.75351e-15 -1.23051e-17 0.364021 -3.10534e-17 7.18664e-16)
(-3.03298e-16 4.31748e-30 3.27231e-32 50.9599 2.41757e-15 -1.71281e-15 0.368818 -1.75944e-17 -1.23166e-17)
(1.21319e-15 0 0 50.9599 -2.79988e-15 -9.67747e-18 0.368818 -3.57608e-17 7.38662e-16)
(0 2.64023e-29 1.28917e-31 50.8804 2.52799e-15 -1.68333e-15 0.373516 -1.71672e-17 -1.22411e-17)
(-1.31295e-15 -2.64023e-29 -1.28917e-31 50.8804 -2.94425e-15 -1.31578e-17 0.373516 -3.92466e-17 7.58904e-16)
(0 2.60238e-29 1.52483e-31 50.7761 2.32822e-15 -1.64158e-15 0.378068 -1.97325e-17 -1.2055e-17)
(-1.41409e-15 -2.60238e-29 -1.52483e-31 50.7761 -3.03557e-15 -1.49345e-17 0.378068 -4.40421e-17 7.7927e-16)
(9.02509e-16 -6.41271e-30 -7.5149e-32 50.6413 1.91172e-15 -1.58692e-15 0.382418 -1.46917e-17 -1.17729e-17)
(0 1.28254e-29 7.5149e-32 50.6413 -2.85975e-15 -1.56684e-17 0.382418 -4.76181e-17 7.99674e-16)
(4.05123e-16 1.46466e-29 8.76846e-32 50.4691 2.5443e-15 -1.51795e-15 0.386501 -1.40106e-17 -1.13498e-17)
(-1.62049e-15 -3.1604e-29 -1.72834e-31 50.4691 -3.17046e-15 -1.98115e-17 0.386501 -5.11192e-17 8.19949e-16)
(0 2.49208e-29 1.46021e-31 50.2525 3.23878e-15 -1.42997e-15 0.390247 -2.48295e-17 -1.07479e-17)
(0 -2.49208e-29 -1.46021e-31 50.2525 -3.40956e-15 -1.78067e-17 0.390247 -5.69717e-17 8.39924e-16)
(-4.58038e-16 -7.96911e-30 -3.46699e-32 49.9838 2.8184e-15 -1.32481e-15 0.393579 -2.52332e-17 -1.00213e-17)
(0 1.84227e-29 9.59518e-32 49.9838 -3.23413e-15 -1.7976e-17 0.393579 -6.112e-17 8.59447e-16)
(1.21879e-15 -3.80573e-29 -2.22047e-31 49.6555 2.47679e-15 -1.20387e-15 0.396418 -1.89169e-17 -9.12467e-18)
(0 4.23703e-29 2.60086e-31 49.6555 -3.30422e-15 -2.18976e-17 0.396418 -6.46607e-17 8.78305e-16)
(0 1.78984e-29 9.32211e-32 49.2604 2.72894e-15 -1.06473e-15 0.398685 -2.04982e-17 -8.05287e-18)
(-2.04859e-15 -2.38646e-29 -1.39832e-31 49.2604 -3.32918e-15 -2.36301e-17 0.398685 -6.98022e-17 8.96293e-16)
(5.39586e-16 2.50922e-29 1.21341e-31 48.792 2.52316e-15 -9.09712e-16 0.400305 -2.35703e-17 -6.83505e-18)
(0 -2.94032e-29 -1.60799e-31 48.792 -3.04998e-15 -2.82835e-17 0.400305 -7.47149e-17 9.13198e-16)
(-1.13447e-15 4.91973e-29 3.29286e-31 48.2451 2.55304e-15 -7.41288e-16 0.401211 -1.77046e-17 -5.47033e-18)
(0 -4.05745e-29 -2.49062e-31 48.2451 -2.97087e-15 -3.43642e-17 0.401211 -7.80623e-17 9.2875e-16)
(2.58924e-15 -4.72094e-29 -3.45319e-31 47.6159 3.44085e-15 -5.61541e-16 0.40135 -2.47608e-17 -3.98364e-18)
(4.76046e-15 3.99929e-29 2.45492e-31 47.6159 -3.33306e-15 -2.82441e-17 0.40135 -8.28935e-17 9.42753e-16)
(0 -2.81569e-29 -1.53983e-31 46.9029 4.01884e-15 -3.73037e-16 0.400683 -3.32959e-17 -2.38372e-18)
(2.492e-15 2.81569e-29 1.97979e-31 46.9029 -3.758e-15 -1.62721e-17 0.400683 -8.95537e-17 9.55076e-16)
(6.51009e-16 1.23456e-29 -8.34149e-31 46.1065 4.08781e-15 -1.65808e-16 0.39919 -3.54415e-17 -7.19135e-19)
(0 -1.11014e-29 -4.33647e-32 46.1065 -3.80795e-15 -1.71407e-17 0.39919 -9.48002e-17 9.65581e-16)
(-1.35806e-15 3.13972e-30 0 45.2295 3.69192e-15 0 0.396872 -3.54764e-17 0)
(-5.43224e-15 5.47112e-30 0 45.2295 -3.58973e-15 -2.79348e-17 0.396872 -1.01453e-16 9.74144e-16)
(-7.07002e-16 2.58761e-29 8.40423e-32 44.2769 3.26711e-15 2.0212e-16 0.393749 -2.94611e-17 -9.81582e-19)
(-2.82801e-15 -1.07854e-29 -4.21305e-32 44.2769 -3.47454e-15 -3.61846e-17 0.393749 -1.087e-16 9.80665e-16)
(-7.48078e-16 2.65771e-29 1.66107e-31 43.2556 2.91273e-15 3.78731e-16 0.389862 -2.88747e-17 -2.6396e-18)
(-2.19138e-15 -2.65771e-29 -1.66107e-31 43.2556 -3.36815e-15 -3.4396e-17 0.389862 -1.14347e-16 9.85115e-16)
(1.47471e-15 -2.61962e-29 -1.63726e-31 42.1744 2.65077e-15 5.39214e-16 0.385266 -2.38574e-17 -4.23317e-18)
(1.5755e-15 2.61962e-29 1.63726e-31 42.1744 -3.26282e-15 -3.19618e-17 0.385266 -1.19448e-16 9.87569e-16)
(-7.90013e-16 4.30332e-30 4.09411e-32 41.043 3.44985e-15 6.83938e-16 0.380032 -2.48708e-17 -5.68802e-18)
(0 5.16414e-30 4.03448e-32 41.043 -3.99431e-15 -3.2615e-17 0.380032 -1.26676e-16 9.88095e-16)
(-8.17187e-16 2.97506e-29 1.99554e-31 39.8721 4.5096e-15 8.15166e-16 0.374238 -3.95651e-17 -7.07548e-18)
(0 -2.54506e-29 -1.59066e-31 39.8721 -4.98267e-15 -2.35169e-17 0.374238 -1.33586e-16 9.86843e-16)
(-8.44025e-16 2.93835e-29 1.18374e-31 38.6724 4.62548e-15 9.27304e-16 0.36797 -4.57938e-17 -8.3553e-18)
(-3.3761e-15 -1.50515e-29 -7.83933e-32 38.6724 -5.17302e-15 -2.21406e-17 0.36797 -1.42848e-16 9.84026e-16)
(8.70482e-16 -2.40777e-29 -7.8079e-32 37.4545 4.70153e-15 1.01938e-15 0.361314 -4.29645e-17 -9.45071e-18)
(0 1.9781e-29 3.86349e-32 37.4545 -4.79935e-15 -2.28396e-17 0.361314 -1.52104e-16 9.79714e-16)
(2.26854e-15 -1.89175e-29 -1.53118e-31 36.2285 5.13464e-15 1.09264e-15 0.354354 -4.86269e-17 -1.0406e-17)
(-1.37202e-15 1.46231e-29 1.14243e-31 36.2285 -4.52957e-15 -2.32472e-17 0.354354 -1.62079e-16 9.74178e-16)
(-9.22104e-16 1.87057e-29 1.13362e-31 35.0038 5.13421e-15 1.14896e-15 0.347171 -5.28415e-17 -1.11854e-17)
(0 -9.60904e-30 -3.75353e-32 35.0038 -4.82619e-15 -2.97883e-17 0.347171 -1.74497e-16 9.67502e-16)
(0 2.36783e-29 1.10992e-31 33.7884 4.86418e-15 1.19061e-15 0.339841 -5.00428e-17 -1.18479e-17)
(0 -2.8414e-29 -1.47989e-31 33.7884 -4.76284e-15 -2.49675e-17 0.339841 -1.82971e-16 9.59904e-16)
(-9.71821e-16 1.82926e-29 7.35511e-32 32.5896 4.86407e-15 1.21737e-15 0.332429 -4.88586e-17 -1.2366e-17)
(2.57342e-15 -4.66779e-30 0 32.5896 -4.21353e-15 -2.28092e-17 0.332429 -1.88895e-16 9.51615e-16)
(0 -2.30044e-29 -1.43778e-31 31.4133 4.82828e-15 1.22884e-15 0.324997 -5.15063e-17 -1.27511e-17)
(3.98368e-15 2.30044e-29 1.43778e-31 31.4133 -4.86887e-15 -1.86217e-17 0.324997 -1.97412e-16 9.42722e-16)
(1.0195e-15 1.83877e-29 7.03984e-32 30.2644 4.62122e-15 1.22886e-15 0.317594 -4.95354e-17 -1.29701e-17)
(-4.07799e-15 -2.72097e-29 -1.41717e-31 30.2644 -5.07263e-15 -1.57394e-17 0.317594 -2.10438e-16 9.33465e-16)
(1.04255e-15 -2.21656e-29 -1.40073e-31 29.1467 4.2223e-15 1.22574e-15 0.310264 -4.85863e-17 -1.31251e-17)
(0 1.78798e-29 1.04764e-31 29.1467 -4.26865e-15 -2.36228e-17 0.310264 -2.17435e-16 9.23903e-16)
(-1.06508e-15 -1.2046e-31 2.92761e-34 28.0632 3.65396e-15 1.22037e-15 0.303043 -4.23299e-17 -1.32824e-17)
(0 8.81176e-30 6.88419e-32 28.0632 -3.96682e-15 -7.33825e-18 0.303043 -2.30581e-16 9.14076e-16)
(1.08709e-15 4.40054e-30 6.7672e-32 27.0158 3.07501e-15 1.20908e-15 0.29596 -3.74975e-17 -1.33912e-17)
(3.12601e-15 0 -6.78552e-32 27.0158 -2.71824e-15 -2.96079e-18 0.29596 -2.4222e-16 9.04309e-16)
(0 -8.56098e-30 -3.34413e-32 26.0059 2.10749e-15 1.18999e-15 0.289036 -3.06388e-17 -1.34195e-17)
(4.43437e-15 1.28415e-29 3.34413e-32 26.0059 -2.10204e-15 -1.47077e-17 0.289036 -2.45231e-16 8.94376e-16)
(-1.12958e-15 6.72062e-32 3.29151e-32 25.0343 1.79886e-15 1.1666e-15 0.28229 -1.66718e-17 -1.33508e-17)
(0 1.26574e-29 0 25.0343 -2.8151e-15 -1.17775e-17 0.28229 -2.50421e-16 8.84519e-16)
(-1.15008e-15 1.25574e-31 3.233e-32 24.1009 2.29717e-15 1.14394e-15 0.275734 -2.44409e-17 -1.32749e-17)
(0 1.2476e-29 3.24896e-32 24.1009 -2.52243e-15 -1.28429e-17 0.275734 -2.55035e-16 8.74844e-16)
(1.15378e-15 -1.22972e-29 -9.60718e-32 23.2057 2.62777e-15 1.11453e-15 0.269377 -2.87829e-17 -1.32133e-17)
(0 1.63963e-29 9.60718e-32 23.2057 -1.90505e-15 -2.20072e-17 0.269377 -2.56289e-16 8.65357e-16)
(-2.32689e-15 2.41543e-31 3.11958e-32 22.3481 3.27107e-15 1.08279e-15 0.263223 -3.29799e-17 -1.29678e-17)
(0 1.61613e-29 6.31299e-32 22.3481 -2.79324e-15 -2.38697e-17 0.263223 -2.59953e-16 8.5596e-16)
(-1.12095e-15 2.38944e-29 1.2445e-31 21.5273 3.57531e-15 1.05538e-15 0.257275 -4.50698e-17 -1.28385e-17)
(-4.83493e-15 -1.9912e-29 -1.2445e-31 21.5273 -2.93217e-15 -1.6972e-17 0.257275 -2.70809e-16 8.46827e-16)
(-1.22738e-15 -1.92733e-29 -9.25839e-32 20.7422 3.7496e-15 1.02661e-15 0.251534 -4.13561e-17 -1.26798e-17)
(3.80464e-15 2.3552e-29 1.38e-31 20.7422 -2.33729e-15 -2.81762e-17 0.251534 -2.76457e-16 8.37927e-16)
(0 2.32144e-29 1.36022e-31 19.9917 3.84446e-15 1.00107e-15 0.245997 -5.0697e-17 -1.25037e-17)
(0 -2.32144e-29 -1.36022e-31 19.9917 -3.28279e-15 -2.12989e-17 0.245997 -2.81972e-16 8.29204e-16)
(-1.26341e-15 1.953e-29 1.0348e-31 19.2746 2.99806e-15 9.77681e-16 0.240663 -4.49457e-17 -1.24111e-17)
(5.05365e-15 -1.52545e-29 -7.44846e-32 19.2746 -2.86154e-15 -1.49761e-17 0.240663 -2.86171e-16 8.2091e-16)
(3.6197e-15 -2.35886e-29 -1.00957e-31 18.5896 3.17102e-15 9.49215e-16 0.235526 -3.06544e-17 -1.22751e-17)
(4.06525e-15 1.50358e-29 4.40502e-32 18.5896 -2.20358e-15 -3.48679e-17 0.235526 -2.86887e-16 8.12807e-16)
(0 -7.41016e-30 -5.78919e-32 17.9352 3.92769e-15 9.2077e-16 0.230582 -5.07255e-17 -1.20401e-17)
(0 1.11152e-29 7.23648e-32 17.9352 -3.81492e-15 -5.03083e-17 0.230582 -2.93446e-16 8.04908e-16)
(-1.31451e-15 -3.0333e-30 -1.53616e-32 17.3103 3.80238e-15 8.95165e-16 0.225826 -5.13615e-17 -1.189e-17)
(0 1.46079e-29 7.13276e-32 17.3103 -4.37891e-15 -4.36612e-17 0.225826 -3.0484e-16 7.97142e-16)
(-2.66164e-15 3.01363e-29 1.10124e-31 16.7133 4.00582e-15 8.73146e-16 0.221251 -4.88831e-17 -1.17127e-17)
(5.32327e-15 -2.51974e-29 -7.03053e-32 16.7133 -3.88524e-15 -3.95931e-17 0.221251 -3.15152e-16 7.89727e-16)
(-1.34678e-15 7.81379e-30 2.6426e-32 16.1431 4.95384e-15 8.53737e-16 0.216852 -5.8348e-17 -1.16449e-17)
(0 3.54804e-30 2.77191e-32 16.1431 -4.3171e-15 -3.54321e-17 0.216852 -3.2634e-16 7.82437e-16)
(-1.36242e-15 -6.23095e-30 -1.41147e-33 15.5983 5.65053e-15 8.34597e-16 0.212622 -7.62321e-17 -1.15253e-17)
(5.44966e-15 1.74859e-29 6.83045e-32 15.5983 -4.06651e-15 -1.2259e-17 0.212622 -3.38511e-16 7.75457e-16)
(-1.37773e-15 1.80461e-29 6.57755e-32 15.0776 5.20132e-15 8.14055e-16 0.208554 -7.93803e-17 -1.14552e-17)
(0 -6.89413e-30 -1.34651e-32 15.0776 -5.08102e-15 -1.03441e-17 0.208554 -3.43942e-16 7.68785e-16)
(-2.7855e-15 2.89015e-29 1.02805e-31 14.5799 4.1114e-15 7.93134e-16 0.204642 -6.58248e-17 -1.12848e-17)
(-5.57099e-15 -2.0386e-29 -5.30884e-32 14.5799 -4.34117e-15 7.85798e-18 0.204642 -3.65212e-16 7.62189e-16)
(-2.81494e-15 -1.15766e-29 -2.98015e-32 14.104 2.28447e-15 7.72164e-16 0.200879 -5.05906e-17 -1.11935e-17)
(1.12598e-14 2.00938e-29 6.54094e-32 14.104 -4.86307e-16 4.71199e-18 0.200879 -3.78541e-16 7.56257e-16)
(-4.26573e-15 4.57995e-29 1.74655e-31 13.6488 -2.10022e-16 7.48422e-16 0.197261 -2.12265e-17 -1.10081e-17)
(-5.68764e-15 -3.30096e-29 -1.03155e-31 13.6488 8.45783e-16 -3.3622e-17 0.197261 -3.78718e-16 7.50162e-16)
(2.2272e-15 -1.66122e-29 -4.01926e-32 13.2132 -5.76756e-28 7.24251e-16 0.193779 0 -1.08237e-17)
(2.08104e-15 2.60292e-29 8.8967e-32 13.2132 6.92155e-16 -3.32668e-17 0.193779 -3.77202e-16 7.44173e-16)
(1.44999e-15 -2.35096e-29 -4.79701e-32 12.7963 1.56052e-16 7.1044e-16 0.190429 -1.91468e-18 -1.061e-17)
(0 1.92421e-29 2.50548e-32 12.7963 1.99797e-16 -5.80986e-18 0.190429 -3.6755e-16 7.3863e-16)
(0 -2.45248e-29 -8.64351e-32 12.3971 3.64672e-16 6.961e-16 0.187205 -2.77729e-18 -1.07231e-17)
(5.85462e-15 1.89663e-29 8.64351e-32 12.3971 -1.00251e-16 4.32107e-19 0.187205 -3.61012e-16 7.33554e-16)
(0 -2.24137e-29 -2.43418e-32 12.0146 1.68927e-15 6.81198e-16 0.184101 -1.30523e-17 -1.04807e-17)
(5.9083e-15 1.2463e-29 2.43418e-32 12.0146 -8.62435e-16 5.45222e-18 0.184101 -3.59354e-16 7.28741e-16)
(-3.45774e-15 2.45687e-29 3.59893e-32 11.6481 3.0696e-15 6.77548e-16 0.181112 -5.33706e-17 -1.05733e-17)
(5.96106e-15 -6.14218e-30 0 11.6481 -2.03268e-15 9.22299e-18 0.181112 -3.66976e-16 7.24501e-16)
(0 2.42166e-29 5.91226e-32 11.2966 2.36279e-15 6.64111e-16 0.178233 -4.28028e-17 -1.06725e-17)
(0 -2.42166e-29 -5.91226e-32 11.2966 -2.32617e-15 -1.67062e-17 0.178233 -3.77441e-16 7.20369e-16)
(-3.03197e-15 2.55056e-30 1.83026e-32 10.9595 2.45339e-15 6.44589e-16 0.175458 -3.22857e-17 -1.04524e-17)
(0 5.96738e-30 2.33101e-32 10.9595 -1.95831e-15 -3.75731e-17 0.175458 -3.84907e-16 7.16295e-16)
(0 -2.35274e-29 -6.89279e-32 10.636 3.13146e-15 6.308e-16 0.172785 -4.70019e-17 -1.03505e-17)
(6.11412e-15 2.35274e-29 6.89279e-32 10.636 -1.28615e-15 -3.70433e-17 0.172785 -3.85998e-16 7.12321e-16)
(0 1.15951e-29 2.26467e-32 10.3255 2.74674e-15 6.22022e-16 0.170207 -5.55953e-17 -1.03038e-17)
(2.89978e-15 0 -1.13233e-32 10.3255 -1.8852e-15 -2.02093e-17 0.170207 -3.84157e-16 7.08644e-16)
(-1.55303e-15 9.96788e-30 2.97157e-32 10.0272 2.41308e-15 6.0941e-16 0.16772 -3.55055e-17 -1.92925e-17)
(0 5.71445e-30 0 10.0272 -2.19828e-15 -1.52839e-17 0.16772 -3.89777e-16 7.0533e-16)
(1.565e-15 7.01344e-30 1.64139e-32 9.7406 3.28941e-15 5.91235e-16 0.165321 -4.5897e-17 -3.13893e-17)
(-1.58542e-15 -5.63255e-30 -1.10011e-32 9.7406 -1.46538e-15 -4.41347e-17 0.165321 -3.95562e-16 7.0227e-16)
(0 -5.55182e-30 -1.08434e-32 9.4651 2.95859e-15 5.83384e-16 0.163007 -6.67277e-17 -4.40479e-17)
(0 1.11036e-29 1.08434e-32 9.4651 -2.23705e-15 -4.21977e-17 0.163007 -3.93653e-16 6.98948e-16)
(3.0806e-15 -1.09445e-29 -1.0688e-32 9.20015 9.76919e-16 5.76681e-16 0.160772 -3.56819e-17 -5.64635e-17)
(0 1.64168e-29 3.2064e-32 9.20015 -3.28693e-15 -2.23538e-18 0.160772 -4.02664e-16 6.95965e-16)
(-1.68152e-15 1.4013e-45 -1.04912e-32 8.94524 -4.25555e-30 5.58896e-16 0.158613 5.90576e-46 -6.91281e-17)
(0 2.15753e-29 3.16044e-32 8.94524 -2.90462e-15 3.10377e-18 0.158613 -4.12111e-16 6.93494e-16)
(-1.61117e-15 2.55165e-29 3.96604e-32 8.69988 2.75868e-15 5.44561e-16 0.156529 -2.96431e-17 -8.22278e-17)
(0 -2.1266e-29 -3.11514e-32 8.69988 -2.73245e-15 -9.35509e-19 0.156529 -4.20959e-16 6.91305e-16)
(1.62231e-15 9.97988e-31 -6.51647e-33 8.46363 3.88313e-15 5.36704e-16 0.154514 -7.0587e-17 -9.47934e-17)
(-6.48923e-15 -5.24031e-30 0 8.46363 -3.49655e-15 -2.39953e-17 0.154514 -4.33666e-16 6.8919e-16)
(1.45388e-15 -1.54956e-29 -3.02649e-32 8.23605 3.64165e-15 5.28189e-16 0.152566 -7.21376e-17 -1.0821e-16)
(-6.5332e-15 1.54956e-29 3.02649e-32 8.23605 -3.10325e-15 -5.95681e-17 0.152566 -4.53573e-16 6.8701e-16)
(-1.64415e-15 2.96944e-29 3.22724e-32 8.01673 4.78882e-15 5.21365e-16 0.150683 -6.35855e-17 -1.20817e-16)
(1.31532e-14 -1.52735e-29 -9.9437e-33 8.01673 -2.87323e-15 -2.77976e-17 0.150683 -4.65242e-16 6.84578e-16)
(1.65486e-15 2.08635e-29 2.89418e-32 7.80529 6.63209e-15 5.21644e-16 0.148862 -1.17962e-16 -1.33245e-16)
(6.61942e-15 -3.01092e-29 -3.92047e-32 7.80529 -5.21322e-15 1.80458e-17 0.148862 -4.76443e-16 6.82774e-16)
(0 4.94628e-30 9.66071e-33 7.60137 5.89764e-15 5.21568e-16 0.147099 -1.36705e-16 -1.34576e-16)
(0 4.94628e-30 0 7.60137 -4.98434e-15 -5.2639e-19 0.147099 -5.15962e-16 6.81267e-16)
(-1.67587e-15 -2.50287e-29 -1.90445e-32 7.40461 4.07802e-15 5.18073e-16 0.145394 -9.26125e-17 -1.32435e-16)
(6.7035e-15 2.92523e-29 2.85667e-32 7.40461 -3.27271e-15 -2.34027e-17 0.145394 -5.27204e-16 6.79587e-16)
(-1.68619e-15 2.34465e-29 9.38576e-33 7.21471 3.81326e-15 5.12155e-16 0.143742 -6.83065e-17 -1.29976e-16)
(-9.45003e-15 -9.61102e-30 0 7.21471 -3.85984e-15 -2.75831e-17 0.143742 -5.34529e-16 6.77805e-16)
(1.69639e-15 -1.36923e-29 -9.25124e-33 7.03134 3.29172e-15 5.06168e-16 0.142143 -8.46372e-17 -1.27829e-16)
(6.78555e-15 9.47327e-30 9.25124e-33 7.03134 -3.08717e-15 -2.63538e-17 0.142143 -5.54807e-16 6.76233e-16)
(-1.70647e-15 2.28978e-29 2.73559e-32 6.85422 2.4082e-15 4.89235e-16 0.140593 -4.89472e-17 -1.25182e-16)
(6.82586e-15 -1.8675e-29 -2.73559e-32 6.85422 -2.36106e-15 -3.34377e-18 0.140593 -5.58987e-16 6.74433e-16)
(-1.71643e-15 4.22228e-30 0 6.68308 3.11019e-15 4.66733e-16 0.139092 -5.04053e-17 -1.22634e-16)
(0 0 0 6.68308 -3.44047e-15 -3.70001e-17 0.139092 -5.72728e-16 6.72767e-16)
(-1.72628e-15 8.75192e-30 0 6.51765 3.34648e-15 4.5763e-16 0.137636 -7.99737e-17 -1.20605e-16)
(0 4.53588e-30 8.85913e-33 6.51765 -3.69452e-15 -6.02485e-17 0.137636 -5.86265e-16 6.70325e-16)
(-1.73603e-15 -1.81377e-29 -4.36608e-33 6.35768 1.87443e-15 4.57214e-16 0.136225 -6.19879e-17 -1.18088e-16)
(4.42725e-15 2.23543e-29 1.30982e-32 6.35768 -2.7972e-15 -2.40469e-17 0.136225 -5.94166e-16 6.67863e-16)
(1.74567e-15 -5.08002e-29 -4.3035e-33 6.20295 1.68802e-15 4.56693e-16 0.134857 -1.84432e-17 -1.15194e-16)
(0 1.32204e-29 4.3035e-33 6.20295 -2.59428e-15 -4.16111e-17 0.134857 -6.04947e-16 6.65357e-16)
(2.44524e-15 -1.30309e-29 -8.48365e-33 6.05323 2.59183e-15 4.4859e-16 0.133529 -9.41351e-17 -1.12091e-16)
(0 1.30309e-29 1.27255e-32 6.05323 -3.8553e-15 -6.48338e-17 0.133529 -6.11286e-16 6.62479e-16)
(-1.76466e-15 -1.6433e-29 0 5.90832 1.80074e-15 4.45085e-16 0.132241 -2.02511e-17 -1.08771e-16)
(0 1.71255e-29 4.18103e-33 5.90832 -4.16843e-15 -5.30569e-17 0.132241 -6.28289e-16 6.5943e-16)
(0 -4.22001e-29 -1.23633e-32 5.768 5.36885e-15 4.48235e-16 0.13099 -1.05436e-16 -1.05061e-16)
(1.41921e-14 4.22001e-29 1.64844e-32 5.768 -3.35263e-15 -1.11821e-17 0.13099 -6.51488e-16 6.56271e-16)
(-2.3416e-15 8.31905e-30 0 5.6321 6.52147e-15 4.42454e-16 0.129776 -1.39836e-16 -1.00674e-16)
(7.13306e-15 4.15952e-30 4.06204e-33 5.6321 -4.26628e-15 4.22197e-17 0.129776 -6.73002e-16 6.53252e-16)
(-1.79243e-15 2.46856e-29 1.20114e-32 5.50043 6.35557e-15 4.44006e-16 0.128597 -1.62281e-16 -9.6261e-17)
(-9.47778e-15 -2.04995e-29 -8.00763e-33 5.50043 -5.56224e-15 -1.49918e-17 0.128597 -6.99582e-16 6.50831e-16)
(-1.80152e-15 1.63084e-29 3.94643e-33 5.37282 4.73589e-15 4.48856e-16 0.127452 -1.36082e-16 -9.21188e-17)
(-7.20607e-15 -8.08229e-30 0 5.37282 -4.9144e-15 -4.30861e-17 0.127452 -7.15898e-16 6.4775e-16)
(2.24236e-15 1.19497e-29 3.88987e-33 5.2491 4.77411e-15 4.46147e-16 0.126339 -8.92834e-17 -8.77287e-17)
(-2.24236e-15 -3.98323e-30 0 5.2491 -2.49481e-15 -1.44667e-17 0.126339 -7.22106e-16 6.45518e-16)
(0 7.85227e-30 0 5.12914 5.74776e-15 4.58951e-16 0.125258 -1.41929e-16 -8.29589e-17)
(7.27773e-15 0 0 5.12914 -2.5463e-15 -5.33565e-17 0.125258 -7.26966e-16 6.42555e-16)
(-3.50271e-16 2.29216e-29 3.77916e-33 5.01277 5.17168e-15 4.66981e-16 0.124207 -1.40008e-16 -7.68992e-17)
(0 -2.32192e-29 0 5.01277 -5.11833e-15 -6.01591e-17 0.124207 -7.46624e-16 6.38807e-16)
(-2.14732e-15 -4.57728e-29 9.3125e-33 4.89986 4.53135e-15 4.5254e-16 0.123185 -1.17209e-16 -7.1199e-17)
(1.68435e-14 4.57728e-29 1.76277e-31 4.89986 -5.59381e-15 1.39653e-29 0.123185 -7.79576e-16 6.35104e-16)
(0 -1.50389e-29 1.83581e-33 4.79027 4.14635e-15 4.52872e-16 0.122191 -1.11543e-16 -6.59677e-17)
(1.68823e-14 1.87986e-29 -3.67161e-33 4.79027 -6.74396e-15 3.5734e-17 0.122191 -8.0216e-16 6.32252e-16)
(-3.70866e-15 8.32065e-30 0 4.68388 3.78832e-15 4.66727e-16 0.121224 -1.00777e-16 -5.98552e-17)
(0 0 0 4.68388 -7.07311e-15 3.55529e-19 0.121224 -8.45193e-16 6.29804e-16)
(-1.86287e-15 7.80913e-30 0 4.58057 4.42082e-15 4.87416e-16 0.120283 -9.60681e-17 -5.3801e-17)
(1.4903e-14 3.65273e-30 -2.89828e-33 4.58057 -5.57117e-15 -1.48723e-17 0.120283 -8.84744e-16 6.26648e-16)
(1.87134e-15 -1.49459e-29 7.91098e-33 4.48021 4.76973e-15 5.06846e-16 0.119368 -1.37321e-16 -4.66344e-17)
(0 1.08011e-29 -7.91098e-33 4.48021 -5.79031e-15 -1.43963e-17 0.119368 -9.14973e-16 6.23775e-16)
(-1.87975e-15 7.69396e-30 -1.7328e-33 4.38271 4.84448e-15 4.96466e-16 0.118477 -1.17682e-16 -3.8765e-17)
(0 3.54877e-30 -4.332e-33 4.38271 -5.02098e-15 -9.10412e-17 0.118477 -9.5132e-16 6.20438e-16)
(-1.88809e-15 2.16285e-29 -1.19557e-32 4.28796 5.90028e-15 4.86663e-16 0.117609 -1.45429e-16 -3.18771e-17)
(7.55236e-15 -1.74895e-29 1.19557e-32 4.28796 -4.0121e-15 -3.84788e-17 0.117609 -9.75574e-16 6.15592e-16)
(-1.89637e-15 1.79197e-29 -1.17844e-32 4.19585 5.78047e-15 4.95122e-16 0.116765 -1.79684e-16 -2.46884e-17)
(7.58548e-15 -6.89555e-30 8.41742e-33 4.19585 -4.43441e-15 -1.79441e-17 0.116765 -9.84592e-16 6.11524e-16)
(-3.80917e-15 8.2588e-30 1.65936e-33 4.10629 5.29562e-15 5.05672e-16 0.115942 -1.42948e-16 -1.6595e-17)
(0 0 -1.65936e-33 4.10629 -4.24274e-15 -1.56391e-17 0.115942 -1.00887e-15 6.07213e-16)
(-1.91274e-15 2.42199e-29 -1.63557e-32 4.01919 6.19529e-15 5.21074e-16 0.115141 -1.5727e-16 -7.79755e-18)
(-1.88569e-15 -1.33986e-29 6.54229e-33 4.01919 -4.51183e-15 -4.59137e-17 0.115141 -1.04303e-15 6.02857e-16)
(0 -6.60329e-30 9.67278e-33 3.93446 5.61771e-15 5.36621e-16 0.11436 -1.9924e-16 1.71146e-18)
(-7.68336e-15 1.32066e-29 -1.93456e-32 3.93446 -3.90896e-15 -1.02341e-17 0.11436 -1.08152e-15 5.97523e-16)
(1.92888e-15 -1.71323e-29 1.90683e-32 3.85202 3.50154e-15 5.31246e-16 0.113599 -1.2794e-16 1.14485e-17)
(7.71552e-15 1.30173e-29 -1.90683e-32 3.85202 -2.44234e-15 -1.45991e-17 0.113599 -1.09484e-15 5.92583e-16)
(1.93687e-15 -1.695e-29 2.58421e-32 3.77179 3.27153e-15 5.14993e-16 0.112858 -7.89295e-17 1.53724e-17)
(-7.74746e-15 1.28307e-29 -2.506e-32 3.77179 -2.05636e-15 -3.10937e-17 0.112858 -1.11119e-15 5.87546e-16)
(-1.9448e-15 1.67584e-29 -2.05618e-32 3.69369 3.60313e-15 5.09548e-16 0.112135 -1.17778e-16 1.56685e-17)
(5.99931e-15 -6.32341e-30 6.17521e-33 3.69369 -9.88665e-16 -5.32425e-17 0.112135 -1.1199e-15 5.82297e-16)
(0 1.24656e-29 -3.04335e-32 3.61764 3.98611e-15 4.97992e-16 0.11143 -1.01587e-16 1.51034e-17)
(0 -6.23278e-30 1.82601e-32 3.61764 -1.50022e-15 -5.11763e-17 0.11143 -1.11406e-15 5.76345e-16)
(-1.72923e-15 1.22869e-29 -2.99973e-32 3.54359 5.03176e-15 5.05466e-16 0.110743 -1.45068e-16 1.65995e-17)
(7.84201e-15 0 1.79984e-32 3.54359 -2.40178e-15 0 0.110743 -1.15151e-15 5.6972e-16)
(1.96828e-15 -1.61991e-29 4.17874e-32 3.47146 4.8295e-15 5.15839e-16 0.110073 -1.70601e-16 1.62104e-17)
(0 1.21108e-29 -3.54808e-32 3.47146 -2.73207e-15 2.22308e-17 0.110073 -1.1757e-15 5.63619e-16)
(0 1.79058e-29 -3.49723e-32 3.40119 4.58967e-15 4.97178e-16 0.109419 -1.36358e-16 1.58727e-17)
(-7.90404e-15 -5.96861e-30 1.74862e-32 3.40119 -3.19764e-15 -6.97709e-17 0.109419 -1.20952e-15 5.56644e-16)
(-3.31187e-15 0 -1.14904e-32 3.33271 5.27102e-15 4.88701e-16 0.108781 -1.60009e-16 1.61262e-17)
(0 1.17661e-29 -1.72355e-32 3.33271 -2.53778e-15 -9.23375e-17 0.108781 -1.23332e-15 5.48333e-16)
(0 1.15975e-29 -3.3977e-32 3.26597 7.33651e-15 4.78246e-16 0.108159 -1.85287e-16 1.56381e-17)
(-3.2644e-15 -5.79874e-30 2.26513e-32 3.26597 -4.59506e-15 -7.43833e-17 0.108159 -1.24561e-15 5.39994e-16)
(1.99891e-15 1.88186e-29 -4.31347e-32 3.20091 1.06083e-14 4.79401e-16 0.107551 -3.02895e-16 1.6677e-17)
(0 -2.28625e-29 7.39168e-31 3.20091 -8.7518e-15 -8.76683e-30 0.107551 -1.29171e-15 5.32011e-16)
(2.00646e-15 1.28867e-29 -1.90155e-32 3.13747 8.96595e-15 5.07947e-16 0.106958 -4.12811e-16 1.80621e-17)
(0 -5.63371e-30 2.20067e-32 3.13747 -8.05538e-15 1.47054e-17 0.106958 -1.36745e-15 5.25339e-16)
(-4.02792e-15 8.07564e-30 -3.11777e-32 3.07561 4.14111e-15 4.96761e-16 0.106379 -1.9866e-16 1.63839e-17)
(8.05585e-15 0 0 3.07561 -4.10359e-15 -9.07835e-17 0.106379 -1.41085e-15 5.20152e-16)
(-2.02142e-15 -1.42333e-30 -1.65951e-32 3.01527 2.79106e-15 4.80848e-16 0.105814 -8.77915e-17 1.74633e-17)
(0 1.09468e-29 -1.06902e-32 3.01527 -2.78666e-15 -5.76328e-17 0.105814 -1.42559e-15 5.12628e-16)
(0 0 -1.0537e-32 2.95641 2.82702e-15 4.94191e-16 0.105262 -1.08779e-16 1.78234e-17)
(0 0 1.0537e-32 2.95641 -2.70585e-15 -7.62188e-17 0.105262 -1.45085e-15 5.07036e-16)
(0 1.06352e-29 -5.19298e-32 2.89897 4.55036e-15 4.97589e-16 0.104723 -9.29489e-17 1.82228e-17)
(0 -5.31761e-30 1.54683e-30 2.89897 -3.59717e-15 3.82721e-30 0.104723 -1.46115e-15 4.99369e-16)
(-2.95064e-15 2.09656e-29 -7.16597e-32 2.84292 6.88139e-15 5.23645e-16 0.104197 -2.37705e-16 2.02743e-17)
(0 -5.24139e-30 5.11855e-32 2.84292 -3.26544e-15 -1.70151e-17 0.104197 -1.51599e-15 4.93937e-16)
(0 1.54988e-29 -6.05422e-32 2.78821 5.88019e-15 5.5764e-16 0.103683 -2.68223e-16 2.13096e-17)
(1.34985e-14 -5.16627e-30 1.35122e-31 2.78821 -1.57873e-15 3.62999e-30 0.103683 -1.55893e-15 4.86828e-16)
(-4.11625e-15 2.93622e-30 -4.49082e-32 2.73481 4.23124e-15 5.79281e-16 0.10318 -1.69479e-16 2.25171e-17)
(8.2325e-15 5.09222e-30 0 2.73481 -2.22264e-15 2.94118e-17 0.10318 -1.55766e-15 4.7974e-16)
(2.06535e-15 -1.40512e-29 6.36454e-32 2.68266 4.86565e-15 5.81696e-16 0.102689 -1.50443e-16 2.21206e-17)
(0 1.50577e-29 -5.88192e-32 2.68266 -3.94926e-15 -2.82807e-17 0.102689 -1.57245e-15 4.72599e-16)
(0 4.9473e-30 -3.86508e-32 2.63174 6.51383e-15 5.75607e-16 0.102209 -2.23484e-16 2.26991e-17)
(-1.10753e-14 0 1.93254e-32 2.63174 -4.78582e-15 -1.06792e-16 0.102209 -1.61369e-15 4.63957e-16)
(-4.82487e-15 -1.55269e-29 8.66247e-32 2.582 6.52416e-15 5.94972e-16 0.10174 -2.84107e-16 2.43094e-17)
(8.31881e-15 2.4382e-29 -8.75812e-47 2.582 -4.90567e-15 3.08149e-33 0.10174 -1.66184e-15 4.54735e-16)
(0 1.44195e-29 -3.75508e-32 2.53342 5.37669e-15 5.93779e-16 0.101281 -2.30852e-16 2.32677e-17)
(0 -9.61301e-30 0 2.53342 -5.80682e-15 1.31093e-17 0.101281 -1.70535e-15 4.4689e-16)
(0 -4.73761e-30 5.55189e-32 2.48595 5.41234e-15 5.73204e-16 0.100833 -1.99804e-16 2.33365e-17)
(0 9.47523e-30 -7.40252e-32 2.48595 -6.92117e-15 -8.64551e-17 0.100833 -1.76507e-15 4.38203e-16)
(-2.10097e-15 3.96433e-30 -3.36161e-32 2.43957 6.06999e-15 5.65733e-16 0.100394 -2.40534e-16 2.33285e-17)
(0 0 0 2.43957 -6.0549e-15 -5.78045e-17 0.100394 -1.83727e-15 4.26768e-16)
(-4.216e-15 -2.89115e-29 1.63344e-31 2.39424 6.73199e-15 5.63324e-16 0.0999655 -2.60298e-16 2.3817e-17)
(1.94551e-14 3.68223e-29 5.79209e-32 2.39424 -4.18546e-15 2.7685e-30 0.0999655 -1.87128e-15 4.17364e-16)
(0 1.36104e-29 -5.31658e-32 2.34993 7.4519e-15 5.4969e-16 0.0995461 -3.03383e-16 2.28459e-17)
(0 -4.53681e-30 1.77219e-32 2.34993 -5.31557e-15 -8.29775e-17 0.0995461 -1.88466e-15 4.08962e-16)
(0 1.78872e-29 -1.04808e-31 2.30662 7.7979e-15 5.3695e-16 0.0991358 -3.2949e-16 2.34094e-17)
(0 -4.47179e-30 6.98717e-32 2.30662 -6.3374e-15 -2.27394e-16 0.0991358 -1.952e-15 3.97678e-16)
(-6.38668e-15 -1.91134e-29 1.25373e-31 2.26427 7.58437e-15 5.5502e-16 0.0987345 -3.4229e-16 2.51057e-17)
(1.70311e-14 3.52616e-29 5.34072e-32 2.26427 -4.82489e-15 2.46519e-32 0.0987345 -2.01075e-15 3.84839e-16)
(-2.44575e-15 -3.04117e-29 2.54562e-31 2.22286 6.59174e-15 5.51077e-16 0.0983418 -3.20346e-16 2.3743e-17)
(1.95321e-14 3.04117e-29 -1.07246e-30 2.22286 -5.31467e-15 4.25537e-18 0.0983418 -2.05301e-15 3.75096e-16)
(2.6802e-16 2.10359e-29 -1.41243e-31 2.18236 5.40211e-15 5.0447e-16 0.0979575 -2.6367e-16 2.16184e-17)
(-2.41069e-15 -8.56451e-30 6.69102e-32 2.18236 -6.18077e-15 -1.38636e-16 0.0979575 -2.1382e-15 3.64001e-16)
(2.14952e-15 -3.76732e-29 3.38383e-31 2.14275 5.53913e-15 4.59649e-16 0.0975814 -2.21945e-16 2.03185e-17)
(1.71962e-14 3.3767e-29 0 2.14275 -5.78157e-15 0 0.0975814 -2.23086e-15 3.46104e-16)
(-2.34209e-15 -2.49623e-29 1.95018e-31 2.104 6.12679e-15 4.58804e-16 0.0972133 -2.83989e-16 2.21729e-17)