/*--------------------------------*- C++ -*----------------------------------*\
| =========                 |                                                 |
| \\      /  F ield         | OpenFOAM: The Open Source CFD Toolbox           |
|  \\    /   O peration     | Version:  2106                                  |
|   \\  /    A nd           | Website:  www.openfoam.com                      |
|    \\/     M anipulation  |                                                 |
\*---------------------------------------------------------------------------*/
FoamFile
{
    version     2.0;
    format      ascii;
    arch        "LSB;label=32;scalar=64";
    class       volScalarField;
    location    "14000";
    object      p;
}
// * * * * * * * * * * * * * * * * * * * * * * * * * * * * * * * * * * * * * //

dimensions      [0 2 -2 0 0 0 0];

internalField   nonuniform List<scalar> 
2560
(
1.46541e-15
2.11276e-14
3.12489e-15
2.11274e-14
3.36711e-15
2.11272e-14
3.22076e-15
2.11268e-14
3.14444e-15
2.11264e-14
3.11259e-15
2.11258e-14
3.08742e-15
2.1125e-14
3.06144e-15
2.11242e-14
3.03656e-15
2.11232e-14
3.01301e-15
2.1122e-14
2.99026e-15
2.11207e-14
2.96811e-15
2.11193e-14
2.9465e-15
2.11177e-14
2.92546e-15
2.11159e-14
2.90491e-15
2.11139e-14
2.88485e-15
2.11118e-14
2.86528e-15
2.11096e-14
2.84619e-15
2.11071e-14
2.82754e-15
2.11044e-14
2.8095e-15
2.11016e-14
2.7919e-15
2.10985e-14
2.77469e-15
2.10952e-14
2.75787e-15
2.10918e-14
2.74158e-15
2.1088e-14
2.72566e-15
2.1084e-14
2.71008e-15
2.10797e-14
2.69485e-15
2.10751e-14
2.68005e-15
2.10703e-14
2.66546e-15
2.10654e-14
2.6511e-15
2.10602e-14
2.637e-15
2.10546e-14
2.62311e-15
2.10485e-14
2.60935e-15
2.10421e-14
2.59596e-15
2.10355e-14
2.58273e-15
2.10285e-14
2.56949e-15
2.10213e-14
2.55627e-15
2.10137e-14
2.54323e-15
2.10057e-14
2.53025e-15
2.09974e-14
2.51715e-15
2.09887e-14
2.50408e-15
2.09796e-14
2.49094e-15
2.09701e-14
2.47781e-15
2.09605e-14
2.46458e-15
2.09505e-14
2.45134e-15
2.09398e-14
2.438e-15
2.09288e-14
2.42453e-15
2.09173e-14
2.41135e-15
2.09056e-14
2.39805e-15
2.08934e-14
2.38461e-15
2.08805e-14
2.37171e-15
2.08671e-14
2.35857e-15
2.0853e-14
2.34517e-15
2.08384e-14
2.33198e-15
2.08229e-14
2.31864e-15
2.08071e-14
2.30514e-15
2.07907e-14
2.29224e-15
2.07737e-14
2.2793e-15
2.07557e-14
2.26632e-15
2.07372e-14
2.25329e-15
2.0718e-14
2.24019e-15
2.06985e-14
2.22729e-15
2.06787e-14
2.21402e-15
2.0658e-14
2.20005e-15
2.06377e-14
2.18742e-15
2.06162e-14
2.17436e-15
2.05936e-14
2.16204e-15
2.05698e-14
2.14986e-15
2.05455e-14
2.13875e-15
2.05198e-14
2.12871e-15
2.04939e-14
2.11745e-15
2.04676e-14
2.10657e-15
2.04405e-14
2.09605e-15
2.04121e-14
2.0862e-15
2.03829e-14
2.07631e-15
2.03538e-14
2.06669e-15
2.03245e-14
2.05693e-15
2.02934e-14
2.04774e-15
2.02615e-14
2.03943e-15
2.02298e-14
2.03273e-15
2.01976e-14
2.02497e-15
2.01661e-14
2.01761e-15
2.0132e-14
2.01253e-15
2.00953e-14
2.00697e-15
2.00598e-14
2.00085e-15
2.00262e-14
1.9953e-15
1.9992e-14
1.98944e-15
1.99574e-14
1.98443e-15
1.992e-14
1.98021e-15
1.98822e-14
1.97755e-15
1.98458e-14
1.97469e-15
1.98076e-14
1.97241e-15
1.97684e-14
1.96974e-15
1.97291e-14
1.96923e-15
1.96891e-14
1.97081e-15
1.96465e-14
1.97352e-15
1.96024e-14
1.97638e-15
1.95604e-14
1.97927e-15
1.95207e-14
1.98022e-15
1.94787e-14
1.98374e-15
1.94337e-14
1.98787e-15
1.93875e-14
1.99438e-15
1.93403e-14
1.99747e-15
1.92912e-14
2.00366e-15
1.92442e-14
2.01189e-15
1.91993e-14
2.0201e-15
1.91519e-14
2.02814e-15
1.9105e-14
2.03783e-15
1.90578e-14
2.04904e-15
1.90064e-14
2.05962e-15
1.89548e-14
2.07141e-15
1.89033e-14
2.08324e-15
1.8852e-14
2.09287e-15
1.87969e-14
2.10424e-15
1.87401e-14
2.11819e-15
1.8683e-14
2.13458e-15
1.86245e-14
2.15219e-15
1.85628e-14
2.17189e-15
1.85e-14
2.18925e-15
1.84384e-14
2.21045e-15
1.83782e-14
2.23637e-15
1.83121e-14
2.2593e-15
1.82446e-14
2.2855e-15
1.81735e-14
2.31042e-15
1.81056e-14
2.3338e-15
1.80389e-14
2.35979e-15
1.79715e-14
2.38597e-15
1.79034e-14
2.41875e-15
1.78282e-14
2.45571e-15
1.77506e-14
2.48766e-15
1.76706e-14
2.51882e-15
1.75929e-14
2.55117e-15
1.75201e-14
2.58898e-15
1.74411e-14
2.62748e-15
1.73559e-14
2.65952e-15
1.72762e-14
2.69626e-15
1.71954e-14
2.73514e-15
1.71113e-14
2.77125e-15
1.70265e-14
2.80891e-15
1.69505e-14
2.84782e-15
1.68671e-14
2.883e-15
1.67721e-14
2.9188e-15
1.66842e-14
2.95253e-15
1.66061e-14
2.98857e-15
1.65122e-14
3.03132e-15
1.64214e-14
3.0686e-15
1.63389e-14
3.10956e-15
1.62531e-14
3.15385e-15
1.61617e-14
3.19634e-15
1.60698e-14
3.23666e-15
1.59824e-14
3.27922e-15
1.58926e-14
3.32368e-15
1.58079e-14
3.36722e-15
1.57309e-14
3.41428e-15
1.56499e-14
3.4499e-15
1.55652e-14
3.48578e-15
1.54722e-14
3.52394e-15
1.53783e-14
3.56641e-15
1.53011e-14
3.6201e-15
1.52237e-14
3.66993e-15
1.51292e-14
3.7179e-15
1.50302e-14
3.7636e-15
1.49318e-14
3.814e-15
1.48368e-14
3.8662e-15
1.47479e-14
3.91482e-15
1.46605e-14
3.9594e-15
1.45748e-14
4.00441e-15
1.44913e-14
4.04441e-15
1.44101e-14
4.08883e-15
1.43267e-14
4.12723e-15
1.42464e-14
4.16403e-15
1.41796e-14
4.20866e-15
1.41116e-14
4.26557e-15
1.40228e-14
4.3193e-15
1.39286e-14
4.37438e-15
1.38392e-14
4.43035e-15
1.37348e-14
4.48676e-15
1.36306e-14
4.5482e-15
1.3527e-14
4.60421e-15
1.3434e-14
4.64933e-15
1.3357e-14
4.70304e-15
1.32713e-14
4.7548e-15
1.3182e-14
4.79909e-15
1.30896e-14
4.84541e-15
1.30093e-14
4.89323e-15
1.29264e-14
4.942e-15
1.28412e-14
4.99622e-15
1.27489e-14
5.05543e-15
1.26598e-14
5.11916e-15
1.25792e-14
5.17691e-15
1.25022e-14
5.24328e-15
1.24291e-14
5.30778e-15
1.23451e-14
5.37505e-15
1.22554e-14
5.43977e-15
1.21802e-14
5.50654e-15
1.21095e-14
5.56997e-15
1.20035e-14
5.6298e-15
1.19124e-14
5.69068e-15
1.18511e-14
5.75219e-15
1.1775e-14
5.81399e-15
1.16791e-14
5.8758e-15
1.15985e-14
5.91734e-15
1.15283e-14
5.96316e-15
1.14438e-14
6.01293e-15
1.13601e-14
6.06636e-15
1.12871e-14
6.12309e-15
1.12053e-14
6.17297e-15
1.11344e-14
6.22563e-15
1.10547e-14
6.28085e-15
1.09763e-14
6.32854e-15
1.08992e-14
6.35861e-15
1.08333e-14
6.40031e-15
1.07494e-14
6.43376e-15
1.06374e-14
6.4688e-15
1.05368e-14
6.51515e-15
1.04471e-14
6.54329e-15
1.03778e-14
6.57262e-15
1.02899e-14
6.60302e-15
1.0183e-14
6.62489e-15
1.00764e-14
6.65774e-15
1.00085e-14
6.68186e-15
9.91101e-15
6.71672e-15
9.79325e-15
6.74338e-15
9.70289e-15
6.77169e-15
9.63929e-15
6.79188e-15
9.54419e-15
6.82334e-15
9.42668e-15
6.83784e-15
9.34325e-15
6.8452e-15
9.27408e-15
6.86426e-15
9.219e-15
6.88521e-15
9.13942e-15
6.89863e-15
9.03467e-15
6.92401e-15
8.95128e-15
6.94275e-15
8.89782e-15
6.97379e-15
8.81705e-15
6.98001e-15
8.70813e-15
6.99039e-15
8.62642e-15
7.01467e-15
8.54286e-15
7.00671e-15
8.46588e-15
6.99481e-15
8.36695e-15
6.99796e-15
8.27275e-15
7.00761e-15
8.18184e-15
6.99705e-15
8.06509e-15
7.00406e-15
7.93915e-15
7.00274e-15
7.8198e-15
6.98534e-15
7.69547e-15
6.9531e-15
7.60939e-15
6.9245e-15
7.50591e-15
6.919e-15
7.34726e-15
6.84944e-15
7.21986e-15
6.78815e-15
7.10389e-15
6.73517e-15
6.99758e-15
6.7092e-15
6.91664e-15
6.64045e-15
6.84133e-15
6.58173e-15
6.77114e-15
6.53264e-15
6.68769e-15
6.493e-15
6.58977e-15
6.44655e-15
6.49276e-15
6.39411e-15
6.44638e-15
6.35205e-15
6.3979e-15
6.30348e-15
6.31232e-15
6.24984e-15
6.23897e-15
6.191e-15
6.14225e-15
6.1108e-15
6.07158e-15
6.09299e-15
6.02676e-15
6.03707e-15
5.98963e-15
6.0095e-15
5.94327e-15
5.94434e-15
5.8703e-15
5.9079e-15
5.82014e-15
5.88407e-15
5.7918e-15
5.82369e-15
5.80226e-15
5.75688e-15
5.78926e-15
5.68103e-15
5.72364e-15
5.61224e-15
5.65419e-15
5.59846e-15
5.64492e-15
5.57615e-15
5.6481e-15
5.54496e-15
5.63342e-15
5.50468e-15
5.53952e-15
5.41093e-15
5.45786e-15
5.38697e-15
5.41919e-15
5.35525e-15
5.42232e-15
5.37566e-15
5.40814e-15
5.35955e-15
5.34578e-15
5.3258e-15
5.24859e-15
5.29312e-15
5.18704e-15
5.26397e-15
5.18756e-15
5.20775e-15
5.22122e-15
5.13456e-15
5.19116e-15
5.12819e-15
5.1461e-15
5.07302e-15
5.17084e-15
5.05033e-15
5.15626e-15
5.06105e-15
5.13202e-15
5.05041e-15
5.09644e-15
5.0768e-15
5.10355e-15
5.03159e-15
5.09644e-15
4.99529e-15
5.10678e-15
5.01819e-15
5.08489e-15
5.0498e-15
5.05462e-15
4.96067e-15
5.01147e-15
4.95819e-15
5.01372e-15
4.886e-15
4.98225e-15
4.86996e-15
4.97273e-15
4.85248e-15
4.98661e-15
4.85529e-15
5.00257e-15
4.85249e-15
4.99924e-15
4.81781e-15
4.95324e-15
4.87399e-15
4.9405e-15
4.85826e-15
4.95283e-15
4.89285e-15
4.91974e-15
4.93641e-15
4.90763e-15
4.97017e-15
4.90865e-15
4.95461e-15
4.94132e-15
4.90917e-15
4.93974e-15
4.92021e-15
4.93347e-15
4.92406e-15
4.94581e-15
4.87338e-15
4.9099e-15
4.85807e-15
4.85223e-15
4.83623e-15
4.83289e-15
4.83157e-15
4.83114e-15
4.82224e-15
4.80349e-15
4.81195e-15
4.81356e-15
1.45864e-14
1.49579e-14
1.45864e-14
1.49579e-14
1.45864e-14
1.49579e-14
1.45863e-14
1.49578e-14
1.45863e-14
1.49578e-14
1.45862e-14
1.49577e-14
1.45861e-14
1.49576e-14
1.4586e-14
1.49575e-14
1.45859e-14
1.49574e-14
1.45858e-14
1.49572e-14
1.45857e-14
1.49571e-14
1.45856e-14
1.49569e-14
1.45854e-14
1.49567e-14
1.45853e-14
1.49565e-14
1.45851e-14
1.49564e-14
1.45848e-14
1.49562e-14
1.45846e-14
1.49561e-14
1.45843e-14
1.49559e-14
1.4584e-14
1.49558e-14
1.45836e-14
1.49556e-14
1.45833e-14
1.49554e-14
1.45828e-14
1.49553e-14
1.45824e-14
1.49552e-14
1.45818e-14
1.49551e-14
1.45814e-14
1.49548e-14
1.45809e-14
1.49545e-14
1.45803e-14
1.49542e-14
1.45798e-14
1.4954e-14
1.45793e-14
1.49538e-14
1.45788e-14
1.49534e-14
1.45782e-14
1.49528e-14
1.45775e-14
1.49523e-14
1.45768e-14
1.49519e-14
1.45761e-14
1.49515e-14
1.45753e-14
1.49509e-14
1.45744e-14
1.49503e-14
1.45736e-14
1.49496e-14
1.45726e-14
1.49489e-14
1.45717e-14
1.49479e-14
1.45706e-14
1.49469e-14
1.45696e-14
1.49459e-14
1.45684e-14
1.49449e-14
1.45672e-14
1.49438e-14
1.45661e-14
1.49424e-14
1.4565e-14
1.49411e-14
1.45636e-14
1.49398e-14
1.45623e-14
1.49387e-14
1.45608e-14
1.49377e-14
1.4559e-14
1.49363e-14
1.45571e-14
1.49347e-14
1.45552e-14
1.49331e-14
1.4553e-14
1.49315e-14
1.4551e-14
1.49299e-14
1.45487e-14
1.49281e-14
1.45464e-14
1.49262e-14
1.45438e-14
1.49244e-14
1.45413e-14
1.49222e-14
1.45388e-14
1.492e-14
1.45358e-14
1.49178e-14
1.45328e-14
1.4915e-14
1.45297e-14
1.49123e-14
1.45265e-14
1.49092e-14
1.4523e-14
1.4907e-14
1.45194e-14
1.49039e-14
1.45155e-14
1.49014e-14
1.45124e-14
1.48995e-14
1.45087e-14
1.48961e-14
1.45046e-14
1.48935e-14
1.45008e-14
1.489e-14
1.44969e-14
1.48859e-14
1.44925e-14
1.48823e-14
1.44883e-14
1.48787e-14
1.44842e-14
1.48751e-14
1.44801e-14
1.48715e-14
1.4475e-14
1.48678e-14
1.44703e-14
1.4863e-14
1.4466e-14
1.48582e-14
1.44618e-14
1.48533e-14
1.44577e-14
1.48473e-14
1.44526e-14
1.48408e-14
1.44476e-14
1.48346e-14
1.44425e-14
1.48283e-14
1.44363e-14
1.48227e-14
1.44303e-14
1.48167e-14
1.44245e-14
1.48105e-14
1.44181e-14
1.48039e-14
1.44103e-14
1.47984e-14
1.44028e-14
1.47907e-14
1.4394e-14
1.4785e-14
1.43854e-14
1.47805e-14
1.43789e-14
1.47737e-14
1.43701e-14
1.47681e-14
1.436e-14
1.47629e-14
1.43503e-14
1.47544e-14
1.43402e-14
1.47463e-14
1.43297e-14
1.47393e-14
1.43178e-14
1.47354e-14
1.43065e-14
1.47309e-14
1.42948e-14
1.47203e-14
1.42819e-14
1.47091e-14
1.42695e-14
1.47018e-14
1.42513e-14
1.46949e-14
1.42356e-14
1.46873e-14
1.42216e-14
1.46782e-14
1.42045e-14
1.46702e-14
1.41883e-14
1.46597e-14
1.41679e-14
1.46504e-14
1.41475e-14
1.46445e-14
1.41289e-14
1.46348e-14
1.41123e-14
1.46244e-14
1.40938e-14
1.46164e-14
1.40732e-14
1.46066e-14
1.40517e-14
1.45951e-14
1.40313e-14
1.45828e-14
1.40112e-14
1.45719e-14
1.39923e-14
1.45602e-14
1.39694e-14
1.45488e-14
1.3949e-14
1.45388e-14
1.39258e-14
1.45323e-14
1.39019e-14
1.4524e-14
1.38785e-14
1.45149e-14
1.38534e-14
1.4503e-14
1.38288e-14
1.44893e-14
1.38049e-14
1.44792e-14
1.37794e-14
1.44662e-14
1.37568e-14
1.44524e-14
1.37284e-14
1.44379e-14
1.36986e-14
1.4425e-14
1.36696e-14
1.44068e-14
1.36438e-14
1.4388e-14
1.36145e-14
1.43752e-14
1.35839e-14
1.4364e-14
1.35545e-14
1.43453e-14
1.3524e-14
1.43237e-14
1.34924e-14
1.43084e-14
1.3462e-14
1.42901e-14
1.3433e-14
1.42736e-14
1.34055e-14
1.42542e-14
1.33771e-14
1.42343e-14
1.33526e-14
1.42091e-14
1.33321e-14
1.41765e-14
1.3304e-14
1.4148e-14
1.32801e-14
1.41284e-14
1.32605e-14
1.41036e-14
1.32405e-14
1.40736e-14
1.3218e-14
1.40432e-14
1.31953e-14
1.40171e-14
1.3175e-14
1.39954e-14
1.31523e-14
1.39709e-14
1.31274e-14
1.39388e-14
1.30979e-14
1.39089e-14
1.30712e-14
1.38738e-14
1.30425e-14
1.38456e-14
1.30143e-14
1.38221e-14
1.29843e-14
1.37862e-14
1.29526e-14
1.37476e-14
1.29243e-14
1.37162e-14
1.28846e-14
1.36847e-14
1.2851e-14
1.36531e-14
1.28234e-14
1.36191e-14
1.27922e-14
1.35826e-14
1.27574e-14
1.35436e-14
1.2734e-14
1.34974e-14
1.26975e-14
1.34562e-14
1.26678e-14
1.34201e-14
1.263e-14
1.33743e-14
1.25844e-14
1.33337e-14
1.25459e-14
1.32983e-14
1.25096e-14
1.32533e-14
1.24708e-14
1.32088e-14
1.24296e-14
1.31846e-14
1.2391e-14
1.3151e-14
1.23601e-14
1.31031e-14
1.23272e-14
1.30607e-14
1.22823e-14
1.30291e-14
1.22456e-14
1.29884e-14
1.22121e-14
1.29435e-14
1.2167e-14
1.29197e-14
1.21304e-14
1.28822e-14
1.20974e-14
1.28309e-14
1.20732e-14
1.27859e-14
1.20328e-14
1.27475e-14
1.19966e-14
1.27105e-14
1.19595e-14
1.26551e-14
1.19168e-14
1.26015e-14
1.18787e-14
1.25596e-14
1.18403e-14
1.25196e-14
1.18068e-14
1.24767e-14
1.17632e-14
1.24258e-14
1.17196e-14
1.23873e-14
1.16713e-14
1.2331e-14
1.16132e-14
1.22772e-14
1.15554e-14
1.22361e-14
1.15029e-14
1.22029e-14
1.14507e-14
1.21628e-14
1.14088e-14
1.2106e-14
1.13773e-14
1.20477e-14
1.13163e-14
1.20031e-14
1.12659e-14
1.19422e-14
1.12361e-14
1.18652e-14
1.11872e-14
1.1797e-14
1.11244e-14
1.17477e-14
1.10577e-14
1.16975e-14
1.1002e-14
1.16268e-14
1.09573e-14
1.15507e-14
1.0904e-14
1.1489e-14
1.0852e-14
1.14319e-14
1.08015e-14
1.13497e-14
1.07525e-14
1.12623e-14
1.06956e-14
1.11893e-14
1.06406e-14
1.11111e-14
1.05681e-14
1.10472e-14
1.05175e-14
1.09683e-14
1.04791e-14
1.0904e-14
1.04334e-14
1.08447e-14
1.03709e-14
1.07903e-14
1.03111e-14
1.07315e-14
1.02442e-14
1.06783e-14
1.01994e-14
1.06311e-14
1.01573e-14
1.0571e-14
1.0118e-14
1.05077e-14
1.00526e-14
1.04511e-14
9.99992e-15
1.04019e-14
9.95015e-15
1.03507e-14
9.91294e-15
1.03076e-14
9.85947e-15
1.02729e-14
9.78955e-15
1.02091e-14
9.76062e-15
1.0136e-14
9.72535e-15
1.01109e-14
9.69326e-15
1.00768e-14
9.6454e-15
1.00153e-14
9.61052e-15
9.93648e-15
9.56075e-15
9.8971e-15
9.52431e-15
9.82194e-15
9.47337e-15
9.7299e-15
9.42743e-15
9.64917e-15
9.40575e-15
9.54205e-15
9.34423e-15
9.46361e-15
9.29005e-15
9.41374e-15
9.234e-15
9.34661e-15
9.17633e-15
9.27198e-15
9.13575e-15
9.19932e-15
9.08542e-15
9.1288e-15
9.05334e-15
9.05176e-15
9.01311e-15
8.96817e-15
8.95694e-15
8.87802e-15
8.83165e-15
8.79916e-15
8.74492e-15
8.71501e-15
8.69626e-15
8.60883e-15
8.65161e-15
8.51614e-15
8.54145e-15
8.45432e-15
8.43652e-15
8.38957e-15
8.35339e-15
8.30581e-15
8.27479e-15
8.23895e-15
8.23606e-15
8.15456e-15
8.15135e-15
8.0697e-15
8.091e-15
8.00257e-15
8.03827e-15
7.9538e-15
7.92466e-15
7.88937e-15
7.80076e-15
7.84565e-15
7.74963e-15
7.77475e-15
7.66966e-15
7.66014e-15
7.57961e-15
7.55259e-15
7.51455e-15
7.46857e-15
7.42452e-15
7.42417e-15
7.34194e-15
7.33761e-15
7.26673e-15
7.22596e-15
7.18422e-15
7.13795e-15
7.12764e-15
7.00738e-15
7.03434e-15
6.94532e-15
6.95265e-15
6.85379e-15
6.81876e-15
6.78037e-15
6.71101e-15
6.67955e-15
6.61286e-15
6.61601e-15
6.52168e-15
6.57449e-15
6.43437e-15
6.50927e-15
6.36493e-15
6.42132e-15
6.2827e-15
6.34229e-15
6.23521e-15
6.27316e-15
6.16148e-15
6.21281e-15
6.0914e-15
6.13035e-15
6.02382e-15
6.03964e-15
5.97434e-15
5.96976e-15
5.89896e-15
5.92078e-15
5.82578e-15
5.89511e-15
5.73633e-15
5.86569e-15
5.6854e-15
5.77642e-15
5.69055e-15
5.7125e-15
5.62581e-15
5.66928e-15
5.51983e-15
5.64636e-15
5.50801e-15
5.59254e-15
5.47796e-15
5.56188e-15
5.42966e-15
5.52688e-15
5.3878e-15
5.48787e-15
5.35242e-15
5.44479e-15
5.32432e-15
5.42326e-15
5.32823e-15
5.36979e-15
5.34049e-15
5.30684e-15
5.21162e-15
5.28131e-15
5.19532e-15
5.27452e-15
5.23893e-15
5.2362e-15
5.22185e-15
5.21065e-15
5.17258e-15
5.16944e-15
5.16593e-15
5.13679e-15
5.20433e-15
5.08314e-15
5.12508e-15
5.07432e-15
5.09116e-15
5.06738e-15
5.09842e-15
5.03954e-15
5.14926e-15
5.03665e-15
5.10444e-15
5.0523e-15
5.07491e-15
5.07029e-15
5.07793e-15
5.07187e-15
4.99777e-15
5.03382e-15
4.98941e-15
5.00783e-15
4.95968e-15
4.96554e-15
4.95882e-15
4.95168e-15
4.92029e-15
4.89802e-15
4.89186e-15
4.86925e-15
4.87192e-15
4.86291e-15
4.85756e-15
4.85997e-15
4.79759e-15
4.82e-15
4.77533e-15
4.80781e-15
4.81051e-15
4.80055e-15
4.79986e-15
4.79151e-15
4.76542e-15
4.75825e-15
4.77738e-15
4.74614e-15
4.7e-15
4.75096e-15
4.61211e-15
4.75964e-15
4.61685e-15
4.73735e-15
4.64792e-15
4.72978e-15
4.61634e-15
4.68604e-15
4.61933e-15
4.62698e-15
4.6399e-15
4.63959e-15
4.60881e-15
4.64984e-15
4.59447e-15
4.66368e-15
4.61936e-15
4.65878e-15
4.6149e-15
4.63117e-15
4.60698e-15
4.62875e-15
4.5931e-15
4.60134e-15
4.57351e-15
4.54653e-15
4.52344e-15
4.56281e-15
4.5423e-15
4.57749e-15
4.57995e-15
4.61831e-15
4.55661e-15
4.66116e-15
4.54678e-15
4.65825e-15
4.60412e-15
4.66415e-15
4.62474e-15
4.67496e-15
4.63743e-15
4.68951e-15
4.67326e-15
4.7371e-15
4.67467e-15
4.76241e-15
4.6674e-15
4.73744e-15
4.70936e-15
4.74596e-15
4.77627e-15
4.78486e-15
4.7256e-15
4.82325e-15
4.74151e-15
4.82244e-15
4.75198e-15
4.81073e-15
4.72712e-15
4.80032e-15
4.69517e-15
4.8068e-15
4.71466e-15
4.80315e-15
4.72682e-15
4.81821e-15
4.70106e-15
4.82238e-15
4.71221e-15
4.8324e-15
4.71652e-15
4.84859e-15
4.66661e-15
4.80937e-15
4.70142e-15
4.7928e-15
4.71545e-15
4.7795e-15
4.6943e-15
4.76914e-15
4.70042e-15
4.76277e-15
4.73634e-15
4.75949e-15
4.80491e-15
4.77283e-15
4.82723e-15
4.75152e-15
4.78838e-15
4.72551e-15
4.78473e-15
4.72837e-15
4.81591e-15
4.74385e-15
4.76721e-15
4.73759e-15
4.71869e-15
4.76169e-15
4.73429e-15
4.7861e-15
4.74724e-15
4.77766e-15
4.74162e-15
4.73506e-15
4.71899e-15
4.72417e-15
4.74768e-15
4.71105e-15
4.74425e-15
4.7109e-15
4.69076e-15
4.70655e-15
4.67084e-15
4.75182e-15
4.66489e-15
4.7629e-15
4.65513e-15
4.75749e-15
4.62415e-15
4.75336e-15
4.62412e-15
4.76943e-15
4.65515e-15
4.78882e-15
4.64681e-15
4.79292e-15
4.68761e-15
4.79924e-15
4.70754e-15
4.80688e-15
4.72503e-15
4.798e-15
4.72247e-15
4.80808e-15
4.71749e-15
4.80127e-15
4.72823e-15
4.81362e-15
4.73657e-15
4.82703e-15
4.72412e-15
4.79558e-15
4.71854e-15
4.77335e-15
4.74785e-15
4.8062e-15
4.77553e-15
4.83931e-15
4.79232e-15
4.86364e-15
4.80715e-15
4.86978e-15
4.82019e-15
4.88528e-15
4.83134e-15
4.90097e-15
4.84993e-15
4.89817e-15
4.86696e-15
4.88568e-15
4.8546e-15
4.90047e-15
4.85958e-15
4.92411e-15
4.86271e-15
4.92864e-15
4.88303e-15
4.92365e-15
4.89244e-15
4.93735e-15
4.89088e-15
4.96026e-15
4.90682e-15
4.95435e-15
4.91183e-15
4.95771e-15
4.91555e-15
4.98966e-15
4.92726e-15
5.01208e-15
4.9277e-15
5.02512e-15
4.94583e-15
5.01923e-15
4.95301e-15
5.00372e-15
4.9592e-15
5.01708e-15
4.96441e-15
5.03996e-15
4.96849e-15
5.04329e-15
4.97149e-15
5.03684e-15
4.97356e-15
5.04989e-15
4.96474e-15
5.07281e-15
4.9644e-15
5.08614e-15
4.96261e-15
5.07023e-15
4.94964e-15
5.07417e-15
4.94506e-15
5.07844e-15
4.93897e-15
5.09296e-15
4.93126e-15
5.09812e-15
4.93181e-15
5.07415e-15
4.93095e-15
5.05054e-15
4.9289e-15
5.06693e-15
4.92555e-15
5.0738e-15
4.92089e-15
5.06119e-15
4.92495e-15
5.04898e-15
4.92292e-15
5.0521e-15
4.9198e-15
5.06061e-15
4.92558e-15
5.06957e-15
4.93031e-15
5.08402e-15
4.93402e-15
5.08902e-15
4.94175e-15
5.09457e-15
4.94358e-15
5.10068e-15
4.93456e-15
5.11741e-15
4.94467e-15
5.10476e-15
4.95905e-15
5.08764e-15
4.9377e-15
5.08093e-15
4.93078e-15
5.08471e-15
4.93326e-15
5.084e-15
4.92511e-15
5.0838e-15
4.91133e-15
5.07906e-15
4.90194e-15
5.07987e-15
4.89188e-15
5.08627e-15
4.88616e-15
5.07318e-15
4.87979e-15
5.0556e-15
4.86279e-15
5.05861e-15
4.85521e-15
5.06217e-15
4.84699e-15
5.07133e-15
4.83807e-15
5.06603e-15
4.82347e-15
5.06131e-15
4.81321e-15
5.05718e-15
4.8073e-15
5.04361e-15
4.80077e-15
5.04062e-15
4.78862e-15
5.04818e-15
4.78083e-15
5.04632e-15
4.7774e-15
5.04505e-15
4.76336e-15
5.03936e-15
4.76366e-15
5.03926e-15
4.76335e-15
5.03479e-15
4.75747e-15
5.02596e-15
4.75601e-15
5.02768e-15
4.75399e-15
5.03495e-15
4.75636e-15
5.03291e-15
4.76313e-15
5.03643e-15
4.75946e-15
5.04052e-15
4.76021e-15
5.05014e-15
4.76042e-15
5.05049e-15
4.76256e-15
5.0465e-15
4.76664e-15
5.048e-15
4.77022e-15
5.05249e-15
4.77819e-15
5.05504e-15
4.7759e-15
5.05809e-15
4.77559e-15
5.0592e-15
4.77967e-15
5.06566e-15
4.78572e-15
5.07015e-15
4.79374e-15
5.08237e-15
4.79164e-15
5.08535e-15
4.78189e-15
5.0743e-15
4.77656e-15
5.07093e-15
4.77564e-15
5.07041e-15
4.77672e-15
5.07509e-15
4.77263e-15
5.08017e-15
4.76817e-15
5.08088e-15
4.7681e-15
5.07724e-15
4.76765e-15
5.07874e-15
4.76448e-15
5.07116e-15
4.76569e-15
5.06397e-15
4.76891e-15
5.06653e-15
4.77414e-15
5.07408e-15
4.77438e-15
5.07261e-15
4.77432e-15
5.07146e-15
4.77628e-15
5.07062e-15
4.78027e-15
5.06546e-15
4.77938e-15
5.05599e-15
4.78053e-15
5.0514e-15
4.78373e-15
5.04936e-15
4.7867e-15
5.04756e-15
4.78719e-15
5.04599e-15
4.78521e-15
5.04239e-15
4.7853e-15
5.03677e-15
4.7852e-15
5.02692e-15
4.78493e-15
5.02174e-15
4.78228e-15
5.01898e-15
4.77948e-15
5.01641e-15
4.77654e-15
5.01182e-15
4.77564e-15
5.00305e-15
4.7746e-15
4.99665e-15
4.77235e-15
4.99366e-15
4.77105e-15
4.9876e-15
4.76963e-15
4.98063e-15
4.77127e-15
4.97275e-15
4.77068e-15
4.97031e-15
4.76788e-15
4.97008e-15
4.76603e-15
4.96892e-15
4.76511e-15
4.96578e-15
4.76409e-15
4.96173e-15
4.76298e-15
4.95882e-15
4.76381e-15
4.95397e-15
4.76352e-15
4.95025e-15
4.76214e-15
4.94863e-15
4.75967e-15
4.9461e-15
4.75813e-15
4.94267e-15
4.75651e-15
4.94326e-15
4.75384e-15
4.94293e-15
4.75304e-15
4.93976e-15
4.75312e-15
4.93764e-15
4.75503e-15
4.93559e-15
4.75401e-15
4.93644e-15
4.75291e-15
4.93828e-15
4.75176e-15
4.93735e-15
4.75146e-15
4.93649e-15
4.75109e-15
4.93751e-15
4.75065e-15
4.93766e-15
4.75015e-15
4.93695e-15
4.75047e-15
4.9363e-15
4.75249e-15
4.93569e-15
4.75356e-15
4.93774e-15
4.75196e-15
4.94067e-15
4.75202e-15
4.94105e-15
4.75119e-15
4.93892e-15
4.75114e-15
4.93852e-15
4.75103e-15
4.93899e-15
4.7517e-15
4.93948e-15
4.7519e-15
4.94041e-15
4.75364e-15
4.93976e-15
4.75374e-15
4.93835e-15
4.75379e-15
4.93777e-15
4.75456e-15
4.93838e-15
4.7549e-15
4.93902e-15
4.75632e-15
4.93929e-15
4.75509e-15
4.94032e-15
4.75419e-15
4.94101e-15
4.75436e-15
4.9399e-15
4.75448e-15
4.93919e-15
4.75421e-15
4.93991e-15
4.75391e-15
4.93961e-15
4.75324e-15
4.93967e-15
4.75222e-15
4.93908e-15
4.75249e-15
4.9382e-15
4.75273e-15
4.93735e-15
4.75293e-15
4.93493e-15
4.75279e-15
4.93352e-15
4.75231e-15
4.93338e-15
4.75242e-15
4.93296e-15
4.7525e-15
4.93196e-15
4.75284e-15
4.93071e-15
4.75258e-15
4.92978e-15
4.75258e-15
4.92917e-15
4.75255e-15
4.92803e-15
4.7525e-15
4.92719e-15
4.7527e-15
4.92692e-15
4.75287e-15
4.92641e-15
4.75277e-15
4.92515e-15
4.75276e-15
4.92393e-15
4.75299e-15
4.92288e-15
4.75259e-15
4.92197e-15
4.75218e-15
4.92121e-15
4.752e-15
4.9206e-15
4.75202e-15
4.92e-15
4.75181e-15
4.91921e-15
4.75169e-15
4.91845e-15
4.75156e-15
4.91782e-15
4.75122e-15
4.91732e-15
4.75087e-15
4.91683e-15
4.7507e-15
4.91636e-15
4.75062e-15
4.91601e-15
4.75044e-15
4.91558e-15
4.75033e-15
4.91507e-15
4.75013e-15
4.91467e-15
4.74992e-15
4.9142e-15
4.74979e-15
4.91383e-15
4.74965e-15
4.91348e-15
4.7495e-15
4.91297e-15
4.74942e-15
4.91264e-15
4.74937e-15
4.91244e-15
4.74932e-15
4.91216e-15
4.74925e-15
4.91198e-15
4.7491e-15
4.91184e-15
4.74897e-15
4.9117e-15
4.74884e-15
4.91158e-15
4.74885e-15
4.91127e-15
4.74878e-15
4.91104e-15
4.7487e-15
4.91089e-15
4.74865e-15
4.91082e-15
4.74866e-15
4.91071e-15
4.74859e-15
4.91069e-15
4.74848e-15
4.91063e-15
4.74836e-15
4.91052e-15
4.74827e-15
4.91043e-15
4.74817e-15
4.91035e-15
4.74807e-15
4.91029e-15
4.74796e-15
4.91023e-15
4.7479e-15
4.91016e-15
4.74782e-15
4.91009e-15
4.74777e-15
4.91e-15
4.7477e-15
4.90994e-15
4.74764e-15
4.90985e-15
4.74759e-15
4.90978e-15
4.74753e-15
4.90975e-15
4.7475e-15
4.9097e-15
4.74745e-15
4.90967e-15
4.74741e-15
4.90963e-15
4.74739e-15
4.90961e-15
4.74738e-15
4.90959e-15
4.74736e-15
4.90959e-15
4.74735e-15
4.90959e-15
4.74735e-15
4.90958e-15
4.74734e-15
4.90958e-15
4.84664e-15
4.81588e-15
4.84499e-15
4.81173e-15
4.83161e-15
4.80245e-15
4.82445e-15
4.78865e-15
4.77844e-15
4.76901e-15
4.78104e-15
4.7719e-15
4.7384e-15
4.79879e-15
4.68962e-15
4.81421e-15
4.70002e-15
4.75549e-15
4.70864e-15
4.70492e-15
4.69758e-15
4.67602e-15
4.71865e-15
4.66789e-15
4.67846e-15
4.68056e-15
4.66477e-15
4.67123e-15
4.65344e-15
4.68881e-15
4.61613e-15
4.68672e-15
4.64695e-15
4.66838e-15
4.67746e-15
4.65413e-15
4.68839e-15
4.63867e-15
4.70916e-15
4.64608e-15
4.6638e-15
4.6786e-15
4.64985e-15
4.66513e-15
4.66612e-15
4.65697e-15
4.66017e-15
4.67667e-15
4.68447e-15
4.67138e-15
4.71587e-15
4.66551e-15
4.72851e-15
4.68322e-15
4.6652e-15
4.66989e-15
4.71467e-15
4.71234e-15
4.7379e-15
4.75402e-15
4.76244e-15
4.73972e-15
4.76333e-15
4.78139e-15
4.79386e-15
4.82583e-15
4.73537e-15
4.87411e-15
4.7561e-15
4.85977e-15
4.81538e-15
4.8827e-15
4.81318e-15
4.88226e-15
4.77935e-15
4.8583e-15
4.80369e-15
4.85536e-15
4.81256e-15
4.84153e-15
4.80691e-15
4.84516e-15
4.74026e-15
4.83601e-15
4.74665e-15
4.83182e-15
4.7652e-15
4.80018e-15
4.73738e-15
4.83274e-15
4.73739e-15
4.776e-15
4.75204e-15
4.73652e-15
4.68872e-15
4.74343e-15
4.68681e-15
4.78453e-15
4.7607e-15
4.81431e-15
4.76678e-15
4.83101e-15
4.78552e-15
4.8028e-15
4.80364e-15
4.82599e-15
4.78828e-15
4.88505e-15
4.80208e-15
4.85071e-15
4.79813e-15
4.83663e-15
4.7942e-15
4.84189e-15
4.78966e-15
4.8497e-15
4.74991e-15
4.86067e-15
4.70661e-15
4.87714e-15
4.67483e-15
4.91838e-15
4.6862e-15
4.93572e-15
4.72415e-15
4.91173e-15
4.75747e-15
4.87841e-15
4.75396e-15
4.88484e-15
4.73063e-15
4.86135e-15
4.70481e-15
4.8073e-15
4.69499e-15
4.79157e-15
4.7191e-15
4.8493e-15
4.74099e-15
4.89325e-15
4.74269e-15
4.90626e-15
4.74137e-15
4.87035e-15
4.77363e-15
4.85578e-15
4.78672e-15
4.86156e-15
4.79899e-15
4.86944e-15
4.81071e-15
4.87942e-15
4.82195e-15
4.90965e-15
4.83238e-15
4.92407e-15
4.83297e-15
4.9046e-15
4.83331e-15
4.90594e-15
4.85164e-15
4.91864e-15
4.8974e-15
4.961e-15
4.91518e-15
4.996e-15
4.94193e-15
4.99602e-15
4.9595e-15
5.00707e-15
4.97737e-15
5.02905e-15
4.98604e-15
5.07161e-15
4.99437e-15
5.08846e-15
5.01186e-15
5.0795e-15
5.02002e-15
5.06293e-15
5.02865e-15
5.06679e-15
5.03774e-15
5.09111e-15
5.03752e-15
5.11707e-15
5.04682e-15
5.10659e-15
5.05625e-15
5.10726e-15
5.07558e-15
5.12859e-15
5.06627e-15
5.13198e-15
5.06666e-15
5.1367e-15
5.05734e-15
5.14272e-15
5.05743e-15
5.16963e-15
5.05695e-15
5.18874e-15
5.06544e-15
5.20017e-15
5.06341e-15
5.19403e-15
5.06064e-15
5.18969e-15
5.07675e-15
5.19691e-15
5.0825e-15
5.23523e-15
5.0875e-15
5.25583e-15
5.09167e-15
5.24888e-15
5.09513e-15
5.23394e-15
5.09811e-15
5.25025e-15
5.09066e-15
5.24851e-15
5.08262e-15
5.24841e-15
5.07395e-15
5.24003e-15
5.06465e-15
5.21342e-15
5.06475e-15
5.20814e-15
5.06439e-15
5.22411e-15
5.06347e-15
5.20165e-15
5.06217e-15
5.17043e-15
5.05564e-15
5.17009e-15
5.04384e-15
5.17572e-15
5.04165e-15
5.17737e-15
5.02405e-15
5.17502e-15
5.02593e-15
5.17366e-15
5.00225e-15
5.17324e-15
4.9829e-15
5.16381e-15
4.98285e-15
5.16038e-15
4.97207e-15
5.17291e-15
4.96548e-15
5.17644e-15
4.95799e-15
5.15093e-15
4.9397e-15
5.12636e-15
4.93071e-15
5.13278e-15
4.92092e-15
5.14009e-15
4.92537e-15
5.13326e-15
4.90897e-15
5.12227e-15
4.90186e-15
5.12721e-15
4.89398e-15
5.12799e-15
4.8803e-15
5.11458e-15
4.86082e-15
5.10706e-15
4.86065e-15
5.10544e-15
4.85469e-15
5.11971e-15
4.83791e-15
5.12984e-15
4.8253e-15
5.12586e-15
4.80682e-15
5.12284e-15
4.79749e-15
5.11076e-15
4.79231e-15
5.10964e-15
4.78129e-15
5.10444e-15
4.77445e-15
5.10514e-15
4.75679e-15
5.10173e-15
4.75827e-15
5.07925e-15
4.75899e-15
5.0476e-15
4.74908e-15
5.02164e-15
4.74853e-15
5.0162e-15
4.75236e-15
5.00139e-15
4.76064e-15
4.98212e-15
4.7635e-15
4.97318e-15
4.77091e-15
4.97453e-15
4.77298e-15
4.9663e-15
4.77964e-15
4.95838e-15
4.78599e-15
4.95071e-15
4.79699e-15
4.9531e-15
4.81019e-15
4.96059e-15
4.8207e-15
4.96333e-15
4.82855e-15
4.96133e-15
4.83622e-15
4.95946e-15
4.84618e-15
4.96991e-15
4.84624e-15
4.97559e-15
4.85103e-15
4.97165e-15
4.84598e-15
4.97025e-15
4.84566e-15
4.96894e-15
4.85003e-15
4.97013e-15
4.84947e-15
4.97141e-15
4.8416e-15
4.97037e-15
4.84082e-15
4.96703e-15
4.83993e-15
4.96857e-15
4.83894e-15
4.97494e-15
4.83784e-15
4.97427e-15
4.83663e-15
4.97131e-15
4.84005e-15
4.96845e-15
4.84101e-15
4.97274e-15
4.84187e-15
4.97476e-15
4.84264e-15
4.97217e-15
4.84332e-15
4.96733e-15
4.84624e-15
4.96489e-15
4.84677e-15
4.96947e-15
4.8449e-15
4.96948e-15
4.84297e-15
4.96495e-15
4.83869e-15
4.96279e-15
4.83663e-15
4.96298e-15
4.83222e-15
4.96096e-15
4.83002e-15
4.94997e-15
4.83002e-15
4.94132e-15
4.83444e-15
4.93724e-15
4.83208e-15
4.93768e-15
4.83191e-15
4.93594e-15
4.82947e-15
4.93424e-15
4.8292e-15
4.93479e-15
4.82888e-15
4.93099e-15
4.83288e-15
4.92943e-15
4.83465e-15
4.93225e-15
4.83637e-15
4.93294e-15
4.83698e-15
4.93258e-15
4.84075e-15
4.93546e-15
4.84341e-15
4.93624e-15
4.84709e-15
4.93599e-15
4.85177e-15
4.93474e-15
4.85327e-15
4.93664e-15
4.85578e-15
4.93754e-15
4.86135e-15
4.93639e-15
4.86381e-15
4.9363e-15
4.86827e-15
4.93725e-15
4.86865e-15
4.94126e-15
4.87204e-15
4.94326e-15
4.87639e-15
4.94427e-15
4.8817e-15
4.9453e-15
4.88599e-15
4.94929e-15
4.89025e-15
4.95133e-15
4.89254e-15
4.9553e-15
4.89577e-15
4.95735e-15
4.89803e-15
4.95941e-15
4.90027e-15
4.96147e-15
4.90344e-15
4.96448e-15
4.90566e-15
4.96748e-15
4.90786e-15
4.96771e-15
4.91096e-15
4.96796e-15
4.91041e-15
4.97004e-15
4.91078e-15
4.97212e-15
4.91025e-15
4.9742e-15
4.91061e-15
4.97628e-15
4.91098e-15
4.97836e-15
4.91393e-15
4.9813e-15
4.91344e-15
4.98424e-15
4.91211e-15
4.98547e-15
4.91079e-15
4.98503e-15
4.90949e-15
4.98628e-15
4.90985e-15
4.98753e-15
4.90938e-15
4.98878e-15
4.90933e-15
4.98885e-15
4.90927e-15
4.98695e-15
4.90961e-15
4.98627e-15
4.90878e-15
4.98792e-15
4.90797e-15
4.98881e-15
4.90792e-15
4.98783e-15
4.90749e-15
4.98725e-15
4.90707e-15
4.98742e-15
4.90702e-15
4.98761e-15
4.90625e-15
4.98603e-15
4.9069e-15
4.98519e-15
4.9065e-15
4.98541e-15
4.90611e-15
4.98564e-15
4.90572e-15
4.98521e-15
4.90633e-15
4.98513e-15
4.90726e-15
4.98506e-15
4.90816e-15
4.98405e-15
4.90906e-15
4.98401e-15
4.90901e-15
4.98522e-15
4.90926e-15
4.9855e-15
4.90952e-15
4.9849e-15
4.91035e-15
4.98432e-15
4.91117e-15
4.98433e-15
4.91112e-15
4.98492e-15
4.91053e-15
4.98578e-15
4.91076e-15
4.98609e-15
4.91019e-15
4.98641e-15
4.91015e-15
4.98698e-15
4.90986e-15