/*--------------------------------*- C++ -*----------------------------------*\
| =========                 |                                                 |
| \\      /  F ield         | OpenFOAM: The Open Source CFD Toolbox           |
|  \\    /   O peration     | Version:  2106                                  |
|   \\  /    A nd           | Website:  www.openfoam.com                      |
|    \\/     M anipulation  |                                                 |
\*---------------------------------------------------------------------------*/
FoamFile
{
    version     2.0;
    format      ascii;
    arch        "LSB;label=32;scalar=64";
    class       volSymmTensorField;
    location    "6000";
    object      turbulenceProperties:R;
}
// * * * * * * * * * * * * * * * * * * * * * * * * * * * * * * * * * * * * * //

dimensions      [0 2 -2 0 0 0 0];

internalField   nonuniform List<symmTensor> 
2560
(
(4.86751e-08 -6.82726e-13 -9.88298e-16 4.86751e-08 2.01788e-26 4.86751e-08)
(4.86751e-08 -6.82726e-13 -9.88298e-16 4.86751e-08 5.15671e-27 4.86751e-08)
(7.66597e-09 -6.17998e-13 -2.69683e-15 7.66597e-09 3.29946e-27 7.66597e-09)
(7.66597e-09 -6.17998e-13 -2.69683e-15 7.66597e-09 6.80389e-27 7.66597e-09)
(5.88631e-09 -1.39987e-12 -8.40343e-15 5.88631e-09 5.65292e-27 5.88631e-09)
(5.88631e-09 -1.39987e-12 -8.40343e-15 5.88631e-09 1.01217e-27 5.88631e-09)
(1.47511e-08 -7.4396e-12 -4.53103e-14 1.47511e-08 1.91662e-26 1.47511e-08)
(1.47511e-08 -7.4396e-12 -4.53103e-14 1.47511e-08 5.43479e-27 1.47511e-08)
(3.67243e-08 -3.26807e-11 -2.01937e-13 3.67243e-08 8.84801e-26 3.67243e-08)
(3.67243e-08 -3.26807e-11 -2.01937e-13 3.67243e-08 2.41153e-26 3.67243e-08)
(7.78706e-08 -1.09126e-10 -6.84118e-13 7.78706e-08 2.94626e-25 7.78706e-08)
(7.78706e-08 -1.09126e-10 -6.84118e-13 7.78706e-08 8.13242e-26 7.78706e-08)
(1.45751e-07 -2.98053e-10 -1.89571e-12 1.45751e-07 8.18668e-25 1.45751e-07)
(1.45751e-07 -2.98053e-10 -1.89571e-12 1.45751e-07 2.24292e-25 1.45751e-07)
(2.49134e-07 -7.04201e-10 -4.54415e-12 2.49134e-07 1.97437e-24 2.49134e-07)
(2.49134e-07 -7.04201e-10 -4.54415e-12 2.49134e-07 5.35023e-25 2.49134e-07)
(3.97969e-07 -1.49334e-09 -9.77665e-12 3.97969e-07 4.26634e-24 3.97969e-07)
(3.97969e-07 -1.49334e-09 -9.77665e-12 3.97969e-07 1.14527e-24 3.97969e-07)
(6.03421e-07 -2.91366e-09 -1.9353e-11 6.03421e-07 8.47539e-24 6.03421e-07)
(6.03421e-07 -2.91366e-09 -1.9353e-11 6.03421e-07 2.25515e-24 6.03421e-07)
(8.77933e-07 -5.32161e-09 -3.58615e-11 8.77933e-07 1.57633e-23 8.77933e-07)
(8.77933e-07 -5.32161e-09 -3.58615e-11 8.77933e-07 4.15622e-24 8.77933e-07)
(1.23529e-06 -9.21265e-09 -6.29864e-11 1.23529e-06 2.77865e-23 1.23529e-06)
(1.23529e-06 -9.21265e-09 -6.29864e-11 1.23529e-06 7.25968e-24 1.23529e-06)
(1.69072e-06 -1.52577e-08 -1.05835e-10 1.69072e-06 4.68507e-23 1.69072e-06)
(1.69072e-06 -1.52577e-08 -1.05835e-10 1.69072e-06 1.21293e-23 1.69072e-06)
(2.26094e-06 -2.43463e-08 -1.71335e-10 2.26094e-06 7.60978e-23 2.26094e-06)
(2.26094e-06 -2.43463e-08 -1.71335e-10 2.26094e-06 1.95201e-23 2.26094e-06)
(2.96431e-06 -3.76362e-08 -2.68717e-10 2.96431e-06 1.19728e-22 2.96431e-06)
(2.96431e-06 -3.76362e-08 -2.68717e-10 2.96431e-06 3.04272e-23 2.96431e-06)
(3.82088e-06 -5.66124e-08 -4.10087e-10 3.82088e-06 1.83264e-22 3.82088e-06)
(3.82088e-06 -5.66124e-08 -4.10087e-10 3.82088e-06 4.61472e-23 3.82088e-06)
(4.85253e-06 -8.31544e-08 -6.11118e-10 4.85253e-06 2.73882e-22 4.85253e-06)
(4.85253e-06 -8.31544e-08 -6.11118e-10 4.85253e-06 6.83303e-23 4.85253e-06)
(6.08306e-06 -1.19614e-07 -8.91857e-10 6.08306e-06 4.0079e-22 6.08306e-06)
(6.08306e-06 -1.19614e-07 -8.91857e-10 6.08306e-06 9.90548e-23 6.08306e-06)
(7.53835e-06 -1.68903e-07 -1.27769e-09 7.53835e-06 5.75685e-22 7.53835e-06)
(7.53835e-06 -1.68903e-07 -1.27769e-09 7.53835e-06 1.40927e-22 7.53835e-06)
(9.24643e-06 -2.34599e-07 -1.80048e-09 9.24643e-06 8.13241e-22 9.24643e-06)
(9.24643e-06 -2.34599e-07 -1.80048e-09 9.24643e-06 1.97204e-22 9.24643e-06)
(1.12376e-05 -3.21055e-07 -2.49986e-09 1.12376e-05 1.13173e-21 1.12376e-05)
(1.12376e-05 -3.21055e-07 -2.49986e-09 1.12376e-05 2.71875e-22 1.12376e-05)
(1.35448e-05 -4.33536e-07 -3.42479e-09 1.35448e-05 1.55377e-21 1.35448e-05)
(1.35448e-05 -4.33536e-07 -3.42479e-09 1.35448e-05 3.69738e-22 1.35448e-05)
(1.62033e-05 -5.7836e-07 -4.63532e-09 1.62033e-05 2.10713e-21 1.62033e-05)
(1.62033e-05 -5.7836e-07 -4.63532e-09 1.62033e-05 4.9668e-22 1.62033e-05)
(1.92511e-05 -7.63067e-07 -6.20462e-09 1.92511e-05 2.82568e-21 1.92511e-05)
(1.92511e-05 -7.63067e-07 -6.20462e-09 1.92511e-05 6.5973e-22 1.92511e-05)
(2.27293e-05 -9.96599e-07 -8.22136e-09 2.27293e-05 3.75045e-21 2.27293e-05)
(2.27293e-05 -9.96599e-07 -8.22136e-09 2.27293e-05 8.67153e-22 2.27293e-05)
(2.66819e-05 -1.2895e-06 -1.07923e-08 2.66819e-05 4.93026e-21 2.66819e-05)
(2.66819e-05 -1.2895e-06 -1.07923e-08 2.66819e-05 1.12898e-21 2.66819e-05)
(3.11559e-05 -1.65416e-06 -1.40455e-08 3.11559e-05 6.4246e-21 3.11559e-05)
(3.11559e-05 -1.65416e-06 -1.40455e-08 3.11559e-05 1.45651e-21 3.11559e-05)
(3.62019e-05 -2.10501e-06 -1.81335e-08 3.62019e-05 8.30309e-21 3.62019e-05)
(3.62019e-05 -2.10501e-06 -1.81335e-08 3.62019e-05 1.86292e-21 3.62019e-05)
(4.18736e-05 -2.65884e-06 -2.32374e-08 4.18736e-05 1.06478e-20 4.18736e-05)
(4.18736e-05 -2.65884e-06 -2.32374e-08 4.18736e-05 2.36377e-21 4.18736e-05)
(4.82285e-05 -3.33505e-06 -2.95707e-08 4.82285e-05 1.35565e-20 4.82285e-05)
(4.82285e-05 -3.33505e-06 -2.95707e-08 4.82285e-05 2.97709e-21 4.82285e-05)
(5.53277e-05 -4.15597e-06 -3.73846e-08 5.53277e-05 1.71415e-20 5.53277e-05)
(5.53277e-05 -4.15597e-06 -3.73846e-08 5.53277e-05 3.72407e-21 5.53277e-05)
(6.32361e-05 -5.14714e-06 -4.69729e-08 6.32361e-05 2.15348e-20 6.32361e-05)
(6.32361e-05 -5.14714e-06 -4.69729e-08 6.32361e-05 4.6273e-21 6.32361e-05)
(7.20225e-05 -6.33771e-06 -5.86774e-08 7.20225e-05 2.68864e-20 7.20225e-05)
(7.20225e-05 -6.33771e-06 -5.86774e-08 7.20225e-05 5.71294e-21 7.20225e-05)
(8.17594e-05 -7.76068e-06 -7.28944e-08 8.17594e-05 3.33695e-20 8.17594e-05)
(8.17594e-05 -7.76068e-06 -7.28944e-08 8.17594e-05 7.01059e-21 8.17594e-05)
(9.25235e-05 -9.45333e-06 -9.00806e-08 9.25235e-05 4.11823e-20 9.25235e-05)
(9.25235e-05 -9.45333e-06 -9.00806e-08 9.25235e-05 8.55007e-21 9.25235e-05)
(0.000104395 -1.14575e-05 -1.1076e-07 0.000104395 5.05416e-20 0.000104395)
(0.000104395 -1.14575e-05 -1.1076e-07 0.000104395 1.03671e-20 0.000104395)
(0.000117459 -1.38198e-05 -1.35533e-07 0.000117459 6.16924e-20 0.000117459)
(0.000117459 -1.38198e-05 -1.35533e-07 0.000117459 1.2501e-20 0.000117459)
(0.000131803 -1.65922e-05 -1.65077e-07 0.000131803 7.49152e-20 0.000131803)
(0.000131803 -1.65922e-05 -1.65077e-07 0.000131803 1.49872e-20 0.000131803)
(0.000147519 -1.98319e-05 -2.00163e-07 0.000147519 9.05015e-20 0.000147519)
(0.000147519 -1.98319e-05 -2.00163e-07 0.000147519 1.78729e-20 0.000147519)
(0.000164701 -2.36017e-05 -2.41654e-07 0.000164701 1.08776e-19 0.000164701)
(0.000164701 -2.36017e-05 -2.41654e-07 0.000164701 2.12058e-20 0.000164701)
(0.000183448 -2.79698e-05 -2.90514e-07 0.000183448 1.11291e-19 0.000183448)
(0.000183448 -2.79698e-05 -2.90514e-07 0.000183448 2.5023e-20 0.000183448)
(0.000203859 -3.30104e-05 -3.47816e-07 0.000203859 8.54687e-20 0.000203859)
(0.000203859 -3.30104e-05 -3.47816e-07 0.000203859 2.93619e-20 0.000203859)
(0.000226037 -3.88028e-05 -4.14741e-07 0.000226037 7.14277e-20 0.000226037)
(0.000226037 -3.88028e-05 -4.14741e-07 0.000226037 3.42575e-20 0.000226037)
(0.000250086 -4.54316e-05 -4.92583e-07 0.000250086 8.25893e-20 0.000250086)
(0.000250086 -4.54316e-05 -4.92583e-07 0.000250086 3.97364e-20 0.000250086)
(0.000276108 -5.2986e-05 -5.82752e-07 0.000276108 9.48673e-20 0.000276108)
(0.000276108 -5.2986e-05 -5.82752e-07 0.000276108 4.58114e-20 0.000276108)
(0.000304208 -6.15592e-05 -6.86767e-07 0.000304208 1.0832e-19 0.000304208)
(0.000304208 -6.15592e-05 -6.86767e-07 0.000304208 5.24989e-20 0.000304208)
(0.000334488 -7.12475e-05 -8.06255e-07 0.000334488 1.22853e-19 0.000334488)
(0.000334488 -7.12475e-05 -8.06255e-07 0.000334488 5.98115e-20 0.000334488)
(0.000367048 -8.21492e-05 -9.42942e-07 0.000367048 1.38322e-19 0.000367048)
(0.000367048 -8.21492e-05 -9.42942e-07 0.000367048 6.76959e-20 0.000367048)
(0.000401981 -9.43634e-05 -1.09864e-06 0.000401981 1.54615e-19 0.000401981)
(0.000401981 -9.43634e-05 -1.09864e-06 0.000401981 7.61079e-20 0.000401981)
(0.000439379 -0.000107988 -1.27523e-06 0.000439379 1.71377e-19 0.000439379)
(0.000439379 -0.000107988 -1.27523e-06 0.000439379 8.50365e-20 0.000439379)
(0.000479326 -0.000123119 -1.47467e-06 0.000479326 1.88399e-19 0.000479326)
(0.000479326 -0.000123119 -1.47467e-06 0.000479326 9.44142e-20 0.000479326)
(0.000521895 -0.000139848 -1.6989e-06 0.000521895 2.05454e-19 0.000521895)
(0.000521895 -0.000139848 -1.6989e-06 0.000521895 1.04126e-19 0.000521895)
(0.000567152 -0.000158258 -1.94992e-06 0.000567152 2.21916e-19 0.000567152)
(0.000567152 -0.000158258 -1.94992e-06 0.000567152 1.13992e-19 0.000567152)
(0.000615151 -0.000178427 -2.22967e-06 0.000615151 2.37305e-19 0.000615151)
(0.000615151 -0.000178427 -2.22967e-06 0.000615151 1.23836e-19 0.000615151)
(0.000665933 -0.000200419 -2.54005e-06 0.000665933 2.51431e-19 0.000665933)
(0.000665933 -0.000200419 -2.54005e-06 0.000665933 1.33435e-19 0.000665933)
(0.000719523 -0.000224288 -2.88287e-06 0.000719523 2.63311e-19 0.000719523)
(0.000719523 -0.000224288 -2.88287e-06 0.000719523 1.42594e-19 0.000719523)
(0.000775933 -0.000250071 -3.25982e-06 0.000775933 2.71715e-19 0.000775933)
(0.000775933 -0.000250071 -3.25982e-06 0.000775933 1.51144e-19 0.000775933)
(0.000835156 -0.000277792 -3.67243e-06 0.000835156 2.76909e-19 0.000835156)
(0.000835156 -0.000277792 -3.67243e-06 0.000835156 1.5868e-19 0.000835156)
(0.000897167 -0.000307454 -4.12207e-06 0.000897167 2.77948e-19 0.000897167)
(0.000897167 -0.000307454 -4.12207e-06 0.000897167 1.65058e-19 0.000897167)
(0.000961926 -0.000339044 -4.60987e-06 0.000961926 2.7365e-19 0.000961926)
(0.000961926 -0.000339044 -4.60987e-06 0.000961926 1.70129e-19 0.000961926)
(0.00102937 -0.000372531 -5.13676e-06 0.00102937 2.63862e-19 0.00102937)
(0.00102937 -0.000372531 -5.13676e-06 0.00102937 1.73377e-19 0.00102937)
(0.00109942 -0.000407862 -5.70341e-06 0.00109942 2.28979e-19 0.00109942)
(0.00109942 -0.000407862 -5.70341e-06 0.00109942 1.74467e-19 0.00109942)
(0.00117198 -0.000444968 -6.31023e-06 0.00117198 7.86655e-21 0.00117198)
(0.00117198 -0.000444968 -6.31023e-06 0.00117198 1.73284e-19 0.00117198)
(0.00124693 -0.000483763 -6.95736e-06 0.00124693 -2.29322e-19 0.00124693)
(0.00124693 -0.000483763 -6.95736e-06 0.00124693 1.69418e-19 0.00124693)
(0.00132415 -0.000524144 -7.64469e-06 0.00132415 -3.07636e-19 0.00132415)
(0.00132415 -0.000524144 -7.64469e-06 0.00132415 1.62825e-19 0.00132415)
(0.00140347 -0.000565993 -8.37185e-06 0.00140347 -3.94462e-19 0.00140347)
(0.00140347 -0.000565993 -8.37185e-06 0.00140347 1.53271e-19 0.00140347)
(0.00148476 -0.000609182 -9.13824e-06 0.00148476 -4.88679e-19 0.00148476)
(0.00148476 -0.000609182 -9.13824e-06 0.00148476 1.4065e-19 0.00148476)
(0.00156782 -0.00065357 -9.94302e-06 0.00156782 -5.91634e-19 0.00156782)
(0.00156782 -0.00065357 -9.94302e-06 0.00156782 1.25548e-19 0.00156782)
(0.00165249 -0.000699011 -1.07852e-05 0.00165249 -7.01399e-19 0.00165249)
(0.00165249 -0.000699011 -1.07852e-05 0.00165249 1.07496e-19 0.00165249)
(0.00173857 -0.000745353 -1.16635e-05 0.00173857 -8.1637e-19 0.00173857)
(0.00173857 -0.000745353 -1.16635e-05 0.00173857 8.67592e-20 0.00173857)
(0.00182586 -0.000792442 -1.25766e-05 0.00182586 -9.3563e-19 0.00182586)
(0.00182586 -0.000792442 -1.25766e-05 0.00182586 6.33589e-20 0.00182586)
(0.00191417 -0.000840123 -1.35231e-05 0.00191417 -1.06217e-18 0.00191417)
(0.00191417 -0.000840123 -1.35231e-05 0.00191417 3.7686e-20 0.00191417)
(0.0020033 -0.000888242 -1.45015e-05 0.0020033 -1.19277e-18 0.0020033)
(0.0020033 -0.000888242 -1.45015e-05 0.0020033 9.49909e-21 0.0020033)
(0.00209305 -0.000936651 -1.55101e-05 0.00209305 -1.32279e-18 0.00209305)
(0.00209305 -0.000936651 -1.55101e-05 0.00209305 -2.21043e-20 0.00209305)
(0.00218322 -0.000985205 -1.65472e-05 0.00218322 -1.45552e-18 0.00218322)
(0.00218322 -0.000985205 -1.65472e-05 0.00218322 -5.67965e-20 0.00218322)
(0.00227362 -0.00103377 -1.76114e-05 0.00227362 -1.5876e-18 0.00227362)
(0.00227362 -0.00103377 -1.76114e-05 0.00227362 -9.24554e-20 0.00227362)
(0.00236406 -0.00108221 -1.87009e-05 0.00236406 -1.72245e-18 0.00236406)
(0.00236406 -0.00108221 -1.87009e-05 0.00236406 -1.28262e-19 0.00236406)
(0.00245437 -0.00113041 -1.98142e-05 0.00245437 -1.85918e-18 0.00245437)
(0.00245437 -0.00113041 -1.98142e-05 0.00245437 -1.64094e-19 0.00245437)
(0.00254436 -0.00117826 -2.09497e-05 0.00254436 -1.98838e-18 0.00254436)
(0.00254436 -0.00117826 -2.09497e-05 0.00254436 -1.98979e-19 0.00254436)
(0.00263389 -0.00122565 -2.21059e-05 0.00263389 -2.10631e-18 0.00263389)
(0.00263389 -0.00122565 -2.21059e-05 0.00263389 -2.34832e-19 0.00263389)
(0.0027228 -0.0012725 -2.32815e-05 0.0027228 -2.22883e-18 0.0027228)
(0.0027228 -0.0012725 -2.32815e-05 0.0027228 -2.70338e-19 0.0027228)
(0.00281093 -0.00131872 -2.44752e-05 0.00281093 -2.35822e-18 0.00281093)
(0.00281093 -0.00131872 -2.44752e-05 0.00281093 -2.9985e-19 0.00281093)
(0.00289817 -0.00136424 -2.56857e-05 0.00289817 -2.47037e-18 0.00289817)
(0.00289817 -0.00136424 -2.56857e-05 0.00289817 -3.30128e-19 0.00289817)
(0.00298439 -0.00140899 -2.69118e-05 0.00298439 -2.56706e-18 0.00298439)
(0.00298439 -0.00140899 -2.69118e-05 0.00298439 -3.64484e-19 0.00298439)
(0.00306947 -0.00145292 -2.81525e-05 0.00306947 -2.66733e-18 0.00306947)
(0.00306947 -0.00145292 -2.81525e-05 0.00306947 -3.94037e-19 0.00306947)
(0.00315331 -0.00149599 -2.94068e-05 0.00315331 -2.7667e-18 0.00315331)
(0.00315331 -0.00149599 -2.94068e-05 0.00315331 -4.1973e-19 0.00315331)
(0.00323583 -0.00153815 -3.06738e-05 0.00323583 -2.86442e-18 0.00323583)
(0.00323583 -0.00153815 -3.06738e-05 0.00323583 -4.41917e-19 0.00323583)
(0.00331694 -0.00157937 -3.19528e-05 0.00331694 -2.9592e-18 0.00331694)
(0.00331694 -0.00157937 -3.19528e-05 0.00331694 -4.62801e-19 0.00331694)
(0.00339656 -0.00161962 -3.32429e-05 0.00339656 -3.0356e-18 0.00339656)
(0.00339656 -0.00161962 -3.32429e-05 0.00339656 -4.85781e-19 0.00339656)
(0.00347464 -0.00165889 -3.45436e-05 0.00347464 -3.1083e-18 0.00347464)
(0.00347464 -0.00165889 -3.45436e-05 0.00347464 -5.07808e-19 0.00347464)
(0.00355111 -0.00169716 -3.58542e-05 0.00355111 -3.18215e-18 0.00355111)
(0.00355111 -0.00169716 -3.58542e-05 0.00355111 -3.6053e-19 0.00355111)
(0.00362593 -0.00173442 -3.71743e-05 0.00362593 -3.24782e-18 0.00362593)
(0.00362593 -0.00173442 -3.71743e-05 0.00362593 2.12233e-19 0.00362593)
(0.00369906 -0.00177065 -3.85033e-05 0.00369906 -3.31913e-18 0.00369906)
(0.00369906 -0.00177065 -3.85033e-05 0.00369906 6.60132e-19 0.00369906)
(0.00377047 -0.00180587 -3.98409e-05 0.00377047 -3.3877e-18 0.00377047)
(0.00377047 -0.00180587 -3.98409e-05 0.00377047 7.01539e-19 0.00377047)
(0.00384012 -0.00184007 -4.11866e-05 0.00384012 -3.44251e-18 0.00384012)
(0.00384012 -0.00184007 -4.11866e-05 0.00384012 7.52697e-19 0.00384012)
(0.003908 -0.00187324 -4.25402e-05 0.003908 -3.47737e-18 0.003908)
(0.003908 -0.00187324 -4.25402e-05 0.003908 8.05708e-19 0.003908)
(0.00397409 -0.00190541 -4.39014e-05 0.00397409 -3.48472e-18 0.00397409)
(0.00397409 -0.00190541 -4.39014e-05 0.00397409 8.50723e-19 0.00397409)
(0.00403838 -0.00193657 -4.52699e-05 0.00403838 -3.49842e-18 0.00403838)
(0.00403838 -0.00193657 -4.52699e-05 0.00403838 9.0248e-19 0.00403838)
(0.00410085 -0.00196674 -4.66456e-05 0.00410085 -3.4973e-18 0.00410085)
(0.00410085 -0.00196674 -4.66456e-05 0.00410085 9.62692e-19 0.00410085)
(0.00416151 -0.00199592 -4.80282e-05 0.00416151 -3.45834e-18 0.00416151)
(0.00416151 -0.00199592 -4.80282e-05 0.00416151 1.01398e-18 0.00416151)
(0.00422036 -0.00202412 -4.94176e-05 0.00422036 -3.3873e-18 0.00422036)
(0.00422036 -0.00202412 -4.94176e-05 0.00422036 1.06058e-18 0.00422036)
(0.0042774 -0.00205137 -5.08136e-05 0.0042774 -3.28805e-18 0.0042774)
(0.0042774 -0.00205137 -5.08136e-05 0.0042774 1.10883e-18 0.0042774)
(0.00433264 -0.00207767 -5.22161e-05 0.00433264 -3.2458e-18 0.00433264)
(0.00433264 -0.00207767 -5.22161e-05 0.00433264 1.14679e-18 0.00433264)
(0.00438608 -0.00210303 -5.3625e-05 0.00438608 -3.25964e-18 0.00438608)
(0.00438608 -0.00210303 -5.3625e-05 0.00438608 1.17694e-18 0.00438608)
(0.00443774 -0.00212748 -5.50402e-05 0.00443774 -3.2371e-18 0.00443774)
(0.00443774 -0.00212748 -5.50402e-05 0.00443774 1.23713e-18 0.00443774)
(0.00448762 -0.00215102 -5.64616e-05 0.00448762 -3.14935e-18 0.00448762)
(0.00448762 -0.00215102 -5.64616e-05 0.00448762 1.2947e-18 0.00448762)
(0.00453575 -0.00217367 -5.78892e-05 0.00453575 -3.07556e-18 0.00453575)
(0.00453575 -0.00217367 -5.78892e-05 0.00453575 1.2939e-18 0.00453575)
(0.00458214 -0.00219545 -5.93227e-05 0.00458214 -3.07458e-18 0.00458214)
(0.00458214 -0.00219545 -5.93227e-05 0.00458214 1.36118e-18 0.00458214)
(0.00462681 -0.00221636 -6.07623e-05 0.00462681 -3.04648e-18 0.00462681)
(0.00462681 -0.00221636 -6.07623e-05 0.00462681 1.48835e-18 0.00462681)
(0.00466977 -0.00223644 -6.22077e-05 0.00466977 -2.91985e-18 0.00466977)
(0.00466977 -0.00223644 -6.22077e-05 0.00466977 1.52895e-18 0.00466977)
(0.00471104 -0.00225568 -6.36589e-05 0.00471104 -2.8229e-18 0.00471104)
(0.00471104 -0.00225568 -6.36589e-05 0.00471104 1.5754e-18 0.00471104)
(0.00475065 -0.0022741 -6.51159e-05 0.00475065 -2.79988e-18 0.00475065)
(0.00475065 -0.0022741 -6.51159e-05 0.00475065 1.67484e-18 0.00475065)
(0.00478861 -0.00229173 -6.65785e-05 0.00478861 -2.78219e-18 0.00478861)
(0.00478861 -0.00229173 -6.65785e-05 0.00478861 1.76877e-18 0.00478861)
(0.00482495 -0.00230857 -6.80468e-05 0.00482495 -2.80662e-18 0.00482495)
(0.00482495 -0.00230857 -6.80468e-05 0.00482495 1.85922e-18 0.00482495)
(0.00485969 -0.00232463 -6.95206e-05 0.00485969 -2.80752e-18 0.00485969)
(0.00485969 -0.00232463 -6.95206e-05 0.00485969 1.95877e-18 0.00485969)
(0.00489285 -0.00233994 -7.09998e-05 0.00489285 -2.71735e-18 0.00489285)
(0.00489285 -0.00233994 -7.09998e-05 0.00489285 2.06885e-18 0.00489285)
(0.00492444 -0.0023545 -7.24845e-05 0.00492444 -2.59737e-18 0.00492444)
(0.00492444 -0.0023545 -7.24845e-05 0.00492444 2.20713e-18 0.00492444)
(0.00495451 -0.00236833 -7.39743e-05 0.00495451 -2.45889e-18 0.00495451)
(0.00495451 -0.00236833 -7.39743e-05 0.00495451 2.32093e-18 0.00495451)
(0.00498306 -0.00238144 -7.54694e-05 0.00498306 -2.34792e-18 0.00498306)
(0.00498306 -0.00238144 -7.54694e-05 0.00498306 2.36127e-18 0.00498306)
(0.00501011 -0.00239384 -7.69696e-05 0.00501011 -2.36933e-18 0.00501011)
(0.00501011 -0.00239384 -7.69696e-05 0.00501011 2.48461e-18 0.00501011)
(0.0050357 -0.00240555 -7.84748e-05 0.0050357 -2.36114e-18 0.0050357)
(0.0050357 -0.00240555 -7.84748e-05 0.0050357 2.66258e-18 0.0050357)
(0.00505985 -0.00241658 -7.99849e-05 0.00505985 -2.27177e-18 0.00505985)
(0.00505985 -0.00241658 -7.99849e-05 0.00505985 2.80871e-18 0.00505985)
(0.00508257 -0.00242694 -8.14998e-05 0.00508257 -2.20639e-18 0.00508257)
(0.00508257 -0.00242694 -8.14998e-05 0.00508257 2.95225e-18 0.00508257)
(0.00510388 -0.00243664 -8.30193e-05 0.00510388 -2.1107e-18 0.00510388)
(0.00510388 -0.00243664 -8.30193e-05 0.00510388 3.10905e-18 0.00510388)
(0.00512382 -0.0024457 -8.45434e-05 0.00512382 -1.99524e-18 0.00512382)
(0.00512382 -0.0024457 -8.45434e-05 0.00512382 3.24494e-18 0.00512382)
(0.00514241 -0.00245412 -8.60719e-05 0.00514241 -1.83365e-18 0.00514241)
(0.00514241 -0.00245412 -8.60719e-05 0.00514241 3.34944e-18 0.00514241)
(0.00515965 -0.00246191 -8.76047e-05 0.00515965 -1.71366e-18 0.00515965)
(0.00515965 -0.00246191 -8.76047e-05 0.00515965 3.41036e-18 0.00515965)
(0.00517559 -0.0024691 -8.91417e-05 0.00517559 -1.74238e-18 0.00517559)
(0.00517559 -0.0024691 -8.91417e-05 0.00517559 3.49956e-18 0.00517559)
(0.00519023 -0.00247568 -9.06827e-05 0.00519023 -1.77524e-18 0.00519023)
(0.00519023 -0.00247568 -9.06827e-05 0.00519023 3.81346e-18 0.00519023)
(0.00520361 -0.00248167 -9.22276e-05 0.00520361 -1.54632e-18 0.00520361)
(0.00520361 -0.00248167 -9.22276e-05 0.00520361 4.03896e-18 0.00520361)
(0.00521573 -0.00248707 -9.37762e-05 0.00521573 -1.34944e-18 0.00521573)
(0.00521573 -0.00248707 -9.37762e-05 0.00521573 4.04286e-18 0.00521573)
(0.00522663 -0.00249191 -9.53284e-05 0.00522663 -1.34375e-18 0.00522663)
(0.00522663 -0.00249191 -9.53284e-05 0.00522663 4.05916e-18 0.00522663)
(0.00523632 -0.00249618 -9.6884e-05 0.00523632 -1.38309e-18 0.00523632)
(0.00523632 -0.00249618 -9.6884e-05 0.00523632 4.14361e-18 0.00523632)
(0.00524482 -0.00249991 -9.84428e-05 0.00524482 -1.44768e-18 0.00524482)
(0.00524482 -0.00249991 -9.84428e-05 0.00524482 4.30192e-18 0.00524482)
(0.00525216 -0.00250309 -0.000100005 0.00525216 -1.26955e-18 0.00525216)
(0.00525216 -0.00250309 -0.000100005 0.00525216 4.32781e-18 0.00525216)
(0.00525835 -0.00250574 -0.00010157 0.00525835 -1.25857e-18 0.00525835)
(0.00525835 -0.00250574 -0.00010157 0.00525835 4.39167e-18 0.00525835)
(0.00526342 -0.00250786 -0.000103137 0.00526342 -1.31871e-18 0.00526342)
(0.00526342 -0.00250786 -0.000103137 0.00526342 4.67356e-18 0.00526342)
(0.00526738 -0.00250947 -0.000104707 0.00526738 -1.08536e-18 0.00526738)
(0.00526738 -0.00250947 -0.000104707 0.00526738 4.71515e-18 0.00526738)
(0.00527026 -0.00251058 -0.00010628 0.00527026 -1.0632e-18 0.00527026)
(0.00527026 -0.00251058 -0.00010628 0.00527026 4.61025e-18 0.00527026)
(0.00527207 -0.00251119 -0.000107855 0.00527207 -1.17019e-18 0.00527207)
(0.00527207 -0.00251119 -0.000107855 0.00527207 4.90125e-18 0.00527207)
(0.00527284 -0.00251132 -0.000109432 0.00527284 -1.03884e-18 0.00527284)
(0.00527284 -0.00251132 -0.000109432 0.00527284 5.27752e-18 0.00527284)
(0.00527258 -0.00251097 -0.00011101 0.00527258 -7.21189e-19 0.00527258)
(0.00527258 -0.00251097 -0.00011101 0.00527258 5.19845e-18 0.00527258)
(0.00527131 -0.00251015 -0.000112591 0.00527131 -7.56668e-19 0.00527131)
(0.00527131 -0.00251015 -0.000112591 0.00527131 5.17332e-18 0.00527131)
(0.00526905 -0.00250887 -0.000114172 0.00526905 -9.22945e-19 0.00526905)
(0.00526905 -0.00250887 -0.000114172 0.00526905 5.5086e-18 0.00526905)
(0.00526583 -0.00250714 -0.000115755 0.00526583 -8.03802e-19 0.00526583)
(0.00526583 -0.00250714 -0.000115755 0.00526583 5.79882e-18 0.00526583)
(0.00526165 -0.00250497 -0.00011734 0.00526165 1.02944e-19 0.00526165)
(0.00526165 -0.00250497 -0.00011734 0.00526165 6.27097e-18 0.00526165)
(0.00525654 -0.00250236 -0.000118924 0.00525654 1.21571e-18 0.00525654)
(0.00525654 -0.00250236 -0.000118924 0.00525654 7.21935e-18 0.00525654)
(0.00525051 -0.00249933 -0.00012051 0.00525051 1.48965e-18 0.00525051)
(0.00525051 -0.00249933 -0.00012051 0.00525051 7.97413e-18 0.00525051)
(0.00524359 -0.00249588 -0.000122096 0.00524359 1.47862e-18 0.00524359)
(0.00524359 -0.00249588 -0.000122096 0.00524359 8.28385e-18 0.00524359)
(0.00523579 -0.00249203 -0.000123683 0.00523579 1.31654e-18 0.00523579)
(0.00523579 -0.00249203 -0.000123683 0.00523579 8.61488e-18 0.00523579)
(0.00522713 -0.00248777 -0.000125269 0.00522713 1.39212e-18 0.00522713)
(0.00522713 -0.00248777 -0.000125269 0.00522713 8.95856e-18 0.00522713)
(0.00521762 -0.00248312 -0.000126855 0.00521762 1.57394e-18 0.00521762)
(0.00521762 -0.00248312 -0.000126855 0.00521762 9.24389e-18 0.00521762)
(0.00520729 -0.00247809 -0.000128441 0.00520729 1.78919e-18 0.00520729)
(0.00520729 -0.00247809 -0.000128441 0.00520729 9.40545e-18 0.00520729)
(0.00519616 -0.00247269 -0.000130027 0.00519616 2.30602e-18 0.00519616)
(0.00519616 -0.00247269 -0.000130027 0.00519616 9.59006e-18 0.00519616)
(0.00518423 -0.00246692 -0.000131611 0.00518423 2.54846e-18 0.00518423)
(0.00518423 -0.00246692 -0.000131611 0.00518423 9.82729e-18 0.00518423)
(0.00517153 -0.00246079 -0.000133195 0.00517153 2.41661e-18 0.00517153)
(0.00517153 -0.00246079 -0.000133195 0.00517153 1.01356e-17 0.00517153)
(0.00515808 -0.0024543 -0.000134778 0.00515808 2.54961e-18 0.00515808)
(0.00515808 -0.0024543 -0.000134778 0.00515808 1.03052e-17 0.00515808)
(0.00514388 -0.00244748 -0.000136359 0.00514388 2.85742e-18 0.00514388)
(0.00514388 -0.00244748 -0.000136359 0.00514388 1.00542e-17 0.00514388)
(0.00512897 -0.00244032 -0.000137939 0.00512897 3.34471e-18 0.00512897)
(0.00512897 -0.00244032 -0.000137939 0.00512897 1.00234e-17 0.00512897)
(0.00511335 -0.00243283 -0.000139517 0.00511335 3.7505e-18 0.00511335)
(0.00511335 -0.00243283 -0.000139517 0.00511335 1.05361e-17 0.00511335)
(0.00509704 -0.00242503 -0.000141093 0.00509704 3.94593e-18 0.00509704)
(0.00509704 -0.00242503 -0.000141093 0.00509704 1.11124e-17 0.00509704)
(0.00508006 -0.00241691 -0.000142667 0.00508006 3.82999e-18 0.00508006)
(0.00508006 -0.00241691 -0.000142667 0.00508006 1.12172e-17 0.00508006)
(0.00506242 -0.0024085 -0.000144239 0.00506242 3.79942e-18 0.00506242)
(0.00506242 -0.0024085 -0.000144239 0.00506242 1.07976e-17 0.00506242)
(0.00504415 -0.00239978 -0.000145808 0.00504415 3.70821e-18 0.00504415)
(0.00504415 -0.00239978 -0.000145808 0.00504415 1.08139e-17 0.00504415)
(0.00502525 -0.00239078 -0.000147375 0.00502525 3.23965e-18 0.00502525)
(0.00502525 -0.00239078 -0.000147375 0.00502525 1.11527e-17 0.00502525)
(0.00500574 -0.0023815 -0.000148938 0.00500574 3.34283e-18 0.00500574)
(0.00500574 -0.0023815 -0.000148938 0.00500574 1.14185e-17 0.00500574)
(0.00498565 -0.00237194 -0.000150499 0.00498565 3.38113e-18 0.00498565)
(0.00498565 -0.00237194 -0.000150499 0.00498565 1.18554e-17 0.00498565)
(0.00496497 -0.00236212 -0.000152056 0.00496497 3.24388e-18 0.00496497)
(0.00496497 -0.00236212 -0.000152056 0.00496497 1.23365e-17 0.00496497)
(0.00494374 -0.00235205 -0.00015361 0.00494374 3.47e-18 0.00494374)
(0.00494374 -0.00235205 -0.00015361 0.00494374 1.28569e-17 0.00494374)
(0.00492196 -0.00234172 -0.00015516 0.00492196 3.33403e-18 0.00492196)
(0.00492196 -0.00234172 -0.00015516 0.00492196 1.35818e-17 0.00492196)
(0.00489966 -0.00233115 -0.000156707 0.00489966 3.50486e-18 0.00489966)
(0.00489966 -0.00233115 -0.000156707 0.00489966 1.39746e-17 0.00489966)
(0.00487684 -0.00232034 -0.000158249 0.00487684 3.86838e-18 0.00487684)
(0.00487684 -0.00232034 -0.000158249 0.00487684 1.41377e-17 0.00487684)
(0.00485352 -0.00230931 -0.000159788 0.00485352 2.92837e-18 0.00485352)
(0.00485352 -0.00230931 -0.000159788 0.00485352 1.50559e-17 0.00485352)
(0.00482971 -0.00229805 -0.000161322 0.00482971 2.85408e-18 0.00482971)
(0.00482971 -0.00229805 -0.000161322 0.00482971 1.54547e-17 0.00482971)
(0.00480544 -0.00228658 -0.000162851 0.00480544 3.72587e-18 0.00480544)
(0.00480544 -0.00228658 -0.000162851 0.00480544 1.52509e-17 0.00480544)
(0.00478071 -0.00227491 -0.000164376 0.00478071 3.51958e-18 0.00478071)
(0.00478071 -0.00227491 -0.000164376 0.00478071 1.53949e-17 0.00478071)
(0.00475554 -0.00226303 -0.000165896 0.00475554 3.92576e-18 0.00475554)
(0.00475554 -0.00226303 -0.000165896 0.00475554 1.54307e-17 0.00475554)
(0.00472995 -0.00225096 -0.000167411 0.00472995 5.26278e-18 0.00472995)
(0.00472995 -0.00225096 -0.000167411 0.00472995 1.58165e-17 0.00472995)
(0.00470395 -0.0022387 -0.000168921 0.00470395 6.94085e-18 0.00470395)
(0.00470395 -0.0022387 -0.000168921 0.00470395 1.53727e-17 0.00470395)
(0.00467754 -0.00222627 -0.000170426 0.00467754 6.75565e-18 0.00467754)
(0.00467754 -0.00222627 -0.000170426 0.00467754 1.46884e-17 0.00467754)
(0.00465075 -0.00221366 -0.000171925 0.00465075 5.89788e-18 0.00465075)
(0.00465075 -0.00221366 -0.000171925 0.00465075 1.46159e-17 0.00465075)
(0.0046236 -0.00220088 -0.000173419 0.0046236 5.88575e-18 0.0046236)
(0.0046236 -0.00220088 -0.000173419 0.0046236 1.44437e-17 0.0046236)
(0.00459608 -0.00218795 -0.000174907 0.00459608 5.63405e-18 0.00459608)
(0.00459608 -0.00218795 -0.000174907 0.00459608 1.42658e-17 0.00459608)
(0.00456822 -0.00217486 -0.000176389 0.00456822 5.40234e-18 0.00456822)
(0.00456822 -0.00217486 -0.000176389 0.00456822 1.35101e-17 0.00456822)
(0.00454003 -0.00216162 -0.000177864 0.00454003 4.79478e-18 0.00454003)
(0.00454003 -0.00216162 -0.000177864 0.00454003 1.30456e-17 0.00454003)
(0.00451153 -0.00214824 -0.000179334 0.00451153 4.20232e-18 0.00451153)
(0.00451153 -0.00214824 -0.000179334 0.00451153 1.30354e-17 0.00451153)
(0.00448272 -0.00213473 -0.000180797 0.00448272 3.28682e-18 0.00448272)
(0.00448272 -0.00213473 -0.000180797 0.00448272 1.3391e-17 0.00448272)
(0.00445362 -0.00212109 -0.000182254 0.00445362 2.82046e-18 0.00445362)
(0.00445362 -0.00212109 -0.000182254 0.00445362 1.36122e-17 0.00445362)
(0.00442423 -0.00210732 -0.000183704 0.00442423 2.49216e-18 0.00442423)
(0.00442423 -0.00210732 -0.000183704 0.00442423 1.32415e-17 0.00442423)
(0.00439459 -0.00209344 -0.000185148 0.00439459 1.69842e-18 0.00439459)
(0.00439459 -0.00209344 -0.000185148 0.00439459 1.3192e-17 0.00439459)
(0.00436468 -0.00207944 -0.000186584 0.00436468 1.74727e-18 0.00436468)
(0.00436468 -0.00207944 -0.000186584 0.00436468 1.35566e-17 0.00436468)
(0.00433453 -0.00206534 -0.000188013 0.00433453 1.63475e-18 0.00433453)
(0.00433453 -0.00206534 -0.000188013 0.00433453 1.46351e-17 0.00433453)
(0.00430415 -0.00205114 -0.000189436 0.00430415 1.47402e-18 0.00430415)
(0.00430415 -0.00205114 -0.000189436 0.00430415 1.50761e-17 0.00430415)
(0.00427355 -0.00203684 -0.00019085 0.00427355 7.46133e-19 0.00427355)
(0.00427355 -0.00203684 -0.00019085 0.00427355 1.42824e-17 0.00427355)
(0.00424275 -0.00202246 -0.000192258 0.00424275 3.56405e-19 0.00424275)
(0.00424275 -0.00202246 -0.000192258 0.00424275 1.5028e-17 0.00424275)
(0.00421174 -0.00200798 -0.000193657 0.00421174 2.81072e-19 0.00421174)
(0.00421174 -0.00200798 -0.000193657 0.00421174 1.72264e-17 0.00421174)
(0.00418055 -0.00199343 -0.000195049 0.00418055 6.87642e-19 0.00418055)
(0.00418055 -0.00199343 -0.000195049 0.00418055 1.68631e-17 0.00418055)
(0.00414918 -0.00197881 -0.000196433 0.00414918 4.15161e-19 0.00414918)
(0.00414918 -0.00197881 -0.000196433 0.00414918 1.49302e-17 0.00414918)
(0.00411764 -0.00196411 -0.000197809 0.00411764 1.33316e-20 0.00411764)