/*--------------------------------*- C++ -*----------------------------------*\
| =========                 |                                                 |
| \\      /  F ield         | OpenFOAM: The Open Source CFD Toolbox           |
|  \\    /   O peration     | Version:  2012                                  |
|   \\  /    A nd           | Website:  www.openfoam.com                      |
|    \\/     M anipulation  |                                                 |
\*---------------------------------------------------------------------------*/
FoamFile
{
    version     2.0;
    format      ascii;
    class       volScalarField;
    location    "11900";
    object      k;
}
// * * * * * * * * * * * * * * * * * * * * * * * * * * * * * * * * * * * * * //

dimensions      [0 2 -2 0 0 0 0];


internalField   nonuniform List<scalar> 
2560
(
0.0130727
0.0130624
0.373057
0.372785
2.50962
2.50799
7.0276
7.02408
11.9652
11.9605
16.3618
16.3563
20.2325
20.2263
23.7145
23.7078
26.913
26.9058
29.8995
29.8919
32.7232
32.715
35.4187
35.4102
38.0117
38.0028
40.5215
40.5122
42.9631
42.9535
45.3487
45.3386
47.6878
47.6774
49.9887
49.978
52.2583
52.2472
54.5024
54.491
56.7261
56.7143
58.9336
58.9215
61.1289
61.1165
63.3154
63.3026
65.4962
65.483
67.6742
67.6606
69.852
69.8381
72.0322
72.0179
74.217
74.2023
76.4088
76.3937
78.6097
78.5943
80.8218
80.8059
83.047
83.0307
85.2869
85.2702
87.5431
87.5259
89.8167
89.7991
92.1088
92.0907
94.4201
94.4016
96.7516
96.7326
99.1041
99.0846
101.478
101.458
103.875
103.855
106.296
106.275
108.74
108.718
111.207
111.185
113.697
113.674
116.206
116.183
118.73
118.706
121.263
121.239
123.799
123.774
126.33
126.305
128.848
128.822
131.345
131.318
133.815
133.787
136.257
136.228
138.678
138.649
141.101
141.071
143.561
143.529
146.101
146.068
148.751
148.717
151.512
151.476
154.298
154.262
156.967
156.929
159.318
159.28
161.143
161.104
162.269
162.231
162.603
162.566
162.143
162.108
160.967
160.934
159.209
159.177
157.025
156.997
154.572
154.545
151.984
151.959
149.366
149.343
146.794
146.772
144.313
144.292
141.948
141.927
139.698
139.678
137.549
137.53
135.481
135.463
133.468
133.451
131.482
131.467
129.499
129.486
127.497
127.486
125.458
125.448
123.366
123.357
121.211
121.204
118.986
118.98
116.688
116.683
114.318
114.313
111.88
111.877
109.385
109.382
106.847
106.844
104.282
104.279
101.71
101.707
99.1506
99.1485
96.6236
96.6217
94.1445
94.1428
91.7254
91.7238
89.3737
89.3723
87.0935
87.0922
84.8843
84.8831
82.7442
82.743
80.6703
80.6692
78.6602
78.6592
76.7126
76.7117
74.8272
74.8264
73.005
73.0043
71.2474
71.2467
69.5556
69.555
67.9299
67.9294
66.369
66.3685
64.8692
64.8688
63.4247
63.4243
62.0275
62.0271
60.6679
60.6676
59.3362
59.3359
58.0235
58.0233
56.7233
56.7232
55.4327
55.4326
54.1526
54.1526
52.8878
52.8878
51.6461
51.6462
50.4368
50.4369
49.2689
49.269
48.1492
48.1493
47.0823
47.0823
46.0681
46.0682
45.1037
45.1038
44.1843
44.1843
43.3039
43.304
42.457
42.4571
41.6391
41.6391
40.8472
40.8472
40.0798
40.0799
39.3369
39.3369
38.619
38.619
37.927
37.927
37.2618
37.2619
36.6242
36.6242
36.0141
36.0141
35.4312
35.4312
34.8747
34.8747
34.3434
34.3433
33.8356
33.8355
33.3495
33.3494
32.8835
32.8834
32.4361
32.436
32.0061
32.006
31.593
31.5929
31.1968
31.1966
30.8181
30.8179
30.458
30.4577
30.1179
30.1176
29.7995
29.7992
29.5045
29.5041
29.2345
29.2341
28.9909
28.9904
28.7748
28.7743
28.5869
28.5863
28.4275
28.4268
28.2964
28.2957
28.193
28.1921
28.1158
28.1149
28.063
28.0619
28.0316
28.0304
28.0178
28.0165
28.0167
28.0153
28.0222
28.0207
28.0273
28.0257
28.0242
28.0225
28.0048
28.0031
27.9614
27.9597
27.8874
27.8857
27.778
27.7765
27.6316
27.6305
27.4498
27.4492
27.2377
27.2376
27.0033
27.0035
26.7574
26.7577
26.5121
26.5123
26.2793
26.2795
26.0696
26.0697
25.8903
25.8903
25.745
25.7449
25.6331
25.6329
25.5486
25.5483
25.4829
25.4825
25.4249
25.4246
25.3629
25.3627
25.2856
25.2857
25.1841
25.1846
25.0516
25.0525
24.8842
24.8854
24.6806
24.6819
24.4424
24.4437
24.1733
24.1745
23.8788
23.8799
23.5652
23.5662
23.2393
23.2401
22.9077
22.9085
22.5769
22.5776
22.2526
22.2531
21.9397
21.9402
21.6426
21.643
21.3647
21.365
21.1087
21.109
20.8769
20.8772
20.6708
20.671
20.4913
20.4914
20.3388
20.3389
20.2129
20.2129
20.1122
20.1121
20.0344
20.0343
19.9758
19.9756
19.9312
19.931
19.8941
19.8939
19.8564
19.856
19.8088
19.8084
19.7417
19.7412
19.6457
19.6452
19.5128
19.5122
19.3373
19.3366
19.1164
19.1158
18.8516
18.851
18.5483
18.5479
18.2158
18.2156
17.8649
17.8649
17.5071
17.5071
17.1532
17.1532
16.8121
16.8121
16.4894
16.4894
16.1863
16.1862
15.9006
15.9006
15.628
15.6279
15.3627
15.3626
15.0997
15.0997
14.8358
14.8359
14.5701
14.5702
14.3033
14.3035
14.0379
14.0381
13.7775
13.7776
13.5258
13.5259
13.2859
13.286
13.0599
13.06
12.8491
12.8491
12.6537
12.6537
12.4735
12.4736
12.3083
12.3083
12.1577
12.1577
12.0215
12.0215
11.8996
11.8996
11.7919
11.7919
11.6981
11.6981
11.618
11.618
11.5508
11.5508
11.4959
11.4959
11.4522
11.4523
11.4191
11.4191
11.3957
11.3957
11.3813
11.3813
11.3755
11.3755
11.3781
11.3781
11.3891
11.3891
11.4087
11.4087
11.4372
11.4372
11.475
11.475
11.5224
11.5224
11.5799
11.5799
11.6473
11.6473
11.7249
11.7248
11.8123
11.8123
11.9095
11.9095
12.0162
12.0162
12.1323
12.1323
12.2574
12.2574
12.3917
12.3917
12.5348
12.5348
12.6868
12.6868
12.8476
12.8476
13.0172
13.0172
13.1955
13.1955
13.3824
13.3824
13.5778
13.5778
13.7817
13.7817
13.994
13.994
14.2148
14.2148
14.4441
14.4441
14.6823
14.6823
14.9295
14.9295
15.1863
15.1863
15.453
15.453
15.7301
15.7301
16.018
16.018
16.3167
16.3167
16.6265
16.6265
16.9475
16.9475
17.2797
17.2797
17.6231
17.6231
17.9781
17.9781
18.3449
18.3449
18.7241
18.7241
19.1163
19.1163
19.5223
19.5223
19.943
19.943
20.3793
20.3793
20.8323
20.8323
21.3029
21.3029
21.792
21.792
22.3007
22.3007
22.8298
22.8298
23.3803
23.3803
23.9525
23.9525
24.5462
24.5462
25.1594
25.1594
25.7854
25.7854
26.4077
26.4077
26.9859
26.9859
27.4275
27.4275
27.3934
27.3934
0.0130624
0.0130727
0.372785
0.373057
2.50798
2.50962
7.02408
7.0276
11.9605
11.9652
16.3563
16.3619
20.2263
20.2325
23.7078
23.7145
26.9058
26.913
29.8919
29.8995
32.715
32.7232
35.4101
35.4187
38.0027
38.0117
40.5122
40.5215
42.9535
42.9632
45.3386
45.3487
47.6774
47.6878
49.978
49.9888
52.2472
52.2583
54.491
54.5024
56.7143
56.7261
58.9215
58.9337
61.1164
61.129
63.3026
63.3154
65.483
65.4962
67.6606
67.6742
69.8381
69.8521
72.0179
72.0322
74.2023
74.2171
76.3937
76.4089
78.5942
78.6098
80.8059
80.8218
83.0307
83.047
85.2702
85.2869
87.5259
87.5431
89.7991
89.8167
92.0907
92.1088
94.4016
94.4202
96.7326
96.7517
99.0846
99.1041
101.458
101.478
103.855
103.875
106.275
106.296
108.718
108.74
111.185
111.208
113.674
113.697
116.183
116.206
118.706
118.73
121.239
121.263
123.774
123.799
126.305
126.33
128.822
128.849
131.318
131.346
133.787
133.815
136.228
136.257
138.649
138.678
141.07
141.101
143.529
143.561
146.068
146.101
148.717
148.751
151.476
151.512
154.262
154.298
156.929
156.967
159.28
159.318
161.104
161.143
162.231
162.269
162.566
162.603
162.108
162.143
160.934
160.967
159.177
159.209
156.996
157.025
154.545
154.572
151.959
151.984
149.343
149.366
146.772
146.794
144.292
144.313
141.927
141.948
139.677
139.698
137.53
137.549
135.463
135.481
133.451
133.468
131.467
131.482
129.486
129.499
127.485
127.497
125.447
125.458
123.357
123.366
121.204
121.211
118.98
118.986
116.683
116.688
114.313
114.318
111.876
111.88
109.382
109.385
106.844
106.847
104.279
104.282
101.707
101.71
99.1485
99.1506
96.6217
96.6236
94.1428
94.1445
91.7238
91.7254
89.3723
89.3737
87.0921
87.0935
84.8831
84.8843
82.743
82.7441
80.6692
80.6702
78.6592
78.6602
76.7117
76.7126
74.8264
74.8272
73.0043
73.005
71.2467
71.2473
69.5549
69.5555
67.9293
67.9299
66.3685
66.369
64.8688
64.8692
63.4243
63.4247
62.0271
62.0274
60.6675
60.6678
59.3359
59.3361
58.0233
58.0234
56.7232
56.7233
55.4326
55.4327
54.1525
54.1525
52.8878
52.8877
51.6461
51.6461
50.4369
50.4368
49.2689
49.2688
48.1492
48.1491
47.0823
47.0822
46.0681
46.068
45.1037
45.1037
44.1843
44.1842
43.3039
43.3038
42.457
42.4569
41.639
41.639
40.8471
40.8471
40.0798
40.0797
39.3368
39.3368
38.6189
38.6189
37.9269
37.9269
37.2618
37.2617
36.6241
36.624
36.014
36.0139
35.4311
35.4311
34.8746
34.8746
34.3432
34.3433
33.8354
33.8354
33.3493
33.3494
32.8833
32.8834
32.4358
32.436
32.0058
32.006
31.5927
31.5929
31.1965
31.1967
30.8178
30.818
30.4576
30.4579
30.1175
30.1178
29.799
29.7994
29.504
29.5044
29.2339
29.2344
28.9903
28.9908
28.7741
28.7747
28.5862
28.5868
28.4267
28.4274
28.2955
28.2963
28.192
28.1928
28.1147
28.1157
28.0618
28.0628
28.0303
28.0314
28.0163
28.0176
28.0151
28.0165
28.0205
28.022
28.0255
28.0272
28.0223
28.0241
28.0029
28.0047
27.9595
27.9613
27.8855
27.8873
27.7764
27.7779
27.6304
27.6315
27.4491
27.4497
27.2375
27.2376
27.0034
27.0032
26.7576
26.7573
26.5122
26.5119
26.2794
26.2792
26.0695
26.0694
25.8901
25.8901
25.7446
25.7447
25.6326
25.6328
25.548
25.5483
25.4822
25.4826
25.4242
25.4246
25.3623
25.3626
25.2854
25.2853
25.1843
25.1838
25.0522
25.0513
24.8852
24.884
24.6817
24.6804
24.4435
24.4422
24.1744
24.1731
23.8798
23.8786
23.5661
23.565
23.24
23.2391
22.9084
22.9076
22.5775
22.5768
22.253
22.2524
21.9401
21.9396
21.6429
21.6425
21.3649
21.3645
21.1088
21.1086
20.877
20.8768
20.6708
20.6706
20.4912
20.4911
20.3386
20.3385
20.2125
20.2126
20.1118
20.1118
20.0339
20.034
19.9752
19.9754
19.9306
19.9308
19.8934
19.8937
19.8556
19.856
19.8079
19.8084
19.7408
19.7413
19.6448
19.6454
19.5119
19.5126
19.3364
19.3371
19.1156
19.1164
18.8508
18.8516
18.5478
18.5484
18.2156
18.2159
17.865
17.865
17.5072
17.5072
17.1533
17.1533
16.8121
16.8121
16.4894
16.4894
16.1862
16.1862
15.9005
15.9006
15.6277
15.6279
15.3625
15.3626
15.0996
15.0996
14.8358
14.8357
14.5702
14.57
14.3035
14.3033
14.0381
14.0379
13.7777
13.7775
13.526
13.5258
13.286
13.2859
13.0601
13.06
12.8492
12.8491
12.6537
12.6537
12.4736
12.4735
12.3083
12.3083
12.1577
12.1577
12.0215
12.0215
11.8996
11.8995
11.7918
11.7918
11.6981
11.6981
11.6179
11.6179
11.5508
11.5508
11.4958
11.4958
11.4522
11.4522
11.4191
11.4191
11.3956
11.3956
11.3813
11.3813
11.3755
11.3755
11.3781
11.3781
11.3891
11.3891
11.4087
11.4087
11.4372
11.4372
11.475
11.475
11.5225
11.5225
11.5799
11.5799
11.6473
11.6473
11.7249
11.7249
11.8123
11.8123
11.9095
11.9095
12.0162
12.0162
12.1323
12.1323
12.2574
12.2574
12.3916
12.3916
12.5348
12.5348
12.6868
12.6868
12.8476
12.8476
13.0172
13.0172
13.1955
13.1955
13.3824
13.3824
13.5778
13.5778
13.7817
13.7817
13.994
13.994
14.2148
14.2148
14.4441
14.4441
14.6823
14.6823
14.9295
14.9295
15.1863
15.1863
15.453
15.453
15.7301
15.7301
16.0179
16.0179
16.3167
16.3167
16.6265
16.6265
16.9475
16.9475
17.2796
17.2796
17.6231
17.6231
17.9781
17.9781
18.3449
18.3449
18.7241
18.7241
19.1163
19.1163
19.5223
19.5223
19.943
19.943
20.3793
20.3793
20.8322
20.8323
21.3028
21.3028
21.7919
21.7919
22.3005
22.3005
22.8296
22.8296
23.38
23.38
23.9521
23.9522
24.5458
24.5458
25.1587
25.1587
25.7847
25.7847
26.4068
26.4068
26.9848
26.9848
27.4263
27.4263
27.3925
27.3924
27.3935
27.3935
27.4276
27.4276
26.9862
26.9862
26.408
26.408
25.7858
25.7858
25.1597
25.1597
24.5466
24.5466
23.9529
23.9529
23.3807
23.3807
22.8302
22.8302
22.3011
22.3011
21.7924
21.7924
21.3032
21.3032
20.8327
20.8327
20.3797
20.3797
19.9434
19.9434
19.5227
19.5227
19.1168
19.1168
18.7246
18.7246
18.3454
18.3454
17.9785
17.9785
17.6236
17.6236
17.2802
17.2802
16.948
16.948
16.6271
16.6271
16.3172
16.3172
16.0185
16.0185
15.7307
15.7307
15.4535
15.4535
15.1868
15.1868
14.93
14.93
14.6828
14.6828
14.4447
14.4447
14.2153
14.2153
13.9945
13.9945
13.7821
13.7821
13.5782
13.5782
13.3827
13.3827
13.1958
13.1958
13.0175
13.0175
12.8479
12.8479
12.6871
12.6871
12.535
12.535
12.3919
12.3919
12.2576
12.2576
12.1324
12.1324
12.0163
12.0163
11.9096
11.9096
11.8124
11.8124
11.7249
11.7249
11.6473
11.6473
11.5798
11.5798
11.5223
11.5223
11.4748
11.4748
11.437
11.437
11.4085
11.4085
11.3888
11.3888
11.3778
11.3778
11.3751
11.3752
11.3809
11.3809
11.3952
11.3952
11.4185
11.4185
11.4516
11.4516
11.4952
11.4952
11.5501
11.5501
11.6172
11.6172
11.6973
11.6974
11.791
11.791
11.8987
11.8987
12.0205
12.0206
12.1567
12.1567
12.3073
12.3073
12.4725
12.4725
12.6525
12.6526
12.8479
12.848
13.0587
13.0588
13.2846
13.2847
13.5245
13.5246
13.7761
13.7763
14.0366
14.0368
14.3021
14.3023
14.569
14.5691
14.8348
14.8349
15.0988
15.0988
15.3619
15.3618
15.6273
15.6272
15.9
15.8999
16.1857
16.1857
16.4889
16.4889
16.8116
16.8117
17.1528
17.1529
17.5068
17.5069
17.8648
17.8648
18.2159
18.2156
18.5486
18.5481
18.852
18.8513
19.1169
19.1162
19.3377
19.337
19.5132
19.5126
19.6461
19.6455
19.742
19.7415
19.8091
19.8087
19.8567
19.8564
19.8945
19.8942
19.9315
19.9313
19.976
19.9758
20.0346
20.0344
20.1123
20.1123
20.2129
20.2129
20.3388
20.3389
20.4913
20.4914
20.6707
20.6709
20.8768
20.877
21.1085
21.1088
21.3644
21.3647
21.6422
21.6427
21.9393
21.9398
22.2521
22.2527
22.5763
22.577
22.907
22.9078
23.2385
23.2394
23.5644
23.5655
23.878
23.8791
24.1724
24.1737
24.4414
24.4428
24.6796
24.6809
24.8832
24.8844
25.0505
25.0514
25.1829
25.1834
25.2843
25.2844
25.3614
25.3612
25.4233
25.423
25.4812
25.4809
25.547
25.5467
25.6314
25.6312
25.7433
25.7432
25.8886
25.8886
26.0679
26.068
26.2776
26.2778
26.5103
26.5106
26.7557
26.7559
27.0016
27.0017
27.2359
27.2358
27.4481
27.4475
27.6299
27.6288
27.7764
27.7749
27.8857
27.884
27.9597
27.9579
28.0031
28.0012
28.0224
28.0206
28.0254
28.0237
28.0203
28.0187
28.0147
28.0132
28.0157
28.0144
28.0295
28.0282
28.0608
28.0597
28.1135
28.1125
28.1906
28.1897
28.2939
28.2931
28.4249
28.4242
28.5842
28.5836
28.772
28.7714
28.9879
28.9874
29.2314
29.2309
29.5012
29.5008
29.796
29.7957
30.1143
30.114
30.4542
30.4539
30.8141
30.8139
31.1925
31.1923
31.5885
31.5883
32.0013
32.0012
32.431
32.4309
32.8781
32.878
33.3438
33.3438
33.8296
33.8295
34.3371
34.3371
34.8682
34.8682
35.4244
35.4244
36.007
36.007
36.6168
36.6169
37.2543
37.2543
37.9192
37.9192
38.6108
38.6109
39.3284
39.3285
40.0709
40.071
40.8378
40.8379
41.6292
41.6293
42.4467
42.4468
43.2931
43.2932
44.173
44.1731
45.0921
45.0922
46.056
46.0561
47.0698
47.0699
48.1362
48.1363
49.2554
49.2555
50.4229
50.423
51.6318
51.6319
52.873
52.8731
54.1373
54.1374
55.417
55.417
56.7072
56.7071
58.0069
58.0068
59.3192
59.319
60.6505
60.6503
62.0097
62.0094
63.4065
63.4062
64.8505
64.8501
66.3497
66.3492
67.91
67.9095
69.5351
69.5345
71.2263
71.2257
72.9834
72.9827
74.805
74.8042
76.6897
76.6889
78.6367
78.6358
80.6461
80.6451
82.7193
82.7182
84.8588
84.8576
87.0674
87.0661
89.3469
89.3455
91.6978
91.6963
94.1162
94.1145
96.5945
96.5927
99.1208
99.1188
101.679
101.677
104.25
104.248
106.815
106.812
109.353
109.35
111.848
111.844
114.286
114.281
116.655
116.65
118.953
118.946
121.177
121.169
123.33
123.321
125.421
125.41
127.459
127.447
129.46
129.446
131.442
131.426
133.426
133.408
135.438
135.419
137.505
137.485
139.652
139.631
141.901
141.879
144.265
144.243
146.745
146.721
149.316
149.291
151.932
151.906
154.52
154.492
156.972
156.942
159.155
159.122
160.914
160.878
162.091
162.053
162.552
162.513
162.219
162.179
161.093
161.053
159.269
159.229
156.919
156.879
154.251
154.212
151.465
151.427
148.706
148.669
146.056
146.021
143.517
143.483
141.057
141.025
138.635
138.604
136.215
136.185
133.775
133.745
131.306
131.278
128.811
128.783
126.294
126.267
123.764
123.737
121.229
121.203
118.696
118.671
116.174
116.149
113.666
113.642
111.177
111.154
108.711
108.688
106.267
106.245
103.848
103.826
101.452
101.431
99.0781
99.0576
96.7264
96.7064
94.3956
94.3761
92.0849
92.0658
89.7935
89.7749
87.5205
87.5023
85.2649
85.2472
83.0255
83.0083
80.8009
80.7841
78.5894
78.573
76.389
76.3731
74.1978
74.1823
72.0135
71.9984
69.834
69.8192
67.6567
67.6424
65.4793
65.4653
63.299
63.2855
61.1131
61.0999
58.9183
58.9055
56.7113
56.6988
54.4881
54.4761
52.2446
52.2329
49.9755
49.9642
47.6751
47.6642
45.3366
45.326
42.9516
42.9414
40.5105
40.5007
38.0013
37.9919
35.4089
35.4
32.7141
32.7055
29.8911
29.883
26.9053
26.8977
23.7075
23.7005
20.2263
20.2198
16.3566
16.3508
11.961
11.9561
7.02468
7.02098
2.50837
2.50665
0.372858
0.372573
0.0130661
0.0130552
27.3925
27.3925
27.4264
27.4264
26.9851
26.9851
26.4071
26.4071
25.785
25.785
25.1591
25.1591
24.5461
24.5461
23.9526
23.9526
23.3804
23.3805
22.8301
22.8301
22.3009
22.3009
21.7923
21.7923
21.3032
21.3032
20.8326
20.8326
20.3797
20.3797
19.9434
19.9434
19.5227
19.5227
19.1167
19.1167
18.7245
18.7245
18.3453
18.3453
17.9785
17.9785
17.6236
17.6236
17.2801
17.2801
16.948
16.948
16.627
16.627
16.3172
16.3172
16.0184
16.0185
15.7306
15.7306
15.4535
15.4535
15.1868
15.1868
14.93
14.93
14.6828
14.6828
14.4446
14.4447
14.2153
14.2153
13.9945
13.9945
13.7821
13.7821
13.5782
13.5782
13.3827
13.3827
13.1958
13.1958
13.0175
13.0175
12.8479
12.8479
12.6871
12.6871
12.535
12.535
12.3918
12.3919
12.2576
12.2576
12.1324
12.1324
12.0163
12.0163
11.9096
11.9096
11.8124
11.8124
11.7249
11.7249
11.6473
11.6473
11.5798
11.5798
11.5224
11.5224
11.4749
11.4749
11.437
11.437
11.4085
11.4085
11.3888
11.3888
11.3778
11.3778
11.3751
11.3751
11.3808
11.3808
11.3951
11.3951
11.4185
11.4185
11.4515
11.4515
11.4951
11.4951
11.55
11.55
11.6172
11.6172
11.6973
11.6973
11.791
11.791
11.8987
11.8987
12.0206
12.0205
12.1567
12.1567
12.3073
12.3073
12.4725
12.4725
12.6526
12.6525
12.848
12.8479
13.0589
13.0587
13.2848
13.2846
13.5246
13.5245
13.7764
13.7761
14.0368
14.0366
14.3023
14.3021
14.5691
14.5689
14.8348
14.8347
15.0987
15.0987
15.3617
15.3618
15.6271
15.6272
15.8998
15.9
16.1856
16.1857
16.4889
16.4889
16.8117
16.8117
17.153
17.1529
17.507
17.5069
17.8648
17.8649
18.2157
18.216
18.5481
18.5487
18.8512
18.852
19.116
19.1168
19.3368
19.3375
19.5123
19.513
19.6451
19.6458
19.7411
19.7417
19.8082
19.8087
19.8559
19.8563
19.8937
19.8941
19.9309
19.9311
19.9754
19.9756
20.034
20.0342
20.1119
20.112
20.2126
20.2126
20.3386
20.3386
20.4912
20.4911
20.6707
20.6705
20.8768
20.8766
21.1086
21.1083
21.3646
21.3642
21.6425
21.6421
21.9397
21.9392
22.2526
22.2519
22.5769
22.5762
22.9077
22.9069
23.2393
23.2384
23.5653
23.5643
23.879
23.8778
24.1735
24.1723
24.4426
24.4412
24.6807
24.6794
24.8842
24.8829
25.0512
25.0502
25.1831
25.1826
25.2841
25.2841
25.3609
25.3611
25.4227
25.423
25.4806
25.481
25.5464
25.5467
25.631
25.6312
25.743
25.7431
25.8885
25.8885
26.0678
26.0677
26.2777
26.2775
26.5105
26.5102
26.7558
26.7556
27.0016
27.0015
27.2357
27.2358
27.4474
27.448
27.6287
27.6298
27.7747
27.7763
27.8838
27.8857
27.9577
27.9596
28.0011
28.003
28.0204
28.0223
28.0236
28.0253
28.0185
28.0201
28.013
28.0145
28.0142
28.0156
28.0281
28.0293
28.0595
28.0607
28.1124
28.1134
28.1895
28.1905
28.293
28.2938
28.4241
28.4248
28.5834
28.5841
28.7713
28.7718
28.9873
28.9878
29.2308
29.2312
29.5007
29.5011
29.7956
29.7959
30.1139
30.1141
30.4538
30.4541
30.8137
30.814
31.1922
31.1924
31.5882
31.5884
32.001
32.0012
32.4308
32.4309
32.8779
32.878
33.3437
33.3438
33.8294
33.8295
34.337
34.3371
34.8681
34.8682
35.4244
35.4244
36.0069
36.0069
36.6168
36.6168
37.2542
37.2542
37.9191
37.9191
38.6108
38.6108
39.3284
39.3284
40.0709
40.0709
40.8378
40.8377
41.6293
41.6292
42.4467
42.4467
43.2931
43.2931
44.1731
44.173
45.0921
45.092
46.0561
46.056
47.0698
47.0697
48.1363
48.1362
49.2555
49.2554
50.423
50.4229
51.6318
51.6318
52.8731
52.873
54.1373
54.1373
55.417
55.417
56.7071
56.7072
58.0068
58.0069
59.319
59.3192
60.6502
60.6505
62.0094
62.0097
63.4061
63.4066
64.8501
64.8505
66.3492
66.3497
67.9095
67.9101
69.5345
69.5352
71.2257
71.2264
72.9827
72.9834
74.8042
74.805
76.6889
76.6898
78.6358
78.6368
80.6451
80.6462
82.7182
82.7194
84.8576
84.8589
87.066
87.0675
89.3455
89.347
91.6963
91.698
94.1145
94.1163
96.5927
96.5946
99.1187
99.1209
101.677
101.679
104.248
104.251
106.812
106.815
109.35
109.353
111.844
111.848
114.281
114.286
116.65
116.656
118.946
118.953
121.169
121.177
123.321
123.331
125.41
125.421
127.447
127.46
129.446
129.46
131.426
131.442
133.409
133.426
135.419
135.438
137.485
137.505
139.631
139.652
141.879
141.901
144.243
144.266
146.721
146.745
149.291
149.316
151.906
151.933
154.492
154.52
156.942
156.973
159.122
159.155
160.878
160.914
162.053
162.091
162.513
162.553
162.179
162.219
161.053
161.094
159.229
159.27
156.879
156.919
154.212
154.251
151.427
151.465
148.669
148.706
146.021
146.056
143.483
143.517
141.025
141.058
138.604
138.636
136.185
136.215
133.745
133.775
131.278
131.307
128.783
128.811
126.267
126.294
123.737
123.764
121.203
121.229
118.671
118.697
116.149
116.174
113.642
113.666
111.154
111.178
108.688
108.711
106.245
106.268
103.826
103.848
101.431
101.452
99.0577
99.0784
96.7065
96.7267
94.3762
94.3959
92.066
92.0852
89.775
89.7937
87.5025
87.5207
85.2473
85.2651
83.0084
83.0258
80.7843
80.8012
78.5731
78.5896
76.3732
76.3892
74.1824
74.198
71.9985
72.0138
69.8193
69.8342
67.6425
67.6569
65.4654
65.4795
63.2855
63.2992
61.1
61.1133
58.9056
58.9185
56.6989
56.7114
54.4761
54.4883
52.2329
52.2447
49.9643
49.9757
47.6643
47.6753
45.326
45.3367
42.9415
42.9517
40.5008
40.5107
37.992
38.0014
35.4
35.4091
32.7056
32.7142
29.8831
29.8912
26.8977
26.9054
23.7005
23.7076
20.2199
20.2264
16.3508
16.3566
11.9561
11.9611
7.02098
7.02471
2.50665
2.50838
0.372573
0.37286
0.0130552
0.0130661
)
;

boundaryField
{
    walls
    {
        type            kqRWallFunction;
        value           nonuniform List<scalar> 8(0.0130727 0.0130624 0.0130624 0.0130727 0.0130661 0.0130552 0.0130552 0.0130661);
    }
    inlet
    {
        type            cyclic;
    }
    outlet
    {
        type            cyclic;
    }
    sides
    {
        type            empty;
    }
}


// ************************************************************************* //
