/*--------------------------------*- C++ -*----------------------------------*\
| =========                 |                                                 |
| \\      /  F ield         | OpenFOAM: The Open Source CFD Toolbox           |
|  \\    /   O peration     | Version:  2012                                  |
|   \\  /    A nd           | Website:  www.openfoam.com                      |
|    \\/     M anipulation  |                                                 |
\*---------------------------------------------------------------------------*/
FoamFile
{
    version     2.0;
    format      ascii;
    class       volVectorField;
    location    "11900";
    object      U;
}
// * * * * * * * * * * * * * * * * * * * * * * * * * * * * * * * * * * * * * //

dimensions      [0 1 -1 0 0 0 0];


internalField   nonuniform List<vector> 
2560
(
(0.0292174 -2.63193e-05 0.00052293)
(0.0291831 -1.19002e-05 5.48314e-08)
(0.0878218 -1.22618e-05 0.000748901)
(0.0877192 1.8229e-05 1.80565e-08)
(0.147077 -2.60158e-05 0.000530098)
(0.146908 2.88255e-05 6.18208e-09)
(0.206987 -3.53009e-05 0.000276372)
(0.206755 3.49984e-05 1.96383e-09)
(0.26756 -3.84791e-05 0.00014601)
(0.267269 3.83987e-05 4.62355e-10)
(0.328803 -4.04101e-05 8.87555e-05)
(0.32846 4.03201e-05 1.27748e-10)
(0.390686 -4.17444e-05 6.09763e-05)
(0.390296 4.16784e-05 1.27668e-10)
(0.453151 -4.27156e-05 4.55959e-05)
(0.45272 4.25914e-05 1.7929e-11)
(0.516135 -4.34567e-05 3.61284e-05)
(0.515669 4.34474e-05 9.28893e-11)
(0.579641 -4.40828e-05 2.9826e-05)
(0.579146 4.39679e-05 4.7187e-12)
(0.643746 -4.46104e-05 2.53794e-05)
(0.643227 4.46492e-05 8.51879e-11)
(0.708477 -4.50871e-05 2.21004e-05)
(0.707939 4.49584e-05 -3.67821e-21)
(0.773864 -4.53966e-05 1.9598e-05)
(0.773313 4.5568e-05 7.98369e-11)
(0.839975 -4.57188e-05 1.76247e-05)
(0.839414 5.91806e-05 4.98468e-08)
(0.906801 -4.6308e-05 1.60633e-05)
(0.906234 1.95614e-05 -3.08497e-37)
(0.974251 -4.63714e-05 1.4756e-05)
(0.973682 0.000102034 1.20173e-07)
(1.04219 -4.7366e-05 1.37212e-05)
(1.04162 -3.94843e-05 6.16871e-10)
(1.11047 -4.66914e-05 1.28271e-05)
(1.10991 0.000137544 4.1383e-08)
(1.17911 -4.81535e-05 1.2078e-05)
(1.17855 -5.20752e-05 8.76092e-10)
(1.24831 -4.68542e-05 1.1427e-05)
(1.24777 0.000151297 4.02027e-08)
(1.31841 -4.90714e-05 1.08744e-05)
(1.31787 -6.46134e-05 6.26394e-10)
(1.38958 -4.69187e-05 1.03847e-05)
(1.38905 0.000164844 3.84815e-08)
(1.46186 -4.9999e-05 9.9657e-06)
(1.46135 -7.70395e-05 3.51459e-36)
(1.53523 -4.67718e-05 9.56281e-06)
(1.53473 0.000204879 1.47657e-07)
(1.60967 -5.11111e-05 9.26714e-06)
(1.60918 -0.000142838 1.53195e-21)
(1.68517 -4.65364e-05 8.94291e-06)
(1.6847 0.000276889 1.83334e-07)
(1.76175 -5.24552e-05 8.72832e-06)
(1.7613 -0.000221014 1.90585e-09)
(1.83937 -4.60729e-05 8.497e-06)
(1.83893 0.000328432 7.74588e-08)
(1.91797 -5.39539e-05 8.31085e-06)
(1.91754 -0.000245522 3.84506e-09)
(1.9975 -4.52991e-05 8.12766e-06)
(1.99709 0.000354282 7.97779e-08)
(2.07799 -5.57032e-05 7.98413e-06)
(2.07759 -0.000270921 3.54325e-09)
(2.15963 -4.41933e-05 7.83749e-06)
(2.15924 0.000380527 7.57256e-08)
(2.24285 -5.77885e-05 7.7258e-06)
(2.24247 -0.000296151 1.60729e-09)
(2.32825 -4.2659e-05 7.60761e-06)
(2.32788 0.000406439 7.02084e-08)
(2.41652 -6.03096e-05 7.52138e-06)
(2.41616 -0.000320845 -1.44455e-37)
(2.50825 -4.06443e-05 7.39057e-06)
(2.5079 0.000463574 2.23871e-07)
(2.60387 -6.34286e-05 7.36657e-06)
(2.60352 -0.00040933 3.88679e-37)
(2.70357 -3.80787e-05 7.13914e-06)
(2.70322 0.000652884 7.36319e-07)
(2.80733 -6.72131e-05 7.26556e-06)
(2.80698 -0.000701169 -1.16835e-21)
(2.915 -3.48837e-05 7.01536e-06)
(2.91466 0.000983261 9.63764e-07)
(3.02647 -7.16446e-05 7.21929e-06)
(3.02613 -0.00107368 -5.21814e-37)
(3.14181 -3.10588e-05 7.03753e-06)
(3.14147 0.00132072 8.10135e-07)
(3.26155 -7.66662e-05 7.22126e-06)
(3.26121 -0.00137861 0)
(3.38679 -2.66183e-05 7.15479e-06)
(3.38645 0.00155365 4.36136e-07)
(3.51924 -8.22524e-05 7.26058e-06)
(3.51889 -0.00153936 -4.38437e-37)
(3.66093 -2.15748e-05 7.25129e-06)
(3.66058 0.00168493 2.71843e-07)
(3.81391 -8.84779e-05 7.33002e-06)
(3.81355 -0.00163953 1.97571e-36)
(3.97988 -1.58549e-05 7.31461e-06)
(3.97952 0.00180107 3.6053e-07)
(4.15999 -9.54455e-05 7.42978e-06)
(4.15962 -0.0017704 -2.06371e-37)
(4.35484 -9.37248e-06 6.97023e-06)
(4.35446 0.00225247 2.27004e-06)
(4.56454 -0.00010275 7.57942e-06)
(4.56416 -0.00254937 1.13266e-21)
(4.78862 -2.23547e-06 7.36053e-06)
(4.78826 0.00289143 1.51025e-06)
(5.02551 -0.000109985 7.80893e-06)
(5.02516 -0.00304862 3.7916e-08)
(5.27149 4.81445e-06 7.90704e-06)
(5.27117 0.00323573 7.50549e-07)
(5.51941 -0.000117147 8.23105e-06)
(5.51912 -0.00323397 1.6465e-07)
(5.75719 1.03948e-05 8.45493e-06)
(5.75696 0.00345356 1.37921e-06)
(5.96706 -0.000124712 9.05817e-06)
(5.9669 -0.00348529 3.95556e-07)
(6.12583 1.34456e-05 9.48491e-06)
(6.12577 0.00374838 2.20657e-06)
(6.20701 -0.00013189 1.04432e-05)
(6.20708 -0.00383045 6.33346e-07)
(6.18456 1.47039e-05 1.10598e-05)
(6.18477 0.00412362 2.68282e-06)
(6.03763 -0.00013589 1.22182e-05)
(6.03802 -0.00424272 6.8185e-07)
(5.75524 1.56216e-05 1.28672e-05)
(5.75582 0.00452689 2.2727e-06)
(5.33944 -0.00013486 1.38691e-05)
(5.34025 -0.00463517 4.31674e-07)
(4.80604 1.57015e-05 1.43492e-05)
(4.80708 0.00487299 1.08186e-06)
(4.18252 -0.000130202 1.49075e-05)
(4.1838 -0.00492402 0)
(3.50377 1.2671e-05 1.51222e-05)
(3.5053 0.00511433 4.86143e-08)
(2.80704 -0.000124511 1.49847e-05)
(2.8088 -0.00496862 1.17797e-06)
(2.12707 5.87057e-06 1.50333e-05)
(2.12905 0.00511008 3.37496e-07)
(1.49268 -0.000118981 1.46782e-05)
(1.49482 -0.00494334 1.83479e-06)
(0.925041 -3.06428e-06 1.46898e-05)
(0.927248 0.0050629 4.27102e-07)
(0.43756 -0.000113506 1.43328e-05)
(0.439728 -0.00490161 1.90678e-06)
(0.0369271 -1.20148e-05 1.43862e-05)
(0.0389194 0.00502283 4.02016e-07)
(-0.27535 -0.000108132 9.3283e-07)
(-0.273681 -0.000184234 4.52357e-06)
(-0.501445 -1.88408e-05 7.7392e-07)
(-0.500177 0.000266712 4.57044e-07)
(-0.645901 -0.000102251 7.38977e-07)
(-0.64506 -0.000104924 1.05823e-06)
(-0.714747 -2.45059e-05 5.88393e-07)
(-0.714333 0.000198052 3.39503e-07)
(-0.714962 -9.69767e-05 5.55751e-07)
(-0.71496 -4.45477e-05 8.0803e-07)
(-0.654124 -2.93903e-05 4.21575e-07)
(-0.654511 0.000146861 2.49662e-07)
(-0.540135 -9.24102e-05 3.93578e-07)
(-0.540885 -2.48943e-06 5.68834e-07)
(-0.380928 -3.36149e-05 2.76242e-07)
(-0.382005 0.000112523 1.70935e-07)
(-0.18422 -8.84733e-05 2.54721e-07)
(-0.185569 2.40847e-05 3.62748e-07)
(0.042746 -3.73032e-05 1.5542e-07)
(0.0412082 9.20518e-05 1.43213e-07)
(0.293429 -8.50073e-05 1.44816e-07)
(0.291819 3.83395e-05 1.99561e-07)
(0.562144 -4.04343e-05 6.61183e-08)
(0.560554 8.21477e-05 1.92649e-07)
(0.844012 -8.19493e-05 6.54422e-08)
(0.842512 4.39971e-05 2.10663e-07)
(1.13483 -4.3102e-05 5.14607e-10)
(1.13347 7.97778e-05 2.32898e-07)
(1.43087 -7.92677e-05 6.42012e-08)
(1.42966 4.34691e-05 2.23629e-07)
(1.7286 -4.54088e-05 8.03785e-08)
(1.72754 7.89708e-05 2.2921e-07)
(2.02444 -7.69592e-05 1.60804e-07)
(2.02353 4.5848e-05 2.36049e-07)
(2.31459 -4.74661e-05 2.0488e-07)
(2.31381 7.68274e-05 2.42128e-07)
(2.59493 -7.50184e-05 3.1041e-07)
(2.59427 4.78501e-05 3.11274e-07)
(2.86101 -4.9348e-05 3.83564e-07)
(2.86046 7.48639e-05 3.83562e-07)
(3.10824 -7.34195e-05 5.07861e-07)
(3.10778 4.95052e-05 5.08823e-07)
(3.33209 -5.10739e-05 5.94823e-07)
(3.33172 7.30599e-05 5.94967e-07)
(3.52849 -7.20619e-05 7.16811e-07)
(3.52819 5.09129e-05 7.1787e-07)
(3.6941 -5.26048e-05 7.92121e-07)
(3.69387 7.14543e-05 7.92408e-07)
(3.82667 -7.08647e-05 8.84969e-07)
(3.82649 5.21539e-05 8.86118e-07)
(3.92529 -5.38528e-05 9.24827e-07)
(3.92517 7.01347e-05 9.25246e-07)
(3.99054 -6.97388e-05 9.72252e-07)
(3.99047 5.33175e-05 9.73476e-07)
(4.02444 -5.4839e-05 9.6821e-07)
(4.0244 6.908e-05 9.68744e-07)
(4.03035 -6.86519e-05 9.71985e-07)
(4.03035 5.44358e-05 9.73266e-07)
(4.01275 -5.56429e-05 9.33591e-07)
(4.01278 6.82105e-05 9.34225e-07)
(3.97693 -6.76421e-05 9.09843e-07)
(3.97697 5.5471e-05 9.11167e-07)
(3.92864 -5.63307e-05 8.573e-07)
(3.9287 6.74597e-05 8.58023e-07)
(3.87384 -6.67936e-05 8.26074e-07)
(3.8739 5.6339e-05 8.27436e-07)
(3.81837 -5.69583e-05 7.76382e-07)
(3.81843 6.67715e-05 7.7719e-07)
(3.76774 -6.61033e-05 7.51092e-07)
(3.76779 5.70429e-05 7.52498e-07)
(3.72697 -5.75483e-05 7.12504e-07)
(3.727 6.61228e-05 7.13409e-07)
(3.70046 -6.55252e-05 6.9794e-07)
(3.70048 5.76292e-05 6.9941e-07)
(3.6919 -5.80838e-05 6.72428e-07)
(3.69189 6.553e-05 6.73453e-07)
(3.70415 -6.50094e-05 6.70073e-07)
(3.70412 5.81476e-05 6.71642e-07)
(3.7392 -5.85283e-05 6.60814e-07)
(3.73915 6.50292e-05 6.61999e-07)
(3.79804 -6.45585e-05 6.75449e-07)
(3.79796 5.8596e-05 6.77164e-07)
(3.88056 -5.88922e-05 6.88529e-07)
(3.88047 6.46097e-05 6.89925e-07)
(3.98552 -6.41328e-05 7.29923e-07)
(3.98541 5.90141e-05 7.31841e-07)
(4.11042 -5.92633e-05 7.73909e-07)
(4.1103 6.4183e-05 7.75575e-07)
(4.2516 -6.37882e-05 8.45721e-07)
(4.25147 5.93458e-05 8.47904e-07)
(4.40427 -5.95666e-05 9.23589e-07)
(4.40413 6.38243e-05 9.25582e-07)
(4.56272 -6.35096e-05 1.02881e-06)
(4.56259 5.96066e-05 1.03132e-06)
(4.7206 -5.98177e-05 1.14266e-06)
(4.72048 6.35172e-05 1.14502e-06)
(4.87129 -6.32281e-05 1.28676e-06)
(4.87118 5.98653e-05 1.28961e-06)
(5.0083 -5.99919e-05 1.44745e-06)
(5.0082 6.32861e-05 1.45021e-06)
(5.12572 -6.2909e-05 1.64952e-06)
(5.12564 6.01567e-05 1.65274e-06)
(5.21865 -6.0088e-05 1.88536e-06)
(5.2186 6.31321e-05 1.88851e-06)
(5.28357 -6.25813e-05 2.1818e-06)
(5.28353 6.04517e-05 2.18536e-06)
(5.31855 -6.01549e-05 2.53469e-06)
(5.31853 6.30059e-05 2.53818e-06)
(5.32337 -6.23499e-05 2.96576e-06)
(5.32337 6.06456e-05 2.96961e-06)
(5.29948 -6.02847e-05 3.46744e-06)
(5.2995 6.28152e-05 3.47122e-06)
(5.24974 -6.23171e-05 4.0477e-06)
(5.24978 6.0636e-05 4.05179e-06)
(5.17815 -6.06064e-05 4.68399e-06)
(5.1782 6.24307e-05 4.688e-06)
(5.08938 -6.24979e-05 5.36614e-06)
(5.08944 6.04078e-05 5.37041e-06)
(4.98834 -6.11388e-05 6.05159e-06)
(4.9884 6.18335e-05 6.05579e-06)
(4.8797 -6.28807e-05 6.70886e-06)
(4.87977 5.99729e-05 6.71327e-06)
(4.7676 -6.17271e-05 7.28338e-06)
(4.76767 6.11779e-05 7.28773e-06)
(4.65529 -6.32238e-05 7.73849e-06)
(4.65537 5.95728e-05 7.74303e-06)
(4.54507 -6.21538e-05 8.02412e-06)
(4.54514 6.06808e-05 8.02861e-06)
(4.43816 -6.3303e-05 8.11774e-06)
(4.43823 5.94321e-05 8.12241e-06)
(4.33488 -6.21826e-05 7.99675e-06)
(4.33495 6.05782e-05 8.00137e-06)
(4.23479 -6.29569e-05 7.67202e-06)
(4.23486 5.9712e-05 7.67681e-06)
(4.13689 -6.17883e-05 7.15815e-06)
(4.13696 6.08951e-05 7.1629e-06)
(4.03988 -6.22915e-05 6.49837e-06)
(4.03995 6.03064e-05 6.50328e-06)
(3.94241 -6.11833e-05 5.73327e-06)
(3.94247 6.14187e-05 5.73814e-06)
(3.84325 -6.15751e-05 4.9201e-06)
(3.84332 6.09469e-05 4.92511e-06)
(3.74149 -6.06622e-05 4.10197e-06)
(3.74157 6.18544e-05 4.10693e-06)
(3.63665 -6.1057e-05 3.3276e-06)
(3.63673 6.13841e-05 3.33266e-06)
(3.52868 -6.04015e-05 2.62402e-06)
(3.52876 6.20257e-05 2.62903e-06)
(3.41797 -6.08671e-05 2.01512e-06)
(3.41806 6.14876e-05 2.0202e-06)
(3.30533 -6.04087e-05 1.50576e-06)
(3.30542 6.19249e-05 1.51078e-06)
(3.19184 -6.09117e-05 1.09835e-06)
(3.19193 6.13513e-05 1.10341e-06)
(3.07874 -6.05776e-05 7.81101e-07)
(3.07883 6.16577e-05 9.34304e-07)
(2.96736 -6.10556e-05 5.44371e-07)
(2.96745 6.11103e-05 9.48051e-07)
(2.85894 -6.07695e-05 3.70985e-07)
(2.85902 6.13625e-05 9.60989e-07)
(2.75455 -6.11864e-05 2.49304e-07)
(2.75463 6.08768e-05 9.74718e-07)
(2.65502 -6.0911e-05 2.14125e-07)
(2.65511 6.11125e-05 9.87572e-07)
(2.56087 -6.12538e-05 2.30499e-07)
(2.56095 6.07009e-05 1.00113e-06)
(2.47225 -6.09904e-05 2.31397e-07)
(2.47233 6.09191e-05 1.01376e-06)
(2.38896 -6.1262e-05 2.49864e-07)
(2.38903 6.05783e-05 1.02694e-06)
(2.31042 -6.10165e-05 2.48629e-07)
(2.31049 6.07734e-05 1.03924e-06)
(2.23571 -6.1227e-05 2.69654e-07)
(2.23578 6.04929e-05 1.05183e-06)
(2.16358 -6.10243e-05 2.73658e-07)
(2.16365 6.06402e-05 1.06373e-06)
(2.09251 -6.11872e-05 2.89664e-07)
(2.09258 6.04061e-05 1.07562e-06)
(2.02072 -6.09509e-05 3.002e-07)
(2.0208 6.05824e-05 1.08714e-06)
(1.94626 -6.11702e-05 3.02103e-07)
(1.94634 6.02906e-05 1.09831e-06)
(1.86705 -6.09157e-05 3.17864e-07)
(1.86714 6.04805e-05 1.10957e-06)
(1.78102 -6.11089e-05 3.15674e-07)
(1.78112 6.02129e-05 1.12024e-06)
(1.68616 -6.08783e-05 3.35491e-07)
(1.68628 6.03744e-05 1.1315e-06)
(1.58066 -6.10473e-05 3.34659e-07)
(1.5808 6.01289e-05 1.1421e-06)
(1.46305 -6.08381e-05 3.52911e-07)
(1.46321 6.02649e-05 1.15382e-06)
(1.33231 -6.09853e-05 3.53208e-07)
(1.33251 6.00382e-05 1.16502e-06)
(1.18801 -6.0795e-05 3.69995e-07)
(1.18825 6.01518e-05 1.17788e-06)
(1.03043 -6.09227e-05 3.71221e-07)
(1.03073 5.99405e-05 1.19056e-06)
(0.860598 -6.07492e-05 3.86632e-07)
(0.860985 6.00343e-05 1.20542e-06)
(0.680411 -6.08588e-05 3.8861e-07)
(0.680925 5.98355e-05 1.22055e-06)
(0.492581 -6.06999e-05 4.02713e-07)
(0.493277 5.99122e-05 1.23829e-06)
(0.300614 -6.07929e-05 4.05259e-07)
(0.301546 5.97225e-05 1.25676e-06)
(0.108724 -6.06461e-05 4.18056e-07)
(0.109887 5.97852e-05 1.27799e-06)
(-0.0782916 -6.07278e-05 4.20923e-07)
(-0.0770729 5.96049e-05 1.30023e-06)
(-0.255343 -6.0585e-05 4.33443e-07)
(-0.254352 5.9649e-05 1.32371e-06)
(-0.417435 -6.06514e-05 4.39208e-07)
(-0.416731 5.94717e-05 1.34668e-06)
(-0.559666 -6.05242e-05 4.52851e-07)
(-0.559201 5.95118e-05 1.37042e-06)
(-0.67754 -6.05709e-05 4.6127e-07)
(-0.677246 5.93283e-05 1.39337e-06)
(-0.767249 -6.04588e-05 4.75472e-07)
(-0.767073 5.93675e-05 1.4165e-06)
(-0.825855 -6.04865e-05 4.86002e-07)
(-0.825766 5.91739e-05 1.43854e-06)
(-0.851509 -6.03888e-05 4.99957e-07)
(-0.851489 5.92165e-05 1.46044e-06)
(-0.843526 -6.03979e-05 5.11262e-07)
(-0.843571 5.90086e-05 1.48126e-06)
(-0.802394 -6.03171e-05 5.24861e-07)
(-0.802506 5.90561e-05 1.50208e-06)
(-0.729769 -6.03046e-05 5.34589e-07)
(-0.729961 5.88324e-05 1.52237e-06)
(-0.628336 -6.02422e-05 5.49109e-07)
(-0.628639 5.88876e-05 1.54335e-06)
(-0.501654 -6.02079e-05 5.55859e-07)
(-0.50212 5.8643e-05 1.5648e-06)
(-0.353912 -6.01643e-05 5.7212e-07)
(-0.354615 5.87103e-05 1.58781e-06)
(-0.189675 -6.01073e-05 5.78849e-07)
(-0.190659 5.84394e-05 1.61251e-06)
(-0.013762 -6.00844e-05 5.93519e-07)
(-0.0149106 5.85217e-05 1.63948e-06)
(0.169034 -6.00118e-05 5.99899e-07)
(0.16809 5.82319e-05 1.66904e-06)
(0.354478 -5.99792e-05 6.16999e-07)
(0.353806 5.83003e-05 1.6969e-06)
(0.53864 -5.99212e-05 6.2777e-07)
(0.538181 5.80161e-05 1.72778e-06)
(0.718082 -5.98679e-05 6.48258e-07)
(0.71776 5.80677e-05 1.75638e-06)
(0.889921 -5.98254e-05 6.63866e-07)
(0.889685 5.77843e-05 1.78834e-06)
(1.05185 -5.97518e-05 6.87957e-07)
(1.05167 5.78202e-05 1.81719e-06)
(1.20216 -5.97197e-05 7.08549e-07)
(1.20202 5.75409e-05 1.84955e-06)
(1.33969 -5.96258e-05 7.3618e-07)
(1.33958 5.75624e-05 1.87781e-06)
(1.46373 -5.961e-05 7.61677e-07)
(1.46364 5.72792e-05 1.90973e-06)
(1.574 -5.94797e-05 7.92567e-07)
(1.57392 5.73044e-05 1.9364e-06)
(1.67051 -5.94882e-05 9.21944e-07)
(1.67045 5.70078e-05 1.96701e-06)
(1.75349 -5.9322e-05 1.12087e-06)
(1.75344 5.70381e-05 1.99113e-06)
(1.82331 -5.93493e-05 1.34131e-06)
(1.82327 5.67322e-05 2.01968e-06)
(1.88033 -5.91492e-05 1.58307e-06)
(1.8803 5.67676e-05 2.0404e-06)
(1.92487 -5.91993e-05 1.83916e-06)
(1.92485 5.64476e-05 2.06638e-06)
(1.95707 -5.89702e-05 2.10686e-06)
(1.95706 5.64851e-05 2.08738e-06)
(1.97684 -5.90379e-05 2.37757e-06)
(1.97684 5.61555e-05 2.35772e-06)
(1.98383 -5.88061e-05 2.64555e-06)
(1.98383 5.61708e-05 2.62444e-06)
(1.97739 -5.88723e-05 2.90526e-06)
(1.9774 5.58507e-05 2.88399e-06)
(1.95665 -5.86599e-05 3.14959e-06)
(1.95666 5.58231e-05 3.12737e-06)
(1.92055 -5.87256e-05 3.37707e-06)
(1.92057 5.55114e-05 3.355e-06)
(1.86796 -5.85224e-05 3.58537e-06)
(1.86799 5.54522e-05 3.56271e-06)
(1.79786 -5.86004e-05 3.77561e-06)
(1.7979 5.51365e-05 3.75353e-06)
(1.70948 -5.83977e-05 3.95163e-06)
(1.70953 5.50547e-05 3.92945e-06)
(1.60245 -5.84883e-05 4.11897e-06)
(1.60251 5.47346e-05 4.09789e-06)
(1.47702 -5.82639e-05 4.28636e-06)
(1.4771 5.46521e-05 4.26576e-06)
(1.33417 -5.83808e-05 4.45861e-06)
(1.33427 5.43131e-05 4.43972e-06)
(1.17571 -5.81064e-05 4.64729e-06)
(1.17583 5.42567e-05 4.6295e-06)
(1.00435 -5.82625e-05 4.8524e-06)
(1.00449 5.38839e-05 4.83693e-06)
(0.823654 -5.79298e-05 5.08384e-06)
(0.823832 5.38594e-05 5.07006e-06)
(0.637991 -5.81133e-05 5.33741e-06)
(0.638224 5.34613e-05 5.32646e-06)
(0.452381 -5.77406e-05 5.61496e-06)
(0.452704 5.34472e-05 5.60616e-06)
(0.272299 -5.79361e-05 5.90889e-06)
(0.272772 5.3034e-05 5.9032e-06)
(0.103409 -5.7547e-05 6.21283e-06)
(0.104091 5.3003e-05 6.20949e-06)
(-0.0486571 -5.77512e-05 6.51714e-06)
(-0.0478602 5.25823e-05 6.51682e-06)
(-0.178662 -5.73354e-05 6.81303e-06)
(-0.178106 5.25274e-05 6.81146e-06)
(-0.28252 -5.75812e-05 7.08782e-06)
(-0.282216 5.20305e-05 7.08249e-06)
(-0.357118 -5.71113e-05 7.33958e-06)
(-0.356971 5.20404e-05 7.33392e-06)
(-0.400685 -5.74381e-05 7.55325e-06)
(-0.400628 5.13984e-05 7.54447e-06)
(-0.413003 -5.68857e-05 7.73895e-06)
(-0.413006 5.15082e-05 7.73117e-06)
(-0.395481 -5.72918e-05 7.886e-06)
(-0.395537 5.07156e-05 7.87602e-06)
(-0.351137 -5.66842e-05 8.00905e-06)
(-0.351256 5.09046e-05 8.00163e-06)
(-0.284307 -5.71185e-05 8.11148e-06)
(-0.284521 5.00042e-05 8.10277e-06)
(-0.200352 -5.64719e-05 8.20523e-06)
(-0.200718 5.02625e-05 8.20058e-06)
(-0.105293 -5.69217e-05 8.29555e-06)
(-0.105832 4.92557e-05 8.29023e-06)
(-0.00541073 -5.62437e-05 8.39165e-06)
(-0.00598622 4.95812e-05 8.39154e-06)
(0.0933278 -5.67078e-05 8.49671e-06)
(0.0929147 4.84826e-05 8.49606e-06)
(0.185775 -5.59513e-05 8.62096e-06)
(0.185513 4.88447e-05 8.61622e-06)
(0.267688 -5.65007e-05 8.75167e-06)
(0.267526 4.76567e-05 8.74579e-06)
(0.336068 -5.56155e-05 8.90535e-06)
(0.335966 4.80872e-05 8.89579e-06)
(0.389256 -5.62818e-05 9.05794e-06)
(0.389193 4.67751e-05 9.04763e-06)
(0.426913 -5.52725e-05 9.22626e-06)
(0.426876 4.72734e-05 9.21307e-06)
(0.449916 -5.60604e-05 9.38796e-06)
(0.449897 4.5831e-05 9.37466e-06)
(0.460159 -5.49076e-05 9.5639e-06)
(0.460153 4.64206e-05 9.54864e-06)
(0.460263 -5.58458e-05 9.72749e-06)
(0.460266 4.48175e-05 9.71272e-06)
(0.453274 -5.45307e-05 9.90686e-06)
(0.453283 4.55209e-05 9.89093e-06)
(0.44236 -5.56283e-05 1.00746e-05)
(0.442372 4.37459e-05 1.00595e-05)
(0.430515 -5.41532e-05 1.02618e-05)
(0.430527 4.45641e-05 1.0246e-05)
(0.420398 -5.53984e-05 1.04445e-05)
(0.420406 4.26274e-05 1.04295e-05)
(0.414182 -5.37476e-05 1.06532e-05)
(0.414185 4.35791e-05 1.06375e-05)
(0.413411 -5.5179e-05 1.08546e-05)
(0.413408 4.14406e-05 1.08394e-05)
(0.419017 -5.33222e-05 1.10876e-05)
(0.419008 4.25591e-05 1.10714e-05)
(0.431389 -5.49524e-05 1.13133e-05)
(0.431374 4.02061e-05 1.1297e-05)
(0.450439 -5.28737e-05 1.15706e-05)
(0.450419 4.15109e-05 1.15529e-05)
(0.475668 -5.47359e-05 1.18117e-05)
(0.475645 3.89114e-05 1.17934e-05)
(0.506261 -5.24144e-05 1.20825e-05)
(0.506236 4.04272e-05 1.20622e-05)
(0.541165 -5.45371e-05 1.23302e-05)
(0.54114 3.7555e-05 1.23087e-05)
(0.579234 -5.19259e-05 1.26101e-05)
(0.579209 3.93333e-05 1.25864e-05)
(0.619197 -5.43744e-05 1.2854e-05)
(0.619173 3.6127e-05 1.28288e-05)
(0.659745 -5.14275e-05 1.31338e-05)
(0.659723 3.82184e-05 1.31061e-05)
(0.699573 -5.42207e-05 1.33723e-05)
(0.699554 3.4664e-05 1.3343e-05)
(0.737357 -5.09537e-05 1.36431e-05)
(0.737341 3.70574e-05 1.36113e-05)
(0.771927 -5.40599e-05 1.38748e-05)
(0.771913 3.31924e-05 1.38415e-05)
(0.802241 -5.04919e-05 1.41321e-05)
(0.80223 3.5873e-05 1.40965e-05)
(0.827419 -5.39417e-05 1.43399e-05)
(0.827411 3.16736e-05 1.43033e-05)
(0.846902 -5.00278e-05 1.45774e-05)
(0.846896 3.469e-05 1.45388e-05)
(0.860507 -5.38491e-05 1.47552e-05)
(0.860503 3.01352e-05 1.47162e-05)
(0.868387 -4.95893e-05 1.49556e-05)
(0.868386 3.34897e-05 1.4915e-05)
(0.871012 -5.38008e-05 1.50866e-05)
(0.871012 2.85678e-05 1.50464e-05)
(0.869134 -4.91749e-05 1.52424e-05)
(0.869136 3.22816e-05 1.52007e-05)
(0.863732 -5.37911e-05 1.53249e-05)
(0.863734 2.69851e-05 1.52843e-05)
(0.855851 -4.87901e-05 1.54354e-05)
(0.855854 3.10663e-05 1.53934e-05)
(0.846434 -5.38409e-05 1.54707e-05)
(0.846437 2.53721e-05 1.54304e-05)
(0.836272 -4.84262e-05 1.55504e-05)
(0.836275 2.98571e-05 1.55085e-05)
(0.825884 -5.39379e-05 1.5559e-05)
(0.825887 2.37461e-05 1.55193e-05)
(0.81543 -4.81067e-05 1.56271e-05)
(0.815433 2.86344e-05 1.55854e-05)
(0.80484 -5.40618e-05 1.56388e-05)
(0.804843 2.2132e-05 1.55998e-05)
(0.793805 -4.78208e-05 1.57222e-05)
(0.793809 2.74125e-05 1.56806e-05)
(0.781836 -5.4239e-05 1.57512e-05)
(0.78184 2.05077e-05 1.5713e-05)
(0.768501 -4.75502e-05 1.58669e-05)
(0.768505 2.62126e-05 1.58255e-05)
(0.753468 -5.44641e-05 1.5918e-05)
(0.753472 1.88828e-05 1.58809e-05)
(0.7366 -4.73185e-05 1.60532e-05)
(0.736605 2.50137e-05 1.60122e-05)
(0.718059 -5.47291e-05 1.61071e-05)
(0.718064 1.72689e-05 1.60715e-05)
(0.698279 -4.71391e-05 1.62295e-05)
(0.698284 2.38042e-05 1.61893e-05)
(0.677981 -5.50419e-05 1.6246e-05)
(0.677987 1.56606e-05 1.62124e-05)
(0.658067 -4.7024e-05 1.63124e-05)
(0.658072 2.25724e-05 1.6273e-05)
(0.639614 -5.54064e-05 1.62505e-05)
(0.639618 1.40558e-05 1.6219e-05)
(0.623737 -4.69739e-05 1.62253e-05)
(0.62374 2.13179e-05 1.61865e-05)
(0.611386 -5.58429e-05 1.60529e-05)
(0.611389 1.24364e-05 1.60232e-05)
(0.603396 -4.69874e-05 1.59236e-05)
(0.603397 2.00427e-05 1.58845e-05)
(0.600416 -5.63445e-05 1.56437e-05)
(0.600415 1.0813e-05 1.56151e-05)
(0.602762 -4.70643e-05 1.54253e-05)
(0.60276 1.87501e-05 1.53847e-05)
(0.610417 -5.69082e-05 1.50599e-05)
(0.610414 9.19639e-06 1.50314e-05)
(0.623107 -4.72288e-05 1.47781e-05)
(0.623103 1.74227e-05 1.47344e-05)
(0.640305 -5.75232e-05 1.43681e-05)
(0.6403 7.60996e-06 1.43387e-05)
(0.661259 -4.74785e-05 1.40684e-05)
(0.661254 1.60745e-05 1.402e-05)
(0.685069 -5.82017e-05 1.36505e-05)
(0.685064 6.06054e-06 1.36194e-05)
(0.710754 -4.78394e-05 1.33648e-05)
(0.710749 1.4696e-05 1.33103e-05)
(0.737269 -5.89457e-05 1.29733e-05)
(0.737264 4.57208e-06 1.29401e-05)
(0.763633 -4.83282e-05 1.27321e-05)
(0.763629 1.32925e-05 1.267e-05)
(0.789015 -5.97713e-05 1.23888e-05)
(0.789011 3.16137e-06 1.23539e-05)
(0.812692 -4.89711e-05 1.22088e-05)
(0.812688 1.18646e-05 1.21381e-05)
(0.834168 -6.06946e-05 1.19253e-05)
(0.834165 1.85135e-06 1.18894e-05)
(0.853301 -4.97847e-05 1.1815e-05)
(0.853298 1.04263e-05 1.17346e-05)
(0.870218 -6.17299e-05 1.15843e-05)
(0.870216 6.7222e-07 1.15488e-05)
(0.885384 -5.07974e-05 1.15198e-05)
(0.885382 8.98387e-06 1.14285e-05)
(0.899634 -6.28998e-05 1.12944e-05)
(0.899632 -3.47901e-07 1.12607e-05)
(0.914189 -5.2045e-05 1.12089e-05)
(0.914187 7.54007e-06 1.11044e-05)
(0.930736 -6.42203e-05 1.18148e-05)
(0.930734 -1.16718e-06 1.08682e-05)
(0.951563 -5.35813e-05 1.06761e-05)
(0.951559 6.08665e-06 1.05551e-05)
(0.979885 -6.57213e-05 1.27129e-05)
(0.97988 -1.7455e-06 1.012e-05)
(1.0201 -5.54722e-05 9.64249e-06)
(1.02009 4.61698e-06 9.49887e-06)
(1.07858 -4.97448e-05 8.75172e-06)
(1.07857 -2.07244e-06 8.72641e-06)
(1.16513 -3.95466e-05 7.82499e-06)
(1.16513 3.32589e-06 7.70449e-06)
(1.29501 -3.28265e-05 6.51558e-06)
(1.295 -2.34984e-06 6.49093e-06)
(1.48995 -2.2518e-05 5.12921e-06)
(1.48994 2.24147e-06 5.03613e-06)
(1.7803 -1.47396e-05 3.44353e-06)
(1.7803 -2.63445e-06 3.42297e-06)
(2.30508 -4.2491e-06 1.65917e-06)
(2.30508 1.16166e-06 1.61207e-06)
(0.029183 -1.18846e-05 -5.48e-08)
(0.0292174 -2.63193e-05 -0.000521376)
(0.0877189 1.82874e-05 -1.80679e-08)
(0.0878217 -1.22583e-05 -0.000746676)
(0.146907 2.89167e-05 -6.2083e-09)
(0.147077 -2.60236e-05 -0.000528523)
(0.206754 3.51132e-05 -1.97156e-09)
(0.206987 -3.53219e-05 -0.00027555)
(0.267268 3.85249e-05 -4.63508e-10)
(0.267559 -3.8514e-05 -0.000145576)
(0.328459 4.04524e-05 -1.28186e-10)
(0.328802 -4.04422e-05 -8.84918e-05)
(0.390295 4.18153e-05 -1.28012e-10)
(0.390686 -4.17795e-05 -6.07951e-05)
(0.452719 4.27312e-05 -1.79652e-11)
(0.45315 -4.27526e-05 -4.54604e-05)
(0.515667 4.35901e-05 -9.31722e-11)
(0.516134 -4.35018e-05 -3.60211e-05)
(0.579144 4.41123e-05 -4.74464e-12)
(0.57964 -4.41156e-05 -2.97374e-05)
(0.643225 4.47958e-05 -8.52707e-11)
(0.643745 -4.4654e-05 -2.5304e-05)
(0.707937 4.51061e-05 1.75527e-22)
(0.708476 -4.51265e-05 -2.20348e-05)
(0.773311 4.57175e-05 -7.98106e-11)
(0.773864 -4.54354e-05 -1.95397e-05)
(0.839412 5.93312e-05 -4.98479e-08)
(0.839974 -4.57222e-05 -1.75723e-05)
(0.906232 1.97128e-05 -5.65432e-19)
(0.9068 -4.63305e-05 -1.60156e-05)
(0.97368 0.000102187 -1.2017e-07)
(0.97425 -4.63993e-05 -1.47122e-05)
(1.04162 -3.93301e-05 -6.16882e-10)
(1.04219 -4.74007e-05 -1.36804e-05)
(1.10991 0.000137698 -4.13858e-08)
(1.11047 -4.67266e-05 -1.27891e-05)
(1.17855 -5.192e-05 -8.76055e-10)
(1.17911 -4.81893e-05 -1.20422e-05)
(1.24777 0.000151454 -4.02029e-08)
(1.24831 -4.68893e-05 -1.13932e-05)
(1.31787 -6.44565e-05 -6.2639e-10)
(1.31841 -4.91057e-05 -1.08422e-05)
(1.38905 0.000165002 -3.84815e-08)
(1.38958 -4.69529e-05 -1.0354e-05)
(1.46135 -7.6881e-05 6.00563e-19)
(1.46186 -5.00325e-05 -9.93624e-06)
(1.53473 0.000205039 -1.47657e-07)
(1.53523 -4.68055e-05 -9.53447e-06)
(1.60918 -0.000142678 -1.53195e-21)
(1.60966 -5.11444e-05 -9.23979e-06)
(1.6847 0.00027705 -1.83335e-07)
(1.68517 -4.65699e-05 -8.91643e-06)
(1.76129 -0.000220853 -1.90585e-09)
(1.76175 -5.24885e-05 -8.70262e-06)
(1.83893 0.000328596 -7.74589e-08)
(1.83937 -4.61063e-05 -8.472e-06)
(1.91754 -0.00024536 -3.84503e-09)
(1.91797 -5.39874e-05 -8.28648e-06)
(1.99709 0.000354447 -7.97782e-08)
(1.9975 -4.53326e-05 -8.10384e-06)
(2.07759 -0.000270757 -3.54318e-09)
(2.07799 -5.57369e-05 -7.9608e-06)
(2.15924 0.000380694 -7.57259e-08)
(2.15963 -4.4227e-05 -7.81461e-06)
(2.24247 -0.000295987 -1.60727e-09)
(2.24285 -5.78226e-05 -7.70332e-06)
(2.32788 0.000406607 -7.02084e-08)
(2.32825 -4.2693e-05 -7.58549e-06)
(2.41615 -0.000320678 -4.81358e-19)
(2.41652 -6.0344e-05 -7.49957e-06)
(2.50789 0.000463744 -2.23871e-07)
(2.50825 -4.06786e-05 -7.36904e-06)
(2.60352 -0.000409163 -1.19138e-21)
(2.60387 -6.34632e-05 -7.34529e-06)
(2.70322 0.000653055 -7.36319e-07)
(2.70357 -3.81132e-05 -7.11808e-06)
(2.80698 -0.000701 -3.42223e-19)
(2.80733 -6.7248e-05 -7.2447e-06)
(2.91466 0.000983434 -9.63764e-07)
(2.915 -3.49186e-05 -6.99466e-06)
(3.02613 -0.00107351 -2.30222e-21)
(3.02647 -7.16797e-05 -7.19873e-06)
(3.14147 0.0013209 -8.10136e-07)
(3.14181 -3.10939e-05 -7.01709e-06)
(3.26121 -0.00137843 -3.01366e-18)
(3.26155 -7.67016e-05 -7.20092e-06)
(3.38645 0.00155383 -4.36136e-07)
(3.38679 -2.66537e-05 -7.13452e-06)
(3.51889 -0.00153919 0)
(3.51923 -8.22882e-05 -7.24037e-06)
(3.66057 0.00168511 -2.71844e-07)
(3.66093 -2.16105e-05 -7.23113e-06)
(3.81355 -0.00163936 -1.12785e-21)
(3.81391 -8.85139e-05 -7.30988e-06)
(3.97952 0.00180124 -3.60531e-07)
(3.97988 -1.5891e-05 -7.29447e-06)
(4.15962 -0.00177023 -4.51332e-21)
(4.15999 -9.54818e-05 -7.40963e-06)
(4.35446 0.00225265 -2.27004e-06)
(4.35484 -9.40884e-06 -6.95004e-06)
(4.56416 -0.0025492 -4.53063e-21)
(4.56454 -0.000102787 -7.55919e-06)
(4.78826 0.00289162 -1.51025e-06)
(4.78862 -2.27215e-06 -7.34024e-06)
(5.02516 -0.00304845 -3.7916e-08)
(5.02551 -0.000110022 -7.78856e-06)
(5.27117 0.00323591 -7.50549e-07)
(5.27149 4.77745e-06 -7.88657e-06)
(5.51912 -0.00323379 -1.6465e-07)
(5.51941 -0.000117184 -8.21046e-06)
(5.75696 0.00345374 -1.37921e-06)
(5.7572 1.03574e-05 -8.43421e-06)
(5.9669 -0.00348511 -3.95557e-07)
(5.96706 -0.00012475 -9.0373e-06)
(6.12577 0.00374857 -2.20658e-06)
(6.12583 1.34079e-05 -9.46389e-06)
(6.20708 -0.00383027 -6.33347e-07)
(6.20701 -0.000131928 -1.0422e-05)
(6.18478 0.00412381 -2.68282e-06)
(6.18456 1.46658e-05 -1.10385e-05)
(6.03802 -0.00424254 -6.81851e-07)
(6.03763 -0.000135928 -1.21967e-05)
(5.75583 0.00452708 -2.2727e-06)
(5.75524 1.55832e-05 -1.28454e-05)
(5.34025 -0.00463498 -4.31675e-07)
(5.33945 -0.000134899 -1.38472e-05)
(4.80709 0.00487319 -1.08186e-06)
(4.80605 1.56626e-05 -1.4327e-05)
(4.18381 -0.00492383 -2.75521e-18)
(4.18253 -0.000130241 -1.4885e-05)
(3.50531 0.00511453 -4.86141e-08)
(3.50378 1.26317e-05 -1.50993e-05)
(2.80881 -0.00496843 -1.17797e-06)
(2.80704 -0.000124551 -1.49614e-05)
(2.12906 0.00511028 -3.37495e-07)
(2.12708 5.8308e-06 -1.50095e-05)
(1.49483 -0.00494315 -1.8348e-06)
(1.49269 -0.000119021 -1.46539e-05)
(0.927256 0.00506311 -4.27102e-07)
(0.925044 -3.10455e-06 -1.46648e-05)
(0.439736 -0.00490142 -1.90678e-06)
(0.437563 -0.000113547 -1.43072e-05)
(0.0389264 0.00502304 -4.02016e-07)
(0.0369298 -1.20556e-05 -1.43599e-05)
(-0.273675 -0.000184029 -4.55058e-06)
(-0.275347 -0.000108173 -9.32832e-07)
(-0.500172 0.000266912 -4.57044e-07)
(-0.501443 -1.88823e-05 -7.73923e-07)
(-0.645057 -0.000104716 -1.05824e-06)
(-0.645899 -0.000102293 -7.3898e-07)
(-0.714331 0.000198255 -3.39503e-07)
(-0.714746 -2.4548e-05 -5.88396e-07)
(-0.714959 -4.43361e-05 -8.0803e-07)
(-0.714961 -9.70195e-05 -5.55754e-07)
(-0.654511 0.000147069 -2.49662e-07)
(-0.654123 -2.94331e-05 -4.21578e-07)
(-0.540886 -2.27412e-06 -5.68835e-07)
(-0.540135 -9.24536e-05 -3.93581e-07)
(-0.382007 0.000112734 -1.70935e-07)
(-0.380929 -3.36584e-05 -2.76245e-07)
(-0.185572 2.4304e-05 -3.62748e-07)
(-0.18422 -8.85176e-05 -2.54724e-07)
(0.0412043 9.22664e-05 -1.04636e-07)
(0.0427453 -3.73475e-05 -1.55423e-07)
(0.291814 3.85633e-05 -1.97349e-07)
(0.293428 -8.50525e-05 -1.44818e-07)
(0.56055 8.23666e-05 -5.38495e-08)
(0.562142 -4.04794e-05 -6.61214e-08)
(0.842507 4.42256e-05 -7.82368e-08)
(0.84401 -8.19955e-05 -6.54447e-08)
(1.13346 8.00014e-05 -5.65098e-08)
(1.13483 -4.3148e-05 -5.17971e-10)
(1.42965 4.37027e-05 -6.49042e-08)
(1.43087 -7.9315e-05 -6.41977e-08)
(1.72753 7.92e-05 -8.01221e-08)
(1.7286 -4.54557e-05 -8.03762e-08)
(2.02352 4.60863e-05 -1.61573e-07)
(2.02444 -7.70077e-05 -1.608e-07)
(2.31381 7.70633e-05 -2.04745e-07)
(2.31459 -4.75141e-05 -2.04878e-07)
(2.59427 4.80935e-05 -3.1127e-07)
(2.59492 -7.50683e-05 -3.10406e-07)
(2.86046 7.51068e-05 -3.83568e-07)
(2.86101 -4.93972e-05 -3.83561e-07)
(3.10778 4.97541e-05 -5.08819e-07)
(3.10823 -7.34708e-05 -5.07856e-07)
(3.33172 7.33105e-05 -5.94974e-07)
(3.33209 -5.11242e-05 -5.94821e-07)
(3.52819 5.1168e-05 -7.17866e-07)
(3.52849 -7.21149e-05 -7.16806e-07)
(3.69387 7.17133e-05 -7.92415e-07)
(3.6941 -5.26564e-05 -7.92119e-07)
(3.82649 5.24158e-05 -8.86113e-07)
(3.82666 -7.09196e-05 -8.84963e-07)