/*--------------------------------*- C++ -*----------------------------------*\
| =========                 |                                                 |
| \\      /  F ield         | OpenFOAM: The Open Source CFD Toolbox           |
|  \\    /   O peration     | Version:  2012                                  |
|   \\  /    A nd           | Website:  www.openfoam.com                      |
|    \\/     M anipulation  |                                                 |
\*---------------------------------------------------------------------------*/
FoamFile
{
    version     2.0;
    format      ascii;
    class       volTensorField;
    location    "12000";
    object      grad(U);
}
// * * * * * * * * * * * * * * * * * * * * * * * * * * * * * * * * * * * * * //

dimensions      [0 0 -1 0 0 0 0];


internalField   nonuniform List<tensor> 
2560
(
(0 3.11836e-30 3.24829e-32 32.0079 -1.18366e-11 -1.63039e-13 0.0463357 -8.56583e-15 -8.61904e-17)
(0 -2.62597e-28 -1.62414e-32 32.0079 -1.97215e-31 7.01086e-19 0.0463357 -6.56494e-29 1.11868e-16)
(0 -6.91866e-25 -6.31816e-27 32.0031 3.32834e-32 -2.39424e-14 0.139667 0 -7.03224e-17)
(0 -4.09822e-30 -6.40346e-32 32.0031 -2.51627e-15 -7.00089e-20 0.139667 -4.97071e-18 1.72869e-16)
(-5.86579e-18 -3.28234e-31 -9.32147e-32 31.9984 6.24834e-13 -1.05009e-14 0.192074 -3.16552e-15 -5.47297e-17)
(0 1.21184e-29 1.89351e-31 31.9984 -1.86021e-15 -2.70234e-18 0.192074 -6.98321e-18 1.77945e-16)
(8.88546e-17 -2.33144e-29 -1.58016e-31 31.9938 8.8024e-13 -9.63323e-15 0.194839 -4.29026e-15 -6.18135e-17)
(-7.00448e-17 1.99079e-29 1.24424e-31 31.9938 -2.3703e-15 1.03942e-18 0.194839 -1.06338e-17 1.832e-16)
(1.38082e-16 -2.35471e-29 -2.45282e-31 31.9892 3.44231e-13 -1.04026e-14 0.197644 -6.36926e-15 -6.58407e-17)
(0 1.96226e-29 1.83962e-31 31.9892 -2.45121e-15 2.08003e-18 0.197644 -1.4457e-17 1.88633e-16)
(1.13311e-16 -1.24545e-26 -1.5735e-31 31.9848 -5.21571e-14 -1.07426e-14 0.20049 -1.623e-16 -6.78873e-17)
(3.62076e-16 1.54731e-29 1.81325e-31 31.9848 -2.4595e-15 2.06646e-18 0.20049 -1.8469e-17 1.94248e-16)
(-5.87706e-17 -3.62195e-28 -8.09565e-32 31.9804 -1.22298e-27 -1.08993e-14 0.203378 3.15544e-30 -6.97624e-17)
(2.35082e-16 1.90641e-29 2.38302e-31 31.9804 -2.45518e-15 2.31488e-18 0.203378 -2.26384e-17 2.00049e-16)
(-2.04705e-16 1.88863e-29 2.161e-31 31.976 8.4016e-15 -1.10595e-14 0.206307 -5.9877e-17 -7.19425e-17)
(2.89905e-16 -7.51636e-30 -5.87215e-32 31.976 -2.5254e-15 2.1025e-18 0.206307 -2.67051e-17 2.06041e-16)
(8.63792e-17 -1.86711e-29 -2.15365e-31 31.9717 5.62335e-15 -1.12465e-14 0.209279 -4.76728e-17 -7.42549e-17)
(0 2.22259e-29 2.3152e-31 31.9717 -2.68886e-15 1.7657e-18 0.209279 -3.12829e-17 2.12231e-16)
(0 7.30244e-30 2.28201e-31 31.9674 3.65416e-15 -1.14399e-14 0.212293 -2.52572e-17 -7.66184e-17)
(0 0 -1.14101e-31 31.9674 -2.73927e-15 3.07873e-18 0.212293 -3.61663e-17 2.18632e-16)
(1.18357e-17 -1.41384e-29 -1.79435e-31 31.963 3.55979e-15 -1.16337e-14 0.21535 -2.29129e-17 -7.90424e-17)
(-1.26625e-16 2.15933e-29 3.37396e-31 31.963 -2.62084e-15 5.58599e-18 0.21535 -4.09564e-17 2.25245e-16)
(3.78921e-16 -2.86863e-29 -7.12599e-31 31.9585 3.80372e-15 -1.18291e-14 0.218451 -2.47254e-17 -8.15341e-17)
(0 2.12839e-29 5.54267e-31 31.9585 -2.57638e-15 7.90325e-18 0.218451 -4.58225e-17 2.32089e-16)
(2.46042e-16 -1.39859e-29 -1.09265e-31 31.9539 3.91314e-15 -1.20265e-14 0.221595 -2.6919e-17 -8.40956e-17)
(0 1.74823e-29 2.18529e-31 31.9539 -2.61936e-15 7.60725e-18 0.221595 -5.07478e-17 2.39156e-16)
(-4.01473e-16 1.41924e-29 3.74743e-31 31.9491 3.89708e-15 -1.22257e-14 0.224782 -2.69674e-17 -8.67257e-17)
(6.3583e-16 -3.44635e-30 -2.15397e-31 31.9491 -2.71637e-15 5.08896e-18 0.224782 -5.61102e-17 2.46445e-16)
(0 2.71757e-29 5.30775e-31 31.9439 4.0279e-15 -1.24265e-14 0.228012 -2.74817e-17 -8.94256e-17)
(0 -2.71757e-29 -5.30775e-31 31.9439 -2.80449e-15 4.11418e-18 0.228012 -6.18162e-17 2.53961e-16)
(-1.89474e-16 7.19972e-30 5.61043e-32 31.9381 4.28784e-15 -1.26276e-14 0.231283 -2.9625e-17 -9.21793e-17)
(7.57896e-16 -3.34827e-30 0 31.9381 -2.83825e-15 6.50223e-18 0.231283 -6.73948e-17 2.61722e-16)
(0 1.98017e-29 5.15669e-31 31.9317 4.31783e-15 -1.28279e-14 0.234596 -3.20518e-17 -9.49882e-17)
(-8.20251e-16 -1.98017e-29 -5.15669e-31 31.9317 -2.99973e-15 9.15675e-18 0.234596 -7.2816e-17 2.69736e-16)
(0 2.27709e-29 5.08278e-31 31.9244 3.97285e-15 -1.30279e-14 0.237949 -3.09335e-17 -9.78618e-17)
(-8.83503e-16 -2.27709e-29 -5.08278e-31 31.9244 -2.90532e-15 1.05148e-17 0.237949 -7.87159e-17 2.78017e-16)
(6.76882e-16 -1.28254e-29 -3.00596e-31 31.9158 3.82645e-15 -1.32262e-14 0.241339 -2.78475e-17 -1.0077e-16)
(-4.51255e-16 1.60318e-29 3.00596e-31 31.9158 -2.84865e-15 1.17584e-17 0.241339 -8.36802e-17 2.86562e-16)
(2.53187e-16 1.51142e-29 4.27842e-31 31.9057 4.16207e-15 -1.34207e-14 0.244764 -2.96252e-17 -1.03714e-16)
(-1.01275e-15 -2.52832e-29 -7.90101e-31 31.9057 -3.15126e-15 1.30981e-17 0.244764 -8.97231e-17 2.95375e-16)
(0 2.18057e-29 7.78776e-31 31.8937 4.61173e-15 -1.36104e-14 0.248222 -3.38135e-17 -1.06675e-16)
(0 -2.18057e-29 -7.78776e-31 31.8937 -3.35901e-15 8.65361e-18 0.248222 -9.68192e-17 3.04452e-16)
(1.45697e-16 -8.43675e-30 7.14277e-32 31.8792 4.67418e-15 -1.37939e-14 0.251706 -3.74937e-17 -1.0965e-16)
(-4.32129e-16 1.84227e-29 9.59518e-32 31.8792 -3.39751e-15 8.96668e-18 0.251706 -1.0434e-16 3.1378e-16)
(1.22524e-16 -3.24731e-29 -1.1552e-30 31.8618 4.35789e-15 -1.3971e-14 0.255213 -3.57905e-17 -1.12637e-16)
(0 3.63174e-29 1.13492e-30 31.8618 -3.34691e-15 1.61305e-17 0.255213 -1.12015e-16 3.23392e-16)
(0 2.38646e-29 4.66105e-31 31.8407 4.39649e-15 -1.41403e-14 0.258737 -3.35234e-17 -1.15615e-16)
(-1.28252e-15 -2.38646e-29 -7.45768e-31 31.8407 -3.36388e-15 2.39497e-17 0.258737 -1.19207e-16 3.33282e-16)
(3.38094e-16 1.96804e-29 6.54749e-31 31.8152 4.74542e-15 -1.42973e-14 0.262269 -3.74665e-17 -1.18527e-16)
(0 -2.35225e-29 -7.3508e-31 31.8152 -3.36794e-15 2.32459e-17 0.262269 -1.26421e-16 3.43503e-16)
(-7.11605e-16 4.24595e-29 1.07269e-30 31.7844 4.9776e-15 -1.44379e-14 0.265801 -4.02607e-17 -1.21355e-16)
(0 -3.47781e-29 -9.0568e-31 31.7844 -3.49383e-15 1.00619e-17 0.265801 -1.33631e-16 3.53949e-16)
(1.92534e-15 -5.1511e-29 -1.15306e-30 31.7474 4.9544e-15 -1.45622e-14 0.269322 -4.24494e-17 -1.24109e-16)
(2.18599e-15 3.99929e-29 1.07124e-30 31.7474 -3.42113e-15 6.6909e-18 0.269322 -1.42237e-16 3.64613e-16)
(0 -1.68942e-29 -5.27943e-31 31.7029 4.8555e-15 -1.4667e-14 0.272821 -4.10461e-17 -1.26716e-16)
(1.56784e-15 2.25256e-29 5.27943e-31 31.7029 -3.20136e-15 1.42015e-17 0.272821 -1.4982e-16 3.75536e-16)
(4.1041e-16 7.26415e-30 2.53237e-31 31.6498 4.9901e-15 -1.47465e-14 0.276284 -4.19895e-17 -1.29133e-16)
(-3.90594e-16 -5.55068e-30 -1.73459e-31 31.6498 -3.47491e-15 2.86551e-17 0.276284 -1.57163e-16 3.86701e-16)
(-8.58215e-16 7.67123e-30 3.65565e-31 31.5868 4.98713e-15 -1.47975e-14 0.279695 -4.46005e-17 -1.31332e-16)
(-3.43286e-15 0 -1.70973e-31 31.5868 -3.60974e-15 4.21607e-17 0.279695 -1.66927e-16 3.98143e-16)
(-4.48052e-16 2.00128e-29 4.38068e-31 31.5122 4.9573e-15 -1.48175e-14 0.283036 -4.31669e-17 -1.33275e-16)
(-1.79221e-15 -1.07854e-29 -1.68522e-31 31.5122 -3.28372e-15 4.12056e-17 0.283036 -1.75707e-16 4.0982e-16)
(-7.48078e-16 2.65771e-29 9.9664e-31 31.4246 4.97516e-15 -1.48017e-14 0.286289 -4.53705e-17 -1.34891e-16)
(-1.12088e-15 -2.65771e-29 -9.9664e-31 31.4246 -3.02914e-15 3.06664e-17 0.286289 -1.82633e-16 4.21611e-16)
(0 -2.09569e-29 -1.14608e-30 31.3222 4.9279e-15 -1.4746e-14 0.289432 -4.47574e-17 -1.36148e-16)
(1.94668e-15 2.09569e-29 1.14608e-30 31.3222 -3.27159e-15 1.88255e-17 0.289432 -1.89791e-16 4.3345e-16)
(-5.06334e-16 3.8305e-30 1.12874e-31 31.2034 5.27e-15 -1.46467e-14 0.292444 -4.58246e-17 -1.36977e-16)
(0 5.16414e-30 1.61379e-31 31.2034 -3.77956e-15 2.02453e-17 0.292444 -2.00405e-16 4.45359e-16)
(-5.2623e-16 2.41885e-29 1.07143e-30 31.0664 5.84441e-15 -1.45005e-14 0.295299 -5.2494e-17 -1.3735e-16)
(0 -2.03605e-29 -9.54398e-31 31.0664 -3.95854e-15 3.31487e-17 0.295299 -2.09861e-16 4.57411e-16)
(-5.4635e-16 2.38942e-29 1.06199e-30 30.9093 5.96307e-15 -1.43052e-14 0.297975 -5.81129e-17 -1.37215e-16)
(-2.1854e-15 -1.00343e-29 -6.27146e-31 30.9093 -3.92535e-15 3.83275e-17 0.297975 -2.19436e-16 4.69497e-16)
(1.26267e-15 -2.36052e-29 -5.89215e-31 30.7306 5.74646e-15 -1.40606e-14 0.300444 -5.63258e-17 -1.36575e-16)
(-6.95984e-16 1.9781e-29 4.63618e-31 30.7306 -3.77172e-15 3.52698e-17 0.300444 -2.3028e-16 4.81522e-16)
(5.8722e-16 -2.33203e-29 -8.91615e-31 30.5286 5.58274e-15 -1.37654e-14 0.302684 -5.55665e-17 -1.3536e-16)
(0 1.94975e-29 7.61622e-31 30.5286 -3.6483e-15 3.64755e-17 0.302684 -2.40975e-16 4.93451e-16)
(-6.07947e-16 1.34304e-29 8.85152e-31 30.3019 5.64443e-15 -1.34186e-14 0.304668 -5.47179e-17 -1.33576e-16)
(-6.76176e-16 0 -4.50424e-31 30.3019 -3.8201e-15 4.2423e-17 0.304668 -2.5287e-16 5.0531e-16)
(0 1.4207e-29 5.91957e-31 30.0491 6.01881e-15 -1.30201e-14 0.306373 -5.84396e-17 -1.31162e-16)
(0 -1.89426e-29 -8.87936e-31 30.0491 -4.25215e-15 3.37744e-17 0.306373 -2.63451e-16 5.16976e-16)
(-6.49915e-16 8.48425e-30 7.26955e-31 29.7694 6.27045e-15 -1.25697e-14 0.30778 -6.3989e-17 -1.2813e-16)
(1.94273e-15 4.66779e-30 -2.91737e-31 29.7694 -4.39107e-15 1.29754e-17 0.30778 -2.76019e-16 5.28284e-16)
(6.47517e-16 -2.30044e-29 -1.43778e-30 29.462 6.24174e-15 -1.20737e-14 0.308867 -6.53806e-17 -1.24546e-16)
(2.03697e-15 2.30044e-29 1.43778e-30 29.462 -4.38195e-15 2.01365e-17 0.308867 -2.89509e-16 5.3923e-16)
(6.92448e-16 9.79205e-30 6.97788e-31 29.1266 6.00553e-15 -1.15402e-14 0.309622 -6.52581e-17 -1.20473e-16)
(-2.76979e-15 -1.36048e-29 -1.41717e-30 29.1266 -4.40697e-15 4.99936e-17 0.309622 -3.01777e-16 5.49976e-16)
(7.13875e-16 -1.72216e-29 -4.36369e-31 28.7632 5.66541e-15 -1.09727e-14 0.31003 -6.22438e-17 -1.15879e-16)
(0 1.34098e-29 2.79372e-31 28.7632 -4.50603e-15 5.0998e-17 0.31003 -3.12599e-16 5.60475e-16)
(-7.3538e-16 -9.40704e-30 -1.13959e-31 28.3723 5.96366e-15 -1.03767e-14 0.310086 -5.97891e-17 -1.10882e-16)
(0 1.76235e-29 5.50735e-31 28.3723 -5.25792e-15 2.74538e-17 0.310086 -3.28698e-16 5.70348e-16)
(7.56939e-16 9.22109e-30 3.77089e-31 27.9547 6.84825e-15 -9.75787e-15 0.309785 -7.06332e-17 -1.05452e-16)
(3.02775e-15 -4.34273e-30 -2.71421e-31 27.9547 -5.74996e-15 1.24888e-17 0.309785 -3.43569e-16 5.79798e-16)
(1.20485e-15 -8.56098e-30 -5.35061e-31 27.5117 7.11462e-15 -9.12464e-15 0.309129 -8.12981e-17 -9.97807e-17)
(3.1141e-15 1.28415e-29 5.35061e-31 27.5117 -6.02777e-15 8.68361e-18 0.309129 -3.58246e-16 5.88757e-16)
(-8.00115e-16 -4.17788e-31 -8.96149e-32 27.0446 6.55444e-15 -8.48959e-15 0.308124 -7.87382e-17 -9.39413e-17)
(0 1.26574e-29 5.27392e-31 27.0446 -5.94583e-15 2.54735e-17 0.308124 -3.78523e-16 5.97223e-16)
(-8.21682e-16 7.95943e-30 1.78038e-31 26.5556 5.57195e-15 -7.85895e-15 0.306778 -7.08013e-17 -8.79945e-17)
(0 4.15867e-30 2.59917e-31 26.5556 -4.31478e-15 5.90551e-17 0.306778 -3.95572e-16 6.05404e-16)
(1.15378e-15 -8.19813e-30 -5.12383e-31 26.0467 5.14675e-15 -7.23968e-15 0.305107 -5.81291e-17 -8.20394e-17)
(-1.15378e-15 1.22972e-29 5.12383e-31 26.0467 -2.80697e-15 7.27574e-17 0.305107 -4.02865e-16 6.13095e-16)
(-8.64647e-16 3.79866e-30 -6.70954e-32 25.5203 6.04162e-15 -6.6402e-15 0.303128 -6.28138e-17 -7.61803e-17)
(0 1.21209e-29 7.57559e-31 25.5203 -3.23604e-15 7.31066e-17 0.303128 -4.0779e-16 6.20161e-16)
(-1.12095e-15 2.78768e-29 1.7423e-30 24.979 6.62896e-15 -6.0637e-15 0.30086 -8.13153e-17 -7.04012e-17)
(-3.54398e-15 -2.38944e-29 -1.7423e-30 24.979 -3.85863e-15 6.19771e-17 0.30086 -4.21544e-16 6.26596e-16)
(-2.0121e-15 -1.19089e-29 -7.89249e-31 24.4253 6.35624e-15 -5.51649e-15 0.298326 -7.89591e-17 -6.48902e-17)
(3.62889e-15 1.96266e-29 1.22666e-30 24.4253 -3.83174e-15 4.60559e-17 0.298326 -4.38915e-16 6.32238e-16)
(0 2.32144e-29 1.4509e-30 23.862 6.21985e-15 -5.00319e-15 0.295551 -7.69584e-17 -5.9595e-17)
(0 -2.32144e-29 -1.4509e-30 23.862 -4.15084e-15 2.7931e-17 0.295551 -4.52971e-16 6.37316e-16)
(-9.49232e-16 2.28567e-29 1.62807e-30 23.2917 6.23061e-15 -4.52414e-15 0.29256 -7.78528e-17 -5.46069e-17)
(3.79693e-15 -1.90681e-29 -1.4301e-30 23.2917 -4.15849e-15 7.02673e-18 0.29256 -4.64148e-16 6.41724e-16)
(1.93995e-15 -1.88495e-29 -1.34094e-30 22.7169 6.1403e-15 -4.08485e-15 0.289377 -7.94863e-17 -5.00053e-17)
(3.8799e-15 1.12769e-29 9.39738e-31 22.7169 -4.16463e-15 1.60414e-17 0.289377 -4.76101e-16 6.4564e-16)
(0 -1.11152e-29 -4.63135e-31 22.1402 5.73935e-15 -3.68624e-15 0.28603 -7.78031e-17 -4.57711e-17)
(0 1.48203e-29 6.94702e-31 22.1402 -4.26786e-15 5.33148e-17 0.28603 -4.92664e-16 6.49292e-16)
(1.70902e-17 -7.1725e-30 -2.51133e-31 21.5637 5.97036e-15 -3.32203e-15 0.282544 -7.13181e-17 -4.17965e-17)
(-1.02794e-15 2.19119e-29 9.12994e-31 21.5637 -4.01259e-15 5.26495e-17 0.282544 -5.07982e-16 6.52608e-16)
(-2.06191e-15 1.83562e-29 1.3149e-30 20.9897 6.61297e-15 -2.99019e-15 0.278941 -8.62178e-17 -3.81701e-17)
(4.12382e-15 -1.43985e-29 -1.12489e-30 20.9897 -4.59359e-15 1.45775e-17 0.278941 -5.2383e-16 6.55262e-16)
(-1.05082e-15 2.27283e-31 2.09457e-31 20.42 6.61956e-15 -2.69726e-15 0.275247 -9.07232e-17 -3.50128e-17)
(0 1.41922e-29 6.65258e-31 20.42 -5.03508e-15 -1.75202e-18 0.275247 -5.45241e-16 6.57769e-16)
(-1.07044e-15 -3.2217e-30 -2.25881e-31 19.8565 6.89243e-15 -2.4434e-15 0.271482 -8.89236e-17 -3.22473e-17)
(4.28178e-15 1.39888e-29 8.74297e-31 19.8565 -4.41396e-15 3.51338e-17 0.271482 -5.63606e-16 6.60052e-16)
(-2.06007e-15 2.10029e-29 8.59271e-31 19.3006 7.50508e-15 -2.22192e-15 0.267667 -1.00949e-16 -2.98061e-17)
(0 -6.89413e-30 -2.15442e-31 19.3006 -5.22033e-15 5.51015e-17 0.267667 -5.75679e-16 6.62445e-16)
(-2.21784e-15 2.11166e-29 1.70308e-30 18.7536 7.24049e-15 -2.03163e-15 0.26382 -1.08768e-16 -2.77597e-17)
(-4.43568e-15 -1.35906e-29 -1.27412e-30 18.7536 -5.09873e-15 7.82755e-18 0.26382 -5.9923e-16 6.64125e-16)
(-1.31287e-15 -9.22082e-30 -1.0334e-30 18.2167 5.97387e-15 -1.87675e-15 0.259958 -9.63525e-17 -2.61934e-17)
(8.07944e-15 1.67448e-29 1.46517e-30 18.2167 -3.20019e-15 1.65485e-17 0.259958 -6.15052e-16 6.65806e-16)
(-3.43901e-15 3.76979e-29 2.30205e-30 17.6908 4.71457e-15 -1.75411e-15 0.256095 -7.52688e-17 -2.49692e-17)
(-4.58534e-15 -2.64077e-29 -1.65048e-30 17.6908 -2.92934e-15 6.59857e-17 0.256095 -6.20434e-16 6.67611e-16)
(-1.16464e-15 -1.25044e-29 -1.00169e-30 17.1767 4.38079e-15 -1.65567e-15 0.252246 -6.21713e-17 -2.40259e-17)
(4.65856e-15 1.95219e-29 1.42347e-30 17.1767 -3.487e-15 5.89964e-17 0.252246 -6.35042e-16 6.69284e-16)
(1.18267e-15 -1.33821e-29 -1.42222e-30 16.6749 3.79463e-15 -1.57862e-15 0.248422 -6.75231e-17 -2.33704e-17)
(0 9.62106e-30 1.20263e-30 16.6749 -3.36037e-15 4.62162e-17 0.248422 -6.50412e-16 6.70795e-16)
(0 -2.84495e-29 -1.1854e-30 16.186 3.29751e-15 -1.53178e-15 0.244632 -4.62642e-17 -2.32922e-17)
(4.80175e-15 2.84495e-29 1.1854e-30 16.186 -2.64899e-15 1.42762e-17 0.244632 -6.62899e-16 6.72044e-16)
(0 -9.34724e-30 -7.78937e-31 15.7102 4.79129e-15 -1.50916e-15 0.240887 -5.42468e-17 -2.33509e-17)
(4.87173e-15 1.2463e-29 7.78937e-31 15.7102 -2.4466e-15 2.40613e-17 0.240887 -6.74217e-16 6.72991e-16)
(-1.72887e-15 1.22844e-29 1.53555e-30 15.2478 6.03821e-15 -1.49372e-15 0.237193 -9.41224e-17 -2.3487e-17)
(4.94064e-15 0 -3.83886e-31 15.2478 -2.70057e-15 5.29182e-17 0.237193 -6.83117e-16 6.74654e-16)
(0 2.42166e-29 1.51354e-30 14.7988 5.45903e-15 -1.48997e-15 0.233557 -9.52185e-17 -2.39145e-17)
(0 -2.42166e-29 -1.51354e-30 14.7988 -3.86225e-15 4.94251e-17 0.233557 -6.94423e-16 6.75758e-16)
(-2.53765e-15 7.49974e-30 7.62925e-32 14.3633 4.89115e-15 -1.50319e-15 0.229983 -7.83206e-17 -2.46049e-17)
(0 0 3.72961e-31 14.3633 -4.36415e-15 5.5311e-17 0.229983 -7.16109e-16 6.77055e-16)
(0 -2.94092e-29 -1.83808e-30 13.9412 5.09634e-15 -1.52429e-15 0.226477 -7.95467e-17 -2.53108e-17)
(5.14108e-15 2.94092e-29 1.83808e-30 13.9412 -3.40703e-15 1.04761e-17 0.226477 -7.33324e-16 6.78049e-16)
(0 1.15951e-29 7.24693e-31 13.5324 5.08819e-15 -1.5511e-15 0.223041 -8.73823e-17 -2.6223e-17)
(5.20585e-15 0 -3.62347e-31 13.5324 -3.3666e-15 -4.23215e-18 0.223041 -7.44832e-16 6.7887e-16)
(-1.3174e-15 -1.97298e-30 -1.29592e-31 13.1367 4.732e-15 -1.58633e-15 0.219677 -8.16042e-17 -2.72482e-17)
(0 1.71434e-29 7.14307e-31 13.1367 -3.98235e-15 5.14218e-17 0.219677 -7.60653e-16 6.79797e-16)
(1.3331e-15 7.52541e-30 4.75533e-31 12.7538 4.09933e-15 -1.6308e-15 0.216389 -7.78503e-17 -2.85228e-17)
(0 0 -3.52034e-31 12.7538 -3.68718e-15 7.17517e-17 0.216389 -7.84418e-16 6.81264e-16)
(1.5627e-15 0 -6.93978e-31 12.3836 4.00837e-15 -1.68414e-15 0.213176 -6.22048e-17 -2.99103e-17)
(0 5.55182e-30 1.04097e-30 12.3836 -2.95817e-15 5.34035e-17 0.213176 -7.98049e-16 6.82609e-16)
(3.0806e-15 -1.09445e-29 -6.84031e-31 12.0257 4.29237e-15 -1.73794e-15 0.21004 -7.69524e-17 -3.12653e-17)
(0 1.64168e-29 1.02605e-30 12.0257 -3.29163e-15 3.56463e-17 0.21004 -8.06567e-16 6.83714e-16)
(-1.23936e-15 -3.32028e-30 -5.48176e-31 11.6798 4.76523e-15 -1.79304e-15 0.206981 -7.40946e-17 -3.27684e-17)
(0 1.07876e-29 1.01134e-30 11.6798 -4.85324e-15 -6.49651e-17 0.206981 -8.22451e-16 6.84847e-16)
(-1.39357e-15 1.43607e-29 1.56182e-30 11.3457 6.10215e-15 -1.84332e-15 0.203999 -9.62133e-17 -3.40156e-17)
(0 -1.0633e-29 -1.32913e-30 11.3457 -5.35887e-15 1.13705e-18 0.203999 -8.50092e-16 6.85424e-16)
(1.40813e-15 -3.71996e-30 -2.33776e-31 11.0229 5.87336e-15 -1.89421e-15 0.201094 -1.25048e-16 -3.56123e-17)
(-5.6325e-15 0 0 11.0229 -4.68633e-15 1.72418e-16 0.201094 -8.76543e-16 6.87937e-16)
(0 -5.16521e-30 -6.45651e-31 10.711 5.01105e-15 -1.95701e-15 0.198264 -9.05622e-17 -3.73708e-17)
(-5.68989e-15 1.03304e-29 9.68476e-31 10.711 -4.56387e-15 7.96504e-17 0.198264 -9.0666e-16 6.8986e-16)
(-1.43661e-15 2.4084e-29 1.19062e-30 10.4099 5.94204e-15 -2.02074e-15 0.19551 -9.63244e-17 -3.90838e-17)
(1.14929e-14 -1.01823e-29 -6.36397e-31 10.4099 -4.30412e-15 -1.06143e-16 0.19551 -9.32669e-16 6.90288e-16)
(3.80508e-17 1.13437e-29 7.03711e-31 10.1191 6.58557e-15 -2.08263e-15 0.192829 -1.28689e-16 -4.0858e-17)
(7.2147e-15 -2.00728e-29 -1.56819e-30 10.1191 -5.35311e-15 -1.20364e-16 0.192829 -9.57131e-16 6.9035e-16)
(0 0 0 9.83819 6.03809e-15 -2.14908e-15 0.190221 -1.24023e-16 -4.28349e-17)
(0 4.94628e-30 3.09143e-31 9.83819 -5.57546e-15 -1.15907e-17 0.190221 -1.00603e-15 6.91309e-16)
(-1.47784e-15 -1.57958e-29 -1.89344e-30 9.56693 5.54647e-15 -2.21844e-15 0.187684 -1.10987e-16 -4.48147e-17)
(5.91137e-15 2.43769e-29 2.13298e-30 9.56693 -4.69542e-15 6.68691e-17 0.187684 -1.02636e-15 6.92738e-16)
(-1.49121e-15 8.50841e-30 1.14185e-30 9.30494 6.01183e-15 -2.27961e-15 0.185217 -1.08095e-16 -4.65588e-17)
(-7.31747e-15 0 -3.00344e-31 9.30494 -5.33832e-15 6.29082e-17 0.185217 -1.04509e-15 6.94098e-16)
(1.50439e-15 -1.79052e-29 -1.42631e-30 9.0519 6.72949e-15 -2.3293e-15 0.182818 -1.33024e-16 -4.81628e-17)
(6.01758e-15 1.42099e-29 1.18416e-30 9.0519 -4.67083e-15 -2.47033e-17 0.182818 -1.06975e-15 6.95421e-16)
(-1.5174e-15 2.23651e-29 1.99426e-30 8.80746 5.73368e-15 -2.37681e-15 0.180486 -1.40654e-16 -4.98969e-17)
(6.06961e-15 -1.8675e-29 -1.75078e-30 8.80746 -3.76526e-15 -2.38332e-17 0.180486 -1.08028e-15 6.9663e-16)
(-1.53024e-15 -9.08056e-31 2.44791e-31 8.57131 3.95428e-15 -2.43249e-15 0.178219 -9.55434e-17 -5.19207e-17)
(0 4.60183e-30 0 8.57131 -3.99329e-15 5.28324e-17 0.178219 -1.10264e-15 6.98286e-16)
(-1.54291e-15 3.69583e-30 -3.72483e-32 8.34315 3.82696e-15 -2.4874e-15 0.176015 -6.97624e-17 -5.3707e-17)
(0 0 5.66985e-31 8.34315 -3.72242e-15 3.42979e-17 0.176015 -1.1189e-15 7.00588e-16)
(-1.55542e-15 -9.72297e-30 -1.42883e-30 8.12266 4.70803e-15 -2.52956e-15 0.173872 -9.28969e-17 -5.5271e-17)
(6.2217e-15 1.78835e-29 1.67657e-30 8.12266 -4.14743e-15 -8.90522e-18 0.173872 -1.13637e-15 7.02041e-16)
(1.56778e-15 -8.08994e-30 -1.07548e-30 7.90956 4.70894e-15 -2.57241e-15 0.17179 -1.10036e-16 -5.71667e-17)
(0 4.40679e-30 8.26273e-31 7.90956 -5.168e-15 3.89807e-17 0.17179 -1.17598e-15 7.0372e-16)
(0 -8.68725e-30 -5.42953e-31 7.70357 4.2168e-15 -2.63218e-15 0.169766 -9.56581e-17 -5.95594e-17)
(0 8.68725e-30 8.1443e-31 7.70357 -5.40016e-15 7.8919e-17 0.169766 -1.20815e-15 7.07003e-16)
(8.18165e-16 3.68065e-30 -5.50613e-31 7.5044 4.01643e-15 -2.69732e-15 0.167798 -9.12797e-17 -6.1793e-17)
(-2.4102e-15 4.28137e-30 1.33793e-30 7.5044 -4.07673e-15 4.53467e-17 0.167798 -1.23192e-15 7.09885e-16)
(2.37565e-15 -3.37601e-29 -2.63751e-30 7.31181 4.29839e-15 -2.76781e-15 0.165885 -8.93817e-17 -6.45443e-17)
(1.28315e-14 3.37601e-29 2.90126e-30 7.31181 -2.36009e-15 -8.17535e-17 0.165885 -1.2467e-15 7.12087e-16)
(0 8.31905e-30 2.5997e-31 7.12553 5.00974e-15 -2.84638e-15 0.164026 -1.06915e-16 -6.72677e-17)
(6.46284e-15 0 5.19941e-31 7.12553 -3.73387e-15 -1.2007e-16 0.164026 -1.25096e-15 7.1223e-16)
(-6.24343e-15 2.82681e-29 2.30732e-30 6.94533 4.94408e-15 -2.91068e-15 0.162218 -1.25176e-16 -6.94774e-17)
(-4.20133e-15 -2.04995e-29 -1.79371e-30 6.94533 -5.76124e-15 4.56152e-17 0.162218 -1.28096e-15 7.14598e-16)
(6.3612e-16 1.57914e-29 1.01718e-30 6.77096 4.27595e-15 -2.96336e-15 0.16046 -1.0694e-16 -7.17668e-17)
(-6.55537e-15 -8.08229e-30 -5.05143e-31 6.77096 -5.67655e-15 9.73176e-17 0.16046 -1.30992e-15 7.1979e-16)
(0 3.98323e-30 7.46855e-31 6.60221 4.2693e-15 -3.02068e-15 0.158751 -9.67697e-17 -7.43045e-17)
(0 0 -2.48952e-31 6.60221 -3.89086e-15 6.29954e-17 0.158751 -1.33083e-15 7.24417e-16)
(0 7.85227e-30 7.3615e-31 6.43886 4.03681e-15 -3.07521e-15 0.157089 -1.09749e-16 -7.65634e-17)
(6.64584e-15 -3.92614e-30 -2.45383e-31 6.43886 -1.86589e-15 1.18795e-16 0.157089 -1.34335e-15 7.28597e-16)
(-5.05955e-16 2.34292e-29 2.15246e-30 6.28069 2.20667e-15 -3.12422e-15 0.155473 -8.81169e-17 -7.89382e-17)
(0 -2.32192e-29 -1.93493e-30 6.28069 -1.04764e-15 7.60385e-17 0.155473 -1.34284e-15 7.33218e-16)
(2.14732e-15 -3.8144e-29 -3.8144e-30 6.12752 8.56324e-16 -3.19557e-15 0.153901 -2.12205e-17 -8.24346e-17)
(1.13214e-14 3.8144e-29 3.8144e-30 6.12752 -5.2832e-16 -1.17497e-16 0.153901 -1.34197e-15 7.36307e-16)
(0 -5.4396e-30 -1.4099e-30 5.97915 1.71962e-15 -3.26152e-15 0.152371 -2.20219e-17 -8.46534e-17)
(1.35559e-14 3.75973e-30 1.4099e-30 5.97915 -2.05013e-15 -7.55954e-17 0.152371 -1.33499e-15 7.39627e-16)
(-3.41052e-15 1.10179e-29 5.47732e-31 5.83539 2.64566e-15 -3.30375e-15 0.150884 -7.03853e-17 -8.70603e-17)
(0 -3.70584e-30 0 5.83539 -2.31114e-15 9.13598e-17 0.150884 -1.35683e-15 7.44961e-16)
(-1.71593e-15 7.30601e-30 -1.79888e-31 5.69608 2.57948e-15 -3.33508e-15 0.149436 -6.70863e-17 -8.8797e-17)
(1.37275e-14 0 9.13182e-31 5.69608 -7.50121e-16 6.62949e-17 0.149436 -1.37232e-15 7.50318e-16)
(-3.00334e-16 -1.44503e-29 -1.17948e-30 5.56105 2.6879e-15 -3.35817e-15 0.148028 -6.89324e-17 -9.08549e-17)
(2.02683e-15 1.08011e-29 9.00094e-31 5.56105 -2.24568e-15 9.33336e-17 0.148028 -1.37271e-15 7.55175e-16)
(-1.73696e-15 7.19486e-30 -6.05302e-31 5.43013 2.24006e-15 -3.39271e-15 0.146657 -7.48932e-17 -9.32859e-17)
(0 0 1.33079e-30 5.43013 -2.19683e-15 1.22781e-16 0.146657 -1.39822e-15 7.59391e-16)
(2.21828e-16 7.14779e-30 1.15875e-30 5.30316 2.11427e-15 -3.45505e-15 0.145323 -4.64703e-17 -9.6974e-17)
(5.02013e-15 -3.49791e-30 -8.74477e-31 5.30316 -7.68807e-17 4.89097e-17 0.145323 -1.39965e-15 7.63856e-16)
(-1.75758e-15 7.09279e-30 1.14904e-30 5.18002 2.64441e-15 -3.51687e-15 0.144024 -7.01107e-17 -9.94968e-17)
(5.08941e-15 0 -4.30972e-31 5.18002 -7.98325e-16 -7.23622e-18 0.144024 -1.37594e-15 7.68604e-16)
(-3.53551e-15 7.28534e-30 1.54908e-31 5.06054 2.62025e-15 -3.56733e-15 0.142759 -7.76609e-17 -1.02695e-16)
(0 0 4.24795e-31 5.06054 -2.41833e-15 3.68101e-17 0.142759 -1.38913e-15 7.71942e-16)
(-1.77783e-15 1.03434e-29 7.1143e-31 4.9446 3.42881e-15 -3.63018e-15 0.141528 -7.07854e-17 -1.06052e-16)
(-3.77137e-15 -3.34965e-30 0 4.9446 -3.9457e-15 1.10883e-16 0.141528 -1.41207e-15 7.77575e-16)
(0 -9.90493e-30 -4.12705e-31 4.83206 4.28627e-15 -3.68857e-15 0.140329 -1.26763e-16 -1.09134e-16)
(-5.29261e-15 9.90493e-30 4.12705e-31 4.83206 -4.07481e-15 5.70554e-17 0.140329 -1.44443e-15 7.83476e-16)
(3.62974e-15 -1.01395e-29 -1.5196e-30 4.72281 4.06154e-15 -3.74045e-15 0.139161 -1.2324e-16 -1.12251e-16)
(5.35884e-15 6.50865e-30 1.22037e-30 4.72281 -3.12459e-15 -2.30387e-18 0.139161 -1.46479e-15 7.88784e-16)
(1.80753e-15 -1.00431e-29 -7.03567e-31 4.61672 3.80336e-15 -3.79398e-15 0.138024 -1.1708e-16 -1.15568e-16)
(-7.23012e-15 6.41536e-30 4.0096e-31 4.61672 -2.75093e-15 1.14624e-16 0.138024 -1.50059e-15 7.93937e-16)
(-1.81726e-15 9.94865e-30 1.88698e-30 4.51368 3.45083e-15 -3.84104e-15 0.136916 -1.11236e-16 -1.18427e-16)
(5.48916e-15 0 -1.18564e-30 4.51368 -1.37928e-15 1.53102e-16 0.136916 -1.51354e-15 7.99984e-16)
(1.75437e-15 9.34917e-30 1.16865e-30 4.41358 3.87056e-15 -3.88638e-15 0.135836 -9.88796e-17 -1.21775e-16)
(-1.75437e-15 -3.11639e-30 -7.79098e-31 4.41358 -1.41696e-15 2.2907e-17 0.135836 -1.49974e-15 8.04778e-16)
(-3.45845e-15 1.53586e-29 1.53586e-30 4.31631 4.74731e-15 -3.9232e-15 0.134784 -1.40622e-16 -1.24222e-16)
(5.61671e-15 -6.14345e-30 -7.67931e-31 4.31631 -1.96221e-15 -4.62816e-17 0.134784 -1.51988e-15 8.08789e-16)
(1.84598e-15 -1.57169e-29 -1.45239e-30 4.22178 4.62395e-15 -3.95487e-15 0.133758 -1.57147e-16 -1.27372e-16)
(0 1.21108e-29 1.13539e-30 4.22178 -3.13329e-15 4.98827e-17 0.133758 -1.52995e-15 8.11146e-16)
(1.68001e-15 1.19372e-29 7.46076e-31 4.12989 4.64417e-15 -4.00924e-15 0.132758 -1.36837e-16 -1.31395e-16)
(-9.10161e-15 -5.96861e-30 -3.73038e-31 4.12989 -4.4027e-15 1.41184e-16 0.132758 -1.56605e-15 8.16341e-16)
(-1.65593e-15 1.17661e-29 3.67691e-31 4.04054 5.3105e-15 -4.0525e-15 0.131784 -1.63065e-16 -1.33956e-16)
(0 0 7.35383e-31 4.04054 -3.64739e-15 2.03907e-17 0.131784 -1.59547e-15 8.20485e-16)
(0 1.15975e-29 1.08726e-30 3.95365 5.40316e-15 -4.08664e-15 0.130834 -1.8479e-16 -1.37528e-16)
(0 -5.79874e-30 -7.24843e-31 3.95365 -4.16909e-15 -5.01144e-17 0.130834 -1.61261e-15 8.24261e-16)
(1.88323e-15 2.49967e-29 1.45402e-30 3.86913 5.55612e-15 -4.13406e-15 0.129907 -1.74042e-16 -1.41099e-16)
(0 -2.85782e-29 -1.78614e-30 3.86913 -4.8936e-15 3.63105e-17 0.129907 -1.62053e-15 8.29386e-16)
(1.89237e-15 7.69769e-30 7.20067e-31 3.7869 5.64319e-15 -4.16631e-15 0.129003 -2.00586e-16 -1.43778e-16)
(-3.1715e-15 -5.63371e-30 -7.04214e-31 3.7869 -4.13557e-15 -2.5083e-18 0.129003 -1.63252e-15 8.34605e-16)
(-3.80288e-15 7.13265e-30 6.80541e-31 3.70689 5.17017e-15 -4.2003e-15 0.128122 -1.85136e-16 -1.47607e-16)
(7.60577e-15 0 0 3.70689 -4.01901e-15 -9.10771e-17 0.128122 -1.64205e-15 8.38034e-16)
(-1.91045e-15 9.03666e-30 3.44765e-31 3.62902 4.06031e-15 -4.23265e-15 0.127262 -1.73412e-16 -1.50283e-16)
(0 0 6.84172e-31 3.62902 -3.6046e-15 9.24477e-17 0.127262 -1.65025e-15 8.44352e-16)
(0 5.39493e-30 0 3.55321 3.27703e-15 -4.27698e-15 0.126423 -1.11886e-16 -1.55119e-16)
(-3.03708e-15 -5.39493e-30 0 3.55321 -1.7497e-15 2.2591e-16 0.126423 -1.67163e-15 8.54609e-16)
(0 5.31761e-30 9.97052e-31 3.4794 4.66138e-15 -4.33273e-15 0.125604 -1.22161e-16 -1.58753e-16)
(0 0 -6.64701e-31 3.4794 -1.38456e-15 2.0249e-16 0.125604 -1.66513e-15 8.6191e-16)
(0 1.04828e-29 1.31035e-30 3.40752 6.22986e-15 -4.38781e-15 0.124806 -2.16169e-16 -1.6374e-16)
(-2.95064e-15 0 -6.55174e-31 3.40752 -3.32844e-15 5.76457e-17 0.124806 -1.6644e-15 8.68557e-16)
(0 5.16627e-30 6.45784e-31 3.3375 6.15162e-15 -4.43005e-15 0.124026 -2.41843e-16 -1.66575e-16)
(1.5567e-14 0 0 3.3375 -3.21696e-15 -2.63693e-16 0.124026 -1.70399e-15 8.74881e-16)
(-3.90918e-15 1.97281e-30 1.00223e-31 3.2693 4.99378e-15 -4.45937e-15 0.123265 -2.16626e-16 -1.7077e-16)
(7.81836e-15 5.09222e-30 6.36528e-31 3.2693 -2.8125e-15 -3.38677e-16 0.123265 -1.70289e-15 8.77134e-16)
(1.96325e-15 -8.55773e-30 -1.00082e-30 3.20284 4.94214e-15 -4.53149e-15 0.122522 -1.6071e-16 -1.7703e-16)
(0 5.01924e-30 6.27405e-31 3.20284 -3.99901e-15 2.65186e-17 0.122522 -1.71997e-15 8.80145e-16)
(0 0 1.23683e-30 3.13807 6.50741e-15 -4.5747e-15 0.121796 -2.1898e-16 -1.79162e-16)
(-7.8874e-15 4.9473e-30 -6.18413e-31 3.13807 -4.01816e-15 1.65717e-16 0.121796 -1.76014e-15 8.93436e-16)
(-1.9804e-15 -1.5998e-29 -2.66137e-30 3.07494 7.01616e-15 -4.54114e-15 0.121088 -2.88172e-16 -1.79546e-16)
(7.9216e-15 2.4382e-29 3.04775e-30 3.07494 -4.05657e-15 -6.98715e-17 0.121088 -1.81059e-15 9.02116e-16)
(0 4.8065e-30 6.00813e-31 3.01339 4.8452e-15 -4.51447e-15 0.120396 -2.65872e-16 -1.82257e-16)
(0 -4.8065e-30 0 3.01339 -3.90179e-15 5.2157e-17 0.120396 -1.84872e-15 9.08939e-16)
(2.66704e-15 -4.73761e-30 -1.1844e-30 2.95338 1.76873e-15 -4.53003e-15 0.11972 -1.21372e-16 -1.8608e-16)
(0 4.73761e-30 1.1844e-30 2.95338 -2.20484e-15 1.80388e-16 0.11972 -1.88068e-15 9.22133e-16)
(-2.00574e-15 3.5296e-30 -1.78353e-31 2.89485 4.56752e-16 -4.53237e-15 0.11906 -2.17134e-17 -1.8779e-16)
(0 0 5.83714e-31 2.89485 -1.04342e-16 -3.9663e-17 0.11906 -1.90824e-15 9.31078e-16)
(-1.43705e-15 -2.51677e-29 -3.77987e-30 2.83776 4.66739e-16 -4.52541e-15 0.118415 -1.59205e-17 -1.90945e-16)
(1.61128e-14 2.76167e-29 4.60278e-30 2.83776 1.14384e-15 2.68797e-17 0.118415 -1.91366e-15 9.37529e-16)
(0 -8.83227e-30 1.1342e-30 2.78207 1.09261e-15 -4.54306e-15 0.117785 -2.31912e-17 -1.94799e-16)
(-2.554e-15 -4.53681e-30 0 2.78207 -3.07133e-16 3.23836e-16 0.117785 -1.90297e-15 9.47441e-16)
(-2.51739e-15 8.94358e-30 1.11795e-30 2.72773 3.19428e-15 -4.56371e-15 0.117169 -1.57344e-16 -1.9833e-16)
(0 0 0 2.72773 -2.35559e-15 2.40006e-16 0.117169 -1.92601e-15 9.56863e-16)
(-6.11661e-15 -1.59601e-29 -3.67155e-30 2.6747 2.574e-15 -4.58608e-15 0.116567 -1.17514e-16 -2.02475e-16)
(1.6311e-14 2.64462e-29 4.95866e-30 2.6747 -1.32067e-15 -1.93603e-16 0.116567 -1.93415e-15 9.63892e-16)
(0 -3.04117e-29 -4.34452e-30 2.62294 2.80206e-15 -4.6211e-15 0.115979 -1.07353e-16 -2.07267e-16)
(1.63763e-14 3.04117e-29 4.34452e-30 2.62294 1.01521e-16 -8.41397e-17 0.115979 -1.90288e-15 9.66797e-16)
(-2.05517e-15 1.63316e-29 2.58263e-30 2.57241 2.75989e-15 -4.67024e-15 0.115404 -1.41323e-16 -2.12858e-16)
(0 -8.56451e-30 -1.07056e-30 2.57241 -3.04441e-15 2.76981e-16 0.115404 -1.89386e-15 9.74561e-16)
(2.06325e-15 -3.30321e-29 -5.72429e-30 2.52308 3.73085e-15 -4.71868e-15 0.114842 -1.06677e-16 -2.17792e-16)
(1.6506e-14 2.95462e-29 5.2761e-30 2.52308 -3.62208e-15 4.7917e-17 0.114842 -2.00374e-15 9.80451e-16)