/*--------------------------------*- C++ -*----------------------------------*\
| =========                 |                                                 |
| \\      /  F ield         | OpenFOAM: The Open Source CFD Toolbox           |
|  \\    /   O peration     | Version:  2012                                  |
|   \\  /    A nd           | Website:  www.openfoam.com                      |
|    \\/     M anipulation  |                                                 |
\*---------------------------------------------------------------------------*/
FoamFile
{
    version     2.0;
    format      ascii;
    class       volScalarField;
    location    "12000";
    object      p;
}
// * * * * * * * * * * * * * * * * * * * * * * * * * * * * * * * * * * * * * //

dimensions      [0 2 -2 0 0 0 0];


internalField   nonuniform List<scalar> 
2560
(
2.44038e-15
2.2845e-14
5.24758e-15
2.28451e-14
5.73475e-15
2.28453e-14
5.60172e-15
2.28456e-14
5.61341e-15
2.28461e-14
5.69628e-15
2.28468e-14
5.7788e-15
2.28476e-14
5.85252e-15
2.28486e-14
5.92343e-15
2.28497e-14
5.99351e-15
2.2851e-14
6.06246e-15
2.28524e-14
6.13008e-15
2.2854e-14
6.19639e-15
2.28556e-14
6.26144e-15
2.28574e-14
6.3252e-15
2.28594e-14
6.3877e-15
2.28614e-14
6.44901e-15
2.28636e-14
6.50904e-15
2.28659e-14
6.56789e-15
2.28683e-14
6.62571e-15
2.28708e-14
6.68237e-15
2.28733e-14
6.73785e-15
2.2876e-14
6.79212e-15
2.28788e-14
6.84548e-15
2.28817e-14
6.89776e-15
2.28847e-14
6.94902e-15
2.28876e-14
6.99915e-15
2.28906e-14
7.04845e-15
2.28938e-14
7.09688e-15
2.28971e-14
7.14438e-15
2.29004e-14
7.19098e-15
2.29037e-14
7.23672e-15
2.29068e-14
7.28166e-15
2.291e-14
7.32593e-15
2.29133e-14
7.36948e-15
2.29167e-14
7.41223e-15
2.29201e-14
7.45416e-15
2.29235e-14
7.49556e-15
2.29269e-14
7.53643e-15
2.29303e-14
7.57679e-15
2.29338e-14
7.61653e-15
2.29372e-14
7.65572e-15
2.29408e-14
7.69443e-15
2.29447e-14
7.73274e-15
2.29485e-14
7.77076e-15
2.29521e-14
7.80851e-15
2.2956e-14
7.84577e-15
2.29602e-14
7.8829e-15
2.29647e-14
7.91956e-15
2.29695e-14
7.95611e-15
2.29742e-14
7.99302e-15
2.29787e-14
8.02994e-15
2.29831e-14
8.06655e-15
2.29872e-14
8.10331e-15
2.29913e-14
8.14011e-15
2.29953e-14
8.17684e-15
2.29996e-14
8.21372e-15
2.30041e-14
8.2509e-15
2.30087e-14
8.28811e-15
2.3013e-14
8.32498e-15
2.30178e-14
8.36186e-15
2.3023e-14
8.39888e-15
2.30286e-14
8.43576e-15
2.3034e-14
8.47235e-15
2.30398e-14
8.50915e-15
2.30461e-14
8.54587e-15
2.30521e-14
8.58305e-15
2.30579e-14
8.62066e-15
2.3064e-14
8.65898e-15
2.307e-14
8.69829e-15
2.30763e-14
8.73682e-15
2.30823e-14
8.776e-15
2.30884e-14
8.81552e-15
2.30941e-14
8.85565e-15
2.31e-14
8.89606e-15
2.31065e-14
8.93704e-15
2.31127e-14
8.97824e-15
2.31185e-14
9.01994e-15
2.31244e-14
9.06245e-15
2.31297e-14
9.10574e-15
2.31353e-14
9.14774e-15
2.31428e-14
9.18974e-15
2.3148e-14
9.23346e-15
2.31524e-14
9.27673e-15
2.3158e-14
9.3195e-15
2.31653e-14
9.36316e-15
2.31722e-14
9.40694e-15
2.31791e-14
9.45039e-15
2.31849e-14
9.49421e-15
2.31915e-14
9.53757e-15
2.31994e-14
9.58118e-15
2.32066e-14
9.62458e-15
2.32137e-14
9.66849e-15
2.32215e-14
9.71204e-15
2.323e-14
9.75679e-15
2.32377e-14
9.80104e-15
2.32454e-14
9.84805e-15
2.32532e-14
9.8944e-15
2.32638e-14
9.93829e-15
2.32737e-14
9.9839e-15
2.32822e-14
1.00294e-14
2.3292e-14
1.00766e-14
2.33014e-14
1.01208e-14
2.33095e-14
1.01682e-14
2.33192e-14
1.02161e-14
2.33314e-14
1.02634e-14
2.33416e-14
1.0311e-14
2.33519e-14
1.03597e-14
2.33622e-14
1.04085e-14
2.33708e-14
1.04591e-14
2.33797e-14
1.05095e-14
2.33879e-14
1.05606e-14
2.33976e-14
1.06104e-14
2.34049e-14
1.06615e-14
2.34129e-14
1.0714e-14
2.34217e-14
1.07667e-14
2.34304e-14
1.08204e-14
2.34361e-14
1.08751e-14
2.3443e-14
1.09276e-14
2.34501e-14
1.09817e-14
2.34587e-14
1.10394e-14
2.34637e-14
1.10934e-14
2.34694e-14
1.11476e-14
2.34759e-14
1.12049e-14
2.34835e-14
1.12622e-14
2.34889e-14
1.13181e-14
2.34989e-14
1.13735e-14
2.35094e-14
1.14326e-14
2.35161e-14
1.1493e-14
2.35192e-14
1.15524e-14
2.35187e-14
1.16083e-14
2.35238e-14
1.16627e-14
2.35325e-14
1.17199e-14
2.35427e-14
1.17751e-14
2.35456e-14
1.18213e-14
2.3555e-14
1.1865e-14
2.35666e-14
1.19127e-14
2.35761e-14
1.19575e-14
2.35838e-14
1.20058e-14
2.35967e-14
1.20575e-14
2.36012e-14
1.21029e-14
2.35974e-14
1.21511e-14
2.36022e-14
1.21971e-14
2.3611e-14
1.22478e-14
2.36099e-14
1.2298e-14
2.3611e-14
1.23475e-14
2.36147e-14
1.23983e-14
2.36189e-14
1.24524e-14
2.3619e-14
1.25097e-14
2.36104e-14
1.25649e-14
2.36033e-14
1.26201e-14
2.35977e-14
1.26822e-14
2.35917e-14
1.27486e-14
2.3588e-14
1.28164e-14
2.35821e-14
1.28704e-14
2.35716e-14
1.29275e-14
2.35496e-14
1.29849e-14
2.35312e-14
1.30421e-14
2.35317e-14
1.31063e-14
2.35342e-14
1.31569e-14
2.3529e-14
1.32036e-14
2.35188e-14
1.32458e-14
2.35118e-14
1.32931e-14
2.35057e-14
1.33477e-14
2.34986e-14
1.33886e-14
2.34882e-14
1.34357e-14
2.3475e-14
1.34731e-14
2.34698e-14
1.35002e-14
2.34678e-14
1.35266e-14
2.34645e-14
1.35517e-14
2.34605e-14
1.35851e-14
2.34616e-14
1.36209e-14
2.34578e-14
1.36638e-14
2.34448e-14
1.37077e-14
2.34229e-14
1.37573e-14
2.34031e-14
1.38067e-14
2.33703e-14
1.38606e-14
2.33355e-14
1.39182e-14
2.32991e-14
1.39791e-14
2.32667e-14
1.4032e-14
2.32442e-14
1.40973e-14
2.32007e-14
1.41585e-14
2.31523e-14
1.42256e-14
2.30995e-14
1.42876e-14
2.30532e-14
1.43542e-14
2.29874e-14
1.44197e-14
2.29131e-14
1.44887e-14
2.28359e-14
1.45504e-14
2.2756e-14
1.46145e-14
2.26788e-14
1.46701e-14
2.26047e-14
1.4727e-14
2.2534e-14
1.47794e-14
2.24457e-14
1.48372e-14
2.2356e-14
1.49053e-14
2.22809e-14
1.49672e-14
2.22153e-14
1.50275e-14
2.21223e-14
1.50911e-14
2.20392e-14
1.5152e-14
2.19819e-14
1.52149e-14
2.19189e-14
1.52792e-14
2.18398e-14
1.53444e-14
2.17766e-14
1.53938e-14
2.17188e-14
1.54638e-14
2.16508e-14
1.5538e-14
2.15831e-14
1.56159e-14
2.15107e-14
1.56971e-14
2.14333e-14
1.57811e-14
2.1372e-14
1.58571e-14
2.1295e-14
1.59353e-14
2.12125e-14
1.60049e-14
2.11455e-14
1.60866e-14
2.10727e-14
1.61591e-14
2.09936e-14
1.62327e-14
2.08869e-14
1.63179e-14
2.07939e-14
1.64041e-14
2.07245e-14
1.64702e-14
2.06781e-14
1.65367e-14
2.06127e-14
1.66035e-14
2.05278e-14
1.66602e-14
2.04647e-14
1.67271e-14
2.04332e-14
1.67933e-14
2.03602e-14
1.68795e-14
2.02865e-14
1.69549e-14
2.02423e-14
1.70298e-14
2.02164e-14
1.71038e-14
2.01569e-14
1.71871e-14
2.0073e-14
1.72701e-14
2.00252e-14
1.73325e-14
1.99918e-14
1.73945e-14
1.99825e-14
1.74556e-14
1.99458e-14
1.75359e-14
1.98911e-14
1.7605e-14
1.98579e-14
1.76934e-14
1.98656e-14
1.78009e-14
1.98323e-14
1.78977e-14
1.97766e-14
1.79751e-14
1.97674e-14
1.80634e-14
1.97533e-14
1.81429e-14
1.97333e-14
1.82243e-14
1.96963e-14
1.82984e-14
1.96804e-14
1.83858e-14
1.96643e-14
1.84674e-14
1.96264e-14
1.85642e-14
1.95945e-14
1.86382e-14
1.95761e-14
1.87299e-14
1.95297e-14
1.88017e-14
1.95404e-14
1.88735e-14
1.95289e-14
1.89466e-14
1.94936e-14
1.89645e-14
1.94707e-14
1.90049e-14
1.94585e-14
1.90681e-14
1.94554e-14
1.91168e-14
1.95173e-14
1.91693e-14
1.95492e-14
1.92068e-14
1.96265e-14
1.92468e-14
1.96748e-14
1.93075e-14
1.96564e-14
1.94096e-14
1.96259e-14
1.94816e-14
1.96732e-14
1.95613e-14
1.97222e-14
1.96319e-14
1.97534e-14
1.9677e-14
1.98023e-14
1.97325e-14
1.98143e-14
1.97812e-14
1.98069e-14
1.98801e-14
1.98324e-14
1.99409e-14
1.9888e-14
2.00186e-14
1.99183e-14
2.00074e-14
1.99395e-14
2.00484e-14
1.99525e-14
2.01243e-14
1.99911e-14
2.01661e-14
2.00535e-14
2.01735e-14
2.01221e-14
2.01437e-14
2.013e-14
2.01266e-14
2.01493e-14
2.01712e-14
2.0216e-14
2.02414e-14
2.02788e-14
2.02862e-14
2.03205e-14
2.0324e-14
2.03241e-14
2.03065e-14
2.03216e-14
2.03342e-14
2.03462e-14
2.03399e-14
2.04305e-14
2.04192e-14
2.04964e-14
2.04574e-14
2.05289e-14
2.04878e-14
2.05289e-14
2.05276e-14
2.05432e-14
2.05782e-14
2.06173e-14
2.06226e-14
2.06881e-14
2.06124e-14
2.06954e-14
2.0688e-14
2.07046e-14
2.07429e-14
2.07587e-14
2.07481e-14
2.08267e-14
2.07933e-14
2.08829e-14
2.08153e-14
2.09293e-14
2.09629e-14
2.09677e-14
2.09749e-14
2.102e-14
2.09697e-14
2.10598e-14
2.10017e-14
2.10928e-14
2.10702e-14
2.1092e-14
2.10354e-14
2.10813e-14
2.10662e-14
2.11211e-14
2.105e-14
2.10985e-14
2.10139e-14
2.10957e-14
2.1004e-14
2.11434e-14
2.10394e-14
2.11665e-14
2.10699e-14
2.11655e-14
2.1017e-14
2.11652e-14
2.1117e-14
2.11727e-14
2.11422e-14
2.11784e-14
2.11521e-14
2.11521e-14
2.1202e-14
2.11951e-14
2.12898e-14
2.12281e-14
2.12972e-14
2.12955e-14
2.12701e-14
2.13269e-14
2.13491e-14
2.13819e-14
2.14161e-14
2.14584e-14
2.14446e-14
2.15077e-14
2.15056e-14
2.15575e-14
2.1548e-14
2.16289e-14
2.16373e-14
2.17283e-14
2.16976e-14
2.17609e-14
2.17791e-14
2.18165e-14
1.63563e-14
1.74613e-14
1.63564e-14
1.74613e-14
1.63566e-14
1.74614e-14
1.63568e-14
1.74615e-14
1.63572e-14
1.74616e-14
1.63577e-14
1.74618e-14
1.63582e-14
1.7462e-14
1.63589e-14
1.74623e-14
1.63597e-14
1.74626e-14
1.63606e-14
1.7463e-14
1.63617e-14
1.74634e-14
1.63628e-14
1.74639e-14
1.63639e-14
1.74644e-14
1.63652e-14
1.7465e-14
1.63666e-14
1.74657e-14
1.63681e-14
1.74664e-14
1.63696e-14
1.74672e-14
1.63713e-14
1.74681e-14
1.63731e-14
1.74689e-14
1.6375e-14
1.74698e-14
1.6377e-14
1.74708e-14
1.6379e-14
1.74718e-14
1.63812e-14
1.7473e-14
1.63834e-14
1.74743e-14
1.63858e-14
1.74754e-14
1.63883e-14
1.74765e-14
1.63909e-14
1.74778e-14
1.63936e-14
1.74792e-14
1.63965e-14
1.74807e-14
1.63994e-14
1.74821e-14
1.64024e-14
1.74835e-14
1.64055e-14
1.7485e-14
1.64088e-14
1.74867e-14
1.64121e-14
1.74885e-14
1.64155e-14
1.74903e-14
1.6419e-14
1.74922e-14
1.64226e-14
1.74943e-14
1.64264e-14
1.74964e-14
1.64303e-14
1.74985e-14
1.64344e-14
1.75007e-14
1.64386e-14
1.75031e-14
1.64428e-14
1.75057e-14
1.64472e-14
1.75085e-14
1.6452e-14
1.7511e-14
1.64569e-14
1.75138e-14
1.64619e-14
1.75166e-14
1.64672e-14
1.75196e-14
1.64725e-14
1.75229e-14
1.64781e-14
1.7526e-14
1.64837e-14
1.75293e-14
1.64895e-14
1.75326e-14
1.64956e-14
1.7536e-14
1.65019e-14
1.75398e-14
1.65083e-14
1.75437e-14
1.6515e-14
1.75479e-14
1.6522e-14
1.75524e-14
1.65292e-14
1.75569e-14
1.65367e-14
1.75617e-14
1.65443e-14
1.75669e-14
1.6552e-14
1.7572e-14
1.65601e-14
1.75774e-14
1.65683e-14
1.7583e-14
1.65764e-14
1.75895e-14
1.65848e-14
1.75957e-14
1.65932e-14
1.76023e-14
1.66024e-14
1.76091e-14
1.66114e-14
1.76158e-14
1.66204e-14
1.76235e-14
1.66299e-14
1.76312e-14
1.66399e-14
1.76384e-14
1.66501e-14
1.76465e-14
1.66606e-14
1.76548e-14
1.66716e-14
1.76635e-14
1.66828e-14
1.76725e-14
1.66937e-14
1.76823e-14
1.67052e-14
1.76917e-14
1.67173e-14
1.77014e-14
1.67296e-14
1.77118e-14
1.67423e-14
1.77219e-14
1.67543e-14
1.77321e-14
1.67669e-14
1.77429e-14
1.67798e-14
1.77543e-14
1.6793e-14
1.77665e-14
1.6807e-14
1.77794e-14
1.68209e-14
1.77931e-14
1.68348e-14
1.78071e-14
1.68491e-14
1.78225e-14
1.68633e-14
1.78369e-14
1.6878e-14
1.78516e-14
1.6893e-14
1.7868e-14
1.69092e-14
1.78835e-14
1.69246e-14
1.79004e-14
1.694e-14
1.79179e-14
1.69554e-14
1.79343e-14
1.69717e-14
1.79514e-14
1.69889e-14
1.79699e-14
1.7006e-14
1.79908e-14
1.70241e-14
1.80105e-14
1.70439e-14
1.80266e-14
1.70638e-14
1.80424e-14
1.70856e-14
1.80614e-14
1.71048e-14
1.8081e-14
1.71268e-14
1.81011e-14
1.71507e-14
1.81192e-14
1.71721e-14
1.81396e-14
1.71954e-14
1.81596e-14
1.72161e-14
1.81802e-14
1.7236e-14
1.82052e-14
1.7257e-14
1.82278e-14
1.7281e-14
1.82491e-14
1.73043e-14
1.82729e-14
1.73268e-14
1.82952e-14
1.73514e-14
1.83161e-14
1.73773e-14
1.83375e-14
1.74045e-14
1.83604e-14
1.7433e-14
1.83857e-14
1.74577e-14
1.84095e-14
1.74848e-14
1.84348e-14
1.75122e-14
1.84636e-14
1.7539e-14
1.84919e-14
1.75671e-14
1.85195e-14
1.75946e-14
1.85455e-14
1.76225e-14
1.85709e-14
1.76497e-14
1.85987e-14
1.76774e-14
1.86259e-14
1.77078e-14
1.86513e-14
1.77331e-14
1.86759e-14
1.77601e-14
1.87019e-14
1.77865e-14
1.87271e-14
1.7819e-14
1.87448e-14
1.78488e-14
1.87683e-14
1.7878e-14
1.87954e-14
1.79113e-14
1.88148e-14
1.79442e-14
1.88332e-14
1.79767e-14
1.88574e-14
1.80135e-14
1.88805e-14
1.80499e-14
1.89071e-14
1.80838e-14
1.89326e-14
1.81128e-14
1.89639e-14
1.81416e-14
1.89941e-14
1.81773e-14
1.9016e-14
1.82035e-14
1.90413e-14
1.82343e-14
1.90748e-14
1.82674e-14
1.91046e-14
1.8303e-14
1.91283e-14
1.83338e-14
1.91554e-14
1.83647e-14
1.91858e-14
1.83983e-14
1.92196e-14
1.8432e-14
1.9252e-14
1.84661e-14
1.92803e-14
1.8498e-14
1.93121e-14
1.85327e-14
1.93397e-14
1.85679e-14
1.93707e-14
1.8606e-14
1.9405e-14
1.86422e-14
1.94326e-14
1.86741e-14
1.94609e-14
1.87091e-14
1.9495e-14
1.87324e-14
1.95324e-14
1.87564e-14
1.9573e-14
1.87862e-14
1.96143e-14
1.88144e-14
1.96565e-14
1.88358e-14
1.96969e-14
1.88709e-14
1.97279e-14
1.88967e-14
1.97674e-14
1.89313e-14
1.98051e-14
1.89594e-14
1.9841e-14
1.89758e-14
1.98803e-14
1.8996e-14
1.99231e-14
1.90304e-14
1.99487e-14
1.90584e-14
1.99726e-14
1.90854e-14
2.00154e-14
1.91165e-14
2.00512e-14
1.91571e-14
2.00698e-14
1.91971e-14
2.00917e-14
1.92156e-14
2.01326e-14
1.9244e-14
2.01561e-14
1.92719e-14
2.0183e-14
1.92943e-14
2.02239e-14
1.93268e-14
2.02526e-14
1.93644e-14
2.02745e-14
1.94072e-14
2.03052e-14
1.9429e-14
2.03396e-14
1.94563e-14
2.03724e-14
1.94838e-14
2.0388e-14
1.95011e-14
2.04075e-14
1.95346e-14
2.04415e-14
1.95686e-14
2.04797e-14
1.96086e-14
2.0517e-14
1.96387e-14
2.05482e-14
1.96749e-14
2.05841e-14
1.97069e-14
2.06091e-14
1.97346e-14
2.06338e-14
1.9769e-14
2.06638e-14
1.98048e-14
2.06994e-14
1.98421e-14
2.07353e-14
1.98865e-14
2.07561e-14
1.99435e-14
2.07725e-14
1.99604e-14
2.08057e-14
1.99903e-14
2.08296e-14
2.00388e-14
2.08338e-14
2.00796e-14
2.08554e-14
2.01131e-14
2.08893e-14
2.01395e-14
2.09252e-14
2.01747e-14
2.09476e-14
2.02085e-14
2.09515e-14
2.0241e-14
2.09688e-14
2.0262e-14
2.10103e-14
2.0282e-14
2.10343e-14
2.03117e-14
2.10413e-14
2.03301e-14
2.10632e-14
2.03585e-14
2.10794e-14
2.03655e-14
2.11113e-14
2.04035e-14
2.1107e-14
2.04521e-14
2.10985e-14
2.05013e-14
2.10962e-14
2.05097e-14
2.11003e-14
2.05195e-14
2.11005e-14
2.05309e-14
2.10974e-14
2.05651e-14
2.11226e-14
2.0591e-14
2.11455e-14
2.06193e-14
2.11559e-14
2.06296e-14
2.11649e-14
2.06428e-14
2.11836e-14
2.06692e-14
2.11918e-14
2.07195e-14
2.12105e-14
2.07426e-14
2.12402e-14
2.07386e-14
2.12304e-14
2.07797e-14
2.12124e-14
2.08153e-14
2.12376e-14
2.08563e-14
2.12652e-14
2.08928e-14
2.12651e-14
2.09459e-14
2.12481e-14
2.09763e-14
2.12951e-14
2.10043e-14
2.13154e-14
2.103e-14
2.12998e-14
2.1044e-14
2.12991e-14
2.10769e-14
2.12732e-14
2.10795e-14
2.1262e-14
2.10923e-14
2.12757e-14
2.11052e-14
2.1285e-14
2.11185e-14
2.12808e-14
2.11424e-14
2.12734e-14
2.11579e-14
2.12729e-14
2.11749e-14
2.12995e-14
2.12132e-14
2.1315e-14
2.12537e-14
2.12907e-14
2.12394e-14
2.12649e-14
2.12487e-14
2.12769e-14
2.12426e-14
2.12886e-14
2.12408e-14
2.12823e-14
2.12243e-14
2.12586e-14
2.12317e-14
2.12371e-14
2.12065e-14
2.12552e-14
2.12047e-14
2.12569e-14
2.11887e-14
2.12991e-14
2.11569e-14
2.12704e-14
2.11655e-14
2.12472e-14
2.11956e-14
2.12483e-14
2.11362e-14
2.12729e-14
2.10957e-14
2.12865e-14
2.11454e-14
2.12544e-14
2.11586e-14
2.1211e-14
2.11193e-14
2.12097e-14
2.11534e-14
2.11975e-14
2.11527e-14
2.12457e-14
2.11695e-14
2.12479e-14
2.12037e-14
2.12403e-14
2.12223e-14
2.12398e-14
2.12264e-14
2.1246e-14
2.12332e-14
2.12771e-14
2.12418e-14
2.12636e-14
2.12361e-14
2.12217e-14
2.12365e-14
2.12023e-14
2.1245e-14
2.12387e-14
2.12603e-14
2.12629e-14
2.12303e-14
2.12754e-14
2.12034e-14
2.12783e-14
2.11606e-14
2.1291e-14
2.11664e-14
2.12839e-14
2.11374e-14
2.12901e-14
2.11547e-14
2.12607e-14
2.11695e-14
2.12416e-14
2.12002e-14
2.12464e-14
2.12159e-14
2.12744e-14
2.12162e-14
2.13112e-14
2.12141e-14
2.13107e-14
2.12085e-14
2.12879e-14
2.12645e-14
2.12738e-14
2.12445e-14
2.12793e-14
2.12084e-14
2.13048e-14
2.12436e-14
2.13229e-14
2.12891e-14
2.13624e-14
2.1316e-14
2.13929e-14
2.13203e-14
2.14152e-14
2.13306e-14
2.14006e-14
2.13499e-14
2.1376e-14
2.13813e-14
2.13656e-14
2.14271e-14
2.13367e-14
2.13536e-14
2.13401e-14
2.13808e-14
2.13808e-14
2.14801e-14
2.13777e-14
2.14983e-14
2.13502e-14
2.14163e-14
2.13463e-14
2.14167e-14
2.13445e-14
2.14154e-14
2.13172e-14
2.13651e-14
2.13149e-14
2.13345e-14
2.13418e-14
2.13677e-14
2.13255e-14
2.14447e-14
2.13409e-14
2.14438e-14
2.13785e-14
2.14346e-14
2.14431e-14
2.14848e-14
2.14662e-14
2.14491e-14
2.14959e-14
2.15154e-14
2.15649e-14
2.15562e-14
2.16226e-14
2.16449e-14
2.16978e-14
2.17356e-14
2.17413e-14
2.18145e-14
2.18186e-14
2.19063e-14
2.19033e-14
2.19421e-14
2.19499e-14
2.18405e-14
2.18914e-14
2.18628e-14
2.19184e-14
2.19413e-14
2.19712e-14
2.19842e-14
2.2024e-14
2.19893e-14
2.20554e-14
2.20753e-14
2.21189e-14
2.21228e-14
2.21618e-14
2.21301e-14
2.21806e-14
2.21966e-14
2.22266e-14
2.22516e-14
2.23242e-14
2.22626e-14
2.23544e-14
2.23023e-14
2.23448e-14
2.2322e-14
2.23661e-14
2.22964e-14
2.23929e-14
2.23249e-14
2.24303e-14
2.23835e-14
2.24237e-14
2.23756e-14
2.2391e-14
2.24118e-14
2.23552e-14
2.23905e-14
2.23358e-14
2.23668e-14
2.23069e-14
2.22835e-14
2.22952e-14
2.23038e-14
2.22794e-14
2.23196e-14
2.22863e-14
2.22734e-14
2.22887e-14
2.222e-14
2.22899e-14
2.2243e-14
2.22647e-14
2.22593e-14
2.22388e-14
2.21849e-14
2.22077e-14
2.2168e-14
2.22038e-14
2.2116e-14
2.21666e-14
2.20568e-14
2.20954e-14
2.20528e-14
2.20821e-14
2.2076e-14
2.20649e-14
2.2004e-14
2.21042e-14
2.20187e-14
2.20992e-14
2.20274e-14
2.20963e-14
2.19816e-14
2.20627e-14
2.19274e-14
2.20466e-14
2.19445e-14
2.20173e-14
2.19708e-14
2.20045e-14
2.19594e-14
2.20231e-14
2.19746e-14
2.20591e-14
2.20505e-14
2.2082e-14
2.20061e-14
2.20899e-14
2.20727e-14
2.20855e-14
2.20692e-14
2.21327e-14
2.20266e-14
2.21499e-14
2.20099e-14
2.21741e-14
2.20535e-14
2.22241e-14
2.21414e-14
2.22652e-14
2.21704e-14
2.22774e-14
2.21588e-14
2.22767e-14
2.21949e-14
2.22626e-14
2.22639e-14
2.22852e-14
2.22435e-14
2.22705e-14
2.224e-14
2.22907e-14
2.22706e-14
2.23302e-14
2.22809e-14
2.23538e-14
2.23071e-14
2.23436e-14
2.22958e-14
2.23535e-14
2.23197e-14
2.23663e-14
2.23797e-14
2.23446e-14
2.23485e-14
2.23595e-14
2.23358e-14
2.24123e-14
2.23584e-14
2.24303e-14
2.23603e-14
2.24131e-14
2.2342e-14
2.23972e-14
2.23413e-14
2.24209e-14
2.23196e-14
2.24468e-14
2.23328e-14
2.2437e-14
2.23631e-14
2.24475e-14
2.23726e-14
2.24588e-14
2.23618e-14
2.24523e-14
2.23691e-14
2.24085e-14
2.23568e-14
2.2384e-14
2.23643e-14
2.24178e-14
2.23716e-14
2.24326e-14
2.23685e-14
2.2389e-14
2.23559e-14
2.23746e-14
2.23831e-14
2.24194e-14
2.24007e-14
2.24546e-14
2.24081e-14
2.2481e-14
2.24149e-14
2.24887e-14
2.24209e-14
2.25075e-14
2.24159e-14
2.25176e-14
2.24195e-14
2.25093e-14
2.2422e-14
2.25021e-14
2.2403e-14
2.25057e-14
2.24128e-14
2.25202e-14
2.24107e-14
2.25152e-14
2.24375e-14
2.2511e-14
2.24527e-14
2.25276e-14
2.24564e-14
2.25445e-14
2.24791e-14
2.25309e-14
2.25009e-14
2.25275e-14
2.25014e-14
2.25752e-14
2.25109e-14
2.25919e-14
2.25296e-14
2.26088e-14
2.25368e-14
2.26153e-14
2.25429e-14
2.26114e-14
2.25481e-14
2.26384e-14
2.25625e-14
2.26756e-14
2.25755e-14
2.26924e-14
2.25766e-14
2.27097e-14
2.25867e-14
2.27277e-14
2.25953e-14
2.27465e-14
2.26023e-14
2.27661e-14
2.26181e-14
2.27656e-14
2.2622e-14
2.27762e-14
2.26243e-14
2.27983e-14
2.26248e-14
2.28108e-14
2.26234e-14
2.28243e-14
2.26307e-14
2.27967e-14
2.2647e-14
2.27805e-14
2.26619e-14
2.2807e-14
2.26649e-14
2.28236e-14
2.2677e-14
2.28092e-14
2.26879e-14
2.28057e-14
2.26978e-14
2.28079e-14
2.27015e-14
2.2821e-14
2.27147e-14
2.28343e-14
2.27271e-14
2.28533e-14
2.27437e-14
2.28621e-14
2.27649e-14
2.28711e-14
2.27694e-14
2.28804e-14
2.27679e-14
2.29059e-14
2.27869e-14
2.28999e-14
2.28158e-14
2.28835e-14
2.28073e-14
2.28829e-14
2.2809e-14
2.28875e-14
2.28208e-14
2.28922e-14
2.2827e-14
2.28914e-14
2.28329e-14
2.28799e-14
2.28438e-14
2.28841e-14
2.28597e-14
2.28932e-14
2.28755e-14
2.2881e-14
2.28807e-14
2.28683e-14
2.28806e-14
2.28816e-14
2.28858e-14
2.2905e-14
2.28856e-14
2.29334e-14
2.28799e-14
2.2951e-14
2.28739e-14
2.29633e-14
2.28781e-14
2.29754e-14
2.28818e-14
2.29771e-14
2.28853e-14
2.2984e-14
2.28831e-14
2.30065e-14
2.28857e-14
2.30134e-14
2.28878e-14
2.30204e-14
2.28792e-14
2.30274e-14
2.28805e-14
2.30397e-14
2.28864e-14
2.30417e-14
2.28816e-14
2.3044e-14
2.28816e-14
2.30515e-14
2.28862e-14
2.30644e-14
2.28904e-14
2.30723e-14
2.28993e-14
2.30804e-14
2.29026e-14
2.30887e-14
2.29005e-14
2.30972e-14
2.29005e-14
2.30983e-14
2.29001e-14
2.30945e-14
2.28993e-14
2.30936e-14
2.29008e-14
2.30953e-14
2.29043e-14
2.30923e-14
2.2895e-14
2.30945e-14
2.28929e-14
2.30919e-14
2.2893e-14
2.30945e-14
2.28976e-14
2.30972e-14
2.29069e-14
2.31076e-14
2.29109e-14
2.31059e-14
2.29047e-14
2.30945e-14
2.29032e-14
2.30907e-14
2.29062e-14
2.30871e-14
2.29138e-14
2.30886e-14
2.2909e-14
2.3095e-14
2.29063e-14
2.30943e-14
2.29034e-14
2.30938e-14
2.2905e-14
2.30958e-14
2.2904e-14
2.30885e-14
2.2905e-14
2.30814e-14
2.29058e-14
2.30909e-14
2.2911e-14
2.30982e-14
2.29113e-14
2.30962e-14
2.29114e-14
2.30944e-14
2.29113e-14
2.30997e-14
2.29109e-14
2.31004e-14
2.29103e-14
2.3099e-14
2.29073e-14
2.31e-14
2.29063e-14
2.31079e-14
2.29051e-14
2.31159e-14
2.29015e-14
2.31217e-14
2.28977e-14
2.31276e-14
2.28937e-14
2.31314e-14
2.28895e-14
2.31331e-14
2.28852e-14
2.31327e-14
2.28806e-14
2.31369e-14
2.28759e-14
2.31412e-14
2.28721e-14
2.31423e-14
2.28692e-14
2.31415e-14
2.28692e-14
2.31408e-14
2.2869e-14
2.31434e-14
2.28687e-14
2.3142e-14
2.28682e-14
2.31396e-14
2.28705e-14
2.31364e-14
2.28717e-14
2.31364e-14
2.28716e-14
2.31395e-14
2.28744e-14
2.31397e-14
2.28761e-14
2.3138e-14
2.28775e-14
2.31354e-14
2.28798e-14
2.3133e-14
2.28828e-14
2.31317e-14
2.28857e-14
2.31314e-14
2.28895e-14
2.31302e-14
2.28911e-14
2.31291e-14
2.28945e-14
2.31254e-14
2.28968e-14
2.31272e-14
2.2899e-14
2.31283e-14
2.2901e-14
2.31239e-14
2.29047e-14
2.31214e-14
2.29092e-14
2.31199e-14
2.29109e-14
2.31202e-14
2.29125e-14
2.31215e-14
2.29131e-14
2.3122e-14
2.29145e-14
2.31216e-14
2.29149e-14
2.31238e-14
2.29161e-14
2.31252e-14
2.29172e-14
2.31242e-14
2.29182e-14
2.31232e-14
2.29199e-14
2.31223e-14
2.29224e-14
2.31238e-14
2.29231e-14
2.31253e-14
2.29246e-14
2.31253e-14
2.29248e-14
2.31238e-14
2.29269e-14
2.31228e-14
2.29293e-14
2.31225e-14
2.29315e-14
2.3123e-14
2.29326e-14
2.31239e-14
2.29344e-14
2.31234e-14
2.2935e-14
2.31218e-14
2.29356e-14
2.31213e-14
2.29367e-14
2.31216e-14
2.29379e-14
2.31223e-14
2.29396e-14
2.31226e-14
2.29407e-14
2.31226e-14
2.29416e-14
2.31226e-14
2.29435e-14
2.31213e-14
2.29453e-14
2.31208e-14
2.29471e-14
2.31209e-14
2.29488e-14
2.31207e-14
2.29501e-14
2.31202e-14
2.29511e-14
2.312e-14
2.29526e-14
2.31196e-14
2.29544e-14
2.31192e-14
2.29564e-14
2.31179e-14
2.29578e-14
2.31175e-14
2.29588e-14
2.3118e-14
2.29599e-14
2.31185e-14
2.29611e-14
2.31185e-14
2.29623e-14
2.31182e-14
2.29632e-14
2.31179e-14
2.29644e-14
2.31178e-14
2.29655e-14
2.31171e-14
2.29665e-14
2.31168e-14
2.29676e-14
2.31171e-14
2.29686e-14
2.3117e-14
2.29694e-14
2.31164e-14
2.29704e-14
2.31159e-14
2.29716e-14
2.31155e-14
2.29724e-14
2.3115e-14
2.29731e-14
2.31146e-14
2.29738e-14
2.31143e-14
2.29746e-14
2.3114e-14
2.29753e-14
2.31134e-14
2.2976e-14
2.31127e-14
2.29767e-14
2.31121e-14
2.29771e-14
2.31118e-14
2.29774e-14
2.31114e-14
2.2978e-14
2.3111e-14
2.29784e-14
2.31108e-14
2.29789e-14
2.31104e-14
2.29792e-14
2.311e-14
2.29796e-14
2.31097e-14
2.29798e-14
2.31095e-14
2.29802e-14
2.31093e-14
2.29804e-14
2.31091e-14
2.29808e-14
2.31086e-14
2.29811e-14
2.31084e-14
2.29815e-14
2.31083e-14
2.29818e-14
2.31081e-14
2.2982e-14
2.3108e-14
2.29821e-14
2.31081e-14
2.29823e-14
2.31081e-14
2.29826e-14
2.3108e-14
2.29828e-14
2.3108e-14
2.29829e-14
2.3108e-14
2.2983e-14
2.3108e-14
2.29831e-14
2.31081e-14
2.29832e-14
2.31083e-14
2.29833e-14
2.31084e-14
2.29834e-14
2.31085e-14
2.29835e-14
2.31086e-14
2.29835e-14
2.31086e-14
2.29836e-14
2.31087e-14
2.29837e-14
2.31087e-14
2.29837e-14
2.31088e-14
2.29837e-14
2.31089e-14
2.29838e-14
2.31089e-14
2.29838e-14
2.31089e-14
2.29839e-14
2.3109e-14
2.29839e-14
2.3109e-14
2.29839e-14
2.3109e-14
2.2984e-14
2.31091e-14
2.2984e-14
2.31091e-14
2.29841e-14
2.31091e-14
2.29841e-14
2.31091e-14
2.29841e-14
2.31091e-14
2.29841e-14
2.31091e-14
2.29841e-14
2.31091e-14
2.29841e-14
2.31091e-14
2.29841e-14
2.31091e-14
2.29841e-14
2.31091e-14
2.19173e-14
2.19846e-14
2.19607e-14
2.20142e-14
2.20279e-14
2.2036e-14
2.20765e-14
2.20644e-14
2.21097e-14
2.20942e-14
2.21793e-14
2.21498e-14
2.22614e-14
2.22289e-14
2.22825e-14
2.22581e-14
2.23177e-14
2.22895e-14
2.23907e-14
2.23216e-14
2.24564e-14
2.23448e-14
2.2549e-14
2.23535e-14
2.25494e-14
2.23653e-14
2.25587e-14
2.24085e-14
2.25468e-14
2.24626e-14
2.25297e-14
2.24823e-14
2.25529e-14
2.24729e-14
2.25665e-14
2.24592e-14
2.25436e-14
2.24119e-14
2.25414e-14
2.2411e-14
2.24752e-14
2.24024e-14
2.2453e-14
2.23634e-14
2.24745e-14
2.23197e-14
2.24004e-14
2.23506e-14
2.23649e-14
2.23508e-14
2.2366e-14
2.23227e-14
2.2316e-14
2.23231e-14
2.2207e-14
2.23274e-14
2.22101e-14
2.23456e-14
2.22046e-14
2.23489e-14
2.2161e-14
2.22768e-14
2.21126e-14
2.22499e-14
2.2119e-14
2.2238e-14
2.20559e-14
2.22082e-14
2.20476e-14
2.21914e-14
2.20952e-14
2.21865e-14
2.20912e-14
2.21738e-14
2.20368e-14
2.21691e-14
2.20593e-14
2.21594e-14
2.20796e-14
2.21262e-14
2.20839e-14
2.21318e-14
2.20556e-14
2.20929e-14
2.20944e-14
2.20733e-14
2.21524e-14
2.20691e-14
2.21335e-14
2.20944e-14
2.2152e-14
2.20839e-14
2.21584e-14
2.20864e-14
2.21018e-14
2.21189e-14
2.21156e-14
2.21684e-14
2.22161e-14
2.22194e-14
2.22306e-14
2.22522e-14
2.22102e-14
2.22855e-14
2.22233e-14
2.23398e-14
2.22148e-14
2.24181e-14
2.22518e-14
2.2381e-14
2.22665e-14
2.23321e-14
2.22796e-14
2.23222e-14
2.22914e-14
2.23317e-14
2.22838e-14
2.23056e-14
2.22935e-14
2.22795e-14
2.23036e-14
2.22887e-14
2.23326e-14
2.23149e-14
2.23242e-14
2.2359e-14
2.23519e-14
2.23667e-14
2.23608e-14
2.23931e-14
2.235e-14
2.2401e-14
2.23377e-14
2.23912e-14
2.23429e-14
2.24016e-14
2.23469e-14
2.24898e-14
2.23285e-14
2.25437e-14
2.23244e-14
2.25462e-14
2.22956e-14
2.24968e-14
2.23003e-14
2.24714e-14
2.23008e-14
2.24886e-14
2.22772e-14
2.2491e-14
2.22878e-14
2.24594e-14
2.22943e-14
2.24708e-14
2.22968e-14
2.24761e-14
2.22954e-14
2.24557e-14
2.22906e-14
2.24488e-14
2.23122e-14
2.24447e-14
2.23509e-14
2.24728e-14
2.23572e-14
2.25028e-14
2.23808e-14
2.24952e-14
2.24025e-14
2.24992e-14
2.24126e-14
2.25248e-14
2.2421e-14
2.25724e-14
2.24375e-14
2.26024e-14
2.24622e-14
2.26049e-14
2.24854e-14
2.25997e-14
2.25077e-14
2.26067e-14
2.25189e-14
2.2636e-14
2.25394e-14
2.26572e-14
2.25488e-14
2.26599e-14
2.25677e-14
2.26749e-14
2.25961e-14
2.27126e-14
2.25927e-14
2.2742e-14
2.25882e-14
2.27635e-14
2.25926e-14
2.27876e-14
2.26058e-14
2.2825e-14
2.26276e-14
2.28447e-14
2.26581e-14
2.28361e-14
2.26563e-14
2.28194e-14
2.26637e-14
2.28047e-14
2.26704e-14
2.2823e-14
2.26866e-14
2.28535e-14
2.27019e-14
2.28753e-14
2.27162e-14
2.28779e-14
2.27402e-14
2.28717e-14
2.27637e-14
2.28773e-14
2.27763e-14
2.2884e-14
2.27887e-14
2.28917e-14
2.27905e-14
2.29004e-14
2.28026e-14
2.2889e-14
2.28147e-14
2.28891e-14
2.28162e-14
2.29216e-14
2.28175e-14
2.29339e-14
2.28185e-14
2.29155e-14
2.28194e-14
2.29298e-14
2.28253e-14
2.2945e-14
2.28415e-14
2.29559e-14
2.28415e-14
2.29624e-14
2.28571e-14
2.29751e-14
2.28406e-14
2.29887e-14
2.28288e-14
2.29979e-14
2.28429e-14
2.30082e-14
2.28459e-14
2.30408e-14
2.28481e-14
2.30638e-14
2.28547e-14
2.30617e-14
2.28553e-14
2.30555e-14
2.28604e-14
2.3077e-14
2.28595e-14
2.31049e-14
2.28789e-14
2.31078e-14
2.28764e-14
2.31066e-14
2.28889e-14
2.31172e-14
2.28954e-14
2.31237e-14
2.28959e-14
2.31156e-14
2.28956e-14
2.31191e-14
2.29105e-14
2.3129e-14
2.293e-14
2.31557e-14
2.29383e-14
2.31729e-14
2.29513e-14
2.31754e-14
2.29532e-14
2.3184e-14
2.29599e-14
2.31831e-14
2.29712e-14
2.31935e-14
2.29716e-14
2.321e-14
2.2982e-14
2.32221e-14
2.29711e-14
2.3235e-14
2.29752e-14
2.32332e-14
2.29788e-14
2.32116e-14
2.29716e-14
2.3201e-14
2.29641e-14
2.32118e-14
2.29613e-14
2.3213e-14
2.29632e-14
2.32098e-14
2.29544e-14
2.32174e-14
2.29554e-14
2.32257e-14
2.29508e-14
2.32244e-14
2.29458e-14
2.32238e-14
2.29454e-14
2.32161e-14
2.29471e-14
2.32166e-14
2.29484e-14
2.32203e-14
2.29493e-14
2.32169e-14
2.29498e-14
2.3209e-14
2.29499e-14
2.32017e-14
2.29597e-14
2.32073e-14
2.29642e-14
2.32083e-14
2.29733e-14
2.31999e-14
2.29771e-14
2.31943e-14
2.29857e-14
2.31892e-14
2.30013e-14
2.31843e-14
2.30119e-14
2.31798e-14
2.30173e-14
2.3178e-14
2.30275e-14
2.31716e-14
2.30352e-14
2.31702e-14
2.30378e-14
2.31763e-14
2.30429e-14
2.3173e-14
2.30478e-14
2.31675e-14
2.30526e-14
2.31645e-14
2.30574e-14
2.31665e-14
2.30551e-14
2.31709e-14
2.30527e-14
2.31708e-14
2.30526e-14
2.31661e-14
2.30525e-14
2.31686e-14
2.30501e-14
2.31781e-14
2.30476e-14
2.31832e-14
2.30451e-14
2.3186e-14
2.30425e-14
2.3189e-14
2.30398e-14
2.31944e-14
2.30372e-14
2.31954e-14
2.30367e-14
2.31898e-14
2.30361e-14
2.31844e-14
2.30444e-14
2.31836e-14
2.30438e-14
2.31851e-14
2.30453e-14
2.31866e-14
2.30446e-14
2.31883e-14
2.30503e-14
2.31879e-14
2.30527e-14
2.31844e-14
2.30562e-14
2.31821e-14
2.30565e-14
2.31841e-14
2.30578e-14
2.31873e-14
2.3059e-14
2.31852e-14
2.30623e-14
2.31864e-14
2.30646e-14
2.31876e-14
2.30688e-14
2.31879e-14
2.3072e-14
2.31872e-14
2.30752e-14
2.31866e-14
2.30773e-14
2.31861e-14
2.30824e-14
2.31836e-14
2.30826e-14
2.31822e-14
2.30846e-14
2.31829e-14
2.30829e-14
2.31845e-14
2.30849e-14
2.31833e-14
2.30869e-14
2.31812e-14
2.30889e-14
2.31791e-14
2.30909e-14
2.31799e-14
2.3092e-14
2.31817e-14
2.30921e-14
2.31826e-14
2.30941e-14
2.31817e-14
2.3096e-14
2.31808e-14
2.30979e-14
2.318e-14
2.30998e-14
2.3181e-14
2.31017e-14
2.31811e-14
2.31019e-14
2.31796e-14
2.31046e-14
2.31789e-14
2.31055e-14
2.31783e-14
2.31057e-14
2.31786e-14
2.3105e-14
2.3178e-14
2.31044e-14
2.31783e-14
2.31038e-14
2.31786e-14
2.31039e-14
2.31797e-14
2.31025e-14
2.31808e-14
2.30992e-14
2.31816e-14
2.30956e-14
2.31816e-14
2.30935e-14
2.3182e-14
2.30925e-14
2.31824e-14
2.30901e-14
2.3184e-14
2.30892e-14
2.31844e-14
2.30883e-14
2.31828e-14
2.30877e-14
2.31822e-14
2.30868e-14
2.31837e-14
2.30856e-14
2.31846e-14
2.3085e-14
2.31838e-14
2.30845e-14
2.3183e-14
2.3084e-14
2.31826e-14
2.30834e-14
2.31822e-14
2.30826e-14
2.31805e-14
2.3083e-14
2.31792e-14
2.30828e-14
2.31789e-14
2.30819e-14
2.31786e-14
2.30811e-14
2.3178e-14
2.30803e-14
2.31777e-14
2.30801e-14
2.31778e-14
2.30802e-14
2.31767e-14
2.30799e-14
2.31765e-14
2.30792e-14
2.31771e-14
2.30789e-14
2.3177e-14
2.3079e-14
2.3176e-14
2.30793e-14
2.31749e-14
2.30797e-14
2.31743e-14
2.30796e-14
2.31742e-14
2.30792e-14
2.31742e-14
2.30791e-14
2.31737e-14
2.30785e-14
2.31734e-14
2.30784e-14
2.31734e-14
2.30781e-14
2.31732e-14
2.30783e-14