/*--------------------------------*- C++ -*----------------------------------*\
| =========                 |                                                 |
| \\      /  F ield         | OpenFOAM: The Open Source CFD Toolbox           |
|  \\    /   O peration     | Version:  2106                                  |
|   \\  /    A nd           | Website:  www.openfoam.com                      |
|    \\/     M anipulation  |                                                 |
\*---------------------------------------------------------------------------*/
FoamFile
{
    version     2.0;
    format      ascii;
    arch        "LSB;label=32;scalar=64";
    class       volSymmTensorField;
    location    "20000";
    object      turbulenceProperties:R;
}
// * * * * * * * * * * * * * * * * * * * * * * * * * * * * * * * * * * * * * //

dimensions      [0 2 -2 0 0 0 0];

internalField   nonuniform List<symmTensor> 
2560
(
(1.09724e-07 -3.35615e-12 -4.85846e-15 1.09724e-07 5.41556e-26 1.09724e-07)
(1.09724e-07 -3.35615e-12 -4.85846e-15 1.09724e-07 1.24217e-26 1.09724e-07)
(1.78712e-08 -3.14151e-12 -1.371e-14 1.78712e-08 6.21864e-27 1.78712e-08)
(1.78712e-08 -3.14151e-12 -1.371e-14 1.78712e-08 8.8202e-27 1.78712e-08)
(1.75215e-08 -9.08501e-12 -5.45336e-14 1.75215e-08 1.19431e-26 1.75215e-08)
(1.75215e-08 -9.08501e-12 -5.45336e-14 1.75215e-08 1.91676e-27 1.75215e-08)
(4.89241e-08 -5.37885e-11 -3.27565e-13 4.89241e-08 6.17734e-26 4.89241e-08)
(4.89241e-08 -5.37885e-11 -3.27565e-13 4.89241e-08 1.15021e-26 4.89241e-08)
(1.23822e-07 -2.40152e-10 -1.48376e-12 1.23822e-07 2.33859e-25 1.23822e-07)
(1.23822e-07 -2.40152e-10 -1.48376e-12 1.23822e-07 5.20833e-26 1.23822e-07)
(2.63353e-07 -8.04151e-10 -5.04061e-12 2.63353e-07 7.50952e-25 2.63353e-07)
(2.63353e-07 -8.04151e-10 -5.04061e-12 2.63353e-07 1.76967e-25 2.63353e-07)
(4.93254e-07 -2.1972e-09 -1.39728e-11 4.93254e-07 2.07428e-24 4.93254e-07)
(4.93254e-07 -2.1972e-09 -1.39728e-11 4.93254e-07 4.90671e-25 4.93254e-07)
(8.43217e-07 -5.19006e-09 -3.34854e-11 8.43217e-07 4.98512e-24 8.43217e-07)
(8.43217e-07 -5.19006e-09 -3.34854e-11 8.43217e-07 1.1759e-24 8.43217e-07)
(1.34687e-06 -1.1001e-08 -7.20085e-11 1.34687e-06 1.07391e-23 1.34687e-06)
(1.34687e-06 -1.1001e-08 -7.20085e-11 1.34687e-06 2.52861e-24 1.34687e-06)
(2.04188e-06 -2.14512e-08 -1.42453e-10 2.04188e-06 2.128e-23 2.04188e-06)
(2.04188e-06 -2.14512e-08 -1.42453e-10 2.04188e-06 5.00269e-24 2.04188e-06)
(2.9702e-06 -3.91512e-08 -2.63776e-10 2.9702e-06 3.94922e-23 2.9702e-06)
(2.9702e-06 -3.91512e-08 -2.63776e-10 2.9702e-06 9.26078e-24 2.9702e-06)
(4.17822e-06 -6.77217e-08 -4.62898e-10 4.17822e-06 6.94747e-23 4.17822e-06)
(4.17822e-06 -6.77217e-08 -4.62898e-10 4.17822e-06 1.62448e-23 4.17822e-06)
(5.71707e-06 -1.12053e-07 -7.77047e-10 5.71707e-06 1.16912e-22 5.71707e-06)
(5.71707e-06 -1.12053e-07 -7.77047e-10 5.71707e-06 2.7272e-23 5.71707e-06)
(7.64286e-06 -1.78605e-07 -1.25657e-09 7.64286e-06 1.89512e-22 7.64286e-06)
(7.64286e-06 -1.78605e-07 -1.25657e-09 7.64286e-06 4.41122e-23 7.64286e-06)
(1.00169e-05 -2.75761e-07 -1.9683e-09 1.00169e-05 2.97543e-22 1.00169e-05)
(1.00169e-05 -2.75761e-07 -1.9683e-09 1.00169e-05 6.904e-23 1.00169e-05)
(1.29062e-05 -4.14217e-07 -2.99952e-09 1.29062e-05 4.54395e-22 1.29062e-05)
(1.29062e-05 -4.14217e-07 -2.99952e-09 1.29062e-05 1.05081e-22 1.29062e-05)
(1.63833e-05 -6.07443e-07 -4.46267e-09 1.63833e-05 6.77332e-22 1.63833e-05)
(1.63833e-05 -6.07443e-07 -4.46267e-09 1.63833e-05 1.5619e-22 1.63833e-05)
(2.05271e-05 -8.72186e-07 -6.50071e-09 2.05271e-05 9.8835e-22 2.05271e-05)
(2.05271e-05 -8.72186e-07 -6.50071e-09 2.05271e-05 2.27283e-22 2.05271e-05)
(2.54227e-05 -1.22903e-06 -9.29344e-09 2.54227e-05 1.415e-21 2.54227e-05)
(2.54227e-05 -1.22903e-06 -9.29344e-09 2.54227e-05 3.24422e-22 2.54227e-05)
(3.11618e-05 -1.70303e-06 -1.30646e-08 3.11618e-05 1.99154e-21 3.11618e-05)
(3.11618e-05 -1.70303e-06 -1.30646e-08 3.11618e-05 4.55422e-22 3.11618e-05)
(3.78431e-05 -2.32437e-06 -1.80899e-08 3.78431e-05 2.75951e-21 3.78431e-05)
(3.78431e-05 -2.32437e-06 -1.80899e-08 3.78431e-05 6.2976e-22 3.78431e-05)
(4.55721e-05 -3.12909e-06 -2.47061e-08 4.55721e-05 3.7698e-21 4.55721e-05)
(4.55721e-05 -3.12909e-06 -2.47061e-08 4.55721e-05 8.58426e-22 4.55721e-05)
(5.44615e-05 -4.15985e-06 -3.33207e-08 5.44615e-05 5.0835e-21 5.44615e-05)
(5.44615e-05 -4.15985e-06 -3.33207e-08 5.44615e-05 1.15453e-21 5.44615e-05)
(6.46312e-05 -5.46668e-06 -4.44229e-08 6.46312e-05 6.77222e-21 6.46312e-05)
(6.46312e-05 -5.46668e-06 -4.44229e-08 6.46312e-05 1.53398e-21 6.46312e-05)
(7.62082e-05 -7.10778e-06 -5.8595e-08 7.62082e-05 8.92168e-21 7.62082e-05)
(7.62082e-05 -7.10778e-06 -5.8595e-08 7.62082e-05 2.01429e-21 7.62082e-05)
(8.93265e-05 -9.15026e-06 -7.6524e-08 8.93265e-05 1.16266e-20 8.93265e-05)
(8.93265e-05 -9.15026e-06 -7.6524e-08 8.93265e-05 2.61743e-21 8.93265e-05)
(0.000104127 -1.16708e-05 -9.90141e-08 0.000104127 1.49974e-20 0.000104127)
(0.000104127 -1.16708e-05 -9.90141e-08 0.000104127 3.3691e-21 0.000104127)
(0.000120756 -1.47563e-05 -1.26998e-07 0.000120756 1.91596e-20 0.000120756)
(0.000120756 -1.47563e-05 -1.26998e-07 0.000120756 4.29329e-21 0.000120756)
(0.000139366 -1.8504e-05 -1.61549e-07 0.000139366 2.42486e-20 0.000139366)
(0.000139366 -1.8504e-05 -1.61549e-07 0.000139366 5.41753e-21 0.000139366)
(0.000160115 -2.30223e-05 -2.0389e-07 0.000160115 3.04096e-20 0.000160115)
(0.000160115 -2.30223e-05 -2.0389e-07 0.000160115 6.77406e-21 0.000160115)
(0.000183163 -2.84297e-05 -2.554e-07 0.000183163 3.77931e-20 0.000183163)
(0.000183163 -2.84297e-05 -2.554e-07 0.000183163 8.39992e-21 0.000183163)
(0.000208674 -3.48554e-05 -3.1762e-07 0.000208674 4.65551e-20 0.000208674)
(0.000208674 -3.48554e-05 -3.1762e-07 0.000208674 1.03274e-20 0.000208674)
(0.000236809 -4.24375e-05 -3.92254e-07 0.000236809 5.68549e-20 0.000236809)
(0.000236809 -4.24375e-05 -3.92254e-07 0.000236809 1.25756e-20 0.000236809)
(0.000267733 -5.13221e-05 -4.81161e-07 0.000267733 6.88353e-20 0.000267733)
(0.000267733 -5.13221e-05 -4.81161e-07 0.000267733 1.51595e-20 0.000267733)
(0.000301601 -6.16616e-05 -5.86349e-07 0.000301601 8.26056e-20 0.000301601)
(0.000301601 -6.16616e-05 -5.86349e-07 0.000301601 1.81292e-20 0.000301601)
(0.000338567 -7.36115e-05 -7.09953e-07 0.000338567 9.82555e-20 0.000338567)
(0.000338567 -7.36115e-05 -7.09953e-07 0.000338567 2.15205e-20 0.000338567)
(0.000378771 -8.73281e-05 -8.54217e-07 0.000378771 1.15862e-19 0.000378771)
(0.000378771 -8.73281e-05 -8.54217e-07 0.000378771 2.52856e-20 0.000378771)
(0.000422345 -0.000102965 -1.02145e-06 0.000422345 1.35434e-19 0.000422345)
(0.000422345 -0.000102965 -1.02145e-06 0.000422345 2.93516e-20 0.000422345)
(0.000469403 -0.000120667 -1.21401e-06 0.000469403 1.5687e-19 0.000469403)
(0.000469403 -0.000120667 -1.21401e-06 0.000469403 3.37605e-20 0.000469403)
(0.000520039 -0.00014057 -1.43422e-06 0.000520039 1.80048e-19 0.000520039)
(0.000520039 -0.00014057 -1.43422e-06 0.000520039 3.85651e-20 0.000520039)
(0.000574326 -0.000162792 -1.68436e-06 0.000574326 2.04758e-19 0.000574326)
(0.000574326 -0.000162792 -1.68436e-06 0.000574326 4.36401e-20 0.000574326)
(0.000632313 -0.000187431 -1.96658e-06 0.000632313 2.30756e-19 0.000632313)
(0.000632313 -0.000187431 -1.96658e-06 0.000632313 4.88582e-20 0.000632313)
(0.000694019 -0.000214561 -2.28286e-06 0.000694019 2.57617e-19 0.000694019)
(0.000694019 -0.000214561 -2.28286e-06 0.000694019 5.42186e-20 0.000694019)
(0.000759434 -0.000244228 -2.63494e-06 0.000759434 2.84903e-19 0.000759434)
(0.000759434 -0.000244228 -2.63494e-06 0.000759434 5.96778e-20 0.000759434)
(0.000828514 -0.000276444 -3.02429e-06 0.000828514 3.12224e-19 0.000828514)
(0.000828514 -0.000276444 -3.02429e-06 0.000828514 6.49887e-20 0.000828514)
(0.000901183 -0.00031119 -3.45205e-06 0.000901183 3.38955e-19 0.000901183)
(0.000901183 -0.00031119 -3.45205e-06 0.000901183 6.98641e-20 0.000901183)
(0.000977333 -0.000348412 -3.91902e-06 0.000977333 3.64707e-19 0.000977333)
(0.000977333 -0.000348412 -3.91902e-06 0.000977333 7.44987e-20 0.000977333)
(0.00105682 -0.000388022 -4.42559e-06 0.00105682 3.89011e-19 0.00105682)
(0.00105682 -0.000388022 -4.42559e-06 0.00105682 7.88436e-20 0.00105682)
(0.00113947 -0.000429899 -4.97179e-06 0.00113947 4.11048e-19 0.00113947)
(0.00113947 -0.000429899 -4.97179e-06 0.00113947 8.26985e-20 0.00113947)
(0.00122508 -0.000473891 -5.55724e-06 0.00122508 4.30683e-19 0.00122508)
(0.00122508 -0.000473891 -5.55724e-06 0.00122508 8.61501e-20 0.00122508)
(0.00131343 -0.000519822 -6.18122e-06 0.00131343 4.47941e-19 0.00131343)
(0.00131343 -0.000519822 -6.18122e-06 0.00131343 8.90034e-20 0.00131343)
(0.00140425 -0.00056749 -6.84264e-06 0.00140425 4.62346e-19 0.00140425)
(0.00140425 -0.00056749 -6.84264e-06 0.00140425 9.16785e-20 0.00140425)
(0.00149727 -0.000616679 -7.54012e-06 0.00149727 4.73459e-19 0.00149727)
(0.00149727 -0.000616679 -7.54012e-06 0.00149727 9.34921e-20 0.00149727)
(0.00159222 -0.000667159 -8.27203e-06 0.00159222 4.81396e-19 0.00159222)
(0.00159222 -0.000667159 -8.27203e-06 0.00159222 9.35234e-20 0.00159222)
(0.0016888 -0.000718694 -9.03652e-06 0.0016888 4.86518e-19 0.0016888)
(0.0016888 -0.000718694 -9.03652e-06 0.0016888 9.26375e-20 0.0016888)
(0.0017867 -0.000771046 -9.83157e-06 0.0017867 4.89327e-19 0.0017867)
(0.0017867 -0.000771046 -9.83157e-06 0.0017867 9.1093e-20 0.0017867)
(0.00188563 -0.000823979 -1.06551e-05 0.00188563 4.89617e-19 0.00188563)
(0.00188563 -0.000823979 -1.06551e-05 0.00188563 9.01094e-20 0.00188563)
(0.00198528 -0.000877265 -1.15049e-05 0.00198528 4.88007e-19 0.00198528)
(0.00198528 -0.000877265 -1.15049e-05 0.00198528 8.9593e-20 0.00198528)
(0.00208537 -0.000930686 -1.23789e-05 0.00208537 4.85754e-19 0.00208537)
(0.00208537 -0.000930686 -1.23789e-05 0.00208537 8.66906e-20 0.00208537)
(0.00218561 -0.000984038 -1.32748e-05 0.00218561 4.82556e-19 0.00218561)
(0.00218561 -0.000984038 -1.32748e-05 0.00218561 8.37392e-20 0.00218561)
(0.00228574 -0.00103713 -1.41906e-05 0.00228574 4.79272e-19 0.00228574)
(0.00228574 -0.00103713 -1.41906e-05 0.00228574 8.37568e-20 0.00228574)
(0.0023855 -0.0010898 -1.51243e-05 0.0023855 4.76006e-19 0.0023855)
(0.0023855 -0.0010898 -1.51243e-05 0.0023855 8.53624e-20 0.0023855)
(0.00248467 -0.00114187 -1.60741e-05 0.00248467 4.74251e-19 0.00248467)
(0.00248467 -0.00114187 -1.60741e-05 0.00248467 8.51735e-20 0.00248467)
(0.00258301 -0.00119323 -1.70381e-05 0.00258301 4.73405e-19 0.00258301)
(0.00258301 -0.00119323 -1.70381e-05 0.00258301 8.30285e-20 0.00258301)
(0.00268035 -0.00124375 -1.80148e-05 0.00268035 4.74183e-19 0.00268035)
(0.00268035 -0.00124375 -1.80148e-05 0.00268035 8.42761e-20 0.00268035)
(0.00277649 -0.00129333 -1.90027e-05 0.00277649 4.77058e-19 0.00277649)
(0.00277649 -0.00129333 -1.90027e-05 0.00277649 8.67594e-20 0.00277649)
(0.00287128 -0.00134188 -2.00005e-05 0.00287128 4.83069e-19 0.00287128)
(0.00287128 -0.00134188 -2.00005e-05 0.00287128 9.08073e-20 0.00287128)
(0.00296458 -0.00138933 -2.10071e-05 0.00296458 4.92822e-19 0.00296458)
(0.00296458 -0.00138933 -2.10071e-05 0.00296458 9.32913e-20 0.00296458)
(0.00305627 -0.00143564 -2.20213e-05 0.00305627 5.05967e-19 0.00305627)
(0.00305627 -0.00143564 -2.20213e-05 0.00305627 9.31397e-20 0.00305627)
(0.00314625 -0.00148075 -2.30424e-05 0.00314625 5.23271e-19 0.00314625)
(0.00314625 -0.00148075 -2.30424e-05 0.00314625 1.00252e-19 0.00314625)
(0.00323442 -0.00152464 -2.40695e-05 0.00323442 5.44962e-19 0.00323442)
(0.00323442 -0.00152464 -2.40695e-05 0.00323442 1.12938e-19 0.00323442)
(0.00332071 -0.00156728 -2.5102e-05 0.00332071 5.70021e-19 0.00332071)
(0.00332071 -0.00156728 -2.5102e-05 0.00332071 1.24301e-19 0.00332071)
(0.00340508 -0.00160867 -2.61394e-05 0.00340508 5.98919e-19 0.00340508)
(0.00340508 -0.00160867 -2.61394e-05 0.00340508 1.33494e-19 0.00340508)
(0.00348746 -0.00164879 -2.71812e-05 0.00348746 6.34058e-19 0.00348746)
(0.00348746 -0.00164879 -2.71812e-05 0.00348746 1.4461e-19 0.00348746)
(0.00356784 -0.00168767 -2.82272e-05 0.00356784 6.71923e-19 0.00356784)
(0.00356784 -0.00168767 -2.82272e-05 0.00356784 1.56775e-19 0.00356784)
(0.00364618 -0.00172529 -2.9277e-05 0.00364618 7.18144e-19 0.00364618)
(0.00364618 -0.00172529 -2.9277e-05 0.00364618 1.67377e-19 0.00364618)
(0.00372249 -0.00176169 -3.03305e-05 0.00372249 7.67118e-19 0.00372249)
(0.00372249 -0.00176169 -3.03305e-05 0.00372249 1.79608e-19 0.00372249)
(0.00379674 -0.00179687 -3.13875e-05 0.00379674 8.16893e-19 0.00379674)
(0.00379674 -0.00179687 -3.13875e-05 0.00379674 1.92283e-19 0.00379674)
(0.00386896 -0.00183086 -3.24481e-05 0.00386896 8.76813e-19 0.00386896)
(0.00386896 -0.00183086 -3.24481e-05 0.00386896 1.97973e-19 0.00386896)
(0.00393915 -0.00186369 -3.35121e-05 0.00393915 9.40796e-19 0.00393915)
(0.00393915 -0.00186369 -3.35121e-05 0.00393915 2.1501e-19 0.00393915)
(0.00400733 -0.00189537 -3.45798e-05 0.00400733 1.01106e-18 0.00400733)
(0.00400733 -0.00189537 -3.45798e-05 0.00400733 2.44568e-19 0.00400733)
(0.00407351 -0.00192595 -3.56511e-05 0.00407351 1.08374e-18 0.00407351)
(0.00407351 -0.00192595 -3.56511e-05 0.00407351 2.67884e-19 0.00407351)
(0.00413774 -0.00195544 -3.67261e-05 0.00413774 1.15494e-18 0.00413774)
(0.00413774 -0.00195544 -3.67261e-05 0.00413774 2.81142e-19 0.00413774)
(0.00420003 -0.00198388 -3.78051e-05 0.00420003 1.23811e-18 0.00420003)
(0.00420003 -0.00198388 -3.78051e-05 0.00420003 2.86746e-19 0.00420003)
(0.00426042 -0.0020113 -3.88881e-05 0.00426042 1.3198e-18 0.00426042)
(0.00426042 -0.0020113 -3.88881e-05 0.00426042 3.09078e-19 0.00426042)
(0.00431895 -0.00203774 -3.99755e-05 0.00431895 1.40323e-18 0.00431895)
(0.00431895 -0.00203774 -3.99755e-05 0.00431895 3.47366e-19 0.00431895)
(0.00437566 -0.00206321 -4.10673e-05 0.00437566 1.49732e-18 0.00437566)
(0.00437566 -0.00206321 -4.10673e-05 0.00437566 3.81681e-19 0.00437566)
(0.00443058 -0.00208776 -4.21639e-05 0.00443058 1.59779e-18 0.00443058)
(0.00443058 -0.00208776 -4.21639e-05 0.00443058 4.04008e-19 0.00443058)
(0.00448375 -0.00211141 -4.32655e-05 0.00448375 1.69744e-18 0.00448375)
(0.00448375 -0.00211141 -4.32655e-05 0.00448375 4.33913e-19 0.00448375)
(0.00453523 -0.0021342 -4.43724e-05 0.00453523 1.80298e-18 0.00453523)
(0.00453523 -0.0021342 -4.43724e-05 0.00453523 4.62681e-19 0.00453523)
(0.00458503 -0.00215615 -4.54847e-05 0.00458503 1.91805e-18 0.00458503)
(0.00458503 -0.00215615 -4.54847e-05 0.00458503 4.87902e-19 0.00458503)
(0.00463322 -0.00217729 -4.66029e-05 0.00463322 2.01616e-18 0.00463322)
(0.00463322 -0.00217729 -4.66029e-05 0.00463322 5.30675e-19 0.00463322)
(0.00467984 -0.00219765 -4.77271e-05 0.00467984 2.13379e-18 0.00467984)
(0.00467984 -0.00219765 -4.77271e-05 0.00467984 5.6746e-19 0.00467984)
(0.00472491 -0.00221726 -4.88576e-05 0.00472491 2.27368e-18 0.00472491)
(0.00472491 -0.00221726 -4.88576e-05 0.00472491 6.2599e-19 0.00472491)
(0.0047685 -0.00223614 -4.99948e-05 0.0047685 2.39151e-18 0.0047685)
(0.0047685 -0.00223614 -4.99948e-05 0.0047685 6.89883e-19 0.0047685)
(0.00481063 -0.00225433 -5.11389e-05 0.00481063 2.51927e-18 0.00481063)
(0.00481063 -0.00225433 -5.11389e-05 0.00481063 7.36792e-19 0.00481063)
(0.00485135 -0.00227184 -5.22902e-05 0.00485135 2.67413e-18 0.00485135)
(0.00485135 -0.00227184 -5.22902e-05 0.00485135 7.76642e-19 0.00485135)
(0.0048907 -0.00228869 -5.3449e-05 0.0048907 2.81932e-18 0.0048907)
(0.0048907 -0.00228869 -5.3449e-05 0.0048907 8.04849e-19 0.0048907)
(0.00492872 -0.00230492 -5.46156e-05 0.00492872 2.95486e-18 0.00492872)
(0.00492872 -0.00230492 -5.46156e-05 0.00492872 8.40525e-19 0.00492872)
(0.00496544 -0.00232054 -5.57903e-05 0.00496544 3.09698e-18 0.00496544)
(0.00496544 -0.00232054 -5.57903e-05 0.00496544 8.96419e-19 0.00496544)
(0.00500091 -0.00233558 -5.69733e-05 0.00500091 3.2495e-18 0.00500091)
(0.00500091 -0.00233558 -5.69733e-05 0.00500091 9.74543e-19 0.00500091)
(0.00503516 -0.00235005 -5.8165e-05 0.00503516 3.41595e-18 0.00503516)
(0.00503516 -0.00235005 -5.8165e-05 0.00503516 1.04688e-18 0.00503516)
(0.00506822 -0.00236398 -5.93657e-05 0.00506822 3.55202e-18 0.00506822)
(0.00506822 -0.00236398 -5.93657e-05 0.00506822 1.0947e-18 0.00506822)
(0.00510014 -0.00237738 -6.05756e-05 0.00510014 3.68311e-18 0.00510014)
(0.00510014 -0.00237738 -6.05756e-05 0.00510014 1.13897e-18 0.00510014)
(0.00513094 -0.00239028 -6.1795e-05 0.00513094 3.84074e-18 0.00513094)
(0.00513094 -0.00239028 -6.1795e-05 0.00513094 1.17385e-18 0.00513094)
(0.00516066 -0.00240269 -6.30242e-05 0.00516066 2.92016e-18 0.00516066)
(0.00516066 -0.00240269 -6.30242e-05 0.00516066 1.20885e-18 0.00516066)
(0.00518932 -0.00241462 -6.42634e-05 0.00518932 1.56524e-19 0.00518932)
(0.00518932 -0.00241462 -6.42634e-05 0.00518932 1.32874e-18 0.00518932)
(0.00521697 -0.00242609 -6.55131e-05 0.00521697 -4.69748e-18 0.00521697)
(0.00521697 -0.00242609 -6.55131e-05 0.00521697 1.42939e-18 0.00521697)
(0.00524363 -0.00243713 -6.67733e-05 0.00524363 -4.76804e-18 0.00524363)
(0.00524363 -0.00243713 -6.67733e-05 0.00524363 1.45888e-18 0.00524363)
(0.00526933 -0.00244773 -6.80444e-05 0.00526933 -4.7652e-18 0.00526933)
(0.00526933 -0.00244773 -6.80444e-05 0.00526933 1.55367e-18 0.00526933)
(0.00529409 -0.00245793 -6.93267e-05 0.00529409 -4.79563e-18 0.00529409)
(0.00529409 -0.00245793 -6.93267e-05 0.00529409 1.65888e-18 0.00529409)
(0.00531795 -0.00246772 -7.06205e-05 0.00531795 -4.79886e-18 0.00531795)
(0.00531795 -0.00246772 -7.06205e-05 0.00531795 1.73355e-18 0.00531795)
(0.00534093 -0.00247713 -7.19259e-05 0.00534093 -4.90592e-18 0.00534093)
(0.00534093 -0.00247713 -7.19259e-05 0.00534093 1.83713e-18 0.00534093)
(0.00536305 -0.00248617 -7.32433e-05 0.00536305 -4.97637e-18 0.00536305)
(0.00536305 -0.00248617 -7.32433e-05 0.00536305 1.92923e-18 0.00536305)
(0.00538435 -0.00249484 -7.4573e-05 0.00538435 -4.89946e-18 0.00538435)
(0.00538435 -0.00249484 -7.4573e-05 0.00538435 2.08127e-18 0.00538435)
(0.00540483 -0.00250316 -7.59151e-05 0.00540483 -4.98167e-18 0.00540483)
(0.00540483 -0.00250316 -7.59151e-05 0.00540483 2.24356e-18 0.00540483)
(0.00542453 -0.00251114 -7.727e-05 0.00542453 -5.15183e-18 0.00542453)
(0.00542453 -0.00251114 -7.727e-05 0.00542453 2.32158e-18 0.00542453)
(0.00544346 -0.00251879 -7.86379e-05 0.00544346 -5.19292e-18 0.00544346)
(0.00544346 -0.00251879 -7.86379e-05 0.00544346 2.45477e-18 0.00544346)
(0.00546166 -0.00252612 -8.0019e-05 0.00546166 -5.18662e-18 0.00546166)
(0.00546166 -0.00252612 -8.0019e-05 0.00546166 2.59107e-18 0.00546166)
(0.00547913 -0.00253314 -8.14136e-05 0.00547913 -5.32946e-18 0.00547913)
(0.00547913 -0.00253314 -8.14136e-05 0.00547913 2.72291e-18 0.00547913)
(0.00549589 -0.00253986 -8.2822e-05 0.00549589 -5.34457e-18 0.00549589)
(0.00549589 -0.00253986 -8.2822e-05 0.00549589 2.82143e-18 0.00549589)
(0.00551198 -0.00254629 -8.42443e-05 0.00551198 -5.26617e-18 0.00551198)
(0.00551198 -0.00254629 -8.42443e-05 0.00551198 2.94972e-18 0.00551198)
(0.00552739 -0.00255243 -8.56809e-05 0.00552739 -5.51963e-18 0.00552739)
(0.00552739 -0.00255243 -8.56809e-05 0.00552739 3.1298e-18 0.00552739)
(0.00554216 -0.00255829 -8.7132e-05 0.00554216 -5.80177e-18 0.00554216)
(0.00554216 -0.00255829 -8.7132e-05 0.00554216 3.32839e-18 0.00554216)
(0.0055563 -0.00256389 -8.85978e-05 0.0055563 -5.77142e-18 0.0055563)
(0.0055563 -0.00256389 -8.85978e-05 0.0055563 3.47966e-18 0.0055563)
(0.00556981 -0.00256923 -9.00786e-05 0.00556981 -5.53701e-18 0.00556981)
(0.00556981 -0.00256923 -9.00786e-05 0.00556981 3.57401e-18 0.00556981)
(0.00558273 -0.00257431 -9.15746e-05 0.00558273 -5.61291e-18 0.00558273)
(0.00558273 -0.00257431 -9.15746e-05 0.00558273 3.69195e-18 0.00558273)
(0.00559506 -0.00257914 -9.3086e-05 0.00559506 -5.88731e-18 0.00559506)
(0.00559506 -0.00257914 -9.3086e-05 0.00559506 3.80961e-18 0.00559506)
(0.00560681 -0.00258373 -9.4613e-05 0.00560681 -5.83801e-18 0.00560681)
(0.00560681 -0.00258373 -9.4613e-05 0.00560681 3.8497e-18 0.00560681)
(0.00561801 -0.00258808 -9.6156e-05 0.00561801 -5.70554e-18 0.00561801)
(0.00561801 -0.00258808 -9.6156e-05 0.00561801 3.96016e-18 0.00561801)
(0.00562867 -0.00259221 -9.77151e-05 0.00562867 -5.55969e-18 0.00562867)
(0.00562867 -0.00259221 -9.77151e-05 0.00562867 4.11882e-18 0.00562867)
(0.00563878 -0.00259611 -9.92905e-05 0.00563878 -5.5516e-18 0.00563878)
(0.00563878 -0.00259611 -9.92905e-05 0.00563878 4.07769e-18 0.00563878)
(0.00564838 -0.00259979 -0.000100883 0.00564838 -5.82122e-18 0.00564838)
(0.00564838 -0.00259979 -0.000100883 0.00564838 4.11522e-18 0.00564838)
(0.00565747 -0.00260326 -0.000102491 0.00565747 -5.68826e-18 0.00565747)
(0.00565747 -0.00260326 -0.000102491 0.00565747 4.4723e-18 0.00565747)
(0.00566606 -0.00260652 -0.000104117 0.00566606 -5.53509e-18 0.00566606)
(0.00566606 -0.00260652 -0.000104117 0.00566606 4.74765e-18 0.00566606)
(0.00567416 -0.00260957 -0.00010576 0.00567416 -5.74681e-18 0.00567416)
(0.00567416 -0.00260957 -0.00010576 0.00567416 5.02016e-18 0.00567416)
(0.00568179 -0.00261243 -0.000107421 0.00568179 -5.75831e-18 0.00568179)
(0.00568179 -0.00261243 -0.000107421 0.00568179 4.92629e-18 0.00568179)
(0.00568895 -0.00261509 -0.000109099 0.00568895 -5.59649e-18 0.00568895)
(0.00568895 -0.00261509 -0.000109099 0.00568895 4.10824e-18 0.00568895)
(0.00569564 -0.00261755 -0.000110795 0.00569564 -5.62488e-18 0.00569564)
(0.00569564 -0.00261755 -0.000110795 0.00569564 3.80639e-18 0.00569564)
(0.00570189 -0.00261983 -0.000112509 0.00570189 -5.63614e-18 0.00570189)
(0.00570189 -0.00261983 -0.000112509 0.00570189 4.12506e-18 0.00570189)
(0.0057077 -0.00262192 -0.000114242 0.0057077 -5.64146e-18 0.0057077)
(0.0057077 -0.00262192 -0.000114242 0.0057077 4.34713e-18 0.0057077)
(0.00571308 -0.00262384 -0.000115993 0.00571308 -5.59595e-18 0.00571308)
(0.00571308 -0.00262384 -0.000115993 0.00571308 4.47237e-18 0.00571308)
(0.00571804 -0.00262557 -0.000117762 0.00571804 -5.82002e-18 0.00571804)
(0.00571804 -0.00262557 -0.000117762 0.00571804 4.70706e-18 0.00571804)
(0.00572257 -0.00262713 -0.000119551 0.00572257 -6.19011e-18 0.00572257)
(0.00572257 -0.00262713 -0.000119551 0.00572257 5.00352e-18 0.00572257)
(0.0057267 -0.00262852 -0.000121359 0.0057267 -6.42874e-18 0.0057267)
(0.0057267 -0.00262852 -0.000121359 0.0057267 5.29825e-18 0.0057267)
(0.00573043 -0.00262974 -0.000123186 0.00573043 -5.1526e-18 0.00573043)
(0.00573043 -0.00262974 -0.000123186 0.00573043 5.82677e-18 0.00573043)
(0.00573376 -0.0026308 -0.000125032 0.00573376 -1.50337e-18 0.00573376)
(0.00573376 -0.0026308 -0.000125032 0.00573376 6.38649e-18 0.00573376)
(0.0057367 -0.00263169 -0.000126898 0.0057367 4.71166e-19 0.0057367)
(0.0057367 -0.00263169 -0.000126898 0.0057367 6.82537e-18 0.0057367)
(0.00573926 -0.00263242 -0.000128784 0.00573926 -4.52049e-20 0.00573926)
(0.00573926 -0.00263242 -0.000128784 0.00573926 7.18381e-18 0.00573926)
(0.00574144 -0.00263299 -0.000130691 0.00574144 -2.89575e-19 0.00574144)
(0.00574144 -0.00263299 -0.000130691 0.00574144 7.55118e-18 0.00574144)
(0.00574326 -0.00263341 -0.000132617 0.00574326 -3.73377e-19 0.00574326)
(0.00574326 -0.00263341 -0.000132617 0.00574326 7.86501e-18 0.00574326)
(0.0057447 -0.00263367 -0.000134564 0.0057447 -2.00896e-19 0.0057447)
(0.0057447 -0.00263367 -0.000134564 0.0057447 7.90764e-18 0.0057447)
(0.00574579 -0.00263378 -0.000136531 0.00574579 3.83555e-19 0.00574579)
(0.00574579 -0.00263378 -0.000136531 0.00574579 7.96169e-18 0.00574579)
(0.00574651 -0.00263374 -0.000138519 0.00574651 9.45404e-19 0.00574651)
(0.00574651 -0.00263374 -0.000138519 0.00574651 8.11675e-18 0.00574651)
(0.00574689 -0.00263355 -0.000140528 0.00574689 1.23835e-18 0.00574689)
(0.00574689 -0.00263355 -0.000140528 0.00574689 8.26001e-18 0.00574689)
(0.00574692 -0.00263321 -0.000142559 0.00574692 1.44266e-18 0.00574692)
(0.00574692 -0.00263321 -0.000142559 0.00574692 8.52164e-18 0.00574692)
(0.00574661 -0.00263273 -0.00014461 0.00574661 1.55292e-18 0.00574661)
(0.00574661 -0.00263273 -0.00014461 0.00574661 8.82209e-18 0.00574661)
(0.00574596 -0.0026321 -0.000146683 0.00574596 1.85563e-18 0.00574596)
(0.00574596 -0.0026321 -0.000146683 0.00574596 8.90184e-18 0.00574596)
(0.00574497 -0.00263133 -0.000148777 0.00574497 2.6202e-18 0.00574497)
(0.00574497 -0.00263133 -0.000148777 0.00574497 9.09327e-18 0.00574497)
(0.00574366 -0.00263043 -0.000150893 0.00574366 3.35105e-18 0.00574366)
(0.00574366 -0.00263043 -0.000150893 0.00574366 9.42888e-18 0.00574366)
(0.00574201 -0.00262938 -0.000153031 0.00574201 4.11512e-18 0.00574201)
(0.00574201 -0.00262938 -0.000153031 0.00574201 9.46751e-18 0.00574201)
(0.00574004 -0.00262819 -0.000155191 0.00574004 4.20658e-18 0.00574004)
(0.00574004 -0.00262819 -0.000155191 0.00574004 9.65144e-18 0.00574004)
(0.00573775 -0.00262686 -0.000157373 0.00573775 3.54632e-18 0.00573775)
(0.00573775 -0.00262686 -0.000157373 0.00573775 1.01398e-17 0.00573775)
(0.00573514 -0.0026254 -0.000159577 0.00573514 6.80206e-19 0.00573514)
(0.00573514 -0.0026254 -0.000159577 0.00573514 1.07468e-17 0.00573514)
(0.00573222 -0.0026238 -0.000161804 0.00573222 4.95003e-19 0.00573222)
(0.00573222 -0.0026238 -0.000161804 0.00573222 1.15088e-17 0.00573222)
(0.00572898 -0.00262207 -0.000164053 0.00572898 -6.24604e-19 0.00572898)
(0.00572898 -0.00262207 -0.000164053 0.00572898 1.2454e-17 0.00572898)
(0.00572543 -0.0026202 -0.000166325 0.00572543 -1.59902e-18 0.00572543)
(0.00572543 -0.0026202 -0.000166325 0.00572543 1.34353e-17 0.00572543)
(0.00572157 -0.0026182 -0.000168619 0.00572157 -2.69013e-18 0.00572157)
(0.00572157 -0.0026182 -0.000168619 0.00572157 1.44311e-17 0.00572157)
(0.0057174 -0.00261607 -0.000170936 0.0057174 -3.14542e-18 0.0057174)
(0.0057174 -0.00261607 -0.000170936 0.0057174 1.58405e-17 0.0057174)
(0.00571293 -0.0026138 -0.000173276 0.00571293 -3.21573e-18 0.00571293)
(0.00571293 -0.0026138 -0.000173276 0.00571293 1.64467e-17 0.00571293)
(0.00570816 -0.0026114 -0.000175639 0.00570816 -3.47946e-18 0.00570816)
(0.00570816 -0.0026114 -0.000175639 0.00570816 1.79017e-17 0.00570816)
(0.00570309 -0.00260887 -0.000178025 0.00570309 -4.36079e-18 0.00570309)
(0.00570309 -0.00260887 -0.000178025 0.00570309 1.83733e-17 0.00570309)
(0.00569771 -0.00260621 -0.000180434 0.00569771 -5.41721e-18 0.00569771)
(0.00569771 -0.00260621 -0.000180434 0.00569771 1.93007e-17 0.00569771)
(0.00569204 -0.00260341 -0.000182866 0.00569204 -5.99018e-18 0.00569204)
(0.00569204 -0.00260341 -0.000182866 0.00569204 2.05542e-17 0.00569204)
(0.00568607 -0.00260049 -0.000185321 0.00568607 -6.80473e-18 0.00568607)
(0.00568607 -0.00260049 -0.000185321 0.00568607 2.18427e-17 0.00568607)
(0.0056798 -0.00259744 -0.000187799 0.0056798 -7.32771e-18 0.0056798)
(0.0056798 -0.00259744 -0.000187799 0.0056798 2.26999e-17 0.0056798)
(0.00567324 -0.00259425 -0.000190301 0.00567324 -7.86615e-18 0.00567324)
(0.00567324 -0.00259425 -0.000190301 0.00567324 2.33888e-17 0.00567324)
(0.00566639 -0.00259094 -0.000192825 0.00566639 -8.99373e-18 0.00566639)
(0.00566639 -0.00259094 -0.000192825 0.00566639 2.43508e-17 0.00566639)
(0.00565924 -0.00258749 -0.000195373 0.00565924 -8.32204e-18 0.00565924)
(0.00565924 -0.00258749 -0.000195373 0.00565924 2.47208e-17 0.00565924)
(0.0056518 -0.00258392 -0.000197945 0.0056518 -8.37119e-18 0.0056518)
(0.0056518 -0.00258392 -0.000197945 0.0056518 2.51803e-17 0.0056518)
(0.00564407 -0.00258021 -0.000200539 0.00564407 -8.29116e-18 0.00564407)
(0.00564407 -0.00258021 -0.000200539 0.00564407 2.6166e-17 0.00564407)
(0.00563605 -0.00257637 -0.000203157 0.00563605 -5.30673e-18 0.00563605)
(0.00563605 -0.00257637 -0.000203157 0.00563605 2.72251e-17 0.00563605)
(0.00562773 -0.0025724 -0.000205797 0.00562773 -3.10779e-18 0.00562773)
(0.00562773 -0.0025724 -0.000205797 0.00562773 2.75573e-17 0.00562773)
(0.00561913 -0.0025683 -0.000208461 0.00561913 -2.56411e-18 0.00561913)
(0.00561913 -0.0025683 -0.000208461 0.00561913 2.71809e-17 0.00561913)
(0.00561023 -0.00256407 -0.000211148 0.00561023 -2.31038e-18 0.00561023)
(0.00561023 -0.00256407 -0.000211148 0.00561023 2.76397e-17 0.00561023)
(0.00560105 -0.00255971 -0.000213858 0.00560105 -2.33476e-18 0.00560105)
(0.00560105 -0.00255971 -0.000213858 0.00560105 2.85165e-17 0.00560105)
(0.00559157 -0.00255522 -0.000216591 0.00559157 -1.78849e-18 0.00559157)
(0.00559157 -0.00255522 -0.000216591 0.00559157 2.9001e-17 0.00559157)
(0.0055818 -0.00255059 -0.000219346 0.0055818 -1.5049e-18 0.0055818)
(0.0055818 -0.00255059 -0.000219346 0.0055818 2.96799e-17 0.0055818)
(0.00557175 -0.00254583 -0.000222124 0.00557175 -1.39794e-18 0.00557175)
(0.00557175 -0.00254583 -0.000222124 0.00557175 3.05143e-17 0.00557175)
(0.0055614 -0.00254093 -0.000224924 0.0055614 -4.16082e-19 0.0055614)
(0.0055614 -0.00254093 -0.000224924 0.0055614 3.12003e-17 0.0055614)
(0.00555076 -0.0025359 -0.000227747 0.00555076 -2.51865e-19 0.00555076)
(0.00555076 -0.0025359 -0.000227747 0.00555076 3.20035e-17 0.00555076)
(0.00553982 -0.00253074 -0.000230592 0.00553982 -7.97279e-19 0.00553982)
(0.00553982 -0.00253074 -0.000230592 0.00553982 3.27037e-17 0.00553982)
(0.0055286 -0.00252544 -0.000233458 0.0055286 -3.17984e-19 0.0055286)
(0.0055286 -0.00252544 -0.000233458 0.0055286 3.30681e-17 0.0055286)
(0.00551708 -0.00252001 -0.000236347 0.00551708 2.13081e-19 0.00551708)
(0.00551708 -0.00252001 -0.000236347 0.00551708 3.34179e-17 0.00551708)
(0.00550526 -0.00251443 -0.000239257 0.00550526 6.26602e-19 0.00550526)
(0.00550526 -0.00251443 -0.000239257 0.00550526 3.42333e-17 0.00550526)
(0.00549316 -0.00250872 -0.000242188 0.00549316 9.66765e-19 0.00549316)
(0.00549316 -0.00250872 -0.000242188 0.00549316 3.47786e-17 0.00549316)
(0.00548075 -0.00250287 -0.00024514 0.00548075 -9.70876e-20 0.00548075)
(0.00548075 -0.00250287 -0.00024514 0.00548075 3.4129e-17 0.00548075)
(0.00546805 -0.00249689 -0.000248112 0.00546805 -2.96559e-19 0.00546805)
(0.00546805 -0.00249689 -0.000248112 0.00546805 3.43026e-17 0.00546805)
(0.00545505 -0.00249076 -0.000251105 0.00545505 -2.99766e-19 0.00545505)
(0.00545505 -0.00249076 -0.000251105 0.00545505 3.56969e-17 0.00545505)
(0.00544175 -0.00248449 -0.000254118 0.00544175 -9.88566e-19 0.00544175)
(0.00544175 -0.00248449 -0.000254118 0.00544175 3.65049e-17 0.00544175)