/*--------------------------------*- C++ -*----------------------------------*\
| =========                 |                                                 |
| \\      /  F ield         | OpenFOAM: The Open Source CFD Toolbox           |
|  \\    /   O peration     | Version:  2012                                  |
|   \\  /    A nd           | Website:  www.openfoam.com                      |
|    \\/     M anipulation  |                                                 |
\*---------------------------------------------------------------------------*/
FoamFile
{
    version     2.0;
    format      ascii;
    class       volScalarField;
    location    "11500";
    object      k;
}
// * * * * * * * * * * * * * * * * * * * * * * * * * * * * * * * * * * * * * //

dimensions      [0 2 -2 0 0 0 0];


internalField   nonuniform List<scalar> 
2560
(
0.0104834
0.0104752
0.298835
0.298619
2.03425
2.03292
5.89423
5.89123
10.3049
10.3008
14.2875
14.2827
17.8003
17.7949
20.9578
20.952
23.8546
23.8484
26.5563
26.5496
29.1081
29.101
31.5421
31.5347
33.8819
33.8741
36.1453
36.1373
38.3463
38.3379
40.4958
40.4872
42.6029
42.5939
44.675
44.6657
46.7185
46.7089
48.7387
48.7289
50.7404
50.7302
52.7274
52.7169
54.7033
54.6926
56.6714
56.6603
58.6345
58.6231
60.5953
60.5836
62.5562
62.5442
64.5196
64.5073
66.4878
66.4751
68.4627
68.4497
70.4465
70.4332
72.4412
72.4275
74.4486
74.4345
76.4702
76.4559
78.5077
78.493
80.5622
80.5471
82.6347
82.6193
84.7264
84.7105
86.838
86.8217
88.9704
88.9537
91.1248
91.1077
93.302
93.2844
95.5028
95.4848
97.7278
97.7094
99.9768
99.9579
102.248
102.229
104.54
104.521
106.849
106.828
109.168
109.147
111.492
111.471
113.812
113.79
116.12
116.098
118.407
118.384
120.666
120.642
122.892
122.868
125.093
125.068
127.286
127.26
129.505
129.478
131.791
131.763
134.178
134.148
136.667
136.636
139.184
139.153
141.596
141.564
143.72
143.687
145.359
145.326
146.355
146.323
146.622
146.591
146.162
146.132
145.05
145.022
143.413
143.388
141.4
141.377
139.154
139.132
136.796
136.776
134.422
134.403
132.097
132.079
129.86
129.842
127.726
127.709
125.696
125.679
123.753
123.738
121.879
121.864
120.048
120.034
118.236
118.224
116.423
116.412
114.59
114.58
112.72
112.712
110.803
110.796
108.83
108.824
106.796
106.791
104.699
104.694
102.539
102.536
100.323
100.32
98.0587
98.0561
95.7589
95.7567
93.439
93.4371
91.1164
91.1148
88.809
88.8075
86.5334
86.5321
84.3035
84.3023
82.1295
82.1283
80.0174
80.0163
77.9698
77.9688
75.986
75.9851
74.0633
74.0625
72.1987
72.1979
70.3897
70.389
68.6349
68.6343
66.9342
66.9337
65.2888
65.2883
63.7002
63.6997
62.17
62.1696
60.6989
60.6985
59.2861
59.2858
57.9286
57.9283
56.6209
56.6207
55.3557
55.3555
54.1242
54.124
52.9171
52.917
51.7261
51.726
50.5449
50.5449
49.3705
49.3706
48.2037
48.2037
47.0487
47.0488
45.9129
45.913
44.8047
44.8048
43.7323
43.7325
42.7023
42.7025
41.7188
41.7189
40.7816
40.7817
39.888
39.8881
39.0335
39.0336
38.2128
38.2129
37.4209
37.421
36.6539
36.654
35.9094
35.9095
35.1864
35.1865
34.4851
34.4852
33.8062
33.8063
33.1509
33.151
32.5201
32.5202
31.9145
31.9146
31.3344
31.3345
30.7795
30.7795
30.2491
30.2491
29.7421
29.7421
29.257
29.257
28.7924
28.7924
28.3467
28.3466
27.9184
27.9183
27.5065
27.5065
27.1105
27.1104
26.7303
26.7302
26.3664
26.3663
26.0197
26.0195
25.6914
25.6912
25.3831
25.3828
25.0961
25.0959
24.832
24.8317
24.592
24.5916
24.3769
24.3765
24.1875
24.187
24.024
24.0235
23.8863
23.8857
23.774
23.7733
23.6858
23.685
23.6203
23.6194
23.575
23.574
23.5468
23.5457
23.5314
23.5302
23.5238
23.5225
23.5177
23.5163
23.5065
23.505
23.483
23.4814
23.4402
23.4386
23.3721
23.3706
23.2745
23.2731
23.1455
23.1444
22.9862
22.9855
22.801
22.8007
22.5967
22.5967
22.3824
22.3825
22.1687
22.1689
21.9659
21.966
21.783
21.7831
21.6264
21.6264
21.4989
21.4988
21.3998
21.3996
21.3239
21.3237
21.2634
21.2632
21.2087
21.2086
21.1498
21.1498
21.0772
21.0775
20.9832
20.9839
20.8625
20.8634
20.7118
20.7129
20.5304
20.5315
20.32
20.3211
20.0842
20.0853
19.8278
19.8288
19.5564
19.5572
19.2756
19.2763
18.9911
18.9918
18.7083
18.7089
18.4319
18.4324
18.166
18.1664
17.9139
17.9143
17.6785
17.6788
17.462
17.4623
17.2661
17.2663
17.0919
17.0921
16.9403
16.9404
16.8115
16.8116
16.7053
16.7053
16.6205
16.6204
16.5552
16.5551
16.5065
16.5064
16.4702
16.4701
16.4407
16.4405
16.4113
16.411
16.3741
16.3739
16.3212
16.3208
16.2444
16.244
16.1369
16.1364
15.9937
15.9932
15.8125
15.812
15.5943
15.5938
15.3434
15.3429
15.0677
15.0674
14.7767
14.7766
14.4804
14.4804
14.188
14.188
13.9067
13.9067
13.6414
13.6414
13.3927
13.3927
13.1585
13.1585
12.9347
12.9347
12.7163
12.7163
12.4991
12.4992
12.2805
12.2806
12.0593
12.0595
11.8365
11.8366
11.6144
11.6146
11.3966
11.3967
11.1862
11.1863
10.9859
10.986
10.7976
10.7976
10.622
10.6221
10.4595
10.4596
10.3098
10.3099
10.1726
10.1726
10.0475
10.0475
9.93451
9.93453
9.83346
9.83347
9.74433
9.74435
9.66695
9.66696
9.60098
9.60099
9.5459
9.54591
9.50106
9.50106
9.4657
9.4657
9.43908
9.43908
9.42052
9.42052
9.40947
9.40947
9.40556
9.40556
9.4086
9.40861
9.41862
9.41862
9.43579
9.4358
9.4604
9.4604
9.49279
9.49279
9.53325
9.53325
9.58203
9.58203
9.63923
9.63922
9.70483
9.70483
9.77874
9.77874
9.86077
9.86077
9.95074
9.95074
10.0485
10.0485
10.1539
10.1539
10.2668
10.2668
10.3872
10.3872
10.515
10.515
10.6502
10.6502
10.7927
10.7927
10.9425
10.9425
11.0995
11.0995
11.2637
11.2637
11.4349
11.4349
11.6133
11.6133
11.7987
11.7987
11.9913
11.9913
12.1913
12.1913
12.3989
12.3989
12.6145
12.6145
12.8384
12.8384
13.071
13.071
13.3125
13.3125
13.5632
13.5632
13.8231
13.8231
14.0922
14.0922
14.3707
14.3707
14.6587
14.6587
14.9563
14.9563
15.2637
15.2637
15.5816
15.5816
15.9103
15.9103
16.2506
16.2506
16.6032
16.6032
16.969
16.969
17.3486
17.3486
17.743
17.743
18.1529
18.1529
18.5793
18.5793
19.0228
19.0228
19.4842
19.4842
19.9639
19.9639
20.4621
20.4621
20.9773
20.9773
21.5049
21.5049
22.0326
22.0326
22.5285
22.5285
22.9158
22.9158
22.8873
22.8873
0.0104752
0.0104834
0.298619
0.298835
2.03292
2.03425
5.89122
5.89423
10.3008
10.3049
14.2827
14.2875
17.7949
17.8003
20.952
20.9578
23.8484
23.8547
26.5496
26.5563
29.101
29.1081
31.5347
31.5421
33.8741
33.8819
36.1373
36.1454
38.3379
38.3463
40.4872
40.4959
42.5939
42.6029
44.6657
44.675
46.7089
46.7185
48.7289
48.7388
50.7302
50.7404
52.7169
52.7274
54.6926
54.7034
56.6603
56.6714
58.6231
58.6345
60.5836
60.5953
62.5442
62.5562
64.5073
64.5197
66.4751
66.4878
68.4497
68.4627
70.4332
70.4466
72.4275
72.4412
74.4345
74.4486
76.4559
76.4703
78.4929
78.5077
80.5471
80.5622
82.6192
82.6348
84.7105
84.7264
86.8217
86.838
88.9537
88.9705
91.1077
91.1248
93.2844
93.302
95.4848
95.5029
97.7094
97.7279
99.9579
99.9768
102.229
102.248
104.521
104.54
106.828
106.849
109.147
109.168
111.47
111.492
113.79
113.812
116.098
116.12
118.384
118.407
120.642
120.666
122.868
122.892
125.068
125.093
127.26
127.286
129.478
129.505
131.763
131.791
134.148
134.178
136.636
136.667
139.153
139.184
141.564
141.597
143.687
143.72
145.326
145.359
146.323
146.355
146.591
146.622
146.132
146.162
145.022
145.05
143.388
143.414
141.377
141.4
139.132
139.154
136.776
136.796
134.403
134.422
132.079
132.098
129.842
129.86
127.709
127.726
125.679
125.696
123.738
123.754
121.864
121.879
120.034
120.048
118.224
118.236
116.412
116.423
114.58
114.59
112.712
112.72
110.796
110.803
108.824
108.83
106.791
106.796
104.694
104.699
102.536
102.539
100.32
100.323
98.0561
98.0587
95.7567
95.7589
93.4371
93.439
91.1147
91.1164
88.8075
88.809
86.5321
86.5334
84.3023
84.3035
82.1283
82.1295
80.0163
80.0174
77.9688
77.9697
75.9851
75.986
74.0625
74.0633
72.1979
72.1987
70.389
70.3897
68.6343
68.6349
66.9337
66.9342
65.2883
65.2888
63.6997
63.7002
62.1696
62.17
60.6985
60.6988
59.2858
59.2861
57.9283
57.9286
56.6206
56.6209
55.3555
55.3557
54.124
54.1242
52.917
52.9171
51.726
51.7261
50.5449
50.5449
49.3705
49.3705
48.2037
48.2036
47.0488
47.0487
45.913
45.9128
44.8048
44.8046
43.7325
43.7323
42.7024
42.7023
41.7189
41.7187
40.7817
40.7815
39.8881
39.8879
39.0336
39.0335
38.2129
38.2128
37.421
37.4209
36.654
36.6539
35.9095
35.9094
35.1865
35.1864
34.4851
34.485
33.8062
33.8061
33.1509
33.1508
32.5201
32.52
31.9145
31.9145
31.3344
31.3343
30.7794
30.7794
30.249
30.249
29.742
29.742
29.2569
29.257
28.7923
28.7923
28.3465
28.3466
27.9182
27.9183
27.5064
27.5064
27.1103
27.1104
26.7301
26.7302
26.3662
26.3663
26.0194
26.0196
25.6911
25.6913
25.3827
25.383
25.0958
25.096
24.8316
24.8319
24.5915
24.5919
24.3764
24.3768
24.1869
24.1874
24.0233
24.0239
23.8856
23.8862
23.7731
23.7739
23.6849
23.6857
23.6193
23.6202
23.5739
23.5749
23.5455
23.5467
23.5301
23.5313
23.5223
23.5236
23.5162
23.5176
23.5049
23.5064
23.4812
23.4829
23.4384
23.4401
23.3704
23.372
23.273
23.2745
23.1442
23.1454
22.9854
22.9862
22.8006
22.8009
22.5966
22.5966
22.3824
22.3824
22.1687
22.1686
21.9659
21.9658
21.783
21.7829
21.6262
21.6262
21.4986
21.4987
21.3994
21.3996
21.3234
21.3236
21.2629
21.2631
21.2083
21.2085
21.1496
21.1496
21.0772
21.0769
20.9836
20.983
20.8632
20.8622
20.7127
20.7115
20.5313
20.5301
20.321
20.3198
20.0851
20.0841
19.8287
19.8277
19.5571
19.5562
19.2762
19.2754
18.9917
18.991
18.7088
18.7082
18.4323
18.4318
18.1663
18.1659
17.9142
17.9138
17.6787
17.6784
17.4621
17.4619
17.2661
17.2659
17.0919
17.0917
16.9402
16.9401
16.8113
16.8113
16.705
16.705
16.6201
16.6202
16.5548
16.5549
16.5061
16.5062
16.4697
16.4699
16.4401
16.4404
16.4106
16.4109
16.3735
16.3738
16.3205
16.3209
16.2437
16.2442
16.1362
16.1367
15.993
15.9935
15.8118
15.8124
15.5937
15.5943
15.3429
15.3434
15.0674
15.0677
14.7766
14.7768
14.4805
14.4805
14.188
14.1881
13.9067
13.9067
13.6414
13.6414
13.3926
13.3927
13.1584
13.1585
12.9346
12.9346
12.7162
12.7162
12.4991
12.499
12.2806
12.2804
12.0595
12.0593
11.8367
11.8364
11.6146
11.6144
11.3968
11.3966
11.1863
11.1862
10.986
10.9859
10.7977
10.7976
10.6221
10.622
10.4596
10.4595
10.3099
10.3098
10.1726
10.1726
10.0475
10.0475
9.93452
9.93449
9.83346
9.83344
9.74432
9.74431
9.66693
9.66692
9.60095
9.60094
9.54586
9.54585
9.50101
9.501
9.46565
9.46565
9.43904
9.43903
9.42048
9.42048
9.40944
9.40944
9.40554
9.40554
9.4086
9.4086
9.41863
9.41863
9.43581
9.43581
9.46042
9.46042
9.49281
9.49281
9.53327
9.53327
9.58205
9.58205
9.63924
9.63924
9.70484
9.70484
9.77874
9.77874
9.86077
9.86077
9.95074
9.95074
10.0485
10.0485
10.1539
10.1539
10.2668
10.2668
10.3872
10.3872
10.515
10.515
10.6502
10.6502
10.7927
10.7927
10.9425
10.9425
11.0995
11.0995
11.2636
11.2637
11.4349
11.4349
11.6132
11.6133
11.7987
11.7987
11.9913
11.9913
12.1913
12.1913
12.3989
12.3989
12.6145
12.6145
12.8384
12.8384
13.071
13.071
13.3125
13.3125
13.5632
13.5632
13.823
13.8231
14.0922
14.0922
14.3707
14.3707
14.6587
14.6587
14.9562
14.9562
15.2637
15.2637
15.5815
15.5815
15.9103
15.9103
16.2506
16.2506
16.6032
16.6032
16.9689
16.9689
17.3486
17.3486
17.7429
17.7429
18.1529
18.1529
18.5792
18.5792
19.0226
19.0226
19.484
19.484
19.9637
19.9637
20.4617
20.4617
20.9768
20.9768
21.5043
21.5043
22.0318
22.0318
22.5276
22.5276
22.9148
22.9148
22.8865
22.8865
22.8874
22.8874
22.916
22.916
22.5288
22.5288
22.0328
22.0328
21.5052
21.5052
20.9776
20.9776
20.4624
20.4624
19.9643
19.9643
19.4845
19.4845
19.0231
19.0231
18.5796
18.5796
18.1533
18.1533
17.7433
17.7433
17.3489
17.3489
16.9693
16.9693
16.6036
16.6036
16.251
16.251
15.9107
15.9107
15.5819
15.5819
15.2641
15.2641
14.9566
14.9566
14.6591
14.6591
14.3712
14.3712
14.0927
14.0927
13.8235
13.8235
13.5636
13.5636
13.313
13.313
13.0714
13.0714
12.8388
12.8388
12.6149
12.6149
12.3993
12.3993
12.1917
12.1917
11.9917
11.9917
11.7991
11.7991
11.6137
11.6137
11.4353
11.4353
11.264
11.264
11.0998
11.0998
10.9428
10.9428
10.793
10.793
10.6504
10.6504
10.5152
10.5152
10.3874
10.3874
10.267
10.267
10.154
10.154
10.0486
10.0486
9.95083
9.95083
9.86083
9.86083
9.77877
9.77877
9.70484
9.70484
9.6392
9.6392
9.58197
9.58197
9.53316
9.53316
9.49267
9.49267
9.46025
9.46025
9.43559
9.43559
9.41838
9.41838
9.40832
9.40832
9.40523
9.40523
9.40908
9.40908
9.42005
9.42006
9.43855
9.43855
9.46511
9.46512
9.50043
9.50043
9.54524
9.54525
9.60029
9.6003
9.66623
9.66624
9.74357
9.74359
9.83266
9.83267
9.93366
9.93368
10.0466
10.0467
10.1716
10.1717
10.3088
10.3089
10.4585
10.4585
10.621
10.621
10.7964
10.7965
10.9847
10.9848
11.185
11.1851
11.3954
11.3955
11.6133
11.6134
11.8354
11.8356
12.0583
12.0585
12.2796
12.2798
12.4983
12.4984
12.7156
12.7156
12.9341
12.9341
13.158
13.158
13.3923
13.3922
13.641
13.641
13.9064
13.9064
14.1877
14.1877
14.4803
14.4802
14.7767
14.7765
15.0678
15.0674
15.3437
15.3432
15.5947
15.5942
15.8129
15.8124
15.9941
15.9936
16.1373
16.1368
16.2447
16.2443
16.3215
16.3211
16.3745
16.3741
16.4116
16.4113
16.441
16.4408
16.4705
16.4703
16.5068
16.5067
16.5554
16.5553
16.6206
16.6206
16.7053
16.7053
16.8115
16.8116
16.9403
16.9404
17.0918
17.092
17.2659
17.2661
17.4618
17.4621
17.6783
17.6786
17.9136
17.914
18.1656
18.1661
18.4315
18.432
18.7078
18.7084
18.9905
18.9912
19.2749
19.2757
19.5557
19.5566
19.8271
19.8281
20.0835
20.0845
20.3191
20.3203
20.5294
20.5306
20.7108
20.712
20.8615
20.8625
20.9821
20.9828
21.076
21.0763
21.1485
21.1485
21.2073
21.2071
21.2619
21.2617
21.3224
21.3222
21.3983
21.3981
21.4973
21.4972
21.6248
21.6248
21.7815
21.7815
21.9643
21.9644
22.1671
22.1672
22.3808
22.3809
22.595
22.595
22.7993
22.799
22.9846
22.9838
23.1439
23.1427
23.273
23.2715
23.3705
23.3689
23.4385
23.4368
23.4812
23.4795
23.5047
23.5031
23.5158
23.5144
23.5218
23.5204
23.5294
23.5281
23.5447
23.5435
23.5728
23.5718
23.618
23.6171
23.6834
23.6826
23.7715
23.7707
23.8837
23.8831
24.0213
24.0207
24.1847
24.1841
24.3739
24.3735
24.5889
24.5885
24.8288
24.8284
25.0927
25.0924
25.3795
25.3792
25.6876
25.6874
26.0157
26.0155
26.3622
26.3621
26.7259
26.7258
27.1059
27.1058
27.5016
27.5015
27.9132
27.9131
28.3412
28.3412
28.7867
28.7866
29.251
29.251
29.7357
29.7358
30.2425
30.2425
30.7727
30.7727
31.3273
31.3274
31.9072
31.9072
32.5125
32.5126
33.143
33.1431
33.798
33.7981
34.4766
34.4767
35.1775
35.1776
35.9
35.9002
36.6441
36.6442
37.4107
37.4108
38.2021
38.2022
39.0223
39.0225
39.8764
39.8766
40.7696
40.7698
41.7064
41.7065
42.6895
42.6897
43.719
43.7192
44.7909
44.7911
45.8987
45.8989
47.0342
47.0343
48.1886
48.1887
49.355
49.3551
50.529
50.529
51.7097
51.7097
52.9003
52.9003
54.107
54.1069
55.3382
55.338
56.6029
56.6027
57.9101
57.9098
59.2671
59.2667
60.6792
60.6788
62.1497
62.1493
63.6793
63.6789
65.2673
65.2668
66.9121
66.9116
68.6121
68.6116
70.3663
70.3657
72.1746
72.1739
74.0385
74.0377
75.9606
75.9597
77.9437
77.9427
79.9906
79.9896
82.102
82.1009
84.2753
84.2741
86.5045
86.5031
88.7793
88.7779
91.086
91.0843
93.4078
93.4059
95.7272
95.725
98.0267
98.0241
100.291
100.288
102.507
102.503
104.666
104.661
106.763
106.757
108.796
108.789
110.768
110.76
112.684
112.675
114.552
114.541
116.384
116.372
118.196
118.183
120.006
119.991
121.836
121.82
123.709
123.692
125.65
125.632
127.679
127.661
129.812
129.793
132.049
132.029
134.372
134.352
136.745
136.723
139.102
139.078
141.348
141.322
143.36
143.333
144.997
144.967
146.11
146.078
146.571
146.538
146.305
146.271
145.31
145.275
143.671
143.636
141.548
141.513
139.136
139.102
136.62
136.587
134.131
134.1
131.745
131.715
129.46
129.431
127.241
127.214
125.049
125.022
122.85
122.823
120.624
120.599
118.367
118.343
116.082
116.058
113.775
113.752
111.456
111.433
109.133
109.111
106.815
106.793
104.508
104.486
102.217
102.196
99.9458
99.9256
97.6978
97.6781
95.4737
95.4544
93.2736
93.2549
91.0973
91.079
88.9437
88.9259
86.812
86.7946
84.701
84.6841
82.6101
82.5935
80.5382
80.522
78.4843
78.4686
76.4474
76.4321
74.4264
74.4114
72.4196
72.405
70.4255
70.4112
68.4422
68.4283
66.4678
66.4543
64.5003
64.4871
62.5375
62.5247
60.5771
60.5647
58.617
58.6048
56.6544
56.6426
54.6869
54.6754
52.7115
52.7003
50.725
50.7142
48.724
48.7134
46.7043
46.6941
44.6614
44.6515
42.5898
42.5802
40.4833
40.4741
38.3344
38.3255
36.134
36.1255
33.8712
33.863
31.532
31.5242
29.0987
29.0912
26.5477
26.5406
23.8467
23.84
20.9507
20.9445
17.794
17.7883
14.2821
14.277
10.3006
10.2962
5.89134
5.88816
2.03307
2.03167
0.298652
0.298424
0.0104772
0.0104686
22.8865
22.8865
22.9149
22.9149
22.5279
22.5279
22.032
22.032
21.5045
21.5045
20.9771
20.9771
20.462
20.462
19.964
19.964
19.4843
19.4843
19.023
19.023
18.5795
18.5795
18.1532
18.1532
17.7433
17.7433
17.3489
17.3489
16.9692
16.9693
16.6036
16.6036
16.251
16.251
15.9107
15.9107
15.5819
15.5819
15.2641
15.2641
14.9566
14.9566
14.6591
14.6591
14.3711
14.3711
14.0926
14.0927
13.8235
13.8235
13.5636
13.5636
13.3129
13.313
13.0714
13.0714
12.8388
12.8388
12.6149
12.6149
12.3993
12.3993
12.1917
12.1917
11.9917
11.9917
11.7991
11.7991
11.6136
11.6137
11.4353
11.4353
11.264
11.264
11.0998
11.0998
10.9427
10.9428
10.7929
10.793
10.6504
10.6504
10.5152
10.5152
10.3874
10.3874
10.267
10.267
10.154
10.154
10.0486
10.0486
9.95083
9.95083
9.86083
9.86083
9.77878
9.77878
9.70485
9.70485
9.63922
9.63922
9.58199
9.58199
9.53318
9.53319
9.49269
9.49269
9.46027
9.46027
9.43561
9.43561
9.41838
9.41838
9.40832
9.40831
9.40522
9.40521
9.40905
9.40905
9.42002
9.42001
9.4385
9.4385
9.46506
9.46506
9.50038
9.50037
9.5452
9.54519
9.60026
9.60025
9.66621
9.6662
9.74356
9.74354
9.83266
9.83264
9.93367
9.93364
10.0466
10.0466
10.1717
10.1716
10.3089
10.3088
10.4586
10.4585
10.6211
10.621
10.7966
10.7965
10.9849
10.9848
11.1851
11.185
11.3956
11.3954
11.6135
11.6133
11.8356
11.8353
12.0585
12.0583
12.2797
12.2795
12.4983
12.4982
12.7155
12.7155
12.934
12.934
13.1579
13.1579
13.3922
13.3922
13.641
13.641
13.9064
13.9064
14.1878
14.1878
14.4803
14.4804
14.7765
14.7767
15.0674
15.0678
15.3431
15.3437
15.594
15.5947
15.8122
15.8128
15.9933
15.994
16.1365
16.1371
16.244
16.2445
16.3208
16.3212
16.3738
16.3741
16.4109
16.4112
16.4404
16.4407
16.4699
16.4702
16.5063
16.5064
16.555
16.5551
16.6202
16.6203
16.7051
16.7051
16.8113
16.8113
16.9402
16.9401
17.0918
17.0917
17.266
17.2658
17.4619
17.4617
17.6785
17.6782
17.9139
17.9135
18.166
18.1655
18.4319
18.4314
18.7083
18.7077
18.9911
18.9904
19.2756
19.2748
19.5565
19.5555
19.828
19.827
20.0844
20.0833
20.3202
20.319
20.5305
20.5292
20.7118
20.7106
20.8623
20.8612
20.9826
20.9819
21.0761
21.0758
21.1483
21.1483
21.2069
21.2071
21.2614
21.2617
21.3219
21.3222
21.3979
21.3981
21.4971
21.4972
21.6247
21.6247
21.7814
21.7813
21.9643
21.9642
22.1671
22.167
22.3808
22.3807
22.5949
22.595
22.7989
22.7992
22.9837
22.9845
23.1426
23.1438
23.2714
23.2729
23.3687
23.3704
23.4366
23.4384
23.4794
23.4811
23.503
23.5046
23.5142
23.5157
23.5203
23.5217
23.528
23.5293
23.5434
23.5446
23.5716
23.5727
23.6169
23.6179
23.6825
23.6833
23.7706
23.7714
23.883
23.8836
24.0206
24.0212
24.184
24.1846
24.3734
24.3739
24.5884
24.5888
24.8283
24.8287
25.0923
25.0926
25.3791
25.3794
25.6873
25.6876
26.0154
26.0156
26.362
26.3621
26.7257
26.7258
27.1057
27.1058
27.5014
27.5015
27.913
27.9131
28.3411
28.3411
28.7866
28.7866
29.2509
29.2509
29.7357
29.7357
30.2425
30.2425
30.7726
30.7726
31.3273
31.3273
31.9072
31.9071
32.5125
32.5124
33.143
33.143
33.7981
33.798
34.4766
34.4765
35.1776
35.1775
35.9001
35.9
36.6442
36.6441
37.4107
37.4106
38.2022
38.2021
39.0224
39.0223
39.8766
39.8764
40.7697
40.7696
41.7065
41.7064
42.6897
42.6895
43.7192
43.7191
44.7911
44.7909
45.8989
45.8987
47.0343
47.0342
48.1887
48.1886
49.3551
49.3551
50.529
50.529
51.7097
51.7098
52.9003
52.9004
54.1069
54.1071
55.338
55.3382
56.6027
56.6029
57.9098
57.9101
59.2668
59.2671
60.6789
60.6793
62.1494
62.1498
63.6789
63.6794
65.2669
65.2674
66.9116
66.9122
68.6116
68.6123
70.3657
70.3664
72.1739
72.1747
74.0378
74.0387
75.9598
75.9607
77.9428
77.9438
79.9897
79.9908
82.101
82.1022
84.2742
84.2755
86.5032
86.5047
88.7779
88.7795
91.0843
91.0862
93.406
93.408
95.725
95.7274
98.0241
98.0269
100.288
100.291
102.503
102.507
104.661
104.666
106.757
106.763
108.789
108.796
110.76
110.768
112.675
112.684
114.541
114.552
116.372
116.385
118.183
118.196
119.991
120.006
121.82
121.836
123.692
123.71
125.633
125.651
127.661
127.68
129.793
129.812
132.029
132.049
134.352
134.373
136.723
136.746
139.079
139.102
141.323
141.348
143.333
143.361
144.967
144.997
146.078
146.11
146.538
146.572
146.271
146.305
145.275
145.31
143.636
143.671
141.513
141.548
139.102
139.136
136.587
136.62
134.1
134.132
131.715
131.746
129.431
129.46
127.214
127.242
125.022
125.05
122.824
122.85
120.599
120.625
118.343
118.368
116.058
116.082
113.752
113.775
111.433
111.456
109.111
109.133
106.793
106.815
104.487
104.508
102.196
102.217
99.9258
99.9462
97.6783
97.6982
95.4547
95.474
93.2551
93.274
91.0792
91.0976
88.9261
88.9441
86.7948
86.8123
84.6843
84.7014
82.5937
82.6104
80.5222
80.5385
78.4687
78.4846
76.4323
76.4478
74.4116
74.4267
72.4051
72.4199
70.4114
70.4257
68.4285
68.4425
66.4545
66.4681
64.4873
64.5006
62.5248
62.5377
60.5648
60.5774
58.6049
58.6172
56.6427
56.6547
54.6755
54.6871
52.7004
52.7117
50.7143
50.7252
48.7135
48.7241
46.6941
46.7045
44.6516
44.6615
42.5803
42.59
40.4742
40.4835
38.3256
38.3346
36.1255
36.1342
33.863
33.8714
31.5242
31.5322
29.0913
29.0988
26.5406
26.5478
23.8401
23.8468
20.9445
20.9508
17.7883
17.7941
14.277
14.2822
10.2963
10.3007
5.88817
5.89138
2.03167
2.03309
0.298425
0.298654
0.0104686
0.0104773
)
;

boundaryField
{
    walls
    {
        type            kqRWallFunction;
        value           nonuniform List<scalar> 8(0.0104834 0.0104752 0.0104752 0.0104834 0.0104772 0.0104686 0.0104686 0.0104773);
    }
    inlet
    {
        type            cyclic;
    }
    outlet
    {
        type            cyclic;
    }
    sides
    {
        type            empty;
    }
}


// ************************************************************************* //
