/*--------------------------------*- C++ -*----------------------------------*\
| =========                 |                                                 |
| \\      /  F ield         | OpenFOAM: The Open Source CFD Toolbox           |
|  \\    /   O peration     | Version:  2012                                  |
|   \\  /    A nd           | Website:  www.openfoam.com                      |
|    \\/     M anipulation  |                                                 |
\*---------------------------------------------------------------------------*/
FoamFile
{
    version     2.0;
    format      ascii;
    class       volScalarField;
    location    "11500";
    object      nut;
}
// * * * * * * * * * * * * * * * * * * * * * * * * * * * * * * * * * * * * * //

dimensions      [0 2 -1 0 0 0 0];


internalField   nonuniform List<scalar> 
2560
(
6.8781e-09
6.87273e-09
1.13078e-06
1.12996e-06
2.31992e-05
2.31832e-05
0.00014351
0.000143433
0.00041534
0.000415175
0.000808802
0.00080855
0.00128733
0.00128699
0.00182936
0.00182894
0.0024225
0.002422
0.00305904
0.00305845
0.00373375
0.00373307
0.00444287
0.00444211
0.00518354
0.00518269
0.00595349
0.00595254
0.00675087
0.00674984
0.00757413
0.007573
0.00842194
0.00842072
0.00929313
0.00929181
0.0101867
0.0101852
0.0111016
0.0111001
0.0120371
0.0120354
0.0129922
0.0129905
0.0139663
0.0139645
0.0149587
0.0149567
0.0159686
0.0159665
0.0169953
0.0169931
0.0180382
0.0180359
0.0190968
0.0190943
0.0201703
0.0201677
0.0212582
0.0212555
0.0223598
0.0223571
0.0234747
0.0234718
0.0246022
0.0245992
0.0257417
0.0257385
0.0268925
0.0268892
0.028054
0.0280505
0.0292254
0.0292218
0.0304061
0.0304024
0.0315954
0.0315915
0.0327925
0.0327885
0.0339968
0.0339926
0.0352075
0.0352032
0.0364239
0.0364195
0.0376453
0.0376408
0.0388707
0.038866
0.0400991
0.0400943
0.0413291
0.0413242
0.0425593
0.0425542
0.0437878
0.0437826
0.0450128
0.0450075
0.0462322
0.0462267
0.0474437
0.0474381
0.0486453
0.0486395
0.0498352
0.0498292
0.0510124
0.0510062
0.0521778
0.0521715
0.0533347
0.0533282
0.0544892
0.0544825
0.0556483
0.0556414
0.0568177
0.0568105
0.0579958
0.0579885
0.0591665
0.059159
0.0603022
0.0602946
0.0613666
0.0613588
0.0623219
0.0623142
0.0631385
0.0631309
0.0638006
0.0637933
0.064309
0.0643019
0.0646785
0.0646718
0.0649336
0.0649273
0.0651034
0.0650974
0.0652167
0.0652111
0.0652991
0.0652937
0.0653713
0.0653661
0.0654481
0.0654431
0.0655391
0.0655342
0.0656489
0.0656441
0.0657782
0.0657735
0.0659239
0.0659193
0.0660812
0.0660768
0.0662443
0.0662401
0.0664069
0.066403
0.066563
0.0665595
0.0667073
0.0667041
0.0668347
0.0668319
0.0669413
0.0669388
0.0670235
0.0670213
0.0670787
0.0670768
0.067105
0.0671033
0.0671014
0.0670999
0.0670681
0.0670667
0.0670063
0.0670051
0.0669188
0.0669176
0.0668094
0.0668083
0.0666831
0.0666821
0.0665455
0.0665445
0.0664021
0.0664012
0.0662583
0.0662574
0.0661181
0.0661173
0.0659846
0.0659838
0.0658596
0.0658588
0.0657437
0.0657429
0.0656366
0.0656359
0.0655381
0.0655374
0.0654478
0.0654471
0.0653659
0.0653653
0.0652934
0.0652928
0.0652316
0.065231
0.0651824
0.0651817
0.0651475
0.0651469
0.0651285
0.0651279
0.0651264
0.0651258
0.0651406
0.0651401
0.0651695
0.065169
0.0652101
0.0652096
0.0652581
0.0652576
0.0653088
0.0653084
0.0653576
0.0653571
0.0654006
0.0654002
0.0654359
0.0654355
0.0654638
0.0654634
0.065487
0.0654867
0.0655104
0.0655101
0.0655403
0.06554
0.0655834
0.0655831
0.0656455
0.0656452
0.0657312
0.0657309
0.0658421
0.0658418
0.0659779
0.0659776
0.0661366
0.0661363
0.0663153
0.066315
0.0665112
0.0665109
0.0667221
0.0667218
0.0669468
0.0669465
0.0671854
0.0671851
0.0674391
0.0674388
0.0677096
0.0677093
0.0679991
0.0679988
0.0683098
0.0683094
0.0686436
0.0686432
0.0690021
0.0690017
0.0693864
0.069386
0.0697972
0.0697968
0.0702346
0.0702342
0.0706984
0.0706979
0.0711881
0.0711875
0.0717029
0.0717024
0.0722426
0.0722419
0.0728068
0.0728061
0.073396
0.0733953
0.0740113
0.0740106
0.0746545
0.0746537
0.0753279
0.0753271
0.0760347
0.0760337
0.076778
0.076777
0.0775615
0.0775604
0.0783885
0.0783873
0.0792623
0.0792609
0.0801854
0.080184
0.0811602
0.0811586
0.0821881
0.0821864
0.0832699
0.083268
0.0844053
0.0844033
0.0855932
0.085591
0.086831
0.0868286
0.0881146
0.0881121
0.0894383
0.0894355
0.0907942
0.0907913
0.0921725
0.0921694
0.0935614
0.0935581
0.0949476
0.0949441
0.0963168
0.0963132
0.0976551
0.0976514
0.0989501
0.0989466
0.100193
0.100189
0.101378
0.101375
0.102507
0.102506
0.10359
0.103589
0.104639
0.104638
0.105674
0.105674
0.106719
0.106719
0.107798
0.107798
0.108933
0.108932
0.11014
0.11014
0.111427
0.111427
0.112795
0.112794
0.114229
0.114228
0.11571
0.115709
0.117213
0.117212
0.118711
0.118711
0.120177
0.120178
0.121592
0.121593
0.122937
0.12294
0.124204
0.124207
0.125388
0.125391
0.126493
0.126496
0.127527
0.12753
0.128503
0.128506
0.129437
0.129439
0.130345
0.130347
0.131246
0.131248
0.132157
0.132158
0.133095
0.133097
0.134076
0.134077
0.135114
0.135115
0.136221
0.136222
0.137408
0.137408
0.138684
0.138684
0.140056
0.140056
0.14153
0.141529
0.143108
0.143108
0.144793
0.144793
0.14658
0.14658
0.148463
0.148462
0.150429
0.150428
0.152459
0.152458
0.154529
0.154527
0.156607
0.156606
0.158659
0.158657
0.160644
0.160642
0.162525
0.162523
0.164267
0.164265
0.165843
0.16584
0.167237
0.167235
0.168451
0.168448
0.169499
0.169497
0.170419
0.170418
0.171258
0.171257
0.172068
0.172068
0.172902
0.172901
0.173804
0.173804
0.17481
0.17481
0.175928
0.175928
0.177152
0.177151
0.17846
0.178459
0.179823
0.179823
0.181217
0.181218
0.182626
0.182627
0.184043
0.184044
0.185476
0.185477
0.186946
0.186947
0.188485
0.188485
0.190121
0.190122
0.191886
0.191886
0.1938
0.1938
0.195881
0.195881
0.198139
0.19814
0.200583
0.200583
0.203217
0.203217
0.206048
0.206048
0.209084
0.209084
0.212332
0.212332
0.215801
0.215801
0.219497
0.219496
0.223423
0.223423
0.227583
0.227582
0.231974
0.231974
0.236595
0.236595
0.241443
0.241443
0.246515
0.246515
0.25181
0.251809
0.257326
0.257326
0.263067
0.263067
0.269037
0.269037
0.275241
0.275241
0.281687
0.281687
0.288382
0.288382
0.295333
0.295333
0.302544
0.302543
0.310017
0.310016
0.317751
0.317751
0.325745
0.325745
0.333993
0.333992
0.342489
0.342489
0.351229
0.351229
0.360205
0.360205
0.369412
0.369412
0.378843
0.378843
0.388492
0.388492
0.398351
0.398351
0.408412
0.408412
0.418668
0.418667
0.429108
0.429108
0.439723
0.439723
0.450503
0.450503
0.461438
0.461438
0.472518
0.472518
0.483736
0.483736
0.495082
0.495082
0.506553
0.506553
0.518141
0.518141
0.529841
0.529841
0.541647
0.541647
0.553549
0.553549
0.565538
0.565538
0.5776
0.5776
0.589722
0.589722
0.601889
0.601889
0.614088
0.614088
0.626306
0.626306
0.638534
0.638534
0.650763
0.650763
0.662988
0.662988
0.675204
0.675204
0.687407
0.687407
0.699594
0.699594
0.71176
0.71176
0.723901
0.723901
0.736011
0.736011
0.748082
0.748082
0.760107
0.760107
0.772075
0.772075
0.78397
0.78397
0.795769
0.795769
0.807421
0.807421
0.818823
0.818823
0.829736
0.829736
0.839598
0.839598
0.847088
0.847088
0.846865
0.846865
6.87272e-09
6.87811e-09
1.12996e-06
1.13078e-06
2.31832e-05
2.31992e-05
0.000143433
0.000143511
0.000415175
0.00041534
0.000808549
0.000808803
0.00128699
0.00128733
0.00182894
0.00182936
0.002422
0.0024225
0.00305845
0.00305904
0.00373307
0.00373375
0.00444211
0.00444287
0.00518268
0.00518354
0.00595254
0.00595349
0.00674983
0.00675087
0.007573
0.00757413
0.00842071
0.00842194
0.0092918
0.00929313
0.0101852
0.0101867
0.0111001
0.0111016
0.0120354
0.0120371
0.0129905
0.0129922
0.0139645
0.0139664
0.0149567
0.0149587
0.0159665
0.0159686
0.0169931
0.0169953
0.0180359
0.0180382
0.0190943
0.0190968
0.0201677
0.0201703
0.0212555
0.0212582
0.022357
0.0223599
0.0234718
0.0234747
0.0245992
0.0246022
0.0257385
0.0257417
0.0268892
0.0268925
0.0280505
0.028054
0.0292218
0.0292254
0.0304024
0.0304061
0.0315915
0.0315954
0.0327885
0.0327925
0.0339926
0.0339968
0.0352032
0.0352075
0.0364195
0.0364239
0.0376408
0.0376453
0.038866
0.0388707
0.0400943
0.0400991
0.0413242
0.0413291
0.0425542
0.0425593
0.0437826
0.0437878
0.0450075
0.0450128
0.0462267
0.0462322
0.0474381
0.0474437
0.0486395
0.0486453
0.0498292
0.0498352
0.0510062
0.0510124
0.0521715
0.0521778
0.0533282
0.0533347
0.0544825
0.0544892
0.0556414
0.0556483
0.0568105
0.0568177
0.0579885
0.0579958
0.059159
0.0591665
0.0602946
0.0603022
0.0613588
0.0613666
0.0623142
0.0623219
0.0631309
0.0631385
0.0637932
0.0638006
0.0643019
0.064309
0.0646718
0.0646785
0.0649273
0.0649336
0.0650974
0.0651034
0.065211
0.0652167
0.0652937
0.0652991
0.0653661
0.0653713
0.0654431
0.0654481
0.0655342
0.0655391
0.0656441
0.0656489
0.0657735
0.0657782
0.0659193
0.0659239
0.0660768
0.0660812
0.0662401
0.0662443
0.066403
0.0664069
0.0665595
0.066563
0.0667041
0.0667073
0.0668319
0.0668347
0.0669387
0.0669413
0.0670213
0.0670235
0.0670768
0.0670787
0.0671033
0.067105
0.0670999
0.0671014
0.0670667
0.0670681
0.0670051
0.0670063
0.0669176
0.0669187
0.0668083
0.0668094
0.0666821
0.0666831
0.0665445
0.0665454
0.0664012
0.0664021
0.0662574
0.0662583
0.0661173
0.0661181
0.0659838
0.0659846
0.0658588
0.0658596
0.0657429
0.0657437
0.0656359
0.0656366
0.0655373
0.0655381
0.0654471
0.0654478
0.0653653
0.0653659
0.0652928
0.0652934
0.065231
0.0652316
0.0651817
0.0651823
0.0651469
0.0651475
0.0651279
0.0651285
0.0651258
0.0651264
0.0651401
0.0651406
0.065169
0.0651695
0.0652096
0.0652101
0.0652576
0.0652581
0.0653083
0.0653088
0.0653571
0.0653575
0.0654001
0.0654005
0.0654355
0.0654358
0.0654634
0.0654637
0.0654866
0.0654869
0.0655101
0.0655104
0.06554
0.0655403
0.0655831
0.0655834
0.0656452
0.0656454
0.0657308
0.0657311
0.0658418
0.0658421
0.0659775
0.0659778
0.0661362
0.0661365
0.0663149
0.0663153
0.0665108
0.0665111
0.0667217
0.066722
0.0669464
0.0669467
0.067185
0.0671854
0.0674387
0.067439
0.0677092
0.0677095
0.0679987
0.067999
0.0683093
0.0683097
0.0686431
0.0686435
0.0690015
0.069002
0.0693858
0.0693863
0.0697966
0.0697971
0.070234
0.0702345
0.0706978
0.0706983
0.0711874
0.0711879
0.0717022
0.0717028
0.0722418
0.0722424
0.0728059
0.0728066
0.0733951
0.0733958
0.0740104
0.0740111
0.0746535
0.0746543
0.0753269
0.0753278
0.0760335
0.0760345
0.0767768
0.0767779
0.0775602
0.0775613
0.0783871
0.0783883
0.0792607
0.079262
0.0801837
0.0801852
0.0811584
0.08116
0.0821861
0.0821879
0.0832677
0.0832696
0.084403
0.0844051
0.0855907
0.085593
0.0868283
0.0868307
0.0881117
0.0881144
0.0894352
0.089438
0.0907909
0.0907939
0.092169
0.0921722
0.0935577
0.0935612
0.0949437
0.0949473
0.0963128
0.0963165
0.0976511
0.0976548
0.0989462
0.0989499
0.100189
0.100192
0.101375
0.101378
0.102505
0.102507
0.103588
0.103589
0.104638
0.104638
0.105673
0.105673
0.106718
0.106718
0.107797
0.107797
0.108932
0.108932
0.110139
0.110139
0.111426
0.111427
0.112793
0.112794
0.114227
0.114228
0.115708
0.115709
0.117211
0.117212
0.11871
0.11871
0.120177
0.120177
0.121593
0.121591
0.122939
0.122936
0.124206
0.124203
0.125391
0.125387
0.126495
0.126492
0.127529
0.127526
0.128505
0.128503
0.129439
0.129436
0.130347
0.130344
0.131247
0.131245
0.132158
0.132157
0.133096
0.133095
0.134077
0.134076
0.135114
0.135114
0.136221
0.13622
0.137408
0.137407
0.138683
0.138683
0.140055
0.140055
0.141528
0.141529
0.143107
0.143107
0.144791
0.144792
0.146578
0.146579
0.148461
0.148462
0.150426
0.150427
0.152456
0.152457
0.154525
0.154527
0.156604
0.156606
0.158655
0.158657
0.160641
0.160643
0.162521
0.162524
0.164263
0.164266
0.165839
0.165842
0.167234
0.167237
0.168447
0.168451
0.169497
0.1695
0.170418
0.17042
0.171257
0.171259
0.172068
0.172069
0.172902
0.172902
0.173804
0.173805
0.174809
0.17481
0.175927
0.175928
0.177151
0.177151
0.178458
0.178459
0.179822
0.179823
0.181217
0.181217
0.182626
0.182625
0.184044
0.184042
0.185477
0.185475
0.186948
0.186946
0.188486
0.188485
0.190122
0.190122
0.191886
0.191886
0.193801
0.1938
0.195881
0.195881
0.19814
0.198139
0.200583
0.200583
0.203217
0.203217
0.206048
0.206048
0.209083
0.209084
0.212332
0.212332
0.2158
0.2158
0.219496
0.219496
0.223422
0.223423
0.227582
0.227582
0.231973
0.231973
0.236594
0.236595
0.241442
0.241443
0.246515
0.246515
0.251809
0.251809
0.257326
0.257326
0.263067
0.263067
0.269037
0.269037
0.275241
0.275241
0.281687
0.281687
0.288382
0.288383
0.295333
0.295333
0.302543
0.302544
0.310016
0.310017
0.317751
0.317751
0.325744
0.325745
0.333992
0.333993
0.342489
0.342489
0.351228
0.351229
0.360205
0.360205
0.369412
0.369412
0.378843
0.378843
0.388491
0.388492
0.39835
0.398351
0.408412
0.408412
0.418667
0.418667
0.429107
0.429108
0.439722
0.439723
0.450503
0.450503
0.461438
0.461438
0.472518
0.472518
0.483735
0.483736
0.495082
0.495082
0.506552
0.506553
0.51814
0.518141
0.529841
0.529841
0.541646
0.541647
0.553549
0.553549
0.565537
0.565538
0.5776
0.5776
0.589721
0.589722
0.601888
0.601889
0.614087
0.614087
0.626305
0.626306
0.638533
0.638533
0.650762
0.650763
0.662987
0.662988
0.675203
0.675204
0.687406
0.687407
0.699593
0.699594
0.711759
0.71176
0.7239
0.7239
0.736009
0.736009
0.74808
0.74808
0.760104
0.760104
0.77207
0.772071
0.783965
0.783965
0.795762
0.795762
0.807412
0.807412
0.818811
0.818811
0.829721
0.829721
0.839581
0.839581
0.84707
0.847069
0.846849
0.846849
0.846865
0.846865
0.84709
0.84709
0.839603
0.839603
0.829741
0.829741
0.818829
0.818829
0.807428
0.807428
0.795777
0.795777
0.783979
0.783979
0.772084
0.772084
0.760116
0.760116
0.748092
0.748092
0.736021
0.736021
0.723912
0.723912
0.711771
0.711771
0.699605
0.699605
0.687419
0.687419
0.675217
0.675217
0.663002
0.663002
0.650777
0.650777
0.638548
0.638548
0.626321
0.626321
0.614103
0.614103
0.601905
0.601905
0.589739
0.589739
0.577618
0.577618
0.565556
0.565556
0.553568
0.553568
0.541666
0.541666
0.52986
0.52986
0.51816
0.51816
0.506573
0.506573
0.495103
0.495103
0.483757
0.483757
0.47254
0.47254
0.461459
0.461459
0.450524
0.450523
0.439743
0.439743
0.429127
0.429127
0.418687
0.418687
0.408431
0.408431
0.39837
0.39837
0.388511
0.38851
0.378862
0.378861
0.36943
0.36943
0.360223
0.360222
0.351246
0.351246
0.342506
0.342505
0.334008
0.334008
0.32576
0.32576
0.317766
0.317765
0.31003
0.31003
0.302557
0.302557
0.295345
0.295345
0.288394
0.288394
0.281698
0.281698
0.275251
0.275251
0.269046
0.269046
0.263076
0.263075
0.257334
0.257334
0.251816
0.251816
0.246521
0.24652
0.241447
0.241447
0.236598
0.236598
0.231976
0.231976
0.227584
0.227584
0.223424
0.223424
0.219497
0.219497
0.215801
0.2158
0.212331
0.212331
0.209082
0.209082
0.206046
0.206046
0.203214
0.203214
0.200579
0.200579
0.198136
0.198136
0.195877
0.195877
0.193795
0.193796
0.19188
0.191881
0.190116
0.190117
0.188479
0.18848
0.186941
0.186942
0.185471
0.185472
0.184039
0.18404
0.182623
0.182624
0.181215
0.181216
0.179822
0.179822
0.178459
0.178458
0.177152
0.177151
0.175928
0.175928
0.174811
0.17481
0.173805
0.173805
0.172903
0.172903
0.17207
0.17207
0.171261
0.17126
0.170423
0.170421
0.169504
0.169502
0.168456
0.168453
0.167243
0.16724
0.165849
0.165846
0.164273
0.16427
0.162531
0.162528
0.16065
0.160648
0.158664
0.158662
0.156613
0.156611
0.154534
0.154533
0.152464
0.152463
0.150434
0.150433
0.148468
0.148467
0.146585
0.146585
0.144798
0.144797
0.143113
0.143113
0.141534
0.141534
0.14006
0.14006
0.138688
0.138688
0.137412
0.137412
0.136224
0.136225
0.135117
0.135118
0.134079
0.13408
0.133098
0.133099
0.13216
0.132161
0.131248
0.13125
0.130347
0.130349
0.129439
0.129441
0.128505
0.128508
0.127529
0.127532
0.126495
0.126498
0.12539
0.125393
0.124205
0.124209
0.122938
0.122941
0.121593
0.121595
0.120178
0.120179
0.118711
0.118711
0.117213
0.117212
0.11571
0.115709
0.114229
0.114228
0.112795
0.112794
0.111427
0.111427
0.11014
0.110139
0.108932
0.108932
0.107797
0.107797
0.106718
0.106718
0.105673
0.105673
0.104638
0.104638
0.103589
0.103588
0.102507
0.102505
0.101378
0.101375
0.100192
0.100189
0.09895
0.0989462
0.0976548
0.0976509
0.0963163
0.0963125
0.094947
0.0949433
0.0935607
0.0935572
0.0921717
0.0921684
0.0907933
0.0907901
0.0894372
0.0894343
0.0881134
0.0881107
0.0868296
0.0868271
0.0855917
0.0855893
0.0844036
0.0844015
0.083268
0.083266
0.082186
0.0821842
0.0811579
0.0811562
0.0801829
0.0801814
0.0792596
0.0792582
0.0783856
0.0783844
0.0775584
0.0775572
0.0767747
0.0767736
0.0760311
0.0760301
0.0753241
0.0753232
0.0746504
0.0746496
0.074007
0.0740062
0.0733914
0.0733906
0.0728019
0.0728012
0.0722374
0.0722367
0.0716975
0.0716969
0.0711823
0.0711817
0.0706924
0.0706919
0.0702284
0.0702279
0.0697907
0.0697902
0.0693797
0.0693793
0.0689952
0.0689947
0.0686365
0.0686361
0.0683026
0.0683022
0.0679917
0.0679913
0.067702
0.0677017
0.0674313
0.067431
0.0671774
0.067177
0.0669384
0.0669381
0.0667134
0.0667131
0.0665023
0.066502
0.0663062
0.0663058
0.0661272
0.0661269
0.0659683
0.065968
0.0658324
0.0658321
0.0657213
0.065721
0.0656354
0.0656351
0.0655731
0.0655729
0.0655299
0.0655296
0.0654999
0.0654996
0.0654764
0.065476
0.065453
0.0654527
0.065425
0.0654247
0.0653896
0.0653892
0.0653465
0.0653461
0.0652977
0.0652973
0.065247
0.0652465
0.0651989
0.0651984
0.0651583
0.0651577
0.0651292
0.0651287
0.0651149
0.0651143
0.0651169
0.0651163
0.0651358
0.0651352
0.0651705
0.0651699
0.0652197
0.0652191
0.0652814
0.0652808
0.0653539
0.0653532
0.0654356
0.0654349
0.0655258
0.0655251
0.0656243
0.0656235
0.0657313
0.0657305
0.0658471
0.0658463
0.0659721
0.0659713
0.0661055
0.0661047
0.0662456
0.0662448
0.0663894
0.0663885
0.0665327
0.0665317
0.0666702
0.0666692
0.0667965
0.0667954
0.0669059
0.0669048
0.0669936
0.0669923
0.0670555
0.0670541
0.0670889
0.0670874
0.0670926
0.0670908
0.0670662
0.0670642
0.0670109
0.0670085
0.0669285
0.0669259
0.0668218
0.0668188
0.0666942
0.0666909
0.0665498
0.0665461
0.0663935
0.0663894
0.0662307
0.0662263
0.0660675
0.0660628
0.06591
0.0659051
0.0657642
0.0657591
0.0656347
0.0656296
0.0655248
0.0655195
0.0654337
0.0654283
0.0653568
0.0653512
0.0652845
0.0652788
0.0652021
0.0651961
0.0650888
0.0650824
0.064919
0.0649123
0.0646641
0.0646569
0.0642949
0.0642874
0.0637869
0.063779
0.0631251
0.0631169
0.0623087
0.0623005
0.0613535
0.0613453
0.0602893
0.0602811
0.0591537
0.0591457
0.0579833
0.0579755
0.0568053
0.0567977
0.0556362
0.0556288
0.0544772
0.05447
0.0533229
0.053316
0.0521662
0.0521595
0.0510011
0.0509945
0.0498242
0.0498178
0.0486347
0.0486285
0.0474335
0.0474275
0.0462223
0.0462164
0.0450033
0.0449975
0.0437786
0.043773
0.0425503
0.0425449
0.0413205
0.0413152
0.0400908
0.0400857
0.0388627
0.0388577
0.0376376
0.0376328
0.0364165
0.0364119
0.0352004
0.0351958
0.03399
0.0339856
0.032786
0.0327817
0.0315891
0.031585
0.0304001
0.0303962
0.0292197
0.0292159
0.0280485
0.0280448
0.0268873
0.0268837
0.0257367
0.0257333
0.0245975
0.0245942
0.0234702
0.0234671
0.0223556
0.0223526
0.0212541
0.0212513
0.0201664
0.0201637
0.0190931
0.0190905
0.0180348
0.0180324
0.0169921
0.0169897
0.0159655
0.0159633
0.0149559
0.0149538
0.0139637
0.0139618
0.0129898
0.0129879
0.0120348
0.0120331
0.0110995
0.0110979
0.0101847
0.0101832
0.00929136
0.00928996
0.00842033
0.00841903
0.00757267
0.00757147
0.00674955
0.00674845
0.00595231
0.00595131
0.0051825
0.00518159
0.00444196
0.00444115
0.00373296
0.00373225
0.00305837
0.00305774
0.00242195
0.00242141
0.00182891
0.00182847
0.00128699
0.00128663
0.000808555
0.000808288
0.000415186
0.000415012
0.000143442
0.00014336
2.31855e-05
2.31687e-05
1.13009e-06
1.12921e-06
6.87402e-09
6.86834e-09
0.84685
0.84685
0.847072
0.847072
0.839586
0.839586
0.829726
0.829726
0.818817
0.818817
0.807419
0.807419
0.795769
0.79577
0.783974
0.783974
0.77208
0.77208
0.760113
0.760114
0.748089
0.74809
0.736019
0.736019
0.72391
0.723911
0.71177
0.71177
0.699604
0.699605
0.687419
0.687419
0.675216
0.675217
0.663001
0.663001
0.650777
0.650777
0.638547
0.638548
0.62632
0.62632
0.614103
0.614103
0.601905
0.601905
0.589738
0.589739
0.577617
0.577618
0.565556
0.565556
0.553567
0.553568
0.541665
0.541665
0.52986
0.52986
0.51816
0.51816
0.506572
0.506573
0.495103
0.495103
0.483756
0.483757
0.472539
0.47254
0.461458
0.461459
0.450523
0.450523
0.439742
0.439743
0.429127
0.429127
0.418686
0.418687
0.408431
0.408431
0.398369
0.39837
0.38851
0.38851
0.378861
0.378861
0.369429
0.36943
0.360222
0.360222
0.351245
0.351246
0.342505
0.342505
0.334008
0.334008
0.325759
0.32576
0.317765
0.317766
0.31003
0.310031
0.302557
0.302557
0.295345
0.295346
0.288394
0.288394
0.281698
0.281698
0.275251
0.275251
0.269046
0.269046
0.263075
0.263076
0.257333
0.257334
0.251815
0.251816
0.24652
0.24652
0.241446
0.241447
0.236597
0.236598
0.231975
0.231976
0.227583
0.227584
0.223423
0.223424
0.219496
0.219496
0.2158
0.2158
0.212331
0.212331
0.209082
0.209082
0.206045
0.206046
0.203214
0.203214
0.200579
0.200579
0.198136
0.198136
0.195877
0.195877
0.193796
0.193795
0.191881
0.191881
0.190117
0.190116
0.18848
0.188479
0.186942
0.186941
0.185472
0.185471
0.18404
0.184038
0.182623
0.182622
0.181215
0.181214
0.179821
0.179821
0.178458
0.178458
0.17715
0.177151
0.175927
0.175928
0.17481
0.174811
0.173805
0.173806
0.172903
0.172904
0.17207
0.172071
0.17126
0.171262
0.170421
0.170424
0.169501
0.169505
0.168453
0.168457
0.167239
0.167243
0.165845
0.165848
0.164269
0.164272
0.162527
0.16253
0.160646
0.160648
0.15866
0.158663
0.156609
0.156611
0.154531
0.154533
0.152461
0.152463
0.150431
0.150432
0.148466
0.148467
0.146583
0.146584
0.144796
0.144797
0.143112
0.143112
0.141533
0.141533
0.140059
0.140059
0.138687
0.138687
0.137411
0.137411
0.136225
0.136224
0.135118
0.135117
0.13408
0.134079
0.133099
0.133098
0.132161
0.132159
0.13125
0.131248
0.130349
0.130347
0.129441
0.129438
0.128507
0.128505
0.127531
0.127528
0.126497
0.126494
0.125392
0.125389
0.124208
0.124205
0.122941
0.122938
0.121594
0.121592
0.120178
0.120177
0.11871
0.11871
0.117212
0.117212
0.115708
0.115709
0.114227
0.114228
0.112793
0.112794
0.111426
0.111427
0.110139
0.110139
0.108932
0.108932
0.107797
0.107797
0.106718
0.106718
0.105673
0.105673
0.104637
0.104638
0.103588
0.103589
0.102505
0.102507
0.101374
0.101377
0.100189
0.100192
0.0989458
0.0989497
0.0976505
0.0976545
0.0963121
0.0963161
0.0949429
0.0949468
0.0935568
0.0935605
0.092168
0.0921715
0.0907898
0.090793
0.089434
0.089437
0.0881104
0.0881132
0.0868268
0.0868294
0.0855891
0.0855914
0.0844012
0.0844034
0.0832657
0.0832677
0.0821839
0.0821858
0.081156
0.0811577
0.0801812
0.0801827
0.0792579
0.0792594
0.0783842
0.0783855
0.077557
0.0775582
0.0767734
0.0767745
0.0760299
0.076031
0.075323
0.075324
0.0746494
0.0746503
0.074006
0.0740068
0.0733905
0.0733913
0.072801
0.0728017
0.0722366
0.0722372
0.0716967
0.0716973
0.0711816
0.0711822
0.0706917
0.0706923
0.0702277
0.0702283
0.0697901
0.0697906
0.0693792
0.0693796
0.0689946
0.0689951
0.068636
0.0686364
0.0683021
0.0683025
0.0679913
0.0679916
0.0677016
0.067702
0.0674309
0.0674312
0.0671769
0.0671773
0.066938
0.0669384
0.066713
0.0667134
0.0665019
0.0665023
0.0663058
0.0663061
0.0661268
0.0661272
0.065968
0.0659683
0.065832
0.0658323
0.0657209
0.0657212
0.0656351
0.0656354
0.0655728
0.0655731
0.0655296
0.0655299
0.0654996
0.0654999
0.065476
0.0654763
0.0654527
0.065453
0.0654246
0.065425
0.0653892
0.0653896
0.0653461
0.0653465
0.0652972
0.0652977
0.0652465
0.065247
0.0651984
0.0651989
0.0651577
0.0651583
0.0651287
0.0651293
0.0651143
0.0651149
0.0651163
0.0651169
0.0651351
0.0651358
0.0651699
0.0651706
0.0652191
0.0652197
0.0652808
0.0652814
0.0653532
0.0653539
0.0654349
0.0654356
0.0655251
0.0655258
0.0656235
0.0656243
0.0657305
0.0657313
0.0658463
0.0658472
0.0659713
0.0659721
0.0661047
0.0661056
0.0662448
0.0662457
0.0663885
0.0663895
0.0665317
0.0665327
0.0666692
0.0666703
0.0667954
0.0667966
0.0669048
0.066906
0.0669923
0.0669936
0.0670541
0.0670555
0.0670874
0.067089
0.0670908
0.0670926
0.0670642
0.0670662
0.0670085
0.0670109
0.0669259
0.0669286
0.0668188
0.0668219
0.0666909
0.0666943
0.0665461
0.0665499
0.0663894
0.0663935
0.0662263
0.0662308
0.0660628
0.0660675
0.0659051
0.0659101
0.0657591
0.0657643
0.0656296
0.0656348
0.0655196
0.0655249
0.0654284
0.0654338
0.0653513
0.0653568
0.0652788
0.0652846
0.0651961
0.0652022
0.0650824
0.0650889
0.0649123
0.0649191
0.0646569
0.0646642
0.0642874
0.064295
0.063779
0.063787
0.063117
0.0631251
0.0623005
0.0623088
0.0613453
0.0613536
0.0602811
0.0602894
0.0591457
0.0591538
0.0579755
0.0579834
0.0567977
0.0568054
0.0556288
0.0556362
0.05447
0.0544773
0.053316
0.053323
0.0521595
0.0521663
0.0509946
0.0510012
0.0498178
0.0498243
0.0486285
0.0486348
0.0474275
0.0474336
0.0462165
0.0462224
0.0449976
0.0450033
0.043773
0.0437786
0.0425449
0.0425504
0.0413153
0.0413206
0.0400857
0.0400909
0.0388578
0.0388628
0.0376328
0.0376377
0.0364119
0.0364166
0.0351959
0.0352004
0.0339856
0.03399
0.0327818
0.032786
0.0315851
0.0315892
0.0303962
0.0304002
0.0292159
0.0292197
0.0280449
0.0280486
0.0268838
0.0268873
0.0257333
0.0257368
0.0245943
0.0245975
0.0234671
0.0234703
0.0223526
0.0223556
0.0212513
0.0212541
0.0201637
0.0201665
0.0190906
0.0190932
0.0180324
0.0180348
0.0169898
0.0169921
0.0159634
0.0159656
0.0149538
0.0149559
0.0139618
0.0139638
0.0129879
0.0129898
0.0120331
0.0120348
0.0110979
0.0110995
0.0101832
0.0101848
0.00928997
0.00929138
0.00841904
0.00842035
0.00757148
0.00757269
0.00674846
0.00674957
0.00595132
0.00595232
0.0051816
0.00518251
0.00444115
0.00444197
0.00373225
0.00373297
0.00305775
0.00305838
0.00242142
0.00242195
0.00182847
0.00182892
0.00128663
0.00128699
0.000808289
0.000808558
0.000415012
0.000415188
0.00014336
0.000143443
2.31687e-05
2.31857e-05
1.12922e-06
1.1301e-06
6.86835e-09
6.87407e-09
)
;

boundaryField
{
    walls
    {
        type            nutUWallFunction;
        blending        stepwise;
        Cmu             0.09;
        kappa           0.41;
        E               9.8;
        value           uniform 0;
    }
    inlet
    {
        type            cyclic;
    }
    outlet
    {
        type            cyclic;
    }
    sides
    {
        type            empty;
    }
}


// ************************************************************************* //
