/*--------------------------------*- C++ -*----------------------------------*\
| =========                 |                                                 |
| \\      /  F ield         | OpenFOAM: The Open Source CFD Toolbox           |
|  \\    /   O peration     | Version:  2012                                  |
|   \\  /    A nd           | Website:  www.openfoam.com                      |
|    \\/     M anipulation  |                                                 |
\*---------------------------------------------------------------------------*/
FoamFile
{
    version     2.0;
    format      ascii;
    class       volVectorField;
    location    "11500";
    object      U;
}
// * * * * * * * * * * * * * * * * * * * * * * * * * * * * * * * * * * * * * //

dimensions      [0 1 -1 0 0 0 0];


internalField   nonuniform List<vector> 
2560
(
(0.0271358 -2.60548e-05 0.000491794)
(0.0271043 -1.226e-05 5.5004e-08)
(0.0815466 -1.13224e-05 0.000713959)
(0.0814523 1.7042e-05 1.74062e-08)
(0.136547 -2.46762e-05 0.000530146)
(0.136392 2.75835e-05 6.32838e-09)
(0.192141 -3.41496e-05 0.000286818)
(0.191927 3.39313e-05 2.28776e-09)
(0.248333 -3.75415e-05 0.000152076)
(0.248066 3.7503e-05 5.32235e-10)
(0.305131 -3.95506e-05 9.17446e-05)
(0.304815 3.94996e-05 1.50887e-10)
(0.362501 -4.08928e-05 6.25399e-05)
(0.362142 4.08861e-05 1.31585e-10)
(0.420381 -4.19171e-05 4.64836e-05)
(0.419983 4.18317e-05 2.38694e-11)
(0.478704 -4.26597e-05 3.66657e-05)
(0.478274 4.26853e-05 8.95056e-11)
(0.53747 -4.33462e-05 3.01656e-05)
(0.537012 4.32315e-05 8.4031e-12)
(0.596748 -4.38339e-05 2.55994e-05)
(0.596269 4.38971e-05 8.28643e-11)
(0.656562 -4.43715e-05 2.22441e-05)
(0.656064 4.42302e-05 9.09826e-36)
(0.716934 -4.47368e-05 1.96905e-05)
(0.716423 4.48217e-05 8.79814e-11)
(0.777923 -4.51875e-05 1.76817e-05)
(0.777404 5.85682e-05 5.05937e-08)
(0.839514 -4.55352e-05 1.60952e-05)
(0.83899 1.85451e-05 -9.49628e-21)
(0.901606 -4.56908e-05 1.47704e-05)
(0.90108 0.000100572 1.17949e-07)
(0.964051 -4.65514e-05 1.37211e-05)
(0.963527 -3.87134e-05 7.36722e-10)
(1.0267 -4.60481e-05 1.28166e-05)
(1.02618 0.000135442 4.36214e-08)
(1.08954 -4.73039e-05 1.20598e-05)
(1.08903 -5.18142e-05 9.91874e-10)
(1.15279 -4.62529e-05 1.14024e-05)
(1.15229 0.000149707 4.24517e-08)
(1.21674 -4.81776e-05 1.0845e-05)
(1.21624 -6.48803e-05 6.95919e-10)
(1.28157 -4.63676e-05 1.03511e-05)
(1.28109 0.000163778 4.07187e-08)
(1.3473 -4.90406e-05 9.92907e-06)
(1.34683 -7.78541e-05 -5.82816e-21)
(1.41389 -4.62837e-05 9.52329e-06)
(1.41343 0.000204329 1.50079e-07)
(1.48129 -5.00755e-05 9.22567e-06)
(1.48084 -0.000144184 -3.78369e-21)
(1.5495 -4.61362e-05 8.90153e-06)
(1.54907 0.000274815 1.78005e-07)
(1.61849 -5.13269e-05 8.68375e-06)
(1.61807 -0.000218868 2.09765e-09)
(1.68822 -4.578e-05 8.451e-06)
(1.68782 0.000325007 8.14871e-08)
(1.7586 -5.27076e-05 8.26444e-06)
(1.75821 -0.000244157 4.135e-09)
(1.82957 -4.51332e-05 8.08018e-06)
(1.82919 0.000351654 8.40094e-08)
(1.90112 -5.43116e-05 7.9365e-06)
(1.90075 -0.000270391 3.78766e-09)
(1.97344 -4.41808e-05 7.78896e-06)
(1.97308 0.000378722 7.97841e-08)
(2.04692 -5.62207e-05 7.67717e-06)
(2.04657 -0.00029645 1.71402e-09)
(2.12216 -4.28302e-05 7.55812e-06)
(2.12182 0.000405444 7.40428e-08)
(2.19982 -5.85298e-05 7.47176e-06)
(2.19949 -0.000321951 -4.29475e-21)
(2.28049 -4.10369e-05 7.34066e-06)
(2.28017 0.000462938 2.25836e-07)
(2.36458 -6.13997e-05 7.31611e-06)
(2.36426 -0.000410383 9.10882e-38)
(2.45228 -3.87363e-05 7.08846e-06)
(2.45196 0.00065233 7.4011e-07)
(2.54358 -6.48945e-05 7.21491e-06)
(2.54327 -0.000702574 0)
(2.63836 -3.5849e-05 6.9649e-06)
(2.63805 0.000983013 9.69299e-07)
(2.73651 -6.89952e-05 7.16941e-06)
(2.73619 -0.00107559 -2.83004e-21)
(2.83815 -3.2369e-05 6.9883e-06)
(2.83784 0.00132088 8.17027e-07)
(2.94387 -7.36492e-05 7.17305e-06)
(2.94355 -0.00138107 0)
(3.05486 -2.83035e-05 7.10761e-06)
(3.05454 0.00155421 4.43219e-07)
(3.1729 -7.88363e-05 7.2145e-06)
(3.17257 -0.0015422 -7.30863e-37)
(3.30017 -2.3661e-05 7.20614e-06)
(3.29983 0.001686 2.80074e-07)
(3.43886 -8.46372e-05 7.28625e-06)
(3.43851 -0.00164306 3.95667e-21)
(3.59084 -1.83639e-05 7.27327e-06)
(3.59048 0.00180182 3.63274e-07)
(3.75747 -9.11605e-05 7.38851e-06)
(3.75711 -0.0017726 -2.17122e-37)
(3.93958 -1.23185e-05 6.92245e-06)
(3.93921 0.00225832 2.31258e-06)
(4.13755 -9.79927e-05 7.54194e-06)
(4.13718 -0.00256338 1.19132e-21)
(4.3512 -5.60866e-06 7.36821e-06)
(4.35083 0.002875 1.35048e-06)
(4.57923 -0.000104762 7.77743e-06)
(4.57888 -0.00300562 4.05898e-08)
(4.81827 1.0604e-06 7.8786e-06)
(4.81793 0.00319203 7.85033e-07)
(5.06145 -0.000111536 8.2152e-06)
(5.06115 -0.00319378 1.73929e-07)
(5.29701 6.30062e-06 8.44841e-06)
(5.29677 0.0034142 1.44626e-06)
(5.50745 -0.000118865 9.07877e-06)
(5.50729 -0.00345119 4.16667e-07)
(5.66984 9.02838e-06 9.52521e-06)
(5.66978 0.0037172 2.31712e-06)
(5.75788 -0.000125947 1.05294e-05)
(5.75794 -0.00380723 6.66662e-07)
(5.74565 1.00464e-05 1.11753e-05)
(5.74586 0.00410476 2.81934e-06)
(5.61236 -0.000129872 1.23901e-05)
(5.61275 -0.00423389 7.17541e-07)
(5.34698 1.09059e-05 1.30691e-05)
(5.34757 0.00452181 2.38933e-06)
(4.95144 -0.000128711 1.4119e-05)
(4.95224 -0.00463972 4.54227e-07)
(4.44128 1.10977e-05 1.46191e-05)
(4.44232 0.00487874 1.1378e-06)
(3.84364 -0.000123946 1.52016e-05)
(3.84491 -0.00493655 6.1845e-21)
(3.19293 8.23332e-06 1.54212e-05)
(3.19443 0.0051254 5.11546e-08)
(2.52583 -0.0001183 1.52706e-05)
(2.52755 -0.00497628 1.23953e-06)
(1.87646 1.60869e-06 1.53136e-05)
(1.87837 0.00511348 3.55514e-07)
(1.27296 -0.000113011 1.49322e-05)
(1.27499 -0.00494228 1.93112e-06)
(0.735777 -7.0811e-06 1.49335e-05)
(0.737837 0.00505618 4.50122e-07)
(0.277653 -0.00010794 1.45476e-05)
(0.279631 -0.00489073 2.00723e-06)
(-0.0953709 -1.56561e-05 1.45903e-05)
(-0.093608 0.00500614 4.23472e-07)
(-0.38238 -0.000103023 9.78812e-07)
(-0.380944 -0.00019738 4.76897e-06)
(-0.586038 -2.20905e-05 8.1932e-07)
(-0.584978 0.000275931 4.81581e-07)
(-0.711277 -9.75404e-05 7.75027e-07)
(-0.710606 -0.000113894 1.11434e-06)
(-0.764421 -2.73846e-05 6.23627e-07)
(-0.764132 0.000203669 3.57994e-07)
(-0.752639 -9.26224e-05 5.82306e-07)
(-0.752712 -5.03157e-05 8.51025e-07)
(-0.683593 -3.19258e-05 4.47614e-07)
(-0.684008 0.000149781 2.6332e-07)
(-0.565177 -8.83842e-05 4.11716e-07)
(-0.565909 -6.00033e-06 5.99293e-07)
(-0.405219 -3.58346e-05 2.94237e-07)
(-0.406236 0.000113614 1.80335e-07)
(-0.211249 -8.47501e-05 2.65655e-07)
(-0.212505 2.20214e-05 3.82313e-07)
(0.00974567 -3.92345e-05 1.66683e-07)
(0.00832002 9.20342e-05 1.38338e-07)
(0.251538 -8.15593e-05 1.50044e-07)
(0.250046 3.70712e-05 2.08098e-07)
(0.5088 -4.20974e-05 7.23291e-08)
(0.507325 8.15771e-05 1.90048e-07)
(0.77704 -7.87506e-05 6.6562e-08)
(0.775642 4.307e-05 2.11204e-07)
(1.05246 -4.45176e-05 2.92852e-09)
(1.05118 7.90565e-05 2.32022e-07)
(1.33175 -7.62952e-05 6.56243e-08)
(1.3306 4.25409e-05 2.24191e-07)
(1.61177 -4.65981e-05 8.69233e-08)
(1.61076 7.82083e-05 2.27863e-07)
(1.88934 -7.41943e-05 1.67827e-07)
(1.88846 4.5019e-05 2.36559e-07)
(2.16102 -4.84524e-05 2.18295e-07)
(2.16027 7.5979e-05 2.4095e-07)
(2.42303 -7.24466e-05 3.26083e-07)
(2.42239 4.70976e-05 3.28467e-07)
(2.67121 -5.01546e-05 4.07017e-07)
(2.67068 7.39434e-05 4.05583e-07)
(2.90122 -7.10288e-05 5.3499e-07)
(2.90078 4.88055e-05 5.37293e-07)
(3.10875 -5.17218e-05 6.30294e-07)
(3.10839 7.20795e-05 6.29148e-07)
(3.28986 -6.98381e-05 7.56155e-07)
(3.28957 5.02491e-05 7.58394e-07)
(3.44134 -5.31097e-05 8.3893e-07)
(3.44112 7.04275e-05 8.38057e-07)
(3.561 -6.87919e-05 9.34274e-07)
(3.56084 5.1515e-05 9.36458e-07)
(3.64796 -5.42226e-05 9.79348e-07)
(3.64785 6.90793e-05 9.78725e-07)
(3.70276 -6.77981e-05 1.02691e-06)
(3.70269 5.26984e-05 1.02904e-06)
(3.72737 -5.50804e-05 1.02534e-06)
(3.72734 6.80117e-05 1.02494e-06)
(3.72507 -6.68251e-05 1.02696e-06)
(3.72508 5.38341e-05 1.02903e-06)
(3.70023 -5.5765e-05 9.88852e-07)
(3.70026 6.71398e-05 9.88642e-07)
(3.65797 -6.59149e-05 9.61565e-07)
(3.65803 5.48827e-05 9.63566e-07)
(3.60394 -5.63446e-05 9.08296e-07)
(3.60401 6.63926e-05 9.08257e-07)
(3.54392 -6.51583e-05 8.73293e-07)
(3.54399 5.57558e-05 8.75237e-07)
(3.48358 -5.68766e-05 8.22863e-07)
(3.48365 6.57101e-05 8.22983e-07)
(3.4283 -6.45539e-05 7.94325e-07)
(3.42836 5.64573e-05 7.96228e-07)
(3.38295 -5.73832e-05 7.55484e-07)
(3.38299 6.50674e-05 7.55766e-07)
(3.35179 -6.40545e-05 7.38468e-07)
(3.35182 5.70364e-05 7.40361e-07)
(3.33842 -5.78453e-05 7.13322e-07)
(3.33842 6.44816e-05 7.13782e-07)
(3.34562 -6.36089e-05 7.09395e-07)
(3.3456 5.75462e-05 7.11321e-07)
(3.37532 -5.82227e-05 7.01329e-07)
(3.37528 6.39909e-05 7.02e-07)
(3.4285 -6.32207e-05 7.15562e-07)
(3.42842 5.79844e-05 7.17575e-07)
(3.50506 -5.85253e-05 7.31067e-07)
(3.50496 6.35837e-05 7.31995e-07)
(3.60378 -6.28493e-05 7.73849e-07)
(3.60366 5.83933e-05 7.76015e-07)
(3.72226 -5.88452e-05 8.22079e-07)
(3.72213 6.31665e-05 8.23319e-07)
(3.8569 -6.25549e-05 8.97353e-07)
(3.85677 5.87134e-05 8.99738e-07)
(4.00306 -5.91016e-05 9.81561e-07)
(4.00292 6.28187e-05 9.83166e-07)
(4.15514 -6.23226e-05 1.0926e-06)
(4.15501 5.89608e-05 1.09527e-06)
(4.30694 -5.93104e-05 1.21515e-06)
(4.30682 6.25235e-05 1.21716e-06)
(4.45199 -6.20799e-05 1.3679e-06)
(4.45188 5.92087e-05 1.37088e-06)
(4.58392 -5.94443e-05 1.54052e-06)
(4.58383 6.23069e-05 1.54295e-06)
(4.69698 -6.17907e-05 1.75548e-06)
(4.6969 5.94939e-05 1.7588e-06)
(4.78638 -5.95008e-05 2.00857e-06)
(4.78633 6.21704e-05 2.01141e-06)
(4.84871 -6.14861e-05 2.32482e-06)
(4.84868 5.97859e-05 2.32845e-06)
(4.88213 -5.95314e-05 2.70342e-06)
(4.88211 6.2062e-05 2.70663e-06)
(4.88648 -6.12786e-05 3.16441e-06)
(4.88648 5.99728e-05 3.1683e-06)
(4.86324 -5.96337e-05 3.70306e-06)
(4.86327 6.18831e-05 3.70658e-06)
(4.81532 -6.12783e-05 4.3251e-06)
(4.81536 5.99447e-05 4.3292e-06)
(4.7467 -5.99458e-05 5.00953e-06)
(4.74675 6.14952e-05 5.0133e-06)
(4.66201 -6.15031e-05 5.74296e-06)
(4.66207 5.96842e-05 5.74722e-06)
(4.56613 -6.04887e-05 6.4826e-06)
(4.5662 6.08764e-05 6.48657e-06)
(4.46367 -6.19428e-05 7.19229e-06)
(4.46374 5.9202e-05 7.19668e-06)
(4.35868 -6.10979e-05 7.81586e-06)
(4.35875 6.01905e-05 7.81999e-06)
(4.25433 -6.23398e-05 8.31142e-06)
(4.2544 5.87559e-05 8.31591e-06)
(4.1528 -6.15399e-05 8.62699e-06)
(4.15288 5.96701e-05 8.63127e-06)
(4.05524 -6.24529e-05 8.73567e-06)
(4.05531 5.85875e-05 8.74029e-06)
(3.96186 -6.15582e-05 8.6145e-06)
(3.96193 5.9571e-05 8.61894e-06)
(3.8721 -6.2106e-05 8.27255e-06)
(3.87216 5.88731e-05 8.27729e-06)
(3.78487 -6.1122e-05 7.72669e-06)
(3.78494 5.99235e-05 7.73128e-06)
(3.69879 -6.14101e-05 7.02125e-06)
(3.69886 5.95021e-05 7.02612e-06)
(3.61242 -6.04569e-05 6.20127e-06)
(3.61249 6.05015e-05 6.206e-06)
(3.52447 -6.06529e-05 5.32679e-06)
(3.52454 6.01863e-05 5.33176e-06)
(3.43396 -5.98806e-05 4.44586e-06)
(3.43403 6.09873e-05 4.4507e-06)
(3.34035 -6.01052e-05 3.6099e-06)
(3.34042 6.06552e-05 3.61493e-06)
(3.24356 -5.95853e-05 2.84979e-06)
(3.24363 6.11881e-05 2.8547e-06)
(3.14394 -5.99102e-05 2.19041e-06)
(3.14402 6.07652e-05 2.19548e-06)
(3.04227 -5.95816e-05 1.63866e-06)
(3.04235 6.10931e-05 1.64359e-06)
(2.9396 -5.99689e-05 1.19625e-06)
(2.93969 6.06155e-05 1.2013e-06)
(2.83718 -5.97559e-05 8.51828e-07)
(2.83727 6.08155e-05 9.76824e-07)
(2.73631 -6.01356e-05 5.94063e-07)
(2.7364 6.03518e-05 9.92265e-07)
(2.63824 -5.99576e-05 4.05512e-07)
(2.63833 6.05051e-05 1.00712e-06)
(2.54406 -6.02884e-05 2.72623e-07)
(2.54414 6.00961e-05 1.02257e-06)
(2.45459 -6.01062e-05 2.36822e-07)
(2.45467 6.02422e-05 1.03734e-06)
(2.37037 -6.03722e-05 2.51353e-07)
(2.37044 5.99033e-05 1.05262e-06)
(2.29158 -6.01885e-05 2.55586e-07)
(2.29166 6.00396e-05 1.06715e-06)
(2.21806 -6.03912e-05 2.71664e-07)
(2.21813 5.97693e-05 1.08204e-06)
(2.14928 -6.02132e-05 2.7441e-07)
(2.14934 5.98879e-05 1.09613e-06)
(2.08435 -6.03626e-05 2.92369e-07)
(2.08442 5.96769e-05 1.11042e-06)
(2.0221 -6.02186e-05 2.96791e-07)
(2.02216 5.9749e-05 1.12397e-06)
(1.96105 -6.03287e-05 3.13333e-07)
(1.96112 5.95838e-05 1.13749e-06)
(1.89952 -6.01351e-05 3.24727e-07)
(1.89958 5.96919e-05 1.15048e-06)
(1.83559 -6.03198e-05 3.26866e-07)
(1.83567 5.94603e-05 1.16322e-06)
(1.76729 -6.00934e-05 3.44033e-07)
(1.76737 5.95854e-05 1.17574e-06)
(1.69259 -6.02625e-05 3.45706e-07)
(1.69268 5.93796e-05 1.1879e-06)
(1.60953 -6.00495e-05 3.63277e-07)
(1.60964 5.94733e-05 1.20018e-06)
(1.51635 -6.02053e-05 3.65877e-07)
(1.51648 5.92932e-05 1.21219e-06)
(1.41161 -6.00019e-05 3.82308e-07)
(1.41175 5.93564e-05 1.22472e-06)
(1.29427 -6.01486e-05 3.85639e-07)
(1.29444 5.92009e-05 1.23727e-06)
(1.16387 -5.99505e-05 4.01032e-07)
(1.16409 5.92343e-05 1.25079e-06)
(1.02063 -6.00923e-05 4.0493e-07)
(1.0209 5.91028e-05 1.26481e-06)
(0.865501 -5.98952e-05 4.19386e-07)
(0.865843 5.91059e-05 1.28025e-06)
(0.70023 -6.00361e-05 4.23704e-07)
(0.700674 5.89987e-05 1.2968e-06)
(0.527368 -5.98348e-05 4.3731e-07)
(0.52796 5.89708e-05 1.31515e-06)
(0.350223 -5.99797e-05 4.41894e-07)
(0.35101 5.88882e-05 1.33519e-06)
(0.172765 -5.97679e-05 4.54675e-07)
(0.173774 5.88285e-05 1.35714e-06)
(-0.000486454 -5.99221e-05 4.59309e-07)
(0.000672722 5.87712e-05 1.38121e-06)
(-0.164647 -5.97032e-05 4.71126e-07)
(-0.163612 5.86861e-05 1.40673e-06)
(-0.314936 -5.98428e-05 4.78299e-07)
(-0.314154 5.86283e-05 1.43167e-06)
(-0.44671 -5.96411e-05 4.91698e-07)
(-0.446176 5.85445e-05 1.45758e-06)
(-0.555718 -5.97607e-05 5.011e-07)
(-0.555377 5.84763e-05 1.48266e-06)
(-0.638361 -5.95727e-05 5.15536e-07)
(-0.638157 5.83938e-05 1.508e-06)
(-0.691869 -5.96761e-05 5.26506e-07)
(-0.691767 5.83142e-05 1.53225e-06)
(-0.71452 -5.94978e-05 5.41201e-07)
(-0.714499 5.82342e-05 1.55628e-06)
(-0.705713 -5.95884e-05 5.52912e-07)
(-0.705767 5.81423e-05 1.57934e-06)
(-0.665965 -5.94196e-05 5.67193e-07)
(-0.666099 5.80627e-05 1.6022e-06)
(-0.596914 -5.94973e-05 5.77781e-07)
(-0.597147 5.79604e-05 1.62481e-06)
(-0.501173 -5.93364e-05 5.92407e-07)
(-0.501544 5.78809e-05 1.64781e-06)
(-0.382178 -5.94043e-05 6.0275e-07)
(-0.382743 5.7766e-05 1.67178e-06)
(-0.243959 -5.92487e-05 6.16244e-07)
(-0.244768 5.76877e-05 1.69698e-06)
(-0.0908909 -5.93085e-05 6.26193e-07)
(-0.0919088 5.75581e-05 1.7245e-06)
(0.0724344 -5.91623e-05 6.3842e-07)
(0.0714594 5.7486e-05 1.75387e-06)
(0.241666 -5.92046e-05 6.49655e-07)
(0.240914 5.73324e-05 1.78466e-06)
(0.412809 -5.90622e-05 6.65116e-07)
(0.412275 5.7262e-05 1.81498e-06)
(0.582201 -5.91039e-05 6.80721e-07)
(0.581825 5.70955e-05 1.8473e-06)
(0.746689 -5.89546e-05 7.00017e-07)
(0.746417 5.70251e-05 1.87865e-06)
(0.903675 -5.89984e-05 7.20405e-07)
(0.90347 5.68422e-05 1.91222e-06)
(1.05111 -5.88417e-05 7.43735e-07)
(1.05095 5.67721e-05 1.94402e-06)
(1.18752 -5.88826e-05 7.6901e-07)
(1.18739 5.65772e-05 1.97811e-06)
(1.31193 -5.8718e-05 7.9628e-07)
(1.31183 5.65079e-05 2.00942e-06)
(1.42379 -5.87635e-05 8.26312e-07)
(1.42371 5.62933e-05 2.04312e-06)
(1.52295 -5.85719e-05 8.57207e-07)
(1.52289 5.62438e-05 2.07286e-06)
(1.60953 -5.86318e-05 1.02159e-06)
(1.60948 5.60001e-05 2.10522e-06)
(1.68384 -5.84127e-05 1.24173e-06)
(1.6838 5.59708e-05 2.13234e-06)
(1.74628 -5.84823e-05 1.48643e-06)
(1.74625 5.57034e-05 2.16254e-06)
(1.79728 -5.82367e-05 1.75407e-06)
(1.79726 5.56933e-05 2.18615e-06)
(1.83717 -5.83213e-05 2.03822e-06)
(1.83715 5.5398e-05 2.21362e-06)
(1.86613 -5.80534e-05 2.33463e-06)
(1.86612 5.54028e-05 2.31468e-06)
(1.88408 -5.81487e-05 2.63489e-06)
(1.88408 5.50855e-05 2.61398e-06)
(1.8907 -5.78862e-05 2.93154e-06)
(1.8907 5.50772e-05 2.9099e-06)
(1.88538 -5.79721e-05 3.21945e-06)
(1.88538 5.476e-05 3.19712e-06)
(1.86724 -5.77383e-05 3.4898e-06)
(1.86726 5.47148e-05 3.46695e-06)
(1.83527 -5.78175e-05 3.74179e-06)
(1.83529 5.43974e-05 3.71861e-06)
(1.78835 -5.75997e-05 3.97204e-06)
(1.78837 5.43268e-05 3.94866e-06)
(1.72544 -5.76875e-05 4.18252e-06)
(1.72548 5.39965e-05 4.1593e-06)
(1.64576 -5.74746e-05 4.37683e-06)
(1.64581 5.39095e-05 4.3538e-06)
(1.54889 -5.75731e-05 4.56165e-06)
(1.54895 5.35669e-05 4.5394e-06)
(1.435 -5.73387e-05 4.74625e-06)
(1.43507 5.34865e-05 4.72466e-06)
(1.30491 -5.7465e-05 4.93624e-06)
(1.305 5.31173e-05 4.91615e-06)
(1.16028 -5.71755e-05 5.14434e-06)
(1.16038 5.30717e-05 5.12538e-06)
(1.00356 -5.7347e-05 5.37048e-06)
(1.00369 5.26614e-05 5.35381e-06)
(0.838045 -5.69901e-05 5.62596e-06)
(0.838202 5.26547e-05 5.61081e-06)
(0.667783 -5.71974e-05 5.90559e-06)
(0.66798 5.22155e-05 5.89347e-06)
(0.497441 -5.67895e-05 6.21228e-06)
(0.4977 5.2221e-05 6.20186e-06)
(0.332128 -5.70205e-05 6.53647e-06)
(0.332483 5.17684e-05 6.52968e-06)
(0.177135 -5.65824e-05 6.8727e-06)
(0.17763 5.17517e-05 6.86744e-06)
(0.0376919 -5.68339e-05 7.20878e-06)
(0.0383336 5.12932e-05 7.20749e-06)
(-0.0813119 -5.63655e-05 7.53498e-06)
(-0.080693 5.12594e-05 7.53456e-06)
(-0.175854 -5.66681e-05 7.83727e-06)
(-0.175445 5.07117e-05 7.83425e-06)
(-0.24305 -5.6121e-05 8.11566e-06)
(-0.242835 5.07424e-05 8.11102e-06)
(-0.28127 -5.65416e-05 8.34959e-06)
(-0.281187 5.00508e-05 8.34363e-06)
(-0.290329 -5.58699e-05 8.55488e-06)
(-0.29034 5.01727e-05 8.54798e-06)
(-0.271577 -5.64167e-05 8.71436e-06)
(-0.271676 4.93389e-05 8.70779e-06)
(-0.227896 -5.56398e-05 8.85064e-06)
(-0.228107 4.95208e-05 8.84396e-06)
(-0.163426 -5.62675e-05 8.96039e-06)
(-0.163786 4.86008e-05 8.95579e-06)
(-0.0833033 -5.53908e-05 9.0651e-06)
(-0.0838057 4.88224e-05 9.06099e-06)
(0.006709 -5.60996e-05 9.1612e-06)
(0.00620114 4.78285e-05 9.16073e-06)
(0.100737 -5.51284e-05 9.26806e-06)
(0.100362 4.80876e-05 9.26756e-06)
(0.193257 -5.5878e-05 9.38518e-06)
(0.193008 4.69941e-05 9.37966e-06)
(0.279362 -5.48351e-05 9.52064e-06)
(0.279199 4.73355e-05 9.51452e-06)
(0.355081 -5.56577e-05 9.66594e-06)
(0.354974 4.60938e-05 9.65522e-06)
(0.417663 -5.44921e-05 9.83431e-06)
(0.417593 4.65619e-05 9.823e-06)
(0.465641 -5.5431e-05 1.00033e-05)
(0.465596 4.51374e-05 9.98825e-06)
(0.498799 -5.414e-05 1.01879e-05)
(0.498772 4.57293e-05 1.01726e-05)
(0.518069 -5.52081e-05 1.03662e-05)
(0.518056 4.41173e-05 1.03483e-05)
(0.525341 -5.37629e-05 1.05592e-05)
(0.525339 4.4857e-05 1.05416e-05)
(0.523176 -5.49994e-05 1.07388e-05)
(0.523181 4.30254e-05 1.07197e-05)
(0.514518 -5.33716e-05 1.09356e-05)
(0.514527 4.39371e-05 1.09172e-05)
(0.502406 -5.47943e-05 1.11191e-05)
(0.502416 4.18742e-05 1.10999e-05)
(0.489686 -5.2979e-05 1.13246e-05)
(0.489696 4.2959e-05 1.13061e-05)
(0.478867 -5.45823e-05 1.15241e-05)
(0.478875 4.06757e-05 1.1505e-05)
(0.471982 -5.25549e-05 1.17531e-05)
(0.471985 4.19551e-05 1.17346e-05)
(0.470447 -5.43887e-05 1.19724e-05)
(0.470445 3.9406e-05 1.19532e-05)
(0.475092 -5.21088e-05 1.22282e-05)
(0.475085 4.09185e-05 1.2209e-05)
(0.486228 -5.41942e-05 1.24733e-05)
(0.486216 3.80878e-05 1.24532e-05)
(0.503723 -5.16372e-05 1.27557e-05)
(0.503707 3.98574e-05 1.27349e-05)
(0.527057 -5.40177e-05 1.3017e-05)
(0.527038 3.67069e-05 1.29948e-05)
(0.555425 -5.11536e-05 1.33141e-05)
(0.555405 3.87641e-05 1.32905e-05)
(0.587809 -5.38677e-05 1.35817e-05)
(0.587788 3.52616e-05 1.35566e-05)
(0.623118 -5.0638e-05 1.38889e-05)
(0.623097 3.76669e-05 1.38619e-05)
(0.660152 -5.37643e-05 1.41517e-05)
(0.660132 3.37403e-05 1.41228e-05)
(0.697687 -5.01112e-05 1.44587e-05)
(0.697669 3.6554e-05 1.44276e-05)
(0.73451 -5.36773e-05 1.47149e-05)
(0.734494 3.2183e-05 1.4682e-05)
(0.769388 -4.96112e-05 1.50121e-05)
(0.769374 3.53981e-05 1.49768e-05)
(0.801242 -5.35889e-05 1.52601e-05)
(0.80123 3.06183e-05 1.52233e-05)
(0.829109 -4.91238e-05 1.55426e-05)
(0.8291 3.42241e-05 1.55036e-05)
(0.852178 -5.35533e-05 1.57636e-05)
(0.852171 2.90031e-05 1.57235e-05)
(0.86994 -4.8633e-05 1.60244e-05)
(0.869935 3.30592e-05 1.59823e-05)
(0.882242 -5.35516e-05 1.62118e-05)
(0.882239 2.73675e-05 1.61694e-05)
(0.88925 -4.81692e-05 1.6432e-05)
(0.889249 3.1883e-05 1.6388e-05)
(0.891423 -5.36042e-05 1.65675e-05)
(0.891423 2.57009e-05 1.65238e-05)
(0.889487 -4.77308e-05 1.67389e-05)
(0.889488 3.07058e-05 1.66939e-05)
(0.88438 -5.37045e-05 1.68207e-05)
(0.884382 2.4018e-05 1.67767e-05)
(0.877098 -4.73238e-05 1.69428e-05)
(0.877101 2.95284e-05 1.68975e-05)
(0.868531 -5.38754e-05 1.69723e-05)
(0.868534 2.23026e-05 1.69286e-05)
(0.85942 -4.69386e-05 1.70611e-05)
(0.859422 2.83657e-05 1.70159e-05)
(0.850241 -5.41036e-05 1.70612e-05)
(0.850243 2.05736e-05 1.7018e-05)
(0.841124 -4.66013e-05 1.71377e-05)
(0.841127 2.71962e-05 1.70925e-05)
(0.831983 -5.43668e-05 1.71408e-05)
(0.831986 1.88588e-05 1.70982e-05)
(0.822505 -4.63005e-05 1.72346e-05)
(0.822507 2.60359e-05 1.71894e-05)
(0.812203 -5.46942e-05 1.72564e-05)
(0.812206 1.71343e-05 1.72144e-05)
(0.800656 -4.60164e-05 1.73862e-05)
(0.800659 2.49085e-05 1.73411e-05)
(0.787538 -5.50802e-05 1.74319e-05)
(0.787542 1.54111e-05 1.73908e-05)
(0.772709 -4.57757e-05 1.75834e-05)
(0.772713 2.37913e-05 1.75386e-05)
(0.756314 -5.55162e-05 1.76321e-05)
(0.756318 1.37028e-05 1.75923e-05)
(0.738753 -4.55935e-05 1.777e-05)
(0.738757 2.26722e-05 1.77257e-05)
(0.720695 -5.60117e-05 1.77776e-05)
(0.720699 1.20043e-05 1.77396e-05)
(0.702971 -4.54841e-05 1.78545e-05)
(0.702975 2.1539e-05 1.78109e-05)
(0.686579 -5.65714e-05 1.77762e-05)
(0.686583 1.03144e-05 1.77401e-05)
(0.672547 -4.54491e-05 1.77535e-05)
(0.67255 2.0392e-05 1.77101e-05)
(0.661739 -5.72182e-05 1.75542e-05)
(0.661741 8.61473e-06 1.75197e-05)
(0.654911 -4.54881e-05 1.74182e-05)
(0.654912 1.92342e-05 1.73742e-05)
(0.652649 -5.79454e-05 1.71015e-05)
(0.652648 6.91836e-06 1.70678e-05)
(0.655226 -4.56022e-05 1.68685e-05)
(0.655224 1.807e-05 1.68228e-05)
(0.662605 -5.87504e-05 1.64585e-05)
(0.662603 5.23834e-06 1.64248e-05)
(0.674518 -4.58189e-05 1.61567e-05)
(0.674514 1.68811e-05 1.61076e-05)
(0.69047 -5.96219e-05 1.56982e-05)
(0.690466 3.60184e-06 1.56635e-05)
(0.709764 -4.61366e-05 1.53772e-05)
(0.70976 1.56832e-05 1.53231e-05)
(0.731575 -6.05739e-05 1.49104e-05)
(0.73157 2.01771e-06 1.48739e-05)
(0.755011 -4.65849e-05 1.46051e-05)
(0.755006 1.44664e-05 1.45444e-05)
(0.779122 -6.16091e-05 1.41674e-05)
(0.779118 5.13566e-07 1.41288e-05)
(0.803025 -4.71832e-05 1.39109e-05)
(0.803021 1.3237e-05 1.38421e-05)
(0.825976 -6.27455e-05 1.35262e-05)
(0.825972 -8.90633e-07 1.34859e-05)
(0.847324 -4.7961e-05 1.33366e-05)
(0.847321 1.19959e-05 1.32584e-05)
(0.866625 -6.40013e-05 1.30176e-05)
(0.866623 -2.16788e-06 1.29763e-05)
(0.883758 -4.8938e-05 1.29041e-05)
(0.883755 1.0759e-05 1.28151e-05)
(0.898831 -6.53933e-05 1.26432e-05)
(0.898829 -3.28279e-06 1.26023e-05)
(0.912252 -5.01465e-05 1.25796e-05)
(0.91225 9.53381e-06 1.24782e-05)
(0.924748 -6.69476e-05 1.23248e-05)
(0.924746 -4.20158e-06 1.22858e-05)
(0.937368 -5.16276e-05 1.22381e-05)
(0.937366 8.32432e-06 1.21217e-05)
(0.951555 -6.86837e-05 1.30216e-05)
(0.951553 -4.87483e-06 1.18558e-05)
(0.96925 -5.34419e-05 1.16548e-05)
(0.969247 7.1226e-06 1.15194e-05)
(0.993193 -7.06372e-05 1.40302e-05)
(0.993189 -5.25437e-06 1.1038e-05)
(1.02713 -5.56637e-05 1.05252e-05)
(1.02713 5.92235e-06 1.0364e-05)
(1.0766 -5.40713e-05 9.54553e-06)
(1.07659 -5.32572e-06 9.5166e-06)
(1.15033 -3.90126e-05 8.5383e-06)
(1.15032 4.94898e-06 8.40496e-06)
(1.26244 -3.65167e-05 7.10393e-06)
(1.26244 -5.32184e-06 7.07697e-06)
(1.43398 -2.12111e-05 5.59332e-06)
(1.43397 4.22937e-06 5.49223e-06)
(1.69614 -1.77338e-05 3.75202e-06)
(1.69613 -5.30301e-06 3.7305e-06)
(2.19101 -2.11877e-06 1.80838e-06)
(2.19101 3.538e-06 1.75776e-06)
(0.0271042 -1.22453e-05 -5.49739e-08)
(0.0271358 -2.60504e-05 -0.000490337)
(0.0814521 1.70971e-05 -1.74152e-08)
(0.0815465 -1.13278e-05 -0.000711847)
(0.136391 2.76715e-05 -6.35514e-09)
(0.136547 -2.46757e-05 -0.000528577)
(0.191926 3.40437e-05 -2.297e-09)
(0.19214 -3.41467e-05 -0.000285969)
(0.248065 3.76275e-05 -5.33623e-10)
(0.248333 -3.76073e-05 -0.000151626)
(0.304814 3.96306e-05 -1.51436e-10)
(0.305131 -3.95533e-05 -9.14731e-05)
(0.36214 4.10216e-05 -1.31976e-10)
(0.362501 -4.09147e-05 -6.23548e-05)
(0.419982 4.19705e-05 -2.40433e-11)
(0.42038 -4.19218e-05 -4.63459e-05)
(0.478273 4.28268e-05 -8.98435e-11)
(0.478704 -4.26974e-05 -3.6557e-05)
(0.537011 4.33749e-05 -8.5174e-12)
(0.537469 -4.33645e-05 -3.00761e-05)
(0.596267 4.40426e-05 -8.33316e-11)
(0.596748 -4.39e-05 -2.55234e-05)
(0.656062 4.43769e-05 3.07872e-22)
(0.656561 -4.43972e-05 -2.2178e-05)
(0.716422 4.49703e-05 -8.78039e-11)
(0.716933 -4.4864e-05 -1.9632e-05)
(0.777402 5.8718e-05 -5.0595e-08)
(0.777923 -4.51933e-05 -1.76293e-05)
(0.838988 1.86954e-05 -5.13384e-19)
(0.839513 -4.55928e-05 -1.60477e-05)
(0.901078 0.000100724 -1.17946e-07)
(0.901605 -4.57114e-05 -1.47268e-05)
(0.963525 -3.85602e-05 -7.3702e-10)
(0.96405 -4.65953e-05 -1.36807e-05)
(1.02618 0.000135596 -4.36246e-08)
(1.0267 -4.6068e-05 -1.27788e-05)
(1.08903 -5.16598e-05 -9.92283e-10)
(1.08954 -4.73405e-05 -1.20242e-05)
(1.15228 0.000149863 -4.2452e-08)
(1.15279 -4.62736e-05 -1.13687e-05)
(1.21624 -6.47242e-05 -6.95999e-10)
(1.21674 -4.82106e-05 -1.0813e-05)
(1.28108 0.000163936 -4.07192e-08)
(1.28157 -4.639e-05 -1.03206e-05)
(1.34683 -7.76966e-05 5.80278e-19)
(1.3473 -4.90721e-05 -9.8998e-06)
(1.41342 0.000204488 -1.50079e-07)
(1.41388 -4.63079e-05 -9.49514e-06)
(1.48084 -0.000144025 3.78369e-21)
(1.48129 -5.01064e-05 -9.19851e-06)
(1.54906 0.000274976 -1.78005e-07)
(1.5495 -4.61621e-05 -8.87525e-06)
(1.61807 -0.000218708 -2.0979e-09)
(1.61849 -5.13579e-05 -8.65825e-06)
(1.68781 0.00032517 -8.14876e-08)
(1.68822 -4.58075e-05 -8.42619e-06)
(1.75821 -0.000243995 -4.13549e-09)
(1.7586 -5.27388e-05 -8.24026e-06)
(1.82919 0.000351819 -8.40099e-08)
(1.82957 -4.51618e-05 -8.05656e-06)
(1.90075 -0.000270228 -3.78823e-09)
(1.90112 -5.43431e-05 -7.91339e-06)
(1.97308 0.000378888 -7.97847e-08)
(1.97343 -4.42103e-05 -7.76629e-06)
(2.04657 -0.000296286 -1.71432e-09)
(2.04692 -5.62523e-05 -7.65491e-06)
(2.12182 0.000405611 -7.40435e-08)
(2.12216 -4.28604e-05 -7.53622e-06)
(2.19949 -0.000321786 -4.4465e-19)
(2.19982 -5.85616e-05 -7.45017e-06)
(2.28016 0.000463107 -2.25836e-07)
(2.28049 -4.10676e-05 -7.31936e-06)
(2.36426 -0.000410216 -1.25642e-21)
(2.36458 -6.14317e-05 -7.29506e-06)
(2.45196 0.000652501 -7.40111e-07)
(2.45228 -3.87674e-05 -7.06764e-06)
(2.54327 -0.000702406 -3.0758e-19)
(2.54358 -6.49266e-05 -7.19428e-06)
(2.63804 0.000983184 -9.69299e-07)
(2.63836 -3.58804e-05 -6.94444e-06)
(2.73619 -0.00107542 -5.25579e-21)
(2.73651 -6.90275e-05 -7.1491e-06)
(2.83784 0.00132106 -8.17027e-07)
(2.83815 -3.24008e-05 -6.96811e-06)
(2.94355 -0.0013809 -3.07182e-18)
(2.94387 -7.36817e-05 -7.15296e-06)
(3.05453 0.00155439 -4.4322e-07)
(3.05486 -2.83357e-05 -7.0876e-06)
(3.17257 -0.00154203 0)
(3.1729 -7.8869e-05 -7.19455e-06)
(3.29983 0.00168618 -2.80075e-07)
(3.30017 -2.36935e-05 -7.18623e-06)
(3.43851 -0.00164289 2.76967e-21)
(3.43885 -8.46702e-05 -7.26637e-06)
(3.59048 0.001802 -3.63276e-07)
(3.59084 -1.83966e-05 -7.2534e-06)
(3.75711 -0.00177242 -1.97851e-21)
(3.75747 -9.11938e-05 -7.36863e-06)
(3.93921 0.0022585 -2.31258e-06)
(3.93958 -1.23515e-05 -6.90254e-06)
(4.13718 -0.0025632 -4.76529e-21)
(4.13755 -9.80262e-05 -7.52199e-06)
(4.35083 0.00287518 -1.35048e-06)
(4.3512 -5.64202e-06 -7.3482e-06)
(4.57888 -0.00300545 -4.05904e-08)
(4.57924 -0.000104796 -7.75734e-06)
(4.81793 0.00319222 -7.85034e-07)
(4.81827 1.02672e-06 -7.85842e-06)
(5.06115 -0.0031936 -1.7393e-07)
(5.06145 -0.000111571 -8.19491e-06)
(5.29677 0.00341438 -1.44626e-06)
(5.29701 6.26661e-06 -8.42799e-06)
(5.50729 -0.00345101 -4.16668e-07)
(5.50745 -0.0001189 -9.0582e-06)
(5.66978 0.00371739 -2.31712e-06)
(5.66985 8.99404e-06 -9.50449e-06)
(5.75795 -0.00380705 -6.66663e-07)
(5.75789 -0.000125981 -1.05085e-05)
(5.74587 0.00410494 -2.81934e-06)
(5.74566 1.00117e-05 -1.11542e-05)
(5.61275 -0.00423371 -7.17541e-07)
(5.61236 -0.000129907 -1.23689e-05)
(5.34757 0.004522 -2.38933e-06)
(5.34699 1.08708e-05 -1.30477e-05)
(4.95225 -0.00463954 -4.54227e-07)
(4.95144 -0.000128747 -1.40974e-05)
(4.44233 0.00487894 -1.1378e-06)
(4.44129 1.10623e-05 -1.45972e-05)
(3.84492 -0.00493636 -2.90052e-18)
(3.84364 -0.000123982 -1.51794e-05)
(3.19444 0.00512559 -5.11539e-08)
(3.19293 8.19745e-06 -1.53986e-05)
(2.52756 -0.00497609 -1.23953e-06)
(2.52583 -0.000118336 -1.52477e-05)
(1.87838 0.00511368 -3.55513e-07)
(1.87647 1.57236e-06 -1.52901e-05)
(1.27499 -0.00494209 -1.93113e-06)
(1.27296 -0.000113047 -1.49082e-05)
(0.737844 0.00505638 -4.50121e-07)
(0.73578 -7.11792e-06 -1.49089e-05)
(0.279638 -0.00489053 -2.00723e-06)
(0.277656 -0.000107977 -1.45223e-05)
(-0.0936017 0.00500634 -4.23471e-07)
(-0.0953684 -1.56934e-05 -1.45643e-05)
(-0.380939 -0.000197176 -4.79562e-06)
(-0.382378 -0.000103061 -9.78809e-07)
(-0.584974 0.00027613 -4.8158e-07)
(-0.586036 -2.21285e-05 -8.19317e-07)
(-0.710603 -0.000113687 -1.11434e-06)
(-0.711275 -9.75788e-05 -7.75024e-07)
(-0.76413 0.000203872 -3.57993e-07)
(-0.76442 -2.74231e-05 -6.23624e-07)
(-0.752711 -5.01054e-05 -8.51025e-07)
(-0.752638 -9.26614e-05 -5.82304e-07)
(-0.684009 0.000149987 -2.6332e-07)
(-0.683593 -3.1965e-05 -4.47611e-07)
(-0.56591 -5.78629e-06 -5.99292e-07)
(-0.565177 -8.8424e-05 -4.11714e-07)
(-0.406238 0.000113823 -1.80334e-07)
(-0.405219 -3.58745e-05 -2.94234e-07)
(-0.212508 2.22395e-05 -3.82313e-07)
(-0.21125 -8.47906e-05 -2.65652e-07)
(0.00831624 9.2248e-05 -1.10427e-07)
(0.00974496 -3.92753e-05 -1.6668e-07)
(0.250042 3.72936e-05 -2.08097e-07)
(0.251537 -8.16007e-05 -1.50042e-07)
(0.50732 8.17951e-05 -5.6854e-08)
(0.508798 -4.2139e-05 -7.23261e-08)
(0.775637 4.32971e-05 -8.25252e-08)
(0.777038 -7.87928e-05 -6.65593e-08)
(1.05118 7.92793e-05 -5.45093e-08)
(1.05246 -4.45601e-05 -2.92563e-09)
(1.3306 4.27731e-05 -6.82527e-08)
(1.33175 -7.63384e-05 -6.5627e-08)
(1.61075 7.84365e-05 -8.48747e-08)
(1.61176 -4.66416e-05 -8.69259e-08)
(1.88846 4.5256e-05 -1.70303e-07)
(1.88933 -7.42386e-05 -1.6783e-07)
(2.16027 7.62135e-05 -2.16559e-07)
(2.16102 -4.84969e-05 -2.18297e-07)
(2.42239 4.734e-05 -3.28465e-07)
(2.42302 -7.24921e-05 -3.26086e-07)
(2.67067 7.41847e-05 -4.05587e-07)
(2.67121 -5.02003e-05 -4.0702e-07)
(2.90077 4.90538e-05 -5.37291e-07)
(2.90122 -7.10756e-05 -5.34992e-07)
(3.10838 7.23282e-05 -6.29153e-07)
(3.10875 -5.17687e-05 -6.30297e-07)
(3.28957 5.05039e-05 -7.58392e-07)
(3.28986 -6.98864e-05 -7.56157e-07)
(3.44112 7.06841e-05 -8.38062e-07)
(3.44134 -5.3158e-05 -8.38933e-07)
(3.56083 5.17769e-05 -9.36456e-07)
(3.561 -6.88418e-05 -9.34276e-07)