/*--------------------------------*- C++ -*----------------------------------*\
| =========                 |                                                 |
| \\      /  F ield         | OpenFOAM: The Open Source CFD Toolbox           |
|  \\    /   O peration     | Version:  2106                                  |
|   \\  /    A nd           | Website:  www.openfoam.com                      |
|    \\/     M anipulation  |                                                 |
\*---------------------------------------------------------------------------*/
FoamFile
{
    version     2.0;
    format      ascii;
    arch        "LSB;label=32;scalar=64";
    class       volTensorField;
    location    "19000";
    object      grad(U);
}
// * * * * * * * * * * * * * * * * * * * * * * * * * * * * * * * * * * * * * //

dimensions      [0 0 -1 0 0 0 0];

internalField   nonuniform List<tensor> 
2560
(
(0 2.0789e-30 6.49658e-32 51.5572 -7.95789e-12 -3.2456e-13 0.0746357 -5.76116e-15 -1.08251e-16)
(0 -1.03945e-30 -3.24829e-32 51.5572 -2.50144e-15 -3.18653e-18 0.0746357 -4.77525e-18 3.0514e-17)
(-3.60483e-17 -4.53932e-25 -1.57013e-26 51.5496 2.35423e-32 -3.23365e-14 0.224971 -3.15544e-30 -9.49769e-17)
(0 -4.09822e-30 -2.56139e-31 51.5496 -2.7984e-15 1.24928e-17 0.224971 -3.2902e-18 -6.01713e-17)
(6.16148e-17 -6.43432e-30 -7.02257e-32 51.5419 8.89417e-13 -1.56432e-14 0.309385 -7.89434e-15 -9.14554e-17)
(-7.10633e-17 1.21184e-29 2.52467e-31 51.5419 -5.48353e-15 2.97489e-17 0.309385 -1.43113e-17 -6.19151e-17)
(3.02987e-17 -6.25923e-30 -1.81881e-31 51.5341 3.01964e-13 -1.56319e-14 0.313836 -2.66928e-15 -9.76218e-17)
(0 3.98158e-30 1.24424e-31 51.5341 -4.88839e-15 2.6245e-17 0.313836 -2.27368e-17 -6.37296e-17)
(1.38082e-16 -1.56981e-29 -6.13206e-31 51.5261 4.35441e-14 -1.63699e-14 0.318349 -9.7003e-16 -1.03254e-16)
(0 1.17736e-29 4.90565e-31 51.5261 -4.97422e-15 2.57368e-17 0.318349 -3.17908e-17 -6.56021e-17)
(2.09007e-16 -1.85951e-27 -5.45373e-31 51.5179 -2.04906e-14 -1.68781e-14 0.322926 -6.37614e-17 -1.06854e-16)
(4.47129e-16 1.16048e-29 6.04417e-31 51.5179 -5.01253e-15 2.47686e-17 0.322926 -4.09776e-17 -6.75462e-17)
(-9.46676e-17 -7.23444e-45 -2.92982e-31 51.5092 8.34074e-28 -1.71855e-14 0.327564 -2.02494e-60 -1.10188e-16)
(3.78671e-16 1.14385e-29 5.95754e-31 51.5092 -5.19925e-15 2.7415e-17 0.327564 -5.06121e-17 -6.95628e-17)
(-1.16745e-16 1.38975e-29 6.54401e-31 51.4998 9.87415e-15 -1.74637e-14 0.332263 -6.49486e-17 -1.13573e-16)
(3.3475e-16 -7.51636e-30 -3.52329e-31 51.4998 -5.39781e-15 2.82335e-17 0.332263 -6.05151e-17 -7.16463e-17)
(3.99808e-16 -1.00306e-29 -3.01525e-31 51.489 9.13464e-15 -1.77342e-14 0.33702 -6.15303e-17 -1.16958e-16)
(0 7.40863e-30 3.47279e-31 51.489 -5.7069e-15 2.71493e-17 0.33702 -7.13241e-17 -7.38128e-17)
(0 7.30244e-30 2.28201e-31 51.4764 8.8684e-15 -1.79907e-14 0.341828 -5.71692e-17 -1.20307e-16)
(0 -3.65122e-30 0 51.4764 -5.85742e-15 3.0216e-17 0.341828 -8.26922e-17 -7.60443e-17)
(-1.84904e-16 -8.17719e-30 -7.11263e-31 51.4607 9.26614e-15 -1.82319e-14 0.346681 -5.97962e-17 -1.23634e-16)
(0 1.07967e-29 8.99723e-31 51.4607 -5.7864e-15 3.09239e-17 0.346681 -9.36069e-17 -7.83496e-17)
(2.08282e-16 -2.03539e-29 -1.1877e-30 51.4406 9.85533e-15 -1.84557e-14 0.351567 -6.42039e-17 -1.26891e-16)
(0 1.41892e-29 8.86827e-31 51.4406 -5.85683e-15 2.90851e-17 0.351567 -1.04945e-16 -8.0731e-17)
(2.46042e-16 -1.39859e-29 -4.37058e-31 51.4142 1.03552e-14 -1.86549e-14 0.356471 -6.96031e-17 -1.3002e-16)
(0 1.39859e-29 4.37058e-31 51.4142 -5.93302e-15 2.99967e-17 0.356471 -1.16803e-16 -8.31912e-17)
(-7.41082e-16 6.05904e-30 3.0129e-31 51.3793 1.09351e-14 -1.88196e-14 0.361373 -7.30183e-17 -1.32925e-16)
(1.0242e-15 0 0 51.3793 -6.2481e-15 3.47087e-17 0.361373 -1.2941e-16 -8.57373e-17)
(0 1.01909e-29 1.06155e-30 51.3326 1.14181e-14 -1.89379e-14 0.366247 -7.98022e-17 -1.35519e-16)
(0 -1.01909e-29 -1.06155e-30 51.3326 -6.66356e-15 4.18777e-17 0.366247 -1.43441e-16 -8.83545e-17)
(-3.05195e-16 -7.41193e-31 9.31898e-32 51.2706 1.15577e-14 -1.89984e-14 0.37106 -8.20531e-17 -1.37694e-16)
(1.22078e-15 3.34827e-30 0 51.2706 -6.91113e-15 4.44807e-17 0.37106 -1.58223e-16 -9.10333e-17)
(0 1.65014e-29 8.25071e-31 51.1886 1.19129e-14 -1.89874e-14 0.375771 -8.41616e-17 -1.39327e-16)
(-1.32116e-15 -1.65014e-29 -8.25071e-31 51.1886 -7.4709e-15 3.96634e-17 0.375771 -1.72577e-16 -9.37674e-17)
(-9.15633e-16 1.95179e-29 1.21987e-30 51.0815 1.19571e-14 -1.88895e-14 0.380332 -8.96773e-17 -1.40268e-16)
(-5.07288e-16 -1.95179e-29 -1.21987e-30 51.0815 -7.66401e-15 3.90595e-17 0.380332 -1.87455e-16 -9.65552e-17)
(4.51255e-16 -9.61907e-30 -2.00397e-31 50.9431 1.17823e-14 -1.86885e-14 0.384686 -8.72853e-17 -1.40368e-16)
(0 9.61907e-30 2.00397e-31 50.9431 -7.54495e-15 4.31252e-17 0.384686 -2.01357e-16 -9.93412e-17)
(-3.71437e-17 1.32042e-29 2.85295e-31 50.7668 1.24266e-14 -1.83669e-14 0.388768 -8.96601e-17 -1.39442e-16)
(-1.18579e-15 -2.21228e-29 -7.90101e-31 50.7668 -7.96279e-15 5.08619e-17 0.388768 -2.17033e-16 -1.02119e-16)
(0 1.86906e-29 7.78776e-31 50.5453 1.29179e-14 -1.79085e-14 0.392506 -9.97295e-17 -1.37343e-16)
(0 -1.86906e-29 -7.78776e-31 50.5453 -7.84991e-15 6.02449e-17 0.392506 -2.35227e-16 -1.04882e-16)
(-4.60876e-16 2.59141e-30 -7.28455e-32 50.2709 1.21926e-14 -1.73044e-14 0.395822 -9.99364e-17 -1.33986e-16)
(0 3.07046e-30 3.83807e-31 50.2709 -7.22508e-15 5.31628e-17 0.395822 -2.51469e-16 -1.07604e-16)
(-4.87951e-16 -1.85949e-29 -1.95676e-30 49.936 1.19185e-14 -1.65483e-14 0.398638 -9.11935e-17 -1.29249e-16)
(0 1.81587e-29 2.08068e-30 49.936 -7.6777e-15 4.21318e-17 0.398638 -2.67924e-16 -1.10335e-16)
(0 1.19323e-29 1.11865e-30 49.5335 1.30351e-14 -1.56343e-14 0.400873 -9.84714e-17 -1.23052e-16)
(-2.06121e-15 -1.49154e-29 -1.67798e-30 49.5335 -8.13085e-15 4.5591e-17 0.400873 -2.88649e-16 -1.12991e-16)
(5.42899e-16 1.21197e-29 1.15246e-30 49.0568 1.33816e-14 -1.45691e-14 0.402452 -1.12019e-16 -1.15464e-16)
(0 -1.47016e-29 -1.28639e-30 49.0568 -8.07917e-15 5.41748e-17 0.402452 -3.08292e-16 -1.15507e-16)
(-1.14141e-15 2.54473e-29 1.90819e-30 48.5006 1.29979e-14 -1.33686e-14 0.403309 -1.07071e-16 -1.06568e-16)
(0 -2.02872e-29 -1.63022e-30 48.5006 -8.25829e-15 5.68393e-17 0.403309 -3.2721e-16 -1.17881e-16)
(1.79604e-15 -3.05852e-29 -2.21735e-30 47.8615 1.30902e-14 -1.20531e-14 0.403391 -1.0888e-16 -9.65129e-17)
(4.78944e-15 2.28531e-29 1.96394e-30 47.8615 -8.00643e-15 5.4409e-17 0.403391 -3.48256e-16 -1.20123e-16)
(-7.92548e-16 -1.68942e-29 -1.58383e-30 47.1379 1.33703e-14 -1.06465e-14 0.402659 -1.11774e-16 -8.54622e-17)
(2.50709e-15 1.68942e-29 1.75981e-30 47.1379 -7.47819e-15 5.75125e-17 0.402659 -3.69074e-16 -1.22201e-16)
(6.54929e-16 2.9802e-30 5.40216e-31 46.3303 1.36564e-14 -9.17803e-15 0.401096 -1.16895e-16 -7.36787e-17)
(0 -2.77534e-30 -5.20376e-31 46.3303 -7.331e-15 6.28874e-17 0.401096 -3.88999e-16 -1.24068e-16)
(-1.36619e-15 5.13416e-30 6.58184e-31 45.4418 1.36261e-14 -7.6855e-15 0.398702 -1.20047e-16 -6.15048e-17)
(-5.46474e-15 0 -3.41945e-31 45.4418 -7.62216e-15 5.98974e-17 0.398702 -4.11704e-16 -1.25714e-16)
(-7.11203e-16 1.06532e-29 4.99384e-31 44.4776 1.36537e-14 -6.20382e-15 0.395502 -1.19782e-16 -4.91867e-17)
(-3.60377e-15 -2.69635e-30 0 44.4776 -7.9616e-15 5.28464e-17 0.395502 -4.36319e-16 -1.2714e-16)
(0 1.59462e-29 1.66107e-30 43.4447 1.38732e-14 -4.76804e-15 0.391534 -1.2406e-16 -3.71062e-17)
(-2.95679e-15 -1.59462e-29 -1.66107e-30 43.4447 -7.89131e-15 4.81924e-17 0.391534 -4.61102e-16 -1.28398e-16)
(0 -2.09569e-29 -1.63726e-30 42.3521 1.38752e-14 -3.41135e-15 0.386859 -1.27297e-16 -2.55104e-17)
(3.06805e-15 2.09569e-29 1.63726e-30 42.3521 -7.62288e-15 4.5633e-17 0.386859 -4.86131e-16 -1.29567e-16)
(-7.94595e-16 5.1352e-30 1.72771e-31 41.2097 1.37961e-14 -2.15792e-15 0.381547 -1.27731e-16 -1.46502e-17)
(0 0 3.22759e-31 41.2097 -7.86831e-15 4.41831e-17 0.381547 -5.11885e-16 -1.30516e-16)
(-8.21884e-16 1.78198e-29 -9.50569e-31 40.0283 1.42474e-14 -9.90329e-16 0.375677 -1.29539e-16 -4.68383e-18)
(0 -1.52704e-29 -9.54398e-31 40.0283 -8.54902e-15 3.62788e-17 0.375677 -5.33728e-16 -1.31186e-16)
(-8.48832e-16 1.50873e-29 -2.55867e-31 38.8186 1.51327e-14 1.32844e-31 0.369337 -1.40073e-16 -1.97215e-31)
(-3.39533e-15 -7.52576e-30 -3.13573e-31 38.8186 -9.25306e-15 2.42288e-17 0.369337 -5.56079e-16 -1.31649e-16)
(8.75393e-16 -1.24295e-29 -7.95496e-31 37.5914 1.57253e-14 8.36633e-16 0.362612 -1.50449e-16 -4.2529e-18)
(0 9.89052e-30 6.18158e-31 37.5914 -9.09182e-15 1.96687e-17 0.362612 -5.82024e-16 -1.31923e-16)
(9.01529e-16 -1.472e-29 -1.09079e-30 36.3568 1.58321e-14 1.56151e-15 0.355588 -1.558e-16 -1.2095e-17)
(0 1.2186e-29 9.13947e-31 36.3568 -8.59328e-15 1.65189e-17 0.355588 -6.09291e-16 -1.31993e-16)
(-9.27208e-16 9.73622e-30 4.76625e-31 35.124 1.56575e-14 2.15555e-15 0.348346 -1.56981e-16 -1.88021e-17)
(0 -4.80452e-30 0 35.124 -8.8178e-15 1.41035e-17 0.348346 -6.40048e-16 -1.31771e-16)
(0 1.18391e-29 8.87936e-31 33.9013 1.50605e-14 2.62229e-15 0.340961 -1.5684e-16 -2.44421e-17)
(0 -1.65748e-29 -2.16914e-30 33.9013 -9.01677e-15 1.28475e-18 0.340961 -6.67538e-16 -1.3144e-16)
(-9.77099e-16 7.18961e-30 1.75359e-31 32.6958 1.43601e-14 2.97052e-15 0.3335 -1.49352e-16 -2.89128e-17)
(2.59453e-15 0 2.91737e-31 32.6958 -8.56892e-15 2.42609e-19 0.3335 -6.93323e-16 -1.31017e-16)
(0 -1.61031e-29 -1.43778e-30 31.5134 1.46837e-14 3.21322e-15 0.326022 -1.46879e-16 -3.23943e-17)
(4.00511e-15 1.61031e-29 1.43778e-30 31.5134 -8.64504e-15 4.16927e-18 0.326022 -7.20728e-16 -1.30446e-16)
(-2.51539e-16 4.28982e-30 6.75767e-31 30.359 1.48413e-14 3.30118e-15 0.318578 -1.60549e-16 -3.48763e-17)
(-2.82326e-15 -1.13374e-29 -1.13374e-30 30.359 -8.8403e-15 1.705e-17 0.318578 -7.51352e-16 -1.29647e-16)
(1.04806e-15 -1.14496e-29 -7.32661e-31 29.2363 1.3576e-14 -1.65249e-16 0.31121 -1.54552e-16 -3.93226e-17)
(0 8.93989e-30 5.58743e-31 29.2363 -8.19399e-15 8.21148e-18 0.31121 -7.77053e-16 -1.28618e-16)
(-1.07066e-15 -1.89724e-30 -9.86135e-32 28.1482 1.2992e-14 -3.51767e-15 0.303955 -1.37796e-16 -3.75482e-17)
(0 6.60882e-30 5.50735e-31 28.1482 -7.78933e-15 8.77422e-18 0.303955 -8.0419e-16 -1.27637e-16)
(1.09274e-15 6.18183e-30 3.63348e-31 27.0967 1.30314e-14 -3.32043e-15 0.29684 -1.46223e-16 -3.6069e-17)
(4.37097e-15 -4.34273e-30 -2.71421e-31 27.0967 -6.97941e-15 1.35603e-17 0.29684 -8.27239e-16 -1.26494e-16)
(1.20485e-15 -8.56098e-30 0 26.083 1.24377e-14 -3.18777e-15 0.289889 -1.42712e-16 -3.5642e-17)
(3.25236e-15 4.28049e-30 0 26.083 -6.80908e-15 7.85003e-18 0.289889 -8.47314e-16 -1.2528e-16)
(-1.13536e-15 2.49791e-30 1.84572e-31 25.1078 1.24324e-14 -3.10022e-15 0.283117 -1.37053e-16 -3.51129e-17)
(0 4.21914e-30 2.63696e-31 25.1078 -7.54836e-15 8.07854e-18 0.283117 -8.73874e-16 -1.24064e-16)
(-1.15592e-15 2.49258e-30 1.87005e-31 24.1713 1.24346e-14 -3.0375e-15 0.276536 -1.46772e-16 -3.52231e-17)
(0 4.15867e-30 1.70178e-32 24.1713 -7.58864e-15 2.93955e-30 0.276536 -8.97544e-16 -1.22626e-16)
(1.15378e-15 -4.09906e-30 -5.12383e-31 23.2731 1.19328e-14 -3.04529e-15 0.270156 -1.41118e-16 -3.63258e-17)
(-1.15378e-15 8.19813e-30 5.12383e-31 23.2731 -6.96509e-15 7.98844e-18 0.270156 -9.21678e-16 -1.21164e-16)
(-1.19559e-15 -1.55325e-30 -6.08179e-32 22.4127 1.19458e-14 -3.07284e-15 0.263982 -1.39198e-16 -3.69164e-17)
(-1.13725e-15 8.08063e-30 7.57559e-31 22.4127 -6.72071e-15 1.62571e-17 0.263982 -9.4737e-16 -1.19538e-16)
(-1.12095e-15 1.9912e-29 1.2445e-30 21.5893 1.21047e-14 -3.07998e-15 0.258015 -1.45563e-16 -3.75638e-17)
(-4.85896e-15 -1.59296e-29 -9.86483e-32 21.5893 -7.08791e-15 -2.70921e-30 0.258015 -9.76016e-16 -1.18009e-16)
(-2.33832e-15 -9.29769e-30 -1.27555e-30 20.8018 1.18893e-14 -3.10947e-15 0.252255 -1.47146e-16 -3.87264e-17)
(4.93377e-15 1.57013e-29 1.71733e-30 20.8018 -7.13104e-15 -7.79405e-18 0.252255 -1.00601e-15 -1.16542e-16)
(0 1.93453e-29 1.20908e-30 20.049 1.12828e-14 -3.15736e-15 0.246702 -1.44506e-16 -3.98647e-17)
(0 -1.93453e-29 -1.20908e-30 20.049 -7.29688e-15 -1.00672e-17 0.246702 -1.03231e-15 -1.14982e-16)
(-1.26958e-15 1.01001e-29 1.15462e-30 19.3298 1.09398e-14 -3.20678e-15 0.241351 -1.36251e-16 -4.1118e-17)
(5.07831e-15 -7.62723e-30 -9.53403e-31 19.3298 -6.48356e-15 -5.47556e-18 0.241351 -1.05393e-15 -1.13327e-16)
(2.57408e-15 -1.2456e-29 -1.58195e-30 18.6427 1.1255e-14 -3.26175e-15 0.236199 -1.40015e-16 -4.24509e-17)
(5.14816e-15 7.51791e-30 1.17467e-30 18.6427 -5.56014e-15 1.15925e-17 0.236199 -1.0752e-15 -1.11598e-16)
(0 -3.70508e-30 -6.94702e-31 17.9864 1.17078e-14 -3.35459e-15 0.23124 -1.48373e-16 -4.47529e-17)
(0 7.41016e-30 9.2627e-31 17.9864 -5.82438e-15 2.95868e-17 0.23124 -1.10105e-15 -1.09594e-16)
(-1.32082e-15 -4.84549e-30 -4.76197e-31 17.3596 1.13786e-14 -3.43549e-15 0.226469 -1.55971e-16 -4.58432e-17)
(0 7.30395e-30 1.14124e-30 17.3596 -5.43264e-15 3.12811e-17 0.226469 -1.12468e-15 -1.0778e-16)
(-4.70076e-15 1.57113e-29 1.54722e-30 16.7609 1.09573e-14 -3.45956e-15 0.22188 -1.43978e-16 -4.67123e-17)
(7.37512e-15 -1.43985e-29 -1.34986e-30 16.7609 -5.44495e-15 3.71277e-17 0.22188 -1.1434e-15 -1.06057e-16)
(-1.35318e-15 2.45145e-30 4.35627e-31 16.1889 1.1444e-14 -3.47052e-15 0.217467 -1.49188e-16 -4.74859e-17)
(0 7.09608e-30 2.21753e-31 16.1889 -5.38075e-15 6.09721e-17 0.217467 -1.16864e-15 -1.03954e-16)
(-1.36886e-15 -1.05247e-30 -2.20557e-31 15.6424 1.17944e-14 -3.47628e-15 0.213223 -1.61499e-16 -4.82403e-17)
(5.47545e-15 6.99438e-30 8.74297e-31 15.6424 -4.40813e-15 7.41249e-17 0.213223 -1.19171e-15 -1.01847e-16)
(-1.38422e-15 9.33295e-30 1.08104e-30 15.1202 1.13726e-14 -3.49157e-15 0.209142 -1.63278e-16 -4.93071e-17)
(0 -3.44706e-30 -4.30883e-31 15.1202 -5.49402e-15 7.09267e-17 0.209142 -1.21098e-15 -9.9839e-17)
(-2.79856e-15 1.1666e-29 1.29348e-30 14.6209 1.081e-14 -3.48461e-15 0.205217 -1.54361e-16 -4.94549e-17)
(-5.59713e-15 -6.79532e-30 -8.49415e-31 14.6209 -5.30207e-15 6.90643e-17 0.205217 -1.2439e-15 -9.84917e-17)
(-2.82809e-15 -8.53238e-30 -8.06285e-31 14.1436 1.06754e-14 -3.45563e-15 0.201442 -1.52e-16 -4.9912e-17)
(1.13124e-14 1.00469e-29 1.25586e-30 14.1436 -4.17861e-15 7.2688e-17 0.201442 -1.26039e-15 -9.68025e-17)
(-4.28558e-15 2.37894e-29 2.53926e-30 13.6869 9.05761e-15 -3.45428e-15 0.19781 -1.54984e-16 -5.08639e-17)
(-5.71411e-15 -1.65048e-29 -1.85679e-30 13.6869 -4.18303e-15 9.56467e-17 0.19781 -1.2776e-15 -9.51014e-17)
(-1.44274e-15 -7.32746e-30 -1.19327e-30 13.25 8.06809e-15 -3.47407e-15 0.194316 -1.08915e-16 -5.1964e-17)
(5.77095e-15 1.62683e-29 1.62683e-30 13.25 -3.27075e-15 7.90164e-17 0.194316 -1.30039e-15 -9.37102e-17)
(3.26208e-15 -1.20491e-29 -1.0347e-30 12.8317 8.97737e-15 -3.50455e-15 0.190954 -1.30024e-16 -5.32758e-17)
(-1.80539e-15 9.62106e-30 8.01755e-31 12.8317 -3.755e-15 6.62865e-17 0.190954 -1.31472e-15 -9.26124e-17)
(1.77952e-15 -1.58053e-29 -1.1854e-30 12.4311 8.50418e-15 -3.52321e-15 0.187717 -1.39606e-16 -5.40588e-17)
(4.10203e-15 1.58053e-29 1.1854e-30 12.4311 -3.38771e-15 8.64301e-17 0.187717 -1.33296e-15 -9.17406e-17)
(1.75401e-15 -6.2315e-30 -3.89468e-31 12.0473 8.71148e-15 -3.57264e-15 0.1846 -1.19314e-16 -5.63753e-17)
(4.18137e-15 6.2315e-30 7.78937e-31 12.0473 -2.70278e-15 7.38461e-17 0.1846 -1.34952e-15 -9.08172e-17)
(-1.72887e-15 1.22844e-29 1.53555e-30 11.6795 1.0049e-14 -3.56808e-15 0.181599 -1.50149e-16 -5.54985e-17)
(5.98828e-15 -6.14218e-30 -3.83886e-31 11.6795 -3.75671e-15 6.5229e-17 0.181599 -1.37284e-15 -8.97785e-17)
(0 1.21083e-29 1.13515e-30 11.3269 9.74481e-15 -3.48455e-15 0.178707 -1.65053e-16 -5.53501e-17)
(0 -1.21083e-29 -1.13515e-30 11.3269 -5.05821e-15 4.68844e-17 0.178707 -1.39893e-15 -8.91708e-17)
(-3.04572e-15 4.81141e-30 4.95342e-31 10.9885 8.98628e-15 -3.46021e-15 0.17592 -1.44801e-16 -5.6333e-17)
(0 0 0 10.9885 -5.22815e-15 2.41741e-17 0.17592 -1.43257e-15 -8.87965e-17)
(0 -1.76455e-29 -1.47046e-30 10.6639 9.24656e-15 -3.50379e-15 0.173234 -1.45228e-16 -5.84086e-17)
(6.14176e-15 1.76455e-29 -2.46407e-32 10.6639 -3.79205e-15 -3.01014e-30 0.173234 -1.45906e-15 -8.87776e-17)
(0 8.69632e-30 1.44939e-30 10.3522 9.16406e-15 -3.51302e-15 0.170644 -1.57627e-16 -5.82921e-17)
(4.55941e-15 -2.89877e-30 -7.24693e-31 10.3522 -3.6341e-15 -2.63859e-17 0.170644 -1.47349e-15 -8.89626e-17)
(-1.56001e-15 5.25013e-30 2.56538e-31 10.0528 9.30848e-15 -3.50083e-15 0.168145 -1.46722e-16 -5.97059e-17)
(0 0 7.14307e-31 10.0528 -4.37233e-15 -2.80678e-17 0.168145 -1.48988e-15 -8.88317e-17)
(1.57201e-15 6.06336e-30 4.44386e-31 9.76506 8.99818e-15 -3.5215e-15 0.165733 -1.67147e-16 -6.07117e-17)
(0 -2.81628e-30 -3.52034e-31 9.76506 -3.7205e-15 -2.2892e-17 0.165733 -1.5145e-15 -8.81953e-17)
(1.5627e-15 -5.55182e-30 -6.93978e-31 9.48848 7.04382e-15 -3.54737e-15 0.163406 -1.40333e-16 -6.23588e-17)
(0 5.55182e-30 -4.61618e-32 9.48848 -3.2074e-15 -1.5754e-17 0.163406 -1.52412e-15 -8.73305e-17)
(0 -5.47225e-30 -1.02605e-30 9.22247 6.07776e-15 -3.61311e-15 0.161158 -1.03753e-16 -6.48204e-17)
(0 8.20838e-30 1.36806e-30 9.22247 -4.12542e-15 -6.60712e-17 0.161158 -1.53793e-15 -8.64219e-17)
(-1.69571e-15 -6.01641e-30 2.01259e-31 8.96653 6.15833e-15 -3.70466e-15 0.158987 -1.10197e-16 -6.74783e-17)
(0 1.34845e-29 6.74227e-31 8.96653 -3.95601e-15 -6.00141e-17 0.158987 -1.56853e-15 -8.51735e-17)
(-1.61829e-15 1.03573e-29 9.37575e-31 8.72017 6.65667e-15 -3.70291e-15 0.15689 -1.09691e-16 -6.66552e-17)
(0 -7.97477e-30 -6.64564e-31 8.72017 -3.01499e-15 -3.05036e-17 0.15689 -1.58802e-15 -8.32852e-17)
(1.62946e-15 -2.37588e-30 -2.76318e-31 8.48294 7.20209e-15 -3.70615e-15 0.154862 -1.31608e-16 -6.95749e-17)
(-9.46786e-15 0 0 8.48294 -3.29247e-15 2.19075e-18 0.154862 -1.61633e-15 -8.11298e-17)
(1.45388e-15 -7.74781e-30 -9.68476e-31 8.25439 6.82151e-15 -3.86101e-15 0.152902 -1.33095e-16 -7.44239e-17)
(-6.5619e-15 7.74781e-30 0 8.25439 -2.66407e-15 -1.34403e-46 0.152902 -1.65173e-15 -7.92257e-17)
(-1.65135e-15 1.50983e-29 1.55633e-30 8.03413 7.94615e-15 -3.91362e-15 0.151006 -1.2117e-16 -7.36177e-17)
(1.32108e-14 -7.63676e-30 -6.36397e-31 8.03413 -2.5593e-15 -1.32523e-16 0.151006 -1.66854e-15 -7.82866e-17)
(-1.16292e-15 1.01886e-29 1.28058e-30 7.82177 9.57358e-15 -3.82185e-15 0.149171 -1.79847e-16 -7.30565e-17)
(9.47332e-15 -1.50546e-29 -2.19546e-30 7.82177 -4.88638e-15 -1.13608e-16 0.149171 -1.69612e-15 -7.70915e-17)
(0 0 0 7.61694 8.17162e-15 -3.80517e-15 0.147396 -1.87633e-16 -7.512e-17)
(0 2.47314e-30 6.18285e-31 7.61694 -4.60859e-15 -7.24391e-17 0.147396 -1.74736e-15 -7.44279e-17)
(-1.68314e-15 -9.83363e-30 -1.8379e-30 7.4193 5.67013e-15 -3.86112e-15 0.145677 -1.3013e-16 -7.7423e-17)
(6.73258e-15 1.21885e-29 2.43769e-30 7.4193 -3.63951e-15 -7.45965e-17 0.145677 -1.77022e-15 -7.16847e-17)
(-1.69348e-15 9.56546e-30 -4.22657e-45 7.22853 5.87054e-15 3.04556e-29 0.144013 -9.3594e-17 0)
(-6.77394e-15 -4.80551e-30 -3.00344e-31 7.22853 -4.67682e-15 -6.43967e-17 0.144013 -1.80269e-15 -6.90585e-17)
(1.7037e-15 -9.45228e-30 -1.17734e-30 7.04432 8.48718e-15 6.71467e-15 0.1424 -1.42032e-16 -1.28604e-16)
(6.8148e-15 7.10495e-30 8.88119e-31 7.04432 -4.02876e-15 -8.69591e-17 0.1424 -1.8409e-15 -6.57282e-17)
(-1.7138e-15 1.40057e-29 2.03434e-30 6.86638 9.38418e-15 6.93036e-15 0.140837 -2.03503e-16 -1.44531e-16)
(6.85519e-15 -1.16719e-29 -1.75078e-30 6.86638 -3.5608e-15 -6.31731e-17 0.140837 -1.86051e-15 -6.27936e-17)
(-1.72378e-15 3.04849e-32 2.80629e-31 6.69443 8.54522e-15 6.74383e-15 0.139323 -1.83465e-16 -1.41334e-16)
(0 2.30092e-30 -1.10584e-31 6.69443 -4.01078e-15 -2.87151e-17 0.139323 -1.88668e-15 -5.88489e-17)
(-1.73365e-15 5.99337e-32 2.77559e-31 6.52821 8.74213e-15 6.60482e-15 0.137854 -1.74097e-16 -1.40901e-16)
(0 6.80382e-30 5.66985e-31 6.52821 -2.46596e-15 -2.81312e-17 0.137854 -1.90405e-15 -5.43282e-17)
(-4.26029e-15 -6.62239e-30 -1.12259e-30 6.36748 8.80352e-15 6.43981e-15 0.13643 -1.9726e-16 -1.39529e-16)
(6.97366e-15 1.11772e-29 1.91426e-30 6.36748 -9.61218e-16 -1.8119e-17 0.13643 -1.90763e-15 -5.00048e-17)
(1.75307e-15 -1.11302e-29 -1.37344e-30 6.212 7.4096e-15 6.30806e-15 0.135048 -1.81861e-16 -1.37869e-16)
(0 8.81357e-30 1.1017e-30 6.212 -2.11864e-15 -3.08953e-17 0.135048 -1.92154e-15 -4.5306e-17)
(0 -6.51544e-30 -1.08591e-30 6.06154 5.94769e-15 6.23109e-15 0.133707 -1.41676e-16 -1.37816e-16)
(0 6.51544e-30 1.35738e-30 6.06154 -3.16336e-15 -3.46386e-18 0.133707 -1.9547e-15 -3.9368e-17)
(-4.18229e-15 1.76515e-31 -5.36964e-31 5.91591 6.07874e-15 6.17902e-15 0.132405 -1.21897e-16 -1.3847e-16)
(2.4102e-15 6.42206e-30 4.77811e-33 5.91591 -2.69721e-15 -4.31408e-31 0.132405 -1.9997e-15 -3.44299e-17)
(0 -1.899e-29 -1.84625e-30 5.77489 7.91068e-15 6.06757e-15 0.131141 -1.51764e-16 -1.39494e-16)
(1.42516e-14 1.899e-29 2.11e-30 5.77489 -1.35245e-15 -7.72664e-17 0.131141 -2.03045e-15 -3.14893e-17)
(-2.3416e-15 2.07976e-30 -2.5997e-31 5.63831 8.8117e-15 5.90157e-15 0.129913 -2.09682e-16 -1.37403e-16)
(7.16289e-15 4.15952e-30 7.79911e-31 5.63831 -1.00719e-15 -2.02262e-17 0.129913 -2.02791e-15 -2.79112e-17)
(-4.10795e-15 1.86953e-29 1.79429e-30 5.50597 7.21504e-15 5.80002e-15 0.128721 -1.98232e-16 -1.35839e-16)
(-7.19961e-15 -1.43497e-29 -1.28122e-30 5.50597 -1.63951e-15 2.94194e-17 0.128721 -2.04115e-15 -2.25415e-17)
(4.65968e-16 8.36347e-30 1.26437e-30 5.37771 5.22165e-15 5.812e-15 0.127562 -1.40276e-16 -1.36623e-16)
(-9.51094e-15 -4.04115e-30 -7.57715e-31 5.37771 -3.57392e-16 4.41916e-17 0.127562 -2.05386e-15 -1.57562e-17)
(0 7.96645e-30 7.46855e-31 5.25337 5.19613e-15 5.85921e-15 0.126436 -1.08347e-16 -1.40393e-16)
(0 -3.98323e-30 -1.41994e-33 5.25337 9.11131e-16 -1.17482e-31 0.126436 -2.03731e-15 -1.02318e-17)
(0 5.8892e-30 4.90767e-31 5.13278 6.22957e-15 5.86028e-15 0.125341 -1.43142e-16 -1.42924e-16)
(5.09749e-15 -1.96307e-30 -2.45383e-31 5.13278 -4.58367e-16 1.0699e-17 0.125341 -2.02729e-15 -5.94886e-18)
(-3.42767e-16 1.89992e-29 1.6908e-30 5.01581 6.44704e-15 5.8611e-15 0.124276 -1.62584e-16 -1.44559e-16)
(0 -1.74144e-29 0 5.01581 -2.18941e-15 0 0.124276 -2.05002e-15 -1.13556e-18)
(0 -1.9072e-29 -2.6224e-30 4.90232 6.85703e-15 5.85346e-15 0.12324 -1.58237e-16 -1.47152e-16)
(1.47563e-14 1.9072e-29 2.62348e-30 4.90232 -1.7046e-15 -3.67581e-17 0.12324 -2.08695e-15 1.33469e-18)
(2.11654e-15 -7.51946e-30 -2.34983e-31 4.79216 7.0678e-15 5.81008e-15 0.122232 -1.88198e-16 -1.48405e-16)
(1.48259e-14 7.51946e-30 2.34983e-31 4.79216 -2.24611e-15 4.7771e-18 0.122232 -2.08798e-15 7.49689e-18)
(-3.7237e-15 4.53458e-30 6.99974e-31 4.68522 5.90444e-15 5.78778e-15 0.121252 -1.73748e-16 -1.49224e-16)
(0 0 -2.31615e-31 4.68522 -2.73405e-15 1.40867e-17 0.121252 -2.11077e-15 1.32178e-17)
(-1.87039e-15 5.92042e-30 2.30823e-31 4.58136 5.2946e-15 5.79754e-15 0.120297 -1.32811e-16 -1.51584e-16)
(1.49632e-14 0 2.28296e-31 4.58136 -1.45524e-15 -1.06334e-18 0.120297 -2.1392e-15 1.8979e-17)
(1.87887e-15 -9.46177e-30 -4.52181e-31 4.48049 5.5879e-15 5.81244e-15 0.119368 -1.46449e-16 -1.54114e-16)
(0 7.20075e-30 2.25023e-31 4.48049 -2.52726e-15 1.65315e-17 0.119368 -2.14727e-15 2.46943e-17)
(-1.88728e-15 2.25637e-30 2.23236e-31 4.38247 5.48309e-15 5.82167e-15 0.118463 -1.52505e-16 -1.56827e-16)
(0 3.54877e-30 2.21798e-31 4.38247 -2.4152e-15 2.62351e-17 0.118463 -2.18386e-15 2.93028e-17)
(-1.89562e-15 9.24992e-30 6.56878e-31 4.28722 5.18206e-15 5.82523e-15 0.117582 -1.4501e-16 -1.59133e-16)
(7.58249e-15 -6.99582e-30 -4.37239e-31 4.28722 -3.68667e-16 -7.68653e-18 0.117582 -2.20133e-15 3.48844e-17)
(-1.9039e-15 5.69735e-30 6.47149e-31 4.19463 4.9462e-15 5.80679e-15 0.116724 -1.40277e-16 -1.61619e-16)
(5.67467e-15 0 -2.15486e-31 4.19463 -5.54133e-16 -1.46346e-17 0.116724 -2.20373e-15 4.05794e-17)
(-3.82423e-15 1.09082e-30 4.25013e-31 4.1046 4.58868e-15 5.76894e-15 0.115888 -1.35987e-16 -1.62757e-16)
(0 3.39836e-30 0 4.1046 -9.04004e-16 3.86471e-17 0.115888 -2.23039e-15 4.48103e-17)
(-1.92027e-15 8.94218e-30 6.27564e-31 4.01705 3.595e-15 5.79865e-15 0.115073 -1.23977e-16 -1.64193e-16)
(-1.88569e-15 -3.34965e-30 -2.09353e-31 4.01705 -1.97586e-15 2.15728e-17 0.115073 -2.25055e-15 5.0859e-17)
(0 -6.60329e-30 -6.19058e-31 3.93188 3.04558e-15 5.8748e-15 0.114278 -8.24225e-17 -1.69245e-16)
(-7.71346e-15 9.90493e-30 6.19058e-31 3.93188 -2.81557e-15 -2.84927e-17 0.114278 -2.28563e-15 5.58196e-17)
(-1.72764e-15 -8.75232e-30 -6.07372e-31 3.84901 4.18274e-15 5.90544e-15 0.113504 -9.53266e-17 -1.73477e-16)
(1.14096e-14 6.50865e-30 4.0679e-31 3.84901 -2.47348e-15 -4.35605e-17 0.113504 -2.31186e-15 6.09466e-17)
(1.38619e-16 -8.6465e-30 -5.97632e-31 3.76837 5.23289e-15 5.874e-15 0.112748 -1.52625e-16 -1.76029e-16)
(-5.97177e-15 6.41536e-30 4.0096e-31 3.76837 -2.36689e-15 -5.60077e-17 0.112748 -2.35584e-15 6.55418e-17)
(-1.72426e-16 8.54774e-30 5.88263e-31 3.68987 5.09455e-15 5.76917e-15 0.112012 -1.6163e-16 -1.76657e-16)
(6.02935e-15 0 -1.97607e-31 3.68987 -1.08031e-15 -6.85714e-17 0.112012 -2.3785e-15 7.01589e-17)
(0 6.23278e-30 5.84323e-31 3.61344 5.29899e-15 5.64206e-15 0.111293 -1.48607e-16 -1.74753e-16)
(-1.75437e-15 0 -3.89549e-31 3.61344 -7.06995e-16 -1.0864e-16 0.111293 -2.37683e-15 7.4347e-17)
(-1.72923e-15 1.22869e-29 5.75948e-31 3.53901 6.97794e-15 5.41897e-15 0.110593 -1.79091e-16 -1.7392e-16)
(6.14277e-15 -6.14345e-30 -1.91983e-31 3.53901 -1.48781e-15 -1.87608e-16 0.110593 -2.40022e-15 7.78321e-17)
(2.71326e-16 -8.24753e-30 -5.62526e-31 3.46651 7.60522e-15 5.03083e-15 0.109909 -2.58994e-16 -1.65783e-16)
(1.70444e-15 6.0554e-30 3.78462e-31 3.46651 -2.47549e-15 -1.22735e-16 0.109909 -2.41066e-15 7.99576e-17)
(0 8.95291e-30 3.73038e-31 3.39589 5.79372e-15 4.78343e-15 0.109241 -2.24529e-16 -1.54146e-16)
(-7.93395e-15 -5.96861e-30 -1.86519e-31 3.39589 -2.24153e-15 -7.88663e-17 0.109241 -2.44196e-15 8.74422e-17)
(-3.31187e-15 0 1.83846e-31 3.32707 5.05359e-15 4.60705e-15 0.10859 -1.48824e-16 -1.54558e-16)
(0 2.94153e-30 1.83846e-31 3.32707 -1.70411e-15 -1.46623e-16 0.10859 -2.45119e-15 9.20397e-17)
(0 5.79874e-30 1.81211e-31 3.26 6.23338e-15 4.36058e-15 0.107954 -1.82295e-16 -1.47028e-16)
(0 -2.89937e-30 0 3.26 -2.94482e-15 -1.27827e-16 0.107954 -2.46689e-15 9.92335e-17)
(2.00636e-15 9.26021e-30 6.25881e-31 3.19463 6.31379e-15 4.14667e-15 0.107333 -2.32122e-16 -1.42595e-16)
(0 -1.14313e-29 -8.03761e-31 3.19463 -4.05705e-15 -1.00598e-16 0.107333 -2.47907e-15 1.06766e-16)
(2.01389e-15 3.46385e-30 8.70832e-32 3.13089 4.22171e-15 4.00899e-15 0.106726 -1.93093e-16 -1.36814e-16)
(0 -2.81686e-30 -8.80268e-32 3.13089 -3.49685e-15 -7.8462e-17 0.106726 -2.49927e-15 1.14999e-16)
(-4.04276e-15 1.5824e-30 5.23829e-31 3.06873 2.05165e-15 3.95641e-15 0.106134 -9.48422e-17 -1.37291e-16)
(8.08551e-15 2.77648e-30 -1.7353e-31 3.06873 -1.54865e-15 -3.95315e-17 0.106134 -2.54027e-15 1.23037e-16)
(-2.02882e-15 -5.53419e-31 -8.88965e-34 3.00811 2.0898e-15 3.94626e-15 0.105556 -4.71274e-17 -1.58919e-16)
(0 5.47338e-30 2.56565e-31 3.00811 -8.44508e-16 -4.37442e-17 0.105556 -2.54252e-15 1.30726e-16)
(3.03708e-15 5.39493e-30 8.42958e-32 2.94898 3.50639e-15 3.85932e-15 0.10499 -1.00325e-16 -3.75185e-16)
(-3.03708e-15 -5.39493e-30 -8.42958e-32 2.94898 -3.09572e-16 -8.63237e-17 0.10499 -2.54117e-15 1.39612e-16)
(0 2.6588e-30 2.49263e-31 2.89128 2.97406e-15 3.63494e-15 0.104438 -1.50384e-16 -5.88228e-16)
(-2.99355e-15 0 -8.30876e-32 2.89128 6.06055e-16 -1.46018e-16 0.104438 -2.51747e-15 1.48245e-16)
(0 7.86209e-30 1.63794e-31 2.83498 2.5227e-15 3.35327e-15 0.103898 -6.44236e-17 -7.86133e-16)
(-2.95064e-15 0 0 2.83498 9.92607e-17 -3.05215e-16 0.103898 -2.51819e-15 1.55466e-16)
(0 7.74941e-30 2.42169e-31 2.78003 3.26002e-15 2.8281e-15 0.103371 -1.21379e-16 -8.28657e-16)
(1.35572e-14 -2.58314e-30 -1.61446e-31 2.78003 -4.52017e-16 -3.35703e-16 0.103371 -2.54923e-15 1.62724e-16)
(-4.13087e-15 4.32371e-30 1.15234e-31 2.72639 2.76658e-15 1.11746e-15 0.102855 -1.21684e-16 -8.30462e-16)
(8.26175e-15 0 0 2.72639 -1.24309e-15 -2.52126e-16 0.102855 -2.53285e-15 1.71002e-16)
(2.07264e-15 -7.18422e-30 -1.46984e-31 2.67403 2.88097e-15 -7.28826e-16 0.102351 -8.7338e-17 -7.31245e-16)
(0 5.01924e-30 1.56851e-31 2.67403 -3.59129e-15 -2.11483e-16 0.102351 -2.55381e-15 1.8227e-16)
(0 4.9473e-30 2.31905e-31 2.6229 3.61137e-15 -1.21944e-15 0.101858 -1.34091e-16 -6.04047e-16)
(-8.31926e-15 0 -7.73016e-32 2.6229 -3.27437e-15 -2.08903e-16 0.101858 -2.62545e-15 1.9614e-16)
(-4.83211e-15 -7.59895e-30 -2.77003e-31 2.57296 4.42887e-15 -1.67932e-15 0.101376 -1.47177e-16 -4.54368e-16)
(1.1093e-14 9.75279e-30 5.33356e-31 2.57296 -1.10598e-15 -2.61423e-16 0.101376 -2.64451e-15 2.09665e-16)
(0 7.20975e-30 2.25305e-31 2.52418 3.42397e-15 -2.30208e-15 0.100905 -2.03062e-16 -2.60197e-16)
(0 -2.40325e-30 -7.51016e-32 2.52418 -1.12801e-15 -1.2926e-16 0.100905 -2.64464e-15 2.22585e-16)
(0 -2.36881e-30 -7.40252e-32 2.47653 -3.75551e-17 -2.30917e-15 0.100443 -7.44702e-17 -8.83996e-17)
(0 2.36881e-30 7.40252e-32 2.47653 -2.72495e-17 1.54576e-17 0.100443 -2.64613e-15 2.43062e-16)
(-2.10815e-15 -1.92581e-31 7.94516e-32 2.42998 -3.06085e-15 -2.25194e-15 0.0999923 -1.7876e-16 -9.74193e-17)
(0 2.33486e-30 7.29642e-32 2.42998 2.6233e-15 -6.76079e-17 0.0999923 -2.62194e-15 2.59118e-16)
(-1.63916e-15 -1.18107e-29 -4.12168e-31 2.38448 -4.07993e-15 -2.24604e-15 0.0995509 -1.62554e-16 -9.04918e-17)
(1.69212e-14 1.61097e-29 7.19185e-31 2.38448 4.20488e-15 -4.33436e-18 0.0995509 -2.57377e-15 2.7583e-16)
(0 -1.13895e-29 4.25326e-31 2.34002 -9.365e-29 -1.95602e-15 0.099119 0 -7.54702e-17)
(0 -2.26841e-30 -2.83551e-31 2.34002 3.30572e-15 1.63754e-16 0.099119 -2.53002e-15 2.96165e-16)
(0 6.70768e-30 4.1923e-31 2.29656 1.01585e-15 -1.64444e-15 0.0986963 -4.59252e-17 -6.61096e-17)
(-2.51739e-15 0 -2.79487e-31 2.29656 2.35634e-15 1.151e-17 0.0986963 -2.51015e-15 3.14946e-16)
(-6.40787e-15 -8.92989e-30 -3.69141e-31 2.25407 -1.76577e-16 -1.68314e-15 0.0982826 -5.76924e-17 -8.10868e-17)
(1.70876e-14 1.54269e-29 9.64184e-31 2.25407 3.05901e-15 -1.43189e-16 0.0982826 -2.48953e-15 3.27903e-16)
(0 -2.27442e-29 -9.50364e-31 2.21253 -3.01781e-16 -1.95815e-15 0.0978776 -6.68899e-18 -9.26062e-17)
(1.71427e-14 1.73781e-29 9.50364e-31 2.21253 1.37336e-15 -5.4325e-17 0.0978776 -2.44559e-15 3.40811e-16)
(-4.56037e-15 1.07281e-29 4.20416e-31 2.17191 -7.96584e-16 -1.85457e-15 0.0974811 -6.53869e-17 -7.40774e-17)
(0 -4.28225e-30 -2.67641e-31 2.17191 2.90615e-16 -2.76654e-18 0.0974811 -2.44349e-15 3.52194e-16)