/*--------------------------------*- C++ -*----------------------------------*\
| =========                 |                                                 |
| \\      /  F ield         | OpenFOAM: The Open Source CFD Toolbox           |
|  \\    /   O peration     | Version:  2012                                  |
|   \\  /    A nd           | Website:  www.openfoam.com                      |
|    \\/     M anipulation  |                                                 |
\*---------------------------------------------------------------------------*/
FoamFile
{
    version     2.0;
    format      ascii;
    class       volScalarField;
    location    "13200";
    object      k;
}
// * * * * * * * * * * * * * * * * * * * * * * * * * * * * * * * * * * * * * //

dimensions      [0 2 -2 0 0 0 0];


internalField   nonuniform List<scalar> 
2560
(
0.0210597
0.021044
0.60069
0.600279
3.9068
3.90449
10.1108
10.1064
16.3399
16.3341
21.7682
21.7616
26.5402
26.5328
30.8437
30.8357
34.8079
34.7993
38.5185
38.5094
42.0339
42.0242
45.3953
45.3852
48.6333
48.6227
51.7709
51.7598
54.8259
54.8144
57.8128
57.8009
60.7432
60.7308
63.6268
63.6141
66.472
66.4588
69.2856
69.272
72.0737
72.0596
74.8414
74.8269
77.5932
77.5783
80.3332
80.3179
83.0649
83.0492
85.7917
85.7756
88.5167
88.5001
91.2425
91.2254
93.9718
93.9543
96.7072
96.6892
99.4508
99.4324
102.205
102.186
104.972
104.952
107.753
107.733
110.549
110.528
113.362
113.341
116.192
116.17
119.04
119.018
121.906
121.883
124.791
124.768
127.695
127.671
130.619
130.595
133.564
133.539
136.53
136.504
139.516
139.49
142.521
142.494
145.542
145.514
148.574
148.545
151.613
151.583
154.651
154.621
157.684
157.653
160.705
160.673
163.709
163.676
166.695
166.661
169.667
169.631
172.638
172.602
175.639
175.601
178.707
178.668
181.888
181.847
185.206
185.163
188.645
188.601
192.104
192.059
195.408
195.361
198.324
198.277
200.609
200.562
202.063
202.016
202.571
202.525
202.124
202.079
200.804
200.761
198.758
198.718
196.167
196.129
193.212
193.177
190.056
190.024
186.833
186.802
183.64
183.611
180.544
180.517
177.583
177.557
174.766
174.741
172.086
172.062
169.522
169.499
167.045
167.024
164.623
164.604
162.223
162.206
159.816
159.8
157.373
157.359
154.873
154.861
152.297
152.287
149.633
149.624
146.873
146.866
144.016
144.009
141.065
141.059
138.03
138.025
134.928
134.923
131.779
131.775
128.608
128.604
125.44
125.437
122.3
122.297
119.209
119.206
116.185
116.183
113.24
113.238
110.382
110.38
107.613
107.611
104.934
104.932
102.342
102.341
99.8369
99.8353
97.4164
97.4149
95.0802
95.0788
92.8287
92.8274
90.6624
90.6612
88.5815
88.5804
86.5853
86.5843
84.6708
84.6698
82.8328
82.8319
81.0638
81.063
79.3542
79.3536
77.6932
77.6926
76.0697
76.0692
74.4742
74.4738
72.9
72.8997
71.3444
71.3442
69.8093
69.8091
68.3009
68.3007
66.8285
66.8284
65.4031
65.403
64.0352
64.0351
62.7327
62.7326
61.501
61.5009
60.3399
60.3398
59.2457
59.2456
58.2123
58.2122
57.2324
57.2323
56.2984
56.2984
55.4043
55.4042
54.5453
54.5452
53.7187
53.7186
52.9232
52.9231
52.1586
52.1585
51.4252
51.4251
50.7234
50.7233
50.0534
50.0533
49.4149
49.4148
48.8071
48.807
48.2285
48.2283
47.6773
47.6771
47.1512
47.151
46.6479
46.6477
46.1653
46.1651
45.7015
45.7012
45.2552
45.2549
44.8259
44.8256
44.4138
44.4134
44.0198
44.0194
43.6456
43.6452
43.2932
43.2927
42.9648
42.9643
42.663
42.6625
42.3899
42.3893
42.1474
42.1467
41.9371
41.9363
41.7598
41.7589
41.616
41.615
41.5051
41.5041
41.4262
41.425
41.3771
41.3758
41.3547
41.3533
41.3548
41.3532
41.3717
41.37
41.3986
41.3967
41.4269
41.4249
41.4473
41.4452
41.4494
41.4472
41.423
41.4207
41.3582
41.356
41.2471
41.2452
41.0847
41.0833
40.8698
40.8692
40.6058
40.6058
40.2999
40.3004
39.9637
39.9644
39.6122
39.6128
39.2619
39.2624
38.9294
38.9298
38.629
38.6293
38.3711
38.3712
38.1612
38.1611
37.999
37.9988
37.8772
37.8768
37.7843
37.7838
37.706
37.7054
37.626
37.6253
37.5286
37.5281
37.4003
37.4001
37.2306
37.2311
37.0134
37.0145
36.7458
36.7473
36.4283
36.4298
36.0648
36.0663
35.662
35.6634
35.2282
35.2296
34.7728
34.774
34.3053
34.3063
33.8349
33.8358
33.3704
33.3712
32.9195
32.9201
32.4888
32.4894
32.0842
32.0847
31.7103
31.7107
31.3706
31.3709
31.0677
31.0679
30.8033
30.8035
30.5779
30.578
30.3909
30.3908
30.24
30.2399
30.1215
30.1213
30.0296
30.0293
29.9564
29.9561
29.8921
29.8917
29.8246
29.8241
29.7406
29.74
29.6263
29.6256
29.4685
29.4677
29.256
29.2551
28.9808
28.9799
28.6396
28.6388
28.2352
28.2346
27.7759
27.7757
27.2737
27.2739
26.7431
26.7434
26.2006
26.2008
25.6618
25.662
25.1396
25.1397
24.6422
24.6423
24.1728
24.1728
23.73
23.73
23.3083
23.3082
22.9005
22.9004
22.5
22.4999
22.1017
22.1015
21.7031
21.7029
21.305
21.305
20.9108
20.9108
20.5246
20.5247
20.1509
20.151
19.7936
19.7937
19.4558
19.4558
19.1393
19.1393
18.8449
18.8449
18.5726
18.5727
18.3223
18.3224
18.0935
18.0936
17.886
17.886
17.6994
17.6994
17.5336
17.5336
17.3881
17.3881
17.2624
17.2624
17.1556
17.1556
17.0667
17.0667
16.9944
16.9944
16.9377
16.9377
16.8953
16.8953
16.8664
16.8664
16.8503
16.8503
16.8467
16.8467
16.8556
16.8556
16.8772
16.8772
16.912
16.912
16.9605
16.9605
17.0231
17.0231
17.1004
17.1004
17.1924
17.1924
17.2993
17.2993
17.4208
17.4208
17.5567
17.5567
17.7067
17.7067
17.8704
17.8704
18.0476
18.0476
18.2382
18.2382
18.4418
18.4418
18.6585
18.6585
18.888
18.888
19.1303
19.1303
19.3853
19.3853
19.6528
19.6528
19.9327
19.9327
20.2249
20.2249
20.5293
20.5293
20.846
20.846
21.1751
21.1751
21.5169
21.5169
21.872
21.872
22.241
22.241
22.6246
22.6246
23.0233
23.0233
23.4377
23.4377
23.8682
23.8682
24.315
24.315
24.7781
24.7781
25.2577
25.2577
25.7538
25.7538
26.2666
26.2666
26.7967
26.7967
27.3447
27.3447
27.9116
27.9116
28.4984
28.4984
29.1065
29.1065
29.7373
29.7373
30.3922
30.3922
31.0726
31.0726
31.78
31.78
32.5157
32.5157
33.2809
33.2809
34.0766
34.0766
34.9029
34.9029
35.7584
35.7584
36.6376
36.6376
37.5271
37.5272
38.396
38.396
39.1783
39.1783
39.7438
39.7438
39.6943
39.6943
0.021044
0.0210597
0.600278
0.60069
3.90449
3.9068
10.1063
10.1108
16.3341
16.3399
21.7616
21.7682
26.5328
26.5402
30.8357
30.8437
34.7993
34.8079
38.5094
38.5185
42.0242
42.0339
45.3852
45.3953
48.6227
48.6333
51.7598
51.7709
54.8144
54.8259
57.8008
57.8128
60.7308
60.7432
63.614
63.6268
66.4587
66.472
69.272
69.2856
72.0596
72.0737
74.8269
74.8414
77.5783
77.5932
80.3178
80.3332
83.0492
83.0649
85.7756
85.7918
88.5
88.5167
91.2254
91.2425
93.9543
93.9718
96.6891
96.7072
99.4323
99.4508
102.186
102.205
104.952
104.972
107.733
107.753
110.528
110.549
113.341
113.362
116.17
116.192
119.018
119.04
121.883
121.906
124.767
124.791
127.671
127.695
130.595
130.619
133.539
133.564
136.504
136.53
139.49
139.516
142.494
142.521
145.514
145.542
148.545
148.574
151.583
151.613
154.621
154.651
157.653
157.684
160.673
160.705
163.676
163.709
166.661
166.695
169.631
169.667
172.602
172.639
175.601
175.639
178.668
178.707
181.847
181.888
185.163
185.206
188.601
188.645
192.059
192.104
195.361
195.408
198.277
198.324
200.562
200.609
202.015
202.063
202.525
202.571
202.079
202.124
200.761
200.804
198.718
198.758
196.129
196.167
193.177
193.212
190.024
190.056
186.802
186.833
183.611
183.64
180.517
180.544
177.556
177.583
174.741
174.766
172.062
172.086
169.499
169.522
167.024
167.045
164.604
164.623
162.206
162.223
159.8
159.816
157.359
157.373
154.861
154.873
152.287
152.297
149.624
149.633
146.866
146.873
144.009
144.016
141.059
141.065
138.025
138.03
134.923
134.928
131.775
131.779
128.604
128.608
125.437
125.44
122.297
122.3
119.206
119.209
116.183
116.185
113.238
113.24
110.38
110.382
107.611
107.613
104.932
104.934
102.34
102.342
99.8352
99.8369
97.4148
97.4163
95.0788
95.0802
92.8273
92.8286
90.6612
90.6623
88.5804
88.5815
86.5842
86.5853
84.6698
84.6707
82.8319
82.8327
81.063
81.0637
79.3535
79.3542
77.6925
77.6931
76.0691
76.0697
74.4737
74.4742
72.8996
72.9
71.3441
71.3444
69.809
69.8092
68.3006
68.3008
66.8283
66.8284
65.4029
65.403
64.035
64.0351
62.7325
62.7326
61.5008
61.5009
60.3397
60.3398
59.2455
59.2456
58.2121
58.2122
57.2321
57.2322
56.2982
56.2983
55.404
55.4041
54.5451
54.5451
53.7185
53.7185
52.923
52.9231
52.1584
52.1584
51.425
51.425
50.7232
50.7233
50.0532
50.0533
49.4146
49.4148
48.8068
48.8069
48.2282
48.2283
47.6769
47.6771
47.1508
47.151
46.6475
46.6477
46.1649
46.1651
45.701
45.7013
45.2547
45.255
44.8254
44.8257
44.4132
44.4136
44.0192
44.0196
43.645
43.6454
43.2925
43.293
42.9641
42.9647
42.6622
42.6628
42.3891
42.3897
42.1465
42.1472
41.9361
41.9369
41.7587
41.7596
41.6147
41.6157
41.5038
41.5049
41.4248
41.426
41.3756
41.3769
41.353
41.3545
41.353
41.3546
41.3698
41.3715
41.3965
41.3984
41.4247
41.4267
41.4449
41.4471
41.447
41.4493
41.4205
41.4228
41.3558
41.358
41.2451
41.247
41.0832
41.0845
40.8691
40.8697
40.6057
40.6057
40.3003
40.2998
39.9643
39.9636
39.6127
39.612
39.2623
39.2617
38.9296
38.9292
38.629
38.6288
38.3709
38.3708
38.1608
38.1609
37.9985
37.9987
37.8764
37.8768
37.7834
37.784
37.7049
37.7056
37.6249
37.6255
37.5277
37.5282
37.3997
37.3998
37.2307
37.2302
37.0141
37.013
36.7469
36.7455
36.4295
36.4279
36.0661
36.0645
35.6632
35.6617
35.2294
35.228
34.7739
34.7726
34.3062
34.3051
33.8357
33.8348
33.371
33.3702
32.92
32.9193
32.4893
32.4887
32.0845
32.0841
31.7104
31.7101
31.3706
31.3703
31.0676
31.0674
30.8031
30.803
30.5776
30.5776
30.3904
30.3904
30.2394
30.2395
30.1207
30.1209
30.0287
30.029
29.9555
29.9558
29.891
29.8915
29.8234
29.824
29.7393
29.74
29.625
29.6258
29.4672
29.4681
29.2546
29.2556
28.9795
28.9805
28.6385
28.6394
28.2345
28.2351
27.7757
27.7759
27.2739
27.2738
26.7435
26.7432
26.2009
26.2007
25.6621
25.6619
25.1398
25.1396
24.6423
24.6422
24.1727
24.1727
23.7298
23.7299
23.308
23.3081
22.9002
22.9004
22.4996
22.4999
22.1013
22.1016
21.7028
21.703
21.3048
21.305
20.9107
20.9107
20.5247
20.5246
20.151
20.1509
19.7937
19.7936
19.4559
19.4558
19.1393
19.1393
18.8449
18.8449
18.5727
18.5726
18.3224
18.3223
18.0936
18.0935
17.886
17.886
17.6994
17.6994
17.5336
17.5335
17.3881
17.3881
17.2624
17.2624
17.1556
17.1555
17.0666
17.0666
16.9944
16.9943
16.9376
16.9376
16.8952
16.8952
16.8663
16.8663
16.8503
16.8503
16.8467
16.8467
16.8556
16.8556
16.8773
16.8773
16.912
16.912
16.9605
16.9605
17.0232
17.0232
17.1004
17.1004
17.1924
17.1924
17.2993
17.2993
17.4208
17.4208
17.5567
17.5567
17.7067
17.7067
17.8704
17.8704
18.0476
18.0476
18.2381
18.2382
18.4418
18.4418
18.6584
18.6584
18.888
18.888
19.1303
19.1303
19.3853
19.3853
19.6528
19.6528
19.9327
19.9327
20.2249
20.2249
20.5293
20.5293
20.846
20.846
21.1751
21.1751
21.5169
21.5169
21.872
21.8721
22.241
22.241
22.6245
22.6246
23.0232
23.0233
23.4377
23.4377
23.8682
23.8682
24.3149
24.3149
24.7781
24.7781
25.2576
25.2576
25.7537
25.7537
26.2666
26.2666
26.7967
26.7967
27.3447
27.3447
27.9115
27.9115
28.4984
28.4984
29.1065
29.1065
29.7373
29.7373
30.3921
30.3921
31.0725
31.0725
31.7798
31.7798
32.5154
32.5155
33.2806
33.2806
34.0761
34.0762
34.9023
34.9023
35.7576
35.7576
36.6366
36.6366
37.5259
37.5259
38.3946
38.3946
39.1768
39.1768
39.7423
39.7423
39.6931
39.6931
39.6944
39.6944
39.7439
39.7439
39.1787
39.1787
38.3963
38.3963
37.5275
37.5275
36.6381
36.6381
35.7589
35.7589
34.9035
34.9035
34.0772
34.0772
33.2815
33.2815
32.5162
32.5162
31.7806
31.7805
31.0732
31.0732
30.3928
30.3927
29.7379
29.7379
29.1071
29.1071
28.4991
28.499
27.9122
27.9122
27.3454
27.3454
26.7974
26.7974
26.2673
26.2673
25.7544
25.7544
25.2584
25.2584
24.7789
24.7788
24.3157
24.3157
23.8689
23.8689
23.4384
23.4384
23.024
23.024
22.6253
22.6253
22.2418
22.2418
21.8728
21.8728
21.5177
21.5177
21.1759
21.1759
20.8468
20.8467
20.53
20.53
20.2256
20.2256
19.9333
19.9333
19.6533
19.6533
19.3858
19.3858
19.1308
19.1308
18.8884
18.8884
18.6588
18.6588
18.4422
18.4422
18.2385
18.2385
18.0479
18.0479
17.8706
17.8706
17.7069
17.7069
17.5568
17.5568
17.4209
17.4209
17.2993
17.2993
17.1924
17.1924
17.1003
17.1003
17.023
17.023
16.9603
16.9603
16.9118
16.9118
16.877
16.877
16.8553
16.8553
16.8463
16.8463
16.8498
16.8499
16.8658
16.8658
16.8946
16.8946
16.9369
16.9369
16.9936
16.9936
17.0658
17.0658
17.1547
17.1547
17.2615
17.2615
17.3871
17.3872
17.5325
17.5326
17.6983
17.6983
17.8848
17.8849
18.0923
18.0924
18.3211
18.3211
18.5713
18.5714
18.8435
18.8435
19.1378
19.1379
19.4542
19.4543
19.792
19.7921
20.1492
20.1493
20.5229
20.523
20.9091
20.9091
21.3035
21.3034
21.7017
21.7015
22.1004
22.1002
22.4989
22.4987
22.8995
22.8993
23.3073
23.3072
23.7292
23.7291
24.172
24.1721
24.6415
24.6416
25.139
25.1391
25.6613
25.6615
26.2002
26.2005
26.7429
26.7432
27.2737
27.2739
27.7762
27.776
28.2357
28.2351
28.6401
28.6393
28.9814
28.9804
29.2565
29.2556
29.469
29.4682
29.6268
29.626
29.7411
29.7404
29.825
29.8245
29.8925
29.8921
29.9569
29.9565
30.0299
30.0296
30.1217
30.1215
30.2402
30.2401
30.391
30.391
30.578
30.578
30.8033
30.8034
31.0676
31.0678
31.3704
31.3707
31.71
31.7104
32.0839
32.0844
32.4884
32.489
32.9189
32.9196
33.3698
33.3706
33.8342
33.8352
34.3045
34.3056
34.7719
34.7732
35.2273
35.2287
35.661
35.6625
36.0637
36.0653
36.4271
36.4287
36.7446
36.746
37.0121
37.0132
37.2293
37.2297
37.3988
37.3987
37.5271
37.5266
37.6242
37.6236
37.7041
37.7035
37.7824
37.7819
37.8753
37.8749
37.9971
37.9969
38.1593
38.1592
38.3692
38.3693
38.6271
38.6274
38.9275
38.9279
39.26
39.2606
39.6103
39.611
39.9618
39.9625
40.298
40.2985
40.604
40.604
40.8681
40.8675
41.0831
41.0817
41.2455
41.2436
41.3565
41.3543
41.4213
41.4189
41.4477
41.4454
41.4456
41.4433
41.4252
41.4231
41.3968
41.3948
41.3699
41.3681
41.353
41.3513
41.3528
41.3513
41.3751
41.3738
41.4242
41.4229
41.503
41.5019
41.6138
41.6127
41.7575
41.7566
41.9347
41.9339
42.1449
42.1442
42.3873
42.3866
42.6603
42.6597
42.9619
42.9614
43.2901
43.2896
43.6423
43.6419
44.0163
44.0159
44.41
44.4097
44.8219
44.8216
45.2509
45.2506
45.6969
45.6966
46.1604
46.1602
46.6427
46.6425
47.1457
47.1455
47.6715
47.6713
48.2225
48.2223
48.8008
48.8007
49.4084
49.4083
50.0466
50.0465
50.7163
50.7163
51.4179
51.4178
52.151
52.1509
52.9152
52.9151
53.7103
53.7102
54.5363
54.5363
55.3948
55.3948
56.2885
56.2884
57.2219
57.2218
58.2013
58.2013
59.2343
59.2342
60.328
60.3279
61.4886
61.4886
62.7199
62.7198
64.0218
64.0217
65.3892
65.3892
66.8142
66.8141
68.2861
68.286
69.7941
69.7939
71.3287
71.3285
72.8839
72.8836
74.4577
74.4573
76.0527
76.0523
77.6759
77.6753
79.3365
79.3359
81.0457
81.0449
82.8141
82.8133
84.6516
84.6507
86.5656
86.5646
88.5612
88.5602
90.6415
90.6404
92.8072
92.8059
95.0581
95.0567
97.3936
97.3922
99.8135
99.812
102.318
102.317
104.909
104.907
107.588
107.586
110.356
110.354
113.214
113.211
116.158
116.155
119.181
119.178
122.271
122.268
125.41
125.407
128.577
128.574
131.748
131.744
134.896
134.892
137.998
137.993
141.032
141.027
143.984
143.977
146.841
146.833
149.6
149.591
152.263
152.252
154.837
154.825
157.336
157.322
159.778
159.762
162.184
162.166
164.583
164.563
167.004
166.982
169.479
169.456
172.042
172.017
174.721
174.694
177.537
177.509
180.497
180.468
183.591
183.561
186.782
186.75
190.005
189.971
193.16
193.123
196.114
196.075
198.704
198.662
200.75
200.706
202.072
202.025
202.521
202.472
202.014
201.965
200.561
200.512
198.277
198.228
195.361
195.313
192.058
192.011
188.601
188.556
185.163
185.119
181.846
181.803
178.665
178.625
175.597
175.558
172.598
172.56
169.627
169.59
166.656
166.621
163.672
163.638
160.669
160.636
157.65
157.617
154.618
154.586
151.58
151.549
148.543
148.513
145.512
145.483
142.492
142.464
139.488
139.46
136.503
136.476
133.538
133.512
130.594
130.568
127.671
127.646
124.767
124.743
121.883
121.859
119.018
118.995
116.17
116.148
113.341
113.319
110.529
110.507
107.733
107.712
104.952
104.932
102.186
102.167
99.4325
99.4133
96.6893
96.6707
93.9546
93.9364
91.2258
91.2081
88.5005
88.4832
85.7761
85.7593
83.0498
83.0334
80.3185
80.3026
77.579
77.5636
74.8276
74.8127
72.0604
72.0459
69.2728
69.2587
66.4596
66.4459
63.615
63.6017
60.7318
60.719
57.8019
57.7895
54.8155
54.8036
51.761
51.7495
48.624
48.613
45.3866
45.376
42.0257
42.0156
38.5109
38.5014
34.8009
34.792
30.8374
30.829
26.5346
26.5269
21.7633
21.7565
16.3359
16.33
10.108
10.1033
3.90545
3.90306
0.600461
0.600035
0.0210521
0.0210358
39.6931
39.6931
39.7424
39.7424
39.1772
39.1772
38.395
38.395
37.5264
37.5264
36.6372
36.6372
35.7582
35.7582
34.9029
34.903
34.0768
34.0768
33.2812
33.2812
32.516
32.516
31.7804
31.7804
31.0731
31.0731
30.3927
30.3927
29.7378
29.7378
29.1071
29.1071
28.499
28.499
27.9122
27.9122
27.3453
27.3453
26.7973
26.7973
26.2672
26.2672
25.7544
25.7544
25.2583
25.2583
24.7788
24.7788
24.3157
24.3157
23.8689
23.8689
23.4384
23.4384
23.024
23.024
22.6253
22.6253
22.2418
22.2418
21.8728
21.8728
21.5177
21.5177
21.1759
21.1759
20.8467
20.8467
20.53
20.53
20.2255
20.2255
19.9333
19.9333
19.6533
19.6533
19.3858
19.3858
19.1307
19.1307
18.8884
18.8884
18.6588
18.6588
18.4421
18.4422
18.2385
18.2385
18.0479
18.0479
17.8706
17.8706
17.7069
17.7069
17.5568
17.5568
17.4209
17.4209
17.2993
17.2993
17.1924
17.1924
17.1003
17.1003
17.0231
17.0231
16.9604
16.9604
16.9118
16.9118
16.877
16.877
16.8553
16.8553
16.8463
16.8463
16.8498
16.8498
16.8658
16.8658
16.8946
16.8946
16.9368
16.9368
16.9935
16.9935
17.0657
17.0657
17.1546
17.1546
17.2614
17.2614
17.3871
17.3871
17.5325
17.5325
17.6983
17.6983
17.8848
17.8848
18.0923
18.0923
18.3211
18.321
18.5714
18.5713
18.8435
18.8435
19.1379
19.1378
19.4544
19.4542
19.7921
19.792
20.1493
20.1492
20.523
20.5229
20.9091
20.9091
21.3033
21.3034
21.7013
21.7016
22.1
22.1002
22.4984
22.4987
22.8991
22.8993
23.307
23.3071
23.729
23.729
24.172
24.1719
24.6416
24.6415
25.1392
25.139
25.6616
25.6614
26.2006
26.2003
26.7433
26.743
27.274
27.2738
27.776
27.7762
28.2349
28.2356
28.639
28.64
28.9801
28.9811
29.2551
29.2562
29.4676
29.4686
29.6255
29.6263
29.7398
29.7405
29.8239
29.8245
29.8915
29.892
29.9559
29.9563
30.0291
30.0294
30.121
30.1212
30.2396
30.2397
30.3905
30.3906
30.5776
30.5776
30.8031
30.803
31.0675
31.0673
31.3704
31.3701
31.7102
31.7098
32.0842
32.0837
32.4888
32.4883
32.9195
32.9188
33.3705
33.3696
33.835
33.8341
34.3054
34.3043
34.773
34.7717
35.2285
35.2271
35.6623
35.6607
36.065
36.0634
36.4284
36.4268
36.7457
36.7442
37.0129
37.0118
37.2294
37.2289
37.3983
37.3985
37.5262
37.5267
37.6232
37.6239
37.7031
37.7037
37.7816
37.7821
37.8746
37.875
37.9966
37.9969
38.159
38.159
38.3691
38.369
38.6272
38.6269
38.9278
38.9273
39.2604
39.2598
39.6108
39.6101
39.9624
39.9617
40.2984
40.2979
40.6039
40.6038
40.8674
40.868
41.0815
41.083
41.2434
41.2454
41.3541
41.3564
41.4188
41.4212
41.4452
41.4476
41.4431
41.4454
41.4229
41.425
41.3946
41.3966
41.3679
41.3698
41.3511
41.3528
41.3511
41.3527
41.3736
41.375
41.4227
41.424
41.5017
41.5029
41.6125
41.6136
41.7564
41.7574
41.9337
41.9345
42.144
42.1448
42.3864
42.3871
42.6595
42.6601
42.9612
42.9618
43.2894
43.2899
43.6417
43.6421
44.0158
44.0162
44.4095
44.4099
44.8214
44.8217
45.2504
45.2507
45.6965
45.6967
46.16
46.1603
46.6423
46.6426
47.1453
47.1455
47.6711
47.6713
48.2222
48.2223
48.8005
48.8007
49.4081
49.4082
50.0463
50.0465
50.7161
50.7162
51.4176
51.4177
52.1508
52.1508
52.915
52.9151
53.7101
53.7101
54.5361
54.5362
55.3946
55.3947
56.2883
56.2884
57.2217
57.2218
58.2012
58.2012
59.2341
59.2342
60.3278
60.3279
61.4885
61.4886
62.7197
62.7198
64.0216
64.0217
65.3891
65.3892
66.814
66.8141
68.2859
68.2861
69.7938
69.794
71.3284
71.3287
72.8835
72.8839
74.4572
74.4576
76.0522
76.0527
77.6752
77.6759
79.3358
79.3365
81.0448
81.0456
82.8132
82.8141
84.6506
84.6516
86.5645
86.5656
88.5601
88.5612
90.6402
90.6415
92.8058
92.8071
95.0566
95.058
97.392
97.3936
99.8118
99.8135
102.316
102.318
104.907
104.909
107.586
107.588
110.354
110.356
113.211
113.214
116.155
116.158
119.178
119.181
122.268
122.271
125.407
125.41
128.574
128.577
131.744
131.748
134.891
134.896
137.993
137.998
141.027
141.033
143.977
143.984
146.833
146.841
149.591
149.6
152.252
152.263
154.825
154.837
157.322
157.336
159.762
159.778
162.166
162.184
164.563
164.583
166.982
167.004
169.455
169.479
172.017
172.042
174.694
174.721
177.509
177.537
180.468
180.497
183.561
183.591
186.75
186.782
189.971
190.005
193.123
193.16
196.075
196.114
198.662
198.705
200.705
200.751
202.025
202.072
202.472
202.521
201.965
202.014
200.512
200.562
198.228
198.277
195.313
195.362
192.011
192.058
188.556
188.601
185.119
185.163
181.803
181.846
178.625
178.665
175.558
175.597
172.56
172.598
169.59
169.627
166.621
166.657
163.638
163.672
160.636
160.67
157.617
157.65
154.586
154.618
151.549
151.58
148.513
148.543
145.483
145.512
142.464
142.492
139.461
139.488
136.476
136.503
133.512
133.538
130.568
130.594
127.646
127.671
124.743
124.767
121.86
121.883
118.995
119.018
116.148
116.171
113.319
113.341
110.507
110.529
107.712
107.733
104.932
104.953
102.167
102.186
99.4133
99.4327
96.6707
96.6895
93.9364
93.9547
91.2081
91.2259
88.4833
88.5006
85.7593
85.7762
83.0335
83.0499
80.3026
80.3186
77.5636
77.5791
74.8127
74.8278
72.0459
72.0605
69.2587
69.2729
66.4459
66.4597
63.6017
63.6151
60.719
60.7319
57.7895
57.802
54.8036
54.8156
51.7495
51.7611
48.613
48.6241
45.376
45.3866
42.0156
42.0257
38.5014
38.511
34.792
34.801
30.829
30.8374
26.5269
26.5346
21.7564
21.7634
16.33
16.3359
10.1033
10.108
3.90305
3.90546
0.600035
0.600463
0.0210358
0.0210521
)
;

boundaryField
{
    walls
    {
        type            kqRWallFunction;
        value           nonuniform List<scalar> 8(0.0210597 0.021044 0.021044 0.0210597 0.0210521 0.0210358 0.0210358 0.0210521);
    }
    inlet
    {
        type            cyclic;
    }
    outlet
    {
        type            cyclic;
    }
    sides
    {
        type            empty;
    }
}


// ************************************************************************* //
