/*--------------------------------*- C++ -*----------------------------------*\
| =========                 |                                                 |
| \\      /  F ield         | OpenFOAM: The Open Source CFD Toolbox           |
|  \\    /   O peration     | Version:  2012                                  |
|   \\  /    A nd           | Website:  www.openfoam.com                      |
|    \\/     M anipulation  |                                                 |
\*---------------------------------------------------------------------------*/
FoamFile
{
    version     2.0;
    format      ascii;
    class       volScalarField;
    location    "13200";
    object      omega;
}
// * * * * * * * * * * * * * * * * * * * * * * * * * * * * * * * * * * * * * //

dimensions      [0 0 -1 0 0 0 0];


internalField   nonuniform List<scalar> 
2560
(
1.52418e+06
1.52418e+06
263616
263619
87211
87213.8
42050.1
42050.7
26442.5
26442
19371.9
19371.1
15446
15445.3
12957.8
12957
11236.8
11236.1
9972.48
9971.85
9002
9001.42
8232.1
8231.56
7605.46
7604.96
7084.89
7084.42
6645.17
6644.73
6268.6
6268.18
5942.36
5941.97
5656.94
5656.58
5405.14
5404.79
5181.38
5181.04
4981.27
4980.95
4801.31
4801.01
4638.69
4638.4
4491.1
4490.82
4356.63
4356.36
4233.71
4233.45
4121.01
4120.75
4017.4
4017.15
3921.92
3921.68
3833.77
3833.53
3752.22
3751.99
3676.68
3676.46
3606.61
3606.38
3541.53
3541.31
3481.02
3480.81
3424.72
3424.51
3372.28
3372.07
3323.41
3323.21
3277.84
3277.63
3235.32
3235.12
3195.65
3195.45
3158.63
3158.43
3124.1
3123.9
3091.89
3091.69
3061.85
3061.65
3033.83
3033.63
3007.68
3007.48
2983.25
2983.04
2960.37
2960.16
2938.91
2938.7
2918.71
2918.5
2899.66
2899.45
2881.65
2881.43
2864.6
2864.38
2848.51
2848.28
2833.45
2833.22
2819.63
2819.39
2807.34
2807.09
2796.9
2796.64
2788.47
2788.21
2781.89
2781.62
2776.33
2776.05
2770.45
2770.17
2762.52
2762.23
2750.77
2750.48
2733.79
2733.51
2710.79
2710.52
2681.72
2681.45
2647.14
2646.88
2608.06
2607.82
2565.68
2565.46
2521.23
2521.02
2475.79
2475.59
2430.25
2430.07
2385.29
2385.12
2341.34
2341.18
2298.65
2298.5
2257.31
2257.16
2217.25
2217.11
2178.35
2178.21
2140.4
2140.28
2103.2
2103.09
2066.52
2066.42
2030.16
2030.07
1993.94
1993.86
1957.7
1957.63
1921.31
1921.26
1884.69
1884.65
1847.78
1847.74
1810.54
1810.51
1773.01
1772.98
1735.22
1735.2
1697.29
1697.27
1659.32
1659.3
1621.48
1621.46
1583.91
1583.9
1546.78
1546.77
1510.22
1510.21
1474.34
1474.33
1439.22
1439.21
1404.91
1404.9
1371.42
1371.42
1338.76
1338.75
1306.91
1306.9
1275.86
1275.85
1245.6
1245.59
1216.12
1216.12
1187.43
1187.43
1159.52
1159.52
1132.41
1132.41
1106.07
1106.07
1080.5
1080.5
1055.65
1055.65
1031.47
1031.47
1007.9
1007.9
984.866
984.867
962.286
962.287
940.095
940.097
918.245
918.247
896.713
896.716
875.507
875.51
854.662
854.665
834.235
834.238
814.294
814.297
794.903
794.906
776.113
776.116
757.955
757.958
740.427
740.43
723.503
723.506
707.143
707.147
691.298
691.301
675.918
675.921
660.961
660.964
646.396
646.399
632.202
632.205
618.367
618.37
604.889
604.892
591.764
591.767
578.993
578.996
566.574
566.577
554.501
554.504
542.768
542.77
531.361
531.363
520.268
520.271
509.474
509.476
498.961
498.962
488.714
488.716
478.72
478.722
468.97
468.971
459.456
459.457
450.177
450.178
441.135
441.136
432.336
432.337
423.787
423.788
415.497
415.497
407.475
407.476
399.731
399.73
392.269
392.269
385.096
385.095
378.212
378.211
371.617
371.615
365.305
365.303
359.269
359.266
353.496
353.493
347.97
347.966
342.667
342.663
337.563
337.557
332.622
332.616
327.808
327.802
323.079
323.072
318.39
318.383
313.698
313.69
308.961
308.954
304.147
304.141
299.235
299.23
294.217
294.215
289.105
289.105
283.924
283.926
278.714
278.716
273.528
273.53
268.424
268.426
263.46
263.462
258.686
258.688
254.136
254.137
249.829
249.83
245.763
245.763
241.91
241.91
238.233
238.232
234.681
234.679
231.2
231.199
227.74
227.738
224.254
224.254
220.71
220.712
217.087
217.09
213.375
213.379
209.573
209.578
205.693
205.698
201.752
201.756
197.773
197.777
193.783
193.787
189.808
189.811
185.873
185.876
182.002
182.005
178.217
178.219
174.535
174.537
170.972
170.974
167.54
167.541
164.248
164.249
161.104
161.105
158.11
158.11
155.267
155.268
152.574
152.574
150.023
150.024
147.605
147.605
145.302
145.302
143.096
143.095
140.959
140.958
138.862
138.861
136.771
136.769
134.651
134.65
132.472
132.471
130.206
130.204
127.832
127.831
125.343
125.342
122.744
122.743
120.051
120.05
117.29
117.29
114.492
114.493
111.693
111.694
108.927
108.928
106.222
106.222
103.594
103.594
101.051
101.051
98.5898
98.5898
96.1972
96.1972
93.8581
93.858
91.5573
91.5571
89.2834
89.2831
87.0306
87.0303
84.7998
84.7997
82.5972
82.5973
80.431
80.4313
78.3097
78.31
76.2408
76.2411
74.2303
74.2305
72.2813
72.2815
70.3951
70.3953
68.5717
68.5719
66.8102
66.8103
65.1095
65.1096
63.4687
63.4689
61.8872
61.8873
60.364
60.3641
58.8981
58.8982
57.4881
57.4882
56.1319
56.132
54.8274
54.8275
53.5721
53.5721
52.3634
52.3635
51.1991
51.1991
50.077
50.0771
48.9958
48.9958
47.9541
47.9542
46.9514
46.9515
45.9875
45.9875
45.0622
45.0623
44.1758
44.1758
43.3281
43.3281
42.5191
42.5191
41.7482
41.7482
41.0148
41.0148
40.3179
40.3179
39.6564
39.6564
39.0291
39.0291
38.435
38.435
37.8729
37.8729
37.3418
37.3418
36.8407
36.8407
36.3689
36.3689
35.9253
35.9253
35.5092
35.5092
35.1196
35.1196
34.7559
34.7559
34.417
34.417
34.1023
34.1023
33.8111
33.8111
33.5426
33.5427
33.2966
33.2966
33.0726
33.0726
32.8704
32.8704
32.6901
32.6901
32.5316
32.5316
32.3948
32.3948
32.2797
32.2797
32.186
32.186
32.1135
32.1135
32.0617
32.0617
32.0303
32.0303
32.0189
32.0189
32.0275
32.0275
32.0559
32.0559
32.1043
32.1043
32.173
32.173
32.2623
32.2623
32.3729
32.3729
32.5053
32.5053
32.6602
32.6602
32.8381
32.8381
33.0398
33.0398
33.2658
33.2658
33.5168
33.5168
33.7931
33.7931
34.0947
34.0947
34.4211
34.4211
34.7694
34.7694
35.1333
35.1333
35.4979
35.4979
35.8321
35.8321
36.0747
36.0747
36.0389
36.0389
1.52418e+06
1.52418e+06
263619
263616
87213.8
87211
42050.7
42050.1
26442
26442.5
19371.1
19371.9
15445.3
15446
12957
12957.8
11236.1
11236.8
9971.85
9972.48
9001.42
9002
8231.56
8232.1
7604.96
7605.46
7084.42
7084.89
6644.73
6645.17
6268.18
6268.6
5941.97
5942.36
5656.57
5656.94
5404.79
5405.14
5181.04
5181.38
4980.95
4981.27
4801.01
4801.31
4638.4
4638.69
4490.82
4491.1
4356.36
4356.63
4233.45
4233.71
4120.75
4121.01
4017.15
4017.4
3921.68
3921.92
3833.53
3833.77
3751.99
3752.22
3676.46
3676.68
3606.38
3606.61
3541.31
3541.53
3480.81
3481.02
3424.51
3424.72
3372.07
3372.28
3323.21
3323.41
3277.63
3277.84
3235.12
3235.32
3195.45
3195.65
3158.43
3158.63
3123.9
3124.1
3091.69
3091.89
3061.65
3061.85
3033.63
3033.83
3007.48
3007.68
2983.04
2983.25
2960.16
2960.37
2938.7
2938.91
2918.5
2918.71
2899.45
2899.66
2881.43
2881.65
2864.38
2864.6
2848.28
2848.51
2833.22
2833.45
2819.39
2819.63
2807.09
2807.34
2796.64
2796.9
2788.21
2788.47
2781.62
2781.89
2776.05
2776.33
2770.17
2770.45
2762.23
2762.52
2750.48
2750.77
2733.51
2733.79
2710.52
2710.79
2681.45
2681.72
2646.88
2647.14
2607.82
2608.06
2565.46
2565.68
2521.02
2521.23
2475.59
2475.79
2430.07
2430.25
2385.12
2385.29
2341.18
2341.34
2298.5
2298.65
2257.16
2257.31
2217.11
2217.25
2178.21
2178.35
2140.28
2140.4
2103.09
2103.2
2066.42
2066.52
2030.07
2030.16
1993.86
1993.94
1957.63
1957.7
1921.26
1921.31
1884.65
1884.69
1847.74
1847.78
1810.51
1810.54
1772.98
1773.01
1735.2
1735.22
1697.27
1697.29
1659.3
1659.32
1621.46
1621.48
1583.9
1583.91
1546.77
1546.78
1510.21
1510.22
1474.33
1474.34
1439.21
1439.22
1404.9
1404.91
1371.42
1371.42
1338.75
1338.76
1306.9
1306.91
1275.85
1275.86
1245.59
1245.6
1216.12
1216.12
1187.43
1187.43
1159.52
1159.52
1132.41
1132.41
1106.07
1106.07
1080.5
1080.5
1055.65
1055.65
1031.47
1031.47
1007.9
1007.9
984.867
984.866
962.287
962.286
940.097
940.095
918.247
918.245
896.716
896.713
875.51
875.507
854.665
854.661
834.238
834.235
814.297
814.293
794.906
794.903
776.116
776.113
757.958
757.955
740.43
740.426
723.506
723.503
707.146
707.143
691.301
691.297
675.92
675.917
660.963
660.96
646.398
646.395
632.204
632.201
618.37
618.367
604.891
604.888
591.766
591.764
578.995
578.993
566.576
566.573
554.503
554.501
542.769
542.767
531.363
531.36
520.27
520.268
509.475
509.473
498.962
498.96
488.715
488.713
478.721
478.719
468.97
468.969
459.456
459.455
450.177
450.176
441.136
441.134
432.336
432.335
423.787
423.786
415.497
415.496
407.475
407.475
399.73
399.73
392.268
392.268
385.094
385.095
378.21
378.211
371.614
371.616
365.302
365.304
359.265
359.268
353.492
353.495
347.965
347.969
342.662
342.667
337.556
337.562
332.615
332.621
327.801
327.808
323.071
323.079
318.382
318.39
313.689
313.697
308.953
308.961
304.14
304.147
299.229
299.234
294.215
294.217
289.105
289.105
283.925
283.923
278.716
278.713
273.53
273.527
268.426
268.423
263.462
263.46
258.687
258.685
254.137
254.136
249.829
249.829
245.762
245.762
241.909
241.909
238.231
238.232
234.678
234.68
231.197
231.199
227.737
227.739
224.253
224.253
220.711
220.709
217.089
217.086
213.378
213.374
209.577
209.572
205.697
205.692
201.756
201.751
197.777
197.773
193.787
193.783
189.811
189.807
185.876
185.873
182.005
182.002
178.219
178.216
174.537
174.535
170.973
170.971
167.541
167.539
164.249
164.248
161.104
161.103
158.11
158.109
155.267
155.266
152.573
152.573
150.022
150.022
147.603
147.603
145.301
145.301
143.094
143.094
140.957
140.958
138.859
138.86
136.768
136.769
134.649
134.65
132.469
132.471
130.203
130.205
127.83
127.832
125.341
125.343
122.742
122.744
120.05
120.051
117.29
117.29
114.493
114.493
111.694
111.694
108.928
108.927
106.222
106.222
103.594
103.594
101.051
101.051
98.5895
98.5895
96.1967
96.1969
93.8575
93.8577
91.5566
91.557
89.2827
89.2831
87.03
87.0303
84.7995
84.7996
82.5972
82.5971
80.4313
80.431
78.31
78.3097
76.2412
76.2408
74.2306
74.2303
72.2816
72.2813
70.3954
70.3951
68.5719
68.5717
66.8103
66.8101
65.1096
65.1094
63.4688
63.4687
61.8873
61.8871
60.364
60.3639
58.8981
58.898
57.4881
57.488
56.1319
56.1318
54.8274
54.8273
53.572
53.5719
52.3634
52.3633
51.199
51.1989
50.077
50.077
48.9958
48.9957
47.9541
47.9541
46.9515
46.9514
45.9876
45.9875
45.0623
45.0623
44.1759
44.1758
43.3282
43.3281
42.5191
42.5191
41.7483
41.7482
41.0149
41.0148
40.3179
40.3179
39.6564
39.6564
39.0292
39.0291
38.435
38.435
37.8729
37.8729
37.3418
37.3417
36.8407
36.8407
36.3689
36.3688
35.9253
35.9253
35.5092
35.5091
35.1196
35.1196
34.7559
34.7558
34.417
34.417
34.1023
34.1023
33.8111
33.8111
33.5427
33.5426
33.2966
33.2966
33.0726
33.0726
32.8704
32.8704
32.6901
32.6901
32.5316
32.5316
32.3948
32.3948
32.2797
32.2797
32.186
32.186
32.1134
32.1134
32.0616
32.0616
32.0302
32.0302
32.0189
32.0189
32.0275
32.0275
32.0559
32.0559
32.1043
32.1043
32.1729
32.1729
32.2623
32.2623
32.3729
32.3729
32.5053
32.5053
32.6601
32.6601
32.8381
32.8381
33.0397
33.0397
33.2657
33.2657
33.5166
33.5166
33.7928
33.7928
34.0945
34.0945
34.4207
34.4207
34.7689
34.7689
35.1327
35.1327
35.4972
35.4972
35.8314
35.8314
36.074
36.074
36.0383
36.0383
36.0389
36.0389
36.0747
36.0747
35.8322
35.8322
35.498
35.498
35.1335
35.1335
34.7696
34.7696
34.4213
34.4213
34.095
34.095
33.7933
33.7933
33.517
33.517
33.266
33.266
33.04
33.04
32.8383
32.8383
32.6603
32.6603
32.5055
32.5055
32.3731
32.3731
32.2625
32.2625
32.1731
32.1731
32.1045
32.1045
32.0561
32.0561
32.0276
32.0276
32.0191
32.0191
32.0304
32.0304
32.0618
32.0618
32.1136
32.1136
32.1861
32.1861
32.2798
32.2798
32.3949
32.3949
32.5316
32.5316
32.6901
32.6901
32.8704
32.8704
33.0725
33.0725
33.2965
33.2965
33.5425
33.5425
33.8109
33.8109
34.1021
34.1021
34.4167
34.4167
34.7554
34.7554
35.1191
35.1191
35.5086
35.5086
35.9247
35.9247
36.3682
36.3682
36.84
36.84
37.3409
37.3409
37.8719
37.872
38.434
38.434
39.028
39.0281
39.6552
39.6552
40.3166
40.3166
41.0134
41.0134
41.7467
41.7468
42.5175
42.5175
43.3264
43.3265
44.174
44.174
45.0603
45.0604
45.9855
45.9855
46.9493
46.9493
47.9518
47.9519
48.9934
48.9934
50.0745
50.0745
51.1963
51.1964
52.3605
52.3606
53.569
53.5691
54.8243
54.8244
56.1287
56.1288
57.4848
57.4849
58.8948
58.8949
60.3605
60.3606
61.8836
61.8837
63.4651
63.4652
65.1057
65.1058
66.8063
66.8065
68.5677
68.5679
70.3911
70.3913
72.2771
72.2774
74.226
74.2262
76.2364
76.2367
78.3051
78.3055
80.4264
80.4267
82.5927
82.5928
84.7955
84.7954
87.0265
87.0263
89.2796
89.2793
91.5538
91.5535
93.8549
93.8547
96.1942
96.1941
98.5869
98.587
101.049
101.049
103.592
103.592
106.219
106.22
108.925
108.926
111.691
111.692
114.491
114.491
117.289
117.289
120.05
120.05
122.743
122.742
125.343
125.341
127.832
127.83
130.205
130.203
132.471
132.47
134.65
134.649
136.769
136.768
138.861
138.86
140.958
140.957
143.094
143.094
145.301
145.301
147.603
147.603
150.021
150.021
152.571
152.572
155.264
155.265
158.107
158.107
161.1
161.101
164.244
164.246
167.536
167.537
170.967
170.969
174.53
174.532
178.212
178.214
181.997
182
185.867
185.87
189.802
189.805
193.777
193.781
197.766
197.771
201.745
201.749
205.685
205.69
209.565
209.57
213.367
213.371
217.079
217.082
220.702
220.703
224.245
224.245
227.731
227.729
231.19
231.189
234.67
234.669
238.222
238.221
241.9
241.899
245.752
245.752
249.818
249.819
254.125
254.126
258.675
258.676
263.449
263.451
268.412
268.415
273.516
273.519
278.702
278.705
283.912
283.914
289.093
289.094
294.206
294.204
299.223
299.218
304.136
304.129
308.949
308.942
313.686
313.678
318.378
318.37
323.066
323.059
327.795
327.788
332.609
332.602
337.549
337.543
342.653
342.648
347.955
347.951
353.481
353.477
359.253
359.25
365.289
365.286
371.6
371.598
378.194
378.193
385.077
385.076
392.25
392.249
399.71
399.71
407.454
407.454
415.475
415.475
423.764
423.764
432.312
432.313
441.11
441.111
450.15
450.151
459.427
459.429
468.939
468.941
478.688
478.69
488.68
488.682
498.925
498.927
509.436
509.439
520.229
520.232
531.321
531.323
542.726
542.728
554.458
554.461
566.529
566.532
578.947
578.95
591.717
591.72
604.84
604.843
618.317
618.32
632.148
632.151
646.34
646.343
660.902
660.905
675.856
675.86
691.234
691.237
707.076
707.08
723.434
723.438
740.355
740.359
757.881
757.885
776.037
776.04
794.824
794.828
814.213
814.216
834.152
834.156
854.577
854.58
875.42
875.423
896.624
896.627
918.154
918.157
940.003
940.005
962.192
962.194
984.771
984.773
1007.81
1007.81
1031.37
1031.37
1055.55
1055.55
1080.4
1080.4
1105.97
1105.97
1132.3
1132.3
1159.41
1159.41
1187.32
1187.31
1216.01
1216
1245.48
1245.48
1275.74
1275.74
1306.79
1306.78
1338.64
1338.63
1371.3
1371.29
1404.78
1404.77
1439.09
1439.08
1474.21
1474.2
1510.08
1510.07
1546.64
1546.63
1583.77
1583.76
1621.33
1621.32
1659.17
1659.16
1697.14
1697.12
1735.08
1735.05
1772.86
1772.84
1810.4
1810.37
1847.63
1847.6
1884.55
1884.5
1921.16
1921.11
1957.54
1957.48
1993.78
1993.7
2030
2029.9
2066.35
2066.25
2103.02
2102.91
2140.22
2140.09
2178.16
2178.02
2217.06
2216.91
2257.11
2256.95
2298.45
2298.29
2341.12
2340.96
2385.07
2384.89
2430.03
2429.84
2475.56
2475.36
2521
2520.78
2565.45
2565.22
2607.82
2607.57
2646.91
2646.65
2681.5
2681.22
2710.59
2710.3
2733.59
2733.3
2750.58
2750.28
2762.33
2762.03
2770.26
2769.97
2776.14
2775.85
2781.71
2781.43
2788.29
2788.02
2796.72
2796.45
2807.15
2806.9
2819.44
2819.2
2833.27
2833.03
2848.33
2848.09
2864.42
2864.19
2881.48
2881.25
2899.5
2899.28
2918.56
2918.34
2938.75
2938.53
2960.22
2960
2983.1
2982.89
3007.54
3007.33
3033.69
3033.48
3061.71
3061.5
3091.75
3091.54
3123.97
3123.75
3158.5
3158.29
3195.52
3195.31
3235.19
3234.98
3277.7
3277.49
3323.28
3323.06
3372.14
3371.93
3424.58
3424.36
3480.87
3480.65
3541.37
3541.15
3606.45
3606.22
3676.51
3676.28
3752.05
3751.81
3833.58
3833.34
3921.73
3921.48
4017.2
4016.94
4120.8
4120.54
4233.5
4233.23
4356.41
4356.13
4490.86
4490.57
4638.44
4638.14
4801.05
4800.73
4980.98
4980.65
5181.08
5180.73
5404.82
5404.46
5656.6
5656.22
5941.99
5941.59
6268.21
6267.78
6644.75
6644.29
7084.44
7083.95
7604.98
7604.45
8231.57
8231.01
9001.42
9000.82
9971.84
9971.19
11236.1
11235.4
12957
12956.2
15445.1
15444.4
19370.9
19370.2
26441.5
26441
42049.5
42050
87211.3
87214.2
263616
263620
1.52419e+06
1.52419e+06
36.0384
36.0383
36.074
36.074
35.8315
35.8315
35.4974
35.4974
35.1329
35.1329
34.7692
34.7692
34.4209
34.4209
34.0947
34.0947
33.7931
33.7931
33.5169
33.5169
33.2659
33.2659
33.0399
33.0399
32.8382
32.8383
32.6603
32.6603
32.5054
32.5054
32.3731
32.3731
32.2625
32.2625
32.1731
32.1731
32.1045
32.1045
32.056
32.056
32.0276
32.0276
32.019
32.019
32.0304
32.0304
32.0618
32.0618
32.1136
32.1136
32.1861
32.1861
32.2797
32.2797
32.3948
32.3948
32.5316
32.5316
32.6901
32.6901
32.8704
32.8704
33.0725
33.0725
33.2965
33.2965
33.5425
33.5425
33.8109
33.8109
34.1021
34.1021
34.4167
34.4167
34.7554
34.7554
35.1191
35.1191
35.5086
35.5086
35.9247
35.9247
36.3682
36.3682
36.84
36.84
37.3409
37.3409
37.872
37.8719
38.434
38.434
39.0281
39.028
39.6552
39.6552
40.3166
40.3166
41.0135
41.0134
41.7468
41.7468
42.5176
42.5175
43.3265
43.3265
44.1741
44.174
45.0604
45.0604
45.9855
45.9855
46.9493
46.9493
47.9519
47.9518
48.9934
48.9933
50.0745
50.0744
51.1963
51.1962
52.3604
52.3604
53.569
53.5689
54.8242
54.8241
56.1287
56.1286
57.4848
57.4847
58.8948
58.8947
60.3606
60.3604
61.8837
61.8835
63.4652
63.465
65.1058
65.1056
66.8064
66.8063
68.5679
68.5677
70.3913
70.391
72.2774
72.2771
74.2263
74.226
76.2367
76.2364
78.3055
78.3051
80.4267
80.4263
82.5927
82.5925
84.7952
84.7953
87.0259
87.0263
89.2789
89.2793
91.5531
91.5534
93.8542
93.8545
96.1937
96.1938
98.5866
98.5866
101.048
101.048
103.592
103.591
106.22
106.219
108.926
108.925
111.692
111.692
114.492
114.491
117.289
117.289
120.05
120.05
122.742
122.743
125.341
125.343
127.829
127.831
130.202
130.204
132.469
132.47
134.648
134.649
136.767
136.768
138.858
138.859
140.956
140.956
143.093
143.093
145.299
145.299
147.601
147.601
150.02
150.02
152.571
152.57
155.264
155.264
158.107
158.106
161.101
161.1
164.245
164.244
167.537
167.535
170.969
170.967
174.532
174.53
178.214
178.211
181.999
181.996
185.87
185.867
189.805
189.801
193.78
193.776
197.77
197.766
201.749
201.744
205.69
205.685
209.57
209.565
213.371
213.366
217.081
217.078
220.702
220.701
224.244
224.244
227.728
227.729
231.187
231.189
234.668
234.669
238.22
238.221
241.898
241.899
245.751
245.751
249.818
249.818
254.126
254.125
258.676
258.674
263.451
263.448
268.415
268.412
273.519
273.516
278.705
278.702
283.914
283.912
289.093
289.093
294.203
294.205
299.218
299.223
304.129
304.136
308.941
308.949
313.677
313.685
318.369
318.377
323.058
323.066
327.788
327.795
332.602
332.608
337.542
337.548
342.648
342.653
347.95
347.954
353.477
353.48
359.25
359.253
365.286
365.288
371.597
371.599
378.192
378.194
385.076
385.077
392.249
392.249
399.709
399.71
407.454
407.454
415.474
415.474
423.764
423.763
432.312
432.311
441.11
441.109
450.15
450.149
459.428
459.426
468.94
468.939
478.689
478.687
488.681
488.679
498.926
498.924
509.438
509.436
520.231
520.229
531.323
531.32
542.728
542.725
554.46
554.458
566.532
566.529
578.95
578.947
591.719
591.716
604.842
604.839
618.319
618.316
632.151
632.148
646.342
646.339
660.905
660.902
675.859
675.856
691.236
691.233
707.079
707.076
723.437
723.434
740.359
740.355
757.884
757.881
776.04
776.036
794.828
794.824
814.216
814.213
834.155
834.152
854.58
854.577
875.423
875.42
896.627
896.624
918.157
918.155
940.005
940.003
962.194
962.192
984.772
984.771
1007.81
1007.81
1031.37
1031.37
1055.55
1055.55
1080.39
1080.4
1105.97
1105.97
1132.3
1132.3
1159.41
1159.41
1187.31
1187.32
1216
1216.01
1245.48
1245.48
1275.74
1275.74
1306.78
1306.79
1338.63
1338.64
1371.29
1371.3
1404.77
1404.78
1439.08
1439.09
1474.2
1474.21
1510.07
1510.08
1546.63
1546.64
1583.76
1583.77
1621.32
1621.33
1659.16
1659.18
1697.12
1697.14
1735.05
1735.08
1772.84
1772.86
1810.37
1810.4
1847.59
1847.64
1884.5
1884.55
1921.11
1921.16
1957.48
1957.54
1993.7
1993.78
2029.9
2030
2066.25
2066.35
2102.91
2103.02
2140.09
2140.22
2178.02
2178.16
2216.91
2217.06
2256.95
2257.11
2298.29
2298.45
2340.96
2341.13
2384.89
2385.07
2429.84
2430.03
2475.36
2475.56
2520.78
2521
2565.22
2565.45
2607.58
2607.83
2646.65
2646.91
2681.22
2681.51
2710.3
2710.59
2733.3
2733.6
2750.28
2750.58
2762.03
2762.33
2769.97
2770.26
2775.85
2776.14
2781.43
2781.71
2788.02
2788.29
2796.45
2796.72
2806.9
2807.16
2819.2
2819.45
2833.03
2833.27
2848.09
2848.33
2864.2
2864.43
2881.26
2881.48
2899.28
2899.5
2918.34
2918.56
2938.54
2938.76
2960.01
2960.22
2982.89
2983.1
3007.33
3007.54
3033.48
3033.7
3061.5
3061.72
3091.55
3091.76
3123.76
3123.97
3158.29
3158.5
3195.31
3195.52
3234.98
3235.19
3277.49
3277.71
3323.06
3323.28
3371.93
3372.15
3424.36
3424.58
3480.65
3480.88
3541.15
3541.37
3606.22
3606.45
3676.28
3676.52
3751.81
3752.05
3833.34
3833.59
3921.48
3921.74
4016.94
4017.2
4120.54
4120.81
4233.23
4233.5
4356.13
4356.41
4490.57
4490.87
4638.14
4638.45
4800.73
4801.05
4980.65
4980.99
5180.73
5181.08
5404.46
5404.83
5656.22
5656.61
5941.59
5942
6267.78
6268.21
6644.29
6644.75
7083.95
7084.44
7604.45
7604.98
8231.01
8231.58
9000.82
9001.43
9971.19
9971.85
11235.4
11236.1
12956.2
12957
15444.4
15445.1
19370.2
19370.9
26441
26441.5
42050
42049.5
87214.2
87211.3
263620
263616
1.52419e+06
1.52419e+06
)
;

boundaryField
{
    walls
    {
        blending        binomial2;
        n               2;
        beta1           0.075;
        type            omegaWallFunction;
        value           nonuniform List<scalar> 8(1.52418e+06 1.52418e+06 1.52418e+06 1.52418e+06 1.52419e+06 1.52419e+06 1.52419e+06 1.52419e+06);
    }
    inlet
    {
        type            cyclic;
    }
    outlet
    {
        type            cyclic;
    }
    sides
    {
        type            empty;
    }
}


// ************************************************************************* //
