/*--------------------------------*- C++ -*----------------------------------*\
| =========                 |                                                 |
| \\      /  F ield         | OpenFOAM: The Open Source CFD Toolbox           |
|  \\    /   O peration     | Version:  2012                                  |
|   \\  /    A nd           | Website:  www.openfoam.com                      |
|    \\/     M anipulation  |                                                 |
\*---------------------------------------------------------------------------*/
FoamFile
{
    version     2.0;
    format      ascii;
    class       volScalarField;
    location    "2000";
    object      nut;
}
// * * * * * * * * * * * * * * * * * * * * * * * * * * * * * * * * * * * * * //

dimensions      [0 2 -1 0 0 0 0];


internalField   nonuniform List<scalar> 
2560
(
1.9226e-13
1.9226e-13
1.62454e-13
1.62454e-13
1.46369e-13
1.46369e-13
1.56386e-13
1.56386e-13
2.428e-13
2.428e-13
5.25734e-13
5.25734e-13
1.2374e-12
1.2374e-12
2.77621e-12
2.77621e-12
5.77416e-12
5.77416e-12
1.11794e-11
1.11794e-11
2.0356e-11
2.0356e-11
3.5203e-11
3.5203e-11
5.82954e-11
5.82954e-11
9.30498e-11
9.30498e-11
1.43917e-10
1.43917e-10
2.16603e-10
2.16603e-10
3.18325e-10
3.18325e-10
4.58098e-10
4.58098e-10
6.47062e-10
6.47062e-10
8.98837e-10
8.98837e-10
1.22993e-09
1.22993e-09
1.66017e-09
1.66017e-09
2.21318e-09
2.21318e-09
2.91687e-09
2.91687e-09
3.80398e-09
3.80398e-09
4.91265e-09
4.91265e-09
6.28695e-09
6.28695e-09
7.97748e-09
7.97748e-09
1.00419e-08
1.00419e-08
1.25456e-08
1.25456e-08
1.5562e-08
1.5562e-08
1.9173e-08
1.9173e-08
2.34698e-08
2.34698e-08
2.85525e-08
2.85525e-08
3.45311e-08
3.45311e-08
4.15248e-08
4.15248e-08
4.96625e-08
4.96625e-08
5.90827e-08
5.90827e-08
6.99328e-08
6.99328e-08
8.23689e-08
8.23689e-08
9.65555e-08
9.65555e-08
1.12664e-07
1.12664e-07
1.30874e-07
1.30874e-07
1.51368e-07
1.51368e-07
1.74336e-07
1.74336e-07
1.99972e-07
1.99972e-07
2.28469e-07
2.28469e-07
2.60027e-07
2.60027e-07
2.94842e-07
2.94842e-07
3.33111e-07
3.33111e-07
3.7503e-07
3.7503e-07
4.20791e-07
4.20791e-07
4.70584e-07
4.70584e-07
5.24593e-07
5.24593e-07
5.82998e-07
5.82998e-07
6.45972e-07
6.45972e-07
7.13681e-07
7.13681e-07
7.86285e-07
7.86285e-07
8.63936e-07
8.63936e-07
9.46776e-07
9.46776e-07
1.03494e-06
1.03494e-06
1.12856e-06
1.12856e-06
1.22775e-06
1.22775e-06
1.33261e-06
1.33261e-06
1.44325e-06
1.44325e-06
1.55976e-06
1.55976e-06
1.68221e-06
1.68221e-06
1.81068e-06
1.81068e-06
1.94522e-06
1.94522e-06
2.08589e-06
2.08589e-06
2.23274e-06
2.23274e-06
2.38578e-06
2.38578e-06
2.54506e-06
2.54506e-06
2.71057e-06
2.71057e-06
2.88232e-06
2.88232e-06
3.06031e-06
3.06031e-06
3.24451e-06
3.24451e-06
3.43492e-06
3.43492e-06
3.63148e-06
3.63148e-06
3.83416e-06
3.83416e-06
4.04291e-06
4.04291e-06
4.25766e-06
4.25766e-06
4.47834e-06
4.47834e-06
4.70487e-06
4.70487e-06
4.93717e-06
4.93717e-06
5.17514e-06
5.17514e-06
5.41867e-06
5.41867e-06
5.66766e-06
5.66766e-06
5.92197e-06
5.92197e-06
6.18148e-06
6.18148e-06
6.44606e-06
6.44606e-06
6.71557e-06
6.71557e-06
6.98985e-06
6.98985e-06
7.26875e-06
7.26875e-06
7.55211e-06
7.55211e-06
7.83977e-06
7.83977e-06
8.13155e-06
8.13155e-06
8.42728e-06
8.42728e-06
8.72679e-06
8.72679e-06
9.02989e-06
9.02989e-06
9.3364e-06
9.3364e-06
9.64614e-06
9.64614e-06
9.95891e-06
9.95891e-06
1.02745e-05
1.02745e-05
1.05928e-05
1.05928e-05
1.09136e-05
1.09136e-05
1.12367e-05
1.12367e-05
1.15618e-05
1.15618e-05
1.1889e-05
1.1889e-05
1.22178e-05
1.22178e-05
1.25483e-05
1.25483e-05
1.28802e-05
1.28802e-05
1.32134e-05
1.32134e-05
1.35477e-05
1.35477e-05
1.3883e-05
1.3883e-05
1.42191e-05
1.42191e-05
1.4556e-05
1.4556e-05
1.48935e-05
1.48935e-05
1.52315e-05
1.52315e-05
1.55699e-05
1.55699e-05
1.59087e-05
1.59087e-05
1.62477e-05
1.62477e-05
1.65871e-05
1.65871e-05
1.69266e-05
1.69266e-05
1.72664e-05
1.72664e-05
1.76064e-05
1.76064e-05
1.79467e-05
1.79467e-05
1.82872e-05
1.82872e-05
1.86282e-05
1.86282e-05
1.89697e-05
1.89697e-05
1.93117e-05
1.93117e-05
1.96546e-05
1.96546e-05
1.99984e-05
1.99984e-05
2.03433e-05
2.03433e-05
2.06897e-05
2.06897e-05
2.10377e-05
2.10377e-05
2.13877e-05
2.13877e-05
2.17401e-05
2.17401e-05
2.20952e-05
2.20952e-05
2.24535e-05
2.24535e-05
2.28154e-05
2.28154e-05
2.31816e-05
2.31816e-05
2.35525e-05
2.35525e-05
2.39289e-05
2.39289e-05
2.43114e-05
2.43114e-05
2.47008e-05
2.47008e-05
2.50981e-05
2.50981e-05
2.5504e-05
2.5504e-05
2.59197e-05
2.59197e-05
2.63463e-05
2.63463e-05
2.67849e-05
2.67849e-05
2.72369e-05
2.72369e-05
2.77038e-05
2.77038e-05
2.81872e-05
2.81872e-05
2.86888e-05
2.86888e-05
2.92106e-05
2.92106e-05
2.97547e-05
2.97547e-05
3.03233e-05
3.03233e-05
3.09191e-05
3.09191e-05
3.15448e-05
3.15448e-05
3.22037e-05
3.22037e-05
3.2899e-05
3.2899e-05
3.36347e-05
3.36347e-05
3.44149e-05
3.44149e-05
3.52443e-05
3.52443e-05
3.61282e-05
3.61282e-05
3.70723e-05
3.70723e-05
3.80832e-05
3.80832e-05
3.91681e-05
3.91681e-05
4.0335e-05
4.0335e-05
4.15931e-05
4.15931e-05
4.29526e-05
4.29526e-05
4.44249e-05
4.44249e-05
4.6023e-05
4.6023e-05
4.77612e-05
4.77612e-05
4.96561e-05
4.96561e-05
5.17259e-05
5.17259e-05
5.39915e-05
5.39915e-05
5.64763e-05
5.64763e-05
5.92065e-05
5.92065e-05
6.2212e-05
6.2212e-05
6.55259e-05
6.55259e-05
6.91859e-05
6.91859e-05
7.32337e-05
7.32337e-05
7.77164e-05
7.77164e-05
8.26859e-05
8.26859e-05
8.82003e-05
8.82003e-05
9.43235e-05
9.43235e-05
0.000101126
0.000101126
0.000108684
0.000108684
0.000117081
0.000117081
0.000126407
0.000126407
0.000136759
0.000136759
0.000148239
0.000148239
0.000160955
0.000160954
0.000175019
0.000175018
0.000190548
0.000190548
0.000207662
0.000207662
0.000226483
0.000226483
0.000247133
0.000247133
0.000269736
0.000269736
0.000294412
0.000294412
0.000321281
0.000321281
0.00035046
0.00035046
0.000382059
0.000382059
0.000416185
0.000416185
0.00045294
0.00045294
0.000492418
0.000492418
0.000534706
0.000534706
0.000579884
0.000579884
0.000628024
0.000628024
0.000679187
0.000679187
0.000733426
0.000733426
0.000790787
0.000790786
0.0008513
0.0008513
0.00091499
0.00091499
0.000981869
0.000981869
0.00105194
0.00105194
0.00112519
0.00112519
0.00120159
0.00120159
0.00128113
0.00128113
0.00136375
0.00136375
0.00144939
0.00144939
0.001538
0.001538
0.00162949
0.00162949
0.00172378
0.00172378
0.00182077
0.00182077
0.00192036
0.00192036
0.00202243
0.00202243
0.00212685
0.00212685
0.0022335
0.0022335
0.00234224
0.00234224
0.00245292
0.00245292
0.00256539
0.00256539
0.0026795
0.0026795
0.00279509
0.00279509
0.00291199
0.00291199
0.00303005
0.00303005
0.00314909
0.00314909
0.00326895
0.00326895
0.00338946
0.00338946
0.00351046
0.00351046
0.00363178
0.00363178
0.00375326
0.00375326
0.00387473
0.00387473
0.00399605
0.00399605
0.00411705
0.00411705
0.00423758
0.00423758
0.00435751
0.00435751
0.00447668
0.00447668
0.00459496
0.00459496
0.00471223
0.00471223
0.00482835
0.00482835
0.00494321
0.00494321
0.00505668
0.00505668
0.00516867
0.00516867
0.00527906
0.00527906
0.00538777
0.00538777
0.00549469
0.00549469
0.00559974
0.00559974
0.00570284
0.00570284
0.0058039
0.0058039
0.00590287
0.00590287
0.00599967
0.00599967
0.00609424
0.00609424
0.00618652
0.00618652
0.00627646
0.00627646
0.00636401
0.00636401
0.00644912
0.00644912
0.00653174
0.00653174
0.00661185
0.00661185
0.0066894
0.0066894
0.00676435
0.00676435
0.00683669
0.00683669
0.00690637
0.00690637
0.00697338
0.00697338
0.00703769
0.00703769
0.00709929
0.00709929
0.00715814
0.00715814
0.00721424
0.00721424
0.00726757
0.00726757
0.00731812
0.00731812
0.00736588
0.00736588
0.00741084
0.00741084
0.007453
0.007453
0.00749234
0.00749234
0.00752888
0.00752888
0.00756262
0.00756262
0.00759356
0.00759356
0.00762171
0.00762171
0.00764709
0.00764709
0.00766972
0.00766972
0.00768962
0.00768962
0.00770682
0.00770682
0.00772137
0.00772137
0.0077333
0.0077333
0.00774268
0.00774267
0.00774956
0.00774956
0.00775402
0.00775402
0.00775615
0.00775615
0.00775605
0.00775605
0.00775383
0.00775383
0.00774962
0.00774962
0.00774357
0.00774357
0.00773584
0.00773584
0.00772662
0.00772662
0.00771611
0.00771611
0.00770452
0.00770452
0.00769211
0.0076921
0.00767912
0.00767912
0.00766585
0.00766585
0.00765259
0.00765259
0.00763963
0.00763963
0.00762731
0.00762731
0.00761593
0.00761593
0.0076058
0.0076058
0.00759723
0.00759723
0.00759049
0.00759049
0.00758582
0.00758582
0.00758341
0.00758341
1.9226e-13
1.9226e-13
1.62454e-13
1.62454e-13
1.46369e-13
1.46369e-13
1.56386e-13
1.56386e-13
2.428e-13
2.428e-13
5.25734e-13
5.25734e-13
1.2374e-12
1.2374e-12
2.7762e-12
2.7762e-12
5.77416e-12
5.77416e-12
1.11794e-11
1.11794e-11
2.0356e-11
2.0356e-11
3.5203e-11
3.5203e-11
5.82954e-11
5.82954e-11
9.30498e-11
9.30498e-11
1.43917e-10
1.43917e-10
2.16603e-10
2.16603e-10
3.18325e-10
3.18325e-10
4.58098e-10
4.58098e-10
6.47062e-10
6.47062e-10
8.98837e-10
8.98837e-10
1.22993e-09
1.22993e-09
1.66017e-09
1.66017e-09
2.21318e-09
2.21318e-09
2.91687e-09
2.91687e-09
3.80398e-09
3.80398e-09
4.91265e-09
4.91265e-09
6.28695e-09
6.28695e-09
7.97748e-09
7.97748e-09
1.00419e-08
1.00419e-08
1.25456e-08
1.25456e-08
1.5562e-08
1.5562e-08
1.9173e-08
1.9173e-08
2.34698e-08
2.34698e-08
2.85525e-08
2.85525e-08
3.45311e-08
3.45311e-08
4.15248e-08
4.15248e-08
4.96625e-08
4.96625e-08
5.90827e-08
5.90827e-08
6.99328e-08
6.99328e-08
8.23689e-08
8.23689e-08
9.65555e-08
9.65555e-08
1.12664e-07
1.12664e-07
1.30874e-07
1.30874e-07
1.51368e-07
1.51368e-07
1.74336e-07
1.74336e-07
1.99972e-07
1.99972e-07
2.28469e-07
2.28469e-07
2.60027e-07
2.60027e-07
2.94842e-07
2.94842e-07
3.33111e-07
3.33111e-07
3.7503e-07
3.7503e-07
4.20791e-07
4.20791e-07
4.70584e-07
4.70584e-07
5.24593e-07
5.24593e-07
5.82998e-07
5.82998e-07
6.45972e-07
6.45972e-07
7.13681e-07
7.13681e-07
7.86285e-07
7.86285e-07
8.63936e-07
8.63936e-07
9.46776e-07
9.46776e-07
1.03494e-06
1.03494e-06
1.12856e-06
1.12856e-06
1.22775e-06
1.22775e-06
1.33261e-06
1.33261e-06
1.44325e-06
1.44325e-06
1.55976e-06
1.55976e-06
1.68221e-06
1.68221e-06
1.81068e-06
1.81068e-06
1.94522e-06
1.94522e-06
2.08589e-06
2.08589e-06
2.23274e-06
2.23274e-06
2.38578e-06
2.38578e-06
2.54506e-06
2.54506e-06
2.71057e-06
2.71057e-06
2.88232e-06
2.88232e-06
3.06031e-06
3.06031e-06
3.24451e-06
3.24451e-06
3.43492e-06
3.43492e-06
3.63148e-06
3.63148e-06
3.83416e-06
3.83416e-06
4.04291e-06
4.04291e-06
4.25766e-06
4.25766e-06
4.47834e-06
4.47834e-06
4.70487e-06
4.70487e-06
4.93717e-06
4.93717e-06
5.17514e-06
5.17514e-06
5.41867e-06
5.41867e-06
5.66766e-06
5.66766e-06
5.92197e-06
5.92197e-06
6.18148e-06
6.18148e-06
6.44606e-06
6.44606e-06
6.71557e-06
6.71557e-06
6.98985e-06
6.98985e-06
7.26875e-06
7.26875e-06
7.55211e-06
7.55211e-06
7.83977e-06
7.83977e-06
8.13155e-06
8.13155e-06
8.42728e-06
8.42728e-06
8.72679e-06
8.72679e-06
9.02989e-06
9.02989e-06
9.3364e-06
9.3364e-06
9.64614e-06
9.64614e-06
9.95891e-06
9.95891e-06
1.02745e-05
1.02745e-05
1.05928e-05
1.05928e-05
1.09136e-05
1.09136e-05
1.12367e-05
1.12367e-05
1.15618e-05
1.15618e-05
1.1889e-05
1.1889e-05
1.22178e-05
1.22178e-05
1.25483e-05
1.25483e-05
1.28802e-05
1.28802e-05
1.32134e-05
1.32134e-05
1.35477e-05
1.35477e-05
1.3883e-05
1.3883e-05
1.42191e-05
1.42191e-05
1.4556e-05
1.4556e-05
1.48935e-05
1.48935e-05
1.52315e-05
1.52315e-05
1.55699e-05
1.55699e-05
1.59087e-05
1.59087e-05
1.62477e-05
1.62477e-05
1.65871e-05
1.65871e-05
1.69266e-05
1.69266e-05
1.72664e-05
1.72664e-05
1.76064e-05
1.76064e-05
1.79467e-05
1.79467e-05
1.82872e-05
1.82872e-05
1.86282e-05
1.86282e-05
1.89697e-05
1.89697e-05
1.93117e-05
1.93117e-05
1.96546e-05
1.96546e-05
1.99984e-05
1.99984e-05
2.03433e-05
2.03433e-05
2.06897e-05
2.06897e-05
2.10377e-05
2.10377e-05
2.13877e-05
2.13877e-05
2.17401e-05
2.17401e-05
2.20952e-05
2.20952e-05
2.24535e-05
2.24535e-05
2.28154e-05
2.28154e-05
2.31816e-05
2.31816e-05
2.35525e-05
2.35525e-05
2.39289e-05
2.39289e-05
2.43114e-05
2.43114e-05
2.47008e-05
2.47008e-05
2.50981e-05
2.50981e-05
2.5504e-05
2.5504e-05
2.59197e-05
2.59197e-05
2.63463e-05
2.63463e-05
2.67849e-05
2.67849e-05
2.72369e-05
2.72369e-05
2.77038e-05
2.77038e-05
2.81872e-05
2.81872e-05
2.86888e-05
2.86888e-05
2.92106e-05
2.92106e-05
2.97547e-05
2.97547e-05
3.03233e-05
3.03233e-05
3.09191e-05
3.09191e-05
3.15448e-05
3.15448e-05
3.22037e-05
3.22037e-05
3.2899e-05
3.2899e-05
3.36347e-05
3.36347e-05
3.44149e-05
3.44149e-05
3.52443e-05
3.52443e-05
3.61282e-05
3.61282e-05
3.70723e-05
3.70723e-05
3.80832e-05
3.80832e-05
3.91681e-05
3.9168e-05
4.0335e-05
4.0335e-05
4.15931e-05
4.15931e-05
4.29526e-05
4.29526e-05
4.44249e-05
4.44249e-05
4.6023e-05
4.60229e-05
4.77612e-05
4.77612e-05
4.96561e-05
4.96561e-05
5.17259e-05
5.17259e-05
5.39915e-05
5.39915e-05
5.64763e-05
5.64763e-05
5.92065e-05
5.92065e-05
6.2212e-05
6.22119e-05
6.55259e-05
6.55259e-05
6.91859e-05
6.91858e-05
7.32337e-05
7.32337e-05
7.77163e-05
7.77163e-05
8.26859e-05
8.26859e-05
8.82003e-05
8.82003e-05
9.43235e-05
9.43234e-05
0.000101126
0.000101126
0.000108684
0.000108684
0.000117081
0.000117081
0.000126407
0.000126407
0.000136759
0.000136759
0.000148239
0.000148239
0.000160954
0.000160954
0.000175018
0.000175018
0.000190548
0.000190548
0.000207662
0.000207662
0.000226483
0.000226482
0.000247133
0.000247133
0.000269736
0.000269736
0.000294412
0.000294412
0.000321281
0.000321281
0.00035046
0.000350459
0.000382058
0.000382058
0.000416185
0.000416185
0.00045294
0.00045294
0.000492418
0.000492418
0.000534706
0.000534706
0.000579884
0.000579884
0.000628024
0.000628023
0.000679186
0.000679186
0.000733426
0.000733426
0.000790786
0.000790786
0.0008513
0.0008513
0.00091499
0.00091499
0.000981869
0.000981869
0.00105194
0.00105194
0.00112519
0.00112519
0.00120159
0.00120159
0.00128113
0.00128113
0.00136374
0.00136374
0.00144939
0.00144939
0.001538
0.001538
0.00162949
0.00162949
0.00172378
0.00172378
0.00182077
0.00182077
0.00192036
0.00192036
0.00202243
0.00202243
0.00212685
0.00212685
0.0022335
0.0022335
0.00234224
0.00234224
0.00245292
0.00245292
0.00256539
0.00256539
0.0026795
0.0026795
0.00279509
0.00279509
0.00291199
0.00291199
0.00303005
0.00303005
0.00314909
0.00314909
0.00326895
0.00326895
0.00338946
0.00338946
0.00351046
0.00351046
0.00363178
0.00363178
0.00375326
0.00375326
0.00387473
0.00387473
0.00399605
0.00399605
0.00411705
0.00411705
0.00423758
0.00423758
0.00435751
0.00435751
0.00447668
0.00447668
0.00459496
0.00459496
0.00471223
0.00471223
0.00482835
0.00482835
0.00494321
0.00494321
0.00505668
0.00505668
0.00516867
0.00516867
0.00527906
0.00527906
0.00538777
0.00538777
0.00549469
0.00549469
0.00559974
0.00559974
0.00570284
0.00570283
0.0058039
0.0058039
0.00590287
0.00590287
0.00599967
0.00599967
0.00609424
0.00609424
0.00618652
0.00618652
0.00627646
0.00627646
0.00636401
0.00636401
0.00644912
0.00644912
0.00653174
0.00653174
0.00661185
0.00661185
0.0066894
0.00668939
0.00676435
0.00676435
0.00683669
0.00683669
0.00690637
0.00690637
0.00697338
0.00697338
0.00703769
0.00703769
0.00709929
0.00709929
0.00715814
0.00715814
0.00721424
0.00721424
0.00726757
0.00726757
0.00731812
0.00731812
0.00736588
0.00736588
0.00741084
0.00741084
0.007453
0.007453
0.00749234
0.00749234
0.00752888
0.00752888
0.00756262
0.00756262
0.00759356
0.00759356
0.00762171
0.00762171
0.00764709
0.00764709
0.00766972
0.00766972
0.00768962
0.00768962
0.00770682
0.00770682
0.00772137
0.00772137
0.0077333
0.0077333
0.00774267
0.00774267
0.00774956
0.00774956
0.00775402
0.00775402
0.00775615
0.00775615
0.00775605
0.00775605
0.00775383
0.00775383
0.00774962
0.00774962
0.00774357
0.00774357
0.00773584
0.00773584
0.00772662
0.00772662
0.0077161
0.0077161
0.00770452
0.00770452
0.0076921
0.0076921
0.00767912
0.00767912
0.00766585
0.00766585
0.00765258
0.00765258
0.00763963
0.00763963
0.00762731
0.00762731
0.00761593
0.00761592
0.0076058
0.0076058
0.00759723
0.00759723
0.00759049
0.00759049
0.00758582
0.00758582
0.00758341
0.00758341
0.00758341
0.00758341
0.00758581
0.00758581
0.00759048
0.00759048
0.00759721
0.00759721
0.00760578
0.00760578
0.0076159
0.0076159
0.00762728
0.00762728
0.0076396
0.0076396
0.00765255
0.00765255
0.00766581
0.00766581
0.00767908
0.00767908
0.00769206
0.00769206
0.00770447
0.00770447
0.00771606
0.00771606
0.00772657
0.00772657
0.00773579
0.00773579
0.00774352
0.00774352
0.00774957
0.00774957
0.00775378
0.00775378
0.007756
0.007756
0.0077561
0.0077561
0.00775397
0.00775397
0.00774951
0.00774951
0.00774262
0.00774262
0.00773325
0.00773325
0.00772132
0.00772132
0.00770677
0.00770677
0.00768957
0.00768957
0.00766967
0.00766967
0.00764705
0.00764705
0.00762167
0.00762167
0.00759352
0.00759352
0.00756258
0.00756258
0.00752885
0.00752885
0.00749231
0.00749231
0.00745296
0.00745296
0.00741081
0.00741081
0.00736585
0.00736585
0.0073181
0.0073181
0.00726755
0.00726755
0.00721422
0.00721422
0.00715812
0.00715812
0.00709927
0.00709927
0.00703768
0.00703768
0.00697337
0.00697337
0.00690636
0.00690636
0.00683668
0.00683668
0.00676434
0.00676434
0.00668939
0.00668939
0.00661185
0.00661185
0.00653174
0.00653174
0.00644912
0.00644912
0.00636402
0.00636402
0.00627647
0.00627647
0.00618654
0.00618654
0.00609426
0.00609426
0.00599969
0.00599969
0.00590289
0.00590289
0.00580393
0.00580393
0.00570286
0.00570286
0.00559977
0.00559977
0.00549472
0.00549472
0.0053878
0.0053878
0.0052791
0.0052791
0.00516871
0.00516871
0.00505672
0.00505672
0.00494325
0.00494325
0.0048284
0.0048284
0.00471228
0.00471228
0.00459501
0.00459501
0.00447673
0.00447673
0.00435756
0.00435756
0.00423764
0.00423764
0.00411711
0.00411711
0.00399611
0.00399611
0.0038748
0.0038748
0.00375332
0.00375332
0.00363185
0.00363185
0.00351053
0.00351053
0.00338953
0.00338953
0.00326902
0.00326902
0.00314916
0.00314916
0.00303012
0.00303012
0.00291206
0.00291206
0.00279516
0.00279516
0.00267957
0.00267957
0.00256547
0.00256547
0.00245299
0.00245299
0.00234231
0.00234231
0.00223358
0.00223358
0.00212693
0.00212693
0.0020225
0.0020225
0.00192043
0.00192043
0.00182084
0.00182084
0.00172385
0.00172385
0.00162956
0.00162956
0.00153806
0.00153806
0.00144946
0.00144946
0.00136381
0.00136381
0.00128119
0.00128119
0.00120165
0.00120165
0.00112525
0.00112525
0.00105199
0.00105199
0.000981924
0.000981923
0.000915042
0.000915042
0.00085135
0.00085135
0.000790834
0.000790834
0.000733472
0.000733471
0.00067923
0.000679229
0.000628064
0.000628064
0.000579922
0.000579922
0.000534742
0.000534742
0.000492451
0.000492451
0.000452971
0.000452971
0.000416214
0.000416214
0.000382085
0.000382085
0.000350484
0.000350484
0.000321304
0.000321304
0.000294433
0.000294433
0.000269755
0.000269754
0.00024715
0.00024715
0.000226498
0.000226498
0.000207676
0.000207676
0.00019056
0.00019056
0.00017503
0.00017503
0.000160965
0.000160965
0.000148248
0.000148248
0.000136767
0.000136767
0.000126415
0.000126415
0.000117087
0.000117087
0.00010869
0.000108689
0.000101131
0.000101131
9.43282e-05
9.43282e-05
8.82046e-05
8.82045e-05
8.26897e-05
8.26897e-05
7.77198e-05
7.77198e-05
7.32368e-05
7.32368e-05
6.91887e-05
6.91886e-05
6.55284e-05
6.55284e-05
6.22142e-05
6.22142e-05
5.92086e-05
5.92086e-05
5.64782e-05
5.64781e-05
5.39932e-05
5.39932e-05
5.17275e-05
5.17275e-05
4.96575e-05
4.96575e-05
4.77625e-05
4.77625e-05
4.60242e-05
4.60242e-05
4.4426e-05
4.4426e-05
4.29536e-05
4.29536e-05
4.15941e-05
4.1594e-05
4.03359e-05
4.03359e-05
3.91689e-05
3.91689e-05
3.8084e-05
3.8084e-05
3.70731e-05
3.70731e-05
3.61289e-05
3.61289e-05
3.5245e-05
3.5245e-05
3.44155e-05
3.44155e-05
3.36352e-05
3.36352e-05
3.28995e-05
3.28995e-05
3.22042e-05
3.22042e-05
3.15453e-05
3.15453e-05
3.09195e-05
3.09195e-05
3.03237e-05
3.03237e-05
2.97551e-05
2.97551e-05
2.9211e-05
2.9211e-05
2.86892e-05
2.86892e-05
2.81876e-05
2.81876e-05
2.77042e-05
2.77042e-05
2.72372e-05
2.72372e-05
2.67852e-05
2.67852e-05
2.63466e-05
2.63465e-05
2.592e-05
2.592e-05
2.55043e-05
2.55043e-05
2.50983e-05
2.50983e-05
2.47011e-05
2.47011e-05
2.43116e-05
2.43116e-05
2.39291e-05
2.39291e-05
2.35527e-05
2.35527e-05
2.31818e-05
2.31818e-05
2.28156e-05
2.28156e-05
2.24537e-05
2.24537e-05
2.20954e-05
2.20954e-05
2.17403e-05
2.17403e-05
2.13879e-05
2.13879e-05
2.10379e-05
2.10379e-05
2.06898e-05
2.06898e-05
2.03435e-05
2.03435e-05
1.99985e-05
1.99985e-05
1.96547e-05
1.96547e-05
1.93119e-05
1.93119e-05
1.89698e-05
1.89698e-05
1.86284e-05
1.86284e-05
1.82874e-05
1.82874e-05
1.79468e-05
1.79468e-05
1.76065e-05
1.76065e-05
1.72665e-05
1.72665e-05
1.69267e-05
1.69267e-05
1.65872e-05
1.65872e-05
1.62479e-05
1.62479e-05
1.59088e-05
1.59088e-05
1.557e-05
1.557e-05
1.52316e-05
1.52316e-05
1.48936e-05
1.48936e-05
1.45561e-05
1.45561e-05
1.42192e-05
1.42192e-05
1.38831e-05
1.38831e-05
1.35478e-05
1.35478e-05
1.32135e-05
1.32135e-05
1.28803e-05
1.28803e-05
1.25484e-05
1.25484e-05
1.22179e-05
1.22179e-05
1.1889e-05
1.1889e-05
1.15619e-05
1.15619e-05
1.12367e-05
1.12367e-05
1.09137e-05
1.09137e-05
1.05929e-05
1.05929e-05
1.02746e-05
1.02746e-05
9.95898e-06
9.95898e-06
9.6462e-06
9.6462e-06
9.33647e-06
9.33647e-06
9.02995e-06
9.02995e-06
8.72685e-06
8.72685e-06
8.42734e-06
8.42734e-06
8.13161e-06
8.13161e-06
7.83982e-06
7.83982e-06
7.55216e-06
7.55216e-06
7.2688e-06
7.2688e-06
6.98989e-06
6.98989e-06
6.71561e-06
6.71561e-06
6.44611e-06
6.44611e-06
6.18152e-06
6.18152e-06
5.92201e-06
5.92201e-06
5.66769e-06
5.66769e-06
5.41871e-06
5.41871e-06
5.17518e-06
5.17518e-06
4.93721e-06
4.93721e-06
4.70491e-06
4.70491e-06
4.47837e-06
4.47837e-06
4.25768e-06
4.25768e-06
4.04293e-06
4.04293e-06
3.83419e-06
3.83419e-06
3.6315e-06
3.6315e-06
3.43494e-06
3.43494e-06
3.24453e-06
3.24453e-06
3.06033e-06
3.06033e-06
2.88234e-06
2.88234e-06
2.71058e-06
2.71058e-06
2.54507e-06
2.54507e-06
2.3858e-06
2.3858e-06
2.23275e-06
2.23275e-06
2.08591e-06
2.08591e-06
1.94523e-06
1.94523e-06
1.81069e-06
1.81069e-06
1.68222e-06
1.68222e-06
1.55977e-06
1.55977e-06
1.44326e-06
1.44326e-06
1.33262e-06
1.33262e-06
1.22775e-06
1.22775e-06
1.12857e-06
1.12857e-06
1.03495e-06
1.03495e-06
9.46782e-07
9.46782e-07
8.63941e-07
8.63941e-07
7.8629e-07
7.8629e-07
7.13685e-07
7.13685e-07
6.45976e-07
6.45976e-07
5.83002e-07
5.83002e-07
5.24597e-07
5.24597e-07
4.70587e-07
4.70587e-07
4.20794e-07
4.20794e-07
3.75032e-07
3.75032e-07
3.33113e-07
3.33113e-07
2.94844e-07
2.94844e-07
2.60029e-07
2.60029e-07
2.28471e-07
2.28471e-07
1.99973e-07
1.99973e-07
1.74337e-07
1.74337e-07
1.51369e-07
1.51369e-07
1.30874e-07
1.30874e-07
1.12665e-07
1.12665e-07
9.65561e-08
9.65561e-08
8.23695e-08
8.23695e-08
6.99332e-08
6.99332e-08
5.90831e-08
5.90831e-08
4.96628e-08
4.96628e-08
4.1525e-08
4.1525e-08
3.45313e-08
3.45313e-08
2.85527e-08
2.85527e-08
2.34699e-08
2.34699e-08
1.91731e-08
1.91731e-08
1.5562e-08
1.5562e-08
1.25457e-08
1.25457e-08
1.0042e-08
1.0042e-08
7.97753e-09
7.97753e-09
6.28698e-09
6.28698e-09
4.91268e-09
4.91268e-09
3.804e-09
3.804e-09
2.91688e-09
2.91688e-09
2.21319e-09
2.21319e-09
1.66018e-09
1.66018e-09
1.22994e-09
1.22994e-09
8.98843e-10
8.98843e-10
6.47065e-10
6.47065e-10
4.58101e-10
4.58101e-10
3.18327e-10
3.18327e-10
2.16604e-10
2.16604e-10
1.43917e-10
1.43917e-10
9.30503e-11
9.30503e-11
5.82958e-11
5.82958e-11
3.52032e-11
3.52032e-11
2.03561e-11
2.03561e-11
1.11795e-11
1.11795e-11
5.77419e-12
5.77419e-12
2.77622e-12
2.77622e-12
1.23741e-12
1.23741e-12
5.25734e-13
5.25734e-13
2.42799e-13
2.42799e-13
1.56385e-13
1.56385e-13
1.46367e-13
1.46367e-13
1.62452e-13
1.62452e-13
1.92258e-13
1.92258e-13
0.00758341
0.00758341
0.00758581
0.00758581
0.00759048
0.00759048
0.00759721
0.00759721
0.00760578
0.00760578
0.0076159
0.0076159
0.00762728
0.00762728
0.0076396
0.0076396
0.00765255
0.00765255
0.00766581
0.00766581
0.00767908
0.00767908
0.00769206
0.00769206
0.00770447
0.00770447
0.00771606
0.00771606
0.00772657
0.00772657
0.00773579
0.00773579
0.00774352
0.00774352
0.00774957
0.00774957
0.00775378
0.00775378
0.007756
0.007756
0.0077561
0.0077561
0.00775397
0.00775397
0.0077495
0.0077495
0.00774262
0.00774262
0.00773325
0.00773325
0.00772132
0.00772132
0.00770677
0.00770677
0.00768957
0.00768957
0.00766967
0.00766967
0.00764705
0.00764705
0.00762167
0.00762167
0.00759352
0.00759352
0.00756258
0.00756258
0.00752885
0.00752885
0.00749231
0.00749231
0.00745296
0.00745296
0.00741081
0.00741081
0.00736585
0.00736585
0.0073181
0.00731809
0.00726755
0.00726755
0.00721422
0.00721422
0.00715812
0.00715812
0.00709927
0.00709927
0.00703768
0.00703768
0.00697337
0.00697337
0.00690636
0.00690636
0.00683668
0.00683668
0.00676434
0.00676434
0.00668939
0.00668939
0.00661185
0.00661185
0.00653174
0.00653174
0.00644912
0.00644912
0.00636402
0.00636402
0.00627647
0.00627647
0.00618654
0.00618654
0.00609426
0.00609426
0.00599969
0.00599969
0.00590289
0.00590289
0.00580393
0.00580393
0.00570286
0.00570286
0.00559977
0.00559976
0.00549472
0.00549472
0.0053878
0.0053878
0.0052791
0.0052791
0.00516871
0.00516871
0.00505672
0.00505672
0.00494325
0.00494325
0.0048284
0.0048284
0.00471228
0.00471228
0.00459501
0.00459501
0.00447673
0.00447673
0.00435756
0.00435756
0.00423764
0.00423764
0.00411711
0.00411711
0.00399611
0.00399611
0.0038748
0.0038748
0.00375332
0.00375332
0.00363185
0.00363185
0.00351053
0.00351053
0.00338953
0.00338953
0.00326902
0.00326902
0.00314916
0.00314916
0.00303012
0.00303012
0.00291206
0.00291206
0.00279516
0.00279516
0.00267957
0.00267957
0.00256547
0.00256547
0.00245299
0.00245299
0.00234231
0.00234231
0.00223358
0.00223358
0.00212693
0.00212693
0.0020225
0.0020225
0.00192043
0.00192043
0.00182084
0.00182084
0.00172385
0.00172385
0.00162956
0.00162956
0.00153806
0.00153806
0.00144946
0.00144946
0.00136381
0.00136381
0.00128119
0.00128119
0.00120165
0.00120165
0.00112525
0.00112524
0.00105199
0.00105199
0.000981923
0.000981923
0.000915042
0.000915042
0.00085135
0.00085135
0.000790834
0.000790834
0.000733471
0.000733471
0.000679229
0.000679229
0.000628064
0.000628064
0.000579922
0.000579922
0.000534742
0.000534742
0.000492451
0.000492451
0.000452971
0.000452971
0.000416214
0.000416214
0.000382085
0.000382085
0.000350484
0.000350484
0.000321304
0.000321304
0.000294433
0.000294433
0.000269754
0.000269754
0.00024715
0.00024715
0.000226498
0.000226498
0.000207676
0.000207676
0.00019056
0.00019056
0.00017503
0.00017503
0.000160965
0.000160965
0.000148248
0.000148248
0.000136767
0.000136767
0.000126415
0.000126414
0.000117087
0.000117087
0.000108689
0.000108689
0.000101131
0.000101131
9.43282e-05
9.43281e-05
8.82045e-05
8.82045e-05
8.26897e-05
8.26897e-05
7.77198e-05
7.77197e-05
7.32368e-05
7.32368e-05
6.91886e-05
6.91886e-05
6.55284e-05
6.55284e-05
6.22142e-05
6.22142e-05
5.92086e-05
5.92086e-05
5.64781e-05
5.64781e-05
5.39932e-05
5.39932e-05
5.17275e-05
5.17275e-05
4.96575e-05
4.96575e-05
4.77625e-05
4.77625e-05
4.60242e-05
4.60241e-05
4.4426e-05
4.4426e-05
4.29536e-05
4.29536e-05
4.1594e-05
4.1594e-05
4.03359e-05
4.03359e-05
3.91689e-05
3.91689e-05
3.8084e-05
3.8084e-05
3.70731e-05
3.7073e-05
3.61289e-05
3.61289e-05
3.5245e-05
3.52449e-05
3.44155e-05
3.44155e-05
3.36352e-05
3.36352e-05
3.28995e-05
3.28995e-05
3.22042e-05
3.22042e-05
3.15453e-05
3.15453e-05
3.09195e-05
3.09195e-05
3.03237e-05
3.03237e-05
2.97551e-05
2.97551e-05
2.9211e-05
2.9211e-05
2.86892e-05
2.86892e-05
2.81876e-05
2.81876e-05
2.77042e-05
2.77042e-05
2.72372e-05
2.72372e-05
2.67852e-05
2.67852e-05
2.63465e-05
2.63465e-05
2.592e-05
2.592e-05
2.55043e-05
2.55043e-05
2.50983e-05
2.50983e-05
2.47011e-05
2.47011e-05
2.43116e-05
2.43116e-05
2.39291e-05
2.39291e-05
2.35527e-05
2.35527e-05
2.31818e-05
2.31818e-05
2.28156e-05
2.28156e-05
2.24537e-05
2.24537e-05
2.20954e-05
2.20954e-05
2.17403e-05
2.17403e-05
2.13879e-05
2.13879e-05
2.10379e-05
2.10379e-05
2.06898e-05
2.06898e-05
2.03435e-05
2.03435e-05
1.99985e-05
1.99985e-05
1.96547e-05
1.96547e-05
1.93119e-05
1.93119e-05
1.89698e-05
1.89698e-05
1.86284e-05
1.86284e-05
1.82874e-05
1.82874e-05
1.79468e-05
1.79468e-05
1.76065e-05
1.76065e-05
1.72665e-05
1.72665e-05
1.69267e-05
1.69267e-05
1.65872e-05
1.65872e-05
1.62479e-05
1.62479e-05
1.59088e-05
1.59088e-05
1.557e-05
1.557e-05
1.52316e-05
1.52316e-05
1.48936e-05
1.48936e-05
1.45561e-05
1.45561e-05
1.42192e-05
1.42192e-05
1.38831e-05
1.38831e-05
1.35478e-05
1.35478e-05
1.32135e-05
1.32135e-05
1.28803e-05
1.28803e-05
1.25484e-05
1.25484e-05
1.22179e-05
1.22179e-05
1.1889e-05
1.1889e-05
1.15619e-05
1.15619e-05
1.12367e-05
1.12367e-05
1.09137e-05
1.09137e-05
1.05929e-05
1.05929e-05
1.02746e-05
1.02746e-05
9.95898e-06
9.95898e-06
9.6462e-06
9.6462e-06
9.33647e-06
9.33647e-06
9.02995e-06
9.02995e-06
8.72685e-06
8.72685e-06
8.42734e-06
8.42734e-06
8.13161e-06
8.13161e-06
7.83982e-06
7.83982e-06
7.55216e-06
7.55216e-06
7.2688e-06
7.2688e-06
6.98989e-06
6.98989e-06
6.71561e-06
6.71561e-06
6.44611e-06
6.44611e-06
6.18152e-06
6.18152e-06
5.92201e-06
5.92201e-06
5.66769e-06
5.66769e-06
5.41871e-06
5.41871e-06
5.17518e-06
5.17518e-06
4.93721e-06
4.93721e-06
4.70491e-06
4.70491e-06
4.47837e-06
4.47837e-06
4.25768e-06
4.25768e-06
4.04293e-06
4.04293e-06
3.83419e-06
3.83419e-06
3.6315e-06
3.6315e-06
3.43494e-06
3.43494e-06
3.24453e-06
3.24453e-06
3.06033e-06
3.06033e-06
2.88234e-06
2.88234e-06
2.71058e-06
2.71058e-06
2.54507e-06
2.54507e-06
2.3858e-06
2.3858e-06
2.23275e-06
2.23275e-06
2.08591e-06
2.08591e-06
1.94523e-06
1.94523e-06
1.81069e-06
1.81069e-06
1.68222e-06
1.68222e-06
1.55977e-06
1.55977e-06
1.44326e-06
1.44326e-06
1.33262e-06
1.33262e-06
1.22775e-06
1.22775e-06
1.12857e-06
1.12857e-06
1.03495e-06
1.03495e-06
9.46782e-07
9.46782e-07
8.63941e-07
8.63941e-07
7.8629e-07
7.8629e-07
7.13685e-07
7.13685e-07
6.45976e-07
6.45976e-07
5.83002e-07
5.83002e-07
5.24597e-07
5.24597e-07
4.70587e-07
4.70587e-07
4.20794e-07
4.20794e-07
3.75032e-07
3.75032e-07
3.33113e-07
3.33113e-07
2.94843e-07
2.94843e-07
2.60029e-07
2.60029e-07
2.28471e-07
2.28471e-07
1.99973e-07
1.99973e-07
1.74337e-07
1.74337e-07
1.51369e-07
1.51369e-07
1.30874e-07
1.30874e-07
1.12665e-07
1.12665e-07
9.65561e-08
9.65561e-08
8.23695e-08
8.23695e-08
6.99332e-08
6.99332e-08
5.90831e-08
5.90831e-08
4.96628e-08
4.96628e-08
4.1525e-08
4.1525e-08
3.45313e-08
3.45313e-08
2.85527e-08
2.85527e-08
2.34699e-08
2.34699e-08
1.91731e-08
1.91731e-08
1.5562e-08
1.5562e-08
1.25457e-08
1.25457e-08
1.0042e-08
1.0042e-08
7.97753e-09
7.97753e-09
6.28698e-09
6.28698e-09
4.91268e-09
4.91268e-09
3.804e-09
3.804e-09
2.91688e-09
2.91688e-09
2.21319e-09
2.21319e-09
1.66018e-09
1.66018e-09
1.22994e-09
1.22994e-09