/*--------------------------------*- C++ -*----------------------------------*\
| =========                 |                                                 |
| \\      /  F ield         | OpenFOAM: The Open Source CFD Toolbox           |
|  \\    /   O peration     | Version:  2012                                  |
|   \\  /    A nd           | Website:  www.openfoam.com                      |
|    \\/     M anipulation  |                                                 |
\*---------------------------------------------------------------------------*/
FoamFile
{
    version     2.0;
    format      ascii;
    class       volVectorField;
    location    "11000";
    object      U;
}
// * * * * * * * * * * * * * * * * * * * * * * * * * * * * * * * * * * * * * //

dimensions      [0 1 -1 0 0 0 0];


internalField   nonuniform List<vector> 
5120
(
(0.00115274 -1.23229e-15 -7.64084e-19)
(0.00115274 8.02827e-21 -5.90399e-35)
(0.00346642 -3.86181e-15 1.76433e-17)
(0.00346642 2.13821e-20 2.90967e-22)
(0.00579659 -3.82131e-15 1.78444e-17)
(0.00579659 1.32099e-19 -5.62789e-23)
(0.00814325 -3.52991e-15 1.84116e-17)
(0.00814325 2.26519e-19 -3.21469e-22)
(0.0105064 -3.56143e-15 1.89376e-17)
(0.0105064 3.23625e-19 -6.14095e-22)
(0.012886 -3.54901e-15 1.94372e-17)
(0.012886 4.22006e-19 -9.29666e-22)
(0.015282 -3.55656e-15 1.99545e-17)
(0.015282 5.19239e-19 -1.21959e-21)
(0.0176945 -3.55655e-15 2.04956e-17)
(0.0176945 6.19795e-19 -1.53079e-21)
(0.0201235 -3.55594e-15 2.10557e-17)
(0.0201235 7.22585e-19 -1.85606e-21)
(0.0225688 -3.55577e-15 2.16312e-17)
(0.0225688 8.17781e-19 -2.16346e-21)
(0.0250306 -3.55575e-15 2.22202e-17)
(0.0250306 9.17691e-19 -2.46466e-21)
(0.0275088 -3.55578e-15 2.28215e-17)
(0.0275088 1.01528e-18 -2.75549e-21)
(0.0300033 -3.55587e-15 2.34345e-17)
(0.0300033 1.10931e-18 -3.08481e-21)
(0.0325142 -3.55602e-15 2.40588e-17)
(0.0325142 1.21816e-18 -3.42585e-21)
(0.0350415 -3.55617e-15 2.46943e-17)
(0.0350415 1.32436e-18 -3.80638e-21)
(0.0375851 -3.55633e-15 2.53412e-17)
(0.0375851 1.42724e-18 -4.23549e-21)
(0.040145 -3.55651e-15 2.59996e-17)
(0.040145 1.53367e-18 -4.65374e-21)
(0.0427213 -3.55669e-15 2.66696e-17)
(0.0427213 1.63643e-18 -5.03105e-21)
(0.0453138 -3.55689e-15 2.73513e-17)
(0.0453138 1.73055e-18 -5.50507e-21)
(0.0479226 -3.55709e-15 2.8045e-17)
(0.0479226 1.83673e-18 -5.94176e-21)
(0.0505477 -3.5573e-15 2.87508e-17)
(0.0505477 1.95545e-18 -6.48777e-21)
(0.053189 -3.55751e-15 2.94689e-17)
(0.053189 2.07425e-18 -7.04337e-21)
(0.0558465 -3.55772e-15 3.01996e-17)
(0.0558465 2.19111e-18 -7.52701e-21)
(0.0585202 -3.55793e-15 3.09429e-17)
(0.0585202 2.29609e-18 -8.04107e-21)
(0.06121 -3.55814e-15 3.16992e-17)
(0.06121 2.39845e-18 -8.58743e-21)
(0.0639161 -3.55834e-15 3.24685e-17)
(0.0639161 2.48687e-18 -9.06933e-21)
(0.0666383 -3.55855e-15 3.3251e-17)
(0.0666383 2.56351e-18 -9.54224e-21)
(0.0693766 -3.55877e-15 3.40471e-17)
(0.0693766 2.66231e-18 -9.89602e-21)
(0.072131 -3.55901e-15 3.48568e-17)
(0.072131 2.78462e-18 -1.05024e-20)
(0.0749015 -3.55923e-15 3.56803e-17)
(0.0749015 2.89019e-18 -1.11189e-20)
(0.0776881 -3.55945e-15 3.65178e-17)
(0.0776881 2.98612e-18 -1.18343e-20)
(0.0804907 -3.55967e-15 3.73697e-17)
(0.0804907 3.10293e-18 -1.24918e-20)
(0.0833093 -3.55988e-15 3.8236e-17)
(0.0833093 3.21206e-18 -1.32032e-20)
(0.086144 -3.5601e-15 3.9117e-17)
(0.086144 3.32118e-18 -1.39023e-20)
(0.0889946 -3.56032e-15 4.0013e-17)
(0.0889946 3.40639e-18 -1.46327e-20)
(0.0918612 -3.56051e-15 4.09241e-17)
(0.0918612 3.48596e-18 -1.5279e-20)
(0.0947438 -3.56072e-15 4.18506e-17)
(0.0947438 3.56435e-18 -1.59557e-20)
(0.0976423 -3.56095e-15 4.27927e-17)
(0.0976423 3.64779e-18 -1.66587e-20)
(0.100557 -3.56118e-15 4.37506e-17)
(0.100557 3.73358e-18 -1.75469e-20)
(0.103487 -3.56141e-15 4.47245e-17)
(0.103487 3.79999e-18 -1.8105e-20)
(0.106433 -3.5616e-15 4.57148e-17)
(0.106433 3.85132e-18 -1.88319e-20)
(0.109395 -3.56181e-15 4.67217e-17)
(0.109395 3.93557e-18 -1.96188e-20)
(0.112373 -3.56209e-15 4.77452e-17)
(0.112373 4.06978e-18 -2.07465e-20)
(0.115367 -3.56237e-15 4.87856e-17)
(0.115367 4.21841e-18 -2.18396e-20)
(0.118376 -3.56263e-15 4.98432e-17)
(0.118376 4.35569e-18 -2.32823e-20)
(0.121401 -3.56285e-15 5.09182e-17)
(0.121401 4.45194e-18 -2.44549e-20)
(0.124442 -3.56308e-15 5.20109e-17)
(0.124442 4.56281e-18 -2.57593e-20)
(0.127499 -3.56337e-15 5.31215e-17)
(0.127499 4.70691e-18 -2.72024e-20)
(0.130571 -3.56367e-15 5.425e-17)
(0.130571 4.85335e-18 -2.88867e-20)
(0.133659 -3.56397e-15 5.53967e-17)
(0.133659 4.90217e-18 -3.05233e-20)
(0.136763 -3.56422e-15 5.65618e-17)
(0.136763 4.9751e-18 -3.20708e-20)
(0.139883 -3.56443e-15 5.77457e-17)
(0.139883 5.09204e-18 -3.3478e-20)
(0.143018 -3.56466e-15 5.89485e-17)
(0.143018 5.1184e-18 -3.47545e-20)
(0.146168 -3.56492e-15 6.01705e-17)
(0.146168 5.18001e-18 -3.59742e-20)
(0.149334 -3.56518e-15 6.14118e-17)
(0.149334 5.22486e-18 -3.72033e-20)
(0.152516 -3.56545e-15 6.26728e-17)
(0.152516 5.30693e-18 -3.86299e-20)
(0.155713 -3.56572e-15 6.39536e-17)
(0.155713 5.46916e-18 -4.01973e-20)
(0.158926 -3.56598e-15 6.52543e-17)
(0.158926 5.53426e-18 -4.1839e-20)
(0.162154 -3.56622e-15 6.65751e-17)
(0.162154 5.59692e-18 -4.38316e-20)
(0.165398 -3.56646e-15 6.79162e-17)
(0.165398 5.73701e-18 -4.55274e-20)
(0.168657 -3.56669e-15 6.92778e-17)
(0.168657 5.85738e-18 -4.71419e-20)
(0.171931 -3.56695e-15 7.06601e-17)
(0.171931 5.90023e-18 -4.95779e-20)
(0.175221 -3.56725e-15 7.20631e-17)
(0.175221 6.04394e-18 -5.20179e-20)
(0.178526 -3.56757e-15 7.34868e-17)
(0.178526 6.28581e-18 -5.51469e-20)
(0.181846 -3.56784e-15 7.49314e-17)
(0.181846 6.37029e-18 -5.81517e-20)
(0.185181 -3.56806e-15 7.63972e-17)
(0.185181 6.42988e-18 -6.05623e-20)
(0.188531 -3.56835e-15 7.7884e-17)
(0.188531 6.56695e-18 -6.3549e-20)
(0.191897 -3.56854e-15 7.9392e-17)
(0.191897 6.73686e-18 -6.69302e-20)
(0.195277 -3.56873e-15 8.09215e-17)
(0.195277 6.84363e-18 -7.04657e-20)
(0.198672 -3.56897e-15 8.24724e-17)
(0.198672 6.89697e-18 -7.32319e-20)
(0.202082 -3.56925e-15 8.4045e-17)
(0.202082 6.95158e-18 -7.65523e-20)
(0.205507 -3.56955e-15 8.56391e-17)
(0.205507 6.9942e-18 -7.96221e-20)
(0.208946 -3.56981e-15 8.72546e-17)
(0.208946 7.09431e-18 -8.23454e-20)
(0.2124 -3.57008e-15 8.88917e-17)
(0.2124 7.11826e-18 -8.55134e-20)
(0.215869 -3.57033e-15 9.05504e-17)
(0.215869 7.13103e-18 -8.79934e-20)
(0.219351 -3.57055e-15 9.22307e-17)
(0.219351 7.17141e-18 -9.08769e-20)
(0.222848 -3.57076e-15 9.39329e-17)
(0.222848 7.13987e-18 -9.3227e-20)
(0.22636 -3.57097e-15 9.56566e-17)
(0.22636 7.15748e-18 -9.51671e-20)
(0.229885 -3.57119e-15 9.74021e-17)
(0.229885 7.25627e-18 -9.79778e-20)
(0.233424 -3.5714e-15 9.91688e-17)
(0.233424 7.26817e-18 -1.00639e-19)
(0.236976 -3.57153e-15 1.00957e-16)
(0.236976 7.27388e-18 -1.03358e-19)
(0.240542 -3.57173e-15 1.02766e-16)
(0.240542 7.32583e-18 -1.05657e-19)
(0.244122 -3.57206e-15 1.04596e-16)
(0.244122 7.43083e-18 -1.09255e-19)
(0.247715 -3.57239e-15 1.06446e-16)
(0.247715 7.47796e-18 -1.13289e-19)
(0.25132 -3.57269e-15 1.08316e-16)
(0.25132 7.54916e-18 -1.1794e-19)
(0.254939 -3.57294e-15 1.10205e-16)
(0.254939 7.63304e-18 -1.21092e-19)
(0.25857 -3.57314e-15 1.12115e-16)
(0.25857 7.52698e-18 -1.23251e-19)
(0.262213 -3.57344e-15 1.14043e-16)
(0.262213 7.55888e-18 -1.2745e-19)
(0.265869 -3.57382e-15 1.1599e-16)
(0.265869 7.70689e-18 -1.32746e-19)
(0.269536 -3.57414e-15 1.17956e-16)
(0.269536 7.81414e-18 -1.37954e-19)
(0.273216 -3.57439e-15 1.19939e-16)
(0.273216 7.83714e-18 -1.41364e-19)
(0.276906 -3.57459e-15 1.2194e-16)
(0.276906 7.77613e-18 -1.44181e-19)
(0.280608 -3.57477e-15 1.23959e-16)
(0.280608 7.76882e-18 -1.48102e-19)
(0.28432 -3.57494e-15 1.25994e-16)
(0.28432 7.72935e-18 -1.52147e-19)
(0.288043 -3.57513e-15 1.28046e-16)
(0.288043 7.52016e-18 -1.55145e-19)
(0.291776 -3.57523e-15 1.30114e-16)
(0.291776 7.27677e-18 -1.56104e-19)
(0.295519 -3.57525e-15 1.32197e-16)
(0.295519 7.07111e-18 -1.57627e-19)
(0.299271 -3.57531e-15 1.34295e-16)
(0.299271 6.83484e-18 -1.61914e-19)
(0.303033 -3.57548e-15 1.36408e-16)
(0.303033 6.70468e-18 -1.6622e-19)
(0.306803 -3.57552e-15 1.38534e-16)
(0.306803 6.46725e-18 -1.69447e-19)
(0.310582 -3.57557e-15 1.40674e-16)
(0.310582 6.13485e-18 -1.70954e-19)
(0.31437 -3.57578e-15 1.42825e-16)
(0.31437 5.96455e-18 -1.75402e-19)
(0.318164 -3.57589e-15 1.44989e-16)
(0.318164 5.88571e-18 -1.80792e-19)
(0.321967 -3.57605e-15 1.47165e-16)
(0.321967 5.9298e-18 -1.84666e-19)
(0.325776 -3.5763e-15 1.49351e-16)
(0.325776 5.98568e-18 -1.90942e-19)
(0.329591 -3.57661e-15 1.51547e-16)
(0.329591 6.0126e-18 -1.96531e-19)
(0.333413 -3.57697e-15 1.53752e-16)
(0.333413 6.0651e-18 -2.03309e-19)
(0.33724 -3.57719e-15 1.55965e-16)
(0.33724 5.9566e-18 -2.10992e-19)
(0.341073 -3.57735e-15 1.58186e-16)
(0.341073 5.94962e-18 -2.1669e-19)
(0.34491 -3.57755e-15 1.60416e-16)
(0.34491 6.09496e-18 -2.25338e-19)
(0.348752 -3.57772e-15 1.62652e-16)
(0.348752 6.14153e-18 -2.32962e-19)
(0.352598 -3.57779e-15 1.64895e-16)
(0.352598 6.04579e-18 -2.40973e-19)
(0.356447 -3.57796e-15 1.67145e-16)
(0.356447 5.91991e-18 -2.49036e-19)
(0.3603 -3.5781e-15 1.694e-16)
(0.3603 5.84442e-18 -2.56493e-19)
(0.364155 -3.57832e-15 1.71659e-16)
(0.364155 5.74849e-18 -2.66118e-19)
(0.368012 -3.57858e-15 1.73923e-16)
(0.368012 5.7014e-18 -2.75824e-19)
(0.37187 -3.57873e-15 1.7619e-16)
(0.37187 5.61555e-18 -2.84691e-19)
(0.37573 -3.5788e-15 1.78461e-16)
(0.37573 5.35998e-18 -2.93511e-19)
(0.379591 -3.57878e-15 1.80734e-16)
(0.379591 4.90694e-18 -3.04112e-19)
(0.383452 -3.57883e-15 1.83011e-16)
(0.383452 4.73142e-18 -3.13062e-19)
(0.387313 -3.57888e-15 1.8529e-16)
(0.387313 4.7251e-18 -3.19493e-19)
(0.391173 -3.57888e-15 1.87572e-16)
(0.391173 4.37472e-18 -3.2795e-19)
(0.395032 -3.57894e-15 1.89857e-16)
(0.395032 4.28291e-18 -3.35145e-19)
(0.39889 -3.57893e-15 1.92145e-16)
(0.39889 4.08515e-18 -3.41657e-19)
(0.402746 -3.57881e-15 1.94436e-16)
(0.402746 3.61438e-18 -3.45894e-19)
(0.406599 -3.57877e-15 1.96729e-16)
(0.406599 3.27263e-18 -3.50239e-19)
(0.41045 -3.57865e-15 1.99026e-16)
(0.41045 2.63349e-18 -3.55169e-19)
(0.414298 -3.5787e-15 2.01325e-16)
(0.414298 2.16081e-18 -3.62304e-19)
(0.418141 -3.57891e-15 2.03626e-16)
(0.418141 2.02967e-18 -3.68582e-19)
(0.421981 -3.57901e-15 2.05929e-16)
(0.421981 1.94555e-18 -3.78235e-19)
(0.425816 -3.57919e-15 2.08234e-16)
(0.425816 1.73169e-18 -3.89562e-19)
(0.429647 -3.57941e-15 2.10539e-16)
(0.429647 1.53962e-18 -4.02737e-19)
(0.433472 -3.57954e-15 2.12844e-16)
(0.433472 1.27466e-18 -4.18294e-19)
(0.437291 -3.57971e-15 2.15151e-16)
(0.437291 1.03702e-18 -4.30653e-19)
(0.441105 -3.57993e-15 2.17458e-16)
(0.441105 9.41692e-19 -4.44119e-19)
(0.444912 -3.5798e-15 2.19767e-16)
(0.444912 4.4809e-19 -4.55086e-19)
(0.448712 -3.57981e-15 2.22079e-16)
(0.448712 2.27958e-20 -4.64008e-19)
(0.452505 -3.58013e-15 2.24393e-16)
(0.452505 -8.3948e-20 -4.7217e-19)
(0.456291 -3.58027e-15 2.26711e-16)
(0.456291 -5.61281e-19 -4.77679e-19)
(0.460069 -3.58018e-15 2.29032e-16)
(0.460069 -8.96391e-19 -4.83971e-19)
(0.463838 -3.58024e-15 2.31358e-16)
(0.463838 -1.17609e-18 -4.92125e-19)
(0.4676 -3.58042e-15 2.33688e-16)
(0.4676 -1.9629e-18 -4.98391e-19)
(0.471352 -3.58014e-15 2.36024e-16)
(0.471352 -2.40493e-18 -5.04625e-19)
(0.475096 -3.57971e-15 2.38366e-16)
(0.475096 -2.92074e-18 -5.04778e-19)
(0.47883 -3.57978e-15 2.40713e-16)
(0.47883 -3.25378e-18 -5.13411e-19)
(0.482555 -3.57996e-15 2.43065e-16)
(0.482555 -3.28313e-18 -5.25967e-19)
(0.486269 -3.57982e-15 2.45423e-16)
(0.486269 -3.75225e-18 -5.33223e-19)
(0.489974 -3.57963e-15 2.47787e-16)
(0.489974 -4.27689e-18 -5.37629e-19)
(0.493668 -3.57929e-15 2.50159e-16)
(0.493668 -5.03395e-18 -5.49105e-19)
(0.497352 -3.57904e-15 2.52539e-16)
(0.497352 -5.44428e-18 -5.57169e-19)
(0.501024 -3.57864e-15 2.54928e-16)
(0.501024 -6.07229e-18 -5.65496e-19)
(0.504686 -3.5781e-15 2.57325e-16)
(0.504686 -7.03295e-18 -5.744e-19)
(0.508336 -3.57803e-15 2.59733e-16)
(0.508336 -7.2436e-18 -5.83579e-19)
(0.511974 -3.57789e-15 2.6215e-16)
(0.511974 -7.29647e-18 -5.95716e-19)
(0.515601 -3.57728e-15 2.6458e-16)
(0.515601 -7.65814e-18 -6.14437e-19)
(0.519216 -3.5766e-15 2.67021e-16)
(0.519216 -8.37299e-18 -6.29386e-19)
(0.522819 -3.57608e-15 2.69475e-16)
(0.522819 -9.27835e-18 -6.38343e-19)
(0.526409 -3.57553e-15 2.71941e-16)
(0.526409 -1.01389e-17 -6.4393e-19)
(0.529987 -3.57479e-15 2.74421e-16)
(0.529987 -1.11213e-17 -6.5097e-19)
(0.533553 -3.57386e-15 2.76912e-16)
(0.533553 -1.24583e-17 -6.62599e-19)
(0.537105 -3.57297e-15 2.79419e-16)
(0.537105 -1.36659e-17 -6.70489e-19)
(0.540645 -3.57266e-15 2.81942e-16)
(0.540645 -1.41493e-17 -6.79589e-19)
(0.544172 -3.57265e-15 2.84478e-16)
(0.544172 -1.47205e-17 -6.97171e-19)
(0.547685 -3.57248e-15 2.87028e-16)
(0.547685 -1.50334e-17 -7.13255e-19)
(0.551185 -3.57242e-15 2.89593e-16)
(0.551185 -1.51584e-17 -7.31631e-19)
(0.554671 -3.57244e-15 2.92174e-16)
(0.554671 -1.5593e-17 -7.47983e-19)
(0.558144 -3.57223e-15 2.94771e-16)
(0.558144 -1.59275e-17 -7.64087e-19)
(0.561604 -3.5719e-15 2.97386e-16)
(0.561604 -1.64364e-17 -7.89294e-19)
(0.565049 -3.57156e-15 3.0002e-16)
(0.565049 -1.65684e-17 -7.89942e-19)
(0.568481 -3.57115e-15 3.02673e-16)
(0.568481 -1.65806e-17 -8.01675e-19)
(0.571898 -3.57104e-15 3.05346e-16)
(0.571898 -1.66183e-17 -8.27384e-19)
(0.575302 -3.57073e-15 3.08042e-16)
(0.575302 -1.69914e-17 -8.48175e-19)
(0.578691 -3.57018e-15 3.10758e-16)
(0.578691 -1.76478e-17 -8.64597e-19)
(0.582066 -3.56968e-15 3.13496e-16)
(0.582066 -1.84647e-17 -8.81348e-19)
(0.585427 -3.56883e-15 3.16255e-16)
(0.585427 -1.92972e-17 -8.81534e-19)
(0.588773 -3.56815e-15 3.19038e-16)
(0.588773 -2.032e-17 -8.83541e-19)
(0.592105 -3.56733e-15 3.21846e-16)
(0.592105 -2.13533e-17 -8.80041e-19)
(0.595423 -3.56594e-15 3.24679e-16)
(0.595423 -2.2742e-17 -8.99795e-19)
(0.598726 -3.5644e-15 3.27542e-16)
(0.598726 -2.41815e-17 -9.36888e-19)
(0.602014 -3.56287e-15 3.30433e-16)
(0.602014 -2.54252e-17 -9.45302e-19)
(0.605288 -3.56177e-15 3.33353e-16)
(0.605288 -2.68755e-17 -9.48115e-19)
(0.608547 -3.56154e-15 3.36298e-16)
(0.608547 -2.66521e-17 -9.50287e-19)
(0.611792 -3.56127e-15 3.39269e-16)
(0.611792 -2.71982e-17 -9.79508e-19)
(0.615021 -3.56114e-15 3.42266e-16)
(0.615021 -2.77446e-17 -1.02755e-18)
(0.618236 -3.56109e-15 3.45287e-16)
(0.618236 -2.75141e-17 -1.04521e-18)
(0.621436 -3.56032e-15 3.48337e-16)
(0.621436 -2.84901e-17 -1.04823e-18)
(0.624622 -3.55934e-15 3.51416e-16)
(0.624622 -2.88083e-17 -1.08058e-18)
(0.627792 -3.55862e-15 3.53271e-16)
(0.627792 -2.95304e-17 -1.11264e-18)
(0.630947 -3.55776e-15 3.54258e-16)
(0.630947 -3.03021e-17 -1.13143e-18)
(0.634088 -3.55713e-15 3.55262e-16)
(0.634088 -3.05281e-17 -1.16583e-18)
(0.637214 -3.55675e-15 3.56256e-16)
(0.637214 -3.09384e-17 -1.19606e-18)
(0.640325 -3.55566e-15 3.57262e-16)
(0.640325 -3.11665e-17 -1.21112e-18)
(0.64342 -3.55472e-15 3.58281e-16)
(0.64342 -3.18947e-17 -1.23576e-18)
(0.646501 -3.55395e-15 3.59306e-16)
(0.646501 -3.28827e-17 -1.26309e-18)
(0.649567 -3.55276e-15 3.60346e-16)
(0.649567 -3.40657e-17 -1.28676e-18)
(0.652619 -3.55181e-15 3.61413e-16)
(0.652619 -3.48915e-17 -1.30511e-18)
(0.655655 -3.55085e-15 3.62472e-16)
(0.655655 -3.54586e-17 -1.32282e-18)
(0.658676 -3.54955e-15 3.63525e-16)
(0.658676 -3.57714e-17 -1.35371e-18)
(0.661682 -3.54829e-15 3.64588e-16)
(0.661682 -3.67707e-17 -1.3874e-18)
(0.664674 -3.54733e-15 3.6563e-16)
(0.664674 -3.75608e-17 -1.42231e-18)
(0.66765 -3.54654e-15 3.66691e-16)
(0.66765 -3.8865e-17 -1.43765e-18)
(0.670612 -3.54517e-15 3.6776e-16)
(0.670612 -4.11978e-17 -1.42631e-18)
(0.673558 -3.54397e-15 3.6885e-16)
(0.673558 -4.24614e-17 -1.39695e-18)
(0.67649 -3.54329e-15 3.69975e-16)
(0.67649 -4.39263e-17 -1.38992e-18)
(0.679407 -3.54232e-15 3.71107e-16)
(0.679407 -4.55654e-17 -1.4305e-18)
(0.682309 -3.54123e-15 3.72229e-16)
(0.682309 -4.6735e-17 -1.45857e-18)
(0.685196 -3.53997e-15 3.73368e-16)
(0.685196 -4.79347e-17 -1.47122e-18)
(0.688069 -3.53902e-15 3.74519e-16)
(0.688069 -4.95481e-17 -1.46813e-18)
(0.690926 -3.53814e-15 3.75696e-16)
(0.690926 -5.0716e-17 -1.49201e-18)
(0.693769 -3.53759e-15 3.76855e-16)
(0.693769 -5.20213e-17 -1.53111e-18)
(0.696597 -3.53634e-15 3.7804e-16)
(0.696597 -5.39841e-17 -1.52227e-18)
(0.699411 -3.53512e-15 3.79252e-16)
(0.699411 -5.57988e-17 -1.51484e-18)
(0.70221 -3.53418e-15 3.80491e-16)
(0.70221 -5.6716e-17 -1.5097e-18)
(0.704994 -3.53289e-15 3.81744e-16)
(0.704994 -5.88729e-17 -1.56623e-18)
(0.707763 -3.5311e-15 3.82957e-16)
(0.707763 -6.16144e-17 -1.63246e-18)
(0.710518 -3.52931e-15 3.84193e-16)
(0.710518 -6.31802e-17 -1.60769e-18)
(0.713258 -3.52774e-15 3.85482e-16)
(0.713258 -6.52657e-17 -1.58307e-18)
(0.715983 -3.52608e-15 3.86761e-16)
(0.715983 -6.69861e-17 -1.59627e-18)
(0.718694 -3.52451e-15 3.88083e-16)
(0.718694 -6.87574e-17 -1.57707e-18)
(0.721391 -3.52213e-15 3.89442e-16)
(0.721391 -7.16436e-17 -1.57908e-18)
(0.724073 -3.51978e-15 3.90817e-16)
(0.724073 -7.41355e-17 -1.59891e-18)
(0.72674 -3.51817e-15 3.9221e-16)
(0.72674 -7.62058e-17 -1.6176e-18)
(0.729393 -3.51628e-15 3.93622e-16)
(0.729393 -7.82913e-17 -1.62535e-18)
(0.732032 -3.51414e-15 3.95033e-16)
(0.732032 -8.06825e-17 -1.62391e-18)
(0.734656 -3.51193e-15 3.96488e-16)
(0.734656 -8.24282e-17 -1.58531e-18)
(0.737266 -3.50985e-15 3.97977e-16)
(0.737266 -8.44834e-17 -1.60231e-18)
(0.739862 -3.50779e-15 3.99462e-16)
(0.739862 -8.68393e-17 -1.62701e-18)
(0.742444 -3.50558e-15 4.00977e-16)
(0.742444 -8.90714e-17 -1.65545e-18)
(0.745011 -3.50226e-15 4.02486e-16)
(0.745011 -9.25692e-17 -1.68778e-18)
(0.747564 -3.49949e-15 4.04035e-16)
(0.747564 -9.5614e-17 -1.66458e-18)
(0.750103 -3.49774e-15 4.0559e-16)
(0.750103 -9.80723e-17 -1.66616e-18)
(0.752628 -3.49559e-15 4.07186e-16)
(0.752628 -1.00469e-16 -1.63482e-18)
(0.755139 -3.49423e-15 4.08813e-16)
(0.755139 -1.02336e-16 -1.61269e-18)
(0.757636 -3.49375e-15 4.10474e-16)
(0.757636 -1.0388e-16 -1.678e-18)
(0.760118 -3.49249e-15 4.12094e-16)
(0.760118 -1.05729e-16 -1.77e-18)
(0.762587 -3.49112e-15 4.13725e-16)
(0.762587 -1.06759e-16 -1.82833e-18)
(0.765042 -3.48987e-15 4.15351e-16)
(0.765042 -1.07666e-16 -1.82309e-18)
(0.767483 -3.48731e-15 4.17023e-16)
(0.767483 -1.10321e-16 -1.81791e-18)
(0.76991 -3.48414e-15 4.18704e-16)
(0.76991 -1.136e-16 -1.81722e-18)
(0.772323 -3.48025e-15 4.20431e-16)
(0.772323 -1.16729e-16 -1.8365e-18)
(0.774723 -3.47656e-15 4.22177e-16)
(0.774723 -1.20064e-16 -1.83176e-18)
(0.777109 -3.47309e-15 4.23949e-16)
(0.777109 -1.24211e-16 -1.87165e-18)
(0.779481 -3.46894e-15 4.25702e-16)
(0.779481 -1.28215e-16 -1.90777e-18)
(0.78184 -3.46469e-15 4.27465e-16)
(0.78184 -1.31604e-16 -1.90585e-18)
(0.784185 -3.46113e-15 4.29245e-16)
(0.784185 -1.34637e-16 -1.93822e-18)
(0.786516 -3.45862e-15 4.31071e-16)
(0.786516 -1.36013e-16 -1.92273e-18)
(0.788834 -3.45647e-15 4.32901e-16)
(0.788834 -1.37061e-16 -2.0227e-18)
(0.791138 -3.45565e-15 4.34696e-16)
(0.791138 -1.37771e-16 -2.09615e-18)
(0.793429 -3.45456e-15 4.3651e-16)
(0.793429 -1.3783e-16 -2.17753e-18)
(0.795707 -3.45311e-15 4.38278e-16)
(0.795707 -1.39432e-16 -2.29071e-18)
(0.797971 -3.45206e-15 4.4001e-16)
(0.797971 -1.40334e-16 -2.40792e-18)
(0.800222 -3.44992e-15 4.41809e-16)
(0.800222 -1.42175e-16 -2.40419e-18)
(0.802459 -3.44759e-15 4.43597e-16)
(0.802459 -1.43973e-16 -2.3736e-18)
(0.804684 -3.44544e-15 4.454e-16)
(0.804684 -1.45044e-16 -2.391e-18)
(0.806895 -3.44288e-15 4.47182e-16)
(0.806895 -1.47856e-16 -2.47922e-18)
(0.809093 -3.44007e-15 4.4891e-16)
(0.809093 -1.49864e-16 -2.51729e-18)
(0.811278 -3.43778e-15 4.50631e-16)
(0.811278 -1.51134e-16 -2.53283e-18)
(0.81345 -3.43525e-15 4.52341e-16)
(0.81345 -1.53209e-16 -2.54794e-18)
(0.815609 -3.43318e-15 4.54079e-16)
(0.815609 -1.55611e-16 -2.555e-18)
(0.817755 -3.43098e-15 4.5583e-16)
(0.817755 -1.57996e-16 -2.56913e-18)
(0.819887 -3.42845e-15 4.57573e-16)
(0.819887 -1.60643e-16 -2.58277e-18)
(0.822008 -3.42529e-15 4.59328e-16)
(0.822008 -1.63746e-16 -2.58817e-18)
(0.824115 -3.4213e-15 4.61131e-16)
(0.824115 -1.666e-16 -2.58255e-18)
(0.826209 -3.41765e-15 4.62929e-16)
(0.826209 -1.68884e-16 -2.59446e-18)
(0.828291 -3.41429e-15 4.64799e-16)
(0.828291 -1.71551e-16 -2.58996e-18)
(0.83036 -3.41082e-15 4.66603e-16)
(0.83036 -1.75023e-16 -2.62455e-18)
(0.832416 -3.40726e-15 4.68448e-16)
(0.832416 -1.7815e-16 -2.63478e-18)
(0.83446 -3.40453e-15 4.70391e-16)
(0.83446 -1.8006e-16 -2.62012e-18)
(0.836491 -3.40166e-15 4.72322e-16)
(0.836491 -1.83433e-16 -2.6724e-18)
(0.838509 -3.39858e-15 4.74217e-16)
(0.838509 -1.86502e-16 -2.70553e-18)
(0.840515 -3.39599e-15 4.76158e-16)
(0.840515 -1.89175e-16 -2.71628e-18)
(0.842509 -3.39278e-15 4.78161e-16)
(0.842509 -1.92863e-16 -2.72366e-18)
(0.84449 -3.38938e-15 4.80094e-16)
(0.84449 -1.96882e-16 -2.74714e-18)
(0.846458 -3.38659e-15 4.82039e-16)
(0.846458 -2.00262e-16 -2.79833e-18)
(0.848415 -3.38261e-15 4.84078e-16)
(0.848415 -2.03686e-16 -2.8154e-18)
(0.850359 -3.37901e-15 4.86152e-16)
(0.850359 -2.08097e-16 -2.8205e-18)
(0.852291 -3.37629e-15 4.88185e-16)
(0.852291 -2.13439e-16 -2.85077e-18)
(0.85421 -3.3722e-15 4.90227e-16)
(0.85421 -2.1667e-16 -2.83429e-18)
(0.856118 -3.3686e-15 4.92336e-16)
(0.856118 -2.19945e-16 -2.82839e-18)
(0.858013 -3.36437e-15 4.94347e-16)
(0.858013 -2.2522e-16 -2.87455e-18)
(0.859896 -3.35819e-15 4.96332e-16)
(0.859896 -2.29294e-16 -2.90272e-18)
(0.861768 -3.35207e-15 4.98489e-16)
(0.861768 -2.34547e-16 -2.82894e-18)
(0.863627 -3.3459e-15 5.00702e-16)
(0.863627 -2.4125e-16 -2.79827e-18)
(0.865474 -3.34112e-15 5.02798e-16)
(0.865474 -2.46478e-16 -2.83893e-18)
(0.867309 -3.33613e-15 5.04922e-16)
(0.867309 -2.50458e-16 -2.83645e-18)
(0.869133 -3.33084e-15 5.07115e-16)
(0.869133 -2.5496e-16 -2.85445e-18)
(0.870945 -3.32529e-15 5.09333e-16)
(0.870945 -2.60599e-16 -2.89956e-18)
(0.872745 -3.31962e-15 5.11525e-16)
(0.872745 -2.67179e-16 -2.94123e-18)
(0.874533 -3.31573e-15 5.13708e-16)
(0.874533 -2.69194e-16 -2.94475e-18)
(0.876309 -3.31218e-15 5.1596e-16)
(0.876309 -2.72045e-16 -3.00102e-18)
(0.878074 -3.30866e-15 5.18154e-16)
(0.878074 -2.75481e-16 -3.09527e-18)
(0.879827 -3.30499e-15 5.20363e-16)
(0.879827 -2.77376e-16 -3.18343e-18)
(0.881569 -3.30055e-15 5.22577e-16)
(0.881569 -2.79927e-16 -3.27835e-18)
(0.883299 -3.29628e-15 5.24841e-16)
(0.883299 -2.83322e-16 -3.32161e-18)
(0.885017 -3.29224e-15 5.26969e-16)
(0.885017 -2.88251e-16 -3.33829e-18)
(0.886724 -3.28817e-15 5.29017e-16)
(0.886724 -2.90456e-16 -3.32449e-18)
(0.88842 -3.28483e-15 5.31059e-16)
(0.88842 -2.92879e-16 -3.32273e-18)
(0.890104 -3.28096e-15 5.33002e-16)
(0.890104 -2.98076e-16 -3.28982e-18)
(0.891777 -3.2757e-15 5.34855e-16)
(0.891777 -3.01608e-16 -3.32615e-18)
(0.893439 -3.27055e-15 5.36804e-16)
(0.893439 -3.04901e-16 -3.30069e-18)
(0.89509 -3.26563e-15 5.38731e-16)
(0.89509 -3.10455e-16 -3.29085e-18)
(0.896729 -3.26014e-15 5.4065e-16)
(0.896729 -3.15672e-16 -3.30381e-18)
(0.898357 -3.25481e-15 5.42411e-16)
(0.898357 -3.20231e-16 -3.35743e-18)
(0.899974 -3.24908e-15 5.44266e-16)
(0.899974 -3.24161e-16 -3.28815e-18)
(0.90158 -3.24322e-15 5.4625e-16)
(0.90158 -3.2934e-16 -3.25182e-18)
(0.903174 -3.23733e-15 5.48111e-16)
(0.903174 -3.35571e-16 -3.2421e-18)
(0.904758 -3.23102e-15 5.49938e-16)
(0.904758 -3.39231e-16 -3.23441e-18)
(0.906331 -3.22464e-15 5.51753e-16)
(0.906331 -3.43414e-16 -3.1568e-18)
(0.907893 -3.21765e-15 5.53478e-16)
(0.907893 -3.50949e-16 -3.12015e-18)
(0.909444 -3.21325e-15 5.54965e-16)
(0.909444 -3.552e-16 -3.09977e-18)
(0.910984 -3.20919e-15 5.56493e-16)
(0.910984 -3.57028e-16 -3.08848e-18)
(0.912513 -3.20467e-15 5.58019e-16)
(0.912513 -3.60724e-16 -3.11998e-18)
(0.914032 -3.20215e-15 5.5932e-16)
(0.914032 -3.62949e-16 -3.09807e-18)
(0.915539 -3.19742e-15 5.60663e-16)
(0.915539 -3.6464e-16 -3.08168e-18)
(0.917036 -3.1925e-15 5.61824e-16)
(0.917036 -3.68814e-16 -3.10886e-18)
(0.918522 -3.18888e-15 5.62935e-16)
(0.918522 -3.72372e-16 -3.13473e-18)
(0.919998 -3.18479e-15 5.64146e-16)
(0.919998 -3.76087e-16 -3.11308e-18)
(0.921463 -3.18024e-15 5.653e-16)
(0.921463 -3.80947e-16 -3.18999e-18)
(0.922918 -3.17363e-15 5.66192e-16)
(0.922918 -3.86616e-16 -3.30531e-18)
(0.924362 -3.1681e-15 5.67191e-16)
(0.924362 -3.89812e-16 -3.22419e-18)
(0.925795 -3.16406e-15 5.68155e-16)
(0.925795 -3.94381e-16 -3.25077e-18)
(0.927218 -3.15787e-15 5.69207e-16)
(0.927218 -4.01097e-16 -3.24413e-18)
(0.92863 -3.15035e-15 5.70456e-16)
(0.92863 -4.052e-16 -3.23557e-18)
(0.930033 -3.14327e-15 5.71593e-16)
(0.930033 -4.08467e-16 -3.27359e-18)
(0.931424 -3.13822e-15 5.72564e-16)
(0.931424 -4.13137e-16 -3.36727e-18)
(0.932806 -3.13346e-15 5.73509e-16)
(0.932806 -4.19693e-16 -3.37854e-18)
(0.934177 -3.12707e-15 5.74537e-16)
(0.934177 -4.24225e-16 -3.47078e-18)
(0.935538 -3.12154e-15 5.75349e-16)
(0.935538 -4.3071e-16 -3.50443e-18)
(0.936888 -3.11701e-15 5.76146e-16)
(0.936888 -4.37611e-16 -3.45305e-18)
(0.938229 -3.11131e-15 5.76917e-16)
(0.938229 -4.42725e-16 -3.5173e-18)
(0.939559 -3.104e-15 5.77549e-16)
(0.939559 -4.49768e-16 -3.52122e-18)
(0.940879 -3.09724e-15 5.78237e-16)
(0.940879 -4.57159e-16 -3.49773e-18)
(0.942189 -3.09144e-15 5.79137e-16)
(0.942189 -4.61861e-16 -3.47203e-18)
(0.943489 -3.08431e-15 5.7961e-16)
(0.943489 -4.67434e-16 -3.66129e-18)
(0.944779 -3.07702e-15 5.79983e-16)
(0.944779 -4.72824e-16 -3.68508e-18)
(0.946058 -3.06871e-15 5.80451e-16)
(0.946058 -4.79134e-16 -3.7425e-18)
(0.947328 -3.06001e-15 5.80948e-16)
(0.947328 -4.89252e-16 -3.76332e-18)
(0.948588 -3.05279e-15 5.81294e-16)
(0.948588 -4.95949e-16 -3.78243e-18)
(0.949838 -3.04441e-15 5.8175e-16)
(0.949838 -5.0451e-16 -3.74569e-18)
(0.951078 -3.03708e-15 5.82032e-16)
(0.951078 -5.15055e-16 -3.69732e-18)
(0.952308 -3.03017e-15 5.82156e-16)
(0.952308 -5.21988e-16 -3.88361e-18)
(0.953528 -3.02071e-15 5.82215e-16)
(0.953528 -5.28681e-16 -3.77584e-18)
(0.954738 -3.01061e-15 5.8215e-16)
(0.954738 -5.37664e-16 -3.69205e-18)
(0.955939 -3.00024e-15 5.82016e-16)
(0.955939 -5.4531e-16 -3.63258e-18)
(0.95713 -2.99079e-15 5.81693e-16)
(0.95713 -5.51915e-16 -3.72015e-18)
(0.958311 -2.98066e-15 5.81426e-16)
(0.958311 -5.62354e-16 -3.66411e-18)
(0.959482 -2.97015e-15 5.81078e-16)
(0.959482 -5.71385e-16 -3.56645e-18)
(0.960643 -2.95952e-15 5.8076e-16)
(0.960643 -5.79707e-16 -3.64724e-18)
(0.961795 -2.94678e-15 5.80406e-16)
(0.961795 -5.87952e-16 -3.5811e-18)
(0.962937 -2.93806e-15 5.79984e-16)
(0.962937 -5.9484e-16 -3.54041e-18)
(0.96407 -2.93248e-15 5.79326e-16)
(0.96407 -5.99646e-16 -3.84001e-18)
(0.965192 -2.92476e-15 5.78559e-16)
(0.965192 -6.04803e-16 -4.01268e-18)
(0.966306 -2.91711e-15 5.77499e-16)
(0.966306 -6.09632e-16 -4.12551e-18)
(0.967409 -2.90824e-15 5.76651e-16)
(0.967409 -6.16155e-16 -4.24771e-18)
(0.968503 -2.89956e-15 5.75493e-16)
(0.968503 -6.2421e-16 -4.21792e-18)
(0.969588 -2.89263e-15 5.73912e-16)
(0.969588 -6.29278e-16 -4.21593e-18)
(0.970663 -2.88402e-15 5.72125e-16)
(0.970663 -6.35998e-16 -4.22168e-18)
(0.971728 -2.87504e-15 5.70383e-16)
(0.971728 -6.41814e-16 -4.16305e-18)
(0.972784 -2.86695e-15 5.68386e-16)
(0.972784 -6.47994e-16 -4.19473e-18)
(0.97383 -2.85819e-15 5.66221e-16)
(0.97383 -6.55004e-16 -4.25574e-18)
(0.974867 -2.84723e-15 5.63818e-16)
(0.974867 -6.60666e-16 -4.42059e-18)
(0.975894 -2.83729e-15 5.61457e-16)
(0.975894 -6.67124e-16 -4.31935e-18)
(0.976912 -2.8287e-15 5.5893e-16)
(0.976912 -6.73644e-16 -4.44957e-18)
(0.977921 -2.81822e-15 5.56327e-16)
(0.977921 -6.78656e-16 -4.68701e-18)
(0.97892 -2.80652e-15 5.53712e-16)
(0.97892 -6.8593e-16 -4.67573e-18)
(0.979909 -2.79546e-15 5.51023e-16)
(0.979909 -6.9315e-16 -4.73852e-18)
(0.98089 -2.78456e-15 5.4822e-16)
(0.98089 -6.98645e-16 -4.75586e-18)
(0.98186 -2.77296e-15 5.45398e-16)
(0.98186 -7.06983e-16 -4.88225e-18)
(0.982822 -2.76142e-15 5.42154e-16)
(0.982822 -7.17839e-16 -4.9637e-18)
(0.983774 -2.74841e-15 5.38932e-16)
(0.983774 -7.23743e-16 -4.79647e-18)
(0.984716 -2.73516e-15 5.36021e-16)
(0.984716 -7.31955e-16 -4.74938e-18)
(0.985649 -2.72293e-15 5.33105e-16)
(0.985649 -7.44223e-16 -4.67672e-18)
(0.986573 -2.71165e-15 5.29631e-16)
(0.986573 -7.532e-16 -4.81942e-18)
(0.987488 -2.70186e-15 5.25846e-16)
(0.987488 -7.60684e-16 -4.85759e-18)
(0.988393 -2.69263e-15 5.2189e-16)
(0.988393 -7.69147e-16 -4.97577e-18)
(0.989288 -2.6819e-15 5.18024e-16)
(0.989288 -7.77876e-16 -4.90545e-18)
(0.990174 -2.66932e-15 5.13853e-16)
(0.990174 -7.86352e-16 -4.93864e-18)
(0.991051 -2.65802e-15 5.09695e-16)
(0.991051 -8.00294e-16 -4.93437e-18)
(0.991919 -2.64614e-15 5.05628e-16)
(0.991919 -8.10842e-16 -4.89172e-18)
(0.992777 -2.63097e-15 5.01407e-16)
(0.992777 -8.22311e-16 -5.00366e-18)
(0.993626 -2.6173e-15 4.96935e-16)
(0.993626 -8.34453e-16 -4.90794e-18)
(0.994465 -2.60469e-15 4.92689e-16)
(0.994465 -8.42515e-16 -5.01708e-18)
(0.995295 -2.59085e-15 4.88281e-16)
(0.995295 -8.53036e-16 -5.03892e-18)
(0.996116 -2.57832e-15 4.83904e-16)
(0.996116 -8.6467e-16 -5.02152e-18)
(0.996927 -2.56543e-15 4.79284e-16)
(0.996927 -8.76655e-16 -5.00153e-18)
(0.997729 -2.55089e-15 4.74602e-16)
(0.997729 -8.87623e-16 -4.9411e-18)
(0.998521 -2.53547e-15 4.70004e-16)
(0.998521 -8.98272e-16 -4.91572e-18)
(0.999304 -2.52056e-15 4.65601e-16)
(0.999304 -9.08095e-16 -4.84904e-18)
(1.00008 -2.51078e-15 4.60657e-16)
(1.00008 -9.21257e-16 -5.01125e-18)
(1.00084 -2.5006e-15 4.55208e-16)
(1.00084 -9.26187e-16 -5.22531e-18)
(1.0016 -2.48827e-15 4.50701e-16)
(1.0016 -9.27499e-16 -5.2177e-18)
(1.00234 -2.47767e-15 4.45085e-16)
(1.00234 -9.34748e-16 -5.36673e-18)
(1.00308 -2.46953e-15 4.38786e-16)
(1.00308 -9.37492e-16 -4.2557e-18)
(1.0038 -2.4635e-15 4.32512e-16)
(1.0038 -9.4049e-16 -3.38041e-18)
(1.00452 -2.4587e-15 4.26229e-16)
(1.00452 -9.46167e-16 -4.75353e-18)
(1.00523 -2.45265e-15 4.18541e-16)
(1.00523 -9.53509e-16 -5.9601e-18)
(1.00592 -2.44504e-15 4.10712e-16)
(1.00592 -9.60517e-16 -6.93923e-18)
(1.00661 -2.43378e-15 4.03535e-16)
(1.00661 -9.65412e-16 -7.73788e-18)
(1.00729 -2.42351e-15 3.95935e-16)
(1.00729 -9.75619e-16 -8.54265e-18)
(1.00796 -2.41401e-15 3.87775e-16)
(1.00796 -9.77364e-16 -8.98696e-18)
(1.00862 -2.39751e-15 3.7973e-16)
(1.00862 -9.85506e-16 -1.01827e-17)
(1.00927 -2.38107e-15 3.71333e-16)
(1.00927 -1.0029e-15 -1.08138e-17)
(1.00991 -2.36872e-15 3.62747e-16)
(1.00991 -1.00846e-15 -1.14317e-17)
(1.01054 -2.35752e-15 3.54164e-16)
(1.01054 -1.01638e-15 -1.20304e-17)