/*--------------------------------*- C++ -*----------------------------------*\
| =========                 |                                                 |
| \\      /  F ield         | OpenFOAM: The Open Source CFD Toolbox           |
|  \\    /   O peration     | Version:  2106                                  |
|   \\  /    A nd           | Website:  www.openfoam.com                      |
|    \\/     M anipulation  |                                                 |
\*---------------------------------------------------------------------------*/
FoamFile
{
    version     2.0;
    format      ascii;
    arch        "LSB;label=32;scalar=64";
    class       volSymmTensorField;
    location    "8000";
    object      turbulenceProperties:R;
}
// * * * * * * * * * * * * * * * * * * * * * * * * * * * * * * * * * * * * * //

dimensions      [0 2 -2 0 0 0 0];

internalField   nonuniform List<symmTensor> 
2560
(
(2.93895e-07 -2.89713e-11 -4.19393e-14 2.93895e-07 -3.13165e-26 2.93895e-07)
(2.93895e-07 -2.89713e-11 -4.19393e-14 2.93895e-07 -5.21157e-27 2.93895e-07)
(5.31255e-08 -3.00975e-11 -1.31348e-13 5.31255e-08 -1.0327e-26 5.31255e-08)
(5.31255e-08 -3.00975e-11 -1.31348e-13 5.31255e-08 -3.36316e-27 5.31255e-08)
(8.48306e-08 -1.41761e-10 -8.50935e-13 8.48306e-08 -1.39833e-26 8.48306e-08)
(8.48306e-08 -1.41761e-10 -8.50935e-13 8.48306e-08 -1.33845e-27 8.48306e-08)
(2.70749e-07 -9.59353e-10 -5.84234e-12 2.70749e-07 -9.43678e-26 2.70749e-07)
(2.70749e-07 -9.59353e-10 -5.84234e-12 2.70749e-07 -9.33682e-27 2.70749e-07)
(6.9754e-07 -4.35997e-09 -2.69377e-11 6.9754e-07 -5.23056e-25 6.9754e-07)
(6.9754e-07 -4.35997e-09 -2.69377e-11 6.9754e-07 -4.40161e-26 6.9754e-07)
(1.48846e-06 -1.4646e-08 -9.18038e-11 1.48846e-06 -1.9119e-24 1.48846e-06)
(1.48846e-06 -1.4646e-08 -9.18038e-11 1.48846e-06 -1.53073e-25 1.48846e-06)
(2.79005e-06 -4.00408e-08 -2.54631e-10 2.79005e-06 -5.38587e-24 2.79005e-06)
(2.79005e-06 -4.00408e-08 -2.54631e-10 2.79005e-06 -4.30446e-25 2.79005e-06)
(4.77038e-06 -9.45645e-08 -6.101e-10 4.77038e-06 -1.29604e-23 4.77038e-06)
(4.77038e-06 -9.45645e-08 -6.101e-10 4.77038e-06 -1.04357e-24 4.77038e-06)
(7.61918e-06 -2.00318e-07 -1.31116e-09 7.61918e-06 -2.78671e-23 7.61918e-06)
(7.61918e-06 -2.00318e-07 -1.31116e-09 7.61918e-06 -2.28232e-24 7.61918e-06)
(1.15484e-05 -3.90203e-07 -2.59111e-09 1.15484e-05 -5.51539e-23 1.15484e-05)
(1.15484e-05 -3.90203e-07 -2.59111e-09 1.15484e-05 -4.58412e-24 1.15484e-05)
(1.67925e-05 -7.11076e-07 -4.79032e-09 1.67925e-05 -1.02066e-22 1.67925e-05)
(1.67925e-05 -7.11076e-07 -4.79032e-09 1.67925e-05 -8.58669e-24 1.67925e-05)
(2.36096e-05 -1.22732e-06 -8.38787e-09 2.36096e-05 -1.78661e-22 2.36096e-05)
(2.36096e-05 -1.22732e-06 -8.38787e-09 2.36096e-05 -1.52503e-23 2.36096e-05)
(3.22806e-05 -2.02472e-06 -1.40379e-08 3.22806e-05 -2.98456e-22 3.22806e-05)
(3.22806e-05 -2.02472e-06 -1.40379e-08 3.22806e-05 -2.59166e-23 3.22806e-05)
(4.31097e-05 -3.21463e-06 -2.26097e-08 4.31097e-05 -4.79089e-22 4.31097e-05)
(4.31097e-05 -3.21463e-06 -2.26097e-08 4.31097e-05 -4.23972e-23 4.31097e-05)
(5.6423e-05 -4.93796e-06 -3.52311e-08 5.6423e-05 -7.42743e-22 5.6423e-05)
(5.6423e-05 -4.93796e-06 -3.52311e-08 5.6423e-05 -6.68654e-23 5.6423e-05)
(7.25667e-05 -7.36898e-06 -5.33316e-08 7.25667e-05 -1.11583e-21 7.25667e-05)
(7.25667e-05 -7.36898e-06 -5.33316e-08 7.25667e-05 -1.01747e-22 7.25667e-05)
(9.19041e-05 -1.07182e-05 -7.86824e-08 9.19041e-05 -1.62877e-21 9.19041e-05)
(9.19041e-05 -1.07182e-05 -7.86824e-08 9.19041e-05 -1.5042e-22 9.19041e-05)
(0.000114811 -1.52339e-05 -1.13429e-07 0.000114811 -2.31585e-21 0.000114811)
(0.000114811 -1.52339e-05 -1.13429e-07 0.000114811 -2.16919e-22 0.000114811)
(0.000141671 -2.12021e-05 -1.6011e-07 0.000141671 -3.21208e-21 0.000141671)
(0.000141671 -2.12021e-05 -1.6011e-07 0.000141671 -3.07241e-22 0.000141671)
(0.000172864 -2.89427e-05 -2.21656e-07 0.000172864 -4.35104e-21 0.000172864)
(0.000172864 -2.89427e-05 -2.21656e-07 0.000172864 -4.27983e-22 0.000172864)
(0.000208762 -3.88041e-05 -3.01358e-07 0.000208762 -5.75542e-21 0.000208762)
(0.000208762 -3.88041e-05 -3.01358e-07 0.000208762 -5.76607e-22 0.000208762)
(0.000249714 -5.11525e-05 -4.02813e-07 0.000249714 -7.43859e-21 0.000249714)
(0.000249714 -5.11525e-05 -4.02813e-07 0.000249714 -7.52261e-22 0.000249714)
(0.000296031 -6.63581e-05 -5.29815e-07 0.000296031 -9.40433e-21 0.000296031)
(0.000296031 -6.63581e-05 -5.29815e-07 0.000296031 -9.75659e-22 0.000296031)
(0.000347978 -8.47776e-05 -6.86231e-07 0.000347978 -1.16087e-20 0.000347978)
(0.000347978 -8.47776e-05 -6.86231e-07 0.000347978 -1.22842e-21 0.000347978)
(0.000405753 -0.000106734 -8.75824e-07 0.000405753 -1.39789e-20 0.000405753)
(0.000405753 -0.000106734 -8.75824e-07 0.000405753 -1.52015e-21 0.000405753)
(0.000469477 -0.000132496 -1.10207e-06 0.000469477 -1.64574e-20 0.000469477)
(0.000469477 -0.000132496 -1.10207e-06 0.000469477 -1.91161e-21 0.000469477)
(0.00053918 -0.000162257 -1.36796e-06 0.00053918 -1.89105e-20 0.00053918)
(0.00053918 -0.000162257 -1.36796e-06 0.00053918 -2.30749e-21 0.00053918)
(0.000614793 -0.000196115 -1.67581e-06 0.000614793 -2.12085e-20 0.000614793)
(0.000614793 -0.000196115 -1.67581e-06 0.000614793 -2.6622e-21 0.000614793)
(0.000696141 -0.000234066 -2.02714e-06 0.000696141 -2.3167e-20 0.000696141)
(0.000696141 -0.000234066 -2.02714e-06 0.000696141 -3.02843e-21 0.000696141)
(0.000782945 -0.000275994 -2.42252e-06 0.000782945 -2.46196e-20 0.000782945)
(0.000782945 -0.000275994 -2.42252e-06 0.000782945 -3.42317e-21 0.000782945)
(0.000874826 -0.000321671 -2.86157e-06 0.000874826 -2.54852e-20 0.000874826)
(0.000874826 -0.000321671 -2.86157e-06 0.000874826 -3.91544e-21 0.000874826)
(0.000971313 -0.000370774 -3.343e-06 0.000971313 -2.55268e-20 0.000971313)
(0.000971313 -0.000370774 -3.343e-06 0.000971313 -4.39744e-21 0.000971313)
(0.00107186 -0.000422892 -3.86463e-06 0.00107186 -2.47554e-20 0.00107186)
(0.00107186 -0.000422892 -3.86463e-06 0.00107186 -4.69391e-21 0.00107186)
(0.00117586 -0.000477554 -4.42359e-06 0.00117586 -2.32256e-20 0.00117586)
(0.00117586 -0.000477554 -4.42359e-06 0.00117586 -4.93061e-21 0.00117586)
(0.00128268 -0.000534246 -5.01645e-06 0.00128268 -2.09381e-20 0.00128268)
(0.00128268 -0.000534246 -5.01645e-06 0.00128268 -5.24995e-21 0.00128268)
(0.00139164 -0.000592441 -5.63943e-06 0.00139164 -1.80499e-20 0.00139164)
(0.00139164 -0.000592441 -5.63943e-06 0.00139164 -5.63584e-21 0.00139164)
(0.00150208 -0.000651614 -6.28854e-06 0.00150208 -1.45551e-20 0.00150208)
(0.00150208 -0.000651614 -6.28854e-06 0.00150208 -5.94962e-21 0.00150208)
(0.00161336 -0.000711264 -6.95978e-06 0.00161336 -1.06325e-20 0.00161336)
(0.00161336 -0.000711264 -6.95978e-06 0.00161336 -6.29578e-21 0.00161336)
(0.00172486 -0.000770928 -7.64927e-06 0.00172486 -6.57266e-21 0.00172486)
(0.00172486 -0.000770928 -7.64927e-06 0.00172486 -6.76451e-21 0.00172486)
(0.00183602 -0.000830191 -8.35335e-06 0.00183602 -8.50542e-22 0.00183602)
(0.00183602 -0.000830191 -8.35335e-06 0.00183602 -7.41298e-21 0.00183602)
(0.00194631 -0.000888688 -9.06864e-06 0.00194631 3.66157e-23 0.00194631)
(0.00194631 -0.000888688 -9.06864e-06 0.00194631 -7.98031e-21 0.00194631)
(0.00205527 -0.000946114 -9.79214e-06 0.00205527 4.72776e-21 0.00205527)
(0.00205527 -0.000946114 -9.79214e-06 0.00205527 -8.11083e-21 0.00205527)
(0.00216249 -0.00100221 -1.05212e-05 0.00216249 8.24072e-21 0.00216249)
(0.00216249 -0.00100221 -1.05212e-05 0.00216249 -8.24533e-21 0.00216249)
(0.00226764 -0.00105679 -1.12536e-05 0.00226764 1.09578e-20 0.00226764)
(0.00226764 -0.00105679 -1.12536e-05 0.00226764 -8.93981e-21 0.00226764)
(0.00237042 -0.00110968 -1.19873e-05 0.00237042 1.2666e-20 0.00237042)
(0.00237042 -0.00110968 -1.19873e-05 0.00237042 -1.00379e-20 0.00237042)
(0.0024706 -0.00116078 -1.27209e-05 0.0024706 1.40435e-20 0.0024706)
(0.0024706 -0.00116078 -1.27209e-05 0.0024706 -1.16106e-20 0.0024706)
(0.002568 -0.00121001 -1.3453e-05 0.002568 1.47941e-20 0.002568)
(0.002568 -0.00121001 -1.3453e-05 0.002568 -1.21716e-20 0.002568)
(0.00266247 -0.00125734 -1.41827e-05 0.00266247 1.45013e-20 0.00266247)
(0.00266247 -0.00125734 -1.41827e-05 0.00266247 -1.26403e-20 0.00266247)
(0.00275393 -0.00130273 -1.49092e-05 0.00275393 1.3245e-20 0.00275393)
(0.00275393 -0.00130273 -1.49092e-05 0.00275393 -1.37252e-20 0.00275393)
(0.0028423 -0.00134621 -1.5632e-05 0.0028423 1.15409e-20 0.0028423)
(0.0028423 -0.00134621 -1.5632e-05 0.0028423 -1.46071e-20 0.0028423)
(0.00292755 -0.00138778 -1.63508e-05 0.00292755 9.12114e-21 0.00292755)
(0.00292755 -0.00138778 -1.63508e-05 0.00292755 -1.59406e-20 0.00292755)
(0.00300968 -0.00142749 -1.70653e-05 0.00300968 6.252e-21 0.00300968)
(0.00300968 -0.00142749 -1.70653e-05 0.00300968 -1.72137e-20 0.00300968)
(0.0030887 -0.00146537 -1.77754e-05 0.0030887 1.79017e-21 0.0030887)
(0.0030887 -0.00146537 -1.77754e-05 0.0030887 -1.95321e-20 0.0030887)
(0.00316464 -0.00150149 -1.84812e-05 0.00316464 -3.88871e-21 0.00316464)
(0.00316464 -0.00150149 -1.84812e-05 0.00316464 -2.19542e-20 0.00316464)
(0.00323756 -0.0015359 -1.91827e-05 0.00323756 -9.66041e-21 0.00323756)
(0.00323756 -0.0015359 -1.91827e-05 0.00323756 -2.42729e-20 0.00323756)
(0.00330751 -0.00156866 -1.98802e-05 0.00330751 -1.40502e-20 0.00330751)
(0.00330751 -0.00156866 -1.98802e-05 0.00330751 -2.52327e-20 0.00330751)
(0.00337455 -0.00159984 -2.05739e-05 0.00337455 -1.91343e-20 0.00337455)
(0.00337455 -0.00159984 -2.05739e-05 0.00337455 -2.48765e-20 0.00337455)
(0.00343877 -0.00162951 -2.1264e-05 0.00343877 -2.62348e-20 0.00343877)
(0.00343877 -0.00162951 -2.1264e-05 0.00343877 -2.89951e-20 0.00343877)
(0.00350025 -0.00165772 -2.19507e-05 0.00350025 -3.443e-20 0.00350025)
(0.00350025 -0.00165772 -2.19507e-05 0.00350025 -3.53264e-20 0.00350025)
(0.00355906 -0.00168454 -2.26345e-05 0.00355906 -4.24766e-20 0.00355906)
(0.00355906 -0.00168454 -2.26345e-05 0.00355906 -3.79803e-20 0.00355906)
(0.00361531 -0.00171003 -2.33156e-05 0.00361531 -4.90279e-20 0.00361531)
(0.00361531 -0.00171003 -2.33156e-05 0.00361531 -3.74235e-20 0.00361531)
(0.00366906 -0.00173426 -2.39944e-05 0.00366906 -5.77684e-20 0.00366906)
(0.00366906 -0.00173426 -2.39944e-05 0.00366906 -3.95544e-20 0.00366906)
(0.00372042 -0.00175729 -2.46711e-05 0.00372042 -6.90439e-20 0.00372042)
(0.00372042 -0.00175729 -2.46711e-05 0.00372042 -4.54974e-20 0.00372042)
(0.00376947 -0.00177916 -2.53462e-05 0.00376947 -7.72958e-20 0.00376947)
(0.00376947 -0.00177916 -2.53462e-05 0.00376947 -4.68048e-20 0.00376947)
(0.00381629 -0.00179995 -2.602e-05 0.00381629 -8.7552e-20 0.00381629)
(0.00381629 -0.00179995 -2.602e-05 0.00381629 -4.41064e-20 0.00381629)
(0.00386097 -0.00181968 -2.66928e-05 0.00386097 -1.03269e-19 0.00386097)
(0.00386097 -0.00181968 -2.66928e-05 0.00386097 -4.17369e-20 0.00386097)
(0.00390359 -0.00183843 -2.73649e-05 0.00390359 -1.14078e-19 0.00390359)
(0.00390359 -0.00183843 -2.73649e-05 0.00390359 -4.43436e-20 0.00390359)
(0.00394423 -0.00185623 -2.80366e-05 0.00394423 -1.25923e-19 0.00394423)
(0.00394423 -0.00185623 -2.80366e-05 0.00394423 -5.23095e-20 0.00394423)
(0.00398297 -0.00187313 -2.87083e-05 0.00398297 -1.45648e-19 0.00398297)
(0.00398297 -0.00187313 -2.87083e-05 0.00398297 -5.58211e-20 0.00398297)
(0.00401988 -0.00188917 -2.93803e-05 0.00401988 -1.6419e-19 0.00401988)
(0.00401988 -0.00188917 -2.93803e-05 0.00401988 -5.86092e-20 0.00401988)
(0.00405504 -0.0019044 -3.00528e-05 0.00405504 -1.78133e-19 0.00405504)
(0.00405504 -0.0019044 -3.00528e-05 0.00405504 -5.89181e-20 0.00405504)
(0.00408851 -0.00191884 -3.07261e-05 0.00408851 -1.95177e-19 0.00408851)
(0.00408851 -0.00191884 -3.07261e-05 0.00408851 -5.84264e-20 0.00408851)
(0.00412037 -0.00193254 -3.14006e-05 0.00412037 -2.15435e-19 0.00412037)
(0.00412037 -0.00193254 -3.14006e-05 0.00412037 -6.20855e-20 0.00412037)
(0.00415068 -0.00194553 -3.20765e-05 0.00415068 -2.31467e-19 0.00415068)
(0.00415068 -0.00194553 -3.20765e-05 0.00415068 -6.29354e-20 0.00415068)
(0.00417949 -0.00195785 -3.2754e-05 0.00417949 -2.54079e-19 0.00417949)
(0.00417949 -0.00195785 -3.2754e-05 0.00417949 -6.15919e-20 0.00417949)
(0.00420688 -0.00196951 -3.34333e-05 0.00420688 -2.72104e-19 0.00420688)
(0.00420688 -0.00196951 -3.34333e-05 0.00420688 -6.3716e-20 0.00420688)
(0.00423288 -0.00198056 -3.41148e-05 0.00423288 -2.8918e-19 0.00423288)
(0.00423288 -0.00198056 -3.41148e-05 0.00423288 -7.43821e-20 0.00423288)
(0.00425757 -0.00199102 -3.47987e-05 0.00425757 -3.09844e-19 0.00425757)
(0.00425757 -0.00199102 -3.47987e-05 0.00425757 -8.2271e-20 0.00425757)
(0.00428098 -0.00200091 -3.54852e-05 0.00428098 -3.3214e-19 0.00428098)
(0.00428098 -0.00200091 -3.54852e-05 0.00428098 -8.64448e-20 0.00428098)
(0.00430318 -0.00201027 -3.61744e-05 0.00430318 -3.57515e-19 0.00430318)
(0.00430318 -0.00201027 -3.61744e-05 0.00430318 -7.40741e-20 0.00430318)
(0.0043242 -0.0020191 -3.68667e-05 0.0043242 -3.78385e-19 0.0043242)
(0.0043242 -0.0020191 -3.68667e-05 0.0043242 -7.1468e-20 0.0043242)
(0.00434409 -0.00202744 -3.75622e-05 0.00434409 -3.9671e-19 0.00434409)
(0.00434409 -0.00202744 -3.75622e-05 0.00434409 -1.01429e-19 0.00434409)
(0.0043629 -0.0020353 -3.82611e-05 0.0043629 -4.19333e-19 0.0043629)
(0.0043629 -0.0020353 -3.82611e-05 0.0043629 -1.1352e-19 0.0043629)
(0.00438066 -0.00204271 -3.89635e-05 0.00438066 -4.4106e-19 0.00438066)
(0.00438066 -0.00204271 -3.89635e-05 0.00438066 -1.03819e-19 0.00438066)
(0.00439741 -0.00204968 -3.96698e-05 0.00439741 -4.56403e-19 0.00439741)
(0.00439741 -0.00204968 -3.96698e-05 0.00439741 -9.36419e-20 0.00439741)
(0.0044132 -0.00205623 -4.038e-05 0.0044132 -4.73034e-19 0.0044132)
(0.0044132 -0.00205623 -4.038e-05 0.0044132 -8.64066e-20 0.0044132)
(0.00442805 -0.00206238 -4.10944e-05 0.00442805 -4.98634e-19 0.00442805)
(0.00442805 -0.00206238 -4.10944e-05 0.00442805 -1.03929e-19 0.00442805)
(0.00444201 -0.00206813 -4.18131e-05 0.00444201 -6.49835e-22 0.00444201)
(0.00444201 -0.00206813 -4.18131e-05 0.00444201 -1.42808e-19 0.00444201)
(0.00445509 -0.00207352 -4.25362e-05 0.00445509 1.59375e-20 0.00445509)
(0.00445509 -0.00207352 -4.25362e-05 0.00445509 -1.35647e-19 0.00445509)
(0.00446734 -0.00207855 -4.32639e-05 0.00446734 1.77999e-18 0.00446734)
(0.00446734 -0.00207855 -4.32639e-05 0.00446734 -1.27596e-19 0.00446734)
(0.00447879 -0.00208323 -4.39965e-05 0.00447879 1.81956e-18 0.00447879)
(0.00447879 -0.00208323 -4.39965e-05 0.00447879 -1.50252e-19 0.00447879)
(0.00448946 -0.00208757 -4.47339e-05 0.00448946 1.87712e-18 0.00448946)
(0.00448946 -0.00208757 -4.47339e-05 0.00448946 -1.6385e-19 0.00448946)
(0.00449937 -0.0020916 -4.54764e-05 0.00449937 1.96715e-18 0.00449937)
(0.00449937 -0.0020916 -4.54764e-05 0.00449937 -1.43528e-19 0.00449937)
(0.00450856 -0.00209532 -4.62241e-05 0.00450856 2.03475e-18 0.00450856)
(0.00450856 -0.00209532 -4.62241e-05 0.00450856 -1.44439e-19 0.00450856)
(0.00451705 -0.00209874 -4.69772e-05 0.00451705 2.09089e-18 0.00451705)
(0.00451705 -0.00209874 -4.69772e-05 0.00451705 -1.86486e-19 0.00451705)
(0.00452486 -0.00210187 -4.77358e-05 0.00452486 2.1511e-18 0.00452486)
(0.00452486 -0.00210187 -4.77358e-05 0.00452486 -1.70266e-19 0.00452486)
(0.00453202 -0.00210472 -4.84999e-05 0.00453202 2.22801e-18 0.00453202)
(0.00453202 -0.00210472 -4.84999e-05 0.00453202 -1.26524e-19 0.00453202)
(0.00453854 -0.0021073 -4.92699e-05 0.00453854 2.35107e-18 0.00453854)
(0.00453854 -0.0021073 -4.92699e-05 0.00453854 -1.01644e-19 0.00453854)
(0.00454445 -0.00210963 -5.00457e-05 0.00454445 2.45424e-18 0.00454445)
(0.00454445 -0.00210963 -5.00457e-05 0.00454445 -1.22037e-19 0.00454445)
(0.00454977 -0.0021117 -5.08275e-05 0.00454977 2.51274e-18 0.00454977)
(0.00454977 -0.0021117 -5.08275e-05 0.00454977 -1.70487e-19 0.00454977)
(0.00455452 -0.00211353 -5.16154e-05 0.00455452 2.57621e-18 0.00455452)
(0.00455452 -0.00211353 -5.16154e-05 0.00455452 -1.56812e-19 0.00455452)
(0.00455871 -0.00211513 -5.24096e-05 0.00455871 2.77556e-18 0.00455871)
(0.00455871 -0.00211513 -5.24096e-05 0.00455871 -1.43436e-19 0.00455871)
(0.00456236 -0.0021165 -5.32102e-05 0.00456236 2.96359e-18 0.00456236)
(0.00456236 -0.0021165 -5.32102e-05 0.00456236 -1.40515e-19 0.00456236)
(0.00456549 -0.00211764 -5.40172e-05 0.00456549 2.99077e-18 0.00456549)
(0.00456549 -0.00211764 -5.40172e-05 0.00456549 -1.20308e-19 0.00456549)
(0.00456811 -0.00211858 -5.48309e-05 0.00456811 1.58325e-18 0.00456811)
(0.00456811 -0.00211858 -5.48309e-05 0.00456811 -1.32162e-19 0.00456811)
(0.00457024 -0.00211931 -5.56512e-05 0.00457024 1.01372e-19 0.00457024)
(0.00457024 -0.00211931 -5.56512e-05 0.00457024 -1.1817e-19 0.00457024)
(0.0045719 -0.00211983 -5.64784e-05 0.0045719 7.20835e-20 0.0045719)
(0.0045719 -0.00211983 -5.64784e-05 0.0045719 -9.0511e-20 0.0045719)
(0.0045731 -0.00212016 -5.73125e-05 0.0045731 5.16316e-20 0.0045731)
(0.0045731 -0.00212016 -5.73125e-05 0.0045731 -1.83329e-19 0.0045731)
(0.00457385 -0.00212031 -5.81536e-05 0.00457385 3.13952e-20 0.00457385)
(0.00457385 -0.00212031 -5.81536e-05 0.00457385 -2.10954e-19 0.00457385)
(0.00457416 -0.00212027 -5.90019e-05 0.00457416 4.59495e-20 0.00457416)
(0.00457416 -0.00212027 -5.90019e-05 0.00457416 -1.63363e-19 0.00457416)
(0.00457405 -0.00212005 -5.98574e-05 0.00457405 -1.14663e-20 0.00457405)
(0.00457405 -0.00212005 -5.98574e-05 0.00457405 -1.76184e-19 0.00457405)
(0.00457353 -0.00211966 -6.07203e-05 0.00457353 4.87257e-20 0.00457353)
(0.00457353 -0.00211966 -6.07203e-05 0.00457353 -2.47359e-19 0.00457353)
(0.00457262 -0.0021191 -6.15907e-05 0.00457262 1.27828e-19 0.00457262)
(0.00457262 -0.0021191 -6.15907e-05 0.00457262 -2.8403e-19 0.00457262)
(0.00457131 -0.00211838 -6.24687e-05 0.00457131 -9.59438e-21 0.00457131)
(0.00457131 -0.00211838 -6.24687e-05 0.00457131 -2.58204e-19 0.00457131)
(0.00456964 -0.0021175 -6.33543e-05 0.00456964 -2.96952e-20 0.00456964)
(0.00456964 -0.0021175 -6.33543e-05 0.00456964 -2.55145e-19 0.00456964)
(0.00456759 -0.00211646 -6.42476e-05 0.00456759 -4.4066e-20 0.00456759)
(0.00456759 -0.00211646 -6.42476e-05 0.00456759 -3.1788e-19 0.00456759)
(0.00456519 -0.00211528 -6.51489e-05 0.00456519 -1.89907e-19 0.00456519)
(0.00456519 -0.00211528 -6.51489e-05 0.00456519 -3.54685e-19 0.00456519)
(0.00456244 -0.00211395 -6.60581e-05 0.00456244 -9.21848e-20 0.00456244)
(0.00456244 -0.00211395 -6.60581e-05 0.00456244 -3.06956e-19 0.00456244)
(0.00455936 -0.00211247 -6.69754e-05 0.00455936 -1.0846e-20 0.00455936)
(0.00455936 -0.00211247 -6.69754e-05 0.00455936 -3.60301e-19 0.00455936)
(0.00455595 -0.00211086 -6.79009e-05 0.00455595 -1.97684e-19 0.00455595)
(0.00455595 -0.00211086 -6.79009e-05 0.00455595 -4.4873e-19 0.00455595)
(0.00455222 -0.00210911 -6.88346e-05 0.00455222 -1.83628e-19 0.00455222)
(0.00455222 -0.00210911 -6.88346e-05 0.00455222 -4.45711e-19 0.00455222)
(0.00454818 -0.00210723 -6.97767e-05 0.00454818 -7.80297e-20 0.00454818)
(0.00454818 -0.00210723 -6.97767e-05 0.00454818 -4.3286e-19 0.00454818)
(0.00454383 -0.00210523 -7.07273e-05 0.00454383 -8.33853e-20 0.00454383)
(0.00454383 -0.00210523 -7.07273e-05 0.00454383 -3.94483e-19 0.00454383)
(0.00453919 -0.0021031 -7.16864e-05 0.00453919 -1.36441e-19 0.00453919)
(0.00453919 -0.0021031 -7.16864e-05 0.00453919 -3.91828e-19 0.00453919)
(0.00453427 -0.00210084 -7.26541e-05 0.00453427 -2.32856e-19 0.00453427)
(0.00453427 -0.00210084 -7.26541e-05 0.00453427 -4.25579e-19 0.00453427)
(0.00452906 -0.00209847 -7.36306e-05 0.00452906 -2.08777e-19 0.00452906)
(0.00452906 -0.00209847 -7.36306e-05 0.00452906 -4.62554e-19 0.00452906)
(0.00452359 -0.00209599 -7.4616e-05 0.00452359 -1.47147e-19 0.00452359)
(0.00452359 -0.00209599 -7.4616e-05 0.00452359 -4.79777e-19 0.00452359)
(0.00451784 -0.00209339 -7.56102e-05 0.00451784 -3.23233e-19 0.00451784)
(0.00451784 -0.00209339 -7.56102e-05 0.00451784 -6.24319e-19 0.00451784)
(0.00451184 -0.00209068 -7.66135e-05 0.00451184 -4.00136e-19 0.00451184)
(0.00451184 -0.00209068 -7.66135e-05 0.00451184 -6.95818e-19 0.00451184)
(0.00450558 -0.00208786 -7.76259e-05 0.00450558 -2.39e-19 0.00450558)
(0.00450558 -0.00208786 -7.76259e-05 0.00450558 -5.01254e-19 0.00450558)
(0.00449908 -0.00208494 -7.86476e-05 0.00449908 -1.78945e-19 0.00449908)
(0.00449908 -0.00208494 -7.86476e-05 0.00449908 -4.1432e-19 0.00449908)
(0.00449234 -0.00208191 -7.96785e-05 0.00449234 -1.96247e-19 0.00449234)
(0.00449234 -0.00208191 -7.96785e-05 0.00449234 -5.40455e-19 0.00449234)
(0.00448536 -0.00207879 -8.07188e-05 0.00448536 -2.16044e-19 0.00448536)
(0.00448536 -0.00207879 -8.07188e-05 0.00448536 -7.71539e-19 0.00448536)
(0.00447815 -0.00207557 -8.17685e-05 0.00447815 -3.28587e-19 0.00447815)
(0.00447815 -0.00207557 -8.17685e-05 0.00447815 -8.24094e-19 0.00447815)
(0.00447072 -0.00207225 -8.28279e-05 0.00447072 -2.89205e-19 0.00447072)
(0.00447072 -0.00207225 -8.28279e-05 0.00447072 -7.78147e-19 0.00447072)
(0.00446307 -0.00206884 -8.38969e-05 0.00446307 -2.92853e-19 0.00446307)
(0.00446307 -0.00206884 -8.38969e-05 0.00446307 -9.6697e-19 0.00446307)
(0.00445521 -0.00206533 -8.49756e-05 0.00445521 -1.09222e-19 0.00445521)
(0.00445521 -0.00206533 -8.49756e-05 0.00445521 -1.00527e-18 0.00445521)
(0.00444713 -0.00206174 -8.60642e-05 0.00444713 -5.80912e-20 0.00444713)
(0.00444713 -0.00206174 -8.60642e-05 0.00444713 -8.34714e-19 0.00444713)
(0.00443886 -0.00205806 -8.71627e-05 0.00443886 -5.58163e-19 0.00443886)
(0.00443886 -0.00205806 -8.71627e-05 0.00443886 -9.5673e-19 0.00443886)
(0.00443038 -0.0020543 -8.82712e-05 0.00443038 -3.36168e-19 0.00443038)
(0.00443038 -0.0020543 -8.82712e-05 0.00443038 -1.20301e-18 0.00443038)
(0.00442171 -0.00205045 -8.93897e-05 0.00442171 -9.45237e-20 0.00442171)
(0.00442171 -0.00205045 -8.93897e-05 0.00442171 -1.16645e-18 0.00442171)
(0.00441285 -0.00204652 -9.05185e-05 0.00441285 -4.04307e-19 0.00441285)
(0.00441285 -0.00204652 -9.05185e-05 0.00441285 -1.09713e-18 0.00441285)
(0.00440381 -0.00204251 -9.16575e-05 0.00440381 -3.54726e-19 0.00440381)
(0.00440381 -0.00204251 -9.16575e-05 0.00440381 -1.30893e-18 0.00440381)
(0.00439458 -0.00203842 -9.28068e-05 0.00439458 -3.51491e-19 0.00439458)
(0.00439458 -0.00203842 -9.28068e-05 0.00439458 -1.40586e-18 0.00439458)
(0.00438517 -0.00203425 -9.39665e-05 0.00438517 -3.90182e-19 0.00438517)
(0.00438517 -0.00203425 -9.39665e-05 0.00438517 -1.31079e-18 0.00438517)
(0.00437559 -0.00203001 -9.51368e-05 0.00437559 -2.80002e-19 0.00437559)
(0.00437559 -0.00203001 -9.51368e-05 0.00437559 -1.41572e-18 0.00437559)
(0.00436584 -0.0020257 -9.63176e-05 0.00436584 -4.9663e-19 0.00436584)
(0.00436584 -0.0020257 -9.63176e-05 0.00436584 -1.47535e-18 0.00436584)
(0.00435593 -0.00202131 -9.75091e-05 0.00435593 -4.18872e-19 0.00435593)
(0.00435593 -0.00202131 -9.75091e-05 0.00435593 -1.39901e-18 0.00435593)
(0.00434585 -0.00201685 -9.87113e-05 0.00434585 -2.57063e-19 0.00434585)
(0.00434585 -0.00201685 -9.87113e-05 0.00434585 -1.51752e-18 0.00434585)
(0.00433561 -0.00201232 -9.99243e-05 0.00433561 -2.38744e-19 0.00433561)
(0.00433561 -0.00201232 -9.99243e-05 0.00433561 -1.78161e-18 0.00433561)
(0.00432521 -0.00200772 -0.000101148 0.00432521 -3.52159e-19 0.00432521)
(0.00432521 -0.00200772 -0.000101148 0.00432521 -1.67119e-18 0.00432521)
(0.00431466 -0.00200306 -0.000102383 0.00431466 -4.98295e-19 0.00431466)
(0.00431466 -0.00200306 -0.000102383 0.00431466 -1.38912e-18 0.00431466)
(0.00430396 -0.00199832 -0.000103629 0.00430396 -7.36533e-19 0.00430396)
(0.00430396 -0.00199832 -0.000103629 0.00430396 -1.44302e-18 0.00430396)
(0.00429311 -0.00199353 -0.000104886 0.00429311 -5.11853e-19 0.00429311)
(0.00429311 -0.00199353 -0.000104886 0.00429311 -1.59939e-18 0.00429311)
(0.00428211 -0.00198867 -0.000106154 0.00428211 -1.50503e-19 0.00428211)
(0.00428211 -0.00198867 -0.000106154 0.00428211 -1.94079e-18 0.00428211)
(0.00427098 -0.00198374 -0.000107433 0.00427098 -2.81324e-19 0.00427098)
(0.00427098 -0.00198374 -0.000107433 0.00427098 -2.1596e-18 0.00427098)
(0.0042597 -0.00197876 -0.000108724 0.0042597 -4.08083e-19 0.0042597)
(0.0042597 -0.00197876 -0.000108724 0.0042597 -1.84988e-18 0.0042597)
(0.00424829 -0.00197371 -0.000110026 0.00424829 -9.02566e-19 0.00424829)
(0.00424829 -0.00197371 -0.000110026 0.00424829 -1.58248e-18 0.00424829)
(0.00423674 -0.00196861 -0.00011134 0.00423674 -1.10062e-18 0.00423674)
(0.00423674 -0.00196861 -0.00011134 0.00423674 -1.95125e-18 0.00423674)
(0.00422507 -0.00196344 -0.000112665 0.00422507 -6.16084e-19 0.00422507)
(0.00422507 -0.00196344 -0.000112665 0.00422507 -2.24151e-18 0.00422507)
(0.00421326 -0.00195822 -0.000114001 0.00421326 -1.88796e-19 0.00421326)
(0.00421326 -0.00195822 -0.000114001 0.00421326 -2.11662e-18 0.00421326)
(0.00420132 -0.00195294 -0.000115349 0.00420132 -2.43972e-19 0.00420132)
(0.00420132 -0.00195294 -0.000115349 0.00420132 -2.06434e-18 0.00420132)
(0.00418926 -0.0019476 -0.000116709 0.00418926 -6.90197e-19 0.00418926)
(0.00418926 -0.0019476 -0.000116709 0.00418926 -2.16095e-18 0.00418926)
(0.00417708 -0.00194221 -0.00011808 0.00417708 -7.68423e-19 0.00417708)
(0.00417708 -0.00194221 -0.00011808 0.00417708 -2e-18 0.00417708)
(0.00416478 -0.00193676 -0.000119464 0.00416478 -4.83802e-19 0.00416478)
(0.00416478 -0.00193676 -0.000119464 0.00416478 -1.89237e-18 0.00416478)
(0.00415235 -0.00193126 -0.000120858 0.00415235 -1.05308e-18 0.00415235)
(0.00415235 -0.00193126 -0.000120858 0.00415235 -2.19969e-18 0.00415235)
(0.00413981 -0.0019257 -0.000122265 0.00413981 -1.10449e-18 0.00413981)
(0.00413981 -0.0019257 -0.000122265 0.00413981 -2.20821e-18 0.00413981)
(0.00412716 -0.00192009 -0.000123684 0.00412716 -8.47391e-19 0.00412716)
(0.00412716 -0.00192009 -0.000123684 0.00412716 -2.67922e-18 0.00412716)
(0.00411439 -0.00191443 -0.000125115 0.00411439 -1.04888e-18 0.00411439)
(0.00411439 -0.00191443 -0.000125115 0.00411439 -3.11216e-18 0.00411439)
(0.0041015 -0.00190872 -0.000126557 0.0041015 -1.45831e-18 0.0041015)
(0.0041015 -0.00190872 -0.000126557 0.0041015 -2.92677e-18 0.0041015)
(0.00408851 -0.00190295 -0.000128011 0.00408851 -1.38003e-18 0.00408851)
(0.00408851 -0.00190295 -0.000128011 0.00408851 -2.7544e-18 0.00408851)
(0.00407541 -0.00189714 -0.000129478 0.00407541 -2.0596e-18 0.00407541)
(0.00407541 -0.00189714 -0.000129478 0.00407541 -3.06034e-18 0.00407541)
(0.0040622 -0.00189127 -0.000130956 0.0040622 -1.88492e-18 0.0040622)
(0.0040622 -0.00189127 -0.000130956 0.0040622 -2.69258e-18 0.0040622)
(0.00404888 -0.00188535 -0.000132447 0.00404888 -1.55902e-18 0.00404888)
(0.00404888 -0.00188535 -0.000132447 0.00404888 -2.38256e-18 0.00404888)
(0.00403546 -0.00187938 -0.000133949 0.00403546 -2.23601e-18 0.00403546)
(0.00403546 -0.00187938 -0.000133949 0.00403546 -2.83402e-18 0.00403546)
(0.00402193 -0.00187337 -0.000135464 0.00402193 -1.87624e-18 0.00402193)
(0.00402193 -0.00187337 -0.000135464 0.00402193 -2.52239e-18 0.00402193)
(0.0040083 -0.0018673 -0.000136991 0.0040083 -2.17043e-18 0.0040083)
(0.0040083 -0.0018673 -0.000136991 0.0040083 -2.33681e-18 0.0040083)
(0.00399457 -0.00186118 -0.000138529 0.00399457 -2.99798e-18 0.00399457)
(0.00399457 -0.00186118 -0.000138529 0.00399457 -1.94354e-18 0.00399457)
(0.00398073 -0.00185502 -0.00014008 0.00398073 -2.52207e-18 0.00398073)
(0.00398073 -0.00185502 -0.00014008 0.00398073 -1.77373e-18 0.00398073)
(0.0039668 -0.00184881 -0.000141643 0.0039668 -1.98906e-18 0.0039668)
(0.0039668 -0.00184881 -0.000141643 0.0039668 -1.71119e-18 0.0039668)
(0.00395277 -0.00184255 -0.000143217 0.00395277 -1.67075e-18 0.00395277)
(0.00395277 -0.00184255 -0.000143217 0.00395277 -1.68897e-18 0.00395277)
(0.00393863 -0.00183624 -0.000144804 0.00393863 -1.91234e-18 0.00393863)
(0.00393863 -0.00183624 -0.000144804 0.00393863 -1.9162e-18 0.00393863)
(0.0039244 -0.00182988 -0.000146403 0.0039244 -2.72814e-18 0.0039244)
(0.0039244 -0.00182988 -0.000146403 0.0039244 -1.67169e-18 0.0039244)
(0.00391008 -0.00182347 -0.000148013 0.00391008 -2.5427e-18 0.00391008)
(0.00391008 -0.00182347 -0.000148013 0.00391008 -1.56481e-18 0.00391008)
(0.00389565 -0.00181702 -0.000149636 0.00389565 -2.05706e-18 0.00389565)
(0.00389565 -0.00181702 -0.000149636 0.00389565 -1.63453e-18 0.00389565)
(0.00388113 -0.00181052 -0.00015127 0.00388113 -2.68149e-18 0.00388113)
(0.00388113 -0.00181052 -0.00015127 0.00388113 -1.53226e-18 0.00388113)
(0.00386652 -0.00180397 -0.000152916 0.00386652 -2.83919e-18 0.00386652)
(0.00386652 -0.00180397 -0.000152916 0.00386652 -1.76296e-18 0.00386652)
(0.00385181 -0.00179737 -0.000154574 0.00385181 -2.80739e-18 0.00385181)
(0.00385181 -0.00179737 -0.000154574 0.00385181 -1.78667e-18 0.00385181)
(0.003837 -0.00179072 -0.000156243 0.003837 -3.23373e-18 0.003837)
(0.003837 -0.00179072 -0.000156243 0.003837 -1.49776e-18 0.003837)
(0.0038221 -0.00178403 -0.000157924 0.0038221 -3.18039e-18 0.0038221)
(0.0038221 -0.00178403 -0.000157924 0.0038221 -1.50945e-18 0.0038221)
(0.00380711 -0.00177728 -0.000159616 0.00380711 -2.59406e-18 0.00380711)
(0.00380711 -0.00177728 -0.000159616 0.00380711 -1.87838e-18 0.00380711)
(0.00379202 -0.00177049 -0.00016132 0.00379202 -2.51005e-18 0.00379202)
(0.00379202 -0.00177049 -0.00016132 0.00379202 -1.36937e-18 0.00379202)
(0.00377683 -0.00176365 -0.000163034 0.00377683 -3.07052e-18 0.00377683)
(0.00377683 -0.00176365 -0.000163034 0.00377683 -5.75074e-20 0.00377683)
(0.00376156 -0.00175676 -0.00016476 0.00376156 -2.96008e-18 0.00376156)
(0.00376156 -0.00175676 -0.00016476 0.00376156 -2.77295e-19 0.00376156)
(0.00374618 -0.00174982 -0.000166497 0.00374618 -2.63665e-18 0.00374618)
(0.00374618 -0.00174982 -0.000166497 0.00374618 -1.59612e-18 0.00374618)
(0.00373072 -0.00174284 -0.000168245 0.00373072 -3.08718e-18 0.00373072)
(0.00373072 -0.00174284 -0.000168245 0.00373072 -1.20492e-18 0.00373072)
(0.00371516 -0.0017358 -0.000170003 0.00371516 -3.50596e-18 0.00371516)
(0.00371516 -0.0017358 -0.000170003 0.00371516 6.60947e-19 0.00371516)
(0.0036995 -0.00172871 -0.000171772 0.0036995 -3.31032e-18 0.0036995)
(0.0036995 -0.00172871 -0.000171772 0.0036995 3.75703e-19 0.0036995)
(0.00368375 -0.00172157 -0.000173552 0.00368375 -3.13411e-18 0.00368375)
(0.00368375 -0.00172157 -0.000173552 0.00368375 -7.59132e-19 0.00368375)