/*--------------------------------*- C++ -*----------------------------------*\
| =========                 |                                                 |
| \\      /  F ield         | OpenFOAM: The Open Source CFD Toolbox           |
|  \\    /   O peration     | Version:  2012                                  |
|   \\  /    A nd           | Website:  www.openfoam.com                      |
|    \\/     M anipulation  |                                                 |
\*---------------------------------------------------------------------------*/
FoamFile
{
    version     2.0;
    format      ascii;
    class       volTensorField;
    location    "15000";
    object      grad(U);
}
// * * * * * * * * * * * * * * * * * * * * * * * * * * * * * * * * * * * * * //

dimensions      [0 0 -1 0 0 0 0];


internalField   nonuniform List<tensor> 
2560
(
(0 0 3.61244e-18 508.061 -3.38813e-21 0.000216172 0.736428 3.02528e-08 2.89407e-07)
(0 -2.17989e-23 -8.25679e-18 508.061 8.37334e-05 0.000245877 0.736428 1.23192e-07 2.20954e-07)
(0 3.43783e-23 1.37513e-22 506.671 9.43234e-05 5.75744e-05 2.21598 2.39584e-07 2.46469e-07)
(0 -3.43783e-23 2.2861e-23 506.671 7.9316e-05 1.74772e-05 2.21598 3.65895e-07 5.13331e-08)
(-9.49619e-17 -2.47597e-23 -2.68195e-23 505.241 9.5708e-05 5.01724e-06 3.02861 3.69397e-07 2.51394e-07)
(0 0 0 505.241 5.88012e-05 3.76325e-06 3.02861 2.49926e-07 1.12139e-08)
(3.00305e-16 8.10592e-23 -1.08489e-22 503.742 6.50313e-06 -6.24987e-06 3.06326 1.22713e-07 2.49453e-07)
(0 0 0 503.742 -8.9714e-07 -1.69407e-20 3.06326 2.42016e-08 1.85407e-38)
(1.10465e-15 1.31685e-22 0 502.144 -9.11663e-05 -2.62249e-05 3.09758 2.95556e-07 2.29688e-07)
(0 -1.27118e-19 1.31685e-22 502.144 -8.62327e-05 -3.12653e-05 3.09758 2.64488e-07 1.09239e-07)
(1.80715e-15 0 1.39518e-22 500.427 -0.000122607 -4.19472e-05 3.13148 1.65125e-07 2.33306e-07)
(5.74666e-15 0 2.6684e-23 500.427 -0.000120431 -4.93208e-05 3.13147 1.8788e-07 2.75542e-07)
(-9.30959e-16 -5.16445e-19 -1.27937e-22 498.601 -5.84688e-05 -4.09992e-05 3.16508 -1.79353e-07 2.17816e-07)
(3.72383e-15 0 1.27937e-22 498.601 -5.60584e-05 -4.80896e-05 3.16508 -1.56857e-07 2.48665e-07)
(-1.14591e-15 -4.25309e-19 0 496.706 -1.18585e-20 -2.83492e-05 3.19875 0 1.54884e-07)
(4.58363e-15 -5.77155e-23 0 496.706 -8.72949e-06 -3.35578e-05 3.19875 -1.40465e-07 1.79379e-07)
(1.36311e-15 -2.41945e-23 6.21481e-23 494.811 1.53625e-05 -1.48361e-05 3.23299 -6.05876e-08 1.17592e-07)
(0 0 6.21481e-23 494.811 1.60735e-05 -1.82206e-05 3.23299 -1.46774e-07 1.35398e-07)
(-2.05546e-15 0 6.12573e-23 492.997 1.64631e-05 -4.61012e-06 3.26837 -1.39664e-07 5.78442e-08)
(0 0 -6.12573e-23 492.997 1.69797e-05 -7.88303e-06 3.26837 -1.38512e-07 7.50019e-08)
(-5.85617e-15 6.3733e-24 -6.77559e-23 491.349 1.06123e-05 2.68657e-06 3.30547 -7.69814e-08 3.87908e-08)
(0 3.01897e-23 6.03794e-23 491.349 1.10915e-05 -8.55571e-06 3.30547 -9.76606e-08 2.86159e-08)
(2.02807e-15 -4.79988e-23 6.9768e-23 489.943 8.85937e-06 4.33099e-06 3.34489 -6.491e-08 1.98578e-08)
(0 2.9757e-23 0 489.943 9.21251e-06 -1.86224e-05 3.34489 -6.36303e-08 5.40355e-08)
(0 0 9.62965e-35 488.853 5.95728e-06 -8.47033e-22 3.38718 -5.52702e-08 0)
(0 1.46652e-23 -5.8661e-23 488.853 6.26928e-06 -9.65159e-06 3.38718 -3.45666e-08 1.8299e-08)
(-6.36324e-15 3.16242e-23 0 488.142 4.00172e-06 -1.42367e-05 3.43288 -2.65576e-08 4.94444e-08)
(9.93197e-15 -1.44551e-23 -5.78202e-23 488.142 4.26316e-06 1.66238e-06 3.43288 -2.00452e-08 5.90856e-14)
(-3.82464e-15 2.84958e-23 -5.69915e-23 487.868 2.61619e-06 -6.23991e-06 3.48248 -2.937e-08 1.51513e-08)
(3.82464e-15 -2.84958e-23 5.69915e-23 487.868 2.84744e-06 7.75192e-06 3.48248 -4.31347e-09 8.66455e-14)
(-2.94846e-15 2.55987e-24 0 488.077 2.1013e-06 4.29568e-06 3.53647 -7.5542e-09 2.83425e-12)
(1.17939e-14 0 0 488.077 2.41055e-06 8.53966e-06 3.53647 4.71371e-10 8.3652e-14)
(0 3.4606e-23 0 488.809 2.31204e-06 9.33235e-06 3.59526 -1.31752e-08 3.5637e-12)
(-1.27428e-14 -3.4606e-23 0 488.809 2.49985e-06 9.33234e-06 3.59526 1.3459e-08 1.19344e-13)
(0 3.411e-23 0 490.096 3.64372e-07 1.01265e-05 3.65924 -7.805e-09 2.90681e-12)
(-1.37052e-14 -3.411e-23 0 490.096 5.37009e-07 1.01265e-05 3.65924 1.90065e-08 1.13709e-13)
(3.61004e-15 -2.32862e-35 5.37938e-23 491.957 3.41071e-22 1.09121e-05 3.72873 0 3.60295e-12)
(0 1.34484e-23 0 491.957 5.84855e-07 1.09121e-05 3.72873 1.77152e-08 1.57756e-13)
(3.91885e-15 2.65114e-23 0 494.404 1.80234e-06 1.17257e-05 3.80398 -3.3326e-09 2.83994e-12)
(-1.56754e-14 -3.31392e-23 0 494.404 1.95144e-06 1.17257e-05 3.80398 2.37637e-08 1.5031e-13)
(0 3.59307e-23 -1.04526e-22 497.438 6.09248e-07 1.25804e-05 3.88519 5.68749e-09 3.70873e-12)
(0 -3.59307e-23 1.04526e-22 497.438 7.50514e-07 1.25804e-05 3.88519 3.29013e-08 2.01914e-13)
(-4.42901e-15 -9.65883e-24 0 501.048 -1.46115e-06 1.34327e-05 3.97244 2.42338e-09 2.96396e-12)
(0 1.6098e-23 0 501.048 -1.3267e-06 1.34328e-05 3.97244 2.97626e-08 1.93027e-13)
(2.12326e-15 -1.31159e-24 3.04652e-22 505.215 -8.19742e-26 1.42981e-05 4.06577 -8.27181e-25 3.62854e-12)
(0 4.44285e-23 -2.03102e-22 505.215 1.21687e-06 1.42981e-05 4.06577 2.27489e-08 2.52567e-13)
(0 2.50238e-23 0 509.908 1.59358e-06 1.52321e-05 4.16511 1.23099e-08 3.04117e-12)
(-1.98401e-14 -3.12798e-23 0 509.908 1.71664e-06 1.52321e-05 4.16511 3.98861e-08 2.42247e-13)
(5.23445e-15 3.69978e-23 0 515.085 -1.03245e-06 1.62044e-05 4.27027 9.02868e-09 3.81761e-12)
(0 -3.69978e-23 0 515.085 -9.14012e-07 1.62044e-05 4.27027 3.67195e-08 3.09612e-13)
(-1.10308e-14 5.16623e-23 0 520.692 -1.51422e-06 1.71678e-05 4.38094 4.8427e-09 3.10748e-12)
(0 -5.16623e-23 0 520.692 -1.3983e-06 1.71678e-05 4.38094 3.26546e-08 2.98415e-13)
(2.38425e-14 -1.4345e-24 0 526.666 2.11758e-22 1.81722e-05 4.49677 -4.1359e-25 3.80242e-12)
(3.9994e-14 5.9908e-23 0 526.666 1.75261e-06 1.81722e-05 4.49677 2.53354e-08 3.73764e-13)
(0 -3.10009e-23 0 532.936 9.41879e-07 1.92637e-05 4.61727 1.98728e-08 3.13541e-12)
(2.43945e-14 3.54296e-23 0 532.936 1.04981e-06 1.92636e-05 4.61727 4.78916e-08 3.61707e-13)
(6.40173e-15 -8.82218e-20 -1.8625e-22 539.42 4.23516e-22 2.03938e-05 4.74181 6.17378e-09 4.06898e-12)
(0 -1.16406e-23 0 539.42 -1.26961e-06 2.03937e-05 4.74181 3.42999e-08 4.45117e-13)
(-1.3426e-14 0 0 546.025 -1.22615e-06 2.1528e-05 4.86963 9.00529e-09 3.25522e-12)
(-5.37041e-14 0 0 546.025 -1.12295e-06 2.1528e-05 4.86963 3.72463e-08 4.33475e-13)
(-7.03283e-15 0 0 552.654 0 2.2719e-05 4.99994 0 4.02738e-12)
(-2.81313e-14 -1.13093e-23 -1.80949e-22 552.654 1.44809e-06 2.2719e-05 4.99994 2.45523e-08 5.24793e-13)
(-1.19693e-14 4.45889e-23 0 559.206 9.36846e-07 2.40101e-05 5.13185 2.22636e-08 3.34198e-12)
(-1.74766e-14 -4.45889e-23 0 559.206 1.03696e-06 2.40101e-05 5.13185 5.07034e-08 5.14163e-13)
(0 -9.00091e-20 3.51599e-22 565.573 -5.55639e-07 2.53436e-05 5.26428 5.34026e-09 4.29029e-12)
(3.07967e-14 3.84561e-23 -3.51599e-22 565.573 -1.9424e-06 2.53436e-05 5.26428 3.38837e-08 6.13467e-13)
(-8.04617e-15 0 0 571.639 -4.66607e-07 2.66974e-05 5.39611 4.55426e-09 3.51609e-12)
(0 1.083e-23 0 571.639 -3.68786e-07 2.66974e-05 5.39611 3.32194e-08 6.05581e-13)
(-8.40255e-15 -1.96798e-39 0 577.291 5.67231e-23 2.8142e-05 5.5262 1.93313e-09 4.33162e-12)
(0 -3.73617e-23 0 577.291 1.55801e-06 2.8142e-05 5.5262 3.06836e-08 7.13124e-13)
(-2.0066e-14 2.89349e-23 0 582.418 3.36551e-07 2.96983e-05 5.6533 1.94899e-08 3.62711e-12)
(-3.50735e-14 -1.84131e-23 0 582.418 4.34953e-07 2.96983e-05 5.6533 4.83569e-08 7.09006e-13)
(9.14361e-15 -1.55564e-23 0 586.903 -1.96389e-06 3.13054e-05 5.77604 5.92502e-09 4.55241e-12)
(0 1.55564e-23 0 586.903 -1.86663e-06 3.13054e-05 5.77604 3.48903e-08 8.25405e-13)
(2.05043e-14 -3.18804e-20 0 590.629 5.29396e-23 3.2954e-05 5.89304 1.42864e-09 3.80074e-12)
(-1.09761e-14 2.04446e-23 0 590.629 -2.80852e-07 3.29539e-05 5.89304 3.05092e-08 8.26999e-13)
(-2.07406e-14 -2.09743e-20 0 593.485 5.25171e-07 3.4714e-05 6.00291 3.24291e-09 4.70097e-12)
(0 -1.00758e-23 0 593.485 1.37954e-06 3.4714e-05 6.00291 3.24263e-08 9.53752e-13)
(0 2.48285e-23 0 595.367 8.22248e-07 3.66172e-05 6.10422 1.53781e-08 3.99675e-12)
(0 -3.97256e-23 0 595.367 9.19148e-07 3.66172e-05 6.10422 4.46782e-08 9.62212e-13)
(-1.07352e-14 9.78906e-24 0 596.169 -1.77222e-06 3.86081e-05 6.19541 1.25435e-08 4.90761e-12)
(4.29409e-14 0 -6.265e-22 596.169 -1.67554e-06 3.86081e-05 6.19541 4.19374e-08 1.10099e-12)
(0 -6.7252e-20 0 595.784 0 4.06491e-05 6.27492 0 4.24939e-12)
(4.46163e-14 3.8595e-23 0 595.784 -1.16745e-06 4.06491e-05 6.27492 2.75914e-08 1.11867e-12)
(1.15803e-14 -1.4432e-19 -6.0867e-22 594.117 6.98382e-07 4.28377e-05 6.34124 4.9443e-10 5.17286e-12)
(-4.63211e-14 -3.32866e-23 6.0867e-22 594.117 2.63421e-06 4.28378e-05 6.34124 3.01277e-08 1.2706e-12)
(3.2144e-14 -2.10918e-23 0 591.08 -1.1964e-06 4.51835e-05 6.39283 2.62794e-08 4.37169e-12)
(-2.01308e-14 2.10918e-23 0 591.08 -1.09605e-06 4.51835e-05 6.39283 5.60207e-08 1.3034e-12)
(-1.24518e-14 1.83671e-40 5.91347e-22 586.586 8.13687e-25 4.76452e-05 6.42806 -1.65436e-24 5.50165e-12)
(0 1.84796e-23 -5.91347e-22 586.586 3.13641e-07 4.76452e-05 6.42806 1.81617e-08 1.46423e-12)
(1.28955e-14 1.70763e-23 0 580.553 -1.78431e-06 5.02158e-05 6.44534 3.03658e-08 4.68178e-12)
(5.15819e-14 -1.25226e-23 0 580.553 -1.68187e-06 5.02158e-05 6.44534 6.03327e-08 1.52235e-12)
(0 -4.31159e-24 5.74517e-22 572.908 8.47033e-22 5.29431e-05 6.44313 0 5.57415e-12)
(5.33721e-14 2.69305e-23 0 572.908 2.09623e-06 5.29431e-05 6.44313 -9.14038e-10 1.69142e-12)
(-1.37933e-14 0 0 563.588 3.31383e-06 5.59525e-05 6.4199 5.50837e-08 5.10034e-12)
(0 1.10602e-23 0 563.588 3.41966e-06 5.59525e-05 6.4199 7.67613e-08 1.77466e-12)
(-1.42452e-14 0 0 552.534 -9.51796e-06 5.89856e-05 6.37404 7.08037e-09 6.0467e-12)
(0 8.72136e-24 0 552.534 -9.41596e-06 5.89856e-05 6.37404 3.748e-08 1.9644e-12)
(0 -3.50799e-20 0 539.697 -1.38017e-21 6.1947e-05 6.3042 0 5.55067e-12)
(0 1.71927e-23 0 539.697 -6.31764e-07 6.19469e-05 6.3042 -2.34611e-08 1.90692e-12)
(-3.33437e-14 -1.10881e-19 0 525.059 1.80115e-05 6.56099e-05 6.20934 5.41729e-10 7.25217e-12)
(0 1.69463e-23 0 525.059 2.28831e-05 6.561e-05 6.20934 3.12235e-08 2.4619e-12)
(-1.79352e-14 6.68137e-23 -1.06902e-21 508.599 -2.89648e-05 6.93045e-05 6.08796 2.20085e-07 5.0983e-12)
(-6.23818e-14 -1.43769e-18 0 508.599 -1.32036e-05 6.93046e-05 6.08796 7.98175e-08 2.35839e-12)
(-1.60386e-14 -1.17549e-37 0 490.295 1.6695e-21 7.2715e-05 5.93894 -5.29396e-23 6.00385e-12)
(6.41543e-14 -6.66167e-23 -1.0537e-21 490.295 9.9225e-06 7.27151e-05 5.93894 -2.03058e-07 2.71384e-12)
(0 0 0 470.178 1.35629e-05 7.68762e-05 5.76195 3.51134e-07 5.71911e-12)
(0 -5.18107e-20 0 470.178 1.30848e-05 7.6876e-05 5.76195 8.14165e-08 3.20184e-12)
(-1.69036e-14 -5.87747e-39 0 448.283 -3.38813e-21 8.08817e-05 5.55604 -3.71278e-39 8.36066e-12)
(6.76145e-14 0 0 448.283 -2.62876e-05 8.08815e-05 5.55604 -1.61554e-07 2.67637e-12)
(5.15723e-14 -1.97077e-23 2.01807e-21 424.654 2.63673e-05 8.50473e-05 5.32101 2.45995e-08 7.42641e-12)
(5.23582e-14 1.97077e-23 -2.01807e-21 424.654 2.64743e-05 8.50475e-05 5.32101 5.61173e-08 3.16261e-12)
(1.66862e-14 0 9.94574e-22 399.378 -2.11596e-05 8.94746e-05 5.05708 1.45901e-07 7.31245e-12)
(0 1.55402e-23 0 399.378 -1.29239e-05 8.94747e-05 5.05708 8.39745e-08 3.61027e-12)
(-1.67207e-15 0 0 372.559 5.92923e-21 9.359e-05 4.76457 -3.0987e-51 6.59029e-12)
(-1.6447e-14 0 0 372.559 5.19438e-06 9.359e-05 4.76457 -2.10914e-07 3.70682e-12)
(-3.69882e-14 0 0 344.331 7.37343e-06 9.81005e-05 4.44457 2.20804e-07 8.55389e-12)
(7.39765e-14 6.23692e-23 0 344.331 7.50113e-06 9.81004e-05 4.44457 8.58344e-08 4.0555e-12)
(-1.88506e-14 -1.38891e-19 0 314.849 -1.09736e-23 0.000102656 4.09818 -2.64698e-23 7.71659e-12)
(0 0 0 314.849 -6.67847e-06 0.000102656 4.09818 -1.25905e-07 4.31888e-12)
(-1.91865e-14 0 0 284.286 4.16316e-06 0.000107122 3.72708 1.35072e-07 9.32999e-12)
(7.67459e-14 5.87489e-23 0 284.286 4.29118e-06 0.000107122 3.72708 8.79144e-08 4.54275e-12)
(-1.94997e-14 0 0 252.839 -2.4255e-05 0.000110937 3.33335 -1.02669e-07 9.47677e-12)
(0 0 0 252.839 -2.40923e-05 0.000110937 3.33335 -7.00986e-08 4.06091e-12)
(-3.95768e-14 0 0 220.74 1.39106e-23 0.000114763 2.91988 0 8.62018e-12)
(-7.91536e-14 0 0 220.74 3.02983e-05 0.000114763 2.91988 -1.67737e-07 5.96825e-12)
(-4.01014e-14 -1.12373e-22 0 188.244 -7.38191e-06 0.000119025 2.48981 3.31644e-07 6.88054e-12)
(1.60406e-13 3.59069e-22 0 188.244 -7.23793e-06 0.000119025 2.48981 9.17238e-08 6.05304e-12)
(-6.08551e-14 1.50463e-36 -3.54438e-21 155.598 1.3596e-20 0.00012191 2.04615 -5.29396e-23 1.16503e-11)
(-8.11401e-14 3.08634e-23 0 155.598 -3.05904e-05 0.000121909 2.04615 -2.2411e-07 4.96781e-12)
(-2.04899e-14 -5.45872e-23 0 123.077 3.49561e-05 0.000124584 1.59321 -1.0843e-07 1.05984e-11)
(5.26532e-14 8.18808e-23 0 123.077 3.5094e-05 0.000124584 1.59321 -7.50053e-08 5.48433e-12)
(2.0664e-14 0 0 90.9772 -3.15398e-05 0.000126975 1.13524 2.07558e-07 1.05741e-11)
(0 0 0 90.9772 -1.26541e-05 0.000126975 1.13524 9.49907e-08 5.41937e-12)
(0 -8.15336e-23 0 59.5809 3.3066e-21 0.000128962 0.676489 -1.05879e-22 9.72781e-12)
(8.32257e-14 -1.79003e-22 0 59.5809 3.0318e-05 0.000128962 0.676489 -2.31101e-07 6.74675e-12)
(1.72604e-14 0 0 28.6854 -3.88458e-05 0.000130303 0.221641 4.27959e-07 9.88978e-12)
(8.36659e-14 3.44386e-22 0 28.6854 -1.27253e-05 0.000130303 0.221641 9.83235e-08 6.12607e-12)
(-2.76619e-14 0 -3.29756e-21 0.00551305 6.01853e-36 0.000130707 0.00011433 -2.11758e-22 8.42268e-12)
(8.38504e-14 -5.20187e-22 -3.29756e-21 0.00551417 1.93336e-05 0.000130707 0.000114321 -2.36358e-07 6.57043e-12)
(0 0 0 -27.6378 -6.04889e-07 0.000131426 0.224689 4.39464e-07 9.99377e-12)
(0 0 0 -27.6378 -4.31537e-07 0.000131426 0.224689 1.01595e-07 6.74762e-12)
(-4.16203e-14 2.82119e-36 0 -53.5379 -2.05019e-20 0.000131357 0.657643 -4.80339e-38 9.46019e-12)
(0 0 0 -53.5379 -1.84671e-05 0.000131357 0.657643 -2.41889e-07 6.1694e-12)
(0 0 0 -77.4995 1.89536e-05 0.000131234 1.07326 4.51863e-07 1.106e-11)
(8.27119e-14 4.29774e-19 0 -77.4995 1.2786e-05 0.000131234 1.07326 1.04665e-07 6.69188e-12)
(0 -3.21997e-19 0 -99.3541 -3.38813e-20 0.000131134 1.4672 0 9.94958e-12)
(8.2086e-14 -3.76086e-22 0 -99.3541 -1.90728e-05 0.000131134 1.4672 -2.47283e-07 6.31154e-12)
(-2.03429e-14 0 0 -118.994 1.10904e-05 0.000130916 1.83598 4.56529e-07 1.03107e-11)
(0 0 0 -118.994 1.12566e-05 0.000130916 1.83598 1.07976e-07 6.83155e-12)
(2.01446e-14 -7.50802e-19 0 -136.359 0 0.000130511 2.1769 0 9.21197e-12)
(-2.53668e-14 0 0 -136.359 -2.29253e-05 0.000130511 2.1769 -2.52876e-07 6.2007e-12)
(0 -2.03753e-23 5.96122e-21 -151.422 2.76423e-05 0.000130579 2.48784 8.00093e-08 1.26527e-11)
(2.50032e-14 -9.58864e-19 0 -151.422 1.28572e-05 0.000130579 2.48784 1.11504e-07 6.2934e-12)
(0 -1.12576e-20 0 -164.202 -2.97545e-05 0.000130907 2.76702 -2.61798e-07 1.11925e-11)
(2.46448e-14 0 0 -164.202 -2.95107e-05 0.000130907 2.76702 -2.59654e-07 6.09055e-12)
(-3.89093e-14 -1.17549e-38 0 -174.775 -6.16534e-23 0.000131496 3.01376 -1.05879e-22 1.12819e-11)
(2.42916e-14 0 0 -174.775 2.61645e-05 0.000131496 3.01376 -2.63927e-07 7.24668e-12)
(-1.92009e-14 3.34486e-23 0 -183.259 -3.08236e-05 0.000132294 3.22836 1.57528e-07 9.05282e-12)
(0 -1.07942e-18 0 -183.259 -1.30077e-05 0.000132294 3.22836 1.17802e-07 6.64144e-12)
(1.89387e-14 -1.40359e-22 0 -189.792 -1.40359e-22 0.000133111 3.41159 0 1.01639e-11)
(-7.57549e-14 3.89615e-22 0 -189.792 2.06293e-05 0.000133111 3.41159 -2.71419e-07 7.30272e-12)
(0 0 5.5461e-21 -194.534 -5.9628e-06 0.000134828 3.56478 5.1745e-07 8.57283e-12)
(-7.46804e-14 -2.6228e-22 -5.5461e-21 -194.534 -5.75991e-06 0.000134828 3.56478 1.22339e-07 7.5055e-12)
(-1.83968e-14 -2.19556e-19 0 -197.67 1.69407e-20 0.000136086 3.68961 0 1.10691e-11)
(1.24245e-13 -9.14948e-22 0 -197.67 -1.5042e-05 0.000136086 3.68961 -2.79009e-07 7.21044e-12)
(1.81201e-14 4.20958e-23 0 -199.393 1.95992e-05 0.000137816 3.78871 2.95179e-07 1.10364e-11)
(7.24805e-14 3.0853e-23 0 -199.393 1.32165e-05 0.000137816 3.78871 1.26809e-07 7.80587e-12)
(0 -1.3185e-19 0 -199.885 -1.35525e-20 0.000140214 3.86432 1.05879e-22 1.27077e-11)
(0 0 0 -199.885 -9.0277e-06 0.000140214 3.86432 -2.86714e-07 8.00609e-12)
(-3.95188e-14 -7.1571e-23 0 -199.333 -5.3125e-06 0.000142284 3.91898 1.34066e-07 1.05884e-11)
(7.02479e-14 9.49957e-23 0 -199.333 -5.09588e-06 0.000142284 3.91898 1.31661e-07 8.36424e-12)
(-1.72824e-14 -1.85728e-36 0 -197.918 1.21579e-20 0.000144439 3.95556 1.05879e-22 1.24116e-11)
(-6.91297e-14 3.09853e-22 0 -197.918 2.69095e-06 0.000144439 3.95556 -2.95281e-07 8.77345e-12)
(1.70036e-14 -1.98669e-23 0 -195.795 -6.1957e-06 0.000146605 3.97665 2.03898e-07 1.06544e-11)
(6.80142e-14 7.95505e-23 0 -195.795 -5.96586e-06 0.000146605 3.97665 1.36918e-07 9.06801e-12)
(4.30019e-15 -7.94253e-20 0 -193.102 1.42623e-20 0.000148525 3.98451 0 1.16973e-11)
(4.58778e-14 -3.80583e-22 0 -193.102 -2.75361e-06 0.000148525 3.98451 -3.04639e-07 9.66356e-12)
(-1.64502e-14 0 0 -189.955 1.62223e-05 0.000151112 3.98124 1.65118e-07 1.17329e-11)
(0 -1.4994e-19 0 -189.955 1.36245e-05 0.000151112 3.98124 1.42551e-07 1.02423e-11)
(-1.61766e-14 -2.45268e-19 0 -186.456 6.87361e-21 0.000153679 3.96854 0 1.411e-11)
(0 0 0 -186.456 -1.87278e-05 0.000153679 3.96854 -3.14208e-07 1.03978e-11)
(-1.59054e-14 0 0 -182.701 7.71808e-06 0.000155854 3.94823 -2.22472e-07 1.31058e-11)
(6.36217e-14 7.50087e-23 0 -182.701 7.95077e-06 0.000155854 3.94823 -1.79804e-07 1.0882e-11)
(1.5637e-14 -7.64256e-20 0 -178.762 -1.66954e-05 0.000157593 3.92185 -1.82413e-07 1.66422e-11)
(0 0 0 -178.762 -1.84373e-05 0.000157593 3.92185 -3.24234e-07 1.04421e-11)
(0 -8.65104e-23 0 -174.69 -1.73021e-22 0.000159984 3.89049 0 1.28063e-11)
(0 0 0 -174.69 2.98166e-05 0.000159985 3.89049 -3.30511e-07 1.31381e-11)
(-1.51088e-14 -1.79574e-23 9.19417e-21 -170.528 -2.6605e-05 0.000162665 3.85486 1.92248e-07 1.17847e-11)
(0 3.59147e-23 -9.19417e-21 -170.528 -1.40881e-05 0.000162665 3.85486 1.58434e-07 1.30926e-11)
(0 -1.06361e-19 0 -166.322 -1.52466e-20 0.000163775 3.81588 0 1.21737e-11)
(1.18796e-13 -9.37735e-22 0 -166.322 -8.47429e-06 0.000163774 3.81588 -3.4207e-07 1.31396e-11)
(-1.87328e-14 8.72316e-24 0 -162.097 3.04083e-05 0.000165891 3.77444 1.86897e-08 1.81318e-11)
(5.83731e-14 7.85429e-19 0 -162.097 1.42999e-05 0.000165891 3.77444 6.38887e-08 1.42405e-11)
(-1.43405e-14 7.58477e-23 -8.80449e-21 -157.867 -3.4045e-05 0.000167836 3.73061 -4.82772e-07 1.69735e-11)
(-5.7362e-14 5.97683e-24 0 -157.867 -3.37604e-05 0.000167837 3.73061 -4.76831e-07 1.37765e-11)
(4.10854e-15 0 8.67829e-21 -153.654 3.38813e-21 0.000169343 3.68485 -3.39316e-51 1.48466e-11)
(-7.45644e-14 2.02321e-22 0 -153.654 2.45709e-05 0.000169343 3.68485 -3.60506e-07 1.64817e-11)
(0 4.17672e-23 0 -149.471 -8.83641e-06 0.000171584 3.63764 6.05246e-08 1.28883e-11)
(-1.79389e-14 -2.08836e-23 -8.55391e-21 -149.471 -8.54494e-06 0.000171584 3.63764 1.07727e-07 1.67783e-11)
(1.76817e-14 -4.95731e-19 0 -145.332 1.01644e-20 0.000172316 3.58911 0 1.91679e-11)
(3.67302e-14 -3.15592e-22 0 -145.332 -2.15999e-05 0.000172316 3.58911 -3.74605e-07 1.65273e-11)
(-4.06407e-15 1.94777e-22 -8.31047e-21 -141.244 2.81259e-05 0.000173325 3.53966 -4.57256e-07 1.75458e-11)
(0 -6.49256e-23 0 -141.244 2.74952e-05 0.000173325 3.53966 -4.08522e-07 1.77297e-11)
(0 -1.2799e-22 8.19136e-21 -137.209 -1.11622e-05 0.000175148 3.4893 -2.85703e-07 1.61286e-11)
(1.05033e-13 1.2799e-22 -8.19136e-21 -137.209 -1.08571e-05 0.000175148 3.4893 -2.36349e-07 1.88095e-11)
(0 -2.0488e-19 8.07396e-21 -133.234 1.69407e-21 0.000175902 3.43813 0 1.83187e-11)
(1.03181e-13 -3.18745e-22 0 -133.234 -9.12697e-06 0.000175902 3.43813 -3.97695e-07 1.94435e-11)
(-2.53397e-14 2.23811e-23 0 -129.326 1.34058e-05 0.000176818 3.38643 -4.33258e-07 2.02227e-11)
(0 0 0 -129.326 1.3723e-05 0.000176818 3.38643 -4.41384e-07 2.06141e-11)
(-1.24457e-14 0 0 -125.489 -1.28995e-05 0.000177706 3.33426 -3.78243e-07 1.7359e-11)
(9.95658e-14 0 0 -125.489 -1.25632e-05 0.000177706 3.33426 -3.26323e-07 2.12266e-11)
(1.22253e-14 -2.35591e-22 0 -121.728 8.70592e-21 0.000178013 3.28184 1.05879e-22 1.85368e-11)
(0 0 0 -121.728 3.28308e-06 0.000178013 3.28184 -4.2356e-07 2.25264e-11)
(-1.20085e-14 0 0 -118.044 7.87268e-06 0.000178841 3.2293 -2.82036e-07 2.03322e-11)
(0 0 0 -118.044 8.22143e-06 0.000178841 3.2293 -2.28328e-07 2.30859e-11)
(3.9578e-15 3.80457e-24 0 -114.44 -2.38714e-05 0.000178715 3.17659 -6.03918e-07 2.33601e-11)
(3.14283e-14 0 0 -114.44 -2.3501e-05 0.000178716 3.17659 -5.76643e-07 2.35565e-11)
(-1.15859e-14 9.40395e-38 0 -110.921 2.57574e-22 0.000178535 3.12403 3.57456e-38 1.8225e-11)
(3.08162e-14 -2.32863e-22 -1.48081e-20 -110.921 2.46146e-05 0.000178535 3.12403 -4.5258e-07 2.60534e-11)
(-2.27601e-14 0 0 -107.483 -6.79032e-06 0.000179247 3.07164 6.67709e-08 1.86858e-11)
(0 0 0 -107.483 -6.40878e-06 0.000179247 3.07164 1.2326e-07 2.65579e-11)
(-1.11778e-14 -1.56503e-19 0 -104.13 3.38813e-21 0.000178568 3.01931 -2.11758e-22 2.03382e-11)
(0 0 -1.43867e-20 -104.13 -1.58335e-05 0.000178567 3.01931 -4.74223e-07 2.70509e-11)
(0 -5.53924e-23 0 -100.865 2.35078e-05 0.000178215 2.9674 -3.73534e-07 2.75607e-11)
(-4.39164e-14 0 0 -100.865 1.68883e-05 0.000178215 2.9674 -3.14657e-07 2.87071e-11)
(1.07839e-14 0 1.39772e-20 -97.6873 -2.6284e-05 0.000177575 2.91594 -4.31988e-07 2.29419e-11)
(4.31356e-14 3.29269e-19 -1.39772e-20 -97.6873 -1.70965e-05 0.000177575 2.91594 -3.71588e-07 2.82403e-11)
(1.05922e-14 -3.17258e-22 0 -94.5948 1.35525e-20 0.000176716 2.86489 0 2.17688e-11)
(-4.23688e-14 3.17839e-22 0 -94.5948 2.45457e-05 0.000176716 2.86489 -5.08924e-07 3.17842e-11)
(-1.04039e-14 2.65223e-23 -1.35794e-20 -91.5889 -1.65433e-05 0.00017619 2.81433 3.22113e-07 2.1874e-11)
(2.73766e-14 3.82094e-23 0 -91.5889 -1.6096e-05 0.000176189 2.81433 2.68198e-07 3.1273e-11)
(0 -2.30018e-22 0 -88.67 1.69407e-21 0.000175059 2.76438 0 2.39952e-11)
(0 0 -1.33848e-20 -88.67 8.68292e-06 0.000175059 2.76438 -5.36184e-07 3.30871e-11)
(-1.38338e-14 0 -3.95789e-20 -85.837 -1.23387e-05 0.000173535 2.71508 6.22713e-07 2.31873e-11)
(4.01499e-14 1.20907e-22 0 -85.837 -1.18731e-05 0.000173535 2.71508 2.84417e-07 3.32462e-11)
(9.85921e-15 -5.73047e-22 0 -83.0892 1.69407e-20 0.000171665 2.66644 -4.23516e-22 2.13652e-11)
(0 0 0 -83.0892 9.45352e-06 0.000171665 2.66644 -5.65418e-07 3.54768e-11)
(1.34401e-14 0 1.28175e-20 -80.424 7.45668e-06 0.000170717 2.61855 9.66068e-07 2.22179e-11)
(-5.21767e-14 -4.06444e-22 -1.28175e-20 -80.424 7.93545e-06 0.000170717 2.61855 3.02039e-07 3.53219e-11)
(-1.32475e-14 -1.78325e-19 -2.52676e-20 -77.8391 1.69407e-20 0.000168756 2.5713 2.11758e-22 2.30785e-11)
(0 0 0 -77.8391 -2.05766e-05 0.000168756 2.5713 -5.96373e-07 3.76559e-11)
(0 4.86434e-23 2.49054e-20 -75.3351 2.63415e-05 0.000167027 2.52478 3.2943e-07 2.40599e-11)
(0 -2.50638e-19 -2.49054e-20 -75.3351 1.93367e-05 0.000167027 2.52478 3.21114e-07 3.8796e-11)
(9.17788e-15 -5.23487e-19 0 -72.9104 0 0.000164774 2.47908 0 2.91954e-11)
(0 0 0 -72.9104 -3.12305e-05 0.000164774 2.47908 -6.29073e-07 3.86916e-11)
(9.01521e-15 -2.6035e-23 0 -70.5614 2.87348e-05 0.000162195 2.43415 -5.22912e-07 2.77693e-11)
(0 0 -2.41966e-20 -70.5614 2.92659e-05 0.000162196 2.43415 -6.34415e-07 3.84042e-11)
(-1.7711e-14 0 0 -68.2849 -1.58256e-05 0.000160346 2.38993 2.42078e-08 2.03206e-11)
(3.54221e-14 0 0 -68.2849 -1.52832e-05 0.000160346 2.38993 1.01615e-07 4.33152e-11)
(-8.69874e-15 -1.47869e-20 0 -66.0792 -2.11758e-22 0.000157133 2.3464 0 2.28664e-11)
(0 0 0 -66.0792 -1.31057e-06 0.000157133 2.3464 -6.8366e-07 3.96771e-11)
(0 4.5256e-23 0 -63.94 1.6499e-05 0.000154812 2.30358 -2.42507e-09 2.33795e-11)
(0 -4.5256e-23 0 -63.94 1.70588e-05 0.000154812 2.30358 7.92976e-08 4.64198e-11)
(1.19742e-14 -1.54438e-19 0 -61.8638 -1.11534e-05 0.00015201 2.26129 -2.01977e-07 3.03198e-11)
(-1.19742e-14 0 0 -61.8638 -2.05922e-05 0.00015201 2.26129 -5.71613e-07 4.03441e-11)
(-1.18026e-14 5.40727e-37 0 -59.8488 1.90036e-21 0.000148209 2.21958 -1.05879e-22 1.64035e-11)
(0 0 -2.25116e-20 -59.8488 9.97314e-06 0.000148209 2.21958 -6.56489e-07 5.01962e-11)
(0 0 2.2189e-20 -57.8898 5.28538e-06 0.000145334 2.17837 -2.83073e-07 2.82436e-11)
(5.31677e-14 0 -2.2189e-20 -57.8898 5.95948e-06 0.000145334 2.17837 -1.94122e-07 4.00399e-11)
(-1.5915e-14 -2.35099e-38 0 -55.9835 0 0.000142319 2.13748 0 1.77634e-11)
(3.183e-14 0 0 -55.9835 -4.88753e-06 0.000142319 2.13748 -4.33105e-07 5.51213e-11)
(7.81762e-15 0 0 -54.1286 -6.07138e-06 0.000138286 2.09694 -4.6316e-07 3.07956e-11)
(1.13023e-14 0 0 -54.1286 -5.34398e-06 0.000138287 2.09694 -3.68848e-07 3.82227e-11)
(0 -1.58861e-34 0 -52.3222 5.41728e-21 0.000134028 2.05671 0 6.85553e-12)
(-3.0722e-14 0 0 -52.3222 5.88482e-06 0.000134027 2.05671 -6.33985e-07 6.19339e-11)
(-1.85268e-14 -1.63625e-22 -2.0944e-20 -50.5617 4.26623e-06 0.00013036 2.01669 -2.252e-07 3.53848e-11)
(4.11651e-14 1.63625e-22 0 -50.5617 5.06328e-06 0.000130361 2.01669 -1.25157e-07 3.39547e-11)
(0 -7.55665e-20 0 -48.8459 -4.23516e-21 0.000126467 1.97688 0 5.43365e-13)
(-1.08233e-14 0 0 -48.8459 -4.80018e-06 0.000126466 1.97688 -4.33235e-07 7.18502e-11)
(1.06682e-14 0 4.06958e-20 -47.1745 -5.63554e-07 0.000121952 1.93727 -2.88735e-07 4.40101e-11)
(0 0 -4.06958e-20 -47.1745 3.18061e-07 0.000121953 1.93727 -3.03927e-07 2.56653e-11)
(-7.1593e-15 2.02185e-36 0 -45.5475 7.2177e-21 0.000117299 1.89791 -1.05879e-22 -1.61355e-11)
(0 0 0 -45.5475 1.3952e-06 0.000117298 1.89791 -4.15511e-07 8.68881e-11)
(-1.40715e-14 -3.08887e-22 5.93064e-20 -43.9636 -1.68423e-06 0.000112415 1.85884 -3.45413e-07 5.83556e-11)
(5.62859e-14 2.31666e-22 0 -43.9636 -6.85404e-07 0.000112416 1.85884 -2.31951e-07 1.08074e-11)
(0 -7.74797e-23 0 -42.4213 4.12157e-21 0.000107383 1.82 0 -4.18681e-11)
(-1.0216e-14 0 -1.94855e-20 -42.4213 2.32895e-06 0.000107382 1.82 -4.41078e-07 1.10366e-10)
(0 7.50242e-23 -1.92062e-20 -40.9196 2.17738e-06 0.000102543 1.7814 -2.35365e-07 8.3003e-11)
(-1.00696e-14 0 0 -40.9196 3.32602e-06 0.000102545 1.7814 -1.14276e-07 -1.48917e-11)
(-2.00429e-14 1.88079e-36 3.78618e-20 -39.4565 3.19889e-21 9.75314e-05 1.74302 5.29396e-23 -7.83834e-11)
(5.34478e-14 4.43693e-22 0 -39.4565 -2.13045e-06 9.75295e-05 1.74302 -2.96902e-07 1.47849e-10)
(0 -4.37334e-22 0 -38.0304 2.19442e-06 9.23575e-05 1.70479 -2.47691e-07 1.25849e-10)
(5.25438e-14 4.37334e-22 0 -38.0304 3.5518e-06 9.23602e-05 1.70479 -1.86511e-07 -5.84133e-11)
(3.18517e-15 2.87377e-22 0 -36.6397 -5.6688e-06 8.6743e-05 1.66672 -2.71673e-07 -1.41319e-10)
(-9.64278e-15 -1.43689e-22 0 -36.6397 -5.25126e-06 8.67401e-05 1.66672 -1.37881e-07 2.08457e-10)
(6.34987e-15 -7.48663e-23 0 -35.2823 3.74381e-35 8.09879e-05 1.62873 0 1.93002e-10)
(5.07989e-14 5.66517e-22 0 -35.2823 7.15353e-06 8.09923e-05 1.62873 -4.0058e-07 -1.31447e-10)
(0 -2.79199e-22 0 -33.9562 1.56657e-06 7.5766e-05 1.59076 4.87675e-08 -2.44979e-10)
(2.4979e-14 2.79199e-22 0 -33.9562 1.73955e-06 7.57608e-05 1.59076 1.92061e-07 3.07421e-10)
(6.14228e-15 -1.51858e-19 0 -32.66 -3.63454e-21 6.97895e-05 1.55277 0 3.21254e-10)
(0 0 0 -32.66 -6.44891e-06 6.97961e-05 1.55277 -2.95004e-07 -2.53378e-10)
(1.20849e-14 -1.69529e-19 0 -31.3923 1.65981e-06 6.39818e-05 1.51472 -3.95434e-08 -4.10601e-10)
(1.50681e-14 0 -3.47203e-20 -31.3923 1.11154e-05 6.39741e-05 1.51472 -1.16679e-07 4.70089e-10)
(0 1.00262e-22 0 -30.1522 -9.17213e-06 5.82834e-05 1.47657 1.2255e-07 5.16593e-10)
(-8.97128e-15 -3.34206e-23 -3.42227e-20 -30.1522 -6.40264e-06 5.8294e-05 1.47657 2.82129e-07 -4.56833e-10)
(0 -8.67066e-23 0 -28.9388 2.19427e-21 5.21957e-05 1.43832 0 -6.83313e-10)
(2.34032e-14 1.31766e-22 0 -28.9388 4.96382e-06 5.21827e-05 1.43832 -4.58634e-07 7.38801e-10)
(2.80201e-15 -1.32922e-22 0 -27.7518 -8.33699e-06 4.57671e-05 1.39995 4.33503e-07 8.55687e-10)
(8.71596e-15 1.32922e-22 0 -27.7518 -4.56872e-06 4.57842e-05 1.39995 6.04947e-07 -7.97705e-10)
(5.66985e-15 -2.58e-22 3.27722e-20 -26.5905 4.5662e-21 3.93011e-05 1.36147 0 -1.13514e-09)
(2.26794e-14 7.68098e-22 0 -26.5905 6.73124e-06 3.92799e-05 1.36147 -7.50309e-07 1.18978e-09)
(0 -1.89272e-22 0 -25.4544 -1.1591e-05 3.24457e-05 1.32286 8.8195e-07 1.4227e-09)
(2.23337e-14 1.89272e-22 0 -25.4544 -6.28014e-06 3.24734e-05 1.32286 1.06657e-06 -1.37436e-09)
(-5.49969e-15 0 0 -24.3431 0 2.58182e-05 1.28413 -2.11758e-22 -1.889e-09)
(-2.19988e-14 0 0 -24.3431 1.06469e-05 2.57836e-05 1.28413 -1.18608e-06 1.94275e-09)
(-1.36456e-14 -2.45181e-22 -3.13832e-20 -23.2567 -2.05704e-05 1.84475e-05 1.24529 1.60932e-06 2.37827e-09)
(0 0 0 -23.2567 -1.28646e-05 1.84924e-05 1.24529 1.80884e-06 -2.33549e-09)
(-5.34036e-15 -4.65496e-36 0 -22.1959 1.01644e-20 1.14279e-05 1.20638 0 -3.14396e-09)
(-2.13614e-14 0 0 -22.1959 1.77392e-05 1.13715e-05 1.20638 -2.06084e-06 3.1964e-09)
(7.99277e-15 4.76406e-22 3.77365e-20 -21.1622 -3.00278e-05 -4.23516e-22 1.16748 1.75981e-06 0)
(0 0 -3.049e-20 -21.1622 -1.85794e-05 5.818e-07 1.16748 3.0574e-06 -3.94425e-09)
(0 -5.03288e-22 5.24425e-21 -20.1583 3.38813e-21 -3.59621e-06 1.12873 -4.23516e-22 -5.2449e-09)
(4.15344e-14 0 0 -20.1583 1.863e-05 -2.25616e-06 1.12873 -3.40157e-06 5.28885e-09)
(-5.12148e-15 -5.10744e-22 0 -19.1881 -2.29909e-05 -1.20354e-05 1.09034 6.42005e-07 6.67385e-09)
(2.04859e-14 0 0 -19.1881 -1.24501e-05 -1.19156e-05 1.09034 4.55704e-06 -6.6428e-09)
(-7.65401e-15 -6.77294e-22 0 -18.2569 2.03288e-20 -1.98448e-05 1.05264 0 -8.78924e-09)
(-2.02147e-14 -2.73729e-21 -5.83954e-20 -18.2569 1.2381e-05 -1.99976e-05 1.05264 -4.63697e-06 8.81561e-09)
(-7.5443e-15 2.8588e-35 -2.87792e-20 -17.3708 -5.22148e-20 -2.91749e-05 1.01599 -6.6293e-37 1.12606e-08)
(0 1.7987e-21 0 -17.3708 -1.64516e-05 -2.8978e-05 1.01599 5.99145e-06 -1.12232e-08)
(-2.51111e-15 -1.67955e-34 -2.83668e-20 -16.5363 3.72263e-21 -3.65648e-05 0.98086 -8.47033e-22 -1.47831e-08)
(1.97003e-14 -2.65938e-21 0 -16.5363 2.95176e-05 -3.68163e-05 0.98086 -6.44167e-06 1.48022e-08)
(0 1.92593e-34 0 -15.7591 -4.76731e-21 -4.67154e-05 0.947703 0 1.90295e-08)
(0 0 0 -15.7591 -4.05698e-05 -4.63911e-05 0.947703 8.86405e-06 -1.89968e-08)
(7.22454e-15 -2.92201e-21 0 -15.0439 5.42101e-20 -5.46302e-05 0.916953 1.69407e-21 -2.49387e-08)
(0 3.44493e-21 2.75594e-20 -15.0439 5.10837e-05 -5.50458e-05 0.916953 -1.024e-05 2.49486e-08)