/*--------------------------------*- C++ -*----------------------------------*\
| =========                 |                                                 |
| \\      /  F ield         | OpenFOAM: The Open Source CFD Toolbox           |
|  \\    /   O peration     | Version:  2012                                  |
|   \\  /    A nd           | Website:  www.openfoam.com                      |
|    \\/     M anipulation  |                                                 |
\*---------------------------------------------------------------------------*/
FoamFile
{
    version     2.0;
    format      ascii;
    class       volScalarField;
    location    "15000";
    object      nut;
}
// * * * * * * * * * * * * * * * * * * * * * * * * * * * * * * * * * * * * * //

dimensions      [0 2 -1 0 0 0 0];


internalField   nonuniform List<scalar> 
2560
(
1.6518e-10
1.6518e-10
1.66389e-08
1.66389e-08
3.51122e-07
3.51122e-07
2.74003e-06
2.74003e-06
1.24989e-05
1.24989e-05
4.00929e-05
4.00929e-05
9.77123e-05
9.77122e-05
0.000191013
0.000191013
0.000316972
0.000316972
0.000468992
0.000468992
0.000640876
0.000640876
0.000827859
0.000827859
0.00102644
0.00102644
0.00123404
0.00123404
0.0014487
0.0014487
0.00166891
0.00166891
0.00189346
0.00189346
0.00212138
0.00212138
0.00235182
0.00235182
0.0025841
0.0025841
0.00281758
0.00281758
0.00305174
0.00305174
0.00328607
0.00328607
0.00352013
0.00352013
0.00375349
0.00375349
0.00398576
0.00398576
0.00421655
0.00421655
0.0044455
0.0044455
0.00467224
0.00467224
0.00489642
0.00489642
0.00511769
0.00511769
0.00533568
0.00533568
0.00555006
0.00555006
0.00576045
0.00576045
0.00596651
0.00596651
0.00616787
0.00616787
0.00636418
0.00636418
0.00655507
0.00655507
0.00674018
0.00674018
0.00691916
0.00691916
0.00709166
0.00709166
0.00725733
0.00725733
0.00741585
0.00741585
0.00756691
0.00756691
0.0077102
0.0077102
0.00784548
0.00784548
0.00797251
0.00797251
0.00809109
0.00809109
0.00820109
0.00820109
0.00830243
0.00830243
0.00839508
0.00839508
0.00847911
0.00847911
0.00855467
0.00855467
0.00862202
0.00862202
0.00868152
0.00868152
0.00873368
0.00873368
0.00877911
0.00877911
0.00881862
0.00881862
0.00885311
0.00885311
0.00888369
0.00888369
0.00891158
0.00891158
0.00893816
0.00893816
0.0089649
0.0089649
0.00899339
0.00899339
0.00902524
0.00902524
0.00906206
0.00906206
0.00910537
0.00910537
0.00915657
0.00915657
0.00921686
0.00921686
0.00928715
0.00928715
0.00936804
0.00936804
0.00945978
0.00945978
0.00956227
0.00956227
0.00967504
0.00967504
0.00979733
0.00979733
0.00992811
0.00992811
0.0100662
0.0100662
0.0102102
0.0102102
0.0103587
0.0103587
0.0105104
0.0105104
0.010664
0.010664
0.0108182
0.0108182
0.0109719
0.0109719
0.0111242
0.0111242
0.0112743
0.0112743
0.0114215
0.0114215
0.0115652
0.0115652
0.0117051
0.0117051
0.0118409
0.0118409
0.0119722
0.0119722
0.012099
0.012099
0.0122211
0.0122211
0.0123385
0.0123385
0.0124511
0.0124511
0.0125589
0.0125589
0.0126621
0.0126621
0.0127605
0.0127605
0.0128544
0.0128544
0.0129437
0.0129437
0.0130285
0.0130285
0.0131089
0.0131089
0.0131849
0.0131849
0.0132568
0.0132568
0.0133245
0.0133245
0.0133881
0.0133881
0.0134478
0.0134478
0.0135036
0.0135036
0.0135556
0.0135556
0.0136039
0.0136039
0.0136487
0.0136487
0.0136899
0.0136899
0.0137278
0.0137278
0.0137623
0.0137623
0.0137936
0.0137936
0.0138218
0.0138218
0.0138468
0.0138468
0.0138689
0.0138689
0.0138881
0.0138881
0.0139045
0.0139045
0.0139181
0.0139181
0.0139289
0.0139289
0.0139372
0.0139372
0.0139428
0.0139428
0.0139459
0.0139459
0.0139465
0.0139465
0.0139446
0.0139446
0.0139403
0.0139403
0.0139336
0.0139336
0.0139245
0.0139245
0.013913
0.013913
0.0138993
0.0138993
0.0138832
0.0138832
0.0138648
0.0138648
0.0138441
0.0138441
0.0138212
0.0138212
0.0137959
0.0137959
0.0137685
0.0137685
0.0137388
0.0137388
0.0137069
0.0137069
0.0136727
0.0136727
0.0136364
0.0136364
0.0135979
0.0135979
0.0135572
0.0135572
0.0135144
0.0135144
0.0134694
0.0134694
0.0134223
0.0134223
0.013373
0.013373
0.0133217
0.0133217
0.0132683
0.0132683
0.013213
0.013213
0.0131557
0.0131557
0.0130965
0.0130965
0.0130355
0.0130355
0.0129727
0.0129727
0.0129083
0.0129083
0.0128423
0.0128423
0.0127749
0.0127749
0.0127062
0.0127062
0.0126364
0.0126364
0.0125655
0.0125655
0.0124938
0.0124938
0.0124214
0.0124214
0.0123484
0.0123484
0.0122749
0.0122749
0.012201
0.012201
0.0121269
0.0121269
0.0120524
0.0120524
0.0119776
0.0119776
0.0119026
0.0119026
0.0118271
0.0118271
0.0117512
0.0117512
0.0116747
0.0116747
0.0115976
0.0115976
0.0115199
0.0115199
0.0114415
0.0114415
0.0113623
0.0113623
0.0112825
0.0112825
0.0112022
0.0112022
0.0111213
0.0111213
0.01104
0.01104
0.0109586
0.0109586
0.010877
0.010877
0.0107954
0.0107954
0.0107141
0.0107141
0.010633
0.010633
0.0105523
0.0105523
0.0104721
0.0104721
0.0103925
0.0103925
0.0103135
0.0103135
0.0102353
0.0102353
0.010158
0.010158
0.0100817
0.0100817
0.0100067
0.0100067
0.0099332
0.0099332
0.00986163
0.00986163
0.0097923
0.0097923
0.00972566
0.00972565
0.00966216
0.00966216
0.00960232
0.00960232
0.0095467
0.0095467
0.00949584
0.00949584
0.00945031
0.00945031
0.00941064
0.00941064
0.00937735
0.00937734
0.00935085
0.00935085
0.00933152
0.00933152
0.0093196
0.0093196
0.00931524
0.00931524
0.00931849
0.00931849
0.00932937
0.00932937
0.0093479
0.0093479
0.00937407
0.00937407
0.00940785
0.00940785
0.00944912
0.00944912
0.00949765
0.00949765
0.00955303
0.00955303
0.00961468
0.00961468
0.00968184
0.00968184
0.00975353
0.00975353
0.00982852
0.00982852
0.00990549
0.00990549
0.00998307
0.00998307
0.0100602
0.0100602
0.0101361
0.0101361
0.0102107
0.0102107
0.0102844
0.0102844
0.0103577
0.0103577
0.0104314
0.0104314
0.0105059
0.0105059
0.0105809
0.0105809
0.0106561
0.0106561
0.0107305
0.0107305
0.0108035
0.0108035
0.0108747
0.0108747
0.0109441
0.0109441
0.0110119
0.0110119
0.0110789
0.0110789
0.0111461
0.0111461
0.0112154
0.0112154
0.0112891
0.0112891
0.0113696
0.0113696
0.0114594
0.0114594
0.0115603
0.0115603
0.0116731
0.0116731
0.0117979
0.0117979
0.0119338
0.0119338
0.0120785
0.0120785
0.0122284
0.0122284
0.0123785
0.0123785
0.0125236
0.0125236
0.0126604
0.0126604
0.0127884
0.0127884
0.012911
0.012911
0.013034
0.013034
0.0131645
0.0131645
0.0133088
0.0133088
0.0134711
0.0134711
0.013653
0.013653
0.0138544
0.0138544
0.0140741
0.0140741
0.0143113
0.0143113
0.0145671
0.0145671
0.0148441
0.0148441
0.015145
0.0151449
0.0154694
0.0154694
0.0158145
0.0158145
0.0161756
0.0161756
0.0165486
0.0165486
0.0169308
0.0169308
0.0173212
0.0173212
0.0177203
0.0177203
0.0181308
0.0181308
0.018556
0.018556
0.018999
0.018999
0.0194608
0.0194608
0.0199398
0.0199398
0.0204313
0.0204313
0.0209289
0.0209289
0.0214245
0.0214245
0.02191
0.02191
0.0223796
0.0223796
0.0228283
0.0228283
0.0232483
0.0232483
0.0236261
0.0236261
0.0239445
0.0239445
0.0241891
0.0241891
0.0243533
0.0243532
0.0244382
0.0244382
0.0244505
0.0244505
0.0244057
0.0244057
0.0243318
0.0243318
0.0242568
0.0242568
0.0241936
0.0241936
0.0241409
0.0241409
0.0240998
0.0240998
0.0240734
0.0240734
0.0240572
0.0240572
0.0240349
0.0240349
0.023991
0.023991
0.0239203
0.0239203
0.0238288
0.0238288
0.0237275
0.0237275
0.0236257
0.0236257
0.0235294
0.0235294
0.023444
0.023444
0.0233711
0.0233711
0.0232992
0.0232992
0.0232106
0.0232106
0.0230965
0.0230965
0.0229662
0.0229662
0.0228363
0.0228363
0.0227169
0.0227169
0.0226105
0.0226105
0.0225185
0.0225185
0.0224385
0.0224385
0.022363
0.0223631
0.0222902
0.0222902
0.0222324
0.0222325
0.0221928
0.0221929
0.022171
0.0221711
1.6518e-10
1.6518e-10
1.66389e-08
1.66389e-08
3.51122e-07
3.51122e-07
2.74003e-06
2.74003e-06
1.24989e-05
1.24989e-05
4.00929e-05
4.00929e-05
9.77123e-05
9.77123e-05
0.000191013
0.000191013
0.000316972
0.000316972
0.000468992
0.000468992
0.000640877
0.000640877
0.000827859
0.000827859
0.00102644
0.00102644
0.00123404
0.00123404
0.0014487
0.0014487
0.00166891
0.00166891
0.00189346
0.00189346
0.00212138
0.00212138
0.00235182
0.00235182
0.0025841
0.0025841
0.00281759
0.00281759
0.00305174
0.00305174
0.00328608
0.00328608
0.00352013
0.00352013
0.00375349
0.00375349
0.00398576
0.00398576
0.00421655
0.00421655
0.0044455
0.0044455
0.00467224
0.00467224
0.00489642
0.00489642
0.00511769
0.00511769
0.00533568
0.00533568
0.00555006
0.00555006
0.00576045
0.00576045
0.00596651
0.00596651
0.00616788
0.00616788
0.00636418
0.00636418
0.00655507
0.00655507
0.00674018
0.00674018
0.00691916
0.00691916
0.00709166
0.00709166
0.00725734
0.00725734
0.00741586
0.00741586
0.00756691
0.00756691
0.00771021
0.00771021
0.00784549
0.00784549
0.00797251
0.00797251
0.0080911
0.0080911
0.0082011
0.0082011
0.00830243
0.00830243
0.00839508
0.00839508
0.00847911
0.00847911
0.00855467
0.00855467
0.00862202
0.00862202
0.00868153
0.00868153
0.00873368
0.00873368
0.00877912
0.00877912
0.00881862
0.00881862
0.00885312
0.00885312
0.0088837
0.0088837
0.00891159
0.00891159
0.00893816
0.00893816
0.00896491
0.00896491
0.0089934
0.0089934
0.00902525
0.00902525
0.00906206
0.00906206
0.00910538
0.00910538
0.00915658
0.00915658
0.00921686
0.00921686
0.00928715
0.00928715
0.00936805
0.00936805
0.00945979
0.00945979
0.00956227
0.00956227
0.00967505
0.00967505
0.00979734
0.00979734
0.00992812
0.00992812
0.0100662
0.0100662
0.0102102
0.0102102
0.0103587
0.0103587
0.0105104
0.0105104
0.010664
0.010664
0.0108182
0.0108182
0.0109719
0.0109719
0.0111242
0.0111242
0.0112743
0.0112743
0.0114215
0.0114215
0.0115652
0.0115652
0.0117051
0.0117051
0.0118409
0.0118409
0.0119722
0.0119722
0.012099
0.012099
0.0122211
0.0122211
0.0123385
0.0123385
0.0124511
0.0124511
0.0125589
0.0125589
0.0126621
0.0126621
0.0127605
0.0127605
0.0128544
0.0128544
0.0129437
0.0129437
0.0130285
0.0130285
0.0131089
0.0131089
0.0131849
0.0131849
0.0132568
0.0132568
0.0133245
0.0133245
0.0133881
0.0133881
0.0134478
0.0134478
0.0135036
0.0135036
0.0135556
0.0135556
0.0136039
0.0136039
0.0136487
0.0136487
0.01369
0.01369
0.0137278
0.0137278
0.0137623
0.0137623
0.0137936
0.0137936
0.0138218
0.0138218
0.0138468
0.0138468
0.0138689
0.0138689
0.0138881
0.0138881
0.0139045
0.0139045
0.0139181
0.0139181
0.0139289
0.0139289
0.0139372
0.0139372
0.0139428
0.0139428
0.0139459
0.0139459
0.0139465
0.0139465
0.0139446
0.0139446
0.0139403
0.0139403
0.0139336
0.0139336
0.0139245
0.0139245
0.013913
0.013913
0.0138993
0.0138993
0.0138832
0.0138832
0.0138648
0.0138648
0.0138441
0.0138441
0.0138212
0.0138212
0.0137959
0.0137959
0.0137685
0.0137685
0.0137388
0.0137388
0.0137069
0.0137069
0.0136728
0.0136728
0.0136364
0.0136364
0.0135979
0.0135979
0.0135572
0.0135572
0.0135144
0.0135144
0.0134694
0.0134694
0.0134223
0.0134223
0.013373
0.013373
0.0133217
0.0133217
0.0132684
0.0132684
0.013213
0.013213
0.0131557
0.0131557
0.0130965
0.0130965
0.0130355
0.0130355
0.0129727
0.0129727
0.0129083
0.0129083
0.0128423
0.0128423
0.0127749
0.0127749
0.0127062
0.0127062
0.0126364
0.0126364
0.0125655
0.0125655
0.0124938
0.0124938
0.0124214
0.0124214
0.0123484
0.0123484
0.0122749
0.0122749
0.012201
0.012201
0.0121269
0.0121269
0.0120524
0.0120524
0.0119776
0.0119776
0.0119026
0.0119026
0.0118271
0.0118271
0.0117512
0.0117512
0.0116747
0.0116747
0.0115976
0.0115976
0.0115199
0.0115199
0.0114415
0.0114415
0.0113623
0.0113623
0.0112825
0.0112825
0.0112022
0.0112022
0.0111213
0.0111213
0.01104
0.01104
0.0109586
0.0109586
0.010877
0.010877
0.0107954
0.0107954
0.0107141
0.0107141
0.010633
0.010633
0.0105523
0.0105523
0.0104721
0.0104721
0.0103925
0.0103925
0.0103135
0.0103135
0.0102353
0.0102353
0.0101579
0.0101579
0.0100817
0.0100817
0.0100067
0.0100067
0.0099332
0.0099332
0.00986162
0.00986162
0.00979229
0.00979229
0.00972564
0.00972564
0.00966214
0.00966214
0.00960231
0.00960231
0.00954668
0.00954668
0.00949582
0.00949582
0.00945029
0.00945029
0.00941062
0.00941062
0.00937732
0.00937732
0.00935082
0.00935082
0.00933149
0.00933149
0.00931957
0.00931957
0.0093152
0.0093152
0.00931844
0.00931844
0.00932932
0.00932932
0.00934784
0.00934784
0.00937401
0.00937401
0.00940779
0.00940779
0.00944906
0.00944906
0.00949758
0.00949758
0.00955296
0.00955296
0.00961461
0.00961461
0.00968177
0.00968177
0.00975345
0.00975345
0.00982844
0.00982844
0.00990541
0.00990541
0.00998299
0.00998299
0.0100601
0.0100601
0.010136
0.010136
0.0102106
0.0102106
0.0102843
0.0102843
0.0103577
0.0103577
0.0104314
0.0104314
0.0105058
0.0105058
0.0105809
0.0105809
0.010656
0.010656
0.0107304
0.0107304
0.0108034
0.0108034
0.0108746
0.0108746
0.010944
0.010944
0.0110119
0.0110119
0.0110789
0.0110789
0.0111461
0.0111461
0.0112154
0.0112154
0.011289
0.011289
0.0113696
0.0113696
0.0114594
0.0114594
0.0115602
0.0115602
0.011673
0.011673
0.0117979
0.0117979
0.0119337
0.0119337
0.0120784
0.0120784
0.0122283
0.0122283
0.0123784
0.0123784
0.0125236
0.0125236
0.0126603
0.0126603
0.0127884
0.0127884
0.012911
0.012911
0.013034
0.013034
0.0131645
0.0131645
0.0133088
0.0133088
0.0134711
0.0134711
0.013653
0.013653
0.0138544
0.0138544
0.0140741
0.0140741
0.0143113
0.0143113
0.0145671
0.0145671
0.0148441
0.0148441
0.0151449
0.0151449
0.0154693
0.0154693
0.0158144
0.0158144
0.0161755
0.0161755
0.0165485
0.0165485
0.0169307
0.0169307
0.017321
0.017321
0.0177201
0.0177201
0.0181305
0.0181305
0.0185557
0.0185557
0.0189987
0.0189987
0.0194604
0.0194603
0.0199392
0.0199392
0.0204307
0.0204307
0.0209283
0.0209283
0.0214238
0.0214238
0.0219093
0.0219093
0.0223789
0.0223789
0.0228277
0.0228276
0.0232477
0.0232477
0.0236256
0.0236256
0.0239442
0.0239442
0.024189
0.024189
0.0243534
0.0243534
0.0244385
0.0244385
0.0244509
0.0244509
0.0244063
0.0244063
0.0243322
0.0243322
0.0242571
0.0242571
0.0241938
0.0241938
0.024141
0.024141
0.0240998
0.0240997
0.0240733
0.0240733
0.024057
0.024057
0.0240347
0.0240347
0.0239909
0.0239909
0.0239204
0.0239204
0.0238289
0.0238289
0.0237276
0.0237277
0.0236259
0.0236259
0.0235295
0.0235295
0.023444
0.023444
0.023371
0.023371
0.0232991
0.0232991
0.0232105
0.0232105
0.0230966
0.0230966
0.0229664
0.0229664
0.0228364
0.0228364
0.0227169
0.0227169
0.0226104
0.0226104
0.0225183
0.0225183
0.0224383
0.0224382
0.0223628
0.0223628
0.02229
0.0222899
0.0222322
0.0222321
0.0221925
0.0221924
0.0221707
0.0221706
0.0221698
0.0221699
0.0221895
0.0221896
0.0222268
0.0222269
0.0222823
0.0222823
0.0223529
0.0223529
0.022427
0.022427
0.0225065
0.0225065
0.0225979
0.0225979
0.0227037
0.0227037
0.0228223
0.0228223
0.022951
0.022951
0.0230808
0.0230808
0.0231955
0.0231955
0.0232864
0.0232864
0.023363
0.023363
0.023442
0.023442
0.0235332
0.0235332
0.023635
0.023635
0.0237422
0.0237422
0.0238486
0.0238486
0.0239438
0.0239438
0.0240167
0.0240166
0.0240619
0.0240619
0.0240859
0.0240859
0.0241048
0.0241048
0.0241337
0.0241337
0.0241773
0.0241773
0.0242323
0.0242323
0.0242977
0.0242977
0.0243748
0.0243748
0.024452
0.024452
0.0244995
0.0244995
0.024488
0.024488
0.0244017
0.0244017
0.0242341
0.0242341
0.0239845
0.0239844
0.0236617
0.0236617
0.0232814
0.0232814
0.0228602
0.0228602
0.0224111
0.0224111
0.0219413
0.0219413
0.0214557
0.0214557
0.02096
0.02096
0.020462
0.020462
0.01997
0.01997
0.0194906
0.0194906
0.0190283
0.0190283
0.0185848
0.0185848
0.018159
0.0181589
0.0177477
0.0177477
0.0173475
0.0173475
0.0169559
0.0169559
0.0165726
0.0165726
0.0161987
0.0161987
0.0158363
0.0158363
0.0154898
0.0154898
0.0151638
0.0151638
0.0148616
0.0148616
0.0145831
0.0145831
0.014326
0.014326
0.0140877
0.0140877
0.0138667
0.0138667
0.0136639
0.0136639
0.0134804
0.0134804
0.0133164
0.0133164
0.0131703
0.0131703
0.0130383
0.0130383
0.0129144
0.0129144
0.0127908
0.0127908
0.0126614
0.0126614
0.012523
0.012523
0.0123766
0.0123766
0.0122258
0.0122258
0.0120757
0.0120757
0.0119313
0.0119313
0.0117961
0.0117961
0.0116721
0.0116721
0.01156
0.01156
0.0114596
0.0114596
0.0113698
0.0113698
0.011289
0.011289
0.0112149
0.0112149
0.0111451
0.0111451
0.0110775
0.0110775
0.0110101
0.0110101
0.0109419
0.0109419
0.0108723
0.0108723
0.0108011
0.0108011
0.0107281
0.0107281
0.0106537
0.0106537
0.0105789
0.0105789
0.0105042
0.0105042
0.0104304
0.0104304
0.0103574
0.0103574
0.0102849
0.0102849
0.0102118
0.0102118
0.0101376
0.0101376
0.0100619
0.0100619
0.00998491
0.00998491
0.00990736
0.00990736
0.00983052
0.00983052
0.0097557
0.0097557
0.00968413
0.00968413
0.00961698
0.00961698
0.00955519
0.00955519
0.00949951
0.00949951
0.00945063
0.00945063
0.00940901
0.00940901
0.00937488
0.00937488
0.0093484
0.0093484
0.00932967
0.00932967
0.00931868
0.00931868
0.00931538
0.00931538
0.00931974
0.00931974
0.00933166
0.00933166
0.00935098
0.00935098
0.0093775
0.0093775
0.00941085
0.00941085
0.00945055
0.00945055
0.00949611
0.00949611
0.00954697
0.00954697
0.00960257
0.00960257
0.00966237
0.00966237
0.00972586
0.00972586
0.00979252
0.00979252
0.00986184
0.00986184
0.00993339
0.00993339
0.0100068
0.0100068
0.0100818
0.0100818
0.0101581
0.0101581
0.0102355
0.0102355
0.0103137
0.0103137
0.0103926
0.0103926
0.0104722
0.0104722
0.0105524
0.0105524
0.010633
0.010633
0.0107141
0.0107141
0.0107954
0.0107954
0.0108769
0.0108769
0.0109585
0.0109585
0.01104
0.01104
0.0111212
0.0111212
0.0112021
0.0112021
0.0112825
0.0112825
0.0113623
0.0113623
0.0114415
0.0114415
0.0115199
0.0115199
0.0115976
0.0115976
0.0116747
0.0116747
0.0117512
0.0117512
0.0118271
0.0118271
0.0119026
0.0119026
0.0119777
0.0119777
0.0120525
0.0120525
0.012127
0.012127
0.0122012
0.0122012
0.0122751
0.0122751
0.0123486
0.0123486
0.0124216
0.0124216
0.012494
0.012494
0.0125657
0.0125657
0.0126365
0.0126365
0.0127063
0.0127063
0.012775
0.012775
0.0128424
0.0128424
0.0129084
0.0129084
0.0129728
0.0129728
0.0130355
0.0130355
0.0130966
0.0130966
0.0131558
0.0131558
0.0132131
0.0132131
0.0132684
0.0132684
0.0133218
0.0133218
0.0133731
0.0133731
0.0134223
0.0134223
0.0134694
0.0134694
0.0135145
0.0135145
0.0135573
0.0135573
0.0135981
0.0135981
0.0136366
0.0136366
0.013673
0.013673
0.0137071
0.0137071
0.0137391
0.0137391
0.0137689
0.0137689
0.0137964
0.0137964
0.0138216
0.0138216
0.0138446
0.0138446
0.0138653
0.0138653
0.0138837
0.0138837
0.0138998
0.0138998
0.0139136
0.0139136
0.0139251
0.0139251
0.0139343
0.0139343
0.013941
0.013941
0.0139454
0.0139454
0.0139473
0.0139473
0.0139467
0.0139467
0.0139436
0.0139436
0.013938
0.013938
0.0139297
0.0139297
0.0139188
0.0139188
0.0139052
0.0139052
0.0138888
0.0138888
0.0138695
0.0138695
0.0138473
0.0138473
0.0138221
0.0138221
0.0137938
0.0137938
0.0137624
0.0137624
0.0137279
0.0137279
0.01369
0.01369
0.0136487
0.0136487
0.013604
0.013604
0.0135556
0.0135556
0.0135036
0.0135036
0.0134478
0.0134478
0.0133881
0.0133881
0.0133244
0.0133244
0.0132566
0.0132566
0.0131848
0.0131848
0.0131087
0.0131087
0.0130283
0.0130283
0.0129436
0.0129436
0.0128544
0.0128544
0.0127607
0.0127607
0.0126623
0.0126623
0.0125592
0.0125592
0.0124513
0.0124513
0.0123387
0.0123387
0.0122211
0.0122211
0.0120987
0.0120987
0.0119717
0.0119717
0.0118402
0.0118402
0.0117044
0.0117044
0.0115645
0.0115645
0.0114207
0.0114207
0.0112734
0.0112734
0.0111233
0.0111233
0.0109708
0.0109708
0.0108169
0.0108169
0.0106626
0.0106626
0.0105089
0.0105089
0.0103571
0.0103571
0.0102084
0.0102084
0.0100644
0.0100644
0.00992636
0.00992636
0.0097956
0.0097956
0.00967334
0.00967334
0.00956057
0.00956057
0.00945808
0.00945808
0.00936633
0.00936633
0.00928544
0.00928544
0.00921515
0.00921515
0.00915488
0.00915488
0.00910369
0.00910369
0.0090604
0.0090604
0.00902361
0.00902361
0.0089918
0.0089918
0.00896334
0.00896334
0.00893661
0.00893661
0.00891002
0.00891002
0.00888213
0.00888213
0.00885159
0.00885159
0.00881716
0.00881716
0.00877773
0.00877773
0.00873238
0.00873238
0.00868032
0.00868032
0.00862093
0.00862093
0.00855374
0.00855374
0.00847834
0.00847834
0.00839442
0.00839442
0.00830182
0.00830182
0.00820056
0.00820056
0.00809069
0.00809069
0.00797223
0.00797223
0.0078453
0.0078453
0.00771012
0.00771012
0.00756692
0.00756692
0.00741595
0.00741595
0.0072575
0.0072575
0.00709189
0.00709189
0.00691946
0.00691946
0.00674053
0.00674053
0.00655545
0.00655545
0.00636458
0.00636458
0.0061683
0.0061683
0.00596695
0.00596695
0.0057609
0.0057609
0.0055505
0.0055505
0.00533612
0.00533612
0.00511811
0.00511811
0.00489684
0.00489684
0.00467265
0.00467265
0.00444592
0.00444592
0.00421697
0.00421697
0.00398618
0.00398618
0.00375392
0.00375392
0.00352055
0.00352055
0.00328648
0.00328648
0.00305213
0.00305213
0.00281795
0.00281795
0.00258445
0.00258445
0.00235215
0.00235215
0.00212168
0.00212168
0.00189375
0.00189375
0.00166917
0.00166917
0.00144893
0.00144893
0.00123425
0.00123425
0.00102663
0.00102663
0.00082802
0.00082802
0.000641012
0.000641012
0.000469102
0.000469102
0.000317056
0.000317056
0.000191071
0.000191071
9.77463e-05
9.77463e-05
4.01083e-05
4.01083e-05
1.2504e-05
1.2504e-05
2.74116e-06
2.74116e-06
3.51267e-07
3.51267e-07
1.66457e-08
1.66457e-08
1.6523e-10
1.6523e-10
0.0221695
0.0221694
0.0221892
0.0221891
0.0222266
0.0222265
0.0222821
0.022282
0.0223527
0.0223526
0.0224268
0.0224267
0.0225063
0.0225063
0.0225978
0.0225978
0.0227037
0.0227037
0.0228224
0.0228224
0.0229511
0.0229511
0.0230808
0.0230808
0.0231954
0.0231954
0.0232862
0.0232862
0.0233629
0.0233629
0.023442
0.023442
0.0235332
0.0235332
0.0236351
0.0236351
0.0237423
0.0237423
0.0238487
0.0238487
0.0239438
0.0239438
0.0240166
0.0240166
0.0240618
0.0240618
0.0240857
0.0240857
0.0241047
0.0241047
0.0241338
0.0241338
0.0241774
0.0241774
0.0242325
0.0242325
0.0242981
0.0242981
0.0243753
0.0243753
0.0244526
0.0244526
0.0245
0.0245
0.0244884
0.0244884
0.0244019
0.0244019
0.024234
0.024234
0.0239841
0.0239841
0.0236613
0.0236613
0.0232808
0.0232808
0.0228595
0.0228595
0.0224104
0.0224104
0.0219406
0.0219406
0.021455
0.021455
0.0209593
0.0209593
0.0204614
0.0204614
0.0199695
0.0199695
0.0194901
0.0194901
0.019028
0.019028
0.0185846
0.0185845
0.0181587
0.0181587
0.0177475
0.0177475
0.0173473
0.0173473
0.0169557
0.0169557
0.0165725
0.0165725
0.0161985
0.0161985
0.0158362
0.0158361
0.0154897
0.0154896
0.0151638
0.0151638
0.0148615
0.0148615
0.0145831
0.0145831
0.014326
0.014326
0.0140877
0.0140877
0.0138668
0.0138668
0.0136639
0.0136639
0.0134804
0.0134804
0.0133164
0.0133164
0.0131703
0.0131703
0.0130384
0.0130384
0.0129144
0.0129144
0.0127908
0.0127908
0.0126614
0.0126614
0.012523
0.012523
0.0123765
0.0123765
0.0122257
0.0122257
0.0120756
0.0120756
0.0119312
0.0119312
0.011796
0.011796
0.0116721
0.0116721
0.01156
0.01156
0.0114596
0.0114596
0.0113698
0.0113698
0.0112889
0.0112889
0.0112148
0.0112148
0.0111451
0.0111451
0.0110774
0.0110774
0.0110101
0.0110101
0.0109418
0.0109418
0.0108723
0.0108723
0.0108011
0.0108011
0.010728
0.010728
0.0106537
0.0106537
0.0105788
0.0105788
0.0105042
0.0105042
0.0104303
0.0104303
0.0103574
0.0103574
0.0102849
0.0102848
0.0102118
0.0102118
0.0101375
0.0101375
0.0100618
0.0100618
0.00998483
0.00998483
0.00990728
0.00990728
0.00983044
0.00983044
0.00975562
0.00975562
0.00968405
0.00968405
0.00961691
0.00961691
0.00955512
0.00955512
0.00949944
0.00949944
0.00945056
0.00945056
0.00940895
0.00940895
0.00937482
0.00937482
0.00934834
0.00934834
0.00932963
0.00932962
0.00931864
0.00931864
0.00931534
0.00931534
0.0093197
0.0093197
0.00933162
0.00933162
0.00935095
0.00935095
0.00937748
0.00937748
0.00941082
0.00941082
0.00945053
0.00945053
0.00949609
0.00949609
0.00954695
0.00954695
0.00960255
0.00960255
0.00966236
0.00966236
0.00972585
0.00972585
0.00979251
0.00979251
0.00986183
0.00986183
0.00993338
0.00993338
0.0100068
0.0100068
0.0100818
0.0100818
0.0101581
0.0101581
0.0102355
0.0102355
0.0103137
0.0103137
0.0103926
0.0103926
0.0104722
0.0104722
0.0105524
0.0105524
0.010633
0.010633
0.0107141
0.0107141
0.0107954
0.0107954
0.0108769
0.0108769
0.0109585
0.0109585
0.01104
0.01104
0.0111212
0.0111212
0.0112021
0.0112021
0.0112825
0.0112825
0.0113623
0.0113623
0.0114415
0.0114415
0.0115199
0.0115199
0.0115976
0.0115976
0.0116747
0.0116747
0.0117512
0.0117512
0.0118271
0.0118271
0.0119026
0.0119026
0.0119777
0.0119777
0.0120525
0.0120525
0.012127
0.012127
0.0122012
0.0122012
0.0122751
0.0122751
0.0123486
0.0123486
0.0124216
0.0124216
0.012494
0.012494
0.0125657
0.0125657
0.0126365
0.0126365
0.0127063
0.0127063
0.012775
0.012775
0.0128424
0.0128424
0.0129084
0.0129084
0.0129728
0.0129728
0.0130355
0.0130355
0.0130966
0.0130966
0.0131558
0.0131558
0.0132131
0.0132131
0.0132684
0.0132684
0.0133218
0.0133218
0.0133731
0.0133731
0.0134223
0.0134223
0.0134694
0.0134694
0.0135145
0.0135145
0.0135573
0.0135573
0.0135981
0.0135981
0.0136366
0.0136366
0.013673
0.013673
0.0137071
0.0137071
0.0137391
0.0137391
0.0137689
0.0137689
0.0137964
0.0137964
0.0138216
0.0138216
0.0138446
0.0138446
0.0138653
0.0138653
0.0138837
0.0138837
0.0138998
0.0138998
0.0139136
0.0139136
0.0139251
0.0139251
0.0139343
0.0139343
0.013941
0.013941
0.0139454
0.0139454
0.0139473
0.0139473
0.0139467
0.0139467
0.0139436
0.0139436
0.013938
0.013938
0.0139297
0.0139297
0.0139188
0.0139188
0.0139052
0.0139052
0.0138888
0.0138888
0.0138695
0.0138695
0.0138473
0.0138473
0.0138221
0.0138221
0.0137938
0.0137938
0.0137625
0.0137625
0.0137279
0.0137279
0.01369
0.01369
0.0136487
0.0136487
0.013604
0.013604
0.0135556
0.0135556
0.0135036
0.0135036
0.0134478
0.0134478
0.0133881
0.0133881
0.0133244
0.0133244
0.0132566
0.0132566
0.0131848
0.0131848
0.0131087
0.0131087
0.0130283
0.0130283
0.0129436
0.0129436
0.0128544
0.0128544
0.0127607
0.0127607
0.0126623
0.0126623
0.0125592
0.0125592
0.0124513
0.0124513
0.0123387
0.0123387
0.0122211
0.0122211
0.0120987
0.0120987
0.0119717
0.0119717
0.0118402
0.0118402
0.0117044
0.0117044
0.0115645
0.0115645
0.0114207
0.0114207
0.0112734
0.0112734
0.0111233
0.0111233
0.0109708
0.0109708
0.0108169
0.0108169
0.0106626
0.0106626
0.0105089
0.0105089
0.0103571
0.0103571
0.0102085
0.0102085
0.0100644
0.0100644
0.00992636
0.00992636
0.00979561
0.00979561
0.00967334
0.00967334
0.00956057
0.00956057
0.00945808
0.00945808
0.00936634
0.00936634
0.00928545
0.00928545
0.00921515
0.00921515
0.00915488
0.00915488
0.0091037
0.0091037
0.00906041
0.00906041
0.00902362
0.00902362
0.0089918
0.0089918
0.00896334
0.00896334
0.00893662
0.00893662
0.00891003
0.00891003
0.00888213
0.00888213
0.00885159
0.00885159
0.00881716
0.00881716
0.00877774
0.00877774
0.00873239
0.00873239
0.00868033
0.00868033
0.00862094
0.00862094
0.00855374
0.00855374
0.00847835
0.00847835
0.00839442
0.00839442
0.00830183
0.00830183
0.00820057
0.00820057
0.00809069
0.00809069
0.00797224
0.00797224
0.0078453
0.0078453
0.00771012
0.00771012
0.00756692
0.00756692
0.00741595
0.00741595
0.0072575
0.0072575
0.00709189
0.00709189
0.00691946
0.00691946
0.00674053
0.00674053
0.00655545
0.00655545
0.00636459
0.00636459
0.0061683
0.0061683
0.00596695
0.00596695
0.0057609
0.0057609
0.00555051
0.00555051
0.00533613
0.00533613
0.00511811
0.00511811
0.00489684
0.00489684
0.00467266
0.00467266
0.00444592
0.00444592
0.00421698
0.00421698
0.00398619
0.00398619
0.00375392
0.00375392
0.00352055
0.00352055
0.00328648
0.00328648
0.00305213
0.00305213
0.00281796
0.00281796
0.00258445
0.00258445
0.00235215
0.00235215
0.00212168
0.00212168
0.00189375
0.00189375
0.00166917
0.00166917
0.00144893
0.00144893
0.00123425
0.00123425
0.00102663
0.00102663
0.00082802
0.00082802
0.000641013
0.000641013
0.000469102
0.000469102
0.000317056
0.000317056
0.000191072
0.000191072
9.77464e-05
9.77464e-05
4.01084e-05
4.01084e-05
1.2504e-05
1.2504e-05
2.74116e-06
2.74116e-06
3.51267e-07
3.51267e-07
1.66457e-08
1.66457e-08
1.6523e-10
1.6523e-10
)
;

boundaryField
{
    walls
    {
        type            nutUWallFunction;
        blending        stepwise;
        Cmu             0.09;
        kappa           0.41;
        E               9.8;
        value           uniform 0;
    }
    inlet
    {
        type            cyclic;
    }
    outlet
    {
        type            cyclic;
    }
    sides
    {
        type            empty;
    }
}


// ************************************************************************* //
