/*--------------------------------*- C++ -*----------------------------------*\
| =========                 |                                                 |
| \\      /  F ield         | OpenFOAM: The Open Source CFD Toolbox           |
|  \\    /   O peration     | Version:  2106                                  |
|   \\  /    A nd           | Website:  www.openfoam.com                      |
|    \\/     M anipulation  |                                                 |
\*---------------------------------------------------------------------------*/
FoamFile
{
    version     2.0;
    format      ascii;
    arch        "LSB;label=32;scalar=64";
    class       volTensorField;
    location    "11000";
    object      grad(U);
}
// * * * * * * * * * * * * * * * * * * * * * * * * * * * * * * * * * * * * * //

dimensions      [0 0 -1 0 0 0 0];

internalField   nonuniform List<tensor> 
2560
(
(0 3.11836e-30 1.62414e-32 11.8646 -9.74186e-12 -5.23512e-14 0.0171757 -7.05123e-15 -4.13051e-17)
(0 -1.03945e-30 -8.12072e-33 11.8646 -4.51667e-16 -6.69259e-19 0.0171757 -1.39702e-18 2.55582e-17)
(0 -4.77461e-25 -1.72756e-27 11.8628 2.46515e-32 -3.50555e-15 0.0517712 -3.15544e-30 -1.02963e-17)
(0 0 -3.20173e-32 11.8628 -6.99712e-17 3.20148e-18 0.0517712 1.81054e-19 4.1562e-17)
(-2.17388e-18 -5.59387e-30 -3.88322e-29 11.8614 8.05135e-13 -4.86869e-17 0.0712005 -3.86457e-15 -1.4508e-19)
(0 1.21184e-29 6.31169e-32 11.8614 -8.06734e-16 7.05026e-18 0.0712005 -1.38994e-18 4.27646e-17)
(2.44827e-17 -1.39695e-29 -6.10073e-32 11.8603 3.98211e-13 -5.53184e-16 0.0722304 -5.74575e-15 -6.59096e-18)
(-1.75112e-17 1.19448e-29 4.66592e-32 11.8603 -5.93854e-16 5.1885e-18 0.0722304 -2.15536e-18 4.39825e-17)
(3.45204e-17 -4.81594e-29 -9.19809e-32 11.8596 9.31142e-28 -1.47965e-15 0.0732774 0 -1.15984e-17)
(0 7.84903e-30 7.66507e-32 11.8596 -6.19404e-16 5.19249e-18 0.0732774 -2.9892e-18 4.5219e-17)
(5.08008e-17 -6.55433e-30 -7.44586e-32 11.8592 6.02528e-14 -2.0169e-15 0.0743418 -9.8069e-16 -1.35199e-17)
(1.00175e-16 3.86827e-30 7.55521e-32 11.8592 -6.23914e-16 5.37201e-18 0.0743418 -3.86404e-18 4.64744e-17)
(-2.17834e-17 -5.53727e-28 -1.69724e-32 11.8592 -8.57208e-15 -3.08654e-15 0.0754239 -2.7062e-17 -2.55437e-17)
(8.71337e-17 7.62565e-30 5.95754e-32 11.8592 -6.57243e-16 5.33584e-18 0.0754239 -4.76789e-18 4.77465e-17)
(-2.68644e-17 -3.09147e-30 8.59067e-32 11.8596 -2.41739e-15 -4.65399e-15 0.0765239 -7.74265e-18 -3.41434e-17)
(1.07457e-16 -3.75818e-30 -4.40412e-32 11.8596 -6.95374e-16 5.45156e-18 0.0765239 -5.68069e-18 4.90355e-17)
(9.71861e-17 -1.02396e-29 -7.12799e-32 11.8602 -1.06624e-15 -5.41047e-15 0.0776422 -6.10436e-18 -3.61961e-17)
(0 7.40863e-30 5.78799e-32 11.8602 -7.05161e-16 5.57645e-18 0.0776422 -6.72916e-18 5.03423e-17)
(0 -9.41546e-30 2.85252e-32 11.8612 8.59296e-28 -5.6042e-15 0.0787789 3.15544e-30 -3.77168e-17)
(0 0 0 11.8612 -7.06173e-16 5.34793e-18 0.0787789 -7.75204e-18 5.16665e-17)
(2.07575e-17 -1.49749e-29 -4.06663e-32 11.8626 4.28721e-16 -5.73142e-15 0.0799345 -1.43393e-18 -3.89708e-17)
(-6.33124e-17 1.07967e-29 5.62327e-32 11.8626 -7.322e-16 5.23389e-18 0.0799345 -8.6967e-18 5.3006e-17)
(4.79384e-17 -2.05676e-29 -1.27594e-31 11.8642 1.0441e-15 -5.83145e-15 0.0811092 -6.5994e-18 -4.01894e-17)
(0 1.41892e-29 8.31401e-32 11.8642 -7.24065e-16 5.64285e-18 0.0811092 -9.74814e-18 5.43641e-17)
(1.23021e-16 -1.39859e-29 -5.46323e-32 11.8662 1.06618e-15 -5.92838e-15 0.0823032 -7.57939e-18 -4.14568e-17)
(-1.23021e-16 1.39859e-29 5.46323e-32 11.8662 -6.65831e-16 5.87195e-18 0.0823032 -1.07262e-17 5.57406e-17)
(-1.19572e-16 1.31697e-29 4.61212e-32 11.8685 1.04298e-15 -6.02697e-15 0.083517 -7.09895e-18 -4.27541e-17)
(2.35773e-16 -6.89271e-30 0 11.8685 -7.15256e-16 6.15587e-18 0.083517 -1.1757e-17 5.71303e-17)
(0 1.35878e-29 1.85771e-31 11.871 1.07337e-15 -6.12887e-15 0.0847508 -7.47506e-18 -4.4126e-17)
(0 -1.35878e-29 -1.85771e-31 11.871 -7.72464e-16 7.0517e-18 0.0847508 -1.31662e-17 5.85361e-17)
(-7.02739e-17 6.17841e-30 -4.36101e-33 11.8739 1.1205e-15 -6.23357e-15 0.0860049 -7.74079e-18 -4.5523e-17)
(2.81096e-16 -3.34827e-30 2.61584e-32 11.8739 -7.64739e-16 7.39834e-18 0.0860049 -1.45037e-17 5.99582e-17)
(-1.16118e-16 9.90085e-30 1.80484e-31 11.877 1.14489e-15 -6.33941e-15 0.0872797 -8.37657e-18 -4.69739e-17)
(-1.88141e-16 -9.90085e-30 -1.80484e-31 11.877 -8.54646e-16 6.95812e-18 0.0872797 -1.57639e-17 6.13931e-17)
(0 1.62649e-29 2.28725e-31 11.8804 1.1296e-15 -6.44659e-15 0.0885754 -8.32599e-18 -4.84546e-17)
(-3.27765e-16 -1.62649e-29 -2.28725e-31 11.8804 -9.07727e-16 6.39542e-18 0.0885754 -1.748e-17 6.28426e-17)
(2.25627e-16 -6.41271e-30 -1.00199e-31 11.8841 1.16867e-15 -6.55706e-15 0.0898924 -8.39403e-18 -5.00207e-17)
(0 6.41271e-30 1.00199e-31 11.8841 -9.14615e-16 6.56806e-18 0.0898924 -1.89678e-17 6.43039e-17)
(9.39564e-17 1.2973e-29 1.7003e-31 11.8881 1.24245e-15 -6.66836e-15 0.0912309 -9.16084e-18 -5.15819e-17)
(-3.75826e-16 -1.89624e-29 -2.96288e-31 11.8881 -9.81814e-16 8.40731e-18 0.0912309 -2.06489e-17 6.57819e-17)
(0 1.55755e-29 2.43368e-31 11.8923 1.27985e-15 -6.77388e-15 0.0925914 -9.77211e-18 -5.31289e-17)
(0 -1.55755e-29 -2.43368e-31 11.8923 -1.03113e-15 1.0958e-17 0.0925914 -2.27145e-17 6.72746e-17)
(-1.06331e-16 2.82826e-30 -1.73476e-32 11.8968 1.29546e-15 -6.87891e-15 0.0939741 -1.00114e-17 -5.4752e-17)
(0 3.07046e-30 9.59518e-32 11.8968 -1.01147e-15 1.04977e-17 0.0939741 -2.47687e-17 6.87814e-17)
(2.06795e-16 -2.44101e-29 -4.40628e-31 11.9015 1.2968e-15 -6.9899e-15 0.0953794 -1.03049e-17 -5.64638e-17)
(0 2.42116e-29 4.25595e-31 11.9015 -1.01559e-15 8.2287e-18 0.0953794 -2.67713e-17 7.02872e-17)
(0 1.19323e-29 1.86442e-31 11.9065 1.35386e-15 -7.10204e-15 0.0968077 -1.03262e-17 -5.8179e-17)
(-4.76307e-16 -1.49154e-29 -2.79663e-31 11.9065 -1.07577e-15 8.39329e-18 0.0968077 -2.88182e-17 7.17934e-17)
(-8.13138e-17 1.18744e-29 2.39981e-31 11.9117 1.47253e-15 -7.21052e-15 0.0982592 -1.15344e-17 -5.99071e-17)
(2.06907e-16 -1.47016e-29 -2.75655e-31 11.9117 -1.10269e-15 8.7158e-18 0.0982592 -3.08222e-17 7.3311e-17)
(-2.64412e-16 2.59406e-29 5.27755e-31 11.9171 1.47476e-15 -7.3186e-15 0.0997343 -1.25862e-17 -6.16918e-17)
(0 -2.02872e-29 -4.5284e-31 11.9171 -1.06863e-15 1.00894e-17 0.0997343 -3.30305e-17 7.48258e-17)
(4.16756e-16 -3.41892e-29 -5.64212e-31 11.9228 1.45363e-15 -7.43022e-15 0.101233 -1.19095e-17 -6.3557e-17)
(1.11135e-15 2.57097e-29 5.3562e-31 11.9228 -9.67555e-16 1.38185e-17 0.101233 -3.53415e-17 7.63517e-17)
(0 -1.97099e-29 -3.07967e-31 11.9286 1.53105e-15 -7.54159e-15 0.102757 -1.25962e-17 -6.54172e-17)
(5.82926e-16 1.97099e-29 3.51962e-31 11.9286 -1.01468e-15 1.5255e-17 0.102757 -3.7426e-17 7.78891e-17)
(1.52647e-16 5.50041e-30 4.36109e-32 11.9347 1.59119e-15 -7.65214e-15 0.104305 -1.35919e-17 -6.73506e-17)
(0 -2.77534e-30 0 11.9347 -1.20407e-15 1.29737e-17 0.104305 -3.97881e-17 7.94289e-17)
(-3.19332e-16 1.11215e-29 9.02304e-32 11.9409 1.60867e-15 -7.76464e-15 0.105878 -1.40161e-17 -6.9328e-17)
(-1.27733e-15 -5.47112e-30 0 11.9409 -1.29333e-15 7.51593e-18 0.105878 -4.27653e-17 8.09725e-17)
(-5.46269e-16 5.52108e-30 1.31423e-31 11.9474 1.75437e-15 -7.88053e-15 0.107476 -1.43001e-17 -7.1408e-17)
(-6.67165e-16 0 0 11.9474 -1.44722e-15 5.89197e-18 0.107476 -4.6152e-17 8.25094e-17)
(0 1.8604e-29 4.9832e-31 11.954 1.83986e-15 -7.99668e-15 0.1091 -1.70472e-17 -7.34784e-17)
(-6.96094e-16 -1.8604e-29 -4.9832e-31 11.954 -1.50336e-15 1.58335e-17 0.1091 -4.98822e-17 8.40542e-17)
(0 -1.04785e-29 -3.27452e-31 11.9608 1.6481e-15 -8.10888e-15 0.11075 -1.62791e-17 -7.55771e-17)
(7.25459e-16 1.04785e-29 3.27452e-31 11.9608 -1.26669e-15 2.12063e-17 0.11075 -5.33775e-17 8.56454e-17)
(-1.88817e-16 5.40543e-30 5.36851e-32 11.9677 1.50985e-15 -8.22136e-15 0.112426 -1.39963e-17 -7.77434e-17)
(0 0 8.06897e-32 11.9677 -1.15051e-15 1.77688e-17 0.112426 -5.70347e-17 8.72179e-17)
(-5.54567e-16 2.31834e-29 5.33178e-31 11.9748 1.51259e-15 -8.33543e-15 0.114129 -1.41592e-17 -7.99648e-17)
(3.58186e-16 -2.03605e-29 -4.77199e-31 11.9748 -1.16587e-15 1.33947e-17 0.114129 -5.95902e-17 8.87834e-17)
(-2.04061e-16 1.53654e-29 3.71906e-31 11.982 1.52338e-15 -8.4517e-15 0.115859 -1.44587e-17 -8.22685e-17)
(-9.9277e-16 -7.52576e-30 -2.3518e-31 11.982 -1.15234e-15 8.19354e-18 0.115859 -6.15961e-17 9.03271e-17)
(2.11856e-16 -5.2947e-30 -2.9256e-31 11.9894 1.60797e-15 -8.57059e-15 0.117616 -1.47826e-17 -8.46392e-17)
(0 2.47263e-30 2.31809e-31 11.9894 -1.1029e-15 9.94913e-18 0.117616 -6.3967e-17 9.18577e-17)
(2.1977e-16 -1.50073e-29 -4.44048e-31 11.9968 1.80471e-15 -8.69095e-15 0.119401 -1.65413e-17 -8.70737e-17)
(0 1.2186e-29 3.80811e-31 11.9968 -1.21754e-15 1.16492e-17 0.119401 -6.64069e-17 9.33968e-17)
(-2.27803e-16 1.48317e-29 4.41151e-31 12.0044 1.8983e-15 -8.81084e-15 0.121214 -1.91307e-17 -8.95388e-17)
(0 -7.20678e-30 -2.25212e-31 12.0044 -1.38632e-15 1.23485e-17 0.121214 -7.04445e-17 9.4923e-17)
(0 1.4207e-29 3.69973e-31 12.012 1.81589e-15 -8.92533e-15 0.123056 -1.89153e-17 -9.19695e-17)
(0 -1.89426e-29 -5.17963e-31 12.012 -1.25313e-15 1.60051e-17 0.123056 -7.42046e-17 9.6444e-17)
(-2.44238e-16 7.48727e-30 7.11447e-32 12.0198 1.75896e-15 -9.03824e-15 0.124926 -1.80031e-17 -9.4508e-17)
(6.48486e-16 0 7.29341e-32 12.0198 -1.13285e-15 1.67334e-17 0.124926 -7.69312e-17 9.79407e-17)
(3.23758e-16 -1.61031e-29 -3.59444e-31 12.0275 1.95657e-15 -9.15717e-15 0.126824 -1.82864e-17 -9.71708e-17)
(6.86813e-16 1.61031e-29 3.59444e-31 12.0275 -1.38854e-15 1.51459e-17 0.126824 -8.02534e-17 9.94154e-17)
(-5.79425e-17 3.98465e-30 3.48408e-31 12.0354 2.15562e-15 -9.2822e-15 0.128752 -2.26964e-17 -9.99506e-17)
(-7.25584e-16 -1.13374e-29 -4.25151e-31 12.0354 -1.69404e-15 9.61222e-18 0.128752 -8.49684e-17 1.00885e-16)
(2.69838e-16 -1.1757e-29 -4.98719e-31 12.0432 2.00737e-15 -9.40807e-15 0.13071 -2.30794e-17 -1.02749e-16)
(0 8.93989e-30 4.19057e-31 12.0432 -1.60919e-15 1.06316e-17 0.13071 -8.91768e-17 1.02326e-16)
(-2.78632e-16 -1.58888e-30 -1.87118e-31 12.051 1.96736e-15 -7.70251e-15 0.132696 -2.01444e-17 -6.53301e-17)
(0 8.81176e-30 4.13051e-31 12.051 -1.51173e-15 1.85927e-17 0.132696 -9.40313e-17 1.03786e-16)
(-1.80327e-17 1.52672e-30 4.43637e-32 12.0588 2.21622e-15 -5.56681e-15 0.134713 -2.28747e-17 -5.80568e-17)
(1.15024e-15 0 0 12.0588 -1.59614e-15 2.54174e-17 0.134713 -9.9026e-17 1.05226e-16)
(0 -1.28415e-29 -1.33765e-31 12.0666 2.30148e-15 -5.18949e-15 0.136759 -2.62929e-17 -5.86937e-17)
(1.18649e-15 1.28415e-29 1.33765e-31 12.0666 -1.70677e-15 2.7773e-17 0.136759 -1.03426e-16 1.06668e-16)
(-3.05825e-16 2.81421e-30 -3.70147e-32 12.0743 2.2145e-15 -5.17021e-15 0.138835 -2.54766e-17 -5.93143e-17)
(0 4.21914e-30 2.63696e-31 12.0743 -1.86511e-15 2.50649e-17 0.138835 -1.08358e-16 1.08088e-16)
(-3.15166e-16 2.81366e-30 -3.28211e-32 12.0818 2.20005e-15 -5.15051e-15 0.140942 -2.50637e-17 -5.99536e-17)
(0 4.15867e-30 2.59917e-31 12.0818 -1.92492e-15 2.29109e-17 0.140942 -1.13343e-16 1.09506e-16)
(2.88446e-16 -4.09906e-30 -2.56191e-31 12.0893 2.32852e-15 -5.12813e-15 0.143078 -2.58857e-17 -6.05221e-17)
(-2.88446e-16 4.09906e-30 2.56191e-31 12.0893 -1.85719e-15 2.079e-17 0.143078 -1.17873e-16 1.10905e-16)
(-6.18589e-16 -1.22855e-30 1.01912e-31 12.0965 2.31762e-15 -5.10898e-15 0.145245 -2.8838e-17 -6.12501e-17)
(0 1.21209e-29 2.5252e-31 12.0965 -1.6769e-15 2.10762e-17 0.145245 -1.23384e-16 1.12296e-16)
(0 1.59296e-29 8.71151e-31 12.1036 2.10105e-15 -5.08282e-15 0.147441 -2.63823e-17 -6.16579e-17)
(-1.3762e-15 -1.19472e-29 -7.46701e-31 12.1036 -1.41432e-15 1.39092e-17 0.147441 -1.28935e-16 1.13678e-16)
(-3.53972e-16 -8.96466e-30 -5.0652e-31 12.1103 2.1113e-15 -5.05029e-15 0.149667 -2.44078e-17 -6.22404e-17)
(1.41589e-15 1.1776e-29 7.35999e-31 12.1103 -1.30881e-15 1.252e-17 0.149667 -1.33988e-16 1.14957e-16)
(-5.44523e-16 1.93453e-29 8.46358e-31 12.1168 2.14978e-15 -5.02284e-15 0.151923 -2.74084e-17 -6.27759e-17)
(5.44523e-16 -1.93453e-29 -8.46358e-31 12.1168 -1.54884e-15 2.51767e-17 0.151923 -1.38429e-16 1.1627e-16)
(-3.74269e-16 6.62363e-30 5.88462e-31 12.123 2.1465e-15 -4.9985e-15 0.154208 -2.60876e-17 -6.34448e-17)
(1.49708e-15 -3.81361e-30 -4.76702e-31 12.123 -1.79749e-15 3.54808e-17 0.154208 -1.41431e-16 1.17599e-16)
(7.69297e-16 -1.31359e-29 -9.33358e-31 12.1287 2.24044e-15 -4.97287e-15 0.156521 -2.81278e-17 -6.39535e-17)
(1.53859e-15 7.51791e-30 7.04804e-31 12.1287 -1.75356e-15 2.85893e-17 0.156521 -1.46862e-16 1.1897e-16)
(5.21443e-16 -3.70508e-30 -3.47351e-31 12.134 2.24907e-15 -4.93586e-15 0.158863 -2.92759e-17 -6.43343e-17)
(0 3.70508e-30 4.63135e-31 12.134 -1.91616e-15 1.6358e-17 0.158863 -1.53546e-16 1.20233e-16)
(-4.05879e-16 -8.44717e-31 5.26041e-33 12.1387 2.25422e-15 -4.89843e-15 0.161232 -2.91775e-17 -6.48327e-17)
(0 1.09559e-29 3.42373e-31 12.1387 -2.06144e-15 2.46576e-17 0.161232 -1.60696e-16 1.21443e-16)
(-8.33468e-16 1.28117e-29 9.18821e-31 12.1428 2.39077e-15 -4.86494e-15 0.163628 -3.02704e-17 -6.53166e-17)
(1.66694e-15 -1.07989e-29 -7.8742e-31 12.1428 -1.86805e-15 3.18618e-17 0.163628 -1.68135e-16 1.22709e-16)
(-4.27752e-16 6.35297e-30 1.24546e-31 12.1463 2.45517e-15 -4.82478e-15 0.166049 -3.37117e-17 -6.56338e-17)
(0 0 2.21753e-31 12.1463 -1.89141e-15 3.02662e-17 0.166049 -1.75314e-16 1.23972e-16)
(-4.38934e-16 -4.19011e-30 -3.09994e-31 12.149 2.52223e-15 -4.77662e-15 0.168496 -3.29176e-17 -6.58942e-17)
(1.75574e-15 1.04916e-29 6.55723e-31 12.149 -2.06577e-15 2.95653e-17 0.168496 -1.82823e-16 1.25175e-16)
(-4.50283e-16 6.24989e-30 3.45219e-31 12.1508 2.81646e-15 -4.72701e-15 0.170965 -3.65592e-17 -6.61604e-17)
(0 0 0 12.1508 -2.63991e-15 2.33928e-17 0.170965 -1.89102e-16 1.26365e-16)
(-9.23602e-16 1.91924e-29 6.895e-31 12.1517 3.09485e-15 -4.67752e-15 0.173457 -4.21613e-17 -6.64118e-17)
(-1.8472e-15 -1.35906e-29 -4.24707e-31 12.1517 -2.65202e-15 3.25352e-17 0.173457 -2.01194e-16 1.2745e-16)
(-9.46976e-16 -1.11465e-29 -5.67201e-31 12.1516 3.25959e-15 -4.6277e-15 0.175969 -4.55777e-17 -6.66553e-17)
(3.78791e-15 1.00469e-29 6.2793e-31 12.1516 -2.29316e-15 4.38037e-17 0.175969 -2.10081e-16 1.28607e-16)
(-1.92061e-15 2.15971e-29 1.65081e-30 12.1502 3.14836e-15 -4.57464e-15 0.178499 -4.81677e-17 -6.67981e-17)
(-1.94139e-15 -1.32039e-29 -1.23786e-30 12.1502 -2.64993e-15 3.68596e-17 0.178499 -2.18297e-16 1.29708e-16)
(-4.9738e-16 -1.34707e-29 -8.76459e-31 12.1476 3.08025e-15 -4.51265e-15 0.181045 -4.36443e-17 -6.67598e-17)
(1.98952e-15 1.62683e-29 1.22012e-30 12.1476 -2.58706e-15 2.78098e-17 0.181045 -2.29747e-16 1.30764e-16)
(5.09587e-16 -6.00294e-30 -5.43836e-31 12.1436 3.12294e-15 -4.44615e-15 0.183605 -4.75484e-17 -6.67436e-17)
(0 3.20702e-30 4.00877e-31 12.1436 -2.48024e-15 3.27422e-17 0.183605 -2.3876e-16 1.31755e-16)
(0 -1.58053e-29 -7.90263e-31 12.1379 2.71673e-15 -4.3766e-15 0.186177 -4.62139e-17 -6.65813e-17)
(2.08788e-15 1.58053e-29 7.90263e-31 12.1379 -2.34604e-15 4.58052e-17 0.186177 -2.48504e-16 1.32724e-16)
(0 -3.11575e-30 -1.94734e-31 12.1306 2.48994e-15 -4.28765e-15 0.188756 -3.64768e-17 -6.59296e-17)
(2.13812e-15 3.11575e-30 3.89468e-31 12.1306 -2.04163e-15 3.80729e-17 0.188756 -2.55144e-16 1.33712e-16)
(-8.64435e-16 1.53555e-29 7.67773e-31 12.1215 2.98814e-15 -4.18549e-15 0.191341 -4.05074e-17 -6.53052e-17)
(2.18908e-15 -9.21327e-30 -3.83886e-31 12.1215 -2.13517e-15 2.50576e-17 0.191341 -2.62312e-16 1.34636e-16)
(-8.52046e-16 2.11895e-29 7.56769e-31 12.1103 3.24469e-15 -4.081e-15 0.193927 -5.32804e-17 -6.45127e-17)
(8.52046e-16 -2.11895e-29 -7.56769e-31 12.1103 -2.30559e-15 2.70417e-17 0.193927 -2.72147e-16 1.35446e-16)
(-1.14657e-15 2.59607e-30 6.85755e-31 12.0969 3.03188e-15 -3.95615e-15 0.19651 -4.99147e-17 -6.31596e-17)
(0 2.98369e-30 -3.72961e-31 12.0969 -2.31077e-15 2.44543e-17 0.19651 -2.84959e-16 1.36182e-16)
(0 -1.76455e-29 -7.35231e-31 12.0811 3.03588e-15 -3.81925e-15 0.199088 -4.79227e-17 -6.18874e-17)
(2.34626e-15 1.76455e-29 7.35231e-31 12.0811 -2.16073e-15 3.83354e-17 0.199088 -2.97811e-16 1.36627e-16)
(0 5.79755e-30 7.24693e-31 12.0628 3.01387e-15 -3.67612e-15 0.201654 -5.15088e-17 -6.02203e-17)
(2.40009e-15 -2.89877e-30 -5.4352e-31 12.0628 -2.17756e-15 4.7302e-17 0.201654 -3.05409e-16 1.37088e-16)
(-6.13661e-16 2.78625e-30 1.64061e-31 12.0417 2.86956e-15 -3.52311e-15 0.204204 -4.85901e-17 -5.85057e-17)
(0 2.85723e-30 1.78577e-31 12.0417 -2.55846e-15 2.4329e-17 0.204204 -3.15107e-16 1.37308e-16)
(6.27479e-16 2.84733e-30 7.13624e-31 12.0177 2.92489e-15 -3.37644e-15 0.206733 -4.81186e-17 -5.69329e-17)
(0 0 -5.28052e-31 12.0177 -2.8006e-15 1.75395e-17 0.206733 -3.30136e-16 1.37205e-16)
(0 -1.11036e-29 -3.46989e-31 11.9905 2.8706e-15 -3.24252e-15 0.209235 -5.1919e-17 -5.55401e-17)
(0 1.11036e-29 3.46989e-31 11.9905 -2.76075e-15 1.97816e-17 0.209235 -3.41158e-16 1.37088e-16)
(0 -8.20838e-30 -5.13023e-31 11.9599 2.72474e-15 -3.11829e-15 0.211706 -4.76312e-17 -5.41969e-17)
(0 8.20838e-30 5.13023e-31 11.9599 -2.79596e-15 2.48454e-17 0.211706 -3.52326e-16 1.36886e-16)
(-5.80898e-16 -2.52723e-30 -1.595e-31 11.9258 3.08939e-15 -3.00822e-15 0.214138 -4.82693e-17 -5.32082e-17)
(0 8.09073e-30 5.05671e-31 11.9258 -2.93853e-15 5.12523e-17 0.214138 -3.65439e-16 1.368e-16)
(-6.84533e-16 1.07524e-29 6.73508e-31 11.8879 3.61562e-15 -2.92377e-15 0.216525 -6.21412e-17 -5.27029e-17)
(0 -7.97477e-30 -4.98423e-31 11.8879 -3.52575e-15 5.46093e-17 0.216525 -3.8262e-16 1.36902e-16)
(6.99233e-16 -2.77494e-30 -1.77132e-31 11.8461 3.70144e-15 -2.82936e-15 0.218861 -6.88851e-17 -5.1272e-17)
(-4.27195e-15 0 0 11.8461 -3.37492e-15 -8.0507e-19 0.218861 -4.06743e-16 1.36884e-16)
(1.45388e-15 -1.2913e-29 -1.61413e-31 11.8001 3.57921e-15 -2.69546e-15 0.22114 -6.71383e-17 -4.92178e-17)
(-2.85641e-15 1.2913e-29 1.61413e-31 11.8001 -2.82813e-15 -4.01353e-18 0.22114 -4.26194e-16 1.36501e-16)
(-7.29141e-16 1.55e-29 6.58346e-31 11.7497 3.86429e-15 -2.5687e-15 0.223354 -6.63123e-17 -4.79437e-17)
(5.83313e-15 -7.63676e-30 -1.59099e-31 11.7497 -2.74891e-15 2.8339e-17 0.223354 -4.44671e-16 1.36377e-16)
(7.44342e-16 4.75947e-30 4.44433e-31 11.6949 4.23373e-15 -2.45987e-15 0.225497 -7.99677e-17 -4.64524e-17)
(2.97737e-15 -1.00364e-29 -9.40913e-31 11.6949 -3.27693e-15 1.13802e-17 0.225497 -4.60538e-16 1.36293e-16)
(0 4.94628e-30 0 11.6353 4.25182e-15 -2.32863e-15 0.227561 -8.25366e-17 -4.42011e-17)
(0 0 3.09143e-31 11.6353 -3.58905e-15 -2.2011e-18 0.227561 -4.86621e-16 1.36074e-16)
(-7.75218e-16 -1.18631e-29 -7.27834e-31 11.5709 3.72733e-15 -2.18931e-15 0.22954 -8.30199e-17 -4.22696e-17)
(3.10087e-15 1.46262e-29 9.14135e-31 11.5709 -2.88759e-15 1.19786e-17 0.22954 -5.02562e-16 1.35905e-16)
(-7.90883e-16 1.4778e-29 7.88755e-31 11.5016 3.21844e-15 -2.02099e-15 0.231428 -6.40845e-17 -3.87011e-17)
(-3.16353e-15 -7.20827e-30 -3.00344e-31 11.5016 -2.7456e-15 2.56525e-18 0.231428 -5.17759e-16 1.35836e-16)
(2.13994e-15 -1.22364e-29 -7.81573e-31 11.4272 3.16733e-15 -1.84761e-15 0.233217 -6.49087e-17 -3.64065e-17)
(1.89353e-15 9.47327e-30 5.9208e-31 11.4272 -2.40864e-15 -1.58196e-17 0.233217 -5.32234e-16 1.35401e-16)
(-8.22642e-16 1.44335e-29 1.0664e-30 11.3476 2.92997e-15 -1.68544e-15 0.234902 -6.38682e-17 -3.30964e-17)
(3.29057e-15 -1.16719e-29 -8.7539e-31 11.3476 -2.13879e-15 -7.93994e-18 0.234902 -5.35482e-16 1.35177e-16)
(-8.38723e-16 2.76074e-30 -9.53236e-32 11.2629 3.1373e-15 -1.51077e-15 0.236477 -5.69474e-17 -3.01097e-17)
(0 0 2.87615e-31 11.2629 -2.89444e-15 -6.73248e-18 0.236477 -5.51526e-16 1.3498e-16)
(-8.5493e-16 2.75593e-30 1.93534e-31 11.1729 3.24783e-15 -1.33228e-15 0.237936 -7.44795e-17 -2.64324e-17)
(0 4.53588e-30 2.83492e-31 11.1729 -2.67831e-15 -2.76673e-18 0.237936 -5.72921e-16 1.34848e-16)
(-8.71254e-16 -1.71563e-30 -9.23162e-31 11.0778 3.03119e-15 -1.14246e-15 0.239274 -6.33429e-17 -2.2755e-17)
(2.22658e-15 4.47087e-30 1.39715e-30 11.0778 -1.75459e-15 -8.21067e-20 0.239274 -5.85659e-16 1.34761e-16)
(8.87689e-16 -1.15661e-29 -7.46256e-31 10.9774 2.98239e-15 -9.50061e-16 0.240488 -6.72609e-17 -1.87372e-17)
(0 8.81357e-30 5.50848e-31 10.9774 -2.14073e-15 1.30414e-18 0.240488 -5.98401e-16 1.34639e-16)
(1.22262e-15 -1.30309e-29 -8.1443e-31 10.8719 2.82758e-15 -7.39462e-16 0.241573 -6.305e-17 -1.40159e-17)
(0 1.30309e-29 8.1443e-31 10.8719 -3.3716e-15 -1.77072e-17 0.241573 -6.12922e-16 1.34697e-16)
(2.84243e-16 -1.53192e-30 1.9669e-31 10.7614 3.21806e-15 -5.56266e-16 0.242526 -6.23172e-17 -1.09852e-17)
(-1.2051e-15 8.56274e-30 2.67586e-31 10.7614 -3.8115e-15 -4.92468e-17 0.242526 -6.37805e-16 1.34479e-16)
(1.18783e-15 -2.11e-29 -1.84625e-30 10.6461 3.98683e-15 -4.09928e-16 0.243345 -8.25902e-17 -7.69938e-18)
(6.31274e-15 2.11e-29 2.11e-30 10.6461 -3.08182e-15 -5.94254e-17 0.243345 -6.6444e-16 1.34242e-16)
(0 4.15952e-30 0 10.526 4.5952e-15 -2.7039e-16 0.244029 -9.9483e-17 -4.79918e-18)
(3.81744e-15 4.15952e-30 5.19941e-31 10.526 -3.13061e-15 -4.10884e-17 0.244029 -6.80299e-16 1.34228e-16)
(-9.71218e-16 2.32345e-29 1.99055e-30 10.4013 4.19546e-15 -1.37073e-16 0.244576 -1.13383e-16 -1.61685e-18)
(-3.88487e-15 -1.63996e-29 -1.53747e-30 10.4013 -3.97752e-15 -2.79148e-17 0.244576 -7.01932e-16 1.34948e-16)
(1.49349e-16 1.4861e-29 8.75812e-47 10.2724 3.73032e-15 1.6486e-29 0.244987 -8.34829e-17 -7.4643e-47)
(-3.95253e-15 -1.21234e-29 -5.05143e-31 10.2724 -4.07269e-15 -3.77078e-17 0.244987 -7.23269e-16 1.36088e-16)
(0 7.96645e-30 2.48952e-31 10.1393 4.6792e-15 1.93434e-16 0.245262 -9.43754e-17 -3.35611e-18)
(0 -3.98323e-30 0 10.1393 -3.53083e-15 -3.66929e-17 0.245262 -7.36878e-16 1.37525e-16)
(0 7.85227e-30 7.3615e-31 10.0025 4.9177e-15 3.2978e-16 0.245402 -1.32141e-16 -6.01583e-18)
(4.08837e-15 -3.92614e-30 -4.90767e-31 10.0025 -3.91085e-15 -2.88021e-17 0.245402 -7.54622e-16 1.39145e-16)
(-5.01506e-17 2.04963e-29 1.74295e-30 9.86212 4.58444e-15 4.90413e-16 0.24541 -1.08924e-16 -1.01914e-17)
(0 -1.93493e-29 -1.4512e-30 9.86212 -4.44327e-15 -7.0826e-18 0.24541 -7.89942e-16 1.4098e-16)
(0 -2.67008e-29 -2.384e-30 9.71855 5.01273e-15 6.61642e-16 0.245289 -1.19306e-16 -1.42445e-17)
(8.44932e-15 2.67008e-29 2.384e-30 9.71855 -3.08353e-15 1.34677e-18 0.245289 -8.21947e-16 1.42959e-16)
(0 -3.75973e-30 -2.34983e-31 9.57208 4.67735e-15 8.31008e-16 0.245041 -1.33897e-16 -1.91983e-17)
(8.58576e-15 3.75973e-30 2.34983e-31 9.57208 -3.27684e-15 -2.42123e-17 0.245041 -8.25674e-16 1.45042e-16)
(-2.18055e-15 5.41946e-30 1.37826e-31 9.42304 3.48091e-15 9.51871e-16 0.244672 -1.05496e-16 -2.34006e-17)
(0 0 2.31615e-31 9.42304 -3.64465e-15 -1.73148e-17 0.244672 -8.48855e-16 1.47029e-16)
(-1.10732e-15 6.36358e-30 -4.61195e-32 9.27176 2.86389e-15 1.06847e-15 0.244185 -7.51883e-17 -2.60876e-17)
(8.85855e-15 0 4.56591e-31 9.27176 -1.54995e-15 7.49562e-18 0.244185 -8.75017e-16 1.49777e-16)
(1.12435e-15 -9.90841e-30 -4.04191e-31 9.11859 2.68799e-15 1.21343e-15 0.243586 -7.5817e-17 -3.02788e-17)
(0 7.20075e-30 2.25023e-31 9.11859 -1.65652e-15 -8.45806e-20 0.243586 -8.78839e-16 1.52384e-16)
(-1.14135e-15 2.70647e-30 3.97656e-31 8.96386 2.42456e-15 1.33801e-15 0.24288 -6.79133e-17 -3.46621e-17)
(0 3.54877e-30 0 8.96386 -2.42614e-15 -1.73097e-17 0.24288 -8.96872e-16 1.54811e-16)
(-1.15831e-15 9.70104e-30 8.28498e-31 8.8079 2.64613e-15 1.41211e-15 0.242072 -6.36374e-17 -3.79759e-17)
(4.63325e-15 -6.99582e-30 -6.55858e-31 8.8079 -1.45158e-15 -1.15072e-17 0.242072 -9.20066e-16 1.57541e-16)
(-1.17523e-15 9.5949e-30 8.15971e-31 8.65104 2.90192e-15 1.46533e-15 0.241169 -8.21907e-17 -3.97872e-17)
(3.73047e-15 -3.44778e-30 -2.15486e-31 8.65104 -1.22187e-15 -4.21928e-18 0.241169 -9.31497e-16 1.60611e-16)
(-2.38421e-15 8.79344e-30 7.56871e-31 8.4936 3.06344e-15 1.50858e-15 0.240176 -7.9894e-17 -4.20826e-17)
(0 -3.39836e-30 -4.24795e-31 8.4936 -1.9106e-15 -1.32141e-17 0.240176 -9.49548e-16 1.63291e-16)
(-1.20892e-15 9.39234e-30 7.90674e-31 8.3359 2.81052e-15 1.50804e-15 0.2391 -9.3819e-17 -4.3422e-17)
(0 -3.34965e-30 -2.09353e-31 8.3359 -2.29647e-15 2.14685e-17 0.2391 -9.72952e-16 1.6596e-16)
(0 -1.32066e-29 -4.12705e-31 8.17823 2.01067e-15 1.5698e-15 0.237947 -6.75863e-17 -4.32841e-17)
(-4.90269e-15 1.32066e-29 4.12705e-31 8.17823 -1.56235e-15 1.56167e-17 0.237947 -9.86704e-16 1.69652e-16)
(3.07437e-15 -1.2461e-29 -9.69002e-31 8.02086 2.50307e-15 1.64575e-15 0.236724 -4.95712e-17 -4.83224e-17)
(3.13739e-15 9.76297e-30 8.13581e-31 8.02086 -2.03932e-15 -3.1352e-17 0.236724 -9.88313e-16 1.72406e-16)
(1.25896e-15 -9.10274e-30 -7.53395e-31 7.86408 3.26291e-15 1.63027e-15 0.235436 -9.89185e-17 -4.90799e-17)
(-5.03583e-15 6.41536e-30 6.0144e-31 7.86408 -2.76238e-15 1.95848e-17 0.235436 -1.01594e-15 1.75451e-16)
(-1.27548e-15 5.84644e-30 3.46213e-31 7.70811 3.37199e-15 1.65902e-15 0.234089 -9.69768e-17 -4.88015e-17)
(3.32204e-15 0 0 7.70811 -1.72546e-15 4.9389e-17 0.234089 -1.03245e-15 1.79589e-16)
(1.75437e-15 9.34917e-30 5.84323e-31 7.55321 4.1592e-15 1.72191e-15 0.23269 -1.08509e-16 -5.22818e-17)
(-1.75437e-15 -6.23278e-30 -3.89549e-31 7.55321 -1.83302e-15 2.48995e-17 0.23269 -1.03435e-15 1.82652e-16)
(-1.72923e-15 9.21517e-30 7.67931e-31 7.39958 5.08411e-15 1.72986e-15 0.231244 -1.48821e-16 -5.41459e-17)
(5.23306e-15 -3.07172e-30 -1.91983e-31 7.39958 -2.97679e-15 -4.10209e-17 0.231244 -1.06316e-15 1.85366e-16)
(1.32452e-15 -1.47708e-29 -7.0447e-31 7.24742 4.85761e-15 1.66385e-15 0.229757 -1.701e-16 -5.43151e-17)
(0 1.21108e-29 5.67694e-31 7.24742 -3.93822e-15 -1.04297e-18 0.229757 -1.10276e-15 1.86e-16)
(1.68001e-15 5.96861e-30 1.86519e-31 7.09691 3.83689e-15 1.69238e-15 0.228234 -1.38668e-16 -5.15027e-17)
(-7.0427e-15 -2.9843e-30 0 7.09691 -3.34657e-15 4.50249e-17 0.228234 -1.14105e-15 1.89286e-16)
(-1.65593e-15 5.88306e-30 5.51537e-31 6.94821 3.60403e-15 1.75945e-15 0.22668 -1.08731e-16 -5.77609e-17)
(0 2.94153e-30 0 6.94821 -2.54502e-15 2.05598e-17 0.22668 -1.14611e-15 1.90898e-16)
(1.6322e-15 8.69812e-30 5.43632e-31 6.80147 3.43703e-15 1.79778e-15 0.225101 -1.27373e-16 -5.74347e-17)
(-1.6322e-15 -2.89937e-30 -1.81211e-31 6.80147 -2.91034e-15 2.04127e-17 0.225101 -1.14799e-15 1.94507e-16)
(1.38851e-15 8.77357e-30 5.94102e-31 6.6568 3.2033e-15 1.84564e-15 0.2235 -1.00742e-16 -6.2017e-17)
(0 -1.14313e-29 -7.14454e-31 6.6568 -3.37483e-15 9.34813e-18 0.2235 -1.15048e-15 1.97545e-16)
(1.40425e-15 5.7988e-30 2.3415e-31 6.51433 3.99067e-15 1.84099e-15 0.221883 -1.15238e-16 -6.23661e-17)
(-3.1715e-15 -5.63371e-30 -1.76054e-31 6.51433 -3.82823e-15 -7.34695e-18 0.221883 -1.16215e-15 2.01015e-16)
(-2.83974e-15 5.28014e-30 -1.16185e-31 6.37414 4.13527e-15 1.78388e-15 0.220253 -1.57919e-16 -6.35137e-17)
(5.67948e-15 0 3.4706e-31 6.37414 -3.73944e-15 -2.15728e-17 0.220253 -1.17575e-15 2.03994e-16)
(-1.43538e-15 2.63839e-30 1.13742e-31 6.23633 3.9199e-15 1.73137e-15 0.218613 -1.28717e-16 -6.02027e-17)
(0 2.73669e-30 1.71043e-31 6.23633 -3.74206e-15 -8.60336e-18 0.218613 -1.1936e-15 2.08513e-16)
(0 5.39493e-30 3.37183e-31 6.10095 3.87886e-15 1.69467e-15 0.216969 -1.47278e-16 -6.16517e-17)
(-3.03708e-15 -5.39493e-30 -3.37183e-31 6.10095 -3.31168e-15 -2.55906e-17 0.216969 -1.23371e-15 2.12269e-16)
(1.49677e-15 5.31761e-30 4.98526e-31 5.96806 3.36818e-15 1.64429e-15 0.215322 -1.29536e-16 -5.93269e-17)
(-1.49677e-15 0 -3.32351e-31 5.96806 -2.88595e-15 -5.38128e-17 0.215322 -1.24529e-15 2.16068e-16)
(-1.47532e-15 1.04828e-29 6.55174e-31 5.83771 3.56355e-15 1.50971e-15 0.213675 -1.14332e-16 -5.97818e-17)
(0 -5.24139e-30 -3.27587e-31 5.83771 -1.5651e-15 -5.23891e-17 0.213675 -1.27662e-15 2.20359e-16)
(0 7.74941e-30 3.22892e-31 5.70993 2.50788e-15 1.33944e-15 0.212033 -1.47792e-16 -5.11031e-17)
(9.06193e-15 -5.16627e-30 -1.61446e-31 5.70993 4.00848e-16 -1.05893e-16 0.212033 -1.28567e-15 2.26522e-16)
(-3.02245e-15 7.80887e-30 3.6867e-31 5.58474 1.30729e-15 1.19581e-15 0.210396 -3.84007e-17 -4.87457e-17)
(6.0449e-15 -2.54611e-30 -1.59132e-31 5.58474 -1.15809e-15 -1.93174e-16 0.210396 -1.26388e-15 2.3125e-16)
(1.52605e-15 -1.01559e-29 -7.31545e-31 5.46215 2.13614e-15 9.6211e-16 0.208768 -6.06463e-17 -4.16567e-17)
(0 7.52886e-30 6.27405e-31 5.46215 -3.50241e-15 -1.14691e-16 0.208768 -1.2881e-15 2.3729e-16)
(0 4.9473e-30 4.6381e-31 5.34217 2.54459e-15 8.14299e-16 0.20715 -1.03595e-16 -3.21085e-17)
(-8.94813e-15 0 -1.54603e-31 5.34217 -2.69188e-15 -1.14743e-16 0.20715 -1.32389e-15 2.48283e-16)
(-4.30052e-15 -1.20131e-29 -6.58498e-31 5.22479 2.49305e-15 6.33164e-16 0.205545 -9.44554e-17 -3.12851e-17)
(8.9666e-15 1.46292e-29 9.14324e-31 5.22479 -7.29552e-16 -7.65759e-17 0.205545 -1.34452e-15 2.58165e-16)
(0 7.20975e-30 4.5061e-31 5.11002 2.24652e-15 5.1622e-16 0.203953 -1.02529e-16 -1.86373e-17)
(-2.70582e-15 -2.40325e-30 -3.00406e-31 5.11002 -3.96367e-16 8.63026e-18 0.203953 -1.33987e-15 2.71959e-16)
(0 -7.10642e-30 -4.44151e-31 4.99782 2.20144e-15 5.53457e-16 0.202377 -7.73217e-17 -2.27616e-17)
(0 7.10642e-30 5.92202e-31 4.99782 -1.85893e-15 -4.74858e-17 0.202377 -1.34395e-15 2.85149e-16)
(-1.59847e-15 2.60505e-30 1.02567e-31 4.88818 1.77971e-15 4.98564e-16 0.200818 -1.01841e-16 -2.22328e-17)
(0 0 0 4.88818 -1.27088e-15 -6.88587e-17 0.200818 -1.37583e-15 2.97896e-16)
(-6.34102e-16 -2.00929e-29 -1.23324e-30 4.78108 1.50285e-15 4.76018e-16 0.199277 -4.45467e-17 -1.88675e-17)
(1.2901e-14 2.30139e-29 1.43837e-30 4.78108 1.44763e-16 -6.86645e-17 0.199277 -1.37645e-15 3.11949e-16)
(0 4.53681e-30 4.25326e-31 4.67648 2.88832e-15 4.31686e-16 0.197756 -8.14866e-17 -2.09836e-17)
(-2.554e-15 0 -1.41775e-31 4.67648 -2.16367e-15 5.04747e-17 0.197756 -1.36412e-15 3.26292e-16)
(0 1.11795e-29 6.98717e-31 4.57435 3.43621e-15 3.57161e-16 0.196254 -1.64336e-16 -1.56289e-17)
(-2.51739e-15 -4.47179e-30 -2.79487e-31 4.57435 -2.43961e-15 -7.24042e-17 0.196254 -1.41499e-15 3.4588e-16)
(-4.96324e-15 -1.42855e-29 -9.30432e-31 4.47465 3.0446e-15 1.43278e-16 0.194773 -1.31411e-16 -1.51323e-17)
(1.57166e-14 2.20385e-29 1.23966e-30 4.47465 -5.30251e-16 -1.6445e-16 0.194773 -1.43555e-15 3.59606e-16)
(0 -2.17226e-29 -1.08613e-30 4.37735 3.04907e-15 -1.24269e-16 0.193313 -1.34679e-16 -8.3177e-18)
(1.3345e-14 2.17226e-29 1.08613e-30 4.37735 -1.48946e-15 1.12327e-16 0.193313 -1.43113e-15 3.79356e-16)
(-1.68174e-15 1.54208e-29 6.412e-31 4.28241 3.05547e-15 -1.36403e-16 0.191876 -1.35659e-16 -3.91988e-18)
(0 -8.56451e-30 -2.67641e-31 4.28241 -2.0405e-15 1.13124e-16 0.191876 -1.45561e-15 4.01028e-16)