/*--------------------------------*- C++ -*----------------------------------*\
| =========                 |                                                 |
| \\      /  F ield         | OpenFOAM: The Open Source CFD Toolbox           |
|  \\    /   O peration     | Version:  2012                                  |
|   \\  /    A nd           | Website:  www.openfoam.com                      |
|    \\/     M anipulation  |                                                 |
\*---------------------------------------------------------------------------*/
FoamFile
{
    version     2.0;
    format      ascii;
    class       volScalarField;
    location    "16000";
    object      omega;
}
// * * * * * * * * * * * * * * * * * * * * * * * * * * * * * * * * * * * * * //

dimensions      [0 0 -1 0 0 0 0];


internalField   nonuniform List<scalar> 
2560
(
1.52415e+06
1.52415e+06
265150
265150
89784.9
89784.9
42125.1
42125.1
23599.5
23599.5
14804.1
14804.1
10174.7
10174.7
7578.68
7578.68
6025.39
6025.39
5029.8
5029.8
4350.37
4350.37
3861.9
3861.9
3495.71
3495.71
3211.86
3211.86
2985.86
2985.86
2801.93
2801.93
2649.54
2649.54
2521.35
2521.35
2412.15
2412.15
2318.1
2318.1
2236.33
2236.33
2164.62
2164.62
2101.25
2101.25
2044.87
2044.87
1994.37
1994.37
1948.85
1948.85
1907.56
1907.56
1869.89
1869.89
1835.28
1835.28
1803.3
1803.3
1773.54
1773.54
1745.65
1745.65
1719.32
1719.32
1694.29
1694.29
1670.29
1670.29
1647.12
1647.12
1624.56
1624.56
1602.43
1602.43
1580.57
1580.57
1558.83
1558.83
1537.06
1537.06
1515.15
1515.15
1492.98
1492.98
1470.46
1470.46
1447.51
1447.51
1424.06
1424.06
1400.05
1400.05
1375.45
1375.45
1350.23
1350.23
1324.39
1324.39
1297.93
1297.93
1270.87
1270.87
1243.26
1243.26
1215.15
1215.15
1186.62
1186.62
1157.74
1157.74
1128.63
1128.63
1099.39
1099.39
1070.16
1070.16
1041.06
1041.06
1012.25
1012.25
983.855
983.855
956.029
956.029
928.909
928.909
902.625
902.625
877.297
877.297
853.024
853.024
829.887
829.887
807.947
807.947
787.234
787.234
767.759
767.759
749.506
749.506
732.43
732.43
716.469
716.469
701.545
701.545
687.567
687.567
674.435
674.435
662.047
662.047
650.301
650.301
639.1
639.1
628.352
628.352
617.975
617.975
607.896
607.896
598.052
598.052
588.391
588.391
578.87
578.87
569.454
569.454
560.118
560.118
550.841
550.841
541.609
541.609
532.412
532.412
523.244
523.244
514.103
514.103
504.988
504.988
495.9
495.9
486.842
486.842
477.816
477.816
468.828
468.828
459.881
459.881
450.98
450.98
442.13
442.13
433.337
433.337
424.606
424.606
415.94
415.94
407.346
407.346
398.827
398.827
390.388
390.388
382.034
382.034
373.768
373.768
365.594
365.594
357.515
357.515
349.536
349.536
341.658
341.658
333.885
333.885
326.22
326.22
318.663
318.663
311.217
311.217
303.884
303.884
296.665
296.665
289.562
289.562
282.574
282.574
275.704
275.704
268.951
268.951
262.315
262.315
255.796
255.796
249.395
249.395
243.111
243.111
236.943
236.943
230.891
230.891
224.953
224.953
219.13
219.13
213.42
213.421
207.823
207.823
202.336
202.336
196.96
196.96
191.692
191.692
186.533
186.533
181.479
181.479
176.532
176.532
171.688
171.688
166.947
166.947
162.308
162.308
157.769
157.769
153.328
153.328
148.986
148.986
144.74
144.74
140.589
140.589
136.531
136.531
132.567
132.567
128.694
128.694
124.912
124.912
121.219
121.219
117.615
117.615
114.098
114.098
110.669
110.669
107.324
107.324
104.065
104.065
100.891
100.891
97.7992
97.7992
94.7905
94.7905
91.8634
91.8634
89.0171
89.0171
86.2503
86.2503
83.5619
83.5619
80.9503
80.9503
78.4138
78.4138
75.9507
75.9507
73.559
73.559
71.2366
71.2366
68.9812
68.9812
66.7908
66.7908
64.6631
64.6631
62.5963
62.5963
60.5884
60.5884
58.6378
58.6378
56.743
56.743
54.9028
54.9028
53.116
53.116
51.3816
51.3816
49.6986
49.6986
48.0662
48.0662
46.4834
46.4834
44.9493
44.9493
43.4628
43.4628
42.0231
42.0231
40.6288
40.6288
39.279
39.279
37.9725
37.9725
36.708
36.708
35.4845
35.4845
34.301
34.301
33.1566
33.1566
32.0506
32.0505
30.9822
30.9822
29.9509
29.9509
28.9563
28.9563
27.998
27.998
27.0754
27.0754
26.1884
26.1884
25.3365
25.3365
24.5193
24.5193
23.7365
23.7365
22.9874
22.9874
22.2714
22.2714
21.5878
21.5878
20.9355
20.9355
20.3136
20.3136
19.7208
19.7208
19.1558
19.1558
18.6174
18.6174
18.1043
18.1043
17.6155
17.6155
17.1498
17.1498
16.7062
16.7062
16.2833
16.2833
15.8798
15.8798
15.4943
15.4943
15.1249
15.1249
14.7698
14.7698
14.427
14.427
14.0943
14.0943
13.7698
13.7698
13.4517
13.4517
13.1391
13.1391
12.8315
12.8315
12.5291
12.5291
12.2323
12.2323
11.9416
11.9416
11.6571
11.6571
11.3784
11.3784
11.1048
11.1048
10.8354
10.8354
10.5693
10.5693
10.306
10.306
10.0454
10.0454
9.78757
9.78758
9.53285
9.53285
9.28192
9.28192
9.03586
9.03586
8.79606
8.79606
8.56397
8.56397
8.34079
8.34079
8.12727
8.12727
7.9236
7.9236
7.72941
7.72941
7.54371
7.54371
7.36492
7.36492
7.19074
7.19074
7.01832
7.01832
6.84491
6.84491
6.66872
6.66872
6.48965
6.48966
6.30917
6.30917
6.12982
6.12982
5.95453
5.95453
5.78574
5.78575
5.62485
5.62485
5.47222
5.47222
5.32752
5.32753
5.1901
5.1901
5.0595
5.0595
4.93597
4.93597
4.82023
4.82023
4.713
4.713
4.61416
4.61416
4.52284
4.52284
4.43779
4.43779
4.35789
4.35789
4.2824
4.2824
4.21101
4.21101
4.14387
4.14387
4.08154
4.08154
4.02483
4.02483
3.97447
3.97447
3.93079
3.93079
3.89362
3.89362
3.86218
3.86218
3.83533
3.83533
3.81156
3.81156
3.78937
3.78937
3.76759
3.76759
3.74523
3.74523
3.72081
3.72081
3.69199
3.69199
3.65595
3.65595
3.61041
3.61041
3.55452
3.55452
3.48876
3.48876
3.41451
3.41451
3.33444
3.33444
3.25269
3.25269
3.1732
3.1732
3.09765
3.09765
3.02584
3.02584
2.95779
2.95779
2.89377
2.89377
2.83318
2.83318
2.77425
2.77425
2.71542
2.71542
2.65632
2.65632
2.59777
2.59777
2.54101
2.54101
2.48701
2.48701
2.43631
2.43631
2.38929
2.38929
2.3459
2.3459
2.30456
2.30456
2.26337
2.26337
2.22149
2.2215
2.17999
2.17999
2.14065
2.14065
2.10458
2.10458
2.07217
2.07217
2.0436
2.04361
2.01893
2.01894
1.99769
1.99769
1.97978
1.97978
1.96604
1.96605
1.95669
1.9567
1.95173
1.95174
1.52415e+06
1.52415e+06
265150
265150
89784.9
89784.9
42125.1
42125.1
23599.5
23599.5
14804.1
14804.1
10174.7
10174.7
7578.68
7578.68
6025.39
6025.39
5029.8
5029.8
4350.37
4350.37
3861.9
3861.9
3495.71
3495.71
3211.86
3211.86
2985.86
2985.86
2801.93
2801.93
2649.54
2649.54
2521.35
2521.35
2412.15
2412.15
2318.1
2318.1
2236.33
2236.33
2164.62
2164.62
2101.25
2101.25
2044.87
2044.87
1994.37
1994.37
1948.85
1948.85
1907.56
1907.56
1869.89
1869.89
1835.28
1835.28
1803.3
1803.3
1773.54
1773.54
1745.65
1745.65
1719.32
1719.32
1694.29
1694.29
1670.29
1670.29
1647.12
1647.12
1624.56
1624.56
1602.43
1602.43
1580.57
1580.57
1558.83
1558.83
1537.06
1537.06
1515.15
1515.15
1492.98
1492.98
1470.46
1470.46
1447.51
1447.51
1424.06
1424.06
1400.05
1400.05
1375.45
1375.45
1350.23
1350.23
1324.39
1324.39
1297.93
1297.93
1270.87
1270.87
1243.26
1243.26
1215.15
1215.15
1186.62
1186.62
1157.74
1157.74
1128.63
1128.63
1099.39
1099.39
1070.16
1070.16
1041.06
1041.06
1012.25
1012.25
983.856
983.856
956.03
956.03
928.909
928.909
902.626
902.626
877.297
877.297
853.024
853.024
829.888
829.888
807.947
807.947
787.234
787.234
767.759
767.759
749.506
749.506
732.43
732.43
716.469
716.469
701.545
701.545
687.567
687.567
674.435
674.435
662.047
662.047
650.302
650.302
639.1
639.1
628.352
628.352
617.975
617.975
607.896
607.896
598.052
598.052
588.391
588.391
578.87
578.87
569.455
569.455
560.118
560.118
550.841
550.841
541.609
541.609
532.412
532.412
523.244
523.244
514.103
514.103
504.988
504.988
495.9
495.9
486.842
486.842
477.816
477.816
468.828
468.828
459.881
459.881
450.98
450.98
442.131
442.131
433.338
433.338
424.606
424.606
415.94
415.94
407.346
407.346
398.827
398.827
390.388
390.388
382.034
382.034
373.768
373.768
365.594
365.594
357.516
357.516
349.536
349.536
341.659
341.659
333.886
333.886
326.22
326.22
318.663
318.663
311.217
311.217
303.884
303.884
296.666
296.666
289.562
289.562
282.575
282.575
275.704
275.704
268.951
268.951
262.315
262.315
255.796
255.796
249.395
249.395
243.111
243.111
236.943
236.943
230.891
230.891
224.953
224.953
219.13
219.13
213.421
213.421
207.823
207.823
202.336
202.336
196.96
196.96
191.692
191.692
186.533
186.533
181.48
181.48
176.532
176.532
171.688
171.688
166.947
166.947
162.308
162.308
157.769
157.769
153.328
153.328
148.986
148.986
144.74
144.74
140.589
140.589
136.531
136.531
132.567
132.567
128.694
128.694
124.912
124.912
121.219
121.219
117.615
117.615
114.099
114.099
110.669
110.669
107.324
107.324
104.065
104.065
100.891
100.891
97.7992
97.7992
94.7905
94.7905
91.8634
91.8634
89.0171
89.0171
86.2504
86.2504
83.5619
83.5619
80.9503
80.9503
78.4138
78.4138
75.9507
75.9507
73.559
73.559
71.2366
71.2366
68.9812
68.9812
66.7908
66.7908
64.6631
64.6631
62.5963
62.5963
60.5884
60.5884
58.6378
58.6378
56.743
56.743
54.9028
54.9028
53.116
53.116
51.3816
51.3816
49.6986
49.6986
48.0662
48.0662
46.4834
46.4834
44.9493
44.9493
43.4628
43.4628
42.0231
42.0231
40.6288
40.6288
39.279
39.279
37.9725
37.9725
36.708
36.708
35.4845
35.4845
34.301
34.301
33.1566
33.1566
32.0505
32.0505
30.9822
30.9822
29.9509
29.9509
28.9563
28.9563
27.998
27.998
27.0754
27.0754
26.1884
26.1884
25.3365
25.3365
24.5193
24.5193
23.7364
23.7364
22.9873
22.9874
22.2714
22.2714
21.5877
21.5877
20.9355
20.9355
20.3136
20.3136
19.7208
19.7208
19.1558
19.1558
18.6173
18.6173
18.1043
18.1043
17.6154
17.6154
17.1497
17.1497
16.7061
16.7061
16.2832
16.2832
15.8798
15.8798
15.4942
15.4942
15.1248
15.1248
14.7697
14.7697
14.4269
14.4269
14.0943
14.0943
13.7697
13.7697
13.4516
13.4516
13.139
13.139
12.8314
12.8314
12.529
12.529
12.2322
12.2322
11.9415
11.9415
11.6571
11.6571
11.3784
11.3784
11.1048
11.1048
10.8353
10.8353
10.5692
10.5692
10.306
10.306
10.0454
10.0454
9.78756
9.78756
9.53283
9.53283
9.2819
9.2819
9.03585
9.03585
8.79605
8.79605
8.56396
8.56396
8.34077
8.34077
8.12725
8.12725
7.92358
7.92359
7.72939
7.72939
7.54369
7.54369
7.3649
7.3649
7.19072
7.19072
7.01832
7.01832
6.84491
6.84491
6.66874
6.66874
6.48968
6.48968
6.30921
6.30921
6.12987
6.12987
5.95458
5.95458
5.78579
5.7858
5.6249
5.6249
5.47227
5.47227
5.32757
5.32758
5.19015
5.19015
5.05954
5.05955
4.93601
4.93601
4.82026
4.82027
4.71302
4.71302
4.61417
4.61417
4.52285
4.52285
4.4378
4.4378
4.35789
4.35789
4.2824
4.2824
4.21101
4.21101
4.14387
4.14387
4.08153
4.08153
4.02481
4.02481
3.97443
3.97443
3.93074
3.93074
3.89355
3.89355
3.8621
3.8621
3.83523
3.83523
3.81145
3.81145
3.78925
3.78925
3.76747
3.76747
3.74511
3.74511
3.72071
3.72071
3.69191
3.69191
3.6559
3.6559
3.61039
3.61039
3.55454
3.55454
3.48881
3.48881
3.41458
3.41458
3.33451
3.33452
3.25276
3.25276
3.17325
3.17325
3.09769
3.09769
3.02586
3.02587
2.95779
2.9578
2.89376
2.89376
2.83317
2.83317
2.77424
2.77425
2.71541
2.71542
2.65632
2.65633
2.59778
2.59779
2.54102
2.54103
2.48702
2.48702
2.43631
2.43631
2.38928
2.38928
2.34588
2.34588
2.30454
2.30455
2.26336
2.26336
2.2215
2.22151
2.18001
2.18001
2.14067
2.14067
2.10459
2.10459
2.07217
2.07217
2.0436
2.0436
2.01892
2.01892
1.99767
1.99767
1.97976
1.97975
1.96602
1.96601
1.95666
1.95666
1.9517
1.9517
1.9516
1.95161
1.95629
1.9563
1.96538
1.96539
1.97881
1.97882
1.99641
1.99642
2.01741
2.01742
2.04189
2.04189
2.07025
2.07025
2.10245
2.10245
2.13825
2.13825
2.17731
2.17731
2.21861
2.21861
2.26039
2.26039
2.30166
2.30166
2.34335
2.34335
2.38727
2.38727
2.4348
2.4348
2.48598
2.48598
2.54047
2.54047
2.59768
2.59768
2.65658
2.65658
2.71588
2.71588
2.77484
2.77484
2.83393
2.83393
2.89479
2.89479
2.95908
2.95908
3.0274
3.0274
3.09946
3.09946
3.17525
3.17526
3.255
3.255
3.33705
3.33705
3.41739
3.41739
3.49167
3.49167
3.55717
3.55717
3.6125
3.6125
3.65726
3.65726
3.69268
3.69269
3.72117
3.72117
3.74548
3.74548
3.76788
3.76788
3.78972
3.78972
3.81199
3.812
3.83584
3.83584
3.86271
3.86271
3.89415
3.89415
3.93131
3.93131
3.97498
3.97498
4.02532
4.02532
4.08198
4.08198
4.14421
4.14421
4.21119
4.2112
4.28238
4.28238
4.35774
4.35774
4.43753
4.43753
4.52237
4.52237
4.61344
4.61345
4.71204
4.71204
4.81903
4.81904
4.93452
4.93452
5.05786
5.05786
5.18832
5.18832
5.32553
5.32553
5.46993
5.46993
5.62221
5.62221
5.78269
5.78269
5.95103
5.95103
6.12599
6.12599
6.30519
6.30519
6.48551
6.48551
6.66423
6.66423
6.83992
6.83992
7.013
7.013
7.18539
7.18539
7.35978
7.35978
7.53902
7.53902
7.7254
7.7254
7.92035
7.92035
8.12467
8.12467
8.33863
8.33863
8.56196
8.56196
8.79398
8.79398
9.0336
9.0336
9.27943
9.27943
9.53019
9.53019
9.78478
9.78478
10.0424
10.0424
10.303
10.303
10.5664
10.5664
10.8326
10.8326
11.1022
11.1022
11.3762
11.3762
11.6554
11.6554
11.9405
11.9405
12.232
12.232
12.5297
12.5297
12.8328
12.8328
13.1408
13.1408
13.4537
13.4537
13.7719
13.7719
14.0965
14.0965
14.4293
14.4293
14.7724
14.7724
15.1276
15.1276
15.497
15.497
15.8823
15.8823
16.2854
16.2854
16.7077
16.7077
17.1509
17.1509
17.6161
17.6161
18.1044
18.1044
18.6172
18.6172
19.1555
19.1555
19.7205
19.7205
20.3133
20.3133
20.9352
20.9352
21.5875
21.5875
22.2712
22.2712
22.9873
22.9873
23.7365
23.7365
24.5195
24.5195
25.3367
25.3367
26.1886
26.1886
27.0756
27.0756
27.9981
27.9981
28.9565
28.9565
29.9511
29.9511
30.9823
30.9823
32.0507
32.0507
33.1567
33.1567
34.3012
34.3012
35.4848
35.4848
36.7083
36.7083
37.9727
37.9727
39.2791
39.2791
40.6288
40.6288
42.0228
42.0228
43.4625
43.4625
44.9488
44.9488
46.4829
46.4829
48.0656
48.0656
49.698
49.698
51.3809
51.3809
53.1153
53.1153
54.9021
54.9021
56.7425
56.7425
58.6373
58.6373
60.5878
60.5878
62.5956
62.5956
64.6624
64.6624
66.7901
66.7901
68.9806
68.9806
71.2361
71.2361
73.5588
73.5588
75.9506
75.9506
78.4138
78.4138
80.9503
80.9503
83.5619
83.5619
86.2504
86.2504
89.017
89.017
91.8633
91.8633
94.7902
94.7902
97.7988
97.7988
100.89
100.89
104.065
104.065
107.324
107.324
110.668
110.668
114.098
114.098
117.614
117.614
121.218
121.218
124.911
124.911
128.693
128.693
132.565
132.565
136.53
136.53
140.587
140.587
144.738
144.738
148.984
148.984
153.326
153.326
157.767
157.767
162.306
162.306
166.946
166.946
171.687
171.687
176.531
176.531
181.48
181.48
186.534
186.534
191.694
191.694
196.961
196.961
202.338
202.338
207.825
207.825
213.423
213.423
219.133
219.133
224.956
224.956
230.894
230.894
236.948
236.948
243.116
243.116
249.401
249.401
255.802
255.802
262.321
262.321
268.957
268.957
275.71
275.71
282.58
282.58
289.567
289.567
296.669
296.669
303.887
303.887
311.218
311.218
318.66
318.66
326.214
326.214
333.877
333.877
341.649
341.649
349.525
349.525
357.504
357.504
365.581
365.581
373.755
373.755
382.02
382.02
390.374
390.374
398.813
398.813
407.331
407.331
415.923
415.923
424.587
424.587
433.318
433.318
442.111
442.111
450.961
450.961
459.864
459.864
468.814
468.814
477.806
477.806
486.834
486.834
495.894
495.894
504.981
504.981
514.092
514.092
523.225
523.225
532.38
532.38
541.565
541.565
550.79
550.79
560.065
560.065
569.402
569.402
578.817
578.817
588.336
588.336
597.993
597.993
607.831
607.831
617.903
617.903
628.273
628.273
639.014
639.014
650.211
650.211
661.955
661.955
674.343
674.343
687.477
687.477
701.46
701.46
716.388
716.388
732.352
732.352
749.43
749.43
767.685
767.685
787.162
787.162
807.877
807.877
829.821
829.821
852.96
852.96
877.236
877.236
902.57
902.57
928.859
928.859
955.984
955.984
983.814
983.814
1012.21
1012.21
1041.03
1041.03
1070.13
1070.13
1099.37
1099.37
1128.62
1128.62
1157.75
1157.75
1186.64
1186.64
1215.19
1215.19
1243.33
1243.33
1270.96
1270.96
1298.04
1298.04
1324.51
1324.51
1350.36
1350.36
1375.6
1375.6
1400.22
1400.22
1424.24
1424.24
1447.71
1447.71
1470.68
1470.68
1493.21
1493.21
1515.39
1515.39
1537.31
1537.31
1559.09
1559.09
1580.84
1580.84
1602.7
1602.7
1624.82
1624.82
1647.38
1647.38
1670.55
1670.55
1694.54
1694.54
1719.58
1719.58
1745.9
1745.9
1773.78
1773.78
1803.54
1803.54
1835.52
1835.52
1870.12
1870.12
1907.8
1907.8
1949.09
1949.09
1994.61
1994.61
2045.11
2045.11
2101.49
2101.49
2164.85
2164.85
2236.55
2236.55
2318.32
2318.32
2412.37
2412.37
2521.56
2521.56
2649.74
2649.74
2802.14
2802.14
2986.06
2986.06
3212.07
3212.07
3495.91
3495.91
3862.1
3862.1
4350.57
4350.57
5029.99
5029.99
6025.56
6025.56
7578.79
7578.79
10174.7
10174.7
14804.1
14804.1
23599.4
23599.4
42125.1
42125.1
89785.1
89785.1
265150
265150
1.52416e+06
1.52416e+06
1.95157
1.95156
1.95626
1.95626
1.96535
1.96535
1.97879
1.97879
1.99639
1.99639
2.0174
2.0174
2.04188
2.04188
2.07025
2.07025
2.10246
2.10246
2.13826
2.13827
2.17732
2.17732
2.21861
2.21862
2.26038
2.26039
2.30165
2.30165
2.34333
2.34334
2.38726
2.38726
2.4348
2.4348
2.48599
2.486
2.54048
2.54049
2.5977
2.59771
2.65659
2.65659
2.71588
2.71589
2.77483
2.77484
2.83392
2.83392
2.89479
2.8948
2.9591
2.9591
3.02742
3.02743
3.0995
3.0995
3.17531
3.17531
3.25507
3.25507
3.33713
3.33713
3.41746
3.41746
3.49172
3.49172
3.55718
3.55719
3.61248
3.61249
3.65721
3.65721
3.6926
3.6926
3.72107
3.72107
3.74536
3.74536
3.76776
3.76776
3.78961
3.78961
3.81188
3.81188
3.83573
3.83573
3.86263
3.86263
3.89408
3.89408
3.93126
3.93126
3.97495
3.97495
4.0253
4.02531
4.08197
4.08197
4.14421
4.14421
4.2112
4.2112
4.28238
4.28239
4.35774
4.35774
4.43753
4.43753
4.52238
4.52238
4.61346
4.61346
4.71206
4.71206
4.81906
4.81907
4.93456
4.93456
5.0579
5.05791
5.18836
5.18837
5.32558
5.32558
5.46998
5.46998
5.62226
5.62226
5.78274
5.78274
5.95108
5.95108
6.12604
6.12604
6.30522
6.30523
6.48554
6.48554
6.66425
6.66425
6.83992
6.83992
7.013
7.013
7.18538
7.18538
7.35976
7.35976
7.539
7.539
7.72538
7.72538
7.92033
7.92033
8.12466
8.12466
8.33861
8.33862
8.56195
8.56195
8.79397
8.79397
9.03359
9.03359
9.27942
9.27942
9.53017
9.53017
9.78476
9.78476
10.0424
10.0424
10.303
10.303
10.5664
10.5664
10.8326
10.8326
11.1022
11.1022
11.3761
11.3761
11.6553
11.6553
11.9404
11.9404
12.232
12.232
12.5297
12.5297
12.8327
12.8327
13.1407
13.1407
13.4536
13.4536
13.7718
13.7718
14.0964
14.0964
14.4292
14.4292
14.7723
14.7723
15.1275
15.1275
15.4969
15.4969
15.8823
15.8823
16.2853
16.2853
16.7076
16.7076
17.1508
17.1508
17.616
17.616
18.1044
18.1044
18.6172
18.6172
19.1555
19.1555
19.7204
19.7204
20.3133
20.3133
20.9352
20.9352
21.5875
21.5875
22.2712
22.2712
22.9873
22.9873
23.7365
23.7365
24.5195
24.5195
25.3367
25.3367
26.1886
26.1886
27.0756
27.0755
27.9981
27.9981
28.9565
28.9565
29.9511
29.9511
30.9823
30.9823
32.0507
32.0507
33.1567
33.1567
34.3012
34.3012
35.4848
35.4848
36.7083
36.7083
37.9727
37.9727
39.2791
39.2791
40.6288
40.6288
42.0228
42.0228
43.4625
43.4625
44.9488
44.9488
46.4828
46.4829
48.0656
48.0656
49.698
49.698
51.3809
51.3809
53.1153
53.1153
54.9021
54.9021
56.7425
56.7425
58.6373
58.6373
60.5878
60.5878
62.5956
62.5956
64.6624
64.6624
66.7901
66.7901
68.9806
68.9806
71.2361
71.2361
73.5588
73.5588
75.9506
75.9506
78.4138
78.4138
80.9503
80.9503
83.5619
83.5619
86.2504
86.2504
89.0171
89.0171
91.8633
91.8633
94.7902
94.7902
97.7988
97.7988
100.89
100.89
104.065
104.065
107.324
107.324
110.668
110.668
114.098
114.098
117.614
117.614
121.218
121.218
124.911
124.911
128.693
128.693
132.565
132.565
136.53
136.53
140.587
140.587
144.738
144.738
148.984
148.984
153.327
153.327
157.767
157.767
162.306
162.306
166.946
166.946
171.687
171.687
176.531
176.531
181.48
181.48
186.534
186.534
191.694
191.694
196.962
196.962
202.338
202.338
207.825
207.825
213.423
213.423
219.133
219.133
224.956
224.956
230.895
230.895
236.948
236.948
243.116
243.116
249.401
249.401
255.803
255.803
262.321
262.321
268.957
268.957
275.71
275.71
282.58
282.58
289.567
289.567
296.669
296.669
303.887
303.887
311.218
311.218
318.66
318.66
326.214
326.214
333.877
333.877
341.649
341.649
349.525
349.525
357.504
357.504
365.581
365.581
373.755
373.755
382.02
382.02
390.374
390.374
398.813
398.813
407.331
407.331
415.923
415.923
424.587
424.587
433.318
433.318
442.112
442.112
450.961
450.961
459.864
459.864
468.814
468.814
477.806
477.806
486.834
486.834
495.894
495.894
504.982
504.982
514.093
514.093
523.225
523.225
532.38
532.381
541.565
541.565
550.79
550.79
560.066
560.066
569.402
569.402
578.817
578.817
588.336
588.336
597.994
597.994
607.831
607.831
617.903
617.903
628.274
628.274
639.015
639.015
650.211
650.211
661.955
661.955
674.343
674.343
687.477
687.477
701.46
701.46
716.388
716.388
732.352
732.352
749.43
749.43
767.685
767.685
787.163
787.163
807.877
807.877
829.821
829.821
852.96
852.96
877.237
877.237
902.57
902.57
928.859
928.859
955.985
955.985
983.815
983.815
1012.21
1012.21
1041.03
1041.03
1070.13
1070.13
1099.37
1099.37
1128.62
1128.62
1157.75
1157.75
1186.64
1186.64
1215.19
1215.19
1243.33
1243.33
1270.96
1270.96
1298.04
1298.04
1324.51
1324.51
1350.36
1350.36
1375.6
1375.6
1400.22
1400.22
1424.24
1424.24
1447.71
1447.71
1470.68
1470.68
1493.21
1493.21
1515.39
1515.39
1537.31
1537.31
1559.09
1559.09
1580.84
1580.84
1602.7
1602.7
1624.82
1624.82
1647.38
1647.38
1670.55
1670.55
1694.54
1694.54
1719.58
1719.58
1745.9
1745.9
1773.78
1773.78
1803.54
1803.54
1835.52
1835.52
1870.12
1870.12
1907.8
1907.8
1949.09
1949.09
1994.61
1994.61
2045.11
2045.11
2101.49
2101.49
2164.85
2164.85
2236.55
2236.55
2318.32
2318.32
2412.37
2412.37
2521.56
2521.56
2649.74
2649.74
2802.14
2802.14
2986.06
2986.06
3212.07
3212.07
3495.91
3495.91
3862.1
3862.1
4350.57
4350.57
5029.99
5029.99
6025.56
6025.56
7578.79
7578.79
10174.7
10174.7
14804.1
14804.1
23599.4
23599.4
42125.1
42125.1
89785.1
89785.1
265150
265150
1.52416e+06
1.52416e+06
)
;

boundaryField
{
    walls
    {
        blending        binomial2;
        n               2;
        beta1           0.075;
        type            omegaWallFunction;
        value           nonuniform List<scalar> 8(1.52415e+06 1.52415e+06 1.52415e+06 1.52415e+06 1.52416e+06 1.52416e+06 1.52416e+06 1.52416e+06);
    }
    inlet
    {
        type            cyclic;
    }
    outlet
    {
        type            cyclic;
    }
    sides
    {
        type            empty;
    }
}


// ************************************************************************* //
