/*--------------------------------*- C++ -*----------------------------------*\
| =========                 |                                                 |
| \\      /  F ield         | OpenFOAM: The Open Source CFD Toolbox           |
|  \\    /   O peration     | Version:  2012                                  |
|   \\  /    A nd           | Website:  www.openfoam.com                      |
|    \\/     M anipulation  |                                                 |
\*---------------------------------------------------------------------------*/
FoamFile
{
    version     2.0;
    format      ascii;
    class       surfaceScalarField;
    location    "16000";
    object      phi;
}
// * * * * * * * * * * * * * * * * * * * * * * * * * * * * * * * * * * * * * //

dimensions      [0 3 -1 0 0 0 0];
oriented        oriented;


internalField   nonuniform List<scalar> 
5116
(
2.74786e-07
4.16697e-12
4.71773e-13
-8.72402e-14
3.16173e-13
8.38921e-07
3.09001e-12
7.36069e-13
-2.2228e-13
4.93415e-13
1.42612e-06
1.91267e-12
7.61455e-13
-3.6358e-13
5.10511e-13
2.03704e-06
7.57955e-13
7.61729e-13
-4.99991e-13
5.10726e-13
2.67232e-06
-2.81966e-13
6.9877e-13
-6.20668e-13
4.68516e-13
3.33259e-06
-1.1322e-12
5.62991e-13
-7.26234e-13
3.77476e-13
4.01845e-06
-1.7552e-12
4.10846e-13
-8.01099e-13
2.75465e-13
4.73058e-06
-2.1964e-12
2.93435e-13
-8.52465e-13
1.96743e-13
5.46972e-06
-2.52025e-12
2.16248e-13
-8.89242e-13
1.44991e-13
6.23675e-06
-2.77206e-12
1.67065e-13
-9.19493e-13
1.12015e-13
7.03268e-06
-2.97329e-12
1.34958e-13
-9.42223e-13
9.04873e-14
7.85869e-06
-3.14273e-12
1.13147e-13
-9.62613e-13
7.58634e-14
8.7161e-06
-3.28751e-12
9.77317e-14
-9.78743e-13
6.55282e-14
9.60642e-06
-3.41611e-12
8.64557e-14
-9.94344e-13
5.7968e-14
1.05313e-05
-3.53086e-12
7.79681e-14
-1.00689e-12
5.22773e-14
1.14926e-05
-3.63631e-12
7.14297e-14
-1.01973e-12
4.78937e-14
1.24923e-05
-3.73322e-12
6.62992e-14
-1.03019e-12
4.4454e-14
1.35326e-05
-3.82436e-12
6.2215e-14
-1.0413e-12
4.17158e-14
1.46159e-05
-3.91004e-12
5.89285e-14
-1.05038e-12
3.95125e-14
1.57447e-05
-3.99183e-12
5.62638e-14
-1.06032e-12
3.77261e-14
1.69216e-05
-4.07003e-12
5.4094e-14
-1.06849e-12
3.62715e-14
1.81496e-05
-4.14556e-12
5.23251e-14
-1.07765e-12
3.50858e-14
1.94317e-05
-4.2189e-12
5.08868e-14
-1.08516e-12
3.41217e-14
2.07708e-05
-4.29022e-12
4.97254e-14
-1.09374e-12
3.33433e-14
2.21703e-05
-4.36029e-12
4.87993e-14
-1.10082e-12
3.27228e-14
2.36335e-05
-4.42885e-12
4.80764e-14
-1.10901e-12
3.22384e-14
2.51636e-05
-4.49702e-12
4.7531e-14
-1.11576e-12
3.18731e-14
2.67641e-05
-4.56394e-12
4.71433e-14
-1.12367e-12
3.16135e-14
2.84384e-05
-4.63107e-12
4.68969e-14
-1.13023e-12
3.14488e-14
3.01898e-05
-4.69721e-12
4.67793e-14
-1.13797e-12
3.13704e-14
3.20216e-05
-4.76426e-12
4.67803e-14
-1.14442e-12
3.13715e-14
3.39369e-05
-4.83038e-12
4.68921e-14
-1.15206e-12
3.14469e-14
3.59388e-05
-4.89789e-12
4.71083e-14
-1.15847e-12
3.15924e-14
3.803e-05
-4.96462e-12
4.74243e-14
-1.16608e-12
3.18049e-14
4.02132e-05
-5.03334e-12
4.78366e-14
-1.17251e-12
3.20819e-14
4.24906e-05
-5.10131e-12
4.83429e-14
-1.18016e-12
3.2422e-14
4.48641e-05
-5.17171e-12
4.89416e-14
-1.18664e-12
3.28241e-14
4.73352e-05
-5.24147e-12
4.96324e-14
-1.19439e-12
3.32879e-14
4.99051e-05
-5.31426e-12
5.04153e-14
-1.20103e-12
3.38136e-14
5.25743e-05
-5.38644e-12
5.12912e-14
-1.20896e-12
3.44017e-14
5.53431e-05
-5.46206e-12
5.22617e-14
-1.21577e-12
3.50532e-14
5.82107e-05
-5.53722e-12
5.33289e-14
-1.22394e-12
3.57695e-14
6.11762e-05
-5.61644e-12
5.44953e-14
-1.23104e-12
3.65526e-14
6.42376e-05
-5.69525e-12
5.57644e-14
-1.23951e-12
3.74044e-14
6.73924e-05
-5.77857e-12
5.71398e-14
-1.24696e-12
3.83276e-14
7.06373e-05
-5.86165e-12
5.86257e-14
-1.25566e-12
3.93249e-14
7.39681e-05
-5.94994e-12
6.02268e-14
-1.26362e-12
4.03995e-14
7.73797e-05
-6.03802e-12
6.19483e-14
-1.2728e-12
4.15548e-14
8.08662e-05
-6.13188e-12
6.37952e-14
-1.28098e-12
4.27945e-14
8.44207e-05
-6.22588e-12
6.57736e-14
-1.29116e-12
4.41222e-14
8.80353e-05
-6.32621e-12
6.78891e-14
-1.29976e-12
4.55421e-14
9.17012e-05
-6.42694e-12
7.01476e-14
-1.31081e-12
4.70581e-14
9.54088e-05
-6.53488e-12
7.25564e-14
-1.32064e-12
4.86744e-14
9.91471e-05
-6.64278e-12
7.51207e-14
-1.33125e-12
5.03949e-14
0.000102905
-6.75956e-12
7.78453e-14
-1.34337e-12
5.22231e-14
0.000106669
-6.8757e-12
8.07345e-14
-1.35423e-12
5.41624e-14
0.000110426
-7.00189e-12
8.37931e-14
-1.36651e-12
5.62153e-14
0.000114162
-7.1278e-12
8.7025e-14
-1.37907e-12
5.83838e-14
0.000117864
-7.2642e-12
9.04299e-14
-1.39223e-12
6.06685e-14
0.000121514
-7.40119e-12
9.4007e-14
-1.40609e-12
6.30688e-14
0.000125099
-7.54892e-12
9.77533e-14
-1.42019e-12
6.55828e-14
0.000128603
-7.69795e-12
1.01663e-13
-1.43628e-12
6.82064e-14
0.000132011
-7.85843e-12
1.05727e-13
-1.45146e-12
7.09343e-14
0.000135307
-8.01979e-12
1.09937e-13
-1.46813e-12
7.37583e-14
0.000138478
-8.19445e-12
1.14277e-13
-1.48704e-12
7.66693e-14
0.00014151
-8.36859e-12
1.18727e-13
-1.50375e-12
7.96564e-14
0.00014439
-8.55772e-12
1.23272e-13
-1.52441e-12
8.2707e-14
0.000147107
-8.74576e-12
1.27895e-13
-1.54221e-12
8.5809e-14
0.000149652
-8.94908e-12
1.32575e-13
-1.56466e-12
8.89492e-14
0.000152018
-9.15226e-12
1.37297e-13
-1.58443e-12
9.21173e-14
0.000154198
-9.36921e-12
1.42046e-13
-1.60713e-12
9.5303e-14
0.000156189
-9.58838e-12
1.46813e-13
-1.63101e-12
9.85005e-14
0.00015799
-9.81903e-12
1.51592e-13
-1.65388e-12
1.01707e-13
0.0001596
-1.00542e-11
1.56386e-13
-1.68069e-12
1.04924e-13
0.000161025
-1.02989e-11
1.61202e-13
-1.70482e-12
1.08155e-13
0.000162268
-1.05499e-11
1.66054e-13
-1.73424e-12
1.11409e-13
0.000163336
-1.08092e-11
1.70957e-13
-1.76007e-12
1.14699e-13
0.000164237
-1.1076e-11
1.75932e-13
-1.7916e-12
1.18037e-13
0.000164982
-1.13508e-11
1.81003e-13
-1.81929e-12
1.21441e-13
0.000165582
-1.16333e-11
1.86198e-13
-1.85311e-12
1.24926e-13
0.000166047
-1.19249e-11
1.91542e-13
-1.88358e-12
1.28511e-13
0.000166389
-1.22233e-11
1.97063e-13
-1.91826e-12
1.32214e-13
0.000166621
-1.2533e-11
2.02785e-13
-1.95251e-12
1.36052e-13
0.000166754
-1.28483e-11
2.08734e-13
-1.98812e-12
1.40042e-13
0.000166798
-1.3177e-11
2.14932e-13
-2.02517e-12
1.44201e-13
0.000166765
-1.35112e-11
2.21404e-13
-2.06288e-12
1.48543e-13
0.000166663
-1.38602e-11
2.28174e-13
-2.10266e-12
1.53085e-13
0.000166502
-1.42149e-11
2.35261e-13
-2.14257e-12
1.57839e-13
0.000166288
-1.45863e-11
2.42687e-13
-2.18556e-12
1.6282e-13
0.00016603
-1.49635e-11
2.50473e-13
-2.22772e-12
1.68042e-13
0.000165732
-1.53594e-11
2.58635e-13
-2.27418e-12
1.73518e-13
0.000165399
-1.57614e-11
2.67195e-13
-2.31883e-12
1.7926e-13
0.000165037
-1.61838e-11
2.76173e-13
-2.369e-12
1.85283e-13
0.000164649
-1.66135e-11
2.85586e-13
-2.41635e-12
1.916e-13
0.000164238
-1.70647e-11
2.9546e-13
-2.46962e-12
1.98224e-13
0.000163806
-1.7526e-11
3.05819e-13
-2.52197e-12
2.0517e-13
0.000163357
-1.80082e-11
3.16678e-13
-2.57791e-12
2.12453e-13
0.000162893
-1.85042e-11
3.28057e-13
-2.63552e-12
2.20088e-13
0.000162414
-1.90219e-11
3.39984e-13
-2.69541e-12
2.28091e-13
0.000161924
-1.95548e-11
3.52491e-13
-2.75729e-12
2.36478e-13
0.000161422
-2.01122e-11
3.65599e-13
-2.823e-12
2.45268e-13
0.000160912
-2.06855e-11
3.7933e-13
-2.88907e-12
2.5448e-13
0.000160393
-2.12861e-11
3.93716e-13
-2.96006e-12
2.64132e-13
0.000159867
-2.19046e-11
4.08795e-13
-3.03185e-12
2.74243e-13
0.000159335
-2.25522e-11
4.24587e-13
-3.1083e-12
2.84836e-13
0.000158798
-2.32204e-11
4.4113e-13
-3.18619e-12
2.95933e-13
0.000158257
-2.392e-11
4.58462e-13
-3.26896e-12
3.07557e-13
0.000157713
-2.46421e-11
4.76619e-13
-3.35292e-12
3.19733e-13
0.000157167
-2.5399e-11
4.95632e-13
-3.44263e-12
3.32486e-13
0.000156618
-2.61806e-11
5.15545e-13
-3.53362e-12
3.45843e-13
0.000156069
-2.6999e-11
5.36407e-13
-3.62983e-12
3.59832e-13
0.000155519
-2.78469e-11
5.58261e-13
-3.72946e-12
3.74483e-13
0.00015497
-2.87325e-11
5.81144e-13
-3.83251e-12
3.89829e-13
0.00015442
-2.96527e-11
6.05103e-13
-3.94128e-12
4.05898e-13
0.000153872
-3.06125e-11
6.30204e-13
-4.05247e-12
4.22732e-13
0.000153325
-3.16108e-11
6.56498e-13
-4.17016e-12
4.40358e-13
0.000152779
-3.26528e-11
6.84035e-13
-4.2912e-12
4.58823e-13
0.000152236
-3.37357e-11
7.1288e-13
-4.41762e-12
4.78159e-13
0.000151694
-3.48681e-11
7.4309e-13
-4.54988e-12
4.98416e-13
0.000151155
-3.60429e-11
7.74744e-13
-4.68504e-12
5.19629e-13
0.000150618
-3.72745e-11
8.07895e-13
-4.82958e-12
5.41855e-13
0.000150083
-3.855e-11
8.42632e-13
-4.97429e-12
5.65132e-13
0.000149552
-3.98894e-11
8.79013e-13
-5.13131e-12
5.89523e-13
0.000149022
-4.12767e-11
9.17134e-13
-5.28765e-12
6.15071e-13
0.000148496
-4.27329e-11
9.57065e-13
-5.45669e-12
6.41852e-13
0.000147973
-4.42447e-11
9.98941e-13
-5.62741e-12
6.69894e-13
0.000147452
-4.58288e-11
1.0428e-12
-5.80894e-12
6.99307e-13
0.000146935
-4.74776e-11
1.0888e-12
-5.99549e-12
7.30102e-13
0.000146421
-4.9203e-11
1.13697e-12
-6.19152e-12
7.6242e-13
0.000145911
-5.10016e-11
1.18753e-12
-6.39445e-12
7.96248e-13
0.000145405
-5.28833e-11
1.24047e-12
-6.607e-12
8.31779e-13
0.000144905
-5.48469e-11
1.29607e-12
-6.82793e-12
8.6895e-13
0.000144409
-5.69002e-11
1.35427e-12
-7.05847e-12
9.08039e-13
0.00014392
-5.90456e-11
1.41546e-12
-7.29915e-12
9.48896e-13
0.000143438
-6.12881e-11
1.47947e-12
-7.54919e-12
9.91931e-13
0.000142963
-6.36343e-11
1.54685e-12
-7.81185e-12
1.03685e-12
0.000142497
-6.60843e-11
1.61727e-12
-8.08301e-12
1.08427e-12
0.00014204
-6.86522e-11
1.69154e-12
-8.37029e-12
1.13366e-12
0.000141593
-7.13294e-11
1.76901e-12
-8.66413e-12
1.18597e-12
0.000141156
-7.41416e-11
1.85096e-12
-8.9787e-12
1.24027e-12
0.000140731
-7.7067e-11
1.93621e-12
-9.29708e-12
1.29805e-12
0.000140319
-8.01489e-11
2.02673e-12
-9.64221e-12
1.35772e-12
0.00013992
-8.33453e-11
2.12051e-12
-9.98649e-12
1.42166e-12
0.000139536
-8.67255e-11
2.22067e-12
-1.03663e-11
1.48716e-12
0.000139169
-9.02165e-11
2.32376e-12
-1.0738e-11
1.55809e-12
0.000138818
-9.39279e-11
2.4348e-12
-1.11576e-11
1.62988e-12
0.000138487
-9.77407e-11
2.54798e-12
-1.15585e-11
1.70881e-12
0.000138176
-1.01821e-10
2.67143e-12
-1.20229e-11
1.78724e-12
0.000137888
-1.05985e-10
2.79541e-12
-1.24556e-11
1.87546e-12
0.000137623
-1.10477e-10
2.93317e-12
-1.29708e-11
1.96074e-12
0.000137385
-1.15022e-10
3.06842e-12
-1.34369e-11
2.05995e-12
0.000137174
-1.19978e-10
3.22295e-12
-1.40099e-11
2.15192e-12
0.000136993
-1.24931e-10
3.36956e-12
-1.45107e-11
2.26449e-12
0.000136844
-1.3041e-10
3.54417e-12
-1.5149e-11
2.36237e-12
0.000136729
-1.35797e-10
3.70141e-12
-1.56857e-11
2.49167e-12
0.00013665
-1.41871e-10
3.90084e-12
-1.63962e-11
2.59355e-12
0.000136609
-1.47708e-10
4.06652e-12
-1.69706e-11
2.74462e-12
0.000136607
-1.54459e-10
4.29755e-12
-1.77597e-11
2.84667e-12
0.000136645
-1.60759e-10
4.46705e-12
-1.83747e-11
3.02729e-12
0.000136724
-1.68295e-10
4.74019e-12
-1.92483e-11
3.12228e-12
0.000136842
-1.7505e-10
4.90441e-12
-1.99105e-11
3.34493e-12
0.000136999
-1.83512e-10
5.23629e-12
-2.08702e-11
3.41977e-12
0.000137191
-1.90689e-10
5.3786e-12
-2.15936e-11
3.70475e-12
0.000137416
-2.00268e-10
5.79609e-12
-2.263e-11
3.73644e-12
0.000137669
-2.07792e-10
5.88693e-12
-2.34467e-11
4.11738e-12
0.000137945
-2.18747e-10
6.43458e-12
-2.45282e-11
4.06572e-12
0.000138241
-2.26458e-10
6.42186e-12
-2.55008e-11
4.59928e-12
0.000138551
-2.39142e-10
7.17438e-12
-2.65498e-11
4.3945e-12
0.000138873
-2.46758e-10
6.96743e-12
-2.78052e-11
5.17658e-12
0.000139203
-2.61677e-10
8.05135e-12
-2.86621e-11
4.69783e-12
0.000139544
-2.68704e-10
7.49198e-12
-3.04381e-11
5.89259e-12
0.000139895
-2.86603e-10
9.12393e-12
-3.07957e-11
4.92979e-12
0.00014026
-2.92351e-10
7.93649e-12
-3.35412e-11
6.81966e-12
0.000140646
-3.14358e-10
1.04894e-11
-3.28299e-11
5.00727e-12
0.000141056
-3.17548e-10
8.19224e-12
-3.7359e-11
8.08133e-12
0.000141498
-3.45417e-10
1.23132e-11
-3.45344e-11
4.78034e-12
0.000141975
-3.4391e-10
8.06208e-12
-4.23044e-11
9.89091e-12
0.000142494
-3.80501e-10
1.4881e-11
-3.54726e-11
3.98038e-12
0.000143057
-3.70853e-10
7.19013e-12
-4.91038e-11
1.26216e-11
0.000143666
-4.21285e-10
1.86923e-11
-3.48513e-11
2.12575e-12
0.000144324
-3.97758e-10
4.93492e-12
-5.90352e-11
1.69331e-11
0.000145029
-4.73761e-10
2.46312e-11
-3.12101e-11
-1.64838e-12
0.000145779
-4.27e-10
1.40134e-13
-7.43525e-11
2.40014e-11
0.000146573
-5.41659e-10
3.42772e-11
-2.17969e-11
-8.90093e-12
0.000147404
-4.74045e-10
-9.28508e-12
-9.87416e-11
3.59381e-11
0.00014827
-5.65252e-10
3.77822e-11
-3.98428e-11
-9.77522e-12
0.000149169
-4.58942e-10
-2.61898e-11
-1.73486e-10
5.56153e-11
0.000150097
-4.22635e-10
-3.23205e-12
-2.42606e-10
3.41513e-11
0.000151055
-2.38335e-10
-5.15688e-11
-4.58359e-10
8.40529e-11
0.000152043
-4.02567e-11
-5.59923e-11
-6.91884e-10
9.01228e-11
0.000153069
1.64064e-11
-8.22763e-12
-7.84035e-10
4.4091e-11
0.000154139
1.55666e-10
-3.60974e-11
-9.64541e-10
7.3772e-11
0.000155258
5.88648e-11
4.33643e-11
-9.09642e-10
-3.78303e-12
0.000156433
1.62801e-10
-1.79815e-11
-1.04225e-09
5.95528e-11
0.000157667
1.99382e-12
5.40225e-11
-9.64456e-10
-1.0349e-11
0.000158962
8.402e-11
-3.73804e-12
-1.06092e-09
4.95812e-11
0.000160325
-4.05085e-11
4.60403e-11
-1.0167e-09
2.09696e-12
0.000161754
9.05396e-12
7.05544e-12
-1.08847e-09
4.3453e-11
0.00016325
-9.04071e-11
4.13281e-11
-1.06825e-09
1.16732e-11
0.000164809
-6.6111e-11
1.54421e-11
-1.12375e-09
4.01359e-11
0.000166418
-1.48692e-10
3.89989e-11
-1.12074e-09
1.92733e-11
0.000168064
-1.44052e-10
2.21783e-11
-1.16609e-09
3.88758e-11
0.000169728
-2.157e-10
3.84068e-11
-1.17551e-09
2.55412e-11
0.000171387
-2.26467e-10
2.78073e-11
-1.2151e-09
3.91231e-11
0.00017302
-2.91524e-10
3.90811e-11
-1.2337e-09
3.09376e-11
0.000174603
-3.14537e-10
3.27144e-11
-1.27061e-09
4.04804e-11
0.00017612
-3.7618e-10
4.06822e-11
-1.2962e-09
3.57888e-11
0.00017756
-4.0914e-10
3.71707e-11
-1.33261e-09
4.26633e-11
0.000178923
-4.69694e-10
4.2967e-11
-1.36379e-09
4.03256e-11
0.000180217
-5.10976e-10
4.13679e-11
-1.4012e-09
4.54697e-11
0.000181448
-5.72136e-10
4.57628e-11
-1.43708e-09
4.47113e-11
0.000182622
-6.20619e-10
4.54393e-11
-1.47654e-09
4.8757e-11
0.000183734
-6.83619e-10
4.89482e-11
-1.51665e-09
4.90615e-11
0.000184779
-7.38555e-10
4.94759e-11
-1.55888e-09
5.24275e-11
0.000185745
-8.04308e-10
5.24417e-11
-1.60296e-09
5.34507e-11
0.000186618
-8.65222e-10
5.35441e-11
-1.64849e-09
5.64204e-11
0.000187386
-9.34415e-10
5.61966e-11
-1.69647e-09
5.79437e-11
0.000188037
-1.00105e-09
5.77047e-11
-1.74567e-09
6.07107e-11
0.000188556
-1.07425e-09
6.0201e-11
-1.79764e-09
6.26058e-11
0.000188933
-1.14651e-09
6.20169e-11
-1.85085e-09
6.53101e-11
0.000189169
-1.22423e-09
6.44805e-11
-1.90698e-09
6.75141e-11
0.00018928
-1.30221e-09
6.65621e-11
-1.96452e-09
7.02665e-11
0.0001893
-1.38496e-09
6.90874e-11
-2.02509e-09
7.27588e-11
0.00018927
-1.46888e-09
7.14198e-11
-2.08733e-09
7.56438e-11
0.000189234
-1.55721e-09
7.40711e-11
-2.1527e-09
7.84195e-11
0.000189225
-1.64741e-09
7.66439e-11
-2.22004e-09
8.1489e-11
0.000189256
-1.74183e-09
7.94542e-11
-2.29059e-09
8.45405e-11
0.000189317
-1.83872e-09
8.22534e-11
-2.36346e-09
8.78202e-11
0.00018937
-1.93975e-09
8.52407e-11
-2.43962e-09
9.11424e-11
0.000189374
-2.04375e-09
8.82641e-11
-2.51843e-09
9.46594e-11
0.0001893
-2.15194e-09
9.14568e-11
-2.60066e-09
9.8269e-11
0.000189148
-2.26354e-09
9.47268e-11
-2.68587e-09
1.02068e-10
0.00018894
-2.37949e-09
9.81672e-11
-2.77472e-09
1.06004e-10
0.000188704
-2.49929e-09
1.01716e-10
-2.86688e-09
1.10135e-10
0.000188468
-2.62369e-09
1.05442e-10
-2.96294e-09
1.14438e-10
0.000188255
-2.75237e-09
1.09292e-10
-3.06267e-09
1.18936e-10
0.000188099
-2.88596e-09
1.13321e-10
-3.16659e-09
1.23631e-10
0.000188045
-3.02424e-09
1.1747e-10
-3.27453e-09
1.28508e-10
0.00018815
-3.16773e-09
1.21789e-10
-3.38695e-09
1.33585e-10
0.000188463
-3.31626e-09
1.26195e-10
-3.50372e-09
1.38808e-10
0.000188995
-3.47023e-09
1.30743e-10
-3.62521e-09
1.44214e-10
0.000189719
-3.62951e-09
1.35321e-10
-3.7513e-09
1.49704e-10
0.000190559
-3.7944e-09
1.40022e-10
-3.88229e-09
1.55363e-10
0.000191407
-3.96474e-09
1.44699e-10
-4.01808e-09
1.61055e-10
0.000192147
-4.14083e-09
1.49517e-10
-4.15893e-09
1.66939e-10
0.000192672
-4.32253e-09
1.54279e-10
-4.30475e-09
1.72828e-10
0.00019288
-4.51017e-09
1.59265e-10
-4.45587e-09
1.79004e-10
0.000192681
-4.70368e-09
1.64198e-10
-4.6122e-09
1.85204e-10
0.000192058
-4.90354e-09
1.6953e-10
-4.77424e-09
1.91883e-10
0.000191105
-5.10974e-09
1.7483e-10
-4.94194e-09
1.98629e-10
0.000190016
-5.32302e-09
1.80753e-10
-5.11601e-09
2.06104e-10
0.000189022
-5.54331e-09
1.86557e-10
-5.29632e-09
2.13575e-10
0.000188334
-5.77147e-09
1.93149e-10
-5.48375e-09
2.21957e-10
0.000188142
-6.00715e-09
1.99313e-10
-5.67791e-09
2.30036e-10
0.000188582
-6.2513e-09
2.06397e-10
-5.87979e-09
2.39154e-10
0.000189635
-6.50305e-09
2.12543e-10
-6.08855e-09
2.47456e-10
0.000191071
-6.76358e-09
2.19874e-10
-6.30542e-09
2.57063e-10
0.000192553
-7.03144e-09
2.25659e-10
-6.52901e-09
2.65247e-10
0.00019382
-7.30831e-09
2.33199e-10
-6.76111e-09
2.75324e-10
0.000194866
-7.59202e-09
2.38418e-10
-6.99961e-09
2.83215e-10
0.00019592
-7.88514e-09
2.46308e-10
-7.24716e-09
2.93927e-10
0.000197308
-8.18436e-09
2.50705e-10
-7.50054e-09
3.01296e-10
0.000199298
-8.49349e-09
2.59043e-10
-7.76367e-09
3.12761e-10
0.00020206
-8.80744e-09
2.62138e-10
-8.03161e-09
3.19153e-10
0.000205697
-9.13193e-09
2.71079e-10
-8.31022e-09
3.31565e-10
0.00021017
-9.45955e-09
2.72408e-10
-8.59222e-09
3.36585e-10
0.000215295
-9.79891e-09
2.82496e-10
-8.8864e-09
3.50614e-10
0.000220858
-1.01394e-08
2.81665e-10
-9.18228e-09
3.54024e-10
0.000226686
-1.04937e-08
2.93743e-10
-9.49282e-09
3.70683e-10
0.000232629
-1.08464e-08
2.90078e-10
-9.80279e-09
3.71985e-10
0.000238501
-1.12161e-08
3.05095e-10
-1.0131e-08
3.92391e-10
0.000244069
-1.15804e-08
2.9743e-10
-1.04553e-08
3.90559e-10
0.000249106
-1.19659e-08
3.16525e-10
-1.08027e-08
4.15959e-10
0.000253435
-1.23405e-08
3.0315e-10
-1.11413e-08
4.09371e-10
0.000256948
-1.27421e-08
3.27923e-10
-1.15094e-08
4.41465e-10
0.000259644
-1.31252e-08
3.06708e-10
-1.18619e-08
4.28106e-10
0.000261531
-1.35435e-08
3.39633e-10
-1.2253e-08
4.69514e-10
0.000262548
-1.3933e-08
3.07961e-10
-1.26191e-08
4.47007e-10
0.00026274
-1.43698e-08
3.5264e-10
-1.30368e-08
5.01649e-10
0.00026231
-1.47643e-08
3.07004e-10
-1.34171e-08
4.66832e-10
0.000261423
-1.52229e-08
3.68383e-10
-1.3867e-08
5.4007e-10
0.000260022
-1.56205e-08
3.03599e-10
-1.42621e-08
4.8822e-10
0.000257823
-1.61062e-08
3.88435e-10
-1.47523e-08
5.874e-10
0.000254597
-1.65051e-08
2.97182e-10
-1.51635e-08
5.11874e-10
0.000250428
-1.7026e-08
4.15424e-10
-1.57057e-08
6.47851e-10
0.000245684
-1.74239e-08
2.87061e-10
-1.6135e-08
5.39033e-10
0.00024082
-1.79925e-08
4.53119e-10
-1.67468e-08
7.27492e-10
0.000236135
-1.83854e-08
2.71e-10
-1.7196e-08
5.69926e-10
0.000231946
-1.90182e-08
5.05276e-10
-1.79007e-08
8.32702e-10
0.000228983
-1.93973e-08
2.43964e-10
-1.8369e-08
6.02001e-10
0.000228182
-2.01136e-08
5.74887e-10
-1.91958e-08
9.68862e-10
0.000230027
-2.04606e-08
1.97369e-10
-1.96763e-08
6.28657e-10
0.000234082
-2.12805e-08
6.63664e-10
-2.06593e-08
1.14023e-09
0.000239082
-2.15652e-08
1.19934e-10
-2.1138e-08
6.41827e-10
0.000243454
-2.25133e-08
7.7647e-10
-2.23222e-08
1.35699e-09
0.000246004
-2.26916e-08
-1.58134e-12
-2.27777e-08
6.33592e-10
0.000246485
-2.38016e-08
9.23215e-10
-2.42251e-08
1.63566e-09
0.000245498
-2.38118e-08
-1.83921e-10
-2.4625e-08
5.91982e-10
0.000243933
-2.5134e-08
1.12088e-09
-2.64238e-08
2.00191e-09
0.000242639
-2.48893e-08
-4.51409e-10
-2.67187e-08
4.9932e-10
0.000242238
-2.64965e-08
1.39282e-09
-2.89953e-08
2.49326e-09
0.000242963
-2.58723e-08
-8.39555e-10
-2.91096e-08
3.27035e-10
0.00024462
-2.7861e-08
1.76481e-09
-3.20399e-08
3.15674e-09
0.000247031
-2.66813e-08
-1.3952e-09
-3.18598e-08
3.26622e-11
0.000250755
-2.91752e-08
2.26782e-09
-3.56898e-08
4.05924e-09
0.000256669
-2.71981e-08
-2.17724e-09
-3.50468e-08
-4.46002e-10
0.000264775
-3.03517e-08
2.93787e-09
-4.01364e-08
5.30893e-09
0.000274303
-2.72446e-08
-3.26482e-09
-3.87754e-08
-1.20676e-09
0.000284018
-3.12449e-08
3.81426e-09
-4.56964e-08
7.11049e-09
0.00029259
-2.65602e-08
-4.75125e-09
-4.32018e-08
-2.43146e-09
0.00029942
-3.15772e-08
4.89426e-09
-5.28765e-08
9.80109e-09
0.000304952
-2.48075e-08
-6.66291e-09
-4.85173e-08
-4.46882e-09
0.00030993
-3.08367e-08
6.02638e-09
-6.24609e-08
1.3949e-08
0.00031409
-2.16302e-08
-8.80031e-09
-5.48456e-08
-8.02202e-09
0.000316767
-2.80459e-08
6.6439e-09
-7.58004e-08
2.07224e-08
0.0003184
-1.68554e-08
-1.03267e-08
-6.20114e-08
-1.46519e-08
0.00032087
-2.11904e-08
5.05577e-09
-7.45889e-08
1.186e-08
0.0003257
-9.68184e-09
-1.00722e-08
-5.01748e-08
-2.5847e-08
0.000332118
-8.7998e-09
5.22777e-10
-4.06915e-08
-1.08826e-08
0.000338278
-6.83818e-09
-7.93406e-11
-4.24631e-08
-1.0449e-10
2.74786e-07
5.29111e-13
2.34996e-13
8.38921e-07
1.35745e-12
6.0507e-13
1.42612e-06
2.21351e-12
9.85863e-13
2.03704e-06
3.07714e-12
1.36774e-12
2.67232e-06
3.87829e-12
1.72639e-12
3.33259e-06
4.50903e-12
2.00764e-12
4.01845e-06
4.96283e-12
2.2143e-12
4.73058e-06
5.29892e-12
2.36375e-12
5.46972e-06
5.54936e-12
2.47573e-12
6.23675e-06
5.73679e-12
2.56003e-12
7.03268e-06
5.89222e-12
2.63049e-12
7.85869e-06
6.0203e-12
2.68786e-12
8.7161e-06
6.13312e-12
2.73951e-12
9.60641e-06
6.23152e-12
2.78357e-12
1.05313e-05
6.32202e-12
2.82533e-12
1.14926e-05
6.40373e-12
2.86199e-12
1.24923e-05
6.48112e-12
2.89795e-12
1.35326e-05
6.55263e-12
2.93013e-12
1.46159e-05
6.62185e-12
2.96245e-12
1.57447e-05
6.68685e-12
2.99182e-12
1.69216e-05
6.75076e-12
3.0218e-12
1.81496e-05
6.81151e-12
3.04935e-12
1.94317e-05
6.87194e-12
3.07777e-12
2.07708e-05
6.92996e-12
3.10417e-12
2.21703e-05
6.9882e-12
3.13164e-12
2.36334e-05
7.04454e-12
3.15736e-12
2.51636e-05
7.1015e-12
3.18424e-12
2.67641e-05
7.15701e-12
3.20964e-12
2.84384e-05
7.21343e-12
3.23629e-12
3.01898e-05
7.26872e-12
3.26166e-12
3.20215e-05
7.32516e-12
3.28827e-12
3.39369e-05
7.38078e-12
3.31384e-12
3.59388e-05
7.43778e-12
3.3407e-12
3.803e-05
7.49421e-12
3.36667e-12
4.02132e-05
7.5522e-12
3.39392e-12
4.24906e-05
7.60987e-12
3.42048e-12
4.48641e-05
7.66935e-12
3.44838e-12
4.73352e-05
7.72869e-12
3.47572e-12
4.99051e-05
7.78999e-12
3.50437e-12
5.25743e-05
7.85141e-12
3.53265e-12
5.53431e-05
7.91506e-12
3.56231e-12
5.82107e-05
7.97898e-12
3.59172e-12
6.11762e-05
8.04534e-12
3.62251e-12
6.42376e-05
8.11223e-12
3.65324e-12
6.73924e-05
8.18185e-12
3.68541e-12
7.06373e-05
8.25222e-12
3.71769e-12
7.39681e-05
8.32547e-12
3.75137e-12
7.73797e-05
8.39986e-12
3.78544e-12
8.08662e-05
8.47742e-12
3.82094e-12
8.44207e-05
8.55628e-12
3.85691e-12
8.80353e-05
8.6387e-12
3.89451e-12
9.17012e-05
8.72272e-12
3.93268e-12
9.54088e-05
8.81042e-12
3.97231e-12
9.91471e-05
8.90077e-12
4.01356e-12
0.000102905
8.99415e-12
4.05541e-12
0.000106669
9.0915e-12
4.09986e-12
0.000110426
9.1918e-12
4.14457e-12
0.000114162
9.29646e-12
4.19222e-12
0.000117864
9.40468e-12
4.24053e-12
0.000121514
9.5172e-12
4.29137e-12
0.000125099
9.63409e-12
4.34351e-12
0.000128603
9.75535e-12
4.39812e-12
0.000132011
9.88115e-12
4.454e-12
0.000135307
1.00125e-11
4.51327e-12
0.000138478
1.01474e-11
4.57275e-12
0.00014151
1.02897e-11
4.63735e-12
0.00014439
1.04345e-11
4.70099e-12
0.000147107
1.05877e-11
4.77062e-12
0.000149652
1.07435e-11
4.83942e-12
0.000152018
1.09071e-11
4.91328e-12
0.000154198
1.10747e-11
4.98812e-12
0.000156189
1.1248e-11
5.06576e-12
0.00015799
1.14278e-11
5.1467e-12
0.000159601
1.1611e-11
5.2282e-12
0.000161025
1.18024e-11
5.31521e-12
0.000162268
1.19959e-11
5.40094e-12
0.000163336
1.2199e-11
5.49362e-12
0.000164237
1.24034e-11
5.58404e-12
0.000164982
1.26178e-11
5.68228e-12
0.000165582
1.28341e-11
5.7784e-12
0.000166047
1.306e-11
5.88173e-12
0.00016639
1.32897e-11
5.98455e-12
0.000166621
1.35275e-11
6.09325e-12
0.000166754
1.37716e-11
6.20338e-12
0.000166798
1.40228e-11
6.31833e-12
0.000166765
1.42822e-11
6.43604e-12
0.000166663
1.45483e-11
6.55809e-12
0.000166502
1.48243e-11
6.68394e-12
0.000166289
1.51067e-11
6.81378e-12
0.00016603
1.5401e-11
6.94868e-12
0.000165732
1.57015e-11
7.08696e-12
0.000165399
1.60158e-11
7.23179e-12
0.000165037
1.63365e-11
7.37978e-12
0.000164649
1.66722e-11
7.53477e-12
0.000164238
1.70159e-11
7.69395e-12
0.000163807
1.73742e-11
7.85912e-12
0.000163358
1.77435e-11
8.03078e-12
0.000162893
1.81267e-11
8.20713e-12
0.000162414
1.85231e-11
8.39139e-12
0.000161924
1.89348e-11
8.58098e-12
0.000161422
1.93602e-11
8.77817e-12
0.000160912
1.98036e-11
8.98263e-12
0.000160393
2.02613e-11
9.19423e-12
0.000159867
2.07385e-11
9.41388e-12
0.000159335
2.12322e-11
9.64172e-12
0.000158798
2.17466e-11
9.87807e-12
0.000158257
2.22794e-11
1.01231e-11
0.000157713
2.28353e-11
1.03782e-11
0.000157167
2.34109e-11
1.06421e-11
0.000156619
2.40117e-11
1.09173e-11
0.000156069
2.46354e-11
1.12028e-11
0.000155519
2.52846e-11
1.14991e-11
0.00015497
2.59612e-11
1.18087e-11
0.00015442
2.66638e-11
1.21283e-11
0.000153872
2.73978e-11
1.24637e-11
0.000153325
2.816e-11
1.281e-11
0.00015278
2.89559e-11
1.3173e-11
0.000152236
2.97845e-11
1.35497e-11
0.000151694
3.06479e-11
1.39425e-11
0.000151155
3.15502e-11
1.43534e-11
0.000150618
3.24876e-11
1.4779e-11
0.000150084
3.34706e-11
1.52275e-11
0.000149552
3.44901e-11
1.569e-11
0.000149023
3.55606e-11
1.61784e-11
0.000148496
3.66719e-11
1.66831e-11
0.000147973
3.78367e-11
1.72136e-11
0.000147452
3.90494e-11
1.77648e-11
0.000146935
4.03176e-11
1.83411e-11
0.000146421
4.16409e-11
1.89426e-11
0.000145911
4.30238e-11
1.95701e-11
0.000145406
4.44678e-11
2.02258e-11
0.000144905
4.59766e-11
2.0909e-11
0.000144409
4.75536e-11
2.16244e-11
0.00014392
4.92008e-11
2.23684e-11
0.000143438
5.09241e-11
2.31489e-11
0.000142963
5.27233e-11
2.39591e-11
0.000142497
5.4608e-11
2.48119e-11
0.00014204
5.6574e-11
2.56942e-11
0.000141593
5.86369e-11
2.66278e-11
0.000141156
6.07864e-11
2.75894e-11
0.000140731
6.3046e-11
2.86143e-11
0.000140319
6.53969e-11
2.96627e-11
0.00013992
6.78746e-11
3.07909e-11
0.000139537
7.0447e-11
3.19341e-11
0.000139169
7.31658e-11
3.31806e-11
0.000138818
7.59809e-11
3.44263e-11
0.000138487
7.89675e-11
3.58067e-11
0.000138176
8.20491e-11
3.71626e-11
0.000137888
8.53313e-11
3.86951e-11
0.000137623
8.87064e-11
4.01678e-11
0.000137385
9.23168e-11
4.18752e-11
0.000137174
9.60142e-11
4.34688e-11
0.000136993
9.99895e-11
4.53826e-11
0.000136844
1.04042e-10
4.70989e-11
0.000136729
1.08423e-10
4.92576e-11
0.00013665
1.12867e-10
5.1095e-11
0.000136609
1.17698e-10
5.35541e-11
0.000136607
1.22577e-10
5.55045e-11
0.000136645
1.27907e-10
5.83312e-11
0.000136724
1.33268e-10
6.03696e-11
0.000136842
1.39146e-10
6.36595e-11
0.000136999
1.45047e-10
6.57365e-11
0.000137191
1.51523e-10
6.96179e-11
0.000137416
1.58038e-10
7.1644e-11
0.000137669
1.65146e-10
7.6298e-11
0.000137946
1.72379e-10
7.81253e-11
0.000138241
1.80133e-10
8.38281e-11
0.000138551
1.8824e-10
8.52268e-11
0.000138873
1.96596e-10
9.23908e-11
0.000139204
2.05825e-10
9.29909e-11
0.000139544
2.14637e-10
1.02251e-10
0.000139895
2.25391e-10
1.01459e-10
0.000140261
2.34313e-10
1.13665e-10
0.000140646
2.47271e-10
1.10523e-10
0.000141056
2.55604e-10
1.2713e-10
0.000141498
2.7193e-10
1.2007e-10
0.000141976
2.78341e-10
1.43415e-10
0.000142494
3.00062e-10
1.29784e-10
0.000143057
3.02074e-10
1.63536e-10
0.000143666
3.3275e-10
1.38435e-10
0.000144324
3.25825e-10
1.88577e-10
0.000145029
3.7177e-10
1.40531e-10
0.00014578
3.47671e-10
2.16664e-10
0.000146573
4.20219e-10
1.32888e-10
0.000147404
3.64291e-10
2.3292e-10
0.000148271
4.45263e-10
1.75839e-10
0.000149169
3.34813e-10
3.17927e-10
0.000150097
2.9005e-10
3.91839e-10
0.000151055
9.98913e-11
6.15664e-10
0.000152044
-1.06757e-10
8.55295e-10
0.00015307
-1.70678e-10
9.55644e-10
0.00015414
-3.21544e-10
1.14074e-09
0.000155259
-2.35516e-10
1.09218e-09
0.000156434
-3.35444e-10
1.24671e-09
0.000157667
-2.23352e-10
1.13912e-09
0.000158963
-2.83809e-10
1.27703e-09
0.000160326
-2.01805e-10
1.21116e-09
0.000161755
-2.33934e-10
1.32234e-09
0.000163251
-1.72144e-10
1.28751e-09
0.000164809
-1.8407e-10
1.37961e-09
0.000166419
-1.35381e-10
1.36815e-09
0.000168064
-1.32908e-10
1.44731e-09
0.000169728
-9.22551e-11
1.45377e-09
0.000171388
-7.94571e-11
1.52475e-09
0.00017302
-4.32837e-11
1.54527e-09
0.000174604
-2.29704e-11
1.61173e-09
0.000176121
1.11898e-11
1.64363e-09
0.000177561
3.71216e-11
1.70836e-09
0.000178924
7.09464e-11
1.74978e-09
0.000180218
1.01248e-10
1.81486e-09
0.00018145
1.35862e-10
1.86458e-09
0.000182623
1.69735e-10
1.9316e-09
0.000183736
2.05871e-10
1.98885e-09
0.000184781
2.42826e-10
2.05902e-09
0.000185747
2.80961e-10
2.12336e-09
0.000186621
3.20719e-10
2.19761e-09
0.000187389
3.61161e-10
2.26882e-09
0.00018804
4.03587e-10
2.34795e-09
0.000188559
4.46538e-10
2.42604e-09
0.000188936
4.91603e-10
2.51074e-09
0.000189172
5.37225e-10
2.59588e-09
0.000189284
5.84991e-10
2.68687e-09
0.000189304
6.33444e-10
2.77943e-09
0.000189274
6.84036e-10
2.87744e-09
0.000189238
7.35496e-10
2.97794e-09
0.000189229
7.89068e-10
3.08375e-09
0.00018926
8.43705e-10
3.19283e-09
0.000189322
9.0041e-10
3.3072e-09
0.000189375
9.58371e-10
3.42554e-09
0.000189379
1.01836e-09
3.5493e-09
0.000189305
1.07977e-09
3.67767e-09
0.000189153
1.14321e-09
3.81174e-09
0.000188946
1.20823e-09
3.95103e-09
0.00018871
1.27531e-09
4.09645e-09
0.000188473
1.34411e-09
4.24773e-09
0.00018826
1.41502e-09
4.40565e-09
0.000188104
1.48777e-09
4.57011e-09
0.000188051
1.56266e-09
4.74175e-09
0.000188156
1.63949e-09
4.92062e-09
0.000188468
1.71843e-09
5.1072e-09
0.000189001
1.79933e-09
5.30162e-09
0.000189725
1.88224e-09
5.50422e-09
0.000190565
1.96706e-09
5.7152e-09
0.000191413
2.05372e-09
5.93476e-09
0.000192154
2.14217e-09
6.16322e-09
0.00019268
2.23225e-09
6.40069e-09
0.000192888
2.32402e-09
6.64768e-09
0.00019269
2.41721e-09
6.90431e-09
0.000192067
2.51208e-09
7.17139e-09
0.000191115
2.60824e-09
7.4491e-09
0.000190026
2.70616e-09
7.73863e-09
0.000189032
2.80524e-09
8.04006e-09
0.000188343
2.90619e-09
8.35489e-09
0.000188151
3.00796e-09
8.68281e-09
0.00018859
3.11155e-09
9.02554e-09
0.000189642
3.2153e-09
9.38207e-09
0.000191078
3.32065e-09
9.75455e-09
0.000192559
3.42513e-09
1.01412e-08
0.000193826
3.53096e-09
1.05449e-08
0.00019487
3.63464e-09
1.09629e-08
0.000195923
3.73952e-09
1.13995e-08
0.00019731
3.8406e-09
1.18503e-08
0.000199299
3.94283e-09
1.23213e-08
0.000202058
4.0391e-09