/*--------------------------------*- C++ -*----------------------------------*\
| =========                 |                                                 |
| \\      /  F ield         | OpenFOAM: The Open Source CFD Toolbox           |
|  \\    /   O peration     | Version:  2012                                  |
|   \\  /    A nd           | Website:  www.openfoam.com                      |
|    \\/     M anipulation  |                                                 |
\*---------------------------------------------------------------------------*/
FoamFile
{
    version     2.0;
    format      ascii;
    class       volVectorField;
    location    "16000";
    object      U;
}
// * * * * * * * * * * * * * * * * * * * * * * * * * * * * * * * * * * * * * //

dimensions      [0 1 -1 0 0 0 0];


internalField   nonuniform List<vector> 
2560
(
(0.0379663 -1.66429e-09 3.25944e-08)
(0.0379663 6.15534e-09 3.84019e-08)
(0.11425 1.09977e-08 5.01787e-08)
(0.11425 1.82448e-08 5.91002e-08)
(0.191434 2.74314e-08 5.13803e-08)
(0.191434 2.93005e-08 6.04708e-08)
(0.269522 3.56961e-08 5.13194e-08)
(0.269522 3.44066e-08 6.02803e-08)
(0.348509 2.62802e-08 4.7782e-08)
(0.348509 2.57699e-08 5.58842e-08)
(0.428388 5.16454e-09 4.00619e-08)
(0.428388 5.22291e-09 4.64962e-08)
(0.509149 -1.0207e-08 3.14423e-08)
(0.509149 -9.90911e-09 3.60705e-08)
(0.590788 -1.26653e-08 2.50819e-08)
(0.590788 -1.21958e-08 2.83401e-08)
(0.673306 -1.05696e-08 2.14278e-08)
(0.673306 -9.96177e-09 2.37945e-08)
(0.756722 -7.30494e-09 1.98065e-08)
(0.756722 -6.60495e-09 2.16087e-08)
(0.841064 -5.56079e-09 1.95927e-08)
(0.841064 -4.77888e-09 2.10277e-08)
(0.926379 -4.12785e-09 2.0407e-08)
(0.926379 -3.28391e-09 1.78855e-08)
(1.01272 -2.9015e-09 2.20461e-08)
(1.01272 -2.00111e-09 1.52275e-08)
(1.10017 -2.33776e-09 1.98026e-08)
(1.10017 -1.39045e-09 1.32775e-08)
(1.18881 -1.68591e-09 1.76026e-08)
(1.18881 -6.95408e-10 1.42343e-08)
(1.27873 -1.54564e-09 1.58953e-08)
(1.27873 -5.16407e-10 1.56235e-08)
(1.37004 -9.98229e-10 1.71653e-08)
(1.37004 6.5919e-11 1.71652e-08)
(1.46286 -7.98895e-10 1.88676e-08)
(1.46286 2.99577e-10 1.88675e-08)
(1.55731 -9.12764e-10 2.07321e-08)
(1.55731 2.15851e-10 2.0732e-08)
(1.65354 -6.74891e-10 2.27635e-08)
(1.65354 4.84176e-10 2.27634e-08)
(1.75168 -2.925e-10 2.49762e-08)
(1.75168 8.93958e-10 2.49762e-08)
(1.85187 -4.75725e-10 2.73804e-08)
(1.85187 7.39089e-10 2.73803e-08)
(1.95426 -8.57025e-10 2.9975e-08)
(1.95426 3.83353e-10 2.99749e-08)
(2.059 -7.1746e-11 3.27762e-08)
(2.059 1.19445e-09 3.27761e-08)
(2.16624 -2.74364e-10 3.58046e-08)
(2.16624 1.01703e-09 3.58045e-08)
(2.2761 -4.82337e-10 3.90656e-08)
(2.2761 8.3373e-10 3.90655e-08)
(2.38873 -8.85687e-10 4.25623e-08)
(2.38873 4.55277e-10 4.25622e-08)
(2.50425 1.73233e-10 4.63202e-08)
(2.50425 1.53669e-09 4.63201e-08)
(2.62277 -5.31297e-10 5.03618e-08)
(2.62277 8.57445e-10 5.03617e-08)
(2.74439 -3.95823e-10 5.46942e-08)
(2.74439 1.01652e-09 5.4694e-08)
(2.86919 -1.05923e-09 5.93265e-08)
(2.86919 3.76722e-10 5.93264e-08)
(2.99722 1.75636e-10 6.42888e-08)
(2.99722 1.63504e-09 6.42887e-08)
(3.12853 -6.83752e-10 6.96097e-08)
(3.12853 7.99455e-10 6.96096e-08)
(3.26313 -7.19194e-10 7.5296e-08)
(3.26313 7.89561e-10 7.52959e-08)
(3.401 -9.01604e-10 8.13681e-08)
(3.401 6.29337e-10 8.1368e-08)
(3.5421 -7.04628e-11 8.78648e-08)
(3.5421 1.48657e-09 8.78647e-08)
(3.68636 -7.73278e-10 9.4818e-08)
(3.68636 8.07257e-10 9.48179e-08)
(3.83366 -9.82423e-10 1.02241e-07)
(3.83366 6.24797e-10 1.02241e-07)
(3.98386 -9.64543e-10 1.10162e-07)
(3.98386 6.66918e-10 1.10162e-07)
(4.13679 -3.8122e-10 1.18629e-07)
(4.13679 1.27738e-09 1.18629e-07)
(4.29224 -5.97761e-10 1.27689e-07)
(4.29224 1.08635e-09 1.27689e-07)
(4.44994 -1.25536e-09 1.37364e-07)
(4.44994 4.56734e-10 1.37364e-07)
(4.6096 -1.24924e-09 1.47686e-07)
(4.6096 4.9123e-10 1.47686e-07)
(4.77091 2.22635e-11 1.58728e-07)
(4.77091 1.78886e-09 1.58728e-07)
(4.93348 -1.91837e-09 1.70527e-07)
(4.93348 -1.19342e-10 1.70527e-07)
(5.0969 1.57183e-10 1.83142e-07)
(5.0969 1.9828e-09 1.83142e-07)
(5.26074 -2.9288e-09 1.96607e-07)
(5.26074 -1.06785e-09 1.96607e-07)
(5.4245 1.2586e-09 2.11009e-07)
(5.4245 3.14509e-09 2.11009e-07)
(5.58767 -1.24177e-09 2.26454e-07)
(5.58767 6.85979e-10 2.26454e-07)
(5.74967 -3.93454e-09 2.42894e-07)
(5.74967 -1.98346e-09 2.42894e-07)
(5.90991 -1.67764e-09 2.60383e-07)
(5.90991 3.19918e-10 2.60383e-07)
(6.06778 8.88102e-09 2.79307e-07)
(6.06778 1.0907e-08 2.79307e-07)
(6.22262 -1.84544e-08 2.99351e-07)
(6.22262 -1.63872e-08 2.99351e-07)
(6.37376 1.49053e-08 3.20725e-07)
(6.37376 1.70085e-08 3.20725e-07)
(6.52049 -1.09177e-08 3.43713e-07)
(6.52049 -8.77513e-09 3.43713e-07)
(6.66213 -6.53382e-10 3.68e-07)
(6.66213 1.54182e-09 3.68e-07)
(6.79795 4.99086e-09 3.94068e-07)
(6.79795 7.21369e-09 3.94068e-07)
(6.92724 -1.38974e-08 4.21658e-07)
(6.92724 -1.16128e-08 4.21658e-07)
(7.04932 8.5112e-09 4.50916e-07)
(7.04932 1.08263e-08 4.50915e-07)
(7.16351 -9.72226e-09 4.82017e-07)
(7.16351 -7.34211e-09 4.82017e-07)
(7.26915 4.46391e-09 5.14896e-07)
(7.26915 6.88366e-09 5.14896e-07)
(7.36566 -7.32361e-09 5.49653e-07)
(7.36566 -4.8437e-09 5.49653e-07)
(7.45246 -1.11962e-08 5.85854e-07)
(7.45246 -8.65934e-09 5.85853e-07)
(7.52906 1.26371e-08 6.24034e-07)
(7.52906 1.52217e-08 6.24034e-07)
(7.59506 -1.63252e-08 6.64042e-07)
(7.59506 -1.36732e-08 6.64042e-07)
(7.65009 -8.21725e-09 7.052e-07)
(7.65009 -5.49697e-09 7.052e-07)
(7.6939 8.11023e-09 7.4814e-07)
(7.6939 1.0883e-08 7.4814e-07)
(7.72635 -3.0956e-08 7.92111e-07)
(7.72635 -2.81031e-08 7.92111e-07)
(7.74738 3.05073e-08 8.37672e-07)
(7.74738 3.34184e-08 8.37672e-07)
(7.75705 -6.01096e-08 8.83869e-07)
(7.75705 -5.71105e-08 8.83869e-07)
(7.75552 4.60293e-08 9.31039e-07)
(7.75552 4.90808e-08 9.31039e-07)
(7.74307 -6.21135e-08 9.79109e-07)
(7.74307 -5.89565e-08 9.79108e-07)
(7.72008 3.34736e-08 1.02759e-06)
(7.72008 3.6689e-08 1.02759e-06)
(7.68702 -4.87751e-08 1.07695e-06)
(7.68702 -4.54643e-08 1.07695e-06)
(7.64447 1.93638e-08 1.12672e-06)
(7.64447 2.27608e-08 1.12672e-06)
(7.59306 -4.05493e-08 1.17729e-06)
(7.59306 -3.70782e-08 1.17729e-06)
(7.53348 1.25524e-09 1.2281e-06)
(7.53348 4.83856e-09 1.2281e-06)
(7.4665 -1.82543e-08 1.28008e-06)
(7.4665 -1.45964e-08 1.28008e-06)
(7.39287 -2.37455e-08 1.33249e-06)
(7.39287 -1.99714e-08 1.33249e-06)
(7.31339 3.97159e-09 1.38629e-06)
(7.31339 7.81931e-09 1.38629e-06)
(7.22882 -5.06169e-08 1.44072e-06)
(7.22882 -4.66351e-08 1.44072e-06)
(7.13991 2.26272e-08 1.49658e-06)
(7.13991 2.66743e-08 1.49658e-06)
(7.04739 -5.72087e-08 1.55386e-06)
(7.04739 -5.30127e-08 1.55386e-06)
(6.95191 1.06991e-08 1.61224e-06)
(6.95191 1.49726e-08 1.61224e-06)
(6.85409 -4.09728e-08 1.67252e-06)
(6.85409 -3.65598e-08 1.67252e-06)
(6.75451 3.18598e-09 1.73456e-06)
(6.75451 7.69637e-09 1.73456e-06)
(6.65364 -4.64225e-08 1.79829e-06)
(6.65364 -4.17715e-08 1.79829e-06)
(6.55193 6.11552e-09 1.86394e-06)
(6.55193 1.08683e-08 1.86394e-06)
(6.44974 -5.28168e-08 1.93139e-06)
(6.44974 -4.79086e-08 1.93139e-06)
(6.3474 3.93179e-09 2.00061e-06)
(6.3474 8.94548e-09 2.00061e-06)
(6.24519 -3.77474e-08 2.07236e-06)
(6.24519 -3.25764e-08 2.07236e-06)
(6.14334 -1.42978e-08 2.14595e-06)
(6.14334 -8.99353e-09 2.14595e-06)
(6.04203 -3.00645e-08 2.2218e-06)
(6.04203 -2.46198e-08 2.2218e-06)
(5.94142 -3.31536e-08 2.29915e-06)
(5.94142 -2.75366e-08 2.29915e-06)
(5.84164 3.03833e-09 2.37951e-06)
(5.84164 8.77736e-09 2.37951e-06)
(5.7428 -6.12745e-08 2.46175e-06)
(5.7428 -5.53413e-08 2.46175e-06)
(5.64497 -5.03976e-09 2.54547e-06)
(5.64497 1.03213e-09 2.54547e-06)
(5.54824 -2.98906e-08 2.63222e-06)
(5.54824 -2.36166e-08 2.63222e-06)
(5.45266 -4.12923e-08 2.72034e-06)
(5.45266 -3.48597e-08 2.72034e-06)
(5.35827 -3.17884e-09 2.81111e-06)
(5.35827 3.44157e-09 2.81111e-06)
(5.26512 -5.16561e-08 2.90414e-06)
(5.26512 -4.48413e-08 2.90414e-06)
(5.17324 -2.69351e-08 2.99824e-06)
(5.17324 -1.99099e-08 2.99824e-06)
(5.08265 -2.0123e-08 3.09498e-06)
(5.08265 -1.29086e-08 3.09498e-06)
(4.99337 -3.98855e-08 3.19377e-06)
(4.99337 -3.24439e-08 3.19377e-06)
(4.90543 -3.08609e-08 3.29406e-06)
(4.90543 -2.3197e-08 3.29406e-06)
(4.81883 -2.41398e-08 3.39666e-06)
(4.81883 -1.62502e-08 3.39666e-06)
(4.73359 -4.64745e-08 3.50077e-06)
(4.73359 -3.8332e-08 3.50077e-06)
(4.64971 -2.01956e-08 3.60657e-06)
(4.64971 -1.18186e-08 3.60657e-06)
(4.56718 -3.72171e-08 3.71457e-06)
(4.56718 -2.85622e-08 3.71457e-06)
(4.48602 -4.96941e-08 3.82314e-06)
(4.48602 -4.07719e-08 3.82314e-06)
(4.40622 -6.47001e-09 3.93389e-06)
(4.40622 2.71979e-09 3.93389e-06)
(4.32776 -5.88276e-08 4.04636e-06)
(4.32776 -4.93251e-08 4.04636e-06)
(4.25066 -2.72059e-08 4.15927e-06)
(4.25066 -1.74057e-08 4.15927e-06)
(4.17488 -2.78095e-08 4.27439e-06)
(4.17488 -1.76898e-08 4.27439e-06)
(4.10043 -6.29482e-08 4.38956e-06)
(4.10043 -5.24858e-08 4.38956e-06)
(4.0273 5.97903e-09 4.50668e-06)
(4.0273 1.67507e-08 4.50668e-06)
(3.95545 -8.72509e-08 4.6243e-06)
(3.95545 -7.60542e-08 4.6243e-06)
(3.88489 1.91982e-08 4.74307e-06)
(3.88489 3.06814e-08 4.74307e-06)
(3.81559 -1.06505e-07 4.86179e-06)
(3.81559 -9.45168e-08 4.86179e-06)
(3.74753 3.38932e-08 4.98115e-06)
(3.74753 4.61508e-08 4.98115e-06)
(3.68069 -9.75856e-08 5.10177e-06)
(3.68069 -8.47501e-08 5.10178e-06)
(3.61507 4.30075e-09 5.22153e-06)
(3.61507 1.74235e-08 5.22153e-06)
(3.55063 -5.92467e-08 5.3429e-06)
(3.55063 -4.55058e-08 5.3429e-06)
(3.48735 -4.35598e-08 5.46255e-06)
(3.48735 -2.94957e-08 5.46255e-06)
(3.42523 -1.48603e-08 5.5833e-06)
(3.42523 -1.08245e-10 5.5833e-06)
(3.36423 -6.91476e-08 5.70337e-06)
(3.36423 -5.41087e-08 5.70337e-06)
(3.30435 -1.68877e-08 5.82238e-06)
(3.30435 -9.87504e-10 5.82238e-06)
(3.24557 -4.36826e-08 5.94204e-06)
(3.24557 -2.76152e-08 5.94204e-06)
(3.18786 -5.11227e-08 6.05977e-06)
(3.18786 -3.39328e-08 6.05978e-06)
(3.13123 -2.80467e-08 6.17648e-06)
(3.13123 -1.09018e-08 6.17648e-06)
(3.07565 -4.30342e-08 6.29265e-06)
(3.07565 -2.43992e-08 6.29265e-06)
(3.02113 -3.69393e-08 6.40746e-06)
(3.02113 -1.86585e-08 6.40746e-06)
(2.96765 -5.40875e-08 6.5199e-06)
(2.96765 -3.3806e-08 6.5199e-06)
(2.91521 -2.71795e-08 6.63046e-06)
(2.91521 -7.758e-09 6.63046e-06)
(2.8638 -4.77679e-08 6.73951e-06)
(2.8638 -2.55738e-08 6.73951e-06)
(2.81341 -3.60007e-08 6.84614e-06)
(2.81341 -1.54614e-08 6.84614e-06)
(2.76404 -5.01181e-08 6.94998e-06)
(2.76404 -2.56618e-08 6.94998e-06)
(2.71569 -3.33829e-08 7.05098e-06)
(2.71569 -1.18455e-08 7.05097e-06)
(2.66834 -5.52026e-08 7.14854e-06)
(2.66834 -2.7993e-08 7.14855e-06)
(2.62199 -2.8199e-08 7.24281e-06)
(2.62199 -5.9083e-09 7.24279e-06)
(2.57663 -5.39113e-08 7.33372e-06)
(2.57663 -2.32716e-08 7.33374e-06)
(2.53226 -3.05149e-08 7.42084e-06)
(2.53226 -7.91596e-09 7.42082e-06)
(2.48887 -5.35718e-08 7.50401e-06)
(2.48887 -1.85317e-08 7.50404e-06)
(2.44647 -3.75908e-08 7.58232e-06)
(2.44647 -1.54642e-08 7.58228e-06)
(2.40505 -4.8121e-08 7.65603e-06)
(2.40505 -7.24177e-09 7.65609e-06)
(2.36461 -2.82002e-08 7.7258e-06)
(2.36461 -7.87278e-09 7.72574e-06)
(2.32516 -7.42947e-08 7.78899e-06)
(2.32516 -2.54163e-08 7.78907e-06)
(2.28669 5.5183e-09 7.84847e-06)
(2.28669 2.18782e-08 7.84837e-06)
(2.24921 -1.06887e-07 7.90106e-06)
(2.24921 -4.67619e-08 7.9012e-06)
(2.21272 3.33124e-08 7.94906e-06)
(2.21272 4.22329e-08 7.9489e-06)
(2.17723 -1.4434e-07 7.98879e-06)
(2.17723 -6.80084e-08 7.989e-06)
(2.14273 7.50114e-08 8.02386e-06)
(2.14273 7.09125e-08 8.0236e-06)
(2.10924 -1.98444e-07 8.04893e-06)
(2.10924 -9.82373e-08 8.04928e-06)
(2.07674 1.40721e-07 8.07007e-06)
(2.07674 1.1469e-07 8.06964e-06)
(2.04526 -2.86964e-07 8.07838e-06)
(2.04526 -1.50936e-07 8.07893e-06)
(2.01478 2.46181e-07 8.08402e-06)
(2.01478 1.8395e-07 8.08333e-06)
(1.9853 -4.18346e-07 8.07362e-06)
(1.9853 -2.27733e-07 8.07452e-06)
(1.95682 3.88989e-07 8.06125e-06)
(1.95682 2.67869e-07 8.06013e-06)
(1.92931 -5.7852e-07 8.03048e-06)
(1.92931 -3.03933e-07 8.03193e-06)
(1.90275 5.68736e-07 7.99945e-06)
(1.90275 3.52652e-07 7.99762e-06)
(1.87711 -8.13628e-07 7.94332e-06)
(1.87711 -4.08559e-07 7.94568e-06)
(1.85232 8.71416e-07 7.89422e-06)
(1.85232 5.02679e-07 7.89123e-06)
(1.82834 -1.21097e-06 7.80874e-06)
(1.82834 -6.01478e-07 7.8126e-06)
(1.80509 1.35457e-06 7.73998e-06)
(1.80509 7.409e-07 7.73507e-06)
(1.78249 -1.80724e-06 7.62117e-06)
(1.78249 -8.75424e-07 7.62748e-06)
(1.76047 2.09164e-06 7.53597e-06)
(1.76047 1.08501e-06 7.5279e-06)
(1.73895 -2.77441e-06 7.37242e-06)
(1.73895 -1.33134e-06 7.38281e-06)
(1.71788 3.3052e-06 7.2729e-06)
(1.71788 1.6674e-06 7.25959e-06)
(1.69719 -4.25791e-06 7.06135e-06)
(1.69719 -1.99984e-06 7.07851e-06)
(1.67685 5.10067e-06 6.95402e-06)
(1.67685 2.44727e-06 6.93198e-06)
(1.65685 -6.50286e-06 6.67675e-06)
(1.65685 -2.93927e-06 6.7052e-06)
(1.63721 7.87597e-06 6.57377e-06)
(1.63721 3.58402e-06 6.53714e-06)
(1.61796 -9.92378e-06 6.21557e-06)
(1.61796 -4.25909e-06 6.26292e-06)
(1.59916 1.20523e-05 6.1345e-06)
(1.59916 5.10858e-06 6.07337e-06)
(1.58084 -1.5069e-05 5.66624e-06)
(1.58084 -6.0071e-06 5.7454e-06)
(1.56306 1.84177e-05 5.64616e-06)
(1.56306 7.16643e-06 5.54371e-06)
(1.54585 -2.29831e-05 5.02171e-06)
(1.54586 -8.40211e-06 5.15464e-06)
(1.52926 2.82204e-05 5.1175e-06)
(1.52926 9.94336e-06 4.94501e-06)
(1.5133 -3.51636e-05 4.26531e-06)
(1.5133 -1.15725e-05 4.4896e-06)
(1.49796 4.3351e-05 4.57045e-06)
(1.49796 1.35633e-05 4.27863e-06)
(1.48325 -5.40727e-05 3.36467e-06)
(1.48325 -1.56971e-05 3.74508e-06)
(1.46913 6.69788e-05 4.03505e-06)
(1.46913 1.82416e-05 3.53876e-06)
(1.45557 -8.36816e-05 2.27703e-06)
(1.45557 -2.09161e-05 2.92567e-06)
(1.44252 0.000104013 3.55883e-06)
(1.44252 2.39201e-05 2.71024e-06)
(1.42991 -0.000130125 1.15784e-06)
(1.42991 -2.69198e-05 2.03559e-06)
(1.4177 0.000156389 2.97082e-06)
(1.4177 3.0013e-05 1.7717e-06)
(1.40584 -0.000191002 6.44478e-07)
(1.40584 -3.2841e-05 1.08017e-06)
(1.39432 0.000206194 1.54924e-06)
(1.39432 3.52933e-05 6.97475e-07)
(1.3831 -0.000231215 8.36189e-08)
(1.3831 -3.73111e-05 1.53923e-06)
(1.3722 0.000234379 0)
(1.3722 3.81789e-05 1.62673e-06)
(1.36166 -0.000217332 1.44076e-06)
(1.36166 -3.89441e-05 7.84443e-07)
(1.35153 0.00020884 6.3585e-07)
(1.35153 3.78991e-05 1.2937e-06)
(1.34183 -0.000179243 3.33055e-06)
(1.34183 -3.733e-05 1.92553e-06)
(1.33261 0.000156348 1.34769e-06)
(1.33261 3.48907e-05 2.43e-06)
(1.32386 -0.000129668 4.63619e-06)
(1.32386 -3.33874e-05 3.41183e-06)
(1.31561 0.000107786 2.90034e-06)
(1.31561 3.02627e-05 3.90107e-06)
(1.30787 -8.9281e-05 5.80916e-06)
(1.30787 -2.83807e-05 4.99394e-06)
(1.30062 7.41357e-05 4.85314e-06)
(1.30062 2.50572e-05 5.51663e-06)
(1.29383 -6.13485e-05 7.21375e-06)
(1.29383 -2.32368e-05 6.67596e-06)
(1.28747 5.09088e-05 6.83593e-06)
(1.28747 2.00719e-05 7.27177e-06)
(1.2814 -4.21809e-05 8.8158e-06)
(1.2814 -1.8609e-05 8.46446e-06)
(1.27553 3.49873e-05 8.87625e-06)
(1.27553 1.57389e-05 9.15979e-06)
(1.26969 -2.90457e-05 1.06094e-05)
(1.26969 -1.46583e-05 1.03823e-05)
(1.26373 2.40251e-05 1.09965e-05)
(1.26373 1.2067e-05 1.11792e-05)
(1.25748 -2.00117e-05 1.25791e-05)
(1.25748 -1.13657e-05 1.24338e-05)
(1.25081 1.65149e-05 1.32184e-05)
(1.25081 9.09832e-06 1.33349e-05)
(1.24359 -1.38535e-05 1.47026e-05)
(1.24359 -8.75782e-06 1.46106e-05)
(1.23578 1.1355e-05 1.55273e-05)
(1.23578 6.74121e-06 1.5601e-05)
(1.22743 -9.62236e-06 1.69531e-05)
(1.22743 -6.69841e-06 1.68955e-05)
(1.21858 7.72452e-06 1.79122e-05)
(1.21858 4.82634e-06 1.79584e-05)
(1.20932 -6.66173e-06 1.93122e-05)
(1.20932 -5.05176e-06 1.92766e-05)
(1.1997 5.18871e-06 2.03819e-05)
(1.1997 3.33375e-06 2.04107e-05)
(1.18971 -4.63712e-06 2.17681e-05)
(1.18971 -3.81288e-06 2.17463e-05)
(1.17933 3.45426e-06 2.2924e-05)
(1.17933 2.23108e-06 2.29419e-05)
(1.1685 -3.28594e-06 2.43001e-05)
(1.1685 -2.92533e-06 2.42869e-05)
(1.15717 2.19711e-06 2.55155e-05)
(1.15717 1.35658e-06 2.55265e-05)
(1.14527 -2.40821e-06 2.69015e-05)
(1.14527 -2.31632e-06 2.68936e-05)
(1.13278 1.34758e-06 2.81997e-05)
(1.13278 7.3955e-07 2.82066e-05)
(1.11963 -1.86598e-06 2.96379e-05)
(1.11963 -1.92504e-06 2.96334e-05)
(1.10579 8.13033e-07 3.10475e-05)
(1.10579 3.48087e-07 3.10518e-05)
(1.0913 -1.55758e-06 3.25738e-05)
(1.0913 -1.69783e-06 3.25712e-05)
(1.07629 3.88501e-07 3.41115e-05)
(1.07629 1.45619e-08 3.41142e-05)
(1.06097 -1.31685e-06 3.57768e-05)
(1.06097 -1.49715e-06 3.57754e-05)
(1.0456 6.09535e-08 3.7482e-05)
(1.0456 -2.52078e-07 3.74838e-05)
(1.03042 -1.0183e-06 3.93134e-05)
(1.03042 -1.21426e-06 3.93128e-05)
(1.0156 -2.3279e-07 4.11609e-05)
(1.0156 -5.02239e-07 4.11621e-05)
(1.00121 -7.85582e-07 4.30941e-05)
(1.00121 -9.82499e-07 4.30938e-05)
(0.987182 -4.99522e-07 4.50165e-05)
(0.987182 -7.35177e-07 4.50174e-05)
(0.973305 -8.67408e-07 4.69859e-05)
(0.973305 -1.05637e-06 4.69859e-05)
(0.959373 -6.00702e-07 4.90035e-05)
(0.959373 -8.07798e-07 4.90041e-05)
(0.945254 -1.10306e-06 5.10802e-05)
(0.945254 -1.27853e-06 5.10803e-05)
(0.930956 -6.01913e-07 5.32694e-05)
(0.930956 -7.83121e-07 5.327e-05)
(0.916607 -1.23e-06 5.55532e-05)
(0.916607 -1.38825e-06 5.55534e-05)
(0.902342 -7.05708e-07 5.79477e-05)
(0.902342 -8.62301e-07 5.79482e-05)
(0.888294 -1.21043e-06 6.04654e-05)
(0.888294 -1.34876e-06 6.04656e-05)
(0.874572 -8.86781e-07 6.30679e-05)
(0.874572 -1.01908e-06 6.30683e-05)
(0.861323 -1.24778e-06 6.57865e-05)
(0.861323 -1.36411e-06 6.57867e-05)
(0.848737 -1.15785e-06 6.85948e-05)
(0.848737 -1.26557e-06 6.85951e-05)
(0.83704 -1.17123e-06 7.15485e-05)
(0.83704 -1.26398e-06 7.15487e-05)
(0.826412 -1.26781e-06 7.45723e-05)
(0.826412 -1.35008e-06 7.45725e-05)
(0.81687 -1.20362e-06 7.7651e-05)
(0.81687 -1.27145e-06 7.76511e-05)
(0.808245 -1.3525e-06 8.07379e-05)
(0.808245 -1.40839e-06 8.07381e-05)
(0.800188 -1.4072e-06 8.38029e-05)
(0.800187 -1.44877e-06 8.3803e-05)
(0.792229 -1.58493e-06 8.68638e-05)
(0.792229 -1.61345e-06 8.68639e-05)
(0.783892 -1.53074e-06 8.99562e-05)
(0.783892 -1.54488e-06 8.99562e-05)
(0.77477 -1.69041e-06 9.30807e-05)
(0.77477 -1.69057e-06 9.30808e-05)
(0.76449 -1.74834e-06 9.62362e-05)
(0.76449 -1.73389e-06 9.62362e-05)
(0.752754 -1.88643e-06 9.94761e-05)
(0.752754 -1.8573e-06 9.94761e-05)
(0.739566 -1.9117e-06 0.000102854)
(0.739566 -1.86756e-06 0.000102854)
(0.72535 -2.09706e-06 0.000106413)
(0.72535 -2.0376e-06 0.000106413)
(0.710879 -1.86893e-06 0.000110204)
(0.710879 -1.79407e-06 0.000110204)
(0.697026 -2.27846e-06 0.000114151)
(0.697026 -2.1876e-06 0.000114151)
(0.684534 -2.05648e-06 0.000118238)
(0.684534 -1.9496e-06 0.000118238)
(0.674034 -2.43637e-06 0.000122435)
(0.674034 -2.31293e-06 0.000122435)
(0.665928 -2.09648e-06 0.000126676)
(0.665928 -1.95643e-06 0.000126676)
(0.660048 -2.59612e-06 0.00013084)
(0.660048 -2.43883e-06 0.000130839)
(0.655516 -2.27005e-06 0.000134861)
(0.655516 -2.09557e-06 0.00013486)
(0.651132 -2.93059e-06 0.000138697)
(0.651132 -2.73854e-06 0.000138696)
(0.646023 -2.75129e-06 0.00014239)
(0.646023 -2.54115e-06 0.000142389)
(0.640198 -3.23344e-06 0.000146068)
(0.640198 -3.00574e-06 0.000146067)
(0.634436 -3.35743e-06 0.000149765)
(0.634436 -3.11104e-06 0.000149764)
(0.629773 -3.13124e-06 0.000153662)
(0.629773 -2.86712e-06 0.000153661)
(0.62701 -3.78188e-06 0.000157575)
(0.62701 -3.49884e-06 0.000157574)
(0.626587 -3.25765e-06 0.000161577)
(0.626587 -2.95665e-06 0.000161576)
(0.628722 -3.62202e-06 0.000165618)
(0.628722 -3.30222e-06 0.000165616)
(0.633188 -3.30702e-06 0.0001695)
(0.633188 -2.96931e-06 0.000169499)
(0.639332 -3.80207e-06 0.000173146)
(0.639332 -3.44577e-06 0.000173145)
(0.646451 -3.4975e-06 0.000176531)
(0.646451 -3.1236e-06 0.00017653)
(0.654001 -4.3038e-06 0.000179626)
(0.654001 -3.91204e-06 0.000179624)
(0.661526 -4.12113e-06 0.000182549)
(0.661526 -3.71196e-06 0.000182547)
(0.668505 -4.87193e-06 0.000185488)
(0.668505 -4.44615e-06 0.000185486)
(0.674306 -4.32565e-06 0.000188588)
(0.674306 -3.88324e-06 0.000188586)
(0.678358 -4.97849e-06 0.00019179)
(0.678358 -4.52069e-06 0.000191788)
(0.680254 -4.37419e-06 0.000194966)
(0.680254 -3.9013e-06 0.000194964)
(0.679799 -5.47338e-06 0.00019796)
(0.679799 -4.98682e-06 0.000197957)
(0.677086 -4.65167e-06 0.000200892)
(0.677086 -4.1519e-06 0.00020089)
(0.672232 -5.95845e-06 0.000203786)
(0.672232 -5.44753e-06 0.000203783)
(0.665175 -4.87457e-06 0.000206803)
(0.665175 -4.35303e-06 0.000206801)
(0.65612 -6.44067e-06 0.00020996)
(0.65612 -5.91109e-06 0.000209958)
(0.645659 -5.04775e-06 0.000213425)
(0.645659 -4.51088e-06 0.000213422)
(0.634253 -6.76031e-06 0.00021716)
(0.634253 -6.21951e-06 0.000217157)
(0.621811 -4.88857e-06 0.000221213)
(0.621811 -4.34455e-06 0.00022121)
(0.607716 -7.48066e-06 0.00022533)
(0.607716 -6.93815e-06 0.000225327)
(0.591511 -4.87955e-06 0.000229873)
(0.591511 -4.33874e-06 0.00022987)
(0.573485 -8.08651e-06 0.000234732)
(0.573485 -7.55443e-06 0.000234729)
(0.554559 -4.81249e-06 0.000240194)
(0.554559 -4.28805e-06 0.000240191)
(0.535789 -8.8307e-06 0.000246014)
(0.535789 -8.32475e-06 0.000246011)
(0.517835 -4.81022e-06 0.000252467)
(0.517835 -4.31903e-06 0.000252464)
(0.501359 -9.67239e-06 0.000259209)
(0.501359 -9.21325e-06 0.000259206)
(0.487859 -4.72447e-06 0.000266439)
(0.487859 -4.2885e-06 0.000266437)
(0.479185 -1.08695e-05 0.000273513)
(0.479185 -1.04849e-05 0.00027351)
(0.476136 -4.35956e-06 0.000280786)
(0.476136 -4.0078e-06 0.000280784)
(0.477586 -1.20263e-05 0.00028744)
(0.477586 -1.17544e-05 0.000287438)
(0.480795 -4.17509e-06 0.000294035)
(0.480795 -3.94621e-06 0.000294035)
(0.482571 -1.40519e-05 0.000299972)
(0.482571 -1.39457e-05 0.00029997)
(0.480635 -3.43627e-06 0.000306606)
(0.480635 -3.38234e-06 0.000306607)
(0.474674 -1.51755e-05 0.000312903)
(0.474674 -1.53105e-05 0.000312901)
(0.465996 -2.11241e-06 0.000319665)
(0.465996 -2.30249e-06 0.00031967)
(0.45639 -1.70548e-05 0.000325261)
(0.45639 -1.75372e-05 0.00032526)
(0.447462 -3.06891e-07 0.000331095)
(0.447462 -8.305e-07 0.000331106)
(0.440319 -1.88816e-05 0.000334714)
(0.440319 -1.98609e-05 0.000334713)
(0.435308 9.91904e-07 0.000337409)
(0.435308 2.00283e-08 0.000337429)
(0.431996 -2.21782e-05 0.000336834)
(0.431996 -2.38669e-05 0.000336831)
(0.430001 1.99343e-06 0.000335926)
(0.430001 4.27025e-07 0.000335962)
(0.430226 -2.5487e-05 0.000332448)
(0.430226 -2.81912e-05 0.000332442)
(0.434062 4.15858e-06 0.000329978)
(0.434062 1.81209e-06 0.000330042)
(0.441353 -2.76585e-05 0.000325086)
(0.441353 -3.18217e-05 0.00032507)
(0.450681 7.14708e-06 0.000321116)
(0.450681 3.7781e-06 0.000321231)
(0.459955 -3.00152e-05 0.000313164)
(0.459955 -3.6289e-05 0.000313125)
(0.467045 9.08354e-06 0.000305282)
(0.467045 4.33772e-06 0.000305488)
(0.471098 -3.17651e-05 0.000292519)
(0.471098 -4.10845e-05 0.000292433)
(0.472926 1.04131e-05 0.000279549)
(0.472926 3.65808e-06 0.000279913)
(0.473756 -3.2095e-05 0.000261203)
(0.473756 -4.56022e-05 0.00026103)
(0.473234 1.14524e-05 0.000242663)
(0.473234 1.25251e-06 0.000243274)
(0.470427 -2.98737e-05 0.000218188)
(0.470427 -4.82254e-05 0.000217901)
(0.466076 9.81865e-06 0.000192445)
(0.466076 -7.87808e-06 0.000193355)
(0.462959 -2.4325e-05 0.000162054)
(0.462959 -4.49236e-05 0.000161795)
(0.463193 1.07354e-05 0.000129986)
(0.463193 -9.31671e-06 0.000130958)
(0.465551 -1.70756e-05 9.16775e-05)
(0.465551 -3.09701e-05 9.15486e-05)
(0.467389 1.20282e-05 4.83978e-05)
(0.467389 1.55836e-06 4.89849e-05)
(0.0379663 6.251e-09 -3.85235e-11)
(0.0379663 6.19876e-09 -9.8838e-09)
(0.11425 1.86555e-08 -3.90545e-10)
(0.11425 1.84663e-08 -1.52033e-08)
(0.191434 3.01586e-08 -1.32037e-09)
(0.191434 2.97421e-08 -1.55045e-08)
(0.269522 3.56436e-08 -3.04919e-09)
(0.269522 3.50522e-08 -1.52886e-08)
(0.348509 2.73791e-08 -5.33066e-09)
(0.348509 2.66137e-08 -1.38241e-08)
(0.428388 7.1916e-09 -7.30176e-09)
(0.428388 6.25458e-09 -1.09785e-08)
(0.509149 -7.69198e-09 -8.37224e-09)
(0.509149 -8.74998e-09 -8.37232e-09)
(0.590787 -9.78754e-09 -8.83394e-09)
(0.590787 -1.09434e-08 -8.83399e-09)
(0.673306 -7.44393e-09 -9.16477e-09)
(0.673306 -8.64035e-09 -9.16476e-09)
(0.756721 -3.97672e-09 -9.60012e-09)
(0.756722 -5.23366e-09 -9.60015e-09)
(0.841064 -2.07915e-09 -1.0204e-08)
(0.841064 -3.36645e-09 -1.02041e-08)
(0.926379 -5.16427e-10 -1.09748e-08)
(0.926379 -1.83778e-09 -1.09748e-08)
(1.01272 8.18855e-10 -1.19071e-08)
(1.01272 -5.2649e-10 -1.19071e-08)
(1.10017 1.4791e-09 -1.29949e-08)
(1.10017 1.09551e-10 -1.2995e-08)
(1.18881 2.21607e-09 -1.42343e-08)
(1.18881 8.27186e-10 -1.42343e-08)
(1.27873 2.43571e-09 -1.56235e-08)
(1.27873 1.02682e-09 -1.56235e-08)
(1.37004 3.05296e-09 -1.71652e-08)
(1.37004 1.62829e-09 -1.71652e-08)
(1.46286 3.32134e-09 -1.88675e-08)
(1.46286 1.87977e-09 -1.88675e-08)
(1.55731 3.26994e-09 -2.0732e-08)
(1.55731 1.81298e-09 -2.0732e-08)
(1.65354 3.56823e-09 -2.27634e-08)
(1.65354 2.09736e-09 -2.27634e-08)
(1.75168 4.00713e-09 -2.49761e-08)
(1.75168 2.52264e-09 -2.49762e-08)
(1.85187 3.88231e-09 -2.73802e-08)
(1.85187 2.38269e-09 -2.73803e-08)
(1.95426 3.55158e-09 -2.99749e-08)
(1.95426 2.04148e-09 -2.99749e-08)
(2.059 4.39131e-09 -3.27761e-08)
(2.059 2.86672e-09 -3.27761e-08)
(2.16624 4.24006e-09 -3.58044e-08)
(2.16624 2.70321e-09 -3.58045e-08)
(2.2761 4.08211e-09 -3.90655e-08)
(2.2761 2.53358e-09 -3.90655e-08)
(2.38873 3.72979e-09 -4.25622e-08)
(2.38873 2.16864e-09 -4.25622e-08)
(2.50425 4.83587e-09 -4.63201e-08)
(2.50425 3.26341e-09 -4.63201e-08)
(2.62277 4.18317e-09 -5.03616e-08)
(2.62277 2.59748e-09 -5.03616e-08)
(2.74439 4.36644e-09 -5.4694e-08)
(2.74439 2.76979e-09 -5.4694e-08)
(2.86919 3.75181e-09 -5.93264e-08)
(2.86919 2.14324e-09 -5.93264e-08)
(2.99722 5.03564e-09 -6.42886e-08)
(2.99722 3.41479e-09 -6.42886e-08)
(3.12853 4.2256e-09 -6.96095e-08)
(3.12853 2.5925e-09 -6.96096e-08)
(3.26313 4.24074e-09 -7.52958e-08)
(3.26313 2.59596e-09 -7.52958e-08)
(3.401 4.10635e-09 -8.13679e-08)
(3.401 2.4492e-09 -8.1368e-08)
(3.5421 4.98951e-09 -8.78647e-08)
(3.5421 3.31998e-09 -8.78647e-08)
(3.68636 4.33658e-09 -9.48178e-08)
(3.68636 2.65442e-09 -9.48179e-08)
(3.83366 4.18054e-09 -1.02241e-07)
(3.83366 2.48579e-09 -1.02241e-07)
(3.98386 4.24979e-09 -1.10162e-07)
(3.98386 2.54206e-09 -1.10162e-07)
(4.13679 4.88724e-09 -1.18629e-07)
(4.13679 3.1667e-09 -1.18629e-07)
(4.29224 4.72535e-09 -1.27689e-07)
(4.29224 2.99036e-09 -1.27689e-07)
(4.44994 4.12245e-09 -1.37364e-07)
(4.44994 2.37534e-09 -1.37364e-07)
(4.6096 4.18792e-09 -1.47686e-07)
(4.6096 2.42521e-09 -1.47686e-07)
(4.7709 5.5139e-09 -1.58728e-07)
(4.7709 3.73788e-09 -1.58728e-07)
(4.93347 3.63659e-09 -1.70527e-07)
(4.93347 1.84586e-09 -1.70527e-07)
(5.0969 5.77098e-09 -1.83142e-07)
(5.0969 3.96371e-09 -1.83142e-07)
(5.26074 2.75008e-09 -1.96607e-07)
(5.26074 9.29819e-10 -1.96607e-07)
(5.4245 6.99799e-09 -2.11009e-07)
(5.4245 5.15991e-09 -2.11009e-07)
(5.58767 4.57219e-09 -2.26454e-07)
(5.58767 2.71731e-09 -2.26454e-07)
(5.74967 1.93672e-09 -2.42893e-07)
(5.74967 6.75416e-11 -2.42893e-07)
(5.90991 4.27796e-09 -2.60383e-07)
(5.90991 2.38669e-09 -2.60383e-07)
(6.06778 1.49035e-08 -2.79307e-07)
(6.06778 1.29967e-08 -2.79307e-07)
(6.22262 -1.23598e-08 -2.99351e-07)
(6.22262 -1.42826e-08 -2.99351e-07)
(6.37376 2.1084e-08 -3.20725e-07)
(6.37376 1.91382e-08 -3.20725e-07)
(6.52049 -4.66328e-09 -3.43713e-07)
(6.52049 -6.62791e-09 -3.43713e-07)
(6.66213 5.70064e-09 -3.68e-07)
(6.66213 3.71282e-09 -3.68e-07)
(6.79795 1.14162e-08 -3.94068e-07)
(6.79795 9.407e-09 -3.94068e-07)
(6.92724 -7.37323e-09 -4.21658e-07)
(6.92724 -9.39754e-09 -4.21658e-07)
(7.04932 1.51264e-08 -4.50915e-07)
(7.04932 1.3068e-08 -4.50915e-07)
(7.16351 -3.00038e-09 -4.82017e-07)
(7.16351 -5.07674e-09 -4.82017e-07)
(7.26916 1.12776e-08 -5.14895e-07)
(7.26916 9.17543e-09 -5.14895e-07)
(7.36566 -3.93483e-10 -5.49652e-07)
(7.36566 -2.52279e-09 -5.49652e-07)
(7.45246 -4.15175e-09 -5.85853e-07)
(7.45246 -6.31445e-09 -5.85853e-07)
(7.52907 1.97793e-08 -6.24034e-07)
(7.52907 1.76027e-08 -6.24034e-07)
(7.59506 -9.0522e-09 -6.64041e-07)
(7.59506 -1.12686e-08 -6.64041e-07)
(7.65009 -8.06173e-10 -7.05199e-07)
(7.65009 -3.05492e-09 -7.05199e-07)
(7.6939 1.56314e-08 -7.4814e-07)
(7.6939 1.33562e-08 -7.4814e-07)
(7.72635 -2.32882e-08 -7.92111e-07)
(7.72635 -2.55988e-08 -7.92111e-07)
(7.74739 3.83122e-08 -8.37672e-07)
(7.74739 3.59685e-08 -8.37672e-07)
(7.75705 -5.2163e-08 -8.83869e-07)
(7.75705 -5.45409e-08 -8.83868e-07)
(7.75552 5.41308e-08 -9.31038e-07)
(7.75552 5.17121e-08 -9.31038e-07)
(7.74308 -5.38609e-08 -9.79108e-07)
(7.74308 -5.63112e-08 -9.79108e-07)
(7.72008 4.18935e-08 -1.02759e-06)
(7.72008 3.93995e-08 -1.02759e-06)
(7.68702 -4.0197e-08 -1.07695e-06)
(7.68702 -4.27315e-08 -1.07695e-06)
(7.64447 2.81229e-08 -1.12672e-06)
(7.64447 2.55533e-08 -1.12672e-06)
(7.59306 -3.16301e-08 -1.17729e-06)
(7.59306 -3.42521e-08 -1.17729e-06)
(7.53349 1.03708e-08 -1.2281e-06)
(7.53349 7.71868e-09 -1.2281e-06)
(7.4665 -8.95857e-09 -1.28007e-06)
(7.4665 -1.16714e-08 -1.28007e-06)
(7.39288 -1.42511e-08 -1.33249e-06)
(7.39288 -1.69979e-08 -1.33249e-06)
(7.31339 1.3651e-08 -1.38629e-06)
(7.31339 1.08505e-08 -1.38629e-06)
(7.22882 -4.07214e-08 -1.44071e-06)
(7.22882 -4.35638e-08 -1.44071e-06)
(7.13992 3.27202e-08 -1.49658e-06)
(7.13992 2.98178e-08 -1.49658e-06)
(7.04739 -4.68916e-08 -1.55386e-06)
(7.04739 -4.98335e-08 -1.55386e-06)
(6.95191 2.12307e-08 -1.61224e-06)
(6.95191 1.82293e-08 -1.61224e-06)
(6.8541 -3.02032e-08 -1.67252e-06)
(6.8541 -3.32616e-08 -1.67252e-06)
(6.75451 1.4179e-08 -1.73456e-06)
(6.75451 1.10727e-08 -1.73456e-06)
(6.65364 -3.51804e-08 -1.79829e-06)
(6.65364 -3.83479e-08 -1.79829e-06)
(6.55193 1.76025e-08 -1.86394e-06)
(6.55193 1.43737e-08 -1.86394e-06)
(6.44974 -4.10694e-08 -1.93139e-06)
(6.44974 -4.43522e-08 -1.93139e-06)
(6.34741 1.59359e-08 -2.00061e-06)
(6.34741 1.2588e-08 -2.00061e-06)
(6.2452 -2.54554e-08 -2.07236e-06)
(6.2452 -2.88751e-08 -2.07236e-06)
(6.14335 -1.73863e-09 -2.14595e-06)
(6.14335 -5.20746e-09 -2.14595e-06)
(6.04204 -1.72036e-08 -2.2218e-06)
(6.04204 -2.07617e-08 -2.2218e-06)
(5.94143 -1.99866e-08 -2.29915e-06)
(5.94143 -2.36001e-08 -2.29915e-06)
(5.84165 1.65024e-08 -2.37951e-06)
(5.84165 1.2807e-08 -2.37951e-06)
(5.7428 -4.74807e-08 -2.46174e-06)
(5.7428 -5.12414e-08 -2.46174e-06)
(5.64498 9.08566e-09 -2.54547e-06)
(5.64498 5.23757e-09 -2.54547e-06)
(5.54824 -1.54052e-08 -2.63222e-06)
(5.54824 -1.93327e-08 -2.63222e-06)
(5.45266 -2.64628e-08 -2.72034e-06)
(5.45266 -3.04728e-08 -2.72034e-06)