/*--------------------------------*- C++ -*----------------------------------*\
| =========                 |                                                 |
| \\      /  F ield         | OpenFOAM: The Open Source CFD Toolbox           |
|  \\    /   O peration     | Version:  2106                                  |
|   \\  /    A nd           | Website:  www.openfoam.com                      |
|    \\/     M anipulation  |                                                 |
\*---------------------------------------------------------------------------*/
FoamFile
{
    version     2.0;
    format      ascii;
    arch        "LSB;label=32;scalar=64";
    class       volTensorField;
    location    "14000";
    object      grad(U);
}
// * * * * * * * * * * * * * * * * * * * * * * * * * * * * * * * * * * * * * //

dimensions      [0 0 -1 0 0 0 0];

internalField   nonuniform List<tensor> 
2560
(
(0 4.15781e-30 1.29932e-31 49.0961 -1.55499e-11 -9.31489e-13 0.071073 -1.12554e-14 -5.41122e-16)
(-9.14312e-18 -6.48515e-28 -1.46474e-26 49.0961 -2.95073e-15 -3.31969e-13 0.071073 -2.34253e-18 -2.59415e-16)
(0 -1.17077e-24 -3.48513e-26 49.0888 5.54503e-32 -1.05273e-13 0.214231 0 -3.09202e-16)
(0 0 0 49.0888 -1.061e-14 -2.51735e-13 0.214231 -1.89713e-17 -1.17454e-15)
(-8.99745e-18 -3.62171e-30 -3.30769e-31 49.0815 2.22966e-12 -5.03544e-14 0.294617 -1.52278e-14 -2.9086e-16)
(0 1.61579e-29 5.04935e-31 49.0815 -1.19615e-14 -1.88405e-14 0.294617 -3.90471e-17 -1.20884e-15)
(2.88522e-17 -2.84976e-29 -6.77929e-31 49.0742 8.99267e-13 -4.9199e-14 0.298856 -1.13202e-14 -3.04187e-16)
(0 2.38895e-29 4.97698e-31 49.0742 -1.25244e-14 -1.90814e-14 0.298856 -6.1059e-17 -1.24408e-15)
(1.38082e-16 -1.18214e-27 -1.47169e-30 49.0669 2.01652e-27 -5.06319e-14 0.303156 0 -3.17088e-16)
(0 3.13961e-29 4.90565e-31 49.0669 -1.2697e-14 -1.9329e-14 0.303156 -8.40188e-17 -1.28029e-15)
(6.94233e-17 -2.16356e-29 -1.1611e-30 49.0594 9.42872e-15 -5.17723e-14 0.307516 -2.17741e-16 -3.27394e-16)
(5.55387e-16 1.54731e-29 4.83534e-31 49.0594 -1.2893e-14 -1.95812e-14 0.307516 -1.07675e-16 -1.31751e-15)
(-9.0148e-17 -1.61478e-44 -2.74952e-31 49.0516 1.96269e-27 -5.26314e-14 0.311937 -6.31089e-30 -3.37304e-16)
(3.60592e-16 1.52513e-29 9.53207e-31 49.0516 -1.32302e-14 -1.98353e-14 0.311937 -1.32215e-16 -1.35574e-15)
(-2.434e-16 2.87244e-29 2.09503e-31 49.0433 2.40702e-14 -5.34512e-14 0.316418 -1.38193e-16 -3.47564e-16)
(4.44685e-16 -1.50327e-29 0 49.0433 -1.35249e-14 -2.00864e-14 0.316418 -1.57639e-16 -1.39502e-15)
(3.93165e-16 -1.35752e-29 -6.80646e-31 49.0341 2.55039e-14 -5.42855e-14 0.320955 -1.70417e-16 -3.58108e-16)
(0 7.40863e-30 4.63039e-31 49.0341 -1.37471e-14 -2.03313e-14 0.320955 -1.84218e-16 -1.43536e-15)
(0 1.46049e-29 4.56403e-31 49.0236 2.43977e-14 -5.51174e-14 0.325547 -1.61011e-16 -3.68796e-16)
(-2.56932e-16 -7.30244e-30 0 49.0236 -1.3898e-14 -2.05716e-14 0.325547 -2.11025e-16 -1.47677e-15)
(-4.29326e-16 -2.98288e-29 -1.11491e-30 49.0109 2.44454e-14 -5.59289e-14 0.330186 -1.60716e-16 -3.79534e-16)
(0 4.31867e-29 1.34958e-30 49.0109 -1.40863e-14 -2.07992e-14 0.330186 -2.38371e-16 -1.51926e-15)
(4.47958e-16 -4.16284e-29 -2.01732e-30 48.9951 2.49111e-14 -5.67051e-14 0.334867 -1.6637e-16 -3.90211e-16)
(0 2.83785e-29 1.77365e-30 48.9951 -1.45164e-14 -2.10075e-14 0.334867 -2.67127e-16 -1.56281e-15)
(2.46042e-16 -2.09788e-29 -8.74117e-31 48.9748 2.53433e-14 -5.74285e-14 0.339577 -1.71792e-16 -4.00686e-16)
(-2.46042e-16 2.09788e-29 8.74117e-31 48.9748 -1.48517e-14 -2.11972e-14 0.339577 -2.97215e-16 -1.60739e-15)
(-2.43828e-16 1.99309e-29 1.12426e-30 48.9483 2.59967e-14 -5.80777e-14 0.344303 -1.77239e-16 -4.10777e-16)
(9.7531e-16 -6.89271e-30 0 48.9483 -1.51864e-14 -2.13542e-14 0.344303 -3.28395e-16 -1.65298e-15)
(-4.78079e-16 3.39696e-29 2.54772e-30 48.9133 2.67852e-14 -5.86271e-14 0.349024 -1.86019e-16 -4.20268e-16)
(4.78079e-16 -3.39696e-29 -2.54772e-30 48.9133 -1.55949e-14 -2.14663e-14 0.349024 -3.61464e-16 -1.69949e-15)
(-2.9063e-16 -5.62794e-31 2.83184e-31 48.867 2.74728e-14 -5.90473e-14 0.353718 -1.93687e-16 -4.28896e-16)
(1.16252e-15 6.69654e-30 0 48.867 -1.5823e-14 -2.1523e-14 0.353718 -3.95683e-16 -1.74687e-15)
(0 3.30028e-29 8.25071e-31 48.806 2.80725e-14 -5.9305e-14 0.358353 -2.01427e-16 -4.36366e-16)
(-1.25812e-15 -3.30028e-29 -8.25071e-31 48.806 -1.626e-14 -2.1504e-14 0.358353 -4.2947e-16 -1.79498e-15)
(0 2.60238e-29 1.62649e-30 48.7265 2.8438e-14 -5.93625e-14 0.362894 -2.08175e-16 -4.42318e-16)
(-1.35507e-15 -2.60238e-29 -1.62649e-30 48.7265 -1.65376e-14 -2.13997e-14 0.362894 -4.65412e-16 -1.84362e-15)
(4.51255e-16 -1.92381e-29 -2.40477e-30 48.6237 2.89585e-14 -5.91788e-14 0.367296 -2.12777e-16 -4.46369e-16)
(0 1.92381e-29 2.40477e-30 48.6237 -1.68513e-14 -2.12002e-14 0.367296 -5.02287e-16 -1.89259e-15)
(-5.01336e-16 6.53211e-30 2.04101e-30 48.4924 2.97983e-14 -5.87097e-14 0.371509 -2.22146e-16 -4.48077e-16)
(-6.63379e-16 -2.52832e-29 -2.3703e-30 48.4924 -1.75484e-14 -2.08855e-14 0.371509 -5.40776e-16 -1.94164e-15)
(0 3.11511e-29 2.33633e-30 48.3266 3.02625e-14 -5.79124e-14 0.375475 -2.31896e-16 -4.47032e-16)
(0 -3.11511e-29 -2.33633e-30 48.3266 -1.75941e-14 -2.04312e-14 0.375475 -5.81038e-16 -1.99047e-15)
(-4.39013e-16 -6.18536e-30 -4.12561e-31 48.1202 3.03261e-14 -5.67502e-14 0.379131 -2.3588e-16 -4.42845e-16)
(0 1.84227e-29 7.67614e-31 48.1202 -1.73895e-14 -1.98321e-14 0.379131 -6.21138e-16 -2.03867e-15)
(8.1294e-16 -6.04916e-29 -3.41451e-30 47.8666 3.07352e-14 -5.51903e-14 0.382409 -2.39695e-16 -4.35131e-16)
(0 6.65819e-29 2.26984e-30 47.8666 -1.81875e-14 -1.90678e-14 0.382409 -6.62582e-16 -2.08594e-15)
(0 2.38646e-29 1.49154e-30 47.5592 3.1672e-14 -5.32089e-14 0.385239 -2.49345e-16 -4.23604e-16)
(-1.96403e-15 -2.98307e-29 -2.23731e-30 47.5592 -1.90208e-14 -1.81237e-14 0.385239 -7.09372e-16 -2.13173e-15)
(5.17418e-16 2.33284e-29 1.8087e-30 47.1917 3.23203e-14 -5.07967e-14 0.387551 -2.61948e-16 -4.08089e-16)
(0 -2.94032e-29 -2.20524e-30 47.1917 -1.8887e-14 -1.70218e-14 0.387551 -7.57698e-16 -2.17556e-15)
(-1.08814e-15 5.85056e-29 3.71986e-30 46.7586 3.31215e-14 -4.79618e-14 0.389277 -2.67342e-16 -3.88574e-16)
(0 -4.63708e-29 -2.89818e-30 46.7586 -1.86904e-14 -1.57642e-14 0.389277 -8.04341e-16 -2.21698e-15)
(1.7128e-15 -6.95942e-29 -4.84632e-30 46.2552 3.40311e-14 -4.47322e-14 0.390356 -2.83028e-16 -3.65213e-16)
(4.56746e-15 6.2846e-29 3.5708e-30 46.2552 -1.88216e-14 -1.43534e-14 0.390356 -8.53469e-16 -2.25548e-15)
(0 -3.37883e-29 -1.40785e-30 45.6781 3.41172e-14 -4.11543e-14 0.39074 -2.90616e-16 -3.38329e-16)
(2.39186e-15 3.37883e-29 1.40785e-30 45.6781 -1.88966e-14 -1.2807e-14 0.39074 -9.04052e-16 -2.29059e-15)
(-1.56062e-16 1.061e-29 -4.53349e-31 45.0257 3.43287e-14 -3.7291e-14 0.390391 -2.92802e-16 -3.08402e-16)
(0 -1.11014e-29 0 45.0257 -1.91149e-14 -1.11384e-14 0.390391 -9.54124e-16 -2.32196e-15)
(-1.30474e-15 1.2066e-29 9.33702e-31 44.2981 3.43294e-14 -3.32218e-14 0.389287 -3.02826e-16 -2.76097e-16)
(-5.21895e-15 0 0 44.2981 -1.9138e-14 -9.39172e-15 0.389287 -1.00763e-15 -2.34912e-15)
(-6.79639e-16 2.2204e-29 4.79734e-31 43.4974 3.38493e-14 -2.90385e-14 0.387424 -3.0139e-16 -2.42193e-16)
(-2.71856e-15 -1.07854e-29 0 43.4974 -1.88256e-14 -7.64882e-15 0.387424 -1.06185e-15 -2.37173e-15)
(0 3.72079e-29 2.65771e-30 42.6274 3.40232e-14 -2.48356e-14 0.384814 -3.03061e-16 -2.0749e-16)
(-2.82754e-15 -3.72079e-29 -2.65771e-30 42.6274 -1.89934e-14 -5.95025e-15 0.384814 -1.11597e-15 -2.38969e-15)
(0 -3.14354e-29 -2.61962e-30 41.6938 3.47244e-14 -2.07029e-14 0.381489 -3.13393e-16 -1.72777e-16)
(2.93619e-15 3.14354e-29 2.61962e-30 41.6938 -1.93772e-14 -4.27392e-15 0.381489 -1.17438e-15 -2.40315e-15)
(-7.61074e-16 -4.32951e-30 5.13184e-31 40.7038 3.51858e-14 -1.67232e-14 0.377492 -3.24921e-16 -1.38819e-16)
(0 1.54924e-29 0 40.7038 -1.96982e-14 -2.63812e-15 0.377492 -1.23555e-15 -2.41202e-15)
(-7.87907e-16 3.653e-29 1.79475e-30 39.6657 3.51808e-14 -1.29756e-14 0.372882 -3.31239e-16 -1.06423e-16)
(0 -3.05408e-29 -1.27253e-30 39.6657 -1.97901e-14 -1.1111e-15 0.372882 -1.29441e-15 -2.41634e-15)
(-2.2267e-15 3.60834e-29 1.7844e-30 38.5885 3.52272e-14 -9.52298e-15 0.367724 -3.34345e-16 -7.61364e-17)
(-3.25799e-15 -2.00687e-29 0 38.5885 -2.01302e-14 2.80005e-16 0.367724 -1.35334e-15 -2.41646e-15)
(8.40794e-16 -1.09159e-29 -1.77314e-30 37.4815 3.56155e-14 -6.40671e-15 0.362093 -3.41838e-16 -4.8418e-17)
(0 4.94526e-30 1.23632e-30 37.4815 -2.06568e-14 1.52666e-15 0.362093 -1.41523e-15 -2.41256e-15)
(8.66756e-16 -3.03322e-29 -2.97959e-30 36.3542 3.48507e-14 -3.65501e-15 0.356064 -3.51757e-16 -2.36099e-17)
(0 2.43719e-29 2.43719e-30 36.3542 -2.00747e-14 2.64268e-15 0.356064 -1.4777e-15 -2.40514e-15)
(-2.2447e-15 3.47808e-29 -2.31702e-29 35.2156 3.30419e-14 -3.81446e-16 0.349713 -3.36632e-16 -1.91132e-18)
(0 -1.92181e-29 0 35.2156 -1.94448e-14 3.58868e-15 0.349713 -1.54169e-15 -2.3943e-15)
(0 2.8414e-29 0 34.0741 3.23744e-14 1.07877e-28 0.343114 -3.25543e-16 7.88861e-31)
(0 -3.78853e-29 -2.36783e-30 34.0741 -1.87196e-14 4.34505e-15 0.343114 -1.60404e-15 -2.3807e-15)
(-9.42276e-16 5.93733e-30 1.71309e-30 32.9374 3.22629e-14 2.35694e-15 0.336336 -3.32821e-16 -1.66197e-17)
(2.45524e-15 0 0 32.9374 -1.74083e-14 4.94482e-15 0.336336 -1.65999e-15 -2.36469e-15)
(1.29503e-15 -2.76053e-29 -3.45066e-30 31.8122 3.20587e-14 3.66167e-15 0.329443 -3.32762e-16 -3.21158e-17)
(2.57125e-15 2.76053e-29 3.45066e-30 31.8122 -1.76064e-14 5.4398e-15 0.329443 -1.71675e-15 -2.34688e-15)
(9.90394e-16 1.22202e-29 5.91845e-31 30.7043 3.1688e-14 4.65601e-15 0.322492 -3.38266e-16 -4.4613e-17)
(-3.96158e-15 -2.72097e-29 -2.26747e-30 30.7043 -1.7915e-14 5.84223e-15 0.322492 -1.77936e-15 -2.3274e-15)
(1.01374e-15 -2.37915e-29 -1.65742e-30 29.6186 3.09296e-14 5.37502e-15 0.315534 -3.3458e-16 -5.43243e-17)
(0 1.78798e-29 1.11749e-30 29.6186 -1.74751e-14 6.10066e-15 0.315534 -1.84007e-15 -2.30652e-15)
(2.03552e-16 -2.90806e-30 5.38119e-31 28.5589 3.05561e-14 5.85339e-15 0.308611 -3.31719e-16 -6.15223e-17)
(-1.24014e-15 1.76235e-29 1.10147e-30 28.5589 -1.73568e-14 6.25514e-15 0.308611 -1.9056e-15 -2.28472e-15)
(1.05896e-15 1.14763e-29 5.49197e-31 27.5284 3.01123e-14 6.11868e-15 0.30176 -3.36158e-16 -6.6447e-17)
(3.01346e-15 -8.68546e-30 0 27.5284 -1.6171e-14 6.33117e-15 0.30176 -1.96484e-15 -2.26212e-15)
(1.20485e-15 -1.7122e-29 -1.07012e-30 26.5294 2.96547e-14 6.1994e-15 0.295012 -3.31524e-16 -6.925e-17)
(4.32333e-15 1.7122e-29 1.07012e-30 26.5294 -1.55706e-14 6.34542e-15 0.295012 -2.01734e-15 -2.23914e-15)
(-1.10222e-15 5.87784e-30 5.339e-31 25.5633 2.9365e-14 6.12938e-15 0.288391 -3.35635e-16 -7.02226e-17)
(0 8.43828e-30 0 25.5633 -1.67378e-14 6.33691e-15 0.288391 -2.07832e-15 -2.21597e-15)
(-1.12313e-15 5.8696e-30 5.32961e-31 24.6313 2.89045e-14 5.9319e-15 0.281916 -3.34577e-16 -6.96688e-17)
(0 8.31733e-30 0 24.6313 -1.69228e-14 6.29341e-15 0.281916 -2.14247e-15 -2.19259e-15)
(1.15378e-15 -2.45944e-29 -2.04953e-30 23.7339 2.88592e-14 5.62959e-15 0.275602 -3.34727e-16 -6.76735e-17)
(0 2.45944e-29 1.02477e-30 23.7339 -1.57674e-14 6.18529e-15 0.275602 -2.2012e-15 -2.16911e-15)
(-2.30079e-15 5.85155e-30 1.54195e-30 22.871 2.9166e-14 5.24727e-15 0.26946 -3.43304e-16 -6.45562e-17)
(0 1.61613e-29 0 22.871 -1.57613e-14 6.03962e-15 0.26946 -2.25989e-15 -2.14587e-15)
(-2.24189e-15 3.18592e-29 3.9824e-30 22.0426 2.92884e-14 4.80107e-15 0.263498 -3.51898e-16 -6.04774e-17)
(-3.61134e-15 -2.38944e-29 -2.9868e-30 22.0426 -1.60557e-14 5.87318e-15 0.263498 -2.3229e-15 -2.12284e-15)
(-1.20216e-15 -2.55707e-29 -2.41219e-30 21.248 2.8799e-14 4.30626e-15 0.25772 -3.56343e-16 -5.55794e-17)
(4.80863e-15 3.14026e-29 2.94399e-30 21.248 -1.56389e-14 5.69099e-15 0.25772 -2.38529e-15 -2.10015e-15)
(0 3.86907e-29 2.9018e-30 20.4866 2.78302e-14 3.77466e-15 0.252128 -3.50111e-16 -5.0022e-17)
(0 -3.86907e-29 -2.9018e-30 20.4866 -1.58374e-14 5.50936e-15 0.252128 -2.44659e-15 -2.07786e-15)
(-1.23906e-15 2.10708e-29 1.48618e-30 19.7574 2.71244e-14 3.2168e-15 0.246723 -3.42494e-16 -4.38805e-17)
(4.95624e-15 -1.52545e-29 -9.53403e-31 19.7574 -1.51535e-14 5.31473e-15 0.246723 -2.50386e-15 -2.05595e-15)
(2.51381e-15 -1.91328e-29 -2.00702e-30 19.0595 2.64617e-14 2.64124e-15 0.241504 -3.42416e-16 -3.72985e-17)
(5.02762e-15 7.51791e-30 9.39738e-31 19.0595 -1.37451e-14 5.11539e-15 0.241504 -2.56308e-15 -2.03465e-15)
(0 -1.48203e-29 -1.85254e-30 18.3917 2.53827e-14 2.05614e-15 0.236468 -3.35426e-16 -3.0314e-17)
(0 1.48203e-29 1.85254e-30 18.3917 -1.34719e-14 4.8691e-15 0.236468 -2.62667e-15 -2.01373e-15)
(7.64436e-16 5.79251e-30 -3.76888e-31 17.7529 2.44176e-14 1.46967e-15 0.231612 -3.24199e-16 -2.30735e-17)
(-2.05588e-15 7.30395e-30 1.82599e-30 17.7529 -1.29937e-14 4.62435e-15 0.231612 -2.6855e-15 -1.99394e-15)
(-2.61633e-15 4.75652e-29 3.77513e-30 17.142 2.3962e-14 8.87342e-16 0.226933 -3.1962e-16 -1.56256e-17)
(5.23266e-15 -4.31956e-29 -3.59963e-30 17.142 -1.25225e-14 4.42455e-15 0.226933 -2.7421e-15 -1.97464e-15)
(-1.32454e-15 1.28716e-29 5.3953e-31 16.5577 2.37065e-14 3.14419e-16 0.222424 -3.21418e-16 -8.05772e-18)
(0 0 8.8701e-31 16.5577 -1.28632e-14 4.24832e-15 0.222424 -2.80039e-15 -1.95609e-15)
(-1.34057e-15 -1.22732e-30 5.40628e-31 15.9989 2.36152e-14 -2.51522e-16 0.218081 -3.21998e-16 -7.40296e-18)
(5.36229e-15 2.09831e-29 8.74297e-31 15.9989 -1.21918e-14 4.08433e-15 0.218081 -2.85859e-15 -1.93778e-15)
(-1.35629e-15 1.9546e-29 1.40256e-30 15.4644 2.37209e-14 -8.0404e-16 0.213899 -3.28302e-16 -1.51142e-17)
(-1.94052e-15 -6.89413e-30 -8.61766e-31 15.4644 -1.24972e-14 3.88377e-15 0.213899 -2.90684e-15 -1.91998e-15)
(-2.74337e-15 3.18829e-29 2.78119e-30 14.9531 2.31808e-14 -1.3418e-15 0.209873 -3.34405e-16 -2.2972e-17)
(-5.48675e-15 -2.0386e-29 -1.69883e-30 14.9531 -1.27983e-14 3.72335e-15 0.209873 -2.96597e-15 -1.903e-15)
(-2.77358e-15 -2.20045e-29 -2.26532e-30 14.4639 2.24253e-14 -1.86858e-15 0.205996 -3.22499e-16 -3.0814e-17)
(1.10943e-14 2.67917e-29 2.51172e-30 14.4639 -1.19765e-14 3.57072e-15 0.205996 -3.02722e-15 -1.88591e-15)
(-4.2048e-15 5.68164e-29 4.92905e-30 13.9957 2.23969e-14 -2.37398e-15 0.202263 -3.22321e-16 -3.84957e-17)
(-9.32295e-15 -3.96116e-29 -3.30096e-30 13.9957 -1.21732e-14 3.38781e-15 0.202263 -3.08873e-15 -1.86956e-15)
(4.1551e-16 -1.37961e-29 -1.08303e-30 13.5475 2.28013e-14 -2.85825e-15 0.198668 -3.3111e-16 -4.61537e-17)
(3.83289e-15 1.95219e-29 1.62683e-30 13.5475 -1.17214e-14 3.26471e-15 0.198668 -3.15357e-15 -1.85404e-15)
(1.4304e-15 -2.49579e-29 -2.14864e-30 13.1182 2.1648e-14 -3.3245e-15 0.195206 -3.43819e-16 -5.37252e-17)
(0 1.92421e-29 1.60351e-30 13.1182 -1.14269e-14 3.10948e-15 0.195206 -3.20447e-15 -1.83835e-15)
(3.55903e-15 -3.16105e-29 -1.58053e-30 12.7071 1.93528e-14 -3.78449e-15 0.191872 -3.05928e-16 -6.16202e-17)
(2.2186e-15 3.16105e-29 1.58053e-30 12.7071 -1.1359e-14 2.98673e-15 0.191872 -3.25444e-15 -1.82393e-15)
(3.50802e-15 -6.2315e-30 -3.11575e-30 12.3131 2.02878e-14 -4.23867e-15 0.188659 -2.83464e-16 -6.94381e-17)
(5.83267e-15 6.2315e-30 2.33681e-30 12.3131 -1.12027e-14 2.93168e-15 0.188659 -3.31015e-15 -1.80935e-15)
(-3.45774e-15 1.84265e-29 3.07109e-30 11.9355 2.24214e-14 -4.66349e-15 0.185564 -3.43997e-16 -7.68428e-17)
(5.88675e-15 0 -7.67773e-31 11.9355 -1.17342e-14 2.83168e-15 0.185564 -3.37016e-15 -1.79506e-15)
(0 3.02707e-29 3.02707e-30 11.5733 2.16381e-14 -5.0753e-15 0.182581 -3.59154e-16 -8.46679e-17)
(0 -3.02707e-29 -3.02707e-30 11.5733 -1.23245e-14 2.72868e-15 0.182581 -3.43268e-15 -1.78116e-15)
(-2.99609e-15 2.329e-29 1.11063e-30 11.2259 2.00646e-14 -5.47382e-15 0.179706 -3.28975e-16 -9.20492e-17)
(0 -1.19348e-29 0 11.2259 -1.20771e-14 2.57697e-15 0.179706 -3.50777e-15 -1.76719e-15)
(0 -2.35274e-29 -2.94092e-30 10.8925 2.02869e-14 -5.85103e-15 0.176933 -3.1852e-16 -9.95893e-17)
(6.0436e-15 2.35274e-29 2.94092e-30 10.8925 -1.13466e-14 2.42397e-15 0.176933 -3.57593e-15 -1.75405e-15)
(0 5.79755e-30 2.17408e-30 10.5724 2.10541e-14 -6.20786e-15 0.174259 -3.45943e-16 -1.06685e-16)
(6.09419e-15 0 -7.24693e-31 10.5724 -1.17482e-14 2.33249e-15 0.174259 -3.63504e-15 -1.74107e-15)
(-1.536e-15 -6.83504e-32 1.27864e-30 10.2649 2.06461e-14 -6.54575e-15 0.171679 -3.53523e-16 -1.13977e-16)
(0 5.71445e-30 0 10.2649 -1.22087e-14 2.31005e-15 0.171679 -3.70116e-15 -1.72885e-15)
(1.54826e-15 -6.37034e-33 8.40307e-31 9.96953 1.96508e-14 -6.8761e-15 0.169189 -3.42228e-16 -1.21188e-16)
(0 0 0 9.96953 -1.11901e-14 2.27861e-15 0.169189 -3.77125e-15 -1.71618e-15)
(1.5627e-15 -1.66555e-29 -1.38796e-30 9.68557 1.87796e-14 -7.19953e-15 0.166786 -3.29599e-16 -1.28618e-16)
(-1.5627e-15 1.66555e-29 0 9.68557 -1.01331e-14 2.1704e-15 0.166786 -3.82951e-15 -1.70373e-15)
(1.5403e-15 -1.64168e-29 -1.36806e-30 9.41251 1.84502e-14 -7.51112e-15 0.164465 -3.2181e-16 -1.35784e-16)
(0 1.64168e-29 1.36806e-30 9.41251 -1.06752e-14 2.09648e-15 0.164465 -3.8801e-15 -1.69188e-15)
(-1.64967e-15 4.44402e-31 -1.53741e-30 9.14981 1.86947e-14 -7.8043e-15 0.162224 -3.27575e-16 -1.42929e-16)
(0 1.07876e-29 2.69691e-30 9.14981 -1.1562e-14 2.06984e-15 0.162224 -3.94029e-15 -1.6799e-15)
(-1.5955e-15 3.21874e-29 1.91335e-30 8.89699 1.97352e-14 -8.08368e-15 0.160058 -3.40031e-16 -1.49956e-16)
(0 -2.65826e-29 -1.32913e-30 8.89699 -1.12514e-14 2.02761e-15 0.160058 -4.00817e-15 -1.66778e-15)
(1.6069e-15 -1.08304e-29 -5.88903e-31 8.65358 2.06505e-14 -8.35148e-15 0.157965 -3.7514e-16 -1.5703e-16)
(-7.90262e-15 5.24031e-30 0 8.65358 -1.17176e-14 1.98851e-15 0.157965 -4.07552e-15 -1.65639e-15)
(2.90775e-15 -1.03304e-29 -2.5826e-30 8.41914 2.01599e-14 -8.60887e-15 0.155941 -3.83876e-16 -1.64016e-16)
(-6.47257e-15 1.03304e-29 2.5826e-30 8.41914 -1.15427e-14 1.90357e-15 0.155941 -4.15264e-15 -1.64441e-15)
(-1.62924e-15 2.08458e-29 3.14455e-30 8.19323 1.90388e-14 -8.86174e-15 0.153985 -3.67703e-16 -1.71266e-16)
(1.30339e-14 -5.09117e-30 -1.27279e-30 8.19323 -9.16984e-15 1.80645e-15 0.153985 -4.21003e-15 -1.63296e-15)
(1.64018e-15 1.95247e-29 6.50165e-31 7.97548 1.81032e-14 -9.11438e-15 0.152092 -3.52401e-16 -1.78587e-16)
(6.56073e-15 -3.51274e-29 -2.5091e-30 7.97548 -9.36239e-15 1.74803e-15 0.152092 -4.26471e-15 -1.62115e-15)
(0 4.94628e-30 0 7.76549 1.70879e-14 -9.35773e-15 0.15026 -3.42306e-16 -1.85827e-16)
(0 0 1.23657e-30 7.76549 -9.14208e-15 1.74077e-15 0.15026 -4.35227e-15 -1.6103e-15)
(-1.66166e-15 -1.88227e-29 -3.04056e-30 7.56293 1.73115e-14 -9.59325e-15 0.148487 -3.22904e-16 -1.9319e-16)
(6.64665e-15 2.43769e-29 3.65654e-30 7.56293 -8.63365e-15 1.69344e-15 0.148487 -4.4046e-15 -1.59856e-15)
(-4.37747e-15 2.47611e-29 3.02504e-30 7.36746 1.95641e-14 -9.80405e-15 0.14677 -3.61232e-16 -1.9978e-16)
(-6.68882e-15 -9.61102e-30 -1.20138e-30 7.36746 -1.17655e-14 1.60228e-15 0.14677 -4.47178e-15 -1.58753e-15)
(1.68262e-15 -1.49912e-29 -2.9971e-30 7.17875 2.06618e-14 -9.9922e-15 0.145108 -4.23295e-16 -2.06555e-16)
(6.73048e-15 9.47327e-30 2.36832e-30 7.17875 -1.20954e-14 1.5493e-15 0.145108 -4.55523e-15 -1.5757e-15)
(-1.69291e-15 3.3521e-29 2.96978e-30 6.9965 2.01338e-14 -1.0193e-14 0.143497 -4.16772e-16 -2.13975e-16)
(6.77165e-15 -2.80125e-29 -2.33437e-30 6.9965 -1.08816e-14 1.51978e-15 0.143497 -4.60668e-15 -1.56431e-15)
(-1.70309e-15 5.49922e-30 6.4237e-31 6.82044 2.05036e-14 -1.03973e-14 0.141936 -4.13755e-16 -2.21218e-16)
(0 0 0 6.82044 -1.23172e-14 1.59377e-15 0.141936 -4.68054e-15 -1.55342e-15)
(-1.71314e-15 -3.58824e-30 -4.84334e-31 6.65029 1.99793e-14 -1.05838e-14 0.140424 -4.44569e-16 -2.2822e-16)
(0 1.81435e-29 2.26794e-30 6.65029 -1.1666e-14 1.60223e-15 0.140424 -4.75803e-15 -1.54116e-15)
(-4.23997e-15 -1.2404e-29 -1.5784e-30 6.4858 1.73007e-14 -1.07759e-14 0.138957 -4.03455e-16 -2.36034e-16)
(6.89237e-15 1.78835e-29 3.35315e-30 6.4858 -8.19256e-15 1.51205e-15 0.138957 -4.81691e-15 -1.52922e-15)
(-7.47869e-16 -1.42933e-29 -1.76646e-30 6.32672 1.57463e-14 -1.09794e-14 0.137534 -3.41363e-16 -2.43862e-16)
(2.4808e-15 8.81357e-30 1.1017e-30 6.32672 -6.64283e-15 1.49248e-15 0.137534 -4.87558e-15 -1.51826e-15)
(2.44524e-15 -1.73745e-29 -2.17181e-30 6.17283 1.59087e-14 -1.1162e-14 0.136154 -3.4685e-16 -2.51106e-16)
(0 1.73745e-29 2.17181e-30 6.17283 -8.41979e-15 1.4681e-15 0.136154 -4.94246e-15 -1.50676e-15)
(-1.7523e-15 -3.10442e-30 -3.89185e-31 6.02391 1.70935e-14 -1.13187e-14 0.134815 -3.58616e-16 -2.58104e-16)
(0 8.56274e-30 2.14069e-30 6.02391 -9.65839e-15 1.33163e-15 0.134815 -5.02423e-15 -1.49447e-15)
(0 -5.06401e-29 -5.27501e-30 5.87974 1.7821e-14 -1.14589e-14 0.133515 -4.10692e-16 -2.64908e-16)
(1.40947e-14 5.06401e-29 5.27501e-30 5.87974 -7.87435e-15 1.17438e-15 0.133515 -5.09845e-15 -1.48189e-15)
(0 0 0 5.74014 1.76369e-14 -1.16074e-14 0.132254 -4.02565e-16 -2.7259e-16)
(7.0851e-15 8.31905e-30 1.03988e-30 5.74014 -7.95313e-15 1.1954e-15 0.132254 -5.15363e-15 -1.47087e-15)
(-6.39671e-15 4.64175e-29 5.83218e-30 5.60492 1.80216e-14 -1.17584e-14 0.131028 -4.14139e-16 -2.79811e-16)
(-4.81444e-15 -3.27993e-29 -4.09991e-30 5.60492 -9.66857e-15 1.50201e-15 0.131028 -5.22606e-15 -1.46092e-15)
(4.85084e-16 1.34881e-29 2.73721e-30 5.47389 1.62096e-14 -1.1895e-14 0.129838 -4.32557e-16 -2.87133e-16)
(-7.15951e-15 -1.61646e-29 -2.02057e-30 5.47389 -7.99534e-15 1.63828e-15 0.129838 -5.2909e-15 -1.44685e-15)
(0 1.59329e-29 1.99161e-30 5.3469 1.39742e-14 -1.20304e-14 0.128682 -3.39288e-16 -2.94601e-16)
(-2.24236e-15 -7.96645e-30 0 5.3469 -5.76763e-15 1.38349e-15 0.128682 -5.32814e-15 -1.43156e-15)
(0 7.85227e-30 1.96307e-30 5.22378 1.52143e-14 -1.21573e-14 0.127558 -3.36359e-16 -3.01814e-16)
(7.23253e-15 0 -9.81534e-31 5.22378 -6.48257e-15 1.26081e-15 0.127558 -5.37136e-15 -1.4188e-15)
(-3.61404e-16 3.33217e-29 6.99378e-30 5.10438 1.69701e-14 -1.22758e-14 0.126466 -4.10498e-16 -3.09174e-16)
(0 -3.09589e-29 -5.8048e-30 5.10438 -8.64984e-15 1.20305e-15 0.126466 -5.43857e-15 -1.40414e-15)
(-2.14732e-15 -4.57728e-29 -7.6288e-30 4.98855 1.64013e-14 -1.24079e-14 0.125404 -4.34232e-16 -3.17375e-16)
(1.67558e-14 4.57728e-29 7.6288e-30 4.98855 -8.70116e-15 1.16263e-15 0.125404 -5.52318e-15 -1.3911e-15)
(0 -1.50389e-29 -1.87986e-30 4.87615 1.43706e-14 -1.25389e-14 0.124371 -3.93594e-16 -3.24987e-16)
(1.46792e-14 1.50389e-29 1.87986e-30 4.87615 -8.53409e-15 1.30161e-15 0.124371 -5.57894e-15 -1.37763e-15)
(-3.68735e-15 3.29722e-30 1.5543e-30 4.76706 1.36469e-14 -1.26634e-14 0.123366 -3.42171e-16 -3.33192e-16)
(0 7.41169e-30 0 4.76706 -8.73532e-15 1.4286e-15 0.123366 -5.65053e-15 -1.3642e-15)
(-1.85237e-15 5.34049e-30 7.88148e-31 4.66115 1.45996e-14 -1.27804e-14 0.122389 -3.6724e-16 -3.40717e-16)
(1.4819e-14 7.30546e-30 2.73955e-30 4.66115 -7.77854e-15 1.43347e-15 0.122389 -5.73134e-15 -1.34906e-15)
(1.86099e-15 -1.2524e-29 -3.49949e-30 4.55829 1.51651e-14 -1.28965e-14 0.121438 -4.02793e-16 -3.49212e-16)
(0 7.20075e-30 2.70028e-30 4.55829 -9.09109e-15 1.28765e-15 0.121438 -5.79585e-15 -1.33329e-15)
(-1.86955e-15 1.24079e-29 8.10585e-31 4.45838 1.50404e-14 -1.30169e-14 0.120513 -4.08465e-16 -3.57277e-16)
(0 0 1.77439e-30 4.45838 -9.63081e-15 1.23421e-15 0.120513 -5.89229e-15 -1.31971e-15)
(-1.87804e-15 1.92917e-29 2.57106e-30 4.36131 1.49247e-14 -1.31409e-14 0.119612 -4.07776e-16 -3.6632e-16)
(7.51214e-15 -1.39916e-29 -1.74895e-30 4.36131 -8.25047e-15 1.2719e-15 0.119612 -5.97012e-15 -1.30519e-15)
(-1.88646e-15 1.908e-29 2.55805e-30 4.26696 1.52255e-14 -1.32626e-14 0.118735 -4.14013e-16 -3.74593e-16)
(5.6049e-15 0 0 4.26696 -9.05094e-15 1.21553e-15 0.118735 -6.03111e-15 -1.28919e-15)
(-3.78963e-15 1.05517e-29 1.69258e-30 4.17525 1.60922e-14 -1.33679e-14 0.11788 -4.36649e-16 -3.83061e-16)
(0 0 0 4.17525 -9.57578e-15 1.33373e-15 0.11788 -6.1093e-15 -1.27685e-15)
(-5.67448e-15 1.86593e-29 4.20846e-30 4.08607 1.65524e-14 -1.34704e-14 0.117048 -4.75616e-16 -3.91499e-16)
(0 -6.69931e-30 -1.67483e-30 4.08607 -9.54441e-15 1.57167e-15 0.117048 -6.17336e-15 -1.26247e-15)
(1.85866e-15 -1.32066e-29 -1.65082e-30 3.99934 1.57468e-14 -1.35667e-14 0.116237 -4.76092e-16 -3.9994e-16)
(-7.64538e-15 1.32066e-29 1.65082e-30 3.99934 -9.23819e-15 1.54459e-15 0.116237 -6.25857e-15 -1.24512e-15)
(1.91952e-15 -1.82577e-29 -5.67665e-29 3.91497 1.55037e-14 -6.56827e-15 0.115447 -4.42212e-16 -9.71787e-17)
(7.67808e-15 1.30173e-29 3.25432e-30 3.91497 -9.131e-15 1.44607e-15 0.115447 -6.3391e-15 -1.22877e-15)
(1.92764e-15 -1.16383e-29 -1.891e-30 3.83288 1.51042e-14 6.31089e-29 0.114678 -4.75551e-16 7.88861e-31)
(-7.71055e-15 6.41536e-30 1.60384e-30 3.83288 -9.06272e-15 1.4843e-15 0.114678 -6.43764e-15 -1.21225e-15)
(-1.9357e-15 1.15398e-29 5.63906e-30 3.75298 1.40718e-14 9.53557e-15 0.113927 -4.31004e-16 -2.85596e-16)
(7.74279e-15 0 -1.58085e-30 3.75298 -6.03842e-15 1.4896e-15 0.113927 -6.5226e-15 -1.19507e-15)
(0 2.49311e-29 3.11639e-30 3.67521 1.34901e-14 9.55585e-15 0.113196 -4.26132e-16 -2.95327e-16)
(-3.50874e-15 -1.86983e-29 0 3.67521 -3.90779e-15 1.39156e-15 0.113196 -6.55782e-15 -1.17754e-15)
(-3.45845e-15 1.22869e-29 4.60759e-30 3.59949 1.27216e-14 9.48027e-15 0.112482 -4.07423e-16 -2.95224e-16)
(6.07741e-15 -6.14345e-30 -1.53586e-30 3.59949 -4.14528e-15 1.27327e-15 0.112482 -6.60627e-15 -1.15987e-15)
(1.95956e-15 -2.33513e-29 -3.89282e-30 3.52574 1.32704e-14 8.98917e-15 0.111787 -3.90081e-16 -2.99205e-16)
(0 1.81662e-29 3.0277e-30 3.52574 -5.58958e-15 1.24066e-15 0.111787 -6.66126e-15 -1.14277e-15)
(0 1.19372e-29 2.9843e-30 3.45391 1.43415e-14 8.30927e-15 0.111108 -4.54516e-16 -2.72406e-16)
(-7.86964e-15 0 -1.49215e-30 3.45391 -6.72001e-15 1.24519e-15 0.111108 -6.74252e-15 -1.1256e-15)
(-1.65593e-15 5.88306e-30 0 3.38393 1.41334e-14 7.90665e-15 0.110446 -4.71137e-16 -2.63773e-16)
(0 5.88306e-30 2.94153e-30 3.38393 -6.67334e-15 1.24953e-15 0.110446 -6.82312e-15 -1.10808e-15)
(0 1.73962e-29 1.44969e-30 3.31574 1.31841e-14 7.66458e-15 0.1098 -4.54108e-16 -2.53833e-16)
(0 -5.79874e-30 0 3.31574 -6.73437e-15 1.28654e-15 0.1098 -6.9075e-15 -1.08921e-15)
(1.99067e-15 1.7731e-29 4.87872e-30 3.24927 1.28186e-14 7.59235e-15 0.10917 -4.21418e-16 -2.55304e-16)
(0 -2.28625e-29 -5.71563e-30 3.24927 -6.49247e-15 1.1876e-15 0.10917 -6.97769e-15 -1.0678e-15)
(5.16983e-15 1.17829e-29 1.9885e-30 3.18448 1.23279e-14 7.70378e-15 0.108554 -4.42598e-16 -2.56365e-16)
(-3.1715e-15 -5.63371e-30 -1.40843e-30 3.18448 -5.90922e-15 1.09868e-15 0.108554 -7.04379e-15 -1.04942e-15)
(-4.0119e-15 1.02308e-29 3.02354e-30 3.12131 1.19304e-14 7.64e-15 0.107954 -3.9997e-16 -2.70456e-16)
(8.02379e-15 0 -1.38824e-30 3.12131 -6.10307e-15 1.02019e-15 0.107954 -7.11033e-15 -1.0282e-15)
(-2.01352e-15 5.09952e-30 8.10802e-31 3.05971 1.28213e-14 7.23389e-15 0.107367 -4.27794e-16 -2.59419e-16)
(0 5.47338e-30 1.36834e-30 3.05971 -6.91011e-15 1.12865e-15 0.107367 -7.1693e-15 -1.012e-15)
(0 5.39493e-30 0 2.99962 1.34452e-14 7.08287e-15 0.106795 -4.74838e-16 -2.49591e-16)
(-3.03708e-15 -5.39493e-30 0 2.99962 -5.67611e-15 1.20263e-15 0.106795 -7.24987e-15 -9.89133e-16)
(0 1.59528e-29 2.6588e-30 2.94101 1.37718e-14 7.35478e-15 0.106236 -4.85194e-16 -2.56157e-16)
(-2.99355e-15 -5.31761e-30 -1.3294e-30 2.94101 -5.82965e-15 1.06884e-15 0.106236 -7.30161e-15 -9.70382e-16)
(0 1.57242e-29 2.6207e-30 2.88381 1.38288e-14 7.43256e-15 0.10569 -5.12574e-16 -2.76742e-16)
(0 0 0 2.88381 -6.9366e-15 1.10112e-15 0.10569 -7.38606e-15 -9.51217e-16)
(0 1.54988e-29 1.29157e-30 2.828 1.35877e-14 7.17618e-15 0.105156 -5.03629e-16 -2.69419e-16)
(1.34388e-14 -1.03325e-29 -1.29157e-30 2.828 -6.89188e-15 9.35782e-16 0.105156 -7.48699e-15 -9.27122e-16)
(-4.10152e-15 1.00554e-29 1.53815e-30 2.77352 1.42074e-14 6.85643e-15 0.104635 -5.09485e-16 -2.65594e-16)
(8.20305e-15 0 0 2.77352 -9.20462e-15 8.53518e-16 0.104635 -7.57173e-15 -9.09048e-16)
(2.05809e-15 -2.00614e-29 -3.27235e-30 2.72034 1.50585e-14 6.58054e-15 0.104126 -5.65594e-16 -2.52948e-16)
(0 1.50577e-29 2.50962e-30 2.72034 -1.13587e-14 1.16626e-15 0.104126 -7.69433e-15 -8.9307e-16)
(0 0 1.23683e-30 2.66842 1.49636e-14 6.64608e-15 0.103628 -5.90199e-16 -2.52048e-16)
(-8.26155e-15 0 -1.23683e-30 2.66842 -9.73382e-15 1.48141e-15 0.103628 -7.82403e-15 -8.75777e-16)
(-2.07265e-15 -1.94076e-29 -2.9123e-30 2.61771 1.52437e-14 6.54648e-15 0.103141 -5.74724e-16 -2.65498e-16)
(8.29058e-15 2.4382e-29 4.87639e-30 2.61771 -6.6921e-15 1.34794e-15 0.103141 -7.91874e-15 -8.50005e-16)
(2.70582e-15 1.44195e-29 2.40325e-30 2.56819 1.5876e-14 6.32687e-15 0.102666 -6.29774e-16 -2.51508e-16)
(-2.70582e-15 -4.8065e-30 -1.20163e-30 2.56819 -7.24702e-15 1.14749e-15 0.102666 -7.99531e-15 -8.30453e-16)
(2.66704e-15 -4.73761e-30 -3.55321e-30 2.51981 1.59226e-14 6.39501e-15 0.102201 -6.42601e-16 -2.55548e-16)
(0 1.42128e-29 2.36881e-30 2.51981 -9.93071e-15 1.14627e-15 0.102201 -8.10607e-15 -8.08759e-16)
(-2.09421e-15 4.91712e-30 1.89016e-30 2.47255 1.4353e-14 6.241e-15 0.101746 -6.52032e-16 -2.64455e-16)
(0 0 -1.16743e-30 2.47255 -9.18024e-15 1.38615e-15 0.101746 -8.23515e-15 -7.94098e-16)
(9.79604e-16 -2.6983e-29 -5.46851e-30 2.42636 1.14076e-14 5.97038e-15 0.101302 -5.31013e-16 -2.50238e-16)
(1.42195e-14 3.68223e-29 6.90417e-30 2.42636 -5.94105e-15 1.75582e-15 0.101302 -8.32742e-15 -7.74001e-16)
(0 1.36104e-29 1.1342e-30 2.38123 1.0617e-14 6.247e-15 0.100867 -4.22852e-16 -2.4939e-16)
(-2.554e-15 -4.53681e-30 0 2.38123 -5.93085e-15 1.65296e-15 0.100867 -8.39442e-15 -7.52819e-16)
(-2.51739e-15 1.34154e-29 4.47179e-30 2.33712 1.08374e-14 6.86561e-15 0.100442 -4.78962e-16 -2.81225e-16)
(-2.51739e-15 0 -1.11795e-30 2.33712 -6.61872e-15 1.44433e-15 0.100442 -8.49432e-15 -7.37694e-16)
(-6.36753e-15 -1.61711e-29 -2.35124e-30 2.294 1.13461e-14 6.97481e-15 0.100026 -4.54359e-16 -3.10368e-16)
(1.94614e-14 3.08539e-29 5.50962e-30 2.294 -3.85124e-15 1.35788e-15 0.100026 -8.58032e-15 -7.20201e-16)
(0 -3.47562e-29 -6.51678e-30 2.25183 1.22998e-14 6.79893e-15 0.099619 -5.37775e-16 -2.99075e-16)
(1.7036e-14 3.47562e-29 6.51678e-30 2.25183 -4.39645e-15 1.14948e-15 0.099619 -8.61895e-15 -7.03669e-16)
(-2.13647e-15 2.19823e-29 4.95184e-30 2.21061 1.14683e-14 7.1802e-15 0.0992208 -5.52837e-16 -3.03753e-16)
(-2.41069e-15 -8.56451e-30 -2.14113e-30 2.21061 -6.89792e-15 9.37307e-16 0.0992208 -8.71963e-15 -6.91762e-16)
(2.14341e-15 -3.86169e-29 -6.98602e-30 2.17029 1.10881e-14 7.59636e-15 0.0988311 -4.78189e-16 -3.4238e-16)
(1.71473e-14 3.3767e-29 6.33132e-30 2.17029 -6.0866e-15 8.35426e-16 0.0988311 -8.85118e-15 -6.80793e-16)