/*--------------------------------*- C++ -*----------------------------------*\
| =========                 |                                                 |
| \\      /  F ield         | OpenFOAM: The Open Source CFD Toolbox           |
|  \\    /   O peration     | Version:  2106                                  |
|   \\  /    A nd           | Website:  www.openfoam.com                      |
|    \\/     M anipulation  |                                                 |
\*---------------------------------------------------------------------------*/
FoamFile
{
    version     2.0;
    format      ascii;
    arch        "LSB;label=32;scalar=64";
    class       volScalarField;
    location    "14000";
    object      p;
}
// * * * * * * * * * * * * * * * * * * * * * * * * * * * * * * * * * * * * * //

dimensions      [0 2 -2 0 0 0 0];

internalField   nonuniform List<scalar> 
2560
(
2.2288e-15
6.36109e-14
4.62611e-15
6.36108e-14
5.26162e-15
6.3611e-14
5.46994e-15
6.36116e-14
5.73225e-15
6.36124e-14
6.03508e-15
6.36134e-14
6.33896e-15
6.36147e-14
6.63559e-15
6.36163e-14
6.92629e-15
6.36182e-14
7.21207e-15
6.36203e-14
7.49313e-15
6.36227e-14
7.76953e-15
6.36253e-14
8.04141e-15
6.36281e-14
8.30887e-15
6.36312e-14
8.57196e-15
6.36345e-14
8.83077e-15
6.36381e-14
9.08545e-15
6.3642e-14
9.33606e-15
6.36461e-14
9.58281e-15
6.36505e-14
9.82595e-15
6.3655e-14
1.00655e-14
6.36598e-14
1.03018e-14
6.36649e-14
1.05349e-14
6.36702e-14
1.07655e-14
6.36758e-14
1.09935e-14
6.36816e-14
1.12193e-14
6.36878e-14
1.14432e-14
6.36941e-14
1.16656e-14
6.37009e-14
1.18869e-14
6.37081e-14
1.21075e-14
6.37157e-14
1.23277e-14
6.37236e-14
1.25481e-14
6.37317e-14
1.27688e-14
6.37404e-14
1.29905e-14
6.37496e-14
1.32134e-14
6.37594e-14
1.34379e-14
6.37699e-14
1.36641e-14
6.37809e-14
1.38927e-14
6.37927e-14
1.41238e-14
6.38053e-14
1.4358e-14
6.38185e-14
1.45953e-14
6.38324e-14
1.48361e-14
6.38472e-14
1.50807e-14
6.38628e-14
1.53289e-14
6.38794e-14
1.55813e-14
6.38967e-14
1.58377e-14
6.3915e-14
1.60984e-14
6.39345e-14
1.63635e-14
6.39552e-14
1.66329e-14
6.39772e-14
1.69065e-14
6.40004e-14
1.7185e-14
6.4025e-14
1.74678e-14
6.40508e-14
1.7755e-14
6.40778e-14
1.80467e-14
6.41063e-14
1.8343e-14
6.41363e-14
1.86437e-14
6.4168e-14
1.89493e-14
6.42011e-14
1.92596e-14
6.42355e-14
1.95745e-14
6.4271e-14
1.98938e-14
6.43081e-14
2.02175e-14
6.43468e-14
2.0546e-14
6.43875e-14
2.08786e-14
6.44294e-14
2.12151e-14
6.44731e-14
2.15561e-14
6.45192e-14
2.19005e-14
6.45669e-14
2.22488e-14
6.46163e-14
2.26009e-14
6.46677e-14
2.29578e-14
6.47208e-14
2.33196e-14
6.47764e-14
2.36832e-14
6.48341e-14
2.40506e-14
6.48937e-14
2.44218e-14
6.49547e-14
2.47969e-14
6.5018e-14
2.51745e-14
6.5084e-14
2.55549e-14
6.51522e-14
2.59378e-14
6.52222e-14
2.63247e-14
6.52934e-14
2.67144e-14
6.53666e-14
2.71075e-14
6.54421e-14
2.75015e-14
6.55212e-14
2.78977e-14
6.55998e-14
2.82975e-14
6.56798e-14
2.86988e-14
6.57625e-14
2.91025e-14
6.58483e-14
2.95089e-14
6.59357e-14
2.99185e-14
6.60231e-14
3.03292e-14
6.6111e-14
3.07416e-14
6.62028e-14
3.11554e-14
6.62977e-14
3.15713e-14
6.63933e-14
3.19882e-14
6.64904e-14
3.24059e-14
6.65901e-14
3.28268e-14
6.66907e-14
3.32507e-14
6.67904e-14
3.36747e-14
6.6892e-14
3.40995e-14
6.69991e-14
3.45257e-14
6.71101e-14
3.49486e-14
6.72234e-14
3.53734e-14
6.73343e-14
3.57998e-14
6.74484e-14
3.62286e-14
6.75632e-14
3.66548e-14
6.76786e-14
3.7081e-14
6.77996e-14
3.75088e-14
6.79253e-14
3.7937e-14
6.80501e-14
3.83644e-14
6.81779e-14
3.87936e-14
6.83069e-14
3.92235e-14
6.84353e-14
3.96527e-14
6.8567e-14
4.0082e-14
6.87024e-14
4.05101e-14
6.88405e-14
4.09356e-14
6.89773e-14
4.13634e-14
6.91151e-14
4.17901e-14
6.9257e-14
4.22154e-14
6.94022e-14
4.26421e-14
6.95467e-14
4.30688e-14
6.96917e-14
4.34964e-14
6.98362e-14
4.39245e-14
6.99856e-14
4.43539e-14
7.01317e-14
4.47789e-14
7.0281e-14
4.52045e-14
7.04326e-14
4.56305e-14
7.05867e-14
4.60586e-14
7.0738e-14
4.64842e-14
7.08954e-14
4.69069e-14
7.10569e-14
4.73285e-14
7.12162e-14
4.77532e-14
7.13711e-14
4.81716e-14
7.15262e-14
4.85901e-14
7.16863e-14
4.9006e-14
7.18539e-14
4.94212e-14
7.20247e-14
4.98354e-14
7.21897e-14
5.02434e-14
7.23584e-14
5.06495e-14
7.25264e-14
5.10556e-14
7.2694e-14
5.14542e-14
7.28636e-14
5.18589e-14
7.30426e-14
5.22668e-14
7.32126e-14
5.26752e-14
7.33713e-14
5.3086e-14
7.35403e-14
5.34965e-14
7.37103e-14
5.3911e-14
7.38698e-14
5.43288e-14
7.40332e-14
5.4745e-14
7.42032e-14
5.51638e-14
7.43705e-14
5.55872e-14
7.4533e-14
5.60098e-14
7.46957e-14
5.64338e-14
7.48588e-14
5.68585e-14
7.50227e-14
5.72836e-14
7.51899e-14
5.77086e-14
7.53608e-14
5.81354e-14
7.55308e-14
5.85491e-14
7.56977e-14
5.89636e-14
7.58568e-14
5.93785e-14
7.60183e-14
5.97933e-14
7.6197e-14
6.021e-14
7.63786e-14
6.06256e-14
7.65438e-14
6.10371e-14
7.6705e-14
6.1444e-14
7.68699e-14
6.18557e-14
7.70338e-14
6.22717e-14
7.71996e-14
6.26816e-14
7.73624e-14
6.30998e-14
7.75176e-14
6.35208e-14
7.76753e-14
6.39343e-14
7.78307e-14
6.43449e-14
7.79841e-14
6.4757e-14
7.81407e-14
6.51702e-14
7.83006e-14
6.55891e-14
7.84591e-14
6.60084e-14
7.86113e-14
6.64226e-14
7.87625e-14
6.68414e-14
7.89128e-14
6.72595e-14
7.90572e-14
6.76715e-14
7.9201e-14
6.80872e-14
7.93442e-14
6.85014e-14
7.94969e-14
6.89086e-14
7.96593e-14
6.93136e-14
7.98164e-14
6.97212e-14
7.99682e-14
7.01209e-14
8.01249e-14
7.05227e-14
8.02865e-14
7.09212e-14
8.04482e-14
7.13162e-14
8.05999e-14
7.17226e-14
8.07466e-14
7.21151e-14
8.08933e-14
7.25086e-14
8.104e-14
7.2893e-14
8.12017e-14
7.32781e-14
8.13581e-14
7.36588e-14
8.15043e-14
7.40399e-14
8.16501e-14
7.44265e-14
8.18106e-14
7.48085e-14
8.19755e-14
7.51908e-14
8.21044e-14
7.55584e-14
8.22522e-14
7.59265e-14
8.24289e-14
7.6295e-14
8.25941e-14
7.6659e-14
8.27425e-14
7.70184e-14
8.29092e-14
7.73582e-14
8.30838e-14
7.77085e-14
8.32562e-14
7.80592e-14
8.34312e-14
7.84103e-14
8.36036e-14
7.87619e-14
8.37831e-14
7.9114e-14
8.39695e-14
7.94667e-14
8.41524e-14
7.98201e-14
8.43217e-14
8.01646e-14
8.45067e-14
8.05004e-14
8.4707e-14
8.08375e-14
8.48928e-14
8.11761e-14
8.50634e-14
8.15067e-14
8.52582e-14
8.18492e-14
8.5447e-14
8.21742e-14
8.5659e-14
8.25014e-14
8.58646e-14
8.28212e-14
8.60436e-14
8.3134e-14
8.62349e-14
8.34399e-14
8.64578e-14
8.37583e-14
8.66533e-14
8.40698e-14
8.6831e-14
8.43749e-14
8.70388e-14
8.46834e-14
8.72572e-14
8.49759e-14
8.7447e-14
8.5272e-14
8.76177e-14
8.55626e-14
8.7817e-14
8.58482e-14
8.80156e-14
8.61479e-14
8.8223e-14
8.64335e-14
8.84194e-14
8.67244e-14
8.85948e-14
8.70119e-14
8.87868e-14
8.73061e-14
8.90139e-14
8.75978e-14
8.92186e-14
8.78783e-14
8.9391e-14
8.81487e-14
8.95872e-14
8.84284e-14
8.97783e-14
8.86901e-14
8.99827e-14
8.89529e-14
9.01626e-14
8.92178e-14
9.03451e-14
8.94858e-14
9.05386e-14
8.97578e-14
9.07143e-14
9.00354e-14
9.08805e-14
9.03111e-14
9.10721e-14
9.05677e-14
9.1288e-14
9.08334e-14
9.14908e-14
9.1091e-14
9.16801e-14
9.13787e-14
9.18185e-14
9.16088e-14
9.19573e-14
9.18375e-14
9.21127e-14
9.20301e-14
9.23008e-14
9.22767e-14
9.24857e-14
9.24897e-14
9.26662e-14
9.27057e-14
9.28595e-14
9.29081e-14
9.30297e-14
9.31151e-14
9.31763e-14
9.32934e-14
9.33503e-14
9.34605e-14
9.35689e-14
9.36491e-14
9.37813e-14
9.38236e-14
9.39367e-14
9.4002e-14
9.41036e-14
9.41663e-14
9.42471e-14
9.43169e-14
9.43841e-14
9.45222e-14
9.45478e-14
9.47157e-14
9.47364e-14
9.49315e-14
9.48988e-14
9.5088e-14
9.50499e-14
9.52684e-14
9.52052e-14
9.54572e-14
9.53965e-14
9.56057e-14
9.56076e-14
9.57447e-14
9.57921e-14
9.58723e-14
9.5904e-14
9.60056e-14
9.60243e-14
9.61617e-14
9.62003e-14
9.634e-14
9.63997e-14
9.65237e-14
9.65757e-14
9.66666e-14
9.66972e-14
9.67859e-14
9.6826e-14
9.69432e-14
9.69779e-14
9.70917e-14
9.71677e-14
9.72914e-14
9.73517e-14
9.7482e-14
9.7469e-14
9.76224e-14
9.75926e-14
9.77886e-14
9.77363e-14
9.79364e-14
9.79427e-14
9.8077e-14
9.81552e-14
9.81908e-14
9.82907e-14
9.83629e-14
9.84252e-14
9.84911e-14
9.86146e-14
9.86578e-14
9.87769e-14
9.88343e-14
9.89128e-14
9.89661e-14
9.90482e-14
9.91665e-14
9.91827e-14
9.92729e-14
9.93106e-14
9.93685e-14
9.94323e-14
9.95333e-14
9.95776e-14
9.97147e-14
9.96903e-14
9.98102e-14
9.97917e-14
9.99523e-14
9.99362e-14
1.00011e-13
1.00044e-13
1.00085e-13
1.00147e-13
1.00166e-13
1.00275e-13
1.00298e-13
1.00382e-13
1.00434e-13
1.00494e-13
1.00477e-13
1.00582e-13
1.00647e-13
1.00652e-13
1.00758e-13
1.00743e-13
1.00841e-13
1.00824e-13
1.00898e-13
1.0092e-13
1.0097e-13
1.00987e-13
1.0101e-13
1.01073e-13
1.01035e-13
1.01136e-13
1.01107e-13
1.01182e-13
1.01161e-13
1.01231e-13
1.01149e-13
1.01283e-13
1.01174e-13
1.0128e-13
1.01191e-13
1.01265e-13
1.01226e-13
1.01278e-13
1.01221e-13
1.01225e-13
1.01227e-13
1.01229e-13
6.50468e-14
6.86548e-14
6.50469e-14
6.86549e-14
6.50471e-14
6.8655e-14
6.50475e-14
6.86552e-14
6.50482e-14
6.86556e-14
6.5049e-14
6.8656e-14
6.50501e-14
6.86565e-14
6.50513e-14
6.86572e-14
6.50527e-14
6.8658e-14
6.50544e-14
6.86589e-14
6.50562e-14
6.86599e-14
6.50583e-14
6.8661e-14
6.50606e-14
6.86622e-14
6.50631e-14
6.86636e-14
6.50657e-14
6.86651e-14
6.50686e-14
6.86667e-14
6.50716e-14
6.86685e-14
6.50749e-14
6.86704e-14
6.50784e-14
6.86724e-14
6.50821e-14
6.86746e-14
6.50861e-14
6.86769e-14
6.50903e-14
6.86794e-14
6.50948e-14
6.86821e-14
6.50995e-14
6.86848e-14
6.51047e-14
6.86877e-14
6.511e-14
6.86907e-14
6.51156e-14
6.8694e-14
6.51216e-14
6.86975e-14
6.51279e-14
6.87013e-14
6.51345e-14
6.87052e-14
6.51414e-14
6.87092e-14
6.51486e-14
6.87134e-14
6.51564e-14
6.87182e-14
6.51646e-14
6.87233e-14
6.51731e-14
6.87288e-14
6.5182e-14
6.87346e-14
6.51916e-14
6.87407e-14
6.52016e-14
6.87473e-14
6.52122e-14
6.8754e-14
6.52234e-14
6.87611e-14
6.52352e-14
6.87688e-14
6.52475e-14
6.87771e-14
6.52603e-14
6.87858e-14
6.52741e-14
6.87948e-14
6.52885e-14
6.88047e-14
6.53036e-14
6.8815e-14
6.53195e-14
6.88261e-14
6.53362e-14
6.88379e-14
6.53537e-14
6.88501e-14
6.53721e-14
6.88629e-14
6.53913e-14
6.88764e-14
6.54115e-14
6.88907e-14
6.54328e-14
6.89057e-14
6.5455e-14
6.89213e-14
6.54782e-14
6.89377e-14
6.55025e-14
6.89549e-14
6.55277e-14
6.8973e-14
6.55539e-14
6.89924e-14
6.5581e-14
6.90124e-14
6.56091e-14
6.90331e-14
6.56382e-14
6.90545e-14
6.56686e-14
6.90772e-14
6.57001e-14
6.91012e-14
6.57326e-14
6.91253e-14
6.57663e-14
6.91513e-14
6.5802e-14
6.91788e-14
6.58385e-14
6.92064e-14
6.58762e-14
6.92361e-14
6.59155e-14
6.92657e-14
6.5956e-14
6.92962e-14
6.59977e-14
6.93282e-14
6.60417e-14
6.93614e-14
6.60864e-14
6.93968e-14
6.61328e-14
6.94333e-14
6.61798e-14
6.94714e-14
6.62287e-14
6.95098e-14
6.62792e-14
6.95495e-14
6.63317e-14
6.9591e-14
6.63856e-14
6.96325e-14
6.64396e-14
6.9675e-14
6.64958e-14
6.97193e-14
6.65537e-14
6.97648e-14
6.66127e-14
6.98113e-14
6.66743e-14
6.98586e-14
6.67379e-14
6.99083e-14
6.68024e-14
6.99587e-14
6.68683e-14
7.00111e-14
6.69356e-14
7.00636e-14
6.70034e-14
7.01177e-14
6.70744e-14
7.01734e-14
6.71477e-14
7.02292e-14
6.72217e-14
7.02867e-14
6.72981e-14
7.03451e-14
6.73761e-14
7.04035e-14
6.74558e-14
7.04646e-14
6.75371e-14
7.05293e-14
6.76192e-14
7.05976e-14
6.77031e-14
7.0667e-14
6.77906e-14
7.07328e-14
6.7879e-14
7.08005e-14
6.79692e-14
7.08721e-14
6.80577e-14
7.09447e-14
6.815e-14
7.10203e-14
6.82462e-14
7.10961e-14
6.83406e-14
7.11739e-14
6.8439e-14
7.1252e-14
6.85357e-14
7.13321e-14
6.86335e-14
7.14174e-14
6.87336e-14
7.1502e-14
6.88379e-14
7.15858e-14
6.89426e-14
7.16759e-14
6.90496e-14
7.17622e-14
6.91592e-14
7.18477e-14
6.92701e-14
7.19356e-14
6.93847e-14
7.20258e-14
6.95019e-14
7.21185e-14
6.96156e-14
7.22135e-14
6.9732e-14
7.231e-14
6.9849e-14
7.241e-14
6.99668e-14
7.25104e-14
7.00875e-14
7.26123e-14
7.02091e-14
7.27135e-14
7.03326e-14
7.28184e-14
7.04592e-14
7.29282e-14
7.05901e-14
7.30385e-14
7.07232e-14
7.31514e-14
7.08541e-14
7.32628e-14
7.09873e-14
7.33791e-14
7.11251e-14
7.34938e-14
7.12675e-14
7.36046e-14
7.14081e-14
7.3725e-14
7.15489e-14
7.38484e-14
7.16924e-14
7.39679e-14
7.18387e-14
7.40835e-14
7.19879e-14
7.42066e-14
7.21423e-14
7.43305e-14
7.2302e-14
7.44574e-14
7.2465e-14
7.45827e-14
7.26242e-14
7.47135e-14
7.27869e-14
7.48427e-14
7.29577e-14
7.49656e-14
7.31228e-14
7.5094e-14
7.3294e-14
7.52349e-14
7.3469e-14
7.53719e-14
7.36457e-14
7.55027e-14
7.38194e-14
7.5639e-14
7.3995e-14
7.57809e-14
7.4175e-14
7.59284e-14
7.43547e-14
7.60744e-14
7.45366e-14
7.62141e-14
7.47161e-14
7.6357e-14
7.4898e-14
7.64984e-14
7.50778e-14
7.66505e-14
7.52603e-14
7.68083e-14
7.54432e-14
7.69573e-14
7.56267e-14
7.71048e-14
7.58158e-14
7.72607e-14
7.59959e-14
7.742e-14
7.61795e-14
7.75828e-14
7.6369e-14
7.77442e-14
7.65549e-14
7.79067e-14
7.67371e-14
7.80679e-14
7.69332e-14
7.82204e-14
7.7126e-14
7.83765e-14
7.73207e-14
7.85412e-14
7.75024e-14
7.87047e-14
7.76763e-14
7.8872e-14
7.78523e-14
7.90381e-14
7.80257e-14
7.91931e-14
7.81963e-14
7.93422e-14
7.83595e-14
7.95053e-14
7.85252e-14
7.96576e-14
7.86986e-14
7.9799e-14
7.88696e-14
7.99446e-14
7.90234e-14
8.01045e-14
7.91851e-14
8.02537e-14
7.93548e-14
8.04024e-14
7.95173e-14
8.05657e-14
7.96879e-14
8.07186e-14
7.98615e-14
8.08663e-14
8.00383e-14
8.10237e-14
8.02033e-14
8.11861e-14
8.03714e-14
8.13485e-14
8.05378e-14
8.14958e-14
8.06975e-14
8.16483e-14
8.08655e-14
8.18162e-14
8.10418e-14
8.19795e-14
8.12265e-14
8.21434e-14
8.13995e-14
8.23029e-14
8.15809e-14
8.24682e-14
8.17658e-14
8.26244e-14
8.19441e-14
8.27815e-14
8.21211e-14
8.29447e-14
8.23016e-14
8.31142e-14
8.24807e-14
8.3285e-14
8.26634e-14
8.34473e-14
8.28548e-14
8.36062e-14
8.30147e-14
8.3782e-14
8.31832e-14
8.39446e-14
8.33753e-14
8.40894e-14
8.3561e-14
8.42463e-14
8.37404e-14
8.44255e-14
8.39085e-14
8.46171e-14
8.40901e-14
8.47964e-14
8.42851e-14
8.49637e-14
8.44736e-14
8.51491e-14
8.46655e-14
8.53427e-14
8.48606e-14
8.55149e-14
8.5049e-14
8.56958e-14
8.52306e-14
8.58854e-14
8.54053e-14
8.60743e-14
8.55726e-14
8.62826e-14
8.5762e-14
8.64613e-14
8.5983e-14
8.66307e-14
8.61964e-14
8.68102e-14
8.63924e-14
8.70098e-14
8.65807e-14
8.72001e-14
8.67711e-14
8.73814e-14
8.6983e-14
8.75737e-14
8.71967e-14
8.77672e-14
8.74125e-14
8.79522e-14
8.76109e-14
8.81385e-14
8.78212e-14
8.83166e-14
8.80241e-14
8.84865e-14
8.82392e-14
8.86575e-14
8.84281e-14
8.88392e-14
8.85909e-14
8.89931e-14
8.8795e-14
8.91387e-14
8.89926e-14
8.93331e-14
8.91836e-14
8.95283e-14
8.93678e-14
8.96863e-14
8.95548e-14
8.98359e-14
8.97354e-14
9.00338e-14
8.99184e-14
9.02136e-14
9.0094e-14
9.03662e-14
9.02717e-14
9.05197e-14
9.0461e-14
9.06646e-14
9.06339e-14
9.08377e-14
9.08089e-14
9.10295e-14
9.09762e-14
9.12127e-14
9.11443e-14
9.13878e-14
9.13219e-14
9.15551e-14
9.15085e-14
9.17242e-14
9.17132e-14
9.19043e-14
9.19084e-14
9.20951e-14
9.20938e-14
9.226e-14
9.22329e-14
9.24351e-14
9.24337e-14
9.26032e-14
9.26412e-14
9.27462e-14
9.28387e-14
9.28994e-14
9.29733e-14
9.30621e-14
9.31161e-14
9.3217e-14
9.32836e-14
9.33644e-14
9.34226e-14
9.35394e-14
9.36201e-14
9.36896e-14
9.37712e-14
9.38318e-14
9.39464e-14
9.39836e-14
9.4146e-14
9.41618e-14
9.43017e-14
9.43306e-14
9.4448e-14
9.45073e-14
9.467e-14
9.4659e-14
9.48329e-14
9.47837e-14
9.49557e-14
9.49318e-14
9.5123e-14
9.50872e-14
9.52838e-14
9.52665e-14
9.5454e-14
9.54366e-14
9.56332e-14
9.56147e-14
9.57886e-14
9.57681e-14
9.5904e-14
9.59138e-14
9.60435e-14
9.60691e-14
9.61734e-14
9.62008e-14
9.62776e-14
9.63086e-14
9.63722e-14
9.64418e-14
9.64872e-14
9.66184e-14
9.6635e-14
9.67931e-14
9.67655e-14
9.69351e-14
9.6893e-14
9.70768e-14
9.7032e-14
9.72042e-14
9.71833e-14
9.73488e-14
9.73003e-14
9.74948e-14
9.74581e-14
9.76279e-14
9.76256e-14
9.77308e-14
9.78052e-14
9.78614e-14
9.79706e-14
9.80173e-14
9.81224e-14
9.81981e-14
9.82742e-14
9.83602e-14
9.84405e-14
9.84884e-14
9.864e-14
9.86253e-14
9.87898e-14
9.87667e-14
9.89213e-14
9.89107e-14
9.90905e-14
9.90576e-14
9.9213e-14
9.92063e-14
9.93442e-14
9.93591e-14
9.9452e-14
9.95187e-14
9.95607e-14
9.96347e-14
9.96703e-14
9.97639e-14
9.98317e-14
9.98802e-14
9.99927e-14
9.99807e-14
1.00027e-13
1.00088e-13
1.00165e-13
1.00206e-13
1.00359e-13
1.00282e-13
1.00492e-13
1.00356e-13
1.00524e-13
1.00447e-13
1.00601e-13
1.00557e-13
1.00716e-13
1.0064e-13
1.00776e-13
1.00743e-13
1.0082e-13
1.00846e-13
1.0089e-13
1.00957e-13
1.01004e-13
1.01033e-13
1.01045e-13
1.01094e-13
1.0111e-13
1.01167e-13
1.01197e-13
1.0123e-13
1.01219e-13
1.01278e-13
1.01287e-13
1.01317e-13
1.01335e-13
1.01342e-13
1.01396e-13
1.01349e-13
1.01387e-13
1.01331e-13
1.01355e-13
1.01356e-13
1.01356e-13
1.01388e-13
1.01339e-13
1.01391e-13
1.01245e-13
1.01264e-13
1.01233e-13
1.01269e-13
1.01277e-13
1.01268e-13
1.01271e-13
1.01275e-13
1.01211e-13
1.01249e-13
1.01252e-13
1.01264e-13
1.0126e-13
1.01271e-13
1.01258e-13
1.01267e-13
1.01271e-13
1.01275e-13
1.01277e-13
1.01321e-13
1.01224e-13
1.01295e-13
1.01204e-13
1.01248e-13
1.01193e-13
1.01249e-13
1.01142e-13
1.01254e-13
1.01118e-13
1.0127e-13
1.01092e-13
1.01227e-13
1.01043e-13
1.01197e-13
1.01045e-13
1.01156e-13
1.01029e-13
1.01124e-13
1.00969e-13
1.01049e-13
1.00918e-13
1.01028e-13
1.00903e-13
1.0104e-13
1.00923e-13
1.01007e-13
1.00903e-13
1.01032e-13
1.00898e-13
1.01011e-13
1.00961e-13
1.0097e-13
1.00967e-13
1.00954e-13
1.00944e-13
1.00935e-13
1.0095e-13
1.00966e-13
1.00952e-13
1.00968e-13
1.0092e-13
1.0091e-13
1.00941e-13
1.00905e-13
1.0096e-13
1.00924e-13
1.00919e-13
1.0094e-13
1.0092e-13
1.00911e-13
1.0089e-13
1.00893e-13
1.00829e-13
1.00889e-13
1.00761e-13
1.00884e-13
1.0076e-13
1.00869e-13
1.00749e-13
1.00872e-13
1.00698e-13
1.00865e-13
1.00697e-13
1.0085e-13
1.00764e-13
1.00828e-13
1.00718e-13
1.00824e-13
1.0076e-13
1.0081e-13
1.00751e-13
1.00813e-13
1.00724e-13
1.00771e-13
1.00711e-13
1.00764e-13
1.00727e-13
1.0076e-13
1.0076e-13
1.00759e-13
1.00744e-13
1.00708e-13
1.00681e-13
1.00689e-13
1.00667e-13
1.00669e-13
1.00686e-13
1.00665e-13
1.00658e-13
1.00641e-13
1.00613e-13
1.0063e-13
1.00618e-13
1.00652e-13
1.0064e-13
1.00655e-13
1.00645e-13
1.0064e-13
1.00617e-13
1.0064e-13
1.00608e-13
1.00655e-13
1.006e-13
1.00652e-13
1.0054e-13
1.0065e-13
1.00548e-13
1.00649e-13
1.00534e-13
1.00651e-13
1.00501e-13
1.00638e-13
1.00446e-13
1.00629e-13
1.00421e-13
1.00643e-13
1.00425e-13
1.00664e-13
1.00405e-13
1.00673e-13
1.00432e-13
1.00671e-13
1.00452e-13
1.00656e-13
1.00448e-13
1.00647e-13
1.0044e-13
1.00625e-13
1.00427e-13
1.00606e-13
1.00446e-13
1.00628e-13
1.00461e-13
1.00636e-13
1.00454e-13
1.00592e-13
1.00443e-13
1.00559e-13
1.00468e-13
1.00594e-13
1.0048e-13
1.00621e-13
1.00481e-13
1.00633e-13
1.00489e-13
1.00628e-13
1.00503e-13
1.00636e-13
1.00506e-13
1.00655e-13
1.00516e-13
1.00649e-13
1.00515e-13
1.00644e-13
1.00502e-13
1.00652e-13
1.00506e-13
1.00661e-13
1.00508e-13
1.00654e-13
1.00528e-13
1.00649e-13
1.00536e-13
1.00656e-13
1.00533e-13
1.00655e-13
1.00539e-13
1.00626e-13
1.00534e-13
1.00608e-13
1.00528e-13
1.0063e-13
1.0053e-13
1.00633e-13
1.00531e-13
1.00627e-13
1.00531e-13
1.00622e-13
1.0053e-13
1.00597e-13
1.00528e-13
1.00602e-13
1.00534e-13
1.00616e-13
1.0053e-13
1.00611e-13
1.00535e-13
1.00606e-13
1.0053e-13
1.0061e-13
1.00524e-13
1.00614e-13
1.00526e-13
1.00619e-13
1.00538e-13
1.00613e-13
1.0053e-13
1.00617e-13
1.0053e-13
1.0063e-13
1.0053e-13
1.00633e-13
1.00519e-13
1.00647e-13
1.00517e-13
1.0062e-13
1.00524e-13
1.00604e-13
1.0053e-13
1.00617e-13
1.00525e-13
1.0062e-13
1.0053e-13
1.00603e-13
1.00534e-13
1.00586e-13
1.00533e-13
1.00579e-13
1.00526e-13
1.00587e-13
1.00529e-13
1.00589e-13
1.00526e-13
1.00601e-13
1.00528e-13
1.00603e-13
1.00539e-13
1.006e-13
1.0054e-13
1.00602e-13
1.00536e-13
1.0062e-13
1.00546e-13
1.00612e-13
1.00566e-13
1.00594e-13
1.00555e-13
1.00591e-13
1.00555e-13
1.00598e-13
1.0057e-13
1.00604e-13
1.00569e-13
1.00611e-13
1.00558e-13
1.00613e-13
1.00562e-13
1.0062e-13
1.00561e-13
1.00632e-13
1.00565e-13
1.00618e-13
1.00563e-13
1.00605e-13
1.00561e-13
1.00617e-13
1.00565e-13
1.00634e-13
1.00573e-13
1.00652e-13
1.00576e-13
1.00659e-13
1.00573e-13
1.00661e-13
1.00571e-13
1.00664e-13
1.00573e-13
1.00662e-13
1.0057e-13
1.00664e-13
1.00567e-13
1.00673e-13
1.00564e-13
1.00671e-13
1.00565e-13
1.00669e-13
1.00552e-13
1.00668e-13
1.00548e-13
1.00672e-13
1.00538e-13
1.00661e-13
1.00524e-13
1.00651e-13
1.00514e-13
1.00645e-13
1.00504e-13
1.0065e-13
1.00503e-13
1.00645e-13
1.00503e-13
1.00641e-13
1.00497e-13
1.00641e-13
1.0049e-13
1.00642e-13
1.00488e-13
1.00634e-13
1.00486e-13
1.00625e-13
1.00487e-13
1.00619e-13
1.00489e-13
1.00616e-13
1.00496e-13
1.00606e-13
1.0049e-13
1.00603e-13
1.00487e-13
1.00595e-13
1.00486e-13
1.00593e-13
1.00485e-13
1.00588e-13
1.00491e-13
1.00588e-13
1.00489e-13
1.00578e-13
1.0048e-13
1.00559e-13
1.00476e-13
1.00548e-13
1.00477e-13
1.00541e-13
1.00479e-13
1.00538e-13
1.00475e-13
1.00536e-13
1.0047e-13
1.00529e-13
1.00466e-13
1.00527e-13
1.00463e-13
1.00528e-13
1.00456e-13
1.00518e-13
1.00452e-13
1.00507e-13
1.00447e-13
1.00509e-13
1.00447e-13
1.00512e-13
1.00444e-13
1.00505e-13
1.00439e-13
1.00503e-13
1.00437e-13
1.00503e-13
1.00434e-13
1.00499e-13
1.00431e-13
1.00488e-13
1.00424e-13
1.00481e-13
1.00421e-13
1.00479e-13
1.00416e-13
1.00477e-13
1.00411e-13
1.00473e-13
1.00404e-13
1.00468e-13
1.00397e-13
1.00462e-13
1.00392e-13
1.00455e-13
1.00387e-13
1.00451e-13
1.00382e-13
1.00447e-13
1.00374e-13
1.00445e-13
1.00369e-13
1.00438e-13
1.00364e-13
1.00432e-13
1.0036e-13
1.00429e-13
1.00355e-13
1.00429e-13
1.0035e-13
1.00424e-13
1.00345e-13
1.00419e-13
1.00343e-13
1.00413e-13
1.00338e-13
1.00415e-13
1.00332e-13
1.00417e-13
1.00328e-13
1.00419e-13
1.00323e-13
1.0042e-13
1.00318e-13
1.0042e-13
1.00314e-13
1.0042e-13
1.00312e-13
1.0042e-13
1.00308e-13
1.00421e-13
1.00306e-13
1.00421e-13
1.00304e-13
1.00421e-13
1.00303e-13
1.00417e-13
1.00301e-13
1.00417e-13
1.00298e-13
1.00417e-13
1.00295e-13
1.00413e-13
1.00294e-13
1.00411e-13
1.00295e-13
1.00408e-13
1.00294e-13
1.0041e-13
1.00291e-13
1.00411e-13
1.0029e-13
1.00409e-13
1.00289e-13
1.00407e-13
1.00289e-13
1.00407e-13
1.00288e-13
1.00404e-13
1.00288e-13
1.00401e-13
1.00287e-13
1.00399e-13
1.00288e-13
1.00398e-13
1.00286e-13
1.00399e-13
1.00283e-13
1.00401e-13
1.00282e-13
1.00399e-13
1.0028e-13
1.00396e-13
1.0028e-13
1.00394e-13
1.00279e-13
1.00393e-13
1.0028e-13
1.00392e-13
1.00281e-13
1.0039e-13
1.00283e-13
1.00387e-13
1.00283e-13
1.00384e-13
1.00283e-13
1.00382e-13
1.00284e-13
1.0038e-13
1.00285e-13
1.0038e-13
1.00286e-13
1.00379e-13
1.00286e-13
1.00379e-13
1.00286e-13
1.00378e-13
1.00286e-13
1.00377e-13
1.00287e-13
1.00376e-13
1.00288e-13
1.00376e-13
1.00289e-13
1.00375e-13
1.00289e-13
1.00374e-13
1.00289e-13
1.00374e-13
1.0029e-13
1.00374e-13
1.00291e-13
1.00374e-13
1.00292e-13
1.00372e-13
1.00294e-13
1.00371e-13
1.00294e-13
1.00372e-13
1.00295e-13
1.00372e-13
1.00296e-13
1.00373e-13
1.00297e-13
1.00372e-13
1.00297e-13
1.00371e-13
1.00298e-13
1.0037e-13
1.00299e-13
1.0037e-13
1.00299e-13
1.00369e-13
1.003e-13
1.0037e-13
1.00301e-13
1.0037e-13
1.00301e-13
1.00369e-13
1.00302e-13
1.00369e-13
1.00303e-13
1.00368e-13
1.00303e-13
1.00368e-13
1.00304e-13
1.00368e-13
1.00304e-13
1.00368e-13
1.00304e-13
1.00368e-13
1.00305e-13
1.00368e-13
1.00305e-13
1.00367e-13
1.00305e-13
1.00367e-13
1.00305e-13
1.00368e-13
1.00305e-13
1.00368e-13
1.00305e-13
1.00368e-13
1.00306e-13
1.00368e-13
1.00306e-13
1.00368e-13
1.00306e-13
1.00368e-13
1.00306e-13
1.00368e-13
1.00306e-13
1.00369e-13
1.00307e-13
1.00369e-13
1.00307e-13
1.00369e-13
1.00307e-13
1.00369e-13
1.00307e-13
1.00368e-13
1.00307e-13
1.00369e-13
1.00308e-13
1.00369e-13
1.00308e-13
1.00368e-13
1.00308e-13
1.00368e-13
1.00308e-13
1.00368e-13
1.00308e-13
1.00368e-13
1.00308e-13
1.00368e-13
1.00308e-13
1.00368e-13
1.00308e-13
1.00368e-13
1.00308e-13
1.00368e-13
1.00308e-13
1.00368e-13
1.00308e-13
1.00368e-13
1.00308e-13
1.00368e-13
1.00308e-13
1.00368e-13
1.00308e-13
1.00368e-13
1.00308e-13
1.00368e-13
1.00308e-13
1.00368e-13
1.00308e-13
1.00368e-13
1.00308e-13
1.00368e-13
1.00308e-13
1.00368e-13
1.00308e-13
1.00368e-13
1.00308e-13
1.00368e-13
1.00308e-13
1.00368e-13
1.00308e-13
1.00368e-13
1.00308e-13
1.00368e-13
1.00308e-13
1.00368e-13
1.00308e-13
1.00368e-13
1.00308e-13
1.00368e-13
1.00308e-13
1.00368e-13
1.00308e-13
1.00368e-13
1.00308e-13
1.00368e-13
1.00308e-13
1.00368e-13
1.00308e-13
1.00368e-13
1.00308e-13
1.00368e-13
1.01301e-13
1.01395e-13
1.0132e-13
1.01425e-13
1.01352e-13
1.01416e-13
1.01358e-13
1.01429e-13
1.01335e-13
1.01395e-13
1.0136e-13
1.01404e-13
1.01387e-13
1.01453e-13
1.01365e-13
1.01453e-13
1.01363e-13
1.01431e-13
1.01358e-13
1.01404e-13
1.01328e-13
1.01388e-13
1.0137e-13
1.01335e-13
1.01328e-13
1.01309e-13
1.01322e-13
1.01283e-13
1.01304e-13
1.01279e-13
1.01224e-13
1.01248e-13
1.01225e-13
1.0122e-13
1.01184e-13
1.01193e-13
1.01174e-13
1.01142e-13
1.01149e-13
1.01141e-13
1.01081e-13
1.01143e-13
1.0104e-13
1.01104e-13
1.01027e-13
1.01072e-13
1.00959e-13
1.01102e-13
1.00991e-13
1.01066e-13
1.0102e-13
1.01038e-13
1.00995e-13
1.01013e-13
1.00942e-13
1.01049e-13
1.01021e-13
1.01069e-13
1.01072e-13
1.01039e-13
1.01072e-13
1.01009e-13
1.01082e-13
1.00979e-13
1.01075e-13
1.00972e-13
1.00961e-13
1.0099e-13
1.00934e-13
1.00982e-13
1.00949e-13
1.00979e-13
1.00904e-13
1.00995e-13
1.00841e-13
1.0099e-13
1.00863e-13
1.00966e-13
1.00851e-13
1.00919e-13
1.00822e-13
1.00893e-13
1.00777e-13
1.00855e-13
1.00777e-13
1.00822e-13
1.00791e-13
1.00821e-13
1.00758e-13
1.00854e-13
1.00752e-13
1.00781e-13
1.00744e-13
1.00741e-13
1.00689e-13
1.00731e-13
1.0068e-13
1.00722e-13
1.00749e-13
1.00731e-13
1.00721e-13
1.00722e-13
1.00659e-13
1.00714e-13
1.00644e-13
1.00741e-13
1.00608e-13
1.0079e-13
1.00631e-13
1.00781e-13
1.00632e-13
1.0078e-13
1.0061e-13
1.00769e-13
1.00584e-13
1.00783e-13
1.00515e-13
1.00789e-13
1.00487e-13
1.00788e-13
1.00448e-13
1.00781e-13
1.00466e-13
1.00751e-13
1.00508e-13
1.00714e-13
1.00544e-13
1.00683e-13
1.00524e-13
1.00656e-13
1.00501e-13
1.00633e-13
1.00491e-13
1.00578e-13
1.0048e-13
1.00559e-13
1.00521e-13
1.00577e-13
1.00526e-13
1.00613e-13
1.00531e-13
1.00632e-13
1.00517e-13
1.006e-13
1.00537e-13
1.00568e-13
1.0054e-13
1.00572e-13
1.00525e-13
1.00577e-13
1.0051e-13
1.00582e-13
1.00512e-13
1.00607e-13
1.00513e-13
1.00606e-13
1.00504e-13
1.00578e-13
1.00484e-13
1.00571e-13
1.00491e-13
1.00565e-13
1.00525e-13
1.00587e-13
1.00521e-13
1.00611e-13
1.00525e-13
1.00598e-13
1.00528e-13
1.00595e-13
1.00521e-13
1.00593e-13
1.00513e-13
1.0062e-13
1.00504e-13
1.00629e-13
1.00511e-13
1.00611e-13
1.00518e-13
1.00585e-13
1.00514e-13
1.00588e-13
1.00528e-13
1.0061e-13
1.00532e-13
1.00624e-13
1.00544e-13
1.00619e-13
1.00556e-13
1.00625e-13
1.00576e-13
1.00661e-13
1.00567e-13
1.00688e-13
1.00566e-13
1.00707e-13
1.00564e-13
1.00728e-13
1.00571e-13
1.00761e-13
1.00576e-13
1.00777e-13
1.00579e-13
1.00786e-13
1.00561e-13
1.00778e-13
1.00551e-13
1.00772e-13
1.00558e-13
1.00789e-13
1.00555e-13
1.00829e-13
1.00549e-13
1.00851e-13
1.0055e-13
1.00858e-13
1.00559e-13
1.00847e-13
1.00567e-13
1.0086e-13
1.00572e-13
1.00865e-13
1.00575e-13
1.00854e-13
1.00577e-13
1.00845e-13
1.00587e-13
1.00809e-13
1.00596e-13
1.00804e-13
1.00594e-13
1.00822e-13
1.0059e-13
1.00811e-13
1.00586e-13
1.00783e-13
1.0058e-13
1.00781e-13
1.00578e-13
1.00781e-13
1.00586e-13
1.00772e-13
1.00578e-13
1.0076e-13
1.00589e-13
1.00749e-13
1.00569e-13
1.00744e-13
1.00553e-13
1.00736e-13
1.00562e-13
1.00728e-13
1.0056e-13
1.00747e-13
1.00557e-13
1.00747e-13
1.00559e-13
1.00722e-13
1.00555e-13
1.00699e-13
1.0055e-13
1.00702e-13
1.00539e-13
1.0071e-13
1.00553e-13
1.00704e-13
1.00546e-13
1.00699e-13
1.00544e-13
1.0071e-13
1.00541e-13
1.00711e-13
1.00538e-13
1.00703e-13
1.00528e-13
1.00701e-13
1.00534e-13
1.00704e-13
1.00539e-13
1.00724e-13
1.00538e-13
1.00728e-13
1.00541e-13
1.00719e-13
1.00539e-13
1.00715e-13
1.00542e-13
1.00701e-13
1.00539e-13
1.00708e-13
1.00535e-13
1.00711e-13
1.00531e-13
1.00719e-13
1.00516e-13
1.00727e-13
1.00521e-13
1.00716e-13
1.00536e-13
1.00691e-13
1.00535e-13
1.00676e-13
1.00539e-13
1.00681e-13
1.00547e-13
1.00677e-13
1.00555e-13
1.00668e-13
1.00553e-13
1.00664e-13
1.00561e-13
1.00666e-13
1.00559e-13
1.00667e-13
1.00552e-13
1.00664e-13
1.00549e-13
1.00656e-13
1.00549e-13
1.00659e-13
1.00549e-13
1.00664e-13
1.00548e-13
1.00662e-13
1.00545e-13
1.00657e-13
1.00542e-13
1.00651e-13
1.00544e-13
1.00659e-13
1.00538e-13
1.00665e-13
1.00534e-13
1.00664e-13
1.00523e-13
1.00663e-13
1.0052e-13
1.0066e-13
1.00523e-13
1.00659e-13
1.00519e-13
1.00659e-13
1.00507e-13
1.00657e-13
1.00505e-13
1.00653e-13
1.00501e-13
1.00651e-13
1.00489e-13
1.00656e-13
1.00477e-13
1.00655e-13
1.00467e-13
1.00652e-13
1.00459e-13
1.00649e-13
1.00452e-13
1.0065e-13
1.00439e-13
1.00653e-13
1.00429e-13
1.00648e-13
1.00423e-13
1.00637e-13
1.00417e-13
1.00628e-13
1.00408e-13
1.00629e-13
1.00401e-13
1.00627e-13
1.00395e-13
1.00622e-13
1.00388e-13
1.00619e-13
1.00383e-13
1.00618e-13
1.00378e-13
1.00618e-13
1.00373e-13
1.00608e-13
1.00368e-13
1.00602e-13
1.0037e-13
1.00598e-13
1.00369e-13
1.00598e-13
1.00367e-13
1.00597e-13
1.00362e-13
1.00595e-13
1.00362e-13
1.00592e-13
1.00361e-13
1.00584e-13
1.00361e-13
1.00579e-13
1.00358e-13
1.00579e-13
1.00356e-13
1.00576e-13
1.00353e-13
1.0057e-13
1.00351e-13
1.00566e-13
1.00348e-13
1.00562e-13
1.00345e-13
1.00558e-13
1.00343e-13
1.00553e-13
1.00339e-13
1.00548e-13
1.00338e-13
1.00545e-13
1.00336e-13
1.0054e-13
1.00332e-13
1.00537e-13
1.0033e-13
1.00535e-13
1.00323e-13
1.00536e-13
1.00317e-13
1.00535e-13
1.00314e-13
1.00532e-13
1.00311e-13
1.00529e-13
1.00308e-13
1.00529e-13
1.00303e-13
1.00529e-13
1.00298e-13
1.00529e-13
1.00294e-13
1.00528e-13
1.0029e-13
1.00525e-13
1.00287e-13
1.00523e-13
1.00283e-13
1.00522e-13
1.0028e-13
1.00521e-13
1.00278e-13
1.00516e-13
1.00277e-13
1.00512e-13
1.00274e-13
1.0051e-13
1.00273e-13
1.00507e-13
1.00272e-13
1.00505e-13
1.00273e-13
1.00502e-13
1.00276e-13
1.00499e-13
1.00279e-13
1.00497e-13
1.0028e-13
1.00496e-13
1.00282e-13
1.00493e-13
1.00282e-13
1.00491e-13
1.00283e-13
1.0049e-13
1.00286e-13
1.00489e-13
1.00287e-13
1.00489e-13
1.00289e-13
1.00488e-13
1.0029e-13
1.00485e-13
1.00292e-13
1.00485e-13
1.00292e-13
1.00487e-13
1.00293e-13
1.00488e-13
1.00295e-13
1.00487e-13
1.00295e-13
1.00486e-13
1.00296e-13
1.00487e-13
1.00296e-13
1.00488e-13
1.00295e-13
1.00487e-13
1.00297e-13
1.00487e-13
1.00297e-13
1.00488e-13
1.00297e-13
1.00489e-13
1.00297e-13
1.0049e-13
1.00298e-13
1.0049e-13
1.00299e-13
1.00491e-13
1.003e-13
1.00491e-13
1.003e-13
1.00492e-13
1.003e-13
1.00494e-13
1.003e-13
1.00495e-13
1.003e-13
1.00495e-13
1.00301e-13
1.00495e-13
1.00302e-13
1.00494e-13
1.00303e-13
1.00495e-13
1.00303e-13
1.00495e-13
1.00303e-13
1.00495e-13
1.00303e-13
1.00495e-13
1.00303e-13
1.00496e-13