/*--------------------------------*- C++ -*----------------------------------*\
| =========                 |                                                 |
| \\      /  F ield         | OpenFOAM: The Open Source CFD Toolbox           |
|  \\    /   O peration     | Version:  2106                                  |
|   \\  /    A nd           | Website:  www.openfoam.com                      |
|    \\/     M anipulation  |                                                 |
\*---------------------------------------------------------------------------*/
FoamFile
{
    version     2.0;
    format      ascii;
    arch        "LSB;label=32;scalar=64";
    class       volScalarField;
    location    "14000";
    object      p;
}
// * * * * * * * * * * * * * * * * * * * * * * * * * * * * * * * * * * * * * //

dimensions      [0 2 -2 0 0 0 0];

internalField   nonuniform List<scalar> 
2560
(
1.33473e-14
1.57188e-13
2.73204e-14
1.57187e-13
3.09468e-14
1.57187e-13
3.22065e-14
1.57187e-13
3.37353e-14
1.57188e-13
3.55766e-14
1.57189e-13
3.74697e-14
1.5719e-13
3.93435e-14
1.57192e-13
4.11944e-14
1.57194e-13
4.30228e-14
1.57197e-13
4.4827e-14
1.572e-13
4.66062e-14
1.57203e-13
4.83599e-14
1.57207e-13
5.00884e-14
1.57211e-13
5.17915e-14
1.57216e-13
5.34696e-14
1.57221e-13
5.51231e-14
1.57227e-13
5.6752e-14
1.57233e-13
5.83568e-14
1.57239e-13
5.99378e-14
1.57246e-13
6.14953e-14
1.57254e-13
6.30296e-14
1.57262e-13
6.45408e-14
1.5727e-13
6.60299e-14
1.57279e-13
6.74965e-14
1.57288e-13
6.8941e-14
1.57298e-13
7.03637e-14
1.57309e-13
7.17652e-14
1.57319e-13
7.31456e-14
1.57331e-13
7.45049e-14
1.57343e-13
7.58436e-14
1.57356e-13
7.71618e-14
1.57368e-13
7.84598e-14
1.57382e-13
7.9738e-14
1.57397e-13
8.09965e-14
1.57412e-13
8.22355e-14
1.57428e-13
8.34554e-14
1.57444e-13
8.46564e-14
1.57461e-13
8.58389e-14
1.57479e-13
8.70026e-14
1.57497e-13
8.81481e-14
1.57516e-13
8.92758e-14
1.57536e-13
9.03858e-14
1.57557e-13
9.14783e-14
1.57578e-13
9.25535e-14
1.576e-13
9.36117e-14
1.57622e-13
9.46529e-14
1.57646e-13
9.56778e-14
1.5767e-13
9.66861e-14
1.57695e-13
9.7678e-14
1.5772e-13
9.86545e-14
1.57747e-13
9.96152e-14
1.57774e-13
1.0056e-13
1.57802e-13
1.01489e-13
1.57831e-13
1.02403e-13
1.5786e-13
1.03301e-13
1.57892e-13
1.04186e-13
1.57923e-13
1.05056e-13
1.57956e-13
1.05911e-13
1.57989e-13
1.06752e-13
1.58024e-13
1.07579e-13
1.58059e-13
1.08392e-13
1.58095e-13
1.09192e-13
1.58132e-13
1.09978e-13
1.5817e-13
1.10751e-13
1.58209e-13
1.11511e-13
1.58249e-13
1.12257e-13
1.5829e-13
1.12992e-13
1.58332e-13
1.13713e-13
1.58375e-13
1.14423e-13
1.58419e-13
1.15121e-13
1.58464e-13
1.15807e-13
1.5851e-13
1.16481e-13
1.58557e-13
1.17144e-13
1.58606e-13
1.17796e-13
1.58655e-13
1.18437e-13
1.58706e-13
1.19067e-13
1.58758e-13
1.19687e-13
1.58811e-13
1.20297e-13
1.58865e-13
1.20897e-13
1.5892e-13
1.21487e-13
1.58977e-13
1.22068e-13
1.59034e-13
1.2264e-13
1.59091e-13
1.23203e-13
1.5915e-13
1.23757e-13
1.59211e-13
1.24303e-13
1.59274e-13
1.2484e-13
1.59338e-13
1.25369e-13
1.59404e-13
1.2589e-13
1.59471e-13
1.26404e-13
1.59541e-13
1.26911e-13
1.59611e-13
1.2741e-13
1.59682e-13
1.27903e-13
1.59756e-13
1.28389e-13
1.59831e-13
1.2887e-13
1.59907e-13
1.29344e-13
1.59984e-13
1.29813e-13
1.60065e-13
1.30277e-13
1.60149e-13
1.30734e-13
1.60234e-13
1.31188e-13
1.60318e-13
1.31636e-13
1.60405e-13
1.32081e-13
1.60493e-13
1.32518e-13
1.60584e-13
1.32952e-13
1.60677e-13
1.33383e-13
1.60773e-13
1.33809e-13
1.6087e-13
1.34231e-13
1.60969e-13
1.34651e-13
1.61069e-13
1.35068e-13
1.6117e-13
1.3548e-13
1.61275e-13
1.35888e-13
1.61383e-13
1.36293e-13
1.61495e-13
1.36695e-13
1.61609e-13
1.37093e-13
1.61725e-13
1.37487e-13
1.61846e-13
1.37881e-13
1.61969e-13
1.38273e-13
1.62094e-13
1.38662e-13
1.62221e-13
1.39047e-13
1.62353e-13
1.39433e-13
1.62486e-13
1.39816e-13
1.62619e-13
1.40194e-13
1.62756e-13
1.40569e-13
1.62898e-13
1.40945e-13
1.63041e-13
1.41316e-13
1.63189e-13
1.41684e-13
1.63342e-13
1.42049e-13
1.63498e-13
1.42413e-13
1.63655e-13
1.42779e-13
1.63809e-13
1.4314e-13
1.63964e-13
1.435e-13
1.64121e-13
1.43859e-13
1.64283e-13
1.4422e-13
1.6444e-13
1.4458e-13
1.64593e-13
1.44935e-13
1.6475e-13
1.45288e-13
1.64908e-13
1.4564e-13
1.65065e-13
1.45988e-13
1.65225e-13
1.46337e-13
1.65389e-13
1.46686e-13
1.6555e-13
1.47025e-13
1.65708e-13
1.47368e-13
1.65871e-13
1.47709e-13
1.66037e-13
1.48049e-13
1.662e-13
1.48388e-13
1.66368e-13
1.48729e-13
1.66536e-13
1.49071e-13
1.66704e-13
1.49414e-13
1.6687e-13
1.49756e-13
1.67036e-13
1.50099e-13
1.67203e-13
1.50443e-13
1.6737e-13
1.50788e-13
1.67542e-13
1.51136e-13
1.67718e-13
1.51488e-13
1.67893e-13
1.51828e-13
1.68066e-13
1.52171e-13
1.68233e-13
1.52516e-13
1.68402e-13
1.52868e-13
1.68579e-13
1.53229e-13
1.68758e-13
1.5359e-13
1.68925e-13
1.53949e-13
1.69084e-13
1.54306e-13
1.69249e-13
1.54669e-13
1.69414e-13
1.5504e-13
1.69577e-13
1.55402e-13
1.69738e-13
1.55772e-13
1.69898e-13
1.56145e-13
1.70056e-13
1.56515e-13
1.70216e-13
1.56886e-13
1.70378e-13
1.57256e-13
1.70538e-13
1.57624e-13
1.70708e-13
1.58001e-13
1.70878e-13
1.58379e-13
1.71037e-13
1.58755e-13
1.71201e-13
1.59133e-13
1.71365e-13
1.59511e-13
1.71525e-13
1.59891e-13
1.71684e-13
1.60276e-13
1.71844e-13
1.60657e-13
1.72015e-13
1.61037e-13
1.72191e-13
1.61427e-13
1.72358e-13
1.61815e-13
1.72525e-13
1.62203e-13
1.72694e-13
1.62599e-13
1.72873e-13
1.62994e-13
1.73043e-13
1.63392e-13
1.73208e-13
1.63792e-13
1.73364e-13
1.6419e-13
1.7352e-13
1.64596e-13
1.73676e-13
1.64994e-13
1.73844e-13
1.65389e-13
1.74017e-13
1.65786e-13
1.74173e-13
1.66185e-13
1.74324e-13
1.66591e-13
1.74491e-13
1.66989e-13
1.74662e-13
1.67389e-13
1.7481e-13
1.67786e-13
1.74967e-13
1.68174e-13
1.75161e-13
1.68576e-13
1.75341e-13
1.68974e-13
1.75513e-13
1.6937e-13
1.75704e-13
1.69751e-13
1.75902e-13
1.70141e-13
1.76091e-13
1.70528e-13
1.76277e-13
1.70912e-13
1.76474e-13
1.71283e-13
1.76683e-13
1.71646e-13
1.76888e-13
1.72023e-13
1.77087e-13
1.72381e-13
1.7728e-13
1.72742e-13
1.7749e-13
1.73096e-13
1.77705e-13
1.73443e-13
1.77903e-13
1.73782e-13
1.78093e-13
1.74136e-13
1.7831e-13
1.74506e-13
1.78532e-13
1.74858e-13
1.78779e-13
1.75214e-13
1.78996e-13
1.75551e-13
1.79194e-13
1.75883e-13
1.79394e-13
1.76208e-13
1.79642e-13
1.76538e-13
1.79847e-13
1.76884e-13
1.8002e-13
1.77213e-13
1.80228e-13
1.77538e-13
1.80448e-13
1.77847e-13
1.80645e-13
1.78163e-13
1.80819e-13
1.78475e-13
1.81003e-13
1.78773e-13
1.81208e-13
1.79068e-13
1.81434e-13
1.79361e-13
1.81636e-13
1.79639e-13
1.81823e-13
1.79927e-13
1.82019e-13
1.80224e-13
1.82269e-13
1.80519e-13
1.82471e-13
1.80801e-13
1.82647e-13
1.81082e-13
1.82852e-13
1.81363e-13
1.83054e-13
1.81633e-13
1.83262e-13
1.81904e-13
1.83433e-13
1.82176e-13
1.8362e-13
1.8245e-13
1.83812e-13
1.82704e-13
1.83975e-13
1.82974e-13
1.84141e-13
1.83238e-13
1.84331e-13
1.83519e-13
1.8451e-13
1.83807e-13
1.84721e-13
1.84082e-13
1.84919e-13
1.84344e-13
1.85103e-13
1.84551e-13
1.85273e-13
1.84769e-13
1.85406e-13
1.85022e-13
1.85565e-13
1.85224e-13
1.85815e-13
1.85461e-13
1.85982e-13
1.85692e-13
1.86218e-13
1.85917e-13
1.86392e-13
1.86158e-13
1.86526e-13
1.86397e-13
1.86681e-13
1.86637e-13
1.86855e-13
1.86858e-13
1.87087e-13
1.87062e-13
1.87294e-13
1.87269e-13
1.87473e-13
1.8746e-13
1.87627e-13
1.87613e-13
1.87775e-13
1.87836e-13
1.87938e-13
1.88044e-13
1.88136e-13
1.8826e-13
1.88327e-13
1.88422e-13
1.88469e-13
1.88634e-13
1.88602e-13
1.88836e-13
1.88805e-13
1.88987e-13
1.89037e-13
1.89125e-13
1.89239e-13
1.89245e-13
1.89376e-13
1.89387e-13
1.89487e-13
1.89591e-13
1.8967e-13
1.89819e-13
1.89924e-13
1.9001e-13
1.90092e-13
1.90188e-13
1.90194e-13
1.90297e-13
1.90342e-13
1.90471e-13
1.90519e-13
1.90652e-13
1.90744e-13
1.90857e-13
1.91001e-13
1.91027e-13
1.91141e-13
1.91165e-13
1.91241e-13
1.91308e-13
1.91373e-13
1.91494e-13
1.91554e-13
1.9163e-13
1.91821e-13
1.91781e-13
1.91942e-13
1.92022e-13
1.92064e-13
1.92249e-13
1.92288e-13
1.92426e-13
1.9254e-13
1.92694e-13
1.92754e-13
1.92913e-13
1.92928e-13
1.93193e-13
1.93127e-13
1.93366e-13
1.93343e-13
1.93533e-13
1.93579e-13
1.93793e-13
1.93804e-13
1.94044e-13
1.94015e-13
1.94155e-13
1.94209e-13
1.94384e-13
1.94428e-13
1.94534e-13
1.94572e-13
1.94732e-13
1.94741e-13
1.9488e-13
1.94963e-13
1.95098e-13
1.95154e-13
1.95267e-13
1.95343e-13
1.95353e-13
1.95503e-13
1.95594e-13
1.95643e-13
1.95756e-13
1.95783e-13
1.95906e-13
1.95889e-13
1.9602e-13
1.96014e-13
1.96122e-13
1.96158e-13
1.96177e-13
1.96265e-13
1.96177e-13
1.96314e-13
1.96287e-13
1.96365e-13
1.96314e-13
1.96442e-13
1.96306e-13
1.96464e-13
1.96369e-13
1.96493e-13
1.96444e-13
1.96495e-13
1.96516e-13
1.96544e-13
1.96506e-13
1.9655e-13
1.96554e-13
1.96568e-13
1.59656e-13
1.64153e-13
1.59656e-13
1.64153e-13
1.59655e-13
1.64152e-13
1.59656e-13
1.64152e-13
1.59656e-13
1.64152e-13
1.59657e-13
1.64152e-13
1.59658e-13
1.64152e-13
1.59659e-13
1.64152e-13
1.5966e-13
1.64151e-13
1.59662e-13
1.64151e-13
1.59663e-13
1.64151e-13
1.59665e-13
1.64151e-13
1.59667e-13
1.6415e-13
1.5967e-13
1.6415e-13
1.59672e-13
1.64149e-13
1.59675e-13
1.64149e-13
1.59678e-13
1.64149e-13
1.59682e-13
1.64148e-13
1.59685e-13
1.64148e-13
1.59689e-13
1.64147e-13
1.59694e-13
1.64147e-13
1.59698e-13
1.64146e-13
1.59703e-13
1.64146e-13
1.59708e-13
1.64145e-13
1.59713e-13
1.64145e-13
1.59719e-13
1.64144e-13
1.59725e-13
1.64143e-13
1.59731e-13
1.64143e-13
1.59738e-13
1.64142e-13
1.59745e-13
1.64141e-13
1.59753e-13
1.6414e-13
1.59761e-13
1.64138e-13
1.59769e-13
1.64137e-13
1.59778e-13
1.64136e-13
1.59787e-13
1.64135e-13
1.59796e-13
1.64134e-13
1.59806e-13
1.64133e-13
1.59816e-13
1.64132e-13
1.59827e-13
1.64131e-13
1.59838e-13
1.6413e-13
1.59849e-13
1.64129e-13
1.5986e-13
1.64128e-13
1.59872e-13
1.64128e-13
1.59884e-13
1.64127e-13
1.59897e-13
1.64126e-13
1.59911e-13
1.64125e-13
1.59925e-13
1.64125e-13
1.59939e-13
1.64124e-13
1.59955e-13
1.64123e-13
1.5997e-13
1.64122e-13
1.59987e-13
1.64121e-13
1.60004e-13
1.6412e-13
1.60022e-13
1.6412e-13
1.6004e-13
1.6412e-13
1.60058e-13
1.64119e-13
1.60078e-13
1.64119e-13
1.60097e-13
1.6412e-13
1.60118e-13
1.6412e-13
1.60138e-13
1.64121e-13
1.6016e-13
1.64122e-13
1.60182e-13
1.64123e-13
1.60204e-13
1.64125e-13
1.60227e-13
1.64128e-13
1.6025e-13
1.6413e-13
1.60273e-13
1.64133e-13
1.60298e-13
1.64136e-13
1.60323e-13
1.64139e-13
1.60349e-13
1.64142e-13
1.60375e-13
1.64146e-13
1.60402e-13
1.6415e-13
1.60429e-13
1.64154e-13
1.60457e-13
1.64159e-13
1.60486e-13
1.64164e-13
1.60515e-13
1.6417e-13
1.60544e-13
1.64176e-13
1.60574e-13
1.64182e-13
1.60605e-13
1.64189e-13
1.60637e-13
1.64196e-13
1.6067e-13
1.64203e-13
1.60703e-13
1.6421e-13
1.60737e-13
1.64218e-13
1.60772e-13
1.64227e-13
1.60808e-13
1.64236e-13
1.60844e-13
1.64245e-13
1.60882e-13
1.64256e-13
1.60921e-13
1.64267e-13
1.6096e-13
1.64279e-13
1.61e-13
1.64291e-13
1.61041e-13
1.64303e-13
1.61084e-13
1.64317e-13
1.61128e-13
1.6433e-13
1.61173e-13
1.64344e-13
1.61219e-13
1.64359e-13
1.61266e-13
1.64374e-13
1.61315e-13
1.6439e-13
1.61365e-13
1.64408e-13
1.61415e-13
1.64428e-13
1.61468e-13
1.64447e-13
1.61522e-13
1.64467e-13
1.61577e-13
1.64488e-13
1.61635e-13
1.64511e-13
1.61691e-13
1.64536e-13
1.61751e-13
1.64562e-13
1.61813e-13
1.64589e-13
1.61876e-13
1.64617e-13
1.6194e-13
1.64646e-13
1.62004e-13
1.64677e-13
1.6207e-13
1.64711e-13
1.62138e-13
1.64744e-13
1.62208e-13
1.6478e-13
1.62279e-13
1.64818e-13
1.6235e-13
1.64857e-13
1.62424e-13
1.64896e-13
1.62499e-13
1.64937e-13
1.62577e-13
1.6498e-13
1.62659e-13
1.65024e-13
1.6274e-13
1.65071e-13
1.62822e-13
1.65121e-13
1.62906e-13
1.65174e-13
1.62992e-13
1.65228e-13
1.63079e-13
1.65284e-13
1.63169e-13
1.65343e-13
1.6326e-13
1.65403e-13
1.63355e-13
1.65468e-13
1.63453e-13
1.65535e-13
1.63552e-13
1.65603e-13
1.63651e-13
1.65673e-13
1.63752e-13
1.65746e-13
1.63855e-13
1.65821e-13
1.63963e-13
1.65893e-13
1.64071e-13
1.65974e-13
1.64183e-13
1.66057e-13
1.64299e-13
1.66137e-13
1.64417e-13
1.66221e-13
1.64537e-13
1.66311e-13
1.64661e-13
1.66403e-13
1.6479e-13
1.66499e-13
1.64919e-13
1.66597e-13
1.65045e-13
1.66701e-13
1.65176e-13
1.66805e-13
1.6531e-13
1.66907e-13
1.65438e-13
1.67019e-13
1.6557e-13
1.67138e-13
1.65708e-13
1.67254e-13
1.65849e-13
1.67369e-13
1.6599e-13
1.67489e-13
1.66133e-13
1.67618e-13
1.66284e-13
1.6775e-13
1.66437e-13
1.67884e-13
1.66592e-13
1.68016e-13
1.66747e-13
1.68154e-13
1.66906e-13
1.6829e-13
1.67069e-13
1.68435e-13
1.67235e-13
1.68589e-13
1.67404e-13
1.68735e-13
1.67577e-13
1.68883e-13
1.67754e-13
1.69038e-13
1.6792e-13
1.69199e-13
1.68097e-13
1.69362e-13
1.68281e-13
1.69525e-13
1.68461e-13
1.6969e-13
1.68641e-13
1.69856e-13
1.68835e-13
1.70016e-13
1.69024e-13
1.70182e-13
1.6922e-13
1.70354e-13
1.69406e-13
1.7053e-13
1.6959e-13
1.70715e-13
1.69783e-13
1.70896e-13
1.69982e-13
1.71068e-13
1.70179e-13
1.71245e-13
1.70373e-13
1.71441e-13
1.70566e-13
1.71631e-13
1.70772e-13
1.7181e-13
1.70986e-13
1.71999e-13
1.71183e-13
1.72197e-13
1.71388e-13
1.72384e-13
1.71598e-13
1.72576e-13
1.718e-13
1.72788e-13
1.72007e-13
1.72989e-13
1.72223e-13
1.73185e-13
1.72442e-13
1.73386e-13
1.7264e-13
1.73593e-13
1.72842e-13
1.73799e-13
1.73053e-13
1.7399e-13
1.73258e-13
1.74182e-13
1.73467e-13
1.7439e-13
1.73676e-13
1.74598e-13
1.73894e-13
1.74802e-13
1.74106e-13
1.74991e-13
1.74323e-13
1.75192e-13
1.74539e-13
1.75388e-13
1.74749e-13
1.75586e-13
1.74958e-13
1.75797e-13
1.75167e-13
1.76014e-13
1.75375e-13
1.76229e-13
1.75593e-13
1.76429e-13
1.75816e-13
1.76627e-13
1.76022e-13
1.76839e-13
1.76233e-13
1.77037e-13
1.76459e-13
1.7721e-13
1.76674e-13
1.77398e-13
1.76877e-13
1.776e-13
1.77074e-13
1.77806e-13
1.77282e-13
1.77999e-13
1.77488e-13
1.78179e-13
1.77688e-13
1.7838e-13
1.77882e-13
1.7858e-13
1.7808e-13
1.78756e-13
1.78283e-13
1.78943e-13
1.78479e-13
1.79139e-13
1.78668e-13
1.79335e-13
1.78838e-13
1.79542e-13
1.79035e-13
1.79726e-13
1.79258e-13
1.79922e-13
1.79485e-13
1.80119e-13
1.79693e-13
1.80327e-13
1.79893e-13
1.80524e-13
1.80096e-13
1.8071e-13
1.80315e-13
1.80909e-13
1.80513e-13
1.81108e-13
1.80715e-13
1.81297e-13
1.80886e-13
1.81499e-13
1.81082e-13
1.81691e-13
1.8128e-13
1.81875e-13
1.81492e-13
1.8206e-13
1.81683e-13
1.82248e-13
1.81853e-13
1.82393e-13
1.8207e-13
1.82529e-13
1.82278e-13
1.82713e-13
1.82477e-13
1.82898e-13
1.82668e-13
1.83051e-13
1.82873e-13
1.83193e-13
1.83059e-13
1.83404e-13
1.83248e-13
1.83582e-13
1.83429e-13
1.83727e-13
1.83613e-13
1.83884e-13
1.83823e-13
1.84007e-13
1.84003e-13
1.84163e-13
1.84199e-13
1.84339e-13
1.84366e-13
1.84525e-13
1.84537e-13
1.84709e-13
1.84723e-13
1.84881e-13
1.84924e-13
1.85041e-13
1.85128e-13
1.85234e-13
1.85336e-13
1.85425e-13
1.8556e-13
1.8556e-13
1.85734e-13
1.85703e-13
1.85926e-13
1.85875e-13
1.8609e-13
1.86053e-13
1.86271e-13
1.86217e-13
1.86404e-13
1.86366e-13
1.86553e-13
1.86523e-13
1.86674e-13
1.86731e-13
1.8683e-13
1.86905e-13
1.86998e-13
1.87089e-13
1.87133e-13
1.8724e-13
1.873e-13
1.87425e-13
1.87475e-13
1.87644e-13
1.87592e-13
1.87835e-13
1.87712e-13
1.88043e-13
1.87917e-13
1.88187e-13
1.8808e-13
1.88285e-13
1.88203e-13
1.884e-13
1.88413e-13
1.8851e-13
1.88587e-13
1.88695e-13
1.88766e-13
1.88851e-13
1.88971e-13
1.88997e-13
1.89163e-13
1.89174e-13
1.89363e-13
1.8932e-13
1.89554e-13
1.89515e-13
1.89716e-13
1.89696e-13
1.8985e-13
1.89865e-13
1.89975e-13
1.90003e-13
1.9011e-13
1.90193e-13
1.90273e-13
1.90378e-13
1.904e-13
1.90536e-13
1.9055e-13
1.90672e-13
1.90682e-13
1.90804e-13
1.90836e-13
1.90973e-13
1.90952e-13
1.9114e-13
1.91105e-13
1.91288e-13
1.91253e-13
1.91433e-13
1.91435e-13
1.91558e-13
1.91616e-13
1.91698e-13
1.91743e-13
1.91908e-13
1.91905e-13
1.92063e-13
1.92065e-13
1.92197e-13
1.92333e-13
1.92347e-13
1.925e-13
1.92543e-13
1.92636e-13
1.92785e-13
1.92875e-13
1.92973e-13
1.93111e-13
1.93174e-13
1.93313e-13
1.93422e-13
1.9351e-13
1.93654e-13
1.937e-13
1.93872e-13
1.93915e-13
1.94114e-13
1.94151e-13
1.94316e-13
1.94409e-13
1.94475e-13
1.94536e-13
1.94651e-13
1.94791e-13
1.94812e-13
1.95054e-13
1.94952e-13
1.9521e-13
1.95091e-13
1.95295e-13
1.95256e-13
1.95457e-13
1.95421e-13
1.95664e-13
1.95553e-13
1.95771e-13
1.95705e-13
1.95863e-13
1.95884e-13
1.9602e-13
1.96038e-13
1.96211e-13
1.96171e-13
1.96295e-13
1.96307e-13
1.96387e-13
1.96423e-13
1.96487e-13
1.96524e-13
1.96454e-13
1.96582e-13
1.96563e-13
1.96643e-13
1.96618e-13
1.96671e-13
1.96716e-13
1.96721e-13
1.96754e-13
1.9673e-13
1.96761e-13
1.96783e-13
1.96755e-13
1.96829e-13
1.9673e-13
1.96826e-13
1.96585e-13
1.96651e-13
1.96569e-13
1.96707e-13
1.96607e-13
1.96695e-13
1.96624e-13
1.96689e-13
1.96595e-13
1.96659e-13
1.96609e-13
1.96689e-13
1.96573e-13
1.96729e-13
1.96559e-13
1.96729e-13
1.96597e-13
1.96776e-13
1.96688e-13
1.96815e-13
1.96695e-13
1.9678e-13
1.96744e-13
1.96754e-13
1.96781e-13
1.96785e-13
1.96748e-13
1.96845e-13
1.96754e-13
1.96884e-13
1.96798e-13
1.96905e-13
1.96826e-13
1.96902e-13
1.96871e-13
1.96905e-13
1.96906e-13
1.96908e-13
1.96903e-13
1.96905e-13
1.96891e-13
1.9696e-13
1.96964e-13
1.96977e-13
1.9703e-13
1.97018e-13
1.96993e-13
1.97051e-13
1.96948e-13
1.97047e-13
1.96992e-13
1.97046e-13
1.96995e-13
1.97043e-13
1.96958e-13
1.97006e-13
1.96989e-13
1.97003e-13
1.96951e-13
1.96962e-13
1.96875e-13
1.96846e-13
1.96872e-13
1.9683e-13
1.96872e-13
1.96842e-13
1.96801e-13
1.96884e-13
1.96799e-13
1.96893e-13
1.96831e-13
1.96905e-13
1.96763e-13
1.9692e-13
1.96722e-13
1.96925e-13
1.96742e-13
1.9694e-13
1.96805e-13
1.96909e-13
1.96765e-13
1.96922e-13
1.96752e-13
1.96924e-13
1.96807e-13
1.96937e-13
1.96757e-13
1.96939e-13
1.96813e-13
1.96912e-13
1.96805e-13
1.9693e-13
1.96713e-13
1.96917e-13
1.9665e-13
1.96914e-13
1.96656e-13
1.96926e-13
1.96692e-13
1.9691e-13
1.96658e-13
1.96844e-13
1.96554e-13
1.96786e-13
1.96543e-13
1.96717e-13
1.96564e-13
1.96674e-13
1.96541e-13
1.9661e-13
1.96493e-13
1.96568e-13
1.96463e-13
1.96609e-13
1.96467e-13
1.9659e-13
1.96467e-13
1.96511e-13
1.96464e-13
1.96475e-13
1.96461e-13
1.9648e-13
1.96478e-13
1.96442e-13
1.96411e-13
1.964e-13
1.96408e-13
1.96442e-13
1.96403e-13
1.9644e-13
1.96397e-13
1.96394e-13
1.9637e-13
1.96346e-13
1.96365e-13
1.96339e-13
1.96361e-13
1.96374e-13
1.96358e-13
1.96363e-13
1.96376e-13
1.96372e-13
1.96373e-13
1.96378e-13
1.96348e-13
1.96361e-13
1.96345e-13
1.9632e-13
1.96319e-13
1.96299e-13
1.96316e-13
1.96363e-13
1.96334e-13
1.96382e-13
1.96329e-13
1.96332e-13
1.96323e-13
1.96313e-13
1.9635e-13
1.96369e-13
1.96377e-13
1.96413e-13
1.9638e-13
1.96446e-13
1.96394e-13
1.96443e-13
1.96406e-13
1.96463e-13
1.96406e-13
1.96483e-13
1.96404e-13
1.96491e-13
1.96401e-13
1.96488e-13
1.96374e-13
1.96508e-13
1.96377e-13
1.96528e-13
1.96379e-13
1.96516e-13
1.96411e-13
1.96516e-13
1.96431e-13
1.96539e-13
1.96448e-13
1.96563e-13
1.96475e-13
1.96553e-13
1.96488e-13
1.96555e-13
1.96501e-13
1.96614e-13
1.96522e-13
1.96628e-13
1.96542e-13
1.96642e-13
1.96561e-13
1.96645e-13
1.96578e-13
1.96637e-13
1.96594e-13
1.96663e-13
1.96609e-13
1.96689e-13
1.96623e-13
1.96704e-13
1.96625e-13
1.96707e-13
1.96636e-13
1.96722e-13
1.96646e-13
1.96748e-13
1.96666e-13
1.96774e-13
1.96696e-13
1.96779e-13
1.96702e-13
1.96794e-13
1.96719e-13
1.96821e-13
1.96734e-13
1.9686e-13
1.96737e-13
1.96887e-13
1.9675e-13
1.9687e-13
1.96773e-13
1.96876e-13
1.96784e-13
1.96904e-13
1.96794e-13
1.96932e-13
1.9682e-13
1.96922e-13
1.96839e-13
1.96917e-13
1.96846e-13
1.96923e-13
1.96853e-13
1.9694e-13
1.9687e-13
1.96962e-13
1.9688e-13
1.9699e-13
1.96884e-13
1.97007e-13
1.96903e-13
1.97024e-13
1.96916e-13
1.97042e-13
1.96923e-13
1.97075e-13
1.9695e-13
1.97082e-13
1.96976e-13
1.97078e-13
1.9698e-13
1.97085e-13
1.96988e-13
1.97104e-13
1.97012e-13
1.97111e-13
1.97019e-13
1.97119e-13
1.97025e-13
1.97116e-13
1.97036e-13
1.97134e-13
1.97051e-13
1.97153e-13
1.97072e-13
1.97145e-13
1.97075e-13
1.97137e-13
1.97073e-13
1.9715e-13
1.97087e-13
1.97169e-13
1.97089e-13
1.97193e-13
1.97091e-13
1.97206e-13
1.97098e-13
1.97209e-13
1.97104e-13
1.97212e-13
1.97114e-13
1.97205e-13
1.97119e-13
1.97209e-13
1.97124e-13
1.97212e-13
1.97128e-13
1.97205e-13
1.97137e-13
1.97198e-13
1.97136e-13
1.97196e-13
1.97139e-13
1.97194e-13
1.97142e-13
1.97177e-13
1.9714e-13
1.97165e-13
1.97137e-13
1.97158e-13
1.97135e-13
1.97158e-13
1.97137e-13
1.97155e-13
1.97141e-13
1.97157e-13
1.9714e-13
1.97164e-13
1.97134e-13
1.97173e-13
1.97135e-13
1.97165e-13
1.97139e-13
1.97162e-13
1.97139e-13
1.9716e-13
1.97145e-13
1.97159e-13
1.97152e-13
1.97158e-13
1.9715e-13
1.97163e-13
1.9715e-13
1.97167e-13
1.97155e-13
1.97174e-13
1.97161e-13
1.97179e-13
1.97172e-13
1.97191e-13
1.97172e-13
1.97196e-13
1.97165e-13
1.97194e-13
1.9716e-13
1.97196e-13
1.97159e-13
1.972e-13
1.97162e-13
1.97205e-13
1.97161e-13
1.97209e-13
1.9716e-13
1.97209e-13
1.97163e-13
1.97209e-13
1.97168e-13
1.97209e-13
1.97171e-13
1.97202e-13
1.97172e-13
1.97196e-13
1.97174e-13
1.97197e-13
1.97179e-13
1.97201e-13
1.97177e-13
1.97201e-13
1.97175e-13
1.97198e-13
1.97175e-13
1.97199e-13
1.97173e-13
1.97199e-13
1.97169e-13
1.97195e-13
1.97166e-13
1.97195e-13
1.97165e-13
1.97196e-13
1.97164e-13
1.97196e-13
1.97162e-13
1.97197e-13
1.9716e-13
1.97197e-13
1.97161e-13
1.97193e-13
1.9716e-13
1.97191e-13
1.9716e-13
1.97189e-13
1.97158e-13
1.97188e-13
1.97157e-13
1.97189e-13
1.97155e-13
1.97189e-13
1.97155e-13
1.97187e-13
1.97152e-13
1.97187e-13
1.9715e-13
1.9719e-13
1.97147e-13
1.97192e-13
1.97144e-13
1.97193e-13
1.97142e-13
1.97193e-13
1.97139e-13
1.97197e-13
1.97136e-13
1.97201e-13
1.97134e-13
1.97204e-13
1.97131e-13
1.97206e-13
1.97127e-13
1.97206e-13
1.97125e-13
1.97207e-13
1.97123e-13
1.97209e-13
1.97121e-13
1.97211e-13
1.9712e-13
1.97213e-13
1.97117e-13
1.97214e-13
1.97116e-13
1.97214e-13
1.97114e-13
1.97216e-13
1.97113e-13
1.97218e-13
1.97111e-13
1.97219e-13
1.9711e-13
1.97219e-13
1.97111e-13
1.97221e-13
1.97111e-13
1.97223e-13
1.97109e-13
1.97225e-13
1.97108e-13
1.97227e-13
1.97108e-13
1.97228e-13
1.97108e-13
1.97229e-13
1.97107e-13
1.97231e-13
1.97107e-13
1.97232e-13
1.97106e-13
1.97233e-13
1.97107e-13
1.97234e-13
1.97106e-13
1.97236e-13
1.97106e-13
1.97239e-13
1.97105e-13
1.97239e-13
1.97105e-13
1.97239e-13
1.97104e-13
1.9724e-13
1.97104e-13
1.9724e-13
1.97103e-13
1.97241e-13
1.97102e-13
1.97243e-13
1.97102e-13
1.97244e-13
1.97101e-13
1.97244e-13
1.971e-13
1.97245e-13
1.97099e-13
1.97247e-13
1.97099e-13
1.97249e-13
1.97099e-13
1.9725e-13
1.97099e-13
1.97252e-13
1.97098e-13
1.97253e-13
1.97099e-13
1.97254e-13
1.97099e-13
1.97254e-13
1.971e-13
1.97256e-13
1.971e-13
1.97257e-13
1.971e-13
1.97258e-13
1.971e-13
1.97259e-13
1.971e-13
1.9726e-13
1.97101e-13
1.97261e-13
1.97101e-13
1.97261e-13
1.97101e-13
1.97262e-13
1.97101e-13
1.97263e-13
1.97102e-13
1.97264e-13
1.97102e-13
1.97265e-13
1.97102e-13
1.97266e-13
1.97102e-13
1.97266e-13
1.97102e-13
1.97267e-13
1.97103e-13
1.97267e-13
1.97103e-13
1.97268e-13
1.97104e-13
1.97269e-13
1.97104e-13
1.9727e-13
1.97104e-13
1.9727e-13
1.97105e-13
1.9727e-13
1.97106e-13
1.9727e-13
1.97106e-13
1.9727e-13
1.97106e-13
1.97271e-13
1.97106e-13
1.97272e-13
1.97106e-13
1.97272e-13
1.97107e-13
1.97272e-13
1.97107e-13
1.97273e-13
1.97107e-13
1.97273e-13
1.97107e-13
1.97274e-13
1.97107e-13
1.97274e-13
1.97107e-13
1.97274e-13
1.97107e-13
1.97275e-13
1.97107e-13
1.97275e-13
1.97108e-13
1.97276e-13
1.97108e-13
1.97276e-13
1.97108e-13
1.97276e-13
1.97108e-13
1.97277e-13
1.97108e-13
1.97277e-13
1.97109e-13
1.97277e-13
1.97109e-13
1.97277e-13
1.97109e-13
1.97277e-13
1.97109e-13
1.97277e-13
1.9711e-13
1.97278e-13
1.9711e-13
1.97278e-13
1.9711e-13
1.97278e-13
1.9711e-13
1.97278e-13
1.9711e-13
1.97278e-13
1.9711e-13
1.97278e-13
1.97111e-13
1.97278e-13
1.97111e-13
1.97278e-13
1.97111e-13
1.97278e-13
1.97111e-13
1.97279e-13
1.97111e-13
1.97279e-13
1.97111e-13
1.97279e-13
1.97111e-13
1.97279e-13
1.97112e-13
1.97279e-13
1.97112e-13
1.97279e-13
1.97112e-13
1.97279e-13
1.97112e-13
1.97279e-13
1.97112e-13
1.97279e-13
1.97112e-13
1.97279e-13
1.97112e-13
1.97279e-13
1.97112e-13
1.97279e-13
1.97112e-13
1.9728e-13
1.97112e-13
1.9728e-13
1.97112e-13
1.9728e-13
1.97112e-13
1.9728e-13
1.97112e-13
1.9728e-13
1.97112e-13
1.9728e-13
1.97112e-13
1.9728e-13
1.97112e-13
1.9728e-13
1.97112e-13
1.9728e-13
1.97112e-13
1.9728e-13
1.97112e-13
1.9728e-13
1.96674e-13
1.96776e-13
1.96666e-13
1.96782e-13
1.96703e-13
1.96784e-13
1.96707e-13
1.96778e-13
1.96678e-13
1.96732e-13
1.96733e-13
1.96728e-13
1.96769e-13
1.96785e-13
1.96758e-13
1.96819e-13
1.96783e-13
1.96809e-13
1.96816e-13
1.96804e-13
1.96829e-13
1.96828e-13
1.96912e-13
1.96824e-13
1.96925e-13
1.96844e-13
1.96956e-13
1.96858e-13
1.96948e-13
1.96925e-13
1.9689e-13
1.9696e-13
1.96956e-13
1.96942e-13
1.96999e-13
1.96989e-13
1.97018e-13
1.97008e-13
1.97077e-13
1.97096e-13
1.97076e-13
1.97196e-13
1.97106e-13
1.9722e-13
1.97099e-13
1.97198e-13
1.97053e-13
1.97226e-13
1.97062e-13
1.97175e-13
1.97066e-13
1.97172e-13
1.9703e-13
1.97149e-13
1.96915e-13
1.97104e-13
1.96925e-13
1.97113e-13
1.96953e-13
1.97068e-13
1.96902e-13
1.97e-13
1.96881e-13
1.9698e-13
1.96853e-13
1.96971e-13
1.96743e-13
1.96975e-13
1.96763e-13
1.96959e-13
1.96843e-13
1.96958e-13
1.96843e-13
1.96966e-13
1.96801e-13
1.96964e-13
1.96864e-13
1.96934e-13
1.96871e-13
1.96907e-13
1.96858e-13
1.96902e-13
1.96806e-13
1.96879e-13
1.96849e-13
1.96859e-13
1.96874e-13
1.96837e-13
1.96804e-13
1.96889e-13
1.9677e-13
1.96846e-13
1.96751e-13
1.96804e-13
1.96651e-13
1.96822e-13
1.96623e-13
1.96826e-13
1.96707e-13
1.96815e-13
1.96665e-13
1.96787e-13
1.96639e-13
1.96762e-13
1.9661e-13
1.96783e-13
1.96555e-13
1.96832e-13
1.96593e-13
1.96728e-13
1.96565e-13
1.96714e-13
1.96553e-13
1.96687e-13
1.96539e-13
1.96665e-13
1.96522e-13
1.96585e-13
1.96503e-13
1.96551e-13
1.96462e-13
1.96561e-13
1.96461e-13
1.96554e-13
1.96436e-13
1.96573e-13
1.9645e-13
1.96577e-13
1.96417e-13
1.96586e-13
1.96381e-13
1.96537e-13
1.96362e-13
1.96472e-13
1.9634e-13
1.96454e-13
1.96336e-13
1.96528e-13
1.96328e-13
1.96587e-13
1.96335e-13
1.96588e-13
1.96337e-13
1.96531e-13
1.96356e-13
1.96525e-13
1.96371e-13
1.96545e-13
1.96361e-13
1.96572e-13
1.96347e-13
1.96605e-13
1.96373e-13
1.96623e-13
1.96384e-13
1.96615e-13
1.96391e-13
1.96592e-13
1.96361e-13
1.96596e-13
1.96384e-13
1.96585e-13
1.96426e-13
1.96623e-13
1.96431e-13
1.96643e-13
1.96444e-13
1.96623e-13
1.96456e-13
1.96618e-13
1.96465e-13
1.96628e-13
1.96472e-13
1.96664e-13
1.96477e-13
1.96681e-13
1.9648e-13
1.96657e-13
1.96504e-13
1.96636e-13
1.96527e-13
1.9664e-13
1.96549e-13
1.96669e-13
1.96571e-13
1.96689e-13
1.96592e-13
1.96688e-13
1.96612e-13
1.96689e-13
1.96633e-13
1.96726e-13
1.9663e-13
1.96742e-13
1.96638e-13
1.96759e-13
1.96646e-13
1.96779e-13
1.96675e-13
1.96811e-13
1.96704e-13
1.96835e-13
1.96731e-13
1.96849e-13
1.96736e-13
1.96842e-13
1.96751e-13
1.96825e-13
1.96767e-13
1.96844e-13
1.96782e-13
1.96886e-13
1.96797e-13
1.96919e-13
1.968e-13
1.9693e-13
1.96802e-13
1.96943e-13
1.96815e-13
1.96968e-13
1.96817e-13
1.96996e-13
1.96828e-13
1.97025e-13
1.96838e-13
1.97044e-13
1.96848e-13
1.97043e-13
1.96867e-13
1.97066e-13
1.96886e-13
1.97113e-13
1.96903e-13
1.97129e-13
1.96925e-13
1.97118e-13
1.9694e-13
1.97143e-13
1.96971e-13
1.97158e-13
1.97013e-13
1.97164e-13
1.97032e-13
1.9717e-13
1.97062e-13
1.97178e-13
1.97063e-13
1.97187e-13
1.9707e-13
1.97192e-13
1.97099e-13
1.97197e-13
1.97112e-13
1.9722e-13
1.97124e-13
1.97232e-13
1.97141e-13
1.97218e-13
1.97147e-13
1.9721e-13
1.97154e-13
1.97224e-13
1.9716e-13
1.97244e-13
1.97178e-13
1.97248e-13
1.97179e-13
1.97253e-13
1.9719e-13
1.97269e-13
1.97197e-13
1.9728e-13
1.97198e-13
1.97275e-13
1.97198e-13
1.97276e-13
1.97205e-13
1.97289e-13
1.97216e-13
1.97312e-13
1.97222e-13
1.97325e-13
1.97227e-13
1.97333e-13
1.97233e-13
1.97337e-13
1.97244e-13
1.97341e-13
1.97254e-13
1.97361e-13
1.97254e-13
1.97376e-13
1.97259e-13
1.97397e-13
1.97254e-13
1.97408e-13
1.97269e-13
1.97404e-13
1.97283e-13
1.97386e-13
1.97287e-13
1.97379e-13
1.97292e-13
1.97387e-13
1.97301e-13
1.9738e-13
1.9731e-13
1.97371e-13
1.97312e-13
1.9737e-13
1.97318e-13
1.97372e-13
1.97315e-13
1.97372e-13
1.97312e-13
1.97367e-13
1.9731e-13
1.9736e-13
1.97309e-13
1.97361e-13
1.97309e-13
1.97364e-13
1.97309e-13
1.97363e-13
1.97306e-13
1.97357e-13
1.97306e-13
1.97354e-13
1.9731e-13
1.97361e-13
1.97306e-13
1.97367e-13
1.97306e-13
1.97369e-13
1.97303e-13
1.97367e-13
1.97305e-13
1.97367e-13
1.9731e-13
1.9737e-13
1.9731e-13
1.97371e-13
1.97303e-13
1.97372e-13
1.97299e-13
1.97375e-13
1.97297e-13
1.97381e-13
1.97292e-13
1.97389e-13
1.9729e-13
1.9739e-13
1.97286e-13
1.9739e-13
1.97283e-13
1.97388e-13
1.97285e-13
1.97392e-13
1.97281e-13
1.97398e-13
1.97276e-13
1.97399e-13
1.97276e-13
1.97394e-13
1.9728e-13
1.97394e-13
1.97281e-13
1.97399e-13
1.97283e-13
1.97401e-13
1.9728e-13
1.97403e-13
1.97279e-13
1.97403e-13
1.97278e-13
1.97404e-13
1.97275e-13
1.97404e-13
1.97273e-13
1.97402e-13
1.97275e-13
1.97397e-13
1.97277e-13
1.97397e-13
1.97277e-13
1.97398e-13
1.97278e-13
1.97398e-13
1.97274e-13
1.97398e-13
1.97275e-13
1.97396e-13
1.97273e-13
1.97392e-13
1.97271e-13
1.9739e-13
1.97268e-13
1.9739e-13
1.97266e-13
1.97389e-13
1.97263e-13
1.97387e-13
1.97263e-13
1.97387e-13
1.97262e-13
1.97385e-13
1.97262e-13
1.97384e-13
1.97262e-13
1.97381e-13
1.9726e-13
1.97379e-13
1.9726e-13
1.97377e-13
1.97261e-13
1.97374e-13
1.97261e-13
1.97372e-13
1.97261e-13
1.9737e-13
1.9726e-13
1.9737e-13
1.97259e-13
1.97369e-13
1.9726e-13
1.97367e-13
1.97262e-13
1.97364e-13
1.97262e-13
1.97364e-13
1.97262e-13
1.97363e-13
1.97262e-13
1.97362e-13
1.97261e-13
1.97361e-13
1.9726e-13
1.97359e-13
1.9726e-13
1.97357e-13
1.9726e-13
1.97356e-13
1.9726e-13
1.97355e-13
1.9726e-13
1.97353e-13
1.9726e-13
1.97351e-13
1.9726e-13
1.9735e-13
1.9726e-13
1.97349e-13
1.97259e-13
1.97347e-13
1.97259e-13
1.97347e-13
1.97259e-13
1.97346e-13
1.9726e-13
1.97345e-13
1.97259e-13
1.97345e-13
1.97258e-13
1.97343e-13
1.97257e-13
1.97342e-13
1.97257e-13
1.97342e-13
1.97256e-13
1.97341e-13
1.97256e-13
1.97341e-13
1.97254e-13
1.97341e-13
1.97253e-13
1.9734e-13
1.97252e-13
1.97339e-13
1.97251e-13
1.9734e-13
1.9725e-13
1.9734e-13
1.9725e-13
1.97339e-13
1.97249e-13
1.97339e-13
1.97248e-13
1.97339e-13
1.97248e-13
1.97339e-13
1.97247e-13
1.97339e-13
1.97247e-13
1.97338e-13
1.97246e-13
1.97339e-13
1.97246e-13
1.9734e-13
1.97246e-13
1.97339e-13
1.97245e-13
1.9734e-13
1.97245e-13
1.9734e-13
1.97245e-13
1.9734e-13
1.97245e-13
1.9734e-13
1.97245e-13
1.97342e-13
1.97244e-13
1.97342e-13
1.97244e-13
1.97342e-13
1.97245e-13
1.97342e-13
1.97246e-13
1.97342e-13
1.97246e-13
1.97342e-13
1.97246e-13
1.97342e-13
1.97246e-13
1.97342e-13
1.97246e-13
1.97342e-13
1.97246e-13
1.97342e-13
1.97246e-13
1.97342e-13