/*--------------------------------*- C++ -*----------------------------------*\
| =========                 |                                                 |
| \\      /  F ield         | OpenFOAM: The Open Source CFD Toolbox           |
|  \\    /   O peration     | Version:  2106                                  |
|   \\  /    A nd           | Website:  www.openfoam.com                      |
|    \\/     M anipulation  |                                                 |
\*---------------------------------------------------------------------------*/
FoamFile
{
    version     2.0;
    format      ascii;
    arch        "LSB;label=32;scalar=64";
    class       volSymmTensorField;
    location    "14000";
    object      turbulenceProperties:R;
}
// * * * * * * * * * * * * * * * * * * * * * * * * * * * * * * * * * * * * * //

dimensions      [0 2 -2 0 0 0 0];

internalField   nonuniform List<symmTensor> 
2560
(
(1.85921e-08 -6.67775e-14 -9.66693e-17 1.85921e-08 2.03694e-27 1.85921e-08)
(1.85921e-08 -6.67775e-14 -9.66693e-17 1.85921e-08 3.37984e-28 1.85921e-08)
(2.80554e-09 -5.79108e-14 -2.52732e-16 2.80554e-09 2.12227e-28 2.80554e-09)
(2.80554e-09 -5.79108e-14 -2.52732e-16 2.80554e-09 1.72744e-28 2.80554e-09)
(1.3639e-09 -8.30422e-14 -4.98471e-16 1.3639e-09 2.62555e-28 1.3639e-09)
(1.3639e-09 -8.30422e-14 -4.98471e-16 1.3639e-09 2.02251e-29 1.3639e-09)
(2.37334e-09 -3.06406e-13 -1.86599e-15 2.37334e-09 6.74764e-28 2.37334e-09)
(2.37334e-09 -3.06406e-13 -1.86599e-15 2.37334e-09 7.61854e-29 2.37334e-09)
(5.48523e-09 -1.24931e-12 -7.71885e-15 5.48523e-09 2.4198e-27 5.48523e-09)
(5.48523e-09 -1.24931e-12 -7.71885e-15 5.48523e-09 3.17316e-28 5.48523e-09)
(1.14572e-08 -4.1085e-12 -2.57536e-14 1.14572e-08 7.77936e-27 1.14572e-08)
(1.14572e-08 -4.1085e-12 -2.57536e-14 1.14572e-08 1.06633e-27 1.14572e-08)
(2.13591e-08 -1.11742e-11 -7.10626e-14 2.13591e-08 2.15594e-26 2.13591e-08)
(2.13591e-08 -1.11742e-11 -7.10626e-14 2.13591e-08 2.96399e-27 2.13591e-08)
(3.6459e-08 -2.63578e-11 -1.70061e-13 3.6459e-08 5.19911e-26 3.6459e-08)
(3.6459e-08 -2.63578e-11 -1.70061e-13 3.6459e-08 7.14556e-27 3.6459e-08)
(5.82033e-08 -5.58441e-11 -3.65548e-13 5.82033e-08 1.12633e-25 5.82033e-08)
(5.82033e-08 -5.58441e-11 -3.65548e-13 5.82033e-08 1.54726e-26 5.82033e-08)
(8.82173e-08 -1.08884e-10 -7.23107e-13 8.82173e-08 2.23979e-25 8.82173e-08)
(8.82173e-08 -1.08884e-10 -7.23107e-13 8.82173e-08 3.08325e-26 8.82173e-08)
(1.28312e-07 -1.98748e-10 -1.3391e-12 1.28312e-07 4.16721e-25 1.28312e-07)
(1.28312e-07 -1.98748e-10 -1.3391e-12 1.28312e-07 5.75083e-26 1.28312e-07)
(1.80492e-07 -3.43861e-10 -2.35052e-12 1.80492e-07 7.34629e-25 1.80492e-07)
(1.80492e-07 -3.43861e-10 -2.35052e-12 1.80492e-07 1.01657e-25 1.80492e-07)
(2.46971e-07 -5.69148e-10 -3.94708e-12 2.46971e-07 1.2386e-24 2.46971e-07)
(2.46971e-07 -5.69148e-10 -3.94708e-12 2.46971e-07 1.71942e-25 2.46971e-07)
(3.30178e-07 -9.07606e-10 -6.38585e-12 3.30178e-07 2.01162e-24 3.30178e-07)
(3.30178e-07 -9.07606e-10 -6.38585e-12 3.30178e-07 2.80189e-25 3.30178e-07)
(4.32776e-07 -1.40215e-09 -1.00089e-11 4.32776e-07 3.16469e-24 4.32776e-07)
(4.32776e-07 -1.40215e-09 -1.00089e-11 4.32776e-07 4.42107e-25 4.32776e-07)
(5.57674e-07 -2.10777e-09 -1.52646e-11 5.57674e-07 4.84391e-24 5.57674e-07)
(5.57674e-07 -2.10777e-09 -1.52646e-11 5.57674e-07 6.78636e-25 5.57674e-07)
(7.08042e-07 -3.09397e-09 -2.27326e-11 7.08042e-07 7.23937e-24 7.08042e-07)
(7.08042e-07 -3.09397e-09 -2.27326e-11 7.08042e-07 1.01711e-24 7.08042e-07)
(8.87329e-07 -4.44768e-09 -3.31541e-11 8.87329e-07 1.05949e-23 8.87329e-07)
(8.87329e-07 -4.44768e-09 -3.31541e-11 8.87329e-07 1.49278e-24 8.87329e-07)
(1.09928e-06 -6.27652e-09 -4.74671e-11 1.09928e-06 1.52209e-23 1.09928e-06)
(1.09928e-06 -6.27652e-09 -4.74671e-11 1.09928e-06 2.15034e-24 1.09928e-06)
(1.34795e-06 -8.71258e-09 -6.68484e-11 1.34795e-06 2.15076e-23 1.34795e-06)
(1.34795e-06 -8.71258e-09 -6.68484e-11 1.34795e-06 3.04764e-24 1.34795e-06)
(1.63774e-06 -1.19167e-08 -9.27619e-11 1.63774e-06 2.99436e-23 1.63774e-06)
(1.63774e-06 -1.19167e-08 -9.27619e-11 1.63774e-06 4.25669e-24 1.63774e-06)
(1.9734e-06 -1.60834e-08 -1.27017e-10 1.9734e-06 4.11335e-23 1.9734e-06)
(1.9734e-06 -1.60834e-08 -1.27017e-10 1.9734e-06 5.86549e-24 1.9734e-06)
(2.36004e-06 -2.14464e-08 -1.71834e-10 2.36004e-06 5.58207e-23 2.36004e-06)
(2.36004e-06 -2.14464e-08 -1.71834e-10 2.36004e-06 7.98918e-24 2.36004e-06)
(2.80321e-06 -2.8285e-08 -2.29923e-10 2.80321e-06 7.49292e-23 2.80321e-06)
(2.80321e-06 -2.8285e-08 -2.29923e-10 2.80321e-06 1.07596e-23 2.80321e-06)
(3.30884e-06 -3.69315e-08 -3.04573e-10 3.30884e-06 9.95721e-23 3.30884e-06)
(3.30884e-06 -3.69315e-08 -3.04573e-10 3.30884e-06 1.43345e-23 3.30884e-06)
(3.88335e-06 -4.77784e-08 -3.99758e-10 3.88335e-06 1.31078e-22 3.88335e-06)
(3.88335e-06 -4.77784e-08 -3.99758e-10 3.88335e-06 1.89271e-23 3.88335e-06)
(4.53362e-06 -6.12887e-08 -5.20254e-10 4.53362e-06 1.71088e-22 4.53362e-06)
(4.53362e-06 -6.12887e-08 -5.20254e-10 4.53362e-06 2.47745e-23 4.53362e-06)
(5.26703e-06 -7.80052e-08 -6.71782e-10 5.26703e-06 2.21567e-22 5.26703e-06)
(5.26703e-06 -7.80052e-08 -6.71782e-10 5.26703e-06 3.21559e-23 5.26703e-06)
(6.09152e-06 -9.85624e-08 -8.61164e-10 6.09152e-06 2.84853e-22 6.09152e-06)
(6.09152e-06 -9.85624e-08 -8.61164e-10 6.09152e-06 4.14219e-23 6.09152e-06)
(7.01558e-06 -1.23699e-07 -1.09651e-09 7.01558e-06 3.63719e-22 7.01558e-06)
(7.01558e-06 -1.23699e-07 -1.09651e-09 7.01558e-06 5.29885e-23 7.01558e-06)
(8.04833e-06 -1.54273e-07 -1.38741e-09 8.04833e-06 4.61462e-22 8.04833e-06)
(8.04833e-06 -1.54273e-07 -1.38741e-09 8.04833e-06 6.73777e-23 8.04833e-06)
(9.19949e-06 -1.91278e-07 -1.74521e-09 9.19949e-06 5.82026e-22 9.19949e-06)
(9.19949e-06 -1.91278e-07 -1.74521e-09 9.19949e-06 8.51553e-23 9.19949e-06)
(1.04795e-05 -2.35858e-07 -2.18325e-09 1.04795e-05 7.3002e-22 1.04795e-05)
(1.04795e-05 -2.35858e-07 -2.18325e-09 1.04795e-05 1.06969e-22 1.04795e-05)
(1.18995e-05 -2.89332e-07 -2.71718e-09 1.18995e-05 9.10905e-22 1.18995e-05)
(1.18995e-05 -2.89332e-07 -2.71718e-09 1.18995e-05 1.33659e-22 1.18995e-05)
(1.34714e-05 -3.53214e-07 -3.36534e-09 1.34714e-05 1.13101e-21 1.34714e-05)
(1.34714e-05 -3.53214e-07 -3.36534e-09 1.34714e-05 1.66285e-22 1.34714e-05)
(1.52078e-05 -4.29236e-07 -4.14912e-09 1.52078e-05 1.63075e-21 1.52078e-05)
(1.52078e-05 -4.29236e-07 -4.14912e-09 1.52078e-05 2.06027e-22 1.52078e-05)
(1.71224e-05 -5.19377e-07 -5.09344e-09 1.71224e-05 2.29052e-21 1.71224e-05)
(1.71224e-05 -5.19377e-07 -5.09344e-09 1.71224e-05 2.54053e-22 1.71224e-05)
(1.92295e-05 -6.25894e-07 -6.22728e-09 1.92295e-05 2.81003e-21 1.92295e-05)
(1.92295e-05 -6.25894e-07 -6.22728e-09 1.92295e-05 3.11835e-22 1.92295e-05)
(2.15445e-05 -7.51351e-07 -7.58419e-09 2.15445e-05 3.43181e-21 2.15445e-05)
(2.15445e-05 -7.51351e-07 -7.58419e-09 2.15445e-05 3.81238e-22 2.15445e-05)
(2.40837e-05 -8.98662e-07 -9.20303e-09 2.40837e-05 4.17445e-21 2.40837e-05)
(2.40837e-05 -8.98662e-07 -9.20303e-09 2.40837e-05 4.64598e-22 2.40837e-05)
(2.68647e-05 -1.07112e-06 -1.11286e-08 2.68647e-05 5.05936e-21 2.68647e-05)
(2.68647e-05 -1.07112e-06 -1.11286e-08 2.68647e-05 5.64372e-22 2.68647e-05)
(2.99058e-05 -1.27247e-06 -1.34127e-08 2.99058e-05 6.11184e-21 2.99058e-05)
(2.99058e-05 -1.27247e-06 -1.34127e-08 2.99058e-05 6.82782e-22 2.99058e-05)
(3.32267e-05 -1.50689e-06 -1.61146e-08 3.32267e-05 7.35873e-21 3.32267e-05)
(3.32267e-05 -1.50689e-06 -1.61146e-08 3.32267e-05 8.22876e-22 3.32267e-05)
(3.68484e-05 -1.77914e-06 -1.93026e-08 3.68484e-05 8.83242e-21 3.68484e-05)
(3.68484e-05 -1.77914e-06 -1.93026e-08 3.68484e-05 9.8811e-22 3.68484e-05)
(4.07929e-05 -2.09454e-06 -2.30548e-08 4.07929e-05 1.05696e-20 4.07929e-05)
(4.07929e-05 -2.09454e-06 -2.30548e-08 4.07929e-05 1.18255e-21 4.07929e-05)
(4.50837e-05 -2.45906e-06 -2.74605e-08 4.50837e-05 1.26119e-20 4.50837e-05)
(4.50837e-05 -2.45906e-06 -2.74605e-08 4.50837e-05 1.41075e-21 4.50837e-05)
(4.97457e-05 -2.87939e-06 -3.26216e-08 4.97457e-05 1.50066e-20 4.97457e-05)
(4.97457e-05 -2.87939e-06 -3.26216e-08 4.97457e-05 1.67906e-21 4.97457e-05)
(5.48052e-05 -3.36302e-06 -3.86545e-08 5.48052e-05 1.32468e-20 5.48052e-05)
(5.48052e-05 -3.36302e-06 -3.86545e-08 5.48052e-05 1.99232e-21 5.48052e-05)
(6.02901e-05 -3.91829e-06 -4.56911e-08 6.02901e-05 8.18291e-21 6.02901e-05)
(6.02901e-05 -3.91829e-06 -4.56911e-08 6.02901e-05 2.35704e-21 6.02901e-05)
(6.62298e-05 -4.55449e-06 -5.38816e-08 6.62298e-05 7.03138e-21 6.62298e-05)
(6.62298e-05 -4.55449e-06 -5.38816e-08 6.62298e-05 2.78534e-21 6.62298e-05)
(7.26554e-05 -5.28198e-06 -6.33958e-08 7.26554e-05 8.06334e-21 7.26554e-05)
(7.26554e-05 -5.28198e-06 -6.33958e-08 7.26554e-05 3.28204e-21 7.26554e-05)
(7.95997e-05 -6.11221e-06 -7.44263e-08 7.95997e-05 9.24152e-21 7.95997e-05)
(7.95997e-05 -6.11221e-06 -7.44263e-08 7.95997e-05 3.85736e-21 7.95997e-05)
(8.70974e-05 -7.05792e-06 -8.71901e-08 8.70974e-05 1.05641e-20 8.70974e-05)
(8.70974e-05 -7.05792e-06 -8.71901e-08 8.70974e-05 4.52301e-21 8.70974e-05)
(9.51848e-05 -8.13314e-06 -1.01932e-07 9.51848e-05 1.20217e-20 9.51848e-05)
(9.51848e-05 -8.13314e-06 -1.01932e-07 9.51848e-05 5.28854e-21 9.51848e-05)
(0.0001039 -9.35338e-06 -1.18927e-07 0.0001039 1.36519e-20 0.0001039)
(0.0001039 -9.35338e-06 -1.18927e-07 0.0001039 6.17028e-21 0.0001039)
(0.000113284 -1.07357e-05 -1.38486e-07 0.000113284 1.54596e-20 0.000113284)
(0.000113284 -1.07357e-05 -1.38486e-07 0.000113284 7.18919e-21 0.000113284)
(0.000123379 -1.22989e-05 -1.60954e-07 0.000123379 1.74548e-20 0.000123379)
(0.000123379 -1.22989e-05 -1.60954e-07 0.000123379 8.36704e-21 0.000123379)
(0.000134228 -1.40636e-05 -1.86719e-07 0.000134228 1.96529e-20 0.000134228)
(0.000134228 -1.40636e-05 -1.86719e-07 0.000134228 9.71324e-21 0.000134228)
(0.00014588 -1.60522e-05 -2.16214e-07 0.00014588 2.20895e-20 0.00014588)
(0.00014588 -1.60522e-05 -2.16214e-07 0.00014588 1.12396e-20 0.00014588)
(0.000158381 -1.82894e-05 -2.49921e-07 0.000158381 2.47828e-20 0.000158381)
(0.000158381 -1.82894e-05 -2.49921e-07 0.000158381 1.29792e-20 0.000158381)
(0.000171783 -2.08018e-05 -2.88376e-07 0.000171783 2.77214e-20 0.000171783)
(0.000171783 -2.08018e-05 -2.88376e-07 0.000171783 1.4966e-20 0.000171783)
(0.000186138 -2.36186e-05 -3.32173e-07 0.000186138 3.08891e-20 0.000186138)
(0.000186138 -2.36186e-05 -3.32173e-07 0.000186138 1.59831e-20 0.000186138)
(0.000201502 -2.67713e-05 -3.8197e-07 0.000201502 3.43176e-20 0.000201502)
(0.000201502 -2.67713e-05 -3.8197e-07 0.000201502 1.62591e-20 0.000201502)
(0.000217931 -3.02937e-05 -4.38492e-07 0.000217931 3.80439e-20 0.000217931)
(0.000217931 -3.02937e-05 -4.38492e-07 0.000217931 1.77612e-20 0.000217931)
(0.000235485 -3.42225e-05 -5.02538e-07 0.000235485 4.21267e-20 0.000235485)
(0.000235485 -3.42225e-05 -5.02538e-07 0.000235485 2.01413e-20 0.000235485)
(0.000254225 -3.85971e-05 -5.74985e-07 0.000254225 4.65149e-20 0.000254225)
(0.000254225 -3.85971e-05 -5.74985e-07 0.000254225 2.27309e-20 0.000254225)
(0.000274214 -4.34594e-05 -6.56792e-07 0.000274214 5.10654e-20 0.000274214)
(0.000274214 -4.34594e-05 -6.56792e-07 0.000274214 2.56205e-20 0.000274214)
(0.000295516 -4.88541e-05 -7.49008e-07 0.000295516 5.58889e-20 0.000295516)
(0.000295516 -4.88541e-05 -7.49008e-07 0.000295516 2.88589e-20 0.000295516)
(0.000318198 -5.4829e-05 -8.52772e-07 0.000318198 6.08689e-20 0.000318198)
(0.000318198 -5.4829e-05 -8.52772e-07 0.000318198 3.23565e-20 0.000318198)
(0.000342329 -6.14343e-05 -9.69322e-07 0.000342329 6.60162e-20 0.000342329)
(0.000342329 -6.14343e-05 -9.69322e-07 0.000342329 3.62911e-20 0.000342329)
(0.000367976 -6.87228e-05 -1.09999e-06 0.000367976 7.16217e-20 0.000367976)
(0.000367976 -6.87228e-05 -1.09999e-06 0.000367976 4.0639e-20 0.000367976)
(0.00039521 -7.67502e-05 -1.24623e-06 0.00039521 7.73045e-20 0.00039521)
(0.00039521 -7.67502e-05 -1.24623e-06 0.00039521 4.53765e-20 0.00039521)
(0.000424102 -8.55742e-05 -1.40957e-06 0.000424102 8.2799e-20 0.000424102)
(0.000424102 -8.55742e-05 -1.40957e-06 0.000424102 5.05002e-20 0.000424102)
(0.000454723 -9.52549e-05 -1.59167e-06 0.000454723 8.81269e-20 0.000454723)
(0.000454723 -9.52549e-05 -1.59167e-06 0.000454723 5.59638e-20 0.000454723)
(0.000487145 -0.000105854 -1.79429e-06 0.000487145 9.32313e-20 0.000487145)
(0.000487145 -0.000105854 -1.79429e-06 0.000487145 6.18372e-20 0.000487145)
(0.000521438 -0.000117435 -2.01929e-06 0.000521438 9.85167e-20 0.000521438)
(0.000521438 -0.000117435 -2.01929e-06 0.000521438 6.82739e-20 0.000521438)
(0.000557671 -0.000130062 -2.26862e-06 0.000557671 1.03434e-19 0.000557671)
(0.000557671 -0.000130062 -2.26862e-06 0.000557671 7.52136e-20 0.000557671)
(0.000595914 -0.0001438 -2.54436e-06 0.000595914 1.07436e-19 0.000595914)
(0.000595914 -0.0001438 -2.54436e-06 0.000595914 8.2422e-20 0.000595914)
(0.000636233 -0.000158714 -2.84864e-06 0.000636233 1.10434e-19 0.000636233)
(0.000636233 -0.000158714 -2.84864e-06 0.000636233 8.97254e-20 0.000636233)
(0.000678691 -0.000174868 -3.1837e-06 0.000678691 1.12387e-19 0.000678691)
(0.000678691 -0.000174868 -3.1837e-06 0.000678691 9.80247e-20 0.000678691)
(0.00072335 -0.000192325 -3.55185e-06 0.00072335 1.13513e-19 0.00072335)
(0.00072335 -0.000192325 -3.55185e-06 0.00072335 1.07625e-19 0.00072335)
(0.000770266 -0.000211147 -3.95543e-06 0.000770266 1.12918e-19 0.000770266)
(0.000770266 -0.000211147 -3.95543e-06 0.000770266 1.17288e-19 0.000770266)
(0.000819491 -0.00023139 -4.39686e-06 0.000819491 1.09963e-19 0.000819491)
(0.000819491 -0.00023139 -4.39686e-06 0.000819491 1.26424e-19 0.000819491)
(0.000871073 -0.000253111 -4.87855e-06 0.000871073 1.05371e-19 0.000871073)
(0.000871073 -0.000253111 -4.87855e-06 0.000871073 1.35718e-19 0.000871073)
(0.000925052 -0.000276357 -5.40294e-06 0.000925052 9.79677e-20 0.000925052)
(0.000925052 -0.000276357 -5.40294e-06 0.000925052 1.46058e-19 0.000925052)
(0.000981464 -0.000301174 -5.97246e-06 0.000981464 8.6895e-20 0.000981464)
(0.000981464 -0.000301174 -5.97246e-06 0.000981464 1.57058e-19 0.000981464)
(0.00104034 -0.0003276 -6.58949e-06 0.00104034 7.4486e-20 0.00104034)
(0.00104034 -0.0003276 -6.58949e-06 0.00104034 1.67213e-19 0.00104034)
(0.00110168 -0.000355666 -7.25635e-06 0.00110168 5.85816e-20 0.00110168)
(0.00110168 -0.000355666 -7.25635e-06 0.00110168 1.76056e-19 0.00110168)
(0.00116552 -0.000385395 -7.9753e-06 0.00116552 3.09096e-20 0.00116552)
(0.00116552 -0.000385395 -7.9753e-06 0.00116552 1.86177e-19 0.00116552)
(0.00123185 -0.000416801 -8.74847e-06 0.00123185 1.41098e-20 0.00123185)
(0.00123185 -0.000416801 -8.74847e-06 0.00123185 1.96503e-19 0.00123185)
(0.00130066 -0.00044989 -9.57788e-06 0.00130066 -1.792e-20 0.00130066)
(0.00130066 -0.00044989 -9.57788e-06 0.00130066 2.06062e-19 0.00130066)
(0.00137194 -0.000484658 -1.04654e-05 0.00137194 -5.39979e-20 0.00137194)
(0.00137194 -0.000484658 -1.04654e-05 0.00137194 2.16501e-19 0.00137194)
(0.00144565 -0.00052109 -1.14127e-05 0.00144565 -9.40539e-20 0.00144565)
(0.00144565 -0.00052109 -1.14127e-05 0.00144565 2.24425e-19 0.00144565)
(0.00152176 -0.000559163 -1.24213e-05 0.00152176 -1.40013e-19 0.00152176)
(0.00152176 -0.000559163 -1.24213e-05 0.00152176 2.34006e-19 0.00152176)
(0.00160022 -0.000598841 -1.34925e-05 0.00160022 -1.92966e-19 0.00160022)
(0.00160022 -0.000598841 -1.34925e-05 0.00160022 2.45273e-19 0.00160022)
(0.00168096 -0.000640081 -1.46274e-05 0.00168096 -2.5327e-19 0.00168096)
(0.00168096 -0.000640081 -1.46274e-05 0.00168096 2.53585e-19 0.00168096)
(0.00176392 -0.000682826 -1.58269e-05 0.00176392 -3.23326e-19 0.00176392)
(0.00176392 -0.000682826 -1.58269e-05 0.00176392 2.59497e-19 0.00176392)
(0.00184902 -0.000727014 -1.70915e-05 0.00184902 -3.93691e-19 0.00184902)
(0.00184902 -0.000727014 -1.70915e-05 0.00184902 2.6636e-19 0.00184902)
(0.00193616 -0.00077257 -1.84216e-05 0.00193616 -4.67587e-19 0.00193616)
(0.00193616 -0.00077257 -1.84216e-05 0.00193616 2.77097e-19 0.00193616)
(0.00202524 -0.000819415 -1.98174e-05 0.00202524 -5.48846e-19 0.00202524)
(0.00202524 -0.000819415 -1.98174e-05 0.00202524 2.88866e-19 0.00202524)
(0.00211616 -0.000867459 -2.12787e-05 0.00211616 -6.41233e-19 0.00211616)
(0.00211616 -0.000867459 -2.12787e-05 0.00211616 2.97625e-19 0.00211616)
(0.0022088 -0.000916607 -2.28053e-05 0.0022088 -7.34504e-19 0.0022088)
(0.0022088 -0.000916607 -2.28053e-05 0.0022088 3.03557e-19 0.0022088)
(0.00230304 -0.000966759 -2.43966e-05 0.00230304 -8.32082e-19 0.00230304)
(0.00230304 -0.000966759 -2.43966e-05 0.00230304 3.07997e-19 0.00230304)
(0.00239875 -0.00101781 -2.60519e-05 0.00239875 -9.44695e-19 0.00239875)
(0.00239875 -0.00101781 -2.60519e-05 0.00239875 3.11939e-19 0.00239875)
(0.00249578 -0.00106965 -2.77701e-05 0.00249578 -1.06239e-18 0.00249578)
(0.00249578 -0.00106965 -2.77701e-05 0.00249578 3.17095e-19 0.00249578)
(0.00259401 -0.00112218 -2.95504e-05 0.00259401 -1.19143e-18 0.00259401)
(0.00259401 -0.00112218 -2.95504e-05 0.00259401 3.23167e-19 0.00259401)
(0.0026933 -0.00117527 -3.13913e-05 0.0026933 -1.32188e-18 0.0026933)
(0.0026933 -0.00117527 -3.13913e-05 0.0026933 3.44629e-19 0.0026933)
(0.00279348 -0.00122882 -3.32915e-05 0.00279348 -1.43508e-18 0.00279348)
(0.00279348 -0.00122882 -3.32915e-05 0.00279348 3.58174e-19 0.00279348)
(0.00289443 -0.00128272 -3.52496e-05 0.00289443 -1.55072e-18 0.00289443)
(0.00289443 -0.00128272 -3.52496e-05 0.00289443 3.52561e-19 0.00289443)
(0.00299599 -0.00133685 -3.72639e-05 0.00299599 -1.68452e-18 0.00299599)
(0.00299599 -0.00133685 -3.72639e-05 0.00299599 3.63143e-19 0.00299599)
(0.00309802 -0.00139112 -3.93328e-05 0.00309802 -1.81571e-18 0.00309802)
(0.00309802 -0.00139112 -3.93328e-05 0.00309802 3.74519e-19 0.00309802)
(0.00320037 -0.00144541 -4.14547e-05 0.00320037 -1.92821e-18 0.00320037)
(0.00320037 -0.00144541 -4.14547e-05 0.00320037 3.69956e-19 0.00320037)
(0.0033029 -0.00149964 -4.36278e-05 0.0033029 -2.02012e-18 0.0033029)
(0.0033029 -0.00149964 -4.36278e-05 0.0033029 3.71659e-19 0.0033029)
(0.00340548 -0.00155371 -4.58503e-05 0.00340548 -2.1062e-18 0.00340548)
(0.00340548 -0.00155371 -4.58503e-05 0.00340548 3.71294e-19 0.00340548)
(0.00350796 -0.00160752 -4.81207e-05 0.00350796 -2.21287e-18 0.00350796)
(0.00350796 -0.00160752 -4.81207e-05 0.00350796 3.71856e-19 0.00350796)
(0.00361022 -0.00166099 -5.04371e-05 0.00361022 -2.34792e-18 0.00361022)
(0.00361022 -0.00166099 -5.04371e-05 0.00361022 3.91808e-19 0.00361022)
(0.00371214 -0.00171405 -5.2798e-05 0.00371214 -2.4828e-18 0.00371214)
(0.00371214 -0.00171405 -5.2798e-05 0.00371214 4.12973e-19 0.00371214)
(0.00381358 -0.00176662 -5.52017e-05 0.00381358 -2.59683e-18 0.00381358)
(0.00381358 -0.00176662 -5.52017e-05 0.00381358 4.38322e-19 0.00381358)
(0.00391445 -0.00181863 -5.76467e-05 0.00391445 -2.6986e-18 0.00391445)
(0.00391445 -0.00181863 -5.76467e-05 0.00391445 4.70415e-19 0.00391445)
(0.00401462 -0.00187003 -6.01314e-05 0.00401462 -2.79791e-18 0.00401462)
(0.00401462 -0.00187003 -6.01314e-05 0.00401462 5.06191e-19 0.00401462)
(0.004114 -0.00192076 -6.26546e-05 0.004114 -2.87363e-18 0.004114)
(0.004114 -0.00192076 -6.26546e-05 0.004114 5.45655e-19 0.004114)
(0.00421249 -0.00197076 -6.52148e-05 0.00421249 -2.93183e-18 0.00421249)
(0.00421249 -0.00197076 -6.52148e-05 0.00421249 5.73655e-19 0.00421249)
(0.00431 -0.00202 -6.78107e-05 0.00431 -2.98462e-18 0.00431)
(0.00431 -0.00202 -6.78107e-05 0.00431 6.15976e-19 0.00431)
(0.00440645 -0.00206844 -7.04413e-05 0.00440645 -2.96147e-18 0.00440645)
(0.00440645 -0.00206844 -7.04413e-05 0.00440645 6.49465e-19 0.00440645)
(0.00450176 -0.00211604 -7.31054e-05 0.00450176 -2.95922e-18 0.00450176)
(0.00450176 -0.00211604 -7.31054e-05 0.00450176 6.39302e-19 0.00450176)
(0.00459586 -0.00216277 -7.58021e-05 0.00459586 -3.03513e-18 0.00459586)
(0.00459586 -0.00216277 -7.58021e-05 0.00459586 6.42731e-19 0.00459586)
(0.0046887 -0.00220861 -7.85304e-05 0.0046887 -3.08629e-18 0.0046887)
(0.0046887 -0.00220861 -7.85304e-05 0.0046887 7.30691e-19 0.0046887)
(0.0047802 -0.00225354 -8.12895e-05 0.0047802 -3.10578e-18 0.0047802)
(0.0047802 -0.00225354 -8.12895e-05 0.0047802 8.39245e-19 0.0047802)
(0.00487033 -0.00229754 -8.40787e-05 0.00487033 -3.03137e-18 0.00487033)
(0.00487033 -0.00229754 -8.40787e-05 0.00487033 8.7177e-19 0.00487033)
(0.00495903 -0.0023406 -8.68973e-05 0.00495903 -2.45921e-18 0.00495903)
(0.00495903 -0.0023406 -8.68973e-05 0.00495903 9.28175e-19 0.00495903)
(0.00504626 -0.00238271 -8.97447e-05 0.00504626 -1.96317e-18 0.00504626)
(0.00504626 -0.00238271 -8.97447e-05 0.00504626 1.05763e-18 0.00504626)
(0.00513199 -0.00242386 -9.26204e-05 0.00513199 -2.03964e-18 0.00513199)
(0.00513199 -0.00242386 -9.26204e-05 0.00513199 1.20266e-18 0.00513199)
(0.00521618 -0.00246406 -9.5524e-05 0.00521618 -2.11634e-18 0.00521618)
(0.00521618 -0.00246406 -9.5524e-05 0.00521618 1.35062e-18 0.00521618)
(0.00529882 -0.00250329 -9.84551e-05 0.00529882 -2.10599e-18 0.00529882)
(0.00529882 -0.00250329 -9.84551e-05 0.00529882 1.53622e-18 0.00529882)
(0.00537988 -0.00254157 -0.000101413 0.00537988 -2.02495e-18 0.00537988)
(0.00537988 -0.00254157 -0.000101413 0.00537988 1.74366e-18 0.00537988)
(0.00545934 -0.00257889 -0.000104399 0.00545934 -1.92303e-18 0.00545934)
(0.00545934 -0.00257889 -0.000104399 0.00545934 1.91498e-18 0.00545934)
(0.00553719 -0.00261526 -0.000107411 0.00553719 -1.87426e-18 0.00553719)
(0.00553719 -0.00261526 -0.000107411 0.00553719 2.04437e-18 0.00553719)
(0.00561342 -0.00265069 -0.00011045 0.00561342 -1.76992e-18 0.00561342)
(0.00561342 -0.00265069 -0.00011045 0.00561342 2.22544e-18 0.00561342)
(0.00568803 -0.00268519 -0.000113515 0.00568803 -1.65214e-18 0.00568803)
(0.00568803 -0.00268519 -0.000113515 0.00568803 2.45871e-18 0.00568803)
(0.00576101 -0.00271876 -0.000116607 0.00576101 -1.5386e-18 0.00576101)
(0.00576101 -0.00271876 -0.000116607 0.00576101 2.61671e-18 0.00576101)
(0.00583235 -0.00275142 -0.000119726 0.00583235 -1.54009e-18 0.00583235)
(0.00583235 -0.00275142 -0.000119726 0.00583235 2.82861e-18 0.00583235)
(0.00590207 -0.00278318 -0.000122871 0.00590207 -1.4986e-18 0.00590207)
(0.00590207 -0.00278318 -0.000122871 0.00590207 3.19164e-18 0.00590207)
(0.00597017 -0.00281405 -0.000126043 0.00597017 -1.37729e-18 0.00597017)
(0.00597017 -0.00281405 -0.000126043 0.00597017 3.44167e-18 0.00597017)
(0.00603664 -0.00284404 -0.000129241 0.00603664 -1.24938e-18 0.00603664)
(0.00603664 -0.00284404 -0.000129241 0.00603664 3.46441e-18 0.00603664)
(0.00610151 -0.00287317 -0.000132467 0.00610151 -1.25376e-18 0.00610151)
(0.00610151 -0.00287317 -0.000132467 0.00610151 3.65194e-18 0.00610151)
(0.00616478 -0.00290146 -0.00013572 0.00616478 -1.28825e-18 0.00616478)
(0.00616478 -0.00290146 -0.00013572 0.00616478 4.17764e-18 0.00616478)
(0.00622647 -0.00292891 -0.000139 0.00622647 -1.17093e-18 0.00622647)
(0.00622647 -0.00292891 -0.000139 0.00622647 4.66277e-18 0.00622647)
(0.00628658 -0.00295555 -0.000142308 0.00628658 -1.08159e-18 0.00628658)
(0.00628658 -0.00295555 -0.000142308 0.00628658 4.93936e-18 0.00628658)
(0.00634513 -0.00298138 -0.000145644 0.00634513 -1.08384e-18 0.00634513)
(0.00634513 -0.00298138 -0.000145644 0.00634513 5.15542e-18 0.00634513)
(0.00640213 -0.00300643 -0.000149008 0.00640213 -9.75937e-19 0.00640213)
(0.00640213 -0.00300643 -0.000149008 0.00640213 5.40483e-18 0.00640213)
(0.00645761 -0.0030307 -0.0001524 0.00645761 -8.85572e-19 0.00645761)
(0.00645761 -0.0030307 -0.0001524 0.00645761 5.59312e-18 0.00645761)
(0.00651158 -0.00305421 -0.000155821 0.00651158 -9.21934e-19 0.00651158)
(0.00651158 -0.00305421 -0.000155821 0.00651158 5.9201e-18 0.00651158)
(0.00656405 -0.00307698 -0.000159272 0.00656405 -8.83319e-19 0.00656405)
(0.00656405 -0.00307698 -0.000159272 0.00656405 6.64581e-18 0.00656405)
(0.00661505 -0.00309902 -0.000162751 0.00661505 -6.43815e-19 0.00661505)
(0.00661505 -0.00309902 -0.000162751 0.00661505 7.12079e-18 0.00661505)
(0.00666459 -0.00312035 -0.00016626 0.00666459 -5.67617e-19 0.00666459)
(0.00666459 -0.00312035 -0.00016626 0.00666459 7.44286e-18 0.00666459)
(0.00671269 -0.00314098 -0.0001698 0.00671269 -5.96746e-19 0.00671269)
(0.00671269 -0.00314098 -0.0001698 0.00671269 7.83141e-18 0.00671269)
(0.00675937 -0.00316092 -0.000173369 0.00675937 -7.82173e-19 0.00675937)
(0.00675937 -0.00316092 -0.000173369 0.00675937 8.11873e-18 0.00675937)
(0.00680466 -0.00318019 -0.000176969 0.00680466 -1.32784e-18 0.00680466)
(0.00680466 -0.00318019 -0.000176969 0.00680466 8.70124e-18 0.00680466)
(0.00684856 -0.0031988 -0.000180601 0.00684856 -1.69754e-18 0.00684856)
(0.00684856 -0.0031988 -0.000180601 0.00684856 9.57249e-18 0.00684856)
(0.0068911 -0.00321677 -0.000184263 0.0068911 -2.0381e-18 0.0068911)
(0.0068911 -0.00321677 -0.000184263 0.0068911 1.02572e-17 0.0068911)
(0.0069323 -0.00323411 -0.000187958 0.0069323 -1.94176e-18 0.0069323)
(0.0069323 -0.00323411 -0.000187958 0.0069323 1.06778e-17 0.0069323)
(0.00697218 -0.00325082 -0.000191684 0.00697218 -1.79866e-18 0.00697218)
(0.00697218 -0.00325082 -0.000191684 0.00697218 1.1032e-17 0.00697218)
(0.00701075 -0.00326693 -0.000195443 0.00701075 -1.75103e-18 0.00701075)
(0.00701075 -0.00326693 -0.000195443 0.00701075 1.1522e-17 0.00701075)
(0.00704804 -0.00328245 -0.000199235 0.00704804 -1.38633e-18 0.00704804)
(0.00704804 -0.00328245 -0.000199235 0.00704804 1.14171e-17 0.00704804)
(0.00708407 -0.00329738 -0.00020306 0.00708407 -1.25743e-18 0.00708407)
(0.00708407 -0.00329738 -0.00020306 0.00708407 1.05656e-17 0.00708407)
(0.00711884 -0.00331173 -0.000206918 0.00711884 -1.14861e-18 0.00711884)
(0.00711884 -0.00331173 -0.000206918 0.00711884 1.05265e-17 0.00711884)
(0.00715239 -0.00332553 -0.00021081 0.00715239 -9.34129e-19 0.00715239)
(0.00715239 -0.00332553 -0.00021081 0.00715239 1.0993e-17 0.00715239)
(0.00718473 -0.00333877 -0.000214736 0.00718473 -7.13694e-19 0.00718473)
(0.00718473 -0.00333877 -0.000214736 0.00718473 1.13093e-17 0.00718473)
(0.00721587 -0.00335148 -0.000218696 0.00721587 -3.72374e-19 0.00721587)
(0.00721587 -0.00335148 -0.000218696 0.00721587 1.18874e-17 0.00721587)
(0.00724583 -0.00336365 -0.000222691 0.00724583 -3.74553e-20 0.00724583)
(0.00724583 -0.00336365 -0.000222691 0.00724583 1.24463e-17 0.00724583)
(0.00727464 -0.0033753 -0.000226721 0.00727464 -3.38264e-20 0.00727464)
(0.00727464 -0.0033753 -0.000226721 0.00727464 1.30728e-17 0.00727464)
(0.0073023 -0.00338643 -0.000230786 0.0073023 -5.41689e-19 0.0073023)
(0.0073023 -0.00338643 -0.000230786 0.0073023 1.39185e-17 0.0073023)
(0.00732883 -0.00339706 -0.000234886 0.00732883 -9.96548e-19 0.00732883)
(0.00732883 -0.00339706 -0.000234886 0.00732883 1.46092e-17 0.00732883)
(0.00735425 -0.0034072 -0.000239022 0.00735425 -8.88608e-19 0.00735425)
(0.00735425 -0.0034072 -0.000239022 0.00735425 1.53013e-17 0.00735425)
(0.00737857 -0.00341684 -0.000243194 0.00737857 -8.6398e-19 0.00737857)
(0.00737857 -0.00341684 -0.000243194 0.00737857 1.60623e-17 0.00737857)
(0.00740181 -0.00342601 -0.000247402 0.00740181 -1.32431e-18 0.00740181)
(0.00740181 -0.00342601 -0.000247402 0.00740181 1.68797e-17 0.00740181)
(0.00742398 -0.0034347 -0.000251646 0.00742398 -1.58413e-18 0.00742398)
(0.00742398 -0.0034347 -0.000251646 0.00742398 1.79744e-17 0.00742398)
(0.0074451 -0.00344293 -0.000255926 0.0074451 -2.03003e-18 0.0074451)
(0.0074451 -0.00344293 -0.000255926 0.0074451 1.86266e-17 0.0074451)
(0.00746517 -0.0034507 -0.000260243 0.00746517 -2.46641e-18 0.00746517)
(0.00746517 -0.0034507 -0.000260243 0.00746517 1.91115e-17 0.00746517)
(0.00748422 -0.00345801 -0.000264597 0.00748422 -2.05629e-18 0.00748422)
(0.00748422 -0.00345801 -0.000264597 0.00748422 2.00881e-17 0.00748422)
(0.00750225 -0.00346488 -0.000268988 0.00750225 -2.10839e-18 0.00750225)
(0.00750225 -0.00346488 -0.000268988 0.00750225 2.09952e-17 0.00750225)
(0.00751927 -0.0034713 -0.000273415 0.00751927 -2.45287e-18 0.00751927)
(0.00751927 -0.0034713 -0.000273415 0.00751927 2.1634e-17 0.00751927)
(0.0075353 -0.00347729 -0.00027788 0.0075353 -2.08553e-18 0.0075353)
(0.0075353 -0.00347729 -0.00027788 0.0075353 2.17988e-17 0.0075353)
(0.00755036 -0.00348285 -0.000282381 0.00755036 -1.7667e-18 0.00755036)
(0.00755036 -0.00348285 -0.000282381 0.00755036 2.2291e-17 0.00755036)
(0.00756444 -0.00348798 -0.00028692 0.00756444 -1.52294e-18 0.00756444)
(0.00756444 -0.00348798 -0.00028692 0.00756444 2.35358e-17 0.00756444)
(0.00757756 -0.0034927 -0.000291495 0.00757756 -1.40756e-18 0.00757756)
(0.00757756 -0.0034927 -0.000291495 0.00757756 2.48444e-17 0.00757756)
(0.00758973 -0.00349699 -0.000296107 0.00758973 -1.40093e-18 0.00758973)
(0.00758973 -0.00349699 -0.000296107 0.00758973 2.56357e-17 0.00758973)
(0.00760096 -0.00350087 -0.000300757 0.00760096 -1.37323e-18 0.00760096)
(0.00760096 -0.00350087 -0.000300757 0.00760096 2.59112e-17 0.00760096)
(0.00761125 -0.00350435 -0.000305443 0.00761125 -7.77811e-19 0.00761125)
(0.00761125 -0.00350435 -0.000305443 0.00761125 2.62085e-17 0.00761125)
(0.00762063 -0.00350741 -0.000310166 0.00762063 1.38306e-19 0.00762063)
(0.00762063 -0.00350741 -0.000310166 0.00762063 2.71839e-17 0.00762063)
(0.00762909 -0.00351008 -0.000314925 0.00762909 -7.09496e-20 0.00762909)
(0.00762909 -0.00351008 -0.000314925 0.00762909 2.86273e-17 0.00762909)
(0.00763664 -0.00351235 -0.000319721 0.00763664 -2.4067e-19 0.00763664)
(0.00763664 -0.00351235 -0.000319721 0.00763664 3.02099e-17 0.00763664)
(0.00764329 -0.00351422 -0.000324553 0.00764329 5.9367e-20 0.00764329)
(0.00764329 -0.00351422 -0.000324553 0.00764329 3.17648e-17 0.00764329)
(0.00764905 -0.0035157 -0.000329421 0.00764905 2.72275e-19 0.00764905)
(0.00764905 -0.0035157 -0.000329421 0.00764905 3.2868e-17 0.00764905)
(0.00765392 -0.00351679 -0.000334324 0.00765392 4.65746e-19 0.00765392)
(0.00765392 -0.00351679 -0.000334324 0.00765392 3.40202e-17 0.00765392)
(0.00765791 -0.00351748 -0.000339263 0.00765791 6.65016e-19 0.00765791)
(0.00765791 -0.00351748 -0.000339263 0.00765791 3.53935e-17 0.00765791)
(0.00766103 -0.0035178 -0.000344237 0.00766103 1.5952e-18 0.00766103)
(0.00766103 -0.0035178 -0.000344237 0.00766103 3.58175e-17 0.00766103)
(0.00766328 -0.00351773 -0.000349245 0.00766328 1.44812e-18 0.00766328)