/*--------------------------------*- C++ -*----------------------------------*\
| =========                 |                                                 |
| \\      /  F ield         | OpenFOAM: The Open Source CFD Toolbox           |
|  \\    /   O peration     | Version:  2012                                  |
|   \\  /    A nd           | Website:  www.openfoam.com                      |
|    \\/     M anipulation  |                                                 |
\*---------------------------------------------------------------------------*/
FoamFile
{
    version     2.0;
    format      ascii;
    class       volTensorField;
    location    "3000";
    object      grad(U);
}
// * * * * * * * * * * * * * * * * * * * * * * * * * * * * * * * * * * * * * //

dimensions      [0 0 -1 0 0 0 0];


internalField   nonuniform List<tensor> 
2560
(
(-9.14312e-18 -6.02738e-25 0 29.7178 -8.07794e-28 1.72712e-13 0.0430213 0 7.47918e-17)
(0 -4.15781e-30 5.1285e-27 29.7178 1.69695e-15 1.45779e-13 0.0430213 -5.08828e-18 9.7462e-17)
(0 1.53683e-30 1.76795e-26 29.71 -4.00094e-12 5.33553e-14 0.129673 -3.80098e-15 1.56712e-16)
(-1.80242e-17 -5.10166e-31 0 29.71 2.54657e-15 1.06411e-13 0.129673 7.47964e-18 3.52301e-16)
(-5.45766e-18 -2.63147e-25 -6.23011e-32 29.6974 8.07851e-28 2.81021e-14 0.178229 -3.15544e-30 1.78406e-16)
(0 8.07896e-30 0 29.6974 2.90524e-15 8.05998e-15 0.178229 1.37296e-17 3.62628e-16)
(1.74826e-17 -3.98158e-30 3.16179e-31 29.6794 2.12546e-12 2.97859e-14 0.180695 -2.04292e-14 1.81812e-16)
(0 3.98158e-30 -2.48849e-31 29.6794 4.55905e-15 8.19831e-15 0.180695 2.19431e-17 3.73235e-16)
(1.38082e-16 -1.56981e-29 4.90565e-31 29.6561 1.0869e-13 2.9831e-14 0.183162 -2.07346e-15 1.84189e-16)
(0 1.17736e-29 -2.45282e-31 29.6561 4.57182e-15 8.34009e-15 0.183162 2.82494e-17 3.84125e-16)
(1.78148e-16 -1.43548e-29 3.19237e-31 29.6277 -8.3661e-14 3.00656e-14 0.185631 -2.77398e-16 1.90079e-16)
(3.36361e-16 1.16165e-29 -2.41767e-31 29.6277 4.56701e-15 8.48451e-15 0.185631 2.85986e-17 3.95307e-16)
(-5.45831e-17 -3.5611e-28 -8.24097e-32 29.5941 -1.88009e-14 3.06327e-14 0.188101 -5.93542e-17 1.96799e-16)
(2.18332e-16 1.52619e-29 -2.38302e-31 29.5941 4.54638e-15 8.62975e-15 0.188101 2.88145e-17 4.06787e-16)
(-6.72923e-17 1.031e-29 -5.57326e-31 29.5556 -7.62718e-15 3.12527e-14 0.190572 -3.82095e-17 2.03648e-16)
(2.69169e-16 -3.74261e-30 0 29.5556 4.50076e-15 8.77896e-15 0.190572 2.88476e-17 4.18564e-16)
(8.01728e-17 -6.4964e-30 9.29005e-32 29.5123 -7.15146e-15 3.18709e-14 0.193043 -5.48645e-17 2.10656e-16)
(0 3.70431e-30 0 29.5123 4.45316e-15 8.93073e-15 0.193043 2.90354e-17 4.30657e-16)
(0 7.30244e-30 -2.28201e-31 29.4642 -8.49811e-15 3.24932e-14 0.195516 -5.7216e-17 2.1788e-16)
(0 -3.65122e-30 0 29.4642 4.48275e-15 9.08567e-15 0.195516 3.00857e-17 4.43069e-16)
(-2.33073e-16 -4.40318e-30 3.45653e-31 29.4116 -8.45732e-15 3.31228e-14 0.197989 -5.5922e-17 2.25311e-16)
(0 7.19778e-30 -4.49861e-31 29.4116 4.53406e-15 9.24601e-15 0.197989 3.05775e-17 4.55815e-16)
(2.44653e-16 -2.76269e-29 1.21872e-30 29.3545 -8.32367e-15 3.37573e-14 0.200463 -5.70648e-17 2.32937e-16)
(0 2.12839e-29 -6.65121e-31 29.3545 4.41501e-15 9.40713e-15 0.200463 2.93393e-17 4.68905e-16)
(2.46042e-16 -1.39859e-29 4.37058e-31 29.2931 -8.313e-15 3.43955e-14 0.202937 -5.74122e-17 2.40764e-16)
(0 1.39859e-29 -4.37058e-31 29.2931 4.27775e-15 9.57007e-15 0.202937 2.95694e-17 4.82339e-16)
(-1.47148e-16 9.69133e-30 -3.38225e-31 29.2275 -8.10511e-15 3.50387e-14 0.205412 -5.5811e-17 2.48812e-16)
(5.88591e-16 -3.40022e-30 0 29.2275 4.24666e-15 9.73848e-15 0.205412 2.97611e-17 4.96132e-16)
(0 1.35878e-29 -8.4924e-31 29.1579 -8.04432e-15 3.56878e-14 0.207887 -5.82261e-17 2.57084e-16)
(0 -1.35878e-29 8.4924e-31 29.1579 4.28714e-15 9.90926e-15 0.207887 3.10135e-17 5.10291e-16)
(-1.75139e-16 2.80051e-30 -1.3642e-31 29.0843 -8.31143e-15 3.63424e-14 0.210364 -6.13148e-17 2.65583e-16)
(7.00556e-16 5.61214e-32 0 29.0843 4.38895e-15 1.00804e-14 0.210364 3.21077e-17 5.24816e-16)
(0 1.65014e-29 -8.25071e-31 29.007 -8.31932e-15 3.7003e-14 0.212841 -6.00477e-17 2.74322e-16)
(-7.57568e-16 -1.65661e-29 8.25071e-31 29.007 4.12716e-15 1.02564e-14 0.212841 2.80749e-17 5.39713e-16)
(-2.28908e-16 1.30119e-29 -8.13245e-31 28.9261 -8.15872e-15 3.76707e-14 0.21532 -6.07165e-17 2.83317e-16)
(-5.8636e-16 -1.30815e-29 8.13245e-31 28.9261 3.86523e-15 1.0435e-14 0.21532 2.91432e-17 5.55012e-16)
(2.25627e-16 -9.61907e-30 4.00795e-31 28.8418 -8.12509e-15 3.83451e-14 0.2178 -6.12981e-17 2.92559e-16)
(0 9.61907e-30 -4.00795e-31 28.8418 3.88777e-15 1.06182e-14 0.2178 2.92381e-17 5.70704e-16)
(2.33182e-16 1.29958e-29 -1.01847e-30 28.754 -8.03479e-15 3.90259e-14 0.220281 -6.11093e-17 3.02064e-16)
(-9.32729e-16 -1.90434e-29 1.18515e-30 28.754 3.84067e-15 1.08063e-14 0.220281 2.92741e-17 5.86829e-16)
(0 1.24604e-29 -1.16816e-30 28.6631 -8.10206e-15 3.97141e-14 0.222764 -6.41411e-17 3.11843e-16)
(0 -1.24604e-29 1.16816e-30 28.6631 3.90417e-15 1.09891e-14 0.222764 3.10833e-17 6.03397e-16)
(-2.63235e-16 2.80848e-30 2.00319e-31 28.5691 -8.2208e-15 4.04083e-14 0.225249 -6.47749e-17 3.21877e-16)
(0 3.07046e-30 -1.15142e-30 28.5691 3.9612e-15 1.1173e-14 0.225249 3.10323e-17 6.2038e-16)
(1.47415e-16 -2.74546e-29 1.69919e-30 28.4721 -8.11953e-15 4.11084e-14 0.227736 -6.43973e-17 3.32196e-16)
(0 2.72381e-29 -1.51323e-30 28.4721 3.75411e-15 1.13651e-14 0.227736 2.86754e-17 6.37793e-16)
(0 8.94922e-30 -1.11865e-30 28.3723 -7.99981e-15 4.18133e-14 0.230224 -6.47259e-17 3.42768e-16)
(-1.17591e-15 -1.20365e-29 1.49154e-30 28.3723 3.44715e-15 1.15603e-14 0.230224 2.69508e-17 6.5565e-16)
(-1.04207e-16 1.48299e-29 -8.91609e-31 28.2697 -8.15262e-15 4.25212e-14 0.232715 -6.88041e-17 3.53602e-16)
(4.13813e-16 -1.76419e-29 1.10262e-30 28.2697 3.45712e-15 1.17609e-14 0.232715 2.96798e-17 6.73983e-16)
(-6.50817e-16 2.5914e-29 -2.61532e-30 28.1644 -8.41271e-15 4.32311e-14 0.235207 -7.09743e-17 3.64689e-16)
(0 -2.02872e-29 2.17363e-30 28.1644 3.831e-15 1.1963e-14 0.235207 3.39969e-17 6.92825e-16)
(1.82822e-15 -2.84411e-29 3.19263e-30 28.0566 -8.58518e-15 4.39401e-14 0.237701 -7.37478e-17 3.75998e-16)
(1.92699e-15 2.30857e-29 -1.7854e-30 28.0566 4.23552e-15 1.21642e-14 0.237701 3.74169e-17 7.1214e-16)
(0 -1.40785e-29 1.40785e-30 27.9462 -8.38125e-15 4.46466e-14 0.240196 -6.95407e-17 3.87541e-16)
(1.43012e-15 1.42044e-29 -1.40785e-30 27.9462 4.14779e-15 1.23598e-14 0.240196 3.34818e-17 7.31957e-16)
(-4.07337e-16 5.50611e-30 -1.13521e-30 27.8333 -7.79346e-15 4.53532e-14 0.242691 -6.56367e-17 3.99358e-16)
(0 -5.55068e-30 6.93835e-31 27.8333 3.54776e-15 1.25522e-14 0.242691 2.80276e-17 7.52199e-16)
(-7.8069e-16 2.90675e-30 -5.27445e-31 27.7179 -7.61586e-15 4.60576e-14 0.245186 -6.84293e-17 4.11383e-16)
(-3.12276e-15 2.45135e-30 0 27.7179 3.22871e-15 1.27532e-14 0.245186 2.88061e-17 7.7291e-16)
(-4.07012e-16 1.09122e-29 -9.49461e-31 27.6 -7.56689e-15 4.67553e-14 0.24768 -6.66786e-17 4.23606e-16)
(-2.387e-15 -5.54082e-30 0 27.6 3.26829e-15 1.29652e-14 0.24768 2.95605e-17 7.94174e-16)
(0 2.39194e-29 -1.99328e-30 27.4796 -7.28563e-15 4.7444e-14 0.250171 -6.53013e-17 4.36001e-16)
(-1.69541e-15 -2.40751e-29 1.99328e-30 27.4796 3.21604e-15 1.31733e-14 0.250171 2.86965e-17 8.16065e-16)
(0 -1.04785e-29 1.96471e-30 27.3565 -7.16671e-15 4.35565e-14 0.252657 -6.64301e-17 3.64043e-16)
(1.76347e-15 1.06434e-29 -1.96471e-30 27.3565 2.86156e-15 1.33632e-14 0.252657 2.38637e-17 8.38476e-16)
(-4.58054e-16 2.82699e-30 -3.50023e-31 27.2308 -7.45903e-15 2.87894e-14 0.255137 -7.27048e-17 1.71407e-16)
(0 2.58207e-30 0 27.2308 2.8922e-15 1.35528e-14 0.255137 3.01128e-17 8.61352e-16)
(-4.75415e-16 2.31885e-29 -2.26339e-30 27.1022 -7.88413e-15 1.82863e-14 0.257609 -7.64767e-17 1.74563e-16)
(0 -2.03605e-29 1.9088e-30 27.1022 3.43206e-15 1.37407e-14 0.257609 3.48501e-17 8.84781e-16)
(-1.19905e-15 1.78814e-29 -9.86446e-31 26.9707 -7.88759e-15 1.83461e-14 0.260068 -7.49015e-17 1.77583e-16)
(-1.97179e-15 -1.02162e-29 6.27146e-31 26.9707 3.23156e-15 1.39204e-14 0.260068 2.71187e-17 9.08728e-16)
(5.10655e-16 -5.30453e-30 9.82237e-31 26.836 -7.56345e-15 1.84045e-14 0.262513 -7.23592e-17 1.80821e-16)
(0 2.47263e-30 -6.18158e-31 26.836 2.99193e-15 1.41056e-14 0.262513 3.11708e-17 9.33221e-16)
(5.28534e-16 -1.74562e-29 1.58761e-30 26.6979 -7.53017e-15 1.84561e-14 0.264939 -7.64334e-17 1.83812e-16)
(0 1.46231e-29 -1.2186e-30 26.6979 3.17779e-15 1.42803e-14 0.264939 3.16116e-17 9.58242e-16)
(-5.46585e-16 7.63996e-30 -1.57521e-30 26.5562 -7.38055e-15 1.84781e-14 0.267341 -7.14582e-17 1.86561e-16)
(-6.76176e-16 0 0 26.5562 2.97424e-15 1.44478e-14 0.267341 2.79745e-17 9.83764e-16)
(0 1.18391e-29 -1.18391e-30 26.4105 -6.76192e-15 1.847e-14 0.269716 -6.60016e-17 1.89032e-16)
(0 -1.4207e-29 2.36783e-30 26.4105 2.53534e-15 1.4604e-14 0.269716 2.35481e-17 1.00993e-15)
(-5.83196e-16 2.83849e-30 -9.68075e-31 26.2606 -6.47136e-15 1.84501e-14 0.272057 -6.75135e-17 1.91613e-16)
(2.33278e-15 4.88175e-30 -1.16695e-30 26.2606 2.45023e-15 1.47371e-14 0.272057 2.70253e-17 1.03654e-15)
(6.47517e-16 -1.61031e-29 1.72533e-30 26.1061 -6.59647e-15 1.84123e-14 0.274359 -7.05727e-17 1.93771e-16)
(1.7595e-15 1.63283e-29 -1.72533e-30 26.1061 2.09447e-15 1.48573e-14 0.274359 1.67377e-17 1.06361e-15)
(6.20479e-16 6.22967e-30 -7.38029e-31 25.9466 -6.85912e-15 1.83308e-14 0.276616 -7.51088e-17 1.95483e-16)
(-2.48191e-15 -1.38322e-29 2.26747e-30 25.9466 1.68735e-15 1.49624e-14 0.276616 1.91091e-17 1.09106e-15)
(6.39367e-16 -1.17808e-29 1.51891e-30 25.7818 -7.2693e-15 1.82285e-14 0.27882 -8.1541e-17 1.97227e-16)
(0 8.93989e-30 -1.11749e-30 25.7818 2.20616e-15 1.50558e-14 0.27882 2.84862e-17 1.11895e-15)
(-6.58416e-16 2.84247e-30 -4.2483e-31 25.6113 -7.5406e-15 1.23643e-14 0.280965 -8.32818e-17 7.21089e-17)
(0 4.40588e-30 -1.10147e-30 25.6113 2.48717e-15 1.51462e-14 0.280965 2.58553e-17 1.14718e-15)
(6.77624e-16 5.84078e-30 1.34821e-28 25.4347 -7.38981e-15 0 0.283043 -8.05617e-17 0)
(1.48812e-15 -8.44398e-30 0 25.4347 2.50433e-15 1.52116e-14 0.283043 2.9704e-17 1.17589e-15)
(1.20485e-15 -1.28415e-29 2.14024e-30 25.2516 -7.41648e-15 -1.31138e-15 0.285046 -8.63255e-17 1.22402e-17)
(2.78794e-15 1.30964e-29 -2.14024e-30 25.2516 2.308e-15 1.52549e-14 0.285046 2.21637e-17 1.20489e-15)
(-7.16498e-16 -1.37135e-30 -4.31703e-31 25.0616 -7.64777e-15 -1.7296e-15 0.286968 -8.8239e-17 1.72979e-17)
(0 8.43828e-30 0 25.0616 2.11723e-15 1.52862e-14 0.286968 2.61885e-17 1.23418e-15)
(-7.36156e-16 7.00921e-30 -4.2958e-31 24.8645 -7.41423e-15 -2.15171e-15 0.288798 -8.34072e-17 2.22135e-17)
(0 0 -1.03967e-30 24.8645 2.58708e-15 1.52998e-14 0.288798 3.37718e-17 1.26367e-15)
(1.15378e-15 -4.09906e-30 1.02477e-30 24.6598 -7.19378e-15 -2.59178e-15 0.290531 -8.56073e-17 2.765e-17)
(-1.15378e-15 4.09906e-30 -1.02477e-30 24.6598 2.7609e-15 1.52782e-14 0.290531 3.10687e-17 1.29341e-15)
(-1.91314e-15 2.85555e-30 -1.43478e-30 24.4474 -6.85725e-15 -3.04904e-15 0.292158 -7.77714e-17 3.32775e-17)
(0 4.04031e-30 -1.01008e-30 24.4474 1.95094e-15 1.52261e-14 0.292158 1.53162e-17 1.32319e-15)
(-1.12095e-15 1.9912e-29 -1.9912e-30 24.227 -5.93138e-15 -3.5526e-15 0.293672 -6.55643e-17 3.94376e-17)
(-2.06286e-15 -2.02086e-29 1.9912e-30 24.227 1.24456e-15 1.51688e-14 0.293672 1.47739e-17 1.3533e-15)
(-8.16136e-16 -1.28395e-29 5.62496e-31 23.9983 -5.02408e-15 -4.06341e-15 0.295067 -5.76297e-17 4.65172e-17)
(3.26454e-15 1.60057e-29 -1.96266e-30 23.9983 9.15312e-16 1.5104e-14 0.295067 7.62904e-18 1.38352e-15)
(-1.08905e-15 1.54763e-29 -1.93453e-30 23.7614 -4.41717e-15 -4.55786e-15 0.296335 -5.22697e-17 5.32152e-17)
(1.08905e-15 -1.09476e-47 1.93453e-30 23.7614 -6.99567e-45 1.50314e-14 0.296335 -1.08737e-47 1.41391e-15)
(-8.56839e-16 1.04906e-29 -1.36556e-30 23.5161 -4.46865e-15 -5.04188e-15 0.297472 -6.06272e-17 6.02756e-17)
(3.42735e-15 -7.31447e-30 9.53403e-31 23.5161 -3.29566e-16 1.49134e-14 0.297472 1.03018e-17 1.4444e-15)
(1.75468e-15 -1.70034e-29 1.75687e-30 23.2625 -4.99179e-15 -5.48792e-15 0.298472 -6.73002e-17 6.70848e-17)
(3.50936e-15 1.15975e-29 -9.39738e-31 23.2625 2.49241e-16 1.47406e-14 0.298472 4.33202e-18 1.47466e-15)
(1.04289e-15 -1.11152e-29 9.2627e-31 23.0007 -5.1041e-15 -5.9421e-15 0.299332 -6.53432e-17 7.3551e-17)
(0 -1.4013e-45 -9.2627e-31 23.0007 1.2517e-29 1.45843e-14 0.299332 1.54255e-45 1.50479e-15)
(1.09336e-16 2.86617e-30 -4.00862e-31 22.7308 -4.75243e-15 -6.3988e-15 0.300047 -5.99315e-17 8.094e-17)
(-1.02794e-15 3.65198e-30 -9.12994e-31 22.7308 9.93686e-17 1.44626e-14 0.300047 6.60517e-18 1.53496e-15)
(-1.87869e-15 2.01351e-29 -1.69343e-30 22.4531 -4.28587e-15 -2.07682e-16 0.300616 -5.46851e-17 8.78354e-17)
(3.75738e-15 0 8.99908e-31 22.4531 2.46519e-32 1.43163e-14 0.300616 9.86076e-32 1.56501e-15)
(-9.60146e-16 2.87047e-30 -3.96284e-31 22.1678 -3.82356e-15 7.19112e-15 0.301038 -4.90485e-17 1.11861e-16)
(0 7.09608e-30 0 22.1678 -6.33625e-17 1.41449e-14 0.301038 2.08726e-18 1.59491e-15)
(-9.80996e-16 2.86939e-30 -4.00771e-31 21.8753 -4.07754e-15 7.97199e-15 0.301311 -6.33314e-17 1.07621e-16)
(3.92399e-15 7.32214e-30 -8.74297e-31 21.8753 9.42949e-16 1.3941e-14 0.301311 2.57622e-17 1.62464e-15)
(-1.00189e-15 9.76326e-30 -1.2669e-30 21.5761 -4.91937e-15 7.56217e-15 0.301436 -7.41735e-17 1.03605e-16)
(0 -3.44706e-30 0 21.5761 6.72887e-16 1.3772e-14 0.301436 4.69941e-18 1.65417e-15)
(-2.04561e-15 1.59368e-29 -1.65905e-30 21.2706 -4.97468e-15 7.1955e-15 0.301415 -6.67655e-17 1.00306e-16)
(-4.09122e-15 -1.05361e-29 8.49415e-31 21.2706 9.24011e-16 1.3631e-14 0.301415 2.1611e-17 1.68377e-15)
(-2.08749e-15 -1.4346e-29 -8.0164e-31 20.9593 -4.54629e-15 6.86926e-15 0.30125 -6.39386e-17 9.71913e-17)
(6.46465e-15 1.41112e-29 0 20.9593 1.06522e-15 1.34228e-14 0.30125 8.92695e-18 1.71316e-15)
(-5.05235e-15 2.51329e-29 -2.8411e-30 20.6428 -4.33945e-15 6.51191e-15 0.300944 -6.26436e-17 9.27437e-17)
(-4.25876e-15 -1.8444e-31 8.25241e-31 20.6428 -2.5382e-29 1.32137e-14 0.300944 0 1.74216e-15)
(-1.08563e-15 -1.01343e-29 1.23415e-30 20.3216 -3.57527e-15 6.13383e-15 0.300499 -4.30302e-17 8.87671e-17)
(3.42671e-15 1.33793e-29 -1.62683e-30 20.3216 -8.48871e-16 1.30574e-14 0.300499 9.25727e-18 1.7709e-15)
(1.10656e-15 -9.29642e-30 1.19011e-30 19.9963 -2.42183e-15 5.78132e-15 0.299922 -2.95926e-17 8.47989e-17)
(0 6.41404e-30 -8.01755e-31 19.9963 -1.7427e-15 1.29085e-14 0.299922 1.59143e-17 1.8e-15)
(0 -1.58053e-29 1.58053e-30 19.6676 -2.14646e-15 5.44382e-15 0.299215 -3.58409e-17 8.10112e-17)
(4.5099e-15 1.61628e-29 -1.58053e-30 19.6676 -1.89988e-15 1.2742e-14 0.299215 3.65624e-17 1.8288e-15)
(0 -9.34724e-30 7.78937e-31 19.336 -2.0435e-15 5.15325e-15 0.298385 -2.72543e-17 7.8237e-17)
(4.59341e-15 1.28305e-29 -7.78937e-31 19.336 -1.23527e-15 1.25838e-14 0.298385 2.12037e-17 1.85743e-15)
(0 1.22844e-29 -7.67773e-31 19.0022 -1.32787e-15 4.87944e-15 0.297436 -1.42885e-17 7.47363e-17)
(2.94788e-15 -2.69959e-30 0 19.0022 -1.55281e-15 1.23955e-14 0.297436 1.69432e-17 1.88621e-15)
(0 1.21083e-29 0 18.6667 -1.60106e-15 4.55747e-15 0.296375 -3.68066e-17 7.0212e-17)
(0 -1.21083e-29 0 18.6667 -2.58304e-15 1.22519e-14 0.296375 3.18538e-17 1.91451e-15)
(-2.4214e-15 5.76456e-30 -7.28407e-31 18.3301 -1.96993e-15 4.30539e-15 0.295208 -2.66986e-17 6.87309e-17)
(0 0 0 18.3301 -3.50239e-15 1.21959e-14 0.295208 5.04515e-17 1.94333e-15)
(0 -1.76455e-29 1.47046e-30 17.9931 -1.31949e-15 4.11984e-15 0.293941 -1.64321e-17 6.61489e-17)
(4.92544e-15 1.79404e-29 -1.47046e-30 17.9931 -3.92321e-15 1.20711e-14 0.293941 1.45797e-16 1.97263e-15)
(1.63186e-15 2.89877e-30 0 17.6561 -1.57218e-15 3.95222e-15 0.29258 -3.59359e-17 6.51355e-17)
(3.37592e-15 2.32719e-31 0 17.6561 -3.29662e-15 1.19224e-14 0.29258 2.5114e-16 2.00156e-15)
(-1.27245e-15 2.88153e-30 -3.48071e-31 17.3196 -1.83144e-15 3.80478e-15 0.29113 -2.5715e-17 6.30814e-17)
(0 5.71445e-30 0 17.3196 -1.88142e-15 1.18091e-14 0.29113 3.27152e-16 2.03048e-15)
(1.29286e-15 5.56519e-30 -1.06565e-30 16.9843 -1.1384e-15 3.65926e-15 0.289599 -1.31194e-17 6.20314e-17)
(0 -2.81628e-30 0 16.9843 -1.60872e-15 1.17733e-14 0.289599 3.84502e-16 2.05919e-15)
(0 -8.32773e-30 1.38796e-30 16.6504 -6.98993e-16 3.59396e-15 0.287992 -1.11142e-17 6.26475e-17)
(1.5627e-15 8.32773e-30 -1.38796e-30 16.6504 -3.51468e-15 1.17654e-14 0.287992 4.85958e-16 2.08915e-15)
(0 -5.47225e-30 1.36806e-30 16.3184 -9.4557e-16 3.55692e-15 0.286315 -2.2245e-17 6.25357e-17)
(1.5403e-15 5.47225e-30 -1.36806e-30 16.3184 -4.82822e-15 1.16827e-14 0.286315 6.04925e-16 2.11919e-15)
(-2.70701e-15 -2.33147e-30 6.97636e-31 15.9888 -1.59154e-15 3.4779e-15 0.284573 -3.46726e-17 6.16406e-17)
(1.51823e-15 8.09073e-30 -1.34845e-30 15.9888 -3.0516e-15 1.16029e-14 0.284573 6.51178e-16 2.14886e-15)
(-1.3735e-15 1.61695e-29 -1.64894e-30 15.6619 -2.12489e-15 3.39077e-15 0.282772 -4.23578e-17 6.11882e-17)
(0 -1.32913e-29 1.32913e-30 15.6619 -8.95629e-16 1.15188e-14 0.282772 6.51269e-16 2.17932e-15)
(1.39338e-15 -2.6025e-31 3.14263e-31 15.3379 -2.06021e-15 3.30518e-15 0.280918 -3.32941e-17 6.02781e-17)
(-5.57352e-15 -2.62016e-30 0 15.3379 -1.23679e-15 1.15201e-14 0.280918 6.50664e-16 2.20983e-15)
(0 -7.74781e-30 1.2913e-30 15.0173 -2.73815e-15 3.19942e-15 0.279014 -6.90602e-17 5.90083e-17)
(-5.65255e-15 7.74781e-30 -1.2913e-30 15.0173 -5.84978e-16 1.15875e-14 0.279014 6.4388e-16 2.24205e-15)
(1.43331e-15 1.8149e-29 -3.02886e-31 14.7003 -4.18358e-15 3.1416e-15 0.277066 -8.93461e-17 5.98405e-17)
(8.59607e-15 -1.27279e-29 0 14.7003 1.72825e-15 1.1615e-14 0.277066 6.57713e-16 2.27511e-15)
(1.45227e-15 9.6603e-30 -9.57621e-31 14.387 -3.53623e-15 3.17918e-15 0.275078 -4.60578e-17 6.21896e-17)
(5.80908e-15 -1.75637e-29 1.25455e-30 14.387 5.22312e-16 1.16378e-14 0.275078 6.81061e-16 2.30884e-15)
(0 -2.8566e-30 0 14.0778 -1.31823e-15 3.25777e-15 0.273055 -1.2832e-17 6.46758e-17)
(0 2.47314e-30 0 14.0778 -1.43346e-15 1.16741e-14 0.273055 6.73439e-16 2.15427e-15)
(-1.49087e-15 -1.41721e-29 -2.85613e-31 13.7728 -6.67692e-16 3.29081e-15 0.270999 -1.35491e-17 6.53263e-17)
(5.96348e-15 1.70639e-29 -1.00295e-30 13.7728 -1.92138e-15 1.16364e-14 0.270999 6.80079e-16 1.98948e-15)
(-1.50996e-15 1.01003e-29 -2.80578e-31 13.4721 -5.28382e-16 3.19489e-15 0.268916 -7.58407e-18 6.2698e-17)
(-6.03985e-15 -4.80551e-30 -3.23239e-31 13.4721 -2.96531e-15 1.16947e-14 0.268916 6.81286e-16 1.82459e-15)
(1.52892e-15 -5.78528e-30 1.45882e-30 13.176 2.87474e-28 3.18316e-15 0.266807 3.15544e-30 6.67593e-17)
(6.11566e-15 4.73664e-30 -7.46012e-31 13.176 -3.31933e-15 1.19286e-14 0.266807 6.71519e-16 1.64875e-15)
(-4.176e-15 1.68934e-29 -2.68982e-31 12.8844 1.73598e-15 3.33472e-15 0.264677 -3.54899e-17 7.08322e-17)
(8.81917e-15 -1.40062e-29 5.56053e-31 12.8844 -3.86179e-15 1.19781e-14 0.264677 6.75844e-16 1.46897e-15)
(-1.56639e-15 2.88611e-30 -2.63807e-31 12.5975 2.57663e-16 3.41206e-15 0.262529 -3.61267e-17 7.19755e-17)
(0 0 0 12.5975 -3.89855e-15 1.19827e-14 0.262529 6.60267e-16 1.29222e-15)
(-1.58491e-15 -1.6499e-30 -2.58313e-31 12.3153 -1.5616e-15 3.49429e-15 0.260364 -4.06224e-17 7.64241e-17)
(0 9.07175e-30 0 12.3153 -2.25843e-15 1.21493e-14 0.260364 6.54287e-16 1.11024e-15)
(9.136e-16 -1.05252e-29 -2.53106e-31 12.038 -1.7581e-15 3.64624e-15 0.258186 -3.50718e-17 8.06769e-17)
(3.89622e-15 1.34126e-29 9.13915e-31 12.038 -1.21808e-15 1.22846e-14 0.258186 6.65989e-16 9.24702e-16)
(4.10229e-15 -1.17007e-29 1.34982e-30 11.7656 -1.55252e-15 3.78087e-15 0.255997 -3.27626e-17 8.45895e-17)
(-2.4808e-15 8.81357e-30 -1.1017e-30 11.7656 -1.20893e-15 1.23384e-14 0.255997 6.69401e-16 7.38117e-16)
(2.44524e-15 -8.68725e-30 1.08591e-30 11.498 -1.02599e-15 3.90051e-15 0.253799 -1.25833e-17 8.83835e-17)
(0 8.68725e-30 0 11.498 -1.27994e-15 1.24632e-14 0.253799 6.70404e-16 5.50701e-16)
(-1.65748e-15 -5.67172e-30 -2.39662e-31 11.2353 -6.86263e-16 3.92533e-15 0.251593 -1.8329e-17 8.81919e-17)
(0 1.28441e-29 0 11.2353 -5.49568e-16 1.27212e-14 0.251593 6.70411e-16 3.58417e-16)
(2.37565e-15 -4.30115e-30 1.055e-30 10.9775 -2.53668e-28 4.11553e-15 0.249383 0 9.97161e-17)
(1.34019e-14 2.532e-29 2.68874e-30 10.9775 2.28251e-16 1.29335e-14 0.249383 6.78577e-16 2.98647e-16)
(0 -1.44849e-29 0 10.7246 1.1471e-15 4.57422e-15 0.247169 -1.32782e-17 1.12168e-16)
(6.77142e-15 8.31905e-30 1.36497e-30 10.7246 -1.43383e-15 1.29858e-14 0.247169 6.93005e-16 3.02648e-16)
(-4.01836e-15 2.33777e-29 -2.09355e-31 10.4766 2.91719e-15 4.78897e-15 0.244952 -8.01942e-17 2.34463e-16)
(-6.84125e-15 -1.63996e-29 -1.38425e-30 10.4766 -3.19451e-15 1.30135e-14 0.244952 6.77178e-16 3.08705e-16)
(-1.72762e-15 1.50022e-29 8.30954e-31 10.2334 1.79678e-15 4.72659e-15 0.242735 -5.66708e-17 4.3037e-16)
(-6.91047e-15 -8.08229e-30 -2.41194e-30 10.2334 -2.15226e-15 1.31862e-14 0.242735 6.59153e-16 3.19802e-16)
(0 3.98323e-30 0 9.99503 1.72425e-15 4.68897e-15 0.240519 -2.87586e-17 6.37713e-16)
(0 0 -9.95806e-31 9.99503 -1.52631e-16 1.34319e-14 0.240519 6.74115e-16 3.29713e-16)
(0 3.92614e-30 0 9.76143 2.84265e-15 4.85075e-15 0.238303 -5.47987e-17 8.53156e-16)
(7.04706e-15 0 4.61688e-31 9.76143 -1.16206e-15 1.36176e-14 0.238303 6.89845e-16 3.38347e-16)
(-3.99932e-16 2.03526e-29 8.29086e-32 9.53256 3.01769e-15 4.8978e-15 0.236091 -8.4862e-17 1.06776e-15)
(0 -1.93493e-29 -1.93493e-30 9.53256 -3.0236e-15 1.37886e-14 0.236091 6.73037e-16 3.47946e-16)
(2.14732e-15 -4.19584e-29 0 9.30837 1.6864e-15 4.77407e-15 0.233882 -6.51786e-17 1.29573e-15)
(1.22151e-14 4.19584e-29 2.97557e-30 9.30837 -1.56057e-15 1.3984e-14 0.233882 6.61319e-16 3.58197e-16)
(2.11654e-15 -7.51946e-30 0 9.0888 1.37178e-15 4.85676e-15 0.231678 -1.96411e-17 1.53284e-15)
(1.44947e-14 7.51946e-30 3.02685e-30 9.0888 -2.85564e-15 1.41643e-14 0.231678 6.95213e-16 3.67438e-16)
(-3.65643e-15 2.01755e-30 0 8.87379 2.5558e-15 4.9575e-15 0.229478 -5.08537e-17 1.609e-15)
(0 3.70584e-30 0 8.87379 -5.04105e-15 1.43671e-14 0.229478 6.85072e-16 3.79306e-16)
(-1.84444e-15 2.85419e-30 0 8.6633 3.92025e-15 4.96736e-15 0.227285 -8.21975e-17 1.59188e-15)
(1.47555e-14 3.65273e-30 3.13518e-30 8.6633 -3.66919e-15 1.45148e-14 0.227285 6.56868e-16 3.86048e-16)
(1.86051e-15 -1.00447e-29 -1.80019e-30 8.45724 4.60955e-15 4.92349e-15 0.225098 -1.24808e-16 1.57405e-15)
(0 7.20075e-30 1.80019e-30 8.45724 -4.93837e-15 1.46269e-14 0.225098 6.5554e-16 3.96454e-16)
(-1.87644e-15 2.84078e-30 0 8.25556 4.53696e-15 4.86069e-15 0.222918 -1.21746e-16 1.55527e-15)
(0 3.54877e-30 0 8.25556 -6.26334e-15 1.49412e-14 0.222918 6.14545e-16 4.14538e-16)
(-1.89221e-15 1.33307e-29 0 8.05819 4.76193e-15 4.8796e-15 0.220746 -1.24496e-16 1.53705e-15)
(7.56882e-15 -1.04937e-29 1.65319e-30 8.05819 -5.01091e-15 1.52395e-14 0.220746 5.77944e-16 4.24614e-16)
(-3.84875e-15 6.27744e-30 0 7.86506 5.15105e-15 5.00891e-15 0.218582 -1.37789e-16 1.51843e-15)
(7.6313e-15 0 -3.64821e-32 7.86506 -5.39205e-15 1.53796e-14 0.218582 5.6124e-16 4.34565e-16)
(-3.84658e-15 5.64451e-30 0 7.67611 6.356e-15 5.24514e-15 0.216426 -1.50037e-16 1.50111e-15)
(0 0 0 7.67611 -5.87067e-15 1.55364e-14 0.216426 5.20146e-16 4.46003e-16)
(-3.82429e-15 1.28555e-29 3.34965e-30 7.49125 6.0251e-15 5.2272e-15 0.214279 -2.1061e-16 1.48645e-15)
(0 -6.69931e-30 -3.34965e-30 7.49125 -6.67593e-15 1.57741e-14 0.214279 4.80575e-16 4.61059e-16)
(3.71732e-15 -6.60329e-30 3.30164e-30 7.31043 3.45339e-15 5.12917e-15 0.212141 -1.35268e-16 1.46789e-15)
(-1.15324e-14 6.60329e-30 -1.7915e-30 7.31043 -6.30396e-15 1.60444e-14 0.212141 4.26746e-16 4.7495e-16)
(1.96879e-15 -6.07419e-30 0 7.13356 3.1961e-15 5.28033e-15 0.210013 -6.5674e-17 1.45214e-15)
(7.87515e-15 3.25432e-30 1.82962e-30 7.13356 -4.21732e-15 1.62673e-14 0.210013 4.02237e-16 4.8785e-16)
(1.98365e-15 -6.01787e-30 0 6.96059 3.89671e-15 5.37906e-15 0.207894 -1.23894e-16 1.43842e-15)
(-7.93461e-15 3.20768e-30 -1.86903e-30 6.96059 -3.97469e-15 1.65006e-14 0.207894 3.80831e-16 5.02973e-16)
(-3.77825e-15 9.13389e-30 0 6.79143 3.2223e-15 5.38413e-15 0.205786 -1.09969e-16 1.42405e-15)
(7.99348e-15 -3.16171e-30 -1.24846e-30 6.79143 -3.39353e-15 1.67157e-14 0.205786 3.68659e-16 5.15338e-16)
(0 9.34917e-30 0 6.62601 2.86044e-15 5.43901e-15 0.203687 -8.61424e-17 1.40995e-15)
(0 -6.23278e-30 -1.5582e-30 6.62601 -3.49111e-15 1.6957e-14 0.203687 3.76402e-16 5.32732e-16)
(-5.18768e-15 1.53586e-29 -3.07172e-30 6.46427 3.16015e-15 5.43303e-15 0.201599 -9.06654e-17 1.39695e-15)
(8.10946e-15 -6.14345e-30 4.65816e-31 6.46427 -4.21054e-15 1.72181e-14 0.201599 3.4777e-16 5.46923e-16)
(2.04164e-15 -8.85546e-30 0 6.30614 3.81645e-15 5.39853e-15 0.199522 -1.07594e-16 1.38163e-15)
(0 6.0554e-30 0 6.30614 -4.90544e-15 1.73874e-14 0.199522 3.33004e-16 5.59185e-16)
(0 1.19372e-29 2.9843e-30 6.15153 5.17452e-15 5.55623e-15 0.197455 -1.35372e-16 1.36957e-15)
(-8.22309e-15 -5.96861e-30 -5.08047e-30 6.15153 -5.90043e-15 1.76952e-14 0.197455 3.0076e-16 5.82952e-16)
(-3.31187e-15 2.94153e-30 -1.47077e-30 6.0004 5.12576e-15 5.63404e-15 0.195399 -1.99026e-16 1.36079e-15)
(0 2.94153e-30 1.47077e-30 6.0004 -5.32785e-15 1.81066e-14 0.195399 2.51743e-16 6.02697e-16)
(0 2.89937e-30 1.44969e-30 5.85265 2.22374e-15 5.72187e-15 0.193354 -1.36123e-16 1.35002e-15)
(0 0 -1.44969e-30 5.85265 -3.50682e-15 1.836e-14 0.193354 2.05284e-16 6.16985e-16)
(2.0973e-15 8.33192e-31 2.85782e-30 5.70824 6.3423e-16 5.89701e-15 0.19132 -1.06854e-17 1.34207e-15)
(0 -1.14313e-29 -2.85782e-30 5.70824 -1.58463e-15 1.84245e-14 0.19132 2.079e-16 6.24727e-16)
(2.11086e-15 5.6648e-30 2.81686e-30 5.56709 2.0295e-15 5.84437e-15 0.189297 -6.43604e-17 1.3348e-15)
(0 -5.63371e-30 -2.81686e-30 5.56709 -6.26195e-16 1.56275e-14 0.189297 2.15981e-16 4.42435e-16)
(-4.24854e-15 5.56212e-30 0 5.42913 1.86602e-15 5.82795e-15 0.187285 -7.44729e-17 1.32727e-15)
(8.49709e-15 0 2.55564e-30 5.42913 -1.81214e-15 1.07721e-14 0.187285 2.05739e-16 3.03782e-16)
(-2.13754e-15 2.78096e-30 0 5.29431 2.6841e-15 5.86009e-15 0.185285 -5.48236e-17 1.32093e-15)
(0 2.73669e-30 2.73669e-30 5.29431 -3.13414e-15 8.74503e-15 0.185285 1.88812e-16 3.11702e-16)
(0 5.39493e-30 0 5.16255 4.06419e-15 5.70749e-15 0.183295 -1.34644e-16 1.31426e-15)
(0 -5.39493e-30 0 5.16255 -1.74366e-15 8.5109e-15 0.183295 1.62627e-16 2.95843e-16)
(0 1.06352e-29 0 5.03379 4.32345e-15 5.56332e-15 0.181318 -1.55682e-16 1.30613e-15)
(0 -7.97641e-30 0 5.03379 -2.39929e-15 8.09112e-15 0.181318 1.77768e-16 2.90204e-16)
(-2.95064e-15 1.04828e-29 0 4.90797 5.63347e-15 5.5152e-15 0.179351 -1.57505e-16 1.29852e-15)
(-2.95064e-15 -2.6207e-30 -2.6207e-30 4.90797 -4.235e-15 8.08876e-15 0.179351 1.49002e-16 3.04335e-16)
(-2.90835e-15 7.74941e-30 2.58314e-30 4.78503 5.74981e-15 5.44603e-15 0.177396 -2.57214e-16 1.29047e-15)
(1.75139e-14 -2.58314e-30 2.74745e-30 4.78503 -3.29697e-15 8.42519e-15 0.177396 1.00285e-16 3.23971e-16)
(-4.40364e-15 1.05616e-29 0 4.6649 3.76703e-15 5.34559e-15 0.175452 -1.70856e-16 1.27919e-15)
(8.80728e-15 -5.09222e-30 2.69924e-30 4.6649 -3.34919e-15 8.44186e-15 0.175452 9.81422e-17 3.1452e-16)
(2.21426e-15 -1.5283e-29 0 4.54754 4.41649e-15 5.19649e-15 0.17352 -1.13677e-16 1.26854e-15)
(0 1.25481e-29 0 4.54754 -5.6131e-15 7.96408e-15 0.17352 6.28018e-17 2.96529e-16)
(0 4.9473e-30 2.47365e-30 4.43287 6.08481e-15 5.04081e-15 0.171599 -2.26064e-16 1.2604e-15)
(-8.90628e-15 0 -5.22878e-30 4.43287 -5.99608e-15 7.67579e-15 0.171599 -1.05348e-17 3.01124e-16)
(-4.98391e-15 -1.19284e-29 -2.4382e-30 4.32085 5.54064e-15 4.92338e-15 0.16969 -2.47843e-16 1.25271e-15)
(8.95497e-15 1.46292e-29 5.21069e-30 4.32085 -4.69766e-15 7.80012e-15 0.16969 -5.53564e-17 3.15108e-16)
(0 7.20975e-30 2.40325e-30 4.21141 4.98308e-15 4.83534e-15 0.167792 -1.8939e-16 1.24087e-15)
(0 -2.40325e-30 -2.40325e-30 4.21141 -5.83388e-15 7.71268e-15 0.167792 -8.27168e-17 3.02887e-16)
(0 -7.10642e-30 0 4.10449 6.17096e-15 4.90202e-15 0.165905 -2.10096e-16 1.22997e-15)
(0 7.10642e-30 0 4.10449 -7.93724e-15 7.33813e-15 0.165905 -1.37183e-16 2.93665e-16)
(-2.27446e-15 2.67484e-30 0 4.00006 6.11196e-15 4.63604e-15 0.16403 -2.92219e-16 1.22121e-15)
(0 0 0 4.00006 -7.10651e-15 7.38712e-15 0.16403 -2.36115e-16 3.1583e-16)
(6.10077e-16 -1.76639e-29 0 3.89805 5.45288e-15 4.5399e-15 0.162166 -2.11349e-16 1.20357e-15)
(1.82888e-14 2.30139e-29 8.0951e-30 3.89805 -5.21571e-15 7.24623e-15 0.162166 -2.84644e-16 2.9039e-16)
(0 1.36104e-29 2.26841e-30 3.7984 7.8726e-15 4.9922e-15 0.160313 -2.45223e-16 1.19683e-15)
(0 -9.07362e-30 -2.26841e-30 3.7984 -7.33586e-15 6.73265e-15 0.160313 -3.0825e-16 2.81161e-16)
(-5.03479e-15 8.94358e-30 0 3.70107 8.65065e-15 4.94028e-15 0.158472 -4.24473e-16 1.19271e-15)
(0 0 -2.23589e-30 3.70107 -9.29574e-15 6.84974e-15 0.158472 -4.38557e-16 3.09056e-16)
(-4.4794e-15 -1.41796e-29 0 3.60601 7.95568e-15 4.90116e-15 0.156642 -3.19912e-16 1.17767e-15)
(1.60806e-14 2.20385e-29 5.93463e-30 3.60601 -7.20242e-15 7.09726e-15 0.156642 -5.383e-16 3.11185e-16)
(0 -2.60671e-29 -2.17226e-30 3.51316 7.92913e-15 4.9735e-15 0.154823 -3.75733e-16 1.16715e-15)
(1.86509e-14 2.60671e-29 8.16999e-30 3.51316 -6.24887e-15 6.99396e-15 0.154823 -5.66264e-16 3.08884e-16)
(-2.34235e-15 1.54459e-29 0 3.42248 5.49852e-15 4.72284e-15 0.153014 -3.26912e-16 1.1501e-15)
(-2.41069e-15 -8.56451e-30 0 3.42248 -5.53534e-15 6.81671e-15 0.153014 -6.39884e-16 3.04241e-16)
(2.35322e-15 -2.3721e-29 -2.11044e-30 3.33392 4.3234e-15 4.59128e-15 0.151217 -1.66519e-16 1.13211e-15)
(1.88258e-14 2.11044e-29 8.24932e-30 3.33392 -2.93569e-15 6.63011e-15 0.151217 -6.93257e-16 3.00779e-16)
(0 -1.66415e-29 -4.16038e-30 3.24743 5.21776e-15 4.58165e-15 0.149431 -2.28471e-16 1.11647e-15)
(9.45584e-15 1.66415e-29 7.27029e-30 3.24743 -3.77065e-15 6.36495e-15 0.149431 -6.99766e-16 2.88426e-16)
(2.37458e-15 -1.07953e-29 0 3.16297 6.14017e-15 4.45084e-15 0.147656 -2.54802e-16 1.10174e-15)
(0 8.20151e-30 0 3.16297 -5.38192e-15 6.01416e-15 0.147656 -7.71036e-16 2.764e-16)
(4.77013e-15 -1.10739e-30 0 3.08049 5.3427e-15 4.27324e-15 0.145891 -3.22436e-16 1.08312e-15)
(9.54026e-15 -4.04198e-30 -8.5703e-31 3.08049 -5.17874e-15 5.74491e-15 0.145891 -8.27631e-16 2.7103e-16)
(-2.24282e-15 3.98405e-30 1.99202e-30 2.99995 3.56762e-15 4.13087e-15 0.144137 -1.85717e-16 1.06222e-15)
(0 0 -1.99202e-30 2.99995 -5.90088e-15 5.51093e-15 0.144137 -8.61354e-16 2.61711e-16)
(2.21067e-15 -7.85389e-30 0 2.92129 4.42326e-15 3.88248e-15 0.142394 -1.59014e-16 1.04195e-15)