/*--------------------------------*- C++ -*----------------------------------*\
| =========                 |                                                 |
| \\      /  F ield         | OpenFOAM: The Open Source CFD Toolbox           |
|  \\    /   O peration     | Version:  2106                                  |
|   \\  /    A nd           | Website:  www.openfoam.com                      |
|    \\/     M anipulation  |                                                 |
\*---------------------------------------------------------------------------*/
FoamFile
{
    version     2.0;
    format      ascii;
    arch        "LSB;label=32;scalar=64";
    class       volScalarField;
    location    "17000";
    object      p;
}
// * * * * * * * * * * * * * * * * * * * * * * * * * * * * * * * * * * * * * //

dimensions      [0 2 -2 0 0 0 0];

internalField   nonuniform List<scalar> 
2560
(
3.09781e-15
3.00647e-14
6.54411e-15
3.00639e-14
7.05479e-15
3.0063e-14
6.77321e-15
3.00616e-14
6.61389e-15
3.00598e-14
6.53749e-15
3.00574e-14
6.46711e-15
3.00545e-14
6.38866e-15
3.00511e-14
6.30699e-15
3.00472e-14
6.22581e-15
3.00428e-14
6.14619e-15
3.00379e-14
6.06846e-15
3.00325e-14
5.99273e-15
3.00266e-14
5.91906e-15
3.00203e-14
5.8474e-15
3.00134e-14
5.77773e-15
3.0006e-14
5.71003e-15
2.99983e-14
5.64429e-15
2.999e-14
5.58043e-15
2.99812e-14
5.51859e-15
2.9972e-14
5.45865e-15
2.99623e-14
5.40048e-15
2.99522e-14
5.34409e-15
2.99417e-14
5.28966e-15
2.99307e-14
5.23702e-15
2.99193e-14
5.18599e-15
2.99074e-14
5.13663e-15
2.98951e-14
5.08907e-15
2.98823e-14
5.04322e-15
2.98693e-14
4.99897e-15
2.98557e-14
4.95639e-15
2.98416e-14
4.9153e-15
2.98268e-14
4.8758e-15
2.98117e-14
4.8379e-15
2.97963e-14
4.80143e-15
2.97805e-14
4.7664e-15
2.97643e-14
4.73278e-15
2.97476e-14
4.70068e-15
2.97304e-14
4.66995e-15
2.97129e-14
4.64054e-15
2.96949e-14
4.61238e-15
2.96765e-14
4.58551e-15
2.96576e-14
4.55975e-15
2.96384e-14
4.53523e-15
2.96185e-14
4.51204e-15
2.95978e-14
4.48989e-15
2.95766e-14
4.46865e-15
2.95551e-14
4.44856e-15
2.95332e-14
4.42943e-15
2.95108e-14
4.41117e-15
2.94877e-14
4.3943e-15
2.94639e-14
4.3785e-15
2.94393e-14
4.36313e-15
2.94143e-14
4.3487e-15
2.93885e-14
4.33527e-15
2.93623e-14
4.32243e-15
2.93358e-14
4.31085e-15
2.93085e-14
4.30049e-15
2.92801e-14
4.29107e-15
2.92508e-14
4.28229e-15
2.9221e-14
4.27436e-15
2.91904e-14
4.26737e-15
2.91591e-14
4.26129e-15
2.91267e-14
4.25583e-15
2.90936e-14
4.25108e-15
2.90597e-14
4.24714e-15
2.90244e-14
4.24426e-15
2.8988e-14
4.24213e-15
2.89513e-14
4.24129e-15
2.89134e-14
4.24171e-15
2.88751e-14
4.24192e-15
2.88363e-14
4.24275e-15
2.87967e-14
4.24446e-15
2.87557e-14
4.24762e-15
2.87144e-14
4.25159e-15
2.86731e-14
4.25634e-15
2.86311e-14
4.26183e-15
2.85882e-14
4.26832e-15
2.85447e-14
4.27579e-15
2.85008e-14
4.28418e-15
2.84571e-14
4.29245e-15
2.84137e-14
4.3005e-15
2.83682e-14
4.31067e-15
2.83211e-14
4.3205e-15
2.82745e-14
4.33058e-15
2.82284e-14
4.34157e-15
2.81823e-14
4.35338e-15
2.81358e-14
4.36485e-15
2.80868e-14
4.37848e-15
2.8038e-14
4.39195e-15
2.79905e-14
4.40553e-15
2.79423e-14
4.41912e-15
2.78933e-14
4.43457e-15
2.78433e-14
4.45021e-15
2.77923e-14
4.46834e-15
2.77388e-14
4.48645e-15
2.76837e-14
4.50687e-15
2.76303e-14
4.52537e-15
2.7578e-14
4.54261e-15
2.75235e-14
4.5618e-15
2.74651e-14
4.58199e-15
2.74056e-14
4.60304e-15
2.73459e-14
4.62394e-15
2.72843e-14
4.6454e-15
2.72236e-14
4.66905e-15
2.7164e-14
4.69205e-15
2.71029e-14
4.71512e-15
2.70422e-14
4.739e-15
2.69811e-14
4.76258e-15
2.69181e-14
4.7866e-15
2.68568e-14
4.8099e-15
2.67967e-14
4.83131e-15
2.67387e-14
4.85443e-15
2.66755e-14
4.87905e-15
2.66109e-14
4.90498e-15
2.65472e-14
4.93001e-15
2.64854e-14
4.95589e-15
2.64209e-14
4.98435e-15
2.63537e-14
5.01117e-15
2.62851e-14
5.03909e-15
2.62172e-14
5.06887e-15
2.61453e-14
5.09409e-15
2.60724e-14
5.11958e-15
2.60009e-14
5.1492e-15
2.59278e-14
5.17958e-15
2.58535e-14
5.20933e-15
2.57823e-14
5.23387e-15
2.57135e-14
5.26351e-15
2.5643e-14
5.29365e-15
2.5569e-14
5.32177e-15
2.54938e-14
5.34967e-15
2.54219e-14
5.37258e-15
2.53605e-14
5.39885e-15
2.52943e-14
5.42591e-15
2.52236e-14
5.45111e-15
2.51555e-14
5.47625e-15
2.50856e-14
5.50538e-15
2.50099e-14
5.53132e-15
2.49354e-14
5.56493e-15
2.48647e-14
5.60355e-15
2.47868e-14
5.63984e-15
2.46996e-14
5.68024e-15
2.46171e-14
5.72431e-15
2.45353e-14
5.7739e-15
2.44473e-14
5.82622e-15
2.43605e-14
5.87846e-15
2.42754e-14
5.9348e-15
2.41874e-14
5.99475e-15
2.4097e-14
6.05783e-15
2.4002e-14
6.11875e-15
2.39077e-14
6.18175e-15
2.38119e-14
6.24628e-15
2.37246e-14
6.31422e-15
2.36367e-14
6.385e-15
2.35436e-14
6.44592e-15
2.34432e-14
6.50851e-15
2.33335e-14
6.57463e-15
2.32245e-14
6.64617e-15
2.31289e-14
6.725e-15
2.30323e-14
6.80069e-15
2.29253e-14
6.87756e-15
2.28106e-14
6.95501e-15
2.26984e-14
7.0399e-15
2.25867e-14
7.14163e-15
2.24683e-14
7.23722e-15
2.23485e-14
7.33611e-15
2.22275e-14
7.44277e-15
2.21007e-14
7.5416e-15
2.19732e-14
7.6421e-15
2.18504e-14
7.74877e-15
2.17274e-14
7.85604e-15
2.16097e-14
7.96841e-15
2.14924e-14
8.08536e-15
2.13656e-14
8.19618e-15
2.12397e-14
8.31051e-15
2.11149e-14
8.42788e-15
2.09811e-14
8.53756e-15
2.08486e-14
8.65442e-15
2.07074e-14
8.76779e-15
2.05781e-14
8.8772e-15
2.04556e-14
8.98212e-15
2.03195e-14
9.08722e-15
2.01853e-14
9.18684e-15
2.00375e-14
9.29089e-15
1.98968e-14
9.39893e-15
1.97528e-14
9.50541e-15
1.96002e-14
9.61517e-15
1.9439e-14
9.71752e-15
1.92844e-14
9.82249e-15
1.9131e-14
9.92459e-15
1.89838e-14
1.00287e-14
1.88373e-14
1.01241e-14
1.86863e-14
1.02262e-14
1.85406e-14
1.03347e-14
1.84104e-14
1.04338e-14
1.82901e-14
1.05387e-14
1.81328e-14
1.06338e-14
1.79897e-14
1.07293e-14
1.78762e-14
1.08302e-14
1.77555e-14
1.09258e-14
1.76218e-14
1.10213e-14
1.75061e-14
1.10957e-14
1.73973e-14
1.11851e-14
1.72744e-14
1.12739e-14
1.71627e-14
1.13672e-14
1.70773e-14
1.14647e-14
1.69867e-14
1.15664e-14
1.69214e-14
1.1672e-14
1.68501e-14
1.17815e-14
1.67825e-14
1.18846e-14
1.67286e-14
1.19915e-14
1.66776e-14
1.21022e-14
1.66187e-14
1.22168e-14
1.6541e-14
1.23357e-14
1.64848e-14
1.24589e-14
1.64392e-14
1.25762e-14
1.6424e-14
1.26978e-14
1.63975e-14
1.28238e-14
1.6349e-14
1.29341e-14
1.63289e-14
1.30595e-14
1.63263e-14
1.31895e-14
1.62996e-14
1.33248e-14
1.62684e-14
1.34455e-14
1.62727e-14
1.35825e-14
1.62913e-14
1.37259e-14
1.6273e-14
1.38666e-14
1.62371e-14
1.39955e-14
1.6243e-14
1.41137e-14
1.62597e-14
1.42519e-14
1.62768e-14
1.43705e-14
1.62735e-14
1.44804e-14
1.62489e-14
1.45828e-14
1.62624e-14
1.46983e-14
1.63035e-14
1.48075e-14
1.6302e-14
1.49114e-14
1.6297e-14
1.49916e-14
1.63273e-14
1.50881e-14
1.6353e-14
1.51716e-14
1.63939e-14
1.52624e-14
1.64007e-14
1.53516e-14
1.64219e-14
1.54401e-14
1.64569e-14
1.55187e-14
1.64662e-14
1.5608e-14
1.64786e-14
1.56896e-14
1.65224e-14
1.58028e-14
1.65389e-14
1.58816e-14
1.66135e-14
1.59837e-14
1.66703e-14
1.61103e-14
1.66901e-14
1.61872e-14
1.67094e-14
1.62924e-14
1.67463e-14
1.64272e-14
1.67618e-14
1.65006e-14
1.68485e-14
1.65881e-14
1.68942e-14
1.66726e-14
1.69736e-14
1.67358e-14
1.70125e-14
1.6797e-14
1.70105e-14
1.68768e-14
1.70216e-14
1.69586e-14
1.70618e-14
1.70063e-14
1.71481e-14
1.70747e-14
1.71902e-14
1.71287e-14
1.72059e-14
1.71694e-14
1.72123e-14
1.72158e-14
1.7209e-14
1.72695e-14
1.7231e-14
1.73315e-14
1.72768e-14
1.74031e-14
1.73095e-14
1.74327e-14
1.73277e-14
1.74914e-14
1.73309e-14
1.7547e-14
1.73864e-14
1.75828e-14
1.74417e-14
1.7564e-14
1.75156e-14
1.75391e-14
1.75257e-14
1.75236e-14
1.75255e-14
1.75845e-14
1.75839e-14
1.7637e-14
1.76654e-14
1.76971e-14
1.77207e-14
1.77157e-14
1.7733e-14
1.77095e-14
1.7736e-14
1.77764e-14
1.77638e-14
1.7819e-14
1.78466e-14
1.79023e-14
1.7921e-14
1.7963e-14
1.79391e-14
1.79883e-14
1.79329e-14
1.80284e-14
1.79481e-14
1.8069e-14
1.8014e-14
1.80942e-14
1.80999e-14
1.81003e-14
1.81003e-14
1.81341e-14
1.80932e-14
1.81652e-14
1.8168e-14
1.819e-14
1.82361e-14
1.82369e-14
1.82701e-14
1.82454e-14
1.82699e-14
1.83049e-14
1.82942e-14
1.83e-14
1.83679e-14
1.82844e-14
1.84081e-14
1.83705e-14
1.84501e-14
1.84453e-14
1.84902e-14
1.84244e-14
1.8526e-14
1.84998e-14
1.85916e-14
1.85318e-14
1.8602e-14
1.85752e-14
1.86375e-14
1.86253e-14
1.8697e-14
1.86805e-14
1.87816e-14
1.87403e-14
1.88412e-14
1.87502e-14
1.88768e-14
1.88662e-14
1.89203e-14
1.89119e-14
1.8991e-14
1.89677e-14
1.90408e-14
1.90067e-14
1.90716e-14
1.90514e-14
1.90831e-14
1.90576e-14
1.90969e-14
1.9027e-14
1.90854e-14
1.9055e-14
1.90749e-14
1.90763e-14
1.90845e-14
1.9044e-14
1.90614e-14
1.90303e-14
1.90345e-14
1.90348e-14
1.90256e-14
1.90341e-14
1.90321e-14
1.90274e-14
1.90286e-14
1.90365e-14
1.90379e-14
2.48807e-14
2.56469e-14
2.48804e-14
2.56468e-14
2.48799e-14
2.56466e-14
2.48793e-14
2.56464e-14
2.48785e-14
2.5646e-14
2.48774e-14
2.56456e-14
2.4876e-14
2.56451e-14
2.48744e-14
2.56445e-14
2.48726e-14
2.56437e-14
2.48706e-14
2.56429e-14
2.48683e-14
2.5642e-14
2.48658e-14
2.5641e-14
2.4863e-14
2.56398e-14
2.486e-14
2.56386e-14
2.48568e-14
2.56373e-14
2.48534e-14
2.56358e-14
2.48498e-14
2.56342e-14
2.4846e-14
2.56324e-14
2.4842e-14
2.56305e-14
2.48377e-14
2.56285e-14
2.48332e-14
2.56263e-14
2.48285e-14
2.56241e-14
2.48236e-14
2.56218e-14
2.48186e-14
2.56193e-14
2.48135e-14
2.56165e-14
2.48082e-14
2.56136e-14
2.48027e-14
2.56105e-14
2.47971e-14
2.56074e-14
2.47913e-14
2.56041e-14
2.47853e-14
2.56006e-14
2.47791e-14
2.55967e-14
2.47728e-14
2.55927e-14
2.47663e-14
2.55887e-14
2.47597e-14
2.55848e-14
2.47527e-14
2.55807e-14
2.47455e-14
2.55765e-14
2.47381e-14
2.55723e-14
2.47305e-14
2.5568e-14
2.47228e-14
2.55633e-14
2.47149e-14
2.55584e-14
2.47068e-14
2.55534e-14
2.46985e-14
2.55481e-14
2.46902e-14
2.55425e-14
2.46818e-14
2.55365e-14
2.46731e-14
2.55305e-14
2.46644e-14
2.55241e-14
2.46553e-14
2.55175e-14
2.4646e-14
2.55109e-14
2.46362e-14
2.55039e-14
2.46263e-14
2.54965e-14
2.46162e-14
2.54888e-14
2.46057e-14
2.54807e-14
2.45949e-14
2.54726e-14
2.45838e-14
2.54641e-14
2.45725e-14
2.54552e-14
2.45606e-14
2.54459e-14
2.45485e-14
2.54363e-14
2.45359e-14
2.54263e-14
2.45227e-14
2.54162e-14
2.45094e-14
2.54052e-14
2.44955e-14
2.53938e-14
2.44814e-14
2.53823e-14
2.44667e-14
2.53707e-14
2.44516e-14
2.53584e-14
2.4436e-14
2.53457e-14
2.44206e-14
2.53329e-14
2.44046e-14
2.53191e-14
2.43881e-14
2.53052e-14
2.4371e-14
2.52905e-14
2.43536e-14
2.52746e-14
2.43356e-14
2.52583e-14
2.4317e-14
2.52417e-14
2.42978e-14
2.52248e-14
2.42781e-14
2.52074e-14
2.42572e-14
2.51894e-14
2.42357e-14
2.51704e-14
2.42139e-14
2.51507e-14
2.41916e-14
2.51306e-14
2.41688e-14
2.51098e-14
2.41447e-14
2.50878e-14
2.41205e-14
2.50654e-14
2.40957e-14
2.5043e-14
2.40704e-14
2.50201e-14
2.40443e-14
2.49967e-14
2.4018e-14
2.49737e-14
2.3991e-14
2.49498e-14
2.39627e-14
2.49262e-14
2.39344e-14
2.49011e-14
2.3905e-14
2.48755e-14
2.38752e-14
2.48502e-14
2.38461e-14
2.48234e-14
2.38156e-14
2.47968e-14
2.37852e-14
2.4769e-14
2.37549e-14
2.47383e-14
2.37248e-14
2.4708e-14
2.36933e-14
2.46788e-14
2.36612e-14
2.46508e-14
2.36303e-14
2.46207e-14
2.36005e-14
2.45867e-14
2.35686e-14
2.45523e-14
2.35372e-14
2.45182e-14
2.35045e-14
2.44836e-14
2.34724e-14
2.44503e-14
2.34418e-14
2.44156e-14
2.34083e-14
2.43822e-14
2.33764e-14
2.43465e-14
2.33407e-14
2.43113e-14
2.3305e-14
2.42793e-14
2.32701e-14
2.42441e-14
2.32362e-14
2.42084e-14
2.31996e-14
2.4176e-14
2.31622e-14
2.41404e-14
2.31249e-14
2.41024e-14
2.30879e-14
2.40639e-14
2.30484e-14
2.4028e-14
2.30102e-14
2.39926e-14
2.29665e-14
2.39568e-14
2.29234e-14
2.39196e-14
2.28798e-14
2.38841e-14
2.28358e-14
2.38461e-14
2.27926e-14
2.38068e-14
2.27502e-14
2.37651e-14
2.27077e-14
2.3724e-14
2.26652e-14
2.36846e-14
2.26238e-14
2.3647e-14
2.25836e-14
2.36092e-14
2.25414e-14
2.3571e-14
2.25018e-14
2.35304e-14
2.24626e-14
2.34896e-14
2.24282e-14
2.3442e-14
2.23902e-14
2.34007e-14
2.2353e-14
2.33613e-14
2.23167e-14
2.33173e-14
2.22792e-14
2.32708e-14
2.22406e-14
2.32286e-14
2.22033e-14
2.31861e-14
2.21696e-14
2.31457e-14
2.2133e-14
2.31029e-14
2.20958e-14
2.30621e-14
2.20559e-14
2.30213e-14
2.20179e-14
2.29757e-14
2.19752e-14
2.29346e-14
2.19324e-14
2.29027e-14
2.18919e-14
2.28662e-14
2.1854e-14
2.28227e-14
2.18117e-14
2.27792e-14
2.177e-14
2.27405e-14
2.17312e-14
2.2702e-14
2.16932e-14
2.26612e-14
2.16514e-14
2.26158e-14
2.16059e-14
2.25731e-14
2.15664e-14
2.25258e-14
2.1526e-14
2.24837e-14
2.14871e-14
2.24468e-14
2.14476e-14
2.2403e-14
2.14051e-14
2.23573e-14
2.13672e-14
2.23171e-14
2.13168e-14
2.22823e-14
2.12738e-14
2.22483e-14
2.12383e-14
2.22077e-14
2.11983e-14
2.2168e-14
2.11513e-14
2.21269e-14
2.11149e-14
2.20744e-14
2.10669e-14
2.20305e-14
2.10249e-14
2.19878e-14
2.09742e-14
2.19466e-14
2.09197e-14
2.19119e-14
2.08717e-14
2.1874e-14
2.08253e-14
2.18228e-14
2.07757e-14
2.17736e-14
2.0728e-14
2.17316e-14
2.06874e-14
2.16767e-14
2.06645e-14
2.16141e-14
2.06339e-14
2.1559e-14
2.05807e-14
2.15168e-14
2.05356e-14
2.1462e-14
2.04884e-14
2.14051e-14
2.04293e-14
2.13667e-14
2.03735e-14
2.13318e-14
2.03264e-14
2.12853e-14
2.02932e-14
2.12375e-14
2.02434e-14
2.11991e-14
2.01976e-14
2.11601e-14
2.01457e-14
2.11105e-14
2.0093e-14
2.10556e-14
2.005e-14
2.10113e-14
2.00168e-14
2.09625e-14
1.99834e-14
2.09095e-14
1.99396e-14
2.08472e-14
1.98961e-14
2.07969e-14
1.98531e-14
2.07433e-14
1.98055e-14
2.06866e-14
1.97535e-14
2.06378e-14
1.97078e-14
2.05921e-14
1.9658e-14
2.05446e-14
1.96199e-14
2.04803e-14
1.95834e-14
2.04202e-14
1.95123e-14
2.03753e-14
1.94587e-14
2.03147e-14
1.94175e-14
2.02338e-14
1.9363e-14
2.01692e-14
1.93007e-14
2.01214e-14
1.92306e-14
2.00753e-14
1.91736e-14
2.00213e-14
1.91244e-14
1.99494e-14
1.90729e-14
1.99017e-14
1.90193e-14
1.98475e-14
1.89634e-14
1.97769e-14
1.89056e-14
1.97214e-14
1.88458e-14
1.96814e-14
1.87942e-14
1.96266e-14
1.873e-14
1.95884e-14
1.86841e-14
1.9547e-14
1.8677e-14
1.94926e-14
1.86781e-14
1.94358e-14
1.86672e-14
1.93974e-14
1.86447e-14
1.93465e-14
1.86315e-14
1.93041e-14
1.86379e-14
1.92704e-14
1.86336e-14
1.92352e-14
1.86293e-14
1.91886e-14
1.85946e-14
1.91409e-14
1.85704e-14
1.91027e-14
1.85465e-14
1.90435e-14
1.85332e-14
1.89837e-14
1.84903e-14
1.89333e-14
1.84276e-14
1.88522e-14
1.84159e-14
1.87505e-14
1.83952e-14
1.86979e-14
1.83758e-14
1.86436e-14
1.83379e-14
1.85672e-14
1.83117e-14
1.84586e-14
1.82683e-14
1.84168e-14
1.82271e-14
1.83714e-14
1.81781e-14
1.83127e-14
1.81308e-14
1.82606e-14
1.8115e-14
1.81853e-14
1.80618e-14
1.81351e-14
1.80302e-14
1.81096e-14
1.79903e-14
1.80797e-14
1.79611e-14
1.80455e-14
1.79228e-14
1.80068e-14
1.79043e-14
1.79735e-14
1.78859e-14
1.79843e-14
1.78766e-14
1.79815e-14
1.78852e-14
1.79172e-14
1.78358e-14
1.78859e-14
1.78236e-14
1.78873e-14
1.7809e-14
1.78834e-14
1.78102e-14
1.78557e-14
1.77893e-14
1.78224e-14
1.77832e-14
1.7802e-14
1.77541e-14
1.78122e-14
1.77565e-14
1.77973e-14
1.77714e-14
1.78312e-14
1.77607e-14
1.78583e-14
1.77787e-14
1.78805e-14
1.78432e-14
1.79169e-14
1.78255e-14
1.79305e-14
1.77984e-14
1.79582e-14
1.78322e-14
1.79654e-14
1.78543e-14
1.79155e-14
1.7885e-14
1.78607e-14
1.79093e-14
1.78698e-14
1.79095e-14
1.79241e-14
1.79369e-14
1.79361e-14
1.79736e-14
1.79414e-14
1.79681e-14
1.79742e-14
1.79713e-14
1.79664e-14
1.79828e-14
1.79696e-14
1.79679e-14
1.79826e-14
1.79434e-14
1.79884e-14
1.79428e-14
1.79885e-14
1.79493e-14
1.80518e-14
1.79762e-14
1.81126e-14
1.79708e-14
1.81557e-14
1.80134e-14
1.81503e-14
1.80564e-14
1.81282e-14
1.80876e-14
1.81527e-14
1.80738e-14
1.82069e-14
1.80762e-14
1.82116e-14
1.81084e-14
1.81828e-14
1.81404e-14
1.81973e-14
1.81572e-14
1.82227e-14
1.81579e-14
1.82758e-14
1.81857e-14
1.8312e-14
1.82083e-14
1.83311e-14
1.82888e-14
1.83497e-14
1.83388e-14
1.83497e-14
1.8332e-14
1.84182e-14
1.83853e-14
1.84376e-14
1.84398e-14
1.84667e-14
1.84389e-14
1.85349e-14
1.84359e-14
1.85894e-14
1.84261e-14
1.8605e-14
1.84663e-14
1.8643e-14
1.85537e-14
1.86744e-14
1.86346e-14
1.8695e-14
1.86329e-14
1.87282e-14
1.87421e-14
1.88044e-14
1.88825e-14
1.8839e-14
1.89292e-14
1.88788e-14
1.89127e-14
1.89223e-14
1.89619e-14
1.89736e-14
1.90212e-14
1.89783e-14
1.90454e-14
1.90107e-14
1.90298e-14
1.9044e-14
1.90989e-14
1.90552e-14
1.92065e-14
1.90883e-14
1.91837e-14
1.91077e-14
1.91531e-14
1.91705e-14
1.91778e-14
1.91887e-14
1.91095e-14
1.91897e-14
1.91099e-14
1.92094e-14
1.90986e-14
1.91519e-14
1.91085e-14
1.91339e-14
1.91204e-14
1.91272e-14
1.91133e-14
1.91537e-14
1.91303e-14
1.91718e-14
1.9149e-14
1.91598e-14
1.90358e-14
1.90614e-14
1.9001e-14
1.90567e-14
1.90461e-14
1.90755e-14
1.90301e-14
1.90897e-14
1.89948e-14
1.90799e-14
1.90351e-14
1.91003e-14
1.90074e-14
1.90737e-14
1.89356e-14
1.90462e-14
1.8964e-14
1.9024e-14
1.89776e-14
1.90536e-14
1.89276e-14
1.8988e-14
1.89163e-14
1.89267e-14
1.88952e-14
1.89152e-14
1.8785e-14
1.89303e-14
1.87284e-14
1.89352e-14
1.87466e-14
1.89098e-14
1.87142e-14
1.88755e-14
1.87386e-14
1.8831e-14
1.8746e-14
1.87952e-14
1.87424e-14
1.87356e-14
1.87029e-14
1.87268e-14
1.87097e-14
1.87151e-14
1.87105e-14
1.87277e-14
1.86768e-14
1.87395e-14
1.86063e-14
1.87265e-14
1.86388e-14
1.86939e-14
1.86066e-14
1.86652e-14
1.85395e-14
1.86108e-14
1.85273e-14
1.859e-14
1.851e-14
1.85417e-14
1.84584e-14
1.84625e-14
1.84666e-14
1.84416e-14
1.84767e-14
1.8447e-14
1.83957e-14
1.84483e-14
1.84051e-14
1.84355e-14
1.83965e-14
1.84234e-14
1.83514e-14
1.83953e-14
1.8299e-14
1.8383e-14
1.8318e-14
1.83562e-14
1.83307e-14
1.8344e-14
1.8273e-14
1.83456e-14
1.82721e-14
1.8348e-14
1.83143e-14
1.8335e-14
1.82528e-14
1.83205e-14
1.83168e-14
1.83233e-14
1.83436e-14
1.83402e-14
1.83163e-14
1.83552e-14
1.83176e-14
1.83712e-14
1.83833e-14
1.8406e-14
1.84652e-14
1.84244e-14
1.84969e-14
1.84057e-14
1.84628e-14
1.84e-14
1.84657e-14
1.84266e-14
1.85051e-14
1.84675e-14
1.85113e-14
1.84691e-14
1.85014e-14
1.84846e-14
1.85096e-14
1.85511e-14
1.85522e-14
1.85646e-14
1.85767e-14
1.85598e-14
1.85659e-14
1.85546e-14
1.86099e-14
1.85673e-14
1.86557e-14
1.85417e-14
1.86137e-14
1.85662e-14
1.85913e-14
1.86242e-14
1.85859e-14
1.86448e-14
1.85785e-14
1.86283e-14
1.85322e-14
1.86306e-14
1.85392e-14
1.8635e-14
1.85249e-14
1.86606e-14
1.85073e-14
1.86509e-14
1.85431e-14
1.86621e-14
1.85577e-14
1.86745e-14
1.85511e-14
1.86889e-14
1.8542e-14
1.86674e-14
1.8511e-14
1.86668e-14
1.85346e-14
1.8707e-14
1.85547e-14
1.87307e-14
1.85522e-14
1.8689e-14
1.85566e-14
1.8668e-14
1.8588e-14
1.87063e-14
1.86077e-14
1.87363e-14
1.86155e-14
1.87582e-14
1.86305e-14
1.87525e-14
1.86433e-14
1.87579e-14
1.86443e-14
1.87746e-14
1.86431e-14
1.87731e-14
1.86396e-14
1.87733e-14
1.86239e-14
1.87849e-14
1.86254e-14
1.87983e-14
1.86242e-14
1.87938e-14
1.86505e-14
1.87817e-14
1.86546e-14
1.87914e-14
1.86566e-14
1.88029e-14
1.86667e-14
1.87858e-14
1.8665e-14
1.87701e-14
1.86617e-14
1.87963e-14
1.86667e-14
1.88036e-14
1.86698e-14
1.88126e-14
1.86712e-14
1.88129e-14
1.8681e-14
1.8784e-14
1.86895e-14
1.87865e-14
1.86968e-14
1.88e-14
1.87029e-14
1.87937e-14
1.8708e-14
1.87881e-14
1.87121e-14
1.87933e-14
1.87154e-14
1.87991e-14
1.87178e-14
1.88053e-14
1.87193e-14
1.87811e-14
1.871e-14
1.87673e-14
1.87001e-14
1.87743e-14
1.86894e-14
1.87712e-14
1.86677e-14
1.87684e-14
1.86554e-14
1.87453e-14
1.86632e-14
1.87223e-14
1.86497e-14
1.87409e-14
1.86355e-14
1.87494e-14
1.86308e-14
1.87271e-14
1.86255e-14
1.8705e-14
1.86195e-14
1.86883e-14
1.86078e-14
1.8682e-14
1.8606e-14
1.86757e-14
1.85983e-14
1.86747e-14
1.8585e-14
1.86685e-14
1.85866e-14
1.86625e-14
1.85772e-14
1.86567e-14
1.85621e-14
1.86666e-14
1.85724e-14
1.86456e-14
1.85822e-14
1.86247e-14
1.85605e-14
1.86141e-14
1.85488e-14
1.86138e-14
1.85471e-14
1.86136e-14
1.85398e-14
1.86135e-14
1.85268e-14
1.8603e-14
1.85135e-14
1.8603e-14
1.85099e-14
1.86083e-14
1.85007e-14
1.85931e-14
1.84857e-14
1.85728e-14
1.84651e-14
1.85784e-14
1.84542e-14
1.85894e-14
1.84425e-14
1.86058e-14
1.8425e-14
1.86071e-14
1.84066e-14
1.86036e-14
1.83976e-14
1.86005e-14
1.83928e-14
1.85877e-14
1.83872e-14
1.85854e-14
1.83859e-14
1.85836e-14
1.83838e-14
1.85822e-14
1.8386e-14
1.8576e-14
1.83774e-14
1.85701e-14
1.83783e-14
1.85696e-14
1.83684e-14
1.85542e-14
1.83629e-14
1.85392e-14
1.83619e-14
1.85294e-14
1.83604e-14
1.853e-14
1.83583e-14
1.85308e-14
1.83657e-14
1.85268e-14
1.83676e-14
1.85281e-14
1.83691e-14
1.85295e-14
1.83775e-14
1.85186e-14
1.83831e-14
1.85104e-14
1.83908e-14
1.85023e-14
1.84031e-14
1.84968e-14
1.84175e-14
1.84888e-14
1.84145e-14
1.84834e-14
1.84162e-14
1.84804e-14
1.84226e-14
1.84824e-14
1.84288e-14
1.84843e-14
1.84444e-14
1.84935e-14
1.84527e-14
1.84857e-14
1.84487e-14
1.84732e-14
1.84495e-14
1.84679e-14
1.84502e-14
1.84697e-14
1.84531e-14
1.84739e-14
1.84512e-14
1.84804e-14
1.84516e-14
1.84798e-14
1.84519e-14
1.84816e-14
1.84544e-14
1.84857e-14
1.84522e-14
1.84828e-14
1.84522e-14
1.84799e-14
1.84522e-14
1.84909e-14
1.84544e-14
1.85019e-14
1.84542e-14
1.85037e-14
1.84517e-14
1.85101e-14
1.84513e-14
1.8521e-14
1.84509e-14
1.85275e-14
1.84504e-14
1.85249e-14
1.8452e-14
1.8527e-14
1.84557e-14
1.85357e-14
1.84594e-14
1.85422e-14
1.84607e-14
1.85488e-14
1.84576e-14
1.85554e-14
1.84566e-14
1.85598e-14
1.84576e-14
1.85643e-14
1.84565e-14
1.85711e-14
1.84552e-14
1.85799e-14
1.84517e-14
1.85867e-14
1.84492e-14
1.85904e-14
1.84487e-14
1.85911e-14
1.84481e-14
1.85939e-14
1.84464e-14
1.85988e-14
1.84456e-14
1.85997e-14
1.84437e-14
1.85997e-14
1.84448e-14
1.85987e-14
1.84447e-14
1.86019e-14
1.84446e-14
1.86031e-14
1.84443e-14
1.86053e-14
1.8443e-14
1.86048e-14
1.84407e-14
1.86052e-14
1.84392e-14
1.86048e-14
1.84387e-14
1.86044e-14
1.84371e-14
1.8606e-14
1.84364e-14
1.86067e-14
1.84328e-14
1.86075e-14
1.84301e-14
1.86073e-14
1.84282e-14
1.861e-14
1.84263e-14
1.86118e-14
1.84226e-14
1.86101e-14
1.84215e-14
1.86093e-14
1.8422e-14
1.86086e-14
1.84208e-14
1.86106e-14
1.84186e-14
1.86134e-14
1.84164e-14
1.86154e-14
1.8415e-14
1.86157e-14
1.84136e-14
1.86178e-14
1.84121e-14
1.86182e-14
1.84113e-14
1.86171e-14
1.84089e-14
1.86159e-14
1.8408e-14
1.86149e-14
1.84071e-14
1.86162e-14
1.84046e-14
1.86184e-14
1.84033e-14
1.86186e-14
1.84003e-14
1.86174e-14
1.83985e-14
1.8617e-14
1.83966e-14
1.86177e-14
1.83951e-14
1.86181e-14
1.83935e-14
1.86188e-14
1.8393e-14
1.86189e-14
1.8391e-14
1.8618e-14
1.83897e-14
1.86174e-14
1.8389e-14
1.86183e-14
1.83883e-14
1.86191e-14
1.83875e-14
1.86197e-14
1.83861e-14
1.86203e-14
1.8385e-14
1.86208e-14
1.83845e-14
1.86208e-14
1.83842e-14
1.86211e-14
1.83839e-14
1.86218e-14
1.83833e-14
1.86222e-14
1.83823e-14
1.86225e-14
1.83813e-14
1.86226e-14
1.83812e-14
1.86231e-14
1.83813e-14
1.86232e-14
1.83814e-14
1.86225e-14
1.83814e-14
1.86227e-14
1.83814e-14
1.86235e-14
1.83814e-14
1.8624e-14
1.83816e-14
1.86239e-14
1.83818e-14
1.86237e-14
1.83817e-14
1.86234e-14
1.83819e-14
1.86234e-14
1.8382e-14
1.86232e-14
1.8382e-14
1.86232e-14
1.83824e-14
1.86236e-14
1.83827e-14
1.86239e-14
1.83828e-14
1.86237e-14
1.83832e-14
1.86235e-14
1.83839e-14
1.86234e-14
1.8384e-14
1.86231e-14
1.8384e-14
1.86229e-14
1.83842e-14
1.86228e-14
1.83844e-14
1.8623e-14
1.83845e-14
1.86228e-14
1.83847e-14
1.86227e-14
1.83848e-14
1.86226e-14
1.83848e-14
1.86226e-14
1.83848e-14
1.86226e-14
1.83848e-14
1.86226e-14
1.8385e-14
1.86227e-14
1.83849e-14
1.86227e-14
1.83851e-14
1.86225e-14
1.8385e-14
1.86224e-14
1.8385e-14
1.86224e-14
1.8385e-14
1.86224e-14
1.83851e-14
1.86224e-14
1.83851e-14
1.86222e-14
1.83851e-14
1.86222e-14
1.83851e-14
1.86224e-14
1.83851e-14
1.86223e-14
1.83851e-14
1.86223e-14
1.83851e-14
1.86223e-14
1.8385e-14
1.86224e-14
1.83851e-14
1.86223e-14
1.8385e-14
1.86222e-14
1.83849e-14
1.86219e-14
1.83849e-14
1.86218e-14
1.83848e-14
1.86218e-14
1.83848e-14
1.86217e-14
1.83847e-14
1.86217e-14
1.83846e-14
1.86216e-14
1.83845e-14
1.86215e-14
1.83844e-14
1.86213e-14
1.83843e-14
1.86213e-14
1.83842e-14
1.86212e-14
1.83841e-14
1.86211e-14
1.8384e-14
1.86211e-14
1.8384e-14
1.8621e-14
1.8384e-14
1.86209e-14
1.8384e-14
1.86209e-14
1.8384e-14
1.86208e-14
1.8384e-14
1.86207e-14
1.8384e-14
1.86207e-14
1.8384e-14
1.86206e-14
1.8384e-14
1.86206e-14
1.8384e-14
1.86205e-14
1.8384e-14
1.86205e-14
1.8384e-14
1.86204e-14
1.8384e-14
1.86204e-14
1.8384e-14
1.86204e-14
1.8384e-14
1.86204e-14
1.8384e-14
1.86204e-14
1.91027e-14
1.91598e-14
1.91008e-14
1.91776e-14
1.91432e-14
1.91937e-14
1.9161e-14
1.92027e-14
1.91334e-14
1.91778e-14
1.91589e-14
1.91915e-14
1.91389e-14
1.92166e-14
1.90919e-14
1.91876e-14
1.90675e-14
1.91305e-14
1.90159e-14
1.90886e-14
1.90084e-14
1.90322e-14
1.90549e-14
1.89811e-14
1.90146e-14
1.895e-14
1.89358e-14
1.89395e-14
1.88912e-14
1.89299e-14
1.88511e-14
1.88973e-14
1.88656e-14
1.88687e-14
1.88879e-14
1.88399e-14
1.88678e-14
1.88064e-14
1.89155e-14
1.88227e-14
1.88686e-14
1.88343e-14
1.88324e-14
1.88196e-14
1.88026e-14
1.87797e-14
1.8721e-14
1.87686e-14
1.86948e-14
1.87337e-14
1.86687e-14
1.8702e-14
1.86114e-14
1.86732e-14
1.85191e-14
1.86493e-14
1.85355e-14
1.86368e-14
1.85446e-14
1.86033e-14
1.84898e-14
1.85455e-14
1.84625e-14
1.85249e-14
1.84616e-14
1.85112e-14
1.83944e-14
1.8503e-14
1.84139e-14
1.8472e-14
1.84936e-14
1.84774e-14
1.8498e-14
1.84834e-14
1.84435e-14
1.84912e-14
1.84708e-14
1.84887e-14
1.84854e-14
1.84585e-14
1.84566e-14
1.84624e-14
1.83827e-14
1.84533e-14
1.84237e-14
1.84339e-14
1.84671e-14
1.8434e-14
1.84673e-14
1.84521e-14
1.84886e-14
1.84219e-14
1.84825e-14
1.83904e-14
1.84157e-14
1.84067e-14
1.84027e-14
1.84234e-14
1.84755e-14
1.84587e-14
1.84801e-14
1.84421e-14
1.84859e-14
1.84246e-14
1.8477e-14
1.85281e-14
1.84664e-14
1.86182e-14
1.85027e-14
1.86107e-14
1.85174e-14
1.86094e-14
1.85292e-14
1.85955e-14
1.85393e-14
1.86025e-14
1.85471e-14
1.85579e-14
1.85905e-14
1.85498e-14
1.85809e-14
1.85951e-14
1.86071e-14
1.86597e-14
1.86128e-14
1.87279e-14
1.86338e-14
1.87278e-14
1.86158e-14
1.87503e-14
1.85945e-14
1.8722e-14
1.857e-14
1.86606e-14
1.85437e-14
1.86391e-14
1.85339e-14
1.87142e-14
1.85198e-14
1.87756e-14
1.85191e-14
1.87875e-14
1.8512e-14
1.87305e-14
1.85189e-14
1.87361e-14
1.85401e-14
1.87467e-14
1.85378e-14
1.87624e-14
1.85507e-14
1.87642e-14
1.85597e-14
1.88095e-14
1.85835e-14
1.88214e-14
1.85936e-14
1.87999e-14
1.85906e-14
1.87929e-14
1.86137e-14
1.87901e-14
1.86535e-14
1.88103e-14
1.86617e-14
1.88336e-14
1.86773e-14
1.88108e-14
1.86812e-14
1.88003e-14
1.86936e-14
1.88116e-14
1.86947e-14
1.88449e-14
1.86941e-14
1.88408e-14
1.8702e-14
1.88091e-14
1.87091e-14
1.87688e-14
1.87159e-14
1.87592e-14
1.87226e-14
1.87802e-14
1.87189e-14
1.87918e-14
1.87248e-14
1.87738e-14
1.87305e-14
1.87665e-14
1.87464e-14
1.87798e-14
1.8742e-14
1.87832e-14
1.87376e-14
1.8787e-14
1.87432e-14
1.88013e-14
1.87486e-14
1.88265e-14
1.87536e-14
1.88423e-14
1.87683e-14
1.88388e-14
1.87622e-14
1.88258e-14
1.87558e-14
1.88135e-14
1.87594e-14
1.88224e-14
1.87626e-14
1.88525e-14
1.87551e-14
1.8863e-14
1.87468e-14
1.88643e-14
1.8748e-14
1.88461e-14
1.87486e-14
1.88495e-14
1.87384e-14
1.8854e-14
1.87171e-14
1.88596e-14
1.87054e-14
1.88561e-14
1.86928e-14
1.88332e-14
1.86899e-14
1.88323e-14
1.86861e-14
1.88534e-14
1.86815e-14
1.88446e-14
1.86761e-14
1.88163e-14
1.867e-14
1.88151e-14
1.86685e-14
1.88099e-14
1.86768e-14
1.88006e-14
1.8669e-14
1.87871e-14
1.86764e-14
1.87744e-14
1.86575e-14
1.87625e-14
1.86434e-14
1.87514e-14
1.86447e-14
1.87409e-14
1.86404e-14
1.87519e-14
1.86359e-14
1.87584e-14
1.86361e-14
1.87398e-14
1.86309e-14
1.87166e-14
1.86255e-14
1.872e-14
1.86199e-14
1.87291e-14
1.86243e-14
1.87233e-14
1.86183e-14
1.87077e-14
1.86276e-14
1.87134e-14
1.86317e-14
1.87092e-14
1.86357e-14
1.86951e-14
1.86346e-14
1.86866e-14
1.86388e-14
1.86888e-14
1.86431e-14
1.87068e-14
1.86423e-14
1.87096e-14
1.86468e-14
1.86973e-14
1.86361e-14
1.86905e-14
1.86308e-14
1.86839e-14
1.86307e-14
1.86828e-14
1.86155e-14
1.86922e-14
1.86004e-14
1.87018e-14
1.85802e-14
1.87068e-14
1.85702e-14
1.86969e-14
1.85703e-14
1.86723e-14
1.85602e-14
1.86582e-14
1.85552e-14
1.86597e-14
1.85553e-14
1.86514e-14
1.85553e-14
1.86434e-14
1.85504e-14
1.86458e-14
1.85555e-14
1.86535e-14
1.85505e-14
1.86565e-14
1.85456e-14
1.86498e-14
1.85431e-14
1.8641e-14
1.85431e-14
1.86374e-14
1.85455e-14
1.86366e-14
1.85479e-14
1.86286e-14
1.85478e-14
1.86184e-14
1.85453e-14
1.8606e-14
1.8555e-14
1.86061e-14
1.85574e-14
1.86014e-14
1.85647e-14
1.85873e-14
1.85599e-14
1.8578e-14
1.85624e-14
1.8569e-14
1.85722e-14
1.85624e-14
1.85724e-14
1.85558e-14
1.85656e-14
1.8547e-14
1.85637e-14
1.85406e-14
1.85618e-14
1.85365e-14
1.85554e-14
1.8542e-14
1.8549e-14
1.85357e-14
1.85451e-14
1.85294e-14
1.85459e-14
1.85209e-14
1.85444e-14
1.85193e-14
1.85384e-14
1.85246e-14
1.85325e-14
1.85254e-14
1.8529e-14
1.85192e-14
1.85278e-14
1.852e-14
1.85266e-14
1.85252e-14
1.85278e-14
1.85259e-14
1.85244e-14
1.85267e-14
1.85234e-14
1.85274e-14
1.85224e-14
1.85303e-14
1.85192e-14
1.85332e-14
1.8516e-14
1.85296e-14
1.8515e-14
1.85281e-14
1.85184e-14
1.85288e-14
1.85175e-14
1.85338e-14
1.85187e-14
1.85388e-14
1.85136e-14
1.85438e-14
1.85169e-14
1.85466e-14
1.85192e-14
1.85431e-14
1.85214e-14
1.85417e-14
1.85206e-14
1.85444e-14
1.85207e-14
1.85482e-14
1.85209e-14
1.85509e-14
1.85201e-14
1.85577e-14
1.85183e-14
1.85634e-14
1.85194e-14
1.85691e-14
1.85196e-14
1.85728e-14
1.85178e-14
1.85794e-14
1.8516e-14
1.8587e-14
1.85152e-14
1.85935e-14
1.85115e-14
1.8601e-14
1.85106e-14
1.86095e-14
1.85069e-14
1.86188e-14
1.85051e-14
1.86263e-14
1.85041e-14
1.86327e-14
1.85041e-14
1.86383e-14
1.8504e-14
1.86466e-14
1.85039e-14
1.8654e-14
1.85029e-14
1.86604e-14
1.85019e-14
1.8666e-14
1.85008e-14
1.86698e-14
1.85005e-14
1.86737e-14
1.85002e-14
1.86793e-14
1.85008e-14
1.86832e-14
1.85013e-14
1.86846e-14
1.85042e-14
1.86868e-14
1.85038e-14
1.869e-14
1.85033e-14
1.86939e-14
1.85028e-14
1.86979e-14
1.85031e-14
1.87011e-14
1.85041e-14
1.87043e-14
1.85051e-14
1.87075e-14
1.85053e-14
1.87104e-14
1.8505e-14
1.87106e-14
1.85044e-14
1.87109e-14
1.8504e-14
1.8712e-14
1.85048e-14
1.87138e-14
1.85048e-14
1.8716e-14
1.85051e-14
1.87172e-14
1.85065e-14
1.87159e-14
1.85074e-14
1.87161e-14
1.85073e-14
1.87184e-14
1.85075e-14
1.87194e-14
1.85084e-14
1.8719e-14
1.85092e-14
1.87194e-14
1.85099e-14
1.87207e-14
1.851e-14
1.87221e-14
1.85098e-14
1.87223e-14
1.85105e-14
1.87231e-14
1.85102e-14
1.87248e-14
1.85096e-14
1.87262e-14
1.85096e-14
1.87268e-14
1.85099e-14
1.87277e-14
1.85107e-14
1.87283e-14
1.85112e-14
1.87284e-14
1.85117e-14
1.87288e-14
1.85119e-14
1.873e-14
1.8512e-14
1.87304e-14
1.85124e-14
1.87304e-14
1.8513e-14
1.87303e-14
1.85136e-14
1.87305e-14
1.85137e-14
1.87312e-14
1.85134e-14
1.8732e-14
1.85136e-14
1.87322e-14
1.85133e-14
1.87325e-14
1.85134e-14
1.8733e-14
1.85133e-14