/*--------------------------------*- C++ -*----------------------------------*\
| =========                 |                                                 |
| \\      /  F ield         | OpenFOAM: The Open Source CFD Toolbox           |
|  \\    /   O peration     | Version:  2012                                  |
|   \\  /    A nd           | Website:  www.openfoam.com                      |
|    \\/     M anipulation  |                                                 |
\*---------------------------------------------------------------------------*/
FoamFile
{
    version     2.0;
    format      ascii;
    class       surfaceScalarField;
    location    "6000";
    object      phi;
}
// * * * * * * * * * * * * * * * * * * * * * * * * * * * * * * * * * * * * * //

dimensions      [0 3 -1 0 0 0 0];
oriented        oriented;


internalField   nonuniform List<scalar> 
5116
(
1.22362e-07
-5.76045e-18
1.11835e-22
-1.72709e-21
6.51102e-22
3.74208e-07
-5.76339e-18
2.08413e-21
-2.96745e-21
2.05431e-21
6.36973e-07
-5.76642e-18
2.15939e-21
-4.18235e-21
2.14118e-21
9.10705e-07
-5.76944e-18
2.22428e-21
-5.74497e-21
2.22512e-21
1.19453e-06
-5.77268e-18
2.27581e-21
-7.11809e-21
2.29388e-21
1.48561e-06
-5.77596e-18
2.2941e-21
-8.89209e-21
2.32733e-21
1.77848e-06
-5.77932e-18
2.25917e-21
-1.00319e-20
2.30578e-21
2.06603e-06
-5.78209e-18
2.16597e-21
-1.11473e-20
2.22384e-21
2.34182e-06
-5.7855e-18
2.02873e-21
-1.24544e-20
2.09568e-21
2.60209e-06
-5.78741e-18
1.871e-21
-1.39272e-20
1.94525e-21
2.8459e-06
-5.79044e-18
1.71295e-21
-1.46419e-20
1.79334e-21
3.0742e-06
-5.79236e-18
1.56635e-21
-1.57169e-20
1.65233e-21
3.28885e-06
-5.79401e-18
1.43589e-21
-1.76537e-20
1.5273e-21
3.49188e-06
-5.79578e-18
1.32209e-21
-1.86337e-20
1.41902e-21
3.68523e-06
-5.79719e-18
1.22356e-21
-1.94908e-20
1.32626e-21
3.87061e-06
-5.7996e-18
1.1383e-21
-1.91847e-20
1.24709e-21
4.04947e-06
-5.79951e-18
1.06431e-21
-2.12589e-20
1.17949e-21
4.22303e-06
-5.7995e-18
9.99695e-22
-2.30659e-20
1.12167e-21
4.39228e-06
-5.80072e-18
9.42893e-22
-2.38207e-20
1.07208e-21
4.5581e-06
-5.80095e-18
8.92625e-22
-2.53403e-20
1.02939e-21
4.72117e-06
-5.80168e-18
8.47771e-22
-2.64818e-20
9.92567e-22
4.8821e-06
-5.80198e-18
8.07452e-22
-2.77817e-20
9.6071e-22
5.04141e-06
-5.80512e-18
7.70916e-22
-2.79032e-20
9.33097e-22
5.19953e-06
-5.8056e-18
7.37614e-22
-2.93716e-20
9.09128e-22
5.35683e-06
-5.80674e-18
7.06984e-22
-3.00831e-20
8.88337e-22
5.51365e-06
-5.80689e-18
6.78633e-22
-3.12714e-20
8.70294e-22
5.67026e-06
-5.80918e-18
6.52219e-22
-3.14656e-20
8.54654e-22
5.82693e-06
-5.80958e-18
6.27463e-22
-3.22423e-20
8.41123e-22
5.98387e-06
-5.81112e-18
6.04065e-22
-3.33157e-20
8.29472e-22
6.14129e-06
-5.812e-18
5.81865e-22
-3.37955e-20
8.19484e-22
6.29937e-06
-5.81218e-18
5.60656e-22
-3.49856e-20
8.10971e-22
6.45826e-06
-5.81325e-18
5.40275e-22
-3.56179e-20
8.03786e-22
6.61814e-06
-5.81366e-18
5.20565e-22
-3.59169e-20
7.97785e-22
6.77912e-06
-5.81511e-18
5.01424e-22
-3.7119e-20
7.92881e-22
6.94133e-06
-5.81441e-18
4.82761e-22
-3.9332e-20
7.88977e-22
7.10491e-06
-5.81523e-18
4.64414e-22
-3.88711e-20
7.85992e-22
7.26995e-06
-5.81562e-18
4.46312e-22
-3.94688e-20
7.83784e-22
7.43655e-06
-5.81698e-18
4.28399e-22
-4.03567e-20
7.8231e-22
7.60483e-06
-5.81766e-18
4.10641e-22
-3.94833e-20
7.81559e-22
7.77486e-06
-5.8177e-18
3.92941e-22
-4.10644e-20
7.81429e-22
7.94675e-06
-5.81716e-18
3.75222e-22
-4.02977e-20
7.81909e-22
8.12057e-06
-5.81829e-18
3.57503e-22
-4.11453e-20
7.82928e-22
8.29641e-06
-5.81772e-18
3.39753e-22
-4.20975e-20
7.84506e-22
8.47434e-06
-5.81792e-18
3.21871e-22
-4.29027e-20
7.86579e-22
8.65444e-06
-5.818e-18
3.03924e-22
-4.29885e-20
7.89042e-22
8.83679e-06
-5.81871e-18
2.85841e-22
-4.44164e-20
7.91977e-22
9.02145e-06
-5.81862e-18
2.67578e-22
-4.29222e-20
7.95286e-22
9.20851e-06
-5.81872e-18
2.49077e-22
-4.45378e-20
7.9888e-22
9.39802e-06
-5.81879e-18
2.3031e-22
-4.67614e-20
8.0291e-22
9.59006e-06
-5.8191e-18
2.11305e-22
-4.76006e-20
8.0727e-22
9.7847e-06
-5.81632e-18
1.92079e-22
-4.91328e-20
8.1196e-22
9.982e-06
-5.81219e-18
1.72509e-22
-5.32797e-20
8.17032e-22
1.0182e-05
-5.81096e-18
1.5253e-22
-5.40352e-20
8.22457e-22
1.03848e-05
-5.80987e-18
1.32172e-22
-5.54292e-20
8.28154e-22
1.05905e-05
-5.8101e-18
1.11414e-22
-5.77696e-20
8.34136e-22
1.07991e-05
-5.80769e-18
9.02597e-23
-5.94371e-20
8.40456e-22
1.10107e-05
-5.80636e-18
6.85203e-23
-6.27444e-20
8.47059e-22
1.12253e-05
-5.80528e-18
4.62299e-23
-6.44436e-20
8.5393e-22
1.14431e-05
-5.80401e-18
2.34674e-23
-6.57842e-20
8.60934e-22
1.1664e-05
-5.80262e-18
2.30114e-25
-6.80668e-20
8.68108e-22
1.18882e-05
-5.80105e-18
-2.34826e-23
-7.10413e-20
8.75427e-22
1.21157e-05
-5.798e-18
-4.77427e-23
-7.37743e-20
8.8299e-22
1.23466e-05
-5.79456e-18
-7.26281e-23
-7.78129e-20
8.90559e-22
1.25809e-05
-5.79356e-18
-9.81877e-23
-8.16336e-20
8.98408e-22
1.28187e-05
-5.79106e-18
-1.2442e-22
-8.39126e-20
9.06539e-22
1.30601e-05
-5.78843e-18
-1.5155e-22
-8.59971e-20
9.14687e-22
1.33052e-05
-5.78679e-18
-1.79505e-22
-8.69325e-20
9.22892e-22
1.35539e-05
-5.78854e-18
-2.08297e-22
-8.67207e-20
9.31022e-22
1.38064e-05
-5.78787e-18
-2.37915e-22
-9.08905e-20
9.39377e-22
1.40628e-05
-5.78237e-18
-2.68286e-22
-9.35894e-20
9.48055e-22
1.4323e-05
-5.77627e-18
-2.99621e-22
-1.01255e-19
9.56809e-22
1.45873e-05
-5.77239e-18
-3.32002e-22
-1.05463e-19
9.65919e-22
1.48556e-05
-5.7713e-18
-3.65403e-22
-1.07435e-19
9.75139e-22
1.5128e-05
-5.76794e-18
-3.99592e-22
-1.11163e-19
9.84386e-22
1.54046e-05
-5.75881e-18
-4.34708e-22
-1.17307e-19
9.93746e-22
1.56855e-05
-5.75365e-18
-4.71382e-22
-1.25887e-19
1.00361e-21
1.59708e-05
-5.7512e-18
-5.09438e-22
-1.29063e-19
1.01391e-21
1.62604e-05
-5.75519e-18
-5.48964e-22
-1.2791e-19
1.02419e-21
1.65545e-05
-5.75662e-18
-5.89488e-22
-1.29119e-19
1.03465e-21
1.68532e-05
-5.75595e-18
-6.30952e-22
-1.30919e-19
1.04497e-21
1.71566e-05
-5.75454e-18
-6.73516e-22
-1.33068e-19
1.05502e-21
1.74646e-05
-5.75683e-18
-7.16831e-22
-1.33802e-19
1.06482e-21
1.77775e-05
-5.75596e-18
-7.61017e-22
-1.36077e-19
1.07431e-21
1.80952e-05
-5.75008e-18
-8.0605e-22
-1.40632e-19
1.08407e-21
1.84179e-05
-5.75002e-18
-8.52387e-22
-1.45664e-19
1.09442e-21
1.87456e-05
-5.74765e-18
-8.99544e-22
-1.48467e-19
1.10535e-21
1.90785e-05
-5.74333e-18
-9.47386e-22
-1.51771e-19
1.11611e-21
1.94165e-05
-5.74003e-18
-9.96113e-22
-1.56485e-19
1.12671e-21
1.97599e-05
-5.73297e-18
-1.0454e-21
-1.63285e-19
1.13744e-21
2.01086e-05
-5.72895e-18
-1.09557e-21
-1.67461e-19
1.14869e-21
2.04628e-05
-5.72717e-18
-1.14689e-21
-1.7234e-19
1.16002e-21
2.08225e-05
-5.72289e-18
-1.19876e-21
-1.73047e-19
1.17108e-21
2.11879e-05
-5.71669e-18
-1.25127e-21
-1.78154e-19
1.18153e-21
2.1559e-05
-5.71829e-18
-1.30425e-21
-1.80374e-19
1.19212e-21
2.1936e-05
-5.7115e-18
-1.35697e-21
-1.8819e-19
1.20183e-21
2.23188e-05
-5.70945e-18
-1.41066e-21
-1.93163e-19
1.21122e-21
2.27077e-05
-5.70226e-18
-1.46429e-21
-1.99026e-19
1.22027e-21
2.31027e-05
-5.6964e-18
-1.51801e-21
-2.02874e-19
1.22929e-21
2.35039e-05
-5.69837e-18
-1.57241e-21
-2.02995e-19
1.23848e-21
2.39113e-05
-5.69268e-18
-1.62562e-21
-2.02763e-19
1.24635e-21
2.43252e-05
-5.68642e-18
-1.6791e-21
-2.08633e-19
1.25295e-21
2.47456e-05
-5.67777e-18
-1.7322e-21
-2.07685e-19
1.25897e-21
2.51727e-05
-5.66624e-18
-1.78572e-21
-2.17299e-19
1.26374e-21
2.56064e-05
-5.66111e-18
-1.8397e-21
-2.23439e-19
1.26895e-21
2.60469e-05
-5.65226e-18
-1.89228e-21
-2.27733e-19
1.27312e-21
2.64944e-05
-5.64492e-18
-1.94576e-21
-2.34918e-19
1.27643e-21
2.69489e-05
-5.63557e-18
-1.99761e-21
-2.42606e-19
1.27902e-21
2.74106e-05
-5.62701e-18
-2.04819e-21
-2.47791e-19
1.27885e-21
2.78795e-05
-5.62122e-18
-2.09836e-21
-2.51109e-19
1.27758e-21
2.83558e-05
-5.61306e-18
-2.14785e-21
-2.54541e-19
1.27554e-21
2.88396e-05
-5.60237e-18
-2.19728e-21
-2.64552e-19
1.27286e-21
2.9331e-05
-5.59633e-18
-2.24711e-21
-2.6929e-19
1.27176e-21
2.98301e-05
-5.58938e-18
-2.29602e-21
-2.76449e-19
1.27055e-21
3.03371e-05
-5.57504e-18
-2.34368e-21
-2.90771e-19
1.26831e-21
3.0852e-05
-5.57419e-18
-2.39017e-21
-3.00022e-19
1.26567e-21
3.1375e-05
-5.56933e-18
-2.4314e-21
-3.04631e-19
1.26211e-21
3.19063e-05
-5.56286e-18
-2.46592e-21
-3.07163e-19
1.25498e-21
3.24458e-05
-5.55418e-18
-2.49627e-21
-3.04421e-19
1.24286e-21
3.29939e-05
-5.54681e-18
-2.52324e-21
-3.06168e-19
1.22533e-21
3.35506e-05
-5.5383e-18
-2.54617e-21
-3.07896e-19
1.20673e-21
3.4116e-05
-5.53302e-18
-2.56816e-21
-3.1548e-19
1.18521e-21
3.46903e-05
-5.52904e-18
-2.58913e-21
-3.10788e-19
1.16431e-21
3.52736e-05
-5.51841e-18
-2.60975e-21
-3.11725e-19
1.14298e-21
3.5866e-05
-5.50929e-18
-2.63001e-21
-3.11562e-19
1.11809e-21
3.64678e-05
-5.50502e-18
-2.65335e-21
-3.13909e-19
1.09265e-21
3.7079e-05
-5.49457e-18
-2.67776e-21
-3.17136e-19
1.06582e-21
3.76997e-05
-5.48875e-18
-2.70442e-21
-3.26673e-19
1.03907e-21
3.83303e-05
-5.4736e-18
-2.73043e-21
-3.27259e-19
1.0156e-21
3.89707e-05
-5.45593e-18
-2.76033e-21
-3.36804e-19
9.92793e-22
3.96211e-05
-5.44016e-18
-2.79471e-21
-3.41808e-19
9.7126e-22
4.02817e-05
-5.43003e-18
-2.82647e-21
-3.54018e-19
9.46581e-22
4.09527e-05
-5.4193e-18
-2.85863e-21
-3.63979e-19
9.2328e-22
4.16341e-05
-5.40505e-18
-2.88609e-21
-3.71162e-19
9.00786e-22
4.23263e-05
-5.40189e-18
-2.91187e-21
-3.72459e-19
8.73152e-22
4.30292e-05
-5.38928e-18
-2.93309e-21
-3.87221e-19
8.41058e-22
4.37432e-05
-5.3857e-18
-2.9502e-21
-3.98474e-19
8.07798e-22
4.44683e-05
-5.36643e-18
-2.96197e-21
-4.10764e-19
7.72466e-22
4.52048e-05
-5.37084e-18
-2.97772e-21
-4.1793e-19
7.38787e-22
4.59528e-05
-5.34239e-18
-2.98134e-21
-4.37141e-19
7.04839e-22
4.67125e-05
-5.32392e-18
-2.98778e-21
-4.48825e-19
6.79453e-22
4.7484e-05
-5.3153e-18
-2.99896e-21
-4.58593e-19
6.58941e-22
4.82676e-05
-5.29352e-18
-3.0067e-21
-4.72835e-19
6.40466e-22
4.90635e-05
-5.2799e-18
-3.0217e-21
-4.83207e-19
6.23568e-22
4.98717e-05
-5.25953e-18
-3.03976e-21
-5.03017e-19
6.10907e-22
5.06926e-05
-5.25101e-18
-3.05901e-21
-5.13597e-19
6.11656e-22
5.15263e-05
-5.24737e-18
-3.07103e-21
-5.16369e-19
6.20367e-22
5.23729e-05
-5.23909e-18
-3.07483e-21
-5.21666e-19
6.23948e-22
5.32328e-05
-5.2289e-18
-3.0713e-21
-5.2472e-19
6.25896e-22
5.41061e-05
-5.22133e-18
-3.06759e-21
-5.25334e-19
6.30153e-22
5.4993e-05
-5.211e-18
-3.05619e-21
-5.33727e-19
6.33583e-22
5.58937e-05
-5.19797e-18
-3.04207e-21
-5.41921e-19
6.36542e-22
5.68084e-05
-5.1853e-18
-3.02508e-21
-5.48496e-19
6.41652e-22
5.77373e-05
-5.17583e-18
-3.00042e-21
-5.59482e-19
6.4361e-22
5.86808e-05
-5.14314e-18
-2.97172e-21
-5.68102e-19
6.43514e-22
5.96389e-05
-5.1303e-18
-2.95272e-21
-5.83157e-19
6.53769e-22
6.06118e-05
-5.11558e-18
-2.94394e-21
-5.97485e-19
6.78337e-22
6.16e-05
-5.10519e-18
-2.93616e-21
-6.06105e-19
7.06242e-22
6.26034e-05
-5.08811e-18
-2.91317e-21
-6.27577e-19
7.3993e-22
6.36225e-05
-5.05588e-18
-2.87912e-21
-6.43886e-19
7.91936e-22
6.46574e-05
-5.01935e-18
-2.84093e-21
-6.61072e-19
8.35932e-22
6.57084e-05
-4.99841e-18
-2.80529e-21
-6.81244e-19
8.8847e-22
6.67756e-05
-4.9894e-18
-2.76424e-21
-7.04194e-19
9.7294e-22
6.78595e-05
-4.97287e-18
-2.71502e-21
-7.3084e-19
1.07404e-21
6.89601e-05
-4.9351e-18
-2.6558e-21
-7.61578e-19
1.19839e-21
7.00778e-05
-4.95359e-18
-2.64162e-21
-7.57656e-19
1.35216e-21
7.12129e-05
-4.95376e-18
-2.59572e-21
-7.65978e-19
1.50761e-21
7.23655e-05
-4.94553e-18
-2.547e-21
-7.73321e-19
1.6733e-21
7.3536e-05
-4.95448e-18
-2.49978e-21
-7.72204e-19
1.87013e-21
7.47247e-05
-4.93143e-18
-2.42116e-21
-7.82904e-19
2.0664e-21
7.59317e-05
-4.91833e-18
-2.34298e-21
-7.99875e-19
2.27722e-21
7.71574e-05
-4.91964e-18
-2.25026e-21
-8.25831e-19
2.49035e-21
7.84021e-05
-4.90745e-18
-2.12138e-21
-8.33254e-19
2.73638e-21
7.9666e-05
-4.87587e-18
-2.00067e-21
-8.47882e-19
2.99257e-21
8.09495e-05
-4.86667e-18
-1.90277e-21
-8.40894e-19
3.23836e-21
8.22528e-05
-4.84977e-18
-1.77494e-21
-8.58514e-19
3.45065e-21
8.35763e-05
-4.8244e-18
-1.6467e-21
-8.71843e-19
3.69599e-21
8.49202e-05
-4.81856e-18
-1.54404e-21
-8.87367e-19
3.95589e-21
8.62849e-05
-4.79858e-18
-1.42837e-21
-8.84269e-19
4.22661e-21
8.76706e-05
-4.78673e-18
-1.32807e-21
-9.14322e-19
4.49615e-21
8.90778e-05
-4.7432e-18
-1.22715e-21
-9.5127e-19
4.83502e-21
9.05066e-05
-4.71913e-18
-1.18799e-21
-9.89403e-19
5.2075e-21
9.19575e-05
-4.71085e-18
-1.14131e-21
-9.8113e-19
5.64563e-21
9.34308e-05
-4.71817e-18
-1.10075e-21
-9.94975e-19
6.07003e-21
9.49268e-05
-4.70872e-18
-1.03226e-21
-1.00364e-18
6.5461e-21
9.64458e-05
-4.70372e-18
-9.43801e-22
-1.02699e-18
7.03669e-21
9.79882e-05
-4.66959e-18
-8.61014e-22
-1.04515e-18
7.56887e-21
9.95545e-05
-4.65312e-18
-7.8846e-22
-1.0579e-18
8.09991e-21
0.000101145
-4.65598e-18
-7.36345e-22
-1.077e-18
8.62955e-21
0.00010276
-4.63236e-18
-6.20248e-22
-1.11125e-18
9.15245e-21
0.000104399
-4.61581e-18
-5.36978e-22
-1.13944e-18
9.66237e-21
0.000106064
-4.5912e-18
-4.85806e-22
-1.16977e-18
1.01414e-20
0.000107755
-4.56246e-18
-4.68715e-22
-1.17952e-18
1.05696e-20
0.000109471
-4.53552e-18
-4.73245e-22
-1.20814e-18
1.08893e-20
0.000111214
-4.50329e-18
-4.93926e-22
-1.24025e-18
1.11794e-20
0.000112984
-4.47942e-18
-5.61516e-22
-1.27531e-18
1.147e-20
0.00011478
-4.45603e-18
-6.47418e-22
-1.29752e-18
1.17574e-20
0.000116605
-4.43373e-18
-7.25953e-22
-1.31786e-18
1.20178e-20
0.000118457
-4.41393e-18
-7.41099e-22
-1.35999e-18
1.22176e-20
0.000120338
-4.37835e-18
-7.4681e-22
-1.40778e-18
1.24117e-20
0.000122248
-4.37767e-18
-8.35883e-22
-1.43677e-18
1.26334e-20
0.000124187
-4.34191e-18
-9.04532e-22
-1.43812e-18
1.2822e-20
0.000126156
-4.35396e-18
-9.97747e-22
-1.45266e-18
1.2871e-20
0.000128155
-4.34611e-18
-1.02573e-21
-1.41428e-18
1.28538e-20
0.000130184
-4.27698e-18
-1.0544e-21
-1.47836e-18
1.27565e-20
0.000132245
-4.22578e-18
-1.19054e-21
-1.5455e-18
1.27356e-20
0.000134337
-4.16542e-18
-1.36092e-21
-1.61202e-18
1.27063e-20
0.000136462
-4.12148e-18
-1.50931e-21
-1.68369e-18
1.26166e-20
0.000138618
-4.07658e-18
-1.54488e-21
-1.76392e-18
1.24882e-20
0.000140808
-4.00878e-18
-1.54875e-21
-1.84599e-18
1.23812e-20
0.000143032
-3.97011e-18
-1.51723e-21
-1.91842e-18
1.22588e-20
0.000145289
-3.91e-18
-1.387e-21
-1.98387e-18
1.21183e-20
0.000147581
-3.88464e-18
-1.1763e-21
-2.03888e-18
1.18952e-20
0.000149908
-3.82052e-18
-1.00795e-21
-2.09722e-18
1.15775e-20
0.00015227
-3.78513e-18
-1.02012e-21
-2.14411e-18
1.14501e-20
0.000154669
-3.6995e-18
-9.10612e-22
-2.20791e-18
1.12881e-20
0.000157104
-3.66214e-18
-9.02363e-22
-2.23643e-18
1.11985e-20
0.000159576
-3.62722e-18
-9.57663e-22
-2.28925e-18
1.09545e-20
0.000162086
-3.56251e-18
-1.15317e-21
-2.34242e-18
1.06582e-20
0.000164635
-3.54683e-18
-1.61359e-21
-2.37174e-18
1.03762e-20
0.000167222
-3.50787e-18
-1.97542e-21
-2.36525e-18
9.97064e-21
0.000169849
-3.47485e-18
-2.38811e-21
-2.41408e-18
9.40052e-21
0.000172515
-3.40468e-18
-2.83093e-21
-2.42621e-18
8.6449e-21
0.000175223
-3.38673e-18
-3.51456e-21
-2.4878e-18
7.70537e-21
0.000177971
-3.36992e-18
-4.33632e-21
-2.53024e-18
7.08178e-21
0.000180762
-3.34377e-18
-5.25954e-21
-2.53855e-18
6.2299e-21
0.000183595
-3.32429e-18
-6.16656e-21
-2.57072e-18
5.01631e-21
0.000186471
-3.31086e-18
-6.96701e-21
-2.6049e-18
3.98313e-21
0.000189391
-3.27793e-18
-7.83128e-21
-2.65241e-18
3.26357e-21
0.000192355
-3.2483e-18
-8.7424e-21
-2.68605e-18
2.45491e-21
0.000195364
-3.26597e-18
-9.76592e-21
-2.68919e-18
1.59311e-21
0.000198419
-3.24713e-18
-1.05764e-20
-2.71623e-18
8.23631e-22
0.000201521
-3.25394e-18
-1.13602e-20
-2.71587e-18
9.40576e-23
0.000204669
-3.23949e-18
-1.19947e-20
-2.69833e-18
-7.83552e-22
0.000207866
-3.19069e-18
-1.266e-20
-2.69678e-18
-1.87461e-21
0.000211111
-3.17226e-18
-1.34782e-20
-2.70141e-18
-2.98329e-21
0.000214405
-3.15176e-18
-1.43289e-20
-2.69508e-18
-3.94758e-21
0.000217749
-3.12761e-18
-1.53899e-20
-2.66606e-18
-4.62241e-21
0.000221144
-3.10501e-18
-1.64242e-20
-2.61901e-18
-5.72983e-21
0.00022459
-3.07178e-18
-1.75521e-20
-2.60456e-18
-7.41487e-21
0.000228088
-3.06276e-18
-1.8744e-20
-2.61254e-18
-9.04173e-21
0.00023164
-3.07484e-18
-1.97832e-20
-2.58554e-18
-1.03101e-20
0.000235245
-3.06402e-18
-2.05477e-20
-2.57619e-18
-1.14484e-20
0.000238905
-3.09274e-18
-2.14601e-20
-2.50157e-18
-1.22963e-20
0.00024262
-3.03707e-18
-2.18408e-20
-2.54821e-18
-1.35236e-20
0.000246391
-3.01011e-18
-2.24129e-20
-2.59237e-18
-1.41063e-20
0.000250219
-2.95877e-18
-2.28015e-20
-2.62641e-18
-1.38054e-20
0.000254105
-2.88262e-18
-2.22914e-20
-2.57262e-18
-1.34035e-20
0.00025805
-2.78541e-18
-2.2438e-20
-2.52783e-18
-1.36268e-20
0.000262054
-2.72388e-18
-2.30129e-20
-2.48361e-18
-1.40715e-20
0.000266118
-2.69775e-18
-2.37694e-20
-2.47672e-18
-1.42824e-20
0.000270244
-2.63952e-18
-2.25789e-20
-2.48198e-18
-1.55333e-20
0.000274432
-2.61132e-18
-2.18602e-20
-2.42438e-18
-1.64729e-20
0.000278683
-2.58537e-18
-2.13402e-20
-2.42922e-18
-1.77905e-20
0.000282998
-2.54831e-18
-2.05744e-20
-2.39657e-18
-1.84461e-20
0.000287378
-2.37559e-18
-2.03229e-20
-2.39324e-18
-1.94048e-20
0.000291824
-2.36241e-18
-2.09554e-20
-2.39511e-18
-2.0679e-20
0.000296337
-2.35516e-18
-2.17423e-20
-2.34808e-18
-2.14611e-20
0.000300917
-2.42265e-18
-2.24905e-20
-2.26168e-18
-2.24091e-20
0.000305566
-2.29343e-18
-2.07849e-20
-2.22552e-18
-2.38045e-20
0.000310285
-2.19531e-18
-2.0283e-20
-2.33318e-18
-2.53365e-20
0.000315075
-2.17414e-18
-2.15209e-20
-2.26281e-18
-2.43883e-20
0.000319936
-2.1609e-18
-2.27197e-20
-2.24663e-18
-2.37013e-20
0.00032487
-2.13672e-18
-2.36219e-20
-2.23336e-18
-2.29559e-20
0.000329878
-2.19581e-18
-2.46437e-20
-2.11032e-18
-2.19798e-20
0.000334961
-2.1368e-18
-2.42241e-20
-2.07998e-18
-2.23263e-20
0.00034012
-2.04089e-18
-2.4197e-20
-2.03513e-18
-2.3202e-20
0.000345356
-1.98701e-18
-2.53558e-20
-1.99235e-18
-2.3932e-20
0.00035067
-2.04494e-18
-2.66515e-20
-1.91586e-18
-2.33955e-20
0.000356063
-2.01335e-18
-2.61266e-20
-1.84346e-18
-2.33682e-20
0.000361536
-1.93912e-18
-2.45385e-20
-1.80986e-18
-2.46695e-20
0.000367091
-1.91424e-18
-2.43738e-20
-1.80253e-18
-2.56026e-20
0.000372729
-1.8031e-18
-2.41216e-20
-1.86344e-18
-2.76962e-20
0.00037845
-1.78649e-18
-2.55379e-20
-1.96203e-18
-2.87846e-20
0.000384256
-1.80566e-18
-2.69243e-20
-1.9118e-18
-2.69964e-20
0.000390148
-1.76976e-18
-2.72423e-20
-1.82721e-18
-2.56868e-20
0.000396128
-1.7203e-18
-2.8144e-20
-1.71658e-18
-2.55341e-20
0.000402196
-1.67659e-18
-2.97777e-20
-1.69121e-18
-2.81687e-20
0.000408354
-1.73085e-18
-3.31874e-20
-1.65412e-18
-2.87484e-20
0.000414602
-1.7372e-18
-3.60657e-20
-1.67421e-18
-2.98883e-20
0.000420943
-1.69611e-18
-3.75962e-20
-1.64525e-18
-2.93123e-20
0.000427377
-1.6602e-18
-3.87327e-20
-1.6422e-18
-2.71584e-20
0.000433906
-1.61172e-18
-3.98354e-20
-1.61936e-18
-2.40453e-20
0.000440531
-1.58888e-18
-3.91731e-20
-1.58726e-18
-2.61941e-20
0.000447253
-1.57942e-18
-3.94353e-20
-1.54274e-18
-2.97183e-20
0.000454073
-1.55112e-18
-3.90344e-20
-1.56593e-18
-3.16746e-20
0.000460993
-1.50375e-18
-3.70552e-20
-1.54276e-18
-3.06491e-20
0.000468015
-1.52748e-18
-3.72032e-20
-1.54915e-18
-2.91693e-20
0.000475138
-1.51415e-18
-3.67265e-20
-1.5461e-18
-2.68081e-20
0.000482366
-1.47736e-18
-3.34331e-20
-1.44879e-18
-2.3199e-20
0.000489698
-1.40921e-18
-2.93467e-20
-1.39491e-18
-2.14049e-20
0.000497137
-1.37947e-18
-2.76853e-20
-1.21445e-18
-1.76985e-20
0.000504683
-1.36271e-18
-2.34386e-20
-1.33342e-18
-1.83745e-20
0.000512338
-1.17118e-18
-1.69228e-20
-1.20903e-18
-1.63419e-20
0.000520104
-1.22429e-18
-1.99618e-20
-1.16247e-18
-1.71327e-20
0.000527981
-1.19377e-18
-2.06096e-20
-1.18729e-18
-2.08917e-20
0.000535971
-1.11654e-18
-2.48051e-20
-1.21368e-18
-2.34592e-20
0.000544075
-1.04214e-18
-2.68155e-20
-1.16036e-18
-2.94831e-20
0.000552295
-1.1187e-18
-3.05943e-20
-1.14514e-18
-2.90726e-20
0.000560632
-1.06975e-18
-2.65994e-20
-1.03327e-18
-2.16981e-20
0.000569086
-1.05564e-18
-2.47874e-20
-1.04119e-18
-1.79794e-20
0.00057766
-9.98163e-19
-2.27462e-20
-1.0689e-18
-1.87741e-20
0.000586354
-1.07182e-18
-2.32223e-20
-1.01276e-18
-1.99937e-20
0.000595169
-1.02969e-18
-1.97362e-20
-1.15649e-18
-2.24379e-20
0.000604108
-1.04408e-18
-1.95346e-20
-1.12105e-18
-1.84963e-20
0.00061317
-1.07076e-18
-2.09521e-20
-1.13844e-18
-9.69873e-21
0.000622357
-1.12524e-18
-1.69308e-20
-1.07151e-18
-4.41758e-21
0.000631669
-1.13262e-18
-1.35365e-20
-1.07237e-18
2.13258e-21
0.000641109
-1.0781e-18
-1.33829e-20
-1.01968e-18
9.27205e-21
0.000650675
-9.20749e-19
-5.02194e-21
-9.07301e-19
7.50053e-21
0.00066037
-9.30478e-19
-3.11292e-21
-8.42678e-19
6.08277e-21
0.000670193
-8.87876e-19
-5.69633e-22
-9.50503e-19
1.63678e-21
0.000680146
-8.73583e-19
-7.62584e-21
-8.83923e-19
2.48011e-21
0.000690228
-9.27802e-19
-8.61792e-21
-9.60368e-19
-1.03713e-22
0.00070044
-8.24831e-19
-5.96073e-21
-8.47822e-19
8.28344e-21
0.000710781
-8.94353e-19
-6.06756e-21
-8.96467e-19
1.257e-20
0.000721253
-8.73424e-19
-1.76473e-21
-8.64252e-19
1.36618e-20
0.000731854
-8.20639e-19
-3.17749e-21
-8.50092e-19
1.01061e-20
0.000742584
-7.8611e-19
-1.07029e-20
-9.58909e-19
1.00255e-20
0.000753444
-8.98482e-19
-1.75946e-20
-7.60388e-19
1.5813e-20
0.000764432
-3.42227e-21
-8.22494e-19
8.34781e-21
-7.83625e-19
1.22362e-07
1.09289e-22
6.36412e-22
3.74208e-07
1.39071e-21
3.47448e-21
6.36973e-07
2.76557e-21
6.47662e-21
9.10705e-07
4.00395e-21
9.60022e-21
1.19453e-06
5.39009e-21
1.27441e-20
1.48561e-06
6.73534e-21
1.59398e-20
1.77848e-06
8.13039e-21
1.91357e-20
2.06603e-06
8.95424e-21
2.27839e-20
2.34182e-06
1.07073e-20
2.5508e-20
2.60209e-06
1.2172e-20
2.72552e-20
2.8459e-06
1.30937e-20
2.97516e-20
3.0742e-06
1.4122e-20
3.1292e-20
3.28885e-06
1.48438e-20
3.34106e-20
3.49188e-06
1.55879e-20
3.53352e-20
3.68523e-06
1.6357e-20
3.75495e-20
3.87061e-06
1.88367e-20
3.92155e-20
4.04947e-06
1.99204e-20
3.98024e-20
4.22303e-06
2.16069e-20
4.01079e-20
4.39228e-06
2.37983e-20
4.12308e-20
4.5581e-06
2.48793e-20
4.24772e-20
4.72117e-06
2.68744e-20
4.37117e-20
4.8821e-06
2.81103e-20
4.44463e-20
5.04141e-06
2.98839e-20
4.58632e-20
5.19953e-06
2.99276e-20
4.79253e-20
5.35683e-06
3.03258e-20
5.02175e-20
5.51365e-06
3.16713e-20
5.15271e-20
5.67026e-06
3.15223e-20
5.23618e-20
5.82693e-06
3.11211e-20
5.31288e-20
5.98387e-06
3.24207e-20
5.31492e-20
6.14129e-06
3.27637e-20
5.33314e-20
6.29937e-06
3.37197e-20
5.4109e-20
6.45826e-06
3.32474e-20
5.50548e-20
6.61814e-06
3.46161e-20
5.60744e-20
6.77912e-06
3.56844e-20
5.65713e-20
6.94133e-06
3.65367e-20
5.78883e-20
7.10491e-06
3.68735e-20
5.90495e-20
7.26995e-06
3.75701e-20
5.91149e-20
7.43655e-06
3.83337e-20
5.95803e-20
7.60483e-06
3.85467e-20
6.08542e-20
7.77486e-06
3.8106e-20
6.23092e-20
7.94675e-06
4.00916e-20
6.29703e-20
8.12057e-06
4.02787e-20
6.31722e-20
8.29641e-06
3.89852e-20
6.45202e-20
8.47434e-06
4.01444e-20
6.42381e-20
8.65444e-06
4.13107e-20
6.7754e-20
8.83679e-06
4.20078e-20
6.79028e-20
9.02145e-06
4.20412e-20
6.86756e-20
9.20851e-06
4.15954e-20
7.21186e-20
9.39802e-06
4.13461e-20
7.30125e-20
9.59006e-06
4.05177e-20
7.51434e-20
9.7847e-06
4.03354e-20
7.82397e-20
9.982e-06
4.13627e-20
7.77639e-20
1.0182e-05
4.12786e-20
7.74202e-20
1.03848e-05
4.152e-20
7.8835e-20
1.05905e-05
4.19861e-20
8.14123e-20
1.07991e-05
4.12865e-20
8.19975e-20
1.10107e-05
4.07086e-20
8.25932e-20
1.12253e-05
4.20421e-20
8.24559e-20
1.14431e-05
4.3303e-20
8.27804e-20
1.1664e-05
4.41809e-20
8.2167e-20
1.18882e-05
4.39633e-20
8.41301e-20
1.21157e-05
4.43218e-20
8.3512e-20
1.23466e-05
4.46489e-20
8.58667e-20
1.25809e-05
4.34231e-20
8.69391e-20
1.28187e-05
4.10169e-20
8.57354e-20
1.30601e-05
4.1069e-20
8.60458e-20
1.33052e-05
3.98977e-20
8.62945e-20
1.35539e-05
3.5957e-20
9.08106e-20
1.38064e-05
3.55492e-20
9.09965e-20
1.40628e-05
3.6121e-20
9.07958e-20
1.4323e-05
3.71709e-20
9.13788e-20
1.45873e-05
3.72112e-20
9.14867e-20
1.48556e-05
3.75995e-20
9.19437e-20
1.5128e-05
3.92509e-20
9.21229e-20
1.54046e-05
3.95649e-20
9.5743e-20
1.56855e-05
4.0291e-20
9.68407e-20
1.59708e-05
3.95589e-20
9.74539e-20
1.62604e-05
3.9193e-20
1.03949e-19
1.65545e-05
4.13252e-20
1.02929e-19
1.68532e-05
4.18117e-20
1.00427e-19
1.71566e-05
4.31245e-20
1.00058e-19
1.74646e-05
3.76765e-20
1.00993e-19
1.77775e-05
3.6436e-20
1.03297e-19
1.80952e-05
3.44971e-20
1.04681e-19
1.84179e-05
3.19979e-20
1.06356e-19
1.87456e-05
3.3661e-20
1.05462e-19
1.90785e-05
3.30885e-20
1.06765e-19
1.94165e-05
3.27302e-20
1.09873e-19
1.97599e-05
3.40901e-20
1.12679e-19
2.01086e-05
2.97934e-20
1.15072e-19
2.04628e-05
2.81818e-20
1.1536e-19
2.08225e-05
2.78281e-20
1.14626e-19
2.11879e-05
2.87941e-20
1.16595e-19
2.1559e-05
2.72998e-20
1.17477e-19
2.1936e-05
2.48158e-20
1.17237e-19
2.23188e-05
2.44152e-20
1.1532e-19
2.27077e-05
2.61988e-20
1.13116e-19
2.31027e-05
2.16825e-20
1.17445e-19
2.35039e-05
2.38183e-20
1.19206e-19
2.39113e-05
2.3778e-20
1.20294e-19
2.43252e-05
2.67484e-20
1.17832e-19
2.47456e-05
2.60414e-20
1.1879e-19
2.51727e-05
2.62725e-20
1.18486e-19
2.56064e-05
3.02018e-20
1.16976e-19
2.60469e-05
2.38729e-20
1.21275e-19
2.64944e-05
2.79851e-20
1.22926e-19
2.69489e-05
3.0904e-20
1.1696e-19
2.74106e-05
3.03246e-20
1.19635e-19
2.78795e-05
2.98385e-20
1.20974e-19
2.83558e-05
2.70984e-20
1.22111e-19
2.88396e-05
2.31336e-20
1.25084e-19
2.9331e-05
2.04045e-20
1.27038e-19
2.98301e-05
1.76726e-20
1.26506e-19
3.03371e-05
1.76846e-20
1.2414e-19
3.0852e-05
1.7576e-20
1.2796e-19
3.1375e-05
2.58144e-20
1.27039e-19
3.19063e-05
2.79565e-20
1.21736e-19
3.24458e-05
3.00266e-20
1.16482e-19
3.29939e-05
3.2897e-20
1.23597e-19
3.35506e-05
2.91126e-20
1.24188e-19
3.4116e-05
2.62285e-20
1.24947e-19
3.46903e-05
2.0388e-20
1.32494e-19
3.52736e-05
2.35771e-20
1.28247e-19
3.5866e-05
1.79262e-20
1.32527e-19
3.64678e-05
1.78983e-20
1.30301e-19
3.7079e-05
1.77807e-20
1.3592e-19
3.76997e-05
1.59865e-20
1.4574e-19
3.83303e-05
6.44955e-21
1.55833e-19
3.89707e-05
-4.10806e-21
1.57005e-19
3.96211e-05
2.58504e-21
1.51482e-19
4.02817e-05
-4.38669e-21
1.56778e-19
4.09527e-05
5.95264e-22
1.6587e-19
4.16341e-05
-2.84349e-21
1.64266e-19
4.23263e-05
-1.01711e-20
1.67642e-19
4.30292e-05
-7.46094e-21
1.65002e-19
4.37432e-05
-8.49409e-21
1.63653e-19
4.44683e-05
-1.36879e-20
1.61787e-19
4.52048e-05
-7.04032e-21
1.57475e-19
4.59528e-05
-1.73465e-21
1.64762e-19
4.67125e-05
-7.35244e-21
1.67501e-19
4.7484e-05
-4.94188e-21
1.60569e-19
4.82676e-05
-7.86905e-21
1.51679e-19
4.90635e-05
-8.48079e-21
1.47699e-19
4.98717e-05
-3.20664e-21
1.42492e-19
5.06926e-05
9.73399e-22
1.43791e-19
5.15263e-05
-1.98078e-21
1.35387e-19
5.23729e-05
-3.25719e-22
1.30444e-19
5.32328e-05
-4.5319e-21
1.31076e-19
5.41061e-05
-5.36428e-22
1.25549e-19
5.4993e-05
-4.99661e-21
1.22303e-19
5.58937e-05
-6.05952e-21
1.24669e-19
5.68084e-05
-2.02237e-21
1.22383e-19
5.77373e-05
-9.02996e-21
1.2009e-19
5.86808e-05
-1.03745e-20
1.30038e-19
5.96389e-05
-2.63664e-20
1.41068e-19
6.06118e-05
-2.697e-20
1.41632e-19
6.16e-05
-1.33745e-20
1.44683e-19
6.26034e-05
-5.82943e-22
1.49949e-19
6.36225e-05
1.12735e-20
1.38046e-19
6.46574e-05
1.23805e-20
1.38795e-19
6.57084e-05
1.00165e-20
1.45416e-19
6.67756e-05
8.73646e-21
1.38492e-19
6.78595e-05
3.08765e-20
1.43982e-19
6.89601e-05
2.45004e-20
1.45097e-19
7.00778e-05
3.8512e-20
1.47137e-19
7.12129e-05
3.6746e-20
1.43949e-19
7.23655e-05
3.93176e-20
1.65059e-19
7.3536e-05
4.5811e-20
1.62799e-19
7.47247e-05
4.29241e-20
1.64834e-19
7.59317e-05
3.63442e-20
1.53638e-19
7.71574e-05
3.17469e-20
1.53691e-19
7.84021e-05
1.07493e-20
1.57852e-19
7.9666e-05
6.99338e-21
1.52527e-19
8.09495e-05
2.52446e-20
1.56103e-19
8.22528e-05
3.06656e-20
1.75035e-19
8.35763e-05
2.72964e-20
1.75538e-19
8.49202e-05
3.39915e-20
1.74329e-19
8.62849e-05
3.80364e-20
1.64594e-19
8.76706e-05
4.59431e-20
1.707e-19
8.90778e-05
3.9782e-20
1.70308e-19
9.05066e-05
5.88811e-20
1.90354e-19
9.19575e-05
5.68434e-20
1.89564e-19
9.34308e-05
5.81713e-20
2.01143e-19
9.49268e-05
6.24633e-20
2.0656e-19
9.64458e-05
3.81673e-20
2.28228e-19
9.79882e-05
3.54708e-20
2.30335e-19
9.95545e-05
1.51394e-20
2.41097e-19
0.000101145
3.02489e-20
2.5266e-19
0.00010276
2.76621e-20
2.53925e-19
0.000104399
2.30887e-20
2.59375e-19
0.000106064
2.96771e-20
2.6235e-19
0.000107755
4.24895e-20
2.59035e-19
0.000109471
4.86464e-20
2.65247e-19
0.000111214
4.72673e-20
2.79617e-19
0.000112984
5.49183e-20
2.92395e-19
0.00011478
7.37449e-20
3.02187e-19
0.000116605
1.08033e-19
3.03534e-19
0.000118457
1.23366e-19
3.18112e-19
0.000120338
1.33132e-19
3.30042e-19
0.000122248
1.50354e-19
3.32685e-19
0.000124187
1.85867e-19
3.30119e-19
0.000126156
2.08866e-19
3.38539e-19
0.000128155
2.16375e-19
3.94996e-19
0.000130184
2.27385e-19
4.08263e-19
0.000132245
2.32617e-19
4.14182e-19
0.000134337
2.50271e-19
4.20028e-19
0.000136462
2.66698e-19
4.2171e-19
0.000138618
2.62935e-19
4.40395e-19
0.000140808
2.88964e-19
4.37703e-19
0.000143032
3.00551e-19
4.26824e-19
0.000145289
3.2819e-19
4.20141e-19
0.000147581
2.88654e-19
4.09974e-19
0.000149908
2.5558e-19
4.37038e-19
0.00015227
2.91705e-19
4.19113e-19
0.000154669
3.34171e-19
4.2654e-19
0.000157104
3.38082e-19
4.25957e-19
0.000159576
3.31304e-19
4.33728e-19
0.000162086
3.27224e-19
4.49287e-19
0.000164635
3.49486e-19
4.46826e-19
0.000167222
3.63278e-19
4.93774e-19
0.000169849
3.80291e-19
4.93526e-19
0.000172515
4.04976e-19
4.8886e-19
0.000175223
3.99083e-19
5.30903e-19
0.000177971
3.98409e-19
5.21757e-19
0.000180762
4.2539e-19
4.97469e-19
0.000183595
4.4893e-19
5.07879e-19
0.000186471
4.39973e-19
5.49607e-19
0.000189391
4.52362e-19
5.22296e-19
0.000192355
4.42175e-19
4.95691e-19
0.000195364
4.41464e-19
5.05434e-19
0.000198419
4.48434e-19
4.84487e-19
0.000201521
4.40754e-19
4.67586e-19
0.000204669
4.24764e-19
4.61792e-19
0.000207866
4.26862e-19
4.52687e-19
0.000211111
4.23023e-19
4.36057e-19
0.000214405
4.01645e-19
4.68284e-19
0.000217749
4.14526e-19
4.60294e-19
0.000221144
4.0949e-19
4.41286e-19
0.00022459
4.08145e-19
4.24836e-19
0.000228088
3.93288e-19
4.1783e-19
0.00023164
3.51818e-19
4.35746e-19
0.000235245
2.81449e-19
4.15575e-19
0.000238905
2.6163e-19
3.90352e-19
0.00024262
2.37716e-19
3.71008e-19
0.000246391
2.09494e-19
3.72406e-19
0.000250219
2.77036e-19
3.64881e-19
0.000254105
2.1872e-19
3.67147e-19
0.00025805
2.11872e-19
3.32878e-19
0.000262054
1.90627e-19
3.54508e-19
0.000266118
3.28982e-19
2.38277e-19
0.000270244
3.03808e-19
2.16428e-19
0.000274432
2.69867e-19
2.04356e-19
0.000278683
2.38816e-19
2.07102e-19
0.000282998
1.49126e-19
1.61696e-19
0.000287378
1.84637e-19
1.21659e-19