/*--------------------------------*- C++ -*----------------------------------*\
| =========                 |                                                 |
| \\      /  F ield         | OpenFOAM: The Open Source CFD Toolbox           |
|  \\    /   O peration     | Version:  2012                                  |
|   \\  /    A nd           | Website:  www.openfoam.com                      |
|    \\/     M anipulation  |                                                 |
\*---------------------------------------------------------------------------*/
FoamFile
{
    version     2.0;
    format      ascii;
    class       volScalarField;
    location    "16800";
    object      nut;
}
// * * * * * * * * * * * * * * * * * * * * * * * * * * * * * * * * * * * * * //

dimensions      [0 2 -1 0 0 0 0];


internalField   nonuniform List<scalar> 
2560
(
8.13105e-09
8.13105e-09
1.153e-06
1.153e-06
2.3566e-05
2.3566e-05
0.000144201
0.000144201
0.000411089
0.000411089
0.000787911
0.000787911
0.00123441
0.00123441
0.00172703
0.00172703
0.00225221
0.00225221
0.00280142
0.00280142
0.00336889
0.00336889
0.00395046
0.00395046
0.00454299
0.00454299
0.00514401
0.00514401
0.00575153
0.00575153
0.00636389
0.00636389
0.00697971
0.00697971
0.00759778
0.00759778
0.00821705
0.00821705
0.00883657
0.00883657
0.00945551
0.00945551
0.0100731
0.0100731
0.0106886
0.0106886
0.0113014
0.0113014
0.0119109
0.0119109
0.0125164
0.0125164
0.0131174
0.0131174
0.0137133
0.0137133
0.0143037
0.0143037
0.014888
0.014888
0.0154657
0.0154657
0.0160364
0.0160364
0.0165996
0.0165996
0.0171548
0.0171548
0.0177017
0.0177017
0.0182398
0.0182398
0.0187686
0.0187686
0.019288
0.019288
0.0197974
0.0197974
0.0202966
0.0202966
0.0207853
0.0207853
0.0212633
0.0212633
0.0217303
0.0217303
0.0221863
0.0221863
0.0226311
0.0226311
0.0230648
0.0230648
0.0234874
0.0234874
0.023899
0.023899
0.0242999
0.0242999
0.0246905
0.0246905
0.0250711
0.0250711
0.0254425
0.0254425
0.0258053
0.0258053
0.0261604
0.0261604
0.0265088
0.0265088
0.0268519
0.0268519
0.0271909
0.0271909
0.0275275
0.0275275
0.0278635
0.0278635
0.0282009
0.0282009
0.0285418
0.0285418
0.0288887
0.0288887
0.0292442
0.0292442
0.0296109
0.0296109
0.0299916
0.0299916
0.0303894
0.0303894
0.0308071
0.0308071
0.0312477
0.0312477
0.0317141
0.0317141
0.0322088
0.0322088
0.0327345
0.0327345
0.0332931
0.0332931
0.0338865
0.0338865
0.0345158
0.0345158
0.0351818
0.0351818
0.0358848
0.0358848
0.0366243
0.0366243
0.0373995
0.0373995
0.0382088
0.0382088
0.0390502
0.0390502
0.0399213
0.0399213
0.0408192
0.0408192
0.0417408
0.0417408
0.0426826
0.0426826
0.0436411
0.0436411
0.0446125
0.0446125
0.0455932
0.0455932
0.0465795
0.0465795
0.047568
0.047568
0.0485551
0.0485551
0.0495377
0.0495377
0.0505127
0.0505127
0.0514773
0.0514773
0.0524291
0.0524291
0.0533657
0.0533657
0.0542851
0.0542851
0.0551855
0.0551855
0.0560653
0.0560653
0.0569232
0.0569232
0.0577582
0.0577582
0.0585693
0.0585693
0.0593558
0.0593558
0.0601173
0.0601173
0.0608534
0.0608534
0.0615638
0.0615638
0.0622484
0.0622484
0.0629075
0.0629075
0.063541
0.063541
0.0641492
0.0641492
0.0647324
0.0647324
0.065291
0.065291
0.0658255
0.0658255
0.0663363
0.0663363
0.0668239
0.0668239
0.0672889
0.0672889
0.0677319
0.0677319
0.0681534
0.0681534
0.068554
0.068554
0.0689343
0.0689343
0.069295
0.069295
0.0696365
0.0696365
0.0699594
0.0699594
0.0702644
0.0702644
0.0705519
0.0705519
0.0708225
0.0708225
0.0710766
0.0710766
0.0713149
0.0713149
0.0715376
0.0715376
0.0717454
0.0717454
0.0719386
0.0719386
0.0721176
0.0721176
0.0722829
0.0722829
0.0724347
0.0724347
0.0725735
0.0725735
0.0726996
0.0726996
0.0728134
0.0728134
0.0729151
0.0729151
0.073005
0.073005
0.0730836
0.0730836
0.0731509
0.0731509
0.0732073
0.0732073
0.0732531
0.0732531
0.0732885
0.0732885
0.0733137
0.0733137
0.073329
0.073329
0.0733347
0.0733347
0.0733309
0.0733309
0.073318
0.073318
0.0732961
0.0732961
0.0732656
0.0732656
0.0732266
0.0732266
0.0731795
0.0731795
0.0731245
0.0731245
0.0730619
0.0730619
0.072992
0.072992
0.0729152
0.0729152
0.0728317
0.0728317
0.072742
0.072742
0.0726463
0.0726463
0.0725451
0.0725451
0.0724386
0.0724386
0.0723273
0.0723273
0.0722115
0.0722115
0.0720915
0.0720915
0.0719677
0.0719677
0.0718403
0.0718403
0.0717096
0.0717096
0.0715757
0.0715757
0.071439
0.071439
0.0712995
0.0712995
0.0711575
0.0711575
0.0710131
0.0710131
0.0708664
0.0708664
0.0707178
0.0707178
0.0705674
0.0705674
0.0704155
0.0704155
0.0702625
0.0702625
0.0701086
0.0701086
0.0699542
0.0699542
0.0697998
0.0697998
0.0696457
0.0696457
0.0694925
0.0694925
0.0693406
0.0693406
0.0691904
0.0691904
0.0690424
0.0690424
0.068897
0.068897
0.0687548
0.0687548
0.0686162
0.0686162
0.0684817
0.0684817
0.0683519
0.0683519
0.0682272
0.0682272
0.0681084
0.0681084
0.067996
0.067996
0.067891
0.067891
0.0677941
0.0677941
0.0677061
0.0677061
0.0676281
0.0676281
0.067561
0.067561
0.0675059
0.0675059
0.0674638
0.0674638
0.067436
0.067436
0.0674234
0.0674234
0.0674271
0.0674271
0.0674482
0.0674482
0.0674876
0.0674876
0.0675461
0.0675461
0.0676244
0.0676244
0.0677231
0.0677231
0.0678429
0.0678429
0.0679842
0.0679842
0.0681474
0.0681474
0.0683332
0.0683332
0.0685417
0.0685417
0.0687733
0.0687733
0.069028
0.069028
0.0693056
0.0693056
0.0696059
0.0696059
0.069928
0.069928
0.0702711
0.0702711
0.070634
0.070634
0.0710153
0.0710153
0.0714132
0.0714132
0.0718263
0.0718263
0.072253
0.072253
0.0726923
0.0726923
0.0731432
0.0731432
0.0736049
0.0736049
0.0740766
0.0740766
0.0745573
0.0745573
0.0750456
0.0750456
0.0755394
0.0755394
0.0760367
0.0760367
0.0765354
0.0765354
0.0770338
0.0770338
0.0775301
0.0775301
0.0780231
0.0780231
0.0785118
0.0785118
0.0789955
0.0789955
0.0794743
0.0794744
0.0799488
0.0799489
0.08042
0.08042
0.0808887
0.0808888
0.0813556
0.0813556
0.0818201
0.0818201
0.0822808
0.0822808
0.082735
0.082735
0.0831788
0.0831789
0.0836074
0.0836074
0.084015
0.084015
0.0843962
0.0843963
0.0847474
0.0847474
0.0850674
0.0850675
0.0853583
0.0853584
0.0856244
0.0856244
0.0858743
0.0858743
0.086116
0.086116
0.0863552
0.0863552
0.0865934
0.0865933
0.0868306
0.0868305
0.0870664
0.0870663
0.0873015
0.0873015
0.0875394
0.0875394
0.0877863
0.0877863
0.0880499
0.0880499
0.0883384
0.0883384
0.0886597
0.0886597
0.0890203
0.0890203
0.0894252
0.0894252
0.089878
0.089878
0.0903814
0.0903815
0.0909372
0.0909372
0.0915452
0.0915452
0.0922038
0.0922038
0.0929086
0.0929087
0.0936531
0.0936532
0.0944283
0.0944283
0.0952231
0.0952231
0.0960246
0.0960247
0.0968183
0.0968184
0.0975901
0.0975901
0.0983279
0.0983279
0.0990207
0.0990207
0.0996563
0.0996563
0.10022
0.10022
0.100698
0.100698
0.101083
0.101083
0.101376
0.101376
0.101588
0.101588
0.101735
0.101735
0.10184
0.10184
0.101936
0.101936
0.102053
0.102053
0.102212
0.102212
0.102423
0.102423
0.102687
0.102687
0.103008
0.103008
0.103389
0.103389
0.103831
0.103831
0.104337
0.104337
0.104906
0.104906
0.105532
0.105532
0.106204
0.106204
0.106904
0.106904
0.107613
0.107613
0.108307
0.108307
0.108955
0.108955
0.109516
0.109516
0.109951
0.109951
0.11024
0.11024
0.110386
0.110386
0.110414
0.110414
0.110352
0.110352
0.110223
0.110223
0.110047
0.110047
0.109848
0.109848
0.109655
0.109655
0.109483
0.109483
0.109342
0.109342
0.109235
0.109235
0.109174
0.109174
8.13105e-09
8.13105e-09
1.153e-06
1.153e-06
2.3566e-05
2.3566e-05
0.000144201
0.000144201
0.000411089
0.000411089
0.000787911
0.000787911
0.00123441
0.00123441
0.00172703
0.00172703
0.00225221
0.00225221
0.00280142
0.00280142
0.00336889
0.00336889
0.00395046
0.00395046
0.00454299
0.00454299
0.00514401
0.00514401
0.00575153
0.00575153
0.00636389
0.00636389
0.00697971
0.00697971
0.00759778
0.00759778
0.00821705
0.00821705
0.00883657
0.00883657
0.00945551
0.00945551
0.0100731
0.0100731
0.0106886
0.0106886
0.0113014
0.0113014
0.0119109
0.0119109
0.0125164
0.0125164
0.0131174
0.0131174
0.0137133
0.0137133
0.0143037
0.0143037
0.014888
0.014888
0.0154657
0.0154657
0.0160364
0.0160364
0.0165996
0.0165996
0.0171548
0.0171548
0.0177017
0.0177017
0.0182398
0.0182398
0.0187686
0.0187686
0.019288
0.019288
0.0197974
0.0197974
0.0202966
0.0202966
0.0207853
0.0207853
0.0212633
0.0212633
0.0217303
0.0217303
0.0221863
0.0221863
0.0226311
0.0226311
0.0230648
0.0230648
0.0234874
0.0234874
0.023899
0.023899
0.0242999
0.0242999
0.0246905
0.0246905
0.0250711
0.0250711
0.0254425
0.0254425
0.0258053
0.0258053
0.0261604
0.0261604
0.0265088
0.0265088
0.0268519
0.0268519
0.0271909
0.0271909
0.0275275
0.0275275
0.0278635
0.0278635
0.0282009
0.0282009
0.0285418
0.0285418
0.0288887
0.0288887
0.0292442
0.0292442
0.0296109
0.0296109
0.0299916
0.0299916
0.0303894
0.0303894
0.0308071
0.0308071
0.0312477
0.0312477
0.0317141
0.0317141
0.0322088
0.0322088
0.0327345
0.0327345
0.0332931
0.0332931
0.0338865
0.0338865
0.0345158
0.0345158
0.0351818
0.0351818
0.0358848
0.0358848
0.0366243
0.0366243
0.0373995
0.0373995
0.0382088
0.0382088
0.0390502
0.0390502
0.0399213
0.0399213
0.0408192
0.0408192
0.0417408
0.0417408
0.0426826
0.0426826
0.0436411
0.0436411
0.0446125
0.0446125
0.0455932
0.0455932
0.0465795
0.0465795
0.047568
0.047568
0.0485551
0.0485551
0.0495376
0.0495376
0.0505127
0.0505127
0.0514773
0.0514773
0.0524291
0.0524291
0.0533657
0.0533657
0.0542851
0.0542851
0.0551855
0.0551855
0.0560653
0.0560653
0.0569232
0.0569232
0.0577582
0.0577582
0.0585693
0.0585693
0.0593558
0.0593558
0.0601173
0.0601173
0.0608534
0.0608534
0.0615638
0.0615638
0.0622484
0.0622484
0.0629075
0.0629075
0.063541
0.063541
0.0641492
0.0641492
0.0647324
0.0647324
0.065291
0.065291
0.0658255
0.0658255
0.0663363
0.0663363
0.0668239
0.0668239
0.0672889
0.0672889
0.0677319
0.0677319
0.0681534
0.0681534
0.068554
0.068554
0.0689343
0.0689343
0.069295
0.069295
0.0696365
0.0696365
0.0699594
0.0699594
0.0702644
0.0702644
0.0705519
0.0705519
0.0708225
0.0708225
0.0710766
0.0710766
0.0713149
0.0713149
0.0715376
0.0715376
0.0717454
0.0717454
0.0719386
0.0719386
0.0721176
0.0721176
0.0722829
0.0722829
0.0724347
0.0724347
0.0725735
0.0725735
0.0726996
0.0726996
0.0728134
0.0728134
0.0729151
0.0729151
0.073005
0.073005
0.0730835
0.0730835
0.0731509
0.0731509
0.0732073
0.0732073
0.0732531
0.0732531
0.0732885
0.0732885
0.0733137
0.0733137
0.073329
0.073329
0.0733347
0.0733347
0.0733309
0.0733309
0.073318
0.073318
0.0732961
0.0732961
0.0732656
0.0732656
0.0732266
0.0732266
0.0731795
0.0731795
0.0731245
0.0731245
0.0730619
0.0730619
0.072992
0.072992
0.0729152
0.0729152
0.0728317
0.0728317
0.072742
0.072742
0.0726463
0.0726463
0.0725451
0.0725451
0.0724386
0.0724386
0.0723273
0.0723273
0.0722115
0.0722115
0.0720915
0.0720915
0.0719677
0.0719677
0.0718403
0.0718403
0.0717096
0.0717096
0.0715757
0.0715757
0.071439
0.071439
0.0712995
0.0712995
0.0711575
0.0711575
0.0710131
0.0710131
0.0708664
0.0708664
0.0707178
0.0707178
0.0705674
0.0705674
0.0704155
0.0704155
0.0702625
0.0702625
0.0701086
0.0701086
0.0699542
0.0699542
0.0697998
0.0697998
0.0696457
0.0696457
0.0694925
0.0694925
0.0693406
0.0693406
0.0691904
0.0691904
0.0690424
0.0690424
0.068897
0.068897
0.0687548
0.0687548
0.0686162
0.0686162
0.0684817
0.0684817
0.0683519
0.0683519
0.0682272
0.0682272
0.0681084
0.0681084
0.067996
0.067996
0.067891
0.067891
0.0677941
0.0677941
0.0677061
0.0677061
0.0676281
0.0676281
0.067561
0.067561
0.0675059
0.0675059
0.0674638
0.0674638
0.067436
0.067436
0.0674234
0.0674234
0.0674271
0.0674271
0.0674482
0.0674482
0.0674876
0.0674876
0.0675461
0.0675461
0.0676244
0.0676244
0.0677231
0.0677231
0.0678429
0.0678429
0.0679842
0.0679842
0.0681475
0.0681475
0.0683332
0.0683332
0.0685417
0.0685417
0.0687733
0.0687733
0.069028
0.069028
0.0693057
0.0693057
0.0696059
0.0696059
0.069928
0.069928
0.0702711
0.0702711
0.0706341
0.0706341
0.0710153
0.0710153
0.0714132
0.0714132
0.0718263
0.0718263
0.072253
0.072253
0.0726923
0.0726923
0.0731432
0.0731432
0.0736049
0.0736049
0.0740767
0.0740767
0.0745574
0.0745574
0.0750456
0.0750456
0.0755394
0.0755394
0.0760367
0.0760367
0.0765355
0.0765355
0.0770338
0.0770338
0.0775302
0.0775301
0.0780232
0.0780232
0.0785118
0.0785118
0.0789956
0.0789956
0.0794744
0.0794744
0.0799489
0.0799489
0.08042
0.08042
0.0808888
0.0808888
0.0813556
0.0813556
0.0818202
0.0818201
0.0822808
0.0822808
0.082735
0.082735
0.0831789
0.0831789
0.0836075
0.0836074
0.0840151
0.084015
0.0843963
0.0843962
0.0847474
0.0847474
0.0850675
0.0850675
0.0853584
0.0853583
0.0856244
0.0856244
0.0858743
0.0858743
0.0861161
0.0861161
0.0863552
0.0863552
0.0865933
0.0865934
0.0868306
0.0868306
0.0870663
0.0870664
0.0873015
0.0873015
0.0875394
0.0875394
0.0877863
0.0877863
0.0880499
0.0880499
0.0883384
0.0883384
0.0886597
0.0886597
0.0890203
0.0890203
0.0894252
0.0894252
0.089878
0.089878
0.0903815
0.0903815
0.0909372
0.0909372
0.0915452
0.0915452
0.0922038
0.0922038
0.0929087
0.0929087
0.0936532
0.0936531
0.0944283
0.0944283
0.0952231
0.0952231
0.0960247
0.0960246
0.0968184
0.0968183
0.0975901
0.0975901
0.0983279
0.0983279
0.0990207
0.0990207
0.0996563
0.0996562
0.10022
0.10022
0.100698
0.100698
0.101083
0.101083
0.101376
0.101376
0.101588
0.101588
0.101735
0.101735
0.10184
0.10184
0.101936
0.101936
0.102053
0.102053
0.102212
0.102212
0.102423
0.102423
0.102687
0.102687
0.103008
0.103008
0.103389
0.103389
0.103831
0.103831
0.104337
0.104337
0.104906
0.104906
0.105532
0.105532
0.106204
0.106204
0.106904
0.106904
0.107613
0.107613
0.108307
0.108307
0.108955
0.108955
0.109516
0.109516
0.109951
0.109951
0.11024
0.11024
0.110386
0.110386
0.110414
0.110414
0.110352
0.110352
0.110223
0.110223
0.110047
0.110047
0.109848
0.109848
0.109655
0.109655
0.109483
0.109483
0.109342
0.109342
0.109235
0.109235
0.109174
0.109174
0.109173
0.109173
0.109233
0.109233
0.109339
0.109339
0.109478
0.109478
0.109648
0.109648
0.10984
0.10984
0.110035
0.110035
0.11021
0.11021
0.110335
0.110335
0.11039
0.11039
0.110355
0.110355
0.110204
0.110204
0.109912
0.109912
0.109475
0.109475
0.108917
0.108917
0.108273
0.108273
0.107582
0.107583
0.106878
0.106878
0.106181
0.106181
0.105512
0.105512
0.104889
0.104889
0.104323
0.104323
0.103821
0.103821
0.103381
0.103381
0.103004
0.103004
0.102686
0.102686
0.102424
0.102424
0.102216
0.102216
0.10206
0.10206
0.101945
0.101945
0.101852
0.101852
0.101748
0.101748
0.101603
0.101603
0.10139
0.10139
0.101095
0.101095
0.100706
0.100706
0.100225
0.100225
0.0996586
0.0996586
0.0990212
0.0990213
0.0983272
0.0983273
0.0975884
0.0975884
0.0968156
0.0968156
0.0960209
0.0960209
0.0952181
0.0952182
0.0944221
0.0944221
0.0936458
0.0936458
0.0929002
0.0929003
0.0921945
0.0921945
0.0915355
0.0915355
0.0909271
0.0909271
0.0903713
0.0903713
0.0898679
0.0898679
0.0894151
0.0894151
0.0890103
0.0890102
0.0886499
0.0886498
0.0883289
0.0883288
0.0880406
0.0880406
0.0877772
0.0877772
0.0875306
0.0875306
0.0872932
0.0872932
0.0870589
0.0870588
0.0868235
0.0868235
0.0865864
0.0865864
0.0863481
0.0863481
0.0861085
0.0861085
0.0858661
0.0858661
0.0856159
0.0856159
0.0853498
0.0853499
0.0850589
0.085059
0.0847384
0.0847385
0.0843866
0.0843867
0.084005
0.084005
0.0835974
0.0835975
0.0831693
0.0831693
0.0827263
0.0827263
0.0822734
0.0822734
0.0818141
0.0818141
0.0813508
0.0813508
0.0808848
0.0808848
0.0804163
0.0804163
0.079945
0.079945
0.0794703
0.0794703
0.0789912
0.0789912
0.0785072
0.0785072
0.0780184
0.0780184
0.0775252
0.0775252
0.0770289
0.0770289
0.0765307
0.0765307
0.0760321
0.0760321
0.075535
0.075535
0.0750416
0.0750416
0.0745539
0.0745539
0.0740737
0.0740738
0.0736028
0.0736028
0.0731419
0.0731419
0.0726916
0.0726916
0.0722528
0.0722528
0.0718264
0.0718264
0.0714136
0.0714136
0.0710158
0.0710158
0.0706348
0.0706348
0.0702721
0.0702721
0.0699292
0.0699292
0.0696072
0.0696072
0.0693069
0.069307
0.0690292
0.0690292
0.0687743
0.0687743
0.0685425
0.0685425
0.0683338
0.0683338
0.0681479
0.0681479
0.0679845
0.0679845
0.0678432
0.0678432
0.0677235
0.0677235
0.0676249
0.0676249
0.0675466
0.0675466
0.0674882
0.0674882
0.067449
0.067449
0.067428
0.067428
0.0674243
0.0674243
0.067437
0.067437
0.067465
0.067465
0.067507
0.067507
0.0675621
0.0675621
0.0676293
0.0676293
0.0677074
0.0677074
0.0677953
0.0677953
0.0678923
0.0678923
0.0679973
0.0679973
0.0681097
0.0681097
0.0682286
0.0682286
0.0683533
0.0683533
0.0684832
0.0684832
0.0686177
0.0686177
0.0687563
0.0687563
0.0688985
0.0688985
0.0690438
0.0690438
0.0691918
0.0691918
0.069342
0.069342
0.0694939
0.0694939
0.0696472
0.0696472
0.0698012
0.0698012
0.0699557
0.0699557
0.07011
0.07011
0.070264
0.070264
0.0704171
0.0704171
0.070569
0.070569
0.0707194
0.0707194
0.0708681
0.0708681
0.0710147
0.0710147
0.0711592
0.0711592
0.0713012
0.0713012
0.0714408
0.0714408
0.0715776
0.0715776
0.0717115
0.0717115
0.0718422
0.0718422
0.0719697
0.0719697
0.0720935
0.0720935
0.0722135
0.0722135
0.0723294
0.0723294
0.0724407
0.0724407
0.0725472
0.0725472
0.0726484
0.0726484
0.0727442
0.0727442
0.0728339
0.0728339
0.0729174
0.0729174
0.0729943
0.0729943
0.0730642
0.0730642
0.0731268
0.0731268
0.0731819
0.0731819
0.073229
0.073229
0.0732681
0.0732681
0.0732987
0.0732987
0.0733206
0.0733206
0.0733336
0.0733336
0.0733374
0.0733374
0.0733318
0.0733318
0.0733165
0.0733165
0.0732914
0.0732914
0.0732561
0.0732561
0.0732104
0.0732104
0.073154
0.073154
0.0730868
0.0730868
0.0730084
0.0730084
0.0729185
0.0729185
0.0728169
0.0728169
0.0727032
0.0727032
0.0725771
0.0725771
0.0724383
0.0724383
0.0722865
0.0722865
0.0721213
0.0721213
0.0719423
0.0719423
0.0717492
0.0717492
0.0715415
0.0715415
0.0713188
0.0713188
0.0710806
0.0710806
0.0708264
0.0708264
0.0705558
0.0705558
0.0702683
0.0702683
0.0699633
0.0699633
0.0696403
0.0696403
0.0692988
0.0692988
0.0689381
0.0689381
0.0685577
0.0685577
0.068157
0.068157
0.0677353
0.0677353
0.0672922
0.0672922
0.0668271
0.0668271
0.0663394
0.0663394
0.0658285
0.0658285
0.0652941
0.0652941
0.0647354
0.0647354
0.0641522
0.0641522
0.063544
0.063544
0.0629105
0.0629105
0.0622516
0.0622516
0.0615669
0.0615669
0.0608564
0.0608564
0.0601203
0.0601203
0.0593589
0.0593589
0.0585723
0.0585723
0.0577612
0.0577612
0.0569263
0.0569263
0.0560685
0.0560685
0.0551887
0.0551887
0.0542884
0.0542884
0.0533691
0.0533691
0.0524324
0.0524324
0.0514805
0.0514805
0.0505156
0.0505156
0.0495402
0.0495402
0.0485572
0.0485572
0.0475698
0.0475698
0.0465811
0.0465811
0.0455946
0.0455946
0.0446137
0.0446137
0.043642
0.043642
0.0426833
0.0426833
0.0417412
0.0417412
0.0408193
0.0408193
0.0399211
0.0399211
0.0390496
0.0390496
0.0382079
0.0382079
0.0373983
0.0373983
0.0366228
0.0366228
0.035883
0.035883
0.0351797
0.0351797
0.0345134
0.0345134
0.0338838
0.0338838
0.0332902
0.0332902
0.0327312
0.0327312
0.0322053
0.0322053
0.0317103
0.0317103
0.0312438
0.0312438
0.030803
0.030803
0.0303851
0.0303851
0.0299872
0.0299872
0.0296063
0.0296063
0.0292396
0.0292396
0.028884
0.028884
0.028537
0.028537
0.028196
0.028196
0.0278585
0.0278585
0.0275225
0.0275225
0.027186
0.027186
0.026847
0.026847
0.026504
0.026504
0.0261557
0.0261557
0.0258007
0.0258007
0.0254381
0.0254381
0.0250669
0.0250669
0.0246863
0.0246863
0.0242959
0.0242959
0.0238952
0.0238952
0.0234838
0.0234838
0.0230613
0.0230613
0.0226278
0.0226278
0.0221832
0.0221832
0.0217274
0.0217274
0.0212605
0.0212605
0.0207827
0.0207827
0.0202941
0.0202941
0.0197951
0.0197951
0.0192858
0.0192858
0.0187666
0.0187666
0.0182378
0.0182378
0.0176999
0.0176999
0.0171531
0.0171531
0.016598
0.016598
0.0160349
0.0160349
0.0154643
0.0154643
0.0148867
0.0148867
0.0143025
0.0143025
0.0137122
0.0137122
0.0131163
0.0131163
0.0125154
0.0125154
0.01191
0.01191
0.0113007
0.0113007
0.0106879
0.0106879
0.0100725
0.0100725
0.00945497
0.00945497
0.00883609
0.00883609
0.00821662
0.00821662
0.00759741
0.00759741
0.00697939
0.00697939
0.00636362
0.00636362
0.00575129
0.00575129
0.00514382
0.00514382
0.00454284
0.00454284
0.00395034
0.00395034
0.00336879
0.00336879
0.00280135
0.00280135
0.00225216
0.00225216
0.001727
0.001727
0.00123439
0.00123439
0.000787902
0.000787902
0.000411086
0.000411086
0.0001442
0.0001442
2.35659e-05
2.35659e-05
1.15299e-06
1.15299e-06
8.13113e-09
8.13113e-09
0.109173
0.109173
0.109233
0.109233
0.109339
0.109339
0.109478
0.109478
0.109648
0.109648
0.10984
0.10984
0.110035
0.110035
0.11021
0.11021
0.110335
0.110335
0.11039
0.11039
0.110355
0.110355
0.110204
0.110204
0.109912
0.109912
0.109475
0.109475
0.108917
0.108917
0.108273
0.108273
0.107583
0.107582
0.106878
0.106878
0.106181
0.106181
0.105512
0.105512
0.104889
0.104889
0.104323
0.104323
0.103821
0.103821
0.103381
0.103381
0.103004
0.103004
0.102686
0.102686
0.102424
0.102424
0.102216
0.102216
0.10206
0.10206
0.101945
0.101945
0.101852
0.101852
0.101748
0.101748
0.101603
0.101603
0.10139
0.10139
0.101095
0.101095
0.100706
0.100706
0.100225
0.100225
0.0996586
0.0996586
0.0990213
0.0990213
0.0983273
0.0983273
0.0975885
0.0975885
0.0968157
0.0968156
0.0960209
0.0960209
0.0952182
0.0952182
0.0944221
0.0944221
0.0936458
0.0936458
0.0929003
0.0929003
0.0921946
0.0921945
0.0915355
0.0915355
0.0909272
0.0909272
0.0903714
0.0903714
0.0898679
0.0898679
0.0894151
0.0894151
0.0890103
0.0890103
0.0886499
0.0886499
0.0883289
0.0883289
0.0880406
0.0880407
0.0877773
0.0877773
0.0875306
0.0875306
0.0872932
0.0872933
0.0870589
0.0870589
0.0868236
0.0868236
0.0865865
0.0865865
0.0863482
0.0863482
0.0861086
0.0861086
0.0858662
0.0858662
0.085616
0.0856159
0.08535
0.0853499
0.0850591
0.085059
0.0847386
0.0847385
0.0843868
0.0843867
0.0840051
0.084005
0.0835976
0.0835975
0.0831694
0.0831693
0.0827264
0.0827263
0.0822734
0.0822734
0.0818142
0.0818141
0.0813509
0.0813508
0.0808848
0.0808848
0.0804163
0.0804163
0.0799451
0.0799451
0.0794703
0.0794703
0.0789912
0.0789912
0.0785072
0.0785072
0.0780184
0.0780184
0.0775252
0.0775252
0.0770289
0.0770288
0.0765307
0.0765307
0.0760321
0.0760321
0.075535
0.075535
0.0750415
0.0750415
0.0745538
0.0745538
0.0740737
0.0740737
0.0736027
0.0736027
0.0731419
0.0731419
0.0726916
0.0726916
0.0722528
0.0722528
0.0718264
0.0718264
0.0714135
0.0714135
0.0710158
0.0710158
0.0706348
0.0706348
0.0702721
0.0702721
0.0699291
0.0699291
0.0696071
0.0696071
0.0693069
0.0693069
0.0690291
0.0690291
0.0687742
0.0687742
0.0685425
0.0685425
0.0683337
0.0683337
0.0681478
0.0681478
0.0679845
0.0679845
0.0678432
0.0678432
0.0677235
0.0677235
0.0676248
0.0676248
0.0675466
0.0675466
0.0674882
0.0674882
0.0674489
0.0674489
0.067428
0.067428
0.0674243
0.0674243
0.067437
0.067437
0.0674649
0.0674649
0.067507
0.067507
0.0675621
0.0675621
0.0676293
0.0676293
0.0677073
0.0677073
0.0677953
0.0677953
0.0678923
0.0678923
0.0679973
0.0679973
0.0681097
0.0681097
0.0682285
0.0682285
0.0683533
0.0683533
0.0684832
0.0684832
0.0686177
0.0686177
0.0687562
0.0687562
0.0688984
0.0688984
0.0690438
0.0690438
0.0691918
0.0691918
0.069342
0.069342
0.0694939
0.0694939
0.0696471
0.0696471
0.0698012
0.0698012
0.0699556
0.0699556
0.07011
0.07011
0.070264
0.070264
0.0704171
0.0704171
0.070569
0.070569
0.0707194
0.0707194
0.070868
0.070868
0.0710147
0.0710147
0.0711592
0.0711592
0.0713012
0.0713012
0.0714408
0.0714408
0.0715776
0.0715776
0.0717114
0.0717114
0.0718422
0.0718422
0.0719697
0.0719697
0.0720935
0.0720935
0.0722135
0.0722135
0.0723294
0.0723294
0.0724407
0.0724407
0.0725472
0.0725472
0.0726484
0.0726484
0.0727441
0.0727441
0.0728339
0.0728339
0.0729174
0.0729174
0.0729943
0.0729943
0.0730642
0.0730642
0.0731268
0.0731268
0.0731819
0.0731819
0.073229
0.073229
0.073268
0.073268
0.0732986
0.0732986
0.0733206
0.0733206
0.0733336
0.0733336
0.0733374
0.0733374
0.0733318
0.0733318
0.0733165
0.0733165
0.0732913
0.0732913
0.073256
0.073256
0.0732103
0.0732103
0.073154
0.073154
0.0730868
0.0730868
0.0730084
0.0730084
0.0729185
0.0729185
0.0728169
0.0728169
0.0727032
0.0727032
0.0725771
0.0725771
0.0724383
0.0724383
0.0722865
0.0722865
0.0721213
0.0721213
0.0719423
0.0719423
0.0717492
0.0717492
0.0715415
0.0715415
0.0713188
0.0713188
0.0710806
0.0710806
0.0708264
0.0708264
0.0705558
0.0705558
0.0702683
0.0702683
0.0699633
0.0699633
0.0696403
0.0696403
0.0692988
0.0692988
0.0689381
0.0689381
0.0685577
0.0685577
0.068157
0.068157
0.0677353
0.0677353
0.0672922
0.0672922
0.066827
0.066827
0.0663393
0.0663393
0.0658285
0.0658285
0.0652941
0.0652941
0.0647354
0.0647354
0.0641522
0.0641522
0.063544
0.063544
0.0629105
0.0629105
0.0622515
0.0622515
0.0615669
0.0615669
0.0608564
0.0608564
0.0601203
0.0601203
0.0593588
0.0593588
0.0585723
0.0585723
0.0577612
0.0577612
0.0569263
0.0569263
0.0560685
0.0560685
0.0551887
0.0551887
0.0542884
0.0542884
0.053369
0.053369
0.0524324
0.0524324
0.0514805
0.0514805
0.0505156
0.0505156
0.0495402
0.0495402
0.0485572
0.0485572
0.0475698
0.0475698
0.0465811
0.0465811
0.0455946
0.0455946
0.0446137
0.0446137
0.043642
0.043642
0.0426833
0.0426833
0.0417412
0.0417412
0.0408193
0.0408193
0.0399211
0.0399211
0.0390496
0.0390496
0.0382079
0.0382079
0.0373982
0.0373982
0.0366228
0.0366228
0.0358829
0.0358829
0.0351797
0.0351797
0.0345134
0.0345134
0.0338838
0.0338838
0.0332901
0.0332901
0.0327312
0.0327312
0.0322053
0.0322053
0.0317103
0.0317103
0.0312438
0.0312438
0.030803
0.030803
0.0303851
0.0303851
0.0299872
0.0299872
0.0296063
0.0296063
0.0292396
0.0292396
0.028884
0.028884
0.028537
0.028537
0.028196
0.028196
0.0278585
0.0278585
0.0275225
0.0275225
0.027186
0.027186
0.026847
0.026847
0.026504
0.026504
0.0261557
0.0261557
0.0258007
0.0258007
0.0254381
0.0254381
0.0250669
0.0250669
0.0246863
0.0246863
0.0242959
0.0242959
0.0238952
0.0238952
0.0234838
0.0234838
0.0230614
0.0230614
0.0226278
0.0226278
0.0221832
0.0221832
0.0217274
0.0217274
0.0212605
0.0212605
0.0207827
0.0207827
0.0202941
0.0202941
0.0197951
0.0197951
0.0192858
0.0192858
0.0187666
0.0187666
0.0182378
0.0182378
0.0176999
0.0176999
0.0171531
0.0171531
0.016598
0.016598
0.0160349
0.0160349
0.0154643
0.0154643
0.0148867
0.0148867
0.0143025
0.0143025
0.0137122
0.0137122
0.0131163
0.0131163
0.0125154
0.0125154
0.01191
0.01191
0.0113007
0.0113007
0.0106879
0.0106879
0.0100725
0.0100725
0.00945497
0.00945497
0.00883609
0.00883609
0.00821662
0.00821662
0.00759741
0.00759741
0.00697939
0.00697939
0.00636362
0.00636362
0.00575129
0.00575129
0.00514382
0.00514382
0.00454284
0.00454284
0.00395034
0.00395034
0.00336879
0.00336879
0.00280135
0.00280135
0.00225216
0.00225216
0.001727
0.001727
0.00123439
0.00123439
0.000787902
0.000787902
0.000411086
0.000411086
0.0001442
0.0001442
2.35659e-05
2.35659e-05
1.15299e-06
1.15299e-06
8.13113e-09
8.13113e-09
)
;

boundaryField
{
    walls
    {
        type            nutUWallFunction;
        blending        stepwise;
        Cmu             0.09;
        kappa           0.41;
        E               9.8;
        value           uniform 0;
    }
    inlet
    {
        type            cyclic;
    }
    outlet
    {
        type            cyclic;
    }
    sides
    {
        type            empty;
    }
}


// ************************************************************************* //
