/*--------------------------------*- C++ -*----------------------------------*\
| =========                 |                                                 |
| \\      /  F ield         | OpenFOAM: The Open Source CFD Toolbox           |
|  \\    /   O peration     | Version:  2012                                  |
|   \\  /    A nd           | Website:  www.openfoam.com                      |
|    \\/     M anipulation  |                                                 |
\*---------------------------------------------------------------------------*/
FoamFile
{
    version     2.0;
    format      ascii;
    class       volScalarField;
    location    "16800";
    object      p;
}
// * * * * * * * * * * * * * * * * * * * * * * * * * * * * * * * * * * * * * //

dimensions      [0 2 -2 0 0 0 0];


internalField   nonuniform List<scalar> 
2560
(
1.17745e-10
7.6845e-05
-4.29985e-08
7.67891e-05
-2.39308e-07
7.65837e-05
-8.21978e-07
7.59988e-05
-2.20231e-06
7.46202e-05
-4.91885e-06
7.19044e-05
-9.61868e-06
6.72062e-05
-1.70982e-05
5.97288e-05
-2.82964e-05
4.85327e-05
-4.42895e-05
3.2543e-05
-6.62859e-05
1.05498e-05
-9.56524e-05
-1.88121e-05
-0.00013387
-5.7025e-05
-0.000182573
-0.000105723
-0.000243529
-0.000166674
-0.000318645
-0.000241782
-0.000409944
-0.000333075
-0.000519585
-0.000442709
-0.000649876
-0.000572993
-0.000803225
-0.000726332
-0.000982133
-0.000905233
-0.00118927
-0.00111236
-0.00142744
-0.00135052
-0.00169944
-0.00162251
-0.00200822
-0.00193129
-0.00235694
-0.00227999
-0.00274874
-0.00267178
-0.00318678
-0.00310981
-0.0036744
-0.00359742
-0.0042151
-0.0041381
-0.00481234
-0.00473533
-0.00546955
-0.00539253
-0.00619036
-0.00611333
-0.00697853
-0.00690149
-0.00783771
-0.00776065
-0.00877154
-0.00869447
-0.00978386
-0.00970678
-0.0108786
-0.0108015
-0.0120595
-0.0119824
-0.0133304
-0.0132532
-0.0146951
-0.0146179
-0.0161576
-0.0160805
-0.017722
-0.0176448
-0.0193917
-0.0193146
-0.021171
-0.0210938
-0.0230636
-0.0229863
-0.0250734
-0.0249962
-0.0272042
-0.0271269
-0.0294598
-0.0293825
-0.0318445
-0.0317673
-0.0343615
-0.0342843
-0.0370136
-0.0369364
-0.0398069
-0.0397296
-0.0427433
-0.0426659
-0.045826
-0.0457487
-0.0490606
-0.0489832
-0.0524481
-0.0523707
-0.055994
-0.0559166
-0.0597003
-0.0596229
-0.06357
-0.0634926
-0.067607
-0.0675296
-0.0718144
-0.0717369
-0.0761957
-0.0761183
-0.0807514
-0.080674
-0.085486
-0.0854085
-0.0904034
-0.0903259
-0.0955026
-0.0954251
-0.100789
-0.100711
-0.106261
-0.106184
-0.111926
-0.111848
-0.117781
-0.117703
-0.123829
-0.123752
-0.130073
-0.129995
-0.136511
-0.136433
-0.143146
-0.143069
-0.149979
-0.149901
-0.157011
-0.156933
-0.164239
-0.164161
-0.171666
-0.171589
-0.17929
-0.179213
-0.187113
-0.187036
-0.195131
-0.195054
-0.203345
-0.203267
-0.211752
-0.211674
-0.22035
-0.220272
-0.229138
-0.22906
-0.238115
-0.238037
-0.247276
-0.247198
-0.256619
-0.256541
-0.266141
-0.266063
-0.275836
-0.275759
-0.285704
-0.285626
-0.295738
-0.295661
-0.305936
-0.305858
-0.316289
-0.316211
-0.326796
-0.326718
-0.337451
-0.337373
-0.348246
-0.348167
-0.359177
-0.359099
-0.370237
-0.370159
-0.38142
-0.381342
-0.392722
-0.392643
-0.40413
-0.404052
-0.415642
-0.415563
-0.427249
-0.427171
-0.438942
-0.438864
-0.450717
-0.450639
-0.462563
-0.462485
-0.474474
-0.474396
-0.486442
-0.486363
-0.498456
-0.498378
-0.51051
-0.510432
-0.522597
-0.522519
-0.534705
-0.534627
-0.54683
-0.546752
-0.558959
-0.55888
-0.571087
-0.571009
-0.583204
-0.583125
-0.595303
-0.595225
-0.607373
-0.607295
-0.619409
-0.61933
-0.631399
-0.631321
-0.64334
-0.643261
-0.655219
-0.655141
-0.667032
-0.666954
-0.678768
-0.678689
-0.690424
-0.690345
-0.701984
-0.701906
-0.713453
-0.713374
-0.724812
-0.724733
-0.736063
-0.735984
-0.74719
-0.747111
-0.758199
-0.75812
-0.769067
-0.768989
-0.779806
-0.779726
-0.79039
-0.790312
-0.800835
-0.800755
-0.811111
-0.811033
-0.821238
-0.821158
-0.831183
-0.831105
-0.84097
-0.84089
-0.850563
-0.850485
-0.859993
-0.859912
-0.869215
-0.869138
-0.87827
-0.878189
-0.887104
-0.887027
-0.89577
-0.895689
-0.904202
-0.904127
-0.912468
-0.912385
-0.920487
-0.920412
-0.928342
-0.928258
-0.935937
-0.935863
-0.943374
-0.94329
-0.950537
-0.950465
-0.957551
-0.957465
-0.964274
-0.964203
-0.970861
-0.970772
-0.977138
-0.97707
-0.983297
-0.983205
-0.989124
-0.989059
-0.994854
-0.994758
-1.00023
-1.00017
-1.00553
-1.00543
-1.01045
-1.01039
-1.01534
-1.01523
-1.01979
-1.01975
-1.02427
-1.02415
-1.02826
-1.02823
-1.03233
-1.03221
-1.03587
-1.03584
-1.03955
-1.03941
-1.04262
-1.04261
-1.04593
-1.04576
-1.04853
-1.04854
-1.05148
-1.05129
-1.05361
-1.05365
-1.05623
-1.05601
-1.05789
-1.05797
-1.06022
-1.05995
-1.06139
-1.06153
-1.06347
-1.06314
-1.06416
-1.06435
-1.06601
-1.0656
-1.06653
-1.06648
-1.06789
-1.06737
-1.06823
-1.06794
-1.06911
-1.06849
-1.06929
-1.06876
-1.06972
-1.06897
-1.06974
-1.06897
-1.06938
-1.06885
-1.06924
-1.06858
-1.06846
-1.06815
-1.06817
-1.06762
-1.06699
-1.06688
-1.06657
-1.06611
-1.06501
-1.06509
-1.06446
-1.06408
-1.0627
-1.0628
-1.06188
-1.06156
-1.05999
-1.06003
-1.05884
-1.05857
-1.05681
-1.05681
-1.05537
-1.05513
-1.05319
-1.05316
-1.05148
-1.05126
-1.04915
-1.04909
-1.04718
-1.04699
-1.0447
-1.04463
-1.0425
-1.04232
-1.03987
-1.03978
-1.03745
-1.03728
-1.03467
-1.03457
-1.03205
-1.03189
-1.02912
-1.02901
-1.02631
-1.02616
-1.02324
-1.02312
-1.02025
-1.0201
-1.01703
-1.01691
-1.01387
-1.01372
-1.01049
-1.01036
-1.00715
-1.007
-1.00361
-1.00348
-1.00008
-0.999934
-0.996366
-0.996234
-0.992645
-0.992502
-0.98876
-0.988626
-0.984857
-0.984715
-0.980811
-0.980675
-0.976738
-0.976596
-0.972536
-0.972397
-0.968294
-0.968151
-0.963928
-0.963788
-0.959511
-0.959368
-0.954973
-0.954832
-0.950377
-0.950233
-0.945665
-0.945522
-0.940887
-0.940742
-0.935996
-0.935852
-0.93103
-0.930884
-0.925959
-0.925814
-0.920811
-0.920664
-0.91557
-0.915424
-0.910253
-0.910105
-0.90485
-0.904703
-0.899366
-0.899217
-0.893803
-0.893655
-0.888153
-0.888003
-0.882427
-0.882278
-0.876604
-0.876454
-0.870707
-0.870557
-0.864705
-0.864554
-0.858637
-0.858487
-0.852459
-0.852309
-0.846227
-0.846077
-0.839883
-0.839733
-0.833504
-0.833354
-0.827017
-0.826867
-0.820516
-0.820365
-0.813899
-0.813747
-0.807272
-0.807121
-0.800503
-0.800351
-0.79372
-0.793567
-0.786766
-0.786613
-0.779798
-0.779644
-0.772639
-0.772484
-0.765492
-0.765336
-0.758152
-0.757995
-0.750866
-0.750707
-0.743382
-0.743222
-0.735983
-0.735822
-0.728352
-0.72819
-0.720823
-0.720658
-0.713023
-0.712857
-0.705362
-0.705194
-0.697401
-0.69723
-0.689619
-0.689446
-0.681493
-0.681317
-0.673591
-0.673411
-0.66529
-0.665106
-0.657263
-0.657075
-0.648778
-0.648586
-0.640644
-0.640447
-0.632
-0.631797
-0.623799
-0.623588
-0.615026
-0.614809
-0.60681
-0.606583
-0.597953
-0.597719
-0.589784
-0.589537
-0.580887
-0.580632
-0.572825
-0.572553
-0.563922
-0.563643
-0.556017
-0.555714
-0.547136
-0.546829
-0.539442
-0.539103
-0.530588
-0.530249
-0.523113
-0.522728
-0.514261
-0.513888
-0.507059
-0.506619
-0.498256
-0.497848
-0.491449
-0.490936
-0.482798
-0.482357
-0.476585
-0.475976
-0.468195
-0.467732
-0.462726
-0.461987
-0.454585
-0.454124
-0.44994
-0.449018
-0.441986
-0.441572
-0.438322
-0.437137
-0.430541
-0.430254
-0.427982
-0.42655
-0.420469
-0.420434
-0.418329
-0.417462
-0.411985
-0.412331
-0.410306
-0.410083
-0.405301
-0.406143
-0.404122
-0.404628
-0.399878
-0.402044
-0.399258
-0.401255
-0.397365
-0.400322
7.68345e-05
-1.53462e-06
7.67786e-05
-1.57778e-06
7.65731e-05
-1.77387e-06
7.59882e-05
-2.35601e-06
7.46095e-05
-3.73582e-06
7.18939e-05
-6.45132e-06
6.71957e-05
-1.115e-05
5.97185e-05
-1.86275e-05
4.85226e-05
-2.98237e-05
3.25332e-05
-4.58137e-05
1.05403e-05
-6.78072e-05
-1.88212e-05
-9.71694e-05
-5.70337e-05
-0.000135383
-0.000105731
-0.000184081
-0.000166681
-0.000245032
-0.000241789
-0.000320141
-0.000333082
-0.000411435
-0.000442714
-0.000521069
-0.000572997
-0.000651354
-0.000726336
-0.000804694
-0.000905235
-0.000983595
-0.00111236
-0.00119073
-0.00135052
-0.00142888
-0.00162251
-0.00170087
-0.00193128
-0.00200965
-0.00227998
-0.00235835
-0.00267177
-0.00275015
-0.0031098
-0.00318818
-0.00359741
-0.00367579
-0.00413809
-0.00421648
-0.00473532
-0.0048137
-0.00539252
-0.00547091
-0.00611331
-0.0061917
-0.00690147
-0.00697986
-0.00776063
-0.00783903
-0.00869444
-0.00877285
-0.00970675
-0.00978516
-0.0108015
-0.0108799
-0.0119824
-0.0120608
-0.0132532
-0.0133316
-0.0146179
-0.0146963
-0.0160805
-0.0161589
-0.0176448
-0.0177232
-0.0193145
-0.0193929
-0.0210937
-0.0211722
-0.0229863
-0.0230647
-0.0249961
-0.0250746
-0.0271269
-0.0272053
-0.0293825
-0.0294609
-0.0317672
-0.0318457
-0.0342842
-0.0343627
-0.0369363
-0.0370148
-0.0397295
-0.039808
-0.0426659
-0.0427444
-0.0457486
-0.0458271
-0.0489831
-0.0490616
-0.0523706
-0.0524491
-0.0559165
-0.055995
-0.0596228
-0.0597013
-0.0634925
-0.063571
-0.0675295
-0.067608
-0.0717368
-0.0718154
-0.0761182
-0.0761967
-0.0806739
-0.0807524
-0.0854084
-0.0854869
-0.0903257
-0.0904043
-0.095425
-0.0955035
-0.100711
-0.10079
-0.106184
-0.106262
-0.111848
-0.111927
-0.117703
-0.117782
-0.123751
-0.12383
-0.129995
-0.130073
-0.136433
-0.136511
-0.143069
-0.143147
-0.149901
-0.14998
-0.156933
-0.157012
-0.164161
-0.16424
-0.171589
-0.171667
-0.179213
-0.179291
-0.187036
-0.187114
-0.195053
-0.195132
-0.203267
-0.203345
-0.211674
-0.211753
-0.220272
-0.220351
-0.22906
-0.229139
-0.238036
-0.238115
-0.247198
-0.247276
-0.256541
-0.25662
-0.266063
-0.266142
-0.275758
-0.275837
-0.285626
-0.285705
-0.29566
-0.295739
-0.305858
-0.305937
-0.316211
-0.31629
-0.326718
-0.326797
-0.337373
-0.337452
-0.348167
-0.348246
-0.359099
-0.359178
-0.370158
-0.370237
-0.381342
-0.381421
-0.392643
-0.392722
-0.404052
-0.404131
-0.415563
-0.415642
-0.42717
-0.427249
-0.438864
-0.438943
-0.450639
-0.450718
-0.462485
-0.462564
-0.474396
-0.474475
-0.486363
-0.486442
-0.498378
-0.498457
-0.510431
-0.51051
-0.522519
-0.522598
-0.534626
-0.534705
-0.546752
-0.546831
-0.55888
-0.558959
-0.571009
-0.571088
-0.583125
-0.583204
-0.595225
-0.595304
-0.607295
-0.607374
-0.61933
-0.619409
-0.631321
-0.6314
-0.643261
-0.64334
-0.655141
-0.655219
-0.666953
-0.667033
-0.678689
-0.678768
-0.690345
-0.690424
-0.701906
-0.701985
-0.713374
-0.713454
-0.724733
-0.724812
-0.735984
-0.736063
-0.747111
-0.74719
-0.75812
-0.758199
-0.768989
-0.769068
-0.779726
-0.779806
-0.790312
-0.79039
-0.800755
-0.800835
-0.811033
-0.811111
-0.821158
-0.821238
-0.831105
-0.831183
-0.84089
-0.84097
-0.850485
-0.850563
-0.859912
-0.859993
-0.869138
-0.869215
-0.878189
-0.87827
-0.887027
-0.887104
-0.895688
-0.89577
-0.904126
-0.904203
-0.912385
-0.912468
-0.920411
-0.920487
-0.928258
-0.928342
-0.935863
-0.935937
-0.943289
-0.943375
-0.950465
-0.950537
-0.957464
-0.957551
-0.964203
-0.964274
-0.970772
-0.970861
-0.97707
-0.977138
-0.983205
-0.983297
-0.989059
-0.989124
-0.994758
-0.994854
-1.00017
-1.00023
-1.00543
-1.00553
-1.01039
-1.01045
-1.01523
-1.01534
-1.01975
-1.01979
-1.02415
-1.02427
-1.02823
-1.02826
-1.03221
-1.03233
-1.03584
-1.03587
-1.03941
-1.03955
-1.04261
-1.04262
-1.04576
-1.04593
-1.04854
-1.04853
-1.05129
-1.05148
-1.05365
-1.05361
-1.05601
-1.05623
-1.05797
-1.05789
-1.05995
-1.06022
-1.06153
-1.06139
-1.06314
-1.06347
-1.06435
-1.06416
-1.0656
-1.06601
-1.06648
-1.06653
-1.06737
-1.06789
-1.06794
-1.06823
-1.06849
-1.06911
-1.06876
-1.06929
-1.06897
-1.06972
-1.06897
-1.06974
-1.06885
-1.06938
-1.06858
-1.06924
-1.06815
-1.06846
-1.06762
-1.06817
-1.06688
-1.06699
-1.06611
-1.06657
-1.06509
-1.06501
-1.06408
-1.06446
-1.0628
-1.0627
-1.06156
-1.06188
-1.06003
-1.05999
-1.05857
-1.05884
-1.05681
-1.05681
-1.05513
-1.05537
-1.05316
-1.05319
-1.05126
-1.05148
-1.04909
-1.04915
-1.04699
-1.04718
-1.04463
-1.0447
-1.04232
-1.0425
-1.03978
-1.03987
-1.03728
-1.03745
-1.03457
-1.03467
-1.03189
-1.03205
-1.02901
-1.02912
-1.02616
-1.02631
-1.02312
-1.02324
-1.0201
-1.02025
-1.01691
-1.01703
-1.01372
-1.01387
-1.01036
-1.01049
-1.007
-1.00715
-1.00348
-1.00361
-0.999934
-1.00008
-0.996234
-0.996366
-0.992502
-0.992645
-0.988626
-0.98876
-0.984715
-0.984857
-0.980675
-0.980811
-0.976596
-0.976738
-0.972397
-0.972536
-0.968151
-0.968294
-0.963788
-0.963928
-0.959368
-0.959511
-0.954832
-0.954973
-0.950232
-0.950377
-0.945522
-0.945665
-0.940742
-0.940887
-0.935852
-0.935996
-0.930884
-0.93103
-0.925814
-0.925959
-0.920664
-0.920811
-0.915424
-0.91557
-0.910105
-0.910253
-0.904703
-0.90485
-0.899217
-0.899366
-0.893655
-0.893803
-0.888003
-0.888153
-0.882278
-0.882427
-0.876454
-0.876604
-0.870557
-0.870707
-0.864554
-0.864705
-0.858487
-0.858637
-0.852309
-0.852459
-0.846077
-0.846227
-0.839733
-0.839883
-0.833354
-0.833504
-0.826867
-0.827017
-0.820365
-0.820516
-0.813747
-0.813899
-0.807121
-0.807272
-0.800351
-0.800503
-0.793567
-0.79372
-0.786613
-0.786766
-0.779644
-0.779798
-0.772484
-0.772639
-0.765336
-0.765492
-0.757995
-0.758152
-0.750707
-0.750865
-0.743222
-0.743382
-0.735822
-0.735983
-0.72819
-0.728352
-0.720658
-0.720823
-0.712857
-0.713023
-0.705194
-0.705362
-0.69723
-0.697401
-0.689446
-0.689619
-0.681317
-0.681493
-0.673411
-0.673591
-0.665106
-0.66529
-0.657075
-0.657263
-0.648586
-0.648778
-0.640446
-0.640644
-0.631797
-0.632
-0.623588
-0.623799
-0.614809
-0.615026
-0.606583
-0.60681
-0.597719
-0.597953
-0.589537
-0.589784
-0.580632
-0.580887
-0.572553
-0.572825
-0.563643
-0.563922
-0.555714
-0.556017
-0.546829
-0.547136
-0.539103
-0.539442
-0.530249
-0.530588
-0.522728
-0.523112
-0.513888
-0.514261
-0.506619
-0.507059
-0.497848
-0.498256
-0.490936
-0.491449
-0.482357
-0.482798
-0.475976
-0.476585
-0.467732
-0.468195
-0.461987
-0.462726
-0.454124
-0.454585
-0.449018
-0.44994
-0.441572
-0.441986
-0.437137
-0.438322
-0.430254
-0.430541
-0.42655
-0.427981
-0.420434
-0.420469
-0.417462
-0.418329
-0.412331
-0.411985
-0.410083
-0.410306
-0.406143
-0.405301
-0.404628
-0.404122
-0.402044
-0.399878
-0.401255
-0.399258
-0.400322
-0.397365
-0.397365
-0.400321
-0.399257
-0.401259
-0.399877
-0.402045
-0.404162
-0.404633
-0.405334
-0.406143
-0.410335
-0.410084
-0.412016
-0.412334
-0.418355
-0.417463
-0.420497
-0.420437
-0.428011
-0.426555
-0.43057
-0.430261
-0.438344
-0.437143
-0.442012
-0.441579
-0.449963
-0.449026
-0.454611
-0.454134
-0.462746
-0.461994
-0.468216
-0.46774
-0.476605
-0.475984
-0.482818
-0.482365
-0.49147
-0.490947
-0.498277
-0.497858
-0.507078
-0.506629
-0.514281
-0.513899
-0.523129
-0.522736
-0.530605
-0.530258
-0.539463
-0.539116
-0.547153
-0.546838
-0.556037
-0.555727
-0.563941
-0.563655
-0.572839
-0.572561
-0.580907
-0.580646
-0.589802
-0.589549
-0.597975
-0.597736
-0.606827
-0.606595
-0.615049
-0.614827
-0.623814
-0.623599
-0.632015
-0.631808
-0.640661
-0.640459
-0.648792
-0.648596
-0.657282
-0.65709
-0.665306
-0.665118
-0.673609
-0.673425
-0.68151
-0.68133
-0.689638
-0.68946
-0.697416
-0.697241
-0.705381
-0.705209
-0.713038
-0.712868
-0.720838
-0.72067
-0.728367
-0.728201
-0.736
-0.735835
-0.743395
-0.743232
-0.750886
-0.750724
-0.758169
-0.758008
-0.765505
-0.765345
-0.772657
-0.772498
-0.779815
-0.779657
-0.786786
-0.786629
-0.793736
-0.79358
-0.800518
-0.800362
-0.807285
-0.80713
-0.813921
-0.813766
-0.820533
-0.820379
-0.827038
-0.826884
-0.833522
-0.833368
-0.839904
-0.83975
-0.846242
-0.846088
-0.852471
-0.852317
-0.858657
-0.858504
-0.864722
-0.864568
-0.87073
-0.870576
-0.876619
-0.876465
-0.88244
-0.882287
-0.888169
-0.888016
-0.893816
-0.893664
-0.899379
-0.899227
-0.904865
-0.904714
-0.910271
-0.91012
-0.915591
-0.915442
-0.920834
-0.920684
-0.92598
-0.925832
-0.931048
-0.930899
-0.936015
-0.935868
-0.940903
-0.940754
-0.945681
-0.945535
-0.950397
-0.950249
-0.954988
-0.954843
-0.959524
-0.959377
-0.963948
-0.963804
-0.968312
-0.968166
-0.972547
-0.972406
-0.976755
-0.976609
-0.980827
-0.980687
-0.984871
-0.984725
-0.988775
-0.988637
-0.992667
-0.992521
-0.996388
-0.996252
-1.00009
-0.999947
-1.00363
-1.0035
-1.00716
-1.00702
-1.01051
-1.01038
-1.01388
-1.01373
-1.01705
-1.01692
-1.02027
-1.02012
-1.02326
-1.02314
-1.02634
-1.02618
-1.02914
-1.02902
-1.03206
-1.0319
-1.03469
-1.03458
-1.03747
-1.0373
-1.03988
-1.03979
-1.04252
-1.04233
-1.04472
-1.04464
-1.04719
-1.047
-1.04917
-1.04911
-1.05149
-1.05128
-1.05321
-1.05317
-1.05538
-1.05514
-1.05683
-1.05683
-1.05886
-1.05858
-1.06001
-1.06004
-1.0619
-1.06157
-1.06272
-1.06281
-1.06448
-1.06409
-1.06503
-1.0651
-1.06659
-1.06613
-1.06701
-1.0669
-1.06819
-1.06763
-1.06848
-1.06816
-1.06926
-1.0686
-1.0694
-1.06886
-1.06976
-1.06898
-1.06974
-1.06899
-1.06931
-1.06878
-1.06913
-1.0685
-1.06825
-1.06795
-1.06791
-1.06739
-1.06655
-1.0665
-1.06603
-1.06561
-1.06418
-1.06437
-1.06349
-1.06315
-1.06141
-1.06155
-1.06023
-1.05996
-1.05791
-1.05799
-1.05626
-1.05603
-1.05362
-1.05367
-1.05149
-1.0513
-1.04854
-1.04855
-1.04595
-1.04578
-1.04264
-1.04263
-1.03957
-1.03942
-1.03589
-1.03587
-1.03236
-1.03223
-1.02827
-1.02823
-1.02428
-1.02416
-1.0198
-1.01975
-1.01536
-1.01525
-1.01046
-1.0104
-1.00554
-1.00544
-1.00024
-1.00017
-0.99486
-0.994761
-0.989157
-0.989089
-0.98332
-0.983225
-0.977143
-0.977072
-0.970897
-0.970805
-0.96429
-0.964216
-0.957554
-0.957463
-0.950576
-0.9505
-0.943409
-0.94332
-0.935966
-0.935889
-0.928383
-0.928296
-0.92048
-0.920401
-0.912498
-0.912412
-0.904209
-0.904129
-0.895782
-0.895696
-0.887127
-0.887047
-0.878269
-0.878184
-0.869196
-0.869115
-0.860004
-0.85992
-0.850617
-0.850536
-0.840952
-0.840868
-0.831192
-0.83111
-0.82125
-0.821166
-0.811146
-0.811065
-0.800868
-0.800785
-0.790451
-0.790369
-0.779869
-0.779786
-0.76906
-0.768978
-0.758206
-0.758123
-0.747257
-0.747176
-0.736053
-0.735971
-0.724775
-0.724693
-0.713491
-0.713409
-0.702039
-0.701957
-0.690475
-0.690393
-0.678758
-0.678676
-0.667079
-0.666996
-0.655266
-0.655184
-0.643379
-0.643297
-0.631374
-0.631292
-0.61946
-0.619378
-0.607448
-0.607366
-0.595257
-0.595175
-0.583286
-0.583204
-0.571158
-0.571075
-0.558965
-0.558883
-0.546787
-0.546705
-0.53473
-0.534648
-0.522544
-0.522462
-0.51051
-0.510428
-0.498527
-0.498445
-0.486388
-0.486306
-0.474487
-0.474404
-0.462625
-0.462542
-0.450673
-0.45059
-0.438959
-0.438877
-0.427349
-0.427267
-0.415646
-0.415564
-0.404062
-0.40398
-0.392769
-0.392687
-0.381429
-0.381347
-0.370222
-0.37014
-0.359161
-0.359079
-0.34826
-0.348178
-0.337515
-0.337433
-0.326768
-0.326686
-0.316373
-0.316291
-0.305993
-0.305911
-0.295795
-0.295713
-0.28581
-0.285728
-0.275838
-0.275756
-0.266091
-0.266009
-0.256552
-0.25647
-0.247252
-0.24717
-0.238167
-0.238085
-0.229152
-0.22907
-0.22036
-0.220278
-0.211826
-0.211744
-0.203345
-0.203263
-0.195132
-0.19505
-0.187151
-0.187069
-0.179274
-0.179192
-0.17163
-0.171548
-0.164269
-0.164187
-0.156973
-0.156891
-0.149967
-0.149885
-0.143186
-0.143104
-0.136543
-0.136461
-0.130117
-0.130035
-0.123842
-0.12376
-0.117777
-0.117695
-0.112019
-0.111937
-0.106312
-0.10623
-0.100779
-0.100697
-0.0955715
-0.0954895
-0.0904066
-0.0903246
-0.085552
-0.08547
-0.0807472
-0.0806652
-0.0762461
-0.0761641
-0.0717913
-0.0717093
-0.0676417
-0.0675597
-0.0636425
-0.0635606
-0.0597215
-0.0596395
-0.0560467
-0.0559647
-0.0524647
-0.0523827
-0.0491068
-0.0490249
-0.0458496
-0.0457677
-0.0427991
-0.0427172
-0.0398517
-0.0397697
-0.0370066
-0.0369247
-0.034358
-0.0342761
-0.0318865
-0.0318046
-0.0295185
-0.0294366
-0.0272352
-0.0271533
-0.025061
-0.0249791
-0.0231102
-0.0230282
-0.0211905
-0.0211086
-0.019414
-0.0193321
-0.0177317
-0.0176498
-0.0161865
-0.0161045
-0.0147218
-0.0146399
-0.0133384
-0.0132564
-0.0120756
-0.0119937
-0.0108948
-0.0108128
-0.00981571
-0.00973378
-0.00877658
-0.00869466
-0.00786675
-0.00778482
-0.00699616
-0.00691424
-0.00620579
-0.00612387
-0.00548573
-0.00540381
-0.00483696
-0.00475504
-0.00424809
-0.00416617
-0.00369863
-0.00361671
-0.00320379
-0.00312187
-0.00276758
-0.00268566
-0.00237653
-0.00229461
-0.00202009
-0.00193817
-0.00171803
-0.00163611
-0.00144533
-0.00136341
-0.00120564
-0.00112372
-0.00100238
-0.000920461
-0.000825947
-0.000744031
-0.000670606
-0.00058869
-0.00053861
-0.000456691
-0.000430363
-0.000348446
-0.00034002
-0.000258106
-0.000263508
-0.000181593
-0.00020165
-0.000119732
-0.000153525
-7.16093e-05
-0.000115759
-3.38458e-05
-8.58219e-05
-3.9077e-06
-6.35754e-05
1.83402e-05
-4.78311e-05
3.40836e-05
-3.68194e-05
4.50939e-05
-2.92081e-05
5.27057e-05
-2.44817e-05
5.74325e-05
-2.18144e-05
6.01003e-05
-2.0454e-05
6.14597e-05
-1.9857e-05
6.20594e-05
-1.96523e-05
6.22734e-05
-1.96065e-05
6.2332e-05
-0.400321
-0.397365
-0.401259
-0.399257
-0.402045
-0.399878
-0.404633
-0.404162
-0.406143
-0.405334
-0.410084
-0.410335
-0.412334
-0.412016
-0.417463
-0.418355
-0.420437
-0.420497
-0.426555
-0.428011
-0.430261
-0.43057
-0.437143
-0.438344
-0.441579
-0.442012
-0.449026
-0.449963
-0.454134
-0.454611
-0.461994
-0.462746
-0.46774
-0.468216
-0.475984
-0.476605
-0.482365
-0.482818
-0.490947
-0.49147
-0.497858
-0.498277
-0.506629
-0.507078
-0.513899
-0.514281
-0.522736
-0.523129
-0.530258
-0.530605
-0.539116
-0.539463
-0.546838
-0.547153
-0.555727
-0.556037
-0.563655
-0.563941
-0.572561
-0.572839
-0.580646
-0.580907
-0.589549
-0.589802
-0.597736
-0.597975
-0.606595
-0.606827
-0.614827
-0.615049
-0.623599
-0.623814
-0.631808
-0.632015
-0.640459
-0.640661
-0.648596
-0.648792
-0.65709
-0.657282
-0.665118
-0.665306
-0.673425
-0.673609
-0.68133
-0.68151
-0.68946
-0.689638
-0.697241
-0.697416
-0.705209
-0.705381
-0.712868
-0.713038
-0.72067
-0.720838
-0.728201
-0.728367
-0.735835
-0.736
-0.743232
-0.743395
-0.750724
-0.750886
-0.758008
-0.758169
-0.765345
-0.765505
-0.772498
-0.772657
-0.779657
-0.779815
-0.786629
-0.786786
-0.79358
-0.793736
-0.800362
-0.800518
-0.80713
-0.807285
-0.813766
-0.813921
-0.820379
-0.820533
-0.826884
-0.827038
-0.833368
-0.833522
-0.83975
-0.839904
-0.846088
-0.846242
-0.852317
-0.852471
-0.858504
-0.858657
-0.864568
-0.864722
-0.870576
-0.87073
-0.876465
-0.876619
-0.882287
-0.88244
-0.888016
-0.888169
-0.893664
-0.893816
-0.899227
-0.899379
-0.904714
-0.904865
-0.91012
-0.910271
-0.915442
-0.915591
-0.920684
-0.920834
-0.925832
-0.92598
-0.930899
-0.931048
-0.935868
-0.936015
-0.940754
-0.940902
-0.945535
-0.945681
-0.950249
-0.950397
-0.954843
-0.954988
-0.959377
-0.959524
-0.963804
-0.963948
-0.968166
-0.968312
-0.972406
-0.972547
-0.976609
-0.976755
-0.980687
-0.980827
-0.984725
-0.984871
-0.988637
-0.988775
-0.992521
-0.992667
-0.996252
-0.996387
-0.999947
-1.00009
-1.0035
-1.00363
-1.00702
-1.00716
-1.01038
-1.01051
-1.01373
-1.01388
-1.01692
-1.01705
-1.02012
-1.02027
-1.02314
-1.02326
-1.02618
-1.02634
-1.02902
-1.02914
-1.0319
-1.03206
-1.03458
-1.03469
-1.0373
-1.03747
-1.03979
-1.03988
-1.04233
-1.04252
-1.04464
-1.04472
-1.047
-1.04719
-1.04911
-1.04917
-1.05128
-1.05149
-1.05317
-1.05321
-1.05514
-1.05538
-1.05683
-1.05683
-1.05858
-1.05886
-1.06004
-1.06001
-1.06157
-1.0619
-1.06281
-1.06272
-1.06409
-1.06448
-1.0651
-1.06503
-1.06613
-1.06659
-1.0669
-1.06701
-1.06763
-1.06819
-1.06816
-1.06848
-1.0686
-1.06925
-1.06886
-1.0694
-1.06898
-1.06976
-1.06899
-1.06974
-1.06878
-1.06931
-1.0685
-1.06913
-1.06795
-1.06825
-1.06739
-1.06791
-1.0665
-1.06655
-1.06561
-1.06603
-1.06437
-1.06418
-1.06315
-1.06349
-1.06155
-1.06141
-1.05996
-1.06023
-1.05799
-1.05791
-1.05603
-1.05626
-1.05367
-1.05362
-1.0513
-1.05149
-1.04855
-1.04854
-1.04578
-1.04595
-1.04263
-1.04264
-1.03942
-1.03957
-1.03587
-1.03589
-1.03223
-1.03236
-1.02823
-1.02827
-1.02416
-1.02428
-1.01975
-1.0198
-1.01525
-1.01536
-1.0104
-1.01046
-1.00544
-1.00554
-1.00017
-1.00024
-0.994761
-0.99486
-0.989089
-0.989157
-0.983225
-0.98332
-0.977072
-0.977143
-0.970805
-0.970897
-0.964216
-0.96429
-0.957464
-0.957554
-0.9505
-0.950575
-0.94332
-0.943409
-0.935889
-0.935966
-0.928296
-0.928383
-0.920401
-0.92048
-0.912412
-0.912498
-0.90413
-0.904209
-0.895696
-0.895781
-0.887047
-0.887127
-0.878185
-0.878269
-0.869115
-0.869196
-0.85992
-0.860004
-0.850536
-0.850617
-0.840868
-0.840951
-0.83111
-0.831192
-0.821166
-0.821249
-0.811065
-0.811146
-0.800785
-0.800868
-0.790369
-0.790451
-0.779786
-0.779868
-0.768978
-0.76906
-0.758123
-0.758205
-0.747176
-0.747257
-0.735971
-0.736053
-0.724693
-0.724775
-0.713409
-0.713491
-0.701958
-0.702039
-0.690393
-0.690475
-0.678676
-0.678758
-0.666996
-0.667079
-0.655184
-0.655266
-0.643297
-0.643379
-0.631292
-0.631374
-0.619378
-0.61946
-0.607366
-0.607448
-0.595175
-0.595257
-0.583204
-0.583286
-0.571075
-0.571157
-0.558883
-0.558965
-0.546705
-0.546787
-0.534648
-0.53473
-0.522462
-0.522544
-0.510428
-0.51051
-0.498445
-0.498527
-0.486306
-0.486388
-0.474405
-0.474486
-0.462542
-0.462624
-0.450591
-0.450672
-0.438877
-0.438959
-0.427267
-0.427349
-0.415564
-0.415646
-0.40398
-0.404062
-0.392687
-0.392769
-0.381347
-0.381428
-0.37014
-0.370222
-0.359079
-0.359161
-0.348178
-0.34826
-0.337433
-0.337515
-0.326686
-0.326768
-0.316291
-0.316373
-0.305911
-0.305993
-0.295713
-0.295795
-0.285728
-0.28581
-0.275756
-0.275837
-0.266009
-0.266091
-0.25647
-0.256552
-0.24717
-0.247252
-0.238085
-0.238167
-0.22907
-0.229152
-0.220278
-0.22036
-0.211744
-0.211826
-0.203263
-0.203345
-0.19505
-0.195132
-0.187069
-0.187151
-0.179192
-0.179274
-0.171548
-0.17163
-0.164187
-0.164269
-0.156891
-0.156973
-0.149886
-0.149967
-0.143104
-0.143186
-0.136461
-0.136543
-0.130035
-0.130117
-0.12376
-0.123842
-0.117695
-0.117776
-0.111937
-0.112019
-0.106231
-0.106312
-0.100697
-0.100779
-0.0954897
-0.0955713
-0.0903248
-0.0904064
-0.0854702
-0.0855518
-0.0806654
-0.080747
-0.0761643
-0.0762459
-0.0717095
-0.071791
-0.0675599
-0.0676414
-0.0635607
-0.0636423
-0.0596397
-0.0597212
-0.0559649
-0.0560464
-0.0523829
-0.0524644
-0.049025
-0.0491066
-0.0457678
-0.0458494
-0.0427173
-0.0427989
-0.0397699
-0.0398514
-0.0369248
-0.0370064
-0.0342762
-0.0343578
-0.0318048
-0.0318863
-0.0294367
-0.0295183
-0.0271534
-0.027235
-0.0249792
-0.0250608
-0.0230284
-0.0231099
-0.0211088
-0.0211903
-0.0193322
-0.0194138
-0.01765
-0.0177315
-0.0161047
-0.0161862
-0.0146401
-0.0147216
-0.0132566
-0.0133381
-0.0119939
-0.0120754
-0.010813
-0.0108945
-0.00973396
-0.00981546
-0.00869484
-0.00877634
-0.00778501
-0.00786651
-0.00691442
-0.00699592
-0.00612406
-0.00620555
-0.005404
-0.00548549
-0.00475523
-0.00483671
-0.00416636
-0.00424784
-0.00361691
-0.00369839
-0.00312207
-0.00320355
-0.00268586
-0.00276733
-0.00229481
-0.00237628
-0.00193837
-0.00201984
-0.00163631
-0.00171778
-0.00136362
-0.00144508
-0.00112392
-0.00120539
-0.000920665
-0.00100213
-0.000744236
-0.000825697
-0.000588895
-0.000670356
-0.000456898
-0.00053836
-0.000348653
-0.000430112
-0.000258314
-0.00033977
-0.000181801
-0.000263257
-0.000119941
-0.000201399
-7.18186e-05
-0.000153274
-3.40555e-05
-0.000115508
-4.11777e-06
-8.55708e-05
1.81299e-05
-6.33242e-05
3.38731e-05
-4.75799e-05
4.48832e-05
-3.65681e-05
5.24949e-05
-2.89568e-05
5.72216e-05
-2.42303e-05
5.98893e-05
-2.1563e-05
6.12487e-05
-2.02026e-05
6.18484e-05
-1.96056e-05
6.20624e-05
-1.94009e-05
6.2121e-05
-1.93551e-05
)
;

boundaryField
{
    walls
    {
        type            zeroGradient;
    }
    inlet
    {
        type            cyclic;
    }
    outlet
    {
        type            cyclic;
    }
    sides
    {
        type            empty;
    }
}


// ************************************************************************* //
