/*--------------------------------*- C++ -*----------------------------------*\
| =========                 |                                                 |
| \\      /  F ield         | OpenFOAM: The Open Source CFD Toolbox           |
|  \\    /   O peration     | Version:  2012                                  |
|   \\  /    A nd           | Website:  www.openfoam.com                      |
|    \\/     M anipulation  |                                                 |
\*---------------------------------------------------------------------------*/
FoamFile
{
    version     2.0;
    format      ascii;
    class       volVectorField;
    location    "16800";
    object      U;
}
// * * * * * * * * * * * * * * * * * * * * * * * * * * * * * * * * * * * * * //

dimensions      [0 1 -1 0 0 0 0];


internalField   nonuniform List<vector> 
2560
(
(0.110694 9.22297e-09 -3.72413e-08)
(0.110694 -2.55227e-09 4.51201e-22)
(0.333487 2.08779e-08 -4.99317e-08)
(0.333487 8.82572e-09 -1.57927e-10)
(0.559306 1.19514e-08 -3.68043e-08)
(0.559306 8.24276e-09 -4.32407e-10)
(0.788182 -1.99962e-09 -1.96719e-08)
(0.788182 -6.41867e-09 -6.69575e-10)
(1.02014 -2.98059e-09 -1.01232e-08)
(1.02014 -8.66683e-09 -8.46382e-10)
(1.25522 2.62422e-10 -5.68153e-09)
(1.25522 -5.55453e-09 -1.01989e-09)
(1.49345 1.62734e-09 -3.31981e-09)
(1.49345 -4.48991e-09 -1.22062e-09)
(1.73488 2.82845e-09 -1.77142e-09)
(1.73488 -3.42598e-09 -1.46577e-09)
(1.97957 2.96822e-09 -5.39369e-10)
(1.97957 -3.43798e-09 -6.7498e-11)
(2.22756 3.69429e-09 5.97989e-10)
(2.22756 -2.80588e-09 9.9151e-10)
(2.47893 3.7032e-09 1.75666e-09)
(2.47893 -2.90792e-09 2.09519e-09)
(2.73374 3.94057e-09 3.0104e-09)
(2.73374 -2.74205e-09 3.30833e-09)
(2.99207 4.12003e-09 4.41139e-09)
(2.99207 -2.6482e-09 4.67854e-09)
(3.254 4.16685e-09 4.96642e-09)
(3.254 -2.66351e-09 6.24711e-09)
(3.51959 4.31312e-09 5.64581e-09)
(3.51959 -2.58727e-09 5.53124e-09)
(3.78893 4.27386e-09 6.39322e-09)
(3.78893 -2.6836e-09 6.39122e-09)
(4.0621 4.44115e-09 7.21546e-09)
(4.0621 -2.57681e-09 7.21281e-09)
(4.33917 4.50412e-09 8.11603e-09)
(4.33917 -2.56629e-09 8.114e-09)
(4.62022 4.39393e-09 9.10027e-09)
(4.62022 -2.73146e-09 9.09758e-09)
(4.9053 4.52631e-09 1.01695e-08)
(4.9053 -2.64878e-09 1.01674e-08)
(5.19448 4.62884e-09 1.13343e-08)
(5.19448 -2.59715e-09 1.13316e-08)
(5.48781 4.63008e-09 1.25983e-08)
(5.48781 -2.64372e-09 1.25962e-08)
(5.78533 4.33752e-09 1.39648e-08)
(5.78533 -2.98426e-09 1.3962e-08)
(6.08706 4.84736e-09 1.54396e-08)
(6.08706 -2.521e-09 1.54375e-08)
(6.39302 4.60608e-09 1.70362e-08)
(6.39302 -2.80909e-09 1.70333e-08)
(6.70321 4.69227e-09 1.87553e-08)
(6.70321 -2.76835e-09 1.87531e-08)
(7.01759 4.3064e-09 2.06017e-08)
(7.01759 -3.19984e-09 2.05988e-08)
(7.33613 5.0558e-09 2.25855e-08)
(7.33613 -2.49556e-09 2.25833e-08)
(7.65877 4.488e-09 2.47208e-08)
(7.65877 -3.10893e-09 2.47178e-08)
(7.98542 4.82115e-09 2.70087e-08)
(7.98542 -2.82081e-09 2.70063e-08)
(8.31596 4.23826e-09 2.94563e-08)
(8.31596 -3.44892e-09 2.94532e-08)
(8.65026 5.14465e-09 3.20753e-08)
(8.65026 -2.58798e-09 3.20729e-08)
(8.98815 4.44879e-09 3.48827e-08)
(8.98815 -3.32968e-09 3.48795e-08)
(9.32943 4.72996e-09 3.78779e-08)
(9.32943 -3.09469e-09 3.78755e-08)
(9.67387 4.35691e-09 4.10732e-08)
(9.67387 -3.51396e-09 4.107e-08)
(10.0212 5.09523e-09 4.44835e-08)
(10.0212 -2.82274e-09 4.4481e-08)
(10.3712 4.43462e-09 4.8126e-08)
(10.3712 -3.53075e-09 4.81227e-08)
(10.7234 4.67219e-09 5.2002e-08)
(10.7234 -3.34179e-09 5.19994e-08)
(11.0776 4.33379e-09 5.6126e-08)
(11.0776 -3.72847e-09 5.61226e-08)
(11.4333 5.02984e-09 6.05156e-08)
(11.4333 -3.08253e-09 6.0513e-08)
(11.7901 4.49686e-09 6.51929e-08)
(11.7901 -3.66561e-09 6.51894e-08)
(12.1476 4.65009e-09 7.01622e-08)
(12.1476 -3.5646e-09 7.01595e-08)
(12.5051 4.10715e-09 7.54349e-08)
(12.5051 -4.15899e-09 7.54313e-08)
(12.8623 5.39083e-09 8.10397e-08)
(12.8623 -2.92986e-09 8.10369e-08)
(13.2186 3.68408e-09 8.69895e-08)
(13.2186 -4.69022e-09 8.69858e-08)
(13.5733 5.54549e-09 9.33018e-08)
(13.5733 -2.88625e-09 9.32989e-08)
(13.9258 3.09029e-09 9.99865e-08)
(13.9258 -5.39705e-09 9.99827e-08)
(14.2756 6.16444e-09 1.07072e-07)
(14.2756 -2.38312e-09 1.07069e-07)
(14.6218 3.88299e-09 1.14603e-07)
(14.6218 -4.72333e-09 1.14599e-07)
(14.9638 3.58678e-09 1.22534e-07)
(14.9638 -5.08265e-09 1.22531e-07)
(15.3009 3.57109e-09 1.3088e-07)
(15.3009 -5.16192e-09 1.30876e-07)
(15.6323 1.00936e-08 1.39814e-07)
(15.6323 1.29603e-09 1.39811e-07)
(15.9573 -4.839e-09 1.49162e-07)
(15.9573 -1.37032e-08 1.49158e-07)
(16.2751 1.28648e-08 1.58999e-07)
(16.2751 3.93043e-09 1.58995e-07)
(16.5849 -6.13083e-10 1.69458e-07)
(16.5849 -9.61665e-09 1.69454e-07)
(16.886 4.43337e-09 1.80339e-07)
(16.886 -4.64863e-09 1.80336e-07)
(17.1774 8.07759e-09 1.91881e-07)
(17.1774 -1.07407e-09 1.91877e-07)
(17.4585 -2.91693e-09 2.03909e-07)
(17.4585 -1.21506e-08 2.03906e-07)
(17.7285 1.0632e-08 2.16496e-07)
(17.7285 1.32125e-09 2.16492e-07)
(17.9865 -1.57048e-09 2.29687e-07)
(17.9865 -1.0969e-08 2.29684e-07)
(18.2319 9.33586e-09 2.43452e-07)
(18.2319 -1.43335e-10 2.43447e-07)
(18.4638 -9.13151e-10 2.57809e-07)
(18.4638 -1.0484e-08 2.57805e-07)
(18.6816 2.70932e-09 2.72566e-07)
(18.6816 -6.9526e-09 2.72562e-07)
(18.8847 7.75719e-09 2.87951e-07)
(18.8847 -1.9981e-09 2.87947e-07)
(19.0723 1.5128e-09 3.03926e-07)
(19.0723 -8.33854e-09 3.03921e-07)
(19.2438 -2.97346e-09 3.20149e-07)
(19.2438 -1.29317e-08 3.20146e-07)
(19.3988 1.45114e-08 3.36976e-07)
(19.3988 4.46165e-09 3.36971e-07)
(19.5367 -1.47262e-08 3.54029e-07)
(19.5367 -2.48977e-08 3.54025e-07)
(19.6571 2.64061e-08 3.71627e-07)
(19.6571 1.61408e-08 3.71622e-07)
(19.7597 -2.86685e-08 3.8932e-07)
(19.7597 -3.90638e-08 3.89316e-07)
(19.8441 3.43363e-08 4.07293e-07)
(19.8441 2.38438e-08 4.07288e-07)
(19.91 -2.93584e-08 4.25514e-07)
(19.91 -3.99932e-08 4.2551e-07)
(19.9575 2.86053e-08 4.43741e-07)
(19.9575 1.78733e-08 4.43735e-07)
(19.9863 -2.20638e-08 4.62201e-07)
(19.9863 -3.2952e-08 4.62196e-07)
(19.9966 2.10633e-08 4.80606e-07)
(19.9966 1.00802e-08 4.80601e-07)
(19.9883 -1.60183e-08 4.99157e-07)
(19.9883 -2.71743e-08 4.99153e-07)
(19.9618 1.10668e-08 5.17492e-07)
(19.9618 -1.78627e-10 5.17486e-07)
(19.9172 -3.43017e-09 5.3605e-07)
(19.9172 -1.48687e-08 5.36045e-07)
(19.8549 -2.1484e-09 5.54378e-07)
(19.8549 -1.36705e-08 5.54372e-07)
(19.7753 9.13194e-09 5.72934e-07)
(19.7753 -2.60352e-09 5.72929e-07)
(19.6789 -1.57751e-08 5.91262e-07)
(19.6789 -2.75798e-08 5.91256e-07)
(19.5663 1.96563e-08 6.09754e-07)
(19.5663 7.60334e-09 6.09749e-07)
(19.4381 -2.02342e-08 6.28309e-07)
(19.4381 -3.23304e-08 6.28302e-07)
(19.295 1.69029e-08 6.4683e-07)
(19.295 4.51378e-09 6.46824e-07)
(19.1378 -1.46345e-08 6.65597e-07)
(19.1378 -2.70315e-08 6.6559e-07)
(18.9671 1.53573e-08 6.84572e-07)
(18.9671 2.61174e-09 6.84567e-07)
(18.7839 -1.72042e-08 7.03721e-07)
(18.7839 -2.99081e-08 7.03714e-07)
(18.5889 1.76468e-08 7.23147e-07)
(18.5889 4.51996e-09 7.23142e-07)
(18.383 -1.96681e-08 7.42818e-07)
(18.383 -3.26855e-08 7.42811e-07)
(18.1671 1.75939e-08 7.62732e-07)
(18.1671 4.05912e-09 7.62726e-07)
(17.9421 -1.35059e-08 7.83212e-07)
(17.9421 -2.68417e-08 7.83205e-07)
(17.7089 1.11845e-08 8.03994e-07)
(17.7089 -2.79223e-09 8.03987e-07)
(17.4683 -1.00409e-08 8.25273e-07)
(17.4683 -2.36954e-08 8.25266e-07)
(17.2211 4.81715e-09 8.46771e-07)
(17.2211 -9.63952e-09 8.46764e-07)
(16.9683 2.41298e-09 8.6907e-07)
(16.9683 -1.15622e-08 8.69063e-07)
(16.7107 -4.25861e-09 8.91781e-07)
(16.7107 -1.92404e-08 8.91774e-07)
(16.4489 -1.06775e-09 9.14748e-07)
(16.4489 -1.53553e-08 9.14741e-07)
(16.1839 9.28202e-09 9.38594e-07)
(16.1839 -6.28736e-09 9.38587e-07)
(15.9163 -1.55118e-08 9.6267e-07)
(15.9163 -3.00947e-08 9.62662e-07)
(15.6468 2.16478e-08 9.87527e-07)
(15.6468 5.42049e-09 9.87519e-07)
(15.3761 -2.10321e-08 1.01294e-06)
(15.3761 -3.58888e-08 1.01293e-06)
(15.1047 1.65429e-08 1.0386e-06)
(15.1047 -4.29962e-10 1.0386e-06)
(14.8332 -1.22578e-08 1.06497e-06)
(14.8332 -2.73534e-08 1.06496e-06)
(14.5622 1.58045e-08 1.09196e-06)
(14.5622 -2.02214e-09 1.09195e-06)
(14.2921 -1.89364e-08 1.11925e-06)
(14.2921 -3.42161e-08 1.11924e-06)
(14.0235 2.59232e-08 1.14729e-06)
(14.0235 7.10591e-09 1.14727e-06)
(13.7565 -2.82314e-08 1.17561e-06)
(13.7565 -4.3618e-08 1.1756e-06)
(13.4918 3.30206e-08 1.20451e-06)
(13.4918 1.30413e-08 1.2045e-06)
(13.2295 -3.01627e-08 1.23391e-06)
(13.2295 -4.5546e-08 1.2339e-06)
(12.9699 3.02104e-08 1.26354e-06)
(12.9699 8.85197e-09 1.26353e-06)
(12.7134 -2.65039e-08 1.29363e-06)
(12.7134 -4.17318e-08 1.29363e-06)
(12.4601 3.61193e-08 1.3244e-06)
(12.4601 1.31066e-08 1.32439e-06)
(12.2102 -4.20554e-08 1.35498e-06)
(12.2102 -5.69164e-08 1.35498e-06)
(11.9639 5.76831e-08 1.38648e-06)
(11.9639 3.26644e-08 1.38646e-06)
(11.7213 -6.49115e-08 1.41759e-06)
(11.7213 -7.9119e-08 1.41759e-06)
(11.4825 8.25529e-08 1.44961e-06)
(11.4825 5.50783e-08 1.44959e-06)
(11.2476 -8.63759e-08 1.48132e-06)
(11.2476 -9.95405e-08 1.48132e-06)
(11.0167 1.0322e-07 1.51374e-06)
(11.0167 7.27094e-08 1.51371e-06)
(10.7898 -1.0865e-07 1.5456e-06)
(10.7898 -1.20247e-07 1.54561e-06)
(10.5669 1.27114e-07 1.57809e-06)
(10.5669 9.28194e-08 1.57806e-06)
(10.3481 -1.24942e-07 1.61034e-06)
(10.3481 -1.34267e-07 1.61035e-06)
(10.1334 1.40505e-07 1.64285e-06)
(10.1334 1.01458e-07 1.64281e-06)
(9.92273 -1.36059e-07 1.67509e-06)
(9.92273 -1.42169e-07 1.67511e-06)
(9.71607 1.53312e-07 1.7075e-06)
(9.71607 1.08253e-07 1.70744e-06)
(9.51342 -1.51364e-07 1.73924e-06)
(9.51342 -1.52996e-07 1.73928e-06)
(9.31472 1.80438e-07 1.77174e-06)
(9.31472 1.27723e-07 1.77167e-06)
(9.11993 -1.89479e-07 1.80259e-06)
(9.11993 -1.84945e-07 1.80265e-06)
(8.92902 2.32963e-07 1.83495e-06)
(8.92902 1.70436e-07 1.83485e-06)
(8.74194 -2.47887e-07 1.86499e-06)
(8.74194 -2.34935e-07 1.86507e-06)
(8.55863 2.93907e-07 1.89644e-06)
(8.55863 2.18756e-07 1.89632e-06)
(8.37904 -3.05667e-07 1.92553e-06)
(8.37904 -2.81315e-07 1.92565e-06)
(8.20312 3.61314e-07 1.95646e-06)
(8.20312 2.69857e-07 1.95629e-06)
(8.03082 -3.84772e-07 1.98384e-06)
(8.03082 -3.45052e-07 1.984e-06)
(7.86209 4.51977e-07 2.01358e-06)
(7.86209 3.39371e-07 2.01336e-06)
(7.69688 -4.77974e-07 2.03925e-06)
(7.69688 -4.17612e-07 2.03948e-06)
(7.53514 5.58926e-07 2.06801e-06)
(7.53514 4.18798e-07 2.06772e-06)
(7.37681 -5.98153e-07 2.09129e-06)
(7.37681 -5.10135e-07 2.09161e-06)
(7.22185 6.96934e-07 2.11868e-06)
(7.22185 5.20873e-07 2.11828e-06)
(7.07021 -7.49785e-07 2.13907e-06)
(7.07021 -6.24782e-07 2.13951e-06)
(6.92183 8.70316e-07 2.16493e-06)
(6.92183 6.47213e-07 2.16439e-06)
(6.77668 -9.37985e-07 2.18213e-06)
(6.77668 -7.63587e-07 2.18274e-06)
(6.6347 1.08492e-06 2.20658e-06)
(6.6347 8.00068e-07 2.20585e-06)
(6.49587 -1.17491e-06 2.21999e-06)
(6.49587 -9.346e-07 2.22081e-06)
(6.36013 1.35287e-06 2.24283e-06)
(6.36013 9.86783e-07 2.24184e-06)
(6.22745 -1.47147e-06 2.2516e-06)
(6.22745 -1.14322e-06 2.25273e-06)
(6.09781 1.69473e-06 2.27334e-06)
(6.09781 1.22152e-06 2.27198e-06)
(5.97117 -1.85444e-06 2.27672e-06)
(5.97117 -1.4089e-06 2.27827e-06)
(5.84749 2.13061e-06 2.29735e-06)
(5.84749 1.51584e-06 2.29551e-06)
(5.72677 -2.33622e-06 2.29477e-06)
(5.72677 -1.73418e-06 2.2969e-06)
(5.60896 2.67388e-06 2.31466e-06)
(5.60896 1.87169e-06 2.31214e-06)
(5.49405 -2.94136e-06 2.30474e-06)
(5.49405 -2.13043e-06 2.30766e-06)
(5.38201 3.35859e-06 2.32437e-06)
(5.38201 2.30776e-06 2.32091e-06)
(5.27282 -3.70509e-06 2.30567e-06)
(5.27282 -2.61514e-06 2.30969e-06)
(5.16646 4.22346e-06 2.32594e-06)
(5.16646 2.84213e-06 2.3212e-06)
(5.0629 -4.67269e-06 2.29667e-06)
(5.0629 -3.20974e-06 2.30219e-06)
(4.96212 5.31815e-06 2.31867e-06)
(4.96212 3.49673e-06 2.31216e-06)
(4.86408 -5.89724e-06 2.27672e-06)
(4.86408 -3.93512e-06 2.28433e-06)
(4.76877 6.69905e-06 2.30176e-06)
(4.76877 4.29045e-06 2.29279e-06)
(4.67612 -7.439e-06 2.24461e-06)
(4.67612 -4.80808e-06 2.25512e-06)
(4.58608 8.43853e-06 2.27514e-06)
(4.58608 5.24504e-06 2.26276e-06)
(4.4986 -9.39267e-06 2.19871e-06)
(4.4986 -5.86447e-06 2.21323e-06)
(4.41359 1.06528e-05 2.23829e-06)
(4.41359 6.40814e-06 2.22117e-06)
(4.33095 -1.18861e-05 2.13794e-06)
(4.33095 -7.15226e-06 2.15803e-06)
(4.25059 1.3474e-05 2.19046e-06)
(4.25059 7.81858e-06 2.16677e-06)
(4.17239 -1.50592e-05 2.0605e-06)
(4.17239 -8.703e-06 2.08836e-06)
(4.09624 1.7068e-05 2.13243e-06)
(4.09624 9.51571e-06 2.09955e-06)
(4.02204 -1.91229e-05 1.9637e-06)
(4.02204 -1.05796e-05 2.00241e-06)
(3.94967 2.1679e-05 2.06274e-06)
(3.94967 1.15707e-05 2.01703e-06)
(3.87905 -2.43208e-05 1.84661e-06)
(3.87905 -1.28238e-05 1.9005e-06)
(3.8101 2.75631e-05 1.98359e-06)
(3.8101 1.40036e-05 1.91991e-06)
(3.74279 -3.09734e-05 1.70526e-06)
(3.74279 -1.548e-05 1.78042e-06)
(3.67707 3.51114e-05 1.89502e-06)
(3.67707 1.68819e-05 1.80612e-06)
(3.61296 -3.95075e-05 1.53767e-06)
(3.61296 -1.8596e-05 1.64273e-06)
(3.55045 4.47862e-05 1.79955e-06)
(3.55045 2.02238e-05 1.67516e-06)
(3.48956 -5.04562e-05 1.33936e-06)
(3.48956 -2.21841e-05 1.48655e-06)
(3.43031 5.72245e-05 1.70208e-06)
(3.43031 2.40544e-05 1.52766e-06)
(3.37269 -6.45658e-05 1.10693e-06)
(3.37269 -2.62725e-05 1.3136e-06)
(3.31672 7.32686e-05 1.60743e-06)
(3.31672 2.83722e-05 1.36226e-06)
(3.26236 -8.27865e-05 8.34433e-07)
(3.26236 -3.08187e-05 1.12531e-06)
(3.20959 9.40124e-05 1.52391e-06)
(3.20959 3.31028e-05 1.17843e-06)
(3.15837 -0.000106398 5.2296e-07)
(3.15837 -3.57271e-05 9.2259e-07)
(3.10865 0.000120668 1.4498e-06)
(3.10865 3.81186e-05 9.73249e-07)
(3.06034 -0.000136531 4.11796e-07)
(3.06034 -4.08056e-05 7.09393e-07)
(3.01338 0.000148255 1.13174e-06)
(3.01338 4.31338e-05 7.42458e-07)
(2.96766 -0.000161725 2.9162e-07)
(2.96766 -4.57293e-05 4.85441e-07)
(2.92312 0.000170794 7.83423e-07)
(2.92312 4.77704e-05 4.85052e-07)
(2.87967 -0.000181635 1.61723e-07)
(2.87967 -5.01442e-05 5.68932e-07)
(2.83726 0.000187926 4.00345e-07)
(2.83726 5.16896e-05 4.97621e-07)
(2.79583 -0.000195849 2.11503e-08)
(2.79583 -5.37336e-05 7.20836e-07)
(2.75536 0.000199228 0)
(2.75536 5.45754e-05 7.69942e-07)
(2.71586 -0.000196216 3.67554e-07)
(2.71586 -5.62126e-05 5.4799e-07)
(2.67735 0.000196841 1.55816e-07)
(2.67735 5.62408e-05 6.95177e-07)
(2.63981 -0.000190281 8.53025e-07)
(2.63981 -5.73918e-05 4.77403e-07)
(2.60326 0.000187469 3.25486e-07)
(2.60326 5.66259e-05 6.17709e-07)
(2.56767 -0.000177352 1.37064e-06)
(2.56767 -5.72642e-05 8.59334e-07)
(2.53301 0.000170923 5.08813e-07)
(2.53301 5.57726e-05 9.23132e-07)
(2.49926 -0.000157276 1.91748e-06)
(2.49926 -5.59129e-05 1.26412e-06)
(2.46636 0.000147077 7.04824e-07)
(2.46636 5.38161e-05 1.28098e-06)
(2.43426 -0.000133753 2.29994e-06)
(2.43426 -5.35538e-05 1.68615e-06)
(2.40287 0.000123721 1.11814e-06)
(2.40287 5.10296e-05 1.67058e-06)
(2.37203 -0.000112398 2.61891e-06)
(2.37203 -5.05308e-05 2.12352e-06)
(2.34158 0.000104281 1.64761e-06)
(2.34158 4.77222e-05 2.09283e-06)
(2.31133 -9.45951e-05 2.98054e-06)
(2.31133 -4.7108e-05 2.58228e-06)
(2.28107 8.8071e-05 2.19071e-06)
(2.28107 4.41105e-05 2.54818e-06)
(2.25059 -7.97265e-05 3.38438e-06)
(2.25059 -4.34803e-05 3.0655e-06)
(2.21969 7.45549e-05 2.75303e-06)
(2.21969 4.03874e-05 3.03896e-06)
(2.18823 -6.73088e-05 3.82808e-06)
(2.18823 -3.98204e-05 3.5738e-06)
(2.15608 6.32716e-05 3.33254e-06)
(2.15608 3.66801e-05 3.56041e-06)
(2.12325 -5.69144e-05 4.3079e-06)
(2.12325 -3.62289e-05 4.10595e-06)
(2.08973 5.38255e-05 3.92857e-06)
(2.08973 3.30655e-05 4.10956e-06)
(2.05556 -4.81902e-05 4.82179e-06)
(2.05556 -3.27765e-05 4.66202e-06)
(2.02072 4.59232e-05 4.5455e-06)
(2.02072 2.96277e-05 4.68882e-06)
(1.98516 -4.08737e-05 5.36894e-06)
(1.98516 -2.95387e-05 5.24302e-06)
(1.94881 3.9321e-05 5.18272e-06)
(1.94881 2.64233e-05 5.29592e-06)
(1.91157 -3.47367e-05 5.94612e-06)
(1.91157 -2.65556e-05 5.84725e-06)
(1.87333 3.37861e-05 5.8366e-06)
(1.87333 2.3457e-05 5.92582e-06)
(1.834 -2.95848e-05 6.55234e-06)
(1.834 -2.38447e-05 6.47499e-06)
(1.7935 2.91648e-05 6.51791e-06)
(1.7935 2.07617e-05 6.58814e-06)
(1.75174 -2.52563e-05 7.20201e-06)
(1.75174 -2.14109e-05 7.1417e-06)
(1.70867 2.53159e-05 7.24187e-06)
(1.70867 1.8342e-05 7.29714e-06)
(1.66431 -2.16155e-05 7.90694e-06)
(1.66431 -1.92486e-05 7.86009e-06)
(1.61878 2.20875e-05 8.01708e-06)
(1.61878 1.616e-05 8.06061e-06)
(1.57229 -1.85268e-05 8.67789e-06)
(1.57229 -1.73242e-05 8.6416e-06)
(1.52508 1.93896e-05 8.8603e-06)
(1.52508 1.42137e-05 8.89468e-06)
(1.47743 -1.58801e-05 9.52594e-06)
(1.47743 -1.5606e-05 9.49793e-06)
(1.42952 1.71361e-05 9.76959e-06)
(1.42951 1.24838e-05 9.79684e-06)
(1.38143 -1.36405e-05 1.04284e-05)
(1.38142 -1.41195e-05 1.04069e-05)
(1.33312 1.52686e-05 1.07149e-05)
(1.33312 1.09627e-05 1.07366e-05)
(1.28443 -1.18153e-05 1.13554e-05)
(1.28442 -1.29185e-05 1.1339e-05)
(1.23516 1.3773e-05 1.16875e-05)
(1.23516 9.6757e-06 1.17049e-05)
(1.18524 -1.03208e-05 1.23293e-05)
(1.18524 -1.19554e-05 1.23168e-05)
(1.1347 1.25932e-05 1.27217e-05)
(1.1347 8.59568e-06 1.27358e-05)
(1.08371 -9.05589e-06 1.33891e-05)
(1.08371 -1.11566e-05 1.33797e-05)
(1.03245 1.16486e-05 1.38462e-05)
(1.03245 7.66341e-06 1.38577e-05)
(0.981084 -7.98282e-06 1.45461e-05)
(0.981083 -1.05054e-05 1.45391e-05)
(0.929764 1.09231e-05 1.50672e-05)
(0.929762 6.87867e-06 1.50767e-05)
(0.878673 -7.13128e-06 1.57939e-05)
(0.878672 -1.00482e-05 1.57888e-05)
(0.82804 1.04006e-05 1.6381e-05)
(0.828039 6.23676e-06 1.6389e-05)
(0.778127 -6.44929e-06 1.71488e-05)
(0.778126 -9.74584e-06 1.71452e-05)
(0.729152 1.01359e-05 1.7813e-05)
(0.729151 5.80063e-06 1.78198e-05)
(0.681169 -5.98629e-06 1.8607e-05)
(0.681168 -9.65807e-06 1.86045e-05)
(0.634047 1.00974e-05 1.93264e-05)
(0.634045 5.5442e-06 1.93322e-05)
(0.587479 -5.75831e-06 2.01271e-05)
(0.587477 -9.80919e-06 2.01255e-05)
(0.541042 1.02498e-05 2.08947e-05)
(0.54104 5.43579e-06 2.08998e-05)
(0.494309 -5.71283e-06 2.17212e-05)
(0.494307 -1.01535e-05 2.17202e-05)
(0.446932 1.06727e-05 2.25668e-05)
(0.44693 5.55697e-06 2.25711e-05)
(0.3986 -5.90654e-06 2.34266e-05)
(0.398597 -1.07535e-05 2.34261e-05)
(0.349086 1.13339e-05 2.43599e-05)
(0.349083 5.87674e-06 2.43637e-05)
(0.298471 -6.32595e-06 2.52759e-05)
(0.298466 -1.16011e-05 2.52756e-05)
(0.247256 1.22815e-05 2.63309e-05)
(0.247251 6.44321e-06 2.63341e-05)
(0.196298 -6.96524e-06 2.73256e-05)
(0.196291 -1.26954e-05 2.73252e-05)
(0.146547 1.35684e-05 2.85115e-05)
(0.146537 7.30869e-06 2.8514e-05)
(0.0988228 -7.97647e-06 2.9552e-05)
(0.0988086 -1.41936e-05 2.95514e-05)
(0.0538256 1.52465e-05 3.08614e-05)
(0.0538049 8.52397e-06 3.08632e-05)
(0.0120213 -9.32177e-06 3.19407e-05)
(0.0119936 -1.60623e-05 3.19397e-05)
(-0.0267034 1.7378e-05 3.3349e-05)
(-0.0267306 1.01479e-05 3.33502e-05)
(-0.0631743 -1.11442e-05 3.43968e-05)
(-0.0631941 -1.84453e-05 3.43963e-05)
(-0.0985423 2.00004e-05 3.58767e-05)
(-0.0985556 1.22166e-05 3.58785e-05)
(-0.133644 -1.35759e-05 3.68837e-05)
(-0.133654 -2.14828e-05 3.6884e-05)
(-0.168446 2.32651e-05 3.85045e-05)
(-0.168453 1.48771e-05 3.85072e-05)
(-0.202159 -1.66799e-05 3.95484e-05)
(-0.202164 -2.52418e-05 3.95499e-05)
(-0.233752 2.73927e-05 4.14385e-05)
(-0.233756 1.83441e-05 4.14422e-05)
(-0.262447 -2.05003e-05 4.25801e-05)
(-0.262451 -2.9772e-05 4.25831e-05)
(-0.287849 3.23632e-05 4.47587e-05)
(-0.287852 2.25909e-05 4.47636e-05)
(-0.309805 -2.50769e-05 4.59739e-05)
(-0.309807 -3.51199e-05 4.59786e-05)
(-0.328627 3.84418e-05 4.84028e-05)
(-0.328629 2.78755e-05 4.84091e-05)
(-0.345082 -3.08479e-05 4.94871e-05)
(-0.345084 -4.17303e-05 4.94935e-05)
(-0.360007 4.57764e-05 5.20356e-05)
(-0.360009 3.43384e-05 5.20435e-05)
(-0.37411 -3.80383e-05 5.28467e-05)
(-0.374112 -4.98349e-05 5.28553e-05)
(-0.38803 5.45184e-05 5.55074e-05)
(-0.388031 4.21233e-05 5.5517e-05)
(-0.402488 -4.68405e-05 5.60849e-05)
(-0.402489 -5.96333e-05 5.60959e-05)
(-0.418324 6.52084e-05 5.90833e-05)
(-0.418326 5.17619e-05 5.90951e-05)
(-0.436315 -5.7388e-05 5.952e-05)
(-0.436317 -7.12671e-05 5.95341e-05)
(-0.457058 7.81138e-05 6.29094e-05)
(-0.45706 6.35111e-05 6.2924e-05)
(-0.480912 -7.0295e-05 6.30286e-05)
(-0.480914 -8.53594e-05 6.30469e-05)
(-0.507905 9.3504e-05 6.67911e-05)
(-0.507908 7.76266e-05 6.68095e-05)
(-0.537993 -8.5857e-05 6.65514e-05)
(-0.537996 -0.000102217 6.65755e-05)
(-0.571249 0.000111938 7.08488e-05)
(-0.571252 9.46482e-05 7.08723e-05)
(-0.607406 -0.000104573 7.02389e-05)
(-0.607409 -0.000122355 7.02709e-05)
(-0.645741 0.000133984 7.52453e-05)
(-0.645744 0.000115118 7.52757e-05)
(-0.685581 -0.000126988 7.42183e-05)
(-0.685585 -0.000146337 7.42612e-05)
(-0.726734 0.000160443 8.00735e-05)
(-0.726738 0.000139795 8.01125e-05)
(-0.76946 -0.000154032 7.83754e-05)
(-0.769464 -0.00017512 7.84331e-05)
(-0.813803 0.000192 8.51246e-05)
(-0.813806 0.000169311 8.51743e-05)
(-0.859019 -0.000186433 8.25817e-05)
(-0.859022 -0.000209461 8.266e-05)
(-0.903722 0.000229796 9.04317e-05)
(-0.903726 0.000204724 9.04943e-05)
(-0.946404 -0.000225411 8.67535e-05)
(-0.946407 -0.000250611 8.68606e-05)
(-0.985994 0.00027512 9.58858e-05)
(-0.985997 0.000247201 9.59618e-05)
(-1.02149 -0.000272341 9.07187e-05)
(-1.02149 -0.000299976 9.0866e-05)
(-1.05112 0.000329662 0.000101398)
(-1.05112 0.000298254 0.000101484)
(-1.07286 -0.000328995 9.42899e-05)
(-1.07286 -0.000359324 9.44942e-05)
(-1.08578 0.000395444 0.000106856)
(-1.08578 0.000359639 0.000106943)
(-1.09093 -0.000397202 9.73233e-05)
(-1.09093 -0.000430424 9.76092e-05)
(-1.09101 0.000474574 0.000112103)
(-1.09101 0.000433065 0.000112166)
(-1.08919 -0.000479606 9.9521e-05)
(-1.08919 -0.000515723 9.99303e-05)
(-1.08776 0.000569988 0.000117298)
(-1.08776 0.000520854 0.000117293)
(-1.08704 -0.000578331 0.000101354)
(-1.08704 -0.000616905 0.000101965)
(-1.08577 0.000684913 0.000122751)
(-1.08577 0.000625217 0.000122598)
(-1.08221 -0.000697343 0.000102106)
(-1.08221 -0.000737035 0.000103059)
(-1.07487 0.000823304 0.0001275)
(-1.07486 0.000748361 0.000127036)
(-1.0628 -0.0008406 0.00010067)
(-1.06279 -0.000878313 0.000102215)
(-1.04587 0.000989953 0.000130604)
(-1.04587 0.000892056 0.000129518)
(-1.0248 -0.00101421 9.57167e-05)
(-1.0248 -0.00104353 9.83031e-05)
(-1.0003 0.00119184 0.000131913)
(-1.0003 0.00105807 0.000129621)
(-0.971852 -0.0012254 8.77541e-05)
(-0.971846 -0.00123385 9.21879e-05)
(-0.938474 0.00143917 0.0001334)
(-0.938466 0.00124757 0.000128848)
(-0.900754 -0.00148503 7.77785e-05)
(-0.900745 -0.00144933 8.55039e-05)
(-0.86056 0.00174605 0.000136287)
(-0.86055 0.00145926 0.000127589)
(-0.820426 -0.00181049 6.43303e-05)
(-0.820415 -0.00168851 7.78493e-05)
(-0.782944 0.00213323 0.000140094)
(-0.782932 0.00168792 0.00012391)
(-0.749399 -0.00221689 4.73483e-05)
(-0.749388 -0.00194448 6.84523e-05)
(-0.719431 0.00261065 0.000142544)
(-0.719419 0.00192445 0.000116075)
(-0.692203 -0.00265507 4.15961e-05)
(-0.692192 -0.0022024 5.79339e-05)
(-0.668469 0.00305121 0.000127096)
(-0.66846 0.00216533 0.000102861)
(-0.649518 -0.00306387 3.44996e-05)
(-0.649511 -0.00244329 4.63596e-05)
(-0.634985 0.00343838 0.000106454)
(-0.634979 0.0023963 8.37296e-05)
(-0.622442 -0.00343457 2.63501e-05)
(-0.622437 -0.00264776 3.32761e-05)
(-0.610106 0.00381774 9.53065e-05)
(-0.610102 0.00260478 5.80623e-05)
(-0.599465 -0.00382583 4.60414e-05)
(-0.599463 -0.00277928 1.81946e-05)
(-0.593389 0.00404257 6.96198e-05)
(-0.593388 0.00278384 2.19438e-05)
(0.110694 -2.57627e-09 -1.80762e-21)
(0.110694 9.51989e-09 3.58211e-08)
(0.333487 9.0513e-09 1.58705e-10)
(0.333487 2.08446e-08 4.13619e-08)
(0.559306 8.30681e-09 4.32827e-10)
(0.559306 1.21946e-08 3.04519e-08)
(0.788182 -6.33665e-09 6.69738e-10)
(0.788182 -1.71789e-09 1.62195e-08)
(1.02014 -8.57797e-09 8.46423e-10)
(1.02014 -2.69928e-09 8.27267e-09)
(1.25522 -5.45827e-09 1.01982e-09)
(1.25522 5.54743e-10 4.55013e-09)
(1.49345 -4.39135e-09 1.22054e-09)
(1.49345 1.90499e-09 2.53746e-09)
(1.73488 -3.32374e-09 1.46563e-09)
(1.73488 3.10719e-09 1.18164e-09)
(1.97956 -3.33421e-09 5.39369e-10)
(1.97956 3.23947e-09 6.7498e-11)
(2.22756 -2.6997e-09 -5.97989e-10)
(2.22756 3.96726e-09 -9.9151e-10)
(2.47893 -2.80074e-09 -1.75666e-09)
(2.47893 3.9713e-09 -2.09519e-09)
(2.73374 -2.6332e-09 -3.0104e-09)
(2.73374 4.20948e-09 -3.30833e-09)
(2.99207 -2.5385e-09 -4.41139e-09)
(2.99207 4.3861e-09 -4.67854e-09)
(3.25399 -2.55241e-09 -6.00419e-09)
(3.25399 4.43404e-09 -4.96446e-09)
(3.51959 -2.47549e-09 -5.67681e-09)
(3.51959 4.57819e-09 -5.64315e-09)
(3.78893 -2.57075e-09 -6.39106e-09)
(3.78893 4.53945e-09 -6.39121e-09)
(4.0621 -2.46333e-09 -7.2126e-09)
(4.0621 4.70547e-09 -7.21278e-09)
(4.33917 -2.45186e-09 -8.11383e-09)
(4.33917 4.76917e-09 -8.114e-09)
(4.62022 -2.61655e-09 -9.09735e-09)
(4.62022 4.65807e-09 -9.09755e-09)
(4.9053 -2.53314e-09 -1.01672e-08)
(4.9053 4.79093e-09 -1.01674e-08)
(5.19448 -2.48112e-09 -1.13314e-08)
(5.19448 4.8931e-09 -1.13316e-08)
(5.48781 -2.52705e-09 -1.2596e-08)
(5.48781 4.89506e-09 -1.25962e-08)
(5.78533 -2.86734e-09 -1.39617e-08)
(5.78533 4.60241e-09 -1.39619e-08)
(6.08706 -2.40365e-09 -1.54373e-08)
(6.08706 5.11289e-09 -1.54375e-08)
(6.39302 -2.69159e-09 -1.70331e-08)
(6.39302 4.87193e-09 -1.70333e-08)
(6.7032 -2.65053e-09 -1.87529e-08)
(6.7032 4.95899e-09 -1.87531e-08)
(7.01759 -3.08203e-09 -2.05985e-08)
(7.01759 4.57368e-09 -2.05987e-08)
(7.33613 -2.37762e-09 -2.2583e-08)
(7.33613 5.32398e-09 -2.25833e-08)
(7.65877 -2.99113e-09 -2.47176e-08)
(7.65877 4.75711e-09 -2.47178e-08)
(7.98542 -2.70302e-09 -2.70061e-08)
(7.98542 5.0914e-09 -2.70063e-08)
(8.31596 -3.33142e-09 -2.94529e-08)
(8.31596 4.50969e-09 -2.94532e-08)
(8.65026 -2.4707e-09 -3.20727e-08)
(8.65026 5.41732e-09 -3.20729e-08)
(8.98815 -3.21284e-09 -3.48792e-08)
(8.98815 4.72296e-09 -3.48795e-08)
(9.32943 -2.97822e-09 -3.78752e-08)
(9.32943 5.00563e-09 -3.78755e-08)
(9.67387 -3.3981e-09 -4.10696e-08)
(9.67387 4.63434e-09 -4.10699e-08)
(10.0212 -2.70746e-09 -4.44807e-08)
(10.0212 5.37432e-09 -4.4481e-08)
(10.3712 -3.41626e-09 -4.81224e-08)
(10.3712 4.71578e-09 -4.81227e-08)
(10.7234 -3.22805e-09 -5.19991e-08)
(10.7234 4.95528e-09 -5.19994e-08)
(11.0776 -3.6157e-09 -5.61222e-08)
(11.0776 4.61924e-09 -5.61226e-08)
(11.4333 -2.97071e-09 -6.05127e-08)
(11.4333 5.31744e-09 -6.0513e-08)
(11.7901 -3.55494e-09 -6.51891e-08)
(11.7901 4.78712e-09 -6.51894e-08)
(12.1476 -3.45508e-09 -7.01592e-08)
(12.1476 4.94277e-09 -7.01595e-08)
(12.5051 -4.0508e-09 -7.54309e-08)
(12.5051 4.4028e-09 -7.54313e-08)
(12.8623 -2.82303e-09 -8.10366e-08)
(12.8623 5.68917e-09 -8.10369e-08)
(13.2186 -4.58491e-09 -8.69854e-08)
(13.2186 3.98571e-09 -8.69858e-08)
(13.5733 -2.7825e-09 -9.32986e-08)
(13.5733 5.85011e-09 -9.32989e-08)
(13.9258 -5.295e-09 -9.99823e-08)
(13.9258 3.39852e-09 -9.99827e-08)
(14.2756 -2.28283e-09 -1.07069e-07)
(14.2756 6.47594e-09 -1.07069e-07)
(14.6218 -4.62493e-09 -1.14598e-07)
(14.6218 4.19841e-09 -1.14599e-07)
(14.9638 -4.98623e-09 -1.2253e-07)
(14.9638 3.9058e-09 -1.22531e-07)
(15.3009 -5.06756e-09 -1.30876e-07)
(15.3009 3.89437e-09 -1.30876e-07)
(15.6323 1.38824e-09 -1.39811e-07)
(15.6323 1.04208e-08 -1.39811e-07)
(15.9573 -1.36132e-08 -1.49158e-07)
(15.9573 -4.5072e-09 -1.49158e-07)
(16.2751 4.01803e-09 -1.58995e-07)
(16.2751 1.32009e-08 -1.58995e-07)
(16.5849 -9.53146e-09 -1.69453e-07)
(16.5849 -2.72086e-10 -1.69454e-07)
(16.886 -4.56596e-09 -1.80335e-07)
(16.886 4.77894e-09 -1.80336e-07)
(17.1774 -9.93984e-10 -1.91876e-07)
(17.1774 8.42843e-09 -1.91877e-07)
(17.4585 -1.20732e-08 -2.03905e-07)
(17.4585 -2.56115e-09 -2.03906e-07)
(17.7285 1.3959e-09 -2.16491e-07)
(17.7285 1.09934e-08 -2.16492e-07)
(17.9865 -1.08972e-08 -2.29683e-07)
(17.9865 -1.20388e-09 -2.29684e-07)
(18.2319 -7.44191e-11 -2.43447e-07)
(18.2319 9.70841e-09 -2.43447e-07)
(18.4638 -1.04181e-08 -2.57805e-07)
(18.4638 -5.3496e-10 -2.57805e-07)
(18.6816 -6.88968e-09 -2.72561e-07)
(18.6816 3.09369e-09 -2.72562e-07)
(18.8847 -1.93827e-09 -2.87947e-07)
(18.8847 8.14744e-09 -2.87947e-07)
(19.0723 -8.28182e-09 -3.0392e-07)
(19.0723 1.90954e-09 -3.03921e-07)
(19.2438 -1.28781e-08 -3.20145e-07)
(19.2438 -2.57046e-09 -3.20146e-07)
(19.3988 4.512e-09 -3.3697e-07)
(19.3988 1.4921e-08 -3.36971e-07)
(19.5367 -2.48506e-08 -3.54025e-07)
(19.5367 -1.43101e-08 -3.54026e-07)
(19.6571 1.61846e-08 -3.71621e-07)
(19.6571 2.68291e-08 -3.71622e-07)
(19.7597 -3.90234e-08 -3.89316e-07)
(19.7597 -2.82386e-08 -3.89316e-07)
(19.8441 2.3881e-08 -4.07287e-07)
(19.8441 3.47731e-08 -4.07288e-07)
(19.91 -3.99593e-08 -4.25509e-07)
(19.91 -2.89147e-08 -4.2551e-07)
(19.9575 1.79039e-08 -4.43734e-07)
(19.9575 2.90562e-08 -4.43735e-07)
(19.9863 -3.29248e-08 -4.62196e-07)
(19.9863 -2.16058e-08 -4.62197e-07)
(19.9966 1.01042e-08 -4.806e-07)
(19.9966 2.15284e-08 -4.80601e-07)
(19.9883 -2.71536e-08 -4.99152e-07)
(19.9883 -1.55461e-08 -4.99153e-07)
(19.9618 -1.6112e-10 -5.17485e-07)
(19.9618 1.15464e-08 -5.17486e-07)
(19.9172 -1.48546e-08 -5.36044e-07)
(19.9172 -2.94336e-09 -5.36045e-07)
(19.8549 -1.36595e-08 -5.54372e-07)
(19.8549 -1.65439e-09 -5.54372e-07)
(19.7753 -2.59559e-09 -5.72928e-07)
(19.7753 9.63306e-09 -5.72929e-07)
(19.6789 -2.75749e-08 -5.91255e-07)
(19.6789 -1.52667e-08 -5.91256e-07)
(19.5663 7.60497e-09 -6.09748e-07)
(19.5663 2.01719e-08 -6.09749e-07)
(19.4381 -3.23316e-08 -6.28302e-07)
(19.4381 -1.97115e-08 -6.28302e-07)
(19.295 4.5096e-09 -6.46824e-07)
(19.295 1.74326e-08 -6.46825e-07)
(19.1378 -2.70386e-08 -6.6559e-07)
(19.1378 -1.40977e-08 -6.6559e-07)
(18.9671 2.60151e-09 -6.84566e-07)
(18.9671 1.59012e-08 -6.84567e-07)
(18.7839 -2.9921e-08 -7.03714e-07)
(18.7839 -1.66534e-08 -7.03714e-07)
(18.5889 4.50432e-09 -7.23141e-07)
(18.5889 1.82044e-08 -7.23142e-07)
(18.383 -3.27038e-08 -7.42811e-07)
(18.383 -1.91037e-08 -7.42811e-07)
(18.1671 4.03792e-09 -7.62726e-07)
(18.1671 1.81652e-08 -7.62727e-07)
(17.9421 -2.68652e-08 -7.83205e-07)
(17.9421 -1.29279e-08 -7.83205e-07)
(17.7089 -2.8184e-09 -8.03988e-07)
(17.7089 1.1769e-08 -8.03988e-07)
(17.4683 -2.3724e-08 -8.25266e-07)
(17.4683 -9.44972e-09 -8.25266e-07)
(17.2211 -9.67094e-09 -8.46765e-07)
(17.2211 5.41482e-09 -8.46765e-07)
(16.9683 -1.15958e-08 -8.69063e-07)
(16.9683 3.01712e-09 -8.69062e-07)
(16.7107 -1.92764e-08 -8.91774e-07)
(16.7107 -3.64814e-09 -8.91775e-07)
(16.4489 -1.53935e-08 -9.14741e-07)
(16.4489 -4.50932e-10 -9.1474e-07)
(16.1839 -6.32814e-09 -9.38588e-07)
(16.1839 9.90505e-09 -9.38588e-07)
(15.9163 -3.01374e-08 -9.62664e-07)
(15.9163 -1.48826e-08 -9.62662e-07)