/*--------------------------------*- C++ -*----------------------------------*\
| =========                 |                                                 |
| \\      /  F ield         | OpenFOAM: The Open Source CFD Toolbox           |
|  \\    /   O peration     | Version:  2012                                  |
|   \\  /    A nd           | Website:  www.openfoam.com                      |
|    \\/     M anipulation  |                                                 |
\*---------------------------------------------------------------------------*/
FoamFile
{
    version     2.0;
    format      ascii;
    class       volScalarField;
    location    "6000";
    object      p;
}
// * * * * * * * * * * * * * * * * * * * * * * * * * * * * * * * * * * * * * //

dimensions      [0 2 -2 0 0 0 0];


internalField   nonuniform List<scalar> 
40
(
1.10385e-16
1.01593e-15
2.89516e-16
9.17667e-16
1.46585e-16
2.34006e-16
-1.43473e-16
8.77959e-17
3.76999e-16
4.24332e-16
8.07139e-16
9.04776e-16
8.08578e-16
8.87086e-16
6.21698e-16
6.3795e-16
3.16952e-16
3.24314e-16
6.78037e-16
6.8754e-16
1.17019e-14
1.17113e-14
1.21299e-14
1.21297e-14
1.2201e-14
1.21957e-14
1.22102e-14
1.22045e-14
1.22068e-14
1.22044e-14
1.174e-14
1.1787e-14
1.21311e-14
1.21306e-14
1.22169e-14
1.21898e-14
1.22298e-14
1.22145e-14
1.2225e-14
1.22143e-14
)
;

boundaryField
{
    walls
    {
        type            zeroGradient;
    }
    inlet
    {
        type            cyclic;
    }
    outlet
    {
        type            cyclic;
    }
    sides
    {
        type            empty;
    }
}


// ************************************************************************* //
