/*--------------------------------*- C++ -*----------------------------------*\
| =========                 |                                                 |
| \\      /  F ield         | OpenFOAM: The Open Source CFD Toolbox           |
|  \\    /   O peration     | Version:  2012                                  |
|   \\  /    A nd           | Website:  www.openfoam.com                      |
|    \\/     M anipulation  |                                                 |
\*---------------------------------------------------------------------------*/
FoamFile
{
    version     2.0;
    format      ascii;
    class       volScalarField;
    location    "3000";
    object      k;
}
// * * * * * * * * * * * * * * * * * * * * * * * * * * * * * * * * * * * * * //

dimensions      [0 2 -2 0 0 0 0];


internalField   nonuniform List<scalar> 
2560
(
1.38231e-07
1.38231e-07
2.03093e-08
2.03093e-08
6.1363e-09
6.1363e-09
2.87311e-09
2.87311e-09
2.08849e-09
2.08849e-09
2.36461e-09
2.36461e-09
3.44001e-09
3.44001e-09
5.34938e-09
5.34938e-09
8.23674e-09
8.23674e-09
1.23037e-08
1.23037e-08
1.7793e-08
1.7793e-08
2.49835e-08
2.49835e-08
3.41893e-08
3.41893e-08
4.5761e-08
4.5761e-08
6.00871e-08
6.00871e-08
7.75973e-08
7.75973e-08
9.87647e-08
9.87647e-08
1.24109e-07
1.24109e-07
1.54202e-07
1.54202e-07
1.89668e-07
1.89668e-07
2.3119e-07
2.3119e-07
2.79513e-07
2.79513e-07
3.35452e-07
3.35452e-07
3.9989e-07
3.9989e-07
4.73791e-07
4.73791e-07
5.58198e-07
5.58198e-07
6.54243e-07
6.54243e-07
7.63153e-07
7.63153e-07
8.86252e-07
8.86252e-07
1.02497e-06
1.02497e-06
1.18085e-06
1.18085e-06
1.35556e-06
1.35556e-06
1.55087e-06
1.55087e-06
1.76871e-06
1.76871e-06
2.01112e-06
2.01112e-06
2.2803e-06
2.2803e-06
2.5786e-06
2.5786e-06
2.90852e-06
2.90852e-06
3.27271e-06
3.27271e-06
3.67401e-06
3.67401e-06
4.11542e-06
4.11542e-06
4.60009e-06
4.60009e-06
5.13139e-06
5.13139e-06
5.71283e-06
5.71283e-06
6.34812e-06
6.34812e-06
7.04116e-06
7.04116e-06
7.79601e-06
7.79601e-06
8.61692e-06
8.61692e-06
9.50829e-06
9.50829e-06
1.04747e-05
1.04747e-05
1.1521e-05
1.1521e-05
1.2652e-05
1.2652e-05
1.38727e-05
1.38727e-05
1.51883e-05
1.51883e-05
1.66042e-05
1.66042e-05
1.81257e-05
1.81257e-05
1.97583e-05
1.97583e-05
2.15076e-05
2.15076e-05
2.33791e-05
2.33791e-05
2.53784e-05
2.53784e-05
2.75112e-05
2.75112e-05
2.97831e-05
2.97831e-05
3.21994e-05
3.21994e-05
3.47658e-05
3.47658e-05
3.74876e-05
3.74876e-05
4.03698e-05
4.03698e-05
4.34176e-05
4.34176e-05
4.66358e-05
4.66358e-05
5.0029e-05
5.0029e-05
5.36014e-05
5.36014e-05
5.73572e-05
5.73572e-05
6.13001e-05
6.13001e-05
6.54333e-05
6.54333e-05
6.976e-05
6.976e-05
7.42826e-05
7.42826e-05
7.90034e-05
7.90034e-05
8.3924e-05
8.3924e-05
8.90456e-05
8.90456e-05
9.4369e-05
9.4369e-05
9.98942e-05
9.98942e-05
0.000105621
0.000105621
0.000111548
0.000111548
0.000117675
0.000117675
0.000123999
0.000123999
0.000130517
0.000130517
0.000137226
0.000137226
0.000144123
0.000144123
0.000151202
0.000151202
0.000158459
0.000158459
0.000165888
0.000165888
0.000173483
0.000173483
0.000181236
0.000181236
0.000189141
0.000189141
0.00019719
0.00019719
0.000205373
0.000205373
0.000213681
0.000213681
0.000222105
0.000222105
0.000230635
0.000230635
0.00023926
0.00023926
0.000247968
0.000247968
0.000256749
0.000256749
0.00026559
0.00026559
0.000274479
0.000274479
0.000283403
0.000283403
0.00029235
0.00029235
0.000301305
0.000301305
0.000310255
0.000310255
0.000319188
0.000319188
0.000328088
0.000328088
0.000336943
0.000336943
0.000345737
0.000345737
0.000354457
0.000354457
0.00036309
0.00036309
0.00037162
0.00037162
0.000380034
0.000380034
0.000388319
0.000388319
0.000396461
0.000396461
0.000404447
0.000404447
0.000412264
0.000412264
0.000419898
0.000419898
0.000427339
0.000427339
0.000434573
0.000434573
0.000441589
0.000441589
0.000448377
0.000448377
0.000454926
0.000454926
0.000461225
0.000461225
0.000467266
0.000467266
0.000473039
0.000473039
0.000478536
0.000478536
0.00048375
0.00048375
0.000488673
0.000488673
0.000493298
0.000493298
0.000497621
0.000497621
0.000501636
0.000501636
0.000505339
0.000505339
0.000508725
0.000508725
0.000511792
0.000511792
0.000514537
0.000514537
0.000516959
0.000516959
0.000519057
0.000519057
0.000520829
0.000520829
0.000522277
0.000522277
0.0005234
0.0005234
0.000524202
0.000524202
0.000524682
0.000524682
0.000524845
0.000524845
0.000524692
0.000524692
0.000524229
0.000524229
0.000523459
0.000523459
0.000522386
0.000522386
0.000521016
0.000521016
0.000519354
0.000519354
0.000517406
0.000517406
0.000515179
0.000515179
0.00051268
0.00051268
0.000509914
0.000509914
0.00050689
0.00050689
0.000503616
0.000503616
0.000500098
0.000500098
0.000496346
0.000496346
0.000492367
0.000492367
0.00048817
0.00048817
0.000483764
0.000483764
0.000479157
0.000479157
0.000474358
0.000474358
0.000469377
0.000469377
0.000464221
0.000464221
0.000458902
0.000458902
0.000453426
0.000453426
0.000447805
0.000447805
0.000442046
0.000442046
0.00043616
0.00043616
0.000430154
0.000430154
0.000424039
0.000424039
0.000417823
0.000417823
0.000411515
0.000411515
0.000405125
0.000405125
0.000398661
0.000398661
0.000392131
0.000392131
0.000385545
0.000385545
0.000378911
0.000378911
0.000372238
0.000372238
0.000365533
0.000365533
0.000358806
0.000358806
0.000352064
0.000352064
0.000345316
0.000345316
0.00033857
0.00033857
0.000331833
0.000331833
0.000325113
0.000325113
0.000318419
0.000318419
0.000311758
0.000311758
0.000305137
0.000305137
0.000298565
0.000298565
0.000292049
0.000292049
0.000285596
0.000285596
0.000279214
0.000279214
0.00027291
0.00027291
0.000266693
0.000266693
0.000260569
0.000260569
0.000254547
0.000254547
0.000248633
0.000248633
0.000242836
0.000242836
0.000237164
0.000237164
0.000231624
0.000231624
0.000226223
0.000226223
0.000220971
0.000220971
0.000215875
0.000215875
0.000210943
0.000210943
0.000206183
0.000206183
0.000201603
0.000201603
0.000197211
0.000197211
0.000193015
0.000193015
0.000189021
0.000189021
0.000185239
0.000185239
0.000181674
0.000181674
0.000178334
0.000178334
0.000175223
0.000175223
0.000172349
0.000172349
0.000169714
0.000169714
0.000167323
0.000167323
0.000165178
0.000165178
0.000163281
0.000163281
0.000161632
0.000161632
0.000160228
0.000160228
0.000159069
0.000159069
0.000158148
0.000158148
0.000157461
0.000157461
0.000157
0.000157
0.000156756
0.000156756
0.00015672
0.00015672
0.00015688
0.00015688
0.000157226
0.000157226
0.000157743
0.000157743
0.000158419
0.000158419
0.000159241
0.000159241
0.000160196
0.000160196
0.000161269
0.000161269
0.000162448
0.000162448
0.000163721
0.000163721
0.000165076
0.000165076
0.000166501
0.000166501
0.000167987
0.000167987
0.000169522
0.000169522
0.0001711
0.0001711
0.00017271
0.00017271
0.000174347
0.000174347
0.000176003
0.000176003
0.000177672
0.000177672
0.00017935
0.00017935
0.000181031
0.000181031
0.000182711
0.000182711
0.000184387
0.000184387
0.000186055
0.000186055
0.000187713
0.000187713
0.000189358
0.000189358
0.000190987
0.000190987
0.000192599
0.000192599
0.000194192
0.000194192
0.000195764
0.000195764
0.000197314
0.000197314
0.000198841
0.000198841
0.000200343
0.000200343
0.000201819
0.000201819
0.000203268
0.000203268
0.000204689
0.000204689
0.000206081
0.000206081
0.000207444
0.000207444
0.000208776
0.000208776
0.000210076
0.000210076
0.000211345
0.000211345
0.00021258
0.00021258
0.000213781
0.000213781
0.000214947
0.000214947
0.000216078
0.000216078
0.000217172
0.000217172
0.000218229
0.000218229
0.000219248
0.000219248
0.000220228
0.000220228
0.000221169
0.000221169
0.00022207
0.00022207
0.00022293
0.00022293
0.000223748
0.000223748
0.000224524
0.000224524
0.000225258
0.000225258
0.000225949
0.000225949
0.000226596
0.000226596
0.000227199
0.000227199
0.000227758
0.000227758
0.000228273
0.000228273
0.000228743
0.000228743
0.000229169
0.000229169
0.000229551
0.000229551
0.00022989
0.00022989
0.000230184
0.000230184
0.000230437
0.000230437
0.000230647
0.000230647
0.000230816
0.000230816
0.000230945
0.000230945
0.000231036
0.000231036
0.00023109
0.00023109
0.000231109
0.000231109
0.000231094
0.000231094
0.000231049
0.000231049
0.000230975
0.000230975
0.000230875
0.000230875
0.000230753
0.000230753
0.000230611
0.000230611
0.000230452
0.000230452
0.000230282
0.000230282
0.000230102
0.000230102
0.000229918
0.000229918
0.000229733
0.000229733
0.000229552
0.000229552
0.000229379
0.000229379
0.000229219
0.000229219
0.000229076
0.000229076
0.000228955
0.000228955
0.000228859
0.000228859
0.000228791
0.000228791
0.000228757
0.000228757
1.38231e-07
1.38231e-07
2.03093e-08
2.03093e-08
6.1363e-09
6.1363e-09
2.87311e-09
2.87311e-09
2.08849e-09
2.08849e-09
2.36461e-09
2.36461e-09
3.44001e-09
3.44001e-09
5.34938e-09
5.34938e-09
8.23674e-09
8.23674e-09
1.23037e-08
1.23037e-08
1.7793e-08
1.7793e-08
2.49835e-08
2.49835e-08
3.41893e-08
3.41893e-08
4.57609e-08
4.57609e-08
6.00871e-08
6.00871e-08
7.75973e-08
7.75973e-08
9.87647e-08
9.87647e-08
1.24109e-07
1.24109e-07
1.54202e-07
1.54202e-07
1.89668e-07
1.89668e-07
2.3119e-07
2.3119e-07
2.79513e-07
2.79513e-07
3.35452e-07
3.35452e-07
3.9989e-07
3.9989e-07
4.73791e-07
4.73791e-07
5.58198e-07
5.58198e-07
6.54243e-07
6.54243e-07
7.63153e-07
7.63153e-07
8.86252e-07
8.86252e-07
1.02497e-06
1.02497e-06
1.18085e-06
1.18085e-06
1.35556e-06
1.35556e-06
1.55087e-06
1.55087e-06
1.76871e-06
1.76871e-06
2.01112e-06
2.01112e-06
2.2803e-06
2.2803e-06
2.5786e-06
2.5786e-06
2.90852e-06
2.90852e-06
3.27271e-06
3.27271e-06
3.67401e-06
3.67401e-06
4.11542e-06
4.11542e-06
4.60009e-06
4.60009e-06
5.13139e-06
5.13139e-06
5.71283e-06
5.71283e-06
6.34812e-06
6.34812e-06
7.04116e-06
7.04116e-06
7.79601e-06
7.79601e-06
8.61692e-06
8.61692e-06
9.50829e-06
9.50829e-06
1.04747e-05
1.04747e-05
1.1521e-05
1.1521e-05
1.2652e-05
1.2652e-05
1.38727e-05
1.38727e-05
1.51883e-05
1.51883e-05
1.66042e-05
1.66042e-05
1.81257e-05
1.81257e-05
1.97583e-05
1.97583e-05
2.15076e-05
2.15076e-05
2.33791e-05
2.33791e-05
2.53784e-05
2.53784e-05
2.75112e-05
2.75112e-05
2.97831e-05
2.97831e-05
3.21994e-05
3.21994e-05
3.47658e-05
3.47658e-05
3.74876e-05
3.74876e-05
4.03698e-05
4.03698e-05
4.34176e-05
4.34176e-05
4.66358e-05
4.66358e-05
5.0029e-05
5.0029e-05
5.36014e-05
5.36014e-05
5.73572e-05
5.73572e-05
6.13001e-05
6.13001e-05
6.54333e-05
6.54333e-05
6.976e-05
6.976e-05
7.42826e-05
7.42826e-05
7.90034e-05
7.90034e-05
8.3924e-05
8.3924e-05
8.90456e-05
8.90456e-05
9.4369e-05
9.4369e-05
9.98942e-05
9.98942e-05
0.000105621
0.000105621
0.000111548
0.000111548
0.000117675
0.000117675
0.000123999
0.000123999
0.000130517
0.000130517
0.000137226
0.000137226
0.000144123
0.000144123
0.000151202
0.000151202
0.000158459
0.000158459
0.000165888
0.000165888
0.000173483
0.000173483
0.000181236
0.000181236
0.000189141
0.000189141
0.00019719
0.00019719
0.000205373
0.000205373
0.000213681
0.000213681
0.000222105
0.000222105
0.000230635
0.000230635
0.00023926
0.00023926
0.000247968
0.000247968
0.000256749
0.000256749
0.00026559
0.00026559
0.000274479
0.000274479
0.000283403
0.000283403
0.00029235
0.00029235
0.000301305
0.000301305
0.000310255
0.000310255
0.000319188
0.000319188
0.000328088
0.000328088
0.000336943
0.000336943
0.000345737
0.000345737
0.000354457
0.000354457
0.00036309
0.00036309
0.00037162
0.00037162
0.000380034
0.000380034
0.000388319
0.000388319
0.000396461
0.000396461
0.000404447
0.000404447
0.000412264
0.000412264
0.000419898
0.000419898
0.000427339
0.000427339
0.000434573
0.000434573
0.000441589
0.000441589
0.000448377
0.000448377
0.000454926
0.000454926
0.000461225
0.000461225
0.000467266
0.000467266
0.000473039
0.000473039
0.000478536
0.000478536
0.00048375
0.00048375
0.000488673
0.000488673
0.000493298
0.000493298
0.000497621
0.000497621
0.000501636
0.000501636
0.000505338
0.000505338
0.000508725
0.000508725
0.000511792
0.000511792
0.000514537
0.000514537
0.000516959
0.000516959
0.000519057
0.000519057
0.000520829
0.000520829
0.000522277
0.000522277
0.0005234
0.0005234
0.000524201
0.000524201
0.000524682
0.000524682
0.000524845
0.000524845
0.000524692
0.000524692
0.000524229
0.000524229
0.000523459
0.000523459
0.000522386
0.000522386
0.000521016
0.000521016
0.000519354
0.000519354
0.000517406
0.000517406
0.000515179
0.000515179
0.00051268
0.00051268
0.000509914
0.000509914
0.00050689
0.00050689
0.000503616
0.000503616
0.000500098
0.000500098
0.000496346
0.000496346
0.000492367
0.000492367
0.00048817
0.00048817
0.000483764
0.000483764
0.000479157
0.000479157
0.000474358
0.000474358
0.000469377
0.000469377
0.000464221
0.000464221
0.000458902
0.000458902
0.000453426
0.000453426
0.000447805
0.000447805
0.000442046
0.000442046
0.00043616
0.00043616
0.000430154
0.000430154
0.000424039
0.000424039
0.000417823
0.000417823
0.000411515
0.000411515
0.000405125
0.000405125
0.000398661
0.000398661
0.000392131
0.000392131
0.000385545
0.000385545
0.000378911
0.000378911
0.000372238
0.000372238
0.000365533
0.000365533
0.000358806
0.000358806
0.000352064
0.000352064
0.000345316
0.000345316
0.00033857
0.00033857
0.000331833
0.000331833
0.000325113
0.000325113
0.000318419
0.000318419
0.000311758
0.000311758
0.000305137
0.000305137
0.000298565
0.000298565
0.000292049
0.000292049
0.000285596
0.000285596
0.000279214
0.000279214
0.00027291
0.00027291
0.000266693
0.000266693
0.000260569
0.000260569
0.000254547
0.000254547
0.000248633
0.000248633
0.000242836
0.000242836
0.000237164
0.000237164
0.000231624
0.000231624
0.000226223
0.000226223
0.000220971
0.000220971
0.000215875
0.000215875
0.000210943
0.000210943
0.000206183
0.000206183
0.000201603
0.000201603
0.000197211
0.000197211
0.000193015
0.000193015
0.000189021
0.000189021
0.000185239
0.000185239
0.000181674
0.000181674
0.000178334
0.000178334
0.000175223
0.000175223
0.000172349
0.000172349
0.000169714
0.000169714
0.000167323
0.000167323
0.000165178
0.000165178
0.000163281
0.000163281
0.000161632
0.000161632
0.000160228
0.000160228
0.000159069
0.000159069
0.000158148
0.000158148
0.000157461
0.000157461
0.000157
0.000157
0.000156756
0.000156756
0.00015672
0.00015672
0.00015688
0.00015688
0.000157226
0.000157226
0.000157743
0.000157743
0.000158419
0.000158419
0.000159241
0.000159241
0.000160196
0.000160196
0.000161269
0.000161269
0.000162448
0.000162448
0.000163721
0.000163721
0.000165076
0.000165076
0.000166501
0.000166501
0.000167987
0.000167987
0.000169522
0.000169522
0.0001711
0.0001711
0.00017271
0.00017271
0.000174347
0.000174347
0.000176003
0.000176003
0.000177672
0.000177672
0.00017935
0.00017935
0.000181031
0.000181031
0.000182711
0.000182711
0.000184387
0.000184387
0.000186055
0.000186055
0.000187713
0.000187713
0.000189358
0.000189358
0.000190987
0.000190987
0.000192599
0.000192599
0.000194192
0.000194192
0.000195764
0.000195764
0.000197314
0.000197314
0.000198841
0.000198841
0.000200343
0.000200343
0.000201819
0.000201819
0.000203268
0.000203268
0.000204689
0.000204689
0.000206081
0.000206081
0.000207444
0.000207444
0.000208776
0.000208776
0.000210076
0.000210076
0.000211345
0.000211345
0.00021258
0.00021258
0.000213781
0.000213781
0.000214947
0.000214947
0.000216078
0.000216078
0.000217172
0.000217172
0.000218229
0.000218229
0.000219248
0.000219248
0.000220228
0.000220228
0.000221169
0.000221169
0.00022207
0.00022207
0.00022293
0.00022293
0.000223748
0.000223748
0.000224524
0.000224524
0.000225258
0.000225258
0.000225949
0.000225949
0.000226596
0.000226596
0.000227199
0.000227199
0.000227758
0.000227758
0.000228273
0.000228273
0.000228743
0.000228743
0.000229169
0.000229169
0.000229551
0.000229551
0.00022989
0.00022989
0.000230184
0.000230184
0.000230437
0.000230437
0.000230647
0.000230647
0.000230816
0.000230816
0.000230945
0.000230945
0.000231036
0.000231036
0.00023109
0.00023109
0.000231109
0.000231109
0.000231094
0.000231094
0.000231049
0.000231049
0.000230975
0.000230975
0.000230875
0.000230875
0.000230753
0.000230753
0.000230611
0.000230611
0.000230452
0.000230452
0.000230282
0.000230282
0.000230102
0.000230102
0.000229918
0.000229918
0.000229733
0.000229733
0.000229552
0.000229552
0.000229379
0.000229379
0.000229219
0.000229219
0.000229076
0.000229076
0.000228955
0.000228955
0.000228859
0.000228859
0.000228791
0.000228791
0.000228757
0.000228757
0.000228757
0.000228757
0.000228792
0.000228792
0.000228859
0.000228859
0.000228955
0.000228955
0.000229077
0.000229077
0.00022922
0.00022922
0.00022938
0.00022938
0.000229553
0.000229553
0.000229734
0.000229734
0.000229919
0.000229919
0.000230103
0.000230103
0.000230283
0.000230283
0.000230454
0.000230454
0.000230613
0.000230613
0.000230755
0.000230755
0.000230877
0.000230877
0.000230977
0.000230977
0.000231051
0.000231051
0.000231097
0.000231097
0.000231111
0.000231111
0.000231092
0.000231092
0.000231039
0.000231039
0.000230948
0.000230948
0.000230819
0.000230819
0.000230649
0.000230649
0.000230439
0.000230439
0.000230187
0.000230187
0.000229892
0.000229892
0.000229554
0.000229554
0.000229172
0.000229172
0.000228746
0.000228746
0.000228276
0.000228276
0.000227761
0.000227761
0.000227202
0.000227202
0.000226599
0.000226599
0.000225952
0.000225952
0.000225261
0.000225261
0.000224528
0.000224528
0.000223751
0.000223751
0.000222933
0.000222933
0.000222073
0.000222073
0.000221173
0.000221173
0.000220232
0.000220232
0.000219251
0.000219251
0.000218232
0.000218232
0.000217175
0.000217175
0.000216081
0.000216081
0.000214951
0.000214951
0.000213784
0.000213784
0.000212583
0.000212583
0.000211348
0.000211348
0.00021008
0.00021008
0.00020878
0.00020878
0.000207448
0.000207448
0.000206085
0.000206085
0.000204693
0.000204693
0.000203272
0.000203272
0.000201823
0.000201823
0.000200347
0.000200347
0.000198845
0.000198845
0.000197318
0.000197318
0.000195768
0.000195768
0.000194196
0.000194196
0.000192603
0.000192603
0.000190991
0.000190991
0.000189362
0.000189362
0.000187717
0.000187717
0.000186059
0.000186059
0.000184391
0.000184391
0.000182715
0.000182715
0.000181035
0.000181035
0.000179354
0.000179354
0.000177676
0.000177676
0.000176007
0.000176007
0.000174351
0.000174351
0.000172714
0.000172714
0.000171104
0.000171104
0.000169527
0.000169527
0.000167991
0.000167991
0.000166505
0.000166505
0.00016508
0.00016508
0.000163725
0.000163725
0.000162452
0.000162452
0.000161273
0.000161273
0.0001602
0.0001602
0.000159245
0.000159245
0.000158423
0.000158423
0.000157747
0.000157747
0.000157229
0.000157229
0.000156884
0.000156884
0.000156724
0.000156724
0.00015676
0.00015676
0.000157003
0.000157003
0.000157464
0.000157464
0.000158152
0.000158152
0.000159072
0.000159072
0.000160232
0.000160232
0.000161635
0.000161635
0.000163285
0.000163285
0.000165182
0.000165182
0.000167326
0.000167326
0.000169717
0.000169717
0.000172352
0.000172352
0.000175227
0.000175227
0.000178337
0.000178337
0.000181678
0.000181678
0.000185242
0.000185242
0.000189025
0.000189025
0.000193018
0.000193018
0.000197214
0.000197214
0.000201607
0.000201607
0.000206187
0.000206187
0.000210947
0.000210947
0.000215879
0.000215879
0.000220975
0.000220975
0.000226227
0.000226227
0.000231627
0.000231627
0.000237168
0.000237168
0.00024284
0.00024284
0.000248637
0.000248637
0.000254551
0.000254551
0.000260573
0.000260573
0.000266697
0.000266697
0.000272915
0.000272915
0.000279218
0.000279218
0.0002856
0.0002856
0.000292053
0.000292053
0.00029857
0.00029857
0.000305142
0.000305142
0.000311763
0.000311763
0.000318424
0.000318424
0.000325118
0.000325118
0.000331838
0.000331838
0.000338575
0.000338575
0.000345321
0.000345321
0.00035207
0.00035207
0.000358811
0.000358811
0.000365539
0.000365539
0.000372243
0.000372243
0.000378917
0.000378917
0.000385551
0.000385551
0.000392137
0.000392137
0.000398667
0.000398667
0.000405131
0.000405131
0.000411521
0.000411521
0.000417829
0.000417829
0.000424045
0.000424045
0.00043016
0.00043016
0.000436166
0.000436166
0.000442053
0.000442053
0.000447811
0.000447811
0.000453433
0.000453433
0.000458908
0.000458908
0.000464228
0.000464228
0.000469383
0.000469383
0.000474365
0.000474365
0.000479164
0.000479164
0.000483771
0.000483771
0.000488177
0.000488177
0.000492374
0.000492374
0.000496353
0.000496353
0.000500105
0.000500105
0.000503623
0.000503623
0.000506897
0.000506897
0.000509921
0.000509921
0.000512687
0.000512687
0.000515187
0.000515187
0.000517414
0.000517414
0.000519361
0.000519361
0.000521023
0.000521023
0.000522393
0.000522393
0.000523466
0.000523466
0.000524236
0.000524236
0.0005247
0.0005247
0.000524852
0.000524852
0.000524689
0.000524689
0.000524209
0.000524209
0.000523408
0.000523408
0.000522284
0.000522284
0.000520836
0.000520836
0.000519064
0.000519064
0.000516966
0.000516966
0.000514544
0.000514544
0.000511799
0.000511799
0.000508732
0.000508732
0.000505345
0.000505345
0.000501643
0.000501643
0.000497628
0.000497628
0.000493305
0.000493305
0.000488679
0.000488679
0.000483756
0.000483756
0.000478543
0.000478543
0.000473046
0.000473046
0.000467272
0.000467272
0.000461232
0.000461232
0.000454932
0.000454932
0.000448383
0.000448383
0.000441595
0.000441595
0.000434579
0.000434579
0.000427344
0.000427344
0.000419904
0.000419904
0.000412269
0.000412269
0.000404453
0.000404453
0.000396467
0.000396467
0.000388325
0.000388325
0.000380039
0.000380039
0.000371625
0.000371625
0.000363094
0.000363094
0.000354462
0.000354462
0.000345741
0.000345741
0.000336947
0.000336947
0.000328093
0.000328093
0.000319192
0.000319192
0.000310259
0.000310259
0.000301309
0.000301309
0.000292353
0.000292353
0.000283407
0.000283407
0.000274483
0.000274483
0.000265594
0.000265594
0.000256753
0.000256753
0.000247972
0.000247972
0.000239263
0.000239263
0.000230638
0.000230638
0.000222108
0.000222108
0.000213684
0.000213684
0.000205375
0.000205375
0.000197192
0.000197192
0.000189144
0.000189144
0.000181239
0.000181239
0.000173485
0.000173485
0.00016589
0.00016589
0.000158461
0.000158461
0.000151204
0.000151204
0.000144124
0.000144124
0.000137228
0.000137228
0.000130518
0.000130518
0.000124
0.000124
0.000117677
0.000117677
0.00011155
0.00011155
0.000105622
0.000105622
9.98955e-05
9.98955e-05
9.43701e-05
9.43701e-05
8.90467e-05
8.90467e-05
8.3925e-05
8.3925e-05
7.90044e-05
7.90044e-05
7.42835e-05
7.42835e-05
6.97608e-05
6.97608e-05
6.54341e-05
6.54341e-05
6.13008e-05
6.13008e-05
5.73579e-05
5.73579e-05
5.36021e-05
5.36021e-05
5.00296e-05
5.00296e-05
4.66364e-05
4.66364e-05
4.34181e-05
4.34181e-05
4.03703e-05
4.03703e-05
3.7488e-05
3.7488e-05
3.47662e-05
3.47662e-05
3.21998e-05
3.21998e-05
2.97834e-05
2.97834e-05
2.75116e-05
2.75116e-05
2.53787e-05
2.53787e-05
2.33794e-05
2.33794e-05
2.15079e-05
2.15079e-05
1.97586e-05
1.97586e-05
1.81259e-05
1.81259e-05
1.66044e-05
1.66044e-05
1.51885e-05
1.51885e-05
1.38728e-05
1.38728e-05
1.26521e-05
1.26521e-05
1.15211e-05
1.15211e-05
1.04749e-05
1.04749e-05
9.5084e-06
9.5084e-06
8.61701e-06
8.61701e-06
7.7961e-06
7.7961e-06
7.04124e-06
7.04124e-06
6.3482e-06
6.3482e-06
5.71289e-06
5.71289e-06
5.13144e-06
5.13144e-06
4.60014e-06
4.60014e-06
4.11546e-06
4.11546e-06
3.67406e-06
3.67406e-06
3.27275e-06
3.27275e-06
2.90855e-06
2.90855e-06
2.57863e-06
2.57863e-06
2.28032e-06
2.28032e-06
2.01114e-06
2.01114e-06
1.76872e-06
1.76872e-06
1.55089e-06
1.55089e-06
1.35557e-06
1.35557e-06
1.18087e-06
1.18087e-06
1.02498e-06
1.02498e-06
8.86262e-07
8.86262e-07
7.63161e-07
7.63161e-07
6.5425e-07
6.5425e-07
5.58204e-07
5.58204e-07
4.73796e-07
4.73796e-07
3.99895e-07
3.99895e-07
3.35455e-07
3.35455e-07
2.79516e-07
2.79516e-07
2.31192e-07
2.31192e-07
1.8967e-07
1.8967e-07
1.54204e-07
1.54204e-07
1.24111e-07
1.24111e-07
9.87658e-08
9.87658e-08
7.75981e-08
7.75981e-08
6.00877e-08
6.00877e-08
4.57614e-08
4.57614e-08
3.41897e-08
3.41897e-08
2.49837e-08
2.49837e-08
1.77931e-08
1.77931e-08
1.23038e-08
1.23038e-08
8.23682e-09
8.23682e-09
5.34943e-09
5.34943e-09
3.44003e-09
3.44003e-09
2.36462e-09
2.36462e-09
2.08848e-09
2.08848e-09
2.87309e-09
2.87309e-09
6.13624e-09
6.13624e-09
2.03091e-08
2.03091e-08
1.38231e-07
1.38231e-07
0.000228757
0.000228757
0.000228792
0.000228792
0.000228859
0.000228859
0.000228955
0.000228955
0.000229077
0.000229077
0.00022922
0.00022922
0.00022938
0.00022938
0.000229553
0.000229553
0.000229734
0.000229734
0.000229919
0.000229919
0.000230103
0.000230103
0.000230283
0.000230283
0.000230454
0.000230454
0.000230613
0.000230613
0.000230755
0.000230755
0.000230877
0.000230877
0.000230977
0.000230977
0.000231051
0.000231051
0.000231097
0.000231097
0.000231111
0.000231111
0.000231092
0.000231092
0.000231039
0.000231039
0.000230948
0.000230948
0.000230819
0.000230819
0.000230649
0.000230649
0.000230439
0.000230439
0.000230187
0.000230187
0.000229892
0.000229892
0.000229554
0.000229554
0.000229172
0.000229172
0.000228746
0.000228746
0.000228276
0.000228276
0.000227761
0.000227761
0.000227202
0.000227202
0.000226599
0.000226599
0.000225952
0.000225952
0.000225261
0.000225261
0.000224528
0.000224528
0.000223751
0.000223751
0.000222933
0.000222933
0.000222073
0.000222073
0.000221173
0.000221173
0.000220232
0.000220232
0.000219251
0.000219251
0.000218232
0.000218232
0.000217175
0.000217175
0.000216081
0.000216081
0.000214951
0.000214951
0.000213784
0.000213784
0.000212583
0.000212583
0.000211348
0.000211348
0.00021008
0.00021008
0.00020878
0.00020878
0.000207448
0.000207448
0.000206085
0.000206085
0.000204693
0.000204693
0.000203272
0.000203272
0.000201823
0.000201823
0.000200347
0.000200347
0.000198845
0.000198845
0.000197318
0.000197318
0.000195768
0.000195768
0.000194196
0.000194196
0.000192603
0.000192603
0.000190991
0.000190991
0.000189362
0.000189362
0.000187717
0.000187717
0.000186059
0.000186059
0.000184391
0.000184391
0.000182715
0.000182715
0.000181035
0.000181035
0.000179354
0.000179354
0.000177676
0.000177676
0.000176007
0.000176007
0.000174351
0.000174351
0.000172714
0.000172714
0.000171104
0.000171104
0.000169527
0.000169527
0.000167991
0.000167991
0.000166505
0.000166505
0.00016508
0.00016508
0.000163725
0.000163725
0.000162452
0.000162452
0.000161273
0.000161273
0.0001602
0.0001602
0.000159245
0.000159245
0.000158423
0.000158423
0.000157747
0.000157747
0.000157229
0.000157229
0.000156884
0.000156884
0.000156724
0.000156724
0.00015676
0.00015676
0.000157003
0.000157003
0.000157464
0.000157464
0.000158152
0.000158152
0.000159072
0.000159072
0.000160232
0.000160232
0.000161635
0.000161635
0.000163285
0.000163285
0.000165182
0.000165182
0.000167326
0.000167326
0.000169717
0.000169717
0.000172352
0.000172352
0.000175227
0.000175227
0.000178337
0.000178337
0.000181678
0.000181678
0.000185242
0.000185242
0.000189025
0.000189025
0.000193018
0.000193018
0.000197214
0.000197214
0.000201607
0.000201607
0.000206187
0.000206187
0.000210947
0.000210947
0.000215879
0.000215879
0.000220975
0.000220975
0.000226227
0.000226227
0.000231627
0.000231627
0.000237168
0.000237168
0.00024284
0.00024284
0.000248637
0.000248637
0.000254551
0.000254551
0.000260573
0.000260573
0.000266697
0.000266697
0.000272915
0.000272915
0.000279218
0.000279218
0.0002856
0.0002856
0.000292053
0.000292053
0.00029857
0.00029857
0.000305142
0.000305142
0.000311763
0.000311763
0.000318424
0.000318424
0.000325118
0.000325118
0.000331838
0.000331838
0.000338575
0.000338575
0.000345321
0.000345321
0.00035207
0.00035207
0.000358811
0.000358811
0.000365539
0.000365539
0.000372243
0.000372243
0.000378917
0.000378917
0.000385551
0.000385551
0.000392137
0.000392137
0.000398667
0.000398667
0.000405131
0.000405131
0.000411521
0.000411521
0.000417829
0.000417829
0.000424045
0.000424045
0.00043016
0.00043016
0.000436166
0.000436166
0.000442053
0.000442053
0.000447811
0.000447811
0.000453433
0.000453433
0.000458908
0.000458908
0.000464228
0.000464228
0.000469383
0.000469383
0.000474365
0.000474365
0.000479164
0.000479164
0.000483771
0.000483771
0.000488177
0.000488177
0.000492374
0.000492374
0.000496353
0.000496353
0.000500105
0.000500105
0.000503623
0.000503623
0.000506897
0.000506897
0.000509921
0.000509921
0.000512687
0.000512687
0.000515187
0.000515187
0.000517414
0.000517414
0.000519361
0.000519361
0.000521023
0.000521023
0.000522393
0.000522393
0.000523466
0.000523466
0.000524236
0.000524236
0.0005247
0.0005247
0.000524852
0.000524852
0.000524689
0.000524689
0.000524209
0.000524209
0.000523408
0.000523408
0.000522284
0.000522284
0.000520836
0.000520836
0.000519064
0.000519064
0.000516966
0.000516966
0.000514544
0.000514544
0.000511799
0.000511799
0.000508732
0.000508732
0.000505345
0.000505345
0.000501643
0.000501643
0.000497628
0.000497628
0.000493305
0.000493305
0.000488679
0.000488679
0.000483756
0.000483756
0.000478543
0.000478543
0.000473046
0.000473046
0.000467272
0.000467272
0.000461232
0.000461232
0.000454932
0.000454932
0.000448383
0.000448383
0.000441595
0.000441595
0.000434579
0.000434579
0.000427344
0.000427344
0.000419904
0.000419904
0.000412269
0.000412269
0.000404453
0.000404453
0.000396467
0.000396467
0.000388325
0.000388325
0.000380039
0.000380039
0.000371625
0.000371625
0.000363094
0.000363094
0.000354462
0.000354462
0.000345741
0.000345741
0.000336947
0.000336947
0.000328092
0.000328092
0.000319192
0.000319192
0.000310259
0.000310259
0.000301309
0.000301309
0.000292353
0.000292353
0.000283407
0.000283407
0.000274483
0.000274483
0.000265594
0.000265594
0.000256753
0.000256753
0.000247972
0.000247972
0.000239263
0.000239263
0.000230638
0.000230638
0.000222108
0.000222108
0.000213684
0.000213684
0.000205375
0.000205375
0.000197192
0.000197192
0.000189144
0.000189144
0.000181239
0.000181239
0.000173485
0.000173485
0.00016589
0.00016589
0.000158461
0.000158461
0.000151204
0.000151204
0.000144124
0.000144124
0.000137228
0.000137228
0.000130518
0.000130518
0.000124
0.000124
0.000117677
0.000117677
0.00011155
0.00011155
0.000105622
0.000105622
9.98955e-05
9.98955e-05
9.43701e-05
9.43701e-05
8.90467e-05
8.90467e-05
8.3925e-05
8.3925e-05
7.90044e-05
7.90044e-05
7.42835e-05
7.42835e-05
6.97608e-05
6.97608e-05
6.54341e-05
6.54341e-05
6.13008e-05
6.13008e-05
5.73579e-05
5.73579e-05
5.36021e-05
5.36021e-05
5.00296e-05
5.00296e-05
4.66364e-05
4.66364e-05
4.34181e-05
4.34181e-05
4.03703e-05
4.03703e-05
3.7488e-05
3.7488e-05
3.47662e-05
3.47662e-05
3.21998e-05
3.21998e-05
2.97834e-05
2.97834e-05
2.75116e-05
2.75116e-05
2.53787e-05
2.53787e-05
2.33794e-05
2.33794e-05
2.15079e-05
2.15079e-05
1.97586e-05
1.97586e-05
1.81259e-05
1.81259e-05
1.66044e-05