/*--------------------------------*- C++ -*----------------------------------*\
| =========                 |                                                 |
| \\      /  F ield         | OpenFOAM: The Open Source CFD Toolbox           |
|  \\    /   O peration     | Version:  2012                                  |
|   \\  /    A nd           | Website:  www.openfoam.com                      |
|    \\/     M anipulation  |                                                 |
\*---------------------------------------------------------------------------*/
FoamFile
{
    version     2.0;
    format      ascii;
    class       volScalarField;
    location    "3000";
    object      p;
}
// * * * * * * * * * * * * * * * * * * * * * * * * * * * * * * * * * * * * * //

dimensions      [0 2 -2 0 0 0 0];


internalField   nonuniform List<scalar> 
2560
(
4.0671e-15
2.04737e-14
8.53337e-15
2.04733e-14
9.27176e-15
2.04728e-14
9.02877e-15
2.04721e-14
8.92592e-15
2.04711e-14
8.93442e-15
2.04698e-14
8.94656e-15
2.04683e-14
8.94779e-15
2.04665e-14
8.94504e-15
2.04644e-14
8.94118e-15
2.04621e-14
8.93666e-15
2.04595e-14
8.932e-15
2.04566e-14
8.9277e-15
2.04535e-14
8.92396e-15
2.04501e-14
8.92077e-15
2.04464e-14
8.9181e-15
2.04424e-14
8.91595e-15
2.04383e-14
8.9144e-15
2.04338e-14
8.91336e-15
2.04291e-14
8.91299e-15
2.0424e-14
8.9131e-15
2.04186e-14
8.91364e-15
2.04131e-14
8.91462e-15
2.04073e-14
8.91632e-15
2.04012e-14
8.91848e-15
2.03947e-14
8.92107e-15
2.0388e-14
8.92407e-15
2.03809e-14
8.92777e-15
2.03738e-14
8.93205e-15
2.03664e-14
8.9367e-15
2.03587e-14
8.94181e-15
2.03507e-14
8.94736e-15
2.03422e-14
8.95342e-15
2.03335e-14
8.96008e-15
2.03247e-14
8.96717e-15
2.03158e-14
8.97472e-15
2.03067e-14
8.98278e-15
2.02972e-14
8.99148e-15
2.02875e-14
9.00077e-15
2.02775e-14
9.01044e-15
2.0267e-14
9.02051e-15
2.02563e-14
9.03096e-15
2.02455e-14
9.04173e-15
2.02346e-14
9.05301e-15
2.02233e-14
9.06467e-15
2.02118e-14
9.07683e-15
2.01999e-14
9.08942e-15
2.01878e-14
9.10269e-15
2.01755e-14
9.1163e-15
2.0163e-14
9.13011e-15
2.01504e-14
9.14486e-15
2.01376e-14
9.15965e-15
2.01248e-14
9.17469e-15
2.01119e-14
9.19035e-15
2.00985e-14
9.20643e-15
2.00851e-14
9.2226e-15
2.00715e-14
9.23961e-15
2.00577e-14
9.25749e-15
2.00431e-14
9.27606e-15
2.0028e-14
9.29485e-15
2.00126e-14
9.31407e-15
1.99971e-14
9.33388e-15
1.99814e-14
9.35398e-15
1.99652e-14
9.37441e-15
1.99488e-14
9.39512e-15
1.99322e-14
9.41614e-15
1.99154e-14
9.43764e-15
1.98977e-14
9.45987e-15
1.98797e-14
9.48265e-15
1.98614e-14
9.50621e-15
1.98432e-14
9.52973e-15
1.98247e-14
9.55398e-15
1.98057e-14
9.57867e-15
1.97865e-14
9.60391e-15
1.97671e-14
9.62943e-15
1.9748e-14
9.65553e-15
1.97283e-14
9.68214e-15
1.97078e-14
9.70995e-15
1.96866e-14
9.73827e-15
1.96651e-14
9.76701e-15
1.96434e-14
9.79608e-15
1.96216e-14
9.82538e-15
1.95988e-14
9.85539e-15
1.95753e-14
9.88545e-15
1.95523e-14
9.91584e-15
1.95295e-14
9.94682e-15
1.95061e-14
9.97828e-15
1.94821e-14
1.00101e-14
1.9457e-14
1.00428e-14
1.94314e-14
1.00759e-14
1.94062e-14
1.01095e-14
1.93803e-14
1.01432e-14
1.9354e-14
1.01773e-14
1.93277e-14
1.02118e-14
1.93013e-14
1.02468e-14
1.92743e-14
1.02824e-14
1.92461e-14
1.03199e-14
1.92182e-14
1.03578e-14
1.91903e-14
1.03953e-14
1.91615e-14
1.04338e-14
1.91314e-14
1.04731e-14
1.91006e-14
1.05134e-14
1.90691e-14
1.05529e-14
1.90375e-14
1.05931e-14
1.90061e-14
1.06343e-14
1.89748e-14
1.06751e-14
1.89431e-14
1.07155e-14
1.89117e-14
1.07575e-14
1.88791e-14
1.08001e-14
1.88452e-14
1.08428e-14
1.88114e-14
1.08859e-14
1.87777e-14
1.09294e-14
1.87434e-14
1.09727e-14
1.87085e-14
1.1017e-14
1.86729e-14
1.10619e-14
1.86371e-14
1.1107e-14
1.86012e-14
1.11524e-14
1.85648e-14
1.11986e-14
1.85282e-14
1.12441e-14
1.84916e-14
1.12906e-14
1.8455e-14
1.13381e-14
1.84174e-14
1.13843e-14
1.83798e-14
1.14316e-14
1.83418e-14
1.14795e-14
1.83039e-14
1.15279e-14
1.82656e-14
1.15768e-14
1.8227e-14
1.16258e-14
1.81883e-14
1.1675e-14
1.81491e-14
1.17247e-14
1.81096e-14
1.17733e-14
1.80693e-14
1.18216e-14
1.80301e-14
1.18696e-14
1.79923e-14
1.19184e-14
1.79532e-14
1.1967e-14
1.79125e-14
1.20149e-14
1.78724e-14
1.20632e-14
1.78319e-14
1.21122e-14
1.77897e-14
1.21605e-14
1.7748e-14
1.22106e-14
1.77067e-14
1.22606e-14
1.76644e-14
1.23099e-14
1.76208e-14
1.23602e-14
1.75791e-14
1.24104e-14
1.75376e-14
1.24605e-14
1.74956e-14
1.25107e-14
1.74544e-14
1.25613e-14
1.74133e-14
1.26122e-14
1.73716e-14
1.26628e-14
1.73297e-14
1.27123e-14
1.72886e-14
1.27621e-14
1.72472e-14
1.28126e-14
1.72051e-14
1.28635e-14
1.71636e-14
1.29153e-14
1.71228e-14
1.29665e-14
1.70819e-14
1.30152e-14
1.70407e-14
1.30632e-14
1.69993e-14
1.31116e-14
1.6958e-14
1.3161e-14
1.69182e-14
1.32106e-14
1.68783e-14
1.32595e-14
1.68369e-14
1.33069e-14
1.67947e-14
1.33535e-14
1.67542e-14
1.34014e-14
1.67132e-14
1.34498e-14
1.66715e-14
1.34956e-14
1.66316e-14
1.35426e-14
1.65905e-14
1.35891e-14
1.65497e-14
1.36337e-14
1.65092e-14
1.36784e-14
1.64683e-14
1.37226e-14
1.64284e-14
1.37668e-14
1.63889e-14
1.38104e-14
1.6349e-14
1.3854e-14
1.63087e-14
1.38961e-14
1.62694e-14
1.39382e-14
1.62303e-14
1.39789e-14
1.61908e-14
1.40202e-14
1.61515e-14
1.40614e-14
1.61131e-14
1.41019e-14
1.60774e-14
1.41416e-14
1.60423e-14
1.41806e-14
1.60086e-14
1.42189e-14
1.59754e-14
1.42565e-14
1.5942e-14
1.42934e-14
1.59097e-14
1.43291e-14
1.58783e-14
1.43636e-14
1.58477e-14
1.43968e-14
1.58173e-14
1.44297e-14
1.57862e-14
1.44627e-14
1.57556e-14
1.44947e-14
1.57254e-14
1.45258e-14
1.56949e-14
1.45554e-14
1.56645e-14
1.45842e-14
1.56347e-14
1.46124e-14
1.56079e-14
1.464e-14
1.55813e-14
1.46653e-14
1.55548e-14
1.46895e-14
1.55295e-14
1.47122e-14
1.5509e-14
1.4736e-14
1.54856e-14
1.47571e-14
1.54616e-14
1.47783e-14
1.54393e-14
1.47933e-14
1.54209e-14
1.48098e-14
1.54027e-14
1.48253e-14
1.53845e-14
1.48399e-14
1.53684e-14
1.48537e-14
1.53545e-14
1.4868e-14
1.53412e-14
1.48805e-14
1.53284e-14
1.4891e-14
1.5316e-14
1.49023e-14
1.53051e-14
1.49092e-14
1.52981e-14
1.49132e-14
1.52899e-14
1.49166e-14
1.5279e-14
1.4922e-14
1.52693e-14
1.49269e-14
1.52632e-14
1.49339e-14
1.5258e-14
1.49416e-14
1.52485e-14
1.49477e-14
1.52358e-14
1.49535e-14
1.52235e-14
1.49647e-14
1.52101e-14
1.49759e-14
1.51925e-14
1.49863e-14
1.51744e-14
1.49933e-14
1.5161e-14
1.49984e-14
1.51537e-14
1.5006e-14
1.51392e-14
1.50135e-14
1.51186e-14
1.50167e-14
1.51063e-14
1.50171e-14
1.50994e-14
1.50148e-14
1.50979e-14
1.50143e-14
1.50907e-14
1.50176e-14
1.50808e-14
1.50182e-14
1.50729e-14
1.50212e-14
1.50759e-14
1.50251e-14
1.50667e-14
1.50283e-14
1.50519e-14
1.50251e-14
1.50502e-14
1.5027e-14
1.50464e-14
1.50284e-14
1.50446e-14
1.50313e-14
1.5032e-14
1.50296e-14
1.50296e-14
1.50298e-14
1.50312e-14
1.50248e-14
1.50302e-14
1.50193e-14
1.50287e-14
1.50081e-14
1.5037e-14
1.50008e-14
1.50405e-14
1.49973e-14
1.50443e-14
1.49921e-14
1.5049e-14
1.49907e-14
1.50377e-14
1.4976e-14
1.50268e-14
1.49712e-14
1.50102e-14
1.49709e-14
1.49997e-14
1.49626e-14
1.50019e-14
1.49523e-14
1.50045e-14
1.49397e-14
1.50215e-14
1.49377e-14
1.50195e-14
1.49327e-14
1.49972e-14
1.49251e-14
1.49823e-14
1.49149e-14
1.49827e-14
1.49096e-14
1.49914e-14
1.49012e-14
1.49777e-14
1.49143e-14
1.49483e-14
1.48932e-14
1.49341e-14
1.48787e-14
1.49024e-14
1.48718e-14
1.49042e-14
1.48725e-14
1.4897e-14
1.48725e-14
1.48984e-14
1.48444e-14
1.48718e-14
1.48059e-14
1.48722e-14
1.47931e-14
1.48732e-14
1.47575e-14
1.48858e-14
1.47461e-14
1.48631e-14
1.47199e-14
1.48035e-14
1.469e-14
1.47452e-14
1.46672e-14
1.47392e-14
1.46403e-14
1.47775e-14
1.46163e-14
1.47794e-14
1.46048e-14
1.47134e-14
1.45866e-14
1.46515e-14
1.45746e-14
1.46244e-14
1.45698e-14
1.46206e-14
1.45613e-14
1.4653e-14
1.45471e-14
1.46122e-14
1.45172e-14
1.45531e-14
1.44846e-14
1.4507e-14
1.44734e-14
1.45081e-14
1.44594e-14
1.44997e-14
1.43956e-14
1.44468e-14
1.43885e-14
1.43966e-14
1.43818e-14
1.43696e-14
1.43418e-14
1.43781e-14
1.42901e-14
1.43782e-14
1.42712e-14
1.43005e-14
1.42895e-14
1.42616e-14
1.42528e-14
1.42323e-14
1.42332e-14
1.41882e-14
1.42327e-14
1.4178e-14
1.42047e-14
1.41765e-14
1.4147e-14
1.41358e-14
1.41063e-14
1.41578e-14
1.40774e-14
1.40762e-14
1.40396e-14
1.40344e-14
1.39923e-14
1.40555e-14
1.39784e-14
1.40224e-14
1.39526e-14
1.40353e-14
1.38856e-14
1.39994e-14
1.38462e-14
1.39946e-14
1.38574e-14
1.39268e-14
1.38272e-14
1.39392e-14
1.38251e-14
1.39379e-14
1.38505e-14
1.39229e-14
1.38622e-14
1.38898e-14
1.38411e-14
1.38317e-14
1.38404e-14
1.38402e-14
1.38365e-14
1.38697e-14
1.38236e-14
1.38253e-14
1.38043e-14
1.38009e-14
1.38047e-14
1.38151e-14
1.38007e-14
1.38426e-14
1.37909e-14
1.37869e-14
1.37837e-14
1.37794e-14
1.64697e-14
1.65933e-14
1.64695e-14
1.65933e-14
1.64693e-14
1.65932e-14
1.6469e-14
1.65931e-14
1.64686e-14
1.6593e-14
1.64681e-14
1.65929e-14
1.64675e-14
1.65927e-14
1.64668e-14
1.65925e-14
1.64659e-14
1.65922e-14
1.6465e-14
1.65919e-14
1.64639e-14
1.65916e-14
1.64627e-14
1.65913e-14
1.64614e-14
1.65909e-14
1.646e-14
1.65905e-14
1.64585e-14
1.65902e-14
1.64568e-14
1.65898e-14
1.64551e-14
1.65893e-14
1.64533e-14
1.65889e-14
1.64514e-14
1.65883e-14
1.64494e-14
1.65877e-14
1.64472e-14
1.65871e-14
1.64449e-14
1.65865e-14
1.64425e-14
1.6586e-14
1.64399e-14
1.65854e-14
1.64374e-14
1.65844e-14
1.64347e-14
1.65835e-14
1.64317e-14
1.65825e-14
1.64287e-14
1.65816e-14
1.64258e-14
1.65807e-14
1.64227e-14
1.65796e-14
1.64195e-14
1.65783e-14
1.64161e-14
1.65771e-14
1.64127e-14
1.6576e-14
1.64094e-14
1.65748e-14
1.64058e-14
1.65735e-14
1.6402e-14
1.65723e-14
1.63983e-14
1.6571e-14
1.63944e-14
1.65697e-14
1.63905e-14
1.65681e-14
1.63864e-14
1.65666e-14
1.63822e-14
1.65651e-14
1.63777e-14
1.65637e-14
1.63732e-14
1.65622e-14
1.63687e-14
1.65607e-14
1.63642e-14
1.65591e-14
1.63595e-14
1.65576e-14
1.63547e-14
1.65562e-14
1.63499e-14
1.6555e-14
1.63448e-14
1.65535e-14
1.63395e-14
1.6552e-14
1.63343e-14
1.65506e-14
1.63288e-14
1.65495e-14
1.63238e-14
1.65482e-14
1.63187e-14
1.65467e-14
1.63134e-14
1.65454e-14
1.63079e-14
1.65444e-14
1.63024e-14
1.65433e-14
1.62972e-14
1.65423e-14
1.62918e-14
1.65411e-14
1.62862e-14
1.65397e-14
1.62809e-14
1.65381e-14
1.62755e-14
1.65364e-14
1.62702e-14
1.65348e-14
1.62646e-14
1.65333e-14
1.62588e-14
1.65316e-14
1.62537e-14
1.65296e-14
1.62481e-14
1.65275e-14
1.62426e-14
1.65256e-14
1.6237e-14
1.65234e-14
1.62313e-14
1.65209e-14
1.62259e-14
1.65184e-14
1.62204e-14
1.65159e-14
1.62153e-14
1.65134e-14
1.62099e-14
1.65111e-14
1.62041e-14
1.65089e-14
1.61985e-14
1.65067e-14
1.61928e-14
1.65043e-14
1.61873e-14
1.65021e-14
1.61819e-14
1.64995e-14
1.61761e-14
1.64968e-14
1.61704e-14
1.64941e-14
1.61649e-14
1.6491e-14
1.61596e-14
1.64879e-14
1.61542e-14
1.64853e-14
1.61491e-14
1.64824e-14
1.61441e-14
1.6479e-14
1.61394e-14
1.64757e-14
1.61344e-14
1.64721e-14
1.61295e-14
1.64686e-14
1.61246e-14
1.64656e-14
1.61201e-14
1.64618e-14
1.61155e-14
1.6458e-14
1.61104e-14
1.64544e-14
1.61047e-14
1.64501e-14
1.60994e-14
1.64455e-14
1.60944e-14
1.64411e-14
1.60893e-14
1.6437e-14
1.60837e-14
1.64334e-14
1.60782e-14
1.64288e-14
1.60725e-14
1.64241e-14
1.60674e-14
1.642e-14
1.60607e-14
1.64165e-14
1.60554e-14
1.64125e-14
1.60506e-14
1.64082e-14
1.60452e-14
1.64042e-14
1.60401e-14
1.64e-14
1.60339e-14
1.6396e-14
1.6028e-14
1.63921e-14
1.60219e-14
1.63875e-14
1.60162e-14
1.6383e-14
1.60112e-14
1.63784e-14
1.60057e-14
1.63733e-14
1.59998e-14
1.63679e-14
1.59942e-14
1.63625e-14
1.5989e-14
1.63568e-14
1.5985e-14
1.63505e-14
1.59788e-14
1.63447e-14
1.59725e-14
1.63394e-14
1.59666e-14
1.63337e-14
1.59607e-14
1.63278e-14
1.59549e-14
1.63215e-14
1.59495e-14
1.63144e-14
1.59439e-14
1.6308e-14
1.59386e-14
1.63022e-14
1.59334e-14
1.62965e-14
1.59279e-14
1.62911e-14
1.59222e-14
1.62852e-14
1.59162e-14
1.628e-14
1.59097e-14
1.6274e-14
1.59043e-14
1.62672e-14
1.58997e-14
1.62601e-14
1.58945e-14
1.62535e-14
1.58888e-14
1.62462e-14
1.58831e-14
1.62385e-14
1.58781e-14
1.62306e-14
1.58732e-14
1.62232e-14
1.58687e-14
1.62159e-14
1.58643e-14
1.62082e-14
1.58599e-14
1.62007e-14
1.58551e-14
1.61929e-14
1.58505e-14
1.61843e-14
1.58447e-14
1.61758e-14
1.58404e-14
1.61687e-14
1.58363e-14
1.61609e-14
1.58319e-14
1.61519e-14
1.58274e-14
1.61435e-14
1.58231e-14
1.61356e-14
1.58191e-14
1.6129e-14
1.58154e-14
1.61216e-14
1.58112e-14
1.61137e-14
1.58066e-14
1.61058e-14
1.58011e-14
1.60984e-14
1.57964e-14
1.60908e-14
1.57925e-14
1.60829e-14
1.57879e-14
1.60741e-14
1.57841e-14
1.60646e-14
1.57815e-14
1.60548e-14
1.5776e-14
1.60457e-14
1.57713e-14
1.6037e-14
1.57676e-14
1.6029e-14
1.5764e-14
1.60207e-14
1.57606e-14
1.60115e-14
1.57581e-14
1.60015e-14
1.57544e-14
1.59927e-14
1.57524e-14
1.59853e-14
1.57492e-14
1.59778e-14
1.57462e-14
1.59708e-14
1.57436e-14
1.59653e-14
1.57406e-14
1.59589e-14
1.57372e-14
1.59518e-14
1.57342e-14
1.5946e-14
1.57322e-14
1.59396e-14
1.5732e-14
1.59318e-14
1.57314e-14
1.59255e-14
1.57299e-14
1.592e-14
1.57281e-14
1.59139e-14
1.57268e-14
1.59079e-14
1.57252e-14
1.59028e-14
1.57241e-14
1.5898e-14
1.57242e-14
1.58907e-14
1.57241e-14
1.58844e-14
1.57225e-14
1.58777e-14
1.57214e-14
1.58714e-14
1.57195e-14
1.58642e-14
1.57163e-14
1.58575e-14
1.57156e-14
1.58505e-14
1.57141e-14
1.5844e-14
1.57146e-14
1.58368e-14
1.57138e-14
1.58283e-14
1.57142e-14
1.5821e-14
1.57135e-14
1.58136e-14
1.57128e-14
1.58051e-14
1.57122e-14
1.57985e-14
1.57118e-14
1.57926e-14
1.57122e-14
1.57863e-14
1.57134e-14
1.57789e-14
1.57155e-14
1.57717e-14
1.57148e-14
1.57679e-14
1.57137e-14
1.57638e-14
1.57137e-14
1.57568e-14
1.57122e-14
1.57509e-14
1.57093e-14
1.57461e-14
1.57024e-14
1.57448e-14
1.5698e-14
1.57411e-14
1.56945e-14
1.57373e-14
1.56922e-14
1.57338e-14
1.56909e-14
1.57304e-14
1.56884e-14
1.57247e-14
1.56857e-14
1.57181e-14
1.56842e-14
1.57119e-14
1.56816e-14
1.57072e-14
1.56777e-14
1.57029e-14
1.56739e-14
1.56965e-14
1.56779e-14
1.56867e-14
1.56772e-14
1.56811e-14
1.56678e-14
1.56824e-14
1.5656e-14
1.56817e-14
1.56469e-14
1.56791e-14
1.56406e-14
1.56787e-14
1.56316e-14
1.5678e-14
1.56238e-14
1.56759e-14
1.56143e-14
1.56751e-14
1.56101e-14
1.56733e-14
1.56054e-14
1.56718e-14
1.56046e-14
1.56693e-14
1.56004e-14
1.56689e-14
1.5594e-14
1.56633e-14
1.55947e-14
1.56537e-14
1.5595e-14
1.56527e-14
1.55948e-14
1.56525e-14
1.55926e-14
1.56481e-14
1.5595e-14
1.56377e-14
1.55937e-14
1.56421e-14
1.55975e-14
1.56383e-14
1.56012e-14
1.56297e-14
1.56009e-14
1.56293e-14
1.56085e-14
1.56196e-14
1.56063e-14
1.56185e-14
1.56084e-14
1.5622e-14
1.56085e-14
1.56219e-14
1.56087e-14
1.56202e-14
1.56067e-14
1.56214e-14
1.55998e-14
1.56234e-14
1.55976e-14
1.56314e-14
1.56003e-14
1.56355e-14
1.56083e-14
1.56248e-14
1.56002e-14
1.56143e-14
1.55921e-14
1.56154e-14
1.55897e-14
1.56173e-14
1.55994e-14
1.56142e-14
1.55911e-14
1.56056e-14
1.55894e-14
1.56041e-14
1.55749e-14
1.56101e-14
1.55668e-14
1.56178e-14
1.5558e-14
1.56345e-14
1.55407e-14
1.56256e-14
1.55288e-14
1.56197e-14
1.55224e-14
1.5625e-14
1.54982e-14
1.5619e-14
1.54704e-14
1.56097e-14
1.54627e-14
1.56056e-14
1.54422e-14
1.55659e-14
1.54175e-14
1.55221e-14
1.53976e-14
1.55085e-14
1.53914e-14
1.54906e-14
1.53633e-14
1.5486e-14
1.53297e-14
1.5487e-14
1.53081e-14
1.54767e-14
1.52892e-14
1.54455e-14
1.5254e-14
1.5431e-14
1.52211e-14
1.54043e-14
1.51999e-14
1.53454e-14
1.51824e-14
1.52827e-14
1.5171e-14
1.52559e-14
1.51458e-14
1.52651e-14
1.51264e-14
1.52271e-14
1.51032e-14
1.51822e-14
1.50881e-14
1.51302e-14
1.5061e-14
1.51138e-14
1.50323e-14
1.50678e-14
1.50022e-14
1.50123e-14
1.4972e-14
1.49666e-14
1.49305e-14
1.49648e-14
1.48987e-14
1.49303e-14
1.48771e-14
1.48864e-14
1.48196e-14
1.48543e-14
1.4759e-14
1.48234e-14
1.47175e-14
1.47966e-14
1.46694e-14
1.47278e-14
1.45904e-14
1.4687e-14
1.45618e-14
1.46638e-14
1.45355e-14
1.46337e-14
1.4487e-14
1.45985e-14
1.44869e-14
1.45599e-14
1.44654e-14
1.44902e-14
1.44012e-14
1.44595e-14
1.43641e-14
1.44454e-14
1.4352e-14
1.43997e-14
1.42943e-14
1.43195e-14
1.4268e-14
1.42994e-14
1.42477e-14
1.42926e-14
1.42078e-14
1.42522e-14
1.41236e-14
1.42007e-14
1.40895e-14
1.41662e-14
1.40799e-14
1.41215e-14
1.40005e-14
1.40626e-14
1.39986e-14
1.39893e-14
1.39806e-14
1.3969e-14
1.39732e-14
1.39744e-14
1.39243e-14
1.3957e-14
1.39263e-14
1.39459e-14
1.39298e-14
1.39409e-14
1.38879e-14
1.38948e-14
1.38981e-14
1.39282e-14
1.39085e-14
1.38953e-14
1.38774e-14
1.39399e-14
1.38426e-14
1.39794e-14
1.37898e-14
1.40523e-14
1.37681e-14
1.40853e-14
1.37418e-14
1.40724e-14
1.37808e-14
1.38195e-14
1.37776e-14
1.37988e-14
1.37771e-14
1.38372e-14
1.37661e-14
1.38285e-14
1.37443e-14
1.37724e-14
1.37651e-14
1.37612e-14
1.37853e-14
1.36886e-14
1.37421e-14
1.36603e-14
1.37296e-14
1.36583e-14
1.37001e-14
1.37127e-14
1.36641e-14
1.36652e-14
1.36208e-14
1.36131e-14
1.35943e-14
1.3603e-14
1.35634e-14
1.35355e-14
1.35084e-14
1.35055e-14
1.34521e-14
1.34914e-14
1.34161e-14
1.34248e-14
1.33536e-14
1.34037e-14
1.3285e-14
1.33592e-14
1.3233e-14
1.32453e-14
1.31768e-14
1.32044e-14
1.31406e-14
1.31625e-14
1.30762e-14
1.31451e-14
1.30302e-14
1.30576e-14
1.29574e-14
1.29952e-14
1.29066e-14
1.29573e-14
1.28516e-14
1.29194e-14
1.27913e-14
1.28349e-14
1.27281e-14
1.2826e-14
1.26812e-14
1.27494e-14
1.26524e-14
1.26259e-14
1.26233e-14
1.25942e-14
1.25815e-14
1.26063e-14
1.25242e-14
1.2582e-14
1.24861e-14
1.25488e-14
1.24433e-14
1.25061e-14
1.24067e-14
1.24304e-14
1.23446e-14
1.2377e-14
1.22916e-14
1.23461e-14
1.22464e-14
1.23155e-14
1.21968e-14
1.22526e-14
1.21552e-14
1.22017e-14
1.21225e-14
1.21743e-14
1.20544e-14
1.2116e-14
1.20156e-14
1.20822e-14
1.19842e-14
1.20296e-14
1.19301e-14
1.19473e-14
1.18758e-14
1.18864e-14
1.18419e-14
1.18564e-14
1.18277e-14
1.18363e-14
1.17932e-14
1.17955e-14
1.17492e-14
1.17442e-14
1.17059e-14
1.17212e-14
1.16814e-14
1.17167e-14
1.16376e-14
1.16754e-14
1.15931e-14
1.16529e-14
1.15644e-14
1.16583e-14
1.15586e-14
1.16399e-14
1.15411e-14
1.16068e-14
1.15214e-14
1.15763e-14
1.15162e-14
1.1564e-14
1.15255e-14
1.15292e-14
1.14955e-14
1.15103e-14
1.14807e-14
1.15141e-14
1.14796e-14
1.15032e-14
1.14704e-14
1.14852e-14
1.14539e-14
1.14673e-14
1.14373e-14
1.1463e-14
1.14334e-14
1.14655e-14
1.14287e-14
1.14549e-14
1.14235e-14
1.14568e-14
1.14177e-14
1.14584e-14
1.1411e-14
1.14603e-14
1.14034e-14
1.14454e-14
1.13949e-14
1.14369e-14
1.13909e-14
1.1445e-14
1.13857e-14
1.14431e-14
1.13792e-14
1.14217e-14
1.13718e-14
1.14159e-14
1.13731e-14
1.14199e-14
1.13732e-14
1.1422e-14
1.13702e-14
1.14224e-14
1.13682e-14
1.14126e-14
1.13654e-14
1.14056e-14
1.13578e-14
1.14032e-14
1.13515e-14
1.13974e-14
1.13445e-14
1.13904e-14
1.13332e-14
1.13858e-14
1.13266e-14
1.13871e-14
1.13226e-14
1.13838e-14
1.13211e-14
1.13763e-14
1.1317e-14
1.13729e-14
1.13122e-14
1.13701e-14
1.13112e-14
1.13619e-14
1.13094e-14
1.13543e-14
1.1307e-14
1.13563e-14
1.13082e-14
1.13514e-14
1.13101e-14
1.13456e-14
1.13087e-14
1.13415e-14
1.1304e-14
1.13405e-14
1.13015e-14
1.13412e-14
1.12998e-14
1.13421e-14
1.12975e-14
1.13421e-14
1.12933e-14
1.13424e-14
1.12886e-14
1.13444e-14
1.1287e-14
1.13442e-14
1.12887e-14
1.13407e-14
1.12859e-14
1.13376e-14
1.12838e-14
1.13362e-14
1.1285e-14
1.13339e-14
1.12843e-14
1.1332e-14
1.1282e-14
1.13317e-14
1.12778e-14
1.13292e-14
1.1277e-14
1.13259e-14
1.12782e-14
1.13241e-14
1.12777e-14
1.13238e-14
1.12743e-14
1.13201e-14
1.12717e-14
1.13166e-14
1.127e-14
1.13133e-14
1.12667e-14
1.13115e-14
1.1268e-14
1.13087e-14
1.12714e-14
1.13048e-14
1.12708e-14
1.13023e-14
1.12737e-14
1.12975e-14
1.12726e-14
1.12952e-14
1.12732e-14
1.12937e-14
1.12743e-14
1.12897e-14
1.12772e-14
1.12844e-14
1.12768e-14
1.12811e-14
1.12757e-14
1.12796e-14
1.12759e-14
1.12781e-14
1.12747e-14
1.1276e-14
1.12721e-14
1.12745e-14
1.12702e-14
1.1273e-14
1.12702e-14
1.12714e-14
1.12688e-14
1.12692e-14
1.12661e-14
1.12663e-14
1.12646e-14
1.12653e-14
1.12625e-14
1.12663e-14
1.12616e-14
1.12667e-14
1.12608e-14
1.1265e-14
1.12591e-14
1.12633e-14
1.12582e-14
1.12617e-14
1.12571e-14
1.126e-14
1.12567e-14
1.12583e-14
1.12556e-14
1.12572e-14
1.12552e-14
1.12562e-14
1.12554e-14
1.12544e-14
1.12535e-14
1.12533e-14
1.12544e-14
1.12521e-14
1.12546e-14
1.12503e-14
1.12533e-14
1.12491e-14
1.12528e-14
1.12486e-14
1.12529e-14
1.12481e-14
1.12531e-14
1.12483e-14
1.12532e-14
1.12484e-14
1.12519e-14
1.12485e-14
1.12506e-14
1.12487e-14
1.12499e-14
1.12465e-14
1.12486e-14
1.12451e-14
1.12472e-14
1.12445e-14
1.12473e-14
1.1243e-14
1.12474e-14
1.12407e-14
1.12452e-14
1.124e-14
1.12437e-14
1.124e-14
1.12431e-14
1.12395e-14
1.12427e-14
1.12398e-14
1.12439e-14
1.12401e-14
1.12432e-14
1.12389e-14
1.12405e-14
1.12368e-14
1.12389e-14
1.12354e-14
1.12377e-14
1.12349e-14
1.12369e-14
1.12355e-14
1.1236e-14
1.12357e-14
1.12343e-14
1.1235e-14
1.12326e-14
1.12348e-14
1.12321e-14
1.12345e-14
1.12307e-14
1.1233e-14
1.12293e-14
1.12314e-14
1.12283e-14
1.12324e-14
1.12285e-14
1.12333e-14
1.1227e-14
1.1233e-14
1.12259e-14
1.12326e-14
1.12251e-14
1.12327e-14
1.12239e-14
1.12327e-14
1.12222e-14
1.12323e-14
1.1221e-14
1.12323e-14
1.1221e-14
1.12328e-14
1.12205e-14
1.12332e-14
1.12195e-14
1.12332e-14
1.12186e-14
1.12332e-14
1.12175e-14
1.12327e-14
1.12164e-14
1.12322e-14
1.12158e-14
1.12322e-14
1.12146e-14
1.12326e-14
1.12134e-14
1.12326e-14
1.12136e-14
1.12316e-14
1.12128e-14
1.12311e-14
1.12124e-14
1.12315e-14
1.12122e-14
1.12322e-14
1.12118e-14
1.12324e-14
1.12113e-14
1.12326e-14
1.12113e-14
1.12325e-14
1.12112e-14
1.12332e-14
1.12111e-14
1.12339e-14
1.12108e-14
1.12346e-14
1.12106e-14
1.12345e-14
1.12102e-14
1.12345e-14
1.12097e-14
1.12349e-14
1.12092e-14
1.12357e-14
1.12081e-14
1.12367e-14
1.12081e-14
1.12369e-14
1.1208e-14
1.12363e-14
1.12073e-14
1.12359e-14
1.12072e-14
1.12362e-14
1.12068e-14
1.12361e-14
1.12063e-14
1.12355e-14
1.12058e-14
1.12349e-14
1.12059e-14
1.12342e-14
1.12059e-14
1.12342e-14
1.12053e-14
1.12347e-14
1.12044e-14
1.1235e-14
1.12043e-14
1.12344e-14
1.12043e-14
1.12346e-14
1.12036e-14
1.12349e-14
1.12031e-14
1.12349e-14
1.1203e-14
1.12346e-14
1.12035e-14
1.12342e-14
1.12041e-14
1.12344e-14
1.12044e-14
1.12347e-14
1.12043e-14
1.12347e-14
1.12042e-14
1.12335e-14
1.12045e-14
1.12328e-14
1.12051e-14
1.12323e-14
1.12053e-14
1.12323e-14
1.12051e-14
1.12323e-14
1.12051e-14
1.12322e-14
1.12046e-14
1.1232e-14
1.12042e-14
1.1232e-14
1.1204e-14
1.12324e-14
1.12036e-14
1.1233e-14
1.12035e-14
1.12334e-14
1.1203e-14
1.12337e-14
1.12024e-14
1.12341e-14
1.12021e-14
1.12339e-14
1.1202e-14
1.12338e-14
1.1202e-14
1.12338e-14
1.12017e-14
1.12341e-14
1.12013e-14
1.12343e-14
1.1201e-14
1.12344e-14
1.12008e-14
1.12345e-14
1.12008e-14
1.12345e-14
1.12009e-14
1.12339e-14
1.12006e-14
1.1234e-14
1.12003e-14
1.12345e-14
1.12002e-14
1.12348e-14
1.12e-14
1.12348e-14
1.11998e-14
1.12346e-14
1.11993e-14
1.12346e-14
1.11992e-14
1.12345e-14
1.11989e-14
1.12343e-14
1.11986e-14
1.12343e-14
1.11985e-14
1.12346e-14
1.11985e-14
1.12347e-14
1.11983e-14
1.12344e-14
1.11982e-14
1.12342e-14
1.11983e-14
1.12341e-14
1.11982e-14
1.12338e-14
1.1198e-14
1.12336e-14
1.1198e-14
1.12334e-14
1.11983e-14
1.12332e-14
1.11985e-14
1.12329e-14
1.11987e-14
1.12326e-14
1.11988e-14
1.12325e-14
1.11988e-14
1.12325e-14
1.11988e-14
1.12324e-14
1.11989e-14
1.12324e-14
1.11991e-14
1.12325e-14
1.11993e-14
1.12324e-14
1.11993e-14
1.12325e-14
1.11994e-14
1.12326e-14
1.11994e-14
1.12326e-14
1.11993e-14
1.12327e-14
1.11993e-14
1.12328e-14
1.11992e-14
1.12326e-14
1.11991e-14
1.12327e-14
1.1199e-14
1.12329e-14
1.11989e-14
1.1233e-14
1.11988e-14
1.1233e-14
1.11987e-14
1.12332e-14
1.11985e-14
1.12334e-14
1.11985e-14
1.12335e-14
1.11985e-14
1.12334e-14
1.11984e-14
1.12333e-14
1.11984e-14
1.12333e-14
1.11984e-14
1.12334e-14
1.11984e-14
1.12336e-14
1.11984e-14
1.12337e-14
1.11983e-14
1.12338e-14
1.11982e-14
1.12338e-14
1.11982e-14
1.12338e-14
1.11982e-14
1.12339e-14
1.11981e-14
1.12339e-14
1.11981e-14
1.1234e-14
1.11982e-14
1.1234e-14
1.11982e-14
1.1234e-14
1.11982e-14
1.1234e-14
1.11982e-14
1.1234e-14
1.11983e-14
1.12339e-14
1.11983e-14
1.1234e-14
1.11983e-14
1.1234e-14
1.11983e-14
1.12339e-14
1.11983e-14
1.12339e-14
1.11983e-14
1.12339e-14
1.11983e-14
1.12339e-14
1.11983e-14
1.12339e-14
1.11983e-14
1.12339e-14
1.11983e-14
1.12339e-14
1.11983e-14
1.12339e-14
1.11983e-14
1.12339e-14
1.37051e-14
1.40423e-14
1.37027e-14
1.40146e-14
1.37897e-14
1.39332e-14
1.37818e-14
1.39308e-14
1.37768e-14
1.38855e-14
1.37826e-14
1.3914e-14
1.38202e-14
1.39233e-14
1.3821e-14
1.38393e-14
1.37498e-14
1.37948e-14
1.37739e-14
1.37653e-14
1.37788e-14
1.3738e-14
1.37709e-14
1.37353e-14
1.36505e-14
1.37357e-14
1.35988e-14
1.37035e-14
1.35371e-14
1.36679e-14
1.34623e-14
1.36053e-14
1.34231e-14
1.35392e-14
1.33719e-14
1.3466e-14
1.33121e-14
1.33804e-14
1.32974e-14
1.3328e-14
1.32323e-14
1.32826e-14
1.31652e-14
1.32204e-14
1.30943e-14
1.3166e-14
1.3018e-14
1.31191e-14
1.29577e-14
1.30836e-14
1.29121e-14
1.30624e-14
1.28546e-14
1.2983e-14
1.27873e-14
1.28918e-14
1.27616e-14
1.28605e-14
1.27298e-14
1.28381e-14
1.27167e-14
1.27534e-14
1.27032e-14
1.26762e-14
1.26461e-14
1.26609e-14
1.25664e-14
1.26125e-14
1.25214e-14
1.26041e-14
1.25083e-14
1.25672e-14
1.24466e-14
1.2536e-14
1.23814e-14
1.24784e-14
1.23354e-14
1.24529e-14
1.22844e-14
1.24029e-14
1.22286e-14
1.23621e-14
1.21672e-14
1.22644e-14
1.21351e-14
1.22075e-14
1.21002e-14
1.21557e-14
1.20424e-14
1.21191e-14
1.19824e-14
1.20659e-14
1.19404e-14
1.20076e-14
1.18963e-14
1.19439e-14
1.18615e-14
1.19152e-14
1.18456e-14
1.19106e-14
1.17978e-14
1.18704e-14
1.17677e-14
1.1806e-14
1.17177e-14
1.17932e-14
1.16755e-14
1.17849e-14
1.16578e-14
1.1754e-14
1.16374e-14
1.17285e-14
1.16151e-14
1.1699e-14
1.16e-14
1.16735e-14
1.1575e-14
1.16258e-14
1.15579e-14
1.15978e-14
1.15323e-14
1.15882e-14
1.15298e-14
1.15729e-14
1.15185e-14
1.15753e-14
1.15213e-14
1.1565e-14
1.15013e-14
1.15642e-14
1.14876e-14
1.15514e-14
1.14729e-14
1.15274e-14
1.14643e-14
1.15197e-14
1.14484e-14
1.15342e-14
1.14375e-14
1.15446e-14
1.14308e-14
1.15393e-14
1.14282e-14
1.15132e-14
1.14239e-14
1.1508e-14
1.14296e-14
1.14994e-14
1.14284e-14
1.1493e-14
1.14263e-14
1.14886e-14
1.14235e-14
1.14912e-14
1.14148e-14
1.14853e-14
1.14103e-14
1.14668e-14
1.14006e-14
1.14597e-14
1.13996e-14
1.14519e-14
1.14046e-14
1.14543e-14
1.14004e-14
1.14534e-14
1.13978e-14
1.14392e-14
1.13909e-14
1.14324e-14
1.13838e-14
1.14265e-14
1.13766e-14
1.14273e-14
1.13691e-14
1.14199e-14
1.13632e-14
1.14101e-14
1.13605e-14
1.13961e-14
1.13576e-14
1.13864e-14
1.13564e-14
1.13822e-14
1.13551e-14
1.13769e-14
1.13538e-14
1.1369e-14
1.13526e-14
1.13644e-14
1.13516e-14
1.13661e-14
1.13463e-14
1.13651e-14
1.13482e-14
1.13614e-14
1.13488e-14
1.13595e-14
1.13494e-14
1.13605e-14
1.13515e-14
1.13563e-14
1.13525e-14
1.13523e-14
1.13483e-14
1.13483e-14
1.13444e-14
1.13444e-14
1.13407e-14
1.13431e-14
1.13399e-14
1.13432e-14
1.13379e-14
1.13408e-14
1.13362e-14
1.13358e-14
1.13321e-14
1.13333e-14
1.13307e-14
1.13322e-14
1.13295e-14
1.13311e-14
1.13285e-14
1.13299e-14
1.13263e-14
1.13288e-14
1.13218e-14
1.13277e-14
1.13212e-14
1.13266e-14
1.13219e-14
1.13281e-14
1.13202e-14
1.13271e-14
1.13185e-14
1.13237e-14
1.13195e-14
1.13204e-14
1.13207e-14
1.13171e-14
1.13207e-14
1.13138e-14
1.13172e-14
1.13116e-14
1.13163e-14
1.13083e-14
1.13105e-14
1.13074e-14
1.13061e-14
1.1304e-14
1.13049e-14
1.13012e-14
1.13025e-14
1.13003e-14
1.13002e-14
1.12988e-14
1.1298e-14
1.12948e-14
1.12952e-14
1.12907e-14
1.1293e-14
1.12899e-14
1.12915e-14
1.12884e-14
1.12907e-14
1.12857e-14
1.12868e-14
1.12835e-14
1.12867e-14
1.12827e-14
1.12854e-14
1.12806e-14
1.12822e-14
1.12778e-14
1.12796e-14
1.12756e-14
1.12784e-14
1.12755e-14
1.12799e-14
1.12753e-14
1.12787e-14
1.12752e-14
1.12776e-14
1.12744e-14
1.12765e-14
1.12722e-14
1.12755e-14
1.12707e-14
1.12772e-14
1.12692e-14
1.12762e-14
1.12683e-14
1.12753e-14
1.12689e-14
1.12723e-14
1.12687e-14
1.12721e-14
1.12672e-14
1.1272e-14
1.12635e-14
1.12697e-14
1.12619e-14
1.1269e-14
1.12625e-14
1.12682e-14
1.12623e-14
1.12689e-14
1.12607e-14
1.12675e-14
1.12613e-14
1.12668e-14
1.12626e-14
1.12669e-14
1.12624e-14
1.12662e-14
1.12616e-14
1.12649e-14
1.12607e-14
1.12642e-14
1.12613e-14
1.12637e-14
1.12619e-14
1.12631e-14
1.12617e-14
1.1264e-14
1.12601e-14
1.12642e-14
1.12592e-14
1.12667e-14
1.12599e-14
1.1267e-14
1.1261e-14
1.12685e-14
1.12601e-14
1.12684e-14
1.12604e-14
1.12695e-14
1.12611e-14
1.12719e-14
1.12614e-14
1.12727e-14
1.12617e-14
1.12719e-14
1.12629e-14
1.1272e-14
1.1264e-14
1.12725e-14
1.12655e-14
1.12735e-14
1.12671e-14
1.12737e-14
1.12679e-14
1.12743e-14
1.12687e-14
1.12745e-14
1.12695e-14
1.12756e-14
1.12703e-14
1.12755e-14
1.12724e-14
1.12758e-14
1.12733e-14
1.12761e-14
1.12737e-14
1.12773e-14
1.12742e-14
1.1279e-14
1.12756e-14
1.12808e-14
1.12765e-14
1.12817e-14
1.12771e-14
1.12821e-14
1.12776e-14
1.12831e-14
1.12787e-14
1.12837e-14
1.12788e-14
1.12842e-14
1.12776e-14
1.12844e-14
1.12769e-14
1.12864e-14
1.12771e-14
1.12875e-14
1.12782e-14
1.12892e-14
1.12793e-14
1.12895e-14
1.12805e-14
1.12912e-14
1.12811e-14
1.12925e-14
1.12809e-14
1.12938e-14
1.12807e-14
1.12942e-14
1.12819e-14
1.12954e-14
1.12819e-14
1.12959e-14
1.12817e-14
1.12966e-14
1.12822e-14
1.12974e-14
1.12823e-14
1.1298e-14
1.12823e-14
1.12989e-14
1.12824e-14
1.12998e-14
1.12821e-14
1.13002e-14
1.12827e-14
1.13014e-14
1.1282e-14
1.13014e-14
1.12815e-14
1.13022e-14
1.12805e-14
1.13024e-14
1.12801e-14
1.1303e-14
1.1279e-14
1.13039e-14
1.1278e-14
1.13048e-14
1.12767e-14
1.13063e-14
1.12756e-14
1.13076e-14
1.12748e-14
1.13087e-14
1.1274e-14
1.13097e-14
1.12729e-14
1.13103e-14
1.12718e-14
1.13105e-14
1.12707e-14
1.13106e-14
1.12698e-14
1.13109e-14
1.12689e-14
1.1311e-14
1.12678e-14
1.13117e-14
1.12662e-14
1.13112e-14
1.12656e-14
1.1311e-14
1.12644e-14
1.13105e-14
1.12631e-14
1.13107e-14
1.12621e-14
1.1311e-14
1.12614e-14
1.13115e-14
1.12607e-14
1.13115e-14
1.12603e-14
1.13111e-14
1.12596e-14
1.13101e-14
1.12588e-14
1.13096e-14
1.12583e-14
1.13089e-14
1.12582e-14
1.13079e-14
1.12581e-14
1.13069e-14
1.1258e-14
1.13057e-14
1.12575e-14
1.13051e-14
1.12572e-14
1.13041e-14
1.12576e-14
1.13031e-14
1.12581e-14
1.13023e-14
1.12579e-14
1.13018e-14
1.12578e-14
1.1301e-14
1.1258e-14
1.13004e-14
1.12583e-14
1.12996e-14
1.12579e-14
1.12995e-14
1.12578e-14
1.12987e-14
1.12582e-14
1.12977e-14
1.12586e-14
1.12967e-14
1.12587e-14
1.1296e-14
1.12589e-14
1.12954e-14
1.12591e-14
1.12949e-14
1.12589e-14
1.12942e-14
1.12593e-14
1.1293e-14
1.12602e-14
1.12922e-14
1.12604e-14
1.12916e-14
1.12602e-14
1.1291e-14
1.126e-14
1.12907e-14
1.126e-14
1.12903e-14
1.12604e-14
1.12897e-14
1.12607e-14
1.12894e-14
1.12609e-14
1.12887e-14
1.12612e-14
1.12884e-14
1.12619e-14