/*--------------------------------*- C++ -*----------------------------------*\
| =========                 |                                                 |
| \\      /  F ield         | OpenFOAM: The Open Source CFD Toolbox           |
|  \\    /   O peration     | Version:  2012                                  |
|   \\  /    A nd           | Website:  www.openfoam.com                      |
|    \\/     M anipulation  |                                                 |
\*---------------------------------------------------------------------------*/
FoamFile
{
    version     2.0;
    format      ascii;
    class       volVectorField;
    location    "3000";
    object      U;
}
// * * * * * * * * * * * * * * * * * * * * * * * * * * * * * * * * * * * * * //

dimensions      [0 1 -1 0 0 0 0];


internalField   nonuniform List<vector> 
2560
(
(0.00206154 -9.86878e-16 -5.98552e-18)
(0.00206154 -1.50444e-19 3.43022e-23)
(0.0062136 -3.31611e-15 -1.66185e-18)
(0.0062136 2.87416e-20 -1.6064e-21)
(0.0104242 -3.24622e-15 -1.95345e-18)
(0.0104242 -5.71356e-21 -1.66887e-21)
(0.014693 -3.04016e-15 -1.63317e-18)
(0.014693 2.36005e-20 -2.64477e-21)
(0.0190198 -3.06185e-15 -1.37604e-18)
(0.0190198 5.11719e-20 -3.96317e-21)
(0.0234041 -3.0188e-15 -1.15574e-18)
(0.0234041 8.44281e-20 -5.41731e-21)
(0.0278456 -3.02335e-15 -9.08633e-19)
(0.0278456 1.12493e-19 -6.83926e-21)
(0.032344 -3.02327e-15 -6.29629e-19)
(0.032344 1.16526e-19 -8.20841e-21)
(0.0368988 -3.02232e-15 -3.27539e-19)
(0.0368988 1.2631e-19 -9.79052e-21)
(0.0415096 -3.02217e-15 -8.34083e-21)
(0.0415096 1.56659e-19 -1.17391e-20)
(0.046176 -3.02206e-15 3.25795e-19)
(0.046176 1.74504e-19 -1.37899e-20)
(0.0508976 -3.02205e-15 6.73829e-19)
(0.0508976 1.68461e-19 -1.6079e-20)
(0.0556738 -3.02209e-15 1.03562e-18)
(0.0556738 1.77983e-19 -1.84526e-20)
(0.0605043 -3.02216e-15 1.41145e-18)
(0.0605043 2.06955e-19 -2.10505e-20)
(0.0653883 -3.0222e-15 1.8018e-18)
(0.0653883 1.90938e-19 -2.31644e-20)
(0.0703256 -3.02222e-15 2.2072e-18)
(0.0703256 1.62964e-19 -2.50779e-20)
(0.0753154 -3.02231e-15 2.62815e-18)
(0.0753154 1.6404e-19 -2.76188e-20)
(0.0803573 -3.02246e-15 3.06505e-18)
(0.0803573 1.47568e-19 -3.15204e-20)
(0.0854507 -3.02256e-15 3.51853e-18)
(0.0854507 1.50801e-19 -3.54365e-20)
(0.0905949 -3.02283e-15 3.98915e-18)
(0.0905949 1.21992e-19 -3.90181e-20)
(0.0957894 -3.02247e-15 4.47733e-18)
(0.0957894 4.19811e-20 -4.22446e-20)
(0.101034 -3.02265e-15 4.98384e-18)
(0.101034 -2.25778e-20 -4.56642e-20)
(0.106327 -3.02273e-15 5.5091e-18)
(0.106327 -4.55734e-20 -4.94639e-20)
(0.111668 -3.02285e-15 6.05368e-18)
(0.111668 -9.66427e-20 -5.46094e-20)
(0.117057 -3.02287e-15 6.61783e-18)
(0.117057 -1.6655e-19 -6.06417e-20)
(0.122493 -3.02289e-15 7.20273e-18)
(0.122493 -2.09101e-19 -6.66197e-20)
(0.127976 -3.02298e-15 7.80908e-18)
(0.127976 -2.15696e-19 -7.12849e-20)
(0.133504 -3.02306e-15 8.43698e-18)
(0.133504 -2.4415e-19 -7.49061e-20)
(0.139076 -3.02303e-15 9.08714e-18)
(0.139076 -2.77599e-19 -7.95621e-20)
(0.144693 -3.02296e-15 9.7606e-18)
(0.144693 -3.54747e-19 -8.76024e-20)
(0.150353 -3.02285e-15 1.0458e-17)
(0.150353 -5.73199e-19 -9.83643e-20)
(0.156056 -3.02277e-15 1.118e-17)
(0.156056 -7.28548e-19 -1.06097e-19)
(0.161801 -3.02278e-15 1.19266e-17)
(0.161801 -8.01566e-19 -1.11318e-19)
(0.167586 -3.02265e-15 1.26981e-17)
(0.167586 -1.04907e-18 -1.17151e-19)
(0.173412 -3.02253e-15 1.3497e-17)
(0.173412 -1.33635e-18 -1.23201e-19)
(0.179277 -3.02258e-15 1.43233e-17)
(0.179277 -1.50975e-18 -1.33683e-19)
(0.18518 -3.0226e-15 1.51771e-17)
(0.18518 -1.62191e-18 -1.47463e-19)
(0.191122 -3.02251e-15 1.60599e-17)
(0.191122 -1.66858e-18 -1.59101e-19)
(0.1971 -3.02243e-15 1.69725e-17)
(0.1971 -1.70759e-18 -1.72497e-19)
(0.203114 -3.02222e-15 1.79155e-17)
(0.203114 -1.82127e-18 -1.88137e-19)
(0.209163 -3.02193e-15 1.88903e-17)
(0.209163 -2.02534e-18 -1.98453e-19)
(0.215247 -3.02162e-15 1.98984e-17)
(0.215247 -2.18521e-18 -2.06218e-19)
(0.221364 -3.02131e-15 2.09404e-17)
(0.221364 -2.58913e-18 -2.18046e-19)
(0.227513 -3.02101e-15 2.20171e-17)
(0.227513 -3.10164e-18 -2.37085e-19)
(0.233694 -3.02085e-15 2.313e-17)
(0.233694 -3.35271e-18 -2.54679e-19)
(0.239906 -3.02084e-15 2.42792e-17)
(0.239906 -3.44116e-18 -2.70748e-19)
(0.246148 -3.02068e-15 2.54661e-17)
(0.246148 -3.62902e-18 -2.83338e-19)
(0.252418 -3.02052e-15 2.6691e-17)
(0.252418 -4.06885e-18 -2.96172e-19)
(0.258716 -3.02024e-15 2.79554e-17)
(0.258716 -4.56378e-18 -3.11739e-19)
(0.265041 -3.02003e-15 2.92613e-17)
(0.265041 -5.17369e-18 -3.30281e-19)
(0.271393 -3.01961e-15 3.06067e-17)
(0.271393 -5.98598e-18 -3.4837e-19)
(0.277769 -3.01888e-15 3.19969e-17)
(0.277769 -6.92766e-18 -3.65179e-19)
(0.28417 -3.01834e-15 3.343e-17)
(0.28417 -7.91638e-18 -3.90482e-19)
(0.290593 -3.01766e-15 3.49078e-17)
(0.290593 -8.03788e-18 -4.13521e-19)
(0.297039 -3.01694e-15 3.64322e-17)
(0.297039 -8.97676e-18 -4.27698e-19)
(0.303506 -3.01644e-15 3.80035e-17)
(0.303506 -9.36791e-18 -4.44029e-19)
(0.309994 -3.0162e-15 3.96209e-17)
(0.309994 -9.30995e-18 -4.69005e-19)
(0.3165 -3.01606e-15 4.12834e-17)
(0.3165 -1.01965e-17 -4.95923e-19)
(0.323025 -3.0157e-15 4.29945e-17)
(0.323025 -1.04198e-17 -5.22864e-19)
(0.329567 -3.01493e-15 4.47579e-17)
(0.329567 -1.10489e-17 -5.49033e-19)
(0.336126 -3.01395e-15 4.65729e-17)
(0.336126 -1.20069e-17 -5.71946e-19)
(0.342699 -3.013e-15 4.84407e-17)
(0.342699 -1.27511e-17 -5.89581e-19)
(0.349287 -3.01182e-15 5.03645e-17)
(0.349287 -1.41763e-17 -6.11271e-19)
(0.355888 -3.01026e-15 5.23472e-17)
(0.355888 -1.5052e-17 -6.29867e-19)
(0.362501 -3.00914e-15 5.43906e-17)
(0.362501 -1.58981e-17 -6.48108e-19)
(0.369126 -3.00841e-15 5.64888e-17)
(0.369126 -1.66463e-17 -6.76107e-19)
(0.37576 -3.00732e-15 5.67343e-17)
(0.37576 -1.71409e-17 -7.17248e-19)
(0.382404 -3.00623e-15 5.52964e-17)
(0.382404 -1.83764e-17 -7.48232e-19)
(0.389055 -3.00505e-15 5.37588e-17)
(0.389055 -1.96295e-17 -7.81135e-19)
(0.395714 -3.0035e-15 5.21106e-17)
(0.395714 -2.07795e-17 -8.06977e-19)
(0.402378 -3.00187e-15 5.03762e-17)
(0.402378 -2.18214e-17 -8.41051e-19)
(0.409047 -3.0006e-15 4.84954e-17)
(0.409047 -2.36143e-17 -8.73839e-19)
(0.41572 -2.99894e-15 4.64826e-17)
(0.41572 -2.53594e-17 -8.9174e-19)
(0.422396 -2.99683e-15 4.43169e-17)
(0.422396 -2.69624e-17 -9.12262e-19)
(0.429073 -2.99519e-15 4.20384e-17)
(0.429073 -2.84005e-17 -9.25034e-19)
(0.43575 -2.99399e-15 3.96152e-17)
(0.43575 -2.92463e-17 -9.75232e-19)
(0.442428 -2.99307e-15 3.70457e-17)
(0.442428 -2.99112e-17 -1.03241e-18)
(0.449103 -2.99203e-15 3.42737e-17)
(0.449103 -3.10806e-17 -1.08968e-18)
(0.455776 -2.99054e-15 3.13322e-17)
(0.455776 -3.2799e-17 -1.13106e-18)
(0.462445 -2.98871e-15 2.82226e-17)
(0.462445 -3.43372e-17 -1.17193e-18)
(0.469109 -2.98632e-15 2.49191e-17)
(0.469109 -3.64914e-17 -1.20332e-18)
(0.475767 -2.9838e-15 2.13598e-17)
(0.475767 -3.93648e-17 -1.23501e-18)
(0.482418 -2.98147e-15 1.75416e-17)
(0.482418 -4.12884e-17 -1.27974e-18)
(0.489061 -2.97838e-15 1.3561e-17)
(0.489061 -4.34654e-17 -1.30014e-18)
(0.495694 -2.9753e-15 9.34991e-18)
(0.495694 -4.65869e-17 -1.31753e-18)
(0.502317 -2.97279e-15 4.88077e-18)
(0.502317 -4.81977e-17 -1.37222e-18)
(0.508929 -2.97056e-15 1.59678e-19)
(0.508929 -5.01566e-17 -1.43558e-18)
(0.515528 -2.96761e-15 -4.81164e-18)
(0.515528 -5.29164e-17 -1.52464e-18)
(0.522113 -2.96444e-15 -1.00785e-17)
(0.522113 -5.52485e-17 -1.59111e-18)
(0.528684 -2.96161e-15 -1.55537e-17)
(0.528684 -5.86944e-17 -1.63541e-18)
(0.535239 -2.95772e-15 -2.13539e-17)
(0.535239 -6.26824e-17 -1.68821e-18)
(0.541777 -2.95353e-15 -2.74402e-17)
(0.541777 -6.62794e-17 -1.74549e-18)
(0.548297 -2.9498e-15 -3.38096e-17)
(0.548297 -6.98437e-17 -1.7819e-18)
(0.554798 -2.94547e-15 -4.04368e-17)
(0.554798 -7.40236e-17 -1.84186e-18)
(0.561279 -2.9416e-15 -4.74604e-17)
(0.561279 -7.78989e-17 -1.88633e-18)
(0.567739 -2.93953e-15 -5.48669e-17)
(0.567739 -7.98499e-17 -1.99083e-18)
(0.574176 -2.93681e-15 -6.26045e-17)
(0.574176 -8.19529e-17 -2.07888e-18)
(0.580591 -2.93177e-15 -7.05834e-17)
(0.580591 -8.60054e-17 -2.15299e-18)
(0.586981 -2.92622e-15 -7.88379e-17)
(0.586981 -8.97006e-17 -2.27728e-18)
(0.593346 -2.922e-15 -8.75439e-17)
(0.593346 -9.24578e-17 -2.42102e-18)
(0.599684 -2.91739e-15 -9.67485e-17)
(0.599684 -9.47368e-17 -2.49791e-18)
(0.605995 -2.91147e-15 -1.06487e-16)
(0.605995 -9.90752e-17 -2.55929e-18)
(0.612278 -2.90565e-15 -1.16611e-16)
(0.612278 -1.04548e-16 -2.59733e-18)
(0.618532 -2.89993e-15 -1.27203e-16)
(0.618532 -1.08916e-16 -2.64589e-18)
(0.624755 -2.89371e-15 -1.38363e-16)
(0.624755 -1.15667e-16 -2.67688e-18)
(0.630947 -2.88677e-15 -1.49948e-16)
(0.630947 -1.21794e-16 -2.75059e-18)
(0.637107 -2.88073e-15 -1.61884e-16)
(0.637107 -1.26055e-16 -2.79937e-18)
(0.643234 -2.87558e-15 -1.74475e-16)
(0.643234 -1.31253e-16 -2.9626e-18)
(0.649327 -2.86948e-15 -1.87622e-16)
(0.649327 -1.36268e-16 -3.12507e-18)
(0.655385 -2.8627e-15 -2.01168e-16)
(0.655385 -1.41552e-16 -3.24112e-18)
(0.661407 -2.8557e-15 -2.15196e-16)
(0.661407 -1.47548e-16 -3.32774e-18)
(0.667393 -2.84888e-15 -2.29801e-16)
(0.667393 -1.53841e-16 -3.44633e-18)
(0.673341 -2.84212e-15 -2.44955e-16)
(0.673341 -1.61132e-16 -3.54637e-18)
(0.679251 -2.83526e-15 -2.60856e-16)
(0.679251 -1.67374e-16 -3.67137e-18)
(0.685122 -2.82687e-15 -2.77444e-16)
(0.685122 -1.75447e-16 -3.75266e-18)
(0.690953 -2.81896e-15 -2.94674e-16)
(0.690953 -1.83106e-16 -3.85886e-18)
(0.696743 -2.81144e-15 -3.12369e-16)
(0.696743 -1.89034e-16 -4.04544e-18)
(0.702492 -2.80177e-15 -3.30713e-16)
(0.702492 -1.96297e-16 -4.18802e-18)
(0.708199 -2.79156e-15 -3.49528e-16)
(0.708199 -2.03058e-16 -4.32769e-18)
(0.713863 -2.78248e-15 -3.69132e-16)
(0.713863 -2.12248e-16 -4.4029e-18)
(0.719484 -2.77151e-15 -3.89776e-16)
(0.719484 -2.20968e-16 -4.4774e-18)
(0.725061 -2.75955e-15 -4.10993e-16)
(0.725061 -2.28777e-16 -4.52404e-18)
(0.730594 -2.75073e-15 -4.33203e-16)
(0.730594 -2.3714e-16 -4.59169e-18)
(0.736081 -2.74225e-15 -4.50253e-16)
(0.736081 -2.45279e-16 -4.7046e-18)
(0.741522 -2.73364e-15 -4.54495e-16)
(0.741522 -2.5128e-16 -4.84105e-18)
(0.746917 -2.72464e-15 -4.58566e-16)
(0.746917 -2.57615e-16 -4.97346e-18)
(0.752265 -2.71361e-15 -4.6261e-16)
(0.752265 -2.66554e-16 -5.03342e-18)
(0.757566 -2.7026e-15 -4.66612e-16)
(0.757566 -2.75222e-16 -5.11632e-18)
(0.762819 -2.68869e-15 -4.70489e-16)
(0.762819 -2.8469e-16 -5.19283e-18)
(0.768024 -2.67291e-15 -4.74455e-16)
(0.768024 -2.94415e-16 -5.2932e-18)
(0.77318 -2.66028e-15 -4.78452e-16)
(0.77318 -3.05335e-16 -5.26356e-18)
(0.778287 -2.64704e-15 -4.82501e-16)
(0.778287 -3.15615e-16 -5.22357e-18)
(0.783345 -2.63179e-15 -4.86267e-16)
(0.783345 -3.2675e-16 -5.51138e-18)
(0.788353 -2.61628e-15 -4.89787e-16)
(0.788353 -3.37815e-16 -5.75479e-18)
(0.793311 -2.60356e-15 -4.93267e-16)
(0.793311 -3.46275e-16 -5.83141e-18)
(0.798219 -2.59122e-15 -4.96219e-16)
(0.798219 -3.55317e-16 -6.07697e-18)
(0.803077 -2.57746e-15 -4.9866e-16)
(0.803077 -3.66645e-16 -6.42049e-18)
(0.807883 -2.56643e-15 -5.00941e-16)
(0.807883 -3.76484e-16 -6.51368e-18)
(0.812639 -2.55415e-15 -5.02993e-16)
(0.812639 -3.85585e-16 -6.55327e-18)
(0.817343 -2.53989e-15 -5.04866e-16)
(0.817343 -3.98531e-16 -6.68948e-18)
(0.821996 -2.52849e-15 -5.06407e-16)
(0.821996 -4.10953e-16 -6.93808e-18)
(0.826598 -2.51562e-15 -5.07816e-16)
(0.826598 -4.21225e-16 -6.846e-18)
(0.831148 -2.50091e-15 -5.09037e-16)
(0.831148 -4.35729e-16 -6.97318e-18)
(0.835646 -2.48611e-15 -5.09925e-16)
(0.835646 -4.50856e-16 -7.16827e-18)
(0.840093 -2.47034e-15 -5.10563e-16)
(0.840093 -4.6169e-16 -7.24512e-18)
(0.844487 -2.45562e-15 -5.10938e-16)
(0.844487 -4.76496e-16 -7.39057e-18)
(0.84883 -2.43818e-15 -5.10893e-16)
(0.84883 -4.89836e-16 -7.60761e-18)
(0.853121 -2.41901e-15 -5.1051e-16)
(0.853121 -5.03775e-16 -7.87357e-18)
(0.85736 -2.40365e-15 -5.09958e-16)
(0.85736 -5.15822e-16 -8.05746e-18)
(0.861547 -2.39032e-15 -5.08684e-16)
(0.861547 -5.27107e-16 -8.45382e-18)
(0.865682 -2.37556e-15 -5.06976e-16)
(0.865682 -5.40849e-16 -8.606e-18)
(0.869766 -2.36228e-15 -5.05156e-16)
(0.869766 -5.49793e-16 -8.62885e-18)
(0.873797 -2.34636e-15 -5.03001e-16)
(0.873797 -5.63577e-16 -8.6439e-18)
(0.877777 -2.32501e-15 -5.0086e-16)
(0.877777 -5.77349e-16 -8.63719e-18)
(0.881705 -2.30384e-15 -4.98727e-16)
(0.881705 -5.91134e-16 -8.76723e-18)
(0.885581 -2.28426e-15 -4.96507e-16)
(0.885581 -6.09968e-16 -8.7895e-18)
(0.889407 -2.26808e-15 -4.94129e-16)
(0.889407 -6.19587e-16 -8.8635e-18)
(0.89318 -2.25378e-15 -4.91016e-16)
(0.89318 -6.23504e-16 -9.21922e-18)
(0.896903 -2.23776e-15 -4.87275e-16)
(0.896903 -6.35462e-16 -9.54738e-18)
(0.900574 -2.21771e-15 -4.83019e-16)
(0.900574 -6.47041e-16 -9.84818e-18)
(0.904194 -2.19762e-15 -4.78429e-16)
(0.904194 -6.54483e-16 -1.02791e-17)
(0.907764 -2.18143e-15 -4.73925e-16)
(0.907764 -6.64425e-16 -9.9784e-18)
(0.911283 -2.16523e-15 -4.68938e-16)
(0.911283 -6.74316e-16 -1.01867e-17)
(0.914751 -2.1501e-15 -4.63559e-16)
(0.914751 -6.88393e-16 -1.03975e-17)
(0.918169 -2.13556e-15 -4.58959e-16)
(0.918169 -7.02188e-16 -9.83926e-18)
(0.921536 -2.1188e-15 -4.53793e-16)
(0.921536 -7.13226e-16 -1.01474e-17)
(0.924854 -2.10282e-15 -4.48463e-16)
(0.924854 -7.2294e-16 -1.02545e-17)
(0.928122 -2.08512e-15 -4.42938e-16)
(0.928122 -7.34076e-16 -1.03639e-17)
(0.931339 -2.06557e-15 -4.37289e-16)
(0.931339 -7.47246e-16 -1.05835e-17)
(0.934508 -2.04971e-15 -4.31591e-16)
(0.934508 -7.55579e-16 -1.05938e-17)
(0.937626 -2.03079e-15 -4.25376e-16)
(0.937626 -7.64691e-16 -1.0716e-17)
(0.940696 -2.01025e-15 -4.18882e-16)
(0.940696 -7.75613e-16 -1.09575e-17)
(0.943716 -1.99379e-15 -4.11722e-16)
(0.943716 -7.86648e-16 -1.12111e-17)
(0.946688 -1.97144e-15 -4.04321e-16)
(0.946688 -7.99449e-16 -1.125e-17)
(0.94961 -1.94836e-15 -3.97129e-16)
(0.94961 -8.11366e-16 -1.11444e-17)
(0.952484 -1.93353e-15 -3.89445e-16)
(0.952484 -8.17014e-16 -1.14391e-17)
(0.955309 -1.91568e-15 -3.80718e-16)
(0.955309 -8.31218e-16 -1.16341e-17)
(0.958086 -1.89671e-15 -3.72543e-16)
(0.958086 -8.48376e-16 -1.11621e-17)
(0.960815 -1.87638e-15 -3.64564e-16)
(0.960815 -8.58988e-16 -1.06085e-17)
(0.963496 -1.85544e-15 -3.56695e-16)
(0.963496 -8.75592e-16 -1.04298e-17)
(0.966128 -1.8346e-15 -3.4876e-16)
(0.966128 -8.91063e-16 -1.0133e-17)
(0.968713 -1.81386e-15 -3.40914e-16)
(0.968713 -9.0151e-16 -9.9716e-18)
(0.97125 -1.79394e-15 -3.32711e-16)
(0.97125 -9.09935e-16 -9.95125e-18)
(0.973739 -1.76854e-15 -3.24379e-16)
(0.973739 -9.1962e-16 -9.9914e-18)
(0.97618 -1.7438e-15 -3.16652e-16)
(0.97618 -9.35631e-16 -9.73793e-18)
(0.978574 -1.72381e-15 -3.09221e-16)
(0.978574 -9.46063e-16 -9.49499e-18)
(0.98092 -1.70784e-15 -3.01298e-16)
(0.98092 -9.50437e-16 -9.723e-18)
(0.983219 -1.69262e-15 -2.92223e-16)
(0.983219 -9.56805e-16 -2.45482e-17)
(0.985471 -1.67596e-15 -2.82711e-16)
(0.985471 -9.62745e-16 -4.1515e-17)
(0.987675 -1.6574e-15 -2.73662e-16)
(0.987675 -9.6814e-16 -5.9337e-17)
(0.989832 -1.63844e-15 -2.78386e-16)
(0.989832 -9.75309e-16 -7.29146e-17)
(0.991942 -1.62155e-15 -2.92475e-16)
(0.991942 -9.80968e-16 -7.79396e-17)
(0.994004 -1.59847e-15 -3.06404e-16)
(0.994004 -9.8814e-16 -8.40079e-17)
(0.996019 -1.57406e-15 -3.0485e-16)
(0.996019 -9.99116e-16 -8.88697e-17)
(0.997986 -1.55564e-15 -3.03569e-16)
(0.997986 -1.01292e-15 -9.31754e-17)
(0.999907 -1.53468e-15 -3.0268e-16)
(0.999907 -1.02961e-15 -9.71395e-17)
(1.00178 -1.51247e-15 -3.02635e-16)
(1.00178 -1.03211e-15 -1.01147e-16)
(1.00361 -1.49219e-15 -3.03051e-16)
(1.00361 -1.03077e-15 -1.05818e-16)
(1.00538 -1.47417e-15 -3.02432e-16)
(1.00538 -1.04024e-15 -1.12202e-16)
(1.00711 -1.45256e-15 -3.01283e-16)
(1.00711 -1.03913e-15 -1.18319e-16)
(1.0088 -1.41813e-15 -2.99003e-16)
(1.0088 -1.04486e-15 -1.2455e-16)
(1.01043 -1.38982e-15 -2.98038e-16)
(1.01043 -1.05668e-15 -1.28679e-16)
(1.01202 -1.37204e-15 -2.94848e-16)
(1.01202 -1.05649e-15 -1.32393e-16)
(1.01356 -1.35109e-15 -2.92612e-16)
(1.01356 -1.05895e-15 -1.37249e-16)
(1.01505 -1.3341e-15 -2.90995e-16)
(1.01505 -1.06835e-15 -1.40018e-16)
(1.01649 -1.31887e-15 -2.89178e-16)
(1.01649 -1.07249e-15 -1.4149e-16)
(1.01789 -1.29795e-15 -2.85929e-16)
(1.01789 -1.07394e-15 -1.42859e-16)
(1.01924 -1.27581e-15 -2.82918e-16)
(1.01924 -1.07645e-15 -1.43407e-16)
(1.02054 -1.26314e-15 -2.79647e-16)
(1.02054 -1.07961e-15 -1.42618e-16)
(1.02179 -1.24329e-15 -2.74827e-16)
(1.02179 -1.08693e-15 -1.41343e-16)
(1.02299 -1.21045e-15 -2.71884e-16)
(1.02299 -1.08696e-15 -1.39187e-16)
(1.02415 -1.1905e-15 -2.70515e-16)
(1.02415 -1.0903e-15 -1.38214e-16)
(1.02526 -1.18233e-15 -2.6947e-16)
(1.02526 -1.08451e-15 -1.3713e-16)
(1.02632 -1.17998e-15 -2.69473e-16)
(1.02632 -1.07581e-15 -1.34294e-16)
(1.02733 -1.17813e-15 -2.66364e-16)
(1.02733 -1.07682e-15 -1.31248e-16)
(1.0283 -1.17403e-15 -2.58933e-16)
(1.0283 -1.06195e-15 -1.29635e-16)
(1.02921 -1.16917e-15 -2.50508e-16)
(1.02921 -1.04633e-15 -1.30249e-16)
(1.03009 -1.16402e-15 -2.43548e-16)
(1.03009 -1.04497e-15 -1.30809e-16)
(1.03091 -1.17389e-15 -2.36578e-16)
(1.03091 -1.01886e-15 -1.31383e-16)
(1.0317 -1.1851e-15 -2.24963e-16)
(1.0317 -9.93152e-16 -1.33665e-16)
(1.03244 -1.1752e-15 -2.1362e-16)
(1.03244 -9.99238e-16 -1.38303e-16)
(1.03313 -1.15481e-15 -2.02973e-16)
(1.03313 -1.00483e-15 -1.45106e-16)
(1.03378 -1.13757e-15 -1.96056e-16)
(1.03378 -1.00966e-15 -1.49458e-16)
(1.03439 -1.13838e-15 -1.88333e-16)
(1.03439 -1.00713e-15 -1.51455e-16)
(1.03497 -1.13442e-15 -1.79662e-16)
(1.03497 -9.90264e-16 -1.54958e-16)
(1.0355 -1.10938e-15 -1.70663e-16)
(1.0355 -9.826e-16 -1.60667e-16)
(1.036 -1.08272e-15 -1.63073e-16)
(1.036 -1.00801e-15 -1.61581e-16)
(1.03646 -1.06101e-15 -1.60416e-16)
(1.03646 -1.02943e-15 -1.55762e-16)
(1.03689 -1.06609e-15 -1.59179e-16)
(1.03689 -1.02187e-15 -1.51686e-16)
(1.03728 -1.06413e-15 -1.54383e-16)
(1.03728 -1.01814e-15 -1.5155e-16)
(1.03765 -1.07745e-15 -1.46077e-16)
(1.03765 -1.02945e-15 -1.50554e-16)
(1.03799 -1.06897e-15 -1.41879e-16)
(1.03799 -1.02699e-15 -1.46727e-16)
(1.0383 -1.06657e-15 -1.36389e-16)
(1.0383 -1.0155e-15 -1.43729e-16)
(1.03859 -1.0654e-15 -1.35248e-16)
(1.03859 -1.01099e-15 -1.41619e-16)
(1.03885 -1.04684e-15 -1.33663e-16)
(1.03885 -1.00446e-15 -1.43138e-16)
(1.0391 -1.03864e-15 -1.33446e-16)
(1.0391 -1.00926e-15 -1.44222e-16)
(1.03932 -1.04219e-15 -1.34635e-16)
(1.03932 -1.00943e-15 -1.40474e-16)
(1.03953 -1.03439e-15 -1.31334e-16)
(1.03953 -9.96534e-16 -1.39696e-16)
(1.03973 -1.02002e-15 -1.29582e-16)
(1.03973 -1.01645e-15 -1.42955e-16)
(1.03991 -1.01461e-15 -1.29332e-16)
(1.03991 -1.00661e-15 -1.39593e-16)
(1.04007 -9.96734e-16 -1.28121e-16)
(1.04007 -1.01466e-15 -1.33231e-16)
(1.04023 -9.7663e-16 -1.30056e-16)
(1.04023 -1.02864e-15 -1.28091e-16)
(1.04038 -9.6641e-16 -1.27852e-16)
(1.04038 -1.01905e-15 -1.25645e-16)
(1.04051 -9.78477e-16 -1.28064e-16)
(1.04051 -1.00074e-15 -1.24681e-16)
(1.04065 -9.81015e-16 -1.28283e-16)
(1.04065 -9.90827e-16 -1.26468e-16)
(1.04077 -9.71984e-16 -1.34477e-16)
(1.04077 -9.917e-16 -1.21384e-16)
(1.04089 -9.68976e-16 -1.37202e-16)
(1.04089 -9.92635e-16 -1.18967e-16)
(1.041 -9.51734e-16 -1.39247e-16)
(1.041 -9.72892e-16 -1.22611e-16)
(1.04111 -9.47036e-16 -1.4598e-16)
(1.04111 -9.48874e-16 -1.29005e-16)
(1.04122 -9.42718e-16 -1.50475e-16)
(1.04122 -9.48236e-16 -1.35206e-16)
(1.04132 -9.22765e-16 -1.53756e-16)
(1.04132 -9.35831e-16 -1.35496e-16)
(1.04143 -9.20859e-16 -1.6109e-16)
(1.04143 -9.38317e-16 -1.37658e-16)
(1.04153 -9.17802e-16 -1.60672e-16)
(1.04153 -9.49338e-16 -1.41212e-16)
(1.04163 -9.36489e-16 -1.63324e-16)
(1.04163 -9.37437e-16 -1.42119e-16)
(1.04173 -9.29711e-16 -1.61522e-16)
(1.04173 -9.15452e-16 -1.49065e-16)
(1.04183 -9.10109e-16 -1.56461e-16)
(1.04183 -9.04934e-16 -1.55244e-16)
(1.04193 -8.97078e-16 -1.57692e-16)
(1.04193 -9.05456e-16 -1.57666e-16)
(1.04203 -9.00232e-16 -1.58292e-16)
(1.04203 -9.03007e-16 -1.56424e-16)
(1.04213 -9.00979e-16 -1.52222e-16)
(1.04213 -8.93766e-16 -1.48346e-16)
(1.04223 -9.0596e-16 -1.43978e-16)
(1.04223 -8.71905e-16 -1.44527e-16)
(1.04233 -9.15032e-16 -1.33193e-16)
(1.04233 -8.59303e-16 -1.5254e-16)
(1.04244 -8.94338e-16 -1.20016e-16)
(1.04244 -8.77459e-16 -1.47742e-16)
(1.04254 -8.89963e-16 -1.08677e-16)
(1.04254 -9.05984e-16 -1.43108e-16)
(1.04265 -9.0209e-16 -1.00312e-16)
(1.04265 -9.04928e-16 -1.31587e-16)
(1.04276 -8.96699e-16 -9.65174e-17)
(1.04276 -8.9025e-16 -1.26088e-16)
(1.04287 -8.78862e-16 -8.8237e-17)
(1.04287 -8.89813e-16 -1.22579e-16)
(1.04298 -8.40151e-16 -8.76396e-17)
(1.04298 -8.94383e-16 -1.26421e-16)
(1.0431 -8.4289e-16 -9.4756e-17)
(1.0431 -8.89185e-16 -1.19997e-16)
(1.04321 -8.43097e-16 -8.07895e-17)
(1.04321 -8.71347e-16 -1.14296e-16)
(1.04333 -8.52623e-16 -7.52089e-17)
(1.04333 -8.47323e-16 -1.06464e-16)
(1.04345 -8.62713e-16 -6.40074e-17)
(1.04345 -8.42572e-16 -1.04093e-16)
(1.04357 -8.4192e-16 -6.86425e-17)
(1.04357 -8.55505e-16 -9.52129e-17)
(1.0437 -8.36999e-16 -7.32679e-17)
(1.0437 -8.55795e-16 -9.45915e-17)
(1.04383 -8.40519e-16 -8.09144e-17)
(1.04383 -8.49593e-16 -9.13719e-17)
(1.04396 -8.30456e-16 -9.05876e-17)
(1.04396 -8.45649e-16 -9.14275e-17)
(1.04409 -8.26627e-16 -9.6012e-17)
(1.04409 -8.31494e-16 -8.0593e-17)
(1.04422 -8.4502e-16 -9.41323e-17)
(1.04422 -8.22217e-16 -8.07583e-17)
(1.04436 -8.50467e-16 -9.54863e-17)
(1.04436 -8.08107e-16 -7.81467e-17)
(1.04449 -8.48041e-16 -8.94751e-17)
(1.04449 -8.04972e-16 -8.41285e-17)
(1.04463 -8.41128e-16 -8.20135e-17)
(1.04463 -8.14315e-16 -7.96416e-17)
(1.04478 -8.2941e-16 -7.46922e-17)
(1.04478 -8.05751e-16 -6.6445e-17)
(1.04492 -8.2342e-16 -7.25514e-17)
(1.04492 -7.97399e-16 -6.91999e-17)
(1.04506 -8.09765e-16 -7.54339e-17)
(1.04506 -8.07502e-16 -8.45417e-17)
(1.04521 -8.09605e-16 -8.52474e-17)
(1.04521 -8.03393e-16 -8.71082e-17)
(1.04535 -7.95763e-16 -8.82304e-17)
(1.04535 -8.00179e-16 -7.92726e-17)
(1.0455 -7.96055e-16 -8.58379e-17)
(1.0455 -8.14074e-16 -7.56407e-17)
(1.04565 -8.70979e-16 -8.32982e-17)
(1.04565 -8.35264e-16 -8.62131e-17)
(1.0458 -8.31513e-16 -6.86551e-17)
(1.0458 -8.17716e-16 -9.26332e-17)
(1.04595 -8.15132e-16 -5.19172e-17)
(1.04595 -8.51685e-16 -8.79029e-17)
(1.0461 -7.96051e-16 -4.48535e-17)
(1.0461 -8.34312e-16 -7.86931e-17)
(1.04626 -7.9758e-16 -5.98395e-17)
(1.04626 -7.8757e-16 -8.88603e-17)
(1.04641 -8.26088e-16 -6.74484e-17)
(1.04641 -7.52488e-16 -1.06269e-16)
(1.04656 -7.87607e-16 -5.0291e-17)
(1.04656 -7.33187e-16 -1.07971e-16)
(1.04671 -7.53869e-16 -6.48426e-17)
(1.04671 -7.29001e-16 -1.12322e-16)
(1.04686 -7.52786e-16 -5.84649e-17)
(1.04686 -7.35536e-16 -1.19148e-16)
(1.04701 -7.14675e-16 -3.58132e-17)
(1.04701 -7.40935e-16 -1.10871e-16)
(1.04716 -6.73636e-16 -3.26249e-17)
(1.04716 -7.32036e-16 -1.00204e-16)
(1.04731 -6.27643e-16 -3.72459e-17)
(1.04731 -6.85168e-16 -9.84741e-17)
(1.04746 -6.03978e-16 -3.61591e-17)
(1.04746 -6.45847e-16 -7.0359e-17)
(1.04761 -6.04781e-16 -3.52312e-17)
(1.04761 -6.52442e-16 -8.49803e-17)
(1.04775 -5.8767e-16 -3.2899e-17)
(1.04775 -6.07419e-16 -7.47276e-17)
(1.04789 -5.94054e-16 -3.73841e-17)
(1.04789 -5.82114e-16 -4.6637e-17)
(1.04803 -5.92105e-16 -2.12991e-17)
(1.04803 -5.91827e-16 -2.92862e-17)
(1.04816 -5.50166e-16 -1.80832e-17)
(1.04816 -5.91158e-16 -1.7325e-17)
(1.04829 -5.20729e-16 -2.89191e-17)
(1.04829 -5.83387e-16 -1.28513e-17)
(1.04842 -5.7366e-16 -2.86595e-17)
(1.04842 -5.52434e-16 1.87843e-17)
(1.04855 -5.70403e-16 -2.24559e-17)
(1.04855 -5.43925e-16 2.74287e-17)
(1.04866 -5.78897e-16 -1.02409e-17)
(1.04866 -5.37153e-16 4.68858e-17)
(1.04878 -5.13821e-16 -7.91999e-18)
(1.04878 -4.83568e-16 6.20749e-17)
(1.04888 -5.15724e-16 1.09054e-17)
(1.04888 -4.63611e-16 6.36366e-17)
(1.04898 -5.10325e-16 1.17534e-17)
(1.04898 -4.6776e-16 4.25595e-17)
(1.04908 -4.95764e-16 3.4119e-18)
(1.04908 -5.31268e-16 2.37337e-17)
(1.04916 -4.92381e-16 1.29582e-17)
(1.04916 -4.82764e-16 2.84126e-17)
(1.04924 -4.74263e-16 -7.51172e-18)
(1.04924 -4.63508e-16 9.3705e-18)
(1.04931 -4.46765e-16 -1.57588e-17)
(1.04931 -4.93006e-16 -2.29215e-17)
(1.04937 -4.50156e-16 -1.33401e-17)
(1.04937 -5.01604e-16 -4.16979e-17)
(1.04942 -4.5291e-16 3.54804e-18)
(1.04942 -4.4184e-16 -4.78506e-17)
(1.04946 -4.27263e-16 1.00007e-17)
(1.04946 -4.13592e-16 -9.05388e-17)
(1.04949 -4.09125e-16 2.38031e-17)
(1.04949 -4.44126e-16 -1.36976e-16)
(1.0495 -4.05668e-16 2.72827e-17)
(1.0495 -3.71966e-16 -1.519e-16)
(0.00206154 -4.34907e-20 -6.14354e-20)
(0.00206154 -9.56834e-21 5.78445e-18)
(0.0062136 3.77512e-20 -2.45734e-18)
(0.0062136 3.59556e-20 1.44745e-17)
(0.0104242 3.75733e-20 -2.52776e-18)
(0.0104242 5.28104e-20 1.48946e-17)
(0.014693 6.96658e-20 -2.59936e-18)
(0.014693 8.34412e-20 1.53246e-17)
(0.0190198 9.68404e-20 -2.67219e-18)
(0.0190198 1.22022e-19 1.57647e-17)
(0.0234041 1.23208e-19 -2.74623e-18)
(0.0234041 1.58836e-19 1.62149e-17)
(0.0278456 1.4921e-19 -2.82137e-18)
(0.0278456 1.99847e-19 1.66754e-17)
(0.032344 1.86971e-19 -2.8976e-18)
(0.032344 2.60285e-19 1.71463e-17)
(0.0368988 2.42644e-19 -2.9746e-18)
(0.0368988 2.84259e-19 1.7628e-17)
(0.0415096 2.83351e-19 -3.0523e-18)
(0.0415096 3.08208e-19 1.81202e-17)
(0.046176 2.99516e-19 -3.13055e-18)
(0.046176 3.58502e-19 1.8623e-17)
(0.0508976 3.28635e-19 -3.20985e-18)
(0.0508976 3.86235e-19 1.91372e-17)
(0.0556738 3.87727e-19 -3.28946e-18)
(0.0556738 3.87531e-19 1.96625e-17)
(0.0605043 4.38822e-19 -3.36891e-18)
(0.0605043 4.04815e-19 2.01986e-17)
(0.0653883 4.94281e-19 -3.44887e-18)
(0.0653883 4.29915e-19 2.07462e-17)
(0.0703256 5.28385e-19 -3.52909e-18)
(0.0703256 4.7797e-19 2.13053e-17)
(0.0753154 5.69464e-19 -3.61031e-18)
(0.0753154 5.45954e-19 2.18766e-17)
(0.0803573 6.33755e-19 -3.69207e-18)
(0.0803573 5.58328e-19 2.24595e-17)
(0.0854507 6.97857e-19 -3.77473e-18)
(0.0854507 6.29686e-19 2.30548e-17)
(0.0905949 7.99836e-19 -3.8581e-18)
(0.0905949 6.85496e-19 2.36627e-17)
(0.0957894 9.05914e-19 -3.94241e-18)
(0.0957894 6.94752e-19 2.4283e-17)
(0.101034 9.83713e-19 -4.02674e-18)
(0.101034 7.09927e-19 2.49163e-17)
(0.106327 1.10362e-18 -4.11124e-18)
(0.106327 7.49619e-19 2.55622e-17)
(0.111668 1.15799e-18 -4.19561e-18)
(0.111668 8.38712e-19 2.62218e-17)
(0.117057 1.17928e-18 -4.28295e-18)
(0.117057 9.47964e-19 2.68964e-17)
(0.122493 1.24033e-18 -4.37029e-18)
(0.122493 1.05842e-18 2.7585e-17)
(0.127976 1.23621e-18 -4.45667e-18)
(0.127976 1.11611e-18 2.82867e-17)
(0.133504 1.1856e-18 -4.54216e-18)
(0.133504 1.22253e-18 2.90028e-17)
(0.139076 1.14566e-18 -4.62765e-18)
(0.139076 1.34673e-18 2.9734e-17)
(0.144693 1.16014e-18 -4.71208e-18)
(0.144693 1.35486e-18 3.04785e-17)
(0.150353 1.19796e-18 -4.79612e-18)
(0.150353 1.35089e-18 3.12376e-17)
(0.156056 1.23162e-18 -4.87867e-18)
(0.156056 1.44248e-18 3.20106e-17)
(0.161801 1.15482e-18 -4.96012e-18)
(0.161801 1.52728e-18 3.27957e-17)
(0.167586 1.1685e-18 -5.04294e-18)
(0.167586 1.48566e-18 3.35978e-17)
(0.173412 1.3109e-18 -5.12359e-18)
(0.173412 1.57144e-18 3.44197e-17)
(0.179277 1.30989e-18 -5.20146e-18)
(0.179277 1.59576e-18 3.5259e-17)
(0.18518 1.28215e-18 -5.27841e-18)
(0.18518 1.62867e-18 3.61145e-17)
(0.191122 1.33917e-18 -5.35339e-18)
(0.191122 1.70009e-18 3.69884e-17)
(0.1971 1.40093e-18 -5.42735e-18)
(0.1971 1.67346e-18 3.78822e-17)
(0.203114 1.41659e-18 -5.49992e-18)
(0.203114 1.9086e-18 3.87922e-17)
(0.209163 1.54359e-18 -5.57106e-18)
(0.209163 2.21427e-18 3.972e-17)
(0.215247 1.59759e-18 -5.63502e-18)
(0.215247 2.29804e-18 4.06643e-17)
(0.221364 1.43447e-18 -5.69688e-18)
(0.221364 2.37076e-18 4.16277e-17)
(0.227513 1.25953e-18 -5.75494e-18)
(0.227513 2.61306e-18 4.26098e-17)
(0.233694 1.12854e-18 -5.80774e-18)
(0.233694 2.49375e-18 4.36102e-17)
(0.239906 1.22446e-18 -5.85395e-18)
(0.239906 2.58029e-18 4.46248e-17)
(0.246148 1.31882e-18 -5.8923e-18)
(0.246148 2.86468e-18 4.56562e-17)
(0.252418 1.41774e-18 -5.92422e-18)
(0.252418 2.8501e-18 4.67057e-17)
(0.258716 1.68414e-18 -5.94927e-18)
(0.258716 2.89212e-18 4.77726e-17)
(0.265041 1.61951e-18 -5.96458e-18)
(0.265041 3.04245e-18 4.88554e-17)
(0.271393 1.35527e-18 -5.97056e-18)
(0.271393 3.02501e-18 4.99577e-17)
(0.277769 1.23733e-18 -5.96436e-18)
(0.277769 3.07287e-18 5.10828e-17)
(0.28417 1.12216e-18 -5.95259e-18)
(0.28417 3.20614e-18 5.22314e-17)
(0.290593 1.04501e-18 -5.93471e-18)
(0.290593 3.36972e-18 5.34034e-17)
(0.297039 1.05199e-18 -5.90672e-18)
(0.297039 3.64508e-18 5.45953e-17)
(0.303506 1.09165e-18 -5.86697e-18)
(0.303506 3.48873e-18 5.58017e-17)
(0.309994 7.31156e-19 -5.81726e-18)
(0.309994 3.42982e-18 5.70199e-17)
(0.3165 3.01227e-19 -5.7663e-18)
(0.3165 3.81454e-18 5.8251e-17)
(0.323025 3.27303e-19 -5.71022e-18)
(0.323025 3.90978e-18 5.94966e-17)
(0.329567 1.41857e-19 -5.64116e-18)
(0.329567 4.16428e-18 6.07549e-17)
(0.336126 -3.74109e-19 -5.58032e-18)
(0.336126 4.74521e-18 6.20389e-17)
(0.342699 -6.10206e-19 -5.52141e-18)
(0.342699 5.23805e-18 6.33506e-17)
(0.349287 -7.31897e-19 -5.45329e-18)
(0.349287 5.30361e-18 6.46786e-17)
(0.355888 -7.59842e-19 -5.37287e-18)
(0.355888 5.42545e-18 6.6028e-17)
(0.362501 -1.18629e-18 -5.28434e-18)
(0.362501 6.10035e-18 6.74047e-17)
(0.369126 -1.69519e-18 -5.20886e-18)
(0.369126 6.22701e-18 6.88064e-17)
(0.37576 -1.74108e-18 -5.12001e-18)
(0.37576 6.51495e-18 7.02091e-17)
(0.382404 -1.88001e-18 -5.02577e-18)
(0.382404 6.9697e-18 7.16251e-17)
(0.389055 -1.94768e-18 -4.92425e-18)
(0.389055 7.06943e-18 7.30539e-17)
(0.395714 -2.27052e-18 -4.81927e-18)
(0.395714 7.66016e-18 7.45067e-17)
(0.402378 -2.80284e-18 -4.72205e-18)
(0.402378 8.31461e-18 7.59783e-17)
(0.409047 -2.95694e-18 -4.61929e-18)
(0.409047 8.37428e-18 7.74597e-17)
(0.41572 -2.91196e-18 -4.49898e-18)
(0.41572 8.23937e-18 7.89582e-17)
(0.422396 -2.64005e-18 -4.35392e-18)
(0.422396 8.43756e-18 8.04712e-17)
(0.429073 -2.62143e-18 -4.1891e-18)
(0.429073 8.32488e-18 8.20112e-17)
(0.43575 -2.79104e-18 -4.01691e-18)
(0.43575 7.89231e-18 8.35402e-17)
(0.442428 -2.8327e-18 -3.83058e-18)
(0.442428 8.21392e-18 8.50588e-17)
(0.449103 -3.28754e-18 -3.62647e-18)
(0.449103 8.2764e-18 8.65595e-17)
(0.455776 -3.80825e-18 -3.42385e-18)
(0.455776 8.7101e-18 8.80684e-17)
(0.462445 -3.98775e-18 -3.21748e-18)
(0.462445 9.5632e-18 8.95913e-17)
(0.469109 -4.4465e-18 -2.998e-18)
(0.469109 1.00069e-17 9.11257e-17)
(0.475767 -5.47611e-18 -2.79101e-18)
(0.475767 1.01481e-17 9.2688e-17)
(0.482418 -6.17652e-18 -2.58141e-18)
(0.482418 1.04823e-17 9.42498e-17)
(0.489061 -6.95208e-18 -2.36348e-18)
(0.489061 1.09421e-17 9.58363e-17)