/*--------------------------------*- C++ -*----------------------------------*\
| =========                 |                                                 |
| \\      /  F ield         | OpenFOAM: The Open Source CFD Toolbox           |
|  \\    /   O peration     | Version:  2012                                  |
|   \\  /    A nd           | Website:  www.openfoam.com                      |
|    \\/     M anipulation  |                                                 |
\*---------------------------------------------------------------------------*/
FoamFile
{
    version     2.0;
    format      ascii;
    class       volTensorField;
    location    "14800";
    object      grad(U);
}
// * * * * * * * * * * * * * * * * * * * * * * * * * * * * * * * * * * * * * //

dimensions      [0 0 -1 0 0 0 0];


internalField   nonuniform List<tensor> 
2560
(
(0 -3.48782e-23 -1.63311e-17 1324.99 0.000105342 -0.000682194 1.91896 5.79907e-08 -9.88981e-07)
(0 3.1859e-18 -1.39513e-22 1324.99 3.38813e-21 -5.46306e-07 1.91896 7.23351e-08 1.00057e-06)
(1.15355e-15 3.08862e-18 -7.61467e-18 1323.57 6.77594e-21 1.60585e-24 5.78072 0 -2.11758e-22)
(-1.15355e-15 0 0 1323.57 4.41805e-05 -1.70771e-06 5.78072 3.30421e-07 1.51941e-06)
(-2.4457e-16 6.7696e-19 -5.19258e-22 1322.1 -4.99188e-05 0.000250502 7.93206 1.48751e-07 -1.05009e-06)
(0 0 8.13255e-22 1322.1 -5.32429e-05 -2.3609e-06 7.93206 3.12655e-07 1.24673e-06)
(7.80313e-16 2.505e-23 -4.00799e-22 1320.54 -6.71825e-05 0.000272421 8.03766 -5.67855e-08 -7.26028e-07)
(0 -2.505e-23 4.00799e-22 1320.54 -8.56411e-05 -1.97072e-06 8.03766 -2.75426e-08 7.45134e-07)
(2.20931e-15 3.29212e-23 -1.97527e-22 1318.9 -3.29464e-06 0.000163985 8.1442 -1.79179e-07 -3.86721e-07)
(0 2.92916e-18 1.97527e-22 1318.91 6.77561e-21 -1.44414e-06 8.1442 -2.64698e-23 3.97206e-07)
(1.87342e-15 3.24494e-23 -3.24494e-23 1317.22 1.99475e-05 7.97186e-05 8.25195 -1.15292e-07 -2.19876e-07)
(1.49873e-14 -6.48988e-23 6.48988e-23 1317.22 1.45593e-05 -1.39881e-06 8.25195 -8.6022e-08 2.26187e-07)
(-2.43084e-15 3.19843e-23 0 1315.52 1.32346e-05 4.1415e-05 8.36123 -7.20124e-08 -1.34895e-07)
(9.72338e-15 -7.99608e-23 3.19843e-23 1315.52 9.38767e-06 -1.59713e-06 8.36123 -4.27257e-08 1.39172e-07)
(-2.9956e-15 2.23496e-20 3.15259e-23 1313.87 6.34788e-06 2.49937e-05 8.47236 -4.40124e-08 -8.43351e-08)
(1.19824e-14 5.51703e-23 -1.57629e-23 1313.87 3.8788e-06 -1.90452e-06 8.47236 -1.47434e-08 8.75077e-08)
(3.56777e-15 3.88426e-23 -3.1074e-23 1312.3 4.62245e-06 1.75442e-05 8.58563 -3.77829e-08 -4.88518e-08)
(0 -6.99166e-23 3.1074e-23 1312.3 1.42592e-06 -2.22047e-06 8.58563 -4.63349e-09 5.1359e-08)
(0 5.55581e-20 1.53143e-23 1310.86 2.29513e-06 1.40491e-05 8.7013 -2.13426e-08 -2.01593e-08)
(0 4.97716e-23 0 1310.86 1.67726e-06 -1.32094e-06 8.7013 7.90614e-09 2.22318e-08)
(-4.73482e-15 1.16985e-22 7.54742e-24 1309.56 1.67401e-06 1.25205e-05 8.81962 -2.04544e-08 -1.23297e-15)
(0 0 5.696e-46 1309.56 3.70577e-22 6.56704e-29 8.81962 8.79392e-09 0)
(5.32999e-15 1.65523e-22 0 1308.43 2.04976e-06 1.20917e-05 8.94078 -1.55971e-08 -1.86909e-16)
(0 -1.48785e-22 -1.85981e-24 1308.43 6.0443e-07 1.22057e-05 8.94078 1.36188e-08 -3.31479e-16)
(0 4.94952e-23 0 1307.49 1.32497e-06 1.235e-05 9.06496 -1.14567e-08 8.94076e-16)
(1.57467e-14 -6.59936e-23 0 1307.49 3.17651e-08 1.24359e-05 9.06496 1.77484e-08 1.04588e-15)
(-6.54448e-15 -6.68546e-23 0 1306.75 1.09509e-06 1.30873e-05 9.19227 -1.09544e-08 2.08319e-15)
(2.61779e-14 -1.24896e-38 0 1306.75 7.27919e-22 1.31538e-05 9.19227 1.82154e-08 2.60812e-15)
(7.64927e-15 2.1785e-20 0 1306.21 2.06785e-07 1.02372e-05 9.32279 -7.88982e-09 3.44086e-15)
(-7.64927e-15 1.48712e-22 0 1306.21 -3.15643e-07 1.4243e-05 9.32279 2.12632e-08 4.40745e-15)
(-7.79255e-15 0 0 1305.86 7.85105e-07 6.06887e-06 9.45654 -9.38461e-09 -1.41099e-08)
(3.11702e-14 0 0 1305.86 -7.41154e-22 1.5638e-05 9.45654 1.97322e-08 1.30345e-08)
(0 -1.48806e-22 5.53696e-23 1305.7 1.07245e-06 5.43412e-06 9.5935 -5.8205e-09 -3.42927e-08)
(-3.37189e-14 1.48806e-22 -5.53696e-23 1305.7 1.28111e-07 1.66585e-05 9.5935 2.32735e-08 3.32834e-08)
(0 1.35187e-20 8.18639e-23 1305.7 0 5.85941e-06 9.73357 -5.01803e-09 -5.32273e-08)
(-3.63039e-14 1.49231e-22 -9.73988e-19 1305.7 -7.12111e-07 -2.54204e-21 9.73357 2.40363e-08 -6.61744e-24)
(1.44402e-14 3.194e-23 5.37938e-23 1305.84 3.50753e-07 6.29116e-06 9.87659 -7.79697e-09 -3.46344e-08)
(0 7.38539e-20 5.37938e-23 1305.84 -8.47033e-22 -3.59755e-06 9.87659 2.12301e-08 2.92586e-08)
(2.46298e-14 -1.32557e-22 0 1306.08 1.01476e-06 6.74504e-06 10.0223 -5.52913e-09 -1.61719e-08)
(-5.58197e-14 1.82266e-22 0 1306.08 2.00891e-07 -2.53793e-06 10.0223 2.34565e-08 1.68534e-08)
(0 1.10165e-20 0 1306.38 2.59767e-07 7.2266e-06 10.1706 -3.15164e-09 -1.13972e-11)
(0 1.98435e-22 0 1306.38 -2.13026e-07 2.83356e-06 10.1706 2.58012e-08 -3.2139e-13)
(-2.55845e-14 0 0 1306.69 -7.11806e-37 7.71254e-06 10.3208 -4.15002e-09 -8.88913e-12)
(1.38281e-14 -6.64044e-23 0 1306.69 -1.3356e-06 7.71259e-06 10.3208 2.47576e-08 -3.18769e-13)
(1.48084e-14 2.30076e-22 1.01551e-22 1306.95 8.55741e-07 8.20944e-06 10.4728 -1.06774e-08 -1.16492e-11)
(0 5.0497e-24 0 1306.95 -9.36868e-39 8.20952e-06 10.4728 1.81935e-08 -3.91762e-13)
(0 1.07977e-19 0 1307.12 0 8.74535e-06 10.6259 -1.1808e-10 -9.16748e-12)
(-5.26275e-14 1.98529e-22 0 1307.12 3.30749e-07 8.74542e-06 10.6259 2.87059e-08 -3.33493e-13)
(2.71149e-14 -1.98863e-22 0 1307.12 -2.17637e-07 9.30408e-06 10.7795 -5.20539e-09 -1.19883e-11)
(-1.3242e-14 6.26417e-20 0 1307.12 -4.56223e-07 9.30414e-06 10.7795 2.35768e-08 -3.85268e-13)
(-2.91991e-14 6.51893e-25 0 1306.87 0 9.85998e-06 10.9331 -4.69738e-09 -9.39904e-12)
(0 2.31721e-22 0 1306.87 -1.25957e-06 9.86004e-06 10.9331 2.40341e-08 -3.86136e-13)
(4.60109e-14 2.30646e-22 0 1306.31 1.19588e-06 1.04384e-05 11.0858 -1.28605e-08 -1.22665e-11)
(1.48426e-13 4.39249e-24 0 1306.31 5.21213e-22 1.04385e-05 11.0858 1.58256e-08 -4.73039e-13)
(-2.53615e-14 2.4552e-20 0 1305.36 -1.05975e-22 1.10635e-05 11.2369 -4.1359e-25 -9.66558e-12)
(8.97024e-14 -1.98554e-22 0 1305.36 9.41362e-08 1.10635e-05 11.2369 3.13835e-08 -4.40158e-13)
(1.68443e-14 -6.54785e-23 0 1303.94 -4.23833e-07 1.17086e-05 11.3856 -9.39174e-09 -1.2637e-11)
(-2.4998e-14 2.66338e-24 0 1303.94 -2.11758e-22 1.17087e-05 11.3856 1.91917e-08 -4.77554e-13)
(-3.52284e-14 1.83671e-40 0 1301.95 0 1.23545e-05 11.5308 -3.60435e-09 -9.92965e-12)
(-1.40914e-13 0 0 1301.95 -1.05036e-06 1.23546e-05 11.5308 2.49225e-08 -4.91752e-13)
(-1.83948e-14 -6.7856e-23 0 1299.31 1.02663e-06 1.30283e-05 11.6717 -1.58901e-08 -1.29256e-11)
(-7.35791e-14 1.74635e-24 -9.04746e-23 1299.31 3.9119e-22 1.30283e-05 11.6717 1.25838e-08 -5.86895e-13)
(0 4.83697e-20 0 1295.93 -1.0289e-25 1.3753e-05 11.807 -4.1359e-25 -1.01915e-11)
(-7.67435e-14 1.9856e-22 0 1295.93 1.56572e-07 1.3753e-05 11.807 3.13814e-08 -5.71123e-13)
(0 1.97774e-22 0 1291.74 -8.39293e-07 1.44958e-05 11.9358 -1.17972e-08 -1.33061e-11)
(7.99491e-14 0 0 1291.74 -6.17742e-36 1.44959e-05 11.9358 1.65614e-08 -6.15359e-13)
(-2.07987e-14 3.23705e-22 0 1286.62 0 1.52434e-05 12.0569 -7.47906e-09 -1.04749e-11)
(0 -3.38437e-23 0 1286.62 -6.18185e-07 1.52434e-05 12.0569 2.08177e-08 -6.3036e-13)
(-2.16197e-14 -1.65459e-22 0 1280.51 1.08731e-06 1.60331e-05 12.169 -1.46709e-08 -1.36071e-11)
(0 1.88266e-24 0 1280.51 0 1.60331e-05 12.169 1.3566e-08 -7.40484e-13)
(2.27407e-14 1.25947e-20 0 1273.31 -4.19301e-27 1.68748e-05 12.2709 6.46235e-27 -1.07194e-11)
(-1.34991e-13 8.27767e-23 0 1273.31 -1.87875e-07 1.68748e-05 12.2709 2.82141e-08 -7.46902e-13)
(2.32889e-14 8.29677e-23 0 1264.95 -8.00359e-07 1.77333e-05 12.3614 -1.36279e-08 -1.3987e-11)
(0 2.0098e-24 0 1264.95 2.11758e-22 1.77334e-05 12.3614 1.44821e-08 -7.99784e-13)
(2.18359e-15 6.83148e-22 0 1255.33 -2.97785e-22 1.86011e-05 12.439 -1.06433e-08 -1.10034e-11)
(2.19523e-14 -1.48224e-22 0 1255.33 -6.19081e-07 1.86011e-05 12.439 1.74001e-08 -8.29506e-13)
(1.82851e-14 -8.31254e-23 0 1244.39 1.01739e-06 1.95152e-05 12.5026 -1.66642e-08 -1.42826e-11)
(-4.32753e-14 1.57007e-24 0 1244.39 3.13342e-22 1.95152e-05 12.5026 1.13136e-08 -9.53745e-13)
(4.2655e-14 5.15125e-20 0 1232.06 0 2.049e-05 12.5509 -3.41031e-09 -1.12487e-11)
(-4.2655e-14 1.65109e-22 0 1232.06 -1.457e-09 2.04901e-05 12.5509 2.45e-08 -9.6087e-13)
(-2.67175e-14 -5.13925e-23 0 1218.28 -6.48887e-07 2.14929e-05 12.5825 -1.35884e-08 -1.46572e-11)
(1.0687e-13 1.71308e-23 -3.1325e-22 1218.28 -5.23038e-07 2.1493e-05 12.5825 1.42528e-08 -1.04355e-12)
(0 0 0 1202.98 0 2.24988e-05 12.5959 -1.32521e-08 -1.15065e-11)
(1.10355e-13 -1.97799e-22 0 1202.98 -1.23256e-06 2.24989e-05 12.5959 1.45187e-08 -1.08957e-12)
(2.84636e-14 -1.14126e-22 0 1186.1 1.78441e-06 2.35597e-05 12.5901 -2.3174e-08 -1.49468e-11)
(-1.13854e-13 0 0 1186.1 0 2.35598e-05 12.5901 4.52607e-09 -1.2248e-12)
(2.93408e-14 7.19967e-25 0 1167.61 -1.06059e-22 2.46764e-05 12.5637 0 -1.1714e-11)
(0 -1.16005e-22 0 1167.61 -1.24793e-06 2.46764e-05 12.5637 3.02231e-08 -1.27368e-12)
(-3.02193e-14 6.46786e-23 0 1147.47 4.8699e-07 2.58219e-05 12.5155 -3.35265e-08 -1.52934e-11)
(0 0 0 1147.47 1.32349e-22 2.5822e-05 12.5155 1.60285e-38 -1.36616e-12)
(3.10976e-14 1.43577e-35 0 1125.65 -4.70198e-38 2.69888e-05 12.4443 0 -1.19444e-11)
(8.52747e-14 4.89521e-23 0 1125.65 -1.57411e-06 2.69889e-05 12.4443 3.24173e-08 -1.44825e-12)
(0 8.07915e-23 0 1102.13 1.41849e-06 2.81978e-05 12.3491 -4.79342e-08 -1.55267e-11)
(1.27897e-13 0 0 1102.13 1.05879e-21 2.81979e-05 12.3491 -3.30872e-24 -1.62615e-12)
(-3.2848e-14 4.66718e-20 0 1076.89 4.23516e-22 2.95141e-05 12.2287 0 -1.21635e-11)
(0 -5.0877e-23 0 1076.89 1.24492e-06 2.95142e-05 12.2287 4.53971e-08 -1.63704e-12)
(-3.37168e-14 0 0 1049.93 -4.90606e-06 3.07909e-05 12.082 -3.06533e-08 -1.58632e-11)
(0 -4.79675e-23 0 1049.93 -4.74018e-06 3.0791e-05 12.082 -3.39658e-09 -1.80431e-12)
(0 7.73672e-23 0 1021.26 -3.68452e-07 3.19696e-05 11.9084 -4.2346e-08 -1.25683e-11)
(0 4.70198e-38 0 1021.26 -4.21412e-22 3.19697e-05 11.9084 -1.55088e-38 -1.65783e-12)
(-1.08217e-13 6.77852e-23 -5.42282e-22 990.898 1.2743e-05 3.34688e-05 11.7072 -3.88906e-08 -1.62039e-11)
(3.63919e-14 -1.18624e-22 0 990.898 4.53355e-07 3.34688e-05 11.7072 -2.70131e-09 -1.98396e-12)
(3.58703e-14 1.47712e-23 -5.34509e-22 958.881 7.38562e-24 3.49234e-05 11.4774 0 -1.2283e-11)
(-1.80981e-13 2.00441e-22 0 958.881 -1.62242e-05 3.49234e-05 11.4774 1.33466e-07 -2.37209e-12)
(-3.71101e-14 1.97568e-22 -5.26848e-22 925.225 5.13217e-06 3.61443e-05 11.2184 -2.34231e-07 -1.61334e-11)
(1.4844e-13 -4.81482e-35 0 925.225 9.2886e-21 3.61443e-05 11.2184 -1.10929e-34 -2.59823e-12)
(0 1.84026e-19 0 889.991 -1.71772e-21 3.77098e-05 10.9303 2.64698e-23 -1.24926e-11)
(0 2.59649e-22 0 889.991 7.57595e-06 3.77099e-05 10.9303 1.97282e-07 -2.61322e-12)
(-3.87311e-14 -9.59727e-23 0 853.24 -1.51075e-05 3.91099e-05 10.6123 -1.40533e-07 -1.69316e-11)
(1.54924e-13 0 0 853.24 3.38813e-21 3.911e-05 10.6123 1.32349e-23 -2.35926e-12)
(7.90315e-14 1.34013e-22 0 815.028 1.5621e-05 4.05268e-05 10.2645 -2.18841e-08 -1.30014e-11)
(1.58063e-13 -1.34013e-22 0 815.028 1.48704e-05 4.05267e-05 10.2645 4.8327e-09 -2.56557e-12)
(0 7.56333e-24 0 775.442 -1.69785e-21 4.20159e-05 9.88686 0 -1.66572e-11)
(0 -1.16552e-22 0 775.442 -1.30484e-05 4.20159e-05 9.88686 8.11361e-08 -3.2265e-12)
(-4.10229e-14 6.127e-23 0 734.573 4.1537e-06 4.32737e-05 9.47966 -1.88762e-07 -1.27098e-11)
(0 -4.93708e-37 0 734.573 7.21104e-21 4.32738e-05 9.47966 -2.64698e-23 -3.3519e-12)
(-8.34825e-14 0 0 692.527 -2.5486e-21 4.46913e-05 9.04351 -1.32349e-23 -1.70463e-11)
(1.66965e-13 1.96273e-22 0 692.527 2.35915e-06 4.46914e-05 9.04351 1.34564e-07 -3.45782e-12)
(-4.24333e-14 0 0 649.419 -2.41912e-06 4.60859e-05 8.57885 -1.55904e-07 -1.29489e-11)
(0 0 0 649.419 4.32502e-22 4.60859e-05 8.57885 0 -3.63022e-12)
(-4.30969e-14 3.66763e-20 0 605.361 1.4925e-21 4.74098e-05 8.08647 0 -1.70233e-11)
(1.72387e-13 -1.17346e-22 0 605.361 1.00682e-06 4.74098e-05 8.08647 9.97454e-08 -4.14388e-12)
(-4.373e-14 -8.67482e-23 0 560.483 -1.10321e-05 4.83998e-05 7.56733 -1.39589e-07 -1.32509e-11)
(-6.20968e-14 5.78322e-23 -9.25314e-22 560.483 -3.38027e-21 4.83999e-05 7.56733 0 -3.8876e-12)
(-8.86613e-14 -1.42508e-22 0 514.932 1.46105e-05 4.94014e-05 7.02294 -8.45297e-08 -1.74718e-11)
(-1.77323e-13 1.42508e-22 0 514.932 1.377e-05 4.94013e-05 7.02294 -5.83601e-08 -4.41042e-12)
(-1.50123e-13 0 -1.79796e-21 468.868 -4.31689e-24 5.06674e-05 6.45487 0 -1.30104e-11)
(4.19504e-13 -1.82605e-22 0 468.868 -2.63322e-06 5.06675e-05 6.45487 8.83084e-08 -4.7366e-12)
(-1.3628e-13 -3.04595e-22 0 422.439 -1.6414e-05 5.12889e-05 5.86435 -1.18558e-07 -1.8073e-11)
(-1.81707e-13 3.04595e-22 -8.86096e-22 422.439 -1.72936e-05 5.12889e-05 5.86435 -9.25401e-08 -4.58653e-12)
(-4.59183e-14 2.72936e-22 -8.73396e-22 375.807 1.99838e-05 5.18868e-05 5.2538 -1.82729e-07 -1.30574e-11)
(1.83673e-13 -1.92593e-34 0 375.807 -2.17583e-23 5.18868e-05 5.2538 -3.97971e-34 -5.35525e-12)
(4.63701e-14 4.82285e-23 0 329.165 -3.38813e-21 5.24268e-05 4.62542 -2.64698e-23 -1.78357e-11)
(0 -1.0761e-22 0 329.165 -1.78425e-05 5.24268e-05 4.62542 1.9963e-07 -5.6793e-12)
(0 2.65168e-22 0 282.684 1.72838e-05 5.2841e-05 3.98145 -4.50875e-07 -1.32472e-11)
(1.87122e-13 0 0 282.684 1.01644e-20 5.2841e-05 3.98145 -3.31357e-34 -5.9083e-12)
(0 3.46249e-48 0 236.545 6.12106e-23 5.30382e-05 3.32455 0 -1.78692e-11)
(1.88591e-13 -1.04547e-22 0 236.545 -2.02549e-05 5.30382e-05 3.32455 4.66793e-07 -6.57694e-12)
(-5.53239e-14 1.03049e-22 -1.64878e-21 190.933 1.06717e-05 5.28232e-05 2.65749 -7.71899e-07 -1.29908e-11)
(1.3456e-13 0 0 190.933 8.6233e-38 5.28232e-05 2.65749 1.05879e-22 -6.97241e-12)
(0 1.9103e-20 0 146.043 -1.07136e-20 5.28218e-05 1.98353 -1.05879e-22 -1.81506e-11)
(0 2.03144e-22 0 146.043 -3.96361e-07 5.28219e-05 1.98353 6.45472e-07 -7.28666e-12)
(-9.59615e-14 0 0 102.057 -8.93759e-06 5.24263e-05 1.30538 -7.90845e-07 -1.33027e-11)
(0 0 0 102.057 -1.36587e-20 5.24263e-05 1.30538 0 -7.51697e-12)
(-5.2979e-14 3.83894e-19 0 59.1519 8.40269e-21 5.20059e-05 0.626568 0 -1.86818e-11)
(2.45641e-13 -2.96043e-22 0 59.1519 1.03948e-05 5.2006e-05 0.626568 5.12827e-07 -7.78462e-12)
(2.92528e-13 -9.72667e-23 0 0.0083797 -1.06491e-05 5.15189e-05 6.95928e-05 -6.29968e-07 -1.34999e-11)
(1.93184e-13 0 0 0.00837304 1.00805e-20 5.15189e-05 6.95376e-05 1.39726e-37 -8.20423e-12)
(2.28526e-13 1.45562e-19 0 -5.89028 -6.77626e-21 5.09149e-05 0.0496297 0 -1.88546e-11)
(0 -4.79363e-23 0 -5.89028 7.85234e-06 5.09149e-05 0.0496297 3.42635e-07 -8.66075e-12)
(4.81426e-14 -1.88997e-22 0 -61.3326 -1.31831e-05 5.01193e-05 0.720146 -5.02024e-07 -1.34371e-11)
(0 9.20719e-19 -1.51198e-21 -61.3326 0 5.01193e-05 0.720146 -5.29396e-23 -9.17036e-12)
(0 5.36445e-19 2.98061e-21 -98.2425 -2.59977e-23 4.94447e-05 1.38177 0 -1.93155e-11)
(0 -1.39716e-22 0 -98.2425 1.58258e-05 4.94449e-05 1.38177 1.18869e-07 -9.262e-12)
(9.85793e-14 9.18091e-23 1.46895e-21 -133.288 -1.64801e-05 4.87875e-05 2.03096 -2.2536e-07 -1.43703e-11)
(0 -3.76158e-37 0 -133.288 3.41592e-21 4.87876e-05 2.03096 2.64698e-23 -9.13994e-12)
(-4.6319e-14 4.52466e-23 2.89578e-21 -166.361 1.58188e-05 4.81493e-05 2.66461 -2.02786e-07 -1.97649e-11)
(0 6.65158e-19 0 -166.361 4.0987e-06 4.81493e-05 2.66461 -3.65873e-08 -9.79845e-12)
(-4.71381e-14 -1.88079e-37 0 -197.374 -1.52722e-21 4.75451e-05 3.27997 -1.95231e-38 -1.34612e-11)
(0 1.33794e-22 0 -197.374 -1.70889e-05 4.75451e-05 3.27997 7.4644e-08 -1.08681e-11)
(4.67868e-14 0 0 -226.248 1.24213e-05 4.68771e-05 3.87429 -5.08898e-07 -1.9653e-11)
(-1.87147e-13 2.68626e-22 -2.81337e-21 -226.248 1.34313e-22 4.68771e-05 3.87429 0 -1.08278e-11)
(4.6524e-14 3.85792e-23 2.77305e-21 -252.919 -3.34955e-21 4.65936e-05 4.44495 0 -1.32652e-11)
(-1.85597e-13 -1.29987e-22 0 -252.919 -4.98594e-06 4.65937e-05 4.44495 3.02926e-07 -1.18202e-11)
(-4.59774e-14 -2.56247e-22 0 -277.353 -4.23475e-06 4.60804e-05 4.98946 -6.04261e-07 -1.99701e-11)
(3.21962e-13 0 0 -277.353 -8.47033e-22 4.60804e-05 4.98946 -4.32057e-35 -1.13008e-11)
(-4.48764e-14 3.54312e-19 0 -299.536 1.69407e-21 4.57978e-05 5.50619 2.64698e-23 -1.34701e-11)
(2.72494e-13 2.9467e-22 0 -299.536 7.12312e-06 4.57978e-05 5.50619 2.2489e-07 -1.22593e-11)
(0 0 0 -319.461 -2.46041e-06 4.58139e-05 5.99317 -4.68161e-07 -2.04103e-11)
(0 8.81621e-37 0 -319.461 6.35275e-21 4.58139e-05 5.99317 -5.29396e-23 -1.15956e-11)
(4.32978e-14 0 0 -337.153 2.09502e-23 4.57396e-05 6.44895 0 -1.30357e-11)
(9.02905e-14 -2.65835e-22 0 -337.153 -2.80819e-06 4.57396e-05 6.44895 1.75714e-07 -1.32955e-11)
(-4.39937e-14 -8.06231e-23 0 -352.657 2.03894e-06 4.57418e-05 6.8727 -5.22525e-07 -2.03777e-11)
(-1.75975e-13 2.76343e-22 0 -352.657 1.74965e-22 4.57418e-05 6.8727 -1.05879e-22 -1.21763e-11)
(4.34354e-14 5.29673e-23 0 -366.025 -2.77934e-21 4.58183e-05 7.26373 0 -1.24322e-11)
(1.73742e-13 -1.19201e-22 0 -366.025 -2.58629e-06 4.58183e-05 7.26373 2.15506e-07 -1.4313e-11)
(-4.28569e-14 -2.34986e-22 0 -377.32 -6.96647e-07 4.58454e-05 7.62151 -5.74916e-07 -2.0282e-11)
(1.71428e-13 -1.03444e-36 0 -377.32 7.48791e-21 4.58454e-05 7.62151 1.05879e-22 -1.27282e-11)
(-4.22606e-14 2.3216e-37 0 -386.615 -1.66966e-21 4.62166e-05 7.94584 0 -1.18234e-11)
(0 0 0 -386.616 7.02062e-06 4.62167e-05 7.94584 2.00468e-07 -1.52767e-11)
(-4.16487e-14 0 0 -394.002 -7.51356e-06 4.66346e-05 8.23665 -4.26438e-07 -2.06366e-11)
(0 -5.64237e-37 0 -394.002 5.13797e-21 4.66345e-05 8.23665 -5.29396e-23 -1.2644e-11)
(-4.10235e-14 6.18133e-20 0 -399.585 -1.62273e-24 4.69538e-05 8.4945 1.65436e-24 -1.07207e-11)
(1.64094e-13 -2.64874e-22 0 -399.585 3.75265e-06 4.69539e-05 8.4945 3.62195e-08 -1.65658e-11)
(8.00799e-14 1.47867e-22 0 -403.472 -7.1889e-06 4.71624e-05 8.72018 -3.3952e-07 -2.09521e-11)
(-3.96928e-14 3.76158e-37 0 -403.472 -1.65035e-21 4.71624e-05 8.72018 -5.29396e-23 -1.2569e-11)
(0 7.2874e-23 4.66393e-21 -405.767 1.41103e-05 4.76691e-05 8.91444 -1.54421e-07 -9.89693e-12)
(0 -1.63966e-22 0 -405.767 1.29952e-05 4.76691e-05 8.91444 -1.2996e-07 -1.75758e-11)
(-3.90889e-14 0 0 -406.582 -1.65402e-35 4.83516e-05 9.07812 -3.95906e-08 -2.04314e-11)
(0 -1.66106e-22 0 -406.582 -1.08629e-05 4.83515e-05 9.07812 -1.51622e-08 -1.31231e-11)
(3.80105e-14 4.248e-22 4.5312e-21 -406.044 -2.59925e-06 4.84456e-05 9.21253 -3.88513e-07 -7.64889e-12)
(2.69438e-13 -4.81482e-35 0 -406.044 -4.23516e-21 4.84458e-05 9.21253 -5.05031e-35 -1.97925e-11)
(-3.74657e-14 1.16296e-19 -4.46626e-21 -404.266 3.50013e-06 4.89846e-05 9.31931 -1.0729e-07 -2.1991e-11)
(1.51078e-13 -1.04678e-22 0 -404.266 1.19366e-05 4.89845e-05 9.31931 -8.29199e-08 -1.15435e-11)
(-7.40349e-14 -1.64569e-37 -4.40224e-21 -401.356 -1.17654e-21 4.94803e-05 9.39946 -9.95615e-08 -5.56114e-12)
(-1.48425e-13 3.95514e-22 0 -401.356 -1.40448e-05 4.94803e-05 9.39946 -7.52173e-08 -2.18416e-11)
(-3.64425e-14 -2.71197e-22 0 -397.433 1.1107e-05 4.98383e-05 9.4546 -4.26188e-07 -2.16212e-11)
(-1.4577e-13 1.67313e-22 0 -397.433 4.90403e-21 4.98381e-05 9.4546 -5.29396e-23 -1.17057e-11)
(0 2.1651e-23 0 -392.609 -2.4978e-21 5.04989e-05 9.48648 0 -2.34813e-12)
(0 1.00241e-22 -4.27696e-21 -392.609 -4.51669e-06 5.0499e-05 9.48648 1.80303e-07 -2.48287e-11)
(0 -1.97609e-22 0 -386.992 -6.23986e-06 5.06146e-05 9.49662 -5.30515e-07 -2.2873e-11)
(1.40478e-13 3.44204e-19 -4.21566e-21 -386.992 5.78872e-21 5.06145e-05 9.49662 0 -1.02569e-11)
(-3.52508e-14 1.131e-19 -8.31047e-21 -380.685 -1.69407e-21 5.08489e-05 9.48685 -5.1445e-09 6.90987e-13)
(0 4.63609e-22 0 -380.685 9.21984e-06 5.08492e-05 9.48685 1.9095e-08 -2.76919e-11)
(0 7.6794e-22 0 -373.78 -2.07225e-06 5.14073e-05 9.45864 -2.92326e-07 -2.49061e-11)
(2.70481e-13 -4.81482e-35 0 -373.78 -5.92923e-21 5.1407e-05 9.45864 -8.61347e-35 -7.82884e-12)
(3.38646e-14 0 0 -366.369 -4.23516e-22 5.15717e-05 9.41356 -7.2059e-08 5.77429e-12)
(2.31441e-13 -2.20772e-22 0 -366.369 -4.98185e-06 5.1572e-05 9.41356 -4.78687e-08 -3.23747e-11)
(-6.5045e-14 0 0 -358.54 7.37636e-06 5.18175e-05 9.35334 -4.08758e-07 -2.72943e-11)
(0 1.46937e-38 0 -358.54 7.6233e-21 5.18171e-05 9.35334 5.29396e-23 -5.03198e-12)
(-3.18889e-14 4.60207e-37 0 -350.371 -1.66469e-21 5.20509e-05 9.27946 1.32349e-23 1.22542e-11)
(2.55111e-13 -1.07245e-22 0 -350.371 -6.60738e-06 5.20512e-05 9.27946 1.29984e-07 -3.84904e-11)
(3.12629e-14 2.41617e-22 0 -341.937 3.92983e-06 5.209e-05 9.19349 -5.75868e-07 -3.10693e-11)
(0 3.29138e-36 0 -341.937 1.17053e-20 5.20895e-05 9.19349 -6.70622e-38 -6.7469e-13)
(-3.06451e-14 1.78359e-20 0 -333.303 5.54009e-23 5.231e-05 9.09688 2.64698e-23 2.07089e-11)
(0 -8.93078e-23 0 -333.303 5.54013e-07 5.23105e-05 9.09688 2.23697e-07 -4.63917e-11)
(-3.00359e-14 -2.34741e-22 0 -324.53 -5.15975e-06 5.22108e-05 8.99082 -5.55742e-07 -3.71404e-11)
(1.20144e-13 -1.45761e-36 0 -324.53 -5.22977e-21 5.22102e-05 8.99082 0 5.93832e-12)
(-2.94358e-14 1.35736e-19 0 -315.674 -1.1977e-23 5.20716e-05 8.8768 6.61744e-24 3.10948e-11)
(1.17743e-13 1.01227e-22 0 -315.674 5.7475e-06 5.20723e-05 8.8768 6.7198e-08 -5.63064e-11)
(-5.769e-14 0 0 -306.78 1.76248e-06 5.22795e-05 8.75591 -3.86201e-07 -4.59668e-11)
(0 0 0 -306.78 -1.26996e-22 5.22786e-05 8.75591 0 1.54799e-11)
(-2.82638e-14 0 0 -297.891 -1.16214e-49 5.19658e-05 8.62909 1.32349e-23 4.58243e-11)
(-3.0171e-14 1.68594e-22 0 -297.891 -9.44291e-06 5.19667e-05 8.62909 9.65531e-08 -7.03529e-11)
(0 1.10785e-22 0 -289.05 1.34505e-05 5.18006e-05 8.49762 -6.49722e-07 -5.79204e-11)
(-1.1077e-13 1.25794e-22 0 -289.05 0 5.17995e-05 8.49762 -1.05879e-22 2.81316e-11)
(2.71309e-14 1.24261e-22 0 -280.286 -5.0822e-21 5.15084e-05 8.36239 0 6.52813e-11)
(1.08524e-13 -2.18394e-22 0 -280.286 -1.37882e-05 5.15095e-05 8.36239 4.71644e-07 -8.91911e-11)
(2.65795e-14 2.15264e-22 0 -271.628 1.44436e-05 5.11636e-05 8.22415 -1.06034e-06 -7.50838e-11)
(-1.06318e-13 3.60068e-22 0 -271.628 8.18266e-21 5.11621e-05 8.22415 0 4.61406e-11)
(-2.6038e-14 -4.70198e-38 0 -263.1 -2.205e-36 5.09133e-05 8.08371 -3.3579e-38 9.13786e-11)
(4.71959e-14 1.06089e-22 0 -263.1 -1.08922e-05 5.09149e-05 8.08371 8.95655e-07 -1.14495e-10)
(0 -2.09137e-22 0 -254.724 9.4981e-06 5.04729e-05 7.94181 -1.40709e-06 -9.98686e-11)
(-5.61399e-14 -3.52648e-36 0 -254.724 1.35765e-20 5.04709e-05 7.94181 2.11758e-22 7.171e-11)
(-2.76676e-14 0 -6.59648e-21 -246.515 -8.6112e-35 4.98814e-05 7.79909 2.11758e-22 1.26111e-10)
(9.99412e-14 2.0614e-22 0 -246.515 -9.67418e-06 4.98835e-05 7.79909 1.18467e-06 -1.48533e-10)
(2.44739e-14 0 0 -238.489 1.01999e-05 4.91907e-05 7.65606 -1.73592e-06 -1.33956e-10)
(0 0 0 -238.489 1.52466e-20 4.91881e-05 7.65606 -2.11758e-22 1.06724e-10)
(-2.68802e-14 4.11825e-22 0 -230.654 -1.27055e-20 4.87889e-05 7.51328 0 1.73475e-10)
(-9.58895e-14 0 0 -230.654 -3.23308e-06 4.87918e-05 7.51328 1.50754e-06 -1.95014e-10)
(-2.6495e-14 3.94806e-22 -6.31689e-21 -223.017 7.47447e-07 4.80751e-05 7.37102 -1.87633e-06 -1.82391e-10)
(0 0 0 -223.017 -1.66078e-20 4.80717e-05 7.37102 0 1.56051e-10)
(-5.22304e-14 4.86236e-20 0 -215.587 -4.23516e-22 4.73937e-05 7.22973 2.11758e-22 2.37156e-10)
(0 0 -1.24527e-20 -215.587 2.46512e-06 4.73975e-05 7.22973 1.52714e-06 -2.5789e-10)
(2.25261e-14 -3.8357e-22 0 -208.367 -1.37761e-06 4.6598e-05 7.08979 -1.8354e-06 -2.49703e-10)
(0 1.67544e-19 0 -208.367 2.82963e-20 4.65935e-05 7.08979 -2.11758e-22 2.2438e-10)
(2.20629e-14 3.06853e-20 0 -201.357 4.00073e-22 4.56117e-05 6.95141 0 3.23756e-10)
(0 0 -6.04915e-21 -201.357 1.78208e-06 4.56168e-05 6.95141 1.46508e-06 -3.43523e-10)
(-4.3218e-14 0 0 -194.557 6.36669e-06 4.49666e-05 6.81473 -1.81985e-06 -3.4349e-10)
(8.6436e-14 1.88079e-37 0 -194.557 3.02197e-20 4.49605e-05 6.81473 -2.11758e-22 3.19123e-10)
(-2.11642e-14 0 0 -187.966 0 4.37526e-05 6.67992 2.11758e-22 4.42164e-10)
(0 -3.67312e-22 0 -187.966 -1.06521e-05 4.37594e-05 6.67992 1.65839e-06 -4.61062e-10)
(0 0 0 -181.579 2.02477e-05 4.29598e-05 6.54712 -2.25419e-06 -4.72929e-10)
(-2.42966e-14 4.70198e-38 -1.15855e-20 -181.579 1.69407e-20 4.29516e-05 6.54712 0 4.49648e-10)
(0 2.69138e-48 0 -175.392 1.29157e-21 4.18702e-05 6.41627 4.23516e-22 6.04853e-10)
(0 3.56859e-22 -1.14195e-20 -175.392 -1.96469e-05 4.18793e-05 6.41627 2.3502e-06 -6.22696e-10)
(-2.36051e-14 3.51744e-22 -5.6279e-21 -169.402 2.15123e-05 4.06002e-05 6.28751 -2.25225e-06 -6.52476e-10)
(0 0 0 -169.402 2.45586e-20 4.05893e-05 6.28751 -4.23516e-22 6.30258e-10)
(0 4.28463e-22 0 -163.601 -8.56926e-22 3.94694e-05 6.1608 4.23516e-22 8.26691e-10)
(1.32517e-13 0 -1.10945e-20 -163.601 -1.38021e-05 3.94817e-05 6.1608 3.11085e-06 -8.43544e-10)
(-3.81429e-14 4.50368e-22 0 -157.982 2.08485e-05 3.84756e-05 6.036 -2.07633e-06 -9.02403e-10)
(7.62858e-14 0 0 -157.982 -1.02017e-21 3.8461e-05 6.036 -4.23516e-22 8.81392e-10)
(4.12828e-14 5.328e-22 0 -152.54 0 3.69438e-05 5.91315 0 1.13177e-09)
(0 0 0 -152.54 -2.083e-05 3.69602e-05 5.91315 3.8626e-06 -1.14749e-09)
(0 0 0 -147.271 2.95232e-05 3.55741e-05 5.79222 -1.79545e-06 -1.24758e-09)
(-9.54529e-14 3.22591e-21 -1.06242e-20 -147.271 1.29036e-21 3.55546e-05 5.79222 -8.47033e-22 1.22777e-09)
(-1.79159e-14 -1.41059e-36 0 -142.166 -2.74438e-21 3.41338e-05 5.67309 0 1.55133e-09)
(7.16637e-14 -1.9635e-21 0 -142.166 -2.15328e-05 3.41559e-05 5.67309 4.96713e-06 -1.56596e-09)
(0 0 0 -137.22 3.24561e-05 3.29201e-05 5.55571 -1.3701e-06 -1.72697e-09)
(0 -1.15669e-35 -1.03219e-20 -137.22 4.1329e-20 3.28939e-05 5.55571 1.10483e-37 1.70852e-09)
(0 9.62965e-35 0 -132.43 -1.71686e-21 3.11719e-05 5.44006 0 2.13014e-09)
(0 0 0 -132.43 -2.79738e-05 3.12018e-05 5.44006 6.20884e-06 -2.14317e-09)
(-1.68315e-14 8.97643e-22 0 -127.79 3.61933e-05 2.97662e-05 5.32614 -7.4636e-07 -2.39174e-09)
(0 1.39867e-35 0 -127.79 5.03925e-20 2.97308e-05 5.32614 0 2.37425e-09)
(8.48756e-15 -6.01853e-36 9.8844e-21 -123.296 -1.11372e-20 2.78593e-05 5.21393 -3.02603e-37 2.93306e-09)
(1.31882e-13 -2.4711e-21 0 -123.296 -3.42736e-05 2.78996e-05 5.21393 7.87913e-06 -2.9451e-09)
(-2.0432e-14 -1.25942e-21 0 -118.941 7.95766e-20 2.63989e-05 5.10333 0 -3.3181e-09)
(0 0 0 -118.941 7.04185e-06 2.63514e-05 5.10333 -1.49467e-07 3.30244e-09)
(-2.01391e-14 9.62965e-35 -9.60309e-21 -114.722 -5.54457e-20 2.44531e-05 4.99429 1.69407e-21 4.0417e-09)
(-2.01391e-14 0 -9.60309e-21 -114.722 -4.02124e-05 2.45075e-05 4.99429 9.88228e-06 -4.05225e-09)
(-4.64729e-14 4.36344e-35 0 -110.631 7.85864e-20 2.30839e-05 4.88672 1.69407e-21 -4.60315e-09)
(1.23928e-13 -1.10326e-20 0 -110.631 4.16566e-05 2.302e-05 4.88672 -1.41706e-06 4.58901e-09)
(0 9.62965e-35 0 -106.664 0 2.0962e-05 4.7805 0 5.57409e-09)
(1.21392e-13 -3.92312e-21 0 -106.664 -4.88797e-05 2.10353e-05 4.7805 1.19584e-05 -5.58319e-09)
(-1.48641e-14 0 0 -102.815 8.82731e-20 1.9514e-05 4.67557 1.69407e-21 -6.3861e-09)
(0 0 0 -102.815 5.01366e-05 1.94279e-05 4.67557 -3.19041e-06 6.37355e-09)
(1.45613e-14 2.20531e-21 0 -99.0782 -5.58749e-34 1.71191e-05 4.5718 0 7.70037e-09)
(1.1649e-13 -3.15802e-21 0 -99.0782 -5.83974e-05 1.72183e-05 4.5718 1.46761e-05 -7.70778e-09)
(1.87367e-14 -1.92593e-34 0 -95.449 1.71256e-20 1.5934e-05 4.46907 -3.38813e-21 -8.86811e-09)
(3.83251e-14 -6.82939e-21 0 -95.449 6.38259e-05 1.58177e-05 4.46907 -5.65183e-06 8.85716e-09)
(1.39765e-14 5.60119e-21 0 -91.9226 -1.1077e-19 1.33562e-05 4.36728 3.38813e-21 1.06552e-08)
(0 0 0 -91.9226 -7.5491e-05 1.34905e-05 4.36728 1.82533e-05 -1.06609e-08)
(2.7389e-14 -1.26933e-20 0 -88.4945 3.66777e-19 1.21643e-05 4.26633 0 -1.23252e-08)
(3.65746e-14 -7.65705e-21 -8.68008e-21 -88.4945 8.05703e-05 1.2007e-05 4.26633 -9.04991e-06 1.2316e-08)
(0 1.92593e-34 7.13414e-20 -85.1611 1.42983e-20 3.31456e-06 4.16615 0 1.47662e-08)
(0 0 -3.40917e-20 -85.1611 -9.08167e-05 8.59727e-06 4.16615 2.29856e-05 -1.47702e-08)
(1.76854e-14 -4.03113e-21 8.43305e-21 -81.9189 1.46506e-19 8.47359e-06 4.06668 0 -1.71471e-08)
(5.26038e-14 -8.49445e-21 0 -81.9189 9.5163e-05 8.26043e-06 4.06668 -1.37226e-05 1.71396e-08)
(2.57787e-14 1.81491e-20 1.20996e-19 -78.7652 -3.79471e-19 0 3.96786 0 0)
(0 0 0 -78.7652 -0.000108505 3.2889e-06 3.96786 2.92733e-05 -2.04993e-08)
(1.26344e-14 -1.02222e-20 0 -75.6971 2.23501e-19 4.5446e-06 3.86968 -6.77626e-21 -2.3883e-08)
(5.05378e-14 -9.25717e-21 0 -75.6971 0.000115386 4.25528e-06 3.86968 -2.01305e-05 2.38772e-08)
(0 1.15159e-20 1.21124e-20 -72.7122 -4.60786e-19 4.23516e-22 3.77209 -6.77626e-21 0)
(4.9545e-14 -5.93768e-21 0 -72.7122 -0.000130792 1.45338e-06 3.77209 3.76614e-05 -2.85002e-08)
(-1.21447e-14 7.52316e-37 0 -69.8083 0 5.6349e-07 3.67507 0 -3.33068e-08)
(-4.85788e-14 9.86619e-21 0 -69.8083 0.000140031 1.70099e-07 3.67507 -2.89027e-05 3.33027e-08)
(-2.83636e-14 -1.71528e-34 -1.29304e-37 -66.984 -3.06545e-19 -2.31037e-22 3.57863 -6.77626e-21 -1.52899e-39)
(0 0 0 -66.984 -0.000158627 -2.88057e-06 3.57863 4.88925e-05 -3.96934e-08)
(-1.16814e-14 -7.22224e-35 0 -64.2385 3.25261e-19 -3.53501e-06 3.48279 -6.77626e-21 -4.65118e-08)
(-4.67256e-14 1.01926e-20 0 -64.2385 0.000169967 -4.07088e-06 3.48279 -4.08989e-05 4.65095e-08)
(1.59855e-14 0 1.20371e-35 -61.5723 0 0 3.38766 1.35525e-20 0)
(0 0 0 -61.5723 -0.000190839 -7.33721e-06 3.38766 6.39806e-05 -5.53803e-08)
(0 -1.04452e-20 7.51325e-21 -58.9871 5.42101e-20 -7.78508e-06 3.29338 -1.35525e-20 -6.50468e-08)
(8.99528e-14 -1.99254e-20 0 -58.9871 0.000202984 -8.51643e-06 3.29338 -5.72964e-05 6.50462e-08)
(-1.1035e-14 -6.01853e-36 2.93874e-39 -56.4862 0 0 3.2002 1.35525e-20 2.98183e-39)
(4.41399e-14 3.17449e-22 0 -56.4862 -0.000224856 -1.10821e-05 3.2002 8.43131e-05 -7.74074e-08)
(-1.5308e-14 -1.323e-20 -7.29943e-21 -54.0739 4.33681e-19 -1.18583e-05 3.10847 0 -9.11125e-08)
(-4.3328e-14 8.6597e-21 0 -54.0739 0.000239607 -1.28585e-05 3.10847 -7.97103e-05 9.11137e-08)
(-1.50886e-14 5.35649e-34 5.46605e-37 -51.7561 -9.7781e-19 -9.86698e-22 3.0186 1.35525e-20 -1.25273e-38)
(0 4.31689e-20 -3.43538e-20 -51.7561 -0.000268042 -1.50802e-05 3.0186 0.000107454 -1.08402e-07)
(-1.93009e-14 3.72144e-35 -7.09169e-21 -49.5388 6.70395e-20 -1.59635e-05 2.93112 0 -1.27842e-07)
(5.66475e-14 -1.99478e-20 0 -49.5388 0.000289627 -1.73344e-05 2.93112 -0.000110362 1.27845e-07)
(1.46592e-14 1.78756e-33 0 -47.4274 -7.56446e-20 -8.44395e-23 2.84652 0 0)
(0 0 0 -47.4274 -0.000323899 -2.05598e-05 2.84652 0.000136291 -1.52103e-07)
(1.44491e-14 -4.25641e-20 6.88986e-21 -45.4263 7.58942e-19 -2.01739e-05 2.76531 0 -1.79699e-07)