/*--------------------------------*- C++ -*----------------------------------*\
| =========                 |                                                 |
| \\      /  F ield         | OpenFOAM: The Open Source CFD Toolbox           |
|  \\    /   O peration     | Version:  2012                                  |
|   \\  /    A nd           | Website:  www.openfoam.com                      |
|    \\/     M anipulation  |                                                 |
\*---------------------------------------------------------------------------*/
FoamFile
{
    version     2.0;
    format      ascii;
    class       volScalarField;
    location    "14800";
    object      omega;
}
// * * * * * * * * * * * * * * * * * * * * * * * * * * * * * * * * * * * * * //

dimensions      [0 0 -1 0 0 0 0];


internalField   nonuniform List<scalar> 
2560
(
1.52416e+06
1.52416e+06
264638
264638
88345
88345
41146.6
41146.6
24462.2
24462.2
17285.8
17285.8
13554.2
13554.2
11312.5
11312.5
9824.27
9824.27
8764.7
8764.7
7971.1
7971.1
7353.64
7353.64
6858.81
6858.81
6452.8
6452.8
6113.15
6113.15
5824.42
5824.42
5575.58
5575.58
5358.54
5358.54
5167.26
5167.26
4997.1
4997.1
4844.44
4844.44
4706.42
4706.42
4580.72
4580.72
4465.48
4465.48
4359.15
4359.15
4260.44
4260.44
4168.27
4168.27
4081.72
4081.72
3999.99
3999.99
3922.42
3922.42
3848.42
3848.42
3777.47
3777.47
3709.13
3709.13
3642.99
3642.99
3578.72
3578.72
3515.99
3515.99
3454.55
3454.55
3394.14
3394.14
3334.55
3334.55
3275.6
3275.6
3217.13
3217.13
3159
3159
3101.08
3101.08
3043.27
3043.27
2985.51
2985.51
2927.71
2927.71
2869.85
2869.85
2811.89
2811.89
2753.82
2753.82
2695.65
2695.65
2637.4
2637.4
2579.1
2579.1
2520.8
2520.8
2462.58
2462.58
2404.5
2404.5
2346.66
2346.66
2289.17
2289.17
2232.12
2232.12
2175.65
2175.65
2119.88
2119.88
2064.94
2064.94
2010.97
2010.97
1958.1
1958.1
1906.48
1906.48
1856.24
1856.24
1807.5
1807.5
1760.38
1760.38
1714.98
1714.98
1671.4
1671.4
1629.71
1629.71
1589.96
1589.96
1552.2
1552.2
1516.43
1516.43
1482.66
1482.66
1450.84
1450.84
1420.95
1420.95
1392.9
1392.9
1366.61
1366.61
1341.99
1341.99
1318.93
1318.93
1297.3
1297.3
1276.99
1276.99
1257.87
1257.87
1239.8
1239.8
1222.67
1222.67
1206.35
1206.35
1190.72
1190.72
1175.67
1175.67
1161.1
1161.1
1146.92
1146.92
1133.04
1133.04
1119.38
1119.38
1105.87
1105.87
1092.46
1092.46
1079.1
1079.1
1065.75
1065.75
1052.36
1052.36
1038.91
1038.91
1025.39
1025.39
1011.77
1011.77
998.044
998.044
984.21
984.21
970.265
970.265
956.21
956.21
942.051
942.051
927.793
927.793
913.447
913.447
899.024
899.024
884.535
884.535
869.993
869.993
855.413
855.413
840.807
840.807
826.191
826.191
811.577
811.577
796.981
796.981
782.415
782.415
767.894
767.894
753.428
753.428
739.031
739.031
724.714
724.714
710.488
710.488
696.363
696.363
682.348
682.348
668.453
668.453
654.684
654.684
641.051
641.051
627.559
627.559
614.214
614.214
601.023
601.023
587.99
587.99
575.12
575.12
562.416
562.416
549.882
549.882
537.521
537.521
525.337
525.337
513.33
513.33
501.503
501.503
489.858
489.858
478.397
478.397
467.119
467.119
456.025
456.025
445.117
445.117
434.395
434.395
423.858
423.858
413.506
413.506
403.34
403.34
393.358
393.358
383.561
383.561
373.947
373.947
364.516
364.516
355.268
355.268
346.201
346.201
337.314
337.314
328.606
328.606
320.077
320.077
311.726
311.726
303.55
303.55
295.549
295.549
287.723
287.723
280.068
280.068
272.584
272.584
265.27
265.27
258.124
258.124
251.143
251.143
244.325
244.325
237.669
237.669
231.172
231.172
224.831
224.831
218.643
218.643
212.606
212.606
206.717
206.717
200.973
200.973
195.371
195.371
189.909
189.909
184.583
184.583
179.392
179.392
174.333
174.333
169.404
169.404
164.602
164.602
159.925
159.925
155.372
155.372
150.939
150.939
146.626
146.626
142.428
142.428
138.346
138.346
134.375
134.375
130.515
130.515
126.762
126.762
123.114
123.114
119.57
119.57
116.127
116.127
112.783
112.783
109.537
109.537
106.386
106.386
103.329
103.329
100.364
100.364
97.4898
97.4898
94.7046
94.7046
92.0071
92.0071
89.3957
89.3957
86.869
86.869
84.4255
84.4255
82.0637
82.0636
79.7817
79.7817
77.5779
77.5778
75.4502
75.4502
73.3968
73.3968
71.4155
71.4155
69.5041
69.5041
67.6607
67.6607
65.8831
65.8831
64.1694
64.1694
62.5175
62.5175
60.9255
60.9255
59.3911
59.3911
57.9122
57.9122
56.4864
56.4864
55.1113
55.1112
53.7841
53.7841
52.5022
52.5022
51.2629
51.2629
50.0633
50.0633
48.9009
48.9009
47.7736
47.7736
46.6793
46.6793
45.6167
45.6166
44.5843
44.5843
43.581
43.5809
42.6053
42.6053
41.6557
41.6557
40.7303
40.7303
39.8273
39.8273
38.9449
38.9449
38.0818
38.0818
37.2365
37.2365
36.4083
36.4083
35.5962
35.5962
34.7999
34.7998
34.0191
34.0191
33.2542
33.2542
32.5054
32.5054
31.7732
31.7732
31.0575
31.0575
30.358
30.358
29.6737
29.6737
29.0032
29.0032
28.3446
28.3446
27.6958
27.6958
27.0542
27.0542
26.4176
26.4176
25.7847
25.7847
25.1553
25.1553
24.5302
24.5302
23.9113
23.9113
23.3009
23.3009
22.7014
22.7014
22.1145
22.1145
21.541
21.5411
20.981
20.9811
20.4345
20.4345
19.9014
19.9013
19.3818
19.3818
18.877
18.8769
18.3884
18.3884
17.9176
17.9176
17.4658
17.4657
17.0336
17.0335
16.6214
16.6214
16.2294
16.2294
15.8575
15.8574
15.5053
15.5053
15.1726
15.1726
14.8586
14.8586
14.5623
14.5623
14.2821
14.2821
14.0164
14.0164
13.7629
13.7628
13.5192
13.5192
13.2827
13.2827
13.051
13.051
12.8219
12.8219
12.5938
12.5938
12.3646
12.3646
12.1321
12.1321
11.8943
11.8943
11.6501
11.6501
11.4001
11.4001
11.1461
11.146
10.8904
10.8904
10.6367
10.6367
10.389
10.389
10.1514
10.1513
9.9258
9.92579
9.71305
9.71304
9.51308
9.51307
9.32588
9.32587
9.15152
9.15151
8.99004
8.99003
8.84148
8.84147
8.70572
8.70571
8.58223
8.58222
8.46991
8.4699
8.36723
8.36723
8.27256
8.27256
8.18404
8.18403
8.09896
8.09896
8.01387
8.01387
7.92571
7.92571
7.83308
7.83307
7.73686
7.73685
7.63966
7.63966
7.54435
7.54434
7.45307
7.45306
7.36767
7.36766
7.29034
7.29034
7.22331
7.22331
7.16804
7.16804
7.12522
7.12523
7.09542
7.09543
7.07977
7.07979
1.52416e+06
1.52416e+06
264638
264638
88345
88345
41146.6
41146.6
24462.2
24462.2
17285.8
17285.8
13554.2
13554.2
11312.5
11312.5
9824.27
9824.27
8764.7
8764.7
7971.1
7971.1
7353.64
7353.64
6858.81
6858.81
6452.8
6452.8
6113.15
6113.15
5824.42
5824.42
5575.58
5575.58
5358.54
5358.54
5167.26
5167.26
4997.1
4997.1
4844.44
4844.44
4706.42
4706.42
4580.72
4580.72
4465.48
4465.48
4359.15
4359.15
4260.44
4260.44
4168.27
4168.27
4081.72
4081.72
3999.99
3999.99
3922.42
3922.42
3848.42
3848.42
3777.47
3777.47
3709.13
3709.13
3642.99
3642.99
3578.72
3578.72
3515.99
3515.99
3454.55
3454.55
3394.14
3394.14
3334.55
3334.55
3275.6
3275.6
3217.13
3217.13
3159
3159
3101.08
3101.08
3043.27
3043.27
2985.51
2985.51
2927.71
2927.71
2869.85
2869.85
2811.89
2811.89
2753.82
2753.82
2695.65
2695.65
2637.4
2637.4
2579.1
2579.1
2520.8
2520.8
2462.58
2462.58
2404.5
2404.5
2346.66
2346.66
2289.17
2289.17
2232.12
2232.12
2175.65
2175.65
2119.88
2119.88
2064.94
2064.94
2010.97
2010.97
1958.1
1958.1
1906.48
1906.48
1856.24
1856.24
1807.5
1807.5
1760.38
1760.38
1714.98
1714.98
1671.4
1671.4
1629.71
1629.71
1589.96
1589.96
1552.2
1552.2
1516.43
1516.43
1482.66
1482.66
1450.84
1450.84
1420.95
1420.95
1392.9
1392.9
1366.61
1366.61
1341.99
1341.99
1318.93
1318.93
1297.3
1297.3
1276.99
1276.99
1257.87
1257.87
1239.8
1239.8
1222.67
1222.67
1206.35
1206.35
1190.72
1190.72
1175.67
1175.67
1161.1
1161.1
1146.92
1146.92
1133.04
1133.04
1119.38
1119.38
1105.87
1105.87
1092.46
1092.46
1079.1
1079.1
1065.75
1065.75
1052.36
1052.36
1038.91
1038.91
1025.39
1025.39
1011.77
1011.77
998.044
998.044
984.21
984.21
970.265
970.265
956.21
956.21
942.05
942.05
927.793
927.793
913.447
913.447
899.024
899.024
884.535
884.535
869.993
869.993
855.413
855.413
840.807
840.807
826.191
826.191
811.577
811.577
796.981
796.981
782.415
782.415
767.894
767.894
753.428
753.428
739.031
739.031
724.714
724.714
710.488
710.488
696.363
696.363
682.348
682.348
668.453
668.453
654.684
654.684
641.051
641.051
627.559
627.559
614.214
614.214
601.023
601.023
587.99
587.99
575.12
575.12
562.416
562.416
549.882
549.882
537.521
537.521
525.337
525.337
513.33
513.33
501.503
501.503
489.858
489.858
478.397
478.397
467.119
467.119
456.025
456.025
445.117
445.117
434.395
434.395
423.858
423.858
413.506
413.506
403.34
403.34
393.358
393.358
383.561
383.561
373.947
373.947
364.516
364.516
355.268
355.268
346.201
346.201
337.314
337.314
328.606
328.606
320.077
320.077
311.726
311.726
303.55
303.55
295.549
295.549
287.723
287.723
280.068
280.068
272.584
272.584
265.27
265.27
258.124
258.124
251.143
251.143
244.325
244.325
237.669
237.669
231.172
231.172
224.831
224.831
218.643
218.643
212.606
212.606
206.717
206.717
200.973
200.973
195.371
195.371
189.909
189.909
184.583
184.583
179.392
179.392
174.333
174.333
169.404
169.404
164.602
164.602
159.925
159.925
155.372
155.372
150.939
150.939
146.626
146.626
142.428
142.428
138.346
138.346
134.375
134.375
130.515
130.515
126.762
126.762
123.114
123.114
119.57
119.57
116.127
116.127
112.783
112.783
109.537
109.537
106.386
106.386
103.329
103.329
100.364
100.364
97.4898
97.4898
94.7046
94.7046
92.007
92.0071
89.3957
89.3957
86.869
86.869
84.4255
84.4255
82.0636
82.0636
79.7817
79.7817
77.5778
77.5778
75.4502
75.4502
73.3968
73.3968
71.4155
71.4155
69.5041
69.5041
67.6607
67.6607
65.8831
65.8831
64.1694
64.1694
62.5175
62.5175
60.9255
60.9255
59.3911
59.3911
57.9122
57.9122
56.4864
56.4865
55.1113
55.1113
53.7841
53.7841
52.5023
52.5023
51.2629
51.2629
50.0633
50.0633
48.901
48.901
47.7736
47.7736
46.6793
46.6793
45.6167
45.6167
44.5843
44.5843
43.581
43.581
42.6053
42.6053
41.6557
41.6557
40.7303
40.7303
39.8273
39.8273
38.945
38.945
38.0818
38.0818
37.2366
37.2366
36.4083
36.4083
35.5962
35.5963
34.7999
34.7999
34.0192
34.0192
33.2542
33.2542
32.5055
32.5055
31.7732
31.7732
31.0575
31.0575
30.358
30.358
29.6737
29.6737
29.0032
29.0032
28.3447
28.3447
27.6958
27.6958
27.0542
27.0542
26.4177
26.4176
25.7847
25.7847
25.1553
25.1553
24.5302
24.5302
23.9113
23.9113
23.3009
23.3009
22.7014
22.7014
22.1145
22.1145
21.5411
21.541
20.9811
20.9811
20.4345
20.4345
19.9013
19.9014
19.3818
19.3818
18.8769
18.877
18.3884
18.3884
17.9176
17.9176
17.4657
17.4658
17.0335
17.0336
16.6214
16.6214
16.2294
16.2294
15.8575
15.8575
15.5053
15.5054
15.1726
15.1727
14.8586
14.8587
14.5623
14.5623
14.2822
14.2822
14.0164
14.0164
13.7629
13.7629
13.5192
13.5192
13.2827
13.2827
13.051
13.051
12.8219
12.8219
12.5938
12.5938
12.3646
12.3646
12.1321
12.1321
11.8943
11.8943
11.6501
11.6501
11.4001
11.4001
11.146
11.146
10.8904
10.8904
10.6366
10.6367
10.389
10.389
10.1513
10.1513
9.92578
9.92579
9.71303
9.71305
9.51307
9.51308
9.32587
9.32588
9.15151
9.15152
8.99003
8.99005
8.84148
8.84149
8.70572
8.70573
8.58223
8.58224
8.46991
8.46992
8.36724
8.36724
8.27257
8.27257
8.18404
8.18404
8.09897
8.09897
8.01387
8.01388
7.92571
7.92571
7.83307
7.83307
7.73685
7.73685
7.63965
7.63966
7.54433
7.54434
7.45305
7.45306
7.36766
7.36766
7.29033
7.29033
7.2233
7.2233
7.16804
7.16803
7.12522
7.12521
7.09543
7.09541
7.07979
7.07977
7.07976
7.07977
7.09537
7.09539
7.12511
7.12513
7.16782
7.16783
7.223
7.22301
7.28991
7.28991
7.36707
7.36706
7.45232
7.45231
7.54326
7.54325
7.63801
7.638
7.73465
7.73464
7.83044
7.83043
7.92275
7.92274
8.01078
8.01078
8.09605
8.09605
8.18153
8.18153
8.27046
8.27046
8.36548
8.36547
8.46844
8.46843
8.58102
8.58101
8.70482
8.70481
8.84091
8.8409
8.98979
8.98978
9.15158
9.15157
9.32624
9.32623
9.51373
9.51372
9.71397
9.71396
9.92699
9.92698
10.1528
10.1528
10.3908
10.3907
10.6387
10.6387
10.8927
10.8927
11.1484
11.1484
11.4023
11.4023
11.6519
11.6519
11.8955
11.8955
12.1327
12.1327
12.3648
12.3648
12.5936
12.5936
12.8216
12.8215
13.0504
13.0504
13.282
13.282
13.5183
13.5182
13.7617
13.7617
14.015
14.015
14.2806
14.2806
14.5605
14.5605
14.8567
14.8567
15.1706
15.1706
15.5033
15.5033
15.8554
15.8553
16.2273
16.2273
16.6193
16.6193
17.0314
17.0314
17.4636
17.4636
17.9155
17.9155
18.3863
18.3863
18.8749
18.8748
19.3797
19.3797
19.8994
19.8993
20.4327
20.4327
20.9793
20.9793
21.5392
21.5393
22.1126
22.1127
22.6993
22.6994
23.2986
23.2986
23.9088
23.9089
24.5277
24.5277
25.1527
25.1527
25.782
25.782
26.4146
26.4146
27.051
27.051
27.6926
27.6926
28.3416
28.3416
29.0005
29.0005
29.6715
29.6715
30.3564
30.3564
31.0565
31.0565
31.7725
31.7725
32.5048
32.5048
33.2534
33.2534
34.0182
34.0182
34.7987
34.7987
35.5948
35.5948
36.4068
36.4068
37.2349
37.2349
38.08
38.08
38.9433
38.9432
39.8257
39.8256
40.7287
40.7287
41.6543
41.6543
42.6043
42.6043
43.5803
43.5803
44.5842
44.5842
45.6171
45.6171
46.6802
46.6801
47.7747
47.7747
48.9022
48.9022
50.0647
50.0647
51.2643
51.2643
52.5038
52.5038
53.7857
53.7857
55.113
55.113
56.4881
56.4881
57.9138
57.9138
59.3924
59.3924
60.9265
60.9265
62.5182
62.5182
64.1698
64.1697
65.8832
65.8832
67.6606
67.6606
69.5039
69.5039
71.4153
71.4152
73.3966
73.3966
75.4501
75.45
77.5777
77.5777
79.7816
79.7816
82.0637
82.0636
84.4256
84.4256
86.8692
86.8692
89.3959
89.3958
92.0072
92.0072
94.7047
94.7047
97.4899
97.4898
100.364
100.364
103.329
103.329
106.386
106.386
109.537
109.537
112.783
112.783
116.127
116.127
119.57
119.57
123.114
123.114
126.762
126.762
130.514
130.514
134.375
134.375
138.345
138.345
142.428
142.428
146.625
146.625
150.938
150.938
155.371
155.371
159.924
159.924
164.601
164.601
169.402
169.402
174.332
174.332
179.391
179.391
184.582
184.582
189.907
189.907
195.369
195.369
200.971
200.971
206.715
206.715
212.604
212.604
218.641
218.641
224.829
224.829
231.17
231.17
237.667
237.667
244.323
244.323
251.14
251.14
258.121
258.121
265.268
265.268
272.582
272.582
280.065
280.065
287.719
287.719
295.546
295.546
303.547
303.547
311.722
311.722
320.074
320.074
328.603
328.603
337.31
337.31
346.197
346.197
355.264
355.264
364.512
364.512
373.943
373.943
383.556
383.556
393.353
393.353
403.335
403.335
413.501
413.501
423.853
423.853
434.39
434.39
445.113
445.113
456.021
456.021
467.114
467.114
478.393
478.393
489.855
489.855
501.5
501.5
513.326
513.326
525.333
525.333
537.517
537.517
549.878
549.878
562.411
562.411
575.115
575.115
587.985
587.985
601.018
601.018
614.209
614.209
627.553
627.553
641.045
641.045
654.678
654.678
668.445
668.445
682.34
682.34
696.353
696.353
710.477
710.477
724.702
724.702
739.017
739.017
753.412
753.412
767.875
767.875
782.394
782.394
796.957
796.957
811.551
811.551
826.162
826.162
840.778
840.778
855.382
855.382
869.962
869.962
884.503
884.503
898.991
898.991
913.414
913.414
927.759
927.759
942.016
942.016
956.174
956.174
970.227
970.227
984.171
984.171
998.004
998.004
1011.73
1011.73
1025.35
1025.35
1038.87
1038.87
1052.32
1052.32
1065.71
1065.71
1079.06
1079.06
1092.42
1092.42
1105.83
1105.83
1119.32
1119.32
1132.97
1132.97
1146.84
1146.84
1161.02
1161.02
1175.58
1175.58
1190.62
1190.62
1206.25
1206.25
1222.56
1222.56
1239.69
1239.69
1257.75
1257.75
1276.86
1276.86
1297.17
1297.17
1318.78
1318.78
1341.84
1341.84
1366.45
1366.45
1392.73
1392.73
1420.77
1420.77
1450.66
1450.66
1482.47
1482.47
1516.24
1516.24
1552
1552
1589.76
1589.76
1629.5
1629.5
1671.19
1671.19
1714.77
1714.77
1760.16
1760.16
1807.28
1807.28
1856.03
1856.03
1906.27
1906.27
1957.9
1957.9
2010.76
2010.76
2064.73
2064.73
2119.67
2119.67
2175.45
2175.45
2231.94
2231.94
2289
2289
2346.51
2346.51
2404.36
2404.36
2462.46
2462.46
2520.71
2520.71
2579.03
2579.03
2637.35
2637.35
2695.62
2695.62
2753.81
2753.81
2811.9
2811.9
2869.89
2869.89
2927.78
2927.78
2985.59
2985.59
3043.38
3043.38
3101.21
3101.21
3159.15
3159.15
3217.3
3217.3
3275.79
3275.79
3334.75
3334.75
3394.35
3394.35
3454.77
3454.77
3516.23
3516.23
3578.96
3578.96
3643.24
3643.24
3709.38
3709.38
3777.73
3777.73
3848.68
3848.68
3922.69
3922.69
4000.26
4000.26
4081.99
4081.99
4168.56
4168.56
4260.74
4260.74
4359.45
4359.45
4465.78
4465.78
4581.02
4581.02
4706.71
4706.71
4844.73
4844.73
4997.39
4997.39
5167.55
5167.55
5358.82
5358.82
5575.85
5575.85
5824.69
5824.69
6113.42
6113.42
6453.06
6453.06
6859.07
6859.07
7353.89
7353.89
7971.35
7971.35
8764.94
8764.94
9824.5
9824.5
11312.7
11312.7
13554.4
13554.4
17286
17286
24462.3
24462.3
41146.7
41146.7
88345.2
88345.2
264639
264639
1.52417e+06
1.52417e+06
7.07977
7.07976
7.09539
7.09537
7.12513
7.12512
7.16783
7.16782
7.22301
7.22301
7.28991
7.28991
7.36707
7.36707
7.45232
7.45233
7.54326
7.54327
7.63801
7.63801
7.73464
7.73465
7.83043
7.83044
7.92274
7.92275
8.01078
8.01078
8.09605
8.09605
8.18152
8.18152
8.27045
8.27046
8.36547
8.36547
8.46843
8.46843
8.58101
8.58102
8.70481
8.70481
8.8409
8.84091
8.98978
8.98979
9.15157
9.15158
9.32623
9.32625
9.51372
9.51373
9.71397
9.71398
9.92699
9.927
10.1528
10.1528
10.3908
10.3908
10.6387
10.6387
10.8927
10.8927
11.1484
11.1484
11.4023
11.4024
11.6519
11.6519
11.8955
11.8955
12.1327
12.1327
12.3648
12.3648
12.5936
12.5936
12.8215
12.8216
13.0504
13.0504
13.282
13.282
13.5182
13.5182
13.7617
13.7617
14.015
14.015
14.2806
14.2806
14.5605
14.5605
14.8567
14.8567
15.1706
15.1706
15.5033
15.5033
15.8553
15.8554
16.2273
16.2273
16.6193
16.6193
17.0314
17.0314
17.4636
17.4636
17.9155
17.9155
18.3863
18.3863
18.8749
18.8749
19.3797
19.3798
19.8994
19.8994
20.4327
20.4327
20.9794
20.9793
21.5393
21.5393
22.1127
22.1127
22.6994
22.6993
23.2987
23.2986
23.9089
23.9089
24.5278
24.5277
25.1528
25.1528
25.782
25.782
26.4146
26.4146
27.051
27.051
27.6926
27.6926
28.3416
28.3416
29.0005
29.0005
29.6715
29.6715
30.3564
30.3564
31.0565
31.0565
31.7725
31.7725
32.5048
32.5048
33.2534
33.2534
34.0181
34.0181
34.7986
34.7986
35.5948
35.5948
36.4067
36.4067
37.2348
37.2348
38.08
38.08
38.9432
38.9432
39.8256
39.8256
40.7287
40.7287
41.6542
41.6543
42.6042
42.6042
43.5802
43.5802
44.5841
44.5841
45.617
45.617
46.6801
46.6801
47.7746
47.7746
48.9021
48.9021
50.0646
50.0646
51.2642
51.2642
52.5037
52.5037
53.7856
53.7856
55.1129
55.1129
56.488
56.488
57.9137
57.9137
59.3923
59.3923
60.9264
60.9264
62.5181
62.5181
64.1697
64.1697
65.8831
65.8831
67.6605
67.6605
69.5038
69.5039
71.4152
71.4152
73.3965
73.3965
75.45
75.45
77.5776
77.5776
79.7815
79.7815
82.0636
82.0636
84.4255
84.4255
86.8691
86.8691
89.3958
89.3958
92.0071
92.0071
94.7046
94.7046
97.4898
97.4898
100.364
100.364
103.329
103.329
106.386
106.386
109.537
109.537
112.783
112.783
116.127
116.127
119.57
119.57
123.114
123.114
126.761
126.762
130.514
130.514
134.375
134.375
138.345
138.345
142.428
142.428
146.624
146.624
150.938
150.938
155.371
155.371
159.924
159.924
164.6
164.6
169.402
169.402
174.332
174.332
179.391
179.391
184.582
184.582
189.907
189.907
195.369
195.369
200.971
200.971
206.715
206.715
212.604
212.604
218.641
218.641
224.829
224.829
231.17
231.17
237.667
237.667
244.323
244.323
251.14
251.14
258.121
258.121
265.268
265.268
272.582
272.582
280.065
280.065
287.719
287.719
295.546
295.546
303.547
303.547
311.722
311.722
320.074
320.074
328.602
328.602
337.31
337.31
346.196
346.196
355.264
355.264
364.512
364.512
373.942
373.942
383.556
383.556
393.353
393.353
403.335
403.335
413.501
413.501
423.853
423.853
434.39
434.39
445.113
445.113
456.021
456.021
467.114
467.114
478.392
478.392
489.855
489.855
501.5
501.5
513.326
513.326
525.333
525.333
537.517
537.517
549.878
549.878
562.411
562.411
575.115
575.115
587.985
587.985
601.018
601.018
614.209
614.209
627.553
627.553
641.045
641.045
654.678
654.678
668.445
668.445
682.34
682.34
696.353
696.353
710.477
710.477
724.702
724.702
739.017
739.017
753.412
753.412
767.875
767.875
782.394
782.394
796.957
796.957
811.551
811.551
826.162
826.162
840.777
840.777
855.382
855.382
869.962
869.962
884.502
884.502
898.991
898.991
913.414
913.414
927.759
927.759
942.016
942.016
956.174
956.174
970.226
970.226
984.171
984.171
998.004
998.004
1011.73
1011.73
1025.35
1025.35
1038.87
1038.87
1052.32
1052.32
1065.71
1065.71
1079.06
1079.06
1092.42
1092.42
1105.83
1105.83
1119.32
1119.32
1132.97
1132.97
1146.84
1146.84
1161.02
1161.02
1175.58
1175.58
1190.62
1190.62
1206.25
1206.25
1222.56
1222.56
1239.69
1239.69
1257.75
1257.75
1276.86
1276.86
1297.17
1297.17
1318.78
1318.78
1341.84
1341.84
1366.45
1366.45
1392.73
1392.73
1420.77
1420.77
1450.66
1450.66
1482.47
1482.47
1516.24
1516.24
1552
1552
1589.76
1589.76
1629.5
1629.5
1671.19
1671.19
1714.77
1714.77
1760.16
1760.16
1807.29
1807.29
1856.03
1856.03
1906.27
1906.27
1957.9
1957.9
2010.76
2010.76
2064.73
2064.73
2119.67
2119.67
2175.45
2175.45
2231.94
2231.94
2289
2289
2346.51
2346.51
2404.36
2404.36
2462.46
2462.46
2520.71
2520.71
2579.03
2579.03
2637.35
2637.35
2695.62
2695.62
2753.81
2753.81
2811.9
2811.9
2869.89
2869.89
2927.78
2927.78
2985.59
2985.59
3043.38
3043.38
3101.21
3101.21
3159.15
3159.15
3217.3
3217.3
3275.79
3275.79
3334.75
3334.75
3394.35
3394.35
3454.77
3454.77
3516.23
3516.23
3578.96
3578.96
3643.24
3643.24
3709.38
3709.38
3777.73
3777.73
3848.68
3848.68
3922.69
3922.69
4000.26
4000.26
4081.99
4081.99
4168.56
4168.56
4260.74
4260.74
4359.45
4359.45
4465.78
4465.78
4581.02
4581.02
4706.71
4706.71
4844.73
4844.73
4997.39
4997.39
5167.55
5167.55
5358.82
5358.82
5575.85
5575.85
5824.69
5824.69
6113.42
6113.42
6453.06
6453.06
6859.07
6859.07
7353.89
7353.89
7971.35
7971.35
8764.94
8764.94
9824.49
9824.49
11312.7
11312.7
13554.4
13554.4
17286
17286
24462.3
24462.3
41146.7
41146.7
88345.2
88345.2
264639
264639
1.52417e+06
1.52417e+06
)
;

boundaryField
{
    walls
    {
        blending        binomial2;
        n               2;
        beta1           0.075;
        type            omegaWallFunction;
        value           nonuniform List<scalar> 8(1.52416e+06 1.52416e+06 1.52416e+06 1.52416e+06 1.52417e+06 1.52417e+06 1.52417e+06 1.52417e+06);
    }
    inlet
    {
        type            cyclic;
    }
    outlet
    {
        type            cyclic;
    }
    sides
    {
        type            empty;
    }
}


// ************************************************************************* //
