/*--------------------------------*- C++ -*----------------------------------*\
| =========                 |                                                 |
| \\      /  F ield         | OpenFOAM: The Open Source CFD Toolbox           |
|  \\    /   O peration     | Version:  2012                                  |
|   \\  /    A nd           | Website:  www.openfoam.com                      |
|    \\/     M anipulation  |                                                 |
\*---------------------------------------------------------------------------*/
FoamFile
{
    version     2.0;
    format      ascii;
    class       volSymmTensorField;
    location    "14800";
    object      turbulenceProperties:R;
}
// * * * * * * * * * * * * * * * * * * * * * * * * * * * * * * * * * * * * * //

dimensions      [0 2 -2 0 0 0 0];


internalField   nonuniform List<symmTensor> 
2560
(
(0.00480622 -6.26722e-06 -9.07673e-09 0.00480622 3.22652e-12 0.00480622)
(0.00480622 -6.26722e-06 -9.07673e-09 0.00480622 2.24189e-15 0.00480622)
(0.114822 -0.000861415 -3.76225e-06 0.114822 -1.04513e-30 0.114822)
(0.114822 -0.000861416 -3.76225e-06 0.114822 8.96378e-13 0.114822)
(0.797639 -0.0179052 -0.000107424 0.797639 -3.39457e-09 0.797639)
(0.797639 -0.0179052 -0.000107424 0.797639 2.77394e-11 0.797639)
(2.49173 -0.119953 -0.00073011 2.49173 -2.47405e-08 2.49173)
(2.49173 -0.119953 -0.00073011 2.49173 1.81515e-10 2.49173)
(4.68789 -0.379129 -0.00234111 4.68789 -4.70872e-08 4.68789)
(4.68789 -0.379129 -0.00234111 4.68789 4.15128e-10 4.68789)
(6.78879 -0.77598 -0.00486127 6.78879 -4.68948e-08 6.78879)
(6.78879 -0.775981 -0.00486127 6.78879 8.74723e-10 6.78879)
(8.67895 -1.26353 -0.00803075 8.67895 -3.97089e-08 8.67895)
(8.67895 -1.26353 -0.00803075 8.67895 1.57504e-09 8.67895)
(10.3918 -1.81041 -0.0116742 10.3918 -3.43786e-08 10.3918)
(10.3918 -1.81041 -0.0116742 10.3918 2.64459e-09 10.3918)
(11.9695 -2.39829 -0.0156906 11.9695 -3.19937e-08 11.9695)
(11.9695 -2.39829 -0.0156906 11.9695 4.06648e-09 11.9695)
(13.4434 -3.01591 -0.0200192 13.4434 -3.22738e-08 13.4434)
(13.4434 -3.01591 -0.0200192 13.4434 3.02092e-09 13.4434)
(14.8352 -3.65587 -0.0246216 14.8352 -3.48961e-08 14.8352)
(14.8352 -3.65587 -0.0246216 14.8352 -2.45498e-11 14.8352)
(16.1601 -4.31304 -0.029472 16.1601 -3.98071e-08 16.1601)
(16.1601 -4.31304 -0.029472 16.1601 -4.02793e-08 16.1601)
(17.429 -4.98372 -0.0345526 17.429 -4.70303e-08 17.429)
(17.429 -4.98372 -0.0345526 17.429 -4.74692e-08 17.429)
(18.6497 -5.6651 -0.0398509 18.6497 -5.66893e-08 18.6497)
(18.6497 -5.6651 -0.0398509 18.6497 -5.71041e-08 18.6497)
(19.8279 -6.35501 -0.0453575 19.8279 -4.97681e-08 19.8279)
(19.8279 -6.35501 -0.0453575 19.8279 -6.93989e-08 19.8279)
(20.968 -7.05169 -0.0510655 20.968 -3.27213e-08 20.968)
(20.968 -7.05169 -0.0510655 20.968 -8.45518e-08 20.968)
(22.0729 -7.75364 -0.056969 22.0729 -3.22349e-08 22.0729)
(22.0729 -7.75364 -0.056969 22.0729 -9.90614e-08 22.0729)
(23.1451 -8.45958 -0.0630633 23.1451 -3.79303e-08 23.1451)
(23.1451 -8.45958 -0.0630633 23.1451 -1.5573e-10 23.1451)
(24.1862 -9.16829 -0.0693434 24.1862 -4.41154e-08 24.1862)
(24.1862 -9.16829 -0.0693434 24.1862 2.51093e-08 24.1862)
(25.1972 -9.87858 -0.0758045 25.1972 -5.09746e-08 25.1972)
(25.1972 -9.87858 -0.0758045 25.1972 1.90183e-08 25.1972)
(26.1789 -10.5893 -0.082441 26.1789 -5.85522e-08 26.1789)
(26.1789 -10.5893 -0.082441 26.1789 -2.31776e-08 26.1789)
(27.1315 -11.2991 -0.0892461 27.1315 -6.66558e-08 27.1315)
(27.1315 -11.2991 -0.0892461 27.1315 -6.69062e-08 27.1315)
(28.055 -12.0068 -0.0962119 28.055 -7.53209e-08 28.055)
(28.055 -12.0068 -0.0962118 28.055 -7.55869e-08 28.055)
(28.9492 -12.7108 -0.103329 28.9492 -8.50413e-08 28.9492)
(28.9492 -12.7108 -0.103329 28.9492 -8.53223e-08 28.9492)
(29.8135 -13.4096 -0.110586 29.8135 -9.53966e-08 29.8135)
(29.8135 -13.4096 -0.110586 29.8135 -9.56925e-08 29.8135)
(30.6474 -14.1014 -0.11797 30.6474 -1.06341e-07 30.6474)
(30.6474 -14.1014 -0.11797 30.6474 -1.06651e-07 30.6474)
(31.4498 -14.7843 -0.125464 31.4498 -1.17992e-07 31.4498)
(31.4498 -14.7843 -0.125464 31.4498 -1.18317e-07 31.4498)
(32.2199 -15.4563 -0.133052 32.2199 -1.30998e-07 32.2199)
(32.2199 -15.4563 -0.133052 32.2199 -1.3137e-07 32.2199)
(32.9565 -16.115 -0.140711 32.9565 -1.44587e-07 32.9565)
(32.9565 -16.115 -0.140711 32.9565 -1.44942e-07 32.9565)
(33.6583 -16.758 -0.148419 33.6583 -1.58975e-07 33.6583)
(33.6583 -16.758 -0.148419 33.6583 -1.59343e-07 33.6583)
(34.3241 -17.3828 -0.156149 34.3241 -1.74086e-07 34.3241)
(34.3241 -17.3828 -0.156149 34.3241 -1.74468e-07 34.3241)
(34.9524 -17.9866 -0.163873 34.9524 -1.90881e-07 34.9524)
(34.9524 -17.9866 -0.163873 34.9524 -1.91318e-07 34.9524)
(35.5418 -18.5666 -0.171558 35.5418 -2.08184e-07 35.5418)
(35.5418 -18.5666 -0.171558 35.5418 -2.08593e-07 35.5418)
(36.0908 -19.1197 -0.17917 36.0908 -2.26411e-07 36.0908)
(36.0908 -19.1197 -0.17917 36.0908 -2.26833e-07 36.0908)
(36.5981 -19.6429 -0.186671 36.5981 -2.4572e-07 36.5981)
(36.5981 -19.6429 -0.186671 36.5981 -2.46155e-07 36.5981)
(37.0622 -20.133 -0.194022 37.0622 -2.66816e-07 37.0622)
(37.0622 -20.133 -0.194022 37.0622 -2.67263e-07 37.0622)
(37.4816 -20.5869 -0.20118 37.4816 -2.88387e-07 37.4816)
(37.4816 -20.5869 -0.20118 37.4816 -2.88845e-07 37.4816)
(37.8552 -21.0013 -0.208101 37.8552 -3.11012e-07 37.8552)
(37.8552 -21.0013 -0.208101 37.8552 -3.11482e-07 37.8552)
(38.1818 -21.3731 -0.214739 38.1818 -3.34897e-07 38.1818)
(38.1818 -21.3731 -0.214739 38.1818 -3.35378e-07 38.1818)
(38.4602 -21.6992 -0.221048 38.4602 -3.60811e-07 38.4602)
(38.4602 -21.6992 -0.221048 38.4602 -3.61304e-07 38.4602)
(38.6895 -21.9767 -0.226977 38.6895 -3.87469e-07 38.6895)
(38.6895 -21.9767 -0.226977 38.6895 -3.87972e-07 38.6895)
(38.8692 -22.2026 -0.232476 38.8692 -4.15003e-07 38.8692)
(38.8692 -22.2026 -0.232476 38.8692 -4.15517e-07 38.8692)
(38.9986 -22.3743 -0.237496 38.9986 -4.43987e-07 38.9986)
(38.9986 -22.3743 -0.237496 38.9986 -4.44511e-07 38.9986)
(39.0775 -22.4893 -0.241988 39.0775 -4.75289e-07 39.0775)
(39.0775 -22.4893 -0.241988 39.0775 -4.75872e-07 39.0775)
(39.1059 -22.5454 -0.245903 39.1059 -5.06687e-07 39.1059)
(39.1059 -22.5454 -0.245903 39.1059 -5.07347e-07 39.1059)
(39.0841 -22.5406 -0.249192 39.0841 -5.40439e-07 39.0841)
(39.0841 -22.5406 -0.249192 39.0841 -5.41089e-07 39.0841)
(39.0127 -22.4734 -0.25181 39.0127 -5.74005e-07 39.0127)
(39.0127 -22.4734 -0.25181 39.0127 -5.74983e-07 39.0127)
(38.8928 -22.3425 -0.253712 38.8928 -6.12339e-07 38.8928)
(38.8928 -22.3425 -0.253712 38.8928 -6.13282e-07 38.8928)
(38.7255 -22.1469 -0.254855 38.7255 -6.48847e-07 38.7255)
(38.7255 -22.1469 -0.254855 38.7255 -6.49423e-07 38.7255)
(38.5126 -21.8859 -0.255201 38.5126 -6.84214e-07 38.5126)
(38.5126 -21.8859 -0.255201 38.5126 -6.85123e-07 38.5126)
(38.2561 -21.5598 -0.254723 38.2561 -7.27364e-07 38.2561)
(38.2561 -21.5598 -0.254723 38.2561 -7.28151e-07 38.2561)
(37.9584 -21.1688 -0.253382 37.9584 -7.70989e-07 37.9584)
(37.9584 -21.1688 -0.253382 37.9584 -7.73935e-07 37.9584)
(37.6225 -20.7132 -0.251149 37.6225 -8.03925e-07 37.6225)
(37.6225 -20.7132 -0.251149 37.6225 -8.0917e-07 37.6225)
(37.2514 -20.1943 -0.248014 37.2514 -8.55653e-07 37.2514)
(37.2514 -20.1943 -0.248014 37.2514 -8.60133e-07 37.2514)
(36.8488 -19.6138 -0.24395 36.8488 -8.95803e-07 36.8488)
(36.8488 -19.6138 -0.24395 36.8488 -8.99036e-07 36.8488)
(36.4186 -18.973 -0.238946 36.4186 -9.42912e-07 36.4186)
(36.4186 -18.973 -0.238946 36.4186 -9.43533e-07 36.4186)
(35.9652 -18.2745 -0.232999 35.9652 -9.9017e-07 35.9652)
(35.9652 -18.2745 -0.232999 35.9652 -9.92081e-07 35.9652)
(35.493 -17.5207 -0.226104 35.493 -1.02764e-06 35.493)
(35.493 -17.5207 -0.226104 35.493 -1.03214e-06 35.493)
(35.0069 -16.7145 -0.21827 35.0069 -1.07865e-06 35.0069)
(35.0069 -16.7145 -0.21827 35.0069 -1.0819e-06 35.0069)
(34.5121 -15.859 -0.209499 34.5121 -1.12163e-06 34.5121)
(34.5121 -15.859 -0.209499 34.5121 -1.12544e-06 34.5121)
(34.0137 -14.9573 -0.199801 34.0137 -1.1714e-06 34.0137)
(34.0137 -14.9573 -0.199801 34.0137 -1.17387e-06 34.0137)
(33.5171 -14.0125 -0.189189 33.5171 -1.20654e-06 33.5171)
(33.5171 -14.0125 -0.189189 33.5171 -1.21003e-06 33.5171)
(33.0277 -13.0282 -0.177686 33.0277 -1.24776e-06 33.0277)
(33.0277 -13.0282 -0.177686 33.0277 -1.24842e-06 33.0277)
(32.5509 -12.008 -0.165313 32.5509 -1.29763e-06 32.5509)
(32.5509 -12.008 -0.165313 32.5509 -1.29989e-06 32.5509)
(32.0917 -10.955 -0.152079 32.0917 -1.32699e-06 32.0917)
(32.0917 -10.955 -0.152079 32.0917 -1.32767e-06 32.0917)
(31.6554 -9.87249 -0.138018 31.6554 -1.35827e-06 31.6554)
(31.6554 -9.87249 -0.138018 31.6554 -1.36307e-06 31.6554)
(31.2466 -8.764 -0.123152 31.2466 -1.39586e-06 31.2466)
(31.2466 -8.764 -0.123152 31.2466 -1.40118e-06 31.2466)
(30.8698 -7.6325 -0.1075 30.8698 -1.41454e-06 30.8698)
(30.8698 -7.6325 -0.1075 30.8698 -1.42671e-06 30.8698)
(30.5287 -6.48086 -0.0910862 30.5287 -1.45314e-06 30.5287)
(30.5287 -6.48086 -0.0910862 30.5287 -1.46593e-06 30.5287)
(30.2268 -5.31197 -0.0739344 30.2268 -1.44812e-06 30.2268)
(30.2268 -5.31197 -0.0739344 30.2268 -1.4696e-06 30.2268)
(29.9669 -4.12884 -0.0560771 29.9669 -1.49334e-06 29.9669)
(29.9669 -4.12884 -0.0560771 29.9669 -1.51159e-06 29.9669)
(29.751 -2.93418 -0.0375303 29.751 -1.48455e-06 29.751)
(29.751 -2.93418 -0.0375303 29.751 -1.50729e-06 29.751)
(29.5806 -1.73078 -0.0183334 29.5806 -1.52169e-06 29.5806)
(29.5806 -1.73078 -0.0183334 29.5806 -1.5367e-06 29.5806)
(29.4561 -0.000249721 -2.07392e-06 29.4561 -1.51653e-06 29.4561)
(29.4561 -0.000249523 -2.07227e-06 29.4561 -1.5353e-06 29.4561)
(29.3777 0.178906 -0.00150741 29.3777 -1.54644e-06 29.3777)
(29.3777 0.178906 -0.00150741 29.3777 -1.55685e-06 29.3777)
(29.3445 1.89991 -0.022308 29.3445 -1.537e-06 29.3445)
(29.3445 1.89991 -0.022308 29.3445 -1.55255e-06 29.3445)
(29.3548 3.10565 -0.0436805 29.3548 -1.56305e-06 29.3548)
(29.3548 3.10565 -0.0436805 29.3548 -1.56681e-06 29.3548)
(29.4065 4.3021 -0.0655527 29.4065 -1.56743e-06 29.4065)
(29.4065 4.3021 -0.0655527 29.4065 -1.5747e-06 29.4065)
(29.4967 5.48489 -0.0878513 29.4967 -1.58078e-06 29.4967)
(29.4967 5.48489 -0.0878513 29.4967 -1.58626e-06 29.4967)
(29.622 6.6493 -0.110498 29.622 -1.60174e-06 29.622)
(29.622 6.6493 -0.110498 29.622 -1.60425e-06 29.622)
(29.7787 7.79007 -0.133398 29.7787 -1.59653e-06 29.7787)
(29.7787 7.79007 -0.133398 29.7787 -1.61405e-06 29.7787)
(29.9627 8.90153 -0.156441 29.9627 -1.63987e-06 29.9627)
(29.9627 8.90153 -0.156441 29.9627 -1.65054e-06 29.9627)
(30.1694 9.97828 -0.179505 30.1694 -1.63609e-06 30.1694)
(30.1694 9.97828 -0.179505 30.1694 -1.65783e-06 30.1694)
(30.3944 11.0149 -0.202481 30.3944 -1.68413e-06 30.3944)
(30.3944 11.0149 -0.202481 30.3944 -1.69241e-06 30.3944)
(30.633 12.0057 -0.225231 30.633 -1.70415e-06 30.633)
(30.633 12.0057 -0.225231 30.633 -1.72175e-06 30.633)
(30.8805 12.9458 -0.247624 30.8805 -1.75629e-06 30.8805)
(30.8805 12.9458 -0.247624 30.8805 -1.76304e-06 30.8805)
(31.1324 13.8308 -0.269539 31.1324 -1.77344e-06 31.1324)
(31.1324 13.8308 -0.269539 31.1324 -1.79394e-06 31.1324)
(31.3841 14.6563 -0.290854 31.3841 -1.83465e-06 31.3841)
(31.3841 14.6563 -0.290854 31.3841 -1.84328e-06 31.3841)
(31.6314 15.4187 -0.311444 31.6314 -1.84992e-06 31.6314)
(31.6314 15.4187 -0.311444 31.6314 -1.87342e-06 31.6314)
(31.8705 16.1148 -0.331197 31.8705 -1.92639e-06 31.8705)
(31.8705 16.1148 -0.331197 31.8705 -1.93475e-06 31.8705)
(32.0975 16.7423 -0.35 32.0975 -1.96352e-06 32.0975)
(32.0975 16.7423 -0.35 32.0975 -1.98164e-06 32.0975)
(32.3091 17.3001 -0.367771 32.3091 -2.03287e-06 32.3091)
(32.3091 17.3001 -0.367771 32.3091 -2.03445e-06 32.3091)
(32.5023 17.7874 -0.384438 32.5023 -2.06423e-06 32.5023)
(32.5023 17.7874 -0.384438 32.5023 -2.0792e-06 32.5023)
(32.6745 18.2041 -0.399933 32.6745 -2.13167e-06 32.6745)
(32.6745 18.2041 -0.399933 32.6745 -2.13277e-06 32.6745)
(32.8234 18.5507 -0.414198 32.8234 -2.20428e-06 32.8234)
(32.8234 18.5507 -0.414198 32.8234 -2.20539e-06 32.8234)
(32.947 18.829 -0.427202 32.947 -2.22849e-06 32.947)
(32.947 18.829 -0.427202 32.947 -2.24652e-06 32.947)
(33.0439 19.0408 -0.438937 33.0439 -2.30211e-06 33.0439)
(33.0439 19.0408 -0.438937 33.0439 -2.30325e-06 33.0439)
(33.1127 19.1883 -0.449377 33.1127 -2.36083e-06 33.1127)
(33.1127 19.1883 -0.449377 33.1127 -2.362e-06 33.1127)
(33.1528 19.2747 -0.458529 33.1528 -2.39639e-06 33.1528)
(33.1528 19.2747 -0.458529 33.1528 -2.41705e-06 33.1528)
(33.1634 19.3032 -0.466418 33.1634 -2.48286e-06 33.1634)
(33.1634 19.3032 -0.466418 33.1634 -2.49173e-06 33.1634)
(33.1445 19.2777 -0.473066 33.1445 -2.4949e-06 33.1445)
(33.1445 19.2777 -0.473066 33.1445 -2.52132e-06 33.1445)
(33.0959 19.2019 -0.478519 33.0959 -2.56457e-06 33.0959)
(33.0959 19.2019 -0.478519 33.0959 -2.56581e-06 33.0959)
(33.0179 19.0795 -0.482813 33.0179 -2.60915e-06 33.0179)
(33.0179 19.0795 -0.482813 33.0179 -2.62405e-06 33.0179)
(32.911 18.9146 -0.485997 32.911 -2.65879e-06 32.911)
(32.911 18.9146 -0.485997 32.911 -2.66005e-06 32.911)
(32.7759 18.7115 -0.488134 32.7759 -2.68293e-06 32.7759)
(32.7759 18.7115 -0.488134 32.7759 -2.70424e-06 32.7759)
(32.6134 18.4741 -0.489281 32.6134 -2.74451e-06 32.6134)
(32.6134 18.4741 -0.489281 32.6134 -2.75138e-06 32.6134)
(32.4244 18.2065 -0.489509 32.4244 -2.74288e-06 32.4244)
(32.4244 18.2065 -0.489509 32.4244 -2.77351e-06 32.4244)
(32.21 17.9123 -0.488882 32.21 -2.81123e-06 32.21)
(32.21 17.9123 -0.488882 32.21 -2.82327e-06 32.21)
(31.9714 17.5952 -0.487459 31.9714 -2.8006e-06 31.9714)
(31.9714 17.5952 -0.487459 31.9714 -2.8307e-06 31.9714)
(31.7099 17.2587 -0.485318 31.7099 -2.84689e-06 31.7099)
(31.7099 17.2587 -0.485318 31.7099 -2.8506e-06 31.7099)
(31.4266 16.9059 -0.482519 31.4266 -2.85972e-06 31.4266)
(31.4266 16.9059 -0.482519 31.4266 -2.88096e-06 31.4266)
(31.1229 16.5399 -0.479116 31.1229 -2.88532e-06 31.1229)
(31.1229 16.5399 -0.479116 31.1229 -2.89072e-06 31.1229)
(30.8003 16.1636 -0.475185 30.8003 -2.86035e-06 30.8003)
(30.8003 16.1636 -0.475185 30.8003 -2.89662e-06 30.8003)
(30.4599 15.7795 -0.470782 30.4599 -2.8998e-06 30.4599)
(30.4599 15.7795 -0.470782 30.4599 -2.92641e-06 30.4599)
(30.1032 15.3897 -0.465958 30.1032 -2.83872e-06 30.1032)
(30.1032 15.3897 -0.465958 30.1032 -2.89871e-06 30.1032)
(29.7315 14.9966 -0.460767 29.7315 -2.90203e-06 29.7315)
(29.7315 14.9966 -0.460767 29.7315 -2.95317e-06 29.7315)
(29.3461 14.6019 -0.455261 29.3461 -2.81268e-06 29.3461)
(29.3461 14.6019 -0.455261 29.3461 -2.89322e-06 29.3461)
(28.9483 14.2074 -0.449486 28.9483 -2.87482e-06 28.9483)
(28.9483 14.2074 -0.449486 28.9483 -2.94322e-06 28.9483)
(28.5392 13.8146 -0.443482 28.5392 -2.74885e-06 28.5392)
(28.5392 13.8146 -0.443482 28.5392 -2.84925e-06 28.5392)
(28.1201 13.4246 -0.437292 28.1201 -2.83964e-06 28.1201)
(28.1201 13.4246 -0.437292 28.1201 -2.92755e-06 28.1201)
(27.6922 13.0386 -0.430943 27.6922 -2.70099e-06 27.6922)
(27.6922 13.0386 -0.430943 27.6922 -2.81048e-06 27.6922)
(27.2565 12.6575 -0.424471 27.2565 -2.78257e-06 27.2565)
(27.2565 12.6575 -0.424471 27.2565 -2.87245e-06 27.2565)
(26.814 12.2822 -0.417907 26.814 -2.63853e-06 26.814)
(26.814 12.2822 -0.417907 26.814 -2.74645e-06 26.814)
(26.3658 11.9132 -0.411277 26.3658 -2.6986e-06 26.3658)
(26.3658 11.9132 -0.411277 26.3658 -2.78558e-06 26.3658)
(25.9128 11.551 -0.404596 25.9128 -2.56166e-06 25.9128)
(25.9128 11.551 -0.404596 25.9128 -2.66934e-06 25.9128)
(25.4558 11.196 -0.397884 25.4558 -2.60609e-06 25.4558)
(25.4558 11.196 -0.397884 25.4558 -2.70527e-06 25.4558)
(24.9957 10.8485 -0.391159 24.9957 -2.43196e-06 24.9957)
(24.9957 10.8485 -0.391159 24.9957 -2.56615e-06 24.9957)
(24.5333 10.5084 -0.384424 24.5333 -2.50861e-06 24.5333)
(24.5333 10.5084 -0.384424 24.5333 -2.64996e-06 24.5333)
(24.0693 10.1761 -0.377697 24.0693 -2.3036e-06 24.0693)
(24.0693 10.1761 -0.377697 24.0693 -2.43824e-06 24.0693)
(23.6045 9.85145 -0.370982 23.6045 -2.37671e-06 23.6045)
(23.6045 9.85145 -0.370982 23.6045 -2.56477e-06 23.6045)
(23.1393 9.53433 -0.364278 23.1393 -2.19673e-06 23.1393)
(23.1393 9.53433 -0.364278 23.1393 -2.32116e-06 23.1393)
(22.6745 9.22481 -0.357595 22.6745 -2.23416e-06 22.6745)
(22.6745 9.22481 -0.357595 22.6745 -2.46874e-06 22.6745)
(22.2107 8.92276 -0.350936 22.2107 -2.04657e-06 22.2107)
(22.2107 8.92276 -0.350936 22.2107 -2.15417e-06 22.2107)
(21.7482 8.62807 -0.344301 21.7482 -2.07159e-06 21.7482)
(21.7482 8.62807 -0.344301 21.7482 -2.37439e-06 21.7482)
(21.2877 8.34064 -0.337693 21.2877 -1.9177e-06 21.2877)
(21.2877 8.34064 -0.337693 21.2877 -1.99939e-06 21.2877)
(20.8295 8.06043 -0.331114 20.8295 -1.8973e-06 20.8295)
(20.8295 8.06043 -0.331114 20.8295 -2.27702e-06 20.8295)
(20.3741 7.7874 -0.32457 20.3741 -1.76844e-06 20.3741)
(20.3741 7.7874 -0.32457 20.3741 -1.81176e-06 20.3741)
(19.9219 7.52141 -0.318065 19.9219 -1.6995e-06 19.9219)
(19.9219 7.52141 -0.318065 19.9219 -2.18261e-06 19.9219)
(19.4732 7.26229 -0.311598 19.4732 -1.61186e-06 19.4732)
(19.4732 7.26229 -0.311598 19.4732 -1.59983e-06 19.4732)
(19.0284 7.0099 -0.305168 19.0284 -1.49417e-06 19.0284)
(19.0284 7.0099 -0.305168 19.0284 -2.10134e-06 19.0284)
(18.5878 6.76404 -0.298777 18.5878 -1.41136e-06 18.5878)
(18.5878 6.76404 -0.298777 18.5878 -1.32082e-06 18.5878)
(18.1516 6.52452 -0.292418 18.1516 -1.28223e-06 18.1516)
(18.1516 6.52452 -0.292418 18.1516 -2.01819e-06 18.1516)
(17.7201 6.29114 -0.286094 17.7201 -1.19404e-06 17.7201)
(17.7201 6.29114 -0.286094 17.7201 -9.93554e-07 17.7201)
(17.2937 6.06368 -0.279799 17.2937 -1.04771e-06 17.2937)
(17.2937 6.06368 -0.279799 17.2937 -1.95196e-06 17.2937)
(16.8724 5.84193 -0.273528 16.8724 -9.7524e-07 16.8724)
(16.8724 5.84193 -0.273528 16.8724 -6.22201e-07 16.8724)
(16.4565 5.62573 -0.26728 16.4565 -8.17411e-07 16.4565)
(16.4565 5.62573 -0.26728 16.4565 -1.94274e-06 16.4565)
(16.0461 5.41489 -0.261053 16.0461 -7.44319e-07 16.0461)
(16.0461 5.41489 -0.261053 16.0461 -1.80938e-07 16.0461)
(15.6416 5.20928 -0.254843 15.6416 -2.02751e-07 15.6416)
(15.6415 5.20928 -0.254843 15.6416 -1.93191e-06 15.6415)
(15.2429 5.00879 -0.24865 15.2429 -5.18103e-07 15.2429)
(15.2429 5.00879 -0.24865 15.2429 3.33974e-07 15.2429)
(14.8503 4.81331 -0.242475 14.8503 -0 14.8503)
(14.8503 4.81331 -0.242475 14.8503 -1.98986e-06 14.8503)
(14.4639 4.62275 -0.236318 14.4639 -2.77535e-07 14.4639)
(14.4639 4.62275 -0.236318 14.4639 9.69488e-07 14.4639)
(14.0839 4.43703 -0.23018 14.0839 3.87656e-22 14.0839)
(14.0839 4.43703 -0.23018 14.0839 -2.38686e-06 14.0839)
(13.7103 4.25608 -0.224062 13.7103 -3.43549e-08 13.7103)
(13.7103 4.25608 -0.224062 13.7102 1.75177e-06 13.7103)
(13.3432 4.07987 -0.217968 13.3432 4.26802e-22 13.3432)
(13.3432 4.07987 -0.217968 13.3432 -2.8025e-06 13.3432)
(12.9828 3.90841 -0.211901 12.9828 2.15078e-07 12.9828)
(12.9828 3.90841 -0.211901 12.9828 2.73606e-06 12.9828)
(12.6292 3.74179 -0.20587 12.6292 -8.23595e-22 12.6292)
(12.6292 3.74179 -0.20587 12.6292 -3.44225e-06 12.6292)
(12.2823 3.58013 -0.199887 12.2823 4.72504e-07 12.2823)
(12.2823 3.58013 -0.199887 12.2823 3.99441e-06 12.2823)
(11.9424 3.4237 -0.193968 11.9424 -8.21436e-22 11.9424)
(11.9424 3.4237 -0.193968 11.9424 -4.43863e-06 11.9424)
(11.6095 3.27278 -0.188138 11.6095 7.17712e-07 11.6095)
(11.6095 3.27278 -0.188138 11.6094 5.60266e-06 11.6095)
(11.2835 3.12776 -0.182422 11.2835 -7.59387e-22 11.2835)
(11.2835 3.12776 -0.182422 11.2835 -5.58241e-06 11.2835)
(10.9646 2.98902 -0.176855 10.9646 9.63187e-07 10.9646)
(10.9646 2.98902 -0.176855 10.9646 7.70478e-06 10.9646)
(10.6528 2.8569 -0.171467 10.6528 5.08641e-24 10.6528)
(10.6528 2.8569 -0.171467 10.6528 -6.9713e-06 10.6528)
(10.348 2.73167 -0.166289 10.348 1.21314e-06 10.348)
(10.348 2.73167 -0.166289 10.348 1.04854e-05 10.348)
(10.0503 2.61346 -0.161349 10.0503 -1.61992e-21 10.0503)
(10.0503 2.61346 -0.161349 10.0503 -8.78427e-06 10.0503)
(9.75965 2.50226 -0.156662 9.75965 1.43253e-06 9.75965)
(9.75966 2.50226 -0.156662 9.75961 1.32568e-05 9.75966)
(9.47596 2.3978 -0.152238 9.47596 -2.06891e-35 9.47596)
(9.47594 2.3978 -0.152238 9.476 -1.12287e-05 9.47594)
(9.19919 2.29972 -0.148065 9.19919 1.67438e-06 9.19919)
(9.19921 2.29972 -0.148065 9.19915 1.66823e-05 9.19921)
(8.92926 2.20744 -0.144136 8.92926 -1.09018e-22 8.92926)
(8.92924 2.20744 -0.144136 8.92931 -1.44736e-05 8.92924)
(8.66608 2.12014 -0.140414 8.66608 1.85665e-06 8.66608)
(8.6661 2.12014 -0.140414 8.66603 2.0913e-05 8.6661)
(8.40954 2.03685 -0.136851 8.40954 4.02048e-22 8.40954)
(8.40952 2.03685 -0.136851 8.40959 -1.86193e-05 8.40952)
(8.15954 1.95667 -0.13339 8.15954 2.03183e-06 8.15954)
(8.15957 1.95667 -0.13339 8.15949 2.62256e-05 8.15957)
(7.91598 1.8788 -0.129983 7.91598 3.57522e-21 7.91598)
(7.91595 1.8788 -0.129983 7.91603 -2.40043e-05 7.91595)
(7.67873 1.80255 -0.12658 7.67873 2.15039e-06 7.67873)
(7.67876 1.80255 -0.12658 7.67867 3.28685e-05 7.67876)
(7.44771 1.7276 -0.123146 7.44771 -0 7.44771)
(7.44767 1.7276 -0.123146 7.44777 -3.08818e-05 7.44767)
(7.22281 1.65393 -0.119674 7.22281 2.17271e-06 7.22281)
(7.22284 1.65393 -0.119674 7.22274 4.11474e-05 7.22284)
(7.00394 1.58163 -0.116167 7.00394 -0 7.00394)
(7.0039 1.58163 -0.116167 7.00401 -3.97089e-05 7.0039)
(6.79102 1.51094 -0.11264 6.79102 2.11174e-06 6.79102)
(6.79106 1.51094 -0.11264 6.79095 5.15811e-05 6.79106)
(6.58397 1.44229 -0.109117 6.58397 -5.78454e-21 6.58397)
(6.58393 1.44229 -0.109117 6.58404 -5.09964e-05 6.58393)
(6.3827 1.37595 -0.105641 6.3827 1.91385e-06 6.3827)
(6.38274 1.37595 -0.105641 6.38262 6.47176e-05 6.38274)
(6.18714 1.31216 -0.102218 6.18714 -1.13961e-22 6.18714)
(6.18709 1.31216 -0.102218 6.18722 -6.53711e-05 6.18709)
(5.9972 1.2514 -0.0988868 5.9972 1.57006e-06 5.9972)
(5.99724 1.2514 -0.0988868 5.99712 8.13522e-05 5.99724)
(5.81282 1.19397 -0.0956945 5.81282 -1.21347e-20 5.81282)
(5.81277 1.19397 -0.0956945 5.8129 -8.37617e-05 5.81277)
(5.63389 1.14011 -0.0926584 5.63389 4.65676e-06 5.63389)
(5.63393 1.14011 -0.0926584 5.63382 0.00010249 5.63393)
(5.46035 1.08999 -0.0898167 5.46035 -1.24697e-20 5.46035)
(5.46031 1.08999 -0.0898167 5.46042 -0.000103864 5.46031)
(5.29209 1.04333 -0.0871756 5.29209 5.96031e-06 5.29209)
(5.29213 1.04333 -0.0871756 5.29203 0.000122048 5.29213)
(5.12903 0.999819 -0.0847075 5.12903 1.56035e-22 5.12903)
(5.129 0.99982 -0.0847075 5.12909 -0.000126774 5.129)
(4.97106 0.959129 -0.0824074 4.97106 6.28155e-06 4.97106)
(4.97108 0.95913 -0.0824074 4.97101 0.000132931 4.97108)
(4.81808 0.920829 -0.0802421 4.81808 2.17063e-06 4.81808)
(4.81806 0.920829 -0.0802421 4.81812 -0.000139978 4.81806)
(4.67 0.884399 -0.078188 4.67 6.30284e-06 4.67)
(4.67001 0.8844 -0.0781881 4.66997 0.000140665 4.67001)
(4.52671 0.848942 -0.0761922 4.52671 -5.28575e-06 4.52672)
(4.52671 0.848942 -0.0761922 4.52673 -0.000145749 4.52671)
(4.38814 0.813995 -0.0741586 4.38814 -2.42961e-06 4.38814)
(4.38814 0.813996 -0.0741586 4.38814 0.000145171 4.38814)
(4.25418 0.779718 -0.0721051 4.25418 -7.12677e-06 4.25418)
(4.25418 0.779718 -0.0721051 4.25417 -0.000143836 4.25418)
(4.12476 0.746167 -0.0700432 4.12476 2.26845e-20 4.12476)
(4.12475 0.746167 -0.0700433 4.12479 0.000140589 4.12475)
(3.99981 0.713708 -0.0679737 3.99981 -7.28353e-06 3.99981)
(3.99982 0.713708 -0.0679737 3.99977 -0.000141938 3.99982)
(3.87925 0.682558 -0.0659672 3.87925 -1.14479e-21 3.87925)
(3.87922 0.682558 -0.0659672 3.87929 0.000126256 3.87922)
(3.76301 0.65263 -0.0639993 3.76301 -7.33624e-06 3.76301)
(3.76303 0.652631 -0.0639993 3.76296 -0.000129176 3.76303)
(3.65103 0.624332 -0.0620852 3.65103 -1.14198e-21 3.65103)
(3.651 0.624332 -0.0620852 3.65109 0.000109079 3.651)
(3.54326 0.597964 -0.0602969 3.54326 -3.59533e-06 3.54326)
(3.54329 0.597964 -0.0602969 3.54319 -0.000111047 3.54329)
(3.43962 0.573828 -0.0586325 3.43962 1.9057e-21 3.43962)
(3.43959 0.573828 -0.0586325 3.43969 9.20181e-05 3.43959)
(3.34006 0.552883 -0.057169 3.34006 -4.06557e-06 3.34007)
(3.3401 0.552883 -0.0571689 3.34 -9.56104e-05 3.3401)
(3.24452 0.535783 -0.0560429 3.24452 -1.51854e-20 3.24452)
(3.24449 0.535783 -0.0560429 3.24459 7.7517e-05 3.24449)
(3.15293 0.52275 -0.0552786 3.15293 -4.52805e-06 3.15293)
(3.15296 0.52275 -0.0552786 3.15286 -8.25967e-05 3.15296)
(3.0652 0.514171 -0.0549316 3.0652 -2.40812e-22 3.0652)
(3.06517 0.514171 -0.0549316 3.06527 6.51708e-05 3.06517)
(2.98127 0.510074 -0.055065 2.98127 -4.9491e-06 2.98127)
(2.9813 0.510074 -0.055065 2.9812 -7.15788e-05 2.9813)
(2.90104 0.510063 -0.0556615 2.90104 -0 2.90104)
(2.901 0.510063 -0.0556615 2.9011 5.46177e-05 2.901)
(2.8244 0.513503 -0.056693 2.8244 -5.31291e-06 2.8244)
(2.82443 0.513504 -0.0566931 2.82434 -6.22487e-05 2.82443)
(2.75125 0.519364 -0.058085 2.75125 -6.09614e-21 2.75125)
(2.75122 0.519364 -0.058085 2.75131 4.48151e-05 2.75122)
(2.68148 0.52619 -0.0597119 2.68148 -5.60941e-06 2.68148)
(2.68151 0.52619 -0.0597119 2.68142 -5.4325e-05 2.68151)
(2.61496 0.532852 -0.0613889 2.61496 1.64544e-21 2.61496)
(2.61493 0.532853 -0.0613889 2.61502 3.03266e-05 2.61493)
(2.55159 0.538971 -0.063049 2.55159 -5.86542e-06 2.55159)
(2.55162 0.538971 -0.063049 2.55154 -4.75848e-05 2.55162)
(2.49124 0.544764 -0.0646691 2.49124 1.53739e-21 2.49124)
(2.49122 0.544764 -0.0646691 2.4913 2.03419e-05 2.49122)
(2.43382 0.550963 -0.0663215 2.43382 -6.10041e-06 2.43382)
(2.43384 0.550963 -0.0663215 2.43377 -4.09047e-05 2.43384)
(2.3792 0.558207 -0.0681104 2.3792 -6.98231e-23 2.3792)
(2.37918 0.558207 -0.0681105 2.37925 1.24265e-05 2.37918)
(2.32727 0.566905 -0.0700947 2.32727 -6.29103e-06 2.32727)
(2.32729 0.566906 -0.0700948 2.32723 -3.46862e-05 2.32729)
(2.27792 0.57727 -0.0723313 2.27792 6.23761e-21 2.27792)
(2.2779 0.577271 -0.0723313 2.27796 4.89149e-06 2.2779)
(2.231 0.589233 -0.0748343 2.231 -6.46582e-06 2.231)
(2.23102 0.589233 -0.0748344 2.23097 -3.02415e-05 2.23102)
(2.18639 0.602553 -0.0775914 2.18639 -2.71294e-06 2.18639)
(2.18637 0.602554 -0.0775915 2.18642 -1.40645e-06 2.18637)
(2.14392 0.617143 -0.0805722 2.14392 -6.78952e-06 2.14392)
(2.14394 0.617143 -0.0805723 2.14389 -2.73192e-05 2.14394)
(2.10345 0.632703 -0.0838014 2.10345 -5.33862e-06 2.10345)
(2.10344 0.632704 -0.0838016 2.10348 -5.83531e-06 2.10344)
(2.0648 0.648268 -0.0871897 2.0648 -7.22837e-06 2.0648)
(2.06482 0.648269 -0.0871898 2.06478 -2.55705e-05 2.06482)
(2.02779 0.662475 -0.0905749 2.02784 -5.92408e-06 2.02779)
(2.0278 0.662476 -0.090575 2.0278 -7.75499e-06 2.0278)
(1.99228 0.673746 -0.0937417 1.99228 -7.76666e-06 1.99228)
(1.99229 0.673748 -0.0937418 1.99226 -2.47423e-05 1.99229)
(1.95806 0.680941 -0.0964471 1.9581 -3.79553e-06 1.95806)
(1.95808 0.680942 -0.0964472 1.95808 -8.32344e-06 1.95808)
(1.92505 0.683751 -0.0985749 1.92505 -8.40205e-06 1.92505)
(1.92506 0.683752 -0.098575 1.92503 -2.34786e-05 1.92506)
(1.89309 0.682837 -0.100105 1.89313 -1.90534e-06 1.89309)
(1.89311 0.682838 -0.100105 1.89311 -8.85368e-06 1.89311)
(1.86215 0.679711 -0.1012 1.86215 -8.79859e-06 1.86215)
(1.86216 0.679712 -0.1012 1.86214 -2.20032e-05 1.86216)
(1.83211 0.676272 -0.102104 1.83214 3.95848e-08 1.83211)
(1.83212 0.676273 -0.102104 1.83212 -9.07304e-06 1.83212)
(1.80296 0.674659 -0.103122 1.80296 -8.89504e-06 1.80296)
(1.80296 0.67466 -0.103122 1.80294 -2.0516e-05 1.80296)
(1.77457 0.675923 -0.104603 1.77459 1.65918e-06 1.77457)
(1.77458 0.675924 -0.104603 1.77458 -9.20006e-06 1.77458)
(1.74689 0.679359 -0.106546 1.74689 -9.20242e-06 1.74689)
(1.7469 0.679361 -0.106547 1.74688 -1.95496e-05 1.7469)
(1.71979 0.683174 -0.108766 1.7198 1.32524e-07 1.71979)
(1.71979 0.683176 -0.108767 1.71979 -9.64533e-06 1.71979)
(1.69315 0.685282 -0.1109 1.69315 -9.86749e-06 1.69315)
(1.69316 0.685284 -0.110901 1.69315 -1.92022e-05 1.69316)
(1.66687 0.684701 -0.112638 1.66689 -1.48053e-06 1.66687)
(1.66688 0.684703 -0.112638 1.66688 -1.03431e-05 1.66688)
(1.64087 0.681442 -0.113946 1.64087 -1.0615e-05 1.64087)
(1.64088 0.681444 -0.113946 1.64087 -1.91028e-05 1.64088)
(1.61507 0.675761 -0.114823 1.61508 -2.99122e-06 1.61507)
(1.61507 0.675763 -0.114824 1.61507 -1.10719e-05 1.61507)
(1.58943 0.667615 -0.115321 1.58943 -1.12778e-05 1.58943)
(1.58943 0.667617 -0.115321 1.58943 -1.90802e-05 1.58943)
(1.56391 0.656469 -0.115337 1.56392 -4.23707e-06 1.56391)
(1.56391 0.656472 -0.115337 1.56391 -1.17364e-05 1.56391)
(1.53852 0.641825 -0.114748 1.53852 -1.20553e-05 1.53852)
(1.53852 0.641827 -0.114749 1.53851 -1.93245e-05 1.53852)
(1.51326 0.623843 -0.113455 1.51326 -5.53603e-06 1.51326)
(1.51326 0.623845 -0.113455 1.51326 -1.25911e-05 1.51326)
(1.48819 0.60415 -0.111563 1.48819 -1.27643e-05 1.48819)
(1.48819 0.604153 -0.111563 1.48819 -1.97523e-05 1.48819)
(1.46337 0.585362 -0.10951 1.46337 -6.24333e-06 1.46337)
(1.46337 0.585364 -0.10951 1.46337 -1.3084e-05 1.46337)
(1.43886 0.570074 -0.107799 1.43886 -1.30797e-05 1.43886)
(1.43886 0.570077 -0.107799 1.43887 -1.99998e-05 1.43886)
(1.4147 0.560312 -0.106915 1.41469 -6.42386e-06 1.4147)
(1.4147 0.560316 -0.106915 1.4147 -1.33186e-05 1.4147)
(1.39087 0.556806 -0.107197 1.39087 -1.34733e-05 1.39087)
(1.39086 0.556811 -0.107198 1.39087 -2.04872e-05 1.39086)
(1.36732 0.558851 -0.108673 1.36731 -6.80381e-06 1.36732)
(1.36731 0.558858 -0.108674 1.36731 -1.39444e-05 1.36731)
(1.34395 0.565469 -0.111138 1.34395 -1.41613e-05 1.34395)
(1.34394 0.565477 -0.11114 1.34395 -2.15618e-05 1.34394)
(1.32063 0.57566 -0.114501 1.32062 -7.01205e-06 1.32063)
(1.32062 0.57567 -0.114503 1.32062 -1.46858e-05 1.32062)
(1.29717 0.586614 -0.118524 1.29717 -1.50868e-05 1.29717)
(1.29717 0.586626 -0.118527 1.29718 -2.31112e-05 1.29717)
(1.2734 0.593297 -0.122349 1.27339 -7.38455e-06 1.2734)
(1.2734 0.593311 -0.122351 1.2734 -1.58551e-05 1.2734)
(1.24914 0.590538 -0.124751 1.24914 -1.64271e-05 1.24914)
(1.24914 0.590554 -0.124754 1.24915 -2.53833e-05 1.24914)
(1.22431 0.575592 -0.124702 1.22429 -7.70479e-06 1.22431)
(1.2243 0.57561 -0.124705 1.2243 -1.72172e-05 1.2243)
(1.1989 0.549044 -0.121897 1.1989 -1.75078e-05 1.1989)
(1.19889 0.549067 -0.121901 1.19891 -2.77792e-05 1.19889)
(1.17305 0.512935 -0.116681 1.17303 -7.127e-06 1.17305)
(1.17304 0.512964 -0.116687 1.17304 -1.81734e-05 1.17304)
(1.14693 0.469916 -0.109392 1.14693 -1.83948e-05 1.14693)
(1.14693 0.469958 -0.109399 1.14695 -3.04382e-05 1.14693)
(1.12081 0.425426 -0.100693 1.12079 -5.86671e-06 1.12081)