/*--------------------------------*- C++ -*----------------------------------*\
| =========                 |                                                 |
| \\      /  F ield         | OpenFOAM: The Open Source CFD Toolbox           |
|  \\    /   O peration     | Version:  2012                                  |
|   \\  /    A nd           | Website:  www.openfoam.com                      |
|    \\/     M anipulation  |                                                 |
\*---------------------------------------------------------------------------*/
FoamFile
{
    version     2.0;
    format      ascii;
    class       volScalarField;
    location    "20000";
    object      p;
}
// * * * * * * * * * * * * * * * * * * * * * * * * * * * * * * * * * * * * * //

dimensions      [0 2 -2 0 0 0 0];


internalField   nonuniform List<scalar> 
2560
(
2.64508e-15
2.6935e-14
5.5972e-15
2.69346e-14
6.09542e-15
2.69342e-14
5.94174e-15
2.69335e-14
5.90328e-15
2.69327e-14
5.93275e-15
2.69316e-14
5.95842e-15
2.69303e-14
5.974e-15
2.69287e-14
5.98696e-15
2.6927e-14
6.00012e-15
2.69249e-14
6.01342e-15
2.69227e-14
6.02683e-15
2.69201e-14
6.04041e-15
2.69174e-14
6.05423e-15
2.69144e-14
6.06824e-15
2.69112e-14
6.08248e-15
2.69077e-14
6.09699e-15
2.69041e-14
6.11167e-15
2.69002e-14
6.12655e-15
2.68961e-14
6.14178e-15
2.68918e-14
6.1572e-15
2.68872e-14
6.17286e-15
2.68824e-14
6.1887e-15
2.68774e-14
6.20497e-15
2.68722e-14
6.22145e-15
2.68668e-14
6.23817e-15
2.68609e-14
6.25505e-15
2.6855e-14
6.27234e-15
2.68488e-14
6.28989e-15
2.68426e-14
6.30769e-15
2.68361e-14
6.32576e-15
2.68292e-14
6.34398e-15
2.68219e-14
6.36257e-15
2.68145e-14
6.38159e-15
2.68067e-14
6.40094e-15
2.67988e-14
6.42064e-15
2.67906e-14
6.44052e-15
2.67821e-14
6.4608e-15
2.67733e-14
6.48153e-15
2.67644e-14
6.50258e-15
2.67551e-14
6.52397e-15
2.67456e-14
6.54567e-15
2.6736e-14
6.56782e-15
2.67261e-14
6.59028e-15
2.6716e-14
6.61343e-15
2.67053e-14
6.63696e-15
2.66944e-14
6.66086e-15
2.66834e-14
6.68567e-15
2.66719e-14
6.71105e-15
2.66599e-14
6.73709e-15
2.66474e-14
6.76415e-15
2.66345e-14
6.79197e-15
2.66209e-14
6.82045e-15
2.66068e-14
6.84981e-15
2.65921e-14
6.87995e-15
2.65771e-14
6.91049e-15
2.6562e-14
6.94204e-15
2.65464e-14
6.9746e-15
2.65305e-14
7.00794e-15
2.6514e-14
7.04154e-15
2.64975e-14
7.07578e-15
2.64808e-14
7.11104e-15
2.6464e-14
7.14679e-15
2.64468e-14
7.18342e-15
2.64289e-14
7.22105e-15
2.64111e-14
7.25915e-15
2.63928e-14
7.29796e-15
2.63744e-14
7.33748e-15
2.63558e-14
7.37797e-15
2.63366e-14
7.4197e-15
2.63176e-14
7.46122e-15
2.62989e-14
7.50335e-15
2.62795e-14
7.54578e-15
2.62599e-14
7.58969e-15
2.624e-14
7.63476e-15
2.62198e-14
7.68097e-15
2.61986e-14
7.72766e-15
2.61762e-14
7.77643e-15
2.61529e-14
7.82693e-15
2.61289e-14
7.87951e-15
2.61045e-14
7.9321e-15
2.608e-14
7.98536e-15
2.60527e-14
8.04131e-15
2.60239e-14
8.09785e-15
2.59952e-14
8.15528e-15
2.59673e-14
8.21391e-15
2.59388e-14
8.27335e-15
2.59097e-14
8.33279e-15
2.5879e-14
8.39328e-15
2.58485e-14
8.45478e-15
2.58191e-14
8.51646e-15
2.57885e-14
8.57902e-15
2.57568e-14
8.64398e-15
2.57253e-14
8.70972e-15
2.5693e-14
8.77697e-15
2.56586e-14
8.84568e-15
2.56228e-14
8.91662e-15
2.55898e-14
8.98723e-15
2.55581e-14
9.05573e-15
2.55252e-14
9.12709e-15
2.54903e-14
9.19869e-15
2.5456e-14
9.26955e-15
2.54234e-14
9.33516e-15
2.53915e-14
9.40241e-15
2.53607e-14
9.47123e-15
2.53308e-14
9.53882e-15
2.53002e-14
9.60596e-15
2.52709e-14
9.67342e-15
2.52411e-14
9.74204e-15
2.52091e-14
9.80983e-15
2.51785e-14
9.87665e-15
2.51487e-14
9.9433e-15
2.51197e-14
1.00087e-14
2.50888e-14
1.00755e-14
2.5056e-14
1.01428e-14
2.50244e-14
1.02093e-14
2.4995e-14
1.02759e-14
2.49642e-14
1.03425e-14
2.49359e-14
1.04069e-14
2.49062e-14
1.04718e-14
2.48805e-14
1.05403e-14
2.48506e-14
1.0604e-14
2.48229e-14
1.06678e-14
2.47944e-14
1.07358e-14
2.47653e-14
1.08056e-14
2.47324e-14
1.0875e-14
2.47013e-14
1.09418e-14
2.46753e-14
1.1012e-14
2.46459e-14
1.10791e-14
2.46156e-14
1.1145e-14
2.45845e-14
1.12117e-14
2.4557e-14
1.12746e-14
2.45378e-14
1.13399e-14
2.45162e-14
1.14054e-14
2.44879e-14
1.14684e-14
2.44619e-14
1.15333e-14
2.44294e-14
1.16066e-14
2.43907e-14
1.16767e-14
2.43504e-14
1.17572e-14
2.43108e-14
1.18363e-14
2.42678e-14
1.19093e-14
2.42167e-14
1.19897e-14
2.41716e-14
1.20751e-14
2.41234e-14
1.21558e-14
2.40723e-14
1.22364e-14
2.40231e-14
1.23166e-14
2.3976e-14
1.23984e-14
2.39266e-14
1.24817e-14
2.3875e-14
1.2559e-14
2.38238e-14
1.26372e-14
2.37755e-14
1.27161e-14
2.37232e-14
1.27953e-14
2.36743e-14
1.28723e-14
2.3629e-14
1.29514e-14
2.35803e-14
1.30204e-14
2.35285e-14
1.30886e-14
2.34688e-14
1.31606e-14
2.34112e-14
1.3236e-14
2.33657e-14
1.33121e-14
2.33252e-14
1.33788e-14
2.32728e-14
1.34431e-14
2.32162e-14
1.35047e-14
2.31653e-14
1.35731e-14
2.31179e-14
1.36504e-14
2.30645e-14
1.37239e-14
2.30102e-14
1.38033e-14
2.29552e-14
1.38833e-14
2.28997e-14
1.39535e-14
2.28489e-14
1.40287e-14
2.2793e-14
1.40984e-14
2.27372e-14
1.41724e-14
2.26919e-14
1.42452e-14
2.26422e-14
1.43165e-14
2.25883e-14
1.4386e-14
2.25305e-14
1.44582e-14
2.2479e-14
1.45178e-14
2.24291e-14
1.45743e-14
2.2381e-14
1.46273e-14
2.23452e-14
1.46813e-14
2.2317e-14
1.4736e-14
2.22917e-14
1.47907e-14
2.22647e-14
1.48449e-14
2.22415e-14
1.49031e-14
2.22122e-14
1.497e-14
2.21926e-14
1.50298e-14
2.21781e-14
1.50869e-14
2.21589e-14
1.51511e-14
2.21303e-14
1.52116e-14
2.21031e-14
1.52779e-14
2.20775e-14
1.53395e-14
2.20542e-14
1.54008e-14
2.20334e-14
1.54664e-14
2.19952e-14
1.55409e-14
2.19451e-14
1.56187e-14
2.1914e-14
1.56995e-14
2.18818e-14
1.57776e-14
2.1818e-14
1.58528e-14
2.17585e-14
1.59348e-14
2.17242e-14
1.60182e-14
2.16947e-14
1.60976e-14
2.16497e-14
1.61725e-14
2.16152e-14
1.62219e-14
2.15862e-14
1.6276e-14
2.15479e-14
1.63292e-14
2.15108e-14
1.63809e-14
2.14854e-14
1.64305e-14
2.14518e-14
1.64671e-14
2.14409e-14
1.65104e-14
2.14024e-14
1.65596e-14
2.13569e-14
1.66141e-14
2.13152e-14
1.66634e-14
2.12772e-14
1.67168e-14
2.12128e-14
1.67945e-14
2.11117e-14
1.68661e-14
2.10344e-14
1.69315e-14
2.09704e-14
1.70006e-14
2.09396e-14
1.7063e-14
2.0881e-14
1.71287e-14
2.08046e-14
1.71877e-14
2.07403e-14
1.72501e-14
2.07078e-14
1.73154e-14
2.06463e-14
1.73837e-14
2.05754e-14
1.74452e-14
2.05348e-14
1.74997e-14
2.05039e-14
1.75568e-14
2.04525e-14
1.76165e-14
2.03803e-14
1.7679e-14
2.03362e-14
1.77444e-14
2.02898e-14
1.78027e-14
2.02604e-14
1.78539e-14
2.0198e-14
1.78981e-14
2.01114e-14
1.7936e-14
2.00291e-14
1.79678e-14
1.99895e-14
1.80033e-14
1.99128e-14
1.80232e-14
1.98175e-14
1.80182e-14
1.97707e-14
1.80464e-14
1.97128e-14
1.80688e-14
1.96529e-14
1.80952e-14
1.95703e-14
1.81261e-14
1.95019e-14
1.81524e-14
1.94555e-14
1.81836e-14
1.93816e-14
1.823e-14
1.93072e-14
1.82735e-14
1.92585e-14
1.83434e-14
1.91858e-14
1.83936e-14
1.91901e-14
1.84622e-14
1.91758e-14
1.85501e-14
1.91414e-14
1.85841e-14
1.91212e-14
1.86399e-14
1.91132e-14
1.87364e-14
1.90965e-14
1.88012e-14
1.91426e-14
1.88715e-14
1.91758e-14
1.89111e-14
1.92317e-14
1.89559e-14
1.92916e-14
1.90045e-14
1.93005e-14
1.90393e-14
1.93303e-14
1.91142e-14
1.93625e-14
1.91751e-14
1.94313e-14
1.92218e-14
1.9483e-14
1.92903e-14
1.94999e-14
1.93451e-14
1.95337e-14
1.93864e-14
1.95305e-14
1.94324e-14
1.95956e-14
1.94993e-14
1.96582e-14
1.9569e-14
1.97359e-14
1.96236e-14
1.97414e-14
1.96822e-14
1.97938e-14
1.97618e-14
1.98578e-14
1.98115e-14
1.99502e-14
1.98638e-14
2.00214e-14
1.99179e-14
2.00045e-14
1.99597e-14
2.00327e-14
2.00396e-14
2.01387e-14
2.0106e-14
2.02901e-14
2.01715e-14
2.03911e-14
2.02671e-14
2.03958e-14
2.03317e-14
2.03983e-14
2.04013e-14
2.04605e-14
2.04595e-14
2.05659e-14
2.05853e-14
2.0669e-14
2.06685e-14
2.07065e-14
2.07442e-14
2.07095e-14
2.08009e-14
2.07676e-14
2.08859e-14
2.08791e-14
2.09516e-14
2.09987e-14
2.09963e-14
2.10379e-14
2.10824e-14
2.11048e-14
2.11486e-14
2.12137e-14
2.11921e-14
2.13081e-14
2.13008e-14
2.1363e-14
2.1328e-14
2.1406e-14
2.14499e-14
2.1468e-14
2.14665e-14
2.1544e-14
2.14616e-14
2.16102e-14
2.15435e-14
2.16746e-14
2.16273e-14
2.168e-14
2.16054e-14
2.17055e-14
2.16683e-14
2.17562e-14
2.16817e-14
2.17472e-14
2.17296e-14
2.17595e-14
2.17566e-14
2.18168e-14
2.1787e-14
2.18702e-14
2.18476e-14
2.18973e-14
2.18362e-14
2.19227e-14
2.19061e-14
2.19247e-14
2.19376e-14
2.19473e-14
2.19604e-14
2.19619e-14
2.2e-14
2.19927e-14
2.20305e-14
2.20135e-14
2.2032e-14
2.20486e-14
2.20015e-14
2.20533e-14
2.2007e-14
2.20599e-14
2.2027e-14
2.20922e-14
2.19846e-14
2.21048e-14
2.20159e-14
2.20577e-14
2.2033e-14
2.20566e-14
2.20603e-14
2.20742e-14
2.20531e-14
2.206e-14
2.20351e-14
2.20599e-14
2.14836e-14
2.24523e-14
2.14834e-14
2.24523e-14
2.14832e-14
2.24522e-14
2.1483e-14
2.24521e-14
2.14827e-14
2.24519e-14
2.14823e-14
2.24517e-14
2.14818e-14
2.24515e-14
2.14813e-14
2.24512e-14
2.14806e-14
2.24509e-14
2.14799e-14
2.24504e-14
2.1479e-14
2.245e-14
2.14781e-14
2.24495e-14
2.14772e-14
2.24489e-14
2.14762e-14
2.24482e-14
2.14751e-14
2.24475e-14
2.14739e-14
2.24468e-14
2.14727e-14
2.24459e-14
2.14714e-14
2.2445e-14
2.14702e-14
2.24439e-14
2.14688e-14
2.24428e-14
2.14673e-14
2.24416e-14
2.14657e-14
2.24404e-14
2.1464e-14
2.24393e-14
2.14622e-14
2.24381e-14
2.14603e-14
2.24367e-14
2.14584e-14
2.24352e-14
2.14562e-14
2.24338e-14
2.14541e-14
2.24324e-14
2.1452e-14
2.24309e-14
2.145e-14
2.24292e-14
2.14478e-14
2.24273e-14
2.14455e-14
2.24254e-14
2.14432e-14
2.24236e-14
2.14408e-14
2.24217e-14
2.14382e-14
2.24197e-14
2.14355e-14
2.24177e-14
2.14328e-14
2.24157e-14
2.14299e-14
2.24136e-14
2.14271e-14
2.24112e-14
2.14242e-14
2.24088e-14
2.14212e-14
2.24065e-14
2.14178e-14
2.24043e-14
2.14145e-14
2.2402e-14
2.14112e-14
2.23994e-14
2.14077e-14
2.23968e-14
2.1404e-14
2.23941e-14
2.14001e-14
2.23914e-14
2.13959e-14
2.23887e-14
2.13916e-14
2.23857e-14
2.13869e-14
2.23825e-14
2.13821e-14
2.23793e-14
2.13772e-14
2.23758e-14
2.13722e-14
2.23722e-14
2.1367e-14
2.23686e-14
2.13617e-14
2.23648e-14
2.13563e-14
2.23608e-14
2.13507e-14
2.23567e-14
2.1345e-14
2.23527e-14
2.13388e-14
2.23488e-14
2.13324e-14
2.23445e-14
2.13259e-14
2.23402e-14
2.13191e-14
2.23356e-14
2.13119e-14
2.23314e-14
2.13045e-14
2.23268e-14
2.12969e-14
2.23221e-14
2.12892e-14
2.23173e-14
2.12813e-14
2.23117e-14
2.12731e-14
2.23065e-14
2.12649e-14
2.23005e-14
2.12567e-14
2.22937e-14
2.12479e-14
2.22873e-14
2.12394e-14
2.22807e-14
2.1231e-14
2.22738e-14
2.12226e-14
2.22667e-14
2.12137e-14
2.22594e-14
2.12051e-14
2.22515e-14
2.11966e-14
2.22434e-14
2.11882e-14
2.22353e-14
2.11795e-14
2.2227e-14
2.117e-14
2.22184e-14
2.11609e-14
2.22099e-14
2.1152e-14
2.22007e-14
2.11428e-14
2.2192e-14
2.11335e-14
2.21834e-14
2.11246e-14
2.21737e-14
2.11149e-14
2.21645e-14
2.11043e-14
2.21569e-14
2.10935e-14
2.21475e-14
2.10829e-14
2.21374e-14
2.10726e-14
2.21278e-14
2.10629e-14
2.21172e-14
2.10523e-14
2.21074e-14
2.10421e-14
2.20973e-14
2.10313e-14
2.20845e-14
2.102e-14
2.20722e-14
2.10083e-14
2.20612e-14
2.09969e-14
2.20515e-14
2.09859e-14
2.20399e-14
2.09771e-14
2.20246e-14
2.09661e-14
2.20089e-14
2.09555e-14
2.19963e-14
2.09428e-14
2.19833e-14
2.09324e-14
2.19718e-14
2.09234e-14
2.19591e-14
2.09132e-14
2.19469e-14
2.09035e-14
2.19335e-14
2.08918e-14
2.19206e-14
2.08797e-14
2.19111e-14
2.08693e-14
2.18976e-14
2.08604e-14
2.18846e-14
2.08504e-14
2.18741e-14
2.08383e-14
2.18623e-14
2.0827e-14
2.18483e-14
2.08175e-14
2.18329e-14
2.08088e-14
2.18181e-14
2.08e-14
2.18059e-14
2.07872e-14
2.17943e-14
2.07754e-14
2.17814e-14
2.07625e-14
2.17721e-14
2.07496e-14
2.17624e-14
2.07377e-14
2.17524e-14
2.07249e-14
2.174e-14
2.07153e-14
2.17272e-14
2.07058e-14
2.17172e-14
2.06954e-14
2.171e-14
2.06884e-14
2.17002e-14
2.06773e-14
2.1688e-14
2.06644e-14
2.16797e-14
2.06518e-14
2.16689e-14
2.0646e-14
2.16534e-14
2.06362e-14
2.1644e-14
2.06291e-14
2.16343e-14
2.06224e-14
2.16219e-14
2.0614e-14
2.16092e-14
2.06039e-14
2.16005e-14
2.05967e-14
2.15913e-14
2.05924e-14
2.15841e-14
2.05887e-14
2.15742e-14
2.05836e-14
2.15661e-14
2.0577e-14
2.15531e-14
2.05758e-14
2.15352e-14
2.05663e-14
2.15236e-14
2.05578e-14
2.1521e-14
2.05502e-14
2.15156e-14
2.05436e-14
2.15029e-14
2.05335e-14
2.14921e-14
2.05267e-14
2.14857e-14
2.05235e-14
2.14837e-14
2.05191e-14
2.14767e-14
2.05113e-14
2.1467e-14
2.05023e-14
2.14594e-14
2.04947e-14
2.14468e-14
2.04884e-14
2.14387e-14
2.0486e-14
2.14328e-14
2.04851e-14
2.14195e-14
2.04809e-14
2.14035e-14
2.04784e-14
2.13946e-14
2.0463e-14
2.13905e-14
2.04518e-14
2.13886e-14
2.04447e-14
2.13867e-14
2.04346e-14
2.13848e-14
2.04214e-14
2.13829e-14
2.04249e-14
2.13713e-14
2.04155e-14
2.13697e-14
2.04156e-14
2.13782e-14
2.04103e-14
2.1382e-14
2.04046e-14
2.13912e-14
2.03984e-14
2.14009e-14
2.0397e-14
2.13961e-14
2.03951e-14
2.1387e-14
2.0383e-14
2.13936e-14
2.03756e-14
2.1391e-14
2.03881e-14
2.13742e-14
2.04006e-14
2.13634e-14
2.03978e-14
2.13585e-14
2.04002e-14
2.13394e-14
2.04028e-14
2.13213e-14
2.04007e-14
2.13144e-14
2.03938e-14
2.12985e-14
2.03926e-14
2.12786e-14
2.0397e-14
2.12546e-14
2.0387e-14
2.12368e-14
2.03778e-14
2.12252e-14
2.03696e-14
2.11943e-14
2.03574e-14
2.11695e-14
2.03514e-14
2.1156e-14
2.03519e-14
2.11384e-14
2.03589e-14
2.11168e-14
2.03521e-14
2.10961e-14
2.03521e-14
2.10866e-14
2.03489e-14
2.10678e-14
2.03424e-14
2.105e-14
2.03484e-14
2.10383e-14
2.03565e-14
2.10327e-14
2.03669e-14
2.1023e-14
2.0385e-14
2.10041e-14
2.04058e-14
2.0981e-14
2.03988e-14
2.09743e-14
2.03949e-14
2.09634e-14
2.04146e-14
2.09329e-14
2.04276e-14
2.09085e-14
2.04288e-14
2.09053e-14
2.04134e-14
2.09131e-14
2.0407e-14
2.09065e-14
2.04097e-14
2.08909e-14
2.04114e-14
2.08866e-14
2.04123e-14
2.08836e-14
2.04126e-14
2.08715e-14
2.04125e-14
2.08607e-14
2.04122e-14
2.08616e-14
2.04323e-14
2.08537e-14
2.04322e-14
2.08576e-14
2.04326e-14
2.08531e-14
2.04641e-14
2.08406e-14
2.04863e-14
2.08406e-14
2.04793e-14
2.0853e-14
2.04735e-14
2.08479e-14
2.0469e-14
2.08458e-14
2.04861e-14
2.08574e-14
2.04945e-14
2.08728e-14
2.05043e-14
2.08723e-14
2.04957e-14
2.08664e-14
2.0519e-14
2.08656e-14
2.05343e-14
2.08599e-14
2.0562e-14
2.08495e-14
2.05727e-14
2.08544e-14
2.05667e-14
2.0835e-14
2.06041e-14
2.08016e-14
2.06161e-14
2.08135e-14
2.06228e-14
2.08211e-14
2.06244e-14
2.08053e-14
2.06314e-14
2.07766e-14
2.06245e-14
2.07942e-14
2.06236e-14
2.08097e-14
2.06089e-14
2.07948e-14
2.05808e-14
2.08092e-14
2.0588e-14
2.07858e-14
2.05724e-14
2.07737e-14
2.05734e-14
2.07929e-14
2.05812e-14
2.07965e-14
2.05865e-14
2.07853e-14
2.05995e-14
2.07698e-14
2.06115e-14
2.07502e-14
2.0633e-14
2.07655e-14
2.06548e-14
2.07877e-14
2.06962e-14
2.07516e-14
2.06833e-14
2.07322e-14
2.0692e-14
2.07675e-14
2.07026e-14
2.08212e-14
2.07523e-14
2.08393e-14
2.07671e-14
2.08597e-14
2.07843e-14
2.09022e-14
2.07849e-14
2.0968e-14
2.08041e-14
2.10042e-14
2.08418e-14
2.10672e-14
2.08243e-14
2.10668e-14
2.08611e-14
2.10777e-14
2.08984e-14
2.11182e-14
2.08817e-14
2.11167e-14
2.08649e-14
2.11281e-14
2.09185e-14
2.11535e-14
2.09538e-14
2.11218e-14
2.0991e-14
2.10848e-14
2.10155e-14
2.11114e-14
2.1063e-14
2.1131e-14
2.10644e-14
2.1178e-14
2.10706e-14
2.12192e-14
2.10976e-14
2.12402e-14
2.1111e-14
2.12415e-14
2.11279e-14
2.12742e-14
2.11137e-14
2.13045e-14
2.11341e-14
2.12664e-14
2.11575e-14
2.12434e-14
2.11859e-14
2.1284e-14
2.12185e-14
2.13708e-14
2.12527e-14
2.13888e-14
2.12726e-14
2.142e-14
2.1293e-14
2.14171e-14
2.13475e-14
2.14131e-14
2.13412e-14
2.1453e-14
2.13685e-14
2.14574e-14
2.1412e-14
2.14399e-14
2.14584e-14
2.14763e-14
2.14924e-14
2.15355e-14
2.15126e-14
2.16039e-14
2.1515e-14
2.16526e-14
2.15264e-14
2.16835e-14
2.16215e-14
2.17144e-14
2.16666e-14
2.17409e-14
2.16634e-14
2.17902e-14
2.17581e-14
2.18049e-14
2.18055e-14
2.18388e-14
2.18382e-14
2.1891e-14
2.18521e-14
2.19337e-14
2.18746e-14
2.19395e-14
2.19084e-14
2.19639e-14
2.19813e-14
2.19761e-14
2.20408e-14
2.1972e-14
2.19559e-14
2.20019e-14
2.19924e-14
2.20189e-14
2.20962e-14
2.20233e-14
2.21138e-14
2.20059e-14
2.20781e-14
2.20145e-14
2.2091e-14
2.20239e-14
2.21236e-14
2.20329e-14
2.20752e-14
2.20644e-14
2.20642e-14
2.21023e-14
2.21082e-14
2.2127e-14
2.21585e-14
2.21375e-14
2.21179e-14
2.21543e-14
2.21041e-14
2.21589e-14
2.21131e-14
2.21272e-14
2.20526e-14
2.21525e-14
2.20812e-14
2.21479e-14
2.20795e-14
2.21567e-14
2.21223e-14
2.21804e-14
2.2164e-14
2.21731e-14
2.2166e-14
2.22003e-14
2.21708e-14
2.21948e-14
2.21336e-14
2.21803e-14
2.20048e-14
2.20539e-14
2.19624e-14
2.20254e-14
2.19763e-14
2.20219e-14
2.19543e-14
2.19958e-14
2.18946e-14
2.19464e-14
2.19406e-14
2.19495e-14
2.19515e-14
2.19519e-14
2.19296e-14
2.19476e-14
2.19219e-14
2.19641e-14
2.19515e-14
2.19822e-14
2.19213e-14
2.1952e-14
2.19055e-14
2.18973e-14
2.19059e-14
2.189e-14
2.18493e-14
2.19028e-14
2.183e-14
2.18916e-14
2.18755e-14
2.18553e-14
2.1843e-14
2.18645e-14
2.18603e-14
2.18197e-14
2.18004e-14
2.18234e-14
2.17613e-14
2.17493e-14
2.16898e-14
2.17561e-14
2.16907e-14
2.17405e-14
2.17125e-14
2.17574e-14
2.17015e-14
2.17512e-14
2.16576e-14
2.17506e-14
2.16895e-14
2.17303e-14
2.16866e-14
2.17143e-14
2.16786e-14
2.17308e-14
2.17253e-14
2.17541e-14
2.1741e-14
2.17806e-14
2.16933e-14
2.17208e-14
2.17314e-14
2.16924e-14
2.17714e-14
2.16903e-14
2.17243e-14
2.17409e-14
2.17986e-14
2.17437e-14
2.18458e-14
2.17869e-14
2.18331e-14
2.18401e-14
2.18343e-14
2.18764e-14
2.18795e-14
2.18977e-14
2.1907e-14
2.19491e-14
2.19156e-14
2.19848e-14
2.19361e-14
2.20221e-14
2.19842e-14
2.20958e-14
2.19938e-14
2.21256e-14
2.20452e-14
2.21777e-14
2.20904e-14
2.22012e-14
2.21316e-14
2.21946e-14
2.21537e-14
2.22393e-14
2.22232e-14
2.23212e-14
2.2256e-14
2.24074e-14
2.22663e-14
2.24314e-14
2.22876e-14
2.23926e-14
2.23052e-14
2.24086e-14
2.23718e-14
2.24612e-14
2.23844e-14
2.24631e-14
2.24122e-14
2.25016e-14
2.24372e-14
2.25958e-14
2.2457e-14
2.26256e-14
2.24713e-14
2.26265e-14
2.24805e-14
2.26156e-14
2.25389e-14
2.26278e-14
2.25951e-14
2.26068e-14
2.2579e-14
2.26037e-14
2.25801e-14
2.26728e-14
2.26143e-14
2.26712e-14
2.26285e-14
2.2652e-14
2.26233e-14
2.26326e-14
2.26358e-14
2.26501e-14
2.26473e-14
2.26865e-14
2.26572e-14
2.26859e-14
2.26845e-14
2.27028e-14
2.27108e-14
2.26997e-14
2.26994e-14
2.26946e-14
2.27063e-14
2.26686e-14
2.26943e-14
2.26582e-14
2.26823e-14
2.2701e-14
2.26691e-14
2.27229e-14
2.26444e-14
2.26767e-14
2.26083e-14
2.26384e-14
2.26187e-14
2.26659e-14
2.2618e-14
2.26832e-14
2.26058e-14
2.26908e-14
2.26011e-14
2.26792e-14
2.25944e-14
2.26871e-14
2.25757e-14
2.26954e-14
2.2574e-14
2.26854e-14
2.256e-14
2.26664e-14
2.25239e-14
2.26578e-14
2.25245e-14
2.266e-14
2.25125e-14
2.26437e-14
2.25373e-14
2.26188e-14
2.25405e-14
2.26241e-14
2.2542e-14
2.262e-14
2.25417e-14
2.25865e-14
2.25403e-14
2.25529e-14
2.2528e-14
2.25689e-14
2.25245e-14
2.2565e-14
2.25199e-14
2.25511e-14
2.25043e-14
2.25371e-14
2.24879e-14
2.25132e-14
2.24807e-14
2.25092e-14
2.24727e-14
2.25151e-14
2.24637e-14
2.25008e-14
2.24539e-14
2.24865e-14
2.24434e-14
2.24825e-14
2.24321e-14
2.24889e-14
2.243e-14
2.24751e-14
2.24271e-14
2.24411e-14
2.24034e-14
2.24374e-14
2.23892e-14
2.24336e-14
2.23744e-14
2.24298e-14
2.23588e-14
2.24363e-14
2.23424e-14
2.24122e-14
2.23355e-14
2.23882e-14
2.2328e-14
2.2395e-14
2.23198e-14
2.24121e-14
2.23107e-14
2.23885e-14
2.23011e-14
2.23651e-14
2.22909e-14
2.23519e-14
2.22751e-14
2.23491e-14
2.22639e-14
2.23464e-14
2.22521e-14
2.23387e-14
2.22347e-14
2.23209e-14
2.2227e-14
2.23085e-14
2.22086e-14
2.2291e-14
2.21898e-14
2.22943e-14
2.2191e-14
2.22671e-14
2.21918e-14
2.22399e-14
2.21719e-14
2.2228e-14
2.21569e-14
2.22212e-14
2.21571e-14
2.22145e-14
2.21468e-14
2.22128e-14
2.21312e-14
2.21958e-14
2.21307e-14
2.21891e-14
2.21301e-14
2.21925e-14
2.21294e-14
2.21755e-14
2.21286e-14
2.21585e-14
2.21124e-14
2.2167e-14
2.21063e-14
2.21755e-14
2.21052e-14
2.21841e-14
2.21039e-14
2.21775e-14
2.20923e-14
2.21762e-14
2.20856e-14
2.217e-14
2.20838e-14
2.21589e-14
2.20716e-14
2.21581e-14
2.20593e-14
2.21677e-14
2.20569e-14
2.21674e-14
2.20542e-14
2.21622e-14
2.20362e-14
2.21573e-14
2.20381e-14
2.21577e-14
2.20347e-14
2.21533e-14
2.20262e-14
2.21442e-14
2.20174e-14
2.21403e-14
2.20085e-14
2.21416e-14
2.20044e-14
2.21431e-14
2.2005e-14
2.21448e-14
2.20053e-14
2.21468e-14
2.20005e-14
2.21489e-14
2.1998e-14
2.21414e-14
2.19903e-14
2.21365e-14
2.19898e-14
2.21318e-14
2.19939e-14
2.21298e-14
2.20002e-14
2.2123e-14
2.19942e-14
2.21236e-14
2.1988e-14
2.21268e-14
2.19913e-14
2.21301e-14
2.19919e-14
2.21335e-14
2.2002e-14
2.21418e-14
2.20046e-14
2.21407e-14
2.19998e-14
2.21348e-14
2.2002e-14
2.21338e-14
2.20041e-14
2.21401e-14
2.20106e-14
2.21487e-14
2.20099e-14
2.21575e-14
2.2009e-14
2.21592e-14
2.20103e-14
2.21634e-14
2.20137e-14
2.217e-14
2.20146e-14
2.21673e-14
2.20153e-14
2.21648e-14
2.20204e-14
2.21762e-14
2.20254e-14
2.21853e-14
2.20256e-14
2.21877e-14
2.20279e-14
2.21901e-14
2.20301e-14
2.21948e-14
2.20321e-14
2.21997e-14
2.20317e-14
2.22001e-14
2.20311e-14
2.22051e-14
2.20348e-14
2.22102e-14
2.20362e-14
2.22153e-14
2.20373e-14
2.22183e-14
2.2034e-14
2.22236e-14
2.20327e-14
2.22225e-14
2.20312e-14
2.22215e-14
2.20297e-14
2.22205e-14
2.20279e-14
2.2224e-14
2.2026e-14
2.22275e-14
2.20251e-14
2.22269e-14
2.2024e-14
2.22222e-14
2.20237e-14
2.22218e-14
2.20234e-14
2.22235e-14
2.20209e-14
2.22233e-14
2.20182e-14
2.22221e-14
2.20185e-14
2.22201e-14
2.20177e-14
2.22211e-14
2.20147e-14
2.22242e-14
2.20156e-14
2.22253e-14
2.20154e-14
2.22256e-14
2.2015e-14
2.2224e-14
2.20165e-14
2.22235e-14
2.20179e-14
2.22221e-14
2.20192e-14
2.22217e-14
2.20203e-14
2.22214e-14
2.20186e-14
2.2222e-14
2.20186e-14
2.22219e-14
2.20195e-14
2.22236e-14
2.20184e-14
2.22253e-14
2.20164e-14
2.22235e-14
2.20161e-14
2.22236e-14
2.20175e-14
2.22237e-14
2.2017e-14
2.22265e-14
2.20157e-14
2.22302e-14
2.20151e-14
2.22322e-14
2.20161e-14
2.22317e-14
2.20171e-14
2.22338e-14
2.20171e-14
2.22351e-14
2.2018e-14
2.22339e-14
2.20187e-14
2.22328e-14
2.20218e-14
2.22318e-14
2.20224e-14
2.22348e-14
2.2023e-14
2.22378e-14
2.20246e-14
2.22385e-14
2.20251e-14
2.22381e-14
2.20274e-14
2.22381e-14
2.20299e-14
2.22385e-14
2.20335e-14
2.22382e-14
2.2036e-14
2.22387e-14
2.20387e-14
2.22378e-14
2.20402e-14
2.22359e-14
2.20414e-14
2.22351e-14
2.20429e-14
2.22353e-14
2.20443e-14
2.22356e-14
2.20456e-14
2.22356e-14
2.20459e-14
2.22359e-14
2.20462e-14
2.22362e-14
2.20474e-14
2.22353e-14
2.20483e-14
2.22354e-14
2.20488e-14
2.22364e-14
2.20489e-14
2.22369e-14
2.20491e-14
2.22373e-14
2.20492e-14
2.22375e-14
2.20499e-14
2.22376e-14
2.20505e-14
2.22376e-14
2.20511e-14
2.22366e-14
2.20511e-14
2.22366e-14
2.20511e-14
2.22371e-14
2.20511e-14
2.22377e-14
2.20513e-14
2.22377e-14
2.20514e-14
2.22375e-14
2.20512e-14
2.22372e-14
2.20512e-14
2.22374e-14
2.20512e-14
2.22374e-14
2.20513e-14
2.22374e-14
2.20514e-14
2.22381e-14
2.20517e-14
2.22383e-14
2.20517e-14
2.22382e-14
2.2052e-14
2.2238e-14
2.20525e-14
2.22378e-14
2.20526e-14
2.22375e-14
2.20527e-14
2.22374e-14
2.20529e-14
2.22373e-14
2.20532e-14
2.22373e-14
2.20534e-14
2.22371e-14
2.20536e-14
2.22367e-14
2.20538e-14
2.22364e-14
2.2054e-14
2.22363e-14
2.20541e-14
2.22361e-14
2.20544e-14
2.22361e-14
2.20547e-14
2.22361e-14
2.2055e-14
2.2236e-14
2.20553e-14
2.22359e-14
2.20555e-14
2.22359e-14
2.20557e-14
2.22358e-14
2.20559e-14
2.22358e-14
2.2056e-14
2.22359e-14
2.20562e-14
2.22358e-14
2.20563e-14
2.22359e-14
2.20565e-14
2.22361e-14
2.20566e-14
2.22361e-14
2.20566e-14
2.22362e-14
2.20566e-14
2.22364e-14
2.20567e-14
2.22366e-14
2.20568e-14
2.22366e-14
2.20569e-14
2.22366e-14
2.20569e-14
2.22367e-14
2.20569e-14
2.22368e-14
2.2057e-14
2.2237e-14
2.2057e-14
2.22372e-14
2.20571e-14
2.22375e-14
2.20571e-14
2.22377e-14
2.20571e-14
2.22378e-14
2.20572e-14
2.22379e-14
2.20572e-14
2.2238e-14
2.20572e-14
2.22382e-14
2.20573e-14
2.22384e-14
2.20573e-14
2.22385e-14
2.20574e-14
2.22386e-14
2.20575e-14
2.22387e-14
2.20576e-14
2.22388e-14
2.20577e-14
2.22388e-14
2.20577e-14
2.22389e-14
2.20578e-14
2.2239e-14
2.20578e-14
2.2239e-14
2.20578e-14
2.22391e-14
2.20579e-14
2.2239e-14
2.20579e-14
2.22391e-14
2.20579e-14
2.22391e-14
2.20579e-14
2.22391e-14
2.20579e-14
2.22391e-14
2.20579e-14
2.22391e-14
2.20579e-14
2.22391e-14
2.20491e-14
2.21361e-14
2.20253e-14
2.21371e-14
2.20361e-14
2.20937e-14
2.20427e-14
2.20648e-14
2.20041e-14
2.19959e-14
2.20725e-14
2.19779e-14
2.20663e-14
2.20465e-14
2.20462e-14
2.20452e-14
2.20341e-14
2.20254e-14
2.20305e-14
2.20084e-14
2.20349e-14
2.19902e-14
2.20777e-14
2.19429e-14
2.20188e-14
2.1959e-14
2.19992e-14
2.19722e-14
2.1965e-14
2.19864e-14
2.18827e-14
2.19554e-14
2.18723e-14
2.19108e-14
2.18593e-14
2.18453e-14
2.18748e-14
2.17792e-14
2.18763e-14
2.17556e-14
2.17843e-14
2.17758e-14
2.17526e-14
2.17404e-14
2.17247e-14
2.17318e-14
2.16964e-14
2.17226e-14
2.17227e-14
2.17143e-14
2.17528e-14
2.17037e-14
2.17605e-14
2.16879e-14
2.16888e-14
2.16652e-14
2.17076e-14
2.17268e-14
2.17543e-14
2.17595e-14
2.17714e-14
2.17319e-14
2.17638e-14
2.1732e-14
2.17901e-14
2.17923e-14
2.17555e-14
2.18258e-14
2.17945e-14
2.1836e-14
2.18778e-14
2.18673e-14
2.18849e-14
2.19007e-14
2.18767e-14
2.1937e-14
2.1914e-14
2.20107e-14
2.19311e-14
2.20294e-14
2.19435e-14
2.20718e-14
2.19663e-14
2.20587e-14
2.20015e-14
2.21166e-14
2.2048e-14
2.21646e-14
2.20574e-14
2.22527e-14
2.2058e-14
2.22857e-14
2.21142e-14
2.22811e-14
2.21462e-14
2.2269e-14
2.21729e-14
2.23304e-14
2.2226e-14
2.24331e-14
2.22533e-14
2.24597e-14
2.22723e-14
2.24437e-14
2.22672e-14
2.25215e-14
2.23039e-14
2.25594e-14
2.23653e-14
2.25386e-14
2.24029e-14
2.25251e-14
2.24363e-14
2.25515e-14
2.24661e-14
2.25634e-14
2.2493e-14
2.25418e-14
2.25188e-14
2.25562e-14
2.25262e-14
2.26068e-14
2.25672e-14
2.26416e-14
2.26058e-14
2.26974e-14
2.26423e-14
2.27027e-14
2.26417e-14
2.27283e-14
2.26574e-14
2.2702e-14
2.26725e-14
2.2659e-14
2.26886e-14
2.26528e-14
2.27062e-14
2.27572e-14
2.27234e-14
2.28454e-14
2.27386e-14
2.28636e-14
2.27517e-14
2.2849e-14
2.27632e-14
2.28757e-14
2.2773e-14
2.29257e-14
2.27615e-14
2.29626e-14
2.27656e-14
2.29495e-14
2.2767e-14
2.29423e-14
2.27565e-14
2.29213e-14
2.27343e-14
2.2867e-14
2.27012e-14
2.28362e-14
2.26954e-14
2.28188e-14
2.27076e-14
2.28335e-14
2.26991e-14
2.28418e-14
2.26989e-14
2.28048e-14
2.26881e-14
2.27801e-14
2.26865e-14
2.27769e-14
2.26746e-14
2.27953e-14
2.26618e-14
2.27868e-14
2.26679e-14
2.27414e-14
2.26741e-14
2.27073e-14
2.26709e-14
2.26937e-14
2.26683e-14
2.27008e-14
2.2666e-14
2.26988e-14
2.26641e-14
2.26677e-14
2.26629e-14
2.2647e-14
2.26725e-14
2.26467e-14
2.26531e-14
2.26264e-14
2.26346e-14
2.26062e-14
2.2617e-14
2.2596e-14
2.26001e-14
2.2606e-14
2.25937e-14
2.26064e-14
2.25979e-14
2.25872e-14
2.25724e-14
2.25581e-14
2.25576e-14
2.2529e-14
2.25536e-14
2.25202e-14
2.25503e-14
2.25315e-14
2.25375e-14
2.25429e-14
2.25148e-14
2.25342e-14
2.25025e-14
2.25159e-14
2.24905e-14
2.25285e-14
2.24684e-14
2.25315e-14
2.24461e-14
2.25353e-14
2.24234e-14
2.25299e-14
2.24106e-14
2.24948e-14
2.2418e-14
2.24811e-14
2.24047e-14
2.24987e-14
2.23706e-14
2.24968e-14
2.23565e-14
2.2465e-14
2.23367e-14
2.2465e-14
2.23215e-14
2.24609e-14
2.23159e-14
2.24475e-14
2.22892e-14
2.243e-14
2.22774e-14
2.24185e-14
2.22495e-14
2.2408e-14
2.22209e-14
2.23882e-14
2.22172e-14
2.23745e-14
2.22026e-14
2.23875e-14
2.21872e-14
2.23861e-14
2.2171e-14
2.23602e-14
2.21489e-14
2.23353e-14
2.21362e-14
2.23371e-14
2.21176e-14
2.23451e-14
2.21186e-14
2.23337e-14
2.21034e-14
2.23131e-14
2.20977e-14
2.23088e-14
2.2086e-14
2.22953e-14
2.20787e-14
2.22673e-14
2.20655e-14
2.22453e-14
2.20671e-14
2.22342e-14
2.2068e-14
2.22391e-14
2.20633e-14
2.22394e-14
2.20581e-14
2.22251e-14
2.20523e-14
2.22062e-14
2.20561e-14
2.21828e-14
2.20596e-14
2.21801e-14
2.20426e-14
2.21878e-14
2.20352e-14
2.21909e-14
2.20123e-14
2.21994e-14
2.20041e-14
2.21933e-14
2.20004e-14
2.21726e-14
2.19813e-14
2.21674e-14
2.19717e-14
2.21777e-14
2.19667e-14
2.21834e-14
2.19661e-14
2.21847e-14
2.19601e-14
2.21963e-14
2.19636e-14
2.22085e-14
2.19615e-14
2.22162e-14
2.1959e-14
2.22145e-14
2.19634e-14
2.22084e-14
2.19722e-14
2.22151e-14
2.19806e-14
2.22248e-14
2.19861e-14
2.22275e-14
2.19936e-14
2.22258e-14
2.19983e-14
2.22246e-14
2.20099e-14
2.22384e-14
2.20139e-14
2.22477e-14
2.202e-14
2.22477e-14
2.2021e-14
2.22505e-14
2.20265e-14
2.22513e-14
2.20388e-14
2.22549e-14
2.2039e-14
2.22588e-14
2.20365e-14
2.2263e-14
2.20361e-14
2.22723e-14
2.20402e-14
2.22772e-14
2.20417e-14
2.22871e-14
2.20429e-14
2.22903e-14
2.20439e-14
2.22915e-14
2.20469e-14
2.2293e-14
2.20543e-14
2.22925e-14
2.20546e-14
2.22969e-14
2.20524e-14
2.22993e-14
2.20568e-14
2.22928e-14
2.20632e-14
2.22934e-14
2.20694e-14
2.22966e-14
2.20755e-14
2.22977e-14
2.20768e-14
2.22968e-14
2.20802e-14
2.22961e-14
2.20879e-14
2.22978e-14
2.20932e-14
2.22997e-14
2.20983e-14
2.22952e-14
2.21055e-14
2.22887e-14
2.21169e-14
2.22911e-14
2.21195e-14
2.22958e-14
2.21241e-14
2.22984e-14
2.21222e-14
2.23011e-14
2.21266e-14
2.23019e-14
2.21289e-14
2.22964e-14
2.2131e-14
2.22933e-14
2.21299e-14
2.22933e-14
2.21288e-14
2.22935e-14
2.21276e-14
2.22886e-14
2.21275e-14
2.2289e-14
2.21252e-14
2.22884e-14
2.21259e-14
2.2286e-14
2.21245e-14
2.22837e-14
2.21222e-14
2.22824e-14
2.21198e-14
2.22822e-14
2.21183e-14
2.22792e-14
2.21149e-14
2.22783e-14
2.21134e-14
2.22764e-14
2.2109e-14
2.22775e-14
2.21055e-14
2.22768e-14
2.21039e-14
2.22733e-14
2.21032e-14
2.227e-14
2.21015e-14
2.22704e-14
2.20979e-14
2.227e-14
2.20944e-14
2.22706e-14
2.20917e-14
2.22694e-14
2.20873e-14
2.22683e-14
2.20837e-14
2.22673e-14
2.20793e-14
2.22681e-14
2.20765e-14
2.22689e-14
2.20729e-14
2.22664e-14
2.2071e-14
2.22648e-14
2.20682e-14
2.22641e-14
2.20671e-14
2.22635e-14
2.20651e-14
2.22638e-14
2.20646e-14
2.22641e-14
2.20642e-14
2.22644e-14
2.20645e-14
2.22656e-14
2.20628e-14
2.22664e-14
2.20615e-14
2.2265e-14
2.20601e-14
2.22625e-14
2.20591e-14
2.22615e-14
2.20581e-14
2.22618e-14
2.20563e-14
2.2262e-14
2.20549e-14
2.22616e-14
2.20538e-14
2.22591e-14
2.20531e-14
2.22584e-14
2.20516e-14
2.22592e-14
2.20504e-14
2.22596e-14
2.20499e-14
2.22587e-14
2.20491e-14
2.22579e-14
2.20485e-14
2.22581e-14
2.20477e-14
2.2258e-14
2.20467e-14
2.22573e-14
2.20468e-14
2.2257e-14
2.20461e-14
2.22576e-14
2.20452e-14
2.22579e-14
2.20445e-14
2.22577e-14
2.20444e-14
2.22578e-14
2.20443e-14
2.22579e-14
2.20441e-14
2.22577e-14
2.20442e-14
2.22576e-14
2.20438e-14
2.22583e-14
2.20433e-14
2.22588e-14
2.2043e-14
2.22588e-14
2.20431e-14
2.22585e-14
2.20434e-14
2.22586e-14
2.2043e-14
2.22593e-14
2.20423e-14
2.226e-14
2.20421e-14
2.22598e-14
2.20417e-14
2.22599e-14
2.20416e-14
2.226e-14
2.20412e-14
2.22599e-14
2.20413e-14
2.22598e-14