/*--------------------------------*- C++ -*----------------------------------*\
| =========                 |                                                 |
| \\      /  F ield         | OpenFOAM: The Open Source CFD Toolbox           |
|  \\    /   O peration     | Version:  2012                                  |
|   \\  /    A nd           | Website:  www.openfoam.com                      |
|    \\/     M anipulation  |                                                 |
\*---------------------------------------------------------------------------*/
FoamFile
{
    version     2.0;
    format      ascii;
    class       surfaceScalarField;
    location    "20000";
    object      phi;
}
// * * * * * * * * * * * * * * * * * * * * * * * * * * * * * * * * * * * * * //

dimensions      [0 3 -1 0 0 0 0];
oriented        oriented;


internalField   nonuniform List<scalar> 
5116
(
1.69642e-08
-7.54568e-18
-1.35392e-22
-3.93084e-22
3.56714e-23
5.18777e-08
-7.5452e-18
-1.12332e-22
-8.38776e-22
7.64923e-23
8.83092e-08
-7.54471e-18
-1.1348e-22
-1.2947e-21
7.98606e-23
1.2631e-07
-7.54417e-18
-1.23966e-22
-1.77165e-21
8.33666e-23
1.65933e-07
-7.54364e-18
-1.33989e-22
-2.27209e-21
8.70148e-23
2.07234e-07
-7.54306e-18
-1.44041e-22
-2.82194e-21
9.08101e-23
2.50267e-07
-7.54243e-18
-1.5492e-22
-3.39808e-21
9.4758e-23
2.95093e-07
-7.54168e-18
-1.6664e-22
-4.05559e-21
9.88641e-23
3.41769e-07
-7.54106e-18
-1.79067e-22
-4.67835e-21
1.03134e-22
3.90359e-07
-7.54024e-18
-1.92165e-22
-5.33448e-21
1.07574e-22
4.40925e-07
-7.53941e-18
-2.05948e-22
-6.04849e-21
1.12189e-22
4.93533e-07
-7.53863e-18
-2.20441e-22
-6.8296e-21
1.16986e-22
5.4825e-07
-7.53771e-18
-2.35673e-22
-7.56394e-21
1.21973e-22
6.05146e-07
-7.53646e-18
-2.51675e-22
-8.48465e-21
1.27154e-22
6.64291e-07
-7.53538e-18
-2.68483e-22
-9.41629e-21
1.32538e-22
7.2576e-07
-7.5343e-18
-2.86129e-22
-1.03675e-20
1.38131e-22
7.89626e-07
-7.53295e-18
-3.04646e-22
-1.14268e-20
1.43941e-22
8.55968e-07
-7.53162e-18
-3.24075e-22
-1.25346e-20
1.49974e-22
9.24863e-07
-7.53052e-18
-3.44448e-22
-1.37914e-20
1.56235e-22
9.96392e-07
-7.52905e-18
-3.65793e-22
-1.49462e-20
1.62733e-22
1.07064e-06
-7.52764e-18
-3.88149e-22
-1.6282e-20
1.69463e-22
1.14768e-06
-7.52587e-18
-4.1154e-22
-1.77727e-20
1.76435e-22
1.22761e-06
-7.5248e-18
-4.36005e-22
-1.91828e-20
1.83651e-22
1.31051e-06
-7.52324e-18
-4.6156e-22
-2.06358e-20
1.91117e-22
1.39646e-06
-7.52121e-18
-4.88242e-22
-2.21929e-20
1.98834e-22
1.48556e-06
-7.51893e-18
-5.16078e-22
-2.40398e-20
2.06796e-22
1.57789e-06
-7.51719e-18
-5.45085e-22
-2.56912e-20
2.14999e-22
1.67352e-06
-7.51505e-18
-5.75277e-22
-2.76892e-20
2.23446e-22
1.77256e-06
-7.51252e-18
-6.06672e-22
-2.93975e-20
2.32138e-22
1.87507e-06
-7.50992e-18
-6.39269e-22
-3.15703e-20
2.41057e-22
1.98115e-06
-7.50701e-18
-6.73055e-22
-3.40208e-20
2.50201e-22
2.09085e-06
-7.50486e-18
-7.08013e-22
-3.58936e-20
2.59536e-22
2.20426e-06
-7.50231e-18
-7.44096e-22
-3.74292e-20
2.69041e-22
2.32144e-06
-7.49992e-18
-7.81261e-22
-3.95697e-20
2.78697e-22
2.44245e-06
-7.49697e-18
-8.19443e-22
-4.18585e-20
2.8849e-22
2.56734e-06
-7.49323e-18
-8.58592e-22
-4.47199e-20
2.9839e-22
2.69615e-06
-7.48934e-18
-8.9863e-22
-4.7883e-20
3.08362e-22
2.82892e-06
-7.48649e-18
-9.39465e-22
-5.06059e-20
3.18381e-22
2.96567e-06
-7.48301e-18
-9.80957e-22
-5.31795e-20
3.28402e-22
3.10643e-06
-7.47908e-18
-1.02301e-21
-5.64825e-20
3.38361e-22
3.25119e-06
-7.47482e-18
-1.06552e-21
-5.94558e-20
3.48228e-22
3.39995e-06
-7.47067e-18
-1.10833e-21
-6.33805e-20
3.57954e-22
3.5527e-06
-7.46624e-18
-1.15134e-21
-6.72e-20
3.67523e-22
3.70942e-06
-7.4632e-18
-1.1944e-21
-6.96581e-20
3.76887e-22
3.87007e-06
-7.45803e-18
-1.2373e-21
-7.41176e-20
3.85927e-22
4.03461e-06
-7.4528e-18
-1.27995e-21
-7.82442e-20
3.94671e-22
4.20301e-06
-7.44948e-18
-1.32219e-21
-8.0693e-20
4.03069e-22
4.37519e-06
-7.44575e-18
-1.36387e-21
-8.41085e-20
4.10994e-22
4.55112e-06
-7.44128e-18
-1.40486e-21
-8.70903e-20
4.18469e-22
4.73073e-06
-7.43705e-18
-1.44508e-21
-9.07059e-20
4.25445e-22
4.91397e-06
-7.4321e-18
-1.48448e-21
-9.43213e-20
4.31913e-22
5.10077e-06
-7.4273e-18
-1.52304e-21
-9.8085e-20
4.37905e-22
5.29109e-06
-7.42157e-18
-1.56072e-21
-1.01715e-19
4.43405e-22
5.48486e-06
-7.41568e-18
-1.59751e-21
-1.06438e-19
4.48416e-22
5.68204e-06
-7.40973e-18
-1.63348e-21
-1.10889e-19
4.52957e-22
5.88259e-06
-7.40411e-18
-1.66859e-21
-1.14809e-19
4.5706e-22
6.08647e-06
-7.39851e-18
-1.70283e-21
-1.20066e-19
4.60704e-22
6.29364e-06
-7.39226e-18
-1.73624e-21
-1.25895e-19
4.6388e-22
6.50408e-06
-7.38492e-18
-1.76886e-21
-1.31067e-19
4.6663e-22
6.71778e-06
-7.3777e-18
-1.80082e-21
-1.36931e-19
4.69017e-22
6.93471e-06
-7.37084e-18
-1.83217e-21
-1.42537e-19
4.71018e-22
7.15489e-06
-7.36318e-18
-1.86289e-21
-1.49258e-19
4.72701e-22
7.3783e-06
-7.35635e-18
-1.8931e-21
-1.53389e-19
4.7401e-22
7.60495e-06
-7.35069e-18
-1.92279e-21
-1.5833e-19
4.74921e-22
7.83487e-06
-7.34411e-18
-1.95204e-21
-1.63486e-19
4.7558e-22
8.06808e-06
-7.33681e-18
-1.98095e-21
-1.70149e-19
4.75978e-22
8.3046e-06
-7.32821e-18
-2.00964e-21
-1.76581e-19
4.7635e-22
8.54446e-06
-7.3216e-18
-2.03824e-21
-1.79711e-19
4.76606e-22
8.7877e-06
-7.31451e-18
-2.06674e-21
-1.86352e-19
4.76689e-22
9.03436e-06
-7.30469e-18
-2.09523e-21
-1.93427e-19
4.76849e-22
9.2845e-06
-7.29602e-18
-2.12378e-21
-1.98974e-19
4.76914e-22
9.53816e-06
-7.28654e-18
-2.15258e-21
-2.06503e-19
4.76869e-22
9.79539e-06
-7.28199e-18
-2.18171e-21
-2.10468e-19
4.76916e-22
1.00563e-05
-7.27541e-18
-2.21083e-21
-2.14308e-19
4.76919e-22
1.03208e-05
-7.27008e-18
-2.24e-21
-2.1784e-19
4.76808e-22
1.05892e-05
-7.26337e-18
-2.26928e-21
-2.19589e-19
4.76517e-22
1.08613e-05
-7.25889e-18
-2.29872e-21
-2.23394e-19
4.75745e-22
1.11374e-05
-7.25631e-18
-2.32807e-21
-2.27823e-19
4.74559e-22
1.14174e-05
-7.25169e-18
-2.35712e-21
-2.32669e-19
4.72984e-22
1.17015e-05
-7.24414e-18
-2.38603e-21
-2.36502e-19
4.71044e-22
1.19896e-05
-7.23626e-18
-2.4151e-21
-2.38999e-19
4.68526e-22
1.2282e-05
-7.2314e-18
-2.44421e-21
-2.43852e-19
4.65136e-22
1.25787e-05
-7.22356e-18
-2.47305e-21
-2.47154e-19
4.60971e-22
1.28798e-05
-7.2141e-18
-2.50184e-21
-2.53543e-19
4.56218e-22
1.31853e-05
-7.20646e-18
-2.53063e-21
-2.60086e-19
4.51198e-22
1.34953e-05
-7.19716e-18
-2.55893e-21
-2.65824e-19
4.45392e-22
1.38099e-05
-7.18501e-18
-2.58719e-21
-2.7119e-19
4.38841e-22
1.41293e-05
-7.176e-18
-2.61562e-21
-2.78732e-19
4.31936e-22
1.44535e-05
-7.16841e-18
-2.64396e-21
-2.84745e-19
4.25148e-22
1.47826e-05
-7.15834e-18
-2.67245e-21
-2.91342e-19
4.18445e-22
1.51166e-05
-7.14909e-18
-2.70125e-21
-2.98401e-19
4.11468e-22
1.54558e-05
-7.14688e-18
-2.73028e-21
-3.01635e-19
4.04192e-22
1.58001e-05
-7.13916e-18
-2.75863e-21
-3.07703e-19
3.96125e-22
1.61497e-05
-7.13293e-18
-2.78664e-21
-3.13344e-19
3.8805e-22
1.65048e-05
-7.12543e-18
-2.81412e-21
-3.181e-19
3.79514e-22
1.68653e-05
-7.12136e-18
-2.84133e-21
-3.2575e-19
3.7019e-22
1.72313e-05
-7.11087e-18
-2.8679e-21
-3.33089e-19
3.61027e-22
1.76031e-05
-7.09764e-18
-2.89515e-21
-3.3754e-19
3.52984e-22
1.79807e-05
-7.09443e-18
-2.92369e-21
-3.4527e-19
3.45687e-22
1.83642e-05
-7.08523e-18
-2.95093e-21
-3.52505e-19
3.38819e-22
1.87537e-05
-7.07143e-18
-2.97838e-21
-3.57501e-19
3.31567e-22
1.91494e-05
-7.05181e-18
-3.00682e-21
-3.66666e-19
3.25065e-22
1.95512e-05
-7.04231e-18
-3.03791e-21
-3.70389e-19
3.19282e-22
1.99595e-05
-7.0343e-18
-3.07035e-21
-3.75924e-19
3.1479e-22
2.03742e-05
-7.02616e-18
-3.10331e-21
-3.80341e-19
3.10969e-22
2.07955e-05
-7.01453e-18
-3.13688e-21
-3.85764e-19
3.07479e-22
2.12235e-05
-7.00335e-18
-3.1712e-21
-3.92628e-19
3.04785e-22
2.16583e-05
-6.99252e-18
-3.20563e-21
-3.99959e-19
3.01602e-22
2.21001e-05
-6.97912e-18
-3.24035e-21
-4.06509e-19
2.99059e-22
2.2549e-05
-6.96579e-18
-3.27576e-21
-4.12136e-19
2.96566e-22
2.30051e-05
-6.95227e-18
-3.31224e-21
-4.19026e-19
2.9401e-22
2.34685e-05
-6.93998e-18
-3.34895e-21
-4.2658e-19
2.92242e-22
2.39393e-05
-6.92665e-18
-3.38625e-21
-4.33736e-19
2.90915e-22
2.44178e-05
-6.91361e-18
-3.42529e-21
-4.42e-19
2.90895e-22
2.4904e-05
-6.89954e-18
-3.46513e-21
-4.51748e-19
2.92006e-22
2.5398e-05
-6.88574e-18
-3.50582e-21
-4.59157e-19
2.94125e-22
2.59001e-05
-6.86911e-18
-3.54509e-21
-4.69516e-19
2.97435e-22
2.64102e-05
-6.84971e-18
-3.58522e-21
-4.72918e-19
3.02384e-22
2.69287e-05
-6.83365e-18
-3.62627e-21
-4.87296e-19
3.0682e-22
2.74556e-05
-6.8219e-18
-3.66779e-21
-4.93067e-19
3.13709e-22
2.79911e-05
-6.7999e-18
-3.70865e-21
-5.04946e-19
3.19836e-22
2.85353e-05
-6.78472e-18
-3.75045e-21
-5.12889e-19
3.27393e-22
2.90883e-05
-6.77017e-18
-3.79368e-21
-5.24227e-19
3.35752e-22
2.96504e-05
-6.76061e-18
-3.83639e-21
-5.26231e-19
3.44114e-22
3.02217e-05
-6.75027e-18
-3.87741e-21
-5.3489e-19
3.49454e-22
3.08023e-05
-6.72841e-18
-3.91851e-21
-5.56591e-19
3.57609e-22
3.13924e-05
-6.71942e-18
-3.96186e-21
-5.67204e-19
3.71314e-22
3.19921e-05
-6.69294e-18
-4.00168e-21
-5.80316e-19
3.84854e-22
3.26017e-05
-6.6763e-18
-4.04523e-21
-5.97813e-19
4.00973e-22
3.32213e-05
-6.66085e-18
-4.09262e-21
-6.16784e-19
4.2226e-22
3.3851e-05
-6.6366e-18
-4.13985e-21
-6.38326e-19
4.47003e-22
3.44911e-05
-6.61602e-18
-4.19242e-21
-6.59968e-19
4.77508e-22
3.51417e-05
-6.5967e-18
-4.24416e-21
-6.71268e-19
5.07635e-22
3.58029e-05
-6.57527e-18
-4.29506e-21
-6.89763e-19
5.31321e-22
3.64751e-05
-6.56599e-18
-4.3459e-21
-6.92216e-19
5.53482e-22
3.71583e-05
-6.55926e-18
-4.39282e-21
-7.00011e-19
5.68443e-22
3.78527e-05
-6.54515e-18
-4.43696e-21
-7.11157e-19
5.7477e-22
3.85586e-05
-6.54325e-18
-4.4817e-21
-7.21398e-19
5.81537e-22
3.92761e-05
-6.52746e-18
-4.52074e-21
-7.31403e-19
5.87912e-22
4.00054e-05
-6.50949e-18
-4.55614e-21
-7.40131e-19
5.92651e-22
4.07467e-05
-6.505e-18
-4.59703e-21
-7.57404e-19
5.95977e-22
4.15003e-05
-6.50001e-18
-4.63428e-21
-7.58724e-19
6.03464e-22
4.22663e-05
-6.48082e-18
-4.6704e-21
-7.73051e-19
6.05596e-22
4.30449e-05
-6.46629e-18
-4.71204e-21
-7.88261e-19
6.12169e-22
4.38363e-05
-6.45035e-18
-4.75756e-21
-7.95817e-19
6.25427e-22
4.46408e-05
-6.43446e-18
-4.80515e-21
-8.13809e-19
6.36309e-22
4.54586e-05
-6.42014e-18
-4.85739e-21
-8.27151e-19
6.46594e-22
4.62899e-05
-6.40149e-18
-4.91199e-21
-8.39248e-19
6.50771e-22
4.71349e-05
-6.38541e-18
-4.97046e-21
-8.58511e-19
6.54489e-22
4.79939e-05
-6.36602e-18
-5.03115e-21
-8.67127e-19
6.60721e-22
4.8867e-05
-6.34349e-18
-5.09565e-21
-8.7578e-19
6.60296e-22
4.97546e-05
-6.32077e-18
-5.16572e-21
-8.88125e-19
6.60713e-22
5.06568e-05
-6.30279e-18
-5.24332e-21
-8.96973e-19
6.56672e-22
5.15739e-05
-6.27264e-18
-5.32453e-21
-9.11946e-19
6.45081e-22
5.25062e-05
-6.2493e-18
-5.41221e-21
-9.26928e-19
6.34596e-22
5.34539e-05
-6.22473e-18
-5.49808e-21
-9.46088e-19
6.22953e-22
5.44173e-05
-6.201e-18
-5.58571e-21
-9.55096e-19
6.06595e-22
5.53965e-05
-6.1738e-18
-5.66221e-21
-9.72759e-19
5.89464e-22
5.6392e-05
-6.13561e-18
-5.74358e-21
-9.84183e-19
5.75954e-22
5.74038e-05
-6.09789e-18
-5.83711e-21
-1.00059e-18
5.52535e-22
5.84324e-05
-6.0702e-18
-5.93769e-21
-1.01453e-18
5.27689e-22
5.94781e-05
-6.05533e-18
-6.03784e-21
-1.03036e-18
5.0026e-22
6.05409e-05
-6.04666e-18
-6.14928e-21
-1.04958e-18
4.75663e-22
6.16214e-05
-6.03396e-18
-6.23556e-21
-1.06591e-18
4.31733e-22
6.27197e-05
-6.01637e-18
-6.32629e-21
-1.09609e-18
3.57185e-22
6.38361e-05
-5.99175e-18
-6.41132e-21
-1.1166e-18
2.7067e-22
6.4971e-05
-5.95994e-18
-6.50805e-21
-1.1513e-18
1.62947e-22
6.61246e-05
-5.93429e-18
-6.61614e-21
-1.17577e-18
6.03357e-23
6.72973e-05
-5.9047e-18
-6.73818e-21
-1.2048e-18
-4.24811e-23
6.84894e-05
-5.88047e-18
-6.85912e-21
-1.23388e-18
-1.49946e-22
6.97011e-05
-5.84919e-18
-6.9498e-21
-1.26785e-18
-2.93169e-22
7.09329e-05
-5.81925e-18
-7.03762e-21
-1.29156e-18
-4.43803e-22
7.2185e-05
-5.79218e-18
-7.14834e-21
-1.30765e-18
-6.09182e-22
7.34577e-05
-5.78078e-18
-7.25216e-21
-1.33507e-18
-8.10893e-22
7.47515e-05
-5.73723e-18
-7.32769e-21
-1.36373e-18
-1.03003e-21
7.60666e-05
-5.71101e-18
-7.43432e-21
-1.38794e-18
-1.21532e-21
7.74035e-05
-5.6707e-18
-7.54556e-21
-1.42274e-18
-1.38049e-21
7.87624e-05
-5.6648e-18
-7.69571e-21
-1.42312e-18
-1.51083e-21
8.01437e-05
-5.6656e-18
-7.82847e-21
-1.42237e-18
-1.61295e-21
8.15478e-05
-5.64251e-18
-7.95457e-21
-1.4282e-18
-1.69629e-21
8.2975e-05
-5.62637e-18
-8.11687e-21
-1.44599e-18
-1.7653e-21
8.44258e-05
-5.62049e-18
-8.26425e-21
-1.45226e-18
-1.82481e-21
8.59006e-05
-5.60217e-18
-8.37854e-21
-1.46666e-18
-1.90205e-21
8.73996e-05
-5.56955e-18
-8.49746e-21
-1.4798e-18
-1.92921e-21
8.89234e-05
-5.5421e-18
-8.6197e-21
-1.481e-18
-1.94303e-21
9.04722e-05
-5.52575e-18
-8.75337e-21
-1.48002e-18
-1.94672e-21
9.20466e-05
-5.49295e-18
-8.90273e-21
-1.50197e-18
-1.9414e-21
9.36469e-05
-5.46807e-18
-9.0852e-21
-1.513e-18
-1.89304e-21
9.52736e-05
-5.44586e-18
-9.25853e-21
-1.51995e-18
-1.84086e-21
9.6927e-05
-5.42367e-18
-9.4525e-21
-1.53187e-18
-1.79953e-21
9.86077e-05
-5.40332e-18
-9.64576e-21
-1.51975e-18
-1.73618e-21
0.000100316
-5.3914e-18
-9.83138e-21
-1.51646e-18
-1.71819e-21
0.000102053
-5.34968e-18
-1.00275e-20
-1.536e-18
-1.72846e-21
0.000103818
-5.3277e-18
-1.02485e-20
-1.54162e-18
-1.71498e-21
0.000105612
-5.28994e-18
-1.04336e-20
-1.54093e-18
-1.71455e-21
0.000107435
-5.26615e-18
-1.06667e-20
-1.5546e-18
-1.75283e-21
0.000109289
-5.22793e-18
-1.08527e-20
-1.57067e-18
-1.79667e-21
0.000111173
-5.19527e-18
-1.09318e-20
-1.62031e-18
-1.846e-21
0.000113088
-5.16072e-18
-1.09673e-20
-1.64801e-18
-1.85302e-21
0.000115034
-5.11601e-18
-1.10092e-20
-1.6542e-18
-1.84933e-21
0.000117012
-5.04837e-18
-1.10695e-20
-1.67854e-18
-1.83374e-21
0.000119023
-5.00548e-18
-1.11584e-20
-1.68423e-18
-1.84993e-21
0.000121067
-4.96626e-18
-1.11979e-20
-1.72218e-18
-1.93922e-21
0.000123145
-4.92552e-18
-1.12834e-20
-1.75746e-18
-1.9134e-21
0.000125256
-4.89693e-18
-1.1449e-20
-1.7629e-18
-1.74896e-21
0.000127402
-4.83348e-18
-1.16204e-20
-1.82681e-18
-1.59128e-21
0.000129583
-4.82239e-18
-1.18882e-20
-1.82105e-18
-1.27295e-21
0.0001318
-4.7935e-18
-1.20873e-20
-1.85144e-18
-1.06974e-21
0.000134054
-4.76641e-18
-1.22152e-20
-1.87257e-18
-8.96382e-22
0.000136344
-4.7309e-18
-1.24013e-20
-1.91254e-18
-7.5274e-22
0.000138672
-4.71796e-18
-1.27422e-20
-1.92655e-18
-5.79893e-22
0.000141038
-4.71774e-18
-1.29664e-20
-1.93252e-18
-6.62102e-22
0.000143442
-4.65061e-18
-1.29208e-20
-1.95794e-18
-9.18566e-22
0.000145886
-4.60697e-18
-1.29938e-20
-2.00097e-18
-1.17725e-21
0.00014837
-4.55718e-18
-1.29871e-20
-2.0577e-18
-1.38649e-21
0.000150894
-4.49169e-18
-1.29483e-20
-2.05926e-18
-1.55607e-21
0.00015346
-4.47003e-18
-1.29307e-20
-2.10326e-18
-1.78976e-21
0.000156068
-4.42225e-18
-1.28149e-20
-2.12515e-18
-2.04932e-21
0.000158718
-4.37892e-18
-1.27847e-20
-2.16327e-18
-2.35461e-21
0.000161411
-4.33065e-18
-1.26929e-20
-2.19316e-18
-2.51235e-21
0.000164148
-4.26369e-18
-1.26616e-20
-2.24479e-18
-2.57773e-21
0.00016693
-4.23025e-18
-1.26149e-20
-2.27063e-18
-2.59745e-21
0.000169758
-4.17754e-18
-1.27025e-20
-2.30545e-18
-2.44382e-21
0.000172631
-4.12819e-18
-1.27698e-20
-2.33739e-18
-2.13981e-21
0.000175551
-4.08786e-18
-1.29661e-20
-2.34968e-18
-1.79684e-21
0.000178519
-4.04519e-18
-1.30702e-20
-2.38696e-18
-1.59834e-21
0.000181535
-4.01105e-18
-1.29697e-20
-2.39256e-18
-1.24226e-21
0.000184599
-3.957e-18
-1.29354e-20
-2.42664e-18
-6.75825e-22
0.000187714
-3.90603e-18
-1.26841e-20
-2.40295e-18
-1.79976e-22
0.00019088
-3.86345e-18
-1.24163e-20
-2.42096e-18
9.85075e-24
0.000194096
-3.81279e-18
-1.20053e-20
-2.43044e-18
-9.89791e-23
0.000197365
-3.76084e-18
-1.1857e-20
-2.44851e-18
-1.83758e-22
0.000200687
-3.7253e-18
-1.16222e-20
-2.46096e-18
-4.86204e-22
0.000204063
-3.68877e-18
-1.13399e-20
-2.47972e-18
-1.07553e-21
0.000207493
-3.6195e-18
-1.1127e-20
-2.53481e-18
-1.70477e-21
0.000210979
-3.63326e-18
-1.11762e-20
-2.52097e-18
-2.19667e-21
0.000214521
-3.61895e-18
-1.1299e-20
-2.54741e-18
-2.63432e-21
0.000218121
-3.60407e-18
-1.13713e-20
-2.54381e-18
-2.98075e-21
0.000221779
-3.59521e-18
-1.18899e-20
-2.53672e-18
-3.65357e-21
0.000225495
-3.55988e-18
-1.23594e-20
-2.56514e-18
-4.40175e-21
0.000229272
-3.55649e-18
-1.29403e-20
-2.57025e-18
-4.85285e-21
0.00023311
-3.54774e-18
-1.34868e-20
-2.55073e-18
-5.58191e-21
0.000237009
-3.51706e-18
-1.40257e-20
-2.56637e-18
-6.40806e-21
0.000240971
-3.53912e-18
-1.49658e-20
-2.53974e-18
-7.25777e-21
0.000244997
-3.47859e-18
-1.56837e-20
-2.669e-18
-8.66779e-21
0.000249088
-3.46962e-18
-1.67217e-20
-2.7148e-18
-8.52591e-21
0.000253244
-3.41679e-18
-1.67702e-20
-2.74746e-18
-8.54026e-21
0.000257468
-3.31519e-18
-1.68197e-20
-2.79895e-18
-9.46536e-21
0.000261758
-3.27528e-18
-1.73801e-20
-2.79919e-18
-1.03103e-20
0.000266118
-3.25564e-18
-1.77204e-20
-2.77595e-18
-1.097e-20
0.000270547
-3.20106e-18
-1.73233e-20
-2.77533e-18
-1.20068e-20
0.000275047
-3.17396e-18
-1.72277e-20
-2.77311e-18
-1.33841e-20
0.000279619
-3.07205e-18
-1.68328e-20
-2.80906e-18
-1.50684e-20
0.000284264
-3.08605e-18
-1.73363e-20
-2.83466e-18
-1.61628e-20
0.000288983
-3.02485e-18
-1.79141e-20
-2.77585e-18
-1.74889e-20
0.000293777
-2.96435e-18
-1.77067e-20
-2.82072e-18
-1.86896e-20
0.000298648
-2.99821e-18
-1.81475e-20
-2.74406e-18
-1.93046e-20
0.000303596
-2.9704e-18
-1.79363e-20
-2.74857e-18
-2.08194e-20
0.000308622
-2.89846e-18
-1.80519e-20
-2.76803e-18
-2.03581e-20
0.000313728
-2.93504e-18
-1.87069e-20
-2.69552e-18
-1.97169e-20
0.000318915
-2.8995e-18
-1.93481e-20
-2.7071e-18
-2.08114e-20
0.000324183
-2.81916e-18
-2.04053e-20
-2.67494e-18
-2.08666e-20
0.000329535
-2.79261e-18
-2.16313e-20
-2.73318e-18
-2.19489e-20
0.000334971
-2.72908e-18
-2.25427e-20
-2.67699e-18
-2.23772e-20
0.000340493
-2.70297e-18
-2.40859e-20
-2.68418e-18
-2.27379e-20
0.000346102
-2.6972e-18
-2.48815e-20
-2.56361e-18
-2.26117e-20
0.000351799
-2.66331e-18
-2.47214e-20
-2.57205e-18
-2.34926e-20
0.000357584
-2.61499e-18
-2.41806e-20
-2.51049e-18
-2.31113e-20
0.000363461
-2.55063e-18
-2.29887e-20
-2.48839e-18
-2.2698e-20
0.000369429
-2.52281e-18
-2.22993e-20
-2.50938e-18
-2.29109e-20
0.00037549
-2.44681e-18
-2.07697e-20
-2.46895e-18
-2.26383e-20
0.000381645
-2.43428e-18
-2.19671e-20
-2.48739e-18
-2.1876e-20
0.000387896
-2.47213e-18
-2.34732e-20
-2.45463e-18
-2.10481e-20
0.000394243
-2.42218e-18
-2.35536e-20
-2.46123e-18
-2.03725e-20
0.000400689
-2.3873e-18
-2.40977e-20
-2.39499e-18
-2.01735e-20
0.000407234
-2.42923e-18
-2.48263e-20
-2.28367e-18
-2.007e-20
0.000413879
-2.37328e-18
-2.37249e-20
-2.29104e-18
-2.31871e-20
0.000420627
-2.34485e-18
-2.42845e-20
-2.28418e-18
-2.46385e-20
0.000427477
-2.2968e-18
-2.66483e-20
-2.25435e-18
-2.35425e-20
0.000434433
-2.35528e-18
-2.71296e-20
-2.25981e-18
-2.31477e-20
0.000441493
-2.35039e-18
-2.70967e-20
-2.17268e-18
-2.04982e-20
0.000448661
-2.31555e-18
-2.51236e-20
-2.15974e-18
-1.94992e-20
0.000455938
-2.21123e-18
-2.38328e-20
-2.23838e-18
-2.17236e-20
0.000463323
-2.17594e-18
-2.41381e-20
-2.23846e-18
-2.28239e-20
0.00047082
-2.1549e-18
-2.35099e-20
-2.19593e-18
-2.34675e-20
0.000478429
-2.15679e-18
-2.08852e-20
-2.19897e-18
-2.54375e-20
0.00048615
-2.13934e-18
-1.91245e-20
-2.20874e-18
-2.87576e-20
0.000493987
-2.04002e-18
-2.09388e-20
-2.11003e-18
-3.08546e-20
0.000501939
-1.95114e-18
-2.39855e-20
-2.08811e-18
-2.9903e-20
0.000510007
-2.02721e-18
-2.35059e-20
-1.91726e-18
-2.6023e-20
0.000518194
-1.78786e-18
-2.45003e-20
-1.84628e-18
-2.27504e-20
0.000526499
-1.85271e-18
-3.03516e-20
-1.7905e-18
-2.08091e-20
0.000534925
-1.7011e-18
-2.75154e-20
-1.73243e-18
-2.12594e-20
0.000543471
-1.56473e-18
-2.67121e-20
-1.68134e-18
-2.03273e-20
0.00055214
-1.61626e-18
-3.16378e-20
-1.65266e-18
-1.4689e-20
0.000560931
-1.66246e-18
-3.22872e-20
-1.50661e-18
-8.46192e-21
0.000569846
-1.4121e-18
-2.79466e-20
-1.46079e-18
-8.45578e-21
0.000578885
-1.39791e-18
-3.04134e-20
-1.41852e-18
-7.94e-21
0.000588049
-1.36064e-18
-2.29428e-20
-1.30151e-18
-6.04659e-21
0.000597338
-1.3276e-18
-2.6386e-20
-1.26541e-18
-8.11487e-21
0.000606754
-1.31378e-18
-3.06907e-20
-1.2336e-18
-9.85604e-21
0.000616296
-1.3236e-18
-2.63055e-20
-1.23792e-18
-9.52163e-21
0.000625965
-1.24115e-18
-1.93271e-20
-1.21019e-18
-6.17079e-21
0.00063576
-1.16486e-18
-1.75939e-20
-1.23184e-18
-3.56689e-21
0.000645682
-1.2531e-18
-2.27263e-20
-1.18325e-18
3.62344e-22
0.00065573
-1.19092e-18
-1.44482e-20
-1.16975e-18
-4.98806e-21
0.000665904
-1.15257e-18
-1.21122e-20
-1.11031e-18
-1.70818e-20
0.000676203
-1.11978e-18
-1.43243e-20
-1.06442e-18
-2.61583e-20
0.000686627
-1.05604e-18
-1.49834e-20
-9.50794e-19
-2.71959e-20
0.000697175
-9.52648e-19
-7.81347e-21
-1.02778e-18
-2.84552e-20
0.000707844
-9.24313e-19
-7.62601e-21
-1.00956e-18
-2.20635e-20
0.000718635
-9.52546e-19
-1.08514e-20
-1.00378e-18
-1.79103e-20
0.000729544
-9.64424e-19
-3.622e-21
-1.00305e-18
-2.13564e-20
0.000740571
-8.44451e-19
-6.17483e-21
-1.03107e-18
-1.2894e-20
0.000751712
-1.0126e-18
-1.67067e-20
-8.72539e-19
-9.06729e-21
0.000762965
-9.5771e-19
-1.53203e-20
-8.83532e-19
-2.38714e-20
0.000774327
-8.71019e-19
-1.48627e-20
-8.67495e-19
-2.87419e-20
0.000785795
-7.95066e-19
-1.88104e-20
-8.28452e-19
-3.46332e-20
0.000797365
-7.46544e-19
-2.61328e-20
-7.89743e-19
-3.40477e-20
0.000809035
-2.50476e-20
-6.95683e-19
-3.48737e-20
-6.85514e-19
1.69642e-08
-1.23927e-22
2.34337e-23
5.18777e-08
-2.39847e-22
1.03557e-22
8.83092e-08
-3.59231e-22
1.81934e-22
1.2631e-07
-5.26745e-22
2.82459e-22
1.65933e-07
-6.82211e-22
3.8702e-22
2.07234e-07
-8.18374e-22
4.63416e-22
2.50267e-07
-9.97087e-22
5.77362e-22
2.95093e-07
-1.13809e-21
6.52587e-22
3.41769e-07
-1.32756e-21
7.4178e-22
3.90359e-07
-1.50813e-21
8.35469e-22
4.40925e-07
-1.71598e-21
1.00887e-21
4.93533e-07
-2.11941e-21
1.22739e-21
5.4825e-07
-2.57272e-21
1.43042e-21
6.05146e-07
-2.83911e-21
1.48088e-21
6.64291e-07
-3.22949e-21
1.70691e-21
7.2576e-07
-3.48499e-21
2.05874e-21
7.89626e-07
-4.07961e-21
2.51533e-21
8.55968e-07
-4.47678e-21
2.74126e-21
9.24863e-07
-4.81605e-21
3.12556e-21
9.96392e-07
-5.08707e-21
3.13239e-21
1.07064e-06
-4.99887e-21
3.17042e-21
1.14768e-06
-5.23621e-21
3.16961e-21
1.22761e-06
-5.26184e-21
3.2661e-21
1.31051e-06
-5.72159e-21
3.51362e-21
1.39646e-06
-6.04069e-21
3.67345e-21
1.48556e-06
-6.20337e-21
3.52174e-21
1.57789e-06
-7.10946e-21
3.88822e-21
1.67352e-06
-8.32904e-21
4.38148e-21
1.77256e-06
-9.20247e-21
4.6694e-21
1.87507e-06
-9.92715e-21
5.0823e-21
1.98115e-06
-1.04887e-20
4.75036e-21
2.09085e-06
-1.07907e-20
4.80587e-21
2.20426e-06
-1.1027e-20
4.83762e-21
2.32144e-06
-1.11948e-20
4.67469e-21
2.44245e-06
-1.18409e-20
4.88096e-21
2.56734e-06
-1.21916e-20
4.66565e-21
2.69615e-06
-1.29509e-20
4.61238e-21
2.82892e-06
-1.35658e-20
4.7361e-21
2.96567e-06
-1.43356e-20
4.64096e-21
3.10643e-06
-1.47757e-20
4.82095e-21
3.25119e-06
-1.50396e-20
4.58374e-21
3.39995e-06
-1.61729e-20
4.2716e-21
3.5527e-06
-1.72332e-20
4.91873e-21
3.70942e-06
-1.81383e-20
4.90874e-21
3.87007e-06
-1.87268e-20
5.58546e-21
4.03461e-06
-1.89347e-20
6.52717e-21
4.20301e-06
-1.97224e-20
6.15354e-21
4.37519e-06
-2.03347e-20
6.69447e-21
4.55112e-06
-2.05982e-20
7.40635e-21
4.73073e-06
-2.21526e-20
7.44841e-21
4.91397e-06
-2.39383e-20
8.29922e-21
5.10077e-06
-2.51827e-20
8.24466e-21
5.29109e-06
-2.63068e-20
8.06627e-21
5.48486e-06
-2.86113e-20
8.21228e-21
5.68204e-06
-2.93993e-20
9.09521e-21
5.88259e-06
-3.02202e-20
8.84471e-21
6.08647e-06
-3.1298e-20
7.64933e-21
6.29364e-06
-3.09592e-20
6.08295e-21
6.50408e-06
-3.19587e-20
5.62134e-21
6.71778e-06
-3.30668e-20
4.51434e-21
6.93471e-06
-3.40086e-20
5.76061e-21
7.15489e-06
-3.49458e-20
4.99979e-21
7.3783e-06
-3.60622e-20
4.77169e-21
7.60495e-06
-3.82559e-20
4.98694e-21
7.83487e-06
-3.97103e-20
4.18655e-21
8.06808e-06
-4.17666e-20
5.28442e-21
8.3046e-06
-4.38169e-20
4.83291e-21
8.54446e-06
-4.62601e-20
5.31291e-21
8.7877e-06
-4.84489e-20
5.5219e-21
9.03436e-06
-4.79416e-20
3.19898e-21
9.2845e-06
-5.05235e-20
2.74679e-21
9.53816e-06
-5.23859e-20
3.16145e-21
9.79539e-06
-5.44063e-20
4.00459e-21
1.00563e-05
-5.52142e-20
3.69688e-21
1.03208e-05
-5.7795e-20
3.39102e-21
1.05892e-05
-6.01841e-20
2.31418e-21
1.08613e-05
-6.13013e-20
1.56675e-21
1.11374e-05
-6.18698e-20
6.57467e-22
1.14174e-05
-6.24174e-20
-1.60661e-23
1.17015e-05
-6.46912e-20
-8.34149e-22
1.19896e-05
-6.66487e-20
-1.12697e-21
1.2282e-05
-6.82623e-20
-2.45195e-21
1.25787e-05
-6.98824e-20
-2.08722e-21
1.28798e-05
-7.15814e-20
-1.75689e-21
1.31853e-05
-7.06272e-20
-6.2349e-21
1.34953e-05
-7.27195e-20
-7.95037e-21
1.38099e-05
-7.40478e-20
-5.29333e-21
1.41293e-05
-7.65019e-20
-1.88268e-21
1.44535e-05
-8.11693e-20
8.29855e-22
1.47826e-05
-8.38276e-20
3.97446e-22
1.51166e-05
-8.68796e-20
5.56375e-22
1.54558e-05
-8.91558e-20
-1.43404e-21
1.58001e-05
-8.95958e-20
6.06902e-22
1.61497e-05
-9.03144e-20
1.82655e-21
1.65048e-05
-9.10604e-20
3.1763e-22
1.68653e-05
-9.29728e-20
-1.318e-21
1.72313e-05
-9.84561e-20
1.28761e-21
1.76031e-05
-1.0444e-19
5.28275e-21
1.79807e-05
-1.01409e-19
7.74771e-21
1.83642e-05
-1.02659e-19
4.05049e-21
1.87537e-05
-1.03507e-19
7.50625e-21
1.91494e-05
-1.05407e-19
4.35575e-21
1.95512e-05
-1.08108e-19
6.93687e-21
1.99595e-05
-1.08571e-19
7.2049e-21
2.03742e-05
-1.09169e-19
8.029e-21
2.07955e-05
-1.1006e-19
9.96682e-21
2.12235e-05
-1.10661e-19
7.62805e-21
2.16583e-05
-1.12647e-19
1.00372e-20
2.21001e-05
-1.14061e-19
8.07074e-21
2.2549e-05
-1.18411e-19
7.74177e-21
2.30051e-05
-1.18108e-19
7.98742e-21
2.34685e-05
-1.19673e-19
6.09686e-21
2.39393e-05
-1.26073e-19
9.7028e-21
2.44178e-05
-1.2843e-19
7.45975e-21
2.4904e-05
-1.30775e-19
2.60508e-21
2.5398e-05
-1.25229e-19
2.70895e-21
2.59001e-05
-1.25922e-19
1.37137e-21
2.64102e-05
-1.24821e-19
-3.00557e-21
2.69287e-05
-1.2701e-19
-3.85946e-21
2.74556e-05
-1.29582e-19
-4.12176e-21
2.79911e-05
-1.29069e-19
-2.93218e-21
2.85353e-05
-1.38276e-19
9.02265e-22
2.90883e-05
-1.41771e-19
2.78568e-21
2.96504e-05
-1.44327e-19
9.42954e-22
3.02217e-05
-1.48228e-19
8.37539e-21
3.08023e-05
-1.47868e-19
1.29785e-20
3.13924e-05
-1.45974e-19
1.07986e-20
3.19921e-05
-1.48642e-19
1.15172e-20
3.26017e-05
-1.60267e-19
1.30219e-20
3.32213e-05
-1.62507e-19
1.15021e-20
3.3851e-05
-1.70535e-19
1.90811e-20
3.44911e-05
-1.67021e-19
1.57349e-20
3.51417e-05
-1.68035e-19
1.06842e-20
3.58029e-05
-1.69561e-19
8.6039e-21
3.64751e-05
-1.72613e-19
1.00703e-20
3.71583e-05
-1.78845e-19
5.07258e-21
3.78527e-05
-1.83072e-19
1.20319e-20
3.85586e-05
-1.84774e-19
1.35393e-20
3.92761e-05
-1.76946e-19
1.44317e-20
4.00054e-05
-1.81447e-19
1.20332e-20
4.07467e-05
-1.76504e-19
4.56979e-21
4.15003e-05
-1.75295e-19
-3.35364e-21
4.22663e-05
-1.73942e-19
-4.17724e-21
4.30449e-05
-1.79259e-19
-5.93828e-21
4.38363e-05
-1.82275e-19
-8.09542e-21
4.46408e-05
-1.90836e-19
-8.97047e-21
4.54586e-05
-1.97128e-19
-1.16256e-20
4.62899e-05
-1.98009e-19
-4.76854e-21
4.71349e-05
-1.98161e-19
-4.74513e-21
4.79939e-05
-2.00533e-19
-4.17342e-21
4.8867e-05
-2.0207e-19
4.69568e-21
4.97546e-05
-2.07748e-19
4.52011e-22
5.06568e-05
-2.1729e-19
-1.28102e-21
5.15739e-05
-2.19769e-19
-2.5716e-21
5.25062e-05
-2.15518e-19
-5.06275e-21
5.34539e-05
-2.15772e-19
-1.42933e-20
5.44173e-05
-2.00564e-19
-1.6509e-20
5.53965e-05
-2.02249e-19
-2.27386e-20
5.6392e-05
-2.05886e-19
-2.82227e-20
5.74038e-05
-2.08058e-19
-3.12326e-20
5.84324e-05
-2.09848e-19
-4.51731e-20
5.94781e-05
-2.36077e-19
-4.3611e-20
6.05409e-05
-2.22689e-19
-5.29096e-20
6.16214e-05
-2.2964e-19
-6.4362e-20
6.27197e-05
-2.24229e-19
-6.83667e-20
6.38361e-05
-2.32089e-19
-7.49e-20
6.4971e-05
-2.29113e-19
-6.81488e-20
6.61246e-05
-2.41301e-19
-5.67528e-20
6.72973e-05
-2.4392e-19
-4.78698e-20
6.84894e-05
-2.34855e-19
-5.9264e-20
6.97011e-05
-2.50144e-19
-5.61345e-20
7.09329e-05
-2.8233e-19
-4.93529e-20
7.2185e-05
-2.83852e-19
-4.95001e-20
7.34577e-05
-2.80761e-19
-5.13668e-20
7.47515e-05
-2.82022e-19
-3.7742e-20
7.60666e-05
-2.71693e-19
-4.43164e-20
7.74035e-05
-2.71817e-19
-4.75724e-20
7.87624e-05
-2.62314e-19
-3.9971e-20
8.01437e-05
-2.68189e-19
-4.05772e-20
8.15478e-05
-2.85307e-19
-2.73382e-20
8.2975e-05
-2.7817e-19
-2.39293e-20
8.44258e-05
-2.70042e-19
-3.70769e-20
8.59006e-05
-2.82296e-19
-2.83116e-20
8.73996e-05
-2.85056e-19
-4.18195e-20
8.89234e-05
-2.95855e-19
-4.24307e-20
9.04722e-05
-3.17209e-19
-4.76312e-20
9.20466e-05
-3.29143e-19
-5.64012e-20
9.36469e-05
-3.24678e-19
-7.06e-20
9.52736e-05
-3.37728e-19
-8.40756e-20
9.6927e-05
-3.42386e-19
-8.18811e-20
9.86077e-05
-3.47076e-19
-8.15855e-20
0.000100316
-3.72666e-19
-7.71446e-20
0.000102053
-3.77584e-19
-7.72498e-20
0.000103818
-3.73603e-19
-7.83229e-20
0.000105612
-3.93139e-19
-7.27539e-20
0.000107435
-3.89004e-19
-6.97359e-20
0.000109289
-3.56632e-19
-7.0996e-20
0.000111173
-3.57867e-19
-7.98702e-20
0.000113088
-3.66342e-19
-8.52179e-20
0.000115034
-3.64861e-19
-6.51983e-20
0.000117012
-3.40806e-19
-7.48131e-20
0.000119023
-3.05723e-19
-9.41439e-20
0.000121067
-3.03265e-19
-9.77691e-20
0.000123145
-3.16104e-19
-9.95786e-20
0.000125256
-3.23279e-19
-1.00823e-19
0.000127402
-3.2743e-19
-9.14448e-20
0.000129583
-3.31274e-19
-1.03219e-19
0.0001318
-3.14451e-19
-1.11261e-19
0.000134054
-3.37016e-19
-1.0261e-19
0.000136344
-3.81653e-19
-9.89338e-20
0.000138672
-3.84405e-19
-1.24826e-19
0.000141038
-3.7716e-19
-1.28605e-19
0.000143442
-4.12937e-19
-1.35948e-19
0.000145886
-4.06944e-19
-1.38885e-19
0.00014837
-3.99424e-19
-1.53512e-19
0.000150894
-3.96255e-19
-1.39774e-19
0.00015346
-4.05461e-19
-1.54785e-19
0.000156068
-4.27869e-19
-1.68198e-19
0.000158718
-4.23667e-19
-1.73603e-19
0.000161411
-4.333e-19
-1.53637e-19
0.000164148
-4.00519e-19
-1.4951e-19
0.00016693
-4.30243e-19
-1.31177e-19
0.000169758
-4.11665e-19
-1.22982e-19
0.000172631
-4.25599e-19
-1.00436e-19
0.000175551
-4.15039e-19
-1.16952e-19
0.000178519
-3.88369e-19
-1.45626e-19
0.000181535
-4.1425e-19
-1.1705e-19
0.000184599
-3.76278e-19
-1.29925e-19
0.000187714
-3.77843e-19
-1.28862e-19
0.00019088
-3.58682e-19
-1.79637e-19
0.000194096
-3.86452e-19
-1.63604e-19
0.000197365
-3.57566e-19
-1.78821e-19
0.000200687
-3.44629e-19
-1.88328e-19
0.000204063
-3.34938e-19
-1.84671e-19
0.000207493
-3.1055e-19
-2.23952e-19
0.000210979
-3.35062e-19
-2.06903e-19
0.000214521
-3.13683e-19
-2.01039e-19
0.000218121
-3.67115e-19
-2.12778e-19
0.000221779
-3.8134e-19
-2.25139e-19
0.000225495
-3.87584e-19
-2.33718e-19
0.000229272
-4.02792e-19
-2.5879e-19
0.00023311
-4.14847e-19
-2.62596e-19