/*--------------------------------*- C++ -*----------------------------------*\
| =========                 |                                                 |
| \\      /  F ield         | OpenFOAM: The Open Source CFD Toolbox           |
|  \\    /   O peration     | Version:  2106                                  |
|   \\  /    A nd           | Website:  www.openfoam.com                      |
|    \\/     M anipulation  |                                                 |
\*---------------------------------------------------------------------------*/
FoamFile
{
    version     2.0;
    format      ascii;
    arch        "LSB;label=32;scalar=64";
    class       volSymmTensorField;
    location    "7000";
    object      turbulenceProperties:R;
}
// * * * * * * * * * * * * * * * * * * * * * * * * * * * * * * * * * * * * * //

dimensions      [0 2 -2 0 0 0 0];

internalField   nonuniform List<symmTensor> 
2560
(
(2.75805e-07 -2.48903e-11 -3.60313e-14 2.75805e-07 5.11047e-27 2.75805e-07)
(2.75805e-07 -2.48903e-11 -3.60313e-14 2.75805e-07 -1.0095e-30 2.75805e-07)
(4.914e-08 -2.54869e-11 -1.11226e-13 4.914e-08 -7.32369e-27 4.914e-08)
(4.914e-08 -2.54869e-11 -1.11226e-13 4.914e-08 4.13467e-30 4.914e-08)
(7.44482e-08 -1.13897e-10 -6.83679e-13 7.44482e-08 -2.22661e-26 7.44482e-08)
(7.44482e-08 -1.13897e-10 -6.83679e-13 7.44482e-08 3.08775e-29 7.44482e-08)
(2.35057e-07 -7.62493e-10 -4.64347e-12 2.35057e-07 -2.79131e-26 2.35057e-07)
(2.35057e-07 -7.62493e-10 -4.64347e-12 2.35057e-07 1.32893e-28 2.35057e-07)
(6.04765e-07 -3.4606e-09 -2.13808e-11 6.04765e-07 -7.87997e-25 6.04765e-07)
(6.04765e-07 -3.4606e-09 -2.13808e-11 6.04765e-07 3.84963e-28 6.04765e-07)
(1.29016e-06 -1.16218e-08 -7.28466e-11 1.29016e-06 -2.44601e-24 1.29016e-06)
(1.29016e-06 -1.16218e-08 -7.28466e-11 1.29016e-06 6.35705e-28 1.29016e-06)
(2.41818e-06 -3.17708e-08 -2.02037e-10 2.41818e-06 -7.32074e-24 2.41818e-06)
(2.41818e-06 -3.17708e-08 -2.02037e-10 2.41818e-06 -3.4864e-29 2.41818e-06)
(4.13447e-06 -7.50333e-08 -4.84083e-10 4.13447e-06 -1.76228e-23 4.13447e-06)
(4.13447e-06 -7.50333e-08 -4.84083e-10 4.13447e-06 -6.19585e-27 4.13447e-06)
(6.60353e-06 -1.58953e-07 -1.04039e-09 6.60353e-06 -3.79536e-23 6.60353e-06)
(6.60353e-06 -1.58953e-07 -1.04039e-09 6.60353e-06 -2.17949e-26 6.60353e-06)
(1.00091e-05 -3.09662e-07 -2.05624e-09 1.00091e-05 -7.51804e-23 1.00091e-05)
(1.00091e-05 -3.09662e-07 -2.05624e-09 1.00091e-05 -5.59228e-26 1.00091e-05)
(1.4555e-05 -5.64411e-07 -3.80223e-09 1.4555e-05 -1.39381e-22 1.4555e-05)
(1.4555e-05 -5.64411e-07 -3.80223e-09 1.4555e-05 -1.59295e-25 1.4555e-05)
(2.04651e-05 -9.74456e-07 -6.65972e-09 2.04651e-05 -2.44674e-22 2.04651e-05)
(2.04651e-05 -9.74456e-07 -6.65972e-09 2.04651e-05 -3.27275e-25 2.04651e-05)
(2.79844e-05 -1.60826e-06 -1.11505e-08 2.79844e-05 -4.10414e-22 2.79844e-05)
(2.79844e-05 -1.60826e-06 -1.11505e-08 2.79844e-05 -5.56247e-25 2.79844e-05)
(3.73782e-05 -2.55492e-06 -1.79701e-08 3.73782e-05 -6.62179e-22 3.73782e-05)
(3.73782e-05 -2.55492e-06 -1.79701e-08 3.73782e-05 -1.00997e-24 3.73782e-05)
(4.89323e-05 -3.9277e-06 -2.80244e-08 4.89323e-05 -1.03244e-21 4.89323e-05)
(4.89323e-05 -3.9277e-06 -2.80244e-08 4.89323e-05 -1.7437e-24 4.89323e-05)
(6.29515e-05 -5.86741e-06 -4.24676e-08 6.29515e-05 -1.56165e-21 6.29515e-05)
(6.29515e-05 -5.86741e-06 -4.24676e-08 6.29515e-05 -3.18184e-24 6.29515e-05)
(7.97581e-05 -8.54541e-06 -6.27395e-08 7.97581e-05 -2.29823e-21 7.97581e-05)
(7.97581e-05 -8.54541e-06 -6.27395e-08 7.97581e-05 -5.30321e-24 7.97581e-05)
(9.96883e-05 -1.21658e-05 -9.05996e-08 9.96883e-05 -3.29729e-21 9.96883e-05)
(9.96883e-05 -1.21658e-05 -9.05996e-08 9.96883e-05 -7.98734e-24 9.96883e-05)
(0.000123089 -1.69662e-05 -1.28153e-07 0.000123089 -4.62359e-21 0.000123089)
(0.000123089 -1.69662e-05 -1.28153e-07 0.000123089 -1.15257e-23 0.000123089)
(0.000150311 -2.32171e-05 -1.77861e-07 0.000150311 -6.34152e-21 0.000150311)
(0.000150311 -2.32171e-05 -1.77861e-07 0.000150311 -1.86886e-23 0.000150311)
(0.000181704 -3.12183e-05 -2.42541e-07 0.000181704 -8.50989e-21 0.000181704)
(0.000181704 -3.12183e-05 -2.42541e-07 0.000181704 -2.97393e-23 0.000181704)
(0.000217605 -4.12929e-05 -3.25331e-07 0.000217605 -1.11813e-20 0.000217605)
(0.000217605 -4.12929e-05 -3.25331e-07 0.000217605 -4.26071e-23 0.000217605)
(0.000258331 -5.37782e-05 -4.29635e-07 0.000258331 -1.43933e-20 0.000258331)
(0.000258331 -5.37782e-05 -4.29635e-07 0.000258331 -5.83237e-23 0.000258331)
(0.000304165 -6.90133e-05 -5.59031e-07 0.000304165 -1.81704e-20 0.000304165)
(0.000304165 -6.90133e-05 -5.59031e-07 0.000304165 -7.2588e-23 0.000304165)
(0.000355347 -8.73235e-05 -7.17152e-07 0.000355347 -2.24755e-20 0.000355347)
(0.000355347 -8.73235e-05 -7.17152e-07 0.000355347 -9.31863e-23 0.000355347)
(0.000412057 -0.000109003 -9.07537e-07 0.000412057 -2.72599e-20 0.000412057)
(0.000412057 -0.000109003 -9.07537e-07 0.000412057 -1.2732e-22 0.000412057)
(0.000474407 -0.000134297 -1.13347e-06 0.000474407 -3.23695e-20 0.000474407)
(0.000474407 -0.000134297 -1.13347e-06 0.000474407 -1.68743e-22 0.000474407)
(0.000542426 -0.000163382 -1.39779e-06 0.000542426 -3.76503e-20 0.000542426)
(0.000542426 -0.000163382 -1.39779e-06 0.000542426 -1.94911e-22 0.000542426)
(0.000616058 -0.000196355 -1.70275e-06 0.000616058 -4.29508e-20 0.000616058)
(0.000616058 -0.000196355 -1.70275e-06 0.000616058 -2.04765e-22 0.000616058)
(0.000695151 -0.000233218 -2.04989e-06 0.000695151 -4.80272e-20 0.000695151)
(0.000695151 -0.000233218 -2.04989e-06 0.000695151 -2.26872e-22 0.000695151)
(0.00077946 -0.000273873 -2.43989e-06 0.00077946 -5.26661e-20 0.00077946)
(0.00077946 -0.000273873 -2.43989e-06 0.00077946 -2.83568e-22 0.00077946)
(0.000868648 -0.000318126 -2.8726e-06 0.000868648 -5.65395e-20 0.000868648)
(0.000868648 -0.000318126 -2.8726e-06 0.000868648 -3.29939e-22 0.000868648)
(0.000962297 -0.000365692 -3.34697e-06 0.000962297 -5.95999e-20 0.000962297)
(0.000962297 -0.000365692 -3.34697e-06 0.000962297 -3.50305e-22 0.000962297)
(0.00105992 -0.000416208 -3.86117e-06 0.00105992 -6.17587e-20 0.00105992)
(0.00105992 -0.000416208 -3.86117e-06 0.00105992 -4.69948e-22 0.00105992)
(0.00116096 -0.000469249 -4.41271e-06 0.00116096 -6.28663e-20 0.00116096)
(0.00116096 -0.000469249 -4.41271e-06 0.00116096 -6.92712e-22 0.00116096)
(0.00126483 -0.000524349 -4.9985e-06 0.00126483 -6.29358e-20 0.00126483)
(0.00126483 -0.000524349 -4.9985e-06 0.00126483 -8.71246e-22 0.00126483)
(0.00137093 -0.000581022 -5.61509e-06 0.00137093 -6.20381e-20 0.00137093)
(0.00137093 -0.000581022 -5.61509e-06 0.00137093 -1.13293e-21 0.00137093)
(0.00147863 -0.00063878 -6.2588e-06 0.00147863 -6.05125e-20 0.00147863)
(0.00147863 -0.00063878 -6.2588e-06 0.00147863 -1.38831e-21 0.00147863)
(0.00158733 -0.000697149 -6.92585e-06 0.00158733 -5.87983e-20 0.00158733)
(0.00158733 -0.000697149 -6.92585e-06 0.00158733 -1.54718e-21 0.00158733)
(0.00169645 -0.000755686 -7.61252e-06 0.00169645 -5.63894e-20 0.00169645)
(0.00169645 -0.000755686 -7.61252e-06 0.00169645 -1.80825e-21 0.00169645)
(0.00180543 -0.000813985 -8.31526e-06 0.00180543 -5.34457e-20 0.00180543)
(0.00180543 -0.000813985 -8.31526e-06 0.00180543 -2.1065e-21 0.00180543)
(0.00191377 -0.000871686 -9.03073e-06 0.00191377 -5.08089e-20 0.00191377)
(0.00191377 -0.000871686 -9.03073e-06 0.00191377 -1.86883e-21 0.00191377)
(0.00202101 -0.00092848 -9.75591e-06 0.00202101 -4.90416e-20 0.00202101)
(0.00202101 -0.00092848 -9.75591e-06 0.00202101 -1.53856e-21 0.00202101)
(0.00212674 -0.000984103 -1.04881e-05 0.00212674 -4.79358e-20 0.00212674)
(0.00212674 -0.000984103 -1.04881e-05 0.00212674 -1.79571e-21 0.00212674)
(0.00223061 -0.00103834 -1.12249e-05 0.00223061 -4.75579e-20 0.00223061)
(0.00223061 -0.00103834 -1.12249e-05 0.00223061 -1.89217e-21 0.00223061)
(0.00233232 -0.00109103 -1.19643e-05 0.00233232 -4.84199e-20 0.00233232)
(0.00233232 -0.00109103 -1.19643e-05 0.00233232 -2.58115e-21 0.00233232)
(0.00243163 -0.00114204 -1.27046e-05 0.00243163 -5.02357e-20 0.00243163)
(0.00243163 -0.00114204 -1.27046e-05 0.00243163 -3.19735e-21 0.00243163)
(0.00252832 -0.00119128 -1.34444e-05 0.00252832 -5.32103e-20 0.00252832)
(0.00252832 -0.00119128 -1.34444e-05 0.00252832 -3.27156e-21 0.00252832)
(0.00262224 -0.00123868 -1.41825e-05 0.00262224 -5.79049e-20 0.00262224)
(0.00262224 -0.00123868 -1.41825e-05 0.00262224 -3.54194e-21 0.00262224)
(0.00271327 -0.00128422 -1.49181e-05 0.00271327 -6.4418e-20 0.00271327)
(0.00271327 -0.00128422 -1.49181e-05 0.00271327 -4.13343e-21 0.00271327)
(0.00280133 -0.00132789 -1.56504e-05 0.00280133 -7.23777e-20 0.00280133)
(0.00280133 -0.00132789 -1.56504e-05 0.00280133 -4.59492e-21 0.00280133)
(0.00288635 -0.00136968 -1.6379e-05 0.00288635 -8.15411e-20 0.00288635)
(0.00288635 -0.00136968 -1.6379e-05 0.00288635 -4.27035e-21 0.00288635)
(0.00296833 -0.00140963 -1.71035e-05 0.00296833 -9.20091e-20 0.00296833)
(0.00296833 -0.00140963 -1.71035e-05 0.00296833 -4.34118e-21 0.00296833)
(0.00304724 -0.00144777 -1.78236e-05 0.00304724 -1.04211e-19 0.00304724)
(0.00304724 -0.00144777 -1.78236e-05 0.00304724 -4.95007e-21 0.00304724)
(0.00312311 -0.00148414 -1.85394e-05 0.00312311 -1.18412e-19 0.00312311)
(0.00312311 -0.00148414 -1.85394e-05 0.00312311 -6.43195e-21 0.00312311)
(0.00319597 -0.00151879 -1.92509e-05 0.00319597 -1.33396e-19 0.00319597)
(0.00319597 -0.00151879 -1.92509e-05 0.00319597 -7.84915e-21 0.00319597)
(0.00326587 -0.00155178 -1.99579e-05 0.00326587 -1.4941e-19 0.00326587)
(0.00326587 -0.00155178 -1.99579e-05 0.00326587 -8.99654e-21 0.00326587)
(0.00333285 -0.00158316 -2.06608e-05 0.00333285 -1.68232e-19 0.00333285)
(0.00333285 -0.00158316 -2.06608e-05 0.00333285 -9.96942e-21 0.00333285)
(0.00339699 -0.00161299 -2.13597e-05 0.00339699 -1.88843e-19 0.00339699)
(0.00339699 -0.00161299 -2.13597e-05 0.00339699 -9.75802e-21 0.00339699)
(0.00345835 -0.00164134 -2.20548e-05 0.00345835 -2.10069e-19 0.00345835)
(0.00345835 -0.00164134 -2.20548e-05 0.00345835 -9.52499e-21 0.00345835)
(0.00351701 -0.00166826 -2.27463e-05 0.00351701 -2.33507e-19 0.00351701)
(0.00351701 -0.00166826 -2.27463e-05 0.00351701 -1.03939e-20 0.00351701)
(0.00357305 -0.00169381 -2.34346e-05 0.00357305 -2.58328e-19 0.00357305)
(0.00357305 -0.00169381 -2.34346e-05 0.00357305 -9.51452e-21 0.00357305)
(0.00362655 -0.00171805 -2.41198e-05 0.00362655 -2.83198e-19 0.00362655)
(0.00362655 -0.00171805 -2.41198e-05 0.00362655 -7.84633e-21 0.00362655)
(0.00367759 -0.00174104 -2.48023e-05 0.00367759 -3.09088e-19 0.00367759)
(0.00367759 -0.00174104 -2.48023e-05 0.00367759 -9.61976e-21 0.00367759)
(0.00372625 -0.00176284 -2.54824e-05 0.00372625 -3.36452e-19 0.00372625)
(0.00372625 -0.00176284 -2.54824e-05 0.00372625 -9.4777e-21 0.00372625)
(0.00377261 -0.00178349 -2.61604e-05 0.00377261 -3.65868e-19 0.00377261)
(0.00377261 -0.00178349 -2.61604e-05 0.00377261 -4.49486e-21 0.00377261)
(0.00381676 -0.00180306 -2.68365e-05 0.00381676 -3.94663e-19 0.00381676)
(0.00381676 -0.00180306 -2.68365e-05 0.00381676 -2.03821e-21 0.00381676)
(0.00385878 -0.00182158 -2.75111e-05 0.00385878 -4.25465e-19 0.00385878)
(0.00385878 -0.00182158 -2.75111e-05 0.00385878 -4.81118e-21 0.00385878)
(0.00389874 -0.00183911 -2.81845e-05 0.00389874 -4.54287e-19 0.00389874)
(0.00389874 -0.00183911 -2.81845e-05 0.00389874 -6.32598e-21 0.00389874)
(0.00393672 -0.00185569 -2.88568e-05 0.00393672 -4.84297e-19 0.00393672)
(0.00393672 -0.00185569 -2.88568e-05 0.00393672 -8.75852e-22 0.00393672)
(0.0039728 -0.00187136 -2.95285e-05 0.0039728 -5.21016e-19 0.0039728)
(0.0039728 -0.00187136 -2.95285e-05 0.0039728 2.78489e-21 0.0039728)
(0.00400704 -0.00188617 -3.01998e-05 0.00400704 -5.59983e-19 0.00400704)
(0.00400704 -0.00188617 -3.01998e-05 0.00400704 4.30073e-21 0.00400704)
(0.00403952 -0.00190015 -3.08708e-05 0.00403952 -5.96311e-19 0.00403952)
(0.00403952 -0.00190015 -3.08708e-05 0.00403952 6.72327e-21 0.00403952)
(0.0040703 -0.00191334 -3.1542e-05 0.0040703 -6.28747e-19 0.0040703)
(0.0040703 -0.00191334 -3.1542e-05 0.0040703 5.80438e-21 0.0040703)
(0.00409944 -0.00192578 -3.22135e-05 0.00409944 -6.67172e-19 0.00409944)
(0.00409944 -0.00192578 -3.22135e-05 0.00409944 8.28603e-21 0.00409944)
(0.00412702 -0.00193749 -3.28856e-05 0.00412702 -7.06707e-19 0.00412702)
(0.00412702 -0.00193749 -3.28856e-05 0.00412702 1.40376e-20 0.00412702)
(0.00415309 -0.00194852 -3.35585e-05 0.00415309 -7.47294e-19 0.00415309)
(0.00415309 -0.00194852 -3.35585e-05 0.00415309 1.62472e-20 0.00415309)
(0.0041777 -0.00195888 -3.42324e-05 0.0041777 -7.88554e-19 0.0041777)
(0.0041777 -0.00195888 -3.42324e-05 0.0041777 2.07292e-20 0.0041777)
(0.00420092 -0.00196862 -3.49075e-05 0.00420092 -8.25426e-19 0.00420092)
(0.00420092 -0.00196862 -3.49075e-05 0.00420092 2.9768e-20 0.00420092)
(0.0042228 -0.00197774 -3.55841e-05 0.0042228 -8.7297e-19 0.0042228)
(0.0042228 -0.00197774 -3.55841e-05 0.0042228 2.97395e-20 0.0042228)
(0.00424337 -0.00198629 -3.62623e-05 0.00424337 -9.06102e-19 0.00424337)
(0.00424337 -0.00198629 -3.62623e-05 0.00424337 3.51682e-20 0.00424337)
(0.00426271 -0.00199428 -3.69424e-05 0.00426271 -9.42788e-19 0.00426271)
(0.00426271 -0.00199428 -3.69424e-05 0.00426271 4.62431e-20 0.00426271)
(0.00428084 -0.00200174 -3.76244e-05 0.00428084 -9.87193e-19 0.00428084)
(0.00428084 -0.00200174 -3.76244e-05 0.00428084 3.83267e-20 0.00428084)
(0.00429782 -0.00200868 -3.83086e-05 0.00429782 -1.02212e-18 0.00429782)
(0.00429782 -0.00200868 -3.83086e-05 0.00429782 3.29019e-20 0.00429782)
(0.00431369 -0.00201514 -3.89952e-05 0.00431369 -1.05965e-18 0.00431369)
(0.00431369 -0.00201514 -3.89952e-05 0.00431369 4.53223e-20 0.00431369)
(0.00432849 -0.00202112 -3.96843e-05 0.00432849 -1.10219e-18 0.00432849)
(0.00432849 -0.00202112 -3.96843e-05 0.00432849 5.51267e-20 0.00432849)
(0.00434225 -0.00202665 -4.03761e-05 0.00434225 -1.15533e-18 0.00434225)
(0.00434225 -0.00202665 -4.03761e-05 0.00434225 6.62075e-20 0.00434225)
(0.00435502 -0.00203175 -4.10708e-05 0.00435502 -1.20301e-18 0.00435502)
(0.00435502 -0.00203175 -4.10708e-05 0.00435502 5.65677e-20 0.00435502)
(0.00436683 -0.00203642 -4.17684e-05 0.00436683 -1.24709e-18 0.00436683)
(0.00436683 -0.00203642 -4.17684e-05 0.00436683 3.21973e-20 0.00436683)
(0.00437771 -0.0020407 -4.24691e-05 0.00437771 -1.30257e-18 0.00437771)
(0.00437771 -0.0020407 -4.24691e-05 0.00437771 3.78522e-20 0.00437771)
(0.0043877 -0.00204458 -4.31731e-05 0.0043877 -1.34512e-18 0.0043877)
(0.0043877 -0.00204458 -4.31731e-05 0.0043877 5.63074e-20 0.0043877)
(0.00439683 -0.00204809 -4.38806e-05 0.00439683 -1.39726e-18 0.00439683)
(0.00439683 -0.00204809 -4.38806e-05 0.00439683 5.70207e-20 0.00439683)
(0.00440512 -0.00205125 -4.45915e-05 0.00440512 -1.44824e-18 0.00440512)
(0.00440512 -0.00205125 -4.45915e-05 0.00440512 5.08184e-20 0.00440512)
(0.00441262 -0.00205405 -4.53061e-05 0.00441262 -1.49598e-18 0.00441262)
(0.00441262 -0.00205405 -4.53061e-05 0.00441262 6.71553e-20 0.00441262)
(0.00441933 -0.00205652 -4.60245e-05 0.00441933 -1.56325e-18 0.00441933)
(0.00441933 -0.00205652 -4.60245e-05 0.00441933 8.86766e-20 0.00441933)
(0.0044253 -0.00205867 -4.67467e-05 0.0044253 -1.62465e-18 0.0044253)
(0.0044253 -0.00205867 -4.67467e-05 0.0044253 8.26365e-20 0.0044253)
(0.00443054 -0.00206051 -4.7473e-05 0.00443054 -1.65643e-18 0.00443054)
(0.00443054 -0.00206051 -4.7473e-05 0.00443054 7.11011e-20 0.00443054)
(0.00443509 -0.00206205 -4.82034e-05 0.00443509 -1.70863e-18 0.00443509)
(0.00443509 -0.00206205 -4.82034e-05 0.00443509 1.0104e-19 0.00443509)
(0.00443895 -0.0020633 -4.8938e-05 0.00443895 -1.78575e-18 0.00443895)
(0.00443895 -0.0020633 -4.8938e-05 0.00443895 1.26597e-19 0.00443895)
(0.00444216 -0.00206427 -4.9677e-05 0.00444216 -1.85512e-18 0.00444216)
(0.00444216 -0.00206427 -4.9677e-05 0.00444216 1.17064e-19 0.00444216)
(0.00444474 -0.00206496 -5.04204e-05 0.00444474 -1.91876e-18 0.00444474)
(0.00444474 -0.00206496 -5.04204e-05 0.00444474 1.2828e-19 0.00444474)
(0.0044467 -0.0020654 -5.11683e-05 0.0044467 -1.97373e-18 0.0044467)
(0.0044467 -0.0020654 -5.11683e-05 0.0044467 1.41547e-19 0.0044467)
(0.00444807 -0.00206558 -5.19209e-05 0.00444807 -2.05424e-18 0.00444807)
(0.00444807 -0.00206558 -5.19209e-05 0.00444807 1.42914e-19 0.00444807)
(0.00444886 -0.00206552 -5.26782e-05 0.00444886 -2.13651e-18 0.00444886)
(0.00444886 -0.00206552 -5.26782e-05 0.00444886 1.49211e-19 0.00444886)
(0.0044491 -0.00206523 -5.34404e-05 0.0044491 -2.20989e-18 0.0044491)
(0.0044491 -0.00206523 -5.34404e-05 0.0044491 1.78601e-19 0.0044491)
(0.0044488 -0.0020647 -5.42075e-05 0.0044488 -2.28642e-18 0.0044488)
(0.0044488 -0.0020647 -5.42075e-05 0.0044488 2.11329e-19 0.0044488)
(0.00444798 -0.00206395 -5.49796e-05 0.00444798 -2.34217e-18 0.00444798)
(0.00444798 -0.00206395 -5.49796e-05 0.00444798 2.3033e-19 0.00444798)
(0.00444665 -0.00206299 -5.57567e-05 0.00444665 -2.41296e-18 0.00444665)
(0.00444665 -0.00206299 -5.57567e-05 0.00444665 2.66872e-19 0.00444665)
(0.00444482 -0.00206182 -5.65391e-05 0.00444482 -2.50626e-18 0.00444482)
(0.00444482 -0.00206182 -5.65391e-05 0.00444482 3.12687e-19 0.00444482)
(0.00444253 -0.00206045 -5.73268e-05 0.00444253 -2.56841e-18 0.00444253)
(0.00444253 -0.00206045 -5.73268e-05 0.00444253 3.2734e-19 0.00444253)
(0.00443977 -0.00205888 -5.81198e-05 0.00443977 -2.63393e-18 0.00443977)
(0.00443977 -0.00205888 -5.81198e-05 0.00443977 3.53795e-19 0.00443977)
(0.00443656 -0.00205713 -5.89182e-05 0.00443656 -2.68654e-18 0.00443656)
(0.00443656 -0.00205713 -5.89182e-05 0.00443656 3.9112e-19 0.00443656)
(0.00443292 -0.00205519 -5.97221e-05 0.00443292 -2.69825e-18 0.00443292)
(0.00443292 -0.00205519 -5.97221e-05 0.00443292 4.05178e-19 0.00443292)
(0.00442885 -0.00205307 -6.05317e-05 0.00442885 -2.85834e-18 0.00442885)
(0.00442885 -0.00205307 -6.05317e-05 0.00442885 4.23349e-19 0.00442885)
(0.00442438 -0.00205078 -6.13469e-05 0.00442438 -2.87521e-18 0.00442438)
(0.00442438 -0.00205078 -6.13469e-05 0.00442438 4.70759e-19 0.00442438)
(0.00441951 -0.00204833 -6.21679e-05 0.00441951 -2.95924e-18 0.00441951)
(0.00441951 -0.00204833 -6.21679e-05 0.00441951 4.97737e-19 0.00441951)
(0.00441426 -0.00204571 -6.29947e-05 0.00441426 -2.99689e-18 0.00441426)
(0.00441426 -0.00204571 -6.29947e-05 0.00441426 4.95495e-19 0.00441426)
(0.00440863 -0.00204294 -6.38274e-05 0.00440863 -3.06461e-18 0.00440863)
(0.00440863 -0.00204294 -6.38274e-05 0.00440863 5.24911e-19 0.00440863)
(0.00440263 -0.00204001 -6.4666e-05 0.00440263 -3.15797e-18 0.00440263)
(0.00440263 -0.00204001 -6.4666e-05 0.00440263 5.66958e-19 0.00440263)
(0.00439629 -0.00203693 -6.55107e-05 0.00439629 -3.23545e-18 0.00439629)
(0.00439629 -0.00203693 -6.55107e-05 0.00439629 6.28822e-19 0.00439629)
(0.0043896 -0.00203372 -6.63616e-05 0.0043896 -3.32388e-18 0.0043896)
(0.0043896 -0.00203372 -6.63616e-05 0.0043896 6.53982e-19 0.0043896)
(0.00438257 -0.00203036 -6.72186e-05 0.00438257 -3.4156e-18 0.00438257)
(0.00438257 -0.00203036 -6.72186e-05 0.00438257 6.76236e-19 0.00438257)
(0.00437523 -0.00202686 -6.80819e-05 0.00437523 -3.503e-18 0.00437523)
(0.00437523 -0.00202686 -6.80819e-05 0.00437523 7.10375e-19 0.00437523)
(0.00436757 -0.00202324 -6.89515e-05 0.00436757 -3.56906e-18 0.00436757)
(0.00436757 -0.00202324 -6.89515e-05 0.00436757 7.57932e-19 0.00436757)
(0.0043596 -0.00201949 -6.98275e-05 0.0043596 -3.74596e-18 0.0043596)
(0.0043596 -0.00201949 -6.98275e-05 0.0043596 8.61407e-19 0.0043596)
(0.00435134 -0.00201561 -7.071e-05 0.00435134 -3.91818e-18 0.00435134)
(0.00435134 -0.00201561 -7.071e-05 0.00435134 9.82548e-19 0.00435134)
(0.00434279 -0.00201161 -7.1599e-05 0.00434279 -3.96639e-18 0.00434279)
(0.00434279 -0.00201161 -7.1599e-05 0.00434279 1.04604e-18 0.00434279)
(0.00433395 -0.0020075 -7.24946e-05 0.00433395 -4.05421e-18 0.00433395)
(0.00433395 -0.0020075 -7.24946e-05 0.00433395 1.05702e-18 0.00433395)
(0.00432485 -0.00200327 -7.33968e-05 0.00432485 -4.09446e-18 0.00432485)
(0.00432485 -0.00200327 -7.33968e-05 0.00432485 1.15115e-18 0.00432485)
(0.00431548 -0.00199893 -7.43058e-05 0.00431548 -4.13005e-18 0.00431548)
(0.00431548 -0.00199893 -7.43058e-05 0.00431548 1.22021e-18 0.00431548)
(0.00430585 -0.00199449 -7.52216e-05 0.00430585 -4.27737e-18 0.00430585)
(0.00430585 -0.00199449 -7.52216e-05 0.00430585 1.167e-18 0.00430585)
(0.00429597 -0.00198994 -7.61442e-05 0.00429597 -4.35569e-18 0.00429597)
(0.00429597 -0.00198994 -7.61442e-05 0.00429597 1.24559e-18 0.00429597)
(0.00428584 -0.00198529 -7.70738e-05 0.00428584 -4.39993e-18 0.00428584)
(0.00428584 -0.00198529 -7.70738e-05 0.00428584 1.3822e-18 0.00428584)
(0.00427548 -0.00198054 -7.80103e-05 0.00427548 -4.4794e-18 0.00427548)
(0.00427548 -0.00198054 -7.80103e-05 0.00427548 1.19374e-18 0.00427548)
(0.00426489 -0.0019757 -7.89539e-05 0.00426489 -4.57147e-18 0.00426489)
(0.00426489 -0.0019757 -7.89539e-05 0.00426489 1.30474e-18 0.00426489)
(0.00425407 -0.00197076 -7.99046e-05 0.00425407 -4.71678e-18 0.00425407)
(0.00425407 -0.00197076 -7.99046e-05 0.00425407 1.52444e-18 0.00425407)
(0.00424304 -0.00196573 -8.08624e-05 0.00424304 -4.84721e-18 0.00424304)
(0.00424304 -0.00196573 -8.08624e-05 0.00424304 1.3147e-18 0.00424304)
(0.00423179 -0.00196061 -8.18275e-05 0.00423179 -4.98333e-18 0.00423179)
(0.00423179 -0.00196061 -8.18275e-05 0.00423179 1.36057e-18 0.00423179)
(0.00422034 -0.00195541 -8.27998e-05 0.00422034 -5.04924e-18 0.00422034)
(0.00422034 -0.00195541 -8.27998e-05 0.00422034 1.55429e-18 0.00422034)
(0.00420869 -0.00195013 -8.37795e-05 0.00420869 -5.10812e-18 0.00420869)
(0.00420869 -0.00195013 -8.37795e-05 0.00420869 1.69776e-18 0.00420869)
(0.00419684 -0.00194476 -8.47665e-05 0.00419684 -3.7338e-18 0.00419684)
(0.00419684 -0.00194476 -8.47665e-05 0.00419684 1.63721e-18 0.00419684)
(0.0041848 -0.00193932 -8.5761e-05 0.0041848 2.43647e-19 0.0041848)
(0.0041848 -0.00193932 -8.5761e-05 0.0041848 1.56023e-18 0.0041848)
(0.00417257 -0.0019338 -8.67631e-05 0.00417257 8.90304e-19 0.00417257)
(0.00417257 -0.0019338 -8.67631e-05 0.00417257 1.81415e-18 0.00417257)
(0.00416017 -0.00192821 -8.77726e-05 0.00416017 8.76938e-19 0.00416017)
(0.00416017 -0.00192821 -8.77726e-05 0.00416017 1.91881e-18 0.00416017)
(0.00414759 -0.00192254 -8.87898e-05 0.00414759 8.24271e-19 0.00414759)
(0.00414759 -0.00192254 -8.87898e-05 0.00414759 1.877e-18 0.00414759)
(0.00413485 -0.00191681 -8.98147e-05 0.00413485 8.04891e-19 0.00413485)
(0.00413485 -0.00191681 -8.98147e-05 0.00413485 2.16769e-18 0.00413485)
(0.00412193 -0.001911 -9.08473e-05 0.00412193 9.95534e-19 0.00412193)
(0.00412193 -0.001911 -9.08473e-05 0.00412193 2.28218e-18 0.00412193)
(0.00410886 -0.00190513 -9.18877e-05 0.00410886 9.69688e-19 0.00410886)
(0.00410886 -0.00190513 -9.18877e-05 0.00410886 2.25474e-18 0.00410886)
(0.00409563 -0.0018992 -9.29358e-05 0.00409563 8.03909e-19 0.00409563)
(0.00409563 -0.0018992 -9.29358e-05 0.00409563 2.36671e-18 0.00409563)
(0.00408225 -0.0018932 -9.39919e-05 0.00408225 8.48262e-19 0.00408225)
(0.00408225 -0.0018932 -9.39919e-05 0.00408225 2.54319e-18 0.00408225)
(0.00406872 -0.00188714 -9.50559e-05 0.00406872 8.81046e-19 0.00406872)
(0.00406872 -0.00188714 -9.50559e-05 0.00406872 2.57126e-18 0.00406872)
(0.00405504 -0.00188102 -9.61278e-05 0.00405504 9.92457e-19 0.00405504)
(0.00405504 -0.00188102 -9.61278e-05 0.00405504 2.59659e-18 0.00405504)
(0.00404123 -0.00187485 -9.72078e-05 0.00404123 1.28259e-18 0.00404123)
(0.00404123 -0.00187485 -9.72078e-05 0.00404123 2.809e-18 0.00404123)
(0.00402728 -0.00186862 -9.82958e-05 0.00402728 1.17994e-18 0.00402728)
(0.00402728 -0.00186862 -9.82958e-05 0.00402728 2.99466e-18 0.00402728)
(0.0040132 -0.00186233 -9.93919e-05 0.0040132 1.05863e-18 0.0040132)
(0.0040132 -0.00186233 -9.93919e-05 0.0040132 3.15285e-18 0.0040132)
(0.00399899 -0.00185599 -0.000100496 0.00399899 1.31473e-18 0.00399899)
(0.00399899 -0.00185599 -0.000100496 0.00399899 3.35267e-18 0.00399899)
(0.00398465 -0.0018496 -0.000101609 0.00398465 1.40057e-18 0.00398465)
(0.00398465 -0.0018496 -0.000101609 0.00398465 3.33489e-18 0.00398465)
(0.00397019 -0.00184316 -0.000102729 0.00397019 1.3149e-18 0.00397019)
(0.00397019 -0.00184316 -0.000102729 0.00397019 3.35685e-18 0.00397019)
(0.00395562 -0.00183666 -0.000103858 0.00395562 1.50024e-18 0.00395562)
(0.00395562 -0.00183666 -0.000103858 0.00395562 3.82914e-18 0.00395562)
(0.00394092 -0.00183013 -0.000104995 0.00394092 1.55167e-18 0.00394092)
(0.00394092 -0.00183013 -0.000104995 0.00394092 4.1715e-18 0.00394092)
(0.00392612 -0.00182354 -0.000106141 0.00392612 9.52443e-19 0.00392612)
(0.00392612 -0.00182354 -0.000106141 0.00392612 4.16507e-18 0.00392612)
(0.00391121 -0.00181691 -0.000107295 0.00391121 5.30998e-19 0.00391121)
(0.00391121 -0.00181691 -0.000107295 0.00391121 4.40708e-18 0.00391121)
(0.00389619 -0.00181023 -0.000108457 0.00389619 1.44143e-18 0.00389619)
(0.00389619 -0.00181023 -0.000108457 0.00389619 4.80338e-18 0.00389619)
(0.00388107 -0.00180351 -0.000109628 0.00388107 1.08157e-18 0.00388107)
(0.00388107 -0.00180351 -0.000109628 0.00388107 4.85702e-18 0.00388107)
(0.00386584 -0.00179675 -0.000110807 0.00386584 7.29279e-19 0.00386584)
(0.00386584 -0.00179675 -0.000110807 0.00386584 5.07467e-18 0.00386584)
(0.00385052 -0.00178995 -0.000111995 0.00385052 9.63467e-19 0.00385052)
(0.00385052 -0.00178995 -0.000111995 0.00385052 5.44341e-18 0.00385052)
(0.0038351 -0.00178311 -0.000113191 0.0038351 5.41502e-19 0.0038351)
(0.0038351 -0.00178311 -0.000113191 0.0038351 5.45644e-18 0.0038351)
(0.0038196 -0.00177623 -0.000114396 0.0038196 1.93935e-19 0.0038196)
(0.0038196 -0.00177623 -0.000114396 0.0038196 5.7815e-18 0.0038196)
(0.003804 -0.00176931 -0.000115609 0.003804 2.03167e-19 0.003804)
(0.003804 -0.00176931 -0.000115609 0.003804 6.00114e-18 0.003804)
(0.00378831 -0.00176235 -0.000116831 0.00378831 1.70695e-19 0.00378831)
(0.00378831 -0.00176235 -0.000116831 0.00378831 5.91377e-18 0.00378831)
(0.00377254 -0.00175535 -0.000118061 0.00377254 2.91113e-19 0.00377254)
(0.00377254 -0.00175535 -0.000118061 0.00377254 6.34906e-18 0.00377254)
(0.00375668 -0.00174832 -0.0001193 0.00375668 4.39574e-19 0.00375668)
(0.00375668 -0.00174832 -0.0001193 0.00375668 6.76904e-18 0.00375668)
(0.00374075 -0.00174126 -0.000120547 0.00374075 -1.5015e-19 0.00374075)
(0.00374075 -0.00174126 -0.000120547 0.00374075 6.61646e-18 0.00374075)
(0.00372473 -0.00173416 -0.000121804 0.00372473 -1.00812e-18 0.00372473)
(0.00372473 -0.00173416 -0.000121804 0.00372473 7.33031e-18 0.00372473)
(0.00370864 -0.00172703 -0.000123068 0.00370864 -1.14934e-18 0.00370864)
(0.00370864 -0.00172703 -0.000123068 0.00370864 8.40936e-18 0.00370864)
(0.00369247 -0.00171986 -0.000124341 0.00369247 -5.27683e-19 0.00369247)
(0.00369247 -0.00171986 -0.000124341 0.00369247 8.4873e-18 0.00369247)
(0.00367623 -0.00171266 -0.000125623 0.00367623 3.46995e-19 0.00367623)
(0.00367623 -0.00171266 -0.000125623 0.00367623 7.9306e-18 0.00367623)
(0.00365991 -0.00170543 -0.000126914 0.00365991 -1.41934e-19 0.00365991)
(0.00365991 -0.00170543 -0.000126914 0.00365991 7.50192e-18 0.00365991)
(0.00364353 -0.00169817 -0.000128213 0.00364353 -2.53249e-19 0.00364353)
(0.00364353 -0.00169817 -0.000128213 0.00364353 8.07218e-18 0.00364353)
(0.00362708 -0.00169088 -0.00012952 0.00362708 -1.45453e-19 0.00362708)
(0.00362708 -0.00169088 -0.00012952 0.00362708 8.89193e-18 0.00362708)
(0.00361056 -0.00168356 -0.000130836 0.00361056 -1.26159e-19 0.00361056)
(0.00361056 -0.00168356 -0.000130836 0.00361056 9.2548e-18 0.00361056)
(0.00359398 -0.00167621 -0.00013216 0.00359398 4.6465e-20 0.00359398)
(0.00359398 -0.00167621 -0.00013216 0.00359398 9.50836e-18 0.00359398)
(0.00357734 -0.00166882 -0.000133493 0.00357734 3.89807e-19 0.00357734)
(0.00357734 -0.00166882 -0.000133493 0.00357734 9.45333e-18 0.00357734)
(0.00356063 -0.00166141 -0.000134835 0.00356063 2.61943e-19 0.00356063)
(0.00356063 -0.00166141 -0.000134835 0.00356063 9.49307e-18 0.00356063)
(0.00354386 -0.00165397 -0.000136184 0.00354386 7.88502e-19 0.00354386)
(0.00354386 -0.00165397 -0.000136184 0.00354386 1.02149e-17 0.00354386)
(0.00352703 -0.00164651 -0.000137542 0.00352703 9.87936e-19 0.00352703)
(0.00352703 -0.00164651 -0.000137542 0.00352703 1.07518e-17 0.00352703)
(0.00351014 -0.00163901 -0.000138908 0.00351014 9.32754e-19 0.00351014)
(0.00351014 -0.00163901 -0.000138908 0.00351014 1.05845e-17 0.00351014)
(0.0034932 -0.00163149 -0.000140283 0.0034932 1.46452e-18 0.0034932)
(0.0034932 -0.00163149 -0.000140283 0.0034932 1.08919e-17 0.0034932)
(0.00347619 -0.00162394 -0.000141665 0.00347619 1.61092e-18 0.00347619)
(0.00347619 -0.00162394 -0.000141665 0.00347619 1.1134e-17 0.00347619)
(0.00345914 -0.00161636 -0.000143056 0.00345914 2.20033e-18 0.00345914)
(0.00345914 -0.00161636 -0.000143056 0.00345914 1.11305e-17 0.00345914)
(0.00344203 -0.00160875 -0.000144455 0.00344203 2.39528e-18 0.00344203)
(0.00344203 -0.00160875 -0.000144455 0.00344203 1.17113e-17 0.00344203)
(0.00342486 -0.00160112 -0.000145861 0.00342486 2.06154e-18 0.00342486)
(0.00342486 -0.00160112 -0.000145861 0.00342486 1.21674e-17 0.00342486)
(0.00340764 -0.00159346 -0.000147275 0.00340764 2.28547e-18 0.00340764)
(0.00340764 -0.00159346 -0.000147275 0.00340764 1.22615e-17 0.00340764)
(0.00339037 -0.00158577 -0.000148697 0.00339037 2.40169e-18 0.00339037)
(0.00339037 -0.00158577 -0.000148697 0.00339037 1.27151e-17 0.00339037)
(0.00337305 -0.00157806 -0.000150127 0.00337305 3.02735e-18 0.00337305)
(0.00337305 -0.00157806 -0.000150127 0.00337305 1.33064e-17 0.00337305)
(0.00335568 -0.00157032 -0.000151564 0.00335568 3.66447e-18 0.00335568)
(0.00335568 -0.00157032 -0.000151564 0.00335568 1.36723e-17 0.00335568)
(0.00333825 -0.00156255 -0.000153008 0.00333825 2.47444e-18 0.00333825)
(0.00333825 -0.00156255 -0.000153008 0.00333825 1.28323e-17 0.00333825)
(0.00332078 -0.00155475 -0.00015446 0.00332078 2.10509e-18 0.00332078)
(0.00332078 -0.00155475 -0.00015446 0.00332078 1.32719e-17 0.00332078)
(0.00330326 -0.00154693 -0.000155919 0.00330326 4.5091e-18 0.00330326)
(0.00330326 -0.00154693 -0.000155919 0.00330326 1.4798e-17 0.00330326)
(0.00328568 -0.00153908 -0.000157384 0.00328568 5.0171e-18 0.00328568)
(0.00328568 -0.00153908 -0.000157384 0.00328568 1.45223e-17 0.00328568)