/*--------------------------------*- C++ -*----------------------------------*\
| =========                 |                                                 |
| \\      /  F ield         | OpenFOAM: The Open Source CFD Toolbox           |
|  \\    /   O peration     | Version:  2012                                  |
|   \\  /    A nd           | Website:  www.openfoam.com                      |
|    \\/     M anipulation  |                                                 |
\*---------------------------------------------------------------------------*/
FoamFile
{
    version     2.0;
    format      ascii;
    class       volTensorField;
    location    "10800";
    object      grad(U);
}
// * * * * * * * * * * * * * * * * * * * * * * * * * * * * * * * * * * * * * //

dimensions      [0 0 -1 0 0 0 0];


internalField   nonuniform List<tensor> 
2560
(
(-1.4629e-16 0 7.00412e-18 686.683 -6.77626e-21 0.000408899 0.994992 7.97944e-08 1.93173e-07)
(0 -5.23174e-23 -2.01155e-17 686.683 0.000119478 0.000584373 0.994992 1.79359e-07 7.87235e-07)
(0 0 2.75027e-22 685.282 0.000129196 0.000105386 2.99541 3.89809e-07 2.97348e-07)
(0 0 3.60387e-22 685.282 0.000102938 2.05909e-05 2.99541 5.24466e-07 6.04785e-08)
(-1.27687e-16 2.15578e-18 0 683.833 4.37287e-05 -8.41732e-06 4.10064 1.30305e-07 3.03307e-07)
(0 0 -4.70198e-38 683.833 2.44383e-05 -2.618e-24 4.10064 7.28227e-08 2.11758e-22)
(1.526e-15 8.88945e-18 -2.672e-22 682.306 -7.05053e-07 -5.46797e-05 4.15068 2.13151e-09 2.95952e-07)
(-1.12072e-15 0 2.672e-22 682.306 -3.55862e-05 -7.49335e-05 4.15068 1.07584e-07 2.26538e-07)
(1.10465e-15 6.58425e-23 2.6337e-22 680.673 -0.000153509 -9.99172e-05 4.20058 3.58963e-07 2.60129e-07)
(0 0 2.6337e-22 680.673 -0.000147104 -0.000147038 4.20058 3.67086e-07 7.62945e-07)
(9.70935e-16 0 0 678.924 -0.000108189 -0.000102753 4.25034 -1.27894e-07 2.0754e-07)
(7.76748e-15 0 0 678.924 -0.000105344 -0.000150812 4.25034 -1.1146e-07 6.38816e-07)
(-1.25895e-15 -7.56806e-19 0 677.08 -1.0167e-20 -7.19106e-05 4.30017 0 1.66228e-07)
(5.03578e-15 -1.40283e-22 0 677.08 -7.12048e-06 -0.000106318 4.30017 -2.24793e-08 4.24798e-07)
(-1.55035e-15 1.2838e-23 0 675.189 2.051e-05 -4.0379e-05 4.35044 -1.33037e-07 1.44636e-07)
(6.20142e-15 -3.42349e-23 0 675.189 2.13989e-05 -6.13838e-05 4.35044 -1.40464e-07 2.94618e-07)
(6.01582e-15 -4.03139e-24 6.21481e-23 673.313 1.98481e-05 -1.93926e-05 4.40158 -1.29705e-07 1.38567e-07)
(0 0 0 673.313 2.05582e-05 -3.19668e-05 4.40158 -1.33641e-07 2.21035e-07)
(0 0 0 671.516 1.42609e-05 -6.43546e-06 4.45401 -9.22939e-08 1.26393e-07)
(0 0 0 671.516 1.48784e-05 -1.42682e-05 4.45401 -6.54043e-08 1.37354e-07)
(1.60717e-15 2.58124e-25 -6.03794e-23 669.858 7.95422e-06 2.08411e-06 4.50816 -5.92904e-08 1.15801e-07)
(-4.05199e-15 0 0 669.858 8.38622e-06 -3.05873e-06 4.50816 -3.31471e-08 5.01702e-08)
(2.74983e-15 -2.9757e-23 0 668.388 6.54475e-06 8.32834e-06 4.5644 -3.62378e-08 1.15168e-07)
(0 0 0 668.388 6.93554e-06 -6.24951e-21 4.5644 -7.1477e-09 1.94634e-35)
(3.93667e-15 0 5.8661e-23 667.153 4.25199e-06 8.59019e-06 4.62308 -1.41996e-08 5.62168e-08)
(0 0 0 667.153 4.57691e-06 -4.55373e-06 4.62308 1.57762e-08 1.56768e-08)
(-3.37067e-15 0 -5.87747e-39 666.188 2.74582e-06 -2.07077e-24 4.68452 -4.85519e-09 -4.59804e-39)
(1.34827e-14 0 0 666.188 3.04026e-06 -1.5713e-05 4.68452 2.5914e-08 9.17793e-08)
(0 1.42479e-23 0 665.522 1.66696e-06 -1.33999e-05 4.749 6.9935e-09 7.75678e-08)
(0 -1.42479e-23 0 665.522 1.92824e-06 -1.19858e-05 4.749 3.84944e-08 5.2781e-08)
(-4.0069e-15 0 0 665.177 4.72132e-07 -1.04501e-05 4.81675 8.69654e-09 3.97752e-08)
(1.60276e-14 0 0 665.177 1.74674e-06 -4.80498e-06 4.81675 4.08569e-08 1.71892e-08)
(0 1.38424e-23 0 665.166 1.80453e-06 -1.89178e-07 4.88796 1.96083e-08 4.3768e-09)
(-1.7325e-14 -1.38424e-23 0 665.166 2.02415e-06 6.03039e-06 4.88796 5.23546e-08 -1.68999e-14)
(0 1.19385e-23 0 665.495 -1.01612e-07 1.04641e-05 4.96276 2.33788e-08 1.25277e-12)
(-1.86401e-14 -1.19385e-23 0 665.495 9.99233e-08 1.16551e-05 4.96276 5.67245e-08 -2.49402e-14)
(7.22008e-15 -1.88079e-37 1.07588e-22 666.161 7.47771e-22 1.25338e-05 5.04122 2.02816e-08 1.21514e-12)
(0 6.72422e-24 0 666.161 2.26403e-07 1.25338e-05 5.04122 5.4149e-08 8.7664e-15)
(5.33191e-15 8.2848e-24 0 667.155 1.61168e-06 1.34507e-05 5.12338 2.51262e-08 1.28147e-12)
(-2.13276e-14 -1.15987e-23 0 667.155 1.78923e-06 1.34507e-05 5.12338 5.95223e-08 -8.25762e-14)
(0 1.3474e-23 0 668.459 3.70881e-07 1.44185e-05 5.2092 3.39337e-08 1.26892e-12)
(0 -1.3474e-23 0 668.459 5.39841e-07 1.44185e-05 5.2092 6.87995e-08 5.01988e-14)
(-6.02457e-15 -4.82941e-24 0 670.048 -1.8196e-06 1.53891e-05 5.29855 2.91977e-08 1.36198e-12)
(0 8.04902e-24 0 670.048 -1.6572e-06 1.53891e-05 5.29855 6.45807e-08 -5.41707e-14)
(4.35599e-16 -5.80391e-24 1.01551e-22 671.887 7.29632e-22 1.6378e-05 5.39127 2.09108e-08 1.28053e-12)
(0 2.22142e-23 0 671.887 1.1154e-06 1.63781e-05 5.39127 5.67111e-08 -5.31514e-14)
(-6.71728e-15 1.03614e-23 0 673.941 1.57508e-06 1.74453e-05 5.48714 3.82674e-08 1.36815e-12)
(-2.02433e-14 -1.34894e-23 0 673.941 1.725e-06 1.74453e-05 5.48715 7.45458e-08 1.9806e-14)
(7.1072e-15 1.54157e-23 0 676.161 -1.3111e-06 1.85574e-05 5.58583 3.46851e-08 1.37409e-12)
(0 -1.54157e-23 0 676.161 -1.16645e-06 1.85574e-05 5.58583 7.14007e-08 3.33686e-14)
(-1.49615e-14 1.82337e-23 0 678.495 -1.81956e-06 1.96614e-05 5.68693 2.87094e-08 1.48948e-12)
(0 -1.82337e-23 0 678.495 -1.67716e-06 1.96614e-05 5.68693 6.58539e-08 -5.26272e-14)
(2.35832e-14 -2.87876e-24 1.91706e-22 680.883 3.79245e-37 2.08114e-05 5.79 2.07436e-08 1.3649e-12)
(6.28886e-14 2.39632e-23 0 680.883 1.79621e-06 2.08115e-05 5.79 5.83279e-08 -1.38198e-14)
(0 -1.47624e-23 0 683.263 9.22992e-07 2.20581e-05 5.89453 4.40995e-08 1.4295e-12)
(3.29933e-14 1.55005e-23 0 683.263 1.05616e-06 2.20581e-05 5.89453 8.20815e-08 5.20356e-15)
(8.64272e-15 -1.06869e-19 0 685.568 8.47033e-22 2.3347e-05 5.99988 2.9521e-08 1.54696e-12)
(0 -4.36523e-24 0 685.568 -1.53428e-06 2.3347e-05 5.99988 6.79534e-08 7.75147e-14)
(-1.80888e-14 0 0 687.72 -1.49611e-06 2.46388e-05 6.10535 3.09072e-08 1.60756e-12)
(-7.23553e-14 0 0 687.72 -1.36795e-06 2.46389e-05 6.10535 6.97516e-08 -7.0992e-14)
(-2.15968e-14 -6.58289e-36 0 689.642 0 2.59911e-05 6.21022 1.74023e-08 1.50641e-12)
(-3.7814e-14 -5.65466e-24 -3.61898e-22 689.643 1.50372e-06 2.59911e-05 6.21022 5.66516e-08 -5.42684e-16)
(0 1.74176e-23 0 691.259 9.18721e-07 2.74514e-05 6.31369 4.46558e-08 1.59609e-12)
(-3.94803e-14 -1.74176e-23 0 691.259 1.04523e-06 2.74514e-05 6.31369 8.43373e-08 2.50491e-14)
(2.35954e-14 -5.61594e-20 0 692.484 -1.48576e-06 2.89539e-05 6.41483 2.65672e-08 1.66387e-12)
(1.75811e-14 1.64812e-23 0 692.484 -2.28757e-06 2.89539e-05 6.41483 6.66629e-08 5.57311e-14)
(-1.07257e-14 0 0 693.232 -6.64276e-07 3.04725e-05 6.51268 2.37589e-08 1.75428e-12)
(0 2.7075e-24 0 693.232 -5.39931e-07 3.04725e-05 6.51268 6.42899e-08 -2.14191e-15)
(-1.11646e-14 -7.44176e-35 0 693.417 6.32808e-22 3.20845e-05 6.60627 2.15662e-08 1.66587e-12)
(0 -1.60121e-23 0 693.417 1.62881e-06 3.20845e-05 6.60627 6.25076e-08 5.12016e-14)
(-1.16107e-14 1.21658e-23 0 692.957 2.3811e-07 3.38118e-05 6.69457 3.93443e-08 1.78357e-12)
(-4.64429e-14 -9.20655e-24 0 692.957 3.63027e-07 3.38118e-05 6.69457 8.0728e-08 3.64437e-14)
(1.20639e-14 -7.77822e-24 0 691.765 -2.36736e-06 3.55838e-05 6.77641 2.48415e-08 1.78631e-12)
(0 7.77822e-24 0 691.765 -2.2435e-06 3.55837e-05 6.77641 6.66554e-08 8.87458e-14)
(3.44761e-14 -4.84198e-20 0 689.753 4.23516e-22 3.73876e-05 6.85063 1.7582e-08 1.90825e-12)
(-2.19523e-14 1.02223e-23 0 689.753 -4.50402e-07 3.73875e-05 6.85063 5.98458e-08 4.19614e-14)
(-3.46277e-14 -9.59971e-21 0 686.841 9.11153e-07 3.92991e-05 6.91612 2.0498e-08 1.89146e-12)
(0 -2.51895e-24 -6.44852e-22 686.841 1.38261e-06 3.92991e-05 6.91612 6.31999e-08 7.40779e-14)
(-2.13275e-14 1.24142e-23 0 682.954 7.79479e-07 4.13513e-05 6.9717 3.15231e-08 1.97651e-12)
(2.13275e-14 -1.61385e-23 0 682.954 9.03651e-07 4.13513e-05 6.9717 7.46928e-08 1.65113e-13)
(-1.39399e-14 4.89453e-24 0 678.016 -2.23286e-06 4.34777e-05 7.0161 2.96294e-08 1.95498e-12)
(3.47376e-14 0 -6.265e-22 678.016 -2.10805e-06 4.34777e-05 7.0161 7.32671e-08 7.81761e-14)
(0 -8.32563e-20 0 671.951 0 4.56325e-05 7.04806 9.68061e-09 2.17676e-12)
(5.76891e-14 1.44731e-23 0 671.951 -1.44105e-06 4.56325e-05 7.04806 5.37705e-08 1.21771e-13)
(-5.51478e-15 -7.22447e-20 0 664.695 1.64486e-06 4.79204e-05 7.06643 1.47547e-08 2.08612e-12)
(-3.92116e-14 -1.90209e-23 0 664.695 2.69178e-06 4.79205e-05 7.06643 5.93729e-08 1.90576e-13)
(1.53986e-14 -8.20238e-24 0 656.192 -1.49048e-06 5.03476e-05 7.07002 3.84301e-08 2.21747e-12)
(0 8.20238e-24 0 656.192 -1.36215e-06 5.03476e-05 7.07002 8.3503e-08 1.3687e-13)
(-1.58909e-14 -2.53949e-21 0 646.39 1.32576e-23 5.28613e-05 7.05764 -5.16988e-26 2.23744e-12)
(0 9.2398e-24 0 646.39 3.04525e-08 5.28612e-05 7.05764 4.52831e-08 2.42111e-13)
(-3.17319e-15 1.02458e-23 0 635.243 -2.17385e-06 5.54476e-05 7.02814 3.93501e-08 2.43415e-12)
(6.55389e-14 -4.55368e-24 0 635.243 -2.04165e-06 5.54476e-05 7.02814 8.54807e-08 1.69301e-13)
(1.92776e-14 -3.28443e-24 0 622.713 6.35275e-22 5.81529e-05 6.98046 0 2.28317e-12)
(4.82385e-14 0 0 622.714 1.99894e-06 5.81529e-05 6.98046 2.29976e-08 7.161e-14)
(-1.73727e-14 0 0 608.776 3.50207e-06 6.11102e-05 6.91361 6.29478e-08 2.53736e-12)
(0 4.42409e-24 0 608.776 3.63915e-06 6.11102e-05 6.91361 1.10147e-07 4.45783e-13)
(-1.78645e-14 0 0 593.41 -1.1094e-05 6.40206e-05 6.82653 1.69391e-08 2.42589e-12)
(0 4.36068e-24 0 593.41 -1.09587e-05 6.40206e-05 6.82653 6.47761e-08 2.37528e-13)
(1.84605e-14 -4.45787e-20 0 576.603 -1.69852e-21 6.67719e-05 6.71843 0 2.79495e-12)
(0 0 0 576.603 -8.02067e-07 6.67718e-05 6.71843 -1.58376e-08 4.20102e-13)
(-3.70333e-14 -1.46529e-20 -1.08456e-21 558.373 2.4101e-05 7.0214e-05 6.58885 8.64933e-09 3.15997e-12)
(0 8.47315e-24 0 558.373 2.44212e-05 7.0214e-05 6.58885 5.76811e-08 1.46592e-12)
(-3.58703e-14 -3.34068e-23 -1.06902e-21 538.731 -3.23625e-05 7.35913e-05 6.43684 2.33407e-07 2.7262e-12)
(-5.93273e-14 0 0 538.731 -3.22088e-05 7.35914e-05 6.43684 2.83038e-07 -7.62771e-13)
(-1.97866e-14 0 0 517.685 -2.68528e-23 7.65488e-05 6.26179 -5.29396e-23 2.26541e-12)
(7.91462e-14 -1.29876e-22 0 517.685 1.06238e-05 7.6549e-05 6.26179 -1.02794e-07 -3.28335e-13)
(0 0 0 495.285 1.43446e-05 8.02163e-05 6.06383 2.95875e-07 1.95585e-12)
(0 0 0 495.285 1.44846e-05 8.02161e-05 6.06383 2.91966e-07 7.6434e-13)
(-2.07e-14 -5.87747e-39 0 471.582 0 8.35948e-05 5.84237 2.64698e-23 4.04062e-12)
(8.28001e-14 -3.24781e-23 0 471.582 -1.68375e-05 8.35946e-05 5.84237 -1.0629e-07 7.69628e-13)
(4.22788e-14 -1.18246e-23 0 446.625 2.80332e-05 8.70175e-05 5.59746 1.43959e-08 3.54559e-12)
(8.45577e-14 1.18246e-23 0 446.625 2.81686e-05 8.70176e-05 5.59746 6.67757e-08 1.47611e-12)
(0 0 0 420.494 -2.3106e-05 9.05989e-05 5.32943 1.43814e-07 2.97218e-12)
(0 0 0 420.494 -2.29374e-05 9.05989e-05 5.32943 1.96892e-07 -4.35461e-13)
(1.09189e-14 7.34684e-39 0 393.279 6.77626e-21 9.37152e-05 5.03857 -5.29396e-23 3.06786e-12)
(-3.28941e-14 0 0 393.279 5.0157e-06 9.37153e-05 5.03857 -1.12599e-07 7.27552e-14)
(-4.47364e-14 0 0 365.082 7.7043e-06 9.71366e-05 4.72575 2.16816e-07 2.93673e-12)
(8.94729e-14 0 0 365.082 7.8638e-06 9.71365e-05 4.72575 2.71473e-07 9.52243e-13)
(-2.27425e-14 -1.5862e-19 0 336.019 -1.31265e-23 0.000100498 4.39165 0 3.64028e-12)
(0 0 0 336.019 -7.59947e-06 0.000100498 4.39165 -1.16878e-07 1.57419e-13)
(-2.30964e-14 0 0 306.208 4.08692e-06 0.000103665 4.03736 1.18724e-07 3.43388e-12)
(9.23856e-14 0 0 306.208 4.24148e-06 0.000103665 4.03736 1.75091e-07 8.8253e-13)
(-8.55251e-14 0 0 275.784 -2.58617e-05 0.000106073 3.66419 -1.34644e-07 4.77979e-12)
(0 0 0 275.784 -2.56625e-05 0.000106073 3.66419 -7.74279e-08 7.45648e-13)
(-4.74735e-14 0 0 244.902 1.65665e-23 0.000108453 3.27401 0 1.88188e-12)
(-9.49469e-14 1.10861e-18 0 244.902 1.75622e-05 0.000108453 3.27401 -1.24437e-07 3.22283e-13)
(-4.80403e-14 0 -1.79796e-21 213.735 -8.127e-06 0.000111277 2.86883 3.19628e-07 1.76303e-12)
(1.92161e-13 5.94939e-23 0 213.735 -7.94101e-06 0.000111277 2.86883 3.25045e-07 -8.3487e-13)
(-7.28319e-14 1.50463e-36 0 182.441 1.36028e-20 0.00011269 2.45035 1.93925e-36 4.81573e-12)
(-9.71091e-14 1.04683e-18 0 182.441 -1.77987e-05 0.00011269 2.45035 -1.29807e-07 8.04361e-13)
(-2.45068e-14 0 -1.74679e-21 151.198 3.57547e-05 0.000113939 2.02147 -1.33989e-07 4.06633e-12)
(9.80273e-14 0 0 151.198 3.59251e-05 0.000113939 2.02147 -7.27924e-08 1.56937e-12)
(2.47077e-14 0 0 120.21 -3.19606e-05 0.000114991 1.58489 1.70449e-07 3.75545e-12)
(0 0 0 120.21 -3.17442e-05 0.000114991 1.58489 2.3268e-07 -1.14286e-12)
(0 -8.58671e-23 0 89.6621 -8.58671e-23 0.000115727 1.14334 -1.05879e-22 2.52543e-12)
(9.95158e-14 -9.0634e-19 0 89.6621 1.81184e-05 0.000115727 1.14334 -1.37987e-07 9.65005e-13)
(0 0 0 59.7439 -3.87676e-05 0.000115929 0.699932 3.69388e-07 2.57808e-12)
(1.00079e-13 2.04476e-22 0 59.744 -3.8532e-05 0.000115929 0.699932 3.47085e-07 -2.5196e-12)
(-2.76619e-14 2.35099e-38 -6.59512e-21 30.6465 6.01853e-36 0.0001153 0.257821 -2.11758e-22 1.36072e-12)
(7.2857e-14 -5.69714e-22 -3.29756e-21 30.6465 1.85344e-05 0.0001153 0.257821 -1.4529e-07 -9.68614e-13)
(8.92255e-14 0 0 0.00564245 -1.28458e-07 0.000115093 4.4874e-05 3.81884e-07 1.49899e-12)
(-1.78451e-13 0 0 0.00563991 8.46774e-08 0.000115093 4.48539e-05 3.57638e-07 -1.09989e-12)
(-5.02921e-14 3.29138e-36 0 -22.2428 -2.3893e-20 0.000114181 0.179468 -4.88576e-38 2.54853e-12)
(0 0 0 -22.2428 -1.83554e-05 0.000114181 0.179468 -1.52115e-07 -2.36845e-12)
(0 0 0 -49.8913 1.92422e-05 0.000113269 0.609087 3.95847e-07 1.37294e-12)
(1.00177e-13 2.33353e-22 0 -49.8913 1.94334e-05 0.000113269 0.609087 3.67396e-07 -8.50337e-13)
(0 -3.18451e-19 0 -73.947 -3.04932e-20 0.000112408 1.02756 0 2.21956e-12)
(7.35493e-14 -4.14835e-22 -3.11253e-21 -73.947 -1.88185e-05 0.000112408 1.02756 -1.58411e-07 -2.36997e-12)
(-2.47593e-14 -2.38974e-24 0 -96.3873 1.14038e-05 0.000111428 1.43186 4.10767e-07 4.25816e-13)
(0 0 0 -96.3873 1.16027e-05 0.000111428 1.43186 3.7754e-07 -2.0781e-12)
(2.45793e-14 -7.32906e-19 0 -117.121 0 0.000110249 1.81946 -1.05879e-22 1.16119e-12)
(0 1.95656e-19 -6.04791e-21 -117.121 -1.93175e-05 0.000110249 1.81946 -1.6513e-07 -3.75946e-12)
(0 -1.23707e-23 0 -136.064 2.72357e-05 0.000109492 2.18789 6.1082e-08 1.75991e-12)
(5.00064e-14 1.67368e-23 0 -136.064 2.74506e-05 0.000109492 2.18789 1.36074e-07 -1.82316e-12)
(0 -9.76765e-20 0 -153.16 -2.59948e-05 0.000108954 2.53468 -2.28719e-07 1.84023e-12)
(0 0 0 -153.16 -2.5457e-05 0.000108954 2.53468 -2.23986e-07 -2.37438e-12)
(7.64931e-16 0 5.79157e-21 -168.393 -6.17281e-23 0.000108623 2.85803 -5.29396e-23 -5.37864e-14)
(0 3.52433e-19 0 -168.393 1.98639e-05 0.000108623 2.85803 -1.77316e-07 -2.28263e-12)
(2.94811e-16 1.11495e-23 0 -181.773 -2.93519e-05 0.000108474 3.15679 1.2824e-07 1.70342e-13)
(-2.39434e-14 -1.11495e-23 0 -181.773 -2.90992e-05 0.000108474 3.15679 2.07729e-07 -5.09893e-12)
(2.33727e-14 -1.36604e-22 0 -193.328 3.25153e-21 0.000108326 3.42999 0 -1.13099e-12)
(-9.34909e-14 3.97769e-22 0 -193.328 1.99465e-05 0.000108326 3.42999 -1.86498e-07 -3.92764e-12)
(4.6524e-14 0 5.5461e-21 -203.102 -5.58329e-06 0.000109033 3.67703 4.6607e-07 -1.25639e-12)
(-9.23331e-14 -9.78249e-23 0 -203.102 -5.34694e-06 0.000109033 3.67703 4.20246e-07 -4.15085e-12)
(-2.27822e-14 -2.00766e-19 0 -211.172 1.52466e-20 0.000109324 3.89757 0 1.98824e-13)
(1.82258e-13 -9.17742e-22 0 -211.172 -1.36997e-05 0.000109324 3.89757 -1.9535e-07 -5.62291e-12)
(2.24713e-14 0 0 -217.63 1.84428e-05 0.000110085 4.09223 2.76141e-07 -8.50698e-13)
(8.9885e-14 0 0 -217.63 1.86683e-05 0.000110085 4.09223 3.62252e-07 -3.15864e-12)
(0 -1.21027e-19 0 -222.568 -1.01644e-20 0.000111503 4.26136 -1.05879e-22 -3.18966e-13)
(0 0 0 -222.568 -8.23314e-06 0.000111503 4.26136 -2.0403e-07 -4.34505e-12)
(-2.18263e-14 -5.11222e-23 0 -226.103 -4.51075e-06 0.000112661 4.40578 1.29648e-07 -5.48975e-13)
(8.73054e-14 5.11222e-23 0 -226.103 -4.26482e-06 0.000112661 4.40578 2.19368e-07 -4.97647e-12)
(-2.14954e-14 -1.72798e-35 0 -228.362 1.13151e-20 0.000113945 4.52687 -1.05879e-22 -1.36863e-12)
(-1.07624e-13 3.09793e-22 0 -228.362 2.52228e-06 0.000113945 4.52687 -2.13761e-07 -4.43383e-12)
(2.11607e-14 0 0 -229.464 -5.15431e-06 0.000115294 4.62602 1.9497e-07 -1.00063e-12)
(8.46427e-14 0 0 -229.464 -4.89535e-06 0.000115294 4.62602 2.88506e-07 -5.34624e-12)
(-2.08233e-14 -7.42227e-20 0 -229.529 1.38243e-20 0.000116468 4.70464 2.11758e-22 -1.39479e-12)
(8.32932e-14 -3.66026e-22 0 -229.529 -2.52799e-06 0.000116468 4.70464 -2.24309e-07 -5.83827e-12)
(-2.04845e-14 0 0 -228.67 1.51624e-05 0.000118292 4.76423 1.59454e-07 -2.04524e-12)
(0 0 0 -228.67 1.54185e-05 0.000118292 4.76423 2.56946e-07 -4.23786e-12)
(-2.01451e-14 -2.23318e-19 0 -227.001 1.02575e-20 0.000120138 4.80622 1.05879e-22 -7.04115e-13)
(0 0 0 -227.001 -1.70011e-05 0.000120138 4.80622 -2.35046e-07 -5.45126e-12)
(-3.99412e-14 0 0 -224.639 7.52094e-06 0.000121666 4.83241 -1.92238e-07 -1.60879e-12)
(9.93597e-14 0 0 -224.639 7.77853e-06 0.000121666 4.83241 -9.05074e-08 -4.77747e-12)
(-3.78067e-16 -3.19354e-19 0 -221.688 -8.45288e-06 0.00012284 4.84453 -9.23555e-08 5.1483e-13)
(1.98464e-14 0 0 -221.688 -1.6539e-05 0.00012284 4.84453 -2.46148e-07 -4.77025e-12)
(0 -7.65974e-23 9.32787e-21 -218.234 1.00112e-20 0.000124613 4.84405 0 -2.85239e-12)
(1.9562e-14 0 0 -218.234 2.28272e-05 0.000124613 4.84405 -2.53035e-07 -4.092e-12)
(-1.87986e-14 -1.79574e-23 0 -214.362 -2.35639e-05 0.000126666 4.83221 1.45484e-07 -3.34243e-12)
(0 2.69361e-23 0 -214.362 -2.32725e-05 0.000126665 4.83221 2.54022e-07 -6.95714e-12)
(0 -9.03304e-20 0 -210.158 -1.18585e-20 0.000127339 4.8105 0 -1.96736e-12)
(1.47743e-13 -7.90742e-22 0 -210.158 -7.11901e-06 0.000127339 4.8105 -2.6617e-07 -7.50082e-12)
(-1.87328e-14 0 -8.93251e-21 -205.687 2.67665e-05 0.000128912 4.78049 -3.62896e-10 -1.53661e-12)
(7.25612e-14 1.74463e-23 0 -205.687 2.70526e-05 0.000128912 4.78049 1.13154e-07 -3.28873e-12)
(-3.62807e-14 7.40749e-23 -8.80449e-21 -201.003 -2.97128e-05 0.000130337 4.7429 -4.36337e-07 -3.84318e-13)
(-7.12656e-14 0 0 -201.003 -2.93965e-05 0.000130337 4.7429 -3.58191e-07 -5.52306e-12)
(1.89029e-14 0 8.67829e-21 -196.163 1.01644e-20 0.000131376 4.69888 -2.23492e-52 -4.30729e-12)
(-8.81856e-14 1.57872e-22 0 -196.163 2.16438e-05 0.000131376 4.69888 -2.86063e-07 -4.90615e-12)
(0 2.50603e-23 0 -191.216 -7.68253e-06 0.000133054 4.64952 4.82639e-08 -3.85277e-12)
(-1.79389e-14 -8.35343e-24 0 -191.216 -7.36559e-06 0.000133053 4.64952 1.69837e-07 -6.20857e-12)
(0 -4.24258e-19 0 -186.201 1.01644e-20 0.000133418 4.59556 0 -1.80813e-12)
(4.97954e-14 -2.51862e-22 0 -186.201 -1.84209e-05 0.000133418 4.59556 -3.01394e-07 -5.82714e-12)
(-1.82942e-14 1.94777e-22 -1.66209e-20 -181.152 2.42643e-05 0.000134017 4.53792 -3.93641e-07 -2.32349e-12)
(0 -6.49256e-23 0 -181.152 2.45837e-05 0.000134017 4.53792 -2.66084e-07 -4.72577e-12)
(0 -1.2799e-22 0 -176.094 -9.54151e-06 0.000135309 4.4771 -2.70461e-07 -4.01397e-12)
(1.30082e-13 1.2799e-22 0 -176.094 -9.21197e-06 0.000135309 4.4771 -1.40036e-07 -6.27811e-12)
(0 -1.74517e-19 0 -171.053 0 0.000135674 4.41362 -1.05879e-22 -2.36027e-12)
(1.27702e-13 -1.88818e-22 0 -171.053 -7.70347e-06 0.000135674 4.41362 -3.26085e-07 -5.93623e-12)
(-3.13402e-14 3.93988e-23 0 -166.049 1.15353e-05 0.00013617 4.34813 -3.22296e-07 -3.7864e-12)
(0 0 0 -166.049 1.18767e-05 0.00013617 4.34813 -3.27217e-07 -4.74384e-12)
(-1.53824e-14 0 0 -161.101 -1.10205e-05 0.000136633 4.28099 -3.21483e-07 -3.15999e-12)
(1.23059e-13 0 0 -161.101 -1.06601e-05 0.000136633 4.28099 -1.81129e-07 -7.00338e-12)
(1.50996e-14 -2.0807e-22 0 -156.223 7.83137e-21 0.000136594 4.21269 -1.05879e-22 -4.57692e-12)
(0 0 0 -156.223 2.96803e-06 0.000136594 4.21269 -3.54164e-07 -6.40133e-12)
(-1.48216e-14 0 0 -151.425 6.58258e-06 0.000136987 4.14358 -2.35442e-07 -3.72335e-12)
(0 0 0 -151.425 6.95668e-06 0.000136987 4.14358 -8.79164e-08 -5.61614e-12)
(-1.45486e-14 1.98394e-23 0 -146.717 -1.99863e-05 0.000136573 4.07381 -4.24274e-07 -3.00217e-12)
(5.81945e-14 -6.99604e-25 0 -146.717 -1.96e-05 0.000136573 4.07381 -4.14501e-07 -5.77151e-12)
(1.67743e-14 9.87415e-37 0 -142.108 3.60308e-21 0.000136099 4.00384 2.98304e-38 -6.10192e-12)
(2.60673e-14 -1.30373e-22 0 -142.108 2.0603e-05 0.000136099 4.00384 -3.84259e-07 -6.12029e-12)
(-2.80345e-14 0 0 -137.599 -5.43106e-06 0.000136377 3.93382 1.52898e-08 -7.01465e-12)
(0 0 0 -137.599 -5.03461e-06 0.000136377 3.93382 1.74695e-07 -6.3282e-12)
(-1.37589e-14 -1.34887e-19 0 -133.197 1.69407e-21 0.000135476 3.86375 0 -3.37936e-12)
(-1.50855e-14 0 0 -133.197 -1.35627e-05 0.000135476 3.86375 -4.06723e-07 -8.49091e-12)
(1.48693e-14 0 0 -128.907 2.01308e-05 0.00013485 3.79407 -3.64204e-07 -5.64718e-12)
(-5.40212e-14 0 0 -128.907 2.05325e-05 0.00013485 3.79407 -1.9606e-07 -1.94364e-12)
(1.32564e-14 0 0 -124.73 -2.25003e-05 0.00013398 3.72489 -3.34862e-07 -2.88374e-12)
(5.30257e-14 0 0 -124.73 -2.20521e-05 0.00013398 3.72489 -1.62108e-07 -9.72947e-12)
(-1.43385e-15 -2.83822e-22 0 -120.667 6.77626e-21 0.000132924 3.65624 -2.11758e-22 -9.81829e-12)
(-3.76029e-14 2.21252e-22 0 -120.667 2.10261e-05 0.000132924 3.65624 -4.46588e-07 -4.11645e-12)
(1.57054e-14 2.65223e-23 0 -116.718 -1.42914e-05 0.000132146 3.58825 3.11046e-07 -3.80017e-12)
(2.26127e-14 0 -1.35794e-20 -116.718 -1.3815e-05 0.000132146 3.58825 4.93516e-07 -9.92453e-12)
(0 -2.03525e-22 0 -112.886 8.47033e-22 0.000130859 3.52106 0 -1.00012e-11)
(-1.4035e-14 0 -1.33848e-20 -112.886 7.6396e-06 0.000130859 3.52106 -4.75701e-07 -3.74354e-12)
(-1.38338e-14 -5.1535e-23 -2.63859e-20 -109.169 -1.0468e-05 0.00012926 3.45479 5.74702e-07 -3.13391e-12)
(3.53949e-14 0 -1.3193e-20 -109.169 -9.96668e-06 0.00012926 3.45479 7.67712e-07 -1.10782e-11)
(1.20811e-14 -5.02874e-22 0 -105.567 1.52466e-20 0.000127364 3.38946 0 -1.23541e-11)
(0 0 0 -105.567 7.86769e-06 0.000127364 3.38946 -5.07275e-07 -4.45636e-12)
(0 0 0 -102.077 6.14402e-06 0.000126239 3.3252 8.61552e-07 -5.03068e-12)
(-4.7437e-14 -9.24792e-23 -1.28175e-20 -102.077 6.67008e-06 0.000126239 3.3252 8.99289e-07 -1.12502e-11)
(-2.6495e-14 -1.48741e-19 -2.52676e-20 -98.6974 1.35525e-20 0.000124274 3.26191 0 -1.25721e-11)
(0 0 0 -98.6974 -1.71071e-05 0.000124274 3.26191 -5.41428e-07 -4.59873e-12)
(0 4.86434e-23 0 -95.4279 2.18051e-05 0.000122507 3.19972 3.33701e-07 -3.98242e-12)
(-2.61152e-14 -4.86434e-23 0 -95.4279 2.23576e-05 0.000122507 3.19972 5.50388e-07 -1.21044e-11)
(2.40894e-14 -4.34399e-19 0 -92.2668 3.38813e-21 0.000120316 3.13871 0 -1.47914e-11)
(-1.28705e-14 0 0 -92.2668 -2.58637e-05 0.000120316 3.13871 -5.78394e-07 1.16805e-12)
(1.10136e-14 0 0 -89.2098 2.35997e-05 0.000117856 3.07887 -5.25821e-07 2.13902e-12)
(-1.2686e-14 0 -1.20983e-20 -89.2098 2.42104e-05 0.000117856 3.07887 -2.95598e-07 -1.76919e-11)
(-2.16244e-14 0 0 -86.2533 -1.31386e-05 0.000116003 3.02013 -8.99401e-08 -2.40559e-11)
(4.32489e-14 0 0 -86.2533 -1.26566e-05 0.000116003 3.02013 1.47218e-07 3.7269e-12)
(-1.06147e-14 -1.26452e-20 0 -83.3947 -2.11758e-22 0.000113035 2.96249 0 7.29789e-12)
(0 0 0 -83.3947 -9.35733e-07 0.000113036 2.96249 -6.07851e-07 -2.7686e-11)
(0 4.5256e-23 0 -80.6289 1.33768e-05 0.000110806 2.90596 -1.12697e-07 -3.18128e-11)
(0 -4.5256e-23 -2.31711e-20 -80.6289 1.38484e-05 0.000110805 2.90596 1.39613e-07 1.44257e-11)
(1.19742e-14 0 0 -77.9517 -1.75766e-05 0.000108182 2.85036 -4.86382e-07 1.64484e-11)
(-1.19742e-14 0 0 -77.9517 -1.68127e-05 0.000108182 2.85036 -2.25821e-07 -3.49504e-11)
(-1.18026e-14 5.87747e-38 -2.25116e-20 -75.3604 2.00962e-22 0.00010477 2.79575 -1.05879e-22 -4.51639e-11)
(0 0 0 -75.3604 8.40415e-06 0.000104769 2.79575 -4.55326e-07 2.21943e-11)
(0 8.66756e-23 0 -72.8486 3.41269e-06 0.000102097 2.74204 -1.69214e-07 2.7746e-11)
(7.88925e-14 0 -2.2189e-20 -72.8486 4.27477e-06 0.000102098 2.74204 1.08381e-07 -4.85939e-11)
(-1.93647e-14 0 0 -70.4122 0 9.93287e-05 2.68902 0 -6.15639e-11)
(3.87293e-14 0 0 -70.4122 -3.3341e-06 9.93276e-05 2.68902 -2.89703e-07 4.06426e-11)
(9.50663e-15 0 2.15575e-20 -68.0488 -5.93373e-06 9.57425e-05 2.63672 -2.86228e-07 5.00466e-11)
(0 0 0 -68.0488 -4.93988e-06 9.57439e-05 2.63672 1.00192e-08 -7.22235e-11)
(0 -1.75723e-34 0 -65.7545 5.76577e-21 9.20022e-05 2.5851 0 -9.09616e-11)
(-4.8478e-14 0 0 -65.7545 5.49219e-06 9.20007e-05 2.5851 -4.72283e-07 6.56756e-11)
(-9.16567e-15 -8.18123e-23 -2.0944e-20 -63.5257 1.85096e-06 8.87242e-05 2.53403 -5.72176e-08 8.12101e-11)
(3.66627e-14 1.22718e-22 0 -63.5257 3.02541e-06 8.87262e-05 2.53403 2.5926e-07 -1.04692e-10)
(0 -3.99037e-20 0 -61.36 -4.65868e-21 8.52987e-05 2.48349 -1.05879e-22 -1.32081e-10)
(-1.08233e-14 0 0 -61.36 -2.68241e-06 8.52964e-05 2.48349 -3.51142e-07 1.07521e-10)
(1.06682e-14 0 2.03479e-20 -59.2562 -2.53173e-06 8.1368e-05 2.43345 -1.46482e-07 1.33085e-10)
(0 7.9484e-23 0 -59.2562 -1.11069e-06 8.13711e-05 2.43345 1.92063e-07 -1.5754e-10)
(-8.6799e-15 2.8447e-36 0 -57.2133 1.02503e-20 7.73755e-05 2.38395 2.87418e-38 -1.98522e-10)
(0 0 0 -57.2133 2.66886e-06 7.73719e-05 2.38395 -3.95847e-07 1.71606e-10)
(-6.68479e-15 -2.70277e-22 1.97688e-20 -55.229 -4.2169e-06 7.31796e-05 2.335 -1.14826e-08 2.12594e-10)
(6.81973e-14 2.31666e-22 0 -55.229 -2.44684e-06 7.31842e-05 2.335 3.51088e-07 -2.38209e-10)
(0 -1.22324e-22 0 -53.3009 5.57149e-21 6.89303e-05 2.28652 0 -2.99658e-10)
(0 0 0 -53.3009 4.0023e-06 6.8925e-05 2.28652 -5.05977e-07 2.70266e-10)
(0 7.50242e-23 -1.92062e-20 -51.427 -2.30563e-06 6.47949e-05 2.2385 1.95881e-07 3.35275e-10)
(0 -3.75121e-23 0 -51.427 -4.76582e-08 6.48017e-05 2.2385 5.84591e-07 -3.61943e-10)
(-2.4236e-14 3.5735e-36 1.89309e-20 -49.6044 6.42996e-21 6.06091e-05 2.19091 1.07571e-37 -4.5492e-10)
(6.46292e-14 5.91591e-22 0 -49.6044 1.34161e-06 6.0601e-05 2.19091 -5.2802e-07 4.24396e-10)
(0 -2.05e-22 0 -47.8308 -3.84261e-06 5.62378e-05 2.14365 3.07167e-07 5.26615e-10)
(6.34917e-14 2.05e-22 0 -47.8308 -8.89796e-07 5.6248e-05 2.14365 7.24396e-07 -5.54569e-10)
(1.84529e-15 0 0 -46.1036 6.39217e-21 5.1643e-05 2.09669 3.98967e-38 -6.95916e-10)
(-9.64278e-15 0 0 -46.1036 1.15974e-07 5.16307e-05 2.09669 -6.03027e-07 6.63311e-10)
(7.66173e-15 -1.59333e-22 0 -44.42 -3.50506e-06 4.6847e-05 2.04996 3.86417e-07 8.26266e-10)
(6.12939e-14 1.59333e-22 0 -44.42 4.51697e-07 4.68625e-05 2.04996 8.34742e-07 -8.52712e-10)
(0 -5.99533e-37 0 -42.7773 1.08002e-21 4.26267e-05 2.00335 0 -1.07204e-09)
(3.01168e-14 5.58397e-22 0 -42.7773 7.17042e-06 4.2608e-05 2.00335 -6.40745e-07 1.03853e-09)
(7.39987e-15 0 0 -41.1732 -1.74048e-05 3.76874e-05 1.95681 8.25255e-07 1.29264e-09)
(0 0 0 -41.1732 -1.19918e-05 3.77108e-05 1.95681 1.30749e-06 -1.31999e-09)
(2.36493e-14 -1.00324e-21 0 -39.6059 2.949e-20 3.31005e-05 1.91028 0 -1.65692e-09)
(1.99934e-14 0 0 -39.6059 1.6562e-05 3.30723e-05 1.91028 -1.30618e-06 1.61908e-09)
(0 0 0 -38.0736 -2.20018e-05 2.83999e-05 1.86369 1.12307e-06 2.01572e-09)
(0 0 0 -38.0736 -1.4476e-05 2.84352e-05 1.86369 2.30335e-06 -2.04853e-09)
(0 -3.77927e-22 0 -36.5751 1.5429e-20 2.3705e-05 1.81702 4.23516e-22 -2.56611e-09)
(3.6968e-14 0 0 -36.5751 1.46698e-05 2.3662e-05 1.81702 -2.18334e-06 2.52926e-09)
(5.114e-15 1.4644e-19 0 -35.1093 -2.04158e-05 1.84666e-05 1.77022 5.07916e-07 3.14931e-09)
(8.71596e-15 0 0 -35.1093 -1.63321e-05 1.85204e-05 1.77022 3.32487e-06 -3.18323e-09)
(-1.78913e-15 -1.07167e-21 0 -33.6753 1.81854e-20 1.36241e-05 1.72331 0 -3.99496e-09)
(3.57987e-14 5.12066e-22 0 -33.6753 1.97283e-05 1.35583e-05 1.72331 -3.27891e-06 3.95044e-09)
(0 1.15294e-21 1.26709e-20 -32.2721 -4.74338e-20 6.90565e-06 1.67625 0 4.93056e-09)
(2.67685e-14 0 0 -32.2721 -2.19543e-05 8.15615e-06 1.67625 4.75834e-06 -4.95673e-09)
(-6.58565e-15 0 0 -30.8991 0 3.28848e-06 1.62902 0 -6.22359e-09)
(-2.63426e-14 0 0 -30.8991 2.7604e-05 3.18849e-06 1.62902 -4.84379e-06 6.17402e-09)
(-1.47094e-14 -1.99364e-35 0 -29.5564 -3.59637e-20 -4.4907e-23 1.58164 -2.38005e-37 -2.419e-36)
(0 0 0 -29.5564 -3.2608e-05 -1.16724e-06 1.58164 6.83167e-06 -7.73846e-09)
(-6.38261e-15 0 0 -28.2443 4.06576e-20 -7.50099e-06 1.53414 -3.65417e-51 -9.71858e-09)
(-2.55305e-14 0 0 -28.2443 3.9385e-05 -7.65363e-06 1.53414 -7.24247e-06 9.66216e-09)
(0 9.62965e-35 7.46272e-21 -26.9646 -1.35525e-20 -1.30114e-05 1.48661 0 1.20882e-08)
(0 0 0 -26.9646 -4.4316e-05 -1.35515e-05 1.48661 9.88116e-06 -1.21057e-08)
(0 -1.58572e-21 0 -25.72 1.35525e-20 -1.88768e-05 1.4392 -1.69407e-21 -1.52068e-08)
(4.95422e-14 0 0 -25.72 4.84831e-05 -1.91103e-05 1.4392 -1.06903e-05 1.51409e-08)
(-6.1027e-15 0 0 -24.5148 0 -2.53237e-05 1.39214 1.69407e-21 1.89679e-08)
(2.44108e-14 0 0 -24.5148 -4.94932e-05 -2.50337e-05 1.39214 1.39474e-05 -1.89768e-08)
(-7.65401e-15 -2.19771e-21 -2.91977e-20 -23.3546 9.48677e-20 -3.00682e-05 1.34576 0 -2.38573e-08)
(-2.4063e-14 -3.64971e-21 0 -23.3546 5.49487e-05 -3.04269e-05 1.34576 -1.50386e-05 2.3778e-08)
(0 9.17826e-35 -2.87792e-20 -22.2458 -1.66562e-19 -3.77086e-05 1.30048 -2.11471e-36 2.98381e-08)
(-7.5443e-15 3.5974e-21 0 -22.2458 -6.52637e-05 -3.72629e-05 1.30048 1.91262e-05 -2.98334e-08)
(-1.58551e-15 -1.16609e-34 -2.83668e-20 -21.1954 1.22378e-20 -4.16369e-05 1.25678 0 -3.75384e-08)
(2.34026e-14 -3.54584e-21 0 -21.1954 8.21551e-05 -4.21888e-05 1.25678 -2.11803e-05 3.74397e-08)
(0 6.39482e-34 0 -20.2097 -1.44866e-20 -5.01409e-05 1.21517 0 4.7044e-08)
(0 0 0 -20.2097 -9.96528e-05 -4.9455e-05 1.21517 2.69911e-05 -4.70182e-08)
(7.22454e-15 -8.78294e-21 2.75594e-20 -19.2939 1.35525e-19 -5.38076e-05 1.17611 0 -5.92063e-08)
(0 6.88986e-21 0 -19.2939 0.00011675 -5.46586e-05 1.17611 -3.07037e-05 5.90792e-08)
(-1.12437e-14 -1.05324e-35 0 -18.4511 -2.09e-20 -6.31955e-05 1.14001 6.77626e-21 7.43347e-08)
(0 0 0 -18.4511 -0.000132818 -6.21363e-05 1.14001 3.8619e-05 -7.42767e-08)
(1.46937e-15 -6.29181e-21 2.67751e-20 -17.6817 1.91673e-19 -6.51661e-05 1.10715 0 -9.3635e-08)
(0 0 0 -17.6817 0.00015719 -6.64828e-05 1.10715 -4.43145e-05 9.34661e-08)
(0 3.01183e-20 0 -16.9828 -4.33681e-19 -7.74628e-05 1.07765 6.77626e-21 1.17774e-07)
(0 0 0 -16.9828 -0.000194087 -7.58226e-05 1.07765 5.53059e-05 -1.17667e-07)
(-1.08192e-14 0 0 -16.3489 3.25261e-19 -7.79758e-05 1.05132 -2.54299e-36 -1.48491e-07)