/*--------------------------------*- C++ -*----------------------------------*\
| =========                 |                                                 |
| \\      /  F ield         | OpenFOAM: The Open Source CFD Toolbox           |
|  \\    /   O peration     | Version:  2106                                  |
|   \\  /    A nd           | Website:  www.openfoam.com                      |
|    \\/     M anipulation  |                                                 |
\*---------------------------------------------------------------------------*/
FoamFile
{
    version     2.0;
    format      ascii;
    arch        "LSB;label=32;scalar=64";
    class       volTensorField;
    location    "10000";
    object      grad(U);
}
// * * * * * * * * * * * * * * * * * * * * * * * * * * * * * * * * * * * * * //

dimensions      [0 0 -1 0 0 0 0];

internalField   nonuniform List<tensor> 
2560
(
(-9.14312e-18 1.03945e-30 0 48.4791 -4.5704e-12 -1.42255e-12 0.0701795 -3.30891e-15 -5.09843e-16)
(0 -1.19272e-27 -7.92593e-26 48.4791 -2.38264e-15 -6.45422e-13 0.0701795 -2.35177e-18 -4.67119e-16)
(0 -1.0216e-24 -7.7204e-26 48.4724 5.61955e-32 -1.91797e-13 0.211539 0 -5.63335e-16)
(-3.60483e-17 -1.63929e-29 0 48.4724 -1.6647e-14 -7.61866e-13 0.211539 -2.89934e-17 -2.6135e-15)
(-8.88367e-18 -1.21184e-29 2.7101e-31 48.4657 5.52088e-12 -9.57007e-14 0.290922 -3.46148e-14 -5.77464e-16)
(0 2.01974e-29 0 48.4657 -1.91747e-14 -5.19101e-14 0.290922 -6.4094e-17 -2.68976e-15)
(9.85338e-17 -2.46993e-26 -2.83281e-31 48.459 -1.54143e-31 -9.72675e-14 0.295111 0 -5.98921e-16)
(-7.00448e-17 1.59263e-29 0 48.459 -2.00328e-14 -5.25597e-14 0.295111 -1.02321e-16 -2.76809e-15)
(1.38082e-16 -2.35471e-29 -9.81129e-31 48.4523 9.46877e-14 -9.93969e-14 0.299361 -1.51435e-15 -6.20694e-16)
(0 1.96226e-29 0 48.4523 -2.03516e-14 -5.32123e-14 0.299361 -1.41746e-16 -2.84854e-15)
(6.8551e-17 -2.16786e-27 -1.27693e-30 48.4455 3.15544e-30 -1.01311e-13 0.30367 0 -6.40459e-16)
(5.48408e-16 7.73654e-30 9.67067e-31 48.4455 -2.07178e-14 -5.38656e-14 0.30367 -1.82725e-16 -2.93116e-15)
(-8.90159e-17 -2.23903e-28 3.24125e-31 48.4384 2.16119e-14 -1.03008e-13 0.308039 -6.82286e-17 -6.60462e-16)
(3.56064e-16 1.52513e-29 0 48.4384 -2.10945e-14 -5.45171e-14 0.308039 -2.25436e-16 -3.01599e-15)
(-2.42005e-16 1.98865e-29 3.38842e-31 48.4308 4.34583e-14 -1.04708e-13 0.312468 -2.69674e-16 -6.81167e-16)
(4.39104e-16 -7.51636e-30 0 48.4308 -2.14486e-14 -5.51619e-14 0.312468 -2.69302e-16 -3.10309e-15)
(1.30835e-16 -1.96613e-29 -1.28014e-30 48.4224 4.32328e-14 -1.06433e-13 0.316953 -2.87223e-16 -7.02395e-16)
(0 1.48173e-29 0 48.4224 -2.18605e-14 -5.57927e-14 0.316953 -3.15045e-16 -3.1925e-15)
(0 1.46049e-29 9.12806e-31 48.4127 4.1871e-14 -1.08152e-13 0.321493 -2.74621e-16 -7.23943e-16)
(-2.56932e-16 -7.30244e-30 9.12806e-31 48.4127 -2.21809e-14 -5.64021e-14 0.321493 -3.62253e-16 -3.28421e-15)
(-1.7387e-16 -9.56357e-30 3.86191e-31 48.4011 4.21117e-14 -1.09836e-13 0.326081 -2.77547e-16 -7.45665e-16)
(0 2.15933e-29 0 48.4011 -2.23771e-14 -5.69754e-14 0.326081 -4.10488e-16 -3.37824e-15)
(1.95854e-16 -4.0297e-29 -3.95047e-30 48.3864 4.28097e-14 -1.11461e-13 0.33071 -2.8591e-16 -7.67367e-16)
(0 3.54731e-29 3.54731e-30 48.3864 -2.26742e-14 -5.75014e-14 0.33071 -4.60275e-16 -3.47456e-15)
(2.46042e-16 -2.09788e-29 -1.74823e-30 48.3675 4.35087e-14 -1.12995e-13 0.33537 -2.9522e-16 -7.88793e-16)
(-2.46042e-16 2.09788e-29 1.74823e-30 48.3675 -2.29654e-14 -5.79616e-14 0.33537 -5.11904e-16 -3.57312e-15)
(-4.83292e-16 1.16996e-29 4.39103e-31 48.3426 4.43366e-14 -1.144e-13 0.340048 -3.03981e-16 -8.09618e-16)
(9.63105e-16 0 0 48.3426 -2.34891e-14 -5.83278e-14 0.340048 -5.65211e-16 -3.67384e-15)
(0 3.39696e-29 1.69848e-30 48.3097 4.52076e-14 -1.15629e-13 0.344724 -3.15518e-16 -8.29447e-16)
(0 -3.39696e-29 -1.69848e-30 48.3097 -2.4084e-14 -5.85706e-14 0.344724 -6.21161e-16 -3.77657e-15)
(-2.86997e-16 4.78809e-30 4.77998e-31 48.2661 4.58247e-14 -1.16628e-13 0.349377 -3.25322e-16 -8.47802e-16)
(1.14799e-15 0 0 48.2661 -2.43432e-14 -5.86605e-14 0.349377 -6.79174e-16 -3.88108e-15)
(-9.28947e-16 2.64023e-29 3.30028e-30 48.2085 4.64465e-14 -1.17335e-13 0.353977 -3.337e-16 -8.6413e-16)
(-3.1346e-16 -2.64023e-29 -3.30028e-30 48.2085 -2.46194e-14 -5.85574e-14 0.353977 -7.3796e-16 -3.98714e-15)
(0 2.60238e-29 3.25298e-30 48.1332 4.70112e-14 -1.17679e-13 0.358489 -3.43989e-16 -8.77772e-16)
(-1.33815e-15 -2.60238e-29 -3.25298e-30 48.1332 -2.4479e-14 -5.82279e-14 0.358489 -7.98461e-16 -4.09434e-15)
(9.02509e-16 -1.28254e-29 -1.60318e-30 48.0357 4.75442e-14 -1.17583e-13 0.362871 -3.51893e-16 -8.87986e-16)
(-4.51255e-16 1.28254e-29 0 48.0357 -2.45943e-14 -5.76283e-14 0.362871 -8.58852e-16 -4.20226e-15)
(3.834e-16 1.42132e-29 1.01419e-30 47.911 4.85377e-14 -1.16963e-13 0.367076 -3.62127e-16 -8.93978e-16)
(-1.5336e-15 -3.1604e-29 -1.5802e-30 47.911 -2.55756e-14 -5.67052e-14 0.367076 -9.22813e-16 -4.3103e-15)
(0 2.49208e-29 1.55755e-30 47.7534 4.95003e-14 -1.15738e-13 0.371047 -3.77447e-16 -8.94921e-16)
(0 -2.49208e-29 -1.55755e-30 47.7534 -2.60087e-14 -5.54179e-14 0.371047 -9.90614e-16 -4.4178e-15)
(-4.33557e-16 -7.55517e-30 6.15557e-31 47.5568 4.98562e-14 -1.13833e-13 0.374724 -3.87722e-16 -8.9007e-16)
(0 1.84227e-29 1.53523e-30 47.5568 -2.59618e-14 -5.3729e-14 0.374724 -1.05905e-15 -4.52394e-15)
(8.18707e-16 -4.3707e-29 -5.41124e-30 47.315 5.02961e-14 -1.11185e-13 0.378041 -3.94126e-16 -8.78703e-16)
(-4.25935e-16 4.84232e-29 3.02645e-30 47.315 -2.6465e-14 -5.16046e-14 0.378041 -1.12994e-15 -4.62791e-15)
(-8.39661e-16 2.38646e-29 2.98307e-30 47.0215 5.16292e-14 -1.07744e-13 0.380929 -4.06129e-16 -8.60206e-16)
(-1.10006e-15 -2.98307e-29 -2.98307e-30 47.0215 -2.69891e-14 -4.90157e-14 0.380929 -1.20354e-15 -4.72873e-15)
(5.11029e-16 3.05922e-29 3.71438e-30 46.6701 5.27722e-14 -1.03486e-13 0.38332 -4.27345e-16 -8.34216e-16)
(0 -3.52838e-29 -4.41048e-30 46.6701 -2.69205e-14 -4.59634e-14 0.38332 -1.27628e-15 -4.82525e-15)
(-1.89051e-15 4.41382e-29 7.24462e-30 46.2553 5.28667e-14 -9.84189e-14 0.385147 -4.36878e-16 -8.00604e-16)
(8.15764e-16 -3.47781e-29 -5.79635e-30 46.2553 -2.67849e-14 -4.24735e-14 0.385147 -1.34915e-15 -4.91636e-15)
(1.6918e-15 -4.8287e-29 -5.11388e-30 45.7725 5.29167e-14 -9.25859e-14 0.386351 -4.41445e-16 -7.59622e-16)
(4.51146e-15 3.42797e-29 2.85664e-30 45.7725 -2.6754e-14 -3.85668e-14 0.386351 -1.42512e-15 -5.00102e-15)
(0 -2.81569e-29 -2.81569e-30 45.2181 5.30541e-14 -8.60646e-14 0.38688 -4.50523e-16 -7.11733e-16)
(2.36267e-15 3.37883e-29 2.81569e-30 45.2181 -2.66298e-14 -3.42933e-14 0.38688 -1.50191e-15 -5.07817e-15)
(6.17538e-16 1.75572e-29 1.96669e-30 44.5903 5.35593e-14 -7.89654e-14 0.386697 -4.56744e-16 -6.57817e-16)
(-7.81188e-16 -1.11014e-29 0 44.5903 -2.72355e-14 -2.97361e-14 0.386697 -1.57983e-15 -5.14694e-15)
(-1.289e-15 3.793e-30 1.67199e-30 43.8889 5.49565e-14 -7.14286e-14 0.385778 -4.72549e-16 -5.98964e-16)
(-5.15598e-15 5.47112e-30 0 43.8889 -2.83541e-14 -2.49708e-14 0.385778 -1.66385e-15 -5.20653e-15)
(-6.71497e-16 2.07949e-29 8.62396e-31 43.1155 5.60181e-14 -6.3614e-14 0.384115 -4.94894e-16 -5.36528e-16)
(-2.68599e-15 -1.07854e-29 0 43.1155 -2.85112e-14 -2.01291e-14 0.384115 -1.75232e-15 -5.25614e-15)
(0 3.18925e-29 2.65771e-30 42.2737 5.59757e-14 -5.57004e-14 0.381718 -5.05487e-16 -4.72102e-16)
(-2.79393e-15 -3.18925e-29 -2.65771e-30 42.2737 -2.79041e-14 -1.53163e-14 0.381718 -1.84112e-15 -5.2955e-15)
(0 -3.14354e-29 -5.23923e-30 41.3688 5.54792e-14 -4.78673e-14 0.378613 -5.08616e-16 -4.07225e-16)
(2.9016e-15 3.14354e-29 5.23923e-30 41.3688 -2.73001e-14 -1.0588e-14 0.378613 -1.9303e-15 -5.32451e-15)
(-7.52196e-16 4.57622e-30 9.32957e-31 40.4073 5.53055e-14 -4.02784e-14 0.374842 -5.11103e-16 -3.43392e-16)
(0 1.03283e-29 2.58207e-30 40.4073 -2.72818e-14 -6.04529e-15 0.374842 -2.02173e-15 -5.34322e-15)
(-7.78814e-16 3.00124e-29 3.49791e-30 39.3973 5.49642e-14 -3.30795e-14 0.370457 -5.20254e-16 -2.81972e-16)
(0 -2.54506e-29 -2.54506e-30 39.3973 -2.7327e-14 -1.79383e-15 0.370457 -2.11332e-15 -5.35175e-15)
(-8.05205e-16 2.96346e-29 5.98786e-30 38.3474 5.35886e-14 -2.63932e-14 0.365524 -5.19571e-16 -2.24186e-16)
(-4.63303e-15 -2.00687e-29 0 38.3474 -2.58827e-14 2.09649e-15 0.365524 -2.20407e-15 -5.35071e-15)
(8.31319e-16 -1.93734e-29 -3.45906e-30 37.2667 5.23869e-14 -2.03132e-14 0.360112 -5.08899e-16 -1.70979e-16)
(0 1.48358e-29 2.47263e-30 37.2667 -2.45149e-14 5.58402e-15 0.360112 -2.28791e-15 -5.34075e-15)
(8.57114e-16 -2.40225e-29 -5.8745e-30 36.1643 5.20545e-14 -1.48967e-14 0.354294 -5.11221e-16 -1.22969e-16)
(0 1.94975e-29 4.87438e-30 36.1643 -2.47909e-14 8.67445e-15 0.354294 -2.37288e-15 -5.32264e-15)
(-8.82551e-16 1.89252e-29 1.0118e-30 35.049 5.21509e-14 -1.0172e-14 0.348146 -5.17193e-16 -8.06009e-17)
(0 -9.60904e-30 0 35.049 -2.52411e-14 1.13374e-14 0.348146 -2.46454e-15 -5.297e-15)
(0 1.89426e-29 2.36783e-30 33.9293 5.19058e-14 -6.14147e-15 0.341738 -5.28141e-16 -4.40177e-17)
(0 -2.8414e-29 -2.36783e-30 33.9293 -2.52605e-14 1.35704e-14 0.341738 -2.55333e-15 -5.26481e-15)
(-9.32226e-16 1.38199e-29 -1.06911e-29 32.8127 5.004e-14 -2.56886e-15 0.335141 -5.27324e-16 -1.32489e-17)
(3.72891e-15 0 2.33389e-30 32.8127 -2.39755e-14 1.54187e-14 0.335141 -2.64134e-15 -5.22686e-15)
(0 -2.76053e-29 -4.26649e-30 31.7061 4.80486e-14 0 0.328418 -5.04839e-16 -1.57772e-30)
(3.82566e-15 2.76053e-29 2.30044e-30 31.7061 -2.28218e-14 1.6897e-14 0.328418 -2.72732e-15 -5.18413e-15)
(-2.96327e-16 1.36754e-29 3.49959e-30 30.6151 4.78588e-14 2.02791e-15 0.321625 -5.00788e-16 -1.17459e-17)
(-2.64411e-15 -2.26747e-29 -4.53494e-30 30.6151 -2.32111e-14 1.80404e-14 0.321625 -2.81392e-15 -5.13744e-15)
(1.00341e-15 -1.78599e-29 -3.26952e-30 29.5448 4.77426e-14 3.6008e-15 0.314813 -5.15568e-16 -3.14578e-17)
(0 1.34098e-29 2.23497e-30 29.5448 -2.29195e-14 1.88444e-14 0.314813 -2.90065e-15 -5.0873e-15)
(-1.02619e-15 3.21512e-32 1.03407e-30 28.4991 4.66329e-14 4.69451e-15 0.308026 -5.12938e-16 -4.62213e-17)
(0 1.32176e-29 2.20294e-30 28.4991 -2.20794e-14 1.93787e-14 0.308026 -2.99149e-15 -5.03475e-15)
(-1.73868e-16 4.25892e-30 3.30874e-30 27.4813 4.54885e-14 5.36733e-15 0.301301 -5.06239e-16 -5.64575e-17)
(4.19401e-15 -4.34273e-30 0 27.4813 -2.16212e-14 1.97076e-14 0.301301 -3.07897e-15 -4.98016e-15)
(1.20485e-15 -1.28415e-29 -2.14024e-30 26.4937 4.45092e-14 5.67469e-15 0.294669 -5.02403e-16 -6.26029e-17)
(4.28132e-15 1.7122e-29 0 26.4937 -2.13472e-14 1.98473e-14 0.294669 -3.16493e-15 -4.92414e-15)
(-1.09168e-15 4.4037e-30 1.03515e-30 25.538 4.34328e-14 5.67343e-15 0.288156 -4.98878e-16 -6.50762e-17)
(0 8.43828e-30 2.10957e-30 25.538 -2.09422e-14 1.98348e-14 0.288156 -3.25286e-15 -4.86726e-15)
(-1.11256e-15 4.39315e-30 1.03647e-30 24.6153 4.27912e-14 5.41559e-15 0.281781 -4.92373e-16 -6.44078e-17)
(0 8.31733e-30 0 24.6153 -2.05153e-14 1.96782e-14 0.281781 -3.33728e-15 -4.80982e-15)
(0 -8.19813e-30 -2.04953e-30 23.7263 4.25922e-14 4.94559e-15 0.275559 -4.98528e-16 -6.09688e-17)
(0 1.22972e-29 0 23.7263 -1.99672e-14 1.94192e-14 0.275559 -3.42133e-15 -4.75215e-15)
(-1.15294e-15 3.28098e-31 1.04065e-30 22.871 4.22994e-14 4.30271e-15 0.269504 -5.02087e-16 -5.51729e-17)
(0 1.61613e-29 0 22.871 -2.00761e-14 1.90674e-14 0.269504 -3.50565e-15 -4.69448e-15)
(-1.12095e-15 2.78768e-29 5.97361e-30 22.0495 4.20494e-14 3.52355e-15 0.263621 -5.06103e-16 -4.73209e-17)
(-4.68981e-15 -2.38944e-29 -3.9824e-30 22.0495 -1.98949e-14 1.86472e-14 0.263621 -3.59326e-15 -4.63716e-15)
(-2.29642e-15 -1.92089e-29 -2.87836e-30 21.2611 4.09893e-14 2.64126e-15 0.257918 -5.10707e-16 -3.78117e-17)
(4.76615e-15 2.3552e-29 3.92533e-30 21.2611 -1.8532e-14 1.81868e-14 0.257918 -3.67896e-15 -4.58037e-15)
(0 2.32144e-29 5.8036e-30 20.5054 3.91437e-14 1.6774e-15 0.252396 -4.94732e-16 -2.69052e-17)
(0 -2.32144e-29 -5.8036e-30 20.5054 -1.82143e-14 1.76984e-14 0.252396 -3.76154e-15 -4.52422e-15)
(-2.30189e-15 1.95785e-29 1.05542e-30 19.7813 3.78277e-14 6.53537e-16 0.247058 -4.79398e-16 -1.47557e-17)
(5.98725e-15 -1.52545e-29 0 19.7813 -1.79696e-14 1.71963e-14 0.247058 -3.8406e-15 -4.46872e-15)
(2.49263e-15 -2.36616e-29 -3.99744e-30 19.088 3.69633e-14 -4.09716e-16 0.241901 -4.75752e-16 -1.22484e-17)
(4.98525e-15 1.50358e-29 1.87948e-30 19.088 -1.74478e-14 1.67021e-14 0.241901 -3.92249e-15 -4.41414e-15)
(2.08577e-15 -1.11152e-29 -1.85254e-30 18.4245 3.57722e-14 -1.49752e-15 0.236924 -4.71136e-16 -2.67778e-17)
(-2.08577e-15 1.48203e-29 0 18.4245 -1.73408e-14 1.6179e-14 0.236924 -4.00822e-15 -4.36024e-15)
(7.74984e-16 -3.01096e-30 -7.63412e-31 17.7896 3.47613e-14 -2.59728e-15 0.232123 -4.58506e-16 -4.18167e-17)
(-2.05588e-15 1.46079e-29 1.82599e-30 17.7896 -1.67613e-14 1.56253e-14 0.232123 -4.08896e-15 -4.30741e-15)
(-2.59529e-15 3.01612e-29 5.7296e-30 17.1822 3.44341e-14 -3.69529e-15 0.227496 -4.58088e-16 -5.71493e-17)
(5.19058e-15 -2.15978e-29 -5.39945e-30 17.1822 -1.64603e-14 1.5131e-14 0.227496 -4.17221e-15 -4.25567e-15)
(-1.31405e-15 4.26957e-30 -7.06219e-31 16.6011 3.38964e-14 -4.78754e-15 0.223038 -4.63121e-16 -7.29017e-17)
(0 7.09608e-30 1.77402e-30 16.6011 -1.57726e-14 1.46695e-14 0.223038 -4.25875e-15 -4.20471e-15)
(-1.33012e-15 4.25959e-30 1.07107e-30 16.0453 3.39154e-14 -5.87442e-15 0.218744 -4.56807e-16 -8.89689e-17)
(5.32048e-15 1.39888e-29 0 16.0453 -1.42352e-14 1.42008e-14 0.218744 -4.33619e-15 -4.15459e-15)
(-3.2864e-15 1.11388e-29 1.07488e-30 15.5135 3.41236e-14 -6.93525e-15 0.214608 -4.77215e-16 -1.04888e-16)
(0 0 0 15.5135 -1.48398e-14 1.36891e-14 0.214608 -4.40504e-15 -4.10502e-15)
(-2.72263e-15 2.88529e-29 5.55585e-30 15.0047 3.30801e-14 -7.97546e-15 0.210626 -4.76046e-16 -1.21271e-16)
(-5.44527e-15 -2.0386e-29 -3.39766e-30 15.0047 -1.48272e-14 1.32325e-14 0.210626 -4.48398e-15 -4.05712e-15)
(-2.75293e-15 -4.9461e-30 -2.85568e-30 14.5177 3.16318e-14 -8.99748e-15 0.206791 -4.61405e-16 -1.37561e-16)
(1.10117e-14 1.33958e-29 3.34896e-30 14.5177 -1.23728e-14 1.28524e-14 0.206791 -4.55567e-15 -4.00974e-15)
(-4.17398e-15 3.90601e-29 4.06377e-44 14.0516 3.01292e-14 3.05655e-28 0.203099 -4.48044e-16 3.44851e-45)
(-7.42358e-15 -2.64077e-29 -4.95144e-30 14.0516 -1.11994e-14 1.23918e-14 0.203099 -4.62409e-15 -3.96282e-15)
(-1.40591e-15 -1.53108e-29 -5.47726e-30 13.6053 3.0112e-14 3.96864e-14 0.199544 -4.30769e-16 -4.79839e-16)
(5.62365e-15 1.95219e-29 6.5073e-30 13.6053 -1.20001e-14 1.19564e-14 0.199544 -4.69974e-15 -3.91742e-15)
(1.42023e-15 -1.70239e-29 -2.58205e-30 13.1779 3.03409e-14 4.58128e-14 0.19612 -4.60654e-16 -6.963e-16)
(0 1.28281e-29 1.60351e-30 13.1779 -1.32986e-14 1.15604e-14 0.19612 -4.7703e-15 -3.87236e-15)
(0 -2.52884e-29 -4.74158e-30 12.7683 2.89308e-14 4.40143e-14 0.192823 -4.50312e-16 -6.79188e-16)
(5.7372e-15 2.52884e-29 4.74158e-30 12.7683 -1.2416e-14 1.12505e-14 0.192823 -4.84137e-15 -3.82861e-15)
(3.50802e-15 -1.2463e-29 -3.11575e-30 12.3759 2.79812e-14 4.2303e-14 0.189647 -4.3088e-16 -6.6151e-16)
(5.79248e-15 1.2463e-29 0 12.3759 -1.07316e-14 1.10168e-14 0.189647 -4.91225e-15 -3.78523e-15)
(-1.72887e-15 2.45687e-29 3.07109e-30 11.9996 2.81474e-14 4.06367e-14 0.186587 -4.33939e-16 -6.45811e-16)
(5.84682e-15 -6.14218e-30 0 11.9996 -1.07689e-14 1.06882e-14 0.186587 -4.97922e-15 -3.74181e-15)
(0 1.81624e-29 4.54061e-30 11.6387 2.7863e-14 3.89627e-14 0.183638 -4.4875e-16 -6.28259e-16)
(0 -1.81624e-29 -4.54061e-30 11.6387 -1.15125e-14 1.03861e-14 0.183638 -5.05121e-15 -3.69912e-15)
(-2.9764e-15 1.42584e-29 1.78197e-30 11.2924 2.69183e-14 3.73917e-14 0.180795 -4.3754e-16 -6.11089e-16)
(0 -5.96738e-30 0 11.2924 -1.15026e-14 1.01075e-14 0.180795 -5.12885e-15 -3.65676e-15)
(0 -1.76455e-29 -5.88185e-30 10.96 2.70404e-14 3.59451e-14 0.178055 -4.31183e-16 -5.9559e-16)
(6.00449e-15 1.76455e-29 5.88185e-30 10.96 -1.0865e-14 9.83814e-15 0.178055 -5.20528e-15 -3.61484e-15)
(0 1.15951e-29 2.89877e-30 10.6408 2.67257e-14 3.452e-14 0.175412 -4.54385e-16 -5.81279e-16)
(6.05538e-15 -5.79755e-30 0 10.6408 -1.05799e-14 9.66269e-15 0.175412 -5.27647e-15 -3.57363e-15)
(-1.52637e-15 9.82772e-30 2.27241e-30 10.3342 2.55031e-14 3.3104e-14 0.172862 -4.33283e-16 -5.65352e-16)
(0 5.71445e-30 0 10.3342 -1.09605e-14 9.53748e-15 0.172862 -5.34004e-15 -3.53283e-15)
(1.53871e-15 7.16142e-30 -8.29066e-31 10.0396 2.46572e-14 3.17415e-14 0.170402 -4.26192e-16 -5.50234e-16)
(0 -5.63255e-30 0 10.0396 -1.09447e-14 9.37649e-15 0.170402 -5.41679e-15 -3.49139e-15)
(1.5627e-15 -1.11036e-29 -1.38796e-30 9.7563 2.29709e-14 3.04818e-14 0.168027 -4.16841e-16 -5.34987e-16)
(0 1.11036e-29 1.38796e-30 9.7563 -9.12581e-15 9.17255e-15 0.168027 -5.49085e-15 -3.45003e-15)
(0 -1.09445e-29 -4.10419e-30 9.48384 2.058e-14 2.93264e-14 0.165735 -3.79755e-16 -5.22339e-16)
(0 1.09445e-29 4.10419e-30 9.48384 -7.66972e-15 8.98088e-15 0.165735 -5.55403e-15 -3.40914e-15)
(-1.1284e-16 -2.6136e-30 -1.12313e-30 9.22167 1.93749e-14 2.82718e-14 0.163521 -3.44293e-16 -5.09698e-16)
(0 1.07876e-29 1.34845e-30 9.22167 -7.34193e-15 8.82793e-15 0.163521 -5.62104e-15 -3.36866e-15)
(-1.58629e-15 1.47118e-29 3.4313e-30 8.96931 1.95911e-14 2.71733e-14 0.161381 -3.47536e-16 -4.99709e-16)
(0 -1.0633e-29 -2.65826e-30 8.96931 -6.42479e-15 8.70964e-15 0.161381 -5.6799e-15 -3.32782e-15)
(1.59777e-15 -4.06925e-30 -7.60453e-31 8.72629 1.9881e-14 2.60625e-14 0.159314 -3.62267e-16 -4.84546e-16)
(-6.39109e-15 0 0 8.72629 -7.00816e-15 8.49488e-15 0.159314 -5.73642e-15 -3.2868e-15)
(2.90775e-15 -5.16521e-30 -1.2913e-30 8.49217 1.93221e-14 2.5082e-14 0.157316 -3.68449e-16 -4.73226e-16)
(-6.43642e-15 1.03304e-29 1.2913e-30 8.49217 -6.94536e-15 8.19159e-15 0.157316 -5.80822e-15 -3.24678e-15)
(-1.62029e-15 1.93301e-29 3.28099e-30 8.26653 1.86725e-14 2.41046e-14 0.155383 -3.51888e-16 -4.61915e-16)
(1.00962e-14 -1.01823e-29 0 8.26653 -4.8287e-15 8.05937e-15 0.155383 -5.86287e-15 -3.20735e-15)
(1.63133e-15 1.1007e-29 5.30951e-31 8.04898 1.89248e-14 2.31208e-14 0.153514 -3.54489e-16 -4.49845e-16)
(6.52532e-15 -1.50546e-29 -1.25455e-30 8.04898 -5.97285e-15 8.07018e-15 0.153514 -5.90737e-15 -3.16736e-15)
(0 0 0 7.83916 1.78377e-14 1.91177e-14 0.151705 -3.71951e-16 -4.37414e-16)
(0 9.89256e-30 2.47314e-30 7.83916 -6.06719e-15 8.05028e-15 0.151705 -5.98229e-15 -3.12692e-15)
(-1.653e-15 -1.54659e-29 -1.71558e-30 7.63669 1.60954e-14 1.52389e-14 0.149955 -3.22236e-16 -3.0602e-16)
(6.61201e-15 2.43769e-29 3.65654e-30 7.63669 -3.73862e-15 7.89293e-15 0.149955 -6.02805e-15 -3.08563e-15)
(-1.66364e-15 8.83572e-30 1.91683e-30 7.44127 1.6666e-14 1.44634e-14 0.14826 -3.13521e-16 -2.95892e-16)
(-6.65458e-15 0 0 7.44127 -3.94888e-15 7.68745e-15 0.14826 -6.07216e-15 -3.04565e-15)
(1.67416e-15 -8.75293e-30 -3.0779e-30 7.25256 1.69775e-14 1.36145e-14 0.146619 -3.54708e-16 -2.83676e-16)
(6.69664e-15 4.73664e-30 2.36832e-30 7.25256 -4.12131e-15 7.54479e-15 0.146619 -6.12446e-15 -3.0056e-15)
(-1.68455e-15 1.80177e-29 4.20593e-30 7.07027 1.61406e-14 1.27271e-14 0.145029 -3.35465e-16 -2.69794e-16)
(6.73821e-15 -1.40062e-29 -3.50156e-30 7.07027 -5.19774e-15 7.43653e-15 0.145029 -6.16623e-15 -2.96506e-15)
(-1.69483e-15 8.60835e-30 6.99776e-31 6.89411 1.63716e-14 1.18447e-14 0.143488 -3.30323e-16 -2.55111e-16)
(0 -4.60183e-30 0 6.89411 -6.70125e-15 7.42827e-15 0.143488 -6.23344e-15 -2.9255e-15)
(-1.70499e-15 3.9956e-30 6.95789e-31 6.72383 1.61944e-14 1.10233e-14 0.141994 -3.55027e-16 -2.40499e-16)
(0 4.53588e-30 0 6.72383 -5.51365e-15 7.32187e-15 0.141994 -6.2941e-15 -2.88417e-15)
(-1.71505e-15 -4.9509e-30 -1.54345e-30 6.55916 1.57732e-14 1.01117e-14 0.140546 -3.32424e-16 -2.27457e-16)
(6.86019e-15 1.34126e-29 4.47087e-30 6.55916 -4.68807e-15 7.22182e-15 0.140546 -6.34909e-15 -2.8433e-15)
(1.725e-15 -1.2794e-29 -2.89316e-30 6.39987 1.50072e-14 9.20021e-15 0.139142 -3.47151e-16 -2.07988e-16)
(0 8.81357e-30 2.20339e-30 6.39987 -5.09219e-15 7.26578e-15 0.139142 -6.4155e-15 -2.80291e-15)
(2.44524e-15 -8.68725e-30 0 6.24573 1.33839e-14 8.5413e-15 0.137779 -3.08442e-16 -1.93994e-16)
(0 8.68725e-30 0 6.24573 -5.31032e-15 7.17437e-15 0.137779 -6.4738e-15 -2.76131e-15)
(-1.74458e-15 -3.06099e-31 -1.45622e-30 6.09651 1.4112e-14 7.88429e-15 0.136457 -2.8482e-16 -1.84653e-16)
(0 4.28137e-30 2.14069e-30 6.09651 -5.27833e-15 6.95752e-15 0.136457 -6.53421e-15 -2.71881e-15)
(2.37565e-15 -3.37601e-29 -6.33001e-30 5.95203 1.54676e-14 7.0378e-15 0.135173 -3.50465e-16 -1.69907e-16)
(1.16582e-14 3.37601e-29 6.33001e-30 5.95203 -4.43487e-15 6.88604e-15 0.135173 -6.59372e-15 -2.67683e-15)
(0 0 1.03988e-30 5.81207 1.4747e-14 6.11283e-15 0.133927 -3.55481e-16 -1.51149e-16)
(7.05513e-15 4.15952e-30 2.07976e-30 5.81207 -4.63464e-15 7.03597e-15 0.133927 -6.6347e-15 -2.63522e-15)
(-1.77324e-15 2.44433e-29 4.78292e-30 5.67646 1.39109e-14 5.30253e-15 0.132716 -3.27124e-16 -1.31745e-16)
(-7.09298e-15 -1.63996e-29 -3.07493e-30 5.67646 -6.32366e-15 7.18025e-15 0.132716 -6.6915e-15 -2.59328e-15)
(-1.78262e-15 1.20182e-29 6.83351e-31 5.54502 1.38366e-14 8.84748e-15 0.13154 -3.26336e-16 -1.17236e-16)
(-7.13046e-15 -8.08229e-30 -1.01029e-30 5.54502 -6.62216e-15 7.13005e-15 0.13154 -6.75184e-15 -2.54948e-15)
(0 7.96645e-30 0 5.41758 1.387e-14 1.49085e-14 0.130397 -3.33137e-16 -3.05778e-16)
(0 -7.96645e-30 0 5.41758 -4.9174e-15 6.96839e-15 0.130397 -6.79701e-15 -2.50364e-15)
(-2.21022e-15 3.92614e-30 1.96307e-30 5.29399 1.45441e-14 1.6733e-14 0.129286 -3.37525e-16 -4.15859e-16)
(7.20442e-15 0 0 5.29399 -4.51681e-15 6.84666e-15 0.129286 -6.85085e-15 -2.45834e-15)
(-3.68315e-16 2.31889e-29 5.19333e-30 5.17408 1.44417e-14 1.61201e-14 0.128206 -3.76201e-16 -4.04886e-16)
(0 -1.93493e-29 -3.86986e-30 5.17408 -5.03337e-15 6.73642e-15 0.128206 -6.91744e-15 -2.41387e-15)
(0 -3.05152e-29 -4.768e-30 5.05773 1.22887e-14 1.55833e-14 0.127156 -3.42281e-16 -3.97316e-16)
(1.45541e-14 3.05152e-29 4.768e-30 5.05773 -3.12471e-15 4.78474e-15 0.127156 -6.97492e-15 -2.37002e-15)
(2.11654e-15 -1.12792e-29 -1.87986e-30 4.94479 1.10416e-14 1.49754e-14 0.126134 -2.77721e-16 -3.89446e-16)
(1.25093e-14 7.51946e-30 1.87986e-30 4.94479 -3.63591e-15 -9.32228e-17 0.126134 -7.0028e-15 -2.34896e-15)
(-3.67425e-15 7.77636e-30 1.16427e-30 4.83512 1.16668e-14 1.44336e-14 0.12514 -2.87961e-16 -3.77586e-16)
(0 0 0 4.83512 -5.64228e-15 -3.20999e-15 0.12514 -7.05861e-15 -2.36711e-15)
(-1.84594e-15 3.87521e-30 5.72382e-31 4.72862 1.26739e-14 1.3857e-14 0.124173 -3.18586e-16 -3.72493e-16)
(1.47675e-14 0 0 4.72862 -5.04272e-15 -3.29235e-15 0.124173 -7.1179e-15 -2.38685e-15)
(1.85469e-15 -1.10602e-29 -5.64431e-31 4.62515 1.26996e-14 1.32199e-14 0.123231 -3.49881e-16 -3.58023e-16)
(0 7.20075e-30 0 4.62515 -5.83584e-15 -3.23017e-15 0.123231 -7.16274e-15 -2.40421e-15)
(-1.86337e-15 3.85156e-30 5.55918e-31 4.5246 1.16168e-14 1.27551e-14 0.122314 -3.29303e-16 -3.49079e-16)
(0 0 8.87193e-31 4.5246 -6.13469e-15 -3.33486e-15 0.122314 -7.23345e-15 -2.39006e-15)
(-1.87198e-15 1.08434e-29 1.4218e-30 4.42687 1.067e-14 1.22807e-14 0.121421 -3.0094e-16 -3.43099e-16)
(7.48791e-15 -6.99582e-30 -8.74477e-31 4.42687 -2.72778e-15 -3.33836e-15 0.121421 -7.30019e-15 -2.34923e-15)
(-1.88052e-15 1.07382e-29 5.39715e-31 4.33186 9.34192e-15 1.17988e-14 0.120551 -2.86438e-16 -3.32997e-16)
(7.52209e-15 0 0 4.33186 4.6356e-16 -3.30585e-15 0.120551 -7.32463e-15 -2.30482e-15)
(-3.77801e-15 4.29098e-30 1.06387e-30 4.23946 7.57795e-15 1.13194e-14 0.119703 -2.35031e-16 -3.26033e-16)
(0 3.39836e-30 0 4.23946 7.46598e-16 -3.25732e-15 0.119703 -7.35145e-15 -2.26262e-15)
(-1.89743e-15 1.0545e-29 2.19982e-30 4.14958 6.98429e-15 1.09835e-14 0.118877 -1.94133e-16 -3.15386e-16)
(0 -3.34965e-30 0 4.14958 -1.75953e-16 -3.31747e-15 0.118877 -7.39098e-15 -2.21896e-15)
(0 -6.60329e-30 -1.65082e-30 4.06214 7.57029e-15 1.06964e-14 0.118072 -2.07535e-16 -3.16129e-16)
(-7.62314e-15 6.60329e-30 0 4.06214 1.37087e-16 -3.54469e-15 0.118072 -7.42569e-15 -2.17953e-15)
(1.91409e-15 -1.35927e-29 -5.09453e-31 3.97704 7.63604e-15 1.02024e-14 0.117287 -2.34252e-16 -3.07761e-16)
(7.65635e-15 9.76297e-30 0 3.97704 5.0403e-16 -3.55573e-15 0.117287 -7.44163e-15 -2.14002e-15)
(1.92233e-15 -3.82732e-30 -5.03403e-31 3.89421 7.3126e-15 9.76837e-15 0.116521 -2.17533e-16 -2.95938e-16)
(-7.68933e-15 0 0 3.89421 -4.02528e-16 -3.53234e-15 0.116521 -7.47826e-15 -2.09982e-15)
(-1.93052e-15 1.01448e-29 2.07741e-30 3.81356 7.48069e-15 9.33441e-15 0.115774 -2.21553e-16 -2.90528e-16)
(5.9422e-15 0 0 3.81356 8.41542e-17 -3.63125e-15 0.115774 -7.5118e-15 -2.06141e-15)
(1.75437e-15 6.23278e-30 1.5582e-30 3.73502 7.53089e-15 8.85638e-15 0.115045 -2.34219e-16 -2.77981e-16)
(-1.75437e-15 0 0 3.73502 4.37578e-16 -3.78856e-15 0.115045 -7.50824e-15 -2.0253e-15)
(-3.45845e-15 1.22869e-29 1.53586e-30 3.65852 7.74576e-15 8.30326e-15 0.114334 -2.31168e-16 -2.69281e-16)
(6.05772e-15 0 0 3.65852 -2.12363e-16 -3.8576e-15 0.114334 -7.53131e-15 -1.98947e-15)
(2.50325e-16 -9.85491e-30 -4.81603e-31 3.58399 8.01256e-15 7.6354e-15 0.11364 -2.5465e-16 -2.51191e-16)
(1.70444e-15 6.0554e-30 0 3.58399 -1.12972e-15 -3.73382e-15 0.11364 -7.55878e-15 -1.95318e-15)
(-3.36003e-15 5.96861e-30 0 3.51137 7.40553e-15 7.20481e-15 0.112962 -2.55035e-16 -2.34378e-16)
(-7.85099e-15 0 1.49215e-30 3.51137 -1.4311e-15 -3.72137e-15 0.112962 -7.59747e-15 -1.91462e-15)
(-3.31187e-15 0 1.47077e-30 3.44059 7.23202e-15 6.87144e-15 0.112301 -2.2265e-16 -2.30559e-16)
(0 5.88306e-30 0 3.44059 -8.23801e-16 -3.90743e-15 0.112301 -7.62522e-15 -1.87904e-15)
(0 5.79874e-30 1.44969e-30 3.37159 7.45443e-15 6.41229e-15 0.111655 -2.51062e-16 -2.19258e-16)
(-1.6322e-15 0 0 3.37159 -1.50078e-15 -3.99267e-15 0.111655 -7.64495e-15 -1.84455e-15)
(1.98639e-15 1.33727e-29 9.61585e-31 3.30431 5.87038e-15 5.99158e-15 0.111024 -2.44054e-16 -2.06592e-16)
(0 -1.71469e-29 -1.42891e-30 3.30431 -1.76535e-15 -3.91617e-15 0.111024 -7.65694e-15 -1.80955e-15)
(-1.17731e-15 7.48377e-30 -4.64463e-31 3.2387 3.37388e-15 5.81334e-15 0.110407 -1.50888e-16 -1.97123e-16)
(0 -5.63371e-30 1.40843e-30 3.2387 2.51743e-16 -3.91001e-15 0.110407 -7.66455e-15 -1.77302e-15)
(-4.00386e-15 2.03244e-30 9.1959e-31 3.1747 2.19992e-15 5.79248e-15 0.109804 -7.92725e-17 -2.00368e-16)
(8.00771e-15 5.55297e-30 0 3.1747 1.90857e-15 -4.02506e-15 0.109804 -7.66248e-15 -1.74017e-15)
(-2.00963e-15 -1.68015e-30 4.55372e-31 3.11227 2.81831e-15 5.62539e-15 0.109216 -7.32832e-17 -2.0144e-16)
(0 5.47338e-30 1.36834e-30 3.11227 1.063e-15 -3.95609e-15 0.109216 -7.66085e-15 -1.70874e-15)
(0 5.39493e-30 0 3.05135 3.10236e-15 5.50647e-15 0.10864 -1.2543e-16 -1.94393e-16)
(-3.03708e-15 0 0 3.05135 5.76534e-16 -3.89314e-15 0.10864 -7.67965e-15 -1.67609e-15)
(0 5.31761e-30 1.3294e-30 2.9919 3.26694e-15 5.56684e-15 0.108077 -9.58574e-17 -1.98789e-16)
(0 0 0 2.9919 4.11799e-16 -3.98373e-15 0.108077 -7.66222e-15 -1.6478e-15)
(-5.90128e-15 1.57242e-29 2.6207e-30 2.93386 4.61064e-15 5.65591e-15 0.107526 -1.41113e-16 -2.04492e-16)
(0 0 0 2.93386 -2.97654e-17 -4.37509e-15 0.107526 -7.67099e-15 -1.62273e-15)
(0 5.16627e-30 1.29157e-30 2.87721 3.99227e-15 5.40345e-15 0.106988 -1.98131e-16 -2.11205e-16)
(1.63201e-14 0 0 2.87721 6.18448e-16 -2.55664e-15 0.106988 -7.71215e-15 -1.60469e-15)
(-4.09503e-15 7.56562e-30 8.72566e-31 2.82189 2.84893e-15 4.97435e-15 0.106461 -9.88077e-17 -1.91522e-16)
(8.19005e-15 0 0 2.82189 5.93185e-16 -1.32236e-16 0.106461 -7.69604e-15 -1.54336e-15)
(4.88055e-15 -1.38176e-29 -1.68882e-30 2.76786 2.97608e-15 4.8675e-15 0.105946 -1.16821e-16 -1.84698e-16)
(0 1.00385e-29 1.25481e-30 2.76786 -1.41684e-15 2.19067e-16 0.105946 -7.70061e-15 -1.47952e-15)
(0 0 1.23683e-30 2.71509 2.91628e-15 4.99903e-15 0.105442 -1.11531e-16 -1.88873e-16)
(-8.24957e-15 4.9473e-30 0 2.71509 -1.31274e-15 1.79845e-16 0.105442 -7.76111e-15 -1.41619e-15)
(-2.06978e-15 -1.57297e-29 4.24666e-31 2.66354 3.20119e-15 4.95201e-15 0.104948 -1.15553e-16 -2.00423e-16)
(8.27911e-15 1.95056e-29 0 2.66354 3.60791e-16 1.96644e-17 0.104948 -7.78176e-15 -1.35724e-15)
(-2.70582e-15 4.8065e-30 1.20163e-30 2.61318 2.53866e-15 2.08623e-15 0.104465 -1.37467e-16 -1.90665e-16)
(0 0 0 2.61318 -1.25776e-15 1.52196e-16 0.104465 -7.79801e-15 -1.29917e-15)
(2.66704e-15 -9.47523e-30 -1.1844e-30 2.56396 1.82154e-15 -1.55369e-15 0.103991 -6.54572e-17 -1.01841e-16)
(0 4.73761e-30 1.1844e-30 2.56396 -2.98005e-15 3.56638e-16 0.103991 -7.83414e-15 -1.23781e-15)
(-2.09172e-15 3.7731e-30 4.44025e-31 2.51585 2.7825e-15 -2.53235e-15 0.103528 -8.27658e-17 -1.0708e-16)
(0 0 0 2.51585 -1.45456e-15 3.38219e-16 0.103528 -7.8909e-15 -1.1783e-15)
(9.84335e-16 -2.00976e-29 -1.40804e-30 2.46883 3.86204e-15 -2.90528e-15 0.103074 -1.47217e-16 -1.36261e-16)
(1.67917e-14 2.76167e-29 1.1507e-30 2.46883 -1.31553e-16 -2.61981e-15 0.103074 -7.91799e-15 -1.12049e-15)
(0 4.53681e-30 0 2.42286 5.31321e-15 -3.46496e-15 0.102629 -1.76188e-16 -1.5808e-16)
(0 0 0 2.42286 -2.2913e-15 -5.82313e-15 0.102629 -7.94108e-15 -1.12221e-15)
(-5.03479e-15 8.94358e-30 0 2.37791 6.44348e-15 -3.77753e-15 0.102194 -2.75634e-16 -1.67373e-16)
(0 0 0 2.37791 -3.01031e-15 -6.32635e-15 0.102194 -8.03002e-15 -1.1327e-15)
(-3.88023e-15 -1.53247e-29 1.29686e-30 2.33396 5.63495e-15 -4.163e-15 0.101767 -2.79415e-16 -1.96641e-16)
(1.69641e-14 3.08539e-29 0 2.33396 -1.16075e-15 -6.36863e-15 0.101767 -8.06439e-15 -1.15133e-15)
(0 -2.60671e-29 0 2.29097 4.26797e-15 -4.77213e-15 0.101348 -2.12537e-16 -2.26674e-16)
(1.70211e-14 2.60671e-29 0 2.29097 -2.42016e-15 -5.86744e-15 0.101348 -8.04346e-15 -1.16267e-15)
(-2.13472e-15 1.22796e-29 1.49594e-30 2.24892 3.61419e-15 -5.11847e-15 0.100938 -1.65523e-16 -2.3378e-16)
(-2.41069e-15 -4.28225e-30 0 2.24892 -3.16996e-15 -5.56395e-15 0.100938 -8.09012e-15 -1.16746e-15)
(2.14178e-15 -2.90362e-29 -1.47789e-30 2.20778 3.54486e-15 -5.32562e-15 0.100535 -1.59528e-16 -2.52356e-16)
(1.71343e-14 2.53253e-29 1.05522e-30 2.20778 -1.1112e-15 -5.52108e-15 0.100535 -8.13792e-15 -1.17697e-15)
(0 -1.66415e-29 0 2.16753 3.49284e-15 -5.56248e-15 0.100141 -1.63998e-16 -2.62717e-16)
(8.59526e-15 1.66415e-29 0 2.16753 -3.02595e-15 -5.30012e-15 0.100141 -8.14108e-15 -1.18368e-15)
(2.15582e-15 -7.80269e-30 -4.18913e-31 2.12814 3.77299e-15 -5.83659e-15 0.0997539 -1.5935e-16 -2.85683e-16)
(0 4.10075e-30 0 2.12814 -3.67066e-15 -4.80061e-15 0.0997539 -8.22994e-15 -1.18632e-15)
(4.32558e-15 -3.34449e-30 -8.36419e-31 2.0896 2.74519e-15 -6.05744e-15 0.0993743 -1.95309e-16 -2.91612e-16)