/*--------------------------------*- C++ -*----------------------------------*\
| =========                 |                                                 |
| \\      /  F ield         | OpenFOAM: The Open Source CFD Toolbox           |
|  \\    /   O peration     | Version:  2106                                  |
|   \\  /    A nd           | Website:  www.openfoam.com                      |
|    \\/     M anipulation  |                                                 |
\*---------------------------------------------------------------------------*/
FoamFile
{
    version     2.0;
    format      ascii;
    arch        "LSB;label=32;scalar=64";
    class       volScalarField;
    location    "12000";
    object      p;
}
// * * * * * * * * * * * * * * * * * * * * * * * * * * * * * * * * * * * * * //

dimensions      [0 2 -2 0 0 0 0];

internalField   nonuniform List<scalar> 
2560
(
2.32829e-15
2.1699e-15
5.12545e-15
2.1698e-15
5.33057e-15
2.16949e-15
4.8012e-15
2.16902e-15
4.44555e-15
2.16839e-15
4.19627e-15
2.1676e-15
3.96084e-15
2.16666e-15
3.72205e-15
2.16558e-15
3.48382e-15
2.16432e-15
3.24878e-15
2.1629e-15
3.01714e-15
2.16129e-15
2.78884e-15
2.15952e-15
2.56393e-15
2.15756e-15
2.3424e-15
2.15546e-15
2.12432e-15
2.15313e-15
1.90957e-15
2.15067e-15
1.69819e-15
2.14805e-15
1.49011e-15
2.14522e-15
1.28531e-15
2.14218e-15
1.08382e-15
2.13897e-15
8.85515e-16
2.13555e-15
6.9024e-16
2.13196e-15
4.98046e-16
2.12816e-15
3.09046e-16
2.12413e-15
1.23019e-16
2.11981e-15
-6.01772e-17
2.11524e-15
-2.40655e-16
2.11055e-15
-4.18147e-16
2.10571e-15
-5.92812e-16
2.10072e-15
-7.6491e-16
2.0955e-15
-9.34368e-16
2.08987e-15
-1.10132e-15
2.08386e-15
-1.266e-15
2.07777e-15
-1.42826e-15
2.07148e-15
-1.58828e-15
2.06509e-15
-1.74631e-15
2.05841e-15
-1.90235e-15
2.05143e-15
-2.0563e-15
2.04423e-15
-2.20836e-15
2.03682e-15
-2.3588e-15
2.02906e-15
-2.50782e-15
2.02109e-15
-2.65542e-15
2.01287e-15
-2.80169e-15
2.00435e-15
-2.94679e-15
1.99552e-15
-3.09091e-15
1.98614e-15
-3.23439e-15
1.97653e-15
-3.37728e-15
1.96655e-15
-3.51941e-15
1.95619e-15
-3.6613e-15
1.94525e-15
-3.80324e-15
1.93386e-15
-3.94471e-15
1.92215e-15
-4.08645e-15
1.90978e-15
-4.22864e-15
1.89687e-15
-4.37107e-15
1.88333e-15
-4.51392e-15
1.86915e-15
-4.65732e-15
1.85459e-15
-4.80129e-15
1.83954e-15
-4.94562e-15
1.82351e-15
-5.09104e-15
1.80663e-15
-5.2378e-15
1.78965e-15
-5.38579e-15
1.77209e-15
-5.535e-15
1.75422e-15
-5.68552e-15
1.7354e-15
-5.83734e-15
1.7159e-15
-5.99081e-15
1.69599e-15
-6.14618e-15
1.6753e-15
-6.30312e-15
1.65383e-15
-6.46173e-15
1.63187e-15
-6.62179e-15
1.60888e-15
-6.7831e-15
1.58544e-15
-6.94715e-15
1.5613e-15
-7.11288e-15
1.53618e-15
-7.28035e-15
1.50978e-15
-7.44868e-15
1.48244e-15
-7.61824e-15
1.45449e-15
-7.78968e-15
1.42564e-15
-7.96275e-15
1.39528e-15
-8.13718e-15
1.36409e-15
-8.31332e-15
1.33176e-15
-8.49057e-15
1.29933e-15
-8.67032e-15
1.26687e-15
-8.85229e-15
1.23238e-15
-9.03516e-15
1.19588e-15
-9.22072e-15
1.15987e-15
-9.40799e-15
1.12443e-15
-9.59665e-15
1.08785e-15
-9.78675e-15
1.04946e-15
-9.9791e-15
1.00891e-15
-1.01719e-14
9.67379e-16
-1.03659e-14
9.25324e-16
-1.05612e-14
8.80506e-16
-1.07583e-14
8.33743e-16
-1.09564e-14
7.85892e-16
-1.1156e-14
7.36637e-16
-1.13556e-14
6.84433e-16
-1.15576e-14
6.29333e-16
-1.17581e-14
5.73892e-16
-1.19629e-14
5.19075e-16
-1.21706e-14
4.60774e-16
-1.23769e-14
3.9905e-16
-1.25836e-14
3.35717e-16
-1.279e-14
2.70009e-16
-1.30006e-14
2.01141e-16
-1.32093e-14
1.31903e-16
-1.34152e-14
6.06378e-17
-1.36222e-14
-1.52729e-17
-1.38284e-14
-9.3896e-17
-1.4034e-14
-1.76038e-16
-1.42383e-14
-2.62524e-16
-1.44431e-14
-3.4849e-16
-1.46487e-14
-4.3757e-16
-1.48553e-14
-5.27682e-16
-1.50621e-14
-6.22543e-16
-1.52663e-14
-7.21036e-16
-1.5471e-14
-8.20025e-16
-1.56765e-14
-9.20296e-16
-1.5882e-14
-1.02567e-15
-1.60866e-14
-1.13295e-15
-1.62928e-14
-1.24191e-15
-1.64954e-14
-1.35234e-15
-1.66938e-14
-1.47336e-15
-1.68944e-14
-1.59753e-15
-1.70922e-14
-1.72464e-15
-1.72864e-14
-1.85659e-15
-1.74762e-14
-1.99531e-15
-1.76651e-14
-2.13415e-15
-1.78522e-14
-2.27501e-15
-1.80356e-14
-2.41763e-15
-1.82157e-14
-2.56614e-15
-1.8395e-14
-2.7181e-15
-1.85738e-14
-2.86659e-15
-1.87524e-14
-3.00902e-15
-1.89267e-14
-3.15175e-15
-1.90994e-14
-3.29897e-15
-1.92776e-14
-3.44357e-15
-1.9455e-14
-3.58518e-15
-1.96251e-14
-3.7372e-15
-1.97952e-14
-3.89012e-15
-1.99611e-14
-4.03893e-15
-2.0121e-14
-4.19725e-15
-2.02823e-14
-4.36946e-15
-2.04408e-14
-4.53647e-15
-2.05993e-14
-4.70255e-15
-2.07512e-14
-4.87923e-15
-2.08995e-14
-5.05663e-15
-2.10445e-14
-5.23436e-15
-2.11893e-14
-5.41443e-15
-2.13223e-14
-5.60372e-15
-2.14489e-14
-5.80191e-15
-2.15719e-14
-5.99649e-15
-2.16919e-14
-6.19438e-15
-2.18021e-14
-6.38783e-15
-2.19104e-14
-6.57642e-15
-2.2015e-14
-6.76713e-15
-2.21313e-14
-6.96205e-15
-2.22476e-14
-7.16328e-15
-2.23521e-14
-7.36793e-15
-2.24504e-14
-7.55799e-15
-2.2543e-14
-7.74556e-15
-2.26357e-14
-7.9529e-15
-2.27267e-14
-8.16453e-15
-2.28217e-14
-8.37244e-15
-2.29087e-14
-8.57872e-15
-2.29833e-14
-8.78806e-15
-2.30589e-14
-9.00007e-15
-2.31259e-14
-9.21951e-15
-2.3185e-14
-9.44092e-15
-2.32472e-14
-9.6588e-15
-2.33029e-14
-9.878e-15
-2.33526e-14
-1.0093e-14
-2.33971e-14
-1.03034e-14
-2.34318e-14
-1.05141e-14
-2.34679e-14
-1.07353e-14
-2.35007e-14
-1.09562e-14
-2.35257e-14
-1.11765e-14
-2.35487e-14
-1.14013e-14
-2.35651e-14
-1.16252e-14
-2.35756e-14
-1.18531e-14
-2.35911e-14
-1.20692e-14
-2.36123e-14
-1.2268e-14
-2.36241e-14
-1.24756e-14
-2.36325e-14
-1.26866e-14
-2.36432e-14
-1.29061e-14
-2.36462e-14
-1.3118e-14
-2.36474e-14
-1.33276e-14
-2.36421e-14
-1.35506e-14
-2.36412e-14
-1.37872e-14
-2.36452e-14
-1.40213e-14
-2.36386e-14
-1.42532e-14
-2.36431e-14
-1.44829e-14
-2.36431e-14
-1.47105e-14
-2.36391e-14
-1.49575e-14
-2.36365e-14
-1.52135e-14
-2.3625e-14
-1.54521e-14
-2.36208e-14
-1.56792e-14
-2.36134e-14
-1.59378e-14
-2.36137e-14
-1.61802e-14
-2.36217e-14
-1.63857e-14
-2.36219e-14
-1.65972e-14
-2.3625e-14
-1.68258e-14
-2.36261e-14
-1.70345e-14
-2.36412e-14
-1.72396e-14
-2.36547e-14
-1.74417e-14
-2.36615e-14
-1.76411e-14
-2.36724e-14
-1.78435e-14
-2.3677e-14
-1.80494e-14
-2.36859e-14
-1.82381e-14
-2.36992e-14
-1.84315e-14
-2.37064e-14
-1.86301e-14
-2.37288e-14
-1.88028e-14
-2.37348e-14
-1.89501e-14
-2.37354e-14
-1.91042e-14
-2.37308e-14
-1.92764e-14
-2.37103e-14
-1.94248e-14
-2.36742e-14
-1.95399e-14
-2.36545e-14
-1.96223e-14
-2.36198e-14
-1.9725e-14
-2.35915e-14
-1.98379e-14
-2.3559e-14
-1.99511e-14
-2.35224e-14
-2.00234e-14
-2.34819e-14
-2.01183e-14
-2.34375e-14
-2.02257e-14
-2.33992e-14
-2.03047e-14
-2.33671e-14
-2.03663e-14
-2.33308e-14
-2.04627e-14
-2.33007e-14
-2.05635e-14
-2.32554e-14
-2.06383e-14
-2.32154e-14
-2.06981e-14
-2.317e-14
-2.07432e-14
-2.31399e-14
-2.07948e-14
-2.31045e-14
-2.08839e-14
-2.30736e-14
-2.09496e-14
-2.30471e-14
-2.0972e-14
-2.30149e-14
-2.10434e-14
-2.2987e-14
-2.11234e-14
-2.29831e-14
-2.1162e-14
-2.29526e-14
-2.12101e-14
-2.29258e-14
-2.12579e-14
-2.29023e-14
-2.13258e-14
-2.28713e-14
-2.13747e-14
-2.28322e-14
-2.14254e-14
-2.2804e-14
-2.14988e-14
-2.27654e-14
-2.15762e-14
-2.27545e-14
-2.16195e-14
-2.27309e-14
-2.1679e-14
-2.26932e-14
-2.16966e-14
-2.26606e-14
-2.1732e-14
-2.26313e-14
-2.17855e-14
-2.26237e-14
-2.18583e-14
-2.25975e-14
-2.19131e-14
-2.25126e-14
-2.1971e-14
-2.24819e-14
-2.19187e-14
-2.24281e-14
-2.18903e-14
-2.24081e-14
-2.18084e-14
-2.2385e-14
-2.17658e-14
-2.236e-14
-2.17797e-14
-2.2313e-14
-2.1793e-14
-2.22616e-14
-2.1769e-14
-2.22062e-14
-2.17079e-14
-2.21843e-14
-2.1665e-14
-2.21585e-14
-2.16389e-14
-2.20928e-14
-2.16471e-14
-2.20593e-14
-2.16353e-14
-2.1965e-14
-2.16397e-14
-2.19169e-14
-2.16263e-14
-2.18397e-14
-2.16329e-14
-2.18206e-14
-2.1662e-14
-2.17853e-14
-2.1679e-14
-2.17137e-14
-2.1668e-14
-2.17099e-14
-2.16311e-14
-2.1721e-14
-2.16022e-14
-2.17488e-14
-2.16317e-14
-2.17585e-14
-2.16838e-14
-2.1714e-14
-2.16558e-14
-2.1666e-14
-2.16016e-14
-2.16489e-14
-2.15558e-14
-2.16286e-14
-2.15858e-14
-2.16705e-14
-2.16087e-14
-2.16402e-14
-2.15903e-14
-2.16381e-14
-2.15479e-14
-2.15812e-14
-2.15291e-14
-2.15824e-14
-2.15338e-14
-2.16078e-14
-2.15765e-14
-2.16249e-14
-2.16079e-14
-2.16173e-14
-2.15796e-14
-2.16175e-14
-2.15389e-14
-2.16438e-14
-2.15623e-14
-2.16172e-14
-2.16005e-14
-2.16303e-14
-2.15474e-14
-2.16239e-14
-2.14913e-14
-2.15702e-14
-2.14595e-14
-2.1561e-14
-2.1452e-14
-2.14443e-14
-2.14392e-14
-2.14541e-14
-2.13997e-14
-2.1443e-14
-2.13608e-14
-2.13548e-14
-2.13199e-14
-2.12739e-14
-2.13103e-14
-2.13109e-14
-2.12804e-14
-2.12421e-14
-2.11955e-14
-2.12116e-14
-2.11983e-14
-2.11604e-14
-2.11504e-14
-2.1121e-14
-2.10532e-14
-2.1072e-14
-2.09575e-14
-2.09878e-14
-2.08828e-14
-2.09772e-14
-2.0855e-14
-2.08549e-14
-2.08428e-14
-2.08225e-14
-2.08043e-14
-2.07685e-14
-2.07672e-14
-2.07181e-14
-2.0758e-14
-2.06931e-14
-2.07546e-14
-2.07146e-14
-2.07084e-14
-2.07659e-14
-2.0715e-14
-2.07551e-14
-2.07159e-14
-2.07291e-14
-2.07109e-14
-2.07622e-14
-2.07296e-14
-2.07557e-14
-2.0745e-14
-2.07554e-14
-2.07377e-14
-2.07388e-14
-2.07305e-14
-2.07545e-14
-2.07504e-14
-2.07526e-14
-2.07519e-14
-8.05185e-15
-8.85925e-15
-8.05184e-15
-8.85922e-15
-8.05195e-15
-8.85924e-15
-8.05214e-15
-8.85928e-15
-8.05237e-15
-8.85935e-15
-8.05267e-15
-8.85944e-15
-8.05303e-15
-8.85954e-15
-8.05344e-15
-8.85963e-15
-8.05391e-15
-8.85976e-15
-8.05441e-15
-8.85993e-15
-8.055e-15
-8.8601e-15
-8.05567e-15
-8.86033e-15
-8.05639e-15
-8.86058e-15
-8.05712e-15
-8.86085e-15
-8.05795e-15
-8.86111e-15
-8.05881e-15
-8.86137e-15
-8.05977e-15
-8.8617e-15
-8.06076e-15
-8.86209e-15
-8.06179e-15
-8.8625e-15
-8.06294e-15
-8.86298e-15
-8.06414e-15
-8.86344e-15
-8.06546e-15
-8.86385e-15
-8.06677e-15
-8.86423e-15
-8.06824e-15
-8.86466e-15
-8.06965e-15
-8.86522e-15
-8.07116e-15
-8.86587e-15
-8.07282e-15
-8.86648e-15
-8.07451e-15
-8.86707e-15
-8.07618e-15
-8.86757e-15
-8.07794e-15
-8.86817e-15
-8.07982e-15
-8.86897e-15
-8.08175e-15
-8.86981e-15
-8.08371e-15
-8.8705e-15
-8.08569e-15
-8.87114e-15
-8.08776e-15
-8.87204e-15
-8.08985e-15
-8.8729e-15
-8.09191e-15
-8.87385e-15
-8.09406e-15
-8.87477e-15
-8.09618e-15
-8.87594e-15
-8.09839e-15
-8.87717e-15
-8.10069e-15
-8.87829e-15
-8.10321e-15
-8.87932e-15
-8.10569e-15
-8.88044e-15
-8.1081e-15
-8.8818e-15
-8.11061e-15
-8.88304e-15
-8.11327e-15
-8.88442e-15
-8.11591e-15
-8.88594e-15
-8.11865e-15
-8.88728e-15
-8.1215e-15
-8.88878e-15
-8.12457e-15
-8.89047e-15
-8.12762e-15
-8.89224e-15
-8.13079e-15
-8.89398e-15
-8.13382e-15
-8.89559e-15
-8.13709e-15
-8.89744e-15
-8.1407e-15
-8.89906e-15
-8.14431e-15
-8.9007e-15
-8.14803e-15
-8.90274e-15
-8.15175e-15
-8.90471e-15
-8.15582e-15
-8.9066e-15
-8.15989e-15
-8.90882e-15
-8.1642e-15
-8.91086e-15
-8.16875e-15
-8.91286e-15
-8.17354e-15
-8.91457e-15
-8.17859e-15
-8.91678e-15
-8.18401e-15
-8.91885e-15
-8.18914e-15
-8.92091e-15
-8.19493e-15
-8.9234e-15
-8.20083e-15
-8.92548e-15
-8.20711e-15
-8.92829e-15
-8.2135e-15
-8.93129e-15
-8.22057e-15
-8.9342e-15
-8.22773e-15
-8.93702e-15
-8.23498e-15
-8.93975e-15
-8.24231e-15
-8.94272e-15
-8.25064e-15
-8.94562e-15
-8.25903e-15
-8.94941e-15
-8.26781e-15
-8.95381e-15
-8.27663e-15
-8.95785e-15
-8.28582e-15
-8.96221e-15
-8.29637e-15
-8.96657e-15
-8.30661e-15
-8.97093e-15
-8.31753e-15
-8.97599e-15
-8.3288e-15
-8.98075e-15
-8.3404e-15
-8.98589e-15
-8.35231e-15
-8.99109e-15
-8.36526e-15
-8.99673e-15
-8.37887e-15
-9.00171e-15
-8.39277e-15
-9.00753e-15
-8.40731e-15
-9.0146e-15
-8.42249e-15
-9.02028e-15
-8.43752e-15
-9.02765e-15
-8.45433e-15
-9.03362e-15
-8.47133e-15
-9.04016e-15
-8.48892e-15
-9.04889e-15
-8.50787e-15
-9.05665e-15
-8.52738e-15
-9.0634e-15
-8.54823e-15
-9.06914e-15
-8.5696e-15
-9.07555e-15
-8.59059e-15
-9.0869e-15
-8.61289e-15
-9.09817e-15
-8.63647e-15
-9.10761e-15
-8.66309e-15
-9.11697e-15
-8.68832e-15
-9.12625e-15
-8.71297e-15
-9.13726e-15
-8.73881e-15
-9.14824e-15
-8.76306e-15
-9.16011e-15
-8.78933e-15
-9.17291e-15
-8.81574e-15
-9.18387e-15
-8.84131e-15
-9.19767e-15
-8.8669e-15
-9.21154e-15
-8.89341e-15
-9.22357e-15
-8.92274e-15
-9.23664e-15
-8.95292e-15
-9.25274e-15
-8.98193e-15
-9.26898e-15
-9.01166e-15
-9.28439e-15
-9.04305e-15
-9.29895e-15
-9.08011e-15
-9.31369e-15
-9.1147e-15
-9.33064e-15
-9.15286e-15
-9.3437e-15
-9.19147e-15
-9.35798e-15
-9.23046e-15
-9.37351e-15
-9.2708e-15
-9.3924e-15
-9.31241e-15
-9.4126e-15
-9.35418e-15
-9.42987e-15
-9.39601e-15
-9.44524e-15
-9.43996e-15
-9.45976e-15
-9.48924e-15
-9.4745e-15
-9.54055e-15
-9.48944e-15
-9.59382e-15
-9.50676e-15
-9.64456e-15
-9.52649e-15
-9.69709e-15
-9.54641e-15
-9.74911e-15
-9.56425e-15
-9.80049e-15
-9.58674e-15
-9.85566e-15
-9.6139e-15
-9.91454e-15
-9.63894e-15
-9.97021e-15
-9.66639e-15
-1.00248e-14
-9.69395e-15
-1.00828e-14
-9.72391e-15
-1.01441e-14
-9.75395e-15
-1.0204e-14
-9.79105e-15
-1.02577e-14
-9.83524e-15
-1.03189e-14
-9.87713e-15
-1.03783e-14
-9.91431e-15
-1.04381e-14
-9.9562e-15
-1.0498e-14
-1.00052e-14
-1.05651e-14
-1.00542e-14
-1.06345e-14
-1.01006e-14
-1.07013e-14
-1.01469e-14
-1.07676e-14
-1.01978e-14
-1.08358e-14
-1.02533e-14
-1.09081e-14
-1.03084e-14
-1.0977e-14
-1.03706e-14
-1.10472e-14
-1.04299e-14
-1.11137e-14
-1.04887e-14
-1.11812e-14
-1.05618e-14
-1.12494e-14
-1.06369e-14
-1.13157e-14
-1.07089e-14
-1.13948e-14
-1.07802e-14
-1.1469e-14
-1.08482e-14
-1.15381e-14
-1.09179e-14
-1.16119e-14
-1.09918e-14
-1.16927e-14
-1.10648e-14
-1.17651e-14
-1.11468e-14
-1.18493e-14
-1.12226e-14
-1.19193e-14
-1.12997e-14
-1.19955e-14
-1.13728e-14
-1.20827e-14
-1.14316e-14
-1.21654e-14
-1.14963e-14
-1.22485e-14
-1.15721e-14
-1.23369e-14
-1.16484e-14
-1.24252e-14
-1.17146e-14
-1.25133e-14
-1.17914e-14
-1.25957e-14
-1.1889e-14
-1.26773e-14
-1.19813e-14
-1.27735e-14
-1.20575e-14
-1.28633e-14
-1.2149e-14
-1.29568e-14
-1.22344e-14
-1.30592e-14
-1.2303e-14
-1.31544e-14
-1.23808e-14
-1.32529e-14
-1.24727e-14
-1.33491e-14
-1.25681e-14
-1.3464e-14
-1.26613e-14
-1.35762e-14
-1.27627e-14
-1.3691e-14
-1.28773e-14
-1.38185e-14
-1.29942e-14
-1.39377e-14
-1.31025e-14
-1.40534e-14
-1.32072e-14
-1.4171e-14
-1.33186e-14
-1.42903e-14
-1.34468e-14
-1.44003e-14
-1.35651e-14
-1.45168e-14
-1.36943e-14
-1.46396e-14
-1.38342e-14
-1.47631e-14
-1.39578e-14
-1.48871e-14
-1.40753e-14
-1.50114e-14
-1.41969e-14
-1.51253e-14
-1.43381e-14
-1.52391e-14
-1.44773e-14
-1.53844e-14
-1.45928e-14
-1.55187e-14
-1.47212e-14
-1.5631e-14
-1.48782e-14
-1.5753e-14
-1.50154e-14
-1.58898e-14
-1.51485e-14
-1.60304e-14
-1.5277e-14
-1.61642e-14
-1.54163e-14
-1.63016e-14
-1.55659e-14
-1.64531e-14
-1.56935e-14
-1.65974e-14
-1.58089e-14
-1.67346e-14
-1.59433e-14
-1.68645e-14
-1.60642e-14
-1.69979e-14
-1.61708e-14
-1.71133e-14
-1.62943e-14
-1.7232e-14
-1.64022e-14
-1.73326e-14
-1.6515e-14
-1.73937e-14
-1.66215e-14
-1.74466e-14
-1.67215e-14
-1.7533e-14
-1.68147e-14
-1.76104e-14
-1.69112e-14
-1.76997e-14
-1.70001e-14
-1.77795e-14
-1.70808e-14
-1.78604e-14
-1.71735e-14
-1.79422e-14
-1.72884e-14
-1.80454e-14
-1.74043e-14
-1.81282e-14
-1.75206e-14
-1.82111e-14
-1.76373e-14
-1.82833e-14
-1.77543e-14
-1.8386e-14
-1.78717e-14
-1.85188e-14
-1.79993e-14
-1.85992e-14
-1.81369e-14
-1.86784e-14
-1.82329e-14
-1.87563e-14
-1.83289e-14
-1.88328e-14
-1.84555e-14
-1.88967e-14
-1.8582e-14
-1.89782e-14
-1.86577e-14
-1.90567e-14
-1.8754e-14
-1.91423e-14
-1.88708e-14
-1.92344e-14
-1.89671e-14
-1.93126e-14
-1.90938e-14
-1.94068e-14
-1.91906e-14
-1.94968e-14
-1.92675e-14
-1.95929e-14
-1.93541e-14
-1.96956e-14
-1.94499e-14
-1.97955e-14
-1.95443e-14
-1.9903e-14
-1.96468e-14
-2.00087e-14
-1.97169e-14
-2.01139e-14
-1.97933e-14
-2.01997e-14
-1.99046e-14
-2.03256e-14
-2.00118e-14
-2.03944e-14
-2.00947e-14
-2.04458e-14
-2.0173e-14
-2.0499e-14
-2.02464e-14
-2.05732e-14
-2.03345e-14
-2.06498e-14
-2.04174e-14
-2.07294e-14
-2.0477e-14
-2.07751e-14
-2.05516e-14
-2.08057e-14
-2.06046e-14
-2.08785e-14
-2.06566e-14
-2.08992e-14
-2.07066e-14
-2.08492e-14
-2.07554e-14
-2.08952e-14
-2.07684e-14
-2.09634e-14
-2.07642e-14
-2.09444e-14
-2.07968e-14
-2.09488e-14
-2.08491e-14
-2.09752e-14
-2.09225e-14
-2.09674e-14
-2.0964e-14
-2.10164e-14
-2.0939e-14
-2.10342e-14
-2.09726e-14
-2.10399e-14
-2.10105e-14
-2.10687e-14
-2.10353e-14
-2.10851e-14
-2.10646e-14
-2.11081e-14
-2.10815e-14
-2.11379e-14
-2.11041e-14
-2.1157e-14
-2.11504e-14
-2.11815e-14
-2.11862e-14
-2.12108e-14
-2.11588e-14
-2.12136e-14
-2.11183e-14
-2.1245e-14
-2.108e-14
-2.12573e-14
-2.10744e-14
-2.12864e-14
-2.10989e-14
-2.12982e-14
-2.11181e-14
-2.13609e-14
-2.11159e-14
-2.13953e-14
-2.11731e-14
-2.14032e-14
-2.1258e-14
-2.13812e-14
-2.13266e-14
-2.13888e-14
-2.13845e-14
-2.14384e-14
-2.13862e-14
-2.14531e-14
-2.13951e-14
-2.14662e-14
-2.14278e-14
-2.14122e-14
-2.14535e-14
-2.1444e-14
-2.14768e-14
-2.14669e-14
-2.14371e-14
-2.14239e-14
-2.14248e-14
-2.13759e-14
-2.13805e-14
-2.13517e-14
-2.13343e-14
-2.13255e-14
-2.1283e-14
-2.12979e-14
-2.12544e-14
-2.1268e-14
-2.12182e-14
-2.12093e-14
-2.11739e-14
-2.1122e-14
-2.11505e-14
-2.11411e-14
-2.1095e-14
-2.1073e-14
-2.10311e-14
-2.09457e-14
-2.09847e-14
-2.08905e-14
-2.0906e-14
-2.09073e-14
-2.08786e-14
-2.08627e-14
-2.08444e-14
-2.07585e-14
-2.08343e-14
-2.07448e-14
-2.08039e-14
-2.07728e-14
-2.07511e-14
-2.07195e-14
-2.07469e-14
-2.06605e-14
-2.07449e-14
-2.06676e-14
-2.07259e-14
-2.06657e-14
-2.06864e-14
-2.0632e-14
-2.07005e-14
-2.06837e-14
-2.07225e-14
-2.06482e-14
-2.0699e-14
-2.06761e-14
-2.07073e-14
-2.06932e-14
-2.06933e-14
-2.06804e-14
-2.07006e-14
-2.06589e-14
-2.06832e-14
-2.06768e-14
-2.06661e-14
-2.06899e-14
-2.0665e-14
-2.07561e-14
-2.07115e-14
-2.07942e-14
-2.07155e-14
-2.0728e-14
-2.06871e-14
-2.07202e-14
-2.06808e-14
-2.07222e-14
-2.06969e-14
-2.06808e-14
-2.0686e-14
-2.06672e-14
-2.06525e-14
-2.066e-14
-2.0621e-14
-2.06107e-14
-2.0589e-14
-2.05666e-14
-2.05329e-14
-2.05817e-14
-2.0527e-14
-2.05329e-14
-2.05444e-14
-2.04678e-14
-2.049e-14
-2.04899e-14
-2.04438e-14
-2.04753e-14
-2.03994e-14
-2.03729e-14
-2.03811e-14
-2.03282e-14
-2.03439e-14
-2.02849e-14
-2.03131e-14
-2.0269e-14
-2.02895e-14
-2.02541e-14
-2.02993e-14
-2.02404e-14
-2.02328e-14
-2.02027e-14
-2.01709e-14
-2.01128e-14
-2.01102e-14
-2.01121e-14
-2.00528e-14
-2.0089e-14
-2.00235e-14
-2.0014e-14
-1.99917e-14
-1.99727e-14
-1.99607e-14
-1.99641e-14
-1.99008e-14
-1.98994e-14
-1.98067e-14
-1.98732e-14
-1.97689e-14
-1.98574e-14
-1.97884e-14
-1.97878e-14
-1.97431e-14
-1.97238e-14
-1.96651e-14
-1.96988e-14
-1.95839e-14
-1.96033e-14
-1.95119e-14
-1.94976e-14
-1.94504e-14
-1.94925e-14
-1.93856e-14
-1.94629e-14
-1.93139e-14
-1.93773e-14
-1.92653e-14
-1.92991e-14
-1.91929e-14
-1.92786e-14
-1.90958e-14
-1.92369e-14
-1.90201e-14
-1.91402e-14
-1.89809e-14
-1.9171e-14
-1.89312e-14
-1.90798e-14
-1.89186e-14
-1.90312e-14
-1.88977e-14
-1.90245e-14
-1.89044e-14
-1.9025e-14
-1.88706e-14
-1.8928e-14
-1.88643e-14
-1.8833e-14
-1.88557e-14
-1.88077e-14
-1.88666e-14
-1.88688e-14
-1.88991e-14
-1.88759e-14
-1.89164e-14
-1.8846e-14
-1.89014e-14
-1.89047e-14
-1.8909e-14
-1.89656e-14
-1.89001e-14
-1.89401e-14
-1.88717e-14
-1.89376e-14
-1.88781e-14
-1.89578e-14
-1.89013e-14
-1.89633e-14
-1.89225e-14
-1.89534e-14
-1.89235e-14
-1.89265e-14
-1.89425e-14
-1.89935e-14
-1.8944e-14
-1.89876e-14
-1.88892e-14
-1.89851e-14
-1.88897e-14
-1.89854e-14
-1.89084e-14
-1.90067e-14
-1.8927e-14
-1.90298e-14
-1.89066e-14
-1.9017e-14
-1.88842e-14
-1.90067e-14
-1.88988e-14
-1.89985e-14
-1.88549e-14
-1.89929e-14
-1.88291e-14
-1.89908e-14
-1.88204e-14
-1.89922e-14
-1.88485e-14
-1.89972e-14
-1.88556e-14
-1.89862e-14
-1.88218e-14
-1.89793e-14
-1.87861e-14
-1.89673e-14
-1.88275e-14
-1.8969e-14
-1.88481e-14
-1.89341e-14
-1.88077e-14
-1.89023e-14
-1.87761e-14
-1.88834e-14
-1.87529e-14
-1.88575e-14
-1.87586e-14
-1.8834e-14
-1.87432e-14
-1.88228e-14
-1.87167e-14
-1.88138e-14
-1.87093e-14
-1.88071e-14
-1.87009e-14
-1.88126e-14
-1.86814e-14
-1.87899e-14
-1.86608e-14
-1.87797e-14
-1.86594e-14
-1.8751e-14
-1.86464e-14
-1.87446e-14
-1.86118e-14
-1.87404e-14
-1.85862e-14
-1.87073e-14
-1.86006e-14
-1.86861e-14
-1.86142e-14
-1.86764e-14
-1.85755e-14
-1.86473e-14
-1.85674e-14
-1.86296e-14
-1.85695e-14
-1.86127e-14
-1.85819e-14
-1.85962e-14
-1.86053e-14
-1.85901e-14
-1.85877e-14
-1.85737e-14
-1.85711e-14
-1.85678e-14
-1.85762e-14
-1.85619e-14
-1.85823e-14
-1.85559e-14
-1.85788e-14
-1.85499e-14
-1.85658e-14
-1.85332e-14
-1.85539e-14
-1.85165e-14
-1.8554e-14
-1.85101e-14
-1.85448e-14
-1.85035e-14
-1.85157e-14
-1.8497e-14
-1.84879e-14
-1.85013e-14
-1.84504e-14
-1.8485e-14
-1.8456e-14
-1.8469e-14
-1.84626e-14
-1.84533e-14
-1.84274e-14
-1.84486e-14
-1.83929e-14
-1.84443e-14
-1.84122e-14
-1.84299e-14
-1.84215e-14
-1.84263e-14
-1.84208e-14
-1.84229e-14
-1.84101e-14
-1.84145e-14
-1.84055e-14
-1.84118e-14
-1.83908e-14
-1.84147e-14
-1.83821e-14
-1.84021e-14
-1.83738e-14
-1.84059e-14
-1.83659e-14
-1.84101e-14
-1.8337e-14
-1.83936e-14
-1.8335e-14
-1.83722e-14
-1.83438e-14
-1.83778e-14
-1.83371e-14
-1.83732e-14
-1.83254e-14
-1.83583e-14
-1.83139e-14
-1.83543e-14
-1.82973e-14
-1.8356e-14
-1.82916e-14
-1.83528e-14
-1.82754e-14
-1.83393e-14
-1.8254e-14
-1.83262e-14
-1.82592e-14
-1.8324e-14
-1.82644e-14
-1.83221e-14
-1.82486e-14
-1.8315e-14
-1.82223e-14
-1.83083e-14
-1.81959e-14
-1.8302e-14
-1.818e-14
-1.83013e-14
-1.81692e-14
-1.82904e-14
-1.81583e-14
-1.82799e-14
-1.81578e-14
-1.82749e-14
-1.81413e-14
-1.82756e-14
-1.81141e-14
-1.82661e-14
-1.81025e-14
-1.82517e-14
-1.80906e-14
-1.82429e-14
-1.80836e-14
-1.82239e-14
-1.80713e-14
-1.82105e-14
-1.8069e-14
-1.81972e-14
-1.80717e-14
-1.81841e-14
-1.80742e-14
-1.81763e-14
-1.80662e-14
-1.81634e-14
-1.80684e-14
-1.81404e-14
-1.80704e-14
-1.81276e-14
-1.8062e-14
-1.8125e-14
-1.80536e-14
-1.81174e-14
-1.8063e-14
-1.81097e-14
-1.80698e-14
-1.81044e-14
-1.80714e-14
-1.80992e-14
-1.80704e-14
-1.80888e-14
-1.80745e-14
-1.80933e-14
-1.8076e-14
-1.80928e-14
-1.80776e-14
-1.80897e-14
-1.80766e-14
-1.80865e-14
-1.80732e-14
-1.80758e-14
-1.80624e-14
-1.80724e-14
-1.80639e-14
-1.80739e-14
-1.80778e-14
-1.80728e-14
-1.80867e-14
-1.80667e-14
-1.80932e-14
-1.80581e-14
-1.80924e-14
-1.80591e-14
-1.80892e-14
-1.80575e-14
-1.80958e-14
-1.80558e-14
-1.80976e-14
-1.80539e-14
-1.80947e-14
-1.80543e-14
-1.81014e-14
-1.80546e-14
-1.81082e-14
-1.80572e-14
-1.81008e-14
-1.80572e-14
-1.80935e-14
-1.80595e-14
-1.80957e-14
-1.80664e-14
-1.80956e-14
-1.80731e-14
-1.80909e-14
-1.80798e-14
-1.80909e-14
-1.80863e-14
-1.80955e-14
-1.80928e-14
-1.80956e-14
-1.80992e-14
-1.80911e-14
-1.81033e-14
-1.8089e-14
-1.81096e-14
-1.80846e-14
-1.81158e-14
-1.80825e-14
-1.81242e-14
-1.80804e-14
-1.81282e-14
-1.80805e-14
-1.81343e-14
-1.80762e-14
-1.81426e-14
-1.80719e-14
-1.81509e-14
-1.80675e-14
-1.81591e-14
-1.80654e-14
-1.81663e-14
-1.80653e-14
-1.81703e-14
-1.80641e-14
-1.81743e-14
-1.80607e-14
-1.81773e-14
-1.80615e-14
-1.81814e-14
-1.80632e-14
-1.81824e-14
-1.80649e-14
-1.81865e-14
-1.80634e-14
-1.81916e-14
-1.80589e-14
-1.81957e-14
-1.80554e-14
-1.82009e-14
-1.80528e-14
-1.82051e-14
-1.80521e-14
-1.82084e-14
-1.80504e-14
-1.82097e-14
-1.80495e-14
-1.82121e-14
-1.80477e-14
-1.82135e-14
-1.80449e-14
-1.82178e-14
-1.8042e-14
-1.82203e-14
-1.80409e-14
-1.8221e-14
-1.80371e-14
-1.82236e-14
-1.80331e-14
-1.82243e-14
-1.80328e-14
-1.82243e-14
-1.80315e-14
-1.82225e-14
-1.80319e-14
-1.82217e-14
-1.80296e-14
-1.82227e-14
-1.80264e-14
-1.82246e-14
-1.80249e-14
-1.82248e-14
-1.80251e-14
-1.82243e-14
-1.80235e-14
-1.82255e-14
-1.80219e-14
-1.8225e-14
-1.80227e-14
-1.82271e-14
-1.80209e-14
-1.82268e-14
-1.80192e-14
-1.82273e-14
-1.8015e-14
-1.82302e-14
-1.80101e-14
-1.82316e-14
-1.80082e-14
-1.82338e-14
-1.80082e-14
-1.82349e-14
-1.80071e-14
-1.8236e-14
-1.80051e-14
-1.82364e-14
-1.80039e-14
-1.82372e-14
-1.80023e-14
-1.82376e-14
-1.80017e-14
-1.82385e-14
-1.80028e-14
-1.82394e-14
-1.80029e-14
-1.82404e-14
-1.80022e-14
-1.8241e-14
-1.80018e-14
-1.82416e-14
-1.80007e-14
-1.8243e-14
-1.79999e-14
-1.82443e-14
-1.79991e-14
-1.82451e-14
-1.79995e-14
-1.82459e-14
-1.79995e-14
-1.82463e-14
-1.79989e-14
-1.82475e-14
-1.79986e-14
-1.82489e-14
-1.7998e-14
-1.82504e-14
-1.79976e-14
-1.8251e-14
-1.79972e-14
-1.82519e-14
-1.7997e-14
-1.82522e-14
-1.7998e-14
-1.82526e-14
-1.79983e-14
-1.82533e-14
-1.79978e-14
-1.8254e-14
-1.79972e-14
-1.82545e-14
-1.79971e-14
-1.82548e-14
-1.79973e-14
-1.82556e-14
-1.79976e-14
-1.8256e-14
-1.79976e-14
-1.82564e-14
-1.7998e-14
-1.8257e-14
-1.79981e-14
-1.82574e-14
-1.79974e-14
-1.82578e-14
-1.79972e-14
-1.82583e-14
-1.79973e-14
-1.82585e-14
-1.79975e-14
-1.82586e-14
-1.79975e-14
-1.8259e-14
-1.79976e-14
-1.82595e-14
-1.79976e-14
-1.82596e-14
-1.79976e-14
-1.82596e-14
-1.79976e-14
-1.82599e-14
-1.79978e-14
-1.82602e-14
-1.7998e-14
-1.82605e-14
-1.79982e-14
-1.82609e-14
-1.79981e-14
-1.82614e-14
-1.79982e-14
-1.82618e-14
-1.7998e-14
-1.82619e-14
-1.79979e-14
-1.8262e-14
-1.7998e-14
-1.8262e-14
-1.79981e-14
-1.82622e-14
-1.79981e-14
-1.82623e-14
-1.79982e-14
-1.82624e-14
-1.79982e-14
-1.82625e-14
-1.79983e-14
-1.82625e-14
-1.79984e-14
-1.82626e-14
-1.79985e-14
-1.82626e-14
-1.79984e-14
-1.82627e-14
-1.79984e-14
-1.82627e-14
-1.79983e-14
-1.82628e-14
-1.79983e-14
-1.82629e-14
-1.79983e-14
-1.82628e-14
-1.79983e-14
-1.82627e-14
-1.79985e-14
-1.82626e-14
-1.79987e-14
-1.82626e-14
-1.79987e-14
-1.82626e-14
-1.79987e-14
-1.82625e-14
-1.79987e-14
-1.82624e-14
-1.79987e-14
-1.82624e-14
-1.79987e-14
-1.82624e-14
-1.79987e-14
-1.82624e-14
-1.79987e-14
-1.82623e-14
-1.79987e-14
-1.82624e-14
-1.79987e-14
-1.82624e-14
-1.79987e-14
-1.82624e-14
-1.79987e-14
-1.82624e-14
-1.79987e-14
-1.82623e-14
-1.79987e-14
-1.82623e-14
-1.79987e-14
-1.82623e-14
-1.79988e-14
-1.82623e-14
-1.79988e-14
-1.82623e-14
-1.79987e-14
-1.82622e-14
-1.79987e-14
-1.82623e-14
-1.79987e-14
-1.82622e-14
-1.79988e-14
-1.82622e-14
-1.79988e-14
-1.82622e-14
-1.79988e-14
-1.82622e-14
-1.79988e-14
-1.82622e-14
-1.79988e-14
-1.82622e-14
-1.79988e-14
-1.82622e-14
-1.79988e-14
-2.07265e-14
-2.0677e-14
-2.07199e-14
-2.06532e-14
-2.06934e-14
-2.06381e-14
-2.06727e-14
-2.06349e-14
-2.06791e-14
-2.06724e-14
-2.0633e-14
-2.06569e-14
-2.06049e-14
-2.0592e-14
-2.05995e-14
-2.05461e-14
-2.05715e-14
-2.0513e-14
-2.05226e-14
-2.04928e-14
-2.0448e-14
-2.04659e-14
-2.03357e-14
-2.04372e-14
-2.03044e-14
-2.03874e-14
-2.02802e-14
-2.0314e-14
-2.02397e-14
-2.02636e-14
-2.02925e-14
-2.02351e-14
-2.02647e-14
-2.02473e-14
-2.02352e-14
-2.02248e-14
-2.02038e-14
-2.02247e-14
-2.01385e-14
-2.0195e-14
-2.01474e-14
-2.01081e-14
-2.01268e-14
-2.00687e-14
-2.00787e-14
-2.00189e-14
-2.00634e-14
-1.99592e-14
-2.00252e-14
-1.99453e-14
-1.99609e-14
-1.99213e-14
-1.99272e-14
-1.98909e-14
-1.99551e-14
-1.98546e-14
-1.98681e-14
-1.97472e-14
-1.97883e-14
-1.96895e-14
-1.97431e-14
-1.97146e-14
-1.96955e-14
-1.96725e-14
-1.96143e-14
-1.96261e-14
-1.96236e-14
-1.9547e-14
-1.95714e-14
-1.94932e-14
-1.94742e-14
-1.94497e-14
-1.94259e-14
-1.93881e-14
-1.94103e-14
-1.93402e-14
-1.93147e-14
-1.92888e-14
-1.92181e-14
-1.92528e-14
-1.91669e-14
-1.91699e-14
-1.91628e-14
-1.91222e-14
-1.9108e-14
-1.90748e-14
-1.90367e-14
-1.90278e-14
-1.90308e-14
-1.89481e-14
-1.89757e-14
-1.89337e-14
-1.89384e-14
-1.89181e-14
-1.89696e-14
-1.89019e-14
-1.89326e-14
-1.88482e-14
-1.88283e-14
-1.88079e-14
-1.88307e-14
-1.88012e-14
-1.88348e-14
-1.88276e-14
-1.88385e-14
-1.87987e-14
-1.8843e-14
-1.8766e-14
-1.87959e-14
-1.88185e-14
-1.88005e-14
-1.8834e-14
-1.88012e-14
-1.88496e-14
-1.87979e-14
-1.88665e-14
-1.88271e-14
-1.89225e-14
-1.88328e-14
-1.8945e-14
-1.88891e-14
-1.89153e-14
-1.89064e-14
-1.88861e-14
-1.89241e-14
-1.88178e-14
-1.89249e-14
-1.88012e-14
-1.89663e-14
-1.87609e-14
-1.89939e-14
-1.87705e-14
-1.90276e-14
-1.8811e-14
-1.9067e-14
-1.88255e-14
-1.9055e-14
-1.87561e-14
-1.90504e-14
-1.86972e-14
-1.90349e-14
-1.8686e-14
-1.90081e-14
-1.87237e-14
-1.89874e-14
-1.87151e-14
-1.89331e-14
-1.86996e-14
-1.89024e-14
-1.86975e-14
-1.88748e-14
-1.86898e-14
-1.88495e-14
-1.86573e-14
-1.88366e-14
-1.86598e-14
-1.88156e-14
-1.86976e-14
-1.88153e-14
-1.87019e-14
-1.87959e-14
-1.87035e-14
-1.87569e-14
-1.86726e-14
-1.87484e-14
-1.86598e-14
-1.87303e-14
-1.86753e-14
-1.87224e-14
-1.86691e-14
-1.87145e-14
-1.86414e-14
-1.87172e-14
-1.86019e-14
-1.87106e-14
-1.85804e-14
-1.87051e-14
-1.85974e-14
-1.86901e-14
-1.86127e-14
-1.86755e-14
-1.85958e-14
-1.86614e-14
-1.85568e-14
-1.86584e-14
-1.85266e-14
-1.86461e-14
-1.85255e-14
-1.86347e-14
-1.85121e-14
-1.86036e-14
-1.84865e-14
-1.86047e-14
-1.84694e-14
-1.85965e-14
-1.84608e-14
-1.85894e-14
-1.84399e-14
-1.85838e-14
-1.84062e-14
-1.85692e-14
-1.83908e-14
-1.85562e-14
-1.83833e-14
-1.85552e-14
-1.83944e-14
-1.85451e-14
-1.83928e-14
-1.85256e-14
-1.8368e-14
-1.85178e-14
-1.83092e-14
-1.85116e-14
-1.82688e-14
-1.85072e-14
-1.82571e-14
-1.84834e-14
-1.82423e-14
-1.84613e-14
-1.82034e-14
-1.84409e-14
-1.81828e-14
-1.84328e-14
-1.81592e-14
-1.84262e-14
-1.81434e-14
-1.84107e-14
-1.81567e-14
-1.83966e-14
-1.81567e-14
-1.83838e-14
-1.8133e-14
-1.83723e-14
-1.81283e-14
-1.83621e-14
-1.81534e-14
-1.83582e-14
-1.81445e-14
-1.83393e-14
-1.8139e-14
-1.83158e-14
-1.81371e-14
-1.83145e-14
-1.81334e-14
-1.82924e-14
-1.81336e-14
-1.82975e-14
-1.81323e-14
-1.83032e-14
-1.8135e-14
-1.8288e-14
-1.81311e-14
-1.8284e-14
-1.81046e-14
-1.82805e-14
-1.80928e-14
-1.82776e-14
-1.81064e-14
-1.82806e-14
-1.81187e-14
-1.8284e-14
-1.81034e-14
-1.82933e-14
-1.80816e-14
-1.8282e-14
-1.80745e-14
-1.8298e-14
-1.8077e-14
-1.82987e-14
-1.80676e-14
-1.83001e-14
-1.80624e-14
-1.83023e-14
-1.80774e-14
-1.83157e-14
-1.80806e-14
-1.83088e-14
-1.80723e-14
-1.83025e-14
-1.80471e-14
-1.83024e-14
-1.80315e-14
-1.8303e-14
-1.80307e-14
-1.83097e-14
-1.8029e-14
-1.83066e-14
-1.80315e-14
-1.83043e-14
-1.80227e-14
-1.83081e-14
-1.8013e-14
-1.83126e-14
-1.79971e-14
-1.83285e-14
-1.79804e-14
-1.83295e-14
-1.79836e-14
-1.83211e-14
-1.80067e-14
-1.83239e-14
-1.80186e-14
-1.83275e-14
-1.8009e-14
-1.83216e-14
-1.8009e-14
-1.83112e-14
-1.80135e-14
-1.8312e-14
-1.80173e-14
-1.82981e-14
-1.80153e-14
-1.829e-14
-1.80178e-14
-1.82877e-14
-1.8025e-14
-1.82886e-14
-1.80367e-14
-1.82799e-14
-1.80377e-14
-1.82743e-14
-1.80357e-14
-1.82718e-14
-1.80359e-14
-1.82648e-14
-1.80407e-14
-1.82608e-14
-1.80451e-14
-1.82472e-14
-1.80367e-14
-1.82441e-14
-1.80329e-14
-1.82364e-14
-1.80387e-14
-1.82441e-14
-1.80417e-14
-1.82397e-14
-1.80445e-14
-1.82332e-14
-1.80445e-14
-1.82321e-14
-1.80491e-14
-1.82336e-14
-1.80511e-14
-1.82282e-14
-1.80552e-14
-1.82232e-14
-1.80542e-14