/*--------------------------------*- C++ -*----------------------------------*\
| =========                 |                                                 |
| \\      /  F ield         | OpenFOAM: The Open Source CFD Toolbox           |
|  \\    /   O peration     | Version:  2106                                  |
|   \\  /    A nd           | Website:  www.openfoam.com                      |
|    \\/     M anipulation  |                                                 |
\*---------------------------------------------------------------------------*/
FoamFile
{
    version     2.0;
    format      ascii;
    arch        "LSB;label=32;scalar=64";
    class       volSymmTensorField;
    location    "12000";
    object      turbulenceProperties:R;
}
// * * * * * * * * * * * * * * * * * * * * * * * * * * * * * * * * * * * * * //

dimensions      [0 2 -2 0 0 0 0];

internalField   nonuniform List<symmTensor> 
2560
(
(1.07214e-07 -3.24165e-12 -4.69273e-15 1.07214e-07 -1.04835e-26 1.07214e-07)
(1.07214e-07 -3.24165e-12 -4.69273e-15 1.07214e-07 -7.67334e-27 1.07214e-07)
(1.74964e-08 -3.04022e-12 -1.3268e-14 1.74964e-08 -5.77657e-28 1.74964e-08)
(1.74964e-08 -3.04022e-12 -1.3268e-14 1.74964e-08 -4.43824e-27 1.74964e-08)
(1.73658e-08 -8.90068e-12 -5.34272e-14 1.73658e-08 -2.42905e-27 1.73658e-08)
(1.73658e-08 -8.90068e-12 -5.34272e-14 1.73658e-08 -9.79573e-28 1.73658e-08)
(4.8709e-08 -5.29361e-11 -3.22375e-13 4.8709e-08 1.91758e-26 4.8709e-08)
(4.8709e-08 -5.29361e-11 -3.22375e-13 4.8709e-08 -5.92413e-27 4.8709e-08)
(1.23358e-07 -2.36504e-10 -1.46123e-12 1.23358e-07 -6.32399e-26 1.23358e-07)
(1.23358e-07 -2.36504e-10 -1.46123e-12 1.23358e-07 -2.68953e-26 1.23358e-07)
(2.624e-07 -7.9205e-10 -4.96481e-12 2.624e-07 -2.21066e-25 2.624e-07)
(2.624e-07 -7.9205e-10 -4.96481e-12 2.624e-07 -9.14868e-26 2.624e-07)
(4.91489e-07 -2.16427e-09 -1.37636e-11 4.91489e-07 -6.36748e-25 4.91489e-07)
(4.91489e-07 -2.16427e-09 -1.37636e-11 4.91489e-07 -2.53915e-25 4.91489e-07)
(8.40216e-07 -5.11252e-09 -3.29857e-11 8.40216e-07 -1.54714e-24 8.40216e-07)
(8.40216e-07 -5.11252e-09 -3.29857e-11 8.40216e-07 -6.09202e-25 8.40216e-07)
(1.34209e-06 -1.08372e-08 -7.09374e-11 1.34209e-06 -3.34611e-24 1.34209e-06)
(1.34209e-06 -1.08372e-08 -7.09374e-11 1.34209e-06 -1.31132e-24 1.34209e-06)
(2.03467e-06 -2.11329e-08 -1.40342e-10 2.03467e-06 -6.64824e-24 2.03467e-06)
(2.03467e-06 -2.11329e-08 -1.40342e-10 2.03467e-06 -2.59762e-24 2.03467e-06)
(2.95975e-06 -3.85725e-08 -2.59883e-10 2.95975e-06 -1.23609e-23 2.95975e-06)
(2.95975e-06 -3.85725e-08 -2.59883e-10 2.95975e-06 -4.817e-24 2.95975e-06)
(4.16359e-06 -6.67251e-08 -4.56097e-10 4.16359e-06 -2.17703e-23 4.16359e-06)
(4.16359e-06 -6.67251e-08 -4.56097e-10 4.16359e-06 -8.46126e-24 4.16359e-06)
(5.69715e-06 -1.10412e-07 -7.65689e-10 5.69715e-06 -3.66512e-23 5.69715e-06)
(5.69715e-06 -1.10412e-07 -7.65689e-10 5.69715e-06 -1.42193e-23 5.69715e-06)
(7.61637e-06 -1.76004e-07 -1.23831e-09 7.61637e-06 -5.94271e-23 7.61637e-06)
(7.61637e-06 -1.76004e-07 -1.23831e-09 7.61637e-06 -2.30413e-23 7.61637e-06)
(9.98242e-06 -2.71769e-07 -1.93987e-09 9.98242e-06 -9.33332e-23 9.98242e-06)
(9.98242e-06 -2.71769e-07 -1.93987e-09 9.98242e-06 -3.61321e-23 9.98242e-06)
(1.2862e-05 -4.08262e-07 -2.9565e-09 1.2862e-05 -1.42552e-22 1.2862e-05)
(1.2862e-05 -4.08262e-07 -2.9565e-09 1.2862e-05 -5.50519e-23 1.2862e-05)
(1.63276e-05 -5.98774e-07 -4.39914e-09 1.63276e-05 -2.12492e-22 1.63276e-05)
(1.63276e-05 -5.98774e-07 -4.39914e-09 1.63276e-05 -8.19541e-23 1.63276e-05)
(2.04579e-05 -8.59839e-07 -6.40893e-09 2.04579e-05 -3.10117e-22 2.04579e-05)
(2.04579e-05 -8.59839e-07 -6.40893e-09 2.04579e-05 -1.19541e-22 2.04579e-05)
(2.53377e-05 -1.21179e-06 -9.16342e-09 2.53377e-05 -4.44071e-22 2.53377e-05)
(2.53377e-05 -1.21179e-06 -9.16342e-09 2.53377e-05 -1.71002e-22 2.53377e-05)
(3.10586e-05 -1.67937e-06 -1.28836e-08 3.10586e-05 -6.25242e-22 3.10586e-05)
(3.10586e-05 -1.67937e-06 -1.28836e-08 3.10586e-05 -2.40395e-22 3.10586e-05)
(3.77191e-05 -2.29241e-06 -1.7842e-08 3.77191e-05 -8.6663e-22 3.77191e-05)
(3.77191e-05 -2.29241e-06 -1.7842e-08 3.77191e-05 -3.32864e-22 3.77191e-05)
(4.54245e-05 -3.08657e-06 -2.43714e-08 4.54245e-05 -1.18353e-21 4.54245e-05)
(4.54245e-05 -3.08657e-06 -2.43714e-08 4.54245e-05 -4.5466e-22 4.54245e-05)
(5.42874e-05 -4.10403e-06 -3.28751e-08 5.42874e-05 -1.5965e-21 5.42874e-05)
(5.42874e-05 -4.10403e-06 -3.28751e-08 5.42874e-05 -6.11878e-22 5.42874e-05)
(6.44275e-05 -5.39432e-06 -4.38372e-08 6.44275e-05 -2.12853e-21 6.44275e-05)
(6.44275e-05 -5.39432e-06 -4.38372e-08 6.44275e-05 -8.14264e-22 6.44275e-05)
(7.59718e-05 -7.01511e-06 -5.78341e-08 7.59718e-05 -2.80456e-21 7.59718e-05)
(7.59718e-05 -7.01511e-06 -5.78341e-08 7.59718e-05 -1.07282e-21 7.59718e-05)
(8.90542e-05 -9.0329e-06 -7.55466e-08 8.90542e-05 -3.65531e-21 8.90542e-05)
(8.90542e-05 -9.0329e-06 -7.55466e-08 8.90542e-05 -1.39904e-21 8.90542e-05)
(0.000103816 -1.15238e-05 -9.77721e-08 0.000103816 -4.71438e-21 0.000103816)
(0.000103816 -1.15238e-05 -9.77721e-08 0.000103816 -1.8052e-21 0.000103816)
(0.000120403 -1.45739e-05 -1.25436e-07 0.000120403 -6.02527e-21 0.000120403)
(0.000120403 -1.45739e-05 -1.25436e-07 0.000120403 -2.29828e-21 0.000120403)
(0.000138969 -1.82802e-05 -1.59605e-07 0.000138969 -7.6293e-21 0.000138969)
(0.000138969 -1.82802e-05 -1.59605e-07 0.000138969 -2.8984e-21 0.000138969)
(0.000159671 -2.27501e-05 -2.01492e-07 0.000159671 -9.56947e-21 0.000159671)
(0.000159671 -2.27501e-05 -2.01492e-07 0.000159671 -3.63349e-21 0.000159671)
(0.00018267 -2.8102e-05 -2.52472e-07 0.00018267 -1.19029e-20 0.00018267)
(0.00018267 -2.8102e-05 -2.52472e-07 0.00018267 -4.52557e-21 0.00018267)
(0.000208131 -3.44643e-05 -3.14077e-07 0.000208131 -1.4675e-20 0.000208131)
(0.000208131 -3.44643e-05 -3.14077e-07 0.000208131 -5.57457e-21 0.000208131)
(0.000236217 -4.19753e-05 -3.88008e-07 0.000236217 -1.79305e-20 0.000236217)
(0.000236217 -4.19753e-05 -3.88008e-07 0.000236217 -6.78176e-21 0.000236217)
(0.000267092 -5.07809e-05 -4.76119e-07 0.000267092 -2.17238e-20 0.000267092)
(0.000267092 -5.07809e-05 -4.76119e-07 0.000267092 -8.18677e-21 0.000267092)
(0.000300914 -6.10337e-05 -5.80418e-07 0.000300914 -2.6077e-20 0.000300914)
(0.000300914 -6.10337e-05 -5.80418e-07 0.000300914 -9.84249e-21 0.000300914)
(0.000337838 -7.28899e-05 -7.03042e-07 0.000337838 -3.10244e-20 0.000337838)
(0.000337838 -7.28899e-05 -7.03042e-07 0.000337838 -1.17062e-20 0.000337838)
(0.000378007 -8.65066e-05 -8.4624e-07 0.000378007 -3.66266e-20 0.000378007)
(0.000378007 -8.65066e-05 -8.4624e-07 0.000378007 -1.38287e-20 0.000378007)
(0.000421553 -0.000102038 -1.01233e-06 0.000421553 -4.28373e-20 0.000421553)
(0.000421553 -0.000102038 -1.01233e-06 0.000421553 -1.61515e-20 0.000421553)
(0.000468594 -0.000119633 -1.20369e-06 0.000468594 -4.96609e-20 0.000468594)
(0.000468594 -0.000119633 -1.20369e-06 0.000468594 -1.8693e-20 0.000468594)
(0.000519227 -0.000139427 -1.42266e-06 0.000519227 -5.70545e-20 0.000519227)
(0.000519227 -0.000139427 -1.42266e-06 0.000519227 -2.14075e-20 0.000519227)
(0.000573529 -0.000161541 -1.67154e-06 0.000573529 -6.49062e-20 0.000573529)
(0.000573529 -0.000161541 -1.67154e-06 0.000573529 -2.4261e-20 0.000573529)
(0.00063155 -0.000186078 -1.95251e-06 0.00063155 -7.31994e-20 0.00063155)
(0.00063155 -0.000186078 -1.95251e-06 0.00063155 -2.72077e-20 0.00063155)
(0.000693313 -0.000213112 -2.26758e-06 0.000693313 -8.18033e-20 0.000693313)
(0.000693313 -0.000213112 -2.26758e-06 0.000693313 -3.0344e-20 0.000693313)
(0.000758812 -0.000242694 -2.61855e-06 0.000758812 -9.05535e-20 0.000758812)
(0.000758812 -0.000242694 -2.61855e-06 0.000758812 -3.36307e-20 0.000758812)
(0.000828007 -0.000274839 -3.00691e-06 0.000828007 -9.93452e-20 0.000828007)
(0.000828007 -0.000274839 -3.00691e-06 0.000828007 -3.67448e-20 0.000828007)
(0.000900826 -0.000309533 -3.43385e-06 0.000900826 -1.07964e-19 0.000900826)
(0.000900826 -0.000309533 -3.43385e-06 0.000900826 -3.98946e-20 0.000900826)
(0.000977163 -0.000346723 -3.90022e-06 0.000977163 -1.16258e-19 0.000977163)
(0.000977163 -0.000346723 -3.90022e-06 0.000977163 -4.25924e-20 0.000977163)
(0.00105688 -0.000386326 -4.40644e-06 0.00105688 -1.24197e-19 0.00105688)
(0.00105688 -0.000386326 -4.40644e-06 0.00105688 -4.51126e-20 0.00105688)
(0.0011398 -0.000428222 -4.9526e-06 0.0011398 -1.31411e-19 0.0011398)
(0.0011398 -0.000428222 -4.9526e-06 0.0011398 -4.76864e-20 0.0011398)
(0.00122573 -0.000472263 -5.53835e-06 0.00122573 -1.37951e-19 0.00122573)
(0.00122573 -0.000472263 -5.53835e-06 0.00122573 -4.93174e-20 0.00122573)
(0.00131444 -0.000518274 -6.163e-06 0.00131444 -1.43702e-19 0.00131444)
(0.00131444 -0.000518274 -6.163e-06 0.00131444 -5.09596e-20 0.00131444)
(0.00140568 -0.000566056 -6.8255e-06 0.00140568 -1.48361e-19 0.00140568)
(0.00140568 -0.000566056 -6.8255e-06 0.00140568 -5.29571e-20 0.00140568)
(0.00149919 -0.000615391 -7.52451e-06 0.00149919 -1.52107e-19 0.00149919)
(0.00149919 -0.000615391 -7.52451e-06 0.00149919 -5.3847e-20 0.00149919)
(0.00159466 -0.000666052 -8.2584e-06 0.00159466 -1.54408e-19 0.00159466)
(0.00159466 -0.000666052 -8.2584e-06 0.00159466 -5.44109e-20 0.00159466)
(0.00169182 -0.000717802 -9.02536e-06 0.00169182 -1.56175e-19 0.00169182)
(0.00169182 -0.000717802 -9.02536e-06 0.00169182 -5.45011e-20 0.00169182)
(0.00179036 -0.000770402 -9.82338e-06 0.00179036 -1.57214e-19 0.00179036)
(0.00179036 -0.000770402 -9.82338e-06 0.00179036 -5.38469e-20 0.00179036)
(0.00188998 -0.000823617 -1.06504e-05 0.00188998 3.37179e-21 0.00188998)
(0.00188998 -0.000823617 -1.06504e-05 0.00188998 -5.43281e-20 0.00188998)
(0.00199039 -0.000877216 -1.15042e-05 0.00199039 2.72888e-19 0.00199039)
(0.00199039 -0.000877216 -1.15042e-05 0.00199039 -5.46265e-20 0.00199039)
(0.00209128 -0.000930983 -1.23827e-05 0.00209128 7.00447e-19 0.00209128)
(0.00209128 -0.000930983 -1.23827e-05 0.00209128 -5.25141e-20 0.00209128)
(0.00219239 -0.000984709 -1.32836e-05 0.00219239 7.73188e-19 0.00219239)
(0.00219239 -0.000984709 -1.32836e-05 0.00219239 -5.1568e-20 0.00219239)
(0.00229344 -0.00103821 -1.4205e-05 0.00229344 8.46977e-19 0.00229344)
(0.00229344 -0.00103821 -1.4205e-05 0.00229344 -5.18492e-20 0.00229344)
(0.00239418 -0.0010913 -1.51449e-05 0.00239418 9.22772e-19 0.00239418)
(0.00239418 -0.0010913 -1.51449e-05 0.00239418 -5.08202e-20 0.00239418)
(0.00249437 -0.00114384 -1.61013e-05 0.00249437 9.99541e-19 0.00249437)
(0.00249437 -0.00114384 -1.61013e-05 0.00249437 -5.32451e-20 0.00249437)
(0.0025938 -0.00119568 -1.70725e-05 0.0025938 1.07906e-18 0.0025938)
(0.0025938 -0.00119568 -1.70725e-05 0.0025938 -5.17944e-20 0.0025938)
(0.00269227 -0.0012467 -1.8057e-05 0.00269227 1.16364e-18 0.00269227)
(0.00269227 -0.0012467 -1.8057e-05 0.00269227 -5.0484e-20 0.00269227)
(0.0027896 -0.00129681 -1.90533e-05 0.0027896 1.24568e-18 0.0027896)
(0.0027896 -0.00129681 -1.90533e-05 0.0027896 -5.25695e-20 0.0027896)
(0.00288563 -0.00134591 -2.006e-05 0.00288563 1.32866e-18 0.00288563)
(0.00288563 -0.00134591 -2.006e-05 0.00288563 -5.66659e-20 0.00288563)
(0.00298022 -0.00139394 -2.1076e-05 0.00298022 1.41431e-18 0.00298022)
(0.00298022 -0.00139394 -2.1076e-05 0.00298022 -6.14868e-20 0.00298022)
(0.00307325 -0.00144084 -2.21004e-05 0.00307325 1.49404e-18 0.00307325)
(0.00307325 -0.00144084 -2.21004e-05 0.00307325 -6.11013e-20 0.00307325)
(0.00316461 -0.00148657 -2.31321e-05 0.00316461 1.58021e-18 0.00316461)
(0.00316461 -0.00148657 -2.31321e-05 0.00316461 -6.32536e-20 0.00316461)
(0.00325422 -0.00153109 -2.41706e-05 0.00325422 1.67451e-18 0.00325422)
(0.00325422 -0.00153109 -2.41706e-05 0.00325422 -7.11607e-20 0.00325422)
(0.003342 -0.00157439 -2.52151e-05 0.003342 1.7667e-18 0.003342)
(0.003342 -0.00157439 -2.52151e-05 0.003342 -7.83316e-20 0.003342)
(0.00342789 -0.00161645 -2.62651e-05 0.00342789 1.85423e-18 0.00342789)
(0.00342789 -0.00161645 -2.62651e-05 0.00342789 -8.47784e-20 0.00342789)
(0.00351186 -0.00165727 -2.73202e-05 0.00351186 1.93341e-18 0.00351186)
(0.00351186 -0.00165727 -2.73202e-05 0.00351186 -8.90433e-20 0.00351186)
(0.00359386 -0.00169686 -2.83802e-05 0.00359386 2.01858e-18 0.00359386)
(0.00359386 -0.00169686 -2.83802e-05 0.00359386 -9.9037e-20 0.00359386)
(0.00367388 -0.00173522 -2.94447e-05 0.00367388 2.11154e-18 0.00367388)
(0.00367388 -0.00173522 -2.94447e-05 0.00367388 -1.2031e-19 0.00367388)
(0.0037519 -0.00177237 -3.05137e-05 0.0037519 1.99084e-18 0.0037519)
(0.0037519 -0.00177237 -3.05137e-05 0.0037519 -1.3919e-19 0.0037519)
(0.00382792 -0.00180832 -3.15869e-05 0.00382792 1.06168e-18 0.00382792)
(0.00382792 -0.00180832 -3.15869e-05 0.00382792 -1.52116e-19 0.00382792)
(0.00390194 -0.00184311 -3.26645e-05 0.00390194 2.64474e-19 0.00390194)
(0.00390194 -0.00184311 -3.26645e-05 0.00390194 -1.664e-19 0.00390194)
(0.00397398 -0.00187675 -3.37465e-05 0.00397398 2.63453e-19 0.00397398)
(0.00397398 -0.00187675 -3.37465e-05 0.00397398 -1.82471e-19 0.00397398)
(0.00404405 -0.00190926 -3.48328e-05 0.00404405 2.79987e-19 0.00404405)
(0.00404405 -0.00190926 -3.48328e-05 0.00404405 -2.16807e-19 0.00404405)
(0.00411218 -0.00194069 -3.59236e-05 0.00411218 2.85911e-19 0.00411218)
(0.00411218 -0.00194069 -3.59236e-05 0.00411218 -2.63832e-19 0.00411218)
(0.00417839 -0.00197106 -3.70191e-05 0.00417839 2.87256e-19 0.00417839)
(0.00417839 -0.00197106 -3.70191e-05 0.00417839 -2.75949e-19 0.00417839)
(0.0042427 -0.00200039 -3.81194e-05 0.0042427 3.05028e-19 0.0042427)
(0.0042427 -0.00200039 -3.81194e-05 0.0042427 -2.82882e-19 0.0042427)
(0.00430516 -0.00202872 -3.92248e-05 0.00430516 3.18552e-19 0.00430516)
(0.00430516 -0.00202872 -3.92248e-05 0.00430516 -3.15929e-19 0.00430516)
(0.0043658 -0.00205608 -4.03355e-05 0.0043658 3.18349e-19 0.0043658)
(0.0043658 -0.00205608 -4.03355e-05 0.0043658 -3.51758e-19 0.0043658)
(0.00442465 -0.00208251 -4.14516e-05 0.00442465 3.3534e-19 0.00442465)
(0.00442465 -0.00208251 -4.14516e-05 0.00442465 -3.92797e-19 0.00442465)
(0.00448176 -0.00210803 -4.25735e-05 0.00448176 3.54423e-19 0.00448176)
(0.00448176 -0.00210803 -4.25735e-05 0.00448176 -4.36823e-19 0.00448176)
(0.00453716 -0.00213267 -4.37015e-05 0.00453716 3.55541e-19 0.00453716)
(0.00453716 -0.00213267 -4.37015e-05 0.00453716 -4.64573e-19 0.00453716)
(0.0045909 -0.00215646 -4.48358e-05 0.0045909 3.56048e-19 0.0045909)
(0.0045909 -0.00215646 -4.48358e-05 0.0045909 -5.06797e-19 0.0045909)
(0.00464301 -0.00217943 -4.59768e-05 0.00464301 3.71626e-19 0.00464301)
(0.00464301 -0.00217943 -4.59768e-05 0.00464301 -5.55531e-19 0.00464301)
(0.00469354 -0.00220162 -4.71246e-05 0.00469354 3.86783e-19 0.00469354)
(0.00469354 -0.00220162 -4.71246e-05 0.00469354 -5.82437e-19 0.00469354)
(0.00474253 -0.00222305 -4.82797e-05 0.00474253 4.05086e-19 0.00474253)
(0.00474253 -0.00222305 -4.82797e-05 0.00474253 -6.24139e-19 0.00474253)
(0.00479002 -0.00224374 -4.94424e-05 0.00479002 4.01306e-19 0.00479002)
(0.00479002 -0.00224374 -4.94424e-05 0.00479002 -6.812e-19 0.00479002)
(0.00483605 -0.00226372 -5.06129e-05 0.00483605 4.20018e-19 0.00483605)
(0.00483605 -0.00226372 -5.06129e-05 0.00483605 -7.37827e-19 0.00483605)
(0.00488066 -0.00228302 -5.17916e-05 0.00488066 3.91986e-19 0.00488066)
(0.00488066 -0.00228302 -5.17916e-05 0.00488066 -7.65696e-19 0.00488066)
(0.0049239 -0.00230166 -5.29788e-05 0.0049239 3.48709e-19 0.0049239)
(0.0049239 -0.00230166 -5.29788e-05 0.0049239 -7.73155e-19 0.0049239)
(0.00496579 -0.00231967 -5.41748e-05 0.00496579 4.3681e-19 0.00496579)
(0.00496579 -0.00231967 -5.41748e-05 0.00496579 -8.46017e-19 0.00496579)
(0.00500639 -0.00233707 -5.53799e-05 0.00500639 4.76132e-19 0.00500639)
(0.00500639 -0.00233707 -5.53799e-05 0.00500639 -9.48384e-19 0.00500639)
(0.00504572 -0.00235388 -5.65945e-05 0.00504572 4.46788e-19 0.00504572)
(0.00504572 -0.00235388 -5.65945e-05 0.00504572 -9.82282e-19 0.00504572)
(0.00508382 -0.00237012 -5.78189e-05 0.00508382 4.04053e-19 0.00508382)
(0.00508382 -0.00237012 -5.78189e-05 0.00508382 -1.0167e-18 0.00508382)
(0.00512073 -0.00238581 -5.90534e-05 0.00512073 4.45072e-19 0.00512073)
(0.00512073 -0.00238581 -5.90534e-05 0.00512073 -1.07602e-18 0.00512073)
(0.00515649 -0.00240098 -6.02982e-05 0.00515649 5.63152e-19 0.00515649)
(0.00515649 -0.00240098 -6.02982e-05 0.00515649 -1.10481e-18 0.00515649)
(0.00519113 -0.00241563 -6.15538e-05 0.00519113 5.36773e-19 0.00519113)
(0.00519113 -0.00241563 -6.15538e-05 0.00519113 -1.14317e-18 0.00519113)
(0.00522467 -0.00242979 -6.28205e-05 0.00522467 5.32611e-19 0.00522467)
(0.00522467 -0.00242979 -6.28205e-05 0.00522467 -1.23586e-18 0.00522467)
(0.00525716 -0.00244347 -6.40985e-05 0.00525716 5.62139e-19 0.00525716)
(0.00525716 -0.00244347 -6.40985e-05 0.00525716 -1.32289e-18 0.00525716)
(0.00528862 -0.0024567 -6.53881e-05 0.00528862 5.82821e-19 0.00528862)
(0.00528862 -0.0024567 -6.53881e-05 0.00528862 -1.39818e-18 0.00528862)
(0.00531909 -0.00246948 -6.66897e-05 0.00531909 5.75482e-19 0.00531909)
(0.00531909 -0.00246948 -6.66897e-05 0.00531909 -1.50736e-18 0.00531909)
(0.00534858 -0.00248184 -6.80036e-05 0.00534858 5.25936e-19 0.00534858)
(0.00534858 -0.00248184 -6.80036e-05 0.00534858 -1.57472e-18 0.00534858)
(0.00537714 -0.00249378 -6.933e-05 0.00537714 5.34158e-19 0.00537714)
(0.00537714 -0.00249378 -6.933e-05 0.00537714 -1.62676e-18 0.00537714)
(0.00540478 -0.00250532 -7.06693e-05 0.00540478 5.72319e-19 0.00540478)
(0.00540478 -0.00250532 -7.06693e-05 0.00540478 -1.69559e-18 0.00540478)
(0.00543154 -0.00251647 -7.20218e-05 0.00543154 4.37513e-19 0.00543154)
(0.00543154 -0.00251647 -7.20218e-05 0.00543154 -1.81708e-18 0.00543154)
(0.00545743 -0.00252724 -7.33877e-05 0.00545743 1.001e-19 0.00545743)
(0.00545743 -0.00252724 -7.33877e-05 0.00545743 -1.9291e-18 0.00545743)
(0.00548248 -0.00253766 -7.47674e-05 0.00548248 -6.55343e-20 0.00548248)
(0.00548248 -0.00253766 -7.47674e-05 0.00548248 -1.95161e-18 0.00548248)
(0.00550672 -0.00254772 -7.61611e-05 0.00550672 -6.79387e-20 0.00550672)
(0.00550672 -0.00254772 -7.61611e-05 0.00550672 -1.98909e-18 0.00550672)
(0.00553016 -0.00255744 -7.75692e-05 0.00553016 -8.5562e-20 0.00553016)
(0.00553016 -0.00255744 -7.75692e-05 0.00553016 -2.11071e-18 0.00553016)
(0.00555283 -0.00256683 -7.89918e-05 0.00555283 -6.82349e-20 0.00555283)
(0.00555283 -0.00256683 -7.89918e-05 0.00555283 -2.23546e-18 0.00555283)
(0.00557475 -0.0025759 -8.04294e-05 0.00557475 -2.40098e-20 0.00557475)
(0.00557475 -0.0025759 -8.04294e-05 0.00557475 -2.28522e-18 0.00557475)
(0.00559594 -0.00258466 -8.18821e-05 0.00559594 4.13199e-20 0.00559594)
(0.00559594 -0.00258466 -8.18821e-05 0.00559594 -2.33835e-18 0.00559594)
(0.00561641 -0.00259311 -8.33503e-05 0.00561641 -2.07297e-20 0.00561641)
(0.00561641 -0.00259311 -8.33503e-05 0.00561641 -2.52434e-18 0.00561641)
(0.00563619 -0.00260127 -8.48343e-05 0.00563619 -5.33432e-20 0.00563619)
(0.00563619 -0.00260127 -8.48343e-05 0.00563619 -2.69907e-18 0.00563619)
(0.0056553 -0.00260915 -8.63342e-05 0.0056553 -1.86896e-21 0.0056553)
(0.0056553 -0.00260915 -8.63342e-05 0.0056553 -2.75935e-18 0.0056553)
(0.00567374 -0.00261674 -8.78504e-05 0.00567374 4.63978e-20 0.00567374)
(0.00567374 -0.00261674 -8.78504e-05 0.00567374 -2.9139e-18 0.00567374)
(0.00569155 -0.00262407 -8.93832e-05 0.00569155 2.08158e-20 0.00569155)
(0.00569155 -0.00262407 -8.93832e-05 0.00569155 -3.08019e-18 0.00569155)
(0.00570872 -0.00263113 -9.09328e-05 0.00570872 -4.73084e-20 0.00570872)
(0.00570872 -0.00263113 -9.09328e-05 0.00570872 -3.12687e-18 0.00570872)
(0.00572528 -0.00263794 -9.24995e-05 0.00572528 2.90796e-20 0.00572528)
(0.00572528 -0.00263794 -9.24995e-05 0.00572528 -3.16767e-18 0.00572528)
(0.00574124 -0.00264449 -9.40835e-05 0.00574124 3.26319e-20 0.00574124)
(0.00574124 -0.00264449 -9.40835e-05 0.00574124 -3.2637e-18 0.00574124)
(0.00575662 -0.0026508 -9.56851e-05 0.00575662 -5.0055e-21 0.00575662)
(0.00575662 -0.0026508 -9.56851e-05 0.00575662 -3.48218e-18 0.00575662)
(0.00577142 -0.00265687 -9.73046e-05 0.00577142 -2.35055e-20 0.00577142)
(0.00577142 -0.00265687 -9.73046e-05 0.00577142 -3.67646e-18 0.00577142)
(0.00578567 -0.00266271 -9.89422e-05 0.00578567 -7.69241e-20 0.00578567)
(0.00578567 -0.00266271 -9.89422e-05 0.00578567 -3.67094e-18 0.00578567)
(0.00579937 -0.00266832 -0.000100598 0.00579937 1.0861e-20 0.00579937)
(0.00579937 -0.00266832 -0.000100598 0.00579937 -3.62277e-18 0.00579937)
(0.00581253 -0.00267371 -0.000102273 0.00581253 2.23463e-20 0.00581253)
(0.00581253 -0.00267371 -0.000102273 0.00581253 -3.7829e-18 0.00581253)
(0.00582517 -0.00267888 -0.000103966 0.00582517 -4.93075e-20 0.00582517)
(0.00582517 -0.00267888 -0.000103966 0.00582517 -4.03979e-18 0.00582517)
(0.00583729 -0.00268384 -0.000105679 0.00583729 1.64888e-20 0.00583729)
(0.00583729 -0.00268384 -0.000105679 0.00583729 -4.03829e-18 0.00583729)
(0.00584891 -0.00268858 -0.000107411 0.00584891 1.28955e-19 0.00584891)
(0.00584891 -0.00268858 -0.000107411 0.00584891 -3.98819e-18 0.00584891)
(0.00586004 -0.00269312 -0.000109163 0.00586004 7.68544e-20 0.00586004)
(0.00586004 -0.00269312 -0.000109163 0.00586004 -4.25234e-18 0.00586004)
(0.00587068 -0.00269746 -0.000110934 0.00587068 -2.33911e-20 0.00587068)
(0.00587068 -0.00269746 -0.000110934 0.00587068 -4.43811e-18 0.00587068)
(0.00588084 -0.00270161 -0.000112726 0.00588084 -7.60372e-20 0.00588084)
(0.00588084 -0.00270161 -0.000112726 0.00588084 -4.29881e-18 0.00588084)
(0.00589054 -0.00270555 -0.000114538 0.00589054 -7.89585e-20 0.00589054)
(0.00589054 -0.00270555 -0.000114538 0.00589054 -4.64422e-18 0.00589054)
(0.00589978 -0.00270931 -0.00011637 0.00589978 -3.08605e-20 0.00589978)
(0.00589978 -0.00270931 -0.00011637 0.00589978 -5.26703e-18 0.00589978)
(0.00590857 -0.00271288 -0.000118223 0.00590857 -2.91303e-20 0.00590857)
(0.00590857 -0.00271288 -0.000118223 0.00590857 -5.1669e-18 0.00590857)
(0.00591691 -0.00271626 -0.000120098 0.00591691 6.4295e-20 0.00591691)
(0.00591691 -0.00271626 -0.000120098 0.00591691 -5.01344e-18 0.00591691)
(0.00592481 -0.00271946 -0.000121993 0.00592481 7.68197e-20 0.00592481)
(0.00592481 -0.00271946 -0.000121993 0.00592481 -5.49081e-18 0.00592481)
(0.00593229 -0.00272249 -0.00012391 0.00593229 8.9798e-20 0.00593229)
(0.00593229 -0.00272249 -0.00012391 0.00593229 -5.71832e-18 0.00593229)
(0.00593934 -0.00272533 -0.000125849 0.00593934 1.11691e-19 0.00593934)
(0.00593934 -0.00272533 -0.000125849 0.00593934 -5.67227e-18 0.00593934)
(0.00594597 -0.002728 -0.00012781 0.00594597 2.69826e-19 0.00594597)
(0.00594597 -0.002728 -0.00012781 0.00594597 -5.82731e-18 0.00594597)
(0.0059522 -0.0027305 -0.000129792 0.0059522 5.39421e-19 0.0059522)
(0.0059522 -0.0027305 -0.000129792 0.0059522 -6.16866e-18 0.0059522)
(0.00595801 -0.00273283 -0.000131798 0.00595801 2.62057e-19 0.00595801)
(0.00595801 -0.00273283 -0.000131798 0.00595801 -6.55419e-18 0.00595801)
(0.00596343 -0.00273499 -0.000133825 0.00596343 3.08477e-19 0.00596343)
(0.00596343 -0.00273499 -0.000133825 0.00596343 -6.54868e-18 0.00596343)
(0.00596844 -0.00273698 -0.000135875 0.00596844 5.27785e-19 0.00596844)
(0.00596844 -0.00273698 -0.000135875 0.00596844 -6.55696e-18 0.00596844)
(0.00597307 -0.00273881 -0.000137949 0.00597307 7.42763e-19 0.00597307)
(0.00597307 -0.00273881 -0.000137949 0.00597307 -6.75665e-18 0.00597307)
(0.00597731 -0.00274047 -0.000140045 0.00597731 6.42259e-19 0.00597731)
(0.00597731 -0.00274047 -0.000140045 0.00597731 -6.77185e-18 0.00597731)
(0.00598117 -0.00274198 -0.000142165 0.00598117 2.05522e-19 0.00598117)
(0.00598117 -0.00274198 -0.000142165 0.00598117 -6.89811e-18 0.00598117)
(0.00598465 -0.00274332 -0.000144308 0.00598465 1.14931e-19 0.00598465)
(0.00598465 -0.00274332 -0.000144308 0.00598465 -7.29908e-18 0.00598465)
(0.00598775 -0.0027445 -0.000146475 0.00598775 7.52048e-19 0.00598775)
(0.00598775 -0.0027445 -0.000146475 0.00598775 -7.68059e-18 0.00598775)
(0.00599048 -0.00274553 -0.000148666 0.00599048 9.89423e-19 0.00599048)
(0.00599048 -0.00274553 -0.000148666 0.00599048 -7.64727e-18 0.00599048)
(0.00599285 -0.0027464 -0.00015088 0.00599285 7.89119e-19 0.00599285)
(0.00599285 -0.0027464 -0.00015088 0.00599285 -7.15123e-18 0.00599285)
(0.00599485 -0.00274711 -0.000153119 0.00599485 5.9998e-19 0.00599485)
(0.00599485 -0.00274711 -0.000153119 0.00599485 -7.08354e-18 0.00599485)
(0.00599649 -0.00274767 -0.000155383 0.00599649 4.60265e-19 0.00599649)
(0.00599649 -0.00274767 -0.000155383 0.00599649 -8.00662e-18 0.00599649)
(0.00599777 -0.00274808 -0.000157671 0.00599777 3.77697e-19 0.00599777)
(0.00599777 -0.00274808 -0.000157671 0.00599777 -8.50461e-18 0.00599777)
(0.0059987 -0.00274833 -0.000159983 0.0059987 6.84873e-19 0.0059987)
(0.0059987 -0.00274833 -0.000159983 0.0059987 -8.157e-18 0.0059987)
(0.00599927 -0.00274843 -0.00016232 0.00599927 1.20342e-18 0.00599927)
(0.00599927 -0.00274843 -0.00016232 0.00599927 -8.03414e-18 0.00599927)
(0.00599949 -0.00274837 -0.000164683 0.00599949 9.90372e-19 0.00599949)
(0.00599949 -0.00274837 -0.000164683 0.00599949 -8.25862e-18 0.00599949)
(0.00599937 -0.00274817 -0.00016707 0.00599937 4.95423e-19 0.00599937)
(0.00599937 -0.00274817 -0.00016707 0.00599937 -8.52355e-18 0.00599937)
(0.00599889 -0.00274782 -0.000169482 0.00599889 8.41513e-19 0.00599889)
(0.00599889 -0.00274782 -0.000169482 0.00599889 -8.83623e-18 0.00599889)
(0.00599808 -0.00274731 -0.00017192 0.00599808 1.06808e-18 0.00599808)
(0.00599808 -0.00274731 -0.00017192 0.00599808 -8.69743e-18 0.00599808)
(0.00599692 -0.00274666 -0.000174384 0.00599692 6.48816e-19 0.00599692)
(0.00599692 -0.00274666 -0.000174384 0.00599692 -8.2498e-18 0.00599692)
(0.00599541 -0.00274585 -0.000176872 0.00599541 8.07229e-19 0.00599541)
(0.00599541 -0.00274585 -0.000176872 0.00599541 -8.58723e-18 0.00599541)
(0.00599357 -0.0027449 -0.000179387 0.00599357 1.05488e-18 0.00599357)
(0.00599357 -0.0027449 -0.000179387 0.00599357 -8.73422e-18 0.00599357)
(0.00599139 -0.0027438 -0.000181927 0.00599139 1.38443e-18 0.00599139)
(0.00599139 -0.0027438 -0.000181927 0.00599139 -8.42777e-18 0.00599139)
(0.00598887 -0.00274254 -0.000184493 0.00598887 1.28595e-18 0.00598887)
(0.00598887 -0.00274254 -0.000184493 0.00598887 -8.57634e-18 0.00598887)
(0.00598602 -0.00274114 -0.000187085 0.00598602 1.03124e-18 0.00598602)
(0.00598602 -0.00274114 -0.000187085 0.00598602 -1.10419e-17 0.00598602)
(0.00598283 -0.00273959 -0.000189702 0.00598283 1.48203e-18 0.00598283)
(0.00598283 -0.00273959 -0.000189702 0.00598283 -1.39575e-17 0.00598283)
(0.0059793 -0.00273789 -0.000192346 0.0059793 1.35918e-18 0.0059793)
(0.0059793 -0.00273789 -0.000192346 0.0059793 -1.48277e-17 0.0059793)
(0.00597544 -0.00273604 -0.000195016 0.00597544 1.42981e-18 0.00597544)
(0.00597544 -0.00273604 -0.000195016 0.00597544 -1.49882e-17 0.00597544)
(0.00597125 -0.00273404 -0.000197711 0.00597125 1.60814e-18 0.00597125)
(0.00597125 -0.00273404 -0.000197711 0.00597125 -1.49223e-17 0.00597125)
(0.00596673 -0.00273189 -0.000200433 0.00596673 1.50067e-18 0.00596673)
(0.00596673 -0.00273189 -0.000200433 0.00596673 -1.55569e-17 0.00596673)
(0.00596187 -0.00272959 -0.000203181 0.00596187 1.3661e-18 0.00596187)
(0.00596187 -0.00272959 -0.000203181 0.00596187 -1.55211e-17 0.00596187)
(0.00595668 -0.00272714 -0.000205955 0.00595668 1.62536e-18 0.00595668)
(0.00595668 -0.00272714 -0.000205955 0.00595668 -1.402e-17 0.00595668)
(0.00595116 -0.00272454 -0.000208755 0.00595116 2.03201e-18 0.00595116)
(0.00595116 -0.00272454 -0.000208755 0.00595116 -1.39047e-17 0.00595116)
(0.0059453 -0.00272179 -0.000211581 0.0059453 2.05767e-18 0.0059453)
(0.0059453 -0.00272179 -0.000211581 0.0059453 -1.52411e-17 0.0059453)
(0.00593912 -0.00271889 -0.000214433 0.00593912 2.00191e-18 0.00593912)
(0.00593912 -0.00271889 -0.000214433 0.00593912 -1.58686e-17 0.00593912)
(0.0059326 -0.00271583 -0.00021731 0.0059326 1.57348e-18 0.0059326)
(0.0059326 -0.00271583 -0.00021731 0.0059326 -1.56105e-17 0.0059326)
(0.00592575 -0.00271262 -0.000220214 0.00592575 1.54623e-18 0.00592575)
(0.00592575 -0.00271262 -0.000220214 0.00592575 -1.49558e-17 0.00592575)
(0.00591856 -0.00270926 -0.000223143 0.00591856 1.87615e-18 0.00591856)
(0.00591856 -0.00270926 -0.000223143 0.00591856 -1.54425e-17 0.00591856)
(0.00591105 -0.00270574 -0.000226098 0.00591105 1.77324e-18 0.00591105)
(0.00591105 -0.00270574 -0.000226098 0.00591105 -1.69421e-17 0.00591105)
(0.0059032 -0.00270207 -0.000229079 0.0059032 2.06634e-18 0.0059032)
(0.0059032 -0.00270207 -0.000229079 0.0059032 -1.75663e-17 0.0059032)
(0.00589501 -0.00269825 -0.000232085 0.00589501 1.931e-18 0.00589501)
(0.00589501 -0.00269825 -0.000232085 0.00589501 -1.70547e-17 0.00589501)
(0.00588649 -0.00269426 -0.000235116 0.00588649 1.5656e-18 0.00588649)
(0.00588649 -0.00269426 -0.000235116 0.00588649 -1.66071e-17 0.00588649)
(0.00587764 -0.00269013 -0.000238172 0.00587764 1.84542e-18 0.00587764)
(0.00587764 -0.00269013 -0.000238172 0.00587764 -1.32849e-17 0.00587764)
(0.00586845 -0.00268583 -0.000241253 0.00586845 2.03114e-18 0.00586845)
(0.00586845 -0.00268583 -0.000241253 0.00586845 -9.35318e-18 0.00586845)
(0.00585892 -0.00268137 -0.000244358 0.00585892 9.50648e-19 0.00585892)
(0.00585892 -0.00268137 -0.000244358 0.00585892 -8.81027e-18 0.00585892)
(0.00584905 -0.00267676 -0.000247488 0.00584905 2.13034e-18 0.00584905)
(0.00584905 -0.00267676 -0.000247488 0.00584905 -8.64958e-18 0.00584905)
(0.00583884 -0.00267198 -0.000250643 0.00583884 2.40862e-18 0.00583884)
(0.00583884 -0.00267198 -0.000250643 0.00583884 -8.26362e-18 0.00583884)
(0.0058283 -0.00266705 -0.000253821 0.0058283 2.24787e-18 0.0058283)
(0.0058283 -0.00266705 -0.000253821 0.0058283 -8.2475e-18 0.0058283)
(0.00581741 -0.00266195 -0.000257022 0.00581741 1.77981e-18 0.00581741)
(0.00581741 -0.00266195 -0.000257022 0.00581741 1.07114e-17 0.00581741)
(0.00580618 -0.00265669 -0.000260248 0.00580618 2.60537e-18 0.00580618)
(0.00580618 -0.00265669 -0.000260248 0.00580618 2.05345e-17 0.00580618)
(0.0057946 -0.00265126 -0.000263495 0.0057946 2.97122e-18 0.0057946)
(0.0057946 -0.00265126 -0.000263495 0.0057946 2.55646e-17 0.0057946)
(0.00578268 -0.00264567 -0.000266766 0.00578268 2.51292e-18 0.00578268)
(0.00578268 -0.00264567 -0.000266766 0.00578268 2.92439e-17 0.00578268)