/*--------------------------------*- C++ -*----------------------------------*\
| =========                 |                                                 |
| \\      /  F ield         | OpenFOAM: The Open Source CFD Toolbox           |
|  \\    /   O peration     | Version:  2012                                  |
|   \\  /    A nd           | Website:  www.openfoam.com                      |
|    \\/     M anipulation  |                                                 |
\*---------------------------------------------------------------------------*/
FoamFile
{
    version     2.0;
    format      ascii;
    class       surfaceScalarField;
    location    "1000";
    object      phi;
}
// * * * * * * * * * * * * * * * * * * * * * * * * * * * * * * * * * * * * * //

dimensions      [0 3 -1 0 0 0 0];
oriented        oriented;


internalField   nonuniform List<scalar> 
5116
(
3.78019e-08
-8.45333e-18
7.76138e-23
3.64707e-23
4.52325e-23
1.15573e-07
-8.45626e-18
1.06873e-21
1.68989e-21
1.94271e-22
1.9666e-07
-8.45922e-18
1.08983e-21
3.37463e-21
2.02749e-22
2.8112e-07
-8.46224e-18
1.10124e-21
5.1153e-21
2.11528e-22
3.69013e-07
-8.4653e-18
1.11336e-21
6.81569e-21
2.20613e-22
4.60394e-07
-8.46839e-18
1.12717e-21
8.58552e-21
2.30009e-22
5.5532e-07
-8.47144e-18
1.14109e-21
1.02853e-20
2.39721e-22
6.53846e-07
-8.4745e-18
1.15473e-21
1.18677e-20
2.49758e-22
7.56024e-07
-8.47771e-18
1.16807e-21
1.37725e-20
2.60129e-22
8.61908e-07
-8.48087e-18
1.1811e-21
1.555e-20
2.70836e-22
9.71548e-07
-8.48412e-18
1.1938e-21
1.72381e-20
2.81888e-22
1.08499e-06
-8.48732e-18
1.20615e-21
1.86949e-20
2.93288e-22
1.20229e-06
-8.49098e-18
1.21814e-21
2.05967e-20
3.05043e-22
1.32349e-06
-8.49427e-18
1.22974e-21
2.24275e-20
3.17153e-22
1.44864e-06
-8.49756e-18
1.24092e-21
2.42186e-20
3.29625e-22
1.57777e-06
-8.50098e-18
1.25166e-21
2.60486e-20
3.42464e-22
1.71094e-06
-8.50405e-18
1.26193e-21
2.75553e-20
3.55677e-22
1.84818e-06
-8.50726e-18
1.27169e-21
2.91268e-20
3.69274e-22
1.98953e-06
-8.51158e-18
1.2809e-21
3.08642e-20
3.83259e-22
2.13503e-06
-8.51488e-18
1.28955e-21
3.26145e-20
3.97632e-22
2.28471e-06
-8.51854e-18
1.29758e-21
3.4072e-20
4.12402e-22
2.43861e-06
-8.52176e-18
1.30497e-21
3.55895e-20
4.2758e-22
2.59676e-06
-8.52586e-18
1.31166e-21
3.79302e-20
4.43161e-22
2.75919e-06
-8.52874e-18
1.31764e-21
3.89183e-20
4.59136e-22
2.92593e-06
-8.53134e-18
1.32284e-21
3.98816e-20
4.75537e-22
3.097e-06
-8.53477e-18
1.3272e-21
4.16016e-20
4.92354e-22
3.27243e-06
-8.53808e-18
1.33072e-21
4.33696e-20
5.09576e-22
3.45225e-06
-8.54173e-18
1.33334e-21
4.49623e-20
5.27212e-22
3.63647e-06
-8.54502e-18
1.33503e-21
4.62276e-20
5.45262e-22
3.82512e-06
-8.54919e-18
1.33572e-21
4.82967e-20
5.63732e-22
4.01821e-06
-8.55255e-18
1.3354e-21
5.04055e-20
5.82595e-22
4.21575e-06
-8.55632e-18
1.33398e-21
5.23427e-20
6.01825e-22
4.41777e-06
-8.55985e-18
1.33143e-21
5.36649e-20
6.21448e-22
4.62428e-06
-8.56356e-18
1.32768e-21
5.5171e-20
6.41463e-22
4.83529e-06
-8.56732e-18
1.32271e-21
5.6254e-20
6.6187e-22
5.0508e-06
-8.56997e-18
1.31644e-21
5.75378e-20
6.8264e-22
5.27082e-06
-8.57273e-18
1.3088e-21
5.81501e-20
7.03781e-22
5.49537e-06
-8.57594e-18
1.29973e-21
5.86611e-20
7.25343e-22
5.72444e-06
-8.57781e-18
1.28916e-21
5.87221e-20
7.47308e-22
5.95804e-06
-8.57981e-18
1.27698e-21
5.88066e-20
7.69675e-22
6.19617e-06
-8.58161e-18
1.26316e-21
5.94743e-20
7.92394e-22
6.43884e-06
-8.58511e-18
1.24766e-21
6.08254e-20
8.15449e-22
6.68603e-06
-8.58742e-18
1.23044e-21
6.14342e-20
8.38824e-22
6.93776e-06
-8.59005e-18
1.21141e-21
6.22586e-20
8.62494e-22
7.19401e-06
-8.59477e-18
1.19048e-21
6.44514e-20
8.86429e-22
7.45479e-06
-8.59685e-18
1.16765e-21
6.539e-20
9.10634e-22
7.72008e-06
-8.59819e-18
1.14278e-21
6.64603e-20
9.35126e-22
7.98989e-06
-8.60011e-18
1.11585e-21
6.59771e-20
9.59861e-22
8.2642e-06
-8.60204e-18
1.08669e-21
6.37873e-20
9.85062e-22
8.543e-06
-8.60445e-18
1.05531e-21
6.30822e-20
1.01061e-21
8.8263e-06
-8.60425e-18
1.02157e-21
6.11658e-20
1.03656e-21
9.11408e-06
-8.60213e-18
9.85423e-22
5.89663e-20
1.06276e-21
9.40633e-06
-8.60145e-18
9.46715e-22
5.69955e-20
1.08923e-21
9.70305e-06
-8.60254e-18
9.0543e-22
5.48724e-20
1.11593e-21
1.00042e-05
-8.60455e-18
8.61554e-22
5.51259e-20
1.14277e-21
1.03098e-05
-8.60499e-18
8.1509e-22
5.47159e-20
1.16966e-21
1.06199e-05
-8.60656e-18
7.65849e-22
5.38811e-20
1.19665e-21
1.09343e-05
-8.60876e-18
7.13803e-22
5.4893e-20
1.22365e-21
1.12532e-05
-8.60997e-18
6.58938e-22
5.27251e-20
1.25041e-21
1.15765e-05
-8.61001e-18
6.01109e-22
5.08586e-20
1.27716e-21
1.19042e-05
-8.61053e-18
5.40126e-22
4.78277e-20
1.30383e-21
1.22362e-05
-8.60785e-18
4.75953e-22
4.48912e-20
1.33059e-21
1.25726e-05
-8.60273e-18
4.08284e-22
3.79189e-20
1.35714e-21
1.29134e-05
-8.59881e-18
3.36979e-22
3.37949e-20
1.38373e-21
1.32586e-05
-8.59574e-18
2.62064e-22
3.29289e-20
1.41019e-21
1.36081e-05
-8.59587e-18
1.83208e-22
2.99536e-20
1.43623e-21
1.3962e-05
-8.59304e-18
1.0097e-22
2.81479e-20
1.46188e-21
1.43202e-05
-8.59026e-18
1.49489e-23
2.29136e-20
1.48694e-21
1.46827e-05
-8.59023e-18
-7.49233e-23
1.87722e-20
1.51158e-21
1.50496e-05
-8.58625e-18
-1.68607e-22
1.47581e-20
1.53572e-21
1.54209e-05
-8.58368e-18
-2.66421e-22
1.09501e-20
1.55923e-21
1.57964e-05
-8.57854e-18
-3.68407e-22
2.25895e-21
1.58199e-21
1.61763e-05
-8.57351e-18
-4.74987e-22
-5.7031e-21
1.60431e-21
1.65606e-05
-8.56529e-18
-5.86506e-22
-9.87987e-21
1.62623e-21
1.69492e-05
-8.55928e-18
-7.02932e-22
-1.92965e-20
1.64765e-21
1.73422e-05
-8.54485e-18
-8.24559e-22
-2.83705e-20
1.66884e-21
1.77395e-05
-8.54265e-18
-9.52013e-22
-3.07133e-20
1.68971e-21
1.81412e-05
-8.54001e-18
-1.0844e-21
-3.86281e-20
1.70966e-21
1.85473e-05
-8.53629e-18
-1.22178e-21
-4.47721e-20
1.7295e-21
1.89578e-05
-8.52977e-18
-1.36395e-21
-4.90804e-20
1.74858e-21
1.93727e-05
-8.52159e-18
-1.51159e-21
-5.57648e-20
1.76646e-21
1.97921e-05
-8.51558e-18
-1.66463e-21
-6.48e-20
1.78292e-21
2.02159e-05
-8.5074e-18
-1.82294e-21
-7.54741e-20
1.79811e-21
2.06442e-05
-8.4953e-18
-1.98683e-21
-8.39322e-20
1.81237e-21
2.1077e-05
-8.48526e-18
-2.15679e-21
-9.81959e-20
1.82533e-21
2.15144e-05
-8.47511e-18
-2.33315e-21
-1.09743e-19
1.83781e-21
2.19563e-05
-8.46773e-18
-2.51576e-21
-1.17315e-19
1.84893e-21
2.24028e-05
-8.46008e-18
-2.70433e-21
-1.23836e-19
1.85796e-21
2.2854e-05
-8.45001e-18
-2.89821e-21
-1.31755e-19
1.86472e-21
2.33098e-05
-8.43572e-18
-3.09796e-21
-1.44345e-19
1.86944e-21
2.37703e-05
-8.42198e-18
-3.30426e-21
-1.58305e-19
1.87228e-21
2.42357e-05
-8.40514e-18
-3.51629e-21
-1.74147e-19
1.87302e-21
2.47058e-05
-8.38843e-18
-3.7344e-21
-1.88061e-19
1.8717e-21
2.51807e-05
-8.3708e-18
-3.95863e-21
-2.07174e-19
1.86821e-21
2.56606e-05
-8.36109e-18
-4.19022e-21
-2.16604e-19
1.8627e-21
2.61455e-05
-8.34669e-18
-4.4285e-21
-2.29818e-19
1.85362e-21
2.66353e-05
-8.32686e-18
-4.6732e-21
-2.44275e-19
1.84237e-21
2.71303e-05
-8.30379e-18
-4.92456e-21
-2.63763e-19
1.82838e-21
2.76303e-05
-8.27959e-18
-5.18441e-21
-2.80334e-19
1.81307e-21
2.81356e-05
-8.25224e-18
-5.45293e-21
-3.0188e-19
1.79562e-21
2.86462e-05
-8.22793e-18
-5.73099e-21
-3.24571e-19
1.7765e-21
2.91621e-05
-8.20349e-18
-6.01739e-21
-3.40206e-19
1.75608e-21
2.96834e-05
-8.1837e-18
-6.31441e-21
-3.57033e-19
1.7335e-21
3.02102e-05
-8.16107e-18
-6.6199e-21
-3.74791e-19
1.70888e-21
3.07426e-05
-8.13398e-18
-6.93407e-21
-3.95697e-19
1.68155e-21
3.12806e-05
-8.11049e-18
-7.25775e-21
-4.22068e-19
1.65173e-21
3.18244e-05
-8.0817e-18
-7.58854e-21
-4.45195e-19
1.61856e-21
3.23739e-05
-8.04739e-18
-7.93026e-21
-4.78125e-19
1.58171e-21
3.29295e-05
-7.99992e-18
-8.28281e-21
-5.14127e-19
1.54098e-21
3.3491e-05
-7.97848e-18
-8.64752e-21
-5.29903e-19
1.498e-21
3.40586e-05
-7.94725e-18
-9.0194e-21
-5.54067e-19
1.44642e-21
3.46324e-05
-7.91837e-18
-9.39999e-21
-5.77153e-19
1.38909e-21
3.52125e-05
-7.87719e-18
-9.78899e-21
-6.05177e-19
1.32493e-21
3.5799e-05
-7.83779e-18
-1.0188e-20
-6.36401e-19
1.25273e-21
3.6392e-05
-7.80474e-18
-1.05976e-20
-6.62146e-19
1.17501e-21
3.69916e-05
-7.76677e-18
-1.10177e-20
-6.94431e-19
1.09007e-21
3.7598e-05
-7.72255e-18
-1.14437e-20
-7.25143e-19
9.99439e-22
3.82112e-05
-7.68018e-18
-1.18794e-20
-7.49626e-19
8.9951e-22
3.88313e-05
-7.64558e-18
-1.23234e-20
-7.73787e-19
7.89869e-22
3.94585e-05
-7.60322e-18
-1.2776e-20
-8.03355e-19
6.73626e-22
4.00929e-05
-7.54892e-18
-1.32397e-20
-8.36733e-19
5.51068e-22
4.07346e-05
-7.50334e-18
-1.37184e-20
-8.71372e-19
4.23657e-22
4.13837e-05
-7.45648e-18
-1.42097e-20
-9.05251e-19
2.91157e-22
4.20403e-05
-7.40748e-18
-1.47124e-20
-9.41248e-19
1.49729e-22
4.27047e-05
-7.34732e-18
-1.52243e-20
-9.85925e-19
3.27129e-24
4.33768e-05
-7.30415e-18
-1.57445e-20
-1.01171e-18
-1.49066e-22
4.40569e-05
-7.25428e-18
-1.62667e-20
-1.04806e-18
-3.14264e-22
4.47451e-05
-7.20488e-18
-1.67921e-20
-1.08277e-18
-4.91031e-22
4.54415e-05
-7.135e-18
-1.73178e-20
-1.11644e-18
-6.78745e-22
4.61462e-05
-7.07475e-18
-1.78531e-20
-1.15342e-18
-8.77389e-22
4.68595e-05
-7.0113e-18
-1.83949e-20
-1.19537e-18
-1.08272e-21
4.75813e-05
-6.9531e-18
-1.89401e-20
-1.2374e-18
-1.29621e-21
4.8312e-05
-6.88692e-18
-1.94827e-20
-1.28062e-18
-1.5184e-21
4.90516e-05
-6.82466e-18
-2.00226e-20
-1.31486e-18
-1.7507e-21
4.98002e-05
-6.76115e-18
-2.05558e-20
-1.35054e-18
-1.99324e-21
5.05581e-05
-6.69314e-18
-2.10786e-20
-1.38826e-18
-2.24587e-21
5.13254e-05
-6.62783e-18
-2.15918e-20
-1.42671e-18
-2.50861e-21
5.21022e-05
-6.57641e-18
-2.20895e-20
-1.4643e-18
-2.77792e-21
5.28887e-05
-6.50319e-18
-2.2564e-20
-1.50344e-18
-3.0522e-21
5.3685e-05
-6.41968e-18
-2.30174e-20
-1.55475e-18
-3.33656e-21
5.44914e-05
-6.35228e-18
-2.34485e-20
-1.60749e-18
-3.6263e-21
5.5308e-05
-6.28297e-18
-2.38467e-20
-1.65107e-18
-3.91321e-21
5.6135e-05
-6.19978e-18
-2.42101e-20
-1.70033e-18
-4.20311e-21
5.69725e-05
-6.11861e-18
-2.45409e-20
-1.75168e-18
-4.4913e-21
5.78207e-05
-6.0556e-18
-2.48311e-20
-1.78528e-18
-4.76967e-21
5.86799e-05
-5.9939e-18
-2.50619e-20
-1.81923e-18
-5.05309e-21
5.95502e-05
-5.92422e-18
-2.52319e-20
-1.85209e-18
-5.34009e-21
6.04317e-05
-5.85617e-18
-2.53403e-20
-1.88913e-18
-5.63108e-21
6.13248e-05
-5.80181e-18
-2.53903e-20
-1.90601e-18
-5.90276e-21
6.22297e-05
-5.74375e-18
-2.53779e-20
-1.9418e-18
-6.15417e-21
6.31464e-05
-5.69829e-18
-2.53097e-20
-1.96979e-18
-6.36839e-21
6.40754e-05
-5.64331e-18
-2.51802e-20
-2.00259e-18
-6.54322e-21
6.50167e-05
-5.5833e-18
-2.49848e-20
-2.03748e-18
-6.69121e-21
6.59707e-05
-5.51617e-18
-2.47063e-20
-2.07505e-18
-6.8321e-21
6.69375e-05
-5.4517e-18
-2.43394e-20
-2.12358e-18
-6.95171e-21
6.79175e-05
-5.36704e-18
-2.38796e-20
-2.17703e-18
-7.05755e-21
6.89109e-05
-5.28883e-18
-2.3357e-20
-2.22722e-18
-7.12323e-21
6.9918e-05
-5.21573e-18
-2.27594e-20
-2.26577e-18
-7.1451e-21
7.0939e-05
-5.14884e-18
-2.21234e-20
-2.29519e-18
-7.11867e-21
7.19742e-05
-5.0908e-18
-2.14571e-20
-2.32353e-18
-7.06282e-21
7.30239e-05
-5.01672e-18
-2.07364e-20
-2.35122e-18
-6.97023e-21
7.40884e-05
-4.97242e-18
-2.00082e-20
-2.37818e-18
-6.86691e-21
7.5168e-05
-4.95001e-18
-1.92648e-20
-2.39217e-18
-6.74626e-21
7.62628e-05
-4.89672e-18
-1.84869e-20
-2.43688e-18
-6.64506e-21
7.73733e-05
-4.85079e-18
-1.77338e-20
-2.47585e-18
-6.52784e-21
7.84997e-05
-4.79053e-18
-1.69758e-20
-2.51225e-18
-6.41413e-21
7.96423e-05
-4.74022e-18
-1.62393e-20
-2.54572e-18
-6.30898e-21
8.08014e-05
-4.70782e-18
-1.55548e-20
-2.56569e-18
-6.19205e-21
8.19772e-05
-4.66485e-18
-1.48981e-20
-2.58182e-18
-6.05542e-21
8.317e-05
-4.63622e-18
-1.42771e-20
-2.60294e-18
-5.90252e-21
8.43802e-05
-4.60714e-18
-1.36781e-20
-2.61387e-18
-5.77808e-21
8.56079e-05
-4.58957e-18
-1.31208e-20
-2.5978e-18
-5.65108e-21
8.68535e-05
-4.55068e-18
-1.26088e-20
-2.61047e-18
-5.54326e-21
8.81172e-05
-4.51847e-18
-1.2181e-20
-2.63189e-18
-5.41885e-21
8.93994e-05
-4.48642e-18
-1.17924e-20
-2.61657e-18
-5.32127e-21
9.07002e-05
-4.44941e-18
-1.14664e-20
-2.63313e-18
-5.26553e-21
9.20201e-05
-4.41649e-18
-1.12266e-20
-2.6437e-18
-5.22087e-21
9.33593e-05
-4.38187e-18
-1.10254e-20
-2.65382e-18
-5.20395e-21
9.4718e-05
-4.33948e-18
-1.08946e-20
-2.65832e-18
-5.17093e-21
9.60966e-05
-4.31549e-18
-1.08206e-20
-2.65748e-18
-5.12298e-21
9.74954e-05
-4.28051e-18
-1.07495e-20
-2.66285e-18
-5.12621e-21
9.89147e-05
-4.26014e-18
-1.06836e-20
-2.67262e-18
-5.16153e-21
0.000100355
-4.26088e-18
-1.06308e-20
-2.66416e-18
-5.21512e-21
0.000101816
-4.2289e-18
-1.05893e-20
-2.65264e-18
-5.2469e-21
0.000103298
-4.20588e-18
-1.05663e-20
-2.63212e-18
-5.2841e-21
0.000104803
-4.19431e-18
-1.05578e-20
-2.62846e-18
-5.39135e-21
0.000106329
-4.17619e-18
-1.05524e-20
-2.62365e-18
-5.50825e-21
0.000107878
-4.15776e-18
-1.05678e-20
-2.64376e-18
-5.64299e-21
0.000109449
-4.14044e-18
-1.06027e-20
-2.6424e-18
-5.75633e-21
0.000111044
-4.1169e-18
-1.06796e-20
-2.62883e-18
-5.9046e-21
0.000112662
-4.10499e-18
-1.08322e-20
-2.61967e-18
-6.06888e-21
0.000114303
-4.1156e-18
-1.10332e-20
-2.59091e-18
-6.23308e-21
0.000115969
-4.09484e-18
-1.1248e-20
-2.57885e-18
-6.47163e-21
0.000117659
-4.07859e-18
-1.15243e-20
-2.56754e-18
-6.70194e-21
0.000119374
-4.06917e-18
-1.18571e-20
-2.53816e-18
-6.9418e-21
0.000121114
-4.04985e-18
-1.21977e-20
-2.52108e-18
-7.24151e-21
0.00012288
-4.00324e-18
-1.25374e-20
-2.55053e-18
-7.55494e-21
0.000124672
-3.97223e-18
-1.282e-20
-2.60645e-18
-7.70389e-21
0.00012649
-3.93302e-18
-1.30827e-20
-2.61737e-18
-7.70275e-21
0.000128335
-3.89918e-18
-1.33462e-20
-2.63612e-18
-7.72102e-21
0.000130207
-3.83916e-18
-1.35758e-20
-2.63933e-18
-7.66341e-21
0.000132106
-3.81816e-18
-1.38149e-20
-2.65385e-18
-7.58808e-21
0.000134034
-3.77661e-18
-1.40196e-20
-2.66697e-18
-7.54454e-21
0.000135989
-3.74908e-18
-1.43151e-20
-2.65737e-18
-7.40573e-21
0.000137974
-3.75928e-18
-1.46215e-20
-2.64258e-18
-7.27414e-21
0.000139988
-3.70648e-18
-1.47325e-20
-2.66046e-18
-7.27219e-21
0.000142032
-3.67182e-18
-1.48568e-20
-2.67161e-18
-7.16683e-21
0.000144105
-3.63893e-18
-1.4907e-20
-2.67323e-18
-6.99055e-21
0.000146209
-3.66861e-18
-1.49968e-20
-2.64373e-18
-6.74327e-21
0.000148345
-3.6704e-18
-1.49514e-20
-2.60468e-18
-6.66066e-21
0.000150512
-3.64116e-18
-1.47867e-20
-2.58059e-18
-6.66853e-21
0.00015271
-3.61528e-18
-1.45288e-20
-2.56628e-18
-6.91625e-21
0.000154942
-3.56374e-18
-1.42868e-20
-2.57603e-18
-7.21385e-21
0.000157206
-3.60915e-18
-1.41512e-20
-2.53124e-18
-7.47589e-21
0.000159503
-3.55382e-18
-1.36774e-20
-2.55855e-18
-7.86798e-21
0.000161835
-3.55389e-18
-1.31955e-20
-2.54964e-18
-8.12953e-21
0.000164201
-3.52527e-18
-1.26944e-20
-2.58411e-18
-8.26733e-21
0.000166602
-3.51089e-18
-1.22345e-20
-2.62238e-18
-8.27597e-21
0.000169038
-3.46857e-18
-1.18855e-20
-2.65391e-18
-8.15964e-21
0.000171511
-3.43763e-18
-1.17166e-20
-2.66926e-18
-7.9711e-21
0.00017402
-3.42276e-18
-1.16524e-20
-2.72975e-18
-7.88423e-21
0.000176566
-3.40141e-18
-1.1487e-20
-2.73466e-18
-7.74648e-21
0.00017915
-3.35418e-18
-1.13611e-20
-2.76128e-18
-7.8429e-21
0.000181772
-3.3453e-18
-1.1389e-20
-2.78217e-18
-7.9996e-21
0.000184433
-3.37174e-18
-1.13791e-20
-2.77179e-18
-8.25435e-21
0.000187134
-3.3115e-18
-1.10979e-20
-2.80242e-18
-8.71247e-21
0.000189874
-3.27423e-18
-1.10676e-20
-2.82406e-18
-8.73786e-21
0.000192655
-3.25406e-18
-1.11678e-20
-2.86766e-18
-8.86508e-21
0.000195478
-3.27781e-18
-1.12801e-20
-2.81907e-18
-9.1221e-21
0.000198342
-3.27116e-18
-1.14051e-20
-2.8393e-18
-9.40735e-21
0.000201249
-3.23591e-18
-1.15608e-20
-2.87841e-18
-9.50163e-21
0.000204198
-3.25662e-18
-1.20763e-20
-2.89541e-18
-8.97279e-21
0.000207192
-3.28216e-18
-1.19341e-20
-2.86378e-18
-8.83072e-21
0.00021023
-3.25913e-18
-1.14101e-20
-2.88872e-18
-9.26483e-21
0.000213314
-3.22701e-18
-1.09758e-20
-2.8924e-18
-9.39081e-21
0.000216443
-3.23882e-18
-1.06471e-20
-2.89005e-18
-9.59152e-21
0.000219618
-3.19482e-18
-1.00486e-20
-2.90861e-18
-9.46971e-21
0.000222841
-3.16441e-18
-9.67279e-21
-2.90444e-18
-9.25593e-21
0.000226112
-3.14475e-18
-9.6007e-21
-2.90452e-18
-9.02917e-21
0.000229431
-3.12528e-18
-9.20742e-21
-2.91261e-18
-8.94104e-21
0.0002328
-3.10889e-18
-9.24321e-21
-2.93508e-18
-8.49652e-21
0.000236219
-3.08794e-18
-9.06416e-21
-2.93693e-18
-8.62936e-21
0.000239689
-3.06364e-18
-8.49229e-21
-2.96877e-18
-8.76291e-21
0.00024321
-3.03683e-18
-7.94956e-21
-2.90222e-18
-8.48053e-21
0.000246784
-3.01155e-18
-7.7131e-21
-2.90537e-18
-8.2908e-21
0.000250412
-2.96353e-18
-7.80892e-21
-2.91573e-18
-7.44637e-21
0.000254093
-2.89498e-18
-7.95849e-21
-2.8238e-18
-6.45866e-21
0.000257829
-2.84878e-18
-8.3086e-21
-2.79429e-18
-6.98443e-21
0.000261621
-2.82408e-18
-8.88226e-21
-2.736e-18
-7.07368e-21
0.000265469
-2.74423e-18
-9.5424e-21
-2.61344e-18
-7.52027e-21
0.000269375
-2.66296e-18
-1.0191e-20
-2.64977e-18
-8.98665e-21
0.000273339
-2.61523e-18
-1.15267e-20
-2.51384e-18
-9.57381e-21
0.000277363
-2.56158e-18
-1.28735e-20
-2.53462e-18
-1.14314e-20
0.000281446
-2.49676e-18
-1.48606e-20
-2.47037e-18
-1.16852e-20
0.00028559
-2.5188e-18
-1.65243e-20
-2.41609e-18
-1.23724e-20
0.000289797
-2.483e-18
-1.6459e-20
-2.33775e-18
-1.23758e-20
0.000294066
-2.45088e-18
-1.62649e-20
-2.31807e-18
-1.2592e-20
0.000298398
-2.41606e-18
-1.63707e-20
-2.30275e-18
-1.22976e-20
0.000302796
-2.41705e-18
-1.54882e-20
-2.23331e-18
-1.15786e-20
0.000307259
-2.38965e-18
-1.38134e-20
-2.20157e-18
-1.18325e-20
0.000311789
-2.35537e-18
-1.27412e-20
-2.20136e-18
-1.32234e-20
0.000316387
-2.30125e-18
-1.24811e-20
-2.20285e-18
-1.44422e-20
0.000321053
-2.32701e-18
-1.22665e-20
-2.20695e-18
-1.59971e-20
0.000325789
-2.33442e-18
-1.12205e-20
-2.17894e-18
-1.83005e-20
0.000330596
-2.3319e-18
-1.0885e-20
-2.16078e-18
-1.919e-20
0.000335475
-2.24143e-18
-9.74095e-21
-2.15039e-18
-2.05165e-20
0.000340427
-2.14797e-18
-9.45755e-21
-2.25467e-18
-2.1966e-20
0.000345452
-2.13103e-18
-9.64028e-21
-2.22239e-18
-2.13246e-20
0.000350553
-2.07722e-18
-8.80308e-21
-2.18136e-18
-1.88538e-20
0.000355731
-2.01059e-18
-8.27928e-21
-2.1521e-18
-1.65868e-20
0.000360985
-2.00863e-18
-8.15207e-21
-2.10008e-18
-1.37217e-20
0.000366319
-1.98522e-18
-7.7731e-21
-2.07679e-18
-1.22552e-20
0.000371731
-1.96781e-18
-7.85483e-21
-2.15602e-18
-1.23383e-20
0.000377225
-1.98036e-18
-7.84086e-21
-2.0912e-18
-1.03822e-20
0.000382801
-1.89162e-18
-7.68692e-21
-1.95674e-18
-8.623e-21
0.000388461
-1.88992e-18
-8.34487e-21
-1.89432e-18
-9.36262e-21
0.000394204
-1.82152e-18
-7.68079e-21
-1.91176e-18
-1.3024e-20
0.000400034
-1.93718e-18
-8.84456e-21
-1.89179e-18
-1.43138e-20
0.000405951
-1.88151e-18
-6.1999e-21
-1.84744e-18
-1.48801e-20
0.000411956
-1.86477e-18
-5.104e-21
-1.80452e-18
-1.31219e-20
0.00041805
-1.82292e-18
-4.35893e-21
-1.80572e-18
-1.20848e-20
0.000424236
-1.80495e-18
-3.82574e-21
-1.82438e-18
-1.1774e-20
0.000430514
-1.74974e-18
-4.73699e-21
-1.77392e-18
-1.22587e-20
0.000436885
-1.69383e-18
-7.15488e-21
-1.79491e-18
-1.03884e-20
0.000443351
-1.73403e-18
-9.63919e-21
-1.73179e-18
-5.38948e-21
0.000449913
-1.66551e-18
-1.21349e-20
-1.76589e-18
-1.30633e-21
0.000456573
-1.69406e-18
-1.25865e-20
-1.73928e-18
3.34053e-22
0.000463332
-1.75901e-18
-1.22249e-20
-1.65111e-18
4.3814e-22
0.000470191
-1.69177e-18
-7.0062e-21
-1.6582e-18
1.08037e-21
0.000477152
-1.65322e-18
-3.63837e-21
-1.6213e-18
1.64847e-21
0.000484217
-1.61294e-18
-2.06544e-21
-1.57115e-18
7.83654e-22
0.000491385
-1.63853e-18
-1.56205e-21
-1.57512e-18
-1.50027e-21
0.00049866
-1.52825e-18
-1.14721e-21
-1.50193e-18
9.76556e-22
0.000506042
-1.57769e-18
-6.56742e-21
-1.49312e-18
3.87206e-21
0.000513533
-1.55786e-18
-9.31451e-21
-1.52463e-18
5.03237e-21
0.000521134
-1.48761e-18
-8.29854e-21
-1.50633e-18
4.70505e-21
0.000528846
-1.42115e-18
-5.75972e-21
-1.51508e-18
-3.51723e-21
0.000536672
-1.48517e-18
-1.29483e-20
-1.51443e-18
-6.13405e-21
0.000544612
-1.37534e-18
-1.14798e-20
-1.41774e-18
-2.8833e-21
0.000552668
-1.36201e-18
-1.48723e-20
-1.41578e-18
-9.63549e-21
0.000560841
-1.31535e-18
-1.51662e-20
-1.37245e-18
-1.04174e-20
0.000569133
-1.45329e-18
-1.36576e-20
-1.38731e-18
-7.45722e-21
0.000577545
-1.41028e-18
-5.12719e-21
-1.48447e-18
-4.41008e-21
0.000586078
-1.40242e-18
-6.39354e-21
-1.33693e-18
1.91754e-22
0.000594734
-1.37616e-18
-1.09371e-20
-1.38771e-18
-1.84443e-21
0.000603514
-1.29949e-18
-1.31529e-20
-1.36969e-18
-1.37577e-21
0.000612419
-1.30336e-18
-1.77692e-20
-1.40836e-18
-5.94303e-21
0.00062145
-1.34873e-18
-2.16915e-20
-1.31764e-18
-3.66315e-21
0.00063061
-1.32122e-18
-2.00914e-20
-1.27207e-18
-3.44897e-21
0.000639897
-1.34848e-18
-1.20408e-20
-1.22015e-18
-1.55048e-21
0.000649315
-1.26988e-18
-8.45545e-21
-1.26171e-18
-4.70802e-22
0.000658863
-1.31193e-18
-1.11579e-20
-1.23495e-18
1.68826e-21
0.000668543
-1.27626e-18
-3.90135e-21
-1.27762e-18
1.04689e-20
0.000678356
-1.20449e-18
4.92407e-22
-1.21847e-18
1.49137e-20
0.000688303
-1.19746e-18
3.15481e-21
-1.2455e-18
1.04883e-20
0.000698383
-1.10546e-18
6.99691e-21
-1.21902e-18
1.10158e-21
0.000708599
-1.14902e-18
8.05327e-21
-1.14414e-18
-2.12392e-21
0.00071895
-1.08828e-18
2.4103e-20
-1.09701e-18
-1.18064e-20
0.000729438
-1.10924e-18
3.06047e-20
-1.10527e-18
-1.83877e-20
0.000740062
3.07328e-20
-1.07843e-18
-1.38678e-20
-1.06208e-18
3.78019e-08
6.0584e-23
5.5322e-23
1.15573e-07
1.05044e-21
3.19556e-22
1.9666e-07
2.08052e-21
6.01347e-22
2.8112e-07
3.01772e-21
9.74365e-22
3.69013e-07
4.01244e-21
1.29158e-21
4.60394e-07
5.07097e-21
1.62973e-21
5.5532e-07
5.94416e-21
2.18277e-21
6.53846e-07
6.87311e-21
2.7798e-21
7.56024e-07
7.74383e-21
3.25348e-21
8.61908e-07
8.5016e-21
3.92327e-21
9.71548e-07
9.62637e-21
4.29581e-21
1.08499e-06
1.053e-20
4.63274e-21
1.20229e-06
1.17287e-20
5.12756e-21
1.32349e-06
1.29426e-20
5.50286e-21
1.44864e-06
1.43197e-20
5.90237e-21
1.57777e-06
1.61904e-20
6.37981e-21
1.71094e-06
1.71726e-20
7.02372e-21
1.84818e-06
1.82944e-20
7.3722e-21
1.98953e-06
1.98571e-20
7.49266e-21
2.13503e-06
2.11285e-20
7.94641e-21
2.28471e-06
2.26261e-20
8.49623e-21
2.43861e-06
2.3756e-20
8.60716e-21
2.59676e-06
2.53775e-20
8.9467e-21
2.75919e-06
2.62344e-20
9.71849e-21
2.92593e-06
2.73692e-20
1.01436e-20
3.097e-06
2.86158e-20
1.06448e-20
3.27243e-06
2.96188e-20
1.14244e-20
3.45225e-06
3.1264e-20
1.19723e-20
3.63647e-06
3.25551e-20
1.27403e-20
3.82512e-06
3.39458e-20
1.32366e-20
4.01821e-06
3.52141e-20
1.33806e-20
4.21575e-06
3.56121e-20
1.51418e-20
4.41777e-06
3.62682e-20
1.54679e-20
4.62428e-06
3.81032e-20
1.61773e-20
4.83529e-06
3.91143e-20
1.62347e-20
5.0508e-06
4.17818e-20
1.69099e-20
5.27082e-06
4.33952e-20
1.80434e-20
5.49537e-06
4.48573e-20
1.79208e-20
5.72444e-06
4.55912e-20
1.87567e-20
5.95804e-06
4.70374e-20
1.95383e-20
6.19617e-06
4.95121e-20
2.00605e-20
6.43884e-06
4.98851e-20
2.06526e-20
6.68603e-06
5.03557e-20
2.16039e-20
6.93776e-06
5.06811e-20
2.21365e-20
7.19401e-06
5.15966e-20
2.35107e-20
7.45479e-06
5.27922e-20
2.41715e-20
7.72008e-06
5.66367e-20
2.29881e-20
7.98989e-06
5.75839e-20
2.66847e-20
8.2642e-06
6.04169e-20
2.61945e-20
8.543e-06
5.93437e-20
2.96177e-20
8.8263e-06
6.14292e-20
2.95812e-20
9.11408e-06
6.28185e-20
3.08259e-20
9.40633e-06
6.39653e-20
3.15101e-20
9.70305e-06
6.53603e-20
3.22487e-20
1.00042e-05
6.85618e-20
3.39898e-20
1.03098e-05
6.97761e-20
3.60393e-20
1.06199e-05
7.01595e-20
3.92346e-20
1.09343e-05
7.1142e-20
3.90027e-20
1.12532e-05
7.16252e-20
4.03911e-20
1.15765e-05
7.18655e-20
4.04027e-20
1.19042e-05
7.3456e-20
4.42651e-20
1.22362e-05
7.3624e-20
4.46275e-20
1.25726e-05
7.44329e-20
4.59176e-20
1.29134e-05
7.53956e-20
4.65776e-20
1.32586e-05
6.99422e-20
4.71275e-20
1.36081e-05
7.16701e-20
4.79725e-20
1.3962e-05
7.02623e-20
4.98227e-20
1.43202e-05
7.05875e-20
5.07991e-20
1.46827e-05
7.13991e-20
5.11714e-20
1.50496e-05
7.28732e-20
5.2065e-20
1.54209e-05
7.4927e-20
5.356e-20
1.57964e-05
7.59689e-20
5.39313e-20
1.61763e-05
7.40921e-20
5.3024e-20
1.65606e-05
7.89438e-20
5.36005e-20
1.69492e-05
7.94692e-20
5.28734e-20
1.73422e-05
7.98761e-20
5.31715e-20
1.77395e-05
8.02286e-20
5.28572e-20
1.81412e-05
8.03093e-20
5.74387e-20
1.85473e-05
8.3674e-20
5.76555e-20
1.89578e-05
8.05534e-20
5.8542e-20
1.93727e-05
7.85675e-20
5.92664e-20
1.97921e-05
7.70257e-20
6.11647e-20
2.02159e-05
7.63878e-20
6.23684e-20
2.06442e-05
7.53113e-20
6.15225e-20
2.1077e-05
6.99859e-20
6.5774e-20
2.15144e-05
6.89809e-20
6.60468e-20
2.19563e-05
6.84122e-20
6.48565e-20
2.24028e-05
7.31446e-20
6.36665e-20
2.2854e-05
7.38913e-20
6.31487e-20
2.33098e-05
7.0203e-20
6.27538e-20
2.37703e-05
7.19578e-20
6.17176e-20
2.42357e-05
7.50502e-20
5.65604e-20
2.47058e-05
7.82022e-20
5.44089e-20
2.51807e-05
7.4626e-20
5.40273e-20
2.56606e-05
7.06602e-20
5.17612e-20
2.61455e-05
7.19101e-20
5.27401e-20
2.66353e-05
7.47417e-20
4.7511e-20
2.71303e-05
6.80622e-20
5.20415e-20
2.76303e-05
6.44375e-20
5.81583e-20
2.81356e-05
5.89614e-20
6.12903e-20
2.86462e-05
5.7382e-20
6.39903e-20
2.91621e-05
4.35356e-20
6.92876e-20
2.96834e-05
3.87658e-20
7.30648e-20
3.02102e-05
3.5845e-20
7.79456e-20
3.07426e-05
3.58195e-20
8.32584e-20
3.12806e-05
4.38836e-20
7.64495e-20
3.18244e-05
3.25285e-20
7.77448e-20
3.23739e-05
2.65464e-20
7.01941e-20
3.29295e-05
2.69363e-20
6.87403e-20
3.3491e-05
2.58503e-20
5.84061e-20
3.40586e-05
2.63987e-20
5.14303e-20
3.46324e-05
2.7828e-20
4.0781e-20
3.52125e-05
3.20699e-20
2.45714e-20
3.5799e-05
2.95672e-20
1.71286e-20
3.6392e-05
1.91169e-20
1.16793e-20
3.69916e-05
2.84575e-20
1.32235e-20
3.7598e-05
2.62832e-20
3.64142e-21
3.82112e-05
2.35821e-20
-3.05048e-21
3.88313e-05
9.17804e-21
2.41055e-21
3.94585e-05
-2.66177e-21
3.81686e-21
4.00929e-05
-1.40303e-20
4.90339e-21
4.07346e-05
-2.97543e-20
9.54246e-21
4.13837e-05
-4.90897e-20
9.7081e-21
4.20403e-05
-6.8903e-20
2.1212e-20
4.27047e-05
-7.94776e-20
2.18844e-20
4.33768e-05
-9.08671e-20
2.29659e-20
4.40569e-05
-1.07015e-19
1.98884e-20
4.47451e-05
-1.19165e-19
1.94931e-20
4.54415e-05
-1.41746e-19
1.42004e-20
4.61462e-05
-1.67801e-19
1.68471e-20
4.68595e-05
-1.84527e-19
1.32633e-20
4.75813e-05
-1.98705e-19
9.42269e-21
4.8312e-05
-2.15695e-19
-1.49862e-22
4.90516e-05
-2.33816e-19
-7.00049e-21
4.98002e-05
-2.45231e-19
-1.50611e-20
5.05581e-05
-2.56693e-19
-2.45769e-20
5.13254e-05
-2.61514e-19
-3.41246e-20
5.21022e-05
-2.73221e-19
-4.26385e-20
5.28887e-05
-2.79872e-19
-5.8033e-20
5.3685e-05
-2.84177e-19
-7.58304e-20
5.44914e-05
-2.9584e-19
-8.40967e-20
5.5308e-05
-3.12479e-19
-9.23052e-20
5.6135e-05
-3.30652e-19
-1.02587e-19
5.69725e-05
-3.49324e-19
-1.12977e-19
5.78207e-05
-3.62039e-19
-1.27981e-19
5.86799e-05
-3.84503e-19
-1.36534e-19
5.95502e-05
-4.003e-19
-1.54494e-19
6.04317e-05
-4.15922e-19
-1.555e-19
6.13248e-05
-4.34982e-19
-1.52775e-19
6.22297e-05
-4.59216e-19
-1.44534e-19
6.31464e-05
-4.877e-19
-1.33818e-19
6.40754e-05
-5.12664e-19
-1.45798e-19
6.50167e-05
-5.2016e-19
-1.82742e-19
6.59707e-05
-5.17246e-19
-2.08575e-19
6.69375e-05
-5.072e-19
-2.53394e-19
6.79175e-05
-5.12234e-19
-2.7135e-19
6.89109e-05
-4.95738e-19
-2.98455e-19
6.9918e-05
-5.15789e-19
-3.06761e-19
7.0939e-05
-5.39004e-19
-3.16611e-19
7.19742e-05
-5.30757e-19
-3.20192e-19
7.30239e-05
-5.4386e-19
-3.61129e-19
7.40884e-05
-5.53644e-19
-3.75491e-19
7.5168e-05
-5.41859e-19
-3.97581e-19
7.62628e-05
-5.51467e-19
-4.07798e-19
7.73733e-05
-5.40373e-19
-4.34395e-19
7.84997e-05
-5.38282e-19
-4.6569e-19
7.96423e-05
-5.5942e-19
-4.75021e-19
8.08014e-05
-5.69377e-19
-4.67063e-19
8.19772e-05
-5.72497e-19
-4.5607e-19
8.317e-05
-5.70919e-19
-4.93853e-19
8.43802e-05
-5.82878e-19
-5.07075e-19
8.56079e-05
-6.02691e-19
-5.05693e-19
8.68535e-05
-6.2855e-19
-4.87942e-19
8.81172e-05
-6.20696e-19
-5.07348e-19
8.93994e-05
-6.20561e-19
-5.13386e-19
9.07002e-05
-6.28848e-19
-5.29869e-19
9.20201e-05
-6.13924e-19
-5.41949e-19
9.33593e-05
-6.30462e-19
-5.43987e-19
9.4718e-05
-6.38685e-19
-5.44419e-19
9.60966e-05
-6.36612e-19
-5.58435e-19
9.74954e-05
-6.25638e-19
-5.64885e-19
9.89147e-05
-6.27966e-19
-5.83544e-19
0.000100355
-6.52259e-19
-5.76827e-19
0.000101816
-6.58196e-19
-5.7445e-19
0.000103298
-6.76516e-19
-5.88221e-19
0.000104803
-6.91084e-19
-5.94523e-19
0.000106329
-7.02772e-19
-6.05325e-19
0.000107878
-7.15234e-19
-6.11214e-19
0.000109449
-7.29293e-19
-6.23194e-19
0.000111044
-7.4011e-19
-6.18144e-19
0.000112662
-7.43757e-19
-6.09747e-19
0.000114303
-7.54774e-19
-6.247e-19
0.000115969
-7.57071e-19
-6.34455e-19
0.000117659
-7.60872e-19
-6.49303e-19
0.000119374
-7.60762e-19
-6.54239e-19
0.000121114
-7.67407e-19
-6.59116e-19
0.00012288
-7.44746e-19
-6.31051e-19
0.000124672
-7.5743e-19
-6.11805e-19
0.00012649
-7.5787e-19
-6.14571e-19
0.000128335
-7.45017e-19
-5.88488e-19
0.000130207
-7.20146e-19
-5.67499e-19
0.000132106
-7.17819e-19
-5.8869e-19
0.000134034
-7.45134e-19
-5.80843e-19
0.000135989
-7.62772e-19
-5.90226e-19
0.000137974
-7.5211e-19
-6.0925e-19
0.000139988
-7.53947e-19
-5.80041e-19
0.000142032
-7.43877e-19
-5.75257e-19
0.000144105
-7.49847e-19
-5.5847e-19
0.000146209
-7.55479e-19
-5.85944e-19
0.000148345
-7.45925e-19
-5.9676e-19
0.000150512
-7.24843e-19
-6.4068e-19
0.00015271
-7.48433e-19
-6.41293e-19
0.000154942
-7.73952e-19
-6.61373e-19
0.000157206
-7.72165e-19
-6.55808e-19
0.000159503
-7.46086e-19
-6.59505e-19
0.000161835
-7.73378e-19
-6.32102e-19
0.000164201
-7.73406e-19
-6.30185e-19
0.000166602
-7.95082e-19
-6.37815e-19
0.000169038
-8.06101e-19
-6.55952e-19
0.000171511
-8.09564e-19
-6.45224e-19
0.00017402
-7.80062e-19
-6.23525e-19
0.000176566
-7.71016e-19
-6.47348e-19
0.00017915
-7.73159e-19
-6.57065e-19
0.000181772
-7.75406e-19
-6.39099e-19
0.000184433
-7.71346e-19
-6.3234e-19
0.000187134
-7.90755e-19
-5.83694e-19
0.000189874
-8.01788e-19
-6.04534e-19
0.000192655
-7.97813e-19
-6.40495e-19
0.000195478
-8.38046e-19
-5.99648e-19
0.000198342
-8.50168e-19
-6.1717e-19
0.000201249
-8.85531e-19
-5.7676e-19
0.000204198
-8.35921e-19
-6.3436e-19
0.000207192
-8.39398e-19
-6.50152e-19
0.00021023
-8.60237e-19
-6.1254e-19
0.000213314
-8.71811e-19
-6.39971e-19
0.000216443
-8.63769e-19
-6.16437e-19
0.000219618
-8.4872e-19
-6.39034e-19
0.000222841
-8.54409e-19
-6.56818e-19
0.000226112
-8.12551e-19
-7.27153e-19
0.000229431
-8.73099e-19
-7.33098e-19
0.0002328
-8.70308e-19
-8.17032e-19
0.000236219
-8.5077e-19
-8.35058e-19
0.000239689
-8.54857e-19
-8.43465e-19
0.00024321
-8.65359e-19
-8.20074e-19
0.000246784
-8.83125e-19
-8.24453e-19
0.000250412
-8.72377e-19
-8.39683e-19
0.000254093
-8.77246e-19
-9.11267e-19
0.000257829
-9.06195e-19
-9.1399e-19
0.000261621