/*--------------------------------*- C++ -*----------------------------------*\
| =========                 |                                                 |
| \\      /  F ield         | OpenFOAM: The Open Source CFD Toolbox           |
|  \\    /   O peration     | Version:  2012                                  |
|   \\  /    A nd           | Website:  www.openfoam.com                      |
|    \\/     M anipulation  |                                                 |
\*---------------------------------------------------------------------------*/
FoamFile
{
    version     2.0;
    format      ascii;
    class       surfaceScalarField;
    location    "9000";
    object      phi;
}
// * * * * * * * * * * * * * * * * * * * * * * * * * * * * * * * * * * * * * //

dimensions      [0 3 -1 0 0 0 0];
oriented        oriented;


internalField   nonuniform List<scalar> 
5116
(
5.69311e-09
-7.27279e-18
2.0771e-22
3.45159e-22
2.68554e-23
1.74097e-08
-7.27539e-18
9.03203e-22
1.95664e-21
7.76418e-23
2.96356e-08
-7.27806e-18
9.3225e-22
3.61976e-21
8.10819e-23
4.23883e-08
-7.2808e-18
9.52199e-22
5.32046e-21
8.46777e-23
5.56862e-08
-7.28361e-18
9.75591e-22
7.04932e-21
8.84381e-23
6.95479e-08
-7.28647e-18
1.00165e-21
8.81938e-21
9.2372e-23
8.39928e-08
-7.28944e-18
1.02896e-21
1.06488e-20
9.64878e-23
9.90408e-08
-7.29243e-18
1.05704e-21
1.24832e-20
1.00794e-22
1.14713e-07
-7.29553e-18
1.08586e-21
1.43948e-20
1.05299e-22
1.31029e-07
-7.29872e-18
1.11543e-21
1.63457e-20
1.10013e-22
1.48013e-07
-7.30201e-18
1.14577e-21
1.83659e-20
1.14944e-22
1.65686e-07
-7.3054e-18
1.17687e-21
2.04526e-20
1.20105e-22
1.84073e-07
-7.30889e-18
1.20876e-21
2.25407e-20
1.25504e-22
2.03196e-07
-7.31242e-18
1.24144e-21
2.47166e-20
1.31156e-22
2.23082e-07
-7.31602e-18
1.27494e-21
2.68952e-20
1.3707e-22
2.43755e-07
-7.31975e-18
1.30927e-21
2.92469e-20
1.43261e-22
2.65243e-07
-7.32355e-18
1.34444e-21
3.1601e-20
1.49742e-22
2.87573e-07
-7.32747e-18
1.38049e-21
3.39622e-20
1.56525e-22
3.10772e-07
-7.33159e-18
1.41741e-21
3.64249e-20
1.63627e-22
3.34871e-07
-7.33566e-18
1.45524e-21
3.88927e-20
1.7106e-22
3.59898e-07
-7.33982e-18
1.49399e-21
4.14196e-20
1.78843e-22
3.85886e-07
-7.34415e-18
1.53366e-21
4.39904e-20
1.8699e-22
4.12867e-07
-7.34867e-18
1.57429e-21
4.66727e-20
1.9552e-22
4.40873e-07
-7.35321e-18
1.61589e-21
4.93933e-20
2.04453e-22
4.69938e-07
-7.35773e-18
1.65847e-21
5.20805e-20
2.13809e-22
5.00098e-07
-7.36238e-18
1.70205e-21
5.47915e-20
2.23607e-22
5.31389e-07
-7.36727e-18
1.74664e-21
5.76222e-20
2.33871e-22
5.63849e-07
-7.3723e-18
1.79226e-21
6.066e-20
2.44623e-22
5.97517e-07
-7.37742e-18
1.83892e-21
6.36834e-20
2.55885e-22
6.32432e-07
-7.38264e-18
1.88666e-21
6.67202e-20
2.67682e-22
6.68635e-07
-7.38796e-18
1.93546e-21
6.98643e-20
2.80039e-22
7.0617e-07
-7.39345e-18
1.98537e-21
7.31067e-20
2.92977e-22
7.45079e-07
-7.39924e-18
2.03638e-21
7.64842e-20
3.06528e-22
7.85409e-07
-7.40498e-18
2.08851e-21
7.99436e-20
3.2072e-22
8.27206e-07
-7.41068e-18
2.14176e-21
8.30864e-20
3.35589e-22
8.70518e-07
-7.4168e-18
2.19616e-21
8.6835e-20
3.5117e-22
9.15396e-07
-7.42298e-18
2.2517e-21
9.03234e-20
3.6749e-22
9.6189e-07
-7.42923e-18
2.30841e-21
9.37865e-20
3.84586e-22
1.01005e-06
-7.43589e-18
2.36628e-21
9.77154e-20
4.02507e-22
1.05994e-06
-7.44257e-18
2.42534e-21
1.01568e-19
4.21275e-22
1.11161e-06
-7.44923e-18
2.4856e-21
1.05206e-19
4.40928e-22
1.16511e-06
-7.45632e-18
2.54705e-21
1.09436e-19
4.61516e-22
1.22052e-06
-7.46371e-18
2.6097e-21
1.13458e-19
4.83063e-22
1.27788e-06
-7.47084e-18
2.67356e-21
1.17397e-19
5.05627e-22
1.33727e-06
-7.47834e-18
2.73862e-21
1.2167e-19
5.29255e-22
1.39875e-06
-7.48591e-18
2.80488e-21
1.25847e-19
5.53988e-22
1.46238e-06
-7.49344e-18
2.87235e-21
1.30015e-19
5.7989e-22
1.52824e-06
-7.50134e-18
2.941e-21
1.34415e-19
6.07013e-22
1.5964e-06
-7.50951e-18
3.01083e-21
1.38771e-19
6.35409e-22
1.66694e-06
-7.51769e-18
3.08185e-21
1.43303e-19
6.65137e-22
1.73992e-06
-7.52595e-18
3.15402e-21
1.47927e-19
6.96259e-22
1.81543e-06
-7.53462e-18
3.22733e-21
1.52641e-19
7.28825e-22
1.89355e-06
-7.54331e-18
3.30176e-21
1.57181e-19
7.62885e-22
1.97436e-06
-7.55166e-18
3.3773e-21
1.61625e-19
7.98507e-22
2.05795e-06
-7.56138e-18
3.45392e-21
1.66758e-19
8.35795e-22
2.14441e-06
-7.57083e-18
3.53161e-21
1.72002e-19
8.74777e-22
2.23383e-06
-7.58045e-18
3.61033e-21
1.76808e-19
9.15534e-22
2.32629e-06
-7.5906e-18
3.69001e-21
1.82165e-19
9.5813e-22
2.4219e-06
-7.60065e-18
3.77062e-21
1.87607e-19
1.00262e-21
2.52076e-06
-7.6104e-18
3.85208e-21
1.9268e-19
1.04911e-21
2.62296e-06
-7.62098e-18
3.93434e-21
1.98226e-19
1.09766e-21
2.72861e-06
-7.63157e-18
4.01736e-21
2.04044e-19
1.14832e-21
2.83781e-06
-7.64169e-18
4.10106e-21
2.0892e-19
1.20111e-21
2.95068e-06
-7.65226e-18
4.18534e-21
2.14451e-19
1.25619e-21
3.06732e-06
-7.66318e-18
4.27012e-21
2.19711e-19
1.31356e-21
3.18785e-06
-7.67368e-18
4.35526e-21
2.25337e-19
1.37332e-21
3.31239e-06
-7.6853e-18
4.44064e-21
2.31114e-19
1.43552e-21
3.44105e-06
-7.69616e-18
4.52616e-21
2.36043e-19
1.50021e-21
3.57395e-06
-7.70817e-18
4.61165e-21
2.41543e-19
1.56756e-21
3.71122e-06
-7.71862e-18
4.69702e-21
2.46353e-19
1.63761e-21
3.85299e-06
-7.72993e-18
4.78199e-21
2.51939e-19
1.71043e-21
3.99937e-06
-7.74164e-18
4.86641e-21
2.57088e-19
1.78601e-21
4.15051e-06
-7.75487e-18
4.95014e-21
2.63627e-19
1.86438e-21
4.30652e-06
-7.76756e-18
5.03311e-21
2.69736e-19
1.94554e-21
4.46754e-06
-7.77915e-18
5.1151e-21
2.74757e-19
2.0295e-21
4.63371e-06
-7.79128e-18
5.19567e-21
2.79374e-19
2.11642e-21
4.80516e-06
-7.80387e-18
5.27457e-21
2.85422e-19
2.20638e-21
4.98202e-06
-7.81687e-18
5.35157e-21
2.91615e-19
2.29919e-21
5.16442e-06
-7.83032e-18
5.42641e-21
2.96649e-19
2.3949e-21
5.35251e-06
-7.84344e-18
5.49876e-21
3.01616e-19
2.49365e-21
5.54642e-06
-7.85596e-18
5.56823e-21
3.07919e-19
2.5953e-21
5.74628e-06
-7.86899e-18
5.6345e-21
3.10601e-19
2.69963e-21
5.95222e-06
-7.88214e-18
5.69726e-21
3.1603e-19
2.8068e-21
6.16438e-06
-7.89418e-18
5.75612e-21
3.19085e-19
2.91652e-21
6.38288e-06
-7.90819e-18
5.81061e-21
3.24178e-19
3.02898e-21
6.60786e-06
-7.92046e-18
5.86057e-21
3.27114e-19
3.14388e-21
6.83944e-06
-7.93219e-18
5.90524e-21
3.30098e-19
3.26144e-21
7.07774e-06
-7.94596e-18
5.94416e-21
3.33368e-19
3.38153e-21
7.32288e-06
-7.95772e-18
5.9772e-21
3.35745e-19
3.50413e-21
7.57497e-06
-7.97113e-18
6.0037e-21
3.39002e-19
3.62896e-21
7.83414e-06
-7.98566e-18
6.02337e-21
3.4288e-19
3.75578e-21
8.10048e-06
-7.99705e-18
6.03639e-21
3.45107e-19
3.88377e-21
8.37411e-06
-8.00818e-18
6.04204e-21
3.48223e-19
4.01287e-21
8.65512e-06
-8.02194e-18
6.03984e-21
3.50395e-19
4.14306e-21
8.94361e-06
-8.0321e-18
6.02985e-21
3.50385e-19
4.27366e-21
9.23968e-06
-8.04723e-18
6.01139e-21
3.54014e-19
4.40464e-21
9.5434e-06
-8.05782e-18
5.98512e-21
3.54287e-19
4.53549e-21
9.85488e-06
-8.06908e-18
5.95033e-21
3.53203e-19
4.66644e-21
1.01742e-05
-8.08015e-18
5.90604e-21
3.54438e-19
4.79761e-21
1.05014e-05
-8.0897e-18
5.85231e-21
3.55552e-19
4.92809e-21
1.08366e-05
-8.10053e-18
5.78864e-21
3.54346e-19
5.05728e-21
1.11798e-05
-8.10363e-18
5.71519e-21
3.51719e-19
5.18497e-21
1.15311e-05
-8.11249e-18
5.63006e-21
3.49308e-19
5.31114e-21
1.18907e-05
-8.12101e-18
5.53465e-21
3.44711e-19
5.43535e-21
1.22585e-05
-8.12901e-18
5.42957e-21
3.4279e-19
5.55738e-21
1.26346e-05
-8.13711e-18
5.31368e-21
3.40105e-19
5.67667e-21
1.30191e-05
-8.14557e-18
5.18782e-21
3.38568e-19
5.79316e-21
1.3412e-05
-8.1503e-18
5.05238e-21
3.32886e-19
5.90547e-21
1.38135e-05
-8.15445e-18
4.90629e-21
3.25955e-19
6.01449e-21
1.42235e-05
-8.15993e-18
4.74966e-21
3.2175e-19
6.11984e-21
1.46422e-05
-8.16371e-18
4.5832e-21
3.16011e-19
6.2207e-21
1.50696e-05
-8.16718e-18
4.40711e-21
3.10519e-19
6.31721e-21
1.55058e-05
-8.17191e-18
4.22172e-21
3.03871e-19
6.40808e-21
1.59508e-05
-8.18189e-18
4.02676e-21
3.03523e-19
6.49279e-21
1.64048e-05
-8.18418e-18
3.82412e-21
2.95855e-19
6.56954e-21
1.68679e-05
-8.18795e-18
3.613e-21
2.89886e-19
6.63956e-21
1.734e-05
-8.19168e-18
3.39506e-21
2.8482e-19
6.70275e-21
1.78213e-05
-8.18753e-18
3.16942e-21
2.77041e-19
6.75849e-21
1.83119e-05
-8.18213e-18
2.93471e-21
2.65464e-19
6.80726e-21
1.88119e-05
-8.17773e-18
2.69187e-21
2.51363e-19
6.8503e-21
1.93214e-05
-8.16935e-18
2.44065e-21
2.33686e-19
6.88774e-21
1.98405e-05
-8.16384e-18
2.17982e-21
2.18989e-19
6.92031e-21
2.03693e-05
-8.15413e-18
1.91052e-21
2.02013e-19
6.94748e-21
2.09079e-05
-8.1478e-18
1.63109e-21
1.89455e-19
6.96936e-21
2.14565e-05
-8.14572e-18
1.34429e-21
1.75029e-19
6.98363e-21
2.20151e-05
-8.14175e-18
1.05199e-21
1.59644e-19
6.9913e-21
2.2584e-05
-8.14155e-18
7.55188e-22
1.47771e-19
6.99295e-21
2.31632e-05
-8.13057e-18
4.55635e-22
1.34005e-19
6.98489e-21
2.37529e-05
-8.1181e-18
1.50802e-22
1.1493e-19
6.96888e-21
2.43533e-05
-8.10836e-18
-1.61681e-22
1.05166e-19
6.94779e-21
2.49644e-05
-8.09481e-18
-4.76736e-22
8.3959e-20
6.91301e-21
2.55865e-05
-8.08306e-18
-7.97558e-22
6.24841e-20
6.87185e-21
2.62197e-05
-8.06538e-18
-1.12235e-21
4.08279e-20
6.82442e-21
2.68642e-05
-8.04683e-18
-1.45201e-21
1.65857e-20
6.76806e-21
2.75202e-05
-8.02478e-18
-1.78731e-21
-1.44055e-21
6.70173e-21
2.81878e-05
-8.00479e-18
-2.12993e-21
-2.39715e-20
6.62663e-21
2.88672e-05
-7.98425e-18
-2.47832e-21
-5.14401e-20
6.5407e-21
2.95586e-05
-7.96444e-18
-2.83134e-21
-8.44936e-20
6.44768e-21
3.02623e-05
-7.95115e-18
-3.18653e-21
-1.00939e-19
6.34855e-21
3.09783e-05
-7.93693e-18
-3.54115e-21
-1.23284e-19
6.23408e-21
3.1707e-05
-7.91233e-18
-3.89428e-21
-1.57325e-19
6.10254e-21
3.24484e-05
-7.89154e-18
-4.24538e-21
-1.8227e-19
5.957e-21
3.32029e-05
-7.86976e-18
-4.59935e-21
-2.06785e-19
5.7903e-21
3.39706e-05
-7.8427e-18
-4.95638e-21
-2.37149e-19
5.6061e-21
3.47518e-05
-7.8166e-18
-5.31557e-21
-2.65424e-19
5.41102e-21
3.55467e-05
-7.79006e-18
-5.67073e-21
-2.9228e-19
5.20015e-21
3.63556e-05
-7.77123e-18
-6.02416e-21
-3.11978e-19
4.96919e-21
3.71786e-05
-7.73706e-18
-6.37332e-21
-3.37935e-19
4.72241e-21
3.8016e-05
-7.70776e-18
-6.72877e-21
-3.69062e-19
4.46582e-21
3.8868e-05
-7.67606e-18
-7.08682e-21
-3.9408e-19
4.20945e-21
3.9735e-05
-7.64199e-18
-7.45067e-21
-4.25435e-19
3.94852e-21
4.06172e-05
-7.59966e-18
-7.82348e-21
-4.69618e-19
3.69145e-21
4.15147e-05
-7.56195e-18
-8.20921e-21
-4.99994e-19
3.44076e-21
4.2428e-05
-7.51546e-18
-8.60432e-21
-5.33648e-19
3.18518e-21
4.33572e-05
-7.47765e-18
-9.01068e-21
-5.65087e-19
2.93192e-21
4.43027e-05
-7.43738e-18
-9.42189e-21
-5.97117e-19
2.67612e-21
4.52647e-05
-7.40351e-18
-9.83803e-21
-6.27671e-19
2.41232e-21
4.62436e-05
-7.36109e-18
-1.02481e-20
-6.66705e-19
2.1429e-21
4.72395e-05
-7.30826e-18
-1.06567e-20
-6.97658e-19
1.87695e-21
4.82528e-05
-7.26081e-18
-1.10745e-20
-7.34448e-19
1.59615e-21
4.92838e-05
-7.21878e-18
-1.14917e-20
-7.53139e-19
1.31396e-21
5.03329e-05
-7.1718e-18
-1.19043e-20
-7.95753e-19
1.02232e-21
5.14003e-05
-7.14504e-18
-1.23219e-20
-8.32281e-19
7.44461e-22
5.24863e-05
-7.0971e-18
-1.27285e-20
-8.65569e-19
4.62446e-22
5.35913e-05
-7.05512e-18
-1.31467e-20
-9.07008e-19
1.76204e-22
5.47155e-05
-7.01448e-18
-1.35579e-20
-9.43379e-19
-1.05708e-22
5.58595e-05
-6.96916e-18
-1.39695e-20
-9.81157e-19
-3.91537e-22
5.70233e-05
-6.92974e-18
-1.4382e-20
-1.00452e-18
-6.86292e-22
5.82075e-05
-6.89557e-18
-1.47865e-20
-1.02953e-18
-9.96299e-22
5.94124e-05
-6.8583e-18
-1.51717e-20
-1.05093e-18
-1.32792e-21
6.06383e-05
-6.81977e-18
-1.55593e-20
-1.0752e-18
-1.67605e-21
6.18856e-05
-6.7603e-18
-1.59727e-20
-1.10325e-18
-2.00183e-21
6.31546e-05
-6.70631e-18
-1.64076e-20
-1.13285e-18
-2.3236e-21
6.44458e-05
-6.66133e-18
-1.68428e-20
-1.17625e-18
-2.65092e-21
6.57595e-05
-6.61741e-18
-1.72465e-20
-1.20319e-18
-2.96179e-21
6.7096e-05
-6.5549e-18
-1.76326e-20
-1.22662e-18
-3.27957e-21
6.84559e-05
-6.50081e-18
-1.80258e-20
-1.2747e-18
-3.61037e-21
6.98395e-05
-6.45092e-18
-1.84029e-20
-1.30615e-18
-3.9291e-21
7.12472e-05
-6.40287e-18
-1.87593e-20
-1.34999e-18
-4.22517e-21
7.26794e-05
-6.34953e-18
-1.90901e-20
-1.39404e-18
-4.48478e-21
7.41365e-05
-6.28549e-18
-1.9402e-20
-1.44681e-18
-4.73972e-21
7.5619e-05
-6.2361e-18
-1.96815e-20
-1.46454e-18
-4.97704e-21
7.71273e-05
-6.16874e-18
-1.99439e-20
-1.51717e-18
-5.22582e-21
7.86619e-05
-6.12566e-18
-2.02061e-20
-1.54645e-18
-5.40241e-21
8.02231e-05
-6.06957e-18
-2.0407e-20
-1.5753e-18
-5.58797e-21
8.18115e-05
-6.00487e-18
-2.05632e-20
-1.6075e-18
-5.78832e-21
8.34274e-05
-5.94213e-18
-2.07052e-20
-1.64166e-18
-5.96867e-21
8.50714e-05
-5.89743e-18
-2.08398e-20
-1.69487e-18
-6.13784e-21
8.6744e-05
-5.8348e-18
-2.0946e-20
-1.74057e-18
-6.24884e-21
8.84456e-05
-5.78442e-18
-2.10698e-20
-1.77981e-18
-6.34476e-21
9.01767e-05
-5.72422e-18
-2.11804e-20
-1.79945e-18
-6.40527e-21
9.19379e-05
-5.66762e-18
-2.13057e-20
-1.83153e-18
-6.50899e-21
9.37295e-05
-5.60194e-18
-2.14186e-20
-1.88262e-18
-6.65992e-21
9.55522e-05
-5.5394e-18
-2.15364e-20
-1.91139e-18
-6.78819e-21
9.74065e-05
-5.49251e-18
-2.16509e-20
-1.94696e-18
-6.95985e-21
9.92929e-05
-5.43926e-18
-2.17494e-20
-1.98427e-18
-7.16687e-21
0.000101212
-5.3705e-18
-2.1808e-20
-2.02777e-18
-7.36794e-21
0.000103164
-5.32488e-18
-2.18294e-20
-2.06026e-18
-7.5371e-21
0.00010515
-5.26152e-18
-2.18413e-20
-2.09896e-18
-7.75221e-21
0.00010717
-5.20737e-18
-2.19202e-20
-2.13114e-18
-7.973e-21
0.000109225
-5.12503e-18
-2.19805e-20
-2.15312e-18
-8.176e-21
0.000111316
-5.06232e-18
-2.20166e-20
-2.18589e-18
-8.40635e-21
0.000113442
-5.02582e-18
-2.20064e-20
-2.2094e-18
-8.61819e-21
0.000115606
-4.9808e-18
-2.19767e-20
-2.23063e-18
-8.79213e-21
0.000117806
-4.92309e-18
-2.19822e-20
-2.25134e-18
-8.91452e-21
0.000120045
-4.86265e-18
-2.19456e-20
-2.27154e-18
-9.08773e-21
0.000122322
-4.78825e-18
-2.18706e-20
-2.30137e-18
-9.27065e-21
0.000124638
-4.71354e-18
-2.18149e-20
-2.30281e-18
-9.42656e-21
0.000126994
-4.64308e-18
-2.17144e-20
-2.32602e-18
-9.74877e-21
0.00012939
-4.59098e-18
-2.16284e-20
-2.33559e-18
-1.01525e-20
0.000131827
-4.54525e-18
-2.14864e-20
-2.30957e-18
-1.05336e-20
0.000134307
-4.47612e-18
-2.11184e-20
-2.31056e-18
-1.11774e-20
0.000136828
-4.40773e-18
-2.07947e-20
-2.31585e-18
-1.17154e-20
0.000139393
-4.35094e-18
-2.07242e-20
-2.32365e-18
-1.21587e-20
0.000142002
-4.30111e-18
-2.08268e-20
-2.3485e-18
-1.24618e-20
0.000144656
-4.27527e-18
-2.08918e-20
-2.35548e-18
-1.26947e-20
0.000147354
-4.21784e-18
-2.08805e-20
-2.37947e-18
-1.30399e-20
0.000150099
-4.1454e-18
-2.10938e-20
-2.40261e-18
-1.33938e-20
0.000152891
-4.08531e-18
-2.14911e-20
-2.45367e-18
-1.3724e-20
0.00015573
-4.0489e-18
-2.1865e-20
-2.42973e-18
-1.39164e-20
0.000158618
-3.98849e-18
-2.21269e-20
-2.46735e-18
-1.44146e-20
0.000161555
-3.92571e-18
-2.22264e-20
-2.48676e-18
-1.49038e-20
0.000164542
-3.89031e-18
-2.24914e-20
-2.49155e-18
-1.53085e-20
0.000167579
-3.85727e-18
-2.27106e-20
-2.47939e-18
-1.5768e-20
0.000170669
-3.85247e-18
-2.28794e-20
-2.46057e-18
-1.66161e-20
0.00017381
-3.78285e-18
-2.27014e-20
-2.47294e-18
-1.77527e-20
0.000177005
-3.72174e-18
-2.26559e-20
-2.50412e-18
-1.85477e-20
0.000180254
-3.68301e-18
-2.29049e-20
-2.52556e-18
-1.92268e-20
0.000183558
-3.66696e-18
-2.31936e-20
-2.49897e-18
-1.98737e-20
0.000186918
-3.60474e-18
-2.33893e-20
-2.50863e-18
-2.06322e-20
0.000190335
-3.61336e-18
-2.38268e-20
-2.50898e-18
-2.12494e-20
0.000193809
-3.56279e-18
-2.4137e-20
-2.49575e-18
-2.15248e-20
0.000197342
-3.51975e-18
-2.43125e-20
-2.49482e-18
-2.17987e-20
0.000200935
-3.47946e-18
-2.43613e-20
-2.48723e-18
-2.21331e-20
0.000204588
-3.46402e-18
-2.43662e-20
-2.49285e-18
-2.25029e-20
0.000208303
-3.40771e-18
-2.43787e-20
-2.47269e-18
-2.23185e-20
0.000212079
-3.38063e-18
-2.43826e-20
-2.47269e-18
-2.20001e-20
0.00021592
-3.33544e-18
-2.40631e-20
-2.44754e-18
-2.1569e-20
0.000219824
-3.28617e-18
-2.3783e-20
-2.45695e-18
-2.14465e-20
0.000223795
-3.30803e-18
-2.38107e-20
-2.41671e-18
-2.08043e-20
0.000227831
-3.24926e-18
-2.3467e-20
-2.3942e-18
-2.00388e-20
0.000231935
-3.21767e-18
-2.34376e-20
-2.38174e-18
-1.93113e-20
0.000236108
-3.18414e-18
-2.3346e-20
-2.33855e-18
-1.88234e-20
0.00024035
-3.18211e-18
-2.3421e-20
-2.33416e-18
-1.87344e-20
0.000244663
-3.17104e-18
-2.34741e-20
-2.34835e-18
-1.88165e-20
0.000249047
-3.11122e-18
-2.34237e-20
-2.36267e-18
-1.86849e-20
0.000253504
-3.0711e-18
-2.29295e-20
-2.37966e-18
-1.89798e-20
0.000258036
-2.97055e-18
-2.27788e-20
-2.33981e-18
-1.9536e-20
0.000262642
-2.91291e-18
-2.27519e-20
-2.32908e-18
-1.97009e-20
0.000267325
-2.82432e-18
-2.25543e-20
-2.32034e-18
-1.93858e-20
0.000272085
-2.79479e-18
-2.21693e-20
-2.3257e-18
-1.85989e-20
0.000276924
-2.78655e-18
-2.15174e-20
-2.33493e-18
-1.77177e-20
0.000281843
-2.73989e-18
-2.04999e-20
-2.32417e-18
-1.69065e-20
0.000286842
-2.71073e-18
-1.96638e-20
-2.35543e-18
-1.58885e-20
0.000291924
-2.71145e-18
-1.93609e-20
-2.33053e-18
-1.44073e-20
0.000297089
-2.64598e-18
-1.78722e-20
-2.3393e-18
-1.3501e-20
0.000302339
-2.5768e-18
-1.66584e-20
-2.30916e-18
-1.28481e-20
0.000307674
-2.49668e-18
-1.59273e-20
-2.28953e-18
-1.21681e-20
0.000313097
-2.43321e-18
-1.48433e-20
-2.21987e-18
-1.11297e-20
0.000318608
-2.42053e-18
-1.39873e-20
-2.23428e-18
-1.07192e-20
0.000324209
-2.37652e-18
-1.4007e-20
-2.17257e-18
-9.83765e-21
0.000329901
-2.34423e-18
-1.38198e-20
-2.15665e-18
-1.05201e-20
0.000335686
-2.27561e-18
-1.30216e-20
-2.1315e-18
-1.17344e-20
0.000341563
-2.21263e-18
-1.23668e-20
-2.09791e-18
-1.24606e-20
0.000347536
-2.15925e-18
-1.15222e-20
-2.07882e-18
-1.2723e-20
0.000353605
-2.07409e-18
-1.10734e-20
-2.00952e-18
-1.29082e-20
0.000359772
-2.03934e-18
-1.18097e-20
-1.98953e-18
-1.35319e-20
0.000366038
-2.01561e-18
-1.20472e-20
-1.97377e-18
-1.44504e-20
0.000372404
-1.97179e-18
-1.19298e-20
-1.90175e-18
-1.41843e-20
0.000378872
-1.86375e-18
-1.18554e-20
-1.96842e-18
-1.45405e-20
0.000385443
-1.86197e-18
-1.2915e-20
-1.90128e-18
-1.26218e-20
0.000392118
-1.79298e-18
-1.31059e-20
-1.92595e-18
-1.30224e-20
0.000398899
-1.82472e-18
-1.39852e-20
-1.87164e-18
-1.23555e-20
0.000405787
-1.77738e-18
-1.33109e-20
-1.82331e-18
-1.17496e-20
0.000412784
-1.74961e-18
-1.37593e-20
-1.83484e-18
-1.04419e-20
0.000419891
-1.73372e-18
-1.41354e-20
-1.71498e-18
-8.9916e-21
0.000427109
-1.7074e-18
-1.36168e-20
-1.69883e-18
-1.15753e-20
0.000434439
-1.71375e-18
-1.32929e-20
-1.64048e-18
-1.34398e-20
0.000441884
-1.65596e-18
-1.19376e-20
-1.57256e-18
-1.47194e-20
0.000449444
-1.72576e-18
-1.15414e-20
-1.55623e-18
-1.46995e-20
0.000457121
-1.60252e-18
-9.20016e-21
-1.58122e-18
-1.38644e-20
0.000464916
-1.59593e-18
-9.99337e-21
-1.53777e-18
-1.32413e-20
0.00047283
-1.51569e-18
-1.21603e-20
-1.58105e-18
-1.49279e-20
0.000480865
-1.50103e-18
-1.40518e-20
-1.52997e-18
-1.63146e-20
0.000489022
-1.45468e-18
-1.59483e-20
-1.50056e-18
-1.79205e-20
0.000497302
-1.50882e-18
-1.54212e-20
-1.49972e-18
-1.98464e-20
0.000505706
-1.4879e-18
-1.41515e-20
-1.47883e-18
-2.09964e-20
0.000514236
-1.44355e-18
-1.43579e-20
-1.45615e-18
-1.68222e-20
0.000522892
-1.34838e-18
-8.29995e-21
-1.38536e-18
-1.14398e-20
0.000531676
-1.42528e-18
-1.03793e-21
-1.39655e-18
-7.8654e-21
0.000540588
-1.32313e-18
2.00526e-21
-1.34168e-18
-6.29664e-21
0.00054963
-1.4499e-18
3.18114e-21
-1.19141e-18
-5.71006e-21
0.000558803
-1.09687e-18
1.03896e-20
-1.24767e-18
-7.87874e-21
0.000568107
-1.18275e-18
4.84953e-21
-1.21305e-18
-6.66559e-21
0.000577543
-1.22542e-18
3.36731e-21
-1.26868e-18
-8.62331e-21
0.000587112
-1.19869e-18
4.44294e-21
-1.24888e-18
-3.31363e-21
0.000596813
-9.69294e-19
8.05596e-21
-1.16052e-18
-4.15018e-24
0.000606649
-9.99457e-19
1.25479e-21
-1.16862e-18
4.26606e-21
0.000616618
-9.87061e-19
5.2754e-21
-1.06285e-18
7.50555e-21
0.000626721
-1.02684e-18
-4.49496e-21
-1.06783e-18
2.14398e-21
0.000636957
-1.06319e-18
-1.2332e-20
-9.73853e-19
-3.26472e-21
0.000647327
-1.23163e-18
-1.08978e-20
-1.04209e-18
-6.83656e-21
0.00065783
-1.13334e-18
1.40503e-21
-1.0678e-18
-7.02449e-21
0.000668465
-1.08581e-18
4.10339e-21
-1.09127e-18
-6.55767e-21
0.000679232
-1.18801e-18
-6.80074e-21
-1.07892e-18
-7.9323e-21
0.000690128
-1.15845e-18
-7.51086e-21
-1.1085e-18
-1.22433e-20
0.000701153
-1.19973e-18
-7.95769e-21
-1.06883e-18
-1.62987e-20
0.000712304
-1.14357e-18
-5.79817e-21
-1.0033e-18
-2.16173e-20
0.000723579
-9.18993e-19
-8.23574e-21
-1.00051e-18
-1.45879e-20
0.000734976
-9.60555e-19
-7.64781e-21
-9.65087e-19
-9.00766e-21
0.000746491
-9.59145e-19
-7.12285e-21
-1.00993e-18
-9.30116e-21
0.000758122
-9.41138e-19
-1.15623e-20
-1.05929e-18
-3.8894e-21
0.000769863
-1.04946e-18
-6.25512e-21
-8.98005e-19
1.86287e-22
0.00078171
-8.86458e-19
-3.90695e-21
-9.70245e-19
-7.56703e-21
0.00079366
-8.92016e-19
-1.16972e-20
-9.67447e-19
-4.04916e-21
0.000805705
-8.50199e-19
-1.47725e-20
-1.01306e-18
-4.62349e-21
0.00081784
-9.48932e-19
-1.68571e-20
-8.31731e-19
6.43678e-22
0.000830059
-9.57241e-19
-1.33179e-20
-8.47194e-19
5.3692e-22
0.000842355
-8.7132e-19
-5.10327e-21
-8.3404e-19
-2.5418e-21
0.000854721
-3.99529e-21
-8.07263e-19
-3.07368e-21
-8.63012e-19
5.69311e-09
1.97403e-22
3.79468e-23
1.74097e-08
1.06347e-21
1.53837e-22
2.96356e-08
1.95729e-21
2.73395e-22
4.23883e-08
2.85898e-21
4.0758e-22
5.56862e-08
3.7886e-21
5.42752e-22
6.95479e-08
4.74027e-21
6.81501e-22
8.39928e-08
5.71008e-21
8.15862e-22
9.90408e-08
6.70513e-21
9.8118e-22
1.14713e-07
7.74008e-21
1.14628e-21
1.31029e-07
8.82315e-21
1.26942e-21
1.48013e-07
9.89665e-21
1.49526e-21
1.65686e-07
1.10054e-20
1.66082e-21
1.84073e-07
1.21549e-20
1.86075e-21
2.03196e-07
1.33363e-20
2.0168e-21
2.23082e-07
1.45143e-20
2.27086e-21
2.43755e-07
1.57376e-20
2.58123e-21
2.65243e-07
1.70403e-20
2.83396e-21
2.87573e-07
1.82578e-20
3.158e-21
3.10772e-07
1.95924e-20
3.46442e-21
3.34871e-07
2.09507e-20
3.7639e-21
3.59898e-07
2.23995e-20
3.99728e-21
3.85886e-07
2.38597e-20
4.29724e-21
4.12867e-07
2.53665e-20
4.61221e-21
4.40873e-07
2.67769e-20
4.99253e-21
4.69938e-07
2.83028e-20
5.29848e-21
5.00098e-07
2.99259e-20
5.64225e-21
5.31389e-07
3.14414e-20
6.02695e-21
5.63849e-07
3.30437e-20
6.45389e-21
5.97517e-07
3.47815e-20
6.86031e-21
6.32432e-07
3.65379e-20
7.25519e-21
6.68635e-07
3.84677e-20
7.50302e-21
7.0617e-07
4.03706e-20
7.97431e-21
7.45079e-07
4.21933e-20
8.42708e-21
7.85409e-07
4.40034e-20
9.07351e-21
8.27206e-07
4.59499e-20
9.70595e-21
8.70518e-07
4.79327e-20
1.04863e-20
9.15396e-07
5.01736e-20
1.08784e-20
9.6189e-07
5.21446e-20
1.14362e-20
1.01005e-06
5.43358e-20
1.20775e-20
1.05994e-06
5.66498e-20
1.28123e-20
1.11161e-06
5.88179e-20
1.35523e-20
1.16511e-06
6.08339e-20
1.40816e-20
1.22052e-06
6.28674e-20
1.50618e-20
1.27788e-06
6.49034e-20
1.5925e-20
1.33727e-06
6.74155e-20
1.66683e-20
1.39875e-06
6.97588e-20
1.77806e-20
1.46238e-06
7.22598e-20
1.87197e-20
1.52824e-06
7.49386e-20
1.97049e-20
1.5964e-06
7.77313e-20
2.07912e-20
1.66694e-06
8.02787e-20
2.20305e-20
1.73992e-06
8.2978e-20
2.31787e-20
1.81543e-06
8.5382e-20
2.41673e-20
1.89355e-06
8.82227e-20
2.51487e-20
1.97436e-06
9.15356e-20
2.74855e-20
2.05795e-06
9.40234e-20
2.94134e-20
2.14441e-06
9.71107e-20
3.11795e-20
2.23383e-06
9.9882e-20
3.2506e-20
2.32629e-06
1.03149e-19
3.39035e-20
2.4219e-06
1.06436e-19
3.5657e-20
2.52076e-06
1.10156e-19
3.73373e-20
2.62296e-06
1.13949e-19
3.8987e-20
2.72861e-06
1.17217e-19
4.06308e-20
2.83781e-06
1.20869e-19
4.25753e-20
2.95068e-06
1.24744e-19
4.39681e-20
3.06732e-06
1.27717e-19
4.54775e-20
3.18785e-06
1.31504e-19
4.73757e-20
3.31239e-06
1.35173e-19
4.92797e-20
3.44105e-06
1.3921e-19
5.19076e-20
3.57395e-06
1.43361e-19
5.40842e-20
3.71122e-06
1.47611e-19
5.62467e-20
3.85299e-06
1.51415e-19
5.8797e-20
3.99937e-06
1.55939e-19
6.04952e-20
4.15051e-06
1.60857e-19
6.29321e-20
4.30652e-06
1.66334e-19
6.47587e-20
4.46754e-06
1.70454e-19
6.74516e-20
4.63371e-06
1.7427e-19
7.09471e-20
4.80516e-06
1.78511e-19
7.38203e-20
4.98202e-06
1.83086e-19
7.73948e-20
5.16442e-06
1.87655e-19
8.18786e-20
5.35251e-06
1.91938e-19
8.54897e-20
5.54642e-06
1.966e-19
8.93503e-20
5.74628e-06
2.01493e-19
9.28114e-20
5.95222e-06
2.06341e-19
9.55898e-20
6.16438e-06
2.1124e-19
9.89609e-20
6.38288e-06
2.16292e-19
1.02614e-19
6.60786e-06
2.19566e-19
1.08226e-19
6.83944e-06
2.22892e-19
1.13787e-19
7.07774e-06
2.26334e-19
1.2124e-19
7.32288e-06
2.29548e-19
1.26882e-19
7.57497e-06
2.31934e-19
1.34734e-19
7.83414e-06
2.37211e-19
1.39679e-19
8.10048e-06
2.42409e-19
1.44408e-19
8.37411e-06
2.46977e-19
1.51791e-19
8.65512e-06
2.5228e-19
1.56236e-19
8.94361e-06
2.57433e-19
1.60464e-19
9.23968e-06
2.63455e-19
1.65498e-19
9.5434e-06
2.69249e-19
1.71567e-19
9.85488e-06
2.68785e-19
1.8152e-19
1.01742e-05
2.7129e-19
1.92393e-19
1.05014e-05
2.73272e-19
2.01949e-19
1.08366e-05
2.76085e-19
2.10408e-19
1.11798e-05
2.75386e-19
2.19875e-19
1.15311e-05
2.77417e-19
2.27931e-19
1.18907e-05
2.83089e-19
2.36512e-19
1.22585e-05
2.83942e-19
2.46742e-19
1.26346e-05
2.88937e-19
2.5698e-19
1.30191e-05
2.9373e-19
2.65166e-19
1.3412e-05
2.95272e-19
2.753e-19
1.38135e-05
2.96877e-19
2.83031e-19
1.42235e-05
2.98071e-19
2.92627e-19
1.46422e-05
2.99599e-19
3.03276e-19
1.50696e-05
3.0144e-19
3.12513e-19
1.55058e-05
2.97667e-19
3.23752e-19
1.59508e-05
2.94246e-19
3.35564e-19
1.64048e-05
2.91787e-19
3.4876e-19
1.68679e-05
2.91974e-19
3.667e-19
1.734e-05
2.86828e-19
3.83996e-19
1.78213e-05
2.83179e-19
3.97959e-19
1.83119e-05
2.83284e-19
4.12323e-19
1.88119e-05
2.81023e-19
4.25431e-19
1.93214e-05
2.77591e-19
4.36032e-19
1.98405e-05
2.73201e-19
4.49971e-19
2.03693e-05
2.65396e-19
4.65796e-19
2.09079e-05
2.6305e-19
4.76474e-19
2.14565e-05
2.6144e-19
4.88311e-19
2.20151e-05
2.61147e-19
5.04384e-19
2.2584e-05
2.57548e-19
5.15381e-19
2.31632e-05
2.55348e-19
5.3119e-19
2.37529e-05
2.47583e-19
5.49157e-19
2.43533e-05
2.49876e-19
5.53412e-19
2.49644e-05
2.44693e-19
5.70854e-19
2.55865e-05
2.40095e-19
5.89452e-19
2.62197e-05
2.36972e-19
5.99644e-19
2.68642e-05
2.32108e-19
6.0292e-19
2.75202e-05
2.25846e-19
6.18781e-19
2.81878e-05
2.20528e-19
6.28721e-19
2.88672e-05
2.16167e-19
6.41512e-19
2.95586e-05
2.14657e-19
6.50287e-19
3.02623e-05
2.1299e-19
6.59507e-19
3.09783e-05
2.13744e-19
6.61868e-19
3.1707e-05
2.24e-19
6.59298e-19
3.24484e-05
2.18235e-19
6.56782e-19
3.32029e-05
2.08533e-19
6.6121e-19
3.39706e-05
2.0033e-19
6.6569e-19
3.47518e-05
2.01414e-19
6.65457e-19
3.55467e-05
2.00862e-19
6.57733e-19
3.63556e-05
2.01852e-19
6.58068e-19
3.71786e-05
2.05697e-19
6.54016e-19
3.8016e-05
2.10375e-19
6.5475e-19
3.8868e-05
2.08692e-19
6.57468e-19
3.9735e-05
2.05475e-19
6.65162e-19
4.06172e-05
2.0361e-19
6.63082e-19
4.15147e-05
1.98668e-19
6.59947e-19
4.2428e-05
1.98444e-19
6.59206e-19
4.33572e-05
1.95902e-19
6.56546e-19
4.43027e-05
1.90989e-19
6.47699e-19
4.52647e-05
1.92419e-19
6.37448e-19
4.62436e-05
1.95442e-19
6.32514e-19
4.72395e-05
1.91214e-19
6.22166e-19
4.82528e-05
1.88343e-19
6.1638e-19
4.92838e-05
1.82964e-19
6.06003e-19
5.03329e-05
1.72727e-19
6.05932e-19
5.14003e-05
1.65569e-19
6.01313e-19
5.24863e-05
1.62872e-19
5.97736e-19
5.35913e-05
1.73226e-19
5.90932e-19
5.47155e-05
1.70212e-19
5.78305e-19
5.58595e-05
1.68434e-19
5.63361e-19
5.70233e-05
1.63269e-19
5.59182e-19
5.82075e-05
1.60757e-19
5.49842e-19
5.94124e-05
1.40674e-19
5.48222e-19
6.06383e-05
1.01252e-19
5.66417e-19
6.18856e-05
9.07185e-20
5.60925e-19
6.31546e-05
9.08946e-20
5.48129e-19
6.44458e-05
1.01289e-19
5.39654e-19
6.57595e-05
9.77034e-20
5.23488e-19
6.7096e-05
8.84079e-20
5.11884e-19
6.84559e-05
8.02054e-20
5.04725e-19
6.98395e-05
7.13942e-20
5.0325e-19
7.12472e-05
6.72867e-20
4.93623e-19
7.26794e-05
6.25177e-20
4.77245e-19
7.41365e-05
7.559e-20
4.58518e-19
7.5619e-05
6.32589e-20
4.47529e-19
7.71273e-05
4.94612e-20
4.48846e-19
7.86619e-05
3.6138e-20
4.29703e-19
8.02231e-05
1.68297e-20
4.14706e-19
8.18115e-05
-9.43689e-21
4.09322e-19
8.34274e-05
-3.18668e-20
3.95961e-19
8.50714e-05
-5.49341e-20
3.95737e-19
8.6744e-05
-7.7824e-20
3.8283e-19
8.84456e-05
-8.97516e-20
3.86989e-19
9.01767e-05
-9.9489e-20
3.77821e-19
9.19379e-05
-1.01443e-19
3.54755e-19
9.37295e-05
-1.08824e-19
3.36199e-19
9.55522e-05
-1.14018e-19
3.13476e-19
9.74065e-05
-1.28028e-19
3.00298e-19
9.92929e-05
-1.29832e-19
3.01389e-19
0.000101212
-1.21121e-19
3.04126e-19
0.000103164
-1.36777e-19
2.87968e-19
0.00010515
-1.50927e-19
2.70091e-19
0.00010717
-1.45257e-19
2.63308e-19
0.000109225
-1.19397e-19
2.49684e-19
0.000111316
-1.03834e-19
2.3097e-19
0.000113442
-1.20526e-19
2.18475e-19
0.000115606
-1.52248e-19
2.11311e-19
0.000117806
-1.49691e-19
1.86783e-19
0.000120045
-1.50884e-19
1.82436e-19
0.000122322
-1.6274e-19
1.69139e-19
0.000124638
-1.52672e-19
1.32932e-19
0.000126994
-1.63394e-19
9.52224e-20
0.00012939
-1.78906e-19
8.21578e-20
0.000131827
-1.61214e-19
3.76073e-20
0.000134307
-1.94267e-19
5.33228e-20
0.000136828
-2.73399e-19
3.4173e-20
0.000139393
-3.23578e-19
3.8048e-20
0.000142002
-3.15864e-19
1.36935e-20
0.000144656
-3.25934e-19
-3.37194e-20
0.000147354
-3.72413e-19
-5.93782e-20
0.000150099
-4.00868e-19
-8.34338e-20
0.000152891
-4.07925e-19
-1.22595e-19
0.00015573
-4.17103e-19
-1.5444e-19
0.000158618
-3.87323e-19
-1.62394e-19
0.000161555
-4.21751e-19
-1.70909e-19
0.000164542
-4.46807e-19
-1.88241e-19
0.000167579
-4.65811e-19
-2.12707e-19
0.000170669
-4.51289e-19
-2.38336e-19
0.00017381
-4.60738e-19
-2.23705e-19
0.000177005
-4.97778e-19
-2.52329e-19
0.000180254
-5.14654e-19
-2.7318e-19
0.000183558
-5.3748e-19
-2.96588e-19
0.000186918
-5.59453e-19
-3.35028e-19
0.000190335
-5.87831e-19
-3.32117e-19
0.000193809
-5.63892e-19
-3.5502e-19
0.000197342
-5.5185e-19
-3.87044e-19
0.000200935
-5.55684e-19
-4.1873e-19
0.000204588
-5.95875e-19
-4.08555e-19
0.000208303
-5.96166e-19
-4.30941e-19
0.000212079
-5.84173e-19
-4.46102e-19
0.00021592
-6.00381e-19
-4.839e-19
0.000219824
-6.48419e-19
-4.88252e-19
0.000223795
-6.83502e-19
-4.89504e-19
0.000227831
-7.23254e-19
-4.86162e-19
0.000231935
-7.4841e-19
-5.30367e-19
0.000236108
-7.73941e-19
-5.51837e-19
0.00024035
-7.91017e-19
-5.7863e-19
0.000244663
-7.95555e-19
-5.95894e-19
0.000249047
-7.38541e-19
-6.16323e-19
0.000253504
-7.99825e-19
-6.40264e-19
0.000258036
-7.80554e-19
-6.38687e-19
0.000262642
-7.99757e-19
-6.65253e-19
0.000267325
-8.08903e-19
-6.82575e-19
0.000272085
-8.47385e-19
-7.39387e-19
0.000276924
-8.86138e-19
-7.84548e-19
0.000281843
-9.26837e-19
-7.96781e-19
0.000286842
-9.83557e-19
-8.33088e-19
0.000291924
-9.21202e-19
-8.44006e-19
0.000297089
-8.98384e-19
-8.52636e-19