/*--------------------------------*- C++ -*----------------------------------*\
| =========                 |                                                 |
| \\      /  F ield         | OpenFOAM: The Open Source CFD Toolbox           |
|  \\    /   O peration     | Version:  2012                                  |
|   \\  /    A nd           | Website:  www.openfoam.com                      |
|    \\/     M anipulation  |                                                 |
\*---------------------------------------------------------------------------*/
FoamFile
{
    version     2.0;
    format      ascii;
    class       volScalarField;
    location    "12000";
    object      p;
}
// * * * * * * * * * * * * * * * * * * * * * * * * * * * * * * * * * * * * * //

dimensions      [0 2 -2 0 0 0 0];


internalField   nonuniform List<scalar> 
640
(
5.79453e-16
5.43882e-15
1.28098e-15
5.43739e-15
1.34112e-15
5.43492e-15
1.22601e-15
5.43138e-15
1.15512e-15
5.42662e-15
1.11131e-15
5.42034e-15
1.075e-15
5.41227e-15
1.04253e-15
5.4023e-15
1.01414e-15
5.39024e-15
9.90022e-16
5.37592e-15
9.69908e-16
5.359e-15
9.53516e-16
5.33891e-15
9.40457e-16
5.31552e-15
9.30369e-16
5.28913e-15
9.23108e-16
5.25913e-15
9.18347e-16
5.22492e-15
9.15873e-16
5.18639e-15
9.15367e-16
5.14407e-15
9.17263e-16
5.097e-15
9.20712e-16
5.04514e-15
9.26791e-16
4.98898e-15
9.34816e-16
4.92878e-15
9.44694e-16
4.86098e-15
9.56658e-16
4.78696e-15
9.7224e-16
4.71026e-15
9.91701e-16
4.6289e-15
1.01329e-15
4.54362e-15
1.03695e-15
4.4522e-15
1.06575e-15
4.35427e-15
1.09757e-15
4.24942e-15
1.13461e-15
4.14168e-15
1.17575e-15
4.02832e-15
1.2149e-15
3.90988e-15
1.25799e-15
3.79184e-15
1.29856e-15
3.67748e-15
1.34288e-15
3.55691e-15
1.39255e-15
3.42998e-15
1.4468e-15
3.2988e-15
1.50519e-15
3.16503e-15
1.559e-15
3.04155e-15
1.59911e-15
2.92378e-15
1.64009e-15
2.80661e-15
1.67618e-15
2.70276e-15
1.70733e-15
2.59669e-15
1.74714e-15
2.50431e-15
1.80417e-15
2.40807e-15
1.84118e-15
2.32871e-15
1.86021e-15
2.26812e-15
1.88349e-15
2.20801e-15
1.8915e-15
2.15774e-15
1.90033e-15
2.10581e-15
1.92677e-15
2.04695e-15
1.92075e-15
1.99546e-15
1.88398e-15
1.94565e-15
1.86511e-15
1.91286e-15
1.81627e-15
1.88187e-15
1.76799e-15
1.80473e-15
1.70737e-15
1.72697e-15
1.6171e-15
1.64388e-15
1.54799e-15
1.5748e-15
1.4454e-15
1.50238e-15
1.37685e-15
1.41385e-15
1.28776e-15
1.32256e-15
1.21497e-15
1.22832e-15
1.16591e-15
1.17203e-15
1.11027e-15
1.11988e-15
1.04509e-15
1.07148e-15
1.0062e-15
1.03661e-15
9.96694e-16
1.02365e-15
8.61287e-16
9.36071e-16
7.91272e-16
7.88291e-16
7.03346e-16
7.24232e-16
5.81548e-16
6.04831e-16
5.53068e-16
5.16382e-16
4.47367e-16
4.8053e-16
5.19061e-16
5.75427e-16
3.43306e-16
5.21106e-16
4.45642e-16
5.34278e-16
4.19593e-16
4.53448e-16
5.7246e-16
5.57501e-16
3.21279e-15
3.70828e-15
3.21257e-15
3.7082e-15
3.2122e-15
3.70807e-15
3.21167e-15
3.7079e-15
3.21104e-15
3.70763e-15
3.21022e-15
3.70724e-15
3.20926e-15
3.70677e-15
3.20815e-15
3.70627e-15
3.20695e-15
3.70566e-15
3.2055e-15
3.70491e-15
3.20395e-15
3.70381e-15
3.20246e-15
3.70251e-15
3.20086e-15
3.7009e-15
3.19868e-15
3.69904e-15
3.19645e-15
3.69701e-15
3.19406e-15
3.69489e-15
3.1914e-15
3.69237e-15
3.1882e-15
3.68926e-15
3.18508e-15
3.6855e-15
3.18047e-15
3.68172e-15
3.17389e-15
3.67761e-15
3.16749e-15
3.67283e-15
3.16101e-15
3.66778e-15
3.15415e-15
3.66173e-15
3.14747e-15
3.65514e-15
3.1402e-15
3.64815e-15
3.1305e-15
3.63603e-15
3.12548e-15
3.62367e-15
3.11622e-15
3.61132e-15
3.10257e-15
3.60047e-15
3.09352e-15
3.58944e-15
3.07894e-15
3.57405e-15
3.06595e-15
3.55835e-15
3.05483e-15
3.5356e-15
3.04339e-15
3.50878e-15
3.02664e-15
3.48384e-15
3.01273e-15
3.45661e-15
3.0049e-15
3.42545e-15
2.98378e-15
3.3973e-15
2.94866e-15
3.36841e-15
2.93472e-15
3.34125e-15
2.89986e-15
3.31521e-15
2.88364e-15
3.27793e-15
2.86797e-15
3.23146e-15
2.84727e-15
3.18445e-15
2.82883e-15
3.13266e-15
2.79264e-15
3.0784e-15
2.75923e-15
3.02463e-15
2.72218e-15
2.95952e-15
2.6749e-15
2.89193e-15
2.66336e-15
2.81619e-15
2.65653e-15
2.74535e-15
2.5975e-15
2.66911e-15
2.51813e-15
2.57184e-15
2.41996e-15
2.4517e-15
2.31999e-15
2.35442e-15
2.21699e-15
2.2628e-15
2.12536e-15
2.16389e-15
2.02844e-15
2.0584e-15
1.89183e-15
1.94637e-15
1.78137e-15
1.8532e-15
1.67488e-15
1.74688e-15
1.5901e-15
1.63033e-15
1.49951e-15
1.49374e-15
1.37657e-15
1.35971e-15
1.30596e-15
1.30341e-15
1.2368e-15
1.24323e-15
1.16739e-15
1.18482e-15
1.13698e-15
1.13258e-15
9.45318e-16
9.5399e-16
8.30024e-16
8.3921e-16
7.19938e-16
7.52474e-16
5.80334e-16
5.91328e-16
5.46433e-16
5.5375e-16
4.97215e-16
5.492e-16
5.39777e-16
5.39015e-16
6.02434e-16
4.96787e-16
5.34612e-16
5.19025e-16
5.91071e-16
4.93084e-16
6.22242e-16
5.8979e-16
3.86708e-16
4.24472e-16
4.42066e-16
4.64273e-16
3.92551e-16
3.99345e-16
2.89754e-16
3.37052e-16
2.1626e-16
2.30142e-16
1.2136e-16
1.22033e-16
1.14591e-16
1.15346e-16
1.28131e-16
1.28896e-16
4.55082e-17
2.94242e-17
-6.39859e-17
-3.97316e-17
-6.98753e-17
-1.01035e-16
-1.43315e-16
-1.92052e-16
-1.40325e-16
-1.79037e-16
-1.67277e-16
-1.55401e-16
-2.08655e-16
-1.83773e-16
-2.18005e-16
-1.97468e-16
-2.50037e-16
-1.99865e-16
-2.3776e-16
-1.82403e-16
-2.20871e-16
-1.89136e-16
-2.17758e-16
-1.95623e-16
-2.03729e-16
-1.65869e-16
-2.00574e-16
-1.67694e-16
-1.88019e-16
-1.64261e-16
-1.65266e-16
-1.75524e-16
-1.94239e-16
-1.88444e-16
-1.91563e-16
-2.01013e-16
-1.74028e-16
-1.97894e-16
-1.71541e-16
-1.8269e-16
-1.68512e-16
-1.86446e-16
-1.63972e-16
-1.91914e-16
-1.722e-16
-1.61965e-16
-1.66624e-16
-1.39749e-16
-1.63506e-16
-1.37908e-16
-1.62093e-16
-1.41584e-16
-1.68532e-16
-1.43822e-16
-1.68901e-16
-1.37808e-16
-1.63998e-16
-1.37047e-16
-1.66804e-16
-1.35483e-16
-1.70707e-16
-1.33078e-16
-1.75768e-16
-1.42175e-16
-1.69697e-16
-1.50423e-16
-1.61463e-16
-1.43427e-16
-1.51114e-16
-1.42001e-16
-1.5812e-16
-1.37664e-16
-1.57181e-16
-1.30379e-16
-1.54123e-16
-1.25552e-16
-1.51643e-16
-1.28269e-16
-1.47095e-16
-1.30653e-16
-1.42927e-16
-1.30336e-16
-1.41395e-16
-1.32252e-16
-1.41136e-16
-1.32877e-16
-1.4095e-16
-1.29008e-16
-1.4192e-16
-1.28401e-16
-1.44988e-16
-1.30815e-16
-1.42155e-16
-1.31121e-16
-1.41383e-16
-1.3045e-16
-1.4249e-16
-1.30679e-16
-1.41902e-16
-1.30024e-16
-1.42197e-16
-1.30188e-16
-1.42898e-16
-1.31086e-16
-1.42883e-16
-1.31204e-16
-1.42902e-16
-1.30971e-16
-1.4358e-16
-1.31061e-16
-1.43947e-16
-1.30842e-16
-1.44317e-16
-1.30629e-16
-1.44952e-16
-1.30157e-16
-1.45203e-16
-1.29949e-16
-1.45345e-16
-1.29862e-16
-1.45267e-16
-1.29886e-16
-1.45322e-16
-1.29786e-16
-1.45334e-16
-1.29679e-16
-1.45422e-16
-1.29624e-16
-1.45397e-16
-1.29561e-16
-1.45382e-16
-1.29424e-16
-1.45412e-16
-1.29311e-16
-1.45415e-16
-1.29298e-16
-1.45387e-16
-1.29262e-16
-1.45385e-16
-1.29262e-16
-1.4539e-16
-1.29249e-16
-1.45397e-16
-1.29241e-16
4.88209e-16
4.87947e-16
4.8756e-16
4.68786e-16
4.33037e-16
4.12604e-16
3.19703e-16
3.30311e-16
2.18205e-16
2.63982e-16
1.81765e-16
1.67252e-16
8.16378e-17
8.55153e-17
8.36144e-17
1.17124e-16
2.21795e-17
5.88878e-17
-8.59392e-17
-3.15051e-18
-1.07099e-16
-8.36427e-17
-1.07378e-16
-1.35508e-16
-1.26686e-16
-1.33536e-16
-1.36643e-16
-1.21546e-16
-1.94473e-16
-1.88564e-16
-1.56347e-16
-2.04842e-16
-1.29126e-16
-1.98792e-16
-1.38289e-16
-1.7681e-16
-2.00429e-16
-1.2591e-16
-1.98992e-16
-1.25023e-16
-1.9589e-16
-1.53053e-16
-1.83333e-16
-1.48638e-16
-1.58206e-16
-1.5323e-16
-1.68248e-16
-1.73834e-16
-1.59566e-16
-1.7699e-16
-1.45645e-16
-1.99166e-16
-1.55007e-16
-1.7768e-16
-1.60123e-16
-1.583e-16
-1.64682e-16
-1.85829e-16
-1.66853e-16
-1.8353e-16
-1.6001e-16
-1.51891e-16
-1.53484e-16
-1.42294e-16
-1.61982e-16
-1.39502e-16
-1.71634e-16
-1.49651e-16
-1.82547e-16
-1.5163e-16
-1.67893e-16
-1.45441e-16
-1.6117e-16
-1.25288e-16
-1.62434e-16
-1.23447e-16
-1.64944e-16
-1.2009e-16
-1.62486e-16
-1.21431e-16
-1.54971e-16
-1.33448e-16
-1.45023e-16
-1.4149e-16
-1.46755e-16
-1.37698e-16
-1.45764e-16
-1.33785e-16
-1.42158e-16
-1.29733e-16
-1.38722e-16
-1.22927e-16
-1.35492e-16
-1.23858e-16
-1.34917e-16
-1.32152e-16
-1.39208e-16
-1.35288e-16
-1.41019e-16
-1.3358e-16
-1.40544e-16
-1.31871e-16
-1.39046e-16
-1.25741e-16
-1.37686e-16
-1.22924e-16
-1.36455e-16
-1.22155e-16
-1.36306e-16
-1.2034e-16
-1.35291e-16
-1.20375e-16
-1.36156e-16
-1.19433e-16
-1.36181e-16
-1.18454e-16
-1.37057e-16
-1.17449e-16
-1.36416e-16
-1.16422e-16
-1.37288e-16
-1.14667e-16
-1.39163e-16
-1.13955e-16
-1.39707e-16
-1.13533e-16
-1.39374e-16
-1.13666e-16
-1.40213e-16
-1.13734e-16
-1.40778e-16
-1.13879e-16
-1.40848e-16
-1.13845e-16
-1.41065e-16
-1.1341e-16
-1.41068e-16
-1.13183e-16
-1.4086e-16
-1.13275e-16
-1.4079e-16
-1.13398e-16
-1.40737e-16
-1.13497e-16
-1.40699e-16
-1.1364e-16
-1.40574e-16
-1.13735e-16
-1.40526e-16
-1.13711e-16
-1.40524e-16
-1.13668e-16
-1.40532e-16
-1.13687e-16
-1.40508e-16
-1.13757e-16
-1.40503e-16
-1.13763e-16
-1.40505e-16
-1.13758e-16
)
;

boundaryField
{
    walls
    {
        type            zeroGradient;
    }
    inlet
    {
        type            cyclic;
    }
    outlet
    {
        type            cyclic;
    }
    sides
    {
        type            empty;
    }
}


// ************************************************************************* //
