/*--------------------------------*- C++ -*----------------------------------*\
| =========                 |                                                 |
| \\      /  F ield         | OpenFOAM: The Open Source CFD Toolbox           |
|  \\    /   O peration     | Version:  2012                                  |
|   \\  /    A nd           | Website:  www.openfoam.com                      |
|    \\/     M anipulation  |                                                 |
\*---------------------------------------------------------------------------*/
FoamFile
{
    version     2.0;
    format      ascii;
    class       volVectorField;
    location    "12000";
    object      U;
}
// * * * * * * * * * * * * * * * * * * * * * * * * * * * * * * * * * * * * * //

dimensions      [0 1 -1 0 0 0 0];


internalField   nonuniform List<vector> 
640
(
(0.0095731 -1.01549e-15 -2.76045e-17)
(0.0095731 -2.75002e-18 -1.22639e-33)
(0.0292827 -2.88613e-15 -1.43718e-17)
(0.0292827 -2.05458e-18 -2.07628e-19)
(0.0501626 -2.96161e-15 -1.51033e-17)
(0.0501626 -5.22528e-18 -3.4514e-19)
(0.0722811 -2.68797e-15 -1.29603e-17)
(0.0722811 -7.94954e-18 -5.77464e-19)
(0.0957087 -2.60493e-15 -1.09767e-17)
(0.0957087 -1.17119e-17 -8.73003e-19)
(0.120514 -2.68776e-15 -8.96093e-18)
(0.120514 -1.5732e-17 -1.26105e-18)
(0.146756 -2.68705e-15 -6.6315e-18)
(0.146756 -2.06838e-17 -1.74719e-18)
(0.174463 -2.68083e-15 -3.90131e-18)
(0.174463 -2.7627e-17 -2.30958e-18)
(0.203605 -2.67454e-15 -7.71883e-19)
(0.203605 -3.52923e-17 -2.94129e-18)
(0.23405 -2.66694e-15 2.73944e-18)
(0.23405 -4.4281e-17 -3.66178e-18)
(0.265518 -2.65833e-15 6.54418e-18)
(0.265518 -5.49604e-17 -4.44761e-18)
(0.297569 -2.64798e-15 1.05205e-17)
(0.297569 -6.57792e-17 -5.35716e-18)
(0.329645 -2.63573e-15 1.45283e-17)
(0.329645 -7.97218e-17 -6.25939e-18)
(0.36116 -2.62263e-15 1.84677e-17)
(0.36116 -9.48831e-17 -7.03782e-18)
(0.391615 -2.60973e-15 2.22197e-17)
(0.391615 -1.10998e-16 -7.85401e-18)
(0.420666 -2.59597e-15 2.5777e-17)
(0.420666 -1.2879e-16 -8.70275e-18)
(0.448135 -2.58551e-15 2.91831e-17)
(0.448135 -1.46857e-16 -9.60845e-18)
(0.473982 -2.55648e-15 3.25324e-17)
(0.473982 -1.65973e-16 -1.04259e-17)
(0.498255 -2.54504e-15 3.59345e-17)
(0.498255 -1.85733e-16 -1.12935e-17)
(0.521055 -2.52615e-15 3.94919e-17)
(0.521055 -2.06347e-16 -1.24282e-17)
(0.542506 -2.5029e-15 4.32974e-17)
(0.542506 -2.29484e-16 -1.31327e-17)
(0.562736 -2.47925e-15 4.74137e-17)
(0.562736 -2.51696e-16 -1.38026e-17)
(0.58187 -2.4556e-15 5.18702e-17)
(0.58187 -2.74229e-16 -1.55257e-17)
(0.600021 -2.42877e-15 5.66738e-17)
(0.600021 -3.02116e-16 -1.69401e-17)
(0.617293 -2.40177e-15 6.1904e-17)
(0.617293 -3.32782e-16 -1.68122e-17)
(0.633778 -2.37594e-15 6.72681e-17)
(0.633778 -3.62363e-16 -1.83926e-17)
(0.649556 -2.34771e-15 7.31128e-17)
(0.649556 -3.95156e-16 -1.95658e-17)
(0.664698 -2.31953e-15 7.92651e-17)
(0.664698 -4.29533e-16 -2.11707e-17)
(0.679267 -2.28757e-15 8.60092e-17)
(0.679267 -4.56962e-16 -2.28956e-17)
(0.693318 -2.25196e-15 9.34873e-17)
(0.693318 -4.88129e-16 -2.56747e-17)
(0.706898 -2.21342e-15 1.01359e-16)
(0.706898 -5.24824e-16 -2.73873e-17)
(0.720049 -2.17373e-15 1.10322e-16)
(0.720049 -5.78913e-16 -2.96826e-17)
(0.732809 -2.12978e-15 1.19881e-16)
(0.732809 -6.33042e-16 -3.08509e-17)
(0.745209 -2.07249e-15 1.30055e-16)
(0.745209 -6.73698e-16 -3.31798e-17)
(0.75728 -2.02368e-15 1.41971e-16)
(0.75728 -7.16625e-16 -3.37124e-17)
(0.769045 -1.99375e-15 1.54464e-16)
(0.769045 -7.52214e-16 -8.72195e-18)
(0.780529 -1.95521e-15 1.66683e-16)
(0.780529 -7.87021e-16 3.68048e-17)
(0.79175 -1.90797e-15 1.55894e-16)
(0.79175 -8.26714e-16 8.46598e-17)
(0.802726 -1.85053e-15 5.00366e-17)
(0.802726 -8.71271e-16 5.94154e-17)
(0.813473 -1.78113e-15 -1.02164e-17)
(0.813473 -9.09738e-16 3.03998e-17)
(0.824005 -1.71892e-15 -6.01659e-17)
(0.824005 -9.54141e-16 -4.26903e-18)
(0.834335 -1.65984e-15 -1.23343e-16)
(0.834335 -1.00271e-15 -4.10013e-17)
(0.844472 -1.6083e-15 -1.84382e-16)
(0.844472 -1.02176e-15 -7.12818e-17)
(0.854427 -1.58176e-15 -2.42823e-16)
(0.854427 -1.05549e-15 -1.03057e-16)
(0.864209 -1.56349e-15 -2.62529e-16)
(0.864209 -1.08575e-15 -1.29852e-16)
(0.873823 -1.51792e-15 -2.55747e-16)
(0.873823 -1.10452e-15 -1.59556e-16)
(0.883278 -1.45037e-15 -2.56736e-16)
(0.883278 -1.11703e-15 -1.87247e-16)
(0.892579 -1.3935e-15 -2.67962e-16)
(0.892579 -1.13805e-15 -2.18805e-16)
(0.90173 -1.33968e-15 -2.76344e-16)
(0.90173 -1.14907e-15 -2.41549e-16)
(0.910735 -1.30937e-15 -2.93344e-16)
(0.910735 -1.14716e-15 -2.54747e-16)
(0.919599 -1.27308e-15 -3.15295e-16)
(0.919599 -1.13434e-15 -2.64825e-16)
(0.928324 -1.19641e-15 -3.2762e-16)
(0.928324 -1.08575e-15 -2.91353e-16)
(0.936912 -1.11784e-15 -3.27602e-16)
(0.936912 -1.05432e-15 -3.1593e-16)
(0.945366 -1.04401e-15 -3.25725e-16)
(0.945366 -1.00806e-15 -3.24006e-16)
(0.953686 -9.84893e-16 -3.0219e-16)
(0.953686 -9.57086e-16 -2.94729e-16)
(0.961873 -9.54857e-16 -2.82897e-16)
(0.961873 -9.27906e-16 -2.82769e-16)
(0.969927 -8.95362e-16 -2.51856e-16)
(0.969927 -8.83437e-16 -2.90431e-16)
(0.977848 -8.1277e-16 -2.32755e-16)
(0.977848 -8.3154e-16 -2.61916e-16)
(0.985636 -7.63186e-16 -2.28204e-16)
(0.985636 -7.73401e-16 -2.68279e-16)
(0.993288 -7.02191e-16 -1.93931e-16)
(0.993288 -6.98615e-16 -2.71168e-16)
(1.0008 -6.84154e-16 -1.99926e-16)
(1.0008 -6.93315e-16 -2.59487e-16)
(1.00818 -6.85239e-16 -1.62233e-16)
(1.00818 -6.9815e-16 -2.41944e-16)
(1.01541 -6.855e-16 -1.77413e-16)
(1.01541 -6.75476e-16 -1.6312e-16)
(1.0225 -6.97525e-16 -1.42634e-16)
(1.0225 -6.85809e-16 -1.17549e-16)
(1.02943 -6.87551e-16 -7.7617e-17)
(1.02943 -6.67096e-16 -3.35063e-17)
(1.0362 -6.97823e-16 -9.90596e-17)
(1.0362 -6.92111e-16 -5.78813e-17)
(1.0428 -6.78758e-16 -1.41989e-16)
(1.0428 -7.01102e-16 -1.02256e-16)
(1.04923 -6.88838e-16 -1.26401e-16)
(1.04923 -6.51666e-16 -9.9558e-17)
(1.05546 -6.45586e-16 -1.8415e-16)
(1.05546 -6.88215e-16 -1.75765e-16)
(1.06149 -5.77174e-16 -1.97652e-16)
(1.06149 -6.12167e-16 -1.77091e-16)
(1.06729 -5.43374e-16 -8.70636e-19)
(1.06729 -5.71374e-16 -1.31908e-16)
(1.07285 -5.4276e-16 -9.92394e-17)
(1.07285 -5.10597e-16 3.1779e-18)
(1.07812 -5.98867e-16 -5.86674e-17)
(1.07812 -5.33501e-16 -1.00711e-16)
(1.08308 -5.35653e-16 -3.20263e-17)
(1.08308 -5.06801e-16 -1.00568e-16)
(1.08767 -4.86255e-16 4.63686e-19)
(1.08767 -4.45661e-16 5.63976e-17)
(1.09182 -4.29297e-16 -2.80885e-17)
(1.09182 -4.33756e-16 1.99045e-16)
(1.09545 -5.54345e-16 -1.95493e-16)
(1.09545 -4.35828e-16 1.47953e-16)
(1.09844 -5.2986e-16 5.73041e-17)
(1.09844 -5.4532e-16 1.04332e-16)
(1.10063 -4.74267e-16 5.04798e-17)
(1.10063 -5.67087e-16 1.59585e-16)
(1.10184 -4.26261e-16 -1.25078e-16)
(1.10184 -3.86382e-16 -1.80977e-17)
(0.0095731 -6.77089e-19 1.52205e-17)
(0.0095731 -1.80666e-19 5.87023e-17)
(0.0292827 4.28091e-19 1.4643e-17)
(0.0292827 6.78176e-19 1.23441e-16)
(0.0501626 3.36646e-19 1.6513e-17)
(0.0501626 1.13457e-18 1.38253e-16)
(0.0722811 7.23887e-19 1.86612e-17)
(0.0722811 1.96972e-18 1.54622e-16)
(0.0957087 1.106e-18 2.11137e-17)
(0.0957087 3.03358e-18 1.72642e-16)
(0.120514 1.59958e-18 2.39058e-17)
(0.120514 4.14582e-18 1.92329e-16)
(0.146756 1.9964e-18 2.70529e-17)
(0.146756 5.38944e-18 2.13566e-16)
(0.174463 2.28082e-18 3.05547e-17)
(0.174463 6.94771e-18 2.3602e-16)
(0.203605 2.878e-18 3.43169e-17)
(0.203605 9.19573e-18 2.58985e-16)
(0.23405 2.903e-18 3.8252e-17)
(0.23405 1.23415e-17 2.81194e-16)
(0.265518 1.91404e-18 4.20079e-17)
(0.265518 1.53339e-17 3.0099e-16)
(0.297569 1.59424e-18 4.53725e-17)
(0.297569 1.77716e-17 3.16412e-16)
(0.329645 2.00982e-18 4.81273e-17)
(0.329645 2.10868e-17 3.26196e-16)
(0.36116 2.19736e-18 5.02701e-17)
(0.36116 2.49338e-17 3.30128e-16)
(0.391615 1.79534e-18 5.16522e-17)
(0.391615 2.78968e-17 3.28894e-16)
(0.420666 1.40015e-18 5.23974e-17)
(0.420666 3.03857e-17 3.23797e-16)
(0.448135 1.98745e-18 5.26455e-17)
(0.448135 3.3353e-17 3.16185e-16)
(0.473982 3.66248e-18 5.25582e-17)
(0.473982 3.49091e-17 3.07419e-16)
(0.498255 6.58207e-18 5.22474e-17)
(0.498255 3.74191e-17 2.98192e-16)
(0.521055 9.17908e-18 5.21433e-17)
(0.521055 3.99085e-17 2.88681e-16)
(0.542506 1.12877e-17 5.2437e-17)
(0.542506 4.02898e-17 2.79553e-16)
(0.562736 9.638e-18 5.31799e-17)
(0.562736 4.57136e-17 2.70914e-16)
(0.58187 4.53531e-18 5.37842e-17)
(0.58187 5.04526e-17 2.62158e-16)
(0.600021 3.31985e-18 5.42979e-17)
(0.600021 5.16113e-17 2.53454e-16)
(0.617293 -9.61411e-19 5.48449e-17)
(0.617293 5.57267e-17 2.4627e-16)
(0.633778 -7.52141e-18 5.48128e-17)
(0.633778 6.30124e-17 2.38896e-16)
(0.649556 -1.25792e-17 5.43444e-17)
(0.649556 6.7908e-17 2.3255e-16)
(0.664698 -1.56055e-17 5.29639e-17)
(0.664698 7.20507e-17 2.26035e-16)
(0.679267 -1.2838e-17 5.2578e-17)
(0.679267 7.17205e-17 2.19242e-16)
(0.693318 -1.06096e-17 5.39287e-17)
(0.693318 6.6398e-17 2.10004e-16)
(0.706898 -8.6868e-18 5.61251e-17)
(0.706898 7.12868e-17 1.99125e-16)
(0.720049 -1.68182e-17 5.98862e-17)
(0.720049 7.69403e-17 1.87216e-16)
(0.732809 -2.6653e-17 6.42352e-17)
(0.732809 8.30654e-17 1.73515e-16)
(0.745209 -2.3336e-17 6.90024e-17)
(0.745209 8.84107e-17 1.58021e-16)
(0.75728 -2.28201e-17 7.29555e-17)
(0.75728 9.46173e-17 1.12284e-16)
(0.769045 -3.09422e-17 7.70101e-17)
(0.769045 9.98324e-17 5.0638e-17)
(0.780529 -2.93718e-17 7.83598e-17)
(0.780529 9.50078e-17 1.92632e-17)
(0.79175 -1.55475e-17 7.99139e-17)
(0.79175 7.16277e-17 1.95788e-17)
(0.802726 -1.87023e-18 8.645e-17)
(0.802726 7.51608e-17 1.82316e-17)
(0.813473 -4.52529e-19 9.63173e-17)
(0.813473 6.42256e-17 1.92176e-17)
(0.824005 -1.41465e-17 1.01898e-16)
(0.824005 4.5737e-17 1.77744e-17)
(0.834335 -3.3577e-17 1.09977e-16)
(0.834335 5.59239e-17 1.98375e-17)
(0.844472 -6.69207e-17 1.06838e-16)
(0.844472 4.11425e-17 2.52834e-17)
(0.854427 -8.34646e-17 1.00622e-16)
(0.854427 2.58014e-17 3.06005e-17)
(0.864209 -8.85272e-17 9.93236e-17)
(0.864209 7.49385e-18 3.38185e-17)
(0.873823 -1.06078e-16 9.57013e-17)
(0.873823 -1.88002e-17 3.83802e-17)
(0.883278 -1.20519e-16 9.18043e-17)
(0.883278 -3.2973e-17 4.22962e-17)
(0.892579 -1.40646e-16 9.2221e-17)
(0.892579 -6.63396e-17 4.00619e-17)
(0.90173 -1.74931e-16 8.52539e-17)
(0.90173 -8.18908e-17 5.17536e-17)
(0.910735 -2.33809e-16 7.5047e-17)
(0.910735 -1.13019e-16 6.09726e-17)
(0.919599 -2.71562e-16 4.73746e-17)
(0.919599 -1.48628e-16 7.31509e-17)
(0.928324 -2.63429e-16 3.48706e-17)
(0.928324 -1.81327e-16 6.84374e-17)
(0.936912 -2.57564e-16 3.866e-17)
(0.936912 -2.42075e-16 8.61289e-17)
(0.945366 -2.53232e-16 7.83444e-17)
(0.945366 -2.51499e-16 1.09053e-16)
(0.953686 -2.5746e-16 1.09161e-16)
(0.953686 -2.55313e-16 1.46965e-16)
(0.961873 -2.97482e-16 1.14348e-16)
(0.961873 -3.07881e-16 1.06854e-16)
(0.969927 -3.31562e-16 1.03746e-16)
(0.969927 -3.23443e-16 8.6192e-17)
(0.977848 -3.43309e-16 8.7909e-17)
(0.977848 -3.18279e-16 1.17355e-16)
(0.985636 -3.56928e-16 1.29398e-16)
(0.985636 -3.88199e-16 1.33801e-16)
(0.993288 -3.65975e-16 1.69371e-16)
(0.993288 -3.89927e-16 1.09288e-16)
(1.0008 -3.89466e-16 1.29704e-16)
(1.0008 -3.95495e-16 1.01439e-16)
(1.00818 -4.23298e-16 1.23371e-16)
(1.00818 -3.83502e-16 1.1924e-16)
(1.01541 -4.19902e-16 8.31422e-17)
(1.01541 -3.32956e-16 1.70479e-16)
(1.0225 -4.24212e-16 1.59357e-16)
(1.0225 -3.6142e-16 2.2214e-16)
(1.02943 -4.48979e-16 2.01622e-16)
(1.02943 -4.18042e-16 1.9431e-16)
(1.0362 -4.93396e-16 9.35509e-17)
(1.0362 -5.02957e-16 1.04e-16)
(1.0428 -4.58584e-16 8.90976e-17)
(1.0428 -4.91825e-16 6.7836e-17)
(1.04923 -4.74566e-16 2.73278e-17)
(1.04923 -4.94285e-16 4.42228e-17)
(1.05546 -5.50557e-16 6.01516e-17)
(1.05546 -4.74878e-16 5.357e-17)
(1.06149 -4.47656e-16 2.71694e-16)
(1.06149 -4.41719e-16 2.82553e-16)
(1.06729 -5.09638e-16 6.10208e-17)
(1.06729 -5.36584e-16 7.83419e-17)
(1.07285 -4.98775e-16 8.11427e-17)
(1.07285 -5.18845e-16 4.43236e-17)
(1.07812 -5.36832e-16 1.28754e-16)
(1.07812 -5.05032e-16 1.47429e-16)
(1.08308 -4.77539e-16 -6.29496e-17)
(1.08308 -4.76328e-16 -5.80644e-17)
(1.08767 -4.9622e-16 -6.48822e-17)
(1.08767 -5.27846e-16 -1.22477e-16)
(1.09182 -5.38147e-16 -1.25997e-16)
(1.09182 -4.79739e-16 -7.82011e-17)
(1.09545 -4.65383e-16 -1.14883e-16)
(1.09545 -4.62121e-16 5.89116e-17)
(1.09844 -5.35388e-16 -1.67852e-16)
(1.09844 -5.67079e-16 -2.36209e-16)
(1.10063 -5.9145e-16 -1.94866e-16)
(1.10063 -5.73149e-16 -1.74266e-16)
(1.10184 -4.02661e-16 -1.37586e-16)
(1.10184 -3.76037e-16 -1.97257e-17)
(1.10184 -4.47673e-16 -7.5844e-17)
(1.10184 -3.6376e-16 4.46146e-18)
(1.10063 -3.63642e-16 1.2573e-16)
(1.10063 -3.48781e-16 2.56895e-16)
(1.09844 -1.95548e-16 6.52856e-17)
(1.09844 -1.82683e-16 -2.57387e-18)
(1.09545 -2.05205e-16 -6.21525e-17)
(1.09545 -2.15811e-16 6.01225e-17)
(1.09182 -1.78552e-16 -1.30069e-16)
(1.09182 -1.92756e-16 -2.46826e-16)
(1.08767 -2.66109e-16 -5.88945e-17)
(1.08767 -2.54238e-16 -4.43602e-17)
(1.08308 -2.84592e-16 1.41624e-16)
(1.08308 -2.78127e-16 1.47667e-16)
(1.07812 -3.02099e-16 3.54069e-17)
(1.07812 -3.44181e-16 1.4578e-17)
(1.07285 -1.69804e-16 -3.5733e-17)
(1.07285 -1.78052e-16 -3.04953e-17)
(1.06729 -1.88241e-16 1.30623e-16)
(1.06729 -1.51831e-16 5.6375e-17)
(1.06149 -2.38472e-16 8.94659e-17)
(1.06149 -1.61151e-16 1.40019e-16)
(1.05546 -9.67289e-17 1.79923e-16)
(1.05546 -1.7425e-16 7.55399e-17)
(1.04923 -1.16237e-16 9.04994e-17)
(1.04923 -1.25007e-16 1.41411e-16)
(1.0428 -1.36348e-16 1.14674e-16)
(1.0428 -1.71937e-16 9.53817e-17)
(1.0362 -1.16036e-16 9.64265e-17)
(1.0362 -1.58856e-16 9.27838e-17)
(1.02943 -7.72098e-17 1.17242e-16)
(1.02943 -8.38526e-17 1.1492e-16)
(1.0225 -1.35097e-16 1.23682e-16)
(1.0225 -8.92189e-17 1.61975e-16)
(1.01541 -1.56039e-16 1.3068e-16)
(1.01541 -1.37814e-16 1.27596e-16)
(1.00818 -1.52601e-16 7.2706e-17)
(1.00818 -1.65271e-16 1.1318e-16)
(1.0008 -1.25725e-16 4.28284e-17)
(1.0008 -1.1704e-16 1.01605e-16)
(0.993288 -1.17436e-16 5.14211e-17)
(0.993288 -9.3018e-17 8.90886e-17)
(0.985636 -8.66422e-17 3.54792e-17)
(0.985636 -1.1666e-16 5.04631e-17)
(0.977848 -9.41852e-17 3.23964e-17)
(0.977848 -7.07659e-17 3.76375e-17)
(0.969927 -8.3491e-17 4.18654e-17)
(0.969927 -3.82428e-17 2.0811e-17)
(0.961873 -8.56191e-17 2.21153e-17)
(0.961873 -5.86786e-17 2.46031e-17)
(0.953686 -5.87115e-17 3.59127e-17)
(0.953686 -7.99182e-17 1.16563e-17)
(0.945366 -3.99573e-17 4.51584e-17)
(0.945366 -2.12726e-17 2.46692e-17)
(0.936912 -4.04906e-17 3.49216e-17)
(0.936912 -2.8802e-17 4.1206e-17)
(0.928324 -4.69461e-17 3.74204e-17)
(0.928324 -5.11693e-17 1.7314e-17)
(0.919599 -4.85922e-17 4.67561e-17)
(0.919599 -3.12398e-17 2.21992e-17)
(0.910735 -3.23097e-17 2.64466e-17)
(0.910735 -2.32135e-17 5.01484e-17)
(0.90173 -2.57887e-17 3.66157e-17)
(0.90173 -2.11399e-17 2.97511e-17)
(0.892579 -2.17491e-17 2.58661e-17)
(0.892579 -3.45538e-17 2.73428e-17)
(0.883278 -2.25701e-17 1.81225e-17)
(0.883278 -3.41125e-17 2.50169e-17)
(0.873823 -2.29292e-17 2.44525e-17)
(0.873823 -2.59439e-17 3.17108e-17)
(0.864209 -1.31281e-17 1.44392e-17)
(0.864209 -2.58019e-17 2.98473e-17)
(0.854427 -1.78856e-17 1.33889e-17)
(0.854427 -3.1273e-17 2.81215e-17)
(0.844472 -1.16206e-17 1.25964e-17)
(0.844472 -2.02032e-17 3.12689e-17)
(0.834335 -1.81073e-17 1.49662e-17)
(0.834335 -1.11934e-17 3.24742e-17)
(0.824005 -2.61371e-17 1.50936e-17)
(0.824005 -1.65954e-17 3.18671e-17)
(0.813473 -3.01168e-17 2.20672e-17)
(0.813473 -1.20345e-17 2.05897e-17)
(0.802726 -2.52941e-17 2.31301e-17)
(0.802726 -8.68975e-18 1.43219e-17)
(0.79175 -1.78108e-17 1.73463e-17)
(0.79175 -2.3873e-18 8.66694e-18)
(0.780529 -1.67464e-17 1.20766e-17)
(0.780529 -7.05244e-18 1.67841e-17)
(0.769045 -1.14441e-18 1.29708e-17)
(0.769045 -8.78621e-18 1.95779e-17)
(0.75728 -2.51036e-18 1.59062e-17)
(0.75728 -5.4244e-18 2.06171e-17)
(0.745209 -3.55178e-18 1.36447e-17)
(0.745209 -6.05145e-18 1.97245e-17)
(0.732809 -8.5261e-18 1.46579e-17)
(0.732809 3.27494e-18 1.31788e-17)
(0.720049 -7.39167e-18 1.2255e-17)
(0.720049 2.28618e-18 9.80004e-18)
(0.706898 2.45237e-19 9.88443e-18)
(0.706898 1.59128e-18 8.92904e-18)
(0.693318 5.94212e-18 8.63457e-18)
(0.693318 6.9704e-18 8.62918e-18)
(0.679267 6.36059e-18 1.0569e-17)
(0.679267 5.06176e-18 1.10205e-17)
(0.664698 5.31876e-18 1.2034e-17)
(0.664698 -3.03273e-18 1.21219e-17)
(0.649556 2.032e-18 9.8531e-18)
(0.649556 1.1049e-19 1.309e-17)
(0.633778 -4.5018e-18 1.00167e-17)
(0.633778 9.05445e-19 1.11751e-17)
(0.617293 -5.79643e-18 9.26474e-18)
(0.617293 1.32778e-18 9.95679e-18)
(0.600021 -3.96574e-18 8.94707e-18)
(0.600021 2.8294e-18 9.73076e-18)
(0.58187 -3.15656e-18 8.66143e-18)
(0.58187 -3.50373e-19 9.13888e-18)
(0.562736 -3.36819e-18 8.08016e-18)
(0.562736 -2.4674e-18 9.10851e-18)
(0.542506 -7.37328e-18 7.16381e-18)
(0.542506 -1.39651e-18 9.37089e-18)
(0.521055 -3.71893e-18 6.72257e-18)
(0.521055 -1.20611e-18 9.6799e-18)
(0.498255 -1.98751e-18 6.82639e-18)
(0.498255 -1.82902e-18 9.8259e-18)
(0.473982 -9.90626e-19 6.57258e-18)
(0.473982 -8.36224e-19 1.01798e-17)
(0.448135 6.70156e-19 6.51536e-18)
(0.448135 -1.07401e-18 1.0199e-17)
(0.420666 1.69419e-18 6.60858e-18)
(0.420666 -1.20894e-18 1.03213e-17)
(0.391615 1.79176e-18 6.52793e-18)
(0.391615 -1.9464e-18 1.05323e-17)
(0.36116 8.47719e-19 6.35011e-18)
(0.36116 -2.51986e-18 1.04917e-17)
(0.329645 -4.25015e-19 5.99818e-18)
(0.329645 -1.49827e-18 1.0412e-17)
(0.297569 -7.07283e-19 5.60651e-18)
(0.297569 -5.1752e-19 9.94553e-18)
(0.265518 -7.41153e-19 5.24145e-18)
(0.265518 -2.01321e-19 9.37756e-18)
(0.23405 -4.80445e-19 4.90844e-18)
(0.23405 -5.52713e-19 8.64747e-18)
(0.203605 -1.11284e-19 4.47895e-18)
(0.203605 -9.85459e-19 7.91315e-18)
(0.174463 -2.77691e-19 4.04825e-18)
(0.174463 -8.01443e-19 7.12117e-18)
(0.146756 -1.24874e-19 3.64293e-18)
(0.146756 -5.62449e-19 6.41217e-18)
(0.120514 -2.33444e-19 3.26172e-18)
(0.120514 -2.67582e-19 5.78086e-18)
(0.0957087 -9.58753e-20 2.91762e-18)
(0.0957087 -1.87824e-19 5.17627e-18)
(0.0722811 -1.48104e-19 2.61057e-18)
(0.0722811 -1.55768e-19 4.61386e-18)
(0.0501626 -7.63131e-20 2.32292e-18)
(0.0501626 -6.21923e-20 4.10511e-18)
(0.0292827 -4.21386e-20 2.07382e-18)
(0.0292827 -4.58601e-20 3.65872e-18)
(0.00957311 7.38292e-21 1.58425e-19)
(0.00957311 -7.28683e-21 7.39246e-19)
(1.10184 -3.20352e-16 3.09045e-17)
(1.10184 -3.43622e-16 -4.24857e-17)
(1.10063 -4.07926e-16 -1.01571e-16)
(1.10063 -3.6678e-16 -8.99579e-17)
(1.09844 -2.38413e-16 -6.82534e-17)
(1.09844 -2.39147e-16 -2.9557e-17)
(1.09545 -1.68888e-16 1.26285e-16)
(1.09545 -2.29376e-16 5.89794e-17)
(1.09182 -1.86868e-16 1.62004e-16)
(1.09182 -2.0457e-16 4.378e-17)
(1.08767 -1.88527e-16 8.2222e-17)
(1.08767 -1.42058e-16 1.39093e-16)
(1.08308 -3.25977e-16 -5.2098e-17)
(1.08308 -2.13699e-16 -1.30198e-16)
(1.07812 -2.52671e-16 -4.35884e-17)
(1.07812 -3.25039e-16 1.03775e-17)
(1.07285 -2.17924e-16 -3.8692e-17)
(1.07285 -2.61699e-16 -1.79372e-17)
(1.06729 -2.64219e-16 -1.65627e-16)
(1.06729 -1.80499e-16 -4.66577e-17)
(1.06149 -2.04228e-16 -1.11352e-16)
(1.06149 -1.70287e-16 -9.36996e-17)
(1.05546 -1.65667e-16 -1.01155e-16)
(1.05546 -1.75371e-16 -1.74327e-16)
(1.04923 -1.47481e-16 -6.0017e-17)
(1.04923 -1.81779e-16 -1.95415e-16)
(1.0428 -1.56432e-16 -1.09359e-16)
(1.0428 -2.1512e-16 -2.06956e-16)
(1.0362 -1.48148e-16 -1.31905e-16)
(1.0362 -1.59324e-16 -8.84152e-17)
(1.02943 -1.54354e-16 -2.00703e-16)
(1.02943 -1.2495e-16 -8.41147e-17)
(1.0225 -1.10193e-16 -1.99433e-16)
(1.0225 -1.01633e-16 -8.87587e-17)
(1.01541 -9.56874e-17 -1.61195e-16)
(1.01541 -7.16009e-17 -1.21895e-16)
(1.00818 -2.52663e-17 -9.32825e-17)
(1.00818 -3.58863e-17 -1.36288e-16)
(1.0008 -7.28998e-17 -5.34988e-17)
(1.0008 -1.38782e-16 -1.20496e-16)
(0.993288 -8.96312e-17 -3.60831e-17)
(0.993288 -9.83829e-17 -8.90105e-17)
(0.985636 -9.53121e-17 -5.13598e-17)
(0.985636 -8.01002e-17 -8.46504e-17)
(0.977848 -9.38068e-17 -4.44147e-17)
(0.977848 -6.17886e-17 -5.08066e-17)
(0.969927 -6.43489e-17 -1.74999e-17)
(0.969927 -2.76739e-17 -2.59111e-17)
(0.961873 -7.49618e-17 -5.8156e-17)
(0.961873 -4.42163e-17 -3.10573e-17)
(0.953686 -4.19392e-17 -8.53198e-17)
(0.953686 -7.34509e-17 -2.14439e-17)
(0.945366 -9.96523e-18 -4.36478e-17)
(0.945366 -3.65862e-17 -4.63478e-17)
(0.936912 -3.84881e-17 -1.49458e-17)
(0.936912 -5.71467e-17 -3.87062e-17)
(0.928324 -4.46052e-17 -2.99086e-17)
(0.928324 -7.72689e-17 -2.87324e-17)
(0.919599 -4.38847e-17 -2.67654e-17)
(0.919599 -8.08509e-17 -4.01871e-17)
(0.910735 -3.71058e-17 -2.26455e-17)
(0.910735 -4.77517e-17 -4.97317e-17)
(0.90173 -2.74722e-17 -1.45401e-17)
(0.90173 -5.26678e-17 -3.08388e-17)
(0.892579 -1.44126e-17 -1.10248e-17)
(0.892579 -4.51936e-17 -3.99621e-17)
(0.883278 -3.56013e-17 -2.05582e-17)
(0.883278 -3.66725e-17 -2.88993e-17)
(0.873823 -3.5948e-17 -1.08409e-17)
(0.873823 -4.48563e-17 -3.8368e-17)
(0.864209 -5.32892e-17 -2.025e-17)
(0.864209 -4.34812e-17 -3.38229e-17)
(0.854427 -4.3454e-17 -7.98149e-18)
(0.854427 -4.35263e-17 -3.32387e-17)
(0.844472 -3.73054e-17 -5.77664e-18)
(0.844472 -5.72227e-17 -3.65091e-17)
(0.834335 -4.57655e-17 -7.02444e-18)
(0.834335 -4.5328e-17 -4.36857e-17)
(0.824005 -5.16993e-17 -1.51757e-17)
(0.824005 -5.22716e-17 -4.14841e-17)
(0.813473 -5.00518e-17 -1.46958e-17)
(0.813473 -3.52599e-17 -3.46916e-17)
(0.802726 -3.61578e-17 -1.27934e-17)
(0.802726 -2.18377e-17 -2.55161e-17)
(0.79175 -3.21375e-17 -7.63686e-18)
(0.79175 -1.50652e-17 -2.20196e-17)
(0.780529 -2.90229e-17 -1.27388e-17)
(0.780529 -1.92857e-17 -1.62845e-17)
(0.769045 -2.74535e-17 -1.25497e-17)
(0.769045 -1.43521e-17 -1.30187e-17)
(0.75728 -2.24008e-17 -1.41409e-17)
(0.75728 -9.28563e-18 -1.11455e-17)
(0.745209 -1.41936e-17 -1.49387e-17)
(0.745209 -2.38146e-17 -7.72878e-18)
(0.732809 -6.63261e-19 -8.2076e-18)
(0.732809 -2.20295e-17 -6.19682e-18)
(0.720049 -3.22616e-18 -4.7527e-18)
(0.720049 -1.68939e-17 -3.16294e-18)
(0.706898 -5.42712e-18 -4.79019e-18)
(0.706898 -2.66818e-17 -4.55941e-18)
(0.693318 -5.51504e-18 -5.91751e-18)
(0.693318 -1.69484e-17 -7.03294e-18)
(0.679267 -7.17587e-18 -9.03625e-18)
(0.679267 -2.27516e-17 -7.85346e-18)
(0.664698 -9.22255e-18 -1.13545e-17)
(0.664698 -1.65182e-17 -8.48031e-18)
(0.649556 -5.95848e-18 -1.39717e-17)
(0.649556 -1.04487e-17 -8.76155e-18)
(0.633778 -3.29039e-18 -1.31113e-17)
(0.633778 -8.57442e-19 -9.09028e-18)
(0.617293 -1.79734e-18 -1.25348e-17)
(0.617293 -9.56516e-18 -9.05678e-18)
(0.600021 -1.2614e-18 -1.24456e-17)
(0.600021 -1.07965e-17 -9.87182e-18)
(0.58187 -2.47842e-18 -1.13604e-17)
(0.58187 -1.0268e-17 -1.02764e-17)
(0.562736 -2.63045e-18 -1.07293e-17)
(0.562736 -5.98028e-18 -1.10391e-17)
(0.542506 -5.93268e-19 -1.09452e-17)
(0.542506 -4.11434e-18 -1.0962e-17)
(0.521055 2.96131e-18 -1.05962e-17)
(0.521055 -4.72954e-18 -1.22279e-17)
(0.498255 4.08053e-18 -9.89941e-18)
(0.498255 -3.07884e-18 -1.37521e-17)
(0.473982 1.79736e-18 -9.70707e-18)
(0.473982 -2.5113e-18 -1.44546e-17)
(0.448135 6.3977e-19 -9.41213e-18)
(0.448135 -1.64796e-18 -1.4474e-17)
(0.420666 1.38285e-18 -9.15457e-18)
(0.420666 -1.36671e-18 -1.47872e-17)
(0.391615 1.35174e-18 -9.00639e-18)
(0.391615 -1.6306e-18 -1.49841e-17)
(0.36116 7.73116e-19 -8.854e-18)
(0.36116 -3.02454e-19 -1.47111e-17)
(0.329645 3.59603e-19 -8.68767e-18)
(0.329645 -8.6574e-19 -1.4518e-17)
(0.297569 -2.66976e-19 -8.26197e-18)
(0.297569 1.21841e-18 -1.39988e-17)
(0.265518 -9.9265e-19 -7.77464e-18)
(0.265518 1.32807e-18 -1.30281e-17)
(0.23405 -9.54337e-19 -7.16201e-18)
(0.23405 9.72476e-19 -1.1957e-17)
(0.203605 -6.35669e-19 -6.54063e-18)
(0.203605 8.91879e-19 -1.08144e-17)
(0.174463 -5.57696e-19 -5.86106e-18)
(0.174463 6.55965e-19 -9.71133e-18)
(0.146756 -4.7193e-19 -5.23952e-18)
(0.146756 5.52818e-19 -8.62177e-18)
(0.120514 -3.81451e-19 -4.70178e-18)
(0.120514 3.47147e-19 -7.70633e-18)
(0.0957087 -1.62853e-19 -4.20182e-18)
(0.0957087 4.8973e-20 -6.87751e-18)
(0.0722811 -1.4013e-19 -3.73475e-18)
(0.0722811 1.13473e-19 -6.12978e-18)
(0.0501626 -1.26708e-19 -3.31924e-18)
(0.0501626 1.09313e-19 -5.45144e-18)
(0.0292827 -3.8538e-20 -2.95585e-18)
(0.0292827 3.17629e-20 -4.84864e-18)
(0.00957311 -3.30538e-20 -3.64661e-19)
(0.00957311 1.20225e-20 -1.13162e-18)
)
;

boundaryField
{
    walls
    {
        type            fixedValue;
        value           uniform (0 0 0);
    }
    inlet
    {
        type            cyclic;
    }
    outlet
    {
        type            cyclic;
    }
    sides
    {
        type            empty;
    }
}


// ************************************************************************* //
