/*--------------------------------*- C++ -*----------------------------------*\
| =========                 |                                                 |
| \\      /  F ield         | OpenFOAM: The Open Source CFD Toolbox           |
|  \\    /   O peration     | Version:  2012                                  |
|   \\  /    A nd           | Website:  www.openfoam.com                      |
|    \\/     M anipulation  |                                                 |
\*---------------------------------------------------------------------------*/
FoamFile
{
    version     2.0;
    format      ascii;
    class       volTensorField;
    location    "3000";
    object      grad(U);
}
// * * * * * * * * * * * * * * * * * * * * * * * * * * * * * * * * * * * * * //

dimensions      [0 0 -1 0 0 0 0];


internalField   nonuniform List<tensor> 
80
(
(0 -7.86422e-31 -8.96212e-31 47.4415 0 9.1309e-14 1.93012 -1.70067e-28 9.65058e-16)
(0 0 5.97475e-31 47.4415 -6.09268e-14 -1.134e-14 1.93012 -2.535e-15 2.8047e-15)
(8.06542e-16 3.2326e-28 2.90275e-28 38.9655 7.40172e-31 4.28242e-31 6.98086 0 1.57772e-30)
(0 -5.73083e-30 3.09375e-30 38.9655 1.33369e-14 2.30145e-29 6.98086 -8.38178e-16 7.43094e-15)
(1.93404e-15 9.02481e-31 3.43554e-30 20.8382 -9.34398e-14 -1.77033e-14 6.41738 7.02765e-15 1.04047e-14)
(3.39383e-15 -1.71777e-30 -6.87108e-30 20.8382 1.04817e-14 3.48734e-14 6.41738 1.60198e-15 5.36725e-15)
(0 -5.14888e-31 -4.1191e-30 7.14001 -9.26102e-15 1.00975e-15 3.5466 6.06594e-15 2.33603e-15)
(6.76861e-15 0 0 7.14001 4.42252e-15 2.77387e-14 3.5466 3.79312e-15 6.40397e-15)
(-2.12232e-15 6.17335e-31 3.97573e-30 2.44368 -1.90302e-15 1.79548e-15 2.2202 5.44993e-15 2.08137e-15)
(2.78023e-15 -3.08667e-31 -4.93868e-30 2.44368 1.85111e-15 1.37668e-14 2.2202 4.83244e-15 4.16301e-15)
(-2.36715e-15 0 0 0.948812 2.17727e-16 8.16347e-15 1.56616 5.00917e-15 2.64219e-15)
(0 0 0 0.948812 7.16644e-16 1.3251e-14 1.56616 5.12045e-15 2.07726e-15)
(2.52272e-15 0 7.09947e-30 0.414562 -1.98108e-15 1.53478e-14 1.22824 4.51546e-15 3.10729e-15)
(0 0 0 0.414562 -2.02571e-15 1.54279e-14 1.22824 4.46527e-15 2.98016e-15)
(0 0 0 0.19891 -8.69443e-17 1.10734e-14 1.02519 -6.01095e-16 -1.57772e-29)
(1.05445e-14 0 -1.70241e-29 0.19891 2.61926e-31 1.18331e-14 1.02519 0 -7.88861e-29)
(-5.59957e-15 -3.50154e-30 -4.07833e-29 0.100608 3.92216e-16 -2.65267e-15 0.883493 1.8948e-15 -7.60518e-16)
(2.18154e-14 1.4013e-45 0 0.100608 9.86076e-32 0 0.883493 1.35932e-45 -3.9443e-31)
(1.18038e-18 0 0 0 -2.0148e-15 -2.46517e-15 5.90189e-19 -1.03815e-14 6.76694e-15)
(0 0 0 5.17173e-29 -2.06665e-15 -3.55726e-15 5.90189e-19 -9.15638e-15 -3.43591e-15)
(3.36348e-16 0 0 47.4415 1.17619e-14 -6.00038e-14 -1.93012 5.66677e-15 -9.65058e-16)
(0 3.73422e-32 5.97475e-31 47.4415 1.37963e-14 1.2398e-13 -1.93012 2.535e-15 -2.8047e-15)
(-8.06542e-16 0 -6.85187e-30 38.9655 1.88154e-14 6.31089e-30 -6.98086 -2.1334e-14 -1.23432e-14)
(8.06542e-16 0 1.34525e-43 38.9655 1.60536e-14 8.39497e-45 -6.98086 8.38178e-16 1.19917e-28)
(0 -2.57666e-30 7.51524e-30 20.8382 1.11073e-14 6.10369e-15 -6.41738 -7.02765e-15 -1.04047e-14)
(-3.86807e-15 1.71777e-30 -7.40788e-30 20.8382 1.045e-14 -4.29154e-14 -6.41738 -1.60198e-15 -5.36725e-15)
(3.38431e-15 1.18056e-30 5.14888e-30 7.14001 4.81163e-15 -4.10057e-15 -3.5466 -1.81252e-15 -1.01685e-14)
(-6.76861e-15 -1.0079e-30 -6.17866e-30 7.14001 4.98505e-15 -2.8764e-14 -3.5466 -1.97745e-15 -6.40397e-15)
(0 2.32528e-32 -2.46934e-30 2.44368 0 -1.1759e-14 -2.2202 7.88861e-31 -9.02014e-15)
(0 0 2.46934e-30 2.44368 5.77703e-16 -2.07635e-14 -2.2202 -4.76571e-16 -4.16301e-15)
(2.36715e-15 3.39801e-31 0 0.948812 -1.10281e-15 -1.54908e-14 -1.56616 -2.56065e-15 -2.64219e-15)
(-9.46859e-15 -3.55941e-30 5.92132e-30 0.948812 -8.42496e-16 -1.51065e-14 -1.56616 -1.37511e-15 -2.07726e-15)
(0 -1.21808e-31 -7.09947e-30 0.414562 -1.06762e-15 -1.63544e-14 -1.22824 -1.85358e-15 -3.10729e-15)
(-2.41784e-14 -2.30915e-30 7.09947e-30 0.414562 -1.37392e-15 -1.60644e-14 -1.22824 -2.38538e-15 -2.98016e-15)
(0 0 0 0.19891 -5.01025e-16 -1.26118e-14 -1.02519 3.68071e-15 1.57772e-29)
(-1.05445e-14 8.11409e-31 0 0.19891 -6.11556e-16 -1.25199e-14 -1.02519 4.00863e-15 7.88861e-29)
(3.01836e-15 3.50325e-46 -2.02351e-29 0.100608 -5.54314e-45 1.03999e-16 -0.883493 -1.48657e-32 5.02422e-16)
(-1.6653e-14 -4.1838e-30 5.91328e-46 0.100608 2.54632e-16 2.66311e-31 -0.883493 -1.23013e-15 -2.31765e-15)
(3.04391e-16 -3.05907e-30 0 0 -2.18528e-15 1.59193e-15 -3.55271e-15 1.03815e-14 -6.76694e-15)
(-1.49835e-16 1.52954e-30 -6.11814e-30 6.93889e-18 -2.0565e-15 2.27671e-15 2.36076e-18 9.15638e-15 3.43591e-15)
(-2.91025e-15 2.55071e-30 1.97669e-33 -2.79256e-09 2.1993e-16 1.47911e-31 2.25027e-08 -1.77233e-15 -9.68251e-15)
(1.16433e-14 -1.0504e-29 0 -2.79218e-09 1.30231e-16 5.22883e-16 2.25027e-08 -1.04948e-15 -6.56105e-15)
(-2.72692e-15 -4.68358e-31 0 -0.100608 4.88025e-16 -6.33509e-15 0.883493 2.35766e-15 1.64113e-15)
(-1.09077e-14 -2.2132e-30 0 -0.100608 4.08974e-16 -6.01621e-15 0.883493 1.97576e-15 1.84701e-15)
(0 0 0 -0.19891 -5.65551e-16 -5.81594e-15 1.02519 3.33049e-15 -3.46256e-15)
(0 0 0 -0.19891 -5.9954e-16 -5.55509e-15 1.02519 2.8802e-15 -4.9408e-15)
(-5.04544e-15 -2.21859e-31 8.87434e-31 -0.414562 2.2191e-16 -3.33558e-15 1.22824 1.67685e-15 -2.83991e-15)
(1.00909e-14 0 -8.87434e-31 -0.414562 0 -3.38325e-15 1.22824 1.48563e-15 -2.42217e-15)
(-3.33341e-15 2.0862e-32 -4.99213e-44 -0.948812 -3.83897e-17 -5.64088e-30 1.56616 3.99564e-17 0)
(3.33341e-15 3.2405e-45 6.37863e-31 -0.948812 -1.79778e-31 -1.11388e-15 1.56616 -1.97215e-31 6.11264e-16)
(0 0 0 -2.44368 -2.06831e-15 -2.58809e-15 2.2202 6.95335e-16 9.26366e-16)
(8.48929e-15 0 0 -2.44368 -1.81432e-15 -2.41185e-15 2.2202 5.54558e-16 7.3965e-16)
(-1.69215e-15 6.4361e-32 0 -7.14001 -1.11738e-15 1.8532e-15 3.5466 9.69229e-17 5.52982e-16)
(6.76862e-15 -6.4361e-32 0 -7.14001 -1.07172e-15 2.43022e-15 3.5466 1.27472e-17 6.24155e-16)
(0 1.09476e-46 0 -20.8382 -3.39091e-30 6.56326e-15 6.41738 0 6.01594e-16)
(0 0 0 -20.8382 -6.26298e-16 6.62743e-15 6.41738 -1.6028e-16 8.60067e-16)
(1.61308e-15 6.71581e-32 -2.8026e-44 -38.9655 -1.73211e-15 5.21792e-30 6.98086 2.33747e-16 0)
(0 -4.47721e-32 0 -38.9655 -5.21026e-16 -5.42996e-15 6.98086 -1.21306e-16 7.29928e-16)
(3.36348e-16 -2.05862e-30 0 -47.4415 -6.8255e-16 -4.0829e-14 1.93012 -1.77558e-17 4.63412e-16)
(-3.36348e-16 5.83471e-33 0 -47.4415 -3.98218e-16 -4.00339e-14 1.93012 2.00324e-17 6.14805e-16)
(-3.44421e-15 1.4013e-45 1.4013e-45 -2.79256e-09 1.81522e-28 0 -2.25027e-08 0 -3.12796e-30)
(2.36076e-18 -8.27565e-32 0 -2.79237e-09 1.21859e-16 3.93939e-16 -2.25027e-08 9.82013e-16 6.56105e-15)
(2.72692e-15 0 0 -0.100608 0 6.77113e-15 -0.883493 -9.97093e-31 -1.64113e-15)
(-1.6653e-14 -2.88074e-30 5.10284e-30 -0.100608 4.00286e-17 5.56395e-15 -0.883493 -1.93379e-16 -1.84701e-15)
(-5.03205e-15 0 -4.1063e-30 -0.19891 -7.70127e-16 1.63921e-15 -1.02519 -3.33049e-15 3.46256e-15)
(-1.05445e-14 0 3.81929e-30 -0.19891 -7.40515e-16 2.6071e-15 -1.02519 -2.8802e-15 4.9408e-15)
(-5.04544e-15 -2.21859e-31 0 -0.414562 -1.198e-15 6.10037e-15 -1.22824 -1.67685e-15 2.83991e-15)
(-1.00909e-14 2.21859e-31 0 -0.414562 -1.07339e-15 6.65537e-15 -1.22824 -1.48563e-15 2.42217e-15)
(0 7.88774e-32 0 -0.948812 -3.04355e-16 4.53631e-15 -1.56616 -1.31289e-15 -6.25714e-16)
(0 -3.16824e-31 0 -0.948812 -9.77287e-17 5.0324e-15 -1.56616 -1.3483e-15 -6.11264e-16)
(2.12232e-15 -2.82875e-32 0 -2.44368 0 2.20102e-15 -2.2202 -6.95335e-16 -9.26366e-16)
(-2.78023e-15 0 0 -2.44368 -2.25061e-16 2.33463e-15 -2.2202 -5.54558e-16 -7.3965e-16)
(0 -9.65415e-32 5.14888e-31 -7.14001 8.65767e-16 -2.43896e-15 -3.5466 -9.69229e-17 -5.52982e-16)
(0 9.65415e-32 -5.14888e-31 -7.14001 -5.92491e-16 -1.87305e-15 -3.5466 -1.27472e-17 -6.24155e-16)
(1.69692e-15 5.45223e-32 0 -20.8382 2.29212e-16 -4.49833e-15 -6.41738 -1.83957e-16 -6.01594e-16)
(3.39383e-15 0 0 -20.8382 0 -4.62236e-15 -6.41738 2.46519e-32 -8.60067e-16)
(0 1.1193e-32 -5.23335e-31 -38.9655 -1.42507e-15 3.89311e-30 -6.98086 -2.33747e-16 -9.42757e-16)
(0 -4.47721e-32 -2.78602e-29 -38.9655 2.05306e-15 9.46059e-15 -6.98086 1.21306e-16 -1.07821e-15)
(-6.72697e-16 8.40779e-45 7.46843e-32 -47.4415 -9.86076e-32 2.48692e-14 -1.93012 9.77344e-30 -4.63412e-16)
(3.36348e-16 6.92805e-30 -7.46843e-32 -47.4415 2.07187e-16 2.04651e-14 -1.93012 -1.66964e-17 -6.14805e-16)
)
;

boundaryField
{
    walls
    {
        type            extrapolatedCalculated;
        value           nonuniform List<tensor> 8((0 -7.86422e-31 -8.96212e-31 47.9021 -2.81578e-13 6.96054e-14 1.93012 -1.70067e-28 9.65058e-16) (3.36348e-16 0 0 47.9021 3.00388e-16 -2.17036e-14 -1.93012 5.66677e-15 -9.65058e-16) (0 0 5.97475e-31 47.9021 -1.34225e-13 3.75347e-15 1.93012 -2.535e-15 2.8047e-15) (0 3.73422e-32 5.97475e-31 47.9021 8.39676e-15 1.35461e-13 -1.93012 2.535e-15 -2.8047e-15) (3.36348e-16 -2.05862e-30 0 -47.9021 9.93893e-17 -3.65148e-14 1.93012 -1.77558e-17 4.63412e-16) (-6.72697e-16 8.40779e-45 7.46843e-32 -47.9021 7.8194e-16 1.35128e-14 -1.93012 9.77344e-30 -4.63412e-16) (-3.36348e-16 5.83471e-33 0 -47.9021 -6.00761e-16 -3.94014e-14 1.93012 2.00324e-17 6.14805e-16) (3.36348e-16 6.92805e-30 -7.46843e-32 -47.9021 -3.93574e-16 8.88474e-15 -1.93012 -1.66964e-17 -6.14805e-16));
    }
    inlet
    {
        type            cyclic;
    }
    outlet
    {
        type            cyclic;
    }
    sides
    {
        type            empty;
    }
}


// ************************************************************************* //
