/*--------------------------------*- C++ -*----------------------------------*\
| =========                 |                                                 |
| \\      /  F ield         | OpenFOAM: The Open Source CFD Toolbox           |
|  \\    /   O peration     | Version:  2012                                  |
|   \\  /    A nd           | Website:  www.openfoam.com                      |
|    \\/     M anipulation  |                                                 |
\*---------------------------------------------------------------------------*/
FoamFile
{
    version     2.0;
    format      ascii;
    class       volSymmTensorField;
    location    "10200";
    object      turbulenceProperties:R;
}
// * * * * * * * * * * * * * * * * * * * * * * * * * * * * * * * * * * * * * //

dimensions      [0 2 -2 0 0 0 0];


internalField   nonuniform List<symmTensor> 
2560
(
(9.19143e-05 -4.40474e-08 -6.38491e-11 9.19143e-05 -1.77883e-14 9.19143e-05)
(9.19143e-05 -4.40474e-08 -6.38491e-11 9.19143e-05 -1.87381e-14 9.19143e-05)
(0.00127218 -3.49439e-06 -1.52842e-08 0.00127218 -2.145e-13 0.00127218)
(0.00127218 -3.49439e-06 -1.52842e-08 0.00127218 -1.38523e-13 0.00127218)
(0.00907744 -7.33691e-05 -4.39786e-07 0.00907744 -1.54854e-12 0.00907744)
(0.00907743 -7.33691e-05 -4.39786e-07 0.00907743 -1.54895e-12 0.00907743)
(0.0333693 -0.000571367 -3.47436e-06 0.0333693 -1.03996e-11 0.0333693)
(0.0333693 -0.000571367 -3.47436e-06 0.0333693 -1.02938e-11 0.0333693)
(0.0864886 -0.00261911 -1.61558e-05 0.0864886 -1.57236e-11 0.0864886)
(0.0864886 -0.00261911 -1.61558e-05 0.0864886 -1.45687e-13 0.0864886)
(0.179717 -0.00861975 -5.39351e-05 0.179717 1.3922e-10 0.179717)
(0.179717 -0.00861975 -5.39351e-05 0.179717 1.03521e-10 0.179717)
(0.316498 -0.0222277 -0.000141082 0.316498 8.17275e-10 0.316498)
(0.316498 -0.0222277 -0.000141082 0.316498 9.24233e-10 0.316498)
(0.487251 -0.0468677 -0.00030176 0.487251 1.77646e-09 0.487251)
(0.487251 -0.0468677 -0.00030176 0.487251 1.99037e-09 0.487251)
(0.674879 -0.0837056 -0.000546741 0.674879 1.75075e-09 0.674879)
(0.674879 -0.0837056 -0.000546741 0.674879 2.56368e-09 0.674879)
(0.865374 -0.131501 -0.000871419 0.865374 -5.97375e-11 0.865374)
(0.865374 -0.131501 -0.000871419 0.865374 6.56506e-09 0.865374)
(1.05148 -0.18802 -0.00126418 1.05148 6.32307e-11 1.05148)
(1.05148 -0.18802 -0.00126418 1.05148 1.32144e-08 1.05148)
(1.23063 -0.251139 -0.00171342 1.23063 1.27264e-08 1.23063)
(1.23063 -0.251139 -0.00171342 1.23063 2.9201e-09 1.23063)
(1.4025 -0.319208 -0.00221004 1.4025 1.22309e-08 1.4025)
(1.4025 -0.319208 -0.00221004 1.4025 -6.88586e-09 1.4025)
(1.56759 -0.39104 -0.00274758 1.56759 -3.96234e-09 1.56759)
(1.56759 -0.39104 -0.00274758 1.56759 -9.95956e-09 1.56759)
(1.72661 -0.465817 -0.0033218 1.72661 -1.3572e-08 1.72661)
(1.72661 -0.465817 -0.0033218 1.72661 -1.35848e-08 1.72661)
(1.88026 -0.542992 -0.00393008 1.88026 -1.77448e-08 1.88026)
(1.88026 -0.542992 -0.00393008 1.88026 -1.77414e-08 1.88026)
(2.02916 -0.622214 -0.00457102 2.02916 -2.24832e-08 2.02916)
(2.02916 -0.622214 -0.00457102 2.02916 -2.25005e-08 2.02916)
(2.17382 -0.70327 -0.0052441 2.17382 -2.78023e-08 2.17382)
(2.17382 -0.70327 -0.0052441 2.17382 -2.78221e-08 2.17382)
(2.31464 -0.786041 -0.00594944 2.31464 -3.36519e-08 2.31464)
(2.31464 -0.786041 -0.00594944 2.31464 -3.36643e-08 2.31464)
(2.45192 -0.870474 -0.00668759 2.45192 -4.01604e-08 2.45192)
(2.45192 -0.870474 -0.00668759 2.45192 -4.01849e-08 2.45192)
(2.58589 -0.956549 -0.00745936 2.58589 -4.74217e-08 2.58589)
(2.58589 -0.956549 -0.00745936 2.58589 -4.74486e-08 2.58589)
(2.71669 -1.04426 -0.00826559 2.71669 -5.52126e-08 2.71669)
(2.71669 -1.04426 -0.00826559 2.71669 -5.52422e-08 2.71669)
(2.84441 -1.1336 -0.00910712 2.84441 -6.36384e-08 2.84441)
(2.84441 -1.1336 -0.00910712 2.84441 -6.36707e-08 2.84441)
(2.96905 -1.22453 -0.00998462 2.96905 -7.30699e-08 2.96905)
(2.96905 -1.22453 -0.00998462 2.96905 -7.31042e-08 2.96905)
(3.09058 -1.31699 -0.0108984 3.09058 -8.32498e-08 3.09058)
(3.09058 -1.31699 -0.0108984 3.09058 -8.32866e-08 3.09058)
(3.2089 -1.41086 -0.0118482 3.2089 -9.3977e-08 3.2089)
(3.2089 -1.41086 -0.0118482 3.2089 -9.40167e-08 3.2089)
(3.32386 -1.50595 -0.0128333 3.32386 -1.05577e-07 3.32386)
(3.32386 -1.50595 -0.0128333 3.32386 -1.05619e-07 3.32386)
(3.43526 -1.60203 -0.0138524 3.43526 -1.18468e-07 3.43526)
(3.43526 -1.60203 -0.0138524 3.43526 -1.1849e-07 3.43526)
(3.54285 -1.69877 -0.0149032 3.54285 -1.32118e-07 3.54285)
(3.54285 -1.69877 -0.0149032 3.54285 -1.32165e-07 3.54285)
(3.64633 -1.79575 -0.0159824 3.64633 -1.46509e-07 3.64633)
(3.64633 -1.79575 -0.0159824 3.64633 -1.46559e-07 3.64633)
(3.74539 -1.89247 -0.017086 3.74539 -1.61927e-07 3.74539)
(3.74539 -1.89247 -0.017086 3.74539 -1.61979e-07 3.74539)
(3.83963 -1.98837 -0.0182087 3.83963 -1.78954e-07 3.83963)
(3.83963 -1.98837 -0.0182087 3.83963 -1.7896e-07 3.83963)
(3.92867 -2.08277 -0.0193443 3.92867 -1.96781e-07 3.92867)
(3.92867 -2.08277 -0.0193443 3.92867 -1.96838e-07 3.92867)
(4.01207 -2.1749 -0.020485 4.01207 -2.15518e-07 4.01207)
(4.01207 -2.1749 -0.020485 4.01207 -2.15577e-07 4.01207)
(4.08936 -2.26395 -0.0216226 4.08936 -2.35747e-07 4.08936)
(4.08936 -2.26395 -0.0216226 4.08936 -2.35808e-07 4.08936)
(4.16009 -2.34903 -0.0227473 4.16009 -2.57731e-07 4.16009)
(4.16009 -2.34903 -0.0227473 4.16009 -2.5775e-07 4.16009)
(4.22376 -2.42918 -0.0238481 4.22376 -2.80693e-07 4.22376)
(4.22376 -2.42918 -0.0238481 4.22376 -2.80759e-07 4.22376)
(4.27991 -2.50339 -0.0249132 4.27991 -3.04743e-07 4.27991)
(4.27991 -2.50339 -0.0249132 4.27991 -3.0481e-07 4.27991)
(4.32807 -2.57063 -0.0259302 4.32807 -3.30639e-07 4.32807)
(4.32807 -2.57063 -0.0259302 4.32807 -3.30709e-07 4.32807)
(4.36779 -2.62988 -0.0268858 4.36779 -3.58606e-07 4.36779)
(4.36779 -2.62988 -0.0268858 4.36779 -3.58666e-07 4.36779)
(4.39867 -2.68012 -0.0277658 4.39867 -3.8807e-07 4.39867)
(4.39867 -2.68012 -0.0277658 4.39867 -3.88098e-07 4.39867)
(4.42036 -2.72031 -0.0285558 4.42036 -4.18448e-07 4.42036)
(4.42036 -2.72031 -0.0285558 4.42036 -4.18524e-07 4.42036)
(4.43254 -2.7495 -0.0292414 4.43254 -4.5127e-07 4.43254)
(4.43254 -2.7495 -0.0292414 4.43254 -4.51347e-07 4.43254)
(4.43499 -2.76682 -0.0298085 4.43499 -4.86304e-07 4.43499)
(4.43499 -2.76682 -0.0298085 4.43499 -4.86306e-07 4.43499)
(4.42758 -2.77147 -0.0302431 4.42758 -5.22761e-07 4.42758)
(4.42758 -2.77147 -0.0302431 4.42758 -5.22842e-07 4.42758)
(4.41026 -2.76276 -0.0305317 4.41026 -5.61259e-07 4.41026)
(4.41026 -2.76276 -0.0305317 4.41026 -5.61265e-07 4.41026)
(4.38309 -2.74014 -0.0306624 4.38309 -6.01261e-07 4.38309)
(4.38309 -2.74014 -0.0306624 4.38309 -6.01346e-07 4.38309)
(4.34627 -2.70324 -0.0306243 4.34627 -6.45665e-07 4.34627)
(4.34627 -2.70324 -0.0306243 4.34627 -6.45449e-07 4.34627)
(4.30011 -2.65181 -0.0304075 4.30011 -6.89732e-07 4.30011)
(4.30011 -2.65181 -0.0304075 4.30011 -6.89626e-07 4.30011)
(4.24506 -2.58579 -0.0300051 4.24506 -7.32575e-07 4.24506)
(4.24506 -2.58579 -0.0300051 4.24506 -7.32008e-07 4.24506)
(4.1817 -2.50545 -0.0294139 4.1817 -7.84544e-07 4.1817)
(4.1817 -2.50545 -0.0294139 4.1817 -7.84635e-07 4.1817)
(4.11074 -2.41113 -0.0286292 4.11074 -8.37395e-07 4.11074)
(4.11074 -2.41113 -0.0286292 4.11074 -8.35652e-07 4.11074)
(4.03304 -2.3033 -0.0276503 4.03304 -8.82772e-07 4.03304)
(4.03304 -2.3033 -0.0276503 4.03304 -8.81704e-07 4.03304)
(3.94956 -2.18281 -0.0264829 3.94956 -9.40467e-07 3.94956)
(3.94956 -2.18281 -0.0264829 3.94956 -9.38656e-07 3.94956)
(3.86139 -2.05064 -0.0251299 3.86139 -9.90925e-07 3.86139)
(3.86139 -2.05064 -0.0251299 3.86139 -9.89821e-07 3.86139)
(3.76968 -1.9078 -0.0235998 3.76968 -1.04459e-06 3.76968)
(3.76968 -1.9078 -0.0235998 3.76968 -1.04468e-06 3.76968)
(3.67569 -1.75562 -0.0219041 3.67569 -1.10098e-06 3.67569)
(3.67569 -1.75562 -0.0219041 3.67569 -1.09959e-06 3.67569)
(3.5807 -1.59546 -0.020055 3.5807 -1.14854e-06 3.5807)
(3.5807 -1.59546 -0.020055 3.5807 -1.14738e-06 3.5807)
(3.48602 -1.42882 -0.0180686 3.48602 -1.20319e-06 3.48602)
(3.48602 -1.42882 -0.0180686 3.48602 -1.20124e-06 3.48602)
(3.39293 -1.25721 -0.0159604 3.39293 -1.25162e-06 3.39293)
(3.39293 -1.25721 -0.0159604 3.39293 -1.25043e-06 3.39293)
(3.30267 -1.08208 -0.0137475 3.30267 -1.30077e-06 3.30267)
(3.30267 -1.08208 -0.0137475 3.30267 -1.29999e-06 3.30267)
(3.21639 -0.904898 -0.0114477 3.21639 -1.33654e-06 3.21639)
(3.21639 -0.904898 -0.0114477 3.21639 -1.33664e-06 3.21639)
(3.13512 -0.727151 -0.00908126 3.13512 -1.37441e-06 3.13512)
(3.13512 -0.727151 -0.00908126 3.13512 -1.37316e-06 3.13512)
(3.05975 -0.55029 -0.00666745 3.05975 -1.41847e-06 3.05975)
(3.05975 -0.55029 -0.00666745 3.05975 -1.41636e-06 3.05975)
(2.99096 -0.375529 -0.00422177 2.99096 -1.44064e-06 2.99096)
(2.99096 -0.375529 -0.00422177 2.99096 -1.43934e-06 2.99096)
(2.92927 -0.204085 -0.00176567 2.92927 -1.46332e-06 2.92927)
(2.92927 -0.204085 -0.00176567 2.92927 -1.46343e-06 2.92927)
(2.87495 -3.60247e-05 -2.70427e-07 2.87495 -1.48614e-06 2.87495)
(2.87495 -3.60256e-05 -2.70434e-07 2.87495 -1.48611e-06 2.87495)
(2.82806 0.0905439 -0.000689569 2.82806 -1.50567e-06 2.82806)
(2.82806 0.0905438 -0.000689569 2.82806 -1.50429e-06 2.82806)
(2.78849 0.278593 -0.00314202 2.78849 -1.52504e-06 2.78849)
(2.78849 0.278593 -0.00314202 2.78849 -1.52265e-06 2.78849)
(2.75586 0.425582 -0.00555622 2.75586 -1.53214e-06 2.75586)
(2.75586 0.425582 -0.00555622 2.75586 -1.53069e-06 2.75586)
(2.72965 0.564027 -0.00791379 2.72965 -1.55483e-06 2.72965)
(2.72965 0.564027 -0.00791379 2.72965 -1.5523e-06 2.72965)
(2.70922 0.693151 -0.0101942 2.70922 -1.56758e-06 2.70922)
(2.70922 0.693151 -0.0101942 2.70922 -1.56603e-06 2.70922)
(2.69381 0.812288 -0.0123826 2.69381 -1.59149e-06 2.69381)
(2.69381 0.812288 -0.0123826 2.69381 -1.5888e-06 2.69381)
(2.68263 0.920828 -0.0144599 2.68263 -1.61466e-06 2.68263)
(2.68263 0.920827 -0.0144599 2.68263 -1.61302e-06 2.68263)
(2.67485 1.01846 -0.0164119 2.67485 -1.64728e-06 2.67485)
(2.67485 1.01846 -0.0164119 2.67485 -1.64465e-06 2.67485)
(2.66965 1.10507 -0.0182282 2.66965 -1.67428e-06 2.66965)
(2.66965 1.10507 -0.0182282 2.66965 -1.67254e-06 2.66965)
(2.66625 1.18065 -0.0199011 2.66625 -1.71332e-06 2.66625)
(2.66625 1.18065 -0.0199011 2.66625 -1.71346e-06 2.66625)
(2.66394 1.24535 -0.0214227 2.66394 -1.75453e-06 2.66394)
(2.66394 1.24535 -0.0214227 2.66394 -1.75467e-06 2.66394)
(2.66209 1.29966 -0.0227917 2.66209 -1.80757e-06 2.66209)
(2.66209 1.29966 -0.0227917 2.66209 -1.80564e-06 2.66209)
(2.66014 1.34418 -0.0240115 2.66014 -1.86123e-06 2.66014)
(2.66014 1.34418 -0.0240115 2.66014 -1.8607e-06 2.66014)
(2.65763 1.37963 -0.0250871 2.65763 -1.91208e-06 2.65763)
(2.65763 1.37963 -0.0250871 2.65763 -1.91003e-06 2.65763)
(2.65417 1.40671 -0.0260253 2.65417 -1.98111e-06 2.65417)
(2.65417 1.40671 -0.0260253 2.65417 -1.97751e-06 2.65417)
(2.64945 1.4263 -0.0268335 2.64945 -2.03348e-06 2.64945)
(2.64945 1.4263 -0.0268335 2.64945 -2.03129e-06 2.64945)
(2.64324 1.43926 -0.0275251 2.64324 -2.09821e-06 2.64324)
(2.64324 1.43926 -0.0275251 2.64324 -2.09721e-06 2.64324)
(2.63539 1.44632 -0.0281087 2.63539 -2.1682e-06 2.63539)
(2.63539 1.44632 -0.0281087 2.63539 -2.16588e-06 2.63539)
(2.62575 1.4483 -0.0285945 2.62575 -2.23365e-06 2.62575)
(2.62575 1.4483 -0.0285945 2.62575 -2.23382e-06 2.62575)
(2.61428 1.44595 -0.0289951 2.61428 -2.30036e-06 2.61428)
(2.61428 1.44595 -0.0289951 2.61428 -2.29789e-06 2.61428)
(2.60093 1.4399 -0.0293206 2.60093 -2.3666e-06 2.60093)
(2.60093 1.4399 -0.0293206 2.60093 -2.36678e-06 2.60093)
(2.58569 1.43064 -0.0295788 2.58569 -2.42642e-06 2.58569)
(2.58569 1.43064 -0.0295788 2.58569 -2.4238e-06 2.58569)
(2.56859 1.41859 -0.0297767 2.56859 -2.49798e-06 2.56859)
(2.56859 1.41859 -0.0297767 2.56859 -2.49816e-06 2.56859)
(2.54966 1.40414 -0.0299189 2.54966 -2.56723e-06 2.54966)
(2.54966 1.40414 -0.0299189 2.54966 -2.56445e-06 2.54966)
(2.52895 1.38768 -0.0300122 2.52895 -2.62522e-06 2.52895)
(2.52895 1.38768 -0.0300122 2.52895 -2.62542e-06 2.52895)
(2.50652 1.3695 -0.0300626 2.50652 -2.67924e-06 2.50652)
(2.50652 1.3695 -0.0300626 2.50652 -2.67931e-06 2.50652)
(2.48245 1.34977 -0.0300728 2.48245 -2.75049e-06 2.48245)
(2.48245 1.34977 -0.0300728 2.48245 -2.74747e-06 2.48245)
(2.4568 1.32865 -0.0300437 2.4568 -2.82399e-06 2.4568)
(2.4568 1.32865 -0.0300437 2.4568 -2.82199e-06 2.4568)
(2.42967 1.3064 -0.0299791 2.42967 -2.86282e-06 2.42967)
(2.42967 1.3064 -0.0299791 2.42967 -2.85962e-06 2.42967)
(2.40113 1.28315 -0.0298838 2.40113 -2.92231e-06 2.40113)
(2.40113 1.28315 -0.0298838 2.40113 -2.92252e-06 2.40113)
(2.37127 1.25893 -0.0297556 2.37127 -2.96966e-06 2.37127)
(2.37127 1.25893 -0.0297556 2.37127 -2.96973e-06 2.37127)
(2.34019 1.23393 -0.0295969 2.34019 -3.02505e-06 2.34019)
(2.34019 1.23393 -0.0295969 2.34019 -3.02159e-06 2.34019)
(2.30796 1.20825 -0.0294109 2.30796 -3.08584e-06 2.30796)
(2.30796 1.20825 -0.0294109 2.30796 -3.08607e-06 2.30796)
(2.27469 1.18203 -0.029198 2.27469 -3.11694e-06 2.27469)
(2.27469 1.18203 -0.029198 2.27469 -3.11327e-06 2.27469)
(2.24047 1.15537 -0.0289619 2.24047 -3.1446e-06 2.24047)
(2.24047 1.15537 -0.0289619 2.24047 -3.14485e-06 2.24047)
(2.20537 1.12831 -0.0287024 2.20537 -3.19896e-06 2.20537)
(2.20537 1.12831 -0.0287024 2.20537 -3.1992e-06 2.20537)
(2.16951 1.10097 -0.0284204 2.16951 -3.23352e-06 2.16951)
(2.16951 1.10097 -0.0284204 2.16951 -3.22952e-06 2.16951)
(2.13295 1.07345 -0.0281192 2.13295 -3.25685e-06 2.13295)
(2.13295 1.07345 -0.0281192 2.13295 -3.25711e-06 2.13295)
(2.0958 1.04584 -0.0277997 2.0958 -3.28918e-06 2.0958)
(2.0958 1.04584 -0.0277997 2.0958 -3.28945e-06 2.0958)
(2.05813 1.01826 -0.0274648 2.05813 -3.31544e-06 2.05813)
(2.05813 1.01826 -0.0274648 2.05813 -3.3111e-06 2.05813)
(2.02003 0.990737 -0.0271162 2.02003 -3.33792e-06 2.02003)
(2.02003 0.990737 -0.0271162 2.02003 -3.33818e-06 2.02003)
(1.98158 0.963368 -0.026754 1.98158 -3.34121e-06 1.98158)
(1.98158 0.963368 -0.026754 1.98158 -3.34149e-06 1.98158)
(1.94285 0.93624 -0.0263823 1.94285 -3.3595e-06 1.94285)
(1.94285 0.93624 -0.0263823 1.94285 -3.35479e-06 1.94285)
(1.90392 0.909361 -0.0260016 1.90392 -3.38455e-06 1.90392)
(1.90392 0.909361 -0.0260016 1.90392 -3.38483e-06 1.90392)
(1.86486 0.882801 -0.0256116 1.86486 -3.37825e-06 1.86486)
(1.86486 0.882801 -0.0256116 1.86486 -3.37325e-06 1.86486)
(1.82574 0.85665 -0.0252164 1.82573 -3.3737e-06 1.82574)
(1.82574 0.85665 -0.0252164 1.82574 -3.37399e-06 1.82574)
(1.78661 0.83092 -0.0248171 1.78661 -3.36348e-06 1.78661)
(1.78661 0.83092 -0.0248171 1.78661 -3.36381e-06 1.78661)
(1.74754 0.805634 -0.0244137 1.74754 -3.3629e-06 1.74754)
(1.74754 0.805634 -0.0244137 1.74754 -3.35748e-06 1.74754)
(1.70858 0.780836 -0.0240076 1.70858 -3.36051e-06 1.70858)
(1.70858 0.780836 -0.0240076 1.70858 -3.3608e-06 1.70858)
(1.66979 0.756564 -0.0236006 1.66979 -3.34026e-06 1.66979)
(1.66979 0.756564 -0.0236006 1.66979 -3.33449e-06 1.66979)
(1.63121 0.732833 -0.0231936 1.63121 -3.3213e-06 1.63121)
(1.63121 0.732833 -0.0231936 1.63121 -3.3171e-06 1.63121)
(1.59288 0.709664 -0.0227873 1.59288 -3.2805e-06 1.59288)
(1.59288 0.709664 -0.0227873 1.59288 -3.27438e-06 1.59288)
(1.55486 0.687054 -0.022383 1.55486 -3.27751e-06 1.55486)
(1.55486 0.687054 -0.022383 1.55486 -3.26697e-06 1.55486)
(1.51716 0.665002 -0.0219799 1.51716 -3.22676e-06 1.51716)
(1.51716 0.665002 -0.0219799 1.51716 -3.22026e-06 1.51716)
(1.47983 0.643535 -0.0215795 1.47983 -3.19612e-06 1.47983)
(1.47983 0.643535 -0.0215795 1.47983 -3.19649e-06 1.47983)
(1.4429 0.622659 -0.0211829 1.4429 -3.14782e-06 1.4429)
(1.4429 0.622659 -0.0211829 1.4429 -3.14214e-06 1.4429)
(1.40639 0.602355 -0.0207903 1.40639 -3.09804e-06 1.40639)
(1.40639 0.602355 -0.0207903 1.40639 -3.09095e-06 1.40639)
(1.37032 0.582603 -0.0204011 1.37032 -3.06292e-06 1.37032)
(1.37032 0.582603 -0.0204011 1.37032 -3.06331e-06 1.37032)
(1.33472 0.563402 -0.0200156 1.33472 -2.99573e-06 1.33472)
(1.33472 0.563402 -0.0200156 1.33472 -2.98815e-06 1.33472)
(1.2996 0.544721 -0.0196342 1.2996 -2.94904e-06 1.2996)
(1.2996 0.544721 -0.0196342 1.2996 -2.94946e-06 1.2996)
(1.26498 0.526535 -0.0192551 1.26498 -2.8894e-06 1.26498)
(1.26498 0.526535 -0.0192551 1.26498 -2.88174e-06 1.26498)
(1.23087 0.508838 -0.0188794 1.23087 -2.81205e-06 1.23087)
(1.23087 0.508838 -0.0188794 1.23087 -2.8038e-06 1.23087)
(1.19729 0.491586 -0.0185063 1.19729 -2.74652e-06 1.19729)
(1.19729 0.491586 -0.0185063 1.19729 -2.74698e-06 1.19729)
(1.16423 0.474753 -0.0181341 1.16423 -2.68729e-06 1.16423)
(1.16423 0.474753 -0.0181341 1.16423 -2.68089e-06 1.16423)
(1.13171 0.458336 -0.0177634 1.13171 -2.59858e-06 1.13171)
(1.13171 0.458336 -0.0177634 1.13171 -2.5971e-06 1.13171)
(1.09974 0.442314 -0.017394 1.09974 -2.51769e-06 1.09974)
(1.09974 0.442314 -0.017394 1.09974 -2.50828e-06 1.09974)
(1.06832 0.426669 -0.017025 1.06832 -2.43678e-06 1.06832)
(1.06832 0.426669 -0.017025 1.06832 -2.43729e-06 1.06832)
(1.03746 0.411394 -0.0166566 1.03746 -2.3599e-06 1.03746)
(1.03746 0.411394 -0.0166566 1.03746 -2.35214e-06 1.03746)
(1.00715 0.396496 -0.016289 1.00715 -2.26598e-06 1.00715)
(1.00715 0.396496 -0.016289 1.00715 -2.2595e-06 1.00715)
(0.977409 0.381982 -0.0159228 0.977409 -2.17077e-06 0.977409)
(0.977409 0.381982 -0.0159228 0.977409 -2.16341e-06 0.977409)
(0.94823 0.367846 -0.0155586 0.94823 -2.06652e-06 0.94823)
(0.94823 0.367846 -0.0155586 0.94823 -2.06461e-06 0.94823)
(0.919618 0.354076 -0.0151962 0.919618 -1.96753e-06 0.919618)
(0.919618 0.354076 -0.0151962 0.919618 -1.95985e-06 0.919618)
(0.891571 0.340666 -0.0148355 0.891571 -1.86401e-06 0.891571)
(0.891571 0.340666 -0.0148355 0.891571 -1.86463e-06 0.891571)
(0.864089 0.3276 -0.0144766 0.86409 -1.76373e-06 0.864089)
(0.864089 0.3276 -0.0144766 0.86409 -1.76159e-06 0.864089)
(0.837172 0.314863 -0.0141189 0.837172 -1.66162e-06 0.837172)
(0.837172 0.314863 -0.0141189 0.837172 -1.65598e-06 0.837172)
(0.810818 0.302443 -0.0137623 0.810818 -1.54662e-06 0.810818)
(0.810818 0.302443 -0.0137623 0.810818 -1.5473e-06 0.810818)
(0.785024 0.290317 -0.0134063 0.785024 -1.43399e-06 0.785024)
(0.785024 0.290317 -0.0134063 0.785024 -1.42352e-06 0.785024)
(0.759789 0.278468 -0.0130502 0.759789 -1.33453e-06 0.759789)
(0.759789 0.278468 -0.0130502 0.759789 -1.33523e-06 0.759789)
(0.73511 0.266883 -0.0126935 0.73511 -1.2118e-06 0.73511)
(0.73511 0.266883 -0.0126935 0.73511 -1.20155e-06 0.73511)
(0.710986 0.255547 -0.0123359 0.710985 -1.09904e-06 0.710986)
(0.710986 0.255547 -0.0123359 0.710985 -1.0998e-06 0.710986)
(0.687413 0.244454 -0.011977 0.687413 -9.86561e-07 0.687413)
(0.687413 0.244454 -0.011977 0.687413 -9.83924e-07 0.687413)
(0.664391 0.233595 -0.0116167 0.664391 -8.67337e-07 0.664391)
(0.664391 0.233595 -0.0116167 0.664391 -8.68146e-07 0.664391)
(0.641917 0.222965 -0.0112549 0.641917 -7.45967e-07 0.641917)
(0.641917 0.222965 -0.0112549 0.641917 -7.44492e-07 0.641917)
(0.619991 0.212563 -0.0108917 0.619991 -6.21385e-07 0.619991)
(0.619991 0.212563 -0.0108917 0.619991 -6.22235e-07 0.619991)
(0.59861 0.202381 -0.010527 0.59861 -4.9457e-07 0.59861)
(0.59861 0.202381 -0.010527 0.59861 -4.9446e-07 0.59861)
(0.577775 0.192418 -0.0101607 0.577775 -3.6884e-07 0.577775)
(0.577775 0.192418 -0.0101607 0.577775 -3.69723e-07 0.577775)
(0.557485 0.182677 -0.00979311 0.557485 -2.37223e-07 0.557485)
(0.557485 0.182677 -0.00979311 0.557485 -2.38258e-07 0.557485)
(0.53774 0.173166 -0.00942459 0.53774 -8.65773e-08 0.53774)
(0.53774 0.173166 -0.00942459 0.53774 -8.33662e-08 0.53774)
(0.51854 0.163905 -0.0090562 0.51854 -8.65809e-09 0.51854)
(0.51854 0.163905 -0.0090562 0.51854 -9.04062e-09 0.51854)
(0.499885 0.154922 -0.00868943 0.499885 1.77577e-07 0.499885)
(0.499886 0.154922 -0.00868943 0.499885 1.84939e-07 0.499886)
(0.481777 0.146262 -0.00832659 0.481777 2.98746e-07 0.481777)
(0.481777 0.146262 -0.00832659 0.481777 2.97414e-07 0.481777)
(0.464214 0.137981 -0.00797106 0.464214 4.56764e-07 0.464214)
(0.464214 0.137981 -0.00797106 0.464215 4.58837e-07 0.464214)
(0.447197 0.130143 -0.00762669 0.447196 6.04151e-07 0.447197)
(0.447197 0.130143 -0.00762669 0.447196 6.02506e-07 0.447197)
(0.430722 0.122814 -0.00729835 0.430722 7.41701e-07 0.430722)
(0.430722 0.122814 -0.00729835 0.430722 7.4478e-07 0.430722)
(0.414786 0.116053 -0.00699062 0.414786 9.00874e-07 0.414786)
(0.414786 0.116053 -0.00699062 0.414786 8.98744e-07 0.414786)
(0.399384 0.109906 -0.00670782 0.399384 1.05447e-06 0.399384)
(0.399384 0.109906 -0.00670782 0.399384 1.05776e-06 0.399384)
(0.384507 0.104397 -0.00645351 0.384508 1.19919e-06 0.384507)
(0.384508 0.104397 -0.00645351 0.384508 1.19619e-06 0.384508)
(0.370147 0.0995232 -0.00622975 0.370147 1.34942e-06 0.370147)
(0.370147 0.0995231 -0.00622975 0.370147 1.35391e-06 0.370147)
(0.35629 0.0952462 -0.00603715 0.356291 1.52181e-06 0.35629)
(0.35629 0.0952462 -0.00603715 0.356291 1.50853e-06 0.35629)
(0.342921 0.0915082 -0.00587327 0.342921 1.6797e-06 0.342921)
(0.342922 0.0915082 -0.00587327 0.34292 1.72237e-06 0.342922)
(0.330024 0.0882239 -0.00573607 0.330024 1.8421e-06 0.330024)
(0.330024 0.0882239 -0.00573607 0.330025 1.74642e-06 0.330024)
(0.317581 0.0852646 -0.00561927 0.317581 1.96946e-06 0.317581)
(0.317582 0.0852646 -0.00561927 0.31758 2.08256e-06 0.317582)
(0.305573 0.0824858 -0.00551462 0.305573 2.17278e-06 0.305573)
(0.305573 0.0824858 -0.00551462 0.305575 1.99156e-06 0.305573)
(0.293981 0.0797544 -0.00541281 0.293981 2.27462e-06 0.293981)
(0.293982 0.0797544 -0.00541281 0.293979 2.50313e-06 0.293982)
(0.282787 0.0769546 -0.00530611 0.282787 2.47743e-06 0.282787)
(0.282786 0.0769545 -0.00530611 0.282789 2.13618e-06 0.282786)
(0.271973 0.0739959 -0.00518655 0.271973 2.55298e-06 0.271973)
(0.271974 0.0739958 -0.00518655 0.27197 2.97894e-06 0.271974)
(0.261525 0.0708471 -0.00504899 0.261525 2.79626e-06 0.261525)
(0.261524 0.0708471 -0.00504899 0.261528 2.20805e-06 0.261524)
(0.251431 0.0675222 -0.00489307 0.251431 2.77352e-06 0.251431)
(0.251433 0.0675222 -0.00489307 0.251427 3.50625e-06 0.251433)
(0.24168 0.0640589 -0.00471979 0.24168 3.09525e-06 0.24168)
(0.241677 0.0640589 -0.00471979 0.241684 2.09663e-06 0.241677)
(0.232263 0.0605152 -0.00453224 0.232263 2.95537e-06 0.232263)
(0.232266 0.0605152 -0.00453224 0.232257 4.22643e-06 0.232266)
(0.223173 0.0569743 -0.00433476 0.223173 3.41338e-06 0.223173)
(0.22317 0.0569743 -0.00433476 0.22318 1.70379e-06 0.22317)
(0.214405 0.053497 -0.00413459 0.214405 3.04791e-06 0.214405)
(0.214409 0.0534969 -0.00413459 0.214397 5.24459e-06 0.214409)
(0.205953 0.0501332 -0.00393331 0.205953 2.51879e-06 0.205953)
(0.205948 0.0501332 -0.0039333 0.205963 8.78464e-07 0.205948)
(0.197812 0.046969 -0.00373716 0.197812 3.03087e-06 0.197812)
(0.197818 0.046969 -0.00373716 0.1978 6.85218e-06 0.197818)
(0.189976 0.0440623 -0.00355369 0.189976 4.95857e-22 0.189976)
(0.189969 0.0440623 -0.00355369 0.189991 -7.86307e-07 0.189969)
(0.18244 0.0414566 -0.0033855 0.18244 2.83675e-06 0.18244)
(0.182449 0.0414567 -0.0033855 0.182424 9.55138e-06 0.182449)
(0.175198 0.0391809 -0.00323843 0.175198 -0 0.175198)
(0.175188 0.0391809 -0.00323845 0.175216 -3.85812e-06 0.175188)
(0.16824 0.0371971 -0.00311313 0.16824 2.29347e-06 0.16824)
(0.16825 0.0371972 -0.00311312 0.16822 1.41078e-05 0.16825)
(0.16156 0.035459 -0.00300476 0.16156 8.15656e-22 0.16156)
(0.16155 0.035459 -0.00300479 0.16158 -9.34914e-06 0.16155)
(0.155149 0.0339167 -0.00291232 0.155149 4.28221e-06 0.155149)
(0.155158 0.0339166 -0.00291229 0.155131 2.18601e-05 0.155158)
(0.148998 0.0325063 -0.00282997 0.148998 1.583e-22 0.148998)
(0.14899 0.0325064 -0.00282998 0.149011 -1.98489e-05 0.148991)
(0.143097 0.031151 -0.00275382 0.143097 5.96022e-06 0.143097)
(0.1431 0.0311511 -0.00275382 0.14309 2.32127e-05 0.1431)
(0.137439 0.0297157 -0.00267523 0.137439 -5.01055e-06 0.137439)
(0.137439 0.0297157 -0.00267525 0.137439 -2.43734e-05 0.137439)
(0.132016 0.0281341 -0.00257921 0.132016 -4.72239e-22 0.132016)
(0.132011 0.028134 -0.0025792 0.132024 2.11093e-05 0.132012)
(0.126821 0.0264353 -0.00246817 0.126821 -5.50833e-06 0.126822)
(0.126828 0.0264354 -0.00246818 0.126808 -2.42423e-05 0.126828)
(0.121852 0.0246331 -0.00234372 0.121852 7.47692e-22 0.121852)
(0.121843 0.024633 -0.00234373 0.121869 1.0324e-05 0.121843)
(0.117102 0.0227865 -0.00220568 0.117102 -3.41909e-06 0.117103)
(0.117112 0.0227864 -0.00220565 0.117084 -1.69821e-05 0.117111)
(0.112571 0.0209317 -0.00206433 0.112571 9.27229e-22 0.112571)
(0.112562 0.0209317 -0.00206435 0.112589 4.16079e-06 0.112562)
(0.108256 0.0190581 -0.00191565 0.108256 -4.28378e-06 0.108256)
(0.108264 0.0190581 -0.00191563 0.108239 -1.253e-05 0.108264)
(0.104154 0.0172289 -0.0017613 0.104154 -1.20226e-06 0.104154)
(0.104146 0.0172289 -0.00176131 0.104169 3.51479e-07 0.104147)
(0.100265 0.0154906 -0.00161169 0.100265 -4.82917e-06 0.100265)
(0.100272 0.0154906 -0.00161168 0.100252 -9.8164e-06 0.100272)
(0.0965878 0.0138888 -0.00146573 0.0965878 -5.47527e-06 0.0965877)
(0.096582 0.0138888 -0.00146574 0.0965992 -2.0521e-06 0.0965821)
(0.0931203 0.0125676 -0.00133433 0.0931203 -5.1799e-06 0.0931203)
(0.093125 0.0125676 -0.00133432 0.0931109 -8.18571e-06 0.0931249)
(0.0898609 0.0116241 -0.00123709 0.0898609 -5.83693e-06 0.0898609)
(0.089857 0.0116241 -0.0012371 0.0898686 -3.53494e-06 0.089857)
(0.0868069 0.0110913 -0.00117686 0.0868069 -5.46511e-06 0.0868069)
(0.08681 0.0110913 -0.00117685 0.0868006 -7.29536e-06 0.08681)
(0.0839549 0.0110278 -0.00116108 0.0839549 -5.8589e-06 0.0839548)
(0.0839522 0.0110278 -0.00116109 0.0839602 -4.4698e-06 0.0839522)
(0.0813004 0.0114399 -0.0011986 0.0813004 -5.6765e-06 0.0813005)
(0.0813026 0.0114399 -0.0011986 0.0812961 -6.79529e-06 0.0813026)
(0.0788382 0.0122724 -0.00128631 0.0788382 -5.92958e-06 0.0788382)
(0.0788364 0.0122724 -0.00128631 0.0788416 -5.29444e-06 0.0788364)
(0.0765612 0.0134362 -0.00141973 0.0765612 -5.81196e-06 0.0765612)
(0.0765625 0.0134362 -0.00141973 0.0765585 -6.51075e-06 0.0765625)
(0.0744614 0.0147843 -0.0015876 0.0744614 -5.94577e-06 0.0744614)
(0.0744603 0.0147843 -0.00158761 0.0744636 -5.68954e-06 0.0744603)
(0.0725292 0.0161062 -0.00177114 0.0725292 -5.8714e-06 0.0725292)
(0.07253 0.0161062 -0.00177114 0.0725274 -6.32043e-06 0.07253)
(0.0707546 0.0172398 -0.00194256 0.0707546 -5.92606e-06 0.0707545)
(0.0707539 0.0172398 -0.00194256 0.0707558 -5.85777e-06 0.0707539)
(0.0691281 0.0181355 -0.00209181 0.0691271 -5.92041e-06 0.0691281)
(0.0691284 0.0181355 -0.00209181 0.0691265 -6.16671e-06 0.0691284)
(0.0676396 0.0188346 -0.00221541 0.0676406 -5.89984e-06 0.0676396)
(0.06764 0.0188346 -0.00221541 0.06764 -5.92298e-06 0.06764)
(0.0662837 0.0194581 -0.00232462 0.0662821 -6.01311e-06 0.0662837)
(0.0662836 0.0194581 -0.00232462 0.0662823 -6.05369e-06 0.0662836)
(0.0650492 0.0201159 -0.0024359 0.0650505 -5.83539e-06 0.0650492)
(0.0650497 0.0201159 -0.0024359 0.0650497 -5.9019e-06 0.0650497)
(0.0639318 0.0208854 -0.00255919 0.0639311 -5.94067e-06 0.0639318)
(0.0639318 0.0208854 -0.00255919 0.0639312 -5.95473e-06 0.0639318)
(0.0629197 0.0218166 -0.0027046 0.0629208 -5.79662e-06 0.0629197)
(0.0629201 0.0218166 -0.0027046 0.0629201 -5.83131e-06 0.0629201)
(0.0620052 0.0229175 -0.002876 0.062005 -5.85337e-06 0.0620052)
(0.0620052 0.0229175 -0.002876 0.062005 -5.86757e-06 0.0620052)
(0.0611748 0.0241708 -0.00307345 0.0611754 -5.86642e-06 0.0611748)
(0.061175 0.0241708 -0.00307345 0.061175 -5.88305e-06 0.061175)
(0.0604164 0.0255836 -0.00329437 0.0604165 -5.97678e-06 0.0604164)
(0.0604164 0.0255836 -0.00329437 0.0604165 -5.99193e-06 0.0604164)
(0.059714 0.0271302 -0.00354518 0.0597141 -6.10163e-06 0.059714)
(0.0597141 0.0271302 -0.00354517 0.0597141 -6.12057e-06 0.0597141)
(0.0590507 0.0286771 -0.00381424 0.0590511 -6.30119e-06 0.0590507)
(0.0590507 0.0286771 -0.00381424 0.059051 -6.31785e-06 0.0590507)
(0.0584084 0.0300219 -0.00407797 0.0584086 -6.45448e-06 0.0584084)
(0.0584085 0.0300219 -0.00407797 0.0584085 -6.49142e-06 0.0584084)
(0.0577699 0.0309223 -0.00430359 0.0577701 -6.77834e-06 0.0577699)
(0.05777 0.0309223 -0.00430359 0.05777 -6.7968e-06 0.05777)
(0.0571222 0.0312006 -0.00445308 0.0571225 -7.03156e-06 0.0571222)
(0.0571223 0.0312006 -0.00445308 0.0571223 -7.06703e-06 0.0571223)
(0.0564588 0.0308134 -0.00450871 0.0564583 -7.3917e-06 0.0564588)
(0.0564588 0.0308134 -0.0045087 0.0564582 -7.41224e-06 0.0564588)
(0.0557792 0.0298771 -0.00446846 0.0557796 -7.62672e-06 0.0557792)
(0.0557792 0.0298771 -0.00446845 0.0557795 -7.64832e-06 0.0557792)
(0.0550906 0.0286524 -0.00436105 0.0550901 -7.74184e-06 0.0550906)
(0.0550904 0.0286524 -0.00436105 0.0550904 -7.76474e-06 0.0550904)
(0.0544008 0.0274674 -0.00422906 0.0544013 -7.87273e-06 0.0544008)
(0.0544008 0.0274674 -0.00422906 0.0544013 -7.89694e-06 0.0544008)
(0.053719 0.0266944 -0.00412597 0.0537197 -7.73884e-06 0.053719)
(0.0537192 0.0266944 -0.00412597 0.0537192 -7.77553e-06 0.0537192)
(0.0530493 0.0265248 -0.00411344 0.0530492 -7.89458e-06 0.0530493)
(0.0530493 0.0265248 -0.00411344 0.0530492 -7.92147e-06 0.0530493)
(0.0523891 0.0268514 -0.00419417 0.0523903 -7.96488e-06 0.0523891)
(0.0523892 0.0268514 -0.00419417 0.0523903 -7.99335e-06 0.0523892)
(0.0517337 0.0273749 -0.00433886 0.0517333 -8.18986e-06 0.0517337)
(0.0517336 0.0273748 -0.00433885 0.0517336 -8.23278e-06 0.0517336)
(0.0510727 0.0277369 -0.00448666 0.0510732 -8.59156e-06 0.0510727)
(0.0510727 0.0277369 -0.00448666 0.0510732 -8.62334e-06 0.0510727)
(0.0504002 0.0277613 -0.00458429 0.0504003 -8.80112e-06 0.0504002)
(0.0504002 0.0277613 -0.00458428 0.0504002 -8.87327e-06 0.0504002)
(0.0497118 0.0274395 -0.00462517 0.0497117 -9.27475e-06 0.0497118)
(0.0497118 0.0274395 -0.00462516 0.0497117 -9.31015e-06 0.0497118)
(0.0490069 0.0268044 -0.0046084 0.0490074 -9.48049e-06 0.0490069)
(0.0490071 0.0268044 -0.0046084 0.0490071 -9.52909e-06 0.0490071)
(0.0482888 0.0258357 -0.00454138 0.0482889 -9.81033e-06 0.0482888)
(0.0482888 0.0258357 -0.00454137 0.0482888 -9.84974e-06 0.0482888)
(0.0475625 0.0244251 -0.00440477 0.0475633 -1.00072e-05 0.0475625)
(0.0475628 0.0244251 -0.00440477 0.0475628 -1.00488e-05 0.0475628)
(0.0468389 0.0224681 -0.00417482 0.0468385 -1.03133e-05 0.0468389)
(0.0468388 0.0224681 -0.00417481 0.0468388 -1.03571e-05 0.0468388)