/*--------------------------------*- C++ -*----------------------------------*\
| =========                 |                                                 |
| \\      /  F ield         | OpenFOAM: The Open Source CFD Toolbox           |
|  \\    /   O peration     | Version:  2106                                  |
|   \\  /    A nd           | Website:  www.openfoam.com                      |
|    \\/     M anipulation  |                                                 |
\*---------------------------------------------------------------------------*/
FoamFile
{
    version     2.0;
    format      ascii;
    arch        "LSB;label=32;scalar=64";
    class       volScalarField;
    location    "16000";
    object      p;
}
// * * * * * * * * * * * * * * * * * * * * * * * * * * * * * * * * * * * * * //

dimensions      [0 2 -2 0 0 0 0];

internalField   nonuniform List<scalar> 
2560
(
1.10313e-14
5.34247e-14
2.3165e-14
5.3424e-14
2.5193e-14
5.3423e-14
2.45738e-14
5.34217e-14
2.43244e-14
5.34199e-14
2.44135e-14
5.34175e-14
2.45285e-14
5.34147e-14
2.46058e-14
5.34114e-14
2.46613e-14
5.34077e-14
2.47092e-14
5.34034e-14
2.4755e-14
5.33987e-14
2.48002e-14
5.33935e-14
2.48457e-14
5.33878e-14
2.48915e-14
5.33816e-14
2.49375e-14
5.3375e-14
2.49837e-14
5.3368e-14
2.50302e-14
5.33606e-14
2.50768e-14
5.33528e-14
2.51238e-14
5.33444e-14
2.51711e-14
5.33356e-14
2.52186e-14
5.33264e-14
2.52663e-14
5.33168e-14
2.53142e-14
5.33068e-14
2.53626e-14
5.32963e-14
2.54111e-14
5.32854e-14
2.54599e-14
5.3274e-14
2.55088e-14
5.32622e-14
2.55581e-14
5.32501e-14
2.56076e-14
5.32379e-14
2.56573e-14
5.32253e-14
2.57073e-14
5.3212e-14
2.57573e-14
5.31984e-14
2.58075e-14
5.31844e-14
2.5858e-14
5.31703e-14
2.59087e-14
5.31559e-14
2.59597e-14
5.31412e-14
2.60108e-14
5.31259e-14
2.60623e-14
5.31102e-14
2.6114e-14
5.30942e-14
2.61658e-14
5.3078e-14
2.62178e-14
5.30615e-14
2.627e-14
5.30448e-14
2.63225e-14
5.30278e-14
2.63752e-14
5.30105e-14
2.64281e-14
5.29926e-14
2.64812e-14
5.29744e-14
2.65344e-14
5.2956e-14
2.65879e-14
5.29374e-14
2.66415e-14
5.29186e-14
2.6695e-14
5.28994e-14
2.67494e-14
5.288e-14
2.68037e-14
5.28601e-14
2.68577e-14
5.28399e-14
2.6912e-14
5.28194e-14
2.69666e-14
5.27986e-14
2.70211e-14
5.27778e-14
2.7076e-14
5.27568e-14
2.71315e-14
5.27354e-14
2.71871e-14
5.27135e-14
2.72421e-14
5.26919e-14
2.72976e-14
5.26701e-14
2.73534e-14
5.26478e-14
2.74094e-14
5.2625e-14
2.74657e-14
5.26022e-14
2.75222e-14
5.25792e-14
2.75788e-14
5.25557e-14
2.76353e-14
5.25319e-14
2.76925e-14
5.25072e-14
2.77502e-14
5.24821e-14
2.78087e-14
5.24572e-14
2.78669e-14
5.24316e-14
2.79253e-14
5.24057e-14
2.79841e-14
5.23793e-14
2.80435e-14
5.23524e-14
2.81033e-14
5.23251e-14
2.81637e-14
5.22975e-14
2.82239e-14
5.22691e-14
2.8285e-14
5.22404e-14
2.83465e-14
5.22114e-14
2.84087e-14
5.21822e-14
2.84705e-14
5.21532e-14
2.85323e-14
5.21229e-14
2.85954e-14
5.20921e-14
2.8658e-14
5.20624e-14
2.87214e-14
5.2033e-14
2.87855e-14
5.20032e-14
2.885e-14
5.19723e-14
2.89152e-14
5.19405e-14
2.89813e-14
5.19077e-14
2.90472e-14
5.1876e-14
2.91132e-14
5.18437e-14
2.91803e-14
5.18106e-14
2.92471e-14
5.1778e-14
2.93138e-14
5.17449e-14
2.93814e-14
5.17115e-14
2.94502e-14
5.16765e-14
2.95199e-14
5.16423e-14
2.95892e-14
5.16086e-14
2.96569e-14
5.15747e-14
2.9727e-14
5.15383e-14
2.97977e-14
5.15025e-14
2.98687e-14
5.14664e-14
2.99383e-14
5.14308e-14
3.00098e-14
5.13957e-14
3.00831e-14
5.13605e-14
3.01555e-14
5.13254e-14
3.02285e-14
5.12908e-14
3.03023e-14
5.12554e-14
3.03762e-14
5.12188e-14
3.04504e-14
5.11837e-14
3.05248e-14
5.11494e-14
3.05983e-14
5.11161e-14
3.06706e-14
5.10823e-14
3.07449e-14
5.10464e-14
3.08218e-14
5.10094e-14
3.08995e-14
5.09716e-14
3.09793e-14
5.0933e-14
3.10595e-14
5.08955e-14
3.1138e-14
5.08575e-14
3.12197e-14
5.08202e-14
3.1302e-14
5.07801e-14
3.13845e-14
5.07409e-14
3.14678e-14
5.07003e-14
3.15535e-14
5.06608e-14
3.16397e-14
5.06202e-14
3.17269e-14
5.05821e-14
3.18132e-14
5.05449e-14
3.19009e-14
5.0507e-14
3.19907e-14
5.04668e-14
3.20769e-14
5.04272e-14
3.21637e-14
5.03901e-14
3.22519e-14
5.03569e-14
3.23422e-14
5.03211e-14
3.24332e-14
5.02811e-14
3.25218e-14
5.02455e-14
3.26126e-14
5.02089e-14
3.27082e-14
5.01695e-14
3.28024e-14
5.01294e-14
3.28989e-14
5.00928e-14
3.29973e-14
5.00521e-14
3.30934e-14
5.00053e-14
3.31889e-14
4.99627e-14
3.32854e-14
4.99226e-14
3.33825e-14
4.98769e-14
3.34821e-14
4.98342e-14
3.35796e-14
4.97946e-14
3.3683e-14
4.97481e-14
3.37836e-14
4.97032e-14
3.38832e-14
4.96538e-14
3.39834e-14
4.96043e-14
3.40838e-14
4.95571e-14
3.41842e-14
4.95125e-14
3.42841e-14
4.94729e-14
3.43831e-14
4.94343e-14
3.44675e-14
4.93971e-14
3.45478e-14
4.93571e-14
3.46368e-14
4.93146e-14
3.47318e-14
4.92788e-14
3.48257e-14
4.92501e-14
3.49181e-14
4.92109e-14
3.50083e-14
4.91659e-14
3.50935e-14
4.91245e-14
3.51847e-14
4.90848e-14
3.52884e-14
4.90425e-14
3.53878e-14
4.89956e-14
3.54942e-14
4.89467e-14
3.5607e-14
4.88961e-14
3.57189e-14
4.8844e-14
3.58315e-14
4.87907e-14
3.59422e-14
4.87413e-14
3.60646e-14
4.86961e-14
3.61889e-14
4.86458e-14
3.63145e-14
4.85857e-14
3.64362e-14
4.85209e-14
3.65632e-14
4.84613e-14
3.66952e-14
4.83875e-14
3.68219e-14
4.83144e-14
3.69627e-14
4.82421e-14
3.70925e-14
4.81806e-14
3.72208e-14
4.81253e-14
3.73572e-14
4.80613e-14
3.74913e-14
4.79937e-14
3.76277e-14
4.79226e-14
3.77611e-14
4.78632e-14
3.78911e-14
4.77954e-14
3.80223e-14
4.77243e-14
3.81546e-14
4.76397e-14
3.82823e-14
4.75569e-14
3.84053e-14
4.74759e-14
3.8523e-14
4.73967e-14
3.86403e-14
4.73141e-14
3.87569e-14
4.72176e-14
3.88777e-14
4.71123e-14
3.90078e-14
4.70187e-14
3.91313e-14
4.69314e-14
3.92584e-14
4.68187e-14
3.9384e-14
4.67169e-14
3.95025e-14
4.6652e-14
3.96351e-14
4.65764e-14
3.97603e-14
4.64898e-14
3.98888e-14
4.64182e-14
3.99993e-14
4.63509e-14
4.01181e-14
4.62768e-14
4.024e-14
4.6201e-14
4.03597e-14
4.61282e-14
4.04772e-14
4.60634e-14
4.05925e-14
4.60061e-14
4.07057e-14
4.59453e-14
4.0806e-14
4.58805e-14
4.09149e-14
4.5822e-14
4.10217e-14
4.57694e-14
4.11372e-14
4.56898e-14
4.1262e-14
4.55716e-14
4.1386e-14
4.54781e-14
4.15206e-14
4.54191e-14
4.16338e-14
4.53938e-14
4.17475e-14
4.53474e-14
4.18621e-14
4.52902e-14
4.19675e-14
4.52426e-14
4.20747e-14
4.52474e-14
4.21947e-14
4.52174e-14
4.23172e-14
4.51843e-14
4.24321e-14
4.51797e-14
4.25614e-14
4.51922e-14
4.26947e-14
4.51779e-14
4.28327e-14
4.51573e-14
4.29549e-14
4.51726e-14
4.30835e-14
4.52015e-14
4.32082e-14
4.52545e-14
4.33292e-14
4.52881e-14
4.34578e-14
4.53125e-14
4.35731e-14
4.53596e-14
4.37078e-14
4.544e-14
4.38404e-14
4.54888e-14
4.39607e-14
4.55272e-14
4.40801e-14
4.56085e-14
4.42199e-14
4.56687e-14
4.43376e-14
4.57395e-14
4.44655e-14
4.57783e-14
4.45831e-14
4.58482e-14
4.47121e-14
4.59275e-14
4.48313e-14
4.59841e-14
4.4952e-14
4.60494e-14
4.50536e-14
4.61656e-14
4.51774e-14
4.62592e-14
4.53232e-14
4.63835e-14
4.54698e-14
4.64969e-14
4.56389e-14
4.6558e-14
4.57485e-14
4.66073e-14
4.58839e-14
4.66439e-14
4.60258e-14
4.67077e-14
4.61348e-14
4.68181e-14
4.62529e-14
4.68922e-14
4.63604e-14
4.70123e-14
4.64981e-14
4.70964e-14
4.6626e-14
4.71228e-14
4.67476e-14
4.71709e-14
4.68854e-14
4.72591e-14
4.70001e-14
4.73857e-14
4.71128e-14
4.74493e-14
4.72254e-14
4.74895e-14
4.72993e-14
4.75642e-14
4.73947e-14
4.76139e-14
4.74919e-14
4.76987e-14
4.75908e-14
4.77783e-14
4.76915e-14
4.78721e-14
4.77547e-14
4.7901e-14
4.78209e-14
4.79812e-14
4.79282e-14
4.80937e-14
4.79982e-14
4.82006e-14
4.80875e-14
4.82657e-14
4.81774e-14
4.82311e-14
4.82156e-14
4.82457e-14
4.83369e-14
4.83456e-14
4.8428e-14
4.84903e-14
4.8525e-14
4.85873e-14
4.85721e-14
4.86004e-14
4.85893e-14
4.86401e-14
4.86678e-14
4.87075e-14
4.8733e-14
4.88388e-14
4.88747e-14
4.89275e-14
4.89863e-14
4.89735e-14
4.90726e-14
4.89931e-14
4.91373e-14
4.90722e-14
4.92334e-14
4.92289e-14
4.93228e-14
4.93604e-14
4.93679e-14
4.93822e-14
4.9475e-14
4.93986e-14
4.95081e-14
4.95418e-14
4.95623e-14
4.96464e-14
4.96692e-14
4.97514e-14
4.97599e-14
4.98241e-14
4.99376e-14
4.9896e-14
4.99444e-14
4.99907e-14
4.99742e-14
5.00809e-14
5.00534e-14
5.01735e-14
5.01474e-14
5.02386e-14
5.0129e-14
5.03072e-14
5.02141e-14
5.03567e-14
5.02479e-14
5.03853e-14
5.03561e-14
5.03914e-14
5.03878e-14
5.04897e-14
5.04915e-14
5.05958e-14
5.0606e-14
5.06503e-14
5.06155e-14
5.0738e-14
5.07804e-14
5.07776e-14
5.08473e-14
5.08432e-14
5.09377e-14
5.09025e-14
5.10248e-14
5.10066e-14
5.11298e-14
5.10992e-14
5.11403e-14
5.11814e-14
5.10763e-14
5.12611e-14
5.11667e-14
5.12744e-14
5.12272e-14
5.13239e-14
5.11468e-14
5.13502e-14
5.11545e-14
5.13693e-14
5.11884e-14
5.13827e-14
5.12514e-14
5.13876e-14
5.12722e-14
5.14004e-14
5.13065e-14
5.13918e-14
4.98502e-14
5.02092e-14
4.98499e-14
5.02091e-14
4.98494e-14
5.0209e-14
4.98487e-14
5.02089e-14
4.98478e-14
5.02087e-14
4.98466e-14
5.02085e-14
4.98451e-14
5.02082e-14
4.98434e-14
5.02078e-14
4.98415e-14
5.02074e-14
4.98393e-14
5.02069e-14
4.98369e-14
5.02064e-14
4.98342e-14
5.02058e-14
4.98312e-14
5.02051e-14
4.9828e-14
5.02045e-14
4.98246e-14
5.02038e-14
4.98208e-14
5.02032e-14
4.98169e-14
5.02024e-14
4.98127e-14
5.02016e-14
4.98083e-14
5.02008e-14
4.98036e-14
5.01998e-14
4.97987e-14
5.01989e-14
4.97934e-14
5.01979e-14
4.9788e-14
5.0197e-14
4.97822e-14
5.01959e-14
4.97764e-14
5.01946e-14
4.97703e-14
5.0193e-14
4.97638e-14
5.01916e-14
4.97572e-14
5.01903e-14
4.97505e-14
5.01889e-14
4.97435e-14
5.01874e-14
4.97362e-14
5.01855e-14
4.97286e-14
5.01837e-14
4.97209e-14
5.0182e-14
4.97132e-14
5.01803e-14
4.9705e-14
5.01785e-14
4.96965e-14
5.01765e-14
4.96882e-14
5.01744e-14
4.96796e-14
5.01723e-14
4.96709e-14
5.01699e-14
4.9662e-14
5.01674e-14
4.9653e-14
5.01649e-14
4.96437e-14
5.01626e-14
4.96345e-14
5.01602e-14
4.96252e-14
5.01574e-14
4.96157e-14
5.01548e-14
4.96059e-14
5.0152e-14
4.95962e-14
5.01492e-14
4.95863e-14
5.01466e-14
4.95763e-14
5.01434e-14
4.95662e-14
5.01402e-14
4.95563e-14
5.01368e-14
4.95459e-14
5.01334e-14
4.95358e-14
5.01301e-14
4.95254e-14
5.01266e-14
4.95151e-14
5.01228e-14
4.95046e-14
5.01191e-14
4.94941e-14
5.01151e-14
4.94834e-14
5.01112e-14
4.94724e-14
5.01075e-14
4.94613e-14
5.01032e-14
4.94503e-14
5.00988e-14
4.94392e-14
5.00945e-14
4.94279e-14
5.00902e-14
4.94164e-14
5.00854e-14
4.94049e-14
5.00805e-14
4.93937e-14
5.00758e-14
4.93817e-14
5.00706e-14
4.93695e-14
5.00659e-14
4.93572e-14
5.00607e-14
4.93453e-14
5.00548e-14
4.93329e-14
5.00493e-14
4.93203e-14
5.00441e-14
4.9308e-14
5.00392e-14
4.92956e-14
5.00346e-14
4.92827e-14
5.00299e-14
4.92698e-14
5.00247e-14
4.92571e-14
5.00196e-14
4.92444e-14
5.00147e-14
4.92313e-14
5.00091e-14
4.92178e-14
5.00032e-14
4.92052e-14
4.99979e-14
4.91924e-14
4.99925e-14
4.91795e-14
4.99872e-14
4.91669e-14
4.99818e-14
4.91546e-14
4.99763e-14
4.91417e-14
4.99707e-14
4.91279e-14
4.99661e-14
4.91147e-14
4.99606e-14
4.91014e-14
4.99542e-14
4.9088e-14
4.99483e-14
4.90755e-14
4.99411e-14
4.9062e-14
4.99339e-14
4.90482e-14
4.99268e-14
4.90346e-14
4.9918e-14
4.90207e-14
4.99097e-14
4.90066e-14
4.99022e-14
4.89928e-14
4.98956e-14
4.89785e-14
4.98886e-14
4.89647e-14
4.98796e-14
4.895e-14
4.9871e-14
4.89355e-14
4.98633e-14
4.89191e-14
4.98553e-14
4.89037e-14
4.98472e-14
4.88893e-14
4.9838e-14
4.88737e-14
4.98293e-14
4.88585e-14
4.98202e-14
4.88416e-14
4.98103e-14
4.88248e-14
4.98018e-14
4.8809e-14
4.97916e-14
4.87938e-14
4.97808e-14
4.87775e-14
4.97708e-14
4.87604e-14
4.97601e-14
4.87432e-14
4.97478e-14
4.87268e-14
4.97356e-14
4.87114e-14
4.97235e-14
4.8696e-14
4.97107e-14
4.86784e-14
4.96971e-14
4.86618e-14
4.96828e-14
4.86446e-14
4.96704e-14
4.86279e-14
4.96564e-14
4.86124e-14
4.96416e-14
4.85966e-14
4.96262e-14
4.85796e-14
4.96109e-14
4.85632e-14
4.95958e-14
4.85493e-14
4.95791e-14
4.85353e-14
4.95608e-14
4.85177e-14
4.95427e-14
4.84992e-14
4.95257e-14
4.84798e-14
4.9508e-14
4.84625e-14
4.94879e-14
4.84426e-14
4.94698e-14
4.8422e-14
4.9452e-14
4.84037e-14
4.94288e-14
4.83839e-14
4.9405e-14
4.83627e-14
4.93843e-14
4.83431e-14
4.93611e-14
4.83252e-14
4.93401e-14
4.83109e-14
4.93156e-14
4.82947e-14
4.92934e-14
4.82784e-14
4.92676e-14
4.82682e-14
4.92382e-14
4.82501e-14
4.92152e-14
4.82344e-14
4.91946e-14
4.82211e-14
4.91725e-14
4.82083e-14
4.91446e-14
4.8194e-14
4.91193e-14
4.81805e-14
4.91006e-14
4.81678e-14
4.90847e-14
4.81539e-14
4.90672e-14
4.8141e-14
4.90419e-14
4.81251e-14
4.90193e-14
4.81104e-14
4.89951e-14
4.80949e-14
4.89739e-14
4.80831e-14
4.89533e-14
4.80709e-14
4.89247e-14
4.80604e-14
4.88946e-14
4.80542e-14
4.88675e-14
4.8039e-14
4.88455e-14
4.80283e-14
4.88266e-14
4.80179e-14
4.88063e-14
4.80056e-14
4.87868e-14
4.79915e-14
4.87682e-14
4.7985e-14
4.8739e-14
4.79725e-14
4.87154e-14
4.79679e-14
4.86927e-14
4.796e-14
4.8671e-14
4.7944e-14
4.86573e-14
4.7932e-14
4.86424e-14
4.79216e-14
4.86216e-14
4.79036e-14
4.8602e-14
4.78827e-14
4.85934e-14
4.78591e-14
4.85813e-14
4.78474e-14
4.85514e-14
4.78381e-14
4.85279e-14
4.78069e-14
4.85256e-14
4.77783e-14
4.85105e-14
4.77523e-14
4.84973e-14
4.77241e-14
4.84963e-14
4.77037e-14
4.84879e-14
4.76861e-14
4.84721e-14
4.76666e-14
4.84591e-14
4.763e-14
4.8454e-14
4.76015e-14
4.84472e-14
4.75812e-14
4.84237e-14
4.75589e-14
4.84038e-14
4.75451e-14
4.83928e-14
4.75347e-14
4.83757e-14
4.7533e-14
4.83527e-14
4.75248e-14
4.83237e-14
4.75155e-14
4.83046e-14
4.75103e-14
4.82747e-14
4.75044e-14
4.82394e-14
4.7498e-14
4.82143e-14
4.74913e-14
4.81999e-14
4.74845e-14
4.81859e-14
4.74829e-14
4.81622e-14
4.74816e-14
4.81395e-14
4.74491e-14
4.81233e-14
4.74275e-14
4.80982e-14
4.74224e-14
4.80485e-14
4.74075e-14
4.80167e-14
4.73776e-14
4.79978e-14
4.73381e-14
4.79815e-14
4.73102e-14
4.79524e-14
4.72832e-14
4.79162e-14
4.72518e-14
4.78945e-14
4.72268e-14
4.78825e-14
4.71974e-14
4.78485e-14
4.71743e-14
4.78035e-14
4.71362e-14
4.778e-14
4.71046e-14
4.77463e-14
4.70578e-14
4.77243e-14
4.70497e-14
4.76716e-14
4.70589e-14
4.76207e-14
4.70643e-14
4.75719e-14
4.70338e-14
4.75358e-14
4.7e-14
4.75019e-14
4.69626e-14
4.74707e-14
4.69541e-14
4.74428e-14
4.69421e-14
4.74184e-14
4.69267e-14
4.73869e-14
4.6897e-14
4.73486e-14
4.68855e-14
4.73254e-14
4.68814e-14
4.72959e-14
4.68955e-14
4.7271e-14
4.68958e-14
4.72614e-14
4.68603e-14
4.72242e-14
4.68646e-14
4.71812e-14
4.68659e-14
4.71861e-14
4.68637e-14
4.71958e-14
4.68578e-14
4.71781e-14
4.68695e-14
4.7155e-14
4.68777e-14
4.71799e-14
4.69033e-14
4.71884e-14
4.69247e-14
4.71696e-14
4.69532e-14
4.71661e-14
4.70105e-14
4.71451e-14
4.70332e-14
4.7159e-14
4.70751e-14
4.71966e-14
4.70933e-14
4.72262e-14
4.713e-14
4.72587e-14
4.71639e-14
4.72834e-14
4.71948e-14
4.7311e-14
4.72439e-14
4.73733e-14
4.73004e-14
4.74174e-14
4.73748e-14
4.74324e-14
4.73837e-14
4.74589e-14
4.74316e-14
4.74966e-14
4.74548e-14
4.75454e-14
4.75153e-14
4.75852e-14
4.75085e-14
4.76369e-14
4.75158e-14
4.7702e-14
4.75348e-14
4.77817e-14
4.75841e-14
4.78571e-14
4.76417e-14
4.79496e-14
4.7644e-14
4.80195e-14
4.76909e-14
4.80697e-14
4.77607e-14
4.81627e-14
4.77495e-14
4.82589e-14
4.77956e-14
4.83209e-14
4.78766e-14
4.83908e-14
4.79515e-14
4.83889e-14
4.80629e-14
4.83534e-14
4.81552e-14
4.83993e-14
4.82501e-14
4.84649e-14
4.83087e-14
4.85293e-14
4.83702e-14
4.86128e-14
4.84338e-14
4.86586e-14
4.85002e-14
4.86858e-14
4.85701e-14
4.87315e-14
4.86251e-14
4.87549e-14
4.86856e-14
4.87548e-14
4.87342e-14
4.87877e-14
4.87914e-14
4.88919e-14
4.8854e-14
4.9012e-14
4.88998e-14
4.9056e-14
4.89656e-14
4.90992e-14
4.90154e-14
4.91232e-14
4.90887e-14
4.91644e-14
4.90945e-14
4.92395e-14
4.91757e-14
4.92403e-14
4.92429e-14
4.92348e-14
4.93353e-14
4.92724e-14
4.94022e-14
4.93324e-14
4.94448e-14
4.94313e-14
4.95121e-14
4.95172e-14
4.95846e-14
4.95722e-14
4.97347e-14
4.96322e-14
4.98294e-14
4.96927e-14
4.98396e-14
4.97833e-14
4.99323e-14
4.98396e-14
5.00064e-14
4.99603e-14
5.00585e-14
5.00818e-14
5.01132e-14
5.01775e-14
5.0169e-14
5.02182e-14
5.02282e-14
5.02682e-14
5.02909e-14
5.0325e-14
5.03564e-14
5.03555e-14
5.03346e-14
5.03877e-14
5.04096e-14
5.0458e-14
5.05505e-14
5.05038e-14
5.06097e-14
5.05187e-14
5.06572e-14
5.05883e-14
5.07507e-14
5.06806e-14
5.08583e-14
5.07357e-14
5.09004e-14
5.08377e-14
5.09558e-14
5.0935e-14
5.1049e-14
5.10641e-14
5.12348e-14
5.11444e-14
5.12964e-14
5.11921e-14
5.13229e-14
5.12901e-14
5.13939e-14
5.13325e-14
5.13795e-14
5.13712e-14
5.14374e-14
5.14434e-14
5.14527e-14
5.1468e-14
5.14877e-14
5.15033e-14
5.14898e-14
5.15229e-14
5.15098e-14
5.15582e-14
5.15152e-14
5.15871e-14
5.15287e-14
5.16155e-14
5.13349e-14
5.14058e-14
5.13111e-14
5.14158e-14
5.13906e-14
5.1427e-14
5.13998e-14
5.14324e-14
5.13685e-14
5.14053e-14
5.14339e-14
5.14293e-14
5.14353e-14
5.14713e-14
5.14478e-14
5.15083e-14
5.15261e-14
5.15432e-14
5.15964e-14
5.16586e-14
5.1568e-14
5.16633e-14
5.16361e-14
5.16747e-14
5.16905e-14
5.17446e-14
5.16719e-14
5.18179e-14
5.17162e-14
5.18766e-14
5.17955e-14
5.18613e-14
5.18351e-14
5.18491e-14
5.18712e-14
5.18642e-14
5.1875e-14
5.18749e-14
5.18752e-14
5.18827e-14
5.18677e-14
5.19492e-14
5.19101e-14
5.20185e-14
5.20022e-14
5.20619e-14
5.19893e-14
5.21077e-14
5.19963e-14
5.21283e-14
5.20534e-14
5.21576e-14
5.21306e-14
5.2193e-14
5.21649e-14
5.22313e-14
5.22257e-14
5.23066e-14
5.22439e-14
5.23851e-14
5.22473e-14
5.24017e-14
5.23023e-14
5.24263e-14
5.23782e-14
5.2491e-14
5.23721e-14
5.25609e-14
5.24918e-14
5.26058e-14
5.25686e-14
5.26565e-14
5.25664e-14
5.27102e-14
5.25513e-14
5.27705e-14
5.26097e-14
5.28238e-14
5.26692e-14
5.287e-14
5.26766e-14
5.29456e-14
5.27571e-14
5.29804e-14
5.28617e-14
5.30083e-14
5.28463e-14
5.30243e-14
5.28948e-14
5.30479e-14
5.29152e-14
5.30582e-14
5.2965e-14
5.30168e-14
5.29728e-14
5.30525e-14
5.30328e-14
5.30916e-14
5.30708e-14
5.31711e-14
5.3105e-14
5.31566e-14
5.30992e-14
5.31029e-14
5.30936e-14
5.31247e-14
5.3127e-14
5.31834e-14
5.31402e-14
5.31414e-14
5.31348e-14
5.31342e-14
5.31499e-14
5.32421e-14
5.3162e-14
5.32312e-14
5.32122e-14
5.31801e-14
5.32236e-14
5.31866e-14
5.32569e-14
5.31903e-14
5.33132e-14
5.31698e-14
5.32528e-14
5.31828e-14
5.3256e-14
5.32722e-14
5.32588e-14
5.33185e-14
5.32602e-14
5.33225e-14
5.32397e-14
5.33259e-14
5.32175e-14
5.33507e-14
5.32339e-14
5.33979e-14
5.32262e-14
5.34051e-14
5.32562e-14
5.34343e-14
5.32824e-14
5.34646e-14
5.32834e-14
5.34757e-14
5.33008e-14
5.34464e-14
5.33142e-14
5.34379e-14
5.3345e-14
5.34922e-14
5.33717e-14
5.35039e-14
5.33842e-14
5.34513e-14
5.33941e-14
5.34284e-14
5.34234e-14
5.34779e-14
5.34402e-14
5.35259e-14
5.3444e-14
5.35628e-14
5.34662e-14
5.35677e-14
5.34752e-14
5.35831e-14
5.3471e-14
5.36202e-14
5.34852e-14
5.36152e-14
5.34968e-14
5.36109e-14
5.34848e-14
5.36173e-14
5.35028e-14
5.36241e-14
5.35081e-14
5.36204e-14
5.35333e-14
5.36172e-14
5.35465e-14
5.36358e-14
5.35588e-14
5.36544e-14
5.35701e-14
5.36407e-14
5.3581e-14
5.36268e-14
5.35807e-14
5.36777e-14
5.35905e-14
5.36963e-14
5.35995e-14
5.37045e-14
5.36079e-14
5.37023e-14
5.36159e-14
5.36895e-14
5.36235e-14
5.37093e-14
5.36307e-14
5.374e-14
5.36481e-14
5.37495e-14
5.36648e-14
5.37596e-14
5.36811e-14
5.37813e-14
5.36968e-14
5.38037e-14
5.37227e-14
5.3816e-14
5.37372e-14
5.38181e-14
5.37513e-14
5.38207e-14
5.37651e-14
5.38346e-14
5.37677e-14
5.38491e-14
5.37806e-14
5.38533e-14
5.37931e-14
5.38259e-14
5.38054e-14
5.38095e-14
5.38071e-14
5.38254e-14
5.38086e-14
5.38416e-14
5.38206e-14
5.38205e-14
5.38327e-14
5.38047e-14
5.38395e-14
5.38048e-14
5.38411e-14
5.38153e-14
5.38535e-14
5.38254e-14
5.38501e-14
5.38406e-14
5.38466e-14
5.38608e-14
5.38535e-14
5.38757e-14
5.38601e-14
5.38801e-14
5.38664e-14
5.39001e-14
5.38882e-14
5.38993e-14
5.39098e-14
5.38932e-14
5.39156e-14
5.38972e-14
5.39267e-14
5.39115e-14
5.3948e-14
5.39203e-14
5.39538e-14
5.39393e-14
5.39545e-14
5.39477e-14
5.39603e-14
5.39662e-14
5.39711e-14
5.39898e-14
5.39869e-14
5.39877e-14
5.39924e-14
5.39906e-14
5.39978e-14
5.40136e-14
5.40082e-14
5.40367e-14
5.40134e-14
5.40647e-14
5.40235e-14
5.40777e-14
5.40282e-14
5.40908e-14
5.40428e-14
5.41041e-14
5.4057e-14
5.41026e-14
5.40662e-14
5.41161e-14
5.40752e-14
5.41297e-14
5.4084e-14
5.41337e-14
5.40975e-14
5.41329e-14
5.41012e-14
5.41322e-14
5.41097e-14
5.41364e-14
5.41133e-14
5.41263e-14
5.41074e-14
5.41162e-14
5.41063e-14
5.41063e-14
5.41004e-14
5.41081e-14
5.40947e-14
5.41053e-14
5.40936e-14
5.41048e-14
5.40856e-14
5.41066e-14
5.40753e-14
5.41108e-14
5.40696e-14
5.41012e-14
5.40616e-14
5.4094e-14
5.40559e-14
5.40868e-14
5.40525e-14
5.4082e-14
5.40513e-14
5.40728e-14
5.40367e-14
5.40703e-14
5.40288e-14
5.40635e-14
5.40253e-14
5.40611e-14
5.40196e-14
5.40588e-14
5.40205e-14
5.40565e-14
5.40148e-14
5.40499e-14
5.40006e-14
5.40369e-14
5.39928e-14
5.40283e-14
5.3985e-14
5.40219e-14
5.39815e-14
5.40197e-14
5.39718e-14
5.40197e-14
5.39641e-14
5.40134e-14
5.39585e-14
5.40092e-14
5.3955e-14
5.40051e-14
5.39495e-14
5.39949e-14
5.39419e-14
5.39868e-14
5.39364e-14
5.39867e-14
5.39348e-14
5.39887e-14
5.39273e-14
5.39847e-14
5.39179e-14
5.39847e-14
5.39104e-14
5.39866e-14
5.3901e-14
5.39886e-14
5.38896e-14
5.39847e-14
5.38811e-14
5.39848e-14
5.38764e-14
5.39868e-14
5.38717e-14
5.39879e-14
5.38659e-14
5.3989e-14
5.38592e-14
5.39893e-14
5.38524e-14
5.39887e-14
5.38474e-14
5.39881e-14
5.38424e-14
5.39885e-14
5.38363e-14
5.39908e-14
5.3832e-14
5.39941e-14
5.38268e-14
5.39938e-14
5.38223e-14
5.39919e-14
5.38187e-14
5.39909e-14
5.3814e-14
5.39917e-14
5.38102e-14
5.399e-14
5.38055e-14
5.39884e-14
5.38032e-14
5.39868e-14
5.38009e-14
5.39871e-14
5.37984e-14
5.39882e-14
5.37976e-14
5.39886e-14
5.37958e-14
5.39882e-14
5.3794e-14
5.3987e-14
5.37929e-14
5.39859e-14
5.37917e-14
5.39857e-14
5.37905e-14
5.39864e-14
5.37908e-14
5.39855e-14
5.37911e-14
5.39839e-14
5.37916e-14
5.39822e-14
5.37921e-14
5.39819e-14
5.37917e-14
5.39812e-14
5.37913e-14
5.39794e-14
5.37916e-14
5.3978e-14
5.3793e-14
5.39762e-14
5.37928e-14
5.39757e-14
5.37921e-14
5.39761e-14
5.37917e-14
5.39757e-14
5.37921e-14
5.39745e-14
5.3792e-14
5.39742e-14
5.37919e-14
5.39743e-14
5.37921e-14
5.39732e-14
5.37919e-14
5.39721e-14
5.37929e-14
5.39706e-14
5.37934e-14
5.39713e-14
5.3793e-14
5.39725e-14
5.37931e-14
5.39728e-14
5.3793e-14
5.39723e-14
5.37929e-14
5.39722e-14
5.37928e-14
5.39731e-14
5.37927e-14
5.3974e-14
5.37925e-14
5.39747e-14
5.37927e-14
5.39747e-14
5.37922e-14
5.39741e-14
5.37914e-14
5.39743e-14
5.3791e-14
5.39749e-14
5.37907e-14
5.39755e-14
5.37902e-14
5.39762e-14
5.37893e-14
5.39766e-14
5.37883e-14
5.39771e-14
5.37878e-14
5.39766e-14
5.37874e-14
5.39765e-14
5.37871e-14
5.39768e-14
5.37864e-14
5.39771e-14
5.37852e-14
5.39775e-14
5.37842e-14
5.39777e-14
5.37838e-14
5.39778e-14
5.37838e-14
5.39777e-14
5.37837e-14
5.39769e-14
5.37834e-14
5.39766e-14
5.37831e-14
5.39771e-14
5.37827e-14
5.39777e-14
5.37827e-14
5.39778e-14
5.37825e-14
5.39777e-14
5.37822e-14
5.39776e-14
5.3782e-14
5.39778e-14
5.37818e-14
5.39779e-14
5.37817e-14
5.39778e-14
5.37816e-14
5.39784e-14
5.37816e-14
5.39787e-14
5.37815e-14
5.39785e-14
5.37815e-14
5.39782e-14
5.37818e-14
5.39782e-14
5.37817e-14
5.39781e-14
5.37817e-14
5.39778e-14
5.37819e-14
5.39777e-14
5.37823e-14
5.39776e-14
5.37822e-14
5.39771e-14
5.37823e-14
5.39766e-14
5.37824e-14
5.39761e-14
5.37824e-14
5.39756e-14
5.37823e-14
5.39753e-14
5.37824e-14
5.3975e-14
5.37827e-14
5.39746e-14
5.37829e-14
5.39742e-14
5.3783e-14
5.39738e-14
5.37831e-14
5.39735e-14
5.37831e-14
5.39733e-14
5.37831e-14
5.39731e-14
5.37832e-14
5.39729e-14
5.37833e-14
5.39724e-14
5.37835e-14
5.39721e-14
5.37837e-14
5.3972e-14
5.37839e-14
5.39719e-14
5.37841e-14
5.39718e-14
5.37841e-14
5.39719e-14
5.37841e-14
5.39718e-14
5.37842e-14
5.39716e-14
5.37843e-14
5.39713e-14
5.37842e-14
5.3971e-14
5.37842e-14
5.39709e-14
5.37843e-14
5.39709e-14
5.37844e-14
5.39708e-14
5.37844e-14
5.39709e-14
5.37844e-14
5.3971e-14
5.37843e-14
5.3971e-14
5.37842e-14
5.3971e-14
5.37842e-14
5.3971e-14
5.37841e-14
5.39711e-14
5.3784e-14
5.39711e-14
5.3784e-14
5.39712e-14
5.37839e-14
5.39712e-14
5.37838e-14
5.39713e-14
5.37838e-14
5.39714e-14
5.37838e-14
5.39713e-14
5.37837e-14
5.39714e-14
5.37837e-14
5.39715e-14
5.37836e-14
5.39715e-14
5.37836e-14
5.39716e-14
5.37836e-14
5.39716e-14
5.37836e-14
5.39716e-14
5.37836e-14
5.39716e-14
5.37835e-14
5.39717e-14
5.37835e-14
5.39717e-14
5.37835e-14
5.39717e-14
5.37835e-14
5.39717e-14
5.1492e-14
5.1596e-14
5.15053e-14
5.16099e-14
5.15174e-14
5.1575e-14
5.15031e-14
5.15607e-14
5.14878e-14
5.15376e-14
5.15572e-14
5.15594e-14
5.16079e-14
5.16193e-14
5.1613e-14
5.16635e-14
5.16226e-14
5.16686e-14
5.16613e-14
5.17171e-14
5.16974e-14
5.17481e-14
5.1794e-14
5.17618e-14
5.18165e-14
5.18065e-14
5.1848e-14
5.18542e-14
5.18591e-14
5.19051e-14
5.18429e-14
5.19329e-14
5.18805e-14
5.19441e-14
5.19141e-14
5.19364e-14
5.19479e-14
5.19345e-14
5.20184e-14
5.19972e-14
5.20034e-14
5.20639e-14
5.2021e-14
5.21104e-14
5.20678e-14
5.21375e-14
5.20467e-14
5.21743e-14
5.21153e-14
5.21926e-14
5.2183e-14
5.22203e-14
5.22534e-14
5.22538e-14
5.22285e-14
5.229e-14
5.23026e-14
5.24012e-14
5.23729e-14
5.24901e-14
5.24398e-14
5.24889e-14
5.24759e-14
5.25289e-14
5.25145e-14
5.25763e-14
5.24836e-14
5.2631e-14
5.25173e-14
5.26625e-14
5.26498e-14
5.27409e-14
5.27084e-14
5.2792e-14
5.27124e-14
5.28328e-14
5.2805e-14
5.28645e-14
5.28455e-14
5.28826e-14
5.28706e-14
5.29399e-14
5.28418e-14
5.29826e-14
5.29008e-14
5.30329e-14
5.29546e-14
5.30719e-14
5.29867e-14
5.31181e-14
5.3015e-14
5.31155e-14
5.30411e-14
5.30807e-14
5.30673e-14
5.30681e-14
5.30572e-14
5.31328e-14
5.30637e-14
5.32404e-14
5.30629e-14
5.32601e-14
5.30729e-14
5.32507e-14
5.3056e-14
5.33294e-14
5.30478e-14
5.34029e-14
5.30647e-14
5.34144e-14
5.31078e-14
5.34035e-14
5.31405e-14
5.33673e-14
5.31655e-14
5.33607e-14
5.31844e-14
5.33021e-14
5.31993e-14
5.32893e-14
5.3211e-14
5.33214e-14
5.32189e-14
5.33791e-14
5.32208e-14
5.34446e-14
5.32569e-14
5.34794e-14
5.3246e-14
5.35231e-14
5.32276e-14
5.34946e-14
5.32018e-14
5.34543e-14
5.31899e-14
5.34841e-14
5.31914e-14
5.35851e-14
5.32247e-14
5.36771e-14
5.32478e-14
5.36991e-14
5.33027e-14
5.36712e-14
5.33501e-14
5.36955e-14
5.34121e-14
5.37505e-14
5.34473e-14
5.37733e-14
5.34775e-14
5.3806e-14
5.35027e-14
5.38269e-14
5.35337e-14
5.38144e-14
5.35504e-14
5.37677e-14
5.35327e-14
5.37597e-14
5.35441e-14
5.3758e-14
5.35848e-14
5.37832e-14
5.35807e-14
5.38028e-14
5.35848e-14
5.37847e-14
5.35866e-14
5.3782e-14
5.35864e-14
5.37941e-14
5.35731e-14
5.38321e-14
5.35567e-14
5.38429e-14
5.35586e-14
5.38052e-14
5.35575e-14
5.37719e-14
5.35432e-14
5.37747e-14
5.3526e-14
5.38031e-14
5.3527e-14
5.38141e-14
5.35244e-14
5.3797e-14
5.35294e-14
5.37948e-14
5.35419e-14
5.38181e-14
5.35187e-14
5.38235e-14
5.35136e-14
5.38327e-14
5.35156e-14
5.38241e-14
5.35251e-14
5.38409e-14
5.35419e-14
5.38614e-14
5.3577e-14
5.38423e-14
5.35769e-14
5.38151e-14
5.35853e-14
5.37904e-14
5.36132e-14
5.38001e-14
5.36393e-14
5.38331e-14
5.36636e-14
5.38461e-14
5.36862e-14
5.3839e-14
5.37074e-14
5.38223e-14
5.37275e-14
5.38281e-14
5.3736e-14
5.38346e-14
5.37545e-14
5.38202e-14
5.37617e-14
5.38169e-14
5.37791e-14
5.37924e-14
5.38071e-14
5.37895e-14
5.38136e-14
5.38185e-14
5.38202e-14
5.3826e-14
5.38321e-14
5.38175e-14
5.38387e-14
5.3841e-14
5.38559e-14
5.38593e-14
5.38784e-14
5.38776e-14
5.3885e-14
5.3896e-14
5.39076e-14
5.39041e-14
5.39091e-14
5.39121e-14
5.39107e-14
5.39203e-14
5.39335e-14
5.39286e-14
5.39406e-14
5.39526e-14
5.39478e-14
5.39716e-14
5.39601e-14
5.39646e-14
5.39673e-14
5.39579e-14
5.39746e-14
5.39719e-14
5.39715e-14
5.40015e-14
5.39839e-14
5.40107e-14
5.39808e-14
5.402e-14
5.39981e-14
5.40347e-14
5.40101e-14
5.40444e-14
5.40169e-14
5.4039e-14
5.40135e-14
5.40439e-14
5.40303e-14
5.40541e-14
5.40419e-14
5.40693e-14
5.40435e-14
5.40795e-14
5.40499e-14
5.40798e-14
5.40513e-14
5.40802e-14
5.40575e-14
5.40806e-14
5.40687e-14
5.40909e-14
5.40698e-14
5.40963e-14
5.40758e-14
5.41115e-14
5.40671e-14
5.41316e-14
5.40727e-14
5.41323e-14
5.40782e-14
5.41186e-14
5.40691e-14
5.41148e-14
5.40694e-14
5.41253e-14
5.40696e-14
5.41264e-14
5.40696e-14
5.41206e-14
5.40648e-14
5.4122e-14
5.40669e-14
5.41258e-14
5.40595e-14
5.41274e-14
5.40521e-14
5.41222e-14
5.40445e-14
5.41126e-14
5.40391e-14
5.411e-14
5.40359e-14
5.41098e-14
5.40325e-14
5.41053e-14
5.40246e-14
5.40986e-14
5.40187e-14
5.40899e-14
5.40173e-14
5.40925e-14
5.40047e-14
5.40974e-14
5.39964e-14
5.40937e-14
5.39793e-14
5.40923e-14
5.39708e-14
5.40911e-14
5.39686e-14
5.40923e-14
5.39577e-14
5.40936e-14
5.39446e-14
5.4093e-14
5.39377e-14
5.40948e-14
5.39327e-14
5.40947e-14
5.39254e-14
5.4101e-14
5.3918e-14
5.41013e-14
5.39125e-14
5.40978e-14
5.39088e-14
5.40945e-14
5.39091e-14
5.40956e-14
5.3903e-14
5.40989e-14
5.38969e-14
5.40984e-14
5.38965e-14
5.40922e-14
5.38959e-14
5.40882e-14
5.38952e-14
5.40904e-14
5.38942e-14
5.40908e-14
5.38912e-14
5.40894e-14
5.38871e-14
5.40874e-14
5.38848e-14
5.40883e-14
5.38824e-14
5.40876e-14
5.38789e-14
5.40824e-14
5.38762e-14
5.40784e-14
5.38779e-14
5.40773e-14
5.3875e-14
5.40782e-14
5.3872e-14
5.40802e-14
5.38653e-14
5.40814e-14
5.38638e-14
5.40801e-14
5.38614e-14
5.40736e-14
5.3858e-14
5.40699e-14
5.38536e-14
5.40691e-14
5.38491e-14
5.40684e-14
5.38437e-14
5.40678e-14
5.38416e-14
5.40691e-14
5.38395e-14
5.40688e-14
5.38364e-14
5.40704e-14
5.38341e-14
5.40695e-14
5.38317e-14
5.40696e-14
5.38292e-14
5.4069e-14
5.38291e-14
5.40677e-14
5.38273e-14
5.40673e-14
5.38262e-14
5.40671e-14
5.38234e-14
5.40694e-14
5.38221e-14
5.40694e-14
5.38224e-14
5.40687e-14
5.3823e-14
5.40676e-14
5.38236e-14
5.40679e-14
5.38241e-14
5.40683e-14
5.38245e-14
5.4068e-14
5.38252e-14
5.4067e-14
5.38258e-14
5.40656e-14
5.38268e-14
5.40647e-14
5.38278e-14
5.40648e-14
5.38286e-14
5.40645e-14
5.3829e-14
5.40626e-14
5.38302e-14
5.40612e-14
5.38296e-14
5.40607e-14
5.3829e-14
5.40599e-14
5.38284e-14
5.40596e-14
5.38277e-14
5.40593e-14
5.38269e-14
5.40591e-14
5.38277e-14
5.40581e-14
5.38273e-14
5.40571e-14
5.38259e-14
5.40562e-14
5.38245e-14
5.4055e-14
5.38239e-14
5.40538e-14
5.38241e-14
5.4053e-14
5.38239e-14
5.40528e-14
5.38236e-14
5.40521e-14
5.38237e-14
5.40504e-14
5.3824e-14
5.40494e-14
5.38236e-14
5.40498e-14
5.38231e-14
5.405e-14
5.38231e-14
5.40491e-14
5.38231e-14
5.4048e-14
5.3823e-14
5.40476e-14
5.38228e-14
5.40472e-14
5.38224e-14
5.40455e-14
5.38227e-14
5.40445e-14
5.38225e-14
5.40442e-14
5.38223e-14
5.4044e-14
5.3822e-14
5.40431e-14
5.38222e-14
5.40427e-14
5.38224e-14
5.40423e-14
5.38228e-14
5.40417e-14
5.38232e-14
5.40413e-14
5.38231e-14
5.40419e-14
5.38232e-14
5.40418e-14
5.38233e-14
5.40413e-14
5.38238e-14
5.40405e-14
5.38242e-14
5.40403e-14
5.38243e-14
5.40405e-14
5.38238e-14
5.40408e-14
5.38238e-14
5.40405e-14