/*--------------------------------*- C++ -*----------------------------------*| =========                 |                                                 |
| \      /  F ield         | OpenFOAM: The Open Source CFD Toolbox           |
|  \    /   O peration     | Version:  v2012                                 |
|   \  /    A nd           | Website:  www.openfoam.com                      |
|    \/     M anipulation  |                                                 |
\*---------------------------------------------------------------------------*/
FoamFile
{
    version     2.0;
    format      ascii;
    class       volSymmTensorField;
    location    "0";
    object      bij;
}
// * * * * * * * * * * * * * * * * * * * * * * * * * * * * * * * * * * * * * //

dimensions      [0 0 0 0 0 0 0];


internalField   nonuniform List<symmTensor> 
2560
(
(0.3645654101291297 -0.00028188948292732417 0.0 -0.3334029192295484 0.0 -0.03300908462949098)
(0.3645654101291297 -0.00028188948292732417 0.0 -0.3334029192295484 0.0 -0.03300908462949098)
(0.3402985093797636 -0.000291163366551983 0.0 -0.33363916541501865 0.0 0.02401517765793357)
(0.3402985093797636 -0.000291163366551983 0.0 -0.33363916541501865 0.0 0.02401517765793357)
(0.35364506048739264 -0.0006109096238957946 0.0 -0.33331662815172974 0.0 -0.009779502594896787)
(0.35364506048739264 -0.0006109096238957946 0.0 -0.33331662815172974 0.0 -0.009779502594896787)
(0.3984625252616397 -0.001279917734736732 0.0 -0.33328115812274806 0.0 -0.08254196026553329)
(0.3984625252616397 -0.001279917734736732 0.0 -0.33328115812274806 0.0 -0.08254196026553329)
(0.4176808637733034 -0.0016539849115132944 0.0 -0.3330918729169024 0.0 -0.10946281429238401)
(0.4176808637733034 -0.0016539849115132944 0.0 -0.3330918729169024 0.0 -0.10946281429238401)
(0.4172904315999825 -0.0016540650765305143 0.0 -0.3330918471981025 0.0 -0.09957522722293609)
(0.4172904315999825 -0.0016540650765305143 0.0 -0.3330918471981025 0.0 -0.09957522722293609)
(0.4021653639495271 -0.0017064463156778473 0.0 -0.3330918471981024 0.0 -0.07381016056903114)
(0.4021653639495271 -0.0017064463156778473 0.0 -0.3330918471981024 0.0 -0.07381016056903114)
(0.3966529800771008 -0.0021140515144447082 0.0 -0.3330918471981024 0.0 -0.05588192726997779)
(0.3966529800771008 -0.0021140515144447082 0.0 -0.3330918471981024 0.0 -0.05588192726997779)
(0.39838232089606596 -0.0028179165343606575 0.0 -0.3330918471981025 0.0 -0.07106875022800191)
(0.39838232089606596 -0.0028179165343606575 0.0 -0.3330918471981025 0.0 -0.07106875022800191)
(0.405239381725119 -0.0035183814262784168 0.0 -0.3330918471981025 0.0 -0.08393897254660132)
(0.405239381725119 -0.0035183814262784168 0.0 -0.3330918471981025 0.0 -0.08393897254660132)
(0.40529382988882956 -0.004302794380655043 0.0 -0.3330886939688747 0.0 -0.08394369253411856)
(0.40529382988882956 -0.004302794380655043 0.0 -0.3330886939688747 0.0 -0.08394369253411856)
(0.4213641759687857 -0.004980648351836528 0.0 -0.33308392498556766 0.0 -0.0850793309876168)
(0.4213641759687857 -0.004980648351836528 0.0 -0.33308392498556766 0.0 -0.0850793309876168)
(0.4308431330029219 -0.005433835691431841 0.0 -0.3326893557785673 0.0 -0.08538954299788944)
(0.4308431330029219 -0.005433835691431841 0.0 -0.3326893557785673 0.0 -0.08538954299788944)
(0.43106117574963365 -0.005893935005151681 0.0 -0.33230789617028295 0.0 -0.08567875202302425)
(0.43106117574963365 -0.005893935005151681 0.0 -0.33230789617028295 0.0 -0.08567875202302425)
(0.4310611757498076 -0.006507503260805431 0.0 -0.3322928716780327 0.0 -0.08583919813605691)
(0.4310611757498076 -0.006507503260805431 0.0 -0.3322928716780327 0.0 -0.08583919813605691)
(0.4310611764936926 -0.007054435334062567 0.0 -0.3322795912799388 0.0 -0.08634818006372519)
(0.4310611764936926 -0.007054435334062567 0.0 -0.3322795912799388 0.0 -0.08634818006372519)
(0.43132546418899986 -0.007580984447553461 0.0 -0.3322795912799388 0.0 -0.09397133978616429)
(0.43132546418899986 -0.007580984447553461 0.0 -0.3322795912799388 0.0 -0.09397133978616429)
(0.4336847538357312 -0.008278885143821866 0.0 -0.3322795912799387 0.0 -0.10911290354795268)
(0.4336847538357312 -0.008278885143821866 0.0 -0.3322795912799387 0.0 -0.10911290354795268)
(0.43462224897603885 -0.009032908405504582 0.0 -0.3322795912899517 0.0 -0.11040332301724864)
(0.43462224897603885 -0.009032908405504582 0.0 -0.3322795912899517 0.0 -0.11040332301724864)
(0.4351310789180659 -0.009313671968990841 0.0 -0.3322416341152876 0.0 -0.11080753993790488)
(0.4351310789180659 -0.009313671968990841 0.0 -0.3322416341152876 0.0 -0.11080753993790488)
(0.4456983964941053 -0.010281587018326563 0.0 -0.33168996970206444 0.0 -0.11138790787766939)
(0.4456983964941053 -0.010281587018326563 0.0 -0.33168996970206444 0.0 -0.11138790787766939)
(0.4507923758101699 -0.010748455745943136 0.0 -0.33133617463606896 0.0 -0.11144614942352722)
(0.4507923758101699 -0.010748455745943136 0.0 -0.33133617463606896 0.0 -0.11144614942352722)
(0.45263432440907053 -0.011077150413507025 0.0 -0.33130744152292246 0.0 -0.12122810331891265)
(0.45263432440907053 -0.011077150413507025 0.0 -0.33130744152292246 0.0 -0.12122810331891265)
(0.45842481777308797 -0.011975674801920707 0.0 -0.3312457320629931 0.0 -0.1424294938450342)
(0.45842481777308797 -0.011975674801920707 0.0 -0.3312457320629931 0.0 -0.1424294938450342)
(0.46473352402937296 -0.0127474703137684 0.0 -0.3312184115162723 0.0 -0.14631463488739038)
(0.46473352402937296 -0.0127474703137684 0.0 -0.3312184115162723 0.0 -0.14631463488739038)
(0.4712418667683398 -0.013409029412055693 0.0 -0.3312145469033007 0.0 -0.14632498587264375)
(0.4712418667683398 -0.013409029412055693 0.0 -0.3312145469033007 0.0 -0.14632498587264375)
(0.4793832984071409 -0.014078839538036599 0.0 -0.33119543657163636 0.0 -0.1468099062537909)
(0.4793832984071409 -0.014078839538036599 0.0 -0.33119543657163636 0.0 -0.1468099062537909)
(0.4816475138342499 -0.01476131793151169 0.0 -0.33113528136625403 0.0 -0.14747022733927118)
(0.4816475138342499 -0.01476131793151169 0.0 -0.33113528136625403 0.0 -0.14747022733927118)
(0.48172968375281633 -0.01541994566453729 0.0 -0.3303956046064915 0.0 -0.1476706047437762)
(0.48172968375281633 -0.01541994566453729 0.0 -0.3303956046064915 0.0 -0.1476706047437762)
(0.4822289056312079 -0.016192420420444043 0.0 -0.33005610237139127 0.0 -0.14910662200517483)
(0.4822289056312079 -0.016192420420444043 0.0 -0.33005610237139127 0.0 -0.14910662200517483)
(0.4822436147414435 -0.017016038140635778 0.0 -0.33003739091718814 0.0 -0.15676269946433888)
(0.4822436147414435 -0.017016038140635778 0.0 -0.33003739091718814 0.0 -0.15676269946433888)
(0.4828999200521083 -0.017767027061324974 0.0 -0.33003032101487767 0.0 -0.16410758992734933)
(0.4828999200521083 -0.017767027061324974 0.0 -0.33003032101487767 0.0 -0.16410758992734933)
(0.48408281693677035 -0.018482940635026104 0.0 -0.33000221987624423 0.0 -0.1657744809426532)
(0.48408281693677035 -0.018482940635026104 0.0 -0.33000221987624423 0.0 -0.1657744809426532)
(0.4870426121328088 -0.01921636973047396 0.0 -0.3299706186477883 0.0 -0.166420949772067)
(0.4870426121328088 -0.01921636973047396 0.0 -0.3299706186477883 0.0 -0.166420949772067)
(0.49249620947314854 -0.0198676251691659 0.0 -0.32991486572930523 0.0 -0.1670919045926224)
(0.49249620947314854 -0.0198676251691659 0.0 -0.32991486572930523 0.0 -0.1670919045926224)
(0.49909877670722447 -0.020632593352469843 0.0 -0.32900919066620365 0.0 -0.16709259584777925)
(0.49909877670722447 -0.020632593352469843 0.0 -0.32900919066620365 0.0 -0.16709259584777925)
(0.5029809980967161 -0.021297042887901414 0.0 -0.3286616332436022 0.0 -0.16709259584777927)
(0.5029809980967161 -0.021297042887901414 0.0 -0.3286616332436022 0.0 -0.16709259584777927)
(0.5034421442276268 -0.022066105062426688 0.0 -0.32866094607633034 0.0 -0.16709259584777925)
(0.5034421442276268 -0.022066105062426688 0.0 -0.32866094607633034 0.0 -0.16709259584777925)
(0.5035403988673104 -0.022727691303378438 0.0 -0.3286421821014239 0.0 -0.16709317501236548)
(0.5035403988673104 -0.022727691303378438 0.0 -0.3286421821014239 0.0 -0.16709317501236548)
(0.50398481824733 -0.02349763079739853 0.0 -0.3286062155317409 0.0 -0.16736410479316777)
(0.50398481824733 -0.02349763079739853 0.0 -0.3286062155317409 0.0 -0.16736410479316777)
(0.5054575831287597 -0.024284623255547373 0.0 -0.3285984797141762 0.0 -0.16908134984852208)
(0.5054575831287597 -0.024284623255547373 0.0 -0.3285984797141762 0.0 -0.16908134984852208)
(0.506315694306297 -0.025076396236258375 0.0 -0.3284877301495156 0.0 -0.17464068592836654)
(0.506315694306297 -0.025076396236258375 0.0 -0.3284877301495156 0.0 -0.17464068592836654)
(0.506461111018061 -0.025858324607798962 0.0 -0.32759034312967006 0.0 -0.18270585081270302)
(0.506461111018061 -0.025858324607798962 0.0 -0.32759034312967006 0.0 -0.18270585081270302)
(0.5070263924169399 -0.026626386704404138 0.0 -0.32714455751574834 0.0 -0.18639223993118312)
(0.5070263924169399 -0.026626386704404138 0.0 -0.32714455751574834 0.0 -0.18639223993118312)
(0.5073191030377083 -0.027378626711207745 0.0 -0.32713179078174914 0.0 -0.18700428749065967)
(0.5073191030377083 -0.027378626711207745 0.0 -0.32713179078174914 0.0 -0.18700428749065967)
(0.5073587143756391 -0.02814895806498053 0.0 -0.32709874932704347 0.0 -0.18700833159222147)
(0.5073587143756391 -0.02814895806498053 0.0 -0.32709874932704347 0.0 -0.18700833159222147)
(0.5074116654637576 -0.02891183044821745 0.0 -0.32705460474625786 0.0 -0.18700833159222147)
(0.5074116654637576 -0.02891183044821745 0.0 -0.32705460474625786 0.0 -0.18700833159222147)
(0.5074197754253944 -0.02969498381160657 0.0 -0.3270421777790674 0.0 -0.18700833159225902)
(0.5074197754253944 -0.02969498381160657 0.0 -0.3270421777790674 0.0 -0.18700833159225902)
(0.508545378788464 -0.03049261686589676 0.0 -0.3267497631047263 0.0 -0.18703225922834468)
(0.508545378788464 -0.03049261686589676 0.0 -0.3267497631047263 0.0 -0.18703225922834468)
(0.5153636868150673 -0.031316071888202554 0.0 -0.32560019959462866 0.0 -0.1886831797599768)
(0.5153636868150673 -0.031316071888202554 0.0 -0.32560019959462866 0.0 -0.1886831797599768)
(0.518802284694917 -0.032083113642819544 0.0 -0.32537149681375144 0.0 -0.19052900784946325)
(0.518802284694917 -0.032083113642819544 0.0 -0.32537149681375144 0.0 -0.19052900784946325)
(0.5197783582711392 -0.032856937851399565 0.0 -0.32535084180134444 0.0 -0.19119794285452762)
(0.5197783582711392 -0.032856937851399565 0.0 -0.32535084180134444 0.0 -0.19119794285452762)
(0.5205437435709038 -0.03363343629779281 0.0 -0.32529285661309704 0.0 -0.19128736661652193)
(0.5205437435709038 -0.03363343629779281 0.0 -0.32529285661309704 0.0 -0.19128736661652193)
(0.5206129320024383 -0.03444226431811162 0.0 -0.32528024264879046 0.0 -0.19128744280393697)
(0.5206129320024383 -0.03444226431811162 0.0 -0.32528024264879046 0.0 -0.19128744280393697)
(0.5212746483239596 -0.03521365825599544 0.0 -0.3248977566310945 0.0 -0.1913102081824587)
(0.5212746483239596 -0.03521365825599544 0.0 -0.3248977566310945 0.0 -0.1913102081824587)
(0.5230685835466483 -0.03611683727175686 0.0 -0.32377920134961385 0.0 -0.1915411808205586)
(0.5230685835466483 -0.03611683727175686 0.0 -0.32377920134961385 0.0 -0.1915411808205586)
(0.5252331172099463 -0.03698972759027955 0.0 -0.3235545874173657 0.0 -0.19298177905404523)
(0.5252331172099463 -0.03698972759027955 0.0 -0.3235545874173657 0.0 -0.19298177905404523)
(0.5256186889543097 -0.03759601045149399 0.0 -0.32351786146209555 0.0 -0.19609277416496504)
(0.5256186889543097 -0.03759601045149399 0.0 -0.32351786146209555 0.0 -0.19609277416496504)
(0.5257516072829551 -0.03861629367129504 0.0 -0.3234727236268489 0.0 -0.19922459688551813)
(0.5257516072829551 -0.03861629367129504 0.0 -0.3234727236268489 0.0 -0.19922459688551813)
(0.5258862624900584 -0.04013997006720888 0.0 -0.32346040391257425 0.0 -0.20087917814461276)
(0.5258862624900584 -0.04013997006720888 0.0 -0.32346040391257425 0.0 -0.20087917814461276)
(0.5271040505496065 -0.04075776446555295 0.0 -0.3232027084751285 0.0 -0.19875499210400624)
(0.5271040505496065 -0.04075776446555295 0.0 -0.3232027084751285 0.0 -0.19875499210400624)
(0.5273935353508628 -0.04108314908444984 0.0 -0.32288411843971787 0.0 -0.20139184251644338)
(0.5273935353508628 -0.04108314908444984 0.0 -0.32288411843971787 0.0 -0.20139184251644338)
(0.5273530684861838 -0.042153879851196153 0.0 -0.32245735932658315 0.0 -0.20485996495140815)
(0.5273530684861838 -0.042153879851196153 0.0 -0.32245735932658315 0.0 -0.20485996495140815)
(0.5272490275535522 -0.043010080627873544 0.0 -0.3218799762476474 0.0 -0.20508957143476936)
(0.5272490275535522 -0.043010080627873544 0.0 -0.3218799762476474 0.0 -0.20508957143476936)
(0.5252618341530653 -0.04318281790869291 0.0 -0.3213148389583237 0.0 -0.20580883912846232)
(0.5252618341530653 -0.04318281790869291 0.0 -0.3213148389583237 0.0 -0.20580883912846232)
(0.5144984594129041 -0.043718967527608024 0.0 -0.320964532075584 0.0 -0.20643739168141584)
(0.5144984594129041 -0.043718967527608024 0.0 -0.320964532075584 0.0 -0.20643739168141584)
(0.5086221846598599 -0.04609985868467633 0.0 -0.3182511100700583 0.0 -0.20437393366696494)
(0.5086221846598599 -0.04609985868467633 0.0 -0.3182511100700583 0.0 -0.20437393366696494)
(0.5035778546706503 -0.047437682339938406 0.0 -0.3121023217867209 0.0 -0.20379564128073274)
(0.5035778546706503 -0.047437682339938406 0.0 -0.3121023217867209 0.0 -0.20379564128073274)
(0.5058187151313869 -0.04760624616798964 0.0 -0.3104621891902221 0.0 -0.20390583222073247)
(0.5058187151313869 -0.04760624616798964 0.0 -0.3104621891902221 0.0 -0.20390583222073247)
(0.5092692391751023 -0.04764136820245958 0.0 -0.3116667450255993 0.0 -0.20409780208245099)
(0.5092692391751023 -0.04764136820245958 0.0 -0.3116667450255993 0.0 -0.20409780208245099)
(0.5104529560049227 -0.04777554804325242 0.0 -0.3129104048159173 0.0 -0.20402343228273756)
(0.5104529560049227 -0.04777554804325242 0.0 -0.3129104048159173 0.0 -0.20402343228273756)
(0.5104892407629041 -0.04915406120224821 0.0 -0.3132220073527346 0.0 -0.20387469587972765)
(0.5104892407629041 -0.04915406120224821 0.0 -0.3132220073527346 0.0 -0.20387469587972765)
(0.5107540767465962 -0.05054884584199036 0.0 -0.3132274726231583 0.0 -0.20415909691989614)
(0.5107540767465962 -0.05054884584199036 0.0 -0.3132274726231583 0.0 -0.20415909691989614)
(0.5112266704112255 -0.05075305539176238 0.0 -0.3134282554093623 0.0 -0.20568509215063077)
(0.5112266704112255 -0.05075305539176238 0.0 -0.3134282554093623 0.0 -0.20568509215063077)
(0.5140218287085901 -0.05075968445496347 0.0 -0.3152347359034987 0.0 -0.2057736262711959)
(0.5140218287085901 -0.05075968445496347 0.0 -0.3152347359034987 0.0 -0.2057736262711959)
(0.5183074641604138 -0.050763303735183 0.0 -0.3157922800756134 0.0 -0.20563933322534575)
(0.5183074641604138 -0.050763303735183 0.0 -0.3157922800756134 0.0 -0.20563933322534575)
(0.5184439434941458 -0.05077023399236266 0.0 -0.3158042322502131 0.0 -0.20556393591281352)
(0.5184439434941458 -0.05077023399236266 0.0 -0.3158042322502131 0.0 -0.20556393591281352)
(0.5183775275406217 -0.05077057440324994 0.0 -0.31580425228921394 0.0 -0.2055542469529521)
(0.5183775275406217 -0.05077057440324994 0.0 -0.31580425228921394 0.0 -0.2055542469529521)
(0.5185903370578004 -0.05076813174028572 0.0 -0.31580425228921394 0.0 -0.20558826892306617)
(0.5185903370578004 -0.05076813174028572 0.0 -0.31580425228921394 0.0 -0.20558826892306617)
(0.5189929231136261 -0.050760439663155084 0.0 -0.31580425228921394 0.0 -0.20568951987325487)
(0.5189929231136261 -0.050760439663155084 0.0 -0.31580425228921394 0.0 -0.20568951987325487)
(0.5191734086263484 -0.050771184136134545 0.0 -0.31580425228921394 0.0 -0.20579206333148556)
(0.5191734086263484 -0.050771184136134545 0.0 -0.31580425228921394 0.0 -0.20579206333148556)
(0.5192121449057648 -0.05101402109826081 0.0 -0.3158042522892139 0.0 -0.20590687025323037)
(0.5192121449057648 -0.05101402109826081 0.0 -0.3158042522892139 0.0 -0.20590687025323037)
(0.5193364878075716 -0.05153787233170109 0.0 -0.31580425228921394 0.0 -0.20610882993478782)
(0.5193364878075716 -0.05153787233170109 0.0 -0.31580425228921394 0.0 -0.20610882993478782)
(0.519905356912032 -0.05149214928924057 0.0 -0.31580425228921405 0.0 -0.2062858252972826)
(0.519905356912032 -0.05149214928924057 0.0 -0.31580425228921405 0.0 -0.2062858252972826)
(0.5196017812796295 -0.05074859437328765 0.0 -0.3158042523072886 0.0 -0.20629131520423843)
(0.5196017812796295 -0.05074859437328765 0.0 -0.3158042523072886 0.0 -0.20629131520423843)
(0.5191001389367231 -0.049601426154548794 0.0 -0.3158034108278556 0.0 -0.20629279213607646)
(0.5191001389367231 -0.049601426154548794 0.0 -0.3158034108278556 0.0 -0.20629279213607646)
(0.5189603582958021 -0.04899916273039059 0.0 -0.31575249670488836 0.0 -0.20635349960540822)
(0.5189603582958021 -0.04899916273039059 0.0 -0.31575249670488836 0.0 -0.20635349960540822)
(0.5189314628906257 -0.0510416439906779 0.0 -0.3154851809664062 0.0 -0.20655205577209515)
(0.5189314628906257 -0.0510416439906779 0.0 -0.3154851809664062 0.0 -0.20655205577209515)
(0.5187168586342955 -0.05531959117808646 0.0 -0.3152676648100431 0.0 -0.2066074578514875)
(0.5187168586342955 -0.05531959117808646 0.0 -0.3152676648100431 0.0 -0.2066074578514875)
(0.5185092404180919 -0.05726519146971448 0.0 -0.31538570971147933 0.0 -0.2066087359064876)
(0.5185092404180919 -0.05726519146971448 0.0 -0.31538570971147933 0.0 -0.2066087359064876)
(0.5166311972048172 -0.05758702939026738 0.0 -0.3162483473609714 0.0 -0.2066017583646488)
(0.5166311972048172 -0.05758702939026738 0.0 -0.3162483473609714 0.0 -0.2066017583646488)
(0.511766675689947 -0.05783717038214757 0.0 -0.31769371579071254 0.0 -0.20495562155073796)
(0.511766675689947 -0.05783717038214757 0.0 -0.31769371579071254 0.0 -0.20495562155073796)
(0.5080667968249017 -0.058419334231259695 0.0 -0.318966991097036 0.0 -0.19454097460964737)
(0.5080667968249017 -0.058419334231259695 0.0 -0.318966991097036 0.0 -0.19454097460964737)
(0.5049374816302281 -0.0593753289647754 0.0 -0.3195889697543266 0.0 -0.19159969864506032)
(0.5049374816302281 -0.0593753289647754 0.0 -0.3195889697543266 0.0 -0.19159969864506032)
(0.5028887030221908 -0.05987212332008691 0.0 -0.31984558851049244 0.0 -0.19290983153924468)
(0.5028887030221908 -0.05987212332008691 0.0 -0.31984558851049244 0.0 -0.19290983153924468)
(0.5024647541448712 -0.05965153914387396 0.0 -0.3200923531609616 0.0 -0.19484470299508397)
(0.5024647541448712 -0.05965153914387396 0.0 -0.3200923531609616 0.0 -0.19484470299508397)
(0.5035974375631453 -0.05952886113058795 0.0 -0.3201732222046837 0.0 -0.19751297183424246)
(0.5035974375631453 -0.05952886113058795 0.0 -0.3201732222046837 0.0 -0.19751297183424246)
(0.5036994258622151 -0.05895925118251921 0.0 -0.32023622995805734 0.0 -0.1999691457698213)
(0.5036994258622151 -0.05895925118251921 0.0 -0.32023622995805734 0.0 -0.1999691457698213)
(0.4981250802816168 -0.05875675457728604 0.0 -0.320184095108445 0.0 -0.20096384870474635)
(0.4981250802816168 -0.05875675457728604 0.0 -0.320184095108445 0.0 -0.20096384870474635)
(0.4870557403293523 -0.059395789220160755 0.0 -0.31997582065551045 0.0 -0.20115224908895224)
(0.4870557403293523 -0.059395789220160755 0.0 -0.31997582065551045 0.0 -0.20115224908895224)
(0.48044190248635354 -0.05852086900263428 0.0 -0.31964199163971124 0.0 -0.20172825911476971)
(0.48044190248635354 -0.05852086900263428 0.0 -0.31964199163971124 0.0 -0.20172825911476971)
(0.47629019999065253 -0.05518883768050881 0.0 -0.31934235293461133 0.0 -0.2046746396365514)
(0.47629019999065253 -0.05518883768050881 0.0 -0.31934235293461133 0.0 -0.2046746396365514)
(0.472827228455177 -0.05116885486735267 0.0 -0.3191722430508136 0.0 -0.21119296479094185)
(0.472827228455177 -0.05116885486735267 0.0 -0.3191722430508136 0.0 -0.21119296479094185)
(0.4703673122141711 -0.0473021544392061 0.0 -0.31980009154086214 0.0 -0.2170494062587058)
(0.4703673122141711 -0.0473021544392061 0.0 -0.31980009154086214 0.0 -0.2170494062587058)
(0.46983996886744056 -0.04513668186287813 0.0 -0.3201466679122719 0.0 -0.21901374432913204)
(0.46983996886744056 -0.04513668186287813 0.0 -0.3201466679122719 0.0 -0.21901374432913204)
(0.4721230549096572 -0.044015232378634604 0.0 -0.3196808150295325 0.0 -0.21920853881470378)
(0.4721230549096572 -0.044015232378634604 0.0 -0.3196808150295325 0.0 -0.21920853881470378)
(0.4752333974988746 -0.04316085150286221 0.0 -0.31917177337582836 0.0 -0.21931670252916097)
(0.4752333974988746 -0.04316085150286221 0.0 -0.31917177337582836 0.0 -0.21931670252916097)
(0.4791133346520073 -0.042763720359223774 0.0 -0.31894717896846236 0.0 -0.21935465982840405)
(0.4791133346520073 -0.042763720359223774 0.0 -0.31894717896846236 0.0 -0.21935465982840405)
(0.48306442719662857 -0.04273280244446958 0.0 -0.318850833222366 0.0 -0.2192041097998753)
(0.48306442719662857 -0.04273280244446958 0.0 -0.318850833222366 0.0 -0.2192041097998753)
(0.4863018424386089 -0.042673991964953285 0.0 -0.31868386203006327 0.0 -0.2191467154174954)
(0.4863018424386089 -0.042673991964953285 0.0 -0.31868386203006327 0.0 -0.2191467154174954)
(0.49194202289492533 -0.042705959027165535 0.0 -0.3172777253411787 0.0 -0.2186059352920349)
(0.49194202289492533 -0.042705959027165535 0.0 -0.3172777253411787 0.0 -0.2186059352920349)
(0.5031502343799489 -0.04283091213067 0.0 -0.3003006818147503 0.0 -0.21103884102899137)
(0.5031502343799489 -0.04283091213067 0.0 -0.3003006818147503 0.0 -0.21103884102899137)
(0.513836562154749 -0.04298634275791432 0.0 -0.27933133489019313 0.0 -0.20017327651415)
(0.513836562154749 -0.04298634275791432 0.0 -0.27933133489019313 0.0 -0.20017327651415)
(0.5239157127871518 -0.04347974313733358 0.0 -0.27681403736634486 0.0 -0.19880557632714219)
(0.5239157127871518 -0.04347974313733358 0.0 -0.27681403736634486 0.0 -0.19880557632714219)
(0.5332853320265145 -0.04408481814744998 0.0 -0.27652199764662216 0.0 -0.1986256402846007)
(0.5332853320265145 -0.04408481814744998 0.0 -0.27652199764662216 0.0 -0.1986256402846007)
(0.5372878254604526 -0.044431544073012086 0.0 -0.2755794620182419 0.0 -0.19793021347605)
(0.5372878254604526 -0.044431544073012086 0.0 -0.2755794620182419 0.0 -0.19793021347605)
(0.5356399393163598 -0.045309250043873414 0.0 -0.27389862172324486 0.0 -0.19670717178151798)
(0.5356399393163598 -0.045309250043873414 0.0 -0.27389862172324486 0.0 -0.19670717178151798)
(0.5323104297449788 -0.04823737667682068 0.0 -0.2712082981540951 0.0 -0.19473348206557242)
(0.5323104297449788 -0.04823737667682068 0.0 -0.2712082981540951 0.0 -0.19473348206557242)
(0.5273016676681828 -0.05134374534786159 0.0 -0.2689214464060209 0.0 -0.19325307333099098)
(0.5273016676681828 -0.05134374534786159 0.0 -0.2689214464060209 0.0 -0.19325307333099098)
(0.5224450599389542 -0.05545740515579223 0.0 -0.2670861907330076 0.0 -0.1921500562252326)
(0.5224450599389542 -0.05545740515579223 0.0 -0.2670861907330076 0.0 -0.1921500562252326)
(0.5133260871374368 -0.06049057992218014 0.0 -0.2656936766592847 0.0 -0.19047361142236982)
(0.5133260871374368 -0.06049057992218014 0.0 -0.2656936766592847 0.0 -0.19047361142236982)
(0.4984255915670231 -0.06825047659846883 0.0 -0.2604519311522506 0.0 -0.17218930939815155)
(0.4984255915670231 -0.06825047659846883 0.0 -0.2604519311522506 0.0 -0.17218930939815155)
(0.4827153583309566 -0.07663213093630517 0.0 -0.24932240982563633 0.0 -0.1386834878114361)
(0.4827153583309566 -0.07663213093630517 0.0 -0.24932240982563633 0.0 -0.1386834878114361)
(0.47305009869642284 -0.08421710571760957 0.0 -0.24547552987321222 0.0 -0.13180004977295165)
(0.47305009869642284 -0.08421710571760957 0.0 -0.24547552987321222 0.0 -0.13180004977295165)
(0.4599246793998552 -0.09094389929411423 0.0 -0.24429863291206202 0.0 -0.1311190352745436)
(0.4599246793998552 -0.09094389929411423 0.0 -0.24429863291206202 0.0 -0.1311190352745436)
(0.44241525340292753 -0.09773956053882404 0.0 -0.24315386453980709 0.0 -0.1310639910371464)
(0.44241525340292753 -0.09773956053882404 0.0 -0.24315386453980709 0.0 -0.1310639910371464)
(0.42767509778832064 -0.10591136794887548 0.0 -0.2404839169044689 0.0 -0.1310635023160816)
(0.42767509778832064 -0.10591136794887548 0.0 -0.2404839169044689 0.0 -0.1310635023160816)
(0.4145359829799535 -0.11050234704200398 0.0 -0.23862694320588823 0.0 -0.13106350231652492)
(0.4145359829799535 -0.11050234704200398 0.0 -0.23862694320588823 0.0 -0.13106350231652492)
(0.40203398580761496 -0.11219176715799781 0.0 -0.238105255654676 0.0 -0.13106350231775676)
(0.40203398580761496 -0.11219176715799781 0.0 -0.238105255654676 0.0 -0.13106350231775676)
(0.391910573658478 -0.11305243468362813 0.0 -0.2376057272080776 0.0 -0.13107020702685934)
(0.391910573658478 -0.11305243468362813 0.0 -0.2376057272080776 0.0 -0.13107020702685934)
(0.3851532770460171 -0.11322523714235494 0.0 -0.237031211280329 0.0 -0.13229004307194936)
(0.3851532770460171 -0.11322523714235494 0.0 -0.237031211280329 0.0 -0.13229004307194936)
(0.3576962206093207 -0.11332348670971833 0.0 -0.23594962594516947 0.0 -0.14635291088027108)
(0.3576962206093207 -0.11332348670971833 0.0 -0.23594962594516947 0.0 -0.14635291088027108)
(0.3292332398718613 -0.11367395150356384 0.0 -0.2348204657609802 0.0 -0.1600729435580211)
(0.3292332398718613 -0.11367395150356384 0.0 -0.2348204657609802 0.0 -0.1600729435580211)
(0.31953234709024597 -0.1142472141509848 0.0 -0.23244564863636824 0.0 -0.16038439296126045)
(0.31953234709024597 -0.1142472141509848 0.0 -0.23244564863636824 0.0 -0.16038439296126045)
(0.30962175495285094 -0.11437281360917399 0.0 -0.22725621952421785 0.0 -0.15875526613576754)
(0.30962175495285094 -0.11437281360917399 0.0 -0.22725621952421785 0.0 -0.15875526613576754)
(0.2966586634014832 -0.11441927489312878 0.0 -0.22224700706304099 0.0 -0.1569361069351276)
(0.2966586634014832 -0.11441927489312878 0.0 -0.22224700706304099 0.0 -0.1569361069351276)
(0.2863502300750422 -0.11451181213077757 0.0 -0.2191917788249865 0.0 -0.154606126840582)
(0.2863502300750422 -0.11451181213077757 0.0 -0.2191917788249865 0.0 -0.154606126840582)
(0.26625039913182147 -0.11482310918995374 0.0 -0.2168484723945471 0.0 -0.15343146950389278)
(0.26625039913182147 -0.11482310918995374 0.0 -0.2168484723945471 0.0 -0.15343146950389278)
(0.2484659669997195 -0.11529379745142138 0.0 -0.2133211555200796 0.0 -0.1520041673695256)
(0.2484659669997195 -0.11529379745142138 0.0 -0.2133211555200796 0.0 -0.1520041673695256)
(0.24308191184726066 -0.11574031513866967 0.0 -0.21071764641320967 0.0 -0.13122005127286604)
(0.24308191184726066 -0.11574031513866967 0.0 -0.21071764641320967 0.0 -0.13122005127286604)
(0.24049495402055265 -0.11595315514289811 0.0 -0.21022207903928253 0.0 -0.08820902905445843)
(0.24049495402055265 -0.11595315514289811 0.0 -0.21022207903928253 0.0 -0.08820902905445843)
(0.23769741201932157 -0.1160522504922057 0.0 -0.20987401689599625 0.0 -0.07959617273749975)
(0.23769741201932157 -0.1160522504922057 0.0 -0.20987401689599625 0.0 -0.07959617273749975)
(0.2356379689736962 -0.11607648528613534 0.0 -0.20955718012378796 0.0 -0.07946212504171002)
(0.2356379689736962 -0.11607648528613534 0.0 -0.20955718012378796 0.0 -0.07946212504171002)
(0.23381379079837303 -0.1160772105650712 0.0 -0.20929260486797624 0.0 -0.07946212514959436)
(0.23381379079837303 -0.1160772105650712 0.0 -0.20929260486797624 0.0 -0.07946212514959436)
(0.23226352011898677 -0.11607721057648826 0.0 -0.20891883636809608 0.0 -0.07946212514959437)
(0.23226352011898677 -0.11607721057648826 0.0 -0.20891883636809608 0.0 -0.07946212514959437)
(0.23164493670831746 -0.11607721057648822 0.0 -0.20840048421555288 0.0 -0.07946212514959436)
(0.23164493670831746 -0.11607721057648822 0.0 -0.20840048421555288 0.0 -0.07946212514959436)
(0.2312369945130255 -0.11607721057648823 0.0 -0.20762099645151028 0.0 -0.07946212514959439)
(0.2312369945130255 -0.11607721057648823 0.0 -0.20762099645151028 0.0 -0.07946212514959439)
(0.23079429869883125 -0.1160772105764882 0.0 -0.20709391425664223 0.0 -0.07946212514959437)
(0.23079429869883125 -0.1160772105764882 0.0 -0.20709391425664223 0.0 -0.07946212514959437)
(0.2305965225722124 -0.11607721057648825 0.0 -0.20688835528319907 0.0 -0.07946212514959439)
(0.2305965225722124 -0.11607721057648825 0.0 -0.20688835528319907 0.0 -0.07946212514959439)
(0.23058447467994356 -0.11607721057648822 0.0 -0.2068444953239681 0.0 -0.07946212514959437)
(0.23058447467994356 -0.11607721057648822 0.0 -0.2068444953239681 0.0 -0.07946212514959437)
(0.23058442615759034 -0.11607721057648823 0.0 -0.206707701180518 0.0 -0.07946212514959437)
(0.23058442615759034 -0.11607721057648823 0.0 -0.206707701180518 0.0 -0.07946212514959437)
(0.23058442615759017 -0.11607721057648825 0.0 -0.20656972765090686 0.0 -0.07946212514959437)
(0.23058442615759017 -0.11607721057648825 0.0 -0.20656972765090686 0.0 -0.07946212514959437)
(0.23058442615759026 -0.11607721057648823 0.0 -0.20630561909903009 0.0 -0.07946212514959439)
(0.23058442615759026 -0.11607721057648823 0.0 -0.20630561909903009 0.0 -0.07946212514959439)
(0.23058442615759028 -0.11607721057648825 0.0 -0.20600864441687092 0.0 -0.0794621251495944)
(0.23058442615759028 -0.11607721057648825 0.0 -0.20600864441687092 0.0 -0.0794621251495944)
(0.23058442615759026 -0.11607721057648826 0.0 -0.20579522164410796 0.0 -0.07946212514959437)
(0.23058442615759026 -0.11607721057648826 0.0 -0.20579522164410796 0.0 -0.07946212514959437)
(0.2305844261575902 -0.11607721057648823 0.0 -0.20529675230152317 0.0 -0.07946212514959437)
(0.2305844261575902 -0.11607721057648823 0.0 -0.20529675230152317 0.0 -0.07946212514959437)
(0.23058442615759026 -0.11607721057648825 0.0 -0.20417739689167885 0.0 -0.07946212514959439)
(0.23058442615759026 -0.11607721057648825 0.0 -0.20417739689167885 0.0 -0.07946212514959439)
(0.23058442615759026 -0.11607721057648825 0.0 -0.20295899843959941 0.0 -0.07946212514959439)
(0.23058442615759026 -0.11607721057648825 0.0 -0.20295899843959941 0.0 -0.07946212514959439)
(0.2305844261575902 -0.11607721057648823 0.0 -0.2019566092159766 0.0 -0.07946212514959439)