/*--------------------------------*- C++ -*----------------------------------*\
| =========                 |                                                 |
| \\      /  F ield         | OpenFOAM: The Open Source CFD Toolbox           |
|  \\    /   O peration     | Version:  2106                                  |
|   \\  /    A nd           | Website:  www.openfoam.com                      |
|    \\/     M anipulation  |                                                 |
\*---------------------------------------------------------------------------*/
FoamFile
{
    version     2.0;
    format      ascii;
    arch        "LSB;label=32;scalar=64";
    class       surfaceScalarField;
    location    "6000";
    object      phi;
}
// * * * * * * * * * * * * * * * * * * * * * * * * * * * * * * * * * * * * * //

dimensions      [0 3 -1 0 0 0 0];

oriented        oriented;

internalField   nonuniform List<scalar> 
5116
(
1.08473e-08
-7.90994e-18
-4.80586e-22
-8.93189e-22
-4.0963e-23
3.31735e-08
-7.90379e-18
-2.15413e-21
-4.60987e-21
-2.77641e-22
5.64727e-08
-7.8975e-18
-2.20157e-21
-8.39564e-21
-2.89873e-22
8.07789e-08
-7.89108e-18
-2.25693e-21
-1.2243e-20
-3.02601e-22
1.06127e-07
-7.88453e-18
-2.31357e-21
-1.61922e-20
-3.15843e-22
1.32554e-07
-7.87778e-18
-2.3707e-21
-2.02356e-20
-3.29618e-22
1.60096e-07
-7.87091e-18
-2.42899e-21
-2.43361e-20
-3.43945e-22
1.88793e-07
-7.86388e-18
-2.48866e-21
-2.85325e-20
-3.58845e-22
2.18684e-07
-7.85665e-18
-2.5497e-21
-3.28088e-20
-3.74337e-22
2.49811e-07
-7.84926e-18
-2.61211e-21
-3.71969e-20
-3.90445e-22
2.82215e-07
-7.84177e-18
-2.67595e-21
-4.15807e-20
-4.07189e-22
3.15942e-07
-7.8341e-18
-2.74125e-21
-4.60972e-20
-4.24592e-22
3.51035e-07
-7.8263e-18
-2.80805e-21
-5.07171e-20
-4.4268e-22
3.87543e-07
-7.8181e-18
-2.8764e-21
-5.55943e-20
-4.61475e-22
4.25513e-07
-7.80977e-18
-2.94634e-21
-6.0471e-20
-4.81002e-22
4.64995e-07
-7.80128e-18
-3.01789e-21
-6.54475e-20
-5.01285e-22
5.0604e-07
-7.79273e-18
-3.09111e-21
-7.0521e-20
-5.22354e-22
5.48702e-07
-7.78388e-18
-3.16603e-21
-7.57378e-20
-5.44233e-22
5.93035e-07
-7.77473e-18
-3.2427e-21
-8.11376e-20
-5.66948e-22
6.39096e-07
-7.7653e-18
-3.32116e-21
-8.67426e-20
-5.90528e-22
6.86942e-07
-7.75574e-18
-3.40144e-21
-9.2219e-20
-6.15004e-22
7.36634e-07
-7.74598e-18
-3.4836e-21
-9.78867e-20
-6.40408e-22
7.88233e-07
-7.73625e-18
-3.56767e-21
-1.03473e-19
-6.66766e-22
8.41803e-07
-7.72606e-18
-3.65369e-21
-1.09302e-19
-6.94114e-22
8.97409e-07
-7.71554e-18
-3.7417e-21
-1.15351e-19
-7.2248e-22
9.55119e-07
-7.70514e-18
-3.83175e-21
-1.21343e-19
-7.51895e-22
1.015e-06
-7.69379e-18
-3.92385e-21
-1.27788e-19
-7.82393e-22
1.07713e-06
-7.68255e-18
-4.01807e-21
-1.34288e-19
-8.13994e-22
1.14158e-06
-7.67091e-18
-4.11443e-21
-1.40725e-19
-8.46727e-22
1.20841e-06
-7.65904e-18
-4.21297e-21
-1.47255e-19
-8.80616e-22
1.27772e-06
-7.64682e-18
-4.3137e-21
-1.54034e-19
-9.15693e-22
1.34957e-06
-7.6344e-18
-4.41666e-21
-1.61308e-19
-9.51988e-22
1.42406e-06
-7.6219e-18
-4.52184e-21
-1.6844e-19
-9.8952e-22
1.50125e-06
-7.60902e-18
-4.62926e-21
-1.75588e-19
-1.02832e-21
1.58124e-06
-7.59522e-18
-4.7389e-21
-1.83373e-19
-1.06839e-21
1.66411e-06
-7.58179e-18
-4.85077e-21
-1.90959e-19
-1.10976e-21
1.74995e-06
-7.56815e-18
-4.96482e-21
-1.98394e-19
-1.15245e-21
1.83884e-06
-7.55424e-18
-5.08099e-21
-2.06145e-19
-1.19645e-21
1.93087e-06
-7.54029e-18
-5.19922e-21
-2.13796e-19
-1.24176e-21
2.02614e-06
-7.52636e-18
-5.31942e-21
-2.21484e-19
-1.28841e-21
2.12473e-06
-7.51202e-18
-5.44147e-21
-2.28917e-19
-1.33638e-21
2.22674e-06
-7.49734e-18
-5.56522e-21
-2.37207e-19
-1.38567e-21
2.33224e-06
-7.48207e-18
-5.69053e-21
-2.4526e-19
-1.43622e-21
2.44134e-06
-7.46646e-18
-5.81724e-21
-2.53662e-19
-1.48801e-21
2.55413e-06
-7.45084e-18
-5.94512e-21
-2.61691e-19
-1.54099e-21
2.67068e-06
-7.43439e-18
-6.07391e-21
-2.69939e-19
-1.59508e-21
2.79108e-06
-7.41808e-18
-6.20338e-21
-2.78289e-19
-1.65022e-21
2.91542e-06
-7.40134e-18
-6.3332e-21
-2.86863e-19
-1.70632e-21
3.04377e-06
-7.38417e-18
-6.46304e-21
-2.95697e-19
-1.76327e-21
3.17622e-06
-7.36738e-18
-6.5925e-21
-3.04851e-19
-1.82097e-21
3.31283e-06
-7.34934e-18
-6.72116e-21
-3.13746e-19
-1.8793e-21
3.45367e-06
-7.33093e-18
-6.84862e-21
-3.23222e-19
-1.93815e-21
3.5988e-06
-7.31219e-18
-6.97442e-21
-3.3264e-19
-1.99738e-21
3.74829e-06
-7.29337e-18
-7.09807e-21
-3.42556e-19
-2.05683e-21
3.90219e-06
-7.27392e-18
-7.21905e-21
-3.53011e-19
-2.11633e-21
4.06053e-06
-7.25444e-18
-7.3369e-21
-3.62779e-19
-2.1757e-21
4.22337e-06
-7.23517e-18
-7.4511e-21
-3.74088e-19
-2.23478e-21
4.39074e-06
-7.21421e-18
-7.5612e-21
-3.85148e-19
-2.29337e-21
4.56267e-06
-7.19538e-18
-7.66683e-21
-3.9399e-19
-2.35128e-21
4.73917e-06
-7.17605e-18
-7.76744e-21
-4.03982e-19
-2.4084e-21
4.92028e-06
-7.15628e-18
-7.8627e-21
-4.13949e-19
-2.46453e-21
5.106e-06
-7.13544e-18
-7.95223e-21
-4.2383e-19
-2.5195e-21
5.29633e-06
-7.11529e-18
-8.03576e-21
-4.33386e-19
-2.57314e-21
5.4913e-06
-7.09514e-18
-8.11297e-21
-4.42817e-19
-2.62526e-21
5.69089e-06
-7.07403e-18
-8.18366e-21
-4.53101e-19
-2.67572e-21
5.89511e-06
-7.05219e-18
-8.24777e-21
-4.63325e-19
-2.72438e-21
6.10395e-06
-7.03025e-18
-8.30519e-21
-4.73821e-19
-2.77106e-21
6.31741e-06
-7.00885e-18
-8.35585e-21
-4.83625e-19
-2.81573e-21
6.53549e-06
-6.98677e-18
-8.3997e-21
-4.94234e-19
-2.85829e-21
6.75818e-06
-6.96413e-18
-8.43684e-21
-5.04155e-19
-2.89864e-21
6.98548e-06
-6.93973e-18
-8.46742e-21
-5.16075e-19
-2.9368e-21
7.21739e-06
-6.91761e-18
-8.49172e-21
-5.2602e-19
-2.97263e-21
7.4539e-06
-6.8951e-18
-8.50982e-21
-5.36891e-19
-3.00621e-21
7.69503e-06
-6.87389e-18
-8.52195e-21
-5.47961e-19
-3.0374e-21
7.94078e-06
-6.85245e-18
-8.52823e-21
-5.60028e-19
-3.06616e-21
8.19117e-06
-6.82897e-18
-8.52907e-21
-5.71714e-19
-3.09235e-21
8.4462e-06
-6.8083e-18
-8.52489e-21
-5.81139e-19
-3.11615e-21
8.7059e-06
-6.78775e-18
-8.51593e-21
-5.90378e-19
-3.13766e-21
8.97028e-06
-6.76852e-18
-8.50218e-21
-6.00955e-19
-3.15697e-21
9.23939e-06
-6.74447e-18
-8.48375e-21
-6.11638e-19
-3.17411e-21
9.51325e-06
-6.72259e-18
-8.46159e-21
-6.22601e-19
-3.18906e-21
9.7919e-06
-6.70113e-18
-8.4356e-21
-6.31915e-19
-3.20192e-21
1.00754e-05
-6.6784e-18
-8.40588e-21
-6.42253e-19
-3.21315e-21
1.03637e-05
-6.65598e-18
-8.37304e-21
-6.53456e-19
-3.22234e-21
1.0657e-05
-6.63541e-18
-8.33695e-21
-6.63375e-19
-3.22951e-21
1.09553e-05
-6.61278e-18
-8.29779e-21
-6.72346e-19
-3.23486e-21
1.12586e-05
-6.59062e-18
-8.25581e-21
-6.8016e-19
-3.23873e-21
1.15671e-05
-6.5703e-18
-8.2112e-21
-6.9027e-19
-3.24105e-21
1.18807e-05
-6.54919e-18
-8.16385e-21
-7.00057e-19
-3.24182e-21
1.21995e-05
-6.52766e-18
-8.11421e-21
-7.10867e-19
-3.24091e-21
1.25237e-05
-6.50814e-18
-8.06292e-21
-7.18112e-19
-3.23823e-21
1.28533e-05
-6.48942e-18
-8.00961e-21
-7.26222e-19
-3.23446e-21
1.31884e-05
-6.47383e-18
-7.95447e-21
-7.31574e-19
-3.22892e-21
1.35291e-05
-6.45479e-18
-7.897e-21
-7.39229e-19
-3.22234e-21
1.38754e-05
-6.43627e-18
-7.83797e-21
-7.46392e-19
-3.21458e-21
1.42275e-05
-6.41929e-18
-7.77728e-21
-7.54491e-19
-3.20584e-21
1.45855e-05
-6.40044e-18
-7.71478e-21
-7.60853e-19
-3.19535e-21
1.49494e-05
-6.38021e-18
-7.65092e-21
-7.68974e-19
-3.18334e-21
1.53194e-05
-6.35321e-18
-7.58657e-21
-7.78394e-19
-3.16929e-21
1.56955e-05
-6.32566e-18
-7.52232e-21
-7.90414e-19
-3.15366e-21
1.60779e-05
-6.3011e-18
-7.45884e-21
-8.02458e-19
-3.1361e-21
1.64667e-05
-6.27156e-18
-7.39543e-21
-8.13915e-19
-3.11571e-21
1.6862e-05
-6.25501e-18
-7.33389e-21
-8.19728e-19
-3.09251e-21
1.72639e-05
-6.24423e-18
-7.27244e-21
-8.23427e-19
-3.06658e-21
1.76725e-05
-6.2267e-18
-7.20941e-21
-8.28516e-19
-3.0383e-21
1.8088e-05
-6.20981e-18
-7.14742e-21
-8.34407e-19
-3.0072e-21
1.85104e-05
-6.19502e-18
-7.08544e-21
-8.3695e-19
-2.97399e-21
1.89399e-05
-6.17905e-18
-7.02255e-21
-8.41537e-19
-2.94025e-21
1.93767e-05
-6.16165e-18
-6.95915e-21
-8.48825e-19
-2.90406e-21
1.98208e-05
-6.13909e-18
-6.89571e-21
-8.54939e-19
-2.86496e-21
2.02724e-05
-6.12276e-18
-6.83319e-21
-8.59247e-19
-2.82395e-21
2.07316e-05
-6.10884e-18
-6.77013e-21
-8.63576e-19
-2.78111e-21
2.11985e-05
-6.09626e-18
-6.70654e-21
-8.67473e-19
-2.7371e-21
2.16734e-05
-6.08772e-18
-6.64162e-21
-8.69932e-19
-2.69256e-21
2.21563e-05
-6.07411e-18
-6.57258e-21
-8.76471e-19
-2.64884e-21
2.26473e-05
-6.05718e-18
-6.50203e-21
-8.85693e-19
-2.60399e-21
2.31467e-05
-6.03547e-18
-6.42924e-21
-8.90628e-19
-2.55809e-21
2.36546e-05
-6.01238e-18
-6.35682e-21
-9.00861e-19
-2.51163e-21
2.4171e-05
-5.99736e-18
-6.28494e-21
-9.09295e-19
-2.46322e-21
2.46963e-05
-5.98275e-18
-6.21192e-21
-9.11865e-19
-2.41235e-21
2.52304e-05
-5.96607e-18
-6.13737e-21
-9.21333e-19
-2.36262e-21
2.57737e-05
-5.9511e-18
-6.0621e-21
-9.30477e-19
-2.31133e-21
2.63262e-05
-5.93523e-18
-5.98545e-21
-9.39201e-19
-2.25991e-21
2.68881e-05
-5.92058e-18
-5.90801e-21
-9.50366e-19
-2.21109e-21
2.74595e-05
-5.90501e-18
-5.83026e-21
-9.59282e-19
-2.16145e-21
2.80408e-05
-5.8893e-18
-5.75325e-21
-9.67384e-19
-2.1107e-21
2.86319e-05
-5.8743e-18
-5.67708e-21
-9.74159e-19
-2.05918e-21
2.9233e-05
-5.8599e-18
-5.60139e-21
-9.78245e-19
-2.00723e-21
2.98445e-05
-5.84075e-18
-5.5234e-21
-9.85768e-19
-1.95826e-21
3.04663e-05
-5.81672e-18
-5.44691e-21
-9.93054e-19
-1.90815e-21
3.10988e-05
-5.805e-18
-5.37207e-21
-9.89972e-19
-1.85605e-21
3.17421e-05
-5.79286e-18
-5.29429e-21
-9.96806e-19
-1.80178e-21
3.23963e-05
-5.78392e-18
-5.21526e-21
-9.98648e-19
-1.74269e-21
3.30617e-05
-5.77679e-18
-5.13235e-21
-9.98247e-19
-1.68162e-21
3.37384e-05
-5.75732e-18
-5.04675e-21
-1.00303e-18
-1.62153e-21
3.44267e-05
-5.75269e-18
-4.96589e-21
-1.00656e-18
-1.55533e-21
3.51268e-05
-5.74435e-18
-4.88401e-21
-1.01348e-18
-1.49181e-21
3.58387e-05
-5.73779e-18
-4.80114e-21
-1.01949e-18
-1.42273e-21
3.65628e-05
-5.73033e-18
-4.71524e-21
-1.01538e-18
-1.34985e-21
3.72993e-05
-5.706e-18
-4.62616e-21
-1.02277e-18
-1.28111e-21
3.80483e-05
-5.69908e-18
-4.54444e-21
-1.03175e-18
-1.20699e-21
3.881e-05
-5.68203e-18
-4.4569e-21
-1.03856e-18
-1.12977e-21
3.95848e-05
-5.67164e-18
-4.37379e-21
-1.04773e-18
-1.05272e-21
4.03727e-05
-5.65829e-18
-4.28682e-21
-1.05511e-18
-9.74199e-22
4.11741e-05
-5.64631e-18
-4.20308e-21
-1.0594e-18
-8.9021e-22
4.1989e-05
-5.62559e-18
-4.11662e-21
-1.07978e-18
-8.10065e-22
4.28179e-05
-5.60613e-18
-4.03007e-21
-1.09253e-18
-7.31155e-22
4.36608e-05
-5.58861e-18
-3.94472e-21
-1.10327e-18
-6.57633e-22
4.45181e-05
-5.57679e-18
-3.86205e-21
-1.1025e-18
-5.83984e-22
4.53899e-05
-5.56533e-18
-3.78283e-21
-1.11751e-18
-5.14469e-22
4.62765e-05
-5.5533e-18
-3.69887e-21
-1.12263e-18
-4.47408e-22
4.71782e-05
-5.54416e-18
-3.61429e-21
-1.13101e-18
-3.8665e-22
4.80951e-05
-5.52931e-18
-3.5255e-21
-1.14334e-18
-3.25099e-22
4.90276e-05
-5.4967e-18
-3.44255e-21
-1.16325e-18
-2.58535e-22
4.99759e-05
-5.47712e-18
-3.38111e-21
-1.17564e-18
-1.77889e-22
5.09402e-05
-5.46566e-18
-3.32927e-21
-1.1865e-18
-9.28943e-23
5.19209e-05
-5.45511e-18
-3.28805e-21
-1.19045e-18
-3.19986e-24
5.29181e-05
-5.45217e-18
-3.24746e-21
-1.20068e-18
8.74149e-23
5.39322e-05
-5.42167e-18
-3.20447e-21
-1.21814e-18
1.82834e-22
5.49634e-05
-5.40475e-18
-3.17527e-21
-1.22868e-18
2.82966e-22
5.60121e-05
-5.3832e-18
-3.14632e-21
-1.23364e-18
3.81363e-22
5.70784e-05
-5.37514e-18
-3.11189e-21
-1.25505e-18
4.8329e-22
5.81627e-05
-5.36346e-18
-3.08574e-21
-1.26905e-18
6.05604e-22
5.92652e-05
-5.36e-18
-3.04811e-21
-1.26436e-18
7.22633e-22
6.03863e-05
-5.36197e-18
-3.00985e-21
-1.26927e-18
8.22339e-22
6.15263e-05
-5.34839e-18
-2.95175e-21
-1.28132e-18
9.00587e-22
6.26854e-05
-5.33203e-18
-2.87558e-21
-1.28297e-18
9.85585e-22
6.38639e-05
-5.31122e-18
-2.80235e-21
-1.29465e-18
1.03987e-21
6.50623e-05
-5.29205e-18
-2.71931e-21
-1.31301e-18
1.0998e-21
6.62807e-05
-5.28612e-18
-2.61957e-21
-1.31606e-18
1.17034e-21
6.75196e-05
-5.25727e-18
-2.50779e-21
-1.33562e-18
1.20775e-21
6.87792e-05
-5.23375e-18
-2.397e-21
-1.33477e-18
1.25955e-21
7.00599e-05
-5.23708e-18
-2.31495e-21
-1.33312e-18
1.29595e-21
7.1362e-05
-5.21196e-18
-2.22054e-21
-1.35315e-18
1.31711e-21
7.26859e-05
-5.18627e-18
-2.15571e-21
-1.36851e-18
1.36122e-21
7.40318e-05
-5.17595e-18
-2.11424e-21
-1.38675e-18
1.43035e-21
7.54003e-05
-5.15437e-18
-2.09295e-21
-1.40681e-18
1.52694e-21
7.67915e-05
-5.11567e-18
-2.07128e-21
-1.42819e-18
1.65566e-21
7.82059e-05
-5.08024e-18
-2.10389e-21
-1.46444e-18
1.82373e-21
7.96438e-05
-5.08959e-18
-2.2124e-21
-1.45208e-18
2.06745e-21
8.11057e-05
-5.07507e-18
-2.32075e-21
-1.4602e-18
2.26144e-21
8.25918e-05
-5.06378e-18
-2.43418e-21
-1.46229e-18
2.45085e-21
8.41026e-05
-5.05995e-18
-2.55863e-21
-1.46829e-18
2.62115e-21
8.56385e-05
-5.04366e-18
-2.69623e-21
-1.47167e-18
2.83e-21
8.71998e-05
-5.0398e-18
-2.85186e-21
-1.46499e-18
3.01547e-21
8.87871e-05
-5.04553e-18
-2.99534e-21
-1.4819e-18
3.12456e-21
9.04005e-05
-5.04518e-18
-3.11446e-21
-1.47934e-18
3.22705e-21
9.20407e-05
-5.03776e-18
-3.26078e-21
-1.49457e-18
3.28306e-21
9.3708e-05
-5.03433e-18
-3.37312e-21
-1.51257e-18
3.35652e-21
9.54028e-05
-5.04137e-18
-3.48923e-21
-1.52459e-18
3.40995e-21
9.71256e-05
-5.01131e-18
-3.55003e-21
-1.5545e-18
3.43958e-21
9.88768e-05
-4.9941e-18
-3.64129e-21
-1.56246e-18
3.4917e-21
0.000100657
-4.97832e-18
-3.72019e-21
-1.58845e-18
3.50232e-21
0.000102466
-4.98136e-18
-3.73829e-21
-1.59939e-18
3.51595e-21
0.000104305
-4.94668e-18
-3.70866e-21
-1.6236e-18
3.52386e-21
0.000106175
-4.92667e-18
-3.687e-21
-1.64433e-18
3.49697e-21
0.000108075
-4.90933e-18
-3.67713e-21
-1.675e-18
3.51342e-21
0.000110006
-4.89869e-18
-3.64659e-21
-1.6985e-18
3.58077e-21
0.000111969
-4.87003e-18
-3.66629e-21
-1.7262e-18
3.70766e-21
0.000113964
-4.83863e-18
-3.82018e-21
-1.75584e-18
3.89733e-21
0.000115992
-4.80317e-18
-4.06824e-21
-1.7944e-18
4.18377e-21
0.000118053
-4.7612e-18
-4.35902e-21
-1.81942e-18
4.53095e-21
0.000120147
-4.73431e-18
-4.65455e-21
-1.83846e-18
4.8756e-21
0.000122276
-4.72033e-18
-5.02007e-21
-1.84601e-18
5.25449e-21
0.00012444
-4.67772e-18
-5.29119e-21
-1.86375e-18
5.48346e-21
0.000126639
-4.64839e-18
-5.59869e-21
-1.91267e-18
5.57788e-21
0.000128874
-4.60855e-18
-5.8714e-21
-1.92124e-18
5.65008e-21
0.000131145
-4.59272e-18
-6.1992e-21
-1.97362e-18
5.67375e-21
0.000133453
-4.5444e-18
-6.40652e-21
-2.03642e-18
5.67464e-21
0.000135799
-4.52554e-18
-6.67455e-21
-2.07849e-18
5.68074e-21
0.000138183
-4.49221e-18
-6.87546e-21
-2.12716e-18
5.69469e-21
0.000140605
-4.45279e-18
-6.91492e-21
-2.17627e-18
5.72904e-21
0.000143067
-4.4114e-18
-6.90306e-21
-2.23416e-18
5.74518e-21
0.000145569
-4.38609e-18
-7.0485e-21
-2.29292e-18
5.76306e-21
0.000148112
-4.3542e-18
-7.15972e-21
-2.32075e-18
5.78442e-21
0.000150695
-4.30932e-18
-7.1336e-21
-2.36774e-18
5.59615e-21
0.000153321
-4.27835e-18
-7.1415e-21
-2.4267e-18
5.25701e-21
0.000155989
-4.24416e-18
-7.32774e-21
-2.4593e-18
4.9395e-21
0.0001587
-4.21003e-18
-7.58613e-21
-2.51202e-18
4.55635e-21
0.000161455
-4.16091e-18
-7.86068e-21
-2.55601e-18
4.31342e-21
0.000164254
-4.14722e-18
-8.14232e-21
-2.56783e-18
4.18355e-21
0.000167098
-4.09625e-18
-8.31439e-21
-2.58908e-18
3.82865e-21
0.000169989
-4.09152e-18
-8.57379e-21
-2.6183e-18
3.70733e-21
0.000172926
-4.03247e-18
-8.76147e-21
-2.68656e-18
3.75689e-21
0.00017591
-3.98936e-18
-8.90435e-21
-2.70689e-18
3.90861e-21
0.000178942
-3.98447e-18
-9.01786e-21
-2.7225e-18
3.81481e-21
0.000182023
-3.93779e-18
-8.69682e-21
-2.74701e-18
3.7314e-21
0.000185153
-3.90244e-18
-8.5001e-21
-2.77316e-18
3.62185e-21
0.000188334
-3.86763e-18
-8.5163e-21
-2.77129e-18
3.38022e-21
0.000191565
-3.82274e-18
-8.59388e-21
-2.79798e-18
2.93804e-21
0.000194849
-3.78475e-18
-8.96167e-21
-2.7984e-18
2.58117e-21
0.000198185
-3.76961e-18
-9.36434e-21
-2.84876e-18
2.08096e-21
0.000201574
-3.73249e-18
-9.56836e-21
-2.85204e-18
1.73099e-21
0.000205018
-3.67287e-18
-9.91659e-21
-2.83738e-18
1.12129e-21
0.000208517
-3.70144e-18
-1.05602e-20
-2.8357e-18
3.1434e-22
0.000212071
-3.64204e-18
-1.11302e-20
-2.86484e-18
-3.37974e-22
0.000215682
-3.63927e-18
-1.18953e-20
-2.89189e-18
-8.71944e-22
0.000219351
-3.60851e-18
-1.25462e-20
-2.88711e-18
-1.27954e-21
0.000223078
-3.62755e-18
-1.36564e-20
-2.88427e-18
-1.96771e-21
0.000226865
-3.644e-18
-1.44784e-20
-2.86817e-18
-2.87489e-21
0.000230712
-3.60718e-18
-1.48325e-20
-2.8541e-18
-3.94355e-21
0.00023462
-3.59042e-18
-1.54576e-20
-2.84279e-18
-5.2896e-21
0.00023859
-3.58783e-18
-1.61544e-20
-2.84215e-18
-6.8994e-21
0.000242623
-3.53214e-18
-1.73051e-20
-2.81419e-18
-8.40965e-21
0.000246721
-3.55344e-18
-1.85214e-20
-2.88423e-18
-1.0104e-20
0.000250883
-3.49395e-18
-1.89876e-20
-2.92511e-18
-1.12853e-20
0.000255111
-3.44351e-18
-1.94005e-20
-2.90596e-18
-1.24387e-20
0.000259405
-3.32974e-18
-1.94633e-20
-2.98507e-18
-1.42826e-20
0.000263768
-3.27181e-18
-2.08066e-20
-2.98595e-18
-1.43753e-20
0.0002682
-3.22712e-18
-2.1072e-20
-2.98828e-18
-1.48181e-20
0.000272701
-3.23055e-18
-2.06545e-20
-2.90691e-18
-1.49116e-20
0.000277274
-3.21329e-18
-1.98525e-20
-2.90963e-18
-1.48288e-20
0.000281919
-3.14816e-18
-1.93857e-20
-2.9239e-18
-1.47666e-20
0.000286636
-3.11126e-18
-1.93335e-20
-2.83311e-18
-1.47361e-20
0.000291428
-2.96473e-18
-2.03626e-20
-2.82318e-18
-1.55071e-20
0.000296296
-2.92741e-18
-2.15306e-20
-2.83456e-18
-1.65949e-20
0.000301239
-2.91246e-18
-2.31042e-20
-2.84616e-18
-1.76109e-20
0.00030626
-2.87283e-18
-2.47988e-20
-2.80234e-18
-1.86341e-20
0.00031136
-2.82669e-18
-2.481e-20
-2.76512e-18
-2.0378e-20
0.00031654
-2.82347e-18
-2.41354e-20
-2.73462e-18
-2.30107e-20
0.0003218
-2.77466e-18
-2.32545e-20
-2.73091e-18
-2.46359e-20
0.000327143
-2.68761e-18
-2.28956e-20
-2.7396e-18
-2.40881e-20
0.000332569
-2.75107e-18
-2.38964e-20
-2.70538e-18
-2.28944e-20
0.000338079
-2.73329e-18
-2.37788e-20
-2.62954e-18
-2.20595e-20
0.000343675
-2.71224e-18
-2.40393e-20
-2.56953e-18
-2.19397e-20
0.000349358
-2.61219e-18
-2.37786e-20
-2.51615e-18
-2.25869e-20
0.00035513
-2.53189e-18
-2.49784e-20
-2.49613e-18
-2.44265e-20
0.000360991
-2.51276e-18
-2.6679e-20
-2.50914e-18
-2.47168e-20
0.000366942
-2.46257e-18
-2.75821e-20
-2.42536e-18
-2.43101e-20
0.000372985
-2.47131e-18
-2.86658e-20
-2.36521e-18
-2.44717e-20
0.000379122
-2.444e-18
-2.86975e-20
-2.3844e-18
-2.55578e-20
0.000385353
-2.41756e-18
-2.82177e-20
-2.35592e-18
-2.72901e-20
0.00039168
-2.40315e-18
-2.74151e-20
-2.3565e-18
-2.76679e-20
0.000398105
-2.25962e-18
-2.62931e-20
-2.41378e-18
-2.74744e-20
0.000404627
-2.22923e-18
-2.83356e-20
-2.36403e-18
-2.50737e-20
0.00041125
-2.20429e-18
-2.9928e-20
-2.29826e-18
-2.32636e-20
0.000417974
-2.22244e-18
-3.0475e-20
-2.23773e-18
-2.50166e-20
0.0004248
-2.31761e-18
-3.11971e-20
-2.21733e-18
-2.79725e-20
0.00043173
-2.24478e-18
-2.92423e-20
-2.15515e-18
-3.16695e-20
0.000438765
-2.26038e-18
-2.94136e-20
-2.23823e-18
-3.45091e-20
0.000445907
-2.22542e-18
-2.71968e-20
-2.21567e-18
-3.30085e-20
0.000453156
-2.15271e-18
-2.46376e-20
-2.24496e-18
-3.21898e-20
0.000460515
-2.17824e-18
-2.41242e-20
-2.22004e-18
-3.17054e-20
0.000467985
-2.12785e-18
-2.26015e-20
-2.19337e-18
-3.15589e-20
0.000475566
-2.08168e-18
-2.36155e-20
-2.17299e-18
-2.82076e-20
0.000483261
-2.07877e-18
-2.26262e-20
-2.16925e-18
-2.44537e-20
0.00049107
-2.08984e-18
-2.18429e-20
-2.09167e-18
-2.266e-20
0.000498996
-2.01466e-18
-2.38362e-20
-2.054e-18
-2.48255e-20
0.000507038
-1.96524e-18
-3.01159e-20
-2.01241e-18
-2.18041e-20
0.000515199
-1.99237e-18
-3.2985e-20
-1.9095e-18
-2.10472e-20
0.00052348
-1.87281e-18
-3.02053e-20
-1.76974e-18
-1.96978e-20
0.000531882
-1.82008e-18
-2.74196e-20
-1.70048e-18
-2.13684e-20
0.000540407
-1.64764e-18
-2.74189e-20
-1.69213e-18
-2.34713e-20
0.000549054
-1.60512e-18
-2.81632e-20
-1.67694e-18
-2.03531e-20
0.000557827
-1.57893e-18
-2.61094e-20
-1.57914e-18
-1.53704e-20
0.000566725
-1.51895e-18
-2.10621e-20
-1.52583e-18
-1.04276e-20
0.000575749
-1.33299e-18
-1.69902e-20
-1.37493e-18
-9.81937e-21
0.000584901
-1.29329e-18
-1.76837e-20
-1.36029e-18
-9.87651e-21
0.000594182
-1.25806e-18
-1.62653e-20
-1.20056e-18
-4.14274e-21
0.000603591
-1.18244e-18
-1.74169e-20
-1.17412e-18
-1.00719e-20
0.000613131
-1.12062e-18
-1.78724e-20
-1.14902e-18
-1.13879e-20
0.000622801
-1.09608e-18
-1.53531e-20
-1.07444e-18
-6.75608e-21
0.000632601
-1.06585e-18
-1.17604e-20
-1.11163e-18
-7.19762e-21
0.000642533
-1.02555e-18
-1.3665e-20
-1.05981e-18
-1.1965e-20
0.000652596
-1.24809e-18
-1.91404e-20
-1.09923e-18
-1.40258e-20
0.000662789
-1.10562e-18
-8.19673e-21
-1.00011e-18
-1.11225e-20
0.000673113
-1.01738e-18
-8.68434e-22
-1.14692e-18
-7.75041e-21
0.000683567
-9.43616e-19
-7.1232e-22
-1.07436e-18
2.51162e-21
0.000694149
-8.46282e-19
-1.68668e-21
-8.92913e-19
1.21829e-20
0.000704858
-9.16484e-19
-5.82231e-22
-7.79266e-19
7.32856e-21
0.000715694
-8.448e-19
-5.04024e-22
-7.89361e-19
-8.13185e-22
0.000726652
-8.68925e-19
-6.96874e-21
-8.21395e-19
-1.18326e-20
0.000737732
-8.05786e-19
-8.17826e-21
-8.58501e-19
-1.17114e-20
0.000748929
-7.30353e-19
-9.35183e-21
-7.30399e-19
-6.05078e-21
0.00076024
-7.20453e-19
-1.243e-20
-7.67274e-19
-8.29424e-21
0.000771662
-7.3575e-19
-1.32951e-20
-8.02615e-19
-1.37318e-20
0.00078319
-6.69762e-19
-1.03268e-20
-7.64585e-19
-9.14066e-21
0.000794818
-6.60359e-19
2.20283e-21
-5.99147e-19
-1.40924e-20
0.000806543
-5.9595e-19
8.797e-21
-6.30136e-19
-2.16298e-20
0.000818357
1.05176e-20
-6.44797e-19
-2.55281e-20
-6.34449e-19
1.08473e-08
-4.24423e-22
-9.73306e-23
3.31735e-08
-2.35123e-21
-6.07558e-22
5.64727e-08
-4.30963e-21
-1.1403e-21
8.07789e-08
-6.32221e-21
-1.68388e-21
1.06127e-07
-8.35403e-21
-2.28177e-21
1.32554e-07
-1.043e-20
-2.92465e-21
1.60096e-07
-1.2541e-20
-3.61723e-21
1.88793e-07
-1.47138e-20
-4.30915e-21
2.18684e-07
-1.693e-20
-5.01648e-21
2.49811e-07
-1.92447e-20
-5.70209e-21
2.82215e-07
-2.15866e-20
-6.43069e-21
3.15942e-07
-2.40119e-20
-7.21064e-21
3.51035e-07
-2.64794e-20
-8.02149e-21
3.87543e-07
-2.89934e-20
-8.83238e-21
4.25513e-07
-3.15665e-20
-9.65713e-21
4.64995e-07
-3.40023e-20
-1.06741e-20
5.0604e-07
-3.66601e-20
-1.15454e-20
5.48702e-07
-3.93633e-20
-1.24207e-20
5.93035e-07
-4.21081e-20
-1.33296e-20
6.39096e-07
-4.49348e-20
-1.45166e-20
6.86942e-07
-4.77691e-20
-1.56125e-20
7.36634e-07
-5.06678e-20
-1.67372e-20
7.88233e-07
-5.36297e-20
-1.80019e-20
8.41803e-07
-5.69011e-20
-1.92608e-20
8.97409e-07
-6.00576e-20
-2.05135e-20
9.55119e-07
-6.31709e-20
-2.19052e-20
1.015e-06
-6.65253e-20
-2.32019e-20
1.07713e-06
-6.99051e-20
-2.47975e-20
1.14158e-06
-7.36513e-20
-2.61021e-20
1.20841e-06
-7.72367e-20
-2.76309e-20
1.27772e-06
-8.09494e-20
-2.91911e-20
1.34957e-06
-8.46145e-20
-3.07918e-20
1.42406e-06
-8.85357e-20
-3.26494e-20
1.50125e-06
-9.22196e-20
-3.43725e-20
1.58124e-06
-9.6301e-20
-3.59498e-20
1.66411e-06
-1.00564e-19
-3.75606e-20
1.74995e-06
-1.04581e-19
-3.94692e-20
1.83884e-06
-1.08827e-19
-4.12179e-20
1.93087e-06
-1.13242e-19
-4.34829e-20
2.02614e-06
-1.17721e-19
-4.54473e-20
2.12473e-06
-1.21557e-19
-4.75058e-20
2.22674e-06
-1.26513e-19
-5.00496e-20
2.33224e-06
-1.31799e-19
-5.1999e-20
2.44134e-06
-1.36413e-19
-5.44246e-20
2.55413e-06
-1.41086e-19
-5.64033e-20
2.67068e-06
-1.46039e-19
-5.91e-20
2.79108e-06
-1.51324e-19
-6.20071e-20
2.91542e-06
-1.56469e-19
-6.42278e-20
3.04377e-06
-1.6139e-19
-6.67916e-20
3.17622e-06
-1.67006e-19
-7.00517e-20
3.31283e-06
-1.72389e-19
-7.32918e-20
3.45367e-06
-1.77896e-19
-7.70075e-20
3.5988e-06
-1.83273e-19
-8.05304e-20
3.74829e-06
-1.88617e-19
-8.37388e-20
3.90219e-06
-1.9415e-19
-8.7121e-20
4.06053e-06
-1.99207e-19
-9.0927e-20
4.22337e-06
-2.05346e-19
-9.56885e-20
4.39074e-06
-2.11775e-19
-9.94891e-20
4.56267e-06
-2.18256e-19
-1.03624e-19
4.73917e-06
-2.25566e-19
-1.08009e-19
4.92028e-06
-2.32112e-19
-1.1213e-19
5.106e-06
-2.38424e-19
-1.15898e-19
5.29633e-06
-2.44746e-19
-1.19649e-19
5.4913e-06
-2.51151e-19
-1.24202e-19
5.69089e-06
-2.58721e-19
-1.28828e-19
5.89511e-06
-2.65261e-19
-1.3271e-19
6.10395e-06
-2.7167e-19
-1.37457e-19
6.31741e-06
-2.77911e-19
-1.4232e-19
6.53549e-06
-2.83679e-19
-1.47619e-19
6.75818e-06
-2.89557e-19
-1.52762e-19
6.98548e-06
-2.95292e-19
-1.58024e-19
7.21739e-06
-3.01841e-19
-1.63143e-19
7.4539e-06
-3.08136e-19
-1.67966e-19
7.69503e-06
-3.14137e-19
-1.72317e-19
7.94078e-06
-3.21203e-19
-1.75937e-19
8.19117e-06
-3.28383e-19
-1.81218e-19
8.4462e-06
-3.37005e-19
-1.85188e-19
8.7059e-06
-3.41726e-19
-1.90394e-19
8.97028e-06
-3.45757e-19
-1.97111e-19
9.23939e-06
-3.53589e-19
-2.03115e-19
9.51325e-06
-3.60007e-19
-2.08999e-19
9.7919e-06
-3.65652e-19
-2.16964e-19
1.00754e-05
-3.73243e-19
-2.22193e-19
1.03637e-05
-3.77537e-19
-2.2843e-19
1.0657e-05
-3.83894e-19
-2.34131e-19
1.09553e-05
-3.88155e-19
-2.40902e-19
1.12586e-05
-3.93638e-19
-2.44667e-19
1.15671e-05
-3.98997e-19
-2.50207e-19
1.18807e-05
-4.05741e-19
-2.5426e-19
1.21995e-05
-4.15341e-19
-2.58176e-19
1.25237e-05
-4.21675e-19
-2.64676e-19
1.28533e-05
-4.28147e-19
-2.68604e-19
1.31884e-05
-4.33116e-19
-2.75535e-19
1.35291e-05
-4.39762e-19
-2.80091e-19
1.38754e-05
-4.44789e-19
-2.85872e-19
1.42275e-05
-4.4936e-19
-2.9003e-19
1.45855e-05
-4.54409e-19
-2.96299e-19
1.49494e-05
-4.6388e-19
-2.99565e-19
1.53194e-05
-4.68754e-19
-3.05647e-19
1.56955e-05
-4.74924e-19
-3.13483e-19
1.60779e-05
-4.77752e-19
-3.1764e-19
1.64667e-05
-4.84788e-19
-3.22476e-19
1.6862e-05
-4.9197e-19
-3.24841e-19
1.72639e-05
-4.9291e-19
-3.26951e-19
1.76725e-05
-4.99909e-19
-3.27917e-19
1.8088e-05
-5.02364e-19
-3.34285e-19
1.85104e-05
-5.03635e-19
-3.42696e-19
1.89399e-05
-5.05858e-19
-3.44104e-19
1.93767e-05
-5.09824e-19
-3.47657e-19
1.98208e-05
-5.14981e-19
-3.53705e-19
2.02724e-05
-5.17779e-19
-3.59758e-19
2.07316e-05
-5.20988e-19
-3.67351e-19
2.11985e-05
-5.22516e-19
-3.74284e-19
2.16734e-05
-5.17787e-19
-3.85192e-19
2.21563e-05
-5.21857e-19
-3.89198e-19
2.26473e-05
-5.19748e-19
-3.94433e-19
2.31467e-05
-5.23111e-19
-3.97326e-19
2.36546e-05
-5.26661e-19
-4.01187e-19
2.4171e-05
-5.3166e-19
-4.00087e-19
2.46963e-05
-5.33416e-19
-4.0418e-19
2.52304e-05
-5.36092e-19
-4.04659e-19
2.57737e-05
-5.38139e-19
-4.06573e-19
2.63262e-05
-5.39728e-19
-4.14132e-19
2.68881e-05
-5.42381e-19
-4.15864e-19
2.74595e-05
-5.45437e-19
-4.18154e-19
2.80408e-05
-5.50007e-19
-4.20124e-19
2.86319e-05
-5.58564e-19
-4.19569e-19
2.9233e-05
-5.61451e-19
-4.26563e-19
2.98445e-05
-5.71579e-19
-4.30119e-19
3.04663e-05
-5.74658e-19
-4.33904e-19
3.10988e-05
-5.73618e-19
-4.27821e-19
3.17421e-05
-5.77162e-19
-4.28614e-19
3.23963e-05
-5.77747e-19
-4.33281e-19
3.30617e-05
-5.82394e-19
-4.43011e-19
3.37384e-05
-5.91252e-19
-4.35913e-19
3.44267e-05
-5.97443e-19
-4.44433e-19
3.51268e-05
-5.97438e-19
-4.40412e-19
3.58387e-05
-5.95558e-19
-4.43607e-19
3.65628e-05
-5.94311e-19
-4.50686e-19
3.72993e-05
-6.00306e-19
-4.46611e-19
3.80483e-05
-5.98195e-19
-4.51354e-19
3.881e-05
-6.07421e-19
-4.55693e-19
3.95848e-05
-6.07994e-19
-4.58879e-19
4.03727e-05
-6.21285e-19
-4.58829e-19
4.11741e-05
-6.24517e-19
-4.64296e-19
4.1989e-05
-6.24039e-19
-4.71545e-19
4.28179e-05
-6.24379e-19
-4.76341e-19
4.36608e-05
-6.25401e-19
-4.7141e-19
4.45181e-05
-6.34954e-19
-4.66495e-19
4.53899e-05
-6.34186e-19
-4.71952e-19
4.62765e-05
-6.3729e-19
-4.78591e-19
4.71782e-05
-6.36253e-19
-4.81642e-19
4.80951e-05
-6.43633e-19
-4.83762e-19
4.90276e-05
-6.50075e-19
-4.87269e-19
4.99759e-05
-6.47726e-19
-4.92952e-19
5.09402e-05
-6.5574e-19
-4.92236e-19
5.19209e-05
-6.52306e-19
-4.95286e-19
5.29181e-05
-6.52318e-19
-4.98176e-19
5.39322e-05
-6.50957e-19
-4.9884e-19
5.49634e-05
-6.57063e-19
-5.00929e-19
5.60121e-05
-6.55073e-19
-5.00063e-19
5.70784e-05
-6.76559e-19
-4.93779e-19
5.81627e-05
-6.64192e-19
-4.98412e-19
5.92652e-05
-6.67027e-19
-4.8931e-19
6.03863e-05
-6.63278e-19
-4.9072e-19
6.15263e-05
-6.54799e-19
-4.72564e-19
6.26854e-05
-6.63644e-19
-4.81383e-19
6.38639e-05
-6.60026e-19
-4.68291e-19
6.50623e-05
-6.5985e-19
-4.56859e-19
6.62807e-05
-6.82791e-19
-4.66877e-19
6.75196e-05
-6.91188e-19
-4.63527e-19
6.87792e-05
-7.12476e-19
-4.71015e-19
7.00599e-05
-7.11823e-19
-4.74931e-19
7.1362e-05
-7.10052e-19
-4.72446e-19
7.26859e-05
-6.93276e-19
-4.74952e-19
7.40318e-05
-6.89498e-19
-4.79444e-19
7.54003e-05
-6.64911e-19
-4.74065e-19
7.67915e-05
-6.60939e-19
-4.8021e-19
7.82059e-05
-6.71385e-19
-4.76883e-19
7.96438e-05
-6.75806e-19
-4.83733e-19
8.11057e-05
-6.6208e-19
-4.71296e-19
8.25918e-05
-6.52274e-19
-4.74263e-19
8.41026e-05
-6.53758e-19
-4.57435e-19
8.56385e-05
-6.54827e-19
-4.6416e-19
8.71998e-05
-6.61217e-19
-4.73264e-19
8.87871e-05
-6.73528e-19
-4.69107e-19
9.04005e-05
-7.05801e-19
-4.68439e-19
9.20407e-05
-6.9649e-19
-4.46262e-19
9.3708e-05
-7.12352e-19
-4.45624e-19
9.54028e-05
-7.12606e-19
-4.40468e-19
9.71256e-05
-7.16237e-19
-4.28448e-19
9.88768e-05
-7.14264e-19
-4.24742e-19
0.000100657
-6.95444e-19
-4.27072e-19
0.000102466
-6.95441e-19
-4.23407e-19
0.000104305
-6.76461e-19
-4.41514e-19
0.000106175
-6.68131e-19
-4.30413e-19
0.000108075
-6.46005e-19
-4.32729e-19
0.000110006
-6.49347e-19
-4.21118e-19
0.000111969
-6.55705e-19
-4.21826e-19
0.000113964
-6.45501e-19
-4.06714e-19
0.000115992
-6.19307e-19
-4.00201e-19
0.000118053
-5.80573e-19
-4.04954e-19
0.000120147
-5.88725e-19
-3.91892e-19
0.000122276
-5.66156e-19
-4.22314e-19
0.00012444
-5.64859e-19
-4.31764e-19
0.000126639
-5.53381e-19
-4.25536e-19
0.000128874
-5.56566e-19
-3.98953e-19
0.000131145
-5.23842e-19
-4.02079e-19
0.000133453
-5.18051e-19
-4.12164e-19
0.000135799
-5.21195e-19
-4.14399e-19
0.000138183
-5.01187e-19
-3.97838e-19
0.000140605
-5.12811e-19
-3.96566e-19
0.000143067
-5.69875e-19
-4.2225e-19
0.000145569
-5.7796e-19
-4.32859e-19
0.000148112
-5.47308e-19
-4.52752e-19
0.000150695
-5.45676e-19
-4.72591e-19
0.000153321
-5.83417e-19
-4.60891e-19
0.000155989
-5.94882e-19
-4.60119e-19
0.0001587
-6.00118e-19
-4.56042e-19
0.000161455
-5.86214e-19
-4.38604e-19
0.000164254
-5.81743e-19
-4.50009e-19
0.000167098
-5.71405e-19
-4.16162e-19
0.000169989
-5.82852e-19
-4.03021e-19
0.000172926
-5.53142e-19
-3.94511e-19
0.00017591
-5.42106e-19
-4.13564e-19
0.000178942
-5.01989e-19
-4.15347e-19
0.000182023
-5.05616e-19
-4.17932e-19
0.000185153
-5.18082e-19
-4.1801e-19
0.000188334
-5.02401e-19
-4.10528e-19
0.000191565
-5.06765e-19
-3.99807e-19
0.000194849
-4.73273e-19
-3.92969e-19
0.000198185
-4.32823e-19
-3.76122e-19
0.000201574
-4.20454e-19
-3.73721e-19
0.000205018
-4.06839e-19
-3.63593e-19
0.000208517
-4.33784e-19
-3.41298e-19
0.000212071