/*--------------------------------*- C++ -*----------------------------------*\
| =========                 |                                                 |
| \\      /  F ield         | OpenFOAM: The Open Source CFD Toolbox           |
|  \\    /   O peration     | Version:  2106                                  |
|   \\  /    A nd           | Website:  www.openfoam.com                      |
|    \\/     M anipulation  |                                                 |
\*---------------------------------------------------------------------------*/
FoamFile
{
    version     2.0;
    format      ascii;
    arch        "LSB;label=32;scalar=64";
    class       volSymmTensorField;
    location    "18000";
    object      turbulenceProperties:R;
}
// * * * * * * * * * * * * * * * * * * * * * * * * * * * * * * * * * * * * * //

dimensions      [0 2 -2 0 0 0 0];

internalField   nonuniform List<symmTensor> 
2560
(
(3.02025e-07 -3.01806e-11 -4.36903e-14 3.02025e-07 8.07763e-27 3.02025e-07)
(3.02025e-07 -3.01806e-11 -4.36903e-14 3.02025e-07 -4.87646e-27 3.02025e-07)
(5.4981e-08 -3.15747e-11 -1.37797e-13 5.4981e-08 -4.28004e-27 5.4981e-08)
(5.4981e-08 -3.15747e-11 -1.37797e-13 5.4981e-08 -4.43976e-27 5.4981e-08)
(8.99623e-08 -1.5239e-10 -9.14733e-13 8.99623e-08 -1.75011e-26 8.99623e-08)
(8.99623e-08 -1.5239e-10 -9.14733e-13 8.99623e-08 -1.31033e-27 8.99623e-08)
(2.88507e-07 -1.03623e-09 -6.31049e-12 2.88507e-07 9.00426e-26 2.88507e-07)
(2.88507e-07 -1.03623e-09 -6.31049e-12 2.88507e-07 -9.10581e-27 2.88507e-07)
(7.43729e-07 -4.71212e-09 -2.91134e-11 7.43729e-07 -7.45534e-25 7.43729e-07)
(7.43729e-07 -4.71212e-09 -2.91134e-11 7.43729e-07 -4.32032e-26 7.43729e-07)
(1.5872e-06 -1.58307e-08 -9.92303e-11 1.5872e-06 -2.24075e-24 1.5872e-06)
(1.5872e-06 -1.58307e-08 -9.92303e-11 1.5872e-06 -1.52426e-25 1.5872e-06)
(2.97522e-06 -4.32812e-08 -2.7524e-10 2.97522e-06 -6.65964e-24 2.97522e-06)
(2.97522e-06 -4.32812e-08 -2.7524e-10 2.97522e-06 -4.38537e-25 2.97522e-06)
(5.08701e-06 -1.02219e-07 -6.59492e-10 5.08701e-06 -1.61566e-23 5.08701e-06)
(5.08701e-06 -1.02219e-07 -6.59492e-10 5.08701e-06 -1.08543e-24 5.08701e-06)
(8.12491e-06 -2.16535e-07 -1.41732e-09 8.12491e-06 -3.49693e-23 8.12491e-06)
(8.12491e-06 -2.16535e-07 -1.41732e-09 8.12491e-06 -2.39072e-24 8.12491e-06)
(1.23149e-05 -4.21794e-07 -2.80092e-09 1.23149e-05 -6.95724e-23 1.23149e-05)
(1.23149e-05 -4.21794e-07 -2.80092e-09 1.23149e-05 -4.88019e-24 1.23149e-05)
(1.7907e-05 -7.68638e-07 -5.17817e-09 1.7907e-05 -1.29345e-22 1.7907e-05)
(1.7907e-05 -7.68638e-07 -5.17817e-09 1.7907e-05 -9.35586e-24 1.7907e-05)
(2.51761e-05 -1.32664e-06 -9.0668e-09 2.51761e-05 -2.27537e-22 2.51761e-05)
(2.51761e-05 -1.32664e-06 -9.0668e-09 2.51761e-05 -1.69293e-23 2.51761e-05)
(3.44217e-05 -2.18848e-06 -1.51734e-08 3.44217e-05 -3.82112e-22 3.44217e-05)
(3.44217e-05 -2.18848e-06 -1.51734e-08 3.44217e-05 -2.93154e-23 3.44217e-05)
(4.59676e-05 -3.47438e-06 -2.44368e-08 4.59676e-05 -6.16693e-22 4.59676e-05)
(4.59676e-05 -3.47438e-06 -2.44368e-08 4.59676e-05 -4.91161e-23 4.59676e-05)
(6.01609e-05 -5.33639e-06 -3.8074e-08 6.01609e-05 -9.60999e-22 6.01609e-05)
(6.01609e-05 -5.33639e-06 -3.8074e-08 6.01609e-05 -7.93901e-23 6.01609e-05)
(7.73695e-05 -7.96236e-06 -5.7626e-08 7.73695e-05 -1.45191e-21 7.73695e-05)
(7.73695e-05 -7.96236e-06 -5.7626e-08 7.73695e-05 -1.23726e-22 7.73695e-05)
(9.7979e-05 -1.15789e-05 -8.49999e-08 9.7979e-05 -2.13387e-21 9.7979e-05)
(9.7979e-05 -1.15789e-05 -8.49999e-08 9.7979e-05 -1.87386e-22 9.7979e-05)
(0.000122388 -1.64529e-05 -1.22502e-07 0.000122388 -3.0551e-21 0.000122388)
(0.000122388 -1.64529e-05 -1.22502e-07 0.000122388 -2.7576e-22 0.000122388)
(0.000151 -2.28908e-05 -1.72855e-07 0.000151 -4.26841e-21 0.000151)
(0.000151 -2.28908e-05 -1.72855e-07 0.000151 -3.95733e-22 0.000151)
(0.000184218 -3.12347e-05 -2.39193e-07 0.000184218 -5.8273e-21 0.000184218)
(0.000184218 -3.12347e-05 -2.39193e-07 0.000184218 -5.6024e-22 0.000184218)
(0.00022243 -4.18553e-05 -3.25025e-07 0.00022243 -7.77762e-21 0.00022243)
(0.00022243 -4.18553e-05 -3.25025e-07 0.00022243 -7.80978e-22 0.00022243)
(0.000265998 -5.51404e-05 -4.34166e-07 0.000265998 -1.0155e-20 0.000265998)
(0.000265998 -5.51404e-05 -4.34166e-07 0.000265998 -1.06181e-21 0.000265998)
(0.000315245 -7.14794e-05 -5.7062e-07 0.000315245 -1.2972e-20 0.000315245)
(0.000315245 -7.14794e-05 -5.7062e-07 0.000315245 -1.40602e-21 0.000315245)
(0.000370437 -9.12436e-05 -7.38434e-07 0.000370437 -1.62148e-20 0.000370437)
(0.000370437 -9.12436e-05 -7.38434e-07 0.000370437 -1.81925e-21 0.000370437)
(0.000431771 -0.000114765 -9.41514e-07 0.000431771 -1.98362e-20 0.000431771)
(0.000431771 -0.000114765 -9.41514e-07 0.000431771 -2.31172e-21 0.000431771)
(0.000499355 -0.000142313 -1.18342e-06 0.000499355 -2.37684e-20 0.000499355)
(0.000499355 -0.000142313 -1.18342e-06 0.000499355 -2.92901e-21 0.000499355)
(0.000573202 -0.000174074 -1.46715e-06 0.000573202 -2.78807e-20 0.000573202)
(0.000573202 -0.000174074 -1.46715e-06 0.000573202 -3.68034e-21 0.000573202)
(0.000653217 -0.00021013 -1.79497e-06 0.000653217 -3.20019e-20 0.000653217)
(0.000653217 -0.00021013 -1.79497e-06 0.000653217 -4.49084e-21 0.000653217)
(0.000739192 -0.000250451 -2.16824e-06 0.000739192 -3.60276e-20 0.000739192)
(0.000739192 -0.000250451 -2.16824e-06 0.000739192 -5.27918e-21 0.000739192)
(0.000830809 -0.00029489 -2.58735e-06 0.000830809 -3.97537e-20 0.000830809)
(0.000830809 -0.00029489 -2.58735e-06 0.000830809 -6.07131e-21 0.000830809)
(0.000927648 -0.000343183 -3.05165e-06 0.000927648 -4.29942e-20 0.000927648)
(0.000927648 -0.000343183 -3.05165e-06 0.000927648 -7.1045e-21 0.000927648)
(0.00102919 -0.000394966 -3.55954e-06 0.00102919 -4.57306e-20 0.00102919)
(0.00102919 -0.000394966 -3.55954e-06 0.00102919 -8.45644e-21 0.00102919)
(0.00113485 -0.000449789 -4.10855e-06 0.00113485 -4.78381e-20 0.00113485)
(0.00113485 -0.000449789 -4.10855e-06 0.00113485 -9.87883e-21 0.00113485)
(0.00124398 -0.000507144 -4.69549e-06 0.00124398 -4.92551e-20 0.00124398)
(0.00124398 -0.000507144 -4.69549e-06 0.00124398 -1.10777e-20 0.00124398)
(0.0013559 -0.000566484 -5.31664e-06 0.0013559 -5.01949e-20 0.0013559)
(0.0013559 -0.000566484 -5.31664e-06 0.0013559 -1.22725e-20 0.0013559)
(0.0014699 -0.000627255 -5.96799e-06 0.0014699 -5.06468e-20 0.0014699)
(0.0014699 -0.000627255 -5.96799e-06 0.0014699 -1.36229e-20 0.0014699)
(0.00158531 -0.000688909 -6.64533e-06 0.00158531 -5.0607e-20 0.00158531)
(0.00158531 -0.000688909 -6.64533e-06 0.00158531 -1.51834e-20 0.00158531)
(0.00170145 -0.000750933 -7.34453e-06 0.00170145 -5.0544e-20 0.00170145)
(0.00170145 -0.000750933 -7.34453e-06 0.00170145 -1.65995e-20 0.00170145)
(0.00181769 -0.000812855 -8.06159e-06 0.00181769 -5.07346e-20 0.00181769)
(0.00181769 -0.000812855 -8.06159e-06 0.00181769 -1.80044e-20 0.00181769)
(0.00193345 -0.000874255 -8.79279e-06 0.00193345 -5.0555e-20 0.00193345)
(0.00193345 -0.000874255 -8.79279e-06 0.00193345 -2.04512e-20 0.00193345)
(0.00204821 -0.000934771 -9.53475e-06 0.00204821 -5.08466e-20 0.00204821)
(0.00204821 -0.000934771 -9.53475e-06 0.00204821 -2.3214e-20 0.00204821)
(0.00216151 -0.000994102 -1.02845e-05 0.00216151 -5.22203e-20 0.00216151)
(0.00216151 -0.000994102 -1.02845e-05 0.00216151 -2.56179e-20 0.00216151)
(0.00227295 -0.001052 -1.10394e-05 0.00227295 -5.36726e-20 0.00227295)
(0.00227295 -0.001052 -1.10394e-05 0.00227295 -2.73358e-20 0.00227295)
(0.0023822 -0.00110828 -1.17972e-05 0.0023822 -5.56981e-20 0.0023822)
(0.0023822 -0.00110828 -1.17972e-05 0.0023822 -2.95928e-20 0.0023822)
(0.00248897 -0.00116278 -1.25562e-05 0.00248897 -5.89706e-20 0.00248897)
(0.00248897 -0.00116278 -1.25562e-05 0.00248897 -3.2938e-20 0.00248897)
(0.00259305 -0.00121542 -1.33148e-05 0.00259305 -6.33782e-20 0.00259305)
(0.00259305 -0.00121542 -1.33148e-05 0.00259305 -3.72929e-20 0.00259305)
(0.00269426 -0.00126613 -1.40719e-05 0.00269426 -6.83953e-20 0.00269426)
(0.00269426 -0.00126613 -1.40719e-05 0.00269426 -4.22396e-20 0.00269426)
(0.00279247 -0.00131487 -1.48265e-05 0.00279247 -7.421e-20 0.00279247)
(0.00279247 -0.00131487 -1.48265e-05 0.00279247 -4.57854e-20 0.00279247)
(0.00288761 -0.00136165 -1.55782e-05 0.00288761 -8.16415e-20 0.00288761)
(0.00288761 -0.00136165 -1.55782e-05 0.00288761 -4.9633e-20 0.00288761)
(0.00297963 -0.00140646 -1.63263e-05 0.00297963 -9.00386e-20 0.00297963)
(0.00297963 -0.00140646 -1.63263e-05 0.00297963 -5.52278e-20 0.00297963)
(0.0030685 -0.00144934 -1.70706e-05 0.0030685 -9.89734e-20 0.0030685)
(0.0030685 -0.00144934 -1.70706e-05 0.0030685 -6.06588e-20 0.0030685)
(0.00315422 -0.00149034 -1.78111e-05 0.00315422 -1.09175e-19 0.00315422)
(0.00315422 -0.00149034 -1.78111e-05 0.00315422 -6.71554e-20 0.00315422)
(0.00323683 -0.00152951 -1.85478e-05 0.00323683 -1.21223e-19 0.00323683)
(0.00323683 -0.00152951 -1.85478e-05 0.00323683 -7.34641e-20 0.00323683)
(0.00331637 -0.00156691 -1.92806e-05 0.00331637 -1.33816e-19 0.00331637)
(0.00331637 -0.00156691 -1.92806e-05 0.00331637 -7.94621e-20 0.00331637)
(0.0033929 -0.0016026 -2.00099e-05 0.0033929 -1.487e-19 0.0033929)
(0.0033929 -0.0016026 -2.00099e-05 0.0033929 -8.68249e-20 0.0033929)
(0.00346648 -0.00163664 -2.07358e-05 0.00346648 -1.64772e-19 0.00346648)
(0.00346648 -0.00163664 -2.07358e-05 0.00346648 -9.11475e-20 0.00346648)
(0.0035372 -0.00166912 -2.14587e-05 0.0035372 -1.80287e-19 0.0035372)
(0.0035372 -0.00166912 -2.14587e-05 0.0035372 -9.57336e-20 0.0035372)
(0.00360513 -0.00170009 -2.21789e-05 0.00360513 -1.9737e-19 0.00360513)
(0.00360513 -0.00170009 -2.21789e-05 0.00360513 -1.04025e-19 0.00360513)
(0.00367036 -0.00172963 -2.28967e-05 0.00367036 -2.15478e-19 0.00367036)
(0.00367036 -0.00172963 -2.28967e-05 0.00367036 -1.12505e-19 0.00367036)
(0.00373299 -0.0017578 -2.36126e-05 0.00373299 -2.33716e-19 0.00373299)
(0.00373299 -0.0017578 -2.36126e-05 0.00373299 -1.18402e-19 0.00373299)
(0.0037931 -0.00178467 -2.43268e-05 0.0037931 -2.52502e-19 0.0037931)
(0.0037931 -0.00178467 -2.43268e-05 0.0037931 -1.24787e-19 0.0037931)
(0.00385079 -0.0018103 -2.50399e-05 0.00385079 -2.7437e-19 0.00385079)
(0.00385079 -0.0018103 -2.50399e-05 0.00385079 -1.3441e-19 0.00385079)
(0.00390616 -0.00183475 -2.57522e-05 0.00390616 -2.98581e-19 0.00390616)
(0.00390616 -0.00183475 -2.57522e-05 0.00390616 -1.40733e-19 0.00390616)
(0.00395928 -0.00185809 -2.6464e-05 0.00395928 -3.23131e-19 0.00395928)
(0.00395928 -0.00185809 -2.6464e-05 0.00395928 -1.49594e-19 0.00395928)
(0.00401025 -0.00188036 -2.71759e-05 0.00401025 -3.45935e-19 0.00401025)
(0.00401025 -0.00188036 -2.71759e-05 0.00401025 -1.58283e-19 0.00401025)
(0.00405916 -0.00190163 -2.78882e-05 0.00405916 -3.72383e-19 0.00405916)
(0.00405916 -0.00190163 -2.78882e-05 0.00405916 -1.57005e-19 0.00405916)
(0.00410609 -0.00192194 -2.86012e-05 0.00410609 -4.00386e-19 0.00410609)
(0.00410609 -0.00192194 -2.86012e-05 0.00410609 -1.68403e-19 0.00410609)
(0.00415113 -0.00194134 -2.93154e-05 0.00415113 -4.29358e-19 0.00415113)
(0.00415113 -0.00194134 -2.93154e-05 0.00415113 -1.79127e-19 0.00415113)
(0.00419435 -0.00195988 -3.00311e-05 0.00419435 -4.59911e-19 0.00419435)
(0.00419435 -0.00195988 -3.00311e-05 0.00419435 -1.84185e-19 0.00419435)
(0.00423583 -0.0019776 -3.07486e-05 0.00423583 -4.85098e-19 0.00423583)
(0.00423583 -0.0019776 -3.07486e-05 0.00423583 -1.99478e-19 0.00423583)
(0.00427565 -0.00199454 -3.14685e-05 0.00427565 -5.1449e-19 0.00427565)
(0.00427565 -0.00199454 -3.14685e-05 0.00427565 -2.12485e-19 0.00427565)
(0.00431387 -0.00201075 -3.21909e-05 0.00431387 -5.50888e-19 0.00431387)
(0.00431387 -0.00201075 -3.21909e-05 0.00431387 -2.26676e-19 0.00431387)
(0.00435057 -0.00202624 -3.29162e-05 0.00435057 -5.82427e-19 0.00435057)
(0.00435057 -0.00202624 -3.29162e-05 0.00435057 -2.50051e-19 0.00435057)
(0.0043858 -0.00204107 -3.36447e-05 0.0043858 -6.09795e-19 0.0043858)
(0.0043858 -0.00204107 -3.36447e-05 0.0043858 -2.7602e-19 0.0043858)
(0.00441964 -0.00205527 -3.43768e-05 0.00441964 -6.44947e-19 0.00441964)
(0.00441964 -0.00205527 -3.43768e-05 0.00441964 -2.77937e-19 0.00441964)
(0.00445213 -0.00206886 -3.51128e-05 0.00445213 -6.78614e-19 0.00445213)
(0.00445213 -0.00206886 -3.51128e-05 0.00445213 -2.69814e-19 0.00445213)
(0.00448334 -0.00208187 -3.58529e-05 0.00448334 -7.16764e-19 0.00448334)
(0.00448334 -0.00208187 -3.58529e-05 0.00448334 -2.79261e-19 0.00448334)
(0.00451332 -0.00209434 -3.65975e-05 0.00451332 -7.61912e-19 0.00451332)
(0.00451332 -0.00209434 -3.65975e-05 0.00451332 -2.79287e-19 0.00451332)
(0.00454213 -0.00210628 -3.73468e-05 0.00454213 -8.00509e-19 0.00454213)
(0.00454213 -0.00210628 -3.73468e-05 0.00454213 -2.73324e-19 0.00454213)
(0.0045698 -0.00211772 -3.81011e-05 0.0045698 -8.34677e-19 0.0045698)
(0.0045698 -0.00211772 -3.81011e-05 0.0045698 -2.79375e-19 0.0045698)
(0.00459639 -0.00212869 -3.88607e-05 0.00459639 -8.67612e-19 0.00459639)
(0.00459639 -0.00212869 -3.88607e-05 0.00459639 -2.6306e-19 0.00459639)
(0.00462194 -0.0021392 -3.96259e-05 0.00462194 -9.05803e-19 0.00462194)
(0.00462194 -0.0021392 -3.96259e-05 0.00462194 -2.49205e-19 0.00462194)
(0.0046465 -0.00214928 -4.03968e-05 0.0046465 -9.46095e-19 0.0046465)
(0.0046465 -0.00214928 -4.03968e-05 0.0046465 -2.71187e-19 0.0046465)
(0.00467009 -0.00215894 -4.11739e-05 0.00467009 -9.87367e-19 0.00467009)
(0.00467009 -0.00215894 -4.11739e-05 0.00467009 -2.71272e-19 0.00467009)
(0.00469277 -0.00216821 -4.19572e-05 0.00469277 -1.0287e-18 0.00469277)
(0.00469277 -0.00216821 -4.19572e-05 0.00469277 -2.30998e-19 0.00469277)
(0.00471457 -0.0021771 -4.2747e-05 0.00471457 -1.06946e-18 0.00471457)
(0.00471457 -0.0021771 -4.2747e-05 0.00471457 -2.28127e-19 0.00471457)
(0.00473552 -0.00218562 -4.35437e-05 0.00473552 -1.10277e-18 0.00473552)
(0.00473552 -0.00218562 -4.35437e-05 0.00473552 -2.35689e-19 0.00473552)
(0.00475566 -0.0021938 -4.43473e-05 0.00475566 -1.12945e-18 0.00475566)
(0.00475566 -0.0021938 -4.43473e-05 0.00475566 -2.54007e-19 0.00475566)
(0.00477501 -0.00220164 -4.51582e-05 0.00477501 -1.16923e-18 0.00477501)
(0.00477501 -0.00220164 -4.51582e-05 0.00477501 -2.96742e-19 0.00477501)
(0.0047936 -0.00220916 -4.59766e-05 0.0047936 -1.22332e-18 0.0047936)
(0.0047936 -0.00220916 -4.59766e-05 0.0047936 -2.51411e-19 0.0047936)
(0.00481148 -0.00221638 -4.68026e-05 0.00481148 -1.26638e-18 0.00481148)
(0.00481148 -0.00221638 -4.68026e-05 0.00481148 -2.16162e-19 0.00481148)
(0.00482865 -0.0022233 -4.76366e-05 0.00482865 -1.30403e-18 0.00482865)
(0.00482865 -0.0022233 -4.76366e-05 0.00482865 -2.26838e-19 0.00482865)
(0.00484515 -0.00222994 -4.84786e-05 0.00484515 -1.34415e-18 0.00484515)
(0.00484515 -0.00222994 -4.84786e-05 0.00484515 -1.7459e-19 0.00484515)
(0.004861 -0.00223631 -4.9329e-05 0.004861 -1.41128e-18 0.004861)
(0.004861 -0.00223631 -4.9329e-05 0.004861 -1.10554e-19 0.004861)
(0.00487622 -0.00224241 -5.01879e-05 0.00487622 -1.35426e-18 0.00487622)
(0.00487622 -0.00224241 -5.01879e-05 0.00487622 -1.28804e-19 0.00487622)
(0.00489084 -0.00224826 -5.10555e-05 0.00489084 -1.43466e-18 0.00489084)
(0.00489084 -0.00224826 -5.10555e-05 0.00489084 -1.78959e-19 0.00489084)
(0.00490488 -0.00225387 -5.1932e-05 0.00490488 -1.45812e-18 0.00490488)
(0.00490488 -0.00225387 -5.1932e-05 0.00490488 -1.42755e-19 0.00490488)
(0.00491835 -0.00225925 -5.28177e-05 0.00491835 -1.49001e-18 0.00491835)
(0.00491835 -0.00225925 -5.28177e-05 0.00491835 -2.11728e-20 0.00491835)
(0.00493128 -0.0022644 -5.37127e-05 0.00493128 -1.55269e-18 0.00493128)
(0.00493128 -0.0022644 -5.37127e-05 0.00493128 1.51058e-20 0.00493128)
(0.00494368 -0.00226933 -5.46172e-05 0.00494368 -1.60344e-18 0.00494368)
(0.00494368 -0.00226933 -5.46172e-05 0.00494368 -9.67302e-20 0.00494368)
(0.00495557 -0.00227405 -5.55315e-05 0.00495557 -1.63957e-18 0.00495557)
(0.00495557 -0.00227405 -5.55315e-05 0.00495557 -1.66236e-19 0.00495557)
(0.00496698 -0.00227856 -5.64556e-05 0.00496698 -1.67834e-18 0.00496698)
(0.00496698 -0.00227856 -5.64556e-05 0.00496698 -1.81259e-19 0.00496698)
(0.0049779 -0.00228288 -5.73899e-05 0.0049779 -1.73762e-18 0.0049779)
(0.0049779 -0.00228288 -5.73899e-05 0.0049779 -2.00566e-19 0.0049779)
(0.00498836 -0.00228701 -5.83344e-05 0.00498836 -1.81325e-18 0.00498836)
(0.00498836 -0.00228701 -5.83344e-05 0.00498836 -1.8042e-19 0.00498836)
(0.00499837 -0.00229096 -5.92895e-05 0.00499837 -1.87755e-18 0.00499837)
(0.00499837 -0.00229096 -5.92895e-05 0.00499837 -1.15854e-19 0.00499837)
(0.00500795 -0.00229473 -6.02551e-05 0.00500795 -1.92793e-18 0.00500795)
(0.00500795 -0.00229473 -6.02551e-05 0.00500795 -8.97233e-20 0.00500795)
(0.0050171 -0.00229832 -6.12316e-05 0.0050171 -1.98871e-18 0.0050171)
(0.0050171 -0.00229832 -6.12316e-05 0.0050171 -1.30478e-19 0.0050171)
(0.00502585 -0.00230175 -6.22192e-05 0.00502585 -2.05578e-18 0.00502585)
(0.00502585 -0.00230175 -6.22192e-05 0.00502585 -9.35635e-20 0.00502585)
(0.00503419 -0.00230501 -6.3218e-05 0.00503419 -2.1356e-18 0.00503419)
(0.00503419 -0.00230501 -6.3218e-05 0.00503419 -2.84785e-20 0.00503419)
(0.00504215 -0.00230811 -6.42281e-05 0.00504215 -2.23701e-18 0.00504215)
(0.00504215 -0.00230811 -6.42281e-05 0.00504215 -6.69126e-20 0.00504215)
(0.00504974 -0.00231106 -6.52498e-05 0.00504974 -2.31182e-18 0.00504974)
(0.00504974 -0.00231106 -6.52498e-05 0.00504974 -8.5384e-20 0.00504974)
(0.00505695 -0.00231386 -6.62833e-05 0.00505695 -2.34572e-18 0.00505695)
(0.00505695 -0.00231386 -6.62833e-05 0.00505695 -1.61955e-22 0.00505695)
(0.00506381 -0.00231652 -6.73287e-05 0.00506381 -2.37586e-18 0.00506381)
(0.00506381 -0.00231652 -6.73287e-05 0.00506381 2.02021e-20 0.00506381)
(0.00507032 -0.00231903 -6.83863e-05 0.00507032 -2.42306e-18 0.00507032)
(0.00507032 -0.00231903 -6.83863e-05 0.00507032 -1.10206e-20 0.00507032)
(0.00507649 -0.00232141 -6.94561e-05 0.00507649 -2.44423e-18 0.00507649)
(0.00507649 -0.00232141 -6.94561e-05 0.00507649 6.83637e-20 0.00507649)
(0.00508233 -0.00232364 -7.05384e-05 0.00508233 -2.4657e-18 0.00508233)
(0.00508233 -0.00232364 -7.05384e-05 0.00508233 1.68593e-19 0.00508233)
(0.00508785 -0.00232575 -7.16333e-05 0.00508785 -2.47853e-18 0.00508785)
(0.00508785 -0.00232575 -7.16333e-05 0.00508785 2.4241e-19 0.00508785)
(0.00509305 -0.00232773 -7.27411e-05 0.00509305 -2.50436e-18 0.00509305)
(0.00509305 -0.00232773 -7.27411e-05 0.00509305 2.74446e-19 0.00509305)
(0.00509795 -0.00232958 -7.38618e-05 0.00509795 -2.53151e-18 0.00509795)
(0.00509795 -0.00232958 -7.38618e-05 0.00509795 3.44267e-19 0.00509795)
(0.00510254 -0.00233131 -7.49958e-05 0.00510254 -2.5601e-18 0.00510254)
(0.00510254 -0.00233131 -7.49958e-05 0.00510254 5.40049e-19 0.00510254)
(0.00510684 -0.00233292 -7.6143e-05 0.00510684 -2.61818e-18 0.00510684)
(0.00510684 -0.00233292 -7.6143e-05 0.00510684 6.35257e-19 0.00510684)
(0.00511085 -0.00233442 -7.73038e-05 0.00511085 -2.66022e-18 0.00511085)
(0.00511085 -0.00233442 -7.73038e-05 0.00511085 6.50525e-19 0.00511085)
(0.00511458 -0.00233579 -7.84783e-05 0.00511458 -2.74159e-18 0.00511458)
(0.00511458 -0.00233579 -7.84783e-05 0.00511458 7.54879e-19 0.00511458)
(0.00511802 -0.00233706 -7.96667e-05 0.00511802 -2.77418e-18 0.00511802)
(0.00511802 -0.00233706 -7.96667e-05 0.00511802 8.86763e-19 0.00511802)
(0.0051212 -0.00233821 -8.08691e-05 0.0051212 -2.81788e-18 0.0051212)
(0.0051212 -0.00233821 -8.08691e-05 0.0051212 9.33355e-19 0.0051212)
(0.00512411 -0.00233925 -8.20857e-05 0.00512411 -2.87658e-18 0.00512411)
(0.00512411 -0.00233925 -8.20857e-05 0.00512411 1.11727e-18 0.00512411)
(0.00512676 -0.00234019 -8.33167e-05 0.00512676 -2.85019e-18 0.00512676)
(0.00512676 -0.00234019 -8.33167e-05 0.00512676 1.41102e-18 0.00512676)
(0.00512915 -0.00234102 -8.45623e-05 0.00512915 -2.87084e-18 0.00512915)
(0.00512915 -0.00234102 -8.45623e-05 0.00512915 1.58802e-18 0.00512915)
(0.00513129 -0.00234174 -8.58225e-05 0.00513129 -2.86792e-18 0.00513129)
(0.00513129 -0.00234174 -8.58225e-05 0.00513129 1.86318e-18 0.00513129)
(0.00513318 -0.00234237 -8.70977e-05 0.00513318 -2.92743e-18 0.00513318)
(0.00513318 -0.00234237 -8.70977e-05 0.00513318 1.96677e-18 0.00513318)
(0.00513483 -0.00234289 -8.83879e-05 0.00513483 -3.07818e-18 0.00513483)
(0.00513483 -0.00234289 -8.83879e-05 0.00513483 1.87571e-18 0.00513483)
(0.00513623 -0.00234331 -8.96934e-05 0.00513623 -3.17158e-18 0.00513623)
(0.00513623 -0.00234331 -8.96934e-05 0.00513623 2.06272e-18 0.00513623)
(0.0051374 -0.00234364 -9.10142e-05 0.0051374 -3.24119e-18 0.0051374)
(0.0051374 -0.00234364 -9.10142e-05 0.0051374 2.28187e-18 0.0051374)
(0.00513833 -0.00234387 -9.23506e-05 0.00513833 -3.40527e-18 0.00513833)
(0.00513833 -0.00234387 -9.23506e-05 0.00513833 2.1204e-18 0.00513833)
(0.00513904 -0.002344 -9.37028e-05 0.00513904 -3.56597e-18 0.00513904)
(0.00513904 -0.002344 -9.37028e-05 0.00513904 2.06508e-18 0.00513904)
(0.00513951 -0.00234404 -9.50708e-05 0.00513951 -3.65234e-18 0.00513951)
(0.00513951 -0.00234404 -9.50708e-05 0.00513951 2.29017e-18 0.00513951)
(0.00513976 -0.00234399 -9.64549e-05 0.00513976 -3.81118e-18 0.00513976)
(0.00513976 -0.00234399 -9.64549e-05 0.00513976 4.30353e-18 0.00513976)
(0.00513979 -0.00234385 -9.78553e-05 0.00513979 -4.07539e-18 0.00513979)
(0.00513979 -0.00234385 -9.78553e-05 0.00513979 6.29191e-18 0.00513979)
(0.0051396 -0.00234361 -9.92719e-05 0.0051396 -4.23138e-18 0.0051396)
(0.0051396 -0.00234361 -9.92719e-05 0.0051396 6.3842e-18 0.0051396)
(0.00513919 -0.00234328 -0.000100705 0.00513919 -4.21794e-18 0.00513919)
(0.00513919 -0.00234328 -0.000100705 0.00513919 6.51233e-18 0.00513919)
(0.00513857 -0.00234286 -0.000102155 0.00513857 -4.37175e-18 0.00513857)
(0.00513857 -0.00234286 -0.000102155 0.00513857 6.60868e-18 0.00513857)
(0.00513773 -0.00234236 -0.000103622 0.00513773 -4.53598e-18 0.00513773)
(0.00513773 -0.00234236 -0.000103622 0.00513773 6.6403e-18 0.00513773)
(0.00513668 -0.00234176 -0.000105106 0.00513668 -4.70028e-18 0.00513668)
(0.00513668 -0.00234176 -0.000105106 0.00513668 6.82987e-18 0.00513668)
(0.00513542 -0.00234108 -0.000106607 0.00513542 -4.94309e-18 0.00513542)
(0.00513542 -0.00234108 -0.000106607 0.00513542 7.22239e-18 0.00513542)
(0.00513396 -0.00234031 -0.000108125 0.00513396 -5.0474e-18 0.00513396)
(0.00513396 -0.00234031 -0.000108125 0.00513396 7.56631e-18 0.00513396)
(0.00513229 -0.00233946 -0.000109661 0.00513229 -5.0914e-18 0.00513229)
(0.00513229 -0.00233946 -0.000109661 0.00513229 7.87664e-18 0.00513229)
(0.00513042 -0.00233851 -0.000111214 0.00513042 -5.01903e-18 0.00513042)
(0.00513042 -0.00233851 -0.000111214 0.00513042 8.23306e-18 0.00513042)
(0.00512834 -0.00233748 -0.000112785 0.00512834 -5.0204e-18 0.00512834)
(0.00512834 -0.00233748 -0.000112785 0.00512834 8.64853e-18 0.00512834)
(0.00512607 -0.00233637 -0.000114374 0.00512607 -5.07027e-18 0.00512607)
(0.00512607 -0.00233637 -0.000114374 0.00512607 8.96309e-18 0.00512607)
(0.00512359 -0.00233517 -0.000115982 0.00512359 -5.03204e-18 0.00512359)
(0.00512359 -0.00233517 -0.000115982 0.00512359 9.32327e-18 0.00512359)
(0.00512091 -0.00233389 -0.000117607 0.00512091 -4.97417e-18 0.00512091)
(0.00512091 -0.00233389 -0.000117607 0.00512091 9.70069e-18 0.00512091)
(0.00511804 -0.00233252 -0.000119251 0.00511804 -5.04235e-18 0.00511804)
(0.00511804 -0.00233252 -0.000119251 0.00511804 1.00061e-17 0.00511804)
(0.00511497 -0.00233107 -0.000120913 0.00511497 -5.02057e-18 0.00511497)
(0.00511497 -0.00233107 -0.000120913 0.00511497 1.04363e-17 0.00511497)
(0.0051117 -0.00232953 -0.000122594 0.0051117 -4.85487e-18 0.0051117)
(0.0051117 -0.00232953 -0.000122594 0.0051117 1.07193e-17 0.0051117)
(0.00510824 -0.00232791 -0.000124293 0.00510824 -5.01653e-18 0.00510824)
(0.00510824 -0.00232791 -0.000124293 0.00510824 1.08968e-17 0.00510824)
(0.00510458 -0.0023262 -0.000126011 0.00510458 -4.69286e-18 0.00510458)
(0.00510458 -0.0023262 -0.000126011 0.00510458 1.12159e-17 0.00510458)
(0.00510073 -0.00232441 -0.000127749 0.00510073 7.70376e-19 0.00510073)
(0.00510073 -0.00232441 -0.000127749 0.00510073 1.14933e-17 0.00510073)
(0.00509668 -0.00232253 -0.000129505 0.00509668 1.1369e-17 0.00509668)
(0.00509668 -0.00232253 -0.000129505 0.00509668 1.16402e-17 0.00509668)
(0.00509244 -0.00232058 -0.000131281 0.00509244 1.14925e-17 0.00509244)
(0.00509244 -0.00232058 -0.000131281 0.00509244 1.20365e-17 0.00509244)
(0.005088 -0.00231853 -0.000133076 0.005088 1.17096e-17 0.005088)
(0.005088 -0.00231853 -0.000133076 0.005088 1.2493e-17 0.005088)
(0.00508338 -0.0023164 -0.000134891 0.00508338 1.18583e-17 0.00508338)
(0.00508338 -0.0023164 -0.000134891 0.00508338 1.26243e-17 0.00508338)
(0.00507856 -0.00231419 -0.000136725 0.00507856 1.18185e-17 0.00507856)
(0.00507856 -0.00231419 -0.000136725 0.00507856 1.25054e-17 0.00507856)
(0.00507355 -0.0023119 -0.000138578 0.00507355 1.24896e-17 0.00507355)
(0.00507355 -0.0023119 -0.000138578 0.00507355 1.24913e-17 0.00507355)
(0.00506834 -0.00230951 -0.000140452 0.00506834 1.30726e-17 0.00506834)
(0.00506834 -0.00230951 -0.000140452 0.00506834 1.24552e-17 0.00506834)
(0.00506294 -0.00230705 -0.000142345 0.00506294 1.34007e-17 0.00506294)
(0.00506294 -0.00230705 -0.000142345 0.00506294 1.24266e-17 0.00506294)
(0.00505735 -0.00230449 -0.000144258 0.00505735 1.413e-17 0.00505735)
(0.00505735 -0.00230449 -0.000144258 0.00505735 1.31656e-17 0.00505735)
(0.00505157 -0.00230185 -0.000146191 0.00505157 1.41958e-17 0.00505157)
(0.00505157 -0.00230185 -0.000146191 0.00505157 1.38447e-17 0.00505157)
(0.00504559 -0.00229913 -0.000148145 0.00504559 1.43895e-17 0.00504559)
(0.00504559 -0.00229913 -0.000148145 0.00504559 1.40978e-17 0.00504559)
(0.00503942 -0.00229632 -0.000150118 0.00503942 1.47901e-17 0.00503942)
(0.00503942 -0.00229632 -0.000150118 0.00503942 1.46303e-17 0.00503942)
(0.00503306 -0.00229342 -0.000152112 0.00503306 1.51099e-17 0.00503306)
(0.00503306 -0.00229342 -0.000152112 0.00503306 1.52613e-17 0.00503306)
(0.0050265 -0.00229043 -0.000154126 0.0050265 1.55958e-17 0.0050265)
(0.0050265 -0.00229043 -0.000154126 0.0050265 1.59312e-17 0.0050265)
(0.00501975 -0.00228736 -0.00015616 0.00501975 1.57927e-17 0.00501975)
(0.00501975 -0.00228736 -0.00015616 0.00501975 1.65707e-17 0.00501975)
(0.0050128 -0.00228419 -0.000158215 0.0050128 1.55083e-17 0.0050128)
(0.0050128 -0.00228419 -0.000158215 0.0050128 1.72022e-17 0.0050128)
(0.00500565 -0.00228094 -0.00016029 0.00500565 1.6263e-17 0.00500565)
(0.00500565 -0.00228094 -0.00016029 0.00500565 1.77451e-17 0.00500565)
(0.00499831 -0.0022776 -0.000162385 0.00499831 1.73697e-17 0.00499831)
(0.00499831 -0.0022776 -0.000162385 0.00499831 1.7757e-17 0.00499831)
(0.00499077 -0.00227417 -0.000164501 0.00499077 1.72377e-17 0.00499077)
(0.00499077 -0.00227417 -0.000164501 0.00499077 1.77557e-17 0.00499077)
(0.00498304 -0.00227065 -0.000166638 0.00498304 1.78983e-17 0.00498304)
(0.00498304 -0.00227065 -0.000166638 0.00498304 1.82437e-17 0.00498304)
(0.0049751 -0.00226704 -0.000168795 0.0049751 1.84423e-17 0.0049751)
(0.0049751 -0.00226704 -0.000168795 0.0049751 1.87122e-17 0.0049751)
(0.00496697 -0.00226333 -0.000170972 0.00496697 1.8328e-17 0.00496697)
(0.00496697 -0.00226333 -0.000170972 0.00496697 1.91247e-17 0.00496697)
(0.00495863 -0.00225953 -0.00017317 0.00495863 1.81248e-17 0.00495863)
(0.00495863 -0.00225953 -0.00017317 0.00495863 1.98926e-17 0.00495863)
(0.00495009 -0.00225564 -0.000175388 0.00495009 1.88008e-17 0.00495009)
(0.00495009 -0.00225564 -0.000175388 0.00495009 2.10192e-17 0.00495009)
(0.00494135 -0.00225166 -0.000177627 0.00494135 1.89195e-17 0.00494135)
(0.00494135 -0.00225166 -0.000177627 0.00494135 2.21828e-17 0.00494135)
(0.00493241 -0.00224758 -0.000179886 0.00493241 1.87971e-17 0.00493241)
(0.00493241 -0.00224758 -0.000179886 0.00493241 2.25978e-17 0.00493241)
(0.00492326 -0.0022434 -0.000182165 0.00492326 1.91005e-17 0.00492326)
(0.00492326 -0.0022434 -0.000182165 0.00492326 2.28371e-17 0.00492326)
(0.0049139 -0.00223913 -0.000184465 0.0049139 1.8849e-17 0.0049139)
(0.0049139 -0.00223913 -0.000184465 0.0049139 2.38024e-17 0.0049139)
(0.00490434 -0.00223476 -0.000186784 0.00490434 1.91054e-17 0.00490434)
(0.00490434 -0.00223476 -0.000186784 0.00490434 2.47405e-17 0.00490434)
(0.00489457 -0.0022303 -0.000189124 0.00489457 1.89344e-17 0.00489457)
(0.00489457 -0.0022303 -0.000189124 0.00489457 2.54779e-17 0.00489457)
(0.00488459 -0.00222573 -0.000191484 0.00488459 1.92268e-17 0.00488459)
(0.00488459 -0.00222573 -0.000191484 0.00488459 2.61758e-17 0.00488459)
(0.0048744 -0.00222107 -0.000193863 0.0048744 1.92122e-17 0.0048744)
(0.0048744 -0.00222107 -0.000193863 0.0048744 2.66566e-17 0.0048744)
(0.00486399 -0.0022163 -0.000196263 0.00486399 1.90035e-17 0.00486399)
(0.00486399 -0.0022163 -0.000196263 0.00486399 2.66377e-17 0.00486399)
(0.00485338 -0.00221143 -0.000198681 0.00485338 1.93225e-17 0.00485338)
(0.00485338 -0.00221143 -0.000198681 0.00485338 2.63671e-17 0.00485338)
(0.00484254 -0.00220646 -0.00020112 0.00484254 1.94003e-17 0.00484254)
(0.00484254 -0.00220646 -0.00020112 0.00484254 2.62137e-17 0.00484254)
(0.00483149 -0.00220139 -0.000203577 0.00483149 1.98448e-17 0.00483149)
(0.00483149 -0.00220139 -0.000203577 0.00483149 2.62986e-17 0.00483149)
(0.00482022 -0.00219621 -0.000206053 0.00482022 1.9836e-17 0.00482022)
(0.00482022 -0.00219621 -0.000206053 0.00482022 2.63695e-17 0.00482022)
(0.00480874 -0.00219093 -0.000208549 0.00480874 1.95785e-17 0.00480874)
(0.00480874 -0.00219093 -0.000208549 0.00480874 2.65933e-17 0.00480874)
(0.00479702 -0.00218554 -0.000211062 0.00479702 1.94898e-17 0.00479702)
(0.00479702 -0.00218554 -0.000211062 0.00479702 2.73591e-17 0.00479702)
(0.00478509 -0.00218004 -0.000213595 0.00478509 2.01025e-17 0.00478509)
(0.00478509 -0.00218004 -0.000213595 0.00478509 2.749e-17 0.00478509)
(0.00477293 -0.00217443 -0.000216145 0.00477293 2.18154e-17 0.00477293)
(0.00477293 -0.00217443 -0.000216145 0.00477293 2.78099e-17 0.00477293)
(0.00476055 -0.00216871 -0.000218713 0.00476055 2.18025e-17 0.00476055)
(0.00476055 -0.00216871 -0.000218713 0.00476055 2.88218e-17 0.00476055)
(0.00474793 -0.00216288 -0.000221298 0.00474793 2.21341e-17 0.00474793)
(0.00474793 -0.00216288 -0.000221298 0.00474793 2.94348e-17 0.00474793)