/*--------------------------------*- C++ -*----------------------------------*\
| =========                 |                                                 |
| \\      /  F ield         | OpenFOAM: The Open Source CFD Toolbox           |
|  \\    /   O peration     | Version:  2012                                  |
|   \\  /    A nd           | Website:  www.openfoam.com                      |
|    \\/     M anipulation  |                                                 |
\*---------------------------------------------------------------------------*/
FoamFile
{
    version     2.0;
    format      ascii;
    class       volSymmTensorField;
    location    "7000";
    object      turbulenceProperties:R;
}
// * * * * * * * * * * * * * * * * * * * * * * * * * * * * * * * * * * * * * //

dimensions      [0 2 -2 0 0 0 0];


internalField   nonuniform List<symmTensor> 
2560
(
(3.01829e-07 -3.01524e-11 -4.36487e-14 3.01829e-07 6.76303e-26 3.01829e-07)
(3.01829e-07 -3.01524e-11 -4.36487e-14 3.01829e-07 -1.61093e-30 3.01829e-07)
(5.44458e-08 -3.12593e-11 -1.36417e-13 5.44458e-08 1.19395e-26 5.44458e-08)
(5.44458e-08 -3.12593e-11 -1.36417e-13 5.44458e-08 -3.87958e-30 5.44458e-08)
(8.62962e-08 -1.46145e-10 -8.7725e-13 8.62962e-08 3.42857e-26 8.62962e-08)
(8.62962e-08 -1.46145e-10 -8.7725e-13 8.62962e-08 -4.5026e-29 8.62962e-08)
(2.75015e-07 -9.87535e-10 -6.01394e-12 2.75015e-07 3.17256e-25 2.75015e-07)
(2.75015e-07 -9.87535e-10 -6.01394e-12 2.75015e-07 -6.23546e-28 2.75015e-07)
(7.0839e-07 -4.48709e-09 -2.77228e-11 7.0839e-07 8.38763e-25 7.0839e-07)
(7.0839e-07 -4.48709e-09 -2.77228e-11 7.0839e-07 -2.97879e-27 7.0839e-07)
(1.51154e-06 -1.50718e-08 -9.4472e-11 1.51154e-06 3.28634e-24 1.51154e-06)
(1.51154e-06 -1.50718e-08 -9.4472e-11 1.51154e-06 -1.01679e-26 1.51154e-06)
(2.83323e-06 -4.12025e-08 -2.62014e-10 2.83323e-06 8.63405e-24 2.83323e-06)
(2.83323e-06 -4.12025e-08 -2.62014e-10 2.83323e-06 -2.79813e-26 2.83323e-06)
(4.84407e-06 -9.73008e-08 -6.27741e-10 4.84407e-06 2.08653e-23 4.84407e-06)
(4.84407e-06 -9.73008e-08 -6.27741e-10 4.84407e-06 -7.16314e-26 4.84407e-06)
(7.73665e-06 -2.06096e-07 -1.34895e-09 7.73665e-06 4.51859e-23 7.73665e-06)
(7.73665e-06 -2.06096e-07 -1.34895e-09 7.73665e-06 -1.68628e-25 7.73665e-06)
(1.1726e-05 -4.01415e-07 -2.66548e-09 1.1726e-05 8.97039e-23 1.1726e-05)
(1.1726e-05 -4.01415e-07 -2.66548e-09 1.1726e-05 -3.52235e-25 1.1726e-05)
(1.70502e-05 -7.31413e-07 -4.92716e-09 1.70502e-05 1.66437e-22 1.70502e-05)
(1.70502e-05 -7.31413e-07 -4.92716e-09 1.70502e-05 -6.55453e-25 1.70502e-05)
(2.39707e-05 -1.26222e-06 -8.6261e-09 2.39707e-05 2.92133e-22 2.39707e-05)
(2.39707e-05 -1.26222e-06 -8.6261e-09 2.39707e-05 -1.14841e-24 2.39707e-05)
(3.27725e-05 -2.08192e-06 -1.44338e-08 3.27725e-05 4.89391e-22 3.27725e-05)
(3.27725e-05 -2.08192e-06 -1.44338e-08 3.27725e-05 -2.07183e-24 3.27725e-05)
(4.37638e-05 -3.30472e-06 -2.32423e-08 4.37638e-05 7.8776e-22 4.37638e-05)
(4.37638e-05 -3.30472e-06 -2.32423e-08 4.37638e-05 -3.41302e-24 4.37638e-05)
(5.72747e-05 -5.07505e-06 -3.62074e-08 5.72747e-05 1.22498e-21 5.72747e-05)
(5.72747e-05 -5.07505e-06 -3.62074e-08 5.72747e-05 -4.88605e-24 5.72747e-05)
(7.36554e-05 -7.57131e-06 -5.47929e-08 7.36554e-05 1.84727e-21 7.36554e-05)
(7.36554e-05 -7.57131e-06 -5.47929e-08 7.36554e-05 -8.20647e-24 7.36554e-05)
(9.3273e-05 -1.10087e-05 -8.08102e-08 9.3273e-05 2.70796e-21 9.3273e-05)
(9.3273e-05 -1.10087e-05 -8.08102e-08 9.3273e-05 -1.44093e-23 9.3273e-05)
(0.000116507 -1.56407e-05 -1.1645e-07 0.000116507 3.86767e-21 0.000116507)
(0.000116507 -1.56407e-05 -1.1645e-07 0.000116507 -2.16926e-23 0.000116507)
(0.000143742 -2.17585e-05 -1.643e-07 0.000143742 5.39136e-21 0.000143742)
(0.000143742 -2.17585e-05 -1.643e-07 0.000143742 -3.15844e-23 0.000143742)
(0.000175363 -2.96874e-05 -2.2734e-07 0.000175363 7.34336e-21 0.000175363)
(0.000175363 -2.96874e-05 -2.2734e-07 0.000175363 -4.26006e-23 0.000175363)
(0.000211739 -3.97802e-05 -3.08911e-07 0.000211739 9.78362e-21 0.000211739)
(0.000211739 -3.97802e-05 -3.08911e-07 0.000211739 -5.77576e-23 0.000211739)
(0.000253219 -5.24066e-05 -4.12648e-07 0.000253219 1.27447e-20 0.000253219)
(0.000253219 -5.24066e-05 -4.12648e-07 0.000253219 -9.13998e-23 0.000253219)
(0.000300112 -6.79387e-05 -5.42379e-07 0.000300112 1.62407e-20 0.000300112)
(0.000300112 -6.79387e-05 -5.42379e-07 0.000300112 -1.28529e-22 0.000300112)
(0.000352676 -8.6733e-05 -7.0198e-07 0.000352676 2.02706e-20 0.000352676)
(0.000352676 -8.6733e-05 -7.0198e-07 0.000352676 -1.73595e-22 0.000352676)
(0.000411104 -0.00010911 -8.9521e-07 0.000411104 2.47708e-20 0.000411104)
(0.000411104 -0.00010911 -8.9521e-07 0.000411104 -2.26584e-22 0.000411104)
(0.000475506 -0.000135331 -1.12551e-06 0.000475506 2.95984e-20 0.000475506)
(0.000475506 -0.000135331 -1.12551e-06 0.000475506 -2.33293e-22 0.000475506)
(0.0005459 -0.000165581 -1.39581e-06 0.0005459 3.46441e-20 0.0005459)
(0.0005459 -0.000165581 -1.39581e-06 0.0005459 -2.55891e-22 0.0005459)
(0.000622204 -0.00019995 -1.70836e-06 0.000622204 3.97079e-20 0.000622204)
(0.000622204 -0.00019995 -1.70836e-06 0.000622204 -3.54773e-22 0.000622204)
(0.000704229 -0.000238417 -2.06456e-06 0.000704229 4.4563e-20 0.000704229)
(0.000704229 -0.000238417 -2.06456e-06 0.000704229 -5.55803e-22 0.000704229)
(0.00079168 -0.000280853 -2.46487e-06 0.00079168 4.89928e-20 0.00079168)
(0.00079168 -0.000280853 -2.46487e-06 0.00079168 -8.19346e-22 0.00079168)
(0.000884161 -0.000327017 -2.90879e-06 0.000884161 5.27564e-20 0.000884161)
(0.000884161 -0.000327017 -2.90879e-06 0.000884161 -9.51381e-22 0.000884161)
(0.000981187 -0.00037657 -3.39488e-06 0.000981187 5.57454e-20 0.000981187)
(0.000981187 -0.00037657 -3.39488e-06 0.000981187 -9.56371e-22 0.000981187)
(0.0010822 -0.000429089 -3.92087e-06 0.0010822 5.77684e-20 0.0010822)
(0.0010822 -0.000429089 -3.92087e-06 0.0010822 -1.01802e-21 0.0010822)
(0.00118658 -0.000484093 -4.48376e-06 0.00118658 5.88216e-20 0.00118658)
(0.00118658 -0.000484093 -4.48376e-06 0.00118658 -1.09981e-21 0.00118658)
(0.00129366 -0.000541061 -5.08005e-06 0.00129366 5.89974e-20 0.00129366)
(0.00129366 -0.000541061 -5.08005e-06 0.00129366 -1.48596e-21 0.00129366)
(0.00140279 -0.000599459 -5.70586e-06 0.00140279 5.82863e-20 0.00140279)
(0.00140279 -0.000599459 -5.70586e-06 0.00140279 -2.22045e-21 0.00140279)
(0.00151329 -0.00065876 -6.35716e-06 0.00151329 5.69845e-20 0.00151329)
(0.00151329 -0.00065876 -6.35716e-06 0.00151329 -2.51109e-21 0.00151329)
(0.00162452 -0.000718463 -7.02992e-06 0.00162452 5.49924e-20 0.00162452)
(0.00162452 -0.000718463 -7.02992e-06 0.00162452 -2.73627e-21 0.00162452)
(0.00173584 -0.000778104 -7.72022e-06 0.00173584 5.26274e-20 0.00173584)
(0.00173584 -0.000778104 -7.72022e-06 0.00173584 -2.9231e-21 0.00173584)
(0.00184669 -0.00083727 -8.42439e-06 0.00184669 5.03446e-20 0.00184669)
(0.00184669 -0.00083727 -8.42439e-06 0.00184669 -2.78179e-21 0.00184669)
(0.00195656 -0.000895601 -9.13907e-06 0.00195656 4.82544e-20 0.00195656)
(0.00195656 -0.000895601 -9.13907e-06 0.00195656 -3.26036e-21 0.00195656)
(0.00206498 -0.000952794 -9.86125e-06 0.00206498 4.62112e-20 0.00206498)
(0.00206498 -0.000952794 -9.86125e-06 0.00206498 -3.81183e-21 0.00206498)
(0.00217156 -0.0010086 -1.05883e-05 0.00217156 4.45861e-20 0.00217156)
(0.00217156 -0.0010086 -1.05883e-05 0.00217156 -4.6726e-21 0.00217156)
(0.00227594 -0.00106282 -1.13179e-05 0.00227594 4.39339e-20 0.00227594)
(0.00227594 -0.00106282 -1.13179e-05 0.00227594 -5.8393e-21 0.00227594)
(0.00237784 -0.0011153 -1.20483e-05 0.00237784 4.40595e-20 0.00237784)
(0.00237784 -0.0011153 -1.20483e-05 0.00237784 -5.00581e-21 0.00237784)
(0.00247705 -0.00116594 -1.27777e-05 0.00247705 4.53886e-20 0.00247705)
(0.00247705 -0.00116594 -1.27777e-05 0.00247705 -4.34966e-21 0.00247705)
(0.00257336 -0.00121466 -1.35051e-05 0.00257336 4.79667e-20 0.00257336)
(0.00257336 -0.00121466 -1.35051e-05 0.00257336 -5.68623e-21 0.00257336)
(0.00266666 -0.00126143 -1.42293e-05 0.00266666 5.08843e-20 0.00266666)
(0.00266666 -0.00126143 -1.42293e-05 0.00266666 -6.98011e-21 0.00266666)
(0.00275684 -0.00130623 -1.49497e-05 0.00275684 5.51384e-20 0.00275684)
(0.00275684 -0.00130623 -1.49497e-05 0.00275684 -6.89288e-21 0.00275684)
(0.00284384 -0.00134907 -1.56657e-05 0.00284384 6.0507e-20 0.00284384)
(0.00284384 -0.00134907 -1.56657e-05 0.00284384 -7.28529e-21 0.00284384)
(0.00292764 -0.00138996 -1.6377e-05 0.00292764 6.68174e-20 0.00292764)
(0.00292764 -0.00138996 -1.6377e-05 0.00292764 -9.21232e-21 0.00292764)
(0.00300823 -0.00142895 -1.70833e-05 0.00300823 7.51191e-20 0.00300823)
(0.00300823 -0.00142895 -1.70833e-05 0.00300823 -9.41588e-21 0.00300823)
(0.00308563 -0.00146608 -1.77846e-05 0.00308563 8.38025e-20 0.00308563)
(0.00308563 -0.00146608 -1.77846e-05 0.00308563 -8.98742e-21 0.00308563)
(0.00315988 -0.00150141 -1.84808e-05 0.00315988 9.34736e-20 0.00315988)
(0.00315988 -0.00150141 -1.84808e-05 0.00315988 -8.1715e-21 0.00315988)
(0.00323102 -0.001535 -1.9172e-05 0.00323102 1.04494e-19 0.00323102)
(0.00323102 -0.001535 -1.9172e-05 0.00323102 -7.74855e-21 0.00323102)
(0.00329911 -0.0015669 -1.98585e-05 0.00329911 1.17782e-19 0.00329911)
(0.00329911 -0.0015669 -1.98585e-05 0.00329911 -1.06005e-20 0.00329911)
(0.00336423 -0.00159719 -2.05404e-05 0.00336423 1.33311e-19 0.00336423)
(0.00336423 -0.00159719 -2.05404e-05 0.00336423 -1.46299e-20 0.00336423)
(0.00342645 -0.00162593 -2.12179e-05 0.00342645 1.49279e-19 0.00342645)
(0.00342645 -0.00162593 -2.12179e-05 0.00342645 -1.48717e-20 0.00342645)
(0.00348586 -0.00165319 -2.18913e-05 0.00348586 1.29268e-19 0.00348586)
(0.00348586 -0.00165319 -2.18913e-05 0.00348586 -1.21176e-20 0.00348586)
(0.00354255 -0.00167903 -2.25609e-05 0.00354255 6.1912e-22 0.00354255)
(0.00354255 -0.00167903 -2.25609e-05 0.00354255 -8.41225e-21 0.00354255)
(0.00359659 -0.0017035 -2.3227e-05 0.00359659 -1.7786e-19 0.00359659)
(0.00359659 -0.0017035 -2.3227e-05 0.00359659 -1.09389e-20 0.00359659)
(0.00364808 -0.00172669 -2.38899e-05 0.00364808 -1.7165e-19 0.00364808)
(0.00364808 -0.00172669 -2.38899e-05 0.00364808 -1.70624e-20 0.00364808)
(0.00369712 -0.00174864 -2.455e-05 0.00369712 -1.62511e-19 0.00369712)
(0.00369712 -0.00174864 -2.455e-05 0.00369712 -1.51475e-20 0.00369712)
(0.00374377 -0.00176941 -2.52075e-05 0.00374377 -1.5219e-19 0.00374377)
(0.00374377 -0.00176941 -2.52075e-05 0.00374377 -1.66902e-20 0.00374377)
(0.00378815 -0.00178906 -2.58627e-05 0.00378815 -1.45365e-19 0.00378815)
(0.00378815 -0.00178906 -2.58627e-05 0.00378815 -2.60998e-20 0.00378815)
(0.00383032 -0.00180763 -2.6516e-05 0.00383032 -1.38731e-19 0.00383032)
(0.00383032 -0.00180763 -2.6516e-05 0.00383032 -3.37683e-20 0.00383032)
(0.00387038 -0.00182519 -2.71677e-05 0.00387038 -1.28904e-19 0.00387038)
(0.00387038 -0.00182519 -2.71677e-05 0.00387038 -3.12128e-20 0.00387038)
(0.00390841 -0.00184177 -2.78181e-05 0.00390841 -1.27837e-19 0.00390841)
(0.00390841 -0.00184177 -2.78181e-05 0.00390841 -2.67507e-20 0.00390841)
(0.00394448 -0.00185743 -2.84674e-05 0.00394448 -1.11567e-19 0.00394448)
(0.00394448 -0.00185743 -2.84674e-05 0.00394448 -3.00939e-20 0.00394448)
(0.00397867 -0.0018722 -2.9116e-05 0.00397867 -9.73547e-20 0.00397867)
(0.00397867 -0.0018722 -2.9116e-05 0.00397867 -3.71058e-20 0.00397867)
(0.00401106 -0.00188612 -2.9764e-05 0.00401106 -9.6073e-20 0.00401106)
(0.00401106 -0.00188612 -2.9764e-05 0.00401106 -4.34447e-20 0.00401106)
(0.00404171 -0.00189925 -3.04118e-05 0.00404171 -8.43663e-20 0.00404171)
(0.00404171 -0.00189925 -3.04118e-05 0.00404171 -4.62825e-20 0.00404171)
(0.00407069 -0.0019116 -3.10597e-05 0.00407069 -7.4399e-20 0.00407069)
(0.00407069 -0.0019116 -3.10597e-05 0.00407069 -4.10347e-20 0.00407069)
(0.00409808 -0.00192322 -3.17078e-05 0.00409808 -6.56575e-20 0.00409808)
(0.00409808 -0.00192322 -3.17078e-05 0.00409808 -3.3192e-20 0.00409808)
(0.00412392 -0.00193413 -3.23564e-05 0.00412392 -5.74275e-20 0.00412392)
(0.00412392 -0.00193413 -3.23564e-05 0.00412392 -3.43511e-20 0.00412392)
(0.00414829 -0.00194438 -3.30057e-05 0.00414829 -5.06229e-20 0.00414829)
(0.00414829 -0.00194438 -3.30057e-05 0.00414829 -3.33036e-20 0.00414829)
(0.00417124 -0.00195399 -3.36559e-05 0.00417124 -3.94198e-20 0.00417124)
(0.00417124 -0.00195399 -3.36559e-05 0.00417124 -3.12023e-20 0.00417124)
(0.00419283 -0.00196298 -3.43073e-05 0.00419283 -2.9668e-20 0.00419283)
(0.00419283 -0.00196298 -3.43073e-05 0.00419283 -2.86463e-20 0.00419283)
(0.0042131 -0.00197138 -3.496e-05 0.0042131 -1.70659e-20 0.0042131)
(0.0042131 -0.00197138 -3.496e-05 0.0042131 -3.4451e-20 0.0042131)
(0.00423212 -0.00197923 -3.56143e-05 0.00423212 1.93897e-22 0.00423212)
(0.00423212 -0.00197923 -3.56143e-05 0.00423212 -4.40144e-20 0.00423212)
(0.00424991 -0.00198653 -3.62702e-05 0.00424991 -2.42187e-21 0.00424991)
(0.00424991 -0.00198653 -3.62702e-05 0.00424991 -4.1019e-20 0.00424991)
(0.00426655 -0.00199332 -3.69281e-05 0.00426655 6.69819e-21 0.00426655)
(0.00426655 -0.00199332 -3.69281e-05 0.00426655 -3.07247e-20 0.00426655)
(0.00428205 -0.00199961 -3.7588e-05 0.00428205 3.28121e-20 0.00428205)
(0.00428205 -0.00199961 -3.7588e-05 0.00428205 -4.07358e-20 0.00428205)
(0.00429648 -0.00200543 -3.82502e-05 0.00429648 4.09475e-20 0.00429648)
(0.00429648 -0.00200543 -3.82502e-05 0.00429648 -5.8339e-20 0.00429648)
(0.00430987 -0.00201079 -3.89147e-05 0.00430987 5.17241e-20 0.00430987)
(0.00430987 -0.00201079 -3.89147e-05 0.00430987 -4.9149e-20 0.00430987)
(0.00432225 -0.00201571 -3.95818e-05 0.00432225 7.25676e-20 0.00432225)
(0.00432225 -0.00201571 -3.95818e-05 0.00432225 -4.26504e-20 0.00432225)
(0.00433367 -0.00202021 -4.02515e-05 0.00433367 8.87791e-20 0.00433367)
(0.00433367 -0.00202021 -4.02515e-05 0.00433367 -3.24988e-20 0.00433367)
(0.00434415 -0.00202431 -4.09241e-05 0.00434415 1.14312e-19 0.00434415)
(0.00434415 -0.00202431 -4.09241e-05 0.00434415 -2.55533e-20 0.00434415)
(0.00435374 -0.00202802 -4.15996e-05 0.00435374 1.28024e-19 0.00435374)
(0.00435374 -0.00202802 -4.15996e-05 0.00435374 -5.04328e-20 0.00435374)
(0.00436246 -0.00203135 -4.22782e-05 0.00436246 1.51484e-19 0.00436246)
(0.00436246 -0.00203135 -4.22782e-05 0.00436246 -5.38277e-20 0.00436246)
(0.00437035 -0.00203432 -4.29601e-05 0.00437035 1.89951e-19 0.00437035)
(0.00437035 -0.00203432 -4.29601e-05 0.00437035 -4.41243e-20 0.00437035)
(0.00437743 -0.00203694 -4.36452e-05 0.00437743 1.80833e-19 0.00437743)
(0.00437743 -0.00203694 -4.36452e-05 0.00437743 -5.91942e-20 0.00437743)
(0.00438373 -0.00203923 -4.43338e-05 0.00438373 1.83476e-19 0.00438373)
(0.00438373 -0.00203923 -4.43338e-05 0.00438373 -4.72402e-20 0.00438373)
(0.00438928 -0.00204119 -4.5026e-05 0.00438928 2.15182e-19 0.00438928)
(0.00438928 -0.00204119 -4.5026e-05 0.00438928 -3.26342e-20 0.00438928)
(0.00439411 -0.00204284 -4.57219e-05 0.00439411 2.29789e-19 0.00439411)
(0.00439411 -0.00204284 -4.57219e-05 0.00439411 -3.8743e-20 0.00439411)
(0.00439824 -0.00204419 -4.64216e-05 0.00439824 2.4702e-19 0.00439824)
(0.00439824 -0.00204419 -4.64216e-05 0.00439824 -5.63202e-20 0.00439824)
(0.00440168 -0.00204526 -4.71251e-05 0.00440168 3.18769e-19 0.00440168)
(0.00440168 -0.00204526 -4.71251e-05 0.00440168 -6.13211e-20 0.00440168)
(0.00440447 -0.00204604 -4.78327e-05 0.00440447 3.58741e-19 0.00440447)
(0.00440447 -0.00204604 -4.78327e-05 0.00440447 -3.41322e-20 0.00440447)
(0.00440663 -0.00204655 -4.85443e-05 0.00440663 3.29389e-19 0.00440663)
(0.00440663 -0.00204655 -4.85443e-05 0.00440663 -5.68321e-21 0.00440663)
(0.00440818 -0.0020468 -4.92601e-05 0.00440818 3.47295e-19 0.00440818)
(0.00440818 -0.0020468 -4.92601e-05 0.00440818 1.10291e-21 0.00440818)
(0.00440913 -0.00204679 -4.99802e-05 0.00440913 4.34998e-19 0.00440913)
(0.00440913 -0.00204679 -4.99802e-05 0.00440913 -1.51386e-20 0.00440913)
(0.00440951 -0.00204655 -5.07047e-05 0.00440951 4.68191e-19 0.00440951)
(0.00440951 -0.00204655 -5.07047e-05 0.00440951 -8.92427e-21 0.00440951)
(0.00440934 -0.00204606 -5.14337e-05 0.00440934 4.40294e-19 0.00440934)
(0.00440934 -0.00204606 -5.14337e-05 0.00440934 1.3868e-20 0.00440934)
(0.00440862 -0.00204535 -5.21672e-05 0.00440862 4.94293e-19 0.00440862)
(0.00440862 -0.00204535 -5.21672e-05 0.00440862 3.42241e-20 0.00440862)
(0.00440739 -0.00204442 -5.29053e-05 0.00440739 5.40161e-19 0.00440739)
(0.00440739 -0.00204442 -5.29053e-05 0.00440739 4.82595e-20 0.00440739)
(0.00440565 -0.00204327 -5.36482e-05 0.00440565 5.3767e-19 0.00440565)
(0.00440565 -0.00204327 -5.36482e-05 0.00440565 6.01643e-20 0.00440565)
(0.00440342 -0.00204192 -5.43958e-05 0.00440342 5.69567e-19 0.00440342)
(0.00440342 -0.00204192 -5.43958e-05 0.00440342 7.21289e-20 0.00440342)
(0.00440072 -0.00204036 -5.51484e-05 0.00440072 6.38899e-19 0.00440072)
(0.00440072 -0.00204036 -5.51484e-05 0.00440072 9.43516e-20 0.00440072)
(0.00439756 -0.00203861 -5.59059e-05 0.00439756 6.67463e-19 0.00439756)
(0.00439756 -0.00203861 -5.59059e-05 0.00439756 1.31862e-19 0.00439756)
(0.00439395 -0.00203667 -5.66684e-05 0.00439395 6.94306e-19 0.00439395)
(0.00439395 -0.00203667 -5.66684e-05 0.00439395 1.5516e-19 0.00439395)
(0.00438992 -0.00203455 -5.7436e-05 0.00438992 7.6353e-19 0.00438992)
(0.00438992 -0.00203455 -5.7436e-05 0.00438992 1.78388e-19 0.00438992)
(0.00438546 -0.00203226 -5.82089e-05 0.00438546 7.66849e-19 0.00438546)
(0.00438546 -0.00203226 -5.82089e-05 0.00438546 2.11581e-19 0.00438546)
(0.0043806 -0.00202979 -5.8987e-05 0.0043806 7.55439e-19 0.0043806)
(0.0043806 -0.00202979 -5.8987e-05 0.0043806 2.42155e-19 0.0043806)
(0.00437534 -0.00202715 -5.97704e-05 0.00437534 8.75479e-19 0.00437534)
(0.00437534 -0.00202715 -5.97704e-05 0.00437534 2.32144e-19 0.00437534)
(0.0043697 -0.00202436 -6.05592e-05 0.0043697 1.05167e-18 0.0043697)
(0.0043697 -0.00202436 -6.05592e-05 0.0043697 2.35877e-19 0.0043697)
(0.00436369 -0.00202141 -6.13535e-05 0.00436369 1.05354e-18 0.00436369)
(0.00436369 -0.00202141 -6.13535e-05 0.00436369 2.46356e-19 0.00436369)
(0.00435732 -0.0020183 -6.21534e-05 0.00435732 1.10539e-18 0.00435732)
(0.00435732 -0.0020183 -6.21534e-05 0.00435732 2.6264e-19 0.00435732)
(0.0043506 -0.00201505 -6.29588e-05 0.0043506 1.16742e-18 0.0043506)
(0.0043506 -0.00201505 -6.29588e-05 0.0043506 2.75438e-19 0.0043506)
(0.00434354 -0.00201166 -6.37699e-05 0.00434354 1.15311e-18 0.00434354)
(0.00434354 -0.00201166 -6.37699e-05 0.00434354 2.62857e-19 0.00434354)
(0.00433615 -0.00200813 -6.45868e-05 0.00433615 1.25481e-18 0.00433615)
(0.00433615 -0.00200813 -6.45868e-05 0.00433615 3.14801e-19 0.00433615)
(0.00432844 -0.00200446 -6.54095e-05 0.00432844 1.34307e-18 0.00432844)
(0.00432844 -0.00200446 -6.54095e-05 0.00432844 3.09354e-19 0.00432844)
(0.00432043 -0.00200067 -6.6238e-05 0.00432043 1.35139e-18 0.00432043)
(0.00432043 -0.00200067 -6.6238e-05 0.00432043 2.84571e-19 0.00432043)
(0.0043121 -0.00199675 -6.70725e-05 0.0043121 1.41852e-18 0.0043121)
(0.0043121 -0.00199675 -6.70725e-05 0.0043121 5.64042e-19 0.0043121)
(0.00430349 -0.0019927 -6.7913e-05 0.00430349 1.50485e-18 0.00430349)
(0.00430349 -0.0019927 -6.7913e-05 0.00430349 1.91787e-18 0.00430349)
(0.00429459 -0.00198854 -6.87596e-05 0.00429459 1.51587e-18 0.00429459)
(0.00429459 -0.00198854 -6.87596e-05 0.00429459 2.98124e-18 0.00429459)
(0.00428541 -0.00198426 -6.96123e-05 0.00428541 1.61876e-18 0.00428541)
(0.00428541 -0.00198426 -6.96123e-05 0.00428541 3.05062e-18 0.00428541)
(0.00427597 -0.00197987 -7.04711e-05 0.00427597 1.66856e-18 0.00427597)
(0.00427597 -0.00197987 -7.04711e-05 0.00427597 3.24688e-18 0.00427597)
(0.00426626 -0.00197537 -7.13362e-05 0.00426626 1.76887e-18 0.00426626)
(0.00426626 -0.00197537 -7.13362e-05 0.00426626 3.36831e-18 0.00426626)
(0.0042563 -0.00197076 -7.22076e-05 0.0042563 1.95732e-18 0.0042563)
(0.0042563 -0.00197076 -7.22076e-05 0.0042563 3.50727e-18 0.0042563)
(0.0042461 -0.00196605 -7.30854e-05 0.0042461 1.97581e-18 0.0042461)
(0.0042461 -0.00196605 -7.30854e-05 0.0042461 3.45967e-18 0.0042461)
(0.00423565 -0.00196125 -7.39696e-05 0.00423565 1.9251e-18 0.00423565)
(0.00423565 -0.00196125 -7.39696e-05 0.00423565 3.36795e-18 0.00423565)
(0.00422498 -0.00195634 -7.48603e-05 0.00422498 2.03831e-18 0.00422498)
(0.00422498 -0.00195634 -7.48603e-05 0.00422498 3.70274e-18 0.00422498)
(0.00421407 -0.00195134 -7.57576e-05 0.00421407 2.23795e-18 0.00421407)
(0.00421407 -0.00195134 -7.57576e-05 0.00421407 4.02534e-18 0.00421407)
(0.00420295 -0.00194625 -7.66614e-05 0.00420295 2.36663e-18 0.00420295)
(0.00420295 -0.00194625 -7.66614e-05 0.00420295 3.97355e-18 0.00420295)
(0.00419161 -0.00194108 -7.75719e-05 0.00419161 2.37207e-18 0.00419161)
(0.00419161 -0.00194108 -7.75719e-05 0.00419161 3.97803e-18 0.00419161)
(0.00418007 -0.00193581 -7.84891e-05 0.00418007 2.46505e-18 0.00418007)
(0.00418007 -0.00193581 -7.84891e-05 0.00418007 4.273e-18 0.00418007)
(0.00416832 -0.00193047 -7.94131e-05 0.00416832 2.48929e-18 0.00416832)
(0.00416832 -0.00193047 -7.94131e-05 0.00416832 4.33164e-18 0.00416832)
(0.00415638 -0.00192504 -8.03439e-05 0.00415638 2.43491e-18 0.00415638)
(0.00415638 -0.00192504 -8.03439e-05 0.00415638 4.22374e-18 0.00415638)
(0.00414425 -0.00191953 -8.12816e-05 0.00414425 2.73142e-18 0.00414425)
(0.00414425 -0.00191953 -8.12816e-05 0.00414425 4.45736e-18 0.00414425)
(0.00413193 -0.00191395 -8.22262e-05 0.00413193 2.85472e-18 0.00413193)
(0.00413193 -0.00191395 -8.22262e-05 0.00413193 4.89163e-18 0.00413193)
(0.00411944 -0.00190829 -8.31778e-05 0.00411944 2.82078e-18 0.00411944)
(0.00411944 -0.00190829 -8.31778e-05 0.00411944 4.9316e-18 0.00411944)
(0.00410677 -0.00190256 -8.41364e-05 0.00410677 3.05406e-18 0.00410677)
(0.00410677 -0.00190256 -8.41364e-05 0.00410677 4.82396e-18 0.00410677)
(0.00409393 -0.00189676 -8.51021e-05 0.00409393 3.18693e-18 0.00409393)
(0.00409393 -0.00189676 -8.51021e-05 0.00409393 5.1689e-18 0.00409393)
(0.00408093 -0.0018909 -8.6075e-05 0.00408093 3.1737e-18 0.00408093)
(0.00408093 -0.0018909 -8.6075e-05 0.00408093 5.47116e-18 0.00408093)
(0.00406776 -0.00188496 -8.7055e-05 0.00406776 3.18483e-18 0.00406776)
(0.00406776 -0.00188496 -8.7055e-05 0.00406776 5.48934e-18 0.00406776)
(0.00405445 -0.00187897 -8.80423e-05 0.00405445 3.36185e-18 0.00405445)
(0.00405445 -0.00187897 -8.80423e-05 0.00405445 5.80723e-18 0.00405445)
(0.00404098 -0.00187291 -8.90369e-05 0.00404098 3.66664e-18 0.00404098)
(0.00404098 -0.00187291 -8.90369e-05 0.00404098 6.12072e-18 0.00404098)
(0.00402736 -0.00186679 -9.00388e-05 0.00402736 3.68305e-18 0.00402736)
(0.00402736 -0.00186679 -9.00388e-05 0.00402736 6.22201e-18 0.00402736)
(0.0040136 -0.00186061 -9.10482e-05 0.0040136 3.64047e-18 0.0040136)
(0.0040136 -0.00186061 -9.10482e-05 0.0040136 6.50254e-18 0.0040136)
(0.00399971 -0.00185438 -9.20649e-05 0.00399971 3.69304e-18 0.00399971)
(0.00399971 -0.00185438 -9.20649e-05 0.00399971 6.76066e-18 0.00399971)
(0.00398568 -0.00184809 -9.30891e-05 0.00398568 3.86407e-18 0.00398568)
(0.00398568 -0.00184809 -9.30891e-05 0.00398568 6.90432e-18 0.00398568)
(0.00397152 -0.00184175 -9.41209e-05 0.00397152 4.16661e-18 0.00397152)
(0.00397152 -0.00184175 -9.41209e-05 0.00397152 7.04661e-18 0.00397152)
(0.00395723 -0.00183536 -9.51602e-05 0.00395723 4.54934e-18 0.00395723)
(0.00395723 -0.00183536 -9.51602e-05 0.00395723 7.44472e-18 0.00395723)
(0.00394283 -0.00182891 -9.62071e-05 0.00394283 4.68564e-18 0.00394283)
(0.00394283 -0.00182891 -9.62071e-05 0.00394283 7.81337e-18 0.00394283)
(0.0039283 -0.00182242 -9.72617e-05 0.0039283 4.55697e-18 0.0039283)
(0.0039283 -0.00182242 -9.72617e-05 0.0039283 8.26671e-18 0.0039283)
(0.00391366 -0.00181588 -9.83239e-05 0.00391366 4.30341e-18 0.00391366)
(0.00391366 -0.00181588 -9.83239e-05 0.00391366 8.73709e-18 0.00391366)
(0.0038989 -0.00180929 -9.93939e-05 0.0038989 4.36902e-18 0.0038989)
(0.0038989 -0.00180929 -9.93939e-05 0.0038989 8.44955e-18 0.0038989)
(0.00388404 -0.00180266 -0.000100472 0.00388404 4.90363e-18 0.00388404)
(0.00388404 -0.00180266 -0.000100472 0.00388404 8.32493e-18 0.00388404)
(0.00386907 -0.00179598 -0.000101557 0.00386907 5.2127e-18 0.00386907)
(0.00386907 -0.00179598 -0.000101557 0.00386907 9.22141e-18 0.00386907)
(0.003854 -0.00178927 -0.000102651 0.003854 5.35745e-18 0.003854)
(0.003854 -0.00178927 -0.000102651 0.003854 9.80168e-18 0.003854)
(0.00383883 -0.00178251 -0.000103752 0.00383883 5.00763e-18 0.00383883)
(0.00383883 -0.00178251 -0.000103752 0.00383883 9.64242e-18 0.00383883)
(0.00382356 -0.00177571 -0.000104861 0.00382356 4.67918e-18 0.00382356)
(0.00382356 -0.00177571 -0.000104861 0.00382356 9.89832e-18 0.00382356)
(0.0038082 -0.00176887 -0.000105978 0.0038082 5.18446e-18 0.0038082)
(0.0038082 -0.00176887 -0.000105978 0.0038082 1.06215e-17 0.0038082)
(0.00379275 -0.001762 -0.000107103 0.00379275 5.29263e-18 0.00379275)
(0.00379275 -0.001762 -0.000107103 0.00379275 1.07585e-17 0.00379275)
(0.00377721 -0.00175508 -0.000108236 0.00377721 5.05541e-18 0.00377721)
(0.00377721 -0.00175508 -0.000108236 0.00377721 1.11342e-17 0.00377721)
(0.00376158 -0.00174814 -0.000109377 0.00376158 5.589e-18 0.00376158)
(0.00376158 -0.00174814 -0.000109377 0.00376158 1.17003e-17 0.00376158)
(0.00374587 -0.00174115 -0.000110527 0.00374587 5.50456e-18 0.00374587)
(0.00374587 -0.00174115 -0.000110527 0.00374587 1.15556e-17 0.00374587)
(0.00373008 -0.00173414 -0.000111684 0.00373008 5.50291e-18 0.00373008)
(0.00373008 -0.00173414 -0.000111684 0.00373008 1.19789e-17 0.00373008)
(0.00371422 -0.00172709 -0.000112849 0.00371422 5.95854e-18 0.00371422)
(0.00371422 -0.00172709 -0.000112849 0.00371422 1.24775e-17 0.00371422)
(0.00369827 -0.00172001 -0.000114022 0.00369827 5.7127e-18 0.00369827)
(0.00369827 -0.00172001 -0.000114022 0.00369827 1.23932e-17 0.00369827)
(0.00368226 -0.00171289 -0.000115204 0.00368226 6.00373e-18 0.00368226)
(0.00368226 -0.00171289 -0.000115204 0.00368226 1.29427e-17 0.00368226)
(0.00366617 -0.00170575 -0.000116393 0.00366617 6.59124e-18 0.00366617)
(0.00366617 -0.00170575 -0.000116393 0.00366617 1.40703e-17 0.00366617)
(0.00365001 -0.00169858 -0.000117591 0.00365001 6.1878e-18 0.00365001)
(0.00365001 -0.00169858 -0.000117591 0.00365001 1.41917e-17 0.00365001)
(0.00363379 -0.00169138 -0.000118797 0.00363379 6.42032e-18 0.00363379)
(0.00363379 -0.00169138 -0.000118797 0.00363379 1.42457e-17 0.00363379)
(0.0036175 -0.00168415 -0.000120011 0.0036175 6.87724e-18 0.0036175)
(0.0036175 -0.00168415 -0.000120011 0.0036175 1.51595e-17 0.0036175)
(0.00360115 -0.00167689 -0.000121233 0.00360115 6.62122e-18 0.00360115)
(0.00360115 -0.00167689 -0.000121233 0.00360115 1.57357e-17 0.00360115)
(0.00358473 -0.0016696 -0.000122463 0.00358473 7.08145e-18 0.00358473)
(0.00358473 -0.0016696 -0.000122463 0.00358473 1.59588e-17 0.00358473)
(0.00356825 -0.00166229 -0.000123701 0.00356825 7.03756e-18 0.00356825)
(0.00356825 -0.00166229 -0.000123701 0.00356825 1.59496e-17 0.00356825)
(0.00355172 -0.00165495 -0.000124947 0.00355172 6.92077e-18 0.00355172)
(0.00355172 -0.00165495 -0.000124947 0.00355172 1.6412e-17 0.00355172)
(0.00353513 -0.00164759 -0.000126202 0.00353513 7.28463e-18 0.00353513)
(0.00353513 -0.00164759 -0.000126202 0.00353513 1.73996e-17 0.00353513)
(0.00351848 -0.0016402 -0.000127464 0.00351848 7.13353e-18 0.00351848)
(0.00351848 -0.0016402 -0.000127464 0.00351848 1.78093e-17 0.00351848)
(0.00350178 -0.00163279 -0.000128735 0.00350178 6.45917e-18 0.00350178)
(0.00350178 -0.00163279 -0.000128735 0.00350178 1.82288e-17 0.00350178)
(0.00348503 -0.00162535 -0.000130013 0.00348503 6.69249e-18 0.00348503)
(0.00348503 -0.00162535 -0.000130013 0.00348503 1.80367e-17 0.00348503)
(0.00346823 -0.00161789 -0.0001313 0.00346823 7.65568e-18 0.00346823)
(0.00346823 -0.00161789 -0.0001313 0.00346823 8.73842e-18 0.00346823)
(0.00345137 -0.0016104 -0.000132594 0.00345137 7.73118e-18 0.00345137)
(0.00345137 -0.0016104 -0.000132594 0.00345137 9.021e-18 0.00345137)
(0.00343447 -0.00160289 -0.000133896 0.00343447 7.48705e-18 0.00343447)
(0.00343447 -0.00160289 -0.000133896 0.00343447 9.32739e-18 0.00343447)
(0.00341752 -0.00159536 -0.000135207 0.00341752 7.55702e-18 0.00341752)
(0.00341752 -0.00159536 -0.000135207 0.00341752 9.33208e-18 0.00341752)
(0.00340052 -0.00158781 -0.000136525 0.00340052 7.94362e-18 0.00340052)
(0.00340052 -0.00158781 -0.000136525 0.00340052 9.42479e-18 0.00340052)
(0.00338348 -0.00158023 -0.00013785 0.00338348 8.09965e-18 0.00338348)
(0.00338348 -0.00158023 -0.00013785 0.00338348 9.58204e-18 0.00338348)
(0.00336639 -0.00157263 -0.000139183 0.00336639 8.06113e-18 0.00336639)
(0.00336639 -0.00157263 -0.000139183 0.00336639 1.0122e-17 0.00336639)
(0.00334926 -0.00156501 -0.000140524 0.00334926 8.77033e-18 0.00334926)
(0.00334926 -0.00156501 -0.000140524 0.00334926 1.03124e-17 0.00334926)
(0.00333209 -0.00155737 -0.000141873 0.00333209 8.64878e-18 0.00333209)
(0.00333209 -0.00155737 -0.000141873 0.00333209 1.01348e-17 0.00333209)
(0.00331487 -0.0015497 -0.000143228 0.00331487 8.49692e-18 0.00331487)
(0.00331487 -0.0015497 -0.000143228 0.00331487 1.01036e-17 0.00331487)
(0.00329761 -0.00154202 -0.000144591 0.00329761 9.35866e-18 0.00329761)
(0.00329761 -0.00154202 -0.000144591 0.00329761 1.0463e-17 0.00329761)
(0.00328031 -0.00153431 -0.000145962 0.00328031 9.68841e-18 0.00328031)
(0.00328031 -0.00153431 -0.000145962 0.00328031 1.12649e-17 0.00328031)
(0.00326297 -0.00152658 -0.000147339 0.00326297 9.68694e-18 0.00326297)
(0.00326297 -0.00152658 -0.000147339 0.00326297 1.07991e-17 0.00326297)
(0.00324559 -0.00151882 -0.000148723 0.00324559 9.37208e-18 0.00324559)
(0.00324559 -0.00151882 -0.000148723 0.00324559 9.97273e-18 0.00324559)
(0.00322817 -0.00151105 -0.000150114 0.00322817 9.73718e-18 0.00322817)
(0.00322817 -0.00151105 -0.000150114 0.00322817 1.09845e-17 0.00322817)
(0.00321071 -0.00150325 -0.000151512 0.00321071 9.80378e-18 0.00321071)
(0.00321071 -0.00150325 -0.000151512 0.00321071 1.25235e-17 0.00321071)
(0.00319321 -0.00149543 -0.000152917 0.00319321 1.05073e-17 0.00319321)
(0.00319321 -0.00149543 -0.000152917 0.00319321 1.18656e-17 0.00319321)
(0.00317568 -0.00148759 -0.000154328 0.00317568 2.46672e-18 0.00317568)
(0.00317568 -0.00148759 -0.000154328 0.00317568 1.18061e-17 0.00317568)