/*--------------------------------*- C++ -*----------------------------------*\
| =========                 |                                                 |
| \\      /  F ield         | OpenFOAM: The Open Source CFD Toolbox           |
|  \\    /   O peration     | Version:  2012                                  |
|   \\  /    A nd           | Website:  www.openfoam.com                      |
|    \\/     M anipulation  |                                                 |
\*---------------------------------------------------------------------------*/
FoamFile
{
    version     2.0;
    format      ascii;
    class       volTensorField;
    location    "16700";
    object      grad(U);
}
// * * * * * * * * * * * * * * * * * * * * * * * * * * * * * * * * * * * * * //

dimensions      [0 0 -1 0 0 0 0];


internalField   nonuniform List<tensor> 
2560
(
(0 -3.48782e-23 -5.17302e-18 1519.42 0.000100501 -0.000305219 2.2004 6.66272e-08 -4.10262e-07)
(-2.9258e-16 4.32602e-18 0 1519.42 3.38813e-21 -5.47894e-07 2.2004 6.92369e-08 4.26469e-07)
(0 8.4736e-19 -1.95117e-18 1518 -3.14342e-25 6.8259e-25 6.62913 5.29396e-23 0)
(-1.15355e-15 0 -1.37513e-22 1518 3.78019e-05 -1.48334e-06 6.62913 3.02986e-07 7.13577e-07)
(-2.80166e-16 0 -1.35542e-22 1516.52 -7.38573e-05 0.000127056 9.09919 2.01555e-07 -4.63783e-07)
(0 0 2.71085e-22 1516.52 -5.22558e-05 -1.73811e-06 9.09919 1.66418e-07 5.26363e-07)
(8.94539e-16 1.67e-23 -1.67e-22 1514.96 -4.99432e-05 0.000111746 9.22176 -8.53797e-08 -2.45406e-07)
(0 -1.67e-23 1.67e-22 1514.96 -3.20386e-05 -1.38849e-06 9.22176 -7.91146e-08 2.79561e-07)
(4.41861e-15 0 -1.31685e-22 1513.33 7.04396e-06 5.79472e-05 9.34558 -1.20744e-07 -1.22442e-07)
(0 1.58898e-23 9.87637e-23 1513.33 5.18016e-21 -1.1508e-06 9.34558 -1.32349e-23 1.4076e-07)
(2.14833e-15 1.62247e-23 -3.24494e-23 1511.66 1.51032e-05 2.74985e-05 9.47091 -5.6342e-08 -6.46119e-08)
(2.15419e-14 -3.24494e-23 3.24494e-23 1511.66 1.36239e-05 -1.20871e-06 9.47091 -5.02569e-08 7.58031e-08)
(-7.08072e-15 1.59922e-23 -7.99608e-24 1509.99 8.24129e-06 1.51981e-05 9.59805 -3.16358e-08 -3.33027e-08)
(1.54443e-14 -2.79863e-23 1.59922e-23 1509.99 6.85901e-06 -1.41851e-06 9.59805 -2.54747e-08 4.10349e-08)
(-3.43593e-15 1.10148e-19 0 1508.35 1.73919e-06 1.02698e-05 9.72728 -8.67584e-09 -1.22268e-08)
(9.51237e-15 1.97037e-23 0 1508.35 3.3536e-06 -1.59181e-06 9.72728 -2.55641e-09 1.80525e-08)
(4.09263e-15 2.13634e-23 0 1506.8 2.69634e-06 8.28649e-06 9.85884 -7.33066e-09 -6.84125e-16)
(8.34137e-15 0 0 1506.8 -1.0204e-26 -7.47307e-33 9.85884 0 0)
(0 9.27316e-20 -1.43572e-24 1505.35 8.14202e-08 7.63895e-06 9.99297 2.6842e-10 -5.24185e-18)
(0 1.24429e-23 9.57146e-25 1505.35 1.63904e-06 8.03937e-06 9.99297 1.25547e-08 -2.01542e-16)
(-5.43252e-15 4.05674e-23 0 1504.03 7.47159e-07 7.69964e-06 10.1299 5.50641e-09 6.73755e-16)
(0 1.17549e-38 -3.77371e-24 1504.03 4.23516e-22 7.9824e-06 10.1299 1.16409e-08 4.71815e-16)
(6.11602e-15 6.9149e-23 7.43925e-24 1502.85 1.25323e-06 8.19407e-06 10.2696 7.19519e-09 1.41391e-15)
(0 -6.13738e-23 -7.43925e-24 1502.85 7.69905e-07 8.40209e-06 10.2696 1.57248e-08 1.21323e-15)
(0 5.21059e-21 0 1501.84 6.14447e-07 7.07338e-06 10.4125 2.11532e-09 2.25941e-15)
(0 -2.74973e-23 0 1501.84 2.30593e-07 9.14968e-06 10.4125 1.84838e-08 2.06325e-15)
(-7.51105e-15 -2.08313e-23 0 1500.98 5.68434e-07 4.74826e-06 10.5584 5.85313e-09 -6.65216e-09)
(2.22837e-14 -1.17549e-38 0 1500.98 7.47973e-22 8.04845e-06 10.5584 1.88246e-08 4.23841e-09)
(0 1.23061e-20 1.42479e-23 1500.28 -5.19423e-25 4.04901e-06 10.7075 0 -7.24001e-09)
(0 6.23345e-23 -4.51224e-19 1500.28 -5.73137e-08 -4.2367e-22 10.7075 2.10606e-08 1.65436e-24)
(-8.94486e-15 -9.57018e-25 0 1499.73 3.65329e-07 4.39078e-06 10.8597 6.74185e-09 -1.89941e-11)
(3.57795e-14 0 0 1499.73 7.61006e-22 1.91094e-06 10.8597 1.97073e-08 -7.69373e-13)
(0 -6.22907e-23 0 1499.3 6.47705e-07 4.7501e-06 11.0149 2.67827e-09 -2.57203e-11)
(-3.87075e-14 6.22907e-23 0 1499.3 3.2123e-07 4.7502e-06 11.0149 2.24669e-08 -1.00992e-12)
(0 0 0 1498.98 -1.32349e-23 5.12232e-06 11.173 0 -1.93053e-11)
(-4.1677e-14 6.1398e-23 0 1498.98 -4.21302e-07 5.12242e-06 11.173 2.3213e-08 -7.93817e-13)
(1.44402e-14 1.84916e-23 2.68969e-23 1498.72 6.21141e-08 5.50068e-06 11.3337 5.41891e-09 -2.61919e-11)
(0 3.41279e-20 0 1498.72 -7.94093e-22 5.50082e-06 11.3337 2.04466e-08 -1.04206e-12)
(1.1936e-14 -4.13623e-23 0 1498.5 6.31461e-07 5.8987e-06 11.4968 4.19246e-09 -1.97808e-11)
(-4.77441e-14 5.96506e-23 0 1498.5 3.51238e-07 5.8988e-06 11.4968 2.26053e-08 -8.19725e-13)
(1.40292e-14 8.84142e-21 0 1498.26 3.36472e-08 6.32107e-06 11.662 1.30016e-10 -2.66833e-11)
(-1.40292e-14 6.20621e-23 0 1498.26 9.71798e-09 6.32119e-06 11.662 2.41723e-08 -1.06264e-12)
(-1.34969e-14 -2.1302e-41 0 1497.95 -6.13987e-25 6.74761e-06 11.8287 3.30872e-24 -2.01792e-11)
(0 -2.89765e-23 0 1497.95 -9.92593e-07 6.74772e-06 11.8287 2.37023e-08 -8.51928e-13)
(-6.64496e-16 8.8857e-23 5.07754e-23 1497.51 5.43009e-07 7.18393e-06 11.9965 1.13567e-08 -2.7228e-11)
(0 4.81744e-24 0 1497.51 -3.47019e-39 7.18408e-06 11.9965 1.73567e-08 -1.13687e-12)
(0 7.15041e-20 0 1496.87 7.40421e-22 7.65439e-06 12.1649 0 -2.07043e-11)
(-6.04139e-14 7.19435e-23 0 1496.87 4.457e-07 7.65452e-06 12.1649 2.71222e-08 -8.79916e-13)
(1.59242e-14 -6.07928e-23 0 1495.98 -3.77565e-07 8.14485e-06 12.3332 9.5839e-09 -2.78561e-11)
(0 8.40189e-20 0 1495.98 -1.05879e-22 8.14499e-06 12.3332 2.18323e-08 -1.14111e-12)
(-3.35136e-14 1.46937e-39 0 1494.74 -7.93437e-38 8.63307e-06 12.5006 3.30872e-24 -2.11771e-11)
(0 7.90129e-23 0 1494.74 -9.43265e-07 8.63319e-06 12.5006 2.30743e-08 -9.20359e-13)
(5.28036e-14 9.13598e-23 0 1493.08 8.57294e-07 9.14093e-06 12.6663 8.94097e-09 -2.84809e-11)
(1.4081e-13 4.13483e-24 0 1493.08 4.90639e-22 9.14108e-06 12.6663 1.48973e-08 -1.22848e-12)
(-2.53615e-14 1.49286e-20 -9.4479e-23 1490.92 -7.9491e-22 9.68954e-06 12.8296 -3.30872e-24 -2.17331e-11)
(9.91913e-14 -7.08593e-23 0 1490.92 2.311e-07 9.68968e-06 12.8296 2.94778e-08 -9.68513e-13)
(1.93255e-14 -3.20117e-23 0 1488.18 -5.49314e-07 1.02556e-05 12.9894 1.17157e-08 -2.91877e-11)
(-2.4998e-14 2.44958e-24 0 1488.18 1.10373e-39 1.02558e-05 12.9894 1.76511e-08 -1.24344e-12)
(-4.04105e-14 0 0 1484.76 0 1.08224e-05 13.1448 0 -2.22655e-11)
(-1.61642e-13 0 0 1484.76 -7.6784e-07 1.08225e-05 13.1448 2.38492e-08 -1.0105e-12)
(-2.10966e-14 -3.32211e-23 0 1480.57 7.14837e-07 1.14133e-05 13.2946 5.81674e-09 -2.98728e-11)
(-1.08673e-13 1.62801e-24 0 1480.57 3.6468e-22 1.14134e-05 13.2946 1.1731e-08 -1.33666e-12)
(0 3.08214e-20 0 1475.53 -8.17017e-25 1.20485e-05 13.4378 0 -2.28454e-11)
(-8.79967e-14 8.63911e-23 0 1475.53 2.84543e-07 1.20487e-05 13.4378 2.94524e-08 -1.07226e-12)
(0 6.59248e-23 0 1469.55 -9.12439e-07 1.26994e-05 13.5732 9.16741e-09 -3.06389e-11)
(9.16513e-14 0 0 1469.55 2.11758e-22 1.26995e-05 13.5732 1.50618e-08 -1.3652e-12)
(-2.38371e-14 -1.7223e-41 0 1462.52 -4.96419e-25 1.33541e-05 13.6995 1.65436e-24 -2.34327e-11)
(0 -1.6245e-23 0 1462.52 -3.93787e-07 1.33542e-05 13.6995 2.0192e-08 -1.11384e-12)
(-1.84775e-15 -6.67173e-23 0 1454.37 7.70852e-07 1.40452e-05 13.8155 6.42417e-09 -3.13791e-11)
(-2.29239e-14 1.70683e-24 0 1454.37 -2.11589e-37 1.40454e-05 13.8155 1.2299e-08 -1.46463e-12)
(-2.57158e-14 5.61346e-21 0 1445.01 -2.86292e-23 1.47814e-05 13.9199 0 -2.40311e-11)
(-1.48054e-13 3.94566e-23 0 1445.01 -2.06129e-08 1.47815e-05 13.9199 2.66127e-08 -1.19602e-12)
(-1.7874e-14 3.37056e-23 0 1434.36 -8.76062e-07 1.55318e-05 14.0113 7.07265e-09 -3.21968e-11)
(4.4543e-14 1.79432e-24 0 1434.36 6.35275e-22 1.55319e-05 14.0113 1.29294e-08 -1.50896e-12)
(-1.6274e-14 3.13605e-24 0 1422.33 -3.17245e-22 1.62896e-05 14.0883 1.65436e-24 -2.4661e-11)
(4.39045e-14 -4.98338e-23 0 1422.33 -4.01007e-07 1.62897e-05 14.0883 1.7147e-08 -1.24583e-12)
(-2.85996e-14 -3.33761e-23 0 1408.85 7.14776e-07 1.70872e-05 14.1497 4.10818e-09 -3.29776e-11)
(0 1.38051e-24 0 1408.85 2.75512e-22 1.70873e-05 14.1497 9.94764e-09 -1.62132e-12)
(0 2.88812e-20 0 1393.87 4.76456e-22 1.7937e-05 14.194 0 -2.52857e-11)
(0 6.95198e-23 0 1393.87 1.35033e-07 1.79372e-05 14.194 2.33654e-08 -1.33517e-12)
(-3.05566e-14 -1.71308e-23 0 1377.3 -7.3832e-07 1.88106e-05 14.2199 6.42243e-09 -3.38476e-11)
(8.01826e-14 8.56542e-24 -3.1325e-22 1377.3 -2.11758e-22 1.88107e-05 14.2199 1.22461e-08 -1.67168e-12)
(0 6.01853e-36 0 1359.09 0 1.96857e-05 14.2259 0 -2.59434e-11)
(1.2617e-13 -6.63352e-23 0 1359.09 -9.45931e-07 1.96858e-05 14.2259 1.47079e-08 -1.40153e-12)
(3.25317e-14 -4.99299e-23 0 1339.19 1.39107e-06 2.06077e-05 14.2109 -2.41581e-09 -3.46652e-11)
(-1.30127e-13 0 0 1339.19 2.5174e-48 2.06078e-05 14.2109 3.39326e-09 -1.79891e-12)
(-6.73876e-15 6.31549e-24 0 1317.57 -5.30974e-22 2.15772e-05 14.1734 0 -2.65827e-11)
(4.02617e-14 -3.28095e-23 0 1317.57 -9.59317e-07 2.15773e-05 14.1734 2.85578e-08 -1.51012e-12)
(-3.45149e-14 1.61696e-23 0 1294.19 2.50316e-07 2.25705e-05 14.1123 -1.19689e-08 -3.55623e-11)
(0 0 0 1294.19 1.56774e-22 2.25706e-05 14.1123 4.48798e-39 -1.88028e-12)
(3.55061e-14 1.30553e-36 0 1269.01 -1.7216e-37 2.3581e-05 14.0264 3.30872e-24 -2.72602e-11)
(1.42024e-13 1.82147e-23 0 1269.01 -1.23424e-06 2.35811e-05 14.0264 3.05692e-08 -1.60094e-12)
(0 1.79537e-23 0 1242.03 1.04977e-06 2.46266e-05 13.9144 -2.5008e-08 -3.63988e-11)
(1.45979e-13 5.87747e-39 0 1242.03 8.47033e-22 2.46267e-05 13.9144 -1.16823e-38 -2.04415e-12)
(-3.74797e-14 3.5989e-20 0 1213.24 8.47033e-22 2.57644e-05 13.7754 0 -2.7928e-11)
(0 -2.21204e-23 0 1213.24 1.24688e-06 2.57645e-05 13.7754 4.18824e-08 -1.71912e-12)
(-3.84587e-14 0 0 1182.64 -4.48952e-06 2.68657e-05 13.6083 -1.02169e-08 -3.73842e-11)
(0 -1.74427e-23 0 1182.64 -2.56803e-06 2.68659e-05 13.6083 -4.44178e-09 -2.10119e-12)
(0 2.14909e-23 0 1150.24 -5.23132e-07 2.78795e-05 13.4122 -1.69471e-08 -2.8815e-11)
(0 -3.43854e-23 0 1150.24 -5.11505e-07 2.78796e-05 13.4122 -3.00411e-09 -1.65002e-12)
(-7.6784e-14 1.69463e-23 -5.42282e-22 1116.08 1.0922e-05 2.91712e-05 13.1867 -1.77282e-08 -3.83292e-11)
(0 0 0 1116.08 -2.20479e-39 2.91713e-05 13.1867 0 -2.22004e-12)
(-3.58703e-14 1.56443e-23 0 1080.18 -3.38031e-21 3.04228e-05 12.9307 0 -2.91712e-11)
(-1.65371e-13 8.35171e-23 0 1080.18 -1.3968e-05 3.04228e-05 12.9307 1.18495e-07 -2.12299e-12)
(-7.7636e-14 9.87841e-23 0 1042.57 4.17931e-06 3.14669e-05 12.6437 -1.88241e-07 -3.90464e-11)
(1.69119e-13 -4.81482e-35 0 1042.57 7.59797e-21 3.14671e-05 12.6437 2.64698e-23 -2.61012e-12)
(0 1.59678e-19 0 1003.33 8.23829e-22 3.28121e-05 12.3257 0 -2.99405e-11)
(0 6.49122e-23 0 1003.33 6.95378e-06 3.28123e-05 12.3257 1.72965e-07 -2.21944e-12)
(-4.4105e-14 -3.19909e-23 0 962.517 -1.36243e-05 3.40099e-05 11.976 -1.04664e-07 -4.04565e-11)
(1.7642e-13 0 0 962.517 3.38813e-21 3.40101e-05 11.976 0 -2.34189e-12)
(2.22626e-14 3.30105e-23 0 920.194 1.36731e-05 3.52219e-05 11.5946 -3.763e-09 -3.09745e-11)
(2.47671e-13 -3.30105e-23 0 920.194 1.34135e-05 3.5222e-05 11.5946 1.99341e-09 -2.07446e-12)
(0 9.52168e-24 0 876.455 -1.69883e-21 3.64962e-05 11.1818 0 -4.10922e-11)
(0 -3.10805e-23 0 876.455 -1.14518e-05 3.64963e-05 11.1818 7.43629e-08 -2.90459e-12)
(-4.66883e-14 0 0 831.399 3.63493e-06 3.75677e-05 10.7376 -1.52997e-07 -3.14212e-11)
(0 -4.6432e-37 0 831.399 6.78648e-21 3.75678e-05 10.7376 -8.50292e-39 -2.56566e-12)
(-3.01534e-14 -6.01853e-36 0 785.136 -2.54931e-21 3.87795e-05 10.2627 0 -4.22778e-11)
(1.25152e-13 7.54898e-23 0 785.136 2.05463e-06 3.87797e-05 10.2627 1.24063e-07 -2.96707e-12)
(-4.82815e-14 0 0 737.787 -2.1595e-06 3.99715e-05 9.75769 -1.27395e-07 -3.23077e-11)
(0 2.35099e-38 0 737.787 8.44066e-24 3.99716e-05 9.75769 0 -2.64868e-12)
(-4.90327e-14 2.43578e-20 0 689.469 1.91838e-21 4.11037e-05 9.22327 -1.32349e-23 -4.31904e-11)
(1.96131e-13 -2.93365e-23 0 689.469 9.27228e-07 4.11038e-05 9.22327 9.62162e-08 -3.35597e-12)
(-4.97508e-14 -2.89161e-23 0 640.317 -9.67974e-06 4.19474e-05 8.66043 -1.15752e-07 -3.3267e-11)
(-6.20968e-14 2.89161e-23 -1.85063e-21 640.317 -3.3805e-21 4.19475e-05 8.66043 0 -2.70562e-12)
(-1.00867e-13 -4.98779e-23 0 590.48 1.23225e-05 4.28034e-05 8.07071 -4.47783e-08 -4.45188e-11)
(-2.01735e-13 4.98779e-23 0 590.48 1.20308e-05 4.28034e-05 8.07071 -3.90308e-08 -3.41295e-12)
(-1.02158e-13 0 0 540.125 -3.95722e-24 4.38948e-05 7.45567 0 -3.38673e-11)
(4.08632e-13 -7.02328e-23 0 540.125 -1.84743e-06 4.38949e-05 7.45567 6.27798e-08 -3.18994e-12)
(-1.55055e-13 -9.69167e-23 0 489.398 -1.47921e-05 4.44275e-05 6.81655 -7.08705e-08 -4.60171e-11)
(-2.66205e-13 1.10762e-22 0 489.398 -1.51027e-05 4.44276e-05 6.81655 -6.51233e-08 -3.37309e-12)
(-5.22497e-14 1.36468e-22 0 438.467 1.74663e-05 4.4945e-05 6.15573 -1.60718e-07 -3.47087e-11)
(2.08999e-13 0 0 438.467 -2.15061e-23 4.49451e-05 6.15573 -2.64698e-23 -3.49253e-12)
(5.27713e-14 5.23318e-23 0 387.523 -3.38813e-21 4.54165e-05 5.47542 0 -4.69288e-11)
(0 -2.69024e-23 0 387.523 -1.55876e-05 4.54166e-05 5.47542 1.94293e-07 -4.04169e-12)
(0 1.06067e-22 0 336.741 1.50527e-05 4.57811e-05 4.77782 -3.99122e-07 -3.5713e-11)
(2.12992e-13 0 0 336.741 6.77626e-21 4.57812e-05 4.77782 -2.98211e-34 -3.74518e-12)
(0 3.08493e-48 0 286.301 5.90652e-23 4.59623e-05 4.06556 5.29396e-23 -4.81048e-11)
(2.70842e-13 0 0 286.301 -1.75496e-05 4.59624e-05 4.06556 4.31356e-07 -4.53686e-12)
(0 1.03049e-22 0 236.39 9.10259e-06 4.57831e-05 3.3414 -4.29208e-07 -3.64049e-11)
(1.6092e-13 -9.40395e-38 0 236.39 6.50983e-38 4.57833e-05 3.3414 1.05879e-22 -4.37701e-12)
(0 1.03963e-20 0 187.203 -1.00835e-20 4.57939e-05 2.60855 0 -4.95e-11)
(0 0 0 187.203 -3.54471e-08 4.57941e-05 2.60855 4.58566e-07 -4.88132e-12)
(-1.09356e-13 7.166e-23 0 138.922 -8.21297e-06 4.54558e-05 1.86971 -4.39861e-07 -3.75331e-11)
(0 0 0 138.922 -1.36486e-20 4.5456e-05 1.86971 0 -4.62381e-12)
(0 3.35555e-19 0 91.7266 6.71168e-21 4.50961e-05 1.1284 0 -5.10859e-11)
(2.19643e-13 -1.96347e-22 0 91.7266 9.59169e-06 4.50962e-05 1.1284 4.69254e-07 -5.05185e-12)
(0 0 0 45.8051 -9.91938e-06 4.46694e-05 0.387889 -4.51126e-07 -3.85558e-11)
(2.20367e-13 -9.40395e-38 0 45.8051 1.17824e-20 4.46695e-05 0.387889 1.26697e-37 -4.98193e-12)
(-3.35815e-14 1.3016e-19 0 0.00882892 -5.0822e-21 4.41363e-05 7.43898e-05 0 -5.24066e-11)
(0 0 0 0.00882923 7.55653e-06 4.41364e-05 7.43924e-05 3.17123e-07 -5.50209e-12)
(8.04974e-14 0 0 -40.7954 -1.22668e-05 4.34242e-05 0.348728 -4.35285e-07 -3.93792e-11)
(-5.07948e-14 8.1882e-19 -1.51198e-21 -40.7954 0 4.34243e-05 0.348728 -1.05879e-22 -5.57358e-12)
(5.00064e-14 4.76276e-19 1.49031e-21 -82.73 -2.99907e-23 4.28074e-05 1.07819 0 -5.39688e-11)
(0 -6.98581e-23 0 -82.73 1.45866e-05 4.28076e-05 1.07819 1.13788e-07 -5.73073e-12)
(9.85793e-14 2.29523e-23 0 -121.992 -1.5195e-05 4.21931e-05 1.7969 -1.85195e-07 -4.0931e-11)
(-9.85793e-14 0 0 -121.992 3.41304e-21 4.21933e-05 1.7969 3.02846e-37 -5.44493e-12)
(-6.0273e-14 2.26233e-23 1.44789e-21 -159.249 1.40699e-05 4.15841e-05 2.50163 -1.60116e-07 -5.54827e-11)
(0 5.16809e-19 0 -159.249 5.39267e-06 4.15842e-05 2.50163 -4.8138e-08 -5.84779e-12)
(-5.41113e-14 -2.58609e-37 0 -194.401 -1.97572e-21 4.09944e-05 3.18951 -8.97251e-39 -4.09923e-11)
(0 5.57477e-23 0 -194.401 -1.51505e-05 4.09945e-05 3.18951 6.98998e-08 -6.64771e-12)
(5.37509e-14 0 0 -227.36 1.10423e-05 4.0338e-05 3.85759 -4.36613e-07 -5.64468e-11)
(-2.62204e-13 2.39194e-22 0 -227.36 1.19597e-22 4.03381e-05 3.85759 0 -6.39553e-12)
(4.6524e-14 3.77965e-23 2.77305e-21 -258.049 -4.19737e-21 4.00087e-05 4.50307 0 -4.15119e-11)
(-2.5992e-13 -4.33289e-23 0 -258.049 -4.53177e-06 4.00089e-05 4.50307 2.78066e-07 -7.30746e-12)
(-5.29073e-14 -8.21251e-23 0 -286.422 -3.52489e-06 3.94715e-05 5.1232 -5.05031e-07 -5.76767e-11)
(4.23259e-13 0 -2.7333e-21 -286.422 0 3.94717e-05 5.1232 -1.05879e-22 -6.43994e-12)
(5.24284e-14 2.79041e-19 0 -312.451 0 3.91307e-05 5.7161 2.64698e-23 -4.21882e-11)
(2.09714e-13 1.68383e-22 0 -312.451 6.08273e-06 3.91309e-05 5.7161 2.18866e-07 -7.62558e-12)
(0 0 0 -336.114 -2.0583e-06 3.90448e-05 6.27949 -4.18566e-07 -5.90492e-11)
(0 8.22846e-37 0 -336.114 5.92923e-21 3.90448e-05 6.27949 -5.29396e-23 -6.29697e-12)
(-5.1368e-14 -5.87747e-39 0 -357.422 2.47168e-23 3.88792e-05 6.81161 2.64698e-23 -4.23599e-11)
(2.05472e-13 -1.43142e-22 0 -357.422 -2.46821e-06 3.88794e-05 6.81161 1.83791e-07 -8.44408e-12)
(-1.3736e-13 0 0 -376.406 1.80929e-06 3.87794e-05 7.31129 -4.72876e-07 -5.9904e-11)
(-2.03165e-13 2.59346e-22 -2.57994e-21 -376.406 6.48364e-23 3.87795e-05 7.31129 -5.29396e-23 -6.28864e-12)
(5.0187e-14 6.1051e-23 0 -393.103 -2.78338e-21 3.87456e-05 7.77749 -2.64698e-23 -4.21015e-11)
(2.00748e-13 -7.94676e-23 0 -393.103 -2.23263e-06 3.87458e-05 7.77749 2.25632e-07 -9.31283e-12)
(-4.95574e-14 -7.83286e-23 0 -407.564 -5.78991e-07 3.86714e-05 8.20931 -5.25113e-07 -6.07405e-11)
(1.9823e-13 -1.03444e-36 0 -407.564 7.06011e-21 3.86715e-05 8.20931 -4.93219e-38 -6.15383e-12)
(-4.89051e-14 4.70198e-37 0 -419.851 -3.35838e-21 3.8898e-05 8.6062 0 -4.17423e-11)
(0 0 0 -419.851 6.09652e-06 3.88982e-05 8.6062 2.20028e-07 -1.02285e-11)
(-4.82327e-14 0 0 -430.042 -6.46304e-06 3.91696e-05 8.96775 -4.0373e-07 -6.18025e-11)
(0 -5.64237e-37 0 -430.042 5.13744e-21 3.91697e-05 8.96775 1.40664e-37 -5.40013e-12)
(-4.75425e-14 4.57327e-20 0 -438.235 -1.11622e-23 3.93593e-05 9.29417 1.32349e-23 -4.06724e-11)
(1.9017e-13 -1.03137e-22 0 -438.235 3.25138e-06 3.93595e-05 9.29417 8.60664e-08 -1.15049e-11)
(1.26222e-13 7.39336e-23 0 -444.528 -6.11436e-06 3.94607e-05 9.58591 -3.36563e-07 -6.27039e-11)
(-7.93856e-14 0 0 -444.528 4.59273e-23 3.94607e-05 9.58591 -5.29396e-23 -4.80839e-12)
(0 2.85552e-19 0 -449.019 1.69407e-21 3.98215e-05 9.84345 -5.31706e-08 -3.98497e-11)
(0 -5.46555e-23 0 -449.019 1.1135e-05 3.98218e-05 9.84345 -4.75603e-08 -1.26211e-11)
(-4.53884e-14 1.32756e-20 0 -451.818 -7.03745e-06 4.0343e-05 10.0673 -8.82984e-08 -6.37587e-11)
(0 -5.38721e-23 0 -451.818 -8.59993e-06 4.03429e-05 10.0673 -8.27006e-08 -3.58994e-12)
(3.80105e-14 1.77e-22 0 -453.047 -3.08029e-06 4.03591e-05 10.2586 -2.41954e-07 -3.74343e-11)
(3.57201e-13 0 0 -453.047 -3.38813e-21 4.03594e-05 10.2586 2.64698e-23 -1.48295e-11)
(-3.74657e-14 3.48926e-23 -2.23313e-21 -452.819 1.17064e-05 4.07679e-05 10.4187 -1.60532e-07 -6.57032e-11)
(1.7562e-13 -3.48926e-23 0 -452.819 1.11805e-05 4.07678e-05 10.4187 -1.5496e-07 -1.40732e-12)
(-1.53941e-13 -4.57015e-40 -2.20112e-21 -451.243 -3.29314e-24 4.1141e-05 10.5485 0 -3.45389e-11)
(-9.87624e-14 1.46168e-22 0 -451.243 -1.24038e-05 4.11413e-05 10.5485 2.92882e-08 -1.75708e-11)
(-6.00259e-15 -1.35598e-22 2.16957e-21 -448.443 1.00376e-05 4.14047e-05 10.6494 -4.53079e-07 -6.69523e-11)
(-2.06007e-13 1.86324e-22 -4.33915e-21 -448.443 5.46124e-21 4.14046e-05 10.6494 0 5.17843e-13)
(-3.58777e-14 3.67489e-23 0 -444.533 -2.4676e-21 4.19296e-05 10.723 0 -3.0365e-11)
(0 3.34137e-23 -4.27696e-21 -444.533 -4.32845e-06 4.193e-05 10.723 2.70334e-07 -2.11575e-11)
(0 0 0 -439.628 -4.70934e-06 4.19964e-05 10.7709 -5.65474e-07 -6.98003e-11)
(1.63575e-13 2.40707e-19 0 -439.628 5.77381e-21 4.19962e-05 10.7709 0 3.95727e-12)
(-2.95719e-14 8.23285e-20 -4.15524e-21 -433.838 -8.47033e-22 4.21649e-05 10.7948 0 -2.59241e-11)
(0 1.62314e-22 0 -433.838 7.31565e-06 4.21654e-05 10.7948 1.58426e-07 -2.52098e-11)
(0 2.5598e-22 0 -427.264 -9.69637e-07 4.26213e-05 10.7962 -3.89358e-07 -7.36272e-11)
(3.15136e-13 -2.40741e-35 0 -427.264 -8.47033e-21 4.2621e-05 10.7962 5.29396e-23 8.84728e-12)
(0 0 4.03698e-21 -420.007 -8.47033e-22 4.27384e-05 10.7767 2.64698e-23 -1.88842e-11)
(3.09175e-13 -6.30778e-23 0 -420.007 -5.01476e-06 4.27389e-05 10.7767 1.33004e-07 -3.13244e-11)
(-7.58144e-14 0 0 -412.164 7.32995e-06 4.29363e-05 10.738 -5.23475e-07 -7.86904e-11)
(0 0 0 -412.164 1.18585e-20 4.29359e-05 10.738 0 1.49554e-11)
(-3.71738e-14 1.14357e-36 0 -403.827 -4.14663e-21 4.312e-05 10.6818 5.29396e-23 -9.95223e-12)
(2.9739e-13 -6.12826e-23 0 -403.827 -6.60728e-06 4.31207e-05 10.6818 3.24403e-07 -3.94927e-11)
(3.64476e-14 -7.25022e-24 0 -395.081 4.63453e-06 4.31498e-05 10.6098 -6.56774e-07 -8.57573e-11)
(0 4.14819e-36 0 -395.081 1.50513e-20 4.31492e-05 10.6098 -1.05879e-22 2.34782e-11)
(-3.57294e-14 -3.52648e-38 0 -386.001 1.24154e-22 4.33281e-05 10.5235 1.05879e-22 2.0638e-12)
(0 0 0 -386.001 -7.31149e-07 4.3329e-05 10.5235 4.527e-07 -5.03001e-11)
(-3.50198e-14 1.18566e-23 0 -376.662 -2.8104e-06 4.32483e-05 10.4242 -6.59116e-07 -9.6298e-11)
(1.40079e-13 -2.11589e-36 0 -376.662 -7.40495e-21 4.32475e-05 10.4242 -1.05879e-22 3.53106e-11)
(-6.53743e-14 6.64511e-20 0 -367.131 3.19917e-22 4.31253e-05 10.3138 5.29396e-23 1.70853e-11)
(1.37278e-13 0 -3.70202e-21 -367.131 3.39757e-06 4.31265e-05 10.3138 3.78599e-07 -6.44015e-11)
(-6.72578e-14 2.66486e-24 0 -357.465 3.46385e-06 4.33141e-05 10.1933 -6.55618e-07 -1.10797e-10)
(0 0 0 -357.465 -1.8316e-22 4.33129e-05 10.1933 -1.05879e-22 5.15125e-11)
(-3.29485e-14 0 0 -347.718 0 4.30467e-05 10.0641 5.29396e-23 3.80396e-11)
(0 5.61979e-23 -3.59666e-21 -347.718 -9.88674e-06 4.30481e-05 10.0641 4.76542e-07 -8.39299e-11)
(2.97386e-14 0 3.54511e-21 -337.945 1.38551e-05 4.2924e-05 9.92748 -6.43968e-07 -1.30618e-10)
(-1.58853e-13 5.35431e-22 0 -337.945 0 4.29225e-05 9.92748 0 7.29311e-11)
(6.09318e-14 2.44267e-22 0 -328.185 -1.01644e-20 4.26782e-05 9.78464 0 6.55119e-11)
(9.71655e-14 0 0 -328.185 -1.39799e-05 4.26801e-05 9.78464 8.85313e-07 -1.10223e-10)
(3.09714e-14 -1.1052e-22 0 -318.477 1.51987e-05 4.24083e-05 9.63652 -6.21218e-07 -1.57943e-10)
(-1.23885e-13 7.84032e-22 0 -318.477 1.14664e-20 4.24062e-05 9.63652 0 1.02193e-10)
(-3.03344e-14 0 0 -308.855 -3.38542e-36 4.22e-05 9.48413 -5.19927e-38 1.02463e-10)
(9.28595e-14 1.05003e-22 0 -308.855 -1.19557e-05 4.22025e-05 9.48413 1.16585e-06 -1.4559e-10)
(-2.80699e-14 0 0 -299.35 1.157e-05 4.18538e-05 9.32843 -5.83338e-07 -1.96218e-10)
(0 -4.70198e-36 -3.3462e-21 -299.35 1.79323e-20 4.18511e-05 9.32843 0 1.4218e-10)
(-5.53353e-14 0 -6.59648e-21 -289.985 -1.69407e-21 4.13568e-05 9.17024 0 1.51309e-10)
(1.16377e-13 2.4695e-22 0 -289.985 -1.14095e-05 4.136e-05 9.17024 1.28796e-06 -1.93199e-10)
(2.84913e-14 -2.40266e-22 0 -280.784 1.28302e-05 4.08034e-05 9.01029 -5.25004e-07 -2.48041e-10)
(0 0 0 -280.784 1.86347e-20 4.07999e-05 9.01029 0 1.96036e-10)
(0 5.99913e-22 0 -271.762 -1.69407e-20 4.04661e-05 8.84931 0 2.17491e-10)
(-1.38479e-13 -4.03487e-22 0 -271.762 -6.53062e-06 4.04702e-05 8.84931 1.43964e-06 -2.57706e-10)
(-5.29899e-14 3.94806e-22 -6.31689e-21 -262.932 5.63526e-06 3.98984e-05 8.68774 -4.39173e-07 -3.19744e-10)
(0 5.79889e-36 0 -262.932 2.08927e-20 3.98937e-05 8.68774 -8.04757e-52 2.69598e-10)
(0 1.20371e-35 0 -254.308 0 3.93212e-05 8.52622 4.23516e-22 3.05847e-10)
(0 0 0 -254.308 -2.41315e-06 3.93267e-05 8.52622 1.62966e-06 -3.44694e-10)
(2.61919e-14 -3.34914e-22 0 -245.9 4.84759e-06 3.86901e-05 8.36524 -3.1641e-07 -4.17456e-10)
(0 -1.21781e-35 0 -245.9 4.41317e-20 3.86839e-05 8.36524 -4.23516e-22 3.69419e-10)
(2.56448e-14 3.54612e-22 0 -237.711 7.09224e-22 3.78504e-05 8.2052 4.23516e-22 4.25409e-10)
(0 0 0 -237.711 -3.87151e-06 3.78577e-05 8.2052 1.86945e-06 -4.6248e-10)
(-5.0217e-14 7.86341e-22 0 -229.745 8.31778e-06 3.73528e-05 8.04635 -1.44242e-07 -5.51437e-10)
(1.00434e-13 1.88079e-37 0 -229.745 5.07779e-20 3.73445e-05 8.04635 -4.57974e-37 5.05195e-10)
(-2.45829e-14 0 0 -222.005 0 3.63149e-05 7.88899 0 5.87941e-10)
(0 0 0 -222.005 -1.54488e-05 3.63245e-05 7.88899 2.17416e-06 -6.23716e-10)
(0 0 0 -214.488 2.71051e-20 3.56985e-05 7.73337 4.23516e-22 -7.34669e-10)
(-2.42966e-14 0 0 -214.488 5.27873e-06 3.56875e-05 7.73337 -9.42223e-08 6.90566e-10)
(0 4.81482e-35 0 -207.194 2.19064e-21 3.4759e-05 7.57951 0 8.08058e-10)
(0 0 0 -207.194 -2.42925e-05 3.47716e-05 7.57951 2.56407e-06 -8.42155e-10)
(-2.36051e-14 3.76158e-37 -5.6279e-21 -200.119 1.31373e-21 3.37466e-05 7.42765 0 -9.8409e-10)
(0 0 0 -200.119 2.25535e-05 3.37321e-05 7.42765 -4.21195e-07 9.41868e-10)
(0 6.96923e-22 0 -193.258 -4.78198e-21 3.27634e-05 7.27785 8.47033e-22 1.10416e-09)
(1.34145e-13 2.17754e-21 -1.10945e-20 -193.258 -2.08004e-05 3.278e-05 7.27785 3.06525e-06 -1.13687e-09)
(-4.42211e-14 0 0 -186.606 0 3.19927e-05 7.13 -8.47033e-22 -1.32358e-09)
(8.84422e-14 -2.71133e-21 0 -186.606 2.2549e-05 3.19735e-05 7.13 -8.65581e-07 1.28342e-09)
(2.16462e-14 8.58361e-22 0 -180.16 0 3.066e-05 6.98423 8.47033e-22 1.50772e-09)
(0 0 0 -180.16 -2.8409e-05 3.0682e-05 6.98423 3.712e-06 -1.53877e-09)
(0 -1.40431e-33 0 -173.912 5.30352e-20 2.95828e-05 6.84054 8.47033e-22 -1.7871e-09)
(-1.07046e-13 3.15797e-21 0 -173.912 3.03899e-05 2.95575e-05 6.84054 -1.46627e-06 1.74873e-09)
(-4.27076e-14 -6.20661e-36 0 -167.858 -1.10849e-20 2.83139e-05 6.69888 1.69407e-21 2.05522e-09)
(8.29851e-14 1.78528e-21 0 -167.858 -3.09602e-05 2.83431e-05 6.69888 4.55026e-06 -2.08497e-09)
(0 -1.21969e-21 0 -161.992 6.09864e-20 2.73812e-05 6.55922 0 -2.41939e-09)
(0 0 0 -161.992 3.33024e-05 2.73476e-05 6.55922 -2.27492e-06 2.383e-09)
(0 9.62965e-35 0 -156.309 -2.66299e-21 2.58364e-05 6.42156 1.69407e-21 2.80171e-09)
(0 0 0 -156.309 -3.86677e-05 2.5875e-05 6.42156 5.64064e-06 -2.82985e-09)
(-1.94667e-14 4.06251e-35 0 -150.805 1.49488e-19 2.47577e-05 6.28594 -1.69407e-21 -3.28337e-09)
(0 0 0 -150.805 4.19657e-05 2.47131e-05 6.28594 -3.36035e-06 3.24875e-09)
(-3.81166e-14 -3.00927e-36 1.48266e-20 -145.474 -6.63845e-21 2.30597e-05 6.15236 1.69407e-21 3.81892e-09)
(1.52467e-13 5.43948e-21 0 -145.474 -4.66221e-05 2.3111e-05 6.15236 7.06379e-06 -3.84574e-09)
(0 -1.87417e-21 0 -140.31 8.88118e-20 2.19548e-05 6.02073 0 -4.46379e-09)
(0 0 -9.74273e-21 -140.31 5.05349e-05 2.18956e-05 6.02073 -4.81424e-06 4.4311e-09)
(-4.02783e-14 1.92593e-34 -9.60309e-21 -135.308 -1.00142e-19 2.02e-05 5.891 0 5.20768e-09)
(0 0 0 -135.308 -5.46923e-05 2.02681e-05 5.891 8.92674e-06 -5.23293e-09)
(-5.36577e-14 6.31946e-35 0 -130.461 1.15537e-19 1.91963e-05 5.76311 1.93288e-36 -6.07883e-09)
(1.43087e-13 -1.10621e-20 0 -130.461 5.92576e-05 1.91176e-05 5.76311 -6.75865e-06 6.04786e-09)
(1.9566e-14 1.69708e-34 0 -125.764 0 1.72644e-05 5.63693 0 7.10598e-09)
(1.20532e-13 5.62512e-21 0 -125.764 -6.55317e-05 1.7355e-05 5.63693 1.1372e-05 -7.12996e-09)
(-1.7147e-14 7.52316e-37 0 -121.209 1.28052e-19 1.62245e-05 5.5124 7.99236e-37 -8.29034e-09)
(0 0 0 -121.209 7.02927e-05 1.61197e-05 5.5124 -9.35662e-06 8.26125e-09)
(1.67902e-14 3.19466e-21 0 -116.791 -7.56038e-34 1.40278e-05 5.38939 0 9.7051e-09)
(1.34321e-13 4.83231e-21 0 -116.791 -7.76173e-05 1.41486e-05 5.38939 1.45895e-05 -9.72752e-09)
(0 -1.92593e-34 0 -112.504 -1.4285e-20 1.32463e-05 5.26778 0 -1.13232e-08)
(6.5766e-14 -7.1627e-21 0 -112.504 8.62829e-05 1.31067e-05 5.26778 -1.28261e-05 1.12958e-08)
(1.6101e-14 7.9696e-21 8.4271e-20 -108.343 -1.73796e-19 6.10053e-06 5.14748 -3.38813e-21 1.32683e-08)
(0 0 0 -108.343 -9.66725e-05 1.1002e-05 5.14748 1.88331e-05 -1.32894e-08)
(3.15373e-14 -1.78422e-20 0 -104.302 5.24259e-19 1.01115e-05 5.02837 0 -1.54861e-08)
(6.30746e-14 -8.1483e-21 -8.68008e-21 -104.302 0.000105471 9.92522e-06 5.02837 -1.74587e-05 1.54606e-08)
(-1.79426e-14 3.85186e-34 8.74855e-20 -100.377 -7.15937e-21 1.00806e-23 4.91037 6.77626e-21 3.30872e-24)
(0 0 -1.11139e-19 -100.377 -0.000114886 2.9944e-06 4.91037 2.44423e-05 -1.81791e-08)
(1.76854e-14 -5.56775e-21 0 -96.5639 2.21674e-19 7.04797e-06 4.79343 0 -2.12081e-08)
(4.28262e-14 -9.143e-21 0 -96.5639 0.000123532 6.79898e-06 4.79343 -2.36451e-05 2.11843e-08)
(4.70708e-14 2.48812e-20 9.25071e-20 -92.8591 -5.42101e-19 0 4.67748 0 0)
(-1.74319e-14 0 0 -92.8591 -0.000135793 3.99009e-06 4.67748 3.18714e-05 -2.49029e-08)
(3.17009e-14 -1.38848e-20 8.19305e-21 -89.2593 2.70386e-19 3.79049e-06 4.56249 0 -2.90854e-08)
(4.08931e-14 -1.00538e-20 0 -89.2593 0.000147073 3.45715e-06 4.56249 -3.19097e-05 2.90633e-08)
(1.69358e-14 1.55189e-20 5.39801e-21 -85.7612 -6.50521e-19 4.23516e-22 4.44842 0 0)
(3.99681e-14 7.87468e-21 0 -85.7612 -0.000161332 8.83536e-07 4.44842 4.17309e-05 -3.41632e-08)
(-1.39409e-14 0 0 -82.3621 5.42101e-20 4.97573e-07 4.33523 0 -3.99463e-08)
(-5.57634e-14 1.07807e-20 0 -82.3621 0.000175133 5.06234e-08 4.33523 -4.29577e-05 3.99257e-08)
(-3.01172e-14 -2.25695e-34 -1.51345e-37 -79.06 -4.06076e-19 -2.73103e-22 4.22293 -2.68738e-36 -1.80738e-39)
(0 0 0 -79.06 -0.000192349 -2.76555e-06 4.22293 5.48412e-05 -4.69377e-08)
(-1.33936e-14 -1.88079e-36 0 -75.8535 3.79471e-19 -2.88338e-06 4.11155 1.35525e-20 -5.49447e-08)
(-5.35743e-14 1.11659e-20 0 -75.8535 0.000208477 -3.48373e-06 4.11155 -5.77385e-05 5.49257e-08)
(1.59855e-14 7.70372e-34 0 -72.7427 0 0 4.00117 1.35525e-20 0)
(-1.59855e-14 0 0 -72.7427 -0.000227881 -6.51711e-06 4.00117 7.23079e-05 -6.45902e-08)
(1.57564e-14 -1.34873e-20 1.50265e-20 -69.7285 0 -6.37854e-06 3.89195 -1.35525e-20 -7.56922e-08)
(1.03011e-13 -2.18149e-20 0 -69.7285 0.000245262 -7.18636e-06 3.89195 -7.75333e-05 7.56747e-08)
(-1.26287e-14 0 2.93874e-39 -66.8137 0 0 3.78411 1.35525e-20 3.42871e-39)
(5.0515e-14 7.24282e-21 0 -66.8137 -0.000265773 -1.04061e-05 3.78411 9.56231e-05 -8.9027e-08)
(-1.5308e-14 -1.68111e-20 -7.29943e-21 -64.0024 6.50521e-19 -9.70917e-06 3.67802 0 -1.04445e-07)
(-4.9553e-14 -1.97283e-20 0 -64.0024 0.000285922 -1.07983e-05 3.67802 -0.000104074 1.04429e-07)
(-1.50886e-14 6.74075e-34 6.17135e-37 -61.2999 -1.23232e-18 -1.11868e-21 3.57407 -1.56458e-35 -1.4203e-38)
(0 2.87792e-20 0 -61.2999 -0.000312184 -1.45261e-05 3.57407 0.000126805 -1.22921e-07)
(-3.26893e-14 -2.35625e-33 -7.09169e-21 -58.7117 8.38284e-20 -1.30486e-05 3.47279 -2.71051e-20 -1.4437e-07)
(7.74558e-14 -6.27359e-21 0 -58.7117 0.000338631 -1.45199e-05 3.47279 -0.000139706 1.44355e-07)
(1.46592e-14 0 2.40741e-35 -56.2428 -9.37756e-20 -3.48251e-21 3.37468 2.71051e-20 2.64698e-23)
(-1.46592e-14 0 0 -56.2428 -0.000369964 -1.86094e-05 3.37468 0.00016859 -1.70024e-07)
(1.44491e-14 -5.23387e-20 1.37797e-20 -53.8973 8.67362e-19 -1.6456e-05 3.28024 0 -1.99913e-07)
(0 0 0 -53.8973 0.000398863 -1.84476e-05 3.28024 -0.000187615 1.999e-07)
(-2.25678e-14 -1.32408e-34 -7.05297e-38 -51.677 -2.25537e-19 -1.30788e-22 3.18989 2.71051e-20 2.64698e-23)
(0 0 0 -51.677 -0.000432229 -2.28336e-05 3.18989 0.000210982 -2.35615e-07)
(3.10332e-14 -3.26857e-20 6.69378e-21 -49.5812 9.5346e-19 -1.94412e-05 3.10392 0 -2.77344e-07)
(-2.80757e-14 0 0 -49.5812 0.000465687 -2.21427e-05 3.10392 -0.000235521 2.77333e-07)