/*--------------------------------*- C++ -*----------------------------------*\
| =========                 |                                                 |
| \\      /  F ield         | OpenFOAM: The Open Source CFD Toolbox           |
|  \\    /   O peration     | Version:  2012                                  |
|   \\  /    A nd           | Website:  www.openfoam.com                      |
|    \\/     M anipulation  |                                                 |
\*---------------------------------------------------------------------------*/
FoamFile
{
    version     2.0;
    format      ascii;
    class       volScalarField;
    location    "16700";
    object      k;
}
// * * * * * * * * * * * * * * * * * * * * * * * * * * * * * * * * * * * * * //

dimensions      [0 2 -2 0 0 0 0];


internalField   nonuniform List<scalar> 
2560
(
0.0121093
0.0121093
0.297431
0.297431
2.02362
2.02362
5.87575
5.87575
10.3161
10.3161
14.3691
14.3691
17.9798
17.9798
21.2518
21.2518
24.2713
24.2713
27.0976
27.0976
29.7709
29.7709
32.3187
32.3187
34.7609
34.7609
37.1115
37.1115
39.3811
39.3811
41.5772
41.5772
43.7056
43.7056
45.7703
45.7703
47.7741
47.7741
49.7191
49.7191
51.6063
51.6063
53.4362
53.4362
55.2086
55.2086
56.9231
56.9231
58.5785
58.5785
60.1737
60.1737
61.707
61.707
63.1764
63.1764
64.5798
64.5798
65.9151
65.9151
67.1796
67.1796
68.371
68.371
69.4866
69.4866
70.5238
70.5238
71.4801
71.4801
72.3528
72.3528
73.1397
73.1397
73.8384
73.8384
74.4469
74.4469
74.9635
74.9635
75.3866
75.3866
75.7152
75.7152
75.9485
75.9485
76.0862
76.0862
76.1286
76.1286
76.0763
76.0763
75.9309
75.9309
75.6941
75.6941
75.3686
75.3686
74.9576
74.9576
74.4651
74.4651
73.8957
73.8957
73.2547
73.2547
72.5481
72.5481
71.7826
71.7826
70.9654
70.9654
70.1046
70.1046
69.2085
69.2085
68.2861
68.2861
67.3467
67.3467
66.3999
66.3999
65.4556
65.4556
64.5238
64.5238
63.6142
63.6142
62.7365
62.7365
61.9003
61.9003
61.1142
61.1142
60.3866
60.3866
59.7251
59.7251
59.136
59.136
58.625
58.625
58.1963
58.1963
57.8532
57.8532
57.5973
57.5973
57.4292
57.4292
57.3479
57.3479
57.3514
57.3514
57.4363
57.4363
57.5979
57.5979
57.8307
57.8307
58.1283
58.1283
58.4834
58.4834
58.8882
58.8882
59.3346
59.3346
59.8139
59.8139
60.3176
60.3176
60.837
60.837
61.3636
61.3636
61.8892
61.8892
62.4059
62.4059
62.9063
62.9063
63.3835
63.3835
63.8311
63.8311
64.2434
64.2434
64.6154
64.6154
64.9425
64.9425
65.2212
65.2212
65.4482
65.4482
65.6212
65.6212
65.7382
65.7382
65.798
65.798
65.7999
65.7999
65.7437
65.7437
65.6296
65.6296
65.4584
65.4584
65.231
65.231
64.9488
64.9488
64.6136
64.6136
64.2271
64.2271
63.7916
63.7916
63.3092
63.3092
62.7824
62.7824
62.2136
62.2136
61.6055
61.6055
60.9604
60.9604
60.2811
60.2811
59.5701
59.5701
58.83
58.83
58.0632
58.0632
57.2722
57.2722
56.4594
56.4594
55.627
55.627
54.7773
54.7773
53.9123
53.9123
53.0341
53.0341
52.1447
52.1447
51.2457
51.2457
50.339
50.339
49.4262
49.4262
48.5088
48.5088
47.5882
47.5882
46.6659
46.6659
45.7431
45.7431
44.821
44.821
43.9006
43.9006
42.9832
42.9832
42.0696
42.0696
41.1608
41.1608
40.2575
40.2575
39.3606
39.3606
38.4709
38.4709
37.5889
37.5889
36.7153
36.7153
35.8507
35.8507
34.9957
34.9957
34.1506
34.1506
33.316
33.316
32.4923
32.4923
31.6798
31.6798
30.879
30.879
30.0901
30.0901
29.3136
29.3136
28.5495
28.5495
27.7983
27.7983
27.0601
27.0601
26.3352
26.3352
25.6238
25.6238
24.926
24.926
24.242
24.242
23.5719
23.5719
22.9158
22.9158
22.2737
22.2737
21.6458
21.6458
21.0319
21.0319
20.4322
20.4322
19.8464
19.8464
19.2745
19.2745
18.7164
18.7164
18.1718
18.1718
17.6407
17.6407
17.1228
17.1228
16.618
16.618
16.126
16.126
15.6466
15.6466
15.1798
15.1798
14.7252
14.7252
14.2828
14.2828
13.8523
13.8523
13.4337
13.4337
13.0268
13.0268
12.6314
12.6314
12.2473
12.2473
11.8745
11.8745
11.5127
11.5127
11.1617
11.1617
10.8213
10.8213
10.4915
10.4915
10.1719
10.1719
9.86233
9.86233
9.56266
9.56266
9.27268
9.27268
8.99221
8.99221
8.72109
8.72109
8.45916
8.45916
8.20627
8.20627
7.96227
7.96227
7.72705
7.72705
7.50045
7.50045
7.28235
7.28235
7.07263
7.07263
6.87115
6.87115
6.67776
6.67776
6.49231
6.49231
6.31462
6.31462
6.14452
6.14452
5.9818
5.9818
5.82624
5.82623
5.6776
5.6776
5.53567
5.53567
5.4002
5.4002
5.27097
5.27097
5.14777
5.14777
5.03037
5.03037
4.91854
4.91854
4.81203
4.81203
4.71061
4.71061
4.61399
4.61399
4.52187
4.52187
4.43397
4.43397
4.34994
4.34994
4.26947
4.26947
4.19221
4.19221
4.11786
4.11786
4.04616
4.04616
3.97689
3.97689
3.90986
3.90986
3.84494
3.84494
3.78199
3.78199
3.72083
3.72083
3.66128
3.66128
3.60311
3.60311
3.5461
3.5461
3.49002
3.49002
3.4347
3.4347
3.37999
3.37999
3.32578
3.32578
3.27199
3.27199
3.21859
3.21859
3.1656
3.1656
3.11308
3.11308
3.06111
3.06111
3.0098
3.0098
2.95917
2.95917
2.90921
2.90921
2.8598
2.8598
2.81076
2.81076
2.76185
2.76185
2.71274
2.71274
2.66309
2.66309
2.6126
2.6126
2.56111
2.56112
2.50864
2.50865
2.45539
2.45539
2.40168
2.40169
2.34807
2.34808
2.29506
2.29506
2.24294
2.24294
2.19182
2.19182
2.14165
2.14164
2.09238
2.09238
2.04404
2.04404
1.99677
1.99676
1.95082
1.95082
1.90651
1.90651
1.86413
1.86413
1.82395
1.82395
1.78614
1.78614
1.75081
1.75081
1.718
1.718
1.68773
1.68773
1.65995
1.65995
1.6346
1.6346
1.61152
1.61152
1.59052
1.59052
1.5713
1.5713
1.55353
1.55353
1.53681
1.53681
1.52071
1.52071
1.50475
1.50475
1.4885
1.4885
1.47162
1.47162
1.45381
1.45381
1.43475
1.43475
1.41406
1.41406
1.39144
1.39144
1.36675
1.36675
1.34018
1.34018
1.31212
1.31212
1.28311
1.28311
1.25387
1.25387
1.22525
1.22525
1.19801
1.19801
1.17261
1.17261
1.14922
1.14922
1.12783
1.12783
1.10845
1.10845
1.09109
1.09109
1.07574
1.07574
1.06243
1.06243
1.0511
1.0511
1.04163
1.04163
1.03378
1.03378
1.02721
1.02721
1.02154
1.02154
1.01638
1.01638
1.01111
1.01111
1.00501
1.00501
0.99739
0.99739
0.987952
0.987951
0.976859
0.976858
0.964654
0.964654
0.951949
0.951948
0.939218
0.939218
0.926873
0.926872
0.915402
0.915402
0.905295
0.905295
0.896875
0.896876
0.890288
0.890289
0.885648
0.885649
0.883182
0.883184
0.0121093
0.0121093
0.297431
0.297431
2.02362
2.02362
5.87575
5.87575
10.3161
10.3161
14.3691
14.3691
17.9798
17.9798
21.2518
21.2518
24.2713
24.2713
27.0976
27.0976
29.7709
29.7709
32.3187
32.3187
34.7609
34.7609
37.1115
37.1115
39.3811
39.3811
41.5772
41.5772
43.7056
43.7056
45.7703
45.7703
47.7741
47.7741
49.7191
49.7191
51.6063
51.6063
53.4362
53.4362
55.2086
55.2086
56.9231
56.9231
58.5785
58.5785
60.1737
60.1737
61.707
61.707
63.1764
63.1764
64.5798
64.5798
65.9151
65.9151
67.1796
67.1796
68.371
68.371
69.4866
69.4866
70.5238
70.5238
71.4801
71.4801
72.3528
72.3528
73.1397
73.1397
73.8384
73.8384
74.4469
74.4469
74.9635
74.9635
75.3866
75.3866
75.7152
75.7152
75.9485
75.9485
76.0862
76.0862
76.1286
76.1286
76.0764
76.0764
75.9309
75.9309
75.6941
75.6941
75.3686
75.3686
74.9577
74.9577
74.4651
74.4651
73.8957
73.8957
73.2547
73.2547
72.5481
72.5481
71.7826
71.7826
70.9654
70.9654
70.1046
70.1046
69.2085
69.2085
68.2861
68.2861
67.3467
67.3467
66.3999
66.3999
65.4557
65.4557
64.5238
64.5238
63.6142
63.6142
62.7365
62.7365
61.9003
61.9003
61.1142
61.1142
60.3867
60.3867
59.7251
59.7251
59.136
59.136
58.625
58.625
58.1963
58.1963
57.8532
57.8532
57.5973
57.5973
57.4292
57.4292
57.3479
57.3479
57.3514
57.3514
57.4363
57.4363
57.5979
57.5979
57.8307
57.8307
58.1283
58.1283
58.4834
58.4834
58.8882
58.8882
59.3346
59.3346
59.8139
59.8139
60.3176
60.3176
60.837
60.837
61.3636
61.3636
61.8892
61.8892
62.4059
62.4059
62.9063
62.9063
63.3835
63.3835
63.8311
63.8311
64.2434
64.2434
64.6153
64.6153
64.9425
64.9425
65.2212
65.2212
65.4482
65.4482
65.6212
65.6212
65.7382
65.7382
65.798
65.798
65.7999
65.7999
65.7437
65.7437
65.6296
65.6296
65.4584
65.4584
65.231
65.231
64.9488
64.9488
64.6136
64.6136
64.2271
64.2271
63.7916
63.7916
63.3092
63.3092
62.7824
62.7824
62.2136
62.2136
61.6055
61.6055
60.9604
60.9604
60.2811
60.2811
59.5701
59.5701
58.83
58.83
58.0632
58.0632
57.2722
57.2722
56.4594
56.4594
55.627
55.627
54.7773
54.7773
53.9123
53.9123
53.0341
53.0341
52.1447
52.1447
51.2457
51.2457
50.339
50.339
49.4262
49.4262
48.5088
48.5088
47.5882
47.5882
46.6659
46.6659
45.7431
45.7431
44.821
44.821
43.9006
43.9006
42.9832
42.9832
42.0696
42.0696
41.1608
41.1608
40.2575
40.2575
39.3606
39.3606
38.4709
38.4709
37.5889
37.5889
36.7153
36.7153
35.8507
35.8507
34.9957
34.9957
34.1506
34.1506
33.316
33.316
32.4923
32.4923
31.6798
31.6798
30.879
30.879
30.0901
30.0901
29.3136
29.3136
28.5495
28.5495
27.7983
27.7983
27.0601
27.0601
26.3352
26.3352
25.6238
25.6238
24.926
24.926
24.242
24.242
23.5719
23.5719
22.9158
22.9158
22.2737
22.2737
21.6458
21.6458
21.0319
21.0319
20.4322
20.4322
19.8464
19.8464
19.2745
19.2745
18.7164
18.7164
18.1718
18.1718
17.6407
17.6407
17.1228
17.1228
16.618
16.618
16.126
16.126
15.6466
15.6466
15.1798
15.1798
14.7252
14.7252
14.2828
14.2828
13.8523
13.8523
13.4337
13.4337
13.0268
13.0268
12.6314
12.6314
12.2473
12.2473
11.8745
11.8745
11.5127
11.5127
11.1617
11.1617
10.8213
10.8213
10.4915
10.4915
10.1719
10.1719
9.86233
9.86233
9.56266
9.56266
9.27268
9.27268
8.99221
8.99221
8.72109
8.72109
8.45916
8.45916
8.20627
8.20627
7.96227
7.96227
7.72705
7.72705
7.50045
7.50045
7.28235
7.28235
7.07263
7.07263
6.87115
6.87115
6.67776
6.67776
6.49231
6.49231
6.31462
6.31462
6.14452
6.14452
5.9818
5.9818
5.82624
5.82624
5.6776
5.6776
5.53567
5.53567
5.4002
5.4002
5.27097
5.27097
5.14777
5.14777
5.03037
5.03037
4.91854
4.91854
4.81204
4.81204
4.71061
4.71061
4.61399
4.61399
4.52188
4.52188
4.43397
4.43397
4.34995
4.34995
4.26947
4.26947
4.19221
4.19221
4.11786
4.11786
4.04616
4.04616
3.97689
3.97689
3.90987
3.90987
3.84495
3.84495
3.78199
3.78199
3.72084
3.72084
3.66129
3.66129
3.60312
3.60312
3.5461
3.5461
3.49002
3.49002
3.4347
3.4347
3.37999
3.37999
3.32578
3.32578
3.272
3.27199
3.2186
3.2186
3.1656
3.1656
3.11308
3.11308
3.06112
3.06112
3.0098
3.0098
2.95917
2.95917
2.90921
2.90921
2.8598
2.8598
2.81077
2.81077
2.76185
2.76185
2.71274
2.71274
2.66309
2.66309
2.61261
2.6126
2.56112
2.56111
2.50865
2.50864
2.45539
2.45539
2.40169
2.40168
2.34808
2.34807
2.29506
2.29506
2.24294
2.24294
2.19182
2.19182
2.14164
2.14165
2.09238
2.09238
2.04404
2.04404
1.99676
1.99677
1.95082
1.95082
1.90651
1.90651
1.86413
1.86413
1.82395
1.82395
1.78614
1.78614
1.75081
1.75081
1.718
1.718
1.68773
1.68773
1.65995
1.65995
1.6346
1.6346
1.61152
1.61152
1.59052
1.59052
1.5713
1.5713
1.55353
1.55353
1.53681
1.53681
1.52071
1.52071
1.50475
1.50475
1.4885
1.4885
1.47162
1.47162
1.45381
1.45381
1.43475
1.43475
1.41406
1.41406
1.39144
1.39144
1.36675
1.36675
1.34018
1.34018
1.31212
1.31212
1.28311
1.28311
1.25387
1.25387
1.22525
1.22525
1.19801
1.19801
1.17261
1.17261
1.14922
1.14922
1.12783
1.12783
1.10845
1.10845
1.09109
1.09109
1.07574
1.07574
1.06243
1.06243
1.0511
1.0511
1.04163
1.04163
1.03378
1.03378
1.02721
1.02721
1.02154
1.02154
1.01638
1.01638
1.01111
1.01111
1.00501
1.00501
0.99739
0.99739
0.987951
0.987951
0.976858
0.976858
0.964654
0.964654
0.951948
0.951949
0.939217
0.939218
0.926872
0.926872
0.915401
0.915402
0.905295
0.905295
0.896876
0.896875
0.890289
0.890288
0.885649
0.885648
0.883184
0.883182
0.883174
0.883176
0.885625
0.885626
0.890246
0.890247
0.896804
0.896804
0.905199
0.905199
0.915273
0.915272
0.926701
0.926701
0.939011
0.93901
0.951666
0.951665
0.964246
0.964246
0.976328
0.976328
0.987327
0.987327
0.996696
0.996696
1.00428
1.00428
1.01043
1.01043
1.01577
1.01577
1.02102
1.02102
1.02676
1.02676
1.03339
1.03339
1.04129
1.04129
1.05081
1.05081
1.06221
1.0622
1.07559
1.07559
1.09099
1.09099
1.10842
1.10842
1.12786
1.12786
1.1493
1.1493
1.17275
1.17275
1.1982
1.1982
1.22549
1.22549
1.25418
1.25418
1.28347
1.28347
1.31251
1.31251
1.34055
1.34055
1.36706
1.36706
1.39164
1.39164
1.41416
1.41416
1.43477
1.43477
1.45378
1.45378
1.47155
1.47155
1.4884
1.4884
1.50461
1.50461
1.52053
1.52053
1.53659
1.53659
1.55327
1.55327
1.571
1.571
1.59018
1.59018
1.61116
1.61116
1.63421
1.63421
1.65955
1.65955
1.68733
1.68732
1.7176
1.7176
1.7504
1.7504
1.78573
1.78573
1.82354
1.82354
1.86374
1.86373
1.90612
1.90612
1.95043
1.95043
1.99638
1.99638
2.04368
2.04368
2.09205
2.09205
2.14134
2.14133
2.19151
2.1915
2.24262
2.24261
2.2947
2.2947
2.34767
2.34768
2.40126
2.40126
2.45495
2.45496
2.5082
2.5082
2.56064
2.56064
2.61207
2.61208
2.66252
2.66252
2.71217
2.71217
2.7613
2.7613
2.81026
2.81027
2.85938
2.85938
2.90888
2.90888
2.95893
2.95893
3.00961
3.00961
3.06093
3.06094
3.11288
3.11288
3.16537
3.16537
3.21833
3.21833
3.2717
3.2717
3.32547
3.32547
3.37965
3.37965
3.43435
3.43435
3.48968
3.48968
3.54576
3.54576
3.60279
3.60279
3.66099
3.66099
3.72058
3.72058
3.78179
3.78179
3.84483
3.84483
3.90983
3.90983
3.97691
3.97691
4.04622
4.04622
4.11796
4.11796
4.19232
4.19232
4.2696
4.2696
4.35009
4.35009
4.43414
4.43414
4.52207
4.52207
4.61418
4.61418
4.7108
4.7108
4.8122
4.8122
4.91867
4.91867
5.03047
5.03047
5.14783
5.14783
5.27101
5.27101
5.40022
5.40021
5.53568
5.53568
5.67762
5.67761
5.82626
5.82626
5.98183
5.98183
6.14456
6.14456
6.31468
6.31468
6.49238
6.49238
6.67785
6.67785
6.87126
6.87126
7.07275
7.07275
7.28248
7.28248
7.50057
7.50057
7.72717
7.72717
7.96241
7.96241
8.20641
8.20641
8.4593
8.4593
8.72124
8.72124
8.99237
8.99237
9.27285
9.27285
9.56284
9.56284
9.86252
9.86252
10.1721
10.1721
10.4917
10.4917
10.8215
10.8215
11.1618
11.1618
11.5128
11.5128
11.8746
11.8746
12.2475
12.2475
12.6315
12.6315
13.027
13.027
13.4339
13.4339
13.8525
13.8525
14.283
14.283
14.7254
14.7254
15.18
15.18
15.6468
15.6468
16.1262
16.1262
16.6182
16.6182
17.1231
17.1231
17.641
17.641
18.1721
18.1721
18.7167
18.7167
19.2748
19.2748
19.8467
19.8467
20.4325
20.4325
21.0323
21.0323
21.6462
21.6462
22.2741
22.2741
22.9162
22.9162
23.5723
23.5723
24.2424
24.2424
24.9265
24.9265
25.6243
25.6243
26.3357
26.3357
27.0607
27.0607
27.7989
27.7989
28.5501
28.5501
29.3142
29.3142
30.0908
30.0908
30.8797
30.8797
31.6805
31.6805
32.493
32.493
33.3168
33.3168
34.1514
34.1514
34.9966
34.9966
35.8517
35.8517
36.7164
36.7164
37.59
37.59
38.4721
38.4721
39.3619
39.3619
40.2589
40.2589
41.1623
41.1623
42.0712
42.0712
42.9849
42.9849
43.9024
43.9024
44.8228
44.8228
45.745
45.745
46.6678
46.6678
47.5902
47.5902
48.5108
48.5108
49.4283
49.4283
50.3412
50.3412
51.248
51.248
52.147
52.147
53.0365
53.0365
53.9147
53.9147
54.7796
54.7796
55.6293
55.6293
56.4616
56.4616
57.2743
57.2743
58.0652
58.0652
58.8319
58.8319
59.5718
59.5718
60.2825
60.2825
60.9615
60.9615
61.6064
61.6064
62.2144
62.2144
62.7832
62.7832
63.31
63.31
63.7923
63.7923
64.2279
64.2279
64.6144
64.6144
64.9497
64.9497
65.2319
65.2319
65.4593
65.4593
65.6305
65.6305
65.7444
65.7444
65.8007
65.8007
65.7988
65.7988
65.7391
65.7391
65.6222
65.6222
65.4495
65.4495
65.2227
65.2227
64.9441
64.9441
64.617
64.617
64.2449
64.2449
63.8322
63.8322
63.384
63.384
62.9059
62.9059
62.4046
62.4046
61.8871
61.8871
61.3611
61.3611
60.8342
60.8342
60.3144
60.3144
59.8103
59.8103
59.3304
59.3304
58.8834
58.8834
58.4779
58.4779
58.1221
58.1221
57.8238
57.8238
57.5903
57.5903
57.428
57.428
57.3425
57.3425
57.3384
57.3384
57.419
57.419
57.5864
57.5864
57.8416
57.8416
58.184
58.184
58.612
58.612
59.1223
59.1223
59.7107
59.7107
60.3718
60.3718
61.0988
61.0988
61.8844
61.8844
62.7203
62.7203
63.5976
63.5976
64.5069
64.5069
65.4385
65.4385
66.3823
66.3823
67.3286
67.3286
68.2679
68.2679
69.1904
69.1904
70.0867
70.0867
70.9478
70.9478
71.7653
71.7653
72.5314
72.5314
73.2389
73.2389
73.8808
73.8808
74.451
74.451
74.9439
74.9439
75.3555
75.3555
75.682
75.682
75.9198
75.9198
76.0661
76.0661
76.1192
76.1192
76.0777
76.0777
75.9409
75.9409
75.7084
75.7084
75.3806
75.3806
74.9582
74.9582
74.4422
74.4422
73.8342
73.8342
73.1359
73.1359
72.3495
72.3495
71.4771
71.4771
70.5212
70.5212
69.4843
69.4843
68.3689
68.3689
67.1777
67.1777
65.9133
65.9133
64.5783
64.5783
63.1752
63.1752
61.7061
61.7061
60.1732
60.1732
58.5782
58.5782
56.9229
56.9229
55.2086
55.2086
53.4362
53.4362
51.6063
51.6063
49.7191
49.7191
47.7742
47.7742
45.7703
45.7703
43.7057
43.7057
41.5773
41.5773
39.3812
39.3812
37.1116
37.1116
34.761
34.761
32.3188
32.3188
29.771
29.771
27.0977
27.0977
24.2714
24.2714
21.2518
21.2518
17.9799
17.9799
14.3691
14.3691
10.3161
10.3161
5.87572
5.87572
2.02361
2.02361
0.297428
0.297428
0.0121095
0.0121095
0.883176
0.883174
0.885627
0.885625
0.890247
0.890246
0.896804
0.896804
0.905199
0.905199
0.915272
0.915273
0.926701
0.926701
0.93901
0.939011
0.951665
0.951666
0.964246
0.964246
0.976328
0.976328
0.987327
0.987327
0.996696
0.996696
1.00428
1.00428
1.01043
1.01043
1.01577
1.01577
1.02102
1.02102
1.02676
1.02676
1.03339
1.03339
1.04129
1.04129
1.05081
1.05081
1.0622
1.06221
1.07559
1.07559
1.09099
1.09099
1.10842
1.10842
1.12786
1.12786
1.1493
1.1493
1.17275
1.17275
1.1982
1.1982
1.22549
1.22549
1.25418
1.25418
1.28348
1.28348
1.31251
1.31251
1.34055
1.34056
1.36706
1.36706
1.39164
1.39164
1.41416
1.41416
1.43477
1.43477
1.45378
1.45378
1.47155
1.47155
1.4884
1.4884
1.50461
1.50461
1.52053
1.52053
1.53659
1.53659
1.55327
1.55327
1.571
1.571
1.59018
1.59018
1.61116
1.61116
1.63421
1.63421
1.65956
1.65956
1.68733
1.68733
1.7176
1.7176
1.7504
1.75041
1.78573
1.78573
1.82354
1.82355
1.86374
1.86374
1.90612
1.90612
1.95043
1.95044
1.99639
1.99639
2.04368
2.04368
2.09205
2.09206
2.14134
2.14134
2.19151
2.19151
2.24262
2.24262
2.2947
2.2947
2.34768
2.34768
2.40126
2.40126
2.45496
2.45496
2.50821
2.5082
2.56064
2.56064
2.61208
2.61208
2.66253
2.66253
2.71217
2.71217
2.7613
2.7613
2.81027
2.81027
2.85939
2.85938
2.90889
2.90889
2.95893
2.95893
3.00961
3.00961
3.06094
3.06094
3.11288
3.11288
3.16537
3.16537
3.21833
3.21833
3.2717
3.2717
3.32547
3.32547
3.37965
3.37965
3.43435
3.43435
3.48968
3.48968
3.54576
3.54576
3.60279
3.60279
3.66099
3.66099
3.72058
3.72058
3.78179
3.78179
3.84482
3.84482
3.90982
3.90982
3.9769
3.9769
4.04622
4.04622
4.11795
4.11795
4.19232
4.19232
4.26959
4.26959
4.35009
4.35009
4.43414
4.43414
4.52206
4.52206
4.61418
4.61418
4.71079
4.71079
4.81219
4.81219
4.91866
4.91866
5.03046
5.03046
5.14783
5.14783
5.271
5.271
5.40021
5.40021
5.53567
5.53567
5.67761
5.67761
5.82625
5.82625
5.98182
5.98182
6.14456
6.14456
6.31467
6.31467
6.49237
6.49238
6.67784
6.67785
6.87125
6.87125
7.07275
7.07275
7.28247
7.28247
7.50056
7.50056
7.72717
7.72717
7.96241
7.96241
8.2064
8.2064
8.4593
8.4593
8.72123
8.72123
8.99236
8.99236
9.27284
9.27284
9.56283
9.56283
9.86251
9.86251
10.172
10.172
10.4916
10.4916
10.8215
10.8215
11.1618
11.1618
11.5128
11.5128
11.8746
11.8746
12.2475
12.2475
12.6315
12.6315
13.027
13.027
13.4339
13.4339
13.8525
13.8525
14.283
14.283
14.7254
14.7254
15.18
15.18
15.6468
15.6468
16.1262
16.1262
16.6182
16.6182
17.1231
17.1231
17.641
17.641
18.1721
18.1721
18.7167
18.7167
19.2748
19.2748
19.8467
19.8467
20.4325
20.4325
21.0323
21.0323
21.6462
21.6462
22.2741
22.2741
22.9162
22.9162
23.5723
23.5723
24.2424
24.2424
24.9265
24.9265
25.6243
25.6243
26.3357
26.3357
27.0607
27.0607
27.7988
27.7988
28.5501
28.5501
29.3141
29.3141
30.0908
30.0908
30.8796
30.8796
31.6805
31.6805
32.493
32.493
33.3168
33.3168
34.1514
34.1514
34.9965
34.9965
35.8517
35.8517
36.7164
36.7164
37.59
37.59
38.4721
38.4721
39.3619
39.3619
40.2589
40.2589
41.1623
41.1623
42.0712
42.0712
42.9849
42.9849
43.9024
43.9024
44.8228
44.8228
45.7449
45.7449
46.6678
46.6678
47.5902
47.5902
48.5108
48.5108
49.4283
49.4283
50.3412
50.3412
51.248
51.248
52.147
52.147
53.0365
53.0365
53.9147
53.9147
54.7796
54.7796
55.6292
55.6292
56.4616
56.4616
57.2743
57.2743
58.0652
58.0652
58.8319
58.8319
59.5718
59.5718
60.2825
60.2825
60.9615
60.9615
61.6063
61.6063
62.2144
62.2144
62.7832
62.7832
63.31
63.31
63.7923
63.7923
64.2279
64.2279
64.6144
64.6144
64.9496
64.9496
65.2319
65.2319
65.4593
65.4593
65.6305
65.6305
65.7444
65.7444
65.8007
65.8007
65.7988
65.7988
65.739
65.739
65.6222
65.6222
65.4495
65.4495
65.2226
65.2226
64.9441
64.9441
64.617
64.617
64.2449
64.2449
63.8322
63.8322
63.384
63.384
62.9059
62.9059
62.4045
62.4045
61.8871
61.8871
61.3611
61.3611
60.8342
60.8342
60.3144
60.3144
59.8103
59.8103
59.3304
59.3304
58.8834
58.8834
58.4779
58.4779
58.1221
58.1221
57.8238
57.8238
57.5903
57.5903
57.428
57.428
57.3425
57.3425
57.3384
57.3384
57.419
57.419
57.5864
57.5864
57.8416
57.8416
58.184
58.184
58.612
58.612
59.1223
59.1223
59.7107
59.7107
60.3718
60.3718
61.0988
61.0988
61.8844
61.8844
62.7203
62.7203
63.5976
63.5976
64.5069
64.5069
65.4385
65.4385
66.3823
66.3823
67.3287
67.3287
68.2679
68.2679
69.1904
69.1904
70.0867
70.0867
70.9478
70.9478
71.7653
71.7653
72.5314
72.5314
73.2389
73.2389
73.8808
73.8808
74.451
74.451
74.9439
74.9439
75.3555
75.3555
75.682
75.682
75.9198
75.9198
76.0661
76.0661
76.1192
76.1192
76.0778
76.0778
75.9409
75.9409
75.7084
75.7084
75.3806
75.3806
74.9582
74.9582
74.4422
74.4422
73.8342
73.8342
73.1359
73.1359
72.3495
72.3495
71.4771
71.4771
70.5212
70.5212
69.4843
69.4843
68.3689
68.3689
67.1776
67.1776
65.9133
65.9133
64.5783
64.5783
63.1752
63.1752
61.7061
61.7061
60.1732
60.1732
58.5782
58.5782
56.9229
56.9229
55.2085
55.2085
53.4362
53.4362
51.6063
51.6063
49.7191
49.7191
47.7742
47.7742
45.7703
45.7703
43.7057
43.7057
41.5773
41.5773
39.3812
39.3812
37.1116
37.1116
34.761
34.761
32.3188
32.3188
29.7709
29.7709
27.0977
27.0977
24.2714
24.2714
21.2518
21.2518
17.9799
17.9799
14.3691
14.3691
10.3161
10.3161
5.87572
5.87572
2.02361
2.02361
0.297428
0.297428
0.0121095
0.0121095
)
;

boundaryField
{
    walls
    {
        type            kqRWallFunction;
        value           nonuniform List<scalar> 8(0.0121093 0.0121093 0.0121093 0.0121093 0.0121095 0.0121095 0.0121095 0.0121095);
    }
    inlet
    {
        type            cyclic;
    }
    outlet
    {
        type            cyclic;
    }
    sides
    {
        type            empty;
    }
}


// ************************************************************************* //
