/*--------------------------------*- C++ -*----------------------------------*\
| =========                 |                                                 |
| \\      /  F ield         | OpenFOAM: The Open Source CFD Toolbox           |
|  \\    /   O peration     | Version:  2012                                  |
|   \\  /    A nd           | Website:  www.openfoam.com                      |
|    \\/     M anipulation  |                                                 |
\*---------------------------------------------------------------------------*/
FoamFile
{
    version     2.0;
    format      ascii;
    class       volScalarField;
    location    "16700";
    object      p;
}
// * * * * * * * * * * * * * * * * * * * * * * * * * * * * * * * * * * * * * //

dimensions      [0 2 -2 0 0 0 0];


internalField   nonuniform List<scalar> 
2560
(
9.29369e-10
8.3302e-05
-4.10716e-08
8.32461e-05
-2.37033e-07
8.30403e-05
-8.19118e-07
8.24551e-05
-2.1983e-06
8.10767e-05
-4.91281e-06
7.8361e-05
-9.61059e-06
7.36628e-05
-1.70862e-05
6.61856e-05
-2.82808e-05
5.49897e-05
-4.42678e-05
3.90003e-05
-6.62588e-05
1.70073e-05
-9.56169e-05
-1.23542e-05
-0.000133827
-5.05667e-05
-0.00018252
-9.9264e-05
-0.000243467
-0.000160215
-0.00031857
-0.000235322
-0.000409859
-0.000326615
-0.000519485
-0.000436247
-0.000649765
-0.000566531
-0.000803096
-0.000719869
-0.000981991
-0.000898769
-0.00118911
-0.0011059
-0.00142726
-0.00134405
-0.00169924
-0.00161604
-0.00200801
-0.00192482
-0.0023567
-0.00227352
-0.00274849
-0.00266531
-0.00318651
-0.00310334
-0.00367411
-0.00359095
-0.00421479
-0.00413163
-0.004812
-0.00472885
-0.00546919
-0.00538606
-0.00618998
-0.00610685
-0.00697813
-0.00689501
-0.00783728
-0.00775417
-0.00877109
-0.00868799
-0.00978339
-0.0097003
-0.0108781
-0.010795
-0.012059
-0.0119759
-0.0133298
-0.0132468
-0.0146945
-0.0146114
-0.0161571
-0.016074
-0.0177213
-0.0176383
-0.0193911
-0.0193081
-0.0211703
-0.0210873
-0.0230629
-0.0229799
-0.0250727
-0.0249897
-0.0272034
-0.0271204
-0.029459
-0.029376
-0.0318437
-0.0317608
-0.0343607
-0.0342778
-0.0370128
-0.0369298
-0.039806
-0.0397231
-0.0427424
-0.0426594
-0.0458251
-0.0457422
-0.0490596
-0.0489767
-0.0524471
-0.0523642
-0.055993
-0.0559101
-0.0596992
-0.0596164
-0.0635689
-0.0634861
-0.0676059
-0.067523
-0.0718133
-0.0717304
-0.0761946
-0.0761118
-0.0807503
-0.0806674
-0.0854848
-0.085402
-0.0904022
-0.0903193
-0.0955014
-0.0954185
-0.100787
-0.100705
-0.10626
-0.106177
-0.111925
-0.111842
-0.11778
-0.117697
-0.123828
-0.123745
-0.130071
-0.129988
-0.136509
-0.136426
-0.143145
-0.143062
-0.149977
-0.149895
-0.157009
-0.156926
-0.164237
-0.164155
-0.171665
-0.171582
-0.179289
-0.179206
-0.187112
-0.187029
-0.19513
-0.195047
-0.203343
-0.20326
-0.21175
-0.211668
-0.220348
-0.220266
-0.229137
-0.229054
-0.238113
-0.23803
-0.247274
-0.247191
-0.256617
-0.256535
-0.266139
-0.266057
-0.275835
-0.275752
-0.285702
-0.28562
-0.295737
-0.295654
-0.305934
-0.305851
-0.316287
-0.316204
-0.326794
-0.326712
-0.337449
-0.337367
-0.348243
-0.348161
-0.359175
-0.359093
-0.370235
-0.370152
-0.381418
-0.381336
-0.392719
-0.392637
-0.404128
-0.404046
-0.415639
-0.415557
-0.427247
-0.427164
-0.43894
-0.438858
-0.450715
-0.450632
-0.462561
-0.462479
-0.474472
-0.474389
-0.486439
-0.486357
-0.498454
-0.498371
-0.510507
-0.510425
-0.522595
-0.522512
-0.534702
-0.53462
-0.546828
-0.546745
-0.558956
-0.558873
-0.571085
-0.571002
-0.583201
-0.583118
-0.595301
-0.595218
-0.607371
-0.607288
-0.619406
-0.619323
-0.631397
-0.631314
-0.643337
-0.643254
-0.655216
-0.655134
-0.66703
-0.666947
-0.678765
-0.678683
-0.690421
-0.690338
-0.701982
-0.701899
-0.71345
-0.713368
-0.724809
-0.724726
-0.73606
-0.735977
-0.747187
-0.747105
-0.758196
-0.758113
-0.769064
-0.768982
-0.779803
-0.779719
-0.790387
-0.790305
-0.800831
-0.800748
-0.811108
-0.811026
-0.821235
-0.821151
-0.83118
-0.831098
-0.840967
-0.840883
-0.85056
-0.850479
-0.859989
-0.859905
-0.869212
-0.869131
-0.878267
-0.878182
-0.887101
-0.887021
-0.895767
-0.895682
-0.904199
-0.90412
-0.912464
-0.912378
-0.920483
-0.920405
-0.928338
-0.928251
-0.935934
-0.935856
-0.943371
-0.943283
-0.950534
-0.950458
-0.957548
-0.957457
-0.964271
-0.964197
-0.970857
-0.970765
-0.977135
-0.977064
-0.983293
-0.983198
-0.989121
-0.989052
-0.99485
-0.994751
-1.00022
-1.00016
-1.00553
-1.00543
-1.01045
-1.01039
-1.01533
-1.01522
-1.01979
-1.01974
-1.02426
-1.02414
-1.02826
-1.02822
-1.03233
-1.0322
-1.03587
-1.03584
-1.03955
-1.0394
-1.04262
-1.0426
-1.04592
-1.04576
-1.04852
-1.04854
-1.05147
-1.05128
-1.05361
-1.05365
-1.05623
-1.056
-1.05789
-1.05797
-1.06021
-1.05994
-1.06139
-1.06152
-1.06346
-1.06313
-1.06415
-1.06435
-1.06601
-1.06559
-1.06652
-1.06647
-1.06788
-1.06737
-1.06822
-1.06793
-1.06911
-1.06848
-1.06928
-1.06875
-1.06971
-1.06897
-1.06973
-1.06896
-1.06938
-1.06884
-1.06923
-1.06857
-1.06845
-1.06814
-1.06816
-1.06761
-1.06698
-1.06688
-1.06656
-1.06611
-1.06501
-1.06508
-1.06445
-1.06407
-1.0627
-1.06279
-1.06187
-1.06155
-1.05999
-1.06002
-1.05883
-1.05856
-1.05681
-1.05681
-1.05536
-1.05512
-1.05319
-1.05315
-1.05147
-1.05126
-1.04915
-1.04909
-1.04718
-1.04698
-1.0447
-1.04462
-1.0425
-1.04232
-1.03987
-1.03977
-1.03745
-1.03728
-1.03467
-1.03456
-1.03204
-1.03188
-1.02912
-1.029
-1.02631
-1.02615
-1.02323
-1.02311
-1.02025
-1.0201
-1.01703
-1.0169
-1.01386
-1.01371
-1.01049
-1.01036
-1.00714
-1.00699
-1.0036
-1.00347
-1.00007
-0.999927
-0.996362
-0.996227
-0.99264
-0.992495
-0.988756
-0.988619
-0.984852
-0.984707
-0.980807
-0.980668
-0.976734
-0.976588
-0.972532
-0.97239
-0.96829
-0.968144
-0.963924
-0.963781
-0.959507
-0.95936
-0.954969
-0.954825
-0.950372
-0.950225
-0.945661
-0.945515
-0.940882
-0.940734
-0.935992
-0.935845
-0.931026
-0.930877
-0.925955
-0.925807
-0.920806
-0.920656
-0.915566
-0.915416
-0.910248
-0.910097
-0.904846
-0.904695
-0.899362
-0.89921
-0.893799
-0.893647
-0.888148
-0.887996
-0.882423
-0.88227
-0.8766
-0.876447
-0.870703
-0.87055
-0.8647
-0.864547
-0.858633
-0.858479
-0.852455
-0.852301
-0.846223
-0.846069
-0.839879
-0.839725
-0.8335
-0.833346
-0.827013
-0.826859
-0.820511
-0.820357
-0.813894
-0.81374
-0.807268
-0.807113
-0.800499
-0.800343
-0.793715
-0.793559
-0.786762
-0.786605
-0.779794
-0.779636
-0.772635
-0.772476
-0.765488
-0.765328
-0.758148
-0.757987
-0.750861
-0.750699
-0.743377
-0.743215
-0.735978
-0.735814
-0.728348
-0.728182
-0.720818
-0.72065
-0.713019
-0.71285
-0.705357
-0.705186
-0.697397
-0.697223
-0.689614
-0.689437
-0.681489
-0.681309
-0.673586
-0.673403
-0.665286
-0.665099
-0.657258
-0.657067
-0.648774
-0.648578
-0.640639
-0.640438
-0.631996
-0.631789
-0.623794
-0.62358
-0.615022
-0.614802
-0.606805
-0.606574
-0.597949
-0.597711
-0.589779
-0.589528
-0.580883
-0.580624
-0.57282
-0.572543
-0.563919
-0.563635
-0.556012
-0.555705
-0.547133
-0.546821
-0.539438
-0.539093
-0.530585
-0.530241
-0.523108
-0.522718
-0.514258
-0.51388
-0.507055
-0.506608
-0.498253
-0.497839
-0.491446
-0.490925
-0.482794
-0.482348
-0.476582
-0.475965
-0.468191
-0.467723
-0.462724
-0.461975
-0.454581
-0.454115
-0.44994
-0.449005
-0.441981
-0.441563
-0.438323
-0.437123
-0.430536
-0.430247
-0.427977
-0.426536
-0.420461
-0.420427
-0.418318
-0.417445
-0.41197
-0.412321
-0.410288
-0.410067
-0.405288
-0.406135
-0.404122
-0.40462
-0.399842
-0.402043
-0.39922
-0.401253
-0.397324
-0.400321
8.29482e-05
1.67976e-06
8.28923e-05
1.63672e-06
8.26866e-05
1.44048e-06
8.21014e-05
8.581e-07
8.0723e-05
-5.21478e-07
7.80073e-05
-3.23685e-06
7.33091e-05
-7.93546e-06
6.58318e-05
-1.54127e-05
5.46357e-05
-2.66087e-05
3.86462e-05
-4.25983e-05
1.6653e-05
-6.45915e-05
-1.27087e-05
-9.39531e-05
-5.09215e-05
-0.000132166
-9.96191e-05
-0.000180863
-0.00016057
-0.000241814
-0.000235678
-0.000316922
-0.000326971
-0.000408215
-0.000436604
-0.000517848
-0.000566888
-0.000648132
-0.000720227
-0.000801471
-0.000899127
-0.000980371
-0.00110626
-0.0011875
-0.00134441
-0.00142566
-0.0016164
-0.00169765
-0.00192518
-0.00200642
-0.00227388
-0.00235512
-0.00266567
-0.00274692
-0.0031037
-0.00318495
-0.00359131
-0.00367256
-0.00413199
-0.00421324
-0.00472922
-0.00481046
-0.00538642
-0.00546766
-0.00610722
-0.00618846
-0.00689537
-0.00697662
-0.00775454
-0.00783578
-0.00868835
-0.0087696
-0.00970066
-0.00978191
-0.0107954
-0.0108766
-0.0119763
-0.0120575
-0.0132471
-0.0133284
-0.0146118
-0.0146931
-0.0160744
-0.0161556
-0.0176387
-0.0177199
-0.0193084
-0.0193897
-0.0210877
-0.0211689
-0.0229802
-0.0230615
-0.0249901
-0.0250713
-0.0271208
-0.0272021
-0.0293764
-0.0294577
-0.0317611
-0.0318424
-0.0342781
-0.0343594
-0.0369302
-0.0370115
-0.0397234
-0.0398047
-0.0426598
-0.0427411
-0.0457426
-0.0458238
-0.0489771
-0.0490583
-0.0523646
-0.0524458
-0.0559105
-0.0559917
-0.0596167
-0.059698
-0.0634864
-0.0635677
-0.0675234
-0.0676047
-0.0717308
-0.0718121
-0.0761121
-0.0761934
-0.0806678
-0.0807491
-0.0854023
-0.0854836
-0.0903197
-0.090401
-0.0954189
-0.0955002
-0.100705
-0.100786
-0.106178
-0.106259
-0.111842
-0.111923
-0.117697
-0.117779
-0.123745
-0.123827
-0.129989
-0.13007
-0.136427
-0.136508
-0.143063
-0.143144
-0.149895
-0.149976
-0.156927
-0.157008
-0.164155
-0.164236
-0.171583
-0.171664
-0.179207
-0.179288
-0.18703
-0.187111
-0.195047
-0.195129
-0.203261
-0.203342
-0.211668
-0.211749
-0.220266
-0.220348
-0.229054
-0.229136
-0.23803
-0.238112
-0.247192
-0.247273
-0.256535
-0.256617
-0.266057
-0.266138
-0.275752
-0.275834
-0.28562
-0.285701
-0.295654
-0.295736
-0.305852
-0.305933
-0.316205
-0.316286
-0.326712
-0.326793
-0.337367
-0.337448
-0.348161
-0.348243
-0.359093
-0.359174
-0.370152
-0.370234
-0.381336
-0.381417
-0.392637
-0.392719
-0.404046
-0.404127
-0.415557
-0.415639
-0.427164
-0.427246
-0.438858
-0.438939
-0.450633
-0.450714
-0.462479
-0.46256
-0.47439
-0.474471
-0.486357
-0.486439
-0.498372
-0.498453
-0.510425
-0.510507
-0.522512
-0.522594
-0.53462
-0.534702
-0.546745
-0.546827
-0.558874
-0.558955
-0.571002
-0.571084
-0.583119
-0.5832
-0.595219
-0.5953
-0.607288
-0.60737
-0.619324
-0.619405
-0.631315
-0.631396
-0.643255
-0.643336
-0.655134
-0.655216
-0.666947
-0.667029
-0.678683
-0.678764
-0.690339
-0.690421
-0.7019
-0.701981
-0.713368
-0.71345
-0.724727
-0.724808
-0.735977
-0.73606
-0.747105
-0.747186
-0.758113
-0.758195
-0.768983
-0.769064
-0.77972
-0.779802
-0.790305
-0.790387
-0.800748
-0.800831
-0.811026
-0.811107
-0.821151
-0.821234
-0.831098
-0.831179
-0.840884
-0.840967
-0.850479
-0.850559
-0.859905
-0.859989
-0.869131
-0.869211
-0.878182
-0.878266
-0.887021
-0.887101
-0.895682
-0.895767
-0.90412
-0.904199
-0.912378
-0.912464
-0.920405
-0.920483
-0.928251
-0.928338
-0.935857
-0.935934
-0.943283
-0.943371
-0.950458
-0.950534
-0.957458
-0.957547
-0.964197
-0.964271
-0.970765
-0.970857
-0.977064
-0.977135
-0.983198
-0.983293
-0.989052
-0.989121
-0.994751
-0.99485
-1.00016
-1.00022
-1.00543
-1.00553
-1.01039
-1.01045
-1.01522
-1.01533
-1.01974
-1.01979
-1.02414
-1.02426
-1.02822
-1.02826
-1.0322
-1.03233
-1.03584
-1.03587
-1.0394
-1.03955
-1.0426
-1.04262
-1.04576
-1.04592
-1.04854
-1.04852
-1.05128
-1.05147
-1.05365
-1.05361
-1.056
-1.05623
-1.05797
-1.05789
-1.05994
-1.06021
-1.06152
-1.06139
-1.06313
-1.06346
-1.06435
-1.06415
-1.06559
-1.06601
-1.06647
-1.06652
-1.06737
-1.06788
-1.06793
-1.06822
-1.06848
-1.06911
-1.06875
-1.06928
-1.06897
-1.06971
-1.06896
-1.06973
-1.06884
-1.06938
-1.06857
-1.06923
-1.06814
-1.06845
-1.06761
-1.06816
-1.06688
-1.06698
-1.06611
-1.06656
-1.06508
-1.06501
-1.06407
-1.06445
-1.06279
-1.0627
-1.06155
-1.06187
-1.06002
-1.05999
-1.05856
-1.05883
-1.05681
-1.05681
-1.05512
-1.05536
-1.05315
-1.05319
-1.05126
-1.05147
-1.04909
-1.04915
-1.04698
-1.04718
-1.04462
-1.0447
-1.04232
-1.04249
-1.03977
-1.03987
-1.03728
-1.03745
-1.03456
-1.03466
-1.03188
-1.03204
-1.029
-1.02912
-1.02615
-1.02631
-1.02311
-1.02323
-1.0201
-1.02025
-1.0169
-1.01703
-1.01371
-1.01386
-1.01036
-1.01049
-1.00699
-1.00714
-1.00347
-1.0036
-0.999927
-1.00007
-0.996227
-0.996362
-0.992495
-0.99264
-0.988619
-0.988756
-0.984707
-0.984852
-0.980668
-0.980807
-0.976588
-0.976734
-0.97239
-0.972532
-0.968144
-0.96829
-0.963781
-0.963924
-0.95936
-0.959507
-0.954825
-0.954969
-0.950225
-0.950372
-0.945515
-0.945661
-0.940734
-0.940882
-0.935845
-0.935992
-0.930877
-0.931026
-0.925806
-0.925955
-0.920656
-0.920806
-0.915416
-0.915566
-0.910097
-0.910248
-0.904695
-0.904846
-0.89921
-0.899361
-0.893647
-0.893799
-0.887996
-0.888148
-0.88227
-0.882423
-0.876447
-0.8766
-0.87055
-0.870703
-0.864547
-0.8647
-0.858479
-0.858633
-0.852301
-0.852455
-0.846069
-0.846223
-0.839725
-0.839879
-0.833346
-0.8335
-0.826859
-0.827013
-0.820357
-0.820511
-0.81374
-0.813894
-0.807113
-0.807268
-0.800343
-0.800499
-0.793559
-0.793715
-0.786605
-0.786762
-0.779636
-0.779794
-0.772476
-0.772635
-0.765328
-0.765488
-0.757987
-0.758147
-0.750699
-0.750861
-0.743214
-0.743377
-0.735814
-0.735978
-0.728182
-0.728348
-0.72065
-0.720818
-0.71285
-0.713019
-0.705186
-0.705357
-0.697223
-0.697396
-0.689437
-0.689614
-0.681309
-0.681489
-0.673403
-0.673586
-0.665099
-0.665286
-0.657067
-0.657258
-0.648578
-0.648774
-0.640438
-0.640639
-0.631789
-0.631996
-0.62358
-0.623794
-0.614802
-0.615022
-0.606574
-0.606805
-0.597711
-0.597949
-0.589528
-0.589779
-0.580624
-0.580883
-0.572543
-0.57282
-0.563635
-0.563919
-0.555705
-0.556012
-0.546821
-0.547133
-0.539093
-0.539438
-0.530241
-0.530585
-0.522718
-0.523108
-0.51388
-0.514258
-0.506608
-0.507055
-0.497839
-0.498253
-0.490925
-0.491445
-0.482348
-0.482794
-0.475965
-0.476582
-0.467723
-0.468191
-0.461975
-0.462724
-0.454115
-0.454581
-0.449005
-0.44994
-0.441563
-0.441981
-0.437123
-0.438323
-0.430247
-0.430536
-0.426536
-0.427977
-0.420427
-0.420461
-0.417445
-0.418318
-0.412321
-0.41197
-0.410067
-0.410288
-0.406135
-0.405288
-0.40462
-0.404122
-0.402043
-0.399842
-0.401253
-0.399221
-0.400321
-0.397325
-0.397324
-0.40032
-0.399216
-0.401256
-0.399836
-0.402043
-0.404162
-0.404628
-0.405333
-0.406142
-0.410335
-0.410077
-0.412015
-0.412334
-0.418356
-0.417456
-0.420498
-0.420437
-0.428013
-0.426548
-0.430572
-0.430261
-0.438353
-0.437137
-0.442015
-0.441579
-0.449971
-0.449021
-0.454615
-0.454133
-0.462753
-0.46199
-0.468221
-0.467739
-0.47661
-0.475981
-0.482822
-0.482364
-0.491475
-0.490944
-0.498282
-0.497857
-0.507082
-0.506626
-0.514286
-0.513898
-0.523132
-0.522734
-0.53061
-0.530258
-0.539466
-0.539114
-0.547158
-0.546838
-0.55604
-0.555725
-0.563945
-0.563654
-0.572842
-0.572559
-0.580911
-0.580646
-0.589805
-0.589548
-0.59798
-0.597736
-0.60683
-0.606594
-0.615053
-0.614828
-0.623817
-0.623598
-0.632019
-0.631808
-0.640664
-0.640458
-0.648796
-0.648596
-0.657284
-0.657089
-0.66531
-0.665119
-0.673611
-0.673424
-0.681514
-0.68133
-0.689641
-0.68946
-0.697419
-0.697241
-0.705384
-0.705208
-0.713042
-0.712868
-0.720841
-0.720669
-0.728371
-0.728201
-0.736003
-0.735834
-0.743399
-0.743232
-0.750888
-0.750723
-0.758173
-0.758008
-0.765508
-0.765345
-0.77266
-0.772498
-0.779817
-0.779656
-0.786789
-0.786629
-0.793739
-0.793579
-0.800521
-0.800362
-0.807288
-0.807129
-0.813925
-0.813766
-0.820536
-0.820378
-0.827041
-0.826883
-0.833525
-0.833368
-0.839907
-0.83975
-0.846245
-0.846087
-0.852475
-0.852317
-0.85866
-0.858503
-0.864725
-0.864568
-0.870733
-0.870576
-0.876622
-0.876465
-0.882443
-0.882287
-0.888172
-0.888016
-0.893819
-0.893663
-0.899382
-0.899227
-0.904868
-0.904714
-0.910274
-0.91012
-0.915594
-0.915441
-0.920837
-0.920684
-0.925984
-0.925832
-0.931051
-0.930898
-0.936018
-0.935868
-0.940905
-0.940754
-0.945684
-0.945534
-0.9504
-0.950249
-0.954991
-0.954843
-0.959527
-0.959377
-0.963951
-0.963804
-0.968315
-0.968165
-0.97255
-0.972406
-0.976758
-0.976609
-0.98083
-0.980687
-0.984873
-0.984725
-0.988778
-0.988637
-0.992669
-0.992521
-0.996391
-0.996252
-1.0001
-0.999947
-1.00363
-1.0035
-1.00717
-1.00702
-1.01051
-1.01038
-1.01388
-1.01373
-1.01705
-1.01692
-1.02027
-1.02012
-1.02326
-1.02314
-1.02634
-1.02618
-1.02914
-1.02902
-1.03207
-1.0319
-1.03469
-1.03458
-1.03747
-1.0373
-1.03989
-1.03979
-1.04252
-1.04233
-1.04472
-1.04464
-1.0472
-1.047
-1.04917
-1.04911
-1.0515
-1.05128
-1.05321
-1.05317
-1.05539
-1.05514
-1.05684
-1.05683
-1.05886
-1.05858
-1.06001
-1.06004
-1.0619
-1.06157
-1.06273
-1.06281
-1.06448
-1.06409
-1.06503
-1.0651
-1.06659
-1.06613
-1.06701
-1.0669
-1.06819
-1.06763
-1.06848
-1.06816
-1.06926
-1.0686
-1.0694
-1.06886
-1.06976
-1.06898
-1.06974
-1.06899
-1.06931
-1.06878
-1.06913
-1.0685
-1.06825
-1.06795
-1.06791
-1.06739
-1.06655
-1.0665
-1.06603
-1.06561
-1.06418
-1.06437
-1.06349
-1.06315
-1.06141
-1.06155
-1.06024
-1.05996
-1.05791
-1.05799
-1.05626
-1.05603
-1.05363
-1.05367
-1.05149
-1.0513
-1.04854
-1.04855
-1.04595
-1.04578
-1.04265
-1.04263
-1.03957
-1.03942
-1.0359
-1.03587
-1.03236
-1.03223
-1.02828
-1.02823
-1.02428
-1.02416
-1.01981
-1.01975
-1.01536
-1.01525
-1.01046
-1.0104
-1.00555
-1.00544
-1.00024
-1.00017
-0.994863
-0.994761
-0.989161
-0.989089
-0.983323
-0.983224
-0.977147
-0.977072
-0.9709
-0.970804
-0.964294
-0.964216
-0.957556
-0.957463
-0.950579
-0.9505
-0.943412
-0.94332
-0.93597
-0.935889
-0.928386
-0.928296
-0.920483
-0.920401
-0.912501
-0.912412
-0.904212
-0.904129
-0.895785
-0.895696
-0.887131
-0.887047
-0.878272
-0.878184
-0.869199
-0.869115
-0.860007
-0.85992
-0.85062
-0.850536
-0.840955
-0.840868
-0.831195
-0.83111
-0.821253
-0.821166
-0.811149
-0.811064
-0.800871
-0.800785
-0.790454
-0.790369
-0.779872
-0.779785
-0.769063
-0.768978
-0.758209
-0.758123
-0.747261
-0.747175
-0.736056
-0.73597
-0.724778
-0.724693
-0.713494
-0.713408
-0.702043
-0.701957
-0.690478
-0.690393
-0.678761
-0.678676
-0.667082
-0.666996
-0.655269
-0.655184
-0.643382
-0.643297
-0.631377
-0.631291
-0.619463
-0.619378
-0.607451
-0.607365
-0.59526
-0.595174
-0.583289
-0.583204
-0.571161
-0.571075
-0.558968
-0.558883
-0.54679
-0.546704
-0.534733
-0.534648
-0.522547
-0.522462
-0.510513
-0.510428
-0.49853
-0.498445
-0.486391
-0.486306
-0.47449
-0.474404
-0.462627
-0.462542
-0.450676
-0.45059
-0.438962
-0.438877
-0.427352
-0.427267
-0.415649
-0.415564
-0.404065
-0.40398
-0.392772
-0.392687
-0.381432
-0.381346
-0.370225
-0.37014
-0.359164
-0.359079
-0.348263
-0.348178
-0.337518
-0.337433
-0.326771
-0.326686
-0.316376
-0.31629
-0.305996
-0.305911
-0.295798
-0.295713
-0.285813
-0.285728
-0.275841
-0.275755
-0.266094
-0.266009
-0.256555
-0.25647
-0.247255
-0.24717
-0.23817
-0.238085
-0.229155
-0.229069
-0.220363
-0.220277
-0.211829
-0.211744
-0.203348
-0.203263
-0.195135
-0.19505
-0.187154
-0.187069
-0.179277
-0.179192
-0.171633
-0.171548
-0.164272
-0.164187
-0.156976
-0.15689
-0.14997
-0.149885
-0.143189
-0.143103
-0.136546
-0.136461
-0.13012
-0.130035
-0.123845
-0.12376
-0.117779
-0.117694
-0.112022
-0.111937
-0.106315
-0.10623
-0.100782
-0.100697
-0.0955743
-0.0954892
-0.0904095
-0.0903243
-0.0855549
-0.0854697
-0.0807501
-0.0806649
-0.0762489
-0.0761638
-0.0717942
-0.071709
-0.0676445
-0.0675594
-0.0636454
-0.0635602
-0.0597243
-0.0596392
-0.0560495
-0.0559644
-0.0524676
-0.0523824
-0.0491097
-0.0490245
-0.0458525
-0.0457674
-0.042802
-0.0427168
-0.0398545
-0.0397694
-0.0370095
-0.0369243
-0.0343609
-0.0342758
-0.0318894
-0.0318043
-0.0295214
-0.0294363
-0.027238
-0.0271529
-0.0250639
-0.0249788
-0.023113
-0.0230279
-0.0211934
-0.0211083
-0.0194169
-0.0193317
-0.0177346
-0.0176495
-0.0161893
-0.0161042
-0.0147247
-0.0146396
-0.0133412
-0.0132561
-0.0120785
-0.0119934
-0.0108976
-0.0108125
-0.00981856
-0.00973344
-0.00877946
-0.00869434
-0.0078696
-0.00778448
-0.00699904
-0.00691392
-0.00620865
-0.00612353
-0.0054886
-0.00540348
-0.00483982
-0.0047547
-0.00425095
-0.00416584
-0.00370149
-0.00361638
-0.00320666
-0.00312154
-0.00277044
-0.00268533
-0.00237939
-0.00229428
-0.00202295
-0.00193784
-0.00172089
-0.00163578
-0.00144819
-0.00136308
-0.0012085
-0.00112339
-0.00100524
-0.000920131
-0.000828806
-0.0007437
-0.000673467
-0.000588359
-0.00054147
-0.00045636
-0.000433223
-0.000348115
-0.00034288
-0.000257775
-0.000266368
-0.000181262
-0.000204509
-0.000119401
-0.000156385
-7.12783e-05
-0.000118619
-3.35143e-05
-8.86815e-05
-3.57664e-06
-6.64347e-05
1.86716e-05
-5.06906e-05
3.44149e-05
-3.96786e-05
4.54255e-05
-3.20676e-05
5.3037e-05
-2.7341e-05
5.7764e-05
-2.46737e-05
6.04318e-05
-2.33135e-05
6.17909e-05
-2.27163e-05
6.23908e-05
-2.25114e-05
6.2605e-05
-2.24657e-05
6.26636e-05
-0.40032
-0.397324
-0.401256
-0.399216
-0.402043
-0.399837
-0.404628
-0.404162
-0.406142
-0.405333
-0.410077
-0.410334
-0.412334
-0.412015
-0.417456
-0.418356
-0.420437
-0.420498
-0.426548
-0.428013
-0.430261
-0.430572
-0.437137
-0.438353
-0.441579
-0.442015
-0.449021
-0.449971
-0.454133
-0.454615
-0.46199
-0.462753
-0.467739
-0.468221
-0.475981
-0.47661
-0.482364
-0.482822
-0.490944
-0.491475
-0.497857
-0.498282
-0.506626
-0.507082
-0.513898
-0.514286
-0.522734
-0.523132
-0.530258
-0.53061
-0.539114
-0.539466
-0.546838
-0.547157
-0.555725
-0.55604
-0.563654
-0.563945
-0.572559
-0.572842
-0.580646
-0.580911
-0.589548
-0.589805
-0.597736
-0.59798
-0.606594
-0.60683
-0.614828
-0.615053
-0.623598
-0.623817
-0.631808
-0.632019
-0.640458
-0.640664
-0.648596
-0.648796
-0.657089
-0.657284
-0.665119
-0.66531
-0.673424
-0.673611
-0.68133
-0.681514
-0.68946
-0.68964
-0.697241
-0.697419
-0.705208
-0.705384
-0.712868
-0.713042
-0.720669
-0.720841
-0.728201
-0.728371
-0.735834
-0.736002
-0.743232
-0.743399
-0.750723
-0.750888
-0.758008
-0.758173
-0.765345
-0.765508
-0.772498
-0.77266
-0.779656
-0.779817
-0.786629
-0.786789
-0.793579
-0.793739
-0.800362
-0.800521
-0.807129
-0.807288
-0.813766
-0.813925
-0.820378
-0.820536
-0.826883
-0.827041
-0.833368
-0.833525
-0.83975
-0.839907
-0.846087
-0.846245
-0.852317
-0.852475
-0.858503
-0.85866
-0.864568
-0.864725
-0.870576
-0.870733
-0.876465
-0.876622
-0.882287
-0.882443
-0.888016
-0.888172
-0.893663
-0.893819
-0.899227
-0.899382
-0.904714
-0.904868
-0.91012
-0.910274
-0.915441
-0.915594
-0.920684
-0.920837
-0.925832
-0.925984
-0.930898
-0.931051
-0.935868
-0.936018
-0.940754
-0.940905
-0.945534
-0.945684
-0.950249
-0.9504
-0.954843
-0.954991
-0.959377
-0.959527
-0.963804
-0.963951
-0.968165
-0.968315
-0.972406
-0.97255
-0.976609
-0.976758
-0.980687
-0.98083
-0.984725
-0.984873
-0.988637
-0.988778
-0.992521
-0.992669
-0.996252
-0.996391
-0.999947
-1.0001
-1.0035
-1.00363
-1.00702
-1.00717
-1.01038
-1.01051
-1.01373
-1.01388
-1.01692
-1.01705
-1.02012
-1.02027
-1.02314
-1.02326
-1.02618
-1.02634
-1.02902
-1.02914
-1.0319
-1.03207
-1.03458
-1.03469
-1.0373
-1.03747
-1.03979
-1.03988
-1.04233
-1.04252
-1.04464
-1.04472
-1.047
-1.0472
-1.04911
-1.04917
-1.05128
-1.0515
-1.05317
-1.05321
-1.05514
-1.05539
-1.05683
-1.05684
-1.05858
-1.05886
-1.06004
-1.06001
-1.06157
-1.0619
-1.06281
-1.06273
-1.06409
-1.06448
-1.0651
-1.06503
-1.06613
-1.06659
-1.0669
-1.06701
-1.06763
-1.06819
-1.06816
-1.06848
-1.0686
-1.06926
-1.06886
-1.0694
-1.06898
-1.06976
-1.06899
-1.06974
-1.06878
-1.06931
-1.0685
-1.06913
-1.06795
-1.06825
-1.06739
-1.06791
-1.0665
-1.06655
-1.06561
-1.06603
-1.06437
-1.06418
-1.06315
-1.06349
-1.06155
-1.06141
-1.05996
-1.06024
-1.05799
-1.05791
-1.05603
-1.05626
-1.05367
-1.05363
-1.0513
-1.05149
-1.04855
-1.04854
-1.04578
-1.04595
-1.04263
-1.04265
-1.03942
-1.03957
-1.03587
-1.0359
-1.03223
-1.03236
-1.02823
-1.02828
-1.02416
-1.02428
-1.01975
-1.01981
-1.01525
-1.01536
-1.0104
-1.01046
-1.00544
-1.00555
-1.00017
-1.00024
-0.994761
-0.994863
-0.989089
-0.989161
-0.983224
-0.983323
-0.977072
-0.977147
-0.970804
-0.9709
-0.964216
-0.964294
-0.957463
-0.957556
-0.9505
-0.950579
-0.94332
-0.943411
-0.935889
-0.93597
-0.928296
-0.928386
-0.920401
-0.920483
-0.912412
-0.912501
-0.904129
-0.904212
-0.895696
-0.895784
-0.887047
-0.887131
-0.878184
-0.878272
-0.869115
-0.869199
-0.85992
-0.860007
-0.850536
-0.85062
-0.840868
-0.840954
-0.83111
-0.831195
-0.821166
-0.821252
-0.811064
-0.811149
-0.800785
-0.800871
-0.790369
-0.790454
-0.779785
-0.779871
-0.768978
-0.769063
-0.758123
-0.758208
-0.747175
-0.74726
-0.73597
-0.736056
-0.724693
-0.724778
-0.713409
-0.713494
-0.701957
-0.702042
-0.690393
-0.690478
-0.678676
-0.678761
-0.666996
-0.667082
-0.655184
-0.655269
-0.643297
-0.643382
-0.631291
-0.631377
-0.619378
-0.619463
-0.607365
-0.607451
-0.595175
-0.59526
-0.583204
-0.583289
-0.571075
-0.57116
-0.558883
-0.558968
-0.546704
-0.54679
-0.534648
-0.534733
-0.522462
-0.522547
-0.510428
-0.510513
-0.498445
-0.49853
-0.486306
-0.486391
-0.474404
-0.474489
-0.462542
-0.462627
-0.45059
-0.450675
-0.438877
-0.438962
-0.427267
-0.427352
-0.415564
-0.415649
-0.40398
-0.404065
-0.392687
-0.392772
-0.381346
-0.381431
-0.37014
-0.370225
-0.359079
-0.359164
-0.348178
-0.348263
-0.337433
-0.337518
-0.326686
-0.326771
-0.31629
-0.316376
-0.305911
-0.305996
-0.295713
-0.295798
-0.285728
-0.285813
-0.275755
-0.27584
-0.266009
-0.266094
-0.25647
-0.256555
-0.24717
-0.247255
-0.238085
-0.23817
-0.229069
-0.229155
-0.220278
-0.220363
-0.211744
-0.211829
-0.203263
-0.203348
-0.19505
-0.195135
-0.187069
-0.187154
-0.179192
-0.179277
-0.171548
-0.171633
-0.164187
-0.164272
-0.156891
-0.156976
-0.149885
-0.14997
-0.143104
-0.143189
-0.136461
-0.136546
-0.130035
-0.13012
-0.12376
-0.123845
-0.117694
-0.117779
-0.111937
-0.112022
-0.10623
-0.106315
-0.100697
-0.100782
-0.0954892
-0.0955742
-0.0903244
-0.0904094
-0.0854698
-0.0855547
-0.080665
-0.08075
-0.0761639
-0.0762488
-0.0717091
-0.0717941
-0.0675595
-0.0676444
-0.0635603
-0.0636453
-0.0596393
-0.0597242
-0.0559645
-0.0560494
-0.0523825
-0.0524674
-0.0490246
-0.0491096
-0.0457675
-0.0458524
-0.0427169
-0.0428019
-0.0397695
-0.0398544
-0.0369244
-0.0370094
-0.0342759
-0.0343608
-0.0318044
-0.0318893
-0.0294364
-0.0295213
-0.027153
-0.0272379
-0.0249789
-0.0250638
-0.023028
-0.0231129
-0.0211084
-0.0211933
-0.0193318
-0.0194167
-0.0176496
-0.0177345
-0.0161043
-0.0161892
-0.0146397
-0.0147246
-0.0132562
-0.0133411
-0.0119935
-0.0120784
-0.0108126
-0.0108975
-0.00973354
-0.00981844
-0.00869444
-0.00877934
-0.00778458
-0.00786949
-0.00691402
-0.00699892
-0.00612363
-0.00620853
-0.00540358
-0.00548848
-0.00475481
-0.0048397
-0.00416594
-0.00425083
-0.00361648
-0.00370138
-0.00312164
-0.00320654
-0.00268543
-0.00277032
-0.00229438
-0.00237927
-0.00193794
-0.00202283
-0.00163588
-0.00172077
-0.00136319
-0.00144807
-0.00112349
-0.00120838
-0.000920232
-0.00100512
-0.000743801
-0.000828685
-0.00058846
-0.000673346
-0.000456461
-0.000541349
-0.000348216
-0.000433101
-0.000257876
-0.000342758
-0.000181363
-0.000266246
-0.000119502
-0.000204387
-7.1379e-05
-0.000156262
-3.36151e-05
-0.000118496
-3.67737e-06
-8.85591e-05
1.85709e-05
-6.63122e-05
3.43141e-05
-5.05681e-05
4.53247e-05
-3.9556e-05
5.29363e-05
-3.19449e-05
5.76632e-05
-2.72183e-05
6.0331e-05
-2.4551e-05
6.16901e-05
-2.31908e-05
6.229e-05
-2.25936e-05
6.25042e-05
-2.23887e-05
6.25628e-05
-2.2343e-05
)
;

boundaryField
{
    walls
    {
        type            zeroGradient;
    }
    inlet
    {
        type            cyclic;
    }
    outlet
    {
        type            cyclic;
    }
    sides
    {
        type            empty;
    }
}


// ************************************************************************* //
