/*--------------------------------*- C++ -*----------------------------------*\
| =========                 |                                                 |
| \\      /  F ield         | OpenFOAM: The Open Source CFD Toolbox           |
|  \\    /   O peration     | Version:  2012                                  |
|   \\  /    A nd           | Website:  www.openfoam.com                      |
|    \\/     M anipulation  |                                                 |
\*---------------------------------------------------------------------------*/
FoamFile
{
    version     2.0;
    format      ascii;
    class       surfaceScalarField;
    location    "16700";
    object      phi;
}
// * * * * * * * * * * * * * * * * * * * * * * * * * * * * * * * * * * * * * //

dimensions      [0 3 -1 0 0 0 0];
oriented        oriented;


internalField   nonuniform List<scalar> 
5116
(
7.96283e-07
-8.0513e-13
-5.93849e-13
-1.67505e-12
5.7874e-13
2.43384e-06
2.54984e-12
-9.27713e-13
-4.27832e-12
8.49373e-13
4.14125e-06
4.19471e-12
-7.01183e-13
-6.24562e-12
6.41974e-13
5.92075e-06
5.74639e-12
-3.88306e-13
-7.31099e-12
3.55524e-13
7.77462e-06
6.01587e-12
-2.11325e-13
-7.90583e-12
1.93489e-13
9.70524e-06
6.69792e-12
-1.31025e-13
-8.2513e-12
1.19974e-13
1.17151e-05
6.66238e-12
-9.18769e-14
-8.51588e-12
8.41329e-14
1.38068e-05
7.12373e-12
-7.02739e-14
-8.69593e-12
6.43585e-14
1.59831e-05
7.02853e-12
-5.70525e-14
-8.86432e-12
5.22559e-14
1.82469e-05
7.41093e-12
-4.83079e-14
-8.98528e-12
4.42548e-14
2.06011e-05
7.28451e-12
-4.21899e-14
-9.11301e-12
3.86564e-14
2.3049e-05
7.62461e-12
-3.77203e-14
-9.20565e-12
3.45701e-14
2.55939e-05
7.49112e-12
-3.43527e-14
-9.31133e-12
3.14906e-14
2.8239e-05
7.80772e-12
-3.17483e-14
-9.38784e-12
2.91127e-14
3.0988e-05
7.6645e-12
-2.97006e-14
-9.48069e-12
2.72423e-14
3.38444e-05
7.96451e-12
-2.80632e-14
-9.54731e-12
2.57506e-14
3.68121e-05
7.82061e-12
-2.67453e-14
-9.6317e-12
2.45491e-14
3.98948e-05
8.11036e-12
-2.56729e-14
-9.69186e-12
2.35755e-14
4.30964e-05
7.96267e-12
-2.48022e-14
-9.77088e-12
2.27842e-14
4.6421e-05
8.24434e-12
-2.40905e-14
-9.82682e-12
2.21419e-14
4.98726e-05
8.098e-12
-2.35163e-14
-9.9021e-12
2.16229e-14
5.34552e-05
8.37459e-12
-2.3052e-14
-9.95525e-12
2.12082e-14
5.71728e-05
8.22688e-12
-2.26877e-14
-1.00283e-11
2.08824e-14
6.10297e-05
8.49927e-12
-2.24037e-14
-1.00798e-11
2.06339e-14
6.50296e-05
8.35344e-12
-2.21965e-14
-1.01513e-11
2.04531e-14
6.91767e-05
8.62338e-12
-2.20512e-14
-1.02019e-11
2.03328e-14
7.34747e-05
8.4776e-12
-2.1968e-14
-1.02729e-11
2.02667e-14
7.79274e-05
8.74552e-12
-2.19346e-14
-1.03232e-11
2.02503e-14
8.25383e-05
8.60203e-12
-2.19539e-14
-1.03942e-11
2.02795e-14
8.73107e-05
8.86908e-12
-2.2015e-14
-1.04447e-11
2.03513e-14
9.22479e-05
8.72668e-12
-2.21229e-14
-1.05162e-11
2.0463e-14
9.73525e-05
8.99314e-12
-2.22674e-14
-1.05675e-11
2.06129e-14
0.000102627
8.85334e-12
-2.24549e-14
-1.064e-11
2.07992e-14
0.000108074
9.12006e-12
-2.26756e-14
-1.06925e-11
2.10209e-14
0.000113695
8.98219e-12
-2.29372e-14
-1.07664e-11
2.12769e-14
0.000119492
9.24943e-12
-2.323e-14
-1.08205e-11
2.1567e-14
0.000125465
9.11451e-12
-2.35629e-14
-1.08963e-11
2.18903e-14
0.000131614
9.38292e-12
-2.3926e-14
-1.09522e-11
2.22472e-14
0.00013794
9.25084e-12
-2.43291e-14
-1.10304e-11
2.26372e-14
0.000144441
9.52072e-12
-2.47623e-14
-1.10887e-11
2.30609e-14
0.000151117
9.39206e-12
-2.5236e-14
-1.11695e-11
2.35184e-14
0.000157965
9.66397e-12
-2.57403e-14
-1.12306e-11
2.40103e-14
0.000164982
9.539e-12
-2.62864e-14
-1.13146e-11
2.45369e-14
0.000172164
9.81332e-12
-2.6864e-14
-1.13788e-11
2.50992e-14
0.000179508
9.69236e-12
-2.74849e-14
-1.14663e-11
2.56976e-14
0.000187008
9.96961e-12
-2.81383e-14
-1.15342e-11
2.63333e-14
0.000194657
9.85325e-12
-2.88371e-14
-1.16257e-11
2.70066e-14
0.00020245
1.01339e-11
-2.95699e-14
-1.16976e-11
2.7719e-14
0.000210378
1.00223e-11
-3.035e-14
-1.17936e-11
2.84709e-14
0.000218432
1.03069e-11
-3.11653e-14
-1.18701e-11
2.92635e-14
0.000226603
1.02008e-11
-3.20298e-14
-1.1971e-11
3.00971e-14
0.00023488
1.04898e-11
-3.29308e-14
-1.20525e-11
3.09732e-14
0.000243252
1.03894e-11
-3.3883e-14
-1.2159e-11
3.1892e-14
0.000251706
1.06835e-11
-3.48723e-14
-1.2246e-11
3.28544e-14
0.000260229
1.05896e-11
-3.59137e-14
-1.23585e-11
3.38602e-14
0.000268807
1.08893e-11
-3.69918e-14
-1.24516e-11
3.49098e-14
0.000277424
1.08021e-11
-3.81224e-14
-1.25706e-11
3.60028e-14
0.000286065
1.11079e-11
-3.92889e-14
-1.26702e-11
3.71397e-14
0.000294713
1.10282e-11
-4.05067e-14
-1.27964e-11
3.83186e-14
0.000303351
1.13408e-11
-4.17574e-14
-1.29031e-11
3.95389e-14
0.00031196
1.12688e-11
-4.30567e-14
-1.30367e-11
4.07985e-14
0.000320522
1.15889e-11
-4.43843e-14
-1.31509e-11
4.20961e-14
0.000329018
1.15248e-11
-4.57557e-14
-1.32928e-11
4.3428e-14
0.000337428
1.1853e-11
-4.71488e-14
-1.34148e-11
4.47921e-14
0.000345733
1.17973e-11
-4.85796e-14
-1.35651e-11
4.61843e-14
0.000353913
1.21341e-11
-5.00229e-14
-1.36953e-11
4.7601e-14
0.000361947
1.20864e-11
-5.14961e-14
-1.38546e-11
4.90378e-14
0.000369817
1.24323e-11
-5.29725e-14
-1.39932e-11
5.04909e-14
0.000377501
1.23934e-11
-5.44697e-14
-1.41613e-11
5.1955e-14
0.000384983
1.27488e-11
-5.59603e-14
-1.43084e-11
5.34268e-14
0.000392241
1.27176e-11
-5.74637e-14
-1.4486e-11
5.49015e-14
0.00039926
1.30826e-11
-5.89518e-14
-1.46414e-11
5.63763e-14
0.000406023
1.306e-11
-6.04468e-14
-1.48282e-11
5.78476e-14
0.000412512
1.34349e-11
-6.19208e-14
-1.49919e-11
5.93145e-14
0.000418715
1.34196e-11
-6.33999e-14
-1.51882e-11
6.07754e-14
0.000424617
1.38041e-11
-6.48567e-14
-1.53602e-11
6.22313e-14
0.000430207
1.37973e-11
-6.63214e-14
-1.55655e-11
6.36834e-14
0.000435475
1.41917e-11
-6.77667e-14
-1.57456e-11
6.51342e-14
0.000440411
1.41921e-11
-6.9227e-14
-1.59605e-11
6.6587e-14
0.00044501
1.4596e-11
-7.06763e-14
-1.61488e-11
6.80474e-14
0.000449265
1.4605e-11
-7.21533e-14
-1.63729e-11
6.95215e-14
0.000453175
1.50188e-11
-7.36303e-14
-1.65695e-11
7.10145e-14
0.000456736
1.50355e-11
-7.51496e-14
-1.68035e-11
7.25346e-14
0.00045995
1.54592e-11
-7.66823e-14
-1.70087e-11
7.40873e-14
0.000462817
1.54852e-11
-7.8274e-14
-1.72526e-11
7.56825e-14
0.000465343
1.59191e-11
-7.98933e-14
-1.74667e-11
7.73252e-14
0.000467531
1.59544e-11
-8.15898e-14
-1.77218e-11
7.90275e-14
0.000469388
1.63991e-11
-8.33285e-14
-1.79456e-11
8.07918e-14
0.000470922
1.64451e-11
-8.51623e-14
-1.8212e-11
8.26328e-14
0.000472142
1.69014e-11
-8.70521e-14
-1.84463e-11
8.455e-14
0.000473058
1.69588e-11
-8.90546e-14
-1.87255e-11
8.65607e-14
0.000473681
1.74274e-11
-9.11257e-14
-1.89714e-11
8.86604e-14
0.000474023
1.74977e-11
-9.33281e-14
-1.92641e-11
9.08712e-14
0.000474096
1.79799e-11
-9.56102e-14
-1.95228e-11
9.3183e-14
0.000473914
1.80646e-11
-9.80414e-14
-1.98308e-11
9.56231e-14
0.00047349
1.85615e-11
-1.00563e-13
-2.01037e-11
9.81749e-14
0.000472837
1.86621e-11
-1.03254e-13
-2.04281e-11
1.00875e-13
0.00047197
1.91753e-11
-1.06042e-13
-2.07167e-11
1.03694e-13
0.000470903
1.92939e-11
-1.09022e-13
-2.10595e-11
1.06683e-13
0.000469649
1.9825e-11
-1.12107e-13
-2.13657e-11
1.09798e-13
0.000468223
1.99629e-11
-1.15408e-13
-2.17284e-11
1.13108e-13
0.000466637
2.05137e-11
-1.18816e-13
-2.20539e-11
1.16548e-13
0.000464905
2.0674e-11
-1.22469e-13
-2.24391e-11
1.20209e-13
0.000463039
2.12466e-11
-1.2623e-13
-2.27861e-11
1.24002e-13
0.000461053
2.14308e-11
-1.30272e-13
-2.31955e-11
1.28052e-13
0.000458957
2.20274e-11
-1.34417e-13
-2.35662e-11
1.32228e-13
0.000456763
2.22388e-11
-1.38885e-13
-2.40027e-11
1.36705e-13
0.000454481
2.2862e-11
-1.43445e-13
-2.43998e-11
1.41295e-13
0.000452122
2.31022e-11
-1.48383e-13
-2.48656e-11
1.46242e-13
0.000449694
2.37545e-11
-1.53389e-13
-2.52916e-11
1.51279e-13
0.000447207
2.4028e-11
-1.58844e-13
-2.57901e-11
1.56743e-13
0.000444668
2.47125e-11
-1.6433e-13
-2.62482e-11
1.6226e-13
0.000442086
2.50211e-11
-1.70359e-13
-2.67821e-11
1.68296e-13
0.000439466
2.57408e-11
-1.76359e-13
-2.72753e-11
1.74327e-13
0.000436816
2.60893e-11
-1.83022e-13
-2.78485e-11
1.80999e-13
0.000434141
2.68481e-11
-1.8957e-13
-2.83806e-11
1.87577e-13
0.000431446
2.72387e-11
-1.96943e-13
-2.89965e-11
1.94957e-13
0.000428736
2.804e-11
-2.04068e-13
-2.95712e-11
2.02113e-13
0.000426014
2.84787e-11
-2.12236e-13
-3.02343e-11
2.10288e-13
0.000423286
2.9327e-11
-2.19968e-13
-3.08558e-11
2.18049e-13
0.000420553
2.98166e-11
-2.29036e-13
-3.15704e-11
2.27124e-13
0.000417819
3.07162e-11
-2.37391e-13
-3.22432e-11
2.35509e-13
0.000415086
3.12631e-11
-2.47485e-13
-3.30145e-11
2.45609e-13
0.000412356
3.22192e-11
-2.56473e-13
-3.37437e-11
2.54625e-13
0.000409631
3.28271e-11
-2.67748e-13
-3.45769e-11
2.65906e-13
0.000406913
3.38448e-11
-2.77356e-13
-3.53678e-11
2.75542e-13
0.000404202
3.45217e-11
-2.90011e-13
-3.62692e-11
2.88202e-13
0.000401501
3.56071e-11
-3.00197e-13
-3.71277e-11
2.98414e-13
0.000398811
3.63575e-11
-3.1448e-13
-3.81038e-11
3.12702e-13
0.000396131
3.75166e-11
-3.25162e-13
-3.90361e-11
3.2341e-13
0.000393464
3.83498e-11
-3.41389e-13
-4.00945e-11
3.39641e-13
0.000390811
3.95897e-11
-3.52422e-13
-4.11077e-11
3.50698e-13
0.000388172
4.05115e-11
-3.71014e-13
-4.22562e-11
3.69293e-13
0.000385549
4.18393e-11
-3.82159e-13
-4.33575e-11
3.8046e-13
0.000382942
4.28612e-11
-4.03665e-13
-4.46055e-11
4.01969e-13
0.000380352
4.42852e-11
-4.1455e-13
-4.5803e-11
4.12875e-13
0.000377781
4.5415e-11
-4.39711e-13
-4.71605e-11
4.38037e-13
0.00037523
4.69433e-11
-4.49773e-13
-4.84625e-11
4.48118e-13
0.000372699
4.81946e-11
-4.79586e-13
-4.99411e-11
4.77931e-13
0.00037019
4.98364e-11
-4.87986e-13
-5.13566e-11
4.86349e-13
0.000367703
5.12198e-11
-5.23809e-13
-5.29694e-11
5.22169e-13
0.000365241
5.29844e-11
-5.29315e-13
-5.45075e-11
5.27691e-13
0.000362805
5.45174e-11
-5.73013e-13
-5.62694e-11
5.71385e-13
0.000360396
5.64146e-11
-5.73829e-13
-5.79396e-11
5.72213e-13
0.000358016
5.81121e-11
-6.27981e-13
-5.98679e-11
6.2636e-13
0.000355667
6.01514e-11
-6.21501e-13
-6.16795e-11
6.19889e-13
0.000353351
6.20357e-11
-6.89695e-13
-6.37945e-11
6.88076e-13
0.000351071
6.42266e-11
-6.72162e-13
-6.57562e-11
6.70548e-13
0.00034883
6.63191e-11
-7.59409e-13
-6.80819e-11
7.57785e-13
0.000346629
6.86696e-11
-7.25415e-13
-7.02013e-11
7.23793e-13
0.000344472
7.10017e-11
-8.38752e-13
-7.27665e-11
8.37116e-13
0.000342361
7.35181e-11
-7.80524e-13
-7.50491e-11
7.78885e-13
0.0003403
7.61222e-11
-9.29873e-13
-7.78892e-11
9.28216e-13
0.000338292
7.88065e-11
-8.36248e-13
-8.03363e-11
8.34585e-13
0.000336339
8.17289e-11
-1.03565e-12
-8.34954e-11
1.03396e-12
0.000334446
8.45778e-11
-8.90599e-13
-8.61029e-11
8.88902e-13
0.000332614
8.78712e-11
-1.15998e-12
-8.96366e-11
1.15825e-12
0.000330846
9.08717e-11
-9.40492e-13
-9.23907e-11
9.38751e-13
0.000329144
9.46102e-11
-1.30824e-12
-9.63707e-11
1.30646e-12
0.00032751
9.7736e-11
-9.81222e-13
-9.9244e-11
9.79425e-13
0.000325943
1.02011e-10
-1.4879e-12
-1.03765e-10
1.48606e-12
0.000324443
1.05214e-10
-1.00572e-12
-1.06708e-10
1.00385e-12
0.000323007
1.10152e-10
-1.70943e-12
-1.11895e-10
1.70751e-12
0.000321633
1.13354e-10
-1.00347e-12
-1.14828e-10
1.00152e-12
0.000320317
1.19124e-10
-1.98769e-12
-1.20851e-10
1.98567e-12
0.000319054
1.22199e-10
-9.58883e-13
-1.23647e-10
9.56817e-13
0.000317839
1.29034e-10
-2.34385e-12
-1.3074e-10
2.34171e-12
0.000316669
1.31789e-10
-8.48951e-13
-1.33203e-10
8.46751e-13
0.00031554
1.40009e-10
-2.80829e-12
-1.4169e-10
2.806e-12
0.000314448
1.42148e-10
-6.39787e-13
-1.43523e-10
6.3742e-13
0.000313394
1.5221e-10
-3.42486e-12
-1.5386e-10
3.42239e-12
0.000312379
1.53287e-10
-2.81479e-13
-1.54616e-10
2.78912e-13
0.000311406
1.65853e-10
-4.25709e-12
-1.6745e-10
4.25439e-12
0.000310478
1.65196e-10
2.99453e-13
-1.66461e-10
-3.02275e-13
0.000309601
1.8119e-10
-5.39753e-12
-1.82716e-10
5.39454e-12
0.00030878
1.77821e-10
1.21136e-12
-1.78991e-10
-1.21452e-12
0.000308019
1.98583e-10
-6.98154e-12
-1.99997e-10
6.97811e-12
0.000307323
1.91031e-10
2.6141e-12
-1.92063e-10
-2.61781e-12
0.000306692
2.18478e-10
-9.20789e-12
-2.19746e-10
9.20372e-12
0.00030613
2.04503e-10
4.74441e-12
-2.05423e-10
-4.74887e-12
0.000305637
2.41402e-10
-1.23677e-11
-2.42585e-10
1.23632e-11
0.000305211
2.18851e-10
7.58688e-12
-2.19737e-10
-7.59117e-12
0.00030485
2.69266e-10
-1.68789e-11
-2.70433e-10
1.68747e-11
0.000304548
2.75218e-10
-1.92486e-12
-2.76125e-10
1.92078e-12
0.000304301
3.43638e-10
-2.2882e-11
-3.4483e-10
2.2878e-11
0.000304105
3.83878e-10
-1.33893e-11
-3.8492e-10
1.33854e-11
0.000303953
4.75078e-10
-3.04732e-11
-4.76398e-10
3.04694e-11
0.000303844
5.56233e-10
-2.70348e-11
-5.57429e-10
2.70311e-11
0.000303774
6.7524e-10
-3.97246e-11
-6.76658e-10
3.97208e-11
0.000303743
8.04531e-10
-4.3037e-11
-8.05695e-10
4.30326e-11
0.000303756
8.97716e-10
-3.11006e-11
-8.99046e-10
3.10955e-11
0.000303816
1.01798e-09
-4.00087e-11
-1.019e-09
4.00034e-11
0.000303927
1.07769e-09
-1.99465e-11
-1.07888e-09
1.99411e-11
0.000304091
1.18773e-09
-3.66065e-11
-1.18864e-09
3.66012e-11
0.000304309
1.21035e-09
-7.5918e-12
-1.21146e-09
7.58649e-12
0.000304581
1.30986e-09
-3.31716e-11
-1.31091e-09
3.31664e-11
0.000304908
1.29259e-09
5.68733e-12
-1.2939e-09
-5.69241e-12
0.000305286
1.38292e-09
-3.0182e-11
-1.3844e-09
3.01772e-11
0.000305711
1.36106e-09
7.22708e-12
-1.36277e-09
-7.23151e-12
0.000306173
1.44441e-09
-2.78321e-11
-1.44622e-09
2.78272e-11
0.000306655
1.43499e-09
3.10609e-12
-1.43694e-09
-3.11136e-12
0.000307138
1.5132e-09
-2.60859e-11
-1.51514e-09
2.608e-11
0.000307597
1.51502e-09
-6.28442e-13
-1.51708e-09
6.22119e-13
0.000308002
1.58967e-09
-2.4876e-11
-1.59164e-09
2.48691e-11
0.000308323
1.60175e-09
-4.04707e-12
-1.60382e-09
4.03979e-12
0.000308531
1.67425e-09
-2.41467e-11
-1.67618e-09
2.41389e-11
0.000308598
1.69582e-09
-7.21242e-12
-1.69787e-09
7.20424e-12
0.000308505
1.76746e-09
-2.38509e-11
-1.76932e-09
2.38422e-11
0.000308243
1.79791e-09
-1.01803e-11
-1.79992e-09
1.01712e-11
0.000307808
1.86986e-09
-2.39479e-11
-1.87165e-09
2.39383e-11
0.000307196
1.90875e-09
-1.30012e-11
-1.91072e-09
1.29912e-11
0.0003064
1.98208e-09
-2.44024e-11
-1.9838e-09
2.43919e-11
0.000305405
2.02911e-09
-1.57209e-11
-2.03103e-09
1.571e-11
0.000304193
2.1048e-09
-2.51845e-11
-2.10644e-09
2.5173e-11
0.000302739
2.1598e-09
-1.83813e-11
-2.16167e-09
1.83694e-11
0.000301018
2.23876e-09
-2.62695e-11
-2.24032e-09
2.62571e-11
0.000299005
2.30165e-09
-2.10206e-11
-2.30347e-09
2.10077e-11
0.000296675
2.38473e-09
-2.76388e-11
-2.38621e-09
2.76254e-11
0.000294003
2.45557e-09
-2.36747e-11
-2.45734e-09
2.36608e-11
0.000290968
2.54358e-09
-2.92801e-11
-2.54499e-09
2.92656e-11
0.00028756
2.62252e-09
-2.63785e-11
-2.62424e-09
2.63636e-11
0.000283785
2.71626e-09
-3.11868e-11
-2.71759e-09
3.11713e-11
0.000279668
2.80355e-09
-2.91663e-11
-2.80521e-09
2.91502e-11
0.000275243
2.90381e-09
-3.33579e-11
-2.90507e-09
3.33413e-11
0.000270549
2.99982e-09
-3.20731e-11
-3.00141e-09
3.20559e-11
0.000265612
3.10739e-09
-3.57958e-11
-3.10857e-09
3.5778e-11
0.000260442
3.21257e-09
-3.51313e-11
-3.21409e-09
3.51128e-11
0.000255025
3.32828e-09
-3.85058e-11
-3.32936e-09
3.84867e-11
0.000249319
3.44315e-09
-3.83663e-11
-3.4446e-09
3.83466e-11
0.000243283
3.56785e-09
-4.14979e-11
-3.56883e-09
4.14776e-11
0.000236887
3.69306e-09
-4.1814e-11
-3.69441e-09
4.17929e-11
0.000230128
3.82763e-09
-4.4789e-11
-3.82851e-09
4.47672e-11
0.000223031
3.96393e-09
-4.55091e-11
-3.96518e-09
4.54866e-11
0.000215622
4.10935e-09
-4.84011e-11
-4.1101e-09
4.83778e-11
0.000207929
4.25757e-09
-4.94878e-11
-4.2587e-09
4.94638e-11
0.000199977
4.41487e-09
-5.23592e-11
-4.41549e-09
5.23344e-11
0.000191801
4.57599e-09
-5.3786e-11
-4.57699e-09
5.37603e-11
0.000183446
4.74628e-09
-5.66896e-11
-4.74675e-09
5.6663e-11
0.00017497
4.92136e-09
-5.84373e-11
-4.92221e-09
5.84099e-11
0.000166422
5.10584e-09
-6.14165e-11
-5.10614e-09
6.1388e-11
0.000157819
5.29601e-09
-6.34714e-11
-5.2967e-09
6.34419e-11
0.000149132
5.49593e-09
-6.65611e-11
-5.49605e-09
6.65306e-11
0.000140292
5.70243e-09
-6.89142e-11
-5.70293e-09
6.88827e-11
0.000131194
5.91911e-09
-7.2146e-11
-5.91903e-09
7.21133e-11
0.00012173
6.14325e-09
-7.47955e-11
-6.14356e-09
7.47616e-11
0.000111802
6.3781e-09
-7.8202e-11
-6.37781e-09
7.81669e-11
0.000101318
6.62132e-09
-8.11558e-11
-6.62142e-09
8.11195e-11
9.02034e-05
6.87589e-09
-8.47751e-11
-6.87538e-09
8.47374e-11
7.84572e-05
7.1398e-09
-8.80504e-11
-7.13967e-09
8.80114e-11
6.6192e-05
7.41582e-09
-9.19248e-11
-7.41506e-09
9.18843e-11
5.36214e-05
7.7022e-09
-9.55409e-11
-7.70182e-09
9.54988e-11
4.09976e-05
8.00157e-09
-9.97058e-11
-8.00055e-09
9.96621e-11
2.85522e-05
8.31232e-09
-1.0367e-10
-8.3117e-09
1.03624e-10
1.64962e-05
8.637e-09
-1.0814e-10
-8.63572e-09
1.08093e-10
4.98696e-06
8.97404e-09
-1.12433e-10
-8.97315e-09
1.12384e-10
-5.97551e-06
9.32583e-09
-1.17177e-10
-9.32428e-09
1.17127e-10
-1.66007e-05
9.6911e-09
-1.21844e-10
-9.68995e-09
1.21792e-10
-2.72084e-05
1.00725e-08
-1.2706e-10
-1.00707e-08
1.27005e-10
-3.80425e-05
1.04691e-08
-1.32267e-10
-1.04676e-08
1.3221e-10
-4.90956e-05
1.08834e-08
-1.38041e-10
-1.08813e-08
1.37982e-10
-6.01265e-05
1.13148e-08
-1.43882e-10
-1.13131e-08
1.4382e-10
-7.08045e-05
1.1766e-08
-1.50299e-10
-1.17636e-08
1.50236e-10
-8.08602e-05
1.22362e-08
-1.56856e-10
-1.22343e-08
1.5679e-10
-9.01319e-05
1.27284e-08
-1.63972e-10
-1.27258e-08
1.63903e-10
-9.85291e-05
1.3242e-08
-1.71289e-10
-1.32398e-08
1.71217e-10
-0.000106112
1.37796e-08
-1.79122e-10
-1.37767e-08
1.79048e-10
-0.000113098
1.4341e-08
-1.87226e-10
-1.43385e-08
1.87149e-10
-0.000119743
1.49286e-08
-1.95798e-10
-1.49254e-08
1.95719e-10
-0.000126272
1.55425e-08
-2.04738e-10
-1.55398e-08
2.04655e-10
-0.000132902
1.61851e-08
-2.14101e-10
-1.61816e-08
2.14016e-10
-0.000139891
1.68566e-08
-2.23972e-10
-1.68536e-08
2.23883e-10
-0.000147554
1.75596e-08
-2.3423e-10
-1.75558e-08
2.34139e-10
-0.000156203
1.82949e-08
-2.4521e-10
-1.82916e-08
2.45115e-10
-0.000166098
1.90648e-08
-2.56566e-10
-1.90608e-08
2.56468e-10
-0.000177424
1.98714e-08
-2.68986e-10
-1.98679e-08
2.68885e-10
-0.00019025
2.07171e-08
-2.81797e-10
-2.07128e-08
2.81693e-10
-0.000204616
2.16053e-08
-2.96194e-10
-2.16015e-08
2.96086e-10
-0.000220612
2.25386e-08
-3.11002e-10
-2.25339e-08
3.10891e-10
-0.000238194
2.35227e-08
-3.28177e-10
-2.35186e-08
3.2806e-10
-0.000257129
2.45602e-08
-3.45734e-10
-2.45553e-08
3.45617e-10
-0.000277187
2.56601e-08
-3.66797e-10
-2.56558e-08
3.66672e-10
-0.000298326
2.68245e-08
-3.88016e-10
-2.68193e-08
3.8789e-10
-0.000320693
2.80674e-08
-4.14447e-10
-2.80628e-08
4.14313e-10
-0.000344349
2.9389e-08
-4.40464e-10
-2.93835e-08
4.4033e-10
-0.000369011
3.08119e-08
-4.74435e-10
-3.0807e-08
4.74291e-10
-0.000394097
3.23321e-08
-5.06651e-10
-3.23263e-08
5.06508e-10
-0.000418933
3.39851e-08
-5.51159e-10
-3.398e-08
5.51004e-10
-0.000443005
3.57576e-08
-5.90726e-10
-3.57515e-08
5.90572e-10
-0.000465801
3.7706e-08
-6.49649e-10
-3.77006e-08
6.4948e-10
-0.000486425
3.97968e-08
-6.96798e-10
-3.97903e-08
6.96632e-10
-0.000503797
4.21223e-08
-7.75351e-10
-4.21166e-08
7.75165e-10
-0.000517321
4.46069e-08
-8.28096e-10
-4.46001e-08
8.27912e-10
-0.000527333
4.74072e-08
-9.33622e-10
-4.74012e-08
9.33412e-10
-0.000535016
5.03665e-08
-9.86314e-10
-5.03593e-08
9.86106e-10
-0.000541864
5.37599e-08
-1.13136e-09
-5.37537e-08
1.13112e-09
-0.000549003
5.72793e-08
-1.17304e-09
-5.7272e-08
1.17281e-09
-0.000556618
6.14214e-08
-1.3809e-09
-6.14151e-08
1.38062e-09
-0.000564052
6.55909e-08
-1.38975e-09
-6.55835e-08
1.38947e-09
-0.000570374
7.0699e-08
-1.70291e-09
-7.06924e-08
1.70258e-09
-0.000574718
7.55994e-08
-1.63344e-09
-7.55916e-08
1.63312e-09
-0.000576476
8.19847e-08
-2.12874e-09
-8.19778e-08
2.12837e-09
-0.000575463
8.7655e-08
-1.8898e-09
-8.76453e-08
1.88943e-09
-0.000571961
9.57814e-08
-2.70813e-09
-9.57724e-08
2.70768e-09
-0.000566271
1.02155e-07
-2.12514e-09
-1.02146e-07
2.12462e-09
-0.000558
1.12732e-07
-3.52566e-09
-1.12727e-07
3.52491e-09
-0.000546458
1.19516e-07
-2.27006e-09
-1.19538e-07
2.26921e-09
-0.000531867
1.3367e-07
-4.72304e-09
-1.33709e-07
4.72177e-09
-0.000515229
1.40287e-07
-2.18798e-09
-1.40253e-07
2.18702e-09
-0.00049804
1.59921e-07
-6.54046e-09
-1.59845e-07
6.54033e-09
-0.000481895
1.65014e-07
-1.64622e-09
-1.64743e-07
1.64818e-09
-0.000467687
1.90601e-07
-8.53092e-09
-1.90287e-07
8.5353e-09
-0.000455251
1.91052e-07
-2.14805e-10
-1.91078e-07
2.183e-10
-0.000444157
2.07667e-07
-5.57856e-09
-2.07937e-07
5.57815e-09
-0.000434941
2.00003e-07
2.40239e-09
-2.01013e-07
-2.40629e-09
-0.000428587
2.04271e-07
-1.44688e-09
-2.05483e-07
1.43751e-09
-0.000424952
1.85581e-07
6.22164e-09
-1.86859e-07
-6.22852e-09
-0.000422498
1.74555e-07
3.71484e-09
-1.75596e-07
-3.71743e-09
-0.000419999
1.22797e-07
1.73319e-08
-1.2345e-07
-1.73269e-08
-0.000418548
7.27473e-08
1.67319e-08
-7.31089e-08
-1.67255e-08
-0.000420244
2.56525e-08
-4.09185e-09
-2.56463e-08
3.94825e-09
7.96284e-07
-1.71845e-12
1.73925e-12
2.43384e-06
-4.26654e-12
4.26046e-12
4.14125e-06
-6.19191e-12
6.16529e-12
5.92075e-06
-7.25649e-12
7.22565e-12
7.77462e-06
-7.83649e-12
7.79915e-12
9.70524e-06
-8.19406e-12
8.16023e-12
1.17151e-05
-8.4464e-12
8.40811e-12
1.38068e-05
-8.63758e-12
8.60316e-12
1.59831e-05
-8.7944e-12
8.75605e-12
1.82469e-05
-8.92545e-12
8.89086e-12
2.06011e-05
-9.04149e-12
9.00306e-12
2.3049e-05
-9.14353e-12
9.10873e-12
2.55939e-05
-9.23797e-12
9.19961e-12
2.8239e-05
-9.32358e-12
9.28889e-12
3.0988e-05
-9.40523e-12
9.36708e-12
3.38444e-05
-9.48069e-12
9.44624e-12
3.68121e-05
-9.55417e-12
9.51647e-12
3.98948e-05
-9.62303e-12
9.58911e-12
4.30964e-05
-9.69118e-12
9.65409e-12
4.6421e-05
-9.75565e-12
9.72243e-12
4.98726e-05
-9.82025e-12
9.78402e-12
5.34552e-05
-9.88182e-12
9.84959e-12
5.71728e-05
-9.9442e-12
9.90899e-12
6.10297e-05
-1.0004e-11
9.97285e-12
6.50296e-05
-1.0065e-11
1.0031e-11
6.91767e-05
-1.01238e-11
1.0094e-11
7.34747e-05
-1.01843e-11
1.01517e-11
7.79274e-05
-1.02427e-11
1.02145e-11
8.25383e-05
-1.03032e-11
1.02723e-11
8.73107e-05
-1.03618e-11
1.03354e-11
9.22479e-05
-1.04229e-11
1.03937e-11
9.73525e-05
-1.04822e-11
1.04577e-11
0.000102627
-1.05444e-11
1.05171e-11
0.000108074
-1.06048e-11
1.05824e-11
0.000113695
-1.06684e-11
1.06432e-11
0.000119492
-1.07304e-11
1.07102e-11
0.000125465
-1.07959e-11
1.07729e-11
0.000131614
-1.08599e-11
1.08419e-11
0.00013794
-1.09277e-11
1.09069e-11
0.000144441
-1.09941e-11
1.09785e-11
0.000151117
-1.10646e-11
1.10461e-11
0.000157965
-1.11338e-11
1.11206e-11
0.000164982
-1.12074e-11
1.11913e-11
0.000172164
-1.12798e-11
1.12692e-11
0.000179508
-1.1357e-11
1.13434e-11
0.000187008
-1.14332e-11
1.1425e-11
0.000194657
-1.15144e-11
1.15031e-11
0.00020245
-1.15947e-11
1.1589e-11
0.000210378
-1.16804e-11
1.16715e-11
0.000218432
-1.17654e-11
1.1762e-11
0.000226603
-1.1856e-11
1.18494e-11
0.00023488
-1.19463e-11
1.19452e-11
0.000243252
-1.20423e-11
1.20379e-11
0.000251706
-1.21383e-11
1.21394e-11
0.000260229
-1.22403e-11
1.2238e-11
0.000268807
-1.23426e-11
1.23458e-11
0.000277424
-1.2451e-11
1.24508e-11
0.000286065
-1.25603e-11
1.25653e-11
0.000294713
-1.26755e-11
1.26772e-11
0.000303351
-1.27922e-11
1.2799e-11
0.00031196
-1.29147e-11
1.29183e-11
0.000320522
-1.30392e-11
1.30478e-11
0.000329018
-1.31697e-11
1.31749e-11
0.000337428
-1.33025e-11
1.33126e-11
0.000345733
-1.34413e-11
1.34479e-11
0.000353913
-1.35824e-11
1.35942e-11
0.000361947
-1.373e-11
1.37378e-11
0.000369817
-1.38797e-11
1.38929e-11
0.000377501
-1.40359e-11
1.40452e-11
0.000384983
-1.41939e-11
1.42093e-11
0.000392241
-1.43602e-11
1.437e-11
0.00039926
-1.45262e-11
1.45433e-11
0.000406023
-1.47019e-11
1.47125e-11
0.000412512
-1.48755e-11
1.48949e-11
0.000418715
-1.50619e-11
1.50724e-11
0.000424617
-1.52427e-11
1.52638e-11
0.000430207
-1.54386e-11
1.54497e-11
0.000435475
-1.56258e-11
1.56503e-11
0.000440411
-1.58339e-11
1.5844e-11
0.00044501
-1.60272e-11
1.60538e-11
0.000449265
-1.62459e-11
1.62559e-11
0.000453175
-1.64448e-11
1.64751e-11
0.000456736
-1.66769e-11
1.66852e-11
0.00045995
-1.68815e-11
1.69142e-11
0.000462818
-1.71252e-11
1.71332e-11
0.000465343
-1.73352e-11
1.73726e-11
0.000467531
-1.75946e-11
1.76004e-11
0.000469388
-1.78106e-11
1.78509e-11
0.000470922
-1.8084e-11
1.80888e-11
0.000472142
-1.83061e-11
1.83512e-11
0.000473058
-1.85977e-11
1.85996e-11
0.000473681
-1.8827e-11
1.88752e-11
0.000474023
-1.91349e-11
1.91357e-11
0.000474096
-1.9372e-11
1.94257e-11
0.000473914
-1.97013e-11
1.96991e-11
0.00047349
-1.99479e-11
2.00049e-11
0.000472837
-2.02969e-11
2.0293e-11
0.00047197
-2.05539e-11
2.06164e-11
0.000470903
-2.09276e-11
2.09204e-11
0.000469649
-2.11971e-11
2.1263e-11
0.000468223
-2.15942e-11
2.15854e-11
0.000466637
-2.18776e-11
2.19492e-11
0.000464905
-2.23034e-11
2.22913e-11
0.00046304
-2.26033e-11
2.26785e-11
0.000461053
-2.3057e-11
2.3043e-11
0.000458957
-2.33754e-11
2.3456e-11
0.000456763
-2.3862e-11
2.38449e-11
0.000454481
-2.42019e-11
2.4286e-11
0.000452122
-2.47214e-11
2.47025e-11
0.000449694
-2.50852e-11
2.51748e-11
0.000447207
-2.56429e-11
2.5621e-11
0.000444668
-2.60341e-11
2.61273e-11
0.000442086
-2.66308e-11
2.66071e-11
0.000439466
-2.70525e-11
2.71508e-11
0.000436816
-2.76934e-11
2.76669e-11
0.000434141
-2.81497e-11
2.82515e-11
0.000431446
-2.88366e-11
2.88084e-11
0.000428736
-2.93313e-11
2.94378e-11
0.000426015
-3.00697e-11
3.00389e-11
0.000423286
-3.06075e-11
3.07173e-11
0.000420553
-3.14003e-11
3.13676e-11
0.000417819
-3.19857e-11
3.20997e-11
0.000415086
-3.28388e-11
3.28037e-11
0.000412356
-3.34775e-11
3.35944e-11
0.000409631
-3.43951e-11
3.43579e-11
0.000406913
-3.50924e-11
3.52127e-11
0.000404203
-3.60811e-11
3.60413e-11
0.000401501
-3.68434e-11
3.69659e-11
0.000398811
-3.79089e-11
3.78666e-11
0.000396131
-3.87427e-11
3.88677e-11
0.000393465
-3.98926e-11
3.98473e-11
0.000390811
-4.08053e-11
4.09315e-11
0.000388172
-4.20473e-11
4.19986e-11
0.000385549
-4.30463e-11
4.31737e-11
0.000382942
-4.43893e-11
4.4337e-11
0.000380352
-4.5483e-11
4.56106e-11
0.000377781
-4.6937e-11
4.68806e-11
0.00037523
-4.81341e-11
4.82617e-11
0.000372699
-4.97102e-11
4.96494e-11
0.00037019
-5.10199e-11
5.11468e-11
0.000367704
-5.27315e-11
5.26656e-11
0.000365241
-5.41633e-11
5.4289e-11
0.000362805
-5.60244e-11
5.59536e-11
0.000360396
-5.75881e-11
5.77127e-11
0.000358016
-5.96166e-11
5.95403e-11
0.000355667
-6.13216e-11
6.14449e-11
0.000353351
-6.35369e-11
6.34557e-11
0.000351071
-6.53923e-11
6.5515e-11
0.00034883
-6.78192e-11
6.77329e-11
0.000346629
-6.9833e-11
6.99552e-11
0.000344472
-7.24991e-11
7.24089e-11
0.000342362
-7.46768e-11
7.48001e-11
0.000340301
-7.76185e-11
7.75246e-11
0.000338292
-7.99619e-11
8.00872e-11
0.00033634
-8.32219e-11
8.31261e-11
0.000334446
-8.57269e-11
8.58565e-11
0.000332614
-8.93622e-11
8.92652e-11
0.000330846
-9.20154e-11
9.21509e-11
0.000329145
-9.60962e-11
9.60008e-11
0.00032751
-9.88699e-11
9.90153e-11
0.000325943
-1.03492e-10
1.034e-10
0.000324443
-1.06337e-10
1.06496e-10
0.000323007
-1.11625e-10
1.11541e-10
0.000321633
-1.14462e-10
1.1464e-10
0.000320317
-1.20586e-10
1.20514e-10
0.000319054
-1.23287e-10
1.23491e-10
0.00031784
-1.3048e-10
1.30428e-10
0.00031667
-1.3285e-10
1.33088e-10
0.00031554
-1.41438e-10
1.41408e-10
0.000314449
-1.43179e-10
1.43457e-10
0.000313395
-1.53617e-10
1.53616e-10
0.00031238
-1.54282e-10
1.54607e-10
0.000311406
-1.67218e-10
1.67259e-10
0.000310478
-1.6614e-10
1.66522e-10
0.000309602
-1.82497e-10
1.8259e-10
0.000308781
-1.78684e-10
1.7913e-10
0.00030802
-1.99792e-10
1.9995e-10
0.000307323
-1.91773e-10
1.92229e-10
0.000306693
-2.19557e-10
2.19724e-10
0.000306131
-2.0515e-10
2.05545e-10
0.000305638
-2.42413e-10
2.42519e-10
0.000305212
-2.19484e-10
2.19813e-10
0.00030485
-2.70279e-10
2.70336e-10
0.000304549
-2.75891e-10
2.76166e-10
0.000304302
-3.44695e-10
3.44709e-10
0.000304105
-3.84706e-10
3.84893e-10
0.000303954
-4.76282e-10
4.76219e-10
0.000303845
-5.57235e-10
5.57332e-10
0.000303775
-6.76562e-10
6.76444e-10
0.000303744
-8.05525e-10
8.05625e-10
0.000303757
-8.98969e-10
8.98887e-10
0.000303817
-1.01885e-09
1.01902e-09
0.000303927
-1.07883e-09
1.07882e-09
0.000304091
-1.18851e-09
1.18874e-09
0.000304309
-1.21142e-09
1.21145e-09
0.000304582
-1.31081e-09
1.31089e-09
0.000304909
-1.29388e-09
1.29374e-09
0.000305287
-1.38431e-09
1.38407e-09
0.000305711
-1.36276e-09
1.36232e-09
0.000306173
-1.44615e-09
1.44565e-09
0.000306656
-1.43696e-09
1.43631e-09
0.000307138
-1.51509e-09
1.51448e-09
0.000307597
-1.51711e-09
1.51637e-09
0.000308002
-1.5916e-09
1.59095e-09
0.000308324
-1.60387e-09
1.60309e-09
0.000308531
-1.67616e-09
1.67553e-09
0.000308599
-1.69793e-09
1.69714e-09
0.000308506
-1.76932e-09
1.76871e-09
0.000308244
-1.8e-09
1.7992e-09
0.000307808
-1.87167e-09
1.87108e-09
0.000307196
-1.91081e-09
1.91001e-09
0.0003064
-1.98383e-09
1.98327e-09
0.000305406
-2.03114e-09
2.03034e-09
0.000304193
-2.1065e-09
2.10596e-09
0.000302739
-2.16179e-09
2.16098e-09
0.000301018
-2.24039e-09
2.23987e-09
0.000299005
-2.30361e-09
2.30279e-09
0.000296676
-2.38631e-09
2.3858e-09
0.000294004
-2.45749e-09
2.45666e-09
0.000290969
-2.54511e-09
2.5446e-09
0.00028756
-2.6244e-09
2.62356e-09
0.000283785
-2.71773e-09
2.71723e-09
0.000279668
-2.80539e-09
2.80453e-09
0.000275244
-2.90522e-09
2.90472e-09
0.000270549
-3.00161e-09
3.00073e-09
0.000265612
-3.10874e-09
3.10825e-09
0.000260442
-3.2143e-09
3.21342e-09
0.000255025
-3.32956e-09
3.32907e-09
0.000249319
-3.44483e-09
3.44394e-09
0.000243283
-3.56905e-09
3.56858e-09
0.000236887
-3.69466e-09
3.69377e-09
0.000230128
-3.82875e-09
3.82829e-09
0.000223031
-3.96544e-09
3.96456e-09
0.000215622
-4.11035e-09
4.10993e-09
0.000207929
-4.25898e-09
4.25812e-09
0.000199977
-4.41576e-09
4.41537e-09
0.0001918
-4.57728e-09
4.57645e-09
0.000183445
-4.74704e-09
4.74669e-09
0.000174969
-4.92252e-09
4.92172e-09
0.000166421
-5.10645e-09
5.10615e-09
0.000157818
-5.29702e-09
5.29627e-09
0.000149131
-5.49638e-09
5.49614e-09
0.00014029
-5.70328e-09
5.70258e-09
0.000131193
-5.91938e-09
5.9192e-09
0.000121728
-6.14392e-09
6.14327e-09
0.0001118
-6.37818e-09
6.37807e-09
0.000101316
-6.6218e-09
6.62122e-09
9.02015e-05
-6.87577e-09
6.87574e-09
7.84552e-05
-7.14007e-09
7.13956e-09
6.61899e-05
-7.41548e-09
7.41553e-09
5.36192e-05
-7.70225e-09
7.70181e-09
4.09954e-05
-8.00099e-09
8.00112e-09
2.85499e-05
-8.31215e-09
8.31177e-09
1.64939e-05
-8.63619e-09
8.63638e-09
4.9846e-06
-8.97363e-09
8.97332e-09
-5.97789e-06
-9.32478e-09
9.32503e-09