/*--------------------------------*- C++ -*----------------------------------*\
| =========                 |                                                 |
| \\      /  F ield         | OpenFOAM: The Open Source CFD Toolbox           |
|  \\    /   O peration     | Version:  2012                                  |
|   \\  /    A nd           | Website:  www.openfoam.com                      |
|    \\/     M anipulation  |                                                 |
\*---------------------------------------------------------------------------*/
FoamFile
{
    version     2.0;
    format      ascii;
    class       volSymmTensorField;
    location    "16700";
    object      turbulenceProperties:R;
}
// * * * * * * * * * * * * * * * * * * * * * * * * * * * * * * * * * * * * * //

dimensions      [0 2 -2 0 0 0 0];


internalField   nonuniform List<symmTensor> 
2560
(
(0.00807285 -1.20715e-05 -1.74818e-08 0.00807285 2.42439e-12 0.00807285)
(0.00807285 -1.20715e-05 -1.74818e-08 0.00807285 3.80285e-15 0.00807285)
(0.198287 -0.00170813 -7.45942e-06 0.198287 -6.03383e-29 0.198287)
(0.198287 -0.00170813 -7.45942e-06 0.198287 1.32819e-12 0.198287)
(1.34908 -0.0349143 -0.000209487 1.34908 -2.9298e-09 1.34908)
(1.34908 -0.0349143 -0.000209487 1.34908 3.61844e-11 1.34908)
(3.91716 -0.214371 -0.0013049 3.91716 -1.58002e-08 3.91716)
(3.91716 -0.214371 -0.0013049 3.91716 2.07669e-10 3.91716)
(6.8774 -0.613146 -0.00378648 6.8774 -2.34291e-08 6.8774)
(6.8774 -0.613146 -0.00378648 6.8774 4.6626e-10 6.8774)
(9.57939 -1.17699 -0.00737412 9.57939 -2.13666e-08 9.57939)
(9.57939 -1.17699 -0.00737412 9.57939 9.80237e-10 9.57939)
(11.9866 -1.84478 -0.0117262 11.9866 -1.85292e-08 11.9866)
(11.9866 -1.84478 -0.0117262 11.9866 1.76415e-09 11.9866)
(14.1679 -2.58073 -0.016643 14.1679 -1.75564e-08 14.1679)
(14.1679 -2.58073 -0.016643 14.1679 2.7279e-09 14.1679)
(16.1809 -3.36426 -0.022012 16.1809 -1.8485e-08 16.1809)
(16.1809 -3.36426 -0.022012 16.1809 1.66853e-35 16.1809)
(18.0651 -4.18259 -0.0277653 18.0651 -2.12255e-08 18.0651)
(18.0651 -4.18259 -0.0277653 18.0651 -2.23722e-08 18.0651)
(19.8472 -5.0272 -0.033859 19.8472 -2.57544e-08 19.8472)
(19.8472 -5.0272 -0.033859 19.8472 -2.672e-08 19.8472)
(21.5458 -5.89206 -0.040263 21.5458 -3.21537e-08 21.5458)
(21.5458 -5.89206 -0.040263 21.5458 -3.30027e-08 21.5458)
(23.1739 -6.7727 -0.0469563 23.1739 -3.19077e-08 23.1739)
(23.1739 -6.7727 -0.0469563 23.1739 -4.13449e-08 23.1739)
(24.741 -7.66569 -0.0539232 24.741 -2.42798e-08 24.741)
(24.741 -7.66569 -0.0539232 24.741 -4.12005e-08 24.741)
(26.2541 -8.56829 -0.0611519 26.2541 -2.31244e-08 26.2541)
(26.2541 -8.56829 -0.0611519 26.2541 -1.2028e-10 26.2541)
(27.7182 -9.47823 -0.068633 27.7182 -2.77922e-08 27.7182)
(27.7182 -9.47823 -0.068633 27.7182 -1.22017e-08 27.7182)
(29.1371 -10.3936 -0.0763584 29.1371 -3.29475e-08 29.1371)
(29.1371 -10.3936 -0.0763584 29.1371 -3.30854e-08 29.1371)
(30.5135 -11.3125 -0.0843207 30.5135 -3.86573e-08 30.5135)
(30.5135 -11.3125 -0.0843207 30.5135 -3.88332e-08 30.5135)
(31.8494 -12.2335 -0.0925126 31.8494 -4.4944e-08 31.8494)
(31.8494 -12.2335 -0.0925126 31.8494 -4.50679e-08 31.8494)
(33.1461 -13.1548 -0.100926 33.1461 -5.18193e-08 33.1461)
(33.1461 -13.1548 -0.100926 33.1461 -5.19819e-08 33.1461)
(34.4042 -14.0748 -0.109554 34.4042 -5.9382e-08 34.4042)
(34.4042 -14.0748 -0.109554 34.4042 -5.9609e-08 34.4042)
(35.6241 -14.9918 -0.118384 35.6241 -6.75316e-08 35.6241)
(35.6241 -14.9918 -0.118384 35.6241 -6.77699e-08 35.6241)
(36.8057 -15.904 -0.127407 36.8057 -7.64161e-08 36.8057)
(36.8057 -15.904 -0.127407 36.8057 -7.64814e-08 36.8057)
(37.9487 -16.8094 -0.136608 37.9487 -8.59564e-08 37.9487)
(37.9487 -16.8094 -0.136608 37.9487 -8.62624e-08 37.9487)
(39.0524 -17.706 -0.145972 39.0524 -9.65138e-08 39.0524)
(39.0524 -17.706 -0.145972 39.0524 -9.66603e-08 39.0524)
(40.1158 -18.5914 -0.15548 40.1158 -1.07377e-07 40.1158)
(40.1158 -18.5914 -0.15548 40.1158 -1.07665e-07 40.1158)
(41.138 -19.4631 -0.165112 41.138 -1.19273e-07 41.138)
(41.138 -19.4631 -0.165112 41.138 -1.19353e-07 41.138)
(42.1176 -20.3186 -0.174844 42.1176 -1.32051e-07 42.1176)
(42.1176 -20.3186 -0.174844 42.1176 -1.32454e-07 42.1176)
(43.0532 -21.1549 -0.184648 43.0532 -1.45953e-07 43.0532)
(43.0532 -21.1549 -0.184648 43.0532 -1.46039e-07 43.0532)
(43.9434 -21.969 -0.194494 43.9434 -1.60132e-07 43.9434)
(43.9434 -21.969 -0.194494 43.9434 -1.60486e-07 43.9434)
(44.7864 -22.7577 -0.20435 44.7864 -1.75521e-07 44.7864)
(44.7864 -22.7577 -0.20435 44.7864 -1.75614e-07 44.7864)
(45.5807 -23.5176 -0.214177 45.5807 -1.92034e-07 45.5807)
(45.5807 -23.5176 -0.214177 45.5807 -1.92505e-07 45.5807)
(46.3244 -24.2452 -0.223937 46.3244 -2.09671e-07 46.3244)
(46.3244 -24.2452 -0.223937 46.3244 -2.09771e-07 46.3244)
(47.0159 -24.9368 -0.233585 47.0159 -2.27695e-07 47.0159)
(47.0159 -24.9368 -0.233585 47.0159 -2.28042e-07 47.0159)
(47.6534 -25.5887 -0.243075 47.6534 -2.4723e-07 47.6534)
(47.6534 -25.5887 -0.243075 47.6534 -2.47336e-07 47.6534)
(48.2352 -26.1972 -0.25236 48.2352 -2.67978e-07 48.2352)
(48.2352 -26.1972 -0.25236 48.2352 -2.68464e-07 48.2352)
(48.7598 -26.7584 -0.261385 48.7598 -2.89883e-07 48.7598)
(48.7598 -26.7584 -0.261385 48.7598 -2.89995e-07 48.7598)
(49.2256 -27.2685 -0.270097 49.2256 -3.12299e-07 49.2256)
(49.2256 -27.2685 -0.270097 49.2256 -3.12631e-07 49.2256)
(49.6313 -27.7238 -0.278441 49.6313 -3.36327e-07 49.6313)
(49.6313 -27.7238 -0.278441 49.6313 -3.36445e-07 49.6313)
(49.9757 -28.1207 -0.286358 49.9757 -3.61873e-07 49.9757)
(49.9757 -28.1207 -0.286358 49.9757 -3.62348e-07 49.9757)
(50.2577 -28.4557 -0.29379 50.2577 -3.8877e-07 50.2577)
(50.2577 -28.4557 -0.29379 50.2577 -3.88893e-07 50.2577)
(50.4768 -28.7254 -0.300676 50.4768 -4.16072e-07 50.4768)
(50.4768 -28.7254 -0.300676 50.4768 -4.16385e-07 50.4768)
(50.6323 -28.9267 -0.306956 50.6323 -4.45076e-07 50.6323)
(50.6323 -28.9267 -0.306956 50.6323 -4.45204e-07 50.6323)
(50.7241 -29.0569 -0.312573 50.7241 -4.7585e-07 50.7241)
(50.7241 -29.0569 -0.312573 50.7241 -4.76483e-07 50.7241)
(50.7524 -29.1135 -0.317466 50.7524 -5.07468e-07 50.7524)
(50.7524 -29.1135 -0.317466 50.7524 -5.0774e-07 50.7524)
(50.7176 -29.0943 -0.321578 50.7176 -5.40635e-07 50.7176)
(50.7176 -29.0943 -0.321578 50.7176 -5.41339e-07 50.7176)
(50.6206 -28.9974 -0.324855 50.6206 -5.74367e-07 50.6206)
(50.6206 -28.9974 -0.324855 50.6206 -5.74954e-07 50.6206)
(50.4627 -28.8216 -0.327246 50.4627 -6.12054e-07 50.4627)
(50.4627 -28.8216 -0.327246 50.4627 -6.13053e-07 50.4627)
(50.2457 -28.5659 -0.328698 50.2457 -6.48674e-07 50.2457)
(50.2457 -28.5659 -0.328698 50.2457 -6.48818e-07 50.2457)
(49.9718 -28.2297 -0.329167 49.9718 -6.83812e-07 49.9718)
(49.9718 -28.2297 -0.329167 49.9718 -6.84158e-07 49.9718)
(49.6434 -27.8133 -0.32862 49.6434 -7.26522e-07 49.6434)
(49.6434 -27.8133 -0.32862 49.6434 -7.26966e-07 49.6434)
(49.2638 -27.3173 -0.327013 49.2638 -7.69379e-07 49.2638)
(49.2638 -27.3173 -0.327013 49.2638 -7.72378e-07 49.2638)
(48.8365 -26.742 -0.324312 48.8365 -8.02298e-07 48.8365)
(48.8365 -26.742 -0.324312 48.8365 -8.0713e-07 48.8365)
(48.3654 -26.0894 -0.320502 48.3654 -8.53205e-07 48.3654)
(48.3654 -26.0894 -0.320502 48.3654 -8.57708e-07 48.3654)
(47.855 -25.3612 -0.315555 47.855 -8.93365e-07 47.855)
(47.855 -25.3612 -0.315555 47.855 -8.96127e-07 47.855)
(47.3103 -24.5596 -0.309456 47.3103 -9.39957e-07 47.3103)
(47.3103 -24.5596 -0.309456 47.3103 -9.40113e-07 47.3103)
(46.7364 -23.6873 -0.302202 46.7364 -9.86355e-07 46.7364)
(46.7364 -23.6873 -0.302202 46.7364 -9.88367e-07 46.7364)
(46.139 -22.7475 -0.293786 46.139 -1.02368e-06 46.139)
(46.139 -22.7475 -0.293786 46.139 -1.02787e-06 46.139)
(45.5241 -21.7437 -0.284218 45.5241 -1.07397e-06 45.5241)
(45.5241 -21.7437 -0.284218 45.5241 -1.07741e-06 45.5241)
(44.8978 -20.6795 -0.2735 44.8978 -1.1168e-06 44.8978)
(44.8978 -20.6795 -0.2735 44.8978 -1.12037e-06 44.8978)
(44.2666 -19.5587 -0.261643 44.2666 -1.16602e-06 44.2666)
(44.2666 -19.5587 -0.261643 44.2666 -1.16875e-06 44.2666)
(43.6371 -18.3849 -0.24866 43.6371 -1.20108e-06 43.6371)
(43.6371 -18.3849 -0.24866 43.6371 -1.2044e-06 43.6371)
(43.0158 -17.1624 -0.234576 43.0158 -1.24278e-06 43.0158)
(43.0158 -17.1624 -0.234576 43.0158 -1.24295e-06 43.0158)
(42.4094 -15.8954 -0.219414 42.4094 -1.29179e-06 42.4094)
(42.4094 -15.8954 -0.219414 42.4094 -1.29364e-06 42.4094)
(41.8244 -14.5876 -0.203183 41.8244 -1.32215e-06 41.8244)
(41.8244 -14.5876 -0.203183 41.8244 -1.32233e-06 41.8244)
(41.2668 -13.2427 -0.185918 41.2668 -1.35259e-06 41.2668)
(41.2668 -13.2427 -0.185918 41.2668 -1.35745e-06 41.2668)
(40.7428 -11.8649 -0.167642 40.7428 -1.39053e-06 40.7428)
(40.7428 -11.8649 -0.167642 40.7428 -1.39648e-06 40.7428)
(40.2578 -10.4575 -0.148375 40.2578 -1.40933e-06 40.2578)
(40.2578 -10.4575 -0.148375 40.2578 -1.42173e-06 40.2578)
(39.8167 -9.02368 -0.128139 39.8167 -1.44865e-06 39.8167)
(39.8167 -9.02368 -0.128139 39.8167 -1.46225e-06 39.8167)
(39.424 -7.56678 -0.106957 39.424 -1.45177e-06 39.424)
(39.424 -7.56678 -0.106957 39.424 -1.46551e-06 39.424)
(39.0833 -6.09008 -0.0848615 39.0833 -1.48977e-06 39.0833)
(39.0833 -6.09008 -0.0848615 39.0833 -1.50469e-06 39.0833)
(38.7975 -4.59651 -0.0618633 38.7975 -1.48945e-06 38.7975)
(38.7975 -4.59651 -0.0618633 38.7975 -1.50401e-06 38.7975)
(38.5688 -3.08905 -0.0380007 38.5688 -1.51868e-06 38.5688)
(38.5688 -3.08905 -0.0380007 38.5688 -1.53449e-06 38.5688)
(38.3982 -1.5712 -0.0133054 38.3982 -1.51677e-06 38.3982)
(38.3982 -1.5712 -0.0133053 38.3982 -1.53225e-06 38.3982)
(38.2861 -0.000308693 -2.60095e-06 38.2861 -1.54317e-06 38.2861)
(38.2861 -0.000308703 -2.60104e-06 38.2861 -1.55426e-06 38.2861)
(38.232 1.45486 -0.0124364 38.232 -1.53308e-06 38.232)
(38.232 1.45486 -0.0124365 38.232 -1.54861e-06 38.232)
(38.2343 3.01113 -0.0392432 38.2343 -1.55807e-06 38.2343)
(38.2343 3.01113 -0.0392432 38.2343 -1.56222e-06 38.2343)
(38.2908 4.53411 -0.0667859 38.2908 -1.56132e-06 38.2908)
(38.2908 4.53411 -0.0667859 38.2908 -1.56821e-06 38.2908)
(38.3986 6.04689 -0.0949903 38.3986 -1.57292e-06 38.3986)
(38.3986 6.04689 -0.0949903 38.3986 -1.57718e-06 38.3986)
(38.5538 7.54418 -0.123776 38.5538 -1.59088e-06 38.5538)
(38.5538 7.54418 -0.123776 38.5538 -1.5936e-06 38.5538)
(38.7522 9.01997 -0.15304 38.7522 -1.58299e-06 38.7522)
(38.7522 9.01997 -0.15304 38.7522 -1.60031e-06 38.7522)
(38.9889 10.4676 -0.182664 38.9889 -1.62293e-06 38.9889)
(38.9889 10.4676 -0.182664 38.9889 -1.63422e-06 38.9889)
(39.2588 11.8807 -0.212508 39.2588 -1.61631e-06 39.2588)
(39.2588 11.8807 -0.212508 39.2588 -1.63727e-06 39.2588)
(39.5564 13.2526 -0.242447 39.5564 -1.65972e-06 39.5564)
(39.5564 13.2526 -0.242447 39.5564 -1.66901e-06 39.5564)
(39.8759 14.5761 -0.272319 39.8759 -1.67508e-06 39.8759)
(39.8759 14.5761 -0.272319 39.8759 -1.69323e-06 39.8759)
(40.2117 15.8448 -0.301964 40.2117 -1.72354e-06 40.2117)
(40.2117 15.8448 -0.301964 40.2117 -1.7317e-06 40.2117)
(40.558 17.0528 -0.331232 40.558 -1.73544e-06 40.558)
(40.558 17.0528 -0.331232 40.558 -1.75687e-06 40.558)
(40.9091 18.194 -0.359966 40.9091 -1.79326e-06 40.9091)
(40.9091 18.194 -0.359966 40.9091 -1.80372e-06 40.9091)
(41.2595 19.263 -0.388003 41.2595 -1.80294e-06 41.2595)
(41.2595 19.263 -0.388003 41.2595 -1.82776e-06 41.2595)
(41.6039 20.2549 -0.41519 41.6039 -1.87656e-06 41.6039)
(41.6039 20.2549 -0.41519 41.6039 -1.88719e-06 41.6039)
(41.9375 21.1657 -0.441373 41.9375 -1.90797e-06 41.9375)
(41.9375 21.1657 -0.441373 41.9375 -1.92785e-06 41.9375)
(42.2556 21.9927 -0.466426 42.2556 -1.97524e-06 42.2556)
(42.2556 21.9927 -0.466426 42.2556 -1.97957e-06 42.2556)
(42.554 22.7338 -0.490238 42.554 -2.00086e-06 42.554)
(42.554 22.7338 -0.490238 42.554 -2.01808e-06 42.554)
(42.8289 23.3872 -0.512698 42.8289 -2.07134e-06 42.8289)
(42.8289 23.3872 -0.512698 42.8289 -2.07165e-06 42.8289)
(43.0769 23.9525 -0.533706 43.0769 -2.13405e-06 43.0769)
(43.0769 23.9525 -0.533706 43.0769 -2.13434e-06 43.0769)
(43.295 24.4305 -0.553195 43.295 -2.16332e-06 43.295)
(43.295 24.4305 -0.553195 43.295 -2.17638e-06 43.295)
(43.4808 24.8223 -0.571126 43.4808 -2.22599e-06 43.4808)
(43.4808 24.8223 -0.571126 43.4808 -2.22629e-06 43.4808)
(43.6322 25.1293 -0.587436 43.6322 -2.29111e-06 43.6322)
(43.6322 25.1293 -0.587436 43.6322 -2.29275e-06 43.6322)
(43.7475 25.3546 -0.602107 43.7475 -2.31537e-06 43.7475)
(43.7475 25.3546 -0.602107 43.7475 -2.34098e-06 43.7475)
(43.8255 25.5012 -0.615141 43.8255 -2.40535e-06 43.8255)
(43.8255 25.5012 -0.615141 43.8255 -2.42088e-06 43.8255)
(43.8653 25.5731 -0.626541 43.8653 -2.41003e-06 43.8653)
(43.8653 25.5731 -0.626541 43.8653 -2.44291e-06 43.8653)
(43.8666 25.5742 -0.63634 43.8666 -2.48557e-06 43.8666)
(43.8666 25.5742 -0.63634 43.8666 -2.49493e-06 43.8666)
(43.8291 25.5088 -0.644562 43.8291 -2.52136e-06 43.8291)
(43.8291 25.5088 -0.644562 43.8291 -2.54459e-06 43.8291)
(43.7531 25.3817 -0.65125 43.7531 -2.58274e-06 43.7531)
(43.7531 25.3817 -0.65125 43.7531 -2.59081e-06 43.7531)
(43.6389 25.1976 -0.656466 43.6389 -2.5929e-06 43.6389)
(43.6389 25.1976 -0.656466 43.6389 -2.62488e-06 43.6389)
(43.4873 24.9616 -0.66027 43.4873 -2.66536e-06 43.4873)
(43.4873 24.9616 -0.66027 43.4873 -2.68545e-06 43.4873)
(43.2992 24.6787 -0.662738 43.2992 -2.65432e-06 43.2992)
(43.2992 24.6787 -0.662738 43.2992 -2.69531e-06 43.2992)
(43.0757 24.3535 -0.663944 43.0757 -2.73365e-06 43.0757)
(43.0757 24.3535 -0.663944 43.0757 -2.76227e-06 43.0757)
(42.8181 23.991 -0.663958 42.8181 -2.71266e-06 42.8181)
(42.8181 23.991 -0.663958 42.8181 -2.75459e-06 42.8181)
(42.5277 23.5958 -0.662874 42.5277 -2.7717e-06 42.5277)
(42.5277 23.5958 -0.662874 42.5277 -2.7961e-06 42.5277)
(42.2062 23.1721 -0.660768 42.2062 -2.76527e-06 42.2062)
(42.2062 23.1721 -0.660768 42.2062 -2.80769e-06 42.2062)
(41.8549 22.7241 -0.65771 41.8549 -2.8132e-06 41.8549)
(41.8549 22.7241 -0.65771 41.8549 -2.84443e-06 41.8549)
(41.4758 22.2562 -0.653799 41.4758 -2.78446e-06 41.4758)
(41.4758 22.2562 -0.653799 41.4758 -2.82677e-06 41.4758)
(41.0703 21.7717 -0.649111 41.0703 -2.83126e-06 41.0703)
(41.0703 21.7717 -0.649111 41.0703 -2.89012e-06 41.0703)
(40.6403 21.2742 -0.643716 40.6403 -2.79136e-06 40.6403)
(40.6403 21.2742 -0.643716 40.6403 -2.83272e-06 40.6403)
(40.1874 20.7667 -0.637692 40.1874 -2.83744e-06 40.1874)
(40.1874 20.7667 -0.637692 40.1874 -2.91599e-06 40.1874)
(39.7134 20.2524 -0.631111 39.7134 -2.79214e-06 39.7134)
(39.7134 20.2524 -0.631111 39.7134 -2.83142e-06 39.7134)
(39.22 19.7337 -0.624042 39.22 -2.81436e-06 39.22)
(39.22 19.7337 -0.624042 39.22 -2.90222e-06 39.22)
(38.7088 19.2131 -0.616545 38.7088 -2.75612e-06 38.7088)
(38.7088 19.2131 -0.616545 38.7088 -2.7918e-06 38.7088)
(38.1815 18.6927 -0.608685 38.1815 -2.78339e-06 38.1815)
(38.1815 18.6927 -0.608685 38.1815 -2.8827e-06 38.1815)
(37.6396 18.1741 -0.600505 37.6396 -2.72746e-06 37.6396)
(37.6396 18.1741 -0.600505 37.6396 -2.75749e-06 37.6396)
(37.0847 17.6592 -0.592062 37.0847 -2.73047e-06 37.0847)
(37.0847 17.6592 -0.592062 37.0847 -2.84401e-06 37.0847)
(36.5182 17.1494 -0.583405 36.5182 -2.67624e-06 36.5182)
(36.5182 17.1494 -0.583405 36.5182 -2.69787e-06 36.5182)
(35.9415 16.6459 -0.574575 35.9415 -2.6505e-06 35.9415)
(35.9415 16.6459 -0.574575 35.9415 -2.78192e-06 35.9415)
(35.3561 16.1495 -0.565603 35.3561 -2.61551e-06 35.3561)
(35.3561 16.1495 -0.565603 35.3561 -2.62506e-06 35.3561)
(34.7631 15.6612 -0.556523 34.7631 -2.56181e-06 34.7631)
(34.7631 15.6612 -0.556523 34.7631 -2.71586e-06 34.7631)
(34.1638 15.1814 -0.547365 34.1638 -2.52673e-06 34.1638)
(34.1638 15.1814 -0.547365 34.1638 -2.51928e-06 34.1638)
(33.5593 14.7107 -0.538144 33.5593 -2.46788e-06 33.5593)
(33.5593 14.7107 -0.538144 33.5593 -2.65083e-06 33.5593)
(32.9508 14.2495 -0.528887 32.9508 -2.40293e-06 32.9508)
(32.9508 14.2495 -0.528887 32.9508 -2.37191e-06 32.9508)
(32.3392 13.7978 -0.519608 32.3392 -2.33917e-06 32.3392)
(32.3392 13.7978 -0.519608 32.3392 -2.55921e-06 32.3392)
(31.7255 13.3559 -0.510313 31.7255 -2.2898e-06 31.7255)
(31.7255 13.3559 -0.510313 31.7255 -2.22648e-06 31.7255)
(31.1106 12.9239 -0.50102 31.1106 -2.19942e-06 31.1106)
(31.1106 12.9239 -0.50102 31.1106 -2.46729e-06 31.1106)
(30.4954 12.5018 -0.491738 30.4954 -2.12658e-06 30.4954)
(30.4954 12.5018 -0.491738 30.4954 -2.01936e-06 30.4954)
(29.8806 12.0896 -0.482472 29.8806 -2.03925e-06 29.8806)
(29.8806 12.0896 -0.482472 29.8806 -2.36907e-06 29.8806)
(29.2671 11.6873 -0.473229 29.2671 -1.97548e-06 29.2671)
(29.2671 11.6873 -0.473229 29.2671 -1.80892e-06 29.2671)
(28.6555 11.2948 -0.464018 28.6555 -1.86692e-06 28.6555)
(28.6555 11.2948 -0.464018 28.6555 -2.2773e-06 28.6555)
(28.0464 10.9122 -0.454849 28.0464 -1.79146e-06 28.0464)
(28.0464 10.9122 -0.454849 28.0464 -1.54508e-06 28.0464)
(27.4405 10.5393 -0.445728 27.4405 -1.67064e-06 27.4405)
(27.4405 10.5393 -0.445728 27.4405 -2.18611e-06 27.4405)
(26.8383 10.1761 -0.436657 26.8383 -1.59229e-06 26.8383)
(26.8383 10.1761 -0.436657 26.8383 -1.23884e-06 26.8383)
(26.2404 9.82227 -0.427639 26.2404 -1.46636e-06 26.2404)
(26.2404 9.82228 -0.427639 26.2404 -2.11931e-06 26.2404)
(25.6473 9.47767 -0.418674 25.6473 -1.39456e-06 25.6473)
(25.6473 9.47767 -0.418674 25.6473 -8.97844e-07 25.6473)
(25.0593 9.14203 -0.40976 25.0593 -1.25499e-06 25.0593)
(25.0593 9.14203 -0.40976 25.0593 -2.08822e-06 25.0593)
(24.4769 8.81514 -0.400899 24.4769 -1.17996e-06 24.4769)
(24.4769 8.81514 -0.400899 24.4769 -4.9186e-07 24.4769)
(23.9005 8.49671 -0.392085 23.9005 -1.02054e-06 23.9005)
(23.9005 8.49671 -0.392085 23.9005 -2.09073e-06 23.9005)
(23.3304 8.18649 -0.383316 23.3304 -9.63881e-07 23.3304)
(23.3304 8.18649 -0.383316 23.3304 -2.04201e-08 23.3304)
(22.7671 7.88424 -0.374588 22.7671 -4.43943e-07 22.7671)
(22.7671 7.88424 -0.374588 22.7671 -2.17114e-06 22.7671)
(22.2107 7.58973 -0.365899 22.2107 -7.35784e-07 22.2107)
(22.2107 7.58973 -0.365899 22.2106 5.48188e-07 22.2107)
(21.6615 7.30279 -0.357248 21.6615 -4.93731e-22 21.6615)
(21.6615 7.30279 -0.357248 21.6615 -1.99612e-06 21.6615)
(21.1199 7.02323 -0.348633 21.1199 -5.12609e-07 21.1199)
(21.1199 7.02323 -0.348633 21.1199 1.22525e-06 21.1199)
(20.586 6.75092 -0.340056 20.586 -0 20.586)
(20.586 6.75092 -0.340056 20.586 -2.60716e-06 20.586)
(20.0601 6.48572 -0.331518 20.0601 -2.75423e-07 20.0601)
(20.0601 6.48572 -0.331518 20.0601 2.06741e-06 20.0601)
(19.5424 6.2275 -0.323019 19.5424 -3.07534e-23 19.5424)
(19.5424 6.2275 -0.323019 19.5424 -3.09442e-06 19.5424)
(19.033 5.97615 -0.314561 19.033 -3.61036e-08 19.033)
(19.033 5.97615 -0.314561 19.033 3.11331e-06 19.033)
(18.5322 5.73161 -0.306149 18.5322 1.97991e-23 18.5322)
(18.5322 5.73161 -0.306149 18.5322 -3.77532e-06 18.5322)
(18.0401 5.49386 -0.297788 18.0401 2.08835e-07 18.0401)
(18.0401 5.49386 -0.297788 18.0401 4.43415e-06 18.0401)
(17.5568 5.26297 -0.289487 17.5568 -9.80532e-22 17.5568)
(17.5568 5.26297 -0.289487 17.5569 -4.76e-06 17.5568)
(17.0825 5.03909 -0.28126 17.0825 4.6096e-07 17.0825)
(17.0825 5.03909 -0.28126 17.0825 6.12246e-06 17.0825)
(16.6173 4.82247 -0.273129 16.6173 -9.78192e-22 16.6173)
(16.6173 4.82247 -0.273129 16.6174 -6.15078e-06 16.6173)
(16.1613 4.61346 -0.265121 16.1613 6.99862e-07 16.1613)
(16.1613 4.61346 -0.265121 16.1613 8.28028e-06 16.1613)
(15.7146 4.41247 -0.257268 15.7146 8.05244e-23 15.7146)
(15.7146 4.41247 -0.257268 15.7146 -8.08204e-06 15.7146)
(15.2772 4.21994 -0.249609 15.2772 9.37879e-07 15.2772)
(15.2772 4.21994 -0.249609 15.2771 1.10851e-05 15.2772)
(14.8491 4.03626 -0.242184 14.8491 -1.69527e-21 14.8491)
(14.8491 4.03626 -0.242184 14.8492 -1.07634e-05 14.8491)
(14.4305 3.86172 -0.235028 14.4305 1.17907e-06 14.4305)
(14.4305 3.86172 -0.235028 14.4305 1.47643e-05 14.4305)
(14.0213 3.69647 -0.228174 14.0213 -1.92948e-21 14.0213)
(14.0213 3.69647 -0.228174 14.0213 -1.34583e-05 14.0213)
(13.6214 3.54045 -0.221642 13.6214 1.38824e-06 13.6214)
(13.6215 3.54045 -0.221642 13.6214 1.8399e-05 13.6215)
(13.2309 3.39334 -0.215442 13.2309 4.10562e-21 13.2309)
(13.2309 3.39334 -0.215442 13.231 -1.68384e-05 13.2309)
(12.8497 3.25468 -0.209563 12.8497 1.61829e-06 12.8497)
(12.8497 3.25468 -0.209563 12.8496 2.28413e-05 12.8497)
(12.4776 3.12376 -0.203994 12.4776 -0 12.4776)
(12.4775 3.12376 -0.203994 12.4776 -2.1192e-05 12.4775)
(12.1146 2.99958 -0.198692 12.1146 1.78704e-06 12.1146)
(12.1146 2.99958 -0.198692 12.1145 2.82754e-05 12.1146)
(11.7605 2.88098 -0.193601 11.7605 -3.35559e-21 11.7605)
(11.7604 2.88098 -0.193601 11.7605 -2.66468e-05 11.7604)
(11.4152 2.76685 -0.188652 11.4152 1.94685e-06 11.4152)
(11.4153 2.76685 -0.188652 11.4152 3.50068e-05 11.4153)
(11.0787 2.65621 -0.18379 11.0787 4.42771e-22 11.0787)
(11.0786 2.65621 -0.18379 11.0787 -3.35715e-05 11.0786)
(10.7507 2.54823 -0.178951 10.7507 2.04808e-06 10.7507)
(10.7507 2.54823 -0.178951 10.7506 4.33155e-05 10.7507)
(10.4311 2.44252 -0.174097 10.4311 -7.60721e-21 10.4311)
(10.4311 2.44252 -0.174097 10.4312 -4.22521e-05 10.4311)
(10.1198 2.33899 -0.16922 10.1198 2.05114e-06 10.1198)
(10.1199 2.33899 -0.16922 10.1198 5.35406e-05 10.1199)
(9.8168 2.23777 -0.164322 9.8168 -6.62781e-21 9.8168)
(9.81676 2.23777 -0.164322 9.81689 -5.31801e-05 9.81676)
(9.52185 2.13912 -0.159421 9.52185 1.96936e-06 9.52186)
(9.5219 2.13912 -0.159421 9.52176 6.62358e-05 9.5219)
(9.2349 2.04352 -0.154547 9.2349 6.34476e-22 9.2349)
(9.23485 2.04352 -0.154547 9.23499 -6.6901e-05 9.23485)
(8.95582 1.95128 -0.149748 8.95582 1.75052e-06 8.95583)
(8.95587 1.95128 -0.149748 8.95573 8.19832e-05 8.95587)
(8.68454 1.86268 -0.145036 8.68454 -1.32777e-22 8.68454)
(8.68449 1.86268 -0.145036 8.68463 -8.40745e-05 8.68449)
(8.42093 1.77824 -0.140454 8.42093 1.51992e-06 8.42093)
(8.42098 1.77824 -0.140454 8.42083 0.000101608 8.42098)
(8.1649 1.69835 -0.136059 8.1649 2.33599e-22 8.1649)
(8.16485 1.69835 -0.136059 8.16499 -0.000105524 8.16485)
(7.91633 1.62325 -0.131873 7.91633 5.72336e-06 7.91633)
(7.91637 1.62325 -0.131873 7.91624 0.000125863 7.91637)
(7.67511 1.55313 -0.12794 7.67511 -1.48853e-20 7.67511)
(7.67507 1.55313 -0.12794 7.67519 -0.00012749 7.67507)
(7.44112 1.48765 -0.124268 7.44112 5.99184e-06 7.44112)
(7.44116 1.48765 -0.124268 7.44105 0.000146393 7.44116)
(7.21423 1.42642 -0.120824 7.21423 4.6643e-22 7.21423)
(7.2142 1.42642 -0.120824 7.2143 -0.000150766 7.2142)
(6.99432 1.36903 -0.117603 6.99432 6.30498e-06 6.99432)
(6.99434 1.36903 -0.117603 6.99426 0.000158139 6.99434)
(6.78125 1.31495 -0.114564 6.78125 2.16848e-06 6.78125)
(6.78122 1.31495 -0.114565 6.78129 -0.000165562 6.78122)
(6.57489 1.26355 -0.111681 6.57489 6.31529e-06 6.57489)
(6.5749 1.26355 -0.111681 6.57486 0.000166588 6.5749)
(6.37511 1.21373 -0.108889 6.37511 -5.29887e-06 6.37511)
(6.3751 1.21373 -0.108889 6.37513 -0.000172202 6.3751)
(6.18179 1.16495 -0.106074 6.18179 -2.42833e-06 6.18179)
(6.18179 1.16495 -0.106074 6.18179 0.000172101 6.18179)
(5.99481 1.11737 -0.103257 5.99481 -7.14959e-06 5.99481)
(5.99481 1.11737 -0.103257 5.9948 -0.000171056 5.99481)
(5.81406 1.07104 -0.100452 5.81406 2.76011e-20 5.81406)
(5.81405 1.07104 -0.100452 5.81408 0.00016825 5.81405)
(5.63944 1.0264 -0.0976604 5.63944 -7.31861e-06 5.63944)
(5.63946 1.0264 -0.0976604 5.6394 -0.000169881 5.63945)
(5.47084 0.983687 -0.0949663 5.47084 -9.11532e-22 5.47084)
(5.47082 0.983687 -0.0949663 5.47089 0.000153345 5.47082)
(5.30818 0.942785 -0.0923405 5.30818 -7.42929e-06 5.30818)
(5.30821 0.942785 -0.0923405 5.30813 -0.00015775 5.30821)
(5.15136 0.904172 -0.0898016 5.15136 -1.36395e-21 5.15136)
(5.15133 0.904172 -0.0898016 5.15143 0.000137817 5.15133)
(5.0003 0.868195 -0.0874353 5.0003 -4.86014e-06 5.0003)
(5.00033 0.868195 -0.0874353 5.00023 -0.000140015 5.00033)
(4.8549 0.835203 -0.0852396 4.8549 1.36455e-21 4.8549)
(4.85486 0.835203 -0.0852396 4.85498 0.000119838 4.85487)
(4.71509 0.806334 -0.0833066 4.71509 -3.95119e-06 4.71509)
(4.71513 0.806334 -0.0833066 4.71501 -0.000122308 4.71513)
(4.58077 0.782355 -0.0817995 4.58077 1.36008e-20 4.58077)
(4.58072 0.782355 -0.0817995 4.58085 0.000103091 4.58073)
(4.45184 0.763522 -0.0807474 4.45184 -4.41799e-06 4.45184)
(4.45188 0.763522 -0.0807474 4.45176 -0.0001071 4.45188)
(4.32821 0.750285 -0.0802163 4.32821 -1.20225e-21 4.32821)
(4.32816 0.750285 -0.0802163 4.32829 8.85979e-05 4.32816)
(4.20975 0.742667 -0.0802817 4.20975 -4.84729e-06 4.20975)
(4.20979 0.742667 -0.0802817 4.20967 -9.40002e-05 4.20979)
(4.09635 0.740182 -0.0809228 4.09635 -0 4.09635)
(4.09631 0.740182 -0.0809228 4.09643 7.60161e-05 4.09631)
(3.98787 0.74206 -0.0821056 3.98787 -5.22236e-06 3.98787)
(3.9879 0.74206 -0.0821056 3.98779 -8.27155e-05 3.9879)
(3.88416 0.747059 -0.0837409 3.88416 9.09288e-22 3.88416)
(3.88412 0.747059 -0.0837409 3.88423 6.51933e-05 3.88412)
(3.78507 0.753429 -0.0856784 3.78507 -5.53222e-06 3.78507)
(3.7851 0.75343 -0.0856784 3.785 -7.29736e-05 3.7851)
(3.69044 0.759813 -0.0876973 3.69044 7.44844e-21 3.69044)
(3.69041 0.759814 -0.0876973 3.69052 4.88445e-05 3.69041)
(3.60013 0.765746 -0.0897174 3.60013 -5.80295e-06 3.60013)
(3.60017 0.765746 -0.0897175 3.60007 -6.21121e-05 3.60017)
(3.51398 0.771479 -0.0917109 3.51398 -9.1636e-22 3.51398)
(3.51395 0.771479 -0.091711 3.51405 3.46872e-05 3.51395)
(3.43185 0.777872 -0.0937638 3.43185 -6.05346e-06 3.43185)
(3.43188 0.777872 -0.0937638 3.43179 -5.0474e-05 3.43188)
(3.35358 0.785675 -0.0959996 3.35358 -8.38983e-21 3.35358)
(3.35355 0.785675 -0.0959996 3.35364 2.49653e-05 3.35355)
(3.27902 0.795363 -0.0984879 3.27902 -6.25983e-06 3.27902)
(3.27905 0.795364 -0.0984879 3.27897 -4.16454e-05 3.27905)
(3.20802 0.807177 -0.101296 3.20802 -0 3.20802)
(3.208 0.807178 -0.101296 3.20808 1.78557e-05 3.208)
(3.14041 0.82102 -0.104439 3.14041 -6.44988e-06 3.14041)
(3.14043 0.82102 -0.104439 3.14036 -3.50146e-05 3.14043)
(3.07599 0.836592 -0.107902 3.07599 -9.36058e-22 3.07599)
(3.07597 0.836593 -0.107902 3.07604 1.06386e-05 3.07597)
(3.01458 0.853775 -0.111647 3.01458 -6.78762e-06 3.01458)
(3.0146 0.853776 -0.111647 3.01454 -3.02469e-05 3.0146)
(2.95598 0.8722 -0.115703 2.95598 -1.83835e-06 2.95598)
(2.95596 0.872201 -0.115703 2.95602 3.85853e-06 2.95596)
(2.89996 0.890706 -0.119961 2.89996 -7.23868e-06 2.89996)
(2.89998 0.890707 -0.119961 2.89993 -2.69204e-05 2.89998)
(2.84631 0.90766 -0.124229 2.84631 -4.6673e-06 2.84631)
(2.84629 0.907661 -0.124229 2.84635 -1.43436e-06 2.84629)
(2.7948 0.921181 -0.12825 2.7948 -7.78544e-06 2.7948)
(2.79482 0.921182 -0.12825 2.79477 -2.47177e-05 2.79482)
(2.74524 0.929904 -0.131733 2.74524 -7.48091e-06 2.74524)
(2.74522 0.929905 -0.131733 2.74527 -5.24015e-06 2.74522)
(2.69744 0.933458 -0.134541 2.69744 -8.4268e-06 2.69744)
(2.69745 0.933459 -0.134541 2.69741 -2.34083e-05 2.69745)
(2.65126 0.932616 -0.136648 2.65126 -9.0229e-06 2.65126)
(2.65125 0.932617 -0.136648 2.65127 -8.40497e-06 2.65125)
(2.60658 0.929164 -0.138247 2.60658 -8.82685e-06 2.60658)
(2.60659 0.929165 -0.138248 2.60655 -2.24826e-05 2.60659)
(2.56328 0.92534 -0.139626 2.56333 -7.57293e-06 2.56328)
(2.5633 0.925341 -0.139626 2.5633 -9.1639e-06 2.5633)
(2.52132 0.923665 -0.141142 2.52132 -8.92571e-06 2.52132)
(2.52133 0.923665 -0.141143 2.52131 -2.17495e-05 2.52133)
(2.48054 0.925367 -0.143209 2.48058 -5.81358e-06 2.48054)
(2.48055 0.925368 -0.143209 2.48055 -9.28905e-06 2.48055)
(2.44085 0.929599 -0.145823 2.44085 -9.23326e-06 2.44085)
(2.44086 0.9296 -0.145823 2.44084 -2.1619e-05 2.44086)
(2.40207 0.934221 -0.14876 2.4021 -4.59878e-06 2.40207)
(2.40208 0.934222 -0.148761 2.40208 -9.73024e-06 2.40208)
(2.36406 0.936754 -0.151591 2.36406 -9.89567e-06 2.36407)
(2.36407 0.936755 -0.151591 2.36405 -2.21619e-05 2.36407)
(2.32667 0.936028 -0.153945 2.32669 -3.78872e-06 2.32667)
(2.32668 0.936029 -0.153945 2.32668 -1.04215e-05 2.32668)
(2.2898 0.932046 -0.15578 2.2898 -1.06377e-05 2.2898)
(2.2898 0.932047 -0.15578 2.28979 -2.30473e-05 2.2898)
(2.25332 0.925104 -0.157095 2.25334 -3.10587e-06 2.25332)
(2.25332 0.925105 -0.157096 2.25332 -1.11424e-05 2.25332)
(2.21718 0.915144 -0.157947 2.21718 -1.12936e-05 2.21718)
(2.21719 0.915145 -0.157947 2.21718 -2.40684e-05 2.21719)
(2.18132 0.901527 -0.158214 2.18134 -2.41144e-06 2.18132)
(2.18133 0.901529 -0.158214 2.18133 -1.17992e-05 2.18133)
(2.14573 0.883659 -0.157748 2.14573 -1.20651e-05 2.14573)
(2.14573 0.88366 -0.157749 2.14572 -2.49162e-05 2.14573)
(2.1104 0.861725 -0.15643 2.11041 -1.92642e-06 2.1104)
(2.1104 0.861727 -0.156431 2.1104 -1.26495e-05 2.1104)
(2.07538 0.837646 -0.154383 2.07538 -1.2772e-05 2.07538)
(2.07539 0.837648 -0.154384 2.07538 -2.52253e-05 2.07539)
(2.04074 0.814513 -0.152125 2.04074 -1.07055e-06 2.04074)
(2.04074 0.814515 -0.152125 2.04074 -1.31439e-05 2.04074)
(2.00653 0.795394 -0.150247 2.00653 -1.30911e-05 2.00653)
(2.00653 0.795396 -0.150247 2.00653 -2.54558e-05 2.00653)
(1.97278 0.782683 -0.149322 1.97278 -1.02535e-06 1.97278)
(1.97278 0.782686 -0.149322 1.97278 -1.33861e-05 1.97278)
(1.93947 0.777242 -0.14975 1.93947 -1.34917e-05 1.93947)
(1.93947 0.777247 -0.149751 1.93947 -2.60339e-05 1.93947)
(1.90653 0.778241 -0.151564 1.90653 -1.27406e-06 1.90653)
(1.90653 0.778247 -0.151565 1.90653 -1.40213e-05 1.90653)
(1.87384 0.784525 -0.154519 1.87384 -1.41838e-05 1.87384)
(1.87384 0.784532 -0.15452 1.87385 -2.73104e-05 1.87384)
(1.84123 0.794915 -0.158507 1.84123 -1.22582e-06 1.84123)
(1.84123 0.794924 -0.158509 1.84123 -1.47663e-05 1.84123)
(1.80849 0.806096 -0.163248 1.80849 -1.51019e-05 1.80849)
(1.80849 0.806108 -0.16325 1.8085 -2.91754e-05 1.80849)
(1.77539 0.812134 -0.167728 1.77538 -1.19741e-06 1.77539)
(1.77539 0.81215 -0.16773 1.77539 -1.59257e-05 1.77539)
(1.74173 0.80693 -0.170502 1.74173 -1.64192e-05 1.74173)
(1.74173 0.806952 -0.170505 1.74174 -3.18852e-05 1.74173)
(1.70741 0.787255 -0.170355 1.7074 -9.60603e-07 1.70741)
(1.70741 0.787287 -0.170361 1.70741 -1.72668e-05 1.70741)
(1.67243 0.753812 -0.166932 1.67243 -1.74709e-05 1.67243)
(1.67242 0.753864 -0.166941 1.67244 -3.48658e-05 1.67242)
(1.63693 0.709023 -0.16064 1.63691 3.32715e-07 1.63693)
(1.63693 0.709104 -0.160654 1.63693 -1.82056e-05 1.63693)
(1.60112 0.656039 -0.100449 1.60112 -1.8336e-05 1.60112)
(1.60112 0.656144 -0.100449 1.60114 -3.82896e-05 1.60112)
(1.56539 0.601349 -0.0300136 1.56537 2.52713e-06 1.56539)
(1.56538 0.601415 -0.0300136 1.56538 -1.88475e-05 1.56538)