/*--------------------------------*- C++ -*----------------------------------*\
| =========                 |                                                 |
| \\      /  F ield         | OpenFOAM: The Open Source CFD Toolbox           |
|  \\    /   O peration     | Version:  2012                                  |
|   \\  /    A nd           | Website:  www.openfoam.com                      |
|    \\/     M anipulation  |                                                 |
\*---------------------------------------------------------------------------*/
FoamFile
{
    version     2.0;
    format      ascii;
    class       volVectorField;
    location    "16700";
    object      U;
}
// * * * * * * * * * * * * * * * * * * * * * * * * * * * * * * * * * * * * * //

dimensions      [0 1 -1 0 0 0 0];


internalField   nonuniform List<vector> 
2560
(
(0.11002 9.25722e-09 -4.10262e-08)
(0.11002 -2.6286e-09 4.57526e-22)
(0.331457 1.99154e-08 -6.31168e-08)
(0.331457 9.24591e-09 -1.59771e-10)
(0.5559 1.17551e-08 -4.68145e-08)
(0.5559 8.38241e-09 -4.36523e-10)
(0.783379 -2.13439e-09 -2.52179e-08)
(0.783379 -6.42621e-09 -6.77443e-10)
(1.01392 -3.25143e-09 -1.31e-08)
(1.01392 -8.84767e-09 -8.55838e-10)
(1.24756 5.80466e-11 -7.4916e-09)
(1.24756 -5.71644e-09 -1.03038e-09)
(1.48434 1.43434e-09 -4.56246e-09)
(1.48434 -4.62296e-09 -1.23215e-09)
(1.72429 2.65872e-09 -2.70129e-09)
(1.72429 -3.55121e-09 -1.47853e-09)
(1.96747 2.79798e-09 -1.2763e-09)
(1.96747 -3.55661e-09 -1.74212e-09)
(2.21394 3.53923e-09 -9.76108e-12)
(2.21394 -2.92092e-09 -3.98099e-10)
(2.46376 3.54594e-09 1.24194e-09)
(2.46376 -3.02158e-09 9.07964e-10)
(2.71701 3.79085e-09 2.56603e-09)
(2.71701 -2.85575e-09 2.27216e-09)
(2.97375 3.97073e-09 4.02339e-09)
(2.97375 -2.76084e-09 3.75993e-09)
(3.23406 4.02361e-09 4.99765e-09)
(3.23406 -2.77717e-09 5.42333e-09)
(3.49802 4.16994e-09 5.67971e-09)
(3.49802 -2.70078e-09 6.56726e-09)
(3.76571 4.1342e-09 6.43292e-09)
(3.76571 -2.79873e-09 6.43472e-09)
(4.0372 4.30275e-09 7.25872e-09)
(4.0372 -2.69166e-09 7.26117e-09)
(4.31258 4.36971e-09 8.166e-09)
(4.31258 -2.68228e-09 8.16783e-09)
(4.5919 4.25933e-09 9.15473e-09)
(4.5919 -2.84883e-09 9.15722e-09)
(4.87525 4.3948e-09 1.02317e-08)
(4.87525 -2.76722e-09 1.02335e-08)
(5.16267 4.49961e-09 1.14021e-08)
(5.16267 -2.71526e-09 1.14046e-08)
(5.45422 4.50286e-09 1.26749e-08)
(5.45422 -2.76419e-09 1.26768e-08)
(5.74993 4.21067e-09 1.4048e-08)
(5.74993 -3.10651e-09 1.40506e-08)
(6.04985 4.72465e-09 1.5533e-08)
(6.04985 -2.64296e-09 1.55349e-08)
(6.35397 4.48505e-09 1.71375e-08)
(6.35397 -2.93209e-09 1.71402e-08)
(6.6623 4.57244e-09 1.88682e-08)
(6.6623 -2.89425e-09 1.88702e-08)
(6.97481 4.188e-09 2.0724e-08)
(6.97481 -3.32726e-09 2.07267e-08)
(7.29147 4.9419e-09 2.2721e-08)
(7.29147 -2.62234e-09 2.2723e-08)
(7.61221 4.37527e-09 2.48674e-08)
(7.61221 -3.238e-09 2.48701e-08)
(7.93695 4.71016e-09 2.71701e-08)
(7.93695 -2.95228e-09 2.71722e-08)
(8.26557 4.12891e-09 2.96306e-08)
(8.26557 -3.58247e-09 2.96334e-08)
(8.59793 5.04005e-09 3.22665e-08)
(8.59793 -2.72087e-09 3.22687e-08)
(8.93388 4.34575e-09 3.50889e-08)
(8.93388 -3.46519e-09 3.50918e-08)
(9.27321 4.62784e-09 3.81032e-08)
(9.27321 -3.23368e-09 3.81054e-08)
(9.6157 4.25876e-09 4.13157e-08)
(9.6157 -3.65347e-09 4.13187e-08)
(9.96108 5.00043e-09 4.47476e-08)
(9.96108 -2.96336e-09 4.47499e-08)
(10.3091 4.34266e-09 4.841e-08)
(10.3091 -3.67347e-09 4.8413e-08)
(10.6594 4.58042e-09 5.23104e-08)
(10.6594 -3.48909e-09 5.23127e-08)
(11.0116 4.24746e-09 5.6457e-08)
(11.0116 -3.87564e-09 5.64602e-08)
(11.3653 4.94602e-09 6.08743e-08)
(11.3653 -3.23218e-09 6.08767e-08)
(11.7202 4.41819e-09 6.55775e-08)
(11.7202 -3.81585e-09 6.55808e-08)
(12.0757 4.57014e-09 7.0578e-08)
(12.0757 -3.72145e-09 7.05805e-08)
(12.4313 4.03341e-09 7.58802e-08)
(12.4313 -4.31578e-09 7.58835e-08)
(12.7866 5.32177e-09 8.15202e-08)
(12.7866 -3.08762e-09 8.15227e-08)
(13.1409 3.61554e-09 8.75037e-08)
(13.1409 -4.85407e-09 8.75071e-08)
(13.4937 5.48435e-09 9.38556e-08)
(13.4937 -3.04872e-09 9.38582e-08)
(13.8444 3.02625e-09 1.00579e-07)
(13.8444 -5.5695e-09 1.00582e-07)
(14.1922 6.1148e-09 1.07709e-07)
(14.1922 -2.54759e-09 1.07712e-07)
(14.5366 3.83191e-09 1.15283e-07)
(14.5366 -4.89681e-09 1.15286e-07)
(14.8768 3.53016e-09 1.23264e-07)
(14.8768 -5.26846e-09 1.23267e-07)
(15.2121 3.52683e-09 1.3166e-07)
(15.2121 -5.34356e-09 1.31663e-07)
(15.5418 1.00854e-08 1.4065e-07)
(15.5418 1.14323e-09 1.40653e-07)
(15.8651 -4.92562e-09 1.50054e-07)
(15.8651 -1.39431e-08 1.50057e-07)
(16.1812 1.28855e-08 1.59952e-07)
(16.1812 3.79004e-09 1.59955e-07)
(16.4893 -6.68813e-10 1.70474e-07)
(16.4893 -9.8427e-09 1.70478e-07)
(16.7887 4.41942e-09 1.81425e-07)
(16.7887 -4.84118e-09 1.81428e-07)
(17.0786 8.07774e-09 1.93037e-07)
(17.0786 -1.26234e-09 1.93041e-07)
(17.3581 -2.95738e-09 2.05142e-07)
(17.3581 -1.23882e-08 2.05145e-07)
(17.6266 1.06518e-08 2.17806e-07)
(17.6266 1.13332e-09 2.1781e-07)
(17.8831 -1.58513e-09 2.31082e-07)
(17.8831 -1.12007e-08 2.31085e-07)
(18.1271 9.35383e-09 2.44932e-07)
(18.1271 -3.53602e-10 2.44936e-07)
(18.3577 -9.06417e-10 2.59382e-07)
(18.3577 -1.07155e-08 2.59385e-07)
(18.5742 2.69359e-09 2.7423e-07)
(18.5742 -7.21835e-09 2.74234e-07)
(18.7759 7.83582e-09 2.89714e-07)
(18.7759 -2.17997e-09 2.89718e-07)
(18.9623 1.49501e-09 3.05788e-07)
(18.9623 -8.6293e-09 3.05793e-07)
(19.1327 -2.93838e-09 3.22118e-07)
(19.1327 -1.31807e-08 3.22121e-07)
(19.2866 1.45769e-08 3.39048e-07)
(19.2866 4.23012e-09 3.39052e-07)
(19.4235 -1.47397e-08 3.56212e-07)
(19.4235 -2.52201e-08 3.56215e-07)
(19.543 2.65505e-08 3.73918e-07)
(19.543 1.59627e-08 3.73923e-07)
(19.6446 -2.87472e-08 3.91726e-07)
(19.6446 -3.94774e-08 3.91729e-07)
(19.7281 3.45419e-08 4.09809e-07)
(19.7281 2.37003e-08 4.09814e-07)
(19.7933 -2.9428e-08 4.28147e-07)
(19.7933 -4.04245e-08 4.28151e-07)
(19.8401 2.87972e-08 4.46486e-07)
(19.8401 1.76885e-08 4.4649e-07)
(19.8683 -2.20826e-08 4.65064e-07)
(19.8683 -3.33608e-08 4.65068e-07)
(19.878 2.12392e-08 4.83583e-07)
(19.878 9.85056e-09 4.83588e-07)
(19.8693 -1.60013e-08 5.02253e-07)
(19.8693 -2.75759e-08 5.02257e-07)
(19.8423 1.12185e-08 5.20701e-07)
(19.8423 -4.62101e-10 5.20706e-07)
(19.7974 -3.34086e-09 5.3938e-07)
(19.7974 -1.52279e-08 5.39384e-07)
(19.7349 -2.03648e-09 5.57824e-07)
(19.7349 -1.40244e-08 5.57829e-07)
(19.6551 9.29108e-09 5.76502e-07)
(19.6551 -2.92314e-09 5.76506e-07)
(19.5587 -1.57046e-08 5.94948e-07)
(19.5587 -2.80065e-08 5.94953e-07)
(19.4461 1.9874e-08 6.13566e-07)
(19.4461 7.31106e-09 6.1357e-07)
(19.318 -2.01494e-08 6.32243e-07)
(19.318 -3.27751e-08 6.32249e-07)
(19.1751 1.70982e-08 6.50894e-07)
(19.1751 4.16747e-09 6.50899e-07)
(19.0181 -1.44739e-08 6.6979e-07)
(19.0181 -2.74337e-08 6.69795e-07)
(18.8478 1.55391e-08 6.88903e-07)
(18.8478 2.21962e-09 6.88907e-07)
(18.6651 -1.70192e-08 7.08187e-07)
(18.6651 -3.03201e-08 7.08193e-07)
(18.4706 1.78385e-08 7.2776e-07)
(18.4706 4.10508e-09 7.27764e-07)
(18.2654 -1.94573e-08 7.47574e-07)
(18.2654 -3.31067e-08 7.4758e-07)
(18.0502 1.77794e-08 7.67643e-07)
(18.0502 3.60469e-09 7.67647e-07)
(17.826 -1.32113e-08 7.88276e-07)
(17.826 -2.72154e-08 7.88283e-07)
(17.5937 1.13196e-08 8.09224e-07)
(17.5937 -3.33075e-09 8.09228e-07)
(17.354 -9.67537e-09 8.30667e-07)
(17.354 -2.40358e-08 8.30674e-07)
(17.108 4.89583e-09 8.5234e-07)
(17.108 -1.02687e-08 8.52344e-07)
(16.8563 2.91725e-09 8.74815e-07)
(16.8563 -1.18033e-08 8.74822e-07)
(16.5998 -4.26424e-09 8.97712e-07)
(16.5998 -1.99881e-08 8.97717e-07)
(16.3393 -5.18334e-10 9.20864e-07)
(16.3393 -1.55924e-08 9.20872e-07)
(16.0756 9.33046e-09 9.44909e-07)
(16.0756 -7.01608e-09 9.44914e-07)
(15.8094 -1.49772e-08 9.69181e-07)
(15.8094 -3.03898e-08 9.69189e-07)
(15.5413 2.17302e-08 9.94247e-07)
(15.5413 4.69018e-09 9.94251e-07)
(15.272 -2.04381e-08 1.01987e-06)
(15.272 -3.617e-08 1.01988e-06)
(15.0022 1.6526e-08 1.04575e-06)
(15.0022 -1.29506e-09 1.04575e-06)
(14.7323 -1.14895e-08 1.07233e-06)
(14.7323 -2.75089e-08 1.07234e-06)
(14.4629 1.57006e-08 1.09956e-06)
(14.4629 -3.01016e-09 1.09956e-06)
(14.1944 -1.8078e-08 1.12707e-06)
(14.1944 -3.43339e-08 1.12708e-06)
(13.9274 2.57844e-08 1.15535e-06)
(13.9274 6.04764e-09 1.15535e-06)
(13.6621 -2.72744e-08 1.18391e-06)
(13.6621 -4.36938e-08 1.18392e-06)
(13.399 3.27988e-08 1.21306e-06)
(13.399 1.18649e-08 1.21306e-06)
(13.1384 -2.9023e-08 1.2427e-06)
(13.1384 -4.55009e-08 1.24271e-06)
(12.8806 2.98012e-08 1.27259e-06)
(12.8806 7.45448e-09 1.27259e-06)
(12.6257 -2.51012e-08 1.30293e-06)
(12.6257 -4.14917e-08 1.30294e-06)
(12.3741 3.55428e-08 1.33396e-06)
(12.3741 1.15096e-08 1.33396e-06)
(12.126 -4.04778e-08 1.3648e-06)
(12.126 -5.6577e-08 1.36482e-06)
(11.8813 5.70001e-08 1.39656e-06)
(11.8813 3.09318e-08 1.39656e-06)
(11.6404 -6.31528e-08 1.42794e-06)
(11.6404 -7.86832e-08 1.42796e-06)
(11.4033 8.17268e-08 1.46023e-06)
(11.4033 5.31771e-08 1.46022e-06)
(11.1701 -8.43564e-08 1.4922e-06)
(11.1701 -9.89399e-08 1.49223e-06)
(10.9409 1.02147e-07 1.5249e-06)
(10.9409 7.05419e-08 1.52488e-06)
(10.7156 -1.06293e-07 1.55702e-06)
(10.7156 -1.19418e-07 1.55705e-06)
(10.4944 1.2573e-07 1.58979e-06)
(10.4944 9.03293e-08 1.58977e-06)
(10.2772 -1.22102e-07 1.62231e-06)
(10.2772 -1.33081e-07 1.62235e-06)
(10.064 1.38625e-07 1.6551e-06)
(10.064 9.84703e-08 1.65507e-06)
(9.85489 -1.32575e-07 1.68761e-06)
(9.85489 -1.40485e-07 1.68765e-06)
(9.64976 1.50795e-07 1.72028e-06)
(9.64976 1.04642e-07 1.72024e-06)
(9.4486 -1.47109e-07 1.7523e-06)
(9.4486 -1.50715e-07 1.75236e-06)
(9.25138 1.77221e-07 1.78506e-06)
(9.25138 1.23446e-07 1.78501e-06)
(9.05804 -1.84435e-07 1.81618e-06)
(9.05804 -1.82079e-07 1.81626e-06)
(8.86855 2.29032e-07 1.8488e-06)
(8.86855 1.65505e-07 1.84872e-06)
(8.68286 -2.41974e-07 1.87911e-06)
(8.68286 -2.31444e-07 1.87921e-06)
(8.50092 2.89074e-07 1.91081e-06)
(8.50092 2.13015e-07 1.9107e-06)
(8.32267 -2.98599e-07 1.94016e-06)
(8.32267 -2.7696e-07 1.9403e-06)
(8.14806 3.55324e-07 1.97132e-06)
(8.14806 2.63091e-07 1.97117e-06)
(7.97705 -3.7637e-07 1.99896e-06)
(7.97705 -3.39713e-07 1.99914e-06)
(7.80957 4.44632e-07 2.02892e-06)
(7.80957 3.31438e-07 2.02872e-06)
(7.64559 -4.67928e-07 2.05484e-06)
(7.64559 -4.11055e-07 2.05509e-06)
(7.48506 5.49897e-07 2.0838e-06)
(7.48506 4.0944e-07 2.08352e-06)
(7.32791 -5.86162e-07 2.10732e-06)
(7.32791 -5.02153e-07 2.10765e-06)
(7.1741 6.85904e-07 2.13488e-06)
(7.1741 5.09864e-07 2.1345e-06)
(7.02358 -7.35474e-07 2.15551e-06)
(7.02358 -6.15118e-07 2.15596e-06)
(6.8763 8.56883e-07 2.18152e-06)
(6.8763 6.34266e-07 2.181e-06)
(6.73223 -9.20883e-07 2.19895e-06)
(6.73223 -7.51917e-07 2.19956e-06)
(6.5913 1.06858e-06 2.22351e-06)
(6.5913 7.84826e-07 2.2228e-06)
(6.45349 -1.15449e-06 2.23713e-06)
(6.45349 -9.2057e-07 2.23797e-06)
(6.31876 1.33304e-06 2.26006e-06)
(6.31876 9.68843e-07 2.2591e-06)
(6.18706 -1.44706e-06 2.26904e-06)
(6.18706 -1.12641e-06 2.27018e-06)
(6.05838 1.67076e-06 2.29081e-06)
(6.05838 1.20047e-06 2.28949e-06)
(5.93267 -1.82538e-06 2.29439e-06)
(5.93267 -1.38891e-06 2.29595e-06)
(5.80991 2.10175e-06 2.31502e-06)
(5.80991 1.49123e-06 2.31322e-06)
(5.69007 -2.30162e-06 2.31264e-06)
(5.69007 -1.71049e-06 2.31477e-06)
(5.57314 2.63916e-06 2.33247e-06)
(5.57314 1.84291e-06 2.32999e-06)
(5.45907 -2.9002e-06 2.32274e-06)
(5.45907 -2.10245e-06 2.32566e-06)
(5.34786 3.31694e-06 2.34225e-06)
(5.34786 2.2742e-06 2.33884e-06)
(5.23948 -3.65617e-06 2.32374e-06)
(5.23948 -2.58223e-06 2.32775e-06)
(5.13391 4.17361e-06 2.34382e-06)
(5.13391 2.80311e-06 2.33913e-06)
(5.03112 -4.61466e-06 2.31474e-06)
(5.03112 -3.1712e-06 2.32024e-06)
(4.93109 5.25869e-06 2.33647e-06)
(4.93109 3.45152e-06 2.33002e-06)
(4.83379 -5.82856e-06 2.29471e-06)
(4.83379 -3.89023e-06 2.30229e-06)
(4.73919 6.6283e-06 2.3194e-06)
(4.73919 4.23824e-06 2.3105e-06)
(4.64724 -7.35782e-06 2.26244e-06)
(4.64724 -4.75597e-06 2.2729e-06)
(4.55789 8.35456e-06 2.29252e-06)
(4.55789 5.18494e-06 2.28024e-06)
(4.47107 -9.29699e-06 2.21629e-06)
(4.47107 -5.80433e-06 2.23074e-06)
(4.3867 1.05536e-05 2.2553e-06)
(4.3867 6.33937e-06 2.23831e-06)
(4.30469 -1.17738e-05 2.15517e-06)
(4.30469 -7.08338e-06 2.17517e-06)
(4.22495 1.33573e-05 2.20701e-06)
(4.22495 7.74042e-06 2.18345e-06)
(4.14735 -1.4928e-05 2.07727e-06)
(4.14735 -8.62468e-06 2.10502e-06)
(4.07179 1.69316e-05 2.14839e-06)
(4.07179 9.42752e-06 2.11569e-06)
(3.99815 -1.89704e-05 1.9799e-06)
(3.99815 -1.04914e-05 2.01846e-06)
(3.92634 2.15206e-05 2.07799e-06)
(3.92634 1.14722e-05 2.03249e-06)
(3.85626 -2.41448e-05 1.8621e-06)
(3.85626 -1.27256e-05 1.91581e-06)
(3.78785 2.73805e-05 1.99801e-06)
(3.78785 1.38946e-05 1.93457e-06)
(3.72104 -3.07719e-05 1.7199e-06)
(3.72104 -1.53718e-05 1.79485e-06)
(3.65583 3.4903e-05 1.90849e-06)
(3.65583 1.67628e-05 1.81985e-06)
(3.5922 -3.92792e-05 1.55131e-06)
(3.5922 -1.84785e-05 1.65614e-06)
(3.53017 4.45511e-05 1.81194e-06)
(3.53017 2.00954e-05 1.68784e-06)
(3.46975 -5.02007e-05 1.35183e-06)
(3.46975 -2.20584e-05 1.49877e-06)
(3.41095 5.69634e-05 1.71331e-06)
(3.41095 2.39183e-05 1.53916e-06)
(3.35378 -6.4285e-05 1.11804e-06)
(3.35378 -2.61406e-05 1.32448e-06)
(3.29823 7.2985e-05 1.61743e-06)
(3.29823 2.82308e-05 1.37246e-06)
(3.24429 -8.24854e-05 8.43959e-07)
(3.24429 -3.06837e-05 1.1347e-06)
(3.19193 9.37136e-05 1.53261e-06)
(3.19193 3.29595e-05 1.18723e-06)
(3.14112 -0.000106087 5.27072e-07)
(3.14112 -3.55931e-05 9.30318e-07)
(3.09178 0.00012046 1.461e-06)
(3.09178 3.7978e-05 9.8051e-07)
(3.04386 -0.000136418 4.15025e-07)
(3.04386 -4.06766e-05 7.15368e-07)
(2.99726 0.000148225 1.1405e-06)
(2.99726 4.29993e-05 7.47971e-07)
(2.95191 -0.000161773 2.93885e-07)
(2.95191 -4.56075e-05 4.89576e-07)
(2.90772 0.000170903 7.89496e-07)
(2.90772 4.76422e-05 4.886e-07)
(2.86462 -0.000181802 1.62951e-07)
(2.86462 -5.00285e-05 5.74648e-07)
(2.82255 0.000188133 4.03458e-07)
(2.82255 5.15651e-05 5.02536e-07)
(2.78145 -0.000196091 2.12946e-08)
(2.78145 -5.36205e-05 7.27725e-07)
(2.74131 0.000199487 2.98241e-19)
(2.74131 5.44492e-05 7.77086e-07)
(2.70213 -0.000196423 3.70443e-07)
(2.70213 -5.60963e-05 5.53584e-07)
(2.66393 0.000197042 1.57098e-07)
(2.66393 5.61066e-05 7.01871e-07)
(2.6267 -0.000190403 8.59743e-07)
(2.6267 -5.72656e-05 4.81247e-07)
(2.59046 0.000187558 3.2815e-07)
(2.59045 5.64773e-05 6.23931e-07)
(2.55516 -0.000177335 1.38139e-06)
(2.55516 -5.71221e-05 8.66086e-07)
(2.52079 0.000170843 5.12959e-07)
(2.52079 5.56049e-05 9.30642e-07)
(2.48733 -0.000157064 1.93245e-06)
(2.48733 -5.57512e-05 1.27392e-06)
(2.45472 0.000146774 7.10576e-07)
(2.45472 5.36274e-05 1.29152e-06)
(2.4229 -0.000133407 2.31355e-06)
(2.4229 -5.33724e-05 1.69906e-06)
(2.39178 0.000123375 1.13165e-06)
(2.39178 5.08211e-05 1.68445e-06)
(2.36122 -0.000112019 2.63521e-06)
(2.36122 -5.0333e-05 2.13967e-06)
(2.33104 0.000103913 1.66506e-06)
(2.33104 4.74976e-05 2.11024e-06)
(2.30106 -9.42008e-05 2.99993e-06)
(2.30106 -4.68978e-05 2.60186e-06)
(2.27107 8.76967e-05 2.21219e-06)
(2.27107 4.38739e-05 2.56935e-06)
(2.24085 -7.93298e-05 3.4072e-06)
(2.24085 -4.32619e-05 3.08871e-06)
(2.21022 7.4185e-05 2.77865e-06)
(2.21022 4.01427e-05 3.06411e-06)
(2.17902 -6.69188e-05 3.85463e-06)
(2.17902 -3.95979e-05 3.60086e-06)
(2.14714 6.29137e-05 3.36241e-06)
(2.14714 3.64311e-05 3.58973e-06)
(2.11457 -5.65369e-05 4.33843e-06)
(2.11457 -3.60059e-05 4.13703e-06)
(2.08132 5.34845e-05 3.96279e-06)
(2.08132 3.28153e-05 4.14319e-06)
(2.04741 -4.78288e-05 4.85651e-06)
(2.04741 -3.25563e-05 4.69732e-06)
(2.01284 4.56021e-05 4.5842e-06)
(2.01284 2.93792e-05 4.72694e-06)
(1.97755 -4.05306e-05 5.40806e-06)
(1.97755 -2.9324e-05 5.2827e-06)
(1.94147 3.90216e-05 5.22602e-06)
(1.94146 2.61789e-05 5.33867e-06)
(1.90449 -3.44129e-05 5.98981e-06)
(1.90449 -2.63489e-05 5.89146e-06)
(1.86653 3.3509e-05 5.88457e-06)
(1.86653 2.32183e-05 5.97329e-06)
(1.82747 -2.92804e-05 6.60076e-06)
(1.82747 -2.36477e-05 6.52389e-06)
(1.78725 2.89101e-05 6.57073e-06)
(1.78724 2.053e-05 6.64051e-06)
(1.74576 -2.49708e-05 7.25542e-06)
(1.74576 -2.12249e-05 7.19555e-06)
(1.70298 2.50831e-05 7.29982e-06)
(1.70298 1.81183e-05 7.3547e-06)
(1.65891 -2.13478e-05 7.96571e-06)
(1.65891 -1.90745e-05 7.91923e-06)
(1.61366 2.18756e-05 8.08051e-06)
(1.61366 1.59445e-05 8.12371e-06)
(1.56746 -1.82754e-05 8.74245e-06)
(1.56746 -1.71622e-05 8.70649e-06)
(1.52055 1.91974e-05 8.92971e-06)
(1.52055 1.40062e-05 8.9638e-06)
(1.4732 -1.56432e-05 9.59684e-06)
(1.4732 -1.5456e-05 9.56913e-06)
(1.42559 1.69623e-05 9.84545e-06)
(1.42559 1.22838e-05 9.87245e-06)
(1.3778 -1.34165e-05 1.0506e-05)
(1.3778 -1.39813e-05 1.04848e-05)
(1.32981 1.51118e-05 1.07975e-05)
(1.32981 1.07697e-05 1.0819e-05)
(1.28142 -1.16028e-05 1.14399e-05)
(1.28142 -1.27922e-05 1.14237e-05)
(1.23248 1.3632e-05 1.1777e-05)
(1.23248 9.48896e-06 1.17942e-05)
(1.18287 -1.01181e-05 1.24209e-05)
(1.18287 -1.18406e-05 1.24086e-05)
(1.13266 1.24669e-05 1.28185e-05)
(1.13266 8.41432e-06 1.28325e-05)
(1.08199 -8.86106e-06 1.34885e-05)
(1.08199 -1.10525e-05 1.34793e-05)
(1.03106 1.15353e-05 1.3951e-05)
(1.03106 7.48599e-06 1.39625e-05)
(0.980021 -7.79361e-06 1.46541e-05)
(0.98002 -1.04109e-05 1.46473e-05)
(0.929033 1.08214e-05 1.51808e-05)
(0.929032 6.70368e-06 1.51903e-05)
(0.878276 -6.94586e-06 1.59112e-05)
(0.878275 -9.96237e-06 1.59063e-05)
(0.827979 1.03089e-05 1.65042e-05)
(0.827978 6.06254e-06 1.65121e-05)
(0.778403 -6.26552e-06 1.72762e-05)
(0.778401 -9.66754e-06 1.72727e-05)
(0.729766 1.00532e-05 1.79466e-05)
(0.729764 5.62584e-06 1.79534e-05)
(0.682121 -5.80239e-06 1.87453e-05)
(0.68212 -9.58646e-06 1.8743e-05)
(0.635338 1.00226e-05 1.9471e-05)
(0.635336 5.3672e-06 1.94768e-05)
(0.589109 -5.57259e-06 2.02768e-05)
(0.589107 -9.74346e-06 2.02753e-05)
(0.543012 1.01814e-05 2.10507e-05)
(0.54301 5.25447e-06 2.10558e-05)
(0.496617 -5.52307e-06 2.18827e-05)
(0.496615 -1.00923e-05 2.18819e-05)
(0.449578 1.06095e-05 2.27349e-05)
(0.449575 5.3696e-06 2.27393e-05)
(0.401582 -5.7108e-06 2.36009e-05)
(0.401579 -1.06959e-05 2.36005e-05)
(0.352404 1.12747e-05 2.4541e-05)
(0.3524 5.68106e-06 2.45448e-05)
(0.302122 -6.12193e-06 2.54639e-05)
(0.302117 -1.15456e-05 2.54637e-05)
(0.251239 1.2225e-05 2.65264e-05)
(0.251233 6.23696e-06 2.65296e-05)
(0.20061 -6.75029e-06 2.75291e-05)
(0.200603 -1.26405e-05 2.75289e-05)
(0.151185 1.35134e-05 2.87232e-05)
(0.151176 7.08955e-06 2.87257e-05)
(0.103785 -7.74865e-06 2.97724e-05)
(0.103772 -1.41382e-05 2.9772e-05)
(0.0591097 1.51919e-05 3.10906e-05)
(0.0590896 8.2895e-06 3.10924e-05)
(0.0176244 -9.07838e-06 3.21796e-05)
(0.0175968 -1.60047e-05 3.21787e-05)
(-0.0207837 1.73225e-05 3.35984e-05)
(-0.0208126 9.89568e-06 3.35995e-05)
(-0.0569416 -1.08824e-05 3.46565e-05)
(-0.0569632 -1.83852e-05 3.46559e-05)
(-0.0919995 1.99419e-05 3.61451e-05)
(-0.0920142 1.19446e-05 3.61469e-05)
(-0.126794 -1.32936e-05 3.71625e-05)
(-0.126804 -2.14197e-05 3.71629e-05)
(-0.161291 2.32025e-05 3.87923e-05)
(-0.161299 1.45827e-05 3.8795e-05)
(-0.194701 -1.63749e-05 3.98475e-05)
(-0.194707 -2.51749e-05 3.98491e-05)
(-0.225994 2.73258e-05 4.17476e-05)
(-0.225998 1.80257e-05 4.17513e-05)
(-0.254391 -2.01697e-05 4.2902e-05)
(-0.254395 -2.97001e-05 4.2905e-05)
(-0.279497 3.22909e-05 4.50914e-05)
(-0.2795 2.22456e-05 4.50964e-05)
(-0.301157 -2.47172e-05 4.63207e-05)
(-0.30116 -3.5041e-05 4.63254e-05)
(-0.319687 3.8364e-05 4.87607e-05)
(-0.319689 2.75014e-05 4.87671e-05)
(-0.33585 -3.04579e-05 4.98587e-05)
(-0.335852 -4.16449e-05 4.98653e-05)
(-0.350486 4.56928e-05 5.24174e-05)
(-0.350488 3.39333e-05 5.24253e-05)
(-0.3643 -3.76172e-05 5.32411e-05)
(-0.364302 -4.9744e-05 5.32497e-05)
(-0.377933 5.44291e-05 5.59106e-05)
(-0.377935 4.1685e-05 5.59203e-05)
(-0.392105 -4.63875e-05 5.64998e-05)
(-0.392107 -5.95383e-05 5.65109e-05)
(-0.407657 6.51159e-05 5.95071e-05)
(-0.407659 5.12907e-05 5.95189e-05)
(-0.425366 -5.69022e-05 5.99554e-05)
(-0.425368 -7.11689e-05 5.99697e-05)
(-0.445828 7.80213e-05 6.33538e-05)
(-0.44583 6.30077e-05 6.33684e-05)
(-0.469404 -6.97783e-05 6.34834e-05)
(-0.469406 -8.5262e-05 6.35019e-05)
(-0.496121 9.34152e-05 6.72545e-05)
(-0.496124 7.7092e-05 6.7273e-05)
(-0.525938 -8.5312e-05 6.7024e-05)
(-0.525942 -0.000102126 6.70484e-05)
(-0.558927 0.000111859 7.13304e-05)
(-0.55893 9.40855e-05 7.13542e-05)
(-0.594822 -0.000104004 7.0729e-05)
(-0.594826 -0.000122275 7.07616e-05)
(-0.632902 0.000133924 7.57461e-05)
(-0.632905 0.000114531 7.57768e-05)
(-0.672495 -0.000126401 7.4727e-05)
(-0.672498 -0.000146278 7.47707e-05)
(-0.713408 0.000160413 8.05952e-05)
(-0.713412 0.000139193 8.06347e-05)
(-0.755905 -0.000153437 7.89033e-05)
(-0.755909 -0.000175094 7.89621e-05)
(-0.80003 0.000192016 8.56682e-05)
(-0.800034 0.000168703 8.57185e-05)
(-0.845041 -0.000185845 8.31293e-05)
(-0.845045 -0.000209486 8.32093e-05)
(-0.889554 0.000229881 9.09992e-05)
(-0.889557 0.000204124 9.10624e-05)
(-0.932059 -0.000224849 8.73215e-05)
(-0.932062 -0.00025071 8.7431e-05)
(-0.97149 0.000275304 9.64791e-05)
(-0.971493 0.000246629 9.65557e-05)
(-1.00684 -0.000271834 9.13068e-05)
(-1.00684 -0.000300178 9.14576e-05)
(-1.03635 0.000329988 0.000102018)
(-1.03635 0.000297735 0.000102105)
(-1.05798 -0.000328582 9.48958e-05)
(-1.05798 -0.000359671 9.51051e-05)
(-1.07081 0.00039597 0.000107503)
(-1.07081 0.000359207 0.000107589)
(-1.07589 -0.000396937 9.79427e-05)
(-1.07589 -0.000430965 9.82359e-05)
(-1.07592 0.000475376 0.000112774)
(-1.07592 0.000432761 0.000112835)
(-1.07407 -0.000479564 0.000100147)
(-1.07407 -0.000516519 0.000100567)
(-1.07263 0.000571169 0.000117993)
(-1.07263 0.000520728 0.000117984)
(-1.07192 -0.00057861 0.000101983)
(-1.07192 -0.000618025 0.00010261)
(-1.07066 0.000686609 0.000123473)
(-1.07066 0.000625324 0.000123309)
(-1.06715 -0.000698079 0.000102727)
(-1.06715 -0.000738558 0.000103706)
(-1.05986 0.000825699 0.000128245)
(-1.05986 0.000748759 0.000127759)
(-1.04787 -0.00084198 0.000101267)
(-1.04787 -0.000880316 0.000102854)
(-1.03103 0.000993291 0.000131366)
(-1.03103 0.000892791 0.000130239)
(-1.01007 -0.00101649 9.62636e-05)
(-1.01007 -0.00104608 9.8918e-05)
(-0.985692 0.00119647 0.000132688)
(-0.985688 0.00105916 0.000130326)
(-0.957372 -0.00122896 8.82277e-05)
(-0.957366 -0.00123699 9.27745e-05)
(-0.924135 0.00144555 0.000134204)
(-0.924128 0.00124901 0.000129528)
(-0.886565 -0.00149041 7.81708e-05)
(-0.886555 -0.00145305 8.60695e-05)
(-0.846526 0.00175485 0.00013715)
(-0.846515 0.00146096 0.00012823)
(-0.80655 -0.00181834 6.45498e-05)
(-0.806539 -0.0016927 7.83693e-05)
(-0.769226 0.00214555 0.000140936)
(-0.769215 0.00168972 0.000124467)
(-0.735837 -0.0022275 4.75061e-05)
(-0.735825 -0.00194899 6.89562e-05)
(-0.706018 0.00262525 0.000143554)
(-0.706006 0.0019262 0.000116643)
(-0.678931 -0.00266848 4.22024e-05)
(-0.67892 -0.00220714 5.8571e-05)
(-0.655327 0.00306833 0.000128217)
(-0.655317 0.0021669 0.000103441)
(-0.636491 -0.00307991 3.5026e-05)
(-0.636483 -0.00244809 4.67656e-05)
(-0.622058 0.00345993 0.00010634)
(-0.622052 0.00239789 8.37073e-05)
(-0.609597 -0.00345075 2.49474e-05)
(-0.609592 -0.00265254 3.29493e-05)
(-0.597325 0.00384221 9.61414e-05)
(-0.597321 0.00260654 5.78601e-05)
(-0.586728 -0.0038502 4.69081e-05)
(-0.586726 -0.00278326 1.82211e-05)
(-0.580674 0.00406854 7.08866e-05)
(-0.580673 0.00278667 2.20586e-05)
(0.11002 -2.59451e-09 -1.80534e-21)
(0.11002 9.55229e-09 4.26469e-08)
(0.331457 9.0776e-09 1.59039e-10)
(0.331456 2.10527e-08 7.15175e-08)
(0.5559 8.40033e-09 4.3616e-10)
(0.5559 1.25429e-08 5.30729e-08)
(0.783379 -6.40358e-09 6.7729e-10)
(0.783379 -1.48525e-09 2.86335e-08)
(1.01392 -8.82299e-09 8.55786e-10)
(1.01392 -2.60216e-09 1.49318e-08)
(1.24756 -5.69225e-09 1.03041e-09)
(1.24756 6.90746e-10 8.61069e-09)
(1.48434 -4.59792e-09 1.23219e-09)
(1.48434 2.07549e-09 5.33565e-09)
(1.72429 -3.5263e-09 1.47861e-09)
(1.72429 3.29557e-09 3.28378e-09)
(1.96747 -3.53105e-09 1.2763e-09)
(1.96747 3.43897e-09 1.74212e-09)
(2.21394 -2.89528e-09 9.76108e-12)
(2.21394 4.17639e-09 3.98099e-10)
(2.46376 -2.9953e-09 -1.24194e-09)
(2.46376 4.18567e-09 -9.07964e-10)
(2.71701 -2.82921e-09 -2.56603e-09)
(2.71701 4.42823e-09 -2.27216e-09)
(2.97375 -2.73373e-09 -4.02339e-09)
(2.97375 4.60922e-09 -3.75993e-09)
(3.23406 -2.74975e-09 -5.66286e-09)
(3.23406 4.65963e-09 -4.99949e-09)
(3.49802 -2.67281e-09 -6.40371e-09)
(3.49802 4.80684e-09 -5.68222e-09)
(3.76571 -2.77041e-09 -6.43482e-09)
(3.76571 4.76947e-09 -6.4348e-09)
(4.0372 -2.66282e-09 -7.26129e-09)
(4.0372 4.93835e-09 -7.26127e-09)
(4.31258 -2.65307e-09 -8.16793e-09)
(4.31258 5.00358e-09 -8.16791e-09)
(4.5919 -2.81911e-09 -9.15735e-09)
(4.5919 4.89349e-09 -9.15732e-09)
(4.87525 -2.7371e-09 -1.02336e-08)
(4.87524 5.02774e-09 -1.02336e-08)
(5.16267 -2.68465e-09 -1.14047e-08)
(5.16267 5.1325e-09 -1.14047e-08)
(5.45422 -2.73317e-09 -1.26769e-08)
(5.45422 5.13442e-09 -1.26769e-08)
(5.74993 -3.07499e-09 -1.40508e-08)
(5.74993 4.84217e-09 -1.40507e-08)
(6.04985 -2.61102e-09 -1.55351e-08)
(6.04985 5.35519e-09 -1.5535e-08)
(6.35397 -2.89967e-09 -1.71403e-08)
(6.35397 5.11532e-09 -1.71403e-08)
(6.6623 -2.86138e-09 -1.88703e-08)
(6.6623 5.20168e-09 -1.88703e-08)
(6.97481 -3.29391e-09 -2.07269e-08)
(6.97481 4.81699e-09 -2.07269e-08)
(7.29147 -2.58852e-09 -2.27232e-08)
(7.29147 5.57012e-09 -2.27231e-08)
(7.61221 -3.20371e-09 -2.48703e-08)
(7.61221 5.0031e-09 -2.48703e-08)
(7.93695 -2.91751e-09 -2.71723e-08)
(7.93695 5.33719e-09 -2.71723e-08)
(8.26557 -3.54724e-09 -2.96336e-08)
(8.26557 4.75558e-09 -2.96336e-08)
(8.59793 -2.68516e-09 -3.22688e-08)
(8.59793 5.66612e-09 -3.22688e-08)
(8.93388 -3.42901e-09 -3.50919e-08)
(8.93388 4.97137e-09 -3.50919e-08)
(9.27321 -3.19701e-09 -3.81056e-08)
(9.27321 5.25287e-09 -3.81056e-08)
(9.6157 -3.61634e-09 -4.13188e-08)
(9.6157 4.88337e-09 -4.13188e-08)
(9.96108 -2.92574e-09 -4.475e-08)
(9.96108 5.62463e-09 -4.475e-08)
(10.3091 -3.6354e-09 -4.84132e-08)
(10.3091 4.96641e-09 -4.84132e-08)
(10.6594 -3.45054e-09 -5.23129e-08)
(10.6594 5.20379e-09 -5.23129e-08)
(11.0116 -3.83664e-09 -5.64603e-08)
(11.0116 4.87041e-09 -5.64603e-08)
(11.3653 -3.1927e-09 -6.08768e-08)
(11.3653 5.56872e-09 -6.08768e-08)
(11.7202 -3.77595e-09 -6.55809e-08)
(11.7202 5.04047e-09 -6.55809e-08)
(12.0757 -3.68107e-09 -7.05806e-08)
(12.0757 5.19224e-09 -7.05806e-08)
(12.4313 -4.27499e-09 -7.58837e-08)
(12.4313 4.65511e-09 -7.58837e-08)
(12.7866 -3.04638e-09 -8.15228e-08)
(12.7866 5.9434e-09 -8.15229e-08)
(13.1409 -4.81243e-09 -8.75073e-08)
(13.1409 4.2368e-09 -8.75073e-08)
(13.4937 -3.00665e-09 -9.38583e-08)
(13.4937 6.10564e-09 -9.38583e-08)
(13.8444 -5.52705e-09 -1.00582e-07)
(13.8444 3.64718e-09 -1.00582e-07)
(14.1922 -2.50473e-09 -1.07712e-07)
(14.1922 6.73583e-09 -1.07712e-07)
(14.5366 -4.8536e-09 -1.15287e-07)
(14.5366 4.45263e-09 -1.15287e-07)
(14.8768 -5.22486e-09 -1.23267e-07)
(14.8768 4.15108e-09 -1.23267e-07)
(15.2121 -5.29964e-09 -1.31663e-07)
(15.2121 4.14744e-09 -1.31664e-07)
(15.5418 1.18751e-09 -1.40653e-07)
(15.5418 1.07062e-08 -1.40653e-07)
(15.8651 -1.38985e-08 -1.50057e-07)
(15.8651 -4.305e-09 -1.50058e-07)
(16.1812 3.83493e-09 -1.59955e-07)
(16.1812 1.35064e-08 -1.59955e-07)
(16.4893 -9.79754e-09 -1.70478e-07)
(16.4893 -4.80956e-11 -1.70479e-07)
(16.7887 -4.79572e-09 -1.81428e-07)
(16.7887 5.04052e-09 -1.81428e-07)
(17.0786 -1.21665e-09 -1.93041e-07)
(17.0786 8.69863e-09 -1.93041e-07)
(17.3581 -1.23423e-08 -2.05145e-07)
(17.3581 -2.33603e-09 -2.05145e-07)
(17.6266 1.17946e-09 -2.1781e-07)
(17.6266 1.12729e-08 -2.1781e-07)
(17.8831 -1.11544e-08 -2.31085e-07)
(17.8831 -9.63543e-10 -2.31085e-07)
(18.1271 -3.07035e-10 -2.44936e-07)
(18.1271 9.97522e-09 -2.44936e-07)
(18.3577 -1.06688e-08 -2.59385e-07)
(18.3577 -2.84566e-10 -2.59385e-07)
(18.5742 -7.17142e-09 -2.74235e-07)
(18.5742 3.31527e-09 -2.74235e-07)
(18.7759 -2.13286e-09 -2.89718e-07)
(18.7759 8.45794e-09 -2.89718e-07)
(18.9623 -8.58207e-09 -3.05793e-07)
(18.9623 2.11697e-09 -3.05793e-07)
(19.1327 -1.31334e-08 -3.22121e-07)
(19.1327 -2.31601e-09 -3.22121e-07)
(19.2866 4.2776e-09 -3.39053e-07)
(19.2866 1.51992e-08 -3.39053e-07)
(19.4235 -2.51725e-08 -3.56216e-07)
(19.4235 -1.41171e-08 -3.56216e-07)
(19.543 1.60105e-08 -3.73923e-07)
(19.543 2.71729e-08 -3.73923e-07)
(19.6446 -3.94295e-08 -3.9173e-07)
(19.6446 -2.81245e-08 -3.9173e-07)
(19.7281 2.37483e-08 -4.09814e-07)
(19.7281 3.51645e-08 -4.09814e-07)
(19.7934 -4.03763e-08 -4.28151e-07)
(19.7934 -2.88052e-08 -4.28151e-07)
(19.8401 1.77367e-08 -4.46491e-07)
(19.8401 2.94198e-08 -4.46491e-07)
(19.8683 -3.33123e-08 -4.65068e-07)
(19.8683 -2.14599e-08 -4.65068e-07)
(19.878 9.89909e-09 -4.83588e-07)
(19.878 2.18617e-08 -4.83588e-07)
(19.8693 -2.75272e-08 -5.02257e-07)
(19.8693 -1.53787e-08 -5.02258e-07)
(19.8423 -4.13225e-10 -5.20707e-07)
(19.8423 1.18409e-08 -5.20707e-07)
(19.7974 -1.51787e-08 -5.39384e-07)
(19.7974 -2.7185e-09 -5.39384e-07)
(19.7349 -1.39752e-08 -5.57829e-07)
(19.7349 -1.4144e-09 -5.57829e-07)
(19.6551 -2.87355e-09 -5.76506e-07)
(19.6551 9.91312e-09 -5.76506e-07)
(19.5587 -2.79568e-08 -5.94954e-07)
(19.5587 -1.50829e-08 -5.94954e-07)
(19.4461 7.36125e-09 -6.1357e-07)
(19.4461 2.04955e-08 -6.1357e-07)
(19.318 -3.27248e-08 -6.32249e-07)
(19.318 -1.95282e-08 -6.32249e-07)
(19.1751 4.21818e-09 -6.50899e-07)
(19.1751 1.77192e-08 -6.50899e-07)
(19.0181 -2.73827e-08 -6.69796e-07)
(19.0181 -1.38534e-08 -6.69796e-07)
(18.8479 2.27124e-09 -6.88907e-07)
(18.8479 1.61594e-08 -6.88908e-07)
(18.6651 -3.02683e-08 -7.08193e-07)
(18.6651 -1.63994e-08 -7.08194e-07)
(18.4706 4.15741e-09 -7.27764e-07)
(18.4706 1.84581e-08 -7.27765e-07)
(18.2654 -3.3054e-08 -7.4758e-07)
(18.2654 -1.88383e-08 -7.47581e-07)
(18.0502 3.65812e-09 -7.67647e-07)
(18.0502 1.83981e-08 -7.67648e-07)
(17.8261 -2.71617e-08 -7.88283e-07)
(17.8261 -1.25932e-08 -7.88283e-07)
(17.5937 -3.27638e-09 -8.09228e-07)
(17.5937 1.19374e-08 -8.09229e-07)
(17.354 -2.39809e-08 -8.30674e-07)
(17.354 -9.05832e-09 -8.30675e-07)
(17.108 -1.02129e-08 -8.52344e-07)
(17.108 5.51264e-09 -8.52345e-07)
(16.8563 -1.17471e-08 -8.74821e-07)
(16.8563 3.5332e-09 -8.74822e-07)
(16.5998 -1.99312e-08 -8.97716e-07)
(16.5998 -3.64862e-09 -8.97718e-07)
(16.3393 -1.55348e-08 -9.20871e-07)
(16.3393 9.63926e-11 -9.20872e-07)
(16.0756 -6.9575e-09 -9.44913e-07)
(16.0756 9.9449e-09 -9.44915e-07)
(15.8094 -3.03306e-08 -9.69187e-07)
(15.8094 -1.43638e-08 -9.69188e-07)
(15.5413 4.7502e-09 -9.9425e-07)