/*--------------------------------*- C++ -*----------------------------------*\
| =========                 |                                                 |
| \\      /  F ield         | OpenFOAM: The Open Source CFD Toolbox           |
|  \\    /   O peration     | Version:  2012                                  |
|   \\  /    A nd           | Website:  www.openfoam.com                      |
|    \\/     M anipulation  |                                                 |
\*---------------------------------------------------------------------------*/
FoamFile
{
    version     2.0;
    format      ascii;
    class       volVectorField;
    location    "7000";
    object      U;
}
// * * * * * * * * * * * * * * * * * * * * * * * * * * * * * * * * * * * * * //

dimensions      [0 1 -1 0 0 0 0];


internalField   nonuniform List<vector> 
2560
(
(0.000830357 -2.09442e-16 -1.09027e-17)
(0.000830357 5.6851e-20 -2.37323e-18)
(0.00250282 -2.88745e-15 -7.13403e-17)
(0.00250282 -5.87601e-19 -2.43425e-17)
(0.00419916 -1.32462e-15 -7.46793e-17)
(0.00419916 -1.12606e-18 -2.50468e-17)
(0.00591954 -1.61914e-15 -7.80829e-17)
(0.00591954 -1.80588e-18 -2.57646e-17)
(0.00766414 -1.59246e-15 -8.17412e-17)
(0.00766414 -2.50802e-18 -2.64957e-17)
(0.00943313 -1.60399e-15 -8.56575e-17)
(0.00943313 -3.23073e-18 -2.724e-17)
(0.0112267 -1.61014e-15 -8.97519e-17)
(0.0112267 -3.96266e-18 -2.79973e-17)
(0.013045 -1.6098e-15 -9.40002e-17)
(0.013045 -4.70646e-18 -2.87678e-17)
(0.0148883 -1.60849e-15 -9.84027e-17)
(0.0148883 -5.46313e-18 -2.95513e-17)
(0.0167566 -1.60739e-15 -1.02962e-16)
(0.0167566 -6.23111e-18 -3.0348e-17)
(0.0186503 -1.60627e-15 -1.07679e-16)
(0.0186503 -6.99948e-18 -3.11576e-17)
(0.0205694 -1.60506e-15 -1.12559e-16)
(0.0205694 -7.78105e-18 -3.19803e-17)
(0.0225141 -1.60377e-15 -1.17606e-16)
(0.0225141 -8.59716e-18 -3.28159e-17)
(0.0244847 -1.60246e-15 -1.22823e-16)
(0.0244847 -9.41997e-18 -3.36641e-17)
(0.0264813 -1.60109e-15 -1.28216e-16)
(0.0264813 -1.02633e-17 -3.4525e-17)
(0.0285041 -1.5997e-15 -1.3379e-16)
(0.0285041 -1.11167e-17 -3.53981e-17)
(0.0305533 -1.59828e-15 -1.39001e-16)
(0.0305533 -1.19698e-17 -3.62833e-17)
(0.0326291 -1.59684e-15 -1.41126e-16)
(0.0326291 -1.286e-17 -3.71801e-17)
(0.0347316 -1.59537e-15 -1.43316e-16)
(0.0347316 -1.37582e-17 -3.80884e-17)
(0.0368611 -1.59388e-15 -1.45573e-16)
(0.0368611 -1.46544e-17 -3.90083e-17)
(0.0390178 -1.59238e-15 -1.47901e-16)
(0.0390178 -1.55548e-17 -3.99397e-17)
(0.0412018 -1.59085e-15 -1.50305e-16)
(0.0412018 -1.64697e-17 -4.08822e-17)
(0.0434134 -1.58931e-15 -1.52786e-16)
(0.0434134 -1.73805e-17 -4.18355e-17)
(0.0456528 -1.58774e-15 -1.55347e-16)
(0.0456528 -1.83118e-17 -4.27997e-17)
(0.0479201 -1.58612e-15 -1.57993e-16)
(0.0479201 -1.92867e-17 -4.3774e-17)
(0.0502157 -1.58449e-15 -1.60729e-16)
(0.0502157 -2.0272e-17 -4.47573e-17)
(0.0525396 -1.58286e-15 -1.63559e-16)
(0.0525396 -2.12479e-17 -4.59233e-17)
(0.0548922 -1.58121e-15 -1.66485e-16)
(0.0548922 -2.21964e-17 -4.72315e-17)
(0.0572736 -1.57955e-15 -1.69514e-16)
(0.0572736 -2.31473e-17 -4.85735e-17)
(0.0596841 -1.57782e-15 -1.7265e-16)
(0.0596841 -2.41696e-17 -4.99508e-17)
(0.0621239 -1.57604e-15 -1.75896e-16)
(0.0621239 -2.52045e-17 -5.13647e-17)
(0.0645933 -1.57423e-15 -1.79258e-16)
(0.0645933 -2.62704e-17 -5.28174e-17)
(0.0670924 -1.57243e-15 -1.82742e-16)
(0.0670924 -2.73348e-17 -5.43063e-17)
(0.0696216 -1.57064e-15 -1.86351e-16)
(0.0696216 -2.8349e-17 -5.58356e-17)
(0.0721811 -1.5688e-15 -1.90092e-16)
(0.0721811 -2.94139e-17 -5.74063e-17)
(0.0747711 -1.56689e-15 -1.93973e-16)
(0.0747711 -3.05238e-17 -5.90172e-17)
(0.077392 -1.565e-15 -1.97998e-16)
(0.077392 -3.16281e-17 -6.06706e-17)
(0.0800439 -1.56319e-15 -2.02171e-16)
(0.0800439 -3.2589e-17 -6.23646e-17)
(0.0827272 -1.56134e-15 -2.06496e-16)
(0.0827272 -3.35503e-17 -6.41047e-17)
(0.0854422 -1.5594e-15 -2.10984e-16)
(0.0854422 -3.45872e-17 -6.58898e-17)
(0.0881892 -1.55753e-15 -2.15643e-16)
(0.0881892 -3.5565e-17 -6.77204e-17)
(0.0909684 -1.55561e-15 -2.20477e-16)
(0.0909684 -3.66121e-17 -6.96009e-17)
(0.0937801 -1.55359e-15 -2.255e-16)
(0.0937801 -3.78288e-17 -7.15277e-17)
(0.0966248 -1.55152e-15 -2.30714e-16)
(0.0966248 -3.90015e-17 -7.3503e-17)
(0.0995027 -1.54946e-15 -2.36127e-16)
(0.0995027 -4.01198e-17 -7.55276e-17)
(0.102414 -1.54745e-15 -2.4175e-16)
(0.102414 -4.12573e-17 -7.76059e-17)
(0.105359 -1.54549e-15 -2.47593e-16)
(0.105359 -4.22975e-17 -7.97345e-17)
(0.108339 -1.54353e-15 -2.53658e-16)
(0.108339 -4.33532e-17 -8.1915e-17)
(0.111353 -1.54153e-15 -2.59958e-16)
(0.111353 -4.44223e-17 -8.41508e-17)
(0.114402 -1.53947e-15 -2.66502e-16)
(0.114402 -4.54399e-17 -8.64437e-17)
(0.117487 -1.53735e-15 -2.73294e-16)
(0.117487 -4.65081e-17 -8.87934e-17)
(0.120607 -1.53513e-15 -2.80351e-16)
(0.120607 -4.77872e-17 -9.12019e-17)
(0.123764 -1.53286e-15 -2.88991e-16)
(0.123764 -4.90055e-17 -9.36692e-17)
(0.126957 -1.53067e-15 -2.99044e-16)
(0.126957 -5.01308e-17 -9.61977e-17)
(0.130187 -1.52844e-15 -3.01947e-16)
(0.130187 -5.13288e-17 -1.00142e-16)
(0.133455 -1.52618e-15 -3.0382e-16)
(0.133455 -5.24293e-17 -1.0521e-16)
(0.13676 -1.52407e-15 -3.0567e-16)
(0.13676 -5.35358e-17 -1.10356e-16)
(0.140104 -1.52204e-15 -3.07485e-16)
(0.140104 -5.46874e-17 -1.15583e-16)
(0.143487 -1.51998e-15 -3.09266e-16)
(0.143487 -5.56742e-17 -1.20881e-16)
(0.146909 -1.51799e-15 -3.11014e-16)
(0.146909 -5.6709e-17 -1.26252e-16)
(0.15037 -1.51601e-15 -3.12725e-16)
(0.15037 -5.7738e-17 -1.31692e-16)
(0.153873 -1.514e-15 -3.14395e-16)
(0.153873 -5.85888e-17 -1.37203e-16)
(0.157415 -1.51187e-15 -3.16026e-16)
(0.157415 -5.98078e-17 -1.42772e-16)
(0.161 -1.50969e-15 -3.17619e-16)
(0.161 -6.069e-17 -1.48397e-16)
(0.164626 -1.5077e-15 -3.19171e-16)
(0.164626 -6.14589e-17 -1.54077e-16)
(0.168294 -1.5058e-15 -3.2067e-16)
(0.168294 -6.2222e-17 -1.59804e-16)
(0.172006 -1.50383e-15 -3.22128e-16)
(0.172006 -6.28467e-17 -1.65582e-16)
(0.175761 -1.50178e-15 -3.23542e-16)
(0.175761 -6.3852e-17 -1.71393e-16)
(0.17956 -1.49961e-15 -3.24915e-16)
(0.17956 -6.48813e-17 -1.77243e-16)
(0.183404 -1.49744e-15 -3.26226e-16)
(0.183404 -6.58305e-17 -1.83127e-16)
(0.187293 -1.49522e-15 -3.27479e-16)
(0.187293 -6.68304e-17 -1.8902e-16)
(0.191227 -1.49319e-15 -3.28676e-16)
(0.191227 -6.7866e-17 -1.94927e-16)
(0.195208 -1.49142e-15 -3.29816e-16)
(0.195208 -6.85003e-17 -2.00853e-16)
(0.199236 -1.4897e-15 -3.30885e-16)
(0.199236 -6.90197e-17 -2.06804e-16)
(0.203311 -1.48817e-15 -3.31893e-16)
(0.203311 -6.96254e-17 -2.12764e-16)
(0.207433 -1.48664e-15 -3.32827e-16)
(0.207433 -7.01116e-17 -2.1874e-16)
(0.211605 -1.48512e-15 -3.33681e-16)
(0.211605 -7.05023e-17 -2.24724e-16)
(0.215825 -1.48384e-15 -3.34463e-16)
(0.215825 -7.10521e-17 -2.307e-16)
(0.220095 -1.48239e-15 -3.35154e-16)
(0.220095 -7.16538e-17 -2.3667e-16)
(0.224414 -1.48098e-15 -3.35756e-16)
(0.224414 -7.21576e-17 -2.42619e-16)
(0.228784 -1.47962e-15 -3.36258e-16)
(0.228784 -7.23634e-17 -2.4851e-16)
(0.233204 -1.47795e-15 -3.36664e-16)
(0.233204 -7.2836e-17 -2.54367e-16)
(0.237676 -1.47656e-15 -3.36964e-16)
(0.237676 -7.31666e-17 -2.60173e-16)
(0.242198 -1.47516e-15 -3.37153e-16)
(0.242198 -7.30249e-17 -2.65885e-16)
(0.246773 -1.47363e-15 -3.37238e-16)
(0.246773 -7.34855e-17 -2.71517e-16)
(0.251399 -1.47233e-15 -3.37202e-16)
(0.251399 -7.36477e-17 -2.77062e-16)
(0.256077 -1.47122e-15 -3.37035e-16)
(0.256077 -7.41034e-17 -2.82486e-16)
(0.260807 -1.46991e-15 -3.36752e-16)
(0.260807 -7.48378e-17 -2.87799e-16)
(0.265589 -1.46875e-15 -3.36327e-16)
(0.265589 -7.48438e-17 -2.92989e-16)
(0.270423 -1.46786e-15 -3.35756e-16)
(0.270423 -7.51817e-17 -2.98001e-16)
(0.275308 -1.46668e-15 -3.35006e-16)
(0.275308 -7.56232e-17 -3.02872e-16)
(0.280246 -1.46613e-15 -3.34138e-16)
(0.280246 -7.52279e-17 -3.0755e-16)
(0.285234 -1.46594e-15 -3.33096e-16)
(0.285234 -7.43829e-17 -3.12066e-16)
(0.290273 -1.46529e-15 -3.31876e-16)
(0.290273 -7.43553e-17 -3.16448e-16)
(0.295363 -1.46454e-15 -3.30459e-16)
(0.295363 -7.50253e-17 -3.20602e-16)
(0.300501 -1.46381e-15 -3.28886e-16)
(0.300501 -7.53457e-17 -3.24462e-16)
(0.305689 -1.46301e-15 -3.2709e-16)
(0.305689 -7.51497e-17 -3.28064e-16)
(0.310924 -1.46214e-15 -3.25057e-16)
(0.310924 -7.57619e-17 -3.31362e-16)
(0.316206 -1.46132e-15 -3.22826e-16)
(0.316206 -7.65793e-17 -3.34374e-16)
(0.321534 -1.46048e-15 -3.20387e-16)
(0.321534 -7.68677e-17 -3.37114e-16)
(0.326906 -1.45973e-15 -3.17724e-16)
(0.326906 -7.68388e-17 -3.39466e-16)
(0.332322 -1.45887e-15 -3.14799e-16)
(0.332322 -7.70155e-17 -3.41477e-16)
(0.337778 -1.45907e-15 -3.11735e-16)
(0.337778 -7.62809e-17 -3.4304e-16)
(0.343275 -1.46059e-15 -3.0844e-16)
(0.343275 -7.37691e-17 -3.44324e-16)
(0.34881 -1.46177e-15 -3.04913e-16)
(0.34881 -7.28789e-17 -3.45273e-16)
(0.354381 -1.4627e-15 -3.01148e-16)
(0.354381 -7.21487e-17 -3.45804e-16)
(0.359987 -1.46313e-15 -2.97222e-16)
(0.359987 -7.09176e-17 -3.45902e-16)
(0.365625 -1.46357e-15 -2.93074e-16)
(0.365625 -7.0966e-17 -3.45561e-16)
(0.371294 -1.46252e-15 -2.88696e-16)
(0.371294 -7.07598e-17 -3.44832e-16)
(0.376991 -1.46597e-15 -2.84188e-16)
(0.376991 -6.99765e-17 -3.43643e-16)
(0.382714 -1.46573e-15 -2.79562e-16)
(0.382714 -6.96282e-17 -3.4199e-16)
(0.388461 -1.46612e-15 -2.74756e-16)
(0.388461 -6.93348e-17 -3.39905e-16)
(0.394229 -1.46647e-15 -2.69735e-16)
(0.394229 -6.9248e-17 -3.4043e-16)
(0.400017 -1.46789e-15 -2.67579e-16)
(0.400017 -6.79888e-17 -3.43871e-16)
(0.405821 -1.4698e-15 -2.68629e-16)
(0.405821 -6.67236e-17 -3.47077e-16)
(0.41164 -1.47161e-15 -2.69642e-16)
(0.41164 -6.67895e-17 -3.50151e-16)
(0.417471 -1.47287e-15 -2.70802e-16)
(0.417471 -6.72136e-17 -3.53079e-16)
(0.423312 -1.4734e-15 -2.72121e-16)
(0.423312 -6.82048e-17 -3.55987e-16)
(0.429161 -1.47503e-15 -2.73761e-16)
(0.429161 -6.73891e-17 -3.5851e-16)
(0.435015 -1.4778e-15 -2.75386e-16)
(0.435015 -6.57686e-17 -3.60759e-16)
(0.440872 -1.48075e-15 -2.76989e-16)
(0.440872 -6.44714e-17 -3.62915e-16)
(0.44673 -1.48382e-15 -2.78677e-16)
(0.44673 -6.32055e-17 -3.64907e-16)
(0.452587 -1.48639e-15 -2.80424e-16)
(0.452587 -6.22003e-17 -3.66663e-16)
(0.458441 -1.48892e-15 -2.82262e-16)
(0.458441 -6.14257e-17 -3.68098e-16)
(0.46429 -1.49212e-15 -2.84049e-16)
(0.46429 -6.02688e-17 -3.69485e-16)
(0.470131 -1.49496e-15 -2.85916e-16)
(0.470131 -5.98384e-17 -3.70719e-16)
(0.475965 -1.49739e-15 -2.87969e-16)
(0.475965 -6.04222e-17 -3.71798e-16)
(0.481788 -1.49903e-15 -2.90012e-16)
(0.481788 -6.03325e-17 -3.72648e-16)
(0.487599 -1.50001e-15 -2.92028e-16)
(0.487599 -6.06192e-17 -3.73364e-16)
(0.493396 -1.50084e-15 -2.93934e-16)
(0.493396 -5.96114e-17 -3.74099e-16)
(0.499179 -1.50243e-15 -2.96079e-16)
(0.499179 -5.83187e-17 -3.74803e-16)
(0.504946 -1.50691e-15 -2.98591e-16)
(0.504946 -5.75593e-17 -3.75139e-16)
(0.510695 -1.51231e-15 -3.00873e-16)
(0.510695 -5.64741e-17 -3.75285e-16)
(0.516425 -1.5164e-15 -3.02947e-16)
(0.516425 -5.38818e-17 -3.75659e-16)
(0.522136 -1.51964e-15 -3.05342e-16)
(0.522136 -5.20449e-17 -3.75624e-16)
(0.527826 -1.52361e-15 -3.07763e-16)
(0.527826 -5.14472e-17 -3.75368e-16)
(0.533495 -1.52747e-15 -3.09982e-16)
(0.533495 -5.17795e-17 -3.75183e-16)
(0.539141 -1.53065e-15 -3.12461e-16)
(0.539141 -5.11369e-17 -3.75236e-16)
(0.544764 -1.5332e-15 -3.1535e-16)
(0.544764 -5.09382e-17 -3.74853e-16)
(0.550363 -1.53398e-15 -3.18042e-16)
(0.550363 -5.27713e-17 -3.74054e-16)
(0.555938 -1.53476e-15 -3.20414e-16)
(0.555938 -5.41791e-17 -3.74079e-16)
(0.561487 -1.53762e-15 -3.23837e-16)
(0.561487 -5.52788e-17 -3.73916e-16)
(0.567011 -1.5397e-15 -3.27683e-16)
(0.567011 -5.72195e-17 -3.72751e-16)
(0.57251 -1.54064e-15 -3.31251e-16)
(0.57251 -5.79314e-17 -3.71827e-16)
(0.577982 -1.54185e-15 -3.35178e-16)
(0.577982 -5.81472e-17 -3.71216e-16)
(0.583427 -1.54244e-15 -3.39669e-16)
(0.583427 -6.21855e-17 -3.70469e-16)
(0.588845 -1.54295e-15 -3.44516e-16)
(0.588845 -6.31548e-17 -3.69036e-16)
(0.594236 -1.54505e-15 -3.50132e-16)
(0.594236 -6.04297e-17 -3.66937e-16)
(0.5996 -1.54931e-15 -3.61796e-16)
(0.5996 -5.84766e-17 -3.65207e-16)
(0.604936 -1.5545e-15 -3.73626e-16)
(0.604936 -6.02242e-17 -3.64072e-16)
(0.610244 -1.55903e-15 -3.85022e-16)
(0.610244 -6.25984e-17 -3.7031e-16)
(0.615525 -1.56007e-15 -3.96449e-16)
(0.615525 -6.36393e-17 -3.76504e-16)
(0.620777 -1.56027e-15 -4.08047e-16)
(0.620777 -6.58283e-17 -3.82083e-16)
(0.626002 -1.5618e-15 -4.19438e-16)
(0.626002 -6.69609e-17 -3.87661e-16)
(0.631199 -1.56226e-15 -4.3057e-16)
(0.631199 -6.89979e-17 -3.93261e-16)
(0.636369 -1.56204e-15 -4.40874e-16)
(0.636369 -7.34804e-17 -3.98987e-16)
(0.64151 -1.56176e-15 -4.50779e-16)
(0.64151 -7.71195e-17 -4.05649e-16)
(0.646623 -1.56015e-15 -4.61236e-16)
(0.646623 -8.05097e-17 -4.12237e-16)
(0.651709 -1.55579e-15 -4.72026e-16)
(0.651709 -8.65248e-17 -4.18059e-16)
(0.656768 -1.55041e-15 -4.8256e-16)
(0.656768 -9.38633e-17 -4.23927e-16)
(0.661799 -1.54618e-15 -4.93418e-16)
(0.661799 -9.72576e-17 -4.30179e-16)
(0.666802 -1.54482e-15 -5.04603e-16)
(0.666802 -1.00947e-16 -4.36367e-16)
(0.671778 -1.54583e-15 -5.15247e-16)
(0.671778 -1.07745e-16 -4.41845e-16)
(0.676727 -1.54575e-15 -5.26303e-16)
(0.676727 -1.15805e-16 -4.46833e-16)
(0.681649 -1.54797e-15 -5.37813e-16)
(0.681649 -1.21102e-16 -4.5138e-16)
(0.686545 -1.55393e-15 -5.48377e-16)
(0.686545 -1.24528e-16 -4.55451e-16)
(0.691414 -1.55618e-15 -5.58541e-16)
(0.691414 -1.28464e-16 -4.59803e-16)
(0.696256 -1.55795e-15 -5.68762e-16)
(0.696256 -1.3293e-16 -4.63642e-16)
(0.701072 -1.55687e-15 -5.7821e-16)
(0.701072 -1.38869e-16 -4.67909e-16)
(0.705862 -1.55774e-15 -5.87521e-16)
(0.705862 -1.43482e-16 -4.72227e-16)
(0.710626 -1.56045e-15 -5.96511e-16)
(0.710626 -1.49327e-16 -4.76327e-16)
(0.715364 -1.55791e-15 -6.05537e-16)
(0.715364 -1.54137e-16 -4.79276e-16)
(0.720077 -1.56056e-15 -6.14195e-16)
(0.720077 -1.55832e-16 -4.82028e-16)
(0.724764 -1.56682e-15 -6.22228e-16)
(0.724764 -1.57824e-16 -4.84592e-16)
(0.729426 -1.57236e-15 -6.29285e-16)
(0.729426 -1.60617e-16 -4.86553e-16)
(0.734063 -1.57601e-15 -6.3617e-16)
(0.734063 -1.63083e-16 -4.88648e-16)
(0.738676 -1.58045e-15 -6.41857e-16)
(0.738676 -1.69026e-16 -4.90263e-16)
(0.743264 -1.58496e-15 -6.46356e-16)
(0.743264 -1.74759e-16 -4.91921e-16)
(0.747827 -1.58662e-15 -6.51716e-16)
(0.747827 -1.77142e-16 -4.93062e-16)
(0.752367 -1.58775e-15 -6.56536e-16)
(0.752367 -1.83285e-16 -4.93845e-16)
(0.756882 -1.58527e-15 -6.60769e-16)
(0.756882 -1.91929e-16 -4.94567e-16)
(0.761374 -1.5821e-15 -6.64916e-16)
(0.761374 -1.95988e-16 -4.93866e-16)
(0.765842 -1.57902e-15 -6.67771e-16)
(0.765842 -1.99937e-16 -4.94168e-16)
(0.770287 -1.57638e-15 -6.70695e-16)
(0.770287 -2.07782e-16 -4.93849e-16)
(0.774708 -1.57096e-15 -6.72581e-16)
(0.774708 -2.19028e-16 -4.9334e-16)
(0.779107 -1.56199e-15 -6.7534e-16)
(0.779107 -2.27218e-16 -4.91639e-16)
(0.783482 -1.55965e-15 -6.77359e-16)
(0.783482 -2.33378e-16 -4.89666e-16)
(0.787835 -1.55961e-15 -6.77168e-16)
(0.787835 -2.38783e-16 -4.87126e-16)
(0.792166 -1.55566e-15 -6.76086e-16)
(0.792166 -2.44806e-16 -4.84986e-16)
(0.796475 -1.54941e-15 -6.74537e-16)
(0.796475 -2.57196e-16 -4.82873e-16)
(0.800761 -1.54358e-15 -6.73019e-16)
(0.800761 -2.70133e-16 -4.79468e-16)
(0.805025 -1.5363e-15 -6.70172e-16)
(0.805025 -2.79131e-16 -4.76783e-16)
(0.809268 -1.52525e-15 -6.66709e-16)
(0.809268 -2.85232e-16 -4.75044e-16)
(0.81349 -1.5142e-15 -6.63026e-16)
(0.81349 -2.94708e-16 -4.72651e-16)
(0.817689 -1.50606e-15 -6.60105e-16)
(0.817689 -3.07883e-16 -4.67654e-16)
(0.821868 -1.49664e-15 -6.54948e-16)
(0.821868 -3.22552e-16 -4.63851e-16)
(0.826026 -1.48485e-15 -6.4953e-16)
(0.826026 -3.27748e-16 -4.62388e-16)
(0.830163 -1.47191e-15 -6.45991e-16)
(0.830163 -3.36529e-16 -4.58284e-16)
(0.834279 -1.46139e-15 -6.40916e-16)
(0.834279 -3.58112e-16 -4.52934e-16)
(0.838375 -1.44884e-15 -6.34171e-16)
(0.838375 -3.6732e-16 -4.4897e-16)
(0.84245 -1.42941e-15 -6.29438e-16)
(0.84245 -3.77087e-16 -4.45183e-16)
(0.846505 -1.40941e-15 -6.24915e-16)
(0.846505 -3.92059e-16 -4.42476e-16)
(0.85054 -1.39398e-15 -6.20086e-16)
(0.85054 -3.99964e-16 -4.36878e-16)
(0.854555 -1.37883e-15 -6.13334e-16)
(0.854555 -4.05002e-16 -4.31451e-16)
(0.858551 -1.36506e-15 -6.06867e-16)
(0.858551 -4.13865e-16 -4.27225e-16)
(0.862527 -1.35087e-15 -6.01206e-16)
(0.862527 -4.25403e-16 -4.2215e-16)
(0.866483 -1.33577e-15 -5.93598e-16)
(0.866483 -4.38113e-16 -4.16752e-16)
(0.87042 -1.32489e-15 -5.85896e-16)
(0.87042 -4.53735e-16 -4.10501e-16)
(0.874338 -1.3153e-15 -5.75955e-16)
(0.874338 -4.54216e-16 -4.06355e-16)
(0.878237 -1.30722e-15 -5.66214e-16)
(0.878237 -4.7193e-16 -4.0006e-16)
(0.882117 -1.29042e-15 -5.57954e-16)
(0.882117 -4.87222e-16 -3.94273e-16)
(0.885978 -1.27525e-15 -5.48576e-16)
(0.885978 -5.05478e-16 -3.89881e-16)
(0.889821 -1.26653e-15 -5.3611e-16)
(0.889821 -5.23011e-16 -3.83261e-16)
(0.893645 -1.25199e-15 -5.23215e-16)
(0.893645 -5.34135e-16 -3.7501e-16)
(0.897451 -1.23106e-15 -5.15326e-16)
(0.897451 -5.44765e-16 -3.69694e-16)
(0.901238 -1.21353e-15 -5.10287e-16)
(0.901238 -5.52417e-16 -3.63785e-16)
(0.905008 -1.19902e-15 -5.02986e-16)
(0.905008 -5.62264e-16 -3.55695e-16)
(0.908759 -1.18651e-15 -4.94878e-16)
(0.908759 -5.85929e-16 -3.49031e-16)
(0.912493 -1.17231e-15 -4.86639e-16)
(0.912493 -5.90973e-16 -3.4747e-16)
(0.916208 -1.16304e-15 -4.83467e-16)
(0.916208 -6.02437e-16 -3.41332e-16)
(0.919906 -1.15571e-15 -4.76468e-16)
(0.919906 -6.01327e-16 -3.29318e-16)
(0.923587 -1.14591e-15 -4.64061e-16)
(0.923587 -6.19219e-16 -3.23954e-16)
(0.92725 -1.13536e-15 -4.54854e-16)
(0.92725 -6.25659e-16 -3.19945e-16)
(0.930895 -1.12397e-15 -4.48298e-16)
(0.930895 -6.40146e-16 -3.15768e-16)
(0.934524 -1.11302e-15 -4.40014e-16)
(0.934524 -6.49161e-16 -3.19174e-16)
(0.938135 -1.10271e-15 -4.30812e-16)
(0.938135 -6.47088e-16 -3.27994e-16)
(0.941729 -1.0935e-15 -4.19539e-16)
(0.941729 -6.52338e-16 -3.32816e-16)
(0.945306 -1.07962e-15 -4.16271e-16)
(0.945306 -6.5709e-16 -3.32489e-16)
(0.948866 -1.06675e-15 -4.20744e-16)
(0.948866 -6.60637e-16 -3.36966e-16)
(0.95241 -1.05254e-15 -4.22142e-16)
(0.95241 -6.70864e-16 -3.43844e-16)
(0.955936 -1.03898e-15 -4.24479e-16)
(0.955936 -6.79782e-16 -3.43321e-16)
(0.959446 -1.03148e-15 -4.25061e-16)
(0.959446 -6.68057e-16 -3.39277e-16)
(0.96294 -1.02085e-15 -4.2517e-16)
(0.96294 -6.58788e-16 -3.40584e-16)
(0.966416 -1.01272e-15 -4.25808e-16)
(0.966416 -6.63719e-16 -3.42468e-16)
(0.969877 -1.00017e-15 -4.23071e-16)
(0.969877 -6.52257e-16 -3.44451e-16)
(0.973321 -9.849e-16 -4.24575e-16)
(0.973321 -6.50665e-16 -3.41735e-16)
(0.976749 -9.76072e-16 -4.2527e-16)
(0.976749 -6.49072e-16 -3.41054e-16)
(0.98016 -9.64339e-16 -4.2203e-16)
(0.98016 -6.49388e-16 -3.48858e-16)
(0.983555 -9.61308e-16 -4.23413e-16)
(0.983555 -6.57046e-16 -3.59973e-16)
(0.986934 -9.54657e-16 -4.21602e-16)
(0.986934 -6.50632e-16 -3.65763e-16)
(0.990297 -9.4197e-16 -4.17919e-16)
(0.990297 -6.54742e-16 -3.68011e-16)
(0.993644 -9.31352e-16 -4.13683e-16)
(0.993644 -6.58186e-16 -3.74295e-16)
(0.996975 -9.24566e-16 -4.0961e-16)
(0.996975 -6.46861e-16 -3.77443e-16)
(1.00029 -9.2445e-16 -4.10312e-16)
(1.00029 -6.43967e-16 -3.82769e-16)
(1.00359 -9.08242e-16 -4.06338e-16)
(1.00359 -6.46493e-16 -3.82769e-16)
(1.00687 -8.96686e-16 -4.05196e-16)
(1.00687 -6.49498e-16 -3.72114e-16)
(1.01014 -8.91771e-16 -3.81565e-16)
(1.01014 -6.62738e-16 -3.64504e-16)
(1.01339 -8.57064e-16 -3.74314e-16)
(1.01339 -6.62055e-16 -3.59698e-16)
(1.01662 -8.26864e-16 -3.90496e-16)
(1.01662 -6.62533e-16 -3.54653e-16)
(1.01984 -8.1489e-16 -4.01285e-16)
(1.01984 -6.68156e-16 -3.47178e-16)
(1.02304 -8.05384e-16 -3.87039e-16)
(1.02304 -6.48987e-16 -3.48855e-16)
(1.02623 -8.05021e-16 -3.79496e-16)
(1.02623 -6.59275e-16 -3.42969e-16)
(1.0294 -7.98336e-16 -3.71971e-16)
(1.0294 -6.78178e-16 -3.37221e-16)
(1.03256 -7.89418e-16 -3.64159e-16)
(1.03256 -6.84923e-16 -3.34939e-16)
(1.03569 -7.78659e-16 -3.80368e-16)
(1.03569 -6.93145e-16 -3.26951e-16)
(1.03882 -7.64498e-16 -3.84161e-16)
(1.03882 -7.10292e-16 -3.27707e-16)
(1.04192 -7.6715e-16 -3.94508e-16)
(1.04192 -7.25506e-16 -3.27781e-16)
(1.04501 -7.61827e-16 -3.99096e-16)
(1.04501 -7.27618e-16 -3.36832e-16)
(1.04808 -7.51851e-16 -3.88763e-16)
(1.04808 -7.16952e-16 -3.45748e-16)
(1.05114 -7.57493e-16 -3.84294e-16)
(1.05114 -7.23264e-16 -3.612e-16)
(1.05418 -7.69e-16 -3.97946e-16)
(1.05418 -7.1649e-16 -3.66289e-16)
(1.0572 -7.69856e-16 -3.96981e-16)
(1.0572 -7.15142e-16 -3.73477e-16)
(1.06021 -7.67533e-16 -3.89358e-16)
(1.06021 -7.28845e-16 -3.71855e-16)
(1.0632 -7.7226e-16 -3.84761e-16)
(1.0632 -7.09303e-16 -3.74862e-16)
(1.06617 -7.63104e-16 -3.72812e-16)
(1.06617 -7.06954e-16 -3.85593e-16)
(1.06913 -7.48531e-16 -3.72896e-16)
(1.06913 -7.07042e-16 -3.93579e-16)
(1.07207 -7.41051e-16 -3.7302e-16)
(1.07207 -6.74727e-16 -4.03511e-16)
(1.07499 -7.24628e-16 -3.63116e-16)
(1.07499 -6.76366e-16 -4.2008e-16)
(1.07789 -6.86099e-16 -3.69806e-16)
(1.07789 -6.9368e-16 -4.09854e-16)
(1.08077 -6.69825e-16 -3.81503e-16)
(1.08077 -6.92904e-16 -4.05655e-16)
(1.08364 -6.74938e-16 -3.86422e-16)
(1.08364 -7.00153e-16 -4.17112e-16)
(1.08649 -6.67973e-16 -3.84861e-16)
(1.08649 -7.00884e-16 -4.28599e-16)
(1.08931 -6.5521e-16 -3.82608e-16)
(1.08931 -6.86181e-16 -3.95451e-16)
(1.09212 -6.45625e-16 -3.87025e-16)
(1.09212 -6.83368e-16 -3.65689e-16)
(1.09491 -6.31616e-16 -3.85821e-16)
(1.09491 -6.70208e-16 -3.6467e-16)
(1.09768 -6.1933e-16 -3.93034e-16)
(1.09768 -6.28773e-16 -3.73071e-16)
(1.10043 -6.18117e-16 -4.02742e-16)
(1.10043 -6.06595e-16 -4.04566e-16)
(1.10316 -6.18586e-16 -4.0228e-16)
(1.10316 -5.73597e-16 -4.21928e-16)
(1.10586 -6.20821e-16 -3.94092e-16)
(1.10586 -6.23859e-16 -4.35746e-16)
(1.10855 -6.15302e-16 -3.95186e-16)
(1.10855 -6.04101e-16 -4.08183e-16)
(1.11121 -5.9528e-16 -4.0537e-16)
(1.11121 -5.96587e-16 -4.05536e-16)
(1.11385 -5.8875e-16 -4.10674e-16)
(1.11385 -6.07932e-16 -4.08483e-16)
(1.11647 -5.87355e-16 -4.19631e-16)
(1.11647 -5.93849e-16 -4.51016e-16)
(1.11906 -5.78765e-16 -4.29249e-16)
(1.11906 -5.47551e-16 -4.67675e-16)
(1.12163 -5.56716e-16 -4.30988e-16)
(1.12163 -5.34158e-16 -4.6115e-16)
(1.12417 -5.38952e-16 -4.42126e-16)
(1.12417 -5.35477e-16 -4.8034e-16)
(1.12669 -5.51401e-16 -4.43945e-16)
(1.12669 -5.69535e-16 -4.99632e-16)
(1.12918 -5.41881e-16 -4.26797e-16)
(1.12918 -5.25491e-16 -5.01601e-16)
(1.13164 -5.41447e-16 -4.27777e-16)
(1.13164 -5.01535e-16 -4.80626e-16)
(1.13407 -5.39245e-16 -4.13175e-16)
(1.13407 -5.54827e-16 -4.4523e-16)
(1.13647 -5.3439e-16 -4.35076e-16)
(1.13647 -5.24997e-16 -4.59672e-16)
(1.13884 -5.57483e-16 -4.26088e-16)
(1.13884 -4.97278e-16 -4.90019e-16)
(1.14117 -5.23083e-16 -4.19342e-16)
(1.14117 -4.71548e-16 -5.0593e-16)
(1.14348 -4.78746e-16 -4.35787e-16)
(1.14348 -4.57675e-16 -5.14255e-16)
(1.14574 -4.99838e-16 -4.43171e-16)
(1.14574 -4.42722e-16 -5.02049e-16)
(1.14797 -4.74118e-16 -4.13405e-16)
(1.14797 -5.13045e-16 -5.04387e-16)
(1.15016 -4.1959e-16 -4.57208e-16)
(1.15016 -5.45261e-16 -5.31525e-16)
(1.15231 -4.33129e-16 -4.8674e-16)
(1.15231 -4.28665e-16 -4.8884e-16)
(1.15442 -4.49332e-16 -4.53405e-16)
(1.15442 -4.83503e-16 -4.77198e-16)
(1.15648 -4.59801e-16 -4.42476e-16)
(1.15648 -5.28741e-16 -4.90182e-16)
(1.1585 -4.54256e-16 -4.81227e-16)
(1.1585 -4.78261e-16 -4.81503e-16)
(1.16046 -4.75548e-16 -4.62407e-16)
(1.16046 -4.9268e-16 -4.62671e-16)
(1.16237 -4.92053e-16 -4.08092e-16)
(1.16237 -5.23187e-16 -4.59833e-16)
(1.16422 -4.80625e-16 -4.28377e-16)
(1.16422 -5.1825e-16 -4.69788e-16)
(1.16602 -4.92433e-16 -4.40477e-16)
(1.16602 -5.12314e-16 -4.51891e-16)
(1.16775 -5.44208e-16 -3.82896e-16)
(1.16775 -5.42075e-16 -4.16399e-16)
(1.16941 -5.2319e-16 -3.78935e-16)
(1.16941 -5.71659e-16 -3.50821e-16)
(1.171 -4.94981e-16 -3.95409e-16)
(1.171 -5.12184e-16 -2.99594e-16)
(1.17251 -4.57907e-16 -3.92755e-16)
(1.17251 -4.32748e-16 -3.3433e-16)
(1.17393 -4.69926e-16 -3.46539e-16)
(1.17393 -3.89891e-16 -3.40149e-16)
(1.17527 -4.46878e-16 -3.35889e-16)
(1.17527 -3.74534e-16 -3.80533e-16)
(1.17651 -4.03827e-16 -3.44892e-16)
(1.17651 -3.92748e-16 -3.93092e-16)
(1.17764 -3.90825e-16 -3.07721e-16)
(1.17764 -3.79271e-16 -3.41883e-16)
(1.17867 -3.58602e-16 -2.95816e-16)
(1.17867 -3.31288e-16 -3.83402e-16)
(1.17957 -3.10008e-16 -2.68579e-16)
(1.17957 -3.14051e-16 -3.9589e-16)
(1.18035 -2.94502e-16 -2.43622e-16)
(1.18035 -2.89838e-16 -4.3961e-16)
(1.18099 -2.89378e-16 -2.40123e-16)
(1.18099 -2.65181e-16 -3.99209e-16)
(1.18148 -2.87851e-16 -1.51929e-16)
(1.18148 -2.39645e-16 -4.95931e-16)
(1.18182 -2.63477e-16 -1.18872e-16)
(1.18182 -2.29623e-16 -5.04961e-16)
(1.18199 -2.38172e-16 -1.28767e-16)
(1.18199 -2.72561e-16 -4.58015e-16)
(0.000830357 2.69545e-20 2.48238e-18)
(0.000830357 -4.99233e-21 9.26963e-23)
(0.00250282 -2.88635e-19 1.21693e-17)
(0.00250282 -5.21905e-20 9.86691e-22)
(0.00419916 -5.60595e-19 1.25216e-17)
(0.00419916 -1.18826e-19 1.52273e-21)
(0.00591954 -9.06272e-19 1.28808e-17)
(0.00591954 -1.94584e-19 2.15157e-21)
(0.00766414 -1.26146e-18 1.32468e-17)
(0.00766414 -2.71296e-19 2.86993e-21)
(0.00943313 -1.6233e-18 1.36195e-17)
(0.00943313 -3.52848e-19 3.67808e-21)
(0.0112267 -1.98982e-18 1.3999e-17)
(0.0112267 -4.41257e-19 4.72668e-21)
(0.013045 -2.3673e-18 1.43853e-17)
(0.013045 -5.24575e-19 5.68286e-21)
(0.0148883 -2.74435e-18 1.47784e-17)
(0.0148883 -6.2216e-19 6.61672e-21)
(0.0167566 -3.12211e-18 1.51785e-17)
(0.0167566 -7.20632e-19 7.75275e-21)
(0.0186503 -3.50775e-18 1.55855e-17)
(0.0186503 -8.18903e-19 8.83179e-21)
(0.0205694 -3.89871e-18 1.59994e-17)
(0.0205694 -9.32489e-19 9.98491e-21)
(0.0225141 -4.30367e-18 1.64205e-17)
(0.0225141 -1.04095e-18 1.14697e-20)
(0.0244847 -4.72069e-18 1.68484e-17)
(0.0244847 -1.15678e-18 1.29857e-20)
(0.0264813 -5.13737e-18 1.72833e-17)
(0.0264813 -1.27656e-18 1.44806e-20)
(0.0285041 -5.55971e-18 1.77252e-17)
(0.0285041 -1.38165e-18 1.59291e-20)
(0.0305533 -6.00794e-18 1.81738e-17)
(0.0305533 -1.46737e-18 1.73605e-20)
(0.0326291 -6.47853e-18 1.86286e-17)
(0.0326291 -1.57755e-18 1.88616e-20)
(0.0347316 -6.92013e-18 1.90898e-17)
(0.0347316 -1.72319e-18 2.07048e-20)
(0.0368611 -7.3333e-18 1.95584e-17)
(0.0368611 -1.88505e-18 2.29481e-20)
(0.0390178 -7.76214e-18 2.00339e-17)
(0.0390178 -2.05345e-18 2.58132e-20)
(0.0412018 -8.19818e-18 2.05166e-17)
(0.0412018 -2.22298e-18 2.86686e-20)
(0.0434134 -8.62211e-18 2.10063e-17)
(0.0434134 -2.40586e-18 3.11999e-20)
(0.0456528 -9.06471e-18 2.15033e-17)
(0.0456528 -2.60859e-18 3.31252e-20)
(0.0479201 -9.54382e-18 2.20068e-17)
(0.0479201 -2.76923e-18 3.58001e-20)
(0.0502157 -1.00425e-17 2.25167e-17)
(0.0502157 -2.90241e-18 3.8976e-20)
(0.0525396 -1.05706e-17 2.30333e-17)
(0.0525396 -3.06634e-18 4.2048e-20)
(0.0548922 -1.11141e-17 2.35555e-17)
(0.0548922 -3.21486e-18 1.36214e-19)
(0.0572736 -1.16779e-17 2.40832e-17)
(0.0572736 -3.36128e-18 4.50652e-19)
(0.0596841 -1.22537e-17 2.46151e-17)
(0.0596841 -3.52527e-18 7.94347e-19)
(0.0621239 -1.27692e-17 2.51514e-17)
(0.0621239 -3.75491e-18 1.16732e-18)
(0.0645933 -1.32978e-17 2.56936e-17)
(0.0645933 -3.90541e-18 1.56841e-18)
(0.0670924 -1.38841e-17 2.62404e-17)
(0.0670924 -4.14787e-18 2.00276e-18)
(0.0696216 -1.44253e-17 2.67919e-17)
(0.0696216 -4.42228e-18 2.47109e-18)
(0.0721811 -1.4945e-17 2.73486e-17)
(0.0721811 -4.61994e-18 2.97512e-18)
(0.0747711 -1.54652e-17 2.791e-17)
(0.0747711 -4.82465e-18 3.51685e-18)
(0.077392 -1.59589e-17 2.8476e-17)
(0.077392 -5.0949e-18 4.09632e-18)
(0.0800439 -1.6537e-17 2.90475e-17)
(0.0800439 -5.37625e-18 4.71749e-18)
(0.0827272 -1.71231e-17 2.96211e-17)
(0.0827272 -5.65222e-18 5.37994e-18)
(0.0854422 -1.76891e-17 3.01975e-17)
(0.0854422 -5.83882e-18 6.08547e-18)
(0.0881892 -1.82894e-17 3.07755e-17)
(0.0881892 -6.02241e-18 6.83674e-18)
(0.0909684 -1.88953e-17 3.13556e-17)
(0.0909684 -6.29292e-18 7.63631e-18)
(0.0937801 -1.95421e-17 3.1936e-17)
(0.0937801 -6.5337e-18 8.4915e-18)
(0.0966248 -2.02059e-17 3.25147e-17)
(0.0966248 -6.71664e-18 9.40064e-18)
(0.0995027 -2.08553e-17 3.30936e-17)
(0.0995027 -7.09575e-18 1.03648e-17)
(0.102414 -2.14586e-17 3.36728e-17)
(0.102414 -7.39731e-18 1.13848e-17)
(0.105359 -2.20785e-17 3.42512e-17)
(0.105359 -7.64034e-18 1.24658e-17)
(0.108339 -2.26912e-17 3.48286e-17)
(0.108339 -8.012e-18 1.3611e-17)
(0.111353 -2.32654e-17 3.83928e-17)
(0.111353 -8.32995e-18 1.48207e-17)
(0.114402 -2.39232e-17 4.25878e-17)
(0.114402 -8.58143e-18 1.60973e-17)
(0.117487 -2.46089e-17 4.68799e-17)
(0.117487 -8.91039e-18 1.74431e-17)
(0.120607 -2.52898e-17 5.1266e-17)
(0.120607 -9.26524e-18 1.88605e-17)
(0.123764 -2.5939e-17 5.57421e-17)
(0.123764 -9.65311e-18 2.03546e-17)
(0.126957 -2.65624e-17 6.03148e-17)
(0.126957 -9.94309e-18 2.19275e-17)
(0.130187 -2.72751e-17 6.49807e-17)
(0.130187 -1.00691e-17 2.35841e-17)
(0.133455 -2.7978e-17 6.97357e-17)
(0.133455 -1.03538e-17 2.53312e-17)
(0.13676 -2.86597e-17 7.4586e-17)
(0.13676 -1.0742e-17 2.71677e-17)
(0.140104 -2.93098e-17 7.95336e-17)
(0.140104 -1.10689e-17 2.9089e-17)
(0.143487 -2.98927e-17 8.45725e-17)
(0.143487 -1.14869e-17 3.11095e-17)
(0.146909 -3.04583e-17 8.97065e-17)
(0.146909 -1.20678e-17 3.32288e-17)
(0.15037 -3.10526e-17 9.4935e-17)
(0.15037 -1.2587e-17 3.54492e-17)
(0.153873 -3.15973e-17 1.00257e-16)
(0.153873 -1.29796e-17 3.7771e-17)
(0.157415 -3.20975e-17 1.05664e-16)
(0.157415 -1.34116e-17 4.01993e-17)
(0.161 -3.27226e-17 1.1116e-16)
(0.161 -1.38061e-17 4.27459e-17)
(0.164626 -3.34615e-17 1.1674e-16)
(0.164626 -1.44001e-17 4.5409e-17)
(0.168294 -3.41373e-17 1.22404e-16)
(0.168294 -1.50595e-17 4.81893e-17)
(0.172006 -3.47262e-17 1.28154e-16)
(0.172006 -1.53604e-17 5.10852e-17)
(0.175761 -3.53466e-17 1.33976e-16)
(0.175761 -1.57949e-17 5.41111e-17)
(0.17956 -3.59494e-17 1.39882e-16)
(0.17956 -1.63416e-17 5.72776e-17)
(0.183404 -3.63421e-17 1.45869e-16)
(0.183404 -1.69542e-17 6.05868e-17)
(0.187293 -3.6669e-17 1.5192e-16)
(0.187293 -1.76388e-17 6.40299e-17)
(0.191227 -3.70436e-17 1.58036e-16)
(0.191227 -1.83966e-17 6.76134e-17)
(0.195208 -3.74526e-17 1.64221e-16)
(0.195208 -1.90664e-17 7.13271e-17)
(0.199236 -3.79762e-17 1.70478e-16)
(0.199236 -1.95884e-17 7.5186e-17)
(0.203311 -3.8431e-17 1.76793e-16)
(0.203311 -2.00859e-17 7.91983e-17)
(0.207433 -3.90678e-17 1.83173e-16)
(0.207433 -2.04107e-17 8.33745e-17)
(0.211605 -3.98501e-17 1.89602e-16)
(0.211605 -2.07138e-17 8.76973e-17)
(0.215825 -4.02484e-17 1.96074e-16)
(0.215825 -2.14513e-17 9.21733e-17)
(0.220095 -4.04768e-17 2.0261e-16)