/*--------------------------------*- C++ -*----------------------------------*\
| =========                 |                                                 |
| \\      /  F ield         | OpenFOAM: The Open Source CFD Toolbox           |
|  \\    /   O peration     | Version:  2106                                  |
|   \\  /    A nd           | Website:  www.openfoam.com                      |
|    \\/     M anipulation  |                                                 |
\*---------------------------------------------------------------------------*/
FoamFile
{
    version     2.0;
    format      ascii;
    arch        "LSB;label=32;scalar=64";
    class       volSymmTensorField;
    location    "6000";
    object      turbulenceProperties:R;
}
// * * * * * * * * * * * * * * * * * * * * * * * * * * * * * * * * * * * * * //

dimensions      [0 2 -2 0 0 0 0];

internalField   nonuniform List<symmTensor> 
2560
(
(2.02803e-08 -7.60575e-14 -1.10105e-16 2.02803e-08 4.7442e-29 2.02803e-08)
(2.02803e-08 -7.60575e-14 -1.10105e-16 2.02803e-08 -6.02214e-32 2.02803e-08)
(2.97964e-09 -6.42145e-14 -2.80266e-16 2.97964e-09 -3.25163e-28 2.97964e-09)
(2.97964e-09 -6.42145e-14 -2.80266e-16 2.97964e-09 -4.23434e-32 2.97964e-09)
(9.02705e-10 -5.73706e-14 -3.4432e-16 9.02705e-10 1.02234e-29 9.02705e-10)
(9.02705e-10 -5.73706e-14 -3.4432e-16 9.02705e-10 -8.78922e-33 9.02705e-10)
(4.31222e-10 -5.80889e-14 -3.53674e-16 4.31222e-10 6.18506e-29 4.31222e-10)
(4.31222e-10 -5.80889e-14 -3.53674e-16 4.31222e-10 -3.81783e-32 4.31222e-10)
(3.32186e-10 -7.88988e-14 -4.87323e-16 3.32186e-10 1.72911e-29 3.32186e-10)
(3.32186e-10 -7.88988e-14 -4.87323e-16 3.32186e-10 -6.14604e-32 3.32186e-10)
(4.02406e-10 -1.50375e-13 -9.42237e-16 4.02406e-10 -6.75748e-30 4.02406e-10)
(4.02406e-10 -1.50375e-13 -9.42237e-16 4.02406e-10 -1.30861e-31 4.02406e-10)
(6.09191e-10 -3.31831e-13 -2.1093e-15 6.09191e-10 -2.48326e-29 6.09191e-10)
(6.09191e-10 -3.31831e-13 -2.1093e-15 6.09191e-10 -3.00761e-31 6.09191e-10)
(9.64193e-10 -7.25035e-13 -4.6754e-15 9.64193e-10 -3.41595e-29 9.64193e-10)
(9.64193e-10 -7.25035e-13 -4.6754e-15 9.64193e-10 -6.99661e-31 9.64193e-10)
(1.49607e-09 -1.4913e-12 -9.75581e-15 1.49607e-09 -4.68039e-29 1.49607e-09)
(1.49607e-09 -1.4913e-12 -9.75581e-15 1.49607e-09 -1.44006e-30 1.49607e-09)
(2.24295e-09 -2.8724e-12 -1.90626e-14 2.24295e-09 -7.74931e-29 2.24295e-09)
(2.24295e-09 -2.8724e-12 -1.90626e-14 2.24295e-09 -2.77092e-30 2.24295e-09)
(3.25017e-09 -5.21582e-12 -3.51155e-14 3.25017e-09 -1.22725e-28 3.25017e-09)
(3.25017e-09 -5.21582e-12 -3.51155e-14 3.25017e-09 -5.20108e-30 3.25017e-09)
(4.56958e-09 -9.00505e-12 -6.15038e-14 4.56958e-09 -1.9255e-28 4.56958e-09)
(4.56958e-09 -9.00505e-12 -6.15038e-14 4.56958e-09 -8.17837e-30 4.56958e-09)
(6.25962e-09 -1.48955e-11 -1.03207e-13 6.25962e-09 -2.95717e-28 6.25962e-09)
(6.25962e-09 -1.48955e-11 -1.03207e-13 6.25962e-09 -1.40515e-29 6.25962e-09)
(8.38553e-09 -2.37568e-11 -1.66988e-13 8.38553e-09 -4.4018e-28 8.38553e-09)
(8.38553e-09 -2.37568e-11 -1.66988e-13 8.38553e-09 -2.34867e-29 8.38553e-09)
(1.10199e-08 -3.6723e-11 -2.61864e-13 1.10199e-08 -6.42643e-28 1.10199e-08)
(1.10199e-08 -3.6723e-11 -2.61864e-13 1.10199e-08 -3.38985e-29 1.10199e-08)
(1.4243e-08 -5.52505e-11 -3.99683e-13 1.4243e-08 -9.23591e-28 1.4243e-08)
(1.4243e-08 -5.52505e-11 -3.99683e-13 1.4243e-08 -5.23e-29 1.4243e-08)
(1.81438e-08 -8.11861e-11 -5.95803e-13 1.81438e-08 -1.31343e-27 1.81438e-08)
(1.81438e-08 -8.11861e-11 -5.95803e-13 1.81438e-08 -6.28969e-29 1.81438e-08)
(2.28201e-08 -1.16846e-10 -8.69911e-13 2.28201e-08 -1.79993e-27 2.28201e-08)
(2.28201e-08 -1.16846e-10 -8.69911e-13 2.28201e-08 -1.08166e-28 2.28201e-08)
(2.838e-08 -1.65105e-10 -1.24699e-12 2.838e-08 -2.44909e-27 2.838e-08)
(2.838e-08 -1.65105e-10 -1.24699e-12 2.838e-08 -1.65882e-28 2.838e-08)
(3.4942e-08 -2.29505e-10 -1.75849e-12 3.4942e-08 -3.39717e-27 3.4942e-08)
(3.4942e-08 -2.29505e-10 -1.75849e-12 3.4942e-08 -1.91068e-28 3.4942e-08)
(4.26365e-08 -3.14371e-10 -2.44362e-12 4.26365e-08 -4.55761e-27 4.26365e-08)
(4.26365e-08 -3.14371e-10 -2.44362e-12 4.26365e-08 -2.61899e-28 4.26365e-08)
(5.16062e-08 -4.24955e-10 -3.35102e-12 5.16062e-08 -3.52389e-26 5.16062e-08)
(5.16062e-08 -4.24955e-10 -3.35102e-12 5.16062e-08 -3.42445e-28 5.16062e-08)
(6.20079e-08 -5.67588e-10 -4.54058e-12 6.20079e-08 -1.51503e-25 6.20079e-08)
(6.20079e-08 -5.67588e-10 -4.54058e-12 6.20079e-08 -3.71286e-28 6.20079e-08)
(7.40128e-08 -7.49865e-10 -6.08562e-12 7.40128e-08 -2.90071e-25 7.40128e-08)
(7.40128e-08 -7.49865e-10 -6.08562e-12 7.40128e-08 -5.01579e-28 7.40128e-08)
(8.78084e-08 -9.80848e-10 -8.07548e-12 8.78084e-08 -3.88234e-25 8.78084e-08)
(8.78084e-08 -9.80848e-10 -8.07548e-12 8.78084e-08 -6.5005e-28 8.78084e-08)
(1.036e-07 -1.2713e-09 -1.06184e-11 1.036e-07 -5.15103e-25 1.036e-07)
(1.036e-07 -1.2713e-09 -1.06184e-11 1.036e-07 -8.23543e-28 1.036e-07)
(1.2161e-07 -1.63396e-09 -1.38452e-11 1.2161e-07 -6.77774e-25 1.2161e-07)
(1.2161e-07 -1.63396e-09 -1.38452e-11 1.2161e-07 -1.06221e-27 1.2161e-07)
(1.42083e-07 -2.08382e-09 -1.79127e-11 1.42083e-07 -8.85083e-25 1.42083e-07)
(1.42083e-07 -2.08382e-09 -1.79127e-11 1.42083e-07 -9.37035e-28 1.42083e-07)
(1.65285e-07 -2.63849e-09 -2.30093e-11 1.65285e-07 -1.14772e-24 1.65285e-07)
(1.65285e-07 -2.63849e-09 -2.30093e-11 1.65285e-07 -1.2103e-27 1.65285e-07)
(1.91506e-07 -3.31856e-09 -2.93592e-11 1.91506e-07 -1.47743e-24 1.91506e-07)
(1.91506e-07 -3.31856e-09 -2.93592e-11 1.91506e-07 -1.70083e-27 1.91506e-07)
(2.21061e-07 -4.14806e-09 -3.72294e-11 2.21061e-07 -1.89058e-24 2.21061e-07)
(2.21061e-07 -4.14806e-09 -3.72294e-11 2.21061e-07 -1.56283e-27 2.21061e-07)
(2.54294e-07 -5.15492e-09 -4.69364e-11 2.54294e-07 -2.40597e-24 2.54294e-07)
(2.54294e-07 -5.15492e-09 -4.69364e-11 2.54294e-07 -1.47551e-27 2.54294e-07)
(2.91576e-07 -6.37153e-09 -5.88544e-11 2.91576e-07 -3.04436e-24 2.91576e-07)
(2.91576e-07 -6.37153e-09 -5.88544e-11 2.91576e-07 -2.47009e-27 2.91576e-07)
(3.33314e-07 -7.83535e-09 -7.34245e-11 3.33314e-07 -3.83274e-24 3.33314e-07)
(3.33314e-07 -7.83535e-09 -7.34245e-11 3.33314e-07 -1.13037e-27 3.33314e-07)
(3.79949e-07 -9.5896e-09 -9.11656e-11 3.79949e-07 -4.80297e-24 3.79949e-07)
(3.79949e-07 -9.5896e-09 -9.11656e-11 3.79949e-07 -2.00186e-27 3.79949e-07)
(4.31957e-07 -1.1684e-08 -1.12686e-10 4.31957e-07 -5.99109e-24 4.31957e-07)
(4.31957e-07 -1.1684e-08 -1.12686e-10 4.31957e-07 -2.75285e-27 4.31957e-07)
(4.89858e-07 -1.41758e-08 -1.387e-10 4.89858e-07 -7.43809e-24 4.89858e-07)
(4.89858e-07 -1.41758e-08 -1.387e-10 4.89858e-07 -6.22466e-27 4.89858e-07)
(5.54214e-07 -1.71304e-08 -1.70038e-10 5.54214e-07 -9.19656e-24 5.54214e-07)
(5.54214e-07 -1.71304e-08 -1.70038e-10 5.54214e-07 -9.704e-27 5.54214e-07)
(6.25634e-07 -2.06229e-08 -2.0767e-10 6.25634e-07 -1.13393e-23 6.25634e-07)
(6.25634e-07 -2.06229e-08 -2.0767e-10 6.25634e-07 -1.65792e-29 6.25634e-07)
(7.04778e-07 -2.47386e-08 -2.52727e-10 7.04778e-07 -1.39243e-23 7.04778e-07)
(7.04778e-07 -2.47386e-08 -2.52727e-10 7.04778e-07 7.88472e-27 7.04778e-07)
(7.92362e-07 -2.95753e-08 -3.06517e-10 7.92362e-07 -1.7037e-23 7.92362e-07)
(7.92362e-07 -2.95753e-08 -3.06517e-10 7.92362e-07 5.91053e-27 7.92362e-07)
(8.89157e-07 -3.52439e-08 -3.70561e-10 8.89157e-07 -2.07864e-23 8.89157e-07)
(8.89157e-07 -3.52439e-08 -3.70561e-10 8.89157e-07 1.74646e-26 8.89157e-07)
(9.96002e-07 -4.18705e-08 -4.46616e-10 9.96002e-07 -2.52743e-23 9.96002e-07)
(9.96002e-07 -4.18705e-08 -4.46616e-10 9.96002e-07 2.88402e-26 9.96002e-07)
(1.1138e-06 -4.95979e-08 -5.36712e-10 1.1138e-06 -3.06238e-23 1.1138e-06)
(1.1138e-06 -4.95979e-08 -5.36712e-10 1.1138e-06 4.28313e-26 1.1138e-06)
(1.24353e-06 -5.85883e-08 -6.43192e-10 1.24353e-06 -3.70117e-23 1.24353e-06)
(1.24353e-06 -5.85883e-08 -6.43192e-10 1.24353e-06 3.89958e-26 1.24353e-06)
(1.38624e-06 -6.90247e-08 -7.68751e-10 1.38624e-06 -4.46441e-23 1.38624e-06)
(1.38624e-06 -6.90247e-08 -7.68751e-10 1.38624e-06 3.48395e-26 1.38624e-06)
(1.54309e-06 -8.11137e-08 -9.1649e-10 1.54309e-06 -5.36943e-23 1.54309e-06)
(1.54309e-06 -8.11137e-08 -9.1649e-10 1.54309e-06 6.48178e-26 1.54309e-06)
(1.71529e-06 -9.50886e-08 -1.08997e-09 1.71529e-06 -6.44395e-23 1.71529e-06)
(1.71529e-06 -9.50886e-08 -1.08997e-09 1.71529e-06 8.2908e-26 1.71529e-06)
(1.90417e-06 -1.11212e-07 -1.29327e-09 1.90417e-06 -7.71748e-23 1.90417e-06)
(1.90417e-06 -1.11212e-07 -1.29327e-09 1.90417e-06 5.85444e-26 1.90417e-06)
(2.11117e-06 -1.29778e-07 -1.53107e-09 2.11117e-06 -9.21328e-23 2.11117e-06)
(2.11117e-06 -1.29778e-07 -1.53107e-09 2.11117e-06 3.42386e-26 2.11117e-06)
(2.33782e-06 -1.5112e-07 -1.80871e-09 2.33782e-06 -1.09787e-22 2.33782e-06)
(2.33782e-06 -1.5112e-07 -1.80871e-09 2.33782e-06 2.04027e-25 2.33782e-06)
(2.58579e-06 -1.75608e-07 -2.13229e-09 2.58579e-06 -1.30559e-22 2.58579e-06)
(2.58579e-06 -1.75608e-07 -2.13229e-09 2.58579e-06 2.13233e-25 2.58579e-06)
(2.85687e-06 -2.0366e-07 -2.50877e-09 2.85687e-06 -1.54974e-22 2.85687e-06)
(2.85687e-06 -2.0366e-07 -2.50877e-09 2.85687e-06 3.03651e-25 2.85687e-06)
(3.15299e-06 -2.3574e-07 -2.94608e-09 3.15299e-06 -1.6586e-22 3.15299e-06)
(3.15299e-06 -2.3574e-07 -2.94608e-09 3.15299e-06 5.58642e-25 3.15299e-06)
(3.4762e-06 -2.72371e-07 -3.45325e-09 3.4762e-06 -1.02308e-22 3.4762e-06)
(3.4762e-06 -2.72371e-07 -3.45325e-09 3.4762e-06 5.0352e-25 3.4762e-06)
(3.82875e-06 -3.14133e-07 -4.04051e-09 3.82875e-06 -5.78451e-23 3.82875e-06)
(3.82875e-06 -3.14133e-07 -4.04051e-09 3.82875e-06 5.85923e-25 3.82875e-06)
(4.21302e-06 -3.61674e-07 -4.71951e-09 4.21302e-06 -6.41467e-23 4.21302e-06)
(4.21302e-06 -3.61674e-07 -4.71951e-09 4.21302e-06 7.61746e-25 4.21302e-06)
(4.63159e-06 -4.15717e-07 -5.50343e-09 4.63159e-06 -7.07512e-23 4.63159e-06)
(4.63159e-06 -4.15717e-07 -5.50343e-09 4.63159e-06 8.40207e-25 4.63159e-06)
(5.08722e-06 -4.77062e-07 -6.4072e-09 5.08722e-06 -7.86279e-23 5.08722e-06)
(5.08722e-06 -4.77062e-07 -6.4072e-09 5.08722e-06 1.51482e-24 5.08722e-06)
(5.58286e-06 -5.46603e-07 -7.44771e-09 5.58286e-06 -8.7547e-23 5.58286e-06)
(5.58286e-06 -5.46603e-07 -7.44771e-09 5.58286e-06 2.16338e-24 5.58286e-06)
(6.1217e-06 -6.25327e-07 -8.64403e-09 6.1217e-06 -9.59378e-23 6.1217e-06)
(6.1217e-06 -6.25327e-07 -8.64403e-09 6.1217e-06 1.84493e-24 6.1217e-06)
(6.70715e-06 -7.14333e-07 -1.00177e-08 6.70715e-06 -1.04149e-22 6.70715e-06)
(6.70715e-06 -7.14333e-07 -1.00177e-08 6.70715e-06 2.79017e-24 6.70715e-06)
(7.34286e-06 -8.14833e-07 -1.1593e-08 7.34286e-06 -1.12441e-22 7.34286e-06)
(7.34286e-06 -8.14833e-07 -1.1593e-08 7.34286e-06 2.4404e-24 7.34286e-06)
(8.03273e-06 -9.2817e-07 -1.33972e-08 8.03273e-06 -1.21342e-22 8.03273e-06)
(8.03273e-06 -9.2817e-07 -1.33972e-08 8.03273e-06 2.24066e-24 8.03273e-06)
(8.78095e-06 -1.05583e-06 -1.5461e-08 8.78095e-06 -1.30641e-22 8.78095e-06)
(8.78095e-06 -1.05583e-06 -1.5461e-08 8.78095e-06 3.11004e-24 8.78095e-06)
(9.592e-06 -1.19944e-06 -1.7819e-08 9.592e-06 -1.4019e-22 9.592e-06)
(9.592e-06 -1.19944e-06 -1.7819e-08 9.592e-06 4.522e-24 9.592e-06)
(1.04707e-05 -1.3608e-06 -2.05098e-08 1.04707e-05 -1.48546e-22 1.04707e-05)
(1.04707e-05 -1.3608e-06 -2.05098e-08 1.04707e-05 6.74863e-24 1.04707e-05)
(1.1422e-05 -1.5419e-06 -2.35769e-08 1.1422e-05 -1.54913e-22 1.1422e-05)
(1.1422e-05 -1.5419e-06 -2.35769e-08 1.1422e-05 6.23178e-24 1.1422e-05)
(1.24516e-05 -1.74492e-06 -2.70687e-08 1.24516e-05 -1.59335e-22 1.24516e-05)
(1.24516e-05 -1.74492e-06 -2.70687e-08 1.24516e-05 3.53067e-24 1.24516e-05)
(1.35652e-05 -1.97225e-06 -3.10395e-08 1.35652e-05 -1.68544e-22 1.35652e-05)
(1.35652e-05 -1.97225e-06 -3.10395e-08 1.35652e-05 5.86817e-24 1.35652e-05)
(1.47689e-05 -2.2265e-06 -3.55499e-08 1.47689e-05 -1.78249e-22 1.47689e-05)
(1.47689e-05 -2.2265e-06 -3.55499e-08 1.47689e-05 1.60855e-23 1.47689e-05)
(1.60695e-05 -2.51056e-06 -4.06676e-08 1.60695e-05 -1.814e-22 1.60695e-05)
(1.60695e-05 -2.51056e-06 -4.06676e-08 1.60695e-05 1.45109e-23 1.60695e-05)
(1.7474e-05 -2.82754e-06 -4.64677e-08 1.7474e-05 -1.75768e-22 1.7474e-05)
(1.7474e-05 -2.82754e-06 -4.64677e-08 1.7474e-05 1.15556e-23 1.7474e-05)
(1.89898e-05 -3.18089e-06 -5.3034e-08 1.89898e-05 -1.61357e-22 1.89898e-05)
(1.89898e-05 -3.18089e-06 -5.3034e-08 1.89898e-05 1.08707e-23 1.89898e-05)
(2.0625e-05 -3.57433e-06 -6.04596e-08 2.0625e-05 -1.49858e-22 2.0625e-05)
(2.0625e-05 -3.57433e-06 -6.04596e-08 2.0625e-05 1.35721e-24 2.0625e-05)
(2.23879e-05 -4.01193e-06 -6.88475e-08 2.23879e-05 -1.20161e-22 2.23879e-05)
(2.23879e-05 -4.01193e-06 -6.88475e-08 2.23879e-05 -1.13545e-23 2.23879e-05)
(2.42875e-05 -4.49811e-06 -7.83123e-08 2.42875e-05 -8.01986e-23 2.42875e-05)
(2.42875e-05 -4.49811e-06 -7.83123e-08 2.42875e-05 -2.17649e-23 2.42875e-05)
(2.63334e-05 -5.03766e-06 -8.89803e-08 2.63334e-05 -1.68523e-23 2.63334e-05)
(2.63334e-05 -5.03766e-06 -8.89803e-08 2.63334e-05 -2.35694e-23 2.63334e-05)
(2.85356e-05 -5.63578e-06 -1.00991e-07 2.85356e-05 2.24775e-24 2.85356e-05)
(2.85356e-05 -5.63578e-06 -1.00991e-07 2.85356e-05 -2.0845e-23 2.85356e-05)
(3.09048e-05 -6.29809e-06 -1.145e-07 3.09048e-05 9.25709e-23 3.09048e-05)
(3.09048e-05 -6.29809e-06 -1.145e-07 3.09048e-05 -1.41423e-23 3.09048e-05)
(3.34522e-05 -7.03067e-06 -1.29676e-07 3.34522e-05 1.77149e-22 3.34522e-05)
(3.34522e-05 -7.03067e-06 -1.29676e-07 3.34522e-05 7.10463e-24 3.34522e-05)
(3.61897e-05 -7.84005e-06 -1.46706e-07 3.61897e-05 3.37756e-22 3.61897e-05)
(3.61897e-05 -7.84005e-06 -1.46706e-07 3.61897e-05 1.92503e-23 3.61897e-05)
(3.91299e-05 -8.73329e-06 -1.65796e-07 3.91299e-05 4.77318e-22 3.91299e-05)
(3.91299e-05 -8.73329e-06 -1.65796e-07 3.91299e-05 1.28058e-23 3.91299e-05)
(4.22859e-05 -9.71795e-06 -1.8717e-07 4.22859e-05 6.28571e-22 4.22859e-05)
(4.22859e-05 -9.71795e-06 -1.8717e-07 4.22859e-05 -5.62413e-24 4.22859e-05)
(4.56716e-05 -1.08021e-05 -2.11076e-07 4.56716e-05 8.62995e-22 4.56716e-05)
(4.56716e-05 -1.08021e-05 -2.11076e-07 4.56716e-05 -1.15117e-23 4.56716e-05)
(4.93016e-05 -1.19946e-05 -2.37782e-07 4.93016e-05 1.15538e-21 4.93016e-05)
(4.93016e-05 -1.19946e-05 -2.37782e-07 4.93016e-05 7.92521e-24 4.93016e-05)
(5.31911e-05 -1.33044e-05 -2.67583e-07 5.31911e-05 1.516e-21 5.31911e-05)
(5.31911e-05 -1.33044e-05 -2.67583e-07 5.31911e-05 4.14578e-23 5.31911e-05)
(5.73562e-05 -1.47417e-05 -3.00798e-07 5.73562e-05 1.95838e-21 5.73562e-05)
(5.73562e-05 -1.47417e-05 -3.00798e-07 5.73562e-05 5.02423e-23 5.73562e-05)
(6.18135e-05 -1.63167e-05 -3.37775e-07 6.18135e-05 2.43981e-21 6.18135e-05)
(6.18135e-05 -1.63167e-05 -3.37775e-07 6.18135e-05 2.85318e-23 6.18135e-05)
(6.65805e-05 -1.80408e-05 -3.78891e-07 6.65805e-05 3.03187e-21 6.65805e-05)
(6.65805e-05 -1.80408e-05 -3.78891e-07 6.65805e-05 7.85964e-23 6.65805e-05)
(7.16754e-05 -1.99255e-05 -4.24556e-07 7.16754e-05 3.72987e-21 7.16754e-05)
(7.16754e-05 -1.99255e-05 -4.24556e-07 7.16754e-05 1.47724e-22 7.16754e-05)
(7.71171e-05 -2.19833e-05 -4.75209e-07 7.71171e-05 4.3578e-21 7.71171e-05)
(7.71171e-05 -2.19833e-05 -4.75209e-07 7.71171e-05 1.59335e-22 7.71171e-05)
(8.29252e-05 -2.42274e-05 -5.31326e-07 8.29252e-05 5.3052e-21 8.29252e-05)
(8.29252e-05 -2.42274e-05 -5.31326e-07 8.29252e-05 1.87908e-22 8.29252e-05)
(8.91198e-05 -2.66712e-05 -5.9342e-07 8.91198e-05 6.63949e-21 8.91198e-05)
(8.91198e-05 -2.66712e-05 -5.9342e-07 8.91198e-05 2.2045e-22 8.91198e-05)
(9.57221e-05 -2.93292e-05 -6.62039e-07 9.57221e-05 7.91913e-21 9.57221e-05)
(9.57221e-05 -2.93292e-05 -6.62039e-07 9.57221e-05 2.66092e-22 9.57221e-05)
(0.000102754 -3.22163e-05 -7.3777e-07 0.000102754 9.75403e-21 0.000102754)
(0.000102754 -3.22163e-05 -7.3777e-07 0.000102754 2.46563e-22 0.000102754)
(0.000110236 -3.53479e-05 -8.21241e-07 0.000110236 1.15741e-20 0.000110236)
(0.000110236 -3.53479e-05 -8.21241e-07 0.000110236 1.67145e-22 0.000110236)
(0.000118193 -3.874e-05 -9.13119e-07 0.000118193 1.34855e-20 0.000118193)
(0.000118193 -3.874e-05 -9.13119e-07 0.000118193 2.9692e-22 0.000118193)
(0.000126647 -4.24092e-05 -1.01412e-06 0.000126647 1.59155e-20 0.000126647)
(0.000126647 -4.24092e-05 -1.01412e-06 0.000126647 5.44852e-22 0.000126647)
(0.000135622 -4.63723e-05 -1.12498e-06 0.000135622 1.90285e-20 0.000135622)
(0.000135622 -4.63723e-05 -1.12498e-06 0.000135622 6.15021e-22 0.000135622)
(0.000145142 -5.06468e-05 -1.24651e-06 0.000145142 2.22821e-20 0.000145142)
(0.000145142 -5.06468e-05 -1.24651e-06 0.000145142 9.04409e-22 0.000145142)
(0.000155231 -5.52502e-05 -1.37954e-06 0.000155231 2.54619e-20 0.000155231)
(0.000155231 -5.52502e-05 -1.37954e-06 0.000155231 1.37651e-21 0.000155231)
(0.000165913 -6.02002e-05 -1.52494e-06 0.000165913 2.91635e-20 0.000165913)
(0.000165913 -6.02002e-05 -1.52494e-06 0.000165913 1.60367e-21 0.000165913)
(0.000177213 -6.55149e-05 -1.68363e-06 0.000177213 3.35728e-20 0.000177213)
(0.000177213 -6.55149e-05 -1.68363e-06 0.000177213 1.68463e-21 0.000177213)
(0.000189155 -7.12122e-05 -1.85657e-06 0.000189155 3.86829e-20 0.000189155)
(0.000189155 -7.12122e-05 -1.85657e-06 0.000189155 1.9533e-21 0.000189155)
(0.000201764 -7.73098e-05 -2.04476e-06 0.000201764 4.43684e-20 0.000201764)
(0.000201764 -7.73098e-05 -2.04476e-06 0.000201764 2.32004e-21 0.000201764)
(0.000215062 -8.38254e-05 -2.24921e-06 0.000215062 5.14361e-20 0.000215062)
(0.000215062 -8.38254e-05 -2.24921e-06 0.000215062 2.42664e-21 0.000215062)
(0.000229074 -9.0776e-05 -2.471e-06 0.000229074 5.99701e-20 0.000229074)
(0.000229074 -9.0776e-05 -2.471e-06 0.000229074 3.07229e-21 0.000229074)
(0.000243821 -9.81785e-05 -2.71119e-06 0.000243821 6.83174e-20 0.000243821)
(0.000243821 -9.81785e-05 -2.71119e-06 0.000243821 3.95164e-21 0.000243821)
(0.000259327 -0.000106049 -2.97092e-06 0.000259327 7.68454e-20 0.000259327)
(0.000259327 -0.000106049 -2.97092e-06 0.000259327 4.95837e-21 0.000259327)
(0.000275611 -0.000114402 -3.25131e-06 0.000275611 8.63891e-20 0.000275611)
(0.000275611 -0.000114402 -3.25131e-06 0.000275611 5.9949e-21 0.000275611)
(0.000292693 -0.000123252 -3.5535e-06 0.000292693 9.73678e-20 0.000292693)
(0.000292693 -0.000123252 -3.5535e-06 0.000292693 6.8295e-21 0.000292693)
(0.000310591 -0.000132612 -3.87866e-06 0.000310591 1.1094e-19 0.000310591)
(0.000310591 -0.000132612 -3.87866e-06 0.000310591 8.07459e-21 0.000310591)
(0.000329322 -0.000142493 -4.22792e-06 0.000329322 1.27003e-19 0.000329322)
(0.000329322 -0.000142493 -4.22792e-06 0.000329322 8.80461e-21 0.000329322)
(0.000348901 -0.000152906 -4.60246e-06 0.000348901 1.42455e-19 0.000348901)
(0.000348901 -0.000152906 -4.60246e-06 0.000348901 1.05708e-20 0.000348901)
(0.00036934 -0.00016386 -5.00342e-06 0.00036934 1.5763e-19 0.00036934)
(0.00036934 -0.00016386 -5.00342e-06 0.00036934 1.29909e-20 0.00036934)
(0.00039065 -0.00017536 -5.43191e-06 0.00039065 1.77001e-19 0.00039065)
(0.00039065 -0.00017536 -5.43191e-06 0.00039065 1.38498e-20 0.00039065)
(0.00041284 -0.000187412 -5.88905e-06 0.00041284 1.98345e-19 0.00041284)
(0.00041284 -0.000187412 -5.88905e-06 0.00041284 1.40246e-20 0.00041284)
(0.000435916 -0.000200018 -6.37589e-06 0.000435916 2.21988e-19 0.000435916)
(0.000435916 -0.000200018 -6.37589e-06 0.000435916 1.65888e-20 0.000435916)
(0.00045988 -0.000213179 -6.89348e-06 0.00045988 2.49349e-19 0.00045988)
(0.00045988 -0.000213179 -6.89348e-06 0.00045988 2.04673e-20 0.00045988)
(0.000484734 -0.000226894 -7.44279e-06 0.000484734 2.77024e-19 0.000484734)
(0.000484734 -0.000226894 -7.44279e-06 0.000484734 2.39892e-20 0.000484734)
(0.000510473 -0.000241157 -8.02476e-06 0.000510473 3.05286e-19 0.000510473)
(0.000510473 -0.000241157 -8.02476e-06 0.000510473 2.75774e-20 0.000510473)
(0.000537094 -0.000255963 -8.64024e-06 0.000537094 3.37109e-19 0.000537094)
(0.000537094 -0.000255963 -8.64024e-06 0.000537094 3.14431e-20 0.000537094)
(0.000564586 -0.000271303 -9.29005e-06 0.000564586 3.71979e-19 0.000564586)
(0.000564586 -0.000271303 -9.29005e-06 0.000564586 3.60692e-20 0.000564586)
(0.000592938 -0.000287164 -9.9749e-06 0.000592938 4.06692e-19 0.000592938)
(0.000592938 -0.000287164 -9.9749e-06 0.000592938 4.15642e-20 0.000592938)
(0.000622135 -0.000303535 -1.06955e-05 0.000622135 4.3702e-19 0.000622135)
(0.000622135 -0.000303535 -1.06955e-05 0.000622135 5.03654e-20 0.000622135)
(0.000652157 -0.000320397 -1.14523e-05 0.000652157 4.67989e-19 0.000652157)
(0.000652157 -0.000320397 -1.14523e-05 0.000652157 6.04005e-20 0.000652157)
(0.000682983 -0.000337734 -1.22459e-05 0.000682983 5.12589e-19 0.000682983)
(0.000682983 -0.000337734 -1.22459e-05 0.000682983 6.716e-20 0.000682983)
(0.000714587 -0.000355524 -1.30766e-05 0.000714587 5.61756e-19 0.000714587)
(0.000714587 -0.000355524 -1.30766e-05 0.000714587 7.45934e-20 0.000714587)
(0.000746942 -0.000373744 -1.39447e-05 0.000746942 5.97673e-19 0.000746942)
(0.000746942 -0.000373744 -1.39447e-05 0.000746942 8.1077e-20 0.000746942)
(0.000780014 -0.00039237 -1.48505e-05 0.000780014 6.30572e-19 0.000780014)
(0.000780014 -0.00039237 -1.48505e-05 0.000780014 8.51659e-20 0.000780014)
(0.000813771 -0.000411375 -1.5794e-05 0.000813771 6.85833e-19 0.000813771)
(0.000813771 -0.000411375 -1.5794e-05 0.000813771 9.63497e-20 0.000813771)
(0.000848173 -0.00043073 -1.67752e-05 0.000848173 7.6015e-19 0.000848173)
(0.000848173 -0.00043073 -1.67752e-05 0.000848173 1.05572e-19 0.000848173)
(0.000883181 -0.000450407 -1.77941e-05 0.000883181 8.28605e-19 0.000883181)
(0.000883181 -0.000450407 -1.77941e-05 0.000883181 1.08577e-19 0.000883181)
(0.000918753 -0.000470373 -1.88505e-05 0.000918753 8.79694e-19 0.000918753)
(0.000918753 -0.000470373 -1.88505e-05 0.000918753 1.16078e-19 0.000918753)
(0.000954842 -0.000490596 -1.99442e-05 0.000954842 9.47912e-19 0.000954842)
(0.000954842 -0.000490596 -1.99442e-05 0.000954842 1.31535e-19 0.000954842)
(0.000991402 -0.000511044 -2.10746e-05 0.000991402 1.01691e-18 0.000991402)
(0.000991402 -0.000511044 -2.10746e-05 0.000991402 1.54079e-19 0.000991402)
(0.00102838 -0.000531682 -2.22415e-05 0.00102838 1.07889e-18 0.00102838)
(0.00102838 -0.000531682 -2.22415e-05 0.00102838 1.68519e-19 0.00102838)
(0.00106574 -0.000552475 -2.34443e-05 0.00106574 1.16168e-18 0.00106574)
(0.00106574 -0.000552475 -2.34443e-05 0.00106574 1.8621e-19 0.00106574)
(0.00110341 -0.000573391 -2.46824e-05 0.00110341 1.23204e-18 0.00110341)
(0.00110341 -0.000573391 -2.46824e-05 0.00110341 2.16506e-19 0.00110341)
(0.00114134 -0.000594392 -2.59552e-05 0.00114134 1.28743e-18 0.00114134)
(0.00114134 -0.000594392 -2.59552e-05 0.00114134 2.34677e-19 0.00114134)
(0.00117949 -0.000615445 -2.72619e-05 0.00117949 1.3628e-18 0.00117949)
(0.00117949 -0.000615445 -2.72619e-05 0.00117949 2.4015e-19 0.00117949)
(0.00121779 -0.000636516 -2.86016e-05 0.00121779 1.43914e-18 0.00121779)
(0.00121779 -0.000636516 -2.86016e-05 0.00121779 2.70138e-19 0.00121779)
(0.0012562 -0.000657569 -2.99737e-05 0.0012562 1.5262e-18 0.0012562)
(0.0012562 -0.000657569 -2.99737e-05 0.0012562 3.02453e-19 0.0012562)
(0.00129465 -0.000678572 -3.13771e-05 0.00129465 1.61063e-18 0.00129465)
(0.00129465 -0.000678572 -3.13771e-05 0.00129465 3.17021e-19 0.00129465)
(0.00133309 -0.000699492 -3.2811e-05 0.00133309 1.69323e-18 0.00133309)
(0.00133309 -0.000699492 -3.2811e-05 0.00133309 3.58027e-19 0.00133309)
(0.00137146 -0.000720297 -3.42744e-05 0.00137146 1.81497e-18 0.00137146)
(0.00137146 -0.000720297 -3.42744e-05 0.00137146 3.93868e-19 0.00137146)
(0.00140972 -0.000740955 -3.57662e-05 0.00140972 1.88409e-18 0.00140972)
(0.00140972 -0.000740955 -3.57662e-05 0.00140972 4.04065e-19 0.00140972)
(0.00144781 -0.000761438 -3.72855e-05 0.00144781 1.97372e-18 0.00144781)
(0.00144781 -0.000761438 -3.72855e-05 0.00144781 4.25693e-19 0.00144781)
(0.00148567 -0.000781716 -3.88311e-05 0.00148567 2.11073e-18 0.00148567)
(0.00148567 -0.000781716 -3.88311e-05 0.00148567 4.53088e-19 0.00148567)
(0.00152326 -0.000801762 -4.0402e-05 0.00152326 5.72618e-19 0.00152326)
(0.00152326 -0.000801762 -4.0402e-05 0.00152326 4.85433e-19 0.00152326)
(0.00156053 -0.00082155 -4.19972e-05 0.00156053 8.16245e-20 0.00156053)
(0.00156053 -0.00082155 -4.19972e-05 0.00156053 5.13562e-19 0.00156053)
(0.00159742 -0.000841055 -4.36155e-05 0.00159742 -8.14526e-20 0.00159742)
(0.00159742 -0.000841055 -4.36155e-05 0.00159742 5.5872e-19 0.00159742)
(0.0016339 -0.000860253 -4.52558e-05 0.0016339 -4.90881e-20 0.0016339)
(0.0016339 -0.000860253 -4.52558e-05 0.0016339 6.22399e-19 0.0016339)
(0.00166991 -0.000879123 -4.69171e-05 0.00166991 -4.02935e-20 0.00166991)
(0.00166991 -0.000879123 -4.69171e-05 0.00166991 6.77247e-19 0.00166991)
(0.00170541 -0.000897644 -4.85982e-05 0.00170541 -8.55762e-20 0.00170541)
(0.00170541 -0.000897644 -4.85982e-05 0.00170541 7.30746e-19 0.00170541)
(0.00174037 -0.000915797 -5.0298e-05 0.00174037 -9.05309e-20 0.00174037)
(0.00174037 -0.000915797 -5.0298e-05 0.00174037 7.50621e-19 0.00174037)
(0.00177475 -0.000933563 -5.20155e-05 0.00177475 -1.20683e-19 0.00177475)
(0.00177475 -0.000933563 -5.20155e-05 0.00177475 8.10501e-19 0.00177475)
(0.0018085 -0.000950927 -5.37496e-05 0.0018085 -1.59934e-19 0.0018085)
(0.0018085 -0.000950927 -5.37496e-05 0.0018085 9.21967e-19 0.0018085)
(0.00184159 -0.000967874 -5.54992e-05 0.00184159 -1.67177e-19 0.00184159)
(0.00184159 -0.000967874 -5.54992e-05 0.00184159 9.95428e-19 0.00184159)
(0.001874 -0.000984389 -5.72633e-05 0.001874 -2.0042e-19 0.001874)
(0.001874 -0.000984389 -5.72633e-05 0.001874 1.03782e-18 0.001874)
(0.00190569 -0.00100046 -5.90409e-05 0.00190569 -2.78934e-19 0.00190569)
(0.00190569 -0.00100046 -5.90409e-05 0.00190569 1.10472e-18 0.00190569)
(0.00193663 -0.00101608 -6.08309e-05 0.00193663 -3.90522e-19 0.00193663)
(0.00193663 -0.00101608 -6.08309e-05 0.00193663 1.1934e-18 0.00193663)
(0.00196679 -0.00103123 -6.26324e-05 0.00196679 -4.37108e-19 0.00196679)
(0.00196679 -0.00103123 -6.26324e-05 0.00196679 1.27619e-18 0.00196679)
(0.00199616 -0.00104592 -6.44444e-05 0.00199616 -4.56867e-19 0.00199616)
(0.00199616 -0.00104592 -6.44444e-05 0.00199616 1.34046e-18 0.00199616)
(0.00202472 -0.00106012 -6.62659e-05 0.00202472 -4.41905e-19 0.00202472)
(0.00202472 -0.00106012 -6.62659e-05 0.00202472 1.41787e-18 0.00202472)
(0.00205243 -0.00107383 -6.8096e-05 0.00205243 -4.20778e-19 0.00205243)
(0.00205243 -0.00107383 -6.8096e-05 0.00205243 1.49516e-18 0.00205243)
(0.00207929 -0.00108706 -6.99338e-05 0.00207929 -3.91333e-19 0.00207929)
(0.00207929 -0.00108706 -6.99338e-05 0.00207929 1.57473e-18 0.00207929)
(0.00210528 -0.00109979 -7.17784e-05 0.00210528 -3.62172e-19 0.00210528)
(0.00210528 -0.00109979 -7.17784e-05 0.00210528 1.69642e-18 0.00210528)
(0.00213038 -0.00111201 -7.3629e-05 0.00213038 -3.18678e-19 0.00213038)
(0.00213038 -0.00111201 -7.3629e-05 0.00213038 1.77731e-18 0.00213038)
(0.00215459 -0.00112374 -7.54846e-05 0.00215459 -4.24537e-19 0.00215459)
(0.00215459 -0.00112374 -7.54846e-05 0.00215459 1.93407e-18 0.00215459)
(0.00217789 -0.00113497 -7.73445e-05 0.00217789 -5.20465e-19 0.00217789)
(0.00217789 -0.00113497 -7.73445e-05 0.00217789 2.0455e-18 0.00217789)
(0.00220028 -0.00114569 -7.92079e-05 0.00220028 -4.23562e-19 0.00220028)
(0.00220028 -0.00114569 -7.92079e-05 0.00220028 2.147e-18 0.00220028)
(0.00222175 -0.00115591 -8.10739e-05 0.00222175 -3.20809e-19 0.00222175)
(0.00222175 -0.00115591 -8.10739e-05 0.00222175 2.16188e-18 0.00222175)
(0.00224229 -0.00116563 -8.29419e-05 0.00224229 -1.86134e-19 0.00224229)
(0.00224229 -0.00116563 -8.29419e-05 0.00224229 2.35105e-18 0.00224229)
(0.00226191 -0.00117485 -8.4811e-05 0.00226191 -1.66652e-19 0.00226191)
(0.00226191 -0.00117485 -8.4811e-05 0.00226191 2.52046e-18 0.00226191)
(0.00228059 -0.00118357 -8.66806e-05 0.00228059 -3.73904e-19 0.00228059)
(0.00228059 -0.00118357 -8.66806e-05 0.00228059 2.594e-18 0.00228059)
(0.00229834 -0.0011918 -8.855e-05 0.00229834 -3.42168e-19 0.00229834)
(0.00229834 -0.0011918 -8.855e-05 0.00229834 2.68481e-18 0.00229834)
(0.00231517 -0.00119953 -9.04185e-05 0.00231517 -1.75374e-19 0.00231517)
(0.00231517 -0.00119953 -9.04185e-05 0.00231517 2.85724e-18 0.00231517)
(0.00233106 -0.00120678 -9.22854e-05 0.00233106 -3.38741e-19 0.00233106)
(0.00233106 -0.00120678 -9.22854e-05 0.00233106 3.03432e-18 0.00233106)
(0.00234603 -0.00121354 -9.41501e-05 0.00234603 -4.87188e-19 0.00234603)
(0.00234603 -0.00121354 -9.41501e-05 0.00234603 3.17534e-18 0.00234603)
(0.00236008 -0.00121983 -9.60119e-05 0.00236008 -5.42789e-19 0.00236008)
(0.00236008 -0.00121983 -9.60119e-05 0.00236008 3.30086e-18 0.00236008)
(0.00237322 -0.00122564 -9.78703e-05 0.00237322 -6.52425e-19 0.00237322)
(0.00237322 -0.00122564 -9.78703e-05 0.00237322 3.42531e-18 0.00237322)
(0.00238545 -0.00123098 -9.97247e-05 0.00238545 -5.52452e-19 0.00238545)
(0.00238545 -0.00123098 -9.97247e-05 0.00238545 3.58686e-18 0.00238545)
(0.00239677 -0.00123586 -0.000101574 0.00239677 -5.68766e-19 0.00239677)
(0.00239677 -0.00123586 -0.000101574 0.00239677 3.78774e-18 0.00239677)
(0.00240721 -0.00124029 -0.000103419 0.00240721 -8.23976e-19 0.00240721)
(0.00240721 -0.00124029 -0.000103419 0.00240721 3.9412e-18 0.00240721)
(0.00241676 -0.00124427 -0.000105258 0.00241676 -8.55725e-19 0.00241676)
(0.00241676 -0.00124427 -0.000105258 0.00241676 4.12023e-18 0.00241676)
(0.00242543 -0.0012478 -0.000107091 0.00242543 -1.04465e-18 0.00242543)
(0.00242543 -0.0012478 -0.000107091 0.00242543 4.3792e-18 0.00242543)
(0.00243324 -0.0012509 -0.000108916 0.00243324 -1.35113e-18 0.00243324)
(0.00243324 -0.0012509 -0.000108916 0.00243324 4.5607e-18 0.00243324)
(0.0024402 -0.00125358 -0.000110735 0.0024402 -1.46515e-18 0.0024402)
(0.0024402 -0.00125358 -0.000110735 0.0024402 4.77437e-18 0.0024402)
(0.00244632 -0.00125583 -0.000112546 0.00244632 -1.52437e-18 0.00244632)
(0.00244632 -0.00125583 -0.000112546 0.00244632 5.05028e-18 0.00244632)
(0.0024516 -0.00125767 -0.000114349 0.0024516 -1.35872e-18 0.0024516)
(0.0024516 -0.00125767 -0.000114349 0.0024516 5.14368e-18 0.0024516)
(0.00245607 -0.0012591 -0.000116143 0.00245607 -1.06718e-18 0.00245607)
(0.00245607 -0.0012591 -0.000116143 0.00245607 5.22015e-18 0.00245607)
(0.00245974 -0.00126014 -0.000117928 0.00245974 -9.39271e-19 0.00245974)
(0.00245974 -0.00126014 -0.000117928 0.00245974 5.50613e-18 0.00245974)
(0.00246262 -0.00126078 -0.000119703 0.00246262 -9.54853e-19 0.00246262)
(0.00246262 -0.00126078 -0.000119703 0.00246262 5.85717e-18 0.00246262)