/*--------------------------------*- C++ -*----------------------------------*\
| =========                 |                                                 |
| \\      /  F ield         | OpenFOAM: The Open Source CFD Toolbox           |
|  \\    /   O peration     | Version:  2012                                  |
|   \\  /    A nd           | Website:  www.openfoam.com                      |
|    \\/     M anipulation  |                                                 |
\*---------------------------------------------------------------------------*/
FoamFile
{
    version     2.0;
    format      ascii;
    class       volScalarField;
    location    "10900";
    object      p;
}
// * * * * * * * * * * * * * * * * * * * * * * * * * * * * * * * * * * * * * //

dimensions      [0 2 -2 0 0 0 0];


internalField   nonuniform List<scalar> 
2560
(
-1.48961e-08
-0.870325
-3.64215e-05
-0.870353
-4.09066e-05
-0.870358
-3.49272e-05
-0.870361
-3.15164e-05
-0.870363
-3.06296e-05
-0.870364
-3.00161e-05
-0.870365
-2.97959e-05
-0.870365
-2.91608e-05
-0.870365
-2.90426e-05
-0.870366
-2.8302e-05
-0.870366
-2.83209e-05
-0.870367
-3.06628e-05
-0.870366
-4.21121e-05
-0.869838
-8.55544e-05
-0.870483
-0.000179098
-0.869348
-0.000356937
-0.871015
-0.000574849
-0.871031
-0.000825079
-0.871868
-0.00106874
-0.87189
-0.00133842
-0.872814
-0.00158798
-0.872831
-0.00185879
-0.873817
-0.00210982
-0.87145
-0.00245418
-0.875081
-0.00285461
-0.872842
-0.00343839
-0.876977
-0.00407943
-0.877044
-0.00488744
-0.87946
-0.00565551
-0.879593
-0.00653883
-0.882218
-0.00727195
-0.882342
-0.00809658
-0.884948
-0.00868704
-0.885006
-0.00943143
-0.887516
-0.00994924
-0.883194
-0.0108141
-0.890352
-0.0115209
-0.870783
-0.0128003
-0.894597
-0.0139342
-0.869124
-0.0157824
-0.900935
-0.0173863
-0.881765
-0.0197308
-0.909125
-0.0216415
-0.903068
-0.0242714
-0.918318
-0.0262847
-0.917959
-0.0290679
-0.927947
-0.0311202
-0.925702
-0.0341287
-0.938064
-0.0364012
-0.870515
-0.0399862
-0.951108
-0.0433901
-0.936234
-0.0494097
-0.968365
-0.0574753
-0.969928
-0.0713623
-0.99849
-0.0914795
-1.00494
-0.121422
-1.05726
-0.160746
-1.07239
-0.209941
-1.15528
-0.265348
-1.17906
-0.322705
-1.27845
-0.376205
-1.3036
-0.419542
-1.38642
-0.449514
-1.40204
-0.462327
-1.44065
-0.460658
-1.43897
-0.444273
-1.39885
-0.419949
-1.38757
-0.388434
-1.32779
-0.356608
-1.31417
-0.323851
-1.25515
-0.294962
-1.243
-0.267852
-0.264068
-0.245455
-0.250998
-0.225169
-0.221647
-0.209009
-0.212453
-0.194604
-0.191239
-0.183587
-0.184841
-0.173963
-0.170681
-0.167063
-0.166527
-0.161205
-0.157954
-0.157459
-0.155536
-0.154358
-0.151104
-0.15277
-0.149921
-0.151509
-0.148254
-0.151375
-0.147902
-0.151498
-0.148227
-0.152685
-0.149518
-0.154363
-0.151108
-0.157335
-0.15417
-0.161219
-0.157982
-0.166724
-0.163564
-0.173501
-0.170283
-0.182041
-0.17889
-0.191891
-0.188694
-0.203266
-0.200126
-0.215577
-0.212401
-0.228799
-0.225673
-0.242299
-0.239144
-0.255964
-0.252853
-0.269247
-0.266114
-0.282099
-0.279004
-0.294145
-0.291034
-0.305466
-0.302387
-0.315877
-0.312787
-0.325554
-0.322492
-0.334435
-0.331364
-0.342723
-0.339678
-0.350404
-0.347353
-0.357666
-0.354637
-0.364502
-0.36147
-0.371082
-0.368071
-0.377423
-0.374412
-0.383691
-0.380698
-0.389933
-0.386942
-0.396339
-0.393367
-0.402972
-0.400004
-0.409997
-0.407047
-0.417482
-0.414539
-0.425569
-0.422644
-0.434324
-0.431409
-0.443892
-0.440996
-0.454376
-0.451491
-0.465977
-0.463112
-0.478889
-0.476037
-0.49341
-0.490578
-0.50984
-0.507023
-0.528541
-0.525743
-0.549845
-0.547063
-0.574064
-0.571301
-0.601388
-0.598641
-0.631898
-0.62917
-0.66546
-0.662748
-0.701748
-0.699054
-0.740193
-0.737515
-0.78005
-0.77739
-0.820399
-0.817754
-0.86025
-0.857623
-0.898597
-0.895985
-0.934536
-0.93194
-0.96731
-0.96473
-0.996393
-0.99383
-1.02149
-1.01894
-1.04256
-1.04003
-1.05975
-1.05723
-1.0734
-1.0709
-1.08395
-1.08146
-1.09187
-1.0894
-1.09768
-1.09523
-1.10183
-1.09939
-1.10473
-1.1023
-1.10671
-1.10429
-1.10803
-1.10563
-1.10891
-1.10652
-1.10947
-1.1071
-1.10983
-1.10747
-1.11006
-1.10771
-1.1102
-1.10786
-1.11028
-1.10795
-1.11031
-1.108
-1.11032
-1.10802
-1.11029
-1.108
-1.11025
-1.10797
-1.11019
-1.10792
-1.11012
-1.10787
-1.11005
-1.1078
-1.10996
-1.10773
-1.10987
-1.10765
-1.10978
-1.10756
-1.10968
-1.10748
-1.10959
-1.1074
-1.10951
-1.10732
-1.10943
-1.10725
-1.10936
-1.10718
-1.10929
-1.10712
-1.10924
-1.10707
-1.10919
-1.10702
-1.10915
-1.10699
-1.10912
-1.10695
-1.1091
-1.10693
-1.10908
-1.10691
-1.10906
-1.1069
-1.10905
-1.10689
-1.10904
-1.10688
-1.10902
-1.10688
-1.10901
-1.10687
-1.109
-1.10686
-1.10898
-1.10684
-1.10895
-1.10682
-1.10892
-1.10678
-1.10886
-1.10673
-1.10879
-1.10666
-1.10868
-1.10655
-1.10853
-1.10641
-1.10833
-1.10621
-1.10806
-1.10595
-1.1077
-1.1056
-1.10723
-1.10515
-1.10664
-1.10457
-1.1059
-1.10383
-1.10497
-1.10292
-1.10384
-1.10181
-1.10247
-1.10046
-1.10085
-1.09885
-1.09894
-1.09697
-1.09674
-1.09478
-1.09423
-1.0923
-1.09141
-1.0895
-1.08829
-1.0864
-1.08488
-1.08301
-1.0812
-1.07935
-1.07728
-1.07545
-1.07315
-1.07134
-1.06882
-1.06704
-1.06434
-1.06258
-1.05973
-1.05799
-1.05499
-1.05327
-1.05013
-1.04843
-1.04516
-1.04348
-1.04007
-1.0384
-1.03484
-1.03319
-1.02946
-1.02782
-1.02392
-1.02229
-1.01821
-1.01659
-1.01233
-1.01072
-1.00628
-1.00468
-1.00009
-0.998488
-0.99376
-0.992165
-0.987337
-0.985743
-0.980842
-0.979248
-0.974314
-0.972722
-0.967777
-0.966185
-0.961264
-0.959674
-0.954792
-0.953202
-0.948377
-0.946787
-0.942021
-0.940433
-0.93573
-0.934145
-0.929494
-0.927913
-0.92331
-0.921736
-0.917164
-0.915597
-0.911053
-0.909494
-0.904957
-0.903408
-0.89888
-0.897341
-0.892807
-0.891279
-0.886743
-0.885226
-0.880672
-0.879168
-0.874605
-0.873112
-0.868523
-0.867042
-0.862436
-0.860966
-0.856323
-0.854865
-0.850191
-0.848744
-0.844015
-0.842579
-0.837802
-0.836377
-0.831526
-0.830112
-0.825194
-0.823791
-0.818779
-0.817388
-0.812296
-0.810917
-0.805718
-0.804352
-0.799065
-0.797711
-0.792308
-0.790968
-0.785475
-0.784149
-0.778534
-0.777223
-0.771518
-0.770223
-0.764396
-0.763117
-0.7572
-0.755938
-0.749902
-0.748657
-0.74254
-0.741313
-0.735081
-0.733873
-0.727572
-0.726383
-0.719982
-0.718811
-0.712362
-0.71121
-0.70468
-0.703548
-0.696992
-0.695878
-0.689261
-0.688167
-0.681548
-0.680472
-0.673805
-0.672749
-0.666093
-0.665055
-0.658356
-0.657338
-0.650649
-0.649649
-0.642911
-0.64193
-0.635196
-0.634233
-0.627434
-0.62649
-0.619688
-0.618762
-0.611887
-0.61098
-0.604104
-0.603214
-0.596276
-0.595405
-0.588488
-0.587634
-0.580684
-0.579849
-0.572962
-0.572143
-0.565271
-0.56447
-0.557716
-0.556931
-0.550244
-0.549477
-0.54296
-0.542209
-0.535801
-0.535069
-0.52887
-0.528154
-0.522094
-0.521398
-0.515565
-0.514885
-0.509198
-0.50854
-0.503081
-0.50244
-0.497119
-0.496502
-0.491393
-0.490793
-0.4858
-0.485228
-0.48042
-0.479865
-0.475147
-0.474623
-0.470058
-0.469551
-0.465046
-0.464573
-0.460193
-0.459737
-0.455399
-0.454982
-0.450759
-0.450358
-0.446187
-0.44583
-0.4418
-0.441459
-0.437537
-0.437246
-0.43354
-0.433262
-0.429773
-0.429556
-0.426403
-0.426197
-0.423418
-0.42326
-0.420971
-0.420822
-0.419067
-0.418953
-0.417815
-0.417708
-0.417222
-0.417131
-0.873388
-0.00058664
-0.873416
-0.000623036
-0.873422
-0.000627516
-0.873424
-0.000621535
-0.873427
-0.000618125
-0.873428
-0.000617263
-0.873428
-0.000616676
-0.873429
-0.000616532
-0.873429
-0.000616006
-0.87343
-0.000616057
-0.87343
-0.00061539
-0.873431
-0.000615564
-0.873429
-0.000618253
-0.872902
-0.000629818
-0.873547
-0.00067305
-0.872412
-0.000766421
-0.874078
-0.000944176
-0.874094
-0.00116208
-0.874931
-0.00141234
-0.874953
-0.00165604
-0.875878
-0.00192575
-0.875894
-0.00217532
-0.87688
-0.00244612
-0.874513
-0.00269712
-0.878145
-0.00304144
-0.875905
-0.00344182
-0.88004
-0.00402555
-0.880108
-0.00466653
-0.882524
-0.0054745
-0.882656
-0.00624252
-0.885281
-0.00712579
-0.885405
-0.00785887
-0.888011
-0.00868346
-0.888069
-0.00927388
-0.890579
-0.0100182
-0.886257
-0.010536
-0.893416
-0.0114008
-0.873847
-0.0121076
-0.897661
-0.013387
-0.872187
-0.0145209
-0.903998
-0.0163691
-0.884828
-0.017973
-0.912188
-0.0203175
-0.906131
-0.0222281
-0.921381
-0.024858
-0.921022
-0.0268713
-0.93101
-0.0296545
-0.928766
-0.0317068
-0.941127
-0.0347153
-0.873578
-0.0369877
-0.954171
-0.0405728
-0.939297
-0.0439766
-0.971428
-0.0499962
-0.972991
-0.0580618
-1.00155
-0.0719488
-1.008
-0.0920659
-1.06032
-0.122009
-1.07546
-0.161333
-1.15834
-0.210527
-1.18213
-0.265935
-1.28151
-0.323291
-1.30666
-0.376792
-1.38949
-0.420129
-1.4051
-0.450101
-1.44372
-0.462913
-1.44203
-0.461244
-1.40191
-0.444859
-1.39063
-0.420535
-1.33085
-0.38902
-1.31723
-0.357195
-1.25821
-0.324437
-1.24607
-0.295548
-0.26713
-0.268438
-0.25406
-0.246042
-0.224709
-0.225755
-0.215515
-0.209595
-0.194301
-0.19519
-0.187903
-0.184173
-0.173743
-0.174549
-0.169589
-0.167649
-0.161016
-0.161791
-0.158598
-0.158045
-0.154167
-0.154944
-0.152983
-0.153356
-0.151316
-0.152095
-0.150964
-0.151961
-0.151289
-0.152084
-0.15258
-0.153271
-0.15417
-0.154949
-0.157232
-0.157921
-0.161044
-0.161805
-0.166626
-0.16731
-0.173345
-0.174087
-0.181952
-0.182627
-0.191756
-0.192477
-0.203188
-0.203852
-0.215463
-0.216163
-0.228735
-0.229385
-0.242207
-0.242885
-0.255915
-0.25655
-0.269176
-0.269833
-0.282066
-0.282685
-0.294096
-0.294731
-0.305449
-0.306051
-0.315849
-0.316463
-0.325555
-0.32614
-0.334426
-0.33502
-0.34274
-0.343309
-0.350415
-0.350989
-0.357699
-0.358251
-0.364532
-0.365087
-0.371133
-0.371668
-0.377474
-0.378009
-0.38376
-0.384276
-0.390004
-0.390519
-0.396429
-0.396925
-0.403067
-0.403558
-0.41011
-0.410583
-0.417601
-0.418067
-0.425707
-0.426154
-0.434471
-0.434909
-0.444058
-0.444478
-0.454553
-0.454961
-0.466175
-0.466563
-0.4791
-0.479474
-0.493641
-0.493996
-0.510085
-0.510425
-0.528806
-0.529126
-0.550126
-0.55043
-0.574364
-0.574649
-0.601704
-0.601973
-0.632233
-0.632483
-0.665811
-0.666045
-0.702117
-0.702333
-0.740577
-0.740777
-0.780453
-0.780635
-0.820817
-0.820983
-0.860686
-0.860836
-0.899048
-0.899181
-0.935004
-0.935121
-0.967793
-0.967894
-0.996894
-0.996979
-1.02201
-1.02207
-1.04309
-1.04314
-1.0603
-1.06033
-1.07396
-1.07399
-1.08452
-1.08453
-1.09247
-1.09246
-1.09829
-1.09827
-1.10246
-1.10242
-1.10537
-1.10531
-1.10736
-1.10729
-1.1087
-1.10862
-1.10958
-1.10949
-1.11016
-1.11006
-1.11054
-1.11042
-1.11078
-1.11064
-1.11093
-1.11078
-1.11102
-1.11086
-1.11106
-1.1109
-1.11108
-1.1109
-1.11107
-1.11087
-1.11104
-1.11083
-1.11099
-1.11078
-1.11093
-1.11071
-1.11087
-1.11063
-1.11079
-1.11054
-1.11071
-1.11045
-1.11063
-1.11036
-1.11055
-1.11027
-1.11047
-1.11018
-1.11039
-1.11009
-1.11031
-1.11001
-1.11025
-1.10994
-1.11019
-1.10987
-1.11014
-1.10982
-1.11009
-1.10977
-1.11005
-1.10974
-1.11002
-1.1097
-1.11
-1.10968
-1.10998
-1.10966
-1.10997
-1.10964
-1.10996
-1.10963
-1.10995
-1.10962
-1.10995
-1.10961
-1.10994
-1.10959
-1.10993
-1.10958
-1.10991
-1.10956
-1.10989
-1.10954
-1.10985
-1.1095
-1.1098
-1.10945
-1.10972
-1.10937
-1.10962
-1.10926
-1.10948
-1.10911
-1.10928
-1.10891
-1.10902
-1.10863
-1.10867
-1.10828
-1.10822
-1.10781
-1.10764
-1.10722
-1.1069
-1.10648
-1.106
-1.10555
-1.10488
-1.10442
-1.10353
-1.10306
-1.10193
-1.10143
-1.10004
-1.09952
-1.09786
-1.09732
-1.09537
-1.09481
-1.09257
-1.09199
-1.08948
-1.08887
-1.08609
-1.08545
-1.08243
-1.08178
-1.07853
-1.07785
-1.07442
-1.07372
-1.07012
-1.06939
-1.06567
-1.06491
-1.06107
-1.06029
-1.05636
-1.05556
-1.05152
-1.05069
-1.04657
-1.04573
-1.04149
-1.04063
-1.03628
-1.0354
-1.03091
-1.03001
-1.02539
-1.02448
-1.01968
-1.01876
-1.01382
-1.01289
-1.00777
-1.00683
-1.00159
-1.00065
-0.995253
-0.99431
-0.988844
-0.9879
-0.982336
-0.981392
-0.975824
-0.974879
-0.969272
-0.968325
-0.962778
-0.961829
-0.956287
-0.955339
-0.949892
-0.948944
-0.943518
-0.942566
-0.937252
-0.936297
-0.930997
-0.930036
-0.924845
-0.923878
-0.91868
-0.917703
-0.912608
-0.911621
-0.906491
-0.905491
-0.900461
-0.899448
-0.894364
-0.893335
-0.888352
-0.887309
-0.882253
-0.881194
-0.876245
-0.87517
-0.870128
-0.869037
-0.864107
-0.863001
-0.857952
-0.856829
-0.851894
-0.850756
-0.845666
-0.844511
-0.839537
-0.838367
-0.833199
-0.832012
-0.826962
-0.825758
-0.820475
-0.819254
-0.814101
-0.812861
-0.807438
-0.806179
-0.800909
-0.799629
-0.794055
-0.792753
-0.787363
-0.786038
-0.780312
-0.778961
-0.773457
-0.772079
-0.766208
-0.764802
-0.759195
-0.757759
-0.751751
-0.750284
-0.744596
-0.743095
-0.73697
-0.735436
-0.729694
-0.728124
-0.721912
-0.720306
-0.714554
-0.712909
-0.706653
-0.70497
-0.699258
-0.697534
-0.691277
-0.689515
-0.683891
-0.682085
-0.675863
-0.674018
-0.668516
-0.666625
-0.660456
-0.658526
-0.653156
-0.651178
-0.645053
-0.643034
-0.637789
-0.635719
-0.629617
-0.627506
-0.622372
-0.620207
-0.61411
-0.611904
-0.606883
-0.604619
-0.598538
-0.596234
-0.591364
-0.588999
-0.582983
-0.58058
-0.575939
-0.57347
-0.567606
-0.5651
-0.560798
-0.558221
-0.552613
-0.550002
-0.546153
-0.543462
-0.538205
-0.535482
-0.532181
-0.529368
-0.524535
-0.521692
-0.519003
-0.516056
-0.511681
-0.508706
-0.506659
-0.503561
-0.499649
-0.496527
-0.495125
-0.491856
-0.488384
-0.485099
-0.484323
-0.480861
-0.477793
-0.474325
-0.47415
-0.470467
-0.467763
-0.464093
-0.464494
-0.460562
-0.458194
-0.454303
-0.455289
-0.451076
-0.449069
-0.444937
-0.446585
-0.442053
-0.440516
-0.436122
-0.438608
-0.43371
-0.409811
-0.42818
-0.408144
-0.426299
-0.403326
-0.421861
-0.402085
-0.42058
-0.39876
-0.417625
-0.398093
-0.417096
-0.396551
-0.416037
-0.417223
-0.417131
-0.417816
-0.417706
-0.419069
-0.418951
-0.420973
-0.42082
-0.423422
-0.423257
-0.426405
-0.426192
-0.429779
-0.429553
-0.433543
-0.433256
-0.437541
-0.43724
-0.441806
-0.441453
-0.446194
-0.445825
-0.450766
-0.450351
-0.455407
-0.454975
-0.460202
-0.459731
-0.465056
-0.464566
-0.470067
-0.469542
-0.475156
-0.474613
-0.48043
-0.479855
-0.485809
-0.485216
-0.491404
-0.490783
-0.49713
-0.496491
-0.503093
-0.502429
-0.509209
-0.508528
-0.515575
-0.514871
-0.522104
-0.521383
-0.528885
-0.528142
-0.535812
-0.535053
-0.542975
-0.542196
-0.550258
-0.549463
-0.557727
-0.556913
-0.565287
-0.564456
-0.572978
-0.572127
-0.580704
-0.579836
-0.588504
-0.587616
-0.596298
-0.595393
-0.604119
-0.603194
-0.611903
-0.610959
-0.619705
-0.618742
-0.62745
-0.626468
-0.635216
-0.634214
-0.642929
-0.641908
-0.65067
-0.649629
-0.658376
-0.657316
-0.666115
-0.665034
-0.673824
-0.672724
-0.681571
-0.68045
-0.689281
-0.688141
-0.697013
-0.695852
-0.704701
-0.70352
-0.712386
-0.711184
-0.720002
-0.718781
-0.7276
-0.726358
-0.735108
-0.733846
-0.742561
-0.74128
-0.749929
-0.748629
-0.757226
-0.755907
-0.764426
-0.763089
-0.771545
-0.770191
-0.778561
-0.77719
-0.785499
-0.784112
-0.792343
-0.790941
-0.799095
-0.797678
-0.805753
-0.804322
-0.812328
-0.810884
-0.818815
-0.817358
-0.825223
-0.823754
-0.831553
-0.830071
-0.837838
-0.836344
-0.844048
-0.842543
-0.85023
-0.848713
-0.856354
-0.854825
-0.862465
-0.860923
-0.868557
-0.867003
-0.874634
-0.873068
-0.880703
-0.879124
-0.886775
-0.885184
-0.892845
-0.891241
-0.898921
-0.897305
-0.905001
-0.903374
-0.911094
-0.909456
-0.917202
-0.915555
-0.92335
-0.921695
-0.92953
-0.927868
-0.935766
-0.934099
-0.942063
-0.940393
-0.948412
-0.94674
-0.954824
-0.953151
-0.961307
-0.959633
-0.967817
-0.966141
-0.974345
-0.972668
-0.980881
-0.979202
-0.987374
-0.985695
-0.993794
-0.992113
-1.00012
-0.998437
-1.00633
-1.00464
-1.01238
-1.01068
-1.01825
-1.01654
-1.02397
-1.02225
-1.0295
-1.02778
-1.03488
-1.03314
-1.04011
-1.03835
-1.04521
-1.04344
-1.05018
-1.04838
-1.05504
-1.05322
-1.05978
-1.05794
-1.0644
-1.06253
-1.06887
-1.06698
-1.0732
-1.07129
-1.07733
-1.07539
-1.08125
-1.07929
-1.08493
-1.08295
-1.08835
-1.08634
-1.09146
-1.08943
-1.09429
-1.09223
-1.0968
-1.09472
-1.099
-1.0969
-1.10091
-1.09879
-1.10253
-1.10039
-1.1039
-1.10174
-1.10503
-1.10286
-1.10596
-1.10377
-1.1067
-1.1045
-1.1073
-1.10508
-1.10776
-1.10553
-1.10812
-1.10588
-1.10839
-1.10614
-1.10859
-1.10633
-1.10874
-1.10648
-1.10885
-1.10658
-1.10893
-1.10666
-1.10898
-1.10671
-1.10902
-1.10675
-1.10905
-1.10677
-1.10907
-1.10678
-1.10908
-1.10679
-1.10909
-1.1068
-1.1091
-1.10681
-1.10912
-1.10681
-1.10913
-1.10682
-1.10915
-1.10684
-1.10917
-1.10685
-1.10919
-1.10688
-1.10922
-1.10691
-1.10926
-1.10694
-1.10931
-1.10699
-1.10937
-1.10704
-1.10943
-1.1071
-1.1095
-1.10717
-1.10958
-1.10723
-1.10967
-1.10732
-1.10976
-1.10739
-1.10985
-1.10748
-1.10994
-1.10756
-1.11004
-1.10764
-1.11012
-1.10771
-1.1102
-1.10778
-1.11027
-1.10783
-1.11033
-1.10788
-1.11037
-1.10791
-1.1104
-1.10793
-1.11039
-1.10791
-1.11036
-1.10786
-1.11028
-1.10777
-1.11015
-1.10762
-1.10991
-1.10737
-1.10956
-1.10701
-1.10899
-1.10642
-1.10813
-1.10555
-1.10679
-1.10419
-1.10483
-1.10222
-1.1019
-1.09927
-1.09779
-1.09514
-1.09195
-1.08928
-1.08404
-1.08136
-1.07349
-1.0708
-1.05982
-1.05711
-1.04257
-1.03984
-1.02158
-1.01883
-0.996591
-0.993825
-0.96729
-0.964506
-0.934605
-0.931803
-0.89867
-0.895849
-0.860422
-0.857584
-0.820557
-0.8177
-0.780321
-0.777447
-0.740457
-0.737562
-0.701769
-0.698857
-0.665526
-0.662594
-0.63215
-0.6292
-0.601422
-0.598451
-0.574047
-0.571058
-0.549994
-0.546984
-0.528714
-0.525687
-0.510002
-0.506953
-0.493485
-0.490418
-0.479036
-0.475948
-0.46612
-0.463016
-0.454511
-0.451387
-0.44397
-0.440831
-0.434467
-0.431309
-0.425724
-0.422553
-0.41756
-0.41437
-0.410153
-0.406952
-0.403124
-0.399905
-0.396452
-0.393225
-0.390025
-0.386779
-0.383815
-0.380564
-0.377511
-0.374241
-0.371195
-0.367921
-0.364657
-0.361363
-0.357749
-0.354453
-0.350527
-0.34721
-0.342879
-0.339562
-0.334517
-0.331176
-0.325682
-0.322343
-0.316077
-0.312712
-0.305584
-0.302223
-0.294186
-0.290797
-0.282264
-0.278881
-0.269366
-0.265951
-0.256059
-0.252654
-0.24239
-0.238948
-0.228931
-0.225505
-0.215766
-0.2123
-0.203352
-0.199906
-0.192094
-0.188602
-0.182217
-0.178753
-0.173666
-0.170151
-0.166922
-0.163442
-0.161347
-0.157811
-0.157457
-0.153966
-0.154479
-0.150925
-0.152828
-0.14933
-0.151638
-0.148074
-0.151527
-0.147753
-0.151647
-0.148102
-0.152916
-0.14977
-0.154499
-0.150946
-0.157625
-0.155344
-0.161328
-0.157753
-0.167257
-0.166397
-0.174153
-0.170542
-0.183744
-0.184724
-0.194828
-0.191161
-0.209262
-0.211678
-0.225223
-0.221424
-0.245617
-1.20194
-0.267893
-1.21078
-0.295187
-1.261
-0.324086
-1.27258
-0.356416
-1.33197
-0.388336
-1.34544
-0.420344
-1.40618
-0.44417
-1.41739
-0.460887
-1.45765
-0.462561
-1.45936
-0.449504
-1.42086
-0.420091
-1.40519
-0.375745
-1.3217
-0.323238
-1.29693
-0.266171
-1.19705
-0.210242
-1.17325
-0.161266
-1.08999
-0.121622
-1.07488
-0.0918246
-1.02231
-0.0715922
-1.01591
-0.0577589
-0.987142
-0.0496734
-0.985578
-0.0435047
-0.939593
-0.0401562
-0.967978
-0.0365946
-0.894067
-0.0343703
-0.955144
-0.0313055
-0.940108
-0.0292253
-0.944895
-0.0264949
-0.935341
-0.0244649
-0.935328
-0.0218258
-0.920325
-0.0199113
-0.926138
-0.0175814
-0.900315
-0.0159857
-0.917974
-0.0141057
-0.884483
-0.0129916
-0.911588
-0.0117051
-0.888682
-0.0110176
-0.907367
-0.0101288
-0.899604
-0.00963259
-0.904514
-0.00887664
-0.902005
-0.00828829
-0.901943
-0.00746015
-0.899352
-0.00674224
-0.89923
-0.0058682
-0.896622
-0.00509207
-0.896481
-0.00427004
-0.894066
-0.00363469
-0.893998
-0.00305095
-0.890021
-0.0026429
-0.892098
-0.00230628
-0.888486
-0.0020549
-0.890837
-0.00178233
-0.889845
-0.00153793
-0.88983
-0.00127226
-0.888902
-0.00102639
-0.888877
-0.000772965
-0.888034
-0.000558619
-0.888019
-0.000382005
-0.886358
-0.000286085
-0.887482
-0.000242267
-0.886819
-0.000230285
-0.887363
-0.000227834
-0.887364
-0.000227821
-0.887363
-0.000228646
-0.887363
-0.000228769
-0.887362
-0.0002295
-0.887362
-0.000229798
-0.887361
-0.000230602
-0.887361
-0.000231594
-0.88736
-0.000235322
-0.887357
-0.000241485
-0.887354
-0.000236877
-0.887349
-0.000200119
-0.887321
-0.396551
-0.416038
-0.398092
-0.417096
-0.398759
-0.417625
-0.402085
-0.42058
-0.403325
-0.421863
-0.408145
-0.426298
-0.409812
-0.428184
-0.438576
-0.43371
-0.440483
-0.436122
-0.446555
-0.442054
-0.449039
-0.44494
-0.455258
-0.451077
-0.458163
-0.454305
-0.464464
-0.460565
-0.467732
-0.464097
-0.474118
-0.47047
-0.47776
-0.474327
-0.484291
-0.480864
-0.48835
-0.485101
-0.495094
-0.491861
-0.499616
-0.496531
-0.506627
-0.503566
-0.511647
-0.50871
-0.518968
-0.516059
-0.5245
-0.521695
-0.532149
-0.529375
-0.538169
-0.535486
-0.54612
-0.543469
-0.552578
-0.550008
-0.56076
-0.558224
-0.567572
-0.565108
-0.575904
-0.573478
-0.582951
-0.580591
-0.591328
-0.589006
-0.598506
-0.596247
-0.606844
-0.604626
-0.614071
-0.61191
-0.622334
-0.620216
-0.629576
-0.627512
-0.637753
-0.635731
-0.645013
-0.643042
-0.653118
-0.651189
-0.660416
-0.658536
-0.668478
-0.666639
-0.67582
-0.674028
-0.683852
-0.6821
-0.691233
-0.689525
-0.699216
-0.697547
-0.706608
-0.704981
-0.714512
-0.712923
-0.721865
-0.720317
-0.729654
-0.728142
-0.736926
-0.735452
-0.744547
-0.743108
-0.751706
-0.750301
-0.759149
-0.757776
-0.766164
-0.764822
-0.773409
-0.772097
-0.780262
-0.778978
-0.787312
-0.786053
-0.794013
-0.792778
-0.800861
-0.79965
-0.807393
-0.806203
-0.814053
-0.812883
-0.820429
-0.819278
-0.82691
-0.825778
-0.833143
-0.832028
-0.83949
-0.838393
-0.845615
-0.844534
-0.851849
-0.850785
-0.857897
-0.856849
-0.864051
-0.86302
-0.870074
-0.86906
-0.876187
-0.875191
-0.882195
-0.881214
-0.888296
-0.887333
-0.894311
-0.893363
-0.900411
-0.89948
-0.906443
-0.905525
-0.912558
-0.911654
-0.918624
-0.917731
-0.924792
-0.92391
-0.930938
-0.930062
-0.937194
-0.936325
-0.943464
-0.942598
-0.949832
-0.948971
-0.956223
-0.95536
-0.962725
-0.961865
-0.969215
-0.968355
-0.975758
-0.974902
-0.982276
-0.98142
-0.988784
-0.98793
-0.995188
-0.994334
-1.00153
-1.00068
-1.00772
-1.00687
-1.01377
-1.01293
-1.01962
-1.01879
-1.02534
-1.02452
-1.03085
-1.03005
-1.03622
-1.03544
-1.04142
-1.04066
-1.04652
-1.04577
-1.05145
-1.05073
-1.0563
-1.0556
-1.06101
-1.06033
-1.06561
-1.06496
-1.07005
-1.06942
-1.07436
-1.07377
-1.07846
-1.07789
-1.08236
-1.08182
-1.08601
-1.08549
-1.08941
-1.08892
-1.0925
-1.09202
-1.0953
-1.09486
-1.09778
-1.09736
-1.09997
-1.09957
-1.10185
-1.10146
-1.10346
-1.10311
-1.1048
-1.10446
-1.10592
-1.10561
-1.10683
-1.10652
-1.10756
-1.10728
-1.10813
-1.10785
-1.10859
-1.10834
-1.10893
-1.10868
-1.1092
-1.10897
-1.10939
-1.10915
-1.10954
-1.10933
-1.10964
-1.10941
-1.10972
-1.10951
-1.10977
-1.10954
-1.10981
-1.1096
-1.10983
-1.1096
-1.10985
-1.10965
-1.10985
-1.10964
-1.10986
-1.10968
-1.10987
-1.10966
-1.10988
-1.1097
-1.10988
-1.10969
-1.1099
-1.10973
-1.10991
-1.10972
-1.10994
-1.10978
-1.10997
-1.10978
-1.11001
-1.10985
-1.11005
-1.10987
-1.11011
-1.10995
-1.11016
-1.10999
-1.11023
-1.11008
-1.1103
-1.11014
-1.11038
-1.11025
-1.11046
-1.11032
-1.11054
-1.11043
-1.11062
-1.11051
-1.11071
-1.11061
-1.11078
-1.11069
-1.11085
-1.11078
-1.1109
-1.11084
-1.11095
-1.1109
-1.11098
-1.11094
-1.11099
-1.11097
-1.11096
-1.11096
-1.11092
-1.11091
-1.11082
-1.11085
-1.11068
-1.1107
-1.11043
-1.11048
-1.11006
-1.11011
-1.10947
-1.10956
-1.1086
-1.10868
-1.10725
-1.10736
-1.10527
-1.10538
-1.10233
-1.10248
-1.0982
-1.09834
-1.09234
-1.09252
-1.08441
-1.08459
-1.07385
-1.07407
-1.06016
-1.06037
-1.0429
-1.04314
-1.02188
-1.02213
-0.996882
-0.997161
-0.967559
-0.967841
-0.93486
-0.935174
-0.898902
-0.899222
-0.860641
-0.86099
-0.820753
-0.82111
-0.780503
-0.780889
-0.740616
-0.741011
-0.701913
-0.702335
-0.665648
-0.666081
-0.632257
-0.632716
-0.601505
-0.601978
-0.574115
-0.574613
-0.550038
-0.550551
-0.528743
-0.529279
-0.510008
-0.51056
-0.493475
-0.494049
-0.479004
-0.479594
-0.466074
-0.466684
-0.454444
-0.455071
-0.443889
-0.444533
-0.434366
-0.435027
-0.425611
-0.426287
-0.417429
-0.418121
-0.410012
-0.410716
-0.402964
-0.403685
-0.396286
-0.397015
-0.38984
-0.390586
-0.383626
-0.384378
-0.377303
-0.378073
-0.370985
-0.371758
-0.364428
-0.36522
-0.357518
-0.358311
-0.350277
-0.35109
-0.34263
-0.343442
-0.334246
-0.335081
-0.325414
-0.326245
-0.315785
-0.316641
-0.305298
-0.306147
-0.293874
-0.294752
-0.28196
-0.282827
-0.269032
-0.269933
-0.255736
-0.256622
-0.242032
-0.242957
-0.228589
-0.229495
-0.215385
-0.216334
-0.202992
-0.203915
-0.191689
-0.192663
-0.18184
-0.18278
-0.173239
-0.174236
-0.166531
-0.167484
-0.160899
-0.161919
-0.157054
-0.15802
-0.154007
-0.155052
-0.152407
-0.15339
-0.151134
-0.152213
-0.150799
-0.152089
-0.15114
-0.152224
-0.152797
-0.153477
-0.153983
-0.155079
-0.158396
-0.158186
-0.160837
-0.16191
-0.169516
-0.167816
-0.173678
-0.174738
-0.18787
-0.184302
-0.194281
-0.195417
-0.215333
-0.209818
-0.224467
-0.225815
-0.253682
-0.246171
-0.266772
-0.268437
-1.27064
-0.295776
-1.28279
-0.324636
-1.34162
-0.357002
-1.3551
-0.38889
-1.41584
-0.420927
-1.42705
-0.444729
-1.46731
-0.461469
-1.46902
-0.463123
-1.43052
-0.450085
-1.41485
-0.420656
-1.33137
-0.376326
-1.3066
-0.323806
-1.20673
-0.266751
-1.18293
-0.210812
-1.09969
-0.161845
-1.08458
-0.122195
-1.03201
-0.0924047
-1.02561
-0.0721667
-0.996841
-0.0583394
-0.995276
-0.0502496
-0.949291
-0.0440856
-0.977676
-0.040734
-0.903766
-0.037176
-0.964844
-0.0349494
-0.949808
-0.0318876
-0.954596
-0.0298058
-0.945043
-0.0270777
-0.945032
-0.0250465
-0.93003
-0.0224092
-0.935844
-0.020494
-0.910022
-0.0181655
-0.927682
-0.0165694
-0.894191
-0.0146905
-0.921296
-0.0135762
-0.89839
-0.0122905
-0.917076
-0.011603
-0.909313
-0.0107149
-0.914223
-0.0102187
-0.911715
-0.00946338
-0.911653
-0.00887515
-0.909063
-0.00804749
-0.908942
-0.00732975
-0.906336
-0.00645613
-0.906196
-0.00568019
-0.903783
-0.00485852
-0.903715
-0.00422338
-0.899738
-0.00363994
-0.901815
-0.00323213
-0.898203
-0.00289577
-0.900554
-0.00264462
-0.899562
-0.00237225
-0.899547
-0.00212806
-0.898619
-0.00186255
-0.898595
-0.00161686
-0.897752
-0.00136354
-0.897739
-0.00114934
-0.896078
-0.000972826
-0.897203
-0.000876995
-0.89654
-0.000833326
-0.897083
-0.000821392
-0.897085
-0.000818975
-0.897083
-0.000819012
-0.897083
-0.00081987
-0.897082
-0.000820059
-0.897082
-0.000820833
-0.897082
-0.000821158
-0.897081
-0.000821984
-0.89708
-0.000823004
-0.897078
-0.000826765
-0.897075
-0.000832952
-0.897069
-0.000828343
-0.897041
-0.00079156
)
;

boundaryField
{
    walls
    {
        type            zeroGradient;
    }
    inlet
    {
        type            cyclic;
    }
    outlet
    {
        type            cyclic;
    }
    sides
    {
        type            empty;
    }
}


// ************************************************************************* //
