/*--------------------------------*- C++ -*----------------------------------*\
| =========                 |                                                 |
| \\      /  F ield         | OpenFOAM: The Open Source CFD Toolbox           |
|  \\    /   O peration     | Version:  2012                                  |
|   \\  /    A nd           | Website:  www.openfoam.com                      |
|    \\/     M anipulation  |                                                 |
\*---------------------------------------------------------------------------*/
FoamFile
{
    version     2.0;
    format      ascii;
    class       volScalarField;
    location    "14900";
    object      k;
}
// * * * * * * * * * * * * * * * * * * * * * * * * * * * * * * * * * * * * * //

dimensions      [0 2 -2 0 0 0 0];


internalField   nonuniform List<scalar> 
2560
(
0.00744266
0.00744266
0.178137
0.178137
1.23622
1.23622
3.84621
3.84621
7.20446
7.20446
10.406
10.406
13.2839
13.2839
15.8917
15.8917
18.294
18.294
20.5384
20.5384
22.6581
22.6581
24.6761
24.6761
26.6088
26.6088
28.4682
28.4682
30.263
30.263
31.9995
31.9995
33.6827
33.6827
35.3159
35.3159
36.9016
36.9016
38.4416
38.4416
39.9367
39.9367
41.3875
41.3875
42.794
42.794
44.1557
44.1557
45.4718
45.4718
46.7415
46.7415
47.9632
47.9632
49.1356
49.1356
50.2568
50.2568
51.3251
51.3251
52.3383
52.3383
53.2944
53.2944
54.1913
54.1913
55.0266
55.0266
55.7983
55.7983
56.5041
56.5041
57.142
57.142
57.7101
57.7101
58.2064
58.2064
58.6295
58.6295
58.978
58.978
59.2507
59.2507
59.447
59.447
59.5665
59.5665
59.6091
59.6091
59.5755
59.5755
59.4664
59.4664
59.2833
59.2833
59.0284
59.0284
58.704
58.704
58.3134
58.3134
57.8602
57.8602
57.3487
57.3487
56.7839
56.7839
56.1712
56.1712
55.5165
55.5165
54.8264
54.8264
54.1079
54.1079
53.3683
53.3683
52.6152
52.6152
51.8568
51.8568
51.101
51.101
50.3561
50.3561
49.6302
49.6302
48.9312
48.9312
48.2669
48.2669
47.6444
47.6444
47.0703
47.0703
46.5506
46.5506
46.0905
46.0905
45.6942
45.6942
45.3648
45.3648
45.1045
45.1045
44.9143
44.9143
44.7941
44.7941
44.7429
44.7429
44.758
44.758
44.8361
44.8361
44.9731
44.9731
45.1638
45.1638
45.4025
45.4025
45.683
45.683
45.9985
45.9985
46.3421
46.3421
46.7067
46.7067
47.0853
47.0853
47.4708
47.4708
47.8565
47.8565
48.2359
48.2359
48.6029
48.6029
48.952
48.952
49.2779
49.2779
49.5761
49.5761
49.8424
49.8424
50.0734
50.0734
50.2661
50.2661
50.4181
50.4181
50.5276
50.5276
50.5932
50.5932
50.6141
50.6141
50.5897
50.5897
50.5202
50.5202
50.4058
50.4058
50.2473
50.2473
50.0456
50.0456
49.8019
49.8019
49.5177
49.5177
49.1946
49.1946
48.8344
48.8344
48.4389
48.4389
48.0102
48.0102
47.5501
47.5501
47.0608
47.0608
46.5443
46.5443
46.0026
46.0026
45.4379
45.4379
44.852
44.852
44.2469
44.2469
43.6245
43.6245
42.9866
42.9866
42.335
42.335
41.6713
41.6713
40.9971
40.9971
40.314
40.314
39.6234
39.6234
38.9266
38.9266
38.225
38.225
37.5196
37.5196
36.8117
36.8117
36.1024
36.1024
35.3925
35.3925
34.683
34.683
33.9748
33.9748
33.2687
33.2687
32.5655
32.5655
31.8657
31.8657
31.1702
31.1702
30.4794
30.4794
29.794
29.794
29.1144
29.1144
28.4412
28.4412
27.7747
27.7747
27.1154
27.1154
26.4636
26.4636
25.8197
25.8197
25.184
25.184
24.5568
24.5568
23.9384
23.9384
23.3289
23.3289
22.7287
22.7287
22.138
22.138
21.5569
21.5569
20.9857
20.9857
20.4244
20.4244
19.8733
19.8733
19.3325
19.3325
18.8021
18.8021
18.2823
18.2823
17.773
17.773
17.2745
17.2745
16.7867
16.7867
16.3097
16.3097
15.8436
15.8436
15.3882
15.3882
14.9435
14.9435
14.5095
14.5095
14.086
14.086
13.673
13.673
13.2704
13.2704
12.8778
12.8778
12.4953
12.4953
12.1226
12.1226
11.7595
11.7595
11.406
11.406
11.0618
11.0618
10.7268
10.7268
10.401
10.401
10.0841
10.0841
9.77602
9.77602
9.4767
9.4767
9.18598
9.18598
8.90374
8.90374
8.62987
8.62987
8.36421
8.36421
8.10664
8.10664
7.85701
7.85701
7.61517
7.61517
7.38097
7.38097
7.15426
7.15426
6.93488
6.93488
6.72271
6.72271
6.5176
6.5176
6.31943
6.31943
6.12809
6.12809
5.94348
5.94348
5.76547
5.76547
5.59399
5.59399
5.42893
5.42893
5.27019
5.27019
5.1177
5.1177
4.97135
4.97135
4.83103
4.83103
4.69663
4.69663
4.56803
4.56803
4.44508
4.44508
4.32764
4.32764
4.21553
4.21553
4.10859
4.10859
4.00662
4.00662
3.90946
3.90946
3.81694
3.81694
3.72887
3.72887
3.64511
3.64511
3.56546
3.56546
3.48975
3.48975
3.41777
3.41777
3.34932
3.34932
3.28416
3.28416
3.22205
3.22205
3.16274
3.16274
3.10595
3.10595
3.05143
3.05143
2.99894
2.99894
2.94827
2.94827
2.89925
2.89925
2.85176
2.85176
2.8057
2.8057
2.76096
2.76096
2.71744
2.71744
2.67498
2.67498
2.63343
2.63343
2.59259
2.59259
2.55232
2.55232
2.51247
2.51247
2.47294
2.47294
2.43366
2.43366
2.39458
2.39458
2.35568
2.35568
2.31701
2.31701
2.27863
2.27863
2.24063
2.24063
2.20311
2.20311
2.16611
2.16611
2.12962
2.12962
2.09355
2.09355
2.05777
2.05777
2.02205
2.02205
1.98614
1.98614
1.94975
1.94975
1.91262
1.91262
1.87461
1.87461
1.83574
1.83574
1.79619
1.79619
1.75625
1.75626
1.7163
1.7163
1.6767
1.6767
1.63774
1.63774
1.59956
1.59957
1.56224
1.56224
1.52576
1.52576
1.49015
1.49015
1.45546
1.45545
1.42188
1.42187
1.38966
1.38966
1.35904
1.35904
1.33022
1.33021
1.30331
1.30331
1.27838
1.27838
1.25547
1.25547
1.23458
1.23458
1.21568
1.21568
1.19873
1.19873
1.18363
1.18363
1.17024
1.17024
1.15836
1.15836
1.14771
1.14771
1.13798
1.13798
1.12882
1.12882
1.11983
1.11983
1.11062
1.11062
1.1009
1.1009
1.09039
1.09039
1.0788
1.0788
1.06576
1.06576
1.05098
1.05098
1.03431
1.03431
1.01588
1.01587
0.995991
0.99599
0.975121
0.97512
0.95388
0.953879
0.933007
0.933006
0.913166
0.913165
0.894742
0.894741
0.877851
0.87785
0.862491
0.86249
0.848661
0.84866
0.836374
0.836374
0.82564
0.82564
0.816466
0.816466
0.80883
0.80883
0.802639
0.802639
0.797699
0.797699
0.793734
0.793735
0.790451
0.790451
0.787509
0.78751
0.784414
0.784415
0.780523
0.780524
0.775268
0.775268
0.768384
0.768384
0.760035
0.760035
0.750709
0.750709
0.740936
0.740936
0.731114
0.731113
0.721574
0.721574
0.712712
0.712712
0.704921
0.704922
0.69845
0.698452
0.693396
0.693399
0.689832
0.689835
0.687932
0.687935
0.00744266
0.00744266
0.178137
0.178137
1.23622
1.23622
3.84621
3.84621
7.20446
7.20446
10.406
10.406
13.2839
13.2839
15.8917
15.8917
18.294
18.294
20.5384
20.5384
22.6581
22.6581
24.6761
24.6761
26.6088
26.6088
28.4682
28.4682
30.263
30.263
31.9995
31.9995
33.6827
33.6827
35.3159
35.3159
36.9016
36.9016
38.4416
38.4416
39.9367
39.9367
41.3875
41.3875
42.794
42.794
44.1557
44.1557
45.4718
45.4718
46.7415
46.7415
47.9632
47.9632
49.1356
49.1356
50.2568
50.2568
51.3251
51.3251
52.3383
52.3383
53.2944
53.2944
54.1913
54.1913
55.0266
55.0266
55.7983
55.7983
56.5041
56.5041
57.142
57.142
57.7101
57.7101
58.2064
58.2064
58.6295
58.6295
58.978
58.978
59.2507
59.2507
59.447
59.447
59.5665
59.5665
59.6092
59.6092
59.5755
59.5755
59.4664
59.4664
59.2834
59.2834
59.0284
59.0284
58.704
58.704
58.3134
58.3134
57.8602
57.8602
57.3487
57.3487
56.7839
56.7839
56.1712
56.1712
55.5165
55.5165
54.8264
54.8264
54.1079
54.1079
53.3683
53.3683
52.6152
52.6152
51.8568
51.8568
51.101
51.101
50.3561
50.3561
49.6302
49.6302
48.9312
48.9312
48.2669
48.2669
47.6444
47.6444
47.0703
47.0703
46.5506
46.5506
46.0905
46.0905
45.6942
45.6942
45.3648
45.3648
45.1045
45.1045
44.9143
44.9143
44.7941
44.7941
44.7429
44.7429
44.758
44.758
44.8361
44.8361
44.9731
44.9731
45.1638
45.1638
45.4025
45.4025
45.683
45.6829
45.9985
45.9985
46.3421
46.3421
46.7067
46.7067
47.0852
47.0852
47.4708
47.4708
47.8565
47.8565
48.2359
48.2359
48.6029
48.6029
48.952
48.952
49.2779
49.2779
49.5761
49.5761
49.8424
49.8424
50.0734
50.0734
50.2661
50.2661
50.4181
50.4181
50.5276
50.5276
50.5932
50.5932
50.6141
50.6141
50.5897
50.5897
50.5202
50.5202
50.4058
50.4058
50.2473
50.2473
50.0456
50.0456
49.8019
49.8019
49.5177
49.5177
49.1946
49.1946
48.8344
48.8344
48.4389
48.4389
48.0102
48.0102
47.5501
47.5501
47.0608
47.0608
46.5443
46.5443
46.0026
46.0026
45.4379
45.4379
44.852
44.852
44.2469
44.2469
43.6245
43.6245
42.9866
42.9866
42.335
42.335
41.6713
41.6713
40.9971
40.9971
40.314
40.314
39.6234
39.6234
38.9266
38.9266
38.225
38.225
37.5196
37.5196
36.8117
36.8117
36.1024
36.1024
35.3925
35.3925
34.683
34.683
33.9748
33.9748
33.2687
33.2687
32.5655
32.5655
31.8657
31.8657
31.1702
31.1702
30.4794
30.4794
29.794
29.794
29.1144
29.1144
28.4412
28.4412
27.7747
27.7747
27.1154
27.1154
26.4636
26.4636
25.8197
25.8197
25.184
25.184
24.5568
24.5568
23.9384
23.9384
23.3289
23.3289
22.7287
22.7287
22.138
22.138
21.5569
21.5569
20.9857
20.9857
20.4244
20.4244
19.8733
19.8733
19.3325
19.3325
18.8021
18.8021
18.2823
18.2823
17.773
17.773
17.2745
17.2745
16.7867
16.7867
16.3097
16.3097
15.8436
15.8436
15.3882
15.3882
14.9435
14.9435
14.5095
14.5095
14.086
14.086
13.673
13.673
13.2704
13.2704
12.8778
12.8778
12.4953
12.4953
12.1226
12.1226
11.7595
11.7595
11.406
11.406
11.0618
11.0618
10.7268
10.7268
10.401
10.401
10.0841
10.0841
9.77602
9.77602
9.4767
9.4767
9.18598
9.18598
8.90374
8.90374
8.62986
8.62987
8.36421
8.36421
8.10664
8.10664
7.85701
7.85701
7.61517
7.61517
7.38097
7.38097
7.15426
7.15426
6.93488
6.93488
6.72271
6.72271
6.5176
6.5176
6.31943
6.31943
6.12809
6.12809
5.94347
5.94348
5.76547
5.76547
5.59399
5.59399
5.42893
5.42893
5.27019
5.27019
5.1177
5.1177
4.97135
4.97135
4.83103
4.83103
4.69663
4.69663
4.56803
4.56803
4.44508
4.44508
4.32764
4.32764
4.21553
4.21553
4.10859
4.10859
4.00662
4.00662
3.90946
3.90946
3.81694
3.81694
3.72888
3.72888
3.64511
3.64511
3.56546
3.56546
3.48975
3.48975
3.41777
3.41778
3.34932
3.34932
3.28416
3.28416
3.22205
3.22205
3.16274
3.16274
3.10596
3.10596
3.05144
3.05144
2.99895
2.99895
2.94827
2.94827
2.89926
2.89926
2.85177
2.85177
2.8057
2.8057
2.76097
2.76097
2.71744
2.71744
2.67499
2.67499
2.63343
2.63343
2.5926
2.5926
2.55232
2.55232
2.51247
2.51247
2.47295
2.47295
2.43367
2.43367
2.39459
2.39459
2.35569
2.35569
2.31702
2.31702
2.27864
2.27864
2.24064
2.24064
2.20312
2.20312
2.16612
2.16612
2.12962
2.12962
2.09356
2.09356
2.05778
2.05777
2.02206
2.02206
1.98615
1.98615
1.94976
1.94975
1.91262
1.91262
1.87461
1.87461
1.83574
1.83574
1.7962
1.79619
1.75626
1.75625
1.7163
1.7163
1.67671
1.6767
1.63775
1.63774
1.59957
1.59956
1.56224
1.56224
1.52576
1.52576
1.49015
1.49015
1.45545
1.45546
1.42187
1.42188
1.38966
1.38966
1.35904
1.35904
1.33021
1.33022
1.30331
1.30331
1.27838
1.27838
1.25547
1.25547
1.23458
1.23458
1.21568
1.21568
1.19873
1.19873
1.18363
1.18363
1.17025
1.17025
1.15836
1.15836
1.14771
1.14771
1.13799
1.13799
1.12883
1.12883
1.11983
1.11983
1.11063
1.11063
1.1009
1.1009
1.09039
1.09039
1.0788
1.0788
1.06576
1.06576
1.05098
1.05098
1.03431
1.03431
1.01587
1.01587
0.995987
0.995988
0.975117
0.975118
0.953876
0.953877
0.933004
0.933005
0.913163
0.913165
0.89474
0.894741
0.877849
0.87785
0.862489
0.86249
0.84866
0.848661
0.836374
0.836375
0.82564
0.825641
0.816467
0.816467
0.808831
0.808831
0.80264
0.802641
0.7977
0.7977
0.793736
0.793736
0.790453
0.790453
0.787511
0.78751
0.784416
0.784415
0.780525
0.780524
0.775268
0.775268
0.768383
0.768383
0.760034
0.760034
0.750708
0.750708
0.740934
0.740935
0.731112
0.731112
0.721572
0.721572
0.712711
0.71271
0.704921
0.70492
0.698451
0.698449
0.693398
0.693396
0.689835
0.689832
0.687935
0.687931
0.687926
0.68793
0.689818
0.689821
0.693368
0.69337
0.698397
0.698399
0.704848
0.704849
0.712611
0.712611
0.721437
0.721437
0.730946
0.730946
0.740702
0.740702
0.750365
0.750365
0.759582
0.759582
0.767845
0.767845
0.774665
0.774666
0.779893
0.779894
0.783816
0.783817
0.786984
0.786984
0.79
0.79
0.793347
0.793347
0.797364
0.797364
0.802355
0.802355
0.808602
0.808602
0.8163
0.816299
0.825536
0.825535
0.836329
0.836328
0.848673
0.848672
0.862559
0.862558
0.877974
0.877973
0.894919
0.894918
0.913397
0.913396
0.933291
0.93329
0.954223
0.954222
0.97552
0.975518
0.996415
0.996414
1.01628
1.01628
1.03466
1.03466
1.05124
1.05124
1.06593
1.06592
1.07889
1.07889
1.09044
1.09044
1.10091
1.10091
1.11061
1.1106
1.11978
1.11978
1.12874
1.12874
1.13787
1.13787
1.14756
1.14756
1.15818
1.15818
1.17003
1.17003
1.18339
1.18339
1.19847
1.19847
1.21541
1.21541
1.2343
1.2343
1.25519
1.25519
1.27809
1.27809
1.30301
1.30301
1.32992
1.32991
1.35874
1.35874
1.38936
1.38936
1.42157
1.42157
1.45515
1.45515
1.48986
1.48986
1.52549
1.52549
1.56197
1.56197
1.59929
1.5993
1.63745
1.63746
1.67638
1.67639
1.71594
1.71594
1.75587
1.75587
1.7958
1.7958
1.83534
1.83534
1.87418
1.87418
1.91214
1.91214
1.94924
1.94924
1.98563
1.98563
2.02156
2.02156
2.05732
2.05732
2.09317
2.09317
2.12932
2.12932
2.16588
2.16588
2.20293
2.20293
2.24046
2.24046
2.27844
2.27844
2.3168
2.3168
2.35544
2.35544
2.39431
2.39431
2.43338
2.43338
2.47263
2.47263
2.51215
2.51215
2.55201
2.55201
2.59229
2.59229
2.63313
2.63313
2.67472
2.67472
2.71721
2.71721
2.76078
2.76078
2.80559
2.80559
2.85172
2.85172
2.89926
2.89926
2.94832
2.94832
2.99902
2.99902
3.05153
3.05153
3.10606
3.10606
3.16286
3.16286
3.2222
3.2222
3.28432
3.28432
3.34949
3.34948
3.41793
3.41793
3.48989
3.48989
3.56557
3.56557
3.64519
3.64519
3.72893
3.72893
3.81696
3.81696
3.90947
3.90947
4.00663
4.00663
4.1086
4.10859
4.21555
4.21555
4.32766
4.32766
4.44512
4.44511
4.56807
4.56807
4.69669
4.69669
4.8311
4.8311
4.97144
4.97143
5.1178
5.1178
5.27029
5.27029
5.42903
5.42903
5.59409
5.59409
5.76559
5.76559
5.9436
5.9436
6.12822
6.12821
6.31955
6.31955
6.51773
6.51773
6.72284
6.72284
6.93503
6.93503
7.15441
7.15441
7.38112
7.38112
7.61532
7.61532
7.85715
7.85715
8.10678
8.10678
8.36434
8.36434
8.62999
8.62999
8.90387
8.90387
9.18611
9.18611
9.47683
9.47683
9.77616
9.77616
10.0842
10.0842
10.4011
10.4011
10.727
10.727
11.062
11.062
11.4061
11.4061
11.7597
11.7597
12.1227
12.1227
12.4955
12.4955
12.878
12.878
13.2706
13.2706
13.6733
13.6733
14.0863
14.0863
14.5098
14.5098
14.9438
14.9438
15.3885
15.3885
15.8439
15.8439
16.3101
16.3101
16.7871
16.7871
17.2749
17.2749
17.7734
17.7734
18.2826
18.2826
18.8025
18.8025
19.3329
19.3329
19.8737
19.8737
20.4249
20.4249
20.9861
20.9861
21.5574
21.5574
22.1385
22.1385
22.7293
22.7293
23.3295
23.3295
23.9389
23.9389
24.5574
24.5574
25.1847
25.1847
25.8204
25.8204
26.4643
26.4643
27.1162
27.1162
27.7756
27.7756
28.4421
28.4421
29.1155
29.1155
29.7951
29.7951
30.4807
30.4807
31.1715
31.1715
31.8671
31.8671
32.5669
32.5669
33.2702
33.2702
33.9764
33.9764
34.6846
34.6846
35.3941
35.3941
36.1041
36.1041
36.8135
36.8135
37.5215
37.5215
38.2269
38.2269
38.9286
38.9286
39.6254
39.6254
40.316
40.316
40.9991
40.9991
41.6732
41.6732
42.3368
42.3368
42.9884
42.9884
43.6262
43.6262
44.2484
44.2484
44.8534
44.8534
45.439
45.439
46.0036
46.0036
46.545
46.545
47.0614
47.0614
47.5507
47.5507
48.0108
48.0108
48.4395
48.4395
48.8351
48.8351
49.1953
49.1953
49.5184
49.5184
49.8027
49.8027
50.0464
50.0464
50.248
50.248
50.4065
50.4065
50.5209
50.5209
50.5905
50.5905
50.6148
50.6148
50.5941
50.5941
50.5288
50.5288
50.4194
50.4194
50.2675
50.2675
50.0749
50.0749
49.8438
49.8438
49.5772
49.5772
49.2784
49.2784
48.9517
48.9517
48.6018
48.6018
48.2341
48.2341
47.8543
47.8543
47.4684
47.4684
47.0825
47.0825
46.7036
46.7036
46.3385
46.3385
45.9944
45.9944
45.6783
45.6783
45.3973
45.3973
45.1579
45.1579
44.9667
44.9667
44.8292
44.8292
44.7505
44.7505
44.7349
44.7349
44.7856
44.7856
44.9052
44.9052
45.0949
45.0949
45.3547
45.3547
45.6835
45.6835
46.0792
46.0792
46.5389
46.5389
47.0581
47.0581
47.6318
47.6318
48.2539
48.2539
48.918
48.918
49.6167
49.6167
50.3423
50.3423
51.087
51.087
51.8424
51.8424
52.6005
52.6005
53.3534
53.3534
54.0931
54.0931
54.8119
54.8119
55.5022
55.5022
56.1572
56.1572
56.7704
56.7704
57.336
57.336
57.8483
57.8483
58.3021
58.3021
58.6931
58.6931
59.018
59.018
59.2738
59.2738
59.4577
59.4577
59.5675
59.5675
59.602
59.602
59.5601
59.5601
59.4413
59.4413
59.2457
59.2457
58.9735
58.9735
58.6257
58.6257
58.2031
58.2031
57.7071
57.7071
57.1395
57.1395
56.5019
56.5019
55.7963
55.7963
55.0249
55.0249
54.1898
54.1898
53.2931
53.2931
52.3371
52.3371
51.324
51.324
50.2559
50.2559
49.135
49.135
47.9628
47.9628
46.7413
46.7413
45.4718
45.4718
44.1558
44.1558
42.7942
42.7942
41.3877
41.3877
39.9369
39.9369
38.4418
38.4418
36.9019
36.9019
35.3161
35.3161
33.6829
33.6829
31.9997
31.9997
30.2631
30.2631
28.4684
28.4684
26.609
26.609
24.6762
24.6762
22.6582
22.6582
20.5385
20.5385
18.2941
18.2941
15.8918
15.8918
13.284
13.284
10.406
10.406
7.20448
7.20448
3.84621
3.84621
1.23622
1.23622
0.178136
0.178136
0.00744284
0.00744284
0.68793
0.687926
0.689821
0.689818
0.693371
0.693368
0.698399
0.698398
0.70485
0.704849
0.712612
0.712612
0.721438
0.721438
0.730947
0.730947
0.740703
0.740703
0.750365
0.750366
0.759582
0.759582
0.767846
0.767845
0.774666
0.774665
0.779894
0.779893
0.783816
0.783815
0.786984
0.786983
0.79
0.789999
0.793347
0.793346
0.797364
0.797364
0.802354
0.802354
0.808601
0.808602
0.816299
0.8163
0.825535
0.825536
0.836328
0.836329
0.848673
0.848673
0.862558
0.862559
0.877974
0.877975
0.894919
0.89492
0.913398
0.913399
0.933292
0.933293
0.954224
0.954226
0.975521
0.975522
0.996416
0.996417
1.01628
1.01629
1.03467
1.03467
1.05124
1.05124
1.06593
1.06593
1.07889
1.07889
1.09044
1.09044
1.10091
1.10091
1.1106
1.1106
1.11978
1.11978
1.12874
1.12874
1.13787
1.13787
1.14756
1.14756
1.15818
1.15818
1.17003
1.17003
1.18339
1.18339
1.19847
1.19847
1.21541
1.21541
1.2343
1.2343
1.25519
1.25519
1.27809
1.27809
1.30301
1.30301
1.32992
1.32992
1.35874
1.35875
1.38936
1.38936
1.42157
1.42158
1.45515
1.45516
1.48986
1.48986
1.5255
1.5255
1.56198
1.56198
1.5993
1.5993
1.63746
1.63746
1.67639
1.67638
1.71595
1.71594
1.75588
1.75587
1.79581
1.7958
1.83535
1.83534
1.87418
1.87418
1.91215
1.91214
1.94925
1.94924
1.98564
1.98563
2.02156
2.02156
2.05732
2.05732
2.09317
2.09317
2.12932
2.12932
2.16588
2.16588
2.20293
2.20293
2.24046
2.24046
2.27844
2.27844
2.3168
2.3168
2.35544
2.35544
2.39431
2.39431
2.43337
2.43337
2.47263
2.47263
2.51215
2.51215
2.552
2.552
2.59228
2.59228
2.63313
2.63313
2.67471
2.67471
2.7172
2.7172
2.76077
2.76077
2.80558
2.80558
2.85171
2.85171
2.89925
2.89925
2.94831
2.94831
2.99901
2.99901
3.05152
3.05152
3.10605
3.10605
3.16285
3.16285
3.22218
3.22218
3.28431
3.28431
3.34947
3.34947
3.41792
3.41792
3.48988
3.48988
3.56556
3.56556
3.64518
3.64518
3.72892
3.72892
3.81695
3.81695
3.90946
3.90946
4.00662
4.00662
4.10858
4.10859
4.21554
4.21554
4.32765
4.32765
4.44511
4.44511
4.56806
4.56806
4.69668
4.69668
4.83109
4.83109
4.97143
4.97143
5.11779
5.11779
5.27029
5.27029
5.42902
5.42902
5.59409
5.59409
5.76558
5.76558
5.94359
5.94359
6.12821
6.12821
6.31955
6.31955
6.51772
6.51772
6.72284
6.72284
6.93502
6.93502
7.1544
7.1544
7.38112
7.38112
7.61531
7.61531
7.85715
7.85715
8.10677
8.10677
8.36433
8.36433
8.62999
8.62999
8.90386
8.90386
9.1861
9.1861
9.47682
9.47682
9.77615
9.77615
10.0842
10.0842
10.4011
10.4011
10.727
10.727
11.062
11.062
11.4061
11.4061
11.7597
11.7597
12.1227
12.1227
12.4955
12.4955
12.878
12.878
13.2706
13.2706
13.6733
13.6733
14.0863
14.0863
14.5098
14.5098
14.9438
14.9438
15.3885
15.3885
15.8439
15.8439
16.3101
16.3101
16.7871
16.7871
17.2749
17.2749
17.7734
17.7734
18.2826
18.2826
18.8025
18.8025
19.3329
19.3329
19.8737
19.8737
20.4248
20.4248
20.9861
20.9861
21.5574
21.5574
22.1385
22.1385
22.7293
22.7293
23.3295
23.3295
23.9389
23.9389
24.5574
24.5574
25.1847
25.1847
25.8204
25.8204
26.4643
26.4643
27.1162
27.1162
27.7756
27.7756
28.4421
28.4421
29.1155
29.1155
29.7951
29.7951
30.4806
30.4806
31.1715
31.1715
31.8671
31.8671
32.5669
32.5669
33.2702
33.2702
33.9764
33.9764
34.6846
34.6846
35.3941
35.3941
36.104
36.104
36.8135
36.8135
37.5215
37.5215
38.2269
38.2269
38.9286
38.9286
39.6254
39.6254
40.316
40.316
40.999
40.999
41.6732
41.6732
42.3368
42.3368
42.9884
42.9884
43.6261
43.6261
44.2484
44.2484
44.8534
44.8534
45.439
45.439
46.0035
46.0035
46.545
46.545
47.0614
47.0614
47.5507
47.5507
48.0108
48.0108
48.4395
48.4395
48.835
48.835
49.1953
49.1953
49.5184
49.5184
49.8027
49.8027
50.0464
50.0464
50.248
50.248
50.4064
50.4064
50.5209
50.5209
50.5904
50.5904
50.6148
50.6148
50.5941
50.5941
50.5287
50.5287
50.4194
50.4194
50.2675
50.2675
50.0749
50.0749
49.8438
49.8438
49.5772
49.5772
49.2784
49.2784
48.9517
48.9517
48.6018
48.6018
48.2341
48.2341
47.8543
47.8543
47.4684
47.4684
47.0825
47.0825
46.7036
46.7036
46.3385
46.3385
45.9944
45.9944
45.6783
45.6783
45.3972
45.3972
45.1579
45.1579
44.9666
44.9666
44.8292
44.8292
44.7505
44.7505
44.7349
44.7349
44.7856
44.7856
44.9052
44.9052
45.0949
45.0949
45.3547
45.3547
45.6835
45.6835
46.0792
46.0792
46.5389
46.5389
47.0581
47.0581
47.6318
47.6318
48.2539
48.2539
48.918
48.918
49.6167
49.6167
50.3424
50.3424
51.087
51.087
51.8424
51.8424
52.6005
52.6005
53.3534
53.3534
54.0931
54.0931
54.8119
54.8119
55.5022
55.5022
56.1572
56.1572
56.7705
56.7705
57.336
57.336
57.8483
57.8483
58.3021
58.3021
58.6931
58.6931
59.018
59.018
59.2738
59.2738
59.4577
59.4577
59.5675
59.5675
59.602
59.602
59.5601
59.5601
59.4413
59.4413
59.2457
59.2457
58.9735
58.9735
58.6257
58.6257
58.2031
58.2031
57.7071
57.7071
57.1395
57.1395
56.5019
56.5019
55.7963
55.7963
55.0249
55.0249
54.1898
54.1898
53.2931
53.2931
52.3371
52.3371
51.324
51.324
50.2559
50.2559
49.1349
49.1349
47.9628
47.9628
46.7413
46.7413
45.4718
45.4718
44.1558
44.1558
42.7942
42.7942
41.3877
41.3877
39.9369
39.9369
38.4418
38.4418
36.9018
36.9018
35.3161
35.3161
33.6829
33.6829
31.9997
31.9997
30.2631
30.2631
28.4684
28.4684
26.609
26.609
24.6762
24.6762
22.6582
22.6582
20.5385
20.5385
18.2941
18.2941
15.8918
15.8918
13.284
13.284
10.406
10.406
7.20448
7.20448
3.84621
3.84621
1.23622
1.23622
0.178136
0.178136
0.00744284
0.00744284
)
;

boundaryField
{
    walls
    {
        type            kqRWallFunction;
        value           nonuniform List<scalar> 8(0.00744266 0.00744266 0.00744266 0.00744266 0.00744284 0.00744284 0.00744284 0.00744284);
    }
    inlet
    {
        type            cyclic;
    }
    outlet
    {
        type            cyclic;
    }
    sides
    {
        type            empty;
    }
}


// ************************************************************************* //
