/*--------------------------------*- C++ -*----------------------------------*\
| =========                 |                                                 |
| \\      /  F ield         | OpenFOAM: The Open Source CFD Toolbox           |
|  \\    /   O peration     | Version:  2012                                  |
|   \\  /    A nd           | Website:  www.openfoam.com                      |
|    \\/     M anipulation  |                                                 |
\*---------------------------------------------------------------------------*/
FoamFile
{
    version     2.0;
    format      ascii;
    class       surfaceScalarField;
    location    "19000";
    object      phi;
}
// * * * * * * * * * * * * * * * * * * * * * * * * * * * * * * * * * * * * * //

dimensions      [0 3 -1 0 0 0 0];
oriented        oriented;


internalField   nonuniform List<scalar> 
76
(
8.28029e-05
8.23001e-18
7.67963e-19
1.09993e-18
1.92604e-19
0.000807704
4.5514e-18
1.55384e-18
2.68763e-18
6.21245e-19
0.00307871
2.50009e-18
1.11027e-18
2.52884e-18
7.47069e-19
0.0104889
1.57099e-18
-3.41874e-19
1.59785e-18
-1.30901e-19
0.0355418
-3.33164e-18
-5.49951e-19
-3.91291e-18
-5.23897e-19
8.28029e-05
6.23833e-19
3.51433e-19
0.000807704
1.89063e-18
1.60975e-18
0.00307871
2.46687e-18
2.4716e-18
0.0104889
1.52742e-18
1.53316e-18
0.0355418
-4.91478e-19
-5.00777e-19
0.0355418
3.29096e-19
3.11794e-18
2.99192e-19
-2.76927e-18
0.0104889
1.62251e-19
1.0353e-18
2.08879e-19
7.42556e-19
0.00307871
1.47789e-19
1.59962e-19
2.79441e-20
3.4833e-20
0.000807704
3.22479e-20
3.06905e-20
1.95184e-20
4.48069e-20
8.28029e-05
2.69089e-20
3.05741e-20
0.0355418
2.85944e-19
2.93386e-19
0.0104889
-1.66163e-19
-6.99933e-20
0.00307871
-2.15691e-19
-1.55781e-19
0.000807704
-2.00864e-20
-3.73336e-20
8.28029e-05
)
;

boundaryField
{
    walls
    {
        type            calculated;
        value           uniform 0;
    }
    inlet
    {
        type            cyclic;
        value           nonuniform List<scalar> 
20
(
-8.28029e-05
-0.000807704
-0.00307871
-0.0104889
-0.0355418
-8.28029e-05
-0.000807704
-0.00307871
-0.0104889
-0.0355418
-0.0355418
-0.0104889
-0.00307871
-0.000807704
-8.28029e-05
-0.0355418
-0.0104889
-0.00307871
-0.000807704
-8.28029e-05
)
;
    }
    outlet
    {
        type            cyclic;
        value           nonuniform List<scalar> 
20
(
8.28029e-05
0.000807704
0.00307871
0.0104889
0.0355418
8.28029e-05
0.000807704
0.00307871
0.0104889
0.0355418
0.0355418
0.0104889
0.00307871
0.000807704
8.28029e-05
0.0355418
0.0104889
0.00307871
0.000807704
8.28029e-05
)
;
    }
    sides
    {
        type            empty;
        value           nonuniform List<scalar> 0();
    }
}


// ************************************************************************* //
