/*--------------------------------*- C++ -*----------------------------------*\
| =========                 |                                                 |
| \\      /  F ield         | OpenFOAM: The Open Source CFD Toolbox           |
|  \\    /   O peration     | Version:  2012                                  |
|   \\  /    A nd           | Website:  www.openfoam.com                      |
|    \\/     M anipulation  |                                                 |
\*---------------------------------------------------------------------------*/
FoamFile
{
    version     2.0;
    format      ascii;
    class       volTensorField;
    location    "2000";
    object      grad(U);
}
// * * * * * * * * * * * * * * * * * * * * * * * * * * * * * * * * * * * * * //

dimensions      [0 0 -1 0 0 0 0];


internalField   nonuniform List<tensor> 
160
(
(0 1.55358e-29 -3.60722e-28 39.8812 -9.06983e-13 -1.4013e-45 0.866277 -1.36199e-14 -9.86076e-32)
(0 -1.67841e-28 -1.38713e-30 39.8812 -1.86935e-14 -1.82735e-15 0.866277 -4.24237e-17 2.94627e-15)
(4.90244e-16 -1.03067e-27 -1.63284e-31 39.6088 -9.44539e-14 3.22061e-14 2.83149 -5.22225e-15 1.27502e-15)
(-4.90244e-16 6.96679e-30 1.63284e-31 39.6088 -4.35081e-14 -9.9836e-15 2.83149 -1.33441e-15 8.87869e-15)
(7.69448e-16 7.00649e-46 0 37.5986 1.26218e-29 2.89295e-15 5.30776 5.52333e-46 1.81238e-15)
(0 1.64018e-29 0 37.5986 -3.86712e-14 -1.43958e-14 5.30776 -2.20926e-15 1.03604e-14)
(-8.19057e-16 -8.58097e-30 8.04466e-31 30.7026 9.1342e-14 2.3145e-15 5.22578 -2.12289e-14 2.1084e-15)
(1.63811e-15 8.58097e-30 -8.04466e-31 30.7026 -4.2586e-14 -1.02749e-14 5.22578 -3.51689e-15 9.18083e-15)
(-1.88823e-15 0 0 20.4584 2.58453e-29 -2.86823e-16 3.98657 1.23098e-45 1.87427e-15)
(0 0 0 20.4584 -3.66286e-14 -6.97153e-15 3.98657 -5.59469e-15 6.2358e-15)
(1.34647e-16 -1.37269e-29 1.32114e-30 12.2381 1.87824e-14 -5.8927e-16 3.03477 -4.82446e-15 1.51971e-15)
(5.41131e-15 1.05691e-29 -1.75162e-46 12.2381 -2.41045e-14 -2.00806e-46 3.03477 -7.19443e-15 -2.00806e-46)
(1.65153e-15 6.5809e-30 -5.1839e-31 7.41701 1.67167e-14 5.37912e-18 2.39981 -6.30648e-15 1.1145e-15)
(-6.60611e-15 -8.29425e-30 7.77585e-31 7.41701 -1.67003e-14 1.05069e-14 2.39981 -8.99522e-15 -1.04311e-15)
(3.66424e-15 -9.76349e-30 -2.54257e-31 4.65342 1.20026e-14 -3.80445e-15 1.95227 -6.08847e-15 8.3018e-16)
(7.52062e-15 6.50899e-30 4.37906e-47 4.65342 -8.95281e-15 8.96274e-47 1.95227 -1.06667e-14 2.46519e-32)
(-2.06187e-15 6.6059e-30 0 2.99324 8.94369e-15 -1.23149e-14 1.61899 -5.16465e-15 -4.37811e-16)
(0 5.108e-30 0 2.99324 -2.09935e-15 -1.17555e-14 1.61899 -1.15764e-14 -1.58352e-15)
(0 4.00855e-30 -5.54751e-30 1.95972 7.87667e-15 -7.48604e-16 1.36315 -5.68953e-15 -2.87737e-16)
(6.58226e-15 -1.45107e-30 -9.10841e-32 1.95972 7.3137e-16 -5.96054e-15 1.36315 -9.73243e-15 -2.69383e-15)
(0 -3.14575e-30 -8.75812e-47 1.30248 6.22382e-15 -1.88145e-30 1.16466 -6.52075e-15 0)
(0 0 0 1.30248 1.98057e-15 -7.79163e-16 1.16466 -4.3066e-15 -6.03171e-16)
(0 0 0 0.878723 4.58468e-15 2.14109e-15 1.01046 -5.55628e-15 -2.11717e-15)
(0 4.93732e-30 0 0.878723 3.55173e-15 1.04441e-15 1.01046 -3.01712e-15 -1.2949e-15)
(-2.18121e-15 0 0 0.602082 3.85826e-15 2.53844e-15 0.890411 -5.93499e-15 -1.06956e-15)
(2.18121e-15 0 0 0.602082 3.40499e-15 1.11164e-15 0.890411 -6.23819e-15 -1.31487e-15)
(-6.0192e-15 3.92151e-30 0 0.418798 2.21279e-15 2.69822e-15 0.795888 -6.39433e-15 2.01783e-15)
(-6.95952e-15 1.64153e-30 3.43789e-31 0.418798 1.14554e-15 2.31474e-15 0.795888 -4.36831e-15 7.49066e-16)
(-2.66163e-15 1.49588e-30 0 0.295074 1.64554e-15 3.23908e-15 0.719075 -2.29334e-15 -1.17737e-15)
(0 3.50325e-46 0 0.295074 3.00141e-29 3.72602e-15 0.719075 0 -1.23185e-15)
(0 1.09476e-47 -7.00649e-46 0.209542 -1.91539e-46 -6.43226e-45 0.652134 -1.20568e-14 -7.31373e-15)
(-1.50999e-14 2.74546e-30 -9.36286e-31 0.209542 6.91132e-17 1.30637e-15 0.652134 -9.77636e-15 -1.47779e-15)
(3.30906e-15 0 0 0.148513 9.86076e-32 -1.00021e-16 0.585524 0 -7.91091e-15)
(0 0 0 0.148513 -5.5589e-16 7.2611e-16 0.585524 -1.77036e-15 -3.05374e-15)
(0 -3.50325e-46 1.44867e-30 0.102791 -9.86076e-32 -1.09969e-15 0.503205 -1.10908e-14 2.13374e-15)
(0 2.30644e-30 -3.56286e-31 0.102791 5.13702e-16 -7.88861e-31 0.503205 -7.15568e-15 0)
(2.88246e-15 -2.11388e-30 3.62e-30 0.0645028 -2.51772e-17 -8.95591e-15 0.357773 -8.57272e-17 4.38923e-15)
(-1.15298e-14 7.87575e-30 -3.62e-30 0.0645028 1.0543e-16 -9.67367e-15 0.357773 -1.47207e-15 1.125e-17)
(-2.95546e-15 1.1983e-30 -2.52374e-32 3.07081e-14 7.29187e-16 -8.84445e-16 1.3145e-13 -4.127e-15 2.44547e-28)
(1.57772e-30 -1.30082e-30 1.4013e-45 5.20702e-29 9.61028e-16 9.86076e-32 3.55345e-15 -5.29606e-15 1.5775e-28)
(0 3.46781e-32 0 39.8812 -2.79005e-15 6.25917e-14 -0.866277 1.36199e-14 7.68834e-16)
(0 0 -5.5485e-31 39.8812 -5.42768e-31 2.57875e-13 -0.866277 4.24237e-17 -2.94627e-15)
(-4.90244e-16 5.4428e-32 0 39.6088 -1.83579e-15 1.77659e-14 -2.83149 2.75316e-14 -1.27502e-15)
(0 -2.7214e-32 1.89843e-28 39.6088 3.40709e-15 1.44299e-13 -2.83149 1.33441e-15 -7.97814e-15)
(-7.69448e-16 8.54259e-32 0 37.5986 3.58264e-15 9.34894e-15 -5.30776 2.86788e-14 -1.81238e-15)
(0 -1.28139e-31 1.34525e-43 37.5986 8.43431e-15 -3.15544e-30 -5.30776 2.20926e-15 -1.83111e-28)
(-1.22859e-15 0 0 30.7026 8.99188e-16 -9.13059e-16 -5.22578 2.12289e-14 -2.1084e-15)
(0 0 1.86228e-29 30.7026 5.91117e-15 -3.0285e-14 -5.22578 3.51689e-15 -2.71889e-15)
(0 2.10438e-31 1.6835e-30 20.4584 -5.55724e-16 -4.73205e-15 -3.98657 2.13053e-14 -1.87427e-15)
(-5.67191e-15 -2.10438e-31 0 20.4584 3.97842e-15 -7.15534e-14 -3.98657 5.59469e-15 -6.2358e-15)
(-1.34647e-16 -1.65143e-31 -6.21175e-31 12.2381 -8.67209e-16 -4.58065e-15 -3.03477 2.01501e-14 -1.23583e-15)
(5.41131e-15 0 -6.60572e-31 12.2381 2.74129e-29 -5.67763e-14 -3.03477 7.19443e-15 2.26649e-16)
(1.65153e-15 7.77585e-31 -5.1839e-31 7.41701 -2.51059e-16 -3.79582e-15 -2.39981 1.86524e-14 -1.1145e-15)
(-6.60611e-15 -7.77585e-31 1.03678e-30 7.41701 -2.07566e-15 -9.80014e-15 -2.39981 8.99522e-15 1.04311e-15)
(9.60729e-17 1.01703e-31 -6.10218e-31 4.65342 -3.93612e-16 -2.25224e-15 -1.95227 1.70827e-14 -8.3018e-16)
(7.52062e-15 -2.03406e-31 -1.7235e-31 4.65342 -2.33967e-15 8.39529e-16 -1.95227 1.06667e-14 -1.46587e-16)
(-2.06187e-15 9.97655e-32 0 2.99324 -2.9059e-15 -1.67343e-15 -1.61899 1.59581e-14 4.37811e-16)
(-2.87555e-15 -5.98593e-32 0 2.99324 -3.52543e-15 1.6125e-15 -1.61899 1.15764e-14 1.58352e-15)
(0 7.51603e-31 0 1.95972 -4.68821e-15 -3.18862e-16 -1.36315 1.53202e-14 3.62004e-15)
(-8.83887e-15 -7.51603e-31 0 1.95972 -5.02442e-15 2.13898e-15 -1.36315 1.23464e-14 2.85792e-15)
(2.33185e-15 0 0 1.30248 -4.5923e-15 1.85635e-15 -1.16466 1.47395e-14 3.38931e-15)
(-9.3274e-15 0 0 1.30248 -5.34161e-15 2.18174e-15 -1.16466 1.32416e-14 2.9043e-15)
(2.43407e-15 0 0 0.878723 -3.5127e-15 1.61912e-15 -1.01046 1.45708e-14 2.11717e-15)
(0 1.23433e-30 0 0.878723 -4.19421e-15 1.28337e-15 -1.01046 1.39729e-14 2.06403e-15)
(0 0 0 0.602082 -1.67028e-15 2.35152e-15 -0.890411 1.4025e-14 1.06956e-15)
(0 9.68652e-31 0 0.602082 -1.96706e-15 2.17522e-15 -0.890411 1.3497e-14 1.4827e-15)
(-8.61494e-15 0 -7.38694e-31 0.418798 -1.08061e-15 -2.46386e-16 -0.795888 1.27417e-14 -2.49696e-16)
(0 1.52032e-30 0 0.418798 -9.97828e-16 0 -0.795888 1.28029e-14 -9.86076e-32)
(2.66163e-15 -5.01787e-31 0 0.295074 -1.24088e-15 -1.01904e-14 -0.719075 9.45651e-15 1.17737e-15)
(-1.33331e-14 6.95806e-31 0 0.295074 -4.56385e-16 -5.61243e-15 -0.719075 1.22637e-14 1.23185e-15)
(8.43331e-15 -1.87257e-30 -7.49029e-30 0.209542 -1.21186e-15 0 -0.652134 5.26189e-15 -1.26218e-29)
(-1.50999e-14 1.223e-30 5.61772e-30 0.209542 0 -2.31603e-15 -0.652134 9.88674e-15 1.47779e-15)
(-5.33754e-16 -1.33338e-30 4.93342e-30 0.148513 -3.4523e-16 1.1688e-15 -0.585524 6.96752e-15 2.45091e-15)
(-1.11012e-14 9.37505e-30 -2.93904e-30 0.148513 -9.63295e-16 7.89028e-16 -0.585524 4.6705e-15 3.05374e-15)
(0 0 0 0.102791 1.9596e-17 8.8988e-15 -0.503205 4.11002e-15 -2.13374e-15)
(-1.13094e-14 4.63569e-30 -2.25016e-31 0.102791 -7.62062e-17 5.37376e-15 -0.503205 5.27213e-15 -2.56731e-15)
(8.15152e-15 -5.43e-30 7.24001e-30 0.0645028 2.91699e-17 8.5646e-15 -0.357773 1.69055e-15 -4.38923e-15)
(-1.15298e-14 1.07113e-31 0 0.0645028 -3.08149e-33 8.82955e-15 -0.357773 -4.76136e-45 -1.125e-17)
(2.95842e-15 -9.8152e-31 -1.13516e-29 5.11778e-14 9.31666e-16 -8.84445e-16 -2.23821e-13 5.68907e-15 -2.44547e-28)
(8.63517e-15 -2.15562e-30 3.19671e-45 5.93692e-14 6.54325e-16 7.12303e-46 -2.59345e-13 6.31498e-15 2.86394e-30)
(-2.9562e-15 -1.38228e-30 0 -4.80475e-09 8.10481e-16 1.83425e-15 2.08471e-08 -8.03062e-15 -5.26442e-15)
(2.36585e-14 1.42042e-30 0 -4.80494e-09 1.18468e-15 2.79119e-15 2.08471e-08 -9.00105e-15 3.36045e-16)
(0 9.05001e-31 -2.73691e-48 -0.0645028 1.56055e-15 0 0.357773 -5.04204e-15 0)
(1.15298e-14 0 0 -0.0645028 8.89214e-16 -2.05687e-15 0.357773 -3.28178e-15 -3.07425e-16)
(5.19364e-15 7.53909e-32 0 -0.102791 9.65003e-30 8.50614e-16 0.503205 0 -4.9832e-15)
(-5.19364e-15 -5.54086e-31 4.37906e-47 -0.102791 -8.19774e-16 9.54786e-32 0.503205 -1.8221e-15 3.54058e-47)
(3.30906e-15 -1.57187e-31 -1.00071e-31 -0.148513 -3.9443e-31 4.77223e-32 0.585524 0 7.21085e-16)
(1.11012e-14 -2.74124e-30 5.87808e-30 -0.148513 -6.91067e-16 2.04959e-15 0.585524 -1.44912e-15 1.62945e-16)
(5.44163e-15 -1.18139e-30 0 -0.209542 1.12618e-15 6.16484e-15 0.652134 -3.66028e-15 -4.82007e-16)
(1.08833e-14 2.38791e-31 0 -0.209542 9.35882e-16 7.05531e-15 0.652134 -3.10341e-15 -1.32676e-15)
(-2.66163e-15 0 0 -0.295074 1.21957e-15 5.20136e-15 0.719075 -2.47979e-15 -3.76811e-15)
(0 0 0 -0.295074 1.00321e-15 4.71034e-15 0.719075 -2.82479e-15 -9.57197e-16)
(-6.0192e-15 0 -7.6016e-31 -0.418798 1.06759e-15 1.93753e-15 0.795888 -1.49067e-15 7.15116e-16)
(-1.0383e-14 3.8008e-31 1.52032e-30 -0.418798 1.08031e-15 1.30801e-15 0.795888 -1.7163e-15 -7.01656e-16)
(2.52084e-15 0 -1.18765e-31 -0.602082 1.08202e-15 1.97215e-31 0.890411 -7.85739e-16 -9.86076e-32)
(2.01667e-14 0 9.68652e-31 -0.602082 1.30207e-15 2.53717e-15 0.890411 -4.3729e-16 2.9425e-16)
(-2.43407e-15 0 0 -0.878723 6.00692e-16 3.2215e-15 1.01046 -2.52345e-16 -1.41145e-16)
(0 -2.41781e-32 0 -0.878723 -3.52003e-44 2.40571e-15 1.01046 -1.74221e-16 2.27991e-16)
(3.5418e-15 0 0 -1.30248 3.0697e-16 -1.61487e-16 1.16466 -4.93388e-16 -3.10277e-16)
(5.7856e-15 0 -3.37294e-31 -1.30248 9.86076e-32 1.61249e-16 1.16466 -1.32721e-46 4.116e-16)
(-2.16282e-15 1.56584e-31 2.51139e-44 -1.95972 4.48927e-16 2.8256e-30 1.36315 -1.19384e-16 1.83811e-47)
(-2.25661e-15 1.68156e-44 -1.25267e-31 -1.95972 -9.11321e-31 2.25894e-16 1.36315 1.49081e-45 4.64593e-16)
(0 -1.99531e-32 0 -2.99324 -7.27923e-16 1.49676e-15 1.61899 -1.17733e-16 -9.83437e-17)
(0 3.99062e-32 0 -2.99324 -7.04435e-16 4.93038e-32 1.61899 -9.96236e-17 9.68614e-18)
(-1.88015e-15 -3.65719e-31 0 -4.65342 -3.22899e-30 3.88307e-16 1.95227 -4.93038e-32 -1.53105e-16)
(0 1.52554e-31 0 -4.65342 -4.67879e-16 5.97146e-16 1.95227 -1.933e-16 1.50234e-16)
(0 -1.29598e-31 -2.14976e-32 -7.41701 1.11203e-15 1.49294e-30 2.39981 -2.62694e-16 0)
(6.60611e-15 1.29598e-31 -1.10905e-31 -7.41701 1.18256e-16 -1.62088e-17 2.39981 -1.48706e-16 1.96241e-16)
(0 -1.16116e-32 0 -12.238 1.16227e-15 1.98419e-16 3.03477 -9.39842e-17 -7.29417e-17)
(-5.41131e-15 0 -8.25715e-32 -12.238 0 -1.12187e-15 3.03477 -3.6231e-17 1.46738e-16)
(-4.73502e-15 -5.91856e-32 -1.05219e-31 -20.4584 8.04659e-16 -3.41672e-16 3.98657 5.86987e-17 -1.49049e-16)
(5.67191e-15 6.24736e-32 1.52239e-32 -20.4584 -1.80675e-16 -1.97215e-31 3.98657 -2.96493e-16 5.48501e-17)
(-4.09529e-16 -4.33253e-44 0 -30.7026 2.4389e-30 5.8923e-17 5.22578 0 -2.01226e-16)
(4.3045e-16 2.51396e-32 1.34078e-31 -30.7026 6.7125e-16 4.81329e-16 5.22578 -7.31328e-17 5.77614e-17)
(7.69448e-16 -3.22545e-30 0 -37.5986 -1.38197e-31 1.1892e-15 5.30776 0 -2.05955e-16)
(0 -9.89126e-34 -1.70852e-31 -37.5986 -2.46519e-32 1.67736e-15 5.30776 -7.1274e-18 5.98439e-17)
(4.90244e-16 3.47459e-31 -1.08856e-31 -39.6088 -7.40442e-32 3.79315e-15 2.83149 0 -1.57509e-16)
(0 -1.27566e-33 4.59122e-30 -39.6088 -1.53708e-16 5.84849e-15 2.83149 -6.57944e-18 4.58439e-17)
(0 -2.19949e-31 1.50196e-29 -39.8812 6.16298e-33 1.28779e-15 0.866277 -1.92593e-34 -1.33705e-17)
(0 1.99153e-46 0 -39.8812 -2.24232e-32 5.71692e-15 0.866277 -4.86226e-50 3.58114e-17)
(9.35467e-15 0 0 -4.80474e-09 1.05941e-15 -1.81401e-15 -2.08471e-08 8.30545e-15 5.26442e-15)
(5.43667e-15 -1.24452e-30 -2.84083e-30 -4.80474e-09 9.86322e-16 -2.87993e-15 -2.08471e-08 4.2795e-15 -3.36045e-16)
(-4.07576e-15 0 -5.41978e-31 -0.0645028 1.12046e-15 0 -0.357773 5.04204e-15 4.8817e-16)
(0 4.525e-31 0 -0.0645028 5.59643e-16 1.38684e-15 -0.357773 3.28178e-15 3.07425e-16)
(-2.82736e-15 1.27979e-31 0 -0.102791 -5.23707e-16 6.22656e-17 -0.503205 -5.43249e-16 4.9832e-15)
(0 -4.32457e-31 4.61288e-30 -0.102791 -6.1436e-16 1.5051e-16 -0.503205 1.8221e-15 1.83838e-15)
(-2.77531e-15 2.36392e-30 -4.68121e-44 -0.148513 -3.15438e-16 -3.9443e-31 -0.585524 6.61454e-16 -3.5849e-29)
(0 7.3476e-31 4.92203e-31 -0.148513 -1.02326e-16 -2.23961e-15 -0.585524 7.49952e-16 -1.62945e-16)
(2.72081e-15 9.36286e-31 -3.74514e-30 -0.209542 1.55823e-15 -9.0455e-15 -0.652134 4.54334e-15 4.82007e-16)
(1.08833e-14 -4.68143e-31 0 -0.209542 1.19292e-15 -7.59975e-15 -0.652134 4.35991e-15 1.32676e-15)
(-2.68659e-15 -2.98271e-31 1.19309e-30 -0.295074 9.84847e-16 -3.54881e-15 -0.719075 2.47979e-15 3.76811e-15)
(-1.06465e-14 5.96543e-31 -1.19309e-30 -0.295074 1.00405e-15 -4.23693e-15 -0.719075 2.82479e-15 9.57197e-16)
(2.59574e-15 0 -1.4013e-45 -0.418798 5.70194e-16 -2.46519e-32 -0.795888 1.49067e-15 -1.99171e-30)
(-1.38064e-14 1.9004e-31 0 -0.418798 1.29584e-15 1.49542e-17 -0.795888 1.7163e-15 7.01656e-16)
(2.52084e-15 1.05946e-31 0 -0.602082 4.49026e-16 -2.35746e-15 -0.890411 7.85739e-16 8.55793e-16)
(0 2.42745e-31 -1.5064e-44 -0.602082 0 -1.97215e-31 -0.890411 4.3729e-16 -2.72157e-29)
(2.77946e-15 0 0 -0.878723 -2.46519e-31 -2.51822e-15 -1.01046 2.52345e-16 1.41145e-16)
(0 -4.38179e-31 0 -0.878723 -1.50581e-16 -2.1694e-15 -1.01046 9.39809e-17 -2.27991e-16)
(2.33185e-15 0 -1.96609e-31 -1.30248 0 -1.60164e-16 -1.16466 9.86076e-32 3.10277e-16)
(0 0 0 -1.30248 -6.28746e-17 0 -1.16466 3.4416e-16 -4.93038e-32)
(2.20972e-15 -3.13168e-32 2.50534e-31 -1.95972 4.11583e-16 -5.29746e-17 -1.36315 1.19384e-16 3.18134e-16)
(-8.83887e-15 9.39504e-32 -2.50534e-31 -1.95972 -1.43898e-16 -1.43091e-15 -1.36315 -5.68539e-17 -4.64593e-16)
(2.06187e-15 0 0 -2.99324 -9.80144e-17 -1.05941e-15 -1.61899 1.17733e-16 9.83437e-17)
(-1.1123e-14 3.50325e-46 0 -2.99324 -1.2326e-32 -1.07682e-15 -1.61899 -1.75029e-30 -9.68614e-18)
(-1.83212e-15 0 1.01703e-31 -4.65342 7.27282e-17 -6.00279e-16 -1.95227 3.41347e-16 1.53105e-16)
(-7.52062e-15 -3.82175e-31 -1.01703e-31 -4.65342 1.06537e-16 1.42802e-16 -1.95227 2.52184e-17 -1.50234e-16)
(0 -6.47988e-32 0 -7.41701 2.78061e-16 4.55009e-16 -2.39981 1.10031e-16 1.54907e-16)
(0 0 -3.50325e-46 -7.41701 7.71359e-16 -6.16298e-33 -2.39981 1.48706e-16 -4.93038e-31)
(0 0 8.25715e-32 -12.238 1.02915e-15 -2.8901e-16 -3.03477 9.39842e-17 7.29417e-17)
(-1.08226e-14 0 -1.65143e-31 -12.238 -1.0828e-15 1.16898e-16 -3.03477 3.6231e-17 -1.46738e-16)
(-7.22273e-18 -7.89141e-32 0 -20.4584 1.13893e-15 -7.54462e-16 -3.98657 -5.86987e-17 1.49049e-16)
(0 -2.45227e-45 -7.00649e-46 -20.4584 4.93038e-32 1.47277e-44 -3.98657 -5.0394e-30 -1.46599e-30)
(1.20766e-15 -9.21784e-32 4.02233e-31 -30.7026 -4.37899e-16 -6.29044e-16 -5.22578 -5.55304e-17 2.01226e-16)
(-1.20766e-15 9.21784e-32 1.62071e-31 -30.7026 2.34054e-15 -3.51613e-16 -5.22578 7.31328e-17 -3.15667e-17)
(-7.69448e-16 5.33912e-33 -8.54259e-32 -37.5986 -7.55756e-16 -4.77664e-16 -5.30776 1.55597e-17 2.05955e-16)
(0 0 3.32833e-30 -37.5986 6.79438e-16 -1.66283e-15 -5.30776 7.1274e-18 -5.98439e-17)
(0 -1.70088e-33 1.08856e-31 -39.6088 6.13249e-17 -1.01181e-16 -2.83149 -5.56107e-18 1.57509e-16)
(0 1.70088e-33 -1.08856e-31 -39.6088 3.46945e-16 -6.73179e-15 -2.83149 6.57944e-18 -4.58439e-17)
(-1.56176e-16 6.39102e-34 2.60086e-32 -39.8812 -1.47298e-32 -9.79861e-17 -0.866277 1.1513e-18 1.33705e-17)
(1.56176e-16 1.35462e-33 -1.90009e-29 -39.8812 1.07202e-16 -6.08924e-15 -0.866277 -2.52463e-18 -3.58114e-17)
)
;

boundaryField
{
    walls
    {
        type            extrapolatedCalculated;
        value           nonuniform List<tensor> 8((0 1.55358e-29 -3.60722e-28 39.9312 -1.25875e-12 -1.7634e-13 0.866277 -1.36199e-14 -9.86076e-32) (0 3.46781e-32 0 39.9312 3.12854e-15 1.05461e-13 -0.866277 1.36199e-14 7.68834e-16) (0 -1.67841e-28 -1.38713e-30 39.9312 -1.13023e-14 1.97215e-29 0.866277 -4.24237e-17 2.94627e-15) (0 0 -5.5485e-31 39.9312 7.39121e-15 2.71618e-13 -0.866277 4.24237e-17 -2.94627e-15) (0 -2.19949e-31 1.50196e-29 -39.9312 2.44966e-16 1.26021e-15 0.866277 -1.92593e-34 -1.33705e-17) (-1.56176e-16 6.39102e-34 2.60086e-32 -39.9312 -1.38827e-16 -2.75799e-17 -0.866277 1.1513e-18 1.33705e-17) (0 1.99153e-46 0 -39.9312 -2.60152e-16 1.39389e-15 0.866277 -4.86226e-50 3.58114e-17) (1.56176e-16 1.35462e-33 -1.90009e-29 -39.9312 2.74057e-17 -4.69535e-15 -0.866277 -2.52463e-18 -3.58114e-17));
    }
    inlet
    {
        type            cyclic;
    }
    outlet
    {
        type            cyclic;
    }
    sides
    {
        type            empty;
    }
}


// ************************************************************************* //
