/*--------------------------------*- C++ -*----------------------------------*\
| =========                 |                                                 |
| \\      /  F ield         | OpenFOAM: The Open Source CFD Toolbox           |
|  \\    /   O peration     | Version:  2012                                  |
|   \\  /    A nd           | Website:  www.openfoam.com                      |
|    \\/     M anipulation  |                                                 |
\*---------------------------------------------------------------------------*/
FoamFile
{
    version     2.0;
    format      ascii;
    class       volScalarField;
    location    "12700";
    object      nut;
}
// * * * * * * * * * * * * * * * * * * * * * * * * * * * * * * * * * * * * * //

dimensions      [0 2 -1 0 0 0 0];


internalField   nonuniform List<scalar> 
2560
(
1.18579e-08
1.18488e-08
1.95553e-06
1.95413e-06
3.89095e-05
3.88842e-05
0.000215928
0.000215824
0.000568819
0.000568618
0.00104871
0.00104841
0.00161652
0.00161613
0.00225091
0.00225043
0.00293963
0.00293906
0.00367492
0.00367425
0.00445145
0.00445068
0.00526529
0.00526442
0.00611344
0.00611247
0.00699348
0.00699241
0.00790344
0.00790225
0.00884161
0.00884032
0.00980655
0.00980515
0.010797
0.0107955
0.0118118
0.0118101
0.0128498
0.0128481
0.0139102
0.0139083
0.014992
0.01499
0.0160944
0.0160922
0.0172165
0.0172142
0.0183575
0.0183551
0.0195168
0.0195143
0.0206936
0.0206909
0.0218871
0.0218843
0.0230967
0.0230938
0.0243218
0.0243187
0.0255616
0.0255583
0.0268154
0.026812
0.0280827
0.0280791
0.0293626
0.0293589
0.0306546
0.0306507
0.0319577
0.0319536
0.0332712
0.033267
0.0345944
0.03459
0.0359263
0.0359217
0.0372663
0.0372615
0.0386134
0.0386085
0.0399671
0.039962
0.0413264
0.0413211
0.0426906
0.0426851
0.0440586
0.044053
0.0454294
0.0454237
0.0468017
0.0467958
0.048174
0.0481678
0.0495445
0.0495382
0.0509116
0.0509051
0.0522734
0.0522667
0.0536283
0.0536214
0.0549747
0.0549676
0.0563116
0.0563043
0.0576389
0.0576314
0.0589583
0.0589505
0.0602735
0.0602655
0.0615904
0.0615822
0.0629154
0.0629069
0.0642516
0.0642429
0.0655956
0.0655866
0.0669288
0.0669196
0.0682215
0.0682121
0.0694352
0.0694257
0.0705307
0.0705212
0.0714766
0.0714671
0.0722558
0.0722465
0.0728675
0.0728585
0.0733257
0.073317
0.0736548
0.0736465
0.0738844
0.0738765
0.0740449
0.0740375
0.0741643
0.0741572
0.0742661
0.0742593
0.0743683
0.0743618
0.0744833
0.074477
0.0746191
0.074613
0.0747776
0.0747716
0.0749573
0.0749515
0.0751544
0.0751488
0.0753628
0.0753576
0.0755758
0.0755709
0.0757862
0.0757817
0.0759871
0.075983
0.0761722
0.0761685
0.0763357
0.0763325
0.0764729
0.07647
0.0765797
0.0765772
0.0766533
0.076651
0.0766918
0.0766897
0.0766948
0.076693
0.0766636
0.0766619
0.0766008
0.0765992
0.0765107
0.0765093
0.0763989
0.0763975
0.0762715
0.0762702
0.0761353
0.0761341
0.0759965
0.0759953
0.0758604
0.0758593
0.0757313
0.0757301
0.0756119
0.0756108
0.075504
0.0755029
0.0754084
0.0754074
0.0753256
0.0753246
0.0752559
0.0752549
0.0751999
0.075199
0.0751586
0.0751577
0.0751337
0.0751328
0.0751267
0.0751258
0.0751394
0.0751386
0.0751733
0.0751725
0.0752285
0.0752278
0.0753047
0.075304
0.0753998
0.0753991
0.0755107
0.07551
0.0756333
0.0756326
0.0757629
0.0757623
0.0758954
0.0758948
0.0760274
0.0760268
0.0761576
0.0761571
0.0762871
0.0762867
0.0764195
0.076419
0.0765603
0.0765599
0.0767169
0.0767164
0.0768964
0.076896
0.0771056
0.0771052
0.0773496
0.0773492
0.0776305
0.0776301
0.0779482
0.0779478
0.0783009
0.0783004
0.0786854
0.078685
0.0790988
0.0790983
0.0795381
0.0795377
0.0800018
0.0800014
0.0804894
0.0804889
0.0810014
0.0810009
0.081539
0.0815385
0.082104
0.0821035
0.0826983
0.0826978
0.0833235
0.083323
0.0839809
0.0839803
0.0846712
0.0846706
0.0853947
0.0853941
0.0861512
0.0861505
0.0869399
0.0869392
0.0877601
0.0877593
0.0886107
0.08861
0.0894912
0.0894904
0.0904014
0.0904005
0.0913415
0.0913406
0.0923129
0.0923119
0.0933174
0.0933164
0.0943577
0.0943566
0.095437
0.0954358
0.0965588
0.0965575
0.0977268
0.0977255
0.0989446
0.0989431
0.100215
0.100214
0.101542
0.10154
0.102925
0.102924
0.104368
0.104366
0.105869
0.105867
0.107428
0.107426
0.109042
0.10904
0.110707
0.110705
0.112419
0.112416
0.114167
0.114164
0.115944
0.115941
0.117737
0.117734
0.119533
0.119529
0.121315
0.121311
0.123068
0.123064
0.124777
0.124773
0.126429
0.126426
0.128016
0.128013
0.129534
0.129532
0.130986
0.130986
0.132383
0.132384
0.133743
0.133744
0.135089
0.135089
0.136448
0.136449
0.13785
0.137851
0.13932
0.139321
0.140878
0.140878
0.142535
0.142534
0.14429
0.144289
0.14613
0.146129
0.148034
0.148032
0.149971
0.14997
0.151912
0.151911
0.153824
0.153823
0.155678
0.155679
0.157456
0.157457
0.159142
0.159144
0.160729
0.160732
0.162219
0.162222
0.163618
0.163621
0.164939
0.164942
0.1662
0.166203
0.167422
0.167424
0.168625
0.168627
0.169831
0.169833
0.171063
0.171064
0.172339
0.17234
0.17368
0.17368
0.1751
0.175101
0.176616
0.176616
0.178238
0.178238
0.179978
0.179978
0.181842
0.181841
0.183834
0.183833
0.185954
0.185953
0.188198
0.188197
0.190555
0.190554
0.193009
0.193008
0.195536
0.195534
0.198103
0.198102
0.200674
0.200671
0.203202
0.203199
0.205641
0.205638
0.207946
0.207942
0.210074
0.21007
0.211994
0.211991
0.21369
0.213687
0.215163
0.21516
0.216438
0.216436
0.217554
0.217554
0.218563
0.218564
0.219527
0.219527
0.220508
0.220509
0.221564
0.221565
0.222735
0.222735
0.224038
0.224038
0.225473
0.225472
0.227019
0.227018
0.228649
0.228648
0.230333
0.230332
0.232049
0.232048
0.23379
0.233789
0.235565
0.235566
0.237397
0.237397
0.239313
0.239314
0.241346
0.241347
0.243529
0.243529
0.245889
0.245889
0.248448
0.248448
0.25122
0.25122
0.254217
0.254217
0.257446
0.257446
0.260918
0.260918
0.264639
0.264639
0.268619
0.268619
0.272868
0.272868
0.277391
0.277391
0.282195
0.282194
0.28728
0.28728
0.292648
0.292648
0.298296
0.298296
0.304221
0.304221
0.31042
0.31042
0.316892
0.316892
0.323636
0.323636
0.330655
0.330655
0.337954
0.337954
0.34554
0.345539
0.35342
0.35342
0.361604
0.361604
0.3701
0.370099
0.378912
0.378912
0.388044
0.388044
0.397495
0.397495
0.407263
0.407263
0.417342
0.417342
0.427726
0.427726
0.438408
0.438407
0.449379
0.449379
0.460632
0.460632
0.47216
0.47216
0.483953
0.483953
0.496003
0.496003
0.5083
0.5083
0.520834
0.520834
0.533593
0.533593
0.546565
0.546565
0.559739
0.559738
0.5731
0.5731
0.58664
0.586639
0.600345
0.600345
0.61421
0.61421
0.628225
0.628225
0.642385
0.642385
0.656684
0.656684
0.671113
0.671113
0.685663
0.685663
0.700322
0.700321
0.715072
0.715072
0.729899
0.729899
0.744782
0.744782
0.759706
0.759706
0.774653
0.774653
0.789612
0.789612
0.804571
0.804571
0.819524
0.819524
0.834463
0.834463
0.849384
0.849384
0.864284
0.864284
0.879156
0.879156
0.893995
0.893995
0.908792
0.908792
0.92354
0.92354
0.938227
0.938227
0.952836
0.952836
0.967344
0.967344
0.981706
0.981706
0.995835
0.995835
1.00956
1.00956
1.02249
1.02249
1.03385
1.03385
1.04204
1.04204
1.04177
1.04177
1.18488e-08
1.18579e-08
1.95412e-06
1.95553e-06
3.88842e-05
3.89095e-05
0.000215824
0.000215928
0.000568618
0.00056882
0.00104841
0.00104871
0.00161613
0.00161652
0.00225043
0.00225091
0.00293905
0.00293963
0.00367425
0.00367492
0.00445067
0.00445145
0.00526442
0.00526529
0.00611246
0.00611344
0.00699241
0.00699348
0.00790225
0.00790344
0.00884031
0.00884161
0.00980514
0.00980655
0.0107955
0.010797
0.0118101
0.0118118
0.012848
0.0128498
0.0139083
0.0139102
0.01499
0.014992
0.0160922
0.0160944
0.0172142
0.0172165
0.0183551
0.0183575
0.0195143
0.0195168
0.0206909
0.0206936
0.0218843
0.0218871
0.0230938
0.0230968
0.0243186
0.0243218
0.0255583
0.0255616
0.026812
0.0268154
0.0280791
0.0280827
0.0293589
0.0293626
0.0306506
0.0306546
0.0319536
0.0319577
0.033267
0.0332712
0.03459
0.0345944
0.0359217
0.0359263
0.0372615
0.0372663
0.0386085
0.0386134
0.039962
0.0399671
0.0413211
0.0413264
0.0426851
0.0426906
0.044053
0.0440586
0.0454236
0.0454294
0.0467957
0.0468017
0.0481678
0.048174
0.0495382
0.0495445
0.050905
0.0509116
0.0522667
0.0522734
0.0536214
0.0536283
0.0549676
0.0549747
0.0563043
0.0563116
0.0576314
0.0576389
0.0589505
0.0589583
0.0602655
0.0602735
0.0615822
0.0615904
0.0629069
0.0629154
0.0642428
0.0642516
0.0655866
0.0655956
0.0669196
0.0669288
0.0682121
0.0682215
0.0694257
0.0694352
0.0705211
0.0705307
0.0714671
0.0714766
0.0722465
0.0722558
0.0728584
0.0728675
0.073317
0.0733257
0.0736465
0.0736548
0.0738765
0.0738844
0.0740374
0.0740449
0.0741572
0.0741643
0.0742593
0.0742661
0.0743617
0.0743683
0.074477
0.0744833
0.0746129
0.0746191
0.0747716
0.0747776
0.0749515
0.0749573
0.0751488
0.0751544
0.0753576
0.0753628
0.0755709
0.0755758
0.0757817
0.0757862
0.075983
0.0759871
0.0761685
0.0761721
0.0763325
0.0763357
0.07647
0.0764729
0.0765772
0.0765797
0.076651
0.0766533
0.0766897
0.0766918
0.0766929
0.0766948
0.0766619
0.0766636
0.0765992
0.0766008
0.0765092
0.0765107
0.0763975
0.0763988
0.0762702
0.0762715
0.0761341
0.0761353
0.0759953
0.0759965
0.0758593
0.0758604
0.0757301
0.0757312
0.0756107
0.0756118
0.0755029
0.0755039
0.0754074
0.0754084
0.0753246
0.0753256
0.0752549
0.0752559
0.0751989
0.0751999
0.0751577
0.0751586
0.0751328
0.0751336
0.0751258
0.0751266
0.0751386
0.0751394
0.0751724
0.0751732
0.0752277
0.0752285
0.0753039
0.0753046
0.075399
0.0753997
0.07551
0.0755106
0.0756326
0.0756332
0.0757623
0.0757629
0.0758947
0.0758953
0.0760268
0.0760273
0.0761571
0.0761576
0.0762866
0.0762871
0.076419
0.0764194
0.0765598
0.0765603
0.0767164
0.0767168
0.0768959
0.0768964
0.0771051
0.0771055
0.0773491
0.0773495
0.07763
0.0776304
0.0779477
0.0779481
0.0783003
0.0783008
0.0786849
0.0786853
0.0790982
0.0790986
0.0795375
0.079538
0.0800012
0.0800017
0.0804888
0.0804893
0.0810007
0.0810012
0.0815383
0.0815388
0.0821034
0.0821039
0.0826976
0.0826982
0.0833228
0.0833234
0.0839802
0.0839807
0.0846704
0.084671
0.0853939
0.0853945
0.0861503
0.086151
0.086939
0.0869397
0.0877591
0.0877599
0.0886097
0.0886105
0.0894902
0.089491
0.0904003
0.0904011
0.0913404
0.0913413
0.0923117
0.0923126
0.0933161
0.0933172
0.0943563
0.0943574
0.0954355
0.0954367
0.0965572
0.0965585
0.0977252
0.0977266
0.0989428
0.0989443
0.100213
0.100215
0.10154
0.101541
0.102923
0.102925
0.104365
0.104368
0.105866
0.105869
0.107425
0.107428
0.109039
0.109042
0.110704
0.110707
0.112415
0.112418
0.114164
0.114167
0.115941
0.115944
0.117733
0.117737
0.119528
0.119532
0.12131
0.121314
0.123064
0.123067
0.124773
0.124777
0.126426
0.126429
0.128013
0.128016
0.129532
0.129533
0.130985
0.130986
0.132383
0.132383
0.133743
0.133743
0.135089
0.135088
0.136448
0.136448
0.13785
0.13785
0.13932
0.13932
0.140878
0.140878
0.142534
0.142534
0.144289
0.144289
0.146128
0.14613
0.148032
0.148033
0.149969
0.149971
0.15191
0.151911
0.153822
0.153823
0.155678
0.155677
0.157456
0.157455
0.159143
0.159141
0.160732
0.160729
0.162221
0.162218
0.16362
0.163617
0.164941
0.164938
0.166202
0.1662
0.167424
0.167421
0.168626
0.168624
0.169833
0.169831
0.171064
0.171062
0.17234
0.172339
0.17368
0.173679
0.1751
0.175099
0.176615
0.176615
0.178237
0.178237
0.179977
0.179977
0.18184
0.18184
0.183832
0.183832
0.185951
0.185952
0.188195
0.188196
0.190552
0.190553
0.193005
0.193007
0.195532
0.195534
0.198099
0.198101
0.200669
0.200672
0.203197
0.2032
0.205636
0.20564
0.20794
0.207944
0.210069
0.210073
0.211989
0.211994
0.213686
0.21369
0.21516
0.215163
0.216436
0.216438
0.217554
0.217554
0.218564
0.218563
0.219528
0.219527
0.220509
0.220509
0.221565
0.221565
0.222734
0.222734
0.224037
0.224037
0.225471
0.225472
0.227017
0.227018
0.228647
0.228648
0.230331
0.230332
0.232047
0.232049
0.233789
0.233789
0.235565
0.235565
0.237397
0.237397
0.239314
0.239313
0.241347
0.241346
0.24353
0.243529
0.245889
0.245889
0.248448
0.248448
0.25122
0.25122
0.254216
0.254216
0.257446
0.257446
0.260917
0.260917
0.264639
0.264639
0.268619
0.268619
0.272867
0.272867
0.27739
0.277391
0.282194
0.282194
0.287279
0.28728
0.292647
0.292647
0.298295
0.298295
0.30422
0.30422
0.310419
0.310419
0.316891
0.316891
0.323635
0.323636
0.330655
0.330655
0.337954
0.337954
0.345539
0.34554
0.35342
0.35342
0.361604
0.361605
0.370099
0.3701
0.378912
0.378912
0.388043
0.388044
0.397495
0.397495
0.407262
0.407263
0.417342
0.417342
0.427726
0.427726
0.438407
0.438407
0.449378
0.449379
0.460632
0.460632
0.472159
0.472159
0.483952
0.483953
0.496002
0.496003
0.508299
0.5083
0.520833
0.520834
0.533592
0.533593
0.546565
0.546565
0.559738
0.559738
0.5731
0.5731
0.586639
0.586639
0.600345
0.600346
0.614209
0.61421
0.628225
0.628225
0.642385
0.642385
0.656683
0.656684
0.671112
0.671113
0.685662
0.685663
0.700321
0.700321
0.715071
0.715072
0.729898
0.729898
0.744781
0.744781
0.759705
0.759705
0.774652
0.774653
0.789611
0.789612
0.804571
0.804571
0.819523
0.819523
0.834462
0.834462
0.849384
0.849384
0.864283
0.864283
0.879154
0.879155
0.893993
0.893993
0.90879
0.90879
0.923537
0.923537
0.938222
0.938223
0.95283
0.952831
0.967336
0.967336
0.981695
0.981695
0.995822
0.995822
1.00954
1.00954
1.02247
1.02247
1.03383
1.03383
1.04202
1.04202
1.04175
1.04175
1.04177
1.04177
1.04204
1.04204
1.03386
1.03386
1.0225
1.0225
1.00956
1.00956
0.995843
0.995843
0.981714
0.981714
0.967354
0.967354
0.952847
0.952847
0.938238
0.938238
0.923551
0.923551
0.908804
0.908804
0.894006
0.894006
0.879168
0.879167
0.864296
0.864296
0.849398
0.849398
0.834477
0.834477
0.819539
0.819539
0.804587
0.804587
0.789628
0.789628
0.77467
0.774669
0.759723
0.759723
0.7448
0.7448
0.729917
0.729917
0.715092
0.715092
0.700341
0.700341
0.685683
0.685683
0.671134
0.671134
0.656705
0.656705
0.642407
0.642407
0.628247
0.628247
0.614232
0.614232
0.600368
0.600368
0.586663
0.586662
0.573123
0.573123
0.559761
0.55976
0.546587
0.546587
0.533614
0.533614
0.520855
0.520854
0.50832
0.50832
0.496023
0.496023
0.483973
0.483973
0.472179
0.472179
0.460651
0.460651
0.449397
0.449397
0.438425
0.438425
0.427743
0.427743
0.417358
0.417358
0.407279
0.407278
0.39751
0.39751
0.388058
0.388058
0.378925
0.378925
0.370112
0.370112
0.361616
0.361616
0.353431
0.353431
0.34555
0.34555
0.337963
0.337963
0.330664
0.330663
0.323644
0.323643
0.316898
0.316898
0.310425
0.310425
0.304225
0.304225
0.298299
0.298299
0.29265
0.29265
0.287282
0.287282
0.282196
0.282195
0.277392
0.277391
0.272868
0.272867
0.268619
0.268618
0.264638
0.264637
0.260916
0.260916
0.257444
0.257444
0.254213
0.254213
0.251216
0.251216
0.248443
0.248444
0.245884
0.245885
0.243524
0.243524
0.24134
0.241341
0.239307
0.239308
0.237391
0.237392
0.23556
0.23556
0.233785
0.233785
0.232045
0.232044
0.23033
0.230329
0.228647
0.228646
0.227017
0.227016
0.225471
0.225471
0.224037
0.224037
0.222734
0.222734
0.221565
0.221565
0.220509
0.22051
0.219528
0.219529
0.218565
0.218566
0.217557
0.217557
0.216442
0.21644
0.215168
0.215165
0.213695
0.213692
0.212
0.211996
0.210079
0.210075
0.207951
0.207947
0.205646
0.205643
0.203207
0.203204
0.200679
0.200677
0.198109
0.198107
0.195541
0.195539
0.193014
0.193013
0.19056
0.190558
0.188202
0.188201
0.185958
0.185957
0.183838
0.183837
0.181846
0.181845
0.179982
0.179982
0.178242
0.178242
0.176619
0.176619
0.175103
0.175104
0.173682
0.173683
0.172342
0.172343
0.171065
0.171067
0.169833
0.169835
0.168627
0.168629
0.167423
0.167426
0.166202
0.166205
0.16494
0.164944
0.163619
0.163622
0.16222
0.162223
0.16073
0.160733
0.159142
0.159145
0.157456
0.157458
0.155679
0.155679
0.153824
0.153823
0.151912
0.151911
0.149971
0.14997
0.148033
0.148032
0.14613
0.146129
0.14429
0.144289
0.142534
0.142534
0.140878
0.140878
0.13932
0.13932
0.137849
0.13785
0.136448
0.136448
0.135088
0.135089
0.133742
0.133743
0.132383
0.132383
0.130986
0.130985
0.129533
0.129532
0.128016
0.128013
0.126429
0.126426
0.124777
0.124773
0.123068
0.123064
0.121314
0.12131
0.119532
0.119528
0.117737
0.117733
0.115944
0.115941
0.114167
0.114164
0.112418
0.112415
0.110707
0.110704
0.109041
0.109039
0.107427
0.107425
0.105868
0.105866
0.104367
0.104365
0.102924
0.102922
0.10154
0.101539
0.100214
0.100212
0.098943
0.0989415
0.0977251
0.0977237
0.0965569
0.0965556
0.0954349
0.0954337
0.0943554
0.0943543
0.0933149
0.0933138
0.0923101
0.0923091
0.0913385
0.0913375
0.090398
0.0903971
0.0894876
0.0894868
0.0886068
0.088606
0.0877559
0.0877551
0.0869354
0.0869347
0.0861465
0.0861458
0.0853898
0.0853891
0.0846661
0.0846655
0.0839755
0.0839749
0.083318
0.0833174
0.0826926
0.082692
0.0820981
0.0820976
0.0815328
0.0815323
0.080995
0.0809945
0.0804828
0.0804823
0.0799949
0.0799944
0.0795308
0.0795304
0.0790912
0.0790907
0.0786776
0.0786771
0.0782927
0.0782923
0.0779399
0.0779394
0.077622
0.0776215
0.0773408
0.0773404
0.0770966
0.0770962
0.0768872
0.0768868
0.0767075
0.076707
0.0765508
0.0765504
0.0764098
0.0764094
0.0762773
0.0762768
0.0761477
0.0761472
0.0760173
0.0760168
0.0758852
0.0758846
0.0757527
0.0757521
0.075623
0.0756224
0.0755004
0.0754997
0.0753894
0.0753887
0.0752942
0.0752935
0.0752179
0.0752172
0.0751625
0.0751617
0.0751286
0.0751278
0.0751158
0.0751149
0.0751226
0.0751218
0.0751475
0.0751466
0.0751887
0.0751878
0.0752446
0.0752437
0.0753143
0.0753133
0.075397
0.075396
0.0754924
0.0754914
0.0756003
0.0755992
0.0757196
0.0757185
0.0758487
0.0758476
0.0759847
0.0759835
0.0761234
0.0761222
0.0762596
0.0762582
0.0763868
0.0763854
0.0764986
0.0764972
0.0765887
0.0765872
0.0766516
0.0766499
0.076683
0.0766811
0.07668
0.0766779
0.0766415
0.0766392
0.0765679
0.0765653
0.076461
0.0764581
0.0763237
0.0763204
0.07616
0.0761563
0.0759748
0.0759706
0.0757737
0.0757691
0.0755631
0.0755581
0.07535
0.0753446
0.0751414
0.0751356
0.0749442
0.0749382
0.0747643
0.074758
0.0746057
0.0745993
0.0744698
0.0744632
0.0743546
0.0743478
0.0742522
0.0742452
0.0741504
0.074143
0.074031
0.0740232
0.0738704
0.0738622
0.0736409
0.0736322
0.073312
0.0733029
0.0728541
0.0728446
0.0722427
0.072233
0.0714639
0.071454
0.0705182
0.0705083
0.0694229
0.069413
0.0682094
0.0681996
0.0669169
0.0669073
0.065584
0.0655746
0.0642403
0.0642312
0.0629042
0.0628954
0.0615794
0.0615708
0.0602626
0.0602543
0.0589476
0.0589395
0.0576285
0.0576206
0.0563015
0.0562938
0.0549649
0.0549575
0.0536189
0.0536117
0.0522643
0.0522573
0.0509027
0.0508959
0.049536
0.0495293
0.0481657
0.0481593
0.0467938
0.0467876
0.0454218
0.0454158
0.0440513
0.0440455
0.0426836
0.0426779
0.0413197
0.0413142
0.0399606
0.0399553
0.0386073
0.0386022
0.0372604
0.0372554
0.0359207
0.0359159
0.034589
0.0345844
0.0332661
0.0332617
0.0319528
0.0319486
0.0306499
0.0306458
0.0293582
0.0293543
0.0280785
0.0280747
0.0268114
0.0268079
0.0255578
0.0255544
0.0243182
0.0243149
0.0230934
0.0230903
0.0218839
0.021881
0.0206906
0.0206878
0.019514
0.0195114
0.0183549
0.0183524
0.0172141
0.0172117
0.0160921
0.0160899
0.0149899
0.0149878
0.0139083
0.0139063
0.012848
0.0128462
0.0118101
0.0118084
0.0107955
0.0107939
0.0098052
0.00980373
0.00884038
0.00883904
0.00790233
0.0079011
0.0069925
0.00699138
0.00611257
0.00611156
0.00526453
0.00526363
0.00445079
0.00444999
0.00367437
0.00367367
0.00293918
0.00293857
0.00225054
0.00225004
0.00161623
0.00161583
0.0010485
0.00104819
0.000568685
0.000568476
0.000215862
0.000215754
3.88941e-05
3.88677e-05
1.95469e-06
1.95323e-06
1.1853e-08
1.18435e-08
1.04176
1.04176
1.04202
1.04202
1.03384
1.03384
1.02248
1.02248
1.00955
1.00955
0.99583
0.99583
0.981704
0.981704
0.967346
0.967346
0.952841
0.952842
0.938233
0.938234
0.923548
0.923548
0.908801
0.908801
0.894004
0.894004
0.879166
0.879166
0.864295
0.864295
0.849397
0.849397
0.834476
0.834477
0.819538
0.819538
0.804586
0.804587
0.789627
0.789627
0.774669
0.774669
0.759722
0.759722
0.744799
0.744799
0.729916
0.729917
0.715091
0.715091
0.70034
0.700341
0.685682
0.685683
0.671133
0.671133
0.656704
0.656705
0.642406
0.642407
0.628247
0.628247
0.614232
0.614232
0.600368
0.600368
0.586662
0.586663
0.573123
0.573123
0.55976
0.55976
0.546586
0.546587
0.533613
0.533614
0.520854
0.520854
0.50832
0.50832
0.496022
0.496023
0.483972
0.483972
0.472178
0.472179
0.46065
0.460651
0.449396
0.449397
0.438425
0.438425
0.427743
0.427743
0.417358
0.417358
0.407278
0.407279
0.39751
0.39751
0.388058
0.388058
0.378925
0.378926
0.370112
0.370113
0.361616
0.361617
0.353431
0.353432
0.34555
0.34555
0.337963
0.337963
0.330663
0.330664
0.323643
0.323643
0.316897
0.316898
0.310424
0.310425
0.304224
0.304224
0.298298
0.298298
0.292649
0.29265
0.287281
0.287281
0.282195
0.282195
0.277391
0.277391
0.272867
0.272867
0.268618
0.268618
0.264637
0.264637
0.260915
0.260915
0.257444
0.257444
0.254213
0.254213
0.251216
0.251216
0.248444
0.248443
0.245885
0.245884
0.243524
0.243524
0.241341
0.24134
0.239308
0.239307
0.237392
0.237391
0.23556
0.23556
0.233784
0.233785
0.232043
0.232045
0.230327
0.230329
0.228644
0.228646
0.227015
0.227017
0.22547
0.22547
0.224036
0.224036
0.222734
0.222734
0.221565
0.221565
0.22051
0.220509
0.219529
0.219528
0.218566
0.218565
0.217557
0.217557
0.21644
0.216442
0.215164
0.215168
0.213691
0.213695
0.211994
0.211999
0.210074
0.210078
0.207945
0.207949
0.205641
0.205645
0.203202
0.203205
0.200674
0.200677
0.198104
0.198107
0.195537
0.195539
0.19301
0.193012
0.190556
0.190558
0.188199
0.1882
0.185956
0.185956
0.183836
0.183836
0.181844
0.181844
0.17998
0.17998
0.178241
0.178241
0.176618
0.176618
0.175103
0.175102
0.173683
0.173682
0.172343
0.172341
0.171066
0.171065
0.169835
0.169833
0.168628
0.168626
0.167425
0.167423
0.166204
0.166201
0.164943
0.16494
0.163622
0.163618
0.162223
0.162219
0.160733
0.160729
0.159144
0.159142
0.157457
0.157455
0.155678
0.155678
0.153822
0.153823
0.15191
0.151911
0.149969
0.14997
0.148031
0.148032
0.146128
0.146129
0.144288
0.144289
0.142533
0.142534
0.140877
0.140877
0.139319
0.139319
0.137849
0.137849
0.136448
0.136447
0.135088
0.135088
0.133743
0.133742
0.132383
0.132383
0.130985
0.130985
0.129532
0.129533
0.128013
0.128016
0.126426
0.126429
0.124773
0.124777
0.123063
0.123067
0.12131
0.121314
0.119528
0.119532
0.117733
0.117737
0.11594
0.115944
0.114163
0.114167
0.112415
0.112418
0.110704
0.110707
0.109038
0.109041
0.107424
0.107427
0.105866
0.105868
0.104364
0.104367
0.102922
0.102924
0.101538
0.10154
0.100212
0.100214
0.0989412
0.0989428
0.0977234
0.0977249
0.0965553
0.0965567
0.0954334
0.0954347
0.094354
0.0943552
0.0933136
0.0933147
0.0923089
0.0923099
0.0913373
0.0913383
0.0903969
0.0903978
0.0894865
0.0894874
0.0886058
0.0886066
0.0877549
0.0877557
0.0869345
0.0869353
0.0861456
0.0861463
0.085389
0.0853896
0.0846653
0.0846659
0.0839748
0.0839754
0.0833172
0.0833178
0.0826919
0.0826924
0.0820974
0.082098
0.0815322
0.0815327
0.0809943
0.0809949
0.0804821
0.0804826
0.0799943
0.0799947
0.0795302
0.0795307
0.0790906
0.0790911
0.078677
0.0786775
0.0782922
0.0782926
0.0779393
0.0779398
0.0776214
0.0776219
0.0773403
0.0773408
0.0770961
0.0770965
0.0768867
0.0768872
0.076707
0.0767074
0.0765503
0.0765508
0.0764093
0.0764098
0.0762768
0.0762773
0.0761471
0.0761476
0.0760167
0.0760173
0.0758846
0.0758852
0.075752
0.0757527
0.0756223
0.075623
0.0754996
0.0755003
0.0753886
0.0753894
0.0752934
0.0752942
0.0752171
0.0752179
0.0751617
0.0751625
0.0751277
0.0751286
0.0751149
0.0751157
0.0751217
0.0751226
0.0751466
0.0751475
0.0751877
0.0751887
0.0752436
0.0752446
0.0753132
0.0753142
0.0753959
0.075397
0.0754913
0.0754924
0.0755991
0.0756002
0.0757184
0.0757196
0.0758475
0.0758487
0.0759834
0.0759847
0.0761221
0.0761234
0.0762582
0.0762596
0.0763854
0.0763868
0.0764971
0.0764986
0.0765871
0.0765887
0.0766498
0.0766516
0.076681
0.076683
0.0766779
0.07668
0.0766392
0.0766416
0.0765653
0.0765679
0.076458
0.076461
0.0763203
0.0763237
0.0761562
0.07616
0.0759705
0.0759748
0.075769
0.0757737
0.075558
0.0755631
0.0753445
0.07535
0.0751356
0.0751414
0.0749381
0.0749442
0.074758
0.0747643
0.0745992
0.0746057
0.0744632
0.0744698
0.0743477
0.0743546
0.0742452
0.0742523
0.074143
0.0741504
0.0740232
0.074031
0.0738622
0.0738705
0.0736322
0.0736409
0.0733029
0.073312
0.0728446
0.0728541
0.0722329
0.0722427
0.0714539
0.0714639
0.0705082
0.0705183
0.069413
0.0694229
0.0681995
0.0682094
0.0669072
0.0669169
0.0655746
0.0655841
0.0642311
0.0642403
0.0628953
0.0629043
0.0615707
0.0615794
0.0602542
0.0602626
0.0589395
0.0589476
0.0576206
0.0576285
0.0562938
0.0563015
0.0549575
0.054965
0.0536117
0.0536189
0.0522573
0.0522644
0.0508959
0.0509028
0.0495293
0.049536
0.0481593
0.0481658
0.0467876
0.0467938
0.0454158
0.0454219
0.0440454
0.0440513
0.0426779
0.0426836
0.0413142
0.0413197
0.0399553
0.0399607
0.0386021
0.0386073
0.0372554
0.0372604
0.0359159
0.0359207
0.0345844
0.034589
0.0332617
0.0332661
0.0319486
0.0319528
0.0306458
0.03065
0.0293543
0.0293583
0.0280747
0.0280785
0.0268079
0.0268115
0.0255544
0.0255578
0.0243149
0.0243182
0.0230903
0.0230934
0.021881
0.021884
0.0206878
0.0206906
0.0195114
0.0195141
0.0183524
0.018355
0.0172117
0.0172141
0.0160899
0.0160921
0.0149878
0.0149899
0.0139063
0.0139083
0.0128462
0.012848
0.0118084
0.0118101
0.0107939
0.0107955
0.00980373
0.00980521
0.00883904
0.00884039
0.0079011
0.00790234
0.00699138
0.00699251
0.00611156
0.00611258
0.00526363
0.00526454
0.00444999
0.0044508
0.00367367
0.00367438
0.00293857
0.00293918
0.00225004
0.00225055
0.00161583
0.00161623
0.00104819
0.0010485
0.000568476
0.000568687
0.000215754
0.000215863
3.88677e-05
3.88942e-05
1.95323e-06
1.9547e-06
1.18435e-08
1.1853e-08
)
;

boundaryField
{
    walls
    {
        type            nutUWallFunction;
        blending        stepwise;
        Cmu             0.09;
        kappa           0.41;
        E               9.8;
        value           uniform 0;
    }
    inlet
    {
        type            cyclic;
    }
    outlet
    {
        type            cyclic;
    }
    sides
    {
        type            empty;
    }
}


// ************************************************************************* //
