/*--------------------------------*- C++ -*----------------------------------*\
| =========                 |                                                 |
| \\      /  F ield         | OpenFOAM: The Open Source CFD Toolbox           |
|  \\    /   O peration     | Version:  2012                                  |
|   \\  /    A nd           | Website:  www.openfoam.com                      |
|    \\/     M anipulation  |                                                 |
\*---------------------------------------------------------------------------*/
FoamFile
{
    version     2.0;
    format      ascii;
    class       volScalarField;
    location    "12700";
    object      omega;
}
// * * * * * * * * * * * * * * * * * * * * * * * * * * * * * * * * * * * * * //

dimensions      [0 0 -1 0 0 0 0];


internalField   nonuniform List<scalar> 
2560
(
1.52418e+06
1.52418e+06
263785
263789
87279.5
87282.4
41767.5
41768.2
26035
26034.6
18960.9
18960.2
15061.1
15060.4
12602.5
12601.8
10908.6
10907.9
9667.72
9667.09
8717.33
8716.75
7964.67
7964.13
7352.92
7352.41
6845.29
6844.81
6416.91
6416.47
6050.36
6049.95
5733.03
5732.64
5455.59
5455.21
5210.95
5210.6
4993.67
4993.33
4799.45
4799.12
4624.87
4624.56
4467.17
4466.88
4324.11
4323.83
4193.83
4193.55
4074.78
4074.51
3965.68
3965.42
3865.42
3865.17
3773.08
3772.84
3687.87
3687.63
3609.09
3608.85
3536.15
3535.92
3468.54
3468.31
3405.79
3405.57
3347.5
3347.28
3293.31
3293.1
3242.9
3242.68
3195.96
3195.75
3152.25
3152.04
3111.53
3111.32
3073.59
3073.38
3038.25
3038.04
3005.34
3005.14
2974.72
2974.51
2946.22
2946.01
2919.7
2919.49
2895
2894.8
2871.98
2871.77
2850.48
2850.27
2830.35
2830.14
2811.43
2811.22
2793.59
2793.38
2776.72
2776.5
2760.73
2760.51
2745.59
2745.36
2731.38
2731.14
2718.28
2718.04
2706.59
2706.35
2696.65
2696.4
2688.64
2688.38
2682.46
2682.19
2677.29
2677.01
2671.82
2671.53
2664.35
2664.06
2653.14
2652.86
2636.81
2636.52
2614.58
2614.3
2586.4
2586.14
2552.88
2552.62
2514.99
2514.76
2473.96
2473.74
2430.98
2430.77
2387.1
2386.92
2343.2
2343.03
2299.91
2299.74
2257.63
2257.47
2216.6
2216.45
2176.86
2176.71
2138.35
2138.2
2100.91
2100.77
2064.35
2064.23
2028.46
2028.35
1993.04
1992.94
1957.88
1957.79
1922.81
1922.74
1887.71
1887.64
1852.45
1852.39
1816.95
1816.9
1781.17
1781.13
1745.09
1745.06
1708.73
1708.7
1672.15
1672.13
1635.45
1635.43
1598.75
1598.73
1562.19
1562.17
1525.93
1525.91
1490.11
1490.1
1454.87
1454.86
1420.31
1420.3
1386.49
1386.49
1353.46
1353.46
1321.23
1321.23
1289.79
1289.79
1259.13
1259.12
1229.22
1229.22
1200.06
1200.06
1171.65
1171.65
1143.98
1143.98
1117.07
1117.07
1090.91
1090.91
1065.5
1065.5
1040.83
1040.83
1016.86
1016.86
993.539
993.54
970.804
970.805
948.581
948.582
926.792
926.794
905.37
905.372
884.263
884.266
863.448
863.451
842.93
842.933
822.742
822.746
802.942
802.945
783.595
783.599
764.767
764.771
746.508
746.512
728.85
728.853
711.791
711.794
695.307
695.31
679.358
679.362
663.898
663.901
648.878
648.881
634.259
634.262
620.012
620.016
606.12
606.123
592.573
592.576
579.369
579.372
566.51
566.513
553.995
553.998
541.824
541.827
529.995
529.997
518.499
518.502
507.327
507.33
496.467
496.469
485.903
485.905
475.62
475.622
465.603
465.605
455.838
455.84
446.317
446.319
437.033
437.034
427.983
427.984
419.17
419.171
410.598
410.6
402.276
402.277
394.212
394.212
386.414
386.414
378.89
378.89
371.648
371.648
364.692
364.691
358.023
358.022
351.64
351.639
345.54
345.537
339.713
339.711
334.15
334.146
328.833
328.829
323.742
323.738
318.852
318.847
314.13
314.125
309.541
309.534
305.042
305.035
300.59
300.583
296.142
296.135
291.657
291.65
287.102
287.095
282.453
282.448
277.704
277.701
272.862
272.862
267.954
267.955
263.015
263.018
258.099
258.101
253.26
253.262
248.555
248.557
244.032
244.034
239.725
239.726
235.649
235.65
231.803
231.803
228.161
228.16
224.682
224.681
221.32
221.319
218.022
218.02
214.737
214.736
211.424
211.424
208.052
208.054
204.601
204.604
201.063
201.067
197.439
197.443
193.74
193.745
189.986
189.99
186.198
186.202
182.403
182.407
178.625
178.628
174.889
174.892
171.217
171.219
167.628
167.631
164.14
164.142
160.767
160.769
157.519
157.521
154.405
154.406
151.431
151.432
148.601
148.601
145.914
145.915
143.369
143.369
140.96
140.96
138.676
138.676
136.504
136.504
134.424
134.424
132.412
132.411
130.439
130.438
128.473
128.472
126.483
126.481
124.436
124.435
122.308
122.306
120.078
120.076
117.739
117.738
115.295
115.293
112.761
112.761
110.164
110.164
107.534
107.534
104.903
104.904
102.305
102.306
99.7662
99.7666
97.3023
97.3026
94.919
94.9191
92.6117
92.6116
90.3683
90.3681
88.1733
88.1731
86.012
86.0117
83.8735
83.8732
81.7529
81.7528
79.6523
79.6525
77.5777
77.578
75.5368
75.5372
73.5382
73.5385
71.5896
71.5899
69.6966
69.6969
67.8622
67.8625
66.0876
66.0878
64.3723
64.3724
62.7153
62.7154
61.1157
61.1158
59.5727
59.5728
58.0854
58.0855
56.6533
56.6534
55.2754
55.2755
53.9502
53.9503
52.676
52.6761
51.4505
51.4506
50.2714
50.2715
49.1363
49.1363
48.0429
48.043
46.9894
46.9894
45.9742
45.9742
44.9963
44.9963
44.055
44.0551
43.1503
43.1503
42.2819
42.2819
41.4501
41.4501
40.6548
40.6548
39.8959
39.8959
39.1729
39.1729
38.4851
38.4851
37.8316
37.8316
37.2114
37.2114
36.6233
36.6233
36.0663
36.0663
35.5394
35.5394
35.0417
35.0417
34.5721
34.5721
34.13
34.13
33.7145
33.7145
33.3247
33.3247
32.96
32.96
32.6195
32.6195
32.3024
32.3024
32.008
32.008
31.7356
31.7356
31.4847
31.4847
31.2548
31.2548
31.0456
31.0456
30.857
30.857
30.6888
30.6888
30.5411
30.5411
30.4138
30.4138
30.3067
30.3067
30.2198
30.2198
30.1526
30.1526
30.1049
30.1049
30.0762
30.0762
30.0664
30.0664
30.0752
30.0752
30.1026
30.1026
30.1488
30.1488
30.214
30.214
30.2986
30.2986
30.4032
30.4032
30.5282
30.5282
30.6743
30.6743
30.842
30.842
31.032
31.032
31.2449
31.2449
31.4812
31.4812
31.7413
31.7413
32.0254
32.0254
32.333
32.333
32.6621
32.6621
33.0071
33.0071
33.3553
33.3553
33.6782
33.6782
33.9175
33.9175
33.884
33.884
1.52418e+06
1.52418e+06
263789
263785
87282.4
87279.5
41768.2
41767.5
26034.6
26035
18960.2
18960.9
15060.4
15061.1
12601.8
12602.5
10907.9
10908.6
9667.09
9667.72
8716.75
8717.33
7964.13
7964.67
7352.41
7352.92
6844.81
6845.29
6416.47
6416.91
6049.94
6050.36
5732.64
5733.03
5455.21
5455.59
5210.6
5210.95
4993.33
4993.67
4799.12
4799.45
4624.56
4624.87
4466.88
4467.17
4323.82
4324.11
4193.55
4193.83
4074.51
4074.78
3965.42
3965.68
3865.17
3865.42
3772.84
3773.08
3687.63
3687.87
3608.85
3609.09
3535.92
3536.15
3468.31
3468.54
3405.57
3405.79
3347.28
3347.5
3293.1
3293.31
3242.68
3242.9
3195.75
3195.96
3152.04
3152.25
3111.32
3111.53
3073.38
3073.59
3038.04
3038.25
3005.14
3005.34
2974.51
2974.72
2946.01
2946.22
2919.49
2919.7
2894.8
2895
2871.77
2871.98
2850.27
2850.48
2830.13
2830.35
2811.22
2811.43
2793.38
2793.59
2776.5
2776.72
2760.51
2760.73
2745.36
2745.59
2731.14
2731.38
2718.04
2718.28
2706.35
2706.59
2696.4
2696.65
2688.38
2688.64
2682.19
2682.46
2677.01
2677.29
2671.53
2671.82
2664.06
2664.35
2652.86
2653.14
2636.52
2636.81
2614.3
2614.58
2586.14
2586.4
2552.62
2552.88
2514.76
2514.99
2473.74
2473.96
2430.77
2430.98
2386.92
2387.1
2343.03
2343.2
2299.74
2299.91
2257.47
2257.63
2216.45
2216.6
2176.71
2176.86
2138.2
2138.35
2100.77
2100.91
2064.23
2064.35
2028.35
2028.46
1992.94
1993.04
1957.79
1957.88
1922.74
1922.81
1887.64
1887.71
1852.39
1852.45
1816.9
1816.95
1781.13
1781.17
1745.06
1745.09
1708.7
1708.73
1672.13
1672.15
1635.43
1635.45
1598.73
1598.75
1562.17
1562.19
1525.91
1525.93
1490.1
1490.11
1454.86
1454.87
1420.3
1420.31
1386.49
1386.49
1353.46
1353.46
1321.23
1321.23
1289.79
1289.79
1259.12
1259.13
1229.22
1229.22
1200.06
1200.06
1171.65
1171.65
1143.98
1143.98
1117.07
1117.07
1090.91
1090.91
1065.5
1065.5
1040.83
1040.83
1016.86
1016.86
993.54
993.539
970.805
970.804
948.582
948.581
926.794
926.792
905.372
905.37
884.266
884.263
863.451
863.448
842.933
842.93
822.746
822.742
802.945
802.941
783.599
783.595
764.77
764.767
746.511
746.508
728.853
728.849
711.794
711.79
695.31
695.306
679.361
679.358
663.9
663.897
648.881
648.877
634.262
634.259
620.015
620.012
606.123
606.119
592.576
592.573
579.372
579.369
566.512
566.509
553.997
553.994
541.826
541.824
529.997
529.994
518.501
518.498
507.329
507.327
496.469
496.466
485.905
485.902
475.621
475.619
465.604
465.602
455.84
455.838
446.318
446.316
437.034
437.032
427.984
427.982
419.17
419.169
410.599
410.598
402.276
402.275
394.211
394.211
386.413
386.413
378.89
378.89
371.647
371.648
364.691
364.691
358.021
358.022
351.638
351.64
345.537
345.539
339.71
339.712
334.146
334.149
328.828
328.832
323.737
323.742
318.846
318.851
314.124
314.13
309.533
309.54
305.034
305.041
300.582
300.59
296.134
296.142
291.649
291.657
287.094
287.101
282.447
282.453
277.701
277.703
272.862
272.862
267.955
267.953
263.017
263.015
258.101
258.098
253.262
253.26
248.557
248.555
244.033
244.032
239.725
239.724
235.649
235.648
231.802
231.802
228.159
228.16
224.68
224.681
221.317
221.319
218.019
218.02
214.735
214.736
211.423
211.423
208.053
208.05
204.603
204.6
201.066
201.062
197.443
197.438
193.744
193.739
189.99
189.985
186.202
186.198
182.406
182.403
178.628
178.625
174.892
174.888
171.219
171.216
167.63
167.628
164.142
164.14
160.768
160.767
157.52
157.519
154.406
154.405
151.432
151.431
148.601
148.6
145.914
145.913
143.368
143.368
140.958
140.958
138.675
138.675
136.502
136.503
134.422
134.423
132.41
132.411
130.436
130.437
128.471
128.472
126.48
126.481
124.433
124.435
122.305
122.307
120.075
120.078
117.737
117.739
115.293
115.295
112.76
112.761
110.164
110.164
107.534
107.534
104.904
104.903
102.306
102.305
99.7666
99.7662
97.3024
97.3022
94.9188
94.9187
92.6113
92.6113
90.3677
90.3679
88.1726
88.1729
86.0113
86.0116
83.8728
83.8731
81.7525
81.7526
79.6523
79.6521
77.578
77.5776
75.5372
75.5367
73.5386
73.5381
71.59
71.5896
69.697
69.6966
67.8626
67.8623
66.0879
66.0876
64.3725
64.3722
62.7155
62.7153
61.1159
61.1157
59.5728
59.5726
58.0855
58.0854
56.6534
56.6533
55.2754
55.2753
53.9502
53.9501
52.676
52.6759
51.4505
51.4504
50.2713
50.2713
49.1362
49.1362
48.0429
48.0428
46.9894
46.9893
45.9742
45.9741
44.9963
44.9962
44.0551
44.055
43.1503
43.1503
42.282
42.2819
41.4502
41.4501
40.6549
40.6549
39.896
39.8959
39.1729
39.1729
38.4851
38.4851
37.8316
37.8316
37.2114
37.2114
36.6233
36.6233
36.0663
36.0663
35.5394
35.5394
35.0417
35.0416
34.5721
34.5721
34.13
34.13
33.7145
33.7145
33.3247
33.3247
32.96
32.96
32.6194
32.6194
32.3024
32.3023
32.008
32.008
31.7356
31.7356
31.4847
31.4847
31.2548
31.2548
31.0456
31.0456
30.857
30.857
30.6888
30.6888
30.5411
30.5411
30.4138
30.4138
30.3067
30.3067
30.2198
30.2198
30.1526
30.1526
30.1048
30.1048
30.0762
30.0762
30.0664
30.0664
30.0752
30.0752
30.1026
30.1026
30.1488
30.1488
30.214
30.214
30.2986
30.2986
30.4031
30.4031
30.5282
30.5282
30.6742
30.6742
30.842
30.842
31.032
31.032
31.2448
31.2448
31.481
31.481
31.7411
31.7411
32.0251
32.0251
32.3327
32.3327
32.6616
32.6616
33.0066
33.0066
33.3547
33.3547
33.6775
33.6775
33.9168
33.9168
33.8834
33.8834
33.8841
33.8841
33.9176
33.9176
33.6784
33.6784
33.3554
33.3554
33.0073
33.0073
32.6623
32.6623
32.3332
32.3332
32.0256
32.0256
31.7415
31.7415
31.4814
31.4814
31.2451
31.2451
31.0322
31.0322
30.8422
30.8422
30.6744
30.6744
30.5283
30.5283
30.4033
30.4033
30.2988
30.2988
30.2142
30.2142
30.149
30.149
30.1028
30.1028
30.0753
30.0753
30.0665
30.0665
30.0764
30.0764
30.105
30.105
30.1527
30.1527
30.2199
30.2199
30.3068
30.3068
30.4138
30.4138
30.5411
30.5411
30.6888
30.6888
30.857
30.857
31.0456
31.0456
31.2548
31.2548
31.4846
31.4846
31.7354
31.7354
32.0077
32.0077
32.302
32.302
32.619
32.619
32.9595
32.9595
33.3242
33.3242
33.7139
33.7139
34.1294
34.1294
34.5714
34.5714
35.0409
35.0409
35.5385
35.5386
36.0654
36.0654
36.6223
36.6223
37.2102
37.2102
37.8304
37.8304
38.4838
38.4838
39.1715
39.1715
39.8944
39.8944
40.6532
40.6532
41.4484
41.4484
42.2801
42.2801
43.1483
43.1483
44.053
44.053
44.9941
44.9941
45.9719
45.9719
46.9869
46.9869
48.0403
48.0403
49.1335
49.1335
50.2685
50.2685
51.4475
51.4475
52.6729
52.6729
53.947
53.9471
55.2721
55.2722
56.6499
56.65
58.0819
58.0821
59.5691
59.5692
61.112
61.1121
62.7115
62.7116
64.3683
64.3685
66.0836
66.0838
67.8581
67.8584
69.6924
69.6927
71.5852
71.5855
73.5336
73.534
75.5322
75.5326
77.5732
77.5735
79.648
79.6482
81.7488
81.7487
83.8696
83.8694
86.0084
86.0081
88.17
88.1697
90.3651
90.365
92.6087
92.6087
94.9161
94.9162
97.2996
97.2999
99.7636
99.7641
102.303
102.303
104.901
104.902
107.532
107.532
110.163
110.163
112.76
112.76
115.294
115.293
117.739
117.737
120.078
120.076
122.307
122.305
124.435
124.433
126.481
126.48
128.472
128.471
130.437
130.437
132.41
132.41
134.423
134.422
136.502
136.502
138.674
138.674
140.957
140.957
143.366
143.366
145.911
145.911
148.597
148.598
151.428
151.429
154.401
154.403
157.515
157.516
160.762
160.764
164.135
164.137
167.623
167.625
171.211
171.214
174.883
174.886
178.619
178.622
182.396
182.4
186.191
186.196
189.978
189.983
193.732
193.737
197.43
197.435
201.054
201.059
204.592
204.596
208.043
208.045
211.415
211.415
214.727
214.726
218.011
218.01
221.309
221.308
224.671
224.67
228.149
228.149
231.792
231.792
235.638
235.638
239.713
239.714
244.02
244.022
248.543
248.545
253.248
253.25
258.086
258.089
263.003
263.005
267.941
267.942
272.85
272.85
277.691
277.688
282.441
282.435
287.089
287.082
291.644
291.636
296.129
296.121
300.576
300.569
305.028
305.02
309.526
309.519
314.115
314.109
318.837
318.831
323.726
323.722
328.816
328.812
334.132
334.129
339.695
339.693
345.521
345.519
351.621
351.619
358.003
358.002
364.671
364.671
371.627
371.626
378.868
378.868
386.39
386.39
394.187
394.188
402.25
402.251
410.571
410.573
419.142
419.143
427.953
427.955
437.001
437.003
446.284
446.286
455.803
455.805
465.566
465.568
475.581
475.584
485.863
485.865
496.425
496.428
507.284
507.287
518.454
518.457
529.948
529.951
541.776
541.779
553.945
553.948
566.458
566.462
579.317
579.32
592.518
592.522
606.063
606.066
619.952
619.956
634.196
634.2
648.812
648.816
663.829
663.832
679.287
679.291
695.233
695.237
711.715
711.719
728.771
728.775
746.427
746.431
764.684
764.688
783.509
783.513
802.854
802.858
822.652
822.656
842.838
842.841
863.354
863.357
884.167
884.171
905.272
905.275
926.693
926.695
948.48
948.482
970.702
970.703
993.434
993.436
1016.75
1016.75
1040.72
1040.72
1065.39
1065.39
1090.8
1090.8
1116.95
1116.95
1143.86
1143.86
1171.53
1171.53
1199.94
1199.94
1229.09
1229.09
1259
1258.99
1289.66
1289.66
1321.1
1321.09
1353.33
1353.32
1386.35
1386.35
1420.17
1420.16
1454.73
1454.72
1489.96
1489.95
1525.77
1525.76
1562.03
1562.02
1598.59
1598.57
1635.29
1635.27
1671.99
1671.97
1708.57
1708.55
1744.93
1744.9
1781.01
1780.97
1816.79
1816.74
1852.28
1852.23
1887.54
1887.47
1922.64
1922.56
1957.7
1957.61
1992.85
1992.75
2028.27
2028.15
2064.15
2064.02
2100.7
2100.56
2138.13
2137.98
2176.64
2176.49
2216.37
2216.21
2257.4
2257.23
2299.67
2299.5
2342.96
2342.78
2386.86
2386.66
2430.73
2430.52
2473.71
2473.48
2514.74
2514.49
2552.63
2552.36
2586.16
2585.89
2614.35
2614.06
2636.59
2636.29
2652.93
2652.63
2664.14
2663.84
2671.6
2671.31
2677.07
2676.78
2682.25
2681.97
2688.44
2688.16
2696.44
2696.18
2706.38
2706.12
2718.06
2717.82
2731.17
2730.92
2745.38
2745.15
2760.53
2760.29
2776.53
2776.3
2793.41
2793.18
2811.25
2811.02
2830.17
2829.94
2850.3
2850.08
2871.81
2871.59
2894.83
2894.62
2919.53
2919.31
2946.05
2945.83
2974.55
2974.34
3005.18
3004.96
3038.08
3037.87
3073.42
3073.21
3111.36
3111.14
3152.08
3151.86
3195.79
3195.57
3242.72
3242.5
3293.13
3292.91
3347.32
3347.09
3405.6
3405.37
3468.34
3468.1
3535.95
3535.71
3608.87
3608.63
3687.64
3687.39
3772.85
3772.6
3865.18
3864.92
3965.43
3965.16
4074.53
4074.25
4193.56
4193.27
4323.83
4323.53
4466.88
4466.57
4624.56
4624.23
4799.12
4798.78
4993.32
4992.97
5210.58
5210.21
5455.2
5454.8
5732.62
5732.2
6049.92
6049.48
6416.44
6415.98
6844.78
6844.28
7352.37
7351.84
7964.08
7963.51
8716.69
8716.08
9667.02
9666.36
10907.8
10907.1
12601.6
12600.9
15060.2
15059.4
18959.8
18959.1
26034
26033.5
41766.9
41767.5
87280
87282.9
263786
263789
1.52419e+06
1.52419e+06
33.8835
33.8835
33.9169
33.9169
33.6777
33.6777
33.3548
33.3548
33.0068
33.0068
32.6618
32.6618
32.3329
32.3329
32.0254
32.0254
31.7413
31.7413
31.4812
31.4812
31.245
31.245
31.0321
31.0322
30.8421
30.8421
30.6744
30.6744
30.5283
30.5283
30.4033
30.4033
30.2988
30.2988
30.2142
30.2142
30.1489
30.1489
30.1027
30.1027
30.0753
30.0753
30.0665
30.0665
30.0763
30.0763
30.105
30.105
30.1527
30.1527
30.2199
30.2199
30.3068
30.3068
30.4138
30.4138
30.5411
30.5411
30.6888
30.6888
30.857
30.857
31.0456
31.0456
31.2548
31.2548
31.4846
31.4846
31.7354
31.7354
32.0077
32.0077
32.302
32.302
32.619
32.619
32.9595
32.9595
33.3242
33.3242
33.7139
33.7139
34.1294
34.1293
34.5714
34.5714
35.0409
35.0408
35.5386
35.5385
36.0654
36.0654
36.6223
36.6222
37.2103
37.2102
37.8304
37.8304
38.4838
38.4838
39.1715
39.1715
39.8944
39.8944
40.6533
40.6532
41.4485
41.4484
42.2802
42.2801
43.1484
43.1483
44.053
44.0529
44.9941
44.994
45.9719
45.9718
46.9869
46.9868
48.0402
48.0401
49.1334
49.1333
50.2684
50.2683
51.4474
51.4473
52.6728
52.6727
53.947
53.9469
55.2721
55.272
56.65
56.6499
58.082
58.0819
59.5692
59.569
61.1122
61.112
62.7117
62.7115
64.3686
64.3683
66.0839
66.0836
67.8585
67.8581
69.6927
69.6924
71.5856
71.5852
73.5341
73.5336
75.5326
75.5321
77.5735
77.5731
79.648
79.6478
81.7484
81.7485
83.869
83.8693
86.0077
86.0081
88.1692
88.1696
90.3645
90.3647
92.6083
92.6084
94.916
94.9159
97.2997
97.2995
99.7641
99.7636
102.304
102.303
104.902
104.901
107.532
107.532
110.163
110.163
112.759
112.76
115.292
115.294
117.736
117.738
120.075
120.077
122.304
122.306
124.432
124.434
126.479
126.48
128.469
128.471
130.435
130.436
132.408
132.409
134.421
134.421
136.501
136.501
138.673
138.673
140.956
140.956
143.365
143.365
145.91
145.91
148.597
148.596
151.428
151.427
154.402
154.401
157.516
157.514
160.764
160.762
164.137
164.135
167.625
167.623
171.213
171.211
174.886
174.882
178.622
178.618
182.4
182.396
186.195
186.191
189.983
189.978
193.737
193.732
197.435
197.43
201.058
201.053
204.595
204.591
208.044
208.042
211.414
211.414
214.725
214.726
218.009
218.01
221.306
221.308
224.669
224.67
228.148
228.148
231.791
231.791
235.637
235.637
239.713
239.712
244.021
244.02
248.545
248.543
253.25
253.247
258.089
258.086
263.005
263.003
267.942
267.941
272.849
272.849
277.688
277.691
282.435
282.44
287.082
287.089
291.636
291.644
296.12
296.128
300.568
300.576
305.02
305.027
309.519
309.525
314.109
314.115
318.831
318.836
323.721
323.726
328.812
328.816
334.128
334.132
339.692
339.695
345.518
345.52
351.619
351.62
358.001
358.002
364.67
364.671
371.626
371.626
378.867
378.867
386.39
386.389
394.187
394.186
402.251
402.25
410.572
410.571
419.142
419.141
427.954
427.952
437.002
437
446.285
446.283
455.805
455.803
465.567
465.565
475.583
475.581
485.865
485.862
496.427
496.424
507.286
507.283
518.456
518.453
529.95
529.947
541.778
541.776
553.948
553.945
566.461
566.458
579.319
579.316
592.521
592.518
606.066
606.062
619.955
619.952
634.199
634.196
648.815
648.812
663.832
663.829
679.29
679.287
695.237
695.233
711.718
711.715
728.775
728.771
746.431
746.427
764.688
764.684
783.513
783.509
802.858
802.854
822.656
822.652
842.841
842.838
863.357
863.354
884.17
884.168
905.275
905.272
926.695
926.693
948.482
948.48
970.703
970.702
993.435
993.435
1016.75
1016.75
1040.72
1040.72
1065.39
1065.39
1090.8
1090.8
1116.95
1116.95
1143.86
1143.87
1171.53
1171.53
1199.94
1199.94
1229.09
1229.09
1258.99
1259
1289.66
1289.66
1321.09
1321.1
1353.32
1353.33
1386.35
1386.36
1420.16
1420.17
1454.72
1454.73
1489.95
1489.96
1525.76
1525.77
1562.02
1562.03
1598.57
1598.59
1635.27
1635.29
1671.97
1671.99
1708.55
1708.57
1744.9
1744.93
1780.97
1781.01
1816.74
1816.79
1852.23
1852.28
1887.47
1887.54
1922.56
1922.64
1957.61
1957.7
1992.75
1992.85
2028.15
2028.27
2064.02
2064.15
2100.56
2100.7
2137.99
2138.13
2176.49
2176.64
2216.21
2216.38
2257.23
2257.4
2299.5
2299.67
2342.78
2342.96
2386.66
2386.86
2430.52
2430.73
2473.48
2473.71
2514.5
2514.74
2552.36
2552.63
2585.89
2586.17
2614.06
2614.35
2636.29
2636.59
2652.63
2652.93
2663.84
2664.14
2671.31
2671.6
2676.78
2677.07
2681.97
2682.25
2688.17
2688.44
2696.18
2696.45
2706.12
2706.38
2717.82
2718.07
2730.92
2731.17
2745.15
2745.39
2760.3
2760.53
2776.3
2776.53
2793.18
2793.41
2811.03
2811.25
2829.95
2830.17
2850.09
2850.31
2871.59
2871.81
2894.62
2894.84
2919.31
2919.53
2945.84
2946.05
2974.34
2974.56
3004.97
3005.18
3037.87
3038.09
3073.21
3073.43
3111.14
3111.36
3151.86
3152.08
3195.57
3195.79
3242.5
3242.72
3292.91
3293.14
3347.09
3347.32
3405.37
3405.6
3468.11
3468.34
3535.71
3535.95
3608.63
3608.88
3687.4
3687.65
3772.6
3772.86
3864.92
3865.19
3965.16
3965.43
4074.25
4074.53
4193.27
4193.56
4323.53
4323.83
4466.57
4466.88
4624.24
4624.56
4798.78
4799.12
4992.97
4993.33
5210.21
5210.59
5454.81
5455.2
5732.21
5732.62
6049.48
6049.92
6415.98
6416.45
6844.28
6844.78
7351.84
7352.37
7963.52
7964.09
8716.08
8716.7
9666.36
9667.02
10907.1
10907.8
12600.9
12601.6
15059.4
15060.2
18959.1
18959.8
26033.5
26034
41767.5
41766.9
87283
87280
263789
263786
1.52419e+06
1.52419e+06
)
;

boundaryField
{
    walls
    {
        blending        binomial2;
        n               2;
        beta1           0.075;
        type            omegaWallFunction;
        value           nonuniform List<scalar> 8(1.52418e+06 1.52418e+06 1.52418e+06 1.52418e+06 1.52419e+06 1.52419e+06 1.52419e+06 1.52419e+06);
    }
    inlet
    {
        type            cyclic;
    }
    outlet
    {
        type            cyclic;
    }
    sides
    {
        type            empty;
    }
}


// ************************************************************************* //
