/*--------------------------------*- C++ -*----------------------------------*\
| =========                 |                                                 |
| \\      /  F ield         | OpenFOAM: The Open Source CFD Toolbox           |
|  \\    /   O peration     | Version:  2012                                  |
|   \\  /    A nd           | Website:  www.openfoam.com                      |
|    \\/     M anipulation  |                                                 |
\*---------------------------------------------------------------------------*/
FoamFile
{
    version     2.0;
    format      ascii;
    class       volScalarField;
    location    "12700";
    object      p;
}
// * * * * * * * * * * * * * * * * * * * * * * * * * * * * * * * * * * * * * //

dimensions      [0 2 -2 0 0 0 0];


internalField   nonuniform List<scalar> 
2560
(
-6.53216e-08
-1.16034
-3.70691e-05
-1.16037
-3.95664e-05
-1.16038
-3.12114e-05
-1.16038
-2.85303e-05
-1.16038
-2.76232e-05
-1.16038
-2.69217e-05
-1.16038
-2.63325e-05
-1.16039
-2.57691e-05
-1.16039
-2.50279e-05
-1.16039
-2.39769e-05
-1.16039
-2.2722e-05
-1.16039
-2.49955e-05
-1.16039
-3.91003e-05
-1.15969
-9.01658e-05
-1.1605
-0.000178113
-1.15862
-0.000362319
-1.16106
-0.000571164
-1.16107
-0.000830199
-1.16194
-0.00106182
-1.16196
-0.0013446
-1.16291
-0.00157748
-1.16292
-0.00186726
-1.16392
-0.00209484
-1.1608
-0.00246602
-1.16519
-0.00283418
-1.16095
-0.00345461
-1.16714
-0.0040527
-1.16719
-0.00490927
-1.16966
-0.00562083
-1.16979
-0.006568
-1.17246
-0.00722733
-1.17257
-0.0081351
-1.17521
-0.00863012
-1.17526
-0.00948164
-1.17778
-0.00987726
-1.17185
-0.0108783
-1.18064
-0.0114314
-1.15528
-0.0128798
-1.18498
-0.0138269
-1.15195
-0.0158763
-1.19143
-0.0172627
-1.16625
-0.0198372
-1.19971
-0.021503
-1.19098
-0.0243891
-1.20894
-0.0261314
-1.20757
-0.0291965
-1.21859
-0.0309518
-1.21365
-0.0342675
-1.22876
-0.0362187
-1.14852
-0.0401276
-1.24195
-0.0432071
-1.18775
-0.0495336
-1.26004
-0.0573186
-1.26148
-0.0714503
-1.29077
-0.0913565
-1.29707
-0.121466
-1.35007
-0.160665
-1.36507
-0.209932
-1.44851
-0.265316
-1.4722
-0.322637
-1.57198
-0.376228
-1.59708
-0.419412
-1.68011
-0.449593
-1.69571
-0.462136
-1.73439
-0.46079
-1.7327
-0.444026
-1.69255
-0.420126
-1.68129
-0.388143
-1.6214
-0.356818
-1.60781
-0.323532
-1.54862
-0.295191
-1.53649
-0.26756
-0.263007
-0.245653
-0.249948
-0.224907
-0.2205
-0.209179
-0.211321
-0.194369
-0.190024
-0.183734
-0.183628
-0.17375
-0.169419
-0.167189
-0.165265
-0.161011
-0.156671
-0.157569
-0.154258
-0.154179
-0.149823
-0.152866
-0.148646
-0.151342
-0.146979
-0.151458
-0.146627
-0.151409
-0.146952
-0.152757
-0.148268
-0.154282
-0.149833
-0.157395
-0.152921
-0.161146
-0.156707
-0.166773
-0.162316
-0.173433
-0.16901
-0.18208
-0.177644
-0.191827
-0.187423
-0.203295
-0.198883
-0.215516
-0.211134
-0.228818
-0.224433
-0.242239
-0.237881
-0.255974
-0.251616
-0.269187
-0.264856
-0.282099
-0.277771
-0.294085
-0.289781
-0.305457
-0.301158
-0.315815
-0.31154
-0.325537
-0.321268
-0.33437
-0.330124
-0.342697
-0.338459
-0.350336
-0.346119
-0.357631
-0.353423
-0.364431
-0.360243
-0.371038
-0.366862
-0.377348
-0.373192
-0.383639
-0.379496
-0.389853
-0.385731
-0.396279
-0.392171
-0.402886
-0.398801
-0.409927
-0.405859
-0.417389
-0.413344
-0.425489
-0.421464
-0.434224
-0.430223
-0.443803
-0.439824
-0.454268
-0.450315
-0.465878
-0.461949
-0.478773
-0.474872
-0.493301
-0.489425
-0.509715
-0.505867
-0.528421
-0.524599
-0.549711
-0.545918
-0.573933
-0.570167
-0.601244
-0.597507
-0.631756
-0.628046
-0.665307
-0.661625
-0.701596
-0.69794
-0.74003
-0.736402
-0.779888
-0.776286
-0.820226
-0.816652
-0.860078
-0.856529
-0.898415
-0.894893
-0.934353
-0.930856
-0.967119
-0.963648
-0.996201
-0.992755
-1.02129
-1.01787
-1.04236
-1.03896
-1.05954
-1.05617
-1.07319
-1.06984
-1.08373
-1.0804
-1.09166
-1.08835
-1.09746
-1.09418
-1.10161
-1.09835
-1.1045
-1.10126
-1.10648
-1.10326
-1.10779
-1.1046
-1.10867
-1.10549
-1.10923
-1.10607
-1.10959
-1.10645
-1.10981
-1.10669
-1.10995
-1.10685
-1.11002
-1.10694
-1.11006
-1.10699
-1.11006
-1.10701
-1.11003
-1.107
-1.10998
-1.10697
-1.10992
-1.10693
-1.10985
-1.10687
-1.10977
-1.1068
-1.10968
-1.10673
-1.10959
-1.10665
-1.1095
-1.10657
-1.10941
-1.10649
-1.10932
-1.10641
-1.10923
-1.10633
-1.10915
-1.10626
-1.10908
-1.10619
-1.10901
-1.10613
-1.10896
-1.10607
-1.10892
-1.10603
-1.10888
-1.10599
-1.10884
-1.10596
-1.10882
-1.10594
-1.10879
-1.10593
-1.10877
-1.10592
-1.10876
-1.10591
-1.10874
-1.10591
-1.10873
-1.1059
-1.10871
-1.1059
-1.1087
-1.10589
-1.10867
-1.10588
-1.10865
-1.10586
-1.10861
-1.10583
-1.10855
-1.10578
-1.10847
-1.1057
-1.10837
-1.1056
-1.10822
-1.10545
-1.10802
-1.10525
-1.10775
-1.10499
-1.10739
-1.10464
-1.10693
-1.10419
-1.10633
-1.10361
-1.10559
-1.10288
-1.10466
-1.10197
-1.10353
-1.10086
-1.10216
-1.09951
-1.10053
-1.0979
-1.09862
-1.09602
-1.09642
-1.09384
-1.0939
-1.09136
-1.09108
-1.08856
-1.08796
-1.08547
-1.08454
-1.08208
-1.08086
-1.07843
-1.07693
-1.07453
-1.07279
-1.07042
-1.06847
-1.06613
-1.06398
-1.06167
-1.05937
-1.05708
-1.05462
-1.05237
-1.04977
-1.04753
-1.04479
-1.04258
-1.0397
-1.03751
-1.03447
-1.03229
-1.02909
-1.02693
-1.02354
-1.0214
-1.01784
-1.0157
-1.01196
-1.00982
-1.00591
-1.00378
-0.999718
-0.997587
-0.993391
-0.991266
-0.986965
-0.984846
-0.980466
-0.978357
-0.973934
-0.971834
-0.967391
-0.965303
-0.960873
-0.958796
-0.954396
-0.95233
-0.947976
-0.94592
-0.941617
-0.93957
-0.935323
-0.933283
-0.929088
-0.927052
-0.922905
-0.920872
-0.916763
-0.914731
-0.910654
-0.908623
-0.904563
-0.902535
-0.898488
-0.896464
-0.892418
-0.890401
-0.886356
-0.884344
-0.880288
-0.878285
-0.874222
-0.872225
-0.868143
-0.866155
-0.862057
-0.860075
-0.855948
-0.853974
-0.849817
-0.847849
-0.843644
-0.841684
-0.837432
-0.835478
-0.831159
-0.829213
-0.824827
-0.822888
-0.818417
-0.816486
-0.811933
-0.81001
-0.805359
-0.803446
-0.798705
-0.796801
-0.791951
-0.790059
-0.785116
-0.783236
-0.778179
-0.776313
-0.77116
-0.769309
-0.764043
-0.762207
-0.756843
-0.755024
-0.749549
-0.747747
-0.742182
-0.740399
-0.734728
-0.732964
-0.727213
-0.725469
-0.719627
-0.717904
-0.712001
-0.710298
-0.704324
-0.702642
-0.696629
-0.694968
-0.688904
-0.687264
-0.681183
-0.679563
-0.673446
-0.671847
-0.665726
-0.664146
-0.657997
-0.656438
-0.650282
-0.648741
-0.642551
-0.641031
-0.634827
-0.633325
-0.627074
-0.625592
-0.619319
-0.617854
-0.611527
-0.610082
-0.603736
-0.602306
-0.595917
-0.594507
-0.58812
-0.586724
-0.580327
-0.578949
-0.572596
-0.571231
-0.564916
-0.563568
-0.557353
-0.556017
-0.549892
-0.548573
-0.542599
-0.541292
-0.535452
-0.534162
-0.528513
-0.527233
-0.521748
-0.520487
-0.515211
-0.513961
-0.508856
-0.507626
-0.502731
-0.501513
-0.49678
-0.495585
-0.491045
-0.489862
-0.485464
-0.484307
-0.480076
-0.478932
-0.474814
-0.4737
-0.469716
-0.468616
-0.464715
-0.463647
-0.459855
-0.4588
-0.45507
-0.454052
-0.450424
-0.449418
-0.445862
-0.444897
-0.441469
-0.440516
-0.437215
-0.436307
-0.433214
-0.432315
-0.429456
-0.428611
-0.426082
-0.425246
-0.423103
-0.422312
-0.420652
-0.419871
-0.418751
-0.418005
-0.417497
-0.416758
-0.416904
-0.416183
-1.16423
-0.000423017
-1.16426
-0.000460036
-1.16427
-0.000462552
-1.16427
-0.000454347
-1.16427
-0.000451961
-1.16427
-0.000451219
-1.16427
-0.000450584
-1.16427
-0.000449898
-1.16427
-0.000449179
-1.16428
-0.000448238
-1.16428
-0.000446961
-1.16428
-0.000445311
-1.16428
-0.00044733
-1.16358
-0.000461769
-1.16439
-0.000513155
-1.16251
-0.000601211
-1.16495
-0.000785308
-1.16496
-0.000994018
-1.16583
-0.00125287
-1.16585
-0.00148435
-1.1668
-0.00176704
-1.16681
-0.00199985
-1.16781
-0.00228961
-1.16469
-0.00251717
-1.16908
-0.00288834
-1.16484
-0.0032565
-1.17102
-0.00387693
-1.17108
-0.00447502
-1.17355
-0.0053316
-1.17368
-0.00604316
-1.17634
-0.00699033
-1.17646
-0.00764967
-1.1791
-0.00855743
-1.17915
-0.00905245
-1.18167
-0.00990395
-1.17573
-0.0102996
-1.18453
-0.0113006
-1.15917
-0.0118537
-1.18887
-0.013302
-1.15584
-0.0142492
-1.19532
-0.0162984
-1.17014
-0.0176849
-1.2036
-0.0202594
-1.19487
-0.0219251
-1.21283
-0.0248112
-1.21146
-0.0265535
-1.22248
-0.0296186
-1.21754
-0.0313738
-1.23265
-0.0346895
-1.15241
-0.0366406
-1.24584
-0.0405495
-1.19164
-0.043629
-1.26393
-0.0499554
-1.26537
-0.0577404
-1.29466
-0.0718721
-1.30096
-0.0917782
-1.35395
-0.121888
-1.36896
-0.161087
-1.4524
-0.210353
-1.47609
-0.265738
-1.57587
-0.323058
-1.60097
-0.376649
-1.684
-0.419834
-1.6996
-0.450014
-1.73828
-0.462557
-1.73659
-0.461211
-1.69644
-0.444447
-1.68518
-0.420547
-1.62529
-0.388565
-1.6117
-0.357239
-1.55251
-0.323953
-1.54038
-0.295613
-0.266895
-0.267981
-0.253836
-0.246074
-0.224388
-0.225328
-0.215208
-0.209601
-0.193911
-0.19479
-0.187515
-0.184155
-0.173306
-0.174171
-0.169153
-0.167611
-0.160558
-0.161433
-0.158146
-0.15799
-0.153711
-0.1546
-0.152533
-0.153287
-0.150866
-0.151764
-0.150515
-0.151879
-0.15084
-0.15183
-0.152155
-0.153178
-0.15372
-0.154704
-0.156808
-0.157817
-0.160595
-0.161567
-0.166204
-0.167194
-0.172897
-0.173854
-0.181532
-0.182501
-0.191311
-0.192248
-0.20277
-0.203716
-0.215021
-0.215937
-0.22832
-0.229239
-0.241769
-0.24266
-0.255504
-0.256395
-0.268744
-0.269608
-0.281658
-0.28252
-0.293669
-0.294505
-0.305046
-0.305878
-0.315428
-0.316236
-0.325155
-0.325957
-0.334012
-0.334791
-0.342346
-0.343118
-0.350007
-0.350757
-0.35731
-0.358051
-0.364131
-0.364851
-0.37075
-0.371459
-0.37708
-0.377768
-0.383383
-0.384059
-0.389619
-0.390273
-0.396059
-0.396699
-0.402689
-0.403307
-0.409746
-0.410347
-0.417233
-0.41781
-0.425351
-0.425909
-0.434112
-0.434645
-0.443711
-0.444223
-0.454204
-0.454689
-0.465836
-0.466298
-0.478761
-0.479193
-0.493312
-0.49372
-0.509757
-0.510135
-0.528486
-0.52884
-0.549809
-0.550131
-0.574054
-0.574352
-0.601398
-0.601664
-0.631932
-0.632175
-0.665516
-0.665727
-0.701826
-0.702014
-0.740294
-0.74045
-0.780172
-0.780306
-0.820545
-0.820646
-0.860414
-0.860496
-0.898787
-0.898835
-0.93474
-0.934771
-0.967543
-0.967538
-0.996639
-0.996619
-1.02177
-1.02171
-1.04284
-1.04277
-1.06007
-1.05996
-1.07372
-1.07361
-1.0843
-1.08415
-1.09223
-1.09207
-1.09808
-1.09788
-1.10223
-1.10202
-1.10517
-1.10492
-1.10713
-1.10689
-1.10851
-1.10821
-1.10936
-1.10908
-1.10999
-1.10964
-1.11032
-1.11
-1.11061
-1.11023
-1.11071
-1.11036
-1.11086
-1.11044
-1.1109
-1.11047
-1.11094
-1.11047
-1.11093
-1.11044
-1.11088
-1.1104
-1.11085
-1.11034
-1.11076
-1.11027
-1.11073
-1.11019
-1.11061
-1.1101
-1.11057
-1.11001
-1.11045
-1.10991
-1.11041
-1.10982
-1.11029
-1.10973
-1.11024
-1.10965
-1.11014
-1.10956
-1.1101
-1.10949
-1.11002
-1.10943
-1.10999
-1.10938
-1.10992
-1.10933
-1.1099
-1.10929
-1.10986
-1.10926
-1.10985
-1.10923
-1.10983
-1.10921
-1.10982
-1.10919
-1.10981
-1.10917
-1.10981
-1.10916
-1.1098
-1.10914
-1.1098
-1.10913
-1.10978
-1.10911
-1.10978
-1.10909
-1.10974
-1.10906
-1.10972
-1.10902
-1.10964
-1.10896
-1.1096
-1.10889
-1.10946
-1.10878
-1.10934
-1.10863
-1.10912
-1.10843
-1.10888
-1.10816
-1.10851
-1.1078
-1.10808
-1.10734
-1.10748
-1.10675
-1.10677
-1.106
-1.10585
-1.10507
-1.10474
-1.10393
-1.10339
-1.10257
-1.10179
-1.10094
-1.0999
-1.09903
-1.09773
-1.09682
-1.09524
-1.09431
-1.09245
-1.09148
-1.08935
-1.08836
-1.08597
-1.08494
-1.08232
-1.08127
-1.07842
-1.07733
-1.07432
-1.0732
-1.07002
-1.06886
-1.06557
-1.06439
-1.06097
-1.05976
-1.05627
-1.05502
-1.05143
-1.05015
-1.04649
-1.04519
-1.0414
-1.04008
-1.0362
-1.03486
-1.03082
-1.02947
-1.02531
-1.02394
-1.01959
-1.01822
-1.01374
-1.01236
-1.00767
-1.00629
-1.0015
-1.00012
-0.995158
-0.993767
-0.988765
-0.987368
-0.982248
-0.980839
-0.975756
-0.974337
-0.969194
-0.96776
-0.962723
-0.961277
-0.956221
-0.95476
-0.949851
-0.94838
-0.943459
-0.941977
-0.937218
-0.935729
-0.93094
-0.929444
-0.924811
-0.923313
-0.918615
-0.917116
-0.912565
-0.911066
-0.906416
-0.904911
-0.900412
-0.898902
-0.894279
-0.892762
-0.888297
-0.886773
-0.88216
-0.880626
-0.876185
-0.874642
-0.870027
-0.868474
-0.864042
-0.86248
-0.857843
-0.856271
-0.851824
-0.850243
-0.845549
-0.843958
-0.839462
-0.837862
-0.833073
-0.831464
-0.826882
-0.825262
-0.820341
-0.818711
-0.814015
-0.812373
-0.807297
-0.805642
-0.800819
-0.799149
-0.793906
-0.79222
-0.787269
-0.785564
-0.780156
-0.778432
-0.77336
-0.771612
-0.766046
-0.764276
-0.759095
-0.757297
-0.751584
-0.749761
-0.744494
-0.742637
-0.736799
-0.734915
-0.729591
-0.727669
-0.721738
-0.719787
-0.71445
-0.712458
-0.706475
-0.704454
-0.699152
-0.697086
-0.691095
-0.689001
-0.683782
-0.681641
-0.675676
-0.673508
-0.668403
-0.666185
-0.660264
-0.658021
-0.653038
-0.650742
-0.644854
-0.642536
-0.637665
-0.63529
-0.629411
-0.627016
-0.622239
-0.619784
-0.613895
-0.611425
-0.60674
-0.604204
-0.598313
-0.595769
-0.591208
-0.588594
-0.582746
-0.58013
-0.575768
-0.573077
-0.567354
-0.564669
-0.560609
-0.557842
-0.552345
-0.549593
-0.545942
-0.543098
-0.537919
-0.535097
-0.531947
-0.529021
-0.52423
-0.521334
-0.518744
-0.515727
-0.511354
-0.508376
-0.506373
-0.503252
-0.4993
-0.496228
-0.49481
-0.491566
-0.488012
-0.484832
-0.483979
-0.480591
-0.477397
-0.474093
-0.473775
-0.470218
-0.467341
-0.463897
-0.464086
-0.460334
-0.457744
-0.454147
-0.454846
-0.450873
-0.448588
-0.444824
-0.446103
-0.441877
-0.44
-0.436055
-0.438084
-0.433564
-0.405683
-0.428163
-0.403994
-0.426226
-0.399219
-0.421837
-0.397962
-0.420555
-0.394676
-0.417592
-0.394003
-0.417083
-0.392474
-0.416011
-0.416906
-0.416183
-0.417499
-0.416755
-0.418755
-0.418001
-0.420657
-0.419866
-0.42311
-0.422307
-0.426087
-0.425238
-0.429466
-0.428606
-0.433221
-0.432306
-0.437224
-0.436298
-0.441479
-0.440506
-0.445874
-0.444888
-0.450435
-0.449408
-0.455083
-0.454042
-0.459868
-0.45879
-0.46473
-0.463637
-0.46973
-0.468603
-0.474828
-0.473686
-0.480091
-0.478919
-0.485479
-0.484292
-0.491062
-0.489849
-0.496797
-0.49557
-0.502748
-0.501498
-0.508873
-0.50761
-0.515227
-0.513943
-0.521765
-0.520469
-0.528534
-0.527218
-0.535469
-0.534143
-0.54262
-0.541275
-0.549912
-0.548555
-0.55737
-0.555995
-0.564938
-0.563551
-0.572618
-0.571213
-0.580353
-0.578934
-0.588142
-0.586704
-0.595945
-0.594492
-0.603757
-0.602284
-0.611549
-0.610059
-0.619343
-0.617833
-0.627095
-0.625567
-0.634854
-0.633305
-0.642575
-0.641007
-0.650309
-0.648719
-0.658023
-0.656414
-0.665755
-0.664124
-0.673472
-0.67182
-0.681213
-0.679539
-0.68893
-0.687236
-0.696657
-0.69494
-0.704351
-0.702613
-0.712031
-0.71027
-0.719654
-0.717872
-0.727248
-0.725444
-0.73476
-0.732936
-0.74221
-0.740365
-0.749582
-0.747718
-0.756875
-0.754992
-0.76408
-0.762179
-0.771194
-0.769276
-0.778213
-0.77628
-0.785147
-0.783199
-0.791993
-0.790033
-0.79874
-0.796768
-0.805399
-0.803416
-0.81197
-0.809977
-0.818457
-0.816456
-0.824861
-0.822851
-0.831191
-0.829173
-0.837472
-0.835446
-0.843682
-0.84165
-0.849859
-0.847819
-0.855983
-0.853936
-0.86209
-0.860034
-0.86818
-0.866118
-0.874254
-0.872184
-0.880322
-0.878245
-0.886391
-0.884305
-0.892458
-0.890367
-0.898531
-0.896432
-0.904608
-0.902506
-0.910697
-0.908591
-0.916801
-0.914695
-0.922945
-0.920837
-0.929123
-0.927013
-0.935359
-0.933244
-0.941659
-0.939536
-0.948011
-0.945879
-0.954427
-0.952285
-0.960916
-0.958762
-0.967431
-0.965266
-0.973964
-0.971787
-0.980505
-0.978317
-0.987003
-0.984805
-0.993426
-0.99122
-0.999754
-0.997543
-1.00596
-1.00375
-1.012
-1.00979
-1.01787
-1.01566
-1.02359
-1.02137
-1.02913
-1.02689
-1.0345
-1.03225
-1.03973
-1.03746
-1.04484
-1.04255
-1.04981
-1.04749
-1.05467
-1.05233
-1.05942
-1.05705
-1.06403
-1.06163
-1.06851
-1.06608
-1.07285
-1.07038
-1.07698
-1.07448
-1.0809
-1.07838
-1.08459
-1.08203
-1.08801
-1.08542
-1.09113
-1.08851
-1.09396
-1.09131
-1.09647
-1.09379
-1.09867
-1.09597
-1.10058
-1.09785
-1.10221
-1.09946
-1.10358
-1.1008
-1.10472
-1.10192
-1.10565
-1.10282
-1.10639
-1.10355
-1.10698
-1.10413
-1.10745
-1.10458
-1.10781
-1.10493
-1.10808
-1.1052
-1.10828
-1.10539
-1.10843
-1.10554
-1.10853
-1.10565
-1.10861
-1.10572
-1.10866
-1.10577
-1.10871
-1.1058
-1.10873
-1.10582
-1.10876
-1.10584
-1.10877
-1.10584
-1.10879
-1.10585
-1.1088
-1.10585
-1.10882
-1.10585
-1.10884
-1.10586
-1.10886
-1.10587
-1.10888
-1.10588
-1.10891
-1.10591
-1.10894
-1.10593
-1.10898
-1.10597
-1.10902
-1.10601
-1.10908
-1.10607
-1.10914
-1.10613
-1.10922
-1.1062
-1.10929
-1.10627
-1.10938
-1.10635
-1.10947
-1.10642
-1.10957
-1.10651
-1.10966
-1.10659
-1.10975
-1.10667
-1.10983
-1.10674
-1.10992
-1.10681
-1.10998
-1.10686
-1.11005
-1.10691
-1.11009
-1.10693
-1.11013
-1.10695
-1.11012
-1.10692
-1.11009
-1.10688
-1.11001
-1.10678
-1.10988
-1.10663
-1.10965
-1.10638
-1.1093
-1.10601
-1.10873
-1.10542
-1.10787
-1.10454
-1.10654
-1.10318
-1.10458
-1.10121
-1.10166
-1.09826
-1.09755
-1.09412
-1.09171
-1.08826
-1.0838
-1.08033
-1.07326
-1.06977
-1.05959
-1.05607
-1.04235
-1.0388
-1.02135
-1.01778
-0.996378
-0.992781
-0.967074
-0.963451
-0.934401
-0.930751
-0.898462
-0.894785
-0.860226
-0.856522
-0.820357
-0.816626
-0.780135
-0.776375
-0.740266
-0.736479
-0.701591
-0.697774
-0.665344
-0.6615
-0.631982
-0.628108
-0.601249
-0.597347
-0.573888
-0.569956
-0.54983
-0.54587
-0.528564
-0.524574
-0.509847
-0.505829
-0.493343
-0.489296
-0.478888
-0.474815
-0.465987
-0.461885
-0.454371
-0.450244
-0.443846
-0.439691
-0.434334
-0.430156
-0.425608
-0.421405
-0.417433
-0.413209
-0.410045
-0.405797
-0.403001
-0.398736
-0.396352
-0.392064
-0.389906
-0.385603
-0.383722
-0.379396
-0.377397
-0.373058
-0.371109
-0.366749
-0.364546
-0.360175
-0.357668
-0.353276
-0.350418
-0.346016
-0.342806
-0.338381
-0.33441
-0.329978
-0.325615
-0.32116
-0.315971
-0.311509
-0.305523
-0.301037
-0.294081
-0.289591
-0.28221
-0.277693
-0.269261
-0.264742
-0.256011
-0.251464
-0.242283
-0.237738
-0.228889
-0.224314
-0.215657
-0.211088
-0.203316
-0.198715
-0.191981
-0.187389
-0.182188
-0.177562
-0.173549
-0.168938
-0.166899
-0.162252
-0.161224
-0.156599
-0.157441
-0.152777
-0.154348
-0.149713
-0.152818
-0.14814
-0.151498
-0.146856
-0.151524
-0.146532
-0.151363
-0.14688
-0.152919
-0.148549
-0.154204
-0.149731
-0.157637
-0.154144
-0.161018
-0.156563
-0.167279
-0.165239
-0.173824
-0.169382
-0.18378
-0.183605
-0.194476
-0.190022
-0.209316
-0.210586
-0.224844
-0.220325
-0.245692
-1.50398
-0.267455
-1.51279
-0.295323
-1.56318
-0.323621
-1.57472
-0.356525
-1.6343
-0.387902
-1.64775
-0.420413
-1.7086
-0.443781
-1.7198
-0.460903
-1.76009
-0.462229
-1.7618
-0.449457
-1.72324
-0.419821
-1.70759
-0.375636
-1.6239
-0.323029
-1.59918
-0.266004
-1.49891
-0.210089
-1.47521
-0.161045
-1.39139
-0.121521
-1.37641
-0.0915575
-1.32315
-0.0715336
-1.31689
-0.057453
-1.2874
-0.0496499
-1.28597
-0.0431674
-1.19612
-0.0401476
-1.26749
-0.0362563
-1.18242
-0.0343554
-1.25453
-0.0309785
-1.23594
-0.0291972
-1.24423
-0.026181
-1.23466
-0.024423
-1.23465
-0.0215239
-1.21612
-0.0198555
-1.22541
-0.0172919
-1.19403
-0.0159149
-1.21717
-0.0138299
-1.17554
-0.0129042
-1.21066
-0.0114449
-1.18212
-0.0109126
-1.20636
-0.00988402
-1.1968
-0.00951131
-1.20349
-0.00864507
-1.20097
-0.00815307
-1.20091
-0.00723916
-1.1983
-0.00659555
-1.19818
-0.00565552
-1.19553
-0.00493607
-1.1954
-0.00406372
-1.19293
-0.00347125
-1.19287
-0.00284949
-1.18689
-0.00247343
-1.19092
-0.00210888
-1.18656
-0.00188062
-1.18966
-0.00158796
-1.18866
-0.00135988
-1.18865
-0.00107985
-1.1877
-0.000845458
-1.18768
-0.000581528
-1.1868
-0.000375421
-1.18679
-0.00019079
-1.18436
-0.000101449
-1.18623
-5.16841e-05
-1.1854
-3.98302e-05
-1.18611
-3.71031e-05
-1.18612
-3.67965e-05
-1.18611
-3.73746e-05
-1.18611
-3.72246e-05
-1.18611
-3.76837e-05
-1.18611
-3.77515e-05
-1.18611
-3.83546e-05
-1.18611
-3.89871e-05
-1.18611
-4.15857e-05
-1.18611
-5.00297e-05
-1.18611
-4.74906e-05
-1.1861
-1.0181e-05
-1.18607
-0.392474
-0.416012
-0.394001
-0.417083
-0.394675
-0.417594
-0.397961
-0.420556
-0.399217
-0.421841
-0.403993
-0.426226
-0.405682
-0.428168
-0.43804
-0.433565
-0.439956
-0.436058
-0.44606
-0.44188
-0.448545
-0.444829
-0.454803
-0.450877
-0.4577
-0.454152
-0.464044
-0.460341
-0.467298
-0.463904
-0.473731
-0.470223
-0.477352
-0.474098
-0.483935
-0.480597
-0.487966
-0.484837
-0.494766
-0.491574
-0.499254
-0.496235
-0.506328
-0.50326
-0.511308
-0.508384
-0.518696
-0.515733
-0.524181
-0.52134
-0.531902
-0.529032
-0.53787
-0.535104
-0.545897
-0.543108
-0.552298
-0.549602
-0.560558
-0.557848
-0.567308
-0.56468
-0.575721
-0.573087
-0.582702
-0.580145
-0.591159
-0.588604
-0.598269
-0.595785
-0.606689
-0.604213
-0.613844
-0.611435
-0.622189
-0.619795
-0.629358
-0.627026
-0.637616
-0.635304
-0.644802
-0.642548
-0.652988
-0.650756
-0.660212
-0.658035
-0.668353
-0.666201
-0.675622
-0.67352
-0.683731
-0.681657
-0.691039
-0.689014
-0.699097
-0.6971
-0.706418
-0.704467
-0.714395
-0.712474
-0.721679
-0.7198
-0.729539
-0.727689
-0.736744
-0.734933
-0.744433
-0.742651
-0.751528
-0.74978
-0.759037
-0.757314
-0.765992
-0.764298
-0.773301
-0.77163
-0.780096
-0.77845
-0.787206
-0.785579
-0.793854
-0.792246
-0.80076
-0.799169
-0.807242
-0.805666
-0.813957
-0.812394
-0.820286
-0.818736
-0.82682
-0.825281
-0.833009
-0.831481
-0.839405
-0.837887
-0.84549
-0.843981
-0.851769
-0.85027
-0.85778
-0.85629
-0.863977
-0.862497
-0.869966
-0.868496
-0.876119
-0.874659
-0.882096
-0.880644
-0.888233
-0.886792
-0.894221
-0.892787
-0.900355
-0.89893
-0.906363
-0.904942
-0.912509
-0.911094
-0.918555
-0.91714
-0.924752
-0.923338
-0.930877
-0.929465
-0.937154
-0.93575
-0.943402
-0.942005
-0.949785
-0.9484
-0.956152
-0.954777
-0.962664
-0.961305
-0.969133
-0.967785
-0.975685
-0.974353
-0.982185
-0.980863
-0.988699
-0.987391
-0.995089
-0.993786
-1.00143
-1.00014
-1.00762
-1.00632
-1.01368
-1.01239
-1.01953
-1.01824
-1.02525
-1.02397
-1.03076
-1.0295
-1.03614
-1.03489
-1.04133
-1.0401
-1.04643
-1.04523
-1.05136
-1.05018
-1.05621
-1.05506
-1.06092
-1.05979
-1.06551
-1.06442
-1.06995
-1.06889
-1.07425
-1.07323
-1.07835
-1.07736
-1.08224
-1.08129
-1.0859
-1.08497
-1.08928
-1.0884
-1.09238
-1.09151
-1.09517
-1.09435
-1.09766
-1.09686
-1.09982
-1.09907
-1.10172
-1.10097
-1.10331
-1.10261
-1.10467
-1.10397
-1.10577
-1.10511
-1.10669
-1.10603
-1.1074
-1.10678
-1.108
-1.10737
-1.10843
-1.10784
-1.1088
-1.1082
-1.10904
-1.10847
-1.10927
-1.10867
-1.10938
-1.10882
-1.10952
-1.10892
-1.10956
-1.109
-1.10965
-1.10906
-1.10967
-1.1091
-1.1097
-1.10913
-1.10971
-1.10915
-1.10972
-1.10917
-1.10973
-1.10918
-1.10974
-1.1092
-1.10974
-1.10921
-1.10975
-1.10923
-1.10975
-1.10925
-1.10978
-1.10927
-1.10979
-1.1093
-1.10983
-1.10933
-1.10985
-1.10937
-1.10991
-1.10942
-1.10994
-1.10947
-1.11003
-1.10953
-1.11007
-1.10961
-1.11017
-1.10969
-1.11022
-1.10977
-1.11034
-1.10986
-1.11038
-1.10996
-1.1105
-1.11005
-1.11054
-1.11014
-1.11066
-1.11023
-1.11069
-1.11031
-1.11079
-1.11038
-1.11081
-1.11044
-1.11086
-1.11048
-1.11087
-1.11052
-1.11083
-1.11051
-1.11079
-1.11049
-1.11064
-1.1104
-1.11054
-1.11028
-1.11021
-1.11004
-1.10991
-1.1097
-1.10926
-1.10912
-1.10844
-1.10827
-1.10703
-1.10693
-1.1051
-1.10498
-1.10211
-1.10205
-1.09801
-1.09794
-1.09212
-1.0921
-1.08422
-1.0842
-1.07363
-1.07366
-1.05995
-1.05999
-1.04267
-1.04274
-1.02166
-1.02175
-0.996645
-0.996772
-0.967332
-0.967471
-0.934617
-0.934795
-0.898665
-0.898859
-0.86039
-0.860621
-0.820505
-0.820755
-0.780244
-0.78053
-0.740358
-0.740664
-0.701645
-0.701987
-0.665378
-0.665742
-0.63198
-0.632378
-0.601225
-0.601648
-0.573828
-0.574285
-0.549748
-0.550229
-0.528447
-0.528961
-0.509706
-0.510246
-0.49317
-0.493741
-0.478692
-0.479288
-0.465758
-0.466386
-0.454121
-0.454771
-0.443565
-0.444245
-0.434032
-0.434734
-0.425279
-0.426008
-0.417085
-0.417833
-0.409671
-0.410446
-0.402611
-0.403403
-0.395937
-0.396753
-0.389477
-0.390308
-0.383269
-0.384124
-0.376932
-0.377799
-0.370621
-0.371511
-0.364048
-0.364949
-0.357148
-0.358072
-0.349889
-0.350822
-0.342253
-0.34321
-0.33385
-0.334814
-0.325032
-0.32602
-0.315382
-0.316376
-0.30491
-0.305929
-0.293464
-0.294487
-0.281567
-0.282616
-0.268616
-0.269668
-0.255338
-0.256419
-0.241612
-0.242691
-0.228188
-0.229298
-0.214962
-0.216067
-0.202588
-0.203726
-0.191265
-0.192392
-0.181439
-0.182599
-0.172818
-0.17396
-0.166137
-0.167311
-0.160486
-0.161637
-0.15667
-0.157854
-0.153603
-0.154762
-0.152021
-0.153232
-0.15071
-0.151913
-0.150347
-0.151939
-0.15068
-0.15179
-0.152342
-0.153336
-0.153574
-0.154633
-0.158075
-0.158055
-0.16057
-0.161449
-0.169306
-0.167698
-0.173392
-0.174256
-0.187498
-0.184201
-0.193798
-0.19491
-0.214847
-0.209737
-0.224028
-0.22528
-0.253454
-0.246115
-0.266618
-0.267869
-1.57189
-0.295749
-1.584
-0.324038
-1.64298
-0.356951
-1.65641
-0.388321
-1.71724
-0.42084
-1.72843
-0.444202
-1.76872
-0.461331
-1.77043
-0.462653
-1.73188
-0.449887
-1.71622
-0.420247
-1.63252
-0.376067
-1.60779
-0.323457
-1.50751
-0.266436
-1.48381
-0.210519
-1.40001
-0.161479
-1.38503
-0.121952
-1.3318
-0.0919924
-1.32554
-0.0719674
-1.29604
-0.0578893
-1.29459
-0.0500855
-1.20474
-0.0436051
-1.2761
-0.0405848
-1.19104
-0.0366955
-1.26315
-0.0347943
-1.24455
-0.0314191
-1.25284
-0.0296377
-1.24328
-0.0266229
-1.24327
-0.024865
-1.22474
-0.0219671
-1.23402
-0.020299
-1.20265
-0.0177365
-1.22578
-0.0163599
-1.18416
-0.0142758
-1.21928
-0.0133504
-1.19073
-0.011892
-1.21498
-0.0113602
-1.20541
-0.0103323
-1.2121
-0.00996003
-1.20959
-0.00909443
-1.20953
-0.00860292
-1.20692
-0.00768957
-1.20681
-0.00704644
-1.20416
-0.00610691
-1.20403
-0.00538792
-1.20155
-0.004516
-1.2015
-0.00392397
-1.19551
-0.00330256
-1.19955
-0.0029269
-1.19518
-0.00256261
-1.19828
-0.00233474
-1.19728
-0.00204228
-1.19727
-0.00181461
-1.19633
-0.00153473
-1.19631
-0.0013008
-1.19543
-0.00103703
-1.19542
-0.000831491
-1.19299
-0.000646893
-1.19486
-0.00055808
-1.19403
-0.000507945
-1.19474
-0.000496233
-1.19474
-0.000493726
-1.19474
-0.000493617
-1.19474
-0.000494432
-1.19474
-0.000494414
-1.19474
-0.000495087
-1.19474
-0.000495198
-1.19474
-0.00049591
-1.19474
-0.000496531
-1.19474
-0.000499128
-1.19474
-0.000507564
-1.19473
-0.000505023
-1.1947
-0.000467693
)
;

boundaryField
{
    walls
    {
        type            zeroGradient;
    }
    inlet
    {
        type            cyclic;
    }
    outlet
    {
        type            cyclic;
    }
    sides
    {
        type            empty;
    }
}


// ************************************************************************* //
