/*--------------------------------*- C++ -*----------------------------------*\
| =========                 |                                                 |
| \\      /  F ield         | OpenFOAM: The Open Source CFD Toolbox           |
|  \\    /   O peration     | Version:  2012                                  |
|   \\  /    A nd           | Website:  www.openfoam.com                      |
|    \\/     M anipulation  |                                                 |
\*---------------------------------------------------------------------------*/
FoamFile
{
    version     2.0;
    format      ascii;
    class       volSymmTensorField;
    location    "12700";
    object      turbulenceProperties:R;
}
// * * * * * * * * * * * * * * * * * * * * * * * * * * * * * * * * * * * * * //

dimensions      [0 2 -2 0 0 0 0];


internalField   nonuniform List<symmTensor> 
2560
(
(0.012049 -5.44725e-06 -7.89541e-09 0.012049 -3.70823e-08 0.012049)
(0.0120398 -5.43673e-06 -7.88936e-09 0.0120398 1.47772e-12 0.0120398)
(0.343894 -0.000895283 -3.91516e-06 0.343894 -1.28435e-10 0.343894)
(0.343651 -0.000893622 -3.91235e-06 0.34365 2.0202e-10 0.343651)
(2.264 -0.0177603 -0.000106454 2.26401 6.9992e-05 2.264)
(2.26261 -0.0177296 -0.000106275 2.2626 1.23002e-09 2.26261)
(6.01252 -0.0982642 -0.000597564 6.01253 0.000276079 6.01252)
(6.00973 -0.0981199 -0.000596716 6.00972 4.2051e-09 6.00973)
(9.87279 -0.258088 -0.00159234 9.87281 0.000326724 9.87279)
(9.86916 -0.257767 -0.00159044 9.86914 3.28991e-09 9.86916)
(13.2562 -0.474303 -0.00296815 13.2563 0.000265843 13.2562)
(13.252 -0.473796 -0.00296514 13.252 1.60555e-09 13.252)
(16.231 -0.72828 -0.00462181 16.231 0.000206547 16.231)
(16.2263 -0.727608 -0.00461778 16.2263 8.94002e-10 16.2263)
(18.9114 -1.0093 -0.00649551 18.9114 0.000164872 18.9114)
(18.9063 -1.00849 -0.00649066 18.9062 2.97437e-09 18.9063)
(21.3782 -1.31136 -0.00856252 21.3782 0.000135865 21.3782)
(21.3727 -1.31047 -0.00855709 21.3727 4.9764e-10 21.3727)
(23.6854 -1.63191 -0.0108163 23.6854 0.000114906 23.6854)
(23.6796 -1.63097 -0.0108106 23.6795 6.4882e-09 23.6796)
(25.8698 -1.96919 -0.0132443 25.8698 9.91337e-05 25.8698)
(25.8636 -1.96824 -0.0132384 25.8636 1.38977e-09 25.8636)
(27.9575 -2.32132 -0.0158433 27.9576 8.68756e-05 27.9575)
(27.951 -2.3204 -0.0158376 27.951 1.04807e-08 27.951)
(29.9677 -2.68796 -0.018621 29.9677 7.7233e-05 29.9677)
(29.9611 -2.68711 -0.0186156 29.9606 -8.57197e-07 29.9611)
(31.9149 -3.0679 -0.0215614 31.915 6.80479e-05 31.9149)
(31.9078 -3.06714 -0.0215567 31.9078 -1.27526e-08 31.9078)
(33.8104 -3.45719 -0.0246371 33.8104 6.25452e-05 33.8104)
(33.8037 -3.45654 -0.0246331 33.8018 4.60896e-07 33.8037)
(35.6633 -3.85127 -0.0278217 35.6633 5.13869e-05 35.6633)
(35.6556 -3.85074 -0.0278185 35.6556 -5.53413e-08 35.6556)
(37.4809 -4.24669 -0.0310993 37.4809 5.08236e-05 37.4809)
(37.4735 -4.2463 -0.031097 37.4718 5.33949e-06 37.4735)
(39.2692 -4.64512 -0.0345155 39.2693 3.70656e-05 39.2692)
(39.261 -4.64486 -0.0345142 39.261 -2.36533e-08 39.261)
(41.0336 -5.0567 -0.0381775 41.0337 4.49105e-05 41.0336)
(41.0252 -5.05657 -0.0381769 41.0252 5.42913e-08 41.0252)
(42.7785 -5.4931 -0.0421585 42.7785 2.63722e-05 42.7785)
(42.7697 -5.49309 -0.0421587 42.7697 -1.13056e-08 42.7697)
(44.5075 -5.95671 -0.0464375 44.5075 4.48538e-05 44.5075)
(44.4985 -5.95679 -0.0464384 44.4985 7.90855e-08 44.4985)
(46.224 -6.44028 -0.0509483 46.2241 1.64604e-05 46.224)
(46.2148 -6.44045 -0.0509499 46.2148 1.56125e-09 46.2148)
(47.9309 -6.93593 -0.0556572 47.9309 4.8797e-05 47.9309)
(47.9213 -6.93618 -0.0556593 47.9213 -4.35607e-06 47.9213)
(49.6306 -7.44128 -0.0605757 49.6307 2.17421e-06 49.6306)
(49.6208 -7.44158 -0.0605782 49.6208 -8.89492e-08 49.6208)
(51.3256 -7.95752 -0.0657235 51.3256 6.31008e-05 51.3256)
(51.3155 -7.95785 -0.0657262 51.3155 -1.95717e-06 51.3155)
(53.0178 -8.48506 -0.0710997 53.0179 -2.03851e-05 53.0178)
(53.0074 -8.4854 -0.0711024 53.0074 -2.06893e-07 53.0074)
(54.7094 -9.02185 -0.0766848 54.7093 7.89973e-05 54.7094)
(54.6987 -9.02218 -0.0766875 54.6987 5.91083e-06 54.6987)
(56.4019 -9.56459 -0.0824559 56.4021 -4.1617e-05 56.4019)
(56.3909 -9.56489 -0.0824583 56.3909 -1.43842e-07 56.391)
(58.0973 -10.1113 -0.0884134 58.0972 8.94718e-05 58.0973)
(58.086 -10.1115 -0.0884152 58.086 -5.67692e-08 58.086)
(59.7969 -10.6654 -0.0946278 59.7971 -5.81395e-05 59.7969)
(59.7854 -10.6655 -0.0946287 59.7854 -4.29984e-08 59.7854)
(61.5027 -11.2404 -0.101279 61.5025 0.000100632 61.5027)
(61.4907 -11.2404 -0.101279 61.4907 2.76477e-07 61.4907)
(63.2155 -11.8604 -0.108638 63.2158 -7.57945e-05 63.2155)
(63.2034 -11.8603 -0.108636 63.2034 4.61465e-08 63.2034)
(64.9373 -12.5532 -0.116978 64.9371 0.000113816 64.9373)
(64.9247 -12.5529 -0.116974 64.9247 3.74626e-07 64.9247)
(66.6685 -13.3395 -0.126465 66.6689 -9.46883e-05 66.6685)
(66.6558 -13.339 -0.126459 66.6558 3.41404e-08 66.6558)
(68.4109 -14.2242 -0.137105 68.4106 0.000131138 68.4109)
(68.3976 -14.2235 -0.137097 68.3976 -9.98661e-06 68.3976)
(70.1643 -15.1947 -0.148746 70.1647 -0.000125567 70.1643)
(70.1509 -15.1937 -0.148736 70.1509 -2.12671e-07 70.1509)
(71.9302 -16.2254 -0.161135 71.9298 0.000164052 71.9302)
(71.9162 -16.2243 -0.161123 71.9162 -3.43679e-05 71.9162)
(73.708 -17.2857 -0.173993 73.7085 -0.000206291 73.708)
(73.6939 -17.2843 -0.173978 73.6939 -7.39087e-07 73.6939)
(75.4992 -18.3481 -0.187103 75.4988 0.000276596 75.4992)
(75.4845 -18.3465 -0.187087 75.4845 -1.52522e-05 75.4845)
(77.3031 -19.3987 -0.200424 77.3037 -0.00035059 77.3031)
(77.2883 -19.397 -0.200406 77.2883 -1.01152e-06 77.2883)
(79.1214 -20.4479 -0.214218 79.1208 0.000442707 79.1214)
(79.1058 -20.4459 -0.214197 79.1058 1.25911e-05 79.1058)
(80.953 -21.539 -0.229136 80.9538 -0.00051608 80.953)
(80.9375 -21.5367 -0.229111 80.9375 -8.82488e-07 80.9375)
(82.8002 -22.7478 -0.246172 82.7996 0.00060176 82.8002)
(82.7838 -22.7452 -0.246142 82.7838 2.98128e-05 82.7838)
(84.6613 -24.1666 -0.266414 84.6621 -0.000655569 84.6613)
(84.6449 -24.1636 -0.26638 84.6449 -4.87713e-07 84.6449)
(86.5377 -25.8741 -0.290675 86.537 0.000714843 86.5377)
(86.5204 -25.8707 -0.290636 86.5204 1.37666e-05 86.5204)
(88.4264 -27.9045 -0.319182 88.4274 -0.000761898 88.4264)
(88.4092 -27.9007 -0.319138 88.4092 -3.08115e-07 88.4092)
(90.3277 -30.2345 -0.351515 90.3268 0.000808983 90.3277)
(90.3094 -30.2304 -0.351467 90.3094 -7.62966e-06 90.3094)
(92.2362 -32.7904 -0.386758 92.2373 -0.000869458 92.2362)
(92.2181 -32.786 -0.386707 92.2181 -4.34605e-07 92.2181)
(94.1508 -35.4751 -0.423875 94.1498 0.000925885 94.1508)
(94.1315 -35.4706 -0.423824 94.1315 -0.000157154 94.1315)
(96.0646 -38.1937 -0.461878 96.0657 -0.00115205 96.0646)
(96.0455 -38.1893 -0.461828 96.0455 -2.7673e-06 96.0455)
(97.9757 -40.8434 -0.499408 97.9746 0.00137973 97.9757)
(97.9554 -40.8394 -0.499364 97.9554 4.54787e-05 97.9554)
(99.8768 -43.2608 -0.533869 99.8779 -0.00158257 99.8768)
(99.8566 -43.2575 -0.533835 99.8566 -5.23558e-06 99.8566)
(101.767 -45.1426 -0.560264 101.766 0.00173758 101.767)
(101.745 -45.1405 -0.560249 101.745 9.27627e-05 101.745)
(103.64 -45.9662 -0.57013 103.641 -0.00189617 103.64)
(103.619 -45.9661 -0.570142 103.619 -1.14634e-05 103.619)
(105.502 -44.942 -0.551015 105.501 0.00191874 105.502)
(105.479 -44.9446 -0.551068 105.479 -5.2282e-05 105.479)
(107.358 -41.0547 -0.487558 107.359 -0.00214733 107.358)
(107.335 -41.061 -0.487667 107.335 -2.11552e-05 107.335)
(109.227 -33.2249 -0.364124 109.226 0.00211747 109.227)
(109.203 -33.2361 -0.364306 109.203 -6.95641e-05 109.203)
(111.133 -20.5772 -0.169041 111.134 -0.00246633 111.133)
(111.108 -20.5944 -0.169311 111.108 -2.28061e-05 111.108)
(113.107 -0.0287503 -0.000192281 113.107 0.00237767 113.107)
(113.081 -4.46981e-16 -5.83536e-21 113.081 -3.92159e-05 113.081)
(115.166 15.1398 -0.102726 115.167 -0.00283508 115.166)
(115.14 15.0836 -0.102345 115.14 -6.86116e-06 115.14)
(117.305 45.5606 -0.444507 117.305 0.00272264 117.305)
(117.277 45.5206 -0.44401 117.277 3.88179e-05 117.277)
(119.459 72.4972 -0.829196 119.458 -0.00319588 119.459)
(119.43 72.4493 -0.828578 119.43 2.00726e-05 119.43)
(121.517 97.873 -1.22189 121.517 0.00312012 121.517)
(121.487 97.8178 -1.22116 121.487 0.000108357 121.487)
(123.334 119.043 -1.58208 123.332 -0.0034867 123.334)
(123.303 118.982 -1.58124 123.303 3.76313e-05 123.303)
(124.752 133.931 -1.87187 124.753 0.0034862 124.752)
(124.722 133.866 -1.87094 124.722 9.36865e-05 124.722)
(125.647 141.405 -2.06371 125.646 -0.00365698 125.647)
(125.617 141.339 -2.06273 125.617 -0.000105073 125.617)
(125.945 141.404 -2.14493 125.947 0.00368342 125.945)
(125.916 141.34 -2.14394 125.916 -2.70894e-05 125.916)
(125.644 134.803 -2.11845 125.642 -0.00372733 125.644)
(125.615 134.745 -2.11752 125.615 -5.68601e-05 125.615)
(124.794 123.071 -1.99964 124.796 0.00374552 124.794)
(124.767 123.026 -1.99884 124.767 -9.7137e-06 124.767)
(123.495 107.888 -1.81071 123.493 -0.00373594 123.495)
(123.469 107.861 -1.81013 123.469 -4.42395e-06 123.469)
(121.857 90.8209 -1.13972 121.86 0.00374354 121.857)
(121.834 90.8179 -1.13959 121.834 3.15437e-07 121.834)
(120.001 73.1392 -0.484736 120 -0.00372881 120.001)
(119.979 73.1641 -0.484684 119.979 -0.000218691 119.979)
(118.025 55.7565 0.0374104 118.026 0.00136858 118.025)
(118.005 55.8091 0.03741 118.005 -1.14572e-19 118.005)
(116.014 39.2714 0.427415 116.013 -0.000163496 116.014)
(115.994 39.3434 0.427379 115.994 0.000289817 115.994)
(114.027 24.0403 0.284362 114.027 1.50818e-05 114.027)
(114.005 24.1205 0.285756 114.017 5.21117e-05 114.005)
(112.104 7.5333 0.0643962 112.103 -0.000112968 112.104)
(112.086 7.69733 0.0657984 112.086 2.09325e-05 112.086)
(110.267 -2.22128e-16 -1.11205e-22 110.267 1.32143e-05 110.267)
(110.247 -0.0566692 0.000491465 110.256 0.000105365 110.247)
(108.521 -12.6103 0.13461 108.519 -7.57129e-05 108.521)
(108.504 -12.5349 0.133244 108.504 1.93946e-05 108.504)
(106.856 -21.6682 0.31122 106.856 1.12352e-05 106.856)
(106.839 -21.5994 0.309929 106.845 7.2572e-05 106.839)
(105.262 -29.197 0.419483 105.261 -5.05657e-05 105.262)
(105.247 -29.1381 0.41945 105.247 1.62114e-05 105.247)
(103.717 -35.2862 0.123145 103.717 9.1211e-06 103.717)
(103.702 -35.2423 0.123135 103.706 5.08455e-05 103.702)
(102.202 -40.0612 -0.228424 102.201 -3.56447e-05 102.202)
(102.19 -40.0363 -0.228411 102.19 1.14522e-05 102.19)
(100.696 -43.6726 -0.625218 100.696 6.57787e-06 100.696)
(100.685 -43.6659 -0.625184 100.687 3.79232e-05 100.685)
(99.1824 -46.2739 -0.913893 99.1817 -2.84067e-05 99.1824)
(99.1725 -46.2811 -0.91414 99.1725 -8.67172e-07 99.1725)
(97.6432 -48.0021 -0.953202 97.6432 4.30834e-06 97.6432)
(97.6346 -48.0184 -0.953587 97.635 2.82479e-05 97.6346)
(96.0665 -48.965 -0.979195 96.0659 -2.97282e-05 96.0665)
(96.059 -48.9863 -0.979644 96.059 -4.16283e-21 96.059)
(94.4412 -49.2341 -0.99231 94.4412 -5.52058e-06 94.4412)
(94.4349 -49.257 -0.992771 94.4351 2.95408e-05 94.4349)
(92.7611 -48.8444 -0.99232 92.7607 -3.4425e-05 92.7611)
(92.7556 -48.8666 -0.992758 92.7556 -9.3536e-07 92.7556)
(91.0215 -47.8014 -0.9785 91.0215 -8.58082e-06 91.0215)
(91.0168 -47.8217 -0.978897 91.0172 2.48122e-05 91.0168)
(89.2227 -46.0948 -0.949931 89.2223 -3.45994e-05 89.2227)
(89.2186 -46.1128 -0.950283 89.2186 -3.78268e-06 89.2186)
(87.3671 -43.7145 -0.905827 87.3671 -1.19432e-05 87.3671)
(87.3636 -43.7301 -0.906135 87.3639 1.47718e-05 87.3636)
(85.4622 -40.6666 -0.845921 85.4619 -3.44393e-05 85.4622)
(85.4591 -40.6801 -0.84619 85.4591 -1.29478e-05 85.4591)
(83.5178 -36.9895 -0.770813 83.5178 -1.36854e-05 83.5178)
(83.5151 -37.0011 -0.771051 83.5154 6.40566e-06 83.5151)
(81.5476 -32.7637 -0.682175 81.5473 -3.19783e-05 81.5476)
(81.5451 -32.7738 -0.682386 81.5451 -1.32802e-05 81.5451)
(79.5662 -28.1124 -0.582719 79.5662 -1.23769e-05 79.5662)
(79.564 -28.1213 -0.582907 79.5643 5.45572e-06 79.564)
(77.5899 -23.1961 -0.476114 77.5897 -2.65349e-05 77.5899)
(77.5879 -23.2039 -0.476283 77.5879 -1.03433e-05 77.5879)
(75.6334 -18.2036 -0.36681 75.6334 -8.05926e-06 75.6334)
(75.6316 -18.2105 -0.36696 75.6318 7.76005e-06 75.6316)
(73.7102 -13.3354 -0.259518 73.71 -1.92947e-05 73.7102)
(73.7085 -13.3414 -0.25965 73.7085 -5.18467e-06 73.7085)
(71.8302 -8.78405 -0.158854 71.8302 -1.20925e-09 71.8302)
(71.8286 -8.7892 -0.158968 71.8288 1.39358e-05 71.8286)
(70.0007 -4.72005 -0.0689886 70.0005 -1.23889e-05 70.0007)
(69.9993 -4.72436 -0.0690835 69.9993 3.95155e-08 69.9993)
(68.2253 7.84408e-14 1.07447e-15 68.2253 4.76158e-08 68.2253)
(68.224 -0.00464865 -5.70088e-05 68.2241 1.21455e-05 68.224)
(66.5056 0.53861 -0.0067013 66.5054 -7.53229e-06 66.5056)
(66.5043 0.532526 -0.00662561 66.5043 3.50275e-06 66.5043)
(64.8408 3.40881 -0.0656826 64.8408 4.20336e-06 64.8408)
(64.8397 3.40697 -0.0656263 64.8398 1.47041e-05 64.8397)
(63.2298 4.59914 -0.106611 63.2296 -5.26353e-06 63.2298)
(63.2287 4.59808 -0.106574 63.2287 4.57053e-06 63.2287)
(61.6708 5.04813 -0.129024 61.6708 4.32738e-06 61.6708)
(61.6698 5.04782 -0.129007 61.6699 1.34388e-05 61.6698)
(60.1632 4.81303 -0.13326 60.163 -4.77143e-06 60.1632)
(60.1622 4.8134 -0.133261 60.1622 3.97304e-06 60.1622)
(58.7065 3.97141 -0.120352 58.7065 3.32011e-06 58.7065)
(58.7056 3.97239 -0.120371 58.7057 1.12905e-05 58.7056)
(57.3012 2.6134 -0.0918524 57.3011 -4.98864e-06 57.3012)
(57.3004 2.61489 -0.0918863 57.3004 2.74356e-06 57.3004)
(55.9478 7.23444e-36 -0.0496687 55.9478 2.03106e-06 55.9478)
(55.9471 0.00156764 -0.0497155 55.9472 9.04168e-06 55.9471)
(54.647 -0.284955 -0.0665986 54.6469 -5.40529e-06 54.647)
(54.6463 -0.280905 -0.0665359 54.6463 1.41343e-06 54.6463)
(53.3983 -3.55692 -0.135447 53.3983 2.16389e-07 53.3983)
(53.3977 -3.55467 -0.135382 53.3978 6.37944e-06 53.3977)
(52.2002 -5.95713 -0.207486 52.2001 -6.27568e-06 52.2002)
(52.1996 -5.95491 -0.207423 52.1996 -2.23282e-07 52.1996)
(51.0495 -8.34164 -0.27941 51.0495 -1.28483e-06 51.0495)
(51.049 -8.33958 -0.279353 51.0491 4.13769e-06 51.049)
(49.9418 -10.5929 -0.34762 49.9417 -7.92487e-06 49.9418)
(49.9413 -10.5911 -0.347572 49.9413 -2.50881e-06 49.9413)
(48.8707 -12.5921 -0.408348 48.8707 -3.9014e-06 48.8707)
(48.8703 -12.5907 -0.408312 48.8704 8.35609e-07 48.8703)
(47.8295 -14.2252 -0.457858 47.8295 -1.00117e-05 47.8295)
(47.8292 -14.2242 -0.457836 47.8292 -5.22672e-06 47.8292)
(46.811 -15.389 -0.492642 46.811 -6.67197e-06 46.811)
(46.8107 -15.3885 -0.492635 46.8108 -2.49323e-06 46.8107)
(45.8089 -15.9991 -0.509735 45.8089 -1.23179e-05 45.8089)
(45.8087 -15.9991 -0.509743 45.8087 -8.05743e-06 45.8087)
(44.8188 -15.9985 -0.507022 44.8188 -9.50781e-06 44.8188)
(44.8186 -15.999 -0.507043 44.8187 -5.78287e-06 44.8186)
(43.8388 -15.3652 -0.483528 43.8387 -1.48671e-05 43.8388)
(43.8386 -15.366 -0.483562 43.8386 -1.10473e-05 43.8386)
(42.8698 -14.1162 -0.439564 42.8698 -1.28674e-05 42.8698)
(42.8697 -14.1173 -0.439607 42.8697 -9.58807e-06 42.8697)
(41.9157 -12.3093 -0.376867 41.9157 -1.86079e-05 41.9157)
(41.9156 -12.3107 -0.376917 41.9156 -1.51097e-05 41.9156)
(40.9823 -10.04 -0.298481 40.9823 -1.79838e-05 40.9823)
(40.9823 -10.0416 -0.298536 40.9823 -1.51893e-05 40.9823)
(40.0766 -7.43444 -0.20856 40.0766 -2.48713e-05 40.0766)
(40.0766 -7.43608 -0.208617 40.0766 -2.15715e-05 40.0766)
(39.2052 -4.63869 -0.112018 39.2052 -2.59619e-05 39.2052)
(39.2052 -4.64035 -0.112075 39.2052 -2.36501e-05 39.2052)
(38.3733 -0.7988 -0.0140538 38.3733 -3.41063e-05 38.3733)
(38.3733 -0.801917 -0.0141086 38.3733 -3.09469e-05 38.3733)
(37.5842 0.0017658 -3.15186e-05 37.5842 -3.63531e-05 37.5842)
(37.5841 7.35089e-14 -0 37.5842 -3.43749e-05 37.5841)
(36.8378 3.39985 -0.0805224 36.8378 -4.4602e-05 36.8378)
(36.8378 3.39852 -0.0804715 36.8378 -4.16525e-05 36.8378)
(36.132 5.54319 -0.167049 36.132 -4.62652e-05 36.132)
(36.1319 5.54205 -0.167004 36.132 -4.43273e-05 36.1319)
(35.4629 7.28099 -0.241938 35.4629 -5.20255e-05 35.4629)
(35.4629 7.28005 -0.2419 35.4629 -4.9538e-05 35.4629)
(34.826 8.58555 -0.302826 34.826 -5.07633e-05 34.826)
(34.826 8.58482 -0.302794 34.8261 -4.8549e-05 34.826)
(34.2169 9.4669 -0.348743 34.217 -5.09606e-05 34.2169)
(34.2169 9.46637 -0.348719 34.2169 -4.92191e-05 34.2169)
(33.6318 9.96707 -0.380075 33.6318 -4.45544e-05 33.6318)
(33.6318 9.96671 -0.380058 33.6319 -4.17586e-05 33.6318)
(33.0681 10.1519 -0.398363 33.0681 -3.76058e-05 33.0681)
(33.0681 10.1517 -0.398353 33.0681 -3.66773e-05 33.0681)
(32.5242 10.1019 -0.406028 32.5242 -2.58524e-05 32.5242)
(32.5241 10.1018 -0.406023 32.5242 -2.25114e-05 32.5241)
(31.9995 9.90274 -0.406068 31.9995 -1.19744e-05 31.9995)
(31.9995 9.90271 -0.406066 31.9995 -1.09539e-05 31.9995)
(31.4941 9.63514 -0.40166 31.4941 7.51597e-07 31.4941)
(31.4941 9.63513 -0.40166 31.4941 3.52835e-06 31.4941)
(31.0085 9.36701 -0.395765 31.0085 1.60603e-05 31.0085)
(31.0085 9.367 -0.395765 31.0085 1.7212e-05 31.0085)
(30.543 9.14942 -0.390871 30.543 2.99231e-05 30.543)
(30.5429 9.14938 -0.39087 30.5429 3.30234e-05 30.5429)
(30.0978 9.01446 -0.388818 30.0978 4.00458e-05 30.0978)
(30.0978 9.01436 -0.388815 30.0978 4.13882e-05 30.0978)
(29.673 8.97516 -0.390709 29.673 4.93227e-05 29.673)
(29.6729 8.97501 -0.390704 29.6729 5.15316e-05 29.6729)
(29.268 9.02737 -0.396882 29.2679 5.18743e-05 29.268)
(29.2679 9.02716 -0.396874 29.2679 5.40559e-05 29.2679)
(28.8821 9.1533 -0.406982 28.8821 5.53515e-05 28.8821)
(28.882 9.15304 -0.406972 28.882 5.65878e-05 28.882)
(28.5142 9.32561 -0.420108 28.5141 5.03668e-05 28.5142)
(28.5141 9.32532 -0.420095 28.5141 5.35816e-05 28.5141)
(28.1629 9.51181 -0.434947 28.1629 4.93393e-05 28.1629)
(28.1628 9.5115 -0.434933 28.1628 4.98963e-05 28.1628)
(27.827 9.67913 -0.44998 27.8269 3.9557e-05 27.827)
(27.8269 9.67882 -0.449966 27.8269 4.35012e-05 27.8269)
(27.5049 9.79815 -0.463704 27.5049 3.68102e-05 27.5049)
(27.5048 9.79786 -0.46369 27.5048 3.71925e-05 27.5048)
(27.1957 9.84524 -0.47474 27.1957 2.56279e-05 27.1957)
(27.1956 9.84498 -0.474727 27.1956 2.99888e-05 27.1956)
(26.8984 9.80499 -0.481987 26.8984 2.35588e-05 26.8984)
(26.8983 9.80479 -0.481976 26.8983 1.75527e-05 26.8983)
(26.6128 9.67116 -0.484738 26.6128 1.3274e-05 26.6128)
(26.6127 9.67101 -0.484729 26.6127 3.26571e-06 26.6126)
(26.3389 9.44609 -0.482708 26.3389 1.31854e-05 26.3389)
(26.3387 9.446 -0.482702 26.3387 1.70967e-07 26.3387)
(26.0772 9.14006 -0.47602 26.0772 4.42763e-06 26.0772)
(26.077 9.14002 -0.476017 26.077 -7.89478e-07 26.077)
(25.8287 8.77024 -0.465204 25.8287 5.34835e-06 25.8287)
(25.8285 8.77025 -0.465204 25.8285 5.5986e-07 25.8285)
(25.5947 8.35867 -0.451152 25.5947 -4.86411e-06 25.5947)
(25.5944 8.35872 -0.451153 25.5944 -7.78422e-07 25.5944)
(25.3764 7.93038 -0.435002 25.3764 -5.53859e-07 25.3764)
(25.3761 7.93045 -0.435006 25.3761 8.72499e-07 25.3761)
(25.1753 7.51197 -0.418093 25.1753 -7.25229e-06 25.1753)
(25.175 7.51203 -0.418096 25.175 -7.59376e-07 25.175)
(24.9928 7.13034 -0.401886 24.9928 -5.58417e-07 24.9928)
(24.9924 7.13037 -0.401889 24.9924 1.10917e-06 24.9924)
(24.8299 6.81148 -0.387919 24.8299 -8.5884e-06 24.8299)
(24.8295 6.81146 -0.38792 24.8295 -7.33204e-07 24.8295)
(24.6876 6.57967 -0.377728 24.6876 -1.04314e-06 24.6876)
(24.6871 6.57957 -0.377725 24.6871 1.2861e-06 24.6871)
(24.5664 6.45654 -0.37283 24.5664 -9.78296e-06 24.5664)
(24.5659 6.45633 -0.372822 24.5659 -7.04548e-07 24.5659)
(24.4666 6.46049 -0.374625 24.4666 -8.81629e-07 24.4666)
(24.466 6.46015 -0.374609 24.466 1.45979e-06 24.466)
(24.388 6.60677 -0.384414 24.388 -1.03262e-05 24.388)
(24.3873 6.60625 -0.384389 24.3873 -6.80469e-07 24.3873)
(24.3298 6.90571 -0.403357 24.3298 -5.50616e-07 24.3298)
(24.3291 6.90498 -0.40332 24.3291 1.66999e-06 24.3291)
(24.2909 7.36138 -0.432287 24.2909 -1.04786e-05 24.2909)
(24.2901 7.36041 -0.432236 24.2901 -6.70188e-07 24.2901)
(24.2695 7.97092 -0.471683 24.2695 -5.44976e-07 24.2695)
(24.2686 7.96965 -0.471614 24.2686 1.78136e-06 24.2686)
(24.2631 8.72316 -0.521561 24.2631 -1.03831e-05 24.2631)
(24.2621 8.72152 -0.521471 24.2621 -6.84729e-07 24.2621)
(24.2683 9.5973 -0.581347 24.2683 -5.36459e-07 24.2683)
(24.2673 9.5952 -0.581229 24.2673 1.86286e-06 24.2673)
(24.2811 10.5624 -0.649757 24.2811 -1.01544e-05 24.2811)
(24.28 10.5596 -0.649604 24.28 -7.37304e-07 24.28)
(24.2963 11.5773 -0.724751 24.2963 -5.23918e-07 24.2963)
(24.2951 11.5736 -0.724548 24.2951 1.90394e-06 24.2951)
(24.3083 12.5912 -0.803499 24.3083 -9.8696e-06 24.3083)
(24.307 12.5861 -0.803221 24.307 -7.20704e-07 24.307)
(24.3107 13.5452 -0.882349 24.3107 -5.05154e-07 24.3107)
(24.3093 13.538 -0.881953 24.3093 1.89743e-06 24.3093)
(24.2971 14.3753 -0.95702 24.2971 -9.62683e-06 24.2971)
(24.2957 14.3647 -0.956432 24.2957 -7.28928e-07 24.2957)
(24.2614 15.0153 -1.02268 24.2614 -4.78854e-07 24.2614)
(24.2601 14.9999 -1.0218 24.2601 1.84536e-06 24.2601)
(24.1988 15.401 -1.07429 24.1988 -9.4713e-06 24.1988)
(24.1976 15.3814 -1.07303 24.1976 -7.82867e-07 24.1976)
(24.1057 15.4741 -0.562979 24.1057 -4.42517e-07 24.1057)
(24.1048 15.4559 -0.562932 24.1048 1.76677e-06 24.1048)
(23.9813 15.1859 -0.0122095 23.9813 -9.39326e-06 23.9813)
(23.9808 15.1847 -0.0121661 23.9808 -8.63601e-07 23.9808)
(23.8274 14.5152 0.535924 23.8274 -4.85394e-07 23.8274)
(23.8274 14.5331 0.535962 23.8274 1.80379e-06 23.8274)
(23.6484 13.4624 0.95884 23.6484 -9.59342e-06 23.6484)
(23.6486 13.4842 0.960367 23.6486 -7.42571e-07 23.6486)
(23.451 12.0347 0.850745 23.451 -6.17295e-07 23.451)
(23.4513 12.0523 0.85185 23.4513 1.98843e-06 23.4513)
(23.2441 10.2595 0.713992 23.2441 -9.89422e-06 23.2441)
(23.2445 10.2717 0.714738 23.2445 -5.81426e-07 23.2445)
(23.0379 8.1856 0.551964 23.0379 -7.21392e-07 23.0379)
(23.0382 8.19377 0.552482 23.0383 2.25328e-06 23.0382)
(22.8423 5.87602 0.369105 22.8423 -1.0283e-05 22.8423)
(22.8425 5.88181 0.369497 22.8425 -3.665e-07 22.8425)
(22.6658 3.40498 0.171128 22.6658 -7.82837e-07 22.6658)
(22.6659 3.40949 0.171456 22.666 2.59149e-06 22.6659)
(22.5147 -1.25202e-16 -7.16793e-22 22.5147 -1.07442e-05 22.5147)
(22.5148 0.00402359 0.000163533 22.5148 -1.20476e-07 22.5148)
(22.3922 -0.875808 0.0361135 22.3922 -7.98795e-07 22.3922)
(22.3921 -0.8683 0.0358039 22.3921 2.96304e-06 22.3921)
(22.298 -4.15889 0.247875 22.298 -1.12215e-05 22.298)
(22.2978 -4.1548 0.247554 22.2978 1.12093e-07 22.2978)
(22.2275 -6.46217 0.455248 22.2275 -7.7845e-07 22.2275)
(22.2273 -6.4572 0.454878 22.2273 3.30875e-06 22.2272)
(22.1737 -8.53596 0.651567 22.1737 -1.16133e-05 22.1737)
(22.1734 -8.52909 0.651084 22.1734 2.68464e-07 22.1734)
(22.1278 -10.3241 0.830599 22.1278 -7.34909e-07 22.1278)
(22.1275 -10.3138 0.829888 22.1275 3.58627e-06 22.1275)
(22.0801 -11.7872 0.987117 22.0801 -1.1762e-05 22.0801)
(22.0798 -11.7716 0.985999 22.0798 3.14588e-07 22.0798)
(22.0211 -12.8991 1.09166 22.0211 -6.77211e-07 22.0211)
(22.0209 -12.8795 1.09161 22.0209 3.78551e-06 22.0209)
(21.9428 -13.6463 0.496369 21.9428 -1.18023e-05 21.9428)
(21.9428 -13.6334 0.496301 21.9428 2.53481e-07 21.9428)
(21.8393 -14.0366 -0.141394 21.8393 -6.34676e-07 21.8393)
(21.8397 -14.0435 -0.141472 21.8397 3.97458e-06 21.8397)
(21.707 -14.103 -0.806184 21.707 -1.18071e-05 21.707)
(21.7077 -14.1224 -0.806258 21.7077 3.17713e-07 21.7077)
(21.5444 -13.8834 -1.30899 21.5444 -8.69489e-07 21.5444)
(21.5453 -13.9003 -1.31031 21.5454 4.45602e-06 21.5453)
(21.3522 -13.4149 -1.27196 21.3522 -1.20142e-05 21.3522)
(21.3531 -13.4262 -1.27279 21.3531 4.83192e-07 21.3531)
(21.1329 -12.7406 -1.21547 21.1329 -1.12323e-06 21.1329)
(21.1338 -12.7475 -1.21599 21.1338 5.00923e-06 21.1338)
(20.8907 -11.9071 -1.14349 20.8907 -1.22902e-05 20.8907)
(20.8916 -11.9115 -1.14384 20.8916 6.81673e-07 20.8916)
(20.6308 -10.9604 -1.05979 20.6308 -1.3749e-06 20.6308)
(20.6316 -10.9633 -1.06004 20.6316 5.64782e-06 20.6316)
(20.3588 -9.94098 -0.967775 20.3588 -1.26509e-05 20.3588)
(20.3595 -9.94312 -0.967964 20.3595 9.16072e-07 20.3595)
(20.0804 -8.8841 -0.870587 20.0804 -1.61064e-06 20.0804)
(20.081 -8.88572 -0.870736 20.081 6.40373e-06 20.081)
(19.8011 -7.8186 -0.770705 19.8011 -1.57027e-05 19.8011)
(19.8016 -7.81987 -0.770825 19.8016 1.16026e-06 19.8016)
(19.5259 -6.76514 -0.669878 19.5259 -8.73912e-06 19.5259)
(19.5263 -6.76616 -0.669977 19.5263 7.26035e-06 19.5263)
(19.2593 -5.73691 -0.569222 19.2593 -2.32664e-05 19.2593)
(19.2597 -5.73774 -0.569305 19.2597 1.43035e-06 19.2597)
(19.0052 -4.73988 -0.469068 19.0052 -1.29314e-05 19.0052)
(19.0055 -4.74059 -0.469139 19.0056 8.20653e-06 19.0055)
(18.7669 -3.77293 -0.369024 18.7669 -2.58294e-05 18.7669)
(18.7671 -3.77354 -0.369087 18.7671 1.70025e-06 18.7671)
(18.5469 -2.82865 -0.267989 18.5469 -1.49843e-05 18.5469)
(18.5471 -2.82918 -0.268046 18.5471 9.25986e-06 18.5471)
(18.3473 -1.89433 -0.164272 18.3473 -2.75347e-05 18.3473)
(18.3474 -1.89482 -0.164326 18.3474 -2.03297e-06 18.3474)
(18.1695 -0.953474 -0.0557122 18.1695 -1.57688e-05 18.1695)
(18.1696 -0.953937 -0.0557656 18.1697 -3.77553e-07 18.1696)
(18.0145 0.00260776 -0.000154265 18.0145 -2.8028e-05 18.0145)
(18.0146 0.00258012 -0.00015263 18.0146 -1.08183e-05 18.0146)
(17.8826 1.00898 -0.0605554 17.8826 -1.52308e-05 17.8826)
(17.8826 1.00805 -0.0604998 17.8826 -8.61491e-07 17.8826)
(17.7733 2.07871 -0.186836 17.7733 -2.75178e-05 17.7733)
(17.7733 2.0782 -0.186776 17.7733 -9.12973e-06 17.7733)
(17.6855 3.20148 -0.324277 17.6855 -1.3733e-05 17.6855)
(17.6854 3.20092 -0.324211 17.6854 2.29385e-06 17.6854)
(17.6169 4.38489 -0.473699 17.6169 -2.67873e-05 17.6169)
(17.6168 4.38426 -0.473624 17.6168 -7.02183e-06 17.6168)
(17.5644 5.61737 -0.63473 17.5644 -1.21025e-05 17.5644)
(17.5642 5.61664 -0.634644 17.5642 5.70908e-06 17.5642)
(17.5232 6.87599 -0.805539 17.5232 -2.67522e-05 17.5232)
(17.523 6.87514 -0.805438 17.523 -5.40971e-06 17.523)
(17.4875 8.12599 -0.982628 17.4875 -1.13585e-05 17.4875)
(17.4873 8.12498 -0.982507 17.4873 8.37061e-06 17.4873)
(17.4504 9.32189 -1.16069 17.4504 -2.83425e-05 17.4504)
(17.4501 9.32068 -1.16055 17.4501 -5.23447e-06 17.4501)
(17.404 10.4096 -1.33285 17.404 -1.20015e-05 17.404)
(17.4036 10.4081 -1.33267 17.4037 9.77119e-06 17.4036)
(17.34 11.3298 -1.49077 17.34 -3.17433e-05 17.34)
(17.3396 11.3278 -1.49054 17.3396 -6.70594e-06 17.3396)
(17.2506 12.023 -1.62535 17.2506 -1.38117e-05 17.2506)
(17.2502 12.0202 -1.62504 17.2502 1.01126e-05 17.2502)
(17.1291 12.4339 -1.72731 17.1291 -3.63422e-05 17.1291)
(17.1286 12.4295 -1.72685 17.1286 -9.24537e-06 17.1286)
(16.9706 12.5175 -1.78787 16.9706 -1.6e-05 16.9706)
(16.97 12.5099 -1.7871 16.9701 1.01625e-05 16.97)
(16.7732 12.2435 -1.61002 16.7732 -4.0972e-05 16.7732)
(16.7726 12.2307 -1.60988 16.7726 -1.17146e-05 16.7726)
(16.5381 11.5985 -0.742788 16.5381 -1.72907e-05 16.5381)
(16.5377 11.5832 -0.742578 16.5377 1.11888e-05 16.5377)
(16.2705 10.5852 0.0818683 16.2705 -4.44442e-05 16.2705)
(16.2703 10.5862 0.0821513 16.2703 -1.28942e-05 16.2703)
(15.9777 9.24541 0.83448 15.9777 -1.68209e-05 15.9777)
(15.9777 9.26296 0.834688 15.9778 1.44017e-05 15.9777)
(15.6686 7.64418 1.04592 15.6686 -4.63712e-05 15.6686)
(15.6687 7.65842 1.0475 15.6687 -1.21954e-05 15.6687)
(15.3527 5.84511 0.767022 15.3527 -1.39682e-05 15.3527)
(15.3528 5.85287 0.767844 15.3528 1.97841e-05 15.3528)
(15.0395 3.92955 0.468436 15.0394 -4.71128e-05 15.0395)
(15.0396 3.93374 0.468932 15.0396 -1.04348e-05 15.0396)
(14.7364 1.99034 0.164861 14.7364 -9.707e-06 14.7364)
(14.7365 1.99304 0.165229 14.7365 2.68804e-05 14.7365)
(14.4484 1.22553e-14 -0 14.4484 -4.78101e-05 14.4484)
(14.4484 0.000281046 2.28407e-05 14.4484 -8.00951e-06 14.4484)
(14.177 -1.56802 0.129287 14.177 -6.51034e-06 14.177)
(14.177 -1.5641 0.128964 14.177 3.45058e-05 14.177)
(13.9209 -3.0601 0.399128 13.9209 -4.97163e-05 13.9209)
(13.9209 -3.05805 0.398807 13.9209 -5.43781e-06 13.9209)
(13.6769 -4.23285 0.630731 13.6769 -4.68114e-06 13.6769)
(13.6768 -4.23025 0.630362 13.6768 4.13878e-05 13.6768)
(13.4405 -5.06628 0.813266 13.4405 -5.39267e-05 13.4405)
(13.4404 -5.06216 0.812746 13.4404 -4.43406e-06 13.4404)
(13.2076 -5.54284 0.939317 13.2076 -4.35975e-06 13.2076)
(13.2075 -5.53588 0.938409 13.2075 4.74843e-05 13.2075)
(12.9752 -5.66862 0.893909 12.9752 -6.03253e-05 12.9752)
(12.9751 -5.65987 0.893702 12.9751 -4.80147e-06 12.9751)
(12.742 -5.4722 0.395232 12.742 -5.19807e-06 12.742)
(12.742 -5.46899 0.394931 12.742 5.31979e-05 12.742)
(12.5089 -5.00659 -0.083479 12.5089 -6.83736e-05 12.5089)
(12.5089 -5.01262 -0.0837709 12.5089 -5.79602e-06 12.5089)
(12.2778 -4.34309 -0.519457 12.2778 -6.40552e-06 12.2778)
(12.2779 -4.3517 -0.51966 12.2779 5.97781e-05 12.2779)
(12.0513 -3.5553 -0.591005 12.0513 -7.76517e-05 12.0513)
(12.0514 -3.56136 -0.591869 12.0514 -6.7502e-06 12.0514)
(11.8321 -2.71455 -0.437146 11.8321 -7.14581e-06 11.8321)
(11.8322 -2.7182 -0.437665 11.8322 6.76751e-05 11.8322)
(11.6228 -1.88909 -0.288059 11.6227 -8.7472e-05 11.6228)
(11.6228 -1.89129 -0.288386 11.6228 -7.25056e-06 11.6228)
(11.4251 -1.13837 -0.154622 11.4251 -7.46382e-06 11.4251)
(11.4251 -1.13977 -0.15484 11.4252 7.73793e-05 11.4251)
(11.2401 -0.45339 -0.0451002 11.2401 -9.85473e-05 11.2401)
(11.2402 -0.454857 -0.0452461 11.2402 -7.45613e-06 11.2402)
(11.0683 -8.59934e-15 2.23128e-16 11.0683 -7.54765e-06 11.0683)
(11.0684 -0.000158365 -1.59821e-05 11.0684 8.90284e-05 11.0684)
(10.9097 0.288389 -0.035411 10.9097 -0.000111402 10.9097)
(10.9097 0.288054 -0.0353186 10.9097 -7.62391e-06 10.9097)
(10.7639 0.441489 -0.0840971 10.7639 -7.79176e-06 10.7639)
(10.7639 0.441378 -0.0840523 10.7639 0.000102491 10.7639)
(10.6308 0.44426 -0.100795 10.6308 -0.000126682 10.6308)
(10.6308 0.444346 -0.100794 10.6308 -8.12569e-06 10.6308)
(10.5102 0.317139 -0.0876088 10.5102 -8.58638e-06 10.5102)
(10.5102 0.317389 -0.0876469 10.5102 0.000117666 10.5102)
(10.4019 0.00349596 -0.0484541 10.4019 -0.000144925 10.4019)
(10.4019 0.00401749 -0.0485239 10.4019 -9.00861e-06 10.4019)
(10.3059 -0.0988026 -0.0829465 10.3059 -9.55603e-06 10.3059)
(10.3059 -0.0979861 -0.0828521 10.306 0.000135416 10.3059)
(10.2219 -0.553248 -0.163332 10.2219 -0.000166341 10.2219)
(10.222 -0.552838 -0.163245 10.222 -1.00983e-05 10.222)
(10.1496 -0.90958 -0.246549 10.1496 -1.06837e-05 10.1496)
(10.1496 -0.909232 -0.24648 10.1497 0.000156106 10.1496)
(10.0885 -1.25745 -0.327592 10.0885 -0.000191059 10.0885)
(10.0885 -1.2572 -0.327547 10.0885 -1.10311e-05 10.0885)