/*--------------------------------*- C++ -*----------------------------------*\
| =========                 |                                                 |
| \\      /  F ield         | OpenFOAM: The Open Source CFD Toolbox           |
|  \\    /   O peration     | Version:  2012                                  |
|   \\  /    A nd           | Website:  www.openfoam.com                      |
|    \\/     M anipulation  |                                                 |
\*---------------------------------------------------------------------------*/
FoamFile
{
    version     2.0;
    format      ascii;
    class       volScalarField;
    location    "10400";
    object      omega;
}
// * * * * * * * * * * * * * * * * * * * * * * * * * * * * * * * * * * * * * //

dimensions      [0 0 -1 0 0 0 0];


internalField   nonuniform List<scalar> 
2560
(
1.52415e+06
1.52415e+06
265154
265154
89804
89804
42169
42169
23660.6
23660.6
14853.7
14853.7
10190.1
10190.1
7562.35
7562.35
5990.1
5990.1
4985.87
4985.87
4303.67
4303.67
3815.28
3815.28
3450.42
3450.42
3168.31
3168.31
2944.03
2944.03
2761.63
2761.63
2610.46
2610.46
2483.17
2483.17
2374.52
2374.52
2280.69
2280.69
2198.81
2198.81
2126.69
2126.69
2062.63
2062.63
2005.28
2005.28
1953.55
1953.55
1906.57
1906.57
1863.6
1863.6
1824.02
1824.02
1787.33
1787.33
1753.07
1753.07
1720.87
1720.87
1690.4
1690.4
1661.35
1661.35
1633.48
1633.48
1606.55
1606.55
1580.36
1580.36
1554.72
1554.72
1529.48
1529.48
1504.47
1504.47
1479.59
1479.59
1454.7
1454.7
1429.71
1429.71
1404.55
1404.55
1379.12
1379.12
1353.39
1353.39
1327.31
1327.31
1300.85
1300.85
1274
1274
1246.75
1246.75
1219.14
1219.14
1191.18
1191.18
1162.93
1162.93
1134.44
1134.44
1105.78
1105.78
1077.03
1077.03
1048.29
1048.29
1019.66
1019.66
991.253
991.253
963.183
963.183
935.57
935.57
908.533
908.533
882.188
882.188
856.645
856.645
832.007
832.007
808.362
808.362
785.785
785.785
764.333
764.333
744.041
744.041
724.927
724.927
706.985
706.985
690.194
690.194
674.506
674.506
659.862
659.862
646.189
646.189
633.403
633.403
621.417
621.417
610.139
610.139
599.478
599.478
589.348
589.348
579.664
579.664
570.352
570.352
561.344
561.344
552.581
552.581
544.01
544.01
535.588
535.588
527.281
527.281
519.058
519.058
510.897
510.897
502.781
502.781
494.696
494.696
486.633
486.633
478.586
478.586
470.553
470.553
462.531
462.531
454.522
454.522
446.526
446.526
438.548
438.548
430.589
430.589
422.655
422.655
414.75
414.75
406.878
406.878
399.045
399.045
391.254
391.254
383.512
383.512
375.823
375.823
368.191
368.191
360.622
360.622
353.119
353.119
345.687
345.687
338.33
338.33
331.051
331.051
323.853
323.853
316.741
316.741
309.717
309.717
302.784
302.784
295.944
295.944
289.199
289.199
282.552
282.552
276.003
276.003
269.554
269.554
263.207
263.207
256.962
256.962
250.821
250.821
244.783
244.783
238.848
238.848
233.018
233.018
227.291
227.291
221.668
221.668
216.148
216.148
210.73
210.73
205.415
205.415
200.201
200.201
195.088
195.088
190.074
190.074
185.159
185.159
180.342
180.342
175.622
175.622
170.998
170.998
166.468
166.468
162.033
162.033
157.69
157.69
153.438
153.438
149.276
149.276
145.204
145.204
141.22
141.22
137.322
137.322
133.51
133.51
129.782
129.782
126.138
126.138
122.576
122.576
119.096
119.096
115.696
115.696
112.376
112.376
109.134
109.134
105.971
105.971
102.884
102.884
99.8738
99.8738
96.9393
96.9393
94.0798
94.0798
91.2944
91.2944
88.5824
88.5824
85.9429
85.9429
83.3749
83.3749
80.8773
80.8773
78.4487
78.4487
76.0879
76.0879
73.7932
73.7932
71.563
71.563
69.3954
69.3954
67.2886
67.2886
65.2409
65.2409
63.2503
63.2503
61.3152
61.3152
59.4339
59.4339
57.6051
57.6051
55.8275
55.8275
54.0998
54.0998
52.4211
52.4211
50.7904
50.7904
49.2068
49.2068
47.6694
47.6694
46.1774
46.1774
44.7298
44.7298
43.3258
43.3258
41.9643
41.9643
40.6444
40.6444
39.3651
39.3651
38.1252
38.1252
36.9238
36.9238
35.7598
35.7598
34.6324
34.6324
33.5407
33.5407
32.484
32.484
31.4618
31.4618
30.4733
30.4733
29.5183
29.5183
28.5961
28.5961
27.7065
27.7065
26.8489
26.8489
26.0232
26.0232
25.2287
25.2287
24.4652
24.4652
23.732
23.732
23.0286
23.0286
22.3542
22.3542
21.708
21.708
21.0891
21.0891
20.4966
20.4966
19.9293
19.9293
19.3861
19.3861
18.8662
18.8662
18.3686
18.3686
17.8924
17.8924
17.4366
17.4366
17.0003
17.0003
16.5823
16.5823
16.1815
16.1815
15.7963
15.7963
15.4253
15.4253
15.067
15.067
14.7195
14.7195
14.3812
14.3812
14.0508
14.0508
13.7273
13.7273
13.4104
13.4104
13.1
13.1
12.7962
12.7962
12.4994
12.4994
12.2094
12.2094
11.9258
11.9258
11.6481
11.6481
11.3753
11.3753
11.1069
11.1069
10.8424
10.8424
10.5815
10.5815
10.3242
10.3242
10.0708
10.0708
9.82164
9.82164
9.57755
9.57755
9.33948
9.33948
9.10847
9.10847
8.88539
8.88539
8.67075
8.67075
8.46465
8.46465
8.26672
8.26672
8.07615
8.07615
7.89167
7.89167
7.71144
7.71144
7.53325
7.53325
7.35493
7.35493
7.17511
7.17511
6.99369
6.99369
6.81179
6.81179
6.63136
6.63136
6.45467
6.45467
6.28365
6.28365
6.1194
6.1194
5.96224
5.96224
5.81193
5.81193
5.66795
5.66795
5.52999
5.52999
5.39827
5.39828
5.2734
5.2734
5.15595
5.15595
5.04589
5.04589
4.94258
4.94258
4.84506
4.84506
4.75245
4.75245
4.66416
4.66416
4.57991
4.57992
4.49982
4.49982
4.42432
4.42432
4.35408
4.35408
4.28971
4.28971
4.2315
4.2315
4.17934
4.17934
4.13257
4.13257
4.09023
4.09023
4.051
4.051
4.01356
4.01356
3.97683
3.97683
3.93991
3.93991
3.90148
3.90148
3.85959
3.85959
3.8119
3.81191
3.75666
3.75666
3.69335
3.69335
3.6226
3.6226
3.54582
3.54582
3.46541
3.46541
3.38477
3.38477
3.30715
3.30715
3.23322
3.23322
3.16243
3.16243
3.09474
3.09474
3.03074
3.03074
2.97046
2.97046
2.91299
2.91299
2.85756
2.85756
2.80414
2.80414
2.75335
2.75335
2.70588
2.70588
2.66211
2.66211
2.62207
2.62207
2.58549
2.58549
2.55133
2.55133
2.51755
2.51755
2.48208
2.48208
2.44424
2.44424
2.40533
2.40533
2.36746
2.36746
2.33211
2.33211
2.29993
2.29993
2.27132
2.27132
2.24651
2.24652
2.22547
2.22547
2.20816
2.20817
2.19498
2.19498
2.18593
2.18594
2.18114
2.18115
1.52415e+06
1.52415e+06
265154
265154
89804
89804
42169
42169
23660.6
23660.6
14853.7
14853.7
10190.1
10190.1
7562.35
7562.35
5990.1
5990.1
4985.87
4985.87
4303.67
4303.67
3815.28
3815.28
3450.42
3450.42
3168.31
3168.31
2944.03
2944.03
2761.63
2761.63
2610.46
2610.46
2483.17
2483.17
2374.52
2374.52
2280.69
2280.69
2198.81
2198.81
2126.69
2126.69
2062.63
2062.63
2005.28
2005.28
1953.55
1953.55
1906.57
1906.57
1863.6
1863.6
1824.02
1824.02
1787.33
1787.33
1753.07
1753.07
1720.87
1720.87
1690.4
1690.4
1661.35
1661.35
1633.48
1633.48
1606.55
1606.55
1580.36
1580.36
1554.72
1554.72
1529.48
1529.48
1504.47
1504.47
1479.59
1479.59
1454.7
1454.7
1429.71
1429.71
1404.55
1404.55
1379.12
1379.12
1353.39
1353.39
1327.31
1327.31
1300.85
1300.85
1274
1274
1246.75
1246.75
1219.14
1219.14
1191.18
1191.18
1162.93
1162.93
1134.44
1134.44
1105.78
1105.78
1077.03
1077.03
1048.29
1048.29
1019.66
1019.66
991.253
991.253
963.183
963.183
935.57
935.57
908.533
908.533
882.188
882.188
856.645
856.645
832.007
832.007
808.362
808.362
785.786
785.786
764.333
764.333
744.041
744.041
724.927
724.927
706.985
706.985
690.194
690.194
674.507
674.507
659.862
659.862
646.189
646.189
633.403
633.403
621.417
621.417
610.139
610.139
599.479
599.479
589.348
589.348
579.664
579.664
570.352
570.352
561.344
561.344
552.581
552.581
544.01
544.01
535.588
535.588
527.281
527.281
519.058
519.058
510.897
510.897
502.781
502.781
494.696
494.696
486.633
486.633
478.586
478.586
470.553
470.553
462.531
462.531
454.522
454.522
446.526
446.526
438.548
438.548
430.589
430.589
422.655
422.655
414.75
414.75
406.878
406.878
399.044
399.044
391.254
391.254
383.512
383.512
375.823
375.823
368.191
368.191
360.622
360.622
353.119
353.119
345.687
345.687
338.33
338.33
331.051
331.051
323.853
323.853
316.741
316.741
309.717
309.717
302.784
302.784
295.944
295.944
289.199
289.199
282.552
282.552
276.003
276.003
269.554
269.554
263.207
263.207
256.962
256.962
250.821
250.821
244.782
244.782
238.848
238.848
233.018
233.018
227.291
227.291
221.668
221.668
216.148
216.148
210.73
210.73
205.415
205.415
200.201
200.201
195.088
195.088
190.074
190.074
185.159
185.159
180.342
180.342
175.622
175.622
170.998
170.998
166.468
166.468
162.033
162.033
157.69
157.69
153.438
153.438
149.276
149.276
145.204
145.204
141.22
141.22
137.322
137.322
133.51
133.51
129.782
129.782
126.138
126.138
122.576
122.576
119.096
119.096
115.696
115.696
112.376
112.376
109.134
109.134
105.971
105.971
102.884
102.884
99.8738
99.8738
96.9393
96.9393
94.0798
94.0798
91.2944
91.2944
88.5824
88.5824
85.9429
85.9429
83.3749
83.3749
80.8773
80.8773
78.4487
78.4487
76.0879
76.0879
73.7932
73.7932
71.563
71.563
69.3954
69.3954
67.2886
67.2886
65.2409
65.2409
63.2503
63.2503
61.3152
61.3152
59.4339
59.4339
57.6051
57.6051
55.8275
55.8275
54.0998
54.0998
52.4211
52.4211
50.7904
50.7904
49.2068
49.2068
47.6694
47.6694
46.1774
46.1774
44.7298
44.7298
43.3258
43.3258
41.9643
41.9643
40.6444
40.6444
39.3651
39.3651
38.1252
38.1252
36.9238
36.9238
35.7598
35.7598
34.6324
34.6324
33.5407
33.5407
32.484
32.484
31.4618
31.4618
30.4733
30.4733
29.5183
29.5183
28.5961
28.5961
27.7065
27.7065
26.8489
26.8489
26.0232
26.0232
25.2287
25.2287
24.4652
24.4652
23.732
23.732
23.0285
23.0285
22.3541
22.3541
21.708
21.708
21.0891
21.0891
20.4965
20.4965
19.9292
19.9292
19.3861
19.3861
18.8662
18.8662
18.3686
18.3686
17.8924
17.8924
17.4366
17.4366
17.0003
17.0003
16.5823
16.5823
16.1814
16.1814
15.7962
15.7962
15.4253
15.4253
15.0669
15.0669
14.7194
14.7194
14.3811
14.3811
14.0507
14.0507
13.7273
13.7273
13.4104
13.4104
13.0999
13.0999
12.7962
12.7962
12.4993
12.4993
12.2093
12.2093
11.9258
11.9258
11.6481
11.6481
11.3753
11.3753
11.1069
11.1069
10.8424
10.8424
10.5815
10.5815
10.3242
10.3242
10.0708
10.0708
9.82163
9.82163
9.57753
9.57754
9.33947
9.33947
9.10846
9.10846
8.88538
8.88538
8.67074
8.67074
8.46463
8.46463
8.2667
8.2667
8.07614
8.07614
7.89166
7.89166
7.71144
7.71144
7.53325
7.53325
7.35494
7.35494
7.17513
7.17513
6.99372
6.99372
6.81182
6.81182
6.6314
6.6314
6.45471
6.45471
6.28369
6.28369
6.11944
6.11944
5.96228
5.96228
5.81197
5.81197
5.66799
5.66799
5.53003
5.53003
5.39831
5.39831
5.27342
5.27342
5.15597
5.15597
5.0459
5.0459
4.94258
4.94259
4.84506
4.84507
4.75246
4.75246
4.66416
4.66416
4.57992
4.57992
4.49982
4.49982
4.42432
4.42432
4.35407
4.35407
4.28968
4.28968
4.23146
4.23146
4.17928
4.17928
4.1325
4.1325
4.09014
4.09014
4.05091
4.05091
4.01346
4.01346
3.97674
3.97674
3.93982
3.93982
3.90141
3.90141
3.85953
3.85954
3.81188
3.81188
3.75667
3.75667
3.69338
3.69338
3.62266
3.62266
3.5459
3.5459
3.46548
3.46549
3.38483
3.38484
3.3072
3.30721
3.23326
3.23326
3.16246
3.16246
3.09476
3.09476
3.03076
3.03076
2.97047
2.97047
2.91299
2.913
2.85756
2.85757
2.80415
2.80415
2.75335
2.75336
2.70588
2.70588
2.66209
2.66209
2.62204
2.62204
2.58545
2.58545
2.55129
2.55129
2.51753
2.51753
2.48207
2.48207
2.44425
2.44425
2.40535
2.40535
2.36749
2.36749
2.33213
2.33214
2.29995
2.29995
2.27132
2.27132
2.24651
2.24651
2.22547
2.22547
2.20815
2.20815
2.19497
2.19496
2.18592
2.18591
2.18112
2.18112
2.18101
2.18102
2.18554
2.18555
2.19433
2.19433
2.2072
2.2072
2.2242
2.2242
2.24497
2.24497
2.26953
2.26953
2.2979
2.29791
2.32981
2.32981
2.36477
2.36477
2.40221
2.40221
2.4408
2.4408
2.47842
2.47842
2.51384
2.51384
2.54788
2.54788
2.58252
2.58252
2.61963
2.61963
2.66016
2.66016
2.7044
2.7044
2.75232
2.75232
2.80349
2.80349
2.8572
2.8572
2.91285
2.91286
2.97055
2.97055
3.03111
3.03111
3.09537
3.09537
3.16331
3.16331
3.23435
3.23436
3.30855
3.30855
3.38642
3.38642
3.46738
3.46738
3.54808
3.54808
3.62493
3.62493
3.6955
3.6955
3.75838
3.75838
3.81299
3.81299
3.86016
3.86016
3.90177
3.90177
3.94008
3.94008
3.97702
3.97702
4.01378
4.01378
4.05126
4.05126
4.09053
4.09053
4.13287
4.13287
4.17963
4.17963
4.23178
4.23178
4.28997
4.28997
4.35432
4.35432
4.4245
4.4245
4.49991
4.49991
4.57987
4.57987
4.66394
4.66394
4.7521
4.7521
4.84459
4.84459
4.94191
4.94191
5.045
5.045
5.15483
5.15484
5.27206
5.27206
5.39671
5.39671
5.52826
5.52826
5.66609
5.66609
5.80989
5.80989
5.95997
5.95997
6.11685
6.11685
6.28077
6.28078
6.45145
6.45145
6.62789
6.62789
6.8082
6.8082
6.98999
6.98999
7.17116
7.17116
7.3506
7.35061
7.52868
7.52868
7.70687
7.70687
7.88727
7.88727
8.07212
8.07212
8.26323
8.26323
8.46176
8.46177
8.66841
8.66841
8.88341
8.88341
9.10663
9.10663
9.33761
9.33761
9.57557
9.57557
9.81952
9.81952
10.0686
10.0686
10.3219
10.3219
10.5791
10.5791
10.84
10.84
11.1047
11.1047
11.3732
11.3732
11.6461
11.6461
11.9241
11.9241
12.2081
12.2081
12.4986
12.4986
12.7961
12.7961
13.1006
13.1006
13.4115
13.4115
13.7288
13.7288
14.0524
14.0524
14.383
14.383
14.7213
14.7213
15.0689
15.0689
15.4275
15.4275
15.7986
15.7986
16.1838
16.1838
16.5845
16.5845
17.0022
17.0022
17.4382
17.4382
17.8936
17.8936
18.3694
18.3694
18.8667
18.8667
19.3864
19.3864
19.9295
19.9295
20.4968
20.4968
21.0894
21.0894
21.7083
21.7083
22.3545
22.3545
23.029
23.029
23.7326
23.7326
24.4659
24.4659
25.2295
25.2295
26.024
26.024
26.8497
26.8497
27.7072
27.7072
28.5969
28.5969
29.5191
29.5191
30.4742
30.4742
31.4626
31.4626
32.4849
32.4849
33.5416
33.5416
34.6333
34.6333
35.7608
35.7608
36.9248
36.9248
38.1262
38.1262
39.366
39.366
40.6453
40.6453
41.9651
41.9651
43.3264
43.3264
44.7304
44.7304
46.178
46.178
47.67
47.67
49.2074
49.2074
50.791
50.791
52.4217
52.4217
54.1005
54.1005
55.8282
55.8282
57.6059
57.6059
59.4347
59.4347
61.3159
61.3159
63.251
63.251
65.2416
65.2416
67.2895
67.2895
69.3964
69.3964
71.5642
71.5642
73.7946
73.7946
76.0893
76.0893
78.4502
78.4502
80.8788
80.8788
83.3764
83.3764
85.9444
85.9444
88.5839
88.5839
91.2958
91.2958
94.0811
94.0811
96.9407
96.9407
99.8751
99.8751
102.885
102.885
105.972
105.972
109.135
109.135
112.377
112.377
115.697
115.697
119.097
119.097
122.577
122.577
126.139
126.139
129.783
129.783
133.511
133.511
137.323
137.323
141.221
141.221
145.205
145.205
149.278
149.278
153.44
153.44
157.692
157.692
162.036
162.036
166.472
166.472
171.002
171.002
175.627
175.627
180.348
180.348
185.165
185.165
190.08
190.08
195.094
195.094
200.208
200.208
205.422
205.422
210.738
210.738
216.156
216.156
221.677
221.677
227.3
227.3
233.027
233.027
238.858
238.858
244.793
244.793
250.831
250.831
256.972
256.972
263.217
263.217
269.563
269.563
276.01
276.01
282.558
282.558
289.204
289.204
295.946
295.946
302.783
302.783
309.715
309.715
316.737
316.737
323.849
323.849
331.045
331.045
338.323
338.323
345.681
345.681
353.112
353.112
360.615
360.615
368.184
368.184
375.815
375.815
383.503
383.503
391.243
391.243
399.033
399.033
406.867
406.867
414.739
414.739
422.646
422.646
430.582
430.582
438.543
438.543
446.523
446.523
454.519
454.519
462.527
462.527
470.544
470.544
478.568
478.568
486.602
486.602
494.652
494.652
502.729
502.729
510.842
510.842
519.002
519.002
527.222
527.222
535.527
535.527
543.943
543.943
552.507
552.507
561.263
561.263
570.263
570.263
579.568
579.568
589.247
589.247
599.375
599.375
610.036
610.036
621.317
621.317
633.308
633.308
646.098
646.098
659.775
659.775
674.422
674.422
690.113
690.113
706.907
706.907
724.851
724.851
743.968
743.968
764.262
764.262
785.717
785.717
808.297
808.297
831.945
831.945
856.587
856.587
882.132
882.132
908.476
908.476
935.514
935.514
963.131
963.131
991.208
991.208
1019.62
1019.62
1048.26
1048.26
1077.01
1077.01
1105.78
1105.78
1134.46
1134.46
1162.97
1162.97
1191.24
1191.24
1219.2
1219.2
1246.83
1246.83
1274.09
1274.09
1300.96
1300.96
1327.43
1327.43
1353.53
1353.53
1379.27
1379.27
1404.71
1404.71
1429.88
1429.88
1454.88
1454.88
1479.77
1479.77
1504.66
1504.66
1529.67
1529.67
1554.91
1554.91
1580.55
1580.55
1606.73
1606.73
1633.66
1633.66
1661.53
1661.53
1690.56
1690.56
1721.03
1721.03
1753.22
1753.22
1787.48
1787.48
1824.17
1824.17
1863.75
1863.75
1906.73
1906.73
1953.71
1953.71
2005.43
2005.43
2062.78
2062.78
2126.83
2126.83
2198.94
2198.94
2280.81
2280.81
2374.64
2374.64
2483.28
2483.28
2610.57
2610.57
2761.73
2761.73
2944.14
2944.14
3168.41
3168.41
3450.52
3450.52
3815.38
3815.38
4303.76
4303.76
4985.96
4985.96
5990.17
5990.17
7562.4
7562.4
10190.2
10190.2
14853.7
14853.7
23660.5
23660.5
42169
42169
89804.2
89804.2
265155
265155
1.52416e+06
1.52416e+06
2.18099
2.18099
2.18553
2.18552
2.19432
2.19431
2.20719
2.20719
2.22419
2.22419
2.24497
2.24497
2.26954
2.26954
2.29792
2.29792
2.32983
2.32984
2.36479
2.3648
2.40224
2.40224
2.44081
2.44081
2.47841
2.47841
2.51382
2.51382
2.54784
2.54784
2.58249
2.58249
2.6196
2.6196
2.66014
2.66014
2.70439
2.7044
2.75232
2.75232
2.8035
2.8035
2.85721
2.85721
2.91286
2.91286
2.97056
2.97056
3.03112
3.03113
3.09539
3.09539
3.16334
3.16334
3.23439
3.23439
3.3086
3.3086
3.38648
3.38648
3.46746
3.46746
3.54815
3.54815
3.62499
3.62499
3.69553
3.69553
3.75838
3.75839
3.81296
3.81296
3.86011
3.86011
3.90169
3.90169
3.93999
3.93999
3.97692
3.97692
4.01368
4.01368
4.05117
4.05117
4.09044
4.09044
4.1328
4.1328
4.17957
4.17957
4.23173
4.23174
4.28994
4.28994
4.3543
4.3543
4.4245
4.4245
4.49992
4.49992
4.57988
4.57988
4.66394
4.66394
4.7521
4.75211
4.84459
4.84459
4.94192
4.94192
5.04501
5.04501
5.15485
5.15485
5.27209
5.27209
5.39675
5.39675
5.5283
5.5283
5.66613
5.66613
5.80993
5.80993
5.96001
5.96001
6.11689
6.11689
6.28082
6.28082
6.45149
6.45149
6.62792
6.62792
6.80823
6.80824
6.99001
6.99002
7.17117
7.17118
7.35061
7.35061
7.52868
7.52869
7.70687
7.70687
7.88726
7.88726
8.07211
8.07211
8.26322
8.26322
8.46175
8.46175
8.66839
8.6684
8.8834
8.8834
9.10662
9.10662
9.3376
9.3376
9.57556
9.57556
9.81951
9.81951
10.0685
10.0685
10.3219
10.3219
10.5791
10.5791
10.84
10.84
11.1047
11.1047
11.3732
11.3732
11.646
11.6461
11.9241
11.9241
12.208
12.208
12.4985
12.4985
12.7961
12.7961
13.1005
13.1005
13.4115
13.4115
13.7287
13.7287
14.0524
14.0524
14.3829
14.3829
14.7212
14.7212
15.0689
15.0689
15.4274
15.4274
15.7985
15.7985
16.1837
16.1837
16.5845
16.5845
17.0022
17.0022
17.4381
17.4381
17.8935
17.8935
18.3694
18.3694
18.8667
18.8667
19.3864
19.3864
19.9295
19.9295
20.4968
20.4968
21.0894
21.0894
21.7083
21.7083
22.3545
22.3545
23.029
23.029
23.7325
23.7325
24.4658
24.4658
25.2295
25.2295
26.024
26.024
26.8497
26.8497
27.7072
27.7072
28.5969
28.5969
29.5191
29.5191
30.4742
30.4742
31.4626
31.4626
32.4849
32.4849
33.5416
33.5416
34.6333
34.6333
35.7608
35.7608
36.9249
36.9249
38.1262
38.1262
39.366
39.366
40.6453
40.6453
41.9651
41.9651
43.3264
43.3264
44.7304
44.7304
46.178
46.178
47.67
47.67
49.2074
49.2074
50.791
50.791
52.4217
52.4217
54.1005
54.1005
55.8282
55.8282
57.606
57.606
59.4347
59.4347
61.3159
61.3159
63.251
63.251
65.2416
65.2416
67.2895
67.2895
69.3964
69.3964
71.5642
71.5642
73.7946
73.7946
76.0893
76.0893
78.4502
78.4502
80.8788
80.8788
83.3764
83.3764
85.9444
85.9444
88.5839
88.5839
91.2958
91.2958
94.0811
94.0811
96.9407
96.9407
99.8751
99.8751
102.885
102.885
105.972
105.972
109.135
109.135
112.377
112.377
115.697
115.697
119.097
119.097
122.577
122.577
126.139
126.139
129.783
129.783
133.511
133.511
137.323
137.323
141.221
141.221
145.205
145.205
149.278
149.278
153.44
153.44
157.692
157.692
162.036
162.036
166.472
166.472
171.002
171.002
175.627
175.627
180.348
180.348
185.165
185.165
190.08
190.08
195.094
195.094
200.208
200.208
205.422
205.422
210.738
210.738
216.156
216.156
221.677
221.677
227.3
227.3
233.027
233.027
238.858
238.858
244.793
244.793
250.831
250.831
256.972
256.972
263.217
263.217
269.563
269.563
276.01
276.01
282.558
282.558
289.204
289.204
295.946
295.946
302.783
302.783
309.715
309.715
316.737
316.737
323.849
323.849
331.045
331.045
338.323
338.323
345.681
345.681
353.112
353.112
360.615
360.615
368.184
368.184
375.815
375.815
383.503
383.503
391.243
391.243
399.033
399.033
406.867
406.867
414.739
414.739
422.646
422.646
430.582
430.582
438.543
438.543
446.523
446.523
454.519
454.519
462.527
462.527
470.544
470.544
478.568
478.568
486.602
486.602
494.652
494.652
502.729
502.729
510.842
510.842
519.002
519.002
527.222
527.222
535.527
535.527
543.943
543.943
552.507
552.507
561.263
561.263
570.263
570.263
579.568
579.568
589.247
589.247
599.376
599.376
610.036
610.036
621.317
621.317
633.308
633.308
646.098
646.098
659.775
659.775
674.422
674.422
690.113
690.113
706.907
706.907
724.851
724.851
743.968
743.968
764.262
764.262
785.717
785.717
808.297
808.297
831.945
831.945
856.587
856.587
882.132
882.132
908.477
908.477
935.514
935.514
963.132
963.132
991.209
991.209
1019.62
1019.62
1048.26
1048.26
1077.02
1077.02
1105.78
1105.78
1134.46
1134.46
1162.97
1162.97
1191.24
1191.24
1219.2
1219.2
1246.83
1246.83
1274.09
1274.09
1300.96
1300.96
1327.43
1327.43
1353.53
1353.53
1379.27
1379.27
1404.71
1404.71
1429.88
1429.88
1454.88
1454.88
1479.77
1479.77
1504.66
1504.66
1529.66
1529.66
1554.91
1554.91
1580.54
1580.54
1606.73
1606.73
1633.66
1633.66
1661.52
1661.52
1690.56
1690.56
1721.03
1721.03
1753.22
1753.22
1787.48
1787.48
1824.17
1824.17
1863.75
1863.75
1906.73
1906.73
1953.71
1953.71
2005.43
2005.43
2062.78
2062.78
2126.83
2126.83
2198.94
2198.94
2280.81
2280.81
2374.64
2374.64
2483.28
2483.28
2610.57
2610.57
2761.73
2761.73
2944.13
2944.13
3168.41
3168.41
3450.52
3450.52
3815.38
3815.38
4303.76
4303.76
4985.96
4985.96
5990.17
5990.17
7562.4
7562.4
10190.2
10190.2
14853.7
14853.7
23660.5
23660.5
42169
42169
89804.2
89804.2
265155
265155
1.52416e+06
1.52416e+06
)
;

boundaryField
{
    walls
    {
        blending        binomial2;
        n               2;
        beta1           0.075;
        type            omegaWallFunction;
        value           nonuniform List<scalar> 8(1.52415e+06 1.52415e+06 1.52415e+06 1.52415e+06 1.52416e+06 1.52416e+06 1.52416e+06 1.52416e+06);
    }
    inlet
    {
        type            cyclic;
    }
    outlet
    {
        type            cyclic;
    }
    sides
    {
        type            empty;
    }
}


// ************************************************************************* //
