/*--------------------------------*- C++ -*----------------------------------*\
| =========                 |                                                 |
| \\      /  F ield         | OpenFOAM: The Open Source CFD Toolbox           |
|  \\    /   O peration     | Version:  2012                                  |
|   \\  /    A nd           | Website:  www.openfoam.com                      |
|    \\/     M anipulation  |                                                 |
\*---------------------------------------------------------------------------*/
FoamFile
{
    version     2.0;
    format      ascii;
    class       volScalarField;
    location    "10400";
    object      p;
}
// * * * * * * * * * * * * * * * * * * * * * * * * * * * * * * * * * * * * * //

dimensions      [0 2 -2 0 0 0 0];


internalField   nonuniform List<scalar> 
2560
(
6.82721e-10
-1.33808e-05
-4.39035e-08
-1.34085e-05
-2.40918e-07
-1.35903e-05
-8.5174e-07
-1.41926e-05
-2.2629e-06
-1.56022e-05
-4.98357e-06
-1.83234e-05
-9.6675e-06
-2.30078e-05
-1.71311e-05
-3.04717e-05
-2.83239e-05
-4.16645e-05
-4.43132e-05
-5.76539e-05
-6.63083e-05
-7.96493e-05
-9.5669e-05
-0.00010901
-0.000133883
-0.000147225
-0.00018258
-0.000195922
-0.000243531
-0.000256874
-0.000318639
-0.000331982
-0.000409931
-0.000423275
-0.000519564
-0.000532909
-0.000649847
-0.000663192
-0.000803185
-0.000816532
-0.000982084
-0.000995432
-0.00118922
-0.00120256
-0.00142737
-0.00144072
-0.00169936
-0.00171271
-0.00200813
-0.00202148
-0.00235683
-0.00237019
-0.00274862
-0.00276198
-0.00318665
-0.00320001
-0.00367426
-0.00368762
-0.00421495
-0.0042283
-0.00481217
-0.00482553
-0.00546937
-0.00548273
-0.00619016
-0.00620353
-0.00697832
-0.00699168
-0.00783748
-0.00785085
-0.0087713
-0.00878466
-0.00978361
-0.00979697
-0.0108783
-0.0108917
-0.0120592
-0.0120726
-0.0133301
-0.0133434
-0.0146948
-0.0147081
-0.0161573
-0.0161707
-0.0177216
-0.017735
-0.0193914
-0.0194047
-0.0211706
-0.021184
-0.0230632
-0.0230765
-0.025073
-0.0250864
-0.0272037
-0.0272171
-0.0294593
-0.0294727
-0.0318441
-0.0318575
-0.034361
-0.0343744
-0.0370132
-0.0370266
-0.0398064
-0.0398198
-0.0427427
-0.0427561
-0.0458255
-0.0458389
-0.0490599
-0.0490733
-0.0524475
-0.0524609
-0.0559934
-0.0560068
-0.0596997
-0.0597131
-0.0635693
-0.0635828
-0.0676063
-0.0676198
-0.0718137
-0.0718271
-0.0761951
-0.0762085
-0.0807507
-0.0807641
-0.0854853
-0.0854987
-0.0904026
-0.090416
-0.0955019
-0.0955154
-0.100788
-0.100801
-0.106261
-0.106274
-0.111925
-0.111939
-0.11778
-0.117794
-0.123828
-0.123842
-0.130072
-0.130085
-0.13651
-0.136523
-0.143145
-0.143159
-0.149978
-0.149992
-0.15701
-0.157023
-0.164238
-0.164251
-0.171665
-0.171679
-0.17929
-0.179303
-0.187112
-0.187126
-0.19513
-0.195144
-0.203344
-0.203357
-0.211751
-0.211765
-0.220349
-0.220362
-0.229137
-0.229151
-0.238113
-0.238127
-0.247275
-0.247288
-0.256618
-0.256632
-0.26614
-0.266153
-0.275835
-0.275849
-0.285703
-0.285716
-0.295737
-0.295751
-0.305935
-0.305948
-0.316288
-0.316301
-0.326795
-0.326808
-0.33745
-0.337463
-0.348244
-0.348258
-0.359176
-0.359189
-0.370235
-0.370249
-0.381419
-0.381432
-0.39272
-0.392734
-0.404129
-0.404142
-0.41564
-0.415654
-0.427247
-0.427261
-0.438941
-0.438955
-0.450716
-0.450729
-0.462562
-0.462576
-0.474472
-0.474486
-0.48644
-0.486454
-0.498454
-0.498468
-0.510509
-0.510522
-0.522595
-0.522609
-0.534704
-0.534717
-0.546828
-0.546842
-0.558957
-0.558971
-0.571085
-0.571099
-0.583202
-0.583216
-0.595301
-0.595315
-0.607372
-0.607385
-0.619406
-0.61942
-0.631398
-0.631412
-0.643337
-0.643351
-0.655218
-0.655232
-0.66703
-0.667043
-0.678767
-0.67878
-0.690421
-0.690434
-0.701984
-0.701997
-0.71345
-0.713464
-0.724811
-0.724825
-0.736059
-0.736073
-0.74719
-0.747203
-0.758195
-0.758208
-0.769067
-0.769081
-0.779801
-0.779815
-0.790391
-0.790404
-0.800829
-0.800843
-0.811112
-0.811125
-0.821232
-0.821246
-0.831184
-0.831198
-0.840964
-0.840977
-0.850565
-0.850579
-0.859985
-0.859999
-0.869219
-0.869232
-0.878261
-0.878275
-0.887109
-0.887123
-0.89576
-0.895773
-0.904209
-0.904223
-0.912455
-0.912469
-0.920495
-0.920509
-0.928327
-0.928341
-0.935948
-0.935962
-0.943357
-0.943371
-0.950551
-0.950565
-0.957531
-0.957544
-0.964292
-0.964306
-0.970836
-0.97085
-0.977161
-0.977175
-0.983267
-0.98328
-0.989152
-0.989166
-0.994818
-0.994831
-1.00026
-1.00028
-1.00549
-1.0055
-1.01049
-1.01051
-1.01528
-1.01529
-1.01985
-1.01986
-1.0242
-1.02422
-1.02833
-1.02835
-1.03226
-1.03227
-1.03595
-1.03597
-1.03945
-1.03946
-1.04272
-1.04274
-1.04581
-1.04582
-1.04865
-1.04867
-1.05134
-1.05134
-1.05376
-1.05379
-1.05606
-1.05606
-1.05807
-1.05811
-1.06001
-1.06
-1.06161
-1.06166
-1.06322
-1.06319
-1.06441
-1.06448
-1.06572
-1.06566
-1.06649
-1.0666
-1.06755
-1.06744
-1.0679
-1.06805
-1.06875
-1.06856
-1.06893
-1.06887
-1.06935
-1.06905
-1.06937
-1.06907
-1.06902
-1.06894
-1.06887
-1.06867
-1.06812
-1.06824
-1.06782
-1.06771
-1.06688
-1.06698
-1.06626
-1.06619
-1.06514
-1.0652
-1.06419
-1.06415
-1.06288
-1.06292
-1.06164
-1.06162
-1.06013
-1.06016
-1.05863
-1.05862
-1.05692
-1.05694
-1.05519
-1.05518
-1.05328
-1.05329
-1.05132
-1.05132
-1.04921
-1.04922
-1.04704
-1.04704
-1.04474
-1.04475
-1.04238
-1.04238
-1.0399
-1.0399
-1.03734
-1.03735
-1.03468
-1.03469
-1.03195
-1.03196
-1.02912
-1.02913
-1.02622
-1.02623
-1.02323
-1.02324
-1.02017
-1.02017
-1.01702
-1.01702
-1.01379
-1.01379
-1.01047
-1.01048
-1.00707
-1.00708
-1.00359
-1.00359
-1.00001
-1.00001
-0.996339
-0.996345
-0.992579
-0.992585
-0.988729
-0.988735
-0.984794
-0.9848
-0.980777
-0.980782
-0.976678
-0.976683
-0.972498
-0.972504
-0.968235
-0.968241
-0.963888
-0.963893
-0.959454
-0.959459
-0.954931
-0.954936
-0.950321
-0.950326
-0.945621
-0.945626
-0.940832
-0.940837
-0.93595
-0.935955
-0.930976
-0.930981
-0.925911
-0.925916
-0.920757
-0.920763
-0.91552
-0.915525
-0.9102
-0.910205
-0.904798
-0.904803
-0.899314
-0.899319
-0.893749
-0.893754
-0.888102
-0.888107
-0.882371
-0.882377
-0.876555
-0.87656
-0.87065
-0.870655
-0.864657
-0.864662
-0.858577
-0.858583
-0.852413
-0.852418
-0.846165
-0.84617
-0.839839
-0.839844
-0.83344
-0.833445
-0.826975
-0.826981
-0.820449
-0.820454
-0.813859
-0.813864
-0.807202
-0.807207
-0.800466
-0.800471
-0.793646
-0.793651
-0.786733
-0.786738
-0.779719
-0.779725
-0.772609
-0.772614
-0.765408
-0.765413
-0.758126
-0.758131
-0.750774
-0.75078
-0.74336
-0.743366
-0.735883
-0.735889
-0.728336
-0.728342
-0.720714
-0.720719
-0.713014
-0.71302
-0.705242
-0.705248
-0.697399
-0.697405
-0.689485
-0.689492
-0.6815
-0.681506
-0.673441
-0.673448
-0.665307
-0.665313
-0.657095
-0.657101
-0.648806
-0.648813
-0.640454
-0.64046
-0.632041
-0.632048
-0.623581
-0.623589
-0.615082
-0.615089
-0.606561
-0.606568
-0.598026
-0.598034
-0.589496
-0.589504
-0.580979
-0.580987
-0.572492
-0.5725
-0.564037
-0.564045
-0.555631
-0.555639
-0.547278
-0.547286
-0.538994
-0.539002
-0.530762
-0.53077
-0.52259
-0.522598
-0.514474
-0.514482
-0.506448
-0.506456
-0.498516
-0.498524
-0.490732
-0.49074
-0.483118
-0.483125
-0.475738
-0.475746
-0.468592
-0.468599
-0.461718
-0.461726
-0.455086
-0.455093
-0.448731
-0.448737
-0.442631
-0.442636
-0.436853
-0.436858
-0.43139
-0.431393
-0.426312
-0.426315
-0.421605
-0.421604
-0.417337
-0.417338
-0.413487
-0.41348
-0.410124
-0.41012
-0.407242
-0.407226
-0.404883
-0.40487
-0.403041
-0.403015
-0.401776
-0.401751
-0.401123
-0.40109
-7.34589e-05
-7.12179e-05
-7.34865e-05
-7.12455e-05
-7.36682e-05
-7.14272e-05
-7.42705e-05
-7.20295e-05
-7.56801e-05
-7.34391e-05
-7.84014e-05
-7.61604e-05
-8.30858e-05
-8.08448e-05
-9.05498e-05
-8.83088e-05
-0.000101743
-9.95016e-05
-0.000117732
-0.000115491
-0.000139727
-0.000137486
-0.000169088
-0.000166847
-0.000207303
-0.000205061
-0.000256
-0.000253759
-0.000316952
-0.00031471
-0.00039206
-0.000389819
-0.000483352
-0.000481111
-0.000592987
-0.000590745
-0.00072327
-0.000721029
-0.000876609
-0.000874368
-0.00105551
-0.00105327
-0.00126264
-0.0012604
-0.0015008
-0.00149855
-0.00177279
-0.00177054
-0.00208156
-0.00207932
-0.00243026
-0.00242802
-0.00282205
-0.00281981
-0.00326009
-0.00325784
-0.0037477
-0.00374546
-0.00428838
-0.00428614
-0.0048856
-0.00488336
-0.00554281
-0.00554056
-0.0062636
-0.00626136
-0.00705176
-0.00704952
-0.00791092
-0.00790868
-0.00884474
-0.0088425
-0.00985705
-0.00985481
-0.0109518
-0.0109495
-0.0121327
-0.0121304
-0.0134035
-0.0134013
-0.0147682
-0.014766
-0.0162308
-0.0162285
-0.0177951
-0.0177928
-0.0194648
-0.0194626
-0.021244
-0.0212418
-0.0231366
-0.0231344
-0.0251465
-0.0251442
-0.0272772
-0.027275
-0.0295328
-0.0295305
-0.0319176
-0.0319153
-0.0344345
-0.0344323
-0.0370866
-0.0370844
-0.0398798
-0.0398776
-0.0428162
-0.0428139
-0.045899
-0.0458968
-0.0491334
-0.0491312
-0.052521
-0.0525188
-0.0560668
-0.0560646
-0.0597732
-0.0597709
-0.0636428
-0.0636406
-0.0676798
-0.0676776
-0.0718872
-0.0718849
-0.0762686
-0.0762663
-0.0808242
-0.080822
-0.0855588
-0.0855566
-0.090476
-0.0904738
-0.0955754
-0.0955732
-0.100861
-0.100859
-0.106334
-0.106332
-0.111999
-0.111996
-0.117854
-0.117852
-0.123902
-0.1239
-0.130145
-0.130143
-0.136583
-0.136581
-0.143219
-0.143217
-0.150052
-0.150049
-0.157083
-0.157081
-0.164312
-0.164309
-0.171739
-0.171737
-0.179363
-0.179361
-0.187186
-0.187184
-0.195204
-0.195202
-0.203417
-0.203415
-0.211825
-0.211822
-0.220423
-0.22042
-0.229211
-0.229208
-0.238187
-0.238185
-0.247348
-0.247346
-0.256692
-0.256689
-0.266213
-0.266211
-0.275909
-0.275907
-0.285776
-0.285774
-0.295811
-0.295809
-0.306008
-0.306006
-0.316361
-0.316359
-0.326869
-0.326866
-0.337523
-0.337521
-0.348318
-0.348316
-0.359249
-0.359247
-0.370309
-0.370307
-0.381492
-0.38149
-0.392794
-0.392792
-0.404202
-0.4042
-0.415714
-0.415712
-0.427321
-0.427319
-0.439015
-0.439012
-0.450789
-0.450787
-0.462636
-0.462633
-0.474546
-0.474544
-0.486514
-0.486512
-0.498528
-0.498526
-0.510582
-0.51058
-0.522669
-0.522667
-0.534777
-0.534775
-0.546902
-0.546899
-0.559031
-0.559029
-0.571159
-0.571156
-0.583276
-0.583274
-0.595375
-0.595373
-0.607446
-0.607443
-0.61948
-0.619478
-0.631472
-0.63147
-0.643411
-0.643408
-0.655292
-0.655289
-0.667103
-0.667101
-0.67884
-0.678838
-0.690495
-0.690492
-0.702057
-0.702055
-0.713524
-0.713522
-0.724885
-0.724882
-0.736133
-0.736131
-0.747263
-0.747261
-0.758268
-0.758266
-0.769141
-0.769139
-0.779875
-0.779873
-0.790464
-0.790462
-0.800903
-0.800901
-0.811186
-0.811183
-0.821306
-0.821304
-0.831258
-0.831256
-0.841037
-0.841035
-0.850639
-0.850637
-0.860059
-0.860056
-0.869292
-0.86929
-0.878335
-0.878332
-0.887183
-0.88718
-0.895833
-0.895831
-0.904283
-0.904281
-0.912529
-0.912527
-0.920569
-0.920567
-0.928401
-0.928399
-0.936022
-0.93602
-0.943431
-0.943429
-0.950625
-0.950623
-0.957604
-0.957602
-0.964366
-0.964363
-0.97091
-0.970908
-0.977235
-0.977232
-0.98334
-0.983338
-0.989226
-0.989223
-0.994892
-0.99489
-1.00034
-1.00033
-1.00556
-1.00556
-1.01057
-1.01056
-1.01535
-1.01535
-1.01992
-1.01992
-1.02428
-1.02427
-1.02841
-1.0284
-1.03233
-1.03233
-1.03603
-1.03602
-1.03952
-1.03953
-1.0428
-1.04279
-1.04588
-1.04588
-1.04873
-1.04872
-1.0514
-1.05141
-1.05385
-1.05383
-1.05612
-1.05613
-1.05817
-1.05814
-1.06006
-1.06008
-1.06172
-1.06168
-1.06325
-1.06329
-1.06454
-1.06448
-1.06572
-1.06579
-1.06666
-1.06656
-1.0675
-1.06762
-1.06811
-1.06797
-1.06862
-1.06882
-1.06893
-1.069
-1.06911
-1.06942
-1.06913
-1.06944
-1.069
-1.06909
-1.06873
-1.06894
-1.0683
-1.06819
-1.06777
-1.0679
-1.06704
-1.06695
-1.06625
-1.06633
-1.06526
-1.06521
-1.06421
-1.06426
-1.06298
-1.06295
-1.06168
-1.06171
-1.06022
-1.0602
-1.05868
-1.0587
-1.057
-1.05699
-1.05524
-1.05526
-1.05335
-1.05335
-1.05138
-1.05139
-1.04928
-1.04928
-1.0471
-1.04711
-1.04481
-1.04482
-1.04244
-1.04245
-1.03996
-1.03997
-1.03741
-1.03741
-1.03475
-1.03476
-1.03202
-1.03202
-1.02919
-1.0292
-1.02629
-1.02629
-1.0233
-1.02331
-1.02023
-1.02024
-1.01708
-1.01709
-1.01385
-1.01386
-1.01054
-1.01054
-1.00714
-1.00715
-1.00365
-1.00366
-1.00007
-1.00008
-0.996404
-0.996411
-0.992644
-0.992652
-0.988794
-0.988801
-0.984859
-0.984866
-0.980841
-0.980849
-0.976742
-0.97675
-0.972563
-0.972571
-0.9683
-0.968308
-0.963952
-0.96396
-0.959518
-0.959526
-0.954995
-0.955004
-0.950385
-0.950393
-0.945685
-0.945693
-0.940896
-0.940905
-0.936014
-0.936023
-0.93104
-0.931049
-0.925974
-0.925984
-0.920821
-0.920831
-0.915583
-0.915593
-0.910263
-0.910273
-0.904862
-0.904872
-0.899377
-0.899388
-0.893812
-0.893823
-0.888165
-0.888176
-0.882434
-0.882445
-0.876618
-0.876629
-0.870712
-0.870724
-0.864719
-0.864731
-0.85864
-0.858652
-0.852475
-0.852487
-0.846227
-0.84624
-0.839901
-0.839914
-0.833502
-0.833515
-0.827037
-0.82705
-0.820511
-0.820524
-0.81392
-0.813934
-0.807263
-0.807278
-0.800527
-0.800542
-0.793707
-0.793722
-0.786793
-0.786809
-0.77978
-0.779796
-0.772669
-0.772685
-0.765468
-0.765485
-0.758185
-0.758202
-0.750834
-0.750852
-0.743419
-0.743437
-0.735943
-0.735962
-0.728394
-0.728414
-0.720773
-0.720794
-0.713071
-0.713092
-0.705301
-0.705324
-0.697454
-0.697477
-0.689544
-0.689569
-0.681554
-0.681579
-0.6735
-0.673527
-0.665358
-0.665386
-0.657153
-0.657182
-0.648856
-0.648886
-0.640513
-0.640544
-0.632088
-0.632121
-0.623641
-0.623675
-0.615125
-0.615161
-0.606621
-0.606659
-0.598065
-0.598104
-0.589559
-0.5896
-0.581012
-0.581055
-0.572558
-0.572602
-0.564063
-0.56411
-0.5557
-0.555749
-0.547296
-0.547347
-0.539068
-0.539122
-0.530768
-0.530825
-0.522671
-0.522732
-0.514465
-0.514529
-0.506538
-0.506607
-0.498488
-0.498559
-0.490835
-0.490913
-0.483065
-0.483145
-0.475858
-0.475948
-0.468507
-0.468598
-0.461861
-0.461966
-0.454961
-0.455063
-0.448902
-0.449029
-0.442453
-0.442566
-0.43706
-0.43722
-0.431148
-0.431267
-0.426559
-0.426774
-0.421287
-0.421397
-0.417622
-0.417939
-0.413092
-0.413143
-0.410423
-0.410946
-0.406804
-0.406661
-0.405107
-0.405438
-0.402637
-0.402078
-0.401808
-0.401432
-0.400868
-0.399627
-0.401123
-0.40109
-0.401776
-0.401751
-0.403041
-0.403014
-0.404883
-0.40487
-0.407243
-0.407226
-0.410123
-0.410119
-0.413489
-0.413481
-0.417335
-0.417336
-0.421604
-0.421603
-0.426312
-0.426315
-0.431391
-0.431393
-0.436853
-0.436858
-0.442631
-0.442636
-0.448732
-0.448739
-0.455088
-0.455094
-0.461718
-0.461725
-0.468591
-0.468598
-0.475737
-0.475745
-0.483116
-0.483123
-0.490733
-0.490741
-0.498516
-0.498524
-0.506448
-0.506456
-0.514473
-0.514481
-0.522587
-0.522595
-0.530759
-0.530767
-0.538996
-0.539004
-0.547276
-0.547283
-0.555633
-0.55564
-0.564037
-0.564044
-0.572489
-0.572496
-0.580981
-0.580988
-0.589497
-0.589504
-0.59803
-0.598037
-0.60656
-0.606567
-0.615088
-0.615094
-0.623579
-0.623586
-0.632039
-0.632046
-0.640453
-0.640459
-0.648803
-0.64881
-0.657096
-0.657102
-0.665306
-0.665312
-0.673442
-0.673448
-0.6815
-0.681506
-0.689487
-0.689492
-0.697397
-0.697403
-0.705243
-0.705249
-0.713012
-0.713017
-0.720712
-0.720717
-0.728334
-0.728339
-0.735883
-0.735888
-0.743357
-0.743362
-0.750777
-0.750782
-0.758126
-0.758131
-0.765404
-0.765408
-0.772609
-0.772614
-0.779719
-0.779724
-0.786735
-0.786739
-0.793646
-0.79365
-0.800464
-0.800468
-0.807199
-0.807203
-0.813865
-0.813868
-0.82045
-0.820454
-0.826979
-0.826983
-0.833442
-0.833446
-0.839843
-0.839847
-0.846164
-0.846167
-0.852409
-0.852412
-0.858581
-0.858585
-0.864658
-0.864661
-0.870655
-0.870659
-0.876553
-0.876556
-0.882368
-0.882371
-0.888102
-0.888105
-0.893745
-0.893748
-0.899311
-0.899314
-0.904797
-0.9048
-0.910203
-0.910206
-0.915525
-0.915528
-0.920765
-0.920767
-0.925916
-0.925919
-0.930978
-0.93098
-0.935953
-0.935955
-0.940831
-0.940834
-0.945621
-0.945623
-0.950325
-0.950327
-0.95493
-0.954932
-0.95945
-0.959453
-0.963892
-0.963894
-0.968237
-0.968239
-0.972494
-0.972496
-0.976679
-0.976681
-0.980777
-0.980779
-0.984792
-0.984794
-0.988728
-0.98873
-0.992586
-0.992588
-0.996345
-0.996347
-1.00001
-1.00001
-1.00359
-1.00359
-1.00708
-1.00708
-1.01047
-1.01047
-1.01379
-1.01379
-1.01702
-1.01702
-1.02017
-1.02017
-1.02324
-1.02324
-1.02623
-1.02623
-1.02913
-1.02913
-1.03195
-1.03195
-1.03469
-1.03469
-1.03734
-1.03734
-1.0399
-1.0399
-1.04238
-1.04238
-1.04475
-1.04475
-1.04704
-1.04704
-1.04922
-1.04922
-1.05132
-1.05132
-1.05329
-1.05328
-1.05518
-1.05519
-1.05694
-1.05693
-1.05862
-1.05863
-1.06015
-1.06013
-1.06162
-1.06164
-1.06291
-1.06288
-1.06414
-1.06419
-1.0652
-1.06514
-1.06618
-1.06626
-1.06698
-1.06688
-1.0677
-1.06783
-1.06823
-1.06812
-1.06867
-1.06887
-1.06893
-1.06902
-1.06906
-1.06937
-1.06905
-1.06935
-1.06886
-1.06894
-1.06856
-1.06876
-1.06805
-1.0679
-1.06744
-1.06755
-1.0666
-1.0665
-1.06565
-1.06572
-1.06448
-1.06441
-1.06318
-1.06322
-1.06166
-1.06162
-1.05999
-1.06001
-1.05811
-1.05808
-1.05606
-1.05607
-1.05378
-1.05376
-1.05133
-1.05133
-1.04866
-1.04865
-1.04582
-1.04582
-1.04274
-1.04273
-1.03946
-1.03946
-1.03597
-1.03596
-1.03227
-1.03226
-1.02834
-1.02833
-1.02421
-1.0242
-1.01985
-1.01984
-1.0153
-1.01529
-1.01049
-1.01049
-1.00549
-1.00549
-1.00027
-1.00026
-0.994816
-0.994809
-0.989179
-0.989172
-0.983282
-0.983275
-0.97716
-0.977153
-0.970863
-0.970856
-0.964302
-0.964295
-0.957525
-0.957518
-0.950584
-0.950577
-0.943383
-0.943376
-0.935972
-0.935965
-0.928359
-0.928352
-0.920483
-0.920476
-0.912477
-0.91247
-0.90421
-0.904202
-0.895763
-0.895756
-0.887125
-0.887118
-0.878254
-0.878247
-0.869191
-0.869184
-0.859992
-0.859984
-0.850609
-0.850602
-0.840941
-0.840934
-0.831183
-0.831176
-0.821239
-0.821232
-0.811138
-0.811131
-0.800858
-0.800851
-0.790443
-0.790436
-0.779857
-0.77985
-0.769052
-0.769045
-0.758195
-0.758187
-0.747249
-0.747242
-0.736042
-0.736035
-0.724768
-0.724761
-0.713479
-0.713472
-0.702033
-0.702026
-0.690463
-0.690455
-0.678752
-0.678745
-0.667066
-0.667059
-0.655259
-0.655252
-0.643369
-0.643361
-0.631364
-0.631357
-0.619453
-0.619446
-0.607435
-0.607427
-0.595253
-0.595246
-0.583271
-0.583264
-0.571153
-0.571146
-0.558951
-0.558944
-0.546782
-0.546775
-0.534716
-0.534709
-0.522539
-0.522531
-0.510499
-0.510492
-0.498519
-0.498512
-0.486378
-0.486371
-0.474479
-0.474471
-0.462613
-0.462606
-0.450666
-0.450658
-0.438948
-0.438941
-0.427341
-0.427334
-0.415635
-0.415628
-0.404055
-0.404048
-0.392758
-0.392751
-0.38142
-0.381413
-0.370213
-0.370206
-0.359151
-0.359144
-0.348254
-0.348247
-0.337502
-0.337495
-0.326763
-0.326756
-0.31636
-0.316353
-0.305986
-0.305979
-0.295785
-0.295778
-0.2858
-0.285793
-0.275829
-0.275822
-0.266081
-0.266074
-0.256544
-0.256537
-0.247243
-0.247235
-0.238159
-0.238151
-0.229141
-0.229134
-0.220353
-0.220346
-0.211814
-0.211807
-0.203338
-0.203331
-0.195121
-0.195114
-0.187143
-0.187136
-0.179263
-0.179256
-0.171624
-0.171617
-0.164257
-0.16425
-0.156966
-0.156959
-0.149957
-0.14995
-0.143177
-0.143169
-0.136535
-0.136528
-0.130107
-0.1301
-0.123834
-0.123827
-0.117766
-0.117759
-0.112013
-0.112005
-0.106298
-0.106291
-0.100778
-0.100771
-0.0955528
-0.0955457
-0.0904076
-0.0904005
-0.0855323
-0.0855252
-0.0807477
-0.0807406
-0.0762284
-0.0762212
-0.0717883
-0.0717812
-0.067629
-0.0676219
-0.0636338
-0.0636267
-0.0597138
-0.0597067
-0.0560345
-0.0560274
-0.052459
-0.0524519
-0.0490938
-0.0490867
-0.0458439
-0.0458368
-0.0427868
-0.0427797
-0.0398447
-0.0398376
-0.0369952
-0.036988
-0.0343513
-0.0343441
-0.0318745
-0.0318674
-0.0295124
-0.0295052
-0.0272222
-0.0272151
-0.0250562
-0.025049
-0.0230965
-0.0230893
-0.0211851
-0.021178
-0.0194018
-0.0193946
-0.0177247
-0.0177175
-0.0161761
-0.0161689
-0.0147127
-0.0147055
-0.01333
-0.0133229
-0.0120648
-0.0120577
-0.0108877
-0.0108806
-0.00980379
-0.00979664
-0.00877025
-0.00876309
-0.007855
-0.00784783
-0.00698889
-0.00698173
-0.0061952
-0.00618805
-0.00547739
-0.00547023
-0.00482729
-0.00482013
-0.00423899
-0.00423182
-0.00368943
-0.00368226
-0.00319449
-0.00318732
-0.00275864
-0.00275146
-0.00236681
-0.00235965
-0.00201148
-0.00200431
-0.00170832
-0.00170113
-0.00143639
-0.00142922
-0.00119632
-0.00118915
-0.000993245
-0.000986061
-0.000816647
-0.000809465
-0.000661436
-0.000654253
-0.000529425
-0.00052224
-0.000421163
-0.000413979
-0.000330762
-0.00032358
-0.00025433
-0.000247145
-0.000192457
-0.000185269
-0.000144329
-0.000137142
-0.000106506
-9.93214e-05
-7.66432e-05
-6.94563e-05
-5.43819e-05
-4.71927e-05
-3.86261e-05
-3.14383e-05
-2.75818e-05
-2.0396e-05
-2.00381e-05
-1.2851e-05
-1.53131e-05
-8.12626e-06
-1.26235e-05
-5.43809e-06
-1.12379e-05
-4.05215e-06
-1.06276e-05
-3.43552e-06
-1.04356e-05
-3.23003e-06
-1.04043e-05
-3.1821e-06
-0.400868
-0.399627
-0.401808
-0.401432
-0.402637
-0.402078
-0.405107
-0.405438
-0.406804
-0.406661
-0.410421
-0.410944
-0.413094
-0.413144
-0.41762
-0.417937
-0.421286
-0.421396
-0.426559
-0.426774
-0.431149
-0.431268
-0.43706
-0.437219
-0.442454
-0.442566
-0.448904
-0.44903
-0.454962
-0.455064
-0.46186
-0.461965
-0.468506
-0.468597
-0.475857
-0.475947
-0.483063
-0.483143
-0.490836
-0.490914
-0.498487
-0.498559
-0.506538
-0.506607
-0.514464
-0.514528
-0.522667
-0.522728
-0.530765
-0.530822
-0.539069
-0.539124
-0.547292
-0.547344
-0.555701
-0.55575
-0.564063
-0.56411
-0.572553
-0.572598
-0.581013
-0.581056
-0.589559
-0.5896
-0.598068
-0.598108
-0.606621
-0.606658
-0.61513
-0.615166
-0.623638
-0.623673
-0.632085
-0.632118
-0.640511
-0.640543
-0.648852
-0.648882
-0.657154
-0.657183
-0.665357
-0.665385
-0.6735
-0.673527
-0.681553
-0.681579
-0.689545
-0.68957
-0.697451
-0.697475
-0.705302
-0.705325
-0.713068
-0.71309
-0.720771
-0.720792
-0.728391
-0.728412
-0.735942
-0.735962
-0.743414
-0.743434
-0.750836
-0.750855
-0.758184
-0.758203
-0.765463
-0.765481
-0.772668
-0.772685
-0.779779
-0.779796
-0.786794
-0.786811
-0.793705
-0.793722
-0.800523
-0.800539
-0.807259
-0.807274
-0.813924
-0.813939
-0.82051
-0.820525
-0.827039
-0.827054
-0.833502
-0.833517
-0.839903
-0.839917
-0.846224
-0.846238
-0.852469
-0.852483
-0.858641
-0.858655
-0.864718
-0.864732
-0.870716
-0.870729
-0.876613
-0.876627
-0.882428
-0.882441
-0.888163
-0.888176
-0.893806
-0.893819
-0.899372
-0.899384
-0.904857
-0.90487
-0.910263
-0.910276
-0.915586
-0.915598
-0.920825
-0.920837
-0.925977
-0.925989
-0.931038
-0.93105
-0.936014
-0.936025
-0.940892
-0.940904
-0.945681
-0.945693
-0.950385
-0.950397
-0.954991
-0.955002
-0.959511
-0.959523
-0.963953
-0.963964
-0.968298
-0.96831
-0.972555
-0.972566
-0.976739
-0.976751
-0.980838
-0.980849
-0.984853
-0.984864
-0.988789
-0.9888
-0.992647
-0.992658
-0.996405
-0.996417
-1.00007
-1.00008
-1.00365
-1.00366
-1.00714
-1.00715
-1.01053
-1.01054
-1.01385
-1.01386
-1.01708
-1.01709
-1.02023
-1.02024
-1.0233
-1.02331
-1.02629
-1.0263
-1.02919
-1.0292
-1.03201
-1.03202
-1.03475
-1.03476
-1.0374
-1.03741
-1.03995
-1.03997
-1.04244
-1.04245
-1.04481
-1.04482
-1.0471
-1.04711
-1.04927
-1.04929
-1.05138
-1.05139
-1.05334
-1.05336
-1.05525
-1.05525
-1.05699
-1.05701
-1.05869
-1.05869
-1.06019
-1.06023
-1.0617
-1.06169
-1.06294
-1.06299
-1.06425
-1.06421
-1.0652
-1.06527
-1.06632
-1.06626
-1.06694
-1.06705
-1.06789
-1.06777
-1.06818
-1.0683
-1.06893
-1.06874
-1.06908
-1.069
-1.06943
-1.06914
-1.06941
-1.06912
-1.069
-1.06893
-1.06882
-1.06863
-1.06796
-1.06812
-1.06761
-1.06751
-1.06656
-1.06667
-1.06578
-1.06573
-1.06447
-1.06455
-1.06328
-1.06325
-1.06168
-1.06173
-1.06007
-1.06006
-1.05814
-1.05818
-1.05613
-1.05613
-1.05382
-1.05385
-1.05139
-1.0514
-1.04871
-1.04873
-1.04588
-1.04589
-1.04279
-1.04281
-1.03952
-1.03953
-1.03602
-1.03604
-1.03232
-1.03234
-1.02839
-1.02841
-1.02426
-1.02428
-1.0199
-1.01992
-1.01535
-1.01537
-1.01055
-1.01056
-1.00555
-1.00556
-1.00032
-1.00034
-0.994869
-0.994887
-0.989232
-0.98925
-0.983335
-0.983353
-0.977213
-0.977231
-0.970916
-0.970935
-0.964355
-0.964373
-0.957577
-0.957596
-0.950636
-0.950655
-0.943435
-0.943454
-0.936025
-0.936043
-0.928412
-0.92843
-0.920536
-0.920554
-0.912529
-0.912548
-0.904262
-0.904281
-0.895816
-0.895834
-0.887178
-0.887196
-0.878306
-0.878325
-0.869243
-0.869262
-0.860044
-0.860063
-0.850662
-0.85068
-0.840993
-0.841012
-0.831236
-0.831254
-0.821292
-0.82131
-0.81119
-0.811209
-0.80091
-0.800929
-0.790495
-0.790514
-0.77991
-0.779928
-0.769105
-0.769123
-0.758247
-0.758266
-0.747302
-0.747321
-0.736094
-0.736113
-0.724821
-0.724839
-0.713531
-0.71355
-0.702086
-0.702104
-0.690515
-0.690534
-0.678805
-0.678823
-0.667119
-0.667137
-0.655312
-0.65533
-0.643421
-0.64344
-0.631417
-0.631435
-0.619505
-0.619524
-0.607487
-0.607506
-0.595305
-0.595324
-0.583324
-0.583342
-0.571206
-0.571224
-0.559004
-0.559022
-0.546835
-0.546853
-0.534769
-0.534787
-0.522591
-0.52261
-0.510551
-0.51057
-0.498571
-0.49859
-0.486431
-0.486449
-0.474531
-0.47455
-0.462666
-0.462684
-0.450718
-0.450737
-0.439
-0.439019
-0.427394
-0.427412
-0.415688
-0.415706
-0.404108
-0.404126
-0.39281
-0.392829
-0.381473
-0.381491
-0.370265
-0.370284
-0.359203
-0.359222
-0.348306
-0.348325
-0.337555
-0.337573
-0.326815
-0.326834
-0.316413
-0.316431
-0.306038
-0.306057
-0.295838
-0.295856
-0.285853
-0.285871
-0.275882
-0.2759
-0.266133
-0.266152
-0.256596
-0.256615
-0.247295
-0.247314
-0.238211
-0.23823
-0.229194
-0.229212
-0.220405
-0.220424
-0.211866
-0.211885
-0.203391
-0.203409
-0.195174
-0.195192
-0.187196
-0.187214
-0.179315
-0.179334
-0.171676
-0.171695
-0.164309
-0.164328
-0.157018
-0.157037
-0.15001
-0.150028
-0.143229
-0.143248
-0.136587
-0.136606
-0.130159
-0.130178
-0.123886
-0.123905
-0.117818
-0.117837
-0.112065
-0.112084
-0.106351
-0.106369
-0.10083
-0.100849
-0.0956055
-0.0956238
-0.0904602
-0.0904786
-0.0855849
-0.0856033
-0.0808003
-0.0808187
-0.0762809
-0.0762994
-0.0718409
-0.0718593
-0.0676816
-0.0677
-0.0636864
-0.0637048
-0.0597664
-0.0597848
-0.0560871
-0.0561055
-0.0525116
-0.05253
-0.0491464
-0.0491648
-0.0458965
-0.0459149
-0.0428394
-0.0428578
-0.0398973
-0.0399157
-0.0370477
-0.0370662
-0.0344038
-0.0344222
-0.0319271
-0.0319455
-0.0295649
-0.0295834
-0.0272748
-0.0272932
-0.0251087
-0.0251272
-0.023149
-0.0231675
-0.0212377
-0.0212561
-0.0194543
-0.0194727
-0.0177772
-0.0177957
-0.0162286
-0.0162471
-0.0147652
-0.0147837
-0.0133826
-0.013401
-0.0121174
-0.0121358
-0.0109403
-0.0109587
-0.00985634
-0.00987478
-0.00882279
-0.00884124
-0.00790753
-0.00792599
-0.00704143
-0.00705989
-0.00624774
-0.0062662
-0.00552993
-0.00554838
-0.00487983
-0.00489828
-0.00429152
-0.00430997
-0.00374196
-0.00376042
-0.00324701
-0.00326549
-0.00281115
-0.00282963
-0.00241934
-0.0024378
-0.002064
-0.00208247
-0.00176083
-0.00177931
-0.00148891
-0.00150738
-0.00124884
-0.00126732
-0.00104576
-0.00106424
-0.00086916
-0.000887637
-0.000713948
-0.000732426
-0.000581935
-0.000600416
-0.000473672
-0.000492154
-0.000383273
-0.00040175
-0.000306839
-0.00032532
-0.000244963
-0.000263449
-0.000196835
-0.000215319
-0.000159014
-0.000177494
-0.00012915
-0.000147632
-0.000106886
-0.000125372
-9.11312e-05
-0.000109616
-8.00884e-05
-9.85714e-05
-7.25433e-05
-9.10275e-05
-6.78183e-05
-8.63015e-05
-6.51296e-05
-8.36116e-05
-6.37432e-05
-8.22257e-05
-6.31322e-05
-8.16155e-05
-6.29402e-05
-8.1424e-05
-6.2909e-05
-8.13938e-05
)
;

boundaryField
{
    walls
    {
        type            zeroGradient;
    }
    inlet
    {
        type            cyclic;
    }
    outlet
    {
        type            cyclic;
    }
    sides
    {
        type            empty;
    }
}


// ************************************************************************* //
