/*--------------------------------*- C++ -*----------------------------------*\
| =========                 |                                                 |
| \\      /  F ield         | OpenFOAM: The Open Source CFD Toolbox           |
|  \\    /   O peration     | Version:  2012                                  |
|   \\  /    A nd           | Website:  www.openfoam.com                      |
|    \\/     M anipulation  |                                                 |
\*---------------------------------------------------------------------------*/
FoamFile
{
    version     2.0;
    format      ascii;
    class       volSymmTensorField;
    location    "10400";
    object      turbulenceProperties:R;
}
// * * * * * * * * * * * * * * * * * * * * * * * * * * * * * * * * * * * * * //

dimensions      [0 2 -2 0 0 0 0];


internalField   nonuniform List<symmTensor> 
2560
(
(0.000178606 -9.95704e-08 -1.44306e-10 0.000178606 -4.74083e-14 0.000178606)
(0.000178606 -9.95704e-08 -1.44306e-10 0.000178606 -5.45367e-14 0.000178606)
(0.00294973 -9.42927e-06 -4.12302e-08 0.00294973 -1.2057e-12 0.00294973)
(0.00294973 -9.42926e-06 -4.12302e-08 0.00294973 -3.82266e-13 0.00294973)
(0.0210692 -0.000198355 -1.18919e-06 0.0210692 -2.55313e-12 0.0210692)
(0.0210692 -0.000198355 -1.18919e-06 0.0210692 -2.21948e-12 0.0210692)
(0.0771834 -0.00154334 -9.38648e-06 0.0771834 1.82234e-11 0.0771834)
(0.0771834 -0.00154334 -9.38648e-06 0.0771834 -1.31211e-13 0.0771834)
(0.197427 -0.00701563 -4.32842e-05 0.197427 3.83027e-10 0.197427)
(0.197427 -0.00701563 -4.32842e-05 0.197427 4.69188e-10 0.197427)
(0.39709 -0.0224074 -0.00014024 0.39709 2.00771e-09 0.39709)
(0.39709 -0.0224074 -0.00014024 0.39709 2.40884e-09 0.39709)
(0.662738 -0.054331 -0.000344943 0.662738 4.82514e-09 0.662738)
(0.662738 -0.054331 -0.000344943 0.662738 5.76292e-09 0.662738)
(0.959471 -0.105617 -0.000680257 0.959471 6.39522e-09 0.959471)
(0.959471 -0.105617 -0.000680257 0.959471 7.76243e-09 0.959471)
(1.2585 -0.174268 -0.00113874 1.2585 5.29605e-09 1.2585)
(1.2585 -0.174268 -0.00113874 1.2585 6.75338e-09 1.2585)
(1.54679 -0.256416 -0.00169998 1.54679 1.83394e-09 1.54679)
(1.54679 -0.256416 -0.00169998 1.54679 3.1962e-09 1.54679)
(1.82099 -0.348546 -0.00234466 1.82099 -3.54095e-09 1.82099)
(1.82099 -0.348546 -0.00234466 1.82099 8.59891e-10 1.82099)
(2.0816 -0.448044 -0.00305835 2.0816 7.43785e-11 2.0816)
(2.0816 -0.448044 -0.00305835 2.0816 1.76362e-08 2.0816)
(2.33012 -0.553087 -0.00383112 2.33012 1.52449e-08 2.33012)
(2.33012 -0.553087 -0.00383112 2.33012 1.65364e-08 2.33012)
(2.56819 -0.662422 -0.00465643 2.56819 2.00087e-08 2.56819)
(2.56819 -0.662422 -0.00465643 2.56819 -1.68405e-10 2.56819)
(2.79722 -0.775199 -0.0055301 2.79722 5.28845e-10 2.79722)
(2.79722 -0.775199 -0.0055301 2.79722 -1.59662e-08 2.79722)
(3.01835 -0.890847 -0.00644964 3.01835 -2.0229e-08 3.01835)
(3.01835 -0.890847 -0.00644964 3.01835 -2.02546e-08 3.01835)
(3.23251 -1.00899 -0.00741377 3.23251 -2.5081e-08 3.23251)
(3.23251 -1.00899 -0.00741377 3.23251 -2.51239e-08 3.23251)
(3.44042 -1.12938 -0.00842205 3.44042 -3.04873e-08 3.44042)
(3.44042 -1.12938 -0.00842205 3.44042 -3.05357e-08 3.44042)
(3.64262 -1.25186 -0.00947458 3.64262 -3.63974e-08 3.64262)
(3.64262 -1.25186 -0.00947458 3.64262 -3.64513e-08 3.64262)
(3.83952 -1.37633 -0.0105719 3.83952 -4.29748e-08 3.83952)
(3.83952 -1.37633 -0.0105719 3.83952 -4.30344e-08 3.83952)
(4.03141 -1.50272 -0.0117145 4.03141 -5.0286e-08 4.03141)
(4.03141 -1.50272 -0.0117145 4.03141 -5.03512e-08 4.03141)
(4.21847 -1.63096 -0.0129032 4.21847 -5.81131e-08 4.21847)
(4.21847 -1.63096 -0.0129032 4.21847 -5.81841e-08 4.21847)
(4.40079 -1.76096 -0.0141383 4.40079 -6.65563e-08 4.40079)
(4.40079 -1.76096 -0.0141383 4.40079 -6.66333e-08 4.40079)
(4.5784 -1.8926 -0.01542 4.5784 -7.60028e-08 4.5784)
(4.5784 -1.8926 -0.01542 4.5784 -7.60853e-08 4.5784)
(4.75123 -2.02573 -0.0167481 4.75123 -8.61721e-08 4.75123)
(4.75123 -2.02573 -0.0167481 4.75123 -8.62604e-08 4.75123)
(4.91915 -2.16011 -0.0181217 4.91915 -9.68771e-08 4.91915)
(4.91915 -2.16011 -0.0181217 4.91915 -9.69716e-08 4.91915)
(5.08198 -2.29546 -0.0195392 5.08198 -1.0842e-07 5.08198)
(5.08198 -2.29546 -0.0195392 5.08198 -1.0852e-07 5.08198)
(5.23948 -2.43142 -0.0209984 5.23948 -1.2125e-07 5.23948)
(5.23948 -2.43142 -0.0209984 5.23948 -1.21356e-07 5.23948)
(5.39135 -2.56754 -0.0224958 5.39135 -1.34788e-07 5.39135)
(5.39135 -2.56754 -0.0224958 5.39135 -1.34899e-07 5.39135)
(5.53724 -2.70326 -0.0240271 5.53724 -1.49053e-07 5.53724)
(5.53724 -2.70326 -0.0240271 5.53724 -1.49171e-07 5.53724)
(5.67676 -2.83796 -0.025587 5.67676 -1.64277e-07 5.67676)
(5.67676 -2.83796 -0.025587 5.67676 -1.64401e-07 5.67676)
(5.80948 -2.97092 -0.027169 5.80948 -1.81098e-07 5.80948)
(5.80948 -2.97092 -0.027169 5.80948 -1.81228e-07 5.80948)
(5.93494 -3.10134 -0.0287651 5.93494 -1.98633e-07 5.93494)
(5.93494 -3.10134 -0.0287651 5.93494 -1.98768e-07 5.93494)
(6.05264 -3.22829 -0.0303661 6.05264 -2.17037e-07 6.05264)
(6.05264 -3.22829 -0.0303661 6.05264 -2.17178e-07 6.05264)
(6.16206 -3.35079 -0.0319618 6.16206 -2.3684e-07 6.16206)
(6.16206 -3.35079 -0.0319618 6.16206 -2.36987e-07 6.16206)
(6.26268 -3.46782 -0.0335409 6.26268 -2.58339e-07 6.26268)
(6.26268 -3.46782 -0.0335409 6.26268 -2.58491e-07 6.26268)
(6.35396 -3.57825 -0.0350901 6.35396 -2.80698e-07 6.35396)
(6.35396 -3.57825 -0.0350901 6.35396 -2.80856e-07 6.35396)
(6.43537 -3.68089 -0.0365954 6.43537 -3.04051e-07 6.43537)
(6.43537 -3.68089 -0.0365954 6.43537 -3.04213e-07 6.43537)
(6.5064 -3.77458 -0.0380423 6.5064 -3.29114e-07 6.5064)
(6.5064 -3.77458 -0.0380423 6.5064 -3.29282e-07 6.5064)
(6.56656 -3.85812 -0.0394152 6.56656 -3.56129e-07 6.56656)
(6.56656 -3.85812 -0.0394152 6.56656 -3.56303e-07 6.56656)
(6.6154 -3.93032 -0.0406971 6.6154 -3.84467e-07 6.6154)
(6.6154 -3.93032 -0.0406971 6.6154 -3.84646e-07 6.6154)
(6.65252 -3.98996 -0.0418709 6.65252 -4.13571e-07 6.65252)
(6.65252 -3.98996 -0.0418709 6.65252 -4.13755e-07 6.65252)
(6.6776 -4.03594 -0.0429196 6.6776 -4.44893e-07 6.6776)
(6.6776 -4.03594 -0.0429196 6.6776 -4.45082e-07 6.6776)
(6.69038 -4.06722 -0.0438263 6.69038 -4.78297e-07 6.69038)
(6.69038 -4.06722 -0.0438263 6.69038 -4.78491e-07 6.69038)
(6.69069 -4.08285 -0.0445738 6.69069 -5.12797e-07 6.69069)
(6.69069 -4.08285 -0.0445738 6.69069 -5.12995e-07 6.69069)
(6.67849 -4.08196 -0.0451457 6.67849 -5.49255e-07 6.67849)
(6.67849 -4.08196 -0.0451457 6.67849 -5.49458e-07 6.67849)
(6.65381 -4.06387 -0.0455267 6.65381 -5.86925e-07 6.65381)
(6.65381 -4.06387 -0.0455267 6.65381 -5.86994e-07 6.65381)
(6.61685 -4.02802 -0.0457027 6.61685 -6.28713e-07 6.61685)
(6.61685 -4.02802 -0.0457027 6.61685 -6.28925e-07 6.61685)
(6.56791 -3.97403 -0.0456602 6.56791 -6.698e-07 6.56791)
(6.56791 -3.97403 -0.0456602 6.56791 -6.70017e-07 6.56791)
(6.50747 -3.90168 -0.0453886 6.50747 -7.09805e-07 6.50747)
(6.50747 -3.90168 -0.0453886 6.50747 -7.09289e-07 6.50747)
(6.43611 -3.8111 -0.0448814 6.43611 -7.58171e-07 6.43611)
(6.43611 -3.8111 -0.0448814 6.43611 -7.58395e-07 6.43611)
(6.35459 -3.70249 -0.0441295 6.35459 -8.08143e-07 6.35459)
(6.35459 -3.70249 -0.0441295 6.35459 -8.07125e-07 6.35459)
(6.2638 -3.57613 -0.0431278 6.2638 -8.49767e-07 6.2638)
(6.2638 -3.57613 -0.0431278 6.2638 -8.48461e-07 6.2638)
(6.16477 -3.43275 -0.0418788 6.16477 -9.04822e-07 6.16477)
(6.16477 -3.43275 -0.0418788 6.16477 -9.03105e-07 6.16477)
(6.05866 -3.27318 -0.0403802 6.05866 -9.50981e-07 6.05866)
(6.05866 -3.27318 -0.0403802 6.05867 -9.49625e-07 6.05866)
(5.94677 -3.09832 -0.0386364 5.94677 -1.00121e-06 5.94677)
(5.94677 -3.09832 -0.0386364 5.94677 -1.00146e-06 5.94677)
(5.83047 -2.90938 -0.0366552 5.83047 -1.05474e-06 5.83047)
(5.83047 -2.90938 -0.0366552 5.83047 -1.05452e-06 5.83047)
(5.71123 -2.70767 -0.0344444 5.71123 -1.10009e-06 5.71123)
(5.71123 -2.70767 -0.0344444 5.71123 -1.09867e-06 5.71123)
(5.59058 -2.49464 -0.0320174 5.59058 -1.1531e-06 5.59058)
(5.59058 -2.49464 -0.0320174 5.59058 -1.15221e-06 5.59058)
(5.47005 -2.2718 -0.029386 5.47005 -1.20081e-06 5.47005)
(5.47005 -2.2718 -0.029386 5.47005 -1.19933e-06 5.47005)
(5.35119 -2.04064 -0.026565 5.35119 -1.25013e-06 5.35119)
(5.35119 -2.04064 -0.026565 5.35119 -1.25039e-06 5.35119)
(5.23552 -1.80271 -0.02357 5.23552 -1.28692e-06 5.23552)
(5.23552 -1.80271 -0.02357 5.23552 -1.28719e-06 5.23552)
(5.12446 -1.55962 -0.0204208 5.12446 -1.32748e-06 5.12446)
(5.12446 -1.55962 -0.0204208 5.12446 -1.32592e-06 5.12446)
(5.01933 -1.31305 -0.0171364 5.01933 -1.37616e-06 5.01933)
(5.01933 -1.31305 -0.0171364 5.01933 -1.3741e-06 5.01933)
(4.92131 -1.06437 -0.0137313 4.92131 -1.40124e-06 4.92131)
(4.92131 -1.06437 -0.0137313 4.92131 -1.39961e-06 4.92131)
(4.83139 -0.815062 -0.010229 4.83138 -1.42785e-06 4.83139)
(4.83139 -0.815062 -0.010229 4.83138 -1.42814e-06 4.83139)
(4.75035 -0.56669 -0.00664953 4.75035 -1.45645e-06 4.75035)
(4.75035 -0.56669 -0.00664954 4.75035 -1.45674e-06 4.75035)
(4.67877 -0.32059 -0.0030115 4.67877 -1.47925e-06 4.67877)
(4.67877 -0.32059 -0.0030115 4.67877 -1.47751e-06 4.67877)
(4.61694 -4.85349e-05 -3.7501e-07 4.61694 -1.5027e-06 4.61694)
(4.61694 -4.85349e-05 -3.7501e-07 4.61694 -1.50037e-06 4.61694)
(4.56495 0.0858526 -0.000672994 4.56495 -1.50948e-06 4.56495)
(4.56495 0.0858526 -0.000672994 4.56495 -1.50763e-06 4.56495)
(4.52264 0.390805 -0.00441998 4.52264 -1.53272e-06 4.52264)
(4.52264 0.390805 -0.00441998 4.52264 -1.53024e-06 4.52264)
(4.48957 0.614521 -0.00816512 4.48957 -1.54088e-06 4.48957)
(4.48957 0.614521 -0.00816512 4.48957 -1.53893e-06 4.48957)
(4.46512 0.829411 -0.011888 4.46512 -1.56089e-06 4.46512)
(4.46512 0.829411 -0.011888 4.46512 -1.55825e-06 4.46512)
(4.44852 1.03414 -0.0155601 4.44852 -1.57511e-06 4.44852)
(4.44852 1.03414 -0.0155601 4.44852 -1.57304e-06 4.44852)
(4.43884 1.22761 -0.0191554 4.43884 -1.59973e-06 4.43884)
(4.43884 1.22761 -0.0191554 4.43884 -1.5973e-06 4.43884)
(4.43508 1.40885 -0.0226506 4.43508 -1.61462e-06 4.43508)
(4.43508 1.40885 -0.0226506 4.43508 -1.61241e-06 4.43508)
(4.43617 1.57685 -0.0260215 4.43617 -1.64249e-06 4.43617)
(4.43617 1.57685 -0.0260215 4.43617 -1.64288e-06 4.43617)
(4.44103 1.73076 -0.0292413 4.44103 -1.67053e-06 4.44103)
(4.44103 1.73076 -0.0292413 4.44103 -1.67087e-06 4.44103)
(4.44859 1.87011 -0.0322894 4.44859 -1.71193e-06 4.44859)
(4.44859 1.87011 -0.0322894 4.44859 -1.70948e-06 4.44859)
(4.45784 1.99465 -0.0351506 4.45784 -1.75439e-06 4.45784)
(4.45784 1.99465 -0.0351506 4.45784 -1.75481e-06 4.45784)
(4.46784 2.10429 -0.0378114 4.46784 -1.79386e-06 4.46784)
(4.46784 2.10429 -0.0378114 4.46783 -1.79124e-06 4.46784)
(4.47771 2.1991 -0.0402616 4.47771 -1.85515e-06 4.47771)
(4.47771 2.1991 -0.0402616 4.47771 -1.85157e-06 4.47771)
(4.48671 2.27951 -0.0424933 4.48671 -1.89687e-06 4.48671)
(4.48671 2.27951 -0.0424933 4.48671 -1.89407e-06 4.48671)
(4.49418 2.34613 -0.0445099 4.49417 -1.95571e-06 4.49418)
(4.49418 2.34613 -0.0445099 4.49417 -1.95535e-06 4.49418)
(4.49955 2.39959 -0.0463107 4.49955 -2.01828e-06 4.49955)
(4.49955 2.39959 -0.0463107 4.49955 -2.0153e-06 4.49955)
(4.50238 2.44079 -0.0479004 4.50238 -2.08033e-06 4.50238)
(4.50238 2.44079 -0.0479004 4.50238 -2.08084e-06 4.50238)
(4.50231 2.47077 -0.0492908 4.50231 -2.14187e-06 4.50231)
(4.50231 2.47077 -0.0492908 4.50231 -2.13869e-06 4.50231)
(4.49908 2.4905 -0.0504929 4.49908 -2.2069e-06 4.49908)
(4.49908 2.4905 -0.0504929 4.49908 -2.20744e-06 4.49908)
(4.49248 2.50091 -0.0515175 4.49248 -2.2634e-06 4.49248)
(4.49248 2.50091 -0.0515175 4.49248 -2.26002e-06 4.49248)
(4.48239 2.5029 -0.0523763 4.48239 -2.3351e-06 4.48239)
(4.48239 2.5029 -0.0523763 4.48239 -2.33567e-06 4.48239)
(4.46875 2.49738 -0.0530793 4.46875 -2.40271e-06 4.46875)
(4.46875 2.49738 -0.0530793 4.46875 -2.39912e-06 4.46875)
(4.45154 2.48533 -0.0536416 4.45154 -2.4612e-06 4.45154)
(4.45154 2.48533 -0.0536416 4.45154 -2.46181e-06 4.45154)
(4.4308 2.46756 -0.054077 4.4308 -2.51632e-06 4.4308)
(4.4308 2.46756 -0.054077 4.4308 -2.5164e-06 4.4308)
(4.40658 2.44473 -0.054396 4.40658 -2.58656e-06 4.40658)
(4.40658 2.44473 -0.054396 4.40658 -2.58265e-06 4.40658)
(4.37898 2.41745 -0.0546059 4.37898 -2.6609e-06 4.37898)
(4.37898 2.41745 -0.0546059 4.37898 -2.66156e-06 4.37898)
(4.34811 2.38646 -0.0547181 4.34811 -2.70012e-06 4.34811)
(4.34811 2.38646 -0.0547181 4.34811 -2.69598e-06 4.34811)
(4.3141 2.35223 -0.0547457 4.3141 -2.76052e-06 4.3141)
(4.3141 2.35223 -0.0547457 4.3141 -2.76122e-06 4.3141)
(4.2771 2.31512 -0.0546901 4.2771 -2.80841e-06 4.2771)
(4.2771 2.31512 -0.0546901 4.2771 -2.80849e-06 4.2771)
(4.23725 2.27562 -0.0545596 4.23725 -2.86411e-06 4.23725)
(4.23725 2.27562 -0.0545596 4.23725 -2.85963e-06 4.23725)
(4.19473 2.2341 -0.0543629 4.19473 -2.92558e-06 4.19473)
(4.19473 2.2341 -0.0543629 4.19473 -2.92633e-06 4.19473)
(4.14969 2.19094 -0.0541041 4.14969 -2.95662e-06 4.14969)
(4.14969 2.19094 -0.0541041 4.14969 -2.95188e-06 4.14969)
(4.10232 2.14641 -0.0537913 4.10231 -2.98445e-06 4.10232)
(4.10232 2.14641 -0.0537913 4.10231 -2.98526e-06 4.10232)
(4.05276 2.1007 -0.0534267 4.05276 -3.0384e-06 4.05276)
(4.05276 2.1007 -0.0534267 4.05276 -3.03922e-06 4.05276)
(4.0012 2.05409 -0.0530138 4.0012 -3.07301e-06 4.0012)
(4.0012 2.05409 -0.0530138 4.0012 -3.06787e-06 4.0012)
(3.94781 2.00682 -0.052559 3.94781 -3.09578e-06 3.94781)
(3.94781 2.00682 -0.052559 3.94781 -3.09653e-06 3.94781)
(3.89274 1.95907 -0.0520651 3.89274 -3.12811e-06 3.89274)
(3.89274 1.95907 -0.0520651 3.89274 -3.129e-06 3.89274)
(3.83617 1.91108 -0.0515376 3.83617 -3.15357e-06 3.83617)
(3.83617 1.91108 -0.0515376 3.83617 -3.148e-06 3.83617)
(3.77824 1.86295 -0.0509799 3.77824 -3.17565e-06 3.77824)
(3.77824 1.86295 -0.0509799 3.77824 -3.17659e-06 3.77824)
(3.71912 1.81486 -0.0503932 3.71912 -3.17766e-06 3.71912)
(3.71912 1.81486 -0.0503932 3.71912 -3.17863e-06 3.71912)
(3.65895 1.76698 -0.0497842 3.65895 -3.19532e-06 3.65895)
(3.65895 1.76698 -0.0497842 3.65895 -3.18928e-06 3.65895)
(3.59788 1.71936 -0.0491545 3.59788 -3.21952e-06 3.59788)
(3.59788 1.71936 -0.0491545 3.59788 -3.22053e-06 3.59788)
(3.53603 1.67213 -0.048504 3.53603 -3.21233e-06 3.53603)
(3.53603 1.67213 -0.048504 3.53603 -3.20593e-06 3.53603)
(3.47355 1.62545 -0.04784 3.47355 -3.20604e-06 3.47355)
(3.47355 1.62545 -0.04784 3.47355 -3.20711e-06 3.47355)
(3.41056 1.57936 -0.0471642 3.41056 -3.19714e-06 3.41056)
(3.41056 1.57936 -0.0471642 3.41056 -3.19826e-06 3.41056)
(3.34717 1.53393 -0.0464773 3.34717 -3.19413e-06 3.34717)
(3.34717 1.53393 -0.0464773 3.34716 -3.18721e-06 3.34717)
(3.28349 1.48925 -0.0457823 3.28349 -3.1936e-06 3.28349)
(3.28349 1.48925 -0.0457823 3.28349 -3.19477e-06 3.28349)
(3.21964 1.44537 -0.0450817 3.21964 -3.16941e-06 3.21964)
(3.21964 1.44537 -0.0450817 3.21964 -3.16207e-06 3.21964)
(3.15571 1.40236 -0.0443781 3.15571 -3.15338e-06 3.15571)
(3.15571 1.40236 -0.0443781 3.15571 -3.15112e-06 3.15571)
(3.09179 1.36025 -0.0436723 3.09179 -3.10751e-06 3.09179)
(3.09179 1.36025 -0.0436723 3.09179 -3.09974e-06 3.09179)
(3.02797 1.31906 -0.0429673 3.02797 -3.10784e-06 3.02797)
(3.02797 1.31906 -0.0429673 3.02797 -3.09934e-06 3.02797)
(2.96433 1.27879 -0.0422618 2.96433 -3.05187e-06 2.96433)
(2.96433 1.27879 -0.0422618 2.96433 -3.04364e-06 2.96433)
(2.90094 1.23949 -0.0415587 2.90094 -3.02346e-06 2.90094)
(2.90094 1.23949 -0.0415587 2.90094 -3.02483e-06 2.90094)
(2.83787 1.20119 -0.04086 2.83787 -2.97232e-06 2.83787)
(2.83787 1.20119 -0.04086 2.83787 -2.96363e-06 2.83787)
(2.77518 1.16386 -0.0401662 2.77518 -2.91293e-06 2.77518)
(2.77518 1.16386 -0.0401662 2.77518 -2.91114e-06 2.77518)
(2.71293 1.12748 -0.0394767 2.71293 -2.88314e-06 2.71293)
(2.71293 1.12748 -0.0394767 2.71293 -2.88463e-06 2.71293)
(2.65117 1.09205 -0.038792 2.65117 -2.81563e-06 2.65117)
(2.65117 1.09205 -0.038792 2.65117 -2.80614e-06 2.65117)
(2.58993 1.05752 -0.038113 2.58993 -2.76766e-06 2.58993)
(2.58993 1.05752 -0.038113 2.58993 -2.76924e-06 2.58993)
(2.52928 1.02386 -0.0374372 2.52928 -2.70538e-06 2.52928)
(2.52928 1.02386 -0.0374372 2.52928 -2.69765e-06 2.52928)
(2.46923 0.991063 -0.036766 2.46923 -2.62878e-06 2.46923)
(2.46923 0.991063 -0.036766 2.46923 -2.61835e-06 2.46923)
(2.40983 0.959051 -0.0360986 2.40983 -2.56256e-06 2.40983)
(2.40983 0.959051 -0.0360986 2.40983 -2.56431e-06 2.40983)
(2.3511 0.927787 -0.0354321 2.3511 -2.50318e-06 2.3511)
(2.3511 0.927787 -0.0354321 2.3511 -2.49596e-06 2.3511)
(2.29308 0.897264 -0.0347676 2.29308 -2.41024e-06 2.29308)
(2.29308 0.897264 -0.0347676 2.29308 -2.4121e-06 2.29308)
(2.23578 0.867445 -0.0341046 2.23578 -2.32948e-06 2.23578)
(2.23578 0.867445 -0.0341046 2.23578 -2.31845e-06 2.23578)
(2.17923 0.838299 -0.0334418 2.17923 -2.24792e-06 2.17923)
(2.17923 0.838299 -0.0334418 2.17923 -2.2499e-06 2.17923)
(2.12345 0.809816 -0.0327793 2.12345 -2.16918e-06 2.12345)
(2.12345 0.809816 -0.0327793 2.12345 -2.16212e-06 2.12345)
(2.06846 0.781998 -0.0321172 2.06846 -2.07059e-06 2.06846)
(2.06846 0.781998 -0.0321172 2.06846 -2.06956e-06 2.06846)
(2.01427 0.754855 -0.0314566 2.01427 -1.97739e-06 2.01427)
(2.01427 0.754855 -0.0314566 2.01427 -1.97079e-06 2.01427)
(1.9609 0.728373 -0.0307984 1.9609 -1.86996e-06 1.9609)
(1.9609 0.728373 -0.0307984 1.9609 -1.87222e-06 1.9609)
(1.90835 0.702533 -0.0301417 1.90835 -1.77149e-06 1.90835)
(1.90835 0.702533 -0.0301417 1.90835 -1.76453e-06 1.90835)
(1.85665 0.677322 -0.0294869 1.85665 -1.66745e-06 1.85665)
(1.85665 0.677322 -0.0294869 1.85665 -1.66987e-06 1.85665)
(1.8058 0.652712 -0.0288336 1.8058 -1.56763e-06 1.8058)
(1.8058 0.652712 -0.0288336 1.8058 -1.56358e-06 1.8058)
(1.7558 0.628679 -0.028181 1.7558 -1.45831e-06 1.7558)
(1.7558 0.628679 -0.028181 1.7558 -1.45892e-06 1.7558)
(1.70667 0.605201 -0.0275289 1.70667 -1.34382e-06 1.70667)
(1.70667 0.605201 -0.0275289 1.70667 -1.34641e-06 1.70667)
(1.6584 0.582241 -0.0268764 1.6584 -1.23101e-06 1.6584)
(1.6584 0.582241 -0.0268764 1.6584 -1.22442e-06 1.6584)
(1.61102 0.559771 -0.0262222 1.61102 -1.12824e-06 1.61102)
(1.61102 0.559771 -0.0262222 1.61102 -1.13098e-06 1.61102)
(1.5645 0.537768 -0.0255658 1.5645 -1.00618e-06 1.5645)
(1.5645 0.537768 -0.0255658 1.56451 -1.00146e-06 1.5645)
(1.51888 0.516211 -0.0249065 1.51888 -8.88205e-07 1.51888)
(1.51888 0.516211 -0.0249065 1.51888 -8.91097e-07 1.51888)
(1.47414 0.495085 -0.0242436 1.47414 -7.81026e-07 1.47414)
(1.47414 0.495085 -0.0242436 1.47414 -7.84322e-07 1.47414)
(1.43029 0.474379 -0.0235772 1.43029 -6.59609e-07 1.43029)
(1.43029 0.474379 -0.0235772 1.43029 -6.54108e-07 1.43029)
(1.38733 0.454087 -0.0229067 1.38733 -5.43446e-07 1.38733)
(1.38733 0.454087 -0.0229067 1.38733 -5.47067e-07 1.38733)
(1.34527 0.434203 -0.0222327 1.34527 -4.11954e-07 1.34527)
(1.34527 0.434203 -0.0222327 1.34527 -4.01801e-07 1.34527)
(1.30411 0.414718 -0.0215549 1.30411 -2.97875e-07 1.30411)
(1.30411 0.414718 -0.0215549 1.30411 -3.01909e-07 1.30411)
(1.26386 0.395633 -0.0208732 1.26386 -1.5855e-07 1.26386)
(1.26386 0.395633 -0.0208732 1.26386 -1.41342e-07 1.26386)
(1.22452 0.376952 -0.0201883 1.22452 -2.73371e-08 1.22452)
(1.22452 0.376952 -0.0201883 1.22452 -3.68524e-08 1.22452)
(1.1861 0.358692 -0.0195009 1.1861 1.05366e-07 1.1861)
(1.1861 0.358692 -0.0195009 1.18609 1.37317e-07 1.1861)
(1.14859 0.340886 -0.0188127 1.14859 2.16209e-07 1.14859)
(1.14859 0.340886 -0.0188127 1.14859 1.90852e-07 1.14859)
(1.112 0.323584 -0.0181264 1.112 3.83001e-07 1.112)
(1.112 0.323584 -0.0181264 1.112 4.37714e-07 1.112)
(1.07634 0.306862 -0.017446 1.07634 5.1163e-07 1.07634)
(1.07634 0.306862 -0.017446 1.07634 4.42174e-07 1.07634)
(1.04161 0.290812 -0.0167771 1.04161 6.55893e-07 1.04161)
(1.04161 0.290812 -0.0167771 1.04161 7.31111e-07 1.04161)
(1.00781 0.275543 -0.0161263 1.00781 8.14426e-07 1.00781)
(1.00781 0.275543 -0.0161263 1.00782 7.11645e-07 1.00781)
(0.974947 0.26117 -0.0155019 0.974947 9.37625e-07 0.974947)
(0.974948 0.26117 -0.0155019 0.974947 1.04307e-06 0.974948)
(0.943007 0.247791 -0.0149116 0.943007 1.10554e-06 0.943007)
(0.943007 0.247791 -0.0149116 0.943008 9.53969e-07 0.943007)
(0.911989 0.235489 -0.0143629 0.911989 1.23354e-06 0.911989)
(0.91199 0.235489 -0.0143629 0.911988 1.40372e-06 0.91199)
(0.881883 0.224307 -0.0138622 0.881883 1.407e-06 0.881883)
(0.881883 0.224307 -0.0138622 0.881884 1.17141e-06 0.881883)
(0.852677 0.214247 -0.0134133 0.852677 1.51021e-06 0.852677)
(0.852678 0.214247 -0.0134133 0.852675 1.77874e-06 0.852678)
(0.824354 0.205252 -0.0130176 0.824354 1.7314e-06 0.824354)
(0.824353 0.205252 -0.0130176 0.824356 1.36623e-06 0.824353)
(0.796895 0.197229 -0.0126716 0.796895 1.8215e-06 0.796895)
(0.796896 0.197229 -0.0126716 0.796892 2.26682e-06 0.796896)
(0.770276 0.190041 -0.0123723 0.770276 2.03183e-06 0.770276)
(0.770275 0.190041 -0.0123723 0.77028 1.43215e-06 0.770275)
(0.744474 0.183478 -0.0121096 0.744474 2.08836e-06 0.744474)
(0.744476 0.183478 -0.0121096 0.74447 2.81132e-06 0.744476)
(0.719461 0.177299 -0.0118701 0.719461 2.36622e-06 0.719461)
(0.719459 0.177299 -0.0118701 0.719466 1.42831e-06 0.719459)
(0.695211 0.17128 -0.0116386 0.695211 2.36591e-06 0.695211)
(0.695214 0.17128 -0.0116386 0.695206 3.51054e-06 0.695214)
(0.671699 0.165225 -0.0114019 0.671699 2.68179e-06 0.671699)
(0.671695 0.165225 -0.0114019 0.671705 1.21196e-06 0.671695)
(0.648899 0.158977 -0.0111467 0.648899 2.60912e-06 0.648899)
(0.648902 0.158977 -0.0111467 0.648891 4.40004e-06 0.648902)
(0.62679 0.152473 -0.0108639 0.62679 3.02164e-06 0.62679)
(0.626785 0.152473 -0.0108639 0.626798 7.62412e-07 0.626785)
(0.605353 0.145729 -0.0105526 0.605353 2.78291e-06 0.605353)
(0.605358 0.145729 -0.0105526 0.605343 5.53294e-06 0.605358)
(0.584572 0.138797 -0.0102136 0.584572 2.18618e-06 0.584572)
(0.584567 0.138796 -0.0102136 0.584584 -1.00864e-07 0.584567)
(0.564434 0.131766 -0.00985185 0.564434 2.90257e-06 0.564434)
(0.564441 0.131766 -0.00985182 0.56442 7.13159e-06 0.564441)
(0.544926 0.124768 -0.00947372 0.544926 4.32487e-07 0.544926)
(0.544918 0.124768 -0.00947374 0.544941 -1.57125e-06 0.544918)
(0.526038 0.1179 -0.00909133 0.526038 2.91358e-06 0.526038)
(0.526047 0.1179 -0.0090913 0.526021 9.40942e-06 0.526047)
(0.50776 0.111243 -0.00870665 0.50776 -8.61381e-22 0.50776)
(0.50775 0.111243 -0.00870669 0.50778 -3.92445e-06 0.507751)
(0.490084 0.104938 -0.0083305 0.490084 2.79631e-06 0.490084)
(0.490095 0.104939 -0.00833045 0.490062 1.27991e-05 0.490095)
(0.472999 0.0990857 -0.00797489 0.472999 8.32919e-22 0.472999)
(0.472987 0.0990856 -0.00797497 0.473024 -7.72326e-06 0.472987)
(0.456496 0.0937587 -0.00764517 0.456496 2.4945e-06 0.456496)
(0.456509 0.093759 -0.00764509 0.456469 1.79711e-05 0.456509)
(0.440563 0.0890102 -0.0073504 0.440563 -0 0.440563)
(0.440549 0.0890103 -0.00735053 0.440591 -1.37055e-05 0.440549)
(0.425188 0.0847802 -0.00709315 0.425188 2.09845e-06 0.425188)
(0.425202 0.0847798 -0.00709302 0.42516 2.58518e-05 0.425202)
(0.410358 0.0809915 -0.0068645 0.410358 5.91044e-22 0.410358)
(0.410344 0.0809917 -0.00686454 0.410384 -2.28069e-05 0.410345)
(0.396058 0.077566 -0.00666378 0.396058 5.91979e-06 0.396058)
(0.39607 0.077566 -0.00666377 0.396035 3.7422e-05 0.39607)
(0.382275 0.0743965 -0.00648123 0.382275 1.62626e-22 0.382275)
(0.382266 0.0743966 -0.00648124 0.382293 -3.71485e-05 0.382267)
(0.368995 0.0713547 -0.00631051 0.368995 6.12102e-06 0.368995)
(0.368999 0.0713548 -0.00631051 0.368986 3.90551e-05 0.368999)
(0.356203 0.0682108 -0.00613712 0.356203 -5.13982e-06 0.356203)
(0.356202 0.0682109 -0.00613713 0.356205 -4.08123e-05 0.356202)
(0.343888 0.0648515 -0.0059355 0.343888 -6.86317e-21 0.343888)
(0.343884 0.0648516 -0.00593551 0.343895 3.90674e-05 0.343884)
(0.332039 0.0613259 -0.00570994 0.332039 -6.77743e-06 0.332039)
(0.332046 0.061326 -0.00570994 0.332025 -4.07406e-05 0.332046)
(0.320647 0.057656 -0.00546311 0.320647 4.96037e-21 0.320647)
(0.320637 0.0576559 -0.00546311 0.320667 2.6089e-05 0.320638)
(0.309706 0.0539426 -0.00519468 0.309706 -3.87735e-06 0.309706)
(0.309718 0.053943 -0.00519466 0.309683 -3.16441e-05 0.309718)
(0.29921 0.0502509 -0.00492246 0.29921 -0 0.29921)
(0.299197 0.0502507 -0.00492256 0.299235 1.70453e-05 0.299198)
(0.289153 0.0465597 -0.00464016 0.289153 -3.8739e-06 0.289153)
(0.289166 0.0465595 -0.00464002 0.289128 -2.3823e-05 0.289166)
(0.279532 0.0429801 -0.00434977 0.279532 -0 0.279532)
(0.279519 0.0429802 -0.00434987 0.279557 1.01692e-05 0.279519)
(0.270342 0.0395951 -0.00407077 0.270342 -4.47533e-06 0.270342)
(0.270354 0.039595 -0.00407067 0.270318 -1.83432e-05 0.270353)
(0.26158 0.0364854 -0.00380051 0.26158 1.66344e-21 0.26158)
(0.261569 0.0364854 -0.00380059 0.261601 5.29528e-06 0.261569)
(0.253242 0.0339042 -0.00355936 0.253242 -4.90495e-06 0.253242)
(0.253251 0.0339042 -0.0035593 0.253222 -1.45397e-05 0.253251)
(0.245323 0.0320234 -0.00338092 0.245323 -2.40512e-06 0.245323)
(0.245314 0.0320235 -0.00338098 0.24534 1.87931e-06 0.245314)
(0.237818 0.0309041 -0.00327149 0.237818 -5.27889e-06 0.237818)
(0.237826 0.0309041 -0.00327145 0.237803 -1.19978e-05 0.237826)
(0.23072 0.0306501 -0.0032438 0.23072 -5.68641e-06 0.23072)
(0.230713 0.0306502 -0.00324384 0.230734 -5.38787e-07 0.230713)
(0.224021 0.0312743 -0.00331425 0.224021 -5.58409e-06 0.224021)
(0.224027 0.0312743 -0.00331422 0.224009 -1.0276e-05 0.224027)
(0.217709 0.0326799 -0.00347714 0.217709 -6.16165e-06 0.217709)
(0.217704 0.03268 -0.00347716 0.217719 -2.2998e-06 0.217704)
(0.211772 0.0347107 -0.00372527 0.211772 -5.81757e-06 0.211772)
(0.211777 0.0347107 -0.00372525 0.211763 -9.11145e-06 0.211777)
(0.206196 0.0371077 -0.00403854 0.206196 -6.20084e-06 0.206196)
(0.206193 0.0371078 -0.00403856 0.206204 -3.9043e-06 0.206193)
(0.200965 0.0395028 -0.00438459 0.200965 -5.9782e-06 0.200965)
(0.200968 0.0395028 -0.00438458 0.200958 -8.30363e-06 0.200968)
(0.19606 0.0416121 -0.00471483 0.19606 -6.22582e-06 0.19606)
(0.196057 0.0416121 -0.00471485 0.196066 -4.96197e-06 0.196057)
(0.191466 0.0433477 -0.00501212 0.191466 -6.09923e-06 0.191466)
(0.191468 0.0433477 -0.00501211 0.191461 -7.7282e-06 0.191468)
(0.187166 0.0447789 -0.00527024 0.187166 -6.29212e-06 0.187166)
(0.187164 0.0447789 -0.00527025 0.187171 -5.63928e-06 0.187164)
(0.183146 0.0461114 -0.00550874 0.183146 -6.20325e-06 0.183146)
(0.183148 0.0461114 -0.00550874 0.183143 -7.33948e-06 0.183148)
(0.179392 0.0475286 -0.00575544 0.179392 -6.34265e-06 0.179392)
(0.179391 0.0475286 -0.00575544 0.179396 -6.04858e-06 0.179391)
(0.175889 0.0491569 -0.00602701 0.175889 -6.26989e-06 0.175889)
(0.17589 0.0491569 -0.00602701 0.175886 -7.07162e-06 0.17589)
(0.17262 0.0510729 -0.00633973 0.17262 -6.35072e-06 0.17262)
(0.172619 0.0510729 -0.00633973 0.172621 -6.26529e-06 0.172619)
(0.169567 0.0532804 -0.00669927 0.169565 -6.37707e-06 0.169567)
(0.169567 0.0532804 -0.00669927 0.169564 -6.8876e-06 0.169567)
(0.166707 0.0557395 -0.00710432 0.166708 -6.43735e-06 0.166707)
(0.166707 0.0557395 -0.00710432 0.166707 -6.4713e-06 0.166707)
(0.164019 0.0584509 -0.00754924 0.164017 -6.7562e-06 0.164019)
(0.164019 0.0584509 -0.00754924 0.164018 -6.9591e-06 0.164019)
(0.161474 0.0613601 -0.00804318 0.161476 -6.6743e-06 0.161474)
(0.161475 0.0613601 -0.00804318 0.161475 -6.775e-06 0.161475)
(0.159046 0.0642334 -0.00856512 0.159045 -7.18308e-06 0.159046)
(0.159046 0.0642334 -0.00856512 0.159045 -7.25028e-06 0.159046)
(0.1567 0.0667267 -0.00907433 0.156701 -7.05009e-06 0.1567)
(0.1567 0.0667268 -0.00907434 0.1567 -7.1866e-06 0.1567)
(0.154409 0.068436 -0.00951559 0.154409 -7.62279e-06 0.154409)
(0.154409 0.068436 -0.00951559 0.154409 -7.69547e-06 0.154409)
(0.152148 0.0690699 -0.00982577 0.152149 -7.62982e-06 0.152148)
(0.152148 0.0690699 -0.00982577 0.152148 -7.7838e-06 0.152148)
(0.149903 0.0685617 -0.00997592 0.149902 -8.20655e-06 0.149903)
(0.149903 0.0685617 -0.00997592 0.149902 -8.28603e-06 0.149903)
(0.147665 0.0671069 -0.0099631 0.147666 -8.23614e-06 0.147665)
(0.147666 0.0671069 -0.0099631 0.147666 -8.35494e-06 0.147666)
(0.145442 0.065134 -0.00983454 0.145441 -8.55819e-06 0.145442)
(0.145442 0.065134 -0.00983454 0.145441 -8.64556e-06 0.145442)
(0.143237 0.0631769 -0.00965942 0.143238 -8.56754e-06 0.143237)
(0.143238 0.0631769 -0.00965942 0.143238 -8.65838e-06 0.143238)
(0.141062 0.0618352 -0.00952394 0.141062 -8.59979e-06 0.141062)
(0.141062 0.0618352 -0.00952394 0.141062 -8.69611e-06 0.141062)
(0.138917 0.0614109 -0.00952646 0.138917 -8.68983e-06 0.138917)
(0.138917 0.0614109 -0.00952646 0.138917 -8.79063e-06 0.138917)
(0.136798 0.0617234 -0.00966962 0.136799 -8.89886e-06 0.136798)
(0.136798 0.0617234 -0.00966962 0.136799 -9.0053e-06 0.136798)
(0.134693 0.0622897 -0.00990505 0.134693 -9.08155e-06 0.134693)
(0.134693 0.0622897 -0.00990505 0.134693 -9.20755e-06 0.134693)
(0.132588 0.0625417 -0.0101352 0.132589 -9.6006e-06 0.132588)
(0.132588 0.0625417 -0.0101352 0.132589 -9.7183e-06 0.132588)
(0.130471 0.0622101 -0.0102761 0.130472 -9.79393e-06 0.130471)
(0.130471 0.0622101 -0.0102761 0.130471 -9.93104e-06 0.130471)
(0.128336 0.0612949 -0.0103192 0.128336 -1.03572e-05 0.128336)
(0.128336 0.0612949 -0.0103192 0.128336 -1.04873e-05 0.128336)
(0.12618 0.0598635 -0.0102652 0.12618 -1.05555e-05 0.12618)
(0.12618 0.0598635 -0.0102652 0.12618 -1.0692e-05 0.12618)
(0.124007 0.0579001 -0.0101282 0.124007 -1.09863e-05 0.124007)
(0.124007 0.0579001 -0.0101282 0.124007 -1.11299e-05 0.124007)
(0.121824 0.0552533 -0.00988051 0.121825 -1.12151e-05 0.121824)
(0.121824 0.0552533 -0.00988051 0.121824 -1.1366e-05 0.121824)
(0.119646 0.0517814 -0.0094887 0.119645 -1.16399e-05 0.119646)
(0.119646 0.0517814 -0.0094887 0.119645 -1.17985e-05 0.119646)
(0.117492 0.0475242 -0.00892527 0.117492 -1.20233e-05 0.117492)
(0.117492 0.0475242 -0.00892527 0.117492 -1.21902e-05 0.117492)
(0.115389 0.0429269 -0.00821947 0.115389 -1.21782e-05 0.115389)
(0.115389 0.0429269 -0.00821947 0.115389 -1.23535e-05 0.115389)
(0.113363 0.0387103 -0.00749278 0.113364 -1.23074e-05 0.113363)
(0.113363 0.0387103 -0.00749278 0.113364 -1.24919e-05 0.113363)
(0.111438 0.0355958 -0.006885 0.111439 -1.22093e-05 0.111438)
(0.111438 0.0355958 -0.006885 0.111439 -1.24028e-05 0.111438)
(0.109628 0.0341566 -0.00653326 0.109629 -1.21553e-05 0.109628)
(0.109628 0.0341566 -0.00653326 0.109629 -1.23596e-05 0.109628)