/*--------------------------------*- C++ -*----------------------------------*\
| =========                 |                                                 |
| \\      /  F ield         | OpenFOAM: The Open Source CFD Toolbox           |
|  \\    /   O peration     | Version:  2106                                  |
|   \\  /    A nd           | Website:  www.openfoam.com                      |
|    \\/     M anipulation  |                                                 |
\*---------------------------------------------------------------------------*/
FoamFile
{
    version     2.0;
    format      ascii;
    arch        "LSB;label=32;scalar=64";
    class       volTensorField;
    location    "2000";
    object      grad(U);
}
// * * * * * * * * * * * * * * * * * * * * * * * * * * * * * * * * * * * * * //

dimensions      [0 0 -1 0 0 0 0];

internalField   nonuniform List<tensor> 
2560
(
(0 6.23671e-30 9.74487e-32 41.1644 -1.61637e-11 -2.66745e-13 0.0595957 -1.17003e-14 -1.58597e-16)
(-9.14312e-18 -4.15781e-30 -6.49658e-32 41.1644 -2.0981e-15 1.32512e-17 0.0595957 -4.09966e-18 1.89906e-17)
(0 -9.3516e-25 -1.11155e-26 41.1459 1.61564e-27 -3.10069e-14 0.179616 0 -9.10719e-17)
(-3.60483e-17 -1.63929e-29 -1.28069e-31 41.1459 -2.09296e-15 2.7779e-17 0.179616 -2.13715e-18 -3.17729e-17)
(-7.57965e-18 3.32822e-30 -6.03667e-32 41.1143 2.07519e-12 -1.44699e-14 0.246694 -1.65201e-14 -8.13306e-17)
(0 8.07896e-30 2.52467e-31 41.1143 -4.43259e-15 2.71568e-17 0.246694 -1.02962e-17 -3.27108e-17)
(2.4245e-17 -2.80961e-29 -4.39969e-31 41.0679 7.22623e-13 -1.44843e-14 0.249954 -8.15454e-15 -9.39149e-17)
(0 2.38895e-29 3.73273e-31 41.0679 -3.80303e-15 1.87092e-17 0.249954 -1.61852e-17 -3.37162e-17)
(6.90408e-17 -3.92452e-29 -4.90565e-31 41.0071 -7.22942e-14 -1.62446e-14 0.253168 -1.42999e-15 -1.05467e-16)
(-6.90408e-17 3.13961e-29 3.67923e-31 41.0071 -3.91881e-15 1.82259e-17 0.253168 -2.21865e-17 -3.47699e-17)
(1.94373e-16 -2.62328e-27 -4.33282e-31 40.9319 -1.15108e-13 -1.74402e-14 0.256334 -3.58188e-16 -1.11656e-16)
(4.66165e-16 1.54731e-29 3.6265e-31 40.9319 -4.08514e-15 1.86747e-17 0.256334 -2.86586e-17 -3.58751e-17)
(-7.5625e-17 -9.75415e-28 -1.64708e-31 40.8427 -8.5544e-15 -1.80463e-14 0.25945 -2.70062e-17 -1.16265e-16)
(3.025e-16 1.52513e-29 3.57452e-31 40.8427 -4.2025e-15 1.96585e-17 0.25945 -3.56457e-17 -3.70327e-17)
(-2.25432e-16 0 5.46509e-31 40.7398 1.68116e-27 -1.84897e-14 0.262514 -7.47247e-46 -1.20648e-16)
(3.7281e-16 -1.50327e-29 -2.34886e-31 40.7398 -4.17174e-15 2.14063e-17 0.262514 -4.25261e-17 -3.82473e-17)
(1.11e-16 -2.76047e-29 -1.95785e-31 40.6234 5.15985e-15 -1.88975e-14 0.265526 -3.48624e-17 -1.25011e-16)
(0 2.22259e-29 1.1576e-31 40.6234 -4.06372e-15 2.29084e-17 0.265526 -4.96564e-17 -3.95169e-17)
(0 7.30244e-30 2.28201e-31 40.4938 5.02589e-15 -1.92885e-14 0.268482 -3.21854e-17 -1.29376e-16)
(0 0 -1.14101e-31 40.4938 -4.06622e-15 2.18311e-17 0.268482 -5.68438e-17 -4.08505e-17)
(-1.47242e-16 -9.01812e-30 -4.75311e-31 40.3512 5.36965e-15 -1.96693e-14 0.271382 -3.41043e-17 -1.33805e-16)
(0 1.43956e-29 6.74792e-31 40.3512 -4.19225e-15 2.04213e-17 0.271382 -6.40458e-17 -4.22591e-17)
(4.15298e-16 -4.79438e-29 -8.66681e-31 40.1959 5.8242e-15 -2.00476e-14 0.274225 -3.77606e-17 -1.38337e-16)
(0 3.54731e-29 6.65121e-31 40.1959 -4.20469e-15 2.09192e-17 0.274225 -7.16496e-17 -4.37298e-17)
(2.46042e-16 -2.09788e-29 -4.37058e-31 40.0283 6.22447e-15 -2.04269e-14 0.277007 -4.13179e-17 -1.42985e-16)
(-2.46042e-16 2.09788e-29 6.55588e-31 40.0283 -4.15536e-15 2.01323e-17 0.277007 -7.91944e-17 -4.52642e-17)
(-4.45679e-16 2.60513e-29 4.21578e-31 39.8486 6.57821e-15 -2.08087e-14 0.279729 -4.44188e-17 -1.47763e-16)
(8.12655e-16 -6.89271e-30 -1.07699e-31 39.8486 -4.3669e-15 1.8805e-17 0.279729 -8.70568e-17 -4.68759e-17)
(0 3.39696e-29 1.06155e-30 39.6572 6.82886e-15 -2.11949e-14 0.282388 -4.75062e-17 -1.52687e-16)
(0 -3.39696e-29 -1.06155e-30 39.6572 -4.57019e-15 1.90457e-17 0.282388 -9.55623e-17 -4.85559e-17)
(-2.41439e-16 1.20665e-29 -1.02471e-31 39.4542 6.99879e-15 -2.15861e-14 0.284983 -4.92985e-17 -1.57759e-16)
(9.65757e-16 -6.69654e-30 2.09267e-31 39.4542 -4.52955e-15 2.09627e-17 0.284983 -1.04217e-16 -5.03049e-17)
(-4.64473e-16 2.64023e-29 8.25071e-31 39.2401 7.05163e-15 -2.19827e-14 0.287513 -5.13593e-17 -1.62987e-16)
(-5.78978e-16 -2.64023e-29 -8.25071e-31 39.2401 -4.57084e-15 2.2207e-17 0.287513 -1.12625e-16 -5.21193e-17)
(0 1.95179e-29 1.01656e-30 39.015 6.90364e-15 -2.23845e-14 0.289977 -5.1519e-17 -1.6837e-16)
(-1.12188e-15 -1.95179e-29 -1.01656e-30 39.015 -4.65792e-15 1.9212e-17 0.289977 -1.22136e-16 -5.40128e-17)
(4.51255e-16 -1.92381e-29 -4.00795e-31 38.7794 6.79926e-15 -2.27921e-14 0.292372 -5.06575e-17 -1.73927e-16)
(0 1.92381e-29 4.00795e-31 38.7794 -4.79858e-15 1.73362e-17 0.292372 -1.31919e-16 -5.59999e-17)
(-1.24563e-16 1.99188e-29 8.62454e-31 38.5336 7.03208e-15 -2.32057e-14 0.294698 -5.14492e-17 -1.7965e-16)
(-8.36111e-16 -3.1604e-29 -1.18515e-30 38.5336 -4.95505e-15 1.72747e-17 0.294698 -1.4215e-16 -5.80624e-17)
(-4.38412e-16 3.73813e-29 1.16816e-30 38.2778 7.32553e-15 -2.36234e-14 0.296954 -5.57143e-17 -1.85525e-16)
(4.38412e-16 -3.73813e-29 -1.16816e-30 38.2778 -4.91889e-15 1.60032e-17 0.296954 -1.52389e-16 -6.02058e-17)
(-3.60662e-16 -7.8015e-31 1.35306e-31 38.0123 6.98131e-15 -2.40469e-14 0.299138 -5.75249e-17 -1.91602e-16)
(0 1.22818e-29 3.83807e-31 38.0123 -4.52047e-15 2.18061e-17 0.299138 -1.62206e-16 -6.24267e-17)
(4.70744e-16 -4.30628e-29 -1.75091e-30 37.7376 6.62334e-15 -2.44784e-14 0.30125 -5.19094e-17 -1.97874e-16)
(0 4.23703e-29 2.08068e-30 37.7376 -4.347e-15 2.20784e-17 0.30125 -1.71399e-16 -6.47025e-17)
(0 2.38646e-29 3.72884e-31 37.4538 7.25751e-15 -2.49157e-14 0.303287 -5.34736e-17 -2.04323e-16)
(-1.60699e-15 -2.98307e-29 -7.45768e-31 37.4538 -4.87275e-15 1.77569e-17 0.303287 -1.81552e-16 -6.71047e-17)
(4.22519e-16 3.58085e-29 1.31836e-30 37.1613 7.84258e-15 -2.53572e-14 0.30525 -6.37401e-17 -2.10953e-16)
(0 -4.11645e-29 -1.47016e-30 37.1613 -5.28126e-15 1.65669e-17 0.30525 -1.92261e-16 -6.95713e-17)
(-8.86877e-16 5.70792e-29 2.12671e-30 36.8605 8.00744e-15 -2.58032e-14 0.307138 -6.46904e-17 -2.17773e-16)
(0 -4.63708e-29 -1.81136e-30 36.8605 -5.43127e-15 1.24562e-17 0.307138 -2.03004e-16 -7.2133e-17)
(1.3935e-15 -6.74753e-29 -1.91953e-30 36.5516 8.16556e-15 -2.62564e-14 0.308948 -6.8366e-17 -2.24826e-16)
(3.71599e-15 5.14195e-29 1.60686e-30 36.5516 -5.24211e-15 1.31746e-17 0.308948 -2.15895e-16 -7.47833e-17)
(0 -2.81569e-29 -1.58383e-30 36.235 8.15972e-15 -2.67187e-14 0.310681 -6.92699e-17 -2.32114e-16)
(1.15024e-15 2.81569e-29 1.75981e-30 36.235 -4.80846e-15 1.9979e-17 0.310681 -2.27827e-16 -7.75124e-17)
(5.07024e-16 1.13036e-29 1.70463e-31 35.911 8.25073e-15 -2.71871e-14 0.312336 -7.02681e-17 -2.39598e-16)
(-7.81188e-16 -1.11014e-29 0 35.911 -5.04215e-15 2.21135e-17 0.312336 -2.38187e-16 -8.03175e-17)
(-1.05696e-15 2.16348e-29 3.66258e-31 35.5799 8.42335e-15 -2.76617e-14 0.313912 -7.28894e-17 -2.47327e-16)
(-4.22783e-15 -1.09422e-29 0 35.5799 -5.39604e-15 2.42542e-17 0.313912 -2.50816e-16 -8.32331e-17)
(-5.50053e-16 2.15223e-29 1.20116e-30 35.2419 8.94844e-15 -2.81438e-14 0.315408 -7.53869e-17 -2.55288e-16)
(-2.20021e-15 -5.39271e-30 -5.16298e-31 35.2419 -5.55625e-15 1.75041e-17 0.315408 -2.63282e-16 -8.62109e-17)
(-7.48078e-16 4.78387e-29 1.99328e-30 34.8976 9.35168e-15 -2.86318e-14 0.316823 -8.44691e-17 -2.63477e-16)
(-1.53889e-15 -4.78387e-29 -1.99328e-30 34.8976 -5.71472e-15 1.1841e-17 0.316823 -2.76417e-16 -8.93527e-17)
(0 -2.61962e-29 -1.63726e-30 34.547 8.90705e-15 -2.91265e-14 0.318157 -8.49537e-17 -2.71925e-16)
(2.37416e-15 2.61962e-29 1.63726e-30 34.547 -5.30271e-15 1.27402e-17 0.318157 -2.90811e-16 -9.25957e-17)
(-6.15444e-16 1.56657e-29 2.12091e-31 34.1907 8.66268e-15 -2.96294e-14 0.31941 -7.87118e-17 -2.80641e-16)
(0 0 -8.75812e-47 34.1907 -5.47112e-15 2.85615e-30 0.31941 -3.0472e-16 -9.5947e-17)
(-1.35382e-15 4.60556e-29 2.44687e-30 33.8288 8.93953e-15 -3.01368e-14 0.320581 -8.28525e-17 -2.8956e-16)
(7.16371e-16 -4.0721e-29 -2.22693e-30 33.8288 -6.21834e-15 4.60994e-19 0.320581 -3.2007e-16 -9.94182e-17)
(-6.59538e-16 4.04519e-29 1.48233e-30 33.4616 8.7353e-15 -3.06497e-14 0.321669 -8.62931e-17 -2.98778e-16)
(-2.63815e-15 -2.50859e-29 -6.27146e-31 33.4616 -6.05531e-15 8.91599e-18 0.321669 -3.34909e-16 -1.02929e-16)
(6.81719e-16 -2.01659e-29 -1.47272e-30 33.0896 7.9029e-15 -3.11723e-14 0.322675 -8.13311e-17 -3.08293e-16)
(0 1.48358e-29 1.23632e-30 33.0896 -4.89102e-15 1.91627e-17 0.322675 -3.489e-16 -1.06459e-16)
(7.03981e-16 -3.45759e-29 -1.76828e-30 32.7129 7.3082e-15 -3.17055e-14 0.323597 -7.24942e-17 -3.1814e-16)
(0 2.92463e-29 1.52324e-30 32.7129 -4.15877e-15 2.03847e-17 0.323597 -3.61309e-16 -1.10035e-16)
(-1.4025e-15 1.97416e-29 1.15482e-30 32.332 7.96571e-15 -3.22438e-14 0.324436 -7.18794e-17 -3.28192e-16)
(0 -9.60904e-30 -3.00283e-31 32.332 -4.79478e-15 1.34659e-17 0.324436 -3.74936e-16 -1.13742e-16)
(0 1.4207e-29 1.47989e-30 31.947 8.6784e-15 -3.27858e-14 0.325191 -8.78921e-17 -3.38559e-16)
(0 -2.36783e-29 -1.77587e-30 31.947 -5.20028e-15 1.11643e-17 0.325191 -3.90585e-16 -1.17552e-16)
(-7.71198e-16 9.98887e-30 5.64446e-31 31.5583 8.74471e-15 -3.33348e-14 0.325862 -8.85824e-17 -3.49216e-16)
(3.08479e-15 0 0 31.5583 -4.75836e-15 0 0.325862 -4.04779e-16 -1.21485e-16)
(1.29503e-15 -2.30044e-29 -1.43778e-30 31.1661 8.99813e-15 -3.38934e-14 0.326449 -9.18446e-17 -3.60252e-16)
(1.87988e-15 2.30044e-29 1.43778e-30 31.1661 -5.33541e-15 -1.74531e-17 0.326449 -4.16939e-16 -1.25585e-16)
(8.1631e-16 1.73585e-29 8.41057e-31 30.7708 9.26185e-15 -3.44619e-14 0.326953 -9.65199e-17 -3.71606e-16)
(-3.26524e-15 -3.17446e-29 -1.7006e-30 30.7708 -6.52299e-15 -2.46838e-17 0.326953 -4.34435e-16 -1.29715e-16)
(8.38938e-16 -2.76636e-29 -1.97941e-30 30.3727 9.54324e-15 -3.50361e-14 0.327372 -1.00176e-16 -3.83264e-16)
(0 2.23497e-29 1.67623e-30 30.3727 -6.69716e-15 -2.86546e-17 0.327372 -4.51285e-16 -1.33848e-16)
(-8.61608e-16 -3.50106e-30 3.14037e-31 29.972 9.76335e-15 -3.5614e-14 0.327708 -1.05453e-16 -3.95214e-16)
(0 1.32176e-29 5.50735e-31 29.972 -6.196e-15 -2.11871e-17 0.327708 -4.70314e-16 -1.37963e-16)
(8.84312e-16 2.07488e-29 2.17591e-31 29.5689 9.49033e-15 -3.61981e-14 0.32796 -1.07956e-16 -4.07538e-16)
(2.31488e-15 -1.73709e-29 0 29.5689 -5.17588e-15 -1.16029e-17 0.32796 -4.87223e-16 -1.41954e-16)
(1.20485e-15 -2.56829e-29 -1.07012e-30 29.1638 9.36086e-15 -3.67935e-14 0.328128 -1.02444e-16 -4.20282e-16)
(3.62818e-15 2.56829e-29 1.07012e-30 29.1638 -5.17476e-15 -1.34253e-17 0.328128 -4.98484e-16 -1.46009e-16)
(-9.29802e-16 1.37404e-29 -1.78609e-31 28.757 9.65665e-15 -3.73935e-14 0.328214 -1.08185e-16 -4.33271e-16)
(0 0 1.05478e-30 28.757 -6.10537e-15 -9.20118e-18 0.328214 -5.17111e-16 -1.50053e-16)
(-9.52576e-16 5.29817e-30 3.61122e-31 28.3486 9.59288e-15 -3.79983e-14 0.328216 -1.12246e-16 -4.46699e-16)
(0 8.31733e-30 5.19833e-31 28.3486 -6.27858e-15 -1.10415e-17 0.328216 -5.37448e-16 -1.5408e-16)
(1.15378e-15 -8.19813e-30 -1.02477e-30 27.939 9.69513e-15 -3.05369e-14 0.328135 -1.09866e-16 -2.69405e-16)
(-1.15378e-15 8.19813e-30 1.53715e-30 27.939 -6.32493e-15 -1.76775e-17 0.328135 -5.57579e-16 -1.58178e-16)
(-2.1354e-15 5.29146e-30 -5.84964e-31 27.5283 1.04358e-14 -1.77231e-14 0.327972 -1.17953e-16 -1.5216e-16)
(0 1.61613e-29 2.5252e-30 27.5283 -6.94241e-15 -1.35917e-17 0.327972 -5.81995e-16 -1.62341e-16)
(0 3.18592e-29 2.9868e-30 27.1169 1.11643e-14 -1.26561e-14 0.327727 -1.30866e-16 -1.53882e-16)
(-4.08378e-15 -3.18592e-29 -2.489e-30 27.1169 -7.17974e-15 -1.08278e-17 0.327727 -6.09098e-16 -1.66527e-16)
(-2.14861e-15 -3.39717e-29 -2.51056e-30 26.705 1.05615e-14 -1.26118e-14 0.327401 -1.39152e-16 -1.55524e-16)
(4.17492e-15 3.92533e-29 3.43466e-30 26.705 -6.70098e-15 -1.21166e-17 0.327401 -6.36224e-16 -1.7076e-16)
(0 3.09525e-29 3.38543e-30 26.2929 9.14081e-15 -1.25708e-14 0.326994 -1.19805e-16 -1.57361e-16)
(0 -3.09525e-29 -3.38543e-30 26.2929 -6.16672e-15 -7.35041e-18 0.326994 -6.60172e-16 -1.75004e-16)
(-1.08926e-15 2.05345e-29 2.3487e-30 25.8806 8.80245e-15 -1.25318e-14 0.326507 -1.07611e-16 -1.59088e-16)
(4.35705e-15 -1.52545e-29 -1.90681e-30 25.8806 -5.2262e-15 -8.48487e-18 0.326507 -6.77539e-16 -1.79214e-16)
(2.224e-15 -2.55879e-29 -2.7721e-30 25.4686 8.94357e-15 -1.24525e-14 0.32594 -1.14708e-16 -1.59925e-16)
(4.44799e-15 1.50358e-29 1.87948e-30 25.4686 -5.13464e-15 -1.54539e-17 0.32594 -6.96707e-16 -1.83537e-16)
(2.08577e-15 -1.48203e-29 -1.85254e-30 25.0569 8.76701e-15 -1.23401e-14 0.325295 -1.14405e-16 -1.60806e-16)
(-2.08577e-15 1.48203e-29 2.31567e-30 25.0569 -5.76704e-15 -2.00317e-18 0.325295 -7.18843e-16 -1.87807e-16)
(-1.15738e-15 -1.66403e-29 -9.14349e-31 24.6459 9.03463e-15 -1.22393e-14 0.324571 -1.13446e-16 -1.61933e-16)
(0 2.92158e-29 -5.32893e-32 24.6459 -5.6823e-15 -8.08383e-30 0.324571 -7.38822e-16 -1.91995e-16)
(-2.36002e-15 4.65298e-29 3.16858e-30 24.2357 9.71148e-15 -1.21924e-14 0.323771 -1.24864e-16 -1.64251e-16)
(4.72004e-15 -4.31956e-29 -2.69972e-30 24.2357 -6.32242e-15 -3.25847e-17 0.323771 -7.61175e-16 -1.96356e-16)
(-1.2026e-15 -1.83398e-30 4.63812e-31 23.8265 1.07027e-14 -1.21685e-14 0.322893 -1.35008e-16 -1.66025e-16)
(0 2.12882e-29 8.8701e-31 23.8265 -6.82965e-15 -3.09863e-17 0.322893 -7.88759e-16 -2.00577e-16)
(-1.22513e-15 -1.73872e-30 -4.06026e-31 23.4186 1.18233e-14 -1.2124e-14 0.32194 -1.55621e-16 -1.67829e-16)
(4.90054e-15 1.39888e-29 1.74859e-30 23.4186 -5.92341e-15 -2.12585e-17 0.32194 -8.15041e-16 -2.04716e-16)
(-1.24762e-15 1.90373e-29 2.19638e-30 23.0121 1.13802e-14 -1.20638e-14 0.320913 -1.70041e-16 -1.69194e-16)
(0 -6.89413e-30 -8.61766e-31 23.0121 -6.54845e-15 -1.5483e-17 0.320913 -8.38301e-16 -2.08751e-16)
(-2.54007e-15 3.0881e-29 4.35274e-30 22.6072 1.05975e-14 -1.19613e-14 0.319812 -1.47712e-16 -1.69818e-16)
(-5.08015e-15 -2.0386e-29 -3.5965e-30 22.6072 -6.97153e-15 -4.09957e-17 0.319812 -8.73462e-16 -2.12899e-16)
(-4.47008e-15 -2.30041e-29 -3.22234e-30 22.2041 1.09107e-14 -1.19071e-14 0.318638 -1.52677e-16 -1.7258e-16)
(1.03391e-14 2.67917e-29 3.34896e-30 22.2041 -6.61569e-15 -5.57519e-17 0.318638 -9.03051e-16 -2.17194e-16)
(-3.94402e-15 5.53262e-29 6.41111e-30 21.8029 1.08454e-14 -1.18868e-14 0.317393 -1.61111e-16 -1.74197e-16)
(-5.25869e-15 -3.96116e-29 -4.95144e-30 21.8029 -7.86111e-15 -6.4108e-17 0.317393 -9.30751e-16 -2.2126e-16)
(-1.33688e-15 -2.73007e-29 -3.57607e-30 21.4039 1.08137e-14 -1.18865e-14 0.316077 -1.5523e-16 -1.77627e-16)
(5.34752e-15 3.25365e-29 4.88048e-30 21.4039 -7.60649e-15 -5.90606e-17 0.316077 -9.70052e-16 -2.25253e-16)
(4.96979e-15 -2.44725e-29 -2.90129e-30 21.0072 1.09358e-14 -1.18241e-14 0.314693 -1.64887e-16 -1.77413e-16)
(-3.61078e-15 1.92421e-29 2.40526e-30 21.0072 -6.71697e-15 -5.80348e-17 0.314693 -9.99551e-16 -2.28835e-16)
(0 -3.16105e-29 -3.16105e-30 20.613 1.03076e-14 -1.1742e-14 0.31324 -1.63469e-16 -1.80309e-16)
(5.52417e-15 3.16105e-29 3.16105e-30 20.613 -6.60717e-15 -6.9225e-17 0.31324 -1.02908e-15 -2.32562e-16)
(3.50802e-15 -1.2463e-29 -7.78937e-31 20.2214 9.14226e-15 -1.1661e-14 0.31172 -1.50441e-16 -1.80089e-16)
(5.61195e-15 1.2463e-29 1.55787e-30 20.2214 -5.3631e-15 -4.12993e-17 0.31172 -1.05884e-15 -2.35972e-16)
(-1.72887e-15 1.84265e-29 2.30332e-30 19.8326 9.49299e-15 -1.15728e-14 0.310134 -1.31979e-16 -1.82805e-16)
(5.69935e-15 -6.14218e-30 -7.67773e-31 19.8326 -4.56862e-15 -3.6043e-17 0.310134 -1.08112e-15 -2.39071e-16)
(0 3.02707e-29 4.54061e-30 19.4466 1.03131e-14 -1.15538e-14 0.308485 -1.65926e-16 -1.84754e-16)
(0 -3.02707e-29 -4.54061e-30 19.4466 -5.68066e-15 -4.4298e-17 0.308485 -1.10827e-15 -2.42253e-16)
(-2.93646e-15 2.23545e-29 1.04019e-30 19.0637 9.88449e-15 -1.14539e-14 0.306772 -1.62125e-16 -1.84912e-16)
(0 -1.19348e-29 0 19.0637 -6.85043e-15 -6.08428e-17 0.306772 -1.13835e-15 -2.45251e-16)
(0 -2.94092e-29 -4.41139e-30 18.684 1.10323e-14 -1.13198e-14 0.304998 -1.56852e-16 -1.85746e-16)
(5.95905e-15 2.94092e-29 4.41139e-30 18.684 -7.10566e-15 -7.22402e-17 0.304998 -1.17013e-15 -2.47964e-16)
(-1.63186e-15 1.73926e-29 1.44939e-30 18.3076 1.23222e-14 -1.12765e-14 0.303163 -2.04731e-16 -1.88878e-16)
(6.04472e-15 -1.15951e-29 -7.24693e-31 18.3076 -7.04409e-15 -6.21561e-17 0.303163 -1.2009e-15 -2.50174e-16)
(-1.53248e-15 5.1893e-30 1.24929e-30 17.9346 1.18562e-14 -1.12827e-14 0.30127 -2.04607e-16 -1.91397e-16)
(0 5.71445e-30 0 17.9346 -7.50062e-15 -7.63688e-17 0.30127 -1.22927e-15 -2.51925e-16)
(1.55366e-15 1.73459e-29 2.27607e-30 17.5652 1.11164e-14 -1.12598e-14 0.299319 -1.9491e-16 -1.93623e-16)
(-3.17084e-15 -1.68977e-29 -2.11221e-30 17.5652 -7.31039e-15 -6.37211e-17 0.299319 -1.27802e-15 -2.53096e-16)
(1.5627e-15 -1.11036e-29 -6.93978e-31 17.1994 1.05382e-14 -1.11228e-14 0.297313 -1.8512e-16 -1.92219e-16)
(-1.5627e-15 1.11036e-29 1.68055e-31 17.1994 -6.33851e-15 -6.84688e-17 0.297313 -1.31514e-15 -2.5372e-16)
(3.0806e-15 -1.64168e-29 -2.05209e-30 16.8373 1.0814e-14 -1.09469e-14 0.295252 -1.80416e-16 -1.93058e-16)
(-3.0806e-15 1.64168e-29 2.05209e-30 16.8373 -7.10093e-15 -1.25134e-16 0.295252 -1.34172e-15 -2.54351e-16)
(-1.9635e-16 -4.55466e-31 -1.58354e-30 16.4791 1.12103e-14 -1.08963e-14 0.293139 -2.00322e-16 -1.96029e-16)
(-1.51823e-15 1.61815e-29 3.37114e-30 16.4791 -7.70561e-15 -1.2418e-16 0.293139 -1.38325e-15 -2.54227e-16)
(-1.63704e-15 1.57936e-29 3.88461e-30 16.1248 1.11257e-14 -1.09424e-14 0.290974 -1.99953e-16 -2.00395e-16)
(0 -1.0633e-29 -3.32282e-30 16.1248 -7.84064e-15 -4.73974e-17 0.290974 -1.42307e-15 -2.5343e-16)
(1.65754e-15 8.51051e-32 7.42047e-31 15.7745 1.10455e-14 -1.08376e-14 0.288759 -2.03102e-16 -1.97891e-16)
(-8.10517e-15 0 -1.31008e-30 15.7745 -6.96499e-15 8.18345e-17 0.288759 -1.4693e-15 -2.51409e-16)
(2.90775e-15 -1.54956e-29 -3.22825e-30 15.4284 1.10399e-14 -1.05216e-14 0.286496 -2.02845e-16 -1.944e-16)
(-6.71156e-15 1.54956e-29 3.22825e-30 15.4284 -6.27204e-15 1.12781e-16 0.286496 -1.50441e-15 -2.48424e-16)
(-1.69809e-15 3.05999e-29 3.76158e-30 15.0864 1.23513e-14 -1.03644e-14 0.284187 -2.0884e-16 -1.97694e-16)
(1.07186e-14 -1.52735e-29 -3.40416e-32 15.0864 -6.59124e-15 0 0.284187 -1.54273e-15 -2.45296e-16)
(3.05637e-16 9.92404e-30 2.5517e-30 14.7486 1.29723e-14 -1.04392e-14 0.281832 -2.58756e-16 -2.0299e-16)
(8.28504e-15 -2.00728e-29 -3.76365e-30 14.7486 -7.44565e-15 -1.06965e-17 0.281832 -1.57561e-15 -2.42841e-16)
(0 0 0 14.4152 1.03307e-14 -1.0336e-14 0.279435 -2.38962e-16 -1.99436e-16)
(0 9.89256e-30 1.23657e-30 14.4152 -6.05507e-15 2.04194e-16 0.279435 -1.63681e-15 -2.37733e-16)
(-4.50235e-15 -2.89934e-29 -4.27783e-30 14.0862 8.82355e-15 -1.00196e-14 0.276995 -1.62732e-16 -1.96346e-16)
(7.03101e-15 3.41277e-29 4.87539e-30 14.0862 -4.22003e-15 3.16936e-16 0.276995 -1.65899e-15 -2.31549e-16)
(-1.77732e-15 1.95416e-29 1.80529e-30 13.7616 1.05347e-14 -9.69757e-15 0.274516 -1.85994e-16 -1.9228e-16)
(-7.10927e-15 -4.80551e-30 0 13.7616 -6.3334e-15 2.83603e-16 0.274516 -1.69081e-15 -2.24544e-16)
(1.79672e-15 -2.40571e-29 -2.38582e-30 13.4414 1.11001e-14 -9.44853e-15 0.271998 -2.36575e-16 -1.91897e-16)
(7.18686e-15 1.89465e-29 1.77624e-30 13.4414 -6.78645e-15 6.16188e-17 0.271998 -1.74051e-15 -2.18009e-16)
(-1.81594e-15 2.84509e-29 5.28412e-30 13.1258 1.09327e-14 -9.27076e-15 0.269443 -2.14598e-16 -1.90526e-16)
(7.26377e-15 -2.33437e-29 -4.66875e-30 13.1258 -6.49368e-15 1.27177e-16 0.269443 -1.77204e-15 -2.11665e-16)
(-1.835e-15 5.09742e-30 1.77196e-30 12.8148 1.22562e-14 -9.00246e-15 0.266853 -2.36552e-16 -1.86209e-16)
(0 0 -1.15046e-30 12.8148 -7.87397e-15 1.89212e-16 0.266853 -1.83032e-15 -2.03579e-16)
(-1.85388e-15 5.08469e-30 6.2669e-31 12.5083 1.3404e-14 -8.8037e-15 0.26423 -2.76676e-16 -1.87606e-16)
(0 9.07175e-30 1.13397e-30 12.5083 -8.45085e-15 1.3144e-16 0.26423 -1.88996e-15 -1.95635e-16)
(-1.87258e-15 -2.17516e-29 -1.6034e-30 12.2065 1.34704e-14 -8.72775e-15 0.261575 -2.92571e-16 -1.88368e-16)
(7.49033e-15 2.68252e-29 2.23543e-30 12.2065 -7.66236e-15 1.61099e-16 0.261575 -1.93675e-15 -1.87113e-16)
(4.37191e-15 -1.82861e-29 -3.94314e-30 11.9094 1.42986e-14 -8.53535e-15 0.25889 -2.8766e-16 -1.84632e-16)
(-2.4808e-15 1.32204e-29 3.30509e-30 11.9094 -7.10532e-15 2.82955e-16 0.25889 -1.99241e-15 -1.76932e-16)
(2.44524e-15 -1.30309e-29 -2.17181e-30 11.6169 1.1992e-14 -8.15507e-15 0.256176 -3.37603e-16 -1.76902e-16)
(-2.44524e-15 1.30309e-29 2.17181e-30 11.6169 -8.20794e-15 3.08534e-16 0.256176 -2.04925e-15 -1.65342e-16)
(4.82595e-16 -3.49541e-30 6.49534e-31 11.3292 9.46966e-15 -7.88657e-15 0.253436 -1.93069e-16 -1.77874e-16)
(-2.4102e-15 1.71255e-29 1.07034e-30 11.3292 -8.22025e-15 2.21577e-16 0.253436 -2.10846e-15 -1.53776e-16)
(2.37565e-15 -4.64201e-29 -8.44002e-30 11.0462 1.14199e-14 -7.60989e-15 0.25067 -2.33203e-16 -1.69365e-16)
(1.55646e-14 4.64201e-29 9.49502e-30 11.0462 -5.48228e-15 1.44649e-16 0.25067 -2.16001e-15 -1.41312e-16)
(0 0 0 10.7679 1.26731e-14 -7.27607e-15 0.247881 -2.88375e-16 -1.67516e-16)
(7.85341e-15 8.31905e-30 1.03988e-30 10.7679 -6.32427e-15 1.77592e-16 0.247881 -2.19431e-15 -1.28708e-16)
(-1.98094e-15 3.78304e-29 7.84122e-30 10.4943 1.24384e-14 -7.11576e-15 0.24507 -2.98482e-16 -1.66741e-16)
(-7.92377e-15 -3.27993e-29 -6.14986e-30 10.4943 -1.03512e-14 2.73142e-16 0.24507 -2.26517e-15 -1.14356e-16)
(2.76621e-16 2.11896e-29 3.70456e-30 10.2255 1.14929e-14 -6.65706e-15 0.242239 -2.85721e-16 -1.50403e-16)
(-7.99337e-15 -1.61646e-29 -5.72557e-30 10.2255 -7.31724e-15 1.24171e-16 0.242239 -2.35475e-15 -9.87387e-17)
(0 1.59329e-29 2.98742e-30 9.96149 1.1489e-14 -5.98369e-15 0.239389 -2.61835e-16 -1.38831e-16)
(0 -7.96645e-30 -1.99161e-30 9.96149 -5.00317e-15 6.31338e-19 0.239389 -2.36062e-15 -8.46982e-17)
(0 1.57045e-29 1.96307e-30 9.70217 1.37605e-14 -5.51911e-15 0.236521 -2.93903e-16 -1.31853e-16)
(5.92e-15 -7.85227e-30 -9.81534e-31 9.70217 -9.4127e-15 7.40157e-17 0.236521 -2.40331e-15 -7.08492e-17)
(-1.29173e-16 3.37191e-29 5.1166e-30 9.44758 1.57928e-14 -5.3854e-15 0.233639 -3.81738e-16 -1.36195e-16)
(0 -3.09589e-29 -4.83733e-30 9.44758 -1.13529e-14 1.15262e-16 0.233639 -2.48747e-15 -5.51432e-17)
(4.29463e-15 -5.34016e-29 -8.5824e-30 9.19771 1.4659e-14 -5.13662e-15 0.230742 -4.0439e-16 -1.23063e-16)
(1.22332e-14 5.34016e-29 8.5824e-30 9.19771 -9.72078e-15 1.24281e-16 0.230742 -2.58072e-15 -3.90596e-17)
(2.11654e-15 -7.51946e-30 -9.39932e-31 8.95254 1.22134e-14 -4.63171e-15 0.227833 -3.35257e-16 -1.14133e-16)
(1.66592e-14 1.50389e-29 9.39932e-31 8.95254 -9.25905e-15 1.50085e-16 0.227833 -2.6456e-15 -2.12263e-17)
(-4.19722e-15 9.90224e-30 1.4078e-30 8.71207 1.12175e-14 -4.14132e-15 0.224913 -2.90049e-16 -1.00997e-16)
(0 0 0 8.71207 -9.27866e-15 4.14224e-17 0.224913 -2.72118e-15 -2.74306e-18)
(-2.11462e-15 4.9398e-30 7.07692e-31 8.47627 1.23557e-14 -3.69359e-15 0.221984 -2.92944e-16 -9.36977e-17)
(1.6917e-14 7.30546e-30 1.84096e-30 8.47627 -8.2153e-15 5.61889e-17 0.221984 -2.80069e-15 2.43814e-18)
(4.15726e-15 -1.93196e-29 -4.31286e-30 8.24511 1.33483e-14 -3.18492e-15 0.219047 -3.58996e-16 -7.65475e-17)
(-2.02683e-15 1.44015e-29 3.60038e-30 8.24511 -9.46759e-15 6.22114e-17 0.219047 -2.86185e-15 2.08009e-18)
(-2.14604e-15 4.90662e-30 -1.70404e-31 8.01858 1.38058e-14 -2.50061e-15 0.216103 -3.55006e-16 -5.90347e-17)
(0 7.09755e-30 1.77439e-30 8.01858 -1.02654e-14 7.99456e-18 0.216103 -2.94834e-15 5.47681e-17)
(-2.16145e-15 1.18846e-29 3.34259e-30 7.79663 1.60187e-14 -2.00091e-15 0.213154 -3.94521e-16 -5.10769e-17)
(8.64578e-15 -6.99582e-30 -2.62343e-30 7.79663 -9.62655e-15 7.67807e-17 0.213154 -3.03277e-15 7.44356e-17)
(-4.11757e-15 1.17547e-29 1.58372e-30 7.57925 1.75408e-14 -1.62343e-15 0.210202 -4.88136e-16 -3.95245e-17)
(8.70658e-15 0 0 7.57925 -1.01724e-14 1.76969e-16 0.210202 -3.10544e-15 9.69349e-17)
(-4.38328e-15 9.68269e-30 5.97862e-31 7.36639 1.5402e-14 -1.22304e-15 0.207247 -4.91722e-16 -2.97173e-17)
(0 0 8.4959e-31 7.36639 -1.01143e-14 1.88196e-16 0.207247 -3.21238e-15 1.20844e-16)
(-2.20643e-15 1.82414e-29 3.2385e-30 7.15803 1.22357e-14 -7.33052e-16 0.204292 -3.80344e-16 -1.23049e-17)
(-1.88569e-15 -6.69931e-30 -1.67483e-30 7.15803 -8.83276e-15 1.25671e-16 0.204292 -3.32057e-15 1.46192e-16)
(3.71732e-15 -6.60329e-30 -7.27358e-31 6.95412 1.17043e-14 0 0.201337 -3.22747e-16 0)
(-1.26014e-14 1.32066e-29 1.65082e-30 6.95412 -7.72746e-15 2.67636e-17 0.201337 -3.40675e-15 1.71011e-16)
(2.2354e-15 -1.78388e-29 -3.16415e-30 6.75462 1.18853e-14 8.02305e-16 0.198384 -3.60267e-16 -1.62939e-17)
(8.94159e-15 1.30173e-29 2.44074e-30 6.75462 -8.57455e-15 8.59564e-17 0.198384 -3.47546e-15 1.95354e-16)
(2.24957e-15 -2.40593e-29 -3.92682e-30 6.55949 1.19307e-14 1.61169e-15 0.195434 -3.42987e-16 -3.12953e-17)
(-8.99829e-15 1.92461e-29 3.20768e-30 6.55949 -8.48247e-15 1.43498e-16 0.195434 -3.57548e-15 2.22621e-16)
(-2.26354e-15 1.11215e-29 3.08224e-30 6.36869 1.21744e-14 2.4903e-15 0.192489 -3.73569e-16 -6.5721e-17)
(5.49441e-15 0 -7.90426e-31 6.36869 -5.48449e-15 -1.18013e-18 0.192489 -3.648e-15 2.5038e-16)
(0 1.86983e-29 1.5582e-30 6.18217 1.2239e-14 3.24243e-15 0.189549 -3.67982e-16 -8.6121e-17)
(0 -6.23278e-30 -7.79098e-31 6.18217 -6.51962e-15 -5.43142e-17 0.189549 -3.67576e-15 2.75741e-16)
(-3.45845e-15 2.45738e-29 1.53586e-30 5.99988 1.39512e-14 3.96568e-15 0.186615 -3.88534e-16 -1.14466e-16)
(9.16347e-15 -1.22869e-29 0 5.99988 -9.3444e-15 4.58201e-17 0.186615 -3.74408e-15 3.02478e-16)
(2.30422e-15 -1.68617e-29 -3.71469e-30 5.82178 1.59501e-14 4.82198e-15 0.183689 -4.869e-16 -1.3432e-16)
(0 1.21108e-29 3.0277e-30 5.82178 -1.04001e-14 7.62205e-17 0.183689 -3.8149e-15 3.31816e-16)
(0 1.19372e-29 7.46076e-31 5.64781 1.66419e-14 5.90357e-15 0.180773 -5.2799e-16 -1.72685e-16)
(-9.26949e-15 -5.96861e-30 0 5.64781 -1.1614e-14 -2.55269e-18 0.180773 -3.91601e-15 3.62534e-16)
(-3.31187e-15 5.88306e-30 7.35383e-31 5.47791 1.70809e-14 6.65293e-15 0.177866 -5.4613e-16 -2.08563e-16)
(0 5.88306e-30 7.35383e-31 5.47791 -1.20337e-14 5.66873e-18 0.177866 -4.03265e-15 3.92072e-16)
(0 1.15975e-29 7.24843e-31 5.31205 1.67911e-14 7.40091e-15 0.17497 -5.72409e-16 -2.27164e-16)
(0 -5.79874e-30 0 5.31205 -1.22217e-14 3.07165e-17 0.17497 -4.14594e-15 4.24233e-16)
(2.35561e-15 1.81908e-29 4.36344e-30 5.15015 1.66858e-14 8.3486e-15 0.172086 -5.42736e-16 -2.64719e-16)
(0 -2.28625e-29 -5.00118e-30 5.15015 -1.33595e-14 1.41729e-18 0.172086 -4.25355e-15 4.55611e-16)
(2.36794e-15 1.22558e-29 2.19418e-30 4.99217 1.58969e-14 9.29612e-15 0.169216 -5.82029e-16 -2.98148e-16)
(0 -5.63371e-30 -2.11264e-30 4.99217 -1.32356e-14 7.07261e-17 0.169216 -4.40166e-15 4.8651e-16)
(-4.76017e-15 9.28057e-30 1.21104e-30 4.83805 1.28621e-14 5.52604e-15 0.166359 -5.04305e-16 -3.37728e-16)
(9.52033e-15 0 0 4.83805 -1.06955e-14 1.02803e-16 0.166359 -4.53802e-15 5.18744e-16)
(-2.39202e-15 4.64225e-30 6.27458e-31 4.68773 1.28364e-14 -1.78205e-15 0.163517 -3.87036e-16 -1.7042e-16)
(0 5.47338e-30 6.84172e-31 4.68773 -9.89043e-15 2.02352e-17 0.163517 -4.64322e-15 5.51583e-16)
(0 5.39493e-30 0 4.54115 1.5121e-14 -4.78042e-15 0.160691 -5.17256e-16 -1.70894e-16)
(0 -5.39493e-30 0 4.54115 -1.05371e-14 -2.96239e-18 0.160691 -4.786e-15 5.82006e-16)
(-2.99355e-15 1.59528e-29 1.3294e-30 4.39826 1.60459e-14 -4.61442e-15 0.157881 -5.62674e-16 -1.63301e-16)
(0 -5.31761e-30 0 4.39826 -1.14833e-14 -4.39661e-18 0.157881 -4.90885e-15 6.12631e-16)
(-2.95064e-15 2.09656e-29 3.27587e-30 4.25898 1.74066e-14 -4.46686e-15 0.155088 -5.99896e-16 -1.64977e-16)
(-2.95064e-15 -5.24139e-30 -1.96552e-30 4.25898 -1.22947e-14 -4.96672e-17 0.155088 -5.05492e-15 6.41317e-16)
(0 1.54988e-29 1.93735e-30 4.12327 1.74595e-14 -4.43744e-15 0.152314 -6.79878e-16 -1.65875e-16)
(1.6594e-14 -5.16627e-30 -1.29157e-30 4.12327 -1.22123e-14 3.42591e-18 0.152314 -5.21841e-15 6.69673e-16)
(-4.89748e-15 9.02258e-30 1.31548e-30 3.99106 1.5879e-14 -4.42541e-15 0.149558 -6.2144e-16 -1.68893e-16)
(9.79496e-15 0 0 3.99106 -1.34726e-14 6.29978e-17 0.149558 -5.3679e-15 6.97854e-16)
(5.28508e-15 -1.95572e-29 -4.42842e-30 3.86228 1.5502e-14 -4.34374e-15 0.146821 -5.79375e-16 -1.64421e-16)
(0 1.50577e-29 3.76443e-30 3.86228 -1.61955e-14 4.67147e-17 0.146821 -5.54238e-15 7.24255e-16)
(0 4.9473e-30 2.47365e-30 3.73688 1.47829e-14 -4.27329e-15 0.144104 -6.10506e-16 -1.68316e-16)
(-1.26653e-14 0 -1.23683e-30 3.73688 -1.5486e-14 5.78118e-17 0.144104 -5.72166e-15 7.49806e-16)
(-2.48044e-15 -1.99033e-29 -5.42036e-30 3.61479 1.33731e-14 -4.19832e-15 0.141408 -5.39952e-16 -1.63273e-16)
(7.17658e-15 2.92584e-29 7.31459e-30 3.61479 -1.12301e-14 4.73331e-17 0.141408 -5.83094e-15 7.76822e-16)
(0 1.44195e-29 1.20163e-30 3.49596 1.34439e-14 -4.02582e-15 0.138733 -5.16218e-16 -1.59322e-16)
(0 -4.8065e-30 0 3.49596 -1.09739e-14 -7.00855e-18 0.138733 -5.90042e-15 8.02296e-16)
(0 -9.47523e-30 -2.36881e-30 3.38031 1.4087e-14 -3.72597e-15 0.13608 -5.6148e-16 -1.435e-16)
(0 1.42128e-29 2.36881e-30 3.38031 -1.36304e-14 -7.85202e-17 0.13608 -6.01258e-15 8.25924e-16)
(-2.51042e-15 4.42678e-30 6.93072e-31 3.26778 1.4266e-14 -3.46024e-15 0.133448 -5.84007e-16 -1.41911e-16)
(0 0 0 3.26778 -1.33761e-14 -8.51976e-17 0.133448 -6.17784e-15 8.46008e-16)
(1.42185e-16 -1.88046e-29 -6.65864e-30 3.15832 1.49514e-14 -3.30096e-15 0.130839 -5.92805e-16 -1.34277e-16)
(2.01603e-14 2.30139e-29 8.05487e-30 3.15832 -1.17368e-14 6.83998e-18 0.130839 -6.31112e-15 8.64754e-16)
(0 1.81472e-29 2.26841e-30 3.05186 1.78728e-14 -3.04241e-15 0.128252 -6.58886e-16 -1.23956e-16)
(-2.554e-15 -9.07362e-30 -1.1342e-30 3.05186 -1.30802e-14 -6.99313e-17 0.128252 -6.41477e-15 8.84132e-16)
(0 2.23589e-29 3.35384e-30 2.94833 2.02511e-14 -2.87422e-15 0.125689 -8.60009e-16 -1.23618e-16)
(-2.51739e-15 -8.94358e-30 -2.23589e-30 2.94833 -1.46637e-14 -1.58818e-16 0.125689 -6.58551e-15 8.98297e-16)
(-7.64343e-15 -1.35702e-29 -4.48763e-30 2.84767 1.84895e-14 -2.99108e-15 0.123149 -8.84538e-16 -1.37874e-16)
(2.03825e-14 3.08539e-29 7.71347e-30 2.84767 -1.19196e-14 3.10658e-17 0.123149 -6.73787e-15 9.11485e-16)
(0 -3.47562e-29 -7.60291e-30 2.74983 1.52971e-14 -2.96181e-15 0.120633 -7.30136e-16 -1.24624e-16)
(2.04536e-14 3.47562e-29 7.60291e-30 2.74983 -1.12535e-14 3.73998e-17 0.120633 -6.82077e-15 9.29076e-16)
(-2.56542e-15 1.71381e-29 2.85849e-30 2.65473 1.46406e-14 -2.72269e-15 0.118141 -6.25349e-16 -1.20248e-16)