/*--------------------------------*- C++ -*----------------------------------*\
| =========                 |                                                 |
| \\      /  F ield         | OpenFOAM: The Open Source CFD Toolbox           |
|  \\    /   O peration     | Version:  2106                                  |
|   \\  /    A nd           | Website:  www.openfoam.com                      |
|    \\/     M anipulation  |                                                 |
\*---------------------------------------------------------------------------*/
FoamFile
{
    version     2.0;
    format      ascii;
    arch        "LSB;label=32;scalar=64";
    class       volScalarField;
    location    "2000";
    object      nut;
}
// * * * * * * * * * * * * * * * * * * * * * * * * * * * * * * * * * * * * * //

dimensions      [0 2 -1 0 0 0 0];

internalField   nonuniform List<scalar> 
2560
(
1.30473e-13
1.30473e-13
1.10149e-13
1.10149e-13
9.72627e-14
9.72627e-14
8.9945e-14
8.9945e-14
8.99205e-14
8.99205e-14
1.04265e-13
1.04265e-13
1.47818e-13
1.47818e-13
2.46521e-13
2.46521e-13
4.41707e-13
4.41707e-13
7.95382e-13
7.95382e-13
1.39662e-12
1.39662e-12
2.36917e-12
2.36917e-12
3.88044e-12
3.88044e-12
6.15208e-12
6.15208e-12
9.47213e-12
9.47213e-12
1.42093e-11
1.42093e-11
2.08289e-11
2.08289e-11
2.9912e-11
2.9912e-11
4.21755e-11
4.21755e-11
5.84967e-11
5.84967e-11
7.99391e-11
7.99391e-11
1.07783e-10
1.07783e-10
1.43555e-10
1.43555e-10
1.8907e-10
1.8907e-10
2.46464e-10
2.46464e-10
3.18241e-10
3.18241e-10
4.07315e-10
4.07315e-10
5.17064e-10
5.17064e-10
6.51376e-10
6.51376e-10
8.14709e-10
8.14709e-10
1.01214e-09
1.01214e-09
1.24944e-09
1.24944e-09
1.53312e-09
1.53312e-09
1.87047e-09
1.87047e-09
2.26967e-09
2.26967e-09
2.73981e-09
2.73981e-09
3.29096e-09
3.29096e-09
3.93422e-09
3.93422e-09
4.68176e-09
4.68176e-09
5.54689e-09
5.54689e-09
6.54406e-09
6.54406e-09
7.68894e-09
7.68894e-09
8.99839e-09
8.99839e-09
1.04905e-08
1.04905e-08
1.21847e-08
1.21847e-08
1.41014e-08
1.41014e-08
1.62626e-08
1.62626e-08
1.86912e-08
1.86912e-08
2.14113e-08
2.14113e-08
2.44483e-08
2.44483e-08
2.78285e-08
2.78285e-08
3.15794e-08
3.15794e-08
3.57293e-08
3.57293e-08
4.03075e-08
4.03075e-08
4.53441e-08
4.53441e-08
5.08699e-08
5.08699e-08
5.69164e-08
5.69164e-08
6.35157e-08
6.35157e-08
7.07004e-08
7.07004e-08
7.85035e-08
7.85035e-08
8.69586e-08
8.69586e-08
9.60992e-08
9.60992e-08
1.05959e-07
1.05959e-07
1.16573e-07
1.16573e-07
1.27974e-07
1.27974e-07
1.40198e-07
1.40198e-07
1.53277e-07
1.53277e-07
1.67247e-07
1.67247e-07
1.82142e-07
1.82142e-07
1.97995e-07
1.97995e-07
2.1484e-07
2.1484e-07
2.32711e-07
2.32711e-07
2.51642e-07
2.51642e-07
2.71666e-07
2.71666e-07
2.92816e-07
2.92816e-07
3.15125e-07
3.15125e-07
3.38626e-07
3.38626e-07
3.63351e-07
3.63351e-07
3.89334e-07
3.89334e-07
4.16606e-07
4.16606e-07
4.452e-07
4.452e-07
4.75148e-07
4.75148e-07
5.06482e-07
5.06482e-07
5.39234e-07
5.39234e-07
5.73437e-07
5.73437e-07
6.09122e-07
6.09122e-07
6.46322e-07
6.46322e-07
6.8507e-07
6.8507e-07
7.25398e-07
7.25398e-07
7.67339e-07
7.67339e-07
8.10927e-07
8.10927e-07
8.56194e-07
8.56194e-07
9.03176e-07
9.03176e-07
9.51907e-07
9.51907e-07
1.00242e-06
1.00242e-06
1.05476e-06
1.05476e-06
1.10895e-06
1.10895e-06
1.16504e-06
1.16504e-06
1.22306e-06
1.22306e-06
1.28306e-06
1.28306e-06
1.34507e-06
1.34507e-06
1.40914e-06
1.40914e-06
1.47532e-06
1.47532e-06
1.54364e-06
1.54364e-06
1.61416e-06
1.61416e-06
1.68693e-06
1.68693e-06
1.762e-06
1.762e-06
1.83942e-06
1.83942e-06
1.91925e-06
1.91925e-06
2.00156e-06
2.00156e-06
2.08641e-06
2.08641e-06
2.17386e-06
2.17386e-06
2.26399e-06
2.26399e-06
2.35686e-06
2.35686e-06
2.45257e-06
2.45257e-06
2.55119e-06
2.55119e-06
2.65282e-06
2.65282e-06
2.75755e-06
2.75755e-06
2.86547e-06
2.86547e-06
2.9767e-06
2.9767e-06
3.09136e-06
3.09136e-06
3.20956e-06
3.20956e-06
3.33143e-06
3.33143e-06
3.45711e-06
3.45711e-06
3.58674e-06
3.58674e-06
3.72049e-06
3.72049e-06
3.85852e-06
3.85852e-06
4.001e-06
4.001e-06
4.14814e-06
4.14814e-06
4.30012e-06
4.30012e-06
4.45717e-06
4.45717e-06
4.61952e-06
4.61952e-06
4.78741e-06
4.78741e-06
4.96111e-06
4.96111e-06
5.14091e-06
5.14091e-06
5.3271e-06
5.3271e-06
5.52e-06
5.52e-06
5.71996e-06
5.71996e-06
5.92735e-06
5.92735e-06
6.14257e-06
6.14257e-06
6.36604e-06
6.36604e-06
6.59822e-06
6.59822e-06
6.83958e-06
6.83958e-06
7.09065e-06
7.09065e-06
7.35199e-06
7.35199e-06
7.62421e-06
7.62421e-06
7.90794e-06
7.90794e-06
8.20389e-06
8.20389e-06
8.51279e-06
8.51279e-06
8.83545e-06
8.83545e-06
9.17274e-06
9.17274e-06
9.52558e-06
9.52558e-06
9.89499e-06
9.89499e-06
1.0282e-05
1.0282e-05
1.06879e-05
1.06879e-05
1.11139e-05
1.11139e-05
1.15613e-05
1.15613e-05
1.20317e-05
1.20317e-05
1.25267e-05
1.25267e-05
1.3048e-05
1.3048e-05
1.35976e-05
1.35976e-05
1.41775e-05
1.41775e-05
1.479e-05
1.479e-05
1.54376e-05
1.54376e-05
1.61229e-05
1.61229e-05
1.68491e-05
1.68491e-05
1.76192e-05
1.76192e-05
1.84369e-05
1.84369e-05
1.93061e-05
1.93061e-05
2.02312e-05
2.02312e-05
2.12168e-05
2.12168e-05
2.22682e-05
2.22682e-05
2.33913e-05
2.33913e-05
2.45925e-05
2.45925e-05
2.58788e-05
2.58788e-05
2.72582e-05
2.72582e-05
2.87394e-05
2.87394e-05
3.03321e-05
3.03321e-05
3.20473e-05
3.20472e-05
3.38969e-05
3.38968e-05
3.58944e-05
3.58943e-05
3.80548e-05
3.80548e-05
4.03948e-05
4.03948e-05
4.29332e-05
4.29331e-05
4.56907e-05
4.56907e-05
4.86906e-05
4.86906e-05
5.19589e-05
5.19589e-05
5.55245e-05
5.55245e-05
5.94197e-05
5.94196e-05
6.36802e-05
6.36802e-05
6.8346e-05
6.8346e-05
7.34612e-05
7.34612e-05
7.90747e-05
7.90746e-05
8.52402e-05
8.52402e-05
9.2017e-05
9.2017e-05
9.94699e-05
9.94699e-05
0.00010767
0.00010767
0.000116693
0.000116693
0.000126623
0.000126623
0.000137548
0.000137548
0.000149563
0.000149563
0.00016277
0.00016277
0.000177274
0.000177274
0.000193186
0.000193186
0.000210621
0.000210621
0.000229698
0.000229697
0.000250537
0.000250537
0.000273261
0.000273261
0.000297993
0.000297993
0.000324855
0.000324855
0.000353969
0.000353968
0.000385451
0.000385451
0.000419416
0.000419416
0.000455974
0.000455974
0.000495228
0.000495228
0.000537275
0.000537274
0.000582203
0.000582203
0.000630095
0.000630095
0.000681022
0.000681022
0.000735047
0.000735046
0.000792221
0.00079222
0.000852586
0.000852586
0.000916172
0.000916172
0.000982999
0.000982999
0.00105307
0.00105307
0.00112639
0.00112639
0.00120293
0.00120293
0.00128266
0.00128266
0.00136555
0.00136555
0.00145154
0.00145154
0.00154057
0.00154057
0.00163255
0.00163255
0.0017274
0.0017274
0.00182502
0.00182502
0.00192531
0.00192531
0.00202813
0.00202813
0.00213337
0.00213336
0.00224088
0.00224088
0.00235052
0.00235052
0.00246214
0.00246214
0.00257559
0.00257559
0.00269069
0.00269069
0.00280729
0.00280729
0.0029252
0.0029252
0.00304426
0.00304426
0.0031643
0.0031643
0.00328512
0.00328512
0.00340657
0.00340657
0.00352845
0.00352845
0.0036506
0.0036506
0.00377283
0.00377283
0.00389499
0.00389499
0.00401689
0.00401689
0.00413838
0.00413838
0.00425929
0.00425929
0.00437947
0.00437947
0.00449876
0.00449876
0.00461703
0.00461703
0.00473412
0.00473412
0.0048499
0.0048499
0.00496424
0.00496424
0.00507702
0.00507702
0.00518812
0.00518812
0.00529742
0.00529742
0.00540483
0.00540482
0.00551023
0.00551023
0.00561354
0.00561354
0.00571466
0.00571466
0.00581351
0.00581351
0.00591002
0.00591002
0.00600411
0.00600411
0.00609571
0.00609571
0.00618476
0.00618476
0.0062712
0.0062712
0.00635497
0.00635497
0.00643604
0.00643604
0.00651434
0.00651434
0.00658985
0.00658985
0.00666252
0.00666252
0.00673232
0.00673232
0.00679922
0.00679922
0.00686319
0.00686319
0.00692421
0.00692421
0.00698227
0.00698227
0.00703735
0.00703735
0.00708943
0.00708943
0.00713851
0.00713851
0.00718458
0.00718458
0.00722765
0.00722765
0.00726773
0.00726772
0.00730481
0.00730481
0.00733892
0.00733892
0.00737008
0.00737008
0.00739831
0.00739831
0.00742365
0.00742365
0.00744615
0.00744615
0.00746585
0.00746585
0.00748282
0.00748282
0.00749712
0.00749712
0.00750883
0.00750883
0.00751805
0.00751805
0.00752489
0.00752489
0.00752946
0.00752946
0.0075319
0.0075319
0.00753236
0.00753236
0.00753102
0.00753102
0.00752805
0.00752805
0.00752367
0.00752367
0.00751808
0.00751808
0.00751153
0.00751153
0.00750427
0.00750427
0.00749657
0.00749656
0.00748869
0.00748869
0.00748093
0.00748093
0.00747356
0.00747356
0.00746686
0.00746686
0.00746109
0.00746109
0.0074565
0.0074565
0.00745329
0.00745329
0.00745163
0.00745162
1.30473e-13
1.30473e-13
1.10149e-13
1.10149e-13
9.72627e-14
9.72627e-14
8.9945e-14
8.9945e-14
8.99205e-14
8.99205e-14
1.04265e-13
1.04265e-13
1.47818e-13
1.47818e-13
2.46521e-13
2.46521e-13
4.41707e-13
4.41707e-13
7.95382e-13
7.95382e-13
1.39662e-12
1.39662e-12
2.36917e-12
2.36917e-12
3.88044e-12
3.88044e-12
6.15208e-12
6.15208e-12
9.47213e-12
9.47213e-12
1.42093e-11
1.42093e-11
2.08289e-11
2.08289e-11
2.9912e-11
2.9912e-11
4.21755e-11
4.21755e-11
5.84967e-11
5.84967e-11
7.99391e-11
7.99391e-11
1.07783e-10
1.07783e-10
1.43555e-10
1.43555e-10
1.8907e-10
1.8907e-10
2.46464e-10
2.46464e-10
3.18241e-10
3.18241e-10
4.07315e-10
4.07315e-10
5.17064e-10
5.17064e-10
6.51376e-10
6.51376e-10
8.14709e-10
8.14709e-10
1.01214e-09
1.01214e-09
1.24944e-09
1.24944e-09
1.53312e-09
1.53312e-09
1.87047e-09
1.87047e-09
2.26967e-09
2.26967e-09
2.73981e-09
2.73981e-09
3.29096e-09
3.29096e-09
3.93422e-09
3.93422e-09
4.68176e-09
4.68176e-09
5.54689e-09
5.54689e-09
6.54406e-09
6.54406e-09
7.68894e-09
7.68894e-09
8.99839e-09
8.99839e-09
1.04905e-08
1.04905e-08
1.21847e-08
1.21847e-08
1.41014e-08
1.41014e-08
1.62626e-08
1.62626e-08
1.86912e-08
1.86912e-08
2.14113e-08
2.14113e-08
2.44483e-08
2.44483e-08
2.78285e-08
2.78285e-08
3.15794e-08
3.15794e-08
3.57293e-08
3.57293e-08
4.03075e-08
4.03075e-08
4.53441e-08
4.53441e-08
5.08699e-08
5.08699e-08
5.69164e-08
5.69164e-08
6.35157e-08
6.35157e-08
7.07004e-08
7.07004e-08
7.85035e-08
7.85035e-08
8.69586e-08
8.69586e-08
9.60992e-08
9.60992e-08
1.05959e-07
1.05959e-07
1.16573e-07
1.16573e-07
1.27974e-07
1.27974e-07
1.40198e-07
1.40198e-07
1.53277e-07
1.53277e-07
1.67247e-07
1.67247e-07
1.82142e-07
1.82142e-07
1.97995e-07
1.97995e-07
2.1484e-07
2.1484e-07
2.32711e-07
2.32711e-07
2.51642e-07
2.51642e-07
2.71666e-07
2.71666e-07
2.92816e-07
2.92816e-07
3.15125e-07
3.15125e-07
3.38626e-07
3.38626e-07
3.63351e-07
3.63351e-07
3.89334e-07
3.89334e-07
4.16606e-07
4.16606e-07
4.452e-07
4.452e-07
4.75148e-07
4.75148e-07
5.06482e-07
5.06482e-07
5.39234e-07
5.39234e-07
5.73437e-07
5.73437e-07
6.09122e-07
6.09122e-07
6.46322e-07
6.46322e-07
6.8507e-07
6.8507e-07
7.25398e-07
7.25398e-07
7.67339e-07
7.67339e-07
8.10927e-07
8.10927e-07
8.56194e-07
8.56194e-07
9.03176e-07
9.03176e-07
9.51907e-07
9.51907e-07
1.00242e-06
1.00242e-06
1.05476e-06
1.05476e-06
1.10895e-06
1.10895e-06
1.16504e-06
1.16504e-06
1.22306e-06
1.22306e-06
1.28306e-06
1.28306e-06
1.34507e-06
1.34507e-06
1.40914e-06
1.40914e-06
1.47532e-06
1.47532e-06
1.54364e-06
1.54364e-06
1.61416e-06
1.61416e-06
1.68693e-06
1.68693e-06
1.762e-06
1.762e-06
1.83942e-06
1.83942e-06
1.91925e-06
1.91925e-06
2.00156e-06
2.00156e-06
2.08641e-06
2.08641e-06
2.17386e-06
2.17386e-06
2.26399e-06
2.26399e-06
2.35686e-06
2.35686e-06
2.45257e-06
2.45257e-06
2.55119e-06
2.55119e-06
2.65282e-06
2.65282e-06
2.75755e-06
2.75755e-06
2.86547e-06
2.86547e-06
2.9767e-06
2.9767e-06
3.09136e-06
3.09136e-06
3.20956e-06
3.20956e-06
3.33143e-06
3.33143e-06
3.45711e-06
3.45711e-06
3.58674e-06
3.58674e-06
3.72049e-06
3.72049e-06
3.85852e-06
3.85852e-06
4.001e-06
4.001e-06
4.14814e-06
4.14814e-06
4.30012e-06
4.30012e-06
4.45717e-06
4.45717e-06
4.61952e-06
4.61952e-06
4.78741e-06
4.78741e-06
4.96111e-06
4.96111e-06
5.14091e-06
5.14091e-06
5.3271e-06
5.3271e-06
5.52e-06
5.52e-06
5.71996e-06
5.71996e-06
5.92735e-06
5.92735e-06
6.14257e-06
6.14257e-06
6.36604e-06
6.36604e-06
6.59821e-06
6.59821e-06
6.83958e-06
6.83958e-06
7.09065e-06
7.09065e-06
7.35199e-06
7.35199e-06
7.62421e-06
7.62421e-06
7.90794e-06
7.90794e-06
8.20389e-06
8.20389e-06
8.51279e-06
8.51279e-06
8.83545e-06
8.83545e-06
9.17274e-06
9.17274e-06
9.52558e-06
9.52558e-06
9.89499e-06
9.89499e-06
1.0282e-05
1.0282e-05
1.06879e-05
1.06879e-05
1.11139e-05
1.11139e-05
1.15613e-05
1.15613e-05
1.20317e-05
1.20317e-05
1.25267e-05
1.25267e-05
1.3048e-05
1.3048e-05
1.35976e-05
1.35976e-05
1.41775e-05
1.41775e-05
1.479e-05
1.479e-05
1.54376e-05
1.54376e-05
1.61229e-05
1.61229e-05
1.68491e-05
1.68491e-05
1.76192e-05
1.76192e-05
1.84369e-05
1.84369e-05
1.93061e-05
1.93061e-05
2.02312e-05
2.02312e-05
2.12168e-05
2.12168e-05
2.22682e-05
2.22682e-05
2.33913e-05
2.33913e-05
2.45925e-05
2.45925e-05
2.58788e-05
2.58788e-05
2.72582e-05
2.72582e-05
2.87394e-05
2.87394e-05
3.03321e-05
3.03321e-05
3.20472e-05
3.20472e-05
3.38968e-05
3.38968e-05
3.58943e-05
3.58943e-05
3.80548e-05
3.80547e-05
4.03948e-05
4.03948e-05
4.29331e-05
4.29331e-05
4.56906e-05
4.56906e-05
4.86906e-05
4.86906e-05
5.19589e-05
5.19589e-05
5.55245e-05
5.55245e-05
5.94196e-05
5.94196e-05
6.36802e-05
6.36802e-05
6.8346e-05
6.8346e-05
7.34612e-05
7.34612e-05
7.90746e-05
7.90746e-05
8.52402e-05
8.52401e-05
9.2017e-05
9.20169e-05
9.94699e-05
9.94698e-05
0.00010767
0.00010767
0.000116693
0.000116693
0.000126623
0.000126623
0.000137548
0.000137548
0.000149563
0.000149563
0.00016277
0.00016277
0.000177274
0.000177274
0.000193186
0.000193186
0.000210621
0.000210621
0.000229697
0.000229697
0.000250537
0.000250536
0.000273261
0.000273261
0.000297993
0.000297993
0.000324855
0.000324855
0.000353968
0.000353968
0.000385451
0.000385451
0.000419416
0.000419416
0.000455974
0.000455974
0.000495228
0.000495228
0.000537274
0.000537274
0.000582203
0.000582203
0.000630095
0.000630095
0.000681022
0.000681022
0.000735046
0.000735046
0.00079222
0.00079222
0.000852585
0.000852585
0.000916172
0.000916172
0.000982999
0.000982998
0.00105307
0.00105307
0.00112639
0.00112639
0.00120293
0.00120293
0.00128266
0.00128266
0.00136555
0.00136555
0.00145154
0.00145154
0.00154057
0.00154057
0.00163255
0.00163255
0.0017274
0.0017274
0.00182502
0.00182502
0.00192531
0.00192531
0.00202813
0.00202813
0.00213336
0.00213336
0.00224088
0.00224088
0.00235052
0.00235052
0.00246214
0.00246214
0.00257559
0.00257559
0.00269069
0.00269069
0.00280728
0.00280728
0.0029252
0.0029252
0.00304426
0.00304426
0.0031643
0.0031643
0.00328512
0.00328512
0.00340657
0.00340657
0.00352845
0.00352845
0.0036506
0.0036506
0.00377283
0.00377283
0.00389499
0.00389499
0.00401689
0.00401689
0.00413838
0.00413838
0.00425929
0.00425929
0.00437947
0.00437947
0.00449876
0.00449876
0.00461703
0.00461703
0.00473412
0.00473412
0.0048499
0.0048499
0.00496424
0.00496424
0.00507702
0.00507702
0.00518812
0.00518812
0.00529742
0.00529742
0.00540482
0.00540482
0.00551023
0.00551023
0.00561354
0.00561354
0.00571466
0.00571466
0.00581351
0.00581351
0.00591002
0.00591002
0.00600411
0.00600411
0.00609571
0.00609571
0.00618476
0.00618476
0.0062712
0.0062712
0.00635497
0.00635497
0.00643604
0.00643604
0.00651434
0.00651434
0.00658985
0.00658985
0.00666252
0.00666252
0.00673232
0.00673232
0.00679922
0.00679922
0.00686319
0.00686319
0.00692421
0.00692421
0.00698227
0.00698227
0.00703735
0.00703735
0.00708943
0.00708943
0.00713851
0.00713851
0.00718458
0.00718458
0.00722765
0.00722765
0.00726772
0.00726772
0.00730481
0.00730481
0.00733892
0.00733892
0.00737008
0.00737007
0.00739831
0.00739831
0.00742365
0.00742365
0.00744615
0.00744615
0.00746585
0.00746585
0.00748282
0.00748282
0.00749711
0.00749711
0.00750883
0.00750883
0.00751805
0.00751805
0.00752488
0.00752488
0.00752946
0.00752945
0.0075319
0.0075319
0.00753236
0.00753236
0.00753102
0.00753102
0.00752805
0.00752805
0.00752366
0.00752366
0.00751808
0.00751808
0.00751153
0.00751153
0.00750427
0.00750427
0.00749656
0.00749656
0.00748869
0.00748869
0.00748093
0.00748092
0.00747356
0.00747355
0.00746686
0.00746685
0.00746109
0.00746109
0.0074565
0.0074565
0.00745329
0.00745329
0.00745162
0.00745162
0.00745162
0.00745162
0.00745328
0.00745328
0.00745649
0.00745649
0.00746108
0.00746108
0.00746684
0.00746684
0.00747354
0.00747354
0.0074809
0.0074809
0.00748866
0.00748866
0.00749654
0.00749654
0.00750424
0.00750424
0.0075115
0.0075115
0.00751805
0.00751805
0.00752363
0.00752363
0.00752802
0.00752802
0.00753098
0.00753098
0.00753233
0.00753233
0.00753186
0.00753186
0.00752942
0.00752942
0.00752485
0.00752485
0.00751802
0.00751802
0.0075088
0.00750879
0.00749708
0.00749708
0.00748279
0.00748279
0.00746582
0.00746582
0.00744612
0.00744612
0.00742363
0.00742363
0.00739829
0.00739828
0.00737005
0.00737005
0.0073389
0.0073389
0.00730479
0.00730479
0.00726771
0.00726771
0.00722764
0.00722764
0.00718457
0.00718457
0.0071385
0.0071385
0.00708942
0.00708942
0.00703734
0.00703734
0.00698227
0.00698227
0.00692422
0.00692422
0.00686319
0.00686319
0.00679922
0.00679922
0.00673233
0.00673233
0.00666253
0.00666253
0.00658986
0.00658986
0.00651436
0.00651436
0.00643606
0.00643606
0.006355
0.006355
0.00627123
0.00627123
0.00618479
0.00618479
0.00609574
0.00609574
0.00600415
0.00600415
0.00591006
0.00591006
0.00581356
0.00581356
0.00571471
0.00571471
0.00561359
0.00561359
0.00551028
0.00551028
0.00540488
0.00540488
0.00529748
0.00529748
0.00518818
0.00518818
0.00507708
0.00507708
0.00496431
0.00496431
0.00484997
0.00484997
0.00473419
0.00473419
0.0046171
0.0046171
0.00449884
0.00449884
0.00437955
0.00437955
0.00425937
0.00425937
0.00413846
0.00413846
0.00401698
0.00401698
0.00389508
0.00389508
0.00377292
0.00377292
0.00365069
0.00365069
0.00352854
0.00352854
0.00340666
0.00340666
0.00328522
0.00328522
0.00316439
0.00316439
0.00304436
0.00304436
0.0029253
0.0029253
0.00280738
0.00280738
0.00269079
0.00269079
0.00257568
0.00257568
0.00246224
0.00246224
0.00235061
0.00235061
0.00224097
0.00224097
0.00213346
0.00213346
0.00202822
0.00202822
0.0019254
0.0019254
0.00182511
0.00182511
0.00172749
0.00172749
0.00163264
0.00163263
0.00154065
0.00154065
0.00145162
0.00145162
0.00136563
0.00136563
0.00128274
0.00128274
0.001203
0.001203
0.00112646
0.00112646
0.00105314
0.00105314
0.000983061
0.000983061
0.000916232
0.000916231
0.000852642
0.000852642
0.000792274
0.000792274
0.000735097
0.000735097
0.000681069
0.000681069
0.00063014
0.000630139
0.000582245
0.000582245
0.000537313
0.000537313
0.000495264
0.000495264
0.000456007
0.000456007
0.000419447
0.000419447
0.000385479
0.000385479
0.000353994
0.000353994
0.000324879
0.000324879
0.000298014
0.000298014
0.00027328
0.00027328
0.000250554
0.000250554
0.000229713
0.000229713
0.000210635
0.000210635
0.000193199
0.000193199
0.000177285
0.000177285
0.00016278
0.00016278
0.000149573
0.000149573
0.000137556
0.000137556
0.00012663
0.00012663
0.0001167
0.0001167
0.000107676
0.000107676
9.94753e-05
9.94752e-05
9.20218e-05
9.20218e-05
8.52445e-05
8.52445e-05
7.90785e-05
7.90785e-05
7.34647e-05
7.34647e-05
6.83491e-05
6.83491e-05
6.3683e-05
6.3683e-05
5.94222e-05
5.94222e-05
5.55268e-05
5.55268e-05
5.19609e-05
5.19609e-05
4.86924e-05
4.86924e-05
4.56923e-05
4.56923e-05
4.29347e-05
4.29347e-05
4.03962e-05
4.03962e-05
3.8056e-05
3.8056e-05
3.58955e-05
3.58955e-05
3.38979e-05
3.38979e-05
3.20482e-05
3.20482e-05
3.0333e-05
3.0333e-05
2.87402e-05
2.87402e-05
2.72589e-05
2.72589e-05
2.58795e-05
2.58795e-05
2.45931e-05
2.45931e-05
2.33919e-05
2.33919e-05
2.22688e-05
2.22688e-05
2.12173e-05
2.12173e-05
2.02316e-05
2.02316e-05
1.93066e-05
1.93066e-05
1.84373e-05
1.84373e-05
1.76196e-05
1.76196e-05
1.68494e-05
1.68494e-05
1.61233e-05
1.61233e-05
1.54379e-05
1.54379e-05
1.47903e-05
1.47903e-05
1.41778e-05
1.41778e-05
1.35979e-05
1.35979e-05
1.30483e-05
1.30483e-05
1.25269e-05
1.25269e-05
1.2032e-05
1.2032e-05
1.15615e-05
1.15615e-05
1.11141e-05
1.11141e-05
1.06881e-05
1.06881e-05
1.02822e-05
1.02822e-05
9.89515e-06
9.89515e-06
9.52573e-06
9.52573e-06
9.17288e-06
9.17288e-06
8.83558e-06
8.83558e-06
8.51291e-06
8.51291e-06
8.20401e-06
8.20401e-06
7.90805e-06
7.90805e-06
7.62432e-06
7.62432e-06
7.35209e-06
7.35209e-06
7.09074e-06
7.09074e-06
6.83967e-06
6.83967e-06
6.5983e-06
6.5983e-06
6.36612e-06
6.36612e-06
6.14265e-06
6.14265e-06
5.92743e-06
5.92743e-06
5.72003e-06
5.72003e-06
5.52006e-06
5.52006e-06
5.32716e-06
5.32716e-06
5.14097e-06
5.14097e-06
4.96117e-06
4.96117e-06
4.78747e-06
4.78747e-06
4.61957e-06
4.61957e-06
4.45722e-06
4.45722e-06
4.30017e-06
4.30017e-06
4.14818e-06
4.14818e-06
4.00105e-06
4.00105e-06
3.85856e-06
3.85856e-06
3.72053e-06
3.72053e-06
3.58678e-06
3.58678e-06
3.45714e-06
3.45714e-06
3.33146e-06
3.33146e-06
3.20959e-06
3.20959e-06
3.09139e-06
3.09139e-06
2.97673e-06
2.97673e-06
2.8655e-06
2.8655e-06
2.75757e-06
2.75757e-06
2.65284e-06
2.65284e-06
2.55122e-06
2.55122e-06
2.45259e-06
2.45259e-06
2.35688e-06
2.35688e-06
2.26401e-06
2.26401e-06
2.17388e-06
2.17388e-06
2.08643e-06
2.08643e-06
2.00158e-06
2.00158e-06
1.91927e-06
1.91927e-06
1.83943e-06
1.83943e-06
1.76201e-06
1.76201e-06
1.68694e-06
1.68694e-06
1.61417e-06
1.61417e-06
1.54365e-06
1.54365e-06
1.47533e-06
1.47533e-06
1.40915e-06
1.40915e-06
1.34508e-06
1.34508e-06
1.28307e-06
1.28307e-06
1.22307e-06
1.22307e-06
1.16505e-06
1.16505e-06
1.10896e-06
1.10896e-06
1.05477e-06
1.05477e-06
1.00243e-06
1.00243e-06
9.51914e-07
9.51914e-07
9.03183e-07
9.03183e-07
8.56201e-07
8.56201e-07
8.10933e-07
8.10933e-07
7.67345e-07
7.67345e-07
7.25403e-07
7.25403e-07
6.85075e-07
6.85075e-07
6.46327e-07
6.46327e-07
6.09126e-07
6.09126e-07
5.73441e-07
5.73441e-07
5.39238e-07
5.39238e-07
5.06485e-07
5.06485e-07
4.75151e-07
4.75151e-07
4.45203e-07
4.45203e-07
4.16609e-07
4.16609e-07
3.89336e-07
3.89336e-07
3.63354e-07
3.63354e-07
3.38628e-07
3.38628e-07
3.15127e-07
3.15127e-07
2.92818e-07
2.92818e-07
2.71668e-07
2.71668e-07
2.51644e-07
2.51644e-07
2.32713e-07
2.32713e-07
2.14841e-07
2.14841e-07
1.97996e-07
1.97996e-07
1.82143e-07
1.82143e-07
1.67248e-07
1.67248e-07
1.53278e-07
1.53278e-07
1.40199e-07
1.40199e-07
1.27975e-07
1.27975e-07
1.16574e-07
1.16574e-07
1.0596e-07
1.0596e-07
9.60998e-08
9.60998e-08
8.69591e-08
8.69591e-08
7.8504e-08
7.8504e-08
7.07008e-08
7.07008e-08
6.3516e-08
6.3516e-08
5.69167e-08
5.69167e-08
5.08702e-08
5.08702e-08
4.53444e-08
4.53444e-08
4.03078e-08
4.03078e-08
3.57296e-08
3.57296e-08
3.15796e-08
3.15796e-08
2.78287e-08
2.78287e-08
2.44484e-08
2.44484e-08
2.14114e-08
2.14114e-08
1.86913e-08
1.86913e-08
1.62627e-08
1.62627e-08
1.41015e-08
1.41015e-08
1.21848e-08
1.21848e-08
1.04906e-08
1.04906e-08
8.99844e-09
8.99844e-09
7.68898e-09
7.68898e-09
6.5441e-09
6.5441e-09
5.54692e-09
5.54692e-09
4.68179e-09
4.68179e-09
3.93424e-09
3.93424e-09
3.29098e-09
3.29098e-09
2.73983e-09
2.73983e-09
2.26968e-09
2.26968e-09
1.87048e-09
1.87048e-09
1.53313e-09
1.53313e-09
1.24945e-09
1.24945e-09
1.01215e-09
1.01215e-09
8.14714e-10
8.14714e-10
6.5138e-10
6.5138e-10
5.17067e-10
5.17067e-10
4.07318e-10
4.07318e-10
3.18243e-10
3.18243e-10
2.46466e-10
2.46466e-10
1.89071e-10
1.89071e-10
1.43556e-10
1.43556e-10
1.07783e-10
1.07783e-10
7.99395e-11
7.99395e-11
5.8497e-11
5.8497e-11
4.21757e-11
4.21757e-11
2.99121e-11
2.99121e-11
2.0829e-11
2.0829e-11
1.42093e-11
1.42093e-11
9.47216e-12
9.47216e-12
6.15211e-12
6.15211e-12
3.88047e-12
3.88047e-12
2.36918e-12
2.36918e-12
1.39662e-12
1.39662e-12
7.95384e-13
7.95384e-13
4.41708e-13
4.41708e-13
2.46522e-13
2.46522e-13
1.47818e-13
1.47818e-13
1.04265e-13
1.04265e-13
8.99195e-14
8.99195e-14
8.99439e-14
8.99439e-14
9.72615e-14
9.72615e-14
1.10148e-13
1.10148e-13
1.30471e-13
1.30471e-13
0.00745162
0.00745162
0.00745328
0.00745328
0.00745649
0.00745649
0.00746108
0.00746107
0.00746684
0.00746684
0.00747353
0.00747353
0.0074809
0.0074809
0.00748866
0.00748866
0.00749653
0.00749653
0.00750424
0.00750424
0.0075115
0.0075115
0.00751804
0.00751804
0.00752363
0.00752363
0.00752802
0.00752802
0.00753098
0.00753098
0.00753233
0.00753233
0.00753186
0.00753186
0.00752942
0.00752942
0.00752485
0.00752485
0.00751801
0.00751801
0.00750879
0.00750879
0.00749708
0.00749708
0.00748279
0.00748278
0.00746582
0.00746582
0.00744612
0.00744612
0.00742363
0.00742363
0.00739828
0.00739828
0.00737005
0.00737005
0.0073389
0.0073389
0.00730479
0.00730479
0.00726771
0.00726771
0.00722764
0.00722764
0.00718457
0.00718457
0.0071385
0.0071385
0.00708942
0.00708942
0.00703734
0.00703734
0.00698227
0.00698227
0.00692422
0.00692421
0.00686319
0.00686319
0.00679922
0.00679922
0.00673233
0.00673233
0.00666253
0.00666253
0.00658986
0.00658986
0.00651436
0.00651436
0.00643606
0.00643606
0.006355
0.006355
0.00627123
0.00627123
0.00618479
0.00618479
0.00609574
0.00609574
0.00600415
0.00600415
0.00591006
0.00591006
0.00581356
0.00581356
0.00571471
0.00571471
0.00561359
0.00561359
0.00551028
0.00551028
0.00540488
0.00540488
0.00529748
0.00529748
0.00518818
0.00518818
0.00507708
0.00507708
0.00496431
0.00496431
0.00484997
0.00484997
0.00473419
0.00473419
0.0046171
0.0046171
0.00449884
0.00449884
0.00437955
0.00437955
0.00425937
0.00425937
0.00413846
0.00413846
0.00401698
0.00401698
0.00389508
0.00389508
0.00377292
0.00377292
0.00365069
0.00365069
0.00352854
0.00352854
0.00340666
0.00340666
0.00328522
0.00328522
0.00316439
0.00316439
0.00304436
0.00304436
0.0029253
0.0029253
0.00280738
0.00280738
0.00269079
0.00269079
0.00257568
0.00257568
0.00246224
0.00246224
0.00235061
0.00235061
0.00224097
0.00224097
0.00213346
0.00213346
0.00202822
0.00202822
0.0019254
0.0019254
0.00182511
0.00182511
0.00172749
0.00172749
0.00163263
0.00163263
0.00154065
0.00154065
0.00145162
0.00145162
0.00136563
0.00136563
0.00128274
0.00128274
0.001203
0.001203
0.00112646
0.00112646
0.00105314
0.00105314
0.000983061
0.000983061
0.000916231
0.000916231
0.000852642
0.000852642
0.000792274
0.000792274
0.000735097
0.000735096
0.000681069
0.000681069
0.000630139
0.000630139
0.000582245
0.000582244
0.000537313
0.000537313
0.000495264
0.000495263
0.000456007
0.000456007
0.000419447
0.000419447
0.000385479
0.000385479
0.000353994
0.000353994
0.000324879
0.000324878
0.000298014
0.000298014
0.00027328
0.00027328
0.000250554
0.000250554
0.000229713
0.000229713
0.000210635
0.000210635
0.000193199
0.000193199
0.000177285
0.000177285
0.00016278
0.00016278
0.000149573
0.000149573
0.000137556
0.000137556
0.00012663
0.00012663
0.0001167
0.0001167
0.000107676
0.000107676
9.94752e-05
9.94752e-05
9.20218e-05
9.20217e-05
8.52445e-05
8.52444e-05
7.90785e-05
7.90785e-05
7.34647e-05
7.34646e-05
6.83491e-05
6.83491e-05
6.3683e-05
6.3683e-05
5.94222e-05
5.94221e-05
5.55268e-05
5.55267e-05
5.19609e-05
5.19609e-05
4.86924e-05
4.86924e-05
4.56923e-05
4.56923e-05
4.29347e-05
4.29347e-05
4.03962e-05
4.03962e-05
3.8056e-05
3.8056e-05
3.58955e-05
3.58955e-05
3.38979e-05
3.38979e-05
3.20482e-05
3.20482e-05
3.0333e-05
3.0333e-05
2.87402e-05
2.87402e-05
2.72589e-05
2.72589e-05
2.58795e-05
2.58795e-05
2.45931e-05
2.45931e-05
2.33919e-05
2.33919e-05
2.22688e-05
2.22688e-05
2.12173e-05
2.12173e-05
2.02316e-05
2.02316e-05
1.93066e-05
1.93066e-05
1.84373e-05
1.84373e-05
1.76196e-05
1.76196e-05
1.68494e-05
1.68494e-05
1.61233e-05
1.61233e-05
1.54379e-05
1.54379e-05
1.47903e-05
1.47903e-05
1.41778e-05
1.41778e-05
1.35979e-05
1.35979e-05
1.30483e-05
1.30483e-05
1.25269e-05
1.25269e-05
1.2032e-05
1.2032e-05
1.15615e-05
1.15615e-05
1.11141e-05
1.11141e-05
1.06881e-05
1.06881e-05
1.02822e-05
1.02822e-05
9.89515e-06
9.89515e-06
9.52573e-06
9.52573e-06
9.17288e-06
9.17288e-06
8.83558e-06
8.83558e-06
8.51291e-06
8.51291e-06
8.204e-06
8.204e-06
7.90805e-06
7.90805e-06
7.62432e-06
7.62432e-06
7.35209e-06
7.35209e-06
7.09074e-06
7.09074e-06
6.83967e-06
6.83967e-06
6.5983e-06
6.5983e-06
6.36612e-06
6.36612e-06
6.14265e-06
6.14265e-06
5.92743e-06
5.92743e-06
5.72003e-06
5.72003e-06
5.52006e-06
5.52006e-06
5.32716e-06
5.32716e-06
5.14097e-06
5.14097e-06
4.96117e-06
4.96117e-06
4.78747e-06
4.78747e-06
4.61957e-06
4.61957e-06
4.45722e-06
4.45722e-06
4.30017e-06
4.30017e-06
4.14818e-06
4.14818e-06
4.00105e-06
4.00105e-06
3.85856e-06
3.85856e-06
3.72053e-06
3.72053e-06
3.58678e-06
3.58678e-06
3.45714e-06
3.45714e-06
3.33146e-06
3.33146e-06
3.20959e-06
3.20959e-06
3.09139e-06
3.09139e-06
2.97673e-06
2.97673e-06
2.8655e-06
2.8655e-06
2.75757e-06
2.75757e-06
2.65284e-06
2.65284e-06
2.55122e-06
2.55122e-06
2.45259e-06
2.45259e-06
2.35688e-06
2.35688e-06
2.26401e-06
2.26401e-06
2.17388e-06
2.17388e-06
2.08643e-06
2.08643e-06
2.00158e-06
2.00158e-06
1.91927e-06
1.91927e-06
1.83943e-06
1.83943e-06
1.76201e-06
1.76201e-06
1.68694e-06
1.68694e-06
1.61417e-06
1.61417e-06
1.54365e-06
1.54365e-06
1.47533e-06
1.47533e-06
1.40915e-06
1.40915e-06
1.34508e-06
1.34508e-06
1.28307e-06
1.28307e-06
1.22307e-06
1.22307e-06
1.16505e-06
1.16505e-06
1.10896e-06
1.10896e-06
1.05477e-06
1.05477e-06
1.00243e-06
1.00243e-06
9.51914e-07
9.51914e-07
9.03183e-07
9.03183e-07
8.56201e-07
8.56201e-07
8.10933e-07
8.10933e-07
7.67345e-07
7.67345e-07
7.25403e-07
7.25403e-07
6.85075e-07
6.85075e-07
6.46327e-07
6.46327e-07
6.09126e-07
6.09126e-07
5.73441e-07
5.73441e-07
5.39238e-07
5.39238e-07
5.06485e-07
5.06485e-07
4.75151e-07
4.75151e-07
4.45203e-07
4.45203e-07
4.16609e-07
4.16609e-07
3.89336e-07
3.89336e-07
3.63354e-07
3.63354e-07
3.38628e-07
3.38628e-07
3.15127e-07
3.15127e-07
2.92818e-07
2.92818e-07
2.71668e-07
2.71668e-07
2.51644e-07
2.51644e-07
2.32713e-07
2.32713e-07
2.14841e-07
2.14841e-07
1.97996e-07
1.97996e-07
1.82143e-07
1.82143e-07
1.67248e-07
1.67248e-07
1.53278e-07
1.53278e-07
1.40199e-07
1.40199e-07
1.27975e-07
1.27975e-07
1.16574e-07
1.16574e-07
1.0596e-07
1.0596e-07
9.60998e-08
9.60998e-08
8.69591e-08
8.69591e-08
7.8504e-08
7.8504e-08
7.07008e-08
7.07008e-08
6.3516e-08
6.3516e-08
5.69167e-08
5.69167e-08
5.08702e-08
5.08702e-08
4.53444e-08
4.53444e-08
4.03078e-08
4.03078e-08
3.57296e-08
3.57296e-08
3.15796e-08
3.15796e-08
2.78287e-08
2.78287e-08
2.44484e-08
2.44484e-08
2.14114e-08
2.14114e-08
1.86913e-08
1.86913e-08
1.62627e-08
1.62627e-08
1.41015e-08
1.41015e-08
1.21848e-08
1.21848e-08
1.04906e-08
1.04906e-08
8.99844e-09
8.99844e-09
7.68898e-09
7.68898e-09
6.5441e-09
6.5441e-09
5.54692e-09
5.54692e-09
4.68179e-09
4.68179e-09
3.93424e-09
3.93424e-09
3.29098e-09
3.29098e-09
2.73983e-09
2.73983e-09
2.26968e-09
2.26968e-09
1.87048e-09
1.87048e-09
1.53312e-09
1.53312e-09
1.24945e-09
1.24945e-09
1.01215e-09
1.01215e-09
8.14714e-10
8.14714e-10
6.5138e-10
6.5138e-10
5.17067e-10
5.17067e-10
4.07318e-10
4.07318e-10
3.18243e-10