/*--------------------------------*- C++ -*----------------------------------*\
| =========                 |                                                 |
| \\      /  F ield         | OpenFOAM: The Open Source CFD Toolbox           |
|  \\    /   O peration     | Version:  2012                                  |
|   \\  /    A nd           | Website:  www.openfoam.com                      |
|    \\/     M anipulation  |                                                 |
\*---------------------------------------------------------------------------*/
FoamFile
{
    version     2.0;
    format      ascii;
    class       volTensorField;
    location    "11400";
    object      grad(U);
}
// * * * * * * * * * * * * * * * * * * * * * * * * * * * * * * * * * * * * * //

dimensions      [0 0 -1 0 0 0 0];


internalField   nonuniform List<tensor> 
2560
(
(0 0 2.79026e-22 825.514 -5.50571e-21 0.000600457 1.19596 5.66249e-08 -8.99761e-17)
(0 -2.61587e-23 -4.05827e-17 825.514 0.00012002 0.00112754 1.19596 1.89301e-07 1.53282e-06)
(-5.76773e-16 -3.23618e-19 1.10011e-21 824.107 0.000106373 0.000122308 3.60121 3.01773e-07 -2.61528e-15)
(0 1.22469e-22 0 824.107 8.4217e-05 2.16838e-19 3.60121 3.21959e-07 4.23516e-22)
(9.83898e-16 -6.0001e-23 -5.4217e-22 822.649 5.2121e-05 -4.52207e-05 4.93392 1.95915e-07 -2.05354e-15)
(-1.13701e-15 0 1.08434e-21 822.649 -9.24699e-06 -3.39585e-05 4.93392 2.14834e-07 1.01191e-07)
(1.60758e-15 7.69461e-24 0 821.109 -0.000111706 -0.000123389 4.99599 3.70897e-07 2.28262e-15)
(-1.12072e-15 0 0 821.109 -0.000112915 -0.000282254 4.99599 4.37661e-07 1.16056e-06)
(4.41861e-15 -3.29212e-23 2.6337e-22 819.467 -0.000127429 -0.000154327 5.05815 -5.25083e-08 8.2068e-15)
(-2.20931e-15 3.29212e-23 2.6337e-22 819.467 -0.000120748 -0.00035156 5.05815 8.90178e-08 1.41887e-06)
(3.34487e-15 -3.80148e-18 0 817.725 0 -0.000116496 5.12051 0 1.02433e-14)
(7.16016e-15 0 2.59595e-22 817.725 -3.96381e-05 -0.000266358 5.12051 -1.71467e-07 9.0044e-07)
(-1.51381e-15 -7.71552e-20 0 815.92 1.58724e-05 -6.63526e-05 5.18336 -5.01091e-08 9.89361e-15)
(6.05524e-15 0 0 815.92 1.8155e-05 -0.000154626 5.18336 -1.34142e-07 5.83605e-07)
(-3.9803e-15 6.41956e-24 2.52207e-22 814.106 1.87369e-05 -3.3972e-05 5.24709 -1.73392e-07 9.39589e-15)
(7.45853e-15 0 -2.52207e-22 814.106 1.92026e-05 -8.35328e-05 5.24709 -4.26647e-08 4.08388e-07)
(6.39039e-15 -1.64976e-23 0 812.343 1.1644e-05 -1.60084e-05 5.31211 -6.58824e-08 9.35825e-15)
(0 0 1.24296e-22 812.343 1.23582e-05 -4.51565e-05 5.31211 -1.74109e-09 3.0957e-07)
(0 0 6.12573e-23 810.687 8.46786e-06 -5.57998e-06 5.37881 -8.56067e-08 9.84352e-15)
(0 0 -6.12573e-23 810.687 8.82437e-06 -2.39007e-05 5.37881 4.51599e-08 2.07675e-07)
(-2.94274e-15 -3.10905e-23 -6.03794e-23 809.188 3.87978e-06 1.2001e-06 5.44753 -2.5625e-08 1.08455e-14)
(0 4.52845e-23 6.03794e-23 809.188 4.24919e-06 -1.10307e-05 5.44753 6.22332e-08 1.06773e-07)
(3.31087e-15 -8.66033e-23 -1.19028e-22 807.889 3.64001e-06 6.19728e-06 5.5186 -2.62859e-08 1.238e-14)
(0 5.9514e-23 1.19028e-22 807.889 3.92579e-06 -2.38004e-06 5.5186 7.862e-08 4.03234e-08)
(3.93667e-15 -2.93305e-23 5.8661e-23 806.824 2.14264e-06 1.03172e-05 5.59233 -2.30976e-08 1.44885e-14)
(-3.93667e-15 2.93305e-23 5.8661e-23 806.824 2.40563e-06 4.06134e-06 5.59233 9.3234e-08 4.78416e-08)
(-4.06098e-15 2.72712e-23 0 806.022 1.35744e-06 6.38398e-06 5.66898 -6.28644e-09 7.86547e-09)
(1.23637e-14 0 6.06486e-23 806.022 1.58677e-06 9.32477e-06 5.66898 9.8995e-08 8.26842e-08)
(0 7.12394e-23 0 805.504 6.83247e-07 -4.91284e-06 5.74876 -1.27245e-08 2.90993e-08)
(0 -7.12394e-23 -5.08117e-19 805.504 8.94043e-07 -4.26987e-22 5.74876 1.07843e-07 0)
(-4.83064e-15 6.17135e-38 0 805.283 3.59431e-21 -9.29976e-06 5.83184 -1.32349e-23 2.67025e-08)
(1.93226e-14 0 7.72591e-23 805.283 8.73416e-07 -8.85379e-06 5.83184 1.08511e-07 3.75792e-08)
(0 6.92119e-23 1.10739e-22 805.364 1.04651e-06 -7.44706e-06 5.91835 -1.31209e-08 2.47679e-08)
(-2.08932e-14 -6.92119e-23 -1.37827e-22 805.364 1.22629e-06 -1.12446e-05 5.91835 1.17184e-07 9.01178e-08)
(0 6.822e-23 1.09152e-22 805.746 -4.18928e-07 -1.7237e-06 6.00836 -8.34277e-09 1.23946e-08)
(-2.24859e-14 -6.822e-23 -1.2571e-22 805.746 -2.53338e-07 -9.12743e-06 6.00836 1.20242e-07 7.38138e-08)
(7.22008e-15 -8.53664e-21 1.07588e-22 806.418 3.25886e-21 6.88621e-06 6.10189 0 7.96473e-13)
(0 4.03453e-23 0 806.418 -7.37803e-08 -7.49137e-06 6.10189 1.1797e-07 6.11927e-08)
(6.43535e-15 2.85421e-23 5.30227e-23 807.364 1.01652e-06 1.09492e-05 6.19888 -4.97115e-09 7.57499e-13)
(-2.57414e-14 -6.62784e-23 0 807.364 1.16473e-06 -6.20391e-06 6.19888 1.2231e-07 3.71891e-08)
(-7.01459e-15 6.53285e-23 0 808.559 1.13756e-07 1.17299e-05 6.29924 -1.05557e-08 8.21377e-13)
(7.01459e-15 -6.53285e-23 0 808.559 2.55752e-07 2.0535e-06 6.29924 1.29339e-07 4.64519e-09)
(-7.27429e-15 -3.54759e-24 0 809.972 -1.6652e-06 1.25147e-05 6.40278 -1.72339e-08 8.05083e-13)
(0 2.57569e-23 0 809.972 -1.52811e-06 1.13212e-05 6.40278 1.26641e-07 -1.30614e-13)
(1.9556e-14 -2.57622e-23 1.01551e-22 811.563 3.17476e-21 1.33155e-05 6.50926 1.32349e-23 8.36566e-13)
(-1.36299e-14 6.34693e-23 0 811.563 7.48186e-07 1.33155e-05 6.50926 1.19668e-07 -1.88893e-13)
(0 5.00477e-23 0 813.288 1.07579e-06 1.41797e-05 6.61839 -2.73924e-08 8.1668e-13)
(-3.25613e-14 -7.50715e-23 0 813.288 1.2034e-06 1.41797e-05 6.61839 1.35048e-07 -8.10189e-14)
(8.58411e-15 5.12762e-23 0 815.097 -1.17224e-06 1.50804e-05 6.72978 -8.8847e-09 8.95274e-13)
(0 -6.16629e-23 0 815.097 -1.04892e-06 1.50804e-05 6.72978 1.31523e-07 -1.31943e-13)
(-1.80707e-14 8.01494e-23 0 816.931 -1.62129e-06 1.59751e-05 6.84295 -1.81168e-08 8.93878e-13)
(0 -6.07792e-23 0 816.931 -1.49952e-06 1.59751e-05 6.84295 1.28693e-07 -1.51093e-13)
(4.13481e-14 -5.36769e-23 0 818.727 -1.76324e-36 1.69067e-05 6.9574 0 8.98006e-13)
(7.59545e-14 5.9908e-23 0 818.727 1.33237e-06 1.69067e-05 6.9574 1.21245e-07 -1.84339e-13)
(0 -4.72395e-23 0 820.421 5.94506e-07 1.79155e-05 7.07258 -3.90391e-08 8.60731e-13)
(3.98444e-14 5.90494e-23 0 820.421 7.09179e-07 1.79155e-05 7.07258 1.42325e-07 -1.18986e-13)
(1.04359e-14 -9.29815e-20 0 821.941 -2.96462e-21 1.89577e-05 7.18778 0 1.0211e-12)
(0 -1.16406e-23 0 821.941 -1.33735e-06 1.89576e-05 7.18778 1.29259e-07 -1.3985e-13)
(-2.18375e-14 1.68692e-23 0 823.21 -1.33342e-06 2.00014e-05 7.30226 -2.81019e-08 9.8198e-13)
(-8.73499e-14 0 0 823.21 -1.22269e-06 2.00014e-05 7.30226 1.33037e-07 -1.85622e-13)
(-1.14097e-14 0 0 824.15 0 2.10924e-05 7.41525 -1.32349e-23 1.0033e-12)
(-4.5639e-14 -2.26187e-23 0 824.15 1.09653e-06 2.10924e-05 7.41525 1.20566e-07 -2.08663e-13)
(0 6.68834e-23 0 824.685 6.26732e-07 2.22689e-05 7.52592 -4.62702e-08 9.63086e-13)
(-4.76357e-14 -6.68834e-23 0 824.685 7.34824e-07 2.22689e-05 7.52592 1.45297e-07 -1.42141e-13)
(0 -9.45198e-20 0 824.731 -5.08177e-07 2.34774e-05 7.63332 -2.33506e-09 1.13512e-12)
(4.96649e-14 6.59248e-23 0 824.731 -1.9613e-06 2.34773e-05 7.63332 1.29145e-07 -1.86463e-13)
(-1.29316e-14 1.21915e-23 0 824.202 -6.48159e-07 2.46964e-05 7.73645 -9.80518e-09 1.09438e-12)
(0 0 0 824.202 -5.42006e-07 2.46964e-05 7.73645 1.29619e-07 -1.90039e-13)
(-1.34548e-14 -1.08733e-37 0 823.017 3.17282e-21 2.59879e-05 7.83434 1.32349e-23 1.13079e-12)
(0 -6.40486e-23 0 823.017 1.2003e-06 2.59879e-05 7.83434 1.26312e-07 -2.22226e-13)
(-3.65811e-14 4.98319e-23 0 821.097 7.18381e-08 2.73691e-05 7.92595 -3.08084e-08 1.1232e-12)
(-5.59429e-14 -3.15653e-23 -3.36697e-22 821.097 1.7845e-07 2.73691e-05 7.92595 1.43395e-07 -1.82293e-13)
(3.67955e-14 -8.64549e-21 0 818.358 -1.92099e-06 2.87825e-05 8.01011 -9.35159e-09 1.23733e-12)
(-2.22715e-14 2.07419e-23 0 818.358 -1.91545e-06 2.87825e-05 8.01011 1.30112e-07 -2.21322e-13)
(1.50694e-14 -8.78422e-21 0 814.716 -4.96445e-07 3.0217e-05 8.08566 -2.45189e-09 1.22457e-12)
(0 4.08893e-23 0 814.716 -4.9426e-07 3.0217e-05 8.08566 1.27157e-07 -2.13649e-13)
(-1.56213e-14 0 0 810.097 2.96462e-21 3.17336e-05 8.15151 -1.23573e-52 1.29612e-12)
(-2.16376e-14 -2.01516e-23 0 810.097 1.02697e-06 3.17336e-05 8.15151 1.27628e-07 -2.68863e-13)
(0 3.97256e-23 0 804.432 4.64038e-07 3.33578e-05 8.20648 -2.10929e-08 1.27406e-12)
(0 -5.95884e-23 0 804.432 5.6979e-07 3.33578e-05 8.20648 1.39944e-07 -1.9236e-13)
(-1.67428e-14 2.9948e-23 0 797.648 -1.8667e-06 3.50358e-05 8.24933 -2.67219e-08 1.3948e-12)
(4.59492e-14 0 -6.265e-22 797.648 -1.76043e-06 3.50358e-05 8.24933 1.3577e-07 -2.66299e-13)
(0 -3.79265e-20 0 789.677 -7.60404e-07 3.67292e-05 8.27882 -3.97881e-09 1.43876e-12)
(6.92443e-14 3.8595e-23 0 789.677 -1.36649e-06 3.67292e-05 8.27882 1.24234e-07 -2.36098e-13)
(-2.5401e-15 -4.83695e-23 0 780.459 6.34469e-21 3.85226e-05 8.29381 -1.32349e-23 1.45721e-12)
(-5.11103e-14 -5.70628e-23 0 780.459 2.1508e-06 3.85226e-05 8.29381 1.24114e-07 -2.64023e-13)
(1.8459e-14 -3.91735e-23 0 769.943 -1.44731e-06 4.04195e-05 8.29316 -7.98908e-08 1.45821e-12)
(0 3.74966e-23 0 769.943 -1.339e-06 4.04195e-05 8.29316 1.49876e-07 -2.70905e-13)
(-1.90369e-14 -2.37134e-21 0 758.083 2.2366e-23 4.23769e-05 8.27566 0 1.6253e-12)
(0 1.84796e-23 0 758.083 1.53923e-08 4.23769e-05 8.27566 1.11904e-07 -2.74433e-13)
(5.8169e-17 1.82147e-23 0 744.836 -1.99848e-06 4.4383e-05 8.2402 -9.17758e-08 1.61354e-12)
(7.84644e-14 0 0 744.836 -1.88923e-06 4.4383e-05 8.2402 1.53368e-07 -3.03319e-13)
(0 -2.1347e-23 0 730.168 3.81165e-21 4.64742e-05 8.18571 0 1.69781e-12)
(8.07817e-14 0 0 730.168 1.58782e-06 4.64742e-05 8.18571 9.30342e-08 -4.35948e-13)
(-2.07738e-14 0 0 714.057 2.57264e-06 4.87571e-05 8.1112 -7.34475e-08 1.68896e-12)
(0 1.76963e-23 0 714.057 2.6844e-06 4.87571e-05 8.1112 1.75128e-07 -1.8163e-13)
(-2.13499e-14 3.00488e-24 0 696.483 -8.90907e-06 5.09916e-05 8.0156 -1.03059e-07 1.83689e-12)
(0 0 0 696.483 -8.7969e-06 5.09916e-05 8.0156 1.25716e-07 -3.85045e-13)
(3.69211e-14 -5.23211e-20 0 677.436 -4.24737e-21 5.30849e-05 7.89809 -2.64698e-23 2.06126e-12)
(-3.69211e-14 3.43854e-23 0 677.436 -9.86667e-07 5.30849e-05 7.89809 7.63017e-08 -2.83777e-13)
(-5.88817e-14 -1.58849e-19 -1.08456e-21 656.932 1.31509e-05 5.57224e-05 7.75818 -7.83594e-08 1.7843e-12)
(0 1.69463e-23 0 656.932 2.00773e-05 5.57224e-05 7.75818 1.17908e-07 3.6046e-13)
(0 5.8462e-23 -1.06902e-21 634.984 -2.62473e-05 5.82993e-05 7.59486 6.39861e-08 2.23996e-12)
(-9.22033e-14 -6.68137e-23 0 634.984 -2.61168e-05 5.82993e-05 7.59486 3.2007e-07 -1.13972e-12)
(1.17524e-14 0 0 611.593 -3.17778e-23 6.05222e-05 7.40746 -5.29396e-23 1.8277e-12)
(5.90591e-14 0 0 611.593 8.27628e-06 6.05224e-05 7.40746 -1.99904e-07 -8.29031e-13)
(0 6.49122e-23 0 586.809 1.18112e-05 6.33137e-05 7.19601 1.73221e-07 1.39529e-12)
(0 -6.49122e-23 0 586.809 1.19214e-05 6.33136e-05 7.19601 4.3341e-07 -4.53602e-14)
(-2.46793e-14 0 0 560.679 0 6.58597e-05 6.95983 -6.13057e-39 2.98939e-12)
(9.87171e-14 0 0 560.679 -2.39881e-05 6.58596e-05 6.95983 -5.60497e-08 -4.25675e-13)
(5.03968e-14 -1.57662e-23 0 533.243 2.31394e-05 6.84393e-05 6.69885 -1.2555e-07 2.3302e-12)
(1.00794e-13 1.57662e-23 0 533.243 2.3247e-05 6.84394e-05 6.69885 1.39075e-07 6.43017e-14)
(3.33724e-14 -2.33103e-23 9.94574e-22 504.577 -1.93608e-05 7.11457e-05 6.41325 -2.17875e-08 2.5006e-12)
(0 2.71954e-23 0 504.577 -1.92269e-05 7.11458e-05 6.41325 2.44949e-07 -1.13329e-12)
(-2.61909e-14 -7.34684e-39 0 474.761 8.47033e-21 7.34792e-05 6.10316 5.29396e-23 2.26677e-12)
(0 0 0 474.761 4.5506e-06 7.34792e-05 6.10316 -1.10324e-07 -8.78319e-13)
(-5.33215e-14 3.77449e-23 0 443.89 5.59681e-06 7.60679e-05 5.76927 4.31032e-08 2.30294e-12)
(1.06643e-13 -5.28428e-23 0 443.89 5.72754e-06 7.60679e-05 5.76927 3.14657e-07 -4.06166e-13)
(-2.71106e-14 -1.2192e-19 0 412.071 8.25573e-22 7.86164e-05 5.41207 -5.29396e-23 2.70279e-12)
(0 0 0 412.071 -5.84155e-06 7.86164e-05 5.41207 -3.5085e-08 -9.20364e-13)
(-2.75389e-14 -2.20024e-23 0 379.411 2.97055e-06 8.10297e-05 5.03242 -3.24791e-08 2.35143e-12)
(1.10155e-13 2.93365e-23 0 379.411 3.09334e-06 8.10296e-05 5.03242 2.44168e-07 -6.57808e-13)
(-2.79437e-14 -3.10648e-19 0 346.032 -1.25462e-05 8.28624e-05 4.63137 -8.7622e-08 3.77559e-12)
(-6.20968e-14 0 0 346.032 -2.01959e-05 8.28625e-05 4.63137 8.30033e-09 -1.00553e-12)
(-1.17854e-13 0 0 312.08 2.18027e-23 8.46934e-05 4.21058 -5.29396e-23 1.69351e-12)
(-5.20872e-14 0 0 312.08 2.46981e-05 8.46937e-05 4.21058 -3.19486e-08 -7.99373e-13)
(-5.73531e-14 -5.61863e-23 0 277.717 -5.74977e-06 8.6916e-05 3.77176 8.1361e-08 1.64291e-12)
(1.99248e-13 4.21397e-23 0 277.717 -5.60332e-06 8.69157e-05 3.77176 3.66284e-07 -1.53203e-12)
(-1.46469e-13 1.50463e-36 0 243.087 1.36083e-20 8.80382e-05 3.31634 5.29396e-23 3.60772e-12)
(-5.6541e-14 -5.5381e-23 0 243.087 -2.61395e-05 8.8038e-05 3.31634 -1.13997e-07 -1.2189e-12)
(-2.92967e-14 -2.48794e-20 0 208.359 2.83546e-05 8.90673e-05 2.84695 -2.09799e-07 2.64463e-12)
(1.17187e-13 5.45872e-23 0 208.359 2.98105e-05 8.90673e-05 2.84695 -5.61882e-09 -7.38501e-13)
(2.9561e-14 -3.3628e-23 0 173.726 -2.68161e-05 8.99617e-05 2.36603 3.99657e-08 3.41814e-12)
(0 3.3628e-23 0 173.726 -2.66451e-05 8.99619e-05 2.36603 3.34147e-07 -2.62369e-12)
(0 -9.79418e-23 0 139.367 3.29019e-21 9.06197e-05 1.87604 -1.05879e-22 1.48928e-12)
(1.19173e-13 -5.70159e-23 0 139.367 2.55097e-05 9.06197e-05 1.87604 -3.0553e-07 -9.66855e-13)
(0 0 1.67275e-21 105.464 -3.17942e-05 9.08705e-05 1.3799 3.19716e-07 2.92641e-12)
(1.19969e-13 0 0 105.464 -3.1612e-05 9.08705e-05 1.3799 7.42205e-07 -3.42537e-12)
(-2.76619e-14 2.35099e-38 -3.29756e-21 72.2072 7.73809e-35 9.04445e-05 0.880605 -2.11758e-22 1.51734e-12)
(1.20629e-13 -3.33225e-22 0 72.2072 1.58908e-05 9.04447e-05 0.880605 -3.11181e-07 -2.70729e-12)
(-2.72655e-14 0 0 39.7896 -2.80888e-07 9.03509e-05 0.381569 3.24801e-07 1.5037e-12)
(2.72655e-14 0 0 39.7896 -1.18303e-07 9.03508e-05 0.381569 9.33528e-07 -2.8452e-12)
(-6.07341e-14 2.82119e-36 0 0.00636345 -2.05018e-20 8.96506e-05 5.1344e-05 -4.80267e-38 2.38158e-12)
(0 0 0 0.00635605 -1.50122e-05 8.96506e-05 5.12843e-05 -3.16389e-07 -3.86729e-12)
(2.66135e-13 0 0 -13.9719 1.59979e-05 8.89205e-05 0.114372 3.31113e-07 1.27233e-12)
(6.53643e-13 0 0 -13.9719 1.61477e-05 8.89206e-05 0.114372 8.13988e-07 -2.93281e-12)
(2.61098e-14 -2.74343e-19 0 -50.6711 -3.38813e-20 8.8166e-05 0.603656 0 1.96186e-12)
(9.4824e-14 -2.03487e-22 0 -50.6711 -1.62377e-05 8.8166e-05 0.603656 -3.21322e-07 -4.16604e-12)
(-3.00918e-14 0 0 -78.0205 1.04399e-05 8.72719e-05 1.08308 2.47644e-07 8.52035e-13)
(0 0 0 -78.0205 1.05942e-05 8.72719e-05 1.08308 5.70706e-07 -3.95893e-12)
(2.99195e-14 -6.39469e-19 0 -103.749 -3.38813e-21 8.61565e-05 1.54979 0 1.68151e-12)
(0 0 -6.04791e-21 -103.749 -1.95087e-05 8.61565e-05 1.54979 -3.26538e-07 -5.37087e-12)
(0 -3.4929e-23 0 -127.738 2.32531e-05 8.53246e-05 2.00092 -7.37613e-08 9.05279e-13)
(2.50032e-14 3.4929e-23 0 -127.738 2.34122e-05 8.53245e-05 2.00092 2.57474e-07 -4.07172e-12)
(0 -3.56111e-19 5.87578e-21 -149.892 -1.36844e-05 8.46157e-05 2.43344 -1.20404e-07 1.95362e-12)
(0 0 0 -149.892 -2.47852e-05 8.46158e-05 2.43344 -1.14407e-07 -4.90304e-12)
(-9.88606e-15 1.17549e-38 2.89578e-21 -170.154 -7.06461e-23 8.40286e-05 2.84492 9.80411e-39 3.51992e-14)
(0 0 0 -170.154 2.18043e-05 8.40287e-05 2.84492 -1.6919e-07 -4.69005e-12)
(-2.89563e-14 3.34486e-23 0 -188.488 -2.48349e-05 8.35636e-05 3.23344 -5.80926e-08 9.70217e-13)
(0 -3.34486e-23 0 -188.488 -2.46445e-05 8.35636e-05 3.23344 2.86096e-07 -6.71491e-12)
(2.86562e-14 -1.34162e-22 0 -204.877 -1.34162e-22 8.30709e-05 3.59724 -2.11758e-22 -1.59705e-13)
(-1.38225e-13 1.52776e-22 0 -204.877 1.69083e-05 8.30711e-05 3.59724 -3.4266e-07 -6.09841e-12)
(0 0 0 -219.32 -5.45987e-06 8.32577e-05 3.93486 2.66782e-07 -4.42776e-13)
(-9.00834e-14 0 0 -219.32 -5.28358e-06 8.32576e-05 3.93486 6.20177e-07 -6.47073e-12)
(-2.79988e-14 -1.49578e-19 0 -231.85 1.52466e-20 8.31077e-05 4.24506 0 7.77488e-13)
(1.78133e-13 -4.19421e-22 0 -231.85 -1.02106e-05 8.31077e-05 4.24506 -3.49266e-07 -7.44738e-12)
(2.76454e-14 4.20958e-23 0 -242.521 1.40285e-05 8.33494e-05 4.52759 9.03652e-08 -3.17442e-13)
(1.10582e-13 -6.31436e-23 0 -242.521 1.41982e-05 8.33494e-05 4.52759 4.53403e-07 -6.11603e-12)
(0 -9.34211e-20 0 -251.39 -1.18585e-20 8.41171e-05 4.78191 1.05879e-22 3.22612e-13)
(0 0 0 -251.39 -6.36374e-06 8.41171e-05 4.78191 -3.55804e-07 -6.96199e-12)
(-7.0813e-14 -6.13466e-23 0 -258.545 -3.61882e-06 8.47104e-05 5.00806 -2.26318e-08 5.01899e-14)
(1.51511e-13 6.64588e-23 0 -258.545 -3.43709e-06 8.47105e-05 5.00806 3.5049e-07 -7.50009e-12)
(-2.65105e-14 -8.01687e-36 0 -264.089 1.23673e-20 8.54238e-05 5.2067 0 -2.78294e-13)
(-1.06042e-13 9.4103e-23 0 -264.089 1.80983e-06 8.54239e-05 5.2067 -3.63001e-07 -7.30661e-12)
(-1.65504e-14 -3.22837e-23 0 -268.127 -3.82205e-06 8.62235e-05 5.37858 2.52517e-08 -1.40824e-13)
(1.47118e-13 3.22837e-23 0 -268.127 -3.63272e-06 8.62235e-05 5.37858 4.08987e-07 -7.99402e-12)
(-2.57099e-14 -6.9459e-20 0 -270.766 1.42538e-20 8.69109e-05 5.52458 0 -2.13214e-13)
(1.02839e-13 -1.33548e-22 0 -270.766 -2.41805e-06 8.69109e-05 5.52458 -3.70718e-07 -8.45192e-12)
(-2.53013e-14 0 0 -272.119 1.22887e-05 8.81414e-05 5.64582 -1.17258e-08 -6.68455e-13)
(0 0 0 -272.119 1.24765e-05 8.81414e-05 5.64582 3.83126e-07 -7.60425e-12)
(-2.48892e-14 -1.82285e-19 0 -272.301 1.0269e-20 8.9413e-05 5.74342 0 3.06257e-13)
(0 0 0 -272.301 -1.39075e-05 8.9413e-05 5.74342 -3.52869e-07 -8.47701e-12)
(-2.44749e-14 0 0 -271.441 6.46773e-06 9.0466e-05 5.81903 -3.00158e-07 -5.69229e-13)
(9.78997e-14 7.50087e-23 0 -271.441 6.65444e-06 9.04659e-05 5.81903 1.06452e-07 -8.32264e-12)
(-1.56332e-14 -5.23585e-19 0 -269.653 -1.53323e-20 9.1272e-05 5.87431 1.05879e-22 1.34285e-12)
(3.96928e-14 0 0 -269.653 -1.35251e-05 9.12721e-05 5.87431 -2.04756e-07 -8.42244e-12)
(3.91239e-14 -4.80136e-19 0 -267.045 3.79509e-06 9.25604e-05 5.91081 -4.20679e-08 -8.27893e-13)
(0 0 0 -267.045 2.31593e-05 9.25606e-05 5.91081 -1.76058e-07 -8.1678e-12)
(-2.32303e-14 -1.79574e-23 0 -263.721 -1.86675e-05 9.40941e-05 5.9299 -1.02483e-07 -6.8876e-13)
(0 3.59147e-23 0 -263.721 -1.84604e-05 9.4094e-05 5.9299 3.23048e-07 -9.81323e-12)
(0 -6.84439e-20 0 -259.791 -1.18585e-20 9.45692e-05 5.93333 0 6.1407e-13)
(2.20556e-13 -2.10684e-22 0 -259.791 -5.40074e-06 9.45692e-05 5.93333 -4.00518e-07 -1.08038e-11)
(-1.87328e-14 3.48926e-23 -4.46626e-21 -255.345 2.06464e-05 9.57639e-05 5.92294 -2.15324e-07 -2.59427e-13)
(8.96344e-14 0 0 -255.345 2.08486e-05 9.57638e-05 5.92294 2.23806e-07 -7.97781e-12)
(-4.04668e-14 1.56639e-22 -4.40224e-21 -250.464 -2.31431e-05 9.68538e-05 5.89981 -4.12723e-07 1.40609e-12)
(-8.80097e-14 -6.8785e-23 0 -250.464 -2.29157e-05 9.68539e-05 5.89981 -1.0373e-07 -1.00557e-11)
(-3.40048e-15 -9.13359e-36 8.67829e-21 -245.232 1.01644e-20 9.76564e-05 5.86549 1.05879e-22 -1.20279e-12)
(-8.64007e-14 0 -8.67829e-21 -245.232 1.67611e-05 9.76566e-05 5.86549 -3.01319e-07 -9.34253e-12)
(1.79389e-14 3.34137e-23 0 -239.721 -6.1056e-06 9.89633e-05 5.82147 -1.46888e-07 -2.05038e-13)
(-1.79389e-14 0 0 -239.721 -5.87621e-06 9.89631e-05 5.82147 3.14372e-07 -1.1008e-11)
(0 -3.2689e-19 0 -233.998 1.01644e-20 9.92636e-05 5.76892 1.05879e-22 6.97395e-13)
(6.55556e-14 -7.5484e-24 0 -233.998 -1.42216e-05 9.92636e-05 5.76892 -4.26613e-07 -1.06546e-11)
(-1.44352e-14 1.94777e-22 -8.31047e-21 -228.119 1.85531e-05 9.97519e-05 5.7092 -4.89524e-07 1.01624e-12)
(0 -6.49256e-23 0 -228.119 1.87864e-05 9.9752e-05 5.7092 -1.22848e-08 -1.04204e-11)
(0 -2.5598e-22 0 -222.13 -7.39318e-06 0.000100779 5.6432 -4.46886e-07 -6.31566e-13)
(1.60312e-13 2.5598e-22 0 -222.13 -7.16743e-06 0.000100779 5.6432 3.85991e-08 -1.07597e-11)
(0 -1.37772e-19 8.07396e-21 -216.077 -8.47033e-22 0.000101093 5.57185 0 1.86827e-12)
(1.74231e-13 0 0 -216.077 -6.10261e-06 0.000101093 5.57185 -1.80647e-07 -1.23632e-11)
(-3.85829e-14 1.29591e-22 0 -209.999 8.88594e-06 0.000101513 5.49618 -1.36915e-07 -3.17332e-13)
(0 0 0 -209.999 9.1169e-06 0.000101513 5.49618 -1.00607e-07 -1.02566e-11)
(-1.89266e-14 0 0 -203.93 -8.71779e-06 0.000101908 5.41691 -4.39758e-07 2.20173e-12)
(1.51413e-13 0 0 -203.93 -8.45226e-06 0.000101908 5.41691 7.26677e-08 -1.39435e-11)
(1.85678e-14 -2.3139e-22 0 -197.899 9.12524e-21 0.000101918 5.33486 0 -7.09174e-13)
(0 0 0 -197.899 2.29418e-06 0.000101918 5.33486 -3.11572e-07 -1.14716e-11)
(-1.82151e-14 0 0 -191.928 4.75524e-06 0.000102259 5.25065 -3.74934e-07 2.66763e-12)
(0 0 0 -191.928 5.03376e-06 0.000102259 5.25065 1.57093e-07 -1.43462e-11)
(-1.78687e-14 7.52645e-23 0 -186.036 -1.18925e-05 0.000101984 5.1647 -1.63699e-07 3.53235e-13)
(7.14748e-14 0 0 -186.036 -1.49486e-05 0.000101984 5.1647 -1.63588e-07 -1.11688e-11)
(-1.75284e-14 9.40395e-38 0 -180.243 2.18607e-22 0.000101658 5.07772 3.03378e-38 2.89321e-12)
(5.45863e-14 0 0 -180.243 1.53286e-05 0.000101658 5.07772 -2.34438e-07 -1.63252e-11)
(-3.43887e-14 0 0 -174.556 -3.85129e-06 0.000101913 4.99003 -2.77146e-07 -2.54903e-12)
(0 0 0 -174.556 -3.59926e-06 0.000101913 4.99003 2.87082e-07 -1.12575e-11)
(-1.68665e-14 -1.0996e-19 0 -168.988 0 0.000101256 4.90184 0 6.44368e-12)
(-1.50855e-14 0 -7.19333e-21 -168.988 -1.10749e-05 0.000101256 4.90184 -3.24911e-07 -1.86493e-11)
(0 0 7.09023e-21 -163.55 1.59588e-05 0.000100817 4.81372 -5.92934e-07 -2.79143e-12)
(-5.13094e-14 0 0 -163.55 1.62059e-05 0.000100817 4.81372 -5.06454e-09 -9.28539e-12)
(1.62289e-14 0 0 -158.246 -1.81345e-05 0.000100185 4.72591 -4.32219e-07 9.10098e-12)
(6.49157e-14 0 0 -158.246 -1.77772e-05 0.000100186 4.72591 1.68163e-07 -2.28749e-11)
(1.59192e-14 -3.13595e-22 0 -153.079 1.01644e-20 9.94111e-05 4.63855 -2.11758e-22 -6.04336e-12)
(-6.36767e-14 0 0 -153.079 1.66555e-05 9.9411e-05 4.63855 -5.16582e-07 -8.58502e-12)
(-1.56154e-14 3.97835e-23 0 -148.053 -1.1861e-05 9.88501e-05 4.55187 7.85232e-08 1.1479e-11)
(3.39833e-14 -3.97835e-23 0 -148.053 -1.14676e-05 9.88503e-05 4.55187 7.0535e-07 -2.63207e-11)
(0 -2.08808e-22 0 -143.172 0 9.78946e-05 4.46607 0 -8.15748e-12)
(-2.80699e-14 0 0 -143.172 6.29821e-06 9.78943e-05 4.46607 -5.61652e-07 -6.5942e-12)
(0 0 -1.3193e-20 -138.435 -8.74514e-06 9.6707e-05 4.38134 2.9449e-07 1.61475e-11)
(4.62666e-14 -5.1535e-23 0 -138.435 -8.31134e-06 9.67074e-05 4.38134 9.49914e-07 -3.1486e-11)
(-1.25326e-14 -4.99436e-22 0 -133.843 1.52466e-20 9.52844e-05 4.29774 2.11758e-22 -1.27192e-11)
(2.72711e-14 0 0 -133.843 6.16938e-06 9.52842e-05 4.29774 -5.89399e-07 -4.01055e-12)
(0 0 0 -129.393 4.15981e-06 9.4455e-05 4.21544 5.19612e-07 2.10256e-11)
(-5.78297e-14 0 0 -129.393 4.64295e-06 9.44553e-05 4.21544 1.20593e-06 -3.7753e-11)
(-1.32475e-14 -1.12853e-19 -1.26338e-20 -125.083 1.52466e-20 9.29794e-05 4.13437 0 -1.76615e-11)
(0 0 0 -125.083 -1.31215e-05 9.29789e-05 4.13437 -6.21358e-07 7.34808e-13)
(0 6.08042e-23 0 -120.913 1.62113e-05 9.16546e-05 4.05469 1.16249e-07 2.98627e-11)
(0 -4.86434e-23 0 -120.913 1.67571e-05 9.16552e-05 4.05469 8.36057e-07 -4.68762e-11)
(1.36464e-14 -3.29821e-19 0 -116.881 0 9.00106e-05 3.97649 -2.11758e-22 -2.69413e-11)
(0 0 0 -116.881 -1.98361e-05 9.00099e-05 3.97649 -4.25952e-07 9.65516e-12)
(1.33865e-14 0 0 -112.982 1.73752e-05 8.81504e-05 3.89977 -5.40634e-07 4.56144e-11)
(-1.2686e-14 0 0 -112.982 1.80192e-05 8.81514e-05 3.89977 2.15448e-07 -6.05852e-11)
(-2.62631e-14 4.27179e-25 0 -109.212 -9.60977e-06 8.67667e-05 3.82446 -5.60762e-07 -4.412e-11)
(5.25262e-14 0 0 -109.212 -9.50938e-06 8.67657e-05 3.82446 2.13047e-07 2.49552e-11)
(-1.28815e-14 -1.80397e-20 0 -105.567 -4.23516e-22 8.45143e-05 3.75058 0 6.58331e-11)
(0 0 0 -105.567 -1.52786e-06 8.45156e-05 3.75058 -7.82232e-08 -8.39755e-11)
(0 0 0 -102.042 1.10973e-05 8.28437e-05 3.67813 -4.05711e-07 -6.60263e-11)
(0 0 -1.15855e-20 -102.042 1.11005e-05 8.28422e-05 3.67813 1.91562e-07 4.80809e-11)
(0 0 0 -98.6316 -1.50247e-05 8.08495e-05 3.60693 -4.77265e-07 9.56933e-11)
(0 0 0 -98.6316 -1.40854e-05 8.08513e-05 3.60693 3.60831e-07 -1.154e-10)
(-2.36051e-14 1.17549e-37 -1.12558e-20 -95.3319 3.2116e-22 7.82791e-05 3.53703 -2.11758e-22 -9.99813e-11)
(0 0 0 -95.3319 7.41438e-06 7.82771e-05 3.53703 -2.96269e-07 7.81867e-11)
(0 8.66756e-23 0 -92.1359 3.02207e-07 7.62443e-05 3.46834 -1.89582e-07 1.37604e-10)
(9.5433e-14 -4.33378e-23 -2.2189e-20 -92.1359 1.46091e-06 7.62468e-05 3.46834 6.94934e-07 -1.57122e-10)
(-2.34051e-14 0 0 -89.0386 0 7.41621e-05 3.40063 -2.11758e-22 -1.48145e-10)
(4.68102e-14 0 0 -89.0385 -1.05218e-06 7.41591e-05 3.40063 -2.27918e-07 1.27086e-10)
(1.14805e-14 -8.42089e-23 1.07787e-20 -86.0365 -7.49261e-06 7.14283e-05 3.33394 -2.086e-07 2.01571e-10)
(0 8.42089e-23 0 -86.0365 -6.0357e-06 7.1432e-05 3.33394 7.26379e-07 -2.21662e-10)
(0 -3.00443e-34 0 -83.125 1.04526e-20 6.86125e-05 3.26819 0 -2.22234e-10)
(-4.50513e-14 0 0 -83.125 6.18502e-06 6.86083e-05 3.26819 -4.49305e-07 1.98153e-10)
(-1.10496e-14 -9.20389e-23 0 -80.2995 -2.5151e-06 6.61047e-05 3.20327 6.46904e-08 2.9358e-10)
(4.41982e-14 9.20389e-23 0 -80.2995 -6.49582e-07 6.61099e-05 3.20327 1.05452e-06 -3.1406e-10)
(0 -2.07401e-22 0 -77.557 1.01644e-20 6.35326e-05 3.13912 -2.11758e-22 -3.30147e-10)
(-1.08233e-14 0 -2.06438e-20 -77.557 6.88998e-07 6.35264e-05 3.13912 -4.75422e-07 3.05848e-10)
(0 -1.9871e-23 2.03479e-20 -74.895 -7.03912e-06 6.05207e-05 3.07572 1.37214e-07 4.30951e-10)
(1.06682e-14 3.9742e-23 0 -74.895 -4.61338e-06 6.05282e-05 3.07572 1.18677e-06 -4.51421e-10)
(-1.04356e-14 6.67681e-36 0 -72.312 2.41176e-20 5.75276e-05 3.01308 -2.11758e-22 -4.92333e-10)
(0 0 0 -72.312 5.65971e-06 5.75187e-05 3.01308 -6.74323e-07 4.65895e-10)
(-1.01143e-14 -3.49984e-23 1.97688e-20 -69.8049 -9.9063e-06 5.43038e-05 2.9512 3.08813e-07 6.33088e-10)
(8.19155e-14 7.72219e-23 0 -69.8049 -6.70382e-06 5.43146e-05 2.9512 1.5495e-06 -6.53334e-10)
(0 -2.96475e-22 0 -67.3704 1.47384e-20 5.11279e-05 2.89001 0 -7.33837e-10)
(-1.0216e-14 0 0 -67.3704 7.84441e-06 5.11151e-05 2.89001 -9.87129e-07 7.0383e-10)
(-1.00696e-14 8.90963e-20 0 -65.006 -3.61277e-06 4.79349e-05 2.82946 7.77982e-08 9.32719e-10)
(-1.00696e-14 0 -1.92062e-20 -65.006 -6.25687e-06 4.79505e-05 2.82946 2.04722e-06 -9.51059e-10)
(-2.90268e-14 9.59203e-36 0 -62.708 1.75643e-20 4.48237e-05 2.76952 2.93844e-37 -1.09236e-09)
(7.74049e-14 1.18318e-21 0 -62.708 7.34049e-06 4.48051e-05 2.76952 -1.3196e-06 1.05879e-09)
(0 0 0 -60.4735 0 4.14321e-05 2.71007 2.11758e-22 1.37695e-09)
(7.59665e-14 0 0 -60.4735 -8.65418e-06 4.14545e-05 2.71007 2.57885e-06 -1.39241e-09)
(-9.32004e-15 0 0 -58.2993 1.92112e-20 3.80357e-05 2.65109 1.19907e-37 -1.62531e-09)
(0 0 -1.83921e-20 -58.2993 8.38083e-06 3.80089e-05 2.65109 -1.80882e-06 1.58744e-09)
(-3.56288e-16 2.61331e-22 0 -56.1821 -1.20214e-34 3.42961e-05 2.59248 0 2.03644e-09)
(8.26909e-14 0 0 -56.1821 -9.93109e-06 3.43287e-05 2.59248 3.22947e-06 -2.04694e-09)
(0 -4.81482e-35 0 -54.1186 -2.12122e-21 3.12155e-05 2.53413 0 -2.42292e-09)
(3.59222e-14 5.58397e-22 0 -54.1186 1.62672e-05 3.11766e-05 2.53413 -2.42874e-06 2.3779e-09)
(8.81681e-15 8.06705e-22 0 -52.1061 -1.19391e-20 2.73339e-05 2.47598 0 3.01949e-09)
(0 0 0 -52.1061 -2.22643e-05 2.7381e-05 2.47598 4.34423e-06 -3.02232e-09)
(1.73142e-14 -2.90103e-21 0 -50.1423 8.51904e-20 2.40183e-05 2.41796 8.47033e-22 -3.61109e-09)
(2.55266e-14 0 -1.73602e-20 -50.1423 2.65896e-05 2.39619e-05 2.41796 -3.73677e-06 3.55593e-09)
(8.97128e-15 9.62965e-35 0 -48.2252 2.53639e-21 2.0274e-05 2.36001 0 4.48004e-09)
(-8.97128e-15 0 -1.71114e-20 -48.2252 -2.77871e-05 2.03422e-05 2.36001 6.10646e-06 -4.48025e-09)
(0 -9.82893e-22 1.68661e-20 -46.3531 3.6726e-20 1.69341e-05 2.30209 8.47033e-22 -5.38425e-09)
(4.22413e-14 0 0 -46.3531 2.91676e-05 1.68521e-05 2.30209 -5.48753e-06 5.32385e-09)
(1.6404e-14 3.64899e-21 0 -44.5245 -7.45389e-20 1.27259e-05 2.24417 -8.47033e-22 6.66195e-09)
(0 0 0 -44.5245 -3.37162e-05 1.28252e-05 2.24417 8.2196e-06 -6.655e-09)
(8.05832e-15 -2.6332e-21 0 -42.7384 4.89437e-20 9.35311e-06 2.18624 0 -8.04022e-09)
(3.22333e-14 2.04826e-21 0 -42.7384 3.79911e-05 9.23371e-06 2.18624 -7.77681e-06 7.96959e-09)
(0 2.58571e-21 5.23768e-20 -40.9934 -9.48677e-20 8.47033e-22 2.12827 0 0)
(3.16747e-14 -2.01891e-21 7.46163e-20 -40.9934 -4.36182e-05 1.53478e-06 2.12827 1.10812e-05 -9.90507e-09)
(-7.78309e-15 0 0 -39.2889 0 1.60799e-06 2.07024 -1.69407e-21 -1.20235e-08)
(-3.11323e-14 0 0 -39.2889 5.01891e-05 1.43381e-06 2.07024 -1.09157e-05 1.19335e-08)
(-1.58784e-14 -4.2882e-35 0 -37.6245 -7.62968e-20 -8.62828e-23 2.01219 -1.69407e-21 -1.65436e-24)
(0 0 0 -37.6245 -5.86931e-05 -2.23117e-06 2.01219 1.50037e-05 -1.47801e-08)
(-7.52398e-15 0 0 -36.0007 9.48677e-20 -6.44333e-06 1.95414 -1.59217e-50 -1.80071e-08)
(-3.00959e-14 0 0 -36.0007 6.68322e-05 -6.69782e-06 1.95414 -1.53391e-05 1.78901e-08)
(0 2.77305e-34 9.52099e-20 -34.4189 0 -3.91187e-06 1.89618 0 2.21811e-08)
(7.99277e-15 0 0 -34.4189 -7.62026e-05 -9.82602e-06 1.89618 2.04243e-05 -2.21058e-08)
(0 -3.26764e-21 0 -32.8818 0 -1.48891e-05 1.83848 0 -2.70109e-08)
(6.61253e-14 0 0 -32.8818 8.32409e-05 -1.52617e-05 1.83848 -2.14185e-05 2.68558e-08)
(-7.16523e-15 1.50463e-36 0 -31.3935 -2.71051e-20 -1.64657e-05 1.78127 9.79248e-37 3.32583e-08)
(2.86609e-14 0 0 -31.3935 -9.07689e-05 -2.00676e-05 1.78127 2.76133e-05 -3.31387e-08)
(-1.5308e-14 -4.38687e-21 -1.45989e-20 -29.9595 1.6263e-19 -2.31368e-05 1.72489 0 -4.05954e-08)
(-2.82134e-14 -1.09491e-20 0 -29.9595 9.98523e-05 -2.36841e-05 1.72489 -2.93159e-05 4.03866e-08)
(0 1.71528e-34 8.21268e-22 -28.5862 -3.14929e-19 -2.68596e-05 1.66976 -3.9984e-36 4.99881e-08)
(-7.5443e-15 1.43896e-20 0 -28.5862 -0.000115729 -2.92605e-05 1.66976 3.69596e-05 -4.98055e-08)
(-5.95776e-16 1.12847e-35 -2.83668e-20 -27.2805 2.3618e-20 -3.16009e-05 1.61638 0 -6.11451e-08)
(2.73616e-14 -7.09169e-21 0 -27.2805 0.0001347 -3.24064e-05 1.61638 -4.00668e-05 6.08602e-08)
(0 3.85186e-34 6.90561e-20 -26.0486 -2.6381e-20 -3.35154e-05 1.56527 6.77626e-21 7.53111e-08)
(0 0 0 -26.0486 -0.000157501 -3.84073e-05 1.56527 5.00638e-05 -7.50387e-08)
(1.44491e-14 -1.61044e-20 2.75594e-20 -24.8955 2.71051e-19 -4.04413e-05 1.51689 0 -9.22924e-08)
(0 1.37797e-20 0 -24.8955 0.000178036 -4.16294e-05 1.51689 -5.53383e-05 9.18997e-08)
(-1.3089e-14 -1.50463e-35 0 -23.8242 -3.63787e-20 -3.77066e-05 1.47168 0 1.13731e-07)
(0 0 0 -23.8242 -0.000201401 -4.79089e-05 1.47168 6.8271e-05 -1.1333e-07)
(5.6786e-16 -1.09877e-20 2.67751e-20 -22.8352 2.8131e-19 -4.8585e-05 1.4299 0 -1.39631e-07)