/*--------------------------------*- C++ -*----------------------------------*\
| =========                 |                                                 |
| \\      /  F ield         | OpenFOAM: The Open Source CFD Toolbox           |
|  \\    /   O peration     | Version:  2012                                  |
|   \\  /    A nd           | Website:  www.openfoam.com                      |
|    \\/     M anipulation  |                                                 |
\*---------------------------------------------------------------------------*/
FoamFile
{
    version     2.0;
    format      ascii;
    class       volScalarField;
    location    "11400";
    object      p;
}
// * * * * * * * * * * * * * * * * * * * * * * * * * * * * * * * * * * * * * //

dimensions      [0 2 -2 0 0 0 0];


internalField   nonuniform List<scalar> 
2560
(
2.42852e-09
-5.04803e-05
-4.2725e-08
-5.05109e-05
-2.48223e-07
-5.07025e-05
-8.65445e-07
-5.13129e-05
-2.2559e-06
-5.27042e-05
-4.95077e-06
-5.54004e-05
-9.6426e-06
-6.00917e-05
-1.71217e-05
-6.75702e-05
-2.83181e-05
-7.87669e-05
-4.4308e-05
-9.47566e-05
-6.63024e-05
-0.000116751
-9.56637e-05
-0.000146112
-0.000133877
-0.000184326
-0.000182575
-0.000233023
-0.000243526
-0.000293974
-0.000318635
-0.000369083
-0.000409928
-0.000460375
-0.000519562
-0.000570009
-0.000649846
-0.000700293
-0.000803186
-0.000853632
-0.000982086
-0.00103253
-0.00118922
-0.00123966
-0.00142737
-0.00147782
-0.00169936
-0.00174981
-0.00200814
-0.00205858
-0.00235684
-0.00240729
-0.00274863
-0.00279908
-0.00318667
-0.00323711
-0.00367428
-0.00372472
-0.00421496
-0.0042654
-0.00481218
-0.00486263
-0.00546939
-0.00551983
-0.00619018
-0.00624063
-0.00697834
-0.00702878
-0.00783751
-0.00788795
-0.00877132
-0.00882176
-0.00978363
-0.00983407
-0.0108784
-0.0109288
-0.0120593
-0.0121097
-0.0133301
-0.0133805
-0.0146948
-0.0147452
-0.0161574
-0.0162078
-0.0177217
-0.0177721
-0.0193914
-0.0194418
-0.0211706
-0.0212211
-0.0230632
-0.0231136
-0.025073
-0.0251235
-0.0272038
-0.0272542
-0.0294594
-0.0295098
-0.0318441
-0.0318946
-0.0343611
-0.0344115
-0.0370132
-0.0370636
-0.0398064
-0.0398569
-0.0427428
-0.0427932
-0.0458256
-0.045876
-0.04906
-0.0491105
-0.0524476
-0.052498
-0.0559934
-0.0560439
-0.0596998
-0.0597502
-0.0635694
-0.0636199
-0.0676064
-0.0676569
-0.0718138
-0.0718642
-0.0761952
-0.0762456
-0.0807508
-0.0808012
-0.0854854
-0.0855358
-0.0904027
-0.0904531
-0.095502
-0.0955524
-0.100788
-0.100838
-0.106261
-0.106311
-0.111925
-0.111976
-0.11778
-0.117831
-0.123828
-0.123879
-0.130072
-0.130122
-0.13651
-0.13656
-0.143146
-0.143196
-0.149978
-0.150029
-0.15701
-0.15706
-0.164238
-0.164288
-0.171666
-0.171716
-0.17929
-0.17934
-0.187113
-0.187163
-0.19513
-0.195181
-0.203344
-0.203394
-0.211751
-0.211802
-0.220349
-0.2204
-0.229137
-0.229188
-0.238114
-0.238164
-0.247275
-0.247325
-0.256618
-0.256669
-0.26614
-0.26619
-0.275835
-0.275886
-0.285703
-0.285753
-0.295737
-0.295788
-0.305935
-0.305985
-0.316288
-0.316338
-0.326795
-0.326846
-0.33745
-0.337501
-0.348244
-0.348295
-0.359176
-0.359226
-0.370236
-0.370286
-0.381419
-0.381469
-0.39272
-0.392771
-0.404129
-0.404179
-0.41564
-0.415691
-0.427247
-0.427298
-0.438941
-0.438992
-0.450716
-0.450766
-0.462562
-0.462613
-0.474473
-0.474523
-0.48644
-0.486491
-0.498455
-0.498505
-0.510509
-0.510559
-0.522595
-0.522646
-0.534704
-0.534754
-0.546828
-0.546879
-0.558957
-0.559008
-0.571085
-0.571136
-0.583202
-0.583253
-0.595301
-0.595352
-0.607372
-0.607423
-0.619407
-0.619457
-0.631398
-0.631449
-0.643337
-0.643388
-0.655218
-0.655269
-0.66703
-0.66708
-0.678767
-0.678817
-0.690421
-0.690472
-0.701984
-0.702034
-0.71345
-0.713501
-0.724811
-0.724862
-0.73606
-0.73611
-0.74719
-0.74724
-0.758195
-0.758246
-0.769068
-0.769118
-0.779801
-0.779852
-0.790391
-0.790441
-0.80083
-0.80088
-0.811112
-0.811162
-0.821233
-0.821283
-0.831184
-0.831235
-0.840964
-0.841015
-0.850565
-0.850616
-0.859986
-0.860036
-0.869218
-0.869269
-0.878262
-0.878312
-0.887109
-0.887159
-0.895761
-0.895811
-0.904209
-0.904259
-0.912457
-0.912507
-0.920494
-0.920545
-0.928329
-0.928379
-0.935947
-0.935998
-0.943359
-0.943409
-0.950549
-0.950601
-0.957533
-0.957583
-0.964289
-0.964341
-0.97084
-0.970889
-0.977157
-0.97721
-0.983271
-0.98332
-0.989147
-0.9892
-0.994824
-0.994871
-1.00026
-1.00031
-1.0055
-1.00554
-1.01048
-1.01054
-1.01529
-1.01534
-1.01984
-1.01989
-1.02422
-1.02426
-1.02832
-1.02838
-1.03227
-1.03231
-1.03593
-1.036
-1.03948
-1.03951
-1.04269
-1.04277
-1.04584
-1.04586
-1.04862
-1.0487
-1.05137
-1.05139
-1.05372
-1.05381
-1.05611
-1.05611
-1.05802
-1.05813
-1.06007
-1.06005
-1.06154
-1.06169
-1.0633
-1.06324
-1.06432
-1.06451
-1.06582
-1.06571
-1.06638
-1.06663
-1.06767
-1.06749
-1.06801
-1.06808
-1.06889
-1.06861
-1.06907
-1.0689
-1.06949
-1.06909
-1.06951
-1.0691
-1.06916
-1.06897
-1.06901
-1.06871
-1.06824
-1.06827
-1.06795
-1.06775
-1.0668
-1.06702
-1.06636
-1.06623
-1.06507
-1.06523
-1.06428
-1.06419
-1.06282
-1.06294
-1.06171
-1.06167
-1.06009
-1.06018
-1.0587
-1.05867
-1.0569
-1.05697
-1.05524
-1.05523
-1.05326
-1.05332
-1.05136
-1.05137
-1.0492
-1.04925
-1.04708
-1.04709
-1.04474
-1.04478
-1.04241
-1.04243
-1.0399
-1.03993
-1.03737
-1.03739
-1.03469
-1.03472
-1.03198
-1.032
-1.02913
-1.02916
-1.02625
-1.02627
-1.02324
-1.02327
-1.02019
-1.02021
-1.01703
-1.01706
-1.01381
-1.01383
-1.01049
-1.01051
-1.00709
-1.00712
-1.0036
-1.00363
-1.00003
-1.00005
-0.996353
-0.996379
-0.992598
-0.992623
-0.988744
-0.98877
-0.984813
-0.984838
-0.980792
-0.980817
-0.976696
-0.976721
-0.972514
-0.972539
-0.968254
-0.968278
-0.963904
-0.963929
-0.959472
-0.959496
-0.954948
-0.954972
-0.950339
-0.950363
-0.945637
-0.945662
-0.94085
-0.940873
-0.935967
-0.935991
-0.930994
-0.931017
-0.925928
-0.925952
-0.920775
-0.920799
-0.915537
-0.915561
-0.910218
-0.910241
-0.904816
-0.904839
-0.899332
-0.899355
-0.893767
-0.89379
-0.88812
-0.888143
-0.882389
-0.882412
-0.876573
-0.876596
-0.870668
-0.87069
-0.864675
-0.864697
-0.858596
-0.858618
-0.852432
-0.852453
-0.846184
-0.846205
-0.839858
-0.839879
-0.833459
-0.83348
-0.826994
-0.827015
-0.820468
-0.820489
-0.813878
-0.813899
-0.807221
-0.807242
-0.800485
-0.800506
-0.793665
-0.793686
-0.786752
-0.786772
-0.779739
-0.779759
-0.772628
-0.772648
-0.765428
-0.765447
-0.758145
-0.758164
-0.750794
-0.750813
-0.74338
-0.743399
-0.735904
-0.735922
-0.728357
-0.728375
-0.720735
-0.720752
-0.713035
-0.713052
-0.705264
-0.705281
-0.69742
-0.697436
-0.689508
-0.689524
-0.681521
-0.681537
-0.673465
-0.67348
-0.665329
-0.665343
-0.657118
-0.657132
-0.648829
-0.648842
-0.640478
-0.640491
-0.632064
-0.632076
-0.623607
-0.623619
-0.615106
-0.615117
-0.606587
-0.606598
-0.59805
-0.59806
-0.589523
-0.589534
-0.581003
-0.581013
-0.57252
-0.57253
-0.564061
-0.56407
-0.555659
-0.555669
-0.547302
-0.547311
-0.539022
-0.539032
-0.530786
-0.530794
-0.522619
-0.522628
-0.514498
-0.514505
-0.506477
-0.506486
-0.498541
-0.498546
-0.490761
-0.49077
-0.483142
-0.483147
-0.475768
-0.475776
-0.468617
-0.46862
-0.461748
-0.461756
-0.455112
-0.455113
-0.448761
-0.448768
-0.442657
-0.442655
-0.436884
-0.436888
-0.431418
-0.43141
-0.426343
-0.426343
-0.421635
-0.421621
-0.417369
-0.417363
-0.413519
-0.413496
-0.410158
-0.410143
-0.407275
-0.407244
-0.404916
-0.404891
-0.403073
-0.403035
-0.401808
-0.401773
-0.401154
-0.401112
-0.000140017
-0.000261855
-0.000140047
-0.000261885
-0.000140239
-0.000262077
-0.000140849
-0.000262688
-0.00014224
-0.000264079
-0.000144937
-0.000266776
-0.000149628
-0.000271468
-0.000157106
-0.000278946
-0.000168303
-0.000290143
-0.000184293
-0.000306133
-0.000206287
-0.000328127
-0.000235648
-0.000357488
-0.000273861
-0.000395702
-0.000322558
-0.0004444
-0.000383509
-0.000505351
-0.000458618
-0.000580459
-0.00054991
-0.000671752
-0.000659543
-0.000781386
-0.000789827
-0.00091167
-0.000943166
-0.00106501
-0.00112207
-0.00124391
-0.0013292
-0.00145104
-0.00156735
-0.0016892
-0.00183934
-0.00196119
-0.00214812
-0.00226996
-0.00249682
-0.00261866
-0.00288861
-0.00301046
-0.00332664
-0.00344849
-0.00381425
-0.0039361
-0.00435493
-0.00447678
-0.00495216
-0.005074
-0.00560936
-0.00573121
-0.00633015
-0.00645201
-0.00711831
-0.00724016
-0.00797747
-0.00809933
-0.00891129
-0.00903314
-0.0099236
-0.0100455
-0.0110183
-0.0111402
-0.0121992
-0.0123211
-0.0134701
-0.0135919
-0.0148347
-0.0149566
-0.0162973
-0.0164192
-0.0178616
-0.0179835
-0.0195314
-0.0196532
-0.0213106
-0.0214325
-0.0232032
-0.023325
-0.025213
-0.0253349
-0.0273437
-0.0274656
-0.0295993
-0.0297212
-0.0319841
-0.032106
-0.0345011
-0.0346229
-0.0371532
-0.037275
-0.0399464
-0.0400683
-0.0428827
-0.0430046
-0.0459655
-0.0460874
-0.0492
-0.0493219
-0.0525875
-0.0527094
-0.0561334
-0.0562553
-0.0598397
-0.0599616
-0.0637094
-0.0638313
-0.0677464
-0.0678683
-0.0719537
-0.0720756
-0.0763351
-0.076457
-0.0808907
-0.0810126
-0.0856253
-0.0857472
-0.0905426
-0.0906645
-0.0956419
-0.0957638
-0.100928
-0.10105
-0.106401
-0.106523
-0.112065
-0.112187
-0.11792
-0.118042
-0.123968
-0.12409
-0.130212
-0.130334
-0.13665
-0.136772
-0.143285
-0.143407
-0.150118
-0.15024
-0.15715
-0.157272
-0.164378
-0.1645
-0.171805
-0.171927
-0.17943
-0.179552
-0.187252
-0.187374
-0.19527
-0.195392
-0.203484
-0.203606
-0.211891
-0.212013
-0.220489
-0.220611
-0.229277
-0.229399
-0.238253
-0.238375
-0.247415
-0.247537
-0.256758
-0.25688
-0.26628
-0.266402
-0.275975
-0.276097
-0.285843
-0.285965
-0.295877
-0.295999
-0.306075
-0.306197
-0.316428
-0.31655
-0.326935
-0.327057
-0.33759
-0.337712
-0.348384
-0.348506
-0.359316
-0.359438
-0.370375
-0.370497
-0.381559
-0.381681
-0.39286
-0.392982
-0.404269
-0.404391
-0.41578
-0.415902
-0.427387
-0.427509
-0.439081
-0.439203
-0.450856
-0.450978
-0.462702
-0.462824
-0.474612
-0.474735
-0.48658
-0.486702
-0.498594
-0.498717
-0.510648
-0.510771
-0.522735
-0.522857
-0.534844
-0.534966
-0.546968
-0.54709
-0.559097
-0.559219
-0.571225
-0.571347
-0.583342
-0.583464
-0.595441
-0.595563
-0.607512
-0.607634
-0.619546
-0.619669
-0.631538
-0.631661
-0.643477
-0.643599
-0.655358
-0.65548
-0.66717
-0.667292
-0.678907
-0.679029
-0.690561
-0.690683
-0.702124
-0.702246
-0.71359
-0.713712
-0.724951
-0.725073
-0.736199
-0.736322
-0.747329
-0.747452
-0.758335
-0.758457
-0.769207
-0.76933
-0.779941
-0.780064
-0.79053
-0.790653
-0.800969
-0.801092
-0.811252
-0.811374
-0.821372
-0.821495
-0.831324
-0.831447
-0.841104
-0.841226
-0.850705
-0.850828
-0.860125
-0.860248
-0.869358
-0.869481
-0.878401
-0.878524
-0.887248
-0.887371
-0.8959
-0.896023
-0.904348
-0.904471
-0.912596
-0.912719
-0.920634
-0.920757
-0.928468
-0.928591
-0.936087
-0.936209
-0.943498
-0.943621
-0.95069
-0.950812
-0.957672
-0.957795
-0.96443
-0.964552
-0.970978
-0.971102
-0.977299
-0.97742
-0.983408
-0.983533
-0.989289
-0.98941
-0.99496
-0.995086
-1.0004
-1.00052
-1.00563
-1.00576
-1.01063
-1.01075
-1.01543
-1.01555
-1.01998
-1.0201
-1.02435
-1.02448
-1.02847
-1.02858
-1.0324
-1.03254
-1.03609
-1.03619
-1.0396
-1.03974
-1.04285
-1.04296
-1.04595
-1.0461
-1.04879
-1.04888
-1.05148
-1.05164
-1.0539
-1.05398
-1.0562
-1.05637
-1.05822
-1.05828
-1.06014
-1.06034
-1.06177
-1.06181
-1.06332
-1.06356
-1.06459
-1.06459
-1.06579
-1.06608
-1.06672
-1.06665
-1.06757
-1.06793
-1.06817
-1.06828
-1.06869
-1.06915
-1.06899
-1.06933
-1.06918
-1.06975
-1.06919
-1.06977
-1.06906
-1.06942
-1.0688
-1.06927
-1.06836
-1.0685
-1.06783
-1.06821
-1.0671
-1.06706
-1.06632
-1.06663
-1.06532
-1.06533
-1.06428
-1.06454
-1.06303
-1.06309
-1.06175
-1.06198
-1.06027
-1.06036
-1.05876
-1.05896
-1.05705
-1.05716
-1.05532
-1.0555
-1.0534
-1.05353
-1.05145
-1.05163
-1.04934
-1.04947
-1.04718
-1.04735
-1.04487
-1.04501
-1.04251
-1.04268
-1.04002
-1.04016
-1.03748
-1.03764
-1.03481
-1.03496
-1.03208
-1.03224
-1.02925
-1.0294
-1.02635
-1.02651
-1.02336
-1.02351
-1.0203
-1.02046
-1.01714
-1.0173
-1.01392
-1.01408
-1.0106
-1.01075
-1.0072
-1.00736
-1.00371
-1.00387
-1.00014
-1.0003
-0.996461
-0.996623
-0.992705
-0.992868
-0.988851
-0.989014
-0.984919
-0.985083
-0.980898
-0.981063
-0.976801
-0.976967
-0.972619
-0.972786
-0.968357
-0.968525
-0.964008
-0.964176
-0.959575
-0.959745
-0.95505
-0.955221
-0.95044
-0.950612
-0.945739
-0.945912
-0.94095
-0.941124
-0.936067
-0.936242
-0.931093
-0.931269
-0.926027
-0.926204
-0.920873
-0.921052
-0.915635
-0.915815
-0.910315
-0.910496
-0.904912
-0.905095
-0.899427
-0.899611
-0.893862
-0.894047
-0.888214
-0.8884
-0.882483
-0.882671
-0.876665
-0.876854
-0.87076
-0.87095
-0.864765
-0.864957
-0.858686
-0.85888
-0.85252
-0.852715
-0.846273
-0.84647
-0.839944
-0.840142
-0.833546
-0.833746
-0.827078
-0.82728
-0.820554
-0.820757
-0.81396
-0.814165
-0.807306
-0.807513
-0.800565
-0.800773
-0.793748
-0.793959
-0.786829
-0.787041
-0.779821
-0.780035
-0.772702
-0.772919
-0.765508
-0.765727
-0.758215
-0.758437
-0.750873
-0.751097
-0.743446
-0.743673
-0.735981
-0.736211
-0.728418
-0.72865
-0.720809
-0.721047
-0.713089
-0.713329
-0.705336
-0.705582
-0.697468
-0.697715
-0.689579
-0.689833
-0.681562
-0.681817
-0.673534
-0.673798
-0.66536
-0.665623
-0.657187
-0.657461
-0.648851
-0.649121
-0.640547
-0.640831
-0.632076
-0.632352
-0.623678
-0.623972
-0.615106
-0.615387
-0.606662
-0.606966
-0.598038
-0.598322
-0.589606
-0.589918
-0.580978
-0.581262
-0.572613
-0.572933
-0.56402
-0.564302
-0.555767
-0.556094
-0.547243
-0.547521
-0.539147
-0.539485
-0.530704
-0.530976
-0.522765
-0.523117
-0.514388
-0.514652
-0.50665
-0.507019
-0.498397
-0.498649
-0.490967
-0.491357
-0.482957
-0.483194
-0.476013
-0.476432
-0.468383
-0.468596
-0.462039
-0.462501
-0.45482
-0.454997
-0.4491
-0.449631
-0.442301
-0.442419
-0.437265
-0.437915
-0.430997
-0.431011
-0.426749
-0.427599
-0.421163
-0.420991
-0.417765
-0.418818
-0.41303
-0.41254
-0.410481
-0.410837
-0.40682
-0.405862
-0.405112
-0.404677
-0.402705
-0.401139
-0.401825
-0.400509
-0.400945
-0.398613
-0.401154
-0.401113
-0.401808
-0.401772
-0.403073
-0.403034
-0.404916
-0.404891
-0.407275
-0.407244
-0.410156
-0.410142
-0.413521
-0.413498
-0.417368
-0.417362
-0.421634
-0.421619
-0.426343
-0.426343
-0.431419
-0.431411
-0.436884
-0.436888
-0.442658
-0.442655
-0.448763
-0.448769
-0.455114
-0.455114
-0.461748
-0.461756
-0.468616
-0.468619
-0.475767
-0.475775
-0.48314
-0.483145
-0.490763
-0.490771
-0.498541
-0.498546
-0.506477
-0.506486
-0.514498
-0.514504
-0.522616
-0.522625
-0.530784
-0.530791
-0.539024
-0.539034
-0.5473
-0.547308
-0.55566
-0.55567
-0.564061
-0.56407
-0.572516
-0.572526
-0.581005
-0.581014
-0.589524
-0.589534
-0.598054
-0.598064
-0.606586
-0.606597
-0.615111
-0.615122
-0.623605
-0.623616
-0.632062
-0.632074
-0.640478
-0.64049
-0.648826
-0.648838
-0.65712
-0.657133
-0.665328
-0.665341
-0.673465
-0.673479
-0.681522
-0.681536
-0.689509
-0.689525
-0.697418
-0.697433
-0.705266
-0.705281
-0.713033
-0.713049
-0.720734
-0.72075
-0.728355
-0.728372
-0.735904
-0.735921
-0.743377
-0.743394
-0.750798
-0.750815
-0.758146
-0.758164
-0.765424
-0.765442
-0.772629
-0.772647
-0.779739
-0.779757
-0.786755
-0.786773
-0.793665
-0.793684
-0.800483
-0.800502
-0.807218
-0.807237
-0.813884
-0.813903
-0.820469
-0.820488
-0.826998
-0.827017
-0.833461
-0.83348
-0.839862
-0.839881
-0.846182
-0.846202
-0.852427
-0.852447
-0.8586
-0.85862
-0.864676
-0.864696
-0.870674
-0.870694
-0.876571
-0.876591
-0.882386
-0.882406
-0.888121
-0.888141
-0.893763
-0.893784
-0.899329
-0.89935
-0.904815
-0.904835
-0.910221
-0.910241
-0.915543
-0.915563
-0.920783
-0.920803
-0.925933
-0.925954
-0.930996
-0.931016
-0.93597
-0.935991
-0.940849
-0.94087
-0.945638
-0.945658
-0.950343
-0.950363
-0.954947
-0.954967
-0.959469
-0.959489
-0.963909
-0.963929
-0.968256
-0.968276
-0.972511
-0.972531
-0.976697
-0.976718
-0.980793
-0.980813
-0.984811
-0.984832
-0.988744
-0.988764
-0.992605
-0.992626
-0.99636
-0.99638
-1.00003
-1.00005
-1.00361
-1.00362
-1.0071
-1.00712
-1.01049
-1.01051
-1.01381
-1.01383
-1.01704
-1.01706
-1.02019
-1.02022
-1.02325
-1.02327
-1.02625
-1.02628
-1.02914
-1.02916
-1.03197
-1.032
-1.0347
-1.03472
-1.03737
-1.03739
-1.03991
-1.03992
-1.0424
-1.04243
-1.04476
-1.04476
-1.04706
-1.0471
-1.04923
-1.04923
-1.05134
-1.05139
-1.05329
-1.05328
-1.05521
-1.05526
-1.05695
-1.05692
-1.05865
-1.05872
-1.06016
-1.06012
-1.06164
-1.06174
-1.06292
-1.06285
-1.06417
-1.0643
-1.06521
-1.06509
-1.06621
-1.06639
-1.06699
-1.06682
-1.06772
-1.06798
-1.06825
-1.06827
-1.06869
-1.06903
-1.06895
-1.06918
-1.06908
-1.06953
-1.06907
-1.06951
-1.06887
-1.06908
-1.06858
-1.06891
-1.06806
-1.06803
-1.06746
-1.06769
-1.06661
-1.06641
-1.06568
-1.06584
-1.06448
-1.06435
-1.06321
-1.06332
-1.06166
-1.06157
-1.06002
-1.06009
-1.05811
-1.05804
-1.05609
-1.05614
-1.05379
-1.05374
-1.05136
-1.05139
-1.04867
-1.04864
-1.04584
-1.04586
-1.04275
-1.04273
-1.03949
-1.0395
-1.03598
-1.03596
-1.03229
-1.0323
-1.02835
-1.02833
-1.02423
-1.02423
-1.01986
-1.01985
-1.01532
-1.01532
-1.01051
-1.0105
-1.00551
-1.00551
-1.00028
-1.00027
-0.994835
-0.994834
-0.989193
-0.989186
-0.983301
-0.983298
-0.977174
-0.977168
-0.970882
-0.970879
-0.964317
-0.964311
-0.957543
-0.957539
-0.950598
-0.950593
-0.943401
-0.943397
-0.935987
-0.935982
-0.928377
-0.928374
-0.920498
-0.920493
-0.912495
-0.912491
-0.904225
-0.90422
-0.89578
-0.895777
-0.887141
-0.887137
-0.87827
-0.878266
-0.869207
-0.869203
-0.860007
-0.860003
-0.850627
-0.850623
-0.840955
-0.840952
-0.831201
-0.831197
-0.821254
-0.82125
-0.811155
-0.811151
-0.800873
-0.800869
-0.790459
-0.790455
-0.779873
-0.779869
-0.769068
-0.769065
-0.758211
-0.758207
-0.747266
-0.747262
-0.736058
-0.736055
-0.724783
-0.724779
-0.713496
-0.713492
-0.702048
-0.702044
-0.69048
-0.690477
-0.678766
-0.678763
-0.667084
-0.66708
-0.655274
-0.65527
-0.643385
-0.643382
-0.63138
-0.631377
-0.619468
-0.619464
-0.607452
-0.607449
-0.595266
-0.595262
-0.58329
-0.583286
-0.571167
-0.571163
-0.558969
-0.558966
-0.546796
-0.546792
-0.534734
-0.534731
-0.522553
-0.522549
-0.510515
-0.510512
-0.498535
-0.498531
-0.486394
-0.486391
-0.474494
-0.474491
-0.46263
-0.462626
-0.45068
-0.450677
-0.438964
-0.438961
-0.427356
-0.427353
-0.415652
-0.415649
-0.40407
-0.404067
-0.392775
-0.392771
-0.381436
-0.381433
-0.370228
-0.370225
-0.359167
-0.359164
-0.348268
-0.348265
-0.33752
-0.337517
-0.326776
-0.326773
-0.316378
-0.316375
-0.306
-0.305997
-0.295801
-0.295798
-0.285816
-0.285813
-0.275844
-0.275841
-0.266097
-0.266094
-0.256559
-0.256556
-0.247258
-0.247256
-0.238174
-0.238171
-0.229157
-0.229154
-0.220367
-0.220364
-0.211831
-0.211828
-0.203353
-0.20335
-0.195138
-0.195135
-0.187158
-0.187155
-0.179279
-0.179277
-0.171638
-0.171635
-0.164274
-0.164271
-0.15698
-0.156977
-0.149973
-0.149971
-0.143192
-0.143189
-0.13655
-0.136547
-0.130123
-0.13012
-0.123849
-0.123847
-0.117782
-0.117779
-0.112027
-0.112025
-0.106316
-0.106313
-0.10079
-0.100787
-0.0955728
-0.09557
-0.0904184
-0.0904156
-0.0855529
-0.0855501
-0.0807587
-0.080756
-0.076248
-0.0762452
-0.071801
-0.0717983
-0.0676461
-0.0676433
-0.0636495
-0.0636467
-0.0597284
-0.0597256
-0.0560518
-0.056049
-0.0524727
-0.05247
-0.0491113
-0.0491085
-0.0458579
-0.0458551
-0.0428038
-0.042801
-0.0398595
-0.0398567
-0.0370115
-0.0370088
-0.034366
-0.0343633
-0.0318911
-0.0318884
-0.0295268
-0.029524
-0.0272393
-0.0272366
-0.0250699
-0.0250671
-0.0231141
-0.0231113
-0.0211991
-0.0211963
-0.0194187
-0.0194159
-0.0177394
-0.0177366
-0.0161921
-0.0161894
-0.0147283
-0.0147256
-0.0133451
-0.0133424
-0.0120812
-0.0120785
-0.0109023
-0.0108995
-0.00982065
-0.00981789
-0.00878451
-0.00878174
-0.00787174
-0.00786896
-0.00700366
-0.0070009
-0.00621134
-0.00620857
-0.00549269
-0.00548992
-0.00484299
-0.00484023
-0.00425461
-0.00425186
-0.00370495
-0.00370219
-0.00321016
-0.00320739
-0.00277408
-0.00277131
-0.00238266
-0.0023799
-0.00202677
-0.00202401
-0.00172413
-0.00172137
-0.00145187
-0.00144911
-0.00121194
-0.00120917
-0.00100882
-0.00100605
-0.00083226
-0.000829496
-0.00067702
-0.000674251
-0.000544984
-0.00054221
-0.000436755
-0.000433985
-0.000346367
-0.000343601
-0.000269906
-0.000267136
-0.000208028
-0.000205253
-0.000159914
-0.000157142
-0.000122113
-0.000119345
-9.22172e-05
-8.94467e-05
-6.99538e-05
-6.71802e-05
-5.42147e-05
-5.14433e-05
-4.318e-05
-4.04111e-05
-3.55959e-05
-3.28253e-05
-3.08693e-05
-2.80985e-05
-2.82137e-05
-2.54441e-05
-2.6843e-05
-2.40747e-05
-2.62221e-05
-2.34483e-05
-2.60207e-05
-2.32328e-05
-2.59867e-05
-2.31814e-05
-0.400945
-0.398613
-0.401826
-0.400508
-0.402704
-0.401139
-0.405113
-0.404678
-0.406819
-0.405863
-0.41048
-0.410838
-0.413031
-0.412541
-0.417764
-0.418816
-0.421161
-0.420989
-0.426748
-0.427596
-0.430998
-0.431011
-0.437263
-0.437913
-0.442301
-0.442418
-0.4491
-0.449631
-0.454821
-0.454998
-0.462038
-0.462499
-0.468381
-0.468593
-0.476011
-0.47643
-0.482955
-0.483191
-0.490967
-0.491357
-0.498396
-0.498648
-0.506649
-0.507018
-0.514387
-0.51465
-0.522761
-0.523113
-0.5307
-0.530972
-0.539148
-0.539486
-0.547239
-0.547517
-0.555767
-0.556094
-0.564019
-0.564301
-0.572608
-0.572927
-0.580978
-0.581262
-0.589606
-0.589917
-0.598041
-0.598325
-0.606661
-0.606964
-0.61511
-0.615391
-0.623675
-0.623968
-0.632072
-0.632349
-0.640546
-0.640829
-0.648846
-0.649116
-0.657187
-0.657461
-0.665358
-0.665621
-0.673533
-0.673797
-0.68156
-0.681815
-0.689579
-0.689833
-0.697465
-0.697712
-0.705337
-0.705582
-0.713086
-0.713326
-0.720806
-0.721044
-0.728414
-0.728647
-0.735979
-0.736209
-0.743441
-0.743668
-0.750874
-0.751099
-0.758214
-0.758436
-0.765502
-0.765721
-0.772701
-0.772918
-0.779818
-0.780033
-0.786829
-0.787042
-0.793746
-0.793957
-0.800561
-0.80077
-0.8073
-0.807508
-0.813964
-0.814169
-0.820553
-0.820757
-0.82708
-0.827282
-0.833546
-0.833747
-0.839945
-0.840145
-0.846269
-0.846467
-0.852513
-0.852709
-0.858687
-0.858882
-0.864763
-0.864957
-0.870763
-0.870955
-0.87666
-0.876851
-0.882476
-0.882666
-0.888211
-0.888399
-0.893855
-0.894042
-0.899421
-0.899607
-0.904907
-0.905092
-0.910314
-0.910497
-0.915637
-0.915819
-0.920877
-0.921058
-0.926029
-0.926208
-0.931091
-0.93127
-0.936066
-0.936244
-0.940946
-0.941123
-0.945735
-0.94591
-0.95044
-0.950615
-0.955045
-0.955219
-0.959567
-0.95974
-0.964007
-0.96418
-0.968355
-0.968526
-0.97261
-0.972781
-0.976798
-0.976967
-0.980893
-0.981062
-0.984912
-0.98508
-0.988845
-0.989013
-0.992707
-0.992873
-0.996461
-0.996628
-1.00013
-1.0003
-1.00371
-1.00387
-1.0072
-1.00736
-1.01059
-1.01075
-1.01391
-1.01408
-1.01714
-1.0173
-1.0203
-1.02046
-1.02335
-1.02352
-1.02636
-1.02652
-1.02924
-1.02941
-1.03208
-1.03224
-1.0348
-1.03497
-1.03748
-1.03763
-1.04
-1.04017
-1.04252
-1.04267
-1.04485
-1.04502
-1.04719
-1.04733
-1.04931
-1.04949
-1.05147
-1.05161
-1.05337
-1.05356
-1.05535
-1.05547
-1.05701
-1.05721
-1.0588
-1.05891
-1.0602
-1.06042
-1.06183
-1.06191
-1.06293
-1.06318
-1.06439
-1.06443
-1.06518
-1.06547
-1.06647
-1.06647
-1.0669
-1.06726
-1.06806
-1.06798
-1.06835
-1.06851
-1.06912
-1.06895
-1.06927
-1.06921
-1.06962
-1.06934
-1.0696
-1.06933
-1.06918
-1.06914
-1.069
-1.06884
-1.06813
-1.06832
-1.06779
-1.06772
-1.0665
-1.06687
-1.06593
-1.06594
-1.06443
-1.06474
-1.06341
-1.06347
-1.06165
-1.06192
-1.06018
-1.06028
-1.05813
-1.05837
-1.05623
-1.05635
-1.05383
-1.05405
-1.05148
-1.05162
-1.04872
-1.04893
-1.04595
-1.0461
-1.04281
-1.04301
-1.03959
-1.03975
-1.03605
-1.03624
-1.03239
-1.03255
-1.02842
-1.02861
-1.02432
-1.02449
-1.01994
-1.02012
-1.01541
-1.01558
-1.01059
-1.01077
-1.0056
-1.00577
-1.00036
-1.00054
-0.994923
-0.995096
-0.989275
-0.989453
-0.983388
-0.983561
-0.977257
-0.977434
-0.970969
-0.971142
-0.9644
-0.964577
-0.957629
-0.957803
-0.950683
-0.950859
-0.943486
-0.943661
-0.936071
-0.936247
-0.928463
-0.928638
-0.920582
-0.920758
-0.91258
-0.912755
-0.904309
-0.904485
-0.895866
-0.896041
-0.887226
-0.887401
-0.878355
-0.87853
-0.869292
-0.869468
-0.860092
-0.860267
-0.850712
-0.850887
-0.841041
-0.841216
-0.831286
-0.831461
-0.821339
-0.821514
-0.81124
-0.811415
-0.800958
-0.801133
-0.790544
-0.790719
-0.779959
-0.780133
-0.769154
-0.769329
-0.758296
-0.758471
-0.747351
-0.747526
-0.736144
-0.736318
-0.724868
-0.725043
-0.713581
-0.713756
-0.702133
-0.702308
-0.690565
-0.69074
-0.678852
-0.679027
-0.667169
-0.667344
-0.655359
-0.655534
-0.643471
-0.643645
-0.631466
-0.63164
-0.619553
-0.619728
-0.607538
-0.607713
-0.595351
-0.595526
-0.583375
-0.58355
-0.571252
-0.571427
-0.559055
-0.55923
-0.546881
-0.547056
-0.53482
-0.534995
-0.522638
-0.522813
-0.510601
-0.510776
-0.49862
-0.498795
-0.48648
-0.486654
-0.47458
-0.474754
-0.462715
-0.46289
-0.450766
-0.45094
-0.43905
-0.439224
-0.427442
-0.427617
-0.415737
-0.415912
-0.404155
-0.40433
-0.39286
-0.393035
-0.381521
-0.381696
-0.370314
-0.370489
-0.359253
-0.359427
-0.348354
-0.348528
-0.337606
-0.33778
-0.326862
-0.327036
-0.316463
-0.316638
-0.306086
-0.30626
-0.295887
-0.296061
-0.285902
-0.286077
-0.27593
-0.276104
-0.266183
-0.266357
-0.256645
-0.256819
-0.247344
-0.247519
-0.23826
-0.238434
-0.229243
-0.229417
-0.220453
-0.220627
-0.211917
-0.212091
-0.203438
-0.203613
-0.195223
-0.195398
-0.187244
-0.187418
-0.179365
-0.179539
-0.171724
-0.171898
-0.16436
-0.164534
-0.157066
-0.15724
-0.150059
-0.150234
-0.143278
-0.143452
-0.136636
-0.13681
-0.130208
-0.130383
-0.123935
-0.124109
-0.117867
-0.118042
-0.112113
-0.112288
-0.106402
-0.106576
-0.100876
-0.10105
-0.0956586
-0.0958328
-0.0905043
-0.0906785
-0.0856387
-0.0858129
-0.0808446
-0.0810188
-0.0763338
-0.076508
-0.0718869
-0.0720611
-0.0677319
-0.0679061
-0.0637354
-0.0639095
-0.0598142
-0.0599884
-0.0561377
-0.0563118
-0.0525586
-0.0527328
-0.0491972
-0.0493713
-0.0459438
-0.0461179
-0.0428897
-0.0430638
-0.0399454
-0.0401196
-0.0370974
-0.0372716
-0.0344519
-0.0346261
-0.0319771
-0.0321512
-0.0296127
-0.0297869
-0.0273253
-0.0274994
-0.0251558
-0.0253299
-0.0232
-0.0233741
-0.021285
-0.0214591
-0.0195046
-0.0196787
-0.0178253
-0.0179994
-0.0162781
-0.0164522
-0.0148143
-0.0149883
-0.0134311
-0.0136052
-0.0121671
-0.0123412
-0.0109882
-0.0111623
-0.00990659
-0.0100807
-0.00887045
-0.00904454
-0.00795766
-0.00813177
-0.0070896
-0.0072637
-0.00629728
-0.00647137
-0.00557863
-0.00575272
-0.00492894
-0.00510302
-0.00434056
-0.00451464
-0.0037909
-0.00396498
-0.0032961
-0.00347019
-0.00286002
-0.00303411
-0.00246861
-0.00264268
-0.00211272
-0.00228679
-0.00181008
-0.00198416
-0.00153782
-0.0017119
-0.00129789
-0.00147197
-0.00109477
-0.00126885
-0.000918215
-0.00109229
-0.000762971
-0.000937049
-0.00063093
-0.000805013
-0.000522706
-0.000696784
-0.000432323
-0.000606396
-0.000355859
-0.000529934
-0.000293977
-0.000468056
-0.000245866
-0.000419942
-0.000208068
-0.000382141
-0.000178171
-0.000352244
-0.000155905
-0.000329981
-0.000140168
-0.000314243
-0.000129135
-0.000303207
-0.000121549
-0.000295622
-0.000116822
-0.000290895
-0.000114167
-0.000288238
-0.000112797
-0.000286866
-0.000112176
-0.000286245
-0.000111974
-0.000286044
-0.000111941
-0.000286013
)
;

boundaryField
{
    walls
    {
        type            zeroGradient;
    }
    inlet
    {
        type            cyclic;
    }
    outlet
    {
        type            cyclic;
    }
    sides
    {
        type            empty;
    }
}


// ************************************************************************* //
