/*--------------------------------*- C++ -*----------------------------------*\
| =========                 |                                                 |
| \\      /  F ield         | OpenFOAM: The Open Source CFD Toolbox           |
|  \\    /   O peration     | Version:  2012                                  |
|   \\  /    A nd           | Website:  www.openfoam.com                      |
|    \\/     M anipulation  |                                                 |
\*---------------------------------------------------------------------------*/
FoamFile
{
    version     2.0;
    format      ascii;
    class       volScalarField;
    location    "13000";
    object      nut;
}
// * * * * * * * * * * * * * * * * * * * * * * * * * * * * * * * * * * * * * //

dimensions      [0 2 -1 0 0 0 0];


internalField   nonuniform List<scalar> 
2560
(
9.46753e-14
9.46753e-14
9.34058e-14
9.34058e-14
3.5786e-13
3.5786e-13
2.31154e-12
2.31154e-12
1.04457e-11
1.04457e-11
3.50616e-11
3.50616e-11
9.58719e-11
9.58719e-11
2.26547e-10
2.26547e-10
4.80328e-10
4.80328e-10
9.36844e-10
9.36844e-10
1.71029e-09
1.71029e-09
2.95915e-09
2.95915e-09
4.8976e-09
4.8976e-09
7.8089e-09
7.8089e-09
1.20608e-08
1.20608e-08
1.81233e-08
1.81233e-08
2.65889e-08
2.65889e-08
3.81957e-08
3.81957e-08
5.3853e-08
5.3853e-08
7.46702e-08
7.46702e-08
1.01988e-07
1.01988e-07
1.37415e-07
1.37415e-07
1.82862e-07
1.82862e-07
2.40586e-07
2.40586e-07
3.13228e-07
3.13228e-07
4.03863e-07
4.03863e-07
5.16038e-07
5.16038e-07
6.53823e-07
6.53823e-07
8.21846e-07
8.21846e-07
1.02534e-06
1.02534e-06
1.27018e-06
1.27018e-06
1.56288e-06
1.56288e-06
1.91067e-06
1.91067e-06
2.32144e-06
2.32144e-06
2.80375e-06
2.80375e-06
3.36682e-06
3.36682e-06
4.02047e-06
4.02047e-06
4.77504e-06
4.77504e-06
5.6413e-06
5.6413e-06
6.63037e-06
6.63037e-06
7.75351e-06
7.75351e-06
9.02204e-06
9.02204e-06
1.04471e-05
1.04471e-05
1.20396e-05
1.20396e-05
1.38097e-05
1.38097e-05
1.57671e-05
1.57671e-05
1.79204e-05
1.79204e-05
2.02773e-05
2.02773e-05
2.28441e-05
2.28441e-05
2.56259e-05
2.56259e-05
2.86263e-05
2.86263e-05
3.18476e-05
3.18476e-05
3.52904e-05
3.52904e-05
3.8954e-05
3.8954e-05
4.28363e-05
4.28363e-05
4.69339e-05
4.69339e-05
5.12422e-05
5.12422e-05
5.57555e-05
5.57555e-05
6.04672e-05
6.04672e-05
6.53701e-05
6.53701e-05
7.04561e-05
7.04561e-05
7.5717e-05
7.5717e-05
8.11439e-05
8.11439e-05
8.67281e-05
8.67281e-05
9.24606e-05
9.24606e-05
9.83325e-05
9.83325e-05
0.000104335
0.000104335
0.00011046
0.00011046
0.000116699
0.000116699
0.000123044
0.000123044
0.000129489
0.000129489
0.000136025
0.000136025
0.000142648
0.000142648
0.00014935
0.00014935
0.000156127
0.000156127
0.000162974
0.000162974
0.000169887
0.000169887
0.000176862
0.000176862
0.000183896
0.000183896
0.000190988
0.000190988
0.000198134
0.000198134
0.000205335
0.000205335
0.000212589
0.000212589
0.000219896
0.000219896
0.000227256
0.000227256
0.000234671
0.000234671
0.000242142
0.000242142
0.00024967
0.00024967
0.00025726
0.00025726
0.000264913
0.000264913
0.000272633
0.000272633
0.000280424
0.000280424
0.000288291
0.000288291
0.000296238
0.000296238
0.000304271
0.000304271
0.000312397
0.000312397
0.00032062
0.00032062
0.000328948
0.000328948
0.000337388
0.000337388
0.000345947
0.000345947
0.000354634
0.000354634
0.000363456
0.000363456
0.000372422
0.000372422
0.000381542
0.000381542
0.000390824
0.000390824
0.000400277
0.000400277
0.000409913
0.000409913
0.00041974
0.00041974
0.00042977
0.00042977
0.000440012
0.000440012
0.000450478
0.000450478
0.000461178
0.000461178
0.000472123
0.000472123
0.000483325
0.000483325
0.000494794
0.000494794
0.000506541
0.000506541
0.000518579
0.000518579
0.000530918
0.000530918
0.000543568
0.000543568
0.000556541
0.000556541
0.000569848
0.000569848
0.000583499
0.000583499
0.000597504
0.000597504
0.000611873
0.000611873
0.000626617
0.000626617
0.000641744
0.000641744
0.000657263
0.000657263
0.000673183
0.000673183
0.000689512
0.000689512
0.000706258
0.000706258
0.000723427
0.000723427
0.000741026
0.000741026
0.000759061
0.000759061
0.000777537
0.000777537
0.000796459
0.000796459
0.000815832
0.000815832
0.000835658
0.000835658
0.000855941
0.000855941
0.000876682
0.000876682
0.000897884
0.000897884
0.000919547
0.000919547
0.000941672
0.000941672
0.000964259
0.000964259
0.000987306
0.000987306
0.00101081
0.00101081
0.00103478
0.00103478
0.0010592
0.0010592
0.00108407
0.00108407
0.00110939
0.00110939
0.00113516
0.00113516
0.00116136
0.00116136
0.00118801
0.00118801
0.00121508
0.00121508
0.00124258
0.00124258
0.0012705
0.0012705
0.00129883
0.00129883
0.00132757
0.00132757
0.00135672
0.00135672
0.00138626
0.00138626
0.00141619
0.00141619
0.0014465
0.0014465
0.00147719
0.00147719
0.00150824
0.00150824
0.00153967
0.00153967
0.00157145
0.00157145
0.00160358
0.00160358
0.00163607
0.00163607
0.00166889
0.00166889
0.00170205
0.00170205
0.00173555
0.00173555
0.00176938
0.00176938
0.00180353
0.00180353
0.001838
0.001838
0.00187279
0.00187279
0.00190789
0.00190789
0.0019433
0.0019433
0.00197902
0.00197902
0.00201504
0.00201504
0.00205135
0.00205135
0.00208797
0.00208797
0.00212487
0.00212487
0.00216206
0.00216206
0.00219954
0.00219954
0.00223729
0.00223729
0.00227533
0.00227533
0.00231364
0.00231364
0.00235223
0.00235223
0.00239109
0.00239109
0.00243023
0.00243023
0.00246963
0.00246963
0.0025093
0.0025093
0.00254923
0.00254923
0.00258942
0.00258942
0.00262988
0.00262988
0.00267059
0.00267059
0.00271156
0.00271156
0.00275278
0.00275278
0.00279425
0.00279425
0.00283596
0.00283596
0.00287792
0.00287792
0.00292011
0.00292011
0.00296254
0.00296254
0.00300521
0.00300521
0.00304811
0.00304811
0.00309124
0.00309124
0.00313461
0.00313461
0.0031782
0.0031782
0.00322203
0.00322203
0.00326609
0.00326609
0.00331038
0.00331038
0.00335491
0.00335491
0.00339966
0.00339966
0.00344465
0.00344465
0.00348987
0.00348987
0.00353532
0.00353532
0.00358099
0.00358099
0.0036269
0.0036269
0.00367303
0.00367303
0.00371939
0.00371939
0.00376598
0.00376598
0.0038128
0.0038128
0.00385985
0.00385985
0.00390712
0.00390712
0.00395462
0.00395462
0.00400233
0.00400233
0.00405026
0.00405026
0.00409839
0.00409839
0.00414672
0.00414672
0.00419524
0.00419524
0.00424393
0.00424393
0.0042928
0.0042928
0.00434184
0.00434184
0.00439105
0.00439105
0.0044404
0.0044404
0.0044899
0.0044899
0.00453952
0.00453952
0.00458927
0.00458927
0.00463912
0.00463912
0.00468905
0.00468905
0.00473905
0.00473905
0.0047891
0.0047891
0.00483918
0.00483918
0.00488926
0.00488926
0.00493933
0.00493933
0.00498937
0.00498937
0.00503937
0.00503937
0.00508934
0.00508934
0.00513925
0.00513925
0.0051891
0.0051891
0.0052389
0.0052389
0.00528862
0.00528862
0.00533824
0.00533824
0.00538773
0.00538773
0.00543705
0.00543705
0.00548617
0.00548617
0.00553502
0.00553502
0.00558358
0.00558358
0.00563179
0.00563179
0.00567964
0.00567964
0.0057271
0.0057271
0.00577415
0.00577415
0.00582074
0.00582074
0.00586682
0.00586682
0.00591234
0.00591234
0.00595723
0.00595723
0.00600142
0.00600142
0.00604485
0.00604485
0.00608746
0.00608746
0.00612919
0.00612919
0.00617001
0.00617001
0.00620987
0.00620987
0.00624873
0.00624873
0.00628658
0.00628658
0.00632339
0.00632339
0.00635915
0.00635915
0.00639387
0.00639387
0.00642751
0.00642751
0.00646009
0.00646009
0.00649158
0.00649158
0.00652197
0.00652197
0.00655125
0.00655125
0.00657938
0.00657938
0.00660635
0.00660635
0.00663214
0.00663214
0.00665672
0.00665672
0.00668008
0.00668008
0.00670216
0.00670216
0.0067229
0.0067229
0.00674224
0.00674224
0.00676008
0.00676008
0.0067763
0.0067763
0.00679076
0.00679076
0.00680332
0.00680332
0.00681389
0.00681389
0.00682241
0.00682241
0.00682888
0.00682888
0.00683335
0.00683335
0.00683585
0.00683585
0.0068364
0.0068364
0.00683503
0.00683503
0.00683173
0.00683173
0.00682651
0.00682651
0.0068194
0.0068194
0.00681046
0.00681046
0.00679977
0.00679977
0.00678742
0.00678742
0.0067735
0.0067735
0.00675819
0.00675819
0.00674169
0.00674169
0.00672432
0.00672432
0.00670643
0.00670643
0.0066884
0.0066884
0.00667066
0.00667066
0.00665363
0.00665363
0.00663778
0.00663778
0.00662358
0.00662358
0.00661148
0.00661148
0.00660188
0.00660188
0.00659518
0.00659518
0.0065917
0.0065917
9.46753e-14
9.46753e-14
9.34057e-14
9.34057e-14
3.5786e-13
3.5786e-13
2.31154e-12
2.31154e-12
1.04456e-11
1.04456e-11
3.50615e-11
3.50615e-11
9.58718e-11
9.58718e-11
2.26547e-10
2.26547e-10
4.80328e-10
4.80328e-10
9.36843e-10
9.36843e-10
1.71029e-09
1.71029e-09
2.95915e-09
2.95915e-09
4.8976e-09
4.8976e-09
7.80889e-09
7.80889e-09
1.20608e-08
1.20608e-08
1.81233e-08
1.81233e-08
2.65889e-08
2.65889e-08
3.81957e-08
3.81957e-08
5.3853e-08
5.3853e-08
7.46701e-08
7.46701e-08
1.01988e-07
1.01988e-07
1.37415e-07
1.37415e-07
1.82862e-07
1.82862e-07
2.40586e-07
2.40586e-07
3.13228e-07
3.13228e-07
4.03863e-07
4.03863e-07
5.16038e-07
5.16038e-07
6.53822e-07
6.53822e-07
8.21846e-07
8.21846e-07
1.02534e-06
1.02534e-06
1.27018e-06
1.27018e-06
1.56288e-06
1.56288e-06
1.91067e-06
1.91067e-06
2.32144e-06
2.32144e-06
2.80375e-06
2.80375e-06
3.36682e-06
3.36682e-06
4.02047e-06
4.02047e-06
4.77504e-06
4.77504e-06
5.6413e-06
5.6413e-06
6.63036e-06
6.63036e-06
7.7535e-06
7.7535e-06
9.02203e-06
9.02203e-06
1.04471e-05
1.04471e-05
1.20396e-05
1.20396e-05
1.38097e-05
1.38097e-05
1.57671e-05
1.57671e-05
1.79204e-05
1.79204e-05
2.02773e-05
2.02773e-05
2.2844e-05
2.2844e-05
2.56258e-05
2.56258e-05
2.86263e-05
2.86263e-05
3.18475e-05
3.18475e-05
3.52903e-05
3.52903e-05
3.8954e-05
3.8954e-05
4.28363e-05
4.28363e-05
4.69339e-05
4.69339e-05
5.12421e-05
5.12421e-05
5.57554e-05
5.57554e-05
6.04672e-05
6.04672e-05
6.537e-05
6.537e-05
7.04561e-05
7.04561e-05
7.57169e-05
7.57169e-05
8.11439e-05
8.11439e-05
8.67281e-05
8.67281e-05
9.24606e-05
9.24606e-05
9.83325e-05
9.83325e-05
0.000104335
0.000104335
0.00011046
0.00011046
0.000116699
0.000116699
0.000123044
0.000123044
0.000129489
0.000129489
0.000136025
0.000136025
0.000142647
0.000142647
0.00014935
0.00014935
0.000156127
0.000156127
0.000162974
0.000162974
0.000169887
0.000169887
0.000176862
0.000176862
0.000183896
0.000183896
0.000190988
0.000190988
0.000198134
0.000198134
0.000205335
0.000205335
0.000212589
0.000212589
0.000219895
0.000219895
0.000227256
0.000227256
0.000234671
0.000234671
0.000242142
0.000242142
0.00024967
0.00024967
0.00025726
0.00025726
0.000264913
0.000264913
0.000272633
0.000272633
0.000280424
0.000280424
0.000288291
0.000288291
0.000296238
0.000296238
0.000304271
0.000304271
0.000312396
0.000312396
0.00032062
0.00032062
0.000328948
0.000328948
0.000337388
0.000337388
0.000345947
0.000345947
0.000354634
0.000354634
0.000363456
0.000363456
0.000372422
0.000372422
0.000381542
0.000381542
0.000390823
0.000390823
0.000400277
0.000400277
0.000409913
0.000409913
0.00041974
0.00041974
0.00042977
0.00042977
0.000440012
0.000440012
0.000450478
0.000450478
0.000461178
0.000461178
0.000472123
0.000472123
0.000483324
0.000483324
0.000494794
0.000494794
0.000506541
0.000506541
0.000518579
0.000518579
0.000530917
0.000530917
0.000543568
0.000543568
0.000556541
0.000556541
0.000569848
0.000569848
0.000583499
0.000583499
0.000597504
0.000597504
0.000611873
0.000611873
0.000626617
0.000626617
0.000641744
0.000641744
0.000657263
0.000657263
0.000673183
0.000673183
0.000689512
0.000689512
0.000706258
0.000706258
0.000723427
0.000723427
0.000741026
0.000741026
0.000759061
0.000759061
0.000777537
0.000777537
0.000796459
0.000796459
0.000815832
0.000815832
0.000835658
0.000835658
0.00085594
0.00085594
0.000876682
0.000876682
0.000897884
0.000897884
0.000919547
0.000919547
0.000941672
0.000941672
0.000964259
0.000964259
0.000987306
0.000987306
0.00101081
0.00101081
0.00103478
0.00103478
0.0010592
0.0010592
0.00108407
0.00108407
0.00110939
0.00110939
0.00113516
0.00113516
0.00116136
0.00116136
0.001188
0.001188
0.00121508
0.00121508
0.00124258
0.00124258
0.0012705
0.0012705
0.00129883
0.00129883
0.00132757
0.00132757
0.00135672
0.00135672
0.00138626
0.00138626
0.00141618
0.00141618
0.0014465
0.0014465
0.00147719
0.00147719
0.00150824
0.00150824
0.00153967
0.00153967
0.00157145
0.00157145
0.00160358
0.00160358
0.00163607
0.00163607
0.00166889
0.00166889
0.00170205
0.00170205
0.00173555
0.00173555
0.00176938
0.00176938
0.00180353
0.00180353
0.001838
0.001838
0.00187279
0.00187279
0.00190789
0.00190789
0.0019433
0.0019433
0.00197902
0.00197902
0.00201504
0.00201504
0.00205135
0.00205135
0.00208797
0.00208797
0.00212487
0.00212487
0.00216206
0.00216206
0.00219954
0.00219954
0.00223729
0.00223729
0.00227533
0.00227533
0.00231364
0.00231364
0.00235223
0.00235223
0.00239109
0.00239109
0.00243022
0.00243022
0.00246963
0.00246963
0.00250929
0.00250929
0.00254923
0.00254923
0.00258942
0.00258942
0.00262988
0.00262988
0.00267059
0.00267059
0.00271156
0.00271156
0.00275278
0.00275278
0.00279425
0.00279425
0.00283596
0.00283596
0.00287792
0.00287792
0.00292011
0.00292011
0.00296254
0.00296254
0.00300521
0.00300521
0.00304811
0.00304811
0.00309124
0.00309124
0.0031346
0.0031346
0.0031782
0.0031782
0.00322203
0.00322203
0.00326609
0.00326609
0.00331038
0.00331038
0.00335491
0.00335491
0.00339966
0.00339966
0.00344465
0.00344465
0.00348987
0.00348987
0.00353532
0.00353532
0.00358099
0.00358099
0.0036269
0.0036269
0.00367303
0.00367303
0.00371939
0.00371939
0.00376598
0.00376598
0.0038128
0.0038128
0.00385985
0.00385985
0.00390712
0.00390712
0.00395462
0.00395462
0.00400233
0.00400233
0.00405026
0.00405026
0.00409839
0.00409839
0.00414672
0.00414672
0.00419524
0.00419524
0.00424393
0.00424393
0.0042928
0.0042928
0.00434184
0.00434184
0.00439104
0.00439104
0.0044404
0.0044404
0.00448989
0.00448989
0.00453952
0.00453952
0.00458927
0.00458927
0.00463912
0.00463912
0.00468905
0.00468905
0.00473905
0.00473905
0.0047891
0.0047891
0.00483918
0.00483918
0.00488926
0.00488926
0.00493932
0.00493932
0.00498937
0.00498937
0.00503937
0.00503937
0.00508934
0.00508934
0.00513925
0.00513925
0.0051891
0.0051891
0.0052389
0.0052389
0.00528861
0.00528861
0.00533823
0.00533823
0.00538773
0.00538773
0.00543705
0.00543705
0.00548617
0.00548617
0.00553502
0.00553502
0.00558358
0.00558358
0.00563179
0.00563179
0.00567964
0.00567964
0.0057271
0.0057271
0.00577415
0.00577415
0.00582074
0.00582074
0.00586682
0.00586682
0.00591234
0.00591234
0.00595723
0.00595723
0.00600142
0.00600142
0.00604485
0.00604485
0.00608746
0.00608746
0.00612919
0.00612919
0.00617001
0.00617001
0.00620986
0.00620986
0.00624873
0.00624873
0.00628657
0.00628657
0.00632339
0.00632339
0.00635915
0.00635915
0.00639386
0.00639386
0.00642751
0.00642751
0.00646008
0.00646008
0.00649158
0.00649158
0.00652197
0.00652197
0.00655125
0.00655125
0.00657938
0.00657938
0.00660635
0.00660635
0.00663214
0.00663214
0.00665672
0.00665672
0.00668008
0.00668008
0.00670216
0.00670216
0.0067229
0.0067229
0.00674224
0.00674224
0.00676008
0.00676008
0.0067763
0.0067763
0.00679076
0.00679076
0.00680332
0.00680332
0.00681389
0.00681389
0.00682241
0.00682241
0.00682888
0.00682888
0.00683335
0.00683335
0.00683585
0.00683585
0.0068364
0.0068364
0.00683503
0.00683503
0.00683173
0.00683173
0.00682651
0.00682651
0.0068194
0.0068194
0.00681047
0.00681047
0.00679977
0.00679977
0.00678742
0.00678742
0.0067735
0.0067735
0.00675819
0.00675819
0.00674169
0.00674169
0.00672432
0.00672432
0.00670643
0.00670643
0.0066884
0.0066884
0.00667066
0.00667066
0.00665363
0.00665363
0.00663778
0.00663778
0.00662358
0.00662358
0.00661148
0.00661148
0.00660188
0.00660188
0.00659518
0.00659518
0.0065917
0.0065917
0.0065917
0.0065917
0.00659518
0.00659518
0.00660189
0.00660189
0.00661148
0.00661148
0.00662358
0.00662358
0.00663779
0.00663779
0.00665363
0.00665363
0.00667066
0.00667066
0.00668841
0.00668841
0.00670642
0.00670642
0.00672431
0.00672431
0.00674168
0.00674168
0.00675817
0.00675817
0.00677348
0.00677348
0.0067874
0.0067874
0.00679977
0.00679977
0.00681047
0.00681047
0.00681942
0.00681942
0.00682653
0.00682653
0.00683175
0.00683175
0.00683505
0.00683505
0.00683643
0.00683643
0.00683588
0.00683588
0.00683338
0.00683338
0.00682891
0.00682891
0.00682243
0.00682243
0.00681391
0.00681391
0.00680334
0.00680334
0.00679077
0.00679077
0.0067763
0.0067763
0.00676008
0.00676008
0.00674223
0.00674223
0.00672289
0.00672289
0.00670215
0.00670215
0.00668007
0.00668007
0.00665672
0.00665672
0.00663214
0.00663214
0.00660636
0.00660636
0.00657939
0.00657939
0.00655126
0.00655126
0.00652198
0.00652198
0.00649159
0.00649159
0.0064601
0.0064601
0.00642753
0.00642753
0.00639388
0.00639388
0.00635918
0.00635918
0.00632341
0.00632341
0.0062866
0.0062866
0.00624875
0.00624875
0.00620989
0.00620989
0.00617003
0.00617003
0.00612921
0.00612921
0.00608748
0.00608748
0.00604487
0.00604487
0.00600144
0.00600144
0.00595724
0.00595724
0.00591235
0.00591235
0.00586683
0.00586683
0.00582074
0.00582074
0.00577415
0.00577415
0.0057271
0.0057271
0.00567964
0.00567964
0.00563179
0.00563179
0.00558357
0.00558357
0.00553502
0.00553502
0.00548617
0.00548617
0.00543705
0.00543705
0.00538773
0.00538773
0.00533823
0.00533823
0.00528862
0.00528862
0.0052389
0.0052389
0.00518911
0.00518911
0.00513925
0.00513925
0.00508934
0.00508934
0.00503938
0.00503938
0.00498937
0.00498937
0.00493932
0.00493932
0.00488925
0.00488925
0.00483917
0.00483917
0.00478909
0.00478909
0.00473905
0.00473905
0.00468904
0.00468904
0.00463911
0.00463911
0.00458926
0.00458926
0.00453952
0.00453952
0.00448989
0.00448989
0.0044404
0.0044404
0.00439104
0.00439104
0.00434184
0.00434184
0.0042928
0.0042928
0.00424393
0.00424393
0.00419523
0.00419523
0.00414672
0.00414672
0.00409839
0.00409839
0.00405025
0.00405025
0.00400232
0.00400232
0.00395461
0.00395461
0.00390711
0.00390711
0.00385983
0.00385983
0.00381279
0.00381279
0.00376597
0.00376597
0.00371938
0.00371938
0.00367302
0.00367302
0.00362688
0.00362688
0.00358098
0.00358098
0.0035353
0.0035353
0.00348986
0.00348986
0.00344464
0.00344464
0.00339965
0.00339965
0.0033549
0.0033549
0.00331037
0.00331037
0.00326608
0.00326608
0.00322202
0.00322202
0.00317819
0.00317819
0.0031346
0.0031346
0.00309123
0.00309123
0.0030481
0.0030481
0.0030052
0.0030052
0.00296254
0.00296254
0.0029201
0.0029201
0.00287791
0.00287791
0.00283595
0.00283595
0.00279424
0.00279424
0.00275277
0.00275277
0.00271155
0.00271155
0.00267058
0.00267058
0.00262987
0.00262987
0.00258941
0.00258941
0.00254922
0.00254922
0.00250929
0.00250929
0.00246962
0.00246962
0.00243022
0.00243022
0.00239108
0.00239108
0.00235222
0.00235222
0.00231363
0.00231363
0.00227532
0.00227532
0.00223728
0.00223728
0.00219953
0.00219953
0.00216205
0.00216205
0.00212486
0.00212486
0.00208796
0.00208796
0.00205135
0.00205135
0.00201503
0.00201503
0.00197901
0.00197901
0.00194329
0.00194329
0.00190788
0.00190788
0.00187278
0.00187278
0.00183799
0.00183799
0.00180352
0.00180352
0.00176937
0.00176937
0.00173554
0.00173554
0.00170205
0.00170205
0.00166888
0.00166888
0.00163606
0.00163606
0.00160358
0.00160358
0.00157144
0.00157144
0.00153966
0.00153966
0.00150824
0.00150824
0.00147718
0.00147718
0.00144649
0.00144649
0.00141618
0.00141618
0.00138625
0.00138625
0.00135671
0.00135671
0.00132757
0.00132757
0.00129882
0.00129882
0.00127049
0.00127049
0.00124257
0.00124257
0.00121507
0.00121507
0.001188
0.001188
0.00116136
0.00116136
0.00113515
0.00113515
0.00110939
0.00110939
0.00108406
0.00108406
0.00105919
0.00105919
0.00103477
0.00103477
0.00101081
0.00101081
0.000987303
0.000987303
0.000964255
0.000964255
0.000941669
0.000941669
0.000919544
0.000919544
0.000897881
0.000897881
0.000876679
0.000876679
0.000855938
0.000855938
0.000835656
0.000835656
0.00081583
0.00081583
0.000796458
0.000796458
0.000777536
0.000777536
0.00075906
0.00075906
0.000741025
0.000741025
0.000723427
0.000723427
0.000706258
0.000706258
0.000689513
0.000689513
0.000673184
0.000673184
0.000657264
0.000657264
0.000641746
0.000641746
0.000626619
0.000626619
0.000611876
0.000611876
0.000597507
0.000597507
0.000583503
0.000583503
0.000569852
0.000569852
0.000556546
0.000556546
0.000543574
0.000543574
0.000530924
0.000530924
0.000518586
0.000518586
0.000506549
0.000506549
0.000494802
0.000494802
0.000483334
0.000483334
0.000472133
0.000472133
0.000461188
0.000461188
0.000450489
0.000450489
0.000440023
0.000440023
0.000429782
0.000429782
0.000419752
0.000419752
0.000409925
0.000409925
0.00040029
0.00040029
0.000390837
0.000390837
0.000381555
0.000381555
0.000372436
0.000372436
0.00036347
0.00036347
0.000354648
0.000354648
0.000345961
0.000345961
0.000337402
0.000337402
0.000328962
0.000328962
0.000320634
0.000320634
0.000312411
0.000312411
0.000304285
0.000304285
0.000296252
0.000296252
0.000288305
0.000288305
0.000280439
0.000280439
0.000272648
0.000272648
0.000264928
0.000264928
0.000257275
0.000257275
0.000249686
0.000249686
0.000242157
0.000242157
0.000234686
0.000234686
0.000227271
0.000227271
0.000219911
0.000219911
0.000212604
0.000212604
0.00020535
0.00020535
0.000198149
0.000198149
0.000191003
0.000191003
0.000183911
0.000183911
0.000176876
0.000176876
0.0001699
0.0001699
0.000162987
0.000162987
0.000156139
0.000156139
0.000149362
0.000149362
0.000142659
0.000142659
0.000136036
0.000136036
0.000129498
0.000129498
0.000123053
0.000123053
0.000116707
0.000116707
0.000110468
0.000110468
0.000104342
0.000104342
9.83392e-05
9.83392e-05
9.24668e-05
9.24668e-05
8.67338e-05
8.67338e-05
8.11491e-05
8.11491e-05
7.57217e-05
7.57217e-05
7.04603e-05
7.04603e-05
6.53738e-05
6.53738e-05
6.04705e-05
6.04705e-05
5.57584e-05
5.57584e-05
5.12448e-05
5.12448e-05
4.69362e-05
4.69362e-05
4.28383e-05
4.28383e-05
3.89557e-05
3.89557e-05
3.52919e-05
3.52919e-05
3.18489e-05
3.18489e-05
2.86275e-05
2.86275e-05
2.56269e-05
2.56269e-05
2.28449e-05
2.28449e-05
2.0278e-05
2.0278e-05
1.79211e-05
1.79211e-05
1.57677e-05
1.57677e-05
1.38102e-05
1.38102e-05
1.204e-05
1.204e-05
1.04475e-05
1.04475e-05
9.02234e-06
9.02234e-06
7.75377e-06
7.75377e-06
6.63059e-06
6.63059e-06
5.64149e-06
5.64149e-06
4.7752e-06
4.7752e-06
4.02061e-06
4.02061e-06
3.36694e-06
3.36694e-06
2.80384e-06
2.80384e-06
2.32152e-06
2.32152e-06
1.91074e-06
1.91074e-06
1.56294e-06
1.56294e-06
1.27022e-06
1.27022e-06
1.02538e-06
1.02538e-06
8.21874e-07
8.21874e-07
6.53844e-07
6.53844e-07
5.16055e-07
5.16055e-07
4.03876e-07
4.03876e-07
3.13239e-07
3.13239e-07
2.40594e-07
2.40594e-07
1.82868e-07
1.82868e-07
1.3742e-07
1.3742e-07
1.01992e-07
1.01992e-07
7.46727e-08
7.46727e-08
5.38548e-08
5.38548e-08
3.8197e-08
3.8197e-08
2.65898e-08
2.65898e-08
1.81239e-08
1.81239e-08
1.20612e-08
1.20612e-08
7.80916e-09
7.80916e-09
4.89777e-09
4.89777e-09
2.95924e-09
2.95924e-09
1.71035e-09
1.71035e-09
9.36874e-10
9.36874e-10
4.80344e-10
4.80344e-10
2.26555e-10
2.26555e-10
9.5875e-11
9.5875e-11
3.50627e-11
3.50627e-11
1.0446e-11
1.0446e-11
2.31161e-12
2.31161e-12
3.57868e-13
3.57868e-13
9.34064e-14
9.34064e-14
9.46757e-14
9.46757e-14
0.0065917
0.0065917
0.00659518
0.00659518
0.00660189
0.00660189
0.00661148
0.00661148
0.00662359
0.00662359
0.00663779
0.00663779
0.00665364
0.00665364
0.00667066
0.00667066
0.00668841
0.00668841
0.00670643
0.00670643
0.00672431
0.00672431
0.00674168
0.00674168
0.00675817
0.00675817
0.00677349
0.00677349
0.00678741
0.00678741
0.00679977
0.00679977
0.00681047
0.00681047
0.00681942
0.00681942
0.00682653
0.00682653
0.00683175
0.00683175
0.00683505
0.00683505
0.00683643
0.00683643
0.00683588
0.00683588
0.00683338
0.00683338
0.00682891
0.00682891
0.00682243
0.00682243
0.00681391
0.00681391
0.00680334
0.00680334
0.00679077
0.00679077
0.0067763
0.0067763
0.00676008
0.00676008
0.00674223
0.00674223
0.00672289
0.00672289
0.00670215
0.00670215
0.00668007
0.00668007
0.00665672
0.00665672
0.00663214
0.00663214
0.00660636
0.00660636
0.00657939
0.00657939
0.00655126
0.00655126
0.00652198
0.00652198
0.00649159
0.00649159
0.0064601
0.0064601
0.00642753
0.00642753
0.00639388
0.00639388
0.00635917
0.00635917
0.00632341
0.00632341
0.0062866
0.0062866
0.00624875
0.00624875
0.00620989
0.00620989
0.00617003
0.00617003
0.00612921
0.00612921
0.00608747
0.00608747
0.00604486
0.00604486
0.00600143
0.00600143
0.00595724
0.00595724
0.00591235
0.00591235
0.00586683
0.00586683
0.00582074
0.00582074
0.00577415
0.00577415
0.0057271
0.0057271
0.00567963
0.00567963
0.00563178
0.00563178
0.00558357
0.00558357
0.00553502
0.00553502
0.00548616
0.00548616
0.00543705
0.00543705
0.00538772
0.00538772
0.00533823
0.00533823
0.00528861
0.00528861
0.0052389
0.0052389
0.00518911
0.00518911
0.00513925
0.00513925
0.00508934
0.00508934
0.00503938
0.00503938
0.00498937
0.00498937
0.00493932
0.00493932
0.00488925
0.00488925
0.00483917
0.00483917
0.00478909
0.00478909
0.00473904
0.00473904
0.00468904
0.00468904
0.00463911
0.00463911
0.00458926
0.00458926
0.00453952
0.00453952
0.00448989
0.00448989
0.0044404
0.0044404
0.00439104
0.00439104
0.00434184
0.00434184
0.0042928
0.0042928
0.00424393
0.00424393
0.00419523
0.00419523
0.00414672
0.00414672
0.00409839
0.00409839
0.00405025
0.00405025
0.00400232
0.00400232
0.00395461
0.00395461
0.00390711
0.00390711
0.00385983
0.00385983
0.00381279
0.00381279
0.00376597
0.00376597
0.00371938
0.00371938
0.00367301
0.00367301
0.00362688
0.00362688
0.00358098
0.00358098
0.0035353
0.0035353
0.00348986
0.00348986
0.00344464
0.00344464
0.00339965
0.00339965
0.0033549
0.0033549
0.00331037
0.00331037
0.00326608
0.00326608
0.00322202
0.00322202
0.00317819
0.00317819
0.0031346
0.0031346
0.00309123
0.00309123
0.0030481
0.0030481
0.0030052
0.0030052
0.00296253
0.00296253
0.0029201
0.0029201
0.00287791
0.00287791
0.00283595
0.00283595
0.00279424
0.00279424
0.00275277
0.00275277
0.00271155
0.00271155
0.00267058
0.00267058
0.00262987
0.00262987
0.00258941
0.00258941
0.00254922
0.00254922
0.00250928
0.00250928
0.00246962
0.00246962
0.00243021
0.00243021
0.00239108
0.00239108
0.00235222
0.00235222
0.00231363
0.00231363
0.00227532
0.00227532
0.00223728
0.00223728
0.00219953
0.00219953
0.00216205
0.00216205
0.00212486
0.00212486
0.00208796
0.00208796
0.00205135
0.00205135
0.00201503
0.00201503
0.00197901
0.00197901
0.00194329
0.00194329
0.00190788
0.00190788
0.00187278
0.00187278
0.00183799
0.00183799
0.00180352
0.00180352
0.00176937
0.00176937
0.00173554
0.00173554
0.00170205
0.00170205
0.00166888
0.00166888
0.00163606
0.00163606
0.00160358
0.00160358
0.00157144
0.00157144
0.00153966
0.00153966
0.00150824
0.00150824
0.00147718
0.00147718
0.00144649
0.00144649
0.00141618
0.00141618
0.00138625
0.00138625
0.00135671
0.00135671
0.00132757
0.00132757
0.00129882
0.00129882
0.00127049
0.00127049
0.00124257
0.00124257
0.00121507
0.00121507
0.001188
0.001188
0.00116136
0.00116136
0.00113515
0.00113515
0.00110939
0.00110939
0.00108406
0.00108406
0.00105919
0.00105919
0.00103477
0.00103477
0.00101081
0.00101081
0.000987302
0.000987302
0.000964255
0.000964255
0.000941668
0.000941668
0.000919544
0.000919544
0.000897881
0.000897881
0.000876679
0.000876679
0.000855938
0.000855938
0.000835655
0.000835655
0.000815829
0.000815829
0.000796457
0.000796457
0.000777535
0.000777535
0.00075906
0.00075906
0.000741025
0.000741025
0.000723426
0.000723426
0.000706258
0.000706258
0.000689513
0.000689513
0.000673184
0.000673184
0.000657264
0.000657264
0.000641745
0.000641745
0.000626619
0.000626619
0.000611876
0.000611876
0.000597507
0.000597507
0.000583502
0.000583502
0.000569852
0.000569852
0.000556546
0.000556546
0.000543573
0.000543573
0.000530924
0.000530924
0.000518586
0.000518586
0.000506549
0.000506549
0.000494802
0.000494802
0.000483334
0.000483334
0.000472133
0.000472133
0.000461188
0.000461188
0.000450488
0.000450488
0.000440023
0.000440023
0.000429781
0.000429781
0.000419752
0.000419752
0.000409925
0.000409925
0.00040029
0.00040029
0.000390836
0.000390836
0.000381555
0.000381555
0.000372436
0.000372436
0.00036347
0.00036347
0.000354648
0.000354648
0.000345961
0.000345961
0.000337402
0.000337402
0.000328962
0.000328962
0.000320634
0.000320634
0.00031241
0.00031241
0.000304285
0.000304285
0.000296252
0.000296252
0.000288305
0.000288305
0.000280438
0.000280438
0.000272648
0.000272648
0.000264928
0.000264928
0.000257275
0.000257275
0.000249686
0.000249686
0.000242157
0.000242157
0.000234686
0.000234686
0.000227271
0.000227271
0.000219911
0.000219911
0.000212604
0.000212604
0.00020535
0.00020535
0.000198149
0.000198149
0.000191002
0.000191002
0.000183911
0.000183911
0.000176876
0.000176876
0.0001699
0.0001699
0.000162987
0.000162987
0.000156139
0.000156139
0.000149361
0.000149361
0.000142659
0.000142659
0.000136036
0.000136036
0.000129498
0.000129498
0.000123053
0.000123053
0.000116707
0.000116707
0.000110468
0.000110468
0.000104342
0.000104342
9.83392e-05
9.83392e-05
9.24667e-05
9.24667e-05
8.67337e-05
8.67337e-05
8.11491e-05
8.11491e-05
7.57217e-05
7.57217e-05
7.04603e-05
7.04603e-05
6.53738e-05
6.53738e-05
6.04705e-05
6.04705e-05
5.57584e-05
5.57584e-05
5.12447e-05
5.12447e-05
4.69362e-05
4.69362e-05
4.28383e-05
4.28383e-05
3.89557e-05
3.89557e-05
3.52919e-05
3.52919e-05
3.18489e-05
3.18489e-05
2.86275e-05
2.86275e-05
2.56269e-05
2.56269e-05
2.28449e-05
2.28449e-05
2.0278e-05
2.0278e-05
1.79211e-05
1.79211e-05
1.57676e-05
1.57676e-05
1.38102e-05
1.38102e-05
1.204e-05
1.204e-05
1.04475e-05
1.04475e-05
9.02234e-06
9.02234e-06
7.75376e-06
7.75376e-06
6.63059e-06
6.63059e-06
5.64149e-06
5.64149e-06
4.7752e-06
4.7752e-06
4.02061e-06
4.02061e-06
3.36694e-06
3.36694e-06
2.80384e-06
2.80384e-06
2.32151e-06
2.32151e-06
1.91074e-06
1.91074e-06
1.56293e-06
1.56293e-06
1.27022e-06
1.27022e-06
1.02538e-06
1.02538e-06
8.21873e-07
8.21873e-07
6.53844e-07
6.53844e-07
5.16055e-07
5.16055e-07
4.03876e-07
4.03876e-07
3.13238e-07
3.13238e-07
2.40594e-07
2.40594e-07
1.82868e-07
1.82868e-07
1.37419e-07
1.37419e-07
1.01992e-07
1.01992e-07
7.46726e-08
7.46726e-08
5.38548e-08
5.38548e-08
3.81969e-08
3.81969e-08
2.65898e-08
2.65898e-08
1.81238e-08
1.81238e-08
1.20612e-08
1.20612e-08
7.80915e-09
7.80915e-09
4.89776e-09
4.89776e-09
2.95924e-09
2.95924e-09
1.71034e-09
1.71034e-09
9.36873e-10
9.36873e-10
4.80344e-10
4.80344e-10
2.26555e-10
2.26555e-10
9.58749e-11
9.58749e-11
3.50626e-11
3.50626e-11
1.0446e-11
1.0446e-11
2.31161e-12
2.31161e-12
3.57868e-13
3.57868e-13
9.34064e-14
9.34064e-14
9.46757e-14
9.46757e-14
)
;

boundaryField
{
    walls
    {
        type            nutUWallFunction;