/*--------------------------------*- C++ -*----------------------------------*\
| =========                 |                                                 |
| \\      /  F ield         | OpenFOAM: The Open Source CFD Toolbox           |
|  \\    /   O peration     | Version:  2012                                  |
|   \\  /    A nd           | Website:  www.openfoam.com                      |
|    \\/     M anipulation  |                                                 |
\*---------------------------------------------------------------------------*/
FoamFile
{
    version     2.0;
    format      ascii;
    class       volVectorField;
    location    "13000";
    object      U;
}
// * * * * * * * * * * * * * * * * * * * * * * * * * * * * * * * * * * * * * //

dimensions      [0 1 -1 0 0 0 0];


internalField   nonuniform List<vector> 
2560
(
(0.00210579 -1.5736e-11 1.9167e-10)
(0.00210579 1.50141e-11 1.88904e-10)
(0.00634735 -7.03127e-11 2.95351e-10)
(0.00634734 1.01373e-10 2.9113e-10)
(0.0106499 2.71195e-12 3.04837e-10)
(0.0106499 1.82277e-10 3.00524e-10)
(0.0150143 1.0357e-10 3.16567e-10)
(0.0150143 2.27762e-10 3.12153e-10)
(0.0194414 1.8585e-10 3.32614e-10)
(0.0194414 2.59823e-10 3.28082e-10)
(0.0239319 2.54429e-10 3.55965e-10)
(0.0239319 2.92372e-10 3.51304e-10)
(0.0284868 3.17338e-10 3.90636e-10)
(0.0284868 3.34069e-10 3.85839e-10)
(0.0331067 3.76379e-10 4.41804e-10)
(0.0331067 3.8265e-10 4.36865e-10)
(0.0377925 4.29982e-10 5.15962e-10)
(0.0377925 4.31864e-10 5.10878e-10)
(0.0425449 4.89268e-10 6.21058e-10)
(0.0425449 4.89784e-10 6.15822e-10)
(0.0473646 5.44227e-10 7.66664e-10)
(0.0473646 5.44825e-10 7.61274e-10)
(0.0522523 6.00141e-10 9.64164e-10)
(0.0522523 6.01529e-10 9.58613e-10)
(0.0572088 6.60238e-10 1.2269e-09)
(0.0572088 6.62875e-10 1.22118e-09)
(0.0622345 7.17401e-10 1.57039e-09)
(0.0622345 7.21424e-10 1.56451e-09)
(0.0673302 7.71667e-10 1.71785e-09)
(0.0673302 7.77122e-10 1.6934e-09)
(0.0724963 8.25354e-10 1.76801e-09)
(0.0724963 8.32113e-10 1.74286e-09)
(0.0777332 8.86927e-10 1.8196e-09)
(0.0777332 8.94783e-10 1.79371e-09)
(0.0830415 9.38907e-10 1.87262e-09)
(0.0830415 9.47619e-10 1.84669e-09)
(0.0884215 9.78822e-10 2.23666e-09)
(0.0884215 9.88169e-10 2.23666e-09)
(0.0938734 1.0375e-09 2.68548e-09)
(0.0938734 1.04731e-09 2.68548e-09)
(0.0993974 1.10027e-09 3.19941e-09)
(0.0993974 1.11043e-09 3.19941e-09)
(0.104994 1.12339e-09 3.78453e-09)
(0.104994 1.13385e-09 3.78452e-09)
(0.110662 1.15257e-09 4.44676e-09)
(0.110662 1.16338e-09 4.44676e-09)
(0.116403 1.22887e-09 5.19321e-09)
(0.116403 1.24017e-09 5.19321e-09)
(0.122215 1.26866e-09 6.03157e-09)
(0.122215 1.28075e-09 6.03156e-09)
(0.1281 1.25199e-09 6.96835e-09)
(0.1281 1.26428e-09 6.96835e-09)
(0.134056 1.27899e-09 8.01009e-09)
(0.134056 1.29142e-09 8.01009e-09)
(0.140082 1.35778e-09 9.16515e-09)
(0.140082 1.3708e-09 9.16515e-09)
(0.146178 1.36635e-09 1.04419e-08)
(0.146178 1.37916e-09 1.04419e-08)
(0.152344 1.31575e-09 1.18466e-08)
(0.152344 1.33126e-09 1.18466e-08)
(0.158578 1.32334e-09 1.33854e-08)
(0.158578 1.33919e-09 1.33854e-08)
(0.16488 1.38724e-09 1.50666e-08)
(0.16488 1.40043e-09 1.50666e-08)
(0.171248 1.34747e-09 1.68971e-08)
(0.171248 1.35985e-09 1.68971e-08)
(0.17768 1.255e-09 1.88811e-08)
(0.17768 1.27046e-09 1.88811e-08)
(0.184175 1.2555e-09 2.10228e-08)
(0.184175 1.27265e-09 2.10228e-08)
(0.190733 1.28175e-09 2.33279e-08)
(0.190733 1.29627e-09 2.33279e-08)
(0.197349 1.17645e-09 2.57996e-08)
(0.197349 1.19104e-09 2.57996e-08)
(0.204024 1.03064e-09 2.84367e-08)
(0.204024 1.04442e-09 2.84367e-08)
(0.210754 9.8947e-10 3.12381e-08)
(0.210754 1.00437e-09 3.12381e-08)
(0.217538 9.87348e-10 3.42045e-08)
(0.217538 1.00341e-09 3.42045e-08)
(0.224373 8.49518e-10 3.73335e-08)
(0.224373 8.64419e-10 3.73335e-08)
(0.231256 6.19418e-10 4.0617e-08)
(0.231256 6.33752e-10 4.0617e-08)
(0.238184 5.44154e-10 4.40467e-08)
(0.238184 5.58217e-10 4.40467e-08)
(0.245156 4.78989e-10 4.76168e-08)
(0.245156 4.92885e-10 4.76168e-08)
(0.252167 2.87991e-10 5.13185e-08)
(0.252167 3.01583e-10 5.13185e-08)
(0.259215 6.79594e-11 5.51387e-08)
(0.259215 8.05248e-11 5.51387e-08)
(0.266296 -5.35967e-11 5.90658e-08)
(0.266296 -4.01023e-11 5.90658e-08)
(0.273408 3.21699e-11 6.30947e-08)
(0.273408 4.66805e-11 6.30947e-08)
(0.280546 -4.58436e-10 6.72129e-08)
(0.280546 -4.43899e-10 6.72129e-08)
(0.287707 -1.02094e-09 7.13927e-08)
(0.287707 -1.00829e-09 7.13927e-08)
(0.294888 -1.73665e-10 7.5638e-08)
(0.294888 -1.62739e-10 7.5638e-08)
(0.302085 -5.76923e-10 7.99592e-08)
(0.302085 -5.65668e-10 7.99592e-08)
(0.309293 -1.6594e-09 8.43213e-08)
(0.309293 -1.64631e-09 8.43213e-08)
(0.31651 -6.41321e-10 8.87237e-08)
(0.31651 -6.26747e-10 8.87237e-08)
(0.323731 -1.35429e-09 9.31777e-08)
(0.323731 -1.34014e-09 9.31777e-08)
(0.330953 -1.45686e-09 9.76674e-08)
(0.330953 -1.44453e-09 9.76674e-08)
(0.338171 -1.25858e-09 1.02201e-07)
(0.338171 -1.24878e-09 1.02201e-07)
(0.345381 -2.13031e-09 1.06768e-07)
(0.345381 -2.11802e-09 1.06768e-07)
(0.35258 -1.53215e-09 1.11369e-07)
(0.35258 -1.51833e-09 1.11369e-07)
(0.359764 -1.52201e-09 1.16029e-07)
(0.359764 -1.50912e-09 1.16029e-07)
(0.366928 -1.61864e-09 1.20755e-07)
(0.366928 -1.60685e-09 1.20755e-07)
(0.37407 -2.61334e-09 1.25528e-07)
(0.37407 -2.6005e-09 1.25528e-07)
(0.381184 -2.27204e-09 1.30338e-07)
(0.381184 -2.25815e-09 1.30338e-07)
(0.388269 -9.4669e-10 1.35242e-07)
(0.388269 -9.34802e-10 1.35242e-07)
(0.395318 -2.84733e-09 1.40236e-07)
(0.395318 -2.83442e-09 1.40236e-07)
(0.40233 -2.49498e-09 1.45284e-07)
(0.40233 -2.48115e-09 1.45284e-07)
(0.409301 -2.078e-09 1.50416e-07)
(0.409301 -2.06513e-09 1.50416e-07)
(0.416227 -2.14439e-09 1.55653e-07)
(0.416227 -2.13148e-09 1.55653e-07)
(0.423105 -2.18468e-09 1.61003e-07)
(0.423105 -2.17071e-09 1.61003e-07)
(0.429932 -3.28325e-09 1.66436e-07)
(0.429932 -3.26979e-09 1.66437e-07)
(0.436705 -1.74098e-09 1.71976e-07)
(0.436705 -1.7291e-09 1.71976e-07)
(0.443421 -2.95876e-09 1.7764e-07)
(0.443421 -2.94464e-09 1.7764e-07)
(0.450078 -2.45801e-09 1.83411e-07)
(0.450078 -2.44283e-09 1.83411e-07)
(0.456672 -2.52421e-09 1.89311e-07)
(0.456672 -2.50971e-09 1.89311e-07)
(0.463201 -2.54691e-09 1.95342e-07)
(0.463201 -2.53313e-09 1.95342e-07)
(0.469663 -3.20404e-09 2.01487e-07)
(0.469663 -3.18918e-09 2.01487e-07)
(0.476055 -2.66079e-09 2.07747e-07)
(0.476055 -2.64459e-09 2.07747e-07)
(0.482377 -2.76999e-09 2.14139e-07)
(0.482377 -2.7557e-09 2.14139e-07)
(0.488625 -2.87942e-09 2.2066e-07)
(0.488625 -2.86406e-09 2.2066e-07)
(0.494799 -2.86795e-09 2.2731e-07)
(0.494799 -2.85047e-09 2.2731e-07)
(0.500896 -3.62661e-09 2.34063e-07)
(0.500896 -3.61049e-09 2.34063e-07)
(0.506916 -2.25352e-09 2.40942e-07)
(0.506916 -2.23869e-09 2.40942e-07)
(0.512857 -3.81415e-09 2.47942e-07)
(0.512857 -3.79704e-09 2.47942e-07)
(0.518718 -3.22726e-09 2.55024e-07)
(0.518718 -3.20915e-09 2.55024e-07)
(0.524498 -2.64246e-09 2.62232e-07)
(0.524498 -2.62565e-09 2.62232e-07)
(0.530197 -3.39895e-09 2.69559e-07)
(0.530197 -3.38075e-09 2.69559e-07)
(0.535813 -3.45427e-09 2.7697e-07)
(0.535813 -3.43686e-09 2.7697e-07)
(0.541347 -3.30445e-09 2.84466e-07)
(0.541347 -3.28646e-09 2.84466e-07)
(0.546798 -4.11566e-09 2.92015e-07)
(0.546798 -4.09702e-09 2.92015e-07)
(0.552166 -2.96161e-09 2.99624e-07)
(0.552166 -2.94372e-09 2.99624e-07)
(0.557451 -3.27292e-09 3.07323e-07)
(0.557451 -3.25393e-09 3.07323e-07)
(0.562653 -3.60324e-09 3.15079e-07)
(0.562653 -3.58322e-09 3.15079e-07)
(0.567772 -4.2821e-09 3.2284e-07)
(0.567772 -4.26251e-09 3.2284e-07)
(0.572809 -3.43055e-09 3.30603e-07)
(0.572809 -3.41103e-09 3.30603e-07)
(0.577763 -2.49815e-09 3.38437e-07)
(0.577763 -2.47826e-09 3.38437e-07)
(0.582637 -5.34668e-09 3.46249e-07)
(0.582637 -5.32598e-09 3.46249e-07)
(0.587429 -3.05516e-09 3.53996e-07)
(0.587429 -3.0336e-09 3.53996e-07)
(0.592141 -3.53912e-09 3.61751e-07)
(0.592141 -3.51744e-09 3.61751e-07)
(0.596774 -4.41419e-09 3.69436e-07)
(0.596774 -4.39213e-09 3.69436e-07)
(0.601329 -2.41419e-09 3.7709e-07)
(0.601329 -2.39352e-09 3.7709e-07)
(0.605806 -4.95675e-09 3.84674e-07)
(0.605806 -4.93365e-09 3.84674e-07)
(0.610207 -4.13765e-09 3.92083e-07)
(0.610207 -4.11327e-09 3.92083e-07)
(0.614533 -2.65646e-09 3.99414e-07)
(0.614533 -2.63405e-09 3.99414e-07)
(0.618785 -4.45719e-09 4.06634e-07)
(0.618785 -4.43329e-09 4.06634e-07)
(0.622964 -3.64048e-09 4.13673e-07)
(0.622964 -3.6159e-09 4.13673e-07)
(0.627072 -3.39013e-09 4.20568e-07)
(0.627072 -3.36527e-09 4.20568e-07)
(0.63111 -4.37451e-09 4.2726e-07)
(0.63111 -4.34943e-09 4.2726e-07)
(0.63508 -2.85425e-09 4.33755e-07)
(0.63508 -2.82996e-09 4.33755e-07)
(0.638982 -4.15502e-09 4.40048e-07)
(0.638982 -4.1279e-09 4.40048e-07)
(0.642819 -4.19104e-09 4.46041e-07)
(0.642819 -4.16406e-09 4.46041e-07)
(0.646592 -2.14953e-09 4.51823e-07)
(0.646592 -2.12398e-09 4.51823e-07)
(0.650303 -4.54114e-09 4.57356e-07)
(0.650303 -4.51312e-09 4.57356e-07)
(0.653954 -3.07456e-09 4.62565e-07)
(0.653954 -3.04614e-09 4.62565e-07)
(0.657545 -3.40597e-09 4.67492e-07)
(0.657545 -3.37711e-09 4.67492e-07)
(0.661078 -3.68157e-09 4.72081e-07)
(0.661078 -3.65202e-09 4.72081e-07)
(0.664556 -2.53402e-09 4.76362e-07)
(0.664556 -2.50585e-09 4.76362e-07)
(0.66798 -3.56989e-09 4.80324e-07)
(0.66798 -3.53947e-09 4.80324e-07)
(0.671352 -2.86576e-09 4.83926e-07)
(0.671352 -2.8336e-09 4.83926e-07)
(0.674674 -3.97849e-09 4.87122e-07)
(0.674674 -3.94696e-09 4.87122e-07)
(0.677946 -1.63759e-09 4.89967e-07)
(0.677946 -1.6071e-09 4.89967e-07)
(0.681172 -3.67373e-09 4.92468e-07)
(0.681172 -3.64064e-09 4.92468e-07)
(0.684352 -2.25899e-09 4.94566e-07)
(0.684352 -2.22553e-09 4.94566e-07)
(0.687489 -2.78363e-09 4.96305e-07)
(0.687489 -2.74975e-09 4.96305e-07)
(0.690584 -3.26772e-09 4.97601e-07)
(0.690584 -3.23272e-09 4.97601e-07)
(0.69364 -1.33048e-09 4.98538e-07)
(0.69364 -1.29721e-09 4.98538e-07)
(0.696657 -3.68857e-09 4.99076e-07)
(0.696657 -3.65222e-09 4.99076e-07)
(0.699638 -1.60289e-09 4.99183e-07)
(0.699638 -1.56656e-09 4.99183e-07)
(0.702584 -2.17804e-09 4.98957e-07)
(0.702584 -2.14077e-09 4.98957e-07)
(0.705498 -3.06972e-09 4.98284e-07)
(0.705498 -3.0321e-09 4.98284e-07)
(0.70838 -1.62632e-09 4.97192e-07)
(0.70838 -1.58858e-09 4.97192e-07)
(0.711233 -1.87544e-09 4.95767e-07)
(0.711233 -1.83639e-09 4.95767e-07)
(0.714058 -2.34861e-09 4.9395e-07)
(0.714058 -2.30814e-09 4.9395e-07)
(0.716857 -2.38356e-09 4.91696e-07)
(0.716857 -2.34268e-09 4.91696e-07)
(0.719632 -1.61296e-09 4.89056e-07)
(0.719632 -1.57209e-09 4.89056e-07)
(0.722384 -1.79835e-09 4.86077e-07)
(0.722384 -1.75575e-09 4.86077e-07)
(0.725114 -2.05321e-09 4.82724e-07)
(0.725114 -2.01004e-09 4.82724e-07)
(0.727825 -1.8566e-09 4.78992e-07)
(0.727825 -1.81258e-09 4.78992e-07)
(0.730518 -1.86162e-09 4.74897e-07)
(0.730518 -1.81624e-09 4.74897e-07)
(0.733194 -1.94172e-09 4.70435e-07)
(0.733194 -1.89537e-09 4.70435e-07)
(0.735855 -1.54997e-09 4.65635e-07)
(0.735855 -1.50417e-09 4.65635e-07)
(0.738502 -1.7394e-09 4.6052e-07)
(0.738502 -1.69063e-09 4.6052e-07)
(0.741136 -1.60594e-09 4.55093e-07)
(0.741136 -1.55754e-09 4.55093e-07)
(0.743759 -1.71311e-09 4.49364e-07)
(0.743759 -1.6627e-09 4.49364e-07)
(0.746372 -1.9785e-09 4.43307e-07)
(0.746372 -1.92689e-09 4.43307e-07)
(0.748975 -1.1298e-09 4.36985e-07)
(0.748975 -1.0791e-09 4.36985e-07)
(0.751571 -2.00972e-09 4.30408e-07)
(0.751571 -1.9561e-09 4.30408e-07)
(0.75416 -1.56212e-09 4.23547e-07)
(0.75416 -1.50656e-09 4.23547e-07)
(0.756743 -1.48594e-09 4.16465e-07)
(0.756743 -1.43166e-09 4.16465e-07)
(0.759321 -1.77729e-09 4.09158e-07)
(0.759321 -1.72036e-09 4.09158e-07)
(0.761895 -1.72977e-09 4.01617e-07)
(0.761895 -1.67105e-09 4.01618e-07)
(0.764466 -1.78426e-09 3.9386e-07)
(0.764466 -1.72578e-09 3.9386e-07)
(0.767034 -1.90131e-09 3.85885e-07)
(0.767034 -1.84011e-09 3.85885e-07)
(0.7696 -1.77588e-09 3.77712e-07)
(0.7696 -1.7148e-09 3.77712e-07)
(0.772165 -2.01836e-09 3.69349e-07)
(0.772165 -1.9544e-09 3.69349e-07)
(0.774729 -2.07355e-09 3.60786e-07)
(0.774729 -2.00884e-09 3.60786e-07)
(0.777293 -1.82657e-09 3.52064e-07)
(0.777293 -1.76112e-09 3.52064e-07)
(0.779857 -2.66257e-09 3.43144e-07)
(0.779857 -2.59413e-09 3.43144e-07)
(0.782421 -1.75306e-09 3.34054e-07)
(0.782421 -1.68501e-09 3.34054e-07)
(0.784987 -2.5097e-09 3.2484e-07)
(0.784987 -2.43818e-09 3.2484e-07)
(0.787553 -2.65137e-09 3.15425e-07)
(0.787553 -2.5786e-09 3.15425e-07)
(0.79012 -2.05817e-09 3.05887e-07)
(0.79012 -1.98554e-09 3.05888e-07)
(0.792689 -3.07705e-09 2.96208e-07)
(0.792689 -3.0011e-09 2.96208e-07)
(0.795258 -2.37424e-09 2.86377e-07)
(0.795258 -2.29602e-09 2.86377e-07)
(0.797828 -3.37181e-09 2.76391e-07)
(0.797828 -3.29204e-09 2.76391e-07)
(0.800399 -1.9583e-09 2.66331e-07)
(0.800399 -1.8791e-09 2.66331e-07)
(0.80297 -4.39021e-09 2.56111e-07)
(0.80297 -4.30547e-09 2.56111e-07)
(0.805542 -2.49105e-09 2.45691e-07)
(0.805542 -2.40666e-09 2.45691e-07)
(0.808113 -3.54681e-09 2.35216e-07)
(0.808113 -3.4595e-09 2.35216e-07)
(0.810684 -3.20558e-09 2.24634e-07)
(0.810684 -3.11589e-09 2.24634e-07)
(0.813255 -3.99716e-09 2.13928e-07)
(0.813255 -3.90682e-09 2.13928e-07)
(0.815825 -3.8333e-09 2.03051e-07)
(0.815825 -3.73788e-09 2.03052e-07)
(0.818394 -3.22791e-09 1.92152e-07)
(0.818394 -3.13347e-09 1.92152e-07)
(0.820962 -5.03492e-09 1.81114e-07)
(0.820962 -4.93495e-09 1.81115e-07)
(0.82353 -3.19334e-09 1.69987e-07)
(0.82353 -3.09371e-09 1.69987e-07)
(0.826096 -5.00123e-09 1.58828e-07)
(0.826096 -4.89714e-09 1.58828e-07)
(0.828662 -3.53007e-09 1.47643e-07)
(0.828662 -3.42338e-09 1.47644e-07)
(0.831228 -5.5396e-09 1.36415e-07)
(0.831228 -5.43173e-09 1.36415e-07)
(0.833792 -3.7307e-09 1.2517e-07)
(0.833792 -3.61662e-09 1.2517e-07)
(0.836355 -5.44444e-09 1.13989e-07)
(0.836355 -5.33424e-09 1.13989e-07)
(0.838917 -5.11349e-09 1.02729e-07)
(0.838917 -4.98748e-09 1.02729e-07)
(0.841478 -4.97544e-09 9.15273e-08)
(0.841478 -4.86622e-09 9.15273e-08)
(0.844037 -5.79336e-09 8.03529e-08)
(0.844037 -5.65227e-09 8.03535e-08)
(0.846595 -5.80865e-09 6.91457e-08)
(0.846595 -5.70586e-09 6.91452e-08)
(0.849151 -5.83171e-09 5.79751e-08)
(0.849151 -5.6611e-09 5.79764e-08)
(0.851704 -6.63789e-09 4.67849e-08)
(0.851704 -6.56189e-09 4.67834e-08)
(0.854255 -6.42997e-09 3.5555e-08)
(0.854255 -6.20681e-09 3.55578e-08)
(0.856803 -7.08326e-09 2.42909e-08)
(0.856803 -7.04943e-09 2.42881e-08)
(0.859348 -7.10921e-09 1.29621e-08)
(0.859348 -6.84992e-09 1.29652e-08)
(0.861891 -7.59263e-09 1.0412e-08)
(0.861891 -7.48244e-09 1.84316e-08)
(0.86443 -7.74843e-09 1.04912e-08)
(0.86443 -7.78606e-09 1.87751e-08)
(0.866966 -8.06229e-09 1.00595e-08)
(0.866966 -8.26035e-09 1.00629e-08)
(0.869499 -8.37283e-09 2.17906e-08)
(0.869499 -8.324e-09 2.1787e-08)
(0.87203 -8.31276e-09 3.36315e-08)
(0.87203 -8.48809e-09 3.3635e-08)
(0.874557 -8.92344e-09 4.55262e-08)
(0.874557 -8.91779e-09 4.55241e-08)
(0.877082 -9.0524e-09 5.74745e-08)
(0.877082 -9.17782e-09 5.74765e-08)
(0.879604 -8.95477e-09 6.95065e-08)
(0.879604 -8.98453e-09 6.95054e-08)
(0.882123 -9.85038e-09 8.15152e-08)
(0.882123 -9.9429e-09 8.15162e-08)
(0.884639 -1.00342e-08 9.35311e-08)
(0.884639 -1.00808e-08 9.35307e-08)
(0.887152 -9.82729e-09 1.05647e-07)
(0.887152 -9.90172e-09 1.05648e-07)
(0.889663 -1.11877e-08 1.17729e-07)
(0.889663 -1.12408e-08 1.17729e-07)
(0.892169 -1.09612e-08 1.29876e-07)
(0.892169 -1.1026e-08 1.29876e-07)
(0.894672 -1.12661e-08 1.42189e-07)
(0.894672 -1.13195e-08 1.42189e-07)
(0.897171 -1.22979e-08 1.54546e-07)
(0.897171 -1.23559e-08 1.54546e-07)
(0.899664 -1.18962e-08 1.67083e-07)
(0.899664 -1.19485e-08 1.67083e-07)
(0.902153 -1.29687e-08 1.79792e-07)
(0.902153 -1.30215e-08 1.79792e-07)
(0.904635 -1.23022e-08 1.92664e-07)
(0.904635 -1.2352e-08 1.92664e-07)
(0.907112 -1.40613e-08 2.05628e-07)
(0.907112 -1.41098e-08 2.05628e-07)
(0.909582 -1.27525e-08 2.18754e-07)
(0.909582 -1.27993e-08 2.18755e-07)
(0.912046 -1.49359e-08 2.31974e-07)
(0.912046 -1.49804e-08 2.31974e-07)
(0.914504 -1.41929e-08 2.45295e-07)
(0.914504 -1.42368e-08 2.45296e-07)
(0.916955 -1.50706e-08 2.58872e-07)
(0.916955 -1.51115e-08 2.58872e-07)
(0.919401 -1.56745e-08 2.72533e-07)
(0.919401 -1.57147e-08 2.72533e-07)
(0.921841 -1.54885e-08 2.8643e-07)
(0.921841 -1.55264e-08 2.8643e-07)
(0.924275 -1.66493e-08 3.00449e-07)
(0.924275 -1.66858e-08 3.00449e-07)
(0.926702 -1.64042e-08 3.146e-07)
(0.926702 -1.64391e-08 3.146e-07)
(0.929123 -1.8301e-08 3.28877e-07)
(0.929123 -1.83341e-08 3.28878e-07)
(0.931537 -1.77007e-08 3.43455e-07)
(0.931537 -1.77325e-08 3.43455e-07)
(0.933944 -1.94752e-08 3.58429e-07)
(0.933944 -1.95049e-08 3.5843e-07)
(0.936343 -1.93161e-08 3.73852e-07)
(0.936343 -1.93449e-08 3.73852e-07)
(0.938736 -1.98973e-08 3.89903e-07)
(0.938736 -1.99237e-08 3.89903e-07)
(0.941121 -2.12959e-08 4.06425e-07)
(0.941121 -2.13214e-08 4.06425e-07)
(0.943498 -2.09632e-08 4.23683e-07)
(0.943498 -2.0987e-08 4.23683e-07)
(0.94587 -2.25759e-08 4.41695e-07)
(0.94587 -2.25982e-08 4.41696e-07)
(0.948236 -2.20359e-08 4.60525e-07)
(0.948236 -2.20568e-08 4.60525e-07)
(0.950596 -2.22131e-08 4.80174e-07)
(0.950596 -2.22325e-08 4.80174e-07)
(0.952953 -2.35817e-08 5.00194e-07)
(0.952953 -2.35999e-08 5.00194e-07)
(0.955305 -2.18601e-08 5.20665e-07)
(0.955305 -2.18768e-08 5.20665e-07)
(0.957653 -2.572e-08 5.4108e-07)
(0.957653 -2.57356e-08 5.4108e-07)
(0.959995 -2.4407e-08 5.61642e-07)
(0.959995 -2.44213e-08 5.61642e-07)
(0.962332 -2.6733e-08 5.82715e-07)
(0.962332 -2.6746e-08 5.82716e-07)
(0.964663 -2.81024e-08 6.04162e-07)
(0.964663 -2.81143e-08 6.04162e-07)
(0.966988 -2.69896e-08 6.26712e-07)
(0.966988 -2.70003e-08 6.26712e-07)
(0.969307 -3.03824e-08 6.49998e-07)
(0.969307 -3.0392e-08 6.49998e-07)
(0.971621 -2.84099e-08 6.7427e-07)
(0.971621 -2.84185e-08 6.7427e-07)
(0.97393 -3.11568e-08 6.99512e-07)
(0.97393 -3.11643e-08 6.99512e-07)
(0.976235 -3.05777e-08 7.25432e-07)
(0.976235 -3.05844e-08 7.25432e-07)
(0.978535 -3.27762e-08 7.52209e-07)
(0.978535 -3.27818e-08 7.52209e-07)
(0.980832 -3.36972e-08 7.79802e-07)
(0.980832 -3.3702e-08 7.79802e-07)
(0.983126 -3.31284e-08 8.08704e-07)
(0.983126 -3.31324e-08 8.08704e-07)
(0.985417 -3.51489e-08 8.38404e-07)
(0.985417 -3.51521e-08 8.38404e-07)
(0.987706 -3.45764e-08 8.6872e-07)
(0.987706 -3.45788e-08 8.6872e-07)
(0.989992 -3.65785e-08 8.99441e-07)
(0.989992 -3.65802e-08 8.99441e-07)
(0.992273 -3.781e-08 9.3029e-07)
(0.992273 -3.78111e-08 9.3029e-07)
(0.994549 -3.97754e-08 9.61655e-07)
(0.994549 -3.97759e-08 9.61655e-07)
(0.996818 -4.01208e-08 9.93912e-07)
(0.996818 -4.01207e-08 9.93912e-07)
(0.999079 -4.16693e-08 1.02709e-06)
(0.999079 -4.16687e-08 1.02709e-06)
(1.00133 -4.34892e-08 1.06101e-06)
(1.00133 -4.34881e-08 1.06101e-06)
(1.00357 -4.45829e-08 1.09605e-06)
(1.00357 -4.45813e-08 1.09605e-06)
(1.0058 -4.64063e-08 1.13241e-06)
(1.0058 -4.64044e-08 1.13241e-06)
(1.00802 -4.76094e-08 1.17026e-06)
(1.00802 -4.76071e-08 1.17026e-06)
(1.01024 -4.71959e-08 1.20979e-06)
(1.01024 -4.71933e-08 1.20979e-06)
(1.01245 -5.03979e-08 1.25021e-06)
(1.01245 -5.0395e-08 1.25021e-06)
(1.01465 -5.04996e-08 1.29146e-06)
(1.01465 -5.04964e-08 1.29146e-06)
(1.01686 -5.3106e-08 1.33371e-06)
(1.01686 -5.31027e-08 1.33371e-06)
(1.01907 -5.21582e-08 1.37678e-06)
(1.01907 -5.21547e-08 1.37678e-06)
(1.02128 -5.60497e-08 1.42e-06)
(1.02128 -5.6046e-08 1.42e-06)
(1.02348 -5.51364e-08 1.46311e-06)
(1.02348 -5.51326e-08 1.46311e-06)
(1.02568 -6.12193e-08 1.50586e-06)
(1.02568 -6.12155e-08 1.50586e-06)
(1.02787 -6.12016e-08 1.54894e-06)
(1.02787 -6.11977e-08 1.54894e-06)
(1.03006 -6.6519e-08 1.59353e-06)
(1.03006 -6.65151e-08 1.59353e-06)
(1.03223 -6.84544e-08 1.64046e-06)
(1.03223 -6.84505e-08 1.64046e-06)
(1.0344 -6.77291e-08 1.69155e-06)
(1.0344 -6.77252e-08 1.69155e-06)
(1.03657 -7.39376e-08 1.74563e-06)
(1.03657 -7.39337e-08 1.74563e-06)
(1.03874 -7.13372e-08 1.80353e-06)
(1.03874 -7.13334e-08 1.80353e-06)
(1.04091 -7.33559e-08 1.86514e-06)
(1.04091 -7.33522e-08 1.86514e-06)
(1.04307 -7.39446e-08 1.92792e-06)
(1.04307 -7.3941e-08 1.92792e-06)
(1.04523 -7.6647e-08 1.9908e-06)
(1.04523 -7.66434e-08 1.9908e-06)
(1.04739 -7.83008e-08 2.05286e-06)
(1.04739 -7.82974e-08 2.05286e-06)
(1.04954 -8.37814e-08 2.11363e-06)
(1.04954 -8.37781e-08 2.11363e-06)
(1.05167 -8.81166e-08 2.17407e-06)
(1.05167 -8.81135e-08 2.17407e-06)
(1.0538 -9.20249e-08 2.23671e-06)
(1.0538 -9.20219e-08 2.23671e-06)
(1.05591 -9.35502e-08 2.30327e-06)
(1.05591 -9.35473e-08 2.30327e-06)
(1.058 -9.47183e-08 2.37385e-06)
(1.058 -9.47156e-08 2.37385e-06)
(1.06007 -9.75007e-08 2.44672e-06)
(1.06007 -9.74981e-08 2.44672e-06)
(1.06212 -1.0206e-07 2.52065e-06)
(1.06212 -1.02058e-07 2.52065e-06)
(1.06415 -1.0496e-07 2.59626e-06)
(1.06415 -1.04958e-07 2.59626e-06)
(1.06616 -1.09364e-07 2.67415e-06)
(1.06616 -1.09362e-07 2.67415e-06)
(1.06815 -1.12513e-07 2.75476e-06)
(1.06815 -1.12512e-07 2.75476e-06)
(1.07011 -1.16609e-07 2.83853e-06)
(1.07011 -1.16607e-07 2.83853e-06)
(1.07205 -1.20357e-07 2.9256e-06)
(1.07205 -1.20356e-07 2.9256e-06)
(1.07398 -1.21332e-07 3.01631e-06)
(1.07398 -1.21331e-07 3.01631e-06)
(1.07589 -1.24712e-07 3.10875e-06)
(1.07589 -1.24711e-07 3.10875e-06)
(1.07777 -1.31093e-07 3.20033e-06)
(1.07777 -1.31092e-07 3.20033e-06)
(1.07964 -1.32414e-07 3.29182e-06)
(1.07964 -1.32413e-07 3.29182e-06)
(1.08148 -1.38979e-07 3.38237e-06)
(1.08148 -1.38978e-07 3.38237e-06)
(1.0833 -1.40671e-07 3.47098e-06)
(1.0833 -1.4067e-07 3.47098e-06)
(1.08511 -1.48446e-07 3.55657e-06)
(1.08511 -1.48445e-07 3.55657e-06)
(1.08691 -1.51563e-07 3.63863e-06)
(1.08691 -1.51563e-07 3.63863e-06)
(1.08869 -1.5854e-07 3.71743e-06)
(1.08869 -1.58539e-07 3.71743e-06)
(1.09047 -1.63283e-07 3.79239e-06)
(1.09047 -1.63282e-07 3.79239e-06)
(1.09224 -1.72308e-07 3.86383e-06)
(1.09224 -1.72307e-07 3.86383e-06)
(1.09401 -1.73225e-07 3.93348e-06)
(1.09401 -1.73225e-07 3.93348e-06)
(1.09577 -1.83933e-07 3.9998e-06)
(1.09577 -1.83932e-07 3.9998e-06)
(1.09751 -1.88239e-07 4.06214e-06)
(1.09751 -1.88238e-07 4.06214e-06)
(1.09923 -2.05976e-07 4.12211e-06)
(1.09923 -2.05976e-07 4.12211e-06)
(1.10091 -1.98276e-07 4.1871e-06)
(1.10091 -1.98275e-07 4.1871e-06)
(1.10255 -2.14574e-07 4.25442e-06)
(1.10255 -2.14573e-07 4.25442e-06)
(1.10415 -2.03293e-07 4.31967e-06)
(1.10415 -2.03292e-07 4.31967e-06)
(1.10572 -2.33035e-07 4.37395e-06)
(1.10572 -2.33035e-07 4.37395e-06)
(1.10726 -2.04487e-07 4.41962e-06)
(1.10726 -2.04487e-07 4.41962e-06)
(1.10876 -2.51559e-07 4.44235e-06)
(1.10876 -2.51558e-07 4.44235e-06)
(1.11024 -2.1402e-07 4.44296e-06)
(1.11024 -2.14019e-07 4.44296e-06)
(1.11168 -2.91734e-07 4.41161e-06)
(1.11168 -2.91733e-07 4.41161e-06)
(1.11308 -2.26769e-07 4.36847e-06)
(1.11308 -2.26768e-07 4.36847e-06)
(1.11444 -3.37344e-07 4.30512e-06)
(1.11444 -3.37344e-07 4.30512e-06)
(1.11576 -2.20822e-07 4.24891e-06)
(1.11576 -2.20822e-07 4.24891e-06)
(1.11704 -3.79049e-07 4.17078e-06)
(1.11704 -3.7905e-07 4.17078e-06)
(1.11827 -1.97294e-07 4.0965e-06)
(1.11827 -1.97294e-07 4.0965e-06)
(1.11943 -4.40851e-07 3.97192e-06)
(1.11943 -4.40852e-07 3.97192e-06)
(1.12053 -1.75082e-07 3.84638e-06)
(1.12053 -1.75082e-07 3.84638e-06)
(1.12154 -5.19403e-07 3.65458e-06)
(1.12154 -5.19404e-07 3.65458e-06)
(1.12248 -1.44853e-07 3.47443e-06)
(1.12248 -1.44852e-07 3.47443e-06)
(1.12333 -6.08601e-07 3.21198e-06)
(1.12333 -6.08598e-07 3.21198e-06)
(1.12409 -1.08558e-07 2.97998e-06)
(1.12409 -1.08556e-07 2.97998e-06)
(1.12476 -6.85324e-07 2.64083e-06)
(1.12476 -6.85323e-07 2.64083e-06)
(1.12533 -1.2869e-07 2.33918e-06)
(1.12533 -1.28692e-07 2.33918e-06)
(1.12579 -6.86181e-07 1.93056e-06)
(1.12579 -6.86182e-07 1.93056e-06)
(1.12616 -8.02035e-08 1.56557e-06)
(1.12616 -8.02079e-08 1.56557e-06)
(1.12642 -5.27089e-07 1.07702e-06)
(1.12642 -5.27092e-07 1.07702e-06)
(1.12656 1.23831e-07 5.79571e-07)
(1.12656 1.23827e-07 5.79571e-07)
(0.00210579 2.56348e-11 -1.60767e-13)
(0.00210579 2.55702e-11 -1.0863e-11)
(0.00634734 7.62522e-11 -1.59811e-12)
(0.00634734 7.60106e-11 -1.67309e-11)
(0.0106499 1.26535e-10 -5.42801e-12)
(0.0106499 1.26071e-10 -1.72208e-11)
(0.0150143 1.79285e-10 -1.31604e-11)
(0.0150143 1.78587e-10 -1.7725e-11)
(0.0194414 2.36135e-10 -2.64422e-11)
(0.0194414 2.35202e-10 -2.64422e-11)
(0.0239319 2.91902e-10 -4.71125e-11)
(0.0239319 2.90732e-10 -4.71125e-11)
(0.0284868 3.50457e-10 -7.71978e-11)
(0.0284868 3.49048e-10 -7.71978e-11)
(0.0331067 4.10828e-10 -1.18965e-10)
(0.0331067 4.09178e-10 -1.18965e-10)
(0.0377925 4.68582e-10 -1.74866e-10)
(0.0377925 4.66688e-10 -1.74866e-10)
(0.0425449 5.32907e-10 -2.47614e-10)
(0.0425449 5.30766e-10 -2.47614e-10)
(0.0473646 5.92942e-10 -3.40179e-10)
(0.0473646 5.9055e-10 -3.40179e-10)
(0.0522523 6.5393e-10 -4.55728e-10)
(0.0522523 6.51284e-10 -4.55728e-10)
(0.0572088 7.19169e-10 -5.97752e-10)
(0.0572088 7.16267e-10 -5.97752e-10)
(0.0622345 7.81764e-10 -7.70041e-10)
(0.0622345 7.78604e-10 -7.70041e-10)
(0.0673302 8.41936e-10 -9.76602e-10)
(0.0673302 8.38514e-10 -9.76603e-10)
(0.0724963 9.01975e-10 -1.22171e-09)
(0.0724963 8.98286e-10 -1.22171e-09)
(0.0777332 9.70283e-10 -1.51006e-09)
(0.0777332 9.66324e-10 -1.51006e-09)
(0.0830415 1.02942e-09 -1.84669e-09)
(0.0830415 1.02518e-09 -1.84669e-09)
(0.0884215 1.0769e-09 -2.23665e-09)
(0.0884215 1.07239e-09 -2.23665e-09)
(0.0938734 1.14357e-09 -2.68548e-09)
(0.0938734 1.13877e-09 -2.68548e-09)
(0.0993974 1.2147e-09 -3.1994e-09)
(0.0993974 1.20959e-09 -3.1994e-09)
(0.104994 1.24659e-09 -3.78452e-09)
(0.104994 1.24114e-09 -3.78452e-09)
(0.110662 1.28504e-09 -4.44676e-09)
(0.110662 1.27923e-09 -4.44676e-09)
(0.116403 1.36998e-09 -5.19321e-09)
(0.116403 1.36442e-09 -5.19321e-09)
(0.122215 1.42059e-09 -6.03155e-09)
(0.122215 1.41429e-09 -6.03155e-09)
(0.1281 1.41475e-09 -6.96834e-09)
(0.1281 1.40772e-09 -6.96834e-09)
(0.134056 1.45059e-09 -8.01008e-09)
(0.134056 1.44392e-09 -8.01009e-09)
(0.140082 1.54163e-09 -9.16514e-09)
(0.140082 1.53421e-09 -9.16515e-09)
(0.146178 1.56109e-09 -1.04419e-08)
(0.146178 1.55346e-09 -1.04419e-08)
(0.152344 1.52331e-09 -1.18466e-08)
(0.152344 1.51545e-09 -1.18466e-08)
(0.158578 1.54301e-09 -1.33854e-08)
(0.158578 1.53514e-09 -1.33854e-08)
(0.16488 1.61858e-09 -1.50666e-08)
(0.16488 1.60988e-09 -1.50666e-08)
(0.171248 1.59148e-09 -1.68971e-08)
(0.171248 1.58193e-09 -1.68971e-08)
(0.17768 1.51346e-09 -1.88811e-08)
(0.17768 1.50446e-09 -1.88811e-08)
(0.184175 1.53046e-09 -2.10228e-08)
(0.184175 1.52008e-09 -2.10228e-08)
(0.190733 1.5682e-09 -2.33279e-08)
(0.190733 1.5579e-09 -2.33279e-08)
(0.197349 1.47734e-09 -2.57996e-08)
(0.197349 1.46727e-09 -2.57996e-08)
(0.204024 1.34745e-09 -2.84367e-08)
(0.204024 1.33621e-09 -2.84367e-08)
(0.210754 1.32529e-09 -3.12381e-08)
(0.210754 1.31277e-09 -3.12381e-08)
(0.217538 1.33848e-09 -3.42045e-08)
(0.217538 1.3262e-09 -3.42045e-08)
(0.224373 1.21534e-09 -3.73335e-08)
(0.224373 1.20326e-09 -3.73335e-08)
(0.231256 1.00505e-09 -4.0617e-08)
(0.231256 9.91409e-10 -4.0617e-08)
(0.238184 9.4821e-10 -4.40467e-08)
(0.238184 9.34199e-10 -4.40467e-08)
(0.245156 9.01179e-10 -4.76168e-08)
(0.245156 8.86672e-10 -4.76168e-08)
(0.252167 7.28677e-10 -5.13185e-08)
(0.252167 7.13676e-10 -5.13185e-08)
(0.259215 5.26741e-10 -5.51387e-08)
(0.259215 5.11416e-10 -5.51387e-08)
(0.266296 4.32206e-10 -5.90657e-08)
(0.266296 4.14995e-10 -5.90657e-08)
(0.273408 5.34212e-10 -6.30947e-08)
(0.273408 5.17067e-10 -6.30947e-08)
(0.280546 6.64243e-11 -6.7213e-08)
(0.280546 4.90946e-11 -6.7213e-08)
(0.287707 -4.80005e-10 -7.13928e-08)
(0.287707 -4.97907e-10 -7.13928e-08)
(0.294888 3.91061e-10 -7.5638e-08)
(0.294888 3.71754e-10 -7.5638e-08)
(0.302085 2.2916e-11 -7.99592e-08)
(0.302085 1.49937e-12 -7.99592e-08)
(0.309293 -1.05085e-09 -8.43214e-08)
(0.309293 -1.07002e-09 -8.43214e-08)
(0.31651 -9.48829e-12 -8.87237e-08)
(0.31651 -3.08385e-11 -8.87237e-08)
(0.323731 -6.91176e-10 -9.31775e-08)
(0.323731 -7.14001e-10 -9.31775e-08)
(0.330953 -7.59358e-10 -9.76673e-08)
(0.330953 -7.8298e-10 -9.76673e-08)
(0.338171 -5.52838e-10 -1.02201e-07)
(0.338171 -5.76728e-10 -1.02201e-07)
(0.345381 -1.40896e-09 -1.06768e-07)
(0.345381 -1.43234e-09 -1.06768e-07)
(0.35258 -7.66641e-10 -1.11369e-07)
(0.35258 -7.93442e-10 -1.11369e-07)
(0.359764 -7.19945e-10 -1.16029e-07)
(0.359764 -7.46531e-10 -1.16029e-07)
(0.366928 -8.18831e-10 -1.20755e-07)
(0.366928 -8.45538e-10 -1.20755e-07)
(0.37407 -1.78057e-09 -1.25528e-07)
(0.37407 -1.80849e-09 -1.25528e-07)
(0.381184 -1.38012e-09 -1.30338e-07)
(0.381184 -1.41051e-09 -1.30338e-07)
(0.388269 -7.59424e-11 -1.35243e-07)
(0.388269 -1.06069e-10 -1.35243e-07)
(0.395318 -1.92758e-09 -1.40236e-07)
(0.395318 -1.95818e-09 -1.40236e-07)
(0.40233 -1.52899e-09 -1.45283e-07)
(0.40233 -1.56049e-09 -1.45283e-07)
(0.409301 -1.11425e-09 -1.50416e-07)
(0.409301 -1.14678e-09 -1.50416e-07)
(0.416227 -1.12515e-09 -1.55653e-07)
(0.416227 -1.161e-09 -1.55653e-07)
(0.423105 -1.14366e-09 -1.61003e-07)
(0.423105 -1.17866e-09 -1.61003e-07)
(0.429932 -2.22689e-09 -1.66437e-07)
(0.429932 -2.26078e-09 -1.66437e-07)
(0.436705 -6.46223e-10 -1.71976e-07)
(0.436705 -6.84455e-10 -1.71976e-07)
(0.443421 -1.82914e-09 -1.7764e-07)
(0.443421 -1.86725e-09 -1.7764e-07)
(0.450078 -1.29786e-09 -1.83411e-07)
(0.450078 -1.33496e-09 -1.83411e-07)
(0.456672 -1.3264e-09 -1.8931e-07)
(0.456672 -1.36931e-09 -1.8931e-07)
(0.463201 -1.32437e-09 -1.95342e-07)
(0.463201 -1.36567e-09 -1.95342e-07)
(0.469663 -1.95766e-09 -2.01487e-07)
(0.469663 -1.99702e-09 -2.01487e-07)
(0.476055 -1.3654e-09 -2.07747e-07)
(0.476055 -1.4099e-09 -2.07747e-07)
(0.482377 -1.44635e-09 -2.14139e-07)
(0.482377 -1.49137e-09 -2.14139e-07)
(0.488625 -1.52102e-09 -2.2066e-07)
(0.488625 -1.56719e-09 -2.2066e-07)
(0.494799 -1.46876e-09 -2.2731e-07)
(0.494799 -1.51543e-09 -2.2731e-07)
(0.500896 -2.19705e-09 -2.34063e-07)
(0.500896 -2.24444e-09 -2.34063e-07)
(0.506916 -7.95751e-10 -2.40942e-07)
(0.506916 -8.46305e-10 -2.40942e-07)
(0.512857 -2.3087e-09 -2.47942e-07)
(0.512857 -2.35799e-09 -2.47942e-07)
(0.518718 -1.67256e-09 -2.55024e-07)
(0.518718 -1.72582e-09 -2.55024e-07)
(0.524498 -1.07061e-09 -2.62232e-07)
(0.524498 -1.12412e-09 -2.62232e-07)
(0.530197 -1.77895e-09 -2.69559e-07)
(0.530197 -1.83174e-09 -2.69559e-07)
(0.535813 -1.7845e-09 -2.7697e-07)
(0.535813 -1.84262e-09 -2.7697e-07)
(0.541347 -1.59725e-09 -2.84467e-07)
(0.541347 -1.65601e-09 -2.84467e-07)
(0.546798 -2.37945e-09 -2.92016e-07)
(0.546798 -2.43495e-09 -2.92015e-07)