/*--------------------------------*- C++ -*----------------------------------*\
| =========                 |                                                 |
| \\      /  F ield         | OpenFOAM: The Open Source CFD Toolbox           |
|  \\    /   O peration     | Version:  2106                                  |
|   \\  /    A nd           | Website:  www.openfoam.com                      |
|    \\/     M anipulation  |                                                 |
\*---------------------------------------------------------------------------*/
FoamFile
{
    version     2.0;
    format      ascii;
    arch        "LSB;label=32;scalar=64";
    class       volTensorField;
    location    "15000";
    object      grad(U);
}
// * * * * * * * * * * * * * * * * * * * * * * * * * * * * * * * * * * * * * //

dimensions      [0 0 -1 0 0 0 0];

internalField   nonuniform List<tensor> 
2560
(
(0 5.19726e-31 3.24829e-32 49.2012 -3.59084e-12 -3.82501e-13 0.0712252 -2.59935e-15 -1.12421e-16)
(0 -2.3965e-28 -3.24829e-32 49.2012 -1.48874e-15 -1.17465e-13 0.0712252 -1.28886e-18 1.14372e-16)
(-3.60483e-17 -5.62107e-25 -2.11133e-26 49.1939 3.45897e-32 -6.06673e-14 0.21469 0 -1.78189e-16)
(0 -4.09822e-30 0 49.1939 -4.83094e-15 -1.02251e-13 0.21469 -8.00865e-18 2.39953e-16)
(6.20465e-17 0 -1.83305e-31 49.1866 3.79888e-12 -2.90288e-14 0.295247 -1.97783e-14 -1.67743e-16)
(-7.10633e-17 4.03948e-30 2.52467e-31 49.1866 -5.76404e-15 -6.31681e-15 0.295247 -1.8364e-17 2.46959e-16)
(2.89141e-17 -2.90239e-26 -5.70868e-31 49.1792 -2.53333e-29 -2.79581e-14 0.299495 -3.15544e-30 -1.70366e-16)
(0 7.96317e-30 4.97698e-31 49.1792 -5.94973e-15 -6.40665e-15 0.299495 -2.92508e-17 2.54213e-16)
(1.38082e-16 -1.96226e-29 -4.90565e-31 49.1717 8.2614e-14 -2.81708e-14 0.303803 -1.09755e-15 -1.75285e-16)
(0 1.56981e-29 4.90565e-31 49.1717 -6.1199e-15 -6.49905e-15 0.303803 -4.04551e-17 2.61713e-16)
(6.9572e-17 -4.87184e-28 -5.64361e-31 49.1641 -2.858e-15 -2.85316e-14 0.308172 -8.89336e-18 -1.7988e-16)
(5.56576e-16 7.73654e-30 4.83534e-31 49.1641 -6.22586e-15 -6.59116e-15 0.308172 -5.21137e-17 2.6947e-16)
(-9.03411e-17 -8.22288e-45 -1.53494e-31 49.1561 8.97546e-28 -2.88807e-14 0.312602 3.15544e-30 -1.8486e-16)
(3.61364e-16 1.14385e-29 2.38302e-31 49.1561 -6.27689e-15 -6.6823e-15 0.312602 -6.40732e-17 2.77498e-16)
(-1.11409e-16 1.03347e-29 3.23736e-31 49.1477 1.70275e-14 -2.9283e-14 0.317091 -1.1793e-16 -1.90341e-16)
(4.45637e-16 -3.75818e-30 0 49.1477 -6.3355e-15 -6.77296e-15 0.317091 -7.59739e-17 2.85802e-16)
(1.32781e-16 -1.39309e-29 -7.87562e-31 49.1384 1.37441e-14 -2.9727e-14 0.321637 -1.0009e-16 -1.96089e-16)
(0 1.11129e-29 6.94559e-31 49.1384 -6.45538e-15 -6.86151e-15 0.321637 -8.86784e-17 2.94392e-16)
(0 7.30244e-30 2.28201e-31 49.1276 1.17722e-14 -3.01829e-14 0.326237 -7.83975e-17 -2.01972e-16)
(0 -3.65122e-30 -2.28201e-31 49.1276 -6.49027e-15 -6.94889e-15 0.326237 -1.01938e-16 3.03278e-16)
(-1.76453e-16 -1.15783e-29 -3.48127e-31 49.1147 1.17073e-14 -3.06358e-14 0.330885 -7.683e-17 -2.07935e-16)
(-2.53249e-16 1.43956e-29 4.49861e-31 49.1147 -6.51447e-15 -7.03566e-15 0.330885 -1.15091e-16 3.12452e-16)
(4.48382e-16 -2.40987e-29 -1.43658e-30 49.0986 1.19046e-14 -3.10772e-14 0.335573 -7.98187e-17 -2.13924e-16)
(0 1.77365e-29 1.33024e-30 49.0986 -6.70211e-15 -7.11428e-15 0.335573 -1.28968e-16 3.21914e-16)
(2.46042e-16 -3.49647e-30 -4.37058e-31 49.078 1.19705e-14 -3.14967e-14 0.340291 -8.17786e-17 -2.19846e-16)
(0 3.49647e-30 4.37058e-31 49.078 -6.82759e-15 -7.18525e-15 0.340291 -1.4353e-16 3.31689e-16)
(-2.44348e-16 9.70295e-30 5.46871e-31 49.051 1.19854e-14 -3.18817e-14 0.345024 -8.30714e-17 -2.25608e-16)
(7.34875e-16 -3.44635e-30 0 49.051 -6.85199e-15 -7.24609e-15 0.345024 -1.58668e-16 3.41741e-16)
(-4.78079e-16 1.69848e-29 8.4924e-31 49.0155 1.20657e-14 -3.22189e-14 0.349752 -8.43836e-17 -2.31099e-16)
(4.78079e-16 -1.69848e-29 -8.4924e-31 49.0155 -6.75157e-15 -7.29029e-15 0.349752 -1.73482e-16 3.52079e-16)
(-2.91249e-16 2.80554e-30 1.26626e-31 48.9686 1.21691e-14 -3.2491e-14 0.354452 -8.66514e-17 -2.36158e-16)
(1.165e-15 0 0 48.9686 -6.66086e-15 -7.31601e-15 0.354452 -1.8815e-16 3.62689e-16)
(0 9.90085e-30 1.23761e-30 48.907 1.23189e-14 -3.2679e-14 0.359093 -8.83534e-17 -2.40631e-16)
(-1.2608e-15 -9.90085e-30 -1.23761e-30 48.907 -6.93328e-15 -7.31773e-15 0.359093 -2.02707e-16 3.73544e-16)
(-9.15633e-16 1.62649e-29 1.21987e-30 48.8267 1.22096e-14 -3.27617e-14 0.363637 -9.13907e-17 -2.44311e-16)
(-4.42313e-16 -1.62649e-29 -1.21987e-30 48.8267 -6.98115e-15 -7.29257e-15 0.363637 -2.1902e-16 3.84624e-16)
(9.02509e-16 -1.28254e-29 -1.20238e-30 48.7229 1.21216e-14 -3.27182e-14 0.368042 -8.93126e-17 -2.47022e-16)
(0 1.28254e-29 1.20238e-30 48.7229 -6.9129e-15 -7.24009e-15 0.368042 -2.35487e-16 3.95869e-16)
(-5.57262e-17 1.3006e-29 6.39516e-31 48.5905 1.2717e-14 -3.25246e-14 0.372256 -9.27362e-17 -2.48496e-16)
(-1.11146e-15 -1.5802e-29 -1.5802e-30 48.5905 -7.18204e-15 -7.15001e-15 0.372256 -2.52373e-16 4.07205e-16)
(-4.38412e-16 1.55755e-29 1.16816e-30 48.4234 1.30686e-14 -3.21562e-14 0.376222 -1.01066e-16 -2.48522e-16)
(4.38412e-16 -1.55755e-29 -1.16816e-30 48.4234 -7.26537e-15 -7.00575e-15 0.376222 -2.70521e-16 4.18607e-16)
(-4.3994e-16 2.78984e-30 -2.19686e-31 48.2153 1.28137e-14 -3.1594e-14 0.379875 -1.00927e-16 -2.46896e-16)
(0 3.07046e-30 1.15142e-30 48.2153 -7.32166e-15 -6.80688e-15 0.379875 -2.88664e-16 4.30002e-16)
(-3.99095e-17 -3.05036e-29 -2.47688e-30 47.9599 1.29711e-14 -3.08203e-14 0.383149 -1.00001e-16 -2.43403e-16)
(0 3.02645e-29 2.64814e-30 47.9599 -7.59521e-15 -6.56339e-15 0.383149 -3.07214e-16 4.41295e-16)
(0 5.96615e-30 1.11865e-30 47.6503 1.38788e-14 -2.98215e-14 0.385971 -1.06404e-16 -2.3789e-16)
(-1.96816e-15 -1.19323e-29 -1.49154e-30 47.6503 -7.75364e-15 -6.25848e-15 0.385971 -3.2706e-16 4.52362e-16)
(5.18502e-16 1.19224e-29 1.28397e-30 47.2804 1.44219e-14 -2.85912e-14 0.388271 -1.17687e-16 -2.30242e-16)
(0 -1.47016e-29 -1.47016e-30 47.2804 -7.9857e-15 -5.90281e-15 0.388271 -3.46338e-16 4.63204e-16)
(-1.09041e-15 2.29414e-29 2.56138e-30 46.8446 1.45185e-14 -2.7134e-14 0.389984 -1.18479e-16 -2.20472e-16)
(0 -1.73891e-29 -2.17363e-30 46.8446 -8.13501e-15 -5.50329e-15 0.389984 -3.66949e-16 4.73613e-16)
(2.52043e-15 -2.83146e-29 -2.3903e-30 46.3382 1.4621e-14 -2.5465e-14 0.391047 -1.22753e-16 -2.08652e-16)
(4.57695e-15 1.99965e-29 1.7854e-30 46.3382 -7.83783e-15 -5.04966e-15 0.391047 -3.89324e-16 4.83506e-16)
(0 -1.97099e-29 -1.40785e-30 45.7578 1.44167e-14 -2.36067e-14 0.391412 -1.23688e-16 -1.94923e-16)
(2.39681e-15 1.97099e-29 1.40785e-30 45.7578 -7.75433e-15 -4.5255e-15 0.391412 -4.10157e-16 4.9278e-16)
(6.26414e-16 5.55947e-30 4.76768e-31 45.102 1.43214e-14 -2.15915e-14 0.391041 -1.2283e-16 -1.79549e-16)
(0 -5.55068e-30 0 45.102 -7.84459e-15 -3.95487e-15 0.391041 -4.31614e-16 5.01517e-16)
(-1.30741e-15 2.79031e-30 4.49141e-31 44.3707 1.47257e-14 -1.946e-14 0.389913 -1.25647e-16 -1.62843e-16)
(-5.22964e-15 2.73556e-30 0 44.3707 -7.84997e-15 -3.39272e-15 0.389913 -4.55348e-16 5.09488e-16)
(-2.19893e-15 1.08475e-29 9.05901e-31 43.5661 1.5063e-14 -1.72583e-14 0.388025 -1.33596e-16 -1.45208e-16)
(-2.72409e-15 -5.39271e-30 0 43.5661 -8.09712e-15 -2.84306e-15 0.388025 -4.79321e-16 5.16587e-16)
(0 2.12617e-29 1.32885e-30 42.6923 1.46147e-14 -1.504e-14 0.385389 -1.35393e-16 -1.27133e-16)
(-2.83325e-15 -2.12617e-29 -1.32885e-30 42.6923 -8.3389e-15 -2.28396e-15 0.385389 -5.02481e-16 5.22735e-16)
(0 -1.04785e-29 -1.96471e-30 41.7548 1.41758e-14 -1.28547e-14 0.382036 -1.2933e-16 -1.09005e-16)
(2.94208e-15 1.04785e-29 1.96471e-30 41.7548 -8.15468e-15 -1.71665e-15 0.382036 -5.27593e-16 5.28035e-16)
(-7.62587e-16 -2.41553e-30 2.51132e-31 40.761 1.4185e-14 -1.07465e-14 0.378012 -1.31234e-16 -9.12579e-17)
(0 5.16414e-30 0 40.761 -8.04028e-15 -1.17928e-15 0.378012 -5.52366e-16 5.32469e-16)
(-7.89461e-16 1.54704e-29 2.80164e-30 39.7192 1.41189e-14 -8.75644e-15 0.373374 -1.33292e-16 -7.42764e-17)
(0 -1.27253e-29 -2.54506e-30 39.7192 -8.30044e-15 -6.7054e-16 0.373374 -5.73906e-16 5.36121e-16)
(-8.16088e-16 1.2776e-29 1.51577e-30 38.6383 1.42094e-14 -6.91632e-15 0.36819 -1.33817e-16 -5.83563e-17)
(-3.26435e-15 -7.52576e-30 -1.25429e-30 38.6383 -8.07066e-15 -2.11753e-16 0.36819 -5.9863e-16 5.3907e-16)
(8.42421e-16 -1.26278e-29 -1.50212e-30 37.528 1.47451e-14 -5.24807e-15 0.362532 -1.38947e-16 -4.3731e-17)
(0 9.89052e-30 1.23632e-30 37.528 -7.52591e-15 1.8278e-16 0.362532 -6.23359e-16 5.41213e-16)
(8.68417e-16 -1.97925e-29 -1.48816e-30 36.3974 1.46232e-14 -3.76988e-15 0.356478 -1.48245e-16 -3.06509e-17)
(0 1.70603e-29 1.2186e-30 36.3974 -7.43032e-15 5.36783e-16 0.356478 -6.47961e-16 5.42697e-16)
(-8.94038e-16 7.53435e-30 1.47392e-30 35.2558 1.40697e-14 -2.48917e-15 0.350104 -1.40589e-16 -1.91562e-17)
(0 0 -1.20113e-30 35.2558 -7.34393e-15 8.36294e-16 0.350104 -6.73591e-16 5.43654e-16)
(0 1.18391e-29 1.18391e-30 34.1115 1.3976e-14 -1.40031e-15 0.343483 -1.41414e-16 -9.24653e-18)
(0 -1.4207e-29 -1.77587e-30 34.1115 -7.07742e-15 1.08252e-15 0.343483 -6.96099e-16 5.44155e-16)
(-9.44027e-16 5.05587e-30 -1.53731e-29 32.9722 1.342e-14 -1.84803e-16 0.336685 -1.42789e-16 -9.53121e-19)
(2.46224e-15 0 0 32.9722 -6.08195e-15 1.29487e-15 0.336685 -7.17754e-16 5.44268e-16)
(0 -1.61031e-29 0 31.8446 1.32351e-14 0 0.329773 -1.34002e-16 0)
(3.87339e-15 1.61031e-29 1.72533e-30 31.8446 -6.28546e-15 1.4516e-15 0.329773 -7.37382e-16 5.44071e-16)
(-2.84274e-16 1.31572e-29 8.54954e-31 30.7345 1.36575e-14 7.79437e-16 0.322804 -1.43074e-16 -5.69132e-18)
(-2.69232e-15 -1.58723e-29 -1.13374e-30 30.7345 -7.63666e-15 1.56939e-15 0.322804 -7.62536e-16 5.43576e-16)
(2.27374e-15 -1.38857e-29 -2.78684e-31 29.6468 1.34635e-14 1.18902e-15 0.31583 -1.46961e-16 -1.08971e-17)
(-1.25818e-15 1.11749e-29 0 29.6468 -7.1691e-15 1.65189e-15 0.31583 -7.8568e-16 5.43052e-16)
(-1.03844e-15 -1.69813e-30 -2.72053e-31 28.5854 1.28782e-14 1.46666e-15 0.308892 -1.43057e-16 -1.47459e-17)
(0 8.81176e-30 5.50735e-31 28.5854 -6.67586e-15 1.6785e-15 0.308892 -8.08422e-16 5.42402e-16)
(1.06083e-15 1.63782e-30 2.64034e-31 27.5532 1.26127e-14 1.6267e-15 0.302028 -1.38379e-16 -1.73286e-17)
(3.02095e-15 -4.34273e-30 0 27.5532 -6.67484e-15 1.6878e-15 0.302028 -8.31438e-16 5.41662e-16)
(0 -8.56098e-30 -1.07012e-30 26.5526 1.25611e-14 1.68844e-15 0.295267 -1.4132e-16 -1.87524e-17)
(4.3309e-15 8.56098e-30 1.07012e-30 26.5526 -6.44898e-15 1.70488e-15 0.295267 -8.53797e-16 5.41025e-16)
(-1.10413e-15 6.91641e-30 2.79462e-31 25.5852 1.20796e-14 1.67132e-15 0.288635 -1.41262e-16 -1.92354e-17)
(0 0 5.27392e-31 25.5852 -6.44691e-15 1.69701e-15 0.288635 -8.77367e-16 5.40611e-16)
(-1.12506e-15 2.69448e-30 2.79996e-31 24.6519 1.20049e-14 1.58733e-15 0.282149 -1.3439e-16 -1.89081e-17)
(0 4.15867e-30 5.19833e-31 24.6519 -6.43893e-15 1.64708e-15 0.282149 -8.99367e-16 5.40326e-16)
(0 -8.19813e-30 -1.02477e-30 23.7533 1.24041e-14 1.4434e-15 0.275826 -1.43657e-16 -1.78399e-17)
(0 8.19813e-30 1.02477e-30 23.7533 -6.05071e-15 1.60082e-15 0.275826 -9.19988e-16 5.40226e-16)
(-2.30276e-15 6.72606e-30 -2.23515e-31 22.8894 1.26065e-14 1.2524e-15 0.269675 -1.47774e-16 -1.6056e-17)
(0 4.04031e-30 1.01008e-30 22.8894 -6.29771e-15 1.54498e-15 0.269675 -9.39319e-16 5.40512e-16)
(-1.12095e-15 1.9912e-29 1.9912e-30 22.06 1.28653e-14 1.02933e-15 0.263704 -1.52725e-16 -1.37771e-17)
(-4.74021e-15 -1.59296e-29 -1.4934e-30 22.06 -6.97941e-15 1.46006e-15 0.263704 -9.65242e-16 5.40957e-16)
(-1.20415e-15 -1.69501e-29 -1.67898e-30 21.2645 1.24636e-14 7.82234e-16 0.257918 -1.58405e-16 -1.10932e-17)
(4.81661e-15 1.96266e-29 1.96266e-30 21.2645 -6.40164e-15 1.37775e-15 0.257918 -9.95056e-16 5.41609e-16)
(0 1.93453e-29 1.93453e-30 20.5022 1.12767e-14 5.15605e-16 0.252319 -1.47272e-16 -8.07483e-18)
(0 -1.93453e-29 -1.93453e-30 20.5022 -5.93029e-15 1.29296e-15 0.252319 -1.01933e-15 5.42557e-16)
(-2.31452e-15 1.41134e-29 1.23982e-30 19.7723 1.0784e-14 2.33845e-16 0.246907 -1.3329e-16 -4.73385e-18)
(6.03778e-15 -1.14408e-29 -9.53403e-31 19.7723 -5.64979e-15 1.20707e-15 0.246907 -1.03994e-15 5.43772e-16)
(2.51789e-15 -1.28538e-29 -1.04544e-30 19.0736 1.03127e-14 -5.56226e-17 0.241681 -1.39056e-16 -2.59695e-18)
(5.03577e-15 7.51791e-30 4.69869e-31 19.0736 -5.74378e-15 1.13602e-15 0.241681 -1.06266e-15 5.45302e-16)
(0 -3.70508e-30 -9.2627e-31 18.4051 9.37814e-15 -3.49343e-16 0.236639 -1.25032e-16 -6.51085e-18)
(0 3.70508e-30 9.2627e-31 18.4051 -6.23639e-15 1.07182e-15 0.236639 -1.09188e-15 5.47272e-16)
(-1.29351e-15 -9.87953e-31 -1.67319e-31 17.7657 9.46693e-15 -6.38148e-16 0.231777 -1.18664e-16 -1.03437e-17)
(0 7.30395e-30 9.12994e-31 17.7657 -5.2964e-15 9.5121e-16 0.231777 -1.12176e-15 5.49605e-16)
(-2.62048e-15 1.61163e-29 1.47989e-30 17.1541 9.71444e-15 -9.23219e-16 0.227091 -1.31053e-16 -1.43832e-17)
(5.24096e-15 -1.43985e-29 -1.34986e-30 17.1541 -5.05181e-15 8.31541e-16 0.227091 -1.14658e-15 5.51766e-16)
(-1.32662e-15 2.65568e-30 1.17795e-30 16.5692 9.42589e-15 -1.20914e-15 0.222577 -1.28809e-16 -1.84633e-17)
(0 3.54804e-30 0 16.5692 -5.61614e-15 7.54625e-16 0.222577 -1.17461e-15 5.54538e-16)
(6.26069e-16 -8.44669e-31 -1.45166e-31 16.0098 9.45965e-15 -1.49524e-15 0.218229 -1.27003e-16 -2.27395e-17)
(3.40195e-15 1.04916e-29 8.74297e-31 16.0098 -4.387e-15 7.09937e-16 0.218229 -1.20363e-15 5.57825e-16)
(-1.3584e-15 9.54228e-30 7.24072e-31 15.4748 9.56542e-15 -1.77472e-15 0.214041 -1.33519e-16 -2.68685e-17)
(-3.88105e-15 0 0 15.4748 -4.40678e-15 6.43e-16 0.214041 -1.21741e-15 5.61786e-16)
(-2.74762e-15 1.88784e-29 1.43845e-30 14.9629 9.08266e-15 -2.04224e-15 0.210009 -1.337e-16 -3.10427e-17)
(-5.49523e-15 -1.35906e-29 -8.49415e-31 14.9629 -4.77303e-15 4.98045e-16 0.210009 -1.24186e-15 5.65646e-16)
(-2.77784e-15 -8.11291e-30 -1.08259e-30 14.4732 9.1461e-15 -2.30921e-15 0.206127 -1.23648e-16 -3.53879e-17)
(1.11114e-14 1.00469e-29 1.25586e-30 14.4732 -4.29204e-15 4.12466e-16 0.206127 -1.26626e-15 5.69384e-16)
(-4.21122e-15 2.77133e-29 2.95568e-30 14.0045 9.75928e-15 -2.56592e-15 0.202389 -1.39454e-16 -3.94953e-17)
(-5.61496e-15 -1.98058e-29 -2.0631e-30 14.0045 -5.16515e-15 3.7137e-16 0.202389 -1.28736e-15 5.74042e-16)
(-1.41828e-15 -1.36367e-29 -1.73431e-30 13.5558 8.4207e-15 -2.81107e-15 0.198789 -1.45288e-16 -4.3733e-17)
(5.67314e-15 1.62683e-29 2.03353e-30 13.5558 -3.95534e-15 3.32904e-16 0.198789 -1.31782e-15 5.79111e-16)
(1.43256e-15 -1.22557e-29 -1.10279e-30 13.1262 5.961e-15 -3.05901e-15 0.195323 -1.03634e-16 -4.81512e-17)
(0 9.62106e-30 8.01755e-31 13.1262 -2.1809e-15 2.56471e-16 0.195323 -1.32794e-15 5.84644e-16)
(0 -1.58053e-29 -1.58053e-30 12.7146 6.41541e-15 -3.30622e-15 0.191983 -7.51502e-17 -5.25996e-17)
(5.7863e-15 1.58053e-29 1.58053e-30 12.7146 -3.29119e-15 1.21035e-16 0.191983 -1.33654e-15 5.90245e-16)
(1.75401e-15 -6.2315e-30 -7.78937e-31 12.3202 9.5507e-15 -3.54461e-15 0.188766 -1.20613e-16 -5.6983e-17)
(5.84137e-15 6.2315e-30 7.78937e-31 12.3202 -4.91187e-15 3.75908e-17 0.188766 -1.35826e-15 5.95926e-16)
(-1.72887e-15 1.22844e-29 1.53555e-30 11.9421 1.10634e-14 -3.76408e-15 0.185666 -1.74957e-16 -6.10721e-17)
(5.89549e-15 -3.07109e-30 -7.67773e-31 11.9421 -5.49497e-15 9.66353e-18 0.185666 -1.37978e-15 6.02599e-16)
(0 1.21083e-29 1.89192e-30 11.5796 9.96137e-15 -3.97599e-15 0.182679 -1.71922e-16 -6.54427e-17)
(0 -1.21083e-29 -1.89192e-30 11.5796 -5.92526e-15 -1.30307e-17 0.182679 -1.40505e-15 6.10131e-16)
(-3.00049e-15 5.22387e-30 6.25327e-31 11.2318 8.76894e-15 -4.18561e-15 0.179798 -1.4477e-16 -6.96756e-17)
(0 0 0 11.2318 -5.69507e-15 -8.36587e-17 0.179798 -1.43739e-15 6.18038e-16)
(3.31119e-15 -1.47046e-29 -2.20569e-30 10.898 8.28082e-15 -4.38367e-15 0.177021 -1.38194e-16 -7.38919e-17)
(2.74124e-15 1.47046e-29 2.20569e-30 10.898 -4.3873e-15 -1.49747e-16 0.177021 -1.46291e-15 6.26021e-16)
(0 8.69632e-30 7.24693e-31 10.5775 8.02769e-15 -4.56806e-15 0.174342 -1.32912e-16 -7.78868e-17)
(6.10305e-15 -5.79755e-30 0 10.5775 -3.7384e-15 -1.72501e-16 0.174342 -1.48377e-15 6.34647e-16)
(-1.53822e-15 2.59976e-30 -3.9267e-31 10.2697 8.19928e-15 -4.73833e-15 0.171758 -1.33772e-16 -8.18366e-17)
(0 2.85723e-30 1.42861e-30 10.2697 -3.60535e-15 -2.02163e-16 0.171758 -1.50727e-15 6.43547e-16)
(1.55048e-15 3.03843e-30 3.79186e-31 9.97398 7.85275e-15 -4.90321e-15 0.169263 -1.42631e-16 -8.58469e-17)
(0 -2.81628e-30 -7.04069e-31 9.97398 -3.33469e-15 -2.61569e-16 0.169263 -1.53272e-15 6.52885e-16)
(0 -8.32773e-30 -6.93978e-31 9.68969 6.0429e-15 -5.07011e-15 0.166855 -1.25756e-16 -9.0066e-17)
(0 8.32773e-30 6.93978e-31 9.68969 -3.12954e-15 -2.98106e-16 0.166855 -1.54622e-15 6.62286e-16)
(1.5403e-15 -8.20838e-30 -6.84031e-31 9.4163 3.42978e-15 -5.2359e-15 0.16453 -8.35685e-17 -9.4239e-17)
(-1.5403e-15 8.20838e-30 6.84031e-31 9.4163 -1.89187e-15 -3.18765e-16 0.16453 -1.55507e-15 6.72542e-16)
(-1.35931e-16 -2.8854e-30 -6.77509e-31 9.15329 2.10768e-15 -5.39476e-15 0.162284 -3.68032e-17 -9.84176e-17)
(-1.51823e-15 8.09073e-30 1.34845e-30 9.15329 -4.41995e-16 -4.05873e-16 0.162284 -1.56296e-15 6.82877e-16)
(-1.59775e-15 1.0576e-29 1.00385e-30 8.90017 2.98533e-15 -5.54934e-15 0.160113 -3.8466e-17 -1.0264e-16)
(0 -7.97477e-30 -6.64564e-31 8.90017 -5.89575e-16 -3.67648e-16 0.160113 -1.56646e-15 6.93084e-16)
(1.60915e-15 -2.5956e-30 3.11765e-31 8.65646 4.28413e-15 -5.69993e-15 0.158015 -6.99057e-17 -1.06875e-16)
(-7.91163e-15 0 0 8.65646 -1.90299e-15 -3.29588e-16 0.158015 -1.57832e-15 7.04934e-16)
(2.90775e-15 -7.74781e-30 -6.45651e-31 8.42172 4.34264e-15 -5.84442e-15 0.155987 -8.76738e-17 -1.11073e-16)
(-6.4816e-15 7.74781e-30 6.45651e-31 8.42172 -1.9075e-15 -5.06613e-16 0.155987 -1.60091e-15 7.15815e-16)
(-3.06453e-15 1.02286e-29 2.26088e-30 8.19553 3.7927e-15 -5.98305e-15 0.154026 -7.41511e-17 -1.15289e-16)
(1.3052e-14 -2.54559e-30 -1.27279e-30 8.19553 -9.57034e-16 -6.32615e-16 0.154026 -1.60991e-15 7.25656e-16)
(1.64245e-15 4.93647e-30 2.71172e-31 7.9775 4.11235e-15 -6.12053e-15 0.152128 -6.92872e-17 -1.19642e-16)
(6.56979e-15 -1.25455e-29 -1.88183e-30 7.9775 -2.52114e-15 -6.27756e-16 0.152128 -1.61371e-15 7.36033e-16)
(0 0 -6.18285e-31 7.76726 4.72615e-15 -6.25232e-15 0.150292 -8.86801e-17 -1.23835e-16)
(0 4.94628e-30 1.23657e-30 7.76726 -2.89034e-15 -6.03083e-16 0.150292 -1.64428e-15 7.47358e-16)
(-1.66393e-15 -1.20442e-29 -8.53349e-31 7.56443 5.73354e-15 -6.37053e-15 0.148514 -9.53901e-17 -1.2785e-16)
(6.65573e-15 1.46262e-29 1.82827e-30 7.56443 -2.1407e-15 -5.78608e-16 0.148514 -1.65399e-15 7.59539e-16)
(-1.67448e-15 9.78114e-30 9.71119e-31 7.36871 6.77983e-15 -6.47091e-15 0.146793 -1.31362e-16 -1.31515e-16)
(-6.69791e-15 -2.40276e-30 0 7.36871 -3.38736e-15 -6.65242e-16 0.146793 -1.67571e-15 7.72072e-16)
(1.68489e-15 -9.67255e-30 -1.55958e-30 7.17975 5.89028e-15 -6.56449e-15 0.145126 -1.40422e-16 -1.35428e-16)
(6.73958e-15 7.10495e-30 1.18416e-30 7.17975 -3.1666e-15 -8.93077e-16 0.145126 -1.70739e-15 7.83116e-16)
(-1.69519e-15 1.42425e-29 3.29848e-30 6.99727 5.03976e-15 -6.6562e-15 0.143511 -9.87775e-17 -1.39178e-16)
(6.78075e-15 -1.16719e-29 -2.91797e-30 6.99727 -3.28946e-15 -8.50306e-16 0.143511 -1.72197e-15 7.93721e-16)
(-1.70536e-15 2.56658e-30 -1.71646e-31 6.82098 6.14829e-15 -1.10126e-15 0.141945 -1.09195e-16 -1.15223e-17)
(0 0 5.75229e-31 6.82098 -4.47884e-15 -8.06601e-16 0.141945 -1.76489e-15 8.07228e-16)
(-1.71542e-15 2.557e-30 4.04113e-31 6.6506 6.63213e-15 -6.09273e-16 0.140428 -1.48402e-16 -1.43679e-17)
(0 4.53588e-30 5.66985e-31 6.6506 -3.87615e-15 -9.39593e-16 0.140428 -1.79676e-15 8.21275e-16)
(-1.72537e-15 -4.15161e-30 0 6.48589 6.43508e-15 4.07e-31 0.138957 -1.33087e-16 -3.9443e-31)
(6.90149e-15 6.7063e-30 1.11772e-30 6.48589 -3.2454e-15 -9.44039e-16 0.138957 -1.81265e-15 8.36605e-16)
(1.73521e-15 -9.15912e-30 -1.50151e-30 6.32661 6.17193e-15 2.62936e-15 0.137529 -1.44199e-16 -4.3859e-17)
(0 6.61018e-30 1.1017e-30 6.32661 -2.96733e-15 -9.20781e-16 0.137529 -1.8365e-15 8.52914e-16)
(2.44524e-15 -6.51544e-30 -5.42953e-31 6.17251 4.418e-15 3.09238e-15 0.136145 -1.25402e-16 -7.12514e-17)
(0 6.51544e-30 5.42953e-31 6.17251 -2.99372e-15 -9.45645e-16 0.136145 -1.84792e-15 8.70206e-16)
(-1.75458e-15 -1.72715e-30 -1.42134e-31 6.02339 3.14468e-15 2.82594e-15 0.134801 -7.00897e-17 -6.58229e-17)
(0 8.56274e-30 1.07034e-30 6.02339 -2.52668e-15 -1.08741e-15 0.134801 -1.8769e-15 8.87439e-16)
(2.37565e-15 -2.532e-29 -3.16501e-30 5.87903 2.87397e-15 2.47233e-15 0.133497 -7.13799e-17 -6.12662e-17)
(1.17373e-14 2.11e-29 3.16501e-30 5.87903 3.16722e-16 -1.15122e-15 0.133497 -1.90861e-15 9.03222e-16)
(-2.3416e-15 0 5.19941e-31 5.73924 2.47538e-15 2.08474e-15 0.132231 -5.9698e-17 -5.14958e-17)
(7.09422e-15 4.15952e-30 5.19941e-31 5.73924 7.32871e-16 -1.02766e-15 0.132231 -1.90874e-15 9.2036e-16)
(-1.7829e-15 1.89511e-29 2.95354e-30 5.60384 1.88352e-15 1.91235e-15 0.131001 -5.48817e-17 -4.49841e-17)
(-7.1316e-15 -1.63996e-29 -2.04995e-30 5.60384 -3.20992e-16 -8.71321e-16 0.131001 -1.91874e-15 9.39538e-16)
(4.82807e-16 6.59647e-30 1.40019e-30 5.47264 4.81783e-16 1.91511e-15 0.129806 -3.34416e-17 -4.48476e-17)
(-9.44359e-15 -4.04115e-30 -1.01029e-30 5.47264 1.73155e-15 -9.81728e-16 0.129806 -1.92316e-15 9.5897e-16)
(0 3.98323e-30 9.95806e-31 5.34548 -1.41705e-15 1.90611e-15 0.128645 -5.80565e-17 -4.64343e-17)
(-2.24236e-15 0 -4.97903e-31 5.34548 3.80825e-15 -1.10874e-15 0.128645 -1.90491e-15 9.74909e-16)
(2.21022e-15 -1.88911e-29 9.81534e-31 5.22219 -1.38776e-17 1.88233e-15 0.127517 -1.70189e-19 -4.57231e-17)
(5.03141e-15 -3.92614e-30 -4.90767e-31 5.22219 2.50657e-15 -1.11224e-15 0.127517 -1.87766e-15 9.90505e-16)
(-3.59132e-16 0 3.00085e-30 5.10263 2.05626e-28 1.83528e-15 0.12642 -1.0432e-45 -4.66193e-17)
(0 -1.93493e-29 -2.9024e-30 5.10263 5.17494e-17 -1.22899e-15 0.12642 -1.87696e-15 1.00542e-15)
(0 -2.67008e-29 -3.3376e-30 4.98665 2.27577e-15 1.74824e-15 0.125354 -5.9244e-17 -4.47042e-17)
(1.46266e-14 2.67008e-29 3.3376e-30 4.98665 7.14928e-16 -1.33196e-15 0.125354 -1.8926e-15 1.01857e-15)
(0 -7.51946e-30 -1.4099e-30 4.87411 2.01702e-15 1.50914e-15 0.124316 -5.5636e-17 -4.35582e-17)
(1.46974e-14 7.51946e-30 9.39932e-31 4.87411 -7.75868e-17 -1.24712e-15 0.124316 -1.8627e-15 1.03146e-15)
(-3.69187e-15 5.09252e-30 7.65963e-31 4.76488 1.29272e-15 1.31506e-15 0.123307 -4.76284e-17 -3.36768e-17)
(0 0 0 4.76488 -1.99383e-15 -1.20665e-15 0.123307 -1.86852e-15 1.04791e-15)
(-1.85463e-15 -6.68871e-31 8.3831e-31 4.65883 1.46799e-15 1.19308e-15 0.122326 -1.93503e-17 -3.46744e-17)
(1.4837e-14 3.65273e-30 0 4.65883 -1.21358e-15 -1.29803e-15 0.122326 -1.89355e-15 1.06243e-15)
(1.86325e-15 -9.74222e-30 -1.28176e-30 4.55584 2.8888e-15 9.47481e-16 0.121371 -7.4573e-17 -2.81849e-17)
(0 7.20075e-30 9.00094e-31 4.55584 -1.70145e-15 -1.21444e-15 0.121371 -1.88959e-15 1.07796e-15)
(-1.8718e-15 2.53872e-30 3.81623e-31 4.45581 2.49432e-15 8.87037e-16 0.120441 -7.99949e-17 -2.24569e-17)
(0 3.54877e-30 4.43597e-31 4.45581 -2.17512e-15 -1.27167e-15 0.120441 -1.91309e-15 1.09509e-15)
(-1.88028e-15 9.53652e-30 1.25493e-30 4.35861 2.18653e-15 8.82201e-16 0.119535 -5.51933e-17 -2.57063e-17)
(7.52113e-15 -6.99582e-30 -8.74477e-31 4.35861 -4.75705e-16 -1.37981e-15 0.119535 -1.93715e-15 1.10856e-15)
(-1.8887e-15 9.43207e-30 1.24211e-30 4.26415 2.05252e-15 7.53593e-16 0.118654 -6.52684e-17 -2.28465e-17)
(5.61387e-15 0 -4.30972e-31 4.26415 5.19948e-17 -1.41323e-15 0.118654 -1.92614e-15 1.12248e-15)
(-3.7941e-15 5.07899e-30 1.18446e-30 4.17232 1.19865e-15 5.2173e-16 0.117795 -4.92702e-17 -1.92231e-17)
(0 0 -4.24795e-31 4.17232 -9.32243e-16 -1.28668e-15 0.117795 -1.91796e-15 1.13508e-15)
(-1.90534e-15 9.2446e-30 1.21824e-30 4.08304 3.84189e-16 4.6838e-16 0.116959 -1.84374e-17 -1.02801e-17)
(-1.88569e-15 -3.34965e-30 0 4.08304 -1.03377e-15 -1.2419e-15 0.116959 -1.92086e-15 1.15294e-15)
(1.85866e-15 -2.7518e-29 -8.25411e-31 3.99621 2.43063e-16 6.1098e-16 0.116144 -3.54462e-18 -1.66964e-17)
(-7.65428e-15 9.90493e-30 8.25411e-31 3.99621 -6.03327e-16 -1.49635e-15 0.116144 -1.9335e-15 1.16673e-15)
(1.92174e-15 -1.2299e-29 -1.19233e-30 3.91174 2.39609e-15 4.96548e-16 0.11535 -6.50595e-17 -1.89598e-17)
(7.68696e-15 9.76297e-30 8.13581e-31 3.91174 -1.25939e-15 -1.53646e-15 0.11535 -1.94145e-15 1.17801e-15)
(1.24088e-16 -8.94824e-30 -1.18166e-30 3.82955 2.18154e-15 3.26824e-16 0.114576 -7.68276e-17 -1.03642e-17)
(-5.91364e-15 6.41536e-30 8.0192e-31 3.82955 -2.65078e-15 -1.48931e-15 0.114576 -1.96304e-15 1.19127e-15)
(-1.93791e-15 8.85929e-30 1.17015e-30 3.74957 2.38797e-15 1.66264e-16 0.113821 -5.39896e-17 -9.25068e-18)
(7.75163e-15 -3.16171e-30 0 3.74957 -2.33287e-15 -1.49179e-15 0.113821 -1.97993e-15 1.20443e-15)
(0 6.23278e-30 7.79098e-31 3.67171 3.74166e-15 -9.96269e-18 0.113085 -9.17444e-17 -1.44834e-18)
(-3.50874e-15 -3.11639e-30 -7.79098e-31 3.67171 -1.02192e-15 -1.52061e-15 0.113085 -1.97246e-15 1.21939e-15)
(-3.45845e-15 9.21517e-30 2.30379e-30 3.59591 4.21793e-15 -2.05157e-16 0.112368 -1.39838e-16 -1.14872e-17)
(6.08618e-15 -3.07172e-30 -7.67931e-31 3.59591 -2.44686e-16 -1.60715e-15 0.112368 -1.97794e-15 1.23338e-15)
(1.96175e-15 -8.57252e-30 -1.89304e-30 3.52209 3.57015e-15 -5.09836e-16 0.111668 -1.2451e-16 -2.10124e-17)
(0 6.0554e-30 1.51385e-30 3.52209 -1.47551e-15 -1.47504e-15 0.111668 -1.98247e-15 1.24717e-15)
(0 8.95291e-30 0 3.45018 3.81141e-15 -5.87941e-16 0.110985 -1.02429e-16 -1.69009e-17)
(-7.87836e-15 -5.96861e-30 0 3.45018 -3.10384e-15 -1.49718e-15 0.110985 -2.01092e-15 1.26542e-15)
(-1.65593e-15 5.88306e-30 7.35383e-31 3.38013 4.48246e-15 -6.74657e-16 0.110319 -1.4384e-16 -2.73468e-17)
(0 0 0 3.38013 -2.35974e-15 -1.628e-15 0.110319 -2.04171e-15 1.27863e-15)
(0 5.79874e-30 7.24843e-31 3.31187 3.53896e-15 -8.19449e-16 0.10967 -1.49685e-16 -2.70838e-17)
(-3.2644e-15 0 -7.24843e-31 3.31187 -1.32928e-15 -1.63105e-15 0.10967 -2.06427e-15 1.29382e-15)
(3.60163e-15 1.17815e-29 1.76077e-30 3.24535 2.02076e-15 -8.38106e-16 0.109035 -8.49257e-17 -2.94144e-17)
(-1.60881e-15 -1.42891e-29 -2.14336e-30 3.24535 -8.13796e-17 -1.46281e-15 0.109035 -2.05782e-15 1.30646e-15)
(2.00048e-15 3.12394e-30 3.18692e-31 3.1805 5.18112e-16 -6.83407e-16 0.108416 -5.10116e-17 -1.72232e-17)
(-3.1715e-15 -2.81686e-30 -7.04214e-31 3.1805 1.66735e-15 -1.47429e-15 0.108416 -2.05119e-15 1.32299e-15)
(-4.01617e-15 5.02901e-30 7.71957e-31 3.11728 -5.81846e-16 -5.14375e-16 0.107812 -2.43483e-17 -1.84658e-17)
(8.03234e-15 0 0 3.11728 1.61391e-15 -1.78704e-15 0.107812 -2.04465e-15 1.32984e-15)
(-2.01565e-15 0 3.76054e-31 3.05562 0 -1.59037e-15 0.107222 0 -9.40007e-17)
(0 5.47338e-30 0 3.05562 2.15261e-16 -1.57255e-15 0.107222 -2.00987e-15 1.33495e-15)
(0 2.69747e-30 6.74366e-31 2.99549 1.06396e-16 -2.82328e-15 0.106645 -2.28444e-17 -1.07674e-16)
(-3.03708e-15 -2.69747e-30 -6.74366e-31 2.99549 1.40731e-15 -1.38252e-15 0.106645 -1.99342e-15 1.34772e-15)
(0 7.97641e-30 0 2.93683 -7.96392e-16 -2.94607e-15 0.106082 -4.23561e-17 -1.05713e-16)
(0 -2.6588e-30 0 2.93683 2.67727e-15 -1.52617e-15 0.106082 -1.96163e-15 1.35634e-15)
(-2.95064e-15 1.04828e-29 1.31035e-30 2.87959 -8.77963e-16 -2.76725e-15 0.105533 -2.20179e-17 -9.75917e-17)
(0 -2.6207e-30 0 2.87959 2.51181e-15 -1.73484e-15 0.105533 -1.94066e-15 1.36166e-15)
(0 2.8026e-45 6.45784e-31 2.82374 5.04797e-30 -2.68589e-15 0.104995 0 -1.02699e-16)
(1.63638e-14 -5.16627e-30 0 2.82374 3.11569e-15 -1.84287e-15 0.104995 -1.92459e-15 1.36358e-15)
(-4.10568e-15 5.03269e-30 7.62604e-31 2.76923 8.28047e-16 -2.80167e-15 0.104471 -3.25587e-17 -1.09272e-16)
(8.21136e-15 0 0 2.76923 1.20893e-15 -1.73002e-15 0.104471 -1.88948e-15 1.36684e-15)
(2.06016e-15 -1.00437e-29 -1.00954e-30 2.71602 1.15023e-15 -2.8006e-15 0.103958 -3.00584e-17 -1.05625e-16)
(0 7.52886e-30 6.27405e-31 2.71602 -2.11635e-15 -1.52688e-15 0.103958 -1.8769e-15 1.3736e-15)
(0 4.9473e-30 0 2.66406 2.031e-15 -2.6772e-15 0.103457 -5.8417e-17 -1.02795e-16)
(-8.26977e-15 0 0 2.66406 -2.30084e-15 -1.72401e-15 0.103457 -1.89806e-15 1.38563e-15)
(-4.81986e-15 -1.2129e-29 -8.36731e-31 2.61333 2.86642e-15 -2.77866e-15 0.102967 -1.00013e-16 -1.16792e-16)
(8.29876e-15 1.46292e-29 1.82865e-30 2.61333 -1.31314e-16 -1.82015e-15 0.102967 -1.90681e-15 1.38861e-15)
(0 7.20975e-30 6.00813e-31 2.56378 2.83744e-15 -2.87337e-15 0.102488 -1.26597e-16 -1.13452e-16)
(-2.70582e-15 -2.40325e-30 -6.00813e-31 2.56378 4.84269e-17 -1.65943e-15 0.102488 -1.88724e-15 1.39891e-15)
(0 -7.10642e-30 -5.92202e-31 2.51539 1.97254e-15 -2.77159e-15 0.10202 -1.00603e-16 -1.11877e-16)
(0 7.10642e-30 1.1844e-30 2.51539 -2.00595e-15 -1.73294e-15 0.10202 -1.88534e-15 1.40523e-15)
(-2.09622e-15 -2.17422e-30 3.86529e-31 2.46811 1.49144e-15 -2.67809e-15 0.101562 -5.94745e-17 -1.09007e-16)
(0 4.66971e-30 0 2.46811 -1.12697e-15 -1.90606e-15 0.101562 -1.90233e-15 1.40992e-15)
(-1.61552e-15 -1.80294e-29 -2.68029e-30 2.42191 1.61542e-15 -2.74615e-15 0.101114 -6.35779e-17 -1.20892e-16)
(1.94178e-14 2.53153e-29 2.87674e-30 2.42191 8.43192e-16 -1.72371e-15 0.101114 -1.87552e-15 1.41315e-15)
(2.554e-15 4.53681e-30 1.1342e-30 2.37677 1.64007e-15 -2.78807e-15 0.100676 -7.1668e-17 -1.15785e-16)
(-2.554e-15 0 0 2.37677 -6.41028e-16 -1.3758e-15 0.100676 -1.83662e-15 1.4266e-15)
(0 1.11795e-29 2.79487e-30 2.33264 1.40597e-15 -2.34504e-15 0.100248 -6.75484e-17 -8.59943e-17)
(-2.51739e-15 -4.47179e-30 -1.11795e-30 2.33264 -1.04712e-15 -1.75372e-15 0.100248 -1.85661e-15 1.43688e-15)
(-6.3734e-15 -1.23966e-29 -1.57725e-30 2.28951 2.4468e-15 -2.14719e-15 0.0998285 -5.34562e-17 -1.01761e-16)
(1.69957e-14 1.98346e-29 2.75481e-30 2.28951 -4.10742e-16 -2.20392e-15 0.0998285 -1.87128e-15 1.43386e-15)
(0 -1.95504e-29 -2.71533e-30 2.24735 3.79833e-15 -2.5302e-15 0.0994185 -1.72116e-16 -1.22718e-16)
(1.70516e-14 1.95504e-29 2.71533e-30 2.24735 -2.88052e-15 -1.79839e-15 0.0994185 -1.87355e-15 1.43172e-15)
(-2.1384e-15 8.87399e-30 2.53506e-30 2.20612 3.01625e-15 -2.51469e-15 0.0990173 -1.6459e-16 -1.03337e-16)
(-2.41069e-15 -4.28225e-30 -1.07056e-30 2.20612 -3.48227e-15 -1.66423e-15 0.0990173 -1.91933e-15 1.44255e-15)
(2.14533e-15 -2.35604e-29 -4.61418e-30 2.1658 2.70658e-15 -2.35861e-15 0.0986246 -1.06299e-16 -1.11966e-16)
(1.71626e-14 2.11044e-29 4.22088e-30 2.1658 -8.4703e-16 -1.99507e-15 0.0986246 -1.94666e-15 1.4379e-15)