/*--------------------------------*- C++ -*----------------------------------*\
| =========                 |                                                 |
| \\      /  F ield         | OpenFOAM: The Open Source CFD Toolbox           |
|  \\    /   O peration     | Version:  2012                                  |
|   \\  /    A nd           | Website:  www.openfoam.com                      |
|    \\/     M anipulation  |                                                 |
\*---------------------------------------------------------------------------*/
FoamFile
{
    version     2.0;
    format      ascii;
    class       volScalarField;
    location    "15800";
    object      nut;
}
// * * * * * * * * * * * * * * * * * * * * * * * * * * * * * * * * * * * * * //

dimensions      [0 2 -1 0 0 0 0];


internalField   nonuniform List<scalar> 
2560
(
6.34336e-09
6.34336e-09
8.87694e-07
8.87694e-07
1.83206e-05
1.83206e-05
0.000117294
0.000117294
0.000350615
0.000350615
0.000692008
0.000692008
0.00110309
0.00110309
0.00156022
0.00156022
0.00204968
0.00204968
0.00256292
0.00256292
0.00309419
0.00309419
0.00363935
0.00363935
0.00419532
0.00419532
0.00475967
0.00475967
0.00533046
0.00533046
0.00590608
0.00590608
0.00648517
0.00648517
0.00706657
0.00706657
0.00764926
0.00764926
0.00823233
0.00823233
0.00881497
0.00881497
0.00939644
0.00939644
0.00997604
0.00997604
0.0105531
0.0105531
0.0111272
0.0111272
0.0116975
0.0116975
0.0122636
0.0122636
0.012825
0.012825
0.0133812
0.0133812
0.0139316
0.0139316
0.0144758
0.0144758
0.0150134
0.0150134
0.0155439
0.0155439
0.0160668
0.0160668
0.0165818
0.0165818
0.0170883
0.0170883
0.0175862
0.0175862
0.0180749
0.0180749
0.0185542
0.0185542
0.0190237
0.0190237
0.0194832
0.0194832
0.0199324
0.0199324
0.0203712
0.0203712
0.0207993
0.0207993
0.0212167
0.0212167
0.0216233
0.0216233
0.0220193
0.0220193
0.0224047
0.0224047
0.0227797
0.0227797
0.0231448
0.0231448
0.0235002
0.0235002
0.0238466
0.0238466
0.0241846
0.0241846
0.0245151
0.0245151
0.0248391
0.0248391
0.0251578
0.0251578
0.0254724
0.0254724
0.0257846
0.0257846
0.0260959
0.0260959
0.0264084
0.0264084
0.0267241
0.0267241
0.0270454
0.0270454
0.0273746
0.0273746
0.0277144
0.0277144
0.0280675
0.0280675
0.0284366
0.0284366
0.0288246
0.0288246
0.0292344
0.0292344
0.0296684
0.0296684
0.0301294
0.0301294
0.0306194
0.0306194
0.0311406
0.0311406
0.0316944
0.0316944
0.0322819
0.0322819
0.0329038
0.0329038
0.0335601
0.0335601
0.0342503
0.0342503
0.0349733
0.0349733
0.0357277
0.0357277
0.0365113
0.0365113
0.0373217
0.0373217
0.0381561
0.0381561
0.0390114
0.0390114
0.0398843
0.0398843
0.0407714
0.0407714
0.0416691
0.0416691
0.042574
0.042574
0.0434826
0.0434826
0.0443917
0.0443917
0.0452981
0.0452981
0.0461988
0.0461988
0.0470912
0.0470912
0.0479726
0.0479726
0.0488409
0.0488409
0.0496939
0.0496939
0.0505299
0.0505299
0.0513473
0.0513473
0.0521448
0.0521448
0.0529214
0.0529214
0.053676
0.053676
0.054408
0.054408
0.0551169
0.0551169
0.0558022
0.0558022
0.0564638
0.0564638
0.0571016
0.0571016
0.0577155
0.0577155
0.0583057
0.0583057
0.0588724
0.0588724
0.0594159
0.0594159
0.0599366
0.0599366
0.0604348
0.0604348
0.060911
0.060911
0.0613658
0.0613658
0.0617995
0.0617995
0.0622128
0.0622128
0.0626062
0.0626062
0.0629802
0.0629802
0.0633354
0.0633354
0.0636724
0.0636724
0.0639918
0.0639918
0.0642939
0.0642939
0.0645795
0.0645795
0.0648489
0.0648489
0.0651028
0.0651028
0.0653415
0.0653415
0.0655655
0.0655655
0.0657752
0.0657752
0.0659712
0.0659712
0.0661537
0.0661537
0.0663232
0.0663232
0.06648
0.06648
0.0666245
0.0666245
0.0667569
0.0667569
0.0668777
0.0668777
0.066987
0.066987
0.0670853
0.0670853
0.0671727
0.0671727
0.0672495
0.0672495
0.0673161
0.0673161
0.0673725
0.0673725
0.0674191
0.0674191
0.067456
0.067456
0.0674836
0.0674836
0.0675019
0.0675019
0.0675113
0.0675113
0.0675119
0.0675119
0.0675039
0.0675039
0.0674876
0.0674876
0.0674631
0.0674631
0.0674307
0.0674307
0.0673906
0.0673906
0.0673431
0.0673431
0.0672884
0.0672884
0.0672267
0.0672267
0.0671585
0.0671585
0.0670838
0.0670838
0.0670032
0.0670032
0.0669168
0.0669168
0.066825
0.066825
0.0667281
0.0667281
0.0666266
0.0666266
0.0665206
0.0665206
0.0664106
0.0664106
0.0662969
0.0662969
0.0661797
0.0661797
0.0660593
0.0660593
0.0659359
0.0659359
0.0658098
0.0658098
0.065681
0.065681
0.0655499
0.0655499
0.0654164
0.0654164
0.0652808
0.0652808
0.0651432
0.0651432
0.0650039
0.0650039
0.0648629
0.0648629
0.0647206
0.0647206
0.0645772
0.0645772
0.0644332
0.0644332
0.0642887
0.0642887
0.0641443
0.0641443
0.0640003
0.0640003
0.063857
0.063857
0.0637151
0.0637151
0.0635748
0.0635748
0.0634367
0.0634367
0.0633011
0.0633011
0.0631685
0.0631685
0.0630394
0.0630394
0.0629141
0.0629141
0.0627933
0.0627933
0.0626774
0.0626774
0.062567
0.062567
0.0624628
0.0624628
0.0623655
0.0623655
0.062276
0.062276
0.0621949
0.0621949
0.0621233
0.0621233
0.0620622
0.0620622
0.0620124
0.0620124
0.0619751
0.0619751
0.0619513
0.0619513
0.0619421
0.0619421
0.0619484
0.0619484
0.0619714
0.0619714
0.0620117
0.0620117
0.0620704
0.0620704
0.0621479
0.0621479
0.0622449
0.0622449
0.062362
0.062362
0.0624995
0.0624995
0.062658
0.062658
0.0628378
0.0628378
0.0630393
0.0630393
0.0632626
0.0632626
0.0635078
0.0635078
0.0637748
0.0637748
0.064063
0.064063
0.0643719
0.0643719
0.0647004
0.0647005
0.0650474
0.0650475
0.0654114
0.0654114
0.0657908
0.0657908
0.0661839
0.0661839
0.0665894
0.0665894
0.0670061
0.0670061
0.0674331
0.0674331
0.0678698
0.0678698
0.0683154
0.0683154
0.0687689
0.0687689
0.0692288
0.0692288
0.0696935
0.0696935
0.0701607
0.0701607
0.0706287
0.0706287
0.0710955
0.0710955
0.0715598
0.0715598
0.0720203
0.0720203
0.0724761
0.0724761
0.0729267
0.0729267
0.0733723
0.0733723
0.0738135
0.0738135
0.0742516
0.0742516
0.0746874
0.0746874
0.0751217
0.0751217
0.0755541
0.0755541
0.0759832
0.0759832
0.0764064
0.0764064
0.07682
0.0768201
0.0772192
0.0772192
0.0775982
0.0775983
0.0779518
0.0779519
0.0782764
0.0782764
0.0785709
0.078571
0.0788374
0.0788375
0.0790804
0.0790805
0.0793063
0.0793064
0.0795229
0.0795229
0.0797374
0.0797375
0.079954
0.079954
0.0801728
0.0801727
0.0803919
0.0803918
0.080612
0.0806119
0.0808367
0.0808366
0.0810721
0.0810721
0.081326
0.081326
0.0816063
0.0816063
0.0819206
0.0819206
0.082275
0.082275
0.0826742
0.0826742
0.0831217
0.0831217
0.0836202
0.0836202
0.0841712
0.0841713
0.0847751
0.0847751
0.0854303
0.0854303
0.0861331
0.0861331
0.0868773
0.0868773
0.0876541
0.0876541
0.0884531
0.0884531
0.0892614
0.0892615
0.0900646
0.0900646
0.0908485
0.0908485
0.091601
0.091601
0.0923109
0.0923109
0.0929657
0.0929657
0.0935502
0.0935502
0.0940502
0.0940502
0.0944577
0.0944577
0.0947739
0.0947739
0.0950086
0.0950086
0.0951779
0.0951779
0.0953059
0.0953059
0.0954241
0.0954241
0.0955631
0.0955631
0.0957431
0.0957431
0.0959726
0.0959726
0.0962543
0.0962543
0.0965903
0.0965903
0.0969832
0.0969832
0.0974352
0.0974352
0.0979479
0.097948
0.0985209
0.0985209
0.0991489
0.0991489
0.0998201
0.0998202
0.100518
0.100518
0.101223
0.101223
0.101913
0.101913
0.102557
0.102557
0.103114
0.103114
0.103546
0.103546
0.103833
0.103833
0.10398
0.10398
0.104011
0.104011
0.103954
0.103955
0.103834
0.103834
0.103668
0.103668
0.103481
0.103481
0.1033
0.1033
0.10314
0.10314
0.103008
0.103008
0.102908
0.102908
0.102851
0.102851
6.34336e-09
6.34336e-09
8.87694e-07
8.87694e-07
1.83206e-05
1.83206e-05
0.000117294
0.000117294
0.000350615
0.000350615
0.000692009
0.000692008
0.00110309
0.00110309
0.00156022
0.00156022
0.00204969
0.00204969
0.00256292
0.00256292
0.00309419
0.00309419
0.00363935
0.00363935
0.00419532
0.00419532
0.00475967
0.00475967
0.00533046
0.00533046
0.00590608
0.00590608
0.00648517
0.00648517
0.00706657
0.00706657
0.00764926
0.00764926
0.00823233
0.00823233
0.00881497
0.00881497
0.00939644
0.00939644
0.00997604
0.00997604
0.0105531
0.0105531
0.0111272
0.0111272
0.0116975
0.0116975
0.0122636
0.0122636
0.012825
0.012825
0.0133812
0.0133812
0.0139316
0.0139316
0.0144758
0.0144758
0.0150134
0.0150134
0.0155439
0.0155439
0.0160668
0.0160668
0.0165818
0.0165818
0.0170884
0.0170884
0.0175862
0.0175862
0.0180749
0.0180749
0.0185542
0.0185542
0.0190237
0.0190237
0.0194832
0.0194832
0.0199324
0.0199324
0.0203712
0.0203712
0.0207993
0.0207993
0.0212167
0.0212167
0.0216233
0.0216233
0.0220193
0.0220193
0.0224047
0.0224047
0.0227797
0.0227797
0.0231448
0.0231448
0.0235002
0.0235002
0.0238466
0.0238466
0.0241846
0.0241846
0.0245151
0.0245151
0.0248391
0.0248391
0.0251578
0.0251578
0.0254724
0.0254724
0.0257846
0.0257846
0.0260959
0.0260959
0.0264084
0.0264084
0.0267241
0.0267241
0.0270454
0.0270454
0.0273746
0.0273746
0.0277144
0.0277144
0.0280675
0.0280675
0.0284366
0.0284366
0.0288246
0.0288246
0.0292344
0.0292344
0.0296684
0.0296684
0.0301294
0.0301294
0.0306194
0.0306194
0.0311406
0.0311406
0.0316944
0.0316944
0.0322819
0.0322819
0.0329038
0.0329038
0.0335601
0.0335601
0.0342503
0.0342503
0.0349733
0.0349733
0.0357277
0.0357277
0.0365113
0.0365113
0.0373217
0.0373217
0.0381561
0.0381561
0.0390114
0.0390114
0.0398843
0.0398843
0.0407713
0.0407713
0.0416691
0.0416691
0.042574
0.0425739
0.0434826
0.0434826
0.0443917
0.0443917
0.0452981
0.0452981
0.0461988
0.0461988
0.0470912
0.0470912
0.0479726
0.0479726
0.0488408
0.0488408
0.0496939
0.0496939
0.0505299
0.0505299
0.0513473
0.0513473
0.0521448
0.0521448
0.0529214
0.0529214
0.053676
0.053676
0.054408
0.054408
0.0551169
0.0551169
0.0558022
0.0558022
0.0564638
0.0564638
0.0571016
0.0571016
0.0577155
0.0577155
0.0583057
0.0583057
0.0588724
0.0588724
0.0594159
0.0594159
0.0599366
0.0599366
0.0604348
0.0604348
0.060911
0.060911
0.0613658
0.0613658
0.0617995
0.0617995
0.0622128
0.0622128
0.0626062
0.0626062
0.0629802
0.0629802
0.0633354
0.0633354
0.0636724
0.0636724
0.0639918
0.0639918
0.0642939
0.0642939
0.0645795
0.0645795
0.0648489
0.0648489
0.0651028
0.0651028
0.0653415
0.0653415
0.0655655
0.0655655
0.0657752
0.0657752
0.0659712
0.0659712
0.0661537
0.0661537
0.0663232
0.0663232
0.06648
0.06648
0.0666245
0.0666245
0.0667569
0.0667569
0.0668777
0.0668777
0.066987
0.066987
0.0670853
0.0670853
0.0671727
0.0671727
0.0672495
0.0672495
0.0673161
0.0673161
0.0673725
0.0673725
0.0674191
0.0674191
0.067456
0.067456
0.0674836
0.0674836
0.0675019
0.0675019
0.0675113
0.0675113
0.0675119
0.0675119
0.0675039
0.0675039
0.0674876
0.0674876
0.0674631
0.0674631
0.0674307
0.0674307
0.0673906
0.0673906
0.0673431
0.0673431
0.0672884
0.0672884
0.0672267
0.0672267
0.0671585
0.0671585
0.0670838
0.0670838
0.0670032
0.0670032
0.0669168
0.0669168
0.066825
0.066825
0.0667281
0.0667281
0.0666266
0.0666266
0.0665206
0.0665206
0.0664106
0.0664106
0.0662969
0.0662969
0.0661797
0.0661797
0.0660593
0.0660593
0.0659359
0.0659359
0.0658098
0.0658098
0.065681
0.065681
0.0655499
0.0655499
0.0654164
0.0654164
0.0652808
0.0652808
0.0651432
0.0651432
0.0650039
0.0650039
0.0648629
0.0648629
0.0647206
0.0647206
0.0645772
0.0645772
0.0644332
0.0644332
0.0642887
0.0642887
0.0641443
0.0641443
0.0640003
0.0640003
0.063857
0.063857
0.0637151
0.0637151
0.0635748
0.0635748
0.0634367
0.0634367
0.0633011
0.0633011
0.0631685
0.0631685
0.0630394
0.0630394
0.0629141
0.0629141
0.0627933
0.0627933
0.0626774
0.0626774
0.062567
0.062567
0.0624628
0.0624628
0.0623655
0.0623655
0.062276
0.062276
0.0621949
0.0621949
0.0621233
0.0621233
0.0620622
0.0620622
0.0620124
0.0620124
0.0619751
0.0619751
0.0619513
0.0619513
0.0619421
0.0619421
0.0619484
0.0619484
0.0619714
0.0619714
0.0620118
0.0620118
0.0620704
0.0620704
0.0621479
0.0621479
0.0622449
0.0622449
0.062362
0.062362
0.0624995
0.0624995
0.062658
0.062658
0.0628378
0.0628378
0.0630393
0.0630393
0.0632626
0.0632626
0.0635079
0.0635079
0.0637748
0.0637748
0.0640631
0.0640631
0.0643719
0.0643719
0.0647005
0.0647005
0.0650475
0.0650475
0.0654115
0.0654115
0.0657908
0.0657908
0.0661839
0.0661839
0.0665894
0.0665894
0.0670061
0.0670061
0.0674332
0.0674332
0.0678699
0.0678699
0.0683154
0.0683154
0.0687689
0.0687689
0.0692289
0.0692289
0.0696935
0.0696935
0.0701608
0.0701608
0.0706287
0.0706287
0.0710956
0.0710956
0.0715599
0.0715599
0.0720204
0.0720203
0.0724761
0.0724761
0.0729268
0.0729268
0.0733724
0.0733724
0.0738136
0.0738136
0.0742516
0.0742516
0.0746875
0.0746875
0.0751218
0.0751217
0.0755542
0.0755541
0.0759833
0.0759832
0.0764065
0.0764065
0.0768201
0.0768201
0.0772193
0.0772192
0.0775983
0.0775983
0.0779519
0.0779519
0.0782765
0.0782764
0.078571
0.0785709
0.0788375
0.0788374
0.0790805
0.0790804
0.0793064
0.0793064
0.079523
0.0795229
0.0797375
0.0797375
0.079954
0.079954
0.0801727
0.0801728
0.0803918
0.0803919
0.0806119
0.080612
0.0808366
0.0808367
0.0810721
0.0810721
0.081326
0.081326
0.0816063
0.0816063
0.0819206
0.0819206
0.082275
0.082275
0.0826742
0.0826742
0.0831218
0.0831217
0.0836202
0.0836202
0.0841713
0.0841713
0.0847752
0.0847751
0.0854304
0.0854303
0.0861332
0.0861331
0.0868773
0.0868773
0.0876542
0.0876542
0.0884532
0.0884531
0.0892615
0.0892615
0.0900647
0.0900646
0.0908485
0.0908485
0.091601
0.091601
0.0923109
0.0923109
0.0929656
0.0929656
0.0935502
0.0935501
0.0940502
0.0940502
0.0944577
0.0944577
0.0947739
0.0947739
0.0950085
0.0950085
0.0951778
0.0951778
0.0953058
0.0953059
0.0954241
0.0954241
0.0955631
0.0955631
0.0957431
0.0957431
0.0959726
0.0959726
0.0962543
0.0962543
0.0965903
0.0965903
0.0969832
0.0969832
0.0974352
0.0974352
0.097948
0.097948
0.098521
0.0985209
0.0991489
0.0991489
0.0998202
0.0998201
0.100518
0.100518
0.101223
0.101223
0.101913
0.101913
0.102557
0.102557
0.103114
0.103114
0.103546
0.103546
0.103833
0.103833
0.10398
0.10398
0.104011
0.104011
0.103954
0.103954
0.103834
0.103834
0.103668
0.103668
0.103481
0.103481
0.1033
0.1033
0.10314
0.10314
0.103008
0.103008
0.102908
0.102908
0.102851
0.102851
0.10285
0.10285
0.102906
0.102906
0.103005
0.103005
0.103135
0.103135
0.103293
0.103293
0.103473
0.103473
0.103657
0.103657
0.103821
0.103821
0.103937
0.103937
0.103986
0.103986
0.103949
0.103949
0.103797
0.103797
0.103506
0.103507
0.103073
0.103073
0.102518
0.102518
0.101878
0.101878
0.101192
0.101192
0.100491
0.100491
0.0997964
0.0997964
0.0991281
0.0991282
0.0985035
0.0985035
0.0979341
0.0979341
0.0974248
0.0974249
0.0969762
0.0969762
0.0965865
0.0965865
0.0962536
0.0962536
0.0959749
0.0959749
0.0957482
0.0957482
0.0955709
0.0955709
0.0954344
0.0954344
0.0953189
0.0953189
0.0951934
0.0951933
0.0950252
0.0950252
0.0947899
0.0947899
0.0944715
0.0944715
0.0940604
0.0940604
0.0935567
0.0935567
0.0929696
0.0929696
0.092313
0.092313
0.0916019
0.0916019
0.0908484
0.0908484
0.0900634
0.0900634
0.0892592
0.0892592
0.0884496
0.0884496
0.0876493
0.0876494
0.0868713
0.0868713
0.0861261
0.0861261
0.0854224
0.0854224
0.0847666
0.0847667
0.0841624
0.0841624
0.0836112
0.0836112
0.0831127
0.0831127
0.082665
0.082665
0.0822657
0.0822657
0.0819114
0.0819114
0.0815973
0.0815973
0.0813172
0.0813172
0.0810635
0.0810634
0.0808282
0.0808281
0.080604
0.0806039
0.0803845
0.0803845
0.0801658
0.0801658
0.0799471
0.0799471
0.0797304
0.0797304
0.0795154
0.0795154
0.0792982
0.0792983
0.0790719
0.0790719
0.0788289
0.0788289
0.0785623
0.0785624
0.0782673
0.0782674
0.0779421
0.0779422
0.0775881
0.0775881
0.0772091
0.0772091
0.0768103
0.0768104
0.0763975
0.0763976
0.0759756
0.0759756
0.0755479
0.0755479
0.0751167
0.0751168
0.0746833
0.0746833
0.0742477
0.0742477
0.0738096
0.0738096
0.073368
0.0733681
0.0729222
0.0729222
0.0724713
0.0724713
0.0720154
0.0720154
0.0715547
0.0715547
0.0710904
0.0710904
0.0706238
0.0706238
0.070156
0.070156
0.0696889
0.0696889
0.0692247
0.0692247
0.0687652
0.0687652
0.0683124
0.0683124
0.0678676
0.0678676
0.0674317
0.0674317
0.0670053
0.0670053
0.066589
0.066589
0.0661839
0.0661839
0.065791
0.065791
0.0654119
0.0654119
0.0650481
0.0650481
0.0647014
0.0647014
0.064373
0.064373
0.0640643
0.0640643
0.063776
0.063776
0.0635089
0.0635089
0.0632635
0.0632635
0.06304
0.06304
0.0628383
0.0628383
0.0626583
0.0626583
0.0624998
0.0624998
0.0623623
0.0623623
0.0622453
0.0622453
0.0621483
0.0621483
0.0620709
0.0620709
0.0620123
0.0620123
0.061972
0.061972
0.0619492
0.0619492
0.061943
0.061943
0.0619523
0.0619523
0.0619761
0.0619761
0.0620135
0.0620135
0.0620632
0.0620632
0.0621245
0.0621245
0.0621961
0.0621961
0.0622772
0.0622772
0.0623668
0.0623668
0.062464
0.062464
0.0625683
0.0625683
0.0626787
0.0626787
0.0627946
0.0627946
0.0629155
0.0629155
0.0630407
0.0630407
0.0631699
0.0631699
0.0633025
0.0633025
0.063438
0.063438
0.0635762
0.0635762
0.0637164
0.0637164
0.0638584
0.0638584
0.0640016
0.0640016
0.0641457
0.0641457
0.0642901
0.0642901
0.0644346
0.0644346
0.0645787
0.0645787
0.0647221
0.0647221
0.0648644
0.0648644
0.0650054
0.0650054
0.0651448
0.0651448
0.0652824
0.0652824
0.065418
0.065418
0.0655515
0.0655515
0.0656827
0.0656827
0.0658115
0.0658115
0.0659377
0.0659377
0.0660611
0.0660611
0.0661816
0.0661816
0.0662988
0.0662988
0.0664126
0.0664126
0.0665226
0.0665226
0.0666285
0.0666285
0.0667301
0.0667301
0.066827
0.066827
0.0669188
0.0669188
0.0670052
0.0670052
0.0670859
0.0670859
0.0671606
0.0671606
0.0672289
0.0672289
0.0672906
0.0672906
0.0673453
0.0673453
0.0673929
0.0673929
0.067433
0.067433
0.0674654
0.0674654
0.06749
0.06749
0.0675064
0.0675064
0.0675144
0.0675144
0.0675139
0.0675139
0.0675046
0.0675046
0.0674863
0.0674863
0.0674589
0.0674589
0.067422
0.067422
0.0673755
0.0673755
0.0673191
0.0673191
0.0672527
0.0672527
0.067176
0.067176
0.0670886
0.0670886
0.0669904
0.0669904
0.0668811
0.0668811
0.0667604
0.0667604
0.066628
0.066628
0.0664835
0.0664835
0.0663268
0.0663268
0.0661574
0.0661574
0.0659749
0.0659749
0.065779
0.065779
0.0655692
0.0655692
0.0653452
0.0653452
0.0651065
0.0651065
0.0648527
0.0648527
0.0645832
0.0645832
0.0642976
0.0642976
0.0639954
0.0639954
0.063676
0.063676
0.0633389
0.0633389
0.0629836
0.0629836
0.0626094
0.0626094
0.0622159
0.0622159
0.0618025
0.0618025
0.0613687
0.0613687
0.0609139
0.0609139
0.0604377
0.0604377
0.0599395
0.0599395
0.0594188
0.0594188
0.0588753
0.0588753
0.0583086
0.0583086
0.0577184
0.0577184
0.0571045
0.0571045
0.0564667
0.0564667
0.0558051
0.0558051
0.0551198
0.0551198
0.0544109
0.0544109
0.0536789
0.0536789
0.0529243
0.0529243
0.0521479
0.0521479
0.0513504
0.0513504
0.0505331
0.0505331
0.0496971
0.0496971
0.048844
0.048844
0.0479757
0.0479757
0.047094
0.047094
0.0462012
0.0462012
0.0453001
0.0453001
0.0443934
0.0443934
0.0434841
0.0434841
0.0425753
0.0425753
0.0416702
0.0416702
0.0407722
0.0407722
0.0398849
0.0398849
0.0390117
0.0390117
0.0381561
0.0381561
0.0373214
0.0373214
0.0365106
0.0365106
0.0357267
0.0357267
0.0349721
0.0349721
0.0342487
0.0342487
0.0335582
0.0335582
0.0329017
0.0329017
0.0322795
0.0322795
0.0316917
0.0316917
0.0311376
0.0311376
0.0306162
0.0306162
0.0301259
0.0301259
0.0296648
0.0296648
0.0292305
0.0292305
0.0288206
0.0288206
0.0284324
0.0284324
0.0280632
0.0280632
0.02771
0.02771
0.0273701
0.0273701
0.0270408
0.0270408
0.0267195
0.0267195
0.0264036
0.0264036
0.0260911
0.0260911
0.0257797
0.0257797
0.0254676
0.0254676
0.0251531
0.0251531
0.0248345
0.0248345
0.0245106
0.0245106
0.0241802
0.0241802
0.0238424
0.0238424
0.0234961
0.0234961
0.0231408
0.0231408
0.0227759
0.0227759
0.022401
0.022401
0.0220158
0.0220158
0.02162
0.02162
0.0212135
0.0212135
0.0207963
0.0207963
0.0203684
0.0203684
0.0199298
0.0199298
0.0194807
0.0194807
0.0190214
0.0190214
0.018552
0.018552
0.0180729
0.0180729
0.0175843
0.0175843
0.0170865
0.0170865
0.01658
0.01658
0.0160652
0.0160652
0.0155424
0.0155424
0.015012
0.015012
0.0144745
0.0144745
0.0139304
0.0139304
0.01338
0.01338
0.012824
0.012824
0.0122627
0.0122627
0.0116966
0.0116966
0.0111264
0.0111264
0.0105524
0.0105524
0.00997542
0.00997542
0.00939588
0.00939588
0.00881447
0.00881447
0.00823189
0.00823189
0.00764887
0.00764887
0.00706623
0.00706623
0.00648488
0.00648488
0.00590583
0.00590583
0.00533025
0.00533025
0.0047595
0.0047595
0.00419518
0.00419518
0.00363924
0.00363924
0.0030941
0.0030941
0.00256286
0.00256286
0.00204964
0.00204964
0.0015602
0.0015602
0.00110308
0.00110308
0.000692002
0.000692002
0.000350613
0.000350613
0.000117293
0.000117293
1.83205e-05
1.83205e-05
8.87687e-07
8.87687e-07
6.34344e-09
6.34344e-09
0.10285
0.10285
0.102906
0.102906
0.103005
0.103005
0.103135
0.103135
0.103293
0.103293
0.103473
0.103473
0.103657
0.103657
0.103821
0.103821
0.103937
0.103937
0.103986
0.103986
0.103949
0.103949
0.103797
0.103797
0.103507
0.103506
0.103073
0.103073
0.102518
0.102518
0.101878
0.101878
0.101192
0.101192
0.100491
0.100491
0.0997964
0.0997964
0.0991281
0.0991281
0.0985035
0.0985035
0.0979341
0.0979341
0.0974249
0.0974248
0.0969762
0.0969762
0.0965865
0.0965865
0.0962536
0.0962536
0.0959749
0.0959749
0.0957482
0.0957482
0.0955709
0.0955709
0.0954344
0.0954344
0.095319
0.095319
0.0951934
0.0951934
0.0950252
0.0950252
0.09479
0.09479
0.0944716
0.0944716
0.0940605
0.0940605
0.0935568
0.0935568
0.0929697
0.0929696
0.0923131
0.0923131
0.0916019
0.0916019
0.0908484
0.0908484
0.0900634
0.0900634
0.0892592
0.0892592
0.0884496
0.0884496
0.0876494
0.0876493
0.0868713
0.0868713
0.0861261
0.0861261
0.0854224
0.0854224
0.0847667
0.0847667
0.0841625
0.0841624
0.0836113
0.0836112
0.0831127
0.0831127
0.0826651
0.0826651
0.0822658
0.0822658
0.0819114
0.0819115
0.0815974
0.0815974
0.0813173
0.0813173
0.0810635
0.0810635
0.0808282
0.0808282
0.080604
0.080604
0.0803845
0.0803846
0.0801659
0.0801659
0.0799472
0.0799472
0.0797305
0.0797305
0.0795155
0.0795154
0.0792984
0.0792983
0.079072
0.0790719
0.078829
0.0788289
0.0785624
0.0785624
0.0782675
0.0782674
0.0779423
0.0779422
0.0775882
0.0775882
0.0772092
0.0772091
0.0768104
0.0768104
0.0763976
0.0763976
0.0759756
0.0759756
0.0755479
0.0755479
0.0751168
0.0751168
0.0746833
0.0746833
0.0742477
0.0742477
0.0738096
0.0738096
0.0733681
0.073368
0.0729222
0.0729222
0.0724713
0.0724713
0.0720154
0.0720154
0.0715547
0.0715547
0.0710904
0.0710904
0.0706237
0.0706237
0.0701559
0.0701559
0.0696889
0.0696889
0.0692246
0.0692246
0.0687652
0.0687652
0.0683123
0.0683123
0.0678675
0.0678675
0.0674317
0.0674317
0.0670052
0.0670052
0.066589
0.066589
0.0661838
0.0661838
0.065791
0.065791
0.0654118
0.0654118
0.0650481
0.0650481
0.0647013
0.0647013
0.064373
0.0643729
0.0640642
0.0640642
0.0637759
0.0637759
0.0635089
0.0635089
0.0632634
0.0632634
0.0630399
0.0630399
0.0628383
0.0628383
0.0626583
0.0626583
0.0624997
0.0624997
0.0623622
0.0623622
0.0622452
0.0622452
0.0621483
0.0621483
0.0620708
0.0620708
0.0620123
0.0620123
0.061972
0.061972
0.0619492
0.0619492
0.0619429
0.0619429
0.0619522
0.0619522
0.0619761
0.0619761
0.0620134
0.0620134
0.0620632
0.0620632
0.0621244
0.0621244
0.0621961
0.0621961
0.0622771
0.0622771
0.0623667
0.0623667
0.062464
0.062464
0.0625682
0.0625682
0.0626786
0.0626786
0.0627946
0.0627946
0.0629155
0.0629155
0.0630407
0.0630407
0.0631699
0.0631699
0.0633024
0.0633024
0.063438
0.063438
0.0635761
0.0635761
0.0637164
0.0637164
0.0638584
0.0638584
0.0640016
0.0640016
0.0641456
0.0641456
0.0642901
0.0642901
0.0644346
0.0644346
0.0645787
0.0645787
0.0647221
0.0647221
0.0648644
0.0648644
0.0650054
0.0650054
0.0651448
0.0651448
0.0652824
0.0652824
0.065418
0.065418
0.0655515
0.0655515
0.0656827
0.0656827
0.0658115
0.0658115
0.0659377
0.0659377
0.0660611
0.0660611
0.0661815
0.0661815
0.0662988
0.0662988
0.0664125
0.0664125
0.0665226
0.0665226
0.0666285
0.0666285
0.0667301
0.0667301
0.066827
0.066827
0.0669188
0.0669188
0.0670052
0.0670052
0.0670859
0.0670859
0.0671606
0.0671606
0.0672289
0.0672289
0.0672906
0.0672906
0.0673453
0.0673453
0.0673929
0.0673929
0.067433
0.067433
0.0674654
0.0674654
0.06749
0.06749
0.0675064
0.0675064
0.0675144
0.0675144
0.0675139
0.0675139
0.0675046
0.0675046
0.0674863
0.0674863
0.0674589
0.0674589
0.067422
0.067422
0.0673755
0.0673755
0.0673191
0.0673191
0.0672527
0.0672527
0.067176
0.067176
0.0670886
0.0670886
0.0669904
0.0669904
0.0668811
0.0668811
0.0667604
0.0667604
0.0666279
0.0666279
0.0664835
0.0664835
0.0663268
0.0663268
0.0661574
0.0661574
0.0659749
0.0659749
0.065779
0.065779
0.0655692
0.0655692
0.0653452
0.0653452
0.0651065
0.0651065
0.0648527
0.0648527
0.0645832
0.0645832
0.0642976
0.0642976
0.0639954
0.0639954
0.063676
0.063676
0.0633389
0.0633389
0.0629836
0.0629836
0.0626094
0.0626094
0.0622159
0.0622159
0.0618025
0.0618025
0.0613687
0.0613687
0.0609139
0.0609139
0.0604377
0.0604377
0.0599394
0.0599394
0.0594188
0.0594188
0.0588753
0.0588753
0.0583086
0.0583086
0.0577184
0.0577184
0.0571045
0.0571045
0.0564667
0.0564667
0.0558051
0.0558051
0.0551198
0.0551198
0.0544109
0.0544109
0.0536789
0.0536789
0.0529243
0.0529243
0.0521479
0.0521479
0.0513504
0.0513504
0.050533
0.050533
0.0496971
0.0496971
0.048844
0.048844
0.0479756
0.0479756
0.0470939
0.0470939
0.0462012
0.0462012
0.0453001
0.0453001
0.0443934
0.0443934
0.0434841
0.0434841
0.0425752
0.0425752
0.0416702
0.0416702
0.0407722
0.0407722
0.0398849
0.0398849
0.0390117
0.0390117
0.0381561
0.0381561
0.0373214
0.0373214
0.0365106
0.0365106
0.0357267
0.0357267
0.034972
0.034972
0.0342487
0.0342487
0.0335582
0.0335582
0.0329017
0.0329017
0.0322795
0.0322795
0.0316917
0.0316917
0.0311376
0.0311376
0.0306162
0.0306162
0.0301259
0.0301259
0.0296648
0.0296648
0.0292305
0.0292305
0.0288206
0.0288206
0.0284324
0.0284324
0.0280632
0.0280632
0.02771
0.02771
0.0273701
0.0273701
0.0270408
0.0270408
0.0267195
0.0267195
0.0264036
0.0264036
0.0260911
0.0260911
0.0257797
0.0257797
0.0254676
0.0254676
0.0251531
0.0251531
0.0248345
0.0248345
0.0245106
0.0245106
0.0241802
0.0241802
0.0238424
0.0238424
0.0234961
0.0234961
0.0231408
0.0231408
0.0227759
0.0227759
0.022401
0.022401
0.0220158
0.0220158
0.02162
0.02162
0.0212135
0.0212135
0.0207963
0.0207963
0.0203684
0.0203684
0.0199298
0.0199298
0.0194807
0.0194807
0.0190214
0.0190214
0.018552
0.018552
0.0180729
0.0180729
0.0175843
0.0175843
0.0170865
0.0170865
0.01658
0.01658
0.0160652
0.0160652
0.0155424
0.0155424
0.015012
0.015012
0.0144745
0.0144745
0.0139304
0.0139304
0.01338
0.01338
0.012824
0.012824
0.0122627
0.0122627
0.0116966
0.0116966
0.0111264
0.0111264
0.0105524
0.0105524
0.00997542
0.00997542
0.00939588
0.00939588
0.00881447
0.00881447
0.00823189
0.00823189
0.00764887
0.00764887
0.00706623
0.00706623
0.00648488
0.00648488
0.00590583
0.00590583
0.00533025
0.00533025
0.0047595
0.0047595
0.00419518
0.00419518
0.00363924
0.00363924
0.0030941
0.0030941
0.00256286
0.00256286
0.00204964
0.00204964
0.0015602
0.0015602
0.00110308
0.00110308
0.000692001
0.000692001
0.000350612
0.000350612
0.000117293
0.000117293
1.83205e-05
1.83205e-05
8.87686e-07
8.87686e-07
6.34343e-09
6.34343e-09
)
;

boundaryField
{
    walls
    {
        type            nutUWallFunction;
        blending        stepwise;
        Cmu             0.09;
        kappa           0.41;
        E               9.8;
        value           uniform 0;
    }
    inlet
    {
        type            cyclic;
    }
    outlet
    {
        type            cyclic;
    }
    sides
    {
        type            empty;
    }
}


// ************************************************************************* //
