/*--------------------------------*- C++ -*----------------------------------*\
| =========                 |                                                 |
| \\      /  F ield         | OpenFOAM: The Open Source CFD Toolbox           |
|  \\    /   O peration     | Version:  2012                                  |
|   \\  /    A nd           | Website:  www.openfoam.com                      |
|    \\/     M anipulation  |                                                 |
\*---------------------------------------------------------------------------*/
FoamFile
{
    version     2.0;
    format      ascii;
    class       volScalarField;
    location    "12400";
    object      k;
}
// * * * * * * * * * * * * * * * * * * * * * * * * * * * * * * * * * * * * * //

dimensions      [0 2 -2 0 0 0 0];


internalField   nonuniform List<scalar> 
2560
(
0.00253646
0.00253646
0.0563387
0.0563387
0.399368
0.399368
1.37627
1.37627
2.98564
2.98564
4.78668
4.78668
6.49694
6.49694
8.06537
8.06537
9.50977
9.50977
10.855
10.855
12.1212
12.1212
13.3233
13.3233
14.4721
14.4721
15.5757
15.5757
16.6399
16.6399
17.6692
17.6692
18.6669
18.6669
19.6353
19.6353
20.5762
20.5762
21.491
21.491
22.3803
22.3803
23.2445
23.2445
24.0839
24.0839
24.8982
24.8982
25.6871
25.6871
26.4499
26.4499
27.1859
27.1859
27.8941
27.8941
28.5735
28.5735
29.2228
29.2228
29.8407
29.8407
30.4258
30.4258
30.9767
30.9767
31.4918
31.4918
31.9698
31.9698
32.4089
32.4089
32.8078
32.8078
33.165
33.165
33.4792
33.4792
33.7491
33.7491
33.9737
33.9737
34.1521
34.1521
34.2835
34.2835
34.3674
34.3674
34.4037
34.4037
34.3923
34.3923
34.3338
34.3338
34.2289
34.2289
34.0786
34.0785
33.8844
33.8844
33.6482
33.6482
33.3722
33.3722
33.0593
33.0593
32.7124
32.7124
32.3351
32.3351
31.9313
31.9313
31.5051
31.5051
31.0611
31.0611
30.6042
30.6042
30.1393
30.1393
29.6718
29.6718
29.2069
29.2069
28.7501
28.7501
28.3064
28.3064
27.8812
27.8812
27.4792
27.4792
27.1048
27.1048
26.7623
26.7623
26.4551
26.4551
26.186
26.186
25.9573
25.9573
25.7705
25.7705
25.6261
25.6261
25.5242
25.5242
25.464
25.464
25.4436
25.4436
25.4609
25.4609
25.5129
25.5129
25.5961
25.5961
25.7067
25.7067
25.8406
25.8406
25.9933
25.9933
26.1604
26.1604
26.3373
26.3373
26.5195
26.5195
26.7028
26.7028
26.8831
26.8831
27.0566
27.0566
27.2199
27.2199
27.3698
27.3698
27.5035
27.5035
27.6187
27.6187
27.7135
27.7135
27.7861
27.7861
27.8354
27.8354
27.8605
27.8605
27.8607
27.8607
27.8359
27.8359
27.7859
27.7859
27.7109
27.7109
27.6115
27.6115
27.4882
27.4882
27.3417
27.3417
27.173
27.173
26.9829
26.9829
26.7726
26.7726
26.5432
26.5432
26.2959
26.2959
26.0317
26.0317
25.7519
25.7519
25.4577
25.4577
25.1503
25.1503
24.8307
24.8307
24.5002
24.5002
24.1597
24.1597
23.8104
23.8104
23.4532
23.4532
23.0892
23.0892
22.7191
22.7191
22.344
22.344
21.9646
21.9646
21.5816
21.5816
21.1959
21.1959
20.808
20.808
20.4187
20.4187
20.0285
20.0285
19.638
19.638
19.2476
19.2476
18.8579
18.8579
18.4692
18.4692
18.0821
18.0821
17.6968
17.6968
17.3138
17.3138
16.9333
16.9333
16.5556
16.5556
16.181
16.181
15.8098
15.8098
15.4423
15.4423
15.0785
15.0785
14.7188
14.7188
14.3632
14.3632
14.0121
14.0121
13.6654
13.6654
13.3234
13.3234
12.9862
12.9862
12.6538
12.6538
12.3265
12.3265
12.0043
12.0043
11.6873
11.6873
11.3756
11.3756
11.0692
11.0692
10.7683
10.7683
10.4729
10.4729
10.183
10.183
9.89883
9.89883
9.62033
9.62033
9.34757
9.34757
9.0806
9.0806
8.81945
8.81945
8.56415
8.56415
8.31472
8.31472
8.07117
8.07117
7.83348
7.83348
7.60164
7.60164
7.37559
7.37559
7.15528
7.15528
6.94064
6.94064
6.73158
6.73158
6.52801
6.52801
6.32982
6.32982
6.13691
6.13691
5.94916
5.94916
5.76647
5.76647
5.58874
5.58874
5.41589
5.41588
5.24782
5.24781
5.08446
5.08446
4.92574
4.92574
4.77159
4.77159
4.62194
4.62194
4.47674
4.47674
4.33591
4.33591
4.19938
4.19938
4.06709
4.06709
3.93896
3.93895
3.8149
3.8149
3.69483
3.69483
3.57868
3.57868
3.46636
3.46635
3.35778
3.35778
3.25288
3.25288
3.15158
3.15158
3.05382
3.05382
2.95955
2.95954
2.8687
2.8687
2.78124
2.78124
2.69712
2.69711
2.61628
2.61628
2.5387
2.5387
2.46432
2.46432
2.39311
2.3931
2.325
2.325
2.25996
2.25995
2.1979
2.1979
2.13876
2.13876
2.08246
2.08246
2.02891
2.0289
1.978
1.978
1.92965
1.92965
1.88375
1.88375
1.84021
1.8402
1.79893
1.79893
1.75983
1.75983
1.72281
1.7228
1.68776
1.68775
1.65457
1.65456
1.62312
1.62311
1.59327
1.59327
1.56489
1.56489
1.53782
1.53782
1.5119
1.5119
1.48697
1.48697
1.4629
1.4629
1.43956
1.43956
1.41688
1.41688
1.3948
1.3948
1.37328
1.37328
1.3523
1.3523
1.33179
1.33179
1.3117
1.3117
1.29193
1.29193
1.27239
1.27239
1.253
1.253
1.23368
1.23368
1.21439
1.21439
1.19511
1.19511
1.17583
1.17583
1.15657
1.15657
1.13737
1.13737
1.1183
1.1183
1.09945
1.09945
1.0809
1.08089
1.06268
1.06268
1.04481
1.04481
1.02724
1.02724
1.00987
1.00987
0.99256
0.992559
0.975136
0.975135
0.957391
0.95739
0.939143
0.939142
0.92029
0.920289
0.900847
0.900845
0.880938
0.880936
0.860774
0.860771
0.840612
0.840609
0.820706
0.820703
0.801242
0.801239
0.782309
0.782306
0.763913
0.76391
0.74603
0.746027
0.728664
0.728661
0.71189
0.711886
0.695834
0.69583
0.680637
0.680633
0.66642
0.666416
0.653263
0.653259
0.641201
0.641198
0.630239
0.630237
0.620373
0.620371
0.611593
0.611592
0.603895
0.603894
0.597275
0.597276
0.591722
0.591725
0.587198
0.587202
0.583623
0.58363
0.580873
0.580882
0.578776
0.578789
0.577115
0.577132
0.575627
0.575648
0.574049
0.574071
0.572148
0.572169
0.569775
0.569788
0.566796
0.566792
0.56294
0.56292
0.557826
0.557797
0.551173
0.551143
0.54302
0.542994
0.533569
0.533546
0.52313
0.52311
0.512146
0.51213
0.501166
0.501154
0.490681
0.490671
0.480975
0.480967
0.472084
0.472078
0.464
0.463996
0.456731
0.456728
0.450285
0.450282
0.444659
0.444657
0.439861
0.43986
0.435904
0.435904
0.432773
0.432775
0.430387
0.430391
0.428605
0.428612
0.427261
0.427272
0.426151
0.426166
0.424947
0.424968
0.423193
0.423219
0.420468
0.420496
0.416572
0.416601
0.411632
0.411658
0.406008
0.406025
0.400148
0.400153
0.394398
0.394389
0.38897
0.388956
0.384039
0.384029
0.379775
0.379769
0.376276
0.376274
0.373553
0.373553
0.371625
0.371627
0.370595
0.370599
0.00253646
0.00253646
0.0563387
0.0563387
0.399368
0.399368
1.37627
1.37627
2.98564
2.98564
4.78668
4.78668
6.49694
6.49694
8.06537
8.06537
9.50977
9.50977
10.855
10.855
12.1212
12.1212
13.3233
13.3233
14.4721
14.4721
15.5757
15.5757
16.6399
16.6399
17.6692
17.6692
18.6669
18.6669
19.6353
19.6353
20.5762
20.5762
21.491
21.491
22.3803
22.3803
23.2445
23.2445
24.0839
24.0839
24.8982
24.8982
25.6871
25.6871
26.4499
26.4499
27.1859
27.1859
27.8941
27.8941
28.5735
28.5735
29.2228
29.2228
29.8407
29.8407
30.4258
30.4258
30.9767
30.9767
31.4919
31.4919
31.9698
31.9698
32.4089
32.4089
32.8078
32.8078
33.165
33.165
33.4792
33.4792
33.7491
33.7491
33.9737
33.9737
34.1521
34.1521
34.2835
34.2835
34.3674
34.3674
34.4037
34.4037
34.3923
34.3923
34.3338
34.3338
34.2289
34.2289
34.0786
34.0786
33.8844
33.8844
33.6482
33.6482
33.3723
33.3723
33.0593
33.0593
32.7125
32.7125
32.3352
32.3352
31.9313
31.9313
31.5051
31.5051
31.0611
31.0611
30.6042
30.6042
30.1393
30.1393
29.6718
29.6718
29.207
29.207
28.7501
28.7501
28.3065
28.3065
27.8812
27.8812
27.4792
27.4792
27.1049
27.1049
26.7623
26.7623
26.4551
26.4551
26.186
26.186
25.9573
25.9573
25.7705
25.7705
25.6261
25.6261
25.5242
25.5242
25.464
25.464
25.4436
25.4436
25.4609
25.4609
25.5128
25.5128
25.5961
25.5961
25.7067
25.7067
25.8406
25.8406
25.9933
25.9933
26.1604
26.1604
26.3373
26.3373
26.5195
26.5195
26.7028
26.7028
26.8831
26.8831
27.0566
27.0566
27.2199
27.2199
27.3697
27.3697
27.5035
27.5035
27.6187
27.6187
27.7135
27.7135
27.7861
27.7861
27.8354
27.8354
27.8605
27.8605
27.8607
27.8607
27.8359
27.8359
27.7858
27.7858
27.7109
27.7109
27.6115
27.6115
27.4882
27.4882
27.3417
27.3417
27.1729
27.1729
26.9829
26.9829
26.7726
26.7726
26.5432
26.5432
26.2959
26.2959
26.0317
26.0317
25.7519
25.7519
25.4577
25.4577
25.1503
25.1503
24.8307
24.8307
24.5001
24.5001
24.1597
24.1597
23.8104
23.8104
23.4532
23.4532
23.0892
23.0892
22.7191
22.7191
22.344
22.344
21.9646
21.9646
21.5816
21.5816
21.1959
21.1959
20.808
20.808
20.4187
20.4187
20.0285
20.0285
19.638
19.638
19.2476
19.2476
18.8579
18.8579
18.4692
18.4692
18.0821
18.0821
17.6968
17.6968
17.3138
17.3138
16.9332
16.9332
16.5556
16.5556
16.181
16.181
15.8098
15.8098
15.4423
15.4423
15.0785
15.0785
14.7188
14.7188
14.3632
14.3632
14.0121
14.0121
13.6654
13.6654
13.3234
13.3234
12.9862
12.9862
12.6538
12.6538
12.3265
12.3265
12.0043
12.0043
11.6873
11.6873
11.3756
11.3756
11.0692
11.0692
10.7683
10.7683
10.4729
10.4729
10.183
10.183
9.89883
9.89883
9.62032
9.62032
9.34756
9.34756
9.08059
9.08059
8.81944
8.81944
8.56415
8.56415
8.31472
8.31472
8.07117
8.07117
7.83348
7.83348
7.60163
7.60163
7.37558
7.37558
7.15527
7.15527
6.94063
6.94063
6.73158
6.73158
6.52801
6.52801
6.32982
6.32982
6.1369
6.1369
5.94915
5.94915
5.76646
5.76646
5.58874
5.58874
5.41588
5.41588
5.24781
5.24781
5.08445
5.08445
4.92573
4.92573
4.77158
4.77158
4.62194
4.62194
4.47673
4.47674
4.3359
4.33591
4.19938
4.19938
4.06709
4.06709
3.93895
3.93895
3.81489
3.81489
3.69483
3.69483
3.57867
3.57867
3.46635
3.46635
3.35777
3.35777
3.25287
3.25287
3.15157
3.15157
3.05381
3.05381
2.95954
2.95954
2.86869
2.8687
2.78123
2.78123
2.69711
2.69711
2.61627
2.61627
2.53869
2.53869
2.46431
2.46431
2.3931
2.3931
2.32499
2.32499
2.25994
2.25995
2.19789
2.19789
2.13875
2.13875
2.08245
2.08245
2.02889
2.02889
1.97799
1.97799
1.92963
1.92964
1.88373
1.88373
1.84019
1.84019
1.79892
1.79892
1.75981
1.75982
1.72279
1.72279
1.68774
1.68774
1.65455
1.65455
1.6231
1.6231
1.59325
1.59326
1.56487
1.56487
1.5378
1.5378
1.51188
1.51188
1.48695
1.48695
1.46288
1.46288
1.43954
1.43954
1.41686
1.41686
1.39478
1.39478
1.37327
1.37327
1.35228
1.35228
1.33178
1.33178
1.31168
1.31168
1.29192
1.29192
1.27238
1.27238
1.25298
1.25298
1.23366
1.23366
1.21438
1.21438
1.1951
1.1951
1.17582
1.17582
1.15656
1.15656
1.13736
1.13736
1.11829
1.11829
1.09944
1.09944
1.08089
1.08089
1.06267
1.06267
1.0448
1.0448
1.02723
1.02723
1.00986
1.00986
0.992555
0.992556
0.975133
0.975134
0.957389
0.95739
0.939142
0.939143
0.92029
0.920292
0.900848
0.90085
0.88094
0.880942
0.860776
0.860778
0.840615
0.840618
0.820709
0.820712
0.801245
0.801249
0.782313
0.782316
0.763917
0.76392
0.746033
0.746037
0.728667
0.728671
0.711891
0.711895
0.695834
0.695838
0.680636
0.68064
0.666419
0.666422
0.653261
0.653264
0.641198
0.641201
0.630236
0.630239
0.620369
0.620371
0.611588
0.611589
0.60389
0.60389
0.59727
0.597269
0.591716
0.591714
0.587192
0.587188
0.583618
0.583611
0.580868
0.580859
0.578774
0.578761
0.577115
0.577098
0.575631
0.57561
0.574055
0.574032
0.572154
0.572132
0.569775
0.569762
0.566782
0.566786
0.562913
0.562933
0.557794
0.557823
0.551145
0.551174
0.542999
0.543025
0.533553
0.533576
0.523119
0.523139
0.512139
0.512155
0.501162
0.501175
0.490678
0.490688
0.480972
0.480979
0.472081
0.472086
0.463997
0.464002
0.456728
0.456732
0.450281
0.450284
0.444655
0.444657
0.439856
0.439857
0.435898
0.435898
0.432768
0.432766
0.430382
0.430378
0.428601
0.428594
0.427259
0.427249
0.426154
0.426138
0.424956
0.424935
0.423209
0.423183
0.420489
0.420461
0.416598
0.416569
0.411657
0.411631
0.406027
0.406009
0.400156
0.400152
0.394394
0.394402
0.388961
0.388975
0.384033
0.384044
0.379773
0.37978
0.376277
0.37628
0.373556
0.373556
0.37163
0.371627
0.370601
0.370597
0.37059
0.370594
0.37161
0.371612
0.373528
0.373528
0.376231
0.376228
0.379709
0.379703
0.383952
0.38394
0.388851
0.388837
0.39425
0.394242
0.399956
0.399962
0.405739
0.405759
0.411275
0.411302
0.416147
0.416176
0.419991
0.420019
0.422697
0.422722
0.424479
0.4245
0.425745
0.42576
0.42692
0.42693
0.428322
0.428329
0.430156
0.43016
0.432593
0.432595
0.435778
0.435779
0.439793
0.439792
0.444648
0.444646
0.45033
0.450327
0.456833
0.456829
0.464158
0.464153
0.472297
0.472291
0.481244
0.481236
0.491005
0.490995
0.501539
0.501526
0.512572
0.512556
0.523607
0.523587
0.534071
0.534047
0.543514
0.543487
0.551624
0.551594
0.558204
0.558174
0.563244
0.563224
0.567052
0.567049
0.570001
0.570014
0.572354
0.572376
0.574234
0.574257
0.575792
0.575813
0.57726
0.577277
0.578899
0.578912
0.580973
0.580982
0.583701
0.583708
0.587256
0.58726
0.591763
0.591765
0.597301
0.597302
0.603907
0.603907
0.611592
0.611591
0.620359
0.620357
0.630212
0.63021
0.641159
0.641157
0.653208
0.653205
0.666352
0.666349
0.680557
0.680553
0.69574
0.695736
0.711785
0.711781
0.728557
0.728553
0.745924
0.745921
0.763803
0.7638
0.782185
0.782182
0.801097
0.801094
0.820533
0.82053
0.840404
0.840402
0.860542
0.860539
0.880696
0.880693
0.900592
0.90059
0.92001
0.920009
0.938826
0.938825
0.957048
0.957047
0.974787
0.974786
0.99222
0.992219
1.00956
1.00955
1.02697
1.02697
1.0446
1.0446
1.06252
1.06252
1.08077
1.08077
1.09933
1.09933
1.11817
1.11817
1.13722
1.13722
1.1564
1.1564
1.17565
1.17565
1.19491
1.19491
1.21418
1.21417
1.23346
1.23345
1.25278
1.25278
1.27218
1.27218
1.29173
1.29173
1.31151
1.31151
1.33163
1.33163
1.35217
1.35217
1.37321
1.37321
1.39478
1.39478
1.4169
1.41689
1.4396
1.4396
1.46296
1.46296
1.48705
1.48704
1.51198
1.51198
1.53792
1.53792
1.565
1.565
1.5934
1.59339
1.62324
1.62324
1.65469
1.65469
1.68786
1.68786
1.7229
1.72289
1.7599
1.7599
1.79898
1.79898
1.84024
1.84024
1.88377
1.88377
1.92967
1.92966
1.97802
1.97802
2.02893
2.02893
2.08249
2.08249
2.1388
2.13879
2.19794
2.19794
2.26001
2.26001
2.32507
2.32507
2.39318
2.39318
2.4644
2.4644
2.53878
2.53878
2.61637
2.61637
2.6972
2.6972
2.78134
2.78134
2.8688
2.8688
2.95965
2.95965
3.05392
3.05392
3.15169
3.15169
3.25299
3.25299
3.3579
3.3579
3.46649
3.46648
3.57881
3.57881
3.69496
3.69496
3.81502
3.81502
3.93908
3.93907
4.06721
4.06721
4.1995
4.1995
4.33603
4.33603
4.47686
4.47686
4.62207
4.62207
4.77171
4.77171
4.92587
4.92586
5.08459
5.08459
5.24796
5.24796
5.41604
5.41604
5.5889
5.5889
5.76663
5.76662
5.94932
5.94932
6.13708
6.13707
6.33
6.33
6.52821
6.52821
6.7318
6.73179
6.94087
6.94087
7.15552
7.15552
7.37584
7.37584
7.6019
7.6019
7.83376
7.83375
8.07145
8.07145
8.31501
8.31501
8.56444
8.56444
8.81974
8.81974
9.0809
9.0809
9.34788
9.34788
9.62065
9.62065
9.89916
9.89916
10.1834
10.1834
10.4732
10.4732
10.7686
10.7686
11.0696
11.0696
11.376
11.376
11.6877
11.6877
12.0047
12.0047
12.327
12.327
12.6543
12.6543
12.9867
12.9867
13.324
13.324
13.666
13.666
14.0127
14.0127
14.3639
14.3639
14.7195
14.7195
15.0793
15.0793
15.4432
15.4432
15.8108
15.8108
16.1821
16.1821
16.5567
16.5567
16.9344
16.9344
17.3149
17.3149
17.698
17.698
18.0833
18.0833
18.4705
18.4705
18.8592
18.8592
19.249
19.249
19.6394
19.6394
20.03
20.03
20.4202
20.4202
20.8096
20.8096
21.1974
21.1974
21.5831
21.5831
21.966
21.966
22.3454
22.3454
22.7205
22.7205
23.0905
23.0905
23.4544
23.4544
23.8114
23.8114
24.1606
24.1606
24.5009
24.5009
24.8314
24.8314
25.151
25.151
25.4584
25.4584
25.7526
25.7526
26.0324
26.0324
26.2966
26.2966
26.544
26.544
26.7735
26.7735
26.9838
26.9838
27.1738
27.1738
27.3425
27.3425
27.489
27.489
27.6123
27.6123
27.7118
27.7118
27.7869
27.7869
27.837
27.837
27.8621
27.8621
27.8619
27.8619
27.8369
27.8369
27.7876
27.7876
27.7147
27.7147
27.6195
27.6195
27.5036
27.5036
27.3692
27.3692
27.2189
27.2189
27.0554
27.0554
26.8817
26.8817
26.7012
26.7012
26.5177
26.5177
26.3351
26.3351
26.1579
26.1579
25.9904
25.9904
25.8373
25.8373
25.703
25.703
25.592
25.592
25.5084
25.5084
25.4561
25.4561
25.4386
25.4386
25.4587
25.4587
25.5187
25.5187
25.6203
25.6203
25.7644
25.7644
25.9509
25.9509
26.1793
26.1793
26.4481
26.4481
26.7551
26.7551
27.0974
27.0974
27.4715
27.4715
27.8734
27.8734
28.2985
28.2985
28.742
28.742
29.1988
29.1988
29.6634
29.6634
30.1307
30.1307
30.5955
30.5955
31.0525
31.0525
31.4966
31.4966
31.923
31.923
32.3271
32.3271
32.7048
32.7048
33.0522
33.0522
33.3658
33.3658
33.6421
33.6421
33.8785
33.8785
34.0731
34.0731
34.224
34.224
34.3295
34.3295
34.3885
34.3885
34.4003
34.4003
34.3646
34.3646
34.2811
34.2811
34.1501
34.1501
33.9722
33.9721
33.7479
33.7479
33.4783
33.4783
33.1643
33.1643
32.8073
32.8073
32.4086
32.4086
31.9695
31.9695
31.4917
31.4917
30.9766
30.9766
30.4258
30.4258
29.8406
29.8406
29.2228
29.2228
28.5736
28.5736
27.8943
27.8943
27.1863
27.1863
26.4504
26.4504
25.6876
25.6876
24.8988
24.8988
24.0845
24.0845
23.2451
23.2451
22.3808
22.3808
21.4914
21.4914
20.5767
20.5767
19.6357
19.6357
18.6673
18.6673
17.6696
17.6696
16.6403
16.6403
15.576
15.576
14.4724
14.4724
13.3235
13.3236
12.1214
12.1214
10.8552
10.8552
9.50995
9.50996
8.06553
8.06554
6.49707
6.49707
4.78678
4.78678
2.98571
2.98571
1.37631
1.37631
0.399379
0.399379
0.05634
0.0563401
0.00253658
0.00253659
0.370596
0.370593
0.371615
0.371613
0.373531
0.373531
0.376232
0.376235
0.379707
0.379714
0.383945
0.383956
0.388842
0.388856
0.394247
0.394255
0.399966
0.39996
0.405761
0.405741
0.411301
0.411274
0.416172
0.416143
0.420012
0.419984
0.422712
0.422687
0.424488
0.424467
0.425747
0.425732
0.426917
0.426907
0.428317
0.42831
0.430151
0.430147
0.432587
0.432585
0.435773
0.435773
0.439788
0.43979
0.444643
0.444646
0.450326
0.450329
0.45683
0.456833
0.464154
0.464159
0.472294
0.4723
0.481241
0.481248
0.491002
0.491012
0.501535
0.501548
0.512566
0.512582
0.523596
0.523616
0.534055
0.534079
0.543492
0.543519
0.551595
0.551626
0.558171
0.558201
0.563217
0.563237
0.567039
0.567042
0.570001
0.569987
0.57236
0.572338
0.57424
0.574217
0.575796
0.575775
0.57726
0.577243
0.578896
0.578883
0.580968
0.580958
0.583696
0.583689
0.58725
0.587245
0.591757
0.591755
0.597295
0.597295
0.603902
0.603903
0.611588
0.611589
0.620355
0.620357
0.630209
0.630211
0.641157
0.64116
0.653206
0.65321
0.666351
0.666355
0.680557
0.680561
0.695741
0.695745
0.711787
0.711791
0.728559
0.728563
0.745928
0.745931
0.763807
0.76381
0.782189
0.782192
0.801101
0.801104
0.820536
0.820539
0.840407
0.84041
0.860544
0.860547
0.880697
0.8807
0.900593
0.900595
0.92001
0.920012
0.938825
0.938827
0.957046
0.957047
0.974784
0.974785
0.992216
0.992217
1.00955
1.00955
1.02697
1.02697
1.0446
1.0446
1.06251
1.06252
1.08076
1.08076
1.09932
1.09932
1.11816
1.11816
1.13721
1.13721
1.15639
1.15639
1.17563
1.17563
1.1949
1.1949
1.21416
1.21416
1.23344
1.23344
1.25276
1.25276
1.27216
1.27216
1.29171
1.29171
1.3115
1.3115
1.33162
1.33162
1.35216
1.35216
1.37319
1.37319
1.39476
1.39476
1.41688
1.41688
1.43958
1.43958
1.46294
1.46294
1.48703
1.48703
1.51196
1.51196
1.5379
1.5379
1.56499
1.56499
1.59338
1.59338
1.62323
1.62323
1.65467
1.65467
1.68785
1.68785
1.72288
1.72288
1.75988
1.75989
1.79897
1.79897
1.84022
1.84022
1.88375
1.88376
1.92965
1.92965
1.97801
1.97801
2.02892
2.02892
2.08248
2.08248
2.13878
2.13879
2.19793
2.19793
2.26
2.26
2.32506
2.32506
2.39317
2.39317
2.46439
2.4644
2.53877
2.53877
2.61636
2.61636
2.6972
2.6972
2.78133
2.78133
2.8688
2.8688
2.95964
2.95964
3.05392
3.05392
3.15168
3.15168
3.25299
3.25299
3.3579
3.3579
3.46648
3.46648
3.5788
3.5788
3.69495
3.69495
3.81501
3.81501
3.93907
3.93907
4.0672
4.0672
4.19949
4.1995
4.33602
4.33602
4.47685
4.47686
4.62206
4.62206
4.77171
4.77171
4.92586
4.92586
5.08459
5.08459
5.24796
5.24796
5.41604
5.41604
5.58889
5.5889
5.76662
5.76662
5.94931
5.94931
6.13707
6.13707
6.33
6.33
6.5282
6.5282
6.73179
6.73179
6.94086
6.94086
7.15551
7.15551
7.37583
7.37583
7.60189
7.60189
7.83375
7.83375
8.07144
8.07144
8.315
8.315
8.56443
8.56443
8.81973
8.81973
9.08089
9.08089
9.34787
9.34787
9.62064
9.62064
9.89916
9.89916
10.1834
10.1834
10.4732
10.4732
10.7686
10.7686
11.0696
11.0696
11.3759
11.3759
11.6877
11.6877
12.0047
12.0047
12.327
12.327
12.6543
12.6543
12.9867
12.9867
13.3239
13.3239
13.666
13.666
14.0127
14.0127
14.3639
14.3639
14.7195
14.7195
15.0793
15.0793
15.4432
15.4432
15.8108
15.8108
16.1821
16.1821
16.5567
16.5567
16.9344
16.9344
17.3149
17.3149
17.698
17.698
18.0833
18.0833
18.4705
18.4705
18.8592
18.8592
19.249
19.249
19.6394
19.6394
20.03
20.03
20.4202
20.4202
20.8096
20.8096
21.1974
21.1974
21.5831
21.5831
21.966
21.966
22.3454
22.3454
22.7205
22.7205
23.0905
23.0905
23.4544
23.4544
23.8114
23.8114
24.1605
24.1605
24.5009
24.5009
24.8314
24.8314
25.1509
25.1509
25.4584
25.4584
25.7526
25.7526
26.0324
26.0324
26.2966
26.2966
26.544
26.544
26.7735
26.7735
26.9838
26.9838
27.1738
27.1737
27.3424
27.3424
27.4889
27.4889
27.6123
27.6123
27.7118
27.7118
27.7868
27.7868
27.837
27.837
27.8621
27.8621
27.8619
27.8619
27.8369
27.8369
27.7876
27.7875
27.7147
27.7147
27.6195
27.6195
27.5036
27.5036
27.3692
27.3692
27.2189
27.2189
27.0554
27.0554
26.8817
26.8817
26.7012
26.7012
26.5177
26.5177
26.3351
26.3351
26.1579
26.1579
25.9904
25.9904
25.8373
25.8373
25.703
25.703
25.592
25.592
25.5084
25.5084
25.4561
25.4561
25.4386
25.4386
25.4587
25.4587
25.5187
25.5187
25.6203
25.6203
25.7644
25.7644
25.9509
25.9509
26.1793
26.1793
26.4481
26.4481
26.7551
26.7551
27.0974
27.0974
27.4715
27.4715
27.8734
27.8734
28.2985
28.2985
28.742
28.742
29.1988
29.1988
29.6634
29.6634
30.1307
30.1307
30.5955
30.5955
31.0525
31.0525
31.4966
31.4966
31.923
31.923
32.3271
32.3271
32.7048
32.7048
33.0522
33.0522
33.3658
33.3658
33.6421
33.6421
33.8785
33.8785
34.0731
34.0731
34.224
34.224
34.3295
34.3295
34.3885
34.3885
34.4003
34.4003
34.3646
34.3646
34.2811
34.2811
34.1501
34.1501
33.9722
33.9722
33.7479
33.7479
33.4783
33.4783
33.1643
33.1643
32.8073
32.8073
32.4086
32.4086
31.9695
31.9695
31.4917
31.4917
30.9766
30.9766
30.4258
30.4258
29.8406
29.8406
29.2227
29.2227
28.5736
28.5736
27.8943
27.8943
27.1863
27.1863
26.4504
26.4504
25.6876
25.6876
24.8988
24.8988
24.0845
24.0845
23.2451
23.2451
22.3808
22.3808
21.4914
21.4914
20.5767
20.5767
19.6357
19.6357
18.6672
18.6672
17.6696
17.6696
16.6403
16.6403
15.576
15.576
14.4724
14.4724
13.3235
13.3235
12.1214
12.1214
10.8552
10.8552
9.50995
9.50995
8.06553
8.06553
6.49707
6.49707
4.78678
4.78677
2.98571
2.98571
1.37631
1.37631
0.399379
0.399379
0.05634
0.0563399
0.00253658
0.00253658
)
;

boundaryField
{
    walls
    {
        type            kqRWallFunction;
        value           nonuniform List<scalar> 8(0.00253646 0.00253646 0.00253646 0.00253646 0.00253658 0.00253658 0.00253659 0.00253658);
    }
    inlet
    {
        type            cyclic;
    }
    outlet
    {
        type            cyclic;
    }
    sides
    {
        type            empty;
    }
}


// ************************************************************************* //
