/*--------------------------------*- C++ -*----------------------------------*\
| =========                 |                                                 |
| \\      /  F ield         | OpenFOAM: The Open Source CFD Toolbox           |
|  \\    /   O peration     | Version:  2012                                  |
|   \\  /    A nd           | Website:  www.openfoam.com                      |
|    \\/     M anipulation  |                                                 |
\*---------------------------------------------------------------------------*/
FoamFile
{
    version     2.0;
    format      ascii;
    class       volScalarField;
    location    "12400";
    object      omega;
}
// * * * * * * * * * * * * * * * * * * * * * * * * * * * * * * * * * * * * * //

dimensions      [0 0 -1 0 0 0 0];


internalField   nonuniform List<scalar> 
2560
(
1.52416e+06
1.52416e+06
264976
264976
89142.9
89142.9
41256.1
41256.1
23402
23402
15647.8
15647.8
11767.4
11767.4
9542.1
9542.1
8121.92
8121.92
7141.87
7141.87
6425.67
6425.67
5879.31
5879.31
5448.47
5448.47
5099.69
5099.68
4811.26
4811.26
4568.51
4568.51
4361.16
4361.16
4181.76
4181.75
4024.8
4024.8
3886.13
3886.13
3762.52
3762.52
3651.44
3651.44
3550.87
3550.87
3459.18
3459.18
3375.02
3375.02
3297.3
3297.3
3225.07
3225.07
3157.56
3157.56
3094.1
3094.1
3034.1
3034.1
2977.07
2977.07
2922.57
2922.57
2870.23
2870.23
2819.7
2819.7
2770.68
2770.68
2722.92
2722.92
2676.19
2676.19
2630.27
2630.27
2584.97
2584.97
2540.15
2540.15
2495.66
2495.66
2451.38
2451.38
2407.2
2407.2
2363.03
2363.03
2318.8
2318.8
2274.47
2274.47
2229.98
2229.98
2185.31
2185.31
2140.45
2140.45
2095.41
2095.41
2050.2
2050.2
2004.86
2004.86
1959.43
1959.43
1913.97
1913.97
1868.55
1868.55
1823.24
1823.24
1778.15
1778.15
1733.38
1733.38
1689.03
1689.03
1645.22
1645.22
1602.06
1602.06
1559.7
1559.7
1518.24
1518.24
1477.81
1477.81
1438.53
1438.53
1400.51
1400.51
1363.85
1363.85
1328.64
1328.64
1294.95
1294.95
1262.84
1262.84
1232.34
1232.34
1203.49
1203.49
1176.27
1176.27
1150.66
1150.66
1126.62
1126.62
1104.1
1104.1
1083.02
1083.02
1063.3
1063.3
1044.82
1044.82
1027.5
1027.5
1011.22
1011.22
995.861
995.861
981.319
981.319
967.484
967.484
954.251
954.251
941.521
941.521
929.203
929.203
917.215
917.215
905.48
905.48
893.933
893.933
882.516
882.516
871.179
871.179
859.882
859.882
848.589
848.589
837.275
837.275
825.917
825.917
814.502
814.502
803.018
803.018
791.461
791.461
779.827
779.827
768.118
768.118
756.339
756.339
744.494
744.494
732.592
732.592
720.643
720.643
708.655
708.655
696.64
696.64
684.61
684.61
672.575
672.575
660.547
660.547
648.539
648.539
636.561
636.561
624.623
624.623
612.738
612.738
600.913
600.913
589.16
589.16
577.487
577.487
565.902
565.902
554.413
554.413
543.027
543.027
531.751
531.751
520.591
520.591
509.552
509.552
498.639
498.639
487.857
487.856
477.209
477.209
466.699
466.698
456.329
456.329
446.103
446.103
436.023
436.023
426.09
426.09
416.306
416.306
406.673
406.673
397.19
397.19
387.86
387.86
378.682
378.682
369.657
369.657
360.784
360.784
352.065
352.065
343.498
343.498
335.083
335.083
326.821
326.821
318.709
318.709
310.747
310.747
302.936
302.936
295.273
295.273
287.757
287.757
280.389
280.389
273.166
273.166
266.089
266.089
259.155
259.155
252.364
252.364
245.714
245.714
239.205
239.205
232.836
232.835
226.604
226.604
220.511
220.511
214.553
214.553
208.731
208.731
203.042
203.042
197.486
197.486
192.061
192.061
186.766
186.766
181.599
181.599
176.558
176.558
171.641
171.641
166.846
166.846
162.171
162.171
157.614
157.614
153.171
153.171
148.841
148.841
144.621
144.621
140.508
140.508
136.501
136.501
132.597
132.597
128.795
128.795
125.091
125.091
121.485
121.485
117.974
117.974
114.558
114.558
111.233
111.233
108
108
104.855
104.855
101.797
101.797
98.8246
98.8246
95.936
95.9359
93.1293
93.1292
90.4028
90.4027
87.7547
87.7546
85.1833
85.1833
82.6871
82.687
80.2645
80.2644
77.914
77.914
75.6345
75.6344
73.4246
73.4245
71.2831
71.2831
69.209
69.209
67.2012
67.2011
65.2586
65.2586
63.3803
63.3802
61.5651
61.5651
59.8121
59.8121
58.12
58.12
56.4877
56.4877
54.9137
54.9137
53.3967
53.3966
51.935
51.9349
50.527
50.5269
49.1709
49.1709
47.8653
47.8653
46.6084
46.6084
45.3987
45.3987
44.2346
44.2346
43.1146
43.1145
42.0368
42.0368
40.9995
40.9995
40.0009
40.0008
39.0387
39.0387
38.1109
38.1108
37.2151
37.2151
36.349
36.3489
35.5102
35.5101
34.6966
34.6966
33.9065
33.9065
33.1385
33.1385
32.3916
32.3915
31.6648
31.6648
30.9577
30.9576
30.2691
30.2691
29.598
29.598
28.943
28.943
28.3027
28.3027
27.6758
27.6757
27.0611
27.0611
26.458
26.4579
25.8657
25.8657
25.284
25.2839
24.7126
24.7126
24.1519
24.1519
23.6024
23.6023
23.0647
23.0646
22.5394
22.5393
22.0268
22.0267
21.5267
21.5266
21.0383
21.0383
20.5605
20.5605
20.0916
20.0916
19.6294
19.6293
19.1715
19.1714
18.7157
18.7157
18.2608
18.2608
17.8066
17.8066
17.3542
17.3541
16.9054
16.9053
16.4626
16.4625
16.0282
16.0281
15.6039
15.6039
15.1905
15.1905
14.7879
14.7878
14.3956
14.3955
14.0136
14.0135
13.6425
13.6424
13.2833
13.2833
12.9375
12.9374
12.6061
12.606
12.2898
12.2897
11.9889
11.9888
11.7034
11.7033
11.4331
11.433
11.1778
11.1778
10.9376
10.9375
10.7122
10.7121
10.5015
10.5014
10.3049
10.3049
10.1218
10.1218
9.95088
9.95091
9.79048
9.79054
9.63857
9.63867
9.49279
9.49292
9.35075
9.35089
9.21039
9.21052
9.07037
9.07044
8.92949
8.92943
8.78545
8.78525
8.63504
8.63477
8.4759
8.47563
8.30823
8.30798
8.13348
8.13326
7.954
7.95381
7.77318
7.77301
7.59525
7.59511
7.42404
7.42392
7.26176
7.26166
7.1087
7.10861
6.96479
6.96471
6.83008
6.83001
6.70463
6.70457
6.58842
6.58836
6.48151
6.48146
6.384
6.38396
6.29577
6.29575
6.2162
6.21619
6.14422
6.14423
6.07859
6.07863
6.0178
6.01788
5.95944
5.95955
5.90016
5.90031
5.83693
5.8371
5.7683
5.76848
5.69518
5.69534
5.62015
5.62025
5.54647
5.54648
5.47665
5.47656
5.41229
5.41218
5.35475
5.35466
5.30535
5.3053
5.26491
5.26489
5.23365
5.23365
5.21184
5.21185
5.20038
5.2004
1.52416e+06
1.52416e+06
264976
264976
89142.9
89142.9
41256.1
41256.1
23402
23402
15647.8
15647.8
11767.4
11767.4
9542.1
9542.1
8121.92
8121.92
7141.87
7141.87
6425.67
6425.67
5879.31
5879.31
5448.47
5448.47
5099.68
5099.68
4811.26
4811.26
4568.51
4568.51
4361.16
4361.16
4181.75
4181.75
4024.8
4024.8
3886.13
3886.13
3762.52
3762.52
3651.44
3651.44
3550.87
3550.87
3459.18
3459.18
3375.02
3375.02
3297.3
3297.3
3225.07
3225.07
3157.56
3157.56
3094.1
3094.1
3034.1
3034.1
2977.07
2977.07
2922.57
2922.57
2870.23
2870.23
2819.7
2819.7
2770.68
2770.68
2722.92
2722.92
2676.19
2676.19
2630.27
2630.27
2584.97
2584.97
2540.15
2540.15
2495.66
2495.66
2451.38
2451.38
2407.2
2407.2
2363.03
2363.03
2318.8
2318.8
2274.47
2274.47
2229.98
2229.98
2185.31
2185.31
2140.45
2140.45
2095.41
2095.41
2050.2
2050.2
2004.86
2004.86
1959.43
1959.43
1913.97
1913.97
1868.55
1868.55
1823.24
1823.24
1778.16
1778.16
1733.38
1733.38
1689.03
1689.03
1645.22
1645.22
1602.06
1602.06
1559.7
1559.7
1518.24
1518.24
1477.81
1477.81
1438.53
1438.53
1400.51
1400.51
1363.85
1363.85
1328.64
1328.64
1294.95
1294.95
1262.84
1262.84
1232.34
1232.34
1203.49
1203.49
1176.27
1176.27
1150.66
1150.66
1126.62
1126.62
1104.1
1104.1
1083.02
1083.02
1063.3
1063.3
1044.82
1044.82
1027.5
1027.5
1011.22
1011.22
995.861
995.861
981.319
981.319
967.484
967.484
954.251
954.251
941.521
941.521
929.203
929.203
917.214
917.214
905.48
905.48
893.933
893.933
882.516
882.516
871.179
871.179
859.882
859.882
848.589
848.589
837.275
837.275
825.917
825.917
814.502
814.502
803.018
803.018
791.46
791.46
779.827
779.827
768.118
768.118
756.339
756.339
744.494
744.494
732.592
732.592
720.643
720.643
708.655
708.655
696.64
696.64
684.609
684.609
672.575
672.575
660.547
660.547
648.539
648.539
636.561
636.561
624.623
624.623
612.738
612.738
600.913
600.913
589.16
589.16
577.487
577.487
565.902
565.902
554.413
554.413
543.027
543.027
531.751
531.751
520.591
520.591
509.552
509.552
498.639
498.639
487.856
487.856
477.209
477.209
466.698
466.698
456.329
456.329
446.103
446.103
436.023
436.023
426.09
426.09
416.306
416.306
406.673
406.673
397.19
397.19
387.86
387.86
378.682
378.682
369.657
369.657
360.784
360.784
352.065
352.065
343.498
343.498
335.083
335.083
326.82
326.82
318.709
318.709
310.747
310.747
302.936
302.936
295.273
295.273
287.757
287.757
280.389
280.389
273.166
273.166
266.089
266.089
259.155
259.155
252.364
252.364
245.714
245.714
239.205
239.205
232.835
232.835
226.604
226.604
220.511
220.511
214.553
214.553
208.73
208.73
203.042
203.042
197.486
197.486
192.061
192.061
186.766
186.766
181.599
181.599
176.558
176.558
171.641
171.641
166.846
166.846
162.171
162.171
157.613
157.613
153.171
153.171
148.841
148.841
144.621
144.621
140.508
140.508
136.501
136.501
132.597
132.597
128.795
128.795
125.091
125.091
121.485
121.485
117.974
117.974
114.558
114.558
111.233
111.233
108
108
104.855
104.855
101.797
101.797
98.8245
98.8245
95.9359
95.9359
93.1292
93.1292
90.4027
90.4027
87.7546
87.7546
85.1832
85.1833
82.687
82.687
80.2643
80.2644
77.9139
77.914
75.6344
75.6344
73.4244
73.4245
71.283
71.283
69.2089
69.2089
67.201
67.2011
65.2585
65.2585
63.3801
63.3802
61.565
61.565
59.8119
59.812
58.1199
58.1199
56.4875
56.4876
54.9136
54.9136
53.3965
53.3966
51.9348
51.9348
50.5268
50.5268
49.1708
49.1708
47.8651
47.8651
46.6082
46.6083
45.3985
45.3985
44.2344
44.2345
43.1143
43.1144
42.0366
42.0366
40.9993
40.9994
40.0006
40.0007
39.0385
39.0385
38.1106
38.1107
37.2148
37.2149
36.3487
36.3488
35.5099
35.51
34.6964
34.6964
33.9063
33.9063
33.1383
33.1383
32.3913
32.3913
31.6646
31.6646
30.9574
30.9575
30.2689
30.2689
29.5978
29.5978
28.9428
28.9428
28.3025
28.3025
27.6755
27.6756
27.0609
27.061
26.4578
26.4578
25.8655
25.8656
25.2838
25.2838
24.7125
24.7125
24.1518
24.1518
23.6022
23.6023
23.0645
23.0646
22.5392
22.5393
22.0266
22.0267
21.5265
21.5266
21.0382
21.0383
20.5604
20.5605
20.0915
20.0916
19.6293
19.6293
19.1714
19.1714
18.7157
18.7157
18.2608
18.2608
17.8066
17.8067
17.3542
17.3542
16.9053
16.9054
16.4626
16.4626
16.0282
16.0283
15.6039
15.604
15.1905
15.1906
14.7879
14.788
14.3956
14.3957
14.0136
14.0137
13.6424
13.6425
13.2833
13.2834
12.9375
12.9376
12.6061
12.6061
12.2897
12.2898
11.9888
11.9889
11.7033
11.7034
11.433
11.433
11.1777
11.1778
10.9375
10.9376
10.7121
10.7121
10.5014
10.5014
10.3048
10.3049
10.1217
10.1217
9.95079
9.95076
9.7904
9.79034
9.63852
9.63843
9.49277
9.49264
9.35075
9.3506
9.21039
9.21026
9.07033
9.07026
8.92934
8.9294
8.78519
8.78539
8.63474
8.63501
8.47563
8.47591
8.30801
8.30826
8.13331
8.13354
7.95388
7.95407
7.77308
7.77325
7.59518
7.59532
7.42397
7.42409
7.2617
7.2618
7.10864
7.10872
6.96472
6.9648
6.83001
6.83008
6.70456
6.70462
6.58835
6.58841
6.48144
6.48148
6.38392
6.38395
6.29569
6.29571
6.21612
6.21613
6.14415
6.14414
6.07854
6.0785
6.01779
6.01771
5.95946
5.95935
5.90024
5.90009
5.83705
5.83688
5.76845
5.76828
5.69533
5.69517
5.62027
5.62016
5.5465
5.54649
5.4766
5.47668
5.41221
5.41233
5.35469
5.35479
5.30533
5.30538
5.26492
5.26494
5.23367
5.23367
5.21187
5.21186
5.20042
5.20039
5.20035
5.20038
5.21176
5.21178
5.23353
5.23352
5.26467
5.26464
5.30498
5.30492
5.35425
5.35415
5.41158
5.41147
5.47576
5.47568
5.54528
5.5453
5.61844
5.61856
5.69286
5.69303
5.76552
5.7657
5.8338
5.83397
5.89691
5.89706
5.95641
5.95652
6.01523
6.01531
6.0765
6.07654
6.14255
6.14256
6.2149
6.21489
6.29483
6.29481
6.38345
6.38342
6.48137
6.48133
6.58868
6.58862
6.70528
6.70522
6.83112
6.83105
6.96621
6.96613
7.1105
7.11041
7.26393
7.26383
7.42656
7.42645
7.59809
7.59795
7.77635
7.77619
7.95749
7.95729
8.13708
8.13686
8.31168
8.31142
8.47895
8.47867
8.63744
8.63716
8.78721
8.78701
8.93084
8.93078
9.07145
9.07153
9.2113
9.21144
9.35147
9.35162
9.49334
9.49347
9.63896
9.63905
9.79067
9.79073
9.95088
9.95092
10.1216
10.1217
10.3046
10.3046
10.501
10.5009
10.7116
10.7115
10.9369
10.9368
11.177
11.177
11.4321
11.4321
11.7024
11.7023
11.9878
11.9877
12.2886
12.2885
12.6048
12.6047
12.9361
12.936
13.2819
13.2818
13.6409
13.6408
14.0121
14.012
14.3941
14.394
14.7864
14.7863
15.1889
15.1888
15.6022
15.6021
16.0262
16.0261
16.4602
16.4602
16.9028
16.9028
17.3516
17.3515
17.804
17.8039
18.2579
18.2579
18.7125
18.7124
19.168
19.168
19.6259
19.6259
20.0883
20.0882
20.5576
20.5575
21.0359
21.0359
21.5249
21.5248
22.0255
22.0255
22.5385
22.5384
23.0638
23.0638
23.6014
23.6014
24.1508
24.1507
24.7113
24.7112
25.2824
25.2824
25.864
25.864
26.4561
26.4561
27.0592
27.0592
27.6739
27.6739
28.3009
28.3009
28.9414
28.9413
29.5966
29.5965
30.268
30.268
30.957
30.957
31.6648
31.6647
32.3921
32.392
33.1395
33.1394
33.9078
33.9077
34.6981
34.698
35.5117
35.5117
36.3506
36.3505
37.2168
37.2168
38.1127
38.1127
39.0406
39.0406
40.0028
40.0028
41.0014
41.0013
42.0384
42.0383
43.1158
43.1158
44.2356
44.2356
45.3994
45.3993
46.6088
46.6087
47.8655
47.8655
49.1711
49.171
50.5271
50.527
51.9351
51.9351
53.3969
53.3968
54.9139
54.9139
56.488
56.4879
58.1204
58.1204
59.8126
59.8125
61.5657
61.5656
63.3808
63.3808
65.2592
65.2591
67.2017
67.2017
69.2095
69.2095
71.2837
71.2836
73.4251
73.4251
75.635
75.635
77.9145
77.9145
80.2649
80.2649
82.6876
82.6875
85.1839
85.1838
87.7552
87.7552
90.4032
90.4032
93.1296
93.1296
95.9362
95.9362
98.8247
98.8247
101.797
101.797
104.855
104.855
107.999
107.999
111.233
111.233
114.558
114.558
117.974
117.974
121.485
121.485
125.091
125.091
128.794
128.794
132.597
132.597
136.501
136.501
140.508
140.508
144.62
144.62
148.84
148.84
153.17
153.17
157.613
157.613
162.171
162.171
166.846
166.846
171.64
171.64
176.557
176.557
181.598
181.598
186.765
186.765
192.06
192.06
197.485
197.485
203.041
203.041
208.729
208.729
214.552
214.552
220.509
220.509
226.603
226.603
232.834
232.834
239.203
239.203
245.712
245.712
252.362
252.362
259.153
259.153
266.087
266.087
273.164
273.164
280.387
280.387
287.755
287.755
295.27
295.27
302.934
302.933
310.745
310.745
318.707
318.707
326.819
326.819
335.082
335.082
343.497
343.497
352.064
352.064
360.784
360.784
369.657
369.657
378.682
378.682
387.86
387.86
397.191
397.191
406.673
406.673
416.307
416.306
426.09
426.09
436.023
436.023
446.104
446.104
456.33
456.33
466.699
466.699
477.209
477.209
487.856
487.856
498.638
498.638
509.55
509.55
520.588
520.588
531.747
531.747
543.022
543.022
554.407
554.407
565.894
565.894
577.477
577.477
589.147
589.147
600.898
600.898
612.72
612.72
624.604
624.604
636.541
636.541
648.518
648.518
660.526
660.526
672.553
672.553
684.587
684.587
696.617
696.617
708.632
708.632
720.619
720.619
732.567
732.567
744.468
744.468
756.312
756.312
768.091
768.091
779.799
779.799
791.433
791.433
802.993
802.993
814.477
814.477
825.893
825.893
837.25
837.25
848.562
848.562
859.85
859.85
871.139
871.139
882.464
882.464
893.869
893.869
905.408
905.408
917.138
917.138
929.123
929.123
941.437
941.437
954.163
954.162
967.39
967.39
981.218
981.218
995.752
995.752
1011.1
1011.1
1027.38
1027.38
1044.69
1044.69
1063.16
1063.16
1082.88
1082.88
1103.96
1103.96
1126.48
1126.48
1150.51
1150.51
1176.11
1176.11
1203.33
1203.33
1232.18
1232.18
1262.67
1262.67
1294.78
1294.78
1328.47
1328.47
1363.68
1363.68
1400.34
1400.34
1438.36
1438.36
1477.65
1477.65
1518.08
1518.08
1559.54
1559.54
1601.91
1601.91
1645.06
1645.06
1688.88
1688.88
1733.24
1733.24
1778.03
1778.03
1823.13
1823.13
1868.45
1868.45
1913.89
1913.89
1959.37
1959.37
2004.83
2004.83
2050.19
2050.19
2095.41
2095.41
2140.46
2140.46
2185.34
2185.34
2230.04
2230.04
2274.55
2274.55
2318.9
2318.9
2363.15
2363.15
2407.33
2407.33
2451.53
2451.53
2495.83
2495.83
2540.34
2540.34
2585.17
2585.17
2630.47
2630.47
2676.4
2676.39
2723.14
2723.14
2770.9
2770.9
2819.92
2819.92
2870.45
2870.45
2922.79
2922.79
2977.29
2977.29
3034.32
3034.32
3094.32
3094.32
3157.79
3157.79
3225.31
3225.31
3297.54
3297.54
3375.27
3375.27
3459.42
3459.42
3551.11
3551.11
3651.68
3651.68
3762.75
3762.75
3886.36
3886.36
4025.02
4025.02
4181.97
4181.97
4361.37
4361.36
4568.72
4568.72
4811.46
4811.46
5099.88
5099.88
5448.66
5448.66
5879.5
5879.5
6425.86
6425.86
7142.05
7142.05
8122.09
8122.09
9542.26
9542.26
11767.6
11767.6
15647.9
15647.9
23402.1
23402.1
41256.2
41256.2
89143.1
89143.1
264976
264976
1.52417e+06
1.52417e+06
5.20039
5.20037
5.2118
5.21178
5.23355
5.23355
5.26467
5.2647
5.30495
5.30501
5.35418
5.35428
5.4115
5.41162
5.47571
5.47579
5.54533
5.54531
5.61857
5.61846
5.69302
5.69285
5.76567
5.76549
5.83392
5.83375
5.89699
5.89684
5.95643
5.95632
6.01521
6.01514
6.07645
6.07641
6.14248
6.14246
6.21482
6.21483
6.29475
6.29478
6.38337
6.38341
6.4813
6.48135
6.58861
6.58867
6.70521
6.70528
6.83106
6.83112
6.96615
6.96622
7.11044
7.11052
7.26387
7.26397
7.4265
7.42662
7.59801
7.59815
7.77626
7.77643
7.95737
7.95756
8.13691
8.13714
8.31146
8.31172
8.47867
8.47896
8.63714
8.63741
8.78695
8.78715
8.93069
8.93075
9.07141
9.07134
9.21131
9.21116
9.35148
9.35133
9.49332
9.49319
9.63891
9.63881
9.7906
9.79053
9.95079
9.95076
10.1216
10.1215
10.3045
10.3045
10.5009
10.5009
10.7115
10.7115
10.9368
10.9369
11.177
11.177
11.4321
11.4321
11.7023
11.7024
11.9877
11.9878
12.2885
12.2886
12.6048
12.6048
12.9361
12.9362
13.2818
13.2819
13.6409
13.641
14.012
14.0121
14.3941
14.3942
14.7864
14.7865
15.1889
15.189
15.6021
15.6022
16.0262
16.0262
16.4602
16.4603
16.9028
16.9029
17.3516
17.3516
17.8039
17.804
18.2579
18.2579
18.7124
18.7125
19.1679
19.168
19.6258
19.6259
20.0882
20.0882
20.5575
20.5575
21.0358
21.0358
21.5247
21.5248
22.0254
22.0254
22.5383
22.5384
23.0637
23.0637
23.6013
23.6013
24.1506
24.1507
24.7111
24.7111
25.2822
25.2823
25.8638
25.8639
26.4559
26.456
27.059
27.0591
27.6737
27.6738
28.3007
28.3008
28.9411
28.9412
29.5963
29.5964
30.2678
30.2678
30.9568
30.9568
31.6645
31.6645
32.3918
32.3918
33.1392
33.1392
33.9075
33.9075
34.6978
34.6978
35.5115
35.5115
36.3503
36.3504
37.2165
37.2166
38.1125
38.1125
39.0404
39.0404
40.0026
40.0026
41.0011
41.0012
42.0381
42.0382
43.1156
43.1156
44.2354
44.2354
45.3992
45.3992
46.6086
46.6086
47.8653
47.8653
49.1709
49.1709
50.5269
50.5269
51.9349
51.935
53.3967
53.3967
54.9138
54.9138
56.4878
56.4879
58.1203
58.1203
59.8124
59.8125
61.5655
61.5656
63.3807
63.3808
65.259
65.2591
67.2016
67.2016
69.2094
69.2094
71.2835
71.2836
73.425
73.4251
75.6349
75.6349
77.9144
77.9144
80.2648
80.2649
82.6875
82.6875
85.1838
85.1838
87.7551
87.7552
90.4031
90.4032
93.1295
93.1296
95.9361
95.9361
98.8246
98.8247
101.797
101.797
104.854
104.855
107.999
107.999
111.233
111.233
114.558
114.558
117.974
117.974
121.485
121.485
125.091
125.091
128.794
128.794
132.597
132.597
136.501
136.501
140.508
140.508
144.62
144.62
148.84
148.84
153.17
153.17
157.613
157.613
162.17
162.171
166.845
166.845
171.64
171.64
176.557
176.557
181.598
181.598
186.765
186.765
192.06
192.06
197.485
197.485
203.041
203.041
208.729
208.729
214.552
214.552
220.509
220.509
226.603
226.603
232.834
232.834
239.203
239.203
245.712
245.712
252.362
252.362
259.153
259.153
266.087
266.087
273.164
273.164
280.387
280.387
287.755
287.755
295.27
295.27
302.933
302.933
310.745
310.745
318.707
318.707
326.819
326.819
335.082
335.082
343.497
343.497
352.064
352.064
360.784
360.784
369.657
369.657
378.682
378.682
387.86
387.86
397.191
397.191
406.673
406.673
416.306
416.306
426.09
426.09
436.023
436.023
446.104
446.104
456.33
456.33
466.699
466.699
477.209
477.209
487.856
487.856
498.638
498.638
509.55
509.55
520.588
520.588
531.747
531.747
543.022
543.022
554.406
554.406
565.894
565.894
577.477
577.477
589.147
589.147
600.898
600.898
612.72
612.72
624.604
624.604
636.54
636.54
648.518
648.518
660.526
660.526
672.553
672.553
684.587
684.587
696.617
696.617
708.632
708.632
720.619
720.619
732.567
732.567
744.467
744.467
756.312
756.312
768.091
768.091
779.799
779.799
791.433
791.433
802.992
802.993
814.477
814.477
825.893
825.893
837.25
837.25
848.562
848.562
859.849
859.849
871.139
871.139
882.463
882.463
893.869
893.869
905.408
905.408
917.138
917.138
929.123
929.123
941.437
941.437
954.162
954.162
967.39
967.39
981.218
981.218
995.752
995.752
1011.1
1011.1
1027.38
1027.38
1044.69
1044.69
1063.16
1063.16
1082.88
1082.88
1103.96
1103.96
1126.48
1126.48
1150.51
1150.51
1176.11
1176.11
1203.33
1203.33
1232.18
1232.18
1262.67
1262.67
1294.78
1294.78
1328.47
1328.47
1363.68
1363.68
1400.34
1400.34
1438.36
1438.36
1477.65
1477.65
1518.08
1518.08
1559.54
1559.54
1601.91
1601.91
1645.06
1645.06
1688.88
1688.88
1733.24
1733.24
1778.03
1778.03
1823.13
1823.13
1868.45
1868.45
1913.89
1913.89
1959.37
1959.37
2004.83
2004.83
2050.19
2050.19
2095.41
2095.41
2140.46
2140.46
2185.34
2185.34
2230.04
2230.04
2274.54
2274.54
2318.9
2318.9
2363.15
2363.15
2407.33
2407.33
2451.53
2451.53
2495.83
2495.83
2540.34
2540.34
2585.17
2585.17
2630.47
2630.47
2676.39
2676.39
2723.14
2723.14
2770.9
2770.9
2819.92
2819.92
2870.45
2870.45
2922.79
2922.79
2977.29
2977.29
3034.32
3034.32
3094.32
3094.32
3157.79
3157.79
3225.31
3225.31
3297.54
3297.54
3375.26
3375.26
3459.42
3459.42
3551.11
3551.11
3651.68
3651.68
3762.75
3762.75
3886.36
3886.36
4025.02
4025.02
4181.97
4181.97
4361.36
4361.36
4568.72
4568.72
4811.46
4811.46
5099.88
5099.88
5448.66
5448.66
5879.5
5879.5
6425.86
6425.86
7142.05
7142.05
8122.09
8122.09
9542.26
9542.26
11767.6
11767.6
15647.9
15647.9
23402.1
23402.1
41256.2
41256.2
89143.1
89143.1
264976
264976
1.52417e+06
1.52417e+06
)
;

boundaryField
{
    walls
    {
        blending        binomial2;
        n               2;
        beta1           0.075;
        type            omegaWallFunction;
        value           nonuniform List<scalar> 8(1.52416e+06 1.52416e+06 1.52416e+06 1.52416e+06 1.52417e+06 1.52417e+06 1.52417e+06 1.52417e+06);
    }
    inlet
    {
        type            cyclic;
    }
    outlet
    {
        type            cyclic;
    }
    sides
    {
        type            empty;
    }
}


// ************************************************************************* //
