/*--------------------------------*- C++ -*----------------------------------*\
| =========                 |                                                 |
| \\      /  F ield         | OpenFOAM: The Open Source CFD Toolbox           |
|  \\    /   O peration     | Version:  2012                                  |
|   \\  /    A nd           | Website:  www.openfoam.com                      |
|    \\/     M anipulation  |                                                 |
\*---------------------------------------------------------------------------*/
FoamFile
{
    version     2.0;
    format      ascii;
    class       surfaceScalarField;
    location    "12400";
    object      phi;
}
// * * * * * * * * * * * * * * * * * * * * * * * * * * * * * * * * * * * * * //

dimensions      [0 3 -1 0 0 0 0];
oriented        oriented;


internalField   nonuniform List<scalar> 
5116
(
5.27382e-07
4.10303e-11
-6.15134e-12
-1.82996e-11
6.20589e-12
1.61145e-06
7.13142e-11
-9.61342e-12
-4.68365e-11
9.59342e-12
2.74124e-06
9.79558e-11
-9.18971e-12
-7.41832e-11
9.17061e-12
3.91817e-06
1.20505e-10
-7.10205e-12
-9.5285e-11
7.08733e-12
5.14366e-06
1.32957e-10
-4.46851e-12
-1.08621e-10
4.45926e-12
6.41916e-06
1.42142e-10
-2.7419e-12
-1.16743e-10
2.73626e-12
7.74622e-06
1.46719e-10
-1.82252e-12
-1.22203e-10
1.81879e-12
9.12647e-06
1.51468e-10
-1.32437e-12
-1.26107e-10
1.32168e-12
1.05617e-05
1.53801e-10
-1.03223e-12
-1.29211e-10
1.03015e-12
1.20538e-05
1.57046e-10
-8.46972e-13
-1.31695e-10
8.45295e-13
1.36047e-05
1.58482e-10
-7.21824e-13
-1.33877e-10
7.20416e-13
1.52167e-05
1.61038e-10
-6.33018e-13
-1.35726e-10
6.31813e-13
1.68919e-05
1.62062e-10
-5.67587e-13
-1.37447e-10
5.66529e-13
1.86329e-05
1.64249e-10
-5.1794e-13
-1.38955e-10
5.17005e-13
2.04421e-05
1.65022e-10
-4.79422e-13
-1.40416e-10
4.78582e-13
2.23221e-05
1.66981e-10
-4.49007e-13
-1.4172e-10
4.48253e-13
2.42758e-05
1.67616e-10
-4.24689e-13
-1.43018e-10
4.24002e-13
2.6306e-05
1.69432e-10
-4.05055e-13
-1.44191e-10
4.04434e-13
2.84156e-05
1.69967e-10
-3.89123e-13
-1.45385e-10
3.88555e-13
3.06078e-05
1.71685e-10
-3.76153e-13
-1.46474e-10
3.7564e-13
3.28855e-05
1.72167e-10
-3.6562e-13
-1.47598e-10
3.65151e-13
3.52521e-05
1.73821e-10
-3.57099e-13
-1.48631e-10
3.5668e-13
3.77108e-05
1.74261e-10
-3.50294e-13
-1.4971e-10
3.49914e-13
4.02646e-05
1.75871e-10
-3.44943e-13
-1.50709e-10
3.4461e-13
4.2917e-05
1.76294e-10
-3.40872e-13
-1.51761e-10
3.40576e-13
4.56712e-05
1.77879e-10
-3.37911e-13
-1.52739e-10
3.37662e-13
4.85302e-05
1.7829e-10
-3.35957e-13
-1.53778e-10
3.35744e-13
5.14973e-05
1.79861e-10
-3.34894e-13
-1.54748e-10
3.34728e-13
5.45753e-05
1.80276e-10
-3.34664e-13
-1.55784e-10
3.34536e-13
5.77672e-05
1.81844e-10
-3.35183e-13
-1.56757e-10
3.35104e-13
6.10757e-05
1.82268e-10
-3.36423e-13
-1.57799e-10
3.36383e-13
6.45033e-05
1.83841e-10
-3.38322e-13
-1.58782e-10
3.38333e-13
6.80522e-05
1.84284e-10
-3.4087e-13
-1.59839e-10
3.40924e-13
7.17244e-05
1.85871e-10
-3.44022e-13
-1.6084e-10
3.44131e-13
7.55217e-05
1.86338e-10
-3.47782e-13
-1.61919e-10
3.47936e-13
7.94454e-05
1.87946e-10
-3.52113e-13
-1.62946e-10
3.52328e-13
8.34965e-05
1.88445e-10
-3.57033e-13
-1.64054e-10
3.57298e-13
8.76755e-05
1.90082e-10
-3.62512e-13
-1.65114e-10
3.62842e-13
9.19826e-05
1.90618e-10
-3.68575e-13
-1.66257e-10
3.6896e-13
9.64173e-05
1.92291e-10
-3.75198e-13
-1.67357e-10
3.75655e-13
0.000100979
1.92872e-10
-3.82414e-13
-1.68543e-10
3.82933e-13
0.000105665
1.94587e-10
-3.90203e-13
-1.69689e-10
3.90801e-13
0.000110475
1.95221e-10
-3.98603e-13
-1.70925e-10
3.9927e-13
0.000115405
1.96985e-10
-4.07598e-13
-1.72126e-10
4.08353e-13
0.000120453
1.97678e-10
-4.17231e-13
-1.73419e-10
4.18062e-13
0.000125613
1.995e-10
-4.27485e-13
-1.74681e-10
4.28414e-13
0.000130881
2.0026e-10
-4.3841e-13
-1.7604e-10
4.39425e-13
0.000136251
2.02148e-10
-4.49989e-13
-1.77372e-10
4.51112e-13
0.000141718
2.02982e-10
-4.62273e-13
-1.78804e-10
4.63492e-13
0.000147273
2.04944e-10
-4.75244e-13
-1.80214e-10
4.76584e-13
0.00015291
2.05863e-10
-4.88954e-13
-1.81728e-10
4.90403e-13
0.000158618
2.07908e-10
-5.03383e-13
-1.83225e-10
5.04966e-13
0.000164389
2.08918e-10
-5.18582e-13
-1.8483e-10
5.20286e-13
0.000170212
2.11056e-10
-5.34523e-13
-1.86423e-10
5.36376e-13
0.000176075
2.12169e-10
-5.51254e-13
-1.88129e-10
5.53242e-13
0.000181968
2.14408e-10
-5.68735e-13
-1.89827e-10
5.70889e-13
0.000187876
2.15632e-10
-5.8701e-13
-1.91643e-10
5.89315e-13
0.000193788
2.17984e-10
-6.06025e-13
-1.93456e-10
6.08513e-13
0.000199687
2.19328e-10
-6.25811e-13
-1.95391e-10
6.28467e-13
0.000205561
2.21802e-10
-6.46298e-13
-1.97329e-10
6.49156e-13
0.000211393
2.23276e-10
-6.67502e-13
-1.99392e-10
6.70544e-13
0.000217168
2.2588e-10
-6.89331e-13
-2.01462e-10
6.92594e-13
0.00022287
2.2749e-10
-7.11785e-13
-2.03662e-10
7.15251e-13
0.000228483
2.30233e-10
-7.34752e-13
-2.05872e-10
7.38458e-13
0.00023399
2.31986e-10
-7.58216e-13
-2.08215e-10
7.62143e-13
0.000239375
2.34874e-10
-7.82045e-13
-2.10571e-10
7.8623e-13
0.000244623
2.36775e-10
-8.06216e-13
-2.13062e-10
8.10638e-13
0.000249718
2.39813e-10
-8.30587e-13
-2.15567e-10
8.35286e-13
0.000254643
2.41865e-10
-8.55138e-13
-2.1821e-10
8.6009e-13
0.000259386
2.45057e-10
-8.7973e-13
-2.20868e-10
8.84977e-13
0.000263933
2.47259e-10
-9.04364e-13
-2.23664e-10
9.09877e-13
0.000268271
2.50606e-10
-9.28919e-13
-2.26474e-10
9.34742e-13
0.000272388
2.5296e-10
-9.5343e-13
-2.29424e-10
9.59535e-13
0.000276275
2.56462e-10
-9.77813e-13
-2.32386e-10
9.84243e-13
0.000279923
2.58965e-10
-1.00215e-12
-2.35489e-10
1.00887e-12
0.000283326
2.62622e-10
-1.02639e-12
-2.38603e-10
1.03346e-12
0.000286478
2.65277e-10
-1.05068e-12
-2.41859e-10
1.05805e-12
0.000289375
2.69089e-10
-1.075e-12
-2.45125e-10
1.08273e-12
0.000292015
2.71896e-10
-1.09953e-12
-2.48536e-10
1.10759e-12
0.000294398
2.75866e-10
-1.12431e-12
-2.51957e-10
1.13275e-12
0.000296527
2.7883e-10
-1.14953e-12
-2.55527e-10
1.15831e-12
0.000298402
2.82964e-10
-1.17523e-12
-2.59107e-10
1.18443e-12
0.00030003
2.86091e-10
-1.20166e-12
-2.62844e-10
1.21122e-12
0.000301416
2.90396e-10
-1.22885e-12
-2.66593e-10
1.23884e-12
0.000302567
2.93698e-10
-1.25703e-12
-2.70505e-10
1.26743e-12
0.000303491
2.98187e-10
-1.28626e-12
-2.74435e-10
1.29713e-12
0.000304198
3.01677e-10
-1.31676e-12
-2.78538e-10
1.32807e-12
0.000304698
3.06364e-10
-1.34858e-12
-2.82663e-10
1.3604e-12
0.000305002
3.10059e-10
-1.38194e-12
-2.86973e-10
1.39425e-12
0.00030512
3.14963e-10
-1.41688e-12
-2.91311e-10
1.42974e-12
0.000305064
3.18882e-10
-1.45361e-12
-2.95849e-10
1.467e-12
0.000304846
3.24023e-10
-1.49216e-12
-3.00422e-10
1.50616e-12
0.000304478
3.2819e-10
-1.53275e-12
-3.0521e-10
1.54734e-12
0.00030397
3.33593e-10
-1.5754e-12
-3.10042e-10
1.59065e-12
0.000303336
3.38034e-10
-1.62032e-12
-3.15107e-10
1.63622e-12
0.000302585
3.43724e-10
-1.66753e-12
-3.20225e-10
1.68417e-12
0.000301729
3.48467e-10
-1.71726e-12
-3.25594e-10
1.73461e-12
0.000300779
3.54474e-10
-1.76951e-12
-3.31028e-10
1.78767e-12
0.000299743
3.59552e-10
-1.82452e-12
-3.36734e-10
1.84346e-12
0.000298631
3.65908e-10
-1.88229e-12
-3.42516e-10
1.90212e-12
0.000297453
3.71352e-10
-1.94307e-12
-3.48591e-10
1.96376e-12
0.000296217
3.78093e-10
-2.00686e-12
-3.54758e-10
2.02853e-12
0.000294929
3.83944e-10
-2.07393e-12
-3.61242e-10
2.09655e-12
0.000293597
3.91108e-10
-2.14428e-12
-3.67831e-10
2.16797e-12
0.000292228
3.97402e-10
-2.2182e-12
-3.74763e-10
2.24294e-12
0.000290828
4.0503e-10
-2.2957e-12
-3.81817e-10
2.32159e-12
0.000289401
4.11816e-10
-2.37707e-12
-3.89242e-10
2.40412e-12
0.000287953
4.19954e-10
-2.46233e-12
-3.96807e-10
2.49065e-12
0.000286488
4.27275e-10
-2.5518e-12
-4.04772e-10
2.58139e-12
0.000285009
4.35972e-10
-2.6455e-12
-4.12897e-10
2.67648e-12
0.000283521
4.43885e-10
-2.7438e-12
-4.21455e-10
2.77616e-12
0.000282026
4.53196e-10
-2.84669e-12
-4.30196e-10
2.88058e-12
0.000280526
4.61753e-10
-2.95459e-12
-4.39403e-10
2.99e-12
0.000279024
4.71734e-10
-3.0675e-12
-4.48818e-10
3.10456e-12
0.000277522
4.81001e-10
-3.18587e-12
-4.58736e-10
3.2246e-12
0.000276022
4.91719e-10
-3.30969e-12
-4.6889e-10
3.35022e-12
0.000274524
5.01757e-10
-3.43949e-12
-4.79587e-10
3.48185e-12
0.000273031
5.1328e-10
-3.5752e-12
-4.90549e-10
3.61953e-12
0.000271542
5.2417e-10
-3.71748e-12
-5.02098e-10
3.7638e-12
0.000270059
5.36574e-10
-3.86618e-12
-5.13947e-10
3.91465e-12
0.000268582
5.4839e-10
-4.0221e-12
-5.26428e-10
4.07276e-12
0.000267111
5.61759e-10
-4.18498e-12
-5.39246e-10
4.23798e-12
0.000265648
5.74593e-10
-4.35583e-12
-5.52748e-10
4.41122e-12
0.000264192
5.89019e-10
-4.53422e-12
-5.66628e-10
4.59216e-12
0.000262742
6.02962e-10
-4.72142e-12
-5.81246e-10
4.78198e-12
0.000261301
6.18543e-10
-4.91676e-12
-5.96287e-10
4.9801e-12
0.000259866
6.33705e-10
-5.12191e-12
-6.12128e-10
5.18811e-12
0.000258439
6.50553e-10
-5.33579e-12
-6.28442e-10
5.40502e-12
0.00025702
6.67045e-10
-5.56067e-12
-6.4562e-10
5.63302e-12
0.000255608
6.85277e-10
-5.79483e-12
-6.63326e-10
5.8705e-12
0.000254205
7.0323e-10
-6.0414e-12
-6.81969e-10
6.12049e-12
0.00025281
7.2298e-10
-6.29775e-12
-7.012e-10
6.38046e-12
0.000251425
7.42526e-10
-6.56824e-12
-7.21446e-10
6.65468e-12
0.000250049
7.63937e-10
-6.84885e-12
-7.42347e-10
6.93924e-12
0.000248683
7.85236e-10
-7.14575e-12
-7.64351e-10
7.24022e-12
0.000247328
8.08469e-10
-7.45285e-12
-7.87083e-10
7.55164e-12
0.000245984
8.31681e-10
-7.77897e-12
-8.11011e-10
7.88223e-12
0.000244653
8.5691e-10
-8.11497e-12
-8.35748e-10
8.22295e-12
0.000243335
8.82226e-10
-8.47351e-12
-8.61787e-10
8.58638e-12
0.000242032
9.09643e-10
-8.84095e-12
-8.88722e-10
8.95898e-12
0.000240743
9.37259e-10
-9.2356e-12
-9.17076e-10
9.35898e-12
0.00023947
9.67074e-10
-9.63712e-12
-9.4642e-10
9.76614e-12
0.000238215
9.97222e-10
-1.00721e-11
-9.77313e-10
1.0207e-11
0.000236979
1.02967e-09
-1.05104e-11
-1.0093e-09
1.06515e-11
0.000235763
1.06259e-09
-1.09908e-11
-1.04298e-09
1.11383e-11
0.00023457
1.09792e-09
-1.14684e-11
-1.07787e-09
1.16227e-11
0.000233401
1.13389e-09
-1.20003e-11
-1.11461e-09
1.21615e-11
0.000232258
1.17238e-09
-1.25195e-11
-1.15267e-09
1.26881e-11
0.000231144
1.2117e-09
-1.311e-11
-1.19278e-09
1.32864e-11
0.000230061
1.25367e-09
-1.36724e-11
-1.23433e-09
1.38569e-11
0.000229012
1.29667e-09
-1.43307e-11
-1.27814e-09
1.45237e-11
0.000227998
1.34245e-09
-1.4937e-11
-1.32351e-09
1.51389e-11
0.000227024
1.3895e-09
-1.56746e-11
-1.37139e-09
1.58857e-11
0.000226091
1.43945e-09
-1.63234e-11
-1.42096e-09
1.65442e-11
0.000225203
1.49097e-09
-1.71551e-11
-1.47332e-09
1.73861e-11
0.000224362
1.5455e-09
-1.78421e-11
-1.52747e-09
1.80838e-11
0.00022357
1.60194e-09
-1.87879e-11
-1.58478e-09
1.90407e-11
0.000222831
1.66147e-09
-1.95039e-11
-1.64396e-09
1.97685e-11
0.000222145
1.72335e-09
-2.0591e-11
-1.70672e-09
2.08678e-11
0.000221514
1.78835e-09
-2.13192e-11
-1.77139e-09
2.16088e-11
0.000220937
1.85623e-09
-2.25856e-11
-1.84019e-09
2.28886e-11
0.000220413
1.92719e-09
-2.32973e-11
-1.91083e-09
2.36144e-11
0.00021994
2.00174e-09
-2.47969e-11
-1.98632e-09
2.51286e-11
0.000219516
2.07918e-09
-2.54457e-11
-2.06345e-09
2.57929e-11
0.000219135
2.16113e-09
-2.72563e-11
-2.14639e-09
2.76196e-11
0.000218793
2.24557e-09
-2.7768e-11
-2.23053e-09
2.81482e-11
0.000218485
2.33579e-09
-3.00043e-11
-2.32177e-09
3.04021e-11
0.000218208
2.42775e-09
-3.02615e-11
-2.41345e-09
3.06779e-11
0.000217957
2.52725e-09
-3.30935e-11
-2.51403e-09
3.35292e-11
0.000217729
2.62721e-09
-3.2913e-11
-2.61372e-09
3.33691e-11
0.000217525
2.73724e-09
-3.65955e-11
-2.72488e-09
3.70727e-11
0.000217345
2.84557e-09
-3.5692e-11
-2.83297e-09
3.61917e-11
0.000217193
2.96766e-09
-4.06093e-11
-2.95624e-09
4.11319e-11
0.000217073
3.08457e-09
-3.85397e-11
-3.07294e-09
3.9087e-11
0.00021699
3.22067e-09
-4.52752e-11
-3.21029e-09
4.58477e-11
0.000216949
3.34604e-09
-4.13514e-11
-3.3355e-09
4.19511e-11
0.000216955
3.49871e-09
-5.07966e-11
-3.48949e-09
5.14238e-11
0.000217012
3.63188e-09
-4.39501e-11
-3.62258e-09
4.46072e-11
0.000217123
3.80459e-09
-5.74737e-11
-3.79669e-09
5.81608e-11
0.000217291
3.94393e-09
-4.60428e-11
-3.93613e-09
4.67628e-11
0.000217515
4.1415e-09
-6.57575e-11
-4.13518e-09
6.65102e-11
0.000217796
4.2841e-09
-4.7154e-11
-4.27805e-09
4.79429e-11
0.000218131
4.51343e-09
-7.63347e-11
-4.50892e-09
7.71593e-11
0.000218516
4.66767e-09
-5.10278e-11
-4.6635e-09
5.1891e-11
0.000218947
4.93825e-09
-9.00662e-11
-4.93566e-09
9.09695e-11
0.000219419
5.16321e-09
-7.45892e-11
-5.16101e-09
7.55348e-11
0.00021993
5.4855e-09
-1.07284e-10
-5.48493e-09
1.08274e-10
0.000220477
5.79485e-09
-1.02697e-10
-5.79472e-09
1.03733e-10
0.000221059
6.1796e-09
-1.2808e-10
-6.18115e-09
1.29163e-10
0.000221676
6.58789e-09
-1.35662e-10
-6.58994e-09
1.36795e-10
0.000222334
6.94585e-09
-1.19143e-10
-6.94967e-09
1.20329e-10
0.000223038
7.35814e-09
-1.36999e-10
-7.36261e-09
1.38239e-10
0.000223794
7.67894e-09
-1.0674e-10
-7.68529e-09
1.08038e-10
0.000224605
8.09649e-09
-1.38794e-10
-8.10378e-09
1.40151e-10
0.000225475
8.37769e-09
-9.3525e-11
-8.38699e-09
9.49449e-11
0.000226405
8.80513e-09
-1.42099e-10
-8.81561e-09
1.43583e-10
0.000227399
9.09913e-09
-9.77454e-11
-9.11171e-09
9.92994e-11
0.000228454
9.54306e-09
-1.47532e-10
-9.55688e-09
1.49154e-10
0.000229569
9.88709e-09
-1.14364e-10
-9.90312e-09
1.1606e-10
0.000230737
1.03539e-08
-1.55079e-10
-1.03712e-08
1.56848e-10
0.000231945
1.07479e-08
-1.30962e-10
-1.07676e-08
1.32812e-10
0.000233174
1.12434e-08
-1.64579e-10
-1.12645e-08
1.66509e-10
0.000234404
1.16881e-08
-1.47788e-10
-1.17118e-08
1.49804e-10
0.000235608
1.22179e-08
-1.75913e-10
-1.22431e-08
1.78014e-10
0.000236761
1.27146e-08
-1.65056e-10
-1.27426e-08
1.67249e-10
0.000237835
1.32839e-08
-1.88992e-10
-1.33135e-08
1.91276e-10
0.000238807
1.38345e-08
-1.82952e-10
-1.38672e-08
1.85336e-10
0.000239663
1.44484e-08
-2.03757e-10
-1.4483e-08
2.06238e-10
0.000240397
1.50554e-08
-2.01646e-10
-1.50933e-08
2.04232e-10
0.000241009
1.57189e-08
-2.20177e-10
-1.57587e-08
2.22867e-10
0.0002415
1.63852e-08
-2.21308e-10
-1.64286e-08
2.24109e-10
0.000241869
1.71032e-08
-2.38245e-10
-1.71487e-08
2.41156e-10
0.000242104
1.7832e-08
-2.42056e-10
-1.78814e-08
2.45086e-10
0.000242192
1.86095e-08
-2.57973e-10
-1.86612e-08
2.6112e-10
0.000242113
1.94045e-08
-2.64053e-10
-1.94604e-08
2.67325e-10
0.000241847
2.02466e-08
-2.79407e-10
-2.03049e-08
2.82803e-10
0.000241373
2.1112e-08
-2.87456e-10
-2.11749e-08
2.90984e-10
0.000240673
2.2024e-08
-3.02632e-10
-2.20896e-08
3.06292e-10
0.000239725
2.29646e-08
-3.1245e-10
-2.3035e-08
3.16251e-10
0.000238513
2.39523e-08
-3.27786e-10
-2.40256e-08
3.31725e-10
0.000237031
2.49735e-08
-3.39262e-10
-2.5052e-08
3.43351e-10
0.000235291
2.60432e-08
-3.55064e-10
-2.61249e-08
3.59301e-10
0.000233322
2.71513e-08
-3.68161e-10
-2.72385e-08
3.72559e-10
0.000231162
2.83101e-08
-3.84711e-10
-2.84007e-08
3.89266e-10
0.000228853
2.95121e-08
-3.99443e-10
-2.96087e-08
4.0417e-10
0.000226426
3.07679e-08
-4.16988e-10
-3.08682e-08
4.21882e-10
0.000223892
3.2072e-08
-4.33396e-10
-3.21786e-08
4.38476e-10
0.000221242
3.34334e-08
-4.5216e-10
-3.3544e-08
4.57417e-10
0.000218436
3.48483e-08
-4.70321e-10
-3.49657e-08
4.7578e-10
0.000215435
3.63249e-08
-4.9053e-10
-3.64467e-08
4.96177e-10
0.000212211
3.78608e-08
-5.1058e-10
-3.79897e-08
5.16445e-10
0.000208763
3.94634e-08
-5.32491e-10
-3.95972e-08
5.38557e-10
0.000205117
4.11314e-08
-5.54619e-10
-4.12728e-08
5.60923e-10
0.000201299
4.28722e-08
-5.7851e-10
-4.30188e-08
5.85029e-10
0.000197338
4.46853e-08
-6.02939e-10
-4.484e-08
6.09717e-10
0.000193259
4.65778e-08
-6.29088e-10
-4.67384e-08
6.36097e-10
0.000189096
4.85504e-08
-6.56051e-10
-4.87195e-08
6.63343e-10
0.000184895
5.06099e-08
-6.84727e-10
-5.07854e-08
6.92266e-10
0.000180711
5.27578e-08
-7.14448e-10
-5.29424e-08
7.22297e-10
0.000176593
5.50008e-08
-7.45884e-10
-5.51924e-08
7.53996e-10
0.000172554
5.73411e-08
-7.78556e-10
-5.75424e-08
7.87009e-10
0.000168565
5.97854e-08
-8.12952e-10
-5.99943e-08
8.21682e-10
0.000164552
6.23365e-08
-8.48776e-10
-6.25557e-08
8.57879e-10
0.00016041
6.50011e-08
-8.86366e-10
-6.52286e-08
8.95762e-10
0.000156025
6.77827e-08
-9.25632e-10
-6.80214e-08
9.35437e-10
0.000151298
7.06887e-08
-9.66776e-10
-7.09362e-08
9.76888e-10
0.000146131
7.37234e-08
-1.00995e-09
-7.39828e-08
1.02051e-09
0.000140446
7.68946e-08
-1.0552e-09
-7.71638e-08
1.06609e-09
0.000134239
8.02084e-08
-1.10297e-09
-8.04904e-08
1.11436e-09
0.000127617
8.36733e-08
-1.15306e-09
-8.39658e-08
1.1648e-09
0.00012079
8.7297e-08
-1.20623e-09
-8.76032e-08
1.21853e-09
0.000114007
9.10882e-08
-1.26184e-09
-9.14059e-08
1.27452e-09
0.000107496
9.50564e-08
-1.32104e-09
-9.53889e-08
1.33435e-09
0.000101466
9.92097e-08
-1.3825e-09
-9.95547e-08
1.39621e-09
9.60711e-05
1.03559e-07
-1.44796e-09
-1.0392e-07
1.46239e-09
9.13111e-05
1.0811e-07
-1.51523e-09
-1.08485e-07
1.53006e-09
8.69764e-05
1.12877e-07
-1.58704e-09
-1.13268e-07
1.60268e-09
8.27482e-05
1.17863e-07
-1.66003e-09
-1.18269e-07
1.67609e-09
7.8385e-05
1.23083e-07
-1.73849e-09
-1.23508e-07
1.75543e-09
7.38973e-05
1.28541e-07
-1.81727e-09
-1.28982e-07
1.83462e-09
6.95302e-05
1.34255e-07
-1.90276e-09
-1.34716e-07
1.9211e-09
6.56198e-05
1.40222e-07
-1.98717e-09
-1.40701e-07
2.00591e-09
6.24415e-05
1.46467e-07
-2.07988e-09
-1.46967e-07
2.09973e-09
6.01643e-05
1.52981e-07
-2.16936e-09
-1.535e-07
2.18957e-09
5.88866e-05
1.59795e-07
-2.26942e-09
-1.60337e-07
2.29086e-09
5.85567e-05
1.66891e-07
-2.36332e-09
-1.67453e-07
2.38507e-09
5.89662e-05
1.74311e-07
-2.47141e-09
-1.74898e-07
2.4945e-09
5.98688e-05
1.82025e-07
-2.56935e-09
-1.82634e-07
2.59268e-09
6.10475e-05
1.90091e-07
-2.68681e-09
-1.90726e-07
2.71161e-09
6.22951e-05
1.98461e-07
-2.78823e-09
-1.9912e-07
2.81318e-09
6.33619e-05
2.07218e-07
-2.9168e-09
-2.07905e-07
2.94336e-09
6.39391e-05
2.16285e-07
-3.0205e-09
-2.16997e-07
3.04709e-09
6.37215e-05
2.25777e-07
-3.16213e-09
-2.26519e-07
3.1905e-09
6.24519e-05
2.3558e-07
-3.26576e-09
-2.36349e-07
3.29402e-09
5.99448e-05
2.45853e-07
-3.42259e-09
-2.46654e-07
3.4528e-09
5.61295e-05
2.56427e-07
-3.52274e-09
-2.57256e-07
3.5527e-09
5.09557e-05
2.67525e-07
-3.69755e-09
-2.68389e-07
3.72965e-09
4.4323e-05
2.78901e-07
-3.79032e-09
-2.79795e-07
3.82206e-09
3.62558e-05
2.90866e-07
-3.98666e-09
-2.91797e-07
4.02076e-09
2.69641e-05
3.03074e-07
-4.06769e-09
-3.04036e-07
4.10133e-09
1.66454e-05
3.15946e-07
-4.28877e-09
-3.16946e-07
4.32503e-09
5.30755e-06
3.29009e-07
-4.3532e-09
-3.30044e-07
4.38892e-09
-7.23583e-06
3.4281e-07
-4.59844e-09
-3.43886e-07
4.63706e-09
-2.10887e-05
3.56785e-07
-4.657e-09
-3.57897e-07
4.69503e-09
-3.60216e-05
3.71719e-07
-4.97587e-09
-3.72875e-07
5.01711e-09
-5.15055e-05
3.86863e-07
-5.0468e-09
-3.88057e-07
5.08748e-09
-6.69235e-05
4.03319e-07
-5.48319e-09
-4.0456e-07
5.52743e-09
-8.18179e-05
4.1998e-07
-5.55291e-09
-4.21263e-07
5.59672e-09
-9.57311e-05
4.38474e-07
-6.1622e-09
-4.39806e-07
6.20989e-09
-0.000107817
4.57047e-07
-6.19042e-09
-4.58424e-07
6.2378e-09
-0.00011705
4.78196e-07
-7.04706e-09
-4.79624e-07
7.09858e-09
-0.000122877
4.99045e-07
-6.94981e-09
-5.00522e-07
7.00118e-09
-0.000125677
5.23506e-07
-8.15086e-09
-5.25037e-07
8.20646e-09
-0.000126662
5.46886e-07
-7.79387e-09
-5.48469e-07
7.84954e-09
-0.000127356
5.75351e-07
-9.48558e-09
-5.7699e-07
9.5454e-09
-0.000128901
6.01406e-07
-8.68609e-09
-6.031e-07
8.74634e-09
-0.000131504
6.34756e-07
-1.11132e-08
-6.36506e-07
1.11773e-08
-0.000134515
6.63533e-07
-9.59455e-09
-6.65342e-07
9.65968e-09
-0.000137017
7.03025e-07
-1.31609e-08
-7.04892e-07
1.32293e-08
-0.000138132
7.34378e-07
-1.04547e-08
-7.36311e-07
1.0525e-08
-0.000137252
7.81739e-07
-1.57835e-08
-7.83733e-07
1.58563e-08
-0.000134153
8.15135e-07
-1.11383e-08
-8.17203e-07
1.12142e-08
-0.0001291
8.72575e-07
-1.91451e-08
-8.74712e-07
1.92222e-08
-0.000122329
9.06953e-07
-1.14633e-08
-9.09154e-07
1.15452e-08
-0.000113425
9.77217e-07
-2.34256e-08
-9.79497e-07
2.35071e-08
-0.000101616
1.01101e-06
-1.12191e-08
-1.01321e-06
1.13077e-08
-8.70955e-05
1.09735e-06
-2.87957e-08
-1.0996e-06
2.8882e-08
-7.07394e-05
1.12842e-06
-1.02514e-08
-1.13043e-06
1.03478e-08
-5.39949e-05
1.22579e-06
-3.24967e-08
-1.22787e-06
3.25986e-08
-3.82653e-05
1.16318e-06
2.09131e-08
-1.16515e-06
-2.0913e-08
-2.44301e-05
1.16004e-06
9.81818e-10
-1.16212e-06
-9.84463e-10
-1.21318e-05
1.06296e-06
3.23158e-08
-1.06496e-06
-3.25695e-08
-8.9232e-07
1.01602e-06
1.55851e-08
-1.01791e-06
-1.58592e-08
8.92432e-06
9.00063e-07
3.86209e-08
-9.01793e-07
-3.8899e-08
1.64143e-05
8.20614e-07
2.64444e-08
-8.22128e-07
-2.67464e-08
2.18737e-05
6.78914e-07
4.7213e-08
-6.80173e-07
-4.75173e-08
2.69045e-05
5.59804e-07
3.96794e-08
-5.60772e-07
-4.0003e-08
3.28648e-05
3.84564e-07
5.83971e-08
-3.85213e-07
-5.87294e-08
3.8759e-05
2.17078e-07
5.58112e-08
-2.17386e-07
-5.61597e-08
4.26075e-05
7.27413e-08
-1.19035e-09
-7.3102e-08
1.25004e-09
5.27395e-07
-1.84314e-11
1.86418e-11
1.61147e-06
-4.69605e-11
4.7408e-11
2.74126e-06
-7.42679e-11
7.48851e-11
3.91819e-06
-9.53541e-11
9.61341e-11
5.14367e-06
-1.08649e-10
1.09484e-10
6.41917e-06
-1.16781e-10
1.17697e-10
7.74622e-06
-1.22213e-10
1.23135e-10
9.12647e-06
-1.26134e-10
1.27109e-10
1.05617e-05
-1.29216e-10
1.30186e-10
1.20538e-05
-1.3172e-10
1.32732e-10
1.36047e-05
-1.3388e-10
1.34881e-10
1.52167e-05
-1.35749e-10
1.36788e-10
1.68919e-05
-1.37451e-10
1.38476e-10
1.86329e-05
-1.38979e-10
1.40039e-10
2.04421e-05
-1.4042e-10
1.41463e-10
2.23221e-05
-1.41744e-10
1.4282e-10
2.42758e-05
-1.43022e-10
1.44081e-10
2.6306e-05
-1.44216e-10
1.45307e-10
2.84156e-05
-1.4539e-10
1.46462e-10
3.06078e-05
-1.46499e-10
1.47602e-10
3.28855e-05
-1.47603e-10
1.48688e-10
3.52521e-05
-1.48656e-10
1.49771e-10
3.77107e-05
-1.49717e-10
1.50811e-10
4.02646e-05
-1.50735e-10
1.51858e-10
4.2917e-05
-1.51768e-10
1.52871e-10
4.56712e-05
-1.52766e-10
1.53897e-10
4.85302e-05
-1.53786e-10
1.54895e-10
5.14973e-05
-1.54776e-10
1.55914e-10
5.45753e-05
-1.55793e-10
1.56909e-10
5.77672e-05
-1.56786e-10
1.57928e-10
6.10757e-05
-1.57809e-10
1.58929e-10
6.45033e-05
-1.58813e-10
1.59959e-10
6.80522e-05
-1.59851e-10
1.60974e-10
7.17244e-05
-1.60873e-10
1.62022e-10
7.55217e-05
-1.61934e-10
1.63059e-10
7.94454e-05
-1.62982e-10
1.64131e-10
8.34965e-05
-1.64071e-10
1.65197e-10
8.76755e-05
-1.65152e-10
1.66302e-10
9.19826e-05
-1.66278e-10
1.67403e-10
9.64173e-05
-1.67399e-10
1.68547e-10
0.000100979
-1.68568e-10
1.69691e-10
0.000105665
-1.69737e-10
1.70881e-10
0.000110475
-1.70956e-10
1.72074e-10
0.000115405
-1.72179e-10
1.73318e-10
0.000120453
-1.73456e-10
1.74569e-10
0.000125613
-1.74741e-10
1.75873e-10
0.000130881
-1.76084e-10
1.7719e-10
0.000136251
-1.7744e-10
1.78563e-10
0.000141718
-1.78856e-10
1.79953e-10
0.000147273
-1.80291e-10
1.81404e-10
0.00015291
-1.81789e-10
1.82877e-10
0.000158618
-1.83312e-10
1.84414e-10
0.000164389
-1.84902e-10
1.85978e-10
0.000170212
-1.86523e-10
1.8761e-10
0.000176075
-1.88212e-10
1.89275e-10
0.000181968
-1.8994e-10
1.91013e-10
0.000187876
-1.91739e-10
1.92788e-10
0.000193788
-1.93583e-10
1.9464e-10
0.000199687
-1.955e-10
1.96535e-10
0.000205561
-1.97471e-10
1.98512e-10
0.000211393
-1.99515e-10
2.00536e-10
0.000217168
-2.0162e-10
2.02645e-10
0.00022287
-2.038e-10
2.04806e-10
0.000228483
-2.06046e-10
2.07055e-10
0.00023399
-2.08369e-10
2.0936e-10
0.000239375
-2.10762e-10
2.11756e-10
0.000244623
-2.13232e-10
2.14209e-10
0.000249718
-2.15776e-10
2.16756e-10
0.000254643
-2.18397e-10
2.19363e-10
0.000259386
-2.21093e-10
2.22063e-10
0.000263933
-2.2387e-10
2.24823e-10
0.000268271
-2.26718e-10
2.27677e-10
0.000272388
-2.29648e-10
2.30591e-10
0.000276275
-2.32646e-10
2.336e-10
0.000279923
-2.35733e-10
2.36667e-10
0.000283326
-2.38881e-10
2.3983e-10
0.000286478
-2.42122e-10
2.4305e-10
0.000289375
-2.45417e-10
2.46369e-10
0.000292015
-2.48822e-10
2.49743e-10
0.000294399
-2.52267e-10
2.53219e-10
0.000296527
-2.55834e-10
2.56753e-10
0.000298402
-2.59432e-10
2.60393e-10
0.00030003
-2.63176e-10
2.64091e-10
0.000301416
-2.66934e-10
2.67904e-10
0.000302567
-2.70859e-10
2.71778e-10
0.000303491
-2.74789e-10
2.75776e-10
0.000304198
-2.78918e-10
2.79838e-10
0.000304699
-2.83033e-10
2.84036e-10
0.000305002
-2.87378e-10
2.88305e-10
0.00030512
-2.91694e-10
2.92722e-10
0.000305064
-2.96282e-10
2.97215e-10
0.000304846
-3.00822e-10
3.01873e-10
0.000304478
-3.05668e-10
3.06615e-10
0.000303971
-3.10453e-10
3.11538e-10
0.000303336
-3.15594e-10
3.16553e-10
0.000302585
-3.20652e-10
3.21769e-10
0.000301729
-3.26107e-10
3.27087e-10
0.000300779
-3.31467e-10
3.32625e-10
0.000299743
-3.37277e-10
3.38277e-10
0.000298632
-3.42971e-10
3.44171e-10
0.000297453
-3.49161e-10
3.5019e-10
0.000296217
-3.55225e-10
3.56476e-10
0.000294929
-3.61842e-10
3.629e-10
0.000293597
-3.68315e-10
3.69616e-10
0.000292229
-3.75391e-10
3.76487e-10
0.000290828
-3.82314e-10
3.83677e-10
0.000289401
-3.89901e-10
3.91036e-10
0.000287953
-3.97321e-10
3.98745e-10
0.000286488
-4.05459e-10
4.06644e-10
0.00028501
-4.13426e-10
4.14923e-10
0.000283521
-4.22174e-10
4.23411e-10
0.000282026
-4.30744e-10
4.32314e-10
0.000280526
-4.40151e-10
4.41449e-10
0.000279024
-4.49382e-10
4.51037e-10
0.000277523
-4.59516e-10
4.60881e-10
0.000276022
-4.69474e-10
4.71217e-10
0.000274525
-4.80396e-10
4.81838e-10
0.000273031
-4.91152e-10
4.92994e-10
0.000271542
-5.0294e-10
5.04465e-10
0.000270059
-5.14571e-10
5.16517e-10
0.000268582
-5.27301e-10
5.28921e-10
0.000267112
-5.39892e-10
5.41955e-10
0.000265648
-5.53654e-10
5.55377e-10
0.000264192
-5.67298e-10
5.69484e-10
0.000262743
-5.82185e-10
5.84024e-10
0.000261301
-5.96983e-10
5.99306e-10
0.000259866
-6.13101e-10
6.15067e-10
0.000258439
-6.29164e-10
6.31634e-10
0.00025702
-6.46627e-10
6.48734e-10
0.000255609
-6.64077e-10
6.66707e-10
0.000254205
-6.83012e-10
6.85272e-10
0.000252811
-7.01983e-10
7.04786e-10
0.000251425
-7.22528e-10
7.24957e-10
0.000250049
-7.43164e-10
7.46157e-10
0.000248683
-7.65472e-10
7.68087e-10
0.000247328
-7.87936e-10
7.91134e-10
0.000245985
-8.12173e-10
8.14991e-10
0.000244654
-8.3664e-10
8.40062e-10
0.000243336
-8.62992e-10
8.66034e-10
0.000242032
-8.89657e-10
8.93321e-10
0.000240743
-9.18328e-10
9.21612e-10
0.00023947
-9.47401e-10
9.51331e-10
0.000238215
-9.78614e-10
9.82167e-10
0.000236979
-1.01033e-09
1.01455e-09
0.000235763
-1.04433e-09
1.04818e-09
0.00023457
-1.07895e-09
1.08349e-09
0.000233401
-1.11602e-09
1.12018e-09
0.000232258
-1.15382e-09
1.15869e-09
0.000231144
-1.19425e-09
1.19877e-09
0.000230061
-1.23554e-09
1.24079e-09
0.000229012
-1.27967e-09
1.28458e-09
0.000227999
-1.32479e-09
1.33046e-09
0.000227024
-1.373e-09
1.37832e-09
0.000226091
-1.42231e-09
1.42843e-09
0.000225203
-1.475e-09
1.48079e-09
0.000224362
-1.52891e-09
1.53552e-09
0.000223571
-1.58654e-09
1.59285e-09
0.000222831
-1.64548e-09
1.65264e-09
0.000222146
-1.70858e-09
1.71544e-09
0.000221514
-1.77301e-09
1.78077e-09
0.000220937
-1.84214e-09
1.84963e-09
0.000220414
-1.91256e-09
1.92098e-09
0.000219941
-1.98838e-09
1.99655e-09
0.000219516
-2.0653e-09
2.07445e-09
0.000219135
-2.14856e-09
2.15748e-09
0.000218793
-2.2325e-09
2.24246e-09
0.000218486
-2.32407e-09
2.33383e-09
0.000218208
-2.41556e-09
2.42641e-09
0.000217957
-2.51647e-09
2.52714e-09
0.00021773
-2.61597e-09
2.6278e-09
0.000217526
-2.72746e-09
2.73914e-09
0.000217346
-2.83538e-09
2.84829e-09
0.000217194
-2.95899e-09
2.97176e-09
0.000217074
-3.07553e-09
3.0896e-09
0.000216991
-3.21321e-09
3.22718e-09
0.00021695
-3.33827e-09
3.35361e-09
0.000216956
-3.49261e-09
3.50788e-09
0.000217013
-3.62556e-09
3.64225e-09
0.000217124
-3.80002e-09
3.81669e-09
0.000217292
-3.93936e-09
3.95737e-09
0.000217516
-4.13876e-09
4.15681e-09
0.000217797
-4.28154e-09
4.30091e-09
0.000218132
-4.51277e-09
4.53227e-09
0.000218517
-4.66729e-09
4.68819e-09
0.000218948
-4.93982e-09
4.96097e-09
0.00021942
-5.16515e-09
5.18781e-09
0.000219932
-5.48945e-09
5.51248e-09
0.000220479
-5.79925e-09
5.82393e-09
0.00022106
-6.18608e-09
6.21126e-09
0.000221677
-6.59492e-09
6.62187e-09
0.000222335
-6.95507e-09
6.98264e-09
0.00022304
-7.3681e-09
7.39751e-09
0.000223795
-7.69122e-09
7.72136e-09
0.000224607
-8.10985e-09
8.14179e-09
0.000225477
-8.39354e-09
8.42632e-09
0.000226407
-8.82234e-09
8.85694e-09
0.000227401
-9.11896e-09
9.15457e-09
0.000228456
-9.56437e-09
9.602e-09
0.000229571
-9.91116e-09
9.94997e-09
0.00023074
-1.03796e-08
1.04206e-08
0.000231947
-1.07765e-08
1.08189e-08
0.000233176
-1.12738e-08
1.13187e-08
0.000234407
-1.17217e-08
1.1768e-08
0.000235611
-1.22535e-08
1.23024e-08
0.000236764
-1.27537e-08
1.28042e-08
0.000237838
-1.33252e-08
1.33786e-08
0.000238811
-1.38797e-08
1.39347e-08
0.000239667
-1.4496e-08
1.45542e-08
0.000240401
-1.51071e-08
1.51672e-08
0.000241013
-1.57732e-08
1.58367e-08
0.000241505
-1.6444e-08
1.65094e-08
0.000241874
-1.71649e-08
1.7234e-08
0.000242109
-1.78985e-08
1.79697e-08
0.000242197
-1.86791e-08
1.87543e-08
0.000242119
-1.94793e-08
1.95568e-08
0.000241853
-2.03248e-08
2.04066e-08
0.00024138
-2.11958e-08
2.12801e-08
0.000240681
-2.21115e-08
2.22004e-08
0.000239733
-2.30581e-08
2.31498e-08
0.000238521
-2.40497e-08
2.41464e-08
0.00023704
-2.50774e-08
2.5177e-08
0.000235301
-2.61514e-08
2.62564e-08
0.000233333
-2.72664e-08
2.73745e-08
0.000231173
-2.84299e-08
2.85437e-08
0.000228865
-2.96393e-08
2.97567e-08
0.000226438
-3.09002e-08
3.10237e-08
0.000223905
-3.22121e-08
3.23394e-08
0.000221255
-3.35791e-08
3.37129e-08
0.00021845
-3.50024e-08
3.51404e-08
0.00021545
-3.64851e-08
3.66301e-08
0.000212226
-3.80299e-08
3.81794e-08
0.000208779
-3.96392e-08
3.97961e-08
0.000205133
-4.13168e-08
4.14787e-08
0.000201316
-4.30649e-08
4.32346e-08
0.000197356
-4.48882e-08
4.50635e-08
0.000193278
-4.67888e-08
4.69724e-08
0.000189116
-4.87723e-08
4.8962e-08
0.000184916
-5.08407e-08
5.10392e-08
0.000180732
-5.30003e-08
5.32054e-08
0.000176615
-5.5253e-08
5.54676e-08
0.000172577
-5.76059e-08
5.78277e-08
0.000168589
-6.00608e-08
6.02927e-08
0.000164577
-6.26254e-08
6.28652e-08
0.000160436
-6.53016e-08
6.55521e-08
0.000156051
-6.80979e-08
6.8357e-08
0.000151325
-7.10165e-08
7.12871e-08
0.000146159
-7.4067e-08
7.43469e-08
0.000140475
-7.72521e-08
7.75443e-08
0.000134268
-8.05829e-08
8.08854e-08
0.000127646
-8.4063e-08
8.43786e-08
0.00012082
-8.77051e-08
8.80319e-08
0.000114037
-9.1513e-08
9.18539e-08
0.000107526
-9.55011e-08
9.58542e-08
0.000101495
-9.96727e-08
1.00041e-07
9.61002e-05
-1.04043e-07
1.04425e-07
9.13396e-05
-1.08615e-07
1.09013e-07
8.7004e-05