/*--------------------------------*- C++ -*----------------------------------*\
| =========                 |                                                 |
| \\      /  F ield         | OpenFOAM: The Open Source CFD Toolbox           |
|  \\    /   O peration     | Version:  2106                                  |
|   \\  /    A nd           | Website:  www.openfoam.com                      |
|    \\/     M anipulation  |                                                 |
\*---------------------------------------------------------------------------*/
FoamFile
{
    version     2.0;
    format      ascii;
    arch        "LSB;label=32;scalar=64";
    class       surfaceScalarField;
    location    "12000";
    object      phi;
}
// * * * * * * * * * * * * * * * * * * * * * * * * * * * * * * * * * * * * * //

dimensions      [0 3 -1 0 0 0 0];

oriented        oriented;

internalField   nonuniform List<scalar> 
5116
(
6.4415e-09
-7.89805e-18
-1.28118e-22
-2.63865e-22
9.27403e-25
1.96985e-08
-7.89742e-18
-2.09681e-22
-6.87068e-22
-6.30994e-25
3.35319e-08
-7.89678e-18
-2.09468e-22
-1.11068e-21
-6.62368e-25
4.79617e-08
-7.89612e-18
-2.17947e-22
-1.55129e-21
-6.97618e-25
6.30083e-08
-7.89546e-18
-2.25848e-22
-2.00663e-21
-7.37603e-25
7.8693e-08
-7.89476e-18
-2.33595e-22
-2.46838e-21
-7.83173e-25
9.50376e-08
-7.89403e-18
-2.41793e-22
-2.94593e-21
-8.34891e-25
1.12065e-07
-7.89328e-18
-2.50489e-22
-3.43258e-21
-8.93392e-25
1.29797e-07
-7.89248e-18
-2.59554e-22
-3.96882e-21
-9.5924e-25
1.4826e-07
-7.8917e-18
-2.68941e-22
-4.49131e-21
-1.03229e-24
1.67477e-07
-7.89083e-18
-2.78655e-22
-5.02664e-21
-1.11401e-24
1.87474e-07
-7.88999e-18
-2.88714e-22
-5.6048e-21
-1.20489e-24
2.08277e-07
-7.88908e-18
-2.99137e-22
-6.24464e-21
-1.30517e-24
2.29914e-07
-7.88816e-18
-3.09942e-22
-6.87341e-21
-1.41527e-24
2.52413e-07
-7.88718e-18
-3.21145e-22
-7.52758e-21
-1.53629e-24
2.75802e-07
-7.88611e-18
-3.32761e-22
-8.31351e-21
-1.67028e-24
3.00112e-07
-7.8851e-18
-3.44804e-22
-8.97397e-21
-1.81658e-24
3.25373e-07
-7.88396e-18
-3.57288e-22
-9.74609e-21
-1.97864e-24
3.51618e-07
-7.88294e-18
-3.70232e-22
-1.05479e-20
-2.15729e-24
3.78878e-07
-7.88173e-18
-3.83648e-22
-1.13484e-20
-2.35268e-24
4.07188e-07
-7.88048e-18
-3.97556e-22
-1.22112e-20
-2.56799e-24
4.36582e-07
-7.8792e-18
-4.11974e-22
-1.3138e-20
-2.80484e-24
4.67098e-07
-7.87811e-18
-4.26921e-22
-1.39252e-20
-3.06433e-24
4.9877e-07
-7.8768e-18
-4.42413e-22
-1.49536e-20
-3.34909e-24
5.31639e-07
-7.87528e-18
-4.58471e-22
-1.58788e-20
-3.65881e-24
5.65743e-07
-7.87375e-18
-4.75117e-22
-1.70315e-20
-3.9974e-24
6.01124e-07
-7.87244e-18
-4.92374e-22
-1.7808e-20
-4.36179e-24
6.37822e-07
-7.87087e-18
-5.10258e-22
-1.88579e-20
-4.76155e-24
6.75882e-07
-7.86931e-18
-5.28795e-22
-1.99626e-20
-5.19177e-24
7.15347e-07
-7.86759e-18
-5.48005e-22
-2.1194e-20
-5.65654e-24
7.56265e-07
-7.86594e-18
-5.67911e-22
-2.22262e-20
-6.15654e-24
7.98682e-07
-7.8642e-18
-5.88538e-22
-2.34096e-20
-6.7061e-24
8.42646e-07
-7.86227e-18
-6.09909e-22
-2.47353e-20
-7.30731e-24
8.8821e-07
-7.86038e-18
-6.32056e-22
-2.61142e-20
-7.95666e-24
9.35424e-07
-7.8585e-18
-6.55e-22
-2.73991e-20
-8.65538e-24
9.84342e-07
-7.85628e-18
-6.78772e-22
-2.89659e-20
-9.41493e-24
1.03502e-06
-7.85447e-18
-7.03411e-22
-3.01139e-20
-1.02346e-23
1.08751e-06
-7.85236e-18
-7.28932e-22
-3.1589e-20
-1.11269e-23
1.14188e-06
-7.84998e-18
-7.55369e-22
-3.29377e-20
-1.20867e-23
1.19818e-06
-7.84775e-18
-7.8276e-22
-3.45854e-20
-1.31268e-23
1.25648e-06
-7.84522e-18
-8.11134e-22
-3.6479e-20
-1.42569e-23
1.31684e-06
-7.84264e-18
-8.40524e-22
-3.82558e-20
-1.54699e-23
1.37933e-06
-7.84e-18
-8.7096e-22
-3.9959e-20
-1.67736e-23
1.44401e-06
-7.83732e-18
-9.02478e-22
-4.17365e-20
-1.81739e-23
1.51095e-06
-7.83448e-18
-9.35113e-22
-4.34322e-20
-1.96757e-23
1.58024e-06
-7.83153e-18
-9.68911e-22
-4.54986e-20
-2.12754e-23
1.65193e-06
-7.82832e-18
-1.00391e-21
-4.78425e-20
-2.29814e-23
1.72611e-06
-7.8253e-18
-1.04015e-21
-4.9794e-20
-2.47949e-23
1.80285e-06
-7.82215e-18
-1.07767e-21
-5.18777e-20
-2.67388e-23
1.88224e-06
-7.81927e-18
-1.1165e-21
-5.41031e-20
-2.88136e-23
1.96436e-06
-7.81535e-18
-1.15668e-21
-5.60416e-20
-3.10267e-23
2.04929e-06
-7.81098e-18
-1.19825e-21
-5.89865e-20
-3.34301e-23
2.13712e-06
-7.80745e-18
-1.24129e-21
-6.11857e-20
-3.59905e-23
2.22795e-06
-7.80352e-18
-1.28579e-21
-6.36543e-20
-3.87302e-23
2.32185e-06
-7.79966e-18
-1.33185e-21
-6.66826e-20
-4.16398e-23
2.41893e-06
-7.79592e-18
-1.37948e-21
-6.93692e-20
-4.47128e-23
2.51929e-06
-7.79146e-18
-1.42869e-21
-7.19403e-20
-4.79713e-23
2.62301e-06
-7.78736e-18
-1.47958e-21
-7.45792e-20
-5.14493e-23
2.73022e-06
-7.7828e-18
-1.53214e-21
-7.78247e-20
-5.51494e-23
2.841e-06
-7.77806e-18
-1.58647e-21
-8.06774e-20
-5.90383e-23
2.95547e-06
-7.7731e-18
-1.64261e-21
-8.39909e-20
-6.31699e-23
3.07373e-06
-7.76772e-18
-1.70061e-21
-8.79243e-20
-6.75524e-23
3.1959e-06
-7.76235e-18
-1.76051e-21
-9.18226e-20
-7.21807e-23
3.32208e-06
-7.75744e-18
-1.82233e-21
-9.46654e-20
-7.70611e-23
3.4524e-06
-7.75181e-18
-1.88608e-21
-9.8209e-20
-8.22558e-23
3.58697e-06
-7.74587e-18
-1.95181e-21
-1.01986e-19
-8.77898e-23
3.72592e-06
-7.73953e-18
-2.01951e-21
-1.06294e-19
-9.36292e-23
3.86935e-06
-7.73309e-18
-2.0892e-21
-1.10088e-19
-9.98181e-23
4.0174e-06
-7.72624e-18
-2.16101e-21
-1.154e-19
-1.06374e-22
4.17019e-06
-7.71814e-18
-2.23485e-21
-1.20564e-19
-1.1327e-22
4.32785e-06
-7.71133e-18
-2.31084e-21
-1.24684e-19
-1.20529e-22
4.4905e-06
-7.70532e-18
-2.38887e-21
-1.2837e-19
-1.28184e-22
4.65827e-06
-7.69761e-18
-2.46892e-21
-1.33023e-19
-1.3626e-22
4.83129e-06
-7.69043e-18
-2.55103e-21
-1.38178e-19
-1.44689e-22
5.0097e-06
-7.682e-18
-2.63512e-21
-1.42882e-19
-1.53434e-22
5.1936e-06
-7.67269e-18
-2.72126e-21
-1.49279e-19
-1.62596e-22
5.38315e-06
-7.66452e-18
-2.80948e-21
-1.55062e-19
-1.72144e-22
5.57846e-06
-7.65587e-18
-2.89973e-21
-1.61839e-19
-1.82083e-22
5.77966e-06
-7.64843e-18
-2.99193e-21
-1.66781e-19
-1.92258e-22
5.98688e-06
-7.63996e-18
-3.08607e-21
-1.726e-19
-2.02754e-22
6.20025e-06
-7.6307e-18
-3.18217e-21
-1.7737e-19
-2.13693e-22
6.41988e-06
-7.62199e-18
-3.28005e-21
-1.8459e-19
-2.25262e-22
6.6459e-06
-7.61157e-18
-3.37961e-21
-1.91422e-19
-2.37298e-22
6.87842e-06
-7.60138e-18
-3.48072e-21
-1.98661e-19
-2.49756e-22
7.11757e-06
-7.59024e-18
-3.58324e-21
-2.06725e-19
-2.62509e-22
7.36345e-06
-7.57988e-18
-3.68694e-21
-2.13598e-19
-2.75698e-22
7.61616e-06
-7.56935e-18
-3.79175e-21
-2.206e-19
-2.8934e-22
7.87583e-06
-7.5583e-18
-3.89761e-21
-2.2831e-19
-3.03457e-22
8.14254e-06
-7.54787e-18
-4.00436e-21
-2.35904e-19
-3.18007e-22
8.41639e-06
-7.53543e-18
-4.11188e-21
-2.4422e-19
-3.32916e-22
8.69747e-06
-7.52212e-18
-4.22042e-21
-2.54085e-19
-3.48155e-22
8.98588e-06
-7.5087e-18
-4.32939e-21
-2.62843e-19
-3.63535e-22
9.2817e-06
-7.49558e-18
-4.43855e-21
-2.71952e-19
-3.78969e-22
9.585e-06
-7.48593e-18
-4.54774e-21
-2.7957e-19
-3.9419e-22
9.89586e-06
-7.47312e-18
-4.65619e-21
-2.86845e-19
-4.09999e-22
1.02144e-05
-7.46053e-18
-4.76405e-21
-2.95093e-19
-4.26701e-22
1.05406e-05
-7.44491e-18
-4.87099e-21
-3.0401e-19
-4.43659e-22
1.08745e-05
-7.42872e-18
-4.97697e-21
-3.16065e-19
-4.60861e-22
1.12163e-05
-7.41258e-18
-5.08224e-21
-3.24917e-19
-4.78174e-22
1.1566e-05
-7.39722e-18
-5.18621e-21
-3.36354e-19
-4.96244e-22
1.19237e-05
-7.37883e-18
-5.28898e-21
-3.47608e-19
-5.1483e-22
1.22893e-05
-7.35769e-18
-5.39069e-21
-3.5929e-19
-5.33581e-22
1.2663e-05
-7.34063e-18
-5.49244e-21
-3.72683e-19
-5.52106e-22
1.30448e-05
-7.32498e-18
-5.59336e-21
-3.84253e-19
-5.69612e-22
1.34347e-05
-7.31122e-18
-5.69265e-21
-3.93741e-19
-5.8659e-22
1.38329e-05
-7.29506e-18
-5.79037e-21
-4.03716e-19
-6.03657e-22
1.42394e-05
-7.27841e-18
-5.88567e-21
-4.13821e-19
-6.20991e-22
1.46541e-05
-7.26201e-18
-5.97888e-21
-4.2386e-19
-6.38795e-22
1.50773e-05
-7.24515e-18
-6.07016e-21
-4.34316e-19
-6.57135e-22
1.55089e-05
-7.22504e-18
-6.15926e-21
-4.49356e-19
-6.75625e-22
1.59489e-05
-7.20891e-18
-6.24648e-21
-4.59682e-19
-6.93121e-22
1.63976e-05
-7.19194e-18
-6.33118e-21
-4.6678e-19
-7.10974e-22
1.68549e-05
-7.17575e-18
-6.41326e-21
-4.78694e-19
-7.29399e-22
1.73209e-05
-7.15743e-18
-6.49234e-21
-4.87546e-19
-7.48858e-22
1.77956e-05
-7.14277e-18
-6.56857e-21
-4.96327e-19
-7.69714e-22
1.82792e-05
-7.12474e-18
-6.64113e-21
-5.06982e-19
-7.92287e-22
1.87718e-05
-7.10746e-18
-6.71035e-21
-5.17191e-19
-8.15885e-22
1.92734e-05
-7.08399e-18
-6.77662e-21
-5.25843e-19
-8.41142e-22
1.97841e-05
-7.0673e-18
-6.84198e-21
-5.34655e-19
-8.6697e-22
2.0304e-05
-7.04689e-18
-6.905e-21
-5.43891e-19
-8.93122e-22
2.08332e-05
-7.02202e-18
-6.96745e-21
-5.57485e-19
-9.18872e-22
2.13719e-05
-6.99987e-18
-7.03034e-21
-5.66731e-19
-9.4118e-22
2.192e-05
-6.97673e-18
-7.09308e-21
-5.82307e-19
-9.63189e-22
2.24779e-05
-6.9546e-18
-7.15627e-21
-5.9049e-19
-9.8347e-22
2.30455e-05
-6.93631e-18
-7.21976e-21
-6.04263e-19
-1.00156e-21
2.36229e-05
-6.91549e-18
-7.28336e-21
-6.19832e-19
-1.016e-21
2.42104e-05
-6.89289e-18
-7.34601e-21
-6.31253e-19
-1.02831e-21
2.48081e-05
-6.87104e-18
-7.4085e-21
-6.4258e-19
-1.04139e-21
2.54161e-05
-6.84619e-18
-7.46998e-21
-6.58061e-19
-1.05542e-21
2.60345e-05
-6.82402e-18
-7.53256e-21
-6.68775e-19
-1.06739e-21
2.66635e-05
-6.7995e-18
-7.59289e-21
-6.86785e-19
-1.08013e-21
2.73033e-05
-6.7766e-18
-7.65112e-21
-7.03966e-19
-1.09072e-21
2.7954e-05
-6.75285e-18
-7.70699e-21
-7.20587e-19
-1.10062e-21
2.86157e-05
-6.72458e-18
-7.76009e-21
-7.42559e-19
-1.11027e-21
2.92887e-05
-6.70623e-18
-7.81256e-21
-7.55353e-19
-1.11748e-21
2.99731e-05
-6.68821e-18
-7.86074e-21
-7.72538e-19
-1.12524e-21
3.06692e-05
-6.66689e-18
-7.90505e-21
-7.83568e-19
-1.13114e-21
3.1377e-05
-6.65362e-18
-7.94473e-21
-7.93859e-19
-1.13412e-21
3.20968e-05
-6.63352e-18
-7.98021e-21
-8.04683e-19
-1.13516e-21
3.28287e-05
-6.59947e-18
-8.01818e-21
-8.10287e-19
-1.13472e-21
3.35731e-05
-6.58331e-18
-8.06612e-21
-8.23483e-19
-1.13265e-21
3.433e-05
-6.56447e-18
-8.11274e-21
-8.35109e-19
-1.12914e-21
3.50996e-05
-6.55561e-18
-8.15877e-21
-8.4178e-19
-1.12132e-21
3.58823e-05
-6.52615e-18
-8.19942e-21
-8.68799e-19
-1.11337e-21
3.66782e-05
-6.50437e-18
-8.24745e-21
-8.82438e-19
-1.08718e-21
3.74875e-05
-6.48462e-18
-8.29433e-21
-8.95759e-19
-1.05797e-21
3.83104e-05
-6.46257e-18
-8.33748e-21
-9.14073e-19
-1.02889e-21
3.91473e-05
-6.44296e-18
-8.38034e-21
-9.2135e-19
-9.94778e-22
3.99982e-05
-6.42012e-18
-8.41944e-21
-9.42571e-19
-9.6574e-22
4.08635e-05
-6.39421e-18
-8.45592e-21
-9.59808e-19
-9.30858e-22
4.17435e-05
-6.37329e-18
-8.48415e-21
-9.72342e-19
-9.01644e-22
4.26382e-05
-6.34635e-18
-8.50632e-21
-9.94248e-19
-8.7631e-22
4.35481e-05
-6.32658e-18
-8.52393e-21
-1.01037e-18
-8.5013e-22
4.44734e-05
-6.28693e-18
-8.53819e-21
-1.02851e-18
-8.33321e-22
4.54143e-05
-6.26438e-18
-8.5567e-21
-1.05278e-18
-8.19394e-22
4.63711e-05
-6.23375e-18
-8.57403e-21
-1.08059e-18
-8.06073e-22
4.7344e-05
-6.20825e-18
-8.60201e-21
-1.10024e-18
-7.91847e-22
4.83334e-05
-6.18346e-18
-8.62168e-21
-1.12081e-18
-7.68691e-22
4.93396e-05
-6.14622e-18
-8.6423e-21
-1.14539e-18
-7.46116e-22
5.03628e-05
-6.10673e-18
-8.67307e-21
-1.16445e-18
-7.25232e-22
5.14033e-05
-6.06557e-18
-8.71387e-21
-1.18548e-18
-7.18172e-22
5.24614e-05
-6.0432e-18
-8.75924e-21
-1.20527e-18
-7.13011e-22
5.35374e-05
-6.02606e-18
-8.80369e-21
-1.2288e-18
-7.08003e-22
5.46317e-05
-6.01437e-18
-8.83668e-21
-1.24095e-18
-7.09971e-22
5.57445e-05
-5.99378e-18
-8.87227e-21
-1.26505e-18
-7.27189e-22
5.68761e-05
-5.96247e-18
-8.90818e-21
-1.28677e-18
-7.40334e-22
5.8027e-05
-5.93378e-18
-8.94938e-21
-1.30723e-18
-7.59276e-22
5.91973e-05
-5.90118e-18
-8.9972e-21
-1.3479e-18
-7.78137e-22
6.03876e-05
-5.8683e-18
-9.05745e-21
-1.37437e-18
-7.76594e-22
6.1598e-05
-5.84687e-18
-9.12698e-21
-1.4107e-18
-7.68444e-22
6.2829e-05
-5.80928e-18
-9.18696e-21
-1.43828e-18
-7.65235e-22
6.40809e-05
-5.77456e-18
-9.25738e-21
-1.45753e-18
-7.53034e-22
6.5354e-05
-5.73399e-18
-9.34437e-21
-1.49392e-18
-7.40642e-22
6.66488e-05
-5.71565e-18
-9.44974e-21
-1.52148e-18
-7.21108e-22
6.79655e-05
-5.68797e-18
-9.52561e-21
-1.53494e-18
-7.05565e-22
6.93046e-05
-5.65832e-18
-9.58583e-21
-1.5595e-18
-7.01206e-22
7.06665e-05
-5.61803e-18
-9.63489e-21
-1.60035e-18
-7.03348e-22
7.20516e-05
-5.56493e-18
-9.70031e-21
-1.62884e-18
-7.143e-22
7.34601e-05
-5.53228e-18
-9.7935e-21
-1.65649e-18
-6.88278e-22
7.48927e-05
-5.50245e-18
-9.88557e-21
-1.68199e-18
-6.35682e-22
7.63495e-05
-5.45561e-18
-9.9566e-21
-1.71263e-18
-5.96781e-22
7.78312e-05
-5.42192e-18
-9.99267e-21
-1.73201e-18
-5.66052e-22
7.9338e-05
-5.37511e-18
-1.00324e-20
-1.76325e-18
-5.30939e-22
8.08705e-05
-5.33867e-18
-1.00632e-20
-1.77624e-18
-4.86312e-22
8.2429e-05
-5.28389e-18
-1.00755e-20
-1.81492e-18
-4.97753e-22
8.40141e-05
-5.24023e-18
-1.01318e-20
-1.83944e-18
-5.34607e-22
8.56261e-05
-5.19369e-18
-1.02119e-20
-1.86903e-18
-5.7957e-22
8.72655e-05
-5.17556e-18
-1.03232e-20
-1.88458e-18
-6.58377e-22
8.89328e-05
-5.16491e-18
-1.04069e-20
-1.88546e-18
-7.19752e-22
9.06284e-05
-5.15645e-18
-1.04663e-20
-1.90351e-18
-8.07395e-22
9.23529e-05
-5.12685e-18
-1.05297e-20
-1.90896e-18
-8.9652e-22
9.41067e-05
-5.11067e-18
-1.0634e-20
-1.91852e-18
-9.84731e-22
9.58903e-05
-5.0784e-18
-1.07254e-20
-1.92563e-18
-1.07208e-21
9.77043e-05
-5.05421e-18
-1.0824e-20
-1.94198e-18
-1.15271e-21
9.9549e-05
-5.04645e-18
-1.09586e-20
-1.93971e-18
-1.20466e-21
0.000101425
-5.01618e-18
-1.10826e-20
-1.95528e-18
-1.30422e-21
0.000103333
-4.97159e-18
-1.1225e-20
-1.98968e-18
-1.39714e-21
0.000105274
-4.9563e-18
-1.13513e-20
-1.99945e-18
-1.39242e-21
0.000107247
-4.9358e-18
-1.1458e-20
-2.01313e-18
-1.37047e-21
0.000109254
-4.89318e-18
-1.15728e-20
-2.02767e-18
-1.30776e-21
0.000111295
-4.85681e-18
-1.16834e-20
-2.05471e-18
-1.24707e-21
0.000113371
-4.81545e-18
-1.17233e-20
-2.05246e-18
-1.15736e-21
0.000115481
-4.77777e-18
-1.17181e-20
-2.067e-18
-1.11246e-21
0.000117628
-4.74068e-18
-1.17401e-20
-2.07305e-18
-1.0562e-21
0.000119811
-4.72721e-18
-1.1735e-20
-2.07099e-18
-9.74583e-22
0.000122031
-4.68525e-18
-1.16377e-20
-2.09705e-18
-9.70149e-22
0.000124289
-4.65862e-18
-1.15479e-20
-2.10549e-18
-9.98187e-22
0.000126585
-4.6152e-18
-1.14563e-20
-2.1353e-18
-1.0804e-21
0.00012892
-4.58347e-18
-1.14536e-20
-2.16584e-18
-1.02975e-21
0.000131295
-4.57505e-18
-1.15481e-20
-2.18897e-18
-9.28666e-22
0.000133709
-4.54029e-18
-1.15847e-20
-2.20441e-18
-7.80512e-22
0.000136165
-4.49833e-18
-1.16403e-20
-2.20148e-18
-7.29653e-22
0.000138662
-4.47815e-18
-1.18008e-20
-2.21572e-18
-6.90666e-22
0.000141201
-4.43887e-18
-1.18652e-20
-2.22708e-18
-7.47999e-22
0.000143783
-4.40004e-18
-1.19132e-20
-2.2546e-18
-8.9961e-22
0.000146409
-4.3853e-18
-1.18303e-20
-2.25086e-18
-1.04298e-21
0.00014908
-4.35129e-18
-1.16837e-20
-2.26733e-18
-1.36592e-21
0.000151795
-4.32723e-18
-1.16899e-20
-2.30028e-18
-1.68772e-21
0.000154556
-4.27726e-18
-1.17738e-20
-2.32714e-18
-1.97642e-21
0.000157364
-4.24823e-18
-1.19161e-20
-2.32821e-18
-2.08107e-21
0.000160219
-4.23925e-18
-1.20716e-20
-2.36046e-18
-2.31127e-21
0.000163122
-4.20914e-18
-1.21213e-20
-2.38922e-18
-2.46626e-21
0.000166074
-4.15544e-18
-1.21657e-20
-2.4148e-18
-2.45871e-21
0.000169076
-4.13727e-18
-1.23618e-20
-2.43283e-18
-2.41545e-21
0.000172128
-4.13218e-18
-1.25816e-20
-2.43189e-18
-2.54979e-21
0.000175232
-4.07434e-18
-1.25892e-20
-2.45253e-18
-2.7426e-21
0.000178387
-4.02603e-18
-1.26272e-20
-2.49145e-18
-2.92559e-21
0.000181596
-4.02539e-18
-1.28727e-20
-2.49995e-18
-2.7663e-21
0.000184859
-3.97058e-18
-1.27774e-20
-2.52535e-18
-2.80193e-21
0.000188176
-3.9584e-18
-1.28149e-20
-2.52172e-18
-2.78184e-21
0.000191549
-3.94019e-18
-1.28248e-20
-2.54672e-18
-2.83927e-21
0.000194978
-3.8981e-18
-1.27863e-20
-2.56232e-18
-2.64228e-21
0.000198464
-3.87084e-18
-1.26787e-20
-2.53514e-18
-2.55046e-21
0.000202009
-3.82585e-18
-1.24563e-20
-2.50966e-18
-2.57268e-21
0.000205614
-3.76834e-18
-1.21613e-20
-2.56689e-18
-2.60602e-21
0.000209278
-3.73545e-18
-1.19398e-20
-2.52713e-18
-2.07369e-21
0.000213003
-3.6994e-18
-1.17798e-20
-2.53289e-18
-1.9471e-21
0.000216791
-3.68488e-18
-1.15569e-20
-2.54255e-18
-2.09207e-21
0.000220642
-3.63189e-18
-1.12564e-20
-2.55652e-18
-2.45388e-21
0.000224556
-3.60985e-18
-1.124e-20
-2.55478e-18
-2.59467e-21
0.000228536
-3.54864e-18
-1.09735e-20
-2.54083e-18
-2.56854e-21
0.000232582
-3.51162e-18
-1.09758e-20
-2.60084e-18
-2.96193e-21
0.000236695
-3.48927e-18
-1.11174e-20
-2.61506e-18
-2.96528e-21
0.000240876
-3.46559e-18
-1.14669e-20
-2.57895e-18
-2.8694e-21
0.000245126
-3.44056e-18
-1.19017e-20
-2.59205e-18
-3.25499e-21
0.000249447
-3.36371e-18
-1.24386e-20
-2.63971e-18
-3.12532e-21
0.000253839
-3.33906e-18
-1.26129e-20
-2.55874e-18
-3.02464e-21
0.000258303
-3.22028e-18
-1.23431e-20
-2.53478e-18
-4.20002e-21
0.000262841
-3.21648e-18
-1.26648e-20
-2.44166e-18
-5.18414e-21
0.000267454
-3.13218e-18
-1.2841e-20
-2.48737e-18
-6.41539e-21
0.000272142
-3.08763e-18
-1.33967e-20
-2.50207e-18
-6.72493e-21
0.000276908
-3.06422e-18
-1.42573e-20
-2.53687e-18
-6.92169e-21
0.000281752
-3.01036e-18
-1.55521e-20
-2.55119e-18
-6.5888e-21
0.000286675
-3.0956e-18
-1.77304e-20
-2.41789e-18
-5.83172e-21
0.000291678
-3.08708e-18
-1.8493e-20
-2.44487e-18
-7.86219e-21
0.000296764
-3.00502e-18
-1.87677e-20
-2.52819e-18
-1.02276e-20
0.000301932
-2.96364e-18
-2.05257e-20
-2.63933e-18
-1.15983e-20
0.000307184
-3.04039e-18
-2.24431e-20
-2.5549e-18
-1.21328e-20
0.000312522
-3.00039e-18
-2.17316e-20
-2.50449e-18
-1.32127e-20
0.000317946
-2.93273e-18
-2.08082e-20
-2.62036e-18
-1.58581e-20
0.000323458
-2.90762e-18
-2.15073e-20
-2.63613e-18
-1.66708e-20
0.00032906
-2.80477e-18
-2.1782e-20
-2.75605e-18
-1.71256e-20
0.000334752
-2.87205e-18
-2.23849e-20
-2.78048e-18
-1.6857e-20
0.000340535
-2.86431e-18
-2.19491e-20
-2.77581e-18
-1.69343e-20
0.000346412
-2.86436e-18
-1.99726e-20
-2.75964e-18
-1.71319e-20
0.000352382
-2.86585e-18
-1.89453e-20
-2.74521e-18
-1.63955e-20
0.000358449
-2.84985e-18
-1.72369e-20
-2.71914e-18
-1.55094e-20
0.000364612
-2.85698e-18
-1.63163e-20
-2.74491e-18
-1.61851e-20
0.000370874
-2.75724e-18
-1.5329e-20
-2.73742e-18
-1.69865e-20
0.000377235
-2.76128e-18
-1.5882e-20
-2.73787e-18
-1.89946e-20
0.000383697
-2.69858e-18
-1.63141e-20
-2.82959e-18
-2.13547e-20
0.000390261
-2.67291e-18
-1.80313e-20
-2.83047e-18
-2.23381e-20
0.000396929
-2.7724e-18
-2.02035e-20
-2.81399e-18
-2.38148e-20
0.000403702
-2.77546e-18
-2.02202e-20
-2.78433e-18
-2.50187e-20
0.000410581
-2.75313e-18
-2.01814e-20
-2.7505e-18
-2.54092e-20
0.000417568
-2.76573e-18
-1.96764e-20
-2.77788e-18
-2.41782e-20
0.000424663
-2.77522e-18
-2.15695e-20
-2.73558e-18
-2.12094e-20
0.000431869
-2.75358e-18
-2.27667e-20
-2.74129e-18
-1.934e-20
0.000439186
-2.72165e-18
-2.27197e-20
-2.74017e-18
-1.74514e-20
0.000446617
-2.7699e-18
-1.91052e-20
-2.71221e-18
-1.57807e-20
0.000454161
-2.65808e-18
-1.70489e-20
-2.69385e-18
-1.33338e-20
0.000461821
-2.66157e-18
-1.90499e-20
-2.7202e-18
-1.33831e-20
0.000469598
-2.62089e-18
-2.14985e-20
-2.73483e-18
-1.49658e-20
0.000477493
-2.58818e-18
-2.47906e-20
-2.74156e-18
-1.47233e-20
0.000485507
-2.58856e-18
-2.47711e-20
-2.75397e-18
-1.54001e-20
0.000493641
-2.61783e-18
-2.4146e-20
-2.63248e-18
-1.39253e-20
0.000501897
-2.59656e-18
-2.42794e-20
-2.55118e-18
-1.85587e-20
0.000510276
-2.60228e-18
-2.64029e-20
-2.53452e-18
-2.4344e-20
0.000518778
-2.49354e-18
-2.35205e-20
-2.49216e-18
-2.49474e-20
0.000527406
-2.43731e-18
-2.23685e-20
-2.4567e-18
-2.7051e-20
0.000536159
-2.37471e-18
-2.47754e-20
-2.33928e-18
-2.52647e-20
0.000545039
-2.42891e-18
-2.54849e-20
-2.28525e-18
-2.52645e-20
0.000554047
-2.16626e-18
-1.89967e-20
-2.1759e-18
-2.17335e-20
0.000563183
-2.05615e-18
-1.72164e-20
-2.16653e-18
-2.16084e-20
0.000572448
-2.0206e-18
-1.94507e-20
-2.18594e-18
-1.959e-20
0.000581843
-2.06963e-18
-1.93374e-20
-2.00578e-18
-1.58804e-20
0.000591368
-1.84242e-18
-1.8354e-20
-1.83689e-18
-1.29774e-20
0.000601024
-1.80861e-18
-1.89183e-20
-1.8014e-18
-1.24744e-20
0.000610811
-1.59678e-18
-9.88415e-21
-1.74474e-18
-7.99778e-21
0.000620729
-1.76712e-18
-9.015e-21
-1.75381e-18
-1.19804e-20
0.000630779
-1.72104e-18
-5.50037e-21
-1.68952e-18
-9.24117e-21
0.000640959
-1.78885e-18
-2.99873e-21
-1.70545e-18
-9.77456e-21
0.00065127
-1.75613e-18
6.27781e-22
-1.69926e-18
-8.12878e-21
0.000661711
-1.67056e-18
-4.85345e-21
-1.70424e-18
-9.87753e-21
0.000672282
-1.80285e-18
-2.19424e-20
-1.71286e-18
-9.81206e-21
0.00068298
-1.77618e-18
-2.81808e-20
-1.72679e-18
-1.12989e-20
0.000693806
-1.76635e-18
-3.12531e-20
-1.55194e-18
-1.03482e-20
0.000704758
-1.6338e-18
-2.97383e-20
-1.5345e-18
-1.25818e-20
0.000715833
-1.47837e-18
-2.71855e-20
-1.45733e-18
-1.04071e-20
0.00072703
-1.48697e-18
-2.17607e-20
-1.43577e-18
-9.31665e-21
0.000738346
-1.36898e-18
-1.7558e-20
-1.40931e-18
-1.05487e-20
0.000749778
-1.44753e-18
-2.57449e-20
-1.42356e-18
-1.23253e-20
0.000761323
-1.45751e-18
-1.22571e-20
-1.34344e-18
-1.182e-20
0.000772977
-1.40782e-18
-4.22714e-21
-1.38757e-18
-1.51774e-20
0.000784737
-1.38613e-18
-1.91008e-22
-1.40346e-18
-1.46511e-20
0.000796598
-1.37174e-18
-2.68164e-21
-1.32455e-18
-1.76195e-20
0.000808556
-1.34852e-18
-1.77268e-21
-1.24938e-18
-1.82576e-20
0.000820604
-1.13589e-18
4.11858e-21
-1.22156e-18
-1.84014e-20
0.000832738
-1.04395e-18
-5.62414e-21
-1.15926e-18
-2.25553e-20
0.000844951
4.89327e-22
-1.02398e-18
-2.16817e-20
-1.01863e-18
6.4415e-09
-1.22075e-22
-5.41078e-24
1.96985e-08
-3.25832e-22
-1.08268e-23
3.35319e-08
-5.29049e-22
-1.11909e-23
4.79617e-08
-7.49796e-22
-1.15741e-23
6.30083e-08
-9.68783e-22
-2.70742e-23
7.8693e-08
-1.18307e-21
-3.90792e-23
9.50376e-08
-1.40379e-21
-4.99974e-23
1.12065e-07
-1.64562e-21
-6.16975e-23
1.29797e-07
-1.93827e-21
-4.50039e-23
1.4826e-07
-2.19022e-21
-6.56266e-23
1.67477e-07
-2.46752e-21
-6.80587e-23
1.87474e-07
-2.77292e-21
-4.20729e-23
2.08277e-07
-3.10259e-21
-2.64147e-23
2.29914e-07
-3.42184e-21
-1.77822e-23
2.52413e-07
-3.65869e-21
-9.57696e-23
2.75802e-07
-3.86754e-21
-1.14298e-22
3.00112e-07
-4.12724e-21
-1.21354e-22
3.25373e-07
-4.40614e-21
-1.95469e-22
3.51618e-07
-4.68491e-21
-2.15865e-22
3.78878e-07
-4.94691e-21
-3.13433e-22
4.07188e-07
-5.26654e-21
-4.12575e-22
4.36582e-07
-5.62041e-21
-4.91283e-22
4.67098e-07
-6.0448e-21
-4.62882e-22
4.9877e-07
-6.51634e-21
-4.93925e-22
5.31639e-07
-6.82248e-21
-4.56742e-22
5.65743e-07
-7.37643e-21
-4.05493e-22
6.01124e-07
-7.86827e-21
-5.46003e-22
6.37822e-07
-8.32152e-21
-5.65157e-22
6.75882e-07
-8.763e-21
-6.76868e-22
7.15347e-07
-9.11046e-21
-7.24647e-22
7.56265e-07
-9.56822e-21
-9.08379e-22
7.98682e-07
-9.99401e-21
-1.03579e-21
8.42646e-07
-1.05573e-20
-1.15472e-21
8.8821e-07
-1.08634e-20
-1.20862e-21
9.35424e-07
-1.13968e-20
-1.32088e-21
9.84342e-07
-1.20916e-20
-1.496e-21
1.03502e-06
-1.27076e-20
-1.68986e-21
1.08751e-06
-1.33243e-20
-1.82615e-21
1.14188e-06
-1.40457e-20
-1.83517e-21
1.19818e-06
-1.48289e-20
-2.01653e-21
1.25648e-06
-1.55477e-20
-2.20792e-21
1.31684e-06
-1.62263e-20
-2.56813e-21
1.37933e-06
-1.68946e-20
-2.66059e-21
1.44401e-06
-1.75451e-20
-2.8395e-21
1.51095e-06
-1.82688e-20
-2.71679e-21
1.58024e-06
-1.91438e-20
-2.89242e-21
1.65193e-06
-1.99652e-20
-3.21803e-21
1.72611e-06
-2.09248e-20
-3.57087e-21
1.80285e-06
-2.18524e-20
-3.49098e-21
1.88224e-06
-2.3428e-20
-3.35404e-21
1.96436e-06
-2.39287e-20
-3.97483e-21
2.04929e-06
-2.49142e-20
-4.40722e-21
2.13712e-06
-2.58722e-20
-4.67203e-21
2.22795e-06
-2.73544e-20
-4.49722e-21
2.32185e-06
-2.86187e-20
-4.70192e-21
2.41893e-06
-2.92812e-20
-5.2418e-21
2.51929e-06
-3.07177e-20
-5.74491e-21
2.62301e-06
-3.15244e-20
-6.17376e-21
2.73022e-06
-3.29612e-20
-6.4804e-21
2.841e-06
-3.48052e-20
-6.98734e-21
2.95547e-06
-3.62997e-20
-7.58005e-21
3.07373e-06
-3.76654e-20
-8.07198e-21
3.1959e-06
-3.90411e-20
-8.8048e-21
3.32208e-06
-4.0797e-20
-9.60022e-21
3.4524e-06
-4.23984e-20
-1.06143e-20
3.58697e-06
-4.35729e-20
-1.06247e-20
3.72592e-06
-4.49349e-20
-1.09654e-20
3.86935e-06
-4.79295e-20
-1.0695e-20
4.0174e-06
-4.93539e-20
-1.15833e-20
4.17019e-06
-5.11942e-20
-1.25252e-20
4.32785e-06
-5.22188e-20
-1.31421e-20
4.4905e-06
-5.40589e-20
-1.40399e-20
4.65827e-06
-5.53034e-20
-1.5122e-20
4.83129e-06
-5.64349e-20
-1.58421e-20
5.0097e-06
-5.81216e-20
-1.66775e-20
5.1936e-06
-6.00467e-20
-1.75912e-20
5.38315e-06
-6.27806e-20
-1.73094e-20
5.57846e-06
-6.46005e-20
-1.65371e-20
5.77966e-06
-6.77745e-20
-1.55083e-20
5.98688e-06
-7.1039e-20
-1.66365e-20
6.20025e-06
-7.37918e-20
-1.78179e-20
6.41988e-06
-7.74947e-20
-1.9162e-20
6.6459e-06
-7.97851e-20
-2.04529e-20
6.87842e-06
-8.29491e-20
-2.12763e-20
7.11757e-06
-8.42006e-20
-2.41218e-20
7.36345e-06
-8.6889e-20
-2.52844e-20
7.61616e-06
-9.03313e-20
-2.64014e-20
7.87583e-06
-9.33087e-20
-2.7967e-20
8.14254e-06
-9.64634e-20
-2.95274e-20
8.41639e-06
-1.01931e-19
-3.10709e-20
8.69747e-06
-1.04139e-19
-3.20632e-20
8.98588e-06
-1.06607e-19
-3.33768e-20
9.2817e-06
-1.10665e-19
-3.30643e-20
9.585e-06
-1.14465e-19
-3.49697e-20
9.89586e-06
-1.18278e-19
-3.82619e-20
1.02144e-05
-1.22039e-19
-3.92261e-20
1.05406e-05
-1.24537e-19
-4.09369e-20
1.08745e-05
-1.29872e-19
-4.26237e-20
1.12163e-05
-1.3193e-19
-4.31368e-20
1.1566e-05
-1.36282e-19
-4.58708e-20
1.19237e-05
-1.39204e-19
-4.84211e-20
1.22893e-05
-1.45555e-19
-4.99507e-20
1.2663e-05
-1.50655e-19
-5.00409e-20
1.30448e-05
-1.52923e-19
-5.02795e-20
1.34347e-05
-1.57614e-19
-5.19124e-20
1.38329e-05
-1.57695e-19
-5.5718e-20
1.42394e-05
-1.61453e-19
-5.84276e-20
1.46541e-05
-1.66781e-19
-6.22959e-20
1.50773e-05
-1.71054e-19
-6.57649e-20
1.55089e-05
-1.75145e-19
-6.69667e-20
1.59489e-05
-1.80764e-19
-7.07981e-20
1.63976e-05
-1.84904e-19
-7.06586e-20
1.68549e-05
-1.88801e-19
-7.54498e-20
1.73209e-05
-1.92491e-19
-7.91371e-20
1.77956e-05
-1.97681e-19
-8.23659e-20
1.82792e-05
-2.01448e-19
-8.25376e-20
1.87718e-05
-2.05475e-19
-8.68968e-20
1.92734e-05
-2.09401e-19
-9.00029e-20
1.97841e-05
-2.12829e-19
-9.47656e-20
2.0304e-05
-2.17438e-19
-9.81882e-20
2.08332e-05
-2.20509e-19
-9.67703e-20
2.13719e-05
-2.2474e-19
-1.00646e-19
2.192e-05
-2.30651e-19
-1.02431e-19
2.24779e-05
-2.36399e-19
-9.65754e-20
2.30455e-05
-2.44026e-19
-9.30491e-20
2.36229e-05
-2.46886e-19
-9.46254e-20
2.42104e-05
-2.53998e-19
-9.76779e-20
2.48081e-05
-2.59876e-19
-1.01001e-19
2.54161e-05
-2.68599e-19
-1.03984e-19
2.60345e-05
-2.7222e-19
-1.09027e-19
2.66635e-05
-2.7564e-19
-1.08396e-19
2.73033e-05
-2.82029e-19
-1.09039e-19
2.7954e-05
-2.87368e-19
-1.12532e-19
2.86157e-05
-2.92087e-19
-1.21187e-19
2.92887e-05
-2.96336e-19
-1.27539e-19
2.99731e-05
-3.00494e-19
-1.31111e-19
3.06692e-05
-2.96821e-19
-1.32653e-19
3.1377e-05
-3.00186e-19
-1.41126e-19
3.20968e-05
-3.09558e-19
-1.48999e-19
3.28287e-05
-3.17249e-19
-1.52515e-19
3.35731e-05
-3.18207e-19
-1.69737e-19
3.433e-05
-3.20998e-19
-1.75848e-19
3.50996e-05
-3.28216e-19
-1.81778e-19
3.58823e-05
-3.42995e-19
-1.76178e-19
3.66782e-05
-3.5084e-19
-1.794e-19
3.74875e-05
-3.57373e-19
-1.83023e-19
3.83104e-05
-3.67805e-19
-1.82591e-19
3.91473e-05
-3.74678e-19
-1.86987e-19
3.99982e-05
-3.83988e-19
-1.85063e-19
4.08635e-05
-3.8355e-19
-1.90564e-19
4.17435e-05
-3.9023e-19
-1.88251e-19
4.26382e-05
-3.9425e-19
-1.86864e-19
4.35481e-05
-4.07856e-19
-1.93826e-19
4.44734e-05
-4.08555e-19
-1.99346e-19
4.54143e-05
-4.15424e-19
-2.0466e-19
4.63711e-05
-4.30401e-19
-2.10871e-19
4.7344e-05
-4.24332e-19
-2.05348e-19
4.83334e-05
-4.26964e-19
-2.10557e-19
4.93396e-05
-4.29072e-19
-2.09359e-19
5.03628e-05
-4.36853e-19
-2.17678e-19
5.14033e-05
-4.38476e-19
-2.24779e-19
5.24614e-05
-4.47532e-19
-2.25109e-19
5.35374e-05
-4.42844e-19
-2.2923e-19
5.46317e-05
-4.50817e-19
-2.33965e-19
5.57445e-05
-4.50977e-19
-2.34732e-19
5.68761e-05
-4.51586e-19
-2.44261e-19
5.8027e-05
-4.54044e-19
-2.44227e-19
5.91973e-05
-4.60354e-19
-2.48726e-19
6.03876e-05
-4.67519e-19
-2.51677e-19
6.1598e-05
-4.7023e-19
-2.72632e-19
6.2829e-05
-4.74725e-19
-2.79626e-19
6.40809e-05
-4.82992e-19
-2.85365e-19
6.5354e-05
-4.86189e-19
-2.95232e-19
6.66488e-05
-4.80997e-19
-2.98563e-19
6.79655e-05
-4.80205e-19
-2.98023e-19
6.93046e-05
-4.8439e-19
-3.00706e-19
7.06665e-05
-5.00886e-19
-3.12331e-19
7.20516e-05
-5.05545e-19
-3.01221e-19
7.34601e-05
-5.11941e-19
-3.01273e-19
7.48927e-05
-5.17257e-19
-3.04548e-19
7.63495e-05
-5.00883e-19
-3.06271e-19
7.78312e-05
-5.19327e-19
-2.99217e-19
7.9338e-05
-5.184e-19
-3.07554e-19
8.08705e-05
-5.28931e-19
-3.23166e-19
8.2429e-05
-5.59323e-19
-3.33843e-19
8.40141e-05
-5.84868e-19
-3.31879e-19
8.56261e-05
-6.0492e-19
-3.58051e-19
8.72655e-05
-6.11026e-19
-3.47876e-19
8.89328e-05
-6.14285e-19
-3.5335e-19
9.06284e-05
-6.28091e-19
-3.68748e-19
9.23529e-05
-6.36006e-19
-3.67982e-19
9.41067e-05
-6.34888e-19
-3.67588e-19
9.58903e-05
-6.31694e-19
-3.71885e-19
9.77043e-05
-6.45853e-19
-3.78652e-19
9.9549e-05
-6.58328e-19
-3.89509e-19
0.000101425
-6.66252e-19
-3.99038e-19
0.000103333
-6.50294e-19
-3.93053e-19
0.000105274
-6.59976e-19
-3.84056e-19
0.000107247
-6.64591e-19
-3.74684e-19
0.000109254
-6.43275e-19
-3.81109e-19
0.000111295
-6.13025e-19
-3.82971e-19
0.000113371
-5.90311e-19
-3.92358e-19
0.000115481
-5.95865e-19
-4.06553e-19
0.000117628
-5.88392e-19
-4.05217e-19
0.000119811
-5.85941e-19
-4.08981e-19
0.000122031
-5.8602e-19
-4.15646e-19
0.000124289
-5.95441e-19
-4.20579e-19
0.000126585
-6.06739e-19
-3.88282e-19
0.00012892
-6.22936e-19
-3.90062e-19
0.000131295
-6.19543e-19
-3.98951e-19
0.000133709
-6.27713e-19
-4.12924e-19
0.000136165
-6.69893e-19
-3.81036e-19
0.000138662
-6.84807e-19
-4.13358e-19
0.000141201
-6.87927e-19
-4.39768e-19
0.000143783
-6.54416e-19
-4.54862e-19
0.000146409
-6.62186e-19
-4.78254e-19
0.00014908
-6.91136e-19
-4.74346e-19
0.000151795
-7.12652e-19
-4.98993e-19
0.000154556
-7.1438e-19
-4.98015e-19
0.000157364
-7.26665e-19
-4.99331e-19
0.000160219
-7.29574e-19
-4.6812e-19
0.000163122
-7.27679e-19
-4.60546e-19
0.000166074
-7.36203e-19
-4.76686e-19
0.000169076
-7.50196e-19
-4.85335e-19
0.000172128
-7.31675e-19
-4.74547e-19
0.000175232
-7.14769e-19
-5.10353e-19
0.000178387
-7.3543e-19
-4.91281e-19
0.000181596
-7.12168e-19
-5.17229e-19
0.000184859
-7.19377e-19
-5.26524e-19
0.000188176
-7.32652e-19
-5.36677e-19
0.000191549
-7.31624e-19
-5.20952e-19
0.000194978
-7.1661e-19
-5.43215e-19
0.000198464
-7.19393e-19
-5.25542e-19