/*--------------------------------*- C++ -*----------------------------------*\
| =========                 |                                                 |
| \\      /  F ield         | OpenFOAM: The Open Source CFD Toolbox           |
|  \\    /   O peration     | Version:  2106                                  |
|   \\  /    A nd           | Website:  www.openfoam.com                      |
|    \\/     M anipulation  |                                                 |
\*---------------------------------------------------------------------------*/
FoamFile
{
    version     2.0;
    format      ascii;
    arch        "LSB;label=32;scalar=64";
    class       volSymmTensorField;
    location    "17000";
    object      turbulenceProperties:R;
}
// * * * * * * * * * * * * * * * * * * * * * * * * * * * * * * * * * * * * * //

dimensions      [0 2 -2 0 0 0 0];

internalField   nonuniform List<symmTensor> 
2560
(
(1.90066e-08 -6.90222e-14 -9.99185e-17 1.90066e-08 1.24392e-27 1.90066e-08)
(1.90066e-08 -6.90222e-14 -9.99185e-17 1.90066e-08 4.35712e-29 1.90066e-08)
(2.86039e-09 -5.96971e-14 -2.60527e-16 2.86039e-09 1.17573e-28 2.86039e-09)
(2.86039e-09 -5.96971e-14 -2.60527e-16 2.86039e-09 2.86114e-29 2.86039e-09)
(1.33867e-09 -8.24087e-14 -4.94666e-16 1.33867e-09 1.41699e-28 1.33867e-09)
(1.33867e-09 -8.24087e-14 -4.94666e-16 1.33867e-09 2.99898e-30 1.33867e-09)
(2.22114e-09 -2.89925e-13 -1.76561e-15 2.22114e-09 4.05677e-28 2.22114e-09)
(2.22114e-09 -2.89925e-13 -1.76561e-15 2.22114e-09 1.07957e-29 2.22114e-09)
(5.07032e-09 -1.16754e-12 -7.21353e-15 5.07032e-09 1.16285e-27 5.07032e-09)
(5.07032e-09 -1.16754e-12 -7.21353e-15 5.07032e-09 4.45717e-29 5.07032e-09)
(1.05629e-08 -3.82942e-12 -2.40037e-14 1.05629e-08 3.75066e-27 1.05629e-08)
(1.05629e-08 -3.82942e-12 -2.40037e-14 1.05629e-08 1.49897e-28 1.05629e-08)
(1.96786e-08 -1.04076e-11 -6.61857e-14 1.96786e-08 1.03744e-26 1.96786e-08)
(1.96786e-08 -1.04076e-11 -6.61857e-14 1.96786e-08 4.17778e-28 1.96786e-08)
(3.35833e-08 -2.45429e-11 -1.58347e-13 3.35833e-08 2.50979e-26 3.35833e-08)
(3.35833e-08 -2.45429e-11 -1.58347e-13 3.35833e-08 1.00988e-27 3.35833e-08)
(5.36085e-08 -5.19917e-11 -3.40319e-13 5.36085e-08 5.44785e-26 5.36085e-08)
(5.36085e-08 -5.19917e-11 -3.40319e-13 5.36085e-08 2.19081e-27 5.36085e-08)
(8.12508e-08 -1.01362e-10 -6.73127e-13 8.12508e-08 1.08359e-25 8.12508e-08)
(8.12508e-08 -1.01362e-10 -6.73127e-13 8.12508e-08 4.38146e-27 8.12508e-08)
(1.18178e-07 -1.85001e-10 -1.24642e-12 1.18178e-07 2.01641e-25 1.18178e-07)
(1.18178e-07 -1.85001e-10 -1.24642e-12 1.18178e-07 8.19351e-27 1.18178e-07)
(1.66238e-07 -3.20048e-10 -2.18763e-12 1.66238e-07 3.55455e-25 1.66238e-07)
(1.66238e-07 -3.20048e-10 -2.18763e-12 1.66238e-07 1.45098e-26 1.66238e-07)
(2.27468e-07 -5.29683e-10 -3.67319e-12 2.27468e-07 5.99114e-25 2.27468e-07)
(2.27468e-07 -5.29683e-10 -3.67319e-12 2.27468e-07 2.46054e-26 2.27468e-07)
(3.04107e-07 -8.44586e-10 -5.9421e-12 3.04107e-07 9.72662e-25 3.04107e-07)
(3.04107e-07 -8.44586e-10 -5.9421e-12 3.04107e-07 4.01088e-26 3.04107e-07)
(3.98608e-07 -1.30465e-09 -9.31236e-12 3.98608e-07 1.52961e-24 3.98608e-07)
(3.98608e-07 -1.30465e-09 -9.31236e-12 3.98608e-07 6.33275e-26 3.98608e-07)
(5.13651e-07 -1.96097e-09 -1.42006e-11 5.13651e-07 2.34031e-24 5.13651e-07)
(5.13651e-07 -1.96097e-09 -1.42006e-11 5.13651e-07 9.72815e-26 5.13651e-07)
(6.52157e-07 -2.87814e-09 -2.11454e-11 6.52157e-07 3.49664e-24 6.52157e-07)
(6.52157e-07 -2.87814e-09 -2.11454e-11 6.52157e-07 1.45634e-25 6.52157e-07)
(8.17305e-07 -4.13689e-09 -3.08351e-11 8.17305e-07 5.11594e-24 8.17305e-07)
(8.17305e-07 -4.13689e-09 -3.08351e-11 8.17305e-07 2.13997e-25 8.17305e-07)
(1.01254e-06 -5.83714e-09 -4.41409e-11 1.01254e-06 7.34678e-24 1.01254e-06)
(1.01254e-06 -5.83714e-09 -4.41409e-11 1.01254e-06 3.07914e-25 1.01254e-06)
(1.24162e-06 -8.10151e-09 -6.21548e-11 1.24162e-06 1.03786e-23 1.24162e-06)
(1.24162e-06 -8.10151e-09 -6.21548e-11 1.24162e-06 4.35775e-25 1.24162e-06)
(1.50857e-06 -1.10792e-08 -8.62358e-11 1.50857e-06 1.44473e-23 1.50857e-06)
(1.50857e-06 -1.10792e-08 -8.62358e-11 1.50857e-06 6.0951e-25 1.50857e-06)
(1.81778e-06 -1.49508e-08 -1.18062e-10 1.81778e-06 1.98417e-23 1.81778e-06)
(1.81778e-06 -1.49508e-08 -1.18062e-10 1.81778e-06 8.41258e-25 1.81778e-06)
(2.17398e-06 -1.99329e-08 -1.59693e-10 2.17398e-06 2.69192e-23 2.17398e-06)
(2.17398e-06 -1.99329e-08 -1.59693e-10 2.17398e-06 1.14554e-24 2.17398e-06)
(2.58225e-06 -2.62846e-08 -2.13641e-10 2.58225e-06 3.61236e-23 2.58225e-06)
(2.58225e-06 -2.62846e-08 -2.13641e-10 2.58225e-06 1.5396e-24 2.58225e-06)
(3.04809e-06 -3.43135e-08 -2.82955e-10 3.04809e-06 4.79954e-23 3.04809e-06)
(3.04809e-06 -3.43135e-08 -2.82955e-10 3.04809e-06 2.05084e-24 3.04809e-06)
(3.5774e-06 -4.43836e-08 -3.71316e-10 3.5774e-06 6.31685e-23 3.5774e-06)
(3.5774e-06 -4.43836e-08 -3.71316e-10 3.5774e-06 2.7066e-24 3.5774e-06)
(4.17652e-06 -5.69234e-08 -4.83149e-10 4.17652e-06 8.24342e-23 4.17652e-06)
(4.17652e-06 -5.69234e-08 -4.83149e-10 4.17652e-06 3.53497e-24 4.17652e-06)
(4.85228e-06 -7.24355e-08 -6.23749e-10 4.85228e-06 1.0674e-22 4.85228e-06)
(4.85228e-06 -7.24355e-08 -6.23749e-10 4.85228e-06 4.58971e-24 4.85228e-06)
(5.61197e-06 -9.1507e-08 -7.99431e-10 5.61197e-06 1.37197e-22 5.61197e-06)
(5.61197e-06 -9.1507e-08 -7.99431e-10 5.61197e-06 5.93283e-24 5.61197e-06)
(6.46344e-06 -1.14821e-07 -1.0177e-09 6.46344e-06 1.75153e-22 6.46344e-06)
(6.46344e-06 -1.14821e-07 -1.0177e-09 6.46344e-06 7.59316e-24 6.46344e-06)
(7.41508e-06 -1.43172e-07 -1.28742e-09 7.41508e-06 2.2223e-22 7.41508e-06)
(7.41508e-06 -1.43172e-07 -1.28742e-09 7.41508e-06 9.62537e-24 7.41508e-06)
(8.47589e-06 -1.77476e-07 -1.61909e-09 8.47589e-06 2.80299e-22 8.47589e-06)
(8.47589e-06 -1.77476e-07 -1.61909e-09 8.47589e-06 1.21197e-23 8.47589e-06)
(9.65547e-06 -2.18793e-07 -2.02504e-09 9.65547e-06 4.59161e-22 9.65547e-06)
(9.65547e-06 -2.18793e-07 -2.02504e-09 9.65547e-06 1.5128e-23 9.65547e-06)
(1.09641e-05 -2.68339e-07 -2.51972e-09 1.09641e-05 7.1572e-22 1.09641e-05)
(1.09641e-05 -2.68339e-07 -2.51972e-09 1.09641e-05 1.87245e-23 1.09641e-05)
(1.24128e-05 -3.27513e-07 -3.12008e-09 1.24128e-05 9.0284e-22 1.24128e-05)
(1.24128e-05 -3.27513e-07 -3.12008e-09 1.24128e-05 2.31771e-23 1.24128e-05)
(1.40131e-05 -3.97914e-07 -3.84586e-09 1.40131e-05 1.11821e-21 1.40131e-05)
(1.40131e-05 -3.97914e-07 -3.84586e-09 1.40131e-05 2.86834e-23 1.40131e-05)
(1.57777e-05 -4.81366e-07 -4.72007e-09 1.57777e-05 1.37892e-21 1.57777e-05)
(1.57777e-05 -4.81366e-07 -4.72007e-09 1.57777e-05 3.53422e-23 1.57777e-05)
(1.77199e-05 -5.79952e-07 -5.76943e-09 1.77199e-05 1.69321e-21 1.77199e-05)
(1.77199e-05 -5.79952e-07 -5.76943e-09 1.77199e-05 4.31418e-23 1.77199e-05)
(1.98538e-05 -6.96037e-07 -7.0249e-09 1.98538e-05 2.07072e-21 1.98538e-05)
(1.98538e-05 -6.96037e-07 -7.0249e-09 1.98538e-05 5.20619e-23 1.98538e-05)
(2.21945e-05 -8.32304e-07 -8.52231e-09 2.21945e-05 2.52242e-21 2.21945e-05)
(2.21945e-05 -8.32304e-07 -8.52231e-09 2.21945e-05 6.30672e-23 2.21945e-05)
(2.47581e-05 -9.91791e-07 -1.0303e-08 2.47581e-05 3.06084e-21 2.47581e-05)
(2.47581e-05 -9.91791e-07 -1.0303e-08 2.47581e-05 7.65947e-23 2.47581e-05)
(2.75616e-05 -1.17793e-06 -1.24145e-08 2.75616e-05 3.70194e-21 2.75616e-05)
(2.75616e-05 -1.17793e-06 -1.24145e-08 2.75616e-05 9.22447e-23 2.75616e-05)
(3.06233e-05 -1.3946e-06 -1.49117e-08 3.06233e-05 4.46312e-21 3.06233e-05)
(3.06233e-05 -1.3946e-06 -1.49117e-08 3.06233e-05 1.10784e-22 3.06233e-05)
(3.39624e-05 -1.64615e-06 -1.78572e-08 3.39624e-05 5.36352e-21 3.39624e-05)
(3.39624e-05 -1.64615e-06 -1.78572e-08 3.39624e-05 1.33281e-22 3.39624e-05)
(3.75993e-05 -1.93749e-06 -2.13231e-08 3.75993e-05 6.4255e-21 3.75993e-05)
(3.75993e-05 -1.93749e-06 -2.13231e-08 3.75993e-05 1.5984e-22 3.75993e-05)
(4.15557e-05 -2.27411e-06 -2.53914e-08 4.15557e-05 7.6748e-21 4.15557e-05)
(4.15557e-05 -2.27411e-06 -2.53914e-08 4.15557e-05 1.89857e-22 4.15557e-05)
(4.58547e-05 -2.66216e-06 -3.01561e-08 4.58547e-05 7.91633e-21 4.58547e-05)
(4.58547e-05 -2.66216e-06 -3.01561e-08 4.58547e-05 2.24768e-22 4.58547e-05)
(5.05204e-05 -3.10851e-06 -3.5724e-08 5.05204e-05 5.76137e-21 5.05204e-05)
(5.05204e-05 -3.10851e-06 -3.5724e-08 5.05204e-05 2.62637e-22 5.05204e-05)
(5.55787e-05 -3.62084e-06 -4.22164e-08 5.55787e-05 4.20153e-21 5.55787e-05)
(5.55787e-05 -3.62084e-06 -4.22164e-08 5.55787e-05 3.03325e-22 5.55787e-05)
(6.10567e-05 -4.20769e-06 -4.97715e-08 6.10567e-05 4.85582e-21 6.10567e-05)
(6.10567e-05 -4.20769e-06 -4.97715e-08 6.10567e-05 3.51849e-22 6.10567e-05)
(6.69833e-05 -4.87856e-06 -5.85453e-08 6.69833e-05 5.59904e-21 6.69833e-05)
(6.69833e-05 -4.87856e-06 -5.85453e-08 6.69833e-05 4.1336e-22 6.69833e-05)
(7.33887e-05 -5.64397e-06 -6.87146e-08 7.33887e-05 6.44403e-21 7.33887e-05)
(7.33887e-05 -5.64397e-06 -6.87146e-08 7.33887e-05 4.87699e-22 7.33887e-05)
(8.0305e-05 -6.51561e-06 -8.04789e-08 8.0305e-05 7.3947e-21 8.0305e-05)
(8.0305e-05 -6.51561e-06 -8.04789e-08 8.0305e-05 5.67221e-22 8.0305e-05)
(8.77658e-05 -7.50637e-06 -9.4063e-08 8.77658e-05 8.45876e-21 8.77658e-05)
(8.77658e-05 -7.50637e-06 -9.4063e-08 8.77658e-05 6.55374e-22 8.77658e-05)
(9.58066e-05 -8.63048e-06 -1.0972e-07 9.58066e-05 9.66352e-21 9.58066e-05)
(9.58066e-05 -8.63048e-06 -1.0972e-07 9.58066e-05 7.57761e-22 9.58066e-05)
(0.000104465 -9.90362e-06 -1.27734e-07 0.000104465 1.10288e-20 0.000104465)
(0.000104465 -9.90362e-06 -1.27734e-07 0.000104465 8.76814e-22 0.000104465)
(0.000113779 -1.1343e-05 -1.48422e-07 0.000113779 1.25315e-20 0.000113779)
(0.000113779 -1.1343e-05 -1.48422e-07 0.000113779 1.01825e-21 0.000113779)
(0.000123791 -1.29675e-05 -1.72142e-07 0.000123791 1.41915e-20 0.000123791)
(0.000123791 -1.29675e-05 -1.72142e-07 0.000123791 1.1756e-21 0.000123791)
(0.000134544 -1.47978e-05 -1.9929e-07 0.000134544 1.60535e-20 0.000134544)
(0.000134544 -1.47978e-05 -1.9929e-07 0.000134544 1.33721e-21 0.000134544)
(0.000146083 -1.68565e-05 -2.30309e-07 0.000146083 1.81175e-20 0.000146083)
(0.000146083 -1.68565e-05 -2.30309e-07 0.000146083 1.51256e-21 0.000146083)
(0.000158453 -1.91681e-05 -2.6569e-07 0.000158453 2.04208e-20 0.000158453)
(0.000158453 -1.91681e-05 -2.6569e-07 0.000158453 1.71651e-21 0.000158453)
(0.000171706 -2.17592e-05 -3.05981e-07 0.000171706 2.29312e-20 0.000171706)
(0.000171706 -2.17592e-05 -3.05981e-07 0.000171706 1.97128e-21 0.000171706)
(0.000185891 -2.46588e-05 -3.51784e-07 0.000185891 2.56927e-20 0.000185891)
(0.000185891 -2.46588e-05 -3.51784e-07 0.000185891 2.22537e-21 0.000185891)
(0.000201062 -2.78982e-05 -4.03766e-07 0.000201062 2.8749e-20 0.000201062)
(0.000201062 -2.78982e-05 -4.03766e-07 0.000201062 2.47375e-21 0.000201062)
(0.000217273 -3.15109e-05 -4.62662e-07 0.000217273 3.20111e-20 0.000217273)
(0.000217273 -3.15109e-05 -4.62662e-07 0.000217273 2.84365e-21 0.000217273)
(0.000234582 -3.55331e-05 -5.29276e-07 0.000234582 3.55205e-20 0.000234582)
(0.000234582 -3.55331e-05 -5.29276e-07 0.000234582 3.21838e-21 0.000234582)
(0.000253048 -4.00035e-05 -6.04494e-07 0.000253048 3.94615e-20 0.000253048)
(0.000253048 -4.00035e-05 -6.04494e-07 0.000253048 3.58944e-21 0.000253048)
(0.000272729 -4.49633e-05 -6.89278e-07 0.000272729 4.37328e-20 0.000272729)
(0.000272729 -4.49633e-05 -6.89278e-07 0.000272729 3.98837e-21 0.000272729)
(0.00029369 -5.04564e-05 -7.84679e-07 0.00029369 4.81515e-20 0.00029369)
(0.00029369 -5.04564e-05 -7.84679e-07 0.00029369 4.3345e-21 0.00029369)
(0.000315992 -5.65292e-05 -8.91838e-07 0.000315992 5.28892e-20 0.000315992)
(0.000315992 -5.65292e-05 -8.91838e-07 0.000315992 4.8022e-21 0.000315992)
(0.000339702 -6.32306e-05 -1.01199e-06 0.000339702 5.79082e-20 0.000339702)
(0.000339702 -6.32306e-05 -1.01199e-06 0.000339702 5.40983e-21 0.000339702)
(0.000364884 -7.0612e-05 -1.14646e-06 0.000364884 6.30295e-20 0.000364884)
(0.000364884 -7.0612e-05 -1.14646e-06 0.000364884 6.05912e-21 0.000364884)
(0.000391605 -7.87269e-05 -1.29668e-06 0.000391605 6.84198e-20 0.000391605)
(0.000391605 -7.87269e-05 -1.29668e-06 0.000391605 6.59989e-21 0.000391605)
(0.000419932 -8.76312e-05 -1.46417e-06 0.000419932 7.40875e-20 0.000419932)
(0.000419932 -8.76312e-05 -1.46417e-06 0.000419932 7.20232e-21 0.000419932)
(0.000449933 -9.73823e-05 -1.65058e-06 0.000449933 7.99182e-20 0.000449933)
(0.000449933 -9.73823e-05 -1.65058e-06 0.000449933 7.86778e-21 0.000449933)
(0.000481675 -0.000108039 -1.85762e-06 0.000481675 8.59145e-20 0.000481675)
(0.000481675 -0.000108039 -1.85762e-06 0.000481675 8.60068e-21 0.000481675)
(0.000515223 -0.000119662 -2.08712e-06 0.000515223 9.19057e-20 0.000515223)
(0.000515223 -0.000119662 -2.08712e-06 0.000515223 9.55799e-21 0.000515223)
(0.000550644 -0.000132312 -2.34101e-06 0.000550644 9.79709e-20 0.000550644)
(0.000550644 -0.000132312 -2.34101e-06 0.000550644 1.02441e-20 0.000550644)
(0.000588 -0.000146051 -2.62129e-06 0.000588 1.04273e-19 0.000588)
(0.000588 -0.000146051 -2.62129e-06 0.000588 1.04476e-20 0.000588)
(0.000627353 -0.000160939 -2.93005e-06 0.000627353 1.10622e-19 0.000627353)
(0.000627353 -0.000160939 -2.93005e-06 0.000627353 1.11756e-20 0.000627353)
(0.000668763 -0.000177035 -3.26945e-06 0.000668763 1.16166e-19 0.000668763)
(0.000668763 -0.000177035 -3.26945e-06 0.000668763 1.25651e-20 0.000668763)
(0.000712284 -0.000194399 -3.64171e-06 0.000712284 1.20163e-19 0.000712284)
(0.000712284 -0.000194399 -3.64171e-06 0.000712284 1.36008e-20 0.000712284)
(0.000757968 -0.000213087 -4.04911e-06 0.000757968 1.23828e-19 0.000757968)
(0.000757968 -0.000213087 -4.04911e-06 0.000757968 1.35743e-20 0.000757968)
(0.000805863 -0.000233151 -4.49395e-06 0.000805863 1.27703e-19 0.000805863)
(0.000805863 -0.000233151 -4.49395e-06 0.000805863 1.34032e-20 0.000805863)
(0.00085601 -0.00025464 -4.97854e-06 0.00085601 1.30453e-19 0.00085601)
(0.00085601 -0.00025464 -4.97854e-06 0.00085601 1.44253e-20 0.00085601)
(0.000908444 -0.000277599 -5.50522e-06 0.000908444 1.31051e-19 0.000908444)
(0.000908444 -0.000277599 -5.50522e-06 0.000908444 1.56191e-20 0.000908444)
(0.000963195 -0.000302066 -6.07626e-06 0.000963195 1.29835e-19 0.000963195)
(0.000963195 -0.000302066 -6.07626e-06 0.000963195 1.68148e-20 0.000963195)
(0.00102029 -0.000328074 -6.69392e-06 0.00102029 1.28907e-19 0.00102029)
(0.00102029 -0.000328074 -6.69392e-06 0.00102029 1.66359e-20 0.00102029)
(0.00107973 -0.00035565 -7.3604e-06 0.00107973 1.28098e-19 0.00107973)
(0.00107973 -0.00035565 -7.3604e-06 0.00107973 1.61097e-20 0.00107973)
(0.00114153 -0.00038481 -8.07779e-06 0.00114153 1.24093e-19 0.00114153)
(0.00114153 -0.00038481 -8.07779e-06 0.00114153 1.63672e-20 0.00114153)
(0.00120569 -0.000415564 -8.84809e-06 0.00120569 1.16992e-19 0.00120569)
(0.00120569 -0.000415564 -8.84809e-06 0.00120569 1.57862e-20 0.00120569)
(0.0012722 -0.000447914 -9.67316e-06 0.0012722 1.04927e-19 0.0012722)
(0.0012722 -0.000447914 -9.67316e-06 0.0012722 1.59266e-20 0.0012722)
(0.00134103 -0.000481851 -1.05547e-05 0.00134103 8.72071e-20 0.00134103)
(0.00134103 -0.000481851 -1.05547e-05 0.00134103 1.57255e-20 0.00134103)
(0.00141214 -0.000517357 -1.14943e-05 0.00141214 6.58592e-20 0.00141214)
(0.00141214 -0.000517357 -1.14943e-05 0.00141214 1.69515e-20 0.00141214)
(0.00148551 -0.000554405 -1.24933e-05 0.00148551 3.59975e-20 0.00148551)
(0.00148551 -0.000554405 -1.24933e-05 0.00148551 2.19873e-20 0.00148551)
(0.00156108 -0.000592958 -1.35528e-05 0.00156108 1.59874e-20 0.00156108)
(0.00156108 -0.000592958 -1.35528e-05 0.00156108 2.59475e-20 0.00156108)
(0.00163878 -0.000632969 -1.46738e-05 0.00163878 -1.68618e-20 0.00163878)
(0.00163878 -0.000632969 -1.46738e-05 0.00163878 9.97638e-20 0.00163878)
(0.00171855 -0.000674384 -1.58571e-05 0.00171855 -4.76733e-20 0.00171855)
(0.00171855 -0.000674384 -1.58571e-05 0.00171855 1.46981e-19 0.00171855)
(0.00180031 -0.000717137 -1.71031e-05 0.00180031 -8.84972e-20 0.00180031)
(0.00180031 -0.000717137 -1.71031e-05 0.00180031 1.66585e-19 0.00180031)
(0.00188395 -0.000761156 -1.8412e-05 0.00188395 -1.33466e-19 0.00188395)
(0.00188395 -0.000761156 -1.8412e-05 0.00188395 1.85289e-19 0.00188395)
(0.0019694 -0.000806362 -1.9784e-05 0.0019694 -1.71777e-19 0.0019694)
(0.0019694 -0.000806362 -1.9784e-05 0.0019694 2.04433e-19 0.0019694)
(0.00205653 -0.000852668 -2.12189e-05 0.00205653 -2.13133e-19 0.00205653)
(0.00205653 -0.000852668 -2.12189e-05 0.00205653 2.25208e-19 0.00205653)
(0.00214524 -0.000899982 -2.27163e-05 0.00214524 -2.61467e-19 0.00214524)
(0.00214524 -0.000899982 -2.27163e-05 0.00214524 2.49424e-19 0.00214524)
(0.0022354 -0.000948206 -2.42755e-05 0.0022354 -3.10682e-19 0.0022354)
(0.0022354 -0.000948206 -2.42755e-05 0.0022354 2.69069e-19 0.0022354)
(0.00232689 -0.000997241 -2.58959e-05 0.00232689 -3.67376e-19 0.00232689)
(0.00232689 -0.000997241 -2.58959e-05 0.00232689 2.91883e-19 0.00232689)
(0.00241959 -0.00104698 -2.75764e-05 0.00241959 -4.3178e-19 0.00241959)
(0.00241959 -0.00104698 -2.75764e-05 0.00241959 3.18216e-19 0.00241959)
(0.00251334 -0.00109732 -2.93159e-05 0.00251334 -4.96753e-19 0.00251334)
(0.00251334 -0.00109732 -2.93159e-05 0.00251334 3.45806e-19 0.00251334)
(0.00260803 -0.00114816 -3.11133e-05 0.00260803 -5.67242e-19 0.00260803)
(0.00260803 -0.00114816 -3.11133e-05 0.00260803 3.83563e-19 0.00260803)
(0.0027035 -0.00119939 -3.2967e-05 0.0027035 -6.22357e-19 0.0027035)
(0.0027035 -0.00119939 -3.2967e-05 0.0027035 4.20451e-19 0.0027035)
(0.00279962 -0.0012509 -3.48757e-05 0.00279962 -6.6368e-19 0.00279962)
(0.00279962 -0.0012509 -3.48757e-05 0.00279962 4.53035e-19 0.00279962)
(0.00289625 -0.00130259 -3.68378e-05 0.00289625 -7.18418e-19 0.00289625)
(0.00289625 -0.00130259 -3.68378e-05 0.00289625 4.86788e-19 0.00289625)
(0.00299324 -0.00135436 -3.88516e-05 0.00299324 -7.80257e-19 0.00299324)
(0.00299324 -0.00135436 -3.88516e-05 0.00299324 5.2556e-19 0.00299324)
(0.00309047 -0.00140612 -4.09156e-05 0.00309047 -8.52425e-19 0.00309047)
(0.00309047 -0.00140612 -4.09156e-05 0.00309047 5.71864e-19 0.00309047)
(0.00318778 -0.00145776 -4.30279e-05 0.00318778 -9.26904e-19 0.00318778)
(0.00318778 -0.00145776 -4.30279e-05 0.00318778 6.10205e-19 0.00318778)
(0.00328506 -0.00150921 -4.5187e-05 0.00328506 -9.84824e-19 0.00328506)
(0.00328506 -0.00150921 -4.5187e-05 0.00328506 6.54686e-19 0.00328506)
(0.00338218 -0.00156037 -4.73912e-05 0.00338218 -1.06258e-18 0.00338218)
(0.00338218 -0.00156037 -4.73912e-05 0.00338218 7.08189e-19 0.00338218)
(0.003479 -0.00161118 -4.96387e-05 0.003479 -1.12763e-18 0.003479)
(0.003479 -0.00161118 -4.96387e-05 0.003479 7.49143e-19 0.003479)
(0.00357541 -0.00166154 -5.1928e-05 0.00357541 -1.19346e-18 0.00357541)
(0.00357541 -0.00166154 -5.1928e-05 0.00357541 7.92922e-19 0.00357541)
(0.00367129 -0.0017114 -5.42575e-05 0.00367129 -1.33317e-18 0.00367129)
(0.00367129 -0.0017114 -5.42575e-05 0.00367129 8.55212e-19 0.00367129)
(0.00376654 -0.0017607 -5.66256e-05 0.00376654 -1.42e-18 0.00376654)
(0.00376654 -0.0017607 -5.66256e-05 0.00376654 9.32819e-19 0.00376654)
(0.00386105 -0.00180936 -5.90308e-05 0.00386105 -1.49433e-18 0.00386105)
(0.00386105 -0.00180936 -5.90308e-05 0.00386105 9.92455e-19 0.00386105)
(0.00395472 -0.00185736 -6.14718e-05 0.00395472 -1.62238e-18 0.00395472)
(0.00395472 -0.00185736 -6.14718e-05 0.00395472 1.05595e-18 0.00395472)
(0.00404747 -0.00190462 -6.39472e-05 0.00404747 -1.72166e-18 0.00404747)
(0.00404747 -0.00190462 -6.39472e-05 0.00404747 1.14489e-18 0.00404747)
(0.0041392 -0.00195113 -6.64558e-05 0.0041392 -1.75199e-18 0.0041392)
(0.0041392 -0.00195113 -6.64558e-05 0.0041392 1.22372e-18 0.0041392)
(0.00422984 -0.00199683 -6.89964e-05 0.00422984 -1.7936e-18 0.00422984)
(0.00422984 -0.00199683 -6.89964e-05 0.00422984 1.29263e-18 0.00422984)
(0.00431932 -0.00204169 -7.15678e-05 0.00431932 -1.8536e-18 0.00431932)
(0.00431932 -0.00204169 -7.15678e-05 0.00431932 1.36349e-18 0.00431932)
(0.00440757 -0.00208569 -7.41691e-05 0.00440757 -1.87767e-18 0.00440757)
(0.00440757 -0.00208569 -7.41691e-05 0.00440757 1.44496e-18 0.00440757)
(0.00449453 -0.00212881 -7.67993e-05 0.00449453 -1.93871e-18 0.00449453)
(0.00449453 -0.00212881 -7.67993e-05 0.00449453 1.53113e-18 0.00449453)
(0.00458014 -0.00217103 -7.94576e-05 0.00458014 -1.92015e-18 0.00458014)
(0.00458014 -0.00217103 -7.94576e-05 0.00458014 1.637e-18 0.00458014)
(0.00466436 -0.00221232 -8.21432e-05 0.00466436 -1.8578e-18 0.00466436)
(0.00466436 -0.00221232 -8.21432e-05 0.00466436 1.74114e-18 0.00466436)
(0.00474713 -0.00225268 -8.48553e-05 0.00474713 -1.88105e-18 0.00474713)
(0.00474713 -0.00225268 -8.48553e-05 0.00474713 1.79921e-18 0.00474713)
(0.00482843 -0.00229211 -8.75934e-05 0.00482843 -1.93213e-18 0.00482843)
(0.00482843 -0.00229211 -8.75934e-05 0.00482843 1.85336e-18 0.00482843)
(0.00490822 -0.00233058 -9.03568e-05 0.00490822 -1.9972e-18 0.00490822)
(0.00490822 -0.00233058 -9.03568e-05 0.00490822 1.98711e-18 0.00490822)
(0.00498647 -0.00236811 -9.31451e-05 0.00498647 -2.03155e-18 0.00498647)
(0.00498647 -0.00236811 -9.31451e-05 0.00498647 2.14815e-18 0.00498647)
(0.00506316 -0.00240468 -9.59578e-05 0.00506316 -1.95628e-18 0.00506316)
(0.00506316 -0.00240468 -9.59578e-05 0.00506316 2.22737e-18 0.00506316)
(0.00513826 -0.00244031 -9.87946e-05 0.00513826 -2.04599e-18 0.00513826)
(0.00513826 -0.00244031 -9.87946e-05 0.00513826 2.33437e-18 0.00513826)
(0.00521177 -0.00247499 -0.000101655 0.00521177 -2.17858e-18 0.00521177)
(0.00521177 -0.00247499 -0.000101655 0.00521177 2.48281e-18 0.00521177)
(0.00528366 -0.00250873 -0.000104539 0.00528366 -2.16992e-18 0.00528366)
(0.00528366 -0.00250873 -0.000104539 0.00528366 2.58004e-18 0.00528366)
(0.00535393 -0.00254154 -0.000107446 0.00535393 -2.16909e-18 0.00535393)
(0.00535393 -0.00254154 -0.000107446 0.00535393 2.66946e-18 0.00535393)
(0.00542258 -0.00257342 -0.000110377 0.00542258 -2.03607e-18 0.00542258)
(0.00542258 -0.00257342 -0.000110377 0.00542258 2.8325e-18 0.00542258)
(0.00548959 -0.00260439 -0.00011333 0.00548959 -1.97166e-18 0.00548959)
(0.00548959 -0.00260439 -0.00011333 0.00548959 3.04991e-18 0.00548959)
(0.00555498 -0.00263445 -0.000116307 0.00555498 -1.95628e-18 0.00555498)
(0.00555498 -0.00263445 -0.000116307 0.00555498 3.12907e-18 0.00555498)
(0.00561874 -0.00266361 -0.000119306 0.00561874 -1.87683e-18 0.00561874)
(0.00561874 -0.00266361 -0.000119306 0.00561874 3.26722e-18 0.00561874)
(0.00568088 -0.0026919 -0.000122328 0.00568088 -1.84326e-18 0.00568088)
(0.00568088 -0.0026919 -0.000122328 0.00568088 3.45834e-18 0.00568088)
(0.00574141 -0.00271931 -0.000125373 0.00574141 -1.79682e-18 0.00574141)
(0.00574141 -0.00271931 -0.000125373 0.00574141 3.55554e-18 0.00574141)
(0.00580033 -0.00274587 -0.000128441 0.00580033 -1.84421e-18 0.00580033)
(0.00580033 -0.00274587 -0.000128441 0.00580033 3.69785e-18 0.00580033)
(0.00585766 -0.00277159 -0.000131532 0.00585766 -1.8033e-18 0.00585766)
(0.00585766 -0.00277159 -0.000131532 0.00585766 3.93849e-18 0.00585766)
(0.0059134 -0.00279648 -0.000134646 0.0059134 -1.67199e-18 0.0059134)
(0.0059134 -0.00279648 -0.000134646 0.0059134 4.07932e-18 0.0059134)
(0.00596758 -0.00282056 -0.000137784 0.00596758 -1.78383e-18 0.00596758)
(0.00596758 -0.00282056 -0.000137784 0.00596758 4.24284e-18 0.00596758)
(0.0060202 -0.00284383 -0.000140945 0.0060202 -1.88124e-18 0.0060202)
(0.0060202 -0.00284383 -0.000140945 0.0060202 4.44834e-18 0.0060202)
(0.00607129 -0.00286633 -0.00014413 0.00607129 -1.78005e-18 0.00607129)
(0.00607129 -0.00286633 -0.00014413 0.00607129 4.73734e-18 0.00607129)
(0.00612085 -0.00288805 -0.000147338 0.00612085 -1.68432e-18 0.00612085)
(0.00612085 -0.00288805 -0.000147338 0.00612085 4.90848e-18 0.00612085)
(0.00616891 -0.00290902 -0.00015057 0.00616891 -1.6951e-18 0.00616891)
(0.00616891 -0.00290902 -0.00015057 0.00616891 5.13022e-18 0.00616891)
(0.00621548 -0.00292925 -0.000153827 0.00621548 -1.41895e-18 0.00621548)
(0.00621548 -0.00292925 -0.000153827 0.00621548 5.4262e-18 0.00621548)
(0.00626059 -0.00294876 -0.000157108 0.00626059 -1.07736e-18 0.00626059)
(0.00626059 -0.00294876 -0.000157108 0.00626059 5.68821e-18 0.00626059)
(0.00630425 -0.00296755 -0.000160413 0.00630425 -9.49317e-19 0.00630425)
(0.00630425 -0.00296755 -0.000160413 0.00630425 6.0007e-18 0.00630425)
(0.00634648 -0.00298564 -0.000163744 0.00634648 -8.96732e-19 0.00634648)
(0.00634648 -0.00298564 -0.000163744 0.00634648 6.17591e-18 0.00634648)
(0.0063873 -0.00300306 -0.0001671 0.0063873 -8.72111e-19 0.0063873)
(0.0063873 -0.00300306 -0.0001671 0.0063873 6.22298e-18 0.0063873)
(0.00642674 -0.0030198 -0.000170481 0.00642674 -6.71146e-19 0.00642674)
(0.00642674 -0.0030198 -0.000170481 0.00642674 6.47728e-18 0.00642674)
(0.00646481 -0.00303589 -0.000173887 0.00646481 -2.05121e-19 0.00646481)
(0.00646481 -0.00303589 -0.000173887 0.00646481 6.96107e-18 0.00646481)
(0.00650152 -0.00305134 -0.00017732 0.00650152 3.14945e-19 0.00650152)
(0.00650152 -0.00305134 -0.00017732 0.00650152 7.08354e-18 0.00650152)
(0.00653692 -0.00306616 -0.000180778 0.00653692 2.92313e-19 0.00653692)
(0.00653692 -0.00306616 -0.000180778 0.00653692 7.21089e-18 0.00653692)
(0.006571 -0.00308036 -0.000184263 0.006571 5.36322e-20 0.006571)
(0.006571 -0.00308036 -0.000184263 0.006571 7.49892e-18 0.006571)
(0.0066038 -0.00309396 -0.000187774 0.0066038 1.84256e-19 0.0066038)
(0.0066038 -0.00309396 -0.000187774 0.0066038 7.76421e-18 0.0066038)
(0.00663533 -0.00310697 -0.000191313 0.00663533 3.04067e-19 0.00663533)
(0.00663533 -0.00310697 -0.000191313 0.00663533 8.02316e-18 0.00663533)
(0.00666562 -0.0031194 -0.000194878 0.00666562 4.18393e-19 0.00666562)
(0.00666562 -0.0031194 -0.000194878 0.00666562 8.35985e-18 0.00666562)
(0.00669467 -0.00313126 -0.000198471 0.00669467 5.01856e-19 0.00669467)
(0.00669467 -0.00313126 -0.000198471 0.00669467 8.64544e-18 0.00669467)
(0.00672252 -0.00314256 -0.000202091 0.00672252 4.54966e-19 0.00672252)
(0.00672252 -0.00314256 -0.000202091 0.00672252 8.90785e-18 0.00672252)
(0.00674918 -0.00315332 -0.000205739 0.00674918 3.81627e-19 0.00674918)
(0.00674918 -0.00315332 -0.000205739 0.00674918 9.44221e-18 0.00674918)
(0.00677467 -0.00316354 -0.000209415 0.00677467 4.43681e-19 0.00677467)
(0.00677467 -0.00316354 -0.000209415 0.00677467 9.59933e-18 0.00677467)
(0.006799 -0.00317324 -0.000213119 0.006799 2.1141e-19 0.006799)
(0.006799 -0.00317324 -0.000213119 0.006799 9.73058e-18 0.006799)
(0.00682221 -0.00318242 -0.000216851 0.00682221 -9.67218e-20 0.00682221)
(0.00682221 -0.00318242 -0.000216851 0.00682221 1.01709e-17 0.00682221)
(0.00684429 -0.0031911 -0.000220613 0.00684429 8.90219e-20 0.00684429)
(0.00684429 -0.0031911 -0.000220613 0.00684429 1.05054e-17 0.00684429)
(0.00686528 -0.00319928 -0.000224402 0.00686528 3.74461e-19 0.00686528)
(0.00686528 -0.00319928 -0.000224402 0.00686528 1.09362e-17 0.00686528)
(0.00688519 -0.00320697 -0.000228221 0.00688519 6.07554e-19 0.00688519)
(0.00688519 -0.00320697 -0.000228221 0.00688519 1.13199e-17 0.00688519)
(0.00690403 -0.00321419 -0.000232069 0.00690403 6.48985e-19 0.00690403)
(0.00690403 -0.00321419 -0.000232069 0.00690403 1.16295e-17 0.00690403)
(0.00692182 -0.00322093 -0.000235945 0.00692182 3.55127e-19 0.00692182)
(0.00692182 -0.00322093 -0.000235945 0.00692182 1.19707e-17 0.00692182)
(0.00693858 -0.00322721 -0.000239852 0.00693858 1.02654e-20 0.00693858)
(0.00693858 -0.00322721 -0.000239852 0.00693858 1.24044e-17 0.00693858)
(0.00695432 -0.00323304 -0.000243787 0.00695432 5.76151e-19 0.00695432)
(0.00695432 -0.00323304 -0.000243787 0.00695432 1.26569e-17 0.00695432)
(0.00696906 -0.00323843 -0.000247752 0.00696906 7.03469e-19 0.00696906)
(0.00696906 -0.00323843 -0.000247752 0.00696906 1.30357e-17 0.00696906)
(0.00698281 -0.00324337 -0.000251747 0.00698281 3.03258e-19 0.00698281)
(0.00698281 -0.00324337 -0.000251747 0.00698281 1.3596e-17 0.00698281)
(0.00699558 -0.00324788 -0.000255771 0.00699558 1.63721e-19 0.00699558)
(0.00699558 -0.00324788 -0.000255771 0.00699558 1.42008e-17 0.00699558)
(0.0070074 -0.00325196 -0.000259825 0.0070074 3.31641e-19 0.0070074)
(0.0070074 -0.00325196 -0.000259825 0.0070074 1.46618e-17 0.0070074)
(0.00701826 -0.00325562 -0.000263909 0.00701826 7.3988e-19 0.00701826)
(0.00701826 -0.00325562 -0.000263909 0.00701826 1.49509e-17 0.00701826)
(0.0070282 -0.00325887 -0.000268022 0.0070282 2.19497e-19 0.0070282)
(0.0070282 -0.00325887 -0.000268022 0.0070282 1.52836e-17 0.0070282)
(0.00703721 -0.00326171 -0.000272165 0.00703721 -3.13123e-19 0.00703721)
(0.00703721 -0.00326171 -0.000272165 0.00703721 1.57344e-17 0.00703721)
(0.00704531 -0.00326415 -0.000276338 0.00704531 -9.4745e-19 0.00704531)
(0.00704531 -0.00326415 -0.000276338 0.00704531 1.6679e-17 0.00704531)
(0.00705251 -0.00326619 -0.00028054 0.00705251 -1.19829e-18 0.00705251)
(0.00705251 -0.00326619 -0.00028054 0.00705251 1.74042e-17 0.00705251)
(0.00705883 -0.00326784 -0.000284772 0.00705883 -1.53206e-18 0.00705883)
(0.00705883 -0.00326784 -0.000284772 0.00705883 1.80147e-17 0.00705883)
(0.00706426 -0.00326911 -0.000289033 0.00706426 -1.52301e-18 0.00706426)
(0.00706426 -0.00326911 -0.000289033 0.00706426 1.84295e-17 0.00706426)
(0.00706884 -0.00326999 -0.000293324 0.00706884 -1.50478e-18 0.00706884)
(0.00706884 -0.00326999 -0.000293324 0.00706884 1.89954e-17 0.00706884)
(0.00707255 -0.00327049 -0.000297643 0.00707255 -2.18114e-18 0.00707255)
(0.00707255 -0.00327049 -0.000297643 0.00707255 1.98537e-17 0.00707255)
(0.00707542 -0.00327062 -0.000301992 0.00707542 -1.73629e-18 0.00707542)
(0.00707542 -0.00327062 -0.000301992 0.00707542 2.05495e-17 0.00707542)
(0.00707746 -0.00327037 -0.000306369 0.00707746 -7.31264e-19 0.00707746)
(0.00707746 -0.00327037 -0.000306369 0.00707746 2.08382e-17 0.00707746)
(0.00707866 -0.00326976 -0.000310775 0.00707866 -1.10568e-18 0.00707866)
(0.00707866 -0.00326976 -0.000310775 0.00707866 2.16335e-17 0.00707866)
(0.00707905 -0.00326879 -0.000315208 0.00707905 -9.41972e-19 0.00707905)
(0.00707905 -0.00326879 -0.000315208 0.00707905 2.29684e-17 0.00707905)
(0.00707862 -0.00326746 -0.00031967 0.00707862 8.92749e-21 0.00707862)
(0.00707862 -0.00326746 -0.00031967 0.00707862 2.30812e-17 0.00707862)
(0.00707739 -0.00326577 -0.000324159 0.00707739 -3.77888e-19 0.00707739)
(0.00707739 -0.00326577 -0.000324159 0.00707739 2.305e-17 0.00707739)