/*--------------------------------*- C++ -*----------------------------------*\
| =========                 |                                                 |
| \\      /  F ield         | OpenFOAM: The Open Source CFD Toolbox           |
|  \\    /   O peration     | Version:  2012                                  |
|   \\  /    A nd           | Website:  www.openfoam.com                      |
|    \\/     M anipulation  |                                                 |
\*---------------------------------------------------------------------------*/
FoamFile
{
    version     2.0;
    format      ascii;
    class       volSymmTensorField;
    location    "15600";
    object      turbulenceProperties:R;
}
// * * * * * * * * * * * * * * * * * * * * * * * * * * * * * * * * * * * * * //

dimensions      [0 2 -2 0 0 0 0];


internalField   nonuniform List<symmTensor> 
2560
(
(0.00610307 -8.47683e-06 -1.22765e-08 0.00610307 2.4201e-12 0.00610307)
(0.00610307 -8.47683e-06 -1.22765e-08 0.00610307 2.84809e-15 0.00610307)
(0.147769 -0.00118147 -5.15981e-06 0.147769 -5.67919e-27 0.147769)
(0.147769 -0.00118147 -5.15981e-06 0.147769 1.08329e-12 0.147769)
(1.01796 -0.0244014 -0.000146404 1.01796 -2.91679e-09 1.01796)
(1.01796 -0.0244014 -0.000146404 1.01796 3.11576e-11 1.01796)
(3.08038 -0.157501 -0.000958686 3.08038 -1.85281e-08 3.08038)
(3.08038 -0.157501 -0.000958686 3.08038 1.93238e-10 3.08038)
(5.6098 -0.475247 -0.00293476 5.6098 -3.12825e-08 5.6098)
(5.6098 -0.475247 -0.00293476 5.6098 4.36607e-10 5.6098)
(7.97205 -0.943225 -0.00590926 7.97205 -2.97487e-08 7.97205)
(7.97205 -0.943225 -0.00590926 7.97205 9.21965e-10 7.97205)
(10.0857 -1.50779 -0.00958363 10.0857 -2.54097e-08 10.0857)
(10.0857 -1.50779 -0.00958363 10.0857 1.66224e-09 10.0857)
(12.0005 -2.13552 -0.0137713 12.0005 -2.29753e-08 12.0005)
(12.0005 -2.13552 -0.0137713 12.0005 2.75738e-09 12.0005)
(13.7657 -2.80711 -0.018366 13.7657 -2.28e-08 13.7657)
(13.7657 -2.80711 -0.018366 13.7657 -2.20761e-09 13.7657)
(15.4162 -3.51063 -0.0233039 15.4162 -2.47277e-08 15.4162)
(15.4162 -3.51063 -0.0233039 15.4162 -1.70147e-08 15.4162)
(16.9759 -4.23822 -0.0285443 16.9759 -2.86028e-08 16.9759)
(16.9759 -4.23822 -0.0285443 16.9759 -2.84714e-08 16.9759)
(18.4616 -4.98434 -0.0340597 18.4616 -3.45001e-08 18.4616)
(18.4616 -4.98434 -0.0340597 18.4616 -3.44075e-08 18.4616)
(19.885 -5.74498 -0.0398308 19.885 -4.25206e-08 19.885)
(19.885 -5.74498 -0.0398308 19.885 -4.24615e-08 19.885)
(21.2546 -6.51705 -0.0458437 21.2546 -3.63236e-08 21.2546)
(21.2546 -6.51705 -0.0458437 21.2546 -5.28145e-08 21.2546)
(22.5769 -7.29815 -0.0520881 22.5769 -2.44451e-08 22.5769)
(22.5769 -7.29815 -0.0520881 22.5769 -6.51335e-08 22.5769)
(23.8563 -8.08629 -0.058556 23.8563 -2.74185e-08 23.8563)
(23.8563 -8.08629 -0.058556 23.8563 -1.21924e-10 23.8563)
(25.0963 -8.8798 -0.0652406 25.0963 -3.26001e-08 25.0963)
(25.0963 -8.8798 -0.0652406 25.0963 1.62408e-08 25.0963)
(26.2994 -9.67717 -0.072136 26.2994 -3.82943e-08 26.2994)
(26.2994 -9.67717 -0.072136 26.2994 -1.37016e-08 26.2994)
(27.4673 -10.477 -0.0792364 27.4673 -4.45218e-08 27.4673)
(27.4673 -10.477 -0.0792364 27.4673 -4.46849e-08 27.4673)
(28.6013 -11.278 -0.0865357 28.6013 -5.1403e-08 28.6013)
(28.6013 -11.278 -0.0865357 28.6013 -5.15786e-08 28.6013)
(29.7019 -12.0786 -0.094027 29.7019 -5.89622e-08 29.7019)
(29.7019 -12.0786 -0.094027 29.7019 -5.91885e-08 29.7019)
(30.7696 -12.8776 -0.101702 30.7696 -6.70923e-08 30.7696)
(30.7696 -12.8776 -0.101702 30.7696 -6.73277e-08 30.7696)
(31.8042 -13.6732 -0.109552 31.8042 -7.58113e-08 31.8042)
(31.8042 -13.6732 -0.109552 31.8042 -7.60237e-08 31.8042)
(32.8056 -14.464 -0.117565 32.8056 -8.54782e-08 32.8056)
(32.8056 -14.464 -0.117565 32.8056 -8.5781e-08 32.8056)
(33.773 -15.248 -0.125729 33.773 -9.59283e-08 33.773)
(33.773 -15.248 -0.125728 33.773 -9.61651e-08 33.773)
(34.7058 -16.0232 -0.134026 34.7058 -1.06861e-07 34.7058)
(34.7058 -16.0232 -0.134026 34.7058 -1.07146e-07 34.7058)
(35.603 -16.7875 -0.142441 35.603 -1.18562e-07 35.603)
(35.603 -16.7875 -0.142441 35.603 -1.18823e-07 35.603)
(36.4634 -17.5387 -0.150952 36.4634 -1.315e-07 36.4634)
(36.4634 -17.5387 -0.150952 36.4634 -1.31899e-07 36.4634)
(37.2859 -18.2741 -0.159536 37.2859 -1.45193e-07 37.2859)
(37.2859 -18.2741 -0.159536 37.2859 -1.45478e-07 37.2859)
(38.069 -18.9911 -0.168165 38.069 -1.59551e-07 38.069)
(38.069 -18.9911 -0.168165 38.069 -1.59901e-07 38.069)
(38.8113 -19.6867 -0.176812 38.8113 -1.74721e-07 38.8113)
(38.8113 -19.6867 -0.176812 38.8113 -1.75028e-07 38.8113)
(39.5112 -20.3581 -0.185443 39.5112 -1.9143e-07 39.5112)
(39.5112 -20.3581 -0.185443 39.5112 -1.91897e-07 39.5112)
(40.1673 -21.002 -0.194024 40.1673 -2.08839e-07 40.1673)
(40.1673 -21.002 -0.194024 40.1673 -2.09168e-07 40.1673)
(40.7779 -21.6151 -0.202515 40.7779 -2.27081e-07 40.7779)
(40.7779 -21.6151 -0.202515 40.7779 -2.27423e-07 40.7779)
(41.3415 -22.1941 -0.210875 41.3415 -2.46382e-07 41.3415)
(41.3415 -22.1941 -0.210875 41.3415 -2.46733e-07 41.3415)
(41.8565 -22.7356 -0.219061 41.8565 -2.6737e-07 41.8565)
(41.8565 -22.7356 -0.219061 41.8565 -2.6785e-07 41.8565)
(42.3214 -23.2362 -0.227027 42.3214 -2.89037e-07 42.3214)
(42.3214 -23.2362 -0.227027 42.3214 -2.89409e-07 42.3214)
(42.735 -23.6922 -0.234722 42.735 -3.11663e-07 42.735)
(42.735 -23.6922 -0.234722 42.735 -3.12045e-07 42.735)
(43.0958 -24.1003 -0.242097 43.0958 -3.35512e-07 43.0958)
(43.0958 -24.1003 -0.242097 43.0958 -3.35903e-07 43.0958)
(43.4028 -24.4574 -0.249102 43.4028 -3.6135e-07 43.4028)
(43.4028 -24.4574 -0.249102 43.4028 -3.61818e-07 43.4028)
(43.6551 -24.76 -0.255681 43.6551 -3.88018e-07 43.6551)
(43.6551 -24.76 -0.255681 43.6551 -3.88429e-07 43.6551)
(43.8519 -25.0051 -0.261779 43.8519 -4.15528e-07 43.8519)
(43.8519 -25.0051 -0.261779 43.8519 -4.15948e-07 43.8519)
(43.9927 -25.1898 -0.267344 43.9927 -4.44431e-07 43.9927)
(43.9927 -25.1898 -0.267344 43.9927 -4.4486e-07 43.9927)
(44.0774 -25.3117 -0.272323 44.0774 -4.75559e-07 44.0774)
(44.0774 -25.3117 -0.272323 44.0774 -4.76181e-07 44.0774)
(44.1058 -25.3682 -0.27666 44.1058 -5.0698e-07 44.1058)
(44.1058 -25.3682 -0.27666 44.1058 -5.07535e-07 44.1058)
(44.0786 -25.3574 -0.280305 44.0786 -5.40536e-07 44.0786)
(44.0786 -25.3574 -0.280305 44.0786 -5.41227e-07 44.0786)
(43.9963 -25.2776 -0.283206 43.9963 -5.74094e-07 43.9963)
(43.9963 -25.2776 -0.283206 43.9963 -5.7497e-07 43.9963)
(43.8601 -25.1274 -0.285318 43.8601 -6.12208e-07 43.8601)
(43.8601 -25.1274 -0.285318 43.8601 -6.13193e-07 43.8601)
(43.6715 -24.9059 -0.286593 43.6715 -6.48676e-07 43.6715)
(43.6715 -24.9059 -0.286593 43.6715 -6.49155e-07 43.6715)
(43.4323 -24.6124 -0.28699 43.4323 -6.83932e-07 43.4323)
(43.4323 -24.6124 -0.28699 43.4323 -6.847e-07 43.4323)
(43.1448 -24.2473 -0.286479 43.1448 -7.26869e-07 43.1448)
(43.1448 -24.2473 -0.286479 43.1448 -7.27618e-07 43.1448)
(42.8119 -23.8108 -0.285019 42.8119 -7.70226e-07 42.8119)
(42.8119 -23.8108 -0.285019 42.8119 -7.73213e-07 42.8119)
(42.4366 -23.3033 -0.282579 42.4366 -8.03048e-07 42.4366)
(42.4366 -23.3033 -0.282579 42.4366 -8.08197e-07 42.4366)
(42.0224 -22.7265 -0.279147 42.0224 -8.54488e-07 42.0224)
(42.0224 -22.7265 -0.279147 42.0224 -8.58994e-07 42.0224)
(41.5734 -22.0819 -0.274695 41.5734 -8.9453e-07 41.5734)
(41.5734 -22.0819 -0.274695 41.5734 -8.97645e-07 41.5734)
(41.0938 -21.3713 -0.269211 41.0938 -9.41392e-07 41.0938)
(41.0938 -21.3713 -0.269211 41.0938 -9.41916e-07 41.0938)
(40.5885 -20.5973 -0.262691 40.5885 -9.88344e-07 40.5885)
(40.5885 -20.5973 -0.262691 40.5885 -9.90314e-07 40.5885)
(40.0623 -19.7627 -0.25513 40.0623 -1.02563e-06 40.0623)
(40.0623 -19.7627 -0.25513 40.0623 -1.03009e-06 40.0623)
(39.5208 -18.8707 -0.246536 39.5208 -1.0764e-06 39.5208)
(39.5208 -18.8707 -0.246536 39.5208 -1.07975e-06 39.5208)
(38.9693 -17.9245 -0.236913 38.9693 -1.11919e-06 38.9693)
(38.9693 -17.9245 -0.236913 38.9693 -1.12299e-06 38.9693)
(38.4138 -16.9275 -0.22627 38.4138 -1.1688e-06 38.4138)
(38.4138 -16.9275 -0.22627 38.4138 -1.17141e-06 38.4138)
(37.86 -15.8831 -0.214621 37.86 -1.20378e-06 37.86)
(37.86 -15.8831 -0.214621 37.86 -1.20731e-06 37.86)
(37.3139 -14.7952 -0.201989 37.3139 -1.2452e-06 37.3139)
(37.3139 -14.7952 -0.201989 37.3139 -1.24577e-06 37.3139)
(36.7814 -13.6677 -0.188397 36.7814 -1.29478e-06 36.7814)
(36.7814 -13.6677 -0.188397 36.7814 -1.29687e-06 36.7814)
(36.2682 -12.5038 -0.173852 36.2682 -1.32447e-06 36.2682)
(36.2682 -12.5038 -0.173852 36.2682 -1.32505e-06 36.2682)
(35.78 -11.3071 -0.158389 35.78 -1.35534e-06 35.78)
(35.78 -11.3071 -0.158389 35.78 -1.3603e-06 35.78)
(35.3219 -10.0814 -0.142032 35.3219 -1.39321e-06 35.3219)
(35.3219 -10.0814 -0.142032 35.3219 -1.39884e-06 35.3219)
(34.8988 -8.82982 -0.124799 34.8988 -1.4118e-06 34.8988)
(34.8988 -8.82982 -0.124799 34.8988 -1.42422e-06 34.8988)
(34.5151 -7.55537 -0.106715 34.5151 -1.45087e-06 34.5151)
(34.5151 -7.55537 -0.106715 34.5151 -1.46405e-06 34.5151)
(34.1746 -6.2611 -0.0878019 34.1746 -1.44749e-06 34.1746)
(34.1746 -6.2611 -0.0878019 34.1746 -1.4675e-06 34.1746)
(33.8804 -4.95017 -0.0680921 33.8804 -1.49147e-06 33.8804)
(33.8804 -4.95017 -0.0680921 33.8804 -1.51017e-06 33.8804)
(33.635 -3.62538 -0.0476002 33.635 -1.48431e-06 33.635)
(33.635 -3.62538 -0.0476002 33.635 -1.50554e-06 33.635)
(33.4401 -2.28963 -0.026365 33.4401 -1.52006e-06 33.4401)
(33.4401 -2.28963 -0.026365 33.4401 -1.53549e-06 33.4401)
(33.2964 -0.532208 -0.00441995 33.2964 -1.51457e-06 33.2964)
(33.2964 -0.532208 -0.00441995 33.2964 -1.53362e-06 33.2964)
(33.2044 0.00028735 -2.42112e-06 33.2044 -1.54464e-06 33.2044)
(33.2044 0.000287501 -2.42239e-06 33.2044 -1.55539e-06 33.2044)
(33.163 1.75061 -0.0185655 33.163 -1.5347e-06 33.163)
(33.163 1.75061 -0.0185655 33.163 -1.55042e-06 33.163)
(33.1707 3.09666 -0.0423101 33.1707 -1.56044e-06 33.1707)
(33.1707 3.09666 -0.0423101 33.1707 -1.56442e-06 33.1707)
(33.2253 4.43505 -0.0666562 33.2253 -1.56409e-06 33.2253)
(33.2253 4.43505 -0.0666562 33.2253 -1.57138e-06 33.2253)
(33.3238 5.76119 -0.0915297 33.3238 -1.57667e-06 33.3238)
(33.3238 5.76119 -0.0915297 33.3238 -1.58159e-06 33.3238)
(33.4628 7.0701 -0.116851 33.4628 -1.59639e-06 33.4628)
(33.4628 7.0701 -0.116851 33.4628 -1.59898e-06 33.4628)
(33.6382 8.35615 -0.142521 33.6382 -1.58978e-06 33.6382)
(33.6382 8.35615 -0.142521 33.6382 -1.60736e-06 33.6382)
(33.8455 9.61323 -0.168425 33.8455 -1.63171e-06 33.8455)
(33.8455 9.61323 -0.168425 33.8455 -1.64263e-06 33.8455)
(34.0801 10.8355 -0.194433 34.0801 -1.62602e-06 34.0801)
(34.0801 10.8355 -0.194433 34.0801 -1.64799e-06 34.0801)
(34.3368 12.0169 -0.220428 34.3368 -1.67253e-06 34.3368)
(34.3368 12.0169 -0.220428 34.3368 -1.68123e-06 34.3368)
(34.6106 13.1512 -0.246261 34.6106 -1.69027e-06 34.6106)
(34.6106 13.1512 -0.246261 34.6106 -1.70826e-06 34.6106)
(34.8964 14.2327 -0.271788 34.8964 -1.74087e-06 34.8964)
(34.8964 14.2327 -0.271788 34.8964 -1.74821e-06 34.8964)
(35.189 15.2563 -0.296875 35.189 -1.75551e-06 35.189)
(35.189 15.2563 -0.296875 35.189 -1.77655e-06 35.189)
(35.4835 16.217 -0.321383 35.4835 -1.81531e-06 35.4835)
(35.4835 16.217 -0.321383 35.4835 -1.82469e-06 35.4835)
(35.775 17.1104 -0.345172 35.775 -1.82794e-06 35.775)
(35.775 17.1104 -0.345172 35.775 -1.85213e-06 35.775)
(36.059 17.9324 -0.36811 36.059 -1.90324e-06 36.059)
(36.059 17.9324 -0.36811 36.059 -1.91251e-06 36.059)
(36.3313 18.6801 -0.390066 36.3313 -1.93771e-06 36.3313)
(36.3313 18.6801 -0.390066 36.3313 -1.9567e-06 36.3313)
(36.5881 19.3517 -0.41094 36.5881 -2.00622e-06 36.5881)
(36.5881 19.3517 -0.41094 36.5881 -2.00889e-06 36.5881)
(36.8256 19.9458 -0.430641 36.8256 -2.03498e-06 36.8256)
(36.8256 19.9458 -0.430641 36.8256 -2.05099e-06 36.8256)
(37.0409 20.4616 -0.449085 37.0409 -2.10338e-06 37.0409)
(37.0409 20.4616 -0.449085 37.0409 -2.1044e-06 37.0409)
(37.2312 20.8992 -0.466194 37.2312 -2.17205e-06 37.2312)
(37.2312 20.8992 -0.466194 37.2312 -2.17308e-06 37.2312)
(37.394 21.2601 -0.481924 37.394 -2.19802e-06 37.394)
(37.394 21.2601 -0.481924 37.394 -2.21436e-06 37.394)
(37.5275 21.5458 -0.496251 37.5275 -2.26738e-06 37.5275)
(37.5275 21.5458 -0.496251 37.5275 -2.26845e-06 37.5275)
(37.6301 21.7582 -0.509136 37.6301 -2.32892e-06 37.6301)
(37.6301 21.7582 -0.509136 37.6301 -2.33001e-06 37.6301)
(37.7006 21.9004 -0.520575 37.7006 -2.35965e-06 37.7006)
(37.7006 21.9004 -0.520575 37.7006 -2.38237e-06 37.7006)
(37.7383 21.9757 -0.530585 37.7383 -2.44761e-06 37.7383)
(37.7383 21.9757 -0.530585 37.7383 -2.45904e-06 37.7383)
(37.7425 21.9879 -0.539179 37.7425 -2.45665e-06 37.7425)
(37.7425 21.9879 -0.539179 37.7425 -2.48571e-06 37.7425)
(37.7131 21.941 -0.5464 37.7131 -2.52892e-06 37.7131)
(37.7131 21.941 -0.5464 37.7131 -2.53312e-06 37.7131)
(37.6503 21.839 -0.552279 37.6503 -2.56986e-06 37.6503)
(37.6503 21.839 -0.552279 37.6503 -2.58811e-06 37.6503)
(37.5543 21.6863 -0.556862 37.5543 -2.62652e-06 37.5543)
(37.5543 21.6863 -0.556862 37.5543 -2.6281e-06 37.5543)
(37.4258 21.4874 -0.560216 37.4258 -2.64292e-06 37.4258)
(37.4258 21.4874 -0.560216 37.4258 -2.66848e-06 37.4258)
(37.2656 21.2467 -0.562398 37.2656 -2.70893e-06 37.2656)
(37.2656 21.2467 -0.562398 37.2656 -2.72088e-06 37.2656)
(37.0746 20.9688 -0.563482 37.0746 -2.7024e-06 37.0746)
(37.0746 20.9688 -0.563482 37.0746 -2.73841e-06 37.0746)
(36.8539 20.6578 -0.563538 36.8539 -2.77649e-06 36.8539)
(36.8539 20.6578 -0.563538 36.8539 -2.79491e-06 36.8539)
(36.6047 20.3178 -0.56263 36.6047 -2.75978e-06 36.6047)
(36.6047 20.3178 -0.56263 36.6047 -2.79667e-06 36.6047)
(36.3285 19.9531 -0.560844 36.3285 -2.81336e-06 36.3285)
(36.3285 19.9531 -0.560844 36.3285 -2.82503e-06 36.3285)
(36.0265 19.567 -0.558249 36.0265 -2.81854e-06 36.0265)
(36.0265 19.567 -0.558249 36.0265 -2.84832e-06 36.0265)
(35.7002 19.1631 -0.554904 35.7002 -2.85328e-06 35.7002)
(35.7002 19.1631 -0.554904 35.7002 -2.86864e-06 35.7002)
(35.3511 18.7451 -0.550897 35.3511 -2.81859e-06 35.3511)
(35.3511 18.7451 -0.550897 35.3511 -2.86562e-06 35.3511)
(34.9807 18.3158 -0.546293 34.9807 -2.86947e-06 34.9807)
(34.9807 18.3158 -0.546293 34.9807 -2.90855e-06 34.9807)
(34.5905 17.878 -0.541151 34.5905 -2.796e-06 34.5905)
(34.5905 17.878 -0.541151 34.5905 -2.86953e-06 34.5905)
(34.1821 17.4342 -0.535535 34.1821 -2.87355e-06 34.1821)
(34.1821 17.4342 -0.535535 34.1821 -2.94026e-06 34.1821)
(33.7569 16.9868 -0.529506 33.7569 -2.79084e-06 33.7569)
(33.7569 16.9868 -0.529506 33.7569 -2.86599e-06 33.7569)
(33.3164 16.538 -0.523121 33.3164 -2.84826e-06 33.3164)
(33.3164 16.538 -0.523121 33.3164 -2.936e-06 33.3164)
(32.8619 16.0895 -0.516429 32.8619 -2.74883e-06 32.8619)
(32.8619 16.0895 -0.516429 32.8619 -2.82401e-06 32.8619)
(32.3949 15.6429 -0.50948 32.3949 -2.81501e-06 32.3949)
(32.3949 15.6429 -0.50948 32.3949 -2.92686e-06 32.3949)
(31.9168 15.1995 -0.502309 31.9168 -2.71342e-06 31.9168)
(31.9168 15.1995 -0.502309 31.9168 -2.78727e-06 31.9168)
(31.4287 14.7608 -0.494962 31.4287 -2.75983e-06 31.4287)
(31.4287 14.7608 -0.494962 31.4287 -2.87924e-06 31.4287)
(30.9319 14.3278 -0.487476 30.9319 -2.65462e-06 30.9319)
(30.9319 14.3278 -0.487476 30.9319 -2.72523e-06 30.9319)
(30.4276 13.9012 -0.479883 30.4276 -2.67766e-06 30.4276)
(30.4276 13.9012 -0.479883 30.4276 -2.80102e-06 30.4276)
(29.9168 13.4817 -0.472206 29.9168 -2.58527e-06 29.9168)
(29.9168 13.4817 -0.472206 29.9168 -2.65004e-06 29.9168)
(29.4007 13.0699 -0.464469 29.4007 -2.58686e-06 29.4007)
(29.4007 13.0699 -0.464469 29.4007 -2.73087e-06 29.4007)
(28.8803 12.6662 -0.456696 28.8803 -2.49328e-06 28.8803)
(28.8803 12.6662 -0.456696 28.8803 -2.54867e-06 28.8803)
(28.3564 12.2707 -0.448894 28.3564 -2.49096e-06 28.3564)
(28.3564 12.2707 -0.448894 28.3564 -2.68759e-06 28.3564)
(27.8299 11.8838 -0.441085 27.8299 -2.38127e-06 27.8299)
(27.8299 11.8838 -0.441085 27.8299 -2.42245e-06 27.8299)
(27.3017 11.5055 -0.433278 27.3017 -2.36047e-06 27.3017)
(27.3017 11.5055 -0.433278 27.3017 -2.59418e-06 27.3017)
(26.7726 11.1357 -0.425473 26.7726 -2.28651e-06 26.7726)
(26.7726 11.1357 -0.425473 26.7726 -2.30695e-06 26.7726)
(26.2432 10.7745 -0.417683 26.2432 -2.21914e-06 26.2432)
(26.2432 10.7745 -0.417683 26.2432 -2.49338e-06 26.2432)
(25.7143 10.4219 -0.409914 25.7143 -2.14286e-06 25.7143)
(25.7143 10.4219 -0.409914 25.7143 -2.13373e-06 25.7143)
(25.1864 10.0778 -0.402168 25.1864 -2.05762e-06 25.1864)
(25.1864 10.0778 -0.402168 25.1864 -2.38383e-06 25.1864)
(24.6603 9.74202 -0.394449 24.6603 -1.9899e-06 24.6603)
(24.6603 9.74202 -0.394449 24.6603 -1.93929e-06 24.6603)
(24.1364 9.41466 -0.386762 24.1364 -1.88417e-06 24.1364)
(24.1364 9.41466 -0.386762 24.1364 -2.27746e-06 24.1364)
(23.6152 9.09564 -0.379114 23.6152 -1.80414e-06 23.6152)
(23.6152 9.09564 -0.379114 23.6152 -1.69605e-06 23.6152)
(23.0973 8.78484 -0.37151 23.0973 -1.68701e-06 23.0973)
(23.0973 8.78484 -0.37151 23.0973 -2.16733e-06 23.0973)
(22.5831 8.48207 -0.363949 22.5831 -1.60331e-06 22.5831)
(22.5831 8.48207 -0.363949 22.5831 -1.41627e-06 22.5831)
(22.0729 8.18717 -0.356434 22.0729 -1.48211e-06 22.0729)
(22.0729 8.18717 -0.356434 22.0729 -2.07588e-06 22.0729)
(21.5672 7.89994 -0.348964 21.5672 -1.40399e-06 21.5672)
(21.5672 7.89994 -0.348964 21.5672 -1.10916e-06 21.5672)
(21.0664 7.62016 -0.341535 21.0664 -1.27039e-06 21.0664)
(21.0664 7.62016 -0.341535 21.0664 -2.0127e-06 21.0664)
(20.5706 7.34762 -0.334147 20.5706 -1.18782e-06 20.5706)
(20.5706 7.34762 -0.334147 20.5706 -7.46515e-07 20.5706)
(20.0803 7.08207 -0.326797 20.0803 -1.03587e-06 20.0803)
(20.0803 7.08207 -0.326797 20.0803 -1.9734e-06 20.0803)
(19.5958 6.82327 -0.31948 19.5958 -9.7018e-07 19.5958)
(19.5958 6.82327 -0.31948 19.5957 -3.30438e-07 19.5958)
(19.1171 6.57103 -0.312193 19.1171 -6.79855e-07 19.1171)
(19.1171 6.57103 -0.312193 19.1171 -2.00032e-06 19.1171)
(18.6447 6.32516 -0.304935 18.6447 -7.40462e-07 18.6447)
(18.6447 6.32516 -0.304935 18.6447 1.67457e-07 18.6447)
(18.1787 6.08548 -0.297702 18.1787 -4.49644e-22 18.1787)
(18.1787 6.08548 -0.297702 18.1788 -1.90463e-06 18.1787)
(17.7194 5.85187 -0.290495 17.7194 -5.15549e-07 17.7194)
(17.7194 5.85187 -0.290495 17.7194 7.54215e-07 17.7194)
(17.2668 5.6242 -0.283312 17.2668 4.48652e-22 17.2668)
(17.2668 5.6242 -0.283312 17.2668 -2.20922e-06 17.2668)
(16.8212 5.40237 -0.276157 16.8212 -2.76441e-07 16.8212)
(16.8213 5.40237 -0.276157 16.8212 1.48105e-06 16.8213)
(16.3828 5.18625 -0.269029 16.3828 4.27055e-22 16.3828)
(16.3828 5.18625 -0.269029 16.3828 -2.64092e-06 16.3828)
(15.9517 4.97579 -0.261929 15.9517 -3.49432e-08 15.9517)
(15.9517 4.97579 -0.261929 15.9516 2.3796e-06 15.9517)
(15.5279 4.77093 -0.254862 15.5279 1.65451e-23 15.5279)
(15.5279 4.77093 -0.254862 15.5279 -3.16755e-06 15.5279)
(15.1117 4.57166 -0.247832 15.1117 2.12516e-07 15.1117)
(15.1117 4.57166 -0.247832 15.1117 3.51216e-06 15.1117)
(14.7032 4.37808 -0.240847 14.7032 5.57888e-23 14.7032)
(14.7032 4.37808 -0.240847 14.7032 -3.95277e-06 14.7032)
(14.3024 4.19032 -0.233922 14.3024 4.67595e-07 14.3024)
(14.3024 4.19032 -0.233922 14.3024 4.95982e-06 14.3024)
(13.9095 4.00863 -0.227073 13.9095 -8.90375e-22 13.9095)
(13.9095 4.00863 -0.227073 13.9095 -5.08604e-06 13.9095)
(13.5244 3.83333 -0.220327 13.5244 7.09994e-07 13.5244)
(13.5244 3.83333 -0.220327 13.5244 6.81003e-06 13.5244)
(13.1474 3.66483 -0.213713 13.1474 6.87223e-23 13.1474)
(13.1474 3.66483 -0.213713 13.1474 -6.68535e-06 13.1474)
(12.7784 3.50352 -0.207266 12.7784 9.52128e-07 12.7784)
(12.7784 3.50352 -0.207266 12.7784 9.22166e-06 12.7784)
(12.4174 3.34977 -0.201022 12.4174 2.27088e-22 12.4174)
(12.4174 3.34977 -0.201022 12.4175 -8.54803e-06 12.4174)
(12.0645 3.20386 -0.195013 12.0645 1.19814e-06 12.0645)
(12.0646 3.20386 -0.195013 12.0645 1.23664e-05 12.0646)
(11.7197 3.06594 -0.189269 11.7197 -1.75603e-21 11.7197)
(11.7197 3.06594 -0.189269 11.7197 -1.07722e-05 11.7197)
(11.3829 2.93596 -0.183808 11.3829 1.41292e-06 11.3829)
(11.3829 2.93596 -0.183808 11.3829 1.54483e-05 11.3829)
(11.0541 2.81365 -0.17864 11.0541 2.19721e-21 11.0541)
(11.0541 2.81365 -0.17864 11.0542 -1.36236e-05 11.0541)
(10.7332 2.69858 -0.173752 10.7332 1.64943e-06 10.7332)
(10.7333 2.69858 -0.173752 10.7332 1.93168e-05 10.7333)
(10.4202 2.59015 -0.169136 10.4202 -1.22223e-22 10.4202)
(10.4202 2.59015 -0.169136 10.4202 -1.73525e-05 10.4202)
(10.1149 2.48743 -0.164753 10.1149 1.82558e-06 10.1149)
(10.1149 2.48743 -0.164753 10.1148 2.40738e-05 10.1149)
(9.81716 2.38938 -0.160551 9.81716 -3.48829e-21 9.81716)
(9.81713 2.38938 -0.160551 9.81722 -2.20716e-05 9.81713)
(9.52698 2.29501 -0.156468 9.52698 1.99378e-06 9.52698)
(9.52701 2.29501 -0.156468 9.52692 3.00088e-05 9.52701)
(9.24419 2.20343 -0.152452 9.24419 3.8772e-21 9.24419)
(9.24415 2.20343 -0.152452 9.24425 -2.81333e-05 9.24415)
(8.96867 2.11391 -0.148448 8.96867 2.10449e-06 8.96867)
(8.9687 2.11391 -0.148448 8.9686 3.73849e-05 8.9687)
(8.70031 2.02609 -0.144419 8.70031 -1.92019e-37 8.70031)
(8.70028 2.02609 -0.144419 8.70038 -3.58056e-05 8.70028)
(8.43901 1.93991 -0.140358 8.43901 2.1181e-06 8.43901)
(8.43905 1.93991 -0.140358 8.43894 4.6523e-05 8.43905)
(8.18467 1.85549 -0.136267 8.18467 6.46513e-21 8.18467)
(8.18463 1.85549 -0.136267 8.18475 -4.55615e-05 8.18463)
(7.93718 1.77308 -0.132164 7.93718 2.04778e-06 7.93718)
(7.93723 1.77308 -0.132164 7.9371 5.79578e-05 7.93722)
(7.69646 1.69313 -0.128073 7.69646 5.79858e-22 7.69646)
(7.69642 1.69313 -0.128073 7.69655 -5.79277e-05 7.69642)
(7.46242 1.61592 -0.12404 7.46242 1.84035e-06 7.46242)
(7.46246 1.61592 -0.12404 7.46234 7.22532e-05 7.46246)
(7.23497 1.54172 -0.120075 7.23497 -1.22333e-22 7.23497)
(7.23492 1.54172 -0.120075 7.23505 -7.35461e-05 7.23492)
(7.01401 1.47103 -0.116218 7.01401 1.48749e-06 7.01401)
(7.01405 1.47103 -0.116218 7.01392 9.02181e-05 7.01405)
(6.79946 1.40418 -0.112519 6.79946 4.04462e-36 6.79946)
(6.79941 1.40418 -0.112519 6.79954 -9.33577e-05 6.79941)
(6.59122 1.34142 -0.109 6.59122 5.19009e-06 6.59122)
(6.59126 1.34142 -0.109 6.59113 0.000112866 6.59126)
(6.38919 1.28292 -0.105699 6.38919 -0 6.38919)
(6.38915 1.28292 -0.105699 6.38927 -0.000114238 6.38915)
(6.19327 1.22838 -0.102625 6.19327 5.97533e-06 6.19327)
(6.19331 1.22838 -0.102625 6.1932 0.000132861 6.19331)
(6.00335 1.17746 -0.0997479 6.00335 6.11653e-22 6.00335)
(6.00332 1.17746 -0.0997479 6.00342 -0.000137242 6.00332)
(5.81933 1.12978 -0.0970615 5.81933 6.29294e-06 5.81933)
(5.81935 1.12978 -0.0970615 5.81928 0.000144127 5.81935)
(5.64108 1.08489 -0.0945303 5.64108 2.16984e-06 5.64108)
(5.64105 1.08489 -0.0945303 5.64112 -0.000151323 5.64105)
(5.46849 1.0422 -0.0921286 5.46849 6.30909e-06 5.46849)
(5.4685 1.0422 -0.0921286 5.46846 0.000152218 5.4685)
(5.30145 1.00074 -0.089799 5.30145 -5.29241e-06 5.30145)
(5.30144 1.00074 -0.089799 5.30147 -0.000157499 5.30144)
(5.13986 0.959997 -0.0874373 5.13986 -2.42878e-06 5.13987)
(5.13986 0.959998 -0.0874373 5.13987 0.000157152 5.13986)
(4.98362 0.920147 -0.0850629 4.98362 -7.13764e-06 4.98362)
(4.98363 0.920148 -0.0850629 4.98361 -0.000155925 4.98363)
(4.83264 0.881242 -0.0826884 4.83264 2.46437e-20 4.83264)
(4.83262 0.881243 -0.0826885 4.83266 0.000152889 4.83263)
(4.68682 0.843674 -0.0803146 4.68682 -7.30034e-06 4.68682)
(4.68684 0.843675 -0.0803146 4.68678 -0.000154342 4.68683)
(4.54608 0.807675 -0.0780182 4.54608 -8.28368e-22 4.54608)
(4.54606 0.807675 -0.0780182 4.54613 0.000137953 4.54606)
(4.41035 0.773144 -0.0757727 4.41035 -7.40419e-06 4.41035)
(4.41038 0.773144 -0.0757727 4.4103 -0.00014186 4.41038)
(4.27955 0.74052 -0.0735949 4.27955 -1.65267e-21 4.27955)
(4.27952 0.74052 -0.0735949 4.27961 0.000121804 4.27952)
(4.15361 0.710124 -0.0715627 4.15361 -4.15037e-06 4.15361)
(4.15364 0.710124 -0.0715627 4.15354 -0.000123846 4.15364)
(4.03245 0.682281 -0.0696741 4.03245 1.44412e-20 4.03245)
(4.03242 0.682281 -0.0696741 4.03252 0.000104281 4.03242)
(3.91601 0.658026 -0.0680129 3.91601 -4.00954e-06 3.91601)
(3.91605 0.658026 -0.0680129 3.91593 -0.000107352 3.91604)
(3.80421 0.638066 -0.0667274 3.80421 -1.56571e-20 3.80421)
(3.80417 0.638067 -0.0667274 3.80428 8.87384e-05 3.80417)
(3.69696 0.622638 -0.0658439 3.69696 -4.47457e-06 3.69696)
(3.697 0.622638 -0.0658439 3.69689 -9.33246e-05 3.697)
(3.59419 0.612156 -0.0654225 3.59419 -1.50984e-20 3.59419)
(3.59415 0.612156 -0.0654226 3.59427 7.54032e-05 3.59415)
(3.4958 0.606646 -0.065532 3.4958 -4.90011e-06 3.4958)
(3.49583 0.606646 -0.065532 3.49572 -8.13507e-05 3.49583)
(3.40168 0.605674 -0.0661534 3.40168 8.24902e-22 3.40168)
(3.40164 0.605674 -0.0661534 3.40175 6.39217e-05 3.40164)
(3.31171 0.608547 -0.0672561 3.31171 -5.26973e-06 3.31171)
(3.31175 0.608547 -0.0672561 3.31164 -7.1129e-05 3.31175)
(3.22578 0.61414 -0.068759 3.22578 8.26743e-22 3.22578)
(3.22574 0.61414 -0.0687591 3.22585 5.41337e-05 3.22575)
(3.14375 0.62087 -0.0705259 3.14375 -5.5729e-06 3.14375)
(3.14378 0.62087 -0.0705259 3.14368 -6.2381e-05 3.14378)
(3.06549 0.627507 -0.0723561 3.06549 1.31328e-22 3.06549)
(3.06545 0.627507 -0.0723561 3.06555 3.88084e-05 3.06545)
(2.99086 0.633634 -0.0741768 2.99086 -5.8361e-06 2.99086)
(2.99089 0.633635 -0.0741768 2.9908 -5.44893e-05 2.99089)
(2.91974 0.639486 -0.0759628 2.91974 -0 2.91974)
(2.91971 0.639486 -0.0759628 2.9198 2.67561e-05 2.91971)
(2.852 0.645849 -0.0777925 2.852 -6.07854e-06 2.852)
(2.85203 0.64585 -0.0777925 2.85195 -4.45475e-05 2.85203)
(2.78752 0.653413 -0.0797786 2.78752 7.57887e-22 2.78752)
(2.78749 0.653413 -0.0797786 2.78757 1.87733e-05 2.78749)
(2.72616 0.662615 -0.0819847 2.72616 -6.27663e-06 2.72616)
(2.72618 0.662616 -0.0819847 2.72611 -3.71285e-05 2.72618)
(2.66778 0.673682 -0.0844721 2.66778 -8.45037e-22 2.66778)
(2.66776 0.673683 -0.0844722 2.66783 1.13463e-05 2.66776)
(2.61225 0.686531 -0.0872559 2.61225 -6.45857e-06 2.61225)
(2.61227 0.686532 -0.087256 2.61221 -3.16704e-05 2.61227)
(2.55939 0.700898 -0.0903222 2.55939 -9.80347e-07 2.55939)
(2.55937 0.700899 -0.0903223 2.55943 4.31347e-06 2.55937)
(2.50905 0.716681 -0.0936376 2.50905 -6.78877e-06 2.50905)
(2.50907 0.716682 -0.0936377 2.50901 -2.78821e-05 2.50907)
(2.46104 0.733551 -0.0972284 2.46104 -3.82561e-06 2.46104)
(2.46102 0.733551 -0.0972285 2.46108 -1.36967e-06 2.46102)
(2.41517 0.750456 -0.100997 2.41517 -7.23338e-06 2.41517)
(2.41519 0.750456 -0.100997 2.41514 -2.53803e-05 2.41519)
(2.37126 0.765914 -0.104768 2.37126 -6.4225e-06 2.37126)
(2.37124 0.765915 -0.104768 2.37129 -5.3517e-06 2.37124)
(2.32909 0.778216 -0.108307 2.32909 -7.77512e-06 2.3291)
(2.32911 0.778216 -0.108307 2.32907 -2.38811e-05 2.32911)
(2.28851 0.786121 -0.111351 2.28852 -7.99676e-06 2.28851)
(2.28851 0.786121 -0.111352 2.28851 -8.36453e-06 2.28851)
(2.24935 0.789293 -0.113775 2.24935 -8.41293e-06 2.24935)
(2.24937 0.789294 -0.113775 2.24933 -2.31822e-05 2.24937)
(2.21148 0.788443 -0.115554 2.21153 -6.09501e-06 2.21148)
(2.2115 0.788444 -0.115554 2.2115 -8.89527e-06 2.2115)
(2.17484 0.785204 -0.116867 2.17484 -8.81118e-06 2.17484)
(2.17485 0.785205 -0.116867 2.17482 -2.2796e-05 2.17485)
(2.1393 0.781624 -0.117975 2.13934 -4.23046e-06 2.1393)
(2.13931 0.781625 -0.117975 2.13931 -9.1142e-06 2.13931)
(2.10483 0.780011 -0.119207 2.10483 -8.90833e-06 2.10483)
(2.10484 0.780012 -0.119207 2.10481 -2.25479e-05 2.10484)
(2.07129 0.781495 -0.12094 2.07132 -2.51254e-06 2.07129)
(2.0713 0.781496 -0.120941 2.0713 -9.24023e-06 2.0713)
(2.03863 0.785307 -0.123173 2.03863 -9.21553e-06 2.03863)
(2.03863 0.785308 -0.123173 2.03861 -2.24858e-05 2.03863)
(2.00666 0.789503 -0.125704 2.00668 -1.26749e-06 2.00666)
(2.00667 0.789504 -0.125704 2.00667 -9.68362e-06 2.00667)
(1.9753 0.791823 -0.128138 1.9753 -9.8791e-06 1.9753)
(1.97531 0.791824 -0.128139 1.97529 -2.19595e-05 1.97531)
(1.94439 0.791202 -0.130142 1.94441 -3.6489e-07 1.94439)
(1.9444 0.791204 -0.130142 1.9444 -1.03785e-05 1.9444)
(1.91386 0.787648 -0.131675 1.91386 -1.06238e-05 1.91386)
(1.91387 0.78765 -0.131676 1.91386 -2.17224e-05 1.91387)
(1.88361 0.781435 -0.13274 1.88362 -4.70418e-07 1.88361)
(1.88362 0.781437 -0.13274 1.88362 -1.11038e-05 1.88362)
(1.85359 0.772512 -0.133387 1.85359 -1.12831e-05 1.85359)
(1.85359 0.772514 -0.133387 1.85359 -2.16047e-05 1.85359)
(1.82375 0.760301 -0.133507 1.82376 -1.78091e-06 1.82375)
(1.82375 0.760303 -0.133507 1.82375 -1.17651e-05 1.82375)
(1.79409 0.744259 -0.132966 1.79409 -1.20577e-05 1.79409)
(1.79409 0.744261 -0.132966 1.79409 -2.18001e-05 1.79409)
(1.76461 0.724558 -0.131655 1.76462 -3.09917e-06 1.76461)
(1.76462 0.72456 -0.131655 1.76462 -1.26184e-05 1.76462)
(1.73538 0.702955 -0.129688 1.73538 -1.27656e-05 1.73538)
(1.73538 0.702957 -0.129688 1.73538 -2.22303e-05 1.73538)
(1.70644 0.682276 -0.127538 1.70644 -3.77726e-06 1.70644)
(1.70644 0.682278 -0.127538 1.70644 -1.31128e-05 1.70644)
(1.67786 0.665325 -0.125747 1.67786 -1.30827e-05 1.67786)
(1.67786 0.665328 -0.125747 1.67787 -2.25374e-05 1.67786)
(1.64967 0.654291 -0.124839 1.64967 -3.87419e-06 1.64967)
(1.64967 0.654294 -0.124839 1.64967 -1.33521e-05 1.64967)
(1.62186 0.649963 -0.12518 1.62186 -1.34796e-05 1.62186)
(1.62186 0.649967 -0.12518 1.62186 -2.3147e-05 1.62186)
(1.59437 0.65158 -0.1268 1.59436 -4.10706e-06 1.59437)
(1.59436 0.651586 -0.126801 1.59436 -1.39836e-05 1.59436)
(1.56708 0.658086 -0.129476 1.56708 -1.41694e-05 1.56708)
(1.56707 0.658093 -0.129477 1.56708 -2.44111e-05 1.56707)
(1.53985 0.668403 -0.133111 1.53984 -4.0927e-06 1.53985)
(1.53984 0.668412 -0.133112 1.53984 -1.47281e-05 1.53984)
(1.51248 0.679497 -0.137447 1.51248 -1.5091e-05 1.51248)
(1.51248 0.679508 -0.137449 1.51249 -2.62218e-05 1.51248)
(1.48478 0.685935 -0.141557 1.48477 -4.15421e-06 1.48478)
(1.48477 0.685949 -0.141559 1.48477 -1.58942e-05 1.48477)
(1.45655 0.682138 -0.14412 1.45655 -1.64198e-05 1.45655)
(1.45654 0.682155 -0.144123 1.45656 -2.88346e-05 1.45654)
(1.42771 0.665146 -0.144024 1.42769 -4.06539e-06 1.42771)
(1.4277 0.665167 -0.144028 1.4277 -1.72479e-05 1.4277)
(1.39825 0.635598 -0.140944 1.39825 -1.7486e-05 1.39825)
(1.39824 0.635626 -0.140949 1.39826 -3.16672e-05 1.39824)
(1.36831 0.5957 -0.13525 1.36829 -2.97533e-06 1.36831)
(1.36831 0.595741 -0.135257 1.36831 -1.81982e-05 1.36831)
(1.33809 0.548323 -0.127309 1.33809 -1.83654e-05 1.33809)
(1.33809 0.548386 -0.12732 1.33811 -3.48835e-05 1.33809)
(1.30787 0.499351 -0.117839 1.30784 -1.0912e-06 1.30787)