/*--------------------------------*- C++ -*----------------------------------*\
| =========                 |                                                 |
| \\      /  F ield         | OpenFOAM: The Open Source CFD Toolbox           |
|  \\    /   O peration     | Version:  2012                                  |
|   \\  /    A nd           | Website:  www.openfoam.com                      |
|    \\/     M anipulation  |                                                 |
\*---------------------------------------------------------------------------*/
FoamFile
{
    version     2.0;
    format      ascii;
    class       volScalarField;
    location    "13000";
    object      k;
}
// * * * * * * * * * * * * * * * * * * * * * * * * * * * * * * * * * * * * * //

dimensions      [0 2 -2 0 0 0 0];


internalField   nonuniform List<scalar> 
2560
(
0.000152251
0.000152251
0.00230028
0.00230028
0.0164304
0.0164303
0.0603858
0.0603858
0.156237
0.156237
0.32299
0.32299
0.563352
0.563352
0.856507
0.856507
1.17211
1.17211
1.48844
1.48844
1.79567
1.79567
2.09109
2.09109
2.37498
2.37498
2.64862
2.64862
2.91346
2.91346
3.17084
3.17084
3.42188
3.42188
3.66754
3.66754
3.90854
3.90854
4.14547
4.14547
4.37877
4.37877
4.60872
4.60872
4.83551
4.83551
5.05918
5.05918
5.2797
5.2797
5.4969
5.4969
5.71054
5.71054
5.92025
5.92025
6.12559
6.12559
6.32602
6.32602
6.52091
6.52091
6.70956
6.70956
6.89117
6.89117
7.06489
7.06489
7.2298
7.2298
7.38495
7.38495
7.52933
7.52933
7.66191
7.66191
7.78165
7.78165
7.88753
7.88753
7.97853
7.97853
8.05369
8.05369
8.11211
8.11211
8.15297
8.15297
8.17556
8.17556
8.17929
8.17929
8.16373
8.16373
8.12864
8.12864
8.07396
8.07396
7.99987
7.99987
7.90679
7.90679
7.7954
7.7954
7.66667
7.66667
7.52183
7.52183
7.36244
7.36244
7.19029
7.19029
7.00748
7.00748
6.81631
6.81631
6.61931
6.61931
6.41915
6.41915
6.21858
6.21858
6.02036
6.02036
5.82721
5.82721
5.64169
5.64169
5.46613
5.46613
5.30253
5.30253
5.15251
5.15251
5.01723
5.01723
4.89738
4.89738
4.79308
4.79308
4.70397
4.70397
4.62926
4.62926
4.56773
4.56773
4.51789
4.51789
4.478
4.478
4.44626
4.44626
4.42083
4.42083
4.39994
4.39994
4.38198
4.38198
4.36551
4.36551
4.3493
4.3493
4.33233
4.33233
4.3138
4.3138
4.29309
4.29309
4.26978
4.26978
4.24357
4.24357
4.2143
4.2143
4.18189
4.18189
4.14635
4.14635
4.10772
4.10772
4.06612
4.06612
4.02166
4.02166
3.97449
3.97449
3.92478
3.92478
3.8727
3.8727
3.8184
3.8184
3.76207
3.76207
3.70387
3.70387
3.64398
3.64398
3.58258
3.58258
3.51982
3.51982
3.45587
3.45587
3.39089
3.39089
3.32504
3.32504
3.25846
3.25846
3.19131
3.19131
3.12373
3.12373
3.05584
3.05584
2.98779
2.98779
2.91969
2.91969
2.85165
2.85165
2.78379
2.78379
2.71621
2.71621
2.649
2.649
2.58226
2.58226
2.51605
2.51605
2.45047
2.45047
2.38556
2.38556
2.3214
2.3214
2.25804
2.25804
2.19552
2.19552
2.1339
2.1339
2.0732
2.0732
2.01345
2.01345
1.95469
1.95469
1.89693
1.89693
1.8402
1.8402
1.78449
1.78449
1.72983
1.72983
1.67622
1.67622
1.62366
1.62366
1.57216
1.57216
1.52172
1.52172
1.47234
1.47234
1.42401
1.42401
1.37674
1.37674
1.33051
1.33051
1.28534
1.28534
1.2412
1.2412
1.1981
1.1981
1.15602
1.15602
1.11496
1.11496
1.0749
1.0749
1.03585
1.03585
0.99779
0.99779
0.96071
0.96071
0.924603
0.924603
0.889461
0.889461
0.855276
0.855276
0.822041
0.822041
0.789749
0.789749
0.758393
0.758393
0.727969
0.727969
0.698471
0.698471
0.669894
0.669894
0.642236
0.642236
0.615491
0.615491
0.589657
0.589657
0.564728
0.564728
0.540699
0.540699
0.517562
0.517562
0.495306
0.495306
0.473918
0.473918
0.45338
0.45338
0.433671
0.433671
0.414765
0.414765
0.396633
0.396633
0.379243
0.379243
0.36256
0.36256
0.346549
0.346549
0.331173
0.331173
0.316398
0.316398
0.302195
0.302195
0.288534
0.288534
0.275394
0.275394
0.262756
0.262756
0.250605
0.250605
0.238927
0.238927
0.227714
0.227714
0.216956
0.216956
0.206644
0.206644
0.196769
0.196769
0.187322
0.187322
0.178291
0.178292
0.169665
0.169665
0.161428
0.161428
0.153566
0.153566
0.146064
0.146064
0.138906
0.138906
0.132078
0.132078
0.125567
0.125567
0.119364
0.119364
0.11346
0.11346
0.107849
0.107849
0.102527
0.102527
0.0974891
0.0974891
0.0927338
0.0927338
0.088259
0.088259
0.0840627
0.0840627
0.0801433
0.0801433
0.0764981
0.0764981
0.0731234
0.0731234
0.0700142
0.0700142
0.0671637
0.0671637
0.0645634
0.0645634
0.0622024
0.0622024
0.0600674
0.0600674
0.0581431
0.0581431
0.0564135
0.0564135
0.0548632
0.0548632
0.0534786
0.0534786
0.0522479
0.0522479
0.05116
0.05116
0.0502038
0.0502038
0.0493669
0.0493669
0.0486354
0.0486354
0.0479929
0.0479929
0.0474212
0.0474212
0.0468994
0.0468994
0.0464039
0.0464039
0.0459104
0.0459104
0.0453963
0.0453963
0.0448456
0.0448456
0.0442518
0.0442518
0.0436188
0.0436188
0.0429591
0.0429591
0.0422888
0.0422888
0.0416229
0.0416229
0.0409695
0.0409695
0.0403283
0.0403283
0.0396915
0.0396915
0.0390483
0.0390483
0.0383894
0.0383894
0.0377104
0.0377104
0.0370117
0.0370118
0.036298
0.036298
0.0355782
0.0355782
0.0348669
0.0348669
0.0341847
0.0341847
0.0335564
0.0335564
0.0330064
0.0330064
0.0325535
0.0325535
0.0322088
0.0322088
0.031975
0.031975
0.0318469
0.0318469
0.0318111
0.0318111
0.0318443
0.0318443
0.0319098
0.0319099
0.0319583
0.0319583
0.0319385
0.0319385
0.0318167
0.0318167
0.0315916
0.0315916
0.0312937
0.0312937
0.030974
0.030974
0.0306882
0.0306882
0.0304786
0.0304786
0.0303645
0.0303645
0.0303481
0.0303481
0.0304204
0.0304204
0.0305637
0.0305637
0.030763
0.030763
0.031019
0.031019
0.0313472
0.0313472
0.0317655
0.0317655
0.0322756
0.0322756
0.0328617
0.0328617
0.0334987
0.0334987
0.034165
0.034165
0.0348488
0.0348488
0.0355482
0.0355482
0.0362713
0.0362713
0.037036
0.037036
0.0378659
0.0378659
0.0387812
0.0387812
0.0397906
0.0397906
0.0408897
0.0408897
0.0420612
0.0420612
0.043278
0.043278
0.0445039
0.0445039
0.0457052
0.0457052
0.0468615
0.0468615
0.0479564
0.0479564
0.048955
0.048955
0.0497862
0.0497862
0.0503524
0.0503524
0.0505669
0.050567
0.0503886
0.0503886
0.0498216
0.0498216
0.0489028
0.0489029
0.0477227
0.0477227
0.046439
0.046439
0.0452125
0.0452126
0.0440945
0.0440945
0.0430684
0.0430684
0.0421375
0.0421375
0.0413183
0.0413183
0.0405818
0.0405818
0.0398365
0.0398365
0.0389994
0.0389994
0.0380442
0.0380442
0.0370012
0.0370012
0.0359244
0.0359244
0.0348576
0.0348576
0.0338261
0.0338261
0.0328533
0.0328534
0.0319676
0.0319676
0.0311604
0.0311604
0.0303788
0.0303788
0.0296012
0.0296012
0.028859
0.028859
0.0281991
0.0281991
0.0276297
0.0276297
0.0271463
0.0271463
0.0267403
0.0267403
0.0263853
0.0263853
0.0260323
0.0260324
0.0256697
0.0256698
0.025358
0.0253582
0.0251436
0.0251438
0.0250299
0.0250302
0.000152251
0.000152251
0.00230028
0.00230028
0.0164304
0.0164304
0.0603859
0.0603859
0.156237
0.156237
0.32299
0.32299
0.563352
0.563352
0.856508
0.856508
1.17211
1.17211
1.48844
1.48844
1.79567
1.79567
2.09109
2.09109
2.37498
2.37498
2.64862
2.64862
2.91346
2.91346
3.17084
3.17084
3.42189
3.42189
3.66754
3.66754
3.90854
3.90854
4.14547
4.14547
4.37877
4.37877
4.60872
4.60872
4.83551
4.83551
5.05918
5.05918
5.2797
5.2797
5.4969
5.4969
5.71054
5.71054
5.92025
5.92025
6.12559
6.12559
6.32602
6.32602
6.52092
6.52092
6.70956
6.70956
6.89117
6.89117
7.06489
7.06489
7.22981
7.22981
7.38496
7.38496
7.52933
7.52933
7.66191
7.66191
7.78165
7.78165
7.88753
7.88753
7.97853
7.97853
8.0537
8.0537
8.11212
8.11212
8.15298
8.15298
8.17556
8.17556
8.1793
8.1793
8.16374
8.16374
8.12865
8.12865
8.07397
8.07397
7.99988
7.99988
7.9068
7.9068
7.79541
7.79541
7.66668
7.66668
7.52184
7.52184
7.36244
7.36244
7.1903
7.1903
7.00748
7.00748
6.81632
6.81632
6.61932
6.61932
6.41916
6.41916
6.21858
6.21858
6.02037
6.02037
5.82722
5.82722
5.6417
5.6417
5.46613
5.46613
5.30254
5.30254
5.15252
5.15252
5.01724
5.01724
4.89738
4.89738
4.79308
4.79308
4.70398
4.70398
4.62926
4.62926
4.56774
4.56774
4.51789
4.51789
4.478
4.478
4.44626
4.44626
4.42083
4.42083
4.39994
4.39994
4.38199
4.38199
4.36552
4.36552
4.3493
4.3493
4.33233
4.33233
4.3138
4.3138
4.2931
4.2931
4.26979
4.26979
4.24358
4.24358
4.2143
4.2143
4.18189
4.18189
4.14635
4.14635
4.10772
4.10772
4.06612
4.06612
4.02166
4.02166
3.9745
3.9745
3.92479
3.92479
3.8727
3.8727
3.8184
3.8184
3.76207
3.76207
3.70387
3.70387
3.64399
3.64399
3.58258
3.58258
3.51982
3.51982
3.45587
3.45587
3.39089
3.39089
3.32504
3.32504
3.25847
3.25847
3.19131
3.19131
3.12373
3.12373
3.05585
3.05585
2.98779
2.98779
2.91969
2.91969
2.85165
2.85165
2.78379
2.78379
2.71621
2.71621
2.64901
2.64901
2.58226
2.58226
2.51606
2.51606
2.45047
2.45047
2.38556
2.38556
2.3214
2.3214
2.25804
2.25804
2.19553
2.19553
2.1339
2.1339
2.0732
2.0732
2.01346
2.01346
1.95469
1.95469
1.89694
1.89694
1.8402
1.8402
1.78449
1.78449
1.72983
1.72983
1.67622
1.67622
1.62366
1.62366
1.57216
1.57216
1.52172
1.52172
1.47234
1.47234
1.42401
1.42401
1.37674
1.37674
1.33052
1.33052
1.28534
1.28534
1.2412
1.2412
1.1981
1.1981
1.15602
1.15602
1.11496
1.11496
1.0749
1.0749
1.03585
1.03585
0.997791
0.997791
0.960711
0.960711
0.924604
0.924604
0.889462
0.889462
0.855277
0.855277
0.822042
0.822042
0.789749
0.789749
0.758394
0.758394
0.727969
0.727969
0.698471
0.698471
0.669895
0.669895
0.642236
0.642236
0.615492
0.615492
0.589658
0.589658
0.564729
0.564729
0.540699
0.540699
0.517562
0.517562
0.495306
0.495306
0.473918
0.473918
0.45338
0.45338
0.433671
0.433671
0.414765
0.414765
0.396633
0.396633
0.379243
0.379243
0.362561
0.362561
0.346549
0.346549
0.331173
0.331173
0.316399
0.316399
0.302195
0.302195
0.288534
0.288534
0.275394
0.275394
0.262756
0.262756
0.250605
0.250605
0.238928
0.238928
0.227714
0.227714
0.216956
0.216956
0.206644
0.206644
0.196769
0.196769
0.187322
0.187322
0.178292
0.178292
0.169665
0.169665
0.161428
0.161428
0.153566
0.153566
0.146064
0.146064
0.138906
0.138906
0.132078
0.132078
0.125567
0.125568
0.119364
0.119364
0.11346
0.11346
0.107849
0.107849
0.102527
0.102527
0.097489
0.097489
0.0927338
0.0927338
0.0882589
0.0882589
0.0840626
0.0840626
0.0801432
0.0801432
0.076498
0.076498
0.0731232
0.0731232
0.0700139
0.070014
0.0671634
0.0671635
0.0645631
0.0645631
0.062202
0.062202
0.060067
0.060067
0.0581427
0.0581427
0.056413
0.056413
0.0548626
0.0548626
0.053478
0.053478
0.0522472
0.0522472
0.0511593
0.0511593
0.0502031
0.0502031
0.0493662
0.0493662
0.0486346
0.0486346
0.0479922
0.0479922
0.0474205
0.0474205
0.0468987
0.0468987
0.0464032
0.0464032
0.0459097
0.0459097
0.0453957
0.0453957
0.044845
0.0448451
0.0442513
0.0442513
0.0436183
0.0436183
0.0429587
0.0429587
0.0422885
0.0422885
0.0416226
0.0416226
0.0409692
0.0409692
0.0403281
0.0403281
0.0396913
0.0396914
0.0390481
0.0390481
0.0383893
0.0383893
0.0377104
0.0377104
0.0370118
0.0370118
0.036298
0.036298
0.0355782
0.0355782
0.034867
0.034867
0.0341848
0.0341848
0.0335564
0.0335565
0.0330063
0.0330064
0.0325534
0.0325534
0.0322086
0.0322086
0.0319747
0.0319747
0.0318465
0.0318465
0.0318107
0.0318107
0.0318439
0.0318439
0.0319095
0.0319095
0.031958
0.031958
0.0319383
0.0319383
0.0318167
0.0318167
0.0315917
0.0315917
0.0312939
0.0312939
0.0309743
0.0309743
0.0306885
0.0306885
0.0304789
0.0304789
0.0303648
0.0303648
0.0303483
0.0303483
0.0304205
0.0304206
0.0305639
0.0305639
0.0307631
0.0307631
0.0310191
0.0310191
0.0313472
0.0313472
0.0317653
0.0317653
0.0322752
0.0322752
0.0328613
0.0328613
0.0334982
0.0334982
0.0341645
0.0341645
0.0348483
0.0348483
0.0355478
0.0355478
0.0362708
0.0362708
0.0370354
0.0370354
0.037865
0.037865
0.03878
0.03878
0.039789
0.039789
0.0408878
0.0408878
0.0420591
0.0420591
0.0432756
0.0432756
0.0445013
0.0445013
0.0457025
0.0457025
0.0468588
0.0468588
0.0479538
0.0479538
0.0489526
0.0489526
0.0497842
0.0497842
0.050351
0.050351
0.0505664
0.0505664
0.050389
0.050389
0.0498229
0.0498229
0.0489048
0.0489048
0.0477249
0.0477249
0.046441
0.046441
0.0452139
0.0452139
0.0440953
0.0440953
0.0430686
0.0430687
0.0421372
0.0421372
0.0413174
0.0413174
0.0405806
0.0405806
0.0398354
0.0398354
0.0389986
0.0389987
0.0380439
0.038044
0.0370014
0.0370014
0.0359249
0.0359249
0.0348582
0.0348583
0.0338267
0.0338267
0.0328537
0.0328537
0.0319677
0.0319677
0.0311604
0.0311604
0.0303789
0.0303789
0.0296015
0.0296015
0.0288592
0.0288592
0.028199
0.028199
0.0276292
0.0276292
0.0271456
0.0271456
0.0267395
0.0267394
0.0263845
0.0263844
0.0260318
0.0260316
0.0256693
0.0256691
0.0253575
0.0253573
0.025143
0.0251427
0.0250293
0.025029
0.025023
0.0250233
0.0251228
0.0251231
0.0253235
0.0253236
0.0256218
0.0256219
0.0259742
0.0259742
0.0263214
0.0263214
0.0266741
0.0266742
0.0270765
0.0270765
0.0275593
0.0275593
0.0281301
0.0281301
0.0287908
0.0287908
0.0295356
0.0295356
0.0303181
0.0303181
0.0311091
0.0311091
0.0319329
0.0319329
0.0328377
0.0328377
0.0338288
0.0338288
0.0348791
0.0348791
0.0359661
0.0359661
0.0370628
0.0370628
0.0381197
0.0381197
0.0390819
0.0390819
0.0399221
0.0399221
0.0406726
0.0406726
0.0414206
0.0414207
0.0422503
0.0422503
0.0431914
0.0431914
0.0442281
0.0442281
0.0453572
0.0453572
0.0465947
0.0465947
0.0478953
0.0478954
0.0490909
0.0490909
0.0500144
0.0500144
0.0505736
0.0505736
0.0507323
0.0507323
0.0504887
0.0504887
0.0498994
0.0498994
0.049056
0.049056
0.0480531
0.0480531
0.0469591
0.0469591
0.0458046
0.0458046
0.0446052
0.0446052
0.0433808
0.0433808
0.0421639
0.0421639
0.0409913
0.0409913
0.0398912
0.0398912
0.0388806
0.0388806
0.0379643
0.0379643
0.0371327
0.0371327
0.0363652
0.0363652
0.0356381
0.0356381
0.0349336
0.0349336
0.0342467
0.0342467
0.0335782
0.0335782
0.0329368
0.0329368
0.0323452
0.0323452
0.0318299
0.0318299
0.0314062
0.0314062
0.0310721
0.0310721
0.0308119
0.0308119
0.0306096
0.0306096
0.0304614
0.0304614
0.0303823
0.0303823
0.0303907
0.0303907
0.0304956
0.0304956
0.0306952
0.0306952
0.0309726
0.0309726
0.0312872
0.0312872
0.0315796
0.0315796
0.0317951
0.0317951
0.0319035
0.0319035
0.0319129
0.031913
0.03186
0.03186
0.031794
0.031794
0.0317646
0.0317646
0.0318078
0.0318078
0.0319447
0.0319447
0.0321863
0.0321863
0.0325359
0.0325359
0.0329897
0.0329897
0.0335376
0.0335376
0.034162
0.034162
0.0348395
0.0348395
0.0355469
0.0355469
0.0362632
0.0362632
0.0369728
0.0369728
0.0376696
0.0376696
0.0383498
0.0383498
0.0390089
0.0390089
0.0396528
0.0396528
0.0402939
0.0402939
0.040942
0.040942
0.0416044
0.0416044
0.0422831
0.0422831
0.0429673
0.0429673
0.0436368
0.0436368
0.0442753
0.0442753
0.0448732
0.0448732
0.0454256
0.0454256
0.04594
0.04594
0.0464359
0.0464359
0.0469352
0.0469352
0.0474597
0.0474597
0.0480322
0.0480322
0.0486721
0.0486721
0.0493971
0.0493971
0.0502261
0.0502261
0.0511747
0.0511747
0.0522543
0.0522543
0.0534776
0.0534776
0.0548576
0.0548576
0.0564056
0.0564056
0.0581345
0.0581345
0.0600592
0.0600592
0.0621948
0.0621948
0.0645564
0.0645564
0.0671581
0.0671581
0.0700106
0.0700106
0.0731217
0.0731217
0.0764979
0.0764979
0.0801439
0.0801439
0.0840628
0.0840628
0.0882582
0.0882582
0.0927333
0.0927333
0.0974896
0.0974896
0.102527
0.102527
0.107849
0.107849
0.113459
0.113459
0.119364
0.119364
0.125568
0.125568
0.13208
0.13208
0.138909
0.138909
0.146065
0.146065
0.153565
0.153565
0.161424
0.161424
0.169658
0.169658
0.178282
0.178282
0.187311
0.187311
0.196757
0.196757
0.206631
0.206631
0.216942
0.216942
0.2277
0.2277
0.238913
0.238913
0.250591
0.250591
0.262745
0.262745
0.275385
0.275385
0.288523
0.288523
0.302181
0.302181
0.316383
0.316383
0.331158
0.331158
0.346537
0.346537
0.362553
0.362553
0.37924
0.37924
0.396634
0.396634
0.414767
0.414767
0.433675
0.433675
0.453385
0.453385
0.473923
0.473923
0.495311
0.495311
0.517565
0.517565
0.5407
0.5407
0.564727
0.564727
0.589654
0.589654
0.615487
0.615487
0.64223
0.64223
0.669886
0.669886
0.698461
0.698461
0.727956
0.727956
0.758378
0.758378
0.78973
0.78973
0.822019
0.822019
0.855252
0.855252
0.889434
0.889434
0.924573
0.924573
0.960678
0.960678
0.997757
0.997757
1.03582
1.03582
1.07488
1.07488
1.11494
1.11494
1.156
1.156
1.19809
1.19809
1.24121
1.24121
1.28536
1.28536
1.33056
1.33056
1.37679
1.37679
1.42407
1.42407
1.4724
1.4724
1.52179
1.52179
1.57224
1.57224
1.62375
1.62375
1.67632
1.67632
1.72997
1.72997
1.78466
1.78466
1.84039
1.84039
1.89715
1.89715
1.95492
1.95492
2.0137
2.0137
2.07345
2.07345
2.13416
2.13416
2.19579
2.19579
2.2583
2.2583
2.32164
2.32164
2.38578
2.38578
2.45065
2.45065
2.51616
2.51616
2.5823
2.5823
2.64899
2.64899
2.71616
2.71616
2.78372
2.78372
2.85157
2.85157
2.91958
2.91958
2.98767
2.98767
3.05571
3.05571
3.12357
3.12357
3.19115
3.19115
3.25829
3.25829
3.3248
3.3248
3.39061
3.39061
3.45558
3.45558
3.51954
3.51954
3.58231
3.58231
3.64378
3.64378
3.70376
3.70376
3.76204
3.76204
3.81846
3.81846
3.87283
3.87283
3.92494
3.92494
3.97459
3.97459
4.02161
4.02161
4.06582
4.06582
4.10719
4.10719
4.14568
4.14568
4.18122
4.18122
4.21367
4.21367
4.24296
4.24296
4.26915
4.26915
4.29241
4.29241
4.31299
4.31299
4.33139
4.33139
4.34822
4.34822
4.36429
4.36429
4.38066
4.38066
4.39859
4.39859
4.41947
4.41947
4.44497
4.44497
4.47682
4.47682
4.5168
4.5168
4.5667
4.5667
4.62827
4.62827
4.70302
4.70302
4.79216
4.79216
4.89648
4.89648
5.01634
5.01634
5.15163
5.15163
5.30166
5.30166
5.46528
5.46528
5.64088
5.64088
5.82643
5.82643
6.01959
6.01959
6.21777
6.21777
6.41832
6.41832
6.61854
6.61854
6.81566
6.81566
7.00697
7.00697
7.18996
7.18996
7.36231
7.36231
7.52195
7.52195
7.66713
7.66713
7.79624
7.79624
7.90786
7.90786
8.00104
8.00104
8.07528
8.07528
8.13024
8.13024
8.16562
8.16562
8.18136
8.18136
8.17782
8.17782
8.15542
8.15542
8.11471
8.11471
8.0564
8.0564
7.98133
7.98133
7.89042
7.89042
7.78458
7.78458
7.66482
7.66482
7.53221
7.53221
7.3878
7.3878
7.23258
7.23258
7.06759
7.06759
6.89379
6.89379
6.71208
6.71208
6.52331
6.52331
6.32831
6.32831
6.12782
6.12782
5.92244
5.92244
5.71268
5.71268
5.499
5.499
5.28174
5.28174
5.06115
5.06115
4.83739
4.83739
4.61052
4.61052
4.38046
4.38046
4.14707
4.14707
3.91005
3.91005
3.66896
3.66896
3.42322
3.42322
3.17208
3.17209
2.91463
2.91463
2.6497
2.6497
2.37597
2.37597
2.092
2.092
1.79649
1.79649
1.48915
1.48916
1.17271
1.17271
0.85699
0.85699
0.563696
0.563696
0.3232
0.3232
0.156342
0.156342
0.0604268
0.0604268
0.0164416
0.0164416
0.00230183
0.00230183
0.00015232
0.000152321
0.0250223
0.0250221
0.0251223
0.0251221
0.0253232
0.025323
0.0256218
0.0256216
0.0259739
0.0259737
0.0263208
0.0263207
0.0266735
0.0266734
0.027076
0.027076
0.027559
0.027559
0.02813
0.0281301
0.028791
0.028791
0.0295358
0.0295359
0.0303182
0.0303183
0.0311091
0.0311091
0.031933
0.0319331
0.0328381
0.0328382
0.0338294
0.0338294
0.0348798
0.0348798
0.0359667
0.0359667
0.0370631
0.0370631
0.0381196
0.0381196
0.0390813
0.0390813
0.0399212
0.0399212
0.0406717
0.0406717
0.0414201
0.0414201
0.0422502
0.0422503
0.0431919
0.0431919
0.0442289
0.0442289
0.0453586
0.0453586
0.0465967
0.0465967
0.0478975
0.0478975
0.0490929
0.0490929
0.0500157
0.0500157
0.050574
0.050574
0.0507317
0.0507317
0.0504873
0.0504873
0.0498974
0.0498974
0.0490536
0.0490536
0.0480506
0.0480506
0.0469565
0.0469565
0.045802
0.045802
0.0446027
0.0446027
0.0433785
0.0433784
0.0421617
0.0421617
0.0409895
0.0409895
0.0398896
0.0398896
0.0388794
0.0388794
0.0379634
0.0379634
0.037132
0.037132
0.0363647
0.0363647
0.0356376
0.0356376
0.0349331
0.0349331
0.0342462
0.0342462
0.0335777
0.0335777
0.0329364
0.0329364
0.0323449
0.0323449
0.0318297
0.0318297
0.0314062
0.0314062
0.0310721
0.0310721
0.030812
0.030812
0.0306097
0.0306097
0.0304616
0.0304616
0.0303825
0.0303825
0.0303909
0.0303909
0.0304958
0.0304958
0.0306955
0.0306955
0.0309728
0.0309729
0.0312874
0.0312874
0.0315797
0.0315797
0.0317951
0.0317951
0.0319033
0.0319033
0.0319126
0.0319127
0.0318596
0.0318596
0.0317936
0.0317936
0.0317642
0.0317642
0.0318075
0.0318075
0.0319444
0.0319444
0.0321861
0.0321861
0.0325357
0.0325357
0.0329897
0.0329897
0.0335376
0.0335377
0.0341621
0.0341621
0.0348396
0.0348396
0.035547
0.035547
0.0362633
0.0362633
0.0369728
0.0369728
0.0376696
0.0376696
0.0383497
0.0383497
0.0390088
0.0390088
0.0396526
0.0396526
0.0402937
0.0402937
0.0409417
0.0409417
0.0416041
0.0416041
0.0422827
0.0422827
0.0429668
0.0429668
0.0436363
0.0436363
0.0442748
0.0442748
0.0448726
0.0448726
0.0454249
0.045425
0.0459394
0.0459394
0.0464352
0.0464352
0.0469345
0.0469345
0.047459
0.047459
0.0480314
0.0480314
0.0486714
0.0486714
0.0493964
0.0493964
0.0502254
0.0502254
0.051174
0.051174
0.0522536
0.0522536
0.053477
0.053477
0.054857
0.054857
0.0564051
0.0564051
0.058134
0.058134
0.0600588
0.0600588
0.0621944
0.0621944
0.064556
0.064556
0.0671578
0.0671578
0.0700103
0.0700103
0.0731215
0.0731215
0.0764978
0.0764978
0.0801437
0.0801437
0.0840627
0.0840627
0.0882581
0.0882581
0.0927332
0.0927332
0.0974895
0.0974895
0.102527
0.102527
0.107849
0.107849
0.113459
0.113459
0.119364
0.119364
0.125568
0.125568
0.13208
0.13208
0.138909
0.138909
0.146065
0.146065
0.153565
0.153565
0.161424
0.161424
0.169658
0.169658
0.178282
0.178282
0.187311
0.187311
0.196757
0.196757
0.206631
0.206631
0.216943
0.216943
0.2277
0.2277
0.238913
0.238913
0.250591
0.250591
0.262745
0.262745
0.275385
0.275385
0.288523
0.288523
0.302181
0.302181
0.316383
0.316383
0.331159
0.331159
0.346537
0.346537
0.362553
0.362553
0.37924
0.37924
0.396634
0.396634
0.414768
0.414768
0.433675
0.433675
0.453385
0.453385
0.473923
0.473923
0.495311
0.495311
0.517565
0.517565
0.5407
0.5407
0.564727
0.564727
0.589655
0.589655
0.615487
0.615487
0.64223
0.64223
0.669887
0.669887
0.698461
0.698461
0.727957
0.727957
0.758378
0.758378
0.789731
0.789731
0.82202
0.82202
0.855252
0.855252
0.889434
0.889434
0.924574
0.924574
0.960679
0.960679
0.997757
0.997757
1.03582
1.03582
1.07488
1.07488
1.11494
1.11494
1.156
1.156
1.19809
1.19809
1.24121
1.24121
1.28536
1.28536
1.33056
1.33056
1.37679
1.37679
1.42407
1.42407
1.4724
1.4724
1.52179
1.52179
1.57224
1.57224
1.62375
1.62375
1.67633
1.67633
1.72997
1.72997
1.78466
1.78466
1.84039
1.84039
1.89715
1.89715
1.95493
1.95493
2.0137
2.0137
2.07345
2.07345
2.13416
2.13416
2.19579
2.19579
2.2583
2.2583
2.32165
2.32165
2.38579
2.38579
2.45065
2.45065
2.51617
2.51617
2.5823
2.5823
2.64899
2.64899
2.71616
2.71616
2.78373
2.78373
2.85157
2.85157
2.91958
2.91958
2.98767
2.98767
3.05571
3.05571
3.12358
3.12358
3.19116
3.19116
3.25829
3.25829
3.32481
3.32481
3.39061
3.39061
3.45559
3.45559
3.51954
3.51954
3.58232
3.58232
3.64378
3.64378
3.70376
3.70376
3.76205
3.76205
3.81846
3.81846
3.87283
3.87283
3.92494
3.92494
3.9746
3.9746
4.02161
4.02161
4.06582
4.06582
4.10719
4.10719
4.14568
4.14568
4.18122
4.18122
4.21367
4.21367
4.24296
4.24296
4.26915
4.26915
4.29241
4.29241
4.313
4.313
4.33139
4.33139
4.34823
4.34823
4.36429
4.36429
4.38067
4.38067
4.39859
4.39859
4.41948
4.41948
4.44497
4.44497
4.47682
4.47682
4.5168
4.5168
4.56671
4.56671
4.62827
4.62827
4.70302
4.70302
4.79216
4.79216
4.89648
4.89648
5.01635
5.01635
5.15164
5.15164
5.30167
5.30167
5.46529
5.46529
5.64089
5.64089
5.82644
5.82644
6.0196
6.0196
6.21777
6.21777
6.41832
6.41832
6.61855
6.61855
6.81566
6.81566
7.00698
7.00698
7.18997
7.18997
7.36232
7.36232
7.52196
7.52196
7.66713
7.66713
7.79624
7.79624
7.90786
7.90786
8.00105
8.00105
8.07529
8.07529
8.13025
8.13025
8.16562
8.16562
8.18137
8.18137
8.17782
8.17782
8.15543
8.15543
8.11472
8.11472
8.0564
8.0564
7.98134
7.98134
7.89043
7.89043
7.78459
7.78459
7.66483
7.66483
7.53222
7.53222
7.3878
7.3878
7.23259
7.23259
7.0676
7.0676
6.8938
6.8938
6.71208
6.71208
6.52331
6.52331
6.32832
6.32832
6.12782
6.12782
5.92244
5.92244
5.71268
5.71268
5.499
5.499
5.28174
5.28174
5.06115
5.06115
4.83739
4.83739
4.61052
4.61052
4.38047
4.38047
4.14707
4.14707
3.91005
3.91005
3.66896
3.66896
3.42322
3.42322
3.17209
3.17209
2.91463
2.91463
2.6497
2.6497
2.37598
2.37598
2.092
2.092
1.79649
1.79649
1.48916
1.48916
1.17272
1.17272
0.856991
0.856991
0.563697
0.563697
0.3232
0.3232
0.156342
0.156342
0.0604269
0.0604269
0.0164416
0.0164416
0.00230184
0.00230184
0.000152321
0.000152321
)
;

boundaryField
{
    walls
    {
        type            kqRWallFunction;
        value           nonuniform List<scalar> 8(0.000152251 0.000152251 0.000152251 0.000152251 0.00015232 0.000152321 0.000152321 0.000152321);
    }
    inlet
    {
        type            cyclic;
    }
    outlet
    {
        type            cyclic;
    }
    sides
    {
        type            empty;
    }
}


// ************************************************************************* //
