/*--------------------------------*- C++ -*----------------------------------*\
| =========                 |                                                 |
| \\      /  F ield         | OpenFOAM: The Open Source CFD Toolbox           |
|  \\    /   O peration     | Version:  2012                                  |
|   \\  /    A nd           | Website:  www.openfoam.com                      |
|    \\/     M anipulation  |                                                 |
\*---------------------------------------------------------------------------*/
FoamFile
{
    version     2.0;
    format      ascii;
    class       surfaceScalarField;
    location    "13000";
    object      phi;
}
// * * * * * * * * * * * * * * * * * * * * * * * * * * * * * * * * * * * * * //

dimensions      [0 3 -1 0 0 0 0];
oriented        oriented;


internalField   nonuniform List<scalar> 
5116
(
2.47464e-07
-1.0633e-12
2.71687e-13
-1.77657e-14
1.51952e-13
7.55374e-07
-1.68719e-12
4.24182e-13
-4.56369e-14
2.37381e-13
1.28391e-06
-2.33835e-12
4.41015e-13
-7.61214e-14
2.46868e-13
1.83367e-06
-2.999e-12
4.51703e-13
-1.0592e-13
2.5288e-13
2.40522e-06
-3.65484e-12
4.43067e-13
-1.37841e-13
2.48049e-13
2.9991e-06
-4.24111e-12
3.99695e-13
-1.66305e-13
2.23764e-13
3.61582e-06
-4.72609e-12
3.25628e-13
-1.90737e-13
1.82296e-13
4.25592e-06
-5.08928e-12
2.47554e-13
-2.08722e-13
1.38588e-13
4.91998e-06
-5.36747e-12
1.85576e-13
-2.2294e-13
1.03891e-13
5.60872e-06
-5.57546e-12
1.42375e-13
-2.32855e-13
7.97057e-14
6.32298e-06
-5.74666e-12
1.13263e-13
-2.41721e-13
6.34078e-14
7.06377e-06
-5.88261e-12
9.34113e-14
-2.48055e-13
5.22941e-14
7.83229e-06
-6.00361e-12
7.94909e-14
-2.5443e-13
4.4501e-14
8.62991e-06
-6.1043e-12
6.94277e-14
-2.59019e-13
3.88673e-14
9.4582e-06
-6.19929e-12
6.1947e-14
-2.64138e-13
3.46793e-14
1.03189e-05
-6.28066e-12
5.62517e-14
-2.67788e-13
3.14908e-14
1.12141e-05
-6.36056e-12
5.18297e-14
-2.72169e-13
2.90152e-14
1.21459e-05
-6.43035e-12
4.83421e-14
-2.75256e-13
2.70627e-14
1.31166e-05
-6.50096e-12
4.55579e-14
-2.79208e-13
2.5504e-14
1.41289e-05
-6.56342e-12
4.3316e-14
-2.81947e-13
2.42488e-14
1.51854e-05
-6.62798e-12
4.15008e-14
-2.85616e-13
2.32325e-14
1.62893e-05
-6.68569e-12
4.00281e-14
-2.88137e-13
2.2408e-14
1.74434e-05
-6.7463e-12
3.88351e-14
-2.91644e-13
2.174e-14
1.86511e-05
-6.80093e-12
3.78747e-14
-2.94033e-13
2.12022e-14
1.99158e-05
-6.85898e-12
3.71104e-14
-2.97437e-13
2.07743e-14
2.12407e-05
-6.91172e-12
3.65142e-14
-2.99754e-13
2.04404e-14
2.26295e-05
-6.96823e-12
3.60643e-14
-3.03122e-13
2.01885e-14
2.40855e-05
-7.01994e-12
3.57436e-14
-3.05417e-13
2.00088e-14
2.56123e-05
-7.07569e-12
3.55384e-14
-3.08779e-13
1.98937e-14
2.72132e-05
-7.12707e-12
3.54379e-14
-3.11087e-13
1.98374e-14
2.88915e-05
-7.18267e-12
3.54338e-14
-3.14486e-13
1.9835e-14
3.06503e-05
-7.23428e-12
3.55198e-14
-3.16837e-13
1.98829e-14
3.24927e-05
-7.29029e-12
3.56905e-14
-3.20298e-13
1.99783e-14
3.44212e-05
-7.34264e-12
3.59422e-14
-3.22719e-13
2.01191e-14
3.64383e-05
-7.39953e-12
3.62724e-14
-3.26277e-13
2.03038e-14
3.85462e-05
-7.45309e-12
3.66795e-14
-3.28796e-13
2.05314e-14
4.07466e-05
-7.51134e-12
3.71623e-14
-3.32474e-13
2.08015e-14
4.30409e-05
-7.56655e-12
3.77208e-14
-3.35112e-13
2.11139e-14
4.54301e-05
-7.62659e-12
3.83555e-14
-3.38938e-13
2.1469e-14
4.79147e-05
-7.68391e-12
3.90677e-14
-3.41724e-13
2.18675e-14
5.04947e-05
-7.74624e-12
3.98589e-14
-3.45731e-13
2.23102e-14
5.31695e-05
-7.80615e-12
4.07319e-14
-3.48697e-13
2.27985e-14
5.5938e-05
-7.87123e-12
4.16893e-14
-3.52915e-13
2.33342e-14
5.87982e-05
-7.93425e-12
4.27346e-14
-3.5609e-13
2.3919e-14
6.17476e-05
-8.00264e-12
4.38719e-14
-3.60552e-13
2.45554e-14
6.4783e-05
-8.06928e-12
4.51058e-14
-3.6394e-13
2.52457e-14
6.79001e-05
-8.14154e-12
4.64415e-14
-3.68676e-13
2.5993e-14
7.10938e-05
-8.21241e-12
4.78848e-14
-3.72317e-13
2.68004e-14
7.43582e-05
-8.28922e-12
4.94413e-14
-3.77377e-13
2.76713e-14
7.7686e-05
-8.36523e-12
5.11183e-14
-3.81545e-13
2.86095e-14
8.10692e-05
-8.4473e-12
5.29224e-14
-3.86992e-13
2.96189e-14
8.44986e-05
-8.52936e-12
5.48604e-14
-3.91899e-13
3.07042e-14
8.79637e-05
-8.61753e-12
5.69424e-14
-3.9777e-13
3.18685e-14
9.1453e-05
-8.70622e-12
5.91751e-14
-4.03136e-13
3.31161e-14
9.49539e-05
-8.80128e-12
6.15647e-14
-4.09382e-13
3.44524e-14
9.84527e-05
-8.89723e-12
6.41173e-14
-4.14946e-13
3.58818e-14
0.000101935
-9.0002e-12
6.68408e-14
-4.21656e-13
3.74065e-14
0.000105385
-9.10454e-12
6.97421e-14
-4.27584e-13
3.90286e-14
0.000108786
-9.21657e-12
7.28223e-14
-4.34908e-13
4.07508e-14
0.000112122
-9.33077e-12
7.60815e-14
-4.41675e-13
4.25741e-14
0.000115376
-9.45301e-12
7.95184e-14
-4.49744e-13
4.44968e-14
0.000118531
-9.57859e-12
8.31269e-14
-4.57922e-13
4.65156e-14
0.000121571
-9.71199e-12
8.68962e-14
-4.66736e-13
4.8626e-14
0.000124479
-9.84976e-12
9.08177e-14
-4.7621e-13
5.08179e-14
0.00012724
-9.99514e-12
9.48712e-14
-4.85702e-13
5.30821e-14
0.000129841
-1.01452e-11
9.90289e-14
-4.95741e-13
5.54096e-14
0.00013227
-1.0303e-11
1.03272e-13
-5.05847e-13
5.77848e-14
0.000134518
-1.04652e-11
1.07578e-13
-5.15844e-13
6.01934e-14
0.000136576
-1.06361e-11
1.11922e-13
-5.26763e-13
6.26222e-14
0.000138441
-1.08107e-11
1.16284e-13
-5.36728e-13
6.50611e-14
0.00014011
-1.09949e-11
1.2065e-13
-5.4869e-13
6.74997e-14
0.000141584
-1.11823e-11
1.2501e-13
-5.59131e-13
6.99351e-14
0.000142867
-1.13802e-11
1.29362e-13
-5.72362e-13
7.23686e-14
0.000143966
-1.15808e-11
1.33716e-13
-5.83697e-13
7.48024e-14
0.000144889
-1.17923e-11
1.38086e-13
-5.98197e-13
7.72461e-14
0.000145647
-1.20066e-11
1.42495e-13
-6.1077e-13
7.9709e-14
0.000146254
-1.22319e-11
1.46964e-13
-6.26487e-13
8.22068e-14
0.000146722
-1.24608e-11
1.51519e-13
-6.40765e-13
8.47556e-14
0.000147065
-1.27002e-11
1.56191e-13
-6.57603e-13
8.73701e-14
0.000147298
-1.29445e-11
1.61012e-13
-6.73829e-13
9.00643e-14
0.000147435
-1.31988e-11
1.66008e-13
-6.91654e-13
9.2856e-14
0.000147488
-1.34591e-11
1.71204e-13
-7.09449e-13
9.57573e-14
0.000147469
-1.37294e-11
1.76626e-13
-7.28095e-13
9.8783e-14
0.000147388
-1.40067e-11
1.82293e-13
-7.47123e-13
1.01949e-13
0.000147256
-1.42943e-11
1.88224e-13
-7.66657e-13
1.05265e-13
0.000147079
-1.45904e-11
1.94444e-13
-7.87164e-13
1.08743e-13
0.000146865
-1.48971e-11
2.00973e-13
-8.07769e-13
1.12391e-13
0.00014662
-1.52139e-11
2.07827e-13
-8.29947e-13
1.1622e-13
0.000146346
-1.55418e-11
2.15025e-13
-8.51804e-13
1.20241e-13
0.000146049
-1.5881e-11
2.22587e-13
-8.75466e-13
1.24462e-13
0.000145731
-1.62323e-11
2.30526e-13
-8.98678e-13
1.28896e-13
0.000145394
-1.65956e-11
2.38862e-13
-9.23365e-13
1.33555e-13
0.000145041
-1.69728e-11
2.47614e-13
-9.4813e-13
1.38447e-13
0.000144673
-1.73625e-11
2.56801e-13
-9.737e-13
1.43584e-13
0.000144291
-1.77683e-11
2.66453e-13
-1.00035e-12
1.48975e-13
0.000143896
-1.81878e-11
2.76596e-13
-1.02765e-12
1.54631e-13
0.000143491
-1.86254e-11
2.87238e-13
-1.05652e-12
1.60571e-13
0.000143075
-1.90785e-11
2.98398e-13
-1.08657e-12
1.6681e-13
0.00014265
-1.9551e-11
3.10112e-13
-1.11788e-12
1.7336e-13
0.000142216
-2.00407e-11
3.2242e-13
-1.15049e-12
1.80227e-13
0.000141776
-2.05515e-11
3.35342e-13
-1.18413e-12
1.87433e-13
0.000141328
-2.1081e-11
3.48889e-13
-1.21893e-12
1.95004e-13
0.000140876
-2.16337e-11
3.6311e-13
-1.25509e-12
2.02949e-13
0.000140419
-2.22072e-11
3.78047e-13
-1.29257e-12
2.1128e-13
0.000139958
-2.28063e-11
3.93713e-13
-1.33154e-12
2.20029e-13
0.000139494
-2.34283e-11
4.10154e-13
-1.37208e-12
2.29212e-13
0.000139028
-2.40783e-11
4.27416e-13
-1.41412e-12
2.38843e-13
0.00013856
-2.47531e-11
4.45536e-13
-1.45722e-12
2.48951e-13
0.000138092
-2.54592e-11
4.64543e-13
-1.50254e-12
2.59564e-13
0.000137623
-2.61917e-11
4.84486e-13
-1.54805e-12
2.70705e-13
0.000137154
-2.69596e-11
5.05434e-13
-1.59711e-12
2.82387e-13
0.000136686
-2.77564e-11
5.27425e-13
-1.64601e-12
2.94643e-13
0.000136219
-2.85926e-11
5.50498e-13
-1.69925e-12
3.07513e-13
0.000135753
-2.94614e-11
5.74701e-13
-1.753e-12
3.21028e-13
0.00013529
-3.03725e-11
6.00104e-13
-1.81087e-12
3.35215e-13
0.000134828
-3.1321e-11
6.26786e-13
-1.87046e-12
3.50092e-13
0.000134368
-3.23147e-11
6.54793e-13
-1.933e-12
3.65707e-13
0.000133911
-3.33509e-11
6.8419e-13
-1.99885e-12
3.82103e-13
0.000133457
-3.44349e-11
7.15051e-13
-2.06616e-12
3.99312e-13
0.000133006
-3.55668e-11
7.47465e-13
-2.13786e-12
4.17371e-13
0.000132557
-3.67502e-11
7.81492e-13
-2.21006e-12
4.3633e-13
0.000132111
-3.79861e-11
8.17221e-13
-2.28657e-12
4.5624e-13
0.000131669
-3.9279e-11
8.54734e-13
-2.36412e-12
4.77148e-13
0.000131229
-4.06289e-11
8.9409e-13
-2.4454e-12
4.99131e-13
0.000130793
-4.20429e-11
9.35473e-13
-2.52916e-12
5.22184e-13
0.000130361
-4.35198e-11
9.78957e-13
-2.61642e-12
5.46392e-13
0.000129931
-4.50681e-11
1.02464e-12
-2.70708e-12
5.71821e-13
0.000129506
-4.66862e-11
1.07262e-12
-2.80172e-12
5.98544e-13
0.000129084
-4.83827e-11
1.12302e-12
-2.9001e-12
6.26649e-13
0.000128667
-5.01566e-11
1.17603e-12
-3.0029e-12
6.56157e-13
0.000128255
-5.20165e-11
1.23175e-12
-3.10937e-12
6.87178e-13
0.000127848
-5.39624e-11
1.29032e-12
-3.22084e-12
7.1979e-13
0.000127447
-5.60026e-11
1.35192e-12
-3.33615e-12
7.54079e-13
0.000127053
-5.81383e-11
1.41673e-12
-3.45697e-12
7.90136e-13
0.000126666
-6.03778e-11
1.4849e-12
-3.58188e-12
8.28063e-13
0.000126288
-6.27234e-11
1.55662e-12
-3.71296e-12
8.6796e-13
0.000125918
-6.51831e-11
1.6321e-12
-3.84869e-12
9.09943e-13
0.000125558
-6.77608e-11
1.71155e-12
-3.99118e-12
9.54122e-13
0.000125208
-7.04642e-11
1.7952e-12
-4.13892e-12
1.00063e-12
0.000124869
-7.32987e-11
1.88331e-12
-4.29397e-12
1.04959e-12
0.000124542
-7.62719e-11
1.97608e-12
-4.45529e-12
1.10116e-12
0.000124228
-7.93901e-11
2.07383e-12
-4.62404e-12
1.15545e-12
0.000123927
-8.26623e-11
2.17682e-12
-4.8008e-12
1.21268e-12
0.000123642
-8.60948e-11
2.28541e-12
-4.98486e-12
1.27295e-12
0.000123372
-8.96988e-11
2.39985e-12
-5.17894e-12
1.33651e-12
0.00012312
-9.34808e-11
2.5206e-12
-5.3803e-12
1.40345e-12
0.000122886
-9.74543e-11
2.64785e-12
-5.59396e-12
1.47413e-12
0.000122672
-1.01624e-10
2.78221e-12
-5.81459e-12
1.54855e-12
0.000122481
-1.06009e-10
2.92379e-12
-6.04977e-12
1.62723e-12
0.000122312
-1.1061e-10
3.07349e-12
-6.29115e-12
1.70997e-12
0.000122169
-1.15453e-10
3.23113e-12
-6.55047e-12
1.79765e-12
0.000122052
-1.20536e-10
3.39807e-12
-6.81433e-12
1.88966e-12
0.000121964
-1.2589e-10
3.5736e-12
-7.09999e-12
1.9875e-12
0.000121906
-1.3151e-10
3.75997e-12
-7.388e-12
2.08975e-12
0.000121881
-1.37439e-10
3.95533e-12
-7.70361e-12
2.19912e-12
0.000121889
-1.43657e-10
4.16368e-12
-8.0162e-12
2.31254e-12
0.000121933
-1.50224e-10
4.38086e-12
-8.36455e-12
2.4351e-12
0.000122014
-1.57105e-10
4.61422e-12
-8.69916e-12
2.56047e-12
0.000122132
-1.64386e-10
4.85494e-12
-9.08536e-12
2.69832e-12
0.000122288
-1.71997e-10
5.11691e-12
-9.43667e-12
2.83597e-12
0.00012248
-1.80074e-10
5.38232e-12
-9.86765e-12
2.99225e-12
0.000122708
-1.88488e-10
5.67812e-12
-1.02268e-11
3.14137e-12
0.000122967
-1.97454e-10
5.96801e-12
-1.07129e-11
3.32077e-12
0.000123256
-2.06753e-10
6.30522e-12
-1.10651e-11
3.47852e-12
0.000123568
-2.16711e-10
6.61637e-12
-1.16258e-11
3.68928e-12
0.000123901
-2.26988e-10
7.00777e-12
-1.19474e-11
3.84804e-12
0.00012425
-2.38037e-10
7.33064e-12
-1.26134e-11
4.10576e-12
0.00012461
-2.49397e-10
7.79995e-12
-1.28585e-11
4.24858e-12
0.000124979
-2.61656e-10
8.11164e-12
-1.36887e-11
4.58245e-12
0.000125353
-2.74225e-10
8.70225e-12
-1.37724e-11
4.67315e-12
0.000125735
-2.8774e-10
8.95212e-12
-1.48738e-11
5.1423e-12
0.000126125
-3.01672e-10
9.75102e-12
-1.46271e-11
5.10285e-12
0.000126527
-3.16467e-10
9.82911e-12
-1.62222e-11
5.82695e-12
0.000126948
-3.32046e-10
1.10109e-11
-1.53129e-11
5.4932e-12
0.000127391
-3.47888e-10
1.0681e-11
-1.78454e-11
6.7195e-12
0.000127864
-3.65592e-10
1.26067e-11
-1.56165e-11
5.74209e-12
0.000128371
-3.82371e-10
1.13632e-11
-2.00155e-11
7.98839e-12
0.000128917
-4.03e-10
1.47883e-11
-1.51529e-11
5.6246e-12
0.000129505
-4.1902e-10
1.15491e-11
-2.33902e-11
9.98585e-12
0.000130137
-4.44601e-10
1.80773e-11
-1.31524e-11
4.64571e-12
0.000130816
-4.55975e-10
1.05134e-11
-2.94034e-11
1.34648e-11
0.000131539
-4.93212e-10
2.35904e-11
-7.90662e-12
1.71714e-12
0.000132305
-4.91399e-10
6.65393e-12
-4.11995e-11
2.00566e-11
0.000133111
-5.62134e-10
3.37596e-11
4.64023e-12
-5.56215e-12
0.000133951
-5.27465e-10
-3.59283e-12
-6.55105e-11
3.33568e-11
0.000134824
-6.62343e-10
5.39598e-11
3.41911e-11
-2.25329e-11
0.000135725
-5.49777e-10
-2.82036e-11
-1.16446e-10
6.13782e-11
0.000136653
-5.86246e-10
2.2136e-11
-1.19508e-10
1.28917e-11
0.000137607
-3.26777e-10
-7.51757e-11
-4.18376e-10
1.1216e-10
0.000138589
-5.46214e-11
-8.16597e-11
-7.41254e-10
1.20713e-10
0.000139607
-6.05983e-11
1.52628e-11
-7.7712e-10
2.59806e-11
0.000140666
8.94177e-11
-4.04073e-11
-9.85653e-10
8.39597e-11
0.000141772
-7.77643e-11
7.15023e-11
-8.61931e-10
-2.55043e-11
0.000142933
-7.5955e-12
-1.00031e-11
-9.89208e-10
5.85699e-11
0.00014415
-1.11712e-10
5.31107e-11
-9.30677e-10
-1.827e-12
0.00014543
-8.79383e-11
8.78097e-12
-1.0123e-09
4.53547e-11
0.000146777
-1.5907e-10
4.41354e-11
-9.91914e-10
1.30034e-11
0.00014819
-1.63456e-10
2.0886e-11
-1.04895e-09
3.93974e-11
0.000149671
-2.19082e-10
4.07528e-11
-1.05124e-09
2.28243e-11
0.000151216
-2.4131e-10
2.92696e-11
-1.09604e-09
3.77413e-11
0.000152814
-2.91138e-10
4.06754e-11
-1.11236e-09
2.99093e-11
0.000154451
-3.25347e-10
3.56535e-11
-1.15211e-09
3.86353e-11
0.000156112
-3.74629e-10
4.25481e-11
-1.17773e-09
3.55675e-11
0.000157773
-4.17537e-10
4.1014e-11
-1.21656e-09
4.10416e-11
0.000159414
-4.69032e-10
4.55642e-11
-1.24898e-09
4.05303e-11
0.000161015
-5.1884e-10
4.58821e-11
-1.28923e-09
4.43442e-11
0.00016256
-5.7397e-10
4.92469e-11
-1.32718e-09
4.51939e-11
0.00016404
-6.29701e-10
5.05302e-11
-1.37016e-09
4.81818e-11
0.000165459
-6.89157e-10
5.33168e-11
-1.413e-09
4.97402e-11
0.000166826
-7.50309e-10
5.51004e-11
-1.45945e-09
5.23434e-11
0.00016815
-8.14425e-10
5.76052e-11
-1.50687e-09
5.42691e-11
0.000169439
-8.80718e-10
5.96441e-11
-1.55721e-09
5.6705e-11
0.000170692
-9.49651e-10
6.2026e-11
-1.6091e-09
5.88254e-11
0.000171904
-1.02095e-09
6.41911e-11
-1.66357e-09
6.11959e-11
0.000173068
-1.09476e-09
6.65219e-11
-1.71991e-09
6.34278e-11
0.000174172
-1.17101e-09
6.87595e-11
-1.77867e-09
6.5787e-11
0.000175205
-1.24974e-09
7.10882e-11
-1.83949e-09
6.80999e-11
0.000176158
-1.33097e-09
7.33954e-11
-1.90269e-09
7.05e-11
0.000177017
-1.41471e-09
7.57766e-11
-1.96811e-09
7.29122e-11
0.000177774
-1.50106e-09
7.81925e-11
-2.03597e-09
7.54125e-11
0.000178431
-1.59005e-09
8.07003e-11
-2.10622e-09
7.79813e-11
0.000179004
-1.68183e-09
8.32941e-11
-2.17906e-09
8.06624e-11
0.000179525
-1.77646e-09
8.60079e-11
-2.25449e-09
8.34547e-11
0.000180036
-1.87413e-09
8.884e-11
-2.33273e-09
8.63814e-11
0.000180579
-1.97491e-09
9.18006e-11
-2.41382e-09
8.94369e-11
0.000181185
-2.07898e-09
9.48781e-11
-2.49793e-09
9.26199e-11
0.000181867
-2.18642e-09
9.80651e-11
-2.58515e-09
9.59222e-11
0.00018261
-2.29735e-09
1.01347e-10
-2.6756e-09
9.93336e-11
0.000183376
-2.41187e-09
1.04719e-10
-2.76935e-09
1.02839e-10
0.00018412
-2.53007e-09
1.0818e-10
-2.8665e-09
1.06445e-10
0.000184814
-2.65206e-09
1.11741e-10
-2.96714e-09
1.10162e-10
0.000185453
-2.77797e-09
1.15414e-10
-3.07143e-09
1.14006e-10
0.000186059
-2.9079e-09
1.19213e-10
-3.17944e-09
1.17989e-10
0.000186658
-3.04205e-09
1.23146e-10
-3.29135e-09
1.22122e-10
0.000187276
-3.18051e-09
1.27217e-10
-3.40725e-09
1.26403e-10
0.000187936
-3.32349e-09
1.3142e-10
-3.52732e-09
1.30833e-10
0.000188672
-3.47105e-09
1.35741e-10
-3.65163e-09
1.35396e-10
0.000189528
-3.62336e-09
1.40147e-10
-3.78031e-09
1.4006e-10
0.000190562
-3.78041e-09
1.44601e-10
-3.91339e-09
1.44797e-10
0.000191824
-3.94225e-09
1.49038e-10
-4.05091e-09
1.49534e-10
0.000193329
-4.10874e-09
1.534e-10
-4.19275e-09
1.54219e-10
0.000195051
-4.27981e-09
1.57627e-10
-4.33887e-09
1.58787e-10
0.000196915
-4.45522e-09
1.61676e-10
-4.48905e-09
1.63197e-10
0.000198817
-4.63482e-09
1.65527e-10
-4.64318e-09
1.67435e-10
0.00020064
-4.81837e-09
1.69191e-10
-4.80103e-09
1.71505e-10
0.000202279
-5.00575e-09
1.72687e-10
-4.96252e-09
1.75425e-10
0.000203626
-5.19683e-09
1.76097e-10
-5.1275e-09
1.79282e-10
0.000204589
-5.39166e-09
1.79491e-10
-5.29604e-09
1.8315e-10
0.000205145
-5.59036e-09
1.83025e-10
-5.46821e-09
1.87183e-10
0.00020538
-5.79324e-09
1.86772e-10
-5.64429e-09
1.91466e-10
0.000205479
-6.00064e-09
1.90874e-10
-5.82454e-09
1.96135e-10
0.000205663
-6.21295e-09
1.95249e-10
-6.0093e-09
2.01117e-10
0.000206135
-6.43043e-09
1.99908e-10
-6.19879e-09
2.06434e-10
0.000207076
-6.65318e-09
2.04584e-10
-6.3931e-09
2.11808e-10
0.000208613
-6.88122e-09
2.09284e-10
-6.59221e-09
2.17247e-10
0.000210718
-7.11426e-09
2.13645e-10
-6.79585e-09
2.22387e-10
0.000213151
-7.35214e-09
2.17889e-10
-7.0039e-09
2.2745e-10
0.000215562
-7.59444e-09
2.21638e-10
-7.21593e-09
2.32061e-10
0.00021768
-7.84112e-09
2.25399e-10
-7.43196e-09
2.3674e-10
0.000219484
-8.09173e-09
2.28627e-10
-7.65152e-09
2.40928e-10
0.000221195
-8.34652e-09
2.32147e-10
-7.8749e-09
2.45475e-10
0.00022313
-8.60486e-09
2.3495e-10
-8.10145e-09
2.49354e-10
0.00022555
-8.86731e-09
2.38313e-10
-8.3317e-09
2.53857e-10
0.000228623
-9.13275e-09
2.40511e-10
-8.5646e-09
2.57275e-10
0.000232454
-9.40217e-09
2.43709e-10
-8.80112e-09
2.61748e-10
0.000237013
-9.67404e-09
2.45267e-10
-9.03973e-09
2.64682e-10
0.000242124
-9.95024e-09
2.48705e-10
-9.28229e-09
2.69601e-10
0.000247594
-1.02285e-08
2.49798e-10
-9.52659e-09
2.72307e-10
0.000253275
-1.05121e-08
2.53999e-10
-9.77572e-09
2.78274e-10
0.000259044
-1.07974e-08
2.54551e-10
-1.00262e-08
2.8076e-10
0.000264754
-1.10893e-08
2.59868e-10
-1.02828e-08
2.88199e-10
0.000270206
-1.1382e-08
2.59407e-10
-1.05399e-08
2.90065e-10
0.000275214
-1.1683e-08
2.66138e-10
-1.08048e-08
2.99321e-10
0.000279637
-1.19833e-08
2.63894e-10
-1.10686e-08
2.99828e-10
0.000283399
-1.22939e-08
2.72598e-10
-1.13425e-08
3.11527e-10
0.000286529
-1.26014e-08
2.67717e-10
-1.1613e-08
3.09912e-10
0.000289054
-1.29226e-08
2.79513e-10
-1.18969e-08
3.25271e-10
0.000290929
-1.32373e-08
2.71039e-10
-1.21742e-08
3.20707e-10
0.000292206
-1.35709e-08
2.87722e-10
-1.24704e-08
3.4169e-10
0.000293091
-1.38933e-08
2.74207e-10
-1.27554e-08
3.32933e-10
0.000293739
-1.42423e-08
2.98185e-10
-1.3067e-08
3.62177e-10
0.000294078
-1.4573e-08
2.77166e-10
-1.33607e-08
3.46997e-10
0.000293794
-1.49414e-08
3.11814e-10
-1.36925e-08
3.88181e-10
0.000292616
-1.52811e-08
2.79723e-10
-1.39963e-08
3.63411e-10
0.000290572
-1.56751e-08
3.30459e-10
-1.43553e-08
4.22459e-10
0.000287965
-1.6025e-08
2.82078e-10
-1.46712e-08
3.83498e-10
0.000285179
-1.64545e-08
3.57151e-10
-1.50683e-08
4.69372e-10
0.000282446
-1.68156e-08
2.83436e-10
-1.5399e-08
4.08077e-10
0.00028003
-1.72935e-08
3.94645e-10
-1.58492e-08
5.33549e-10
0.000278632
-1.76639e-08
2.80573e-10
-1.61954e-08
4.35789e-10
0.000279186
-1.82054e-08
4.44884e-10
-1.67174e-08
6.18721e-10
0.000282198
-1.85761e-08
2.6652e-10
-1.70748e-08
4.61376e-10
0.00028727
-1.91961e-08
5.08161e-10
-1.76897e-08
7.27027e-10
0.000293181
-1.95485e-08
2.31899e-10
-1.80475e-08
4.77899e-10
0.000298402
-2.02656e-08
5.88102e-10
-1.87836e-08
8.65618e-10
0.000301767
-2.05706e-08
1.66183e-10
-1.91246e-08
4.79095e-10
0.000303038
-2.14113e-08
6.92891e-10
-2.00233e-08
1.04736e-09
0.000302796
-2.16253e-08
5.52628e-11
-2.03213e-08
4.55802e-10
0.000301892
-2.26324e-08
8.38506e-10
-2.14464e-08
1.2952e-09
0.00030112
-2.26904e-08
-1.22714e-10
-2.16616e-08
3.94758e-10
0.000301049
-2.3931e-08
1.04932e-09
-2.3113e-08
1.6451e-09
0.000301866
-2.37308e-08
-4.03956e-10
-2.31814e-08
2.71212e-10
0.000303342
-2.53001e-08
1.35489e-09
-2.51058e-08
2.14279e-09
0.000305289
-2.46827e-08
-8.4254e-10
-2.49261e-08
4.51035e-11
0.000308278
-2.67149e-08
1.79674e-09
-2.75393e-08
2.85482e-09
0.000313229
-2.54404e-08
-1.51425e-09
-2.69555e-08
-3.4386e-10
0.000320197
-2.812e-08
2.4306e-09
-3.05797e-08
3.88117e-09
0.000328474
-2.58316e-08
-2.5269e-09
-2.93544e-08
-9.86779e-10
0.000336887
-2.94153e-08
3.335e-09
-3.44962e-08
5.40009e-09
0.000344158
-2.55848e-08
-4.03293e-09
-3.22538e-08
-2.04078e-09
0.000349722
-3.03992e-08
4.59336e-09
-3.97318e-08
7.71061e-09
0.000354039
-2.43084e-08
-6.18573e-09
-3.58401e-08
-3.79929e-09
0.000357844
-3.06602e-08
6.20686e-09
-4.70105e-08
1.13281e-08
0.000360858
-2.15013e-08
-9.01268e-09
-4.02841e-08
-6.87638e-09
0.0003624
-2.93266e-08
7.84554e-09
-5.76728e-08
1.73721e-08
0.000362922
-1.67268e-08
-1.19946e-08
-4.54829e-08
-1.28016e-08
0.000364359
-2.43472e-08
8.01648e-09
-7.02228e-08
2.43402e-08
0.000368342
-1.0068e-08
-1.2952e-08
-4.65439e-08
-2.50126e-08
0.000374244
-1.10783e-08
2.29413e-09
-4.42246e-08
-3.60747e-09
0.000380377
-8.94611e-09
-1.29657e-10
-4.60901e-08
-1.42872e-10
2.47464e-07
3.83697e-13
4.69948e-14
7.55374e-07
9.83016e-13
1.20519e-13
1.28391e-06
1.6045e-12
1.95928e-13
1.83367e-06
2.24292e-12
2.74275e-13
2.40522e-06
2.86563e-12
3.48815e-13
2.9991e-06
3.42816e-12
4.16143e-13
3.61582e-06
3.88433e-12
4.70008e-13
4.25592e-06
4.23227e-12
5.11286e-13
4.91998e-06
4.49172e-12
5.41746e-13
5.60872e-06
4.69238e-12
5.65866e-13
6.32298e-06
4.8504e-12
5.8435e-13
7.06377e-06
4.98233e-12
6.00318e-13
7.83229e-06
5.093e-12
6.13205e-13
8.62991e-06
5.19123e-12
6.25178e-13
9.4582e-06
5.27726e-12
6.35146e-13
1.03189e-05
5.35696e-12
6.44916e-13
1.12141e-05
5.42881e-12
6.53222e-13
1.21459e-05
5.49738e-12
6.61677e-13
1.31166e-05
5.56042e-12
6.6895e-13
1.41289e-05
5.6219e-12
6.76572e-13
1.51854e-05
5.67926e-12
6.83191e-13
1.62893e-05
5.73609e-12
6.90267e-13
1.74434e-05
5.78972e-12
6.96454e-13
1.86511e-05
5.84349e-12
7.03178e-13
1.99158e-05
5.8947e-12
7.09098e-13
2.12407e-05
5.94653e-12
7.15602e-13
2.26295e-05
5.99629e-12
7.21364e-13
2.40855e-05
6.04701e-12
7.27746e-13
2.56123e-05
6.09605e-12
7.33443e-13
2.72132e-05
6.1463e-12
7.39788e-13
2.88915e-05
6.19522e-12
7.45486e-13
3.06503e-05
6.24557e-12
7.51863e-13
3.24927e-05
6.29487e-12
7.57629e-13
3.44212e-05
6.34579e-12
7.641e-13
3.64383e-05
6.39595e-12
7.69985e-13
3.85461e-05
6.44789e-12
7.76609e-13
4.07466e-05
6.49933e-12
7.82668e-13
4.30409e-05
6.55273e-12
7.89503e-13
4.54301e-05
6.60589e-12
7.95785e-13
4.79147e-05
6.66119e-12
8.02885e-13
5.04947e-05
6.7165e-12
8.09442e-13
5.31695e-05
6.77415e-12
8.16861e-13
5.5938e-05
6.83209e-12
8.23746e-13
5.87982e-05
6.89255e-12
8.31542e-13
6.17476e-05
6.95361e-12
8.38822e-13
6.4783e-05
7.01746e-12
8.4709e-13
6.79001e-05
7.08221e-12
8.54833e-13
7.10938e-05
7.15002e-12
8.63645e-13
7.43582e-05
7.21905e-12
8.71928e-13
7.7686e-05
7.29127e-12
8.81163e-13
8.10692e-05
7.36527e-12
8.90056e-13
8.44986e-05
7.44248e-12
8.99662e-13
8.79637e-05
7.52222e-12
9.09283e-13
9.1453e-05
7.60552e-12
9.19636e-13
9.49539e-05
7.69195e-12
9.30164e-13
9.84527e-05
7.78254e-12
9.41687e-13
0.000101935
7.87658e-12
9.53245e-13
0.000105385
7.97536e-12
9.65973e-13
0.000108786
8.07793e-12
9.78597e-13
0.000112122
8.18551e-12
9.9225e-13
0.000115376
8.29759e-12
1.00602e-12
0.000118531
8.41453e-12
1.0203e-12
0.000121571
8.53712e-12
1.0354e-12
0.000124479
8.66453e-12
1.05059e-12
0.00012724
8.79863e-12
1.06724e-12
0.000129841
8.938e-12
1.08417e-12
0.00013227
9.0843e-12
1.10258e-12
0.000134518
9.23673e-12
1.12192e-12
0.000136577
9.39548e-12
1.14199e-12
0.000138441
9.56123e-12
1.16381e-12
0.00014011
9.73234e-12
1.18536e-12
0.000141584
9.91105e-12
1.20924e-12
0.000142867
1.00943e-11
1.2321e-12
0.000143966
1.02856e-11
1.25771e-12
0.000144889
1.04811e-11
1.28189e-12
0.000145648
1.06847e-11
1.30888e-12
0.000146254
1.08928e-11
1.33452e-12
0.000146722
1.11087e-11
1.36253e-12
0.000147065
1.13299e-11
1.38988e-12
0.000147298
1.15587e-11
1.41892e-12
0.000147435
1.17942e-11
1.44831e-12
0.000147488
1.20373e-11
1.4789e-12
0.000147469
1.22885e-11
1.51069e-12
0.000147388
1.25475e-11
1.54341e-12
0.000147256
1.28158e-11
1.57785e-12
0.000147079
1.30923e-11
1.6128e-12
0.000146865
1.33793e-11
1.65006e-12
0.00014662
1.36748e-11
1.68743e-12
0.000146346
1.39824e-11
1.72767e-12
0.000146049
1.42993e-11
1.768e-12
0.000145731
1.46295e-11
1.81147e-12
0.000145394
1.49705e-11
1.8556e-12
0.000145041
1.53254e-11
1.90254e-12
0.000144673
1.56931e-11
1.95106e-12
0.000144291
1.60751e-11
2.00158e-12
0.000143897
1.64715e-11
2.05408e-12
0.000143491
1.68832e-11
2.10829e-12
0.000143075
1.73102e-11
2.16433e-12
0.00014265
1.77544e-11
2.22258e-12
0.000142216
1.82156e-11
2.28287e-12
0.000141776
1.8696e-11
2.34574e-12
0.000141329
1.91952e-11
2.41117e-12
0.000140876
1.97153e-11
2.47917e-12
0.000140419
2.02562e-11
2.54994e-12
0.000139958
2.082e-11
2.6234e-12
0.000139494
2.14065e-11
2.69989e-12
0.000139028
2.20182e-11
2.77929e-12
0.00013856
2.26557e-11
2.86268e-12
0.000138092
2.33203e-11
2.94858e-12
0.000137623
2.40141e-11
3.0399e-12
0.000137154
2.47366e-11
3.13277e-12
0.000136686
2.54916e-11
3.23183e-12
0.000136219
2.62778e-11
3.33211e-12
0.000135754
2.70991e-11
3.43858e-12
0.00013529
2.79551e-11
3.54706e-12
0.000134828
2.88488e-11
3.66106e-12
0.000134369
2.97822e-11
3.77868e-12
0.000133912
3.07556e-11
3.90095e-12
0.000133457
3.17746e-11
4.02901e-12
0.000133006
3.28368e-11
4.16132e-12
0.000132557
3.39502e-11
4.3009e-12
0.000132111
3.51119e-11
4.44566e-12
0.000131669
3.63293e-11
4.59796e-12
0.00013123
3.7601e-11
4.75694e-12
0.000130793
3.89327e-11
4.92278e-12
0.000130361
4.03248e-11
5.09605e-12
0.000129931
4.17826e-11
5.27607e-12
0.000129506
4.33068e-11
5.46402e-12
0.000129084
4.49033e-11
5.65963e-12
0.000128667
4.65733e-11
5.86372e-12
0.000128255
4.83235e-11
6.0767e-12
0.000127848
5.01547e-11
6.29873e-12
0.000127447
5.20746e-11
6.53108e-12
0.000127053
5.40842e-11
6.7731e-12
0.000126667
5.6192e-11
7.02701e-12
0.000126288
5.8399e-11
7.29125e-12
0.000125918
6.07144e-11
7.56917e-12
0.000125558
6.31396e-11
7.85807e-12
0.000125208
6.56849e-11
8.16271e-12
0.000124869
6.83521e-11
8.47944e-12
0.000124542
7.11518e-11
8.81401e-12
0.000124228
7.40875e-11
9.16251e-12
0.000123928
7.71689e-11
9.53058e-12
0.000123642
8.04024e-11
9.91483e-12
0.000123372
8.37966e-11
1.03201e-11
0.00012312
8.73604e-11
1.0744e-11
0.000122886
9.11018e-11
1.11901e-11
0.000122673
9.5033e-11
1.16583e-11
0.000122481
9.91606e-11
1.21496e-11
0.000122312
1.03501e-10
1.26679e-11
0.000122169
1.08059e-10
1.32089e-11
0.000122052
1.12856e-10
1.37823e-11
0.000121964
1.17892e-10
1.43776e-11
0.000121907
1.23199e-10
1.50108e-11
0.000121881
1.28769e-10
1.56632e-11
0.00012189
1.34645e-10
1.63636e-11
0.000121934
1.40811e-10
1.70805e-11
0.000122014
1.47328e-10
1.78607e-11
0.000122132
1.54155e-10
1.86465e-11
0.000122288
1.61393e-10
1.95237e-11
0.00012248
1.68954e-10
2.03868e-11
0.000122708
1.77006e-10
2.13807e-11
0.000122967
1.85379e-10
2.23259e-11
0.000123256
1.94352e-10
2.34594e-11
0.000123569
2.03613e-10
2.4492e-11
0.000123902
2.13633e-10
2.57842e-11
0.00012425
2.2386e-10
2.69266e-11
0.00012461
2.35084e-10
2.84036e-11
0.000124979
2.46338e-10
2.96708e-11
0.000125354
2.5898e-10
3.13472e-11
0.000125735
2.71287e-10
3.28447e-11
0.000126125
2.85657e-10
3.47272e-11
0.000126528
2.98948e-10
3.66011e-11
0.000126948
3.15541e-10
3.85876e-11
0.000127391
3.29542e-10
4.12649e-11
0.000127864
3.49198e-10
4.30838e-11
0.000128371
3.63177e-10
4.68924e-11
0.000128917
3.87415e-10
4.79763e-11
0.000129505
3.99617e-10
5.48603e-11
0.000130138
4.31412e-10
5.34437e-11
0.000130816
4.37907e-10
6.7563e-11
0.000131539
4.83398e-10
5.72329e-11
0.000132305
4.75429e-10
8.74351e-11
0.000133111
5.47988e-10
4.66741e-11
0.000133951
5.06041e-10
1.1297e-10
0.000134824
6.35505e-10
1.14917e-11
0.000135725
5.1629e-10
1.59302e-10
0.000136653
5.46394e-10
1.60043e-10
0.000137607
2.82542e-10
4.58797e-10
0.00013859
-3.37224e-12
7.72425e-10
0.000139607
-2.14903e-13
8.10261e-10
0.000140666
-1.67551e-10
1.00652e-09
0.000141772
-3.35763e-13
8.88217e-10
0.000142933
-8.16953e-11
1.00996e-09
0.000144151
2.53051e-11
9.60342e-10
0.000145431
-5.15224e-12
1.04162e-09
0.000146777
6.92145e-11
1.03121e-09
0.00014819
6.91329e-11
1.09087e-09
0.000149671
1.26891e-10
1.10283e-09
0.000151216
1.4538e-10
1.15183e-09
0.000152814
1.95708e-10
1.17707e-09
0.000154452
2.26102e-10
1.22186e-09
0.000156112
2.74213e-10
1.25568e-09
0.000157773
3.1284e-10
1.30009e-09
0.000159415
3.61654e-10
1.34024e-09
0.000161016
4.06542e-10
1.3865e-09
0.000162561
4.57661e-10
1.43198e-09
0.000164041
5.07778e-10
1.48143e-09
0.00016546
5.62107e-10
1.53182e-09
0.000166827
6.16935e-10
1.58523e-09
0.000168151
6.74935e-10
1.64045e-09
0.00016944
7.34201e-10
1.6983e-09
0.000170693
7.96107e-10
1.75837e-09
0.000171905
8.59665e-10
1.82096e-09
0.000173069
9.25585e-10
1.88599e-09
0.000174173
9.93351e-10
1.95352e-09
0.000175207
1.06334e-09
2.02362e-09
0.00017616
1.1353e-09
2.0963e-09
0.000177019
1.20946e-09
2.17169e-09
0.000177776
1.28569e-09
2.24978e-09
0.000178433
1.3642e-09
2.33078e-09
0.000179006
1.44494e-09
2.41471e-09
0.000179527
1.52812e-09
2.5018e-09
0.000180038
1.61375e-09
2.59213e-09
0.000180581
1.702e-09
2.68593e-09
0.000181188
1.79292e-09
2.78327e-09
0.000181869
1.88661e-09
2.88437e-09
0.000182613
1.98313e-09
2.9893e-09
0.000183378
2.08256e-09
3.09824e-09
0.000184123
2.18492e-09
3.21125e-09
0.000184816
2.29032e-09
3.32854e-09
0.000185456
2.3988e-09
3.45021e-09
0.000186062
2.51049e-09
3.57652e-09
0.000186661
2.62543e-09
3.70756e-09
0.000187279
2.74379e-09
3.84362e-09
0.000187939
2.86559e-09
3.9848e-09
0.000188674
2.99095e-09
4.13138e-09
0.000189531
3.11987e-09
4.28341e-09
0.000190565
3.25239e-09
4.4411e-09
0.000191826
3.38839e-09
4.60441e-09
0.000193332
3.52781e-09
4.77342e-09
0.000195053
3.67042e-09
4.94795e-09
0.000196918
3.81606e-09
5.12797e-09
0.00019882
3.96444e-09
5.31327e-09
0.000200643
4.11537e-09
5.5038e-09
0.000202282
4.26861e-09
5.69936e-09
0.00020363
4.42406e-09
5.90004e-09
0.000204594
4.58159e-09
6.10582e-09
0.00020515
4.74131e-09
6.31704e-09
0.000205385
4.90328e-09
6.53397e-09
0.000205484
5.06777e-09
6.7572e-09
0.000205668
5.23489e-09
6.98709e-09
0.00020614
5.40483e-09
7.2242e-09
0.00020708
5.57746e-09
7.4686e-09
0.000208617
5.7527e-09
7.72058e-09
0.000210722
5.93012e-09
7.97983e-09
0.000213154
6.1095e-09
8.24644e-09
0.000215565
6.29027e-09
8.52e-09
0.000217683
6.47229e-09
8.80074e-09
0.000219487
6.65496e-09
9.08825e-09
0.000221198
6.83836e-09
9.38305e-09
0.000223131
7.02172e-09
9.6846e-09
0.000225551
7.20534e-09
9.99371e-09
0.000228622
7.38799e-09
1.03095e-08
0.000232452