/*--------------------------------*- C++ -*----------------------------------*\
| =========                 |                                                 |
| \\      /  F ield         | OpenFOAM: The Open Source CFD Toolbox           |
|  \\    /   O peration     | Version:  2012                                  |
|   \\  /    A nd           | Website:  www.openfoam.com                      |
|    \\/     M anipulation  |                                                 |
\*---------------------------------------------------------------------------*/
FoamFile
{
    version     2.0;
    format      ascii;
    class       volVectorField;
    location    "13000";
    object      U;
}
// * * * * * * * * * * * * * * * * * * * * * * * * * * * * * * * * * * * * * //

dimensions      [0 1 -1 0 0 0 0];


internalField   nonuniform List<vector> 
2560
(
(0.0341914 -2.60868e-09 1.87687e-08)
(0.0341914 6.121e-09 1.9599e-08)
(0.102872 7.5389e-09 2.89347e-08)
(0.102872 1.8121e-08 3.01985e-08)
(0.172346 2.6159e-08 2.98671e-08)
(0.172346 2.953e-08 3.11545e-08)
(0.242615 3.87242e-08 3.08242e-08)
(0.242615 3.9187e-08 3.21207e-08)
(0.313676 3.85907e-08 3.13164e-08)
(0.313676 3.96755e-08 3.25696e-08)
(0.38552 2.27682e-08 3.04641e-08)
(0.38552 2.42369e-08 3.15787e-08)
(0.458135 8.33863e-10 2.80861e-08)
(0.458135 2.62446e-09 2.89811e-08)
(0.531509 -1.32513e-08 2.53617e-08)
(0.531509 -1.13632e-08 2.60324e-08)
(0.605635 -1.66694e-08 2.35186e-08)
(0.605635 -1.46595e-08 2.40142e-08)
(0.680521 -1.3465e-08 2.2949e-08)
(0.680521 -1.13594e-08 1.93418e-08)
(0.756188 -1.09004e-08 2.35654e-08)
(0.756188 -8.72894e-09 1.51664e-08)
(0.832674 -8.50319e-09 2.20226e-08)
(0.832674 -6.27196e-09 1.57355e-08)
(0.910034 -6.38383e-09 1.84721e-08)
(0.910034 -4.10578e-09 1.68194e-08)
(0.988338 -5.20646e-09 1.81231e-08)
(0.988338 -2.88592e-09 1.81231e-08)
(1.06767 -4.06918e-09 1.96406e-08)
(1.06767 -1.71246e-09 1.96406e-08)
(1.14814 -3.60693e-09 2.13671e-08)
(1.14814 -1.21593e-09 2.13671e-08)
(1.22986 -2.71049e-09 2.33038e-08)
(1.22986 -2.90561e-10 2.33038e-08)
(1.31295 -2.28591e-09 2.54594e-08)
(1.31295 1.6439e-10 2.54594e-08)
(1.39757 -2.31153e-09 2.78342e-08)
(1.39757 1.63745e-10 2.78343e-08)
(1.48385 -1.9023e-09 3.04333e-08)
(1.48385 5.98805e-10 3.04333e-08)
(1.57195 -1.28527e-09 3.32753e-08)
(1.57195 1.2393e-09 3.32754e-08)
(1.66205 -1.4941e-09 3.63726e-08)
(1.66205 1.05497e-09 3.63727e-08)
(1.7543 -1.8654e-09 3.97242e-08)
(1.7543 7.0506e-10 3.97242e-08)
(1.84888 -8.50777e-10 4.3351e-08)
(1.84888 1.74134e-09 4.3351e-08)
(1.94595 -9.67592e-10 4.72807e-08)
(1.94595 1.64632e-09 4.72807e-08)
(2.04566 -1.30119e-09 5.15206e-08)
(2.04566 1.3338e-09 5.15207e-08)
(2.14817 -1.65364e-09 5.60759e-08)
(2.14817 1.00273e-09 5.60759e-08)
(2.25362 -3.63412e-10 6.09807e-08)
(2.25362 2.31111e-09 6.09807e-08)
(2.36213 -1.08537e-09 6.62657e-08)
(2.36213 1.61147e-09 6.62657e-08)
(2.47381 -1.03434e-09 7.1942e-08)
(2.47381 1.68298e-09 7.1942e-08)
(2.58873 -1.68591e-09 7.80232e-08)
(2.58873 1.05074e-09 7.80232e-08)
(2.70696 -2.03719e-10 8.45506e-08)
(2.70696 2.55312e-09 8.45507e-08)
(2.82854 -1.11244e-09 9.15645e-08)
(2.82854 1.66489e-09 9.15645e-08)
(2.95347 -1.28868e-09 9.90765e-08)
(2.95347 1.50999e-09 9.90765e-08)
(3.08174 -1.31716e-09 1.07117e-07)
(3.08174 1.5015e-09 1.07117e-07)
(3.21329 -3.5016e-10 1.1574e-07)
(3.21329 2.48858e-09 1.1574e-07)
(3.34803 -1.05485e-09 1.24992e-07)
(3.34803 1.80659e-09 1.24992e-07)
(3.48586 -1.46657e-09 1.34896e-07)
(3.48586 1.41488e-09 1.34896e-07)
(3.62663 -1.1952e-09 1.45495e-07)
(3.62663 1.70905e-09 1.45495e-07)
(3.77015 -6.0261e-10 1.56858e-07)
(3.77015 2.32313e-09 1.56858e-07)
(3.91621 -5.63014e-10 1.69055e-07)
(3.91621 2.38563e-09 1.69055e-07)
(4.06456 -1.70762e-09 1.82124e-07)
(4.06456 1.26333e-09 1.82124e-07)
(4.2149 -1.22518e-09 1.96118e-07)
(4.2149 1.77102e-09 1.96118e-07)
(4.36692 1.33995e-12 2.11143e-07)
(4.36692 3.01931e-09 2.11144e-07)
(4.52025 -1.85567e-09 2.27267e-07)
(4.52025 1.18968e-09 2.27267e-07)
(4.67448 1.91525e-10 2.44577e-07)
(4.67448 3.25884e-09 2.44577e-07)
(4.82918 -2.91957e-09 2.63142e-07)
(4.82918 1.80029e-10 2.63143e-07)
(4.98385 1.6958e-09 2.83096e-07)
(4.98385 4.8115e-09 2.83096e-07)
(5.13798 -3.31998e-10 3.04607e-07)
(5.13798 2.82734e-09 3.04607e-07)
(5.29099 -5.29373e-09 3.27632e-07)
(5.29099 -2.12587e-09 3.27632e-07)
(5.44227 -4.495e-10 3.52283e-07)
(5.44227 2.76651e-09 3.52283e-07)
(5.59119 1.19387e-08 3.79106e-07)
(5.59119 1.51844e-08 3.79106e-07)
(5.73705 -2.27489e-08 4.07719e-07)
(5.73705 -1.94912e-08 4.07719e-07)
(5.87914 2.04653e-08 4.38452e-07)
(5.87914 2.37774e-08 4.38452e-07)
(6.01671 -1.27205e-08 4.71724e-07)
(6.01671 -9.39112e-09 4.71724e-07)
(6.149 3.15842e-10 5.07176e-07)
(6.149 3.70578e-09 5.07176e-07)
(6.27522 8.33574e-09 5.45492e-07)
(6.27522 1.17389e-08 5.45492e-07)
(6.39461 -1.66359e-08 5.86393e-07)
(6.39461 -1.31834e-08 5.86393e-07)
(6.50639 1.25797e-08 6.30101e-07)
(6.50639 1.60663e-08 6.30101e-07)
(6.60981 -9.93622e-09 6.76921e-07)
(6.60981 -6.39536e-09 6.76921e-07)
(6.70416 6.76193e-09 7.2678e-07)
(6.70416 1.03337e-08 7.2678e-07)
(6.78878 -6.08294e-09 7.79846e-07)
(6.78878 -2.45461e-09 7.79846e-07)
(6.86307 -1.57128e-08 8.3549e-07)
(6.86307 -1.20351e-08 8.3549e-07)
(6.92651 2.31549e-08 8.9447e-07)
(6.92651 2.68718e-08 8.94471e-07)
(6.97869 -2.43985e-08 9.56487e-07)
(6.97869 -2.06331e-08 9.56487e-07)
(7.01929 -4.69156e-09 1.02056e-06)
(7.01929 -8.37403e-10 1.02056e-06)
(7.04813 7.77454e-09 1.08743e-06)
(7.04813 1.165e-08 1.08743e-06)
(7.06516 -3.4525e-08 1.15601e-06)
(7.06516 -3.05755e-08 1.15601e-06)
(7.07046 3.69084e-08 1.22692e-06)
(7.07046 4.09284e-08 1.22692e-06)
(7.06427 -7.46319e-08 1.29876e-06)
(7.06427 -7.05659e-08 1.29876e-06)
(7.04695 5.75272e-08 1.37194e-06)
(7.04695 6.16756e-08 1.37194e-06)
(7.01903 -7.71204e-08 1.44633e-06)
(7.01903 -7.29128e-08 1.44633e-06)
(6.98113 3.94601e-08 1.52126e-06)
(6.98113 4.37543e-08 1.52126e-06)
(6.93399 -5.93429e-08 1.59742e-06)
(6.93399 -5.49917e-08 1.59742e-06)
(6.87843 2.13399e-08 1.67432e-06)
(6.87843 2.57953e-08 1.67432e-06)
(6.81534 -5.0798e-08 1.75249e-06)
(6.81534 -4.63047e-08 1.75249e-06)
(6.74563 -1.18302e-09 1.8314e-06)
(6.74563 3.43349e-09 1.8314e-06)
(6.67022 -2.2365e-08 1.91237e-06)
(6.67022 -1.76864e-08 1.91237e-06)
(6.59001 -3.32812e-08 1.9946e-06)
(6.59001 -2.85014e-08 1.9946e-06)
(6.50585 5.99245e-09 2.07942e-06)
(6.50585 1.08494e-08 2.07942e-06)
(6.41855 -6.8914e-08 2.16593e-06)
(6.41855 -6.39563e-08 2.16593e-06)
(6.32882 3.03357e-08 2.25526e-06)
(6.32882 3.53815e-08 2.25526e-06)
(6.2373 -7.60126e-08 2.34752e-06)
(6.2373 -7.0862e-08 2.34752e-06)
(6.14455 1.06209e-08 2.44217e-06)
(6.14455 1.58721e-08 2.44217e-06)
(6.05104 -5.05318e-08 2.54046e-06)
(6.05104 -4.51702e-08 2.54046e-06)
(5.95717 -1.1075e-09 2.64215e-06)
(5.95717 4.35667e-09 2.64215e-06)
(5.86325 -5.89048e-08 2.74715e-06)
(5.86325 -5.33274e-08 2.74715e-06)
(5.76954 3.73859e-09 2.8558e-06)
(5.76954 9.43389e-09 2.8558e-06)
(5.67625 -6.97242e-08 2.96787e-06)
(5.67625 -6.39101e-08 2.96787e-06)
(5.58353 1.82735e-09 3.08337e-06)
(5.58353 7.76006e-09 3.08337e-06)
(5.49152 -4.87319e-08 3.20339e-06)
(5.49152 -4.26606e-08 3.20339e-06)
(5.40031 -2.37871e-08 3.32697e-06)
(5.40031 -1.75834e-08 3.32697e-06)
(5.30997 -3.98143e-08 3.45464e-06)
(5.30997 -3.34849e-08 3.45464e-06)
(5.22058 -5.03499e-08 3.58534e-06)
(5.22058 -4.3852e-08 3.58534e-06)
(5.13217 9.17941e-09 3.72135e-06)
(5.13217 1.58055e-08 3.72135e-06)
(5.04478 -9.26576e-08 3.86099e-06)
(5.04478 -8.58898e-08 3.86099e-06)
(4.95846 -4.18254e-09 4.00365e-06)
(4.95846 2.76989e-09 4.00365e-06)
(4.87322 -4.39945e-08 4.15172e-06)
(4.87322 -3.68724e-08 4.15172e-06)
(4.78911 -6.0196e-08 4.3027e-06)
(4.78911 -5.29132e-08 4.3027e-06)
(4.70612 -3.04992e-09 4.45859e-06)
(4.70612 4.40496e-09 4.45859e-06)
(4.6243 -7.60024e-08 4.6188e-06)
(4.6243 -6.8361e-08 4.6188e-06)
(4.54365 -4.09779e-08 4.7815e-06)
(4.54365 -3.3106e-08 4.7815e-06)
(4.46418 -2.619e-08 4.94918e-06)
(4.46418 -1.81636e-08 4.94918e-06)
(4.38592 -6.1451e-08 5.12095e-06)
(4.38592 -5.3195e-08 5.12095e-06)
(4.30887 -4.33549e-08 5.29595e-06)
(4.30887 -3.48652e-08 5.29595e-06)
(4.23304 -3.66737e-08 5.47551e-06)
(4.23304 -2.79771e-08 5.47552e-06)
(4.15843 -6.80498e-08 5.6584e-06)
(4.15843 -5.91039e-08 5.6584e-06)
(4.08504 -3.06674e-08 5.8449e-06)
(4.08504 -2.1488e-08 5.8449e-06)
(4.01288 -5.30415e-08 6.03587e-06)
(4.01288 -4.35805e-08 6.03587e-06)
(3.94193 -7.86727e-08 6.22867e-06)
(3.94193 -6.89477e-08 6.22867e-06)
(3.8722 -2.4346e-09 6.426e-06)
(3.8722 7.54556e-09 6.426e-06)
(3.80367 -9.52205e-08 6.62704e-06)
(3.80367 -8.49191e-08 6.62704e-06)
(3.73635 -3.33273e-08 6.82988e-06)
(3.73635 -2.27395e-08 6.82988e-06)
(3.67021 -4.86172e-08 7.03718e-06)
(3.67021 -3.76794e-08 7.03718e-06)
(3.60525 -8.70437e-08 7.24573e-06)
(3.60525 -7.57966e-08 7.24573e-06)
(3.54145 1.99759e-09 7.45837e-06)
(3.54145 1.3584e-08 7.45837e-06)
(3.47879 -1.22445e-07 7.67299e-06)
(3.47879 -1.10465e-07 7.67299e-06)
(3.41727 2.02898e-08 7.89047e-06)
(3.41727 3.26179e-08 7.89047e-06)
(3.35687 -1.52043e-07 8.10896e-06)
(3.35687 -1.39275e-07 8.10896e-06)
(3.29756 4.43349e-08 8.32959e-06)
(3.29756 5.74561e-08 8.3296e-06)
(3.23933 -1.38365e-07 8.55333e-06)
(3.23933 -1.24745e-07 8.55333e-06)
(3.18217 -1.67556e-09 8.77684e-06)
(3.18217 1.23421e-08 8.77685e-06)
(3.12606 -7.85814e-08 9.00399e-06)
(3.12606 -6.40544e-08 9.00398e-06)
(3.07097 -7.65215e-08 9.22952e-06)
(3.07097 -6.1464e-08 9.22952e-06)
(3.0169 -8.63945e-09 9.45788e-06)
(3.0169 6.82905e-09 9.45788e-06)
(2.96382 -1.15271e-07 9.68634e-06)
(2.96382 -9.91296e-08 9.68634e-06)
(2.91172 -1.44004e-08 9.91407e-06)
(2.91172 2.1847e-09 9.91407e-06)
(2.86059 -7.04528e-08 1.01441e-05)
(2.86059 -5.31609e-08 1.01441e-05)
(2.81041 -7.2325e-08 1.0372e-05)
(2.81041 -5.44631e-08 1.0372e-05)
(2.76118 -4.3874e-08 1.05994e-05)
(2.76118 -2.53722e-08 1.05994e-05)
(2.71289 -5.71404e-08 1.0827e-05)
(2.71289 -3.79132e-08 1.0827e-05)
(2.66552 -5.95039e-08 1.10536e-05)
(2.66552 -3.95976e-08 1.10536e-05)
(2.61908 -7.44734e-08 1.12773e-05)
(2.61908 -5.37733e-08 1.12773e-05)
(2.57356 -4.3419e-08 1.1499e-05)
(2.57356 -2.19877e-08 1.1499e-05)
(2.52895 -6.12104e-08 1.17193e-05)
(2.52895 -3.88963e-08 1.17193e-05)
(2.48525 -5.98726e-08 1.19368e-05)
(2.48525 -3.67358e-08 1.19368e-05)
(2.44246 -6.20855e-08 1.21507e-05)
(2.44246 -3.80051e-08 1.21507e-05)
(2.40057 -5.76109e-08 1.23609e-05)
(2.40057 -3.26259e-08 1.23609e-05)
(2.35957 -6.60799e-08 1.25666e-05)
(2.35957 -4.00294e-08 1.25666e-05)
(2.31945 -5.25047e-08 1.27676e-05)
(2.31945 -2.55025e-08 1.27676e-05)
(2.28022 -5.65484e-08 1.29643e-05)
(2.28022 -2.83242e-08 1.29643e-05)
(2.24187 -6.31775e-08 1.31554e-05)
(2.24187 -3.39536e-08 1.31554e-05)
(2.20439 -4.48698e-08 1.33413e-05)
(2.20439 -1.4258e-08 1.33413e-05)
(2.16779 -8.71684e-08 1.35194e-05)
(2.16779 -5.5497e-08 1.35194e-05)
(2.13206 -1.72803e-08 1.36915e-05)
(2.13206 1.59789e-08 1.36915e-05)
(2.0972 -9.01945e-08 1.38569e-05)
(2.0972 -5.58957e-08 1.38569e-05)
(2.06322 -3.54223e-08 1.40133e-05)
(2.06322 8.664e-10 1.40133e-05)
(2.03012 -6.18708e-08 1.41628e-05)
(2.03012 -2.47839e-08 1.41628e-05)
(1.99789 -5.04718e-08 1.43033e-05)
(1.99789 -1.07348e-08 1.43033e-05)
(1.96655 -6.08342e-08 1.44343e-05)
(1.96655 -2.08074e-08 1.44343e-05)
(1.93609 -5.38922e-08 1.45549e-05)
(1.93609 -1.0161e-08 1.45549e-05)
(1.90652 -5.90485e-08 1.46643e-05)
(1.90652 -1.60368e-08 1.46643e-05)
(1.87784 -5.70494e-08 1.47616e-05)
(1.87784 -8.53501e-09 1.47617e-05)
(1.85005 -5.02012e-08 1.48469e-05)
(1.85005 -4.40079e-09 1.48469e-05)
(1.82315 -7.76236e-08 1.49171e-05)
(1.82315 -2.31003e-08 1.49171e-05)
(1.79715 -2.3197e-08 1.4974e-05)
(1.79715 2.47085e-08 1.4974e-05)
(1.77203 -1.09601e-07 1.50135e-05)
(1.77203 -4.71103e-08 1.50136e-05)
(1.74779 -8.78504e-09 1.50358e-05)
(1.74779 3.97023e-08 1.50357e-05)
(1.7244 -9.36894e-08 1.50418e-05)
(1.7244 -2.00029e-08 1.50419e-05)
(1.70186 -5.0019e-08 1.50256e-05)
(1.70186 -4.14644e-09 1.50254e-05)
(1.6801 -6.20259e-08 1.49895e-05)
(1.6801 2.86514e-08 1.49897e-05)
(1.65909 -5.29656e-08 1.49321e-05)
(1.65909 -1.63592e-08 1.49318e-05)
(1.63878 -9.67779e-08 1.48482e-05)
(1.63878 2.14767e-08 1.48487e-05)
(1.61907 -7.9914e-09 1.47416e-05)
(1.61907 6.35059e-09 1.4741e-05)
(1.59992 -1.47192e-07 1.46054e-05)
(1.59992 1.82205e-08 1.46063e-05)
(1.58124 7.75727e-08 1.44487e-05)
(1.58124 4.42543e-08 1.44474e-05)
(1.56296 -3.62409e-07 1.42441e-05)
(1.56296 -1.12663e-07 1.42459e-05)
(1.54503 4.13268e-07 1.40316e-05)
(1.54503 2.82373e-07 1.40291e-05)
(1.52738 -7.60311e-07 1.37616e-05)
(1.52738 -3.54967e-07 1.37653e-05)
(1.51001 8.85126e-07 1.34919e-05)
(1.51001 5.60102e-07 1.34869e-05)
(1.49289 -1.4281e-06 1.31374e-05)
(1.49289 -7.30665e-07 1.31445e-05)
(1.47606 1.79283e-06 1.2813e-05)
(1.47606 1.08565e-06 1.28031e-05)
(1.45955 -2.5982e-06 1.23678e-05)
(1.45955 -1.34379e-06 1.2382e-05)
(1.44341 3.262e-06 1.19919e-05)
(1.44341 1.80493e-06 1.19719e-05)
(1.42769 -4.49828e-06 1.14345e-05)
(1.42769 -2.16893e-06 1.1463e-05)
(1.41245 5.81596e-06 1.10369e-05)
(1.41245 2.88439e-06 1.09964e-05)
(1.39773 -7.95085e-06 1.03297e-05)
(1.39773 -3.52441e-06 1.03876e-05)
(1.38355 1.04407e-05 9.95011e-06)
(1.38355 4.59738e-06 9.86767e-06)
(1.36994 -1.41613e-05 9.02932e-06)
(1.36994 -5.605e-06 9.14745e-06)
(1.3569 1.88134e-05 8.75567e-06)
(1.3569 7.18452e-06 8.58646e-06)
(1.34443 -2.56066e-05 7.47931e-06)
(1.34443 -8.8418e-06 7.72266e-06)
(1.33249 3.44744e-05 7.49178e-06)
(1.33249 1.12645e-05 7.14157e-06)
(1.32104 -4.70891e-05 5.60288e-06)
(1.32104 -1.38558e-05 6.10868e-06)
(1.31003 6.38356e-05 6.23723e-06)
(1.31003 1.72521e-05 5.50575e-06)
(1.29941 -8.73734e-05 3.23573e-06)
(1.29941 -2.07801e-05 4.29707e-06)
(1.28912 0.000119112 5.17638e-06)
(1.28912 2.49253e-05 3.63367e-06)
(1.27914 -0.000163487 1.37533e-06)
(1.27914 -2.87978e-05 2.30213e-06)
(1.26943 0.000191905 3.17455e-06)
(1.26943 3.25182e-05 1.44056e-06)
(1.25997 -0.000239279 1.76941e-07)
(1.25997 -3.51582e-05 2.05394e-06)
(1.25078 0.000242471 -7.50173e-19)
(1.25078 3.61306e-05 2.17889e-06)
(1.24191 -0.00020408 2.98866e-06)
(1.24191 -3.60054e-05 1.1829e-06)
(1.23339 0.000182341 1.39568e-06)
(1.23339 3.35539e-05 2.38691e-06)
(1.22527 -0.000137759 6.11452e-06)
(1.22527 -3.11354e-05 4.14102e-06)
(1.2176 0.00010412 3.86553e-06)
(1.2176 2.70657e-05 5.3223e-06)
(1.21037 -7.83383e-05 8.41979e-06)
(1.21037 -2.39604e-05 7.35051e-06)
(1.20362 5.91344e-05 7.90047e-06)
(1.20362 1.99019e-05 8.68315e-06)
(1.19735 -4.43138e-05 1.14243e-05)
(1.19735 -1.71731e-05 1.08554e-05)
(1.19155 3.33287e-05 1.19925e-05)
(1.19155 1.36403e-05 1.24055e-05)
(1.18621 -2.48438e-05 1.4981e-05)
(1.18621 -1.16416e-05 1.46842e-05)
(1.18128 1.8641e-05 1.62683e-05)
(1.18128 8.8647e-06 1.64821e-05)
(1.17665 -1.39691e-05 1.89954e-05)
(1.17665 -7.7594e-06 1.88438e-05)
(1.17222 1.04868e-05 2.07895e-05)
(1.17222 5.64104e-06 2.0898e-05)
(1.16783 -7.93841e-06 2.34396e-05)
(1.16783 -5.1634e-06 2.33639e-05)
(1.16335 5.87075e-06 2.55845e-05)
(1.16335 3.43125e-06 2.56387e-05)
(1.1586 -4.52255e-06 2.82594e-05)
(1.1586 -3.39728e-06 2.82225e-05)
(1.15347 3.32784e-06 3.06642e-05)
(1.15347 2.04228e-06 3.06909e-05)
(1.14784 -2.69222e-06 3.3378e-05)
(1.14784 -2.33988e-06 3.33606e-05)
(1.14169 1.91179e-06 3.59499e-05)
(1.14169 1.17258e-06 3.5963e-05)
(1.13506 -1.66035e-06 3.87044e-05)
(1.13506 -1.65911e-06 3.86966e-05)
(1.12803 9.47246e-07 4.13711e-05)
(1.12803 4.64455e-07 4.13775e-05)
(1.12069 -9.59415e-07 4.41698e-05)
(1.12069 -1.10877e-06 4.41666e-05)
(1.1131 3.19194e-07 4.6907e-05)
(1.1131 -4.20518e-08 4.69103e-05)
(1.10525 -5.65383e-07 4.97214e-05)
(1.10525 -7.7431e-07 4.97203e-05)
(1.09715 -1.64896e-08 5.24936e-05)
(1.09715 -3.15702e-07 5.24955e-05)
(1.08875 -4.10799e-07 5.52912e-05)
(1.08875 -6.38427e-07 5.5291e-05)
(1.07999 -3.46727e-07 5.80562e-05)
(1.07999 -6.10677e-07 5.80574e-05)
(1.07083 -4.18457e-07 6.08599e-05)
(1.07083 -6.4636e-07 6.08602e-05)
(1.06122 -5.10318e-07 6.36942e-05)
(1.06122 -7.50185e-07 6.36952e-05)
(1.05111 -5.42417e-07 6.65958e-05)
(1.05111 -7.6257e-07 6.65963e-05)
(1.04048 -4.87143e-07 6.9596e-05)
(1.04048 -7.07903e-07 6.95968e-05)
(1.02935 -7.55352e-07 7.26887e-05)
(1.02935 -9.63553e-07 7.26892e-05)
(1.01786 -5.62141e-07 7.59324e-05)
(1.01786 -7.6614e-07 7.59331e-05)
(1.00619 -8.32298e-07 7.93483e-05)
(1.00619 -1.02646e-06 7.93489e-05)
(0.994589 -6.44333e-07 8.29502e-05)
(0.994589 -8.32242e-07 8.29509e-05)
(0.983292 -5.89073e-07 8.67475e-05)
(0.983292 -7.68146e-07 8.67481e-05)
(0.972454 -8.0855e-07 9.06413e-05)
(0.972454 -9.80646e-07 9.06419e-05)
(0.96212 -3.41924e-07 9.46433e-05)
(0.96212 -5.04853e-07 9.46439e-05)
(0.952208 -1.04374e-06 9.86386e-05)
(0.952208 -1.1995e-06 9.86392e-05)
(0.942495 -6.51751e-07 0.000102655)
(0.942495 -7.9881e-07 0.000102656)
(0.932759 -1.02183e-06 0.000106761)
(0.932759 -1.16059e-06 0.000106761)
(0.922852 -1.19734e-06 0.000110924)
(0.922852 -1.32781e-06 0.000110925)
(0.91277 -8.39217e-07 0.000115304)
(0.91277 -9.60597e-07 0.000115304)
(0.90263 -1.46118e-06 0.000119827)
(0.90263 -1.57455e-06 0.000119827)
(0.892558 -8.87779e-07 0.000124556)
(0.892558 -9.91603e-07 0.000124556)
(0.882677 -1.39943e-06 0.000129481)
(0.882677 -1.4949e-06 0.000129482)
(0.873092 -1.09356e-06 0.000134539)
(0.873092 -1.1795e-06 0.00013454)
(0.863946 -1.45384e-06 0.000139749)
(0.863946 -1.53074e-06 0.000139749)
(0.855429 -1.48121e-06 0.000145057)
(0.855429 -1.54892e-06 0.000145057)
(0.847768 -1.2508e-06 0.000150517)
(0.847768 -1.30846e-06 0.000150517)
(0.841152 -1.53512e-06 0.000155953)
(0.841152 -1.58374e-06 0.000155954)
(0.835603 -1.25267e-06 0.000161268)
(0.835603 -1.29099e-06 0.000161268)
(0.830959 -1.55234e-06 0.000166347)
(0.830959 -1.58109e-06 0.000166347)
(0.82688 -1.58531e-06 0.000171089)
(0.82688 -1.60379e-06 0.000171089)
(0.8229 -1.87247e-06 0.00017554)
(0.8229 -1.88094e-06 0.00017554)
(0.818544 -1.72886e-06 0.000179766)
(0.818544 -1.72702e-06 0.000179766)
(0.8134 -1.93201e-06 0.000183798)
(0.8134 -1.91991e-06 0.000183798)
(0.807082 -2.04183e-06 0.000187665)
(0.807082 -2.01927e-06 0.000187665)
(0.799277 -2.15585e-06 0.000191532)
(0.799277 -2.12289e-06 0.000191532)
(0.789962 -2.23274e-06 0.000195559)
(0.789962 -2.18917e-06 0.000195559)
(0.779531 -2.38702e-06 0.00019989)
(0.779531 -2.33267e-06 0.00019989)
(0.768728 -2.02672e-06 0.000204642)
(0.768728 -1.96195e-06 0.000204641)
(0.75839 -2.56036e-06 0.00020966)
(0.75839 -2.48425e-06 0.000209659)
(0.749236 -2.23397e-06 0.000214853)
(0.749236 -2.14701e-06 0.000214852)
(0.741868 -2.68674e-06 0.000220081)
(0.741868 -2.58823e-06 0.000220081)
(0.736664 -2.15509e-06 0.00022514)
(0.736664 -2.04558e-06 0.000225139)
(0.733432 -2.82406e-06 0.000229763)
(0.733432 -2.70218e-06 0.000229762)
(0.731266 -2.29393e-06 0.000233837)
(0.731266 -2.16099e-06 0.000233837)
(0.72894 -3.27004e-06 0.000237325)
(0.72894 -3.12445e-06 0.000237324)
(0.725549 -2.91452e-06 0.000240371)
(0.725549 -2.75701e-06 0.00024037)
(0.721079 -3.64456e-06 0.000243241)
(0.721079 -3.47489e-06 0.00024324)
(0.716286 -3.67965e-06 0.000246072)
(0.716286 -3.49681e-06 0.000246071)
(0.712193 -3.33522e-06 0.00024916)
(0.712193 -3.14075e-06 0.000249159)
(0.709601 -4.11967e-06 0.000252232)
(0.709601 -3.91143e-06 0.00025223)
(0.708959 -3.39056e-06 0.000255384)
(0.708959 -3.1701e-06 0.000255382)
(0.710509 -3.63168e-06 0.000258577)
(0.710509 -3.39754e-06 0.000258576)
(0.714058 -3.33745e-06 0.000261532)
(0.714058 -3.09064e-06 0.000261531)
(0.719003 -3.68421e-06 0.000264208)
(0.719003 -3.4235e-06 0.000264206)
(0.724709 -3.50645e-06 0.000266591)
(0.724709 -3.23264e-06 0.000266589)
(0.73071 -4.20343e-06 0.000268687)
(0.73071 -3.91569e-06 0.000268685)
(0.736643 -4.31077e-06 0.000270649)
(0.736643 -4.0092e-06 0.000270647)
(0.742089 -4.77568e-06 0.000272775)
(0.742089 -4.46022e-06 0.000272772)
(0.746517 -4.48519e-06 0.00027522)
(0.746517 -4.15541e-06 0.000275218)
(0.749455 -4.64373e-06 0.000277916)
(0.749455 -4.29965e-06 0.000277913)
(0.750585 -4.45425e-06 0.000280621)
(0.750585 -4.09574e-06 0.000280618)
(0.749781 -5.04978e-06 0.000283175)
(0.749781 -4.67652e-06 0.000283172)
(0.747196 -4.76968e-06 0.00028571)
(0.747196 -4.38166e-06 0.000285707)
(0.742976 -5.40373e-06 0.000288344)
(0.742976 -5.00095e-06 0.00028834)
(0.737079 -5.02739e-06 0.00029124)
(0.737079 -4.60948e-06 0.000291237)
(0.729704 -5.71447e-06 0.000294513)
(0.729704 -5.28187e-06 0.00029451)
(0.721423 -5.24418e-06 0.000298283)
(0.721423 -4.79624e-06 0.000298279)
(0.712657 -5.75569e-06 0.000302579)
(0.712657 -5.29309e-06 0.000302576)
(0.703251 -5.03854e-06 0.000307311)
(0.703251 -4.56092e-06 0.000307307)
(0.692502 -6.30723e-06 0.000312256)
(0.692502 -5.81493e-06 0.000312251)
(0.67984 -5.08642e-06 0.000317771)
(0.67984 -4.57953e-06 0.000317766)
(0.665416 -6.64134e-06 0.00032393)
(0.665416 -6.12032e-06 0.000323925)
(0.649995 -5.10389e-06 0.000330967)
(0.649995 -4.56891e-06 0.000330962)
(0.63448 -7.09615e-06 0.000338813)
(0.63448 -6.54803e-06 0.000338808)
(0.619392 -5.26948e-06 0.000347611)
(0.619392 -4.70854e-06 0.000347606)
(0.605294 -7.59989e-06 0.0003572)
(0.605294 -7.02753e-06 0.000357195)
(0.593639 -5.3947e-06 0.000367485)
(0.593639 -4.81146e-06 0.000367479)
(0.586294 -8.49822e-06 0.000377835)
(0.586294 -7.90666e-06 0.000377829)
(0.584125 -5.23171e-06 0.000388174)
(0.584125 -4.63264e-06 0.000388168)
(0.586102 -9.23807e-06 0.000397791)
(0.586102 -8.6363e-06 0.000397784)
(0.589589 -5.42366e-06 0.000406929)
(0.589589 -4.82002e-06 0.000406922)
(0.591488 -1.10697e-05 0.000415358)
(0.591488 -1.04731e-05 0.000415351)
(0.589584 -4.95931e-06 0.000424268)
(0.589584 -4.36977e-06 0.000424261)
(0.583582 -1.15492e-05 0.000433032)
(0.583582 -1.09834e-05 0.000433025)
(0.574757 -3.79095e-06 0.000442101)
(0.574757 -3.24504e-06 0.000442094)
(0.564828 -1.29769e-05 0.000450313)
(0.564828 -1.24825e-05 0.000450305)
(0.55531 -2.04706e-06 0.000458732)
(0.55531 -1.58941e-06 0.000458726)
(0.547223 -1.42633e-05 0.000465068)
(0.547223 -1.39045e-05 0.000465061)
(0.540843 -1.07196e-06 0.000469861)
(0.540843 -7.68681e-07 0.000469858)
(0.535697 -1.76016e-05 0.000471064)
(0.535697 -1.748e-05 0.000471058)
(0.531408 -5.48897e-07 0.000471292)
(0.531408 -4.96879e-07 0.000471295)
(0.528921 -2.11087e-05 0.000468781)
(0.528921 -2.13876e-05 0.000468776)
(0.529713 1.649e-06 0.000466747)
(0.529713 1.3102e-06 0.000466764)
(0.533736 -2.3329e-05 0.000461828)
(0.533736 -2.42741e-05 0.000461824)
(0.539685 5.2225e-06 0.000456964)
(0.539685 4.29705e-06 0.000457008)
(0.545575 -2.63398e-05 0.000446932)
(0.545575 -2.83941e-05 0.000446926)
(0.54936 7.68447e-06 0.000435753)
(0.54936 5.90056e-06 0.000435853)
(0.550242 -2.93212e-05 0.000418056)
(0.550242 -3.32359e-05 0.000418034)
(0.54905 9.83103e-06 0.000399071)
(0.549049 6.79456e-06 0.000399289)
(0.546996 -3.13493e-05 0.000372869)
(0.546996 -3.83316e-05 0.000372795)
(0.543699 1.21138e-05 0.000345905)
(0.543699 7.1166e-06 0.000346354)
(0.538197 -3.06918e-05 0.00031092)
(0.538196 -4.23126e-05 0.000310725)
(0.531247 1.04669e-05 0.000274248)
(0.531247 1.45615e-06 0.000275099)
(0.525705 -2.50427e-05 0.000231179)
(0.525705 -4.16075e-05 0.000230839)
(0.523836 1.01739e-05 0.000185533)
(0.523836 -7.25108e-06 0.000186828)
(0.524602 -1.59924e-05 0.00013097)
(0.524602 -2.99177e-05 0.000130829)
(0.525557 9.75134e-06 6.90843e-05)
(0.525557 -1.09984e-06 7.00107e-05)
(0.0341914 6.18932e-09 -3.86141e-11)
(0.0341914 6.1292e-09 -1.48828e-08)
(0.102872 1.83946e-08 -3.88374e-10)
(0.102872 1.8164e-08 -2.29123e-08)
(0.172346 3.00736e-08 -1.3172e-09)
(0.172346 2.96437e-08 -2.34866e-08)
(0.242615 3.9995e-08 -3.13238e-09)
(0.242615 3.92811e-08 -2.37134e-08)
(0.313676 4.07448e-08 -5.89049e-09)
(0.313676 3.98394e-08 -2.29267e-08)
(0.38552 2.55754e-08 -9.02428e-09)
(0.38552 2.44926e-08 -2.03859e-08)
(0.458135 4.15815e-09 -1.15189e-08)
(0.458135 2.85732e-09 -1.63704e-08)
(0.531509 -9.6492e-09 -1.29356e-08)
(0.531509 -1.10849e-08 -1.29356e-08)
(0.605635 -1.28087e-08 -1.36575e-08)
(0.605635 -1.43609e-08 -1.36575e-08)
(0.680521 -9.43362e-09 -1.42086e-08)
(0.680521 -1.10456e-08 -1.42085e-08)
(0.756188 -6.71906e-09 -1.48725e-08)
(0.756188 -8.40345e-09 -1.48725e-08)
(0.832674 -4.20591e-09 -1.57355e-08)
(0.832674 -5.93664e-09 -1.57355e-08)
(0.910034 -1.98786e-09 -1.68194e-08)
(0.910034 -3.76227e-09 -1.68194e-08)
(0.988338 -7.2506e-10 -1.81231e-08)
(0.988338 -2.53531e-09 -1.81231e-08)
(1.06767 4.86685e-10 -1.96406e-08)
(1.06767 -1.35559e-09 -1.96406e-08)
(1.14814 1.01883e-09 -2.13671e-08)
(1.14814 -8.53378e-10 -2.13671e-08)
(1.22986 1.9746e-09 -2.33038e-08)
(1.22986 7.7164e-11 -2.33038e-08)
(1.31295 2.4594e-09 -2.54594e-08)
(1.31295 5.36953e-10 -2.54594e-08)
(1.39757 2.4879e-09 -2.78343e-08)
(1.39757 5.40833e-10 -2.78342e-08)
(1.48385 2.94693e-09 -3.04333e-08)
(1.48385 9.80209e-10 -3.04333e-08)
(1.57195 3.61277e-09 -3.32753e-08)
(1.57195 1.62481e-09 -3.32753e-08)
(1.66205 3.45529e-09 -3.63726e-08)
(1.66205 1.44446e-09 -3.63726e-08)
(1.7543 3.12399e-09 -3.97242e-08)
(1.7543 1.09839e-09 -3.97242e-08)
(1.84888 4.18625e-09 -4.3351e-08)
(1.84888 2.13844e-09 -4.3351e-08)
(1.94595 4.11295e-09 -4.72807e-08)
(1.94595 2.04709e-09 -4.72807e-08)
(2.04566 3.82105e-09 -5.15206e-08)
(2.04566 1.7382e-09 -5.15206e-08)
(2.14817 3.51232e-09 -5.60759e-08)
(2.14817 1.41072e-09 -5.60759e-08)
(2.25362 4.84073e-09 -6.09807e-08)
(2.25362 2.72265e-09 -6.09807e-08)
(2.36213 4.16422e-09 -6.62657e-08)
(2.36213 2.02657e-09 -6.62657e-08)
(2.4738 4.25516e-09 -7.1942e-08)
(2.4738 2.1016e-09 -7.1942e-08)
(2.58873 3.64368e-09 -7.80232e-08)
(2.58873 1.47292e-09 -7.80232e-08)
(2.70696 5.16784e-09 -8.45506e-08)
(2.70696 2.97886e-09 -8.45506e-08)
(2.82854 4.30074e-09 -9.15645e-08)
(2.82854 2.09422e-09 -9.15645e-08)
(2.95347 4.16654e-09 -9.90765e-08)
(2.95347 1.94294e-09 -9.90765e-08)
(3.08174 4.17964e-09 -1.07117e-07)
(3.08174 1.93813e-09 -1.07117e-07)
(3.21329 5.18833e-09 -1.1574e-07)
(3.21329 2.9289e-09 -1.1574e-07)
(3.34803 4.52839e-09 -1.24992e-07)
(3.34803 2.2507e-09 -1.24992e-07)
(3.48586 4.15892e-09 -1.34896e-07)
(3.48586 1.86281e-09 -1.34896e-07)
(3.62663 4.47516e-09 -1.45495e-07)
(3.62663 2.16092e-09 -1.45495e-07)
(3.77015 5.11268e-09 -1.56858e-07)
(3.77015 2.77898e-09 -1.56858e-07)
(3.91621 5.19971e-09 -1.69055e-07)
(3.91621 2.84559e-09 -1.69055e-07)
(4.06456 4.09827e-09 -1.82124e-07)
(4.06456 1.72745e-09 -1.82124e-07)
(4.2149 4.63453e-09 -1.96118e-07)
(4.2149 2.23943e-09 -1.96118e-07)
(4.36692 5.90455e-09 -2.11143e-07)
(4.36692 3.49219e-09 -2.11143e-07)
(4.52025 4.10271e-09 -2.27267e-07)
(4.52025 1.66698e-09 -2.27267e-07)
(4.67448 6.19839e-09 -2.44577e-07)
(4.67448 3.74105e-09 -2.44577e-07)
(4.82918 3.14549e-09 -2.63142e-07)
(4.82918 6.66405e-10 -2.63142e-07)
(4.98385 7.80534e-09 -2.83095e-07)
(4.98385 5.30475e-09 -2.83095e-07)
(5.13798 5.85356e-09 -3.04607e-07)
(5.13798 3.32196e-09 -3.04607e-07)
(5.29099 9.24383e-10 -3.27631e-07)
(5.29099 -1.62043e-09 -3.27631e-07)
(5.44227 5.8546e-09 -3.52282e-07)
(5.44227 3.27339e-09 -3.52282e-07)
(5.59119 1.82994e-08 -3.79105e-07)
(5.59119 1.56935e-08 -3.79105e-07)
(5.73705 -1.63384e-08 -4.07719e-07)
(5.73705 -1.89669e-08 -4.07718e-07)
(5.87914 2.69601e-08 -4.38452e-07)
(5.87914 2.43056e-08 -4.38452e-07)
(6.01671 -6.16928e-09 -4.71724e-07)
(6.01671 -8.85994e-09 -4.71724e-07)
(6.149 6.96869e-09 -5.07176e-07)
(6.149 4.24039e-09 -5.07176e-07)
(6.27523 1.50355e-08 -5.45492e-07)
(6.27523 1.22865e-08 -5.45492e-07)
(6.39461 -9.84378e-09 -5.86392e-07)
(6.39461 -1.26267e-08 -5.86392e-07)
(6.50639 1.9449e-08 -6.30101e-07)
(6.50639 1.66269e-08 -6.30101e-07)
(6.60981 -2.96539e-09 -6.7692e-07)
(6.60981 -5.82742e-09 -6.7692e-07)
(6.70416 1.38034e-08 -7.2678e-07)
(6.70416 1.09126e-08 -7.2678e-07)
(6.78878 1.0717e-09 -7.79845e-07)
(6.78878 -1.86546e-09 -7.79845e-07)
(6.86307 -8.45116e-09 -8.35489e-07)
(6.86307 -1.14511e-08 -8.35489e-07)
(6.92651 3.04828e-08 -8.9447e-07)
(6.92651 2.74933e-08 -8.9447e-07)
(6.97869 -1.69381e-08 -9.56486e-07)
(6.97869 -2.00215e-08 -9.56486e-07)
(7.01929 2.90398e-09 -1.02056e-06)
(7.01929 -2.16073e-10 -1.02056e-06)
(7.04813 1.54548e-08 -1.08743e-06)
(7.04813 1.22912e-08 -1.08743e-06)
(7.06516 -2.67039e-08 -1.15601e-06)
(7.06516 -2.99296e-08 -1.15601e-06)
(7.07046 4.48544e-08 -1.22692e-06)
(7.07046 4.15969e-08 -1.22692e-06)
(7.06427 -6.65533e-08 -1.29876e-06)
(7.06427 -6.99068e-08 -1.29876e-06)
(7.04696 6.5744e-08 -1.37194e-06)
(7.04696 6.23831e-08 -1.37194e-06)
(7.01904 -6.87586e-08 -1.44633e-06)
(7.01904 -7.22292e-08 -1.44633e-06)
(6.98113 4.79782e-08 -1.52126e-06)
(6.98113 4.448e-08 -1.52126e-06)
(6.93399 -5.06807e-08 -1.59742e-06)
(6.93399 -5.42703e-08 -1.59742e-06)
(6.87843 3.01794e-08 -1.67432e-06)
(6.87843 2.65412e-08 -1.67432e-06)
(6.81534 -4.18254e-08 -1.75249e-06)
(6.81534 -4.55405e-08 -1.75249e-06)
(6.74563 7.99108e-09 -1.8314e-06)
(6.74563 4.2061e-09 -1.8314e-06)
(6.67022 -1.30279e-08 -1.91237e-06)
(6.67022 -1.68933e-08 -1.91237e-06)
(6.59001 -2.37556e-08 -1.99459e-06)
(6.59001 -2.76964e-08 -1.99459e-06)
(6.50586 1.56899e-08 -2.07942e-06)
(6.50586 1.16885e-08 -2.07942e-06)
(6.41855 -5.90093e-08 -2.16593e-06)
(6.41855 -6.3127e-08 -2.16593e-06)
(6.32882 4.04253e-08 -2.25526e-06)
(6.32882 3.6268e-08 -2.25526e-06)
(6.23731 -6.57088e-08 -2.34752e-06)
(6.23731 -6.99911e-08 -2.34752e-06)
(6.14456 2.11309e-08 -2.44217e-06)
(6.14456 1.67874e-08 -2.44217e-06)
(6.05105 -3.97898e-08 -2.54045e-06)
(6.05105 -4.42525e-08 -2.54045e-06)
(5.95717 9.84391e-09 -2.64215e-06)
(5.95717 5.31047e-09 -2.64215e-06)
(5.86325 -4.77127e-08 -2.74715e-06)
(5.86325 -5.23566e-08 -2.74715e-06)
(5.76955 1.51722e-08 -2.8558e-06)
(5.76955 1.04262e-08 -2.8558e-06)
(5.67625 -5.8044e-08 -2.96787e-06)
(5.67625 -6.28894e-08 -2.96787e-06)
(5.58353 1.3759e-08 -3.08337e-06)
(5.58353 8.80971e-09 -3.08337e-06)
(5.49152 -3.65137e-08 -3.20339e-06)
(5.49152 -4.15951e-08 -3.20339e-06)
(5.40031 -1.13123e-08 -3.32697e-06)
(5.40031 -1.64859e-08 -3.32697e-06)
(5.30998 -2.70393e-08 -3.45464e-06)
(5.30998 -3.23546e-08 -3.45464e-06)
(5.22058 -3.72672e-08 -3.58534e-06)
(5.22058 -4.27099e-08 -3.58534e-06)
(5.13217 2.25454e-08 -3.72135e-06)
(5.13217 1.70032e-08 -3.72135e-06)
(5.04479 -7.89672e-08 -3.86099e-06)
(5.04479 -8.46748e-08 -3.86099e-06)
(4.95846 9.84736e-09 -4.00365e-06)
(4.95846 4.02087e-09 -4.00365e-06)
(4.87323 -2.95972e-08 -4.15172e-06)
(4.87323 -3.55949e-08 -4.15172e-06)