/*--------------------------------*- C++ -*----------------------------------*\
| =========                 |                                                 |
| \\      /  F ield         | OpenFOAM: The Open Source CFD Toolbox           |
|  \\    /   O peration     | Version:  2012                                  |
|   \\  /    A nd           | Website:  www.openfoam.com                      |
|    \\/     M anipulation  |                                                 |
\*---------------------------------------------------------------------------*/
FoamFile
{
    version     2.0;
    format      ascii;
    class       volVectorField;
    location    "17100";
    object      U;
}
// * * * * * * * * * * * * * * * * * * * * * * * * * * * * * * * * * * * * * //

dimensions      [0 1 -1 0 0 0 0];


internalField   nonuniform List<vector> 
2560
(
(0.11268 9.27047e-09 -3.50756e-08)
(0.11268 -2.62627e-09 4.57211e-22)
(0.339475 1.95085e-08 -5.41737e-08)
(0.339475 9.3537e-09 -1.59469e-10)
(0.569354 1.07865e-08 -3.93621e-08)
(0.569354 7.94471e-09 -4.23912e-10)
(0.802349 -2.62855e-09 -2.082e-08)
(0.802349 -6.26143e-09 -6.48644e-10)
(1.03849 -3.22162e-09 -1.07379e-08)
(1.03849 -7.99272e-09 -8.20015e-10)
(1.2778 -5.31737e-11 -6.08928e-09)
(1.2778 -4.9294e-09 -9.89687e-10)
(1.52034 1.19376e-09 -3.62974e-09)
(1.52034 -3.93593e-09 -1.18736e-09)
(1.76613 2.35857e-09 -2.03012e-09)
(1.76613 -2.88544e-09 -1.42855e-09)
(2.01524 2.45633e-09 -7.70583e-10)
(2.01524 -2.9119e-09 -1.2083e-09)
(2.26773 3.16693e-09 3.7926e-10)
(2.26773 -2.28446e-09 1.38108e-11)
(2.52366 3.15375e-09 1.54051e-09)
(2.52366 -2.389e-09 1.22586e-09)
(2.78309 3.38597e-09 2.78849e-09)
(2.78309 -2.21998e-09 2.51137e-09)
(3.04611 3.54924e-09 4.25924e-09)
(3.04611 -2.12848e-09 3.92853e-09)
(3.31278 3.59566e-09 4.86161e-09)
(3.31278 -2.13857e-09 5.97095e-09)
(3.58319 3.73009e-09 5.52791e-09)
(3.58319 -2.0627e-09 5.53024e-09)
(3.85742 3.6911e-09 6.26367e-09)
(3.85742 -2.15303e-09 6.26542e-09)
(4.13553 3.84842e-09 7.07036e-09)
(4.13553 -2.04709e-09 7.07272e-09)
(4.41761 3.91103e-09 7.95663e-09)
(4.41761 -2.03232e-09 7.95841e-09)
(4.70373 3.7963e-09 8.92252e-09)
(4.70373 -2.19394e-09 8.92493e-09)
(4.99395 3.92731e-09 9.9746e-09)
(4.99395 -2.10785e-09 9.97642e-09)
(5.28832 4.02161e-09 1.1118e-08)
(5.28832 -2.05774e-09 1.11205e-08)
(5.5869 4.0256e-09 1.23616e-08)
(5.5869 -2.09746e-09 1.23635e-08)
(5.88973 3.73113e-09 1.37032e-08)
(5.88973 -2.43381e-09 1.37057e-08)
(6.19682 4.23539e-09 1.51541e-08)
(6.19682 -1.97187e-09 1.5156e-08)
(6.50819 3.99069e-09 1.67219e-08)
(6.50819 -2.25811e-09 1.67245e-08)
(6.82384 4.08062e-09 1.84131e-08)
(6.82384 -2.20983e-09 1.8415e-08)
(7.14374 3.69277e-09 2.02265e-08)
(7.14374 -2.63844e-09 2.02291e-08)
(7.46784 4.43512e-09 2.21779e-08)
(7.46784 -1.93728e-09 2.21799e-08)
(7.79607 3.86786e-09 2.42754e-08)
(7.79607 -2.54582e-09 2.42781e-08)
(8.12836 4.20271e-09 2.65257e-08)
(8.12836 -2.25239e-09 2.65277e-08)
(8.46457 3.61976e-09 2.89302e-08)
(8.46457 -2.87656e-09 2.89329e-08)
(8.80457 4.51847e-09 3.15061e-08)
(8.80457 -2.0196e-09 3.15082e-08)
(9.14819 3.82413e-09 3.42643e-08)
(9.14819 -2.75617e-09 3.42671e-08)
(9.49521 4.10937e-09 3.72101e-08)
(9.49521 -2.51361e-09 3.72122e-08)
(9.84543 3.73168e-09 4.03494e-08)
(9.84543 -2.93413e-09 4.03523e-08)
(10.1986 4.46672e-09 4.37032e-08)
(10.1986 -2.2426e-09 4.37055e-08)
(10.5543 3.80589e-09 4.72822e-08)
(10.5543 -2.94771e-09 4.72852e-08)
(10.9123 4.04991e-09 5.10937e-08)
(10.9123 -2.7488e-09 5.1096e-08)
(11.2723 3.70469e-09 5.51457e-08)
(11.2723 -3.13934e-09 5.51487e-08)
(11.6338 4.40057e-09 5.9462e-08)
(11.6338 -2.48999e-09 5.94643e-08)
(11.9963 3.86265e-09 6.40577e-08)
(11.9963 -3.07521e-09 6.40608e-08)
(12.3595 4.02711e-09 6.89435e-08)
(12.3595 -2.95939e-09 6.89459e-08)
(12.7228 3.47715e-09 7.41239e-08)
(12.7228 -3.5581e-09 7.41271e-08)
(13.0857 4.7552e-09 7.9634e-08)
(13.0857 -2.33092e-09 7.96365e-08)
(13.4476 3.05883e-09 8.54794e-08)
(13.4476 -4.07827e-09 8.54827e-08)
(13.8079 4.90722e-09 9.16843e-08)
(13.8079 -2.28353e-09 9.16868e-08)
(14.166 2.47335e-09 9.82514e-08)
(14.166 -4.77041e-09 9.82547e-08)
(14.5212 5.51479e-09 1.05216e-07)
(14.5212 -1.78524e-09 1.05218e-07)
(14.8729 3.25138e-09 1.12613e-07)
(14.8729 -4.1047e-09 1.12616e-07)
(15.2203 2.98035e-09 1.20407e-07)
(15.2203 -4.43488e-09 1.2041e-07)
(15.5627 2.94413e-09 1.28605e-07)
(15.5627 -4.53163e-09 1.28609e-07)
(15.8993 9.37269e-09 1.37383e-07)
(15.8993 1.83635e-09 1.37386e-07)
(16.2294 -5.31808e-09 1.46564e-07)
(16.2294 -1.29178e-08 1.46568e-07)
(16.5522 1.20875e-08 1.56227e-07)
(16.5522 4.42181e-09 1.5623e-07)
(16.8669 -1.15374e-09 1.66498e-07)
(16.8669 -8.88511e-09 1.66502e-07)
(17.1728 3.78423e-09 1.77186e-07)
(17.1728 -4.02088e-09 1.77189e-07)
(17.4689 7.40485e-09 1.8852e-07)
(17.4689 -4.66221e-10 1.88523e-07)
(17.7546 -3.45947e-09 2.00332e-07)
(17.7546 -1.14076e-08 2.00335e-07)
(18.029 9.9333e-09 2.1269e-07)
(18.029 1.91232e-09 2.12694e-07)
(18.2913 -2.15521e-09 2.25644e-07)
(18.2913 -1.02586e-08 2.25647e-07)
(18.5408 8.67486e-09 2.39156e-07)
(18.5408 4.95526e-10 2.3916e-07)
(18.7768 -1.52512e-09 2.53254e-07)
(18.7768 -9.79059e-09 2.53257e-07)
(18.9985 2.17942e-09 2.6774e-07)
(18.9985 -6.17136e-09 2.67744e-07)
(19.2053 6.97384e-09 2.82845e-07)
(19.2053 -1.4645e-09 2.82849e-07)
(19.3964 1.02423e-09 2.98527e-07)
(19.3964 -7.50361e-09 2.98531e-07)
(19.5714 -3.59345e-09 3.14456e-07)
(19.5714 -1.22219e-08 3.14459e-07)
(19.7296 1.38194e-08 3.30973e-07)
(19.7296 5.10687e-09 3.30977e-07)
(19.8706 -1.51672e-08 3.47718e-07)
(19.8706 -2.39946e-08 3.47721e-07)
(19.9939 2.55252e-08 3.64993e-07)
(19.9939 1.66125e-08 3.64997e-07)
(20.0991 -2.88803e-08 3.82367e-07)
(20.0991 -3.79161e-08 3.82371e-07)
(20.186 3.33185e-08 4.00012e-07)
(20.186 2.41956e-08 4.00016e-07)
(20.2542 -2.95555e-08 4.17906e-07)
(20.2542 -3.88133e-08 4.17909e-07)
(20.3038 2.76675e-08 4.358e-07)
(20.3038 1.8324e-08 4.35804e-07)
(20.3345 -2.23637e-08 4.53929e-07)
(20.3345 -3.18562e-08 4.53933e-07)
(20.3464 2.02128e-08 4.71999e-07)
(20.3464 1.06391e-08 4.72004e-07)
(20.3396 -1.63794e-08 4.90217e-07)
(20.3396 -2.61188e-08 4.90221e-07)
(20.3142 1.0328e-08 5.08214e-07)
(20.3142 5.1487e-10 5.08219e-07)
(20.2706 -3.95486e-09 5.26435e-07)
(20.2706 -1.39544e-08 5.26439e-07)
(20.209 -2.73069e-09 5.44422e-07)
(20.209 -1.27952e-08 5.44427e-07)
(20.1299 8.44968e-09 5.62634e-07)
(20.1299 -1.82239e-09 5.62638e-07)
(20.0337 -1.61969e-08 5.80613e-07)
(20.0337 -2.65164e-08 5.80618e-07)
(19.9211 1.88507e-08 5.98754e-07)
(19.9211 8.28717e-09 5.98758e-07)
(19.7926 -2.06564e-08 6.16945e-07)
(19.7926 -3.12374e-08 6.1695e-07)
(19.649 1.62064e-08 6.35103e-07)
(19.649 5.33481e-09 6.35107e-07)
(19.4909 -1.52349e-08 6.53489e-07)
(19.4909 -2.60839e-08 6.53495e-07)
(19.3192 1.47457e-08 6.7208e-07)
(19.3192 3.54731e-09 6.72084e-07)
(19.1346 -1.78362e-08 6.90827e-07)
(19.1346 -2.89562e-08 6.90833e-07)
(18.938 1.70523e-08 7.09847e-07)
(18.938 5.50433e-09 7.09851e-07)
(18.7303 -2.0338e-08 7.29091e-07)
(18.7303 -3.17321e-08 7.29097e-07)
(18.5123 1.70642e-08 7.48575e-07)
(18.5123 5.14163e-09 7.48579e-07)
(18.285 -1.43811e-08 7.68598e-07)
(18.285 -2.60507e-08 7.68604e-07)
(18.0491 1.08465e-08 7.88919e-07)
(18.0491 -1.48281e-09 7.88923e-07)
(17.8057 -1.10869e-08 8.09713e-07)
(17.8057 -2.30278e-08 8.09719e-07)
(17.5555 4.68942e-09 8.30723e-07)
(17.5555 -8.08316e-09 8.30727e-07)
(17.2994 1.00043e-09 8.52503e-07)
(17.2994 -1.12088e-08 8.5251e-07)
(17.0383 -4.09613e-09 8.7469e-07)
(17.0383 -1.73557e-08 8.74694e-07)
(16.7729 -2.57988e-09 8.97113e-07)
(16.7729 -1.50443e-08 8.9712e-07)
(16.5041 9.3392e-09 9.20403e-07)
(16.5041 -4.46733e-09 9.20407e-07)
(16.2324 -1.6954e-08 9.439e-07)
(16.2324 -2.96503e-08 9.43908e-07)
(15.9588 2.16596e-08 9.68171e-07)
(15.9588 7.23563e-09 9.68175e-07)
(15.6837 -2.26203e-08 9.92969e-07)
(15.6837 -3.55187e-08 9.92977e-07)
(15.4079 1.68938e-08 1.01802e-06)
(15.4079 1.76519e-09 1.01803e-06)
(15.1318 -1.43254e-08 1.04375e-06)
(15.1318 -2.7382e-08 1.04375e-06)
(14.8562 1.64633e-08 1.07009e-06)
(14.8562 5.21219e-10 1.0701e-06)
(14.5813 -2.12438e-08 1.09671e-06)
(14.5813 -3.43937e-08 1.09672e-06)
(14.3078 2.67425e-08 1.12408e-06)
(14.3078 9.84926e-09 1.12408e-06)
(14.036 -3.08068e-08 1.15171e-06)
(14.036 -4.39602e-08 1.15172e-06)
(13.7663 3.41442e-08 1.17991e-06)
(13.7663 1.61255e-08 1.17991e-06)
(13.499 -3.32521e-08 1.20858e-06)
(13.499 -4.62841e-08 1.2086e-06)
(13.2344 3.19419e-08 1.23751e-06)
(13.2344 1.25769e-08 1.23751e-06)
(12.9729 -3.03423e-08 1.26685e-06)
(12.9729 -4.30829e-08 1.26687e-06)
(12.7145 3.84078e-08 1.29689e-06)
(12.7145 1.74145e-08 1.29689e-06)
(12.4596 -4.63947e-08 1.32671e-06)
(12.4596 -5.86111e-08 1.32673e-06)
(12.2082 6.036e-08 1.35746e-06)
(12.2082 3.73776e-08 1.35745e-06)
(11.9606 -6.97757e-08 1.3878e-06)
(11.9606 -8.11552e-08 1.38782e-06)
(11.7169 8.57325e-08 1.41906e-06)
(11.7169 6.02975e-08 1.41905e-06)
(11.4771 -9.20008e-08 1.44997e-06)
(11.4771 -1.02122e-07 1.45e-06)
(11.2413 1.07208e-07 1.48163e-06)
(11.2413 7.87227e-08 1.48162e-06)
(11.0095 -1.15265e-07 1.51269e-06)
(11.0095 -1.23564e-07 1.51272e-06)
(10.7819 1.32105e-07 1.54442e-06)
(10.7819 9.97966e-08 1.5444e-06)
(10.5584 -1.32973e-07 1.57586e-06)
(10.5584 -1.38698e-07 1.5759e-06)
(10.339 1.47046e-07 1.60763e-06)
(10.339 1.09913e-07 1.6076e-06)
(10.1237 -1.45986e-07 1.63904e-06)
(10.1237 -1.48134e-07 1.63909e-06)
(9.91258 1.61816e-07 1.67071e-06)
(9.91258 1.18554e-07 1.67067e-06)
(9.70548 -1.63555e-07 1.70164e-06)
(9.70548 -1.60787e-07 1.7017e-06)
(9.50241 1.91097e-07 1.73341e-06)
(9.50241 1.40001e-07 1.73335e-06)
(9.30334 -2.04006e-07 1.76345e-06)
(9.30334 -1.94538e-07 1.76354e-06)
(9.10822 2.45836e-07 1.7951e-06)
(9.10822 1.84675e-07 1.79502e-06)
(8.91701 -2.64993e-07 1.82435e-06)
(8.91701 -2.46464e-07 1.82446e-06)
(8.72965 3.09552e-07 1.85513e-06)
(8.72965 2.3542e-07 1.85501e-06)
(8.54609 -3.26192e-07 1.88342e-06)
(8.54609 -2.9548e-07 1.88357e-06)
(8.36629 3.80487e-07 1.91371e-06)
(8.36629 2.89578e-07 1.91355e-06)
(8.19018 -4.09255e-07 1.94032e-06)
(8.19018 -3.62216e-07 1.94051e-06)
(8.01772 4.7526e-07 1.96947e-06)
(8.01772 3.6257e-07 1.96925e-06)
(7.84887 -5.07327e-07 1.99438e-06)
(7.84887 -4.38466e-07 1.99464e-06)
(7.68356 5.8729e-07 2.0226e-06)
(7.68356 4.46239e-07 2.02231e-06)
(7.52174 -6.33263e-07 2.04514e-06)
(7.52174 -5.35292e-07 2.04549e-06)
(7.36337 7.3131e-07 2.07206e-06)
(7.36337 5.53225e-07 2.07166e-06)
(7.20839 -7.91759e-07 2.09175e-06)
(7.20839 -6.55007e-07 2.09222e-06)
(7.05675 9.11888e-07 2.11721e-06)
(7.05675 6.85322e-07 2.11667e-06)
(6.90841 -9.882e-07 2.13373e-06)
(6.90841 -7.99829e-07 2.13438e-06)
(6.76332 1.13516e-06 2.15787e-06)
(6.76332 8.44984e-07 2.15713e-06)
(6.62144 -1.23494e-06 2.17062e-06)
(6.62144 -9.77899e-07 2.17149e-06)
(6.48273 1.4135e-06 2.19327e-06)
(6.48273 1.03968e-06 2.19226e-06)
(6.34715 -1.54321e-06 2.2014e-06)
(6.34715 -1.19481e-06 2.20259e-06)
(6.21467 1.76763e-06 2.22305e-06)
(6.21467 1.28361e-06 2.22167e-06)
(6.08526 -1.93989e-06 2.22582e-06)
(6.08526 -1.46995e-06 2.22744e-06)
(5.95888 2.21796e-06 2.24651e-06)
(5.95888 1.58846e-06 2.24463e-06)
(5.83551 -2.43791e-06 2.24333e-06)
(5.83551 -1.80621e-06 2.24554e-06)
(5.71513 2.77848e-06 2.26342e-06)
(5.71513 1.95656e-06 2.26084e-06)
(5.5977 -3.06229e-06 2.25292e-06)
(5.5977 -2.21516e-06 2.25594e-06)
(5.4832 3.48358e-06 2.27292e-06)
(5.4832 2.4067e-06 2.26939e-06)
(5.37161 -3.84868e-06 2.25365e-06)
(5.37161 -2.71445e-06 2.25779e-06)
(5.26291 4.37244e-06 2.27449e-06)
(5.26291 2.95711e-06 2.26965e-06)
(5.15707 -4.84283e-06 2.24464e-06)
(5.15707 -3.32558e-06 2.25032e-06)
(5.05406 5.49523e-06 2.26745e-06)
(5.05406 3.62984e-06 2.2608e-06)
(4.95385 -6.0984e-06 2.22491e-06)
(4.95385 -4.06965e-06 2.23271e-06)
(4.85641 6.90901e-06 2.25102e-06)
(4.85641 4.44402e-06 2.24188e-06)
(4.76169 -7.67644e-06 2.19326e-06)
(4.76169 -4.96373e-06 2.204e-06)
(4.66964 8.6869e-06 2.22514e-06)
(4.66964 5.42162e-06 2.21255e-06)
(4.58019 -9.67213e-06 2.14809e-06)
(4.58019 -6.04361e-06 2.16288e-06)
(4.49326 1.09454e-05 2.18931e-06)
(4.49326 6.60994e-06 2.17193e-06)
(4.40875 -1.22135e-05 2.08832e-06)
(4.40875 -7.35689e-06 2.10876e-06)
(4.32656 1.38169e-05 2.14284e-06)
(4.32656 8.04765e-06 2.1188e-06)
(4.24659 -1.54413e-05 2.01219e-06)
(4.24659 -8.93508e-06 2.04047e-06)
(4.16871 1.74678e-05 2.08647e-06)
(4.16871 9.77386e-06 2.05317e-06)
(4.09281 -1.95658e-05 1.91706e-06)
(4.09281 -1.08402e-05 1.95628e-06)
(4.0188 2.21417e-05 2.0188e-06)
(4.0188 1.18586e-05 1.97259e-06)
(3.94657 -2.48309e-05 1.802e-06)
(3.94657 -1.31136e-05 1.85647e-06)
(3.87606 2.80947e-05 1.94202e-06)
(3.87606 1.43217e-05 1.87776e-06)
(3.80722 -3.15559e-05 1.66308e-06)
(3.80722 -1.57985e-05 1.73892e-06)
(3.74002 3.5716e-05 1.85619e-06)
(3.74002 1.72291e-05 1.76662e-06)
(3.67445 -4.01657e-05 1.49838e-06)
(3.67445 -1.89414e-05 1.60419e-06)
(3.61053 4.54658e-05 1.76379e-06)
(3.61053 2.05976e-05 1.6387e-06)
(3.54827 -5.11901e-05 1.30347e-06)
(3.54827 -2.25529e-05 1.45141e-06)
(3.48767 5.79761e-05 1.66968e-06)
(3.48767 2.44503e-05 1.49457e-06)
(3.42875 -6.53691e-05 1.07498e-06)
(3.42875 -2.66586e-05 1.2823e-06)
(3.37149 7.40815e-05 1.57857e-06)
(3.37149 2.8783e-05 1.33289e-06)
(3.31589 -8.3643e-05 8.07066e-07)
(3.31589 -3.12135e-05 1.0983e-06)
(3.26191 9.48636e-05 1.49861e-06)
(3.26191 3.35186e-05 1.15309e-06)
(3.2095 -0.000107276 5.10891e-07)
(3.2095 -3.6119e-05 9.00334e-07)
(3.15862 0.000121255 1.41744e-06)
(3.15862 3.85265e-05 9.52334e-07)
(3.10919 -0.000136839 4.02288e-07)
(3.10919 -4.11829e-05 6.9217e-07)
(3.06112 0.000148329 1.10636e-06)
(3.06112 4.35241e-05 7.26566e-07)
(3.01432 -0.000161572 2.84875e-07)
(3.01432 -4.60862e-05 4.73496e-07)
(2.96872 0.000170468 7.6576e-07)
(2.96872 4.81426e-05 4.74799e-07)
(2.92424 -0.000181137 1.57962e-07)
(2.92424 -5.04833e-05 5.55057e-07)
(2.88082 0.000187319 3.9127e-07)
(2.88082 5.20515e-05 4.85988e-07)
(2.83841 -0.000195136 2.06418e-08)
(2.83841 -5.40653e-05 7.03558e-07)
(2.79697 0.000198473 0)
(2.79697 5.49418e-05 7.52006e-07)
(2.75653 -0.000195603 3.5925e-07)
(2.75653 -5.65534e-05 5.34656e-07)
(2.71708 0.00019625 1.52282e-07)
(2.71708 5.66305e-05 6.7872e-07)
(2.67864 -0.000189912 8.33841e-07)
(2.67864 -5.77613e-05 4.6643e-07)
(2.64119 0.0001872 3.18066e-07)
(2.64119 5.70567e-05 6.0259e-07)
(2.60471 -0.000177383 1.33994e-06)
(2.60471 -5.76794e-05 8.40008e-07)
(2.56918 0.000171136 4.97158e-07)
(2.56918 5.62584e-05 9.01656e-07)
(2.53458 -0.000157865 1.87472e-06)
(2.53458 -5.63849e-05 1.23604e-06)
(2.50084 0.000147934 6.88647e-07)
(2.50084 5.43627e-05 1.2508e-06)
(2.46791 -0.000134733 2.26096e-06)
(2.46791 -5.40829e-05 1.64912e-06)
(2.43569 0.000124708 1.0797e-06)
(2.43569 5.16336e-05 1.63086e-06)
(2.40403 -0.000113479 2.57204e-06)
(2.40403 -5.11079e-05 2.0772e-06)
(2.37278 0.000105337 1.5978e-06)
(2.37278 4.83731e-05 2.04295e-06)
(2.34173 -9.57256e-05 2.92482e-06)
(2.34173 -4.77218e-05 2.52612e-06)
(2.31067 8.91513e-05 2.12933e-06)
(2.31067 4.47973e-05 2.48751e-06)
(2.2794 -8.08685e-05 3.31886e-06)
(2.2794 -4.4119e-05 2.99891e-06)
(2.24772 7.56265e-05 2.67975e-06)
(2.24772 4.10984e-05 2.96687e-06)
(2.21547 -6.84355e-05 3.75192e-06)
(2.21547 -4.04722e-05 3.49619e-06)
(2.18254 6.4312e-05 3.24705e-06)
(2.18254 3.74044e-05 3.47637e-06)
(2.14892 -5.80079e-05 4.22037e-06)
(2.14892 -3.68831e-05 4.01678e-06)
(2.11462 5.48202e-05 3.83059e-06)
(2.11462 3.37939e-05 4.01314e-06)
(2.07966 -4.92394e-05 4.72224e-06)
(2.07966 -3.34238e-05 4.56078e-06)
(2.04404 4.68626e-05 4.43468e-06)
(2.04404 3.03519e-05 4.57954e-06)
(2.00769 -4.18716e-05 5.25679e-06)
(2.00769 -3.0171e-05 5.12922e-06)
(1.97054 4.01995e-05 5.05872e-06)
(1.97054 2.71364e-05 5.17338e-06)
(1.9325 -3.56801e-05 5.82087e-06)
(1.9325 -2.71661e-05 5.72043e-06)
(1.89346 3.46016e-05 5.69917e-06)
(1.89346 2.41539e-05 5.78974e-06)
(1.85331 -3.0473e-05 6.41354e-06)
(1.85331 -2.4428e-05 6.33475e-06)
(1.81199 2.99169e-05 6.36657e-06)
(1.81199 2.14384e-05 6.43801e-06)
(1.7694 -2.60906e-05 7.0489e-06)
(1.7694 -2.19631e-05 6.98729e-06)
(1.7255 2.60055e-05 7.07582e-06)
(1.7255 1.89959e-05 7.13214e-06)
(1.6803 -2.23984e-05 7.7385e-06)
(1.6803 -1.97672e-05 7.69047e-06)
(1.63392 2.27174e-05 7.8353e-06)
(1.63392 1.67904e-05 7.87973e-06)
(1.58656 -1.92625e-05 8.49283e-06)
(1.58656 -1.78082e-05 8.4555e-06)
(1.53848 1.99631e-05 8.66139e-06)
(1.53848 1.48206e-05 8.69652e-06)
(1.48995 -1.65738e-05 9.32272e-06)
(1.48995 -1.60562e-05 9.29379e-06)
(1.44114 1.7657e-05 9.55219e-06)
(1.44114 1.30688e-05 9.58006e-06)
(1.39215 -1.42968e-05 1.0206e-05)
(1.39215 -1.45362e-05 1.01837e-05)
(1.34293 1.57406e-05 1.04783e-05)
(1.34293 1.15275e-05 1.05005e-05)
(1.29331 -1.24377e-05 1.11133e-05)
(1.29331 -1.33012e-05 1.10962e-05)
(1.24312 1.41995e-05 1.14312e-05)
(1.24312 1.02218e-05 1.1449e-05)
(1.19226 -1.0914e-05 1.20666e-05)
(1.19226 -1.23051e-05 1.20535e-05)
(1.14077 1.2978e-05 1.24443e-05)
(1.14077 9.12573e-06 1.24587e-05)
(1.08882 -9.62585e-06 1.3104e-05)
(1.08882 -1.14759e-05 1.3094e-05)
(1.03659 1.19963e-05 1.35457e-05)
(1.03659 8.18153e-06 1.35575e-05)
(0.984256 -8.5358e-06 1.42365e-05)
(0.984255 -1.07977e-05 1.4229e-05)
(0.931956 1.1238e-05 1.47416e-05)
(0.931955 7.38923e-06 1.47513e-05)
(0.879881 -7.67249e-06 1.54578e-05)
(0.87988 -1.03158e-05 1.54523e-05)
(0.828259 1.06872e-05 1.60282e-05)
(0.828258 6.74451e-06 1.60363e-05)
(0.777353 -6.98492e-06 1.67838e-05)
(0.777352 -9.99221e-06 1.67798e-05)
(0.727382 1.03971e-05 1.74305e-05)
(0.72738 6.30935e-06 1.74373e-05)
(0.6784 -6.52143e-06 1.82109e-05)
(0.678399 -9.88574e-06 1.82081e-05)
(0.630277 1.0337e-05 1.89124e-05)
(0.630276 6.05869e-06 1.89183e-05)
(0.582709 -6.29788e-06 1.96987e-05)
(0.582708 -1.00205e-05 1.96967e-05)
(0.535273 1.04723e-05 2.04482e-05)
(0.535271 5.96206e-06 2.04533e-05)
(0.487541 -6.2632e-06 2.12589e-05)
(0.487538 -1.03523e-05 2.12576e-05)
(0.439167 1.08812e-05 2.20857e-05)
(0.439165 6.09998e-06 2.20901e-05)
(0.389842 -6.47341e-06 2.29282e-05)
(0.389839 -1.09428e-05 2.29273e-05)
(0.339339 1.15327e-05 2.38418e-05)
(0.339336 6.44294e-06 2.38455e-05)
(0.287739 -6.91602e-06 2.47381e-05)
(0.287735 -1.1785e-05 2.47374e-05)
(0.235546 1.24746e-05 2.57718e-05)
(0.235541 7.03903e-06 2.57749e-05)
(0.183616 -7.58627e-06 2.67437e-05)
(0.183609 -1.2879e-05 2.67431e-05)
(0.132899 1.37593e-05 2.79066e-05)
(0.132889 7.94069e-06 2.79092e-05)
(0.0842176 -8.63418e-06 2.89218e-05)
(0.084202 -1.43796e-05 2.89209e-05)
(0.0382708 1.5439e-05 3.02065e-05)
(0.038248 9.19908e-06 3.02084e-05)
(-0.00447577 -1.0024e-05 3.12566e-05)
(-0.00450436 -1.62556e-05 3.12553e-05)
(-0.0441364 1.75756e-05 3.26363e-05)
(-0.0441593 1.08734e-05 3.26377e-05)
(-0.0815329 -1.1898e-05 3.36547e-05)
(-0.0815484 -1.86484e-05 3.36542e-05)
(-0.117818 2.02087e-05 3.51095e-05)
(-0.117828 1.29995e-05 3.51115e-05)
(-0.15383 -1.43876e-05 3.60864e-05)
(-0.153837 -2.16972e-05 3.60868e-05)
(-0.189534 2.34876e-05 3.76817e-05)
(-0.18954 1.57243e-05 3.76845e-05)
(-0.224143 -1.75559e-05 3.86927e-05)
(-0.224148 -2.54701e-05 3.86942e-05)
(-0.256625 2.76302e-05 4.05544e-05)
(-0.256629 1.92603e-05 4.05581e-05)
(-0.286204 -2.14488e-05 4.1659e-05)
(-0.286207 -3.00182e-05 4.16619e-05)
(-0.312484 3.26195e-05 4.38066e-05)
(-0.312486 2.35843e-05 4.38115e-05)
(-0.335311 -2.6108e-05 4.49812e-05)
(-0.335313 -3.53894e-05 4.49857e-05)
(-0.355001 3.87175e-05 4.73782e-05)
(-0.355003 2.89517e-05 4.73845e-05)
(-0.372319 -3.19656e-05 4.84225e-05)
(-0.372321 -4.20221e-05 4.84287e-05)
(-0.388103 4.60722e-05 5.0942e-05)
(-0.388105 3.55034e-05 5.09497e-05)
(-0.403061 -3.92449e-05 5.17166e-05)
(-0.403063 -5.01463e-05 5.17248e-05)
(-0.417832 5.48351e-05 5.4352e-05)
(-0.417833 4.33835e-05 5.43614e-05)
(-0.433136 -4.81381e-05 5.48952e-05)
(-0.433138 -5.9961e-05 5.49058e-05)
(-0.449814 6.55387e-05 5.78684e-05)
(-0.449816 5.31164e-05 5.78799e-05)
(-0.468642 -5.87797e-05 5.82708e-05)
(-0.468644 -7.16086e-05 5.82844e-05)
(-0.490215 7.84489e-05 6.16348e-05)
(-0.490217 6.49577e-05 6.16491e-05)
(-0.514892 -7.1775e-05 6.17231e-05)
(-0.514894 -8.57033e-05 6.17407e-05)
(-0.542699 9.38337e-05 6.54614e-05)
(-0.542701 7.91624e-05 6.54793e-05)
(-0.57359 -8.74185e-05 6.5194e-05)
(-0.573593 -0.000102551 6.52171e-05)
(-0.607635 0.000112245 6.94656e-05)
(-0.607638 9.62645e-05 6.94885e-05)
(-0.644565 -0.000106204 6.88304e-05)
(-0.644568 -0.000122659 6.88609e-05)
(-0.683654 0.000134245 7.38065e-05)
(-0.683657 0.0001168 7.3836e-05)
(-0.724227 -0.00012867 7.27558e-05)
(-0.72423 -0.000146588 7.27966e-05)
(-0.766085 0.000160622 7.85739e-05)
(-0.766088 0.000141522 7.86118e-05)
(-0.809487 -0.000155736 7.6857e-05)
(-0.80949 -0.00017528 7.69117e-05)
(-0.854472 0.000192053 8.35617e-05)
(-0.854475 0.000171054 8.36099e-05)
(-0.900293 -0.000188121 8.10061e-05)
(-0.900296 -0.000209483 8.108e-05)
(-0.945561 0.000229661 8.87999e-05)
(-0.945564 0.000206444 8.88605e-05)
(-0.988762 -0.000227024 8.51189e-05)
(-0.988765 -0.000250431 8.52195e-05)
(-1.02883 0.00027471 9.418e-05)
(-1.02883 0.000248842 9.42538e-05)
(-1.06474 -0.000273801 8.90262e-05)
(-1.06475 -0.000299506 8.91642e-05)
(-1.09475 0.000328858 9.9615e-05)
(-1.09475 0.000299741 9.96999e-05)
(-1.1168 -0.000330187 9.25462e-05)
(-1.11681 -0.000358449 9.27369e-05)
(-1.12999 0.000394082 0.000104998)
(-1.12999 0.000360874 0.000105084)
(-1.13534 -0.000397975 9.55411e-05)
(-1.13534 -0.000429003 9.58071e-05)
(-1.13558 0.000472439 0.000110175)
(-1.13558 0.00043393 0.000110242)
(-1.13386 -0.000479748 9.772e-05)
(-1.13386 -0.000513577 9.81e-05)
(-1.13247 0.000566792 0.000115302)
(-1.13247 0.000521204 0.00011531)
(-1.13175 -0.00057757 9.95474e-05)
(-1.13175 -0.00061384 0.000100113)
(-1.13041 0.000680274 0.000120683)
(-1.13041 0.000624887 0.000120559)
(-1.12674 -0.000695293 0.00010032)
(-1.12674 -0.000732823 0.000101202)
(-1.11923 0.000816713 0.000125367)
(-1.11923 0.000747186 0.000124961)
(-1.10695 -0.000836739 9.89527e-05)
(-1.10695 -0.000872729 0.000100383)
(-1.08976 0.000980722 0.000128425)
(-1.08976 0.000889895 0.000127446)
(-1.06839 -0.0010078 9.41405e-05)
(-1.06839 -0.00103636 9.65399e-05)
(-1.04355 0.00117903 0.000129698)
(-1.04355 0.00105483 0.000127605)
(-1.01473 -0.00121541 8.63875e-05)
(-1.01472 -0.00122498 9.05174e-05)
(-0.980946 0.00142144 0.000131118)
(-0.980939 0.00124329 0.000126913)
(-0.942797 -0.00147004 7.66903e-05)
(-0.942789 -0.00143877 8.39135e-05)
(-0.902158 0.00172155 0.000133876)
(-0.902149 0.00145417 0.000125748)
(-0.86157 -0.00178839 6.35502e-05)
(-0.86156 -0.00167647 7.62993e-05)
(-0.823633 0.00209963 0.000137384)
(-0.823623 0.00168251 0.000122186)
(-0.789643 -0.00218678 4.65065e-05)
(-0.789632 -0.00193142 6.69784e-05)
(-0.759244 0.00256811 0.000140328)
(-0.759234 0.00191898 0.00011464)
(-0.731611 -0.00261779 4.1302e-05)
(-0.731602 -0.00218893 5.67622e-05)
(-0.707504 0.00300094 0.000125353)
(-0.707495 0.00215986 0.00010174)
(-0.688219 -0.00302001 3.42711e-05)
(-0.688212 -0.00242962 4.52468e-05)
(-0.673397 0.00338362 0.000103996)
(-0.673391 0.00239081 8.23601e-05)
(-0.660614 -0.00338271 2.44211e-05)
(-0.660609 -0.00263388 3.18612e-05)
(-0.648092 0.00374561 9.07423e-05)
(-0.648088 0.0025988 5.68884e-05)
(-0.637324 -0.00375869 4.274e-05)
(-0.637322 -0.00276762 1.76115e-05)
(-0.631183 0.0039692 6.59198e-05)
(-0.631182 0.00277484 2.17159e-05)
(0.11268 -2.59638e-09 -1.80518e-21)
(0.11268 9.46561e-09 3.67007e-08)
(0.339475 9.12719e-09 1.58644e-10)
(0.339475 2.04449e-08 6.22819e-08)
(0.569354 7.88846e-09 4.23468e-10)
(0.569354 1.14179e-08 4.52837e-08)
(0.802349 -6.33513e-09 6.4848e-10)
(0.802349 -2.10215e-09 2.4e-08)
(1.03849 -8.07379e-09 8.19983e-10)
(1.03849 -2.68899e-09 1.24402e-08)
(1.2778 -5.01647e-09 9.89771e-10)
(1.2778 4.65827e-10 7.13256e-09)
(1.52034 -4.0242e-09 1.18744e-09)
(1.52034 1.72464e-09 4.35297e-09)
(1.76613 -2.97717e-09 1.42869e-09)
(1.76613 2.88602e-09 2.57641e-09)
(2.01524 -3.00474e-09 7.70583e-10)
(2.01524 2.98999e-09 1.2083e-09)
(2.26773 -2.37921e-09 -3.7926e-10)
(2.26773 3.69735e-09 -1.38108e-11)
(2.52366 -2.48446e-09 -1.54051e-09)
(2.52366 3.68806e-09 -1.22586e-09)
(2.78309 -2.31664e-09 -2.78849e-09)
(2.78309 3.91845e-09 -2.51137e-09)
(3.04611 -2.22568e-09 -4.17715e-09)
(3.04611 4.08376e-09 -4.26163e-09)
(3.31278 -2.23671e-09 -5.81296e-09)
(3.31278 4.12817e-09 -4.86339e-09)
(3.58319 -2.1612e-09 -5.53044e-09)
(3.58319 4.26418e-09 -5.53032e-09)
(3.85742 -2.25216e-09 -6.26557e-09)
(3.85742 4.22387e-09 -6.26549e-09)
(4.13553 -2.14649e-09 -7.07292e-09)
(4.13553 4.38205e-09 -7.0728e-09)
(4.41761 -2.13221e-09 -7.95857e-09)
(4.41761 4.44316e-09 -7.95848e-09)
(4.70373 -2.29397e-09 -8.92513e-09)
(4.70373 4.32909e-09 -8.92502e-09)
(4.99394 -2.20817e-09 -9.97658e-09)
(4.99394 4.45897e-09 -9.9765e-09)
(5.28832 -2.15811e-09 -1.11207e-08)
(5.28832 4.55345e-09 -1.11206e-08)
(5.5869 -2.19799e-09 -1.23636e-08)
(5.5869 4.55614e-09 -1.23636e-08)
(5.88973 -2.53429e-09 -1.37059e-08)
(5.88973 4.26172e-09 -1.37058e-08)
(6.19682 -2.07235e-09 -1.51562e-08)
(6.19682 4.76492e-09 -1.51561e-08)
(6.50819 -2.35845e-09 -1.67247e-08)
(6.50819 4.51994e-09 -1.67246e-08)
(6.82384 -2.31006e-09 -1.84152e-08)
(6.82384 4.60866e-09 -1.84151e-08)
(7.14374 -2.73842e-09 -2.02293e-08)
(7.14374 4.22041e-09 -2.02292e-08)
(7.46784 -2.03702e-09 -2.21801e-08)
(7.46784 4.96172e-09 -2.218e-08)
(7.79607 -2.64522e-09 -2.42783e-08)
(7.79607 4.39382e-09 -2.42782e-08)
(8.12836 -2.35145e-09 -2.65279e-08)
(8.12836 4.7275e-09 -2.65278e-08)
(8.46457 -2.9752e-09 -2.89332e-08)
(8.46457 4.1438e-09 -2.8933e-08)
(8.80457 -2.11778e-09 -3.15084e-08)
(8.80457 5.04145e-09 -3.15083e-08)
(9.14818 -2.85383e-09 -3.42673e-08)
(9.14818 4.34617e-09 -3.42672e-08)
(9.49521 -2.6107e-09 -3.72124e-08)
(9.49521 4.63026e-09 -3.72123e-08)
(9.84542 -3.03063e-09 -4.03526e-08)
(9.84542 4.25152e-09 -4.03525e-08)
(10.1986 -2.33844e-09 -4.37057e-08)
(10.1986 4.9855e-09 -4.37056e-08)
(10.5543 -3.04287e-09 -4.72854e-08)
(10.5543 4.32346e-09 -4.72853e-08)
(10.9123 -2.84319e-09 -5.10962e-08)
(10.9123 4.56635e-09 -5.10961e-08)
(11.2723 -3.23299e-09 -5.5149e-08)
(11.2723 4.21983e-09 -5.51489e-08)
(11.6338 -2.58279e-09 -5.94645e-08)
(11.6338 4.91463e-09 -5.94645e-08)
(11.9963 -3.16719e-09 -6.4061e-08)
(11.9963 4.37528e-09 -6.40609e-08)
(12.3595 -3.05043e-09 -6.89461e-08)
(12.3595 4.53862e-09 -6.8946e-08)
(12.7228 -3.64825e-09 -7.41274e-08)
(12.7228 3.98714e-09 -7.41273e-08)
(13.0857 -2.42006e-09 -7.96367e-08)
(13.0857 5.2641e-09 -7.96366e-08)
(13.4476 -4.16644e-09 -8.5483e-08)
(13.4476 3.56611e-09 -8.54829e-08)
(13.8079 -2.3706e-09 -9.16871e-08)
(13.8079 5.41339e-09 -9.1687e-08)
(14.166 -4.85646e-09 -9.8255e-08)
(14.166 2.97782e-09 -9.82549e-08)
(14.5212 -1.87015e-09 -1.05218e-07)
(14.5212 6.01817e-09 -1.05218e-07)
(14.8729 -4.18852e-09 -1.12616e-07)
(14.8729 3.75298e-09 -1.12616e-07)
(15.2203 -4.51747e-09 -1.2041e-07)
(15.2203 3.48086e-09 -1.2041e-07)
(15.5627 -4.6131e-09 -1.28609e-07)
(15.5627 3.4428e-09 -1.28609e-07)
(15.8993 1.75615e-09 -1.37386e-07)
(15.8993 9.87026e-09 -1.37386e-07)
(16.2294 -1.29968e-08 -1.46568e-07)
(16.2294 -4.82239e-09 -1.46568e-07)
(16.5522 4.34412e-09 -1.5623e-07)
(16.5522 1.25821e-08 -1.5623e-07)
(16.8669 -8.96158e-09 -1.66503e-07)
(16.8669 -6.61071e-10 -1.66502e-07)
(17.1728 -4.096e-09 -1.77189e-07)
(17.1728 4.27582e-09 -1.77189e-07)
(17.4689 -5.40081e-10 -1.88524e-07)
(17.4689 7.89449e-09 -1.88524e-07)
(17.7546 -1.148e-08 -2.00336e-07)
(17.7546 -2.9709e-09 -2.00336e-07)
(18.029 1.84114e-09 -2.12694e-07)
(18.029 1.04199e-08 -2.12694e-07)
(18.2913 -1.03284e-08 -2.25647e-07)
(18.2913 -1.66967e-09 -2.25647e-07)
(18.5408 4.27085e-10 -2.39161e-07)
(18.5408 9.15845e-09 -2.39161e-07)
(18.7768 -9.85757e-09 -2.53257e-07)
(18.7768 -1.04262e-09 -2.53257e-07)
(18.9985 -6.23704e-09 -2.67744e-07)
(18.9985 2.66002e-09 -2.67744e-07)
(19.2053 -1.52872e-09 -2.82849e-07)
(19.2053 7.45339e-09 -2.82849e-07)
(19.3964 -7.56651e-09 -2.98531e-07)
(19.3964 1.5019e-09 -2.98531e-07)
(19.5714 -1.22833e-08 -3.14459e-07)
(19.5714 -3.11685e-09 -3.1446e-07)
(19.7296 5.04673e-09 -3.30978e-07)
(19.7296 1.42942e-08 -3.30978e-07)
(19.8706 -2.40533e-08 -3.47721e-07)
(19.8706 -1.46933e-08 -3.47722e-07)
(19.9939 1.65551e-08 -3.64998e-07)
(19.9939 2.59972e-08 -3.64998e-07)
(20.0991 -3.79719e-08 -3.82371e-07)
(20.0991 -2.84093e-08 -3.82371e-07)
(20.186 2.4141e-08 -4.00017e-07)
(20.186 3.37879e-08 -4.00017e-07)
(20.2542 -3.88665e-08 -4.17909e-07)
(20.2542 -2.90869e-08 -4.1791e-07)
(20.3038 1.82721e-08 -4.35805e-07)
(20.3038 2.81345e-08 -4.35805e-07)
(20.3345 -3.19067e-08 -4.53933e-07)
(20.3345 -2.18977e-08 -4.53934e-07)
(20.3464 1.05898e-08 -4.72004e-07)
(20.3464 2.06776e-08 -4.72004e-07)
(20.3396 -2.61667e-08 -4.90221e-07)
(20.3396 -1.59155e-08 -4.90221e-07)
(20.3142 4.68067e-10 -5.0822e-07)
(20.3142 1.07906e-08 -5.0822e-07)
(20.2706 -1.39997e-08 -5.2644e-07)
(20.2706 -3.49299e-09 -5.2644e-07)
(20.209 -1.28395e-08 -5.44428e-07)
(20.209 -2.26994e-09 -5.44428e-07)
(20.1299 -1.86534e-09 -5.62639e-07)
(20.1299 8.90979e-09 -5.62639e-07)
(20.0337 -2.65584e-08 -5.80619e-07)
(20.0337 -1.57379e-08 -5.80619e-07)
(19.9211 8.24668e-09 -5.98758e-07)
(19.9211 1.93092e-08 -5.98759e-07)
(19.7926 -3.1277e-08 -6.1695e-07)
(19.7926 -2.01989e-08 -6.16951e-07)
(19.649 5.29648e-09 -6.35107e-07)
(19.649 1.66636e-08 -6.35108e-07)
(19.4909 -2.61213e-08 -6.53495e-07)
(19.4909 -1.47786e-08 -6.53495e-07)
(19.3192 3.51137e-09 -6.72085e-07)
(19.3192 1.52017e-08 -6.72085e-07)
(19.1346 -2.89914e-08 -6.90833e-07)
(19.1346 -1.7381e-08 -6.90833e-07)
(18.938 5.4704e-09 -7.09851e-07)
(18.938 1.75073e-08 -7.09852e-07)
(18.7303 -3.17653e-08 -7.29097e-07)
(18.7303 -1.98836e-08 -7.29097e-07)
(18.5123 5.10992e-09 -7.48579e-07)
(18.5123 1.75185e-08 -7.4858e-07)
(18.285 -2.60818e-08 -7.68604e-07)
(18.285 -1.39275e-08 -7.68605e-07)
(18.0491 -1.51264e-09 -7.88923e-07)
(18.0491 1.13002e-08 -7.88925e-07)
(17.8057 -2.30569e-08 -8.09719e-07)
(17.8057 -1.06338e-08 -8.0972e-07)
(17.5555 -8.1108e-09 -8.30727e-07)
(17.5555 5.1428e-09 -8.30728e-07)
(17.2994 -1.12358e-08 -8.52509e-07)
(17.2994 1.45318e-09 -8.5251e-07)
(17.0383 -1.73815e-08 -8.74694e-07)
(17.0383 -3.64306e-09 -8.74696e-07)
(16.7729 -1.50693e-08 -8.97119e-07)
(16.7729 -2.12736e-09 -8.9712e-07)
(16.5041 -4.49101e-09 -9.20406e-07)
(16.5041 9.79222e-09 -9.20409e-07)
(16.2324 -2.96734e-08 -9.43907e-07)
(16.2324 -1.65016e-08 -9.43908e-07)
(15.9588 7.21379e-09 -9.68174e-07)