/*--------------------------------*- C++ -*----------------------------------*\
| =========                 |                                                 |
| \\      /  F ield         | OpenFOAM: The Open Source CFD Toolbox           |
|  \\    /   O peration     | Version:  2012                                  |
|   \\  /    A nd           | Website:  www.openfoam.com                      |
|    \\/     M anipulation  |                                                 |
\*---------------------------------------------------------------------------*/
FoamFile
{
    version     2.0;
    format      ascii;
    class       volTensorField;
    location    "6000";
    object      grad(U);
}
// * * * * * * * * * * * * * * * * * * * * * * * * * * * * * * * * * * * * * //

dimensions      [0 0 -1 0 0 0 0];


internalField   nonuniform List<tensor> 
2560
(
(-9.14312e-18 -5.09429e-25 0 30.0231 0 2.6839e-13 0.0434612 -3.15544e-30 1.12738e-16)
(0 -4.15781e-30 1.81013e-26 30.0231 2.52992e-15 2.10204e-13 0.0434612 1.07975e-18 1.52132e-16)
(0 1.53683e-30 2.89341e-26 30.0203 -2.24037e-12 7.09004e-14 0.131007 -3.51789e-15 2.08245e-16)
(-1.80242e-17 -5.12277e-31 0 30.0203 5.21322e-15 2.068e-13 0.131007 8.31215e-18 7.33883e-16)
(-5.49984e-18 -1.89152e-25 -1.00348e-31 30.0175 8.07834e-28 3.76591e-14 0.180188 0 2.40866e-16)
(0 8.07896e-30 -2.52467e-31 30.0175 6.65125e-15 1.47063e-14 0.180188 2.01494e-17 7.55443e-16)
(1.76416e-17 -1.04062e-29 1.06191e-31 30.0147 1.09373e-12 4.06325e-14 0.182791 -1.22199e-14 2.50562e-16)
(0 9.95396e-30 0 30.0147 6.86421e-15 1.49493e-14 0.182791 3.30092e-17 7.77668e-16)
(0 -1.56981e-29 4.90565e-31 30.0119 5.62194e-14 4.1498e-14 0.185432 -9.2482e-16 2.58618e-16)
(0 1.17736e-29 -2.45282e-31 30.0119 6.87548e-15 1.51998e-14 0.185432 4.28009e-17 8.0059e-16)
(1.10505e-16 -5.9712e-30 6.02606e-31 30.0091 -3.10438e-14 4.22688e-14 0.18811 -1.42149e-16 2.67566e-16)
(3.39632e-16 5.81986e-30 -4.83534e-31 30.0091 6.95112e-15 1.54559e-14 0.18811 4.37262e-17 8.24237e-16)
(-5.51297e-17 -1.69409e-30 -1.25825e-31 30.0063 -1.58211e-14 4.30987e-14 0.190828 -5.70257e-17 2.76749e-16)
(2.20519e-16 7.64173e-30 0 30.0063 6.96528e-15 1.57174e-14 0.190828 4.42348e-17 8.48634e-16)
(-6.79885e-17 7.75505e-30 -1.32847e-31 30.0035 -1.00141e-14 4.39243e-14 0.193584 -7.13739e-17 2.86057e-16)
(1.39725e-16 -1.85506e-30 0 30.0035 6.91081e-15 1.59835e-14 0.193584 4.43042e-17 8.73798e-16)
(8.10331e-17 -9.52603e-30 6.03165e-31 30.0006 -1.20277e-14 4.4746e-14 0.19638 -8.50602e-17 2.95615e-16)
(0 9.26079e-30 0 30.0006 6.88933e-15 1.6254e-14 0.19638 4.52494e-17 8.99756e-16)
(0 7.30244e-30 0 29.9976 -1.32258e-14 4.55776e-14 0.199216 -8.93784e-17 3.05482e-16)
(-1.28466e-16 -1.82561e-30 0 29.9976 6.94963e-15 1.65303e-14 0.199216 4.64028e-17 9.26541e-16)
(-1.0769e-16 -6.87666e-30 2.94398e-31 29.9946 -1.35251e-14 4.64229e-14 0.202092 -9.1585e-17 3.15666e-16)
(0 8.99723e-30 -4.49861e-31 29.9946 6.97857e-15 1.681e-14 0.202092 4.6965e-17 9.54175e-16)
(2.46118e-16 -1.80853e-29 1.49378e-30 29.9914 -1.36562e-14 4.72813e-14 0.205008 -9.37892e-17 3.26167e-16)
(0 1.41892e-29 -1.33024e-30 29.9914 6.98085e-15 1.70928e-14 0.205008 4.77933e-17 9.82681e-16)
(0 -6.99293e-30 8.74117e-31 29.9881 -1.37587e-14 4.81517e-14 0.207965 -9.56898e-17 3.36986e-16)
(0 1.04894e-29 -8.74117e-31 29.9881 7.08671e-15 1.73815e-14 0.207965 4.9809e-17 1.01209e-15)
(-1.49138e-16 7.29618e-30 -6.11364e-31 29.9845 -1.36793e-14 4.9033e-14 0.210963 -9.54183e-17 3.48124e-16)
(5.96552e-16 -1.65023e-30 0 29.9845 6.98906e-15 1.76748e-14 0.210963 4.78193e-17 1.04243e-15)
(-2.3904e-16 1.35878e-29 -8.4924e-31 29.9805 -1.36054e-14 4.99233e-14 0.214001 -9.74384e-17 3.59568e-16)
(2.3904e-16 -1.35878e-29 8.4924e-31 29.9805 6.80744e-15 1.79693e-14 0.214001 4.8675e-17 1.07374e-15)
(-1.77777e-16 2.13047e-30 -1.98839e-31 29.9762 -1.37545e-14 5.082e-14 0.217079 -1.00373e-16 3.71311e-16)
(7.11107e-16 8.94379e-32 0 29.9762 6.92202e-15 1.82628e-14 0.217079 5.08797e-17 1.10601e-15)
(-2.32237e-16 1.65014e-29 -1.23761e-30 29.9712 -1.37427e-14 5.17216e-14 0.220197 -1.00119e-16 3.83349e-16)
(-5.37392e-16 -1.66024e-29 1.23761e-30 29.9712 6.76417e-15 1.85566e-14 0.220197 4.77813e-17 1.13927e-15)
(-2.28908e-16 1.62649e-29 -8.13245e-31 29.9656 -1.37731e-14 5.26262e-14 0.223354 -1.03766e-16 3.95676e-16)
(-6.00085e-16 -1.63736e-29 8.13245e-31 29.9656 6.64486e-15 1.8854e-14 0.223354 5.05913e-17 1.17356e-15)
(2.25627e-16 -3.20636e-30 8.01589e-31 29.9591 -1.40436e-14 5.35309e-14 0.226549 -1.07143e-16 4.08262e-16)
(0 6.41271e-30 0 29.9591 6.75701e-15 1.91515e-14 0.226549 5.08773e-17 1.20891e-15)
(2.37575e-16 1.05032e-29 -5.50625e-31 29.9514 -1.42364e-14 5.44322e-14 0.229779 -1.09764e-16 4.21096e-16)
(-9.503e-16 -1.59295e-29 7.90101e-31 29.9514 6.68604e-15 1.94484e-14 0.229779 5.09842e-17 1.24533e-15)
(0 1.55755e-29 -1.55755e-30 29.9423 -1.442e-14 5.53268e-14 0.233043 -1.13142e-16 4.3415e-16)
(0 -1.55755e-29 1.55755e-30 29.9423 6.76806e-15 1.97431e-14 0.233043 5.36447e-17 1.28286e-15)
(1.63349e-16 -3.99845e-30 -2.62043e-31 29.9314 -1.47346e-14 5.62105e-14 0.236339 -1.17948e-16 4.4739e-16)
(-4.32129e-16 9.21137e-30 -7.67614e-31 29.9314 7.01896e-15 2.00319e-14 0.236339 5.64407e-17 1.3215e-15)
(5.67153e-16 -1.904e-29 2.75251e-30 29.9184 -1.48833e-14 5.70773e-14 0.239662 -1.1884e-16 4.60759e-16)
(0 2.11852e-29 -2.26984e-30 29.9184 6.87412e-15 2.03128e-14 0.239662 5.2895e-17 1.36124e-15)
(-4.1983e-16 1.19323e-29 -1.49154e-30 29.9028 -1.44258e-14 5.48592e-14 0.243008 -1.13965e-16 4.24433e-16)
(-7.83701e-16 -1.80688e-29 1.49154e-30 29.9028 6.44136e-15 2.05842e-14 0.243008 5.10585e-17 1.40209e-15)
(-9.6535e-17 1.54915e-29 6.2805e-28 29.884 -1.42929e-14 2.23815e-14 0.246373 -1.20128e-16 9.16253e-17)
(4.13813e-16 -1.76419e-29 1.47016e-30 29.884 6.47119e-15 2.08452e-14 0.246373 5.49364e-17 1.44406e-15)
(-6.6781e-16 1.87971e-29 -2.15634e-30 29.8616 -1.45526e-14 1.10047e-14 0.24975 -1.2165e-16 9.11963e-17)
(0 -1.44909e-29 1.44909e-30 29.8616 6.64085e-15 2.10924e-14 0.24975 5.53933e-17 1.4872e-15)
(1.85637e-15 -2.36069e-29 2.49333e-30 29.8347 -1.45785e-14 1.07827e-14 0.253133 -1.24087e-16 9.05397e-17)
(2.80612e-15 2.03973e-29 -1.42832e-30 29.8347 6.78756e-15 2.13164e-14 0.253133 5.90364e-17 1.53149e-15)
(3.96274e-16 -1.68942e-29 1.40785e-30 29.8025 -1.47253e-14 1.0532e-14 0.256513 -1.27742e-16 8.95504e-17)
(1.07517e-15 1.71058e-29 -2.11177e-30 29.8025 6.9981e-15 2.15142e-14 0.256513 6.06423e-17 1.57685e-15)
(3.85193e-16 6.16447e-30 -1.02987e-30 29.7642 -1.46104e-14 1.02313e-14 0.259879 -1.25713e-16 8.79358e-17)
(-3.90594e-16 -5.55068e-30 0 29.7642 6.76176e-15 2.16906e-14 0.259879 5.66358e-17 1.62322e-15)
(-8.05523e-16 1.59287e-30 -7.18374e-31 29.7189 -1.44297e-14 9.88462e-15 0.263222 -1.2828e-16 8.60283e-17)
(-3.22209e-15 2.25599e-30 0 29.7189 6.37969e-15 2.18405e-14 0.263222 5.56451e-17 1.6706e-15)
(-8.00046e-16 1.29527e-29 -3.60576e-31 29.6653 -1.43359e-14 9.49609e-15 0.266529 -1.27709e-16 8.35234e-17)
(-1.68227e-15 -8.34181e-30 0 29.6653 6.09927e-15 2.1965e-14 0.266529 5.3251e-17 1.71899e-15)
(0 1.59462e-29 -1.99328e-30 29.6024 -1.42439e-14 9.03956e-15 0.269785 -1.3036e-16 8.02176e-17)
(-1.75444e-15 -1.62104e-29 1.99328e-30 29.6024 5.95524e-15 2.20444e-14 0.269785 5.4647e-17 1.7684e-15)
(0 -1.57177e-29 6.54904e-31 29.5288 -1.47997e-14 8.51962e-15 0.272974 -1.4174e-16 7.63442e-17)
(1.82755e-15 1.5991e-29 -6.54904e-31 29.5288 6.29499e-15 2.20701e-14 0.272974 6.11008e-17 1.81861e-15)
(-4.75398e-16 2.17464e-30 -3.64633e-31 29.4432 -1.53326e-14 7.95496e-15 0.276081 -1.44186e-16 7.19614e-17)
(0 2.58207e-30 0 29.4432 6.4479e-15 2.20458e-14 0.276081 5.91198e-17 1.86949e-15)
(-4.94138e-16 1.74492e-29 -2.2747e-30 29.3443 -1.49882e-14 7.32763e-15 0.279085 -1.39329e-16 6.66264e-17)
(0 -1.52704e-29 1.9088e-30 29.3443 5.99903e-15 2.19661e-14 0.279085 5.4337e-17 1.92098e-15)
(-5.13103e-16 1.22163e-29 -1.62145e-30 29.2305 -1.45394e-14 6.61129e-15 0.281968 -1.39734e-16 6.02204e-17)
(-2.05241e-15 -7.84414e-30 0 29.2305 5.73967e-15 2.18332e-14 0.281968 5.58376e-17 1.97302e-15)
(5.32288e-16 -1.20743e-29 3.68247e-31 29.1004 -1.49076e-14 5.84161e-15 0.284708 -1.50634e-16 5.34817e-17)
(0 9.89052e-30 0 29.1004 6.26354e-15 2.16321e-14 0.284708 6.62039e-17 2.02543e-15)
(5.51686e-16 -1.43725e-29 1.58786e-30 28.9525 -1.55769e-14 5.03216e-15 0.287285 -1.57145e-16 4.5877e-17)
(0 1.2186e-29 -1.2186e-30 28.9525 6.70667e-15 2.13429e-14 0.287285 6.62913e-17 2.0779e-15)
(-5.71289e-16 9.39866e-30 -1.57135e-30 28.7854 -1.5185e-14 4.14611e-15 0.289676 -1.47133e-16 3.71602e-17)
(0 -2.40226e-30 0 28.7854 6.08351e-15 2.09882e-14 0.289676 5.55624e-17 2.1303e-15)
(0 1.18391e-29 0 28.5979 -1.43393e-14 4.17404e-15 0.29186 -1.44427e-16 4.77928e-17)
(0 -1.65748e-29 0 28.5979 5.21566e-15 2.05656e-14 0.29186 5.04576e-17 2.18262e-15)
(-6.11066e-16 4.532e-30 -3.28146e-31 28.3887 -1.43155e-14 1.85231e-14 0.293815 -1.50949e-16 3.36422e-16)
(2.44427e-15 3.88325e-31 0 28.3887 5.34778e-15 2.00565e-14 0.293815 5.99356e-17 2.23448e-15)
(6.47517e-16 -1.61031e-29 1.15022e-30 28.1569 -1.46951e-14 3.19116e-14 0.295521 -1.56661e-16 3.31452e-16)
(1.87735e-15 1.65076e-29 -1.15022e-30 28.1569 5.63342e-15 1.94693e-14 0.295521 5.79576e-17 2.28562e-15)
(6.51523e-16 4.59672e-30 -1.91771e-30 27.9016 -1.44997e-14 3.09221e-14 0.296961 -1.51191e-16 3.25112e-16)
(-2.60609e-15 -1.17599e-29 2.26747e-30 27.9016 5.17463e-15 1.88141e-14 0.296961 5.18783e-17 2.33577e-15)
(6.71969e-16 -8.91445e-30 1.47814e-30 27.6222 -1.40069e-14 2.98407e-14 0.298117 -1.50557e-16 3.17696e-16)
(0 6.70492e-30 -1.11749e-30 27.6222 4.77166e-15 1.8121e-14 0.298117 5.09111e-17 2.38492e-15)
(5.47609e-16 -4.39648e-30 -3.67987e-31 27.3186 -1.40217e-14 2.86591e-14 0.298975 -1.55946e-16 3.08622e-16)
(-1.24014e-15 1.10147e-29 -1.10147e-30 27.3186 5.03031e-15 1.73645e-14 0.298975 5.90923e-17 2.43281e-15)
(7.13205e-16 4.29623e-30 -7.18601e-31 26.9908 -1.34427e-14 2.7395e-14 0.299526 -1.42035e-16 2.98768e-16)
(1.63045e-15 -1.70366e-30 0 26.9908 5.17477e-15 1.65434e-14 0.299526 5.56289e-17 2.47912e-15)
(1.20485e-15 -2.14024e-30 1.07012e-30 26.639 -1.30068e-14 2.6075e-14 0.299762 -1.50637e-16 2.87751e-16)
(2.93582e-15 6.91341e-30 -1.07012e-30 26.639 4.28133e-15 1.56866e-14 0.299762 4.05779e-17 2.5239e-15)
(-7.54767e-16 2.21981e-30 -3.64595e-31 26.264 -1.43621e-14 2.46951e-14 0.29968 -1.77352e-16 2.75798e-16)
(0 4.21914e-30 -1.05478e-30 26.264 3.84153e-15 1.47925e-14 0.29968 4.71476e-17 2.56671e-15)
(-7.75617e-16 1.46896e-31 -3.62999e-31 25.8668 -1.48169e-14 2.326e-14 0.299278 -1.65657e-16 2.62707e-16)
(0 6.238e-30 0 25.8668 4.26578e-15 1.38805e-14 0.299278 5.16618e-17 2.60743e-15)
(0 -8.19813e-30 0 25.4485 -1.36133e-14 2.18585e-14 0.298562 -1.54068e-16 2.50714e-16)
(0 1.02477e-29 0 25.4485 4.4443e-15 1.29848e-14 0.298562 5.27529e-17 2.64615e-15)
(-1.95459e-15 2.1755e-31 -1.36866e-30 25.0109 -1.27762e-14 2.04875e-14 0.297539 -1.50412e-16 2.37488e-16)
(0 8.08063e-30 0 25.0109 3.7758e-15 1.21025e-14 0.297539 3.71265e-17 2.68282e-15)
(-1.12095e-15 1.79208e-29 -1.9912e-30 24.5556 -1.20924e-14 1.90779e-14 0.296218 -1.41926e-16 2.23727e-16)
(-3.35269e-15 -1.65041e-29 9.95601e-31 24.5556 3.20934e-15 1.12374e-14 0.296218 4.05012e-17 2.71742e-15)
(-8.58948e-16 -1.1492e-29 6.28283e-31 24.0846 -1.16702e-14 1.77049e-14 0.294616 -1.44386e-16 2.10516e-16)
(2.33091e-15 1.62879e-29 -1.96266e-30 24.0846 3.50773e-15 1.04013e-14 0.294616 4.55874e-17 2.74994e-15)
(0 1.54763e-29 -9.67267e-31 23.6 -1.19243e-14 1.63977e-14 0.292747 -1.52455e-16 1.97509e-16)
(0 -1.54763e-29 9.67267e-31 23.6 2.98215e-15 9.58244e-15 0.292747 2.85115e-17 2.78025e-15)
(-1.97369e-15 9.88163e-30 -1.29956e-30 23.104 -1.16709e-14 1.51479e-14 0.29063 -1.42169e-16 1.84896e-16)
(4.67447e-15 -6.99443e-30 9.53403e-31 23.104 2.13075e-15 8.79058e-15 0.29063 2.52681e-17 2.80854e-15)
(1.8415e-15 -1.20347e-29 1.62439e-30 22.5988 -1.08556e-14 1.39461e-14 0.288286 -1.35885e-16 1.72282e-16)
(3.683e-15 8.16712e-30 -9.39738e-31 22.5988 1.95214e-15 8.04038e-15 0.288286 2.47377e-17 2.83466e-15)
(1.04289e-15 -7.41016e-30 9.2627e-31 22.0866 -1.08646e-14 1.28235e-14 0.285736 -1.46569e-16 1.60924e-16)
(0 9.2627e-30 -9.2627e-31 22.0866 1.5915e-15 7.36239e-15 0.285736 1.6567e-17 2.85885e-15)
(-9.61314e-16 -3.21459e-30 5.79427e-31 21.5697 -1.12754e-14 1.18224e-14 0.283001 -1.50776e-16 1.50739e-16)
(0 1.09559e-29 -9.12994e-31 21.5697 1.4123e-15 6.77079e-15 0.283001 2.07027e-17 2.88147e-15)
(-2.97591e-15 1.17324e-29 -1.55789e-30 21.0501 -1.13989e-14 1.08723e-14 0.280106 -1.5419e-16 1.40036e-16)
(4.93862e-15 -1.37074e-29 8.99908e-31 21.0501 1.59358e-15 6.20902e-15 0.280106 2.19372e-17 2.90246e-15)
(-1.00121e-15 -1.27714e-30 -3.24095e-31 20.5299 -1.13394e-14 9.97586e-15 0.27707 -1.53565e-16 1.30649e-16)
(0 7.09608e-30 0 20.5299 1.83563e-15 5.67004e-15 0.27707 2.79264e-17 2.9218e-15)
(-1.02087e-15 -4.71769e-30 -3.1886e-31 20.0109 -1.07742e-14 9.21871e-15 0.273916 -1.43032e-16 1.23138e-16)
(4.08349e-15 1.11993e-29 -8.74297e-31 20.0109 2.41914e-15 5.20285e-15 0.273916 3.87639e-17 2.93974e-15)
(-1.04033e-15 9.17524e-30 -1.1754e-30 19.4948 -9.96432e-15 8.54707e-15 0.270665 -1.35274e-16 1.15576e-16)
(-9.70262e-16 0 0 19.4948 6.42424e-16 4.83494e-15 0.270665 4.48666e-18 2.95664e-15)
(-2.11915e-15 1.47621e-29 -2.31536e-30 18.9833 -9.55684e-15 7.91973e-15 0.267336 -1.35589e-16 1.08836e-16)
(-4.2383e-15 -1.09362e-29 1.69883e-30 18.9833 1.00664e-15 4.50803e-15 0.267336 2.41858e-17 2.97245e-15)
(-2.15719e-15 -8.82015e-30 1.06898e-30 18.4776 -9.55062e-15 7.37644e-15 0.263947 -1.39056e-16 1.03227e-16)
(8.62876e-15 1.15679e-29 -1.67448e-30 18.4776 1.49646e-15 4.19045e-15 0.263947 1.88049e-17 2.98726e-15)
(-3.29216e-15 2.33876e-29 -8.90911e-31 17.979 -9.00828e-15 6.96344e-15 0.260516 -1.23624e-16 9.98881e-17)
(-4.38954e-15 -1.72844e-29 0 17.979 1.00744e-15 3.93963e-15 0.260516 1.05246e-17 3.00131e-15)
(-1.11594e-15 -1.07098e-29 1.33539e-30 17.4886 -6.62658e-15 6.60759e-15 0.257059 -7.21276e-17 9.56424e-17)
(4.46377e-15 1.70567e-29 -1.62683e-30 17.4886 7.16988e-16 3.74065e-15 0.257059 1.06969e-17 3.01475e-15)
(1.13426e-15 -8.72048e-30 2.8586e-31 17.0073 -4.65641e-15 6.26134e-15 0.25359 -6.76571e-17 9.23416e-17)
(0 -1.4013e-45 0 17.0073 -2.01173e-31 3.5712e-15 0.25359 1.97215e-31 3.02783e-15)
(0 -1.26442e-29 0 16.5358 -5.28173e-15 5.97751e-15 0.250121 -9.34283e-17 8.97349e-17)
(4.60936e-15 1.34403e-29 0 16.5358 -1.3492e-15 3.4173e-15 0.250121 2.90815e-17 3.04031e-15)
(0 -3.11575e-30 1.55787e-30 16.0747 -5.76767e-15 5.82441e-15 0.246664 -8.47668e-17 9.02805e-17)
(4.6807e-15 7.01549e-30 -1.55787e-30 16.0747 -5.55513e-16 3.27961e-15 0.246664 6.50976e-17 3.05226e-15)
(-1.72887e-15 1.22844e-29 -3.07109e-30 15.6245 -5.21677e-15 5.70349e-15 0.243229 -7.87658e-17 8.85446e-17)
(3.0222e-15 -5.38407e-30 0 15.6245 -6.50841e-16 3.17844e-15 0.243229 1.23773e-16 3.06423e-15)
(0 1.51354e-29 -1.51354e-30 15.1856 -5.06546e-15 5.56843e-15 0.239825 -8.24017e-17 8.85971e-17)
(0 -1.51354e-29 1.51354e-30 15.1856 -1.80132e-15 3.13294e-15 0.239825 1.79067e-16 3.0762e-15)
(-2.44445e-15 4.61327e-30 -5.16609e-31 14.7582 -5.93947e-15 5.48523e-15 0.23646 -1.09486e-16 8.84336e-17)
(0 0 0 14.7582 -1.70935e-15 3.14749e-15 0.23646 2.58145e-16 3.0882e-15)
(0 -1.76455e-29 1.47046e-30 14.3425 -7.30822e-15 5.4513e-15 0.23314 -1.29959e-16 9.00735e-17)
(4.95637e-15 1.83062e-29 -1.47046e-30 14.3425 7.02475e-16 3.17445e-15 0.23314 3.11135e-16 3.10055e-15)
(0 8.69632e-30 0 13.9385 -7.74087e-15 5.46935e-15 0.229871 -1.2717e-16 9.16281e-17)
(3.39103e-15 -2.23636e-30 0 13.9385 1.9464e-15 3.1793e-15 0.229871 3.30868e-16 3.11312e-15)
(-1.27212e-15 5.16887e-30 -2.42963e-31 13.5464 -7.22611e-15 5.5017e-15 0.226657 -1.16291e-16 9.38103e-17)
(0 2.85723e-30 -1.42861e-30 13.5464 9.81354e-16 3.19534e-15 0.226657 3.61847e-16 3.12553e-15)
(1.28829e-15 6.13397e-30 -1.16982e-30 13.1659 -6.56769e-15 5.54936e-15 0.223502 -1.08219e-16 9.59538e-17)
(0 -2.81628e-30 0 13.1659 2.38415e-16 3.27043e-15 0.223502 3.98829e-16 3.13835e-15)
(1.5627e-15 -5.55182e-30 0 12.7971 -6.95641e-15 5.60662e-15 0.220409 -1.3328e-16 9.85591e-17)
(-1.5627e-15 8.32773e-30 0 12.7971 8.72446e-16 3.37953e-15 0.220409 4.5797e-16 3.15199e-15)
(1.5403e-15 -5.47225e-30 1.36806e-30 12.4397 -8.174e-15 5.68166e-15 0.21738 -1.54553e-16 1.01425e-16)
(-1.5403e-15 5.47225e-30 0 12.4397 1.56803e-15 3.47733e-15 0.21738 4.97228e-16 3.16606e-15)
(-1.15264e-15 -7.54305e-31 8.98005e-31 12.0937 -7.94371e-15 5.84953e-15 0.214418 -1.28902e-16 1.07484e-16)
(0 8.09073e-30 -1.34845e-30 12.0937 1.56461e-15 3.55532e-15 0.214418 5.24689e-16 3.18075e-15)
(-1.35071e-15 1.03013e-29 -2.21732e-31 11.7586 -6.13889e-15 6.01289e-15 0.211523 -9.32242e-17 1.10357e-16)
(0 -7.97477e-30 0 11.7586 1.55363e-15 3.63297e-15 0.211523 5.5238e-16 3.1962e-15)
(1.36578e-15 2.93915e-31 2.18579e-31 11.4344 -5.45617e-15 6.05528e-15 0.208696 -1.07405e-16 1.12202e-16)
(-6.93815e-15 -3.22402e-30 0 11.4344 4.09275e-16 3.81264e-15 0.208696 5.70287e-16 3.21216e-15)
(2.90775e-15 -5.16521e-30 1.2913e-30 11.1207 -5.0066e-15 6.25472e-15 0.205938 -7.90702e-17 1.2108e-16)
(-5.52259e-15 4.59219e-30 0 11.1207 -3.30456e-16 4.06483e-15 0.205938 6.34873e-16 3.2294e-15)
(-1.39531e-15 1.50672e-29 -1.48475e-30 10.8173 -3.27617e-15 6.50115e-15 0.203249 -4.46147e-17 1.24878e-16)
(1.11625e-14 -6.54633e-30 1.27279e-30 10.8173 2.98281e-16 4.21094e-15 0.203249 7.0302e-16 3.24803e-15)
(1.40978e-15 1.02091e-29 4.54658e-31 10.5239 -2.99376e-15 0 0.200628 -7.0469e-17 1.97215e-31)
(5.63911e-15 -1.70464e-29 0 10.5239 -9.3329e-16 4.26346e-15 0.200628 7.76108e-16 3.26703e-15)
(0 2.47314e-30 0 10.2402 -3.85775e-15 -1.05154e-14 0.198074 -7.98075e-17 1.57724e-16)
(0 2.47314e-30 0 10.2402 -9.54709e-16 4.34338e-15 0.198074 8.22582e-16 3.28691e-15)
(-1.43814e-15 -1.47275e-29 2.27181e-30 9.96583 -4.13682e-15 -1.27247e-14 0.195589 -8.36373e-17 2.52397e-16)
(5.75257e-15 1.99817e-29 -2.43769e-30 9.96583 5.02941e-16 4.53548e-15 0.195589 8.41053e-16 3.30762e-15)
(-1.45205e-15 9.55168e-30 -1.51637e-31 9.70058 -3.29549e-15 -1.2454e-14 0.193169 -4.81817e-17 2.50254e-16)
(-5.8082e-15 -5.26199e-30 0 9.70058 -2.17016e-16 4.77498e-15 0.193169 9.05279e-16 3.32965e-15)
(1.46578e-15 -9.45269e-30 1.37532e-31 9.44412 -1.6388e-15 -1.21507e-14 0.190815 -1.82361e-17 2.48863e-16)
(5.86312e-15 7.50754e-30 0 9.44412 -1.24897e-15 4.96113e-15 0.190815 1.02133e-15 3.35311e-15)
(-2.79347e-15 1.63514e-29 -1.2913e-30 9.19617 -1.17431e-15 -1.18476e-14 0.188525 -3.02929e-17 2.4516e-16)
(7.23149e-15 -1.36703e-29 1.16719e-30 9.19617 -2.25707e-15 5.06344e-15 0.188525 1.16078e-15 3.36978e-15)
(-1.49273e-15 4.40532e-32 -1.10535e-31 8.95641 -1.54791e-15 -1.1524e-14 0.186297 -3.45198e-17 2.43559e-16)
(0 2.30092e-30 0 8.95641 -2.80268e-15 5.15657e-15 0.186297 1.25539e-15 3.38532e-15)
(-1.50596e-15 2.34515e-30 -9.78097e-32 8.72456 -1.72157e-15 -1.11977e-14 0.184131 -3.86075e-17 2.38702e-16)
(0 4.53588e-30 0 8.72456 -1.90173e-15 5.34191e-15 0.184131 1.3616e-15 3.40174e-15)
(-1.51902e-15 -1.10656e-29 -8.48342e-32 8.50034 -1.56579e-15 -1.06789e-14 0.182026 -2.87717e-17 2.36735e-16)
(6.0761e-15 1.35851e-29 0 8.50034 -1.15899e-15 5.50475e-15 0.182026 1.45795e-15 3.41885e-15)
(4.01274e-15 -1.33658e-29 7.40406e-32 8.28348 -9.78399e-16 -9.93931e-15 0.179978 -1.38805e-17 2.23184e-16)
(-2.4808e-15 1.1017e-29 0 8.28348 -1.51885e-15 5.60196e-15 0.179978 1.54337e-15 3.43748e-15)
(2.44524e-15 -8.68725e-30 1.08591e-30 8.07369 -7.6718e-16 -9.43953e-15 0.177988 -2.01811e-17 2.11113e-16)
(0 8.68725e-30 0 8.07369 -3.17885e-15 5.76141e-15 0.177988 1.66579e-15 3.45665e-15)
(8.52875e-16 -4.07673e-30 -5.25292e-32 7.87073 -1.21926e-15 -9.21817e-15 0.176054 -3.47712e-17 2.07401e-16)
(-2.4102e-15 1.07034e-29 0 7.87073 -3.58993e-15 5.97298e-15 0.176054 1.77487e-15 3.47707e-15)
(2.37565e-15 -5.65529e-30 3.16501e-30 7.67433 -2.05991e-28 -8.80871e-15 0.174174 0 2.07267e-16)
(1.01827e-14 2.532e-29 -1.055e-30 7.67433 -1.31914e-15 6.09818e-15 0.174174 1.76776e-15 3.49859e-15)
(0 2.07976e-30 -1.03988e-30 7.48425 1.58061e-15 -8.30995e-15 0.172346 -2.27873e-17 1.94654e-16)
(6.32856e-15 4.15952e-30 8.18698e-32 7.48425 -1.2865e-15 6.15145e-15 0.172346 1.77762e-15 3.3732e-15)
(-1.59435e-15 2.07898e-29 -2.07108e-30 7.30025 2.01516e-15 -8.02456e-15 0.17057 -5.05985e-17 1.90078e-16)
(-6.37738e-15 -1.63996e-29 7.44684e-31 7.30025 -3.19725e-15 6.22466e-15 0.17057 1.76509e-15 3.03906e-15)
(6.68542e-16 1.44643e-29 9.99426e-31 7.1221 1.7857e-15 -7.86886e-15 0.168843 -4.40158e-17 1.86852e-16)
(-8.70064e-15 -1.01029e-29 -4.80507e-31 7.1221 -3.48828e-15 6.43587e-15 0.168843 1.75856e-15 2.70384e-15)
(0 7.96645e-30 0 6.94958 1.1645e-15 -7.73733e-15 0.167164 -4.10658e-17 1.88172e-16)
(-2.24236e-15 -3.98323e-30 0 6.94958 -3.271e-15 6.69884e-15 0.167164 1.77386e-15 2.35724e-15)
(0 -6.28759e-30 0 6.78247 1.2273e-15 -7.36191e-15 0.165532 -1.5051e-17 1.12735e-16)
(4.31056e-15 -1.96307e-30 8.99842e-31 6.78247 -4.34706e-15 6.86847e-15 0.165532 1.77125e-15 2.0058e-15)
(-2.71518e-15 2.08894e-29 -1.93493e-30 6.62057 3.44965e-15 -6.93724e-15 0.163945 -7.19559e-17 4.18084e-17)
(2.17854e-15 -1.93493e-29 0 6.62057 -5.34811e-15 6.94556e-15 0.163945 1.74341e-15 1.65922e-15)
(2.14732e-15 -3.05152e-29 0 6.46369 3.54539e-15 -6.70378e-15 0.162402 -9.99258e-17 -2.87908e-17)
(1.10806e-14 3.05152e-29 2.6341e-30 6.46369 -3.68875e-15 6.93079e-15 0.162402 1.71403e-15 1.3149e-15)
(0 -7.51946e-30 9.39932e-31 6.31162 2.15823e-15 -6.48384e-15 0.160901 -7.89329e-17 -9.75087e-17)
(1.33197e-14 7.51946e-30 3.05129e-30 6.31162 -3.36042e-15 7.00821e-15 0.160901 1.71707e-15 9.70794e-16)
(-3.35267e-15 4.64887e-30 0 6.16418 1.44673e-15 -6.2031e-15 0.159441 -3.12789e-17 -1.63076e-16)
(0 0 0 6.16418 -4.4243e-15 7.19739e-15 0.159441 1.70877e-15 6.23749e-16)
(-1.6876e-15 2.31917e-30 0 6.02121 2.20981e-15 -5.98197e-15 0.158021 -4.39997e-17 -2.27055e-16)
(1.35008e-14 3.65273e-30 3.89996e-30 6.02121 -3.45363e-15 7.30054e-15 0.158021 1.69438e-15 2.74352e-16)
(3.72558e-15 -9.51093e-30 0 5.88253 2.13405e-15 -5.79308e-15 0.15664 -7.27215e-17 -2.89359e-16)
(-2.02683e-15 7.20075e-30 0 5.88253 -3.96273e-15 7.46793e-15 0.15664 1.69794e-15 2.05376e-16)
(-1.70981e-15 2.31373e-30 0 5.74798 1.89253e-15 -5.59202e-15 0.155295 -4.12064e-17 -3.50179e-16)
(0 3.54877e-30 0 5.74798 -4.50516e-15 7.6987e-15 0.155295 1.67772e-15 2.12486e-16)
(-1.72077e-15 1.28049e-29 0 5.61741 2.88083e-15 -5.3706e-15 0.153987 -6.16495e-17 -4.08712e-16)
(6.88307e-15 -1.04937e-29 2.04394e-30 5.61741 -3.65614e-15 7.79477e-15 0.153987 1.67387e-15 2.16721e-16)
(-3.67255e-15 9.19871e-30 0 5.49066 3.29942e-15 -5.11193e-15 0.152713 -9.72243e-17 -4.65286e-16)
(6.92651e-15 -3.44778e-30 2.06264e-30 5.49066 -4.36108e-15 7.91419e-15 0.152713 1.68305e-15 2.2543e-16)
(-3.48479e-15 4.60362e-30 0 5.3676 3.31214e-15 -4.79033e-15 0.151472 -8.7008e-17 -5.19858e-16)
(0 0 0 5.3676 -4.78741e-15 8.02987e-15 0.151472 1.65686e-15 2.29672e-16)
(-3.63876e-15 1.23468e-29 0 5.24808 3.69735e-15 -4.61275e-15 0.150264 -1.00798e-16 -5.70206e-16)
(0 -6.69931e-30 0 5.24808 -4.92744e-15 8.11995e-15 0.150264 1.63381e-15 2.3725e-16)
(3.71732e-15 -6.60329e-30 0 5.13198 3.43144e-15 -4.55833e-15 0.149088 -1.11866e-16 -6.20271e-16)
(-7.05466e-15 9.90493e-30 -2.12927e-30 5.13198 -4.39861e-15 8.23171e-15 0.149088 1.61271e-15 2.42967e-16)
(1.77417e-15 -8.80091e-30 0 5.01916 3.25694e-15 -4.36004e-15 0.147941 -8.81267e-17 -6.66348e-16)
(7.09668e-15 6.50865e-30 2.15245e-30 5.01916 -3.70833e-15 8.3366e-15 0.147941 1.59885e-15 2.50453e-16)
(1.78459e-15 -8.70138e-30 0 4.90952 3.41612e-15 -4.14989e-15 0.146824 -1.04741e-16 -7.09162e-16)
(-7.13836e-15 6.41536e-30 -2.17476e-30 4.90952 -4.62145e-15 8.51206e-15 0.146824 1.56438e-15 2.60695e-16)
(-1.79493e-15 8.60701e-30 0 4.80293 3.89323e-15 -4.00383e-15 0.145735 -1.00335e-16 -7.50421e-16)
(7.17971e-15 -3.16171e-30 6.18566e-31 4.80293 -4.70504e-15 8.70423e-15 0.145735 1.53628e-15 2.69581e-16)
(0 6.23278e-30 1.5582e-30 4.69929 5.52709e-15 -3.71995e-15 0.144673 -1.37084e-16 -7.89461e-16)
(0 0 -1.5582e-30 4.69929 -4.59665e-15 8.87519e-15 0.144673 1.54145e-15 2.78974e-16)
(-1.72923e-15 9.21517e-30 -1.53586e-30 4.59848 6.76554e-15 -3.51823e-15 0.143638 -2.04981e-16 -8.2485e-16)
(7.26148e-15 -3.07172e-30 2.25207e-30 4.59848 -4.76035e-15 9.01386e-15 0.143638 1.51919e-15 2.86236e-16)
(1.82548e-15 -8.2989e-30 0 4.50042 6.08328e-15 -3.51111e-15 0.142628 -2.19313e-16 -8.62202e-16)
(0 6.0554e-30 0 4.50042 -5.10349e-15 9.16752e-15 0.142628 1.48939e-15 2.96991e-16)
(0 1.19372e-29 1.49215e-30 4.40499 5.31301e-15 -3.36642e-15 0.141642 -1.67271e-16 -8.96767e-16)
(-7.34205e-15 -5.96861e-30 -3.79812e-30 4.40499 -4.9149e-15 9.39756e-15 0.141642 1.44735e-15 3.09575e-16)
(-3.31187e-15 2.94153e-30 -1.47077e-30 4.31211 5.94178e-15 -3.22224e-15 0.14068 -1.75666e-16 -9.27961e-16)
(0 5.88306e-30 0 4.31211 -3.29767e-15 9.59452e-15 0.14068 1.43057e-15 3.1868e-16)
(0 8.69812e-30 0 4.22168 6.13817e-15 -3.11704e-15 0.139741 -2.13638e-16 -9.57967e-16)
(0 -5.79874e-30 0 4.22168 -3.13175e-15 9.73484e-15 0.139741 1.42049e-15 3.28032e-16)
(1.86519e-15 1.49262e-29 1.42891e-30 4.13363 6.34826e-15 -2.94945e-15 0.138824 -1.93952e-16 -9.85617e-16)
(0 -1.71469e-29 -1.42891e-30 4.13363 -5.00044e-15 9.93635e-15 0.138824 1.39019e-15 3.41694e-16)
(-1.29655e-15 6.24117e-30 1.40843e-30 4.04786 6.40901e-15 -2.8083e-15 0.137928 -2.34158e-16 -1.01106e-15)
(0 -5.63371e-30 -1.40843e-30 4.04786 -5.53304e-15 1.13852e-14 0.137928 1.35695e-15 4.37421e-16)
(-3.76928e-15 4.42062e-30 0 3.96431 5.44966e-15 -2.67187e-15 0.137053 -2.03817e-16 -1.03586e-15)
(7.53855e-15 0 2.53092e-30 3.96431 -4.73263e-15 1.03975e-14 0.137053 1.33532e-15 2.82691e-16)
(-1.89427e-15 4.9463e-30 0 3.8829 5.24792e-15 -2.67932e-15 0.136197 -1.73988e-16 -1.0592e-15)
(0 2.73669e-30 0 3.8829 -5.29818e-15 -9.3563e-46 0.136197 1.31826e-15 7.88861e-31)
(0 5.39493e-30 0 3.80354 5.75644e-15 -2.75562e-15 0.135361 -1.95486e-16 -1.08427e-15)
(0 -5.39493e-30 -1.34873e-30 3.80354 -6.17105e-15 -2.12006e-15 0.135361 1.26855e-15 7.15705e-17)
(0 5.31761e-30 0 3.72619 6.30401e-15 -2.66669e-15 0.134543 -2.15656e-16 -1.10811e-15)
(-2.99355e-15 0 -1.3294e-30 3.72619 -6.28679e-15 -2.15552e-15 0.134543 1.2387e-15 7.98572e-17)
(-5.90128e-15 1.04828e-29 -1.31035e-30 3.65076 7.12681e-15 -2.61869e-15 0.133743 -2.41165e-16 -1.12881e-15)
(0 -5.24139e-30 -1.31035e-30 3.65076 -5.3464e-15 -2.04281e-15 0.133743 1.19793e-15 7.6254e-17)
(-2.90835e-15 1.03325e-29 0 3.5772 6.74502e-15 -2.62799e-15 0.13296 -2.82881e-16 -1.15049e-15)
(1.54574e-14 -5.16627e-30 2.57351e-30 3.5772 -4.2941e-15 -1.91589e-15 0.13296 1.15415e-15 7.38534e-17)
(-3.88302e-15 6.8823e-30 0 3.50544 4.78357e-15 -2.50406e-15 0.132193 -2.19557e-16 -1.17158e-15)
(7.76603e-15 -2.54611e-30 2.55577e-30 3.50544 -4.81493e-15 -1.78552e-15 0.132193 1.12307e-15 6.89557e-17)
(4.77637e-15 -9.70531e-30 0 3.43542 4.93531e-15 -2.35445e-15 0.131442 -1.4172e-16 -1.19031e-15)
(0 1.00385e-29 0 3.43542 -6.437e-15 -1.96822e-15 0.131442 1.07628e-15 6.60836e-17)
(0 4.9473e-30 0 3.3671 6.86033e-15 -2.27061e-15 0.130707 -2.37717e-16 -1.20459e-15)
(-1.06251e-14 -2.47365e-30 -2.49105e-30 3.3671 -6.55687e-15 -2.14484e-15 0.130707 1.00394e-15 8.50984e-17)
(-1.96918e-15 -1.24885e-29 -1.2191e-30 3.3004 7.37524e-15 -2.17199e-15 0.129986 -2.96839e-16 -1.21587e-15)
(7.87671e-15 1.70674e-29 3.68506e-30 3.3004 -4.55581e-15 -1.93375e-15 0.129986 9.51583e-16 8.18712e-17)
(0 9.61301e-30 1.20163e-30 3.2353 6.12878e-15 -2.22778e-15 0.12928 -2.8565e-16 -1.22771e-15)
(0 -4.8065e-30 -1.20163e-30 3.2353 -4.67156e-15 -1.90873e-15 0.12928 9.25829e-16 7.07955e-17)
(2.66704e-15 -7.10642e-30 0 3.17172 4.72233e-15 -2.2426e-15 0.128588 -2.04919e-16 -1.24073e-15)
(0 9.47523e-30 1.1844e-30 3.17172 -6.64107e-15 -2.13673e-15 0.128588 8.62641e-16 8.22502e-17)
(-1.99638e-15 4.47038e-30 0 3.10963 4.26166e-15 -2.30364e-15 0.127909 -1.78836e-16 -1.2484e-15)
(0 -2.33486e-30 0 3.10963 -5.92676e-15 -2.04263e-15 0.127909 7.90077e-16 9.15413e-17)
(1.17158e-15 -1.87565e-29 0 3.04898 4.4795e-15 -2.30244e-15 0.127242 -1.72647e-16 -1.25775e-15)
(1.60428e-14 2.30139e-29 7.02426e-30 3.04898 -4.35316e-15 -2.0429e-15 0.127242 7.41468e-16 7.68411e-17)
(0 4.53681e-30 1.1342e-30 2.98973 5.6806e-15 -2.03012e-15 0.126588 -2.02437e-16 -1.25922e-15)
(0 0 -1.1342e-30 2.98973 -6.34141e-15 -2.36798e-15 0.126588 6.93204e-16 9.42453e-17)
(-2.51739e-15 4.47179e-30 0 2.93183 5.52681e-15 -2.05661e-15 0.125946 -2.80422e-16 -1.25702e-15)
(0 0 -1.11795e-30 2.93183 -6.78629e-15 -2.32879e-15 0.125946 5.85375e-16 1.06893e-16)
(-3.61459e-15 -1.35391e-29 -1.10192e-30 2.87524 4.7607e-15 -2.05824e-15 0.125315 -1.95024e-16 -1.25753e-15)
(1.62557e-14 1.98346e-29 6.72646e-30 2.87524 -4.10278e-15 -2.2261e-15 0.125315 4.88567e-16 9.36056e-17)
(0 -1.73781e-29 -2.17226e-30 2.81993 6.24891e-15 -1.71182e-15 0.124696 -2.212e-16 -1.25197e-15)
(1.6326e-14 1.73781e-29 6.6221e-30 2.81993 -5.04512e-15 -2.28873e-15 0.124696 4.32018e-16 1.00985e-16)
(-4.46018e-15 1.06258e-29 1.07056e-30 2.76585 6.93589e-15 -1.62936e-15 0.124086 -3.33641e-16 -1.24459e-15)
(0 -6.42338e-30 -2.14113e-30 2.76585 -6.21051e-15 -2.21317e-15 0.124086 3.4176e-16 1.01941e-16)
(2.05818e-15 -2.10543e-29 -3.16566e-30 2.71297 5.99888e-15 -1.6888e-15 0.123488 -2.89922e-16 -1.24074e-15)
(1.64654e-14 1.8994e-29 7.49321e-30 2.71297 -4.01324e-15 -2.17705e-15 0.123488 2.5622e-16 9.70969e-17)
(0 -1.45613e-29 -2.08019e-30 2.66126 5.52699e-15 -1.60231e-15 0.122899 -2.57283e-16 -1.23106e-15)
(8.26731e-15 1.45613e-29 4.21207e-30 2.66126 -4.17838e-15 -2.301e-15 0.122899 2.22455e-16 1.01607e-16)
(2.07544e-15 -1.02553e-29 0 2.61068 5.94881e-15 -1.54794e-15 0.122319 -2.54409e-16 -1.21973e-15)
(0 8.20151e-30 0 2.61068 -5.66284e-15 -2.41828e-15 0.122319 1.37966e-16 1.11501e-16)
(1.89257e-15 -2.05921e-30 0 2.56119 7.19765e-15 -1.34039e-15 0.121749 -3.04729e-16 -1.20888e-15)
(8.33601e-15 -2.02099e-30 1.05011e-30 2.56119 -5.88404e-15 -2.43624e-15 0.121749 4.42993e-17 1.15679e-16)
(0 3.98405e-30 0 2.51278 7.06481e-15 -1.26671e-15 0.121187 -3.81736e-16 -1.19576e-15)
(0 0 -9.96012e-31 2.51278 -5.66729e-15 -2.18967e-15 0.121187 -3.99819e-17 1.16491e-16)
(2.21067e-15 -5.89042e-30 0 2.4654 5.28131e-15 -1.35035e-15 0.120634 -3.00719e-16 -1.18545e-15)