/*--------------------------------*- C++ -*----------------------------------*\
| =========                 |                                                 |
| \\      /  F ield         | OpenFOAM: The Open Source CFD Toolbox           |
|  \\    /   O peration     | Version:  2012                                  |
|   \\  /    A nd           | Website:  www.openfoam.com                      |
|    \\/     M anipulation  |                                                 |
\*---------------------------------------------------------------------------*/
FoamFile
{
    version     2.0;
    format      ascii;
    class       surfaceScalarField;
    location    "8000";
    object      phi;
}
// * * * * * * * * * * * * * * * * * * * * * * * * * * * * * * * * * * * * * //

dimensions      [0 3 -1 0 0 0 0];
oriented        oriented;


internalField   nonuniform List<scalar> 
5116
(
1.16096e-07
-6.58686e-18
-4.88343e-22
-2.92811e-21
6.67135e-22
3.5504e-07
-6.58975e-18
2.17617e-21
-4.51282e-21
2.25081e-21
6.04345e-07
-6.59281e-18
2.26204e-21
-6.10146e-21
2.34637e-21
8.64096e-07
-6.59611e-18
2.33563e-21
-7.68454e-21
2.43958e-21
1.13361e-06
-6.59937e-18
2.39564e-21
-9.52327e-21
2.51848e-21
1.41053e-06
-6.60287e-18
2.42298e-21
-1.12836e-20
2.56273e-21
1.69014e-06
-6.60574e-18
2.39733e-21
-1.32614e-20
2.5509e-21
1.96604e-06
-6.60926e-18
2.31127e-21
-1.4798e-20
2.47445e-21
2.23208e-06
-6.61226e-18
2.17651e-21
-1.60582e-20
2.34501e-21
2.48431e-06
-6.61437e-18
2.01597e-21
-1.81409e-20
2.18664e-21
2.72134e-06
-6.61677e-18
1.85114e-21
-2.02789e-20
2.02236e-21
2.94374e-06
-6.61879e-18
1.69566e-21
-2.17105e-20
1.86703e-21
3.15303e-06
-6.6209e-18
1.55568e-21
-2.3078e-20
1.72753e-21
3.35106e-06
-6.62246e-18
1.4326e-21
-2.45642e-20
1.60564e-21
3.53963e-06
-6.6235e-18
1.32543e-21
-2.6083e-20
1.50055e-21
3.72036e-06
-6.62569e-18
1.23231e-21
-2.70114e-20
1.41043e-21
3.89464e-06
-6.62696e-18
1.15122e-21
-2.87846e-20
1.33323e-21
4.06366e-06
-6.62873e-18
1.08025e-21
-2.96615e-20
1.267e-21
4.2284e-06
-6.63289e-18
1.01776e-21
-2.92935e-20
1.21002e-21
4.3897e-06
-6.6335e-18
9.62419e-22
-3.09695e-20
1.16085e-21
4.54824e-06
-6.63354e-18
9.12997e-22
-3.30228e-20
1.1183e-21
4.70463e-06
-6.63415e-18
8.68548e-22
-3.40589e-20
1.08139e-21
4.85936e-06
-6.6355e-18
8.28278e-22
-3.52307e-20
1.04929e-21
5.01286e-06
-6.63615e-18
7.91545e-22
-3.64601e-20
1.02132e-21
5.16551e-06
-6.6363e-18
7.57792e-22
-3.90284e-20
9.96918e-22
5.31763e-06
-6.63752e-18
7.26567e-22
-3.98185e-20
9.75613e-22
5.4695e-06
-6.63813e-18
6.97541e-22
-4.04788e-20
9.56978e-22
5.62137e-06
-6.63916e-18
6.70365e-22
-4.18678e-20
9.40702e-22
5.77346e-06
-6.6386e-18
6.44779e-22
-4.38475e-20
9.26533e-22
5.92597e-06
-6.63903e-18
6.20513e-22
-4.61959e-20
9.14273e-22
6.07909e-06
-6.63809e-18
5.97395e-22
-4.8662e-20
9.03703e-22
6.23296e-06
-6.63732e-18
5.75224e-22
-5.05793e-20
8.94621e-22
6.38774e-06
-6.63741e-18
5.5387e-22
-5.26975e-20
8.86836e-22
6.54357e-06
-6.6379e-18
5.33194e-22
-5.3937e-20
8.80297e-22
6.70058e-06
-6.63758e-18
5.131e-22
-5.61788e-20
8.74868e-22
6.85886e-06
-6.63778e-18
4.93447e-22
-5.74927e-20
8.70446e-22
7.01855e-06
-6.63732e-18
4.74145e-22
-5.93209e-20
8.66947e-22
7.17973e-06
-6.63698e-18
4.55108e-22
-6.12164e-20
8.64308e-22
7.34251e-06
-6.63601e-18
4.36222e-22
-6.31951e-20
8.62507e-22
7.50698e-06
-6.63643e-18
4.17439e-22
-6.53326e-20
8.61413e-22
7.67322e-06
-6.63634e-18
3.98735e-22
-6.37224e-20
8.60957e-22
7.84132e-06
-6.63862e-18
3.80117e-22
-6.31104e-20
8.60973e-22
8.01136e-06
-6.63991e-18
3.61552e-22
-6.26775e-20
8.61485e-22
8.18341e-06
-6.63958e-18
3.42889e-22
-6.33371e-20
8.6245e-22
8.35756e-06
-6.6414e-18
3.24147e-22
-6.25292e-20
8.63795e-22
8.53387e-06
-6.64135e-18
3.05305e-22
-6.34341e-20
8.65481e-22
8.71242e-06
-6.64381e-18
2.86296e-22
-6.51478e-20
8.67562e-22
8.89328e-06
-6.64408e-18
2.67154e-22
-6.48232e-20
8.69968e-22
9.07651e-06
-6.64336e-18
2.47743e-22
-6.62725e-20
8.72705e-22
9.26218e-06
-6.64415e-18
2.28016e-22
-6.73963e-20
8.75786e-22
9.45036e-06
-6.64187e-18
2.0791e-22
-6.75057e-20
8.79172e-22
9.64112e-06
-6.64159e-18
1.87379e-22
-6.9249e-20
8.8272e-22
9.83451e-06
-6.64017e-18
1.66398e-22
-7.10016e-20
8.86469e-22
1.00306e-05
-6.64018e-18
1.45033e-22
-7.31729e-20
8.90456e-22
1.02295e-05
-6.63708e-18
1.23217e-22
-7.48674e-20
8.94729e-22
1.04312e-05
-6.6387e-18
1.00907e-22
-7.47524e-20
8.99138e-22
1.06358e-05
-6.63848e-18
7.83354e-23
-7.67228e-20
9.03754e-22
1.08433e-05
-6.63713e-18
5.53876e-23
-7.86508e-20
9.08527e-22
1.10539e-05
-6.63602e-18
3.19744e-23
-8.19143e-20
9.13387e-22
1.12676e-05
-6.63433e-18
7.99257e-24
-8.29401e-20
9.18579e-22
1.14844e-05
-6.63217e-18
-1.6622e-23
-8.61607e-20
9.23776e-22
1.17044e-05
-6.63001e-18
-4.17645e-23
-8.84336e-20
9.29005e-22
1.19277e-05
-6.62899e-18
-6.75026e-23
-9.11026e-20
9.34128e-22
1.21544e-05
-6.62578e-18
-9.3865e-23
-9.4307e-20
9.39404e-22
1.23845e-05
-6.62531e-18
-1.20891e-22
-9.6434e-20
9.44781e-22
1.2618e-05
-6.62194e-18
-1.48684e-22
-1.00685e-19
9.50064e-22
1.28551e-05
-6.62156e-18
-1.77065e-22
-1.02627e-19
9.55317e-22
1.30958e-05
-6.6202e-18
-2.05957e-22
-1.06678e-19
9.60345e-22
1.33401e-05
-6.61982e-18
-2.35396e-22
-1.10831e-19
9.65268e-22
1.35882e-05
-6.61647e-18
-2.65315e-22
-1.14611e-19
9.70221e-22
1.38401e-05
-6.61436e-18
-2.95735e-22
-1.17735e-19
9.7494e-22
1.40959e-05
-6.61229e-18
-3.26733e-22
-1.21755e-19
9.79428e-22
1.43556e-05
-6.60845e-18
-3.58245e-22
-1.26345e-19
9.83558e-22
1.46194e-05
-6.6055e-18
-3.90596e-22
-1.3235e-19
9.87677e-22
1.48872e-05
-6.60342e-18
-4.23689e-22
-1.37017e-19
9.91852e-22
1.51592e-05
-6.60025e-18
-4.57615e-22
-1.41558e-19
9.95986e-22
1.54355e-05
-6.59513e-18
-4.92633e-22
-1.44877e-19
1.00013e-21
1.5716e-05
-6.59638e-18
-5.28577e-22
-1.51842e-19
1.00386e-21
1.60009e-05
-6.59545e-18
-5.65122e-22
-1.56945e-19
1.00757e-21
1.62903e-05
-6.5902e-18
-6.0182e-22
-1.62213e-19
1.01137e-21
1.65842e-05
-6.58536e-18
-6.39346e-22
-1.69526e-19
1.01479e-21
1.68828e-05
-6.58406e-18
-6.77332e-22
-1.76569e-19
1.01761e-21
1.7186e-05
-6.57516e-18
-7.15701e-22
-1.80846e-19
1.02e-21
1.7494e-05
-6.56628e-18
-7.55082e-22
-1.92382e-19
1.02201e-21
1.78068e-05
-6.56006e-18
-7.95249e-22
-2.00888e-19
1.02436e-21
1.81246e-05
-6.55352e-18
-8.36309e-22
-2.05981e-19
1.02655e-21
1.84473e-05
-6.54565e-18
-8.78176e-22
-2.13166e-19
1.02793e-21
1.87752e-05
-6.53907e-18
-9.2107e-22
-2.21348e-19
1.02947e-21
1.91083e-05
-6.53237e-18
-9.65088e-22
-2.27295e-19
1.03147e-21
1.94466e-05
-6.52537e-18
-1.01045e-21
-2.3789e-19
1.03372e-21
1.97902e-05
-6.51482e-18
-1.05747e-21
-2.45749e-19
1.0374e-21
2.01394e-05
-6.5082e-18
-1.10585e-21
-2.57209e-19
1.04162e-21
2.0494e-05
-6.50198e-18
-1.15561e-21
-2.61569e-19
1.0475e-21
2.08543e-05
-6.50163e-18
-1.20659e-21
-2.64556e-19
1.05365e-21
2.12202e-05
-6.50324e-18
-1.25781e-21
-2.66668e-19
1.05948e-21
2.1592e-05
-6.50091e-18
-1.30959e-21
-2.69245e-19
1.06466e-21
2.19697e-05
-6.49245e-18
-1.36187e-21
-2.75386e-19
1.06938e-21
2.23534e-05
-6.48303e-18
-1.41484e-21
-2.77441e-19
1.07454e-21
2.27432e-05
-6.48222e-18
-1.46914e-21
-2.79413e-19
1.07959e-21
2.31392e-05
-6.47759e-18
-1.52243e-21
-2.81412e-19
1.08315e-21
2.35415e-05
-6.46725e-18
-1.57567e-21
-2.87679e-19
1.08541e-21
2.39501e-05
-6.45083e-18
-1.62839e-21
-2.97222e-19
1.08697e-21
2.43653e-05
-6.44576e-18
-1.68397e-21
-3.0497e-19
1.08824e-21
2.47871e-05
-6.43718e-18
-1.73983e-21
-3.13004e-19
1.08943e-21
2.52156e-05
-6.43167e-18
-1.7961e-21
-3.21214e-19
1.0912e-21
2.56509e-05
-6.42378e-18
-1.85369e-21
-3.2867e-19
1.09364e-21
2.60931e-05
-6.41573e-18
-1.91163e-21
-3.34985e-19
1.09641e-21
2.65424e-05
-6.404e-18
-1.97038e-21
-3.41633e-19
1.09907e-21
2.69989e-05
-6.39377e-18
-2.03087e-21
-3.48038e-19
1.10154e-21
2.74626e-05
-6.38689e-18
-2.09092e-21
-3.54629e-19
1.10229e-21
2.79337e-05
-6.37513e-18
-2.15154e-21
-3.5926e-19
1.10347e-21
2.84123e-05
-6.36424e-18
-2.21215e-21
-3.69152e-19
1.10306e-21
2.88985e-05
-6.35539e-18
-2.27357e-21
-3.70868e-19
1.10246e-21
2.93925e-05
-6.34662e-18
-2.33625e-21
-3.76461e-19
1.0995e-21
2.98943e-05
-6.33433e-18
-2.40087e-21
-3.84517e-19
1.09651e-21
3.04042e-05
-6.32113e-18
-2.46825e-21
-3.97015e-19
1.09278e-21
3.09221e-05
-6.30817e-18
-2.53584e-21
-4.127e-19
1.08812e-21
3.14483e-05
-6.29535e-18
-2.60501e-21
-4.2493e-19
1.08435e-21
3.19829e-05
-6.2805e-18
-2.6767e-21
-4.40381e-19
1.07988e-21
3.2526e-05
-6.2629e-18
-2.75093e-21
-4.55655e-19
1.07773e-21
3.30778e-05
-6.24212e-18
-2.82877e-21
-4.72608e-19
1.07634e-21
3.36384e-05
-6.22459e-18
-2.91049e-21
-4.88064e-19
1.07641e-21
3.42078e-05
-6.21163e-18
-2.99196e-21
-5.03125e-19
1.07698e-21
3.47864e-05
-6.19046e-18
-3.0759e-21
-5.20769e-19
1.07619e-21
3.53741e-05
-6.17747e-18
-3.16308e-21
-5.38538e-19
1.07602e-21
3.59712e-05
-6.15641e-18
-3.25165e-21
-5.57324e-19
1.07576e-21
3.65779e-05
-6.1386e-18
-3.34321e-21
-5.79246e-19
1.0755e-21
3.71941e-05
-6.12378e-18
-3.43421e-21
-5.92281e-19
1.07551e-21
3.78202e-05
-6.10192e-18
-3.52319e-21
-6.01651e-19
1.07524e-21
3.84563e-05
-6.09335e-18
-3.61582e-21
-6.03965e-19
1.07686e-21
3.91024e-05
-6.08917e-18
-3.7061e-21
-6.18672e-19
1.07577e-21
3.97589e-05
-6.08007e-18
-3.79306e-21
-6.25538e-19
1.07682e-21
4.04258e-05
-6.06796e-18
-3.87844e-21
-6.29833e-19
1.07796e-21
4.11033e-05
-6.06035e-18
-3.96552e-21
-6.22497e-19
1.07877e-21
4.17916e-05
-6.04765e-18
-4.05611e-21
-6.32104e-19
1.07877e-21
4.24908e-05
-6.03943e-18
-4.14855e-21
-6.38601e-19
1.0819e-21
4.32011e-05
-6.02508e-18
-4.24218e-21
-6.42199e-19
1.08682e-21
4.39227e-05
-6.02714e-18
-4.33622e-21
-6.46328e-19
1.09348e-21
4.46558e-05
-6.0034e-18
-4.42372e-21
-6.58509e-19
1.104e-21
4.54006e-05
-5.97465e-18
-4.51481e-21
-6.64724e-19
1.11818e-21
4.61571e-05
-5.96879e-18
-4.61311e-21
-6.77143e-19
1.13e-21
4.69257e-05
-5.94901e-18
-4.704e-21
-6.8293e-19
1.14668e-21
4.77065e-05
-5.92359e-18
-4.80334e-21
-6.93529e-19
1.16123e-21
4.84997e-05
-5.90082e-18
-4.90986e-21
-7.04027e-19
1.17357e-21
4.93055e-05
-5.88792e-18
-5.02065e-21
-7.13505e-19
1.1891e-21
5.01241e-05
-5.86997e-18
-5.12872e-21
-7.2827e-19
1.20225e-21
5.09556e-05
-5.84533e-18
-5.23506e-21
-7.40673e-19
1.21335e-21
5.18004e-05
-5.82275e-18
-5.34081e-21
-7.49183e-19
1.22115e-21
5.26585e-05
-5.80819e-18
-5.4501e-21
-7.63022e-19
1.23042e-21
5.35303e-05
-5.78702e-18
-5.55288e-21
-7.7522e-19
1.23725e-21
5.44159e-05
-5.7677e-18
-5.65862e-21
-7.82023e-19
1.23898e-21
5.53155e-05
-5.73701e-18
-5.76506e-21
-7.98344e-19
1.23663e-21
5.62294e-05
-5.70913e-18
-5.87651e-21
-8.17572e-19
1.23185e-21
5.71577e-05
-5.67103e-18
-5.98842e-21
-8.38113e-19
1.22317e-21
5.81008e-05
-5.63726e-18
-6.10387e-21
-8.58968e-19
1.21964e-21
5.90588e-05
-5.61929e-18
-6.22238e-21
-8.78874e-19
1.21245e-21
6.0032e-05
-5.60285e-18
-6.33258e-21
-8.97268e-19
1.19991e-21
6.10206e-05
-5.5747e-18
-6.41433e-21
-9.17451e-19
1.19496e-21
6.20248e-05
-5.52919e-18
-6.49078e-21
-9.36936e-19
1.1843e-21
6.30449e-05
-5.49048e-18
-6.56834e-21
-9.68858e-19
1.15633e-21
6.40812e-05
-5.44298e-18
-6.64499e-21
-1.00614e-18
1.12692e-21
6.51338e-05
-5.40938e-18
-6.75049e-21
-1.04584e-18
1.11861e-21
6.62031e-05
-5.39226e-18
-6.87798e-21
-1.07243e-18
1.11768e-21
6.72893e-05
-5.3673e-18
-6.99331e-21
-1.10671e-18
1.09362e-21
6.83927e-05
-5.3388e-18
-7.1215e-21
-1.1487e-18
1.0523e-21
6.95135e-05
-5.30459e-18
-7.25868e-21
-1.17937e-18
1.00965e-21
7.0652e-05
-5.27034e-18
-7.41418e-21
-1.21369e-18
9.56199e-22
7.18085e-05
-5.23909e-18
-7.58859e-21
-1.24951e-18
9.01097e-22
7.29832e-05
-5.20348e-18
-7.74622e-21
-1.29734e-18
8.40146e-22
7.41765e-05
-5.16388e-18
-7.9008e-21
-1.33084e-18
7.96993e-22
7.53887e-05
-5.16426e-18
-8.06784e-21
-1.34069e-18
7.42794e-22
7.66199e-05
-5.15393e-18
-8.21244e-21
-1.36454e-18
6.67305e-22
7.78706e-05
-5.12448e-18
-8.35405e-21
-1.37853e-18
6.01393e-22
7.9141e-05
-5.11638e-18
-8.49781e-21
-1.39903e-18
5.24324e-22
8.04315e-05
-5.08722e-18
-8.60624e-21
-1.40459e-18
4.42179e-22
8.17423e-05
-5.08269e-18
-8.72794e-21
-1.41352e-18
3.52789e-22
8.30737e-05
-5.06654e-18
-8.84614e-21
-1.42811e-18
2.73899e-22
8.44262e-05
-5.04534e-18
-8.96273e-21
-1.45902e-18
1.97154e-22
8.57999e-05
-5.03206e-18
-9.07016e-21
-1.46702e-18
1.57799e-22
8.71953e-05
-5.00446e-18
-9.16805e-21
-1.48795e-18
1.51509e-22
8.86127e-05
-4.97123e-18
-9.27042e-21
-1.49651e-18
1.44639e-22
9.00523e-05
-4.94251e-18
-9.36559e-21
-1.50393e-18
1.22615e-22
9.15147e-05
-4.92974e-18
-9.47299e-21
-1.5182e-18
9.95086e-23
9.3e-05
-4.89659e-18
-9.53608e-21
-1.51447e-18
1.09107e-22
9.45087e-05
-4.86319e-18
-9.58356e-21
-1.52688e-18
1.29327e-22
9.60412e-05
-4.83242e-18
-9.66438e-21
-1.52211e-18
1.61402e-22
9.75977e-05
-4.7975e-18
-9.74571e-21
-1.53638e-18
1.55561e-22
9.91787e-05
-4.77799e-18
-9.87349e-21
-1.55625e-18
1.81512e-22
0.000100785
-4.74609e-18
-9.97791e-21
-1.57264e-18
2.11759e-22
0.000102416
-4.71315e-18
-1.0103e-20
-1.58267e-18
2.28608e-22
0.000104072
-4.68544e-18
-1.02381e-20
-1.59833e-18
2.31424e-22
0.000105755
-4.64477e-18
-1.03906e-20
-1.59919e-18
2.27949e-22
0.000107464
-4.60829e-18
-1.05344e-20
-1.61884e-18
1.42665e-22
0.0001092
-4.57993e-18
-1.06634e-20
-1.62215e-18
5.48343e-23
0.000110964
-4.53216e-18
-1.07831e-20
-1.6499e-18
-7.57784e-23
0.000112754
-4.49948e-18
-1.09342e-20
-1.66862e-18
-1.86915e-22
0.000114573
-4.45624e-18
-1.10553e-20
-1.70377e-18
-3.02887e-22
0.000116421
-4.43632e-18
-1.10636e-20
-1.73915e-18
-3.80727e-22
0.000118297
-4.38834e-18
-1.10106e-20
-1.7683e-18
-4.45095e-22
0.000120203
-4.34533e-18
-1.10148e-20
-1.79982e-18
-4.27915e-22
0.000122139
-4.26848e-18
-1.0994e-20
-1.83452e-18
-3.32415e-22
0.000124105
-4.24048e-18
-1.10144e-20
-1.86544e-18
-1.88313e-22
0.000126102
-4.20563e-18
-1.09646e-20
-1.89853e-18
-9.05936e-23
0.00012813
-4.17214e-18
-1.08786e-20
-1.9121e-18
8.48141e-23
0.00013019
-4.12807e-18
-1.07864e-20
-1.94629e-18
2.06529e-22
0.000132282
-4.07569e-18
-1.07129e-20
-1.9917e-18
3.54777e-22
0.000134407
-4.02324e-18
-1.06951e-20
-2.02202e-18
4.54651e-22
0.000136565
-4.00606e-18
-1.06764e-20
-2.0572e-18
5.83289e-22
0.000138757
-3.95439e-18
-1.06299e-20
-2.09247e-18
5.96992e-22
0.000140983
-3.93036e-18
-1.07333e-20
-2.11813e-18
6.36864e-22
0.000143244
-3.90011e-18
-1.07482e-20
-2.15211e-18
5.40372e-22
0.000145541
-3.86479e-18
-1.07366e-20
-2.15656e-18
5.05042e-22
0.000147873
-3.83381e-18
-1.07579e-20
-2.18344e-18
2.97813e-22
0.000150241
-3.77932e-18
-1.08036e-20
-2.22751e-18
2.41326e-22
0.000152647
-3.74471e-18
-1.08215e-20
-2.25783e-18
3.16358e-22
0.00015509
-3.72669e-18
-1.07423e-20
-2.28193e-18
3.55665e-22
0.000157572
-3.67278e-18
-1.04286e-20
-2.30354e-18
4.25574e-22
0.000160091
-3.65328e-18
-1.03692e-20
-2.34125e-18
4.55411e-22
0.000162651
-3.6205e-18
-1.04152e-20
-2.36538e-18
5.15283e-22
0.00016525
-3.57325e-18
-1.05272e-20
-2.38904e-18
6.47457e-22
0.00016789
-3.54132e-18
-1.06888e-20
-2.39163e-18
7.44479e-22
0.000170571
-3.50165e-18
-1.07877e-20
-2.41586e-18
5.37675e-22
0.000173293
-3.48502e-18
-1.08456e-20
-2.43545e-18
3.00197e-22
0.000176058
-3.44229e-18
-1.08717e-20
-2.48022e-18
2.10491e-22
0.000178866
-3.4094e-18
-1.10387e-20
-2.49957e-18
1.72326e-23
0.000181718
-3.40463e-18
-1.12405e-20
-2.4783e-18
-2.45938e-22
0.000184614
-3.38317e-18
-1.12334e-20
-2.48191e-18
-6.19523e-22
0.000187556
-3.3775e-18
-1.1425e-20
-2.49674e-18
-8.34258e-22
0.000190543
-3.32823e-18
-1.1474e-20
-2.50985e-18
-1.14068e-21
0.000193576
-3.31058e-18
-1.1703e-20
-2.53822e-18
-1.45203e-21
0.000196657
-3.31773e-18
-1.19562e-20
-2.51473e-18
-1.54652e-21
0.000199785
-3.28755e-18
-1.20079e-20
-2.50672e-18
-1.70755e-21
0.000202962
-3.22466e-18
-1.20232e-20
-2.5141e-18
-1.98162e-21
0.000206189
-3.19554e-18
-1.21095e-20
-2.52275e-18
-2.40505e-21
0.000209465
-3.19004e-18
-1.227e-20
-2.49119e-18
-3.00174e-21
0.000212792
-3.13123e-18
-1.23665e-20
-2.46726e-18
-3.76139e-21
0.000216171
-3.127e-18
-1.26123e-20
-2.47773e-18
-4.49124e-21
0.000219603
-3.09535e-18
-1.25268e-20
-2.48434e-18
-5.39766e-21
0.000223087
-3.08157e-18
-1.27645e-20
-2.46649e-18
-6.52563e-21
0.000226626
-3.05307e-18
-1.31412e-20
-2.46481e-18
-7.58766e-21
0.000230219
-3.04827e-18
-1.38267e-20
-2.4722e-18
-8.51184e-21
0.000233868
-3.05105e-18
-1.44256e-20
-2.45072e-18
-9.54274e-21
0.000237573
-2.99524e-18
-1.46114e-20
-2.43609e-18
-1.03941e-20
0.000241336
-2.96339e-18
-1.54265e-20
-2.40072e-18
-1.11514e-20
0.000245157
-3.00049e-18
-1.6188e-20
-2.43614e-18
-1.20002e-20
0.000249037
-2.97494e-18
-1.63653e-20
-2.51806e-18
-1.2025e-20
0.000252977
-2.94658e-18
-1.59651e-20
-2.52542e-18
-1.18099e-20
0.000256978
-2.87517e-18
-1.5378e-20
-2.50129e-18
-1.23003e-20
0.00026104
-2.82363e-18
-1.56661e-20
-2.53504e-18
-1.31264e-20
0.000265165
-2.74643e-18
-1.58199e-20
-2.55212e-18
-1.40471e-20
0.000269354
-2.75253e-18
-1.58745e-20
-2.55759e-18
-1.4735e-20
0.000273607
-2.71223e-18
-1.59353e-20
-2.54409e-18
-1.5198e-20
0.000277926
-2.65146e-18
-1.61923e-20
-2.55642e-18
-1.629e-20
0.000282312
-2.64096e-18
-1.6243e-20
-2.6011e-18
-1.79128e-20
0.000286764
-2.5869e-18
-1.68655e-20
-2.60128e-18
-1.83131e-20
0.000291286
-2.59923e-18
-1.71302e-20
-2.54001e-18
-1.85273e-20
0.000295876
-2.59199e-18
-1.71595e-20
-2.52275e-18
-1.91326e-20
0.000300538
-2.54446e-18
-1.81325e-20
-2.54748e-18
-1.91341e-20
0.00030527
-2.52484e-18
-1.84709e-20
-2.46664e-18
-1.82903e-20
0.000310076
-2.56443e-18
-1.8401e-20
-2.43132e-18
-1.8719e-20
0.000314955
-2.52494e-18
-1.80336e-20
-2.44554e-18
-1.89108e-20
0.000319909
-2.47662e-18
-1.7654e-20
-2.43398e-18
-1.79278e-20
0.000324938
-2.45043e-18
-1.82353e-20
-2.39225e-18
-1.63134e-20
0.000330045
-2.40787e-18
-1.89663e-20
-2.40217e-18
-1.55123e-20
0.00033523
-2.42585e-18
-2.00302e-20
-2.38253e-18
-1.54313e-20
0.000340493
-2.29564e-18
-1.98107e-20
-2.3251e-18
-1.55216e-20
0.000345837
-2.28397e-18
-2.18149e-20
-2.30833e-18
-1.60116e-20
0.000351263
-2.2541e-18
-2.29315e-20
-2.27701e-18
-1.64934e-20
0.000356771
-2.2907e-18
-2.29318e-20
-2.18018e-18
-1.6542e-20
0.000362363
-2.2671e-18
-2.19235e-20
-2.17744e-18
-1.8163e-20
0.00036804
-2.21949e-18
-2.09926e-20
-2.16988e-18
-1.97949e-20
0.000373803
-2.21856e-18
-2.10284e-20
-2.15044e-18
-2.24079e-20
0.000379653
-2.15559e-18
-2.1193e-20
-2.2182e-18
-2.47895e-20
0.000385592
-2.18068e-18
-2.27345e-20
-2.15357e-18
-2.47027e-20
0.000391621
-2.10082e-18
-2.3318e-20
-2.12018e-18
-2.50639e-20
0.000397741
-2.07358e-18
-2.50622e-20
-2.11299e-18
-2.426e-20
0.000403954
-2.03746e-18
-2.52555e-20
-2.08486e-18
-2.5179e-20
0.00041026
-2.03468e-18
-2.64322e-20
-2.09544e-18
-2.65753e-20
0.00041666
-1.97265e-18
-2.73388e-20
-2.05632e-18
-2.71802e-20
0.000423157
-2.06216e-18
-3.03083e-20
-2.03628e-18
-2.53532e-20
0.000429752
-2.04694e-18
-2.91582e-20
-2.02145e-18
-2.27224e-20
0.000436445
-2.02486e-18
-2.74698e-20
-2.01343e-18
-2.11181e-20
0.000443238
-2.05993e-18
-2.68158e-20
-1.90037e-18
-2.16518e-20
0.000450132
-2.06337e-18
-2.54167e-20
-1.88686e-18
-2.55959e-20
0.000457129
-2.02247e-18
-2.22954e-20
-1.86764e-18
-2.7866e-20
0.00046423
-1.91562e-18
-1.86363e-20
-1.91545e-18
-3.01442e-20
0.000471436
-1.94115e-18
-1.99272e-20
-1.97624e-18
-3.27833e-20
0.000478748
-1.95532e-18
-1.9404e-20
-1.93185e-18
-3.33637e-20
0.000486169
-1.85702e-18
-2.01323e-20
-1.97865e-18
-3.32901e-20
0.000493698
-1.77674e-18
-2.09984e-20
-1.9187e-18
-3.33975e-20
0.000501338
-1.72551e-18
-2.09498e-20
-1.84513e-18
-3.56294e-20
0.000509089
-1.81353e-18
-2.29716e-20
-1.74496e-18
-3.48395e-20
0.000516953
-1.64125e-18
-1.63459e-20
-1.63184e-18
-3.0877e-20
0.000524932
-1.59724e-18
-1.19947e-20
-1.57492e-18
-2.63545e-20
0.000533025
-1.50622e-18
-7.15165e-21
-1.59419e-18
-2.21766e-20
0.000541235
-1.50654e-18
-4.96525e-21
-1.4912e-18
-1.6271e-20
0.000549563
-1.36019e-18
-2.0806e-21
-1.33264e-18
-1.70388e-20
0.000558009
-1.25263e-18
-5.58476e-21
-1.41964e-18
-2.11735e-20
0.000566576
-1.23747e-18
-1.23739e-20
-1.20298e-18
-1.79931e-20
0.000575263
-1.13737e-18
-1.66569e-20
-1.1911e-18
-2.60275e-20
0.000584072
-1.06197e-18
-2.03347e-20
-1.11125e-18
-3.11604e-20
0.000593004
-1.10124e-18
-2.0306e-20
-1.05754e-18
-3.59207e-20
0.000602059
-1.10556e-18
-1.40381e-20
-1.05589e-18
-4.23598e-20
0.000611238
-9.55103e-19
-1.50174e-20
-1.05772e-18
-4.74801e-20
0.000620543
-9.8294e-19
-1.76915e-20
-1.00162e-18
-4.3871e-20
0.000629973
-9.77572e-19
-1.65256e-20
-8.63612e-19
-3.38401e-20
0.000639528
-9.05554e-19
-1.51725e-20
-9.85782e-19
-3.34001e-20
0.00064921
-8.49451e-19
-1.97958e-20
-8.84933e-19
-2.16257e-20
0.000659019
-8.31985e-19
-2.49094e-20
-7.91897e-19
-7.27297e-21
0.000668953
-8.35413e-19
-1.86136e-20
-7.61306e-19
4.63157e-22
0.000679014
-6.89433e-19
-9.03701e-21
-7.44488e-19
6.3217e-21
0.0006892
-7.98787e-19
-9.30949e-21
-7.4982e-19
8.2152e-21
0.000699512
-7.91459e-19
-4.33655e-21
-7.64678e-19
1.52465e-20
0.000709948
-7.82413e-19
-4.71412e-21
-6.76792e-19
7.71488e-21
0.000720508
-7.41349e-19
2.81149e-22
-6.73938e-19
2.61668e-21
0.00073119
-7.65933e-19
7.72133e-21
-5.98812e-19
-6.938e-21
0.000741994
-6.23451e-19
1.82327e-20
-7.96329e-19
-2.37482e-20
0.000752916
-7.13508e-19
1.22819e-20
-7.67409e-19
-2.87891e-20
0.000763957
-7.12383e-19
6.68522e-21
-7.68545e-19
-4.01789e-20
0.000775114
1.06085e-20
-7.25718e-19
-3.85304e-20
-7.66369e-19
1.16096e-07
-5.10929e-22
6.89538e-22
3.5504e-07
8.14628e-22
3.8189e-21
6.04345e-07
2.25528e-21
6.99484e-21
8.64096e-07
3.68382e-21
1.0389e-20
1.13361e-06
5.18699e-21
1.41239e-20
1.41053e-06
6.6115e-21
1.76933e-20
1.69014e-06
7.84843e-21
2.12752e-20
1.96604e-06
9.32638e-21
2.42669e-20
2.23208e-06
1.06684e-20
2.72471e-20
2.48431e-06
1.22583e-20
3.00995e-20
2.72134e-06
1.28144e-20
3.33632e-20
2.94374e-06
1.37567e-20
3.58947e-20
3.15303e-06
1.47739e-20
3.79517e-20
3.35106e-06
1.51466e-20
4.0211e-20
3.53963e-06
1.58734e-20
4.24789e-20
3.72036e-06
1.64677e-20
4.51268e-20
3.89464e-06
1.73964e-20
4.68069e-20
4.06366e-06
1.79977e-20
4.79086e-20
4.2284e-06
1.97775e-20
5.0084e-20
4.3897e-06
2.05795e-20
5.13471e-20
4.54824e-06
2.25666e-20
5.28611e-20
4.70463e-06
2.40348e-20
5.43117e-20
4.85936e-06
2.52691e-20
5.54937e-20
5.01286e-06
2.56839e-20
5.64984e-20
5.16551e-06
2.5706e-20
5.7694e-20
5.31763e-06
2.68091e-20
5.844e-20
5.4695e-06
2.6606e-20
5.91664e-20
5.62137e-06
2.68744e-20
6.00912e-20
5.77346e-06
2.65741e-20
6.21345e-20
5.92597e-06
2.65948e-20
6.28842e-20
6.07909e-06
2.67449e-20
6.3235e-20
6.23296e-06
2.79802e-20
6.2362e-20
6.38774e-06
2.83204e-20
6.331e-20
6.54357e-06
2.98041e-20
6.43201e-20
6.70058e-06
3.06723e-20
6.58733e-20
6.85886e-06
3.12473e-20
6.87431e-20
7.01855e-06
3.2187e-20
7.00518e-20
7.17973e-06
3.16013e-20
7.20305e-20
7.34251e-06
3.24625e-20
7.24585e-20
7.50698e-06
3.28036e-20
7.37997e-20
7.67322e-06
3.53337e-20
7.38482e-20
7.84132e-06
3.54279e-20
7.50614e-20
8.01136e-06
3.24178e-20
7.80197e-20
8.18341e-06
3.35391e-20
7.88197e-20
8.35756e-06
3.40176e-20
7.97228e-20
8.53387e-06
3.56548e-20
8.17603e-20
8.71242e-06
3.62986e-20
8.1315e-20
8.89328e-06
3.61672e-20
8.41542e-20
9.07651e-06
3.61538e-20
8.74652e-20
9.26218e-06
3.28489e-20
9.03021e-20
9.45036e-06
3.22905e-20
9.04289e-20
9.64112e-06
2.95881e-20
9.02462e-20
9.83451e-06
2.9631e-20
9.06489e-20
1.00306e-05
2.67998e-20
9.40811e-20
1.02295e-05
2.66724e-20
9.47624e-20
1.04312e-05
2.76708e-20
9.79017e-20
1.06358e-05
2.77536e-20
9.97097e-20
1.08433e-05
2.85153e-20
1.00137e-19
1.10539e-05
2.79154e-20
1.03609e-19
1.12676e-05
2.62296e-20
1.03424e-19
1.14844e-05
2.7293e-20
1.03144e-19
1.17044e-05
2.73338e-20
1.02818e-19
1.19277e-05
2.52313e-20
1.06461e-19
1.21544e-05
2.39911e-20
1.0754e-19
1.23845e-05
1.81633e-20
1.07577e-19
1.2618e-05
1.84331e-20
1.07725e-19
1.28551e-05
1.71153e-20
1.08237e-19
1.30958e-05
1.63165e-20
1.0769e-19
1.33401e-05
1.51786e-20
1.08478e-19
1.35882e-05
1.6522e-20
1.07476e-19
1.38401e-05
1.64476e-20
1.08363e-19
1.40959e-05
1.86224e-20
1.05335e-19
1.43556e-05
1.84119e-20
1.05802e-19
1.46194e-05
1.97603e-20
1.06107e-19
1.48872e-05
1.9219e-20
1.07244e-19
1.51592e-05
1.52096e-20
1.10949e-19
1.54355e-05
1.48172e-20
1.11286e-19
1.5716e-05
1.19596e-20
1.12181e-19
1.60009e-05
1.72036e-20
1.15455e-19
1.62903e-05
1.76811e-20
1.13624e-19
1.65842e-05
1.8579e-20
1.10535e-19
1.68828e-05
1.53992e-20
1.10225e-19
1.7186e-05
1.38816e-20
1.0982e-19
1.7494e-05
1.46282e-20
1.09247e-19
1.78068e-05
1.25964e-20
1.07384e-19
1.81246e-05
1.48202e-20
1.03474e-19
1.84473e-05
1.73158e-20
1.06495e-19
1.87752e-05
1.72498e-20
1.08471e-19
1.91083e-05
1.63423e-20
1.07752e-19
1.94466e-05
1.27592e-20
1.13306e-19
1.97902e-05
1.41432e-20
1.1435e-19
2.01394e-05
1.11085e-20
1.18239e-19
2.0494e-05
9.30762e-21
1.17823e-19
2.08543e-05
9.14892e-21
1.1907e-19
2.12202e-05
3.78318e-21
1.19574e-19
2.1592e-05
1.34781e-21
1.17372e-19
2.19697e-05
1.43766e-21
1.1723e-19
2.23534e-05
-3.81173e-21
1.20457e-19
2.27432e-05
-1.00026e-21
1.19453e-19
2.31392e-05
-2.7286e-21
1.20941e-19
2.35415e-05
2.95039e-21
1.21846e-19
2.39501e-05
-3.60156e-21
1.21483e-19
2.43653e-05
-3.76874e-21
1.20855e-19
2.47871e-05
-1.30451e-22
1.26066e-19
2.52156e-05
-1.2916e-21
1.30889e-19
2.56509e-05
4.80766e-21
1.30582e-19
2.60931e-05
6.57823e-21
1.32218e-19
2.65424e-05
4.96086e-21
1.33458e-19
2.69989e-05
1.10927e-20
1.25828e-19
2.74626e-05
6.22652e-21
1.30451e-19
2.79337e-05
7.64028e-21
1.25886e-19
2.84123e-05
6.63188e-21
1.25506e-19
2.88985e-05
3.19868e-21
1.24712e-19
2.93925e-05
-3.15706e-21
1.28436e-19
2.98943e-05
-1.03231e-20
1.28542e-19
3.04042e-05
-5.69168e-21
1.27752e-19
3.09221e-05
-4.97142e-21
1.31294e-19
3.14483e-05
-8.03294e-21
1.27947e-19
3.19829e-05
-1.05387e-20
1.33565e-19
3.2526e-05
-1.46793e-20
1.35697e-19
3.30778e-05
-1.70111e-20
1.36956e-19
3.36384e-05
-6.54326e-21
1.39776e-19
3.42078e-05
-1.00276e-20
1.41865e-19
3.47864e-05
-9.32778e-21
1.45714e-19
3.53741e-05
-8.98332e-21
1.45392e-19
3.59712e-05
-7.25101e-21
1.46164e-19
3.65779e-05
-4.99061e-21
1.44629e-19
3.71941e-05
-4.43046e-21
1.47734e-19
3.78202e-05
-1.2526e-20
1.53037e-19
3.84563e-05
-1.52476e-20
1.48917e-19
3.91024e-05
-1.89546e-20
1.48141e-19
3.97589e-05
-2.12473e-20
1.46931e-19
4.04258e-05
-2.4414e-20
1.42509e-19
4.11033e-05
-3.36697e-20
1.44646e-19
4.17916e-05
-3.49765e-20
1.43081e-19
4.24908e-05
-3.80211e-20
1.44753e-19
4.32011e-05
-2.99844e-20
1.43929e-19
4.39227e-05
-2.38499e-20
1.44721e-19
4.46558e-05
-1.90819e-20
1.42509e-19
4.54006e-05
-1.75843e-20
1.33373e-19
4.61571e-05
-7.9783e-21
1.31207e-19
4.69257e-05
-1.56555e-20
1.29066e-19
4.77065e-05
-1.49253e-20
1.21483e-19
4.84997e-05
-1.69076e-20
1.18315e-19
4.93055e-05
-2.21204e-20
1.16958e-19
5.01241e-05
-2.83832e-20
1.18991e-19
5.09556e-05
-2.8199e-20
1.20496e-19
5.18004e-05
-3.31122e-20
1.30408e-19
5.26585e-05
-3.06994e-20
1.24553e-19
5.35303e-05
-3.69658e-20
1.21578e-19
5.44159e-05
-3.91179e-20
1.2258e-19
5.53155e-05
-4.15313e-20
1.1767e-19
5.62294e-05
-4.79627e-20
1.13188e-19
5.71577e-05
-5.09302e-20
1.16906e-19
5.81008e-05
-5.53023e-20
1.13079e-19
5.90588e-05
-6.16061e-20
1.11065e-19
6.0032e-05
-4.47176e-20
1.18982e-19
6.10206e-05
-4.30899e-20
1.08637e-19
6.20248e-05
-3.36625e-20
9.80729e-20
6.30449e-05
-3.45027e-20
9.26216e-20
6.40812e-05
-5.75695e-20
9.98316e-20
6.51338e-05
-7.71378e-20
1.01722e-19
6.62031e-05
-6.76629e-20
9.66267e-20
6.72893e-05
-7.15863e-20
9.33337e-20
6.83927e-05
-7.36652e-20
9.72777e-20
6.95135e-05
-8.53089e-20
9.58559e-20
7.0652e-05
-9.68083e-20
9.97161e-20
7.18085e-05
-8.18135e-20
9.67423e-20
7.29832e-05
-7.86227e-20
1.03614e-19
7.41765e-05
-8.45397e-20
9.74654e-20
7.53887e-05
-9.5444e-20
9.20864e-20
7.66199e-05
-1.03771e-19
9.24425e-20
7.78706e-05
-9.68107e-20
8.71489e-20
7.9141e-05
-8.97337e-20
8.01902e-20
8.04315e-05
-9.75937e-20
7.37169e-20
8.17423e-05
-1.11431e-19
7.72256e-20
8.30737e-05
-1.16648e-19
8.21365e-20
8.44262e-05
-1.10939e-19
7.90902e-20
8.57999e-05
-1.12089e-19
9.00441e-20
8.71953e-05
-1.13075e-19
8.91793e-20
8.86127e-05
-1.05344e-19
9.2994e-20
9.00523e-05
-1.12157e-19
8.72576e-20
9.15147e-05
-1.05122e-19
7.88937e-20
9.3e-05
-1.05334e-19
7.79244e-20
9.45087e-05
-1.36644e-19
7.24755e-20
9.60412e-05
-1.51522e-19
5.57958e-20
9.75977e-05
-1.83301e-19
6.27334e-20
9.91787e-05
-1.84324e-19
5.69471e-20
0.000100785
-1.91046e-19
4.90963e-20
0.000102416
-1.90541e-19
4.87535e-20
0.000104072
-1.98778e-19
5.29754e-20
0.000105755
-1.88654e-19
3.94388e-20
0.000107464
-1.87872e-19
3.87568e-20
0.0001092
-1.9399e-19
3.42453e-20
0.000110964
-1.97367e-19
3.68965e-20
0.000112754
-1.93368e-19
2.82996e-20
0.000114573
-1.51339e-19
1.5551e-20
0.000116421
-1.52086e-19
-3.08446e-21
0.000118297
-1.6178e-19
4.98877e-21
0.000120203
-1.457e-19
1.30019e-20
0.000122139
-1.25354e-19
1.82753e-20
0.000124105
-1.06953e-19
-3.46938e-21
0.000126102
-9.0844e-20
1.47088e-20
0.00012813
-9.28927e-20
5.86257e-22
0.00013019
-8.95293e-20
4.14155e-21
0.000132282
-8.90336e-20
-1.47086e-20
0.000134407
-7.5169e-20
3.04048e-21
0.000136565
-8.68977e-20
-1.97484e-20
0.000138757
-1.1992e-19
-7.36883e-23
0.000140983
-1.20963e-19
-2.60046e-20
0.000143244
-1.42512e-19
7.99119e-21
0.000145541
-1.83541e-19
-1.39716e-20
0.000147873
-2.26217e-19
-7.63505e-21
0.000150241
-2.17154e-19
-1.41392e-20
0.000152647
-2.0039e-19
-3.59266e-20
0.00015509
-1.64706e-19
-2.86844e-20
0.000157572
-1.94488e-19
-2.71656e-20
0.000160091
-2.17062e-19
-3.52815e-20
0.000162651
-2.22485e-19
-3.65987e-20
0.00016525
-2.08132e-19
-3.90917e-20
0.00016789
-1.86912e-19
-5.62096e-20
0.000170571
-1.63332e-19
-6.78263e-20
0.000173293
-1.64461e-19
-3.7484e-20
0.000176058
-1.64105e-19
-5.0436e-20
0.000178866
-1.49916e-19
-6.45483e-20
0.000181718
-1.26755e-19
-8.60825e-20
0.000184614
-1.56674e-19
-6.49035e-20
0.000187556
-1.48773e-19
-7.47789e-20
0.000190543
-1.55516e-19
-8.67348e-20
0.000193576
-1.61946e-19
-1.06968e-19
0.000196657
-1.68189e-19
-1.15645e-19
0.000199785
-1.73866e-19
-1.14668e-19
0.000202962
-1.56655e-19
-1.13029e-19
0.000206189
-1.67655e-19
-1.29101e-19
0.000209465
-1.80014e-19
-1.31607e-19
0.000212792
-1.65997e-19
-1.0792e-19
0.000216171
-1.37003e-19
-1.21059e-19
0.000219603
-1.63321e-19
-1.44447e-19
0.000223087
-1.98697e-19
-1.47298e-19
0.000226626
-2.4548e-19
-1.57291e-19
0.000230219
-2.67091e-19
-1.86056e-19
0.000233868
-2.67739e-19
-1.89135e-19
0.000237573
-3.06244e-19
-2.0902e-19
0.000241336
-2.80929e-19
-2.23512e-19
0.000245157
-2.91284e-19
-2.10898e-19
0.000249037
-2.55927e-19
-2.2233e-19
0.000252977
-2.66375e-19
-2.35651e-19
0.000256978
-3.37191e-19
-2.3119e-19
0.00026104
-3.22154e-19
-2.60506e-19
0.000265165
-2.69577e-19