/*--------------------------------*- C++ -*----------------------------------*\
| =========                 |                                                 |
| \\      /  F ield         | OpenFOAM: The Open Source CFD Toolbox           |
|  \\    /   O peration     | Version:  2012                                  |
|   \\  /    A nd           | Website:  www.openfoam.com                      |
|    \\/     M anipulation  |                                                 |
\*---------------------------------------------------------------------------*/
FoamFile
{
    version     2.0;
    format      ascii;
    class       volVectorField;
    location    "8000";
    object      U;
}
// * * * * * * * * * * * * * * * * * * * * * * * * * * * * * * * * * * * * * //

dimensions      [0 1 -1 0 0 0 0];


internalField   nonuniform List<vector> 
2560
(
(0.0160407 -9.94206e-16 -3.60278e-17)
(0.0160407 -3.09938e-18 7.80447e-32)
(0.0483517 -2.81154e-15 1.43153e-16)
(0.0483517 2.56141e-19 -5.86713e-20)
(0.0811241 -2.86323e-15 1.47581e-16)
(0.0811241 -2.04708e-18 -9.49128e-20)
(0.114329 -2.64483e-15 1.52407e-16)
(0.114329 -2.6009e-18 -1.56103e-19)
(0.147839 -2.62586e-15 1.56216e-16)
(0.147839 -3.34851e-18 -2.22821e-19)
(0.181316 -2.63513e-15 1.57789e-16)
(0.181316 -4.05613e-18 -2.91883e-19)
(0.214145 -2.63918e-15 1.55924e-16)
(0.214145 -4.74555e-18 -3.58893e-19)
(0.245532 -2.64016e-15 1.50201e-16)
(0.245532 -5.46994e-18 -4.19581e-19)
(0.274763 -2.64206e-15 1.41419e-16)
(0.274763 -6.10835e-18 -4.74391e-19)
(0.301427 -2.64417e-15 1.31091e-16)
(0.301427 -6.90977e-18 -5.23379e-19)
(0.325455 -2.64609e-15 1.20619e-16)
(0.325455 -7.81498e-18 -5.64839e-19)
(0.347007 -2.6476e-15 1.10879e-16)
(0.347007 -8.55026e-18 -6.02001e-19)
(0.366351 -2.6487e-15 1.02254e-16)
(0.366351 -9.16333e-18 -6.35005e-19)
(0.383779 -2.64961e-15 9.48182e-17)
(0.383779 -9.7081e-18 -6.33263e-19)
(0.399565 -2.65017e-15 8.84967e-17)
(0.399565 -1.03558e-17 -6.29094e-19)
(0.413947 -2.65076e-15 8.31588e-17)
(0.413947 -1.07879e-17 -6.24161e-19)
(0.427128 -2.65142e-15 7.86637e-17)
(0.427128 -1.12319e-17 -6.26887e-19)
(0.439277 -2.652e-15 7.48837e-17)
(0.439277 -1.18897e-17 -6.29421e-19)
(0.450534 -2.65309e-15 7.1707e-17)
(0.450534 -1.1928e-17 -6.31949e-19)
(0.461016 -2.65391e-15 6.90391e-17)
(0.461016 -1.22199e-17 -6.40935e-19)
(0.470821 -2.65396e-15 6.68048e-17)
(0.470821 -1.3034e-17 -6.44946e-19)
(0.48003 -2.65407e-15 6.49428e-17)
(0.48003 -1.35791e-17 -6.47309e-19)
(0.488711 -2.65445e-15 6.34002e-17)
(0.488711 -1.3896e-17 -6.53585e-19)
(0.496923 -2.65484e-15 6.21334e-17)
(0.496923 -1.44034e-17 -6.65045e-19)
(0.504716 -2.65487e-15 6.1107e-17)
(0.504716 -1.51914e-17 -6.81151e-19)
(0.512132 -2.65517e-15 6.02922e-17)
(0.512132 -1.5974e-17 -6.82953e-19)
(0.519209 -2.65548e-15 5.96651e-17)
(0.519209 -1.62999e-17 -6.83964e-19)
(0.525977 -2.65571e-15 5.92046e-17)
(0.525977 -1.65307e-17 -6.81412e-19)
(0.532466 -2.65583e-15 5.8894e-17)
(0.532466 -1.71165e-17 -6.85258e-19)
(0.538698 -2.65577e-15 5.87199e-17)
(0.538698 -1.8058e-17 -6.99913e-19)
(0.544696 -2.65568e-15 5.86701e-17)
(0.544696 -1.9071e-17 -7.18745e-19)
(0.550479 -2.6553e-15 5.8735e-17)
(0.550479 -2.00244e-17 -7.29057e-19)
(0.556064 -2.65511e-15 5.89062e-17)
(0.556064 -2.07651e-17 -7.31122e-19)
(0.561465 -2.65524e-15 5.91745e-17)
(0.561465 -2.13398e-17 -7.29667e-19)
(0.566696 -2.65526e-15 5.95338e-17)
(0.566696 -2.20042e-17 -7.29538e-19)
(0.571769 -2.65524e-15 5.99784e-17)
(0.571769 -2.28085e-17 -7.44072e-19)
(0.576695 -2.65519e-15 6.05025e-17)
(0.576695 -2.3506e-17 -7.65778e-19)
(0.581484 -2.65493e-15 6.11026e-17)
(0.581484 -2.40634e-17 -7.74739e-19)
(0.586144 -2.65474e-15 6.17735e-17)
(0.586144 -2.48496e-17 -7.83699e-19)
(0.590684 -2.65463e-15 6.25146e-17)
(0.590684 -2.57468e-17 -7.91155e-19)
(0.595111 -2.65466e-15 6.33211e-17)
(0.595111 -2.59428e-17 -7.95014e-19)
(0.599432 -2.65514e-15 6.41938e-17)
(0.599432 -2.5232e-17 -8.07605e-19)
(0.603653 -2.65583e-15 6.51256e-17)
(0.603653 -2.51503e-17 -8.23173e-19)
(0.60778 -2.65592e-15 6.61118e-17)
(0.60778 -2.54292e-17 -8.53158e-19)
(0.611817 -2.65622e-15 6.71567e-17)
(0.611817 -2.53321e-17 -8.76132e-19)
(0.61577 -2.65669e-15 6.82561e-17)
(0.61577 -2.53559e-17 -9.04498e-19)
(0.619643 -2.65704e-15 6.94115e-17)
(0.619643 -2.56778e-17 -9.14707e-19)
(0.623441 -2.65756e-15 7.06184e-17)
(0.623441 -2.59819e-17 -9.20109e-19)
(0.627166 -2.65769e-15 7.18784e-17)
(0.627166 -2.62969e-17 -9.48226e-19)
(0.630823 -2.65758e-15 7.31915e-17)
(0.630823 -2.68009e-17 -9.68474e-19)
(0.634414 -2.6572e-15 7.45504e-17)
(0.634414 -2.68529e-17 -9.88436e-19)
(0.637944 -2.6568e-15 7.59615e-17)
(0.637944 -2.74683e-17 -1.02198e-18)
(0.641414 -2.65639e-15 7.74192e-17)
(0.641414 -2.81068e-17 -1.04967e-18)
(0.644827 -2.65602e-15 7.89284e-17)
(0.644827 -2.87675e-17 -1.06877e-18)
(0.648186 -2.65548e-15 8.04845e-17)
(0.648186 -2.98101e-17 -1.06926e-18)
(0.651493 -2.65523e-15 8.20955e-17)
(0.651493 -2.98469e-17 -1.06973e-18)
(0.654751 -2.65537e-15 8.37566e-17)
(0.654751 -3.01592e-17 -1.10764e-18)
(0.657961 -2.65499e-15 8.54695e-17)
(0.657961 -3.12922e-17 -1.1543e-18)
(0.661125 -2.65466e-15 8.7238e-17)
(0.661125 -3.20997e-17 -1.17547e-18)
(0.664246 -2.65423e-15 8.9061e-17)
(0.664246 -3.29555e-17 -1.17227e-18)
(0.667324 -2.65333e-15 9.09368e-17)
(0.667324 -3.39019e-17 -1.18878e-18)
(0.670361 -2.65243e-15 9.28683e-17)
(0.670361 -3.45818e-17 -1.21874e-18)
(0.67336 -2.65187e-15 9.4854e-17)
(0.67336 -3.63054e-17 -1.26872e-18)
(0.676321 -2.6509e-15 9.689e-17)
(0.676321 -3.70779e-17 -1.2826e-18)
(0.679246 -2.65014e-15 9.89821e-17)
(0.679246 -3.79867e-17 -1.28243e-18)
(0.682136 -2.64951e-15 1.01122e-16)
(0.682136 -3.95981e-17 -1.32159e-18)
(0.684992 -2.64866e-15 1.03325e-16)
(0.684992 -4.05344e-17 -1.35581e-18)
(0.687815 -2.64845e-15 1.05584e-16)
(0.687815 -4.19698e-17 -1.38911e-18)
(0.690607 -2.648e-15 1.079e-16)
(0.690607 -4.3498e-17 -1.38147e-18)
(0.693369 -2.6473e-15 1.10272e-16)
(0.693369 -4.49217e-17 -1.36217e-18)
(0.696101 -2.64613e-15 1.12707e-16)
(0.696101 -4.63916e-17 -1.37986e-18)
(0.698805 -2.6452e-15 1.152e-16)
(0.698805 -4.82041e-17 -1.4176e-18)
(0.701481 -2.64407e-15 1.17754e-16)
(0.701481 -4.99322e-17 -1.44298e-18)
(0.704131 -2.64267e-15 1.20371e-16)
(0.704131 -5.16271e-17 -1.43632e-18)
(0.706754 -2.64178e-15 1.23055e-16)
(0.706754 -5.37552e-17 -1.42015e-18)
(0.709352 -2.64081e-15 1.25803e-16)
(0.709352 -5.58075e-17 -1.44363e-18)
(0.711926 -2.6391e-15 1.28613e-16)
(0.711926 -5.725e-17 -1.46845e-18)
(0.714477 -2.63829e-15 1.31494e-16)
(0.714477 -5.93776e-17 -1.49112e-18)
(0.717004 -2.63826e-15 1.34432e-16)
(0.717004 -6.1936e-17 -1.50428e-18)
(0.719509 -2.63742e-15 1.37446e-16)
(0.719509 -6.3593e-17 -1.48752e-18)
(0.721992 -2.63534e-15 1.40532e-16)
(0.721992 -6.58855e-17 -1.50471e-18)
(0.724454 -2.63366e-15 1.43689e-16)
(0.724454 -6.97983e-17 -1.61984e-18)
(0.726896 -2.63181e-15 1.46902e-16)
(0.726896 -7.18387e-17 -1.64488e-18)
(0.729317 -2.62838e-15 1.50192e-16)
(0.729317 -7.40162e-17 -1.58151e-18)
(0.731719 -2.62503e-15 1.53563e-16)
(0.731719 -7.88473e-17 -1.52314e-18)
(0.734102 -2.62246e-15 1.57006e-16)
(0.734102 -8.12328e-17 -1.53927e-18)
(0.736466 -2.61988e-15 1.60532e-16)
(0.736466 -8.38739e-17 -1.61692e-18)
(0.738813 -2.61691e-15 1.64148e-16)
(0.738813 -8.75855e-17 -1.70079e-18)
(0.741141 -2.61413e-15 1.67847e-16)
(0.741141 -8.94443e-17 -1.66805e-18)
(0.743453 -2.61162e-15 1.71632e-16)
(0.743453 -9.27579e-17 -1.67263e-18)
(0.745748 -2.60799e-15 1.75499e-16)
(0.745748 -9.71146e-17 -1.73851e-18)
(0.748026 -2.60467e-15 1.7947e-16)
(0.748026 -1.00591e-16 -1.76048e-18)
(0.750288 -2.60201e-15 1.8353e-16)
(0.750288 -1.03438e-16 -1.7307e-18)
(0.752535 -2.60057e-15 1.8768e-16)
(0.752535 -1.04986e-16 -1.83579e-18)
(0.754767 -2.60118e-15 1.91914e-16)
(0.754767 -1.06718e-16 -1.99922e-18)
(0.756983 -2.60097e-15 1.96217e-16)
(0.756983 -1.07675e-16 -2.05341e-18)
(0.759185 -2.59864e-15 2.00597e-16)
(0.759185 -1.08211e-16 -1.96856e-18)
(0.761373 -2.59522e-15 2.05077e-16)
(0.761373 -1.10247e-16 -2.00904e-18)
(0.763547 -2.59304e-15 2.09646e-16)
(0.763547 -1.11769e-16 -2.27004e-18)
(0.765707 -2.59193e-15 2.143e-16)
(0.765707 -1.12422e-16 -2.46332e-18)
(0.767853 -2.58867e-15 2.19037e-16)
(0.767853 -1.13416e-16 -2.55585e-18)
(0.769987 -2.58335e-15 2.239e-16)
(0.769987 -1.17172e-16 -2.56332e-18)
(0.772107 -2.57934e-15 2.2888e-16)
(0.772107 -1.21104e-16 -2.51934e-18)
(0.774215 -2.57623e-15 2.33967e-16)
(0.774215 -1.22878e-16 -2.46663e-18)
(0.776311 -2.57358e-15 2.39187e-16)
(0.776311 -1.27144e-16 -2.45385e-18)
(0.778394 -2.57142e-15 2.44525e-16)
(0.778394 -1.30254e-16 -2.45408e-18)
(0.780466 -2.56793e-15 2.50006e-16)
(0.780466 -1.31879e-16 -2.47494e-18)
(0.782525 -2.56389e-15 2.55617e-16)
(0.782525 -1.35682e-16 -2.60908e-18)
(0.784574 -2.5597e-15 2.61364e-16)
(0.784574 -1.38266e-16 -2.6597e-18)
(0.786611 -2.55616e-15 2.67272e-16)
(0.786611 -1.40187e-16 -2.58917e-18)
(0.788637 -2.5523e-15 2.73301e-16)
(0.788637 -1.42669e-16 -2.53368e-18)
(0.790653 -2.54778e-15 2.7949e-16)
(0.790653 -1.45323e-16 -2.65369e-18)
(0.792657 -2.54637e-15 2.85829e-16)
(0.792657 -1.48428e-16 -2.79029e-18)
(0.794651 -2.54036e-15 2.92302e-16)
(0.794651 -1.492e-16 -2.9323e-18)
(0.796635 -2.53595e-15 2.98893e-16)
(0.796635 -1.51816e-16 -3.01443e-18)
(0.798609 -2.53102e-15 3.05616e-16)
(0.798609 -1.56539e-16 -3.12901e-18)
(0.800573 -2.52568e-15 3.12523e-16)
(0.800573 -1.61927e-16 -3.07584e-18)
(0.802527 -2.52064e-15 3.19595e-16)
(0.802527 -1.67871e-16 -2.89865e-18)
(0.804471 -2.51628e-15 3.26822e-16)
(0.804471 -1.7224e-16 -2.9705e-18)
(0.806406 -2.50876e-15 3.34219e-16)
(0.806406 -1.79184e-16 -3.14509e-18)
(0.808332 -2.50106e-15 3.41788e-16)
(0.808332 -1.85814e-16 -3.24886e-18)
(0.810248 -2.49334e-15 3.49547e-16)
(0.810248 -1.91936e-16 -3.31469e-18)
(0.812156 -2.48756e-15 3.57524e-16)
(0.812156 -1.9805e-16 -3.33088e-18)
(0.814054 -2.48025e-15 3.6565e-16)
(0.814054 -2.0508e-16 -3.36952e-18)
(0.815944 -2.47334e-15 3.73965e-16)
(0.815944 -2.12009e-16 -3.4215e-18)
(0.817825 -2.46716e-15 3.82451e-16)
(0.817825 -2.18888e-16 -3.36347e-18)
(0.819698 -2.45919e-15 3.91144e-16)
(0.819698 -2.27578e-16 -3.42193e-18)
(0.821562 -2.45408e-15 4.00042e-16)
(0.821562 -2.3413e-16 -3.63155e-18)
(0.823418 -2.44531e-15 4.09135e-16)
(0.823418 -2.39779e-16 -4.02823e-18)
(0.825266 -2.43883e-15 4.1841e-16)
(0.825266 -2.41874e-16 -4.13556e-18)
(0.827105 -2.43491e-15 4.27835e-16)
(0.827105 -2.44016e-16 -3.91893e-18)
(0.828937 -2.43355e-15 4.34083e-16)
(0.828937 -2.48508e-16 -3.90488e-18)
(0.830761 -2.42902e-15 4.37164e-16)
(0.830761 -2.52102e-16 -4.72446e-18)
(0.832578 -2.42578e-15 4.39583e-16)
(0.832578 -2.50979e-16 -5.1631e-18)
(0.834386 -2.42198e-15 4.42088e-16)
(0.834386 -2.49851e-16 -5.27877e-18)
(0.836188 -2.41723e-15 4.44602e-16)
(0.836188 -2.53685e-16 -5.5315e-18)
(0.837981 -2.41257e-15 4.46615e-16)
(0.837981 -2.57104e-16 -5.87098e-18)
(0.839768 -2.41076e-15 4.48933e-16)
(0.839768 -2.57488e-16 -5.81366e-18)
(0.841547 -2.40635e-15 4.5109e-16)
(0.841547 -2.59315e-16 -5.82385e-18)
(0.843319 -2.39519e-15 4.5303e-16)
(0.843319 -2.65816e-16 -6.2443e-18)
(0.845084 -2.38863e-15 4.55237e-16)
(0.845084 -2.69383e-16 -6.47633e-18)
(0.846842 -2.38358e-15 4.57487e-16)
(0.846842 -2.70165e-16 -6.13837e-18)
(0.848593 -2.37472e-15 4.59481e-16)
(0.848593 -2.75437e-16 -6.30206e-18)
(0.850338 -2.3654e-15 4.61416e-16)
(0.850338 -2.80276e-16 -6.52051e-18)
(0.852075 -2.35781e-15 4.63457e-16)
(0.852075 -2.82046e-16 -6.38041e-18)
(0.853806 -2.3518e-15 4.65659e-16)
(0.853806 -2.88997e-16 -6.47682e-18)
(0.855531 -2.34279e-15 4.67505e-16)
(0.855531 -2.94097e-16 -6.71643e-18)
(0.857249 -2.33332e-15 4.69536e-16)
(0.857249 -2.98105e-16 -6.89651e-18)
(0.85896 -2.32635e-15 4.7166e-16)
(0.85896 -3.02242e-16 -7.27903e-18)
(0.860666 -2.31922e-15 4.7337e-16)
(0.860666 -3.07293e-16 -7.54985e-18)
(0.862365 -2.31104e-15 4.74996e-16)
(0.862365 -3.12418e-16 -7.60755e-18)
(0.864057 -2.30119e-15 4.76493e-16)
(0.864057 -3.14604e-16 -7.49893e-18)
(0.865744 -2.2892e-15 4.78018e-16)
(0.865744 -3.22933e-16 -7.51131e-18)
(0.867424 -2.27591e-15 4.79365e-16)
(0.867424 -3.31231e-16 -7.92308e-18)
(0.869099 -2.26184e-15 4.81354e-16)
(0.869099 -3.3855e-16 -8.51771e-18)
(0.870767 -2.25129e-15 4.82965e-16)
(0.870767 -3.49576e-16 -9.18626e-18)
(0.87243 -2.24433e-15 4.84027e-16)
(0.87243 -3.56003e-16 -8.91704e-18)
(0.874086 -2.23558e-15 4.85378e-16)
(0.874086 -3.60205e-16 -8.12312e-18)
(0.875737 -2.22104e-15 4.86284e-16)
(0.875737 -3.70226e-16 -8.85399e-18)
(0.877382 -2.20377e-15 4.85315e-16)
(0.877382 -3.82734e-16 -1.01067e-17)
(0.879022 -2.18602e-15 4.84834e-16)
(0.879022 -3.94044e-16 -9.65689e-18)
(0.880656 -2.17012e-15 4.84408e-16)
(0.880656 -4.09356e-16 -8.96738e-18)
(0.882284 -2.15964e-15 4.84854e-16)
(0.882284 -4.23973e-16 -9.09832e-18)
(0.883907 -2.15183e-15 4.84689e-16)
(0.883907 -4.35788e-16 -9.39661e-18)
(0.885524 -2.14241e-15 4.83781e-16)
(0.885524 -4.50819e-16 -9.4658e-18)
(0.887136 -2.12844e-15 4.83422e-16)
(0.887136 -4.66423e-16 -9.60377e-18)
(0.888743 -2.11532e-15 4.82876e-16)
(0.888743 -4.7804e-16 -9.46728e-18)
(0.890344 -2.10236e-15 4.82448e-16)
(0.890344 -4.92271e-16 -9.18302e-18)
(0.89194 -2.08787e-15 4.82854e-16)
(0.89194 -5.11008e-16 -8.95494e-18)
(0.893531 -2.07282e-15 4.83595e-16)
(0.893531 -5.25879e-16 -7.45238e-18)
(0.895116 -2.05786e-15 4.8535e-16)
(0.895116 -5.34846e-16 -6.76533e-18)
(0.896697 -2.06256e-15 4.87881e-16)
(0.896697 -5.42405e-16 -8.11855e-18)
(0.898272 -2.05615e-15 4.89013e-16)
(0.898272 -5.4896e-16 -8.29585e-18)
(0.899842 -2.04845e-15 4.8969e-16)
(0.899842 -5.54947e-16 -8.19769e-18)
(0.901407 -2.04018e-15 4.91296e-16)
(0.901407 -5.61578e-16 -8.43051e-18)
(0.902968 -2.0346e-15 4.91726e-16)
(0.902968 -5.62922e-16 -8.73782e-18)
(0.904523 -2.02975e-15 4.93211e-16)
(0.904523 -5.68979e-16 -9.15906e-18)
(0.906073 -2.02251e-15 4.93425e-16)
(0.906073 -5.78602e-16 -9.10156e-18)
(0.907619 -2.01521e-15 4.9392e-16)
(0.907619 -5.83112e-16 -7.35009e-18)
(0.90916 -2.00757e-15 4.9543e-16)
(0.90916 -5.90809e-16 -7.19439e-18)
(0.910696 -1.99505e-15 4.95905e-16)
(0.910696 -5.977e-16 -7.52238e-18)
(0.912227 -1.98261e-15 4.95958e-16)
(0.912227 -6.0063e-16 -8.39946e-18)
(0.913753 -1.97476e-15 4.95584e-16)
(0.913753 -6.04939e-16 -8.76721e-18)
(0.915275 -1.96533e-15 4.95879e-16)
(0.915275 -6.0529e-16 -8.38196e-18)
(0.916792 -1.95181e-15 4.94826e-16)
(0.916792 -6.08226e-16 -9.58239e-18)
(0.918305 -1.93859e-15 4.93012e-16)
(0.918305 -6.09565e-16 -1.01339e-17)
(0.919813 -1.92642e-15 4.91092e-16)
(0.919813 -6.10904e-16 -1.06527e-17)
(0.921316 -1.91467e-15 4.88973e-16)
(0.921316 -6.19368e-16 -1.13253e-17)
(0.922815 -1.90514e-15 4.87075e-16)
(0.922815 -6.25396e-16 -1.14513e-17)
(0.92431 -1.89239e-15 4.8411e-16)
(0.92431 -6.30361e-16 -1.15875e-17)
(0.9258 -1.87905e-15 4.80658e-16)
(0.9258 -6.36684e-16 -1.2812e-17)
(0.927285 -1.86725e-15 4.76788e-16)
(0.927285 -6.40172e-16 -1.31992e-17)
(0.928766 -1.85083e-15 4.73021e-16)
(0.928766 -6.43532e-16 -1.28631e-17)
(0.930243 -1.83668e-15 4.70576e-16)
(0.930243 -6.46423e-16 -1.20295e-17)
(0.931715 -1.82281e-15 4.6712e-16)
(0.931715 -6.53524e-16 -1.4658e-17)
(0.933184 -1.8063e-15 4.60865e-16)
(0.933184 -6.68634e-16 -1.62073e-17)
(0.934647 -1.79125e-15 4.56234e-16)
(0.934647 -6.72872e-16 -1.32757e-17)
(0.936107 -1.77789e-15 4.53765e-16)
(0.936107 -6.83829e-16 -1.11469e-17)
(0.937562 -1.76509e-15 4.50255e-16)
(0.937562 -7.05701e-16 -1.40272e-17)
(0.939013 -1.74791e-15 4.43192e-16)
(0.939013 -7.13007e-16 -1.50527e-17)
(0.94046 -1.72254e-15 4.37729e-16)
(0.94046 -7.24969e-16 -1.28971e-17)
(0.941902 -1.69328e-15 4.31747e-16)
(0.941902 -7.39567e-16 -1.22627e-17)
(0.943341 -1.6888e-15 4.28475e-16)
(0.943341 -7.52953e-16 -1.39088e-17)
(0.944775 -1.67561e-15 4.22437e-16)
(0.944775 -7.63898e-16 -1.39681e-17)
(0.946205 -1.66043e-15 4.17252e-16)
(0.946205 -7.71273e-16 -1.28381e-17)
(0.947631 -1.63732e-15 4.12614e-16)
(0.947631 -7.86374e-16 -1.29958e-17)
(0.949053 -1.61956e-15 4.07097e-16)
(0.949053 -8.03333e-16 -1.47589e-17)
(0.950471 -1.60654e-15 3.9971e-16)
(0.950471 -8.16073e-16 -1.57248e-17)
(0.951885 -1.59177e-15 3.94525e-16)
(0.951885 -8.2977e-16 -1.54723e-17)
(0.953295 -1.57698e-15 3.8948e-16)
(0.953295 -8.42173e-16 -1.34507e-17)
(0.954701 -1.56499e-15 3.85998e-16)
(0.954701 -8.51327e-16 -1.3697e-17)
(0.956103 -1.55341e-15 3.81261e-16)
(0.956103 -8.65149e-16 -1.79245e-17)
(0.957501 -1.54373e-15 3.73445e-16)
(0.957501 -8.70366e-16 -9.71059e-18)
(0.958894 -1.52159e-15 3.67017e-16)
(0.958894 -8.81604e-16 6.09214e-19)
(0.960284 -1.50565e-15 3.60665e-16)
(0.960284 -8.96509e-16 1.13845e-17)
(0.96167 -1.49379e-15 3.56352e-16)
(0.96167 -9.04888e-16 1.76899e-17)
(0.963052 -1.47838e-15 3.53576e-16)
(0.963052 -9.17523e-16 2.31516e-17)
(0.96443 -1.46532e-15 3.465e-16)
(0.96443 -9.33513e-16 3.54576e-17)
(0.965804 -1.45512e-15 3.4004e-16)
(0.965804 -9.39373e-16 4.69121e-17)
(0.967174 -1.43959e-15 3.35107e-16)
(0.967174 -9.46486e-16 5.78376e-17)
(0.968541 -1.4227e-15 3.27066e-16)
(0.968541 -9.61224e-16 7.45739e-17)
(0.969903 -1.40869e-15 3.19308e-16)
(0.969903 -9.63934e-16 9.38128e-17)
(0.971262 -1.3974e-15 3.11018e-16)
(0.971262 -9.65328e-16 1.09554e-16)
(0.972616 -1.38403e-15 3.07603e-16)
(0.972616 -9.83581e-16 1.22969e-16)
(0.973967 -1.37136e-15 3.04042e-16)
(0.973967 -1.00007e-15 1.39894e-16)
(0.975314 -1.36246e-15 2.99428e-16)
(0.975314 -9.94138e-16 1.58221e-16)
(0.976656 -1.3563e-15 2.941e-16)
(0.976656 -9.92194e-16 1.73715e-16)
(0.977995 -1.35183e-15 2.91799e-16)
(0.977995 -9.96447e-16 1.90613e-16)
(0.979331 -1.34156e-15 2.94697e-16)
(0.979331 -9.99127e-16 2.08495e-16)
(0.980662 -1.32801e-15 2.94519e-16)
(0.980662 -1.00927e-15 2.26881e-16)
(0.981989 -1.32729e-15 2.91078e-16)
(0.981989 -1.01705e-15 2.47345e-16)
(0.983313 -1.32137e-15 2.882e-16)
(0.983313 -1.00151e-15 2.66726e-16)
(0.984632 -1.29999e-15 2.89472e-16)
(0.984632 -9.97155e-16 2.87031e-16)
(0.985948 -1.28518e-15 2.90279e-16)
(0.985948 -1.0142e-15 3.09301e-16)
(0.987259 -1.2782e-15 2.88671e-16)
(0.987259 -1.00274e-15 3.339e-16)
(0.988567 -1.26304e-15 2.93292e-16)
(0.988567 -9.88798e-16 3.53662e-16)
(0.989871 -1.25124e-15 2.94842e-16)
(0.989871 -9.90145e-16 3.74866e-16)
(0.99117 -1.24354e-15 2.97587e-16)
(0.99117 -9.93166e-16 3.90252e-16)
(0.992466 -1.23619e-15 2.9929e-16)
(0.992466 -9.9376e-16 3.8956e-16)
(0.993758 -1.22706e-15 2.97674e-16)
(0.993758 -9.82535e-16 3.85757e-16)
(0.995046 -1.21976e-15 2.97092e-16)
(0.995046 -9.87164e-16 3.79361e-16)
(0.996329 -1.22054e-15 2.97016e-16)
(0.996329 -9.89491e-16 3.72108e-16)
(0.997609 -1.20601e-15 3.02091e-16)
(0.997609 -9.75684e-16 3.64311e-16)
(0.998885 -1.19415e-15 3.09945e-16)
(0.998885 -9.6564e-16 3.63375e-16)
(1.00016 -1.19434e-15 3.07742e-16)
(1.00016 -9.62624e-16 3.63795e-16)
(1.00142 -1.19526e-15 3.07853e-16)
(1.00142 -9.86989e-16 3.60191e-16)
(1.00269 -1.18489e-15 2.96554e-16)
(1.00269 -1.01332e-15 3.60147e-16)
(1.00395 -1.16316e-15 3.0444e-16)
(1.00395 -1.00874e-15 3.51863e-16)
(1.0052 -1.13965e-15 3.14893e-16)
(1.0052 -1.00667e-15 3.42572e-16)
(1.00645 -1.11309e-15 3.32072e-16)
(1.00645 -1.01958e-15 3.33958e-16)
(1.0077 -1.09812e-15 3.28556e-16)
(1.0077 -1.01854e-15 3.37562e-16)
(1.00894 -1.09308e-15 3.30644e-16)
(1.00894 -1.0209e-15 3.39977e-16)
(1.01017 -1.0735e-15 3.41966e-16)
(1.01017 -1.02067e-15 3.39853e-16)
(1.01141 -1.05821e-15 3.46959e-16)
(1.01141 -1.02868e-15 3.48155e-16)
(1.01263 -1.04637e-15 3.64503e-16)
(1.01263 -1.04179e-15 3.59227e-16)
(1.01386 -1.03651e-15 3.57846e-16)
(1.01386 -1.03236e-15 3.757e-16)
(1.01508 -1.03928e-15 3.54711e-16)
(1.01508 -1.01379e-15 3.74399e-16)
(1.01629 -1.0273e-15 3.67762e-16)
(1.01629 -1.01089e-15 3.77069e-16)
(1.0175 -1.01398e-15 3.63082e-16)
(1.0175 -1.00083e-15 3.90407e-16)
(1.0187 -1.01634e-15 3.4838e-16)
(1.0187 -9.83637e-16 3.96012e-16)
(1.0199 -1.01813e-15 3.58778e-16)
(1.0199 -9.70718e-16 3.94058e-16)
(1.0211 -1.00092e-15 3.60955e-16)
(1.0211 -9.76127e-16 3.89967e-16)
(1.02228 -9.84632e-16 3.59445e-16)
(1.02228 -9.72532e-16 3.7918e-16)
(1.02347 -9.74597e-16 3.49391e-16)
(1.02347 -9.54062e-16 3.79033e-16)
(1.02465 -9.67239e-16 3.40786e-16)
(1.02465 -9.55916e-16 3.73971e-16)
(1.02582 -9.44354e-16 3.49288e-16)
(1.02582 -9.44464e-16 3.90135e-16)
(1.02699 -9.16622e-16 3.42277e-16)
(1.02699 -9.27364e-16 3.881e-16)
(1.02815 -9.05904e-16 3.39101e-16)
(1.02815 -9.19863e-16 3.85383e-16)
(1.0293 -9.05985e-16 3.41386e-16)
(1.0293 -8.90462e-16 3.75039e-16)
(1.03045 -9.1141e-16 3.4291e-16)
(1.03045 -8.60843e-16 3.68643e-16)
(1.03159 -8.97013e-16 3.42664e-16)
(1.03159 -8.72353e-16 3.72064e-16)
(1.03273 -8.87331e-16 3.41025e-16)
(1.03273 -8.71742e-16 3.60344e-16)
(1.03386 -8.76929e-16 3.36526e-16)
(1.03386 -8.87452e-16 3.12739e-16)
(1.03498 -8.69582e-16 3.23951e-16)
(1.03498 -8.94086e-16 2.77968e-16)
(1.0361 -8.56279e-16 3.24165e-16)
(1.0361 -8.49779e-16 2.72682e-16)
(1.03721 -8.31195e-16 3.26906e-16)
(1.03721 -8.43427e-16 2.7029e-16)
(1.03831 -8.23006e-16 3.20968e-16)
(1.03831 -8.45937e-16 2.86799e-16)
(1.03941 -8.13859e-16 3.11779e-16)
(1.03941 -8.37969e-16 2.70788e-16)
(1.04049 -8.01854e-16 3.06248e-16)
(1.04049 -8.27943e-16 2.71005e-16)
(1.04157 -8.1924e-16 2.79562e-16)
(1.04157 -8.12475e-16 2.78326e-16)
(1.04264 -8.18919e-16 2.77295e-16)
(1.04264 -8.0897e-16 2.61096e-16)
(1.0437 -8.11336e-16 2.81729e-16)
(1.0437 -8.10798e-16 2.51215e-16)
(1.04476 -8.26561e-16 2.55835e-16)
(1.04476 -7.88996e-16 2.66718e-16)
(1.0458 -8.27594e-16 2.45648e-16)
(1.0458 -7.55944e-16 2.46082e-16)
(1.04684 -8.10726e-16 2.58679e-16)
(1.04684 -7.38465e-16 2.31964e-16)
(1.04786 -7.85935e-16 2.62903e-16)
(1.04786 -7.55143e-16 2.40175e-16)
(1.04887 -7.81413e-16 2.60183e-16)
(1.04887 -7.93041e-16 2.33327e-16)
(1.04988 -7.7442e-16 2.58343e-16)
(1.04988 -7.76794e-16 2.31761e-16)
(1.05087 -7.62207e-16 2.51147e-16)
(1.05087 -7.99424e-16 1.95822e-16)
(1.05185 -7.33989e-16 1.95539e-16)
(1.05185 -7.8485e-16 1.85928e-16)
(1.05282 -6.98492e-16 1.88035e-16)
(1.05282 -7.5337e-16 1.87127e-16)
(1.05377 -7.49271e-16 1.39485e-16)
(1.05377 -7.22001e-16 2.01916e-16)
(1.05471 -6.88666e-16 1.41726e-16)
(1.05471 -6.6716e-16 2.09526e-16)
(1.05564 -6.46586e-16 1.59002e-16)
(1.05564 -6.39656e-16 2.08937e-16)
(1.05655 -6.23418e-16 1.65886e-16)
(1.05655 -6.34132e-16 1.65268e-16)
(1.05745 -6.04062e-16 1.52136e-16)
(1.05745 -6.15784e-16 1.66975e-16)
(1.05833 -5.80772e-16 1.64621e-16)
(1.05833 -5.8492e-16 2.00711e-16)
(1.0592 -5.20609e-16 1.75378e-16)
(1.0592 -5.87506e-16 1.34437e-16)
(1.06004 -4.92099e-16 1.52486e-16)
(1.06004 -5.15056e-16 1.41472e-16)
(1.06087 -4.76622e-16 1.74644e-16)
(1.06087 -4.98222e-16 1.36127e-16)
(1.06168 -4.31686e-16 2.02199e-16)
(1.06168 -4.40229e-16 1.27205e-16)
(1.06246 -4.29064e-16 1.73536e-16)
(1.06246 -4.32194e-16 1.55949e-16)
(1.06323 -4.46733e-16 1.23741e-16)
(1.06323 -4.25603e-16 1.56812e-16)
(1.06397 -4.09843e-16 1.50071e-16)
(1.06397 -4.19809e-16 1.46603e-16)
(1.06468 -3.86097e-16 1.58403e-16)
(1.06468 -4.12375e-16 1.51637e-16)
(1.06537 -3.9348e-16 1.31985e-16)
(1.06537 -3.72314e-16 1.53252e-16)
(1.06603 -3.78889e-16 1.54476e-16)
(1.06603 -3.80838e-16 7.66789e-17)
(1.06666 -3.56079e-16 1.56872e-16)
(1.06666 -3.78703e-16 1.07601e-16)
(1.06725 -3.38927e-16 1.26182e-16)
(1.06725 -3.26766e-16 1.33298e-16)
(1.06781 -3.28708e-16 9.80088e-17)
(1.06781 -3.0802e-16 1.27608e-16)
(1.06834 -3.06297e-16 1.41222e-16)
(1.06834 -3.00672e-16 1.49987e-16)
(1.06882 -2.93514e-16 1.28571e-16)
(1.06882 -3.17783e-16 1.24613e-16)
(1.06927 -3.19161e-16 1.06962e-16)
(1.06927 -3.01118e-16 8.93863e-17)
(1.06967 -3.2014e-16 8.83431e-17)
(1.06967 -2.81281e-16 1.34291e-16)
(1.07002 -3.03531e-16 9.19554e-17)
(1.07002 -2.84183e-16 1.52904e-16)
(1.07032 -3.00977e-16 7.646e-17)
(1.07032 -2.55532e-16 2.08522e-16)
(1.07056 -2.91735e-16 1.25683e-16)
(1.07056 -3.22142e-16 2.05711e-16)
(1.07075 -2.61807e-16 1.47151e-16)
(1.07075 -3.09866e-16 2.46575e-16)
(1.07088 -2.87275e-16 1.22498e-16)
(1.07088 -3.41139e-16 2.27001e-16)
(1.07095 -2.86877e-16 1.43145e-16)
(1.07095 -2.90338e-16 2.00849e-16)
(0.0160407 -6.68461e-19 -5.0021e-18)
(0.0160407 -1.88691e-19 1.80023e-16)
(0.0483517 8.44723e-19 -1.13298e-16)
(0.0483517 1.34698e-18 5.96064e-16)
(0.0811241 6.91815e-19 -1.16415e-16)
(0.0811241 2.18792e-18 6.12536e-16)
(0.114329 1.26129e-18 -1.19306e-16)
(0.114329 3.51724e-18 6.27851e-16)
(0.147839 1.85409e-18 -1.214e-16)
(0.147839 4.95657e-18 6.39009e-16)
(0.181316 2.47167e-18 -1.21763e-16)
(0.181316 6.44623e-18 6.41097e-16)
(0.214145 3.04683e-18 -1.19464e-16)
(0.214145 7.89385e-18 6.29208e-16)
(0.245532 3.5846e-18 -1.14221e-16)
(0.245532 9.31815e-18 6.01846e-16)
(0.274763 4.14848e-18 -1.06691e-16)
(0.274763 1.03585e-17 5.6245e-16)
(0.301427 4.67712e-18 -9.80533e-17)
(0.301427 1.15281e-17 5.17221e-16)
(0.325455 4.99793e-18 -8.93744e-17)
(0.325455 1.27743e-17 4.71781e-16)
(0.347007 5.26828e-18 -8.13129e-17)
(0.347007 1.38217e-17 4.29571e-16)
(0.366351 5.64367e-18 -7.41414e-17)
(0.366351 1.47618e-17 3.92043e-16)
(0.383779 5.87062e-18 -6.79e-17)
(0.383779 1.55949e-17 3.5942e-16)
(0.399565 6.11742e-18 -6.25222e-17)
(0.399565 1.64853e-17 3.31338e-16)
(0.413947 6.34568e-18 -5.7899e-17)
(0.413947 1.74642e-17 3.07224e-16)
(0.427128 6.6804e-18 -5.39192e-17)
(0.427128 1.84219e-17 2.86486e-16)
(0.439277 7.02455e-18 -5.04782e-17)
(0.439277 1.88638e-17 2.68589e-16)
(0.450534 7.40634e-18 -4.74882e-17)
(0.450534 1.95323e-17 2.53068e-16)
(0.461016 8.0091e-18 -4.48753e-17)
(0.461016 2.02134e-17 2.39537e-16)
(0.470821 8.57994e-18 -4.25796e-17)
(0.470821 2.07129e-17 2.27683e-16)
(0.48003 9.21411e-18 -4.05467e-17)
(0.48003 2.14087e-17 2.17247e-16)
(0.488711 9.81001e-18 -3.87367e-17)
(0.488711 2.19994e-17 2.08011e-16)
(0.496923 1.01489e-17 -3.7118e-17)
(0.496923 2.22863e-17 1.99799e-16)
(0.504716 1.03178e-17 -3.56648e-17)
(0.504716 2.2675e-17 1.92458e-16)
(0.512132 1.0477e-17 -3.43509e-17)
(0.512132 2.32255e-17 1.85877e-16)
(0.519209 1.05985e-17 -3.31485e-17)
(0.519209 2.34633e-17 1.79946e-16)
(0.525977 1.0652e-17 -3.20463e-17)
(0.525977 2.38435e-17 1.74592e-16)
(0.532466 1.06848e-17 -3.10303e-17)
(0.532466 2.45889e-17 1.6974e-16)
(0.538698 1.05808e-17 -3.0097e-17)
(0.538698 2.49342e-17 1.65324e-16)
(0.544696 1.05563e-17 -2.92328e-17)
(0.544696 2.50051e-17 1.61289e-16)
(0.550479 1.08897e-17 -2.84243e-17)
(0.550479 2.51281e-17 1.57611e-16)
(0.556064 1.11775e-17 -2.76548e-17)
(0.556064 2.52629e-17 1.54247e-16)
(0.561465 1.15342e-17 -2.69321e-17)
(0.561465 2.53102e-17 1.51066e-16)
(0.566696 1.20327e-17 -2.62476e-17)
(0.566696 2.59799e-17 1.47983e-16)
(0.571769 1.23283e-17 -2.55979e-17)
(0.571769 2.69597e-17 1.45124e-16)
(0.576695 1.26344e-17 -2.49861e-17)
(0.576695 2.78914e-17 1.42469e-16)
(0.581484 1.27227e-17 -2.44058e-17)
(0.581484 2.84757e-17 1.4e-16)
(0.586144 1.28154e-17 -2.38672e-17)
(0.586144 2.86808e-17 1.37706e-16)
(0.590684 1.30387e-17 -2.33526e-17)
(0.590684 2.91914e-17 1.3556e-16)
(0.595111 1.36541e-17 -2.28595e-17)
(0.595111 2.96408e-17 1.33546e-16)
(0.599432 1.41113e-17 -2.23713e-17)
(0.599432 2.98348e-17 1.31635e-16)
(0.603653 1.34938e-17 -2.1904e-17)
(0.603653 3.03794e-17 1.29825e-16)
(0.60778 1.31604e-17 -2.14747e-17)
(0.60778 3.14585e-17 1.28108e-16)
(0.611817 1.33815e-17 -2.10533e-17)
(0.611817 3.15618e-17 1.26469e-16)
(0.61577 1.39169e-17 -2.06436e-17)
(0.61577 3.21821e-17 1.24899e-16)
(0.619643 1.44249e-17 -2.02409e-17)
(0.619643 3.27586e-17 1.23405e-16)
(0.623441 1.44622e-17 -1.98371e-17)
(0.623441 3.30048e-17 1.21974e-16)
(0.627166 1.44262e-17 -1.94499e-17)
(0.627166 3.41911e-17 1.20604e-16)
(0.630823 1.37722e-17 -1.90763e-17)
(0.630823 3.56537e-17 1.19295e-16)
(0.634414 1.3007e-17 -1.8729e-17)
(0.634414 3.62248e-17 1.1804e-16)
(0.637944 1.23755e-17 -1.83865e-17)
(0.637944 3.62237e-17 1.16817e-16)
(0.641414 1.18994e-17 -1.80612e-17)
(0.641414 3.61485e-17 1.15632e-16)
(0.644827 1.13218e-17 -1.77419e-17)
(0.644827 3.66786e-17 1.14488e-16)
(0.648186 1.06534e-17 -1.74474e-17)
(0.648186 3.79239e-17 1.13388e-16)
(0.651493 1.08792e-17 -1.71468e-17)
(0.651493 3.86044e-17 1.12314e-16)
(0.654751 1.10824e-17 -1.68523e-17)
(0.654751 3.93868e-17 1.11272e-16)
(0.657961 1.11797e-17 -1.65591e-17)
(0.657961 4.01192e-17 1.10257e-16)
(0.661125 1.12908e-17 -1.62577e-17)
(0.661125 4.07105e-17 1.09258e-16)
(0.664246 1.07655e-17 -1.59758e-17)
(0.664246 4.13019e-17 1.08304e-16)
(0.667324 1.06245e-17 -1.56967e-17)
(0.667324 4.1181e-17 1.07356e-16)
(0.670361 1.09381e-17 -1.54015e-17)
(0.670361 4.13502e-17 1.06416e-16)
(0.67336 1.05596e-17 -1.50968e-17)
(0.67336 4.19335e-17 1.05469e-16)
(0.676321 9.92979e-18 -1.48219e-17)
(0.676321 4.25974e-17 1.04545e-16)
(0.679246 8.48514e-18 -1.45498e-17)
(0.679246 4.31809e-17 1.03636e-16)
(0.682136 7.3286e-18 -1.42955e-17)
(0.682136 4.27893e-17 1.02722e-16)
(0.684992 7.04082e-18 -1.40179e-17)
(0.684992 4.32439e-17 1.0181e-16)
(0.687815 6.61355e-18 -1.37221e-17)
(0.687815 4.34988e-17 1.00879e-16)
(0.690607 6.30533e-18 -1.34127e-17)
(0.690607 4.30708e-17 9.99424e-17)
(0.693369 6.2416e-18 -1.31059e-17)
(0.693369 4.31816e-17 9.90154e-17)
(0.696101 6.40332e-18 -1.27717e-17)
(0.696101 4.33236e-17 9.80709e-17)
(0.698805 7.03315e-18 -1.2444e-17)
(0.698805 4.26974e-17 9.71104e-17)
(0.701481 7.40046e-18 -1.20919e-17)
(0.701481 4.19907e-17 9.61221e-17)
(0.704131 7.60873e-18 -1.17437e-17)
(0.704131 4.23961e-17 9.51413e-17)
(0.706754 7.87253e-18 -1.13814e-17)
(0.706754 4.27463e-17 9.41741e-17)
(0.709352 6.93787e-18 -1.1024e-17)
(0.709352 4.32982e-17 9.32111e-17)
(0.711926 5.9861e-18 -1.07e-17)
(0.711926 4.45738e-17 9.22578e-17)
(0.714477 5.36807e-18 -1.03525e-17)
(0.714477 4.48504e-17 9.12747e-17)
(0.717004 5.72983e-18 -1.0012e-17)
(0.717004 4.53528e-17 9.0299e-17)
(0.719509 6.91989e-18 -9.63976e-18)
(0.719509 4.59159e-17 8.93404e-17)
(0.721992 7.40681e-18 -9.23468e-18)
(0.721992 4.49097e-17 8.8357e-17)
(0.724454 6.75397e-18 -8.78558e-18)
(0.724454 4.39799e-17 8.73328e-17)
(0.726896 5.81644e-18 -8.33433e-18)
(0.726896 4.3991e-17 8.62838e-17)
(0.729317 5.67237e-18 -7.86289e-18)
(0.729317 4.43297e-17 8.52142e-17)
(0.731719 5.33319e-18 -7.37324e-18)
(0.731719 4.29766e-17 8.41866e-17)
(0.734102 5.40454e-18 -6.88892e-18)
(0.734102 4.23077e-17 8.31573e-17)
(0.736466 6.43484e-18 -6.35883e-18)
(0.736466 4.22133e-17 8.2075e-17)
(0.738813 6.9283e-18 -5.85289e-18)
(0.738813 4.25399e-17 8.10202e-17)