/*--------------------------------*- C++ -*----------------------------------*\
| =========                 |                                                 |
| \\      /  F ield         | OpenFOAM: The Open Source CFD Toolbox           |
|  \\    /   O peration     | Version:  2106                                  |
|   \\  /    A nd           | Website:  www.openfoam.com                      |
|    \\/     M anipulation  |                                                 |
\*---------------------------------------------------------------------------*/
FoamFile
{
    version     2.0;
    format      ascii;
    arch        "LSB;label=32;scalar=64";
    class       volScalarField;
    location    "1000";
    object      nut;
}
// * * * * * * * * * * * * * * * * * * * * * * * * * * * * * * * * * * * * * //

dimensions      [0 2 -1 0 0 0 0];

internalField   nonuniform List<scalar> 
2560
(
5.83091e-13
5.83091e-13
4.92454e-13
4.92454e-13
4.35861e-13
4.35861e-13
4.09438e-13
4.09438e-13
4.34909e-13
4.34909e-13
5.75971e-13
5.75971e-13
9.60142e-13
9.60142e-13
1.80752e-12
1.80752e-12
3.46673e-12
3.46673e-12
6.45842e-12
6.45842e-12
1.1527e-11
1.1527e-11
1.97007e-11
1.97007e-11
3.23613e-11
3.23613e-11
5.1322e-11
5.1322e-11
7.89157e-11
7.89157e-11
1.1809e-10
1.1809e-10
1.72514e-10
1.72514e-10
2.46682e-10
2.46682e-10
3.46035e-10
3.46035e-10
4.7707e-10
4.7707e-10
6.47458e-10
6.47458e-10
8.66151e-10
8.66151e-10
1.14348e-09
1.14348e-09
1.49123e-09
1.49123e-09
1.92275e-09
1.92275e-09
2.45292e-09
2.45292e-09
3.09826e-09
3.09826e-09
3.87685e-09
3.87685e-09
4.80833e-09
4.80833e-09
5.91383e-09
5.91383e-09
7.21586e-09
7.21586e-09
8.73817e-09
8.73817e-09
1.05057e-08
1.05057e-08
1.25441e-08
1.25441e-08
1.48801e-08
1.48801e-08
1.75407e-08
1.75407e-08
2.05535e-08
2.05535e-08
2.3946e-08
2.3946e-08
2.77458e-08
2.77458e-08
3.19802e-08
3.19802e-08
3.66764e-08
3.66764e-08
4.18607e-08
4.18607e-08
4.75589e-08
4.75589e-08
5.37961e-08
5.37961e-08
6.05965e-08
6.05965e-08
6.79835e-08
6.79835e-08
7.59796e-08
7.59796e-08
8.46062e-08
8.46062e-08
9.38841e-08
9.38841e-08
1.03833e-07
1.03833e-07
1.14472e-07
1.14472e-07
1.2582e-07
1.2582e-07
1.37893e-07
1.37893e-07
1.5071e-07
1.5071e-07
1.64286e-07
1.64286e-07
1.78639e-07
1.78639e-07
1.93784e-07
1.93784e-07
2.09738e-07
2.09738e-07
2.26517e-07
2.26517e-07
2.44137e-07
2.44137e-07
2.62616e-07
2.62616e-07
2.81972e-07
2.81972e-07
3.02222e-07
3.02222e-07
3.23387e-07
3.23387e-07
3.45486e-07
3.45486e-07
3.68544e-07
3.68544e-07
3.92582e-07
3.92582e-07
4.17627e-07
4.17627e-07
4.43707e-07
4.43707e-07
4.70853e-07
4.70853e-07
4.99096e-07
4.99096e-07
5.28474e-07
5.28474e-07
5.59025e-07
5.59025e-07
5.90793e-07
5.90793e-07
6.23823e-07
6.23823e-07
6.58168e-07
6.58168e-07
6.93884e-07
6.93884e-07
7.31031e-07
7.31031e-07
7.69676e-07
7.69676e-07
8.09893e-07
8.09893e-07
8.51759e-07
8.51759e-07
8.95363e-07
8.95363e-07
9.40799e-07
9.40799e-07
9.88168e-07
9.88168e-07
1.03758e-06
1.03758e-06
1.08917e-06
1.08917e-06
1.14305e-06
1.14305e-06
1.19938e-06
1.19938e-06
1.25831e-06
1.25831e-06
1.32e-06
1.32e-06
1.38466e-06
1.38466e-06
1.45246e-06
1.45246e-06
1.52364e-06
1.52364e-06
1.59842e-06
1.59842e-06
1.67707e-06
1.67707e-06
1.75986e-06
1.75986e-06
1.84708e-06
1.84708e-06
1.93908e-06
1.93908e-06
2.03619e-06
2.03619e-06
2.13881e-06
2.13881e-06
2.24734e-06
2.24734e-06
2.36226e-06
2.36226e-06
2.48403e-06
2.48403e-06
2.61321e-06
2.61321e-06
2.75036e-06
2.75036e-06
2.89613e-06
2.89613e-06
3.05118e-06
3.05118e-06
3.21628e-06
3.21628e-06
3.39223e-06
3.39223e-06
3.57991e-06
3.57991e-06
3.7803e-06
3.7803e-06
3.99445e-06
3.99445e-06
4.22349e-06
4.22349e-06
4.4687e-06
4.4687e-06
4.73144e-06
4.73144e-06
5.01323e-06
5.01323e-06
5.3157e-06
5.3157e-06
5.64068e-06
5.64068e-06
5.99015e-06
5.99015e-06
6.36629e-06
6.36629e-06
6.77153e-06
6.77153e-06
7.20852e-06
7.20852e-06
7.68019e-06
7.68019e-06
8.18979e-06
8.18979e-06
8.74093e-06
8.74093e-06
9.3376e-06
9.3376e-06
9.98423e-06
9.98423e-06
1.06858e-05
1.06858e-05
1.14477e-05
1.14477e-05
1.22763e-05
1.22763e-05
1.31783e-05
1.31783e-05
1.41615e-05
1.41615e-05
1.52346e-05
1.52346e-05
1.64074e-05
1.64074e-05
1.76908e-05
1.76908e-05
1.90974e-05
1.90974e-05
2.06412e-05
2.06412e-05
2.23382e-05
2.23382e-05
2.42066e-05
2.42066e-05
2.62669e-05
2.62669e-05
2.85428e-05
2.85428e-05
3.10609e-05
3.10609e-05
3.3852e-05
3.3852e-05
3.69511e-05
3.69511e-05
4.03981e-05
4.03981e-05
4.42389e-05
4.42389e-05
4.85258e-05
4.85258e-05
5.33187e-05
5.33187e-05
5.8686e-05
5.86859e-05
6.47055e-05
6.47055e-05
7.1466e-05
7.1466e-05
7.90678e-05
7.90678e-05
8.76243e-05
8.76242e-05
9.72627e-05
9.72627e-05
0.000108125
0.000108125
0.000120369
0.000120369
0.000134168
0.000134168
0.000149709
0.000149709
0.000167195
0.000167195
0.00018684
0.00018684
0.00020887
0.00020887
0.000233515
0.000233515
0.000261009
0.000261009
0.000291585
0.000291585
0.000325465
0.000325465
0.000362861
0.000362861
0.000403966
0.000403966
0.000448947
0.000448947
0.000497943
0.000497943
0.00055106
0.00055106
0.000608363
0.000608363
0.000669881
0.000669881
0.000735596
0.000735596
0.000805452
0.000805452
0.000879345
0.000879345
0.000957132
0.000957132
0.00103863
0.00103863
0.00112362
0.00112362
0.00121184
0.00121184
0.00130302
0.00130302
0.00139684
0.00139684
0.00149297
0.00149297
0.00159107
0.00159107
0.00169079
0.00169079
0.00179176
0.00179176
0.00189363
0.00189363
0.00199603
0.00199603
0.00209861
0.00209861
0.00220105
0.00220105
0.00230301
0.00230301
0.00240419
0.00240419
0.0025043
0.0025043
0.00260308
0.00260308
0.00270029
0.00270029
0.0027957
0.0027957
0.00288914
0.00288914
0.00298043
0.00298043
0.00306942
0.00306942
0.003156
0.003156
0.00324007
0.00324007
0.00332156
0.00332156
0.00340042
0.00340042
0.0034766
0.0034766
0.0035501
0.0035501
0.00362092
0.00362092
0.00368907
0.00368907
0.00375459
0.00375459
0.00381751
0.00381751
0.0038779
0.0038779
0.00393582
0.00393582
0.00399134
0.00399134
0.00404453
0.00404453
0.00409548
0.00409548
0.00414428
0.00414428
0.00419102
0.00419102
0.00423579
0.00423579
0.00427869
0.00427869
0.00431982
0.00431982
0.00435926
0.00435926
0.00439713
0.00439713
0.0044335
0.0044335
0.00446847
0.00446847
0.00450214
0.00450214
0.00453458
0.00453458
0.00456589
0.00456589
0.00459614
0.00459614
0.00462542
0.00462542
0.0046538
0.0046538
0.00468134
0.00468134
0.00470813
0.00470813
0.00473422
0.00473422
0.00475967
0.00475967
0.00478454
0.00478454
0.00480888
0.00480888
0.00483275
0.00483275
0.00485618
0.00485618
0.00487922
0.00487922
0.00490192
0.00490192
0.00492429
0.00492429
0.00494639
0.00494639
0.00496822
0.00496822
0.00498983
0.00498983
0.00501123
0.00501123
0.00503244
0.00503244
0.00505347
0.00505347
0.00507435
0.00507435
0.00509508
0.00509508
0.00511567
0.00511567
0.00513613
0.00513613
0.00515646
0.00515646
0.00517665
0.00517665
0.00519672
0.00519672
0.00521665
0.00521665
0.00523644
0.00523644
0.00525609
0.00525609
0.00527558
0.00527558
0.00529489
0.00529489
0.00531403
0.00531403
0.00533297
0.00533297
0.0053517
0.0053517
0.00537019
0.00537019
0.00538843
0.00538843
0.0054064
0.0054064
0.00542408
0.00542408
0.00544144
0.00544143
0.00545845
0.00545845
0.00547508
0.00547508
0.00549132
0.00549132
0.00550713
0.00550713
0.00552249
0.00552249
0.00553735
0.00553735
0.00555169
0.00555169
0.00556548
0.00556548
0.00557867
0.00557867
0.00559125
0.00559125
0.00560317
0.00560317
0.00561439
0.00561439
0.00562488
0.00562488
0.0056346
0.0056346
0.00564352
0.00564352
0.00565159
0.00565159
0.00565879
0.00565879
0.00566507
0.00566507
0.00567039
0.00567039
0.00567473
0.00567473
0.00567804
0.00567804
0.00568029
0.00568029
0.00568144
0.00568144
0.00568147
0.00568147
0.00568034
0.00568034
0.00567804
0.00567803
0.00567452
0.00567452
0.00566978
0.00566978
0.00566381
0.0056638
0.00565658
0.00565657
0.00564809
0.00564809
0.00563835
0.00563835
0.00562737
0.00562737
0.00561517
0.00561517
0.00560178
0.00560178
0.00558724
0.00558724
0.00557161
0.00557161
0.00555497
0.00555497
0.00553739
0.00553739
0.00551899
0.00551899
0.0054999
0.0054999
0.00548027
0.00548027
0.00546028
0.00546028
0.00544012
0.00544012
0.00542002
0.00542002
0.00540023
0.00540023
0.00538103
0.00538103
0.00536271
0.00536271
0.0053456
0.0053456
0.00533001
0.00533001
0.0053163
0.00531629
0.00530477
0.00530477
0.00529576
0.00529576
0.00528953
0.00528953
0.00528633
0.00528633
5.83091e-13
5.83091e-13
4.92454e-13
4.92454e-13
4.35861e-13
4.35861e-13
4.09438e-13
4.09438e-13
4.34909e-13
4.34909e-13
5.75971e-13
5.75971e-13
9.60142e-13
9.60142e-13
1.80752e-12
1.80752e-12
3.46673e-12
3.46673e-12
6.45842e-12
6.45842e-12
1.1527e-11
1.1527e-11
1.97007e-11
1.97007e-11
3.23613e-11
3.23613e-11
5.1322e-11
5.1322e-11
7.89157e-11
7.89157e-11
1.1809e-10
1.1809e-10
1.72514e-10
1.72514e-10
2.46682e-10
2.46682e-10
3.46035e-10
3.46035e-10
4.7707e-10
4.7707e-10
6.47458e-10
6.47458e-10
8.66151e-10
8.66151e-10
1.14348e-09
1.14348e-09
1.49123e-09
1.49123e-09
1.92275e-09
1.92275e-09
2.45292e-09
2.45292e-09
3.09826e-09
3.09826e-09
3.87685e-09
3.87685e-09
4.80833e-09
4.80833e-09
5.91383e-09
5.91383e-09
7.21586e-09
7.21586e-09
8.73817e-09
8.73817e-09
1.05057e-08
1.05057e-08
1.25441e-08
1.25441e-08
1.48801e-08
1.48801e-08
1.75407e-08
1.75407e-08
2.05535e-08
2.05535e-08
2.3946e-08
2.3946e-08
2.77458e-08
2.77458e-08
3.19802e-08
3.19802e-08
3.66764e-08
3.66764e-08
4.18607e-08
4.18607e-08
4.75589e-08
4.75589e-08
5.37961e-08
5.37961e-08
6.05965e-08
6.05965e-08
6.79835e-08
6.79835e-08
7.59796e-08
7.59796e-08
8.46062e-08
8.46062e-08
9.38841e-08
9.38841e-08
1.03833e-07
1.03833e-07
1.14472e-07
1.14472e-07
1.2582e-07
1.2582e-07
1.37893e-07
1.37893e-07
1.5071e-07
1.5071e-07
1.64286e-07
1.64286e-07
1.78639e-07
1.78639e-07
1.93784e-07
1.93784e-07
2.09738e-07
2.09738e-07
2.26517e-07
2.26517e-07
2.44137e-07
2.44137e-07
2.62616e-07
2.62616e-07
2.81972e-07
2.81972e-07
3.02222e-07
3.02222e-07
3.23387e-07
3.23387e-07
3.45486e-07
3.45486e-07
3.68544e-07
3.68544e-07
3.92582e-07
3.92582e-07
4.17627e-07
4.17627e-07
4.43707e-07
4.43707e-07
4.70853e-07
4.70853e-07
4.99096e-07
4.99096e-07
5.28474e-07
5.28474e-07
5.59025e-07
5.59025e-07
5.90793e-07
5.90793e-07
6.23823e-07
6.23823e-07
6.58168e-07
6.58168e-07
6.93884e-07
6.93884e-07
7.31031e-07
7.31031e-07
7.69676e-07
7.69676e-07
8.09893e-07
8.09893e-07
8.51759e-07
8.51759e-07
8.95363e-07
8.95363e-07
9.40799e-07
9.40799e-07
9.88168e-07
9.88168e-07
1.03758e-06
1.03758e-06
1.08917e-06
1.08917e-06
1.14305e-06
1.14305e-06
1.19938e-06
1.19938e-06
1.25831e-06
1.25831e-06
1.32e-06
1.32e-06
1.38466e-06
1.38466e-06
1.45246e-06
1.45246e-06
1.52364e-06
1.52364e-06
1.59842e-06
1.59842e-06
1.67707e-06
1.67707e-06
1.75986e-06
1.75986e-06
1.84708e-06
1.84708e-06
1.93908e-06
1.93908e-06
2.03619e-06
2.03619e-06
2.13881e-06
2.13881e-06
2.24734e-06
2.24734e-06
2.36226e-06
2.36226e-06
2.48403e-06
2.48403e-06
2.61321e-06
2.61321e-06
2.75036e-06
2.75036e-06
2.89613e-06
2.89613e-06
3.05118e-06
3.05118e-06
3.21628e-06
3.21628e-06
3.39223e-06
3.39223e-06
3.57991e-06
3.57991e-06
3.7803e-06
3.7803e-06
3.99445e-06
3.99445e-06
4.22349e-06
4.22349e-06
4.4687e-06
4.4687e-06
4.73144e-06
4.73144e-06
5.01323e-06
5.01323e-06
5.3157e-06
5.3157e-06
5.64068e-06
5.64068e-06
5.99015e-06
5.99015e-06
6.36629e-06
6.36629e-06
6.77153e-06
6.77153e-06
7.20852e-06
7.20852e-06
7.68019e-06
7.68019e-06
8.18979e-06
8.18979e-06
8.74093e-06
8.74093e-06
9.3376e-06
9.3376e-06
9.98423e-06
9.98423e-06
1.06858e-05
1.06858e-05
1.14477e-05
1.14477e-05
1.22763e-05
1.22763e-05
1.31783e-05
1.31783e-05
1.41615e-05
1.41615e-05
1.52346e-05
1.52346e-05
1.64074e-05
1.64074e-05
1.76908e-05
1.76908e-05
1.90974e-05
1.90974e-05
2.06412e-05
2.06412e-05
2.23382e-05
2.23382e-05
2.42066e-05
2.42066e-05
2.62669e-05
2.62669e-05
2.85428e-05
2.85428e-05
3.10609e-05
3.10609e-05
3.3852e-05
3.3852e-05
3.69511e-05
3.69511e-05
4.03981e-05
4.03981e-05
4.42389e-05
4.42389e-05
4.85258e-05
4.85258e-05
5.33187e-05
5.33187e-05
5.86859e-05
5.86859e-05
6.47055e-05
6.47055e-05
7.1466e-05
7.1466e-05
7.90678e-05
7.90678e-05
8.76242e-05
8.76242e-05
9.72627e-05
9.72627e-05
0.000108125
0.000108125
0.000120369
0.000120369
0.000134168
0.000134168
0.000149709
0.000149709
0.000167195
0.000167195
0.00018684
0.00018684
0.00020887
0.00020887
0.000233515
0.000233515
0.000261009
0.000261009
0.000291584
0.000291584
0.000325465
0.000325465
0.000362861
0.000362861
0.000403966
0.000403966
0.000448947
0.000448947
0.000497943
0.000497943
0.00055106
0.00055106
0.000608363
0.000608363
0.000669881
0.000669881
0.000735596
0.000735596
0.000805452
0.000805452
0.000879345
0.000879345
0.000957132
0.000957132
0.00103863
0.00103863
0.00112362
0.00112362
0.00121184
0.00121184
0.00130302
0.00130302
0.00139684
0.00139684
0.00149297
0.00149297
0.00159107
0.00159107
0.00169079
0.00169079
0.00179176
0.00179176
0.00189363
0.00189363
0.00199603
0.00199603
0.00209861
0.00209861
0.00220105
0.00220105
0.00230301
0.00230301
0.00240419
0.00240419
0.0025043
0.0025043
0.00260308
0.00260308
0.00270029
0.00270029
0.0027957
0.0027957
0.00288914
0.00288914
0.00298043
0.00298043
0.00306942
0.00306942
0.003156
0.003156
0.00324007
0.00324007
0.00332156
0.00332156
0.00340042
0.00340042
0.0034766
0.0034766
0.0035501
0.0035501
0.00362092
0.00362092
0.00368907
0.00368907
0.00375459
0.00375459
0.00381751
0.00381751
0.0038779
0.0038779
0.00393582
0.00393582
0.00399134
0.00399134
0.00404453
0.00404453
0.00409548
0.00409548
0.00414428
0.00414428
0.00419102
0.00419102
0.00423579
0.00423579
0.00427869
0.00427869
0.00431982
0.00431982
0.00435926
0.00435926
0.00439713
0.00439713
0.0044335
0.0044335
0.00446847
0.00446847
0.00450214
0.00450214
0.00453458
0.00453458
0.00456589
0.00456589
0.00459614
0.00459614
0.00462542
0.00462542
0.0046538
0.0046538
0.00468134
0.00468134
0.00470813
0.00470813
0.00473422
0.00473422
0.00475967
0.00475967
0.00478454
0.00478454
0.00480888
0.00480888
0.00483275
0.00483275
0.00485618
0.00485618
0.00487922
0.00487922
0.00490192
0.00490192
0.00492429
0.00492429
0.00494639
0.00494639
0.00496822
0.00496822
0.00498983
0.00498983
0.00501123
0.00501123
0.00503244
0.00503244
0.00505347
0.00505347
0.00507435
0.00507435
0.00509508
0.00509508
0.00511567
0.00511567
0.00513613
0.00513613
0.00515646
0.00515646
0.00517665
0.00517665
0.00519672
0.00519672
0.00521665
0.00521665
0.00523644
0.00523644
0.00525609
0.00525609
0.00527558
0.00527558
0.00529489
0.00529489
0.00531403
0.00531403
0.00533297
0.00533297
0.0053517
0.0053517
0.00537019
0.00537019
0.00538843
0.00538843
0.0054064
0.0054064
0.00542408
0.00542408
0.00544143
0.00544143
0.00545845
0.00545844
0.00547508
0.00547508
0.00549132
0.00549132
0.00550713
0.00550713
0.00552249
0.00552249
0.00553735
0.00553735
0.00555169
0.00555169
0.00556548
0.00556548
0.00557867
0.00557867
0.00559125
0.00559125
0.00560316
0.00560316
0.00561439
0.00561439
0.00562488
0.00562488
0.0056346
0.0056346
0.00564352
0.00564352
0.00565159
0.00565159
0.00565879
0.00565879
0.00566507
0.00566507
0.00567039
0.00567039
0.00567473
0.00567473
0.00567804
0.00567804
0.00568029
0.00568028
0.00568144
0.00568144
0.00568147
0.00568147
0.00568034
0.00568034
0.00567803
0.00567803
0.00567452
0.00567452
0.00566978
0.00566978
0.0056638
0.0056638
0.00565657
0.00565657
0.00564809
0.00564809
0.00563835
0.00563835
0.00562737
0.00562737
0.00561517
0.00561517
0.00560178
0.00560178
0.00558724
0.00558724
0.00557161
0.00557161
0.00555497
0.00555496
0.00553739
0.00553739
0.00551899
0.00551899
0.0054999
0.0054999
0.00548027
0.00548027
0.00546028
0.00546028
0.00544012
0.00544012
0.00542002
0.00542002
0.00540023
0.00540023
0.00538103
0.00538102
0.00536271
0.00536271
0.00534559
0.00534559
0.00533001
0.00533001
0.00531629
0.00531629
0.00530477
0.00530477
0.00529575
0.00529575
0.00528953
0.00528953
0.00528632
0.00528632
0.00528633
0.00528632
0.00528953
0.00528953
0.00529575
0.00529575
0.00530477
0.00530477
0.00531629
0.00531629
0.00533001
0.00533
0.00534559
0.00534559
0.0053627
0.0053627
0.00538102
0.00538101
0.00540022
0.00540022
0.00542
0.00542
0.0054401
0.0054401
0.00546026
0.00546026
0.00548026
0.00548025
0.00549988
0.00549988
0.00551897
0.00551897
0.00553737
0.00553737
0.00555494
0.00555494
0.00557159
0.00557159
0.00558722
0.00558721
0.00560175
0.00560175
0.00561514
0.00561514
0.00562734
0.00562734
0.00563832
0.00563832
0.00564805
0.00564805
0.00565654
0.00565654
0.00566377
0.00566377
0.00566974
0.00566974
0.00567448
0.00567448
0.00567799
0.00567799
0.0056803
0.0056803
0.00568142
0.00568142
0.00568139
0.00568139
0.00568024
0.00568024
0.00567799
0.00567799
0.00567468
0.00567468
0.00567035
0.00567035
0.00566502
0.00566502
0.00565874
0.00565874
0.00565154
0.00565154
0.00564347
0.00564347
0.00563455
0.00563455
0.00562483
0.00562483
0.00561434
0.00561434
0.00560311
0.00560311
0.0055912
0.0055912
0.00557862
0.00557862
0.00556543
0.00556543
0.00555164
0.00555164
0.0055373
0.0055373
0.00552244
0.00552244
0.00550709
0.00550709
0.00549127
0.00549127
0.00547504
0.00547504
0.0054584
0.0054584
0.00544139
0.00544139
0.00542403
0.00542403
0.00540636
0.00540636
0.00538839
0.00538839
0.00537015
0.00537015
0.00535166
0.00535166
0.00533293
0.00533293
0.00531399
0.00531399
0.00529486
0.00529486
0.00527554
0.00527554
0.00525605
0.00525605
0.00523641
0.00523641
0.00521662
0.00521662
0.00519669
0.00519669
0.00517662
0.00517662
0.00515643
0.00515643
0.0051361
0.0051361
0.00511564
0.00511564
0.00509505
0.00509505
0.00507433
0.00507432
0.00505345
0.00505345
0.00503241
0.00503241
0.0050112
0.0050112
0.00498981
0.00498981
0.0049682
0.0049682
0.00494637
0.00494637
0.00492427
0.00492427
0.0049019
0.0049019
0.00487921
0.00487921
0.00485617
0.00485617
0.00483273
0.00483273
0.00480887
0.00480887
0.00478453
0.00478453
0.00475966
0.00475966
0.00473421
0.00473421
0.00470812
0.00470812
0.00468133
0.00468133
0.00465379
0.00465379
0.00462541
0.00462541
0.00459614
0.00459614
0.00456588
0.00456588
0.00453458
0.00453458
0.00450214
0.00450214
0.00446847
0.00446847
0.0044335
0.0044335
0.00439713
0.00439713
0.00435927
0.00435927
0.00431982
0.00431982
0.0042787
0.0042787
0.0042358
0.0042358
0.00419103
0.00419103
0.00414429
0.00414429
0.00409549
0.00409549
0.00404454
0.00404454
0.00399135
0.00399135
0.00393584
0.00393584
0.00387792
0.00387792
0.00381754
0.00381754
0.00375461
0.00375461
0.00368909
0.00368909
0.00362094
0.00362094
0.00355013
0.00355013
0.00347663
0.00347663
0.00340045
0.00340045
0.0033216
0.0033216
0.00324011
0.00324011
0.00315604
0.00315604
0.00306946
0.00306946
0.00298047
0.00298047
0.00288918
0.00288918
0.00279575
0.00279575
0.00270033
0.00270033
0.00260313
0.00260313
0.00250435
0.00250435
0.00240424
0.00240424
0.00230306
0.00230306
0.0022011
0.0022011
0.00209867
0.00209867
0.00199608
0.00199608
0.00189368
0.00189368
0.00179181
0.00179181
0.00169084
0.00169084
0.00159113
0.00159113
0.00149302
0.00149302
0.00139689
0.00139689
0.00130307
0.00130307
0.00121189
0.00121189
0.00112366
0.00112366
0.00103867
0.00103867
0.000957175
0.000957175
0.000879385
0.000879385
0.00080549
0.00080549
0.000735632
0.000735632
0.000669914
0.000669914
0.000608394
0.000608394
0.000551088
0.000551088
0.00049797
0.00049797
0.000448971
0.000448971
0.000403987
0.000403987
0.000362881
0.000362881
0.000325482
0.000325482
0.0002916
0.0002916
0.000261023
0.000261023
0.000233527
0.000233527
0.000208881
0.000208881
0.00018685
0.00018685
0.000167203
0.000167203
0.000149716
0.000149716
0.000134174
0.000134174
0.000120375
0.000120375
0.00010813
0.00010813
9.72667e-05
9.72667e-05
8.76277e-05
8.76277e-05
7.90707e-05
7.90707e-05
7.14685e-05
7.14685e-05
6.47077e-05
6.47077e-05
5.86878e-05
5.86878e-05
5.33203e-05
5.33203e-05
4.85272e-05
4.85272e-05
4.42401e-05
4.42401e-05
4.03992e-05
4.03992e-05
3.6952e-05
3.6952e-05
3.38529e-05
3.38529e-05
3.10617e-05
3.10616e-05
2.85434e-05
2.85434e-05
2.62675e-05
2.62675e-05
2.42071e-05
2.42071e-05
2.23387e-05
2.23387e-05
2.06416e-05
2.06416e-05
1.90977e-05
1.90977e-05
1.76911e-05
1.76911e-05
1.64076e-05
1.64076e-05
1.52349e-05
1.52349e-05
1.41617e-05
1.41617e-05
1.31785e-05
1.31785e-05
1.22764e-05
1.22764e-05
1.14479e-05
1.14479e-05
1.06859e-05
1.06859e-05
9.98436e-06
9.98436e-06
9.33771e-06
9.33771e-06
8.74103e-06
8.74103e-06
8.18988e-06
8.18988e-06
7.68027e-06
7.68027e-06
7.20859e-06
7.20859e-06
6.7716e-06
6.7716e-06
6.36636e-06
6.36636e-06
5.9902e-06
5.9902e-06
5.64073e-06
5.64073e-06
5.31575e-06
5.31575e-06
5.01327e-06
5.01327e-06
4.73148e-06
4.73148e-06
4.46874e-06
4.46874e-06
4.22353e-06
4.22353e-06
3.99448e-06
3.99448e-06
3.78033e-06
3.78033e-06
3.57994e-06
3.57994e-06
3.39225e-06
3.39225e-06
3.2163e-06
3.2163e-06
3.0512e-06
3.0512e-06
2.89614e-06
2.89614e-06
2.75038e-06
2.75038e-06
2.61323e-06
2.61323e-06
2.48405e-06
2.48405e-06
2.36227e-06
2.36227e-06
2.24736e-06
2.24736e-06
2.13882e-06
2.13882e-06
2.0362e-06
2.0362e-06
1.93909e-06
1.93909e-06
1.84709e-06
1.84709e-06
1.75987e-06
1.75987e-06
1.67708e-06
1.67708e-06
1.59843e-06
1.59843e-06
1.52365e-06
1.52365e-06
1.45247e-06
1.45247e-06
1.38466e-06
1.38466e-06
1.32001e-06
1.32001e-06
1.25831e-06
1.25831e-06
1.19938e-06
1.19938e-06
1.14306e-06
1.14306e-06
1.08917e-06
1.08917e-06
1.03759e-06
1.03759e-06
9.88172e-07
9.88172e-07
9.40802e-07
9.40802e-07
8.95366e-07
8.95366e-07
8.51762e-07
8.51762e-07
8.09895e-07
8.09895e-07
7.69679e-07
7.69679e-07
7.31033e-07
7.31033e-07
6.93886e-07
6.93886e-07
6.58171e-07
6.58171e-07
6.23825e-07
6.23825e-07
5.90794e-07
5.90794e-07
5.59027e-07
5.59027e-07
5.28476e-07
5.28476e-07
4.99098e-07
4.99098e-07
4.70854e-07
4.70854e-07
4.43709e-07
4.43709e-07
4.17628e-07
4.17628e-07
3.92583e-07
3.92583e-07
3.68545e-07
3.68545e-07
3.45487e-07
3.45487e-07
3.23388e-07
3.23388e-07
3.02223e-07
3.02223e-07
2.81973e-07
2.81973e-07
2.62617e-07
2.62617e-07
2.44138e-07
2.44138e-07
2.26518e-07
2.26518e-07
2.09739e-07
2.09739e-07
1.93785e-07
1.93785e-07
1.7864e-07
1.7864e-07
1.64287e-07
1.64287e-07
1.5071e-07
1.5071e-07
1.37894e-07
1.37894e-07
1.2582e-07
1.2582e-07
1.14473e-07
1.14473e-07
1.03833e-07
1.03833e-07
9.38844e-08
9.38844e-08
8.46065e-08
8.46065e-08
7.59798e-08
7.59798e-08
6.79837e-08
6.79837e-08
6.05967e-08
6.05967e-08
5.37962e-08
5.37962e-08
4.7559e-08
4.7559e-08
4.18608e-08
4.18608e-08
3.66765e-08
3.66765e-08
3.19803e-08
3.19803e-08
2.77458e-08
2.77458e-08
2.3946e-08
2.3946e-08
2.05535e-08
2.05535e-08
1.75408e-08
1.75408e-08
1.48801e-08
1.48801e-08
1.25441e-08
1.25441e-08
1.05057e-08
1.05057e-08
8.7382e-09
8.7382e-09
7.21588e-09
7.21588e-09
5.91385e-09
5.91385e-09
4.80835e-09
4.80835e-09
3.87686e-09
3.87686e-09
3.09827e-09
3.09827e-09
2.45293e-09
2.45293e-09
1.92275e-09
1.92275e-09
1.49124e-09
1.49124e-09
1.14348e-09
1.14348e-09
8.66153e-10
8.66153e-10
6.4746e-10
6.4746e-10
4.77071e-10
4.77071e-10
3.46035e-10
3.46035e-10
2.46682e-10
2.46682e-10
1.72514e-10
1.72514e-10
1.18091e-10
1.18091e-10
7.89158e-11
7.89158e-11
5.13222e-11
5.13222e-11
3.23614e-11
3.23614e-11
1.97008e-11
1.97008e-11
1.1527e-11
1.1527e-11
6.45842e-12
6.45842e-12
3.46673e-12
3.46673e-12
1.80752e-12
1.80752e-12
9.60139e-13
9.60139e-13
5.75967e-13
5.75967e-13
4.34905e-13
4.34905e-13
4.09433e-13
4.09433e-13
4.35855e-13
4.35855e-13
4.92448e-13
4.92448e-13
5.83084e-13
5.83084e-13
0.00528632
0.00528632
0.00528953
0.00528952
0.00529575
0.00529575
0.00530476
0.00530476
0.00531629
0.00531628
0.00533
0.00533
0.00534559
0.00534558
0.0053627
0.0053627
0.00538101
0.00538101
0.00540021
0.00540021
0.00542
0.00542
0.0054401
0.0054401
0.00546026
0.00546026
0.00548025
0.00548025
0.00549988
0.00549988
0.00551897
0.00551897
0.00553737
0.00553736
0.00555494
0.00555494
0.00557159
0.00557159
0.00558721
0.00558721
0.00560175
0.00560175
0.00561514
0.00561514
0.00562734
0.00562734
0.00563832
0.00563832
0.00564805
0.00564805
0.00565654
0.00565654
0.00566377
0.00566376
0.00566974
0.00566974
0.00567448
0.00567448
0.00567799
0.00567799
0.0056803
0.0056803
0.00568142
0.00568142
0.00568139
0.00568139
0.00568024
0.00568024
0.00567799
0.00567799
0.00567468
0.00567468
0.00567035
0.00567034
0.00566502
0.00566502
0.00565874
0.00565874
0.00565154
0.00565154
0.00564347
0.00564347
0.00563455
0.00563455
0.00562483
0.00562483
0.00561434
0.00561434
0.00560311
0.00560311
0.0055912
0.0055912
0.00557862
0.00557862
0.00556543
0.00556543
0.00555164
0.00555164
0.0055373
0.0055373
0.00552244
0.00552244
0.00550708
0.00550708
0.00549127
0.00549127
0.00547504
0.00547504
0.0054584
0.0054584
0.00544139
0.00544139
0.00542403
0.00542403
0.00540636
0.00540636
0.00538839
0.00538839
0.00537015
0.00537015
0.00535166
0.00535165
0.00533293
0.00533293
0.00531399
0.00531399
0.00529486
0.00529486
0.00527554
0.00527554
0.00525605
0.00525605
0.00523641
0.00523641
0.00521662
0.00521662
0.00519669
0.00519669
0.00517662
0.00517662
0.00515643
0.00515643
0.0051361
0.0051361
0.00511564
0.00511564
0.00509505
0.00509505
0.00507432
0.00507432
0.00505345
0.00505345
0.00503241
0.00503241
0.0050112
0.0050112
0.00498981
0.00498981
0.0049682
0.0049682
0.00494637
0.00494637
0.00492427
0.00492427
0.0049019
0.0049019
0.00487921
0.00487921
0.00485617
0.00485617
0.00483273
0.00483273
0.00480887
0.00480887
0.00478453
0.00478453
0.00475966
0.00475966
0.00473421
0.00473421
0.00470812
0.00470812
0.00468133
0.00468133
0.00465379
0.00465379
0.00462541
0.00462541
0.00459614
0.00459614
0.00456588
0.00456588
0.00453458
0.00453458
0.00450214
0.00450214
0.00446847
0.00446847
0.0044335
0.0044335
0.00439713
0.00439713
0.00435927
0.00435927
0.00431982
0.00431982
0.0042787
0.0042787
0.0042358
0.0042358
0.00419103
0.00419103
0.00414429
0.00414429
0.00409549
0.00409549
0.00404454
0.00404454
0.00399135
0.00399135
0.00393584
0.00393584
0.00387792
0.00387792
0.00381754
0.00381754
0.00375461
0.00375461
0.00368909
0.00368909
0.00362094
0.00362094
0.00355013
0.00355013
0.00347663
0.00347663
0.00340045
0.00340045
0.0033216
0.0033216
0.00324011
0.00324011
0.00315604
0.00315604
0.00306946
0.00306946
0.00298047
0.00298047
0.00288918
0.00288918
0.00279575
0.00279575
0.00270033
0.00270033
0.00260313
0.00260313
0.00250435
0.00250435
0.00240424
0.00240424
0.00230306
0.00230306
0.0022011
0.0022011
0.00209867
0.00209867
0.00199608
0.00199608
0.00189368
0.00189368
0.00179181
0.00179181
0.00169084
0.00169084
0.00159113
0.00159113
0.00149302
0.00149302
0.00139689
0.00139689
0.00130307
0.00130307
0.00121189
0.00121189
0.00112366
0.00112366
0.00103867
0.00103867
0.000957175
0.000957175
0.000879385
0.000879385
0.00080549
0.00080549
0.000735632
0.000735632
0.000669914
0.000669914
0.000608394
0.000608394
0.000551088
0.000551088
0.00049797
0.00049797
0.000448971
0.000448971
0.000403987
0.000403987
0.000362881
0.000362881
0.000325482
0.000325482
0.0002916
0.0002916
0.000261023
0.000261023
0.000233527
0.000233527
0.000208881
0.000208881
0.00018685
0.00018685
0.000167203
0.000167203
0.000149716
0.000149716
0.000134174
0.000134174
0.000120375
0.000120375
0.00010813
0.00010813
9.72667e-05
9.72667e-05
8.76277e-05
8.76276e-05
7.90707e-05
7.90707e-05
7.14685e-05
7.14685e-05
6.47077e-05
6.47077e-05
5.86878e-05
5.86878e-05
5.33203e-05
5.33203e-05
4.85272e-05
4.85272e-05
4.42401e-05
4.42401e-05
4.03992e-05
4.03992e-05
3.6952e-05
3.6952e-05
3.38529e-05
3.38529e-05
3.10617e-05
3.10616e-05
2.85434e-05
2.85434e-05
2.62675e-05
2.62675e-05
2.42071e-05
2.42071e-05
2.23387e-05
2.23387e-05
2.06416e-05
2.06416e-05
1.90977e-05
1.90977e-05
1.76911e-05
1.76911e-05
1.64076e-05
1.64076e-05
1.52349e-05
1.52349e-05
1.41617e-05
1.41617e-05
1.31785e-05
1.31785e-05
1.22764e-05
1.22764e-05
1.14479e-05
1.14479e-05
1.06859e-05
1.06859e-05
9.98436e-06
9.98436e-06
9.33771e-06
9.33771e-06
8.74103e-06
8.74103e-06
8.18988e-06
8.18988e-06
7.68027e-06
7.68027e-06
7.20859e-06
7.20859e-06
6.7716e-06
6.7716e-06
6.36636e-06
6.36636e-06
5.9902e-06
5.9902e-06
5.64073e-06
5.64073e-06
5.31575e-06
5.31575e-06
5.01327e-06
5.01327e-06
4.73148e-06
4.73148e-06
4.46874e-06
4.46874e-06
4.22353e-06
4.22353e-06
3.99448e-06
3.99448e-06
3.78033e-06
3.78033e-06
3.57994e-06
3.57994e-06
3.39225e-06
3.39225e-06
3.2163e-06
3.2163e-06
3.0512e-06
3.0512e-06
2.89614e-06
2.89614e-06
2.75038e-06
2.75038e-06
2.61323e-06
2.61323e-06
2.48405e-06
2.48405e-06
2.36227e-06
2.36227e-06
2.24736e-06
2.24736e-06
2.13882e-06
2.13882e-06
2.0362e-06
2.0362e-06
1.93909e-06
1.93909e-06
1.84709e-06
1.84709e-06
1.75987e-06
1.75987e-06
1.67708e-06
1.67708e-06
1.59843e-06
1.59843e-06
1.52365e-06
1.52365e-06
1.45247e-06
1.45247e-06
1.38466e-06
1.38466e-06
1.32001e-06
1.32001e-06
1.25831e-06
1.25831e-06
1.19938e-06
1.19938e-06
1.14306e-06
1.14306e-06
1.08917e-06
1.08917e-06
1.03759e-06
1.03759e-06
9.88172e-07
9.88172e-07
9.40802e-07
9.40802e-07
8.95366e-07
8.95366e-07
8.51762e-07
8.51762e-07
8.09895e-07
8.09895e-07
7.69679e-07
7.69679e-07
7.31033e-07
7.31033e-07
6.93886e-07
6.93886e-07
6.58171e-07
6.58171e-07
6.23825e-07
6.23825e-07
5.90794e-07
5.90794e-07
5.59027e-07
5.59027e-07
5.28476e-07
5.28476e-07
4.99098e-07
4.99098e-07
4.70854e-07
4.70854e-07
4.43709e-07
4.43709e-07
4.17628e-07
4.17628e-07
3.92583e-07
3.92583e-07
3.68545e-07
3.68545e-07
3.45487e-07
3.45487e-07
3.23388e-07
3.23388e-07
3.02223e-07
3.02223e-07
2.81973e-07
2.81973e-07
2.62617e-07
2.62617e-07
2.44138e-07
2.44138e-07
2.26518e-07
2.26518e-07
2.09739e-07
2.09739e-07
1.93785e-07
1.93785e-07
1.7864e-07
1.7864e-07
1.64287e-07
1.64287e-07
1.5071e-07
1.5071e-07
1.37894e-07
1.37894e-07
1.2582e-07
1.2582e-07
1.14473e-07
1.14473e-07
1.03833e-07
1.03833e-07
9.38844e-08
9.38844e-08
8.46065e-08
8.46065e-08
7.59798e-08
7.59798e-08
6.79837e-08
6.79837e-08
6.05967e-08
6.05967e-08
5.37962e-08
5.37962e-08
4.7559e-08
4.7559e-08
4.18608e-08
4.18608e-08
3.66765e-08
3.66765e-08
3.19803e-08
3.19803e-08
2.77458e-08
2.77458e-08
2.3946e-08
2.3946e-08
2.05535e-08
2.05535e-08
1.75408e-08
1.75408e-08
1.48801e-08
1.48801e-08
1.25441e-08
1.25441e-08
1.05057e-08
1.05057e-08
8.7382e-09
8.7382e-09
7.21588e-09
7.21588e-09
5.91385e-09
5.91385e-09
4.80835e-09
4.80835e-09
3.87686e-09
3.87686e-09
3.09827e-09
3.09827e-09
2.45293e-09
2.45293e-09
1.92275e-09
1.92275e-09
1.49124e-09
1.49124e-09
1.14348e-09
1.14348e-09
8.66153e-10
8.66153e-10
6.4746e-10
6.4746e-10
4.77071e-10
4.77071e-10
3.46035e-10
3.46035e-10
2.46682e-10
2.46682e-10
1.72514e-10
1.72514e-10
1.18091e-10
1.18091e-10
7.89158e-11
7.89158e-11
5.13222e-11
5.13222e-11
3.23614e-11
3.23614e-11
1.97008e-11
1.97008e-11
1.1527e-11
1.1527e-11
6.45842e-12
6.45842e-12
3.46673e-12
3.46673e-12
1.80752e-12