/*--------------------------------*- C++ -*----------------------------------*\
| =========                 |                                                 |
| \\      /  F ield         | OpenFOAM: The Open Source CFD Toolbox           |
|  \\    /   O peration     | Version:  2106                                  |
|   \\  /    A nd           | Website:  www.openfoam.com                      |
|    \\/     M anipulation  |                                                 |
\*---------------------------------------------------------------------------*/
FoamFile
{
    version     2.0;
    format      ascii;
    arch        "LSB;label=32;scalar=64";
    class       volScalarField;
    location    "1000";
    object      omega;
}
// * * * * * * * * * * * * * * * * * * * * * * * * * * * * * * * * * * * * * //

dimensions      [0 0 -1 0 0 0 0];

internalField   nonuniform List<scalar> 
2560
(
1.52415e+06
1.52415e+06
265169
265169
89885.2
89885.2
42385.2
42385.2
24023.3
24023.3
15257.2
15257.2
10457.8
10457.8
7568.26
7568.26
5703.49
5703.49
4434.93
4434.93
3535.57
3535.57
2876.45
2876.45
2380.09
2380.09
1997.75
1997.75
1697.54
1697.54
1457.93
1457.93
1263.96
1263.96
1105
1105
973.313
973.313
863.162
863.162
770.237
770.237
691.241
691.241
623.618
623.618
565.367
565.367
514.898
514.898
470.94
470.94
432.464
432.464
398.633
398.633
368.757
368.757
342.267
342.267
318.688
318.688
297.622
297.622
278.735
278.735
261.741
261.741
246.399
246.399
232.503
232.503
219.875
219.875
208.362
208.362
197.833
197.833
188.172
188.172
179.281
179.281
171.073
171.073
163.471
163.471
156.41
156.41
149.831
149.831
143.685
143.685
137.925
137.925
132.513
132.513
127.414
127.414
122.597
122.597
118.035
118.035
113.705
113.705
109.585
109.585
105.657
105.657
101.905
101.905
98.3138
98.3138
94.8708
94.8708
91.5646
91.5646
88.3852
88.3852
85.3236
85.3236
82.3721
82.3721
79.5235
79.5235
76.7718
76.7718
74.1113
74.1113
71.5373
71.5373
69.0452
69.0452
66.6313
66.6313
64.2919
64.2919
62.0241
62.0241
59.825
59.825
57.692
57.692
55.6228
55.6228
53.6154
53.6154
51.6678
51.6678
49.7783
49.7783
47.9452
47.9452
46.1669
46.1669
44.4422
44.4422
42.7696
42.7696
41.148
41.148
39.576
39.576
38.0525
38.0525
36.5764
36.5764
35.1467
35.1467
33.7622
33.7622
32.4221
32.4221
31.1252
31.1252
29.8706
29.8706
28.6574
28.6574
27.4845
27.4845
26.351
26.351
25.2561
25.2561
24.1987
24.1987
23.1779
23.1779
22.1929
22.1929
21.2427
21.2427
20.3264
20.3264
19.4432
19.4432
18.5921
18.5921
17.7723
17.7723
16.9828
16.9828
16.223
16.223
15.4917
15.4917
14.7883
14.7883
14.1119
14.1119
13.4617
13.4617
12.8368
12.8368
12.2365
12.2365
11.6599
11.6599
11.1063
11.1063
10.575
10.575
10.0651
10.0651
9.5759
9.5759
9.10674
9.10674
8.65689
8.65689
8.22566
8.22566
7.81239
7.81239
7.4164
7.4164
7.03708
7.03708
6.67379
6.67379
6.32595
6.32595
5.99296
5.99296
5.67426
5.67426
5.3693
5.3693
5.07756
5.07756
4.79853
4.79853
4.53171
4.53171
4.27663
4.27663
4.03284
4.03284
3.7999
3.7999
3.5774
3.5774
3.36493
3.36493
3.16211
3.16211
2.96858
2.96858
2.78399
2.78399
2.608
2.608
2.44031
2.44031
2.28061
2.28061
2.12863
2.12863
1.98409
1.98409
1.84673
1.84673
1.71633
1.71633
1.59265
1.59265
1.47547
1.47547
1.3646
1.3646
1.25983
1.25983
1.16099
1.16099
1.06789
1.06789
0.98037
0.98037
0.898256
0.898256
0.821388
0.821389
0.749607
0.749607
0.68275
0.68275
0.620656
0.620656
0.563158
0.563158
0.510083
0.510083
0.461255
0.461255
0.416487
0.416487
0.375585
0.375585
0.338348
0.338348
0.304565
0.304565
0.274021
0.274021
0.246495
0.246495
0.221767
0.221767
0.199613
0.199613
0.179817
0.179817
0.162165
0.162165
0.146454
0.146454
0.132492
0.132492
0.120095
0.120095
0.109098
0.109098
0.0993446
0.0993446
0.0906948
0.0906948
0.0830216
0.0830216
0.0762109
0.0762109
0.0701609
0.0701609
0.0647815
0.0647815
0.0599928
0.0599928
0.0557243
0.0557243
0.0519143
0.0519143
0.0485084
0.0485084
0.0454592
0.0454592
0.0427249
0.0427249
0.0402692
0.0402692
0.0380601
0.0380601
0.0360698
0.0360698
0.0342739
0.0342739
0.0326509
0.0326509
0.031182
0.031182
0.0298509
0.0298509
0.0286429
0.0286429
0.0275454
0.0275454
0.026547
0.026547
0.0256378
0.0256378
0.0248091
0.0248091
0.024053
0.024053
0.0233626
0.0233626
0.0227318
0.0227318
0.022155
0.022155
0.0216275
0.0216275
0.0211447
0.0211447
0.0207028
0.0207028
0.0202983
0.0202983
0.019928
0.019928
0.0195891
0.0195891
0.019279
0.019279
0.0189954
0.0189954
0.0187362
0.0187362
0.0184995
0.0184995
0.0182835
0.0182835
0.0180868
0.0180868
0.0179077
0.0179077
0.0177452
0.0177452
0.0175979
0.0175979
0.0174648
0.0174648
0.0173448
0.0173448
0.0172372
0.0172372
0.0171409
0.0171409
0.0170553
0.0170553
0.0169796
0.0169796
0.0169131
0.0169131
0.0168554
0.0168554
0.0168057
0.0168057
0.0167637
0.0167637
0.0167287
0.0167287
0.0167004
0.0167004
0.0166783
0.0166783
0.0166621
0.0166621
0.0166514
0.0166514
0.0166458
0.0166458
0.0166451
0.0166451
0.0166489
0.0166489
0.016657
0.016657
0.0166692
0.0166692
0.0166851
0.0166851
0.0167046
0.0167046
0.0167274
0.0167274
0.0167533
0.0167533
0.0167822
0.0167822
0.0168138
0.0168138
0.016848
0.016848
0.0168847
0.0168847
0.0169235
0.0169235
0.0169645
0.0169645
0.0170074
0.0170074
0.0170521
0.0170521
0.0170985
0.0170985
0.0171464
0.0171464
0.0171957
0.0171957
0.0172462
0.0172462
0.0172979
0.0172979
0.0173506
0.0173506
0.0174041
0.0174041
0.0174584
0.0174584
0.0175133
0.0175133
0.0175687
0.0175687
0.0176245
0.0176245
0.0176805
0.0176805
0.0177366
0.0177366
0.0177927
0.0177927
0.0178487
0.0178487
0.0179044
0.0179044
0.0179597
0.0179597
0.0180144
0.0180144
0.0180685
0.0180685
0.0181218
0.0181218
0.0181741
0.0181741
0.0182253
0.0182253
0.0182752
0.0182752
0.0183238
0.0183238
0.0183708
0.0183708
0.0184161
0.0184161
0.0184596
0.0184596
0.0185011
0.0185011
0.0185404
0.0185404
0.0185774
0.0185774
0.018612
0.018612
0.0186439
0.0186439
0.0186731
0.0186731
0.0186993
0.0186993
0.0187224
0.0187224
0.0187423
0.0187423
0.0187587
0.0187587
0.0187716
0.0187716
0.0187809
0.0187809
0.0187862
0.0187862
0.0187877
0.0187877
0.018785
0.018785
0.0187781
0.0187781
0.018767
0.018767
0.0187514
0.0187514
0.0187314
0.0187314
0.0187068
0.0187068
0.0186777
0.0186777
0.0186441
0.0186441
0.0186059
0.0186059
0.0185632
0.0185632
0.0185161
0.0185161
0.0184647
0.0184647
0.0184092
0.0184092
0.0183497
0.0183497
0.0182865
0.0182865
0.01822
0.01822
0.0181506
0.0181506
0.0180785
0.0180786
0.0180045
0.0180045
0.017929
0.017929
0.0178528
0.0178528
0.0177765
0.0177765
0.0177009
0.0177009
0.0176271
0.0176271
0.0175559
0.0175559
0.0174884
0.0174884
0.0174257
0.0174257
0.0173688
0.0173688
0.017319
0.017319
0.0172773
0.0172773
0.0172447
0.0172447
0.0172223
0.0172223
0.0172107
0.0172107
1.52415e+06
1.52415e+06
265169
265169
89885.2
89885.2
42385.2
42385.2
24023.3
24023.3
15257.2
15257.2
10457.8
10457.8
7568.26
7568.26
5703.49
5703.49
4434.93
4434.93
3535.57
3535.57
2876.45
2876.45
2380.09
2380.09
1997.75
1997.75
1697.54
1697.54
1457.93
1457.93
1263.96
1263.96
1105
1105
973.313
973.313
863.162
863.162
770.237
770.237
691.241
691.241
623.618
623.618
565.367
565.367
514.898
514.898
470.94
470.94
432.464
432.464
398.633
398.633
368.757
368.757
342.267
342.267
318.688
318.688
297.622
297.622
278.735
278.735
261.741
261.741
246.399
246.399
232.503
232.503
219.875
219.875
208.362
208.362
197.833
197.833
188.172
188.172
179.281
179.281
171.073
171.073
163.471
163.471
156.41
156.41
149.831
149.831
143.685
143.685
137.925
137.925
132.513
132.513
127.414
127.414
122.597
122.597
118.035
118.035
113.705
113.705
109.585
109.585
105.657
105.657
101.905
101.905
98.3138
98.3138
94.8708
94.8708
91.5646
91.5646
88.3852
88.3852
85.3236
85.3236
82.3721
82.3721
79.5235
79.5235
76.7718
76.7718
74.1113
74.1113
71.5373
71.5373
69.0452
69.0452
66.6313
66.6313
64.2919
64.2919
62.0241
62.0241
59.825
59.825
57.692
57.692
55.6228
55.6228
53.6154
53.6154
51.6678
51.6678
49.7783
49.7783
47.9452
47.9452
46.1669
46.1669
44.4422
44.4422
42.7696
42.7696
41.148
41.148
39.576
39.576
38.0525
38.0525
36.5764
36.5764
35.1467
35.1467
33.7622
33.7622
32.4221
32.4221
31.1252
31.1252
29.8706
29.8706
28.6574
28.6574
27.4845
27.4845
26.351
26.351
25.2561
25.2561
24.1987
24.1987
23.1779
23.1779
22.1929
22.1929
21.2427
21.2427
20.3264
20.3264
19.4432
19.4432
18.5921
18.5921
17.7723
17.7723
16.9828
16.9828
16.223
16.223
15.4917
15.4917
14.7883
14.7883
14.1119
14.1119
13.4617
13.4617
12.8368
12.8368
12.2365
12.2365
11.6599
11.6599
11.1063
11.1063
10.575
10.575
10.0651
10.0651
9.5759
9.5759
9.10674
9.10674
8.65689
8.65689
8.22566
8.22566
7.81239
7.81239
7.4164
7.4164
7.03708
7.03708
6.67379
6.67379
6.32595
6.32595
5.99296
5.99296
5.67426
5.67426
5.3693
5.3693
5.07756
5.07756
4.79853
4.79853
4.53171
4.53171
4.27663
4.27663
4.03284
4.03284
3.7999
3.7999
3.5774
3.5774
3.36493
3.36493
3.16211
3.16211
2.96858
2.96858
2.78399
2.78399
2.608
2.608
2.44031
2.44031
2.28061
2.28061
2.12863
2.12863
1.98409
1.98409
1.84673
1.84673
1.71633
1.71633
1.59265
1.59265
1.47547
1.47547
1.3646
1.3646
1.25983
1.25983
1.16099
1.16099
1.06789
1.06789
0.98037
0.98037
0.898256
0.898256
0.821389
0.821389
0.749607
0.749607
0.68275
0.682751
0.620656
0.620656
0.563158
0.563158
0.510083
0.510083
0.461255
0.461255
0.416487
0.416487
0.375585
0.375585
0.338348
0.338348
0.304565
0.304565
0.274021
0.274021
0.246495
0.246495
0.221767
0.221767
0.199613
0.199613
0.179817
0.179817
0.162165
0.162165
0.146454
0.146454
0.132492
0.132492
0.120095
0.120095
0.109098
0.109098
0.0993446
0.0993446
0.0906949
0.0906949
0.0830216
0.0830216
0.0762109
0.0762109
0.0701609
0.0701609
0.0647815
0.0647815
0.0599928
0.0599928
0.0557243
0.0557243
0.0519143
0.0519143
0.0485084
0.0485085
0.0454592
0.0454592
0.0427249
0.0427249
0.0402692
0.0402692
0.0380601
0.0380601
0.0360698
0.0360698
0.0342739
0.0342739
0.0326509
0.0326509
0.031182
0.031182
0.0298509
0.0298509
0.0286429
0.0286429
0.0275454
0.0275454
0.026547
0.026547
0.0256378
0.0256378
0.0248091
0.0248091
0.024053
0.024053
0.0233626
0.0233626
0.0227318
0.0227318
0.022155
0.022155
0.0216275
0.0216275
0.0211447
0.0211447
0.0207028
0.0207028
0.0202983
0.0202983
0.019928
0.019928
0.0195891
0.0195891
0.019279
0.019279
0.0189954
0.0189954
0.0187362
0.0187362
0.0184995
0.0184995
0.0182835
0.0182835
0.0180868
0.0180868
0.0179077
0.0179077
0.0177452
0.0177452
0.0175979
0.0175979
0.0174648
0.0174648
0.0173448
0.0173448
0.0172372
0.0172372
0.0171409
0.0171409
0.0170553
0.0170553
0.0169796
0.0169796
0.0169131
0.0169131
0.0168554
0.0168554
0.0168057
0.0168057
0.0167637
0.0167637
0.0167287
0.0167287
0.0167004
0.0167004
0.0166783
0.0166783
0.0166621
0.0166621
0.0166514
0.0166514
0.0166458
0.0166458
0.0166451
0.0166451
0.0166489
0.0166489
0.016657
0.016657
0.0166692
0.0166692
0.0166851
0.0166851
0.0167046
0.0167046
0.0167274
0.0167274
0.0167533
0.0167533
0.0167822
0.0167822
0.0168138
0.0168138
0.016848
0.016848
0.0168847
0.0168847
0.0169235
0.0169235
0.0169645
0.0169645
0.0170074
0.0170074
0.0170521
0.0170521
0.0170985
0.0170985
0.0171464
0.0171464
0.0171957
0.0171957
0.0172462
0.0172462
0.0172979
0.0172979
0.0173506
0.0173506
0.0174041
0.0174041
0.0174584
0.0174584
0.0175133
0.0175133
0.0175687
0.0175687
0.0176245
0.0176245
0.0176805
0.0176805
0.0177366
0.0177366
0.0177927
0.0177927
0.0178487
0.0178487
0.0179044
0.0179044
0.0179597
0.0179597
0.0180144
0.0180144
0.0180685
0.0180685
0.0181218
0.0181218
0.0181741
0.0181741
0.0182253
0.0182253
0.0182752
0.0182752
0.0183238
0.0183238
0.0183708
0.0183708
0.0184161
0.0184161
0.0184596
0.0184596
0.0185011
0.0185011
0.0185404
0.0185404
0.0185774
0.0185774
0.018612
0.018612
0.0186439
0.0186439
0.0186731
0.0186731
0.0186993
0.0186993
0.0187224
0.0187224
0.0187423
0.0187423
0.0187587
0.0187587
0.0187716
0.0187716
0.0187809
0.0187809
0.0187862
0.0187862
0.0187877
0.0187877
0.018785
0.018785
0.0187781
0.0187781
0.018767
0.018767
0.0187514
0.0187514
0.0187314
0.0187314
0.0187068
0.0187068
0.0186777
0.0186778
0.0186441
0.0186441
0.0186059
0.0186059
0.0185632
0.0185632
0.0185161
0.0185161
0.0184647
0.0184647
0.0184092
0.0184092
0.0183497
0.0183497
0.0182865
0.0182865
0.01822
0.01822
0.0181506
0.0181506
0.0180786
0.0180786
0.0180045
0.0180045
0.017929
0.017929
0.0178528
0.0178528
0.0177765
0.0177765
0.0177009
0.017701
0.0176271
0.0176271
0.0175559
0.0175559
0.0174884
0.0174884
0.0174257
0.0174257
0.0173688
0.0173689
0.017319
0.017319
0.0172773
0.0172773
0.0172447
0.0172447
0.0172223
0.0172223
0.0172108
0.0172108
0.0172107
0.0172107
0.0172223
0.0172223
0.0172447
0.0172447
0.0172773
0.0172773
0.017319
0.017319
0.0173688
0.0173688
0.0174257
0.0174257
0.0174884
0.0174884
0.0175559
0.0175559
0.0176271
0.0176271
0.0177009
0.0177009
0.0177764
0.0177765
0.0178528
0.0178528
0.017929
0.017929
0.0180045
0.0180045
0.0180786
0.0180786
0.0181506
0.0181506
0.0182201
0.0182201
0.0182866
0.0182866
0.0183497
0.0183497
0.0184092
0.0184092
0.0184648
0.0184648
0.0185162
0.0185162
0.0185633
0.0185633
0.018606
0.018606
0.0186442
0.0186442
0.0186779
0.0186779
0.018707
0.018707
0.0187315
0.0187315
0.0187516
0.0187516
0.0187671
0.0187671
0.0187783
0.0187783
0.0187852
0.0187852
0.0187879
0.0187879
0.0187865
0.0187865
0.0187811
0.0187811
0.0187719
0.0187719
0.018759
0.018759
0.0187425
0.0187425
0.0187227
0.0187227
0.0186995
0.0186995
0.0186733
0.0186733
0.0186442
0.0186442
0.0186123
0.0186123
0.0185777
0.0185777
0.0185407
0.0185407
0.0185014
0.0185014
0.0184599
0.0184599
0.0184164
0.0184164
0.0183711
0.0183711
0.018324
0.018324
0.0182755
0.0182755
0.0182255
0.0182255
0.0181743
0.0181743
0.018122
0.018122
0.0180688
0.0180688
0.0180147
0.0180147
0.01796
0.01796
0.0179047
0.0179047
0.017849
0.017849
0.017793
0.017793
0.0177369
0.0177369
0.0176807
0.0176807
0.0176247
0.0176247
0.017569
0.017569
0.0175135
0.0175135
0.0174586
0.0174586
0.0174043
0.0174043
0.0173508
0.0173508
0.0172981
0.0172981
0.0172464
0.0172464
0.0171959
0.0171959
0.0171466
0.0171466
0.0170987
0.0170987
0.0170523
0.0170523
0.0170076
0.0170076
0.0169647
0.0169647
0.0169237
0.0169237
0.0168848
0.0168848
0.0168482
0.0168482
0.016814
0.016814
0.0167824
0.0167824
0.0167535
0.0167535
0.0167275
0.0167275
0.0167047
0.0167047
0.0166852
0.0166852
0.0166693
0.0166693
0.0166572
0.0166572
0.016649
0.016649
0.0166452
0.0166452
0.0166459
0.0166459
0.0166515
0.0166515
0.0166622
0.0166622
0.0166784
0.0166784
0.0167004
0.0167004
0.0167288
0.0167288
0.0167637
0.0167637
0.0168058
0.0168058
0.0168554
0.0168554
0.0169132
0.0169132
0.0169796
0.0169796
0.0170553
0.0170553
0.0171409
0.0171409
0.0172372
0.0172372
0.0173448
0.0173448
0.0174648
0.0174648
0.0175979
0.0175979
0.0177452
0.0177452
0.0179077
0.0179077
0.0180867
0.0180867
0.0182835
0.0182835
0.0184994
0.0184994
0.0187361
0.0187361
0.0189954
0.0189954
0.0192789
0.0192789
0.019589
0.019589
0.0199279
0.0199279
0.0202982
0.0202982
0.0207027
0.0207027
0.0211445
0.0211445
0.0216272
0.0216272
0.0221548
0.0221548
0.0227315
0.0227315
0.0233623
0.0233623
0.0240527
0.0240527
0.0248087
0.0248087
0.0256374
0.0256374
0.0265465
0.0265465
0.0275449
0.0275449
0.0286424
0.0286424
0.0298503
0.0298503
0.0311813
0.0311813
0.0326501
0.0326501
0.034273
0.034273
0.0360688
0.0360688
0.038059
0.038059
0.040268
0.040268
0.0427235
0.0427235
0.0454577
0.0454577
0.0485067
0.0485067
0.0519124
0.0519124
0.0557222
0.0557222
0.0599904
0.0599904
0.0647788
0.0647788
0.0701579
0.0701579
0.0762075
0.0762075
0.0830178
0.0830178
0.0906906
0.0906906
0.0993398
0.0993398
0.109093
0.109093
0.120089
0.120089
0.132485
0.132485
0.146447
0.146447
0.162157
0.162157
0.179807
0.179807
0.199603
0.199603
0.221756
0.221756
0.246483
0.246483
0.274007
0.274007
0.30455
0.30455
0.338332
0.338332
0.375569
0.375569
0.416469
0.416469
0.461236
0.461236
0.510064
0.510064
0.563137
0.563137
0.620635
0.620635
0.682728
0.682728
0.749584
0.749584
0.821365
0.821365
0.898232
0.898232
0.980345
0.980345
1.06787
1.06787
1.16096
1.16097
1.25981
1.25981
1.36457
1.36457
1.47545
1.47545
1.59262
1.59262
1.71631
1.71631
1.84671
1.84671
1.98406
1.98406
2.1286
2.1286
2.28059
2.28059
2.44029
2.44029
2.60798
2.60798
2.78396
2.78396
2.96856
2.96856
3.16209
3.16209
3.36491
3.36491
3.57738
3.57738
3.79989
3.79989
4.03283
4.03283
4.27662
4.27662
4.53169
4.53169
4.79851
4.79851
5.07755
5.07755
5.36929
5.36929
5.67425
5.67425
5.99295
5.99295
6.32594
6.32594
6.67378
6.67378
7.03707
7.03707
7.41639
7.41639
7.81238
7.81238
8.22566
8.22566
8.65689
8.65689
9.10674
9.10674
9.5759
9.5759
10.0651
10.0651
10.575
10.575
11.1063
11.1063
11.6599
11.6599
12.2365
12.2365
12.8368
12.8368
13.4617
13.4617
14.1119
14.1119
14.7883
14.7883
15.4917
15.4917
16.223
16.223
16.9828
16.9828
17.7723
17.7723
18.5921
18.5921
19.4432
19.4432
20.3264
20.3264
21.2427
21.2427
22.1929
22.1929
23.1779
23.1779
24.1987
24.1987
25.2561
25.2561
26.351
26.351
27.4845
27.4845
28.6574
28.6574
29.8706
29.8706
31.1252
31.1252
32.4221
32.4221
33.7622
33.7622
35.1467
35.1467
36.5764
36.5764
38.0525
38.0525
39.576
39.576
41.148
41.148
42.7696
42.7696
44.4422
44.4422
46.1669
46.1669
47.9452
47.9452
49.7783
49.7783
51.6678
51.6678
53.6154
53.6154
55.6228
55.6228
57.692
57.692
59.825
59.825
62.0241
62.0241
64.2919
64.2919
66.6313
66.6313
69.0452
69.0452
71.5373
71.5373
74.1113
74.1113
76.7718
76.7718
79.5235
79.5235
82.3721
82.3721
85.3236
85.3236
88.3852
88.3852
91.5646
91.5646
94.8708
94.8708
98.3138
98.3138
101.905
101.905
105.657
105.657
109.585
109.585
113.705
113.705
118.035
118.035
122.597
122.597
127.414
127.414
132.513
132.513
137.925
137.925
143.685
143.685
149.831
149.831
156.41
156.41
163.471
163.471
171.073
171.073
179.281
179.281
188.172
188.172
197.833
197.833
208.362
208.362
219.875
219.875
232.503
232.503
246.399
246.399
261.741
261.741
278.735
278.735
297.622
297.622
318.688
318.688
342.267
342.267
368.757
368.757
398.633
398.633
432.464
432.464
470.94
470.94
514.898
514.898
565.367
565.367
623.619
623.619
691.241
691.241
770.237
770.237
863.162
863.162
973.313
973.313
1105
1105
1263.96
1263.96
1457.93
1457.93
1697.54
1697.54
1997.75
1997.75
2380.09
2380.09
2876.45
2876.45
3535.57
3535.57
4434.93
4434.93
5703.49
5703.49
7568.26
7568.26
10457.8
10457.8
15257.2
15257.2
24023.3
24023.3
42385.2
42385.2
89885.4
89885.4
265169
265169
1.52416e+06
1.52416e+06
0.0172108
0.0172108
0.0172223
0.0172223
0.0172447
0.0172447
0.0172773
0.0172773
0.017319
0.017319
0.0173688
0.0173688
0.0174257
0.0174257
0.0174884
0.0174884
0.0175559
0.0175559
0.0176271
0.0176271
0.0177009
0.0177009
0.0177765
0.0177765
0.0178528
0.0178528
0.017929
0.017929
0.0180045
0.0180045
0.0180786
0.0180786
0.0181506
0.0181506
0.0182201
0.0182201
0.0182866
0.0182866
0.0183497
0.0183497
0.0184092
0.0184092
0.0184648
0.0184648
0.0185162
0.0185162
0.0185633
0.0185633
0.018606
0.018606
0.0186442
0.0186442
0.0186779
0.0186779
0.018707
0.018707
0.0187315
0.0187315
0.0187516
0.0187516
0.0187671
0.0187671
0.0187783
0.0187783
0.0187852
0.0187852
0.0187879
0.0187879
0.0187865
0.0187865
0.0187811
0.0187811
0.0187719
0.0187719
0.018759
0.018759
0.0187425
0.0187425
0.0187227
0.0187227
0.0186995
0.0186996
0.0186733
0.0186733
0.0186442
0.0186442
0.0186123
0.0186123
0.0185777
0.0185777
0.0185407
0.0185407
0.0185014
0.0185014
0.0184599
0.0184599
0.0184164
0.0184164
0.0183711
0.0183711
0.018324
0.018324
0.0182755
0.0182755
0.0182255
0.0182255
0.0181743
0.0181743
0.018122
0.018122
0.0180688
0.0180688
0.0180147
0.0180147
0.01796
0.01796
0.0179047
0.0179047
0.017849
0.017849
0.017793
0.017793
0.0177369
0.0177369
0.0176807
0.0176807
0.0176247
0.0176247
0.017569
0.017569
0.0175135
0.0175135
0.0174586
0.0174586
0.0174043
0.0174043
0.0173508
0.0173508
0.0172981
0.0172981
0.0172464
0.0172464
0.0171959
0.0171959
0.0171466
0.0171466
0.0170987
0.0170987
0.0170523
0.0170523
0.0170076
0.0170076
0.0169647
0.0169647
0.0169237
0.0169237
0.0168848
0.0168848
0.0168482
0.0168482
0.016814
0.016814
0.0167824
0.0167824
0.0167535
0.0167535
0.0167275
0.0167275
0.0167047
0.0167047
0.0166852
0.0166852
0.0166693
0.0166693
0.0166572
0.0166572
0.016649
0.016649
0.0166452
0.0166452
0.0166459
0.0166459
0.0166515
0.0166515
0.0166622
0.0166622
0.0166784
0.0166784
0.0167004
0.0167004
0.0167288
0.0167288
0.0167637
0.0167637
0.0168058
0.0168058
0.0168554
0.0168554
0.0169132
0.0169132
0.0169796
0.0169796
0.0170553
0.0170553
0.0171409
0.0171409
0.0172372
0.0172372
0.0173448
0.0173448
0.0174648
0.0174648
0.0175979
0.0175979
0.0177452
0.0177452
0.0179077
0.0179077
0.0180867
0.0180867
0.0182835
0.0182835
0.0184994
0.0184994
0.0187361
0.0187361
0.0189954
0.0189954
0.0192789
0.0192789
0.019589
0.019589
0.0199279
0.0199279
0.0202982
0.0202982
0.0207027
0.0207027
0.0211445
0.0211445
0.0216272
0.0216272
0.0221548
0.0221548
0.0227315
0.0227315
0.0233623
0.0233623
0.0240527
0.0240527
0.0248087
0.0248087
0.0256374
0.0256374
0.0265465
0.0265465
0.0275449
0.0275449
0.0286424
0.0286424
0.0298503
0.0298503
0.0311813
0.0311813
0.0326501
0.0326501
0.034273
0.034273
0.0360688
0.0360688
0.038059
0.038059
0.040268
0.040268
0.0427235
0.0427235
0.0454577
0.0454577
0.0485067
0.0485067
0.0519124
0.0519124
0.0557222
0.0557222
0.0599904
0.0599904
0.0647788
0.0647788
0.0701579
0.0701579
0.0762075
0.0762075
0.0830178
0.0830178
0.0906906
0.0906906
0.0993398
0.0993398
0.109093
0.109093
0.120089
0.120089
0.132485
0.132485
0.146447
0.146447
0.162157
0.162157
0.179807
0.179807
0.199603
0.199603
0.221756
0.221756
0.246483
0.246483
0.274007
0.274007
0.30455
0.30455
0.338332
0.338332
0.375569
0.375569
0.416469
0.416469
0.461236
0.461236
0.510064
0.510064
0.563137
0.563137
0.620635
0.620635
0.682728
0.682728
0.749584
0.749584
0.821365
0.821365
0.898232
0.898232
0.980345
0.980345
1.06787
1.06787
1.16096
1.16097
1.25981
1.25981
1.36457
1.36457
1.47545
1.47545
1.59262
1.59262
1.71631
1.71631
1.84671
1.84671
1.98406
1.98406
2.1286
2.1286
2.28059
2.28059
2.44029
2.44029
2.60798
2.60798
2.78396
2.78396
2.96856
2.96856
3.16209
3.16209
3.36491
3.36491
3.57738
3.57738
3.79989
3.79989
4.03283
4.03283
4.27662
4.27662
4.53169
4.53169
4.79851
4.79851
5.07755
5.07755
5.36929
5.36929
5.67425
5.67425
5.99295
5.99295
6.32594
6.32594
6.67378
6.67378
7.03707
7.03707
7.41639
7.41639
7.81238
7.81238
8.22566
8.22566
8.65689
8.65689
9.10674
9.10674
9.5759
9.5759
10.0651
10.0651
10.575
10.575
11.1063
11.1063
11.6599
11.6599
12.2365
12.2365
12.8368
12.8368
13.4617
13.4617
14.1119
14.1119
14.7883
14.7883
15.4917
15.4917
16.223
16.223
16.9828
16.9828
17.7723
17.7723
18.5921
18.5921
19.4432
19.4432
20.3264
20.3264
21.2427
21.2427
22.1929
22.1929
23.1779
23.1779
24.1987
24.1987
25.2561
25.2561
26.351
26.351
27.4845
27.4845
28.6574
28.6574
29.8706
29.8706
31.1252
31.1252
32.4221
32.4221
33.7622
33.7622
35.1467
35.1467
36.5764
36.5764
38.0525
38.0525
39.576
39.576
41.148
41.148
42.7696
42.7696
44.4422
44.4422
46.1669
46.1669
47.9452
47.9452
49.7783
49.7783
51.6678
51.6678
53.6154
53.6154
55.6228
55.6228
57.692
57.692
59.825
59.825
62.0241
62.0241
64.2919
64.2919
66.6313
66.6313
69.0452
69.0452
71.5373
71.5373
74.1113
74.1113
76.7718
76.7718
79.5235
79.5235
82.3721
82.3721
85.3236
85.3236
88.3852
88.3852
91.5646
91.5646
94.8708
94.8708
98.3138
98.3138
101.905
101.905
105.657
105.657
109.585
109.585
113.705
113.705
118.035
118.035
122.597
122.597
127.414
127.414
132.513
132.513
137.925
137.925
143.685
143.685
149.831
149.831
156.41
156.41
163.471
163.471
171.073
171.073
179.281
179.281
188.172
188.172
197.833
197.833
208.362
208.362
219.875
219.875
232.503
232.503
246.399
246.399
261.741
261.741
278.735
278.735
297.622
297.622
318.688
318.688
342.267
342.267
368.757
368.757
398.633
398.633
432.464
432.464
470.94
470.94
514.898
514.898
565.367
565.367
623.619
623.619
691.241
691.241
770.237
770.237
863.162
863.162
973.313
973.313
1105
1105
1263.96
1263.96
1457.93
1457.93
1697.54
1697.54
1997.75
1997.75
2380.09
2380.09
2876.45
2876.45
3535.57
3535.57
4434.93
4434.93
5703.49
5703.49
7568.26
7568.26
10457.8
10457.8
15257.2
15257.2
24023.3
24023.3
42385.2
42385.2
89885.4
89885.4
265169
265169
1.52416e+06
1.52416e+06
)
;

boundaryField
{
    walls
    {
        blending        binomial2;
        n               2;
        beta1           0.075;
        type            omegaWallFunction;
        value           nonuniform List<scalar> 8(1.52415e+06 1.52415e+06 1.52415e+06 1.52415e+06 1.52416e+06 1.52416e+06 1.52416e+06 1.52416e+06);
    }
    inlet
    {
        type            cyclic;
    }
    outlet
    {
        type            cyclic;
    }
    sides
    {
        type            empty;
    }
}


// ************************************************************************* //
