/*--------------------------------*- C++ -*----------------------------------*\
| =========                 |                                                 |
| \\      /  F ield         | OpenFOAM: The Open Source CFD Toolbox           |
|  \\    /   O peration     | Version:  2012                                  |
|   \\  /    A nd           | Website:  www.openfoam.com                      |
|    \\/     M anipulation  |                                                 |
\*---------------------------------------------------------------------------*/
FoamFile
{
    version     2.0;
    format      ascii;
    class       volScalarField;
    location    "15400";
    object      nut;
}
// * * * * * * * * * * * * * * * * * * * * * * * * * * * * * * * * * * * * * //

dimensions      [0 2 -1 0 0 0 0];


internalField   nonuniform List<scalar> 
2560
(
5.67634e-09
5.67634e-09
7.89418e-07
7.89418e-07
1.63492e-05
1.63492e-05
0.00010663
0.00010663
0.000325671
0.000325671
0.000651752
0.000651752
0.00104754
0.00104754
0.00148937
0.00148937
0.00196345
0.00196345
0.00246122
0.00246122
0.00297692
0.00297692
0.00350645
0.00350645
0.00404671
0.00404671
0.00459531
0.00459531
0.00515033
0.00515033
0.00571017
0.00571017
0.00627349
0.00627349
0.00683915
0.00683915
0.00740613
0.00740613
0.00797355
0.00797355
0.0085406
0.0085406
0.00910656
0.00910656
0.00967074
0.00967074
0.0102325
0.0102325
0.0107913
0.0107913
0.0113466
0.0113466
0.0118977
0.0118977
0.0124443
0.0124443
0.0129857
0.0129857
0.0135216
0.0135216
0.0140515
0.0140515
0.0145748
0.0145748
0.0150912
0.0150912
0.0156003
0.0156003
0.0161016
0.0161016
0.0165946
0.0165946
0.0170792
0.0170792
0.0175548
0.0175548
0.0180211
0.0180211
0.0184779
0.0184779
0.0189249
0.0189249
0.0193617
0.0193617
0.0197883
0.0197883
0.0202045
0.0202045
0.0206101
0.0206101
0.0210052
0.0210052
0.0213897
0.0213897
0.0217639
0.0217639
0.0221278
0.0221278
0.0224819
0.0224819
0.0228265
0.0228265
0.0231622
0.0231622
0.0234897
0.0234897
0.0238096
0.0238096
0.0241232
0.0241232
0.0244314
0.0244314
0.0247355
0.0247355
0.0250372
0.0250372
0.0253379
0.0253379
0.0256398
0.0256398
0.0259446
0.0259446
0.0262549
0.0262549
0.0265728
0.0265728
0.026901
0.026901
0.0272422
0.0272422
0.027599
0.027599
0.0279742
0.0279742
0.0283706
0.0283706
0.0287907
0.0287907
0.0292371
0.0292371
0.0297118
0.0297118
0.0302167
0.0302167
0.0307534
0.0307534
0.0313229
0.0313229
0.0319257
0.0319257
0.0325618
0.0325618
0.0332307
0.0332307
0.0339313
0.0339313
0.0346619
0.0346619
0.0354206
0.0354206
0.0362049
0.0362049
0.037012
0.037012
0.0378389
0.0378389
0.0386822
0.0386822
0.0395387
0.0395387
0.0404048
0.0404048
0.0412773
0.0412773
0.0421528
0.0421528
0.0430281
0.0430281
0.0439001
0.0439001
0.0447661
0.0447661
0.0456234
0.0456234
0.0464696
0.0464696
0.0473025
0.0473025
0.0481202
0.0481202
0.048921
0.048921
0.0497036
0.0497036
0.0504665
0.0504665
0.0512089
0.0512089
0.0519299
0.0519299
0.0526288
0.0526288
0.0533053
0.0533053
0.0539589
0.0539589
0.0545895
0.0545895
0.055197
0.055197
0.0557816
0.0557816
0.0563433
0.0563433
0.0568824
0.0568824
0.0573992
0.0573992
0.0578941
0.0578941
0.0583674
0.0583674
0.0588197
0.0588197
0.0592514
0.0592514
0.059663
0.059663
0.0600551
0.0600551
0.0604282
0.0604282
0.0607829
0.0607829
0.0611196
0.0611196
0.061439
0.061439
0.0617415
0.0617415
0.0620277
0.0620277
0.0622981
0.0622981
0.0625531
0.0625531
0.0627933
0.0627933
0.0630191
0.0630191
0.0632309
0.0632309
0.0634292
0.0634292
0.0636144
0.0636144
0.0637867
0.0637867
0.0639467
0.0639467
0.0640945
0.0640945
0.0642307
0.0642307
0.0643554
0.0643554
0.0644689
0.0644689
0.0645716
0.0645716
0.0646637
0.0646637
0.0647454
0.0647454
0.0648171
0.0648171
0.0648788
0.0648788
0.064931
0.064931
0.0649737
0.0649737
0.0650073
0.0650073
0.0650318
0.0650318
0.0650475
0.0650475
0.0650546
0.0650546
0.0650532
0.0650532
0.0650437
0.0650437
0.0650261
0.0650261
0.0650008
0.0650008
0.0649678
0.0649678
0.0649274
0.0649274
0.0648799
0.0648799
0.0648255
0.0648255
0.0647645
0.0647645
0.0646971
0.0646971
0.0646235
0.0646235
0.0645442
0.0645442
0.0644593
0.0644593
0.0643693
0.0643693
0.0642745
0.0642745
0.0641751
0.0641751
0.0640716
0.0640716
0.0639642
0.0639642
0.0638532
0.0638532
0.0637389
0.0637389
0.0636216
0.0636216
0.0635014
0.0635014
0.0633787
0.0633787
0.0632534
0.0632534
0.0631259
0.0631259
0.0629961
0.0629961
0.0628643
0.0628643
0.0627307
0.0627307
0.0625953
0.0625953
0.0624584
0.0624584
0.0623202
0.0623202
0.0621811
0.0621811
0.0620412
0.0620412
0.0619011
0.0619011
0.0617609
0.0617609
0.0616212
0.0616212
0.0614822
0.0614822
0.0613446
0.0613446
0.0612086
0.0612086
0.0610746
0.0610746
0.0609432
0.0609432
0.0608147
0.0608147
0.0606896
0.0606896
0.0605683
0.0605683
0.0604513
0.0604513
0.0603391
0.0603391
0.0602323
0.0602323
0.0601316
0.0601316
0.0600376
0.0600376
0.0599511
0.0599511
0.059873
0.059873
0.0598041
0.0598041
0.0597454
0.0597454
0.0596978
0.0596978
0.0596624
0.0596624
0.0596403
0.0596403
0.0596324
0.0596324
0.0596398
0.0596398
0.0596634
0.0596634
0.0597041
0.0597041
0.0597626
0.0597626
0.0598396
0.0598396
0.0599357
0.0599357
0.0600514
0.0600514
0.0601872
0.0601872
0.0603434
0.0603434
0.0605205
0.0605205
0.0607187
0.0607187
0.0609382
0.0609382
0.0611792
0.0611792
0.0614413
0.0614413
0.0617241
0.0617241
0.062027
0.062027
0.062349
0.062349
0.0626888
0.0626888
0.0630451
0.0630451
0.0634161
0.0634161
0.0638004
0.0638004
0.0641964
0.0641964
0.0646031
0.0646031
0.0650196
0.0650196
0.0654452
0.0654452
0.0658792
0.0658792
0.0663207
0.0663207
0.0667682
0.0667682
0.0672201
0.0672201
0.0676742
0.0676742
0.0681286
0.0681286
0.0685817
0.0685818
0.0690321
0.0690321
0.0694784
0.0694784
0.0699199
0.0699199
0.0703562
0.0703562
0.0707875
0.0707875
0.0712144
0.0712144
0.0716382
0.0716382
0.0720599
0.0720599
0.0724803
0.0724803
0.0728989
0.072899
0.0733146
0.0733146
0.0737247
0.0737247
0.0741255
0.0741255
0.0745122
0.0745123
0.0748793
0.0748793
0.0752213
0.0752213
0.0755347
0.0755347
0.0758186
0.0758186
0.0760749
0.076075
0.0763084
0.0763085
0.0765254
0.0765255
0.0767332
0.0767333
0.0769381
0.0769381
0.0771448
0.0771449
0.0773549
0.0773548
0.0775674
0.0775673
0.0777817
0.0777816
0.0780013
0.0780012
0.0782324
0.0782324
0.0784827
0.0784826
0.0787599
0.0787599
0.0790716
0.0790716
0.0794236
0.0794236
0.0798206
0.0798206
0.080266
0.080266
0.0807622
0.0807622
0.0813109
0.0813109
0.0819124
0.0819125
0.0825655
0.0825656
0.0832666
0.0832666
0.0840096
0.0840096
0.0847861
0.0847861
0.0855856
0.0855857
0.0863955
0.0863955
0.0872013
0.0872013
0.0879888
0.0879888
0.0887459
0.0887459
0.0894614
0.0894614
0.0901225
0.0901225
0.090714
0.090714
0.0912214
0.0912214
0.0916364
0.0916364
0.09196
0.09196
0.0922019
0.0922019
0.0923782
0.0923782
0.0925127
0.0925127
0.0926372
0.0926371
0.092782
0.092782
0.0929671
0.0929672
0.0932009
0.0932009
0.0934857
0.0934857
0.0938236
0.0938237
0.0942172
0.0942172
0.0946686
0.0946686
0.0951794
0.0951794
0.0957491
0.0957491
0.0963726
0.0963726
0.0970385
0.0970386
0.0977301
0.0977302
0.0984289
0.098429
0.099113
0.0991131
0.0997511
0.0997512
0.100303
0.100303
0.10073
0.10073
0.101014
0.101014
0.101159
0.101159
0.101189
0.101189
0.101135
0.101135
0.101017
0.101017
0.100856
0.100856
0.100674
0.100674
0.100498
0.100498
0.100343
0.100343
0.100215
0.100215
0.100118
0.100118
0.100063
0.100063
5.67634e-09
5.67634e-09
7.89418e-07
7.89418e-07
1.63492e-05
1.63492e-05
0.00010663
0.00010663
0.000325671
0.000325671
0.000651752
0.000651752
0.00104754
0.00104754
0.00148937
0.00148937
0.00196345
0.00196345
0.00246122
0.00246122
0.00297692
0.00297692
0.00350645
0.00350645
0.00404671
0.00404671
0.00459531
0.00459531
0.00515033
0.00515033
0.00571017
0.00571017
0.00627349
0.00627349
0.00683915
0.00683915
0.00740613
0.00740613
0.00797355
0.00797355
0.0085406
0.0085406
0.00910656
0.00910656
0.00967074
0.00967074
0.0102325
0.0102325
0.0107913
0.0107913
0.0113466
0.0113466
0.0118977
0.0118977
0.0124443
0.0124443
0.0129857
0.0129857
0.0135216
0.0135216
0.0140515
0.0140515
0.0145748
0.0145748
0.0150912
0.0150912
0.0156003
0.0156003
0.0161016
0.0161016
0.0165946
0.0165946
0.0170792
0.0170792
0.0175548
0.0175548
0.0180211
0.0180211
0.0184779
0.0184779
0.0189249
0.0189249
0.0193617
0.0193617
0.0197883
0.0197883
0.0202045
0.0202045
0.0206101
0.0206101
0.0210052
0.0210052
0.0213897
0.0213897
0.0217639
0.0217639
0.0221278
0.0221278
0.0224819
0.0224819
0.0228265
0.0228265
0.0231622
0.0231622
0.0234897
0.0234897
0.0238097
0.0238097
0.0241232
0.0241232
0.0244314
0.0244314
0.0247355
0.0247355
0.0250372
0.0250372
0.0253379
0.0253379
0.0256398
0.0256398
0.0259447
0.0259447
0.0262549
0.0262549
0.0265728
0.0265728
0.026901
0.026901
0.0272422
0.0272422
0.027599
0.027599
0.0279742
0.0279742
0.0283706
0.0283706
0.0287907
0.0287907
0.0292371
0.0292371
0.0297118
0.0297118
0.0302167
0.0302167
0.0307534
0.0307534
0.0313229
0.0313229
0.0319257
0.0319257
0.0325618
0.0325618
0.0332307
0.0332307
0.0339313
0.0339313
0.0346619
0.0346619
0.0354206
0.0354206
0.0362049
0.0362049
0.037012
0.037012
0.0378389
0.0378389
0.0386822
0.0386822
0.0395386
0.0395386
0.0404048
0.0404048
0.0412773
0.0412773
0.0421528
0.0421528
0.0430281
0.0430281
0.0439001
0.0439001
0.0447661
0.0447661
0.0456234
0.0456234
0.0464696
0.0464696
0.0473025
0.0473025
0.0481202
0.0481202
0.048921
0.048921
0.0497036
0.0497036
0.0504665
0.0504665
0.0512089
0.0512089
0.0519299
0.0519299
0.0526288
0.0526288
0.0533053
0.0533053
0.0539589
0.0539589
0.0545895
0.0545895
0.055197
0.055197
0.0557816
0.0557816
0.0563433
0.0563433
0.0568824
0.0568824
0.0573992
0.0573992
0.0578941
0.0578941
0.0583674
0.0583674
0.0588197
0.0588197
0.0592514
0.0592514
0.059663
0.059663
0.0600551
0.0600551
0.0604282
0.0604282
0.0607829
0.0607829
0.0611196
0.0611196
0.061439
0.061439
0.0617415
0.0617415
0.0620277
0.0620277
0.0622981
0.0622981
0.0625531
0.0625531
0.0627933
0.0627933
0.0630191
0.0630191
0.0632309
0.0632309
0.0634292
0.0634292
0.0636143
0.0636143
0.0637867
0.0637867
0.0639467
0.0639467
0.0640945
0.0640945
0.0642307
0.0642307
0.0643554
0.0643554
0.0644689
0.0644689
0.0645716
0.0645716
0.0646637
0.0646637
0.0647454
0.0647454
0.0648171
0.0648171
0.0648788
0.0648788
0.064931
0.064931
0.0649737
0.0649737
0.0650073
0.0650073
0.0650318
0.0650318
0.0650475
0.0650475
0.0650546
0.0650546
0.0650532
0.0650532
0.0650437
0.0650437
0.0650261
0.0650261
0.0650008
0.0650008
0.0649678
0.0649678
0.0649274
0.0649274
0.0648799
0.0648799
0.0648255
0.0648255
0.0647645
0.0647645
0.0646971
0.0646971
0.0646235
0.0646235
0.0645442
0.0645442
0.0644593
0.0644593
0.0643693
0.0643693
0.0642745
0.0642745
0.0641751
0.0641751
0.0640716
0.0640716
0.0639642
0.0639642
0.0638532
0.0638532
0.0637389
0.0637389
0.0636216
0.0636216
0.0635014
0.0635014
0.0633787
0.0633787
0.0632534
0.0632534
0.0631259
0.0631259
0.0629961
0.0629961
0.0628643
0.0628643
0.0627307
0.0627307
0.0625953
0.0625953
0.0624584
0.0624584
0.0623202
0.0623202
0.0621811
0.0621811
0.0620412
0.0620412
0.061901
0.061901
0.0617609
0.0617609
0.0616212
0.0616212
0.0614822
0.0614822
0.0613446
0.0613446
0.0612085
0.0612085
0.0610746
0.0610746
0.0609432
0.0609432
0.0608147
0.0608147
0.0606896
0.0606896
0.0605683
0.0605683
0.0604513
0.0604513
0.0603391
0.0603391
0.0602323
0.0602323
0.0601316
0.0601316
0.0600376
0.0600376
0.0599511
0.0599511
0.059873
0.059873
0.0598041
0.0598041
0.0597454
0.0597454
0.0596978
0.0596978
0.0596624
0.0596624
0.0596403
0.0596403
0.0596324
0.0596324
0.0596398
0.0596398
0.0596634
0.0596634
0.0597041
0.0597041
0.0597626
0.0597626
0.0598396
0.0598396
0.0599357
0.0599357
0.0600515
0.0600515
0.0601872
0.0601872
0.0603434
0.0603434
0.0605205
0.0605205
0.0607187
0.0607187
0.0609383
0.0609383
0.0611792
0.0611792
0.0614413
0.0614413
0.0617241
0.0617241
0.062027
0.062027
0.062349
0.062349
0.0626889
0.0626889
0.0630451
0.0630451
0.0634162
0.0634162
0.0638004
0.0638004
0.0641964
0.0641964
0.0646031
0.0646031
0.0650196
0.0650196
0.0654453
0.0654452
0.0658793
0.0658793
0.0663208
0.0663208
0.0667683
0.0667683
0.0672201
0.0672201
0.0676743
0.0676742
0.0681287
0.0681287
0.0685818
0.0685818
0.0690321
0.0690321
0.0694785
0.0694785
0.06992
0.06992
0.0703563
0.0703563
0.0707876
0.0707875
0.0712145
0.0712145
0.0716383
0.0716383
0.07206
0.07206
0.0724804
0.0724803
0.072899
0.072899
0.0733147
0.0733147
0.0737248
0.0737247
0.0741256
0.0741256
0.0745123
0.0745123
0.0748794
0.0748793
0.0752214
0.0752213
0.0755348
0.0755347
0.0758187
0.0758186
0.0760751
0.076075
0.0763085
0.0763084
0.0765255
0.0765254
0.0767333
0.0767332
0.0769381
0.0769381
0.0771449
0.0771449
0.0773549
0.0773549
0.0775673
0.0775674
0.0777816
0.0777817
0.0780013
0.0780013
0.0782324
0.0782325
0.0784826
0.0784827
0.0787599
0.0787599
0.0790716
0.0790716
0.0794237
0.0794237
0.0798206
0.0798206
0.080266
0.080266
0.0807622
0.0807622
0.0813109
0.0813109
0.0819125
0.0819125
0.0825656
0.0825656
0.0832667
0.0832667
0.0840097
0.0840097
0.0847862
0.0847862
0.0855857
0.0855857
0.0863956
0.0863956
0.0872013
0.0872013
0.0879889
0.0879888
0.0887459
0.0887459
0.0894614
0.0894614
0.0901225
0.0901225
0.090714
0.090714
0.0912214
0.0912214
0.0916363
0.0916363
0.09196
0.09196
0.0922018
0.0922018
0.0923781
0.0923781
0.0925126
0.0925127
0.0926371
0.0926371
0.0927819
0.0927819
0.0929671
0.0929671
0.0932009
0.0932009
0.0934857
0.0934857
0.0938236
0.0938236
0.0942172
0.0942172
0.0946686
0.0946686
0.0951794
0.0951794
0.0957491
0.0957491
0.0963727
0.0963726
0.0970386
0.0970386
0.0977303
0.0977302
0.098429
0.0984289
0.0991131
0.099113
0.0997512
0.0997511
0.100303
0.100303
0.10073
0.10073
0.101014
0.101014
0.101159
0.101159
0.101189
0.101189
0.101135
0.101135
0.101017
0.101017
0.100856
0.100855
0.100674
0.100674
0.100498
0.100498
0.100343
0.100343
0.100215
0.100215
0.100118
0.100118
0.100063
0.100063
0.100062
0.100062
0.100117
0.100117
0.100212
0.100212
0.100338
0.100338
0.100491
0.100491
0.100666
0.100666
0.100845
0.100845
0.101004
0.101004
0.101117
0.101117
0.101165
0.101165
0.101127
0.101128
0.100978
0.100978
0.10069
0.10069
0.100261
0.100261
0.0997115
0.0997116
0.0990777
0.0990778
0.0983981
0.0983982
0.0977032
0.0977033
0.0970148
0.0970148
0.0963519
0.096352
0.0957318
0.0957318
0.0951658
0.0951658
0.0946586
0.0946586
0.0942106
0.0942106
0.0938203
0.0938203
0.0934855
0.0934855
0.0932037
0.0932037
0.0929728
0.0929728
0.0927904
0.0927904
0.0926481
0.0926481
0.0925265
0.0925265
0.0923944
0.0923944
0.0922194
0.0922193
0.0919769
0.0919769
0.091651
0.0916511
0.0912324
0.0912324
0.0907213
0.0907213
0.0901272
0.0901272
0.0894642
0.0894642
0.0887475
0.0887475
0.0879893
0.0879893
0.0872007
0.0872007
0.0863938
0.0863939
0.0855827
0.0855828
0.0847819
0.0847819
0.0840042
0.0840042
0.0832601
0.0832602
0.0825582
0.0825582
0.0819045
0.0819045
0.0813025
0.0813025
0.0807536
0.0807536
0.0802572
0.0802572
0.0798118
0.0798118
0.0794146
0.0794146
0.0790626
0.0790626
0.0787511
0.0787511
0.078474
0.0784739
0.0782238
0.0782237
0.0779928
0.0779927
0.0777736
0.0777735
0.0775599
0.0775598
0.0773477
0.0773477
0.0771377
0.0771378
0.0769307
0.0769308
0.0767253
0.0767254
0.0765169
0.076517
0.0762995
0.0762996
0.076066
0.0760661
0.0758096
0.0758097
0.0755253
0.0755254
0.0752112
0.0752113
0.0748688
0.0748689
0.0745018
0.0745019
0.0741155
0.0741155
0.0737155
0.0737156
0.0733067
0.0733067
0.0728925
0.0728925
0.0724751
0.0724751
0.0720555
0.0720555
0.0716341
0.0716341
0.0712102
0.0712102
0.070783
0.070783
0.0703515
0.0703515
0.069915
0.069915
0.0694733
0.0694733
0.0690268
0.0690268
0.0685765
0.0685765
0.0681236
0.0681236
0.0676693
0.0676693
0.0672154
0.0672154
0.0667639
0.0667639
0.0663169
0.0663169
0.0658761
0.0658761
0.0654429
0.0654429
0.0650181
0.0650181
0.0646022
0.0646022
0.064196
0.064196
0.0638003
0.0638003
0.0634163
0.0634163
0.0630455
0.0630455
0.0626895
0.0626895
0.0623498
0.0623498
0.062028
0.062028
0.0617253
0.0617253
0.0614424
0.0614424
0.0611802
0.0611802
0.0609391
0.0609391
0.0607194
0.0607194
0.0605209
0.0605209
0.0603437
0.0603437
0.0601874
0.0601874
0.0600517
0.0600517
0.059936
0.059936
0.05984
0.05984
0.059763
0.059763
0.0597046
0.0597046
0.059664
0.059664
0.0596405
0.0596405
0.0596333
0.0596333
0.0596412
0.0596412
0.0596634
0.0596634
0.0596988
0.0596988
0.0597464
0.0597464
0.0598052
0.0598052
0.0598741
0.0598741
0.0599523
0.0599523
0.0600388
0.0600388
0.0601328
0.0601328
0.0602336
0.0602336
0.0603404
0.0603404
0.0604526
0.0604526
0.0605697
0.0605697
0.060691
0.060691
0.0608161
0.0608161
0.0609445
0.0609445
0.0610759
0.0610759
0.0612098
0.0612098
0.0613459
0.0613459
0.0614835
0.0614835
0.0616225
0.0616225
0.0617622
0.0617622
0.0619024
0.0619024
0.0620426
0.0620426
0.0621825
0.0621825
0.0623217
0.0623217
0.0624599
0.0624599
0.0625968
0.0625968
0.0627322
0.0627322
0.0628659
0.0628659
0.0629977
0.0629977
0.0631274
0.0631274
0.0632551
0.0632551
0.0633804
0.0633804
0.0635032
0.0635032
0.0636234
0.0636234
0.0637407
0.0637407
0.063855
0.063855
0.063966
0.063966
0.0640735
0.0640735
0.0641771
0.0641771
0.0642764
0.0642764
0.0643713
0.0643713
0.0644613
0.0644613
0.0645462
0.0645462
0.0646256
0.0646256
0.0646991
0.0646991
0.0647666
0.0647666
0.0648277
0.0648277
0.0648821
0.0648821
0.0649297
0.0649297
0.0649701
0.0649701
0.0650031
0.0650031
0.0650285
0.0650285
0.0650461
0.0650461
0.0650557
0.0650557
0.0650571
0.0650571
0.06505
0.06505
0.0650344
0.0650344
0.06501
0.06501
0.0649765
0.0649765
0.0649339
0.0649339
0.0648818
0.0648818
0.0648201
0.0648201
0.0647486
0.0647486
0.0646669
0.0646669
0.0645749
0.0645749
0.0644722
0.0644722
0.0643587
0.0643587
0.0642341
0.0642341
0.064098
0.064098
0.0639501
0.0639501
0.0637903
0.0637903
0.063618
0.063618
0.0634329
0.0634329
0.0632346
0.0632346
0.0630228
0.0630228
0.062797
0.062797
0.0625568
0.0625568
0.0623017
0.0623017
0.0620313
0.0620313
0.061745
0.0617451
0.0614425
0.0614425
0.061123
0.061123
0.0607862
0.0607862
0.0604314
0.0604314
0.0600581
0.0600581
0.0596659
0.0596659
0.0592542
0.0592542
0.0588225
0.0588225
0.0583702
0.0583702
0.0578968
0.0578968
0.057402
0.057402
0.0568852
0.0568852
0.0563461
0.0563461
0.0557845
0.0557845
0.0551999
0.0551999
0.0545923
0.0545923
0.0539617
0.0539617
0.0533081
0.0533081
0.0526317
0.0526317
0.0519327
0.0519327
0.0512118
0.0512118
0.0504695
0.0504695
0.0497066
0.0497066
0.0489242
0.0489242
0.0481234
0.0481234
0.0473056
0.0473056
0.0464725
0.0464725
0.0456261
0.0456261
0.0447685
0.0447685
0.0439021
0.0439021
0.0430297
0.0430297
0.0421542
0.0421542
0.0412786
0.0412786
0.0404059
0.0404059
0.0395395
0.0395395
0.0386828
0.0386828
0.0378392
0.0378392
0.037012
0.037012
0.0362046
0.0362046
0.03542
0.03542
0.034661
0.034661
0.03393
0.03393
0.0332292
0.0332292
0.03256
0.03256
0.0319236
0.0319236
0.0313205
0.0313205
0.0307508
0.0307508
0.0302138
0.0302138
0.0297086
0.0297086
0.0292337
0.0292337
0.0287871
0.0287871
0.0283668
0.0283668
0.0279703
0.0279703
0.0275949
0.0275949
0.027238
0.027238
0.0268967
0.0268967
0.0265684
0.0265684
0.0262504
0.0262504
0.0259401
0.0259401
0.0256351
0.0256351
0.0253332
0.0253332
0.0250324
0.0250324
0.0247308
0.0247308
0.0244267
0.0244267
0.0241186
0.0241186
0.0238052
0.0238052
0.0234854
0.0234854
0.0231581
0.0231581
0.0228226
0.0228226
0.0224781
0.0224781
0.0221241
0.0221241
0.0217603
0.0217603
0.0213863
0.0213863
0.0210019
0.0210019
0.020607
0.020607
0.0202016
0.0202016
0.0197856
0.0197856
0.0193592
0.0193592
0.0189225
0.0189225
0.0184757
0.0184757
0.018019
0.018019
0.0175528
0.0175528
0.0170773
0.0170773
0.0165929
0.0165929
0.0160999
0.0160999
0.0155987
0.0155987
0.0150898
0.0150898
0.0145735
0.0145735
0.0140502
0.0140502
0.0135204
0.0135204
0.0129846
0.0129846
0.0124433
0.0124433
0.0118968
0.0118968
0.0113457
0.0113457
0.0107906
0.0107906
0.0102319
0.0102319
0.00967014
0.00967014
0.00910602
0.00910602
0.00854013
0.00854013
0.00797313
0.00797313
0.00740576
0.00740576
0.00683883
0.00683883
0.00627321
0.00627321
0.00570993
0.00570993
0.00515013
0.00515013
0.00459515
0.00459515
0.00404658
0.00404658
0.00350634
0.00350634
0.00297685
0.00297685
0.00246117
0.00246117
0.00196342
0.00196342
0.00148935
0.00148935
0.00104753
0.00104753
0.000651746
0.000651746
0.00032567
0.00032567
0.000106629
0.000106629
1.63491e-05
1.63491e-05
7.89413e-07
7.89413e-07
5.67642e-09
5.67642e-09
0.100062
0.100062
0.100117
0.100117
0.100212
0.100212
0.100338
0.100338
0.100491
0.100491
0.100666
0.100666
0.100845
0.100845
0.101004
0.101004
0.101117
0.101117
0.101165
0.101165
0.101128
0.101127
0.100978
0.100978
0.10069
0.10069
0.100261
0.100261
0.0997116
0.0997115
0.0990778
0.0990777
0.0983981
0.0983981
0.0977032
0.0977032
0.0970148
0.0970148
0.0963519
0.0963519
0.0957318
0.0957318
0.0951658
0.0951657
0.0946586
0.0946586
0.0942106
0.0942106
0.0938203
0.0938203
0.0934855
0.0934855
0.0932038
0.0932038
0.0929729
0.0929729
0.0927904
0.0927904
0.0926482
0.0926482
0.0925266
0.0925266
0.0923945
0.0923945
0.0922194
0.0922194
0.091977
0.091977
0.0916511
0.0916511
0.0912325
0.0912325
0.0907214
0.0907214
0.0901272
0.0901272
0.0894642
0.0894642
0.0887475
0.0887475
0.0879893
0.0879893
0.0872007
0.0872007
0.0863939
0.0863938
0.0855828
0.0855827
0.0847819
0.0847819
0.0840042
0.0840042
0.0832602
0.0832601
0.0825582
0.0825582
0.0819045
0.0819045
0.0813025
0.0813025
0.0807536
0.0807536
0.0802573
0.0802573
0.0798118
0.0798118
0.0794147
0.0794147
0.0790626
0.0790627
0.0787511
0.0787511
0.078474
0.078474
0.0782238
0.0782238
0.0779928
0.0779928
0.0777736
0.0777736
0.0775599
0.07756
0.0773478
0.0773478
0.0771378
0.0771378
0.0769309
0.0769308
0.0767255
0.0767254
0.0765171
0.076517
0.0762997
0.0762996
0.0760662
0.0760661
0.0758098
0.0758097
0.0755255
0.0755254
0.0752114
0.0752113
0.0748689
0.0748689
0.0745019
0.0745019
0.0741156
0.0741156
0.0737156
0.0737156
0.0733068
0.0733068
0.0728926
0.0728925
0.0724751
0.0724751
0.0720556
0.0720555
0.0716341
0.0716341
0.0712102
0.0712102
0.070783
0.070783
0.0703515
0.0703515
0.069915
0.069915
0.0694733
0.0694733
0.0690268
0.0690268
0.0685765
0.0685764
0.0681235
0.0681235
0.0676692
0.0676692
0.0672153
0.0672153
0.0667639
0.0667639
0.0663169
0.0663169
0.065876
0.065876
0.0654428
0.0654428
0.065018
0.065018
0.0646021
0.0646021
0.0641959
0.0641959
0.0638002
0.0638002
0.0634163
0.0634163
0.0630454
0.0630454
0.0626894
0.0626894
0.0623498
0.0623498
0.062028
0.062028
0.0617252
0.0617252
0.0614424
0.0614423
0.0611801
0.0611801
0.060939
0.060939
0.0607193
0.0607193
0.0605209
0.0605209
0.0603437
0.0603437
0.0601874
0.0601874
0.0600516
0.0600516
0.059936
0.059936
0.0598399
0.0598399
0.059763
0.059763
0.0597045
0.0597045
0.059664
0.059664
0.0596405
0.0596405
0.0596332
0.0596332
0.0596412
0.0596412
0.0596634
0.0596634
0.0596988
0.0596988
0.0597464
0.0597464
0.0598051
0.0598051
0.0598741
0.0598741
0.0599523
0.0599523
0.0600387
0.0600387
0.0601328
0.0601328
0.0602335
0.0602335
0.0603403
0.0603403
0.0604526
0.0604526
0.0605696
0.0605696
0.0606909
0.0606909
0.060816
0.060816
0.0609445
0.0609445
0.0610759
0.0610759
0.0612098
0.0612098
0.0613458
0.0613458
0.0614835
0.0614835
0.0616224
0.0616224
0.0617622
0.0617622
0.0619024
0.0619024
0.0620426
0.0620426
0.0621825
0.0621825
0.0623217
0.0623217
0.0624599
0.0624599
0.0625968
0.0625968
0.0627322
0.0627322
0.0628658
0.0628658
0.0629976
0.0629976
0.0631274
0.0631274
0.063255
0.063255
0.0633803
0.0633803
0.0635032
0.0635032
0.0636234
0.0636234
0.0637407
0.0637407
0.063855
0.063855
0.063966
0.063966
0.0640735
0.0640735
0.064177
0.064177
0.0642764
0.0642764
0.0643713
0.0643713
0.0644613
0.0644613
0.0645462
0.0645462
0.0646256
0.0646256
0.0646991
0.0646991
0.0647666
0.0647666
0.0648277
0.0648277
0.0648821
0.0648821
0.0649297
0.0649297
0.06497
0.06497
0.0650031
0.0650031
0.0650285
0.0650285
0.0650461
0.0650461
0.0650557
0.0650557
0.0650571
0.0650571
0.06505
0.06505
0.0650344
0.0650344
0.06501
0.06501
0.0649765
0.0649765
0.0649339
0.0649339
0.0648818
0.0648818
0.0648201
0.0648201
0.0647486
0.0647486
0.0646669
0.0646669
0.0645749
0.0645749
0.0644722
0.0644722
0.0643587
0.0643587
0.0642341
0.0642341
0.064098
0.064098
0.0639501
0.0639501
0.0637903
0.0637903
0.063618
0.063618
0.0634329
0.0634329
0.0632346
0.0632346
0.0630228
0.0630228
0.062797
0.062797
0.0625568
0.0625568
0.0623017
0.0623017
0.0620313
0.0620313
0.061745
0.061745
0.0614425
0.0614425
0.061123
0.061123
0.0607862
0.0607862
0.0604314
0.0604314
0.0600581
0.0600581
0.0596659
0.0596659
0.0592542
0.0592542
0.0588225
0.0588225
0.0583702
0.0583702
0.0578968
0.0578968
0.057402
0.057402
0.0568852
0.0568852
0.0563461
0.0563461
0.0557845
0.0557845
0.0551999
0.0551999
0.0545923
0.0545923
0.0539617
0.0539617
0.0533081
0.0533081
0.0526316
0.0526316
0.0519327
0.0519327
0.0512118
0.0512118
0.0504695
0.0504695
0.0497066
0.0497066
0.0489242
0.0489242
0.0481233
0.0481233
0.0473056
0.0473056
0.0464725
0.0464725
0.0456261
0.0456261
0.0447684
0.0447684
0.0439021
0.0439021
0.0430297
0.0430297
0.0421542
0.0421542
0.0412786
0.0412786
0.0404059
0.0404059
0.0395395
0.0395395
0.0386828
0.0386828
0.0378392
0.0378392
0.037012
0.037012
0.0362046
0.0362046
0.03542
0.03542
0.034661
0.034661
0.03393
0.03393
0.0332292
0.0332292
0.03256
0.03256
0.0319236
0.0319236
0.0313205
0.0313205
0.0307508
0.0307508
0.0302138
0.0302138
0.0297086
0.0297086
0.0292337
0.0292337
0.0287871
0.0287871
0.0283668
0.0283668
0.0279703
0.0279703
0.0275949
0.0275949
0.027238
0.027238
0.0268967
0.0268967
0.0265684
0.0265684
0.0262504
0.0262504
0.0259401
0.0259401
0.0256351
0.0256351
0.0253332
0.0253332
0.0250324
0.0250324
0.0247308
0.0247308
0.0244267
0.0244267
0.0241186
0.0241186
0.0238052
0.0238052
0.0234854
0.0234854
0.0231581
0.0231581
0.0228226
0.0228226
0.0224781
0.0224781
0.0221241
0.0221241
0.0217603
0.0217603
0.0213863
0.0213863
0.021002
0.021002
0.020607
0.020607
0.0202016
0.0202016
0.0197856
0.0197856
0.0193592
0.0193592
0.0189225
0.0189225
0.0184757
0.0184757
0.018019
0.018019
0.0175528
0.0175528
0.0170773
0.0170773
0.0165929
0.0165929
0.0160999
0.0160999
0.0155987
0.0155987
0.0150898
0.0150898
0.0145735
0.0145735
0.0140502
0.0140502
0.0135204
0.0135204
0.0129846
0.0129846
0.0124433
0.0124433
0.0118968
0.0118968
0.0113457
0.0113457
0.0107906
0.0107906
0.0102319
0.0102319
0.00967014
0.00967014
0.00910602
0.00910602
0.00854013
0.00854013
0.00797313
0.00797313
0.00740576
0.00740576
0.00683883
0.00683883
0.00627321
0.00627321
0.00570993
0.00570993
0.00515013
0.00515013
0.00459515
0.00459515
0.00404658
0.00404658
0.00350634
0.00350634
0.00297685
0.00297685
0.00246117
0.00246117
0.00196342
0.00196342
0.00148935
0.00148935
0.00104753
0.00104753
0.000651746
0.000651746
0.000325669
0.000325669
0.000106629
0.000106629
1.63491e-05
1.63491e-05
7.89413e-07
7.89413e-07
5.67642e-09
5.67642e-09
)
;

boundaryField
{
    walls
    {
        type            nutUWallFunction;
        blending        stepwise;
        Cmu             0.09;
        kappa           0.41;
        E               9.8;
        value           uniform 0;
    }
    inlet
    {
        type            cyclic;
    }
    outlet
    {
        type            cyclic;
    }
    sides
    {
        type            empty;
    }
}


// ************************************************************************* //
