/*--------------------------------*- C++ -*----------------------------------*\
| =========                 |                                                 |
| \\      /  F ield         | OpenFOAM: The Open Source CFD Toolbox           |
|  \\    /   O peration     | Version:  2012                                  |
|   \\  /    A nd           | Website:  www.openfoam.com                      |
|    \\/     M anipulation  |                                                 |
\*---------------------------------------------------------------------------*/
FoamFile
{
    version     2.0;
    format      ascii;
    class       volTensorField;
    location    "20000";
    object      grad(U);
}
// * * * * * * * * * * * * * * * * * * * * * * * * * * * * * * * * * * * * * //

dimensions      [0 0 -1 0 0 0 0];


internalField   nonuniform List<tensor> 
2560
(
(0 5.87747e-39 5.47849e-18 580.179 -3.38813e-21 0.000322363 0.840825 3.6922e-08 3.19557e-07)
(0 -2.17989e-23 -1.49389e-17 580.179 8.43127e-05 0.000437976 0.840825 1.25509e-07 5.89015e-07)
(-5.76773e-16 0 2.75027e-22 578.78 9.45939e-05 8.39921e-05 2.53067 2.64646e-07 4.91306e-07)
(0 -3.43783e-23 1.92215e-22 578.78 7.65821e-05 2.06854e-05 2.53067 3.69943e-07 6.07561e-08)
(-1.08183e-16 6.21018e-19 0 577.337 5.94234e-05 -2.03867e-06 3.46136 1.77073e-07 5.00535e-07)
(0 0 0 577.337 2.25138e-05 -1.96979e-24 3.46136 6.70879e-08 1.05879e-22)
(1.46341e-15 3.18445e-19 -2.672e-22 575.819 -3.07049e-05 -3.32351e-05 3.50217 9.28267e-08 4.8888e-07)
(-1.12072e-15 0 2.672e-22 575.819 -1.82452e-05 -3.55404e-05 3.50217 5.51585e-08 1.07445e-07)
(2.20931e-15 6.58425e-23 0 574.2 -0.000112476 -7.00583e-05 3.54275 3.38208e-07 4.30838e-07)
(0 0 2.6337e-22 574.2 -0.000107292 -9.80635e-05 3.54275 3.59286e-07 4.66947e-07)
(1.90913e-15 0 0 572.471 -9.52337e-05 -8.05861e-05 3.58308 -5.72484e-08 3.36713e-07)
(6.56248e-15 0 1.29798e-22 572.471 -9.22643e-05 -0.000112301 3.58308 -2.96416e-08 5.30948e-07)
(1.08309e-15 -1.11641e-18 -1.27937e-22 570.652 -1.01665e-20 -6.17495e-05 3.62339 0 2.52498e-07)
(2.10694e-15 -5.03278e-23 1.27937e-22 570.652 -2.36829e-05 -8.63653e-05 3.62339 -1.16581e-07 3.60254e-07)
(-1.30912e-15 2.13434e-23 0 568.795 1.13894e-05 -3.70002e-05 3.66408 -5.33865e-08 1.79541e-07)
(5.23647e-15 -2.6358e-23 0 568.795 1.23471e-05 -5.27035e-05 3.66408 -1.26482e-07 2.50084e-07)
(1.55759e-15 -9.19956e-24 0 566.972 1.53885e-05 -1.9002e-05 3.70566 -9.28138e-08 1.34671e-07)
(0 0 6.21481e-23 566.972 1.60604e-05 -2.85479e-05 3.70566 -1.25248e-07 1.86118e-07)
(0 0 6.12573e-23 565.258 1.1928e-05 -7.61838e-06 3.74864 -1.02998e-07 1.10691e-07)
(0 0 -6.12573e-23 565.258 1.26246e-05 -1.35707e-05 3.74864 -6.74823e-08 1.26169e-07)
(-2.06264e-15 3.78819e-24 0 563.725 6.76979e-06 -2.07688e-07 3.79355 -4.9567e-08 9.95112e-08)
(-4.05199e-15 1.50948e-23 0 563.724 7.22101e-06 -4.09894e-06 3.79355 -4.06359e-08 5.22529e-08)
(6.31322e-15 -4.65863e-23 0 562.439 5.63526e-06 5.08167e-06 3.84088 -4.09413e-08 9.69867e-08)
(0 2.9757e-23 8.25601e-19 562.439 6.05274e-06 -6.55452e-07 3.84088 -1.79107e-08 2.22414e-09)
(3.93667e-15 -1.46652e-23 5.8661e-23 561.461 3.6036e-06 9.27387e-06 3.89111 -3.55079e-08 7.75778e-08)
(-3.93667e-15 1.46652e-23 0 561.461 3.94325e-06 -1.24396e-05 3.89111 1.52436e-09 7.57032e-08)
(-2.84141e-15 9.20113e-24 -5.87747e-39 560.842 2.36074e-06 -5.4856e-23 3.94468 -1.396e-08 1.32349e-23)
(1.13657e-14 0 -5.78202e-23 560.842 2.66958e-06 -1.20898e-05 3.94468 1.01165e-08 6.22169e-08)
(-3.82464e-15 3.56197e-23 -5.69915e-23 560.627 1.44948e-06 -1.11831e-05 4.00202 -1.77724e-08 7.81543e-08)
(3.82464e-15 -3.56197e-23 5.69915e-23 560.627 1.72009e-06 -9.18311e-06 4.00202 2.10349e-08 3.2787e-08)
(-3.37634e-15 2.06915e-24 0 560.853 3.78001e-07 -9.2408e-06 4.0635 -1.35892e-09 4.72248e-08)
(1.35053e-14 0 0 560.853 1.49615e-06 -1.8649e-06 4.0635 2.3024e-08 6.06279e-09)
(0 3.4606e-23 0 561.547 1.4843e-06 -5.03158e-06 4.12946 -7.15336e-09 1.87197e-08)
(-1.45966e-14 -3.4606e-23 0 561.547 1.71099e-06 6.26077e-06 4.12946 3.25509e-08 4.88854e-13)
(0 3.411e-23 0 562.731 -5.47736e-08 3.48532e-06 4.20018 -4.01734e-09 3.03917e-12)
(-1.57035e-14 -3.411e-23 0 562.731 1.54625e-07 8.57994e-06 4.20018 3.61189e-08 4.68168e-13)
(7.22008e-15 -1.71922e-35 5.37938e-23 564.415 2.30119e-22 9.22199e-06 4.2759 0 3.10151e-12)
(0 1.34484e-23 0 564.415 2.76434e-07 9.22198e-06 4.2759 3.42832e-08 5.22835e-13)
(4.49228e-15 2.65114e-23 0 566.602 1.22197e-06 9.88984e-06 4.35679 -2.05093e-09 3.08528e-12)
(-1.79691e-14 -3.31392e-23 0 566.602 1.40599e-06 9.88982e-06 4.35679 3.88271e-08 4.52227e-13)
(0 3.26642e-23 0 569.287 3.21853e-07 1.05936e-05 4.44296 4.35736e-09 3.16408e-12)
(0 -3.26642e-23 0 569.287 4.95814e-07 1.05936e-05 4.44296 4.55669e-08 5.68684e-13)
(-5.07823e-15 -6.43922e-24 0 572.455 -1.40823e-06 1.12967e-05 4.53444 1.5744e-09 3.16979e-12)
(0 1.6098e-23 0 572.455 -1.24116e-06 1.12967e-05 4.53444 4.31437e-08 4.9363e-13)
(1.50654e-14 -1.5382e-24 1.01551e-22 576.079 -1.05975e-22 1.20112e-05 4.6312 0 3.20374e-12)
(0 5.07754e-23 0 576.079 9.17752e-07 1.20112e-05 4.6312 3.63233e-08 5.29892e-13)
(0 2.50238e-23 0 580.131 1.15234e-06 1.27826e-05 4.73314 8.90792e-09 3.2109e-12)
(-2.27466e-14 -3.12798e-23 0 580.131 1.30626e-06 1.27826e-05 4.73314 5.11037e-08 5.6029e-13)
(6.00024e-15 3.69978e-23 0 584.569 -9.66152e-07 1.35856e-05 4.84005 4.74154e-09 3.28718e-12)
(0 -3.69978e-23 0 584.569 -8.18221e-07 1.35856e-05 4.84005 4.72414e-08 6.05895e-13)
(-1.26412e-14 4.86233e-23 0 589.34 -1.39747e-06 1.43806e-05 4.95163 2.0997e-09 3.31617e-12)
(0 -4.86233e-23 0 589.34 -1.25235e-06 1.43806e-05 4.95163 4.48994e-08 5.43836e-13)
(1.99443e-14 -3.22943e-24 0 594.388 0 1.52083e-05 5.06753 -8.27181e-25 3.32886e-12)
(5.31849e-14 4.79264e-23 0 594.388 1.40041e-06 1.52083e-05 5.06753 3.72819e-08 6.04326e-13)
(0 -2.95247e-23 0 599.648 6.56019e-07 1.61068e-05 5.18729 1.39983e-08 3.31615e-12)
(2.15921e-14 3.54296e-23 0 599.648 7.92596e-07 1.61068e-05 5.18729 5.73768e-08 6.07524e-13)
(-5.17303e-15 -7.92678e-20 0 605.048 -2.11758e-22 1.70354e-05 5.31033 6.10811e-10 3.46815e-12)
(0 -5.82031e-24 -1.8625e-22 605.048 -1.10289e-06 1.70354e-05 5.31033 4.42965e-08 6.84815e-13)
(-1.53541e-14 0 0 610.503 -1.129e-06 1.79651e-05 5.43596 4.44159e-09 3.46421e-12)
(-6.14162e-14 0 0 610.503 -9.97697e-07 1.79651e-05 5.43596 4.8407e-08 5.98428e-13)
(-8.03653e-15 0 0 615.929 0 1.89389e-05 5.56347 0 3.49276e-12)
(-3.21461e-14 -1.13093e-23 0 615.929 1.14812e-06 1.89389e-05 5.56347 3.58584e-08 6.7413e-13)
(0 4.18021e-23 -1.78356e-22 621.235 6.79717e-07 1.99925e-05 5.69203 1.48539e-08 3.4821e-12)
(-3.36189e-14 -4.18021e-23 1.78356e-22 621.235 8.07053e-07 1.99925e-05 5.69203 5.93903e-08 6.89054e-13)
(1.17977e-14 -1.08865e-19 0 626.324 0 2.10772e-05 5.82066 -4.1359e-25 3.65968e-12)
(2.33297e-14 3.29624e-23 0 626.324 -1.67275e-06 2.10772e-05 5.82066 4.33589e-08 7.48039e-13)
(-9.16802e-15 0 0 631.091 -4.866e-07 2.21741e-05 5.94831 -5.07697e-10 3.65669e-12)
(0 1.083e-23 0 631.091 -3.61635e-07 2.21741e-05 5.94831 4.46139e-08 7.09241e-13)
(-9.56333e-15 -7.255e-39 0 635.433 2.11586e-22 2.3341e-05 6.07391 0 3.69371e-12)
(0 -3.20243e-23 0 635.433 1.23931e-06 2.3341e-05 6.07391 4.04228e-08 7.81124e-13)
(-9.96781e-15 2.63044e-23 0 639.247 1.71995e-07 2.45945e-05 6.19629 1.12668e-08 3.71711e-12)
(-3.98712e-14 -1.84131e-23 0 639.247 2.96764e-07 2.45944e-05 6.19629 5.69682e-08 7.8429e-13)
(2.15171e-14 -6.09584e-20 0 642.423 -1.01348e-06 2.5883e-05 6.31413 -2.44311e-09 3.86161e-12)
(-1.11357e-14 1.55564e-23 0 642.423 -1.60072e-06 2.5883e-05 6.31413 4.35426e-08 8.4922e-13)
(1.0804e-14 -2.56488e-23 0 644.85 -4.35977e-07 2.71978e-05 6.42609 -3.67016e-09 3.88254e-12)
(0 2.55558e-23 0 644.85 -3.12107e-07 2.71978e-05 6.42609 4.19601e-08 8.42073e-13)
(-1.12354e-14 0 -3.22426e-22 646.421 2.11758e-22 2.85961e-05 6.53082 -8.79387e-55 3.95165e-12)
(0 -1.00758e-23 0 646.421 1.10511e-06 2.85961e-05 6.53082 4.09645e-08 8.97733e-13)
(0 2.48285e-23 0 647.035 5.31447e-07 3.01025e-05 6.62691 6.72883e-09 3.99186e-12)
(0 -3.97256e-23 0 647.035 6.56153e-07 3.01025e-05 6.62691 5.36381e-08 9.4232e-13)
(-1.21231e-14 9.78906e-24 0 646.589 -1.53573e-06 3.167e-05 6.71285 8.1357e-10 4.12602e-12)
(4.84924e-14 0 0 646.589 -1.41012e-06 3.167e-05 6.71285 4.80268e-08 9.94328e-13)
(0 -3.37706e-23 0 644.978 -1.23445e-06 3.32653e-05 6.78708 -7.01765e-09 4.18764e-12)
(5.03144e-14 3.37706e-23 0 644.978 -1.10797e-06 3.32653e-05 6.78708 3.95944e-08 1.01956e-12)
(1.30411e-14 -4.51744e-24 0 642.11 4.22764e-22 3.49681e-05 6.84814 1.65436e-24 4.24175e-12)
(-5.21643e-14 -3.80418e-23 0 642.11 2.18134e-06 3.49681e-05 6.84814 3.70141e-08 1.11019e-12)
(3.36407e-14 -1.64048e-23 0 637.9 -1.2086e-06 3.67838e-05 6.89454 1.53146e-08 4.30103e-12)
(-2.01308e-14 1.64048e-23 0 637.9 -1.08035e-06 3.67838e-05 6.89454 6.35158e-08 1.10762e-12)
(-1.3984e-14 0 0 632.266 1.60081e-24 3.86761e-05 6.92473 -3.30872e-24 4.47444e-12)
(0 1.84796e-23 0 632.266 2.60902e-07 3.86761e-05 6.92473 2.54697e-08 1.23213e-12)
(1.44628e-14 2.04916e-23 0 625.135 -1.69656e-06 4.06371e-05 6.93722 1.86217e-08 4.53062e-12)
(5.78512e-14 -9.10737e-24 -5.82871e-22 625.135 -1.56635e-06 4.06371e-05 6.93722 6.75293e-08 1.22338e-12)
(1.92776e-14 -5.72955e-24 5.74517e-22 616.442 1.05879e-21 4.27032e-05 6.93059 -6.61744e-24 4.5868e-12)
(5.97804e-14 1.79537e-23 0 616.442 1.70697e-06 4.27032e-05 6.93059 7.95925e-09 1.25154e-12)
(-1.54298e-14 0 0 606.135 2.48961e-06 4.49751e-05 6.90348 3.8696e-08 4.75065e-12)
(0 8.29516e-24 0 606.135 2.62309e-06 4.49751e-05 6.90348 8.8337e-08 1.49063e-12)
(-1.59156e-14 0 0 594.167 -7.86802e-06 4.72379e-05 6.85448 -1.24079e-08 4.85433e-12)
(0 8.72136e-24 0 594.167 -7.73311e-06 4.72379e-05 6.85448 3.75985e-08 1.47079e-12)
(1.84605e-14 -4.26221e-20 0 580.505 -1.27408e-21 4.94094e-05 6.78242 0 5.22733e-12)
(-1.84605e-14 1.71927e-23 0 580.505 -7.57686e-07 4.94094e-05 6.78242 -4.80904e-10 1.60371e-12)
(-3.50811e-14 -2.05851e-19 0 565.146 9.75179e-06 5.21209e-05 6.68652 -2.10034e-08 5.50299e-12)
(0 1.69463e-23 -5.42282e-22 565.146 1.87192e-05 5.21209e-05 6.68652 2.98441e-08 2.31454e-12)
(-3.58703e-14 3.34068e-23 -1.06902e-21 548.083 -2.38793e-05 5.48237e-05 6.56552 1.73389e-07 4.79876e-12)
(-5.15285e-14 -8.55025e-23 0 548.083 -2.37244e-05 5.48237e-05 6.56552 1.60812e-07 1.10998e-12)
(-1.78419e-14 -5.87747e-39 1.0537e-21 529.31 -2.17267e-23 5.72502e-05 6.4185 -5.29396e-23 4.8588e-12)
(7.13675e-14 -3.40582e-23 -1.0537e-21 529.31 7.81927e-06 5.72504e-05 6.4185 -1.99985e-07 1.55557e-12)
(0 3.24561e-23 0 508.867 1.12364e-05 6.02543e-05 6.24534 2.77009e-07 5.15814e-12)
(0 -3.24561e-23 0 508.867 1.13745e-05 6.02541e-05 6.24534 1.6398e-07 2.30978e-12)
(-1.87724e-14 2.93874e-39 0 486.8 0 6.3086e-05 6.04526 -2.64698e-23 6.37174e-12)
(7.50897e-14 0 0 486.8 -2.20539e-05 6.30859e-05 6.04526 -1.2653e-07 2.18246e-12)
(3.84468e-14 -1.57662e-23 0 463.154 2.18699e-05 6.60089e-05 5.81814 2.80298e-09 6.31946e-12)
(7.68936e-14 1.57662e-23 0 463.154 2.20087e-05 6.6009e-05 5.81814 5.59251e-08 2.7366e-12)
(1.66862e-14 -7.77011e-24 9.94574e-22 438.016 -1.79389e-05 6.91073e-05 5.56423 1.02141e-07 5.67097e-12)
(0 2.33103e-23 0 438.016 -1.77749e-05 6.91074e-05 5.56423 1.55679e-07 1.90054e-12)
(-2.00874e-14 3.67342e-39 0 411.479 5.0822e-21 7.19179e-05 5.28376 -2.64698e-23 5.8051e-12)
(0 0 0 411.479 4.67181e-06 7.1918e-05 5.28376 -1.77446e-07 2.28443e-12)
(-4.0993e-14 1.5098e-23 0 383.661 5.31282e-06 7.50234e-05 4.97764 1.68903e-07 6.40133e-12)
(8.1986e-14 -1.66971e-23 0 383.661 5.47759e-06 7.50233e-05 4.97764 1.71975e-07 2.9219e-12)
(-2.08878e-14 -1.07525e-19 0 354.694 -1.1368e-23 7.81432e-05 4.64664 -2.64698e-23 6.50893e-12)
(0 0 0 354.694 -5.10093e-06 7.81432e-05 4.64664 -1.08518e-07 2.65486e-12)
(-2.12595e-14 -7.33414e-24 0 324.717 2.93842e-06 8.11854e-05 4.29201 1.03708e-07 6.56439e-12)
(8.50379e-14 2.93365e-23 0 324.717 3.09797e-06 8.11853e-05 4.29201 1.59484e-07 3.14922e-12)
(-2.16096e-14 -3.62214e-19 0 293.888 -9.91002e-06 8.37171e-05 3.91527 -6.92111e-08 7.87928e-12)
(0 0 -1.85063e-21 293.888 -1.88201e-05 8.37172e-05 3.91527 -6.84144e-08 3.03522e-12)
(-4.38726e-14 0 -1.8241e-21 262.393 1.09788e-23 8.62733e-05 3.5186 0 6.39833e-12)
(-8.77452e-14 0 1.8241e-21 262.393 2.35118e-05 8.62736e-05 3.5186 -1.01005e-07 3.53222e-12)
(-4.44759e-14 -8.42794e-23 0 230.433 -5.1327e-06 8.9217e-05 3.10432 2.1124e-07 6.01133e-12)
(1.77904e-13 1.52288e-22 0 230.433 -4.94588e-06 8.92167e-05 3.10432 1.82228e-07 3.0719e-12)
(-6.7539e-14 7.52316e-37 0 198.2 6.80895e-21 9.11106e-05 2.67453 1.5303e-36 8.55899e-12)
(-9.0052e-14 -5.5381e-23 -1.77219e-21 198.2 -2.5094e-05 9.11105e-05 2.67453 -1.76963e-07 3.5353e-12)
(-2.27599e-14 -1.20246e-19 0 165.907 2.24049e-05 9.29025e-05 2.23255 -1.51371e-07 8.08453e-12)
(9.10396e-14 2.72936e-23 0 165.908 2.8985e-05 9.29026e-05 2.23255 -9.225e-08 4.5286e-12)
(2.29774e-14 0 0 133.794 -2.61126e-05 9.4531e-05 1.78159 1.95249e-07 7.6072e-12)
(0 0 0 133.794 -2.51389e-05 9.45311e-05 1.78159 1.8871e-07 2.92742e-12)
(0 -7.61355e-23 0 102.081 -7.61355e-23 9.58948e-05 1.32485 0 7.74727e-12)
(9.26577e-14 -1.4003e-22 0 102.081 2.50893e-05 9.58948e-05 1.32485 -2.35585e-07 4.59272e-12)
(0 0 1.67275e-21 70.9941 -3.12424e-05 9.68114e-05 0.866009 4.24587e-07 7.18535e-12)
(9.32801e-14 2.54071e-22 -1.67275e-21 70.9941 -2.51982e-05 9.68114e-05 0.866009 1.94696e-07 2.95537e-12)
(-2.76619e-14 2.35099e-38 -1.64878e-21 40.7601 5.26621e-36 9.70138e-05 0.408757 -2.11758e-22 6.98544e-12)
(6.61124e-14 -4.127e-22 -3.29756e-21 40.7601 1.57434e-05 9.7014e-05 0.408757 -2.42609e-07 3.77576e-12)
(4.04613e-13 0 0 0.0120347 -5.09599e-07 9.74836e-05 9.57113e-05 4.36533e-07 7.24063e-12)
(-8.09226e-13 0 0 0.0120341 -2.92435e-07 9.74835e-05 9.57066e-05 2.00614e-07 3.8768e-12)
(-4.70395e-14 2.77417e-36 0 -5.30724 -2.04789e-20 9.7304e-05 0.0428218 -4.16572e-38 7.6515e-12)
(0 0 0 -5.30723 -1.46861e-05 9.7304e-05 0.0428218 -2.49551e-07 3.24948e-12)
(-2.64895e-14 0 0 -42.6648 1.56221e-05 9.70562e-05 0.485332 4.49321e-07 7.85893e-12)
(1.20188e-13 2.83704e-22 0 -42.6648 1.58316e-05 9.70562e-05 0.485332 2.06176e-07 4.41636e-12)
(0 -2.72232e-19 0 -67.4128 -2.71051e-20 9.67515e-05 0.914768 -1.05879e-22 7.93322e-12)
(4.09867e-14 -2.90444e-22 0 -67.4128 -1.60511e-05 9.67515e-05 0.914768 -2.56434e-07 3.56087e-12)
(-2.31522e-14 0 0 -90.3728 1.02163e-05 9.62888e-05 1.32765 4.05076e-07 7.4338e-12)
(0 0 0 -90.3728 1.04334e-05 9.62888e-05 1.32765 2.12e-07 4.02435e-12)
(2.29782e-14 -6.41714e-19 0 -111.439 0 9.55906e-05 1.721 -1.05879e-22 7.48376e-12)
(-2.53668e-14 0 0 -111.439 -1.95143e-05 9.55905e-05 1.721 -2.63767e-07 2.9659e-12)
(0 -1.74645e-23 5.96122e-21 -130.519 2.32191e-05 9.51771e-05 2.09207 8.42626e-08 8.46185e-12)
(0 2.91075e-23 -5.96122e-21 -130.519 2.34452e-05 9.5177e-05 2.09207 1.53284e-07 4.537e-12)
(0 -3.1664e-19 2.93789e-21 -147.556 -1.51978e-05 9.48888e-05 2.43814 -1.33719e-07 9.14473e-12)
(0 0 0 -147.556 -2.49801e-05 9.48888e-05 2.43814 -2.18842e-07 4.03999e-12)
(3.92587e-15 5.87747e-39 2.89578e-21 -162.539 -4.90937e-23 9.47349e-05 2.75732 6.81311e-39 7.97349e-12)
(0 0 0 -162.539 2.20175e-05 9.47349e-05 2.75732 -2.76584e-07 4.61136e-12)
(1.8667e-15 3.34486e-23 -5.70856e-21 -175.492 -2.53236e-05 9.47081e-05 3.04845 1.07777e-07 7.39506e-12)
(-2.39434e-14 -3.34486e-23 5.70856e-21 -175.492 -2.50611e-05 9.47081e-05 3.04845 1.79915e-07 2.79344e-12)
(2.18106e-14 -1.13583e-22 0 -186.461 -1.13583e-22 9.46594e-05 3.31072 -1.05879e-22 7.28672e-12)
(-8.72424e-14 2.54542e-22 -5.62674e-21 -186.461 1.71977e-05 9.46595e-05 3.31072 -2.86117e-07 3.79117e-12)
(0 0 5.5461e-21 -195.514 -5.65474e-06 9.53023e-05 3.54381 4.39263e-07 7.18286e-12)
(-8.61294e-14 -1.53568e-22 0 -195.514 -5.40322e-06 9.53021e-05 3.54381 2.37048e-07 3.7172e-12)
(1.6846e-15 -1.55709e-19 0 -202.757 1.52466e-20 9.55933e-05 3.74774 1.05879e-22 7.89342e-12)
(1.47023e-13 -6.29444e-22 0 -202.757 -1.05574e-05 9.55933e-05 3.74774 -2.9553e-07 3.02316e-12)
(2.09474e-14 0 0 -208.312 1.43637e-05 9.62734e-05 3.92359 2.57449e-07 8.57647e-12)
(8.37894e-14 7.74113e-24 0 -208.312 1.46119e-05 9.62734e-05 3.92359 2.44709e-07 4.79864e-12)
(0 -9.7097e-20 0 -212.304 -9.31736e-21 9.74787e-05 4.07225 0 8.76283e-12)
(0 0 0 -212.304 -6.54033e-06 9.74786e-05 4.07225 -3.05079e-07 4.2325e-12)
(-4.22928e-14 -6.13466e-23 -5.23491e-21 -214.883 -3.95264e-06 9.84787e-05 4.19511 1.42033e-07 8.54202e-12)
(1.03301e-13 6.13466e-23 0 -214.883 -3.68803e-06 9.84787e-05 4.19511 2.21796e-07 4.04325e-12)
(-2.00243e-14 -1.42535e-36 0 -216.204 1.02707e-20 9.95751e-05 4.29416 1.05879e-22 8.66137e-12)
(-1.01739e-13 2.0139e-22 -5.15988e-21 -216.204 1.95966e-06 9.95751e-05 4.29416 -3.15551e-07 4.59513e-12)
(1.97103e-14 -1.98669e-23 0 -216.416 -4.23521e-06 0.000100727 4.37134 1.94153e-07 8.75352e-12)
(7.8841e-14 2.80826e-23 0 -216.416 -3.95869e-06 0.000100727 4.37134 2.61922e-07 4.2774e-12)
(1.63115e-15 -7.24628e-20 0 -215.659 1.20959e-20 0.000101725 4.4286 1.05879e-22 8.46805e-12)
(5.65539e-14 -2.46578e-22 0 -215.659 -2.44184e-06 0.000101726 4.4286 -3.26814e-07 4.10289e-12)
(-1.90795e-14 0 0 -214.066 1.27333e-05 0.00010326 4.46793 1.58009e-07 9.47129e-12)
(0 0 0 -214.066 1.30118e-05 0.00010326 4.46793 2.43569e-07 5.53816e-12)
(-1.87647e-14 -1.91799e-19 0 -211.766 1.02472e-20 0.000104804 4.49118 0 9.91358e-12)
(0 0 0 -211.766 -1.45454e-05 0.000104804 4.49118 -3.38492e-07 4.90435e-12)
(-3.85861e-14 -3.75043e-23 0 -208.885 6.60151e-06 0.000106084 4.50045 -1.42905e-07 9.78775e-12)
(9.39394e-14 3.75043e-23 0 -208.885 6.88226e-06 0.000106084 4.50045 -5.4089e-08 5.63273e-12)
(1.81394e-14 -5.41733e-19 0 -205.531 -3.57428e-07 0.000107066 4.49773 -3.90524e-09 1.22008e-11)
(0 0 0 -205.531 -1.42575e-05 0.000107066 4.49773 -3.50597e-07 5.81114e-12)
(0 -6.28879e-23 4.66393e-21 -201.791 6.65049e-21 0.000108536 4.48463 0 1.05288e-11)
(0 0 0 -201.791 2.46464e-05 0.000108537 4.48463 -3.57551e-07 6.88596e-12)
(-1.75234e-14 -1.3468e-23 0 -197.747 -1.99576e-05 0.000110241 4.46248 9.57531e-08 9.11922e-12)
(0 4.04041e-23 0 -197.747 -1.96447e-05 0.00011024 4.46248 1.89587e-07 5.15381e-12)
(0 -7.47837e-20 9.0624e-21 -193.479 -1.10114e-20 0.00011079 4.43277 -1.05879e-22 1.05721e-11)
(1.56765e-13 -4.87829e-22 -9.0624e-21 -193.479 -5.8284e-06 0.00011079 4.43277 -3.71648e-07 4.93554e-12)
(-1.87328e-14 1.74463e-23 -8.93251e-21 -189.045 2.21848e-05 0.00011209 4.397 -2.45202e-08 1.26618e-11)
(6.76794e-14 1.74463e-23 0 -189.045 2.24954e-05 0.00011209 4.397 7.30959e-08 8.32185e-12)
(-3.50877e-14 1.3757e-22 -1.7609e-20 -184.487 -2.49587e-05 0.000113262 4.35579 -3.95951e-07 1.33784e-11)
(-6.64933e-14 -6.8785e-23 8.80449e-21 -184.487 -2.462e-05 0.000113262 4.35579 -2.96082e-07 6.94562e-12)
(1.86912e-15 1.46937e-38 0 -179.853 1.01644e-20 0.000114112 4.31013 -1.05879e-22 1.11512e-11)
(-8.3522e-14 5.956e-23 0 -179.853 1.81469e-05 0.000114112 4.31013 -3.93693e-07 7.97704e-12)
(1.79389e-14 4.17672e-23 0 -175.179 -6.56382e-06 0.000115497 4.26095 4.19684e-08 1.16711e-11)
(-1.79389e-14 -2.08836e-23 0 -175.179 -6.21944e-06 0.000115497 4.26095 1.45834e-07 7.1207e-12)
(0 -3.56858e-19 0 -170.496 6.77626e-21 0.000115784 4.20878 0 1.31749e-11)
(4.5346e-14 -1.37758e-22 -8.43131e-21 -170.496 -1.54215e-05 0.000115784 4.20878 -4.10356e-07 7.8124e-12)
(-1.95209e-15 1.94777e-22 -1.66209e-20 -165.827 2.02414e-05 0.000116269 4.15437 -3.28324e-07 1.49479e-11)
(0 -6.49256e-23 8.31047e-21 -165.827 2.05938e-05 0.000116269 4.15437 -2.19929e-07 9.21146e-12)
(0 -1.91985e-22 0 -161.186 -8.0786e-06 0.000117336 4.09801 -2.55582e-07 1.24156e-11)
(1.21598e-13 1.91985e-22 0 -161.186 -7.72363e-06 0.000117336 4.09801 -1.45024e-07 8.73164e-12)
(1.69323e-14 -1.48998e-19 8.07396e-21 -156.59 -8.47033e-22 0.000117628 4.04003 -1.05879e-22 1.53644e-11)
(1.19419e-13 0 -8.07396e-21 -156.59 -6.49456e-06 0.000117628 4.04003 -4.13698e-07 8.71796e-12)
(-2.93188e-14 6.02273e-23 0 -152.052 9.67905e-06 0.000118034 3.98089 -2.03355e-07 1.45026e-11)
(0 0 0 -152.052 1.0047e-05 0.000118034 3.98089 -3.04784e-07 1.08381e-11)
(-1.43957e-14 0 0 -147.583 -9.42624e-06 0.000118415 3.92082 -2.6634e-07 1.55552e-11)
(1.15165e-13 0 0 -147.583 -9.02995e-06 0.000118415 3.92082 -1.48132e-07 8.63891e-12)
(1.41362e-14 -1.84213e-22 0 -143.192 7.38399e-21 0.000118377 3.86015 0 1.38865e-11)
(0 0 0 -143.192 2.57794e-06 0.000118377 3.86015 -4.68327e-07 1.07964e-11)
(-1.38811e-14 0 0 -138.883 5.40076e-06 0.000118707 3.7991 -1.92145e-07 1.75676e-11)
(0 0 0 -138.883 5.81597e-06 0.000118707 3.7991 -6.84403e-08 1.02691e-11)
(-1.36302e-14 3.36354e-23 0 -134.663 -1.68347e-05 0.000118361 3.7377 -2.70552e-07 1.61058e-11)
(5.4521e-14 0 0 -134.663 -1.6426e-05 0.000118361 3.7377 -3.86304e-07 1.25153e-11)
(2.14373e-15 9.40395e-38 0 -130.537 1.78807e-22 0.000117966 3.67633 2.48144e-38 1.73958e-11)
(3.80073e-14 -8.919e-24 0 -130.537 1.72599e-05 0.000117966 3.67633 -4.98409e-07 1.04425e-11)
(-2.62827e-14 0 0 -126.503 -4.41108e-06 0.000118214 3.61503 -2.68116e-08 1.36341e-11)
(0 0 0 -126.503 -3.99158e-06 0.000118214 3.61503 1.05851e-07 1.36348e-11)
(-1.29032e-14 -1.18082e-19 -7.19333e-21 -122.566 0 0.000117463 3.55376 -1.05879e-22 2.09638e-11)
(-1.50855e-14 0 0 -122.566 -1.17688e-05 0.000117463 3.55376 -5.22115e-07 1.00817e-11)
(0 -5.53924e-23 0 -118.73 1.73867e-05 0.000116955 3.49289 -3.58658e-07 1.65431e-11)
(-5.06773e-14 0 0 -118.73 1.78126e-05 0.000116955 3.49289 -2.19246e-07 1.75693e-11)
(1.24395e-14 -5.45985e-23 1.39772e-20 -114.993 -1.96106e-05 0.00011624 3.43247 -2.51931e-07 2.2176e-11)
(4.97581e-14 5.45985e-23 -1.39772e-20 -114.993 -1.9104e-05 0.00011624 3.43247 -1.08875e-07 8.30761e-12)
(-2.23226e-15 -2.58657e-22 0 -111.356 1.01644e-20 0.000115372 3.37248 1.05879e-22 1.33207e-11)
(-3.44093e-14 1.18099e-22 0 -111.356 1.83111e-05 0.000115372 3.37248 -5.72438e-07 1.90487e-11)
(-1.19922e-14 2.65223e-23 0 -107.819 -1.26509e-05 0.000114744 3.31304 3.1088e-07 2.4293e-11)
(3.37298e-14 -2.65223e-23 0 -107.819 -1.2106e-05 0.000114744 3.31304 4.613e-07 7.94712e-12)
(0 -1.83739e-22 1.33848e-20 -104.383 8.47033e-22 0.000113685 3.25426 0 1.25552e-11)
(-2.80699e-14 0 -1.33848e-20 -104.383 6.87817e-06 0.000113685 3.25426 -6.05871e-07 2.1824e-11)
(-1.38338e-14 -5.1535e-23 -1.3193e-20 -101.048 -9.26161e-06 0.000112369 3.19621 5.47918e-07 2.80723e-11)
(3.24095e-14 1.0785e-22 0 -101.048 -8.67689e-06 0.000112369 3.19621 5.12107e-07 6.32133e-12)
(-2.28457e-15 -4.51895e-22 0 -97.8111 1.43996e-20 0.000110798 3.13892 2.11758e-22 8.84247e-12)
(1.36355e-14 0 0 -97.8111 6.85273e-06 0.000110798 3.13892 -6.4288e-07 2.45315e-11)
(0 0 0 -94.6715 5.06135e-06 0.00010989 3.08248 7.98369e-07 3.1513e-11)
(-5.80198e-14 -2.33671e-22 -1.28175e-20 -94.6715 5.69123e-06 0.00010989 3.08248 5.44648e-07 4.53557e-12)
(-1.32475e-14 -1.27224e-19 -1.26338e-20 -91.6263 1.18585e-20 0.000108267 3.02678 0 5.34632e-12)
(0 0 0 -91.6263 -1.45813e-05 0.000108266 3.02678 -6.84027e-07 2.87261e-11)
(0 4.86434e-23 0 -88.6759 1.85309e-05 0.000106817 2.97194 3.49972e-07 3.85288e-11)
(-2.61152e-14 -4.86434e-23 0 -88.6759 1.92146e-05 0.000106817 2.97194 5.2687e-07 9.17467e-13)
(1.0549e-14 -3.72374e-19 0 -85.8187 0 0.00010501 2.91804 -1.05879e-22 1.45995e-12)
(0 0 0 -85.8187 -2.21313e-05 0.000105009 2.91804 -6.87242e-07 3.88138e-11)
(1.03576e-14 0 0 -83.051 2.0016e-05 0.000102972 2.86505 -3.83685e-07 4.95397e-11)
(-1.2686e-14 0 0 -83.051 2.0787e-05 0.000102972 2.86505 -1.96205e-07 -8.1403e-12)
(-2.03392e-14 0 0 -80.3691 -1.11964e-05 0.00010146 2.8129 -1.65666e-07 -1.28908e-11)
(4.06785e-14 0 0 -80.3691 -1.07695e-05 0.00010146 2.8129 2.70905e-08 4.89547e-11)
(-9.98511e-15 -1.33682e-20 0 -77.7711 0 9.89912e-05 2.7616 -1.05879e-22 6.02888e-11)
(0 0 0 -77.7711 -8.24614e-07 9.89921e-05 2.7616 -5.6342e-07 -2.2832e-11)
(0 0 1.15855e-20 -75.2524 1.16828e-05 9.71644e-05 2.71114 -1.93079e-07 -2.54917e-11)
(-1.21483e-14 0 -1.15855e-20 -75.2524 1.20614e-05 9.71634e-05 2.71114 1.14546e-08 6.84637e-11)
(0 0 0 -72.809 -1.56144e-05 9.49916e-05 2.66135 -3.34241e-07 8.22982e-11)
(0 0 0 -72.809 -1.45957e-05 9.4993e-05 2.66135 -1.23281e-07 -4.05891e-11)
(-1.18026e-14 5.87747e-38 -1.12558e-20 -70.4389 2.03332e-22 9.21591e-05 2.61229 -1.05879e-22 -5.17916e-11)
(0 0 -1.12558e-20 -70.4389 7.63033e-06 9.21577e-05 2.61229 -5.15228e-07 9.05024e-11)
(0 4.33378e-23 -1.10945e-20 -68.1363 2.02515e-06 8.99478e-05 2.56386 -4.15665e-08 1.10178e-10)
(7.42447e-14 -4.33378e-23 0 -68.1363 3.2186e-06 8.99496e-05 2.56386 1.82615e-07 -6.81067e-11)
(-1.82254e-14 0 0 -65.8976 0 8.76667e-05 2.51589 -1.05879e-22 -8.60752e-11)
(3.64507e-14 0 0 -65.8976 -2.21042e-06 8.76646e-05 2.51589 -4.02422e-07 1.27828e-10)
(2.02503e-14 -4.21044e-23 2.15575e-20 -63.7209 -6.25832e-06 8.46751e-05 2.46839 -1.09766e-07 1.54852e-10)
(0 8.42089e-23 0 -63.7209 -4.83039e-06 8.46777e-05 2.46839 1.28909e-07 -1.12185e-10)
(0 -1.70344e-34 0 -61.6029 6.25393e-21 8.15662e-05 2.42133 1.05879e-22 -1.40755e-10)
(-4.62864e-14 0 -2.12485e-20 -61.6029 5.53196e-06 8.15632e-05 2.42133 -5.97849e-07 1.80713e-10)
(-1.96089e-14 -1.84078e-22 -2.0944e-20 -59.5407 1.36794e-08 7.88348e-05 2.3746 1.29803e-07 2.18954e-10)
(3.45129e-14 1.84078e-22 0 -59.5407 1.76049e-06 7.88386e-05 2.3746 3.84216e-07 -1.75778e-10)
(0 -1.26793e-20 0 -57.5325 -5.50571e-21 7.59966e-05 2.32818 1.05879e-22 -2.20014e-10)
(0 0 0 -57.5325 -1.19825e-06 7.59921e-05 2.32818 -5.47805e-07 2.61699e-10)
(0 -3.9742e-23 2.03479e-20 -55.5776 -4.24968e-06 7.27007e-05 2.28206 1.13716e-07 3.17357e-10)
(1.06682e-14 5.9613e-23 0 -55.5776 -2.06817e-06 7.27063e-05 2.28206 3.85311e-07 -2.73545e-10)
(-8.17234e-15 3.5735e-36 0 -53.6757 1.29139e-20 6.93781e-05 2.23628 3.62105e-38 -3.41318e-10)
(0 0 0 -53.6757 3.72494e-06 6.93715e-05 2.23628 -6.59119e-07 3.82302e-10)
(-5.68869e-15 -1.73749e-22 1.97688e-20 -51.825 -6.3798e-06 6.58457e-05 2.19088 3.12296e-07 4.64248e-10)
(6.4213e-14 1.93055e-22 -1.97688e-20 -51.825 -3.59512e-06 6.58538e-05 2.19088 6.02613e-07 -4.20007e-10)
(0 -1.60118e-22 1.94855e-20 -50.0237 8.26377e-21 6.23026e-05 2.14579 0 -5.22592e-10)
(0 0 -1.94855e-20 -50.0237 5.30811e-06 6.2293e-05 2.14579 -8.53155e-07 5.6256e-10)
(-1.00696e-14 -7.50242e-23 0 -48.2704 -5.63667e-06 5.88091e-05 2.10102 6.03662e-07 6.84506e-10)
(0 0 -1.92062e-20 -48.2704 -2.01738e-06 5.88209e-05 2.10102 9.14367e-07 -6.3986e-10)
(-1.28984e-14 4.9841e-36 0 -46.5628 9.18172e-21 5.53209e-05 2.05653 2.11758e-22 -7.9442e-10)
(6.08631e-14 5.91591e-22 0 -46.5628 3.58751e-06 5.53069e-05 2.05653 -1.00717e-06 8.34172e-10)
(0 0 0 -44.899 -8.15412e-06 5.16078e-05 2.01225 8.5412e-07 1.01674e-09)
(5.97952e-14 0 0 -44.899 -3.3683e-06 5.1625e-05 2.01225 1.1871e-06 -9.73594e-10)
(2.29883e-15 0 1.83921e-20 -43.277 9.87874e-21 4.77703e-05 1.96818 2.11758e-22 -1.20419e-09)
(-9.64278e-15 -2.87377e-22 -1.83921e-20 -43.277 3.26944e-06 4.77496e-05 1.96818 -1.25524e-06 1.24457e-09)
(7.21652e-15 1.05927e-23 0 -41.6945 -9.47966e-06 4.36686e-05 1.92425 1.05756e-06 1.51955e-09)
(5.77322e-14 0 0 -41.6945 -3.04965e-06 4.36939e-05 1.92425 1.49131e-06 -1.47628e-09)
(0 -4.81482e-35 -1.78687e-20 -40.1492 -1.05984e-21 4.01572e-05 1.88037 0 -1.82416e-09)
(2.83685e-14 8.37596e-22 1.78687e-20 -40.1492 1.03173e-05 4.01268e-05 1.88037 -1.53829e-06 1.86616e-09)
(6.97079e-15 1.66646e-22 0 -38.6394 -2.361e-05 3.59027e-05 1.8365 6.00869e-07 2.2794e-09)
(0 0 0 -38.6394 -1.48508e-05 3.59402e-05 1.8365 2.18596e-06 -2.23893e-09)
(1.3705e-14 -1.58315e-21 0 -37.1635 4.92388e-20 3.2082e-05 1.7926 0 -2.76859e-09)
(1.83082e-14 0 0 -37.1635 1.96415e-05 3.2037e-05 1.7926 -2.45328e-06 2.80352e-09)
(8.97128e-15 4.81482e-35 0 -35.7203 1.67826e-21 2.79973e-05 1.74863 4.23516e-22 3.43439e-09)
(-8.97128e-15 0 0 -35.7203 -1.83339e-05 2.8052e-05 1.74863 3.43683e-06 -3.3881e-09)
(0 -5.69143e-22 1.68661e-20 -34.3087 1.80522e-20 2.4093e-05 1.70456 -8.47033e-22 -4.18862e-09)
(2.65004e-14 0 0 -34.3087 1.95144e-05 2.40269e-05 1.70456 -3.67178e-06 4.22084e-09)
(1.3032e-14 2.44443e-21 0 -32.928 -4.74338e-20 1.94977e-05 1.66038 0 5.18036e-09)
(0 0 0 -32.928 -2.15896e-05 1.95784e-05 1.66038 4.8488e-06 -5.13316e-09)
(6.41002e-15 -1.58266e-21 0 -31.5775 3.0716e-20 1.54825e-05 1.6161 0 -6.34729e-09)
(2.56401e-14 1.02413e-21 0 -31.5775 2.57468e-05 1.53848e-05 1.6161 -5.23917e-06 6.37567e-09)
(0 1.75464e-21 0 -30.2564 -6.77626e-20 1.05568e-05 1.57169 0 7.83653e-09)
(2.52285e-14 0 0 -30.2564 -2.8508e-05 1.06762e-05 1.57169 6.8018e-06 -7.78769e-09)
(-6.20735e-15 0 0 -28.9643 2.57198e-49 6.6176e-06 1.52714 -1.69407e-21 -9.63312e-09)
(-2.48294e-14 0 0 -28.9643 3.48787e-05 6.47271e-06 1.52714 -7.42653e-06 9.65624e-09)
(-1.43376e-14 -2.89642e-35 3.00927e-36 -27.7012 -5.26046e-20 -2.18356e-22 1.48248 -3.48134e-37 1.65436e-24)
(0 0 0 -27.7012 -4.02861e-05 1.4522e-06 1.48248 9.55614e-06 -1.18346e-08)
(-6.01712e-15 0 0 -26.4675 6.77626e-20 -2.67974e-06 1.43773 -2.63622e-51 -1.46444e-08)
(-2.40685e-14 0 0 -26.4675 4.79408e-05 -2.89485e-06 1.43773 -1.0622e-05 1.46604e-08)
(0 0 9.81682e-20 -25.265 -1.35525e-20 -2.80675e-07 1.39299 1.69407e-21 7.61459e-09)
(7.99277e-15 0 0 -25.265 -5.35656e-05 -5.10205e-06 1.39299 1.34865e-05 -1.80146e-08)
(0 -2.17784e-21 1.50265e-20 -24.0962 1.35525e-20 -1.25289e-05 1.3484 0 -2.23019e-08)
(4.67144e-14 0 0 -24.0962 5.93054e-05 -1.2849e-05 1.3484 -1.5108e-05 2.23085e-08)
(-5.75494e-15 7.52316e-37 0 -22.9654 -2.71051e-20 -1.67336e-05 1.30418 3.38813e-21 2.75401e-08)
(2.30198e-14 0 0 -22.9654 -6.18547e-05 -1.81569e-05 1.30418 1.87375e-05 -2.74756e-08)
(-7.65401e-15 -2.98586e-21 -1.45989e-20 -21.8776 1.0842e-19 -2.22616e-05 1.26067 0 -3.40432e-08)
(-2.2694e-14 -7.29943e-21 0 -21.8776 6.91407e-05 -2.27398e-05 1.26067 -2.08814e-05 3.40368e-08)
(-7.5443e-15 1.26389e-34 -2.87792e-20 -20.8394 -2.26488e-19 -2.9495e-05 1.21823 -2.87553e-36 4.20895e-08)
(0 7.19481e-21 0 -20.8394 -8.02036e-05 -2.89093e-05 1.21823 2.55391e-05 -4.20124e-08)
(5.51883e-15 -9.93058e-35 -1.41834e-20 -19.8574 1.64188e-20 -3.23655e-05 1.17736 0 -5.21046e-08)
(1.46392e-14 -1.06375e-20 0 -19.8574 9.79601e-05 -3.30813e-05 1.17736 -2.88893e-05 5.20804e-08)
(0 3.85186e-34 1.39801e-20 -18.9376 -1.92898e-20 -4.05771e-05 1.13854 6.77626e-21 6.44966e-08)
(0 0 0 -18.9376 -0.000115759 -3.96996e-05 1.13854 3.54582e-05 -6.44003e-08)
(7.22454e-15 -1.15159e-20 1.37797e-20 -18.0848 1.6263e-19 -4.30325e-05 1.10221 0 -7.99478e-08)