/*--------------------------------*- C++ -*----------------------------------*\
| =========                 |                                                 |
| \\      /  F ield         | OpenFOAM: The Open Source CFD Toolbox           |
|  \\    /   O peration     | Version:  2012                                  |
|   \\  /    A nd           | Website:  www.openfoam.com                      |
|    \\/     M anipulation  |                                                 |
\*---------------------------------------------------------------------------*/
FoamFile
{
    version     2.0;
    format      ascii;
    class       volScalarField;
    location    "20000";
    object      omega;
}
// * * * * * * * * * * * * * * * * * * * * * * * * * * * * * * * * * * * * * //

dimensions      [0 0 -1 0 0 0 0];


internalField   nonuniform List<scalar> 
2560
(
1.52415e+06
1.52415e+06
265138
265138
89732.4
89732.4
42012.5
42012.5
23474.5
23474.5
14766.8
14766.8
10268.5
10268.5
7770.89
7770.89
6270.08
6270.08
5296.59
5296.59
4623.04
4623.04
4132.45
4132.45
3760.37
3760.37
3469.01
3469.01
3234.93
3234.93
3042.9
3042.9
2882.62
2882.62
2746.89
2746.89
2630.53
2630.53
2529.7
2529.7
2441.5
2441.5
2363.7
2363.7
2294.57
2294.57
2232.69
2232.69
2176.94
2176.94
2126.4
2126.4
2080.3
2080.3
2038
2038
1998.93
1998.93
1962.65
1962.65
1928.72
1928.72
1896.8
1896.8
1866.57
1866.57
1837.74
1837.74
1810.07
1810.07
1783.33
1783.33
1757.31
1757.31
1731.82
1731.82
1706.71
1706.71
1681.82
1681.82
1657.01
1657.01
1632.16
1632.16
1607.16
1607.16
1581.92
1581.92
1556.36
1556.36
1530.4
1530.4
1504.01
1504.01
1477.13
1477.13
1449.75
1449.75
1421.86
1421.86
1393.46
1393.46
1364.57
1364.57
1335.22
1335.22
1305.47
1305.47
1275.39
1275.39
1245.03
1245.03
1214.51
1214.51
1183.91
1183.91
1153.36
1153.36
1122.96
1122.96
1092.85
1092.85
1063.16
1063.16
1034
1034
1005.52
1005.52
977.832
977.832
951.047
951.047
925.267
925.267
900.574
900.574
877.035
877.035
854.696
854.696
833.58
833.58
813.691
813.691
795.012
795.012
777.498
777.498
761.093
761.093
745.724
745.724
731.307
731.307
717.751
717.751
704.961
704.961
692.841
692.841
681.296
681.296
670.239
670.239
659.586
659.586
649.264
649.264
639.206
639.206
629.356
629.356
619.666
619.666
610.095
610.095
600.613
600.613
591.192
591.192
581.816
581.816
572.469
572.469
563.143
563.143
553.831
553.831
544.532
544.532
535.244
535.244
525.969
525.969
516.711
516.711
507.473
507.473
498.26
498.26
489.078
489.078
479.931
479.931
470.827
470.827
461.77
461.77
452.767
452.767
443.824
443.824
434.945
434.945
426.137
426.137
417.404
417.404
408.751
408.751
400.183
400.183
391.704
391.704
383.317
383.317
375.028
375.028
366.838
366.838
358.751
358.751
350.769
350.769
342.896
342.896
335.133
335.133
327.482
327.482
319.944
319.944
312.521
312.521
305.213
305.213
298.023
298.023
290.949
290.949
283.994
283.994
277.155
277.155
270.435
270.435
263.831
263.831
257.345
257.345
250.975
250.975
244.722
244.722
238.583
238.583
232.56
232.56
226.65
226.65
220.853
220.853
215.168
215.168
209.594
209.594
204.13
204.13
198.775
198.775
193.528
193.528
188.388
188.388
183.353
183.353
178.423
178.423
173.596
173.596
168.871
168.871
164.247
164.247
159.723
159.723
155.297
155.297
150.969
150.969
146.738
146.738
142.602
142.602
138.561
138.561
134.613
134.613
130.759
130.759
126.996
126.996
123.324
123.324
119.742
119.742
116.25
116.25
112.846
112.846
109.53
109.53
106.3
106.3
103.156
103.156
100.095
100.095
97.1175
97.1175
94.2206
94.2207
91.403
91.403
88.6626
88.6626
85.9974
85.9974
83.4054
83.4054
80.8845
80.8845
78.4326
78.4326
76.0478
76.0478
73.7283
73.7283
71.4724
71.4724
69.2786
69.2786
67.1457
67.1457
65.0723
65.0723
63.0573
63.0573
61.0997
61.0997
59.1985
59.1985
57.3525
57.3525
55.5608
55.5608
53.8223
53.8223
52.1359
52.1359
50.5003
50.5003
48.9145
48.9145
47.3771
47.3771
45.8871
45.8871
44.4432
44.4432
43.0444
43.0444
41.6897
41.6897
40.3782
40.3782
39.1093
39.1093
37.8822
37.8822
36.6962
36.6962
35.5509
35.5509
34.4457
34.4457
33.38
33.38
32.3534
32.3534
31.3654
31.3654
30.4153
30.4153
29.5025
29.5025
28.6262
28.6262
27.7856
27.7856
26.9797
26.9797
26.2075
26.2075
25.4676
25.4676
24.7589
24.7589
24.08
24.08
23.43
23.43
22.8075
22.8075
22.2116
22.2116
21.6411
21.6411
21.0947
21.0947
20.5711
20.5711
20.0688
20.0688
19.5862
19.5862
19.1215
19.1215
18.6727
18.6727
18.238
18.238
17.8152
17.8152
17.403
17.403
17
17
16.6057
16.6057
16.2198
16.2198
15.8424
15.8424
15.4737
15.4737
15.1135
15.1135
14.7613
14.7613
14.4163
14.4163
14.0775
14.0775
13.7442
13.7442
13.4158
13.4158
13.0919
13.0919
12.7726
12.7726
12.458
12.458
12.1485
12.1485
11.8451
11.8451
11.5486
11.5487
11.2604
11.2604
10.9814
10.9814
10.7122
10.7122
10.4529
10.4529
10.203
10.203
9.96159
9.96159
9.72715
9.72715
9.49752
9.49752
9.27017
9.27017
9.04265
9.04265
8.81341
8.81341
8.58234
8.58234
8.35066
8.35066
8.12057
8.12057
7.89472
7.89472
7.67543
7.67543
7.46414
7.46414
7.26135
7.26136
7.06683
7.06683
6.88005
6.88005
6.70074
6.70074
6.52927
6.52927
6.36644
6.36644
6.21301
6.21301
6.06912
6.06913
5.93425
5.93425
5.80742
5.80742
5.68767
5.68767
5.57432
5.57432
5.46705
5.46705
5.36591
5.36591
5.27136
5.27136
5.18409
5.18409
5.10473
5.10473
5.03352
5.03352
4.97027
4.97027
4.91414
4.91414
4.86385
4.86385
4.81772
4.81772
4.77397
4.77397
4.73112
4.73112
4.68782
4.68782
4.6423
4.6423
4.59202
4.59202
4.53406
4.53406
4.46623
4.46623
4.3878
4.3878
4.29947
4.29947
4.20285
4.20285
4.10081
4.10081
3.99751
3.99751
3.89692
3.89692
3.80101
3.80101
3.70977
3.70977
3.62312
3.62312
3.54125
3.54125
3.46368
3.46368
3.38919
3.38919
3.31675
3.31676
3.24634
3.24635
3.17876
3.17876
3.11499
3.11499
3.05567
3.05567
3.00105
3.00105
2.95105
2.95105
2.90467
2.90467
2.85974
2.85974
2.81387
2.81387
2.76606
2.76606
2.71745
2.71745
2.67018
2.67019
2.62588
2.62588
2.58531
2.58532
2.549
2.54901
2.51749
2.51749
2.49091
2.49092
2.46934
2.46935
2.453
2.45301
2.44172
2.44173
2.43572
2.43573
1.52415e+06
1.52415e+06
265138
265138
89732.4
89732.4
42012.5
42012.5
23474.5
23474.5
14766.8
14766.8
10268.5
10268.5
7770.89
7770.89
6270.08
6270.08
5296.59
5296.59
4623.04
4623.04
4132.45
4132.45
3760.37
3760.37
3469.01
3469.01
3234.93
3234.93
3042.9
3042.9
2882.62
2882.62
2746.89
2746.89
2630.53
2630.53
2529.7
2529.7
2441.5
2441.5
2363.71
2363.71
2294.57
2294.57
2232.69
2232.69
2176.94
2176.94
2126.4
2126.4
2080.3
2080.3
2038
2038
1998.93
1998.93
1962.65
1962.65
1928.72
1928.72
1896.8
1896.8
1866.57
1866.57
1837.74
1837.74
1810.07
1810.07
1783.33
1783.33
1757.31
1757.31
1731.82
1731.82
1706.71
1706.71
1681.82
1681.82
1657.01
1657.01
1632.16
1632.16
1607.16
1607.16
1581.92
1581.92
1556.36
1556.36
1530.4
1530.4
1504.01
1504.01
1477.13
1477.13
1449.75
1449.75
1421.86
1421.86
1393.46
1393.46
1364.57
1364.57
1335.22
1335.22
1305.47
1305.47
1275.39
1275.39
1245.03
1245.03
1214.51
1214.51
1183.91
1183.91
1153.36
1153.36
1122.96
1122.96
1092.85
1092.85
1063.16
1063.16
1034
1034
1005.52
1005.52
977.833
977.833
951.048
951.048
925.267
925.267
900.574
900.574
877.035
877.035
854.696
854.696
833.58
833.58
813.692
813.692
795.012
795.012
777.498
777.498
761.093
761.093
745.724
745.724
731.307
731.307
717.751
717.751
704.961
704.961
692.841
692.841
681.297
681.297
670.239
670.239
659.587
659.587
649.264
649.264
639.207
639.207
629.356
629.356
619.666
619.666
610.095
610.095
600.613
600.613
591.193
591.193
581.816
581.816
572.469
572.469
563.143
563.143
553.831
553.831
544.532
544.532
535.244
535.244
525.969
525.969
516.711
516.711
507.473
507.473
498.26
498.26
489.078
489.078
479.931
479.931
470.827
470.827
461.77
461.77
452.767
452.767
443.824
443.824
434.945
434.945
426.137
426.137
417.404
417.404
408.751
408.751
400.183
400.183
391.704
391.704
383.317
383.317
375.028
375.028
366.838
366.838
358.751
358.751
350.77
350.77
342.896
342.896
335.133
335.133
327.482
327.482
319.944
319.944
312.521
312.521
305.214
305.214
298.023
298.023
290.95
290.95
283.994
283.994
277.155
277.155
270.435
270.435
263.831
263.831
257.345
257.345
250.975
250.975
244.722
244.722
238.583
238.583
232.56
232.56
226.65
226.65
220.853
220.853
215.168
215.168
209.594
209.594
204.13
204.13
198.775
198.775
193.528
193.528
188.388
188.388
183.353
183.353
178.423
178.423
173.596
173.596
168.871
168.871
164.247
164.247
159.723
159.723
155.297
155.297
150.969
150.969
146.738
146.738
142.602
142.602
138.561
138.561
134.613
134.613
130.759
130.759
126.996
126.996
123.324
123.324
119.742
119.742
116.25
116.25
112.846
112.846
109.53
109.53
106.3
106.3
103.156
103.156
100.095
100.095
97.1175
97.1175
94.2207
94.2207
91.403
91.403
88.6626
88.6626
85.9974
85.9974
83.4054
83.4054
80.8845
80.8845
78.4326
78.4326
76.0478
76.0478
73.7283
73.7283
71.4724
71.4724
69.2786
69.2786
67.1456
67.1456
65.0723
65.0723
63.0573
63.0573
61.0997
61.0997
59.1984
59.1984
57.3525
57.3525
55.5608
55.5608
53.8223
53.8223
52.1359
52.1359
50.5003
50.5003
48.9145
48.9145
47.3771
47.3771
45.8871
45.8871
44.4432
44.4432
43.0443
43.0444
41.6896
41.6896
40.3782
40.3782
39.1093
39.1093
37.8822
37.8822
36.6962
36.6962
35.5509
35.5509
34.4457
34.4457
33.38
33.38
32.3534
32.3534
31.3653
31.3653
30.4152
30.4152
29.5024
29.5024
28.6261
28.6261
27.7856
27.7856
26.9797
26.9797
26.2074
26.2074
25.4675
25.4675
24.7588
24.7588
24.08
24.08
23.4299
23.4299
22.8075
22.8075
22.2115
22.2115
21.641
21.641
21.0946
21.0946
20.571
20.571
20.0687
20.0687
19.5861
19.5861
19.1214
19.1214
18.6726
18.6726
18.2378
18.2379
17.8151
17.8151
17.4029
17.4029
16.9999
16.9999
16.6056
16.6056
16.2197
16.2197
15.8423
15.8424
15.4737
15.4737
15.1135
15.1135
14.7613
14.7613
14.4162
14.4163
14.0775
14.0775
13.7441
13.7441
13.4157
13.4157
13.0919
13.0919
12.7725
12.7725
12.4579
12.4579
12.1485
12.1485
11.845
11.845
11.5486
11.5486
11.2604
11.2604
10.9814
10.9814
10.7121
10.7121
10.4528
10.4528
10.203
10.203
9.96156
9.96157
9.72712
9.72712
9.49751
9.49751
9.27016
9.27016
9.04265
9.04265
8.81343
8.81343
8.58237
8.58237
8.3507
8.3507
8.12062
8.12063
7.89477
7.89478
7.67549
7.67549
7.4642
7.46421
7.26142
7.26142
7.06689
7.0669
6.88011
6.88011
6.7008
6.7008
6.52932
6.52932
6.36648
6.36648
6.21304
6.21304
6.06915
6.06915
5.93426
5.93427
5.80742
5.80743
5.68767
5.68767
5.57432
5.57432
5.46705
5.46705
5.3659
5.36591
5.27134
5.27135
5.18406
5.18406
5.10467
5.10468
5.03345
5.03345
4.97017
4.97017
4.91401
4.91402
4.86371
4.86371
4.81756
4.81756
4.77381
4.77381
4.73096
4.73096
4.68767
4.68767
4.64217
4.64217
4.59191
4.59191
4.53399
4.534
4.4662
4.4662
4.38782
4.38782
4.29952
4.29953
4.20293
4.20294
4.10089
4.1009
3.99759
3.99759
3.89698
3.89698
3.80105
3.80106
3.7098
3.7098
3.62314
3.62314
3.54125
3.54126
3.46368
3.46369
3.38919
3.3892
3.31676
3.31677
3.24635
3.24636
3.17877
3.17877
3.11499
3.115
3.05566
3.05566
3.00101
3.00102
2.951
2.951
2.90461
2.90461
2.85968
2.85968
2.81383
2.81384
2.76606
2.76606
2.71746
2.71747
2.67021
2.67021
2.62591
2.62591
2.58533
2.58534
2.54901
2.54902
2.51749
2.51749
2.49091
2.4909
2.46933
2.46933
2.45298
2.45298
2.4417
2.44169
2.4357
2.43569
2.43562
2.43563
2.44142
2.44143
2.45251
2.45252
2.46858
2.46859
2.48988
2.48989
2.51621
2.51622
2.54749
2.54749
2.58356
2.58356
2.62384
2.62384
2.66769
2.66769
2.71448
2.71448
2.76274
2.76274
2.81032
2.81032
2.85615
2.85615
2.90136
2.90136
2.94825
2.94825
2.99878
2.99878
3.05389
3.0539
3.11368
3.11368
3.17792
3.17792
3.2459
3.2459
3.3166
3.3166
3.38925
3.38925
3.46398
3.46398
3.54186
3.54186
3.62407
3.62407
3.71103
3.71103
3.80257
3.80257
3.89879
3.89879
3.99968
3.99968
4.10333
4.10333
4.20569
4.2057
4.30238
4.30239
4.39051
4.39051
4.46843
4.46843
4.53554
4.53554
4.59289
4.59289
4.64284
4.64284
4.68822
4.68822
4.73153
4.73153
4.77443
4.77443
4.81823
4.81823
4.86441
4.86441
4.91471
4.91471
4.97084
4.97084
5.03408
5.03408
5.10528
5.10528
5.18463
5.18463
5.27185
5.27186
5.36632
5.36632
5.46733
5.46733
5.57443
5.57443
5.68765
5.68765
5.80729
5.80729
5.93394
5.93394
6.0686
6.0686
6.21228
6.21228
6.36551
6.36551
6.52812
6.52812
6.69944
6.69944
6.87865
6.87865
7.06526
7.06526
7.25954
7.25954
7.46203
7.46204
7.67296
7.67296
7.89186
7.89186
8.11743
8.11743
8.34738
8.34739
8.57893
8.57893
8.80972
8.80972
9.03853
9.03853
9.26576
9.26577
9.4931
9.4931
9.72289
9.7229
9.95773
9.95774
10.1997
10.1997
10.4503
10.4503
10.7102
10.7102
10.9798
10.9798
11.2589
11.2589
11.5471
11.5471
11.8433
11.8433
12.1466
12.1466
12.4558
12.4558
12.7703
12.7703
13.0895
13.0895
13.4133
13.4133
13.7419
13.7419
14.0753
14.0753
14.4142
14.4142
14.7595
14.7595
15.1121
15.1121
15.4728
15.4728
15.8422
15.8422
16.2203
16.2203
16.6067
16.6067
17.0014
17.0014
17.4046
17.4046
17.817
17.817
18.2398
18.2398
18.6747
18.6747
19.1236
19.1236
19.5884
19.5884
20.0711
20.0711
20.5732
20.5732
21.0965
21.0965
21.6425
21.6425
22.2126
22.2126
22.8081
22.8081
23.4302
23.4302
24.0801
24.0801
24.7588
24.7588
25.4675
25.4675
26.2074
26.2074
26.9797
26.9797
27.7856
27.7856
28.6262
28.6262
29.5026
29.5026
30.4155
30.4155
31.3657
31.3657
32.3538
32.3538
33.3804
33.3804
34.446
34.446
35.5512
35.5512
36.6966
36.6966
37.8825
37.8825
39.1096
39.1096
40.3785
40.3785
41.6899
41.6899
43.0447
43.0447
44.4436
44.4436
45.8875
45.8875
47.3775
47.3775
48.9147
48.9147
50.5005
50.5005
52.1359
52.1359
53.8222
53.8222
55.5606
55.5606
57.3523
57.3523
59.1982
59.1982
61.0994
61.0994
63.057
63.057
65.0719
65.0719
67.1453
67.1453
69.2784
69.2784
71.4722
71.4722
73.728
73.728
76.0475
76.0475
78.4322
78.4322
80.8841
80.8841
83.4051
83.4051
85.9973
85.9973
88.6626
88.6626
91.4031
91.4031
94.2209
94.2209
97.1178
97.1178
100.096
100.096
103.156
103.156
106.3
106.3
109.53
109.53
112.846
112.846
116.25
116.25
119.742
119.742
123.324
123.324
126.995
126.995
130.758
130.758
134.613
134.613
138.56
138.56
142.601
142.601
146.737
146.737
150.968
150.968
155.296
155.296
159.722
159.722
164.246
164.246
168.87
168.87
173.595
173.595
178.422
178.422
183.352
183.352
188.387
188.387
193.528
193.528
198.775
198.775
204.131
204.131
209.595
209.595
215.17
215.17
220.855
220.855
226.652
226.652
232.562
232.562
238.586
238.586
244.725
244.725
250.979
250.979
257.349
257.349
263.836
263.836
270.44
270.44
277.161
277.161
283.999
283.999
290.956
290.956
298.029
298.029
305.219
305.219
312.526
312.526
319.948
319.948
327.486
327.486
335.136
335.136
342.898
342.898
350.769
350.769
358.747
358.747
366.832
366.832
375.019
375.019
383.307
383.307
391.693
391.693
400.171
400.171
408.738
408.738
417.391
417.391
426.124
426.124
434.931
434.931
443.81
443.81
452.753
452.753
461.754
461.754
470.809
470.809
479.913
479.913
489.06
489.06
498.243
498.243
507.457
507.457
516.698
516.698
525.958
525.958
535.234
535.234
544.523
544.523
553.822
553.822
563.129
563.129
572.447
572.447
581.781
581.781
591.146
591.146
600.558
600.558
610.038
610.038
619.608
619.608
629.297
629.297
639.144
639.144
649.198
649.198
659.513
659.513
670.159
670.159
681.209
681.209
692.747
692.747
704.862
704.862
717.65
717.65
731.204
731.204
745.622
745.622
760.993
760.993
777.4
777.4
794.915
794.915
813.595
813.595
833.485
833.485
854.602
854.602
876.943
876.943
900.485
900.485
925.18
925.18
950.965
950.965
977.755
977.755
1005.45
1005.45
1033.94
1033.94
1063.09
1063.09
1092.79
1092.79
1122.9
1122.9
1153.31
1153.31
1183.87
1183.87
1214.48
1214.48
1245.02
1245.02
1275.39
1275.39
1305.49
1305.49
1335.27
1335.27
1364.64
1364.64
1393.54
1393.54
1421.96
1421.96
1449.86
1449.86
1477.26
1477.26
1504.16
1504.16
1530.57
1530.57
1556.54
1556.54
1582.11
1582.11
1607.37
1607.37
1632.38
1632.38
1657.24
1657.24
1682.06
1682.06
1706.96
1706.96
1732.07
1732.07
1757.55
1757.55
1783.57
1783.57
1810.31
1810.31
1837.98
1837.98
1866.81
1866.81
1897.03
1897.03
1928.95
1928.95
1962.87
1962.87
1999.16
1999.16
2038.22
2038.22
2080.53
2080.53
2126.63
2126.63
2177.16
2177.16
2232.91
2232.91
2294.78
2294.78
2363.92
2363.92
2441.7
2441.7
2529.89
2529.89
2630.72
2630.72
2747.08
2747.08
2882.8
2882.8
3043.08
3043.08
3235.11
3235.11
3469.19
3469.19
3760.54
3760.54
4132.62
4132.62
4623.21
4623.21
5296.75
5296.75
6270.24
6270.24
7771.02
7771.02
10268.6
10268.6
14766.8
14766.8
23474.4
23474.4
42012.4
42012.4
89732.6
89732.6
265139
265139
1.52416e+06
1.52416e+06
2.4356
2.43559
2.4414
2.4414
2.45249
2.45249
2.46857
2.46857
2.48988
2.48988
2.51622
2.51622
2.5475
2.5475
2.58358
2.58358
2.62386
2.62387
2.66771
2.66772
2.71449
2.7145
2.76273
2.76273
2.81028
2.81029
2.85609
2.8561
2.9013
2.9013
2.9482
2.94821
2.99874
2.99875
3.05388
3.05389
3.11368
3.11369
3.17793
3.17794
3.24591
3.24592
3.31661
3.31661
3.38925
3.38926
3.46398
3.46399
3.54188
3.54188
3.62409
3.62409
3.71106
3.71106
3.80262
3.80262
3.89885
3.89885
3.99976
3.99976
4.10342
4.10343
4.20578
4.20578
4.30244
4.30245
4.39053
4.39053
4.46841
4.46841
4.53547
4.53547
4.59279
4.59279
4.6427
4.6427
4.68807
4.68807
4.73137
4.73137
4.77427
4.77427
4.81807
4.81808
4.86427
4.86427
4.91459
4.91459
4.97074
4.97074
5.03401
5.03401
5.10522
5.10523
5.1846
5.1846
5.27184
5.27184
5.36632
5.36632
5.46733
5.46733
5.57443
5.57443
5.68765
5.68766
5.80729
5.8073
5.93395
5.93396
6.06862
6.06863
6.21231
6.21231
6.36555
6.36555
6.52817
6.52817
6.6995
6.6995
6.87871
6.87871
7.06532
7.06533
7.2596
7.25961
7.46209
7.4621
7.67302
7.67302
7.89191
7.89192
8.11748
8.11748
8.34742
8.34743
8.57896
8.57896
8.80973
8.80974
9.03853
9.03853
9.26576
9.26576
9.49308
9.49308
9.72287
9.72287
9.95771
9.95771
10.1997
10.1997
10.4502
10.4502
10.7101
10.7101
10.9798
10.9798
11.2589
11.2589
11.547
11.547
11.8433
11.8433
12.1465
12.1465
12.4558
12.4558
12.7703
12.7703
13.0894
13.0894
13.4132
13.4132
13.7418
13.7418
14.0752
14.0752
14.4141
14.4141
14.7594
14.7594
15.112
15.112
15.4727
15.4727
15.8421
15.8421
16.2202
16.2202
16.6067
16.6067
17.0013
17.0013
17.4045
17.4045
17.8169
17.8169
18.2397
18.2397
18.6746
18.6746
19.1235
19.1235
19.5883
19.5883
20.071
20.071
20.5731
20.5731
21.0964
21.0964
21.6424
21.6424
22.2125
22.2125
22.8081
22.8081
23.4301
23.4301
24.08
24.08
24.7587
24.7587
25.4674
25.4674
26.2073
26.2073
26.9796
26.9796
27.7855
27.7855
28.6262
28.6262
29.5026
29.5026
30.4155
30.4155
31.3657
31.3657
32.3538
32.3538
33.3803
33.3803
34.446
34.446
35.5512
35.5512
36.6966
36.6966
37.8825
37.8825
39.1096
39.1096
40.3785
40.3785
41.6899
41.6899
43.0447
43.0447
44.4436
44.4436
45.8875
45.8875
47.3775
47.3775
48.9147
48.9147
50.5004
50.5005
52.1359
52.1359
53.8222
53.8222
55.5606
55.5606
57.3523
57.3523
59.1982
59.1982
61.0994
61.0994
63.057
63.057
65.0719
65.0719
67.1453
67.1453
69.2784
69.2784
71.4722
71.4722
73.728
73.728
76.0475
76.0475
78.4322
78.4322
80.8841
80.8841
83.4051
83.4051
85.9973
85.9973
88.6626
88.6626
91.4031
91.4031
94.2209
94.2209
97.1178
97.1178
100.096
100.096
103.156
103.156
106.3
106.3
109.53
109.53
112.846
112.846
116.25
116.25
119.742
119.742
123.324
123.324
126.995
126.995
130.758
130.758
134.613
134.613
138.56
138.56
142.601
142.601
146.737
146.737
150.968
150.968
155.296
155.296
159.722
159.722
164.246
164.246
168.87
168.87
173.595
173.595
178.422
178.422
183.352
183.352
188.387
188.387
193.528
193.528
198.775
198.775
204.131
204.131
209.595
209.595
215.17
215.17
220.855
220.855
226.652
226.652
232.562
232.562
238.586
238.586
244.725
244.725
250.979
250.979
257.349
257.349
263.836
263.836
270.44
270.44
277.161
277.161
283.999
283.999
290.956
290.956
298.029
298.029
305.219
305.219
312.526
312.526
319.949
319.949
327.486
327.486
335.136
335.136
342.898
342.898
350.769
350.769
358.747
358.747
366.832
366.832
375.019
375.019
383.307
383.307
391.693
391.693
400.171
400.171
408.738
408.738
417.391
417.391
426.124
426.124
434.931
434.931
443.81
443.81
452.753
452.753
461.754
461.754
470.809
470.809
479.914
479.914
489.06
489.06
498.243
498.243
507.457
507.457
516.698
516.698
525.958
525.958
535.235
535.235
544.523
544.523
553.822
553.822
563.129
563.129
572.447
572.447
581.782
581.782
591.146
591.146
600.559
600.559
610.039
610.039
619.608
619.608
629.297
629.297
639.144
639.144
649.198
649.198
659.513
659.513
670.159
670.159
681.21
681.21
692.747
692.747
704.863
704.863
717.65
717.65
731.204
731.204
745.622
745.622
760.993
760.993
777.4
777.4
794.915
794.915
813.596
813.596
833.485
833.485
854.602
854.602
876.943
876.943
900.485
900.485
925.181
925.181
950.965
950.965
977.755
977.755
1005.45
1005.45
1033.94
1033.94
1063.09
1063.09
1092.79
1092.79
1122.9
1122.9
1153.31
1153.31
1183.87
1183.87
1214.48
1214.48
1245.02
1245.02
1275.39
1275.39
1305.49
1305.49
1335.27
1335.27
1364.64
1364.64
1393.54
1393.54
1421.96
1421.96
1449.86
1449.86
1477.26
1477.26
1504.16
1504.16
1530.57
1530.57
1556.54
1556.54
1582.12
1582.12
1607.37
1607.37
1632.38
1632.38
1657.24
1657.24
1682.06
1682.06
1706.96
1706.96
1732.07
1732.07
1757.55
1757.55
1783.57
1783.57
1810.32
1810.32
1837.98
1837.98
1866.81
1866.81
1897.03
1897.03
1928.95
1928.95
1962.87
1962.87
1999.16
1999.16
2038.22
2038.22
2080.53
2080.53
2126.63
2126.63
2177.17
2177.17
2232.91
2232.91
2294.78
2294.78
2363.92
2363.92
2441.7
2441.7
2529.89
2529.89
2630.72
2630.72
2747.08
2747.08
2882.8
2882.8
3043.08
3043.08
3235.11
3235.11
3469.19
3469.19
3760.54
3760.54
4132.62
4132.62
4623.21
4623.21
5296.75
5296.75
6270.24
6270.24
7771.02
7771.02
10268.6
10268.6
14766.8
14766.8
23474.4
23474.4
42012.4
42012.4
89732.6
89732.6
265139
265139
1.52416e+06
1.52416e+06
)
;

boundaryField
{
    walls
    {
        blending        binomial2;
        n               2;
        beta1           0.075;
        type            omegaWallFunction;
        value           nonuniform List<scalar> 8(1.52415e+06 1.52415e+06 1.52415e+06 1.52415e+06 1.52416e+06 1.52416e+06 1.52416e+06 1.52416e+06);
    }
    inlet
    {
        type            cyclic;
    }
    outlet
    {
        type            cyclic;
    }
    sides
    {
        type            empty;
    }
}


// ************************************************************************* //
