/*--------------------------------*- C++ -*----------------------------------*\
| =========                 |                                                 |
| \\      /  F ield         | OpenFOAM: The Open Source CFD Toolbox           |
|  \\    /   O peration     | Version:  2012                                  |
|   \\  /    A nd           | Website:  www.openfoam.com                      |
|    \\/     M anipulation  |                                                 |
\*---------------------------------------------------------------------------*/
FoamFile
{
    version     2.0;
    format      ascii;
    class       surfaceScalarField;
    location    "20000";
    object      phi;
}
// * * * * * * * * * * * * * * * * * * * * * * * * * * * * * * * * * * * * * //

dimensions      [0 3 -1 0 0 0 0];
oriented        oriented;


internalField   nonuniform List<scalar> 
5116
(
3.04279e-07
-9.42068e-13
6.27542e-13
-1.44063e-13
4.84393e-13
9.29118e-07
-2.49354e-12
9.78533e-13
-3.67881e-13
7.55625e-13
1.57966e-06
-4.08069e-12
1.00709e-12
-5.89964e-13
7.7777e-13
2.25665e-06
-5.66533e-12
9.84862e-13
-8.11673e-13
7.60639e-13
2.96081e-06
-7.01367e-12
8.54679e-13
-9.91898e-13
6.60096e-13
3.69288e-06
-8.04913e-12
6.41298e-13
-1.13541e-12
4.95292e-13
4.45356e-06
-8.74491e-12
4.46455e-13
-1.22414e-12
3.44809e-13
5.24365e-06
-9.25614e-12
3.14319e-13
-1.29615e-12
2.42758e-13
6.06404e-06
-9.61289e-12
2.32568e-13
-1.33951e-12
1.7962e-13
6.91575e-06
-9.91094e-12
1.81507e-13
-1.38262e-12
1.40184e-13
7.79993e-06
-1.01337e-11
1.48217e-13
-1.40787e-12
1.14474e-13
8.71789e-06
-1.03414e-11
1.25471e-13
-1.43853e-12
9.69074e-14
9.67108e-06
-1.05027e-11
1.09272e-13
-1.45564e-12
8.43964e-14
1.06611e-05
-1.06648e-11
9.733e-14
-1.47996e-12
7.51738e-14
1.16898e-05
-1.07927e-11
8.82784e-14
-1.49244e-12
6.81834e-14
1.27589e-05
-1.09285e-11
8.12634e-14
-1.51295e-12
6.27661e-14
1.38708e-05
-1.10365e-11
7.5731e-14
-1.52274e-12
5.84937e-14
1.50275e-05
-1.11557e-11
7.13085e-14
-1.54079e-12
5.50787e-14
1.62315e-05
-1.12508e-11
6.77381e-14
-1.54872e-12
5.23217e-14
1.74854e-05
-1.13589e-11
6.4836e-14
-1.56504e-12
5.00809e-14
1.87918e-05
-1.14455e-11
6.24688e-14
-1.57174e-12
4.82533e-14
2.01537e-05
-1.15461e-11
6.05374e-14
-1.5868e-12
4.67623e-14
2.15739e-05
-1.1627e-11
5.89671e-14
-1.59263e-12
4.55503e-14
2.30556e-05
-1.17223e-11
5.77004e-14
-1.60673e-12
4.45728e-14
2.46018e-05
-1.17995e-11
5.66931e-14
-1.61196e-12
4.37956e-14
2.6216e-05
-1.18913e-11
5.59104e-14
-1.62532e-12
4.31919e-14
2.79012e-05
-1.19662e-11
5.53247e-14
-1.63014e-12
4.27405e-14
2.96609e-05
-1.20556e-11
5.49142e-14
-1.64292e-12
4.24244e-14
3.14983e-05
-1.21294e-11
5.46616e-14
-1.64747e-12
4.22303e-14
3.34168e-05
-1.22175e-11
5.45528e-14
-1.6598e-12
4.21474e-14
3.54194e-05
-1.22912e-11
5.45769e-14
-1.66426e-12
4.21672e-14
3.75093e-05
-1.2379e-11
5.4725e-14
-1.67626e-12
4.22828e-14
3.96894e-05
-1.24532e-11
5.49905e-14
-1.68069e-12
4.24891e-14
4.19624e-05
-1.25413e-11
5.53677e-14
-1.69243e-12
4.27818e-14
4.43309e-05
-1.2617e-11
5.58531e-14
-1.697e-12
4.31581e-14
4.6797e-05
-1.27062e-11
5.64438e-14
-1.70858e-12
4.36159e-14
4.93628e-05
-1.27838e-11
5.71381e-14
-1.71331e-12
4.41537e-14
5.20296e-05
-1.28747e-11
5.79351e-14
-1.72481e-12
4.47709e-14
5.47986e-05
-1.29551e-11
5.88349e-14
-1.72989e-12
4.54677e-14
5.76705e-05
-1.30484e-11
5.98381e-14
-1.74141e-12
4.62444e-14
6.06452e-05
-1.31321e-11
6.09462e-14
-1.74684e-12
4.71023e-14
6.37224e-05
-1.32284e-11
6.21612e-14
-1.75844e-12
4.80428e-14
6.69008e-05
-1.33162e-11
6.34856e-14
-1.76444e-12
4.9068e-14
7.01788e-05
-1.34163e-11
6.49226e-14
-1.77622e-12
5.01802e-14
7.35538e-05
-1.35089e-11
6.64758e-14
-1.78276e-12
5.13823e-14
7.70225e-05
-1.36134e-11
6.81491e-14
-1.79483e-12
5.26774e-14
8.0581e-05
-1.37116e-11
6.99471e-14
-1.80216e-12
5.4069e-14
8.42243e-05
-1.38214e-11
7.18747e-14
-1.81461e-12
5.55608e-14
8.79467e-05
-1.3926e-11
7.39369e-14
-1.82273e-12
5.71566e-14
9.17416e-05
-1.40419e-11
7.6139e-14
-1.83569e-12
5.88609e-14
9.56015e-05
-1.4154e-11
7.84865e-14
-1.84485e-12
6.06777e-14
9.95179e-05
-1.4277e-11
8.09849e-14
-1.85848e-12
6.26109e-14
0.000103482
-1.43974e-11
8.36404e-14
-1.86869e-12
6.46662e-14
0.000107482
-1.45284e-11
8.64577e-14
-1.88308e-12
6.68464e-14
0.000111509
-1.46583e-11
8.94412e-14
-1.89463e-12
6.91549e-14
0.000115551
-1.47985e-11
9.25945e-14
-1.90992e-12
7.15954e-14
0.000119594
-1.49387e-11
9.59215e-14
-1.92283e-12
7.41701e-14
0.000123625
-1.50891e-11
9.94247e-14
-1.93917e-12
7.68813e-14
0.000127631
-1.52412e-11
1.03104e-13
-1.95376e-12
7.97287e-14
0.000131598
-1.54031e-11
1.06957e-13
-1.97138e-12
8.27108e-14
0.000135511
-1.55678e-11
1.10982e-13
-1.9877e-12
8.58257e-14
0.000139355
-1.57423e-11
1.15172e-13
-2.00679e-12
8.90682e-14
0.000143115
-1.59211e-11
1.19518e-13
-2.02511e-12
9.24322e-14
0.000146777
-1.61093e-11
1.24011e-13
-2.04585e-12
9.59088e-14
0.000150326
-1.63028e-11
1.28636e-13
-2.06623e-12
9.94881e-14
0.000153749
-1.65055e-11
1.33376e-13
-2.0887e-12
1.03157e-13
0.000157032
-1.67149e-11
1.38214e-13
-2.11137e-12
1.06902e-13
0.000160163
-1.69328e-11
1.43133e-13
-2.1357e-12
1.1071e-13
0.000163132
-1.71583e-11
1.48114e-13
-2.1607e-12
1.14564e-13
0.000165928
-1.73919e-11
1.53139e-13
-2.18699e-12
1.18455e-13
0.000168544
-1.76341e-11
1.58194e-13
-2.2145e-12
1.22367e-13
0.000170974
-1.78838e-11
1.63265e-13
-2.24289e-12
1.26293e-13
0.000173211
-1.81428e-11
1.68346e-13
-2.27293e-12
1.30227e-13
0.000175255
-1.84087e-11
1.73436e-13
-2.30354e-12
1.34166e-13
0.000177104
-1.86847e-11
1.78537e-13
-2.33619e-12
1.38116e-13
0.00017876
-1.8967e-11
1.83659e-13
-2.36914e-12
1.42081e-13
0.000180226
-1.926e-11
1.88816e-13
-2.40437e-12
1.46075e-13
0.000181506
-1.95591e-11
1.94026e-13
-2.43979e-12
1.50108e-13
0.000182606
-1.98695e-11
1.99311e-13
-2.47768e-12
1.54201e-13
0.000183536
-2.0186e-11
2.04699e-13
-2.51568e-12
1.58372e-13
0.000184304
-2.05143e-11
2.10214e-13
-2.55624e-12
1.62643e-13
0.000184919
-2.08489e-11
2.15885e-13
-2.5969e-12
1.67034e-13
0.000185393
-2.11961e-11
2.2174e-13
-2.64025e-12
1.71567e-13
0.000185736
-2.155e-11
2.27806e-13
-2.6837e-12
1.76265e-13
0.000185959
-2.19173e-11
2.34109e-13
-2.72995e-12
1.81145e-13
0.000186074
-2.2292e-11
2.40677e-13
-2.77637e-12
1.86231e-13
0.00018609
-2.26811e-11
2.47535e-13
-2.82573e-12
1.91542e-13
0.000186019
-2.30783e-11
2.54707e-13
-2.87534e-12
1.97096e-13
0.00018587
-2.34911e-11
2.62217e-13
-2.92801e-12
2.02911e-13
0.000185651
-2.3913e-11
2.70087e-13
-2.98103e-12
2.09006e-13
0.000185371
-2.43517e-11
2.78338e-13
-3.03728e-12
2.15395e-13
0.000185037
-2.48005e-11
2.86993e-13
-3.09394e-12
2.22098e-13
0.000184656
-2.52676e-11
2.96072e-13
-3.15406e-12
2.29128e-13
0.000184234
-2.57461e-11
3.05595e-13
-3.21466e-12
2.36504e-13
0.000183777
-2.62444e-11
3.15588e-13
-3.27901e-12
2.44242e-13
0.000183288
-2.67554e-11
3.26073e-13
-3.34393e-12
2.5236e-13
0.000182772
-2.72882e-11
3.37068e-13
-3.41288e-12
2.60876e-13
0.000182233
-2.7835e-11
3.48594e-13
-3.48256e-12
2.69802e-13
0.000181673
-2.84055e-11
3.60678e-13
-3.55654e-12
2.79161e-13
0.000181096
-2.89916e-11
3.73349e-13
-3.63137e-12
2.88972e-13
0.000180503
-2.96035e-11
3.86627e-13
-3.71078e-12
2.99255e-13
0.000179897
-3.02328e-11
4.00539e-13
-3.7912e-12
3.10029e-13
0.00017928
-3.08902e-11
4.15111e-13
-3.87654e-12
3.21315e-13
0.000178653
-3.15669e-11
4.3038e-13
-3.96307e-12
3.33138e-13
0.000178018
-3.22741e-11
4.46368e-13
-4.05487e-12
3.45521e-13
0.000177377
-3.30028e-11
4.63112e-13
-4.14808e-12
3.58486e-13
0.00017673
-3.37648e-11
4.80643e-13
-4.24694e-12
3.72066e-13
0.000176078
-3.45504e-11
4.99001e-13
-4.3474e-12
3.8628e-13
0.000175423
-3.53723e-11
5.18213e-13
-4.45393e-12
4.01162e-13
0.000174765
-3.62204e-11
5.38328e-13
-4.5623e-12
4.16737e-13
0.000174105
-3.71081e-11
5.59381e-13
-4.67721e-12
4.33044e-13
0.000173444
-3.80246e-11
5.81423e-13
-4.79425e-12
4.50107e-13
0.000172782
-3.89842e-11
6.0448e-13
-4.91829e-12
4.67972e-13
0.000172121
-3.99759e-11
6.2862e-13
-5.04489e-12
4.86656e-13
0.00017146
-4.10143e-11
6.53873e-13
-5.17888e-12
5.06228e-13
0.0001708
-4.20882e-11
6.80318e-13
-5.31592e-12
5.2669e-13
0.000170141
-4.3213e-11
7.07973e-13
-5.46073e-12
5.48126e-13
0.000169484
-4.4377e-11
7.36937e-13
-5.60916e-12
5.70532e-13
0.000168828
-4.55962e-11
7.67218e-13
-5.76574e-12
5.94013e-13
0.000168175
-4.68588e-11
7.98948e-13
-5.92653e-12
6.18549e-13
0.000167524
-4.81814e-11
8.32109e-13
-6.09594e-12
6.44269e-13
0.000166875
-4.95519e-11
8.6687e-13
-6.2701e-12
6.71137e-13
0.000166229
-5.09878e-11
9.03181e-13
-6.45351e-12
6.99319e-13
0.000165586
-5.24766e-11
9.41269e-13
-6.64218e-12
7.28733e-13
0.000164945
-5.40366e-11
9.81029e-13
-6.84091e-12
7.59626e-13
0.000164306
-5.5655e-11
1.02279e-12
-7.04546e-12
7.91837e-13
0.000163671
-5.7351e-11
1.06635e-12
-7.26088e-12
8.25722e-13
0.000163039
-5.91116e-11
1.11214e-12
-7.48275e-12
8.60987e-13
0.00016241
-6.09566e-11
1.15984e-12
-7.71645e-12
8.98167e-13
0.000161785
-6.2873e-11
1.21011e-12
-7.95717e-12
9.36788e-13
0.000161164
-6.48813e-11
1.26235e-12
-8.21081e-12
9.77616e-13
0.000160547
-6.69685e-11
1.31756e-12
-8.472e-12
1.0199e-12
0.000159936
-6.91559e-11
1.37478e-12
-8.74752e-12
1.06478e-12
0.000159331
-7.14305e-11
1.43547e-12
-9.03094e-12
1.11105e-12
0.000158733
-7.38142e-11
1.49813e-12
-9.33039e-12
1.16045e-12
0.000158142
-7.62944e-11
1.56492e-12
-9.63792e-12
1.21107e-12
0.000157559
-7.88934e-11
1.63349e-12
-9.96377e-12
1.26552e-12
0.000156985
-8.15993e-11
1.70712e-12
-1.02974e-11
1.32083e-12
0.000156422
-8.44345e-11
1.7821e-12
-1.06524e-11
1.38098e-12
0.000155868
-8.7388e-11
1.86342e-12
-1.10143e-11
1.44132e-12
0.000155327
-9.04821e-11
1.94529e-12
-1.14017e-11
1.50794e-12
0.000154798
-9.37074e-11
2.03533e-12
-1.17938e-11
1.5736e-12
0.000154282
-9.70858e-11
2.12452e-12
-1.22174e-11
1.64767e-12
0.000153782
-1.00609e-10
2.22455e-12
-1.26419e-11
1.71885e-12
0.000153298
-1.043e-10
2.32138e-12
-1.31061e-11
1.80158e-12
0.000152832
-1.08151e-10
2.43301e-12
-1.35652e-11
1.87829e-12
0.000152385
-1.12184e-10
2.53759e-12
-1.40756e-11
1.97131e-12
0.000151959
-1.16398e-10
2.66295e-12
-1.45709e-11
2.05326e-12
0.000151556
-1.20806e-10
2.77497e-12
-1.51341e-11
2.15872e-12
0.000151178
-1.25419e-10
2.91684e-12
-1.56668e-11
2.24511e-12
0.000150827
-1.30239e-10
3.03538e-12
-1.62915e-11
2.36604e-12
0.000150505
-1.35296e-10
3.19765e-12
-1.68615e-11
2.45514e-12
0.000150214
-1.40565e-10
3.32068e-12
-1.75587e-11
2.59585e-12
0.000149956
-1.46115e-10
3.50887e-12
-1.81634e-11
2.68455e-12
0.000149734
-1.51872e-10
3.63255e-12
-1.89478e-11
2.85136e-12
0.000149549
-1.57972e-10
3.8547e-12
-1.95812e-11
2.93421e-12
0.000149404
-1.64256e-10
3.97231e-12
-2.04731e-11
3.13655e-12
0.0001493
-1.70973e-10
4.24039e-12
-2.11226e-11
3.2044e-12
0.000149239
-1.77821e-10
4.34051e-12
-2.21512e-11
3.45659e-12
0.000149221
-1.85233e-10
4.6727e-12
-2.27944e-11
3.49433e-12
0.000149245
-1.92674e-10
4.73635e-12
-2.40024e-11
3.8185e-12
0.00014931
-2.00882e-10
5.16072e-12
-2.46012e-11
3.80136e-12
0.000149413
-2.08933e-10
5.15678e-12
-2.60528e-11
4.23202e-12
0.000149552
-2.18067e-10
5.71709e-12
-2.65439e-11
4.11988e-12
0.000149721
-2.26721e-10
5.59498e-12
-2.83372e-11
4.71136e-12
0.000149917
-2.36959e-10
6.36024e-12
-2.86161e-11
4.43925e-12
0.000150135
-2.46163e-10
6.0378e-12
-3.09031e-11
5.27788e-12
0.00015037
-2.57754e-10
7.11763e-12
-3.07987e-11
4.74074e-12
0.000150619
-2.67377e-10
6.46187e-12
-3.38183e-11
5.9642e-12
0.000150879
-2.80681e-10
8.03139e-12
-3.30513e-11
4.9921e-12
0.000151152
-2.90467e-10
6.82645e-12
-3.71828e-11
6.82149e-12
0.000151437
-3.06028e-10
9.16723e-12
-3.52978e-11
5.13875e-12
0.000151739
-3.15526e-10
7.06242e-12
-4.11492e-11
7.93059e-12
0.000152063
-3.34171e-10
1.06291e-11
-3.74041e-11
5.08916e-12
0.000152414
-3.42552e-10
7.05299e-12
-4.5956e-11
9.4212e-12
0.000152797
-3.65583e-10
1.25837e-11
-3.91362e-11
4.69024e-12
0.000153219
-3.71411e-10
6.60227e-12
-5.19795e-11
1.15031e-11
0.000153683
-4.00955e-10
1.53009e-11
-4.00923e-11
3.68663e-12
0.000154192
-4.01826e-10
5.38257e-12
-5.98262e-11
1.45188e-11
0.000154751
-4.41512e-10
1.92224e-11
-3.95891e-11
1.65228e-12
0.000155359
-4.33344e-10
2.84564e-12
-7.04862e-11
1.90321e-11
0.000156017
-4.8996e-10
2.50765e-11
-3.64612e-11
-2.12456e-12
0.000156722
-4.65875e-10
-1.92673e-12
-8.5586e-11
2.59779e-11
0.000157472
-5.48585e-10
3.4072e-11
-2.87163e-11
-8.83518e-12
0.000158261
-4.96752e-10
-1.04762e-11
-1.07771e-10
3.69154e-11
0.000159087
-5.4109e-10
2.20297e-11
-9.15203e-11
5.6931e-12
0.000159948
-4.46397e-10
-2.39474e-11
-2.15671e-10
5.30088e-11
0.00016084
-3.97004e-10
-8.43361e-12
-2.95748e-10
3.8903e-11
0.000161763
-2.44028e-10
-4.25532e-11
-4.80857e-10
7.44916e-11
0.000162718
-7.88758e-11
-4.6259e-11
-6.79847e-10
7.97405e-11
0.000163713
-1.35485e-11
-1.24736e-11
-7.80368e-10
4.75764e-11
0.000164753
1.11932e-10
-3.25622e-11
-9.44261e-10
6.93517e-11
0.000165843
7.05504e-11
2.40076e-11
-9.41535e-10
1.45564e-11
0.00016699
1.57308e-10
-1.8988e-11
-1.07125e-09
5.93948e-11
0.000168196
3.44181e-11
5.22608e-11
-9.90537e-10
-9.89457e-12
0.000169466
9.01766e-11
-7.42028e-12
-1.09265e-09
5.1773e-11
0.000170802
-9.20917e-12
4.5647e-11
-1.0391e-09
8.3085e-13
0.000172206
2.25329e-11
1.90317e-12
-1.12093e-09
4.67406e-11
0.000173676
-6.0081e-11
4.12892e-11
-1.08839e-09
9.65218e-12
0.000175208
-4.72246e-11
9.54442e-12
-1.1556e-09
4.37471e-11
0.00017679
-1.18269e-10
3.86992e-11
-1.13942e-09
1.70677e-11
0.000178407
-1.20427e-10
1.594e-11
-1.19639e-09
4.23636e-11
0.000180041
-1.83864e-10
3.74956e-11
-1.19308e-09
2.3464e-11
0.000181668
-1.98114e-10
2.14264e-11
-1.24318e-09
4.22568e-11
0.000183264
-2.56961e-10
3.73812e-11
-1.25014e-09
2.91398e-11
0.000184808
-2.81125e-10
2.62627e-11
-1.29597e-09
4.31681e-11
0.000186279
-3.37684e-10
3.81261e-11
-1.31127e-09
3.43248e-11
0.000187666
-3.7016e-10
3.06481e-11
-1.35483e-09
4.4899e-11
0.00018897
-4.26191e-10
3.95533e-11
-1.37709e-09
3.91976e-11
0.000190195
-4.6583e-10
3.47364e-11
-1.41992e-09
4.72982e-11
0.000191347
-5.22683e-10
4.15268e-11
-1.44815e-09
4.38971e-11
0.000192428
-5.68684e-10
3.86457e-11
-1.49145e-09
5.02509e-11
0.000193435
-6.27394e-10
4.39429e-11
-1.52498e-09
4.8531e-11
0.000194359
-6.79223e-10
4.24664e-11
-1.56966e-09
5.3672e-11
0.000195185
-7.40597e-10
4.67255e-11
-1.60807e-09
5.31836e-11
0.000195901
-7.97925e-10
4.627e-11
-1.65487e-09
5.75036e-11
0.00019649
-8.62603e-10
4.98237e-11
-1.69791e-09
5.79308e-11
0.00019694
-9.25262e-10
5.0118e-11
-1.74743e-09
6.17151e-11
0.000197234
-9.93784e-10
5.32123e-11
-1.79498e-09
6.28333e-11
0.000197361
-1.06175e-09
5.40714e-11
-1.84774e-09
6.63044e-11
0.000197322
-1.1346e-09
5.68919e-11
-1.89984e-09
6.79703e-11
0.00019713
-1.20797e-09
5.8195e-11
-1.9563e-09
7.12978e-11
0.00019682
-1.28562e-09
6.08834e-11
-2.0131e-09
7.34254e-11
0.000196432
-1.36462e-09
6.25554e-11
-2.07373e-09
7.67385e-11
0.000196012
-1.44756e-09
6.52128e-11
-2.13546e-09
7.9274e-11
0.000195591
-1.53248e-09
6.71984e-11
-2.20073e-09
8.26652e-11
0.000195185
-1.6212e-09
6.98959e-11
-2.2677e-09
8.55709e-11
0.000194783
-1.71241e-09
7.21559e-11
-2.33808e-09
8.91039e-11
0.000194347
-1.80739e-09
7.49432e-11
-2.41065e-09
9.23583e-11
0.000193839
-1.90529e-09
7.74552e-11
-2.48662e-09
9.60869e-11
0.00019323
-2.00705e-09
8.03789e-11
-2.5652e-09
9.96931e-11
0.00019252
-2.11212e-09
8.31426e-11
-2.64728e-09
1.03676e-10
0.000191734
-2.22123e-09
8.62515e-11
-2.73238e-09
1.0766e-10
0.000190898
-2.33403e-09
8.92784e-11
-2.82114e-09
1.11956e-10
0.00019004
-2.45111e-09
9.26151e-11
-2.91333e-09
1.1635e-10
0.000189186
-2.57228e-09
9.59149e-11
-3.00942e-09
1.21005e-10
0.000188368
-2.69803e-09
9.95104e-11
-3.10934e-09
1.2584e-10
0.000187631
-2.82824e-09
1.03082e-10
-3.21343e-09
1.30885e-10
0.000187031
-2.96336e-09
1.06949e-10
-3.32176e-09
1.36174e-10
0.000186616
-3.10328e-09
1.10769e-10
-3.43454e-09
1.41607e-10
0.000186398
-3.24844e-09
1.14895e-10
-3.55197e-09
1.47341e-10
0.000186346
-3.39868e-09
1.18916e-10
-3.6741e-09
1.5313e-10
0.000186386
-3.55445e-09
1.2328e-10
-3.80126e-09
1.59291e-10
0.000186407
-3.71554e-09
1.27457e-10
-3.93337e-09
1.65409e-10
0.000186294
-3.88246e-09
1.32063e-10
-4.07088e-09
1.72012e-10
0.000185942
-4.05492e-09
1.36384e-10
-4.21361e-09
1.78472e-10
0.000185248
-4.2336e-09
1.41298e-10
-4.3622e-09
1.85614e-10
0.000184126
-4.41811e-09
1.45808e-10
-4.51634e-09
1.92507e-10
0.000182561
-4.60941e-09
1.5118e-10
-4.67697e-09
2.0039e-10
0.000180652
-4.80698e-09
1.55982e-10
-4.84361e-09
2.0789e-10
0.000178597
-5.01217e-09
1.62015e-10
-5.01759e-09
2.16793e-10
0.000176632
-5.22415e-09
1.67171e-10
-5.19814e-09
2.25032e-10
0.000174973
-5.44473e-09
1.73994e-10
-5.38707e-09
2.35141e-10
0.000173816
-5.67251e-09
1.79379e-10
-5.58303e-09
2.44036e-10
0.000173303
-5.90982e-09
1.86984e-10
-5.78843e-09
2.55358e-10
0.000173421
-6.15441e-09
1.92292e-10
-6.00106e-09
2.64604e-10
0.000173946
-6.40939e-09
2.00634e-10
-6.22418e-09
2.77098e-10
0.000174548
-6.67132e-09
2.05518e-10
-6.45445e-09
2.86362e-10
0.000174974
-6.94459e-09
2.147e-10
-6.69641e-09
3.00162e-10
0.000175226
-7.22416e-09
2.18842e-10
-6.94516e-09
3.09171e-10
0.000175539
-7.51628e-09
2.29124e-10
-7.2071e-09
3.2458e-10
0.000176247
-7.81363e-09
2.32092e-10
-7.47509e-09
3.32942e-10
0.000177622
-8.12498e-09
2.4375e-10
-7.75812e-09
3.50267e-10
0.000179836
-8.43973e-09
2.44848e-10
-8.04582e-09
3.57317e-10
0.000182995
-8.77026e-09
2.5825e-10
-8.35086e-09
3.76975e-10
0.000187057
-9.10153e-09
2.56643e-10
-8.65848e-09
3.81965e-10
0.000191833
-9.45107e-09
2.72498e-10
-8.98659e-09
4.04824e-10
0.000197099
-9.79776e-09
2.67246e-10
-9.31442e-09
4.07019e-10
0.00020267
-1.01664e-08
2.86653e-10
-9.66721e-09
4.34407e-10
0.000208375
-1.05273e-08
2.76479e-10
-1.00158e-08
4.32772e-10
0.000214009
-1.09152e-08
3.00854e-10
-1.03954e-08
4.66338e-10
0.000219312
-1.12887e-08
2.83921e-10
-1.07653e-08
4.59237e-10
0.000224032
-1.1696e-08
3.15083e-10
-1.11743e-08
5.00971e-10
0.000227964
-1.20797e-08
2.88897e-10
-1.15657e-08
4.86028e-10
0.000230975
-1.25066e-08
3.2932e-10
-1.20069e-08
5.3854e-10
0.000233039
-1.28975e-08
2.90737e-10
-1.24197e-08
5.12733e-10
0.000234145
-1.33444e-08
3.4395e-10
-1.28968e-08
5.79761e-10
0.000234217
-1.3739e-08
2.89051e-10
-1.33308e-08
5.39428e-10
0.00023329
-1.42074e-08
3.60023e-10
-1.38489e-08
6.26364e-10
0.000231567
-1.46023e-08
2.83644e-10
-1.43046e-08
5.66763e-10
0.000229218
-1.50957e-08
3.79138e-10
-1.48714e-08
6.80982e-10
0.000226203
-1.54871e-08
2.74032e-10
-1.53495e-08
5.95405e-10
0.000222263
-1.60112e-08
4.03226e-10
-1.59758e-08
7.46959e-10
0.000217201
-1.63947e-08
2.59315e-10
-1.64777e-08
6.26077e-10
0.000211144
-1.69583e-08
4.35312e-10
-1.71788e-08
8.29399e-10
0.000204506
-1.73288e-08
2.38173e-10
-1.77063e-08
6.59811e-10
0.000197786
-1.79456e-08
4.79617e-10
-1.85044e-08
9.35352e-10
0.000191325
-1.82951e-08
2.07584e-10
-1.90588e-08
6.96321e-10
0.000185473
-1.89833e-08
5.40519e-10
-1.99831e-08
1.07219e-09
0.000180981
-1.9298e-08
1.61801e-10
-2.05623e-08
7.32207e-10
0.000178794
-2.00795e-08
6.21929e-10
-2.16488e-08
1.24628e-09
0.000179396
-2.03358e-08
9.18483e-11
-2.22442e-08
7.59899e-10
0.000182344
-2.12336e-08
7.26512e-10
-2.35356e-08
1.46313e-09
0.000186362
-2.13947e-08
-1.41125e-11
-2.41305e-08
7.70258e-10
0.000189872
-2.24363e-08
8.59301e-10
-2.5682e-08
1.73426e-09
0.000191675
-2.24505e-08
-1.70001e-10
-2.62516e-08
7.53826e-10
0.000191534
-2.36727e-08
1.03067e-09
-2.81372e-08
2.07805e-09
0.000190062
-2.34704e-08
-3.92523e-10
-2.8643e-08
6.95933e-10
0.000188173
-2.49263e-08
1.25725e-09
-3.09636e-08
2.52048e-09
0.000186737
-2.44139e-08
-7.04328e-10
-3.13468e-08
5.75045e-10
0.0001864
-2.61761e-08
1.55966e-09
-3.42403e-08
3.09762e-09
0.00018741
-2.5227e-08
-1.13587e-09
-3.44129e-08
3.59282e-10
0.000189577
-2.73864e-08
1.9584e-09
-3.80656e-08
3.85578e-09
0.000192719
-2.58319e-08
-1.72435e-09
-3.78996e-08
3.58219e-12
0.000197376
-2.84979e-08
2.47513e-09
-4.25704e-08
4.86398e-09
0.000204403
-2.6119e-08
-2.51352e-09
-4.18786e-08
-5.579e-10
0.000213768
-2.94177e-08
3.13089e-09
-4.79477e-08
6.23949e-09
0.000224665
-2.59277e-08
-3.55889e-09
-4.64475e-08
-1.4328e-09
0.000235827
-2.99848e-08
3.93351e-09
-5.45262e-08
8.20545e-09
0.000245888
-2.5028e-08
-4.90903e-09
-5.17507e-08
-2.82526e-09
0.000254224
-2.99054e-08
4.83296e-09
-6.28266e-08
1.11237e-08
0.00026125
-2.31462e-08
-6.51754e-09
-5.79544e-08
-5.116e-09
0.000267687
-2.86618e-08
5.61133e-09
-7.36285e-08
1.55786e-08
0.000273246
-2.0032e-08
-8.09113e-09
-6.51395e-08
-9.03006e-09
0.00027723
-2.53098e-08
5.63334e-09
-8.44493e-08
1.89527e-08
0.000280034
-1.54399e-08
-8.92251e-09
-6.96543e-08
-1.57436e-08
0.000283481
-1.84422e-08
3.82084e-09
-7.60001e-08
5.52713e-09
0.000289024
-8.71474e-09
-8.31821e-09
-5.14222e-08
-2.59868e-08
0.000295814
-7.41425e-09
7.52654e-11
-3.86584e-08
-1.41387e-08
0.00030193
-5.55163e-09
-1.2101e-10
-4.02294e-08
-1.69812e-10
3.04279e-07
5.02659e-13
5.51253e-13
9.29117e-07
1.28803e-12
1.41249e-12
1.57966e-06
2.10989e-12
2.30344e-12
2.25665e-06
2.90616e-12
3.17241e-12
2.96081e-06
3.61625e-12
3.93304e-12
3.69287e-06
4.13555e-12
4.49914e-12
4.45356e-06
4.51489e-12
4.8994e-12
5.24365e-06
4.76662e-12
5.17595e-12
6.06404e-06
4.96883e-12
5.38599e-12
6.91575e-06
5.11176e-12
5.54478e-12
7.79993e-06
5.24448e-12
5.67992e-12
8.71789e-06
5.34182e-12
5.78912e-12
9.67108e-06
5.44215e-12
5.88954e-12
1.06611e-05
5.51687e-12
5.97387e-12
1.16897e-05
5.60015e-12
6.05574e-12
1.27589e-05
5.66231e-12
6.12595e-12
1.38708e-05
5.73533e-12
6.1967e-12
1.50275e-05
5.78978e-12
6.2582e-12
1.62315e-05
5.85651e-12
6.32199e-12
1.74854e-05
5.90631e-12
6.37789e-12
1.87918e-05
5.96893e-12
6.43709e-12
2.01537e-05
6.01584e-12
6.48934e-12
2.15739e-05
6.07583e-12
6.54557e-12
2.30556e-05
6.12103e-12
6.59548e-12
2.46018e-05
6.17939e-12
6.64983e-12
2.6216e-05
6.2238e-12
6.69834e-12
2.79012e-05
6.28127e-12
6.75164e-12
2.96609e-05
6.32558e-12
6.79949e-12
3.14983e-05
6.3828e-12
6.85237e-12
3.34168e-05
6.42756e-12
6.90013e-12
3.54194e-05
6.48485e-12
6.9531e-12
3.75093e-05
6.53048e-12
7.00127e-12
3.96894e-05
6.58836e-12
7.05479e-12
4.19624e-05
6.63528e-12
7.10381e-12
4.43309e-05
6.69397e-12
7.15829e-12
4.6797e-05
6.74256e-12
7.20857e-12
4.93628e-05
6.80255e-12
7.26441e-12
5.20296e-05
6.85316e-12
7.31635e-12
5.47986e-05
6.91456e-12
7.37387e-12
5.76705e-05
6.96747e-12
7.42785e-12
6.06452e-05
7.0308e-12
7.48747e-12
6.37223e-05
7.0864e-12
7.54391e-12
6.69008e-05
7.15179e-12
7.60597e-12
7.01788e-05
7.21047e-12
7.66526e-12
7.35537e-05
7.27849e-12
7.73024e-12
7.70225e-05
7.34063e-12
7.79284e-12
8.0581e-05
7.41142e-12
7.86107e-12
8.42243e-05
7.47733e-12
7.92745e-12
8.79467e-05
7.55151e-12
7.99948e-12
9.17416e-05
7.6217e-12
8.07014e-12
9.56014e-05
7.69954e-12
8.14639e-12
9.95179e-05
7.77447e-12
8.22183e-12
0.000103482
7.85666e-12
8.30294e-12
0.000107482
7.93685e-12
8.38379e-12
0.000111509
8.02369e-12
8.47022e-12
0.000115551
8.10966e-12
8.55711e-12
0.000119594
8.20189e-12
8.64956e-12
0.000123625
8.29423e-12
8.74312e-12
0.000127631
8.39224e-12
8.8421e-12
0.000131598
8.49145e-12
8.94291e-12
0.000135511
8.59597e-12
9.04913e-12
0.000139355
8.70255e-12
9.15779e-12
0.000143115
8.81391e-12
9.27169e-12
0.000146777
8.92833e-12
9.38872e-12
0.000150326
9.04716e-12
9.51092e-12
0.000153749
9.16986e-12
9.63685e-12
0.000157032
9.29635e-12
9.76762e-12
0.000160163
9.42758e-12
9.9028e-12
0.000163132
9.56207e-12
1.00425e-11
0.000165928
9.70197e-12
1.01871e-11
0.000168544
9.84444e-12
1.03357e-11
0.000170974
9.99296e-12
1.04898e-11
0.000173211
1.01435e-11
1.06474e-11
0.000175255
1.03006e-11
1.08108e-11
0.000177105
1.04592e-11
1.09775e-11
0.00017876
1.06247e-11
1.11502e-11
0.000180226
1.07915e-11
1.1326e-11
0.000181506
1.09655e-11
1.15082e-11
0.000182607
1.11406e-11
1.16933e-11
0.000183536
1.13233e-11
1.18851e-11
0.000184304
1.15072e-11
1.208e-11
0.000184919
1.16991e-11
1.2282e-11
0.000185393
1.18924e-11
1.24873e-11
0.000185736
1.20941e-11
1.27001e-11
0.000185959
1.22976e-11
1.29167e-11
0.000186074
1.25099e-11
1.31412e-11
0.000186091
1.27246e-11
1.33701e-11
0.000186019
1.29486e-11
1.36074e-11
0.00018587
1.31757e-11
1.38497e-11
0.000185651
1.34125e-11
1.41012e-11
0.000185371
1.36532e-11
1.43584e-11
0.000185037
1.39044e-11
1.46255e-11
0.000184656
1.41602e-11
1.4899e-11
0.000184234
1.44271e-11
1.51833e-11
0.000183777
1.46997e-11
1.54748e-11
0.000183288
1.4984e-11
1.5778e-11
0.000182772
1.5275e-11
1.60893e-11
0.000182233
1.55785e-11
1.64133e-11
0.000181673
1.58899e-11
1.67463e-11
0.000181096
1.62146e-11
1.70931e-11
0.000180503
1.65484e-11
1.74499e-11
0.000179897
1.68965e-11
1.78218e-11
0.00017928
1.7255e-11
1.82048e-11
0.000178653
1.76287e-11
1.86042e-11
0.000178019
1.80143e-11
1.90158e-11
0.000177377
1.84162e-11
1.94453e-11
0.00017673
1.88316e-11
1.98881e-11
0.000176078
1.92645e-11
2.03506e-11
0.000175423
1.97126e-11
2.08278e-11
0.000174765
2.01795e-11
2.13262e-11
0.000174105
2.06635e-11
2.1841e-11
0.000173444
2.11677e-11
2.23788e-11
0.000172783
2.16908e-11
2.29347e-11
0.000172121
2.22358e-11
2.35155e-11
0.00017146
2.28021e-11
2.41165e-11
0.0001708
2.33919e-11
2.47443e-11
0.000170141
2.40054e-11
2.53946e-11
0.000169484
2.46442e-11
2.60739e-11
0.000168828
2.53095e-11
2.67783e-11
0.000168175
2.6002e-11
2.75141e-11
0.000167524
2.6724e-11
2.82778e-11
0.000166875
2.74756e-11
2.90754e-11
0.000166229
2.82598e-11
2.9904e-11
0.000165586
2.90763e-11
3.07695e-11
0.000164945
2.99285e-11
3.16692e-11
0.000164307
3.08162e-11
3.26089e-11
0.000163671
3.1743e-11
3.35866e-11
0.000163039
3.27087e-11
3.46075e-11
0.00016241
3.37172e-11
3.56704e-11
0.000161785
3.47684e-11
3.67806e-11
0.000161164
3.58666e-11
3.79372e-11
0.000160548
3.70119e-11
3.91451e-11
0.000159936
3.82082e-11
4.04044e-11
0.000159331
3.9457e-11
4.17197e-11
0.000158733
4.0761e-11
4.30918e-11
0.000158142
4.21235e-11
4.4525e-11
0.000157559
4.35456e-11
4.60209e-11
0.000156986
4.50332e-11
4.75836e-11
0.000156422
4.65846e-11
4.92159e-11
0.000155868
4.821e-11
5.09209e-11
0.000155327
4.99031e-11
5.27034e-11
0.000154798
5.16807e-11
5.45653e-11
0.000154283
5.35288e-11
5.65133e-11
0.000153782
5.54743e-11
5.85477e-11
0.000153298
5.74919e-11
6.06784e-11
0.000152832
5.96233e-11
6.29026e-11
0.000152385
6.18257e-11
6.52352e-11
0.000151959
6.41632e-11
6.76675e-11
0.000151556
6.65668e-11
7.02239e-11
0.000151178
6.91336e-11
7.28839e-11
0.000150827
7.17554e-11
7.56886e-11
0.000150505
7.45785e-11
7.85967e-11
0.000150214
7.74356e-11
8.16792e-11
0.000149956
8.05469e-11
8.48562e-11
0.000149734
8.36557e-11
8.8251e-11
0.000149549
8.7094e-11
9.1718e-11
0.000149404
9.04681e-11
9.54677e-11
0.0001493
9.42819e-11
9.92438e-11
0.000149239
9.79297e-11
1.03401e-10
0.000149221
1.0218e-10
1.075e-10
0.000149245
1.061e-10
1.12132e-10
0.00014931
1.10869e-10
1.16557e-10
0.000149413
1.15041e-10
1.21755e-10
0.000149552
1.20439e-10
1.26486e-10
0.000149721
1.24815e-10
1.32376e-10
0.000149917
1.30997e-10
1.3736e-10
0.000150135
1.3548e-10
1.44125e-10
0.00015037
1.42674e-10
1.4925e-10
0.000150619
1.47084e-10
1.57163e-10
0.00015088
1.55633e-10
1.62219e-10
0.000151152
1.59655e-10
1.71695e-10
0.000151437
1.70082e-10
1.76305e-10
0.000151739
1.73181e-10
1.87967e-10
0.000152063
1.86305e-10
1.91486e-10
0.000152414
1.8758e-10
2.06355e-10
0.000152797
2.04698e-10
2.07683e-10
0.000153219
2.02646e-10
2.27407e-10
0.000153683
2.25843e-10
2.24644e-10
0.000154193
2.17961e-10
2.5186e-10
0.000154751
2.5062e-10
2.41629e-10
0.00015536
2.32742e-10
2.80677e-10
0.000156017
2.8041e-10
2.56459e-10
0.000156722
2.45587e-10
3.14493e-10
0.000157472
3.17438e-10
2.67415e-10
0.000158261
2.54096e-10
3.56572e-10
0.000159088
2.8682e-10
3.51339e-10
0.000159948
1.79926e-10
4.8706e-10
0.00016084
1.17941e-10
5.79447e-10
0.000161763
-4.82153e-11
7.77523e-10
0.000162719
-2.27342e-10
9.89949e-10
0.000163714
-3.07069e-10
1.10487e-09
0.000164753
-4.4917e-10
1.28229e-09
0.000165843
-4.23635e-10
1.29541e-09
0.00016699
-5.29459e-10
1.43924e-09
0.000168197
-4.23757e-10
1.37628e-09
0.000169466
-4.99689e-10
1.49474e-09
0.000170803
-4.18753e-10
1.46114e-09
0.000172206
-4.71914e-10
1.56171e-09
0.000173676
-4.09404e-10
1.55123e-09
0.000175209
-4.4526e-10
1.63953e-09
0.000176791
-3.96325e-10
1.64751e-09
0.000178408
-4.19049e-10
1.72797e-09
0.000180042
-3.79994e-10
1.75097e-09
0.000181669
-3.92759e-10
1.82704e-09
0.000183265
-3.60783e-10
1.86261e-09
0.000184809
-3.65995e-10
1.93702e-09
0.00018628
-3.38986e-10
1.9834e-09
0.000187668
-3.38455e-10
2.0583e-09
0.000188972
-3.14836e-10
2.11428e-09
0.000190196
-3.0992e-10
2.19138e-09
0.000191349
-2.88527e-10
2.25618e-09
0.00019243
-2.80238e-10
2.33684e-09
0.000193438
-2.60223e-10
2.41e-09
0.000194361
-2.49312e-10
2.49535e-09
0.000195188
-2.30069e-10
2.57665e-09
0.000195904
-2.17094e-10
2.66762e-09
0.000196493
-1.98206e-10
2.75707e-09
0.000196943
-1.83581e-10
2.8545e-09
0.000197238
-1.64748e-10
2.95225e-09
0.000197365
-1.48781e-10
3.0569e-09
0.000197326
-1.29803e-10
3.16329e-09
0.000197135
-1.12724e-10
3.27597e-09
0.000196824
-9.34742e-11
3.3915e-09
0.000196437
-7.54535e-11
3.51306e-09
0.000196017
-5.58551e-11
3.63839e-09
0.000195597
-3.70339e-11
3.76975e-09
0.00019519
-1.70608e-11
3.90566e-09
0.000194788
2.43333e-12
4.04775e-09
0.000194354
2.27644e-11
4.19512e-09
0.000193845
4.28005e-11
4.34896e-09
0.000193237
6.3434e-11
4.50878e-09
0.000192527
8.38745e-11
4.6755e-09
0.000191741
1.04725e-10
4.84893e-09
0.000190905
1.25422e-10
5.02982e-09
0.000190048
1.46369e-10
5.2182e-09
0.000189194
1.67151e-10
5.4147e-09
0.000188376
1.88034e-10
5.61951e-09
0.000187639
2.08684e-10
5.8332e-09
0.00018704
2.29282e-10
6.05606e-09
0.000186625
2.49524e-10
6.28857e-09
0.000186407
2.69537e-10
6.53112e-09
0.000186355
2.89006e-10
6.78407e-09
0.000186395
3.08043e-10
7.04792e-09
0.000186417
3.26275e-10
7.32294e-09
0.000186305
3.4385e-10
7.60975e-09
0.000185953
3.60293e-10
7.90855e-09
0.00018526
3.75842e-10
8.22021e-09
0.000184138
3.89864e-10
8.5449e-09
0.000182574
4.02761e-10
8.88387e-09
0.000180665
4.13658e-10
9.23724e-09
0.00017861
4.23207e-10
9.60679e-09
0.000176645
4.30168e-10
9.99245e-09
0.000174986
4.35544e-10
1.03965e-08
0.000173829
4.37542e-10
1.08183e-08
0.000173315
4.377e-10
1.12608e-08
0.000173432
4.3342e-10
1.17224e-08
0.000173956
4.27029e-10
1.22068e-08
0.000174557
4.14804e-10
1.27114e-08
0.000174983
4.00249e-10
1.32411e-08
0.000175233
3.78074e-10
1.37918e-08
0.000175545
3.53518e-10
1.43703e-08
0.00017625
3.19053e-10
1.49703e-08
0.000177623
2.82386e-10
1.56012e-08