/*--------------------------------*- C++ -*----------------------------------*\
| =========                 |                                                 |
| \\      /  F ield         | OpenFOAM: The Open Source CFD Toolbox           |
|  \\    /   O peration     | Version:  2012                                  |
|   \\  /    A nd           | Website:  www.openfoam.com                      |
|    \\/     M anipulation  |                                                 |
\*---------------------------------------------------------------------------*/
FoamFile
{
    version     2.0;
    format      ascii;
    class       volTensorField;
    location    "10000";
    object      grad(U);
}
// * * * * * * * * * * * * * * * * * * * * * * * * * * * * * * * * * * * * * //

dimensions      [0 0 -1 0 0 0 0];


internalField   nonuniform List<tensor> 
1280
(
(1.8364e-17 -3.13161e-30 -1.30484e-31 32.5767 -4.92543e-12 -1.99686e-13 0.0939256 -7.09066e-15 -2.37271e-16)
(0 0 1.30484e-31 32.5767 4.53121e-48 3.56988e-18 0.0939256 -2.31112e-33 9.78069e-17)
(0 -8.31106e-26 -1.44582e-27 32.5672 4.0409e-28 -5.15511e-14 0.284482 0 -3.05957e-16)
(3.56794e-17 -2.43377e-29 -9.40745e-31 32.5672 -6.07634e-15 1.54074e-33 0.284482 -2.54117e-17 -4.3777e-17)
(1.97282e-16 -8.95529e-30 -6.63647e-31 32.5574 6.37506e-13 -2.47691e-14 0.403598 -7.20279e-15 -2.99247e-16)
(-2.6588e-17 1.18214e-29 6.157e-31 32.5574 -3.93018e-15 3.47803e-18 0.403598 -3.1754e-17 -4.58744e-17)
(0 -1.5312e-29 -4.78499e-31 32.5472 3.11812e-13 -2.51226e-14 0.415327 -8.39368e-15 -3.33227e-16)
(2.96488e-16 1.91399e-29 5.98123e-31 32.5472 -5.57031e-15 3.06805e-17 0.415327 -4.96313e-17 -4.7569e-17)
(1.95046e-16 -1.09934e-29 -5.51241e-31 32.5367 -3.88443e-14 -2.69179e-14 0.42739 -3.19461e-16 -3.64265e-16)
(2.56824e-16 7.43741e-30 4.64838e-31 32.5367 -5.76173e-15 4.13268e-17 0.42739 -6.85392e-17 -4.88473e-17)
(-9.21406e-17 3.59899e-30 5.45984e-31 32.5255 -1.45803e-14 -2.83264e-14 0.439794 -9.71639e-17 -3.91197e-16)
(3.68562e-16 0 -4.51568e-31 32.5255 -5.93413e-15 4.6612e-17 0.439794 -8.89817e-17 -4.96766e-17)
(1.26065e-16 -4.66032e-30 1.03432e-31 32.5135 4.52147e-31 -2.94585e-14 0.452542 0 -4.1751e-16)
(4.83554e-16 0 0 32.5135 -6.02266e-15 6.09761e-17 0.452542 -1.09739e-16 -4.99796e-17)
(0 6.81846e-30 2.13077e-31 32.4998 7.55443e-15 -3.05077e-14 0.46563 -9.3457e-17 -4.44599e-16)
(0 -3.40923e-30 0 32.4998 -6.15274e-15 7.91041e-17 0.46563 -1.30617e-16 -4.96183e-17)
(5.21335e-17 -2.6211e-29 -1.32511e-30 32.4834 8.59365e-15 -3.1531e-14 0.479049 -1.20313e-16 -4.72599e-16)
(7.23684e-16 2.98071e-29 1.65595e-30 32.4834 -6.29184e-15 9.21788e-17 0.479049 -1.53524e-16 -4.85308e-17)
(4.38658e-16 -1.3244e-29 -9.39661e-31 32.4628 8.96665e-15 -3.25278e-14 0.492773 -1.29691e-16 -5.01387e-16)
(8.49028e-16 9.65206e-30 8.04339e-31 32.4628 -6.35662e-15 1.03434e-16 0.492773 -1.77521e-16 -4.66065e-17)
(0 -3.12551e-30 -9.76721e-31 32.4354 9.45254e-15 -3.34869e-14 0.506761 -1.38816e-16 -5.30766e-16)
(9.78035e-16 3.12551e-30 1.17206e-30 32.4354 -6.63096e-15 1.1245e-16 0.506761 -2.02336e-16 -4.38291e-17)
(1.49615e-16 -5.52664e-30 -2.18417e-31 32.3977 1.0207e-14 -3.43835e-14 0.520947 -1.52615e-16 -5.60141e-16)
(1.11081e-15 9.10884e-30 7.5907e-31 32.3977 -7.02332e-15 1.34281e-16 0.520947 -2.30008e-16 -4.00754e-17)
(8.30239e-16 -5.8992e-30 -7.374e-31 32.3447 1.07079e-14 -3.51803e-14 0.535228 -1.71376e-16 -5.88816e-16)
(1.24748e-15 5.8992e-30 7.374e-31 32.3447 -7.22584e-15 1.54097e-16 0.535228 -2.59217e-16 -3.50916e-17)
(4.59504e-16 -7.89144e-30 -8.83044e-31 32.2699 1.07558e-14 -3.58305e-14 0.549463 -1.78309e-16 -6.15721e-16)
(5.81596e-16 5.73079e-30 7.16349e-31 32.2699 -7.40774e-15 1.73333e-16 0.549463 -2.90557e-16 -2.89148e-17)
(-3.83218e-16 -2.002e-30 2.08667e-31 32.1648 1.09204e-14 -3.62785e-14 0.563458 -1.83231e-16 -6.39656e-16)
(0 5.56719e-30 6.95898e-31 32.1648 -7.41373e-15 2.02622e-16 0.563458 -3.24987e-16 -2.12994e-17)
(0 -1.08165e-29 -3.38016e-31 32.0189 1.09267e-14 -3.64533e-14 0.576962 -1.94719e-16 -6.58755e-16)
(0 1.08165e-29 3.38016e-31 32.0189 -7.063e-15 2.49108e-16 0.576962 -3.56823e-16 -1.22256e-17)
(-4.58713e-16 8.80739e-30 2.47767e-31 31.8202 1.091e-14 -3.62829e-14 0.589668 -1.94386e-16 -6.71466e-16)
(-7.39415e-16 0 3.28366e-31 31.8202 -7.16028e-15 2.84741e-16 0.589668 -3.88303e-16 -1.39488e-18)
(1.21633e-15 -1.37542e-29 -9.07791e-31 31.555 1.13074e-14 -3.57006e-14 0.601215 -2.0571e-16 -6.75748e-16)
(-7.18306e-16 1.02077e-29 6.37984e-31 31.555 -7.9572e-15 2.72883e-16 0.601215 -4.27364e-16 4.97527e-18)
(6.978e-16 -4.95817e-30 -6.19771e-31 31.2093 1.13928e-14 -3.46546e-14 0.61121 -2.21195e-16 -6.70282e-16)
(2.15343e-15 4.95817e-30 6.19771e-31 31.2093 -8.20455e-15 2.68036e-16 0.61121 -4.70727e-16 2.45272e-17)
(-5.79653e-16 3.53446e-30 -2.83481e-31 30.7701 1.18586e-14 -3.31208e-14 0.619249 -2.21344e-16 -6.53819e-16)
(2.31861e-15 4.81662e-30 1.20416e-30 30.7701 -8.19064e-15 3.18935e-16 0.619249 -5.05793e-16 4.01652e-17)
(0 9.35824e-30 1.16978e-30 30.2266 1.29375e-14 -3.11042e-14 0.624962 -2.53284e-16 -6.26032e-16)
(-3.80437e-15 -4.67912e-30 -5.8489e-31 30.2266 -8.57495e-15 3.63203e-16 0.624962 -5.44388e-16 5.80584e-17)
(0 -4.54554e-30 -2.27277e-30 29.5722 1.2903e-14 -2.86542e-14 0.628047 -2.79604e-16 -5.87479e-16)
(2.65907e-15 9.09108e-30 2.84096e-30 29.5722 -8.29967e-15 3.81739e-16 0.628047 -5.93434e-16 7.78639e-17)
(5.34621e-16 -9.06693e-31 -1.52623e-31 28.8057 1.27131e-14 -2.58731e-14 0.628313 -2.66906e-16 -5.40288e-16)
(-1.24293e-15 8.83155e-30 1.10394e-30 28.8057 -8.37027e-15 3.96527e-16 0.628313 -6.40248e-16 9.94429e-17)
(0 -1.28691e-29 -2.68107e-30 27.9321 1.30066e-14 -2.28971e-14 0.625704 -2.87877e-16 -4.86938e-16)
(0 1.71589e-29 2.68107e-30 27.9321 -8.35033e-15 3.81178e-16 0.625704 -6.98225e-16 1.22028e-16)
(-4.19893e-16 -1.38554e-29 -1.70175e-30 26.9623 1.28828e-14 -1.98719e-14 0.620306 -2.96192e-16 -4.30644e-16)
(2.01276e-15 2.08363e-29 2.60453e-30 26.9623 -7.92325e-15 3.98789e-16 0.620306 -7.53551e-16 1.45395e-16)
(-1.98007e-15 2.77717e-29 5.53538e-30 25.9124 1.32182e-14 -1.69356e-14 0.612337 -2.99242e-16 -3.74233e-16)
(-2.22284e-15 -2.42897e-29 -5.06036e-30 25.9124 -8.87369e-15 4.26122e-16 0.612337 -8.11194e-16 1.69655e-16)
(-8.84491e-16 3.46957e-30 9.8792e-31 24.802 1.34807e-14 -1.42234e-14 0.602117 -3.30046e-16 -3.2155e-16)
(0 0 -4.91589e-31 24.802 -9.16911e-15 4.19703e-16 0.602117 -8.8348e-16 1.94294e-16)
(0 -2.29227e-29 -4.298e-30 23.652 1.3135e-14 -1.18187e-14 0.590034 -3.30134e-16 -2.73547e-16)
(3.71179e-15 2.29227e-29 4.298e-30 23.652 -8.21465e-15 3.91403e-16 0.590034 -9.45851e-16 2.19346e-16)
(1.04466e-15 -2.22683e-29 -3.71138e-30 22.4836 1.26257e-14 -9.77569e-15 0.576501 -3.32044e-16 -2.33154e-16)
(2.83841e-15 2.22683e-29 3.71138e-30 22.4836 -8.13552e-15 3.64926e-16 0.576501 -9.90599e-16 2.44073e-16)
(-2.02559e-15 1.77108e-29 2.89458e-30 21.3158 1.22171e-14 -8.11983e-15 0.561923 -3.23003e-16 -2.00109e-16)
(3.03634e-15 -7.21085e-30 -9.01357e-31 21.3158 -8.14328e-15 3.72869e-16 0.561923 -1.04357e-15 2.6947e-16)
(-1.0539e-15 3.43885e-30 5.58147e-31 20.165 1.19127e-14 -6.81835e-15 0.546676 -3.29703e-16 -1.74442e-16)
(4.2156e-15 0 0 20.165 -8.02757e-15 4.01214e-16 0.546676 -1.08729e-15 2.95525e-16)
(-1.094e-15 1.36394e-29 2.26984e-30 19.0446 1.17153e-14 -5.84582e-15 0.531085 -3.25283e-16 -1.56186e-16)
(0 -6.80502e-30 -8.50627e-31 19.0446 -8.06527e-15 3.90366e-16 0.531085 -1.13226e-15 3.22192e-16)
(1.53831e-15 9.5686e-30 1.57244e-30 17.9646 1.17375e-14 -5.15059e-15 0.515424 -3.38023e-16 -1.43742e-16)
(4.53209e-15 -2.31376e-29 -4.13172e-30 17.9646 -7.28373e-15 4.02409e-16 0.515424 -1.18395e-15 3.48441e-16)
(-1.17094e-15 -3.01062e-30 -2.17356e-31 16.9319 1.16269e-14 -4.67838e-15 0.499909 -3.45997e-16 -1.36761e-16)
(0 9.63304e-30 1.60551e-30 16.9319 -6.80064e-15 4.53081e-16 0.499909 -1.23187e-15 3.74779e-16)
(-2.96377e-15 9.6394e-30 2.15187e-30 15.951 1.11433e-14 -4.37845e-15 0.484707 -3.51449e-16 -1.33524e-16)
(4.83095e-15 -3.11935e-30 -7.79836e-31 15.951 -6.61964e-15 4.31506e-16 0.484707 -1.28833e-15 4.00191e-16)
(2.94933e-15 -9.45283e-30 -1.35547e-30 15.024 1.03936e-14 -4.2381e-15 0.46994 -3.36334e-16 -1.35866e-16)
(4.97368e-15 6.06059e-30 7.57574e-31 15.024 -6.36929e-15 3.42086e-16 0.46994 -1.34121e-15 4.25187e-16)
(0 -2.35503e-29 -3.67973e-30 14.1515 1.02944e-14 -4.23708e-15 0.455693 -3.24061e-16 -1.41419e-16)
(5.11203e-15 2.35503e-29 3.67973e-30 14.1515 -7.02721e-15 3.61218e-16 0.455693 -1.39116e-15 4.48682e-16)
(-1.31152e-15 2.339e-29 5.61212e-30 13.3328 1.09595e-14 -4.32302e-15 0.442021 -3.49808e-16 -1.49842e-16)
(-5.2461e-15 -2.00182e-29 -5.00456e-30 13.3328 -8.85274e-15 4.56332e-16 0.442021 -1.46169e-15 4.7266e-16)
(1.34401e-15 2.20207e-30 1.47181e-30 12.5663 1.14362e-14 -4.47701e-15 0.428955 -3.8884e-16 -1.60685e-16)
(-5.37604e-15 0 -6.94527e-31 12.5663 -9.68011e-15 4.29406e-16 0.428955 -1.55938e-15 4.9545e-16)
(-1.3755e-15 1.41335e-29 4.66402e-30 11.8499 1.05674e-14 -4.68181e-15 0.416506 -4.04196e-16 -1.73608e-16)
(3.98272e-15 -5.3976e-30 -3.3735e-30 11.8499 -7.74343e-15 3.6181e-16 0.416506 -1.64386e-15 5.17009e-16)
(-2.81209e-15 -9.05972e-30 -2.03779e-30 11.181 9.23162e-15 -4.93134e-15 0.404675 -3.49122e-16 -1.88868e-16)
(1.12484e-14 1.0487e-29 1.96631e-30 11.181 -6.19886e-15 3.04533e-16 0.404675 -1.70926e-15 5.37796e-16)
(-1.43568e-15 -1.76558e-30 -6.49859e-31 10.5568 9.26151e-15 -5.21437e-15 0.39345 -3.28734e-16 -2.05678e-16)
(5.74273e-15 5.09382e-30 1.27345e-30 10.5568 -6.3892e-15 2.5046e-16 0.39345 -1.7771e-15 5.56658e-16)
(0 0 6.1855e-31 9.97447 9.92303e-15 -5.50841e-15 0.382814 -3.72237e-16 -2.23356e-16)
(-1.39285e-15 0 0 9.97447 -6.95998e-15 2.35704e-16 0.382814 -1.84732e-15 5.73111e-16)
(-2.98484e-15 1.7838e-30 1.26385e-30 9.43122 9.39634e-15 -5.79672e-15 0.372745 -4.00588e-16 -2.41385e-16)
(5.96968e-15 9.61426e-30 6.00891e-31 9.43122 -7.68132e-15 2.53379e-16 0.372745 -1.93222e-15 5.88673e-16)
(-7.18774e-15 1.92176e-29 4.82784e-30 8.92431 8.67899e-15 -6.084e-15 0.363218 -3.51614e-16 -2.6072e-16)
(2.62892e-15 -9.3398e-30 -2.91869e-30 8.92431 -7.67206e-15 2.58396e-16 0.363218 -2.02426e-15 6.03297e-16)
(-1.81519e-15 -1.1586e-29 -2.12033e-30 8.45111 9.1852e-15 -6.37501e-15 0.354206 -3.64439e-16 -2.80851e-16)
(1.23685e-14 1.81463e-29 2.83536e-30 8.45111 -7.46546e-15 2.58562e-16 0.354206 -2.10099e-15 6.15861e-16)
(9.0914e-16 -1.14769e-30 6.45996e-31 8.00913 9.83865e-15 -6.65863e-15 0.345683 -4.16195e-16 -3.01423e-16)
(-2.48096e-15 8.81414e-30 1.10177e-30 8.00913 -8.80407e-15 2.56437e-16 0.345683 -2.17952e-15 6.26991e-16)
(-1.59693e-15 3.24291e-30 6.51448e-31 7.59605 9.53826e-15 -6.94699e-15 0.33762 -4.44125e-16 -3.23926e-16)
(0 4.28126e-30 1.07031e-30 7.59605 -1.01181e-14 2.03125e-16 0.33762 -2.28003e-15 6.38952e-16)
(0 -8.31808e-30 -1.03976e-30 7.2097 9.23831e-15 -7.27811e-15 0.329991 -4.13593e-16 -3.50516e-16)
(0 8.31808e-30 1.03976e-30 7.2097 -1.07087e-14 1.78694e-16 0.329991 -2.39718e-15 6.48696e-16)
(-6.29178e-16 1.2945e-29 3.37612e-30 6.84806 8.78647e-15 -7.60041e-15 0.322771 -4.42423e-16 -3.74421e-16)
(6.58125e-15 -4.04031e-30 -2.02015e-30 6.84806 -8.38388e-15 2.89968e-16 0.322771 -2.54516e-15 6.58179e-16)
(-1.66866e-15 1.10576e-29 3.6152e-30 6.50927 8.02759e-15 -7.89347e-15 0.315934 -3.94549e-16 -4.00603e-16)
(1.33493e-14 -3.92496e-30 -1.96248e-30 6.50927 -5.16433e-15 2.47152e-16 0.315934 -2.59267e-15 6.69572e-16)
(2.14648e-15 -7.62583e-30 -2.85969e-30 6.19161 6.18295e-15 -8.20911e-15 0.309458 -3.93239e-16 -4.29106e-16)
(0 7.62583e-30 2.85969e-30 6.19161 -5.59387e-15 1.60044e-16 0.309458 -2.67441e-15 6.77049e-16)
(0 -1.85203e-29 -5.5561e-30 5.89351 6.63293e-15 -8.50451e-15 0.30332 -2.28993e-16 -4.55664e-16)
(1.37104e-14 1.85203e-29 5.5561e-30 5.89351 -5.94184e-15 2.61334e-16 0.30332 -2.77291e-15 6.85102e-16)
(-1.73566e-15 3.15929e-30 7.00021e-31 5.61349 9.12024e-15 -8.73918e-15 0.297499 -4.64172e-16 -4.80186e-16)
(6.94263e-15 3.59832e-30 8.9958e-31 5.61349 -6.76318e-15 3.39053e-16 0.297499 -2.82171e-15 6.95489e-16)
(-2.10778e-16 3.85844e-30 1.91107e-30 5.35025 1.01282e-14 -8.97288e-15 0.291975 -5.12818e-16 -5.08969e-16)
(0 0 -1.7478e-30 5.35025 -8.03125e-15 2.67228e-16 0.291975 -2.92294e-15 7.06155e-16)
(-5.33417e-15 2.28964e-29 5.56565e-30 5.10254 1.00361e-14 -9.20341e-15 0.28673 -6.04553e-16 -5.35355e-16)
(0 -1.35832e-29 -3.3958e-30 5.10254 -8.21637e-15 1.77738e-16 0.28673 -2.99836e-15 7.14985e-16)
(-3.71419e-15 1.31954e-29 5.77301e-30 4.86925 1.00897e-14 -9.42313e-15 0.281747 -5.32802e-16 -5.65356e-16)
(3.71419e-15 -1.31954e-29 -5.77301e-30 4.86925 -8.34687e-15 2.22859e-16 0.281747 -3.08984e-15 7.23838e-16)
(1.80408e-15 -6.40937e-30 -8.01171e-31 4.64934 1.16636e-14 -9.63792e-15 0.27701 -6.4696e-16 -5.93478e-16)
(7.2754e-15 6.40937e-30 8.01171e-31 4.64934 -8.68074e-15 2.7032e-16 0.27701 -3.20022e-15 7.35497e-16)
(8.61227e-17 8.88382e-32 1.0936e-32 4.44188 1.17332e-14 -9.81269e-15 0.272504 -7.56528e-16 -6.21014e-16)
(0 0 0 4.44188 -8.87265e-15 2.54718e-16 0.272504 -3.32477e-15 7.46738e-16)
(-1.8582e-15 9.05828e-30 7.84159e-31 4.24598 1.07154e-14 -9.97868e-15 0.268214 -6.94284e-16 -6.50323e-16)
(7.43281e-15 -6.04865e-30 0 4.24598 -8.44383e-15 1.96148e-16 0.268214 -3.45631e-15 7.60001e-16)
(0 5.87597e-30 2.93798e-30 4.06086 9.5204e-15 -1.01593e-14 0.264128 -6.70103e-16 -6.8208e-16)
(0 -2.93798e-30 -1.46899e-30 4.06086 -8.56921e-15 1.58778e-16 0.264128 -3.60991e-15 7.7058e-16)
(1.60672e-15 -5.70822e-30 0 3.88577 7.96583e-15 -1.03592e-14 0.260233 -5.76722e-16 -7.16484e-16)
(0 0 0 3.88577 -7.80429e-15 1.75189e-17 0.260233 -3.76489e-15 7.78913e-16)
(3.82964e-15 -1.15244e-29 -7.22433e-30 3.72005 8.52094e-15 -1.0556e-14 0.256518 -4.97181e-16 -7.50496e-16)
(7.65928e-15 5.54526e-30 5.54526e-30 3.72005 -7.46372e-15 -1.26197e-17 0.256518 -3.88263e-15 7.78794e-16)
(3.03259e-15 -1.07739e-29 -2.69348e-30 3.56306 1.06415e-14 -1.0731e-14 0.252973 -6.89367e-16 -7.846e-16)
(7.73245e-15 1.07739e-29 2.69348e-30 3.56306 -9.67195e-15 2.02401e-16 0.252973 -4.06305e-15 7.79849e-16)
(0 0 0 3.41425 1.18691e-14 -1.08784e-14 0.249587 -8.34535e-16 -8.1728e-16)
(0 5.23317e-30 2.61659e-30 3.41425 -1.05989e-14 2.44243e-16 0.249587 -4.33358e-15 7.8235e-16)
(0 -1.52513e-29 -6.35472e-30 3.27307 1.3604e-14 -1.10102e-14 0.246352 -9.13859e-16 -8.51655e-16)
(7.87561e-15 1.52513e-29 6.35472e-30 3.27307 -1.00913e-14 1.90082e-16 0.246352 -4.55545e-15 7.79078e-16)
(0 -1.48159e-29 -7.40797e-30 3.13905 1.33036e-14 -1.11205e-14 0.243259 -1.15106e-15 -8.83473e-16)
(0 1.48159e-29 8.64263e-30 3.13905 -1.01717e-14 2.11827e-16 0.243259 -4.785e-15 7.71614e-16)
(-4.00743e-15 1.5179e-29 6.69434e-30 3.01173 9.80649e-15 -1.12934e-14 0.240299 -9.20813e-16 -9.3062e-16)
(0 -9.59531e-30 -4.79766e-30 3.01173 -7.08653e-15 9.35532e-17 0.240299 -4.96629e-15 7.51729e-16)
(0 4.66069e-30 3.49552e-30 2.89069 8.35986e-15 -1.15468e-14 0.237466 -6.49917e-16 -9.78664e-16)
(5.4594e-15 0 -2.33035e-30 2.89069 -3.23345e-15 -1.8034e-16 0.237466 -5.01479e-15 6.79102e-16)
(-2.03764e-15 2.78019e-30 3.26367e-30 2.77555 9.97729e-15 -1.17819e-14 0.234751 -7.33099e-16 -1.0267e-15)
(-2.54884e-15 0 0 2.77555 -4.55228e-15 -3.86888e-16 0.234751 -5.0822e-15 5.99912e-16)
(-4.21783e-16 -1.15205e-29 -5.42775e-30 2.66595 1.11712e-14 -1.19151e-14 0.23215 -9.67924e-16 -1.06071e-15)
(2.47607e-15 8.79677e-30 4.39839e-30 2.66595 -6.92228e-15 -2.3047e-16 0.23215 -5.21829e-15 4.99496e-16)
(-2.07074e-15 -1.579e-30 -8.11327e-30 2.56157 1.01986e-14 4.85261e-30 0.229654 -9.89006e-16 0)
(0 4.27282e-30 4.27282e-30 2.56157 -7.21964e-15 -8.25179e-17 0.229654 -5.37367e-15 3.98042e-16)
(0 -8.30168e-30 -4.15084e-30 2.46208 9.2478e-15 4.64495e-15 0.22726 -8.4771e-16 -4.15822e-16)
(0 4.15084e-30 4.15084e-30 2.46208 -7.56399e-15 4.03648e-17 0.22726 -5.55913e-15 1.60884e-16)
(-4.37311e-15 -1.38088e-30 -8.97473e-31 2.36722 9.02859e-15 4.74564e-15 0.22496 -8.68936e-16 -4.46702e-16)
(2.27001e-15 8.06469e-30 4.03234e-30 2.36722 -6.27419e-15 5.71122e-16 0.22496 -5.76448e-15 8.80407e-17)
(2.11902e-15 -2.63169e-30 -1.19497e-31 2.2767 7.1014e-15 4.96489e-15 0.22275 -8.55769e-16 -4.60139e-16)
(6.27086e-15 0 -9.38419e-31 2.2767 -3.86399e-15 7.59908e-16 0.22275 -5.85847e-15 6.10133e-17)
(-2.12728e-15 -9.88473e-30 -8.32245e-30 2.1903 5.14153e-15 6.0099e-15 0.220626 -5.36181e-16 -5.17093e-16)
(8.53907e-15 1.14162e-29 0 2.1903 -4.62387e-15 5.299e-45 0.220626 -5.94679e-15 1.2326e-32)
(-2.15036e-15 1.00527e-29 4.71747e-30 2.10776 6.79381e-15 6.53332e-15 0.218582 -5.04215e-16 -7.02243e-16)
(-2.08109e-15 0 -1.72108e-29 2.10776 -6.09574e-15 -2.5829e-16 0.218582 -6.18356e-15 1.34563e-17)
(-2.1658e-15 6.16308e-30 1.00178e-30 2.02888 9.6342e-15 6.03698e-15 0.216615 -9.17539e-16 -6.5861e-16)
(8.6632e-15 0 1.79561e-30 2.02888 -5.93996e-15 -3.10872e-15 0.216615 -6.41644e-15 -6.12953e-18)
(-1.96397e-15 6.97741e-30 5.23306e-30 1.95347 1.04956e-14 5.59812e-15 0.21472 -1.15254e-15 -6.36085e-16)
(0 0 -3.48871e-30 1.95347 -7.07962e-15 -2.64725e-15 0.21472 -6.6149e-15 -9.18214e-17)
(0 1.01673e-29 6.77822e-30 1.88132 9.79481e-15 5.63376e-15 0.212894 -1.16526e-15 -5.99557e-16)
(-8.78498e-15 -1.01673e-29 -6.77822e-30 1.88132 -6.92321e-15 -2.07257e-15 0.212894 -6.8562e-15 -1.85799e-16)
(2.21126e-15 -5.75982e-30 -5.87234e-30 1.81228 1.12038e-14 6.17555e-15 0.211132 -1.05965e-15 -6.82239e-16)
(8.84505e-15 3.29236e-30 4.93854e-30 1.81228 -7.10733e-15 -1.76809e-15 0.211132 -7.01549e-15 -2.41458e-16)
(2.22615e-15 -5.5422e-30 -5.69872e-30 1.74616 1.26302e-14 5.19619e-15 0.209432 -1.56929e-15 -7.63948e-16)
(0 3.19837e-30 4.79755e-30 1.74616 -7.18013e-15 -1.53811e-15 0.209432 -7.30216e-15 -2.67452e-16)
(2.24091e-15 -8.52512e-30 -5.5867e-30 1.68283 9.87104e-15 4.30027e-15 0.207789 -1.47145e-15 -4.83566e-16)
(1.24619e-14 6.21412e-30 4.66059e-30 1.68283 -3.51516e-15 -1.52374e-15 0.207789 -7.57323e-15 -3.38122e-16)
(0 9.05509e-30 4.52754e-30 1.62213 7.85248e-15 5.06245e-15 0.206202 -9.68712e-16 -5.84108e-16)
(-9.02219e-15 -9.05509e-30 -4.52754e-30 1.62213 -3.60048e-15 -2.07253e-15 0.206202 -7.75472e-15 -4.29297e-16)
(-2.27007e-15 2.3161e-30 8.58889e-31 1.56394 8.46542e-15 5.22788e-15 0.204668 -1.03645e-15 -7.09795e-16)
(0 5.86439e-30 1.4661e-30 1.56394 -4.50182e-15 -2.66525e-15 0.204668 -8.01728e-15 -4.89209e-16)
(2.28448e-15 5.98937e-31 3.428e-30 1.50812 8.46026e-15 4.69001e-15 0.203182 -1.18989e-15 -6.63044e-16)
(9.13791e-15 -5.69697e-30 -4.27273e-30 1.50812 -3.01874e-15 -2.72805e-15 0.203182 -8.16307e-15 -5.88628e-16)
(2.29878e-15 -1.05241e-29 -9.13434e-30 1.45456 5.67334e-15 3.72535e-15 0.201743 -1.09684e-15 -6.04521e-16)
(9.1951e-15 2.76717e-30 5.53434e-30 1.45456 -3.56151e-15 -2.1689e-15 0.201743 -8.24295e-15 -6.80258e-16)
(0 0 -1.34409e-30 1.40314 4.87506e-15 2.90604e-15 0.200348 -4.73577e-16 -4.30081e-16)
(0 0 2.68817e-30 1.40314 -3.99708e-15 -1.69461e-15 0.200348 -8.39838e-15 -7.60293e-16)
(0 -5.22286e-30 -2.61143e-30 1.35377 6.53168e-15 2.57211e-15 0.198994 -9.30122e-16 -4.02324e-16)
(9.30823e-15 5.22286e-30 2.61143e-30 1.35377 -2.96402e-15 -1.26142e-15 0.198994 -8.63318e-15 -8.65478e-16)
(-4.6821e-15 6.87559e-30 2.93843e-30 1.30633 6.20131e-15 2.36657e-15 0.19768 -9.97702e-16 -3.55775e-16)
(9.36419e-15 -2.53688e-30 0 1.30633 -2.8897e-15 -8.19538e-16 0.19768 -8.87167e-15 -8.87997e-16)
(-2.77473e-15 9.85782e-30 3.69668e-30 1.26075 7.24891e-15 2.21485e-15 0.196402 -8.83795e-16 -3.62983e-16)
(2.77473e-15 -9.85782e-30 -4.92891e-30 1.26075 -3.05475e-15 -5.16402e-16 0.196402 -9.01393e-15 -8.56311e-16)
(0 -4.7882e-30 -2.3941e-30 1.21692 7.08377e-15 2.41322e-15 0.19516 -1.38949e-15 -3.2887e-16)
(0 4.7882e-30 1.19705e-30 1.21692 -2.77545e-15 -2.3609e-17 0.19516 -9.07163e-15 -9.03484e-16)
(-9.52981e-15 8.32789e-30 3.16311e-30 1.17477 4.65247e-15 1.74653e-15 0.19395 -8.82581e-16 -4.494e-16)
(-1.90596e-14 4.65151e-30 0 1.17477 -2.69653e-15 5.97598e-17 0.19395 -9.37526e-15 -9.46437e-16)
(2.69155e-15 -6.94362e-30 -4.63475e-30 1.13423 4.74843e-15 1.45942e-15 0.19277 -6.55188e-16 -1.24405e-16)
(9.5843e-15 4.51872e-30 1.12968e-30 1.13423 -1.26415e-15 -2.08834e-16 0.19277 -9.58101e-15 -9.48878e-16)
(-2.47119e-15 4.38972e-30 2.19486e-30 1.09521 5.76726e-15 2.98495e-15 0.191619 -9.68417e-16 -5.98131e-16)
(9.63844e-15 0 -1.09743e-30 1.09521 -7.40067e-16 -3.26215e-16 0.191619 -9.70023e-15 -8.92921e-16)
(-4.84612e-15 3.96368e-30 3.63732e-30 1.05764 5.32601e-15 2.11981e-15 0.190494 -1.05711e-15 -4.4737e-16)
(9.69225e-15 0 -1.0661e-30 1.05764 -2.20945e-15 -3.22262e-16 0.190494 -9.94045e-15 -8.82544e-16)
(-2.43643e-15 6.14877e-30 2.8265e-30 1.02146 4.42616e-15 1.32169e-15 0.189394 -8.64402e-16 -3.16632e-16)
(0 0 -1.03567e-30 1.02146 -2.57889e-15 1.13904e-16 0.189394 -1.02008e-14 -9.45083e-16)
(2.44972e-15 -6.02617e-30 -1.77752e-30 0.986617 3.51512e-15 1.3102e-15 0.188317 -7.80567e-16 -1.72853e-16)
(9.7989e-15 4.0244e-30 1.0061e-30 0.986617 -9.44016e-16 7.92473e-16 0.188317 -1.03415e-14 -9.96108e-16)
(4.6638e-15 -2.01767e-30 1.21675e-30 0.953038 2.33716e-15 1.55882e-15 0.187261 -5.62036e-16 -3.3105e-16)
(-2.20086e-15 -3.90951e-30 -3.90951e-30 0.953038 -1.35793e-15 9.27308e-16 0.187261 -1.05139e-14 -9.38449e-16)
(-6.76097e-16 2.74054e-31 5.1853e-31 0.920671 1.91169e-15 2.00951e-15 0.186225 -3.56062e-16 -2.8258e-16)
(-9.9043e-15 0 -9.49475e-31 0.920671 -1.58823e-15 -4.5806e-18 0.186225 -1.07188e-14 -7.47196e-16)
(0 3.68948e-30 9.22369e-31 0.889464 3.06992e-15 2.18593e-15 0.185205 -4.20411e-16 -5.36321e-16)
(7.87957e-15 0 -9.22369e-31 0.889464 8.00115e-16 -8.67545e-16 0.185205 -1.09286e-14 -6.87931e-16)
(0 -7.1683e-30 -2.68811e-30 0.859366 3.7104e-15 1.18861e-15 0.184202 -8.68085e-16 -3.74188e-16)
(0 0 2.68811e-30 0.859366 1.91577e-15 -8.23439e-16 0.184202 -1.09512e-14 -8.00652e-16)
(0 0 2.61137e-30 0.830328 3.29933e-15 4.60626e-16 0.183212 -7.24858e-16 -1.33281e-16)
(-3.92019e-15 0 -8.70458e-31 0.830328 7.27452e-16 -1.14884e-15 0.183212 -1.08928e-14 -9.01649e-16)
(0 3.38243e-30 1.69122e-30 0.802306 3.14861e-15 2.41905e-16 0.182235 -7.35281e-16 -6.96288e-17)
(-3.80828e-15 0 -8.45608e-31 0.802306 -4.1686e-16 -1.20383e-15 0.182235 -1.09997e-14 -9.70801e-16)
(0 0 -8.21467e-31 0.775256 3.17695e-15 4.95491e-17 0.181268 -6.98421e-16 -4.01351e-17)
(0 0 1.64293e-30 0.775256 3.50107e-16 -2.0313e-16 0.181268 -1.08047e-14 -1.15804e-15)
(-2.55339e-15 1.88893e-30 3.87103e-30 0.749136 3.42718e-15 -2.11133e-16 0.180311 -7.92616e-16 -8.51459e-17)
(0 0 -3.19207e-30 0.749136 7.38667e-16 2.32376e-17 0.180311 -1.09575e-14 -1.13174e-15)
(0 0 -1.75162e-46 0.723909 3.40571e-15 5.47272e-30 0.17936 -8.62629e-16 -3.98502e-46)
(-3.49135e-15 0 -7.75235e-31 0.723909 1.46164e-15 -2.28872e-15 0.17936 -1.07882e-14 -1.10686e-15)
(2.57861e-15 -1.84058e-30 -6.43357e-31 0.699536 3.23314e-15 6.11293e-16 0.178415 -8.29058e-16 -1.39415e-16)
(0 3.01241e-30 0 0.699536 1.57374e-15 -4.50134e-15 0.178415 -1.06474e-14 -1.41438e-15)
(2.59112e-15 -1.82932e-30 -2.09508e-30 0.675981 2.12003e-15 1.18558e-15 0.177473 -8.24512e-16 -1.73737e-16)
(0 0 1.46321e-30 0.675981 2.44696e-15 -3.80191e-15 0.177473 -1.0554e-14 -1.72949e-15)
(0 0 1.42144e-30 0.653212 1.81665e-15 2.17197e-15 0.176533 -2.83846e-16 -4.54533e-16)
(7.21346e-15 0 -1.42144e-30 0.653212 3.55284e-15 -2.89815e-15 0.176533 -1.05345e-14 -1.84074e-15)
(0 2.76171e-30 1.38086e-30 0.631195 2.61754e-15 3.10509e-15 0.175593 -7.06845e-16 -7.2654e-16)
(-2.09275e-14 0 0 0.631195 1.3889e-15 -5.037e-15 0.175593 -1.07113e-14 -1.95568e-15)
(-3.02065e-15 0 0 0.609899 2.30609e-15 2.68554e-15 0.174652 -7.54149e-16 -1.00987e-15)
(0 0 0 0.609899 -4.74977e-16 -8.91704e-15 0.174652 -1.07072e-14 -2.0867e-15)
(-2.64051e-15 1.78724e-30 4.43569e-31 0.589296 2.28633e-15 2.28672e-15 0.173706 -5.67511e-16 -5.25384e-16)
(0 0 0 0.589296 -1.82233e-15 -8.65798e-15 0.173706 -9.88598e-15 -2.59134e-15)
(2.85064e-15 -5.06376e-30 0 0.569356 3.64927e-15 2.82802e-15 0.172755 -7.87269e-16 -8.30871e-16)
(0 0 0 0.569356 -2.02568e-15 -5.7746e-15 0.172755 -8.26673e-15 -2.89518e-15)
(0 0 0 0.550053 4.36577e-15 2.38009e-15 0.171796 -1.44295e-15 -8.90956e-16)
(-2.76926e-15 2.4596e-30 1.2298e-30 0.550053 -1.25663e-15 -2.51599e-15 0.171796 -6.4294e-15 -8.59038e-16)
(-5.35374e-15 3.19592e-30 4.82464e-31 0.53136 3.16761e-15 7.14907e-16 0.170827 -1.28964e-15 -5.95703e-16)
(1.07075e-14 -3.79805e-30 -1.45823e-30 0.53136 -5.67132e-17 -8.90633e-17 0.170827 -4.74698e-15 -2.40538e-16)
(0 -2.32117e-30 0 0.513253 2.59184e-15 7.92586e-46 0.169846 -7.45037e-16 4.38418e-47)
(1.07554e-14 -1.59562e-30 -1.31713e-30 0.513253 3.65488e-16 2.57014e-16 0.169846 -4.36916e-15 -3.51172e-16)
(0 0 0 0.495708 3.16218e-15 3.5899e-16 0.16885 -9.78756e-16 -2.48014e-16)
(0 0 0 0.495708 -5.805e-16 7.71264e-17 0.16885 -3.25857e-15 -3.12097e-16)
(-2.46632e-15 4.38107e-30 3.50325e-46 0.478702 3.14891e-15 1.50377e-30 0.167838 -1.1849e-15 -2.67934e-46)
(-2.46632e-15 0 0 0.478702 -8.02608e-17 -4.11978e-16 0.167838 -1.8069e-15 -1.56898e-16)
(2.39591e-15 0 0 0.462213 2.45864e-15 -2.07641e-16 0.166806 -1.02766e-15 -2.80287e-16)
(0 0 -1.064e-30 0.462213 8.70299e-16 -4.86309e-16 0.166806 -9.96565e-16 -2.25851e-16)
(4.08635e-16 4.98028e-31 8.69853e-31 0.446219 2.94138e-15 -9.05996e-16 0.165752 -7.4844e-16 -3.96647e-16)
(-2.32751e-15 0 1.03362e-30 0.446219 2.41413e-15 -7.19363e-16 0.165752 -6.638e-16 -3.11539e-16)
(-5.4956e-15 2.81409e-30 1.24983e-30 0.430701 4.29375e-15 -3.40445e-16 0.164672 -1.45403e-15 -6.52985e-17)
(1.09912e-14 -3.63961e-30 -6.61254e-31 0.430701 1.82349e-15 -1.07012e-15 0.164672 -1.39783e-15 -5.12384e-16)
(0 0 0 0.415637 1.11994e-15 -9.52629e-16 0.163565 -1.84587e-15 -6.96185e-16)
(0 -1.9509e-30 -9.75451e-31 0.415637 -9.10895e-16 -1.86898e-15 0.163565 -7.1005e-16 -9.70296e-16)
(0 0 0 0.40101 -1.79472e-16 -1.55158e-15 0.162427 -9.65021e-16 -6.76521e-16)
(1.10836e-14 -5.60519e-44 -8.23263e-45 0.40101 -2.56422e-29 -3.72228e-30 0.162427 -1.57772e-30 -3.9443e-31)
(1.10739e-14 -3.1835e-30 -4.90957e-30 0.3868 -7.89176e-16 -1.78819e-16 0.161254 -1.70839e-15 -3.74115e-17)
(0 -1.8411e-30 0 0.3868 -2.1746e-16 9.8332e-16 0.161254 -3.29473e-16 -5.13404e-16)
(-2.79368e-15 1.57642e-30 4.68559e-45 0.37299 -1.35496e-15 2.10508e-30 0.160042 -4.577e-16 -1.97215e-31)
(0 0 0 0.37299 -9.5929e-16 4.70969e-16 0.160042 -4.9937e-16 -7.44067e-16)
(5.01997e-15 -2.17619e-30 2.5357e-32 0.359562 -1.98946e-15 1.27666e-15 0.158788 -2.24532e-15 -6.72061e-16)
(-3.91247e-15 1.6608e-30 2.08636e-30 0.359562 7.97185e-29 7.58606e-16 0.158788 -1.57772e-30 -1.68177e-16)
(0 -1.8478e-30 0 0.346499 -7.29696e-30 6.1791e-16 0.157487 1.57772e-30 -4.56928e-16)
(0 0 0 0.346499 2.1836e-15 4.25149e-16 0.157487 -1.78191e-15 -9.58458e-16)
(0 3.27939e-30 -1.6397e-30 0.333784 1.52146e-15 1.3102e-16 0.156134 -9.04105e-16 -1.01978e-16)
(-1.50014e-14 5.39956e-30 2.43651e-30 0.333784 -7.10485e-17 -1.16084e-15 0.156134 -1.93697e-15 -4.96552e-16)
(0 0 0 0.321401 9.89196e-16 -2.52073e-15 0.154725 -5.19979e-16 -1.32948e-15)
(-1.13532e-14 7.39276e-30 1.0002e-30 0.321401 -1.07089e-15 -8.58501e-16 0.154725 -2.58958e-16 -3.31456e-16)
(2.84924e-15 -1.70352e-30 -2.08633e-30 0.309334 1.69756e-15 -1.97215e-31 0.153254 -4.35614e-16 0)
(0 -1.53267e-44 0 0.309334 -2.08214e-29 -1.67332e-15 0.153254 1.57772e-30 -1.62151e-15)
(5.24901e-16 1.53873e-30 1.12932e-31 0.297567 2.56554e-16 2.24615e-15 0.151714 -1.26666e-15 -9.49753e-16)
(0 0 -7.00649e-46 0.297567 2.15193e-16 -5.86293e-30 0.151714 -4.8296e-16 -8.34465e-46)
(0 0 0 0.286083 -5.33969e-16 1.22392e-15 0.1501 -3.72129e-16 -1.35835e-15)
(0 0 0 0.286083 6.70532e-30 2.70259e-16 0.1501 -1.57772e-30 -9.29537e-16)
(2.88149e-15 -1.67419e-30 0 0.274868 5.56174e-16 -4.56241e-16 0.148403 -4.95889e-16 -1.61445e-15)
(1.1526e-14 -6.825e-30 2.4873e-44 0.274868 1.20269e-15 -5.59944e-30 0.148403 -7.18134e-16 -3.9443e-31)
(-5.78407e-15 3.25001e-30 -8.75812e-47 0.263906 -5.39965e-16 1.06619e-30 0.146616 -7.18018e-16 -8.29299e-47)
(0 0 0 0.263906 9.0052e-16 3.67337e-15 0.146616 -5.86167e-16 -1.36834e-15)
(3.12691e-15 -5.25487e-46 -1.25492e-30 0.25318 1.20301e-29 1.59888e-15 0.144729 1.57772e-30 -4.60016e-16)
(1.71904e-14 -8.90935e-30 0 0.25318 9.82394e-16 -1.17505e-16 0.144729 -1.47002e-15 -1.69759e-15)
(2.92863e-15 0 0 0.242676 7.96592e-16 5.43385e-15 0.142732 -2.55782e-15 1.26059e-17)
(-1.16512e-14 5.96191e-30 1.20468e-30 0.242676 -4.43621e-16 9.63746e-30 0.142732 -1.27106e-15 0)
(-2.92299e-15 1.42319e-30 0 0.232375 -1.08375e-15 3.92003e-16 0.140614 -3.30402e-16 -6.59392e-16)
(1.1692e-14 -6.96335e-30 0 0.232375 -1.09207e-16 3.28682e-15 0.140614 -3.32938e-17 -1.07203e-15)
(-2.93306e-15 2.76756e-43 2.82449e-44 0.222263 6.22751e-29 6.35221e-30 0.138363 4.91235e-46 1.97215e-31)
(0 0 0 0.222263 4.03329e-16 9.50837e-16 0.138363 -6.6392e-16 -1.04741e-15)
(0 -2.38467e-30 0 0.21232 6.10423e-16 3.60297e-15 0.135964 -5.06756e-16 -7.68209e-16)
(1.1772e-14 -6.75861e-30 -3.8173e-31 0.21232 1.12014e-15 -1.0194e-16 0.135964 -3.61863e-16 -1.77345e-16)
(-2.95278e-15 4.03647e-30 -1.1583e-30 0.20253 8.09285e-16 1.62325e-15 0.1334 -2.78734e-16 -4.67793e-16)
(0 -2.3166e-30 3.51864e-31 0.20253 -6.65274e-16 1.97215e-31 0.1334 -2.43686e-15 9.86076e-32)
(0 0 -1.12523e-30 0.192872 1.00733e-15 -2.53836e-15 0.130654 -1.66413e-15 -8.97971e-16)
(0 1.84211e-30 1.12523e-30 0.192872 4.81008e-29 2.62336e-15 0.130654 -1.57772e-30 -7.1099e-16)
(0 0 1.09311e-30 0.183326 7.31399e-16 -3.50737e-15 0.127704 -1.36851e-15 -1.44327e-15)
(-1.18876e-14 6.9008e-30 -1.09311e-30 0.183326 9.73571e-17 1.17392e-15 0.127704 -8.66146e-16 -2.39323e-16)
(4.78238e-15 -2.1238e-30 -4.22191e-32 0.173871 1.00253e-15 -6.6439e-30 0.124525 -2.57963e-15 0)
(-4.78238e-15 0 0 0.173871 1.21063e-28 -3.89045e-16 0.124525 -1.57772e-30 -6.82169e-16)
(4.64585e-15 -2.06317e-30 0 0.164483 -3.06066e-16 6.16127e-15 0.121091 -1.87333e-15 -2.05406e-16)
(0 0 0 0.164483 2.61929e-15 3.62339e-16 0.121091 -1.71002e-15 -6.68261e-16)
(0 0 0 0.155134 6.64353e-46 4.87399e-15 0.117368 -1.57772e-30 1.0968e-15)
(1.19969e-14 -5.22879e-30 -1.63269e-31 0.155134 1.66297e-15 1.1889e-15 0.117368 -2.2093e-15 -4.56973e-16)
(-3.00794e-15 1.41043e-30 0 0.145798 1.85176e-15 -2.88206e-15 0.113319 -2.25076e-15 5.08557e-16)
(0 0 0 0.145798 1.04135e-16 8.24978e-16 0.113319 -3.20096e-16 -1.00662e-16)
(-1.77362e-15 4.95134e-30 -4.37906e-47 0.136442 5.60615e-16 0 0.108901 -9.16739e-16 -1.97215e-31)