/*--------------------------------*- C++ -*----------------------------------*\
| =========                 |                                                 |
| \\      /  F ield         | OpenFOAM: The Open Source CFD Toolbox           |
|  \\    /   O peration     | Version:  2012                                  |
|   \\  /    A nd           | Website:  www.openfoam.com                      |
|    \\/     M anipulation  |                                                 |
\*---------------------------------------------------------------------------*/
FoamFile
{
    version     2.0;
    format      ascii;
    class       volScalarField;
    location    "3000";
    object      nut;
}
// * * * * * * * * * * * * * * * * * * * * * * * * * * * * * * * * * * * * * //

dimensions      [0 2 -1 0 0 0 0];


internalField   nonuniform List<scalar> 
2560
(
2.5182e-14
2.5182e-14
2.12554e-14
2.12554e-14
1.87267e-14
1.87267e-14
1.70303e-14
1.70303e-14
1.58527e-14
1.58527e-14
1.50781e-14
1.50781e-14
1.47342e-14
1.47342e-14
1.49818e-14
1.49818e-14
1.61319e-14
1.61319e-14
1.86805e-14
1.86805e-14
2.33565e-14
2.33565e-14
3.11828e-14
3.11828e-14
4.35489e-14
4.35489e-14
6.22978e-14
6.22978e-14
8.98278e-14
8.98278e-14
1.2921e-13
1.2921e-13
1.84327e-13
1.84327e-13
2.60025e-13
2.60025e-13
3.62302e-13
3.62302e-13
4.98506e-13
4.98506e-13
6.77576e-13
6.77576e-13
9.10303e-13
9.10303e-13
1.20964e-12
1.20964e-12
1.59102e-12
1.59102e-12
2.07279e-12
2.07279e-12
2.67658e-12
2.67658e-12
3.42784e-12
3.42784e-12
4.35633e-12
4.35633e-12
5.4968e-12
5.4968e-12
6.88959e-12
6.88959e-12
8.58143e-12
8.58143e-12
1.06262e-11
1.06262e-11
1.30861e-11
1.30861e-11
1.60322e-11
1.60322e-11
1.95461e-11
1.95461e-11
2.37209e-11
2.37209e-11
2.86624e-11
2.86624e-11
3.44911e-11
3.44911e-11
4.13434e-11
4.13434e-11
4.93736e-11
4.93736e-11
5.87558e-11
5.87558e-11
6.96862e-11
6.96862e-11
8.23853e-11
8.23853e-11
9.71005e-11
9.71005e-11
1.14109e-10
1.14109e-10
1.3372e-10
1.3372e-10
1.56279e-10
1.56279e-10
1.82171e-10
1.82171e-10
2.11824e-10
2.11824e-10
2.45714e-10
2.45714e-10
2.84366e-10
2.84366e-10
3.28363e-10
3.28363e-10
3.78349e-10
3.78349e-10
4.35034e-10
4.35034e-10
4.99199e-10
4.99199e-10
5.71704e-10
5.71704e-10
6.53493e-10
6.53493e-10
7.45599e-10
7.45599e-10
8.49156e-10
8.49156e-10
9.65402e-10
9.65402e-10
1.09569e-09
1.09569e-09
1.24148e-09
1.24148e-09
1.40439e-09
1.40439e-09
1.58616e-09
1.58616e-09
1.78867e-09
1.78867e-09
2.01398e-09
2.01398e-09
2.26431e-09
2.26431e-09
2.54204e-09
2.54204e-09
2.84978e-09
2.84978e-09
3.1903e-09
3.1903e-09
3.56663e-09
3.56663e-09
3.98198e-09
3.98198e-09
4.43983e-09
4.43983e-09
4.94392e-09
4.94392e-09
5.49823e-09
5.49823e-09
6.10704e-09
6.10704e-09
6.77493e-09
6.77493e-09
7.50678e-09
7.50678e-09
8.3078e-09
8.3078e-09
9.18355e-09
9.18355e-09
1.014e-08
1.014e-08
1.11833e-08
1.11833e-08
1.23203e-08
1.23203e-08
1.35581e-08
1.35581e-08
1.49042e-08
1.49042e-08
1.63667e-08
1.63667e-08
1.79539e-08
1.79539e-08
1.9675e-08
1.9675e-08
2.15394e-08
2.15394e-08
2.35572e-08
2.35572e-08
2.5739e-08
2.5739e-08
2.80961e-08
2.80961e-08
3.06403e-08
3.06403e-08
3.33842e-08
3.33842e-08
3.63409e-08
3.63409e-08
3.95244e-08
3.95244e-08
4.29494e-08
4.29494e-08
4.66313e-08
4.66313e-08
5.05865e-08
5.05865e-08
5.48321e-08
5.48321e-08
5.93862e-08
5.93862e-08
6.42678e-08
6.42678e-08
6.94969e-08
6.94969e-08
7.50946e-08
7.50946e-08
8.1083e-08
8.1083e-08
8.74855e-08
8.74855e-08
9.43266e-08
9.43266e-08
1.01632e-07
1.01632e-07
1.09429e-07
1.09429e-07
1.17746e-07
1.17746e-07
1.26613e-07
1.26613e-07
1.36062e-07
1.36062e-07
1.46126e-07
1.46126e-07
1.56839e-07
1.56839e-07
1.68238e-07
1.68238e-07
1.80363e-07
1.80363e-07
1.93254e-07
1.93254e-07
2.06952e-07
2.06952e-07
2.21505e-07
2.21505e-07
2.36957e-07
2.36957e-07
2.5336e-07
2.5336e-07
2.70766e-07
2.70766e-07
2.8923e-07
2.8923e-07
3.08809e-07
3.08809e-07
3.29565e-07
3.29565e-07
3.51561e-07
3.51561e-07
3.74866e-07
3.74866e-07
3.9955e-07
3.9955e-07
4.25689e-07
4.25689e-07
4.5336e-07
4.5336e-07
4.82648e-07
4.82648e-07
5.13638e-07
5.13638e-07
5.46423e-07
5.46423e-07
5.811e-07
5.811e-07
6.17771e-07
6.17771e-07
6.56541e-07
6.56541e-07
6.97525e-07
6.97525e-07
7.40841e-07
7.40841e-07
7.86615e-07
7.86615e-07
8.34976e-07
8.34976e-07
8.86065e-07
8.86065e-07
9.40027e-07
9.40027e-07
9.97015e-07
9.97015e-07
1.05719e-06
1.05719e-06
1.12073e-06
1.12073e-06
1.1878e-06
1.1878e-06
1.25859e-06
1.25859e-06
1.33331e-06
1.33331e-06
1.41216e-06
1.41216e-06
1.49536e-06
1.49536e-06
1.58315e-06
1.58315e-06
1.67575e-06
1.67575e-06
1.77344e-06
1.77344e-06
1.87647e-06
1.87647e-06
1.98513e-06
1.98513e-06
2.09972e-06
2.09972e-06
2.22054e-06
2.22054e-06
2.34793e-06
2.34793e-06
2.48223e-06
2.48223e-06
2.62379e-06
2.62379e-06
2.77301e-06
2.77301e-06
2.93027e-06
2.93027e-06
3.096e-06
3.096e-06
3.27063e-06
3.27063e-06
3.45463e-06
3.45463e-06
3.64847e-06
3.64847e-06
3.85268e-06
3.85268e-06
4.06777e-06
4.06777e-06
4.29432e-06
4.29432e-06
4.53289e-06
4.53289e-06
4.78411e-06
4.78411e-06
5.04862e-06
5.04862e-06
5.3271e-06
5.3271e-06
5.62024e-06
5.62024e-06
5.9288e-06
5.9288e-06
6.25354e-06
6.25354e-06
6.59528e-06
6.59528e-06
6.95487e-06
6.95487e-06
7.33319e-06
7.33319e-06
7.73118e-06
7.73118e-06
8.14982e-06
8.14982e-06
8.59013e-06
8.59013e-06
9.05317e-06
9.05317e-06
9.54007e-06
9.54007e-06
1.0052e-05
1.0052e-05
1.05902e-05
1.05902e-05
1.11559e-05
1.11559e-05
1.17505e-05
1.17505e-05
1.23754e-05
1.23754e-05
1.30321e-05
1.30321e-05
1.37221e-05
1.37221e-05
1.4447e-05
1.4447e-05
1.52086e-05
1.52086e-05
1.60086e-05
1.60086e-05
1.68488e-05
1.68488e-05
1.77314e-05
1.77314e-05
1.86582e-05
1.86582e-05
1.96315e-05
1.96315e-05
2.06536e-05
2.06536e-05
2.17269e-05
2.17269e-05
2.28538e-05
2.28538e-05
2.40371e-05
2.40371e-05
2.52795e-05
2.52795e-05
2.6584e-05
2.6584e-05
2.79538e-05
2.79538e-05
2.93922e-05
2.93922e-05
3.09026e-05
3.09026e-05
3.24889e-05
3.24889e-05
3.41549e-05
3.41549e-05
3.59049e-05
3.59049e-05
3.77432e-05
3.77432e-05
3.96748e-05
3.96748e-05
4.17045e-05
4.17045e-05
4.3838e-05
4.3838e-05
4.60808e-05
4.60808e-05
4.84393e-05
4.84393e-05
5.092e-05
5.092e-05
5.35301e-05
5.35301e-05
5.62772e-05
5.62772e-05
5.91694e-05
5.91694e-05
6.22156e-05
6.22156e-05
6.54253e-05
6.54253e-05
6.88087e-05
6.88087e-05
7.23768e-05
7.23768e-05
7.61415e-05
7.61415e-05
8.01156e-05
8.01156e-05
8.43129e-05
8.43129e-05
8.87484e-05
8.87484e-05
9.34383e-05
9.34383e-05
9.83999e-05
9.83999e-05
0.000103652
0.000103652
0.000109215
0.000109215
0.000115111
0.000115111
0.000121364
0.000121364
0.000127998
0.000127998
0.000135041
0.000135041
0.000142524
0.000142524
0.000150476
0.000150476
0.000158933
0.000158933
0.00016793
0.00016793
0.000177506
0.000177506
0.000187702
0.000187702
0.000198561
0.000198561
0.000210129
0.000210129
0.000222454
0.000222454
0.000235587
0.000235587
0.000249582
0.000249582
0.000264492
0.000264492
0.000280374
0.000280374
0.000297287
0.000297287
0.000315291
0.000315291
0.000334445
0.000334445
0.000354809
0.000354809
0.000376446
0.000376446
0.000399414
0.000399414
0.000423773
0.000423773
0.000449579
0.000449579
0.000476888
0.000476888
0.00050575
0.00050575
0.000536215
0.000536215
0.000568326
0.000568326
0.000602124
0.000602124
0.000637642
0.000637642
0.000674909
0.000674909
0.00071395
0.00071395
0.000754781
0.000754781
0.000797412
0.000797412
0.000841847
0.000841847
0.000888084
0.000888084
0.000936113
0.000936113
0.000985917
0.000985917
0.00103747
0.00103747
0.00109075
0.00109075
0.00114571
0.00114571
0.00120231
0.00120231
0.0012605
0.0012605
0.00132022
0.00132022
0.00138141
0.00138141
0.001444
0.001444
0.00150791
0.00150791
0.00157306
0.00157306
0.00163937
0.00163937
0.00170674
0.00170674
0.00177507
0.00177507
0.00184427
0.00184427
0.00191421
0.00191421
0.00198479
0.00198479
0.00205589
0.00205589
0.00212739
0.00212739
0.00219915
0.00219915
0.00227105
0.00227105
0.00234294
0.00234294
0.0024147
0.0024147
0.00248616
0.00248616
0.00255718
0.00255718
0.00262762
0.00262762
0.00269731
0.00269731
0.00276609
0.00276609
0.0028338
0.0028338
0.00290027
0.00290027
0.00296534
0.00296534
0.00302884
0.00302884
0.00309058
0.00309058
0.00315039
0.00315039
0.0032081
0.0032081
0.00326353
0.00326353
0.00331649
0.00331649
0.00336681
0.00336681
0.0034143
0.0034143
0.00345878
0.00345878
0.00350008
0.00350007
0.003538
0.003538
0.00357239
0.00357239
0.00360306
0.00360305
0.00362983
0.00362983
0.00365254
0.00365254
0.00367103
0.00367103
0.00368513
0.00368513
0.00369469
0.00369469
0.00369954
0.00369954
2.5182e-14
2.5182e-14
2.12554e-14
2.12554e-14
1.87267e-14
1.87267e-14
1.70303e-14
1.70303e-14
1.58527e-14
1.58527e-14
1.50781e-14
1.50781e-14
1.47342e-14
1.47342e-14
1.49818e-14
1.49818e-14
1.61319e-14
1.61319e-14
1.86805e-14
1.86805e-14
2.33565e-14
2.33565e-14
3.11828e-14
3.11828e-14
4.35489e-14
4.35489e-14
6.22978e-14
6.22978e-14
8.98278e-14
8.98278e-14
1.2921e-13
1.2921e-13
1.84327e-13
1.84327e-13
2.60025e-13
2.60025e-13
3.62302e-13
3.62302e-13
4.98506e-13
4.98506e-13
6.77576e-13
6.77576e-13
9.10303e-13
9.10303e-13
1.20964e-12
1.20964e-12
1.59102e-12
1.59102e-12
2.07279e-12
2.07279e-12
2.67658e-12
2.67658e-12
3.42784e-12
3.42784e-12
4.35633e-12
4.35633e-12
5.4968e-12
5.4968e-12
6.88959e-12
6.88959e-12
8.58143e-12
8.58143e-12
1.06262e-11
1.06262e-11
1.30861e-11
1.30861e-11
1.60322e-11
1.60322e-11
1.95461e-11
1.95461e-11
2.37209e-11
2.37209e-11
2.86624e-11
2.86624e-11
3.44911e-11
3.44911e-11
4.13434e-11
4.13434e-11
4.93736e-11
4.93736e-11
5.87558e-11
5.87558e-11
6.96862e-11
6.96862e-11
8.23853e-11
8.23853e-11
9.71005e-11
9.71005e-11
1.14109e-10
1.14109e-10
1.3372e-10
1.3372e-10
1.56279e-10
1.56279e-10
1.82171e-10
1.82171e-10
2.11824e-10
2.11824e-10
2.45714e-10
2.45714e-10
2.84366e-10
2.84366e-10
3.28363e-10
3.28363e-10
3.78349e-10
3.78349e-10
4.35034e-10
4.35034e-10
4.99199e-10
4.99199e-10
5.71704e-10
5.71704e-10
6.53493e-10
6.53493e-10
7.45599e-10
7.45599e-10
8.49156e-10
8.49156e-10
9.65402e-10
9.65402e-10
1.09569e-09
1.09569e-09
1.24148e-09
1.24148e-09
1.40439e-09
1.40439e-09
1.58616e-09
1.58616e-09
1.78867e-09
1.78867e-09
2.01398e-09
2.01398e-09
2.26431e-09
2.26431e-09
2.54204e-09
2.54204e-09
2.84978e-09
2.84978e-09
3.1903e-09
3.1903e-09
3.56663e-09
3.56663e-09
3.98198e-09
3.98198e-09
4.43983e-09
4.43983e-09
4.94392e-09
4.94392e-09
5.49823e-09
5.49823e-09
6.10704e-09
6.10704e-09
6.77493e-09
6.77493e-09
7.50678e-09
7.50678e-09
8.3078e-09
8.3078e-09
9.18355e-09
9.18355e-09
1.014e-08
1.014e-08
1.11833e-08
1.11833e-08
1.23203e-08
1.23203e-08
1.35581e-08
1.35581e-08
1.49042e-08
1.49042e-08
1.63667e-08
1.63667e-08
1.79539e-08
1.79539e-08
1.9675e-08
1.9675e-08
2.15394e-08
2.15394e-08
2.35572e-08
2.35572e-08
2.5739e-08
2.5739e-08
2.80961e-08
2.80961e-08
3.06403e-08
3.06403e-08
3.33842e-08
3.33842e-08
3.63409e-08
3.63409e-08
3.95244e-08
3.95244e-08
4.29494e-08
4.29494e-08
4.66313e-08
4.66313e-08
5.05865e-08
5.05865e-08
5.48321e-08
5.48321e-08
5.93862e-08
5.93862e-08
6.42678e-08
6.42678e-08
6.94969e-08
6.94969e-08
7.50946e-08
7.50946e-08
8.1083e-08
8.1083e-08
8.74855e-08
8.74855e-08
9.43266e-08
9.43266e-08
1.01632e-07
1.01632e-07
1.09429e-07
1.09429e-07
1.17746e-07
1.17746e-07
1.26613e-07
1.26613e-07
1.36062e-07
1.36062e-07
1.46126e-07
1.46126e-07
1.56839e-07
1.56839e-07
1.68238e-07
1.68238e-07
1.80363e-07
1.80363e-07
1.93254e-07
1.93254e-07
2.06952e-07
2.06952e-07
2.21505e-07
2.21505e-07
2.36957e-07
2.36957e-07
2.5336e-07
2.5336e-07
2.70766e-07
2.70766e-07
2.8923e-07
2.8923e-07
3.08809e-07
3.08809e-07
3.29564e-07
3.29564e-07
3.51561e-07
3.51561e-07
3.74866e-07
3.74866e-07
3.9955e-07
3.9955e-07
4.25689e-07
4.25689e-07
4.5336e-07
4.5336e-07
4.82648e-07
4.82648e-07
5.13638e-07
5.13638e-07
5.46423e-07
5.46423e-07
5.811e-07
5.811e-07
6.17771e-07
6.17771e-07
6.56541e-07
6.56541e-07
6.97525e-07
6.97525e-07
7.40841e-07
7.40841e-07
7.86615e-07
7.86615e-07
8.34976e-07
8.34976e-07
8.86065e-07
8.86065e-07
9.40027e-07
9.40027e-07
9.97015e-07
9.97015e-07
1.05719e-06
1.05719e-06
1.12073e-06
1.12073e-06
1.1878e-06
1.1878e-06
1.25859e-06
1.25859e-06
1.33331e-06
1.33331e-06
1.41216e-06
1.41216e-06
1.49536e-06
1.49536e-06
1.58315e-06
1.58315e-06
1.67575e-06
1.67575e-06
1.77344e-06
1.77344e-06
1.87647e-06
1.87647e-06
1.98513e-06
1.98513e-06
2.09972e-06
2.09972e-06
2.22054e-06
2.22054e-06
2.34793e-06
2.34793e-06
2.48223e-06
2.48223e-06
2.62379e-06
2.62379e-06
2.77301e-06
2.77301e-06
2.93027e-06
2.93027e-06
3.096e-06
3.096e-06
3.27063e-06
3.27063e-06
3.45463e-06
3.45463e-06
3.64847e-06
3.64847e-06
3.85268e-06
3.85268e-06
4.06777e-06
4.06777e-06
4.29432e-06
4.29432e-06
4.53289e-06
4.53289e-06
4.78411e-06
4.78411e-06
5.04862e-06
5.04862e-06
5.3271e-06
5.3271e-06
5.62024e-06
5.62024e-06
5.9288e-06
5.9288e-06
6.25354e-06
6.25354e-06
6.59528e-06
6.59528e-06
6.95487e-06
6.95487e-06
7.33319e-06
7.33319e-06
7.73118e-06
7.73118e-06
8.14982e-06
8.14982e-06
8.59013e-06
8.59013e-06
9.05317e-06
9.05317e-06
9.54007e-06
9.54007e-06
1.0052e-05
1.0052e-05
1.05902e-05
1.05902e-05
1.11559e-05
1.11559e-05
1.17505e-05
1.17505e-05
1.23754e-05
1.23754e-05
1.30321e-05
1.30321e-05
1.37221e-05
1.37221e-05
1.4447e-05
1.4447e-05
1.52086e-05
1.52086e-05
1.60086e-05
1.60086e-05
1.68488e-05
1.68488e-05
1.77314e-05
1.77314e-05
1.86582e-05
1.86582e-05
1.96315e-05
1.96315e-05
2.06536e-05
2.06536e-05
2.17269e-05
2.17269e-05
2.28538e-05
2.28538e-05
2.40371e-05
2.40371e-05
2.52795e-05
2.52795e-05
2.6584e-05
2.6584e-05
2.79538e-05
2.79538e-05
2.93922e-05
2.93922e-05
3.09026e-05
3.09026e-05
3.24889e-05
3.24889e-05
3.41549e-05
3.41549e-05
3.59049e-05
3.59049e-05
3.77432e-05
3.77432e-05
3.96748e-05
3.96748e-05
4.17045e-05
4.17045e-05
4.3838e-05
4.3838e-05
4.60808e-05
4.60808e-05
4.84393e-05
4.84393e-05
5.092e-05
5.092e-05
5.35301e-05
5.35301e-05
5.62772e-05
5.62772e-05
5.91694e-05
5.91694e-05
6.22156e-05
6.22156e-05
6.54253e-05
6.54253e-05
6.88087e-05
6.88087e-05
7.23768e-05
7.23768e-05
7.61415e-05
7.61415e-05
8.01156e-05
8.01156e-05
8.43129e-05
8.43129e-05
8.87484e-05
8.87484e-05
9.34383e-05
9.34383e-05
9.83999e-05
9.83999e-05
0.000103652
0.000103652
0.000109215
0.000109215
0.000115111
0.000115111
0.000121364
0.000121364
0.000127998
0.000127998
0.000135041
0.000135041
0.000142524
0.000142524
0.000150476
0.000150476
0.000158933
0.000158933
0.00016793
0.00016793
0.000177506
0.000177506
0.000187702
0.000187702
0.000198561
0.000198561
0.000210129
0.000210129
0.000222454
0.000222454
0.000235587
0.000235587
0.000249582
0.000249582
0.000264492
0.000264492
0.000280374
0.000280374
0.000297287
0.000297287
0.000315291
0.000315291
0.000334444
0.000334444
0.000354809
0.000354809
0.000376446
0.000376446
0.000399414
0.000399414
0.000423773
0.000423773
0.000449579
0.000449579
0.000476888
0.000476888
0.00050575
0.00050575
0.000536215
0.000536215
0.000568326
0.000568326
0.000602124
0.000602123
0.000637641
0.000637641
0.000674909
0.000674909
0.00071395
0.00071395
0.00075478
0.00075478
0.000797411
0.000797411
0.000841847
0.000841847
0.000888084
0.000888084
0.000936113
0.000936113
0.000985916
0.000985916
0.00103747
0.00103747
0.00109075
0.00109075
0.00114571
0.00114571
0.00120231
0.00120231
0.0012605
0.0012605
0.00132022
0.00132022
0.00138141
0.00138141
0.001444
0.001444
0.00150791
0.00150791
0.00157306
0.00157306
0.00163937
0.00163937
0.00170674
0.00170674
0.00177507
0.00177507
0.00184427
0.00184427
0.00191421
0.00191421
0.00198479
0.00198479
0.00205589
0.00205589
0.00212739
0.00212739
0.00219915
0.00219915
0.00227105
0.00227105
0.00234294
0.00234294
0.00241469
0.00241469
0.00248616
0.00248616
0.00255718
0.00255718
0.00262762
0.00262762
0.00269731
0.00269731
0.00276609
0.00276609
0.0028338
0.0028338
0.00290027
0.00290027
0.00296534
0.00296534
0.00302884
0.00302884
0.00309058
0.00309058
0.00315039
0.00315039
0.0032081
0.0032081
0.00326353
0.00326353
0.00331649
0.00331649
0.00336681
0.00336681
0.0034143
0.0034143
0.00345878
0.00345878
0.00350007
0.00350007
0.003538
0.003538
0.00357239
0.00357239
0.00360305
0.00360305
0.00362983
0.00362983
0.00365254
0.00365254
0.00367103
0.00367103
0.00368513
0.00368513
0.00369469
0.00369468
0.00369954
0.00369954
0.00369955
0.00369955
0.0036947
0.0036947
0.00368516
0.00368516
0.00367107
0.00367106
0.00365259
0.00365259
0.00362988
0.00362988
0.00360312
0.00360312
0.00357246
0.00357246
0.00353808
0.00353808
0.00350016
0.00350016
0.00345887
0.00345887
0.0034144
0.0034144
0.00336691
0.00336691
0.0033166
0.0033166
0.00326365
0.00326365
0.00320823
0.00320823
0.00315052
0.00315052
0.00309071
0.00309071
0.00302897
0.00302897
0.00296548
0.00296548
0.00290042
0.00290042
0.00283395
0.00283395
0.00276624
0.00276624
0.00269746
0.00269746
0.00262777
0.00262777
0.00255734
0.00255734
0.00248631
0.00248631
0.00241485
0.00241485
0.00234309
0.00234309
0.0022712
0.0022712
0.0021993
0.0021993
0.00212754
0.00212754
0.00205604
0.00205604
0.00198494
0.00198494
0.00191435
0.00191435
0.00184441
0.00184441
0.00177521
0.00177521
0.00170687
0.00170687
0.0016395
0.0016395
0.00157319
0.00157319
0.00150803
0.00150803
0.00144412
0.00144412
0.00138152
0.00138152
0.00132033
0.00132033
0.00126061
0.00126061
0.00120241
0.00120241
0.00114581
0.00114581
0.00109085
0.00109085
0.00103757
0.00103757
0.000986007
0.000986006
0.000936199
0.000936199
0.000888166
0.000888166
0.000841925
0.000841925
0.000797486
0.000797485
0.000754851
0.000754851
0.000714016
0.000714016
0.000674972
0.000674972
0.000637701
0.000637701
0.000602179
0.000602179
0.000568379
0.000568379
0.000536264
0.000536264
0.000505796
0.000505796
0.000476931
0.000476931
0.00044962
0.00044962
0.000423811
0.000423811
0.000399449
0.000399449
0.000376479
0.000376479
0.00035484
0.00035484
0.000334473
0.000334473
0.000315317
0.000315317
0.000297312
0.000297312
0.000280397
0.000280397
0.000264513
0.000264513
0.000249601
0.000249601
0.000235606
0.000235606
0.000222471
0.000222471
0.000210144
0.000210144
0.000198575
0.000198575
0.000187715
0.000187715
0.000177519
0.000177519
0.000167942
0.000167942
0.000158944
0.000158944
0.000150487
0.000150487
0.000142533
0.000142533
0.00013505
0.00013505
0.000128006
0.000128006
0.000121371
0.000121371
0.000115118
0.000115118
0.000109222
0.000109222
0.000103658
0.000103658
9.84057e-05
9.84057e-05
9.34437e-05
9.34437e-05
8.87535e-05
8.87535e-05
8.43177e-05
8.43177e-05
8.012e-05
8.012e-05
7.61457e-05
7.61457e-05
7.23807e-05
7.23807e-05
6.88124e-05
6.88124e-05
6.54288e-05
6.54288e-05
6.22189e-05
6.22189e-05
5.91725e-05
5.91725e-05
5.62801e-05
5.62801e-05
5.35328e-05
5.35328e-05
5.09226e-05
5.09226e-05
4.84417e-05
4.84417e-05
4.60831e-05
4.60831e-05
4.38401e-05
4.38401e-05
4.17066e-05
4.17066e-05
3.96767e-05
3.96767e-05
3.7745e-05
3.7745e-05
3.59066e-05
3.59066e-05
3.41565e-05
3.41565e-05
3.24904e-05
3.24904e-05
3.09041e-05
3.09041e-05
2.93936e-05
2.93936e-05
2.79551e-05
2.79551e-05
2.65852e-05
2.65852e-05
2.52806e-05
2.52806e-05
2.40381e-05
2.40381e-05
2.28548e-05
2.28548e-05
2.17278e-05
2.17278e-05
2.06545e-05
2.06545e-05
1.96324e-05
1.96324e-05
1.8659e-05
1.8659e-05
1.77321e-05
1.77321e-05
1.68496e-05
1.68496e-05
1.60093e-05
1.60093e-05
1.52092e-05
1.52092e-05
1.44476e-05
1.44476e-05
1.37227e-05
1.37227e-05
1.30326e-05
1.30326e-05
1.23759e-05
1.23759e-05
1.1751e-05
1.1751e-05
1.11564e-05
1.11564e-05
1.05906e-05
1.05906e-05
1.00524e-05
1.00524e-05
9.54046e-06
9.54046e-06
9.05354e-06
9.05354e-06
8.59048e-06
8.59048e-06
8.15015e-06
8.15015e-06
7.73149e-06
7.73149e-06
7.33348e-06
7.33348e-06
6.95514e-06
6.95514e-06
6.59554e-06
6.59554e-06
6.25379e-06
6.25379e-06
5.92903e-06
5.92903e-06
5.62046e-06
5.62046e-06
5.3273e-06
5.3273e-06
5.04882e-06
5.04882e-06
4.78429e-06
4.78429e-06
4.53306e-06
4.53306e-06
4.29448e-06
4.29448e-06
4.06793e-06
4.06793e-06
3.85282e-06
3.85282e-06
3.64861e-06
3.64861e-06
3.45475e-06
3.45475e-06
3.27075e-06
3.27075e-06
3.09611e-06
3.09611e-06
2.93037e-06
2.93037e-06
2.77311e-06
2.77311e-06
2.62389e-06
2.62389e-06
2.48232e-06
2.48232e-06
2.34801e-06
2.34801e-06
2.22062e-06
2.22062e-06
2.09979e-06
2.09979e-06
1.9852e-06
1.9852e-06
1.87653e-06
1.87653e-06
1.7735e-06
1.7735e-06
1.67581e-06
1.67581e-06
1.5832e-06
1.5832e-06
1.49541e-06
1.49541e-06
1.41221e-06
1.41221e-06
1.33336e-06
1.33336e-06
1.25863e-06
1.25863e-06
1.18784e-06
1.18784e-06
1.12076e-06
1.12076e-06
1.05723e-06
1.05723e-06
9.97047e-07
9.97047e-07
9.40057e-07
9.40057e-07
8.86093e-07
8.86093e-07
8.35002e-07
8.35002e-07
7.86639e-07
7.86639e-07
7.40864e-07
7.40864e-07
6.97547e-07
6.97547e-07
6.56561e-07
6.56561e-07
6.17789e-07
6.17789e-07
5.81118e-07
5.81118e-07
5.4644e-07
5.4644e-07
5.13653e-07
5.13653e-07
4.82662e-07
4.82662e-07
4.53374e-07
4.53374e-07
4.25701e-07
4.25701e-07
3.99562e-07
3.99562e-07
3.74877e-07
3.74877e-07
3.51571e-07
3.51571e-07
3.29574e-07
3.29574e-07
3.08817e-07
3.08817e-07
2.89238e-07
2.89238e-07
2.70774e-07
2.70774e-07
2.53367e-07
2.53367e-07
2.36964e-07
2.36964e-07
2.21511e-07
2.21511e-07
2.06958e-07
2.06958e-07
1.93259e-07
1.93259e-07
1.80368e-07
1.80368e-07
1.68243e-07
1.68243e-07
1.56843e-07
1.56843e-07
1.46129e-07
1.46129e-07
1.36066e-07
1.36066e-07
1.26617e-07
1.26617e-07
1.17749e-07
1.17749e-07
1.09432e-07
1.09432e-07
1.01635e-07
1.01635e-07
9.4329e-08
9.4329e-08
8.74877e-08
8.74877e-08
8.1085e-08
8.1085e-08
7.50964e-08
7.50964e-08
6.94986e-08
6.94986e-08
6.42693e-08
6.42693e-08
5.93876e-08
5.93876e-08
5.48334e-08
5.48334e-08
5.05877e-08
5.05877e-08
4.66324e-08
4.66324e-08
4.29504e-08
4.29504e-08
3.95253e-08
3.95253e-08
3.63417e-08
3.63417e-08
3.33849e-08
3.33849e-08
3.0641e-08
3.0641e-08
2.80967e-08
2.80967e-08
2.57396e-08
2.57396e-08
2.35577e-08
2.35577e-08
2.15399e-08
2.15399e-08
1.96754e-08
1.96754e-08
1.79543e-08
1.79543e-08
1.6367e-08
1.6367e-08
1.49046e-08
1.49046e-08
1.35584e-08
1.35584e-08
1.23206e-08
1.23206e-08
1.11836e-08
1.11836e-08
1.01402e-08
1.01402e-08
9.18374e-09
9.18374e-09
8.30797e-09
8.30797e-09
7.50693e-09
7.50693e-09
6.77507e-09
6.77507e-09
6.10717e-09
6.10717e-09
5.49834e-09
5.49834e-09
4.94402e-09
4.94402e-09
4.43992e-09
4.43992e-09
3.98206e-09
3.98206e-09
3.5667e-09
3.5667e-09
3.19037e-09
3.19037e-09
2.84983e-09
2.84983e-09
2.54209e-09
2.54209e-09
2.26435e-09
2.26435e-09
2.01402e-09
2.01402e-09
1.78871e-09
1.78871e-09
1.58619e-09
1.58619e-09
1.40442e-09
1.40442e-09
1.24151e-09
1.24151e-09
1.09571e-09
1.09571e-09
9.6542e-10
9.6542e-10
8.49172e-10
8.49172e-10
7.45613e-10
7.45613e-10
6.53505e-10
6.53505e-10
5.71715e-10
5.71715e-10
4.99208e-10
4.99208e-10
4.35042e-10
4.35042e-10
3.78356e-10
3.78356e-10
3.28369e-10
3.28369e-10
2.84371e-10
2.84371e-10
2.45718e-10
2.45718e-10
2.11828e-10
2.11828e-10
1.82174e-10
1.82174e-10
1.56282e-10
1.56282e-10
1.33722e-10
1.33722e-10
1.14111e-10
1.14111e-10
9.71022e-11
9.71022e-11
8.23868e-11
8.23868e-11
6.96875e-11
6.96875e-11
5.87568e-11
5.87568e-11
4.93745e-11
4.93745e-11
4.13441e-11
4.13441e-11
3.44917e-11
3.44917e-11
2.86629e-11
2.86629e-11
2.37213e-11
2.37213e-11
1.95465e-11
1.95465e-11
1.60325e-11
1.60325e-11
1.30863e-11
1.30863e-11
1.06264e-11
1.06264e-11
8.58157e-12
8.58157e-12
6.88971e-12
6.88971e-12
5.4969e-12
5.4969e-12
4.35641e-12
4.35641e-12
3.42789e-12
3.42789e-12
2.67663e-12
2.67663e-12
2.07283e-12
2.07283e-12
1.59105e-12
1.59105e-12
1.20966e-12
1.20966e-12
9.10317e-13
9.10317e-13
6.77587e-13
6.77587e-13
4.98514e-13
4.98514e-13
3.62308e-13
3.62308e-13
2.60029e-13
2.60029e-13
1.84329e-13
1.84329e-13
1.29212e-13
1.29212e-13
8.98288e-14
8.98288e-14
6.22985e-14
6.22985e-14
4.35492e-14
4.35492e-14
3.1183e-14
3.1183e-14
2.33565e-14
2.33565e-14
1.86804e-14
1.86804e-14
1.61318e-14
1.61318e-14
1.49816e-14
1.49816e-14
1.4734e-14
1.4734e-14
1.50779e-14
1.50779e-14
1.58525e-14
1.58525e-14
1.70301e-14
1.70301e-14
1.87265e-14
1.87265e-14
2.12551e-14
2.12551e-14
2.51817e-14
2.51817e-14
0.00369955
0.00369955
0.0036947
0.0036947
0.00368515
0.00368515
0.00367106
0.00367106
0.00365259
0.00365259
0.00362988
0.00362988
0.00360312
0.00360312
0.00357246
0.00357246
0.00353808
0.00353808
0.00350016
0.00350016
0.00345887
0.00345887
0.0034144
0.0034144
0.00336691
0.00336691
0.0033166
0.0033166
0.00326365
0.00326365
0.00320823
0.00320823
0.00315052
0.00315052
0.00309071
0.00309071
0.00302897
0.00302897
0.00296548
0.00296548
0.00290042
0.00290042
0.00283394
0.00283394
0.00276624
0.00276624
0.00269746
0.00269746
0.00262777
0.00262777
0.00255733
0.00255733
0.00248631
0.00248631
0.00241485
0.00241485
0.00234309
0.00234309
0.0022712
0.0022712
0.0021993
0.0021993
0.00212754
0.00212754
0.00205604
0.00205604
0.00198494
0.00198494
0.00191435
0.00191435
0.00184441
0.00184441
0.00177521
0.00177521
0.00170687
0.00170687
0.0016395
0.0016395
0.00157319
0.00157319
0.00150803
0.00150803
0.00144412
0.00144412
0.00138152
0.00138152
0.00132033
0.00132033
0.00126061
0.00126061
0.00120241
0.00120241
0.00114581
0.00114581
0.00109085
0.00109085
0.00103757
0.00103757
0.000986006
0.000986006
0.000936198
0.000936198
0.000888166
0.000888166
0.000841925
0.000841925
0.000797485
0.000797485
0.00075485
0.00075485
0.000714016
0.000714016
0.000674972
0.000674972
0.000637701
0.0006377
0.000602179
0.000602179
0.000568378
0.000568378
0.000536264
0.000536264
0.000505796
0.000505796
0.000476931
0.000476931
0.00044962
0.000449619
0.000423811
0.000423811
0.000399449
0.000399449
0.000376479
0.000376479
0.00035484
0.00035484
0.000334473
0.000334473
0.000315317
0.000315317
0.000297312
0.000297312
0.000280397
0.000280397
0.000264513
0.000264513
0.000249601
0.000249601
0.000235605
0.000235605
0.000222471
0.000222471
0.000210144
0.000210144
0.000198575
0.000198575
0.000187715
0.000187715
0.000177519
0.000177519
0.000167942
0.000167942
0.000158944
0.000158944
0.000150486
0.000150486
0.000142533
0.000142533
0.00013505
0.00013505
0.000128006
0.000128006
0.000121371
0.000121371
0.000115118
0.000115118
0.000109222
0.000109222
0.000103658
0.000103658
9.84057e-05
9.84057e-05
9.34437e-05
9.34437e-05
8.87535e-05
8.87535e-05
8.43177e-05
8.43177e-05
8.012e-05
8.012e-05
7.61457e-05
7.61457e-05
7.23807e-05
7.23807e-05
6.88124e-05
6.88124e-05
6.54288e-05
6.54288e-05
6.22189e-05
6.22189e-05
5.91725e-05
5.91725e-05
5.62801e-05
5.62801e-05
5.35328e-05
5.35328e-05
5.09226e-05
5.09226e-05
4.84417e-05
4.84417e-05
4.60831e-05
4.60831e-05
4.38401e-05
4.38401e-05
4.17066e-05
4.17066e-05
3.96767e-05
3.96767e-05
3.7745e-05
3.7745e-05
3.59066e-05
3.59066e-05
3.41565e-05
3.41565e-05
3.24904e-05
3.24904e-05
3.09041e-05
3.09041e-05
2.93936e-05
2.93936e-05
2.79551e-05
2.79551e-05
2.65852e-05
2.65852e-05
2.52806e-05
2.52806e-05
2.40381e-05
2.40381e-05
2.28548e-05
2.28548e-05
2.17278e-05
2.17278e-05
2.06545e-05
2.06545e-05
1.96324e-05
1.96324e-05
1.8659e-05
1.8659e-05
1.77321e-05
1.77321e-05
1.68496e-05
1.68496e-05
1.60093e-05
1.60093e-05
1.52092e-05
1.52092e-05
1.44476e-05
1.44476e-05
1.37227e-05
1.37227e-05
1.30326e-05
1.30326e-05
1.23759e-05
1.23759e-05
1.1751e-05
1.1751e-05
1.11564e-05
1.11564e-05
1.05906e-05
1.05906e-05
1.00524e-05
1.00524e-05
9.54046e-06
9.54046e-06
9.05354e-06
9.05354e-06
8.59048e-06
8.59048e-06
8.15015e-06
8.15015e-06
7.73149e-06
7.73149e-06
7.33348e-06
7.33348e-06
6.95514e-06
6.95514e-06
6.59554e-06
6.59554e-06
6.25379e-06
6.25379e-06
5.92903e-06
5.92903e-06
5.62046e-06
5.62046e-06
5.3273e-06
5.3273e-06
5.04882e-06
5.04882e-06
4.78429e-06
4.78429e-06
4.53306e-06
4.53306e-06
4.29448e-06
4.29448e-06
4.06793e-06
4.06793e-06
3.85282e-06
3.85282e-06
3.64861e-06
3.64861e-06
3.45475e-06
3.45475e-06
3.27075e-06
3.27075e-06
3.09611e-06
3.09611e-06
2.93037e-06
2.93037e-06
2.77311e-06
2.77311e-06
2.62389e-06
2.62389e-06
2.48232e-06
2.48232e-06
2.34801e-06
2.34801e-06
2.22062e-06
2.22062e-06
2.09979e-06
2.09979e-06
1.9852e-06
1.9852e-06
1.87653e-06
1.87653e-06
1.7735e-06
1.7735e-06
1.67581e-06
1.67581e-06
1.5832e-06
1.5832e-06
1.49541e-06
1.49541e-06
1.41221e-06
1.41221e-06
1.33336e-06
1.33336e-06
1.25863e-06
1.25863e-06
1.18784e-06
1.18784e-06
1.12076e-06
1.12076e-06
1.05723e-06
1.05723e-06
9.97047e-07
9.97047e-07
9.40057e-07
9.40057e-07
8.86093e-07
8.86093e-07
8.35002e-07
8.35002e-07
7.86639e-07
7.86639e-07
7.40864e-07
7.40864e-07
6.97547e-07
6.97547e-07
6.56561e-07
6.56561e-07
6.17789e-07
6.17789e-07
5.81118e-07
5.81118e-07
5.4644e-07
5.4644e-07
5.13653e-07
5.13653e-07
4.82662e-07
4.82662e-07
4.53374e-07
4.53374e-07
4.25701e-07
4.25701e-07
3.99562e-07
3.99562e-07
3.74877e-07
3.74877e-07
3.51571e-07
3.51571e-07
3.29574e-07
3.29574e-07
3.08817e-07
3.08817e-07
2.89238e-07
2.89238e-07
2.70774e-07
2.70774e-07
2.53367e-07
2.53367e-07
2.36964e-07
2.36964e-07
2.21511e-07
2.21511e-07
2.06958e-07
2.06958e-07
1.93259e-07
1.93259e-07
1.80368e-07
1.80368e-07
1.68243e-07
1.68243e-07
1.56843e-07
1.56843e-07
1.46129e-07
1.46129e-07
1.36066e-07
1.36066e-07
1.26617e-07
1.26617e-07
1.17749e-07
1.17749e-07
1.09432e-07
1.09432e-07
1.01635e-07
1.01635e-07
9.4329e-08
9.4329e-08
8.74877e-08
8.74877e-08
8.1085e-08
8.1085e-08
7.50964e-08
7.50964e-08
6.94986e-08
6.94986e-08
6.42693e-08
6.42693e-08
5.93876e-08
5.93876e-08
5.48334e-08
5.48334e-08
5.05877e-08
5.05877e-08
4.66324e-08
4.66324e-08
4.29504e-08
4.29504e-08
3.95253e-08
3.95253e-08
3.63417e-08
3.63417e-08
3.33849e-08
3.33849e-08
3.0641e-08
3.0641e-08
2.80967e-08
2.80967e-08
2.57396e-08
2.57396e-08
2.35577e-08
2.35577e-08
2.15399e-08
2.15399e-08
1.96754e-08
1.96754e-08
1.79543e-08
1.79543e-08
1.6367e-08
1.6367e-08
1.49046e-08
1.49046e-08
1.35584e-08
1.35584e-08
1.23206e-08
1.23206e-08
1.11836e-08
1.11836e-08
1.01402e-08
1.01402e-08
9.18374e-09
9.18374e-09
8.30797e-09
8.30797e-09
7.50693e-09
7.50693e-09
6.77507e-09
6.77507e-09
6.10717e-09
6.10717e-09
5.49834e-09
5.49834e-09
4.94402e-09
4.94402e-09
4.43992e-09
4.43992e-09
3.98206e-09
3.98206e-09
3.5667e-09
3.5667e-09
3.19037e-09
3.19037e-09
2.84983e-09
2.84983e-09
2.54209e-09
2.54209e-09
2.26435e-09
2.26435e-09
2.01402e-09
2.01402e-09
1.78871e-09
1.78871e-09
1.58619e-09
1.58619e-09
1.40442e-09
1.40442e-09
1.24151e-09
1.24151e-09
1.09571e-09
1.09571e-09
9.6542e-10
9.6542e-10
8.49172e-10
8.49172e-10
7.45613e-10
7.45613e-10
6.53505e-10
6.53505e-10
5.71715e-10
5.71715e-10
4.99208e-10
4.99208e-10
4.35042e-10
4.35042e-10
3.78356e-10
3.78356e-10
3.28369e-10
3.28369e-10
2.84371e-10
2.84371e-10
2.45718e-10
2.45718e-10
2.11828e-10
2.11828e-10
1.82174e-10
1.82174e-10
1.56282e-10
1.56282e-10
1.33722e-10
1.33722e-10
1.14111e-10
1.14111e-10
9.71022e-11
9.71022e-11
8.23868e-11
8.23868e-11
6.96875e-11
6.96875e-11
5.87568e-11
5.87568e-11
4.93745e-11
4.93745e-11
4.13441e-11