/*--------------------------------*- C++ -*----------------------------------*\
| =========                 |                                                 |
| \\      /  F ield         | OpenFOAM: The Open Source CFD Toolbox           |
|  \\    /   O peration     | Version:  2012                                  |
|   \\  /    A nd           | Website:  www.openfoam.com                      |
|    \\/     M anipulation  |                                                 |
\*---------------------------------------------------------------------------*/
FoamFile
{
    version     2.0;
    format      ascii;
    class       volScalarField;
    location    "18000";
    object      omega;
}
// * * * * * * * * * * * * * * * * * * * * * * * * * * * * * * * * * * * * * //

dimensions      [0 0 -1 0 0 0 0];


internalField   nonuniform List<scalar> 
2560
(
1.52416e+06
1.52416e+06
264636
264638
88263.1
88265.7
40789.7
40791.3
23841.2
23841.8
16506.4
16506.5
12679.5
12679.4
10374.1
10374
8839.35
8839.2
7743.79
7743.63
6921.33
6921.17
6280.22
6280.07
5765.78
5765.63
5343.42
5343.28
4990.21
4990.07
4690.29
4690.16
4432.41
4432.29
4208.3
4208.18
4011.76
4011.65
3838.07
3837.96
3683.53
3683.43
3545.23
3545.13
3420.82
3420.72
3308.4
3308.31
3206.43
3206.34
3113.61
3113.52
3028.87
3028.78
2951.31
2951.22
2880.16
2880.07
2814.77
2814.69
2754.58
2754.5
2699.11
2699.03
2647.94
2647.86
2600.71
2600.63
2557.08
2557
2516.77
2516.7
2479.53
2479.46
2445.13
2445.05
2413.36
2413.28
2384.04
2383.97
2357.03
2356.95
2332.17
2332.09
2309.34
2309.27
2288.43
2288.36
2269.32
2269.25
2251.89
2251.82
2236.03
2235.95
2221.59
2221.51
2208.45
2208.37
2196.45
2196.37
2185.44
2185.37
2175.27
2175.19
2165.78
2165.7
2156.82
2156.74
2148.3
2148.22
2140.24
2140.16
2132.76
2132.68
2126.16
2126.08
2120.82
2120.73
2117.04
2116.95
2114.83
2114.73
2113.48
2113.38
2111.8
2111.7
2108.19
2108.08
2100.99
2100.9
2088.96
2088.87
2071.48
2071.39
2048.65
2048.57
2021.18
2021.12
1990.14
1990.08
1956.7
1956.65
1921.96
1921.92
1886.86
1886.82
1852.06
1852.02
1818.01
1817.98
1784.98
1784.95
1753.03
1753
1722.12
1722.09
1692.12
1692.09
1662.86
1662.83
1634.16
1634.14
1605.84
1605.82
1577.73
1577.72
1549.7
1549.69
1521.63
1521.62
1493.42
1493.42
1465.02
1465.02
1436.37
1436.38
1407.45
1407.46
1378.26
1378.27
1348.82
1348.83
1319.18
1319.19
1289.43
1289.45
1259.69
1259.7
1230.07
1230.09
1200.73
1200.75
1171.79
1171.81
1143.37
1143.38
1115.54
1115.56
1088.37
1088.38
1061.86
1061.87
1036.01
1036.02
1010.8
1010.81
986.186
986.2
962.156
962.17
938.693
938.706
915.792
915.805
893.464
893.477
871.724
871.736
850.587
850.599
830.065
830.076
810.156
810.167
790.839
790.85
772.074
772.085
753.804
753.814
735.958
735.968
718.459
718.469
701.236
701.246
684.236
684.246
667.429
667.439
650.819
650.828
634.437
634.447
618.341
618.35
602.595
602.604
587.263
587.272
572.391
572.399
558
558.007
544.083
544.09
530.605
530.611
517.518
517.524
504.773
504.779
492.325
492.331
480.145
480.151
468.217
468.223
456.539
456.544
445.117
445.122
433.963
433.969
423.091
423.096
412.509
412.514
402.224
402.228
392.238
392.242
382.547
382.552
373.145
373.15
364.021
364.025
355.16
355.164
346.547
346.551
338.166
338.169
330
330.004
322.039
322.042
314.273
314.276
306.698
306.701
299.315
299.318
292.129
292.132
285.147
285.149
278.378
278.38
271.832
271.834
265.519
265.521
259.448
259.449
253.625
253.626
248.054
248.055
242.738
242.738
237.676
237.676
232.866
232.866
228.302
228.301
223.973
223.972
219.867
219.865
215.965
215.963
212.244
212.241
208.674
208.671
205.222
205.218
201.848
201.844
198.514
198.509
195.18
195.174
191.81
191.804
188.378
188.372
184.869
184.864
181.283
181.278
177.635
177.632
173.959
173.957
170.298
170.297
166.7
166.7
163.218
163.218
159.894
159.894
156.757
156.757
153.82
153.819
151.073
151.073
148.489
148.489
146.029
146.029
143.645
143.646
141.291
141.294
138.928
138.931
136.522
136.526
134.052
134.056
131.508
131.512
128.891
128.896
126.211
126.215
123.481
123.485
120.72
120.723
117.948
117.951
115.185
115.188
112.45
112.453
109.762
109.764
107.136
107.138
104.586
104.588
102.123
102.125
99.7571
99.7585
97.4954
97.4966
95.3437
95.3448
93.3061
93.307
91.3849
91.3856
89.5801
89.5807
87.89
87.8905
86.3098
86.3102
84.8317
84.832
83.4445
83.4447
82.1331
82.1332
80.8788
80.8788
79.6594
79.6593
78.4506
78.4505
77.2274
77.2272
75.9655
75.9652
74.6439
74.6436
73.2471
73.2467
71.7668
71.7665
70.2038
70.2035
68.5681
68.5679
66.8784
66.8782
65.16
65.16
63.4419
63.442
61.7519
61.7521
60.1113
60.1116
58.5344
58.5346
57.0213
57.0215
55.564
55.5642
54.1485
54.1488
52.7584
52.7588
51.3798
51.3802
50.0043
50.0047
48.6304
48.6308
47.2626
47.263
45.9093
45.9097
44.5808
44.5811
43.2863
43.2866
42.0328
42.033
40.8239
40.8241
39.6607
39.6609
38.5426
38.5428
37.4677
37.4678
36.4343
36.4345
35.4416
35.4417
34.4889
34.489
33.5762
33.5763
32.7034
32.7035
31.8699
31.8699
31.0744
31.0744
30.315
30.315
29.5894
29.5894
28.8949
28.895
28.2292
28.2292
27.5899
27.5899
26.9754
26.9755
26.3845
26.3845
25.8164
25.8164
25.2709
25.271
24.7481
24.7482
24.2483
24.2483
23.7717
23.7717
23.3184
23.3184
22.8885
22.8885
22.4814
22.4815
22.0968
22.0968
21.7337
21.7337
21.3914
21.3914
21.0689
21.0689
20.7655
20.7655
20.4804
20.4804
20.213
20.213
19.9626
19.9626
19.7288
19.7289
19.511
19.511
19.3087
19.3087
19.1212
19.1212
18.9481
18.9481
18.7888
18.7888
18.6428
18.6428
18.5097
18.5097
18.3891
18.3891
18.2805
18.2805
18.1839
18.1839
18.099
18.099
18.026
18.026
17.9647
17.9647
17.9153
17.9153
17.8777
17.8777
17.8519
17.8519
17.8375
17.8375
17.8345
17.8345
17.8426
17.8426
17.8616
17.8616
17.8915
17.8915
17.9322
17.9322
17.9839
17.9839
18.0468
18.0468
18.121
18.121
18.207
18.207
18.3051
18.3051
18.4156
18.4156
18.5389
18.5389
18.6755
18.6755
18.8255
18.8255
18.9895
18.9895
19.1679
19.1679
19.3609
19.3609
19.5689
19.5689
19.7918
19.7918
20.0291
20.0291
20.2781
20.2781
20.5291
20.5291
20.7483
20.7483
20.7281
20.7281
1.52416e+06
1.52416e+06
264637
264636
88264.4
88263.3
40790.4
40789.8
23841.4
23841.3
16506.4
16506.4
12679.4
12679.5
10374
10374.1
8839.23
8839.36
7743.67
7743.8
6921.22
6921.34
6280.11
6280.23
5765.68
5765.79
5343.33
5343.43
4990.11
4990.21
4690.21
4690.3
4432.33
4432.42
4208.22
4208.3
4011.69
4011.77
3838
3838.08
3683.47
3683.54
3545.16
3545.23
3420.76
3420.82
3308.34
3308.41
3206.37
3206.43
3113.55
3113.61
3028.82
3028.87
2951.25
2951.31
2880.11
2880.16
2814.72
2814.77
2754.53
2754.58
2699.06
2699.11
2647.89
2647.95
2600.66
2600.71
2557.03
2557.08
2516.73
2516.78
2479.49
2479.54
2445.08
2445.13
2413.31
2413.36
2384
2384.05
2356.98
2357.03
2332.12
2332.17
2309.3
2309.35
2288.39
2288.44
2269.28
2269.33
2251.85
2251.9
2235.98
2236.03
2221.54
2221.59
2208.4
2208.45
2196.4
2196.45
2185.4
2185.45
2175.22
2175.28
2165.73
2165.78
2156.77
2156.82
2148.26
2148.31
2140.19
2140.24
2132.71
2132.77
2126.11
2126.17
2120.76
2120.82
2116.98
2117.04
2114.76
2114.83
2113.41
2113.48
2111.74
2111.8
2108.12
2108.19
2100.93
2101
2088.9
2088.96
2071.42
2071.48
2048.6
2048.65
2021.14
2021.19
1990.1
1990.14
1956.67
1956.7
1921.94
1921.97
1886.83
1886.86
1852.04
1852.06
1817.99
1818.02
1784.96
1784.99
1753.01
1753.04
1722.1
1722.12
1692.1
1692.12
1662.85
1662.87
1634.15
1634.17
1605.83
1605.85
1577.73
1577.74
1549.7
1549.71
1521.63
1521.63
1493.43
1493.43
1465.03
1465.03
1436.38
1436.38
1407.46
1407.46
1378.27
1378.27
1348.83
1348.82
1319.19
1319.18
1289.45
1289.44
1259.7
1259.69
1230.09
1230.08
1200.75
1200.74
1171.81
1171.8
1143.38
1143.37
1115.56
1115.55
1088.38
1088.37
1061.87
1061.86
1036.02
1036.02
1010.81
1010.8
986.2
986.191
962.17
962.162
938.706
938.698
915.805
915.797
893.477
893.469
871.736
871.728
850.598
850.591
830.076
830.069
810.168
810.161
790.85
790.844
772.085
772.079
753.815
753.809
735.968
735.962
718.469
718.463
701.246
701.241
684.246
684.24
667.439
667.433
650.828
650.823
634.446
634.441
618.349
618.344
602.603
602.598
587.271
587.267
572.399
572.395
558.007
558.003
544.09
544.086
530.611
530.608
517.524
517.521
504.779
504.775
492.331
492.328
480.151
480.148
468.223
468.22
456.544
456.541
445.122
445.119
433.968
433.965
423.095
423.093
412.513
412.51
402.228
402.225
392.241
392.239
382.551
382.549
373.149
373.147
364.025
364.022
355.164
355.162
346.55
346.549
338.169
338.167
330.003
330.001
322.041
322.04
314.275
314.273
306.7
306.699
299.317
299.316
292.131
292.13
285.148
285.147
278.379
278.378
271.833
271.832
265.52
265.52
259.449
259.448
253.625
253.625
248.054
248.054
242.738
242.738
237.676
237.676
232.866
232.866
228.301
228.302
223.972
223.973
219.866
219.867
215.964
215.965
212.242
212.244
208.672
208.674
205.219
205.221
201.845
201.848
198.511
198.514
195.176
195.179
191.806
191.809
188.374
188.377
184.865
184.868
181.279
181.282
177.632
177.635
173.957
173.959
170.297
170.297
166.7
166.7
163.218
163.218
159.894
159.894
156.757
156.757
153.819
153.82
151.073
151.073
148.489
148.489
146.029
146.029
143.646
143.645
141.293
141.291
138.93
138.928
136.525
136.522
134.055
134.052
131.511
131.508
128.895
128.892
126.214
126.211
123.484
123.481
120.722
120.72
117.95
117.948
115.187
115.185
112.452
112.45
109.763
109.762
107.137
107.136
104.587
104.586
102.124
102.123
99.7576
99.7568
97.4957
97.495
95.3439
95.3433
93.3062
93.3057
91.3847
91.3843
89.5798
89.5795
87.8895
87.8893
86.3092
86.309
84.831
84.8309
83.4437
83.4436
82.1322
82.1322
80.8777
80.8778
79.6582
79.6584
78.4494
78.4497
77.2262
77.2264
75.9643
75.9646
74.6427
74.6431
73.246
73.2464
71.7659
71.7663
70.2031
70.2034
68.5675
68.5678
66.878
66.8782
65.1598
65.1599
63.4419
63.4419
61.7519
61.7518
60.1114
60.1112
58.5343
58.5341
57.0211
57.0209
55.5638
55.5636
54.1483
54.1481
52.7583
52.758
51.3798
51.3794
50.0044
50.004
48.6307
48.6303
47.2629
47.2625
45.9097
45.9093
44.5812
44.5809
43.2867
43.2864
42.0331
42.0328
40.8241
40.8239
39.6609
39.6607
38.5428
38.5426
37.4678
37.4676
36.4344
36.4343
35.4416
35.4415
34.4889
34.4888
33.5762
33.5761
32.7034
32.7033
31.8698
31.8697
31.0743
31.0742
30.3149
30.3148
29.5892
29.5891
28.8948
28.8947
28.229
28.229
27.5898
27.5898
26.9754
26.9753
26.3845
26.3844
25.8165
25.8164
25.271
25.271
24.7483
24.7482
24.2484
24.2484
23.7718
23.7718
23.3185
23.3185
22.8886
22.8885
22.4815
22.4815
22.0969
22.0968
21.7338
21.7338
21.3914
21.3914
21.0689
21.0689
20.7655
20.7655
20.4804
20.4804
20.213
20.213
19.9627
19.9626
19.7289
19.7288
19.511
19.511
19.3087
19.3086
19.1212
19.1212
18.9481
18.9481
18.7888
18.7888
18.6428
18.6428
18.5097
18.5097
18.3891
18.3891
18.2805
18.2805
18.1839
18.1839
18.099
18.099
18.026
18.026
17.9647
17.9647
17.9153
17.9153
17.8777
17.8777
17.8519
17.8519
17.8375
17.8375
17.8345
17.8345
17.8426
17.8426
17.8616
17.8616
17.8915
17.8915
17.9322
17.9322
17.9839
17.9839
18.0468
18.0468
18.121
18.121
18.207
18.207
18.3051
18.3051
18.4156
18.4156
18.5389
18.5389
18.6754
18.6754
18.8255
18.8255
18.9895
18.9895
19.1678
19.1678
19.3608
19.3608
19.5687
19.5687
19.7916
19.7916
20.0289
20.0289
20.2778
20.2778
20.5287
20.5288
20.7479
20.7479
20.7278
20.7278
20.7282
20.7282
20.7485
20.7485
20.5294
20.5294
20.2784
20.2784
20.0294
20.0294
19.7921
19.7921
19.5691
19.5691
19.3612
19.3612
19.1681
19.1681
18.9898
18.9898
18.8257
18.8257
18.6756
18.6756
18.5391
18.5391
18.4158
18.4158
18.3052
18.3052
18.2072
18.2072
18.1212
18.1212
18.0469
18.0469
17.9841
17.9841
17.9323
17.9323
17.8916
17.8916
17.8617
17.8617
17.8427
17.8427
17.8346
17.8346
17.8376
17.8376
17.8519
17.8519
17.8778
17.8778
17.9153
17.9153
17.9647
17.9647
18.0259
18.0259
18.099
18.099
18.1838
18.1838
18.2804
18.2804
18.3889
18.3889
18.5095
18.5095
18.6426
18.6426
18.7884
18.7884
18.9476
18.9476
19.1207
19.1207
19.3081
19.3081
19.5104
19.5104
19.7282
19.7282
19.9619
19.9619
20.2122
20.2122
20.4795
20.4795
20.7645
20.7645
21.0678
21.0678
21.3902
21.3902
21.7325
21.7325
22.0955
22.0955
22.48
22.48
22.8869
22.8869
23.3168
23.3168
23.77
23.7699
24.2465
24.2464
24.7462
24.7461
25.2688
25.2688
25.8142
25.8141
26.3821
26.3821
26.9729
26.9728
27.5871
27.5871
28.2262
28.2261
28.8918
28.8917
29.5861
29.586
30.3116
30.3115
31.0709
31.0708
31.8663
31.8662
32.6997
32.6996
33.5724
33.5723
34.4849
34.4847
35.4374
35.4372
36.43
36.4298
37.4632
37.463
38.538
38.5378
39.656
39.6558
40.8191
40.8189
42.0279
42.0277
43.2815
43.2812
44.576
44.5756
45.9046
45.9042
47.2581
47.2577
48.6263
48.6259
50.0006
50.0001
51.3763
51.3759
52.7552
52.7548
54.1455
54.1451
55.5611
55.5608
57.0184
57.0182
58.5316
58.5313
60.1087
60.1084
61.7493
61.749
63.4394
63.4392
65.1576
65.1575
66.8762
66.8763
68.5663
68.5666
70.2022
70.2025
71.7651
71.7654
73.2451
73.2455
74.6417
74.642
75.963
75.9633
77.2248
77.225
78.4481
78.4482
79.6568
79.6569
80.8762
80.8762
82.1304
82.1303
83.4416
83.4414
84.8286
84.8283
86.3064
86.306
87.8864
87.8858
89.5763
89.5756
91.3808
91.38
93.3018
93.3009
95.3392
95.3381
97.4906
97.4893
99.7521
99.7506
102.118
102.116
104.581
104.579
107.131
107.128
109.756
109.754
112.444
112.442
115.179
115.176
117.942
117.938
120.714
120.71
123.475
123.471
126.205
126.2
128.885
128.88
131.502
131.497
134.045
134.04
136.514
136.509
138.919
138.915
141.28
141.277
143.632
143.63
146.014
146.013
148.474
148.474
151.057
151.057
153.803
153.803
156.741
156.741
159.877
159.877
163.2
163.2
166.682
166.682
170.278
170.279
173.938
173.94
177.612
177.616
181.258
181.263
184.843
184.849
188.352
188.358
191.783
191.789
195.152
195.158
198.486
198.491
201.82
201.825
205.193
205.197
208.645
208.648
212.214
212.217
215.935
215.937
219.836
219.838
223.942
223.943
228.269
228.27
232.833
232.833
237.642
237.642
242.703
242.702
248.018
248.017
253.588
253.586
259.41
259.408
265.48
265.478
271.792
271.789
278.336
278.333
285.104
285.101
292.085
292.081
299.269
299.266
306.65
306.647
314.223
314.219
321.987
321.983
329.946
329.942
338.109
338.105
346.489
346.485
355.1
355.095
363.959
363.954
373.081
373.076
382.481
382.476
392.169
392.164
402.154
402.148
412.437
412.431
423.017
423.011
433.887
433.881
445.038
445.032
456.457
456.45
468.132
468.125
480.056
480.049
492.233
492.225
504.676
504.669
517.418
517.41
530.502
530.494
543.977
543.969
557.89
557.882
572.279
572.269
587.147
587.138
602.476
602.465
618.218
618.208
634.312
634.301
650.69
650.679
667.297
667.285
684.1
684.088
701.096
701.085
718.315
718.303
735.811
735.798
753.653
753.641
771.919
771.906
790.679
790.666
809.992
809.978
829.895
829.881
850.412
850.397
871.544
871.529
893.28
893.264
915.603
915.587
938.499
938.482
961.957
961.94
985.981
985.964
1010.59
1010.57
1035.8
1035.78
1061.64
1061.62
1088.14
1088.12
1115.31
1115.29
1143.13
1143.11
1171.55
1171.53
1200.48
1200.46
1229.82
1229.8
1259.43
1259.41
1289.17
1289.15
1318.91
1318.89
1348.55
1348.53
1377.99
1377.97
1407.17
1407.16
1436.08
1436.07
1464.72
1464.71
1493.11
1493.11
1521.3
1521.3
1549.35
1549.37
1577.37
1577.39
1605.47
1605.49
1633.77
1633.8
1662.46
1662.48
1691.7
1691.73
1721.68
1721.71
1752.59
1752.62
1784.53
1784.56
1817.55
1817.58
1851.58
1851.61
1886.37
1886.4
1921.46
1921.5
1956.18
1956.23
1989.61
1989.66
2020.64
2020.71
2048.11
2048.18
2070.93
2071.02
2088.41
2088.51
2100.44
2100.54
2107.62
2107.73
2111.23
2111.34
2112.91
2113.01
2114.26
2114.36
2116.48
2116.58
2120.26
2120.35
2125.6
2125.7
2132.2
2132.29
2139.68
2139.77
2147.75
2147.84
2156.27
2156.36
2165.24
2165.32
2174.74
2174.82
2184.92
2185
2195.92
2196
2207.92
2208
2221.07
2221.15
2235.5
2235.58
2251.37
2251.45
2268.8
2268.88
2287.9
2287.98
2308.81
2308.89
2331.63
2331.71
2356.49
2356.57
2383.5
2383.58
2412.81
2412.88
2444.57
2444.65
2478.96
2479.04
2516.2
2516.28
2556.49
2556.57
2600.11
2600.19
2647.33
2647.41
2698.48
2698.57
2753.94
2754.02
2814.11
2814.2
2879.48
2879.57
2950.62
2950.71
3028.16
3028.25
3112.88
3112.97
3205.68
3205.77
3307.63
3307.72
3420.01
3420.12
3544.4
3544.5
3682.67
3682.78
3837.17
3837.28
4010.82
4010.94
4207.31
4207.44
4431.38
4431.51
4689.21
4689.35
4989.06
4989.21
5342.21
5342.37
5764.5
5764.66
6278.86
6279.03
6919.88
6920.05
7742.24
7742.42
8837.7
8837.87
10372.4
10372.5
12677.7
12677.8
16504.9
16504.7
23840.6
23839.9
40791.2
40789.5
88266.9
88264.1
264639
264636
1.52417e+06
1.52417e+06
20.7279
20.7279
20.7481
20.7481
20.5291
20.5291
20.2781
20.2781
20.0292
20.0292
19.7919
19.7919
19.569
19.569
19.3611
19.3611
19.1681
19.1681
18.9897
18.9897
18.8257
18.8257
18.6756
18.6756
18.5391
18.5391
18.4158
18.4158
18.3052
18.3052
18.2072
18.2072
18.1212
18.1212
18.0469
18.0469
17.9841
17.9841
17.9323
17.9323
17.8916
17.8916
17.8617
17.8617
17.8427
17.8427
17.8346
17.8346
17.8376
17.8376
17.8519
17.8519
17.8778
17.8778
17.9153
17.9153
17.9647
17.9647
18.026
18.0259
18.099
18.099
18.1838
18.1838
18.2804
18.2804
18.3889
18.3889
18.5095
18.5095
18.6426
18.6426
18.7884
18.7884
18.9476
18.9476
19.1207
19.1207
19.3081
19.3081
19.5104
19.5104
19.7282
19.7282
19.9619
19.9619
20.2122
20.2122
20.4795
20.4795
20.7645
20.7645
21.0679
21.0679
21.3903
21.3903
21.7326
21.7326
22.0956
22.0955
22.4801
22.4801
22.8871
22.887
23.3169
23.3169
23.7701
23.7701
24.2466
24.2466
24.7463
24.7463
25.2689
25.2689
25.8142
25.8142
26.3822
26.3821
26.9729
26.9728
27.5871
27.5871
28.2261
28.2261
28.8916
28.8916
29.586
29.5859
30.3115
30.3115
31.0708
31.0708
31.8662
31.8662
32.6997
32.6997
33.5724
33.5724
34.4849
34.485
35.4375
35.4375
36.4301
36.4301
37.4633
37.4634
38.5382
38.5382
39.6563
39.6563
40.8194
40.8195
42.0283
42.0284
43.2818
43.282
44.5763
44.5765
45.905
45.9051
47.2584
47.2586
48.6265
48.6267
50.0007
50.0009
51.3763
51.3765
52.7552
52.7553
54.1455
54.1456
55.5612
55.5613
57.0186
57.0188
58.532
58.5321
60.1092
60.1093
61.7499
61.75
63.4401
63.4402
65.1584
65.1584
66.8771
66.877
68.5671
68.567
70.2028
70.2027
71.7655
71.7653
73.2452
73.2451
74.6415
74.6414
75.9626
75.9624
77.2242
77.2241
78.4473
78.4472
79.6558
79.6558
80.8751
80.8752
82.1293
82.1294
83.4404
83.4406
84.8274
84.8277
86.3052
86.3056
87.8852
87.8856
89.575
89.5756
91.3796
91.3803
93.3006
93.3014
95.3379
95.3389
97.4892
97.4904
99.7506
99.7519
102.116
102.118
104.579
104.581
107.128
107.131
109.754
109.756
112.442
112.444
115.176
115.179
117.938
117.942
120.71
120.714
123.471
123.475
126.2
126.204
128.88
128.885
131.496
131.501
134.04
134.044
136.509
136.513
138.914
138.918
141.277
141.279
143.629
143.631
146.013
146.014
148.473
148.473
151.056
151.056
153.803
153.803
156.74
156.74
159.876
159.877
163.2
163.2
166.682
166.682
170.279
170.278
173.94
173.938
177.615
177.612
181.262
181.258
184.849
184.843
188.357
188.352
191.789
191.783
195.157
195.152
198.491
198.486
201.824
201.819
205.196
205.192
208.648
208.644
212.216
212.214
215.937
215.934
219.837
219.836
223.942
223.941
228.27
228.269
232.833
232.833
237.642
237.642
242.702
242.703
248.017
248.018
253.586
253.587
259.408
259.41
265.478
265.48
271.789
271.791
278.333
278.336
285.1
285.103
292.081
292.084
299.266
299.269
306.646
306.65
314.219
314.222
321.983
321.986
329.942
329.946
338.105
338.109
346.484
346.489
355.095
355.1
363.954
363.958
373.076
373.081
382.476
382.481
392.164
392.169
402.148
402.153
412.431
412.436
423.011
423.017
433.881
433.887
445.032
445.038
456.45
456.457
468.125
468.132
480.049
480.056
492.225
492.233
504.669
504.676
517.41
517.418
530.494
530.502
543.969
543.977
557.882
557.89
572.269
572.279
587.138
587.147
602.466
602.476
618.208
618.218
634.301
634.312
650.679
650.69
667.285
667.297
684.088
684.1
701.085
701.096
718.303
718.315
735.799
735.811
753.641
753.653
771.906
771.919
790.666
790.68
809.978
809.992
829.881
829.896
850.398
850.412
871.529
871.545
893.264
893.28
915.587
915.603
938.482
938.499
961.94
961.957
985.964
985.981
1010.57
1010.59
1035.78
1035.8
1061.62
1061.64
1088.12
1088.14
1115.29
1115.31
1143.11
1143.13
1171.53
1171.55
1200.46
1200.48
1229.8
1229.82
1259.41
1259.43
1289.15
1289.17
1318.89
1318.91
1348.53
1348.55
1377.97
1377.99
1407.16
1407.17
1436.07
1436.08
1464.71
1464.72
1493.11
1493.11
1521.3
1521.3
1549.37
1549.36
1577.39
1577.37
1605.49
1605.47
1633.8
1633.77
1662.48
1662.46
1691.73
1691.7
1721.72
1721.68
1752.62
1752.59
1784.56
1784.53
1817.58
1817.55
1851.61
1851.58
1886.4
1886.37
1921.5
1921.46
1956.23
1956.18
1989.66
1989.61
2020.71
2020.64
2048.18
2048.11
2071.02
2070.93
2088.51
2088.41
2100.54
2100.44
2107.73
2107.62
2111.34
2111.23
2113.01
2112.91
2114.36
2114.26
2116.58
2116.48
2120.35
2120.26
2125.7
2125.6
2132.29
2132.2
2139.77
2139.68
2147.84
2147.75
2156.36
2156.27
2165.32
2165.24
2174.82
2174.74
2185
2184.92
2196.01
2195.92
2208
2207.92
2221.15
2221.07
2235.58
2235.5
2251.45
2251.37
2268.88
2268.8
2287.99
2287.91
2308.89
2308.81
2331.71
2331.64
2356.57
2356.49
2383.58
2383.5
2412.89
2412.81
2444.65
2444.57
2479.04
2478.96
2516.28
2516.2
2556.57
2556.49
2600.19
2600.11
2647.41
2647.33
2698.57
2698.48
2754.02
2753.94
2814.2
2814.11
2879.57
2879.49
2950.71
2950.62
3028.25
3028.16
3112.97
3112.88
3205.77
3205.68
3307.73
3307.63
3420.12
3420.01
3544.5
3544.4
3682.78
3682.67
3837.29
3837.17
4010.94
4010.82
4207.44
4207.31
4431.51
4431.38
4689.35
4689.21
4989.21
4989.06
5342.37
5342.21
5764.66
5764.5
6279.03
6278.86
6920.05
6919.88
7742.42
7742.24
8837.87
8837.7
10372.5
10372.4
12677.8
12677.7
16504.7
16504.9
23839.9
23840.6
40789.5
40791.2
88264.1
88266.9
264636
264639
1.52417e+06
1.52417e+06
)
;

boundaryField
{
    walls
    {
        blending        binomial2;
        n               2;
        beta1           0.075;
        type            omegaWallFunction;
        value           nonuniform List<scalar> 8(1.52416e+06 1.52416e+06 1.52416e+06 1.52416e+06 1.52417e+06 1.52417e+06 1.52417e+06 1.52417e+06);
    }
    inlet
    {
        type            cyclic;
    }
    outlet
    {
        type            cyclic;
    }
    sides
    {
        type            empty;
    }
}


// ************************************************************************* //
