/*--------------------------------*- C++ -*----------------------------------*\
| =========                 |                                                 |
| \\      /  F ield         | OpenFOAM: The Open Source CFD Toolbox           |
|  \\    /   O peration     | Version:  2012                                  |
|   \\  /    A nd           | Website:  www.openfoam.com                      |
|    \\/     M anipulation  |                                                 |
\*---------------------------------------------------------------------------*/
FoamFile
{
    version     2.0;
    format      ascii;
    class       volSymmTensorField;
    location    "18000";
    object      turbulenceProperties:R;
}
// * * * * * * * * * * * * * * * * * * * * * * * * * * * * * * * * * * * * * //

dimensions      [0 2 -2 0 0 0 0];


internalField   nonuniform List<symmTensor> 
2560
(
(0.00378079 -1.16477e-06 -1.69024e-09 0.00378079 -3.45362e-09 0.00378079)
(0.00377856 -1.16301e-06 -1.6889e-09 0.00377856 5.60814e-13 0.00377856)
(0.107174 -0.000189216 -8.28766e-07 0.107174 4.05879e-12 0.107174)
(0.107115 -0.00018894 -8.28136e-07 0.107115 1.43348e-11 0.107115)
(0.74675 -0.00393553 -2.35728e-05 0.746752 4.26199e-06 0.74675)
(0.746375 -0.00393003 -2.35405e-05 0.746374 -1.35739e-09 0.746375)
(2.35025 -0.0266837 -0.000162152 2.35026 3.24345e-05 2.35025)
(2.3493 -0.0266505 -0.000161957 2.34929 -1.15923e-08 2.3493)
(4.4492 -0.0860411 -0.000530453 4.44921 6.41299e-05 4.4492)
(4.44783 -0.0859506 -0.000529918 4.44782 -2.44086e-08 4.44783)
(6.45265 -0.179357 -0.00112136 6.45266 6.45199e-05 6.45265)
(6.45105 -0.179198 -0.00112041 6.45104 -3.63249e-08 6.45105)
(8.24076 -0.296406 -0.00187877 8.24077 5.33139e-05 8.24076)
(8.23902 -0.296184 -0.00187745 8.239 -4.29115e-08 8.23902)
(9.84801 -0.429719 -0.00276137 9.84802 4.30871e-05 9.84801)
(9.84614 -0.429449 -0.00275976 9.84613 -5.16279e-08 9.84615)
(11.319 -0.574918 -0.00374798 11.3191 3.54777e-05 11.319)
(11.3171 -0.574619 -0.00374619 11.3171 -5.04923e-08 11.3171)
(12.6876 -0.730066 -0.00483205 12.6876 2.98933e-05 12.6876)
(12.6855 -0.729756 -0.0048302 12.6855 -6.71001e-08 12.6855)
(13.9776 -0.89391 -0.00600371 13.9776 2.56792e-05 13.9776)
(13.9755 -0.89361 -0.00600192 13.9755 -4.92133e-08 13.9755)
(15.2062 -1.06514 -0.00725953 15.2063 2.24282e-05 15.2062)
(15.204 -1.06486 -0.00725792 15.204 -8.74607e-08 15.204)
(16.3861 -1.2435 -0.0086035 16.3861 1.99396e-05 16.3861)
(16.3839 -1.24327 -0.00860216 16.3836 -1.48768e-06 16.3839)
(17.5267 -1.42815 -0.0100233 17.5268 1.77155e-05 17.5267)
(17.5244 -1.42797 -0.0100223 17.5244 -8.99391e-09 17.5244)
(18.6355 -1.61627 -0.0114977 18.6355 1.60738e-05 18.6355)
(18.6336 -1.61615 -0.0114972 18.6322 -9.03254e-07 18.6336)
(19.7184 -1.80455 -0.0130061 19.7184 1.204e-05 19.7184)
(19.7159 -1.8045 -0.0130061 19.7159 -3.94817e-08 19.7159)
(20.7802 -1.99041 -0.0145347 20.7802 2.02898e-05 20.7802)
(20.7776 -1.99044 -0.0145352 20.7776 1.69302e-06 20.7776)
(21.8248 -2.17496 -0.0161141 21.8248 6.24838e-06 21.8248)
(21.8221 -2.17505 -0.0161149 21.8221 -1.71962e-08 21.8221)
(22.8556 -2.36543 -0.0178194 22.8556 2.13926e-05 22.8556)
(22.8529 -2.36558 -0.0178207 22.8529 4.27252e-08 22.8529)
(23.8755 -2.57029 -0.0197027 23.8756 2.14911e-06 23.8755)
(23.8728 -2.57049 -0.0197044 23.8728 -7.79816e-09 23.8728)
(24.887 -2.79133 -0.0217473 24.887 2.30107e-05 24.887)
(24.8842 -2.79157 -0.0217491 24.8842 6.09918e-08 24.8842)
(25.8922 -3.02323 -0.0239023 25.8923 -2.00532e-06 25.8922)
(25.8893 -3.0235 -0.0239044 25.8893 1.13487e-09 25.8894)
(26.893 -3.2601 -0.0261393 26.893 2.61943e-05 26.893)
(26.8901 -3.26038 -0.0261415 26.8901 -3.17833e-06 26.8901)
(27.8911 -3.49987 -0.0284621 27.8912 -9.80661e-06 27.8911)
(27.8881 -3.50016 -0.0284644 27.8881 -6.47698e-08 27.8881)
(28.888 -3.74301 -0.0308788 28.888 3.59684e-05 28.888)
(28.8849 -3.7433 -0.0308811 28.8849 -1.65193e-06 28.8849)
(29.8852 -3.98924 -0.033381 29.8852 -2.42886e-05 29.8852)
(29.882 -3.98952 -0.0333832 29.882 -1.5165e-07 29.882)
(30.8839 -4.23633 -0.0359446 30.8839 5.03579e-05 30.8839)
(30.8806 -4.23659 -0.0359466 30.8806 4.64292e-06 30.8807)
(31.8854 -4.48089 -0.0385407 31.8855 -3.81143e-05 31.8854)
(31.8821 -4.48112 -0.0385425 31.8821 -1.02551e-07 31.8821)
(32.891 -4.7203 -0.0411555 32.8909 6.02892e-05 32.891)
(32.8876 -4.7205 -0.0411569 32.8876 -2.77881e-08 32.8876)
(33.9016 -4.95587 -0.043825 33.9017 -4.83933e-05 33.9016)
(33.8982 -4.95602 -0.0438261 33.8982 -3.10811e-08 33.8982)
(34.9186 -5.19622 -0.0466657 34.9186 7.04908e-05 34.9186)
(34.9151 -5.1963 -0.0466662 34.9151 2.10119e-07 34.9151)
(35.9429 -5.45786 -0.0498613 35.943 -5.96126e-05 35.9429)
(35.9393 -5.45787 -0.0498611 35.9393 3.32605e-08 35.9393)
(36.9756 -5.76027 -0.0535976 36.9755 8.20215e-05 36.9756)
(36.9719 -5.7602 -0.0535965 36.9719 2.71639e-07 36.9719)
(38.0174 -6.1178 -0.0579843 38.0176 -7.18031e-05 38.0174)
(38.0137 -6.11763 -0.0579823 38.0137 2.29022e-08 38.0137)
(39.0696 -6.5334 -0.0630127 39.0695 9.58613e-05 39.0696)
(39.0657 -6.53313 -0.0630097 39.0657 -7.56517e-06 39.0657)
(40.1323 -6.99749 -0.0685622 40.1326 -9.3086e-05 40.1323)
(40.1284 -6.99712 -0.0685583 40.1284 -1.58637e-07 40.1284)
(41.2068 -7.49141 -0.074443 41.2067 0.000123227 41.2068)
(41.2027 -7.49096 -0.0744382 41.2027 -2.58148e-05 41.2027)
(42.2931 -7.99341 -0.0804555 42.2934 -0.000152 42.2931)
(42.2891 -7.99287 -0.0804498 42.2891 -5.54703e-07 42.2891)
(43.3925 -8.4854 -0.0864593 43.3923 0.000213039 43.3925)
(43.3882 -8.48478 -0.0864527 43.3882 -1.14802e-05 43.3882)
(44.5049 -8.96066 -0.0924621 44.5052 -0.000259043 44.5049)
(44.5006 -8.95994 -0.0924543 44.5006 -7.60922e-07 44.5006)
(45.6317 -9.43227 -0.0987189 45.6315 0.000338914 45.6317)
(45.6272 -9.43142 -0.0987095 45.6272 9.51347e-06 45.6272)
(46.773 -9.93999 -0.105803 46.7734 -0.000382481 46.773)
(46.7686 -9.93897 -0.105791 46.7686 -6.64521e-07 46.7686)
(47.9303 -10.5502 -0.114572 47.93 0.00045989 47.9303)
(47.9255 -10.549 -0.114558 47.9255 2.25719e-05 47.9255)
(49.1032 -11.344 -0.12599 49.1036 -0.000486617 49.1032)
(49.0985 -11.3425 -0.125972 49.0985 -3.6631e-07 49.0985)
(50.2928 -12.3944 -0.140845 50.2924 0.000546354 50.2928)
(50.2878 -12.3925 -0.140823 50.2878 1.04479e-05 50.2878)
(51.4977 -13.7435 -0.159516 51.4982 -0.000565837 51.4977)
(51.4929 -13.7413 -0.15949 51.4929 -2.30291e-07 51.4929)
(52.7181 -15.3916 -0.18193 52.7176 0.000618568 52.7181)
(52.7128 -15.3891 -0.181901 52.7128 -5.98463e-06 52.7128)
(53.9508 -17.3028 -0.207666 53.9513 -0.000646267 53.9508)
(53.9457 -17.3001 -0.207634 53.9457 -3.29398e-07 53.9457)
(55.1943 -19.4247 -0.236239 55.1938 0.000708548 55.1943)
(55.1888 -19.4219 -0.236207 55.1888 -0.000117626 55.1888)
(56.4437 -21.7072 -0.267221 56.4443 -0.000858315 56.4437)
(56.4385 -21.7045 -0.26719 56.4385 -2.07704e-06 56.4385)
(57.696 -24.094 -0.299914 57.6954 0.0010513 57.696)
(57.6903 -24.0915 -0.299887 57.6903 1.68512e-05 57.6903)
(58.9445 -26.4817 -0.332682 58.945 -0.0011993 58.9445)
(58.939 -26.4798 -0.332663 58.939 -4.00445e-06 58.939)
(60.185 -28.6594 -0.362055 60.1844 0.00136647 60.1849)
(60.1789 -28.6584 -0.36205 60.1789 8.96907e-05 60.179)
(61.4108 -30.246 -0.381899 61.4113 -0.00145373 61.4108)
(61.405 -30.2463 -0.381914 61.405 -8.1823e-06 61.405)
(62.6203 -30.6537 -0.383008 62.6199 0.00150334 62.6203)
(62.6141 -30.656 -0.383051 62.6141 -3.72805e-05 62.6141)
(63.814 -29.1186 -0.353903 63.8146 -0.00164066 63.814)
(63.8079 -29.1234 -0.353982 63.8079 -1.51217e-05 63.8079)
(65.0026 -24.8228 -0.282829 65.0026 0.0016553 65.0026)
(64.9961 -24.8307 -0.282952 64.9961 -4.96252e-05 64.9961)
(66.2035 -17.0968 -0.160941 66.2041 -0.00187586 66.2035)
(66.197 -17.1081 -0.161115 66.197 -1.63186e-05 66.197)
(67.4413 -0.011186 -7.48114e-05 67.4415 0.00185079 67.4413)
(67.4343 -2.00707e-31 -1.47481e-21 67.4343 -2.7966e-05 67.4343)
(68.7363 2.12087 -0.0143905 68.7365 -0.00214675 68.7363)
(68.729 2.08674 -0.0141589 68.729 -4.94554e-06 68.7291)
(70.09 26.3513 -0.240444 70.0902 0.00210766 70.09)
(70.0824 26.3291 -0.240159 70.0824 2.77658e-05 70.0824)
(71.4607 44.342 -0.496765 71.4603 -0.00241234 71.4607)
(71.4527 44.3172 -0.496432 71.4527 1.42978e-05 71.4527)
(72.7712 61.1862 -0.757991 72.7715 0.00240329 72.7712)
(72.7632 61.1599 -0.757624 72.7632 7.73767e-05 72.7633)
(73.9167 74.9861 -0.994824 73.9158 -0.00262687 73.9167)
(73.9084 74.9598 -0.994441 73.9084 2.68532e-05 73.9084)
(74.7849 84.2836 -1.18023 74.7854 0.00268014 74.7849)
(74.7772 84.2591 -1.17986 74.7772 6.68878e-05 74.7772)
(75.2899 88.3406 -1.29527 75.289 -0.00276221 75.2899)
(75.2822 88.3197 -1.29493 75.2822 -7.51711e-05 75.2822)
(75.3862 87.2215 -1.33232 75.3872 0.0028242 75.3862)
(75.3796 87.2061 -1.33205 75.3796 -1.93478e-05 75.3796)
(75.083 81.6726 -1.29542 75.0822 -0.00280251 75.083)
(75.0765 81.6643 -1.29524 75.0765 -3.98133e-05 75.0765)
(74.4275 72.8495 -0.957312 74.4287 0.00287231 74.4275)
(74.4224 72.8495 -0.957506 74.4224 -8.15218e-06 74.4224)
(73.4985 62.014 -0.432076 73.4978 -0.00279232 73.4985)
(73.4935 62.023 -0.43228 73.4935 -0.00020824 73.4935)
(72.3786 50.2976 0.0116128 72.3796 0.0028715 72.3786)
(72.3746 50.3157 0.011417 72.3746 -9.78879e-06 72.3746)
(71.1496 38.5713 0.367012 71.1489 -0.00279179 71.1496)
(71.1456 38.5954 0.36684 71.1456 0.000236185 71.1456)
(69.8755 27.4172 0.363378 69.8763 0.00285857 69.8755)
(69.8723 27.4434 0.363813 69.8723 5.09443e-06 69.8723)
(68.6072 17.1727 0.20585 68.6065 -0.00280579 68.6072)
(68.6037 17.1985 0.206273 68.6037 1.6266e-05 68.6037)
(67.3747 7.43967 0.0626844 67.3754 0.0028551 67.3747)
(67.3718 7.48721 0.063085 67.3718 5.06281e-06 67.3718)
(66.1978 -6.45961e-20 1.97632e-16 66.1972 -0.00282595 66.1978)
(66.1945 -0.0155382 0.000132824 66.1945 1.60954e-05 66.1945)
(65.0796 -6.94702 0.065065 65.0802 0.00286761 65.0796)
(65.0747 -6.92598 0.0646884 65.0809 6.45869e-05 65.0747)
(64.0183 -12.7511 0.176971 64.0178 -0.00285538 64.0183)
(64.0152 -12.7317 0.176618 64.0152 1.37895e-05 64.0152)
(63.0034 -17.5047 0.272923 63.0039 0.00289555 63.0034)
(62.9994 -17.4869 0.272592 63.0034 4.15228e-05 62.9994)
(62.0239 -21.2815 0.353303 62.0234 -0.00289796 62.0239)
(62.0211 -21.2656 0.352998 62.0211 1.15364e-05 62.0211)
(61.0651 -24.1735 0.313776 61.0656 0.00263411 61.0651)
(61.0621 -24.1602 0.313879 61.0644 2.58806e-05 61.0621)
(60.1153 -26.2902 0.0789909 60.115 -0.00233148 60.1153)
(60.1131 -26.281 0.0791157 60.1131 8.99993e-06 60.1131)
(59.1618 -27.7527 -0.17617 59.1622 0.00171429 59.1618)
(59.1598 -27.7482 -0.17603 59.1609 1.13526e-05 59.1598)
(58.1958 -28.6792 -0.446535 58.1955 -0.00105199 58.1958)
(58.1942 -28.6788 -0.446385 58.1942 2.05361e-06 58.1942)
(57.2084 -29.1712 -0.574672 57.2084 0.000431007 57.2084)
(57.2072 -29.1737 -0.574743 57.2075 7.16957e-06 57.2072)
(56.1942 -29.3038 -0.5825 56.1939 -1.67971e-05 56.1942)
(56.1933 -29.3082 -0.582603 56.1933 -6.22079e-21 56.1933)
(55.1481 -29.1208 -0.58436 55.1481 -4.89667e-07 55.1481)
(55.1476 -29.1265 -0.584483 55.1477 8.11104e-06 55.1476)
(54.0676 -28.6351 -0.579944 54.0674 -1.31886e-05 54.0676)
(54.0674 -28.6415 -0.580078 54.0674 -5.18922e-07 54.0674)
(52.9511 -27.8346 -0.568501 52.9511 -3.53693e-06 52.9511)
(52.951 -27.8412 -0.568639 52.9513 3.68053e-06 52.951)
(51.7992 -26.6924 -0.549063 51.799 -1.50383e-05 51.7992)
(51.7994 -26.699 -0.549202 51.7994 -6.44946e-06 51.7994)
(50.6142 -25.1794 -0.520702 50.6142 -8.5518e-06 50.6142)
(50.6145 -25.1859 -0.52084 50.6147 -5.89968e-06 50.6145)
(49.4008 -23.2775 -0.482833 49.4006 -1.43145e-05 49.4008)
(49.4012 -23.2839 -0.482967 49.4012 -9.30374e-06 49.4012)
(48.1655 -20.9922 -0.435485 48.1655 -9.8308e-06 48.1655)
(48.1661 -20.9983 -0.435615 48.1663 -9.15258e-06 48.1661)
(46.9173 -18.3602 -0.379468 46.9171 -1.20892e-05 46.9173)
(46.9179 -18.366 -0.379592 46.9179 -9.5748e-06 46.9179)
(45.6657 -15.4511 -0.316367 45.6657 -8.93293e-06 45.6657)
(45.6663 -15.4564 -0.316485 45.6665 -9.94349e-06 45.6663)
(44.4211 -12.3633 -0.248489 44.421 -7.82731e-06 44.4211)
(44.4218 -12.3683 -0.248599 44.4218 -7.50869e-06 44.4218)
(43.1932 -9.21837 -0.178741 43.1932 -5.87848e-06 43.1932)
(43.1939 -9.22292 -0.178842 43.194 -8.3709e-06 43.1939)
(41.9902 -6.14844 -0.11025 41.9901 -2.34066e-06 41.9902)
(41.9909 -6.15251 -0.110341 41.9909 -3.84505e-06 41.9909)
(40.818 -3.28196 -0.0461059 40.818 -4.02477e-07 40.818)
(40.8186 -3.28551 -0.046185 40.8187 -3.84833e-06 40.8186)
(39.6801 -4.3577e-14 1.16948e-22 39.68 2.86905e-06 39.6801)
(39.6808 -0.00555018 -6.70892e-05 39.6808 -1.21426e-07 39.6808)
(38.5778 0.885702 -0.0108618 38.5778 3.66371e-07 38.5778)
(38.5784 0.880276 -0.0107953 38.5785 -5.14012e-06 38.5784)
(37.5106 3.07907 -0.0583317 37.5105 6.58434e-06 37.5106)
(37.5112 3.0772 -0.0582783 37.5112 2.35334e-06 37.5112)
(36.4766 4.25035 -0.0948568 36.4766 2.86215e-06 36.4766)
(36.4771 4.24905 -0.094817 36.4772 -3.46741e-06 36.4771)
(35.4737 4.92042 -0.119542 35.4737 8.41956e-06 35.4737)
(35.4743 4.91969 -0.119517 35.4743 3.12058e-06 35.4743)
(34.5003 5.1128 -0.132184 34.5003 2.95457e-06 34.5003)
(34.5009 5.11262 -0.132173 34.5009 -4.3648e-06 34.5009)
(33.5554 4.86948 -0.133128 33.5554 8.95487e-06 33.5554)
(33.556 4.8698 -0.13313 33.556 2.69887e-06 33.556)
(32.6389 4.24537 -0.123181 32.6389 2.23887e-06 32.6389)
(32.6394 4.24615 -0.123196 32.6395 -5.88763e-06 32.6394)
(31.7513 3.3025 -0.103475 31.7513 8.95551e-06 31.7513)
(31.7518 3.30366 -0.103502 31.7518 1.82515e-06 31.7518)
(30.8937 2.10635 -0.0753435 30.8937 1.3211e-06 30.8937)
(30.8942 2.10782 -0.0753801 30.8943 -7.48008e-06 30.8942)
(30.0673 0.000241519 -0.0402752 30.0672 8.79169e-06 30.0673)
(30.0678 0.00264805 -0.0403193 30.0678 8.7858e-07 30.0678)
(29.2727 -0.00943235 -0.0442563 29.2727 2.30898e-07 29.2727)
(29.2731 -0.00598249 -0.0442057 29.2732 -9.39133e-06 29.2731)
(28.5097 -2.32942 -0.090103 28.5097 8.28657e-06 28.5097)
(28.5102 -2.32769 -0.0900538 28.5102 -2.89579e-07 28.5102)
(27.777 -3.86145 -0.135646 27.777 -1.04891e-06 27.777)
(27.7774 -3.85984 -0.135602 27.7774 -1.09684e-05 27.7774)
(27.0717 -5.30212 -0.17868 27.0717 7.20793e-06 27.0717)
(27.0721 -5.30074 -0.178643 27.0721 -1.92829e-06 27.0721)
(26.3901 -6.57915 -0.216895 26.3901 -2.9309e-06 26.3901)
(26.3905 -6.57807 -0.216867 26.3905 -1.33375e-05 26.3905)
(25.7274 -7.62291 -0.247995 25.7274 5.64076e-06 25.7274)
(25.7277 -7.62218 -0.247978 25.7277 -3.88921e-06 25.7277)
(25.0786 -8.37046 -0.269826 25.0786 -4.93946e-06 25.0786)
(25.0789 -8.37011 -0.269821 25.079 -1.57403e-05 25.0789)
(24.439 -8.77054 -0.280578 24.439 2.32562e-06 24.439)
(24.4394 -8.77055 -0.280584 24.4394 -5.95023e-06 24.4394)
(23.8054 -8.78939 -0.278994 23.8054 -7.01661e-06 23.8054)
(23.8058 -8.78974 -0.279011 23.8058 -1.67972e-05 23.8058)
(23.176 -8.41598 -0.26457 23.1759 -9.07937e-07 23.176)
(23.1763 -8.41663 -0.264596 23.1763 -8.14962e-06 23.1763)
(22.5511 -7.66491 -0.237652 22.5511 -9.49435e-06 22.5511)
(22.5515 -7.66579 -0.237684 22.5515 -1.79406e-05 22.5515)
(21.9334 -6.57739 -0.199527 21.9334 -4.80191e-06 21.9334)
(21.9338 -6.57844 -0.199565 21.9338 -1.11443e-05 21.9338)
(21.3266 -5.21929 -0.152342 21.3266 -1.32595e-05 21.3266)
(21.327 -5.22045 -0.152382 21.327 -2.0477e-05 21.327)
(20.7354 -3.67578 -0.0989474 20.7354 -1.03723e-05 20.7354)
(20.7357 -3.67697 -0.0989887 20.7357 -1.58914e-05 20.7357)
(20.1639 -2.04406 -0.0426508 20.1639 -1.91157e-05 20.1639)
(20.1642 -2.04524 -0.0426911 20.1643 -2.52739e-05 20.1642)
(19.6153 -0.00194234 -3.41728e-05 19.6153 -1.80427e-05 19.6153)
(19.6156 -0.0030203 -5.31381e-05 19.6156 -2.27791e-05 19.6156)
(19.091 0.733867 -0.0130991 19.091 -2.67701e-05 19.091)
(19.0912 0.731755 -0.0130614 19.0912 -3.21521e-05 19.0912)
(18.5904 2.41794 -0.0650005 18.5904 -2.66873e-05 18.5904)
(18.5907 2.41708 -0.0649667 18.5907 -3.07085e-05 18.5907)
(18.1114 3.50158 -0.110361 18.1114 -3.41898e-05 18.1114)
(18.1116 3.50088 -0.110332 18.1117 -3.90998e-05 18.1116)
(17.6508 4.30667 -0.147118 17.6508 -3.30196e-05 17.6508)
(17.651 4.30613 -0.147095 17.651 -3.67419e-05 17.651)
(17.2055 4.8255 -0.174065 17.2055 -3.78588e-05 17.2055)
(17.2057 4.82514 -0.174048 17.2057 -4.23707e-05 17.2057)
(16.7726 5.07563 -0.19097 16.7726 -3.35669e-05 16.7726)
(16.7728 5.07542 -0.190959 16.7728 -3.70117e-05 16.7728)
(16.3503 5.09509 -0.198509 16.3503 -3.39357e-05 16.3503)
(16.3505 5.09503 -0.198504 16.3505 -3.80588e-05 16.3505)
(15.9377 4.93601 -0.198102 15.9378 -2.55729e-05 15.9377)
(15.9379 4.93605 -0.198102 15.9379 -2.85454e-05 15.9379)
(15.5349 4.65779 -0.191682 15.5349 -2.10083e-05 15.5349)
(15.5351 4.65791 -0.191685 15.5351 -2.4565e-05 15.5351)
(15.1424 4.32031 -0.181468 15.1424 -9.44806e-06 15.1424)
(15.1426 4.32046 -0.181473 15.1426 -1.17285e-05 15.1426)
(14.7611 3.97709 -0.169684 14.7611 -2.47194e-07 14.7611)
(14.7612 3.97725 -0.16969 14.7612 -2.78164e-06 14.7612)
(14.3919 3.67071 -0.158296 14.3919 9.98616e-06 14.3919)
(14.3921 3.67084 -0.158302 14.3921 7.89665e-06 14.3921)
(14.0356 3.43058 -0.14886 14.0356 1.8742e-05 14.0356)
(14.0358 3.43067 -0.148865 14.0358 1.6173e-05 14.0358)
(13.6928 3.27239 -0.142431 13.6928 2.91704e-05 13.6928)
(13.6929 3.27242 -0.142434 13.6929 2.69237e-05 13.6929)
(13.3635 3.19888 -0.139532 13.3635 3.29848e-05 13.3635)
(13.3636 3.19886 -0.139533 13.3636 3.05694e-05 13.3636)
(13.0477 3.20181 -0.140174 13.0477 3.87772e-05 13.0477)
(13.0478 3.20173 -0.140172 13.0478 3.6623e-05 13.0478)
(12.745 3.26484 -0.143928 12.745 3.783e-05 12.745)
(12.7452 3.26472 -0.143923 12.7451 3.58495e-05 12.7452)
(12.4548 3.36658 -0.150043 12.4548 3.86159e-05 12.4548)
(12.4549 3.36643 -0.150036 12.4549 3.68437e-05 12.4549)
(12.1762 3.48362 -0.157552 12.1762 3.40831e-05 12.1762)
(12.1763 3.48346 -0.157545 12.1763 3.26786e-05 12.1763)
(11.9083 3.59361 -0.16541 11.9083 3.13923e-05 11.9083)
(11.9084 3.59345 -0.165403 11.9084 3.01517e-05 11.9084)
(11.6501 3.67739 -0.17263 11.6501 2.55857e-05 11.6501)
(11.6502 3.67724 -0.172622 11.6502 2.44606e-05 11.6502)
(11.4007 3.72031 -0.178349 11.4007 2.08449e-05 11.4007)
(11.4007 3.72019 -0.178342 11.4007 2.08854e-05 11.4007)
(11.1594 3.71335 -0.18191 11.1594 7.36315e-06 11.1594)
(11.1594 3.71326 -0.181905 11.1594 1.48714e-05 11.1594)
(10.9257 3.65331 -0.182921 10.9257 -4.87884e-07 10.9257)
(10.9258 3.65327 -0.182918 10.9258 6.43361e-06 10.9258)
(10.6996 3.54217 -0.181249 10.6996 -1.47409e-06 10.6996)
(10.6997 3.54216 -0.181248 10.6997 -1.97036e-06 10.6997)
(10.4812 3.38625 -0.176997 10.4812 -6.03922e-07 10.4812)
(10.4812 3.38629 -0.176998 10.4812 -8.19684e-07 10.4812)
(10.2708 3.19541 -0.170487 10.2708 -1.48377e-06 10.2708)
(10.2708 3.19548 -0.17049 10.2708 -1.83839e-06 10.2708)
(10.0691 2.9816 -0.162217 10.0691 -7.46301e-07 10.0691)
(10.0691 2.98169 -0.162221 10.0691 -8.14983e-07 10.0691)
(9.87683 2.75767 -0.152783 9.87683 -1.48573e-06 9.87683)
(9.87681 2.75778 -0.152788 9.87682 -1.66619e-06 9.87681)
(9.69476 2.53658 -0.142848 9.69476 -8.69029e-07 9.69476)
(9.69474 2.53669 -0.142854 9.69474 -8.01044e-07 9.69474)
(9.52364 2.3307 -0.133096 9.52364 -1.46535e-06 9.52364)
(9.52359 2.3308 -0.133102 9.5236 -1.48679e-06 9.52359)
(9.36411 2.1513 -0.124207 9.36411 -1.21223e-06 9.36411)
(9.36405 2.15139 -0.124213 9.36405 -7.77044e-07 9.36405)
(9.21671 2.00835 -0.116824 9.21671 -1.47053e-06 9.21671)
(9.21662 2.0084 -0.116827 9.21663 -1.31867e-06 9.21662)
(9.08182 1.91018 -0.111551 9.08182 -1.34943e-06 9.08182)
(9.08171 1.91019 -0.111552 9.08171 -7.4442e-07 9.08172)
(8.95967 1.86358 -0.108917 8.95967 -1.1972e-06 8.95967)
(8.95954 1.86353 -0.108916 8.95954 -1.17516e-06 8.95954)
(8.85032 1.87404 -0.109407 8.85032 -8.06538e-07 8.85032)
(8.85016 1.87392 -0.109402 8.85016 -7.06003e-07 8.85016)
(8.75361 1.94518 -0.11345 8.75361 -1.20474e-06 8.75361)
(8.75342 1.94499 -0.113441 8.75342 -1.29934e-06 8.75342)
(8.66921 2.07838 -0.121352 8.66921 -8.14434e-07 8.66921)
(8.66899 2.0781 -0.121338 8.66899 -6.68221e-07 8.66899)
(8.59652 2.27266 -0.133299 8.59652 -1.17012e-06 8.59652)
(8.59626 2.27228 -0.133279 8.59626 -1.21469e-06 8.59626)
(8.53463 2.52426 -0.149323 8.53463 -8.15164e-07 8.53463)
(8.53433 2.52377 -0.149295 8.53433 -6.38655e-07 8.53433)
(8.48228 2.82608 -0.169255 8.48228 -1.24713e-06 8.48228)
(8.48195 2.82547 -0.16922 8.48195 -1.14776e-06 8.48195)
(8.43783 3.16749 -0.192682 8.43783 -8.29418e-07 8.43783)
(8.43745 3.16673 -0.192638 8.43745 -6.2769e-07 8.43745)
(8.39917 3.53425 -0.218925 8.39917 -1.2438e-06 8.39917)
(8.39875 3.53332 -0.21887 8.39875 -1.11176e-06 8.39875)
(8.36379 3.90846 -0.247021 8.36379 -8.76394e-07 8.36379)
(8.36333 3.90733 -0.246953 8.36333 -6.46364e-07 8.36333)
(8.32884 4.26905 -0.275693 8.32884 -1.27917e-06 8.32884)
(8.32834 4.26765 -0.275609 8.32834 -1.1163e-06 8.32834)
(8.29126 4.59259 -0.303418 8.29126 -9.68932e-07 8.29126)
(8.29073 4.59084 -0.303312 8.29073 -7.02904e-07 8.29073)
(8.24802 4.85436 -0.328435 8.24802 -1.35788e-06 8.24802)
(8.24746 4.85214 -0.328299 8.24747 -1.16435e-06 8.24747)
(8.19643 5.03009 -0.348864 8.19643 -1.09998e-06 8.19643)
(8.19586 5.02727 -0.34869 8.19586 -7.96997e-07 8.19586)
(8.1344 5.09757 -0.362817 8.1344 -1.47483e-06 8.1344)
(8.13384 5.09405 -0.362592 8.13384 -1.25112e-06 8.13384)
(8.06085 5.03835 -0.368524 8.06085 -1.24963e-06 8.06085)
(8.06032 5.03425 -0.368243 8.06032 -9.14987e-07 8.06032)
(7.97589 4.83939 -0.26601 7.97589 -1.59938e-06 7.97589)
(7.97543 4.83542 -0.26616 7.97543 -1.3562e-06 7.97543)
(7.88106 4.49491 -0.0935664 7.88106 -1.37886e-06 7.88106)
(7.88071 4.49289 -0.0937425 7.88071 -1.03385e-06 7.88071)
(7.77921 4.00729 0.0671743 7.77921 -1.69233e-06 7.77921)
(7.77897 4.0092 0.0669962 7.77898 -1.41988e-06 7.77897)
(7.6742 3.38887 0.210264 7.6742 -1.46263e-06 7.6742)
(7.67406 3.39387 0.210115 7.67406 -1.12146e-06 7.67406)
(7.57044 2.6599 0.177206 7.57044 -1.75507e-06 7.57044)
(7.57036 2.66558 0.177642 7.57037 -1.40982e-06 7.57036)
(7.47242 1.84508 0.112304 7.47242 -1.50315e-06 7.47242)
(7.47237 1.85033 0.112692 7.47238 -1.12114e-06 7.47237)
(7.38401 0.974303 0.042332 7.38401 -1.72802e-06 7.384)
(7.38396 0.978936 0.0426821 7.38397 -1.3777e-06 7.38396)
(7.30785 0.00127226 5.17092e-05 7.30785 -1.47111e-06 7.30785)
(7.3078 0.00282846 0.000114958 7.3078 -1.07759e-06 7.3078)
(7.24499 -0.736768 0.0303803 7.24499 -1.64168e-06 7.24499)
(7.24493 -0.72839 0.0300348 7.24494 -1.343e-06 7.24493)
(7.19479 -1.63794 0.103336 7.19479 -1.41887e-06 7.19479)
(7.19475 -1.6332 0.102963 7.19475 -1.0447e-06 7.19475)
(7.15479 -2.40009 0.173252 7.15479 -1.53784e-06 7.15479)
(7.15477 -2.39491 0.172828 7.15478 -1.3467e-06 7.15477)
(7.12139 -3.0614 0.237492 7.12139 -1.41177e-06 7.12139)
(7.12141 -3.05653 0.237033 7.12142 -1.06509e-06 7.12142)
(7.09031 -3.6025 0.11376 7.09031 -1.50354e-06 7.09031)
(7.09042 -3.60011 0.113917 7.09043 -1.43776e-06 7.09042)
(7.05732 -4.01373 -0.0549412 7.05732 -1.48124e-06 7.05732)
(7.05754 -4.0153 -0.0547747 7.05755 -1.1288e-06 7.05754)
(7.01863 -4.29388 -0.243605 7.01863 -1.73818e-06 7.01863)
(7.01896 -4.29782 -0.24346 7.01896 -1.56147e-06 7.01896)
(6.97123 -4.44716 -0.410789 6.97123 -1.66593e-06 6.97123)
(6.97162 -4.45116 -0.411126 6.97162 -1.20786e-06 6.97162)
(6.91309 -4.48378 -0.415217 6.91309 -1.99697e-06 6.91309)
(6.9135 -4.48703 -0.415477 6.91351 -1.66019e-06 6.91351)
(6.84339 -4.41839 -0.410831 6.84339 -1.92309e-06 6.84339)
(6.84381 -4.4208 -0.411023 6.84382 -1.32051e-06 6.84381)
(6.76235 -4.26852 -0.399065 6.76235 -2.28757e-06 6.76235)
(6.76276 -4.27028 -0.399207 6.76276 -1.77668e-06 6.76276)
(6.67099 -4.05298 -0.381356 6.67099 -2.17149e-06 6.67098)
(6.67137 -4.05428 -0.381465 6.67137 -1.40526e-06 6.67137)
(6.57092 -3.78906 -0.359049 6.57092 -2.55825e-06 6.57092)
(6.57127 -3.79005 -0.359134 6.57128 -1.88666e-06 6.57127)
(6.46416 -3.49269 -0.333507 6.46416 -2.40055e-06 6.46416)
(6.46448 -3.49346 -0.333576 6.46449 -1.45726e-06 6.46448)
(6.3529 -3.17785 -0.305862 6.3529 -2.77917e-06 6.3529)
(6.35318 -3.17846 -0.305918 6.35319 -1.94743e-06 6.35318)
(6.23934 -2.85535 -0.277002 6.23934 -2.54162e-06 6.23934)
(6.23959 -2.85585 -0.277047 6.2396 -1.4652e-06 6.2396)
(6.12561 -2.53371 -0.247702 6.12561 -2.93487e-06 6.12561)
(6.12583 -2.53411 -0.247741 6.12584 -1.99917e-06 6.12584)
(6.01367 -2.21915 -0.218481 6.01367 -2.57635e-06 6.01367)
(6.01386 -2.21949 -0.218513 6.01386 -1.35818e-06 6.01386)
(5.90524 -1.91522 -0.189611 5.90524 -3.02112e-06 5.90524)
(5.90541 -1.91549 -0.189639 5.90542 -2.05147e-06 5.90541)
(5.80185 -1.62336 -0.161208 5.80185 -2.5578e-06 5.80185)
(5.802 -1.62359 -0.161231 5.802 -1.20704e-06 5.802)
(5.70478 -1.34324 -0.133167 5.70478 -3.04089e-06 5.70478)
(5.70489 -1.34344 -0.133188 5.7049 -2.05551e-06 5.7049)
(5.61507 -1.07279 -0.105214 5.61507 -2.45171e-06 5.61507)
(5.61517 -1.07296 -0.105232 5.61517 -1.02929e-06 5.61517)
(5.53359 -0.808465 -0.0768918 5.53359 -3.00233e-06 5.53359)
(5.53367 -0.808626 -0.0769093 5.53368 -5.80761e-06 5.53367)
(5.461 -0.545563 -0.0476079 5.461 -2.30473e-06 5.461)
(5.46107 -0.545714 -0.0476249 5.46107 -9.27453e-06 5.46107)
(5.39778 -0.278537 -0.016653 5.39778 -2.91778e-06 5.39778)
(5.39783 -0.278683 -0.01667 5.39784 -1.14061e-05 5.39783)
(5.34421 -0.00106078 -6.27519e-05 5.34421 -2.19529e-06 5.3442)
(5.34424 -0.00106016 -6.27152e-05 5.34424 -9.90988e-06 5.34424)
(5.30036 0.280635 -0.0168427 5.30036 -2.806e-06 5.30036)
(5.30038 0.280339 -0.0168249 5.30039 -1.06654e-05 5.30038)
(5.26608 0.599621 -0.053604 5.26608 -2.05821e-06 5.26608)
(5.26609 0.599459 -0.053585 5.2661 -8.84429e-06 5.26609)
(5.24089 0.930391 -0.0939659 5.24089 -2.69553e-06 5.24089)
(5.24089 0.930214 -0.093945 5.2409 -9.32951e-06 5.24089)
(5.22396 1.28139 -0.138163 5.22396 -1.87366e-06 5.22396)
(5.22395 1.28119 -0.13814 5.22396 -7.46186e-06 5.22395)
(5.21405 1.64923 -0.18609 5.21405 -2.62731e-06 5.21404)
(5.21402 1.64901 -0.186064 5.21404 -8.07298e-06 5.21402)
(5.20944 2.02741 -0.237234 5.20944 -1.99501e-06 5.20944)
(5.20941 2.02716 -0.237204 5.20941 -6.40807e-06 5.20941)
(5.20795 2.40607 -0.290618 5.20795 -4.77648e-06 5.20795)
(5.20791 2.4058 -0.290585 5.20792 -7.57623e-06 5.20791)
(5.20696 2.77231 -0.344747 5.20696 -4.96179e-06 5.20696)
(5.20691 2.77201 -0.344708 5.20692 -6.23374e-06 5.20691)
(5.20351 3.11056 -0.397677 5.20351 -6.44123e-06 5.20351)
(5.20345 3.11021 -0.397633 5.20347 -8.26906e-06 5.20345)
(5.19449 3.40337 -0.446998 5.1945 -5.66629e-06 5.19449)
(5.19443 3.40298 -0.446948 5.19443 -7.07899e-06 5.19443)
(5.17688 3.63263 -0.490026 5.17688 -7.82565e-06 5.17688)
(5.17681 3.63218 -0.489968 5.17682 -9.98037e-06 5.17681)
(5.148 3.78038 -0.523907 5.14801 -7.08574e-06 5.148)
(5.14793 3.77986 -0.523839 5.14793 -8.75697e-06 5.14793)
(5.1059 3.83044 -0.545735 5.1059 -9.5372e-06 5.1059)
(5.10582 3.82985 -0.545656 5.10584 -1.19856e-05 5.10582)
(5.04959 3.76994 -0.552901 5.04959 -8.43074e-06 5.04959)
(5.04951 3.76927 -0.55281 5.04951 -1.0301e-05 5.04951)
(4.97927 3.59084 -0.543189 4.97927 -1.06821e-05 4.97927)
(4.9792 3.5901 -0.543085 4.97921 -1.33694e-05 4.9792)
(4.89645 3.29142 -0.515195 4.89646 -8.83305e-06 4.89645)
(4.8964 3.29069 -0.515082 4.8964 -1.08757e-05 4.8964)
(4.80385 2.87707 -0.468384 4.80385 -1.05948e-05 4.80385)
(4.80381 2.87652 -0.468278 4.80382 -1.28825e-05 4.80381)
(4.7051 2.36199 -0.365869 4.70511 -9.13715e-06 4.7051)
(4.70508 2.36193 -0.365895 4.70508 -9.98133e-06 4.70508)
(4.60433 1.76797 -0.206489 4.60433 -9.04931e-06 4.60433)
(4.60432 1.7688 -0.206509 4.60434 -8.64674e-06 4.60432)
(4.50548 1.12352 -0.0932366 4.50548 -1.00219e-05 4.50548)
(4.50549 1.1254 -0.093248 4.50549 -7.88776e-06 4.50549)
(4.41161 0.263806 -0.0304715 4.41161 -6.59069e-06 4.41161)
(4.41162 0.269636 -0.0304749 4.41163 -2.97635e-06 4.41161)
(4.32471 -0.00275882 -0.0198601 4.32472 -1.08653e-05 4.32471)
(4.32473 -3.39113e-17 -0.0198589 4.32473 -5.32847e-06 4.32473)
(4.24487 -0.7643 -0.0602037 4.24487 -4.16452e-06 4.24487)
(4.24488 -0.762339 -0.0602014 4.2449 3.17713e-06 4.24488)
(4.17095 -1.26194 -0.147302 4.17096 -1.26847e-05 4.17095)
(4.17097 -1.26106 -0.147301 4.17097 -3.30642e-06 4.17097)
(4.10097 -1.64687 -0.27433 4.10097 -2.80407e-06 4.10097)
(4.10099 -1.6469 -0.27433 4.10101 8.80216e-06 4.10099)
(4.0326 -1.90262 -0.344783 4.03261 -1.63621e-05 4.0326)
(4.03264 -1.90317 -0.344905 4.03264 -2.52346e-06 4.03264)
(3.96387 -2.02265 -0.35882 3.96387 -2.61369e-06 3.96387)
(3.96391 -2.02338 -0.358951 3.96393 1.38883e-05 3.96391)
(3.89362 -2.01117 -0.350708 3.89363 -2.18052e-05 3.89362)
(3.89367 -2.01188 -0.350828 3.89367 -2.80025e-06 3.89367)
(3.82171 -1.8825 -0.322861 3.82171 -3.25496e-06 3.8217)
(3.82174 -1.88312 -0.322963 3.82176 1.88451e-05 3.82174)
(3.74886 -1.65849 -0.278937 3.74887 -2.85763e-05 3.74886)
(3.7489 -1.65901 -0.279024 3.7489 -3.54851e-06 3.7489)
(3.67646 -1.36635 -0.223772 3.67646 -4.01524e-06 3.67646)
(3.67649 -1.36679 -0.223845 3.67651 2.45834e-05 3.67649)
(3.60611 -1.03578 -0.162514 3.60612 -3.6298e-05 3.60611)
(3.60614 -1.03614 -0.162576 3.60614 -4.20677e-06 3.60614)
(3.53929 -0.695376 -0.100223 3.53929 -4.37961e-06 3.53929)
(3.53931 -0.695674 -0.100274 3.53933 3.17889e-05 3.53931)
(3.47709 -0.37119 -0.0416611 3.4771 -4.46848e-05 3.47709)
(3.47712 -0.371432 -0.0417028 3.47712 -4.35805e-06 3.47712)
(3.42015 -8.30073e-15 -4.24079e-21 3.42015 -4.38925e-06 3.42015)
(3.42016 -0.00011915 -1.16823e-05 3.42019 4.07031e-05 3.42016)
(3.36865 0.0921092 -0.0091624 3.36866 -5.4346e-05 3.36865)
(3.36867 0.0917793 -0.00912958 3.36867 -4.27794e-06 3.36867)
(3.32249 0.309418 -0.0495169 3.32249 -4.23864e-06 3.32249)
(3.32249 0.309327 -0.0494936 3.32251 5.14564e-05 3.32249)
(3.28138 0.403423 -0.076783 3.28139 -6.5797e-05 3.28138)
(3.28139 0.40338 -0.0767694 3.28139 -4.19284e-06 3.2814)
(3.24511 0.428511 -0.090027 3.24511 -4.22504e-06 3.2451)
(3.2451 0.428516 -0.0900232 3.24513 6.40466e-05 3.2451)
(3.2135 0.39084 -0.0895905 3.21351 -7.96102e-05 3.2135)
(3.21351 0.390888 -0.0895963 3.21351 -4.36222e-06 3.21351)
(3.18653 0.299632 -0.0764876 3.18653 -4.60592e-06 3.18653)
(3.18653 0.299714 -0.0765021 3.18655 7.85569e-05 3.18653)
(3.16421 0.167439 -0.0525058 3.16423 -9.62995e-05 3.16421)
(3.16422 0.167546 -0.0525272 3.16422 -4.7996e-06 3.16422)
(3.14658 0.000452608 -0.0203269 3.14658 -5.10306e-06 3.14658)
(3.14658 0.00048166 -0.0203526 3.1466 9.57839e-05 3.14658)
(3.13357 -0.154547 -0.0563151 3.13358 -0.000116206 3.13357)
(3.13357 -0.154304 -0.0562899 3.13357 -5.38528e-06 3.13358)