/*--------------------------------*- C++ -*----------------------------------*\
| =========                 |                                                 |
| \\      /  F ield         | OpenFOAM: The Open Source CFD Toolbox           |
|  \\    /   O peration     | Version:  2012                                  |
|   \\  /    A nd           | Website:  www.openfoam.com                      |
|    \\/     M anipulation  |                                                 |
\*---------------------------------------------------------------------------*/
FoamFile
{
    version     2.0;
    format      ascii;
    class       volVectorField;
    location    "15000";
    object      U;
}
// * * * * * * * * * * * * * * * * * * * * * * * * * * * * * * * * * * * * * //

dimensions      [0 1 -1 0 0 0 0];


internalField   nonuniform List<vector> 
640
(
(0.0095731 -9.33435e-16 -2.86808e-17)
(0.0095731 -6.81212e-19 -5.55124e-33)
(0.0292827 -2.86001e-15 -4.73181e-17)
(0.0292827 -4.15392e-18 2.26738e-20)
(0.0501626 -2.89788e-15 -5.44468e-17)
(0.0501626 -6.52444e-18 -8.08127e-23)
(0.0722811 -2.62612e-15 -6.02993e-17)
(0.0722811 -9.72918e-18 9.19218e-21)
(0.0957087 -2.61453e-15 -6.78065e-17)
(0.0957087 -1.41337e-17 2.65e-21)
(0.120514 -2.63436e-15 -7.66002e-17)
(0.120514 -1.95518e-17 -3.85405e-20)
(0.146756 -2.63582e-15 -8.62741e-17)
(0.146756 -2.55562e-17 -1.06812e-19)
(0.174463 -2.62766e-15 -9.67216e-17)
(0.174463 -3.25284e-17 -2.21025e-19)
(0.203605 -2.61852e-15 -1.07766e-16)
(0.203605 -4.07757e-17 -3.86163e-19)
(0.23405 -2.60871e-15 -1.18971e-16)
(0.23405 -5.02493e-17 -5.16617e-19)
(0.265518 -2.59784e-15 -1.29655e-16)
(0.265518 -6.21046e-17 -7.89313e-19)
(0.297569 -2.58475e-15 -1.39042e-16)
(0.297569 -7.6135e-17 -1.03936e-18)
(0.329645 -2.57114e-15 -1.46472e-16)
(0.329645 -9.02681e-17 -1.23135e-18)
(0.36116 -2.56322e-15 -1.51766e-16)
(0.36116 -1.04203e-16 -1.58564e-18)
(0.391615 -2.54268e-15 -1.55139e-16)
(0.391615 -1.20145e-16 -1.8894e-18)
(0.420666 -2.52625e-15 -1.57083e-16)
(0.420666 -1.37742e-16 -2.24431e-18)
(0.448135 -2.50737e-15 -1.58158e-16)
(0.448135 -1.56434e-16 -2.50548e-18)
(0.473982 -2.49026e-15 -1.58851e-16)
(0.473982 -1.75824e-16 -2.64329e-18)
(0.498255 -2.47322e-15 -1.59668e-16)
(0.498255 -1.97536e-16 -2.79794e-18)
(0.521055 -2.45387e-15 -1.60643e-16)
(0.521055 -2.17002e-16 -2.78914e-18)
(0.542506 -2.43618e-15 -1.62057e-16)
(0.542506 -2.3488e-16 -3.10307e-18)
(0.562736 -2.41328e-15 -1.64044e-16)
(0.562736 -2.58551e-16 -3.10065e-18)
(0.58187 -2.39242e-15 -1.6652e-16)
(0.58187 -2.84241e-16 -3.25766e-18)
(0.600021 -2.36731e-15 -1.69676e-16)
(0.600021 -3.1023e-16 -3.11397e-18)
(0.617293 -2.34265e-15 -1.73382e-16)
(0.617293 -3.3839e-16 -2.06506e-18)
(0.633778 -2.31613e-15 -1.77858e-16)
(0.633778 -3.6474e-16 -1.96013e-18)
(0.649556 -2.28469e-15 -1.82754e-16)
(0.649556 -3.94733e-16 -1.43188e-18)
(0.664698 -2.2571e-15 -1.88606e-16)
(0.664698 -4.27364e-16 -1.31957e-18)
(0.679267 -2.22687e-15 -1.95236e-16)
(0.679267 -4.58329e-16 -1.31688e-18)
(0.693318 -2.19454e-15 -2.02487e-16)
(0.693318 -4.94462e-16 -1.16924e-18)
(0.706898 -2.15883e-15 -2.10739e-16)
(0.706898 -5.26902e-16 -5.53657e-19)
(0.720049 -2.12153e-15 -2.19256e-16)
(0.720049 -5.60123e-16 -1.4457e-18)
(0.732809 -2.08603e-15 -2.28625e-16)
(0.732809 -5.89676e-16 -4.19903e-18)
(0.745209 -2.05195e-15 -2.3942e-16)
(0.745209 -6.1811e-16 -6.63428e-18)
(0.75728 -2.01917e-15 -2.51585e-16)
(0.75728 -6.59883e-16 -7.29086e-18)
(0.769045 -1.98316e-15 -2.65512e-16)
(0.769045 -7.03992e-16 -9.61546e-18)
(0.780529 -1.94001e-15 -2.8068e-16)
(0.780529 -7.45786e-16 -1.12177e-17)
(0.79175 -1.89839e-15 -2.97566e-16)
(0.79175 -7.89177e-16 -1.43375e-17)
(0.802726 -1.84355e-15 -3.15136e-16)
(0.802726 -8.422e-16 3.13421e-17)
(0.813473 -1.78701e-15 -3.32247e-16)
(0.813473 -8.86522e-16 7.86567e-17)
(0.824005 -1.744e-15 -3.51422e-16)
(0.824005 -9.14107e-16 4.99396e-17)
(0.834335 -1.69525e-15 -3.52234e-16)
(0.834335 -9.5404e-16 8.72283e-18)
(0.844472 -1.64746e-15 -3.17203e-16)
(0.844472 -9.9686e-16 -3.42534e-17)
(0.854427 -1.6e-15 -2.89069e-16)
(0.854427 -1.04006e-15 -7.76928e-17)
(0.864209 -1.54657e-15 -2.52694e-16)
(0.864209 -1.08232e-15 -1.2223e-16)
(0.873823 -1.50479e-15 -2.31624e-16)
(0.873823 -1.10695e-15 -1.64303e-16)
(0.883278 -1.47079e-15 -2.47885e-16)
(0.883278 -1.10385e-15 -2.02305e-16)
(0.892579 -1.41691e-15 -2.54997e-16)
(0.892579 -1.1103e-15 -2.35279e-16)
(0.90173 -1.34939e-15 -2.60936e-16)
(0.90173 -1.1106e-15 -2.60947e-16)
(0.910735 -1.28916e-15 -2.63048e-16)
(0.910735 -1.10916e-15 -2.70217e-16)
(0.919599 -1.23601e-15 -2.90461e-16)
(0.919599 -1.08783e-15 -2.69268e-16)
(0.928324 -1.1986e-15 -3.04757e-16)
(0.928324 -1.06742e-15 -2.77245e-16)
(0.936912 -1.14718e-15 -2.97554e-16)
(0.936912 -1.07979e-15 -2.89077e-16)
(0.945366 -1.07362e-15 -3.07652e-16)
(0.945366 -1.05141e-15 -2.89084e-16)
(0.953686 -1.06555e-15 -2.99404e-16)
(0.953686 -1.02109e-15 -2.76158e-16)
(0.961873 -1.03946e-15 -2.84277e-16)
(0.961873 -1.02045e-15 -2.69798e-16)
(0.969927 -9.87846e-16 -2.75786e-16)
(0.969927 -9.93617e-16 -2.73942e-16)
(0.977848 -9.11575e-16 -2.60748e-16)
(0.977848 -9.59617e-16 -2.6083e-16)
(0.985636 -9.00176e-16 -2.95577e-16)
(0.985636 -9.1253e-16 -2.6905e-16)
(0.993288 -8.67032e-16 -2.83949e-16)
(0.993288 -8.58064e-16 -2.79747e-16)
(1.0008 -8.41033e-16 -3.08231e-16)
(1.0008 -8.73929e-16 -2.9275e-16)
(1.00818 -8.20289e-16 -2.76397e-16)
(1.00818 -8.31485e-16 -2.45088e-16)
(1.01541 -7.77554e-16 -2.20765e-16)
(1.01541 -7.89026e-16 -1.98871e-16)
(1.0225 -8.42867e-16 -2.12514e-16)
(1.0225 -7.96848e-16 -2.45372e-16)
(1.02943 -7.64257e-16 -1.40505e-16)
(1.02943 -7.49875e-16 -1.44172e-16)
(1.0362 -7.65921e-16 -1.61376e-16)
(1.0362 -7.21351e-16 -1.64425e-16)
(1.0428 -7.49999e-16 -1.492e-16)
(1.0428 -7.29587e-16 -1.93009e-16)
(1.04923 -7.19283e-16 -1.11577e-16)
(1.04923 -7.06719e-16 -1.1349e-16)
(1.05546 -6.81417e-16 -4.1646e-17)
(1.05546 -7.00618e-16 -7.38496e-17)
(1.06149 -5.94989e-16 -2.915e-16)
(1.06149 -6.13144e-16 -2.16724e-16)
(1.06729 -6.07823e-16 -3.28932e-16)
(1.06729 -5.48997e-16 -3.82974e-16)
(1.07285 -6.0358e-16 -2.26671e-16)
(1.07285 -5.83718e-16 -2.68739e-16)
(1.07812 -6.35717e-16 -3.25881e-16)
(1.07812 -6.2726e-16 -2.34418e-16)
(1.08308 -6.57776e-16 -1.49552e-16)
(1.08308 -6.17534e-16 -3.21766e-16)
(1.08767 -4.76375e-16 -2.71137e-16)
(1.08767 -5.61224e-16 -9.29786e-17)
(1.09182 -4.95773e-16 -1.78135e-16)
(1.09182 -5.68464e-16 -1.19415e-16)
(1.09545 -7.13606e-16 -2.46849e-16)
(1.09545 -7.0264e-16 -1.06822e-16)
(1.09844 -6.96495e-16 -8.27523e-17)
(1.09844 -6.87659e-16 -5.54843e-19)
(1.10063 -5.82817e-16 -1.03087e-16)
(1.10063 -6.29409e-16 -4.93459e-17)
(1.10184 -5.48323e-16 -3.70885e-46)
(1.10184 -6.21973e-16 -1.15378e-16)
(0.0095731 7.09573e-20 1.53972e-17)
(0.0095731 1.21987e-19 6.19083e-17)
(0.0292827 -5.3804e-19 2.15595e-17)
(0.0292827 1.82782e-19 9.0849e-17)
(0.0501626 -4.89298e-19 2.41861e-17)
(0.0501626 7.12235e-19 1.01938e-16)
(0.0722811 -6.30956e-19 2.71158e-17)
(0.0722811 1.12672e-18 1.14332e-16)
(0.0957087 -8.99999e-19 3.03801e-17)
(0.0957087 1.57044e-18 1.28127e-16)
(0.120514 -9.56838e-19 3.39988e-17)
(0.120514 1.91506e-18 1.43378e-16)
(0.146756 -1.46e-18 3.8004e-17)
(0.146756 2.62937e-18 1.60037e-16)
(0.174463 -2.23656e-18 4.22915e-17)
(0.174463 3.66791e-18 1.77901e-16)
(0.203605 -2.65571e-18 4.68143e-17)
(0.203605 4.76109e-18 1.96395e-16)
(0.23405 -3.1725e-18 5.13826e-17)
(0.23405 6.10296e-18 2.1465e-16)
(0.265518 -4.54294e-18 5.57251e-17)
(0.265518 7.53372e-18 2.31245e-16)
(0.297569 -5.29153e-18 5.94254e-17)
(0.297569 8.69619e-18 2.4482e-16)
(0.329645 -6.07023e-18 6.23921e-17)
(0.329645 1.04228e-17 2.54281e-16)
(0.36116 -7.85805e-18 6.4312e-17)
(0.36116 1.35346e-17 2.5927e-16)
(0.391615 -9.64524e-18 6.52968e-17)
(0.391615 1.5989e-17 2.60233e-16)
(0.420666 -1.14766e-17 6.54446e-17)
(0.420666 1.8313e-17 2.58082e-16)
(0.448135 -1.21612e-17 6.51349e-17)
(0.448135 2.09762e-17 2.53902e-16)
(0.473982 -1.25906e-17 6.43431e-17)
(0.473982 2.28049e-17 2.48894e-16)
(0.498255 -1.05613e-17 6.32952e-17)
(0.498255 2.45115e-17 2.43536e-16)
(0.521055 -6.96432e-18 6.26468e-17)
(0.521055 2.40407e-17 2.38204e-16)
(0.542506 -5.75201e-18 6.26109e-17)
(0.542506 2.59035e-17 2.32773e-16)
(0.562736 -5.1963e-18 6.2153e-17)
(0.562736 3.02666e-17 2.28228e-16)
(0.58187 -5.8504e-18 6.27777e-17)
(0.58187 3.33188e-17 2.23657e-16)
(0.600021 -6.14257e-18 6.32719e-17)
(0.600021 3.68106e-17 2.20006e-16)
(0.617293 -5.04962e-18 6.45047e-17)
(0.617293 4.01501e-17 2.1761e-16)
(0.633778 -7.52656e-18 6.63482e-17)
(0.633778 4.33496e-17 2.15658e-16)
(0.649556 -1.49812e-17 6.8157e-17)
(0.649556 4.73907e-17 2.14783e-16)
(0.664698 -2.24194e-17 6.89731e-17)
(0.664698 5.16773e-17 2.14258e-16)
(0.679267 -2.05722e-17 7.06165e-17)
(0.679267 4.95088e-17 2.13231e-16)
(0.693318 -1.94373e-17 7.33914e-17)
(0.693318 4.74953e-17 2.11949e-16)
(0.706898 -1.94831e-17 7.6422e-17)
(0.706898 4.86705e-17 2.10239e-16)
(0.720049 -2.86721e-17 8.22912e-17)
(0.720049 5.65031e-17 2.06219e-16)
(0.732809 -4.26034e-17 8.54462e-17)
(0.732809 7.32735e-17 2.0035e-16)
(0.745209 -4.2648e-17 8.78607e-17)
(0.745209 7.68642e-17 1.91737e-16)
(0.75728 -4.24459e-17 9.05524e-17)
(0.75728 8.15828e-17 1.81394e-16)
(0.769045 -4.44564e-17 9.34909e-17)
(0.769045 9.3264e-17 1.67341e-16)
(0.780529 -3.8949e-17 9.51091e-17)
(0.780529 9.03833e-17 1.42413e-16)
(0.79175 -2.52665e-17 9.43423e-17)
(0.79175 7.66274e-17 5.31611e-17)
(0.802726 -9.63691e-18 9.74883e-17)
(0.802726 8.24806e-17 -1.31841e-17)
(0.813473 -4.22589e-18 1.03749e-16)
(0.813473 7.82844e-17 -1.455e-17)
(0.824005 -3.32873e-18 1.04183e-16)
(0.824005 6.41012e-17 -1.40643e-17)
(0.834335 5.29016e-18 1.11123e-16)
(0.834335 6.7408e-17 -1.77499e-17)
(0.844472 -3.96614e-18 1.17702e-16)
(0.844472 4.54232e-17 -2.11703e-17)
(0.854427 -8.72507e-18 1.19136e-16)
(0.854427 6.45186e-17 -1.83684e-17)
(0.864209 -9.12297e-18 1.22082e-16)
(0.864209 5.58727e-17 -1.6421e-17)
(0.873823 -2.78714e-17 1.26192e-16)
(0.873823 4.28367e-17 -2.04894e-17)
(0.883278 -3.82631e-17 1.23183e-16)
(0.883278 5.59011e-17 -1.25011e-17)
(0.892579 -4.83953e-17 1.20523e-16)
(0.892579 3.18681e-17 -9.66513e-18)
(0.90173 -7.00433e-17 1.12385e-16)
(0.90173 2.35122e-17 -9.40147e-19)
(0.910735 -1.25271e-16 1.00151e-16)
(0.910735 9.25335e-18 4.9606e-18)
(0.919599 -1.7237e-16 6.08826e-17)
(0.919599 -7.1309e-18 1.37751e-17)
(0.928324 -1.78909e-16 1.363e-17)
(0.928324 -5.53404e-17 1.65022e-17)
(0.936912 -1.9203e-16 9.91425e-18)
(0.936912 -1.51703e-16 -4.856e-19)
(0.945366 -2.07596e-16 -1.90355e-18)
(0.945366 -1.92671e-16 7.15215e-18)
(0.953686 -2.41436e-16 5.19426e-18)
(0.953686 -2.21036e-16 8.85666e-18)
(0.961873 -2.86209e-16 -2.5672e-18)
(0.961873 -2.82977e-16 3.75736e-18)
(0.969927 -3.10348e-16 1.31012e-17)
(0.969927 -3.19863e-16 -1.66396e-18)
(0.977848 -3.52559e-16 1.35523e-17)
(0.977848 -3.20752e-16 1.49632e-17)
(0.985636 -4.02603e-16 5.1269e-18)
(0.985636 -4.01558e-16 2.20138e-17)
(0.993288 -4.24946e-16 3.46578e-17)
(0.993288 -4.42198e-16 2.18908e-17)
(1.0008 -4.46488e-16 4.10525e-17)
(1.0008 -4.54846e-16 1.83581e-17)
(1.00818 -4.51473e-16 5.91022e-17)
(1.00818 -4.41855e-16 6.82779e-17)
(1.01541 -4.57767e-16 9.04329e-17)
(1.01541 -4.70868e-16 7.0076e-17)
(1.0225 -4.49091e-16 7.76624e-17)
(1.0225 -4.88852e-16 3.05964e-17)
(1.02943 -4.89125e-16 1.09648e-16)
(1.02943 -4.49868e-16 1.46277e-16)
(1.0362 -5.13223e-16 7.41094e-17)
(1.0362 -5.04286e-16 9.50539e-17)
(1.0428 -4.90153e-16 8.14388e-17)
(1.0428 -4.7786e-16 9.32979e-17)
(1.04923 -4.85405e-16 1.52671e-16)
(1.04923 -4.87266e-16 1.52899e-16)
(1.05546 -3.94891e-16 2.43049e-16)
(1.05546 -4.91062e-16 2.10441e-16)
(1.06149 -4.41682e-16 4.15549e-16)
(1.06149 -4.24329e-16 4.02256e-16)
(1.06729 -5.11032e-16 2.03813e-16)
(1.06729 -4.95247e-16 3.8545e-16)
(1.07285 -5.28706e-16 2.62423e-16)
(1.07285 -5.24229e-16 3.26034e-16)
(1.07812 -5.87405e-16 3.27893e-16)
(1.07812 -5.72572e-16 3.06309e-16)
(1.08308 -6.07406e-16 9.29344e-17)
(1.08308 -6.02371e-16 1.33609e-16)
(1.08767 -5.92362e-16 1.22433e-16)
(1.08767 -6.05301e-16 1.50992e-16)
(1.09182 -6.90112e-16 1.94212e-16)
(1.09182 -6.35826e-16 1.27719e-16)
(1.09545 -7.03417e-16 0)
(1.09545 -6.5959e-16 6.77097e-17)
(1.09844 -6.92421e-16 -6.06804e-18)
(1.09844 -6.88484e-16 3.22684e-17)
(1.10063 -6.45662e-16 1.24112e-17)
(1.10063 -6.43987e-16 -3.49216e-17)
(1.10184 -5.71897e-16 -6.68063e-17)
(1.10184 -4.70015e-16 -3.58986e-18)
(1.10184 -5.60899e-16 2.55718e-17)
(1.10184 -5.30026e-16 -1.34816e-16)
(1.10063 -5.25723e-16 -1.25599e-16)
(1.10063 -4.44153e-16 -4.29168e-17)
(1.09844 -4.08207e-16 1.14199e-16)
(1.09844 -3.29241e-16 4.35264e-17)
(1.09545 -4.1093e-16 1.98792e-16)
(1.09545 -4.49773e-16 6.99663e-17)
(1.09182 -4.30701e-16 1.24065e-16)
(1.09182 -4.72193e-16 2.92658e-17)
(1.08767 -3.27472e-16 8.43235e-17)
(1.08767 -3.64817e-16 9.61882e-17)
(1.08308 -3.88479e-16 -4.95297e-17)
(1.08308 -3.62485e-16 4.64318e-17)
(1.07812 -3.79561e-16 1.80936e-18)
(1.07812 -4.18493e-16 9.13487e-49)
(1.07285 -3.29233e-16 -1.40309e-17)
(1.07285 -2.94956e-16 -1.04394e-16)
(1.06729 -2.64633e-16 -9.25865e-17)
(1.06729 -2.57813e-16 -4.38127e-17)
(1.06149 -2.47789e-16 -3.50443e-17)
(1.06149 -3.21782e-16 -4.90282e-18)
(1.05546 -1.55125e-16 -9.20538e-17)
(1.05546 -1.57649e-16 -1.0285e-16)
(1.04923 -1.30086e-16 -4.65422e-17)
(1.04923 -1.01517e-16 -7.62628e-17)
(1.0428 -1.2864e-16 -2.02912e-17)
(1.0428 -1.36543e-16 -3.99055e-17)
(1.0362 -9.88093e-17 -1.16363e-17)
(1.0362 -1.68864e-16 4.35119e-18)
(1.02943 -4.84362e-17 6.96593e-17)
(1.02943 -8.46677e-17 3.48792e-17)
(1.0225 -1.15934e-16 1.28396e-16)
(1.0225 -9.03422e-17 2.02866e-17)
(1.01541 -1.147e-16 1.10084e-16)
(1.01541 -1.15656e-16 4.93409e-17)
(1.00818 -1.17289e-16 4.02188e-17)
(1.00818 -1.38524e-16 5.47463e-17)
(1.0008 -9.02648e-17 4.20792e-17)
(1.0008 -7.29963e-17 6.21119e-17)
(0.993288 -9.74624e-17 2.80665e-17)
(0.993288 -4.78981e-17 1.4576e-17)
(0.985636 -6.74942e-17 2.74879e-17)
(0.985636 -6.41143e-17 1.47984e-17)
(0.977848 -6.57803e-17 3.78651e-17)
(0.977848 -7.40374e-17 3.32773e-17)
(0.969927 -8.34009e-17 1.78876e-17)
(0.969927 -5.50923e-17 1.94309e-17)
(0.961873 -3.66151e-17 4.52961e-17)
(0.961873 -4.25297e-17 3.9325e-17)
(0.953686 -2.77604e-17 5.27898e-17)
(0.953686 -6.78232e-17 3.9721e-17)
(0.945366 -7.47211e-18 2.95573e-17)
(0.945366 1.4139e-17 3.04091e-17)
(0.936912 -1.83888e-17 1.237e-17)
(0.936912 -1.42032e-17 3.33603e-17)
(0.928324 -5.66724e-17 1.8551e-17)
(0.928324 -1.90415e-17 5.10449e-17)
(0.919599 -2.8805e-17 1.92807e-17)
(0.919599 -2.19684e-17 3.60376e-17)
(0.910735 -9.36291e-18 2.26834e-17)
(0.910735 -5.89859e-18 3.65061e-17)
(0.90173 -1.77329e-17 1.14393e-17)
(0.90173 -1.04633e-17 2.68706e-17)
(0.892579 -5.61076e-18 1.72966e-17)
(0.892579 -1.75362e-17 1.90641e-17)
(0.883278 1.63054e-17 2.06367e-17)
(0.883278 -3.87705e-17 1.00555e-17)
(0.873823 4.97316e-18 1.28361e-17)
(0.873823 -2.04929e-17 2.05724e-17)
(0.864209 -2.10692e-17 6.9393e-18)
(0.864209 -1.79354e-17 2.7664e-17)
(0.854427 -3.0918e-17 1.04587e-17)
(0.854427 -3.24961e-17 3.09648e-17)
(0.844472 -2.40219e-17 3.25832e-18)
(0.844472 -2.16548e-17 2.81206e-17)
(0.834335 -2.18045e-17 6.33862e-18)
(0.834335 -1.54484e-17 2.36061e-17)
(0.824005 -3.65065e-17 4.71535e-18)
(0.824005 -2.26067e-17 2.45124e-17)
(0.813473 -4.54943e-17 1.31541e-17)
(0.813473 -1.08893e-17 1.00492e-17)
(0.802726 -4.05297e-17 2.04572e-17)
(0.802726 -1.34452e-17 1.48496e-17)
(0.79175 -1.80817e-17 1.2797e-17)
(0.79175 -2.35568e-17 1.77198e-17)
(0.780529 -2.51193e-17 5.99106e-18)
(0.780529 -2.5518e-17 1.13655e-17)
(0.769045 -2.57677e-18 6.559e-18)
(0.769045 -2.12628e-17 9.53893e-18)
(0.75728 -1.40797e-18 3.83166e-18)
(0.75728 -1.96098e-17 1.38369e-17)
(0.745209 -1.58499e-18 3.74998e-18)
(0.745209 -1.62452e-17 1.2472e-17)
(0.732809 -1.1497e-18 4.2138e-18)
(0.732809 -3.12387e-18 7.31172e-18)
(0.720049 -6.83188e-19 1.59247e-18)
(0.720049 -1.89578e-18 5.2736e-18)
(0.706898 -1.43336e-18 1.93898e-18)
(0.706898 -8.68927e-18 4.62236e-18)
(0.693318 -1.44581e-18 3.71405e-18)
(0.693318 -3.36469e-18 6.52196e-18)
(0.679267 5.37117e-19 5.0741e-18)
(0.679267 -1.1883e-18 6.97853e-18)
(0.664698 1.38567e-18 7.12229e-18)
(0.664698 -8.5767e-18 8.14862e-18)
(0.649556 -1.82845e-19 6.97142e-18)
(0.649556 -6.87948e-18 9.33414e-18)
(0.633778 -5.89882e-18 7.67948e-18)
(0.633778 -6.92978e-18 8.09118e-18)
(0.617293 -5.06893e-18 7.23215e-18)
(0.617293 -7.07854e-18 7.43499e-18)
(0.600021 -4.77389e-18 6.90083e-18)
(0.600021 -1.64324e-19 8.31373e-18)
(0.58187 -6.34525e-18 7.28269e-18)
(0.58187 2.51876e-18 7.34423e-18)
(0.562736 -7.72604e-18 7.25467e-18)
(0.562736 1.01526e-18 6.36087e-18)
(0.542506 -6.25322e-18 7.37497e-18)
(0.542506 1.36052e-18 6.17741e-18)
(0.521055 -3.48266e-18 7.07487e-18)
(0.521055 1.66826e-18 6.41251e-18)
(0.498255 -3.70256e-18 6.63731e-18)
(0.498255 7.41447e-19 6.14283e-18)
(0.473982 -4.09784e-18 6.63518e-18)
(0.473982 1.6126e-18 6.00308e-18)
(0.448135 -1.52635e-18 6.60404e-18)
(0.448135 8.03423e-19 5.59645e-18)
(0.420666 -1.39813e-18 6.43274e-18)
(0.420666 9.9627e-19 5.35218e-18)
(0.391615 -2.31942e-18 6.18193e-18)
(0.391615 4.42056e-19 5.08387e-18)
(0.36116 -7.79799e-19 5.93228e-18)
(0.36116 -1.39486e-18 4.7952e-18)
(0.329645 -1.23965e-18 5.53632e-18)
(0.329645 -1.7414e-18 4.71846e-18)
(0.297569 -4.81696e-19 5.17671e-18)
(0.297569 -1.26239e-18 4.52202e-18)
(0.265518 2.01175e-19 4.80225e-18)
(0.265518 -5.9642e-19 4.2744e-18)
(0.23405 7.67515e-20 4.42572e-18)
(0.23405 -3.0827e-19 3.98372e-18)
(0.203605 1.8908e-19 3.99035e-18)
(0.203605 -4.86084e-19 3.6686e-18)
(0.174463 3.94076e-19 3.57512e-18)
(0.174463 -4.03597e-19 3.33323e-18)
(0.146756 4.08795e-19 3.20987e-18)
(0.146756 -9.78382e-20 3.0113e-18)
(0.120514 2.383e-19 2.87207e-18)
(0.120514 1.93544e-20 2.72683e-18)
(0.0957087 2.94452e-20 2.56573e-18)
(0.0957087 -1.82092e-20 2.44463e-18)
(0.0722811 2.04904e-20 2.29264e-18)
(0.0722811 -6.0524e-20 2.17918e-18)
(0.0501626 -1.36623e-19 2.04253e-18)
(0.0501626 -8.98944e-21 1.92785e-18)
(0.0292827 -5.6898e-20 1.81317e-18)
(0.0292827 -2.72364e-20 1.71715e-18)
(0.00957311 -1.46468e-20 1.3814e-19)
(0.00957311 6.72529e-22 3.2136e-19)
(1.10184 -4.84649e-16 -1.15806e-16)
(1.10184 -4.82999e-16 -2.01352e-16)
(1.10063 -4.51915e-16 -7.82482e-17)
(1.10063 -3.77145e-16 1.33192e-16)
(1.09844 -3.63137e-16 -7.81724e-17)
(1.09844 -3.51402e-16 -1.30587e-16)
(1.09545 -3.7046e-16 -1.6534e-16)
(1.09545 -4.02739e-16 -1.35452e-16)
(1.09182 -3.76494e-16 -2.69177e-17)
(1.09182 -4.30531e-16 -1.36984e-16)
(1.08767 -3.46979e-16 -8.49733e-17)
(1.08767 -3.3684e-16 -1.22502e-17)
(1.08308 -3.22622e-16 -7.68212e-17)
(1.08308 -3.02115e-16 -3.76389e-17)
(1.07812 -3.27102e-16 -5.17005e-17)
(1.07812 -3.19824e-16 6.2742e-17)
(1.07285 -2.82823e-16 -6.49405e-18)
(1.07285 -3.30761e-16 3.42599e-17)
(1.06729 -2.83554e-16 9.03838e-17)
(1.06729 -3.57646e-16 3.85473e-17)
(1.06149 -2.83507e-16 -3.38228e-18)
(1.06149 -3.10346e-16 -6.91429e-17)
(1.05546 -2.08998e-16 4.39737e-17)
(1.05546 -1.87889e-16 -2.26318e-18)
(1.04923 -1.92187e-16 1.78604e-17)
(1.04923 -1.37367e-16 4.89275e-17)
(1.0428 -2.34227e-16 9.81791e-33)
(1.0428 -1.46696e-16 8.16298e-17)
(1.0362 -1.49031e-16 -3.41171e-17)
(1.0362 -1.34844e-16 3.82574e-18)
(1.02943 -1.04663e-16 -4.77583e-17)
(1.02943 -1.01082e-16 -4.59115e-17)
(1.0225 -1.03293e-16 2.25521e-18)
(1.0225 -7.73615e-17 -7.741e-17)
(1.01541 -7.65204e-17 1.31593e-17)
(1.01541 -2.75655e-17 -4.68707e-17)
(1.00818 -2.12677e-17 -6.06365e-17)
(1.00818 -1.0112e-17 -1.19156e-17)
(1.0008 -3.21059e-17 -3.47097e-17)
(1.0008 -4.72426e-17 2.81196e-17)
(0.993288 -5.56379e-17 -3.06124e-17)
(0.993288 -4.6661e-17 -2.36679e-18)
(0.985636 -5.81831e-17 -3.48857e-17)
(0.985636 -4.56132e-17 -1.40968e-17)
(0.977848 -8.94486e-17 -2.35349e-18)
(0.977848 -5.71471e-17 -3.957e-17)
(0.969927 -5.94191e-17 -3.95154e-17)
(0.969927 -3.6896e-17 -3.78726e-17)
(0.961873 -4.01097e-17 -5.16985e-17)
(0.961873 -9.20458e-17 -1.05687e-17)
(0.953686 -5.49767e-17 -1.50069e-17)
(0.953686 -7.35131e-17 -5.66596e-17)
(0.945366 -2.26051e-17 -2.7475e-17)
(0.945366 -5.44688e-18 -4.99018e-17)
(0.936912 -1.19304e-17 -2.83553e-17)
(0.936912 -3.68702e-17 -1.11726e-17)
(0.928324 -9.10752e-18 -1.8032e-17)
(0.928324 -3.17379e-17 -4.15204e-17)
(0.919599 -1.70476e-17 -1.54417e-17)
(0.919599 -1.22528e-17 -5.42756e-17)
(0.910735 -9.50581e-18 -2.89951e-17)
(0.910735 8.72409e-18 -3.02588e-17)
(0.90173 -1.19195e-17 -2.15599e-17)
(0.90173 -2.97416e-17 -1.5466e-17)
(0.892579 -1.5919e-17 -1.93121e-17)
(0.892579 -1.4762e-17 -1.97254e-17)
(0.883278 -1.84659e-17 -2.9467e-17)
(0.883278 -1.73386e-17 -2.23848e-17)
(0.873823 -2.1076e-17 -3.91344e-17)
(0.873823 -2.85045e-17 -2.78519e-17)
(0.864209 -3.14189e-17 -5.17027e-17)
(0.864209 -3.49235e-17 -3.17842e-17)
(0.854427 -3.36495e-17 -5.16102e-17)
(0.854427 -2.62884e-17 -1.53119e-17)
(0.844472 -3.28366e-17 -4.35129e-17)
(0.844472 -2.00749e-17 -1.65971e-17)
(0.834335 -2.7087e-17 -3.3285e-17)
(0.834335 -2.468e-17 -2.03139e-17)
(0.824005 -2.90921e-17 -2.95735e-17)
(0.824005 -2.15653e-17 -2.14072e-17)
(0.813473 -2.78543e-17 -2.58426e-17)
(0.813473 -2.78331e-17 -2.81626e-17)
(0.802726 -2.45072e-17 -1.18959e-17)
(0.802726 -1.86948e-17 -3.0991e-17)
(0.79175 -1.88726e-17 -4.36033e-18)
(0.79175 -1.49198e-17 -2.29141e-17)
(0.780529 -5.19439e-18 -4.36108e-18)
(0.780529 -2.80493e-17 -1.65944e-17)
(0.769045 -1.04319e-18 -2.57869e-18)
(0.769045 -2.15639e-17 -1.79088e-17)
(0.75728 -7.48297e-18 -2.65317e-18)
(0.75728 -7.94017e-18 -1.00435e-17)
(0.745209 -1.37421e-17 -3.82594e-18)
(0.745209 -3.15362e-17 -1.05228e-17)
(0.732809 -6.35583e-18 -2.84591e-18)
(0.732809 -2.12868e-17 -1.36036e-17)
(0.720049 -1.90916e-18 -2.51959e-18)
(0.720049 -1.6117e-17 -1.19924e-17)
(0.706898 -5.47198e-18 -1.04925e-18)
(0.706898 -1.84951e-17 -1.15053e-17)
(0.693318 -1.673e-18 -9.50898e-19)
(0.693318 -1.28755e-17 -1.21776e-17)
(0.679267 -3.29025e-18 -1.3832e-18)
(0.679267 -1.08773e-17 -8.92122e-18)
(0.664698 -5.28755e-18 -4.16701e-19)
(0.664698 -1.40108e-17 -8.5487e-18)
(0.649556 -4.60041e-19 -1.61794e-18)
(0.649556 -4.23907e-18 -9.05544e-18)
(0.633778 -3.45764e-20 -5.72711e-19)
(0.633778 -9.01196e-18 -8.24806e-18)
(0.617293 -1.40582e-18 -6.00547e-19)
(0.617293 -2.38041e-18 -8.64733e-18)
(0.600021 -3.53146e-18 -4.22549e-19)
(0.600021 -1.96033e-18 -8.46474e-18)
(0.58187 -7.17922e-18 -6.47987e-19)
(0.58187 -3.0388e-18 -9.0642e-18)
(0.562736 -6.91354e-18 -7.24966e-19)
(0.562736 -1.27981e-18 -9.56342e-18)
(0.542506 -4.35263e-18 -7.27089e-19)
(0.542506 -2.38335e-18 -9.67239e-18)
(0.521055 -1.26806e-18 -7.00767e-19)
(0.521055 2.17397e-18 -9.27066e-18)
(0.498255 -3.88415e-18 -1.05042e-18)
(0.498255 2.63605e-18 -9.18878e-18)
(0.473982 -5.65709e-18 -1.85468e-18)
(0.473982 2.16397e-18 -9.32704e-18)
(0.448135 -3.79259e-18 -2.27962e-18)
(0.448135 2.82391e-18 -9.60075e-18)
(0.420666 -2.29691e-18 -2.42147e-18)
(0.420666 8.21032e-19 -9.70841e-18)
(0.391615 -2.24856e-18 -2.52564e-18)
(0.391615 6.82852e-19 -9.70075e-18)
(0.36116 -2.92178e-18 -2.63803e-18)
(0.36116 1.82361e-18 -9.24871e-18)
(0.329645 -2.27823e-18 -2.85639e-18)
(0.329645 1.60765e-18 -8.92044e-18)
(0.297569 -1.56109e-18 -2.89245e-18)
(0.297569 2.13278e-18 -8.28482e-18)
(0.265518 -8.16734e-19 -2.88126e-18)
(0.265518 1.27689e-18 -7.58845e-18)
(0.23405 2.22285e-20 -2.72875e-18)
(0.23405 9.65788e-19 -6.95928e-18)
(0.203605 2.50679e-20 -2.57387e-18)
(0.203605 6.6105e-19 -6.27409e-18)
(0.174463 -2.13892e-19 -2.36611e-18)
(0.174463 1.71968e-19 -5.61899e-18)
(0.146756 -3.76168e-19 -2.17149e-18)
(0.146756 1.34077e-19 -4.99276e-18)
(0.120514 -2.47002e-19 -1.99906e-18)
(0.120514 2.00948e-19 -4.4571e-18)
(0.0957087 -5.22156e-20 -1.81508e-18)
(0.0957087 -7.23356e-20 -3.96792e-18)
(0.0722811 -6.29784e-20 -1.62711e-18)
(0.0722811 1.41965e-19 -3.52996e-18)
(0.0501626 -7.35799e-20 -1.44476e-18)
(0.0501626 9.1363e-20 -3.13372e-18)
(0.0292827 -5.19977e-20 -1.28885e-18)
(0.0292827 4.62588e-20 -2.78617e-18)
(0.00957311 2.26909e-20 -2.07691e-19)
(0.00957311 -1.11648e-20 -6.49701e-19)
)
;

boundaryField
{
    walls
    {
        type            fixedValue;
        value           uniform (0 0 0);
    }
    inlet
    {
        type            cyclic;
    }
    outlet
    {
        type            cyclic;
    }
    sides
    {
        type            empty;
    }
}


// ************************************************************************* //
