/*--------------------------------*- C++ -*----------------------------------*\
| =========                 |                                                 |
| \\      /  F ield         | OpenFOAM: The Open Source CFD Toolbox           |
|  \\    /   O peration     | Version:  2012                                  |
|   \\  /    A nd           | Website:  www.openfoam.com                      |
|    \\/     M anipulation  |                                                 |
\*---------------------------------------------------------------------------*/
FoamFile
{
    version     2.0;
    format      ascii;
    class       volTensorField;
    location    "9000";
    object      grad(U);
}
// * * * * * * * * * * * * * * * * * * * * * * * * * * * * * * * * * * * * * //

dimensions      [0 0 -1 0 0 0 0];


internalField   nonuniform List<tensor> 
1280
(
(1.8364e-17 -2.08774e-30 -1.22329e-32 32.5749 -3.48368e-12 -2.26742e-14 0.0939203 -5.01542e-15 -1.94567e-17)
(0 0 1.63105e-32 32.5749 9.86076e-32 2.45838e-17 0.0939203 0 1.07453e-16)
(3.56794e-17 -4.2115e-26 -1.63907e-28 32.5654 4.03998e-28 -5.98797e-15 0.284466 0 1.64218e-28)
(0 -1.82533e-29 -9.5069e-32 32.5654 -1.90909e-15 4.09116e-17 0.284466 -9.30453e-18 2.28068e-16)
(1.27961e-16 -7.86972e-27 -9.2355e-32 32.5555 4.3483e-14 -2.58963e-15 0.403575 -2.65657e-16 1.84889e-31)
(-2.65904e-17 1.18214e-29 7.69625e-32 32.5555 -4.18597e-16 3.25373e-17 0.403575 -6.63241e-18 2.41813e-16)
(0 -5.74198e-30 -8.97185e-32 32.5454 2.02098e-13 -2.79479e-15 0.415304 -5.09491e-15 -1.58477e-17)
(2.96471e-16 7.65598e-30 1.04672e-31 32.5454 -1.29991e-15 4.90744e-17 0.415304 -9.78278e-18 2.56511e-16)
(1.95043e-16 -5.63434e-30 -4.35786e-32 32.5349 -2.24429e-14 -3.63563e-15 0.427366 -5.01208e-16 -3.96937e-17)
(2.56809e-16 5.57806e-30 5.81048e-32 32.5349 -1.36969e-15 5.9883e-17 0.427366 -1.31579e-17 2.72198e-16)
(-9.21354e-17 1.76952e-31 2.8223e-32 32.5237 -2.08934e-14 -4.00935e-15 0.43977 -1.39234e-16 -5.37159e-17)
(3.68542e-16 1.80627e-30 -2.8223e-32 32.5237 -1.31718e-15 6.92732e-17 0.43977 -1.70015e-17 2.88934e-16)
(1.26072e-16 -7.43747e-29 -2.60714e-32 32.5116 2.50918e-31 -4.1855e-15 0.452517 0 -5.93413e-17)
(4.83526e-16 5.26412e-30 2.74173e-32 32.5116 -1.34451e-15 8.11434e-17 0.452517 -2.0638e-17 3.06787e-16)
(0 6.81846e-30 2.66346e-32 32.498 2.65246e-15 -4.35041e-15 0.465605 -4.09656e-17 -6.36015e-17)
(-2.39903e-16 -1.70461e-30 0 32.498 -1.35368e-15 9.71173e-17 0.465605 -2.45993e-17 3.25846e-16)
(-1.80911e-16 -1.62151e-29 -2.53346e-31 32.4817 1.62218e-15 -4.52259e-15 0.479022 -3.38525e-17 -6.79598e-17)
(7.23643e-16 1.98714e-29 2.84617e-31 32.4817 -1.38543e-15 1.03659e-16 0.479022 -2.85822e-17 3.46185e-16)
(4.38646e-16 -8.43745e-30 -1.08305e-31 32.461 6.3398e-16 -4.68454e-15 0.492746 -1.30122e-17 -7.2313e-17)
(8.4898e-16 8.04339e-30 1.00542e-31 32.461 -1.60472e-15 1.09951e-16 0.492746 -3.264e-17 3.6778e-16)
(4.39876e-16 -6.25101e-30 -9.76721e-32 32.4337 4.31312e-16 -4.83276e-15 0.506734 -5.85947e-18 -7.66466e-17)
(9.7798e-16 9.37652e-30 1.2209e-31 32.4337 -1.62403e-15 1.20781e-16 0.506734 -3.75093e-17 3.90771e-16)
(-2.77688e-16 -1.03345e-30 -8.16644e-32 32.396 8.01375e-16 -4.9662e-15 0.520919 -7.45228e-18 -8.09198e-17)
(1.11075e-15 6.07256e-30 1.42326e-31 32.396 -1.60185e-15 1.33727e-16 0.520919 -4.25764e-17 4.15132e-16)
(0 -8.8488e-30 -9.2175e-32 32.343 8.9968e-16 -5.08141e-15 0.5352 -1.8118e-17 -8.50342e-17)
(1.24741e-15 1.17984e-29 1.38262e-31 32.343 -1.56506e-15 1.57298e-16 0.5352 -4.78884e-17 4.40943e-16)
(-3.47014e-16 -6.59527e-30 -1.59445e-31 32.2682 6.94572e-16 -5.17668e-15 0.549434 -1.11533e-17 -8.89943e-17)
(1.38806e-15 8.59618e-30 1.34315e-31 32.2682 -1.52264e-15 1.61327e-16 0.549434 -5.20027e-17 4.68204e-16)
(-3.83196e-16 2.00034e-30 1.61997e-32 32.1631 9.61952e-16 -5.2439e-15 0.563429 -1.22043e-17 -9.24648e-17)
(0 2.78359e-30 8.69873e-32 32.1631 -2.59028e-15 1.52752e-16 0.563429 -5.69306e-17 4.96647e-16)
(0 -5.40826e-30 -1.26756e-31 32.0173 1.13306e-15 -5.27337e-15 0.576933 -2.12041e-17 -9.53668e-17)
(0 8.11238e-30 1.26756e-31 32.0173 -1.59972e-15 1.33e-16 0.576933 -6.8713e-17 5.26215e-16)
(-4.58687e-16 4.62445e-30 1.01372e-31 31.8186 8.2993e-16 -5.25384e-15 0.589639 -1.9115e-17 -9.72528e-17)
(-7.39415e-16 0 0 31.8186 -6.88235e-16 1.22376e-16 0.589639 -6.26858e-17 5.56462e-16)
(1.21631e-15 -4.5498e-30 -1.01654e-31 31.5534 5.78008e-16 -5.17974e-15 0.601187 -1.11933e-17 -9.82168e-17)
(-7.18306e-16 5.10387e-30 7.9748e-32 31.5534 -1.73314e-15 1.25252e-16 0.601187 -6.82369e-17 5.87366e-16)
(6.978e-16 -7.43725e-30 -7.74714e-32 31.2078 1.025e-15 -5.04466e-15 0.611181 -1.06091e-17 -9.77287e-17)
(1.45551e-15 9.91634e-30 7.74714e-32 31.2078 -1.76121e-15 1.24966e-16 0.611181 -7.61737e-17 6.18358e-16)
(-5.79621e-16 1.99329e-30 2.56963e-32 30.7687 1.43471e-15 -4.83439e-15 0.619222 -2.94787e-17 -9.5543e-17)
(2.31849e-15 4.81662e-30 1.5052e-31 30.7687 -1.88741e-15 1.3436e-16 0.619222 -8.20762e-17 6.49115e-16)
(0 9.35824e-30 2.92445e-31 30.2252 1.41932e-15 -4.55502e-15 0.624935 -2.78649e-17 -9.18892e-17)
(-3.14571e-15 -4.67912e-30 -1.46222e-31 30.2252 -1.82939e-15 1.08785e-16 0.624935 -8.83416e-17 6.79105e-16)
(0 -1.13639e-29 -3.5512e-31 29.571 1.47189e-15 -4.21401e-15 0.628021 -3.05938e-17 -8.65802e-17)
(2.65892e-15 1.36366e-29 3.5512e-31 29.571 -1.82091e-15 1.06685e-16 0.628021 -9.56291e-17 7.07348e-16)
(-7.08271e-16 -4.63455e-30 -1.77257e-31 28.8046 1.06975e-15 -3.82353e-15 0.628289 -3.17871e-17 -8.00881e-17)
(0 1.10394e-29 3.44982e-31 28.8046 -1.8171e-15 1.32188e-16 0.628289 -9.8454e-17 7.34051e-16)
(0 -1.07243e-29 -3.35134e-31 27.9311 8.33033e-16 -3.40786e-15 0.625681 -1.46211e-17 -7.28074e-17)
(0 1.28691e-29 3.35134e-31 27.9311 -1.40516e-15 1.02065e-16 0.625681 -1.01606e-16 7.5851e-16)
(-1.59279e-15 -8.52526e-30 -3.9129e-31 26.9614 1.73752e-15 -2.98019e-15 0.620285 -2.2899e-17 -6.48089e-17)
(3.18558e-15 1.25018e-29 4.55793e-31 26.9614 -2.19342e-15 8.69997e-17 0.620285 -9.99261e-17 7.80073e-16)
(-8.4054e-16 1.41257e-29 6.65766e-31 25.9116 2.85444e-15 -2.55501e-15 0.612318 -5.7909e-17 -5.66246e-17)
(-3.36216e-15 -1.21449e-29 -6.32545e-31 25.9116 -3.93783e-15 9.90475e-17 0.612318 -1.12003e-16 7.99145e-16)
(-8.84446e-16 1.97461e-30 3.39166e-32 24.8012 2.37474e-15 -2.16038e-15 0.6021 -7.81818e-17 -4.90643e-17)
(0 0 0 24.8012 -3.37614e-15 1.00488e-16 0.6021 -1.39655e-16 8.15588e-16)
(0 -1.33716e-29 -1.59209e-29 23.6514 7.42787e-16 -3.72507e-16 0.590019 -3.75253e-17 -4.69462e-18)
(3.71161e-15 1.33716e-29 3.58167e-31 23.6514 -1.88047e-15 7.7522e-17 0.590019 -1.45848e-16 8.29687e-16)
(0 -3.34658e-59 -7.00649e-46 22.483 0 -1.5013e-59 0.576487 0 -4.93038e-32)
(3.88288e-15 1.48455e-29 3.47942e-31 22.483 -2.16807e-15 7.56691e-17 0.576487 -1.46988e-16 8.41336e-16)
(-4.05517e-15 1.29726e-29 4.04516e-31 21.3153 1.24294e-15 7.18639e-16 0.56191 -1.95955e-17 -1.64155e-17)
(4.05098e-15 -5.40814e-30 -2.25339e-31 21.3153 -2.75389e-15 8.87229e-17 0.56191 -1.6242e-16 8.51577e-16)
(-1.05385e-15 3.72471e-30 2.97316e-32 20.1646 1.61353e-15 8.72781e-16 0.546664 -4.71987e-17 -2.20541e-17)
(4.21541e-15 -1.75125e-30 0 20.1646 -2.79799e-15 9.25387e-17 0.546664 -1.69672e-16 8.6023e-16)
(-1.09395e-15 1.04782e-29 2.39e-31 19.0442 2.63895e-15 9.51113e-16 0.531075 -4.14413e-17 -2.59948e-17)
(-9.57721e-16 -3.40251e-30 -1.06328e-31 19.0442 -2.80845e-15 6.52933e-17 0.531075 -1.7508e-16 8.68111e-16)
(1.53815e-15 2.3931e-30 4.467e-31 17.9642 3.77544e-15 1.03605e-15 0.515414 -1.08908e-16 -2.78684e-17)
(4.53189e-15 -8.26344e-30 -5.16465e-31 17.9642 -2.99257e-15 7.38095e-17 0.515414 -1.89229e-16 8.74617e-16)
(-1.17089e-15 -1.25927e-30 -8.07794e-32 16.9316 2.81924e-15 1.05163e-15 0.4999 -1.11105e-16 -3.25668e-17)
(0 6.42203e-30 2.00688e-31 16.9316 -2.87955e-15 8.12702e-17 0.4999 -2.0791e-16 8.81676e-16)
(-2.96372e-15 8.19495e-30 3.09083e-31 15.9507 2.26853e-15 1.09129e-15 0.484699 -5.72089e-17 -3.04786e-17)
(4.83074e-15 0 -9.74796e-32 15.9507 -2.99171e-15 4.96815e-17 0.484699 -2.24481e-16 8.88054e-16)
(1.24337e-15 -8.0092e-30 -1.07082e-31 15.0237 2.43205e-15 1.10873e-15 0.469933 -8.32306e-17 -3.69938e-17)
(4.97347e-15 6.06059e-30 1.89393e-31 15.0237 -3.73461e-15 1.14762e-16 0.469933 -2.41797e-16 8.94804e-16)
(0 -8.83136e-30 -4.59967e-31 14.1513 1.38189e-15 1.03217e-15 0.455687 -7.11658e-17 -3.34209e-17)
(5.11181e-15 8.83136e-30 4.59967e-31 14.1513 -2.9868e-15 1.62913e-16 0.455687 -2.58205e-16 9.02979e-16)
(-1.31147e-15 1.33895e-29 5.42445e-31 13.3326 2.95402e-16 9.94315e-16 0.442015 -1.84796e-17 -3.41174e-17)
(-5.24588e-15 -1.1439e-29 -5.36203e-31 13.3326 -2.15326e-15 4.73645e-17 0.442015 -2.70943e-16 9.11997e-16)
(1.34395e-15 6.38183e-30 2.57389e-31 12.5662 2.90072e-17 9.13001e-16 0.428949 -1.16391e-18 -3.28272e-17)
(-6.93975e-15 -5.55622e-30 -8.68159e-32 12.5662 -1.75778e-15 -4.43909e-17 0.428949 -2.99052e-16 9.1964e-16)
(-1.37545e-15 1.00414e-29 3.37417e-31 11.8498 -5.95954e-16 8.64319e-16 0.416501 -4.40208e-17 -3.04322e-17)
(3.9825e-15 -5.3976e-30 -2.53012e-31 11.8498 2.1683e-16 -4.66481e-17 0.416501 -3.01138e-16 9.28299e-16)
(1.39855e-16 -3.9732e-30 -3.27719e-31 11.1809 -1.19355e-15 8.10656e-16 0.40467 -4.36517e-17 -4.76301e-18)
(8.29608e-15 7.86526e-30 2.45789e-31 11.1809 4.15766e-16 -4.34167e-17 0.40467 -2.6622e-16 9.37146e-16)
(-1.43563e-15 -3.50325e-46 0 10.5567 0 7.52432e-16 0.393446 1.57772e-30 1.99616e-17)
(5.7425e-15 0 0 10.5567 -1.77882e-15 3.87067e-17 0.393446 -2.5192e-16 9.47116e-16)
(0 6.68998e-30 2.31956e-31 9.97437 1.38287e-15 6.73445e-16 0.382811 -2.69108e-17 4.60535e-17)
(-2.7857e-15 -4.9484e-30 -1.54637e-31 9.97437 -2.36587e-15 6.10359e-17 0.382811 -2.67303e-16 9.59542e-16)
(-2.98473e-15 3.87031e-30 7.51114e-32 9.43114 2.48124e-15 6.00436e-16 0.372742 -8.55802e-17 6.94564e-17)
(5.96945e-15 4.80713e-30 1.50223e-31 9.43114 -3.70792e-15 6.79863e-17 0.372742 -2.90587e-16 9.72402e-16)
(-7.18757e-15 1.51163e-29 2.18901e-31 8.92424 2.18957e-15 7.20943e-16 0.363216 -1.13643e-16 9.56268e-17)
(2.62892e-15 -9.3398e-30 -2.18901e-31 8.92424 -4.63545e-15 1.94908e-16 0.363216 -3.48017e-16 9.87708e-16)
(-1.81507e-15 -5.21651e-30 -3.5442e-31 8.45105 1.01247e-15 7.56947e-16 0.354204 -6.62729e-17 1.27099e-16)
(1.2368e-14 9.07316e-30 3.5442e-31 8.45105 -1.90851e-15 1.84847e-16 0.354204 -3.71485e-16 1.00679e-15)
(9.09197e-16 -2.47348e-30 -6.88605e-32 8.00908 1.80085e-17 5.5859e-16 0.345681 -1.9008e-17 1.57974e-16)
(-2.48096e-15 8.81414e-30 2.06581e-31 8.00908 -1.44758e-15 1.46351e-17 0.345681 -3.58545e-16 1.02537e-15)
(-1.59687e-15 4.0713e-30 6.68947e-32 7.59602 -6.66701e-16 5.38692e-16 0.337618 -4.23671e-17 1.84195e-16)
(0 2.14063e-30 1.33789e-31 7.59602 -2.9096e-15 -2.17326e-17 0.337618 -3.71163e-16 1.043e-15)
(2.34133e-15 -1.93822e-30 -1.2997e-31 7.20968 8.18043e-29 3.15698e-16 0.32999 -1.57772e-30 2.1433e-16)
(0 6.23856e-30 2.5994e-31 7.20968 -3.08839e-15 -3.44707e-17 0.32999 -3.86332e-16 1.06263e-15)
(1.64525e-15 6.15511e-30 -6.53423e-32 6.84805 1.75548e-15 4.93038e-32 0.32277 -6.35803e-17 2.3542e-16)
(6.58102e-15 -2.02015e-30 -6.31298e-32 6.84805 -2.71149e-15 -2.01932e-17 0.32277 -4.18914e-16 1.08188e-15)
(-3.87816e-15 9.76321e-30 3.06638e-31 6.50926 1.76661e-15 4.28427e-16 0.315934 -1.0437e-16 2.66964e-16)
(1.33488e-14 -3.92496e-30 -1.83983e-31 6.50926 -3.36509e-15 3.81976e-17 0.315934 -4.09233e-16 1.10448e-15)
(2.14648e-15 -5.71937e-30 -2.38307e-31 6.19161 1.38948e-15 2.62861e-16 0.309458 -6.84804e-17 3.04331e-16)
(-2.14648e-15 7.62583e-30 2.97884e-31 6.19161 -4.75092e-15 -4.84015e-18 0.309458 -4.59009e-16 1.12836e-15)
(0 -1.29642e-29 -2.8938e-31 5.89351 1.79843e-15 2.82934e-16 0.30332 -7.19365e-17 3.30989e-16)
(1.371e-14 1.29642e-29 2.8938e-31 5.89351 -3.85753e-15 4.90625e-17 0.30332 -5.14299e-16 1.15234e-15)
(-1.7356e-15 1.89089e-30 -5.62238e-32 5.61351 2.69171e-15 3.92559e-16 0.297499 -1.15716e-16 3.66279e-16)
(6.9424e-15 3.59832e-30 1.12448e-31 5.61351 -3.16898e-15 1.26668e-16 0.297499 -5.08493e-16 1.18032e-15)
(1.75701e-15 3.37045e-30 1.09237e-31 5.35027 3.75788e-15 2.99628e-16 0.291976 -1.73254e-16 4.11147e-16)
(-1.96785e-15 0 -5.46187e-32 5.35027 -4.72322e-15 2.1831e-17 0.291976 -5.52258e-16 1.21011e-15)
(-7.24566e-15 1.40625e-29 1.59178e-31 5.10257 3.92182e-15 2.50869e-16 0.286732 -2.41827e-16 4.48772e-16)
(1.91167e-15 -8.48951e-30 -1.59178e-31 5.10257 -5.84244e-15 1.43362e-16 0.286732 -6.03783e-16 1.23865e-15)
(0 1.31954e-29 3.60813e-31 4.86928 2.1389e-15 4.18403e-16 0.28175 -2.02455e-16 4.86517e-16)
(0 -1.31954e-29 -3.60813e-31 4.86928 -3.99709e-15 2.42176e-16 0.28175 -6.45048e-16 1.27595e-15)
(0 -6.40937e-30 -2.00293e-31 4.64938 4.64955e-16 3.72584e-16 0.277013 -4.50101e-17 5.28448e-16)
(7.27517e-15 6.40937e-30 2.00293e-31 4.64938 -2.07824e-15 1.10707e-16 0.277013 -6.44574e-16 1.31168e-15)
(1.83864e-15 4.06814e-31 9.72874e-32 4.44192 3.35367e-16 9.96864e-17 0.272507 -1.03735e-17 5.67674e-16)
(-3.50515e-15 0 -4.86437e-32 4.44192 -1.86289e-15 -2.28482e-18 0.272507 -6.56815e-16 1.34913e-15)
(-1.85814e-15 1.86563e-30 0 4.24603 2.32858e-15 1.42844e-18 0.268217 -8.65407e-17 6.0542e-16)
(7.43257e-15 0 0 4.24603 -2.44127e-15 -3.11061e-17 0.268217 -6.6568e-16 1.38493e-15)
(0 2.93798e-30 -1.75162e-46 4.06091 2.45824e-15 -1.47797e-60 0.264131 -2.11848e-16 6.37854e-16)
(-3.30788e-15 0 -1.83624e-31 4.06091 -3.91589e-15 3.23476e-17 0.264131 -6.90585e-16 1.42438e-15)
(3.21344e-15 -2.85411e-30 -4.45955e-32 3.88583 1.84804e-15 2.5844e-16 0.260237 -1.0895e-16 6.74387e-16)
(0 5.70822e-30 4.45955e-32 3.88583 -3.9948e-15 1.65621e-17 0.260237 -7.60905e-16 1.46586e-15)
(3.82953e-15 -9.24476e-30 -1.29967e-31 3.72011 2.29874e-15 3.05998e-16 0.256523 -1.40921e-16 7.1149e-16)
(7.65905e-15 5.54526e-30 1.29967e-31 3.72011 -2.17607e-15 8.28066e-17 0.256523 -8.06765e-16 1.50893e-15)
(3.03259e-15 -2.69348e-30 -4.20856e-32 3.56313 7.55583e-16 2.32919e-16 0.252978 -1.7898e-16 7.51644e-16)
(7.73222e-15 5.38696e-30 4.20856e-32 3.56313 -1.23604e-15 2.61951e-17 0.252978 -7.93078e-16 1.5572e-15)
(0 0 8.17683e-32 3.41432 2.46519e-32 2.27934e-17 0.249593 -2.6492e-46 7.88163e-16)
(0 0 4.08842e-32 3.41432 -1.96918e-15 -1.02206e-16 0.249593 -8.1892e-16 1.60148e-15)
(0 -1.27094e-29 -3.9717e-31 3.27314 1.87209e-15 -1.27776e-16 0.246358 -1.04822e-16 8.25103e-16)
(7.87539e-15 1.27094e-29 3.9717e-31 3.27314 -2.87183e-15 -5.94741e-17 0.246358 -8.56729e-16 1.64732e-15)
(0 -9.87729e-30 -3.08665e-31 3.13912 1.76596e-15 -3.77597e-16 0.243265 -1.79954e-16 8.59559e-16)
(0 9.87729e-30 3.47248e-31 3.13912 -4.31211e-15 -4.81041e-17 0.243265 -9.05884e-16 1.69626e-15)
(-4.00732e-15 1.08772e-29 2.2489e-31 3.0118 2.07121e-15 -3.18486e-16 0.240305 -9.42745e-17 8.91346e-16)
(0 -7.19649e-30 -2.2489e-31 3.0118 -4.45055e-15 -1.45743e-16 0.240305 -9.70768e-16 1.74499e-15)
(0 4.66069e-30 1.45647e-31 2.89077 3.25289e-15 -2.97289e-16 0.237472 -2.40422e-16 9.3442e-16)
(5.45918e-15 -2.33035e-30 -7.28233e-32 2.89077 -4.00387e-15 -1.37584e-16 0.237472 -1.00991e-15 1.79055e-15)
(-2.03758e-15 4.05572e-30 7.07444e-32 2.77563 4.4467e-15 -4.99818e-16 0.234758 -2.98088e-16 9.74452e-16)
(0 0 0 2.77563 -4.678e-15 -5.34785e-17 0.234758 -1.08763e-15 1.84142e-15)
(2.05423e-15 -6.15158e-30 -2.06174e-31 2.66603 5.19749e-15 -4.88693e-16 0.232157 -4.6087e-16 1.01538e-15)
(0 4.39839e-30 2.06174e-31 2.66603 -4.69796e-15 -7.7226e-17 0.232157 -1.18347e-15 1.89531e-15)
(-2.07069e-15 -2.53024e-30 -6.67628e-32 2.56165 4.98498e-15 -3.39183e-16 0.229662 -4.49297e-16 1.06079e-15)
(0 4.27282e-30 1.33526e-31 2.56165 -5.92092e-15 5.09213e-17 0.229662 -1.24991e-15 1.95031e-15)
(0 -4.15084e-30 -1.29714e-31 2.46217 5.16096e-15 -3.55785e-16 0.227267 -4.49478e-16 1.11384e-15)
(2.33672e-15 2.07542e-30 1.94571e-31 2.46217 -7.52196e-15 3.919e-16 0.227267 -1.34518e-15 2.01296e-15)
(-2.10305e-15 -2.33383e-30 -1.26011e-31 2.3673 4.33993e-15 -3.28375e-16 0.224968 -5.09232e-16 1.15625e-15)
(0 4.03234e-30 2.52021e-31 2.3673 -5.5467e-15 3.8577e-16 0.224968 -1.53439e-15 2.08794e-15)
(2.11896e-15 -3.66851e-30 -1.66621e-31 2.27679 3.09788e-15 3.38897e-30 0.222759 -3.17123e-16 1.20063e-15)
(8.47585e-15 1.95861e-30 -6.12067e-32 2.27679 -2.8516e-15 -5.30734e-16 0.222759 -1.58592e-15 2.15942e-15)
(-4.26943e-15 -6.11199e-30 -4.16216e-31 2.19038 2.92193e-15 5.1109e-17 0.220635 -2.91746e-16 1.25227e-15)
(1.06811e-14 7.6108e-30 2.97297e-31 2.19038 -3.57529e-15 -1.45466e-15 0.220635 -1.59845e-15 2.19619e-15)
(-6.92156e-17 3.52862e-30 1.73286e-31 2.10785 2.43611e-15 -3.87062e-16 0.218591 -2.99892e-16 1.26201e-15)
(-2.08109e-15 0 -5.77619e-32 2.10785 -3.9195e-15 -2.18224e-15 0.218591 -1.74757e-15 2.22474e-15)
(-2.16575e-15 1.67736e-30 0 2.02897 2.43971e-15 -4.8624e-16 0.216624 -2.06418e-16 1.30928e-15)
(8.663e-15 1.79561e-30 1.12226e-31 2.02897 -2.19066e-15 -2.1912e-15 0.216624 -1.82669e-15 2.22754e-15)
(1.96397e-15 3.48871e-30 1.09022e-31 1.95355 3.39658e-15 -7.05836e-16 0.21473 -3.18559e-16 1.36943e-15)
(-1.96397e-15 -1.74435e-30 0 1.95355 -3.39887e-15 -2.19879e-15 0.21473 -1.81918e-15 2.26217e-15)
(0 6.77822e-30 2.11819e-31 1.88141 4.20965e-15 -5.3184e-16 0.212903 -4.3313e-16 1.4096e-15)
(-8.78479e-15 -6.77822e-30 -2.11819e-31 1.88141 -5.11995e-15 -2.65921e-15 0.212903 -1.93907e-15 2.26426e-15)
(2.21121e-15 -4.87372e-30 -2.05772e-31 1.81236 4.51361e-15 -3.66856e-16 0.211142 -5.25089e-16 1.45495e-15)
(8.84486e-15 3.29236e-30 2.05772e-31 1.81236 -3.73795e-15 -2.44005e-15 0.211142 -2.06766e-15 2.27088e-15)
(-1.37494e-15 -4.75779e-30 -7.84892e-31 1.74625 5.2349e-15 3.50057e-30 0.209442 -5.31129e-16 1.51861e-15)
(3.60104e-15 3.19837e-30 9.9949e-32 1.74625 -2.62209e-15 -2.18086e-15 0.209442 -2.09256e-15 2.28771e-15)
(5.7391e-15 -1.08241e-29 -1.94191e-31 1.68292 6.00547e-17 -7.10985e-16 0.2078 -7.39112e-16 1.61771e-15)
(8.96345e-15 9.32119e-30 0 1.68292 -2.4337e-15 -2.40797e-15 0.2078 -2.21634e-15 2.31102e-15)
(3.39837e-15 -9.80909e-45 0 1.62222 1.91369e-29 -1.13542e-15 0.206213 -1.57772e-30 1.64133e-15)
(-1.24204e-14 -9.05509e-30 0 1.62222 -3.32973e-15 -3.01253e-15 0.206213 -2.35508e-15 2.31415e-15)
(-2.27002e-15 1.72917e-31 0 1.56402 2.12191e-15 -1.08802e-15 0.204679 -1.39372e-16 1.67353e-15)
(0 2.93219e-30 0 1.56402 -4.13941e-15 -3.30122e-15 0.204679 -2.44653e-15 2.25263e-15)
(2.28443e-15 4.2022e-30 -1.7803e-31 1.50821 3.58806e-15 -7.11737e-16 0.203193 -6.00728e-16 1.69997e-15)
(9.13773e-15 -1.13939e-29 1.7803e-31 1.50821 -3.3574e-15 -2.6083e-15 0.203193 -2.54037e-15 2.08765e-15)
(2.29873e-15 -9.82004e-30 0 1.45464 3.25243e-15 -6.88149e-16 0.201754 -3.66266e-16 1.82329e-15)
(9.19492e-15 8.3015e-30 0 1.45464 -5.11845e-15 -2.06977e-15 0.201754 -2.59838e-15 1.86945e-15)
(0 -5.37634e-30 -3.36021e-31 1.40323 5.59542e-15 -1.22114e-15 0.20036 -5.41744e-16 1.90003e-15)
(3.02661e-15 5.37634e-30 -3.36021e-31 1.40323 -8.08701e-15 -2.43588e-15 0.20036 -2.88328e-15 1.61537e-15)
(0 -2.61143e-30 3.26429e-31 1.35385 6.22393e-15 -9.12477e-16 0.199006 -1.06943e-15 1.96911e-15)
(9.30806e-15 2.61143e-30 -3.26429e-31 1.35385 -6.31186e-15 -2.18706e-15 0.199006 -3.23182e-15 1.32454e-15)
(-4.68201e-15 7.81406e-30 -3.1711e-31 1.30641 3.96047e-15 -3.87057e-16 0.197692 -7.62185e-16 2.06326e-15)
(9.36402e-15 -2.53688e-30 3.1711e-31 1.30641 -3.44371e-15 -2.22954e-15 0.197692 -3.30277e-15 1.12018e-15)
(0 2.46446e-30 0 1.26083 3.19333e-15 -5.63179e-16 0.196415 -4.35762e-16 2.14491e-15)
(0 -7.39337e-30 0 1.26083 -2.76624e-15 -2.83021e-15 0.196415 -3.24376e-15 8.68971e-16)
(2.69552e-15 -2.3941e-30 0 1.217 2.29146e-15 -1.39476e-15 0.195172 -5.64312e-16 2.23725e-15)
(0 0 -2.99263e-31 1.217 -4.561e-15 -2.86781e-15 0.195172 -3.24271e-15 5.83909e-16)
(-9.52965e-15 5.64304e-30 0 1.17485 7.11307e-16 -9.90029e-16 0.193963 -1.67285e-16 2.23114e-15)
(-1.90593e-14 0 2.90719e-31 1.17485 -5.86831e-15 -3.95124e-15 0.193963 -3.64254e-15 3.16254e-16)
(2.69159e-15 -1.07098e-29 -2.8242e-31 1.1343 7.84486e-16 -5.42939e-16 0.192783 -6.68714e-17 2.27335e-15)
(9.58414e-15 2.25936e-30 0 1.1343 -2.58987e-15 -3.92396e-15 0.192783 -3.89367e-15 -1.46993e-16)
(0 2.19486e-30 -5.48715e-31 1.09528 4.14774e-15 -1.00872e-15 0.191632 -7.69836e-16 2.44277e-15)
(9.63829e-15 0 5.48715e-31 1.09528 -7.77694e-16 -2.69312e-15 0.191632 -3.85276e-15 -4.66335e-16)
(-4.84605e-15 2.5142e-30 -5.3305e-31 1.05771 2.1535e-15 -1.23025e-15 0.190508 -6.84744e-16 2.56003e-15)
(7.29146e-15 0 4.01792e-31 1.05771 -2.60335e-15 -2.90252e-15 0.190508 -3.9173e-15 -5.77938e-16)
(-2.4364e-15 3.13925e-30 -5.17833e-31 1.02154 9.10237e-16 -8.8649e-16 0.189408 -8.46341e-17 2.68593e-15)
(-2.33211e-15 0 5.17833e-31 1.02154 -3.31839e-15 -3.48528e-15 0.189408 -4.104e-15 -7.20375e-16)
(4.71522e-15 -5.36213e-30 0 0.986689 2.52315e-15 -1.25986e-15 0.188331 -2.93038e-16 2.7835e-15)
(9.79876e-15 4.0244e-30 -5.86842e-31 0.986689 -1.92739e-15 -3.24983e-15 0.188331 -4.26524e-15 -5.20936e-16)
(4.66376e-15 -1.27053e-30 -4.88688e-31 0.953108 3.08466e-15 -1.47653e-15 0.187275 -6.78536e-16 2.70098e-15)
(-2.20086e-15 -1.95475e-30 9.77377e-31 0.953108 -2.6758e-15 -3.46207e-15 0.187275 -4.31891e-15 -8.48213e-16)
(-6.7603e-16 -1.27164e-30 -4.74737e-31 0.920741 2.77601e-15 -1.62186e-15 0.186239 -5.35055e-16 2.70684e-15)
(-9.90417e-15 0 0 0.920741 -3.51262e-15 -7.12463e-15 0.186239 -4.52096e-15 -1.77867e-15)
(0 0 -9.22369e-31 0.889532 3.10492e-15 -1.87204e-15 0.18522 -5.91951e-16 2.79182e-15)
(9.95643e-15 1.84474e-30 7.51316e-31 0.889532 -1.28738e-15 -9.16549e-15 0.18522 -4.66542e-15 -1.76359e-15)
(0 -3.58415e-30 0 0.859432 3.34797e-15 -1.41393e-15 0.184216 -7.06337e-16 2.90624e-15)
(0 3.58415e-30 -8.96038e-31 0.859432 -9.84949e-16 -8.05976e-15 0.184216 -4.66792e-15 -1.70019e-15)
(0 0 -8.70458e-31 0.830393 3.93565e-15 -1.15765e-15 0.183227 -7.33269e-16 3.0674e-15)
(-3.92019e-15 3.48183e-30 0 0.830393 -1.01419e-15 -7.69153e-15 0.183227 -4.80059e-15 -1.70343e-15)
(0 0 -1.69122e-30 0.80237 5.30654e-15 -1.59118e-15 0.18225 -1.01234e-15 3.17951e-15)
(0 0 1.69122e-30 0.80237 -1.823e-16 -6.48893e-15 0.18225 -4.87612e-15 -1.24574e-15)
(-3.69956e-15 0 0 0.775318 4.70582e-15 -2.0143e-15 0.181283 -1.41064e-15 3.1979e-15)
(3.69956e-15 3.28587e-30 8.43607e-30 0.775318 -1.45496e-15 -7.60556e-32 0.181283 -5.04243e-15 -3.9443e-31)
(-2.55336e-15 4.24661e-30 -3.19207e-30 0.749198 2.16868e-15 -1.45798e-15 0.180325 -7.8689e-16 2.97932e-15)
(0 -3.19207e-30 3.19207e-30 0.749198 -1.52468e-15 -1.06575e-16 0.180325 -5.37835e-15 -2.32505e-16)
(0 0 0 0.723969 1.82302e-15 -1.10143e-15 0.179375 -2.52142e-16 2.94324e-15)
(0 0 1.55047e-30 0.723969 2.34426e-16 -1.6857e-15 0.179375 -5.29495e-15 -6.10533e-16)
(2.57858e-15 -1.05965e-30 0 0.699594 1.8879e-15 -1.43503e-15 0.17843 -6.59548e-16 2.91305e-15)
(0 0 1.50621e-30 0.699594 6.4625e-17 -1.80688e-15 0.17843 -5.06934e-15 -3.09262e-16)
(2.59109e-15 -4.028e-30 1.46321e-30 0.676038 1.47054e-15 -1.52391e-15 0.177488 -3.00853e-16 2.72584e-15)
(0 2.92641e-30 -1.46321e-30 0.676038 8.40566e-16 -1.27321e-15 0.177488 -5.42028e-15 -3.61836e-16)
(3.20079e-15 0 0 0.653268 1.56538e-15 -9.44619e-16 0.176548 -4.75916e-16 2.60123e-15)
(7.21337e-15 2.84287e-30 3.90927e-32 0.653268 1.90694e-15 -8.01406e-16 0.176548 -4.98601e-15 -1.08584e-16)
(3.10941e-15 0 -2.76171e-30 0.631249 1.44846e-15 -8.86641e-16 0.175608 -3.7095e-16 2.46506e-15)
(-2.40368e-14 0 2.52232e-30 0.631249 9.20705e-16 2.58351e-30 0.175608 -5.00815e-15 0)
(3.02065e-15 0 -1.34144e-30 0.609952 2.06221e-15 -2.499e-15 0.174667 -4.38108e-16 1.99589e-15)
(-3.02065e-15 0 2.68287e-30 0.609952 1.02469e-15 6.48057e-15 0.174667 -4.88332e-15 -1.31673e-15)
(-2.64049e-15 9.97324e-31 0 0.589348 4.19196e-15 -2.792e-15 0.173721 -7.50721e-16 1.39671e-15)
(0 2.60628e-30 -1.30314e-30 0.589348 3.89915e-17 5.48538e-15 0.173721 -4.73457e-15 -1.29235e-15)
(0 -2.53188e-30 0 0.569406 5.72331e-15 -1.58666e-15 0.17277 -1.74177e-15 1.15969e-15)
(0 2.53188e-30 -1.26594e-30 0.569406 -1.79693e-15 2.84798e-15 0.17277 -5.07232e-15 -7.98291e-16)
(0 0 0 0.550102 4.29431e-15 -1.14184e-15 0.171811 -1.74107e-15 9.30487e-16)
(-2.76926e-15 2.4596e-30 0 0.550102 -1.7879e-15 2.98494e-15 0.171811 -5.3164e-15 -5.70555e-16)
(-5.3537e-15 1.63982e-30 0 0.531408 2.76403e-15 -1.30832e-15 0.170842 -9.37336e-16 7.40181e-16)
(1.07074e-14 -9.28837e-31 0 0.531408 2.93284e-16 1.8807e-15 0.170842 -4.07211e-15 -1.94203e-16)
(0 0 1.16059e-30 0.5133 3.95097e-15 -3.95493e-16 0.169861 -8.43635e-16 5.76106e-16)
(1.07554e-14 -1.04918e-30 -1.16059e-30 0.5133 1.20041e-15 -2.71743e-16 0.169861 -3.89027e-15 -2.08033e-16)
(0 0 0 0.495754 3.98835e-15 -7.80104e-16 0.168866 -1.79268e-15 7.48765e-16)
(0 0 8.10018e-31 0.495754 4.9915e-16 0 0.168866 -2.22486e-15 -4.93038e-32)
(-2.46632e-15 2.19053e-30 0 0.478746 3.12625e-15 -5.93522e-16 0.167853 -9.19861e-16 4.26506e-16)
(0 0 1.09527e-30 0.478746 1.88819e-15 9.26081e-16 0.167853 -1.52006e-15 -2.59981e-16)
(0 -2.128e-30 0 0.462256 3.61095e-15 -8.18582e-16 0.166821 -1.28431e-15 4.95211e-16)
(0 2.128e-30 -1.064e-30 0.462256 2.34898e-15 4.68816e-16 0.166821 -1.36197e-15 -5.2077e-17)
(-1.91889e-15 -6.42374e-31 0 0.446261 3.78231e-15 -2.13589e-15 0.165767 -1.33081e-15 3.09785e-17)
(0 0 1.03362e-30 0.446261 2.08227e-15 -3.23428e-16 0.165767 -5.97574e-16 -1.38153e-16)
(-5.49558e-15 1.11612e-30 1.05097e-45 0.430741 2.7166e-15 2.45654e-31 0.164688 -1.4905e-15 6.16298e-33)
(1.09912e-14 -2.34904e-30 0 0.430741 2.21147e-15 6.94887e-16 0.164688 -9.91686e-16 -4.65087e-17)
(4.39304e-15 -1.9509e-30 -9.75451e-31 0.415677 6.8542e-16 9.125e-16 0.163581 -5.80537e-16 4.36854e-16)
(0 1.9509e-30 0 0.415677 7.96669e-16 2.078e-15 0.163581 -7.00776e-16 2.30758e-16)
(0 0 -5.93586e-32 0.401048 -1.72481e-15 3.9443e-31 0.162442 -1.37307e-15 2.13862e-16)
(1.10835e-14 -2.59809e-30 0 0.401048 -4.96936e-16 -1.58623e-16 0.162442 -3.24545e-16 4.27144e-16)
(1.10739e-14 -5.09623e-30 -9.20551e-31 0.386838 -1.77253e-15 2.03693e-15 0.161269 -3.7084e-16 1.13066e-15)
(0 0 4.0324e-32 0.386838 -1.14932e-15 1.47911e-31 0.161269 -1.2329e-15 2.90565e-16)
(-2.79367e-15 7.99549e-31 0 0.373026 -7.22366e-16 -5.20471e-16 0.160058 -2.4969e-16 6.2981e-16)
(0 0 0 0.373026 -1.33555e-15 2.24679e-15 0.160058 -9.61872e-16 8.15699e-16)
(1.10751e-15 -8.32293e-31 -8.68742e-31 0.359597 1.71131e-29 -2.47813e-16 0.158803 0 7.67134e-16)
(0 0 0 0.359597 -3.32451e-16 7.71224e-16 0.158803 -7.04882e-16 6.07259e-16)
(-3.80077e-15 1.68788e-30 -7.74841e-32 0.346533 1.54683e-15 3.39535e-31 0.157502 -4.849e-16 5.58332e-16)
(0 0 0 0.346533 3.34461e-16 -1.61585e-15 0.157502 -4.42414e-16 2.77111e-16)
(0 0 0 0.333817 9.66743e-16 1.45939e-16 0.15615 -9.33588e-16 5.30924e-16)
(-1.13091e-14 4.46073e-30 1.2636e-31 0.333817 -1.17451e-15 8.53221e-31 0.15615 -1.20305e-15 0)
(-3.58686e-15 0 7.96443e-31 0.321433 8.60317e-16 -8.64637e-16 0.154741 -1.57412e-15 2.50974e-16)
(-7.76634e-15 6.49581e-30 -7.96443e-31 0.321433 -1.08011e-16 1.2869e-15 0.154741 -2.61189e-17 5.36928e-16)
(2.84924e-15 -5.30743e-31 -2.08553e-45 0.309365 -1.26597e-15 0 0.15327 -2.48505e-15 0)
(0 -8.75812e-45 1.54741e-30 0.309365 -1.19773e-29 -5.69916e-16 0.15327 0 1.02129e-16)
(5.24901e-16 -2.77853e-30 0 0.297597 -1.0892e-15 1.78232e-15 0.15173 -2.79093e-16 8.71627e-16)
(0 0 -7.51619e-31 0.297597 1.92984e-15 4.59096e-16 0.15173 -1.2958e-15 5.10151e-17)
(0 4.65932e-44 0 0.286113 2.10468e-29 1.34968e-16 0.150115 0 6.15454e-16)
(0 0 0 0.286113 5.19866e-16 -1.03518e-16 0.150115 -1.95286e-15 -7.53913e-17)
(2.88149e-15 -3.80935e-30 0 0.274897 1.45283e-15 -3.31357e-16 0.148419 -8.36989e-16 7.39607e-16)
(1.1526e-14 -2.09168e-31 1.8392e-45 0.274897 -2.13366e-15 -4.12402e-31 0.148419 -2.21096e-15 2.46519e-32)
(-8.88737e-15 1.61816e-30 -4.09492e-33 0.263934 5.3193e-16 -9.86076e-32 0.146631 -1.97097e-15 2.9507e-17)
(3.10328e-15 1.17647e-30 -6.89068e-31 0.263934 9.86076e-32 -2.27611e-16 0.146631 0 7.61525e-17)
(3.12691e-15 3.61608e-30 0 0.253207 -9.14617e-16 2.45578e-15 0.144744 -9.05631e-16 3.60829e-16)
(1.71904e-14 -9.42786e-30 0 0.253207 2.06852e-15 -1.94756e-15 0.144744 -1.60395e-15 -6.40595e-16)
(0 -1.1629e-30 0 0.242702 -3.68546e-30 1.11499e-15 0.142747 0 1.57536e-15)
(-1.16512e-14 3.53235e-30 -1.83045e-44 0.242702 -7.99441e-16 4.12422e-30 0.142747 -1.74789e-15 0)
(-2.923e-15 9.19234e-31 0 0.232401 8.52177e-16 -1.53826e-15 0.14063 -1.1255e-15 5.24732e-16)
(1.1692e-14 7.00649e-46 0 0.232401 -2.46519e-32 2.24388e-15 0.14063 -1.57772e-30 -1.50858e-17)
(-2.93307e-15 7.70496e-31 -2.23297e-33 0.222287 -1.40796e-15 1.27184e-44 0.138378 -1.99042e-15 1.60902e-17)
(0 2.45475e-30 0 0.222287 1.96705e-15 1.50952e-15 0.138378 -1.53456e-15 5.94587e-17)
(0 -1.09333e-45 -5.96168e-31 0.212344 -7.08605e-29 2.25917e-15 0.135979 0 1.59693e-15)
(1.1772e-14 -2.2637e-30 0 0.212344 5.09056e-16 2.6851e-15 0.135979 -3.13398e-15 7.78185e-17)
(-8.1693e-15 7.38249e-31 1.29795e-31 0.202553 2.54963e-15 1.97215e-31 0.133415 -2.39831e-15 4.67638e-16)
(5.21651e-15 0 -5.79149e-31 0.202553 2.47252e-16 3.04517e-15 0.133415 -4.50036e-16 8.33061e-16)
(0 2.25046e-30 0 0.192894 8.89751e-16 5.90977e-16 0.130669 -9.72516e-16 8.88117e-17)
(0 -2.25046e-30 0 0.192894 1.01192e-15 1.47946e-15 0.130669 -6.27756e-16 6.43431e-16)
(0 0 -5.28592e-33 0.183348 -2.79693e-16 3.9443e-31 0.127719 -6.42047e-16 3.80891e-17)
(-1.18876e-14 3.54261e-30 -2.73277e-31 0.183348 -4.34178e-16 5.18868e-16 0.127719 -1.40304e-15 6.17548e-16)
(4.78238e-15 0 0 0.173892 -6.92357e-16 4.11863e-15 0.12454 -3.58406e-16 1.57005e-15)
(0 -2.1238e-30 0 0.173892 -1.17529e-15 0 0.12454 -4.26317e-16 3.36002e-16)
(0 -2.06317e-30 1.28948e-31 0.164503 3.03729e-16 2.35353e-15 0.121106 -1.98999e-16 1.5581e-15)
(0 0 -1.93422e-31 0.164503 4.05368e-29 3.07883e-15 0.121106 0 1.14703e-15)
(0 -6.7537e-32 -2.23713e-32 0.155154 2.15744e-15 9.30255e-16 0.117383 -8.29244e-16 3.57557e-16)
(1.1997e-14 -3.72168e-30 0 0.155154 1.33522e-15 1.57062e-15 0.117383 -1.16555e-15 7.54405e-16)
(-3.00796e-15 6.95862e-31 -9.71732e-32 0.145817 1.97934e-15 1.04775e-16 0.113334 -2.80391e-15 4.9151e-16)
(0 0 -1.21691e-31 0.145817 1.02001e-15 3.8433e-16 0.113334 -8.832e-16 3.69468e-16)
(-6.03287e-15 3.86335e-30 1.18217e-31 0.13646 1.01141e-15 1.20108e-15 0.108916 -1.34684e-15 6.2058e-16)
(1.20657e-14 -4.17726e-30 -1.18217e-31 0.13646 1.28015e-15 2.68148e-16 0.108916 -7.28869e-16 -6.38321e-17)
(-7.16229e-15 -1.03033e-31 -1.54143e-44 0.127048 1.63503e-15 -3.62528e-30 0.104077 -1.37106e-15 6.7664e-46)