/*--------------------------------*- C++ -*----------------------------------*\
| =========                 |                                                 |
| \\      /  F ield         | OpenFOAM: The Open Source CFD Toolbox           |
|  \\    /   O peration     | Version:  2012                                  |
|   \\  /    A nd           | Website:  www.openfoam.com                      |
|    \\/     M anipulation  |                                                 |
\*---------------------------------------------------------------------------*/
FoamFile
{
    version     2.0;
    format      ascii;
    class       volScalarField;
    location    "9000";
    object      p;
}
// * * * * * * * * * * * * * * * * * * * * * * * * * * * * * * * * * * * * * //

dimensions      [0 2 -2 0 0 0 0];


internalField   nonuniform List<scalar> 
1280
(
6.29776e-16
3.98292e-15
1.35427e-15
3.98306e-15
1.39869e-15
3.98314e-15
1.27094e-15
3.98332e-15
1.21258e-15
3.98359e-15
1.18498e-15
3.98393e-15
1.15808e-15
3.98432e-15
1.12908e-15
3.98475e-15
1.10032e-15
3.98517e-15
1.0726e-15
3.98555e-15
1.04585e-15
3.98594e-15
1.01987e-15
3.98627e-15
9.94543e-16
3.98657e-15
9.6988e-16
3.98675e-15
9.45835e-16
3.98681e-15
9.22293e-16
3.98681e-15
8.99322e-16
3.98654e-15
8.76761e-16
3.98601e-15
8.54856e-16
3.98518e-15
8.33424e-16
3.98423e-15
8.12218e-16
3.98313e-15
7.91218e-16
3.98147e-15
7.70395e-16
3.97963e-15
7.4972e-16
3.97743e-15
7.29275e-16
3.97458e-15
7.08692e-16
3.97149e-15
6.87596e-16
3.96808e-15
6.66083e-16
3.96415e-15
6.44502e-16
3.95974e-15
6.22872e-16
3.95501e-15
6.00591e-16
3.94986e-15
5.77805e-16
3.94447e-15
5.54553e-16
3.93833e-15
5.30194e-16
3.93188e-15
5.05464e-16
3.92489e-15
4.79412e-16
3.9171e-15
4.53125e-16
3.90976e-15
4.26234e-16
3.90267e-15
3.98979e-16
3.89368e-15
3.71626e-16
3.8828e-15
3.4412e-16
3.87068e-15
3.171e-16
3.85844e-15
2.9017e-16
3.8462e-15
2.63265e-16
3.8315e-15
2.35164e-16
3.81626e-15
2.04935e-16
3.80179e-15
1.75564e-16
3.78708e-15
1.46568e-16
3.77028e-15
1.17836e-16
3.75147e-15
9.18068e-17
3.72992e-15
6.31936e-17
3.70922e-15
3.61776e-17
3.68697e-15
1.06351e-17
3.66336e-15
-1.54397e-17
3.64136e-15
-4.13495e-17
3.6204e-15
-6.73374e-17
3.59501e-15
-9.66151e-17
3.57124e-15
-1.26606e-16
3.54649e-15
-1.52598e-16
3.52212e-15
-1.76868e-16
3.49439e-15
-2.01818e-16
3.46778e-15
-2.29984e-16
3.43956e-15
-2.54384e-16
3.40907e-15
-2.7864e-16
3.37888e-15
-2.98831e-16
3.34507e-15
-3.15361e-16
3.30807e-15
-3.3092e-16
3.27056e-15
-3.43751e-16
3.23077e-15
-3.56674e-16
3.18919e-15
-3.65627e-16
3.14633e-15
-3.73507e-16
3.10275e-15
-3.8333e-16
3.05662e-15
-3.93425e-16
3.0085e-15
-4.0454e-16
2.96626e-15
-4.19963e-16
2.92094e-15
-4.35712e-16
2.87321e-15
-4.42771e-16
2.82877e-15
-4.51977e-16
2.7759e-15
-4.56735e-16
2.72532e-15
-4.63051e-16
2.6676e-15
-4.69383e-16
2.60594e-15
-4.74179e-16
2.54357e-15
-4.75872e-16
2.48117e-15
-4.59803e-16
2.41417e-15
-4.42399e-16
2.33773e-15
-4.24431e-16
2.25211e-15
-4.11919e-16
2.17333e-15
-3.84338e-16
2.09638e-15
-3.63653e-16
2.0213e-15
-3.50678e-16
1.959e-15
-3.41025e-16
1.89912e-15
-3.19495e-16
1.83668e-15
-2.97776e-16
1.77725e-15
-2.82296e-16
1.69908e-15
-2.51829e-16
1.62947e-15
-2.23218e-16
1.56807e-15
-1.97008e-16
1.50908e-15
-1.68202e-16
1.44662e-15
-1.26053e-16
1.39694e-15
-8.76191e-17
1.34293e-15
-4.19288e-17
1.2783e-15
-5.47269e-18
1.22953e-15
3.28828e-17
1.1843e-15
7.32655e-17
1.14145e-15
1.15825e-16
1.07699e-15
1.3877e-16
1.03394e-15
1.6458e-16
9.99928e-16
1.93118e-16
9.50841e-16
2.2497e-16
8.95603e-16
2.61291e-16
8.77221e-16
2.90879e-16
8.59836e-16
3.36741e-16
7.96118e-16
4.01686e-16
7.04644e-16
4.33796e-16
6.69673e-16
4.58276e-16
6.29686e-16
4.7745e-16
5.9241e-16
4.93928e-16
5.77666e-16
4.97158e-16
5.83168e-16
5.2115e-16
5.85696e-16
5.08681e-16
5.60455e-16
5.29306e-16
5.40858e-16
5.03729e-16
5.23161e-16
4.53314e-16
4.84729e-16
4.21908e-16
4.49463e-16
3.61342e-16
4.39483e-16
3.83262e-16
4.12489e-16
3.75796e-16
3.89361e-16
3.88147e-16
3.92317e-16
3.75775e-16
3.9761e-16
3.61762e-16
3.60075e-16
3.28252e-16
3.70485e-16
2.66898e-16
3.652e-16
2.86565e-16
3.29213e-16
2.80142e-16
3.00195e-16
2.96549e-16
2.73848e-16
2.48456e-16
2.91164e-16
2.1652e-16
2.69349e-16
2.2427e-16
2.54118e-16
2.05147e-16
2.44991e-16
1.32728e-16
1.78589e-16
1.47727e-16
1.26884e-16
1.09568e-16
1.00249e-16
3.88654e-17
5.36638e-17
-5.4075e-17
-3.86676e-18
-8.80524e-17
-6.51617e-17
-9.79695e-17
-9.45741e-17
-1.57018e-16
-1.3119e-16
-2.24912e-16
-1.64528e-16
-2.81005e-16
-2.77901e-16
-3.56382e-16
-3.02393e-16
-4.16535e-16
-3.98035e-16
-4.93288e-16
-4.85732e-16
-5.76464e-16
-5.70057e-16
-6.24235e-16
-6.12478e-16
-7.37451e-16
-6.61844e-16
-8.45954e-16
-7.69332e-16
-9.04566e-16
-8.76425e-16
-9.50586e-16
-9.28871e-16
-1.03476e-15
-1.03337e-15
-1.14449e-15
-1.12937e-15
7.87826e-16
9.61052e-16
7.88024e-16
9.61146e-16
7.88217e-16
9.61269e-16
7.88507e-16
9.61464e-16
7.8888e-16
9.61692e-16
7.89329e-16
9.61973e-16
7.89888e-16
9.62373e-16
7.9048e-16
9.62876e-16
7.91273e-16
9.63408e-16
7.92123e-16
9.63953e-16
7.93043e-16
9.64626e-16
7.9401e-16
9.65371e-16
7.95053e-16
9.66204e-16
7.96167e-16
9.6714e-16
7.97347e-16
9.68157e-16
7.98684e-16
9.6911e-16
8.00016e-16
9.70079e-16
8.01404e-16
9.71169e-16
8.02909e-16
9.72358e-16
8.04469e-16
9.73629e-16
8.06031e-16
9.75137e-16
8.07715e-16
9.76465e-16
8.09298e-16
9.77886e-16
8.11073e-16
9.79444e-16
8.13164e-16
9.81245e-16
8.15009e-16
9.83165e-16
8.16845e-16
9.84966e-16
8.19155e-16
9.86872e-16
8.21363e-16
9.89482e-16
8.23718e-16
9.92076e-16
8.26236e-16
9.94389e-16
8.28803e-16
9.96787e-16
8.31695e-16
9.9926e-16
8.34939e-16
1.00235e-15
8.37989e-16
1.00638e-15
8.41133e-16
1.0099e-15
8.44987e-16
1.01318e-15
8.48349e-16
1.01773e-15
8.52159e-16
1.02202e-15
8.56781e-16
1.02699e-15
8.60903e-16
1.03231e-15
8.65553e-16
1.03729e-15
8.70768e-16
1.04331e-15
8.76214e-16
1.04818e-15
8.81153e-16
1.05371e-15
8.86347e-16
1.06068e-15
8.91822e-16
1.06833e-15
8.97603e-16
1.0742e-15
9.02884e-16
1.07985e-15
9.09372e-16
1.08523e-15
9.16269e-16
1.0929e-15
9.20932e-16
1.10204e-15
9.27849e-16
1.10811e-15
9.32493e-16
1.11372e-15
9.34807e-16
1.12261e-15
9.40514e-16
1.131e-15
9.46828e-16
1.13882e-15
9.52818e-16
1.14502e-15
9.59537e-16
1.15353e-15
9.6603e-16
1.16129e-15
9.70257e-16
1.16927e-15
9.81738e-16
1.1806e-15
9.91089e-16
1.19104e-15
9.98328e-16
1.20158e-15
1.00678e-15
1.20777e-15
1.01434e-15
1.21391e-15
1.02107e-15
1.22445e-15
1.02933e-15
1.23489e-15
1.03923e-15
1.24288e-15
1.04861e-15
1.24831e-15
1.05993e-15
1.26051e-15
1.07096e-15
1.27243e-15
1.08665e-15
1.27684e-15
1.10244e-15
1.27351e-15
1.11614e-15
1.28175e-15
1.13288e-15
1.28688e-15
1.14802e-15
1.28628e-15
1.15934e-15
1.29477e-15
1.16955e-15
1.31246e-15
1.17884e-15
1.3192e-15
1.19005e-15
1.32509e-15
1.19836e-15
1.3353e-15
1.20661e-15
1.35256e-15
1.21505e-15
1.36147e-15
1.22392e-15
1.36208e-15
1.23357e-15
1.37024e-15
1.23366e-15
1.38098e-15
1.24032e-15
1.40004e-15
1.24835e-15
1.41189e-15
1.24724e-15
1.41685e-15
1.25339e-15
1.41524e-15
1.25645e-15
1.42899e-15
1.26752e-15
1.42598e-15
1.27622e-15
1.41723e-15
1.26117e-15
1.42498e-15
1.25521e-15
1.43372e-15
1.24729e-15
1.43875e-15
1.24854e-15
1.43536e-15
1.25936e-15
1.41293e-15
1.26949e-15
1.39918e-15
1.27409e-15
1.41676e-15
1.27868e-15
1.42774e-15
1.27207e-15
1.43317e-15
1.27668e-15
1.43429e-15
1.28148e-15
1.43194e-15
1.2868e-15
1.41584e-15
1.28227e-15
1.42044e-15
1.2793e-15
1.43582e-15
1.27752e-15
1.42991e-15
1.27722e-15
1.42706e-15
1.27857e-15
1.41682e-15
1.29379e-15
1.37669e-15
1.30226e-15
1.36344e-15
1.29309e-15
1.35568e-15
1.27775e-15
1.33197e-15
1.24506e-15
1.29334e-15
1.22977e-15
1.27541e-15
1.20898e-15
1.25594e-15
1.19456e-15
1.23555e-15
1.17511e-15
1.2028e-15
1.164e-15
1.18123e-15
1.13868e-15
1.12465e-15
1.10264e-15
1.06572e-15
1.07135e-15
1.02651e-15
1.00023e-15
9.83951e-16
9.58433e-16
8.93337e-16
9.0233e-16
8.42403e-16
8.5443e-16
8.07801e-16
7.88534e-16
7.89956e-16
6.98049e-16
7.46759e-16
6.92256e-16
7.08242e-16
6.36159e-16
6.68982e-16
5.763e-16
6.53953e-16
5.73093e-16
6.24975e-16
5.60137e-16
5.80174e-16
5.40912e-16
5.62407e-16
4.71068e-16
5.70651e-16
4.53571e-16
5.03936e-16
4.24209e-16
4.22145e-16
3.45323e-16
3.57322e-16
2.38342e-16
2.89749e-16
2.01539e-16
2.51508e-16
1.87668e-16
1.70973e-16
1.24638e-16
1.24712e-16
3.71551e-17
9.53547e-17
-9.7132e-17
-3.92429e-17
-1.5255e-16
-1.00677e-16
-1.27494e-16
-1.41137e-16
-1.77882e-16
-2.30364e-16
-2.87974e-16
-3.29777e-16
-3.69845e-16
-4.01801e-16
-4.78192e-16
-4.87275e-16
-5.31424e-16
-5.2869e-16
-5.7596e-16
-5.59782e-16
-7.13779e-16
-6.67874e-16
-8.20341e-16
-8.03457e-16
-8.31902e-16
-8.42077e-16
-8.66423e-16
-8.76941e-16
-1.11606e-15
-9.02821e-16
-1.18042e-15
-1.00143e-15
-1.203e-15
-1.15857e-15
-1.41528e-15
-1.18135e-15
-1.4387e-15
-1.20666e-15
-1.41444e-15
-1.19879e-15
-1.50346e-15
-1.40917e-15
-1.45628e-15
-1.40356e-15
-1.61032e-15
-1.34374e-15
-1.52195e-15
-1.40773e-15
-1.49918e-15
-1.50998e-15
-1.51574e-15
-1.56546e-15
-1.5945e-15
-1.59307e-15
-1.68716e-15
-1.63006e-15
-1.72191e-15
-1.65888e-15
-1.70414e-15
-1.67429e-15
-1.65609e-15
-1.68151e-15
-1.69661e-15
-1.6971e-15
-1.78417e-15
-1.71383e-15
-1.75718e-15
-1.7139e-15
-1.76651e-15
-1.70413e-15
-1.77196e-15
-1.77255e-15
-1.78111e-15
-1.81413e-15
-1.76167e-15
-1.81447e-15
-1.80249e-15
-1.80038e-15
-1.82083e-15
-1.8079e-15
-1.84246e-15
-1.78822e-15
-1.85099e-15
-1.78212e-15
-1.82579e-15
-1.81642e-15
-1.8081e-15
-1.80898e-15
-1.74767e-15
-1.81106e-15
-1.75015e-15
-1.78287e-15
-1.79553e-15
-1.78807e-15
-1.79592e-15
-1.79682e-15
-1.82098e-15
-1.80585e-15
-1.80068e-15
-1.78979e-15
-1.80186e-15
-1.81954e-15
-1.80029e-15
-1.82958e-15
-1.79646e-15
-1.84375e-15
-1.78921e-15
-1.81531e-15
-1.77973e-15
-1.81248e-15
-1.79036e-15
-1.81298e-15
-1.80986e-15
-1.82682e-15
-1.80397e-15
-1.81797e-15
-1.79646e-15
-1.80969e-15
-1.79878e-15
-1.78977e-15
-1.80026e-15
-1.80325e-15
-1.80081e-15
-1.78157e-15
-1.79011e-15
-1.74697e-15
-1.79222e-15
-1.73293e-15
-1.78492e-15
-1.7504e-15
-1.7784e-15
-1.76637e-15
-1.78345e-15
-1.75903e-15
-1.76637e-15
-1.72786e-15
-1.77326e-15
-1.71782e-15
-1.75908e-15
-1.71676e-15
-1.75778e-15
-1.73659e-15
-1.74631e-15
-1.74437e-15
-1.73536e-15
-1.74111e-15
-1.73575e-15
-1.72714e-15
-1.71403e-15
-1.70195e-15
-1.70423e-15
-1.68804e-15
-1.71737e-15
-1.6795e-15
-1.72019e-15
-1.67036e-15
-1.72421e-15
-1.64934e-15
-1.71875e-15
-1.63832e-15
-1.70939e-15
-1.64274e-15
-1.70682e-15
-1.6408e-15
-1.7054e-15
-1.6436e-15
-1.6941e-15
-1.65121e-15
-1.68356e-15
-1.63663e-15
-1.67922e-15
-1.62721e-15
-1.67567e-15
-1.62279e-15
-1.67832e-15
-1.61242e-15
-1.67645e-15
-1.60679e-15
-1.67547e-15
-1.6112e-15
-1.67531e-15
-1.60971e-15
-1.67588e-15
-1.61295e-15
-1.6771e-15
-1.5999e-15
-1.67379e-15
-1.59671e-15
-1.66598e-15
-1.6033e-15
-1.66386e-15
-1.60941e-15
-1.66471e-15
-1.60746e-15
-1.66337e-15
-1.61281e-15
-1.66487e-15
-1.62038e-15
-1.66658e-15
-1.62519e-15
-1.66849e-15
-1.62979e-15
-1.67306e-15
-1.63424e-15
-1.67779e-15
-1.63123e-15
-1.68026e-15
-1.62816e-15
-1.67811e-15
-1.62501e-15
-1.68095e-15
-1.62892e-15
-1.68157e-15
-1.63033e-15
-1.68468e-15
-1.62463e-15
-1.68562e-15
-1.62117e-15
-1.68901e-15
-1.61762e-15
-1.69029e-15
-1.61847e-15
-1.68951e-15
-1.61694e-15
-1.68672e-15
-1.62187e-15
-1.68628e-15
-1.62662e-15
-1.68383e-15
-1.62905e-15
-1.68152e-15
-1.6282e-15
-1.67932e-15
-1.62519e-15
-1.67828e-15
-1.62317e-15
-1.67328e-15
-1.62212e-15
-1.6744e-15
-1.61903e-15
-1.67459e-15
-1.61788e-15
-1.67388e-15
-1.61763e-15
-1.67135e-15
-1.61732e-15
-1.6717e-15
-1.61603e-15
-1.6721e-15
-1.61469e-15
-1.66987e-15
-1.61332e-15
-1.67122e-15
-1.6128e-15
-1.67259e-15
-1.61137e-15
-1.67314e-15
-1.60991e-15
-1.6729e-15
-1.60842e-15
-1.67271e-15
-1.60691e-15
-1.67334e-15
-1.60499e-15
-1.674e-15
-1.60535e-15
-1.67395e-15
-1.60528e-15
-1.67285e-15
-1.60407e-15
-1.67287e-15
-1.60355e-15
-1.67361e-15
-1.60334e-15
-1.67337e-15
-1.60309e-15
-1.67317e-15
-1.60281e-15
-1.67363e-15
-1.60187e-15
-1.6735e-15
-1.60123e-15
-1.6737e-15
-1.60116e-15
-1.67391e-15
-1.60105e-15
-1.67415e-15
-1.60036e-15
-1.67413e-15
-1.59993e-15
-1.67401e-15
-1.59987e-15
-1.67392e-15
-1.59965e-15
-1.67397e-15
-1.59905e-15
-1.67403e-15
-1.59903e-15
-1.67388e-15
-1.59923e-15
-1.67375e-15
-1.59894e-15
-1.67399e-15
-1.59851e-15
-1.674e-15
-1.59864e-15
-1.67404e-15
-1.59863e-15
-1.67409e-15
-1.59871e-15
-1.67426e-15
-1.59872e-15
-1.67428e-15
-1.59866e-15
-1.67425e-15
-1.5987e-15
-1.67441e-15
-1.59872e-15
-1.67453e-15
-1.59867e-15
-1.67465e-15
-1.5986e-15
-1.67473e-15
-1.59865e-15
-1.67482e-15
-1.59868e-15
-1.67492e-15
-1.59864e-15
-1.67506e-15
-1.59851e-15
-1.67515e-15
-1.59848e-15
-1.67518e-15
-1.59847e-15
-1.67525e-15
-1.59842e-15
-1.67529e-15
-1.59837e-15
-1.67527e-15
-1.59836e-15
-1.67533e-15
-1.59833e-15
-1.67535e-15
-1.59831e-15
-1.67537e-15
-1.5983e-15
-1.67537e-15
-1.5983e-15
-1.67537e-15
-1.59829e-15
-1.67537e-15
-1.59829e-15
-1.27628e-15
-1.08864e-15
-1.22222e-15
-1.17706e-15
-1.23492e-15
-1.18594e-15
-1.26527e-15
-1.20867e-15
-1.28545e-15
-1.3e-15
-1.33768e-15
-1.32135e-15
-1.31995e-15
-1.31408e-15
-1.23687e-15
-1.44224e-15
-1.28957e-15
-1.52392e-15
-1.34509e-15
-1.56169e-15
-1.52231e-15
-1.53962e-15
-1.58319e-15
-1.56219e-15
-1.58505e-15
-1.61352e-15
-1.65083e-15
-1.66673e-15
-1.65524e-15
-1.67569e-15
-1.70143e-15
-1.68982e-15
-1.70358e-15
-1.69968e-15
-1.74401e-15
-1.70665e-15
-1.72033e-15
-1.72734e-15
-1.73738e-15
-1.80013e-15
-1.76057e-15
-1.8182e-15
-1.76957e-15
-1.82487e-15
-1.79226e-15
-1.81963e-15
-1.80888e-15
-1.82128e-15
-1.82226e-15
-1.80253e-15
-1.81349e-15
-1.73425e-15
-1.74307e-15
-1.72104e-15
-1.74091e-15
-1.6739e-15
-1.7434e-15
-1.67904e-15
-1.75406e-15
-1.6907e-15
-1.7728e-15
-1.71238e-15
-1.77367e-15
-1.7933e-15
-1.81826e-15
-1.80543e-15
-1.86399e-15
-1.79267e-15
-1.82579e-15
-1.77305e-15
-1.79362e-15
-1.79336e-15
-1.78468e-15
-1.8355e-15
-1.79448e-15
-1.81116e-15
-1.80319e-15
-1.78799e-15
-1.82555e-15
-1.80957e-15
-1.83854e-15
-1.84157e-15
-1.82894e-15
-1.82758e-15
-1.83186e-15
-1.83711e-15
-1.84712e-15
-1.82447e-15
-1.83011e-15
-1.82317e-15
-1.82585e-15
-1.79883e-15
-1.82355e-15
-1.77363e-15
-1.81276e-15
-1.75833e-15
-1.81637e-15
-1.75278e-15
-1.80019e-15
-1.75619e-15
-1.78617e-15
-1.75768e-15
-1.78476e-15
-1.7581e-15
-1.77313e-15
-1.75811e-15
-1.75058e-15
-1.75829e-15
-1.7163e-15
-1.73652e-15
-1.71506e-15
-1.71539e-15
-1.72476e-15
-1.70527e-15
-1.71213e-15
-1.70554e-15
-1.68809e-15
-1.68278e-15
-1.69778e-15
-1.68228e-15
-1.70209e-15
-1.66451e-15
-1.69578e-15
-1.64587e-15
-1.69023e-15
-1.63167e-15
-1.69103e-15
-1.62185e-15
-1.69279e-15
-1.61072e-15
-1.6902e-15
-1.6091e-15
-1.67773e-15
-1.61151e-15
-1.67704e-15
-1.60722e-15
-1.66626e-15
-1.59622e-15
-1.65631e-15
-1.60045e-15
-1.64695e-15
-1.61465e-15
-1.64864e-15
-1.60678e-15
-1.64524e-15
-1.59846e-15
-1.63684e-15
-1.60035e-15
-1.6446e-15
-1.60182e-15
-1.65256e-15
-1.60286e-15
-1.65555e-15
-1.60868e-15
-1.65359e-15
-1.60889e-15
-1.65711e-15
-1.59841e-15
-1.66099e-15
-1.59788e-15
-1.6627e-15
-1.59945e-15
-1.6699e-15
-1.60058e-15
-1.67496e-15
-1.60123e-15
-1.6704e-15
-1.60392e-15
-1.66624e-15
-1.59869e-15
-1.66739e-15
-1.58568e-15
-1.67871e-15
-1.57716e-15
-1.68554e-15
-1.57542e-15
-1.68558e-15
-1.5755e-15
-1.69322e-15
-1.57743e-15
-1.69654e-15
-1.58115e-15
-1.70494e-15
-1.57733e-15
-1.70678e-15
-1.57303e-15
-1.7045e-15
-1.57513e-15
-1.70265e-15
-1.58127e-15
-1.7012e-15
-1.58917e-15
-1.70008e-15
-1.59222e-15
-1.70144e-15
-1.59056e-15
-1.70414e-15
-1.59077e-15
-1.70391e-15
-1.59279e-15
-1.7029e-15
-1.59764e-15
-1.70316e-15
-1.59498e-15
-1.70771e-15
-1.59213e-15
-1.70544e-15
-1.59407e-15
-1.70538e-15
-1.59675e-15
-1.70553e-15
-1.59727e-15
-1.7068e-15
-1.5976e-15
-1.70637e-15
-1.59869e-15
-1.70521e-15
-1.5996e-15
-1.7078e-15
-1.60034e-15
-1.70961e-15
-1.60006e-15
-1.71067e-15
-1.60052e-15
-1.71184e-15
-1.60084e-15
-1.71067e-15
-1.60185e-15
-1.70964e-15
-1.60194e-15
-1.70952e-15
-1.59997e-15
-1.70838e-15
-1.60063e-15
-1.70662e-15
-1.60118e-15
-1.70573e-15
-1.60235e-15
-1.70564e-15
-1.60307e-15
-1.70461e-15
-1.60268e-15
-1.70435e-15
-1.6019e-15
-1.70416e-15
-1.60302e-15
-1.70374e-15
-1.60342e-15
-1.70399e-15
-1.60346e-15
-1.70429e-15
-1.60373e-15
-1.70464e-15
-1.60396e-15
-1.70503e-15
-1.60468e-15
-1.70519e-15
-1.60508e-15
-1.70513e-15
-1.60516e-15
-1.70486e-15
-1.60533e-15
-1.705e-15
-1.60584e-15
-1.70495e-15
-1.60618e-15
-1.7048e-15
-1.60625e-15
-1.70505e-15
-1.60628e-15
-1.70486e-15
-1.60664e-15
-1.70482e-15
-1.60697e-15
-1.70458e-15
-1.60716e-15
-1.70426e-15
-1.60732e-15
-1.70413e-15
-1.60741e-15
-1.70408e-15
-1.6076e-15
-1.70387e-15
-1.60771e-15
-1.70357e-15
-1.60781e-15
-1.70334e-15
-1.60795e-15
-1.70312e-15
-1.60802e-15
-1.70292e-15
-1.60826e-15
-1.70279e-15
-1.6085e-15
-1.7026e-15
-1.60866e-15
-1.70243e-15
-1.60875e-15
-1.7023e-15
-1.60876e-15
-1.70215e-15
-1.60887e-15
-1.70202e-15
-1.60899e-15
-1.70193e-15
-1.6091e-15
-1.70192e-15
-1.60917e-15
-1.70189e-15
-1.60917e-15
-1.70182e-15
-1.60917e-15
-1.70181e-15
-1.60917e-15
-1.70181e-15
-1.60917e-15
-1.70181e-15
-1.60917e-15
-1.7018e-15
-1.60918e-15
)
;

boundaryField
{
    walls
    {
        type            zeroGradient;
    }
    inlet
    {
        type            cyclic;
    }
    outlet
    {
        type            cyclic;
    }
    sides
    {
        type            empty;
    }
}


// ************************************************************************* //
