/*--------------------------------*- C++ -*----------------------------------*\
| =========                 |                                                 |
| \\      /  F ield         | OpenFOAM: The Open Source CFD Toolbox           |
|  \\    /   O peration     | Version:  2012                                  |
|   \\  /    A nd           | Website:  www.openfoam.com                      |
|    \\/     M anipulation  |                                                 |
\*---------------------------------------------------------------------------*/
FoamFile
{
    version     2.0;
    format      ascii;
    class       surfaceScalarField;
    location    "9000";
    object      phi;
}
// * * * * * * * * * * * * * * * * * * * * * * * * * * * * * * * * * * * * * //

dimensions      [0 3 -1 0 0 0 0];
oriented        oriented;


internalField   nonuniform List<scalar> 
2556
(
6.76883e-08
-3.61911e-18
-1.94785e-23
-5.51652e-22
1.73447e-22
2.11039e-07
-3.61829e-18
-8.9415e-23
-1.42262e-21
2.12194e-22
3.66989e-07
-3.61747e-18
-8.88175e-23
-2.33175e-21
2.31616e-22
5.36403e-07
-3.61649e-18
-9.59844e-23
-3.41442e-21
2.52928e-22
7.20203e-07
-3.61563e-18
-9.29796e-23
-4.55279e-21
2.76333e-22
9.19366e-07
-3.61462e-18
-8.46811e-23
-5.63096e-21
3.02041e-22
1.13493e-06
-3.61374e-18
-7.44515e-23
-6.80877e-21
3.3026e-22
1.368e-06
-3.61272e-18
-6.26308e-23
-8.10683e-21
3.61235e-22
1.61973e-06
-3.61172e-18
-4.8898e-23
-9.11805e-21
3.95229e-22
1.89135e-06
-3.61078e-18
-3.30777e-23
-1.08944e-20
4.32489e-22
2.18414e-06
-3.61022e-18
-1.51812e-23
-1.22773e-20
4.7331e-22
2.49944e-06
-3.60921e-18
4.82485e-24
-1.38801e-20
5.1796e-22
2.83861e-06
-3.60772e-18
2.6939e-23
-1.57068e-20
5.66686e-22
3.20307e-06
-3.6077e-18
5.11935e-23
-1.69633e-20
6.19693e-22
3.59419e-06
-3.60593e-18
7.77456e-23
-1.96635e-20
6.77039e-22
4.01331e-06
-3.60524e-18
1.06452e-22
-2.04686e-20
7.38917e-22
4.4617e-06
-3.60339e-18
1.37367e-22
-2.26606e-20
8.05107e-22
4.94047e-06
-3.60359e-18
1.70311e-22
-2.42755e-20
8.75421e-22
5.45053e-06
-3.60238e-18
2.05219e-22
-2.65099e-20
9.4936e-22
5.99255e-06
-3.59989e-18
2.41653e-22
-2.97904e-20
1.02633e-21
6.56689e-06
-3.59853e-18
2.79068e-22
-3.04107e-20
1.1055e-21
7.1736e-06
-3.59645e-18
3.17027e-22
-3.36973e-20
1.18585e-21
7.81239e-06
-3.59448e-18
3.55004e-22
-3.70095e-20
1.26652e-21
8.48272e-06
-3.59416e-18
3.92243e-22
-3.76076e-20
1.34673e-21
9.18382e-06
-3.59198e-18
4.28513e-22
-4.13024e-20
1.42522e-21
9.91479e-06
-3.58697e-18
4.6335e-22
-4.6993e-20
1.50172e-21
1.06747e-05
-3.58228e-18
4.95826e-22
-5.30942e-20
1.57592e-21
1.14626e-05
-3.58215e-18
5.25334e-22
-5.44587e-20
1.6477e-21
1.22779e-05
-3.58283e-18
5.52613e-22
-5.91467e-20
1.71629e-21
1.31199e-05
-3.57942e-18
5.77797e-22
-6.29103e-20
1.78283e-21
1.39882e-05
-3.57682e-18
6.0016e-22
-6.95451e-20
1.84796e-21
1.48828e-05
-3.57397e-18
6.20276e-22
-7.15622e-20
1.91261e-21
1.58036e-05
-3.56436e-18
6.37927e-22
-8.00356e-20
1.97632e-21
1.67511e-05
-3.56121e-18
6.51725e-22
-8.36459e-20
2.04062e-21
1.77256e-05
-3.55507e-18
6.62477e-22
-8.81854e-20
2.10459e-21
1.87278e-05
-3.55094e-18
6.70069e-22
-9.74865e-20
2.16967e-21
1.97585e-05
-3.54764e-18
6.73451e-22
-1.0685e-19
2.23845e-21
2.08187e-05
-3.54704e-18
6.74947e-22
-1.07191e-19
2.31003e-21
2.19093e-05
-3.54784e-18
6.73756e-22
-1.12273e-19
2.38154e-21
2.30314e-05
-3.54808e-18
6.69537e-22
-1.10348e-19
2.45356e-21
2.41863e-05
-3.55278e-18
6.648e-22
-1.08418e-19
2.52636e-21
2.53752e-05
-3.55364e-18
6.59144e-22
-1.15591e-19
2.60176e-21
2.65994e-05
-3.55028e-18
6.52052e-22
-1.18893e-19
2.6794e-21
2.78604e-05
-3.54436e-18
6.4183e-22
-1.26963e-19
2.75904e-21
2.91595e-05
-3.53384e-18
6.27547e-22
-1.44571e-19
2.84076e-21
3.04983e-05
-3.53409e-18
6.03591e-22
-1.48858e-19
2.93038e-21
3.18782e-05
-3.53206e-18
5.74505e-22
-1.49148e-19
3.02393e-21
3.3301e-05
-3.53485e-18
5.38998e-22
-1.60193e-19
3.12106e-21
3.47682e-05
-3.53878e-18
5.04695e-22
-1.65415e-19
3.2224e-21
3.62815e-05
-3.52911e-18
4.70316e-22
-1.75891e-19
3.32451e-21
3.78426e-05
-3.52391e-18
4.32643e-22
-1.8703e-19
3.42558e-21
3.94534e-05
-3.52289e-18
3.98452e-22
-1.98161e-19
3.52857e-21
4.11156e-05
-3.51663e-18
3.67873e-22
-2.13955e-19
3.63398e-21
4.28312e-05
-3.50457e-18
3.35734e-22
-2.27018e-19
3.74865e-21
4.46021e-05
-3.49782e-18
2.99698e-22
-2.33701e-19
3.86621e-21
4.64303e-05
-3.47378e-18
2.4936e-22
-2.64944e-19
3.97986e-21
4.83178e-05
-3.46752e-18
1.70287e-22
-2.76209e-19
4.1151e-21
5.02669e-05
-3.46941e-18
7.77099e-23
-2.86472e-19
4.26327e-21
5.22796e-05
-3.46874e-18
-1.8384e-23
-2.88408e-19
4.41614e-21
5.43582e-05
-3.45938e-18
-1.15816e-22
-3.00526e-19
4.56281e-21
5.65051e-05
-3.44243e-18
-2.19859e-22
-3.16716e-19
4.71881e-21
5.87226e-05
-3.44445e-18
-3.67664e-22
-3.30894e-19
4.87202e-21
6.10131e-05
-3.42498e-18
-5.10702e-22
-3.46884e-19
5.02377e-21
6.33793e-05
-3.42379e-18
-6.67917e-22
-3.47908e-19
5.18875e-21
6.58237e-05
-3.42864e-18
-8.32717e-22
-3.5599e-19
5.35687e-21
6.83491e-05
-3.41068e-18
-9.87199e-22
-3.71621e-19
5.51759e-21
7.09581e-05
-3.40894e-18
-1.15026e-21
-3.93938e-19
5.67837e-21
7.36536e-05
-3.39781e-18
-1.29327e-21
-4.11552e-19
5.8465e-21
7.64387e-05
-3.38163e-18
-1.43616e-21
-4.34685e-19
6.01481e-21
7.93164e-05
-3.36023e-18
-1.55748e-21
-4.60573e-19
6.16715e-21
8.22897e-05
-3.32732e-18
-1.68764e-21
-4.80634e-19
6.2887e-21
8.53619e-05
-3.30492e-18
-1.82877e-21
-5.13532e-19
6.37239e-21
8.85364e-05
-3.2712e-18
-2.03273e-21
-5.68906e-19
6.54057e-21
9.18167e-05
-3.24001e-18
-2.31485e-21
-6.00014e-19
6.83777e-21
9.52062e-05
-3.22617e-18
-2.69098e-21
-6.08379e-19
7.12632e-21
9.87086e-05
-3.20638e-18
-3.15599e-21
-6.42729e-19
7.4216e-21
0.000102328
-3.18362e-18
-3.68831e-21
-6.54362e-19
7.78739e-21
0.000106068
-3.17722e-18
-4.28436e-21
-6.84239e-19
8.05872e-21
0.000109932
-3.14835e-18
-4.84841e-21
-6.95401e-19
8.33099e-21
0.000113925
-3.1255e-18
-5.4357e-21
-7.34303e-19
8.60135e-21
0.000118051
-3.08536e-18
-5.99079e-21
-7.6731e-19
8.83418e-21
0.000122315
-3.0569e-18
-6.53755e-21
-7.79623e-19
9.04866e-21
0.000126721
-3.06924e-18
-7.08018e-21
-8.12618e-19
9.1599e-21
0.000131274
-3.08196e-18
-7.44736e-21
-8.18373e-19
9.2216e-21
0.000135978
-3.04177e-18
-7.63476e-21
-8.56217e-19
9.11308e-21
0.000140839
-3.00631e-18
-7.87078e-21
-8.9283e-19
8.86717e-21
0.000145862
-2.99879e-18
-8.12613e-21
-9.26177e-19
8.61718e-21
0.000151051
-2.94023e-18
-8.3641e-21
-1.00887e-18
8.18322e-21
0.000156414
-2.8716e-18
-8.71332e-21
-1.07007e-18
7.7656e-21
0.000161955
-2.83515e-18
-9.21098e-21
-1.10504e-18
7.56979e-21
0.000167679
-2.80948e-18
-9.87415e-21
-1.11861e-18
7.54202e-21
0.000173595
-2.78917e-18
-1.04825e-20
-1.17924e-18
7.33749e-21
0.000179706
-2.77172e-18
-1.1258e-20
-1.22646e-18
7.44902e-21
0.00018602
-2.76458e-18
-1.19153e-20
-1.26437e-18
7.32052e-21
0.000192544
-2.70335e-18
-1.20921e-20
-1.26543e-18
6.97876e-21
0.000199284
-2.67731e-18
-1.22959e-20
-1.29958e-18
6.42477e-21
0.000206248
-2.67304e-18
-1.25525e-20
-1.33027e-18
5.93793e-21
0.000213442
-2.64806e-18
-1.27725e-20
-1.36546e-18
5.52361e-21
0.000220874
-2.60442e-18
-1.31599e-20
-1.39426e-18
5.58288e-21
0.000228552
-2.56971e-18
-1.36499e-20
-1.4271e-18
5.35143e-21
0.000236483
-2.52403e-18
-1.40095e-20
-1.45806e-18
4.33643e-21
0.000244677
-2.48309e-18
-1.45818e-20
-1.46708e-18
3.70922e-21
0.000253141
-2.43784e-18
-1.4786e-20
-1.4891e-18
3.33384e-21
0.000261884
-2.3605e-18
-1.49762e-20
-1.46772e-18
2.75609e-21
0.000270915
-2.25779e-18
-1.54428e-20
-1.50897e-18
1.47168e-21
0.000280244
-2.26176e-18
-1.72504e-20
-1.54524e-18
4.84072e-22
0.000289879
-2.22336e-18
-1.82078e-20
-1.52007e-18
-1.14873e-21
0.000299832
-2.18356e-18
-1.9664e-20
-1.50779e-18
-3.25166e-21
0.000310111
-2.19109e-18
-2.10717e-20
-1.5136e-18
-5.51708e-21
0.000320727
-2.12441e-18
-2.17348e-20
-1.49378e-18
-8.16644e-21
0.000331691
-2.12637e-18
-2.32508e-20
-1.45409e-18
-1.05823e-20
0.000343014
-2.10845e-18
-2.54583e-20
-1.41361e-18
-1.35036e-20
0.000354707
-1.99327e-18
-2.69953e-20
-1.46441e-18
-1.82204e-20
0.000366783
-1.89258e-18
-2.82755e-20
-1.47344e-18
-2.16264e-20
0.000379253
-1.80823e-18
-2.88022e-20
-1.50451e-18
-2.39797e-20
0.000392129
-1.75698e-18
-2.79437e-20
-1.5066e-18
-2.58421e-20
0.000405424
-1.68455e-18
-2.76445e-20
-1.4797e-18
-2.78061e-20
0.000419152
-1.6231e-18
-2.62879e-20
-1.49589e-18
-2.91731e-20
0.000433325
-1.49337e-18
-2.59556e-20
-1.41512e-18
-2.87342e-20
0.000447958
-1.48222e-18
-2.77221e-20
-1.36713e-18
-3.03849e-20
0.000463065
-1.33122e-18
-2.92776e-20
-1.33367e-18
-3.4049e-20
0.00047866
-1.28676e-18
-3.35209e-20
-1.28271e-18
-3.39186e-20
0.000494759
-1.26465e-18
-3.73657e-20
-1.22622e-18
-3.35836e-20
0.000511376
-1.27021e-18
-4.40512e-20
-1.27941e-18
-3.42096e-20
0.000528528
-1.40245e-18
-4.5202e-20
-1.28745e-18
-2.93353e-20
0.00054623
-1.35415e-18
-4.09394e-20
-1.32416e-18
-2.401e-20
0.0005645
-1.41654e-18
-3.47777e-20
-1.35024e-18
-2.61069e-20
0.000583354
-1.32624e-18
-2.71895e-20
-1.34578e-18
-2.67968e-20
0.000602809
-1.29451e-18
-2.64117e-20
-1.34687e-18
-2.44094e-20
0.000622884
-1.299e-18
-2.30652e-20
-1.40475e-18
-2.23649e-20
0.000643596
-1.22029e-18
-2.35186e-20
-1.40703e-18
-1.93197e-20
0.000664964
-1.40213e-18
-2.61604e-20
-1.25924e-18
-1.56867e-20
0.000687006
-1.38563e-18
-1.52762e-20
-1.27782e-18
-2.51014e-20
0.000709743
-1.38555e-18
-1.42058e-20
-1.33959e-18
-3.35303e-20
0.000733192
-1.24888e-18
-1.04628e-20
-1.43119e-18
-3.75756e-20
0.000757375
-1.35993e-18
-1.87246e-20
-1.27354e-18
-3.20525e-20
0.000782311
-1.32214e-18
-1.4612e-20
-1.31497e-18
-4.32112e-20
0.000808021
-1.32659e-18
-1.84303e-20
-1.39819e-18
-3.66845e-20
0.000834525
-1.29662e-18
-1.94811e-20
-1.22436e-18
-2.29746e-20
0.000861843
-1.31262e-18
-1.7141e-20
-1.24388e-18
-2.77446e-20
0.000889996
-1.25174e-18
-7.51165e-21
-1.2867e-18
-2.58955e-20
0.000919004
-1.17459e-18
-1.31888e-20
-1.15126e-18
-2.64851e-20
0.000948889
-1.23954e-18
-2.75594e-20
-1.18002e-18
-3.42389e-20
0.000979669
-1.27445e-18
-2.62583e-20
-1.29383e-18
-3.78949e-20
0.00101136
-1.26567e-18
-1.58207e-21
-1.25709e-18
-3.45152e-20
0.00104399
-1.05096e-18
3.21624e-20
-1.17278e-18
1.03228e-20
0.00107758
-1.03511e-18
3.25083e-20
-1.18081e-18
2.30431e-20
0.00111213
-1.02883e-18
-4.4658e-23
-9.47676e-19
1.65631e-20
0.00114766
-8.57613e-19
-8.11971e-21
-1.02279e-18
9.4625e-21
0.0011842
-8.42079e-19
-2.49469e-21
-7.62842e-19
3.57619e-20
0.00122174
-7.75295e-19
5.78048e-22
-6.62657e-19
2.58886e-20
0.0012603
-7.38582e-19
7.28083e-21
-6.98674e-19
4.39564e-21
0.00129988
-7.42079e-19
4.86463e-21
-7.3361e-19
-3.34619e-20
0.00134047
-6.01487e-19
2.05439e-21
-7.18128e-19
-2.29621e-20
0.00138208
-3.92734e-19
2.85292e-20
-4.9734e-19
3.51186e-20
0.0014247
-5.83283e-19
-1.03261e-20
-4.35304e-19
2.4914e-20
0.00146829
-4.56608e-19
-3.68468e-20
-3.90273e-19
-7.48935e-21
0.00151283
-3.56003e-19
-6.70141e-20
-3.72349e-19
-1.15473e-20
0.0015583
-3.89705e-19
1.96875e-20
-3.92224e-19
-5.63787e-20
0.00160463
7.3001e-21
-4.8379e-19
-6.4408e-20
-6.23094e-19
6.76883e-08
-4.13193e-23
1.20459e-22
2.11039e-07
-1.4042e-22
2.28293e-22
3.66989e-07
-1.44118e-22
2.83259e-22
5.36403e-07
-7.0361e-23
5.22859e-22
7.20203e-07
-2.3487e-23
8.01083e-22
9.19366e-07
-1.69602e-23
8.74029e-22
1.13493e-06
1.14292e-22
1.03151e-21
1.368e-06
-5.74742e-22
1.27926e-21
1.61973e-06
-3.87413e-22
1.56901e-21
1.89135e-06
-3.17291e-22
1.81149e-21
2.18414e-06
-2.56474e-23
2.31112e-21
2.49944e-06
1.82586e-22
2.59241e-21
2.83861e-06
5.36519e-22
3.04677e-21
3.20307e-06
8.50341e-22
3.24225e-21
3.59419e-06
7.70201e-22
4.12764e-21
4.01331e-06
1.11567e-21
5.25974e-21
4.4617e-06
2.08354e-21
6.00836e-21
4.94047e-06
2.48237e-21
6.51978e-21
5.45053e-06
2.92804e-21
6.96947e-21
5.99255e-06
4.07476e-21
7.04608e-21
6.56689e-06
4.58046e-21
8.92944e-21
7.1736e-06
5.25248e-21
9.21544e-21
7.81239e-06
4.8857e-21
1.13221e-20
8.48272e-06
5.45163e-21
1.28493e-20
9.18382e-06
6.93193e-21
1.49212e-20
9.91479e-06
8.27969e-21
1.60398e-20
1.06747e-05
8.16386e-21
1.73037e-20
1.14626e-05
8.97849e-21
1.82305e-20
1.22779e-05
1.00643e-20
1.96329e-20
1.31199e-05
1.07798e-20
2.20111e-20
1.39882e-05
1.31092e-20
2.5142e-20
1.48828e-05
1.5131e-20
2.81699e-20
1.58036e-05
1.77949e-20
2.92543e-20
1.67511e-05
1.84502e-20
2.93052e-20
1.77256e-05
2.29815e-20
3.11927e-20
1.87278e-05
2.16304e-20
3.59789e-20
1.97585e-05
2.87336e-20
3.64779e-20
2.08187e-05
3.06074e-20
3.6778e-20
2.19093e-05
2.93081e-20
3.57573e-20
2.30314e-05
3.47452e-20
3.96645e-20
2.41863e-05
3.30975e-20
4.75847e-20
2.53752e-05
3.42889e-20
4.85494e-20
2.65994e-05
3.60618e-20
5.1683e-20
2.78604e-05
4.14346e-20
4.89804e-20
2.91595e-05
4.32689e-20
5.09447e-20
3.04983e-05
4.5733e-20
5.30593e-20
3.18782e-05
4.43181e-20
6.02542e-20
3.3301e-05
4.83063e-20
6.39317e-20
3.47682e-05
4.5724e-20
6.95966e-20
3.62815e-05
5.00998e-20
7.03147e-20
3.78426e-05
5.86712e-20
7.61326e-20
3.94534e-05
6.31424e-20
7.97207e-20
4.11156e-05
6.98307e-20
8.76115e-20
4.28312e-05
8.34865e-20
9.06586e-20
4.46021e-05
7.89531e-20
9.4731e-20
4.64303e-05
7.6492e-20
1.04529e-19
4.83178e-05
7.75203e-20
1.16449e-19
5.02669e-05
7.81728e-20
1.20401e-19
5.22796e-05
7.91337e-20
1.23489e-19
5.43582e-05
8.27012e-20
1.33567e-19
5.65051e-05
6.1694e-20
1.34189e-19
5.87226e-05
6.47514e-20
1.3668e-19
6.10131e-05
6.99488e-20
1.40712e-19
6.33793e-05
6.73633e-20
1.48851e-19
6.58237e-05
7.15682e-20
1.47575e-19
6.83491e-05
7.43818e-20
1.4869e-19
7.09581e-05
7.18184e-20
1.56568e-19
7.36536e-05
6.1893e-20
1.71507e-19
7.64387e-05
6.99892e-20
1.74465e-19
7.93164e-05
6.50339e-20
1.75291e-19
8.22897e-05
7.22307e-20
1.71466e-19
8.53619e-05
5.48477e-20
1.97315e-19
8.85364e-05
6.05367e-20
2.13308e-19
9.18167e-05
7.28627e-20
1.9939e-19
9.52062e-05
7.2684e-20
2.14074e-19
9.87086e-05
8.65288e-20
2.26011e-19
0.000102328
1.02139e-19
2.1195e-19
0.000106068
1.14482e-19
2.12071e-19
0.000109932
1.13244e-19
2.36299e-19
0.000113925
1.1855e-19
2.34722e-19
0.000118051
1.30572e-19
2.44058e-19
0.000122315
1.31514e-19
2.4307e-19
0.000126721
1.38699e-19
2.25929e-19
0.000131274
1.55845e-19
2.34442e-19
0.000135978
1.75883e-19
2.37081e-19
0.000140839
1.85067e-19
2.55086e-19
0.000145862
1.70944e-19
2.48929e-19
0.000151051
1.82492e-19
2.34489e-19
0.000156414
2.00332e-19
2.4942e-19
0.000161955
1.92145e-19
2.88174e-19
0.000167679
2.01474e-19
3.02702e-19
0.000173595
1.80093e-19
3.2488e-19
0.000179706
2.09118e-19
2.93575e-19
0.00018602
2.46448e-19
2.85272e-19
0.000192544
2.56319e-19
2.90855e-19
0.000199284
2.35907e-19
2.93941e-19
0.000206248
2.01046e-19
2.86886e-19
0.000213442
1.61917e-19
3.01069e-19
0.000220874
1.63134e-19
2.95034e-19
0.000228552
1.89012e-19
2.6988e-19
0.000236483
1.81853e-19
2.87273e-19
0.000244677
2.02466e-19
2.90475e-19
0.000253141
1.91665e-19
2.70034e-19
0.000261884
2.06606e-19
2.52011e-19
0.000270915
1.67327e-19
2.25512e-19
0.000280244
1.66809e-19
1.7125e-19
0.000289879
1.27051e-19
2.15236e-19
0.000299832
1.26644e-19
2.18879e-19
0.000310111
1.22125e-19
1.96717e-19
0.000320727
1.0548e-19
2.33004e-19
0.000331691
3.02593e-20
2.55123e-19
0.000343014
3.86727e-20
2.32193e-19
0.000354707
9.19344e-20
2.00515e-19
0.000366783
9.58836e-20
1.88601e-19
0.000379253
1.03623e-19
1.41935e-19
0.000392129
3.29165e-20
5.69306e-20
0.000405424
3.24974e-20
1.98741e-20
0.000419152
-4.20142e-20
2.12401e-20
0.000433325
-4.58065e-20
2.11005e-20
0.000447958
-1.01991e-19
-3.05184e-20
0.000463065
-9.25329e-20
1.37727e-20
0.00047866
-8.9067e-20
-1.39447e-20
0.000494759
-1.83178e-19
-1.35599e-20
0.000511376
-7.5505e-20
4.94108e-21
0.000528528
-1.32514e-19
-5.28569e-20
0.00054623
-7.72461e-20
-2.47123e-19
0.0005645
-1.4304e-19
-2.4978e-19
0.000583354
-2.34647e-19
-2.30338e-19
0.000602809
-1.86519e-19
-2.64493e-19
0.000622884
-3.28178e-19
-3.47681e-19
0.000643596
-3.8139e-19
-4.14773e-19
0.000664964
-4.20344e-19
-5.12091e-19
0.000687006
-6.00504e-19
-5.8763e-19
0.000709743
-6.24672e-19
-6.46736e-19
0.000733192
-6.32843e-19
-6.06802e-19
0.000757375
-5.59031e-19
-6.75881e-19
0.000782311
-6.21716e-19
-5.57785e-19
0.000808021
-6.08576e-19
-5.62926e-19
0.000834525
-5.63152e-19
-5.74476e-19
0.000861843
-5.68508e-19
-5.8849e-19
0.000889996
-7.09127e-19
-7.37816e-19
0.000919004
-7.67584e-19
-7.35963e-19
0.000948889
-7.88596e-19
-7.80828e-19
0.000979669
-7.60469e-19
-9.00368e-19
0.00101136
-7.7943e-19
-6.60772e-19
0.00104399
-7.99547e-19
-8.18964e-19
0.00107758
-1.05856e-18
-9.90055e-19
0.00111213
-9.87645e-19
-8.5611e-19
0.00114766
-6.97572e-19
-7.64962e-19
0.0011842
-6.7096e-19
-7.13574e-19
0.00122174
-6.24052e-19
-6.77443e-19
0.0012603
-6.57457e-19
-7.66267e-19
0.00129988
-6.84502e-19
-6.39913e-19
0.00134047
-4.26449e-19
-4.62853e-19
0.00138208
-4.7565e-19
-4.53557e-19
0.0014247
-6.46566e-19
-5.14051e-19
0.00146829
-6.47031e-19
-5.18096e-19
0.00151283
-2.28036e-19
-6.22753e-19
0.0015583
-4.71188e-19
-3.95769e-19
0.00160463
-4.22228e-19
-5.74515e-19
0.00160463
-1.51759e-19
2.47873e-20
-5.57351e-19
-5.20767e-20
0.0015583
-4.32428e-19
-1.28173e-19
-3.6168e-19
-9.86059e-21
0.00151283
-5.87354e-19
-1.27712e-19
-4.08333e-19
-2.98389e-20
0.00146829
-3.21521e-19
-1.01303e-19
-5.1203e-20
-2.77133e-20
0.0014247
-5.07238e-19
-1.12406e-19
-5.52601e-19
-8.73993e-20
0.00138208
-8.73186e-20
-3.90682e-20
-5.35896e-19
-4.7197e-20
0.00134047
-6.6241e-19
-8.48687e-20
-3.86125e-19
-2.18503e-20
0.00129988
-6.37486e-19
-6.11732e-20
-3.78163e-19
2.39222e-20
0.0012603
-5.18743e-19
-3.75174e-20
-4.07604e-19
1.04518e-20
0.00122174
-2.01825e-19
-1.15209e-20
-3.86448e-19
-4.21492e-21
0.0011842
-1.40252e-19
-3.40706e-21
-2.53918e-19
-1.20841e-20
0.00114766
-3.48473e-19
-1.71937e-20
-4.10583e-19
-1.49222e-20
0.00111213
-4.03693e-19
-2.50937e-20
-3.04414e-19
1.43893e-20
0.00107758
-5.15319e-19
-1.15274e-20
-3.33411e-19
9.79628e-21
0.00104399
-3.86902e-19
1.33285e-20
-3.82698e-19
5.25562e-21
0.00101136
-3.63999e-19
1.11637e-20
-4.28728e-19
4.05457e-22
0.000979669
-4.13226e-19
-2.15828e-21
-4.08e-19
1.33396e-20
0.000948889
-3.86048e-19
1.39171e-20
-5.21901e-19
1.31346e-20
0.000919004
-4.44686e-19
-1.40351e-21
-3.12764e-19
2.8522e-20
0.000889996
-4.18347e-19
-1.11932e-20
-3.54202e-19
2.26922e-20
0.000861843
-3.92142e-19
-1.00526e-20
-3.51743e-19
6.59571e-21
0.000834525
-2.27062e-19
-1.1062e-20
-2.90493e-19
1.23624e-23
0.000808021
-2.67279e-19
-1.50372e-20
-2.8088e-19
-3.79458e-21
0.000782311
-2.75092e-19
-1.36312e-20
-3.52116e-19
-8.72441e-21
0.000757375
-1.50633e-19
-9.11965e-21
-3.07477e-19
-7.43797e-21
0.000733192
-2.88178e-19
-1.2691e-20
-1.59685e-19
-1.47963e-20
0.000709743
-3.18048e-19
-8.59869e-21
-1.63235e-19
-2.14048e-20
0.000687006
-3.70063e-19
2.45631e-21
-1.15767e-19
-2.97293e-20
0.000664964
-1.74294e-19
1.61448e-20
-2.7446e-19
-2.88099e-20
0.000643596
-6.35899e-20
1.5707e-20
-2.43296e-19
-1.68797e-20
0.000622884
-1.44071e-19
8.23085e-21
-1.43982e-19
-7.53905e-21
0.000602809
-8.63746e-20
5.98695e-21
-1.28851e-19
-5.64834e-22
0.000583354
-1.8747e-19
6.96993e-21
-2.27883e-19
-4.12784e-21
0.0005645
-2.46276e-19
9.06867e-21
-1.34207e-19
-1.32379e-21
0.00054623
-1.81817e-19
5.16967e-21
-2.11341e-19
-2.92681e-21
0.000528528
-2.63898e-19
2.83958e-21
-1.79598e-19
2.28614e-21
0.000511376
-2.93951e-19
2.37844e-21
-2.70899e-19
8.4147e-21
0.000494759
-2.57234e-19
5.90429e-21
-2.08498e-19
7.78991e-21
0.00047866
-2.29418e-19
6.53147e-21
-2.90286e-19
3.92949e-21
0.000463065
-2.07821e-19
7.14018e-21
-2.66351e-19
4.14634e-21
0.000447958
-2.65904e-19
6.01473e-21
-2.46252e-19
4.40252e-21
0.000433325
-2.39309e-19
5.46474e-21
-2.50152e-19
3.78362e-21
0.000419152
-2.26928e-19
4.74166e-21
-2.9555e-19
4.29285e-21
0.000405424
-2.16575e-19
4.36845e-21
-2.44069e-19
4.49753e-21
0.000392129
-1.89506e-19
2.97378e-21
-2.86732e-19
4.06099e-21
0.000379253
-2.37886e-19
2.21271e-21
-2.77562e-19
4.3113e-21
0.000366783
-2.05758e-19
2.78838e-21
-2.13625e-19
4.31611e-21
0.000354707
-1.93998e-19
1.8077e-21
-1.76936e-19
4.20731e-21
0.000343014
-1.87353e-19
1.57419e-21
-1.83572e-19
2.91607e-21
0.000331691
-1.7415e-19
7.36776e-22
-1.72995e-19
2.23794e-21
0.000320727
-2.03033e-19
3.57885e-22
-2.1183e-19
2.36143e-21
0.00031011
-1.35981e-19
8.0789e-22
-1.44022e-19
3.8383e-21
0.000299832
-1.73058e-19
3.35626e-22
-1.1625e-19
4.21594e-21
0.000289879
-1.71231e-19
6.4113e-22
-1.08643e-19
3.9531e-21
0.000280244
-1.66489e-19
3.59779e-22
-1.70211e-19
2.41695e-21
0.000270915
-1.74734e-19
4.33844e-22
-1.89986e-19
1.90776e-21
0.000261884
-1.71525e-19
6.82866e-22
-1.93558e-19
1.95784e-21
0.000253141
-1.71542e-19
2.90699e-22
-1.98834e-19
2.47471e-21
0.000244677
-1.61023e-19
-3.54919e-22
-1.97729e-19
2.4097e-21
0.000236483
-1.23467e-19
-6.43441e-22
-2.01669e-19
2.63516e-21
0.000228552
-1.21359e-19
-1.00799e-21
-1.83707e-19
2.22465e-21
0.000220874
-1.07275e-19
-1.22869e-21
-1.59667e-19
1.77321e-21
0.000213442
-1.32854e-19
-1.49996e-21
-1.26129e-19
1.50223e-21
0.000206248
-1.32354e-19
-1.44042e-21
-1.06691e-19
1.26343e-21
0.000199284
-1.19664e-19
-1.2293e-21
-1.14297e-19
9.11888e-22
0.000192544
-1.16108e-19
-1.21461e-21
-1.2466e-19
8.30441e-22
0.00018602
-1.40148e-19
-1.36395e-21
-1.15501e-19
9.35328e-22
0.000179706
-1.41775e-19
-1.19008e-21
-1.26003e-19
9.59177e-22
0.000173595
-9.54127e-20
-1.05703e-21
-1.34466e-19
1.05332e-21
0.000167679
-8.16999e-20
-1.13981e-21
-1.43659e-19
1.27288e-21
0.000161955
-6.50581e-20
-1.14215e-21
-1.40698e-19
1.55535e-21
0.000156414
-6.10307e-20
-1.0352e-21
-1.11662e-19
1.61372e-21
0.000151051
-5.41679e-20
-9.74594e-22
-9.60274e-20
1.4683e-21
0.000145862
-5.62223e-20
-8.98252e-22
-9.79543e-20
1.37216e-21
0.000140839
-5.59353e-20
-6.57728e-22
-9.75989e-20
1.3531e-21
0.000135978
-5.56602e-20
-3.81592e-22
-1.02403e-19
1.32635e-21
0.000131274
-6.57591e-20
-1.83533e-22
-6.61374e-20
1.37902e-21
0.000126721
-7.8026e-20
-1.9075e-23
-4.10042e-20
1.2781e-21
0.000122315
-5.67048e-20
1.77936e-22
-3.85929e-20
1.01571e-21
0.000118051
-5.16169e-20
2.56459e-22
-4.27046e-20
7.81332e-22
0.000113925
-5.07394e-20
2.67364e-22
-2.17168e-20
6.30369e-22
0.000109932
-4.34336e-20
3.13193e-22
-2.52151e-20
4.33132e-22
0.000106067
-4.06477e-20
3.03766e-22
-3.15261e-20
2.19173e-22
0.000102328
-3.01922e-20
2.5235e-22
-4.27682e-20
7.53832e-23
9.87086e-05
-2.48669e-20
1.83385e-22
-4.37831e-20
-6.1363e-23
9.52061e-05
-1.24287e-20
1.32966e-22
-6.07435e-20
-2.15094e-22
9.18167e-05
-2.23987e-20
1.26833e-22
-5.96087e-20
-2.86912e-22
8.85365e-05
-3.70474e-20
1.55605e-22
-6.10019e-20
-3.27406e-22
8.53619e-05
-1.78533e-20
1.94773e-22
-4.86821e-20
-3.38673e-22
8.22897e-05
-2.04819e-20
2.21899e-22
-4.26461e-20
-3.85331e-22
7.93163e-05
-2.54576e-20
2.41412e-22
-5.08132e-20
-3.80725e-22
7.64387e-05
-2.63202e-20
2.84658e-22
-4.96843e-20
-3.79168e-22
7.36536e-05
-1.60504e-20
2.97477e-22
-4.60158e-20
-3.71521e-22
7.09581e-05
-2.37932e-20
2.9267e-22
-3.51177e-20
-3.4835e-22
6.8349e-05
-2.37105e-20
2.82581e-22
-3.67723e-20
-3.15887e-22
6.58237e-05
-3.44454e-20
2.80836e-22
-2.70335e-20
-2.77374e-22
6.33793e-05
-2.7843e-20
2.86071e-22
-2.80167e-20
-2.58171e-22
6.10131e-05
-3.03097e-20
3.0375e-22
-2.67313e-20
-2.63669e-22
5.87226e-05
-2.57472e-20
3.28093e-22
-2.34139e-20
-2.60692e-22
5.65051e-05
-2.90502e-20
3.3969e-22
-2.71772e-20
-2.53471e-22
5.43582e-05
-2.55603e-20
3.49353e-22
-2.82635e-20
-2.18432e-22
5.22796e-05
-3.52084e-20
3.45489e-22
-2.79739e-20
-1.94404e-22
5.02669e-05
-1.44658e-20
3.57787e-22
-3.6075e-20
-1.71192e-22
4.83178e-05
-1.04653e-20
3.38956e-22
-3.01369e-20
-1.38861e-22
4.64303e-05
-8.6871e-21
3.23751e-22
-3.21883e-20
-1.11998e-22
4.46021e-05
-1.39726e-20
3.12161e-22
-3.16572e-20
-9.66133e-23
4.28312e-05
-7.12354e-21
3.10034e-22
-3.11422e-20
-7.98126e-23
4.11156e-05
-1.21702e-21
3.01648e-22
-2.93985e-20
-6.2314e-23
3.94534e-05
-1.04932e-21
2.93134e-22
-2.87527e-20
-4.68841e-23
3.78426e-05
2.40615e-21
2.91521e-22
-2.70697e-20
-3.32696e-23
3.62815e-05
7.23913e-21
2.87251e-22
-2.60637e-20
-2.35918e-23
3.47682e-05
5.9558e-21
2.79964e-22
-2.48083e-20
-1.29144e-23
3.3301e-05
5.50392e-21
2.74606e-22
-2.84793e-20
-3.48932e-24
3.18782e-05
5.4537e-21
2.63378e-22
-2.63115e-20
5.81316e-24
3.04983e-05
4.11866e-21
2.53313e-22
-2.16002e-20
1.09694e-23
2.91595e-05
6.67462e-21
2.44275e-22
-1.28911e-20
1.2692e-23
2.78604e-05
2.54296e-21
2.32015e-22
-1.46581e-20
1.25588e-23
2.65994e-05
2.58676e-22
2.20918e-22
-1.3944e-20
1.17453e-23
2.53752e-05
1.97519e-22
2.11839e-22
-8.63493e-21
1.3547e-23
2.41863e-05
1.02478e-21
2.02441e-22
-6.93502e-21
1.48248e-23
2.30314e-05
-1.00837e-21
1.93772e-22
-7.32672e-21
1.45562e-23
2.19093e-05
-1.02094e-21
1.86683e-22
-4.92412e-21
1.53309e-23
2.08187e-05
1.21868e-22
1.80186e-22
-5.28682e-21
1.76901e-23
1.97585e-05
-1.59531e-21
1.74019e-22
-4.70347e-21
1.9756e-23
1.87278e-05
2.71436e-22
1.69954e-22
-5.27432e-21
2.10372e-23
1.77256e-05
8.52307e-22
1.65886e-22
-5.48608e-21
2.13015e-23
1.67511e-05
-1.13055e-21
1.61473e-22
-6.25308e-21
2.14523e-23
1.58036e-05
-1.25387e-21
1.57747e-22
-4.30715e-21
2.28843e-23
1.48828e-05
-9.83476e-22
1.54085e-22
-4.40808e-21
2.32046e-23
1.39882e-05
-9.96795e-22
1.50545e-22
-2.42714e-21
2.33606e-23
1.31199e-05
-3.84089e-22
1.4652e-22
-3.96985e-21
2.35739e-23
1.22779e-05
-2.93205e-22
1.4255e-22
-1.83209e-22
2.43666e-23
1.14627e-05
-2.53838e-21
1.38221e-22
3.74537e-22
2.38902e-23
1.06747e-05
-2.17469e-21
1.34098e-22
1.40312e-22
2.30009e-23
9.91479e-06
-1.85272e-21
1.29548e-22
1.6194e-22
2.24979e-23
9.18382e-06
-2.33943e-21
1.23892e-22
2.50008e-21
2.23114e-23
8.48272e-06
-2.59621e-21
1.17766e-22
1.68442e-21
2.15005e-23
7.81238e-06
-2.57989e-21
1.11226e-22
3.54964e-21
2.08846e-23
7.1736e-06
-2.07981e-21
1.04563e-22
3.95494e-21
1.99754e-23
6.56689e-06
-2.0431e-21
9.78103e-23
1.74594e-21
1.88801e-23
5.99255e-06
-2.03006e-21
9.10791e-23
1.22334e-21
1.80129e-23
5.45054e-06
-8.56825e-22
8.44811e-23
1.52569e-21
1.70377e-23
4.94047e-06
-6.50077e-22
7.79702e-23
1.34113e-21
1.6055e-23
4.4617e-06
2.86505e-23
7.18273e-23
2.16715e-22
1.5124e-23
4.01331e-06
-2.78257e-22
6.5992e-23
7.15829e-22
1.42367e-23
3.59419e-06
-2.15432e-22
6.05568e-23
4.5828e-22
1.33491e-23
3.20307e-06
-1.50825e-22
5.54818e-23
2.23151e-22
1.24972e-23
2.83862e-06
2.35819e-22
5.0773e-23
3.30226e-22
1.16861e-23
2.49943e-06
-3.4641e-22
4.64096e-23
3.07903e-22
1.08999e-23
2.18413e-06
-6.16385e-22
4.24432e-23
5.4639e-22
1.01407e-23
1.89135e-06
-3.85541e-22
3.88139e-23
3.64437e-22
9.41206e-24
1.61973e-06
-3.8738e-22
3.5494e-23
4.11324e-22
8.73544e-24
1.368e-06
-3.37524e-22
3.24836e-23
1.67113e-22
8.09577e-24
1.13493e-06
-8.69248e-23
2.97465e-23
2.14791e-22
7.48343e-24
9.19368e-07
-1.30199e-22
2.72438e-23
2.11658e-22
6.88259e-24
7.20202e-07
-1.20931e-23
2.49613e-23
1.70355e-22
6.32293e-24
5.36404e-07
-3.54053e-23
2.28799e-23
7.07368e-23
5.80265e-24
3.66989e-07
-3.73899e-24
2.09739e-23
1.57449e-24
5.32708e-24
2.11039e-07
-1.3092e-23
1.92282e-23
7.59692e-24
4.88967e-24
6.76885e-08
2.89168e-24
9.51606e-25
0.00160463
-7.17106e-19
-5.21394e-19
0.0015583
-5.65241e-19
-5.43654e-19
0.00151283
-6.12583e-19
-5.27529e-19
0.00146829
-5.3349e-19
-4.28912e-19
0.0014247
-4.30062e-19
-5.61379e-19
0.00138208
-4.53535e-19
-6.22867e-19
0.00134047
-6.06408e-19
-2.47329e-19
0.00129988
-4.51466e-19
-3.24345e-19
0.0012603
-3.2039e-19
-3.52486e-19
0.00122174
-1.0115e-19
-3.50709e-19
0.0011842
-1.44659e-19
-2.56733e-19
0.00114766
-2.72893e-19
-2.05543e-19
0.00111213
-1.65184e-19
-2.45356e-19
0.00107758
-2.2175e-19
-2.64878e-19
0.00104399
-2.60018e-19
-2.51162e-19
0.00101136
-3.09916e-19
-1.02882e-19
0.000979669
-1.50657e-19
-1.99485e-19
0.000948889
-3.58634e-19
-2.42845e-19
0.000919004
-3.48468e-19
-2.02762e-19
0.000889996
-2.44237e-19
-3.55113e-19
0.000861843
-2.99069e-19
-3.47934e-19
0.000834525
-2.12406e-19
-3.159e-19
0.000808021
-2.31127e-19
-3.46871e-19
0.000782311
-2.55314e-19
-3.20303e-19
0.000757375
-2.64887e-19
-3.49619e-19
0.000733192
-2.91335e-19
-2.58996e-19
0.000709743
-2.01017e-19
-3.56653e-19
0.000687006
-1.70992e-19
-1.4896e-19
0.000664964
-1.33461e-19
-8.95608e-20
0.000643596
-1.19766e-19
-9.77107e-20
0.000622884
-1.01275e-19
-2.19706e-20
0.000602809
2.361e-20
-1.70105e-19
0.000583354
-6.07117e-20
-1.05392e-19
0.0005645
-2.7646e-19
-8.96015e-20
0.00054623
-2.41907e-19
-1.15192e-19
0.000528528
-3.05975e-19
-8.78109e-20
0.000511376
-2.02321e-19
-2.52823e-19
0.000494759
-1.99395e-19
-2.66876e-19
0.00047866
-1.60605e-19
-2.71864e-19
0.000463065
-1.8302e-19
-2.22351e-19
0.000447958
-2.31301e-19
-2.19582e-19
0.000433325
-2.29376e-19
-1.81887e-19
0.000419152
-2.06519e-19
-2.43942e-19
0.000405424
-2.49397e-19
-2.47881e-19
0.000392129
-2.40744e-19
-2.84824e-19
0.000379253
-2.42477e-19
-2.97516e-19
0.000366783
-2.79209e-19
-2.4669e-19
0.000354707
-2.58003e-19
-2.56803e-19
0.000343014
-2.92692e-19
-2.38939e-19
0.000331691
-2.60618e-19
-2.1694e-19
0.000320727
-2.58172e-19
-2.13261e-19
0.00031011
-2.77638e-19
-2.35832e-19
0.000299832
-2.83741e-19
-2.3789e-19
0.000289879
-2.88701e-19
-2.87576e-19
0.000280244
-2.20915e-19
-2.80745e-19
0.000270915
-1.73227e-19
-2.5704e-19
0.000261884
-1.73174e-19
-2.01035e-19
0.000253141
-1.73585e-19
-2.38371e-19
0.000244677
-1.28634e-19
-1.8427e-19
0.000236483
-1.01966e-19
-1.96581e-19
0.000228552
-9.85358e-20
-1.86919e-19
0.000220874
-1.05665e-19
-1.83625e-19
0.000213442
-1.0563e-19
-1.45723e-19
0.000206248
-8.89617e-20
-1.40516e-19
0.000199284
-9.93415e-20
-1.3138e-19
0.000192544
-1.24218e-19
-1.10219e-19
0.00018602
-1.18801e-19
-9.6267e-20
0.000179706
-1.3993e-19
-1.00634e-19
0.000173595
-1.42476e-19
-1.01541e-19
0.000167679
-1.25087e-19
-8.33249e-20
0.000161955
-9.03534e-20
-9.06048e-20
0.000156414
-1.01325e-19
-8.64176e-20
0.000151051
-9.82433e-20
-6.04981e-20
0.000145862
-6.82803e-20
-4.39887e-20
0.000140839
-5.5535e-20
-5.10277e-20
0.000135978
-5.89779e-20
-5.77029e-20
0.000131274
-6.61636e-20
-5.25519e-20
0.000126721
-5.78938e-20
-4.92932e-20
0.000122315
-4.97272e-20
-4.59206e-20
0.000118051
-5.3092e-20
-3.60015e-20
0.000113925
-3.65479e-20
-2.86724e-20
0.000109932
-4.23757e-20
-4.34933e-20
0.000106067
-4.89616e-20
-3.79772e-20
0.000102328
-3.72306e-20
-4.47576e-20
9.87086e-05
-2.271e-20
-5.08811e-20
9.52061e-05
3.71463e-21
-5.19284e-20
9.18167e-05
1.10054e-20
-3.96667e-20
8.85365e-05
5.17321e-21
-2.08441e-20
8.53619e-05
1.66071e-20
-3.53813e-20
8.22897e-05
7.00305e-21
-1.38661e-20
7.93163e-05
1.39324e-20
-2.40999e-20
7.64387e-05
-1.14084e-20
-1.42135e-20
7.36536e-05
-2.41409e-20
-1.94855e-21
7.09581e-05
-4.37438e-20