/*--------------------------------*- C++ -*----------------------------------*\
| =========                 |                                                 |
| \\      /  F ield         | OpenFOAM: The Open Source CFD Toolbox           |
|  \\    /   O peration     | Version:  2106                                  |
|   \\  /    A nd           | Website:  www.openfoam.com                      |
|    \\/     M anipulation  |                                                 |
\*---------------------------------------------------------------------------*/
FoamFile
{
    version     2.0;
    format      ascii;
    arch        "LSB;label=32;scalar=64";
    class       volSymmTensorField;
    location    "2000";
    object      turbulenceProperties:R;
}
// * * * * * * * * * * * * * * * * * * * * * * * * * * * * * * * * * * * * * //

dimensions      [0 2 -2 0 0 0 0];

internalField   nonuniform List<symmTensor> 
2560
(
(1.01355e-05 -3.68449e-08 -5.33372e-11 1.01355e-05 7.20161e-22 1.01355e-05)
(1.01355e-05 -3.68449e-08 -5.33372e-11 1.01355e-05 2.6346e-22 1.01355e-05)
(4.9951e-06 -1.0426e-07 -4.55079e-10 4.9951e-06 1.84753e-22 4.9951e-06)
(4.9951e-06 -1.0426e-07 -4.55079e-10 4.9951e-06 5.62315e-22 4.9951e-06)
(2.56854e-05 -1.57009e-06 -9.41253e-09 2.56854e-05 1.38294e-21 2.56854e-05)
(2.56854e-05 -1.57009e-06 -9.41253e-09 2.56854e-05 5.2333e-22 2.56854e-05)
(9.25674e-05 -1.16882e-05 -7.08047e-08 9.25674e-05 6.42736e-21 9.25674e-05)
(9.25674e-05 -1.16882e-05 -7.08047e-08 9.25674e-05 2.42633e-21 9.25674e-05)
(0.000236537 -4.95054e-05 -3.01406e-07 0.000236537 2.13367e-22 0.000236537)
(0.000236537 -4.95054e-05 -3.01406e-07 0.000236537 -2.81278e-21 0.000236537)
(0.000480157 -0.000141593 -8.61363e-07 0.000480157 -1.3276e-19 0.000480157)
(0.000480157 -0.000141593 -8.61363e-07 0.000480157 -6.48263e-20 0.000480157)
(0.000819776 -0.000300678 -1.82376e-06 0.000819776 -5.91885e-19 0.000819776)
(0.000819776 -0.000300678 -1.82376e-06 0.000819776 -2.73943e-19 0.000819776)
(0.00122089 -0.00050901 -3.08874e-06 0.00122089 -1.44103e-18 0.00122089)
(0.00122089 -0.00050901 -3.08874e-06 0.00122089 -6.60576e-19 0.00122089)
(0.00163645 -0.000731326 -4.4675e-06 0.00163645 -2.47006e-18 0.00163645)
(0.00163645 -0.000731326 -4.4675e-06 0.00163645 -1.12806e-18 0.00163645)
(0.00202933 -0.00093907 -5.80749e-06 0.00202933 -3.38024e-18 0.00202933)
(0.00202933 -0.00093907 -5.80749e-06 0.00202933 -1.54226e-18 0.00202933)
(0.00238008 -0.00111917 -7.03208e-06 0.00238008 -4.01308e-18 0.00238008)
(0.00238008 -0.00111917 -7.03208e-06 0.00238008 -1.83262e-18 0.00238008)
(0.00268318 -0.00126967 -8.12014e-06 0.00268318 -4.3614e-18 0.00268318)
(0.00268318 -0.00126967 -8.12014e-06 0.00268318 -1.99652e-18 0.00268318)
(0.00294065 -0.00139356 -9.07799e-06 0.00294065 -4.48564e-18 0.00294065)
(0.00294065 -0.00139356 -9.07799e-06 0.00294065 -2.06122e-18 0.00294065)
(0.00315764 -0.00149518 -9.92194e-06 0.00315764 -4.45444e-18 0.00315764)
(0.00315764 -0.00149518 -9.92194e-06 0.00315764 -2.05735e-18 0.00315764)
(0.00333999 -0.00157869 -1.06699e-05 0.00333999 -4.3226e-18 0.00333999)
(0.00333999 -0.00157869 -1.06699e-05 0.00333999 -2.00981e-18 0.00333999)
(0.00349318 -0.00164757 -1.13381e-05 0.00349318 -4.12936e-18 0.00349318)
(0.00349318 -0.00164757 -1.13381e-05 0.00349318 -1.93677e-18 0.00349318)
(0.00362197 -0.00170463 -1.19403e-05 0.00362197 -3.90049e-18 0.00362197)
(0.00362197 -0.00170463 -1.19403e-05 0.00362197 -1.84958e-18 0.00362197)
(0.00373033 -0.00175207 -1.24877e-05 0.00373033 -3.65285e-18 0.00373033)
(0.00373033 -0.00175207 -1.24877e-05 0.00373033 -1.75469e-18 0.00373033)
(0.0038215 -0.00179159 -1.29894e-05 0.0038215 -3.39705e-18 0.0038215)
(0.0038215 -0.00179159 -1.29894e-05 0.0038215 -1.65726e-18 0.0038215)
(0.00389815 -0.00182455 -1.34525e-05 0.00389815 -3.1389e-18 0.00389815)
(0.00389815 -0.00182455 -1.34525e-05 0.00389815 -1.56028e-18 0.00389815)
(0.00396244 -0.00185199 -1.3883e-05 0.00396244 -2.88261e-18 0.00396244)
(0.00396244 -0.00185199 -1.3883e-05 0.00396244 -1.4648e-18 0.00396244)
(0.00401614 -0.00187477 -1.42854e-05 0.00401614 -2.63132e-18 0.00401614)
(0.00401614 -0.00187477 -1.42854e-05 0.00401614 -1.37261e-18 0.00401614)
(0.0040607 -0.00189354 -1.46635e-05 0.0040607 -2.38583e-18 0.0040607)
(0.0040607 -0.00189354 -1.46635e-05 0.0040607 -1.28506e-18 0.0040607)
(0.0040973 -0.00190886 -1.50205e-05 0.0040973 -2.1454e-18 0.0040973)
(0.0040973 -0.00190886 -1.50205e-05 0.0040973 -1.20226e-18 0.0040973)
(0.00412695 -0.00192115 -1.53588e-05 0.00412695 -1.91094e-18 0.00412695)
(0.00412695 -0.00192115 -1.53588e-05 0.00412695 -1.12385e-18 0.00412695)
(0.00415046 -0.00193079 -1.56804e-05 0.00415046 -1.68377e-18 0.00415046)
(0.00415046 -0.00193079 -1.56804e-05 0.00415046 -1.04813e-18 0.00415046)
(0.00416853 -0.00193808 -1.59872e-05 0.00416853 -1.46193e-18 0.00416853)
(0.00416853 -0.00193808 -1.59872e-05 0.00416853 -9.7532e-19 0.00416853)
(0.00418175 -0.00194325 -1.62804e-05 0.00418175 -1.24507e-18 0.00418175)
(0.00418175 -0.00194325 -1.62804e-05 0.00418175 -9.07194e-19 0.00418175)
(0.00419062 -0.00194654 -1.65612e-05 0.00419062 -1.03347e-18 0.00419062)
(0.00419062 -0.00194654 -1.65612e-05 0.00419062 -8.44985e-19 0.00419062)
(0.00419556 -0.00194811 -1.68307e-05 0.00419556 -8.2623e-19 0.00419556)
(0.00419556 -0.00194811 -1.68307e-05 0.00419556 -7.87564e-19 0.00419556)
(0.00419694 -0.00194812 -1.70897e-05 0.00419694 -6.22893e-19 0.00419694)
(0.00419694 -0.00194812 -1.70897e-05 0.00419694 -7.29664e-19 0.00419694)
(0.00419508 -0.0019467 -1.73387e-05 0.00419508 -4.23211e-19 0.00419508)
(0.00419508 -0.0019467 -1.73387e-05 0.00419508 -6.69839e-19 0.00419508)
(0.00419026 -0.00194397 -1.75785e-05 0.00419026 -2.26835e-19 0.00419026)
(0.00419026 -0.00194397 -1.75785e-05 0.00419026 -6.14326e-19 0.00419026)
(0.00418272 -0.00194003 -1.78095e-05 0.00418272 -3.33374e-20 0.00418272)
(0.00418272 -0.00194003 -1.78095e-05 0.00418272 -5.66121e-19 0.00418272)
(0.00417268 -0.00193497 -1.80321e-05 0.00417268 1.57607e-19 0.00417268)
(0.00417268 -0.00193497 -1.80321e-05 0.00417268 -5.2107e-19 0.00417268)
(0.00416034 -0.00192886 -1.82467e-05 0.00416034 3.4783e-19 0.00416034)
(0.00416034 -0.00192886 -1.82467e-05 0.00416034 -4.75466e-19 0.00416034)
(0.00414585 -0.00192177 -1.84536e-05 0.00414585 5.35563e-19 0.00414585)
(0.00414585 -0.00192177 -1.84536e-05 0.00414585 -4.31997e-19 0.00414585)
(0.00412937 -0.00191378 -1.8653e-05 0.00412937 7.21034e-19 0.00412937)
(0.00412937 -0.00191378 -1.8653e-05 0.00412937 -3.94085e-19 0.00412937)
(0.00411104 -0.00190494 -1.88452e-05 0.00411104 9.0656e-19 0.00411104)
(0.00411104 -0.00190494 -1.88452e-05 0.00411104 -3.54835e-19 0.00411104)
(0.00409099 -0.00189529 -1.90304e-05 0.00409099 1.09226e-18 0.00409099)
(0.00409099 -0.00189529 -1.90304e-05 0.00409099 -3.1373e-19 0.00409099)
(0.00406932 -0.00188489 -1.92086e-05 0.00406932 1.27707e-18 0.00406932)
(0.00406932 -0.00188489 -1.92086e-05 0.00406932 -2.76446e-19 0.00406932)
(0.00404615 -0.00187379 -1.93801e-05 0.00404615 1.46159e-18 0.00404615)
(0.00404615 -0.00187379 -1.93801e-05 0.00404615 -2.43984e-19 0.00404615)
(0.00402156 -0.00186201 -1.9545e-05 0.00402156 1.64535e-18 0.00402156)
(0.00402156 -0.00186201 -1.9545e-05 0.00402156 -2.15039e-19 0.00402156)
(0.00399564 -0.00184961 -1.97033e-05 0.00399564 1.83027e-18 0.00399564)
(0.00399564 -0.00184961 -1.97033e-05 0.00399564 -1.84355e-19 0.00399564)
(0.00396847 -0.0018366 -1.98552e-05 0.00396847 2.01464e-18 0.00396847)
(0.00396847 -0.0018366 -1.98552e-05 0.00396847 -1.50771e-19 0.00396847)
(0.00394013 -0.00182304 -2.00007e-05 0.00394013 2.20053e-18 0.00394013)
(0.00394013 -0.00182304 -2.00007e-05 0.00394013 -1.19044e-19 0.00394013)
(0.00391069 -0.00180895 -2.01399e-05 0.00391069 2.38656e-18 0.00391069)
(0.00391069 -0.00180895 -2.01399e-05 0.00391069 -8.92612e-20 0.00391069)
(0.00388021 -0.00179435 -2.02728e-05 0.00388021 2.57126e-18 0.00388021)
(0.00388021 -0.00179435 -2.02728e-05 0.00388021 -6.88143e-20 0.00388021)
(0.00384876 -0.00177928 -2.03995e-05 0.00384876 2.76008e-18 0.00384876)
(0.00384876 -0.00177928 -2.03995e-05 0.00384876 -5.25079e-20 0.00384876)
(0.00381638 -0.00176377 -2.05201e-05 0.00381638 2.94998e-18 0.00381638)
(0.00381638 -0.00176377 -2.05201e-05 0.00381638 -3.37322e-20 0.00381638)
(0.00378315 -0.00174783 -2.06345e-05 0.00378315 3.1422e-18 0.00378315)
(0.00378315 -0.00174783 -2.06345e-05 0.00378315 -1.49102e-20 0.00378315)
(0.0037491 -0.00173149 -2.07428e-05 0.0037491 3.33486e-18 0.0037491)
(0.0037491 -0.00173149 -2.07428e-05 0.0037491 8.30009e-21 0.0037491)
(0.00371429 -0.00171478 -2.0845e-05 0.00371429 3.52641e-18 0.00371429)
(0.00371429 -0.00171478 -2.0845e-05 0.00371429 2.65793e-20 0.00371429)
(0.00367877 -0.00169772 -2.09412e-05 0.00367877 3.7216e-18 0.00367877)
(0.00367877 -0.00169772 -2.09412e-05 0.00367877 4.19552e-20 0.00367877)
(0.00364258 -0.00168033 -2.10313e-05 0.00364258 3.91836e-18 0.00364258)
(0.00364258 -0.00168033 -2.10313e-05 0.00364258 6.2828e-20 0.00364258)
(0.00360575 -0.00166263 -2.11154e-05 0.00360575 4.11766e-18 0.00360575)
(0.00360575 -0.00166263 -2.11154e-05 0.00360575 7.48398e-20 0.00360575)
(0.00356834 -0.00164464 -2.11936e-05 0.00356834 4.31508e-18 0.00356834)
(0.00356834 -0.00164464 -2.11936e-05 0.00356834 8.18078e-20 0.00356834)
(0.00353039 -0.00162638 -2.12657e-05 0.00353039 4.5125e-18 0.00353039)
(0.00353039 -0.00162638 -2.12657e-05 0.00353039 1.02642e-19 0.00353039)
(0.00349192 -0.00160787 -2.1332e-05 0.00349192 4.71957e-18 0.00349192)
(0.00349192 -0.00160787 -2.1332e-05 0.00349192 1.25633e-19 0.00349192)
(0.00345298 -0.00158913 -2.13923e-05 0.00345298 4.9299e-18 0.00345298)
(0.00345298 -0.00158913 -2.13923e-05 0.00345298 1.34063e-19 0.00345298)
(0.0034136 -0.00157017 -2.14467e-05 0.0034136 5.13891e-18 0.0034136)
(0.0034136 -0.00157017 -2.14467e-05 0.0034136 1.3924e-19 0.0034136)
(0.00337382 -0.00155102 -2.14952e-05 0.00337382 5.35268e-18 0.00337382)
(0.00337382 -0.00155102 -2.14952e-05 0.00337382 1.55066e-19 0.00337382)
(0.00333367 -0.00153168 -2.15379e-05 0.00333367 5.56784e-18 0.00333367)
(0.00333367 -0.00153168 -2.15379e-05 0.00333367 1.75553e-19 0.00333367)
(0.00329318 -0.00151218 -2.15748e-05 0.00329318 5.78326e-18 0.00329318)
(0.00329318 -0.00151218 -2.15748e-05 0.00329318 1.84385e-19 0.00329318)
(0.00325238 -0.00149254 -2.16058e-05 0.00325238 6.00532e-18 0.00325238)
(0.00325238 -0.00149254 -2.16058e-05 0.00325238 1.8148e-19 0.00325238)
(0.0032113 -0.00147275 -2.16311e-05 0.0032113 6.22891e-18 0.0032113)
(0.0032113 -0.00147275 -2.16311e-05 0.0032113 1.79473e-19 0.0032113)
(0.00316997 -0.00145286 -2.16506e-05 0.00316997 6.45329e-18 0.00316997)
(0.00316997 -0.00145286 -2.16506e-05 0.00316997 1.84536e-19 0.00316997)
(0.00312842 -0.00143285 -2.16644e-05 0.00312842 6.67728e-18 0.00312842)
(0.00312842 -0.00143285 -2.16644e-05 0.00312842 1.90797e-19 0.00312842)
(0.00308668 -0.00141276 -2.16725e-05 0.00308668 6.90197e-18 0.00308668)
(0.00308668 -0.00141276 -2.16725e-05 0.00308668 1.93394e-19 0.00308668)
(0.00304477 -0.0013926 -2.1675e-05 0.00304477 7.13931e-18 0.00304477)
(0.00304477 -0.0013926 -2.1675e-05 0.00304477 1.89491e-19 0.00304477)
(0.00300272 -0.00137237 -2.16719e-05 0.00300272 7.38758e-18 0.00300272)
(0.00300272 -0.00137237 -2.16719e-05 0.00300272 1.85047e-19 0.00300272)
(0.00296056 -0.0013521 -2.16632e-05 0.00296056 7.63061e-18 0.00296056)
(0.00296056 -0.0013521 -2.16632e-05 0.00296056 1.89281e-19 0.00296056)
(0.0029183 -0.00133179 -2.16489e-05 0.0029183 7.87121e-18 0.0029183)
(0.0029183 -0.00133179 -2.16489e-05 0.0029183 2.03761e-19 0.0029183)
(0.00287598 -0.00131145 -2.16292e-05 0.00287598 8.11572e-18 0.00287598)
(0.00287598 -0.00131145 -2.16292e-05 0.00287598 2.14158e-19 0.00287598)
(0.00283361 -0.00129111 -2.16041e-05 0.00283361 8.36717e-18 0.00283361)
(0.00283361 -0.00129111 -2.16041e-05 0.00283361 1.87178e-19 0.00283361)
(0.00279123 -0.00127077 -2.15735e-05 0.00279123 8.62302e-18 0.00279123)
(0.00279123 -0.00127077 -2.15735e-05 0.00279123 1.63598e-19 0.00279123)
(0.00274884 -0.00125044 -2.15377e-05 0.00274884 8.87822e-18 0.00274884)
(0.00274884 -0.00125044 -2.15377e-05 0.00274884 1.72069e-19 0.00274884)
(0.00270648 -0.00123013 -2.14965e-05 0.00270648 7.88491e-18 0.00270648)
(0.00270648 -0.00123013 -2.14965e-05 0.00270648 1.77051e-19 0.00270648)
(0.00266415 -0.00120986 -2.14501e-05 0.00266415 1.19544e-18 0.00266415)
(0.00266415 -0.00120986 -2.14501e-05 0.00266415 1.73094e-19 0.00266415)
(0.0026219 -0.00118963 -2.13986e-05 0.0026219 7.07851e-19 0.0026219)
(0.0026219 -0.00118963 -2.13986e-05 0.0026219 1.59754e-19 0.0026219)
(0.00257972 -0.00116946 -2.1342e-05 0.00257972 8.04846e-19 0.00257972)
(0.00257972 -0.00116946 -2.1342e-05 0.00257972 1.28048e-19 0.00257972)
(0.00253765 -0.00114935 -2.12803e-05 0.00253765 8.328e-19 0.00253765)
(0.00253765 -0.00114935 -2.12803e-05 0.00253765 1.22475e-19 0.00253765)
(0.00249569 -0.00112932 -2.12136e-05 0.00249569 9.0754e-19 0.00249569)
(0.00249569 -0.00112932 -2.12136e-05 0.00249569 1.50569e-19 0.00249569)
(0.00245388 -0.00110937 -2.1142e-05 0.00245388 1.0335e-18 0.00245388)
(0.00245388 -0.00110937 -2.1142e-05 0.00245388 1.43445e-19 0.00245388)
(0.00241222 -0.00108951 -2.10656e-05 0.00241222 1.1113e-18 0.00241222)
(0.00241222 -0.00108951 -2.10656e-05 0.00241222 1.04715e-19 0.00241222)
(0.00237073 -0.00106975 -2.09845e-05 0.00237073 1.19261e-18 0.00237073)
(0.00237073 -0.00106975 -2.09845e-05 0.00237073 8.14318e-20 0.00237073)
(0.00232944 -0.00105011 -2.08986e-05 0.00232944 1.24964e-18 0.00232944)
(0.00232944 -0.00105011 -2.08986e-05 0.00232944 8.28178e-20 0.00232944)
(0.00228835 -0.00103058 -2.08082e-05 0.00228835 1.27904e-18 0.00228835)
(0.00228835 -0.00103058 -2.08082e-05 0.00228835 1.04598e-19 0.00228835)
(0.00224747 -0.00101117 -2.07132e-05 0.00224747 1.332e-18 0.00224747)
(0.00224747 -0.00101117 -2.07132e-05 0.00224747 1.23837e-19 0.00224747)
(0.00220684 -0.000991901 -2.06137e-05 0.00220684 1.35273e-18 0.00220684)
(0.00220684 -0.000991901 -2.06137e-05 0.00220684 9.78621e-20 0.00220684)
(0.00216645 -0.000972768 -2.05099e-05 0.00216645 1.37261e-18 0.00216645)
(0.00216645 -0.000972768 -2.05099e-05 0.00216645 8.08783e-20 0.00216645)
(0.00212632 -0.000953782 -2.04019e-05 0.00212632 1.45444e-18 0.00212632)
(0.00212632 -0.000953782 -2.04019e-05 0.00212632 9.25593e-20 0.00212632)
(0.00208647 -0.000934949 -2.02896e-05 0.00208647 1.54907e-18 0.00208647)
(0.00208647 -0.000934949 -2.02896e-05 0.00208647 6.34086e-20 0.00208647)
(0.00204691 -0.000916275 -2.01732e-05 0.00204691 1.59468e-18 0.00204691)
(0.00204691 -0.000916275 -2.01732e-05 0.00204691 2.90954e-20 0.00204691)
(0.00200765 -0.000897766 -2.00528e-05 0.00200765 1.63972e-18 0.00200765)
(0.00200765 -0.000897766 -2.00528e-05 0.00200765 4.01941e-20 0.00200765)
(0.00196871 -0.000879428 -1.99285e-05 0.00196871 1.7714e-18 0.00196871)
(0.00196871 -0.000879428 -1.99285e-05 0.00196871 5.06054e-20 0.00196871)
(0.00193009 -0.000861266 -1.98003e-05 0.00193009 1.93082e-18 0.00193009)
(0.00193009 -0.000861266 -1.98003e-05 0.00193009 1.94285e-21 0.00193009)
(0.0018918 -0.000843285 -1.96685e-05 0.0018918 1.99111e-18 0.0018918)
(0.0018918 -0.000843285 -1.96685e-05 0.0018918 -7.68896e-20 0.0018918)
(0.00185386 -0.00082549 -1.9533e-05 0.00185386 1.98011e-18 0.00185386)
(0.00185386 -0.00082549 -1.9533e-05 0.00185386 -9.26566e-20 0.00185386)
(0.00181627 -0.000807885 -1.93939e-05 0.00181627 2.01729e-18 0.00181627)
(0.00181627 -0.000807885 -1.93939e-05 0.00181627 -3.77291e-20 0.00181627)
(0.00177905 -0.000790476 -1.92514e-05 0.00177905 2.12325e-18 0.00177905)
(0.00177905 -0.000790476 -1.92514e-05 0.00177905 1.22574e-18 0.00177905)
(0.0017422 -0.000773265 -1.91056e-05 0.0017422 2.2209e-18 0.0017422)
(0.0017422 -0.000773265 -1.91056e-05 0.0017422 1.60204e-18 0.0017422)
(0.00170573 -0.000756257 -1.89566e-05 0.00170573 2.26411e-18 0.00170573)
(0.00170573 -0.000756257 -1.89566e-05 0.00170573 1.69195e-18 0.00170573)
(0.00166965 -0.000739456 -1.88044e-05 0.00166965 2.33322e-18 0.00166965)
(0.00166965 -0.000739456 -1.88044e-05 0.00166965 1.71069e-18 0.00166965)
(0.00163397 -0.000722864 -1.86492e-05 0.00163397 2.42709e-18 0.00163397)
(0.00163397 -0.000722864 -1.86492e-05 0.00163397 1.72472e-18 0.00163397)
(0.00159869 -0.000706484 -1.8491e-05 0.00159869 2.48146e-18 0.00159869)
(0.00159869 -0.000706484 -1.8491e-05 0.00159869 1.72056e-18 0.00159869)
(0.00156382 -0.00069032 -1.83301e-05 0.00156382 2.4581e-18 0.00156382)
(0.00156382 -0.00069032 -1.83301e-05 0.00156382 1.69561e-18 0.00156382)
(0.00152937 -0.000674374 -1.81664e-05 0.00152937 2.43982e-18 0.00152937)
(0.00152937 -0.000674374 -1.81664e-05 0.00152937 1.75313e-18 0.00152937)
(0.00149534 -0.000658648 -1.80001e-05 0.00149534 2.50334e-18 0.00149534)
(0.00149534 -0.000658648 -1.80001e-05 0.00149534 1.82982e-18 0.00149534)
(0.00146174 -0.000643145 -1.78313e-05 0.00146174 2.58493e-18 0.00146174)
(0.00146174 -0.000643145 -1.78313e-05 0.00146174 1.87725e-18 0.00146174)
(0.00142858 -0.000627866 -1.76602e-05 0.00142858 2.68867e-18 0.00142858)
(0.00142858 -0.000627866 -1.76602e-05 0.00142858 1.86681e-18 0.00142858)
(0.00139585 -0.000612814 -1.74867e-05 0.00139585 2.72615e-18 0.00139585)
(0.00139585 -0.000612814 -1.74867e-05 0.00139585 1.86195e-18 0.00139585)
(0.00136356 -0.000597988 -1.73111e-05 0.00136356 2.7406e-18 0.00136356)
(0.00136356 -0.000597988 -1.73111e-05 0.00136356 1.89271e-18 0.00136356)
(0.00133171 -0.000583392 -1.71333e-05 0.00133171 2.84442e-18 0.00133171)
(0.00133171 -0.000583392 -1.71333e-05 0.00133171 2.0045e-18 0.00133171)
(0.00130032 -0.000569025 -1.69537e-05 0.00130032 2.94499e-18 0.00130032)
(0.00130032 -0.000569025 -1.69537e-05 0.00130032 2.00161e-18 0.00130032)
(0.00126937 -0.000554889 -1.67721e-05 0.00126937 3.01862e-18 0.00126937)
(0.00126937 -0.000554889 -1.67721e-05 0.00126937 1.98909e-18 0.00126937)
(0.00123888 -0.000540985 -1.65888e-05 0.00123888 3.1088e-18 0.00123888)
(0.00123888 -0.000540985 -1.65888e-05 0.00123888 2.00752e-18 0.00123888)
(0.00120885 -0.000527312 -1.64039e-05 0.00120885 3.16132e-18 0.00120885)
(0.00120885 -0.000527312 -1.64039e-05 0.00120885 2.06271e-18 0.00120885)
(0.00117927 -0.000513872 -1.62174e-05 0.00117927 3.2547e-18 0.00117927)
(0.00117927 -0.000513872 -1.62174e-05 0.00117927 2.0136e-18 0.00117927)
(0.00115015 -0.000500663 -1.60295e-05 0.00115015 3.21016e-18 0.00115015)
(0.00115015 -0.000500663 -1.60295e-05 0.00115015 2.01529e-18 0.00115015)
(0.00112149 -0.000487687 -1.58402e-05 0.00112149 3.23739e-18 0.00112149)
(0.00112149 -0.000487687 -1.58402e-05 0.00112149 2.08433e-18 0.00112149)
(0.00109329 -0.000474943 -1.56498e-05 0.00109329 3.34956e-18 0.00109329)
(0.00109329 -0.000474943 -1.56498e-05 0.00109329 2.1142e-18 0.00109329)
(0.00106555 -0.000462431 -1.54582e-05 0.00106555 3.36643e-18 0.00106555)
(0.00106555 -0.000462431 -1.54582e-05 0.00106555 2.11017e-18 0.00106555)
(0.00103828 -0.000450149 -1.52655e-05 0.00103828 3.29086e-18 0.00103828)
(0.00103828 -0.000450149 -1.52655e-05 0.00103828 2.16796e-18 0.00103828)
(0.00101146 -0.000438098 -1.5072e-05 0.00101146 3.31229e-18 0.00101146)
(0.00101146 -0.000438098 -1.5072e-05 0.00101146 2.25236e-18 0.00101146)
(0.00098511 -0.000426277 -1.48777e-05 0.00098511 3.37765e-18 0.00098511)
(0.00098511 -0.000426277 -1.48777e-05 0.00098511 2.27484e-18 0.00098511)
(0.000959217 -0.000414684 -1.46826e-05 0.000959217 3.40711e-18 0.000959217)
(0.000959217 -0.000414684 -1.46826e-05 0.000959217 2.2359e-18 0.000959217)
(0.000933782 -0.000403319 -1.44869e-05 0.000933782 3.39344e-18 0.000933782)
(0.000933782 -0.000403319 -1.44869e-05 0.000933782 2.28145e-18 0.000933782)
(0.000908805 -0.00039218 -1.42907e-05 0.000908805 3.41393e-18 0.000908805)
(0.000908805 -0.00039218 -1.42907e-05 0.000908805 2.34353e-18 0.000908805)
(0.000884284 -0.000381266 -1.40941e-05 0.000884284 3.56086e-18 0.000884284)
(0.000884284 -0.000381266 -1.40941e-05 0.000884284 2.49757e-18 0.000884284)
(0.000860217 -0.000370576 -1.38971e-05 0.000860217 3.71946e-18 0.000860217)
(0.000860217 -0.000370576 -1.38971e-05 0.000860217 2.4573e-18 0.000860217)
(0.000836602 -0.000360107 -1.36999e-05 0.000836602 3.73982e-18 0.000836602)
(0.000836602 -0.000360107 -1.36999e-05 0.000836602 2.31595e-18 0.000836602)
(0.000813437 -0.000349858 -1.35025e-05 0.000813437 3.58597e-18 0.000813437)
(0.000813437 -0.000349858 -1.35025e-05 0.000813437 2.32956e-18 0.000813437)
(0.000790719 -0.000339828 -1.33051e-05 0.000790719 3.47823e-18 0.000790719)
(0.000790719 -0.000339828 -1.33051e-05 0.000790719 2.45041e-18 0.000790719)
(0.000768446 -0.000330014 -1.31078e-05 0.000768446 3.46261e-18 0.000768446)
(0.000768446 -0.000330014 -1.31078e-05 0.000768446 2.47082e-18 0.000768446)
(0.000746614 -0.000320415 -1.29105e-05 0.000746614 3.40839e-18 0.000746614)
(0.000746614 -0.000320415 -1.29105e-05 0.000746614 2.48822e-18 0.000746614)
(0.00072522 -0.000311028 -1.27134e-05 0.00072522 3.337e-18 0.00072522)
(0.00072522 -0.000311028 -1.27134e-05 0.00072522 2.617e-18 0.00072522)
(0.000704262 -0.000301851 -1.25167e-05 0.000704262 3.31233e-18 0.000704262)
(0.000704262 -0.000301851 -1.25167e-05 0.000704262 2.66483e-18 0.000704262)
(0.000683734 -0.000292882 -1.23203e-05 0.000683734 3.29547e-18 0.000683734)
(0.000683734 -0.000292882 -1.23203e-05 0.000683734 2.57428e-18 0.000683734)
(0.000663635 -0.000284118 -1.21243e-05 0.000663635 3.22119e-18 0.000663635)
(0.000663635 -0.000284118 -1.21243e-05 0.000663635 2.6327e-18 0.000663635)
(0.000643959 -0.000275558 -1.19289e-05 0.000643959 3.21995e-18 0.000643959)
(0.000643959 -0.000275558 -1.19289e-05 0.000643959 2.78914e-18 0.000643959)
(0.000624703 -0.000267198 -1.1734e-05 0.000624703 3.27455e-18 0.000624703)
(0.000624703 -0.000267198 -1.1734e-05 0.000624703 2.7541e-18 0.000624703)
(0.000605863 -0.000259037 -1.15399e-05 0.000605863 3.14683e-18 0.000605863)
(0.000605863 -0.000259037 -1.15399e-05 0.000605863 2.71619e-18 0.000605863)
(0.000587435 -0.000251071 -1.13465e-05 0.000587435 2.9959e-18 0.000587435)
(0.000587435 -0.000251071 -1.13465e-05 0.000587435 2.80883e-18 0.000587435)
(0.000569414 -0.000243298 -1.11539e-05 0.000569414 2.95128e-18 0.000569414)
(0.000569414 -0.000243298 -1.11539e-05 0.000569414 2.81523e-18 0.000569414)
(0.000551795 -0.000235715 -1.09621e-05 0.000551795 2.84043e-18 0.000551795)
(0.000551795 -0.000235715 -1.09621e-05 0.000551795 2.81879e-18 0.000551795)
(0.000534575 -0.00022832 -1.07714e-05 0.000534575 2.76504e-18 0.000534575)
(0.000534575 -0.00022832 -1.07714e-05 0.000534575 2.90869e-18 0.000534575)
(0.000517749 -0.000221109 -1.05816e-05 0.000517749 2.75381e-18 0.000517749)
(0.000517749 -0.000221109 -1.05816e-05 0.000517749 2.94677e-18 0.000517749)
(0.000501311 -0.000214081 -1.0393e-05 0.000501311 2.62575e-18 0.000501311)
(0.000501311 -0.000214081 -1.0393e-05 0.000501311 2.93944e-18 0.000501311)
(0.000485258 -0.000207231 -1.02054e-05 0.000485258 2.48048e-18 0.000485258)
(0.000485258 -0.000207231 -1.02054e-05 0.000485258 3.00272e-18 0.000485258)
(0.000469584 -0.000200558 -1.00191e-05 0.000469584 2.42054e-18 0.000469584)
(0.000469584 -0.000200558 -1.00191e-05 0.000469584 3.18065e-18 0.000469584)
(0.000454284 -0.000194058 -9.83398e-06 0.000454284 2.2402e-18 0.000454284)
(0.000454284 -0.000194058 -9.83398e-06 0.000454284 3.22843e-18 0.000454284)
(0.000439355 -0.000187729 -9.65018e-06 0.000439355 1.9973e-18 0.000439355)
(0.000439355 -0.000187729 -9.65018e-06 0.000439355 3.17549e-18 0.000439355)
(0.00042479 -0.000181568 -9.46774e-06 0.00042479 2.00247e-18 0.00042479)
(0.00042479 -0.000181568 -9.46774e-06 0.00042479 3.1855e-18 0.00042479)
(0.000410585 -0.000175571 -9.28671e-06 0.000410585 2.0174e-18 0.000410585)
(0.000410585 -0.000175571 -9.28671e-06 0.000410585 3.21807e-18 0.000410585)
(0.000396736 -0.000169736 -9.10712e-06 0.000396736 1.76234e-18 0.000396736)
(0.000396736 -0.000169736 -9.10712e-06 0.000396736 3.37908e-18 0.000396736)
(0.000383236 -0.00016406 -8.92904e-06 0.000383236 1.45304e-18 0.000383236)
(0.000383236 -0.00016406 -8.92904e-06 0.000383236 3.53248e-18 0.000383236)
(0.000370083 -0.000158539 -8.7525e-06 0.000370083 1.27892e-18 0.000370083)
(0.000370083 -0.000158539 -8.7525e-06 0.000370083 3.4367e-18 0.000370083)
(0.00035727 -0.000153172 -8.57754e-06 0.00035727 1.08486e-18 0.00035727)
(0.00035727 -0.000153172 -8.57754e-06 0.00035727 3.33189e-18 0.00035727)
(0.000344793 -0.000147955 -8.40421e-06 0.000344793 9.0241e-19 0.000344793)
(0.000344793 -0.000147955 -8.40421e-06 0.000344793 3.47714e-18 0.000344793)
(0.000332647 -0.000142885 -8.23255e-06 0.000332647 8.02835e-19 0.000332647)
(0.000332647 -0.000142885 -8.23255e-06 0.000332647 3.59633e-18 0.000332647)
(0.000320829 -0.000137959 -8.0626e-06 0.000320829 3.75442e-19 0.000320829)
(0.000320829 -0.000137959 -8.0626e-06 0.000320829 3.56219e-18 0.000320829)
(0.000309332 -0.000133174 -7.89438e-06 0.000309332 1.65109e-19 0.000309332)
(0.000309332 -0.000133174 -7.89438e-06 0.000309332 3.58216e-18 0.000309332)
(0.000298154 -0.000128528 -7.72795e-06 0.000298154 -2.6072e-19 0.000298154)
(0.000298154 -0.000128528 -7.72795e-06 0.000298154 3.68346e-18 0.000298154)
(0.000287289 -0.000124018 -7.56333e-06 0.000287289 -4.46652e-19 0.000287289)
(0.000287289 -0.000124018 -7.56333e-06 0.000287289 3.71578e-18 0.000287289)
(0.000276734 -0.000119641 -7.40056e-06 0.000276734 -7.81462e-19 0.000276734)
(0.000276734 -0.000119641 -7.40056e-06 0.000276734 3.78089e-18 0.000276734)
(0.000266484 -0.000115394 -7.23967e-06 0.000266484 -9.6081e-19 0.000266484)
(0.000266484 -0.000115394 -7.23967e-06 0.000266484 3.8629e-18 0.000266484)
(0.000256535 -0.000111275 -7.0807e-06 0.000256535 -1.19837e-18 0.000256535)
(0.000256535 -0.000111275 -7.0807e-06 0.000256535 3.98478e-18 0.000256535)
(0.000246884 -0.00010728 -6.92367e-06 0.000246884 -1.44326e-18 0.000246884)
(0.000246884 -0.00010728 -6.92367e-06 0.000246884 4.11115e-18 0.000246884)
(0.000237527 -0.000103407 -6.76863e-06 0.000237527 -1.58788e-18 0.000237527)
(0.000237527 -0.000103407 -6.76863e-06 0.000237527 4.13134e-18 0.000237527)
(0.000228459 -9.96541e-05 -6.6156e-06 0.000228459 -1.90127e-18 0.000228459)
(0.000228459 -9.96541e-05 -6.6156e-06 0.000228459 4.21131e-18 0.000228459)
(0.000219679 -9.60179e-05 -6.46462e-06 0.000219679 -2.17416e-18 0.000219679)
(0.000219679 -9.60179e-05 -6.46462e-06 0.000219679 4.33963e-18 0.000219679)
(0.000211182 -9.24962e-05 -6.31572e-06 0.000211182 -2.24543e-18 0.000211182)
(0.000211182 -9.24962e-05 -6.31572e-06 0.000211182 4.45878e-18 0.000211182)
(0.000202965 -8.90864e-05 -6.16894e-06 0.000202965 -2.55721e-18 0.000202965)
(0.000202965 -8.90864e-05 -6.16894e-06 0.000202965 4.54089e-18 0.000202965)
(0.000195026 -8.57862e-05 -6.02432e-06 0.000195026 -2.85932e-18 0.000195026)
(0.000195026 -8.57862e-05 -6.02432e-06 0.000195026 4.65213e-18 0.000195026)
(0.00018736 -8.25933e-05 -5.88189e-06 0.00018736 -3.07856e-18 0.00018736)
(0.00018736 -8.25933e-05 -5.88189e-06 0.00018736 4.78523e-18 0.00018736)
(0.000179966 -7.95055e-05 -5.74171e-06 0.000179966 -3.35961e-18 0.000179966)
(0.000179966 -7.95054e-05 -5.74171e-06 0.000179966 5.00997e-18 0.000179966)
(0.000172841 -7.65204e-05 -5.60382e-06 0.000172841 -3.47811e-18 0.000172841)
(0.000172841 -7.65204e-05 -5.60382e-06 0.000172841 5.31809e-18 0.000172841)
(0.000165981 -7.3636e-05 -5.46827e-06 0.000165981 -3.56902e-18 0.000165981)
(0.000165981 -7.3636e-05 -5.46827e-06 0.000165981 5.40563e-18 0.000165981)
(0.000159384 -7.08503e-05 -5.33512e-06 0.000159384 -3.62061e-18 0.000159384)
(0.000159384 -7.08503e-05 -5.33512e-06 0.000159384 5.41841e-18 0.000159384)
(0.000153048 -6.81612e-05 -5.20442e-06 0.000153048 -3.71152e-18 0.000153048)
(0.000153048 -6.81612e-05 -5.20442e-06 0.000153048 5.4583e-18 0.000153048)
(0.00014697 -6.5567e-05 -5.07625e-06 0.00014697 -4.03363e-18 0.00014697)
(0.00014697 -6.5567e-05 -5.07625e-06 0.00014697 5.63148e-18 0.00014697)
(0.000141146 -6.30658e-05 -4.95068e-06 0.000141146 -4.31183e-18 0.000141146)
(0.000141146 -6.30658e-05 -4.95067e-06 0.000141146 5.67766e-18 0.000141146)
(0.000135575 -6.06559e-05 -4.82778e-06 0.000135575 -4.43467e-18 0.000135575)
(0.000135575 -6.06559e-05 -4.82778e-06 0.000135575 5.53667e-18 0.000135575)
(0.000130254 -5.83358e-05 -4.70767e-06 0.000130254 -4.61838e-18 0.000130254)
(0.000130254 -5.83358e-05 -4.70767e-06 0.000130254 5.9713e-18 0.000130254)
(0.000125179 -5.61039e-05 -4.59043e-06 0.000125179 -4.87209e-18 0.000125179)
(0.000125179 -5.61039e-05 -4.59042e-06 0.000125179 6.57189e-18 0.000125179)
(0.000120347 -5.39589e-05 -4.47617e-06 0.000120347 -4.98408e-18 0.000120347)
(0.000120347 -5.39589e-05 -4.47617e-06 0.000120347 6.81814e-18 0.000120347)
(0.000115755 -5.18995e-05 -4.36502e-06 0.000115755 -5.44017e-18 0.000115755)
(0.000115755 -5.18995e-05 -4.36502e-06 0.000115755 7.069e-18 0.000115755)
(0.000111398 -4.99245e-05 -4.25713e-06 0.000111398 -5.55389e-18 0.000111398)
(0.000111398 -4.99245e-05 -4.25712e-06 0.000111398 7.34889e-18 0.000111398)
(0.000107274 -4.8033e-05 -4.15262e-06 0.000107274 -4.13434e-18 0.000107274)
(0.000107274 -4.8033e-05 -4.15262e-06 0.000107274 7.58992e-18 0.000107274)
(0.000103377 -4.62239e-05 -4.05168e-06 0.000103377 -2.99423e-18 0.000103377)
(0.000103377 -4.62239e-05 -4.05168e-06 0.000103377 7.89868e-18 0.000103377)
(9.97031e-05 -4.44965e-05 -3.95447e-06 9.97031e-05 -2.98213e-18 9.97031e-05)
(9.97031e-05 -4.44965e-05 -3.95447e-06 9.97031e-05 8.29817e-18 9.97031e-05)
(9.62465e-05 -4.28501e-05 -3.8612e-06 9.62465e-05 -3.06317e-18 9.62465e-05)
(9.62465e-05 -4.28501e-05 -3.8612e-06 9.62465e-05 8.69062e-18 9.62465e-05)
(9.30019e-05 -4.12841e-05 -3.77206e-06 9.30019e-05 -3.31507e-18 9.30019e-05)
(9.30019e-05 -4.12841e-05 -3.77206e-06 9.30019e-05 9.07361e-18 9.30019e-05)
(8.99632e-05 -3.97982e-05 -3.6873e-06 8.99632e-05 -3.54402e-18 8.99632e-05)
(8.99632e-05 -3.97982e-05 -3.6873e-06 8.99632e-05 9.51486e-18 8.99632e-05)
(8.7124e-05 -3.8392e-05 -3.60715e-06 8.7124e-05 -3.41354e-18 8.7124e-05)
(8.7124e-05 -3.8392e-05 -3.60715e-06 8.7124e-05 9.90174e-18 8.7124e-05)
(8.44775e-05 -3.70654e-05 -3.53186e-06 8.44775e-05 -3.19311e-18 8.44775e-05)
(8.44775e-05 -3.70654e-05 -3.53186e-06 8.44775e-05 1.00934e-17 8.44775e-05)
(8.20166e-05 -3.58183e-05 -3.46173e-06 8.20166e-05 -3.33792e-18 8.20166e-05)