/*--------------------------------*- C++ -*----------------------------------*\
| =========                 |                                                 |
| \\      /  F ield         | OpenFOAM: The Open Source CFD Toolbox           |
|  \\    /   O peration     | Version:  2012                                  |
|   \\  /    A nd           | Website:  www.openfoam.com                      |
|    \\/     M anipulation  |                                                 |
\*---------------------------------------------------------------------------*/
FoamFile
{
    version     2.0;
    format      ascii;
    class       volTensorField;
    location    "10000";
    object      grad(U);
}
// * * * * * * * * * * * * * * * * * * * * * * * * * * * * * * * * * * * * * //

dimensions      [0 0 -1 0 0 0 0];


internalField   nonuniform List<tensor> 
5120
(
(0 -6.62386e-25 -2.15527e-27 34.157 -3.03172e-11 -4.22318e-13 0.0247748 -1.09928e-14 -1.15847e-16)
(0 -6.02967e-28 -3.24143e-32 34.157 -1.97215e-31 -6.2301e-18 0.0247748 9.62965e-34 4.65905e-18)
(-9.05829e-18 5.60519e-45 4.86855e-31 34.1535 6.46237e-27 -9.18605e-14 0.0744998 6.31089e-30 -1.34216e-16)
(9.05829e-18 -2.47154e-29 -3.21815e-31 34.1535 -3.58522e-15 -7.27268e-18 0.0744998 -3.70392e-18 -5.24372e-17)
(3.26816e-17 -1.18092e-29 -3.74167e-27 34.148 3.63218e-12 -3.15544e-30 0.100861 -8.29084e-15 0)
(-1.79865e-17 8.17931e-30 1.91703e-31 34.148 -2.17148e-15 -6.77823e-18 0.100861 -4.64981e-18 -5.31874e-17)
(0 2.43617e-29 2.53768e-31 34.1402 1.86614e-12 3.09075e-15 0.101564 -1.31077e-14 -1.79782e-17)
(0 -1.62411e-29 -1.26884e-31 34.1402 -3.13605e-15 -3.86258e-18 0.101564 -7.24751e-18 -5.39323e-17)
(1.71427e-17 -2.42615e-26 -7.65088e-31 34.13 -3.53875e-13 -5.55661e-15 0.102265 -5.2834e-16 -3.35901e-17)
(6.85706e-17 4.03113e-29 6.29864e-31 34.13 -3.14088e-15 -3.85813e-18 0.102265 -9.87525e-18 -5.46754e-17)
(-2.41417e-17 2.9317e-29 3.20097e-31 34.1177 -1.27442e-13 -1.42134e-14 0.102964 -2.37203e-16 -5.19736e-17)
(6.13633e-17 -1.60087e-29 -1.25068e-31 34.1177 -3.13578e-15 -3.88652e-18 0.102964 -1.25125e-17 -5.54163e-17)
(-3.11896e-17 1.12104e-44 4.43251e-31 34.103 3.53426e-27 -1.73173e-14 0.103661 6.31089e-30 -5.29514e-17)
(0 -3.17875e-29 -3.7251e-31 34.103 -3.13656e-15 -3.78783e-18 0.103661 -1.51314e-17 -5.6154e-17)
(-3.82861e-17 -1.3596e-28 6.87878e-31 34.0861 4.05905e-15 -1.75143e-14 0.104355 -6.19266e-18 -5.39346e-17)
(-1.53144e-16 -3.15593e-29 -6.16392e-31 34.0861 -3.16882e-15 -3.78338e-18 0.104355 -1.77563e-17 -5.68885e-17)
(-4.54311e-17 -2.49307e-30 7.22312e-32 34.067 6.83126e-15 -1.77078e-14 0.105048 -3.02618e-17 -5.49138e-17)
(0 1.56663e-29 1.22393e-31 34.067 -3.22969e-15 -3.77974e-18 0.105048 -2.04233e-17 -5.76188e-17)
(-1.73655e-16 5.73464e-29 8.75078e-31 34.0457 3.60294e-15 -1.78937e-14 0.105738 -1.1661e-17 -5.58724e-17)
(-2.10498e-16 -4.66615e-29 -7.29086e-31 34.0457 -3.22639e-15 -4.14052e-18 0.105738 -2.32188e-17 -5.83448e-17)
(6.79152e-17 -7.72107e-30 -1.20642e-31 34.0222 3.92323e-15 -1.80714e-14 0.106426 -1.06418e-17 -5.68235e-17)
(4.11013e-16 1.54421e-29 2.41283e-31 34.0222 -3.21919e-15 -4.17283e-18 0.106426 -2.599e-17 -5.90663e-17)
(6.71556e-17 -5.34164e-30 -7.45726e-32 33.9966 4.67767e-15 -1.82452e-14 0.107111 -1.38348e-17 -5.77791e-17)
(-2.68622e-16 7.66563e-30 1.19775e-31 33.9966 -3.2972e-15 -4.03509e-18 0.107111 -2.88138e-17 -5.97821e-17)
(1.48986e-16 1.21497e-29 -3.18475e-32 33.9688 5.0171e-15 -1.84179e-14 0.107795 -1.55521e-17 -5.87449e-17)
(2.97973e-16 -2.28317e-29 -1.18915e-31 33.9688 -3.28644e-15 -4.48737e-18 0.107795 -3.17255e-17 -6.04928e-17)
(0 -7.55593e-30 0 33.939 5.20109e-15 -1.85905e-14 0.108475 -1.61908e-17 -5.97222e-17)
(3.27514e-16 1.51119e-29 1.18061e-31 33.939 -3.31446e-15 -4.28008e-18 0.108475 -3.4571e-17 -6.11981e-17)
(-4.26595e-17 2.46666e-29 1.57388e-31 33.907 5.42659e-15 -1.87637e-14 0.109154 -1.69546e-17 -6.07131e-17)
(0 -1.50033e-29 0 33.907 -3.38834e-15 -3.97837e-18 0.109154 -3.75368e-17 -6.18962e-17)
(-4.89861e-16 4.25785e-29 5.43377e-31 33.873 5.48886e-15 -1.89374e-14 0.109829 -1.78784e-17 -6.17163e-17)
(3.87166e-16 -1.48956e-29 -2.32744e-31 33.873 -3.28442e-15 -4.69913e-18 0.109829 -4.05883e-17 -6.2587e-17)
(1.04319e-16 -5.33908e-30 -1.94289e-31 33.8369 5.28567e-15 -1.91121e-14 0.110502 -1.76048e-17 -6.27358e-17)
(7.0447e-16 0 1.15536e-31 33.8369 -3.16769e-15 -4.67126e-18 0.110502 -4.35208e-17 -6.32716e-17)
(1.29148e-16 -2.20237e-29 -3.4412e-31 33.7988 5.23799e-15 -1.92882e-14 0.111173 -1.68101e-17 -6.3772e-17)
(0 2.20237e-29 3.4412e-31 33.7988 -3.18606e-15 -3.47732e-18 0.111173 -4.6358e-17 -6.39481e-17)
(-2.56441e-16 1.4577e-29 4.55531e-31 33.7586 5.3494e-15 -1.94655e-14 0.111841 -1.75465e-17 -6.48217e-17)
(0 0 -2.27766e-31 33.7586 -3.20081e-15 -3.1039e-18 0.111841 -4.93435e-17 -6.46155e-17)
(-2.54367e-16 4.68564e-29 9.56571e-31 33.7165 5.28587e-15 -1.96437e-14 0.112506 -1.77928e-17 -6.58878e-17)
(0 -3.61808e-29 -7.91456e-31 33.7165 -3.23094e-15 -3.98921e-18 0.112506 -5.22903e-17 -6.52752e-17)
(-1.34898e-16 1.97058e-29 3.09028e-31 33.6725 5.26903e-15 -1.98232e-14 0.113168 -1.7377e-17 -6.69706e-17)
(0 -7.1842e-30 -1.12253e-31 33.6725 -3.25042e-15 -4.61341e-18 0.113168 -5.52607e-17 -6.5928e-17)
(2.85319e-16 -3.20717e-29 -2.84486e-31 33.6265 5.31685e-15 -2.00041e-14 0.113828 -1.79379e-17 -6.80696e-17)
(5.70637e-16 2.13978e-29 1.11447e-31 33.6265 -3.2431e-15 -5.2225e-18 0.113828 -5.82244e-17 -6.65718e-17)
(0 0 0 33.5786 5.29031e-15 -2.01862e-14 0.114484 -1.79532e-17 -6.91857e-17)
(0 7.08139e-30 1.10647e-31 33.5786 -3.38712e-15 -5.14505e-18 0.114484 -6.13449e-17 -6.72065e-17)
(0 7.03054e-30 1.09852e-31 33.5288 5.3598e-15 -2.03697e-14 0.115138 -1.80172e-17 -7.03189e-17)
(-6.33279e-16 -7.03054e-30 -1.09852e-31 33.5288 -3.43473e-15 -3.50296e-18 0.115138 -6.4718e-17 -6.78285e-17)
(0 2.09402e-29 3.2719e-31 33.4772 5.46658e-15 -2.05541e-14 0.115789 -1.86916e-17 -7.14672e-17)
(0 -1.39601e-29 -1.09063e-31 33.4772 -3.41599e-15 -3.79997e-18 0.115789 -6.78918e-17 -6.8439e-17)
(-7.66315e-16 2.98649e-29 8.25983e-31 33.4237 5.41236e-15 -2.07393e-14 0.116437 -1.9018e-17 -7.26309e-17)
(2.43825e-16 -1.38599e-29 -5.41401e-31 33.4237 -3.32857e-15 -5.00041e-18 0.116437 -7.10434e-17 -6.90425e-17)
(2.42074e-16 -6.88017e-30 -4.30011e-31 33.3684 5.26284e-15 -2.09256e-14 0.117082 -1.85848e-17 -7.38134e-17)
(1.21515e-15 6.88017e-30 4.30011e-31 33.3684 -3.20878e-15 -6.09182e-18 0.117082 -7.41516e-17 -6.96308e-17)
(5.01478e-17 -1.49654e-30 -2.20943e-31 33.3114 5.35546e-15 -2.11132e-14 0.117724 -1.82439e-17 -7.50123e-17)
(7.60753e-16 6.83076e-30 4.26923e-31 33.3114 -3.36731e-15 -6.59961e-18 0.117724 -7.73686e-17 -7.0209e-17)
(0 0 -1.05964e-31 33.2525 5.6419e-15 -2.13016e-14 0.118362 -1.95099e-17 -7.62278e-17)
(7.93074e-16 6.78171e-30 3.17893e-31 33.2525 -3.5757e-15 -5.00083e-18 0.118362 -8.08215e-17 -7.07738e-17)
(0 2.69321e-29 5.26017e-31 33.192 5.64015e-15 -2.14915e-14 0.118998 -2.05498e-17 -7.74641e-17)
(-8.25573e-16 -4.03981e-29 -6.3122e-31 33.192 -3.70502e-15 -2.92428e-18 0.118998 -8.45884e-17 -7.13238e-17)
(-6.64321e-16 3.07192e-29 8.38914e-31 33.1297 5.51452e-15 -2.16828e-14 0.11963 -1.97806e-17 -7.8717e-17)
(2.35196e-16 -2.0054e-29 -6.26687e-31 33.1297 -3.49725e-15 -2.11098e-18 0.11963 -8.83832e-17 -7.18561e-17)
(-2.33507e-16 1.32733e-29 4.14791e-31 33.0657 5.54144e-15 -2.1875e-14 0.12026 -1.994e-17 -7.9988e-17)
(8.91105e-16 -6.63666e-30 -2.07396e-31 33.0657 -3.22479e-15 -3.93705e-18 0.12026 -9.17744e-17 -7.23753e-17)
(2.31034e-16 -5.14546e-29 -1.34632e-30 33 5.38336e-15 -2.20688e-14 0.120886 -2.02637e-17 -8.1281e-17)
(9.24136e-16 3.9534e-29 1.23544e-30 33 -3.14681e-15 -4.3888e-18 0.120886 -9.50399e-17 -7.28813e-17)
(-4.78672e-16 -1.55042e-29 -3.86617e-31 32.9328 5.20209e-15 -2.2264e-14 0.121509 -1.90701e-17 -8.25913e-17)
(1.91469e-15 1.30834e-29 4.08856e-31 32.9328 -3.09897e-15 -3.90603e-18 0.121509 -9.81073e-17 -7.33691e-17)
(-2.47681e-16 2.4815e-29 5.21742e-31 32.8639 5.25568e-15 -2.246e-14 0.122128 -1.92189e-17 -8.39198e-17)
(9.90725e-16 -1.94841e-29 -4.0592e-31 32.8639 -3.23315e-15 -5.71922e-18 0.122128 -1.01408e-16 -7.3843e-17)
(-5.1214e-16 -1.51318e-29 -3.67801e-31 32.7934 5.40619e-15 -2.26567e-14 0.122744 -1.97457e-17 -8.52645e-17)
(2.04856e-15 1.93442e-29 4.03005e-31 32.7934 -3.37614e-15 -6.0323e-18 0.122744 -1.04936e-16 -7.43033e-17)
(4.50485e-16 -2.56071e-29 -4.00111e-31 32.7213 5.63024e-15 -2.28548e-14 0.123357 -2.06259e-17 -8.66336e-17)
(0 2.56071e-29 4.00111e-31 32.7213 -3.45125e-15 -3.93982e-18 0.123357 -1.0844e-16 -7.47412e-17)
(-2.72977e-16 3.07522e-29 5.2078e-31 32.6477 5.70487e-15 -2.3054e-14 0.123967 -2.17236e-17 -8.80164e-17)
(-4.4725e-16 -1.27116e-29 -1.98619e-31 32.6477 -3.3716e-15 -2.29067e-18 0.123967 -1.11779e-16 -7.51583e-17)
(-2.81495e-16 5.32852e-30 1.26204e-31 32.5726 5.53496e-15 -2.32537e-14 0.124573 -2.14927e-17 -8.94206e-17)
(0 6.31016e-30 1.97193e-31 32.5726 -3.26838e-15 -3.22832e-18 0.124573 -1.14771e-16 -7.55571e-17)
(4.4085e-16 0 -1.95777e-31 32.496 5.57446e-15 -2.34546e-14 0.125176 -2.07378e-17 -9.08438e-17)
(0 0 1.95777e-31 32.496 -3.37998e-15 -3.43129e-18 0.125176 -1.17906e-16 -7.59341e-17)
(2.98658e-16 1.95521e-29 6.45821e-31 32.418 5.83125e-15 -2.36559e-14 0.125775 -2.21094e-17 -9.22832e-17)
(-1.19463e-15 -2.48794e-29 -7.77483e-31 32.418 -3.44706e-15 -2.45042e-18 0.125775 -1.21822e-16 -7.62828e-17)
(3.07303e-16 -2.38522e-29 -7.13384e-31 32.3385 5.79497e-15 -2.38581e-14 0.126371 -2.30339e-17 -9.37445e-17)
(0 1.85256e-29 5.78925e-31 32.3385 -3.40039e-15 -3.16494e-18 0.126371 -1.2578e-16 -7.66121e-17)
(0 0 -1.91589e-31 32.2576 5.66586e-15 -2.40615e-14 0.126964 -2.21465e-17 -9.52265e-17)
(0 1.22617e-29 5.74768e-31 32.2576 -3.48182e-15 -4.49127e-18 0.126964 -1.29503e-16 -7.69216e-17)
(0 -6.08683e-30 -3.80427e-31 32.1752 5.67483e-15 -2.42661e-14 0.127552 -2.23506e-17 -9.67293e-17)
(0 6.08683e-30 3.80427e-31 32.1752 -3.58782e-15 -3.89199e-18 0.127552 -1.33561e-16 -7.72116e-17)
(-3.33487e-16 -2.48905e-29 -4.23413e-31 32.0916 5.64669e-15 -2.44719e-14 0.128138 -2.25393e-17 -9.82545e-17)
(0 2.41725e-29 3.77695e-31 32.0916 -3.58603e-15 -3.79781e-18 0.128138 -1.37727e-16 -7.74707e-17)
(-3.42297e-16 1.7324e-29 -2.28866e-31 32.0065 5.60963e-15 -2.46789e-14 0.128719 -2.24501e-17 -9.98009e-17)
(0 0 5.62474e-31 32.0065 -3.65518e-15 -6.60059e-18 0.128719 -1.41765e-16 -7.77065e-17)
(-3.51149e-16 5.32401e-30 1.49153e-31 31.9202 5.60581e-15 -2.48865e-14 0.129297 -2.2568e-17 -1.01365e-16)
(0 5.95664e-30 1.86145e-31 31.9202 -3.68115e-15 -6.04551e-18 0.129297 -1.46073e-16 -7.79211e-17)
(8.32303e-16 -2.36555e-29 -5.54425e-31 31.8325 5.57103e-15 -2.50953e-14 0.129872 -2.27451e-17 -1.02956e-16)
(-8.32303e-16 2.36555e-29 5.54425e-31 31.8325 -3.59824e-15 -2.26003e-18 0.129872 -1.50267e-16 -7.81045e-17)
(4.13163e-16 -2.34856e-29 -7.33925e-31 31.7436 5.43639e-15 -2.53059e-14 0.130442 -2.26115e-17 -1.0457e-16)
(-4.13163e-16 2.34856e-29 7.33925e-31 31.7436 -3.61661e-15 4.45399e-19 0.130442 -1.53896e-16 -7.82564e-17)
(-1.57628e-15 5.72791e-29 1.9566e-30 31.6533 5.22782e-15 -2.55172e-14 0.131009 -2.19671e-17 -1.06203e-16)
(-6.91392e-16 -4.66339e-29 -1.08772e-32 31.6533 -3.38409e-15 -1.05348e-29 0.131009 -1.57674e-16 -7.83788e-17)
(2.0292e-17 -2.36148e-29 -1.10419e-30 31.5619 5.05418e-15 -2.57287e-14 0.131573 -2.12108e-17 -1.07854e-16)
(2.68842e-15 2.89369e-29 1.44684e-30 31.5619 -2.76516e-15 -5.06855e-18 0.131573 -1.61463e-16 -7.84863e-17)
(8.00337e-16 -3.40506e-29 -1.60155e-30 31.4692 4.96391e-15 -2.59412e-14 0.132132 -2.08362e-17 -1.09532e-16)
(1.17972e-15 2.29833e-29 1.43645e-30 31.4692 -2.69852e-15 -1.56781e-18 0.132132 -1.64609e-16 -7.85555e-17)
(-4.05102e-16 5.32103e-30 1.68441e-31 31.3754 5.08818e-15 -2.61547e-14 0.132688 -2.07596e-17 -1.11228e-16)
(0 5.70456e-30 3.56535e-31 31.3754 -2.99742e-15 -2.6357e-18 0.132688 -1.68324e-16 -7.86022e-17)
(7.9708e-16 -5.66359e-30 0 31.2803 5.4261e-15 -2.63685e-14 0.133239 -2.21913e-17 -1.12946e-16)
(1.65693e-15 5.66359e-30 0 31.2803 -3.2998e-15 -2.97262e-18 0.133239 -1.72264e-16 -7.8617e-17)
(-8.46803e-16 6.12453e-29 1.75633e-30 31.1841 5.55669e-15 -2.65821e-14 0.133787 -2.39442e-17 -1.14679e-16)
(-1.69361e-15 -5.06063e-29 -1.40573e-30 31.1841 -3.69095e-15 -4.07334e-18 0.133787 -1.76444e-16 -7.86018e-17)
(-8.65219e-16 1.62204e-29 8.70943e-33 31.0868 5.57959e-15 -2.67962e-14 0.134331 -2.36357e-17 -1.16439e-16)
(1.73044e-15 0 5.23364e-31 31.0868 -3.43354e-15 -4.44371e-18 0.134331 -1.81036e-16 -7.85613e-17)
(0 0 0 30.9883 5.70382e-15 -2.70112e-14 0.134871 -2.44901e-17 -1.18219e-16)
(0 5.54246e-30 3.46404e-31 30.9883 -3.41417e-15 8.50675e-19 0.134871 -1.85045e-16 -7.84862e-17)
(-4.5114e-16 2.73282e-29 5.29919e-31 30.8887 5.72565e-15 -2.72266e-14 0.135407 -2.5062e-17 -1.2002e-16)
(-1.80456e-15 -1.6508e-29 -5.40761e-31 30.8887 -3.8534e-15 0 0.135407 -1.89889e-16 -7.83579e-17)
(0 -3.8242e-29 -1.70723e-30 30.788 5.69292e-15 -2.74426e-14 0.135938 -2.50373e-17 -1.21846e-16)
(1.84185e-15 3.8242e-29 3.3424e-30 30.788 -3.45373e-15 -1.65626e-18 0.135938 -1.94672e-16 -7.82033e-17)
(0 -3.25435e-29 -2.03397e-30 30.6862 5.54179e-15 -2.76593e-14 0.136466 -2.51363e-17 -1.23693e-16)
(3.75857e-15 3.25435e-29 2.03397e-30 30.6862 -3.04898e-15 -1.0929e-17 0.136466 -1.98729e-16 -7.80329e-17)
(0 1.61549e-29 1.34624e-30 30.5834 5.38099e-15 -2.78761e-14 0.136989 -2.40544e-17 -1.2556e-16)
(0 -5.38497e-30 -6.73121e-31 30.5834 -3.38109e-15 3.78166e-18 0.136989 -2.03605e-16 -7.78132e-17)
(2.63773e-16 -2.67625e-29 -1.13548e-30 30.4795 5.41569e-15 -2.80927e-14 0.137508 -2.40583e-17 -1.27447e-16)
(-2.70703e-15 1.60389e-29 -7.0408e-31 30.4795 -3.35707e-15 0 0.137508 -2.08785e-16 -7.7541e-17)
(0 1.06158e-29 9.95232e-31 30.3745 5.69846e-15 -2.83094e-14 0.138023 -2.47173e-17 -1.29356e-16)
(1.99249e-15 0 -6.63488e-31 30.3745 -3.0231e-15 -2.32227e-19 0.138023 -2.12819e-16 -7.72564e-17)
(0 2.63489e-29 9.88086e-31 30.2685 5.92366e-15 -2.85263e-14 0.138533 -2.69819e-17 -1.31285e-16)
(2.03051e-15 -1.58094e-29 -3.29362e-31 30.2685 -3.30613e-15 -4.98424e-18 0.138533 -2.1677e-16 -7.69386e-17)
(-5.17171e-16 -3.13107e-29 -1.09493e-30 30.1615 5.97608e-15 -2.87426e-14 0.139038 -2.71412e-17 -1.33232e-16)
(0 3.66236e-29 1.30799e-30 30.1615 -3.65148e-15 -3.33808e-18 0.139038 -2.22375e-16 -7.65747e-17)
(0 -2.59719e-29 -1.62324e-30 30.0535 6.07575e-15 -2.89579e-14 0.139539 -2.78577e-17 -1.35194e-16)
(2.10699e-15 2.59719e-29 1.62324e-30 30.0535 -3.76315e-15 -7.97062e-18 0.139539 -2.27311e-16 -7.61886e-17)
(-5.36362e-16 2.59395e-29 1.51062e-30 29.9445 6.26657e-15 -2.91722e-14 0.140035 -2.84625e-17 -1.37175e-16)
(0 -1.54712e-29 -6.44635e-31 29.9445 -3.89418e-15 -6.5686e-18 0.140035 -2.32046e-16 -7.57589e-17)
(-1.74571e-16 4.92989e-30 1.05441e-30 29.8345 6.92871e-15 -2.93861e-14 0.140526 -3.00501e-17 -1.39175e-16)
(0 0 -3.20003e-31 29.8345 -3.87945e-15 -8.93141e-19 0.140526 -2.36416e-16 -7.52703e-17)
(-1.2711e-15 4.59748e-29 2.13614e-30 29.7235 7.47038e-15 -2.95978e-14 0.141013 -3.51248e-17 -1.41179e-16)
(-1.50737e-15 -3.04997e-29 -1.58852e-30 29.7235 -4.17944e-15 2.25404e-19 0.141013 -2.40795e-16 -7.47292e-17)
(-1.8411e-15 3.08022e-29 1.73028e-30 29.6115 7.15819e-15 -2.98065e-14 0.141494 -3.56356e-17 -1.43195e-16)
(-1.55138e-15 -2.01871e-29 -1.26169e-30 29.6115 -4.8327e-15 2.33681e-18 0.141494 -2.47063e-16 -7.41286e-17)
(-1.8555e-15 5.06984e-29 2.6696e-30 29.4985 6.33173e-15 -3.00132e-14 0.14197 -3.26456e-17 -1.45221e-16)
(-1.59549e-15 -4.00843e-29 -2.19211e-30 29.4985 -4.4305e-15 5.14208e-18 0.14197 -2.53834e-16 -7.34685e-17)
(0 -4.97455e-30 -3.1091e-31 29.3845 5.3901e-15 -3.02196e-14 0.142441 -2.81824e-17 -1.47279e-16)
(2.3398e-15 4.97455e-30 -4.37906e-47 29.3845 -3.06679e-15 9.62965e-35 0.142441 -2.58834e-16 -7.27584e-17)
(-5.9477e-16 5.307e-30 2.47843e-31 29.2696 5.11917e-15 -3.04253e-14 0.142907 -2.39728e-17 -1.49342e-16)
(2.37908e-15 9.87766e-30 3.08677e-31 29.2696 -2.72955e-15 -2.27808e-19 0.142907 -2.62057e-16 -7.20054e-17)
(0 -9.80673e-30 -3.0646e-31 29.1537 5.4519e-15 -3.06287e-14 0.143367 -2.59407e-17 -1.51422e-16)
(2.41849e-15 1.47101e-29 6.12921e-31 29.1537 -3.00951e-15 4.20626e-18 0.143367 -2.67252e-16 -7.11984e-17)
(-1.22901e-15 8.74237e-31 2.10167e-31 29.0368 5.53003e-15 -3.08309e-14 0.143821 -2.75998e-17 -1.53517e-16)
(2.45803e-15 9.73631e-30 3.0426e-31 29.0368 -2.87857e-15 5.07317e-18 0.143821 -2.72122e-16 -7.03464e-17)
(-6.24424e-16 4.71566e-31 2.62002e-31 28.9189 5.4364e-15 -3.10312e-14 0.14427 -2.70929e-17 -1.55623e-16)
(2.4977e-15 4.8332e-30 6.0415e-31 28.9189 -2.77437e-15 4.2355e-18 0.14427 -2.75743e-16 -6.94501e-17)
(6.75328e-16 -9.59698e-30 -5.99811e-31 28.8 5.49273e-15 -3.12295e-14 0.144712 -2.70643e-17 -1.57743e-16)
(2.53749e-15 9.59698e-30 5.99811e-31 28.8 -2.95478e-15 3.37489e-18 0.144712 -2.80922e-16 -6.8499e-17)
(0 9.52807e-30 0 28.6802 5.72468e-15 -3.14253e-14 0.145149 -2.80535e-17 -1.59868e-16)
(1.90694e-15 -9.52807e-30 0 28.6802 -3.15111e-15 6.574e-18 0.145149 -2.86173e-16 -6.74895e-17)
(-6.65663e-16 9.45965e-30 8.86842e-31 28.5594 5.98197e-15 -3.16189e-14 0.145579 -2.98099e-17 -1.62011e-16)
(2.61747e-15 0 -2.95614e-31 28.5594 -3.35585e-15 2.3145e-18 0.145579 -2.90051e-16 -6.6435e-17)
(-1.98618e-15 2.40846e-29 1.16235e-30 28.4376 6.14161e-15 -3.18092e-14 0.146003 -3.10894e-17 -1.64147e-16)
(6.60883e-16 -1.40876e-29 -9.06771e-33 28.4376 -3.51399e-15 -4.01009e-47 0.146003 -2.9535e-16 -6.53397e-17)
(-6.37793e-16 8.6861e-30 5.8713e-31 28.3147 6.52641e-15 -3.19974e-14 0.14642 -3.18854e-17 -1.66314e-16)
(2.69793e-15 -4.66214e-30 -2.91384e-31 28.3147 -3.7103e-15 -3.64861e-18 0.14642 -2.99736e-16 -6.41756e-17)
(0 2.31433e-29 8.67874e-31 28.1909 6.88912e-15 -3.21821e-14 0.14683 -3.55293e-17 -1.68459e-16)
(-2.73834e-15 -2.7772e-29 -1.44646e-30 28.1909 -3.98125e-15 5.51402e-18 0.14683 -3.04298e-16 -6.29386e-17)
(0 3.2168e-29 1.43607e-30 28.0661 6.87401e-15 -3.23621e-14 0.147233 -3.61349e-17 -1.7062e-16)
(-2.77887e-15 -3.2168e-29 -1.43607e-30 28.0661 -4.28388e-15 1.90008e-17 0.147233 -3.10387e-16 -6.16241e-17)
(7.04879e-16 2.20776e-29 1.1238e-30 27.9403 6.74392e-15 -3.24902e-14 0.147629 -3.58862e-17 -1.72262e-16)
(-5.63903e-15 -2.73745e-29 -1.87726e-30 27.9403 -4.43895e-15 3.16931e-30 0.147629 -3.18169e-16 -6.02573e-17)
(0 0 5.66207e-31 27.8135 6.08936e-15 -3.16639e-14 0.148017 -3.52817e-17 -1.64282e-16)
(5.72055e-15 0 -1.16803e-31 27.8135 -3.35281e-15 -1.01969e-17 0.148017 -3.2547e-16 -5.88836e-17)
(-9.23718e-17 -8.19521e-30 -2.48924e-31 27.6856 5.33654e-15 -3.08767e-14 0.148398 -2.94244e-17 -1.66305e-16)
(5.16938e-15 1.34914e-29 5.62142e-31 27.6856 -2.60213e-15 -7.28987e-18 0.148398 -3.30589e-16 -5.74334e-17)
(5.21208e-16 5.2958e-30 -7.98133e-31 27.5567 5.74893e-15 -3.10297e-14 0.148771 -2.77047e-17 -1.68323e-16)
(-1.25674e-15 4.46484e-30 1.67431e-30 27.5567 -3.40235e-15 1.01132e-17 0.148771 -3.35512e-16 -5.5883e-17)
(-7.45805e-16 3.63236e-29 2.53939e-30 27.4268 6.51474e-15 -3.1177e-14 0.149136 -3.43149e-17 -1.70324e-16)
(0 -3.10294e-29 -3.23794e-30 27.4268 -4.43487e-15 3.48383e-18 0.149136 -3.40537e-16 -5.42535e-17)
(-7.56104e-16 3.16984e-29 1.97837e-30 27.2958 6.46169e-15 -3.13076e-14 0.149493 -3.64551e-17 -1.72202e-16)
(0 -2.64057e-29 -1.45951e-32 27.2958 -4.49472e-15 -2.6678e-30 0.149493 -3.48558e-16 -5.25844e-17)
(7.66429e-16 -5.29207e-30 -3.33054e-31 27.1638 6.55588e-15 -3.14399e-14 0.149841 -3.42306e-17 -1.74259e-16)
(3.06571e-15 0 0 27.1638 -3.95399e-15 -1.29411e-17 0.149841 -3.55188e-16 -5.08635e-17)
(1.55356e-15 1.11086e-29 9.50389e-31 27.0307 6.74848e-15 -3.15747e-14 0.150181 -3.8026e-17 -1.76204e-16)
(0 -3.03658e-29 -2.16898e-30 27.0307 -4.08432e-15 -4.0131e-18 0.150181 -3.61523e-16 -4.90959e-17)
(0 2.58409e-29 1.61506e-30 26.8966 6.92219e-15 -3.16885e-14 0.150512 -3.6873e-17 -1.78066e-16)
(-3.14862e-15 -1.72273e-29 -1.0767e-30 26.8966 -4.37278e-15 1.35092e-17 0.150512 -3.69129e-16 -4.72015e-17)
(7.97553e-16 1.60912e-29 1.78935e-30 26.7614 7.24855e-15 -3.18074e-14 0.150833 -4.05271e-17 -1.80105e-16)
(-3.19021e-15 -2.13794e-29 -2.30319e-30 26.7614 -4.49135e-15 1.0963e-17 0.150833 -3.75322e-16 -4.52073e-17)
(8.07976e-16 1.16937e-29 1.23802e-30 26.6251 7.02286e-15 -3.19157e-14 0.151146 -4.10966e-17 -1.81884e-16)
(0 -8.49037e-30 0 26.6251 -4.1433e-15 -4.22356e-30 0.151146 -3.83516e-16 -4.31468e-17)
(1.18633e-15 -1.68588e-29 -1.58051e-30 26.4877 6.4873e-15 -3.20156e-14 0.151448 -3.85465e-17 -1.83866e-16)
(2.08735e-15 1.68588e-29 1.58051e-30 26.4877 -3.33096e-15 -1.2673e-17 0.151448 -3.89626e-16 -4.10336e-17)
(-4.79966e-16 -1.45349e-29 -2.40892e-30 26.3493 6.42735e-15 -3.21315e-14 0.151741 -3.55529e-17 -1.85863e-16)
(2.13775e-15 2.51066e-29 3.66138e-30 26.3493 -3.66274e-15 -6.23078e-18 0.151741 -3.94011e-16 -3.88306e-17)
(-2.84812e-15 4.38041e-29 2.81762e-30 26.2097 7.30028e-15 -3.22279e-14 0.152024 -3.84138e-17 -1.87657e-16)
(-2.18816e-15 -3.32351e-29 -2.07719e-30 26.2097 -5.06624e-15 8.78585e-18 0.152024 -4.02198e-16 -3.64992e-17)
(-8.49891e-16 4.65277e-29 3.98476e-30 26.0691 6.89473e-15 -3.23031e-14 0.152297 -4.62227e-17 -1.89442e-16)
(-3.39956e-15 -4.12455e-29 -3.60899e-30 26.0691 -4.42951e-15 1.57245e-17 0.152297 -4.10866e-16 -3.40583e-17)
(2.922e-16 -1.92866e-29 -6.42359e-31 25.9274 5.13861e-15 -3.23921e-14 0.152559 -3.42201e-17 -1.91431e-16)
(3.44169e-15 2.45696e-29 -8.74938e-33 25.9274 -1.95667e-15 -2.97595e-30 0.152559 -4.15783e-16 -3.1523e-17)
(0 -2.43932e-29 -1.01638e-30 25.7846 4.45865e-15 -3.2476e-14 0.15281 -2.61706e-17 -1.9319e-16)
(2.33955e-15 2.43932e-29 1.52457e-30 25.7846 -1.0225e-15 9.08938e-18 0.15281 -4.18695e-16 -2.8946e-17)
(1.13613e-15 -8.07267e-30 -1.00908e-30 25.6407 4.72088e-15 -3.25548e-14 0.153051 -2.66351e-17 -1.95154e-16)
(0 8.07267e-30 1.00908e-30 25.6407 -1.74749e-15 2.51363e-17 0.153051 -4.22865e-16 -2.6229e-17)
(-8.92131e-16 2.13108e-29 1.90136e-30 25.4957 5.01282e-15 -3.2632e-14 0.15328 -2.96899e-17 -1.96925e-16)
(0 -8.0147e-30 -5.00919e-31 25.4957 -2.45739e-15 1.99312e-17 0.15328 -4.27779e-16 -2.346e-17)
(-1.80547e-15 1.85181e-29 1.30626e-30 25.3496 5.29827e-15 -3.26883e-14 0.153498 -3.0542e-17 -1.98671e-16)
(3.61095e-15 -7.95715e-30 -2.86514e-33 25.3496 -2.62079e-15 -1.89434e-30 0.153498 -4.34296e-16 -2.06455e-17)
(-1.11183e-15 2.37e-29 9.87501e-31 25.2024 6.44027e-15 -3.27608e-14 0.153705 -3.3588e-17 -2.00672e-16)
(3.65344e-15 -1.58e-29 0 25.2024 -2.76611e-15 1.97177e-18 0.153705 -4.39149e-16 -1.77824e-17)
(-1.79846e-16 1.04105e-29 1.54444e-30 25.0541 6.93335e-15 -3.2805e-14 0.1539 -4.49561e-17 -2.02099e-16)
(3.69599e-15 0 0 25.0541 -2.7721e-15 1.54953e-17 0.1539 -4.4352e-16 -1.48296e-17)
(1.09592e-15 -1.55739e-29 -1.46005e-30 24.9048 5.95161e-15 -3.2842e-14 0.154083 -4.01514e-17 -2.04045e-16)
(0 1.55739e-29 1.94674e-30 24.9048 -2.80689e-15 2.23127e-17 0.154083 -4.51092e-16 -1.17441e-17)
(0 3.86552e-29 2.89914e-30 24.7543 5.64762e-15 -3.28942e-14 0.154254 -3.34243e-17 -2.05686e-16)
(0 -3.86552e-29 -2.89914e-30 24.7543 -3.23287e-15 2.09931e-17 0.154254 -4.55539e-16 -8.57337e-18)
(2.03623e-15 -2.0626e-29 -1.39406e-30 24.6029 6.05556e-15 -3.29364e-14 0.154412 -3.69342e-17 -2.07538e-16)
(0 1.53511e-29 1.43916e-30 24.6029 -3.23959e-15 2.30338e-17 0.154412 -4.60388e-16 -5.36465e-18)
(-1.93339e-15 2.57882e-29 2.31049e-30 24.4503 6.3022e-15 -3.29774e-14 0.154559 -3.9046e-17 -2.09192e-16)
(3.86678e-15 -1.52408e-29 -4.76275e-31 24.4503 -3.11899e-15 6.03296e-18 0.154559 -4.68921e-16 -2.09414e-18)
(-1.06478e-15 2.26971e-29 9.45711e-31 24.2968 6.73072e-15 -3.29962e-14 0.154693 -4.05984e-17 -2.1079e-16)
(3.9096e-15 -1.51314e-29 0 24.2968 -3.37176e-15 7.66884e-18 0.154693 -4.75366e-16 1.26312e-18)
(-6.90117e-17 2.24108e-30 4.85485e-31 24.1422 7.14346e-15 -3.30149e-14 0.154814 -4.50867e-17 -2.12471e-16)
(3.95247e-15 0 0 24.1422 -3.62724e-15 1.63303e-17 0.154814 -4.83116e-16 4.73538e-18)
(0 2.23723e-29 3.26262e-30 23.9866 7.05209e-15 -3.30248e-14 0.154922 -4.64984e-17 -2.13978e-16)
(0 -2.23723e-29 -3.26262e-30 23.9866 -3.63368e-15 1.9631e-17 0.154922 -4.90568e-16 8.25746e-18)
(1.00958e-15 -4.22871e-29 -4.6309e-30 23.83 7.37542e-15 -3.30405e-14 0.155017 -4.45572e-17 -2.15761e-16)
(4.03833e-15 3.70193e-29 4.16468e-30 23.83 -3.70106e-15 1.81606e-17 0.155017 -4.96477e-16 1.18283e-17)
(3.04679e-15 1.56919e-29 2.70325e-30 23.6725 7.70548e-15 -3.30474e-14 0.1551 -5.1394e-17 -2.17175e-16)
(0 -2.94028e-29 -4.13477e-30 23.6725 -3.92997e-15 1.56511e-17 0.1551 -5.05504e-16 1.55124e-17)
(0 1.45958e-29 1.82448e-30 23.514 6.91958e-15 -3.30247e-14 0.155169 -4.95435e-17 -2.18592e-16)
(3.09723e-15 -7.29792e-30 -9.1224e-31 23.514 -3.55939e-15 1.17208e-17 0.155169 -5.11496e-16 1.92891e-17)
(0 -3.62276e-29 -3.62276e-30 23.3545 6.23291e-15 -3.302e-14 0.155225 -4.17327e-17 -2.20266e-16)
(4.16736e-15 3.62276e-29 3.62276e-30 23.3545 -3.19558e-15 1.72831e-17 0.155225 -5.16965e-16 2.31381e-17)
(-1.0526e-15 -1.93002e-30 -4.06697e-31 23.1942 7.12994e-15 -3.3033e-14 0.155267 -4.11036e-17 -2.2194e-16)
(4.21042e-15 1.4387e-29 1.79837e-30 23.1942 -3.88477e-15 1.94711e-17 0.155267 -5.2371e-16 2.71313e-17)
(-9.46871e-16 4.47329e-29 3.96441e-30 23.0329 8.08648e-15 -3.30115e-14 0.155296 -5.43902e-17 -2.23174e-16)
(1.00512e-15 -4.28509e-29 -3.57091e-30 23.0329 -5.11603e-15 2.22862e-17 0.155296 -5.3162e-16 3.12059e-17)
(0 -7.09054e-30 -8.86317e-31 22.8708 7.18372e-15 -3.29713e-14 0.155312 -5.46444e-17 -2.24614e-16)
(0 1.41811e-29 2.65895e-30 22.8708 -4.52841e-15 9.51351e-18 0.155312 -5.42071e-16 3.5404e-17)
(0 -2.81585e-29 -4.39976e-30 22.7079 6.32735e-15 -3.29505e-14 0.155314 -4.28752e-17 -2.26128e-16)
(8.67939e-15 2.81585e-29 4.39976e-30 22.7079 -3.50473e-15 -9.89388e-18 0.155314 -5.4936e-16 3.96318e-17)
(0 6.98907e-30 1.74727e-30 22.5442 6.17413e-15 -3.29236e-14 0.155303 -4.36808e-17 -2.27504e-16)
(0 0 -8.73634e-31 22.5442 -4.0626e-15 3.2351e-17 0.155303 -5.58185e-16 4.40411e-17)
(0 2.08167e-29 1.73472e-30 22.3797 5.60709e-15 -3.28952e-14 0.155278 -4.1379e-17 -2.29015e-16)
(-4.42593e-15 -1.38778e-29 0 22.3797 -3.28477e-15 5.80185e-17 0.155278 -5.6712e-16 4.871e-17)
(-1.11726e-15 1.90341e-29 1.3946e-30 22.2144 5.19056e-15 -3.28696e-14 0.155239 -3.64172e-17 -2.30447e-16)
(4.46905e-15 -6.88906e-30 0 22.2144 -2.34031e-15 2.12924e-17 0.155239 -5.71924e-16 5.33088e-17)
(1.65455e-16 2.89432e-29 2.02435e-30 22.0484 5.2761e-15 -3.28132e-14 0.155187 -3.61363e-17 -2.31543e-16)
(9.62586e-16 -4.10375e-29 -3.41979e-30 22.0484 -2.84655e-15 -8.71534e-19 0.155187 -5.78585e-16 5.78824e-17)
(2.09449e-15 -3.24153e-29 -3.94272e-30 21.8818 4.85982e-15 -3.27673e-14 0.155121 -3.81547e-17 -2.3314e-16)
(4.55528e-15 2.03714e-29 2.54643e-30 21.8818 -2.60846e-15 2.33809e-17 0.155121 -5.87411e-16 6.25513e-17)
(9.48811e-16 -2.02251e-29 -1.68543e-30 21.7145 4.94698e-15 -3.27499e-14 0.155042 -3.07362e-17 -2.34655e-16)
(-9.48811e-16 2.02251e-29 1.68543e-30 21.7145 -3.48633e-15 4.41214e-17 0.155042 -5.92705e-16 6.74375e-17)
(0 2.00799e-29 3.34665e-30 21.5466 6.52203e-15 -3.26973e-14 0.154949 -3.99581e-17 -2.35765e-16)
(-4.64146e-15 -2.67732e-29 -4.18331e-30 21.5466 -5.73435e-15 2.59126e-17 0.154949 -6.03125e-16 7.23731e-17)
(-1.64293e-15 9.09819e-30 9.0693e-31 21.3781 6.87912e-15 -2.75331e-14 0.154842 -5.39247e-17 -1.62956e-16)
(4.68452e-15 0 0 21.3781 -5.92917e-15 5.80403e-18 0.154842 -6.15048e-16 7.73167e-17)
(-2.36378e-15 -2.24921e-29 -2.94845e-30 21.209 6.42984e-15 -2.06157e-14 0.154722 -4.57316e-17 -1.37857e-16)
(4.72757e-15 2.63901e-29 3.29876e-30 21.209 -5.48709e-15 -5.6673e-18 0.154722 -6.26846e-16 8.2342e-17)
(0 -6.55014e-30 -3.27507e-30 21.0395 6.64246e-15 -1.87593e-14 0.154589 -4.81262e-17 -1.37933e-16)
(4.77059e-15 6.55014e-30 3.27507e-30 21.0395 -5.10594e-15 1.94489e-17 0.154589 -6.39562e-16 8.75095e-17)
(1.83046e-15 -1.95093e-29 -2.43866e-30 20.8695 5.82188e-15 -1.86144e-14 0.154442 -4.95327e-17 -1.37705e-16)
(0 1.95093e-29 2.43866e-30 20.8695 -4.03e-15 4.74752e-17 0.154442 -6.45858e-16 9.28996e-17)
(0 3.2282e-29 4.03525e-30 20.6991 4.42933e-15 -1.845e-14 0.154282 -3.663e-17 -1.37473e-16)
(0 -3.2282e-29 -4.03525e-30 20.6991 -3.85498e-15 4.37597e-17 0.154282 -6.53475e-16 9.82945e-17)
(-2.44972e-15 1.04927e-29 1.20683e-30 20.5283 4.3059e-15 -1.82827e-14 0.154109 -2.94069e-17 -1.37182e-16)
(0 0 0 20.5283 -3.61291e-15 3.04551e-17 0.154109 -6.63868e-16 1.03792e-16)
(2.47116e-15 -2.32177e-29 -4.39681e-30 20.3572 5.19762e-15 -1.81089e-14 0.153923 -3.53008e-17 -1.3683e-16)
(4.94232e-15 1.2728e-29 3.18201e-30 20.3572 -2.30738e-15 2.58413e-17 0.153923 -6.69669e-16 1.09351e-16)
(0 -3.15916e-29 -3.94894e-30 20.1857 5.68056e-15 -1.79369e-14 0.153724 -4.33757e-17 -1.36544e-16)
(4.98516e-15 3.15916e-29 3.94894e-30 20.1857 -1.89305e-15 4.42874e-17 0.153724 -6.71067e-16 1.15038e-16)
(0 -1.88188e-29 -3.13647e-30 20.014 5.52306e-15 -1.77643e-14 0.153512 -4.32003e-17 -1.36157e-16)
(0 1.88188e-29 3.13647e-30 20.014 -2.15492e-15 4.52228e-17 0.153512 -6.76693e-16 1.20819e-16)
(0 -6.22789e-30 -7.78487e-31 19.842 5.39136e-15 -1.75993e-14 0.153287 -4.15788e-17 -1.35964e-16)
(5.07067e-15 6.22789e-30 7.78487e-31 19.842 -1.69592e-15 2.70694e-17 0.153287 -6.8072e-16 1.26565e-16)
(-1.27834e-15 -3.18588e-29 -3.2413e-30 19.6699 5.66945e-15 -1.74327e-14 0.15305 -4.17838e-17 -1.3553e-16)
(5.11335e-15 3.7099e-29 3.86448e-30 19.6699 -2.06174e-15 2.71084e-17 0.15305 -6.8447e-16 1.32257e-16)
(0 -1.22775e-29 -2.30204e-30 19.4976 6.03588e-15 -1.72519e-14 0.152801 -4.65291e-17 -1.35091e-16)
(0 1.22775e-29 2.30204e-30 19.4976 -2.55251e-15 3.66599e-17 0.152801 -6.94284e-16 1.38044e-16)
(4.31477e-15 -2.26621e-29 -4.30939e-30 19.3253 5.50846e-15 -1.70696e-14 0.152539 -4.81592e-17 -1.34607e-16)
(5.19853e-15 1.21894e-29 3.04734e-30 19.3253 -1.8078e-15 5.30468e-17 0.152539 -7.0293e-16 1.43983e-16)
(0 -1.81528e-29 -1.51273e-30 19.1528 4.90779e-15 -1.68826e-14 0.152265 -3.88412e-17 -1.34066e-16)
(0 1.81528e-29 1.51273e-30 19.1528 -2.09858e-15 4.91568e-17 0.152265 -7.07822e-16 1.49995e-16)
(-3.01181e-15 2.92652e-29 5.14439e-30 18.9804 5.82757e-15 -1.67035e-14 0.151979 -3.92646e-17 -1.33681e-16)
(1.69095e-15 -2.40299e-29 -4.5056e-30 18.9804 -2.44793e-15 3.74807e-18 0.151979 -7.14727e-16 1.55907e-16)
(0 -2.38573e-29 -4.47325e-30 18.808 7.15237e-15 -1.65631e-14 0.151682 -5.42019e-17 -1.33737e-16)
(1.06516e-14 2.38573e-29 4.47325e-30 18.808 -2.35662e-15 1.23161e-17 0.151682 -7.20477e-16 1.61676e-16)