/*--------------------------------*- C++ -*----------------------------------*\
| =========                 |                                                 |
| \\      /  F ield         | OpenFOAM: The Open Source CFD Toolbox           |
|  \\    /   O peration     | Version:  2012                                  |
|   \\  /    A nd           | Website:  www.openfoam.com                      |
|    \\/     M anipulation  |                                                 |
\*---------------------------------------------------------------------------*/
FoamFile
{
    version     2.0;
    format      ascii;
    class       volScalarField;
    location    "10000";
    object      nut;
}
// * * * * * * * * * * * * * * * * * * * * * * * * * * * * * * * * * * * * * //

dimensions      [0 2 -1 0 0 0 0];


internalField   nonuniform List<scalar> 
5120
(
8.68403e-15
8.68403e-15
7.35027e-15
7.35027e-15
6.87984e-15
6.87984e-15
9.09266e-15
9.09266e-15
2.00318e-14
2.00318e-14
5.3293e-14
5.3293e-14
1.34097e-13
1.34097e-13
3.04109e-13
3.04109e-13
6.27037e-13
6.27037e-13
1.19503e-12
1.19503e-12
2.13595e-12
2.13595e-12
3.62156e-12
3.62156e-12
5.87672e-12
5.87672e-12
9.18963e-12
9.18963e-12
1.39232e-11
1.39232e-11
2.05279e-11
2.05279e-11
2.95552e-11
2.95552e-11
4.16735e-11
4.16735e-11
5.76848e-11
5.76848e-11
7.85432e-11
7.85432e-11
1.05375e-10
1.05375e-10
1.39502e-10
1.39502e-10
1.82463e-10
1.82463e-10
2.36044e-10
2.36044e-10
3.02302e-10
3.02302e-10
3.836e-10
3.836e-10
4.82639e-10
4.82639e-10
6.02491e-10
6.02491e-10
7.46644e-10
7.46644e-10
9.19038e-10
9.19038e-10
1.12411e-09
1.12411e-09
1.36686e-09
1.36686e-09
1.65286e-09
1.65286e-09
1.98835e-09
1.98835e-09
2.38029e-09
2.38029e-09
2.83641e-09
2.83641e-09
3.36526e-09
3.36526e-09
3.97633e-09
3.97633e-09
4.68009e-09
4.68009e-09
5.48804e-09
5.48804e-09
6.41288e-09
6.41288e-09
7.46849e-09
7.46849e-09
8.6701e-09
8.6701e-09
1.00343e-08
1.00343e-08
1.15794e-08
1.15794e-08
1.3325e-08
1.3325e-08
1.52926e-08
1.52926e-08
1.75057e-08
1.75057e-08
1.99894e-08
1.99894e-08
2.2771e-08
2.2771e-08
2.58802e-08
2.58802e-08
2.93487e-08
2.93487e-08
3.32107e-08
3.32107e-08
3.75031e-08
3.75031e-08
4.22653e-08
4.22653e-08
4.75395e-08
4.75395e-08
5.3371e-08
5.3371e-08
5.9808e-08
5.9808e-08
6.69018e-08
6.69018e-08
7.47072e-08
7.47072e-08
8.32823e-08
8.32823e-08
9.26886e-08
9.26886e-08
1.02992e-07
1.02992e-07
1.1426e-07
1.1426e-07
1.26567e-07
1.26567e-07
1.39988e-07
1.39988e-07
1.54605e-07
1.54605e-07
1.70503e-07
1.70503e-07
1.8777e-07
1.8777e-07
2.06498e-07
2.06498e-07
2.26786e-07
2.26786e-07
2.48734e-07
2.48734e-07
2.72448e-07
2.72448e-07
2.98037e-07
2.98037e-07
3.25616e-07
3.25616e-07
3.55302e-07
3.55302e-07
3.87216e-07
3.87216e-07
4.21485e-07
4.21485e-07
4.58239e-07
4.58239e-07
4.9761e-07
4.9761e-07
5.39735e-07
5.39735e-07
5.84756e-07
5.84756e-07
6.32815e-07
6.32815e-07
6.84059e-07
6.84059e-07
7.38637e-07
7.38637e-07
7.96703e-07
7.96703e-07
8.5841e-07
8.5841e-07
9.23916e-07
9.23916e-07
9.93379e-07
9.93379e-07
1.06696e-06
1.06696e-06
1.14482e-06
1.14482e-06
1.22712e-06
1.22712e-06
1.31403e-06
1.31403e-06
1.4057e-06
1.4057e-06
1.50231e-06
1.50231e-06
1.60402e-06
1.60402e-06
1.711e-06
1.711e-06
1.82339e-06
1.82339e-06
1.94138e-06
1.94138e-06
2.06511e-06
2.06511e-06
2.19475e-06
2.19475e-06
2.33045e-06
2.33045e-06
2.47237e-06
2.47237e-06
2.62066e-06
2.62066e-06
2.77547e-06
2.77547e-06
2.93695e-06
2.93695e-06
3.10525e-06
3.10525e-06
3.28049e-06
3.28049e-06
3.46282e-06
3.46282e-06
3.65236e-06
3.65236e-06
3.84926e-06
3.84926e-06
4.05362e-06
4.05362e-06
4.26558e-06
4.26558e-06
4.48524e-06
4.48524e-06
4.71272e-06
4.71272e-06
4.94811e-06
4.94811e-06
5.19153e-06
5.19153e-06
5.44306e-06
5.44306e-06
5.7028e-06
5.7028e-06
5.97083e-06
5.97083e-06
6.24723e-06
6.24723e-06
6.53207e-06
6.53207e-06
6.82542e-06
6.82542e-06
7.12734e-06
7.12734e-06
7.43791e-06
7.43791e-06
7.75715e-06
7.75715e-06
8.08513e-06
8.08513e-06
8.42188e-06
8.42188e-06
8.76745e-06
8.76745e-06
9.12186e-06
9.12186e-06
9.48513e-06
9.48513e-06
9.8573e-06
9.8573e-06
1.02384e-05
1.02384e-05
1.06283e-05
1.06283e-05
1.10273e-05
1.10273e-05
1.14351e-05
1.14351e-05
1.18518e-05
1.18518e-05
1.22775e-05
1.22775e-05
1.2712e-05
1.2712e-05
1.31554e-05
1.31554e-05
1.36077e-05
1.36077e-05
1.40688e-05
1.40688e-05
1.45387e-05
1.45387e-05
1.50173e-05
1.50173e-05
1.55047e-05
1.55047e-05
1.60008e-05
1.60008e-05
1.65054e-05
1.65054e-05
1.70187e-05
1.70187e-05
1.75404e-05
1.75404e-05
1.80707e-05
1.80707e-05
1.86093e-05
1.86093e-05
1.91562e-05
1.91562e-05
1.97115e-05
1.97115e-05
2.02749e-05
2.02749e-05
2.08464e-05
2.08464e-05
2.1426e-05
2.1426e-05
2.20135e-05
2.20135e-05
2.26089e-05
2.26089e-05
2.3212e-05
2.3212e-05
2.38229e-05
2.38229e-05
2.44414e-05
2.44414e-05
2.50673e-05
2.50673e-05
2.57007e-05
2.57007e-05
2.63414e-05
2.63414e-05
2.69893e-05
2.69893e-05
2.76443e-05
2.76443e-05
2.83063e-05
2.83063e-05
2.89752e-05
2.89752e-05
2.96509e-05
2.96509e-05
3.03333e-05
3.03333e-05
3.10222e-05
3.10222e-05
3.17175e-05
3.17175e-05
3.24192e-05
3.24192e-05
3.31271e-05
3.31271e-05
3.38411e-05
3.38411e-05
3.45611e-05
3.45611e-05
3.52869e-05
3.52869e-05
3.60184e-05
3.60184e-05
3.67555e-05
3.67555e-05
3.74981e-05
3.74981e-05
3.82461e-05
3.82461e-05
3.89993e-05
3.89993e-05
3.97575e-05
3.97575e-05
4.05208e-05
4.05208e-05
4.12889e-05
4.12889e-05
4.20617e-05
4.20617e-05
4.2839e-05
4.2839e-05
4.36208e-05
4.36208e-05
4.4407e-05
4.4407e-05
4.51973e-05
4.51973e-05
4.59916e-05
4.59916e-05
4.67899e-05
4.67899e-05
4.7592e-05
4.7592e-05
4.83977e-05
4.83977e-05
4.92069e-05
4.92069e-05
5.00195e-05
5.00195e-05
5.08353e-05
5.08353e-05
5.16543e-05
5.16543e-05
5.24762e-05
5.24762e-05
5.3301e-05
5.3301e-05
5.41285e-05
5.41285e-05
5.49586e-05
5.49586e-05
5.57911e-05
5.57911e-05
5.66259e-05
5.66259e-05
5.74629e-05
5.74629e-05
5.8302e-05
5.8302e-05
5.91429e-05
5.91429e-05
5.99856e-05
5.99856e-05
6.083e-05
6.083e-05
6.16759e-05
6.16759e-05
6.25232e-05
6.25232e-05
6.33717e-05
6.33717e-05
6.42213e-05
6.42213e-05
6.5072e-05
6.5072e-05
6.59235e-05
6.59235e-05
6.67757e-05
6.67757e-05
6.76285e-05
6.76285e-05
6.84818e-05
6.84818e-05
6.93355e-05
6.93355e-05
7.01894e-05
7.01894e-05
7.10434e-05
7.10434e-05
7.18974e-05
7.18974e-05
7.27512e-05
7.27512e-05
7.36048e-05
7.36048e-05
7.4458e-05
7.4458e-05
7.53106e-05
7.53106e-05
7.61627e-05
7.61627e-05
7.7014e-05
7.7014e-05
7.78644e-05
7.78644e-05
7.87138e-05
7.87138e-05
7.95622e-05
7.95622e-05
8.04093e-05
8.04093e-05
8.12551e-05
8.12551e-05
8.20995e-05
8.20995e-05
8.29423e-05
8.29423e-05
8.37835e-05
8.37835e-05
8.46229e-05
8.46229e-05
8.54604e-05
8.54604e-05
8.6296e-05
8.6296e-05
8.71294e-05
8.71294e-05
8.79607e-05
8.79607e-05
8.87896e-05
8.87896e-05
8.96162e-05
8.96162e-05
9.04403e-05
9.04403e-05
9.12618e-05
9.12618e-05
9.20806e-05
9.20806e-05
9.28966e-05
9.28966e-05
9.37097e-05
9.37097e-05
9.45199e-05
9.45199e-05
9.5327e-05
9.5327e-05
9.61309e-05
9.61309e-05
9.69316e-05
9.69316e-05
9.77289e-05
9.77289e-05
9.85229e-05
9.85229e-05
9.93133e-05
9.93133e-05
0.0001001
0.0001001
0.000100883
0.000100883
0.000101663
0.000101663
0.000102438
0.000102438
0.00010321
0.00010321
0.000103978
0.000103978
0.000104742
0.000104742
0.000105501
0.000105501
0.000106257
0.000106257
0.000107008
0.000107008
0.000107754
0.000107754
0.000108497
0.000108497
0.000109235
0.000109235
0.000109968
0.000109968
0.000110697
0.000110697
0.000111422
0.000111422
0.000112141
0.000112141
0.000112856
0.000112856
0.000113566
0.000113566
0.000114272
0.000114272
0.000114972
0.000114972
0.000115668
0.000115668
0.000116358
0.000116358
0.000117044
0.000117044
0.000117724
0.000117724
0.0001184
0.0001184
0.00011907
0.00011907
0.000119735
0.000119735
0.000120395
0.000120395
0.00012105
0.00012105
0.0001217
0.0001217
0.000122344
0.000122344
0.000122984
0.000122984
0.000123618
0.000123618
0.000124246
0.000124246
0.00012487
0.00012487
0.000125488
0.000125488
0.0001261
0.0001261
0.000126708
0.000126708
0.00012731
0.00012731
0.000127907
0.000127907
0.000128498
0.000128498
0.000129085
0.000129085
0.000129666
0.000129666
0.000130242
0.000130242
0.000130812
0.000130812
0.000131377
0.000131377
0.000131938
0.000131938
0.000132493
0.000132493
0.000133043
0.000133043
0.000133587
0.000133587
0.000134127
0.000134127
0.000134662
0.000134662
0.000135192
0.000135192
0.000135717
0.000135717
0.000136237
0.000136237
0.000136753
0.000136753
0.000137263
0.000137264
0.00013777
0.00013777
0.000138271
0.000138271
0.000138769
0.000138769
0.000139261
0.000139261
0.00013975
0.00013975
0.000140234
0.000140234
0.000140715
0.000140715
0.000141191
0.000141191
0.000141664
0.000141664
0.000142133
0.000142133
0.000142598
0.000142598
0.000143061
0.000143061
0.000143519
0.000143519
0.000143975
0.000143975
0.000144428
0.000144428
0.000144878
0.000144878
0.000145325
0.000145325
0.00014577
0.00014577
0.000146213
0.000146213
0.000146654
0.000146654
0.000147093
0.000147093
0.000147531
0.000147531
0.000147967
0.000147967
0.000148402
0.000148402
0.000148837
0.000148837
0.000149271
0.000149271
0.000149705
0.000149705
0.000150139
0.000150139
0.000150573
0.000150573
0.000151008
0.000151008
0.000151445
0.000151445
0.000151882
0.000151882
0.000152322
0.000152322
0.000152764
0.000152764
0.000153209
0.000153209
0.000153657
0.000153657
0.000154109
0.000154109
0.000154565
0.000154565
0.000155025
0.000155025
0.000155491
0.000155491
0.000155963
0.000155963
0.00015644
0.00015644
0.000156925
0.000156925
0.000157418
0.000157418
0.000157919
0.000157919
0.000158429
0.000158429
0.000158949
0.000158949
0.00015948
0.00015948
0.000160022
0.000160022
0.000160576
0.000160577
0.000161144
0.000161144
0.000161727
0.000161727
0.000162324
0.000162324
0.000162939
0.000162939
0.00016357
0.00016357
0.000164221
0.000164221
0.000164892
0.000164892
0.000165584
0.000165584
0.0001663
0.0001663
0.000167039
0.000167039
0.000167805
0.000167805
0.000168598
0.000168598
0.000169421
0.000169421
0.000170276
0.000170276
0.000171163
0.000171163
0.000172086
0.000172086
0.000173047
0.000173047
0.000174048
0.000174048
0.000175091
0.000175091
0.000176179
0.000176179
0.000177316
0.000177316
0.000178503
0.000178503
0.000179744
0.000179744
0.000181042
0.000181042
0.000182401
0.000182401
0.000183824
0.000183824
0.000185315
0.000185315
0.000186879
0.000186879
0.00018852
0.00018852
0.000190241
0.000190241
0.00019205
0.00019205
0.000193949
0.000193949
0.000195945
0.000195945
0.000198044
0.000198044
0.000200252
0.000200252
0.000202574
0.000202574
0.000205019
0.000205019
0.000207592
0.000207592
0.000210302
0.000210302
0.000213156
0.000213156
0.000216162
0.000216162
0.00021933
0.00021933
0.000222668
0.000222668
0.000226186
0.000226186
0.000229895
0.000229895
0.000233803
0.000233803
0.000237923
0.000237923
0.000242266
0.000242266
0.000246843
0.000246843
0.000251667
0.000251667
0.000256751
0.000256751
0.000262107
0.000262107
0.000267749
0.000267749
0.000273692
0.000273692
0.000279949
0.000279949
0.000286535
0.000286535
0.000293465
0.000293465
0.000300755
0.000300755
0.00030842
0.00030842
0.000316475
0.000316475
0.000324937
0.000324937
0.000333823
0.000333823
0.000343147
0.000343147
0.000352926
0.000352926
0.000363176
0.000363176
0.000373913
0.000373913
0.000385154
0.000385154
0.000396914
0.000396914
0.000409208
0.000409208
0.000422052
0.000422052
0.000435461
0.000435461
0.000449448
0.000449448
0.000464029
0.000464029
0.000479216
0.000479216
0.000495024
0.000495024
0.000511463
0.000511463
0.000528547
0.000528547
0.000546287
0.000546287
0.000564693
0.000564693
0.000583776
0.000583776
0.000603546
0.000603546
0.00062401
0.00062401
0.000645177
0.000645177
0.000667055
0.000667055
0.000689651
0.00068965
0.000712969
0.000712969
0.000737017
0.000737017
0.000761799
0.000761798
0.000787318
0.000787318
0.000813578
0.000813578
0.000840582
0.000840582
0.000868332
0.000868332
0.000896829
0.000896829
0.000926075
0.000926075
0.000956069
0.000956069
0.00098681
0.00098681
0.0010183
0.0010183
0.00105053
0.00105053
0.00108351
0.00108351
0.00111723
0.00111723
0.00115168
0.00115168
0.00118687
0.00118687
0.00122278
0.00122278
0.00125942
0.00125942
0.00129678
0.00129678
0.00133485
0.00133485
0.00137363
0.00137363
0.0014131
0.0014131
0.00145327
0.00145327
0.00149411
0.00149411
0.00153564
0.00153564
0.00157783
0.00157783
0.00162068
0.00162068
0.00166417
0.00166417
0.0017083
0.0017083
0.00175306
0.00175306
0.00179844
0.00179844
0.00184442
0.00184442
0.00189099
0.00189099
0.00193814
0.00193814
0.00198587
0.00198587
0.00203415
0.00203415
0.00208297
0.00208297
0.00213232
0.00213232
0.00218219
0.00218219
0.00223256
0.00223256
0.00228342
0.00228342
0.00233475
0.00233475
0.00238654
0.00238654
0.00243877
0.00243877
0.00249144
0.00249144
0.00254451
0.00254451
0.00259799
0.00259799
0.00265185
0.00265185
0.00270607
0.00270607
0.00276064
0.00276064
0.00281555
0.00281555
0.00287077
0.00287077
0.0029263
0.0029263
0.00298211
0.00298211
0.00303818
0.00303818
0.00309451
0.00309451
0.00315107
0.00315107
0.00320785
0.00320785
0.00326483
0.00326483
0.00332198
0.00332198
0.00337931
0.00337931
0.00343678
0.00343678
0.00349439
0.00349439
0.0035521
0.0035521
0.00360992
0.00360992
0.00366781
0.00366781
0.00372577
0.00372577
0.00378378
0.00378378
0.00384181
0.00384181
0.00389986
0.00389986
0.0039579
0.0039579
0.00401592
0.00401592
0.0040739
0.0040739
0.00413183
0.00413183
0.00418969
0.00418969
0.00424746
0.00424746
0.00430513
0.00430513
0.00436268
0.00436268
0.0044201
0.0044201
0.00447737
0.00447737
0.00453448
0.00453448
0.0045914
0.0045914
0.00464813
0.00464813
0.00470465
0.00470465
0.00476094
0.00476094
0.004817
0.004817
0.0048728
0.0048728
0.00492834
0.00492834
0.00498359
0.00498359
0.00503855
0.00503855
0.00509321
0.00509321
0.00514754
0.00514754
0.00520153
0.00520153
0.00525518
0.00525518
0.00530847
0.00530847
0.00536139
0.00536139
0.00541393
0.00541392
0.00546606
0.00546606
0.0055178
0.0055178
0.00556911
0.00556911
0.00562
0.00562
0.00567044
0.00567044
0.00572044
0.00572044
0.00576997
0.00576997
0.00581903
0.00581903
0.00586761
0.00586761
0.0059157
0.0059157
0.0059633
0.0059633
0.00601038
0.00601038
0.00605695
0.00605695
0.00610299
0.00610299
0.00614849
0.00614849
0.00619346
0.00619346
0.00623787
0.00623787
0.00628173
0.00628173
0.00632502
0.00632502
0.00636774
0.00636774
0.00640988
0.00640988
0.00645144
0.00645144
0.0064924
0.0064924
0.00653277
0.00653277
0.00657254
0.00657254
0.0066117
0.0066117
0.00665024
0.00665024
0.00668817
0.00668817
0.00672547
0.00672547
0.00676215
0.00676215
0.0067982
0.0067982
0.00683361
0.00683361
0.00686838
0.00686838
0.00690251
0.00690251
0.006936
0.006936
0.00696884
0.00696884
0.00700103
0.00700103
0.00703257
0.00703257
0.00706345
0.00706345
0.00709368
0.00709368
0.00712325
0.00712325
0.00715216
0.00715216
0.00718042
0.00718042
0.00720802
0.00720802
0.00723496
0.00723496
0.00726124
0.00726124
0.00728686
0.00728686
0.00731183
0.00731183
0.00733614
0.00733614
0.00735979
0.00735979
0.0073828
0.0073828
0.00740515
0.00740515
0.00742686
0.00742686
0.00744792
0.00744792
0.00746834
0.00746834
0.00748812
0.00748812
0.00750726
0.00750726
0.00752578
0.00752578
0.00754367
0.00754367
0.00756094
0.00756094
0.00757759
0.00757759
0.00759363
0.00759363
0.00760907
0.00760907
0.00762391
0.00762391
0.00763815
0.00763815
0.00765182
0.00765182
0.0076649
0.0076649
0.00767741
0.00767741
0.00768935
0.00768935
0.00770074
0.00770074
0.00771159
0.00771159
0.00772189
0.00772189
0.00773166
0.00773166
0.0077409
0.0077409
0.00774964
0.00774964
0.00775786
0.00775786
0.00776559
0.00776559
0.00777283
0.00777283
0.00777959
0.00777959
0.00778588
0.00778588
0.0077917
0.0077917
0.00779707
0.00779707
0.007802
0.007802
0.00780649
0.00780649
0.00781054
0.00781054
0.00781417
0.00781417
0.00781738
0.00781738
0.00782018
0.00782018
0.00782258
0.00782258
0.00782457
0.00782457
0.00782615
0.00782615
0.00782735
0.00782735
0.00782814
0.00782814
0.00782854
0.00782854
8.68403e-15
8.68403e-15
7.35027e-15
7.35027e-15
6.87984e-15
6.87984e-15
9.09266e-15
9.09266e-15
2.00318e-14
2.00318e-14
5.3293e-14
5.3293e-14
1.34097e-13
1.34097e-13
3.04109e-13
3.04109e-13
6.27037e-13
6.27037e-13
1.19503e-12
1.19503e-12
2.13595e-12
2.13595e-12
3.62156e-12
3.62156e-12
5.87672e-12
5.87672e-12
9.18963e-12
9.18963e-12
1.39232e-11
1.39232e-11
2.05279e-11
2.05279e-11
2.95552e-11
2.95552e-11
4.16735e-11
4.16735e-11
5.76848e-11
5.76848e-11
7.85432e-11
7.85432e-11
1.05375e-10
1.05375e-10
1.39502e-10
1.39502e-10
1.82463e-10
1.82463e-10
2.36044e-10
2.36044e-10
3.02302e-10
3.02302e-10
3.836e-10
3.836e-10
4.82639e-10
4.82639e-10
6.02491e-10
6.02491e-10
7.46644e-10
7.46644e-10
9.19038e-10
9.19038e-10
1.12411e-09
1.12411e-09
1.36686e-09
1.36686e-09
1.65286e-09
1.65286e-09
1.98835e-09
1.98835e-09
2.38029e-09
2.38029e-09
2.83641e-09
2.83641e-09
3.36526e-09
3.36526e-09
3.97633e-09
3.97633e-09
4.68009e-09
4.68009e-09
5.48804e-09
5.48804e-09
6.41288e-09
6.41288e-09
7.46849e-09
7.46849e-09
8.6701e-09
8.6701e-09
1.00343e-08
1.00343e-08
1.15794e-08
1.15794e-08
1.3325e-08
1.3325e-08
1.52926e-08
1.52926e-08
1.75057e-08
1.75057e-08
1.99894e-08
1.99894e-08
2.2771e-08
2.2771e-08
2.58802e-08
2.58802e-08
2.93487e-08
2.93487e-08
3.32107e-08
3.32107e-08
3.75031e-08
3.75031e-08
4.22653e-08
4.22653e-08
4.75395e-08
4.75395e-08
5.3371e-08
5.3371e-08
5.9808e-08
5.9808e-08
6.69018e-08
6.69018e-08
7.47072e-08
7.47072e-08
8.32823e-08
8.32823e-08
9.26886e-08
9.26886e-08
1.02992e-07
1.02992e-07
1.1426e-07
1.1426e-07
1.26567e-07
1.26567e-07
1.39988e-07
1.39988e-07
1.54605e-07
1.54605e-07
1.70503e-07
1.70503e-07
1.8777e-07
1.8777e-07
2.06498e-07
2.06498e-07
2.26786e-07
2.26786e-07
2.48734e-07
2.48734e-07
2.72448e-07
2.72448e-07
2.98037e-07
2.98037e-07
3.25616e-07
3.25616e-07
3.55302e-07
3.55302e-07
3.87216e-07
3.87216e-07
4.21485e-07
4.21485e-07
4.58239e-07
4.58239e-07
4.9761e-07
4.9761e-07
5.39735e-07
5.39735e-07
5.84756e-07
5.84756e-07
6.32815e-07
6.32815e-07
6.84059e-07
6.84059e-07
7.38637e-07
7.38637e-07
7.96703e-07
7.96703e-07
8.5841e-07
8.5841e-07
9.23916e-07
9.23916e-07
9.93378e-07
9.93378e-07
1.06696e-06
1.06696e-06
1.14482e-06
1.14482e-06
1.22712e-06
1.22712e-06
1.31403e-06
1.31403e-06
1.4057e-06
1.4057e-06
1.50231e-06
1.50231e-06
1.60402e-06
1.60402e-06
1.711e-06
1.711e-06
1.82339e-06
1.82339e-06
1.94138e-06
1.94138e-06
2.06511e-06
2.06511e-06
2.19475e-06
2.19475e-06
2.33045e-06
2.33045e-06
2.47237e-06
2.47237e-06
2.62066e-06
2.62066e-06
2.77547e-06
2.77547e-06
2.93695e-06
2.93695e-06
3.10525e-06
3.10525e-06
3.28049e-06
3.28049e-06
3.46282e-06
3.46282e-06
3.65236e-06
3.65236e-06
3.84926e-06
3.84926e-06
4.05362e-06
4.05362e-06
4.26558e-06
4.26558e-06
4.48524e-06
4.48524e-06
4.71272e-06
4.71272e-06
4.94811e-06
4.94811e-06
5.19153e-06
5.19153e-06
5.44306e-06
5.44306e-06
5.7028e-06
5.7028e-06
5.97083e-06
5.97083e-06
6.24723e-06
6.24723e-06
6.53207e-06
6.53207e-06
6.82542e-06
6.82542e-06
7.12734e-06
7.12734e-06
7.43791e-06
7.43791e-06
7.75715e-06
7.75715e-06
8.08513e-06
8.08513e-06
8.42188e-06
8.42188e-06
8.76745e-06
8.76745e-06
9.12186e-06
9.12186e-06
9.48513e-06
9.48513e-06
9.8573e-06
9.8573e-06
1.02384e-05
1.02384e-05
1.06283e-05
1.06283e-05
1.10273e-05
1.10273e-05
1.14351e-05
1.14351e-05
1.18518e-05
1.18518e-05
1.22775e-05
1.22775e-05
1.2712e-05
1.2712e-05
1.31554e-05
1.31554e-05
1.36077e-05
1.36077e-05
1.40688e-05
1.40688e-05
1.45387e-05
1.45387e-05
1.50173e-05
1.50173e-05
1.55047e-05
1.55047e-05
1.60008e-05
1.60008e-05
1.65054e-05
1.65054e-05
1.70187e-05
1.70187e-05
1.75404e-05
1.75404e-05
1.80707e-05
1.80707e-05
1.86093e-05
1.86093e-05
1.91562e-05
1.91562e-05
1.97115e-05
1.97115e-05
2.02749e-05
2.02749e-05
2.08464e-05
2.08464e-05
2.1426e-05
2.1426e-05
2.20135e-05
2.20135e-05
2.26089e-05
2.26089e-05
2.3212e-05
2.3212e-05
2.38229e-05
2.38229e-05
2.44414e-05
2.44414e-05
2.50673e-05
2.50673e-05
2.57007e-05
2.57007e-05
2.63414e-05
2.63414e-05
2.69893e-05
2.69893e-05
2.76443e-05
2.76443e-05
2.83063e-05
2.83063e-05
2.89752e-05
2.89752e-05
2.96509e-05
2.96509e-05
3.03333e-05
3.03333e-05
3.10222e-05
3.10222e-05
3.17175e-05
3.17175e-05
3.24192e-05
3.24192e-05
3.31271e-05
3.31271e-05
3.38411e-05
3.38411e-05
3.45611e-05
3.45611e-05
3.52869e-05
3.52869e-05
3.60184e-05
3.60184e-05
3.67555e-05
3.67555e-05
3.74981e-05
3.74981e-05
3.82461e-05
3.82461e-05
3.89993e-05
3.89993e-05
3.97575e-05
3.97575e-05
4.05208e-05
4.05208e-05
4.12889e-05
4.12889e-05
4.20617e-05
4.20617e-05
4.2839e-05
4.2839e-05
4.36208e-05
4.36208e-05
4.4407e-05
4.4407e-05
4.51973e-05
4.51973e-05
4.59916e-05
4.59916e-05
4.67899e-05
4.67899e-05
4.7592e-05
4.7592e-05
4.83977e-05
4.83977e-05
4.92069e-05
4.92069e-05
5.00195e-05
5.00195e-05
5.08353e-05
5.08353e-05
5.16543e-05
5.16543e-05
5.24762e-05
5.24762e-05
5.3301e-05
5.3301e-05
5.41285e-05
5.41285e-05
5.49586e-05
5.49586e-05
5.57911e-05
5.57911e-05
5.66259e-05
5.66259e-05
5.74629e-05
5.74629e-05
5.8302e-05
5.8302e-05
5.91429e-05
5.91429e-05
5.99856e-05
5.99856e-05
6.083e-05
6.083e-05
6.16759e-05
6.16759e-05
6.25232e-05
6.25232e-05
6.33717e-05
6.33717e-05
6.42213e-05
6.42213e-05
6.5072e-05
6.5072e-05
6.59235e-05
6.59235e-05
6.67757e-05
6.67757e-05
6.76285e-05
6.76285e-05
6.84818e-05
6.84818e-05
6.93355e-05
6.93355e-05
7.01894e-05
7.01894e-05
7.10434e-05
7.10434e-05
7.18974e-05
7.18974e-05
7.27512e-05
7.27512e-05
7.36048e-05
7.36048e-05
7.4458e-05
7.4458e-05
7.53106e-05
7.53106e-05
7.61627e-05
7.61627e-05
7.70139e-05
7.7014e-05
7.78644e-05
7.78644e-05
7.87138e-05
7.87138e-05
7.95622e-05
7.95622e-05
8.04093e-05
8.04093e-05
8.12551e-05
8.12551e-05
8.20995e-05
8.20995e-05
8.29423e-05
8.29423e-05
8.37835e-05
8.37835e-05
8.46229e-05
8.46229e-05
8.54604e-05
8.54604e-05
8.6296e-05
8.6296e-05
8.71294e-05
8.71294e-05
8.79607e-05
8.79607e-05
8.87896e-05
8.87896e-05
8.96162e-05
8.96162e-05
9.04403e-05
9.04403e-05
9.12618e-05
9.12618e-05
9.20806e-05
9.20806e-05
9.28966e-05
9.28966e-05
9.37097e-05
9.37097e-05
9.45199e-05
9.45199e-05
9.5327e-05
9.5327e-05
9.61309e-05
9.61309e-05
9.69316e-05
9.69316e-05
9.77289e-05
9.77289e-05
9.85229e-05
9.85229e-05
9.93133e-05
9.93133e-05
0.0001001
0.0001001
0.000100883
0.000100883
0.000101663
0.000101663
0.000102438
0.000102438
0.00010321
0.00010321
0.000103978
0.000103978
0.000104742
0.000104742
0.000105501
0.000105501
0.000106257
0.000106257
0.000107008
0.000107008
0.000107754
0.000107754
0.000108497
0.000108497
0.000109235
0.000109235
0.000109968
0.000109968
0.000110697
0.000110697
0.000111422
0.000111422
0.000112141
0.000112141
0.000112856
0.000112856
0.000113566
0.000113566
0.000114272
0.000114272
0.000114972
0.000114972
0.000115668
0.000115668
0.000116358
0.000116358
0.000117044
0.000117044
0.000117724
0.000117724
0.0001184
0.0001184
0.00011907
0.00011907
0.000119735
0.000119735
0.000120395
0.000120395
0.00012105
0.00012105
0.0001217
0.0001217
0.000122344
0.000122344
0.000122984
0.000122984
0.000123618
0.000123618
0.000124246
0.000124246
0.00012487
0.00012487
0.000125488
0.000125488
0.0001261
0.0001261
0.000126708
0.000126708
0.00012731
0.00012731
0.000127907
0.000127907
0.000128498
0.000128498
0.000129085
0.000129085
0.000129666
0.000129666
0.000130242
0.000130242
0.000130812
0.000130812
0.000131377
0.000131377
0.000131938
0.000131938
0.000132493
0.000132493
0.000133043
0.000133043
0.000133587
0.000133587
0.000134127
0.000134127
0.000134662
0.000134662
0.000135192
0.000135192
0.000135717
0.000135717
0.000136237
0.000136237
0.000136753
0.000136753
0.000137263
0.000137264
0.00013777
0.00013777
0.000138271
0.000138271
0.000138769
0.000138769
0.000139261
0.000139261
0.00013975
0.00013975
0.000140234
0.000140234
0.000140715
0.000140715
0.000141191
0.000141191
0.000141664
0.000141664
0.000142133
0.000142133
0.000142598
0.000142598
0.000143061
0.000143061
0.000143519
0.000143519
0.000143975
0.000143975
0.000144428
0.000144428
0.000144878
0.000144878
0.000145325
0.000145325
0.00014577
0.00014577
0.000146213
0.000146213
0.000146654
0.000146654
0.000147093
0.000147093
0.000147531
0.000147531
0.000147967
0.000147967
0.000148402
0.000148402
0.000148837
0.000148837
0.000149271
0.000149271
0.000149705
0.000149705
0.000150138
0.000150139
0.000150573
0.000150573
0.000151008
0.000151008
0.000151445
0.000151445
0.000151882
0.000151882
0.000152322
0.000152322
0.000152764
0.000152764
0.000153209
0.000153209
0.000153657
0.000153657
0.000154109
0.000154109
0.000154565
0.000154565
0.000155025
0.000155025
0.000155491
0.000155491
0.000155963
0.000155963
0.00015644
0.00015644
0.000156925
0.000156925
0.000157418
0.000157418
0.000157919
0.000157919
0.000158429
0.000158429
0.000158949
0.000158949
0.00015948
0.00015948
0.000160022
0.000160022
0.000160576
0.000160577
0.000161144
0.000161144
0.000161727
0.000161727
0.000162324
0.000162324
0.000162939
0.000162939
0.00016357
0.00016357
0.000164221
0.000164221
0.000164892
0.000164892
0.000165584
0.000165584
0.0001663
0.0001663
0.000167039
0.000167039
0.000167805
0.000167805
0.000168598
0.000168598
0.000169421
0.000169421
0.000170276
0.000170276
0.000171163
0.000171163
0.000172086
0.000172086
0.000173047
0.000173047
0.000174048
0.000174048
0.000175091
0.000175091
0.000176179
0.000176179
0.000177316
0.000177316
0.000178503
0.000178503
0.000179744
0.000179744
0.000181042
0.000181042
0.000182401
0.000182401
0.000183824
0.000183824
0.000185315
0.000185315
0.000186879
0.000186879
0.00018852
0.00018852
0.000190241
0.000190241
0.00019205
0.00019205
0.000193949
0.000193949
0.000195945
0.000195945
0.000198044
0.000198044
0.000200252
0.000200252
0.000202574
0.000202574
0.000205019
0.000205019
0.000207592
0.000207592
0.000210302
0.000210302
0.000213155
0.000213156
0.000216162
0.000216162
0.00021933
0.00021933
0.000222668
0.000222668
0.000226186
0.000226186
0.000229895
0.000229895
0.000233803
0.000233803
0.000237923
0.000237923
0.000242266
0.000242266
0.000246843
0.000246843
0.000251667
0.000251667
0.000256751
0.000256751
0.000262107
0.000262107
0.000267749
0.000267749
0.000273692
0.000273692
0.000279949
0.000279949
0.000286535
0.000286535
0.000293465
0.000293465
0.000300755
0.000300755
0.00030842
0.00030842
0.000316475
0.000316475
0.000324937
0.000324937
0.000333823
0.000333823
0.000343147
0.000343146
0.000352926
0.000352926
0.000363176
0.000363176
0.000373913
0.000373913
0.000385154
0.000385154
0.000396914
0.000396914
0.000409208
0.000409208
0.000422052
0.000422052
0.000435461
0.000435461
0.000449448
0.000449448
0.000464029
0.000464029
0.000479216
0.000479216
0.000495024
0.000495023
0.000511463
0.000511463
0.000528547
0.000528547
0.000546287
0.000546287
0.000564693
0.000564693
0.000583776
0.000583776
0.000603546
0.000603546
0.00062401
0.00062401
0.000645177
0.000645177
0.000667055
0.000667055
0.00068965
0.00068965
0.000712969
0.000712969
0.000737017
0.000737017
0.000761799
0.000761798
0.000787318
0.000787318
0.000813578
0.000813578
0.000840582
0.000840582
0.000868332
0.000868332
0.000896829
0.000896829
0.000926075
0.000926075
0.000956069
0.000956069
0.00098681
0.00098681
0.0010183
0.0010183
0.00105053
0.00105053
0.00108351
0.00108351
0.00111723
0.00111723
0.00115168
0.00115168
0.00118687
0.00118687
0.00122278
0.00122278
0.00125942
0.00125942
0.00129678
0.00129678
0.00133485
0.00133485
0.00137363
0.00137363
0.0014131
0.0014131
0.00145327
0.00145327
0.00149411
0.00149411
0.00153564
0.00153564
0.00157783
0.00157783
0.00162068
0.00162068
0.00166417
0.00166417
0.0017083
0.0017083
0.00175306
0.00175306
0.00179844
0.00179844
0.00184442
0.00184442
0.00189099
0.00189099
0.00193814
0.00193814
0.00198587
0.00198587
0.00203415
0.00203415
0.00208297
0.00208297
0.00213232
0.00213232
0.00218219
0.00218219
0.00223256
0.00223256
0.00228342
0.00228342
0.00233475
0.00233475
0.00238654
0.00238654
0.00243877
0.00243877
0.00249144
0.00249144
0.00254451
0.00254451
0.00259799
0.00259799
0.00265185
0.00265185
0.00270607
0.00270607
0.00276064
0.00276064
0.00281555
0.00281555
0.00287077
0.00287077
0.0029263
0.0029263
0.00298211
0.00298211
0.00303818
0.00303818
0.00309451
0.00309451
0.00315107
0.00315107
0.00320785
0.00320785
0.00326483
0.00326482
0.00332198
0.00332198
0.00337931
0.00337931
0.00343678
0.00343678
0.00349439
0.00349439
0.0035521
0.0035521
0.00360992
0.00360992
0.00366781
0.00366781
0.00372577
0.00372577
0.00378378
0.00378378
0.00384181
0.00384181
0.00389986
0.00389986
0.0039579
0.0039579
0.00401592
0.00401592
0.0040739
0.0040739
0.00413183
0.00413183
0.00418969
0.00418969
0.00424746
0.00424746
0.00430513
0.00430513
0.00436268
0.00436268
0.0044201
0.0044201
0.00447737
0.00447737
0.00453448
0.00453448
0.0045914
0.0045914
0.00464813
0.00464813
0.00470465
0.00470465
0.00476094
0.00476094
0.004817
0.004817
0.0048728
0.0048728
0.00492834
0.00492834
0.00498359
0.00498359
0.00503855
0.00503855
0.00509321
0.00509321
0.00514754
0.00514754
0.00520153
0.00520153
0.00525518
0.00525518
0.00530847
0.00530847
0.00536139
0.00536139
0.00541393
0.00541392
0.00546606
0.00546606
0.0055178
0.0055178
0.00556911
0.00556911
0.00562
0.00562
0.00567044
0.00567044
0.00572044
0.00572044
0.00576997
0.00576997
0.00581903
0.00581903
0.00586761
0.00586761
0.0059157
0.0059157
0.0059633
0.0059633
0.00601038
0.00601038
0.00605695
0.00605695
0.00610299
0.00610299
0.00614849
0.00614849
0.00619346
0.00619346
0.00623787
0.00623787
0.00628173
0.00628173
0.00632502
0.00632502
0.00636774
0.00636774
0.00640988
0.00640988
0.00645144
0.00645144
0.0064924
0.0064924
0.00653277
0.00653277
0.00657254
0.00657254
0.0066117
0.0066117
0.00665024
0.00665024
0.00668817
0.00668817
0.00672547
0.00672547
0.00676215
0.00676215
0.0067982
0.0067982
0.00683361
0.00683361
0.00686838
0.00686838
0.00690251
0.00690251
0.006936
0.006936
0.00696884
0.00696884
0.00700103
0.00700103
0.00703257
0.00703257
0.00706345
0.00706345
0.00709368
0.00709368
0.00712325
0.00712325
0.00715216
0.00715216
0.00718042
0.00718042
0.00720802
0.00720802
0.00723496
0.00723496
0.00726124
0.00726124
0.00728686
0.00728686
0.00731183
0.00731183
0.00733614
0.00733614
0.00735979
0.00735979
0.0073828
0.0073828
0.00740515
0.00740515
0.00742686
0.00742686
0.00744792
0.00744792
0.00746834
0.00746834
0.00748812
0.00748812
0.00750726
0.00750726
0.00752578
0.00752578
0.00754367
0.00754367
0.00756094
0.00756094
0.00757759
0.00757759
0.00759363
0.00759363
0.00760907
0.00760907
0.00762391
0.00762391
0.00763815
0.00763815
0.00765182
0.00765182
0.0076649
0.0076649
0.00767741
0.00767741
0.00768935
0.00768935
0.00770074
0.00770074
0.00771159