/*--------------------------------*- C++ -*----------------------------------*\
| =========                 |                                                 |
| \\      /  F ield         | OpenFOAM: The Open Source CFD Toolbox           |
|  \\    /   O peration     | Version:  2012                                  |
|   \\  /    A nd           | Website:  www.openfoam.com                      |
|    \\/     M anipulation  |                                                 |
\*---------------------------------------------------------------------------*/
FoamFile
{
    version     2.0;
    format      ascii;
    class       volScalarField;
    location    "10000";
    object      p;
}
// * * * * * * * * * * * * * * * * * * * * * * * * * * * * * * * * * * * * * //

dimensions      [0 2 -2 0 0 0 0];


internalField   nonuniform List<scalar> 
5120
(
6.77825e-15
8.03953e-14
1.42498e-14
8.03957e-14
1.57811e-14
8.03963e-14
1.58195e-14
8.03974e-14
1.6088e-14
8.03988e-14
1.65438e-14
8.04007e-14
1.70183e-14
8.0403e-14
1.74793e-14
8.04057e-14
1.79353e-14
8.04088e-14
1.83897e-14
8.04124e-14
1.88414e-14
8.04164e-14
1.92895e-14
8.04208e-14
1.97338e-14
8.04256e-14
2.01743e-14
8.04309e-14
2.0611e-14
8.04366e-14
2.10437e-14
8.04427e-14
2.14725e-14
8.04492e-14
2.18974e-14
8.04562e-14
2.23186e-14
8.04635e-14
2.27359e-14
8.04712e-14
2.31495e-14
8.04793e-14
2.35593e-14
8.04878e-14
2.39654e-14
8.04966e-14
2.43678e-14
8.05059e-14
2.47666e-14
8.05156e-14
2.51616e-14
8.05255e-14
2.55531e-14
8.05359e-14
2.59409e-14
8.05467e-14
2.63252e-14
8.05578e-14
2.6706e-14
8.05694e-14
2.70832e-14
8.05812e-14
2.74569e-14
8.05935e-14
2.78271e-14
8.0606e-14
2.8194e-14
8.06189e-14
2.85574e-14
8.06322e-14
2.89175e-14
8.06457e-14
2.92742e-14
8.06597e-14
2.96276e-14
8.0674e-14
2.99776e-14
8.06886e-14
3.03243e-14
8.07035e-14
3.06678e-14
8.07188e-14
3.10079e-14
8.07343e-14
3.13448e-14
8.07502e-14
3.16785e-14
8.07664e-14
3.2009e-14
8.0783e-14
3.23364e-14
8.07998e-14
3.26606e-14
8.0817e-14
3.29816e-14
8.08345e-14
3.32997e-14
8.08524e-14
3.36148e-14
8.08704e-14
3.39268e-14
8.08887e-14
3.42358e-14
8.09074e-14
3.45421e-14
8.09262e-14
3.48453e-14
8.09454e-14
3.51457e-14
8.09648e-14
3.54431e-14
8.09844e-14
3.57376e-14
8.10044e-14
3.60293e-14
8.10246e-14
3.63181e-14
8.10449e-14
3.66041e-14
8.10655e-14
3.68874e-14
8.10866e-14
3.7168e-14
8.11077e-14
3.74459e-14
8.11289e-14
3.77212e-14
8.11503e-14
3.79937e-14
8.1172e-14
3.82636e-14
8.11938e-14
3.8531e-14
8.12159e-14
3.87958e-14
8.12383e-14
3.90579e-14
8.12608e-14
3.93173e-14
8.12837e-14
3.95741e-14
8.13067e-14
3.98282e-14
8.133e-14
4.008e-14
8.13534e-14
4.03293e-14
8.13772e-14
4.05762e-14
8.1401e-14
4.08205e-14
8.1425e-14
4.10625e-14
8.14491e-14
4.13022e-14
8.14734e-14
4.15397e-14
8.14978e-14
4.17748e-14
8.15224e-14
4.20076e-14
8.15471e-14
4.22381e-14
8.1572e-14
4.24664e-14
8.15971e-14
4.26923e-14
8.16222e-14
4.2916e-14
8.16472e-14
4.31375e-14
8.16727e-14
4.33571e-14
8.16985e-14
4.35745e-14
8.17242e-14
4.37898e-14
8.17499e-14
4.4003e-14
8.17759e-14
4.42143e-14
8.18021e-14
4.44235e-14
8.18287e-14
4.46307e-14
8.18552e-14
4.48358e-14
8.18818e-14
4.50388e-14
8.19087e-14
4.52398e-14
8.1936e-14
4.54389e-14
8.19637e-14
4.56357e-14
8.19915e-14
4.58303e-14
8.20194e-14
4.60234e-14
8.20474e-14
4.62146e-14
8.20757e-14
4.64044e-14
8.21036e-14
4.65922e-14
8.21316e-14
4.67785e-14
8.21597e-14
4.69632e-14
8.21879e-14
4.71458e-14
8.22162e-14
4.73271e-14
8.22444e-14
4.75068e-14
8.22727e-14
4.76852e-14
8.23009e-14
4.78618e-14
8.2329e-14
4.80369e-14
8.23573e-14
4.82105e-14
8.23856e-14
4.83827e-14
8.24139e-14
4.85535e-14
8.24422e-14
4.87226e-14
8.24706e-14
4.88904e-14
8.2499e-14
4.9057e-14
8.25275e-14
4.92222e-14
8.25561e-14
4.93855e-14
8.25848e-14
4.95475e-14
8.26135e-14
4.97083e-14
8.26428e-14
4.98677e-14
8.26722e-14
5.00259e-14
8.2701e-14
5.01829e-14
8.27298e-14
5.03385e-14
8.27589e-14
5.04934e-14
8.2788e-14
5.06473e-14
8.28167e-14
5.07997e-14
8.28454e-14
5.09511e-14
8.28744e-14
5.11011e-14
8.29036e-14
5.125e-14
8.29332e-14
5.13982e-14
8.29624e-14
5.15454e-14
8.29915e-14
5.16916e-14
8.30205e-14
5.18371e-14
8.30495e-14
5.19819e-14
8.30783e-14
5.21258e-14
8.31066e-14
5.22688e-14
8.31349e-14
5.24107e-14
8.3163e-14
5.2552e-14
8.31909e-14
5.26928e-14
8.32185e-14
5.28328e-14
8.32455e-14
5.29719e-14
8.32725e-14
5.31104e-14
8.32998e-14
5.32479e-14
8.33265e-14
5.33845e-14
8.33533e-14
5.35202e-14
8.33803e-14
5.36551e-14
8.34076e-14
5.37887e-14
8.34347e-14
5.39225e-14
8.34613e-14
5.40554e-14
8.34884e-14
5.41873e-14
8.35156e-14
5.43187e-14
8.35427e-14
5.44491e-14
8.35703e-14
5.45788e-14
8.35972e-14
5.4708e-14
8.36236e-14
5.4836e-14
8.36502e-14
5.49632e-14
8.36772e-14
5.50899e-14
8.37047e-14
5.52156e-14
8.37319e-14
5.5341e-14
8.37583e-14
5.54659e-14
8.37849e-14
5.55905e-14
8.38116e-14
5.57146e-14
8.38376e-14
5.5838e-14
8.38634e-14
5.59608e-14
8.38887e-14
5.60836e-14
8.39138e-14
5.62058e-14
8.3938e-14
5.63278e-14
8.39618e-14
5.64491e-14
8.39861e-14
5.65699e-14
8.40098e-14
5.66904e-14
8.40331e-14
5.68104e-14
8.40561e-14
5.69297e-14
8.40788e-14
5.70482e-14
8.41017e-14
5.71669e-14
8.41244e-14
5.7285e-14
8.41474e-14
5.74029e-14
8.41702e-14
5.75204e-14
8.41921e-14
5.76371e-14
8.42138e-14
5.77536e-14
8.42351e-14
5.78697e-14
8.42568e-14
5.79852e-14
8.42783e-14
5.81001e-14
8.42991e-14
5.82145e-14
8.43201e-14
5.83291e-14
8.43411e-14
5.84431e-14
8.43619e-14
5.85562e-14
8.43825e-14
5.86692e-14
8.4403e-14
5.87817e-14
8.44235e-14
5.88944e-14
8.4443e-14
5.90069e-14
8.4463e-14
5.91192e-14
8.44826e-14
5.92318e-14
8.45016e-14
5.93435e-14
8.45208e-14
5.94553e-14
8.45396e-14
5.9567e-14
8.45588e-14
5.96789e-14
8.4578e-14
5.97902e-14
8.45967e-14
5.99016e-14
8.46146e-14
6.00131e-14
8.46322e-14
6.01244e-14
8.46495e-14
6.02357e-14
8.46674e-14
6.03462e-14
8.46865e-14
6.04564e-14
8.47051e-14
6.05672e-14
8.47226e-14
6.06772e-14
8.47401e-14
6.0788e-14
8.47574e-14
6.08984e-14
8.47746e-14
6.10085e-14
8.47903e-14
6.11185e-14
8.4806e-14
6.12287e-14
8.48209e-14
6.13391e-14
8.4836e-14
6.14498e-14
8.48501e-14
6.1561e-14
8.48618e-14
6.16722e-14
8.48725e-14
6.1783e-14
8.48841e-14
6.18947e-14
8.48945e-14
6.20062e-14
8.49052e-14
6.21173e-14
8.49152e-14
6.22281e-14
8.49243e-14
6.23391e-14
8.4933e-14
6.24499e-14
8.49408e-14
6.25616e-14
8.49476e-14
6.26723e-14
8.49554e-14
6.27833e-14
8.49627e-14
6.28945e-14
8.49688e-14
6.30051e-14
8.49749e-14
6.31153e-14
8.49798e-14
6.32253e-14
8.49842e-14
6.33353e-14
8.49883e-14
6.34446e-14
8.4993e-14
6.35539e-14
8.49983e-14
6.36622e-14
8.50032e-14
6.37716e-14
8.50072e-14
6.38807e-14
8.50092e-14
6.39902e-14
8.50115e-14
6.40999e-14
8.50145e-14
6.42093e-14
8.50178e-14
6.43183e-14
8.50204e-14
6.44275e-14
8.50233e-14
6.45362e-14
8.50261e-14
6.46449e-14
8.50283e-14
6.47541e-14
8.50304e-14
6.48632e-14
8.50319e-14
6.49717e-14
8.5034e-14
6.508e-14
8.5035e-14
6.51891e-14
8.50357e-14
6.52984e-14
8.50364e-14
6.54078e-14
8.50368e-14
6.55174e-14
8.50353e-14
6.56271e-14
8.50341e-14
6.57377e-14
8.50332e-14
6.58478e-14
8.50335e-14
6.59578e-14
8.50337e-14
6.60676e-14
8.50327e-14
6.61772e-14
8.50312e-14
6.62871e-14
8.50301e-14
6.63961e-14
8.50286e-14
6.65057e-14
8.50275e-14
6.66144e-14
8.50265e-14
6.67231e-14
8.50262e-14
6.68313e-14
8.50254e-14
6.69388e-14
8.50254e-14
6.70467e-14
8.50256e-14
6.71548e-14
8.50241e-14
6.72621e-14
8.50225e-14
6.73691e-14
8.50227e-14
6.74761e-14
8.50213e-14
6.75827e-14
8.50195e-14
6.76892e-14
8.50181e-14
6.77947e-14
8.50172e-14
6.79018e-14
8.50151e-14
6.80087e-14
8.50111e-14
6.81153e-14
8.50074e-14
6.8223e-14
8.50035e-14
6.83311e-14
8.49979e-14
6.84396e-14
8.49904e-14
6.8549e-14
8.49837e-14
6.86587e-14
8.49751e-14
6.87681e-14
8.49651e-14
6.88777e-14
8.49566e-14
6.89882e-14
8.49482e-14
6.90984e-14
8.49372e-14
6.92085e-14
8.49263e-14
6.93194e-14
8.49157e-14
6.94301e-14
8.49036e-14
6.9541e-14
8.48896e-14
6.96516e-14
8.48759e-14
6.97619e-14
8.48623e-14
6.98717e-14
8.48486e-14
6.99823e-14
8.48345e-14
7.00928e-14
8.48197e-14
7.0201e-14
8.48058e-14
7.03089e-14
8.47917e-14
7.04169e-14
8.47783e-14
7.05254e-14
8.47656e-14
7.06344e-14
8.47519e-14
7.07432e-14
8.47372e-14
7.08519e-14
8.47247e-14
7.09599e-14
8.47126e-14
7.10677e-14
8.47005e-14
7.11755e-14
8.46868e-14
7.12834e-14
8.46741e-14
7.13903e-14
8.46629e-14
7.14963e-14
8.46502e-14
7.1602e-14
8.46374e-14
7.17088e-14
8.46256e-14
7.18152e-14
8.46131e-14
7.19212e-14
8.45988e-14
7.20267e-14
8.45847e-14
7.21309e-14
8.45706e-14
7.22353e-14
8.45566e-14
7.23407e-14
8.45436e-14
7.24468e-14
8.453e-14
7.2553e-14
8.45166e-14
7.26591e-14
8.45035e-14
7.27642e-14
8.44908e-14
7.287e-14
8.44745e-14
7.29754e-14
8.44595e-14
7.3082e-14
8.44464e-14
7.31867e-14
8.44338e-14
7.32909e-14
8.44217e-14
7.33954e-14
8.44102e-14
7.34992e-14
8.43992e-14
7.36039e-14
8.43866e-14
7.37078e-14
8.43747e-14
7.38117e-14
8.4362e-14
7.39155e-14
8.43508e-14
7.40184e-14
8.43396e-14
7.4121e-14
8.43307e-14
7.42234e-14
8.43234e-14
7.43239e-14
8.43169e-14
7.44248e-14
8.43084e-14
7.45251e-14
8.42987e-14
7.46235e-14
8.42907e-14
7.47199e-14
8.4283e-14
7.4817e-14
8.42757e-14
7.4912e-14
8.42701e-14
7.50062e-14
8.42642e-14
7.50996e-14
8.4256e-14
7.51921e-14
8.4249e-14
7.52837e-14
8.42439e-14
7.53735e-14
8.42373e-14
7.54623e-14
8.42313e-14
7.55513e-14
8.42246e-14
7.56398e-14
8.42179e-14
7.57284e-14
8.42092e-14
7.58177e-14
8.42013e-14
7.59082e-14
8.41936e-14
7.59974e-14
8.41834e-14
7.6087e-14
8.41707e-14
7.61771e-14
8.4159e-14
7.62662e-14
8.41475e-14
7.63557e-14
8.41357e-14
7.64435e-14
8.41236e-14
7.65315e-14
8.41125e-14
7.6619e-14
8.41024e-14
7.67061e-14
8.40934e-14
7.67919e-14
8.40829e-14
7.68765e-14
8.40723e-14
7.6961e-14
8.40633e-14
7.70449e-14
8.40549e-14
7.71267e-14
8.40457e-14
7.72084e-14
8.40384e-14
7.72893e-14
8.40316e-14
7.737e-14
8.40254e-14
7.74497e-14
8.40191e-14
7.75291e-14
8.40123e-14
7.76064e-14
8.40074e-14
7.76838e-14
8.40061e-14
7.77601e-14
8.40037e-14
7.78366e-14
8.39996e-14
7.79131e-14
8.39951e-14
7.79903e-14
8.39913e-14
7.80662e-14
8.39895e-14
7.8141e-14
8.39884e-14
7.82174e-14
8.3987e-14
7.82937e-14
8.39863e-14
7.8371e-14
8.39859e-14
7.8447e-14
8.39858e-14
7.85217e-14
8.39871e-14
7.85938e-14
8.39892e-14
7.86657e-14
8.39917e-14
7.87408e-14
8.3995e-14
7.88134e-14
8.40004e-14
7.88839e-14
8.40078e-14
7.89552e-14
8.40162e-14
7.90274e-14
8.40232e-14
7.90987e-14
8.40305e-14
7.9169e-14
8.40395e-14
7.92373e-14
8.40488e-14
7.93041e-14
8.40568e-14
7.93716e-14
8.40658e-14
7.94376e-14
8.40759e-14
7.95078e-14
8.40836e-14
7.95765e-14
8.40923e-14
7.96414e-14
8.41032e-14
7.9707e-14
8.4114e-14
7.97712e-14
8.41235e-14
7.98328e-14
8.4133e-14
7.9894e-14
8.41412e-14
7.99573e-14
8.4147e-14
8.00191e-14
8.41527e-14
8.00807e-14
8.41617e-14
8.01433e-14
8.41729e-14
8.02022e-14
8.41828e-14
8.02598e-14
8.41926e-14
8.0322e-14
8.41987e-14
8.03829e-14
8.42069e-14
8.04416e-14
8.42172e-14
8.05051e-14
8.42249e-14
8.05675e-14
8.42298e-14
8.06315e-14
8.42368e-14
8.06933e-14
8.42469e-14
8.07544e-14
8.42554e-14
8.08173e-14
8.42633e-14
8.0882e-14
8.42706e-14
8.09451e-14
8.42809e-14
8.10065e-14
8.42918e-14
8.10703e-14
8.43005e-14
8.11366e-14
8.4307e-14
8.12029e-14
8.43151e-14
8.12681e-14
8.43246e-14
8.13351e-14
8.43314e-14
8.13999e-14
8.4341e-14
8.14585e-14
8.43531e-14
8.15192e-14
8.43693e-14
8.15795e-14
8.43881e-14
8.16366e-14
8.44081e-14
8.16919e-14
8.44277e-14
8.17455e-14
8.44498e-14
8.18007e-14
8.44744e-14
8.18544e-14
8.44953e-14
8.19068e-14
8.45203e-14
8.19594e-14
8.45525e-14
8.20142e-14
8.45791e-14
8.20679e-14
8.46099e-14
8.21206e-14
8.46465e-14
8.21741e-14
8.46734e-14
8.22287e-14
8.47009e-14
8.22844e-14
8.47324e-14
8.23377e-14
8.47681e-14
8.23944e-14
8.48042e-14
8.24508e-14
8.48387e-14
8.25091e-14
8.48713e-14
8.25632e-14
8.49122e-14
8.26236e-14
8.49552e-14
8.26843e-14
8.49982e-14
8.27388e-14
8.50369e-14
8.2807e-14
8.50842e-14
8.28691e-14
8.51289e-14
8.2932e-14
8.51826e-14
8.30006e-14
8.5243e-14
8.30654e-14
8.52935e-14
8.31265e-14
8.53483e-14
8.31912e-14
8.53925e-14
8.32599e-14
8.54537e-14
8.33275e-14
8.55193e-14
8.33968e-14
8.55789e-14
8.3465e-14
8.56402e-14
8.35323e-14
8.57227e-14
8.36015e-14
8.57931e-14
8.36843e-14
8.58479e-14
8.37665e-14
8.591e-14
8.38392e-14
8.59796e-14
8.39175e-14
8.606e-14
8.40048e-14
8.61391e-14
8.40984e-14
8.62197e-14
8.41953e-14
8.6279e-14
8.42892e-14
8.63458e-14
8.43868e-14
8.64203e-14
8.44885e-14
8.64991e-14
8.4584e-14
8.65716e-14
8.46875e-14
8.66338e-14
8.47994e-14
8.66995e-14
8.49167e-14
8.67799e-14
8.50168e-14
8.68753e-14
8.51301e-14
8.69473e-14
8.52493e-14
8.70264e-14
8.53707e-14
8.71125e-14
8.54906e-14
8.72014e-14
8.56006e-14
8.7289e-14
8.57341e-14
8.73834e-14
8.58793e-14
8.74675e-14
8.60151e-14
8.75276e-14
8.61504e-14
8.76107e-14
8.62764e-14
8.77173e-14
8.6402e-14
8.78025e-14
8.65365e-14
8.78838e-14
8.66525e-14
8.79886e-14
8.67871e-14
8.81081e-14
8.69314e-14
8.82042e-14
8.70761e-14
8.82857e-14
8.72116e-14
8.83714e-14
8.73379e-14
8.84711e-14
8.7475e-14
8.85546e-14
8.76132e-14
8.86723e-14
8.77112e-14
8.8804e-14
8.78096e-14
8.89085e-14
8.79294e-14
8.90062e-14
8.80604e-14
8.90644e-14
8.81708e-14
8.91468e-14
8.82712e-14
8.92425e-14
8.835e-14
8.93737e-14
8.84623e-14
8.94519e-14
8.85411e-14
8.95324e-14
8.86085e-14
8.96036e-14
8.86984e-14
8.97113e-14
8.87997e-14
8.97632e-14
8.89007e-14
8.98517e-14
8.89778e-14
8.99183e-14
8.90542e-14
8.99383e-14
8.91662e-14
8.99947e-14
8.92659e-14
9.00754e-14
8.9353e-14
9.01683e-14
8.94518e-14
9.02486e-14
8.95499e-14
9.03531e-14
8.96471e-14
9.0432e-14
8.97305e-14
9.05098e-14
8.98253e-14
9.05736e-14
8.99316e-14
9.06354e-14
9.00239e-14
9.07462e-14
9.01274e-14
9.08809e-14
9.02155e-14
9.09744e-14
9.03141e-14
9.10522e-14
9.04363e-14
9.11139e-14
9.05692e-14
9.12119e-14
9.06995e-14
9.13459e-14
9.08537e-14
9.14354e-14
9.09919e-14
9.14923e-14
9.1128e-14
9.15833e-14
9.12623e-14
9.1735e-14
9.13943e-14
9.18658e-14
9.15238e-14
9.19338e-14
9.16651e-14
9.20344e-14
9.18047e-14
9.21671e-14
9.19426e-14
9.23455e-14
9.20781e-14
9.25003e-14
9.2225e-14
9.26174e-14
9.23552e-14
9.27667e-14
9.24682e-14
9.29061e-14
9.25776e-14
9.30072e-14
9.27403e-14
9.30695e-14
9.29002e-14
9.31913e-14
9.30145e-14
9.33583e-14
9.31396e-14
9.35286e-14
9.32603e-14
9.3674e-14
9.34195e-14
9.38235e-14
9.35597e-14
9.3934e-14
9.36666e-14
9.4034e-14
9.37982e-14
9.41815e-14
9.39396e-14
9.429e-14
9.40767e-14
9.43735e-14
9.42244e-14
9.45036e-14
9.43393e-14
9.47094e-14
9.44637e-14
9.48464e-14
9.45973e-14
9.49437e-14
9.47259e-14
9.49856e-14
9.48503e-14
9.51021e-14
9.4985e-14
9.52927e-14
9.51584e-14
9.54699e-14
9.53263e-14
9.55896e-14
9.55043e-14
9.57243e-14
9.56638e-14
9.58883e-14
9.57901e-14
9.61254e-14
9.59253e-14
9.6261e-14
9.60693e-14
9.63827e-14
9.61931e-14
9.65486e-14
9.62956e-14
9.67159e-14
9.64634e-14
9.69446e-14
9.66078e-14
9.71334e-14
9.6772e-14
9.73124e-14
9.69264e-14
9.74825e-14
9.71143e-14
9.75569e-14
9.7294e-14
9.76496e-14
9.74525e-14
9.78315e-14
9.76042e-14
9.79874e-14
9.77924e-14
9.81322e-14
9.79599e-14
9.8236e-14
9.81367e-14
9.83841e-14
9.82656e-14
9.85185e-14
9.83751e-14
9.86397e-14
9.85221e-14
9.87476e-14
9.86504e-14
9.88701e-14
9.87882e-14
9.90065e-14
9.89358e-14
9.91005e-14
9.9009e-14
9.92365e-14
9.91201e-14
9.9331e-14
9.9269e-14
9.94686e-14
9.93711e-14
9.95927e-14
9.94818e-14
9.97326e-14
9.96284e-14
9.98323e-14
9.97557e-14
9.99468e-14
9.98364e-14
1.00075e-13
9.99523e-14
1.0022e-13
1.00047e-13
1.00382e-13
1.00174e-13
1.0048e-13
1.00306e-13
1.00569e-13
1.00442e-13
1.00621e-13
1.00585e-13
1.00716e-13
1.00681e-13
1.00932e-13
1.00811e-13
1.01111e-13
1.00946e-13
1.01176e-13
1.01061e-13
1.01285e-13
1.01182e-13
1.01387e-13
1.01312e-13
1.01506e-13
1.01449e-13
1.0159e-13
1.01568e-13
1.01718e-13
1.01698e-13
1.01837e-13
1.01838e-13
1.01974e-13
1.01912e-13
1.02104e-13
1.01996e-13
1.02255e-13
1.02089e-13
1.02301e-13
1.02192e-13
1.02344e-13
1.02333e-13
1.02534e-13
1.02434e-13
1.02646e-13
1.02547e-13
1.02705e-13
1.02673e-13
1.02861e-13
1.02763e-13
1.03039e-13
1.02864e-13
1.03191e-13
1.02975e-13
1.03247e-13
1.03097e-13
1.03303e-13
1.03257e-13
1.0348e-13
1.03428e-13
1.03584e-13
1.03516e-13
1.03709e-13
1.03663e-13
1.03834e-13
1.03821e-13
1.0398e-13
1.03942e-13
1.04099e-13
1.04028e-13
1.04285e-13
1.04168e-13
1.04425e-13
1.0429e-13
1.04496e-13
1.04421e-13
1.04543e-13
1.04539e-13
1.04631e-13
1.04646e-13
1.0476e-13
1.04763e-13
1.04793e-13
1.04779e-13
1.04931e-13
1.04825e-13
1.05066e-13
1.04874e-13
1.05114e-13
1.04949e-13
1.05052e-13
7.56286e-14
7.83763e-14
7.56288e-14
7.83764e-14
7.56291e-14
7.83765e-14
7.56297e-14
7.83767e-14
7.56305e-14
7.83769e-14
7.56315e-14
7.83772e-14
7.56327e-14
7.83776e-14
7.56342e-14
7.8378e-14
7.56359e-14
7.83785e-14
7.56378e-14
7.83791e-14
7.564e-14
7.83797e-14
7.56424e-14
7.83804e-14
7.56451e-14
7.83812e-14
7.5648e-14
7.83821e-14
7.56511e-14
7.8383e-14
7.56545e-14
7.8384e-14
7.56581e-14
7.8385e-14
7.56618e-14
7.83862e-14
7.56658e-14
7.83874e-14
7.567e-14
7.83887e-14
7.56745e-14
7.83901e-14
7.56791e-14
7.83915e-14
7.5684e-14
7.83931e-14
7.56891e-14
7.83946e-14
7.56945e-14
7.83963e-14
7.57e-14
7.8398e-14
7.57058e-14
7.83998e-14
7.57118e-14
7.84016e-14
7.5718e-14
7.84036e-14
7.57243e-14
7.84056e-14
7.5731e-14
7.84077e-14
7.57379e-14
7.84099e-14
7.5745e-14
7.84121e-14
7.57523e-14
7.84144e-14
7.57598e-14
7.84167e-14
7.57676e-14
7.84192e-14
7.57755e-14
7.84217e-14
7.57837e-14
7.84242e-14
7.57921e-14
7.84269e-14
7.58008e-14
7.84295e-14
7.58096e-14
7.84321e-14
7.58185e-14
7.84348e-14
7.58277e-14
7.84376e-14
7.58371e-14
7.84406e-14
7.58467e-14
7.84436e-14
7.58565e-14
7.84465e-14
7.58665e-14
7.84497e-14
7.58766e-14
7.84529e-14
7.58869e-14
7.84561e-14
7.58976e-14
7.84595e-14
7.59084e-14
7.84629e-14
7.59192e-14
7.84664e-14
7.59302e-14
7.847e-14
7.59415e-14
7.84737e-14
7.5953e-14
7.84775e-14
7.59646e-14
7.84815e-14
7.59764e-14
7.84856e-14
7.59884e-14
7.84896e-14
7.60005e-14
7.84936e-14
7.60129e-14
7.84978e-14
7.60255e-14
7.85022e-14
7.60383e-14
7.85067e-14
7.60512e-14
7.85112e-14
7.60644e-14
7.85157e-14
7.60777e-14
7.85204e-14
7.60913e-14
7.85252e-14
7.61049e-14
7.85301e-14
7.61187e-14
7.8535e-14
7.61328e-14
7.854e-14
7.61472e-14
7.85448e-14
7.61615e-14
7.85498e-14
7.61761e-14
7.85549e-14
7.61908e-14
7.856e-14
7.62056e-14
7.85653e-14
7.62205e-14
7.85707e-14
7.62357e-14
7.85764e-14
7.62511e-14
7.8582e-14
7.62666e-14
7.85877e-14
7.62821e-14
7.85937e-14
7.62978e-14
7.85997e-14
7.63137e-14
7.86057e-14
7.63299e-14
7.86117e-14
7.63461e-14
7.86179e-14
7.63623e-14
7.86242e-14
7.63788e-14
7.86308e-14
7.63954e-14
7.86372e-14
7.64121e-14
7.86439e-14
7.6429e-14
7.86506e-14
7.64461e-14
7.86573e-14
7.64631e-14
7.86642e-14
7.64803e-14
7.86714e-14
7.64978e-14
7.86786e-14
7.65153e-14
7.86857e-14
7.65328e-14
7.86929e-14
7.65507e-14
7.87003e-14
7.65687e-14
7.87079e-14
7.65869e-14
7.87155e-14
7.66048e-14
7.87232e-14
7.66233e-14
7.8731e-14
7.6642e-14
7.87389e-14
7.66607e-14
7.87469e-14
7.66793e-14
7.8755e-14
7.66983e-14
7.87632e-14
7.67173e-14
7.87717e-14
7.67363e-14
7.87805e-14
7.67553e-14
7.87892e-14
7.67747e-14
7.87978e-14
7.67943e-14
7.88069e-14
7.6814e-14
7.88162e-14
7.68337e-14
7.88253e-14
7.68538e-14
7.88345e-14
7.68737e-14
7.88441e-14
7.68939e-14
7.8854e-14
7.69143e-14
7.88638e-14
7.69347e-14
7.88736e-14
7.69554e-14
7.88837e-14
7.69764e-14
7.88937e-14
7.69971e-14
7.89038e-14
7.70181e-14
7.89141e-14
7.70394e-14
7.89245e-14
7.70607e-14
7.89348e-14
7.70821e-14
7.89452e-14
7.71039e-14
7.8956e-14
7.71254e-14
7.89671e-14
7.71469e-14
7.89784e-14
7.71689e-14
7.89896e-14
7.71911e-14
7.90009e-14
7.72135e-14
7.90124e-14
7.72355e-14
7.90242e-14
7.72582e-14
7.90359e-14
7.72811e-14
7.9048e-14
7.73041e-14
7.90603e-14
7.73271e-14
7.90726e-14
7.73504e-14
7.90848e-14
7.73738e-14
7.90971e-14
7.73972e-14
7.91095e-14
7.74207e-14
7.91222e-14
7.74447e-14
7.91355e-14
7.74685e-14
7.91489e-14
7.74925e-14
7.9162e-14
7.75164e-14
7.91753e-14
7.75406e-14
7.91889e-14
7.75648e-14
7.9203e-14
7.75886e-14
7.92171e-14
7.76127e-14
7.92312e-14
7.76366e-14
7.92459e-14
7.76608e-14
7.92613e-14
7.76854e-14
7.92767e-14
7.77099e-14
7.92924e-14
7.77347e-14
7.93079e-14
7.77591e-14
7.93245e-14
7.77837e-14
7.93416e-14
7.7809e-14
7.93588e-14
7.78337e-14
7.93762e-14
7.78591e-14
7.9393e-14
7.78849e-14
7.94102e-14
7.79106e-14
7.9428e-14
7.79362e-14
7.94459e-14
7.79617e-14
7.94644e-14
7.79873e-14
7.94831e-14
7.80135e-14
7.95014e-14
7.80399e-14
7.95202e-14
7.80663e-14
7.95387e-14
7.80928e-14
7.95574e-14
7.81195e-14
7.95766e-14
7.81461e-14
7.95956e-14
7.81732e-14
7.96144e-14
7.82003e-14
7.96333e-14
7.82278e-14
7.96523e-14
7.82551e-14
7.96717e-14
7.82838e-14
7.96917e-14
7.83116e-14
7.97117e-14
7.83396e-14
7.97315e-14
7.83677e-14
7.97516e-14
7.83959e-14
7.97718e-14
7.84242e-14
7.97926e-14
7.8453e-14
7.98139e-14
7.84817e-14
7.98348e-14
7.85105e-14
7.98556e-14
7.85398e-14
7.98769e-14
7.85686e-14
7.98979e-14
7.85968e-14
7.99193e-14
7.86249e-14
7.99413e-14
7.86543e-14
7.99626e-14
7.8683e-14
7.99847e-14
7.87119e-14
8.00072e-14
7.87411e-14
8.003e-14
7.87704e-14
8.00521e-14
7.88003e-14
8.00747e-14
7.88304e-14
8.00975e-14
7.88604e-14
8.01208e-14
7.88907e-14
8.01437e-14
7.89215e-14
8.01666e-14
7.89525e-14
8.0191e-14
7.8983e-14
8.02162e-14
7.90137e-14
8.02404e-14
7.90449e-14
8.02637e-14
7.90764e-14
8.0288e-14
7.91077e-14
8.03131e-14
7.91392e-14
8.03372e-14
7.9171e-14
8.03609e-14
7.92026e-14
8.03859e-14
7.92344e-14
8.04108e-14
7.92663e-14
8.04356e-14
7.92977e-14
8.04614e-14
7.93291e-14
8.04874e-14
7.93608e-14
8.05141e-14
7.93923e-14
8.05406e-14
7.94239e-14
8.05673e-14
7.94555e-14
8.05939e-14
7.94873e-14
8.06204e-14
7.95191e-14
8.06465e-14
7.95504e-14
8.06721e-14
7.95822e-14
8.0699e-14
7.96149e-14
8.07263e-14
7.96474e-14
8.07527e-14
7.96798e-14
8.07786e-14
7.97114e-14
8.08058e-14
7.97433e-14
8.08331e-14
7.9775e-14
8.08597e-14
7.98068e-14
8.08867e-14
7.98386e-14
8.09139e-14
7.98705e-14
8.09403e-14
7.99026e-14
8.09669e-14
7.99346e-14
8.09939e-14
7.99665e-14
8.10215e-14
7.99984e-14
8.10495e-14
8.00305e-14
8.10768e-14
8.00626e-14
8.11039e-14
8.00943e-14
8.11301e-14
8.0126e-14
8.11578e-14
8.01577e-14
8.11868e-14
8.01899e-14
8.12149e-14
8.02221e-14
8.12426e-14
8.02535e-14
8.12706e-14
8.02847e-14
8.12985e-14
8.03167e-14
8.13267e-14
8.03474e-14
8.13552e-14
8.03784e-14
8.13841e-14
8.04092e-14
8.14118e-14
8.04388e-14
8.14388e-14
8.04698e-14
8.14667e-14
8.05e-14
8.14959e-14
8.05301e-14
8.15245e-14
8.05601e-14
8.15538e-14
8.05899e-14
8.15841e-14
8.06206e-14
8.16126e-14
8.06501e-14
8.16419e-14
8.06811e-14
8.16711e-14
8.0713e-14
8.16996e-14
8.07438e-14
8.17273e-14
8.07725e-14
8.17559e-14
8.08011e-14
8.17849e-14
8.08302e-14
8.18136e-14
8.08592e-14
8.18416e-14
8.08877e-14
8.18705e-14
8.09167e-14
8.18982e-14
8.09452e-14
8.19257e-14
8.09736e-14
8.1954e-14
8.10021e-14
8.19811e-14
8.10297e-14
8.20095e-14
8.10572e-14
8.20383e-14
8.10848e-14
8.20658e-14
8.11115e-14
8.20927e-14
8.11383e-14
8.21199e-14
8.11651e-14
8.21479e-14
8.11921e-14
8.21753e-14
8.12177e-14
8.22019e-14
8.12444e-14
8.22294e-14
8.12703e-14
8.22557e-14
8.12963e-14
8.22833e-14
8.13224e-14
8.23107e-14
8.13483e-14
8.23379e-14
8.13738e-14
8.23654e-14
8.14005e-14
8.23923e-14
8.14265e-14
8.24195e-14
8.14513e-14
8.2446e-14
8.14767e-14
8.24733e-14
8.15019e-14
8.24991e-14
8.15274e-14
8.25247e-14
8.15531e-14
8.25502e-14
8.15787e-14
8.25773e-14
8.16036e-14
8.26052e-14
8.16293e-14
8.26316e-14
8.16543e-14
8.26569e-14
8.16797e-14
8.26835e-14
8.17045e-14
8.27095e-14
8.17287e-14
8.27357e-14
8.17528e-14
8.27615e-14
8.17769e-14
8.27866e-14
8.18013e-14
8.28103e-14
8.18239e-14
8.28357e-14
8.1846e-14
8.28605e-14
8.18685e-14
8.28848e-14
8.18911e-14
8.29082e-14
8.19149e-14
8.29328e-14
8.19387e-14
8.29581e-14
8.19599e-14
8.29834e-14
8.19816e-14
8.30082e-14
8.20038e-14
8.3032e-14
8.20256e-14
8.3055e-14
8.20475e-14
8.30788e-14
8.20699e-14
8.31021e-14
8.20911e-14
8.31254e-14
8.21112e-14
8.31487e-14
8.21322e-14
8.31711e-14
8.21538e-14
8.31927e-14
8.21755e-14
8.32148e-14
8.21978e-14
8.3236e-14
8.22222e-14
8.32565e-14
8.22448e-14
8.32778e-14
8.22672e-14
8.32975e-14
8.22909e-14
8.33165e-14
8.23129e-14
8.33363e-14
8.23363e-14
8.33562e-14
8.23571e-14
8.33762e-14
8.23778e-14
8.3397e-14
8.23999e-14
8.34164e-14
8.24212e-14
8.34343e-14
8.24415e-14
8.34523e-14
8.2461e-14
8.34712e-14
8.24797e-14
8.34895e-14
8.24975e-14
8.35056e-14
8.25176e-14
8.35212e-14
8.25384e-14
8.35376e-14
8.25592e-14
8.35535e-14
8.25792e-14
8.35681e-14
8.25992e-14
8.35814e-14
8.26193e-14
8.35949e-14
8.26386e-14
8.36093e-14
8.26601e-14
8.36218e-14
8.26803e-14
8.36345e-14
8.26998e-14
8.36482e-14
8.27194e-14
8.36614e-14
8.27391e-14
8.36755e-14
8.27589e-14
8.36892e-14
8.27788e-14
8.37017e-14
8.27982e-14
8.37138e-14
8.28177e-14
8.37269e-14
8.28395e-14
8.37389e-14
8.28587e-14
8.37504e-14
8.28767e-14
8.37637e-14
8.28956e-14
8.37765e-14
8.29147e-14
8.37877e-14
8.29334e-14
8.37977e-14
8.29537e-14
8.38088e-14
8.29743e-14
8.38209e-14
8.29925e-14
8.38327e-14
8.30117e-14
8.38428e-14
8.30319e-14
8.38526e-14
8.30517e-14
8.38615e-14
8.30686e-14
8.38701e-14
8.30859e-14
8.38797e-14
8.31029e-14
8.38884e-14
8.31197e-14
8.38969e-14
8.31356e-14
8.39057e-14
8.31513e-14
8.39157e-14
8.31681e-14
8.3926e-14
8.31835e-14
8.39362e-14
8.3198e-14
8.39462e-14
8.32131e-14
8.39541e-14
8.32287e-14
8.39612e-14
8.32447e-14
8.39694e-14
8.32601e-14
8.39782e-14
8.32753e-14
8.39855e-14
8.32899e-14
8.39928e-14
8.33063e-14
8.4e-14
8.33233e-14
8.4007e-14
8.33378e-14
8.40153e-14
8.33529e-14
8.40234e-14
8.3368e-14
8.40328e-14
8.33825e-14
8.4042e-14
8.33959e-14
8.40489e-14
8.34099e-14
8.40563e-14
8.3424e-14
8.40643e-14
8.34377e-14
8.40729e-14
8.34519e-14
8.40809e-14
8.34658e-14
8.40883e-14
8.34797e-14
8.40982e-14
8.34973e-14
8.41104e-14
8.3512e-14
8.41198e-14
8.35264e-14
8.41292e-14
8.35409e-14
8.41404e-14
8.35556e-14
8.41489e-14
8.35687e-14
8.41586e-14
8.35843e-14
8.41701e-14
8.3599e-14
8.41824e-14
8.36144e-14
8.41942e-14
8.36317e-14
8.42044e-14
8.36481e-14
8.4216e-14
8.36653e-14
8.42283e-14
8.36822e-14
8.4239e-14
8.36987e-14
8.42506e-14
8.37161e-14
8.4264e-14
8.37331e-14
8.42794e-14
8.37476e-14
8.42944e-14
8.37629e-14
8.43079e-14
8.37767e-14
8.43246e-14
8.37891e-14
8.4341e-14
8.38034e-14
8.4356e-14
8.38163e-14
8.43708e-14
8.38357e-14
8.43842e-14
8.38536e-14
8.43962e-14
8.38701e-14
8.44092e-14
8.38909e-14
8.4422e-14
8.39068e-14
8.44359e-14
8.39282e-14
8.44495e-14
8.39469e-14
8.44642e-14
8.39689e-14
8.44787e-14
8.39895e-14
8.44955e-14
8.40086e-14
8.45122e-14
8.40334e-14
8.45288e-14
8.40567e-14
8.45465e-14
8.40798e-14
8.4563e-14
8.41051e-14
8.45758e-14
8.41278e-14
8.4591e-14
8.41539e-14
8.46073e-14
8.41773e-14
8.46236e-14
8.42018e-14
8.46425e-14
8.42273e-14
8.46613e-14
8.42513e-14
8.46801e-14
8.4275e-14
8.46964e-14
8.42985e-14
8.47153e-14
8.43231e-14
8.47329e-14
8.43474e-14
8.47505e-14
8.43713e-14
8.47709e-14
8.43963e-14
8.47914e-14
8.44196e-14
8.48163e-14
8.44439e-14
8.48442e-14
8.44692e-14
8.4868e-14
8.44955e-14
8.48905e-14
8.45213e-14
8.49192e-14
8.45466e-14
8.49483e-14
8.45745e-14
8.49729e-14
8.46081e-14
8.50026e-14
8.46445e-14
8.50359e-14
8.46771e-14
8.50679e-14
8.47091e-14
8.51003e-14
8.47421e-14
8.51365e-14
8.47745e-14
8.51785e-14
8.48096e-14
8.52193e-14
8.48476e-14
8.52589e-14
8.48792e-14
8.52991e-14
8.49155e-14
8.53457e-14
8.49566e-14
8.53892e-14
8.50027e-14
8.54235e-14
8.50478e-14
8.54705e-14
8.50919e-14
8.55245e-14
8.51413e-14
8.55732e-14
8.51873e-14
8.56226e-14
8.52344e-14
8.5673e-14
8.52869e-14
8.57197e-14
8.53358e-14
8.57741e-14
8.53927e-14
8.58342e-14
8.54482e-14
8.58954e-14
8.55022e-14
8.59502e-14
8.55621e-14
8.60109e-14
8.56255e-14
8.60701e-14
8.56847e-14
8.61382e-14
8.57447e-14
8.62021e-14
8.58028e-14
8.62807e-14
8.58644e-14
8.63552e-14
8.59294e-14
8.64195e-14
8.59922e-14
8.64734e-14
8.60496e-14
8.65399e-14
8.61135e-14
8.66013e-14
8.61747e-14
8.6673e-14
8.6233e-14
8.67521e-14
8.62914e-14
8.6839e-14
8.63627e-14
8.6924e-14
8.6434e-14
8.7014e-14
8.64982e-14
8.7109e-14
8.65758e-14
8.7199e-14
8.66634e-14
8.72873e-14
8.67471e-14
8.73811e-14
8.68302e-14
8.74915e-14
8.69237e-14
8.75932e-14
8.70277e-14
8.76897e-14
8.7135e-14
8.77922e-14
8.72455e-14
8.7897e-14
8.73674e-14
8.80202e-14
8.74806e-14
8.81217e-14
8.7593e-14
8.82256e-14
8.77047e-14
8.83402e-14
8.78111e-14
8.84488e-14
8.79294e-14
8.85598e-14
8.80509e-14
8.86955e-14
8.81847e-14
8.88119e-14
8.83129e-14
8.89175e-14
8.84171e-14
8.90394e-14
8.85337e-14
8.91503e-14
8.86724e-14
8.92687e-14
8.87955e-14
8.93755e-14
8.89416e-14
8.94896e-14
8.90915e-14
8.95915e-14
8.92059e-14
8.97005e-14
8.93342e-14
8.98067e-14
8.94665e-14
8.99304e-14
8.95823e-14
9.0072e-14
8.97019e-14
9.02214e-14
8.98253e-14
9.03475e-14
8.99526e-14
9.04497e-14
9.00623e-14
9.06032e-14
9.01865e-14
9.0755e-14
9.03033e-14
9.0883e-14
9.04126e-14
9.0987e-14
9.05141e-14
9.10776e-14
9.06079e-14
9.12003e-14
9.06936e-14
9.1333e-14
9.0829e-14
9.14064e-14
9.09802e-14
9.14779e-14
9.10772e-14
9.15823e-14
9.12145e-14
9.16966e-14
9.13571e-14
9.17971e-14
9.15054e-14
9.19197e-14
9.15985e-14
9.20649e-14
9.17341e-14
9.22214e-14
9.1863e-14
9.23273e-14
9.19853e-14
9.24446e-14
9.21138e-14
9.25609e-14
9.22234e-14
9.27146e-14
9.23519e-14
9.28171e-14
9.25257e-14
9.29452e-14
9.26423e-14
9.30991e-14
9.27921e-14
9.32401e-14
9.29364e-14
9.33553e-14
9.31021e-14
9.34575e-14
9.32768e-14
9.35996e-14
9.34345e-14
9.37954e-14
9.3588e-14
9.39654e-14
9.37239e-14
9.41234e-14
9.38689e-14
9.42972e-14
9.40094e-14
9.44331e-14
9.41316e-14
9.45855e-14
9.42627e-14
9.47553e-14
9.4361e-14
9.49296e-14
9.44948e-14
9.51237e-14
9.46221e-14
9.52688e-14
9.47565e-14
9.54068e-14
9.48841e-14
9.55378e-14
9.5019e-14
9.56339e-14
9.51331e-14
9.57793e-14
9.52405e-14
9.59182e-14
9.5412e-14
9.60226e-14
9.55631e-14
9.61064e-14
9.568e-14
9.61689e-14
9.58208e-14
9.62953e-14
9.59426e-14
9.63847e-14
9.60169e-14
9.64656e-14
9.61155e-14
9.65523e-14
9.62095e-14
9.66157e-14
9.63138e-14
9.66555e-14
9.64291e-14
9.67577e-14
9.65555e-14
9.69079e-14
9.66492e-14
9.70343e-14
9.67532e-14
9.71083e-14
9.6868e-14
9.72749e-14
9.69784e-14
9.74331e-14
9.70983e-14
9.754e-14
9.72135e-14
9.77135e-14
9.73524e-14
9.79111e-14
9.74851e-14
9.80606e-14
9.75818e-14
9.81916e-14
9.77005e-14
9.82611e-14
9.7812e-14
9.84297e-14
9.793e-14
9.86546e-14
9.80383e-14
9.88056e-14
9.81508e-14
9.89424e-14
9.82816e-14
9.89927e-14
9.8388e-14
9.90869e-14
9.84851e-14
9.92538e-14
9.86005e-14
9.93921e-14
9.87044e-14
9.94874e-14
9.88403e-14
9.95833e-14
9.89795e-14
9.97375e-14
9.90777e-14
9.98491e-14
9.91778e-14
9.99191e-14
9.92943e-14
1.00005e-13
9.94564e-14
1.00163e-13
9.95915e-14
1.00294e-13
9.97138e-14
1.00368e-13
9.98672e-14
1.00443e-13
9.99668e-14
1.00574e-13
1.00041e-13
1.00677e-13
1.00175e-13