/*--------------------------------*- C++ -*----------------------------------*\
| =========                 |                                                 |
| \\      /  F ield         | OpenFOAM: The Open Source CFD Toolbox           |
|  \\    /   O peration     | Version:  2012                                  |
|   \\  /    A nd           | Website:  www.openfoam.com                      |
|    \\/     M anipulation  |                                                 |
\*---------------------------------------------------------------------------*/
FoamFile
{
    version     2.0;
    format      ascii;
    class       volVectorField;
    location    "10000";
    object      U;
}
// * * * * * * * * * * * * * * * * * * * * * * * * * * * * * * * * * * * * * //

dimensions      [0 1 -1 0 0 0 0];


internalField   nonuniform List<vector> 
5120
(
(0.00123874 -1.09934e-15 -1.345e-17)
(0.00123874 1.02034e-19 -2.6927e-22)
(0.00372499 -4.31436e-15 -5.12151e-17)
(0.00372499 -3.32159e-19 -6.35781e-22)
(0.0062289 -4.10709e-15 -5.45704e-17)
(0.0062289 -4.20549e-19 -1.33306e-21)
(0.00875044 -3.7794e-15 -5.4121e-17)
(0.00875044 -6.52241e-19 -1.63186e-21)
(0.0112895 -3.83184e-15 -5.41139e-17)
(0.0112895 -8.85409e-19 -1.90552e-21)
(0.0138462 -3.84505e-15 -5.49537e-17)
(0.0138462 -1.12119e-18 -2.20799e-21)
(0.0164203 -3.85098e-15 -5.6253e-17)
(0.0164203 -1.35697e-18 -2.4899e-21)
(0.0190118 -3.85083e-15 -5.75768e-17)
(0.0190118 -1.59629e-18 -2.78176e-21)
(0.0216206 -3.85007e-15 -5.89251e-17)
(0.0216206 -1.84044e-18 -3.06709e-21)
(0.0242468 -3.84978e-15 -6.0298e-17)
(0.0242468 -2.09262e-18 -3.36263e-21)
(0.0268903 -3.84951e-15 -6.16948e-17)
(0.0268903 -2.3398e-18 -3.70814e-21)
(0.0295509 -3.84917e-15 -6.31154e-17)
(0.0295509 -2.59452e-18 -4.01302e-21)
(0.0322287 -3.84878e-15 -6.45599e-17)
(0.0322287 -2.85758e-18 -4.34184e-21)
(0.0349236 -3.84837e-15 -6.60285e-17)
(0.0349236 -3.11428e-18 -4.72294e-21)
(0.0376355 -3.84795e-15 -6.75215e-17)
(0.0376355 -3.38564e-18 -5.02339e-21)
(0.0403643 -3.8475e-15 -6.90394e-17)
(0.0403643 -3.65797e-18 -5.36144e-21)
(0.04311 -3.84706e-15 -7.05823e-17)
(0.04311 -3.91642e-18 -5.78316e-21)
(0.0458726 -3.84664e-15 -7.21507e-17)
(0.0458726 -4.17363e-18 -6.12156e-21)
(0.0486519 -3.8462e-15 -7.3745e-17)
(0.0486519 -4.43885e-18 -6.35294e-21)
(0.0514479 -3.84576e-15 -7.53655e-17)
(0.0514479 -4.70224e-18 -6.63436e-21)
(0.0542606 -3.84532e-15 -7.70127e-17)
(0.0542606 -4.97634e-18 -7.01689e-21)
(0.0570898 -3.84487e-15 -7.8687e-17)
(0.0570898 -5.24683e-18 -7.40736e-21)
(0.0599355 -3.84443e-15 -8.03887e-17)
(0.0599355 -5.52368e-18 -7.89861e-21)
(0.0627976 -3.84397e-15 -8.21184e-17)
(0.0627976 -5.82266e-18 -8.28153e-21)
(0.0656761 -3.84351e-15 -8.38763e-17)
(0.0656761 -6.1117e-18 -8.49775e-21)
(0.0685708 -3.84303e-15 -8.5663e-17)
(0.0685708 -6.41179e-18 -8.93764e-21)
(0.0714817 -3.84257e-15 -8.74788e-17)
(0.0714817 -6.68979e-18 -9.36627e-21)
(0.0744087 -3.84211e-15 -8.93241e-17)
(0.0744087 -6.97319e-18 -1.00042e-20)
(0.0773518 -3.84162e-15 -9.11994e-17)
(0.0773518 -7.28326e-18 -1.05288e-20)
(0.0803109 -3.84111e-15 -9.31051e-17)
(0.0803109 -7.60791e-18 -1.08912e-20)
(0.0832858 -3.84062e-15 -9.50417e-17)
(0.0832858 -7.94568e-18 -1.10509e-20)
(0.0862766 -3.84012e-15 -9.70096e-17)
(0.0862766 -8.23749e-18 -1.12715e-20)
(0.0892831 -3.83961e-15 -9.90093e-17)
(0.0892831 -8.53057e-18 -1.17659e-20)
(0.0923052 -3.83913e-15 -1.01041e-16)
(0.0923052 -8.81232e-18 -1.20726e-20)
(0.095343 -3.83865e-15 -1.03106e-16)
(0.095343 -9.10082e-18 -1.24851e-20)
(0.0983962 -3.83816e-15 -1.05204e-16)
(0.0983962 -9.41162e-18 -1.31335e-20)
(0.101465 -3.83764e-15 -1.07336e-16)
(0.101465 -9.7311e-18 -1.36105e-20)
(0.104549 -3.8371e-15 -1.09502e-16)
(0.104549 -1.00606e-17 -1.38735e-20)
(0.107648 -3.83656e-15 -1.11702e-16)
(0.107648 -1.03696e-17 -1.4044e-20)
(0.110762 -3.83604e-15 -1.13938e-16)
(0.110762 -1.06841e-17 -1.44903e-20)
(0.113892 -3.83549e-15 -1.16209e-16)
(0.113892 -1.10191e-17 -1.47025e-20)
(0.117036 -3.83492e-15 -1.18516e-16)
(0.117036 -1.13512e-17 -1.49647e-20)
(0.120195 -3.83436e-15 -1.20859e-16)
(0.120195 -1.16819e-17 -1.53197e-20)
(0.123369 -3.8338e-15 -1.2324e-16)
(0.123369 -1.20348e-17 -1.58471e-20)
(0.126558 -3.83324e-15 -1.25658e-16)
(0.126558 -1.23914e-17 -1.60884e-20)
(0.129762 -3.83268e-15 -1.28115e-16)
(0.129762 -1.27491e-17 -1.66046e-20)
(0.13298 -3.83211e-15 -1.3061e-16)
(0.13298 -1.31248e-17 -1.74137e-20)
(0.136212 -3.83155e-15 -1.33144e-16)
(0.136212 -1.3493e-17 -1.78248e-20)
(0.139459 -3.83098e-15 -1.35718e-16)
(0.139459 -1.38572e-17 -1.78724e-20)
(0.14272 -3.83043e-15 -1.38332e-16)
(0.14272 -1.42345e-17 -1.77328e-20)
(0.145995 -3.8299e-15 -1.40987e-16)
(0.145995 -1.45558e-17 -1.86632e-20)
(0.149284 -3.82938e-15 -1.43683e-16)
(0.149284 -1.48094e-17 -1.87841e-20)
(0.152588 -3.82886e-15 -1.46422e-16)
(0.152588 -1.51213e-17 -1.8992e-20)
(0.155905 -3.82831e-15 -1.49202e-16)
(0.155905 -1.54419e-17 -1.93408e-20)
(0.159236 -3.82771e-15 -1.52026e-16)
(0.159236 -1.58228e-17 -1.96235e-20)
(0.162581 -3.82712e-15 -1.54893e-16)
(0.162581 -1.62321e-17 -2.02139e-20)
(0.165939 -3.82651e-15 -1.57804e-16)
(0.165939 -1.65629e-17 -2.05808e-20)
(0.169311 -3.82588e-15 -1.60759e-16)
(0.169311 -1.69739e-17 -2.00258e-20)
(0.172696 -3.82525e-15 -1.6376e-16)
(0.172696 -1.74059e-17 -2.0117e-20)
(0.176094 -3.82462e-15 -1.66806e-16)
(0.176094 -1.77345e-17 -2.18266e-20)
(0.179506 -3.82402e-15 -1.69898e-16)
(0.179506 -1.80826e-17 -2.25388e-20)
(0.182931 -3.82342e-15 -1.73037e-16)
(0.182931 -1.84905e-17 -2.0973e-20)
(0.186368 -3.8228e-15 -1.76224e-16)
(0.186368 -1.88382e-17 -2.09862e-20)
(0.189819 -3.82213e-15 -1.79457e-16)
(0.189819 -1.9176e-17 -2.18987e-20)
(0.193282 -3.82145e-15 -1.8274e-16)
(0.193282 -1.95937e-17 -2.21222e-20)
(0.196758 -3.82075e-15 -1.8607e-16)
(0.196758 -2.00161e-17 -2.26679e-20)
(0.200247 -3.82004e-15 -1.8945e-16)
(0.200247 -2.04658e-17 -2.3972e-20)
(0.203748 -3.81929e-15 -1.9288e-16)
(0.203748 -2.09251e-17 -2.41971e-20)
(0.207261 -3.81841e-15 -1.96359e-16)
(0.207261 -2.13779e-17 -2.41811e-20)
(0.210786 -3.81752e-15 -1.99888e-16)
(0.210786 -2.19151e-17 -2.41437e-20)
(0.214323 -3.81671e-15 -2.03468e-16)
(0.214323 -2.25308e-17 -2.3622e-20)
(0.217873 -3.816e-15 -2.07099e-16)
(0.217873 -2.29788e-17 -2.29077e-20)
(0.221434 -3.8154e-15 -2.10781e-16)
(0.221434 -2.32723e-17 -2.34362e-20)
(0.225006 -3.81475e-15 -2.14514e-16)
(0.225006 -2.36444e-17 -2.29596e-20)
(0.228591 -3.81406e-15 -2.183e-16)
(0.228591 -2.40111e-17 -2.24033e-20)
(0.232186 -3.81339e-15 -2.22138e-16)
(0.232186 -2.4356e-17 -2.17047e-20)
(0.235793 -3.81271e-15 -2.26028e-16)
(0.235793 -2.4702e-17 -2.13497e-20)
(0.239411 -3.81201e-15 -2.29972e-16)
(0.239411 -2.50974e-17 -2.08576e-20)
(0.243039 -3.81126e-15 -2.33969e-16)
(0.243039 -2.54982e-17 -1.96862e-20)
(0.246679 -3.81049e-15 -2.38019e-16)
(0.246679 -2.59516e-17 -1.9539e-20)
(0.250329 -3.80969e-15 -2.42123e-16)
(0.250329 -2.6399e-17 -1.9941e-20)
(0.253989 -3.8088e-15 -2.4628e-16)
(0.253989 -2.69098e-17 -2.04815e-20)
(0.25766 -3.8079e-15 -2.50492e-16)
(0.25766 -2.74344e-17 -1.8498e-20)
(0.261341 -3.807e-15 -2.54757e-16)
(0.261341 -2.80322e-17 -1.55008e-20)
(0.265032 -3.80612e-15 -2.59064e-16)
(0.265032 -2.86054e-17 -1.61783e-20)
(0.268732 -3.80538e-15 -2.63171e-16)
(0.268732 -2.89222e-17 -1.87892e-20)
(0.272442 -3.80469e-15 -2.67329e-16)
(0.272442 -2.93021e-17 -1.81176e-20)
(0.276161 -3.80383e-15 -2.71537e-16)
(0.276161 -2.98401e-17 -1.60577e-20)
(0.27989 -3.80292e-15 -2.75795e-16)
(0.27989 -3.05069e-17 -1.58212e-20)
(0.283627 -3.80206e-15 -2.801e-16)
(0.283627 -3.10691e-17 -1.70534e-20)
(0.287373 -3.80111e-15 -2.84456e-16)
(0.287373 -3.1596e-17 -1.93903e-20)
(0.291128 -3.80019e-15 -2.88861e-16)
(0.291128 -3.22027e-17 -1.81541e-20)
(0.29489 -3.79918e-15 -2.93313e-16)
(0.29489 -3.28182e-17 -1.561e-20)
(0.298661 -3.79815e-15 -2.97816e-16)
(0.298661 -3.34671e-17 -1.48384e-20)
(0.30244 -3.79719e-15 -3.02363e-16)
(0.30244 -3.39926e-17 -1.61505e-20)
(0.306226 -3.7963e-15 -3.06959e-16)
(0.306226 -3.44181e-17 -1.84614e-20)
(0.31002 -3.79534e-15 -3.11606e-16)
(0.31002 -3.50469e-17 -1.79326e-20)
(0.31382 -3.79418e-15 -3.16297e-16)
(0.31382 -3.58868e-17 -1.59104e-20)
(0.317628 -3.79333e-15 -3.21034e-16)
(0.317628 -3.63382e-17 -1.33416e-20)
(0.321442 -3.79267e-15 -3.25819e-16)
(0.321442 -3.64607e-17 -1.40521e-20)
(0.325262 -3.79201e-15 -3.30649e-16)
(0.325262 -3.66412e-17 -1.06356e-20)
(0.329088 -3.79127e-15 -3.35528e-16)
(0.329088 -3.69825e-17 -6.55358e-21)
(0.33292 -3.7905e-15 -3.40451e-16)
(0.33292 -3.73795e-17 -4.65667e-21)
(0.336758 -3.78966e-15 -3.45418e-16)
(0.336758 -3.77754e-17 -5.12891e-21)
(0.3406 -3.78854e-15 -3.50435e-16)
(0.3406 -3.82226e-17 -4.05021e-21)
(0.344448 -3.78753e-15 -3.55487e-16)
(0.344448 -3.86261e-17 -3.63401e-22)
(0.3483 -3.7867e-15 -3.60588e-16)
(0.3483 -3.90906e-17 2.84627e-21)
(0.352156 -3.78578e-15 -3.6573e-16)
(0.352156 -3.96331e-17 6.1742e-21)
(0.356016 -3.7848e-15 -3.70919e-16)
(0.356016 -4.01065e-17 1.00728e-20)
(0.35988 -3.78378e-15 -3.76149e-16)
(0.35988 -4.06185e-17 1.05493e-20)
(0.363748 -3.78266e-15 -3.81418e-16)
(0.363748 -4.11795e-17 1.25184e-20)
(0.367618 -3.78149e-15 -3.8673e-16)
(0.367618 -4.17812e-17 1.57879e-20)
(0.371491 -3.78038e-15 -3.9208e-16)
(0.371491 -4.23525e-17 1.8855e-20)
(0.375367 -3.7791e-15 -3.97474e-16)
(0.375367 -4.29849e-17 2.16921e-20)
(0.379244 -3.77786e-15 -4.02903e-16)
(0.379244 -4.36396e-17 2.39789e-20)
(0.383123 -3.77681e-15 -4.08368e-16)
(0.383123 -4.41585e-17 2.55559e-20)
(0.387004 -3.77579e-15 -4.13874e-16)
(0.387004 -4.47015e-17 2.97308e-20)
(0.390886 -3.77443e-15 -4.19423e-16)
(0.390886 -4.54594e-17 3.20656e-20)
(0.394768 -3.77306e-15 -4.25002e-16)
(0.394768 -4.64268e-17 3.72535e-20)
(0.398651 -3.77199e-15 -4.30618e-16)
(0.398651 -4.69955e-17 3.52699e-20)
(0.402534 -3.7709e-15 -4.36271e-16)
(0.402534 -4.76256e-17 3.38721e-20)
(0.406416 -3.76986e-15 -4.41958e-16)
(0.406416 -4.83954e-17 4.64637e-20)
(0.410298 -3.76895e-15 -4.47684e-16)
(0.410298 -4.87638e-17 5.3983e-20)
(0.414179 -3.76805e-15 -4.53445e-16)
(0.414179 -4.92135e-17 5.38769e-20)
(0.418059 -3.76709e-15 -4.59234e-16)
(0.418059 -4.97661e-17 5.36759e-20)
(0.421937 -3.76633e-15 -4.65062e-16)
(0.421937 -5.01376e-17 6.21975e-20)
(0.425813 -3.76533e-15 -4.70928e-16)
(0.425813 -5.10128e-17 6.94266e-20)
(0.429687 -3.76398e-15 -4.76823e-16)
(0.429687 -5.22012e-17 7.14991e-20)
(0.433558 -3.76284e-15 -4.80896e-16)
(0.433558 -5.316e-17 7.15219e-20)
(0.437426 -3.76163e-15 -4.84343e-16)
(0.437426 -5.42038e-17 6.94234e-20)
(0.44129 -3.76039e-15 -4.87791e-16)
(0.44129 -5.50358e-17 7.87111e-20)
(0.445151 -3.75948e-15 -4.91234e-16)
(0.445151 -5.5695e-17 8.69949e-20)
(0.449008 -3.75874e-15 -4.94671e-16)
(0.449008 -5.64737e-17 9.5027e-20)
(0.452861 -3.75786e-15 -4.981e-16)
(0.452861 -5.70512e-17 9.84161e-20)
(0.456709 -3.75678e-15 -5.01521e-16)
(0.456709 -5.73455e-17 1.04813e-19)
(0.460552 -3.7557e-15 -5.04935e-16)
(0.460552 -5.7773e-17 1.15305e-19)
(0.46439 -3.75466e-15 -5.08338e-16)
(0.46439 -5.81724e-17 1.22156e-19)
(0.468222 -3.75361e-15 -5.11738e-16)
(0.468222 -5.8428e-17 1.25757e-19)
(0.472049 -3.75245e-15 -5.15126e-16)
(0.472049 -5.89762e-17 1.32722e-19)
(0.475869 -3.75125e-15 -5.18503e-16)
(0.475869 -5.94287e-17 1.40136e-19)
(0.479682 -3.75027e-15 -5.21868e-16)
(0.479682 -5.96896e-17 1.53698e-19)
(0.483489 -3.74929e-15 -5.2522e-16)
(0.483489 -6.02648e-17 1.59666e-19)
(0.487288 -3.74794e-15 -5.28562e-16)
(0.487288 -6.067e-17 1.55162e-19)
(0.49108 -3.7464e-15 -5.31905e-16)
(0.49108 -6.12165e-17 1.64688e-19)
(0.494865 -3.74495e-15 -5.35235e-16)
(0.494865 -6.21763e-17 1.74473e-19)
(0.498641 -3.74346e-15 -5.38563e-16)
(0.498641 -6.29439e-17 1.77192e-19)
(0.502409 -3.74199e-15 -5.41896e-16)
(0.502409 -6.36043e-17 1.75524e-19)
(0.506168 -3.74054e-15 -5.45235e-16)
(0.506168 -6.43608e-17 1.83797e-19)
(0.509919 -3.73941e-15 -5.48562e-16)
(0.509919 -6.53519e-17 2.05404e-19)
(0.51366 -3.73868e-15 -5.5187e-16)
(0.51366 -6.58443e-17 2.13581e-19)
(0.517393 -3.7374e-15 -5.55187e-16)
(0.517393 -6.65858e-17 2.12935e-19)
(0.521115 -3.73594e-15 -5.58507e-16)
(0.521115 -6.77528e-17 2.21646e-19)
(0.524828 -3.7347e-15 -5.61828e-16)
(0.524828 -6.84867e-17 2.22324e-19)
(0.52853 -3.73316e-15 -5.65154e-16)
(0.52853 -6.90255e-17 2.35724e-19)
(0.532222 -3.73176e-15 -5.68467e-16)
(0.532222 -6.96809e-17 2.60413e-19)
(0.535904 -3.73039e-15 -5.71773e-16)
(0.535904 -7.07622e-17 2.71968e-19)
(0.539575 -3.72879e-15 -5.75089e-16)
(0.539575 -7.192e-17 2.69493e-19)
(0.543234 -3.72713e-15 -5.78414e-16)
(0.543234 -7.28157e-17 2.64232e-19)
(0.546883 -3.7254e-15 -5.81755e-16)
(0.546883 -7.38092e-17 2.7148e-19)
(0.55052 -3.72416e-15 -5.8509e-16)
(0.55052 -7.47604e-17 3.00458e-19)
(0.554145 -3.72326e-15 -5.88411e-16)
(0.554145 -7.5288e-17 3.14937e-19)
(0.557759 -3.72231e-15 -5.91734e-16)
(0.557759 -7.57872e-17 3.16717e-19)
(0.56136 -3.72136e-15 -5.9506e-16)
(0.56136 -7.6156e-17 3.3588e-19)
(0.564949 -3.72012e-15 -5.98375e-16)
(0.564949 -7.63414e-17 3.49559e-19)
(0.568526 -3.71893e-15 -6.01694e-16)
(0.568526 -7.6734e-17 3.69179e-19)
(0.57209 -3.71772e-15 -6.04992e-16)
(0.57209 -7.71026e-17 3.84187e-19)
(0.575641 -3.71637e-15 -6.08293e-16)
(0.575641 -7.73934e-17 4.10416e-19)
(0.579179 -3.71507e-15 -6.11574e-16)
(0.579179 -7.80285e-17 4.35654e-19)
(0.582704 -3.71357e-15 -6.14857e-16)
(0.582704 -7.86081e-17 4.40773e-19)
(0.586216 -3.71196e-15 -6.18154e-16)
(0.586216 -7.93474e-17 4.52156e-19)
(0.589715 -3.71023e-15 -6.21443e-16)
(0.589715 -8.02808e-17 4.79379e-19)
(0.593199 -3.7084e-15 -6.24728e-16)
(0.593199 -8.12692e-17 4.97117e-19)
(0.596671 -3.70668e-15 -6.2802e-16)
(0.596671 -8.22376e-17 5.12987e-19)
(0.600128 -3.70506e-15 -6.31314e-16)
(0.600128 -8.33006e-17 5.17003e-19)
(0.603571 -3.70388e-15 -6.34618e-16)
(0.603571 -8.42778e-17 5.26817e-19)
(0.607 -3.70299e-15 -6.37919e-16)
(0.607 -8.54249e-17 5.36647e-19)
(0.610415 -3.70192e-15 -6.41235e-16)
(0.610415 -8.60385e-17 5.45084e-19)
(0.613815 -3.70113e-15 -6.44559e-16)
(0.613815 -8.6511e-17 5.76704e-19)
(0.617201 -3.70003e-15 -6.47875e-16)
(0.617201 -8.74737e-17 5.98733e-19)
(0.620573 -3.69871e-15 -6.51197e-16)
(0.620573 -8.82342e-17 6.27319e-19)
(0.623929 -3.69723e-15 -6.5452e-16)
(0.623929 -8.95707e-17 6.33879e-19)
(0.627271 -3.69563e-15 -6.5787e-16)
(0.627271 -9.00066e-17 6.43934e-19)
(0.630598 -3.69405e-15 -6.61234e-16)
(0.630598 -9.14371e-17 6.78036e-19)
(0.63391 -3.69241e-15 -6.646e-16)
(0.63391 -9.30818e-17 6.99931e-19)
(0.637207 -3.69071e-15 -6.67971e-16)
(0.637207 -9.36592e-17 7.13044e-19)
(0.640489 -3.68904e-15 -6.71366e-16)
(0.640489 -9.52078e-17 7.35797e-19)
(0.643756 -3.68734e-15 -6.74783e-16)
(0.643756 -9.62071e-17 7.60154e-19)
(0.647007 -3.68557e-15 -6.78215e-16)
(0.647007 -9.77445e-17 7.81572e-19)
(0.650243 -3.68346e-15 -6.81659e-16)
(0.650243 -9.92897e-17 8.02292e-19)
(0.653464 -3.68184e-15 -6.85129e-16)
(0.653464 -1.00209e-16 8.42174e-19)
(0.656669 -3.6808e-15 -6.88577e-16)
(0.656669 -1.01514e-16 8.569e-19)
(0.659858 -3.67893e-15 -6.92058e-16)
(0.659858 -1.02552e-16 8.63684e-19)
(0.663032 -3.67725e-15 -6.95538e-16)
(0.663032 -1.03884e-16 8.91459e-19)
(0.66619 -3.67541e-15 -6.9903e-16)
(0.66619 -1.06045e-16 9.02708e-19)
(0.669333 -3.67365e-15 -7.02552e-16)
(0.669333 -1.08228e-16 9.23333e-19)
(0.67246 -3.67207e-15 -7.0607e-16)
(0.67246 -1.09717e-16 9.19048e-19)
(0.675571 -3.67006e-15 -7.09612e-16)
(0.675571 -1.11585e-16 9.18363e-19)
(0.678666 -3.66838e-15 -7.13177e-16)
(0.678666 -1.12951e-16 9.35955e-19)
(0.681745 -3.66648e-15 -7.16759e-16)
(0.681745 -1.14517e-16 9.747e-19)
(0.684808 -3.66479e-15 -7.20346e-16)
(0.684808 -1.16305e-16 1.00781e-18)
(0.687856 -3.6625e-15 -7.23949e-16)
(0.687856 -1.18122e-16 1.0285e-18)
(0.690887 -3.66032e-15 -7.27554e-16)
(0.690887 -1.2067e-16 1.01723e-18)
(0.693903 -3.65762e-15 -7.31199e-16)
(0.693903 -1.22916e-16 9.75853e-19)
(0.696902 -3.65495e-15 -7.34916e-16)
(0.696902 -1.25566e-16 9.77454e-19)
(0.699886 -3.65265e-15 -7.38653e-16)
(0.699886 -1.28195e-16 1.02476e-18)
(0.702853 -3.65023e-15 -7.42387e-16)
(0.702853 -1.30438e-16 1.06362e-18)
(0.705805 -3.64866e-15 -7.46132e-16)
(0.705805 -1.32535e-16 1.07733e-18)
(0.70874 -3.64673e-15 -7.49884e-16)
(0.70874 -1.34362e-16 1.08365e-18)
(0.711659 -3.64381e-15 -7.53654e-16)
(0.711659 -1.35777e-16 1.12642e-18)
(0.714563 -3.64105e-15 -7.57418e-16)
(0.714563 -1.376e-16 1.15505e-18)
(0.71745 -3.63882e-15 -7.61196e-16)
(0.71745 -1.39164e-16 1.18433e-18)
(0.720321 -3.63703e-15 -7.64966e-16)
(0.720321 -1.39751e-16 1.17651e-18)
(0.723176 -3.63541e-15 -7.68759e-16)
(0.723176 -1.40153e-16 1.18689e-18)
(0.726015 -3.63415e-15 -7.72531e-16)
(0.726015 -1.41359e-16 1.2925e-18)
(0.728838 -3.63251e-15 -7.76243e-16)
(0.728838 -1.42404e-16 1.37143e-18)
(0.731645 -3.63073e-15 -7.79938e-16)
(0.731645 -1.42464e-16 1.36562e-18)
(0.734436 -3.62914e-15 -7.83681e-16)
(0.734436 -1.4343e-16 1.38034e-18)
(0.73721 -3.62728e-15 -7.87413e-16)
(0.73721 -1.44556e-16 1.40581e-18)
(0.739969 -3.62512e-15 -7.91155e-16)
(0.739969 -1.4541e-16 1.43177e-18)
(0.742712 -3.62276e-15 -7.94915e-16)
(0.742712 -1.46808e-16 1.48585e-18)
(0.745439 -3.62062e-15 -7.98665e-16)
(0.745439 -1.48129e-16 1.52933e-18)
(0.74815 -3.61824e-15 -8.02431e-16)
(0.74815 -1.49145e-16 1.58799e-18)
(0.750844 -3.61615e-15 -8.06189e-16)
(0.750844 -1.49651e-16 1.65539e-18)
(0.753523 -3.61391e-15 -8.09913e-16)
(0.753523 -1.51131e-16 1.64638e-18)
(0.756186 -3.61102e-15 -8.13701e-16)
(0.756186 -1.52516e-16 1.66391e-18)
(0.758834 -3.60835e-15 -8.1752e-16)
(0.758834 -1.53714e-16 1.73738e-18)
(0.761465 -3.60568e-15 -8.21295e-16)
(0.761465 -1.55184e-16 1.78395e-18)
(0.76408 -3.60254e-15 -8.25097e-16)
(0.76408 -1.57181e-16 1.84117e-18)
(0.76668 -3.5994e-15 -8.28913e-16)
(0.76668 -1.59211e-16 1.91247e-18)
(0.769264 -3.59671e-15 -8.3273e-16)
(0.769264 -1.61097e-16 1.93657e-18)
(0.771832 -3.59291e-15 -8.36571e-16)
(0.771832 -1.64382e-16 1.93522e-18)
(0.774384 -3.58905e-15 -8.40479e-16)
(0.774384 -1.67191e-16 1.91709e-18)
(0.776921 -3.58622e-15 -8.44436e-16)
(0.776921 -1.69557e-16 1.93097e-18)
(0.779442 -3.58403e-15 -8.48411e-16)
(0.779442 -1.72132e-16 1.99334e-18)
(0.781947 -3.58231e-15 -8.5238e-16)
(0.781947 -1.74186e-16 2.11906e-18)
(0.784437 -3.58009e-15 -8.56264e-16)
(0.784437 -1.75562e-16 2.18128e-18)
(0.786911 -3.57762e-15 -8.60194e-16)
(0.786911 -1.77338e-16 2.19036e-18)
(0.78937 -3.57493e-15 -8.64167e-16)
(0.78937 -1.79283e-16 2.1884e-18)
(0.791813 -3.57166e-15 -8.68172e-16)
(0.791813 -1.81528e-16 2.24295e-18)
(0.794241 -3.56876e-15 -8.72198e-16)
(0.794241 -1.83711e-16 2.28265e-18)
(0.796654 -3.56556e-15 -8.76241e-16)
(0.796654 -1.86032e-16 2.31148e-18)
(0.799051 -3.56193e-15 -8.8032e-16)
(0.799051 -1.89462e-16 2.39171e-18)
(0.801433 -3.55944e-15 -8.84409e-16)
(0.801433 -1.91487e-16 2.44805e-18)
(0.803799 -3.55687e-15 -8.88512e-16)
(0.803799 -1.93542e-16 2.49339e-18)
(0.80615 -3.5536e-15 -8.92601e-16)
(0.80615 -1.96075e-16 2.52313e-18)
(0.808487 -3.5496e-15 -8.96746e-16)
(0.808487 -1.98042e-16 2.57107e-18)
(0.810807 -3.54656e-15 -9.00894e-16)
(0.810807 -2.01078e-16 2.64248e-18)
(0.813113 -3.54436e-15 -9.05025e-16)
(0.813113 -2.04093e-16 2.68879e-18)
(0.815404 -3.54088e-15 -9.09154e-16)
(0.815404 -2.06483e-16 2.72346e-18)
(0.81768 -3.53774e-15 -9.13295e-16)
(0.81768 -2.10989e-16 2.79206e-18)
(0.819941 -3.53519e-15 -9.17348e-16)
(0.819941 -2.12277e-16 2.82406e-18)
(0.822187 -3.53261e-15 -9.21443e-16)
(0.822187 -2.14062e-16 2.85075e-18)
(0.824418 -3.52997e-15 -9.25554e-16)
(0.824418 -2.16988e-16 2.89535e-18)
(0.826634 -3.52657e-15 -9.29721e-16)
(0.826634 -2.20681e-16 2.92996e-18)
(0.828836 -3.52328e-15 -9.33937e-16)
(0.828836 -2.26213e-16 2.98663e-18)
(0.831022 -3.51941e-15 -9.38106e-16)
(0.831022 -2.29298e-16 3.02173e-18)
(0.833194 -3.51561e-15 -9.42309e-16)
(0.833194 -2.32532e-16 3.0564e-18)
(0.835352 -3.51216e-15 -9.46521e-16)
(0.835352 -2.35974e-16 3.08972e-18)
(0.837495 -3.508e-15 -9.50749e-16)
(0.837495 -2.40974e-16 3.10907e-18)
(0.839623 -3.50373e-15 -9.55041e-16)
(0.839623 -2.46745e-16 3.18033e-18)
(0.841737 -3.49892e-15 -9.59348e-16)
(0.841737 -2.52308e-16 3.22777e-18)
(0.843836 -3.49427e-15 -9.63739e-16)
(0.843836 -2.57723e-16 3.28441e-18)
(0.845922 -3.48996e-15 -9.68121e-16)
(0.845922 -2.62413e-16 3.3089e-18)
(0.847992 -3.48575e-15 -9.72571e-16)
(0.847992 -2.66393e-16 3.32289e-18)
(0.850049 -3.48184e-15 -9.77069e-16)
(0.850049 -2.71876e-16 3.3375e-18)
(0.852091 -3.47779e-15 -9.8148e-16)
(0.852091 -2.74859e-16 3.33395e-18)
(0.854119 -3.47233e-15 -9.85882e-16)
(0.854119 -2.79644e-16 3.3444e-18)
(0.856133 -3.46729e-15 -9.90476e-16)
(0.856133 -2.85342e-16 3.37861e-18)
(0.858133 -3.46271e-15 -9.94976e-16)
(0.858133 -2.89623e-16 3.35775e-18)
(0.860119 -3.45649e-15 -9.99488e-16)
(0.860119 -2.94662e-16 3.3633e-18)
(0.862091 -3.45089e-15 -1.00408e-15)
(0.862091 -2.99283e-16 3.36723e-18)
(0.864049 -3.44699e-15 -1.00871e-15)
(0.864049 -3.04066e-16 3.39168e-18)
(0.865993 -3.44338e-15 -1.01324e-15)
(0.865993 -3.08046e-16 3.34484e-18)
(0.867923 -3.43939e-15 -1.01766e-15)
(0.867923 -3.11585e-16 3.2899e-18)
(0.86984 -3.4351e-15 -1.0221e-15)
(0.86984 -3.14564e-16 3.26934e-18)
(0.871743 -3.43131e-15 -1.02653e-15)
(0.871743 -3.18367e-16 3.24095e-18)
(0.873632 -3.42789e-15 -1.03081e-15)
(0.873632 -3.2164e-16 3.18732e-18)
(0.875508 -3.42355e-15 -1.03492e-15)
(0.875508 -3.23307e-16 3.10496e-18)
(0.87737 -3.41922e-15 -1.03905e-15)
(0.87737 -3.27574e-16 3.09554e-18)
(0.879218 -3.41324e-15 -1.04302e-15)
(0.879218 -3.3326e-16 3.03402e-18)
(0.881053 -3.40701e-15 -1.0469e-15)
(0.881053 -3.35661e-16 2.96084e-18)
(0.882875 -3.40149e-15 -1.05084e-15)
(0.882875 -3.39622e-16 2.94137e-18)
(0.884684 -3.39456e-15 -1.05479e-15)
(0.884684 -3.46085e-16 2.93766e-18)
(0.886479 -3.38843e-15 -1.05852e-15)
(0.886479 -3.5163e-16 2.83795e-18)
(0.888261 -3.38196e-15 -1.06224e-15)
(0.888261 -3.56354e-16 2.83545e-18)
(0.890029 -3.37545e-15 -1.06597e-15)
(0.890029 -3.60516e-16 2.79088e-18)
(0.891785 -3.37005e-15 -1.06955e-15)
(0.891785 -3.65297e-16 2.70949e-18)
(0.893527 -3.3636e-15 -1.07297e-15)
(0.893527 -3.71481e-16 2.6403e-18)
(0.895257 -3.35687e-15 -1.07644e-15)
(0.895257 -3.7428e-16 2.61819e-18)
(0.896973 -3.35053e-15 -1.07989e-15)
(0.896973 -3.79326e-16 2.60928e-18)
(0.898677 -3.34433e-15 -1.08335e-15)
(0.898677 -3.8531e-16 2.62351e-18)
(0.900368 -3.3383e-15 -1.08677e-15)
(0.900368 -3.89262e-16 2.62926e-18)
(0.902045 -3.33067e-15 -1.09006e-15)
(0.902045 -3.94692e-16 2.62639e-18)
(0.90371 -3.32291e-15 -1.09346e-15)
(0.90371 -4.01487e-16 2.68631e-18)
(0.905363 -3.31654e-15 -1.0969e-15)
(0.905363 -4.08871e-16 2.71866e-18)
(0.907002 -3.3105e-15 -1.10037e-15)
(0.907002 -4.13088e-16 2.74925e-18)
(0.908629 -3.30531e-15 -1.10382e-15)
(0.908629 -4.17086e-16 2.75814e-18)
(0.910244 -3.30009e-15 -1.10712e-15)
(0.910244 -4.23836e-16 2.75144e-18)
(0.911846 -3.2932e-15 -1.11026e-15)
(0.911846 -4.30124e-16 2.72217e-18)
(0.913435 -3.28551e-15 -1.11353e-15)
(0.913435 -4.36087e-16 2.78875e-18)
(0.915012 -3.27817e-15 -1.11683e-15)
(0.915012 -4.43937e-16 2.81634e-18)
(0.916577 -3.27012e-15 -1.12012e-15)
(0.916577 -4.5103e-16 2.83508e-18)
(0.918129 -3.26234e-15 -1.12326e-15)
(0.918129 -4.56897e-16 2.76495e-18)
(0.919669 -3.25472e-15 -1.1264e-15)
(0.919669 -4.62267e-16 2.78239e-18)
(0.921197 -3.24648e-15 -1.12964e-15)
(0.921197 -4.69588e-16 2.81183e-18)
(0.922712 -3.23916e-15 -1.13278e-15)
(0.922712 -4.76507e-16 2.7682e-18)
(0.924216 -3.23291e-15 -1.13586e-15)
(0.924216 -4.80749e-16 2.70728e-18)
(0.925707 -3.22596e-15 -1.139e-15)
(0.925707 -4.85464e-16 2.75457e-18)
(0.927186 -3.21784e-15 -1.14202e-15)
(0.927186 -4.90796e-16 2.2392e-18)
(0.928653 -3.20967e-15 -1.14487e-15)
(0.928653 -4.95176e-16 3.96697e-19)
(0.930109 -3.20064e-15 -1.14774e-15)
(0.930109 -5.00237e-16 -1.33325e-18)
(0.931552 -3.19414e-15 -1.15056e-15)
(0.931552 -5.07066e-16 -3.1086e-18)
(0.932983 -3.1886e-15 -1.15335e-15)
(0.932983 -5.11072e-16 -4.94246e-18)
(0.934403 -3.1839e-15 -1.15617e-15)
(0.934403 -5.14651e-16 -6.70753e-18)
(0.935811 -3.17961e-15 -1.15862e-15)
(0.935811 -5.20746e-16 -8.68154e-18)
(0.937207 -3.17276e-15 -1.16105e-15)
(0.937207 -5.25264e-16 -1.06261e-17)
(0.938591 -3.16541e-15 -1.16343e-15)
(0.938591 -5.31146e-16 -1.26031e-17)
(0.939964 -3.15828e-15 -1.16578e-15)
(0.939964 -5.37719e-16 -1.46394e-17)
(0.941325 -3.15174e-15 -1.16768e-15)
(0.941325 -5.44287e-16 -1.71798e-17)
(0.942674 -3.14621e-15 -1.16957e-15)
(0.942674 -5.4997e-16 -1.92749e-17)
(0.944012 -3.13952e-15 -1.17154e-15)
(0.944012 -5.56366e-16 -2.12679e-17)
(0.945338 -3.13162e-15 -1.17349e-15)
(0.945338 -5.63768e-16 -2.34361e-17)
(0.946653 -3.12464e-15 -1.17548e-15)
(0.946653 -5.70955e-16 -2.56216e-17)
(0.947956 -3.11518e-15 -1.17751e-15)
(0.947956 -5.7873e-16 -2.78236e-17)
(0.949248 -3.10784e-15 -1.17949e-15)
(0.949248 -5.83452e-16 -3.00127e-17)
(0.950529 -3.1011e-15 -1.18109e-15)
(0.950529 -5.89991e-16 -3.25052e-17)
(0.951798 -3.09083e-15 -1.18266e-15)
(0.951798 -5.97303e-16 -3.47821e-17)
(0.953056 -3.08194e-15 -1.18408e-15)
(0.953056 -6.04807e-16 -3.72972e-17)
(0.954302 -3.07254e-15 -1.18554e-15)
(0.954302 -6.13172e-16 -3.95623e-17)
(0.955538 -3.06198e-15 -1.18697e-15)
(0.955538 -6.22251e-16 -4.20222e-17)
(0.956762 -3.05238e-15 -1.18856e-15)
(0.956762 -6.32359e-16 -4.42694e-17)
(0.957975 -3.04343e-15 -1.19029e-15)
(0.957975 -6.40683e-16 -4.65956e-17)
(0.959177 -3.03287e-15 -1.19208e-15)
(0.959177 -6.48077e-16 -4.90311e-17)
(0.960367 -3.02176e-15 -1.19377e-15)
(0.960367 -6.54733e-16 -5.1898e-17)
(0.961547 -3.0106e-15 -1.19505e-15)
(0.961547 -6.61855e-16 -5.47062e-17)
(0.962716 -2.99887e-15 -1.19662e-15)
(0.962716 -6.70625e-16 -5.71884e-17)
(0.963873 -2.98805e-15 -1.19828e-15)
(0.963873 -6.8083e-16 -5.98995e-17)
(0.96502 -2.97527e-15 -1.20006e-15)
(0.96502 -6.90542e-16 -6.26487e-17)
(0.966155 -2.96325e-15 -1.20194e-15)
(0.966155 -7.00338e-16 -6.52076e-17)
(0.96728 -2.95333e-15 -1.20373e-15)
(0.96728 -7.1135e-16 -6.81033e-17)
(0.968393 -2.94128e-15 -1.20525e-15)
(0.968393 -7.195e-16 -7.13577e-17)
(0.969496 -2.92868e-15 -1.20696e-15)
(0.969496 -7.26531e-16 -7.41282e-17)
(0.970588 -2.91502e-15 -1.20883e-15)
(0.970588 -7.3543e-16 -7.68055e-17)
(0.971669 -2.90184e-15 -1.21057e-15)
(0.971669 -7.44613e-16 -8.00601e-17)
(0.972739 -2.89051e-15 -1.2124e-15)
(0.972739 -7.52161e-16 -8.30686e-17)
(0.973798 -2.88033e-15 -1.21407e-15)
(0.973798 -7.5798e-16 -8.62642e-17)
(0.974847 -2.87256e-15 -1.21545e-15)
(0.974847 -7.62947e-16 -8.93295e-17)
(0.975885 -2.86357e-15 -1.21643e-15)
(0.975885 -7.68241e-16 -9.2745e-17)
(0.976912 -2.8528e-15 -1.21737e-15)
(0.976912 -7.72884e-16 -9.57882e-17)
(0.977928 -2.84324e-15 -1.21796e-15)
(0.977928 -7.79291e-16 -9.89365e-17)
(0.978933 -2.83573e-15 -1.21792e-15)
(0.978933 -7.83826e-16 -1.02571e-16)
(0.979928 -2.82614e-15 -1.21738e-15)
(0.979928 -7.88629e-16 -1.0627e-16)
(0.980912 -2.81618e-15 -1.21674e-15)
(0.980912 -7.94333e-16 -1.09448e-16)
(0.981885 -2.80668e-15 -1.21599e-15)
(0.981885 -8.00987e-16 -1.12783e-16)
(0.982848 -2.79603e-15 -1.21518e-15)
(0.982848 -8.08211e-16 -1.16309e-16)
(0.983799 -2.78807e-15 -1.21399e-15)
(0.983799 -8.13429e-16 -1.19857e-16)
(0.984741 -2.77899e-15 -1.21282e-15)
(0.984741 -8.20557e-16 -1.23202e-16)
(0.985671 -2.76814e-15 -1.21164e-15)
(0.985671 -8.26488e-16 -1.26543e-16)
(0.986591 -2.7577e-15 -1.21046e-15)
(0.986591 -8.32034e-16 -1.29897e-16)
(0.9875 -2.74665e-15 -1.2089e-15)
(0.9875 -8.38083e-16 -1.33734e-16)
(0.988398 -2.73382e-15 -1.20726e-15)
(0.988398 -8.43452e-16 -1.37468e-16)
(0.989286 -2.72189e-15 -1.20586e-15)
(0.989286 -8.50152e-16 -1.40912e-16)
(0.990163 -2.70995e-15 -1.20426e-15)
(0.990163 -8.5851e-16 -1.44574e-16)
(0.99103 -2.69724e-15 -1.20252e-15)
(0.99103 -8.64382e-16 -1.48513e-16)
(0.991885 -2.68426e-15 -1.20099e-15)
(0.991885 -8.72029e-16 -1.52042e-16)
(0.992731 -2.67104e-15 -1.19943e-15)
(0.992731 -8.79276e-16 -1.55825e-16)
(0.993565 -2.65945e-15 -1.19774e-15)
(0.993565 -8.85598e-16 -1.59644e-16)
(0.994389 -2.64603e-15 -1.19585e-15)
(0.994389 -8.95346e-16 -1.63647e-16)
(0.995202 -2.63003e-15 -1.19377e-15)
(0.995202 -9.04946e-16 -1.67834e-16)
(0.996004 -2.6144e-15 -1.19191e-15)
(0.996004 -9.10815e-16 -1.73649e-16)
(0.996796 -2.60084e-15 -1.19065e-15)
(0.996796 -9.18395e-16 -1.79666e-16)
(0.997577 -2.58726e-15 -1.18885e-15)
(0.997577 -9.27715e-16 -1.86022e-16)
(0.998347 -2.5752e-15 -1.18656e-15)
(0.998347 -9.34949e-16 -1.92473e-16)
(0.999106 -2.56418e-15 -1.18386e-15)
(0.999106 -9.43232e-16 -1.99241e-16)
(0.999855 -2.55176e-15 -1.18093e-15)
(0.999855 -9.52934e-16 -2.06072e-16)
(1.00059 -2.53848e-15 -1.17805e-15)
(1.00059 -9.61317e-16 -2.12666e-16)
(1.00132 -2.52785e-15 -1.17532e-15)
(1.00132 -9.68735e-16 -2.19111e-16)
(1.00204 -2.52071e-15 -1.17217e-15)
(1.00204 -9.79985e-16 -2.25636e-16)
(1.00274 -2.51114e-15 -1.16869e-15)
(1.00274 -9.88572e-16 -2.32512e-16)
(1.00344 -2.49782e-15 -1.16486e-15)
(1.00344 -9.96815e-16 -2.3984e-16)
(1.00412 -2.48487e-15 -1.16065e-15)
(1.00412 -1.00745e-15 -2.46742e-16)
(1.00479 -2.46957e-15 -1.15656e-15)
(1.00479 -1.01649e-15 -2.53441e-16)
(1.00546 -2.45252e-15 -1.15282e-15)
(1.00546 -1.02588e-15 -2.60355e-16)
(1.00611 -2.44017e-15 -1.14917e-15)
(1.00611 -1.03558e-15 -2.66762e-16)
(1.00675 -2.42714e-15 -1.14516e-15)
(1.00675 -1.04515e-15 -2.73241e-16)
(1.00738 -2.41306e-15 -1.1408e-15)
(1.00738 -1.05458e-15 -2.79551e-16)
(1.008 -2.40123e-15 -1.13695e-15)
(1.008 -1.0637e-15 -2.85492e-16)
(1.0086 -2.39013e-15 -1.13317e-15)
(1.0086 -1.07297e-15 -2.91161e-16)
(1.0092 -2.37935e-15 -1.1286e-15)
(1.0092 -1.08627e-15 -2.97001e-16)
(1.00979 -2.36429e-15 -1.12373e-15)
(1.00979 -1.0941e-15 -3.02998e-16)
(1.01036 -2.34861e-15 -1.1191e-15)
(1.01036 -1.10025e-15 -3.08754e-16)
(1.01092 -2.33404e-15 -1.11424e-15)
(1.01092 -1.10927e-15 -3.1413e-16)
(1.01148 -2.32219e-15 -1.1092e-15)
(1.01148 -1.11117e-15 -3.20038e-16)
(1.01202 -2.31553e-15 -1.10397e-15)
(1.01202 -1.11154e-15 -3.25932e-16)
(1.01255 -2.30768e-15 -1.09852e-15)
(1.01255 -1.11543e-15 -3.31901e-16)
(1.01307 -2.29725e-15 -1.09239e-15)
(1.01307 -1.12345e-15 -3.38492e-16)
(1.01357 -2.28277e-15 -1.08526e-15)
(1.01357 -1.12942e-15 -3.4453e-16)
(1.01407 -2.26597e-15 -1.0789e-15)
(1.01407 -1.13049e-15 -3.50581e-16)
(1.01456 -2.252e-15 -1.07243e-15)
(1.01456 -1.13828e-15 -3.56509e-16)
(1.01503 -2.23616e-15 -1.06517e-15)
(1.01503 -1.14448e-15 -3.62552e-16)