/*--------------------------------*- C++ -*----------------------------------*\
| =========                 |                                                 |
| \\      /  F ield         | OpenFOAM: The Open Source CFD Toolbox           |
|  \\    /   O peration     | Version:  2106                                  |
|   \\  /    A nd           | Website:  www.openfoam.com                      |
|    \\/     M anipulation  |                                                 |
\*---------------------------------------------------------------------------*/
FoamFile
{
    version     2.0;
    format      ascii;
    arch        "LSB;label=32;scalar=64";
    class       volTensorField;
    location    "30000";
    object      grad(U);
}
// * * * * * * * * * * * * * * * * * * * * * * * * * * * * * * * * * * * * * //

dimensions      [0 0 -1 0 0 0 0];

internalField   nonuniform List<tensor> 
2560
(
(0 0 3.81934e-21 19.4292 2.80439e-10 2.07859e-07 0.0281262 2.63928e-11 2.83869e-10)
(0 1.40094e-20 -5.79719e-21 19.4292 4.67587e-09 1.78238e-07 0.0281262 -1.35369e-11 1.80753e-10)
(0 7.52316e-37 3.60768e-21 19.4266 -5.30226e-28 1.78403e-08 0.08478 0 5.23995e-11)
(0 2.72758e-25 1.07486e-26 19.4266 -8.23523e-10 4.80159e-08 0.08478 2.41881e-12 2.70296e-10)
(1.42054e-17 0 -5.35326e-26 19.4239 -2.70931e-07 9.31679e-09 0.116594 -4.14244e-10 5.86967e-11)
(-1.77658e-17 0 0 19.4239 -2.77063e-07 8.01204e-09 0.116594 -4.60498e-10 2.77987e-10)
(4.64403e-17 -4.5502e-20 5.77348e-26 19.4211 2.42537e-08 8.67036e-09 0.118272 -7.33234e-11 4.60606e-11)
(-3.50224e-17 0 0 19.4211 5.29396e-23 7.3456e-09 0.118272 0 2.85849e-10)
(6.90408e-17 1.41701e-20 2.57197e-25 19.4182 5.91549e-08 7.03987e-09 0.119974 1.81437e-10 4.02668e-11)
(0 -6.98838e-20 0 19.4182 1.72213e-08 5.65726e-09 0.119974 5.28201e-11 2.94009e-10)
(9.55253e-17 2.33299e-20 5.57682e-26 19.4152 -3.90375e-07 9.08767e-09 0.121699 1.21475e-09 7.30841e-11)
(2.19792e-16 6.39602e-20 2.14338e-26 19.4152 -3.02888e-07 7.53804e-09 0.121699 9.42511e-10 3.02817e-10)
(3.14002e-17 -9.25855e-21 -5.43168e-26 19.4121 -1.94365e-07 1.31422e-08 0.123449 -6.1361e-10 9.30192e-11)
(7.5627e-17 -5.51013e-40 1.13318e-26 19.4121 -5.29596e-23 1.14354e-08 0.123449 -1.78015e-40 3.1331e-10)
(-4.39955e-17 0 -6.37706e-26 19.4089 6.51725e-07 1.22834e-08 0.125223 -2.35335e-09 6.41422e-11)
(1.09867e-16 0 -1.0908e-25 19.4089 5.57854e-07 1.05647e-08 0.125223 -1.37907e-09 3.24374e-10)
(1.17602e-16 0 6.96896e-26 19.4056 5.27593e-07 7.95388e-09 0.127022 2.65316e-09 3.90603e-11)
(0 0 0 19.4056 5.30134e-07 6.42085e-09 0.127022 1.72266e-09 3.35328e-10)
(0 0 0 19.4022 -3.42454e-07 8.04757e-09 0.128846 2.1264e-09 6.72656e-11)
(0 -9.18355e-41 -1.19643e-25 19.4022 -1.05879e-22 6.83536e-09 0.128846 -4.1359e-25 3.44286e-10)
(5.69452e-17 9.43428e-25 -5.77097e-26 19.3986 -5.50826e-07 1.42709e-08 0.130695 -4.14367e-10 1.24069e-10)
(-1.26625e-16 -1.83671e-40 -1.17928e-25 19.3986 -8.18293e-42 1.3207e-08 0.130695 0 3.513e-10)
(7.84881e-17 -1.24476e-25 2.87714e-25 19.395 -4.19995e-08 2.07664e-08 0.13257 -7.18744e-10 1.58041e-10)
(0 0 0 19.395 4.04211e-07 1.96188e-08 0.13257 -1.74224e-09 3.5852e-10)
(0 0 2.29144e-25 19.3913 3.7378e-07 2.33222e-08 0.134472 -6.15248e-10 1.63154e-10)
(0 0 0 19.3913 4.4087e-07 2.19436e-08 0.134472 -4.70205e-10 3.66883e-10)
(-9.64864e-17 0 -6.37184e-26 19.3874 3.10931e-07 2.41314e-08 0.1364 1.00276e-09 1.74059e-10)
(2.64688e-16 6.14275e-26 5.38571e-26 19.3874 2.79725e-07 2.25669e-08 0.1364 9.76994e-10 3.7752e-10)
(0 0 0 19.3834 -9.8726e-09 2.80484e-08 0.138354 3.29093e-10 2.23856e-10)
(0 0 0 19.3834 -1.91809e-08 2.64514e-08 0.138354 4.3692e-10 3.88746e-10)
(-1.15005e-16 0 -4.89788e-26 19.3793 -2.00611e-07 3.75166e-08 0.140336 9.3854e-10 3.16302e-10)
(4.6002e-16 0 8.97466e-26 19.3793 -1.98225e-07 3.59092e-08 0.140336 9.99731e-10 4.00157e-10)
(0 -5.25864e-22 0 19.3751 -1.3023e-07 5.14068e-08 0.142344 1.40497e-10 4.34532e-10)
(-4.97856e-16 2.03275e-21 -9.4328e-26 19.3751 -1.28041e-07 4.97778e-08 0.142344 2.14717e-10 4.22471e-10)
(0 -3.76158e-37 0 19.3707 0 6.74843e-08 0.144381 0 5.65264e-10)
(-5.36234e-16 6.36384e-22 -4.87344e-26 19.3707 2.77091e-08 6.58319e-08 0.144381 -7.68561e-12 5.52866e-10)
(2.25627e-16 5.2533e-26 0 19.3661 1.49955e-07 8.50734e-08 0.146445 3.91741e-10 7.13309e-10)
(0 0 0 19.3661 1.51603e-07 8.33996e-08 0.146445 4.78207e-10 7.0057e-10)
(1.53662e-16 2.66248e-26 3.34798e-27 19.3614 1.43046e-07 1.05705e-07 0.148538 8.66909e-10 8.98425e-10)
(-6.14647e-16 -1.53671e-25 0 19.3614 1.45078e-07 1.04008e-07 0.148538 8.77849e-10 8.10276e-10)
(0 0 0 19.3565 6.79614e-08 1.31915e-07 0.150658 5.61081e-10 1.04141e-09)
(0 0 0 19.3565 6.91094e-08 1.30193e-07 0.150658 7.00908e-10 9.25866e-10)
(4.22342e-17 -1.38996e-25 0 19.3513 -3.32586e-09 1.65796e-07 0.152808 6.00006e-10 1.18883e-09)
(-2.16064e-16 0 0 19.3513 -1.48408e-09 1.64049e-07 0.152808 7.58311e-10 1.06992e-09)
(2.41804e-16 -1.81689e-25 7.93366e-25 19.346 5.46086e-23 2.08422e-07 0.154986 6.54604e-10 1.38063e-09)
(0 0 0 19.346 -1.12679e-08 2.06649e-07 0.154986 8.11036e-10 1.25824e-09)
(0 -1.93482e-21 0 19.3404 5.40797e-09 2.6028e-07 0.157193 7.01766e-10 1.63497e-09)
(-7.78316e-16 -4.35245e-25 0 19.3404 2.53147e-08 2.58484e-07 0.157193 8.68412e-10 1.509e-09)
(2.05176e-16 1.28913e-25 1.26805e-25 19.3345 7.05668e-08 2.08274e-07 0.159429 7.879e-10 1.05545e-09)
(0 0 0 19.3345 7.23066e-08 2.92726e-07 0.159429 9.28693e-10 1.83952e-09)
(-4.31849e-16 -3.34494e-25 -2.89012e-25 19.3283 1.02788e-07 8.81688e-08 0.161694 9.20711e-10 8.89298e-10)
(0 0 -9.54488e-21 19.3283 1.04978e-07 1.03658e-07 0.161694 9.92899e-10 4.30525e-10)
(8.81495e-16 7.25229e-25 3.13271e-25 19.3218 1.04338e-07 4.86726e-08 0.163989 8.57776e-10 9.15194e-10)
(1.61359e-15 1.88936e-24 1.61426e-24 19.3218 1.06126e-07 5.17882e-08 0.163989 1.05947e-09 4.42444e-10)
(0 0 0 19.3149 9.42713e-08 4.92961e-08 0.166313 9.14473e-10 9.41816e-10)
(9.51529e-16 1.15293e-24 6.1846e-25 19.3149 9.61881e-08 5.24516e-08 0.166313 1.12812e-09 4.54563e-10)
(2.49096e-16 3.41453e-25 0 19.3077 8.62907e-08 4.99125e-08 0.168665 9.7418e-10 9.14348e-10)
(0 0 -1.45508e-24 19.3077 8.82625e-08 5.3107e-08 0.168665 1.20026e-09 4.66859e-10)
(-5.20938e-16 -7.70169e-25 0 19.2999 8.78362e-08 1.02995e-07 0.171047 1.03656e-09 3.97362e-10)
(-2.08375e-15 -3.03284e-24 -1.85822e-25 19.2999 8.9892e-08 5.37512e-08 0.171047 1.27563e-09 4.79299e-10)
(-6.51481e-16 -4.35517e-25 0 19.2917 1.01856e-07 2.72669e-07 0.173458 1.1016e-09 6.61312e-15)
(-1.08801e-15 -1.71786e-24 0 19.2917 1.03981e-07 2.16496e-07 0.173458 1.35387e-09 2.39264e-11)
(-3.74039e-16 0 0 19.2829 1.2228e-07 4.2049e-07 0.175898 1.22124e-09 5.71862e-15)
(-7.60764e-16 -1.96548e-24 0 19.2829 1.2444e-07 4.15169e-07 0.175898 1.43569e-09 -4.87546e-17)
(0 0 0 19.2735 1.44292e-07 4.86661e-07 0.178365 1.43237e-09 7.36431e-15)
(1.18225e-15 2.27427e-24 0 19.2735 1.46503e-07 4.86661e-07 0.178365 1.52145e-09 -4.24611e-16)
(-3.07594e-16 -6.38332e-25 0 19.2635 1.58186e-07 5.61948e-07 0.180861 1.51797e-09 7.00169e-15)
(0 0 0 19.2635 1.60464e-07 5.61948e-07 0.180861 1.61079e-09 2.78979e-16)
(-6.77979e-16 -7.31638e-25 0 19.2526 1.66033e-07 6.47265e-07 0.183384 1.62386e-09 8.72092e-15)
(3.58186e-16 0 0 19.2526 1.68377e-07 6.47265e-07 0.183384 1.70397e-09 -1.63034e-16)
(-3.32164e-16 -8.26341e-25 0 19.241 1.7695e-07 7.43501e-07 0.185934 1.77348e-09 8.38159e-15)
(-1.32866e-15 -3.44545e-24 0 19.241 1.79349e-07 7.43502e-07 0.185934 1.8012e-09 5.29904e-16)
(3.44709e-16 9.29223e-25 0 19.2285 1.90633e-07 8.517e-07 0.188511 1.93981e-09 1.02812e-14)
(0 0 0 19.2285 1.93089e-07 8.517e-07 0.188511 1.96413e-09 6.19327e-17)
(3.57428e-16 1.04342e-24 0 19.215 2.04868e-07 9.73001e-07 0.191112 2.1087e-09 1.0027e-14)
(0 0 0 19.215 2.07398e-07 9.73001e-07 0.191112 2.13437e-09 8.83514e-16)
(-1.0465e-15 -1.16419e-24 0 19.2004 2.20667e-07 1.10864e-06 0.193738 2.31559e-09 1.21379e-14)
(0 0 0 19.2004 2.23272e-07 1.10864e-06 0.193738 2.34215e-09 3.74096e-16)
(-3.33242e-16 0 0 19.1846 2.39455e-07 1.25997e-06 0.196387 2.5553e-09 1.19745e-14)
(3.33242e-16 0 0 19.1846 2.42126e-07 1.25997e-06 0.196387 2.58306e-09 1.33269e-15)
(-3.96657e-16 -1.44799e-24 0 19.1675 2.57308e-07 1.42843e-06 0.199058 2.75441e-09 1.43339e-14)
(1.58663e-15 5.98041e-24 0 19.1675 2.60044e-07 1.42843e-06 0.199058 2.7831e-09 8.14184e-16)
(0 0 0 19.1489 2.72737e-07 1.61543e-06 0.201749 2.95542e-09 1.42749e-14)
(1.64038e-15 6.6578e-24 0 19.1489 2.7555e-07 1.61543e-06 0.201749 2.98561e-09 1.93317e-15)
(-2.14517e-16 1.80065e-24 0 19.1288 2.86091e-07 1.82227e-06 0.204459 3.12072e-09 1.69417e-14)
(-1.05664e-15 -7.41222e-24 0 19.1288 2.88982e-07 1.82227e-06 0.204459 3.15192e-09 1.37305e-15)
(4.37528e-16 1.99599e-24 0 19.1071 2.98046e-07 2.05019e-06 0.207186 3.30143e-09 1.69888e-14)
(0 0 0 19.1071 3.01002e-07 2.05019e-06 0.207186 3.33392e-09 2.66382e-15)
(-4.51523e-16 -2.20357e-24 0 19.0834 3.1046e-07 2.30039e-06 0.209928 3.48544e-09 2.0019e-14)
(0 0 0 19.0834 3.1348e-07 2.30039e-06 0.209928 3.51894e-09 2.10446e-15)
(-1.45477e-16 2.42759e-24 0 19.0578 3.21473e-07 2.57395e-06 0.212683 3.64411e-09 2.01801e-14)
(1.86283e-15 9.95504e-24 -1.82147e-23 19.0578 3.24577e-07 2.57395e-06 0.212683 3.67945e-09 3.59447e-15)
(6.02425e-16 0 0 19.03 3.37207e-07 2.87201e-06 0.215448 3.94407e-09 2.36103e-14)
(1.92033e-15 1.08303e-23 0 19.03 3.40398e-07 2.87201e-06 0.215448 3.98052e-09 2.9674e-15)
(-4.94647e-16 -3.00023e-24 0 18.9999 3.20898e-07 3.19497e-06 0.218221 3.37592e-09 2.38695e-14)
(0 0 0 18.9999 3.24159e-07 3.19497e-06 0.218221 3.41391e-09 4.67387e-15)
(-5.09404e-16 -3.24686e-24 0 18.9673 2.89214e-07 3.54194e-06 0.220998 3.32061e-09 2.77606e-14)
(0 0 0 18.9673 2.92541e-07 3.54194e-06 0.220998 3.50848e-09 4.00844e-15)
(0 0 3.43854e-23 18.9319 3.56967e-07 3.91381e-06 0.223777 5.07806e-09 2.81747e-14)
(0 0 0 18.9319 3.60374e-07 3.91381e-06 0.223777 5.11906e-09 5.85577e-15)
(-1.10812e-15 -8.0944e-24 -3.38926e-23 18.8937 3.47434e-07 4.31186e-06 0.226554 3.18903e-09 3.24823e-14)
(0 0 0 18.8937 3.5092e-07 4.31186e-06 0.226554 3.857e-09 4.97272e-15)
(-5.60474e-16 0 -3.34068e-23 18.8523 2.12123e-07 4.73226e-06 0.229325 3.31532e-09 3.31241e-14)
(-2.21932e-15 -1.62182e-23 0 18.8523 2.15669e-07 4.73226e-06 0.229325 4.04077e-09 7.87742e-15)
(-5.7036e-16 -4.00067e-24 0 18.8076 2.73401e-07 5.17255e-06 0.232086 4.79665e-09 3.77054e-14)
(2.28144e-15 1.63483e-23 0 18.8076 2.77e-07 5.17255e-06 0.232086 4.8413e-09 1.00584e-14)
(-5.44523e-16 0 0 18.7594 2.57218e-07 5.63286e-06 0.234834 3.63321e-09 3.8283e-14)
(5.44523e-16 0 0 18.7594 2.6089e-07 5.63286e-06 0.234834 4.42958e-09 8.90292e-15)
(-6.01999e-16 -4.59299e-24 0 18.7074 1.49479e-07 6.10895e-06 0.237563 3.79996e-09 4.38443e-14)
(2.408e-15 1.83135e-23 0 18.7074 1.53208e-07 6.10895e-06 0.237563 4.63791e-09 -4.25935e-14)
(1.76524e-15 9.45511e-24 0 18.6515 1.49485e-07 6.59662e-06 0.240269 3.97167e-09 5.17855e-14)
(1.94341e-15 1.8857e-23 0 18.6515 1.53385e-07 6.59662e-06 0.240269 4.82865e-09 -4.68901e-14)
(1.04289e-15 0 0 18.5914 2.29865e-08 7.09087e-06 0.242947 4.15211e-09 5.6658e-14)
(0 0 0 18.5914 2.6875e-08 7.09087e-06 0.242947 5.06374e-09 5.01294e-16)
(-6.50899e-16 -6.01289e-25 0 18.5268 8.08754e-22 7.58603e-06 0.245593 4.33275e-09 4.54115e-14)
(0 0 0 18.5268 9.54565e-09 7.58604e-06 0.245593 5.27289e-09 8.04154e-14)
(-1.33516e-15 -9.59066e-24 0 18.4576 2.60121e-08 8.08023e-06 0.2482 4.51877e-09 5.36042e-14)
(2.67031e-15 1.91082e-23 0 18.4576 3.00825e-08 8.08023e-06 0.2482 5.52466e-09 1.32141e-13)
(-6.84445e-16 -4.73751e-24 0 18.3836 -1.08534e-07 8.56848e-06 0.250764 4.71692e-09 5.3108e-14)
(0 0 0 18.3836 -1.04183e-07 8.56848e-06 0.250764 5.76595e-09 -2.93425e-14)
(-7.01496e-16 -4.54851e-24 0 18.3046 -3.16615e-07 9.03952e-06 0.253279 4.91722e-09 -3.11447e-15)
(2.80599e-15 1.81423e-23 0 18.3046 -3.13246e-07 9.03953e-06 0.253279 5.95059e-09 -7.10779e-14)
(-7.1873e-16 -3.92063e-24 0 18.2203 -3.24844e-07 9.48547e-06 0.255739 6.32302e-09 7.34933e-14)
(0 0 0 18.2203 -3.21014e-07 9.48546e-06 0.255739 6.29036e-09 5.38652e-13)
(-2.42864e-15 -7.7529e-24 0 18.1307 -6.97479e-08 9.9106e-06 0.258139 5.34167e-09 2.00799e-13)
(-1.98821e-15 -1.53764e-23 0 18.1307 -1.08876e-07 9.91059e-06 0.258139 6.63301e-09 5.40053e-13)
(-1.50746e-15 -7.64081e-24 -2.24745e-22 18.0355 -4.43862e-07 1.03106e-05 0.260474 5.55066e-09 6.21618e-14)
(6.02984e-15 3.0423e-23 0 18.0355 -4.39934e-07 1.03106e-05 0.260474 6.75003e-09 -5.09583e-13)
(-2.31447e-15 -6.07461e-24 0 17.9347 -6.35969e-07 1.06697e-05 0.262737 1.23543e-08 7.98788e-15)
(-3.08596e-15 -8.71841e-24 0 17.9347 -6.32419e-07 1.06698e-05 0.262737 1.23173e-08 -5.44464e-13)
(1.26404e-16 -2.46728e-24 0 17.828 -4.08067e-07 1.09889e-05 0.264924 6.15363e-09 1.11722e-13)
(2.24185e-15 9.85457e-24 0 17.828 -4.03563e-07 1.09889e-05 0.264924 7.3476e-09 5.22369e-14)
(8.07508e-16 2.05745e-24 0 17.7155 -4.28836e-07 1.12746e-05 0.267029 6.20191e-09 1.08238e-13)
(0 0 0 17.7155 -4.24389e-07 1.12746e-05 0.267029 7.57355e-09 3.67476e-14)
(0 0 0 17.5969 -5.36943e-07 1.15241e-05 0.269048 6.96205e-09 -3.23279e-13)
(3.30303e-15 6.09871e-24 0 17.5969 -5.33057e-07 1.15241e-05 0.269048 7.86852e-09 -3.70501e-13)
(1.75401e-15 0 2.09094e-22 17.4724 -7.53651e-07 1.17288e-05 0.270974 9.41276e-09 -2.84215e-13)
(3.37663e-15 2.68595e-24 0 17.4724 -7.49628e-07 1.17288e-05 0.270974 9.36159e-09 4.81247e-14)
(-2.59331e-15 -9.89496e-21 -2.06097e-22 17.3418 -2.2274e-07 1.18914e-05 0.272804 6.05727e-09 5.37937e-13)
(3.45083e-15 0 0 17.3418 -2.4345e-07 1.18914e-05 0.272804 7.41494e-09 8.06293e-13)
(0 0 0 17.2051 -4.82017e-07 1.20225e-05 0.274533 5.26713e-09 4.65777e-13)
(0 0 0 17.2051 -4.77878e-07 1.20225e-05 0.274533 6.6515e-09 -5.56414e-14)
(-1.80044e-15 0 0 17.0624 -6.18424e-07 1.21206e-05 0.276157 -1.55279e-09 3.45458e-14)
(0 0 0 17.0624 -6.14496e-07 1.21206e-05 0.276157 -1.4989e-10 -4.51625e-13)
(0 0 0 16.9138 -4.76234e-07 1.21882e-05 0.277672 -4.59106e-09 1.04674e-13)
(3.67669e-15 0 0 16.9138 -4.71909e-07 1.21882e-05 0.277672 -3.10144e-09 2.2376e-14)
(0 0 0 16.7592 -4.9944e-07 1.22313e-05 0.279074 -7.19069e-09 2.16322e-14)
(3.75298e-15 -3.21666e-25 0 16.7592 -4.95145e-07 1.22313e-05 0.279074 -7.11483e-09 -6.76049e-14)
(-9.57432e-16 1.01129e-25 0 16.5988 -5.69391e-07 1.22488e-05 0.280361 -1.20343e-08 1.90466e-14)
(0 0 0 16.5988 -5.6512e-07 1.22488e-05 0.280361 -1.11869e-08 -1.07229e-13)
(9.76724e-16 -1.92155e-21 0 16.4327 -3.92895e-07 1.22438e-05 0.281529 -3.35855e-09 1.97054e-13)
(-1.58542e-15 4.11385e-21 -3.77994e-22 16.4327 -3.84596e-07 1.22438e-05 0.281529 -3.28761e-09 8.85502e-14)
(0 0 0 16.2611 -3.45127e-07 1.22255e-05 0.282576 -8.65211e-09 2.12524e-13)
(0 0 0 16.2611 -3.41019e-07 1.22255e-05 0.282576 -8.58057e-09 7.89439e-14)
(0 0 0 16.084 -3.84573e-07 1.21974e-05 0.2835 -4.85532e-09 1.33259e-13)
(0 0 0 16.084 -3.79468e-07 1.21974e-05 0.2835 -4.74696e-09 -3.97932e-14)
(-5.52082e-16 -3.12764e-26 3.61973e-22 15.9018 -3.2285e-07 1.2161e-05 0.284298 -6.68565e-09 -1.00236e-13)
(0 0 0 15.9018 -3.20381e-07 1.2161e-05 0.284298 -6.70678e-09 -8.07243e-14)
(-1.05479e-15 2.70363e-24 0 15.7145 -4.81083e-07 1.2113e-05 0.28497 -1.07713e-08 -6.52529e-14)
(0 0 0 15.7145 -4.76196e-07 1.2113e-05 0.28497 -1.05715e-08 3.8919e-13)
(1.07449e-15 -7.74916e-21 0 15.5223 -4.932e-24 1.20589e-05 0.285513 0 -1.70486e-13)
(-5.77296e-15 1.71306e-23 -3.51671e-22 15.5223 -1.66532e-07 1.20589e-05 0.285513 -2.75479e-09 2.69876e-13)
(1.45388e-15 0 3.46631e-22 15.3255 -2.87866e-07 1.20056e-05 0.285927 -1.54795e-08 -2.49574e-13)
(-5.83084e-15 8.83628e-24 0 15.3255 -2.86174e-07 1.20055e-05 0.285927 -1.53747e-08 -6.8046e-13)
(-1.11404e-15 -5.85293e-21 0 15.1243 5.82335e-22 1.19433e-05 0.286211 6.61744e-24 8.11571e-13)
(8.91233e-15 -5.90377e-21 0 15.1243 -2.9807e-07 1.19433e-05 0.286211 -2.8189e-09 4.3084e-14)
(1.13388e-15 -1.16704e-21 0 14.919 2.07056e-08 1.18842e-05 0.286364 -1.98664e-10 5.06635e-13)
(4.53552e-15 -1.97035e-23 0 14.919 4.94521e-08 1.18843e-05 0.286364 -3.05446e-09 5.28416e-13)
(0 0 0 14.7097 -2.36103e-07 1.1834e-05 0.286387 -1.09173e-08 -1.92731e-13)
(0 0 0 14.7097 -2.35454e-07 1.1834e-05 0.286387 -1.07271e-08 -4.78127e-13)
(-1.17363e-15 -1.61169e-21 -6.54364e-22 14.4967 -2.17135e-07 1.17764e-05 0.286278 -2.14437e-09 3.38908e-13)
(4.69454e-15 -7.08909e-22 0 14.4967 -3.12102e-07 1.17764e-05 0.286278 -3.08225e-09 -2.04609e-13)
(-1.19353e-15 5.99416e-24 0 14.2803 -1.28603e-07 1.17143e-05 0.28604 -3.01599e-09 2.57221e-13)
(-4.77413e-15 2.26263e-23 0 14.2803 -1.25736e-07 1.17144e-05 0.28604 -3.20497e-09 2.49573e-13)
(1.21343e-15 -4.85589e-24 0 14.0607 -3.84378e-07 1.16439e-05 0.285671 -1.26827e-08 3.84395e-14)
(4.85372e-15 -1.82347e-23 0 14.0607 -3.81548e-07 1.16439e-05 0.285671 -1.25579e-08 -4.88853e-13)
(-2.54746e-15 -1.20935e-21 0 13.8382 7.49507e-22 1.1567e-05 0.285174 0 2.3152e-13)
(6.24742e-15 -2.68201e-23 0 13.8382 -4.02609e-08 1.1567e-05 0.285174 -3.32098e-09 -5.40723e-13)
(-1.2532e-15 5.18947e-24 0 13.6131 1.77549e-07 1.15056e-05 0.284548 -1.09806e-08 2.31824e-13)
(0 0 0 13.6131 1.81277e-07 1.15056e-05 0.284548 -1.10676e-08 3.06761e-13)
(-1.27305e-15 5.79863e-24 0 13.3855 -2.82088e-07 1.14485e-05 0.283795 -8.35581e-09 1.35033e-13)
(0 0 0 13.3855 -2.78662e-07 1.14485e-05 0.283795 -8.27918e-09 2.15633e-13)
(-1.29286e-15 5.79173e-24 -6.0007e-22 13.1558 -4.83742e-07 1.13656e-05 0.282916 -1.25125e-08 7.61131e-14)
(5.17144e-15 -2.18321e-23 0 13.1558 -4.79983e-07 1.13656e-05 0.282916 -1.24272e-08 -3.76454e-13)
(1.31263e-15 -8.52666e-22 0 12.9242 -1.54033e-21 1.12661e-05 0.281914 0 4.07008e-13)
(0 0 0 12.9242 -1.6722e-08 1.12661e-05 0.281914 -3.63885e-09 8.34055e-13)
(0 0 0 12.691 4.90897e-07 1.1192e-05 0.280789 -1.17191e-08 4.5936e-15)
(0 0 0 12.691 4.92692e-07 1.1192e-05 0.280789 -1.18717e-08 1.3285e-12)
(-1.352e-15 9.86372e-25 0 12.4565 -7.0955e-07 1.1111e-05 0.279544 -4.23311e-08 -4.76018e-13)
(0 0 0 12.4565 -7.0706e-07 1.11109e-05 0.279544 -4.21425e-08 -2.00794e-12)
(2.37565e-15 -3.48844e-21 0 12.2208 -8.47033e-22 1.09861e-05 0.278181 0 5.06396e-13)
(8.59707e-15 -7.10137e-23 0 12.2208 -2.79631e-07 1.0986e-05 0.278181 -3.90543e-09 -1.97601e-12)
(-1.1708e-15 8.72316e-24 -5.58282e-22 11.9843 5.02625e-07 1.08716e-05 0.276703 -2.97625e-08 9.10786e-13)
(5.5644e-15 -1.26432e-23 0 11.9843 5.05966e-07 1.08716e-05 0.276703 -2.99006e-08 9.97949e-13)
(-3.71856e-15 1.46839e-23 -5.5028e-22 11.7472 -4.62058e-07 1.07578e-05 0.275111 -1.50111e-08 6.737e-13)
(-5.64208e-15 2.28509e-23 0 11.7472 -4.57452e-07 1.07579e-05 0.275111 -1.4809e-08 9.26065e-13)
(-1.42985e-15 -1.17549e-38 5.42393e-22 11.5097 7.41154e-22 1.06304e-05 0.273409 0 -8.82899e-13)
(-5.71938e-15 3.27774e-23 0 11.5097 2.15107e-07 1.06306e-05 0.273409 -4.26131e-09 -2.0518e-13)
(-2.24236e-15 0 0 11.2722 -2.19664e-07 1.04996e-05 0.271599 -3.66218e-08 -1.12267e-12)
(0 0 0 11.2722 -2.17163e-07 1.04995e-05 0.271599 -3.62955e-08 -8.85076e-13)
(0 -1.28155e-20 0 11.0347 8.47033e-22 1.03255e-05 0.269684 0 1.46627e-12)
(5.87272e-15 8.91834e-21 0 11.0347 -3.57651e-07 1.03254e-05 0.269684 -4.38606e-09 1.39484e-13)
(-6.91367e-16 8.2107e-24 -1.03881e-21 10.7976 5.9945e-07 1.01473e-05 0.267668 -9.15431e-09 5.98677e-13)
(0 0 0 10.7976 5.98861e-07 1.01474e-05 0.267668 -9.37745e-09 6.31041e-13)
(2.14732e-15 0 0 10.561 -1.62919e-07 9.9842e-06 0.265554 -2.93502e-08 -5.54183e-13)
(9.901e-15 -2.70761e-23 0 10.561 -1.62187e-07 9.98416e-06 0.265554 -2.90533e-08 -1.01553e-12)
(2.11654e-15 -6.59725e-21 1.00924e-21 10.3253 0 9.78956e-06 0.263346 -1.32349e-23 7.95789e-13)
(1.21982e-14 -7.02398e-23 0 10.3253 -2.95955e-07 9.78946e-06 0.263346 -4.65013e-09 -3.83783e-13)
(-3.08673e-15 1.38618e-23 0 10.0906 2.7599e-07 9.58484e-06 0.261047 -1.40709e-08 8.99113e-13)
(0 0 0 10.0906 2.78835e-07 9.58486e-06 0.261047 -1.42052e-08 1.00313e-12)
(-1.56181e-15 6.34484e-24 0 9.85711 -3.3842e-07 9.36693e-06 0.25866 -1.81477e-08 6.71644e-13)
(1.24945e-14 -4.71616e-23 0 9.85711 -3.3473e-07 9.36704e-06 0.25866 -1.79646e-08 -4.43842e-13)
(1.5801e-15 -2.02109e-23 0 9.62507 7.87835e-22 9.13051e-06 0.256191 0 -6.59242e-13)
(0 0 0 9.62507 1.90686e-07 9.13052e-06 0.256191 -4.98017e-09 -1.23871e-12)
(-1.59823e-15 4.14653e-24 0 9.39467 6.115e-08 8.89622e-06 0.253642 -2.86374e-08 4.14262e-13)
(0 0 0 9.39467 6.65139e-08 8.89609e-06 0.253642 -2.85003e-08 1.9923e-13)
(-1.6162e-15 9.29381e-24 0 9.16609 -3.03577e-07 8.6226e-06 0.251019 -4.17869e-09 2.39835e-12)
(6.46478e-15 -3.45328e-23 0 9.16609 -3.8325e-07 8.62268e-06 0.251019 -5.27538e-09 8.49734e-13)
(-1.63399e-15 3.82036e-38 0 8.93954 1.26187e-22 8.34321e-06 0.248325 -1.32349e-23 -1.19892e-12)
(6.53595e-15 -3.56023e-23 -9.25505e-22 8.93954 3.80654e-07 8.3434e-06 0.248325 -5.31584e-09 -3.16373e-13)
(-3.3032e-15 1.18228e-24 0 8.71519 -8.70116e-08 8.0831e-06 0.245565 -4.78324e-08 -1.41742e-12)
(0 0 0 8.71519 -8.30376e-08 8.08297e-06 0.245565 -4.7365e-08 -1.35397e-12)
(-1.66903e-15 -3.47376e-21 0 8.49322 5.29396e-23 7.78296e-06 0.242744 0 1.3088e-12)
(0 0 0 8.49322 -3.52115e-07 7.78282e-06 0.242744 -5.54614e-09 -9.26561e-13)
(1.85866e-15 0 1.77256e-21 8.27379 3.64475e-07 7.46789e-06 0.239866 -2.76273e-08 1.17969e-12)
(-6.7451e-15 1.68172e-23 0 8.27379 3.66458e-07 7.4679e-06 0.239866 -2.76612e-08 5.40758e-13)
(3.53535e-15 -8.62183e-24 0 8.05707 -1.62532e-07 7.14862e-06 0.236936 -2.97875e-09 8.53923e-13)
(4.98128e-15 -3.07499e-23 0 8.05707 -1.58666e-07 7.14873e-06 0.236936 -5.66216e-09 2.39642e-13)
(1.72018e-15 -1.84559e-23 0 7.8432 6.35275e-22 6.8213e-06 0.233958 0 -1.98323e-13)
(-6.88072e-15 3.14202e-23 0 7.8432 2.99841e-07 6.82138e-06 0.233958 -5.80927e-09 -6.38848e-13)
(-1.73683e-15 4.84032e-24 0 7.63234 3.68024e-08 6.49771e-06 0.230938 -2.10274e-08 -3.70785e-13)
(5.16745e-15 -1.70643e-23 0 7.63234 3.98665e-08 6.49763e-06 0.230938 -2.10065e-08 4.34102e-15)
(0 -4.66527e-22 0 7.42462 6.61744e-24 6.15634e-06 0.227881 0 1.32621e-12)
(0 0 -1.6731e-21 7.42462 -4.49294e-08 6.15622e-06 0.227881 -5.99758e-09 2.38595e-13)
(-1.72923e-15 1.28837e-23 -8.2456e-22 7.22016 -1.42525e-07 5.78516e-06 0.224791 -2.53548e-08 1.58359e-12)
(5.34887e-15 -1.52282e-23 -8.2456e-22 7.22016 -1.37987e-07 5.78529e-06 0.224791 -2.52955e-08 -7.61816e-13)
(3.49e-15 -1.9348e-23 0 7.01909 5.82335e-22 5.41604e-06 0.221673 0 -8.29932e-13)
(-1.70444e-15 0 0 7.01909 3.94963e-07 5.41615e-06 0.221673 -6.28094e-09 -9.18437e-13)
(0 0 0 6.82152 1.68414e-07 5.06941e-06 0.218533 -4.2104e-08 -4.1086e-13)
(-1.05655e-14 0 0 6.82152 1.73627e-07 5.06932e-06 0.218533 -3.75846e-08 -3.95386e-13)
(-1.65593e-15 -1.29087e-21 -7.89611e-22 6.62757 5.29396e-22 4.70603e-06 0.215375 0 7.5821e-13)
(0 0 0 6.62757 -1.48142e-07 4.70593e-06 0.215375 -6.62117e-09 -1.06362e-12)
(-1.6322e-15 0 0 6.4373 3.56967e-07 4.3386e-06 0.212205 -3.54816e-08 1.57995e-12)
(0 0 0 6.4373 3.60374e-07 4.33858e-06 0.212205 -3.54058e-08 6.58736e-13)
(1.84752e-15 -6.11745e-24 0 6.25083 -3.04284e-07 3.9563e-06 0.209026 -8.36582e-09 1.95415e-12)
(0 0 0 6.25083 -2.98966e-07 3.9564e-06 0.209026 -8.31411e-09 7.53983e-13)
(1.86247e-15 -7.84813e-24 0 6.06821 -1.56963e-23 3.57734e-06 0.205844 6.61744e-24 -9.32635e-13)
(-3.1715e-15 6.77829e-21 0 6.06821 4.03793e-07 3.57744e-06 0.205844 -6.90199e-09 -6.74182e-13)
(-3.75439e-15 0 0 5.88952 -9.08837e-08 3.21649e-06 0.202664 -3.11597e-08 -2.85316e-13)
(7.50878e-15 0 0 5.88952 -8.55918e-08 3.21642e-06 0.202664 -2.61282e-08 -1.74869e-12)
(-1.8917e-15 -1.67302e-22 0 5.71483 0 2.83041e-06 0.19949 0 8.1968e-13)
(0 0 0 5.71483 -1.74662e-08 2.83036e-06 0.19949 -7.27202e-09 -2.27633e-12)
(0 0 0 5.54417 6.44981e-07 2.47173e-06 0.196328 -3.12471e-08 1.06498e-12)
(0 0 0 5.54417 6.486e-07 2.4717e-06 0.196328 -2.60514e-08 1.60481e-12)
(0 0 0 5.37759 -4.57733e-07 2.10963e-06 0.19318 -2.18025e-08 1.35984e-12)
(0 0 -1.42743e-21 5.37759 -4.52665e-07 2.10969e-06 0.19318 -2.17539e-08 -3.56332e-13)
(-2.95064e-15 4.4081e-39 -1.40698e-21 5.21512 1.32014e-23 1.71732e-06 0.190052 -6.61744e-24 1.09986e-13)
(0 0 0 5.21512 2.71634e-07 1.7174e-06 0.190052 -7.58175e-09 -2.30382e-12)
(-2.90835e-15 0 0 5.05678 5.45252e-07 1.36945e-06 0.186948 -2.63732e-08 2.37137e-14)
(1.558e-14 0 -1.38681e-21 5.05678 5.4891e-07 1.36942e-06 0.186948 -2.08117e-08 1.38448e-12)
(-3.92179e-15 4.34655e-24 0 4.9026 -1.73081e-07 1.03442e-06 0.183872 -1.14392e-08 1.05156e-12)
(7.84358e-15 -5.67866e-24 0 4.9026 -1.67602e-07 1.03432e-06 0.183872 -1.11794e-08 2.39492e-13)
(4.79966e-15 -1.91928e-21 1.34734e-21 4.75257 0 6.61239e-07 0.180827 -6.61744e-24 2.03052e-12)
(-2.82558e-15 0 0 4.75257 -1.26856e-07 6.61298e-07 0.180827 -8.11459e-09 -1.64375e-12)
(0 -4.3759e-21 7.84372e-22 4.60668 7.06272e-08 2.37045e-07 0.177817 -1.37472e-09 2.05256e-13)
(-7.94816e-15 9.77213e-24 -1.59893e-21 4.60668 3.78534e-07 2.36067e-07 0.177817 -8.27584e-09 -1.40628e-12)
(-1.99979e-15 0 -1.34525e-43 4.46495 3.23078e-07 -2.6479e-28 0.174847 -1.75889e-08 1.00974e-28)
(7.99917e-15 0 1.00866e-21 4.46495 3.27916e-07 -2.18028e-10 0.174847 -1.16268e-08 3.18749e-13)
(0 0 0 4.32734 -8.65909e-08 -3.58216e-07 0.171918 -4.03219e-09 1.60859e-12)
(0 0 -1.29024e-21 4.32734 -8.05096e-08 -3.58216e-07 0.171918 -8.66195e-09 -9.35484e-14)
(0 0 0 4.19382 5.74189e-24 -6.91026e-07 0.169035 0 4.9031e-13)
(0 0 0 4.19382 1.0784e-07 -6.9099e-07 0.169035 -8.67732e-09 -1.33169e-12)
(-2.03678e-15 1.8896e-25 0 4.06437 1.69639e-07 -1.0132e-06 0.166199 -1.27694e-08 1.19863e-12)
(0 0 0 4.06437 1.74911e-07 -1.01324e-06 0.166199 -7.74464e-09 -1.72927e-13)
(1.08487e-15 9.75444e-25 1.23555e-21 3.93894 4.53698e-08 -1.32871e-06 0.163413 -1.1395e-09 1.58089e-12)
(1.63896e-14 0 0 3.93894 4.99847e-08 -1.32868e-06 0.163413 -6.78883e-09 -1.01043e-12)
(0 -1.76229e-21 0 3.81749 1.25713e-07 -1.6287e-06 0.160681 -2.66833e-09 8.10343e-13)
(-2.554e-15 0 0 3.81749 2.63587e-07 -1.62868e-06 0.160681 -5.22201e-09 -1.39298e-12)
(-2.51739e-15 1.17225e-24 0 3.69996 1.64673e-07 -1.9014e-06 0.158003 -1.88005e-09 1.46856e-12)
(0 0 0 3.69996 1.70007e-07 -1.90139e-06 0.158003 4.92022e-09 -3.64378e-13)
(-6.2498e-15 1.68977e-38 0 3.58629 3.06508e-23 -2.16026e-06 0.155382 5.12775e-40 8.0859e-13)
(1.66661e-14 4.6218e-24 0 3.58629 8.87539e-08 -2.16028e-06 0.155382 2.52601e-09 -7.84702e-13)
(0 -3.41667e-24 0 3.47642 1.52684e-07 -2.40489e-06 0.152819 2.30336e-09 1.83927e-12)
(1.67552e-14 3.41667e-24 0 3.47642 1.5761e-07 -2.40495e-06 0.152819 9.33529e-09 -5.52311e-13)
(-2.10536e-15 1.68385e-24 0 3.37027 -7.94727e-08 -2.64932e-06 0.150316 2.71058e-09 2.66521e-12)
(-2.41069e-15 -1.12257e-24 -1.14951e-21 3.37027 -7.34287e-08 -2.64924e-06 0.150316 9.99519e-09 -1.03042e-12)
(2.11613e-15 -1.15964e-25 0 3.26775 2.29233e-36 -2.87532e-06 0.147873 -1.03398e-25 2.18298e-13)
(1.6929e-14 3.31943e-24 0 3.26775 3.4042e-07 -2.8752e-06 0.147873 6.52138e-09 -1.72171e-12)
(2.34209e-15 0 0 3.16879 9.54253e-08 -3.06544e-06 0.14549 1.87117e-08 3.70696e-13)
(6.16478e-15 0 0 3.16879 1.00308e-07 -3.06553e-06 0.14549 2.62141e-08 -5.20244e-13)
(2.13714e-15 -2.26042e-21 0 3.0733 2.64698e-23 -3.26156e-06 0.143169 3.79892e-09 2.64032e-12)
(0 1.07499e-24 0 3.0733 -1.21207e-07 -3.2616e-06 0.143169 1.15099e-08 -8.97813e-13)
(2.01933e-15 0 0 2.98117 2.79475e-07 -3.44549e-06 0.140909 1.34078e-08 1.55506e-12)
(8.58953e-15 0 0 2.98117 2.82523e-07 -3.44545e-06 0.140909 2.12532e-08 -1.24698e-12)
(0 0 0 2.89233 -3.70214e-08 -3.60773e-06 0.138711 1.75165e-08 1.96936e-12)
(-2.24282e-15 0 0 2.89233 -3.26617e-08 -3.60771e-06 0.138711 2.55185e-08 -1.28398e-12)
(2.21067e-15 -4.6675e-22 0 2.80667 7.27919e-23 -3.7784e-06 0.136574 1.20406e-08 1.69972e-12)
(8.66955e-15 1.54414e-24 0 2.80667 -3.67189e-08 -3.77842e-06 0.136574 2.02184e-08 -1.60608e-12)
(4.3543e-15 0 0 2.72409 7.16024e-08 -3.94659e-06 0.134497 1.60704e-08 2.74862e-12)
(0 0 0 2.72409 7.59895e-08 -3.94659e-06 0.134497 2.43999e-08 -1.09641e-12)
(4.33452e-15 -2.00026e-24 0 2.64452 -2.40219e-08 -4.11026e-06 0.132482 1.60951e-08 2.25886e-12)
(6.5993e-15 3.00038e-24 0 2.64452 -1.91235e-08 -4.11023e-06 0.132482 2.4631e-08 -1.45991e-12)
(0 -4.27411e-24 0 2.56786 1.6691e-22 -4.26247e-06 0.130528 1.53991e-08 2.1425e-12)
(8.78491e-15 3.94317e-24 0 2.56786 1.34407e-07 -4.26241e-06 0.130528 2.40833e-08 -1.73435e-12)
(-2.20555e-15 0 0 2.49403 3.18357e-08 -4.39659e-06 0.128634 2.33903e-08 1.43821e-12)
(-8.82219e-15 0 0 2.49403 3.64296e-08 -4.39662e-06 0.128634 3.22552e-08 -1.51703e-12)
(-6.32818e-15 -2.13708e-22 -1.96145e-21 2.42292 -7.94093e-23 -4.53007e-06 0.126801 1.75271e-08 3.36149e-12)
(0 0 0 2.42292 -4.00276e-08 -4.53007e-06 0.126801 2.65855e-08 -1.1812e-12)
(-2.22377e-15 0 0 2.35447 1.96753e-07 -4.64452e-06 0.125027 2.16956e-08 2.1223e-12)
(-8.89509e-15 0 0 2.35447 2.00726e-07 -4.64454e-06 0.125027 3.09431e-08 -1.11452e-12)
(1.99819e-15 0 0 2.28856 -2.02368e-07 -4.75646e-06 0.123311 2.86571e-08 4.39231e-12)
(0 0 0 2.28856 -1.96774e-07 -4.75639e-06 0.123311 3.81043e-08 -2.78647e-12)
(1.96955e-15 3.67342e-40 0 2.2251 1.56683e-38 -4.87336e-06 0.121652 1.1196e-08 7.15999e-13)
(1.59622e-14 1.14643e-24 0 2.2251 1.24392e-07 -4.8733e-06 0.121652 2.08263e-08 -3.11123e-12)
(-2.25014e-15 0 0 2.16401 1.23734e-07 -4.95865e-06 0.12005 3.62644e-08 2.85905e-12)
(9.00055e-15 0 0 2.16401 1.28037e-07 -4.95876e-06 0.12005 4.60504e-08 -1.29998e-12)
(-3.827e-15 -1.31941e-21 -9.12429e-22 2.10518 1.05879e-22 -5.05967e-06 0.118501 1.84527e-08 4.63962e-12)
(-9.03473e-15 -5.34626e-24 0 2.10518 -2.97297e-07 -5.05971e-06 0.118501 2.85195e-08 -1.73837e-12)
(-3.77215e-15 -2.01043e-21 -1.7987e-21 2.04852 7.89335e-08 -5.15733e-06 0.117005 1.9919e-08 4.25923e-12)
(0 -3.51309e-24 0 2.04852 2.89572e-07 -5.15718e-06 0.117005 3.01724e-08 -2.27904e-12)
(-1.44265e-15 -6.92548e-24 -8.86461e-22 1.99395 -9.31499e-08 -5.22712e-06 0.11556 3.57057e-08 1.32041e-12)
(9.10173e-15 0 0 1.99395 -8.96567e-08 -5.22716e-06 0.11556 4.61272e-08 -2.58364e-12)
(0 -1.28743e-22 1.74751e-21 1.94136 0 -5.30318e-06 0.114164 1.49328e-08 6.00717e-12)
(0 2.55983e-24 0 1.94136 -8.61302e-09 -5.30326e-06 0.114164 2.55856e-08 -2.99422e-12)
(3.61227e-15 3.36419e-24 8.61233e-22 1.89068 -4.33871e-08 -5.37984e-06 0.112816 3.59345e-08 4.57776e-12)
(0 0 0 1.89068 -3.86282e-08 -5.37973e-06 0.112816 4.68238e-08 -2.19023e-12)
(-4.59952e-15 -3.67342e-40 0 1.84182 1.03541e-39 -5.41184e-06 0.111514 1.27894e-08 3.11577e-12)
(0 -1.86523e-24 0 1.84182 3.50595e-07 -5.41172e-06 0.111514 2.39104e-08 -6.93271e-13)