/*--------------------------------*- C++ -*----------------------------------*\
| =========                 |                                                 |
| \\      /  F ield         | OpenFOAM: The Open Source CFD Toolbox           |
|  \\    /   O peration     | Version:  2106                                  |
|   \\  /    A nd           | Website:  www.openfoam.com                      |
|    \\/     M anipulation  |                                                 |
\*---------------------------------------------------------------------------*/
FoamFile
{
    version     2.0;
    format      ascii;
    arch        "LSB;label=32;scalar=64";
    class       volScalarField;
    location    "30000";
    object      k;
}
// * * * * * * * * * * * * * * * * * * * * * * * * * * * * * * * * * * * * * //

dimensions      [0 2 -2 0 0 0 0];

internalField   nonuniform List<scalar> 
2560
(
1.6133e-11
1.6133e-11
4.8414e-10
4.8414e-10
3.47397e-09
3.47397e-09
1.28038e-08
1.28038e-08
3.35326e-08
3.35326e-08
7.17713e-08
7.17713e-08
1.34641e-07
1.34641e-07
2.30285e-07
2.30285e-07
3.67902e-07
3.67902e-07
5.57793e-07
5.57793e-07
8.11422e-07
8.11422e-07
1.14148e-06
1.14148e-06
1.56194e-06
1.56194e-06
2.08818e-06
2.08818e-06
2.737e-06
2.737e-06
3.52676e-06
3.52676e-06
4.47747e-06
4.47747e-06
5.61086e-06
5.61086e-06
6.9505e-06
6.9505e-06
8.52191e-06
8.52191e-06
1.03527e-05
1.03527e-05
1.24726e-05
1.24726e-05
1.49136e-05
1.49136e-05
1.77103e-05
1.77103e-05
2.08996e-05
2.08996e-05
2.45213e-05
2.45213e-05
2.8618e-05
2.8618e-05
3.3235e-05
3.3235e-05
3.84209e-05
3.84209e-05
4.42275e-05
4.42275e-05
5.07099e-05
5.07099e-05
5.79267e-05
5.79267e-05
6.59401e-05
6.59401e-05
7.48158e-05
7.48158e-05
8.46236e-05
8.46236e-05
9.54369e-05
9.54369e-05
0.000107333
0.000107333
0.000120394
0.000120394
0.000134704
0.000134704
0.000150353
0.000150353
0.000167434
0.000167434
0.000186044
0.000186044
0.000206283
0.000206283
0.000228254
0.000228254
0.000252065
0.000252065
0.000277823
0.000277823
0.00030564
0.00030564
0.000335628
0.000335628
0.0003679
0.0003679
0.000402569
0.000402569
0.000439746
0.000439746
0.00047954
0.00047954
0.000522059
0.000522059
0.000567402
0.000567402
0.000615666
0.000615666
0.000666938
0.000666938
0.000721296
0.000721296
0.000778808
0.000778808
0.00083953
0.00083953
0.000903504
0.000903504
0.000970757
0.000970757
0.0010413
0.0010413
0.00111513
0.00111513
0.00119221
0.00119221
0.00127251
0.00127251
0.00135596
0.00135596
0.00144247
0.00144247
0.00153196
0.00153196
0.0016243
0.0016243
0.00171936
0.00171936
0.00181698
0.00181698
0.00191701
0.00191701
0.00201925
0.00201925
0.00212354
0.00212354
0.00222966
0.00222966
0.00233742
0.00233742
0.00244661
0.00244661
0.00255701
0.00255701
0.00266842
0.00266842
0.00278062
0.00278062
0.00289339
0.00289339
0.00300654
0.00300654
0.00311984
0.00311984
0.00323311
0.00323311
0.00334614
0.00334614
0.00345875
0.00345875
0.00357075
0.00357075
0.00368197
0.00368197
0.00379223
0.00379223
0.00390137
0.00390137
0.00400925
0.00400925
0.0041157
0.0041157
0.0042206
0.0042206
0.00432381
0.00432381
0.00442521
0.00442521
0.00452467
0.00452467
0.00462209
0.00462209
0.00471737
0.00471737
0.00481041
0.00481041
0.00490113
0.00490113
0.00498944
0.00498944
0.00507527
0.00507527
0.00515856
0.00515856
0.00523924
0.00523924
0.00531726
0.00531726
0.00539258
0.00539258
0.00546515
0.00546515
0.00553494
0.00553494
0.00560193
0.00560193
0.00566608
0.00566608
0.0057274
0.0057274
0.00578587
0.00578587
0.00584148
0.00584148
0.00589423
0.00589423
0.00594414
0.00594414
0.00599123
0.00599123
0.00603549
0.00603549
0.00607697
0.00607697
0.00611568
0.00611568
0.00615167
0.00615167
0.00618496
0.00618496
0.0062156
0.0062156
0.00624364
0.00624364
0.00626911
0.00626911
0.00629209
0.00629209
0.00631261
0.00631261
0.00633074
0.00633074
0.00634654
0.00634654
0.00636007
0.00636007
0.00637141
0.00637141
0.00638061
0.00638061
0.00638774
0.00638774
0.00639288
0.00639288
0.0063961
0.0063961
0.00639748
0.00639748
0.00639707
0.00639707
0.00639496
0.00639496
0.00639122
0.00639122
0.00638593
0.00638593
0.00637915
0.00637915
0.00637097
0.00637097
0.00636144
0.00636144
0.00635064
0.00635064
0.00633864
0.00633864
0.00632551
0.00632551
0.00631131
0.00631131
0.00629611
0.00629611
0.00627998
0.00627998
0.00626296
0.00626296
0.00624513
0.00624513
0.00622653
0.00622653
0.00620723
0.00620723
0.00618727
0.00618727
0.00616672
0.00616672
0.0061456
0.0061456
0.00612399
0.00612399
0.00610191
0.00610191
0.00607941
0.00607941
0.00605652
0.00605652
0.0060333
0.0060333
0.00600976
0.00600976
0.00598596
0.00598596
0.00596191
0.00596191
0.00593764
0.00593764
0.00591319
0.00591319
0.00588858
0.00588858
0.00586383
0.00586383
0.00583897
0.00583897
0.00581402
0.00581402
0.00578899
0.00578899
0.0057639
0.0057639
0.00573878
0.00573878
0.00571362
0.00571362
0.00568845
0.00568845
0.00566327
0.00566327
0.0056381
0.0056381
0.00561294
0.00561294
0.00558779
0.00558779
0.00556267
0.00556267
0.00553757
0.00553757
0.0055125
0.0055125
0.00548747
0.00548747
0.00546247
0.00546247
0.00543751
0.00543751
0.00541259
0.00541259
0.0053877
0.0053877
0.00536286
0.00536286
0.00533805
0.00533805
0.00531329
0.00531329
0.00528857
0.00528857
0.00526389
0.00526389
0.00523925
0.00523925
0.00521465
0.00521465
0.00519008
0.00519008
0.00516554
0.00516554
0.00514103
0.00514103
0.00511654
0.00511654
0.00509207
0.00509207
0.0050676
0.0050676
0.00504315
0.00504315
0.00501869
0.00501869
0.00499423
0.00499423
0.00496976
0.00496976
0.00494527
0.00494527
0.00492075
0.00492075
0.00489622
0.00489622
0.00487165
0.00487165
0.00484705
0.00484705
0.00482242
0.00482242
0.00479775
0.00479775
0.00477304
0.00477304
0.00474829
0.00474829
0.00472348
0.00472348
0.00469863
0.00469863
0.00467371
0.00467371
0.00464874
0.00464874
0.0046237
0.0046237
0.00459859
0.00459859
0.0045734
0.0045734
0.00454813
0.00454813
0.00452278
0.00452278
0.00449733
0.00449733
0.00447177
0.00447177
0.00444611
0.00444611
0.00442032
0.00442032
0.0043944
0.0043944
0.00436833
0.00436833
0.0043421
0.0043421
0.00431571
0.00431571
0.00428915
0.00428915
0.00426242
0.00426242
0.00423553
0.00423553
0.00420846
0.00420846
0.00418124
0.00418124
0.00415384
0.00415384
0.00412629
0.00412629
0.00409856
0.00409856
0.00407066
0.00407066
0.00404257
0.00404257
0.00401429
0.00401429
0.00398581
0.00398581
0.00395711
0.00395711
0.00392819
0.00392819
0.00389903
0.00389903
0.00386965
0.00386965
0.00384002
0.00384002
0.00381017
0.00381017
0.00378007
0.00378007
0.00374975
0.00374975
0.00371919
0.00371919
0.0036884
0.0036884
0.00365738
0.00365738
0.0036261
0.0036261
0.00359457
0.00359457
0.00356277
0.00356277
0.00353068
0.00353068
0.00349828
0.00349828
0.00346558
0.00346558
0.00343256
0.00343256
0.00339925
0.00339925
0.00336564
0.00336564
0.00333174
0.00333174
0.00329753
0.00329753
0.00326301
0.00326301
0.00322815
0.00322815
0.00319293
0.00319293
0.00315733
0.00315733
0.00312134
0.00312134
0.00308493
0.00308493
0.0030481
0.0030481
0.00301084
0.00301084
0.00297315
0.00297315
0.00293503
0.00293503
0.00289647
0.00289647
0.00285749
0.00285749
0.00281808
0.00281808
0.00277825
0.00277825
0.00273802
0.00273802
0.0026974
0.0026974
0.00265641
0.00265641
0.00261507
0.00261507
0.00257339
0.00257339
0.00253142
0.00253142
0.00248918
0.00248918
0.0024467
0.0024467
0.002404
0.002404
0.00236113
0.00236113
0.00231812
0.00231812
0.00227499
0.00227499
0.00223177
0.00223177
0.00218849
0.00218849
0.00214516
0.00214516
0.0021018
0.0021018
0.00205844
0.00205844
0.0020151
0.0020151
0.00197183
0.00197183
0.00192869
0.00192869
0.00188575
0.00188575
0.0018431
0.0018431
0.00180083
0.00180083
0.00175904
0.00175904
0.00171787
0.00171787
0.00167744
0.00167744
0.00163792
0.00163792
0.00159945
0.00159945
0.0015622
0.0015622
0.00152634
0.00152634
0.00149205
0.00149205
0.0014595
0.0014595
0.00142887
0.00142887
0.00140036
0.00140036
0.00137411
0.00137411
0.00135031
0.00135031
0.00132908
0.00132908
0.00131059
0.00131059
0.00129492
0.00129492
0.00128219
0.00128219
0.00127248
0.00127248
0.0012659
0.0012659
0.00126255
0.00126255
1.6133e-11
1.6133e-11
4.8414e-10
4.8414e-10
3.47397e-09
3.47397e-09
1.28038e-08
1.28038e-08
3.35326e-08
3.35326e-08
7.17713e-08
7.17713e-08
1.34641e-07
1.34641e-07
2.30285e-07
2.30285e-07
3.67902e-07
3.67902e-07
5.57793e-07
5.57793e-07
8.11422e-07
8.11422e-07
1.14148e-06
1.14148e-06
1.56194e-06
1.56194e-06
2.08818e-06
2.08818e-06
2.737e-06
2.737e-06
3.52676e-06
3.52676e-06
4.47747e-06
4.47747e-06
5.61086e-06
5.61086e-06
6.9505e-06
6.9505e-06
8.52191e-06
8.52191e-06
1.03527e-05
1.03527e-05
1.24726e-05
1.24726e-05
1.49136e-05
1.49136e-05
1.77103e-05
1.77103e-05
2.08996e-05
2.08996e-05
2.45213e-05
2.45213e-05
2.8618e-05
2.8618e-05
3.3235e-05
3.3235e-05
3.84209e-05
3.84209e-05
4.42275e-05
4.42275e-05
5.07099e-05
5.07099e-05
5.79267e-05
5.79267e-05
6.59401e-05
6.59401e-05
7.48158e-05
7.48158e-05
8.46236e-05
8.46236e-05
9.54369e-05
9.54369e-05
0.000107333
0.000107333
0.000120394
0.000120394
0.000134704
0.000134704
0.000150353
0.000150353
0.000167434
0.000167434
0.000186044
0.000186044
0.000206283
0.000206283
0.000228254
0.000228254
0.000252065
0.000252065
0.000277823
0.000277823
0.00030564
0.00030564
0.000335628
0.000335628
0.0003679
0.0003679
0.000402568
0.000402568
0.000439746
0.000439746
0.00047954
0.00047954
0.000522059
0.000522059
0.000567402
0.000567402
0.000615666
0.000615666
0.000666938
0.000666938
0.000721296
0.000721296
0.000778808
0.000778808
0.00083953
0.00083953
0.000903504
0.000903504
0.000970757
0.000970757
0.0010413
0.0010413
0.00111513
0.00111513
0.00119221
0.00119221
0.00127251
0.00127251
0.00135596
0.00135596
0.00144247
0.00144247
0.00153196
0.00153196
0.0016243
0.0016243
0.00171936
0.00171936
0.00181698
0.00181698
0.00191701
0.00191701
0.00201925
0.00201925
0.00212354
0.00212354
0.00222966
0.00222966
0.00233742
0.00233742
0.00244661
0.00244661
0.00255701
0.00255701
0.00266842
0.00266842
0.00278062
0.00278062
0.00289339
0.00289339
0.00300654
0.00300654
0.00311984
0.00311984
0.00323311
0.00323311
0.00334614
0.00334614
0.00345875
0.00345875
0.00357075
0.00357075
0.00368197
0.00368197
0.00379223
0.00379223
0.00390137
0.00390137
0.00400925
0.00400925
0.0041157
0.0041157
0.0042206
0.0042206
0.00432381
0.00432381
0.00442521
0.00442521
0.00452467
0.00452467
0.00462209
0.00462209
0.00471737
0.00471737
0.00481041
0.00481041
0.00490113
0.00490113
0.00498944
0.00498944
0.00507527
0.00507527
0.00515856
0.00515856
0.00523924
0.00523924
0.00531726
0.00531726
0.00539258
0.00539258
0.00546515
0.00546515
0.00553494
0.00553494
0.00560193
0.00560193
0.00566608
0.00566608
0.0057274
0.0057274
0.00578586
0.00578586
0.00584147
0.00584147
0.00589423
0.00589423
0.00594414
0.00594414
0.00599122
0.00599122
0.00603549
0.00603549
0.00607697
0.00607697
0.00611568
0.00611568
0.00615167
0.00615167
0.00618496
0.00618496
0.0062156
0.0062156
0.00624364
0.00624364
0.00626911
0.00626911
0.00629209
0.00629209
0.00631261
0.00631261
0.00633074
0.00633074
0.00634654
0.00634654
0.00636007
0.00636007
0.00637141
0.00637141
0.00638061
0.00638061
0.00638774
0.00638774
0.00639288
0.00639288
0.0063961
0.0063961
0.00639747
0.00639747
0.00639707
0.00639707
0.00639496
0.00639496
0.00639122
0.00639122
0.00638593
0.00638593
0.00637915
0.00637915
0.00637097
0.00637097
0.00636144
0.00636144
0.00635064
0.00635064
0.00633864
0.00633864
0.00632551
0.00632551
0.00631131
0.00631131
0.00629611
0.00629611
0.00627998
0.00627998
0.00626296
0.00626296
0.00624513
0.00624513
0.00622653
0.00622653
0.00620723
0.00620723
0.00618727
0.00618727
0.00616672
0.00616672
0.0061456
0.0061456
0.00612399
0.00612399
0.00610191
0.00610191
0.00607941
0.00607941
0.00605652
0.00605652
0.0060333
0.0060333
0.00600976
0.00600976
0.00598596
0.00598596
0.00596191
0.00596191
0.00593764
0.00593764
0.00591319
0.00591319
0.00588858
0.00588858
0.00586383
0.00586383
0.00583897
0.00583897
0.00581402
0.00581402
0.00578899
0.00578899
0.0057639
0.0057639
0.00573878
0.00573878
0.00571362
0.00571362
0.00568845
0.00568845
0.00566327
0.00566327
0.0056381
0.0056381
0.00561293
0.00561293
0.00558779
0.00558779
0.00556267
0.00556267
0.00553757
0.00553757
0.0055125
0.0055125
0.00548747
0.00548747
0.00546247
0.00546247
0.00543751
0.00543751
0.00541259
0.00541259
0.0053877
0.0053877
0.00536286
0.00536286
0.00533805
0.00533805
0.00531329
0.00531329
0.00528857
0.00528857
0.00526389
0.00526389
0.00523925
0.00523925
0.00521465
0.00521465
0.00519008
0.00519008
0.00516554
0.00516554
0.00514103
0.00514103
0.00511654
0.00511654
0.00509207
0.00509207
0.0050676
0.0050676
0.00504315
0.00504315
0.00501869
0.00501869
0.00499423
0.00499423
0.00496976
0.00496976
0.00494526
0.00494526
0.00492075
0.00492075
0.00489622
0.00489622
0.00487165
0.00487165
0.00484705
0.00484705
0.00482242
0.00482242
0.00479775
0.00479775
0.00477304
0.00477304
0.00474828
0.00474828
0.00472348
0.00472348
0.00469863
0.00469863
0.00467371
0.00467371
0.00464874
0.00464874
0.0046237
0.0046237
0.00459859
0.00459859
0.0045734
0.0045734
0.00454813
0.00454813
0.00452278
0.00452278
0.00449733
0.00449733
0.00447177
0.00447177
0.00444611
0.00444611
0.00442032
0.00442032
0.00439439
0.00439439
0.00436833
0.00436833
0.0043421
0.0043421
0.00431571
0.00431571
0.00428915
0.00428915
0.00426242
0.00426242
0.00423553
0.00423553
0.00420846
0.00420846
0.00418124
0.00418124
0.00415384
0.00415384
0.00412629
0.00412629
0.00409856
0.00409856
0.00407066
0.00407066
0.00404257
0.00404257
0.00401429
0.00401429
0.00398581
0.00398581
0.00395711
0.00395711
0.00392819
0.00392819
0.00389903
0.00389903
0.00386965
0.00386965
0.00384002
0.00384002
0.00381017
0.00381017
0.00378007
0.00378007
0.00374975
0.00374975
0.00371919
0.00371919
0.0036884
0.0036884
0.00365738
0.00365738
0.0036261
0.0036261
0.00359457
0.00359457
0.00356277
0.00356277
0.00353067
0.00353067
0.00349828
0.00349828
0.00346558
0.00346558
0.00343256
0.00343256
0.00339925
0.00339925
0.00336564
0.00336564
0.00333174
0.00333174
0.00329753
0.00329753
0.00326301
0.00326301
0.00322815
0.00322815
0.00319293
0.00319293
0.00315733
0.00315733
0.00312134
0.00312134
0.00308493
0.00308493
0.0030481
0.0030481
0.00301084
0.00301084
0.00297315
0.00297315
0.00293503
0.00293503
0.00289647
0.00289647
0.00285749
0.00285749
0.00281808
0.00281808
0.00277825
0.00277825
0.00273802
0.00273802
0.0026974
0.0026974
0.00265641
0.00265641
0.00261507
0.00261507
0.00257339
0.00257339
0.00253142
0.00253142
0.00248918
0.00248918
0.0024467
0.0024467
0.002404
0.002404
0.00236113
0.00236113
0.00231812
0.00231812
0.00227499
0.00227499
0.00223177
0.00223177
0.00218849
0.00218849
0.00214516
0.00214516
0.0021018
0.0021018
0.00205844
0.00205844
0.0020151
0.0020151
0.00197183
0.00197183
0.00192869
0.00192869
0.00188575
0.00188575
0.0018431
0.0018431
0.00180083
0.00180083
0.00175904
0.00175904
0.00171787
0.00171787
0.00167744
0.00167744
0.00163792
0.00163792
0.00159945
0.00159945
0.0015622
0.0015622
0.00152634
0.00152634
0.00149205
0.00149205
0.0014595
0.0014595
0.00142888
0.00142888
0.00140036
0.00140036
0.00137412
0.00137412
0.00135031
0.00135031
0.00132908
0.00132908
0.00131059
0.00131059
0.00129492
0.00129492
0.00128219
0.00128219
0.00127248
0.00127248
0.00126591
0.00126591
0.00126255
0.00126255
0.00126255
0.00126255
0.0012659
0.0012659
0.00127248
0.00127248
0.00128219
0.00128219
0.00129492
0.00129492
0.00131059
0.00131059
0.00132908
0.00132908
0.00135031
0.00135031
0.00137412
0.00137412
0.00140036
0.00140036
0.00142887
0.00142887
0.0014595
0.0014595
0.00149205
0.00149205
0.00152634
0.00152634
0.0015622
0.0015622
0.00159945
0.00159945
0.00163792
0.00163792
0.00167744
0.00167744
0.00171787
0.00171787
0.00175904
0.00175904
0.00180083
0.00180083
0.0018431
0.0018431
0.00188576
0.00188576
0.00192869
0.00192869
0.00197183
0.00197183
0.0020151
0.0020151
0.00205844
0.00205844
0.0021018
0.0021018
0.00214516
0.00214516
0.00218849
0.00218849
0.00223177
0.00223177
0.00227499
0.00227499
0.00231812
0.00231812
0.00236113
0.00236113
0.002404
0.002404
0.0024467
0.0024467
0.00248918
0.00248918
0.00253142
0.00253142
0.00257339
0.00257339
0.00261507
0.00261507
0.00265641
0.00265641
0.0026974
0.0026974
0.00273802
0.00273802
0.00277825
0.00277825
0.00281808
0.00281808
0.00285748
0.00285748
0.00289647
0.00289647
0.00293503
0.00293503
0.00297315
0.00297315
0.00301084
0.00301084
0.0030481
0.0030481
0.00308493
0.00308493
0.00312133
0.00312133
0.00315733
0.00315733
0.00319293
0.00319293
0.00322815
0.00322815
0.00326301
0.00326301
0.00329753
0.00329753
0.00333174
0.00333174
0.00336564
0.00336564
0.00339925
0.00339925
0.00343256
0.00343256
0.00346557
0.00346557
0.00349828
0.00349828
0.00353067
0.00353067
0.00356277
0.00356277
0.00359457
0.00359457
0.0036261
0.0036261
0.00365738
0.00365738
0.0036884
0.0036884
0.00371919
0.00371919
0.00374975
0.00374975
0.00378007
0.00378007
0.00381016
0.00381016
0.00384002
0.00384002
0.00386965
0.00386965
0.00389903
0.00389903
0.00392819
0.00392819
0.00395711
0.00395711
0.00398581
0.00398581
0.00401429
0.00401429
0.00404257
0.00404257
0.00407066
0.00407066
0.00409856
0.00409856
0.00412628
0.00412628
0.00415384
0.00415384
0.00418123
0.00418123
0.00420846
0.00420846
0.00423552
0.00423552
0.00426242
0.00426242
0.00428915
0.00428915
0.00431571
0.00431571
0.0043421
0.0043421
0.00436832
0.00436832
0.00439439
0.00439439
0.00442032
0.00442032
0.00444611
0.00444611
0.00447177
0.00447177
0.00449733
0.00449733
0.00452278
0.00452278
0.00454813
0.00454813
0.0045734
0.0045734
0.00459858
0.00459858
0.0046237
0.0046237
0.00464874
0.00464874
0.00467371
0.00467371
0.00469862
0.00469862
0.00472348
0.00472348
0.00474828
0.00474828
0.00477304
0.00477304
0.00479775
0.00479775
0.00482242
0.00482242
0.00484705
0.00484705
0.00487165
0.00487165
0.00489621
0.00489621
0.00492075
0.00492075
0.00494526
0.00494526
0.00496975
0.00496975
0.00499423
0.00499423
0.00501869
0.00501869
0.00504315
0.00504315
0.0050676
0.0050676
0.00509206
0.00509206
0.00511654
0.00511654
0.00514103
0.00514103
0.00516554
0.00516554
0.00519008
0.00519008
0.00521464
0.00521464
0.00523925
0.00523925
0.00526389
0.00526389
0.00528857
0.00528857
0.00531329
0.00531329
0.00533805
0.00533805
0.00536286
0.00536286
0.0053877
0.0053877
0.00541258
0.00541258
0.00543751
0.00543751
0.00546247
0.00546247
0.00548747
0.00548747
0.0055125
0.0055125
0.00553757
0.00553757
0.00556266
0.00556266
0.00558778
0.00558778
0.00561293
0.00561293
0.00563809
0.00563809
0.00566327
0.00566327
0.00568844
0.00568844
0.00571362
0.00571362
0.00573877
0.00573877
0.0057639
0.0057639
0.00578899
0.00578899
0.00581401
0.00581401
0.00583897
0.00583897
0.00586383
0.00586383
0.00588858
0.00588858
0.00591319
0.00591319
0.00593764
0.00593764
0.0059619
0.0059619
0.00598595
0.00598595
0.00600976
0.00600976
0.00603329
0.00603329
0.00605652
0.00605652
0.0060794
0.0060794
0.0061019
0.0061019
0.00612398
0.00612398
0.0061456
0.0061456
0.00616671
0.00616671
0.00618726
0.00618726
0.00620722
0.00620722
0.00622652
0.00622652
0.00624512
0.00624512
0.00626295
0.00626295
0.00627997
0.00627997
0.00629611
0.00629611
0.00631131
0.00631131
0.00632551
0.00632551
0.00633864
0.00633864
0.00635063
0.00635063
0.00636143
0.00636143
0.00637096
0.00637096
0.00637915
0.00637915
0.00638592
0.00638592
0.00639121
0.00639121
0.00639495
0.00639495
0.00639706
0.00639706
0.00639746
0.00639746
0.00639609
0.00639609
0.00639287
0.00639287
0.00638773
0.00638773
0.00638059
0.00638059
0.00637139
0.00637139
0.00636006
0.00636006
0.00634652
0.00634652
0.00633072
0.00633072
0.00631259
0.00631259
0.00629207
0.00629207
0.0062691
0.0062691
0.00624362
0.00624362
0.00621558
0.00621558
0.00618494
0.00618494
0.00615165
0.00615165
0.00611567
0.00611567
0.00607695
0.00607695
0.00603548
0.00603548
0.00599121
0.00599121
0.00594413
0.00594413
0.00589422
0.00589422
0.00584146
0.00584146
0.00578585
0.00578585
0.00572739
0.00572739
0.00566607
0.00566607
0.00560191
0.00560191
0.00553492
0.00553492
0.00546513
0.00546513
0.00539256
0.00539256
0.00531725
0.00531725
0.00523922
0.00523922
0.00515854
0.00515854
0.00507526
0.00507526
0.00498942
0.00498942
0.00490111
0.00490111
0.0048104
0.0048104
0.00471735
0.00471735
0.00462208
0.00462208
0.00452465
0.00452465
0.00442519
0.00442519
0.0043238
0.0043238
0.00422059
0.00422059
0.00411569
0.00411569
0.00400923
0.00400923
0.00390135
0.00390135
0.00379221
0.00379221
0.00368195
0.00368195
0.00357073
0.00357073
0.00345873
0.00345873
0.00334612
0.00334612
0.00323309
0.00323309
0.00311982
0.00311982
0.00300652
0.00300652
0.00289337
0.00289337
0.0027806
0.0027806
0.0026684
0.0026684
0.00255699
0.00255699
0.00244659
0.00244659
0.0023374
0.0023374
0.00222965
0.00222965
0.00212352
0.00212352
0.00201924
0.00201924
0.00191699
0.00191699
0.00181697
0.00181697
0.00171935
0.00171935
0.0016243
0.0016243
0.00153196
0.00153196
0.00144247
0.00144247
0.00135595
0.00135595
0.0012725
0.0012725
0.00119221
0.00119221
0.00111512
0.00111512
0.0010413
0.0010413
0.000970757
0.000970757
0.000903504
0.000903504
0.00083953
0.00083953
0.000778809
0.000778809
0.000721297
0.000721297
0.000666939
0.000666939
0.000615668
0.000615668
0.000567404
0.000567404
0.00052206
0.00052206
0.000479542
0.000479542
0.000439747
0.000439747
0.00040257
0.00040257
0.000367901
0.000367901
0.000335629
0.000335629
0.000305641
0.000305641
0.000277824
0.000277824
0.000252066
0.000252066
0.000228255
0.000228255
0.000206284
0.000206284
0.000186045
0.000186045
0.000167435
0.000167435
0.000150354
0.000150354
0.000134705
0.000134705
0.000120394
0.000120394
0.000107334
0.000107334
9.54373e-05
9.54373e-05
8.46239e-05
8.46239e-05
7.48161e-05
7.48161e-05
6.59403e-05
6.59403e-05
5.79269e-05
5.79269e-05
5.07101e-05
5.07101e-05
4.42277e-05
4.42277e-05
3.84211e-05
3.84211e-05
3.32351e-05
3.32351e-05
2.86181e-05
2.86181e-05
2.45214e-05
2.45214e-05
2.08997e-05
2.08997e-05
1.77103e-05
1.77103e-05
1.49136e-05
1.49136e-05
1.24726e-05
1.24726e-05
1.03527e-05
1.03527e-05
8.52195e-06
8.52195e-06
6.95053e-06
6.95053e-06
5.61088e-06
5.61088e-06
4.47749e-06
4.47749e-06
3.52678e-06
3.52678e-06
2.73701e-06
2.73701e-06
2.08818e-06
2.08818e-06
1.56195e-06
1.56195e-06
1.14148e-06
1.14148e-06
8.11425e-07
8.11425e-07
5.57795e-07
5.57795e-07
3.67903e-07
3.67903e-07
2.30286e-07
2.30286e-07
1.34642e-07
1.34642e-07
7.17715e-08
7.17715e-08
3.35328e-08
3.35328e-08
1.28038e-08
1.28038e-08
3.47398e-09
3.47398e-09
4.84139e-10
4.84139e-10
1.61329e-11
1.61329e-11
0.00126255
0.00126255
0.00126591
0.00126591
0.00127249
0.00127249
0.00128219
0.00128219
0.00129492
0.00129492
0.00131059
0.00131059
0.00132908
0.00132908
0.00135031
0.00135031
0.00137412
0.00137412
0.00140036
0.00140036
0.00142887
0.00142887
0.0014595
0.0014595
0.00149205
0.00149205
0.00152634
0.00152634
0.0015622
0.0015622
0.00159945
0.00159945
0.00163792
0.00163792
0.00167744
0.00167744
0.00171787
0.00171787
0.00175904
0.00175904
0.00180083
0.00180083
0.0018431
0.0018431
0.00188576
0.00188576
0.00192869
0.00192869
0.00197183
0.00197183
0.0020151
0.0020151
0.00205844
0.00205844
0.0021018
0.0021018
0.00214516
0.00214516
0.00218849
0.00218849
0.00223177
0.00223177
0.00227499
0.00227499
0.00231812
0.00231812
0.00236113
0.00236113
0.002404
0.002404
0.0024467
0.0024467
0.00248918
0.00248918
0.00253142
0.00253142
0.00257339
0.00257339
0.00261507
0.00261507
0.00265641
0.00265641
0.0026974
0.0026974
0.00273802
0.00273802
0.00277825
0.00277825
0.00281808
0.00281808
0.00285748
0.00285748
0.00289647
0.00289647
0.00293503
0.00293503
0.00297315
0.00297315
0.00301084
0.00301084
0.0030481
0.0030481
0.00308493
0.00308493
0.00312133
0.00312133
0.00315733
0.00315733
0.00319293
0.00319293
0.00322815
0.00322815
0.00326301
0.00326301
0.00329753
0.00329753
0.00333174
0.00333174
0.00336564
0.00336564
0.00339925
0.00339925
0.00343256
0.00343256
0.00346557
0.00346557
0.00349828
0.00349828
0.00353067
0.00353067
0.00356277
0.00356277
0.00359457
0.00359457
0.0036261
0.0036261
0.00365738
0.00365738
0.0036884
0.0036884
0.00371919
0.00371919
0.00374975
0.00374975
0.00378007
0.00378007
0.00381016
0.00381016
0.00384002
0.00384002
0.00386965
0.00386965
0.00389903
0.00389903
0.00392819
0.00392819
0.00395711
0.00395711
0.00398581
0.00398581
0.00401429
0.00401429
0.00404257
0.00404257
0.00407066
0.00407066
0.00409856
0.00409856
0.00412628
0.00412628
0.00415384
0.00415384
0.00418123
0.00418123
0.00420846
0.00420846
0.00423552
0.00423552
0.00426242
0.00426242
0.00428915
0.00428915
0.00431571
0.00431571
0.0043421
0.0043421
0.00436832
0.00436832
0.00439439
0.00439439
0.00442032
0.00442032
0.00444611
0.00444611
0.00447177
0.00447177
0.00449733
0.00449733
0.00452278
0.00452278
0.00454813
0.00454813
0.0045734
0.0045734
0.00459858
0.00459858
0.0046237
0.0046237
0.00464874
0.00464874
0.00467371
0.00467371
0.00469862
0.00469862
0.00472348
0.00472348
0.00474828
0.00474828
0.00477304
0.00477304
0.00479775
0.00479775
0.00482242
0.00482242
0.00484705
0.00484705
0.00487165
0.00487165
0.00489621
0.00489621
0.00492075
0.00492075
0.00494526
0.00494526
0.00496975
0.00496975
0.00499423
0.00499423
0.00501869
0.00501869
0.00504315
0.00504315
0.0050676
0.0050676
0.00509206
0.00509206
0.00511654
0.00511654
0.00514103
0.00514103
0.00516554
0.00516554
0.00519008
0.00519008
0.00521464
0.00521464
0.00523925
0.00523925
0.00526389
0.00526389
0.00528857
0.00528857
0.00531329
0.00531329
0.00533805
0.00533805
0.00536286
0.00536286
0.0053877
0.0053877
0.00541258
0.00541258
0.00543751
0.00543751
0.00546247
0.00546247
0.00548747
0.00548747
0.0055125
0.0055125
0.00553757
0.00553757
0.00556266
0.00556266
0.00558778
0.00558778
0.00561293
0.00561293
0.00563809
0.00563809
0.00566327
0.00566327
0.00568844
0.00568844
0.00571362
0.00571362
0.00573877
0.00573877
0.0057639
0.0057639
0.00578899
0.00578899
0.00581401
0.00581401
0.00583897
0.00583897
0.00586383
0.00586383
0.00588858
0.00588858
0.00591319
0.00591319
0.00593764
0.00593764
0.0059619
0.0059619
0.00598595
0.00598595
0.00600976
0.00600976
0.00603329
0.00603329
0.00605652
0.00605652
0.0060794
0.0060794
0.0061019
0.0061019
0.00612398
0.00612398
0.0061456
0.0061456
0.00616671
0.00616671
0.00618726
0.00618726
0.00620722
0.00620722
0.00622652
0.00622652
0.00624512
0.00624512
0.00626295
0.00626295
0.00627997
0.00627997
0.00629611
0.00629611
0.00631131
0.00631131
0.00632551
0.00632551
0.00633864
0.00633864
0.00635063
0.00635063
0.00636143
0.00636143
0.00637096
0.00637096
0.00637914
0.00637914
0.00638592
0.00638592
0.00639121
0.00639121
0.00639495
0.00639495
0.00639706
0.00639706
0.00639746
0.00639746
0.00639609
0.00639609
0.00639287
0.00639287
0.00638773
0.00638773
0.00638059
0.00638059
0.00637139
0.00637139
0.00636006
0.00636006
0.00634652
0.00634652
0.00633072
0.00633072
0.00631259
0.00631259
0.00629207
0.00629207
0.0062691
0.0062691
0.00624362
0.00624362
0.00621558
0.00621558
0.00618494
0.00618494
0.00615165
0.00615165
0.00611567
0.00611567
0.00607695
0.00607695
0.00603548
0.00603548
0.00599121
0.00599121
0.00594413
0.00594413
0.00589422
0.00589422
0.00584146
0.00584146
0.00578585
0.00578585
0.00572738
0.00572738
0.00566607
0.00566607
0.00560191
0.00560191
0.00553492
0.00553492
0.00546513
0.00546513
0.00539256
0.00539256
0.00531724
0.00531724
0.00523922
0.00523922
0.00515854
0.00515854
0.00507526
0.00507526
0.00498942
0.00498942
0.00490111
0.00490111
0.0048104
0.0048104
0.00471735
0.00471735
0.00462208
0.00462208
0.00452465
0.00452465
0.00442519
0.00442519
0.00432379
0.00432379
0.00422059
0.00422059
0.00411569
0.00411569
0.00400923
0.00400923
0.00390135
0.00390135
0.00379221
0.00379221
0.00368195
0.00368195
0.00357073
0.00357073
0.00345873
0.00345873
0.00334612
0.00334612
0.00323309
0.00323309
0.00311982
0.00311982
0.00300652
0.00300652
0.00289337
0.00289337
0.0027806
0.0027806
0.0026684
0.0026684
0.00255699
0.00255699
0.00244659
0.00244659
0.0023374
0.0023374
0.00222965
0.00222965
0.00212352
0.00212352
0.00201924
0.00201924
0.00191699
0.00191699
0.00181697
0.00181697
0.00171935
0.00171935
0.0016243
0.0016243
0.00153196
0.00153196
0.00144247
0.00144247
0.00135595
0.00135595
0.0012725
0.0012725
0.00119221
0.00119221
0.00111512
0.00111512
0.0010413
0.0010413
0.000970757
0.000970757
0.000903504
0.000903504
0.00083953
0.00083953
0.000778809
0.000778809
0.000721297
0.000721297
0.000666939
0.000666939
0.000615667
0.000615667
0.000567404
0.000567404
0.00052206
0.00052206
0.000479542
0.000479542
0.000439747
0.000439747
0.00040257
0.00040257
0.000367901
0.000367901
0.000335629
0.000335629
0.000305641
0.000305641
0.000277824
0.000277824
0.000252066
0.000252066
0.000228255
0.000228255
0.000206284
0.000206284
0.000186045
0.000186045
0.000167435
0.000167435
0.000150354
0.000150354
0.000134705
0.000134705
0.000120394
0.000120394
0.000107334
0.000107334
9.54372e-05
9.54372e-05
8.46239e-05
8.46239e-05
7.48161e-05
7.48161e-05
6.59403e-05
6.59403e-05
5.79269e-05
5.79269e-05
5.07101e-05
5.07101e-05
4.42277e-05
4.42277e-05
3.84211e-05
3.84211e-05
3.32351e-05
3.32351e-05
2.86181e-05
2.86181e-05
2.45214e-05
2.45214e-05
2.08997e-05
2.08997e-05
1.77103e-05
1.77103e-05
1.49136e-05
1.49136e-05
1.24726e-05
1.24726e-05
1.03527e-05
1.03527e-05
8.52195e-06
8.52195e-06
6.95053e-06
6.95053e-06
5.61088e-06
5.61088e-06
4.47749e-06
4.47749e-06
3.52677e-06
3.52677e-06
2.737e-06
2.737e-06
2.08818e-06
2.08818e-06
1.56195e-06
1.56195e-06
1.14148e-06
1.14148e-06
8.11425e-07
8.11425e-07
5.57795e-07
5.57795e-07
3.67903e-07
3.67903e-07
2.30286e-07
2.30286e-07
1.34642e-07
1.34642e-07
7.17715e-08
7.17715e-08
3.35328e-08
3.35328e-08
1.28038e-08
1.28038e-08
3.47398e-09
3.47398e-09
4.84139e-10
4.84139e-10
1.61329e-11
1.61329e-11
)
;

boundaryField
{
    walls
    {
        type            kqRWallFunction;
        value           nonuniform List<scalar> 8(1.6133e-11 1.6133e-11 1.6133e-11 1.6133e-11 1.61329e-11 1.61329e-11 1.61329e-11 1.61329e-11);
    }
    inlet
    {
        type            cyclic;
    }
    outlet
    {
        type            cyclic;
    }
    sides
    {
        type            empty;
    }
}


// ************************************************************************* //
