/*--------------------------------*- C++ -*----------------------------------*\
| =========                 |                                                 |
| \\      /  F ield         | OpenFOAM: The Open Source CFD Toolbox           |
|  \\    /   O peration     | Version:  2012                                  |
|   \\  /    A nd           | Website:  www.openfoam.com                      |
|    \\/     M anipulation  |                                                 |
\*---------------------------------------------------------------------------*/
FoamFile
{
    version     2.0;
    format      ascii;
    class       surfaceScalarField;
    location    "19000";
    object      phi;
}
// * * * * * * * * * * * * * * * * * * * * * * * * * * * * * * * * * * * * * //

dimensions      [0 3 -1 0 0 0 0];
oriented        oriented;


internalField   nonuniform List<scalar> 
10236
(
4.09286e-09
-6.99763e-18
-2.00957e-23
-6.52076e-23
8.26601e-24
1.2397e-08
-6.99742e-18
-6.45319e-23
-2.01625e-22
-2.44487e-24
2.08812e-08
-6.99723e-18
-6.41705e-23
-3.32749e-22
-2.49921e-24
2.95486e-08
-6.99702e-18
-6.5573e-23
-4.7186e-22
-2.55504e-24
3.84023e-08
-6.9968e-18
-6.65478e-23
-6.16714e-22
-2.61243e-24
4.74455e-08
-6.99658e-18
-6.73069e-23
-7.52198e-22
-2.67143e-24
5.66814e-08
-6.99636e-18
-6.80822e-23
-8.98631e-22
-2.73215e-24
6.61134e-08
-6.99614e-18
-6.89105e-23
-1.05103e-21
-2.79466e-24
7.57448e-08
-6.9959e-18
-6.97698e-23
-1.19942e-21
-2.85892e-24
8.55791e-08
-6.99566e-18
-7.06466e-23
-1.35676e-21
-2.92506e-24
9.56197e-08
-6.99543e-18
-7.15359e-23
-1.49961e-21
-2.99306e-24
1.0587e-07
-6.99522e-18
-7.24354e-23
-1.63742e-21
-3.06297e-24
1.16334e-07
-6.99498e-18
-7.33441e-23
-1.78647e-21
-3.13492e-24
1.27015e-07
-6.99475e-18
-7.42617e-23
-1.9107e-21
-3.20893e-24
1.37916e-07
-6.99447e-18
-7.51882e-23
-2.06333e-21
-3.28508e-24
1.49042e-07
-6.99421e-18
-7.61239e-23
-2.21449e-21
-3.36328e-24
1.60397e-07
-6.99399e-18
-7.70687e-23
-2.38683e-21
-3.44355e-24
1.71983e-07
-6.99376e-18
-7.80226e-23
-2.53415e-21
-3.52577e-24
1.83806e-07
-6.99343e-18
-7.89856e-23
-2.68728e-21
-3.61019e-24
1.95868e-07
-6.99317e-18
-7.99579e-23
-2.89502e-21
-3.69679e-24
2.08175e-07
-6.99289e-18
-8.09393e-23
-3.08634e-21
-3.78546e-24
2.2073e-07
-6.99265e-18
-8.19299e-23
-3.2768e-21
-3.87642e-24
2.33537e-07
-6.99243e-18
-8.29294e-23
-3.42994e-21
-3.96957e-24
2.46601e-07
-6.99219e-18
-8.39378e-23
-3.63161e-21
-4.06513e-24
2.59926e-07
-6.99189e-18
-8.4955e-23
-3.82908e-21
-4.16333e-24
2.73516e-07
-6.99154e-18
-8.59808e-23
-4.09838e-21
-4.26417e-24
2.87375e-07
-6.99121e-18
-8.70154e-23
-4.28927e-21
-4.36745e-24
3.01509e-07
-6.99091e-18
-8.80586e-23
-4.53745e-21
-4.47351e-24
3.15922e-07
-6.99062e-18
-8.91101e-23
-4.73556e-21
-4.58246e-24
3.30618e-07
-6.99033e-18
-9.017e-23
-4.93443e-21
-4.69421e-24
3.45602e-07
-6.98999e-18
-9.1238e-23
-5.12329e-21
-4.80925e-24
3.60878e-07
-6.98974e-18
-9.23142e-23
-5.27296e-21
-4.92741e-24
3.76453e-07
-6.9895e-18
-9.33981e-23
-5.45113e-21
-5.04871e-24
3.92329e-07
-6.98925e-18
-9.44893e-23
-5.58992e-21
-5.17359e-24
4.08513e-07
-6.98887e-18
-9.55877e-23
-5.78572e-21
-5.30211e-24
4.25009e-07
-6.98862e-18
-9.66932e-23
-5.98196e-21
-5.43451e-24
4.41823e-07
-6.98831e-18
-9.78054e-23
-6.20143e-21
-5.57057e-24
4.58959e-07
-6.98798e-18
-9.89249e-23
-6.393e-21
-5.71051e-24
4.76422e-07
-6.98767e-18
-1.00051e-22
-6.65389e-21
-5.85467e-24
4.94218e-07
-6.9874e-18
-1.01183e-22
-6.86873e-21
-6.00267e-24
5.12352e-07
-6.98705e-18
-1.02322e-22
-7.15483e-21
-6.15446e-24
5.3083e-07
-6.98674e-18
-1.03466e-22
-7.32641e-21
-6.30982e-24
5.49655e-07
-6.9863e-18
-1.04616e-22
-7.58983e-21
-6.46961e-24
5.68835e-07
-6.98607e-18
-1.05771e-22
-7.9148e-21
-6.63407e-24
5.88374e-07
-6.98575e-18
-1.0693e-22
-8.20446e-21
-6.80235e-24
6.08278e-07
-6.98528e-18
-1.08093e-22
-8.51164e-21
-6.97476e-24
6.28552e-07
-6.98493e-18
-1.0926e-22
-8.77777e-21
-7.15166e-24
6.49202e-07
-6.98462e-18
-1.10429e-22
-9.20445e-21
-7.33292e-24
6.70233e-07
-6.98418e-18
-1.11601e-22
-9.47203e-21
-7.51789e-24
6.91651e-07
-6.98374e-18
-1.12775e-22
-9.87104e-21
-7.70778e-24
7.1346e-07
-6.98323e-18
-1.1395e-22
-1.02367e-20
-7.90027e-24
7.35667e-07
-6.98292e-18
-1.15126e-22
-1.06538e-20
-8.09501e-24
7.58278e-07
-6.98241e-18
-1.16302e-22
-1.09995e-20
-8.2916e-24
7.81296e-07
-6.98202e-18
-1.17479e-22
-1.12655e-20
-8.49119e-24
8.04729e-07
-6.98168e-18
-1.18654e-22
-1.14604e-20
-8.69327e-24
8.2858e-07
-6.98138e-18
-1.19827e-22
-1.15832e-20
-8.89955e-24
8.52857e-07
-6.98107e-18
-1.20994e-22
-1.17193e-20
-9.11045e-24
8.77562e-07
-6.98078e-18
-1.22156e-22
-1.18359e-20
-9.32518e-24
9.02703e-07
-6.98042e-18
-1.23309e-22
-1.1992e-20
-9.5445e-24
9.28284e-07
-6.98012e-18
-1.24454e-22
-1.20882e-20
-9.76898e-24
9.54309e-07
-6.9795e-18
-1.25588e-22
-1.24892e-20
-9.99714e-24
9.80784e-07
-6.97929e-18
-1.26711e-22
-1.24433e-20
-1.02277e-23
1.00771e-06
-6.9789e-18
-1.27819e-22
-1.24848e-20
-1.04641e-23
1.0351e-06
-6.9786e-18
-1.28914e-22
-1.2353e-20
-1.07028e-23
1.06295e-06
-6.97804e-18
-1.29993e-22
-1.26379e-20
-1.09456e-23
1.09127e-06
-6.97758e-18
-1.31054e-22
-1.29565e-20
-1.11912e-23
1.12006e-06
-6.97717e-18
-1.32096e-22
-1.3313e-20
-1.14387e-23
1.14933e-06
-6.9767e-18
-1.33116e-22
-1.36407e-20
-1.16891e-23
1.17907e-06
-6.97585e-18
-1.3411e-22
-1.42579e-20
-1.19438e-23
1.2093e-06
-6.97545e-18
-1.3508e-22
-1.4479e-20
-1.2198e-23
1.24001e-06
-6.97481e-18
-1.36017e-22
-1.48874e-20
-1.24559e-23
1.27121e-06
-6.97454e-18
-1.36924e-22
-1.52611e-20
-1.27159e-23
1.3029e-06
-6.97402e-18
-1.37795e-22
-1.57971e-20
-1.29781e-23
1.33509e-06
-6.9733e-18
-1.3863e-22
-1.62026e-20
-1.32413e-23
1.36777e-06
-6.97265e-18
-1.3943e-22
-1.66651e-20
-1.35059e-23
1.40095e-06
-6.97216e-18
-1.40194e-22
-1.70266e-20
-1.37708e-23
1.43462e-06
-6.97149e-18
-1.40918e-22
-1.75458e-20
-1.40339e-23
1.4688e-06
-6.97073e-18
-1.41602e-22
-1.79561e-20
-1.4292e-23
1.50347e-06
-6.97005e-18
-1.42243e-22
-1.86589e-20
-1.45489e-23
1.53865e-06
-6.96924e-18
-1.42838e-22
-1.91525e-20
-1.48032e-23
1.57433e-06
-6.96841e-18
-1.43386e-22
-1.94653e-20
-1.50524e-23
1.61051e-06
-6.96772e-18
-1.43884e-22
-2.00192e-20
-1.52994e-23
1.64719e-06
-6.96695e-18
-1.44328e-22
-2.06834e-20
-1.55449e-23
1.68437e-06
-6.96656e-18
-1.44718e-22
-2.08036e-20
-1.5787e-23
1.72205e-06
-6.96636e-18
-1.45049e-22
-2.10428e-20
-1.60309e-23
1.76023e-06
-6.96632e-18
-1.45318e-22
-2.13133e-20
-1.62687e-23
1.79891e-06
-6.9663e-18
-1.45521e-22
-2.12207e-20
-1.64992e-23
1.83808e-06
-6.96578e-18
-1.45654e-22
-2.16943e-20
-1.6729e-23
1.87774e-06
-6.96534e-18
-1.45721e-22
-2.18358e-20
-1.69539e-23
1.9179e-06
-6.96454e-18
-1.45718e-22
-2.1979e-20
-1.71743e-23
1.95854e-06
-6.96414e-18
-1.45649e-22
-2.22575e-20
-1.739e-23
1.99967e-06
-6.9637e-18
-1.45515e-22
-2.24395e-20
-1.759e-23
2.04128e-06
-6.96332e-18
-1.4531e-22
-2.25283e-20
-1.77792e-23
2.08337e-06
-6.96259e-18
-1.45032e-22
-2.27303e-20
-1.79604e-23
2.12594e-06
-6.96236e-18
-1.44685e-22
-2.23418e-20
-1.81354e-23
2.16898e-06
-6.96216e-18
-1.44263e-22
-2.19845e-20
-1.8307e-23
2.2125e-06
-6.96177e-18
-1.43763e-22
-2.23868e-20
-1.8475e-23
2.25648e-06
-6.96128e-18
-1.43185e-22
-2.2568e-20
-1.86317e-23
2.30093e-06
-6.96083e-18
-1.42529e-22
-2.29704e-20
-1.87825e-23
2.34583e-06
-6.9599e-18
-1.41792e-22
-2.30655e-20
-1.89206e-23
2.3912e-06
-6.9592e-18
-1.40986e-22
-2.33365e-20
-1.90458e-23
2.43702e-06
-6.95881e-18
-1.40107e-22
-2.37062e-20
-1.91607e-23
2.48329e-06
-6.95797e-18
-1.39152e-22
-2.40128e-20
-1.92717e-23
2.53001e-06
-6.95735e-18
-1.38131e-22
-2.41981e-20
-1.93741e-23
2.57718e-06
-6.95598e-18
-1.37035e-22
-2.44487e-20
-1.94662e-23
2.62478e-06
-6.95516e-18
-1.35871e-22
-2.48919e-20
-1.95467e-23
2.67283e-06
-6.95451e-18
-1.34646e-22
-2.53389e-20
-1.96128e-23
2.72132e-06
-6.95345e-18
-1.33346e-22
-2.55084e-20
-1.96798e-23
2.77024e-06
-6.95298e-18
-1.31982e-22
-2.58017e-20
-1.9739e-23
2.81959e-06
-6.95204e-18
-1.30553e-22
-2.56412e-20
-1.97866e-23
2.86937e-06
-6.95122e-18
-1.29061e-22
-2.6302e-20
-1.98277e-23
2.91959e-06
-6.95064e-18
-1.27494e-22
-2.652e-20
-1.98592e-23
2.97023e-06
-6.94981e-18
-1.25854e-22
-2.70664e-20
-1.98953e-23
3.02129e-06
-6.94811e-18
-1.24152e-22
-2.75449e-20
-1.99135e-23
3.07278e-06
-6.94711e-18
-1.22404e-22
-2.84608e-20
-1.99129e-23
3.12469e-06
-6.94609e-18
-1.20607e-22
-2.87638e-20
-1.98912e-23
3.17703e-06
-6.94544e-18
-1.1876e-22
-2.94836e-20
-1.98471e-23
3.22979e-06
-6.94367e-18
-1.16851e-22
-2.976e-20
-1.97834e-23
3.28296e-06
-6.94276e-18
-1.14911e-22
-3.05257e-20
-1.97065e-23
3.33656e-06
-6.94201e-18
-1.12927e-22
-3.11248e-20
-1.96113e-23
3.39058e-06
-6.94069e-18
-1.109e-22
-3.17291e-20
-1.94774e-23
3.44503e-06
-6.94013e-18
-1.08838e-22
-3.22748e-20
-1.9315e-23
3.49989e-06
-6.93892e-18
-1.0673e-22
-3.29955e-20
-1.91368e-23
3.55518e-06
-6.93777e-18
-1.04575e-22
-3.41973e-20
-1.89315e-23
3.61089e-06
-6.93719e-18
-1.02379e-22
-3.45522e-20
-1.86905e-23
3.66702e-06
-6.937e-18
-1.00135e-22
-3.52825e-20
-1.84188e-23
3.72358e-06
-6.93608e-18
-9.78349e-23
-3.59113e-20
-1.8125e-23
3.78057e-06
-6.93736e-18
-9.54928e-23
-3.58448e-20
-1.78123e-23
3.83799e-06
-6.93763e-18
-9.30776e-23
-3.56438e-20
-1.74795e-23
3.89583e-06
-6.93716e-18
-9.0618e-23
-3.5558e-20
-1.71227e-23
3.95411e-06
-6.93675e-18
-8.81167e-23
-3.48336e-20
-1.67322e-23
4.01283e-06
-6.93642e-18
-8.55821e-23
-3.43178e-20
-1.6314e-23
4.07198e-06
-6.93662e-18
-8.30004e-23
-3.36902e-20
-1.58651e-23
4.13158e-06
-6.93623e-18
-8.03726e-23
-3.30419e-20
-1.53849e-23
4.19161e-06
-6.93563e-18
-7.77195e-23
-3.293e-20
-1.48602e-23
4.25209e-06
-6.9353e-18
-7.50418e-23
-3.2711e-20
-1.42984e-23
4.31302e-06
-6.93537e-18
-7.23362e-23
-3.23318e-20
-1.3705e-23
4.37441e-06
-6.93392e-18
-6.9594e-23
-3.18421e-20
-1.30841e-23
4.43624e-06
-6.93351e-18
-6.68375e-23
-3.13907e-20
-1.24144e-23
4.49854e-06
-6.93371e-18
-6.40621e-23
-3.09502e-20
-1.16774e-23
4.5613e-06
-6.93315e-18
-6.12603e-23
-3.06426e-20
-1.08696e-23
4.62452e-06
-6.93241e-18
-5.84379e-23
-3.08769e-20
-1.00186e-23
4.68821e-06
-6.93176e-18
-5.56021e-23
-3.04112e-20
-9.10665e-24
4.75238e-06
-6.93182e-18
-5.27228e-23
-3.04099e-20
-8.13478e-24
4.81703e-06
-6.93137e-18
-4.98124e-23
-2.97466e-20
-7.11676e-24
4.88215e-06
-6.93048e-18
-4.68721e-23
-2.94994e-20
-6.06993e-24
4.94777e-06
-6.92975e-18
-4.39355e-23
-2.92268e-20
-4.97475e-24
5.01387e-06
-6.92942e-18
-4.09786e-23
-2.82895e-20
-3.84607e-24
5.08047e-06
-6.92861e-18
-3.79881e-23
-2.92425e-20
-2.68613e-24
5.14757e-06
-6.92867e-18
-3.49728e-23
-2.88041e-20
-1.44699e-24
5.21517e-06
-6.92843e-18
-3.19082e-23
-2.78814e-20
-1.6941e-25
5.28328e-06
-6.9276e-18
-2.88184e-23
-2.84236e-20
1.121e-24
5.35191e-06
-6.9273e-18
-2.57129e-23
-2.82309e-20
2.45599e-24
5.42105e-06
-6.9266e-18
-2.25567e-23
-2.8332e-20
3.8497e-24
5.49072e-06
-6.92556e-18
-1.93536e-23
-2.69742e-20
5.26947e-24
5.56092e-06
-6.92533e-18
-1.61193e-23
-2.74183e-20
6.67933e-24
5.63165e-06
-6.92409e-18
-1.28471e-23
-2.71198e-20
8.12551e-24
5.70292e-06
-6.9244e-18
-9.58226e-24
-2.72312e-20
9.62431e-24
5.77473e-06
-6.92522e-18
-6.31752e-24
-2.72677e-20
1.12031e-23
5.84709e-06
-6.92525e-18
-3.0537e-24
-2.71233e-20
1.28646e-23
5.92001e-06
-6.92549e-18
1.88607e-25
-2.74025e-20
1.46112e-23
5.99349e-06
-6.926e-18
3.41679e-24
-2.74647e-20
1.64402e-23
6.06753e-06
-6.92607e-18
6.6514e-24
-2.62362e-20
1.84184e-23
6.14215e-06
-6.92555e-18
9.87695e-24
-2.42399e-20
2.04559e-23
6.21734e-06
-6.92548e-18
1.31035e-23
-2.4719e-20
2.25146e-23
6.29312e-06
-6.92491e-18
1.6336e-23
-2.55482e-20
2.46389e-23
6.36948e-06
-6.92518e-18
1.95796e-23
-2.4821e-20
2.685e-23
6.44644e-06
-6.92451e-18
2.28496e-23
-2.48426e-20
2.91072e-23
6.524e-06
-6.92501e-18
2.61001e-23
-2.44136e-20
3.14394e-23
6.60216e-06
-6.92576e-18
2.93315e-23
-2.47152e-20
3.39059e-23
6.68094e-06
-6.92562e-18
3.25607e-23
-2.37941e-20
3.64348e-23
6.76034e-06
-6.92619e-18
3.58159e-23
-2.34616e-20
3.90152e-23
6.84036e-06
-6.92505e-18
3.91015e-23
-2.44823e-20
4.16886e-23
6.92101e-06
-6.92479e-18
4.23812e-23
-2.5183e-20
4.44685e-23
7.00229e-06
-6.92413e-18
4.5669e-23
-2.52218e-20
4.73626e-23
7.08422e-06
-6.92419e-18
4.89688e-23
-2.62692e-20
5.03126e-23
7.1668e-06
-6.92345e-18
5.22306e-23
-2.86405e-20
5.33982e-23
7.25004e-06
-6.92233e-18
5.54885e-23
-2.95753e-20
5.66581e-23
7.33393e-06
-6.92172e-18
5.87389e-23
-3.02318e-20
5.99941e-23
7.41849e-06
-6.92145e-18
6.19761e-23
-3.12181e-20
6.34175e-23
7.50373e-06
-6.92176e-18
6.51435e-23
-3.01127e-20
6.7014e-23
7.58965e-06
-6.92282e-18
6.83585e-23
-2.9481e-20
7.06807e-23
7.67626e-06
-6.92302e-18
7.15799e-23
-3.01321e-20
7.44757e-23
7.76356e-06
-6.92374e-18
7.48595e-23
-3.06666e-20
7.82388e-23
7.85156e-06
-6.92294e-18
7.8264e-23
-2.99274e-20
8.20129e-23
7.94027e-06
-6.92216e-18
8.17615e-23
-3.00142e-20
8.57463e-23
8.02969e-06
-6.92183e-18
8.53026e-23
-3.15876e-20
8.94204e-23
8.11983e-06
-6.92294e-18
8.8909e-23
-3.19809e-20
9.3169e-23
8.2107e-06
-6.92148e-18
9.26676e-23
-3.20596e-20
9.69509e-23
8.30231e-06
-6.92218e-18
9.65456e-23
-3.01317e-20
1.00685e-22
8.39466e-06
-6.92174e-18
1.00513e-22
-3.34939e-20
1.04357e-22
8.48775e-06
-6.92048e-18
1.04495e-22
-3.26233e-20
1.08176e-22
8.5816e-06
-6.92229e-18
1.0849e-22
-3.59264e-20
1.12077e-22
8.67622e-06
-6.92268e-18
1.12635e-22
-3.69813e-20
1.16087e-22
8.7716e-06
-6.92457e-18
1.16895e-22
-3.79776e-20
1.19999e-22
8.86776e-06
-6.92569e-18
1.21249e-22
-3.88062e-20
1.24008e-22
8.9647e-06
-6.92658e-18
1.25663e-22
-3.68951e-20
1.28116e-22
9.06243e-06
-6.92825e-18
1.30132e-22
-3.61403e-20
1.32242e-22
9.16097e-06
-6.92825e-18
1.34626e-22
-3.55227e-20
1.36465e-22
9.2603e-06
-6.93019e-18
1.3914e-22
-3.6826e-20
1.408e-22
9.36045e-06
-6.92828e-18
1.43753e-22
-3.91478e-20
1.45339e-22
9.46143e-06
-6.92992e-18
1.48354e-22
-4.03385e-20
1.50057e-22
9.56322e-06
-6.92846e-18
1.53018e-22
-4.4186e-20
1.55032e-22
9.66586e-06
-6.92799e-18
1.57547e-22
-4.45936e-20
1.60397e-22
9.76933e-06
-6.92935e-18
1.62056e-22
-4.61154e-20
1.65852e-22
9.87366e-06
-6.92949e-18
1.66528e-22
-4.73256e-20
1.71535e-22
9.97885e-06
-6.93153e-18
1.71029e-22
-5.00255e-20
1.77467e-22
1.00849e-05
-6.92976e-18
1.7563e-22
-5.21602e-20
1.83727e-22
1.01918e-05
-6.93204e-18
1.80091e-22
-5.32476e-20
1.90354e-22
1.02996e-05
-6.9314e-18
1.84548e-22
-5.46846e-20
1.97276e-22
1.04083e-05
-6.93082e-18
1.88875e-22
-5.49597e-20
2.04539e-22
1.05179e-05
-6.93169e-18
1.93072e-22
-5.38516e-20
2.12073e-22
1.06284e-05
-6.93101e-18
1.97276e-22
-5.49811e-20
2.19834e-22
1.07398e-05
-6.93329e-18
2.0144e-22
-5.14244e-20
2.27745e-22
1.08521e-05
-6.93339e-18
2.05591e-22
-5.18399e-20
2.35615e-22
1.09654e-05
-6.93045e-18
2.09695e-22
-5.43909e-20
2.43755e-22
1.10796e-05
-6.93208e-18
2.13669e-22
-5.30991e-20
2.52248e-22
1.11947e-05
-6.92984e-18
2.17651e-22
-5.50174e-20
2.60755e-22
1.13108e-05
-6.92948e-18
2.2141e-22
-5.69925e-20
2.69579e-22
1.14279e-05
-6.92802e-18
2.249e-22
-5.69137e-20
2.78708e-22
1.15459e-05
-6.92654e-18
2.2811e-22
-5.47918e-20
2.87938e-22
1.16649e-05
-6.92525e-18
2.3099e-22
-5.43449e-20
2.97271e-22
1.17849e-05
-6.92589e-18
2.33352e-22
-5.42484e-20
3.06989e-22
1.19059e-05
-6.92463e-18
2.35552e-22
-5.51078e-20
3.16732e-22
1.20279e-05
-6.92361e-18
2.37411e-22
-5.52083e-20
3.26752e-22
1.21509e-05
-6.92203e-18
2.38942e-22
-5.5268e-20
3.36948e-22
1.22749e-05
-6.921e-18
2.40185e-22
-5.5812e-20
3.47205e-22
1.24e-05
-6.92169e-18
2.41107e-22
-5.36425e-20
3.57541e-22
1.25261e-05
-6.92353e-18
2.41845e-22
-5.29498e-20
3.67748e-22
1.26532e-05
-6.92481e-18
2.42488e-22
-5.14625e-20
3.78127e-22
1.27814e-05
-6.92684e-18
2.42992e-22
-5.00067e-20
3.88438e-22
1.29107e-05
-6.93114e-18
2.43358e-22
-4.81416e-20
3.98815e-22
1.3041e-05
-6.9315e-18
2.43479e-22
-4.78666e-20
4.09561e-22
1.31724e-05
-6.9355e-18
2.43406e-22
-4.68394e-20
4.20403e-22
1.33049e-05
-6.93757e-18
2.43356e-22
-4.30032e-20
4.31188e-22
1.34385e-05
-6.9366e-18
2.43173e-22
-4.30372e-20
4.41752e-22
1.35733e-05
-6.93703e-18
2.42634e-22
-4.30207e-20
4.52414e-22
1.37091e-05
-6.94138e-18
2.41931e-22
-3.84391e-20
4.63222e-22
1.38461e-05
-6.94275e-18
2.41253e-22
-3.67025e-20
4.73693e-22
1.39842e-05
-6.94377e-18
2.40299e-22
-3.57671e-20
4.84171e-22
1.41235e-05
-6.94314e-18
2.39453e-22
-3.60701e-20
4.94709e-22
1.42639e-05
-6.9433e-18
2.38246e-22
-3.43283e-20
5.05205e-22
1.44055e-05
-6.94435e-18
2.36815e-22
-3.3188e-20
5.15608e-22
1.45482e-05
-6.94372e-18
2.35361e-22
-3.02368e-20
5.25949e-22
1.46922e-05
-6.94411e-18
2.33655e-22
-3.05591e-20
5.35862e-22
1.48373e-05
-6.94326e-18
2.31782e-22
-2.8904e-20
5.45634e-22
1.49837e-05
-6.94173e-18
2.29611e-22
-3.00618e-20
5.55169e-22
1.51313e-05
-6.94044e-18
2.27392e-22
-2.98924e-20
5.64432e-22
1.52801e-05
-6.94313e-18
2.25071e-22
-2.77289e-20
5.73357e-22
1.54301e-05
-6.9449e-18
2.22939e-22
-3.03361e-20
5.82099e-22
1.55814e-05
-6.94599e-18
2.20978e-22
-3.36547e-20
5.91092e-22
1.57339e-05
-6.94877e-18
2.1893e-22
-3.24824e-20
6.00082e-22
1.58877e-05
-6.94666e-18
2.17059e-22
-3.62925e-20
6.08717e-22
1.60428e-05
-6.94616e-18
2.15208e-22
-3.8271e-20
6.175e-22
1.61992e-05
-6.94704e-18
2.13461e-22
-4.36976e-20
6.25994e-22
1.63569e-05
-6.94754e-18
2.11905e-22
-4.64525e-20
6.34128e-22
1.65158e-05
-6.94655e-18
2.10349e-22
-4.99779e-20
6.426e-22
1.66761e-05
-6.94353e-18
2.0882e-22
-5.64201e-20
6.51425e-22
1.68378e-05
-6.94397e-18
2.06908e-22
-5.92857e-20
6.60441e-22
1.70007e-05
-6.94087e-18
2.05191e-22
-6.80338e-20
6.69448e-22
1.71651e-05
-6.93845e-18
2.03555e-22
-7.17646e-20
6.78685e-22
1.73307e-05
-6.93916e-18
2.01943e-22
-7.57362e-20
6.87919e-22
1.74978e-05
-6.93485e-18
2.00664e-22
-7.99183e-20
6.97553e-22
1.76662e-05
-6.93864e-18
1.99385e-22
-8.3638e-20
7.07067e-22
1.78361e-05
-6.9341e-18
1.99066e-22
-8.76307e-20
7.16392e-22
1.80073e-05
-6.93171e-18
1.98577e-22
-9.498e-20
7.25096e-22
1.818e-05
-6.93124e-18
1.9824e-22
-1.00203e-19
7.33778e-22
1.83541e-05
-6.92745e-18
1.98462e-22
-1.04564e-19
7.42404e-22
1.85296e-05
-6.92556e-18
1.98519e-22
-1.10223e-19
7.50937e-22
1.87066e-05
-6.92028e-18
1.98367e-22
-1.13731e-19
7.59889e-22
1.8885e-05
-6.91735e-18
1.97159e-22
-1.17827e-19
7.69104e-22
1.9065e-05
-6.91381e-18
1.95341e-22
-1.21415e-19
7.79055e-22
1.92464e-05
-6.90613e-18
1.92526e-22
-1.29406e-19
7.89307e-22
1.94293e-05
-6.90469e-18
1.88157e-22
-1.33779e-19
8.00239e-22
1.96137e-05
-6.89833e-18
1.8257e-22
-1.41016e-19
8.12326e-22
1.97996e-05
-6.89335e-18
1.75147e-22
-1.48548e-19
8.25546e-22
1.99871e-05
-6.89304e-18
1.65918e-22
-1.49404e-19
8.40103e-22
2.01761e-05
-6.88772e-18
1.55651e-22
-1.56996e-19
8.55517e-22
2.03667e-05
-6.88377e-18
1.43513e-22
-1.6092e-19
8.73045e-22
2.05589e-05
-6.88363e-18
1.29896e-22
-1.60892e-19
8.9147e-22
2.07526e-05
-6.88154e-18
1.15578e-22
-1.62359e-19
9.1011e-22
2.0948e-05
-6.88179e-18
1.00361e-22
-1.64673e-19
9.29222e-22
2.11449e-05
-6.87652e-18
8.47421e-23
-1.66389e-19
9.48583e-22
2.13435e-05
-6.87427e-18
6.77727e-23
-1.6874e-19
9.68628e-22
2.15437e-05
-6.87086e-18
4.95168e-23
-1.72711e-19
9.89608e-22
2.17455e-05
-6.86886e-18
3.00432e-23
-1.76332e-19
1.01087e-21
2.1949e-05
-6.87025e-18
9.29276e-24
-1.74656e-19
1.03262e-21
2.21542e-05
-6.87156e-18
-1.22156e-23
-1.75872e-19
1.05417e-21
2.23611e-05
-6.87389e-18
-3.45207e-23
-1.75459e-19
1.07604e-21
2.25696e-05
-6.87106e-18
-5.7801e-23
-1.76884e-19
1.09814e-21
2.27799e-05
-6.86986e-18
-8.25252e-23
-1.809e-19
1.12043e-21
2.29919e-05
-6.86906e-18
-1.07156e-22
-1.83091e-19
1.14156e-21
2.32056e-05
-6.86597e-18
-1.32077e-22
-1.84287e-19
1.16292e-21
2.34211e-05
-6.8656e-18
-1.57894e-22
-1.88252e-19
1.18384e-21
2.36384e-05
-6.86362e-18
-1.8391e-22
-1.92292e-19
1.20487e-21
2.38574e-05
-6.85988e-18
-2.10993e-22
-1.96462e-19
1.22552e-21
2.40782e-05
-6.85535e-18
-2.39707e-22
-1.98475e-19
1.24674e-21
2.43009e-05
-6.85454e-18
-2.68945e-22
-2.02729e-19
1.26744e-21
2.45253e-05
-6.85322e-18
-2.98687e-22
-2.05143e-19
1.28824e-21
2.47516e-05
-6.84897e-18
-3.28433e-22
-2.08777e-19
1.30947e-21
2.49798e-05
-6.84941e-18
-3.5889e-22
-2.0893e-19
1.33116e-21
2.52098e-05
-6.84352e-18
-3.89991e-22
-2.1344e-19
1.35171e-21
2.54416e-05
-6.84334e-18
-4.22826e-22
-2.1487e-19
1.37191e-21
2.56754e-05
-6.84144e-18
-4.5473e-22
-2.21173e-19
1.39209e-21
2.59111e-05
-6.83682e-18
-4.85724e-22
-2.27491e-19
1.41194e-21
2.61487e-05
-6.84015e-18
-5.18905e-22
-2.30148e-19
1.43139e-21
2.63882e-05
-6.83625e-18
-5.51505e-22
-2.33542e-19
1.45009e-21
2.66297e-05
-6.82884e-18
-5.85353e-22
-2.41877e-19
1.46813e-21
2.68732e-05
-6.82814e-18
-6.20459e-22
-2.47149e-19
1.486e-21
2.71186e-05
-6.82317e-18
-6.56523e-22
-2.54402e-19
1.50314e-21
2.73661e-05
-6.8185e-18
-6.92604e-22
-2.61504e-19
1.51993e-21
2.76155e-05
-6.81538e-18
-7.28779e-22
-2.68564e-19
1.53717e-21
2.7867e-05
-6.8099e-18
-7.66347e-22
-2.75623e-19
1.55446e-21
2.81205e-05
-6.8041e-18
-8.04214e-22
-2.76035e-19
1.57182e-21
2.83761e-05
-6.8041e-18
-8.44058e-22
-2.82526e-19
1.58843e-21
2.86337e-05
-6.79816e-18
-8.83107e-22
-2.8985e-19
1.60454e-21
2.88935e-05
-6.79483e-18
-9.22494e-22
-2.98553e-19
1.62028e-21
2.91553e-05
-6.79107e-18
-9.63352e-22
-3.05161e-19
1.63662e-21
2.94193e-05
-6.78284e-18
-1.00374e-21
-3.15659e-19
1.65131e-21
2.96854e-05
-6.77873e-18
-1.04514e-21
-3.2547e-19
1.665e-21
2.99536e-05
-6.77321e-18
-1.08719e-21
-3.34014e-19
1.67926e-21
3.02241e-05
-6.76513e-18
-1.13058e-21
-3.41737e-19
1.6937e-21
3.04967e-05
-6.75546e-18
-1.17489e-21
-3.47083e-19
1.70732e-21
3.07715e-05
-6.75014e-18
-1.22085e-21
-3.59989e-19
1.71868e-21
3.10486e-05
-6.73747e-18
-1.26665e-21
-3.66771e-19
1.72922e-21
3.13278e-05
-6.72951e-18
-1.31385e-21
-3.80731e-19
1.73586e-21
3.16094e-05
-6.72186e-18
-1.36301e-21
-3.80865e-19
1.74314e-21
3.18932e-05
-6.70955e-18
-1.4101e-21
-3.93677e-19
1.74571e-21
3.21793e-05
-6.70039e-18
-1.45907e-21
-3.99673e-19
1.74886e-21
3.24677e-05
-6.69004e-18
-1.50596e-21
-4.15603e-19
1.74955e-21
3.27584e-05
-6.67941e-18
-1.55599e-21
-4.22492e-19
1.75234e-21
3.30514e-05
-6.67084e-18
-1.6068e-21
-4.38111e-19
1.75465e-21
3.33469e-05
-6.66055e-18
-1.65777e-21
-4.46094e-19
1.75719e-21
3.36446e-05
-6.64672e-18
-1.71067e-21
-4.57526e-19
1.75826e-21
3.39448e-05
-6.63102e-18
-1.76613e-21
-4.73972e-19
1.75905e-21
3.42474e-05
-6.61991e-18
-1.82253e-21
-4.85592e-19
1.76227e-21
3.45525e-05
-6.61334e-18
-1.87884e-21
-4.95488e-19
1.76588e-21
3.486e-05
-6.59963e-18
-1.93382e-21
-5.07502e-19
1.7705e-21
3.51699e-05
-6.58885e-18
-1.99114e-21
-5.18957e-19
1.77566e-21
3.54823e-05
-6.56722e-18
-2.05135e-21
-5.3545e-19
1.778e-21
3.57973e-05
-6.55475e-18
-2.11364e-21
-5.46001e-19
1.77841e-21
3.61147e-05
-6.54071e-18
-2.17367e-21
-5.58643e-19
1.77799e-21
3.64347e-05
-6.52538e-18
-2.23514e-21
-5.74135e-19
1.77735e-21
3.67573e-05
-6.50586e-18
-2.29954e-21
-5.92501e-19
1.77851e-21
3.70825e-05
-6.48776e-18
-2.36644e-21
-6.0214e-19
1.78038e-21
3.74102e-05
-6.47192e-18
-2.43785e-21
-6.1667e-19
1.77955e-21
3.77406e-05
-6.45924e-18
-2.51133e-21
-6.32488e-19
1.77801e-21
3.80736e-05
-6.43707e-18
-2.58234e-21
-6.46198e-19
1.7758e-21
3.84093e-05
-6.42936e-18
-2.65921e-21
-6.64799e-19
1.77422e-21
3.87476e-05
-6.41112e-18
-2.73638e-21
-6.78301e-19
1.774e-21
3.90886e-05
-6.39051e-18
-2.81768e-21
-6.97857e-19
1.77195e-21
3.94324e-05
-6.36816e-18
-2.90067e-21
-7.10334e-19
1.76803e-21
3.97789e-05
-6.34565e-18
-2.9896e-21
-7.31331e-19
1.76427e-21
4.01282e-05
-6.33238e-18
-3.08249e-21
-7.4237e-19
1.76375e-21
4.04802e-05
-6.30872e-18
-3.17678e-21
-7.57501e-19
1.76222e-21
4.08351e-05
-6.29625e-18
-3.27501e-21
-7.71989e-19
1.75972e-21
4.11927e-05
-6.27309e-18
-3.37236e-21
-7.9145e-19
1.75699e-21
4.15532e-05
-6.25561e-18
-3.47134e-21
-8.11473e-19
1.75483e-21
4.19166e-05
-6.22691e-18
-3.56985e-21
-8.26724e-19
1.75582e-21
4.22829e-05
-6.20584e-18
-3.67125e-21
-8.477e-19
1.75718e-21
4.26521e-05
-6.19168e-18
-3.77066e-21
-8.61124e-19
1.75874e-21
4.30242e-05
-6.16653e-18
-3.86808e-21
-8.78183e-19
1.76294e-21
4.33992e-05
-6.13902e-18
-3.97115e-21
-8.92319e-19
1.76418e-21
4.37772e-05
-6.11556e-18
-4.08052e-21
-9.14526e-19
1.76429e-21
4.41583e-05
-6.08629e-18
-4.19225e-21
-9.35819e-19
1.76845e-21
4.45423e-05
-6.07494e-18
-4.30739e-21
-9.44253e-19
1.77614e-21
4.49294e-05
-6.05984e-18
-4.42206e-21
-9.51134e-19
1.78203e-21
4.53195e-05
-6.04855e-18
-4.53778e-21
-9.57423e-19
1.78249e-21
4.57127e-05
-6.02263e-18
-4.6464e-21
-9.64714e-19
1.77763e-21
4.61091e-05
-6.00178e-18
-4.75849e-21
-9.77479e-19
1.77139e-21
4.65086e-05
-5.98323e-18
-4.86902e-21
-9.89533e-19
1.76202e-21
4.69112e-05
-5.96955e-18
-4.97683e-21
-9.97795e-19
1.74796e-21
4.7317e-05
-5.95693e-18
-5.07707e-21
-1.00639e-18
1.72574e-21
4.7726e-05
-5.94683e-18
-5.17132e-21
-1.01821e-18
1.6972e-21
4.81382e-05
-5.93265e-18
-5.25628e-21
-1.03124e-18
1.66305e-21
4.85537e-05
-5.922e-18
-5.33063e-21
-1.04107e-18
1.62401e-21
4.89725e-05
-5.91613e-18
-5.39589e-21
-1.04383e-18
1.58086e-21
4.93945e-05
-5.91294e-18
-5.452e-21
-1.05426e-18
1.5249e-21
4.98199e-05
-5.90305e-18
-5.49326e-21
-1.06732e-18
1.45586e-21
5.02487e-05
-5.89323e-18
-5.52939e-21
-1.0716e-18
1.38081e-21
5.06808e-05
-5.87957e-18
-5.5564e-21
-1.08516e-18
1.30248e-21
5.11163e-05
-5.86186e-18
-5.57798e-21
-1.10069e-18
1.22758e-21
5.15552e-05
-5.85297e-18
-5.59771e-21
-1.10405e-18
1.15689e-21
5.19976e-05
-5.85412e-18
-5.61547e-21
-1.11228e-18
1.08769e-21
5.24434e-05
-5.83734e-18
-5.62245e-21
-1.12943e-18
1.01816e-21
5.28928e-05
-5.81836e-18
-5.63243e-21
-1.13759e-18
9.5149e-22
5.33456e-05
-5.80227e-18
-5.64213e-21
-1.15496e-18
8.85129e-22
5.38021e-05
-5.79862e-18
-5.65567e-21
-1.16855e-18
8.29961e-22
5.42621e-05
-5.78442e-18
-5.66554e-21
-1.18093e-18
7.75712e-22
5.47257e-05
-5.77216e-18
-5.67853e-21
-1.1886e-18
7.2391e-22
5.51929e-05
-5.75141e-18
-5.6928e-21
-1.20074e-18
6.76182e-22
5.56638e-05
-5.73317e-18
-5.71e-21
-1.21505e-18
6.34663e-22
5.61384e-05
-5.71736e-18
-5.72863e-21
-1.2297e-18
5.96756e-22
5.66167e-05
-5.70576e-18
-5.75001e-21
-1.24158e-18
5.62593e-22
5.70987e-05
-5.70559e-18
-5.7701e-21
-1.25133e-18
5.28139e-22
5.75846e-05
-5.696e-18
-5.78291e-21
-1.25643e-18
4.9589e-22
5.80742e-05
-5.67369e-18
-5.79154e-21
-1.26851e-18
4.63328e-22
5.85676e-05
-5.65891e-18
-5.80583e-21
-1.28367e-18
4.33009e-22
5.90649e-05
-5.64066e-18
-5.81763e-21
-1.29405e-18
4.06331e-22
5.9566e-05
-5.61851e-18
-5.83807e-21
-1.29906e-18
3.74895e-22
6.00711e-05
-5.6043e-18
-5.86073e-21
-1.31499e-18
3.39809e-22
6.05801e-05
-5.59215e-18
-5.88898e-21
-1.32308e-18
3.05485e-22
6.10931e-05
-5.58488e-18
-5.91231e-21
-1.34157e-18
2.70521e-22
6.16101e-05
-5.56663e-18
-5.9253e-21
-1.34222e-18
2.37701e-22
6.21311e-05
-5.54564e-18
-5.93998e-21
-1.34748e-18
2.0032e-22
6.26561e-05
-5.52493e-18
-5.96428e-21
-1.36244e-18
1.58099e-22
6.31853e-05
-5.50553e-18
-6.00563e-21
-1.38052e-18
1.14725e-22
6.37185e-05
-5.47866e-18
-6.04068e-21
-1.38175e-18
6.30487e-23
6.42559e-05
-5.45743e-18
-6.08553e-21
-1.39897e-18
2.60932e-24
6.47975e-05
-5.43618e-18
-6.13341e-21
-1.42741e-18
-6.3971e-23
6.53433e-05
-5.40391e-18
-6.18449e-21
-1.44341e-18
-1.11804e-22
6.58934e-05
-5.3952e-18
-6.26037e-21
-1.45866e-18
-1.53917e-22
6.64477e-05
-5.38699e-18
-6.33312e-21
-1.46961e-18
-2.00858e-22
6.70063e-05
-5.36326e-18
-6.3972e-21
-1.4835e-18
-2.4956e-22
6.75692e-05
-5.3448e-18
-6.46124e-21
-1.49798e-18
-2.75587e-22
6.81365e-05
-5.33027e-18
-6.51519e-21
-1.51001e-18
-2.94795e-22
6.87082e-05
-5.31603e-18
-6.57364e-21
-1.52605e-18
-3.14854e-22
6.92844e-05
-5.28552e-18
-6.61482e-21
-1.54168e-18
-3.32266e-22
6.9865e-05
-5.27184e-18
-6.65217e-21
-1.54561e-18
-3.58697e-22
7.04501e-05
-5.26373e-18
-6.68442e-21
-1.5616e-18
-3.94587e-22
7.10397e-05
-5.2474e-18
-6.70162e-21
-1.57479e-18
-4.28276e-22
7.16339e-05
-5.23047e-18
-6.71912e-21
-1.58861e-18
-4.47386e-22
7.22327e-05
-5.21131e-18
-6.72444e-21
-1.59192e-18
-4.60009e-22
7.28361e-05
-5.18029e-18
-6.72465e-21
-1.60492e-18
-4.64597e-22
7.34442e-05
-5.16397e-18
-6.72466e-21
-1.6163e-18
-4.78814e-22
7.4057e-05
-5.14546e-18
-6.71923e-21
-1.62955e-18
-4.97942e-22
7.46745e-05
-5.11831e-18
-6.71204e-21
-1.65386e-18
-5.1831e-22
7.52968e-05
-5.08875e-18
-6.70567e-21
-1.65987e-18
-5.26606e-22
7.59239e-05
-5.07753e-18
-6.71242e-21
-1.67536e-18
-5.37307e-22
7.65558e-05
-5.04227e-18
-6.71355e-21
-1.69312e-18
-5.49167e-22
7.71926e-05
-5.0211e-18
-6.73831e-21
-1.71037e-18
-5.56666e-22
7.78343e-05
-5.00482e-18
-6.76368e-21
-1.72207e-18
-5.60993e-22
7.8481e-05
-4.97777e-18
-6.77534e-21
-1.7358e-18
-5.66298e-22
7.91326e-05
-4.95521e-18
-6.79176e-21
-1.74602e-18
-5.68221e-22
7.97893e-05
-4.92527e-18
-6.8073e-21
-1.76324e-18
-5.90386e-22
8.0451e-05
-4.90346e-18
-6.83855e-21
-1.7756e-18
-5.85499e-22
8.11179e-05
-4.89713e-18
-6.87723e-21
-1.79356e-18
-5.85873e-22
8.17898e-05
-4.87374e-18
-6.89433e-21
-1.80902e-18
-5.71476e-22
8.24669e-05
-4.84794e-18
-6.92206e-21
-1.8269e-18
-5.57268e-22
8.31493e-05
-4.81783e-18
-6.95629e-21
-1.84275e-18
-5.63931e-22
8.38368e-05
-4.7927e-18
-6.9975e-21
-1.85186e-18
-5.66451e-22
8.45297e-05
-4.77233e-18
-7.02479e-21
-1.8518e-18
-5.76063e-22
8.52279e-05
-4.76465e-18
-7.03762e-21
-1.88035e-18
-5.98095e-22
8.59314e-05
-4.73196e-18
-7.04548e-21
-1.88447e-18
-6.04404e-22
8.66404e-05
-4.70421e-18
-7.06708e-21
-1.90702e-18
-6.06276e-22
8.73547e-05
-4.68461e-18
-7.09623e-21
-1.92593e-18
-6.03453e-22
8.80746e-05
-4.66854e-18
-7.14938e-21
-1.93674e-18
-5.65547e-22
8.88e-05
-4.64062e-18
-7.16162e-21
-1.94881e-18
-5.37228e-22
8.95309e-05
-4.60949e-18
-7.18943e-21
-1.96626e-18
-5.18796e-22
9.02675e-05
-4.59866e-18
-7.20051e-21
-1.98755e-18
-5.30883e-22
9.10097e-05
-4.55544e-18
-7.19221e-21
-1.98394e-18
-5.2063e-22
9.17576e-05
-4.52578e-18
-7.22259e-21
-2.00891e-18
-5.53495e-22
9.25112e-05
-4.50533e-18
-7.25112e-21
-2.00668e-18
-5.81473e-22
9.32706e-05
-4.46481e-18
-7.25629e-21
-2.0194e-18
-6.23959e-22
9.40358e-05
-4.43956e-18
-7.27661e-21
-2.03605e-18
-6.62003e-22
9.48068e-05
-4.41048e-18
-7.28665e-21
-2.03828e-18
-7.09628e-22
9.55838e-05
-4.39269e-18
-7.27971e-21
-2.0391e-18
-7.98183e-22
9.63667e-05
-4.369e-18
-7.25675e-21
-2.05957e-18
-9.11475e-22
9.71556e-05
-4.33564e-18
-7.25654e-21
-2.0718e-18
-9.84075e-22
9.79505e-05
-4.30951e-18
-7.27141e-21
-2.09497e-18
-1.05925e-21
9.87514e-05
-4.28221e-18
-7.28899e-21
-2.10546e-18
-1.13102e-21
9.95585e-05
-4.2469e-18
-7.3027e-21
-2.1197e-18
-1.18199e-21
0.000100372
-4.21375e-18
-7.32566e-21
-2.14803e-18
-1.24485e-21
0.000101191
-4.18646e-18
-7.34472e-21
-2.15355e-18
-1.28883e-21
0.000102017
-4.14765e-18
-7.39637e-21
-2.16884e-18
-1.34073e-21