/*--------------------------------*- C++ -*----------------------------------*\
| =========                 |                                                 |
| \\      /  F ield         | OpenFOAM: The Open Source CFD Toolbox           |
|  \\    /   O peration     | Version:  2012                                  |
|   \\  /    A nd           | Website:  www.openfoam.com                      |
|    \\/     M anipulation  |                                                 |
\*---------------------------------------------------------------------------*/
FoamFile
{
    version     2.0;
    format      ascii;
    class       volTensorField;
    location    "4000";
    object      grad(U);
}
// * * * * * * * * * * * * * * * * * * * * * * * * * * * * * * * * * * * * * //

dimensions      [0 0 -1 0 0 0 0];


internalField   nonuniform List<tensor> 
640
(
(0 6.31689e-30 2.18953e-47 33.4833 -4.88196e-12 2.85366e-49 0.191466 -1.61207e-14 -8.71157e-28)
(-3.70426e-17 -2.10563e-30 -6.5801e-32 33.4833 -6.92018e-15 -5.22584e-16 0.191466 -1.55471e-16 6.59546e-16)
(-6.98901e-17 -3.966e-26 1.12089e-27 33.4635 -4.43732e-13 6.99254e-14 0.585664 -5.37781e-15 8.47462e-16)
(-6.98901e-17 0 -1.26555e-29 33.4635 1.57772e-30 -3.69925e-16 0.585664 1.32672e-43 2.3673e-15)
(0 -3.58732e-43 -3.51359e-31 33.4422 3.62145e-31 4.03588e-14 0.884758 0 1.10817e-15)
(6.57875e-17 -7.49565e-30 1.1712e-31 33.4422 -8.09331e-15 -5.26596e-16 0.884758 1.98784e-18 2.64023e-15)
(1.78223e-16 -1.06162e-29 2.20975e-31 33.4178 2.83362e-13 4.95625e-14 0.93712 -1.30562e-14 1.43424e-15)
(0 1.41424e-29 -2.20975e-31 33.4178 -2.64838e-15 -1.0563e-15 0.93712 8.6836e-18 2.92864e-15)
(0 0 0 33.3854 2.88532e-14 5.47262e-14 0.992237 -2.05879e-15 1.69805e-15)
(-5.11797e-16 0 0 33.3854 -4.40915e-15 -1.43383e-15 0.992237 5.19589e-18 3.23251e-15)
(0 -1.49656e-28 7.86629e-31 33.3328 -3.42495e-28 5.93104e-14 1.04968 6.31089e-30 1.93927e-15)
(7.5531e-16 1.88791e-29 -7.86629e-31 33.3328 -6.19821e-15 -1.80179e-15 1.04968 -8.15668e-18 3.54803e-15)
(-5.07056e-16 3.42417e-29 -2.40096e-30 33.2337 8.43245e-15 6.32227e-14 1.10831 -1.47305e-16 2.16948e-15)
(0 -2.37467e-29 2.22625e-30 33.2337 -8.38868e-15 -2.15451e-15 1.10831 -3.43524e-17 3.86924e-15)
(-3.22465e-16 3.87978e-29 -2.59231e-30 33.0394 1.2104e-14 6.58097e-14 1.16572 -4.07391e-16 2.36234e-15)
(0 -2.80025e-29 1.75016e-30 33.0394 -1.07201e-14 -2.50382e-15 1.16572 -7.99555e-17 4.18511e-15)
(7.43567e-16 -2.11335e-29 6.6042e-31 32.6725 1.20554e-14 6.63829e-14 1.2178 -4.2562e-16 2.48079e-15)
(2.42543e-15 2.11335e-29 -1.32084e-30 32.6725 -1.29079e-14 -2.78057e-15 1.2178 -1.46483e-16 4.47783e-15)
(1.17641e-15 -2.50905e-29 2.80141e-30 32.0302 1.25381e-14 6.4217e-14 1.25874 -4.54113e-16 2.48204e-15)
(-7.01462e-16 1.99367e-29 -2.49209e-30 32.0302 -1.53241e-14 -3.04917e-15 1.25874 -2.3766e-16 4.72265e-15)
(-1.1181e-15 1.96571e-29 -8.48537e-31 31.0074 1.37058e-14 5.89193e-14 1.28209 -5.16676e-16 2.34053e-15)
(0 -9.40389e-30 0 31.0074 -1.70772e-14 -3.17305e-15 1.28209 -3.59892e-16 4.8863e-15)
(1.29576e-15 -1.4619e-29 -4.24779e-33 29.5389 1.56042e-14 5.09006e-14 1.28303 -6.08797e-16 2.07173e-15)
(3.93449e-15 8.87138e-30 0 29.5389 -1.87615e-14 -3.03191e-15 1.28303 -4.98387e-16 4.943e-15)
(-7.40019e-16 3.0154e-29 -2.77265e-30 27.6403 1.71711e-14 4.14697e-14 1.26061 -7.50364e-16 1.73578e-15)
(2.96008e-15 -1.6738e-29 1.04613e-30 27.6403 -2.03884e-14 -2.71594e-15 1.26061 -6.6702e-16 4.87707e-15)
(1.94451e-15 -3.65905e-29 6.7164e-30 25.4167 1.09876e-14 3.2318e-14 1.21821 -8.32644e-16 1.40813e-15)
(5.55587e-15 3.15804e-29 -5.92133e-30 25.4167 -2.14095e-14 -2.39777e-15 1.21821 -8.54449e-16 4.69543e-15)
(-1.97392e-15 -9.68104e-29 2.83635e-30 23.0284 8.57293e-15 2.48265e-14 1.16205 -2.21681e-16 1.15229e-15)
(0 1.48961e-29 -4.65502e-30 23.0284 -2.33356e-14 -2.07119e-15 1.16205 -1.09572e-15 4.41366e-15)
(-1.01511e-15 -3.04207e-29 4.31208e-30 20.6371 2.91782e-14 1.95944e-14 1.09879 -2.40548e-15 9.91384e-16)
(4.06045e-15 3.51314e-29 -7.02628e-30 20.6371 -2.36524e-14 -1.6434e-15 1.09879 -1.39357e-15 4.06378e-15)
(1.10037e-15 1.70374e-30 -1.47615e-30 18.366 1.76106e-14 1.64373e-14 1.03387 -7.45289e-16 9.16833e-16)
(4.40146e-15 0 8.2855e-31 18.366 -2.26261e-14 -1.42391e-15 1.03387 -1.67911e-15 3.67432e-15)
(5.7924e-16 -7.69669e-30 5.15845e-31 16.2876 2.28011e-14 1.48934e-14 0.970924 -1.31816e-15 9.18052e-16)
(2.96328e-15 1.25061e-29 -3.12653e-30 16.2876 -2.33223e-14 -1.28062e-15 0.970924 -1.97781e-15 3.26143e-15)
(-2.51277e-15 2.12769e-29 -5.10165e-30 14.4313 2.4047e-14 1.45237e-14 0.912012 -1.49611e-15 9.80486e-16)
(0 -1.17979e-29 2.94948e-30 14.4313 -2.33866e-14 -1.0358e-15 0.912012 -2.30359e-15 2.84657e-15)
(1.56639e-15 -3.33896e-29 9.73862e-30 12.7977 2.49506e-14 1.48414e-14 0.858041 -1.64874e-15 1.07686e-15)
(3.74225e-15 3.33896e-29 -9.73862e-30 12.7977 -2.19384e-14 -7.14741e-16 0.858041 -2.66394e-15 2.4375e-15)
(0 3.14988e-29 -1.04996e-29 11.3714 2.62448e-14 1.54925e-14 0.809216 -1.80995e-15 1.20014e-15)
(0 -3.14988e-29 1.04996e-29 11.3714 -2.14951e-14 -6.54532e-16 0.809216 -3.03795e-15 2.04122e-15)
(0 1.48576e-29 -4.95252e-30 10.1307 2.71076e-14 1.63463e-14 0.765346 -2.04823e-15 1.34683e-15)
(-5.82285e-15 -9.90505e-30 2.47626e-30 10.1307 -2.12604e-14 -1.13049e-15 0.765346 -3.42556e-15 1.65035e-15)
(-1.51427e-15 9.09878e-30 -2.34781e-30 9.05184 2.76043e-14 1.732e-14 0.726053 -2.17199e-15 1.51391e-15)
(-2.63015e-15 0 -1.16802e-30 9.05184 -1.96621e-14 -1.18159e-15 0.726053 -3.85756e-15 1.25286e-15)
(1.56953e-15 -2.63642e-29 1.36839e-29 8.11257 2.70738e-14 6.77103e-29 0.690886 -2.38588e-15 -1.57772e-30)
(1.25563e-14 2.20376e-29 -9.23645e-30 8.11257 -1.87306e-14 -2.09075e-16 0.690886 -4.30069e-15 8.72467e-16)
(1.62184e-15 2.06872e-29 -6.06682e-30 7.29278 2.50939e-14 -2.12327e-14 0.659387 -2.34506e-15 1.38567e-15)
(0 -2.49476e-29 7.27638e-30 7.29278 -1.81449e-14 -4.34264e-16 0.659387 -4.75733e-15 5.27499e-16)
(-5.5512e-15 2.40775e-29 -5.83999e-30 6.57504 2.48329e-14 -2.60657e-14 0.631123 -2.30305e-15 2.58318e-15)
(6.68608e-15 -7.84496e-30 1.96124e-30 6.57504 -1.81485e-14 -7.40653e-16 0.631123 -5.2138e-15 1.78151e-16)
(-3.43768e-15 2.29621e-29 -5.46835e-30 5.94444 2.61281e-14 -2.42151e-14 0.6057 -2.58225e-15 2.53469e-15)
(-6.87537e-15 -1.48015e-29 3.75338e-30 5.94444 -1.94097e-14 -6.25927e-16 0.6057 -5.79784e-15 -5.76387e-17)
(-1.96516e-15 1.39633e-29 -3.49082e-30 5.3884 2.69646e-14 -2.26299e-14 0.582769 -2.86558e-15 2.50578e-15)
(0 0 1.74541e-30 5.3884 -1.8832e-14 -4.53715e-16 0.582769 -6.45691e-15 -4.20346e-17)
(1.80737e-15 9.34337e-30 -9.11801e-31 4.89629 2.563e-14 -2.12767e-14 0.562023 -3.0917e-15 2.48778e-15)
(0 -6.5863e-30 2.12237e-31 4.89629 -1.70132e-14 -1.81191e-30 0.562023 -7.07907e-15 0)
(1.84898e-15 -1.62013e-29 7.65007e-30 4.45921 2.35589e-14 -2.04775e-14 0.543194 -2.89834e-15 2.48956e-15)
(0 1.24267e-29 -6.99e-30 4.45921 -1.47944e-14 -1.81406e-16 0.543194 -7.68882e-15 -7.16409e-17)
(0 0 1.46537e-30 4.06965 2.20623e-14 -2.00245e-14 0.526048 -2.945e-15 2.59129e-15)
(0 5.8615e-30 -2.19806e-30 4.06965 -1.29876e-14 -1.16448e-15 0.526048 -8.14006e-15 -9.6374e-16)
(-2.67031e-15 3.30343e-29 -6.23719e-30 3.72128 1.91816e-14 -1.98375e-14 0.510382 -2.85154e-15 2.67473e-15)
(-1.08238e-14 -2.21183e-29 5.53348e-30 3.72128 -1.18288e-14 -1.61265e-15 0.510382 -8.60661e-15 -1.54754e-15)
(4.90174e-15 -8.84491e-30 3.4385e-31 3.40877 1.71747e-14 -2.00555e-14 0.496022 -2.48241e-15 2.85806e-15)
(7.86054e-15 5.21646e-30 -1.506e-30 3.40877 -1.0221e-14 -5.25932e-16 0.496022 -9.06617e-15 -1.21142e-15)
(-2.00139e-15 3.5363e-30 -8.23756e-31 3.12758 1.70111e-14 -1.98762e-14 0.482812 -2.59359e-15 3.0718e-15)
(8.00555e-15 9.84213e-30 -6.18445e-31 3.12758 -9.49929e-15 -8.33291e-17 0.482812 -9.59186e-15 -1.69755e-16)
(5.76858e-16 -1.20361e-30 2.02056e-31 2.87385 1.62173e-14 -2.01567e-14 0.470621 -2.7366e-15 3.15364e-15)
(-2.61344e-15 4.6424e-30 -8.7045e-31 2.87385 -9.73608e-15 -1.24349e-15 0.470621 -1.01362e-14 -3.27296e-16)
(-2.0708e-15 3.38347e-30 5.4744e-31 2.64429 1.55278e-14 -2.04527e-14 0.459329 -2.64296e-15 2.91473e-15)
(0 4.37952e-30 -8.21159e-31 2.64429 -9.67937e-15 -2.71621e-15 0.459329 -1.06513e-14 -6.37319e-16)
(2.32584e-15 -8.26304e-30 4.51885e-31 2.43607 1.67197e-14 -2.02231e-14 0.448836 -2.82513e-15 1.99671e-15)
(0 4.13152e-30 -7.7466e-31 2.43607 -1.0488e-14 -6.97307e-15 0.448836 -1.12622e-14 -1.03716e-15)
(-2.13664e-15 1.86578e-29 -7.30793e-31 2.24677 1.70821e-14 -2.05484e-14 0.439048 -3.42762e-15 1.00183e-15)
(0 -1.55903e-29 7.30793e-31 2.24677 -1.05267e-14 -1.01309e-14 0.439048 -1.21572e-14 -1.55705e-15)
(-2.06989e-15 7.35372e-30 0 2.07428 1.46373e-14 -1.99025e-14 0.429887 -3.322e-15 -1.58205e-19)
(1.07434e-14 -7.35372e-30 2.21323e-30 2.07428 -6.47473e-15 -5.72167e-15 0.429887 -1.27824e-14 -5.99399e-16)
(-4.15207e-15 1.68131e-29 8.67162e-31 1.91679 1.25983e-14 -1.78636e-14 0.421282 -2.79627e-15 -9.11183e-16)
(6.84491e-15 0 -2.25914e-31 1.91679 -3.86576e-15 -1.97321e-15 0.421282 -1.30992e-14 -1.9951e-15)
(0 1.30889e-29 -1.37423e-29 1.77271 1.31709e-14 -2.42878e-15 0.413168 -2.79987e-15 -2.859e-16)
(-1.8421e-15 0 0 1.77271 -5.29512e-15 -2.10166e-15 0.413168 -1.36181e-14 -2.50932e-15)
(-5.73507e-15 -3.48443e-30 0 1.64066 1.39413e-14 0 0.40549 -3.41979e-15 -3.9443e-31)
(1.25135e-14 6.17387e-30 1.54347e-30 1.64066 -6.08203e-15 -1.82115e-15 0.40549 -1.3946e-14 -2.80242e-15)
(0 -5.82426e-30 -7.28033e-31 1.51943 1.18867e-14 2.14892e-15 0.398196 -3.54211e-15 -4.06163e-16)
(9.15455e-15 5.82426e-30 7.28033e-31 1.51943 -5.6829e-15 -2.0018e-16 0.398196 -1.43353e-14 -2.73349e-15)
(-2.31723e-15 -2.86212e-30 -5.39362e-31 1.40797 8.98871e-15 2.17638e-15 0.39124 -2.72299e-15 -7.40526e-16)
(0 5.49445e-30 6.86807e-31 1.40797 -3.93449e-15 3.57312e-17 0.39124 -1.49031e-14 -2.6628e-15)
(2.3453e-15 -7.80366e-30 -1.47961e-30 1.30532 7.19553e-15 1.51539e-15 0.384582 -2.30605e-15 -4.7225e-16)
(9.38122e-15 0 1.29583e-30 1.30532 -1.64442e-15 -1.58352e-16 0.384582 -1.52821e-14 -2.74623e-15)
(-2.37288e-15 2.60177e-30 1.98433e-31 1.21068 5.36852e-15 1.66746e-15 0.378183 -1.96166e-15 -4.27341e-16)
(0 0 0 1.21068 -4.53294e-16 3.49893e-17 0.378183 -1.54571e-14 -2.7312e-15)
(0 0 -1.15323e-30 1.12329 5.80136e-15 2.33351e-15 0.37201 -1.40529e-15 -6.29358e-16)
(9.59991e-15 -6.55073e-32 9.10606e-31 1.12329 -7.43224e-16 -2.16127e-16 0.37201 -1.54415e-14 -2.31467e-15)
(0 0 0 1.04251 8.05251e-15 1.92685e-15 0.366032 -2.50205e-15 -9.38467e-16)
(-9.70648e-15 2.02964e-30 2.02895e-30 1.04251 -1.07171e-15 -3.5734e-16 0.366032 -1.24087e-14 -1.14128e-15)
(0 0 0 0.967764 6.94018e-15 1.32489e-15 0.360219 -3.22097e-15 -4.10574e-16)
(9.8113e-15 8.58202e-32 -5.67384e-32 0.967764 -1.02269e-16 -2.67837e-16 0.360219 -8.9687e-15 -7.19097e-16)
(-2.47861e-15 2.38636e-30 1.63255e-31 0.898523 4.94378e-15 4.34727e-16 0.354546 -1.95146e-15 -5.89109e-16)
(-9.91443e-15 5.17252e-30 2.18861e-30 0.898523 3.98371e-16 -8.53915e-16 0.354546 -7.17037e-15 -4.93371e-16)
(7.51194e-15 -1.07763e-29 -9.39366e-31 0.834323 3.82291e-15 -6.53445e-16 0.348989 -1.9831e-15 -2.89961e-16)
(1.00159e-14 -2.64154e-30 -1.26746e-30 0.834323 4.90967e-16 -1.26096e-15 0.348989 -5.35144e-15 -5.72466e-16)
(3.88054e-15 0 0 0.774746 1.99209e-15 -1.39286e-16 0.343523 -1.21901e-15 -5.79036e-16)
(-3.88054e-15 0 -1.20862e-44 0.774746 -2.92406e-16 5.41866e-30 0.343523 -4.38493e-15 5.54775e-47)
(-3.6608e-15 -7.81645e-31 0 0.719413 2.28895e-15 -6.22566e-17 0.338128 -5.42325e-16 -2.63825e-16)
(1.3875e-14 -7.92647e-30 -1.27964e-30 0.719413 2.35835e-16 8.03978e-16 0.338128 -3.30567e-15 -4.87346e-16)
(0 -3.06733e-30 0 0.667982 3.83883e-15 -8.51989e-16 0.332782 -2.31087e-15 -6.23771e-16)
(1.0311e-14 -8.90354e-30 -1.41294e-30 0.667982 2.13901e-15 1.06796e-15 0.332782 -1.79418e-15 -2.68223e-16)
(6.56368e-16 2.34115e-30 0 0.620144 2.37377e-15 1.8982e-30 0.327466 -1.52272e-15 1.32639e-46)
(-3.25794e-15 0 0 0.620144 2.07619e-15 4.60247e-16 0.327466 -1.63748e-15 -1.81804e-15)
(-2.62503e-15 7.88622e-30 4.11234e-31 0.575616 2.70153e-15 5.20166e-16 0.322159 -9.89622e-16 -5.55522e-16)
(-1.05001e-14 9.18296e-30 1.32087e-30 0.575616 1.94779e-15 -7.53422e-16 0.322159 -1.47718e-15 -7.639e-16)
(5.29625e-15 -4.50035e-30 -1.50121e-30 0.534142 2.70919e-15 5.32879e-17 0.316841 -2.09211e-15 -1.59411e-17)
(1.05925e-14 -4.07386e-30 -3.31584e-31 0.534142 1.72896e-15 -7.09089e-16 0.316841 -1.38564e-15 -5.05634e-16)
(0 -4.85875e-30 -6.07343e-31 0.495484 2.1698e-15 9.17324e-16 0.31149 -1.12144e-15 -8.58755e-16)
(2.73523e-15 0 0 0.495484 1.20938e-15 -8.74318e-30 0.31149 -6.62153e-16 0)
(0 0 0 0.459427 3.31205e-15 9.36931e-16 0.306084 -1.64609e-15 -5.8793e-16)
(2.15457e-14 -1.94211e-29 -3.15675e-30 0.459427 2.43555e-15 1.41006e-15 0.306084 -8.78152e-16 -6.70464e-16)
(0 0 0 0.425771 2.46985e-15 2.77385e-16 0.300598 -2.84203e-15 -8.7395e-16)
(8.42664e-15 -4.39204e-30 -1.14185e-30 0.425771 1.72878e-15 1.04994e-15 0.300598 -2.44218e-15 -1.24211e-15)
(4.59277e-15 0 -4.41411e-31 0.39433 7.5343e-17 -1.29419e-29 0.295005 -1.52044e-15 0)
(0 0 0 0.39433 -3.40065e-29 5.97897e-16 0.295005 0 -5.24118e-16)
(-5.51623e-15 8.82818e-44 -4.81026e-31 0.364932 4.02728e-29 2.41902e-15 0.289273 0 -2.49844e-15)
(1.10325e-14 -9.45626e-30 -9.88668e-31 0.364932 2.00315e-15 7.04864e-16 0.289273 -1.08098e-15 -6.92251e-16)
(0 0 0 0.337414 1.47525e-15 9.97234e-16 0.283367 -1.18169e-15 -3.58513e-15)
(4.08735e-15 0 0 0.337414 2.06375e-15 1.01064e-15 0.283367 -2.15849e-15 -4.28929e-16)
(6.65542e-15 -5.72955e-30 -3.5816e-32 0.311626 1.15732e-15 3.58949e-15 0.277243 -1.32701e-15 -2.1735e-15)
(7.34219e-15 -8.70814e-30 0 0.311626 1.00014e-15 5.14497e-15 0.277243 -1.32062e-15 -1.71474e-15)
(-2.81965e-15 2.37008e-30 0 0.287423 8.91793e-17 3.95825e-15 0.270851 -7.38502e-16 -1.14068e-15)
(1.12786e-14 -9.0624e-30 0 0.287423 -1.91857e-16 5.14857e-15 0.270851 -8.58138e-16 -5.54485e-16)
(-2.83937e-15 -1.05097e-45 0 0.264667 -9.93472e-30 5.47446e-15 0.264129 3.15544e-30 -9.23666e-16)
(0 0 0 0.264667 2.20757e-16 4.35996e-15 0.264129 -5.28662e-16 -3.73668e-16)
(3.23725e-15 -3.44145e-32 7.18813e-31 0.243224 7.25515e-16 6.2497e-15 0.257003 -3.88777e-16 8.8989e-16)
(1.14348e-14 -8.99661e-30 0 0.243224 8.59776e-16 5.09088e-15 0.257003 -1.50932e-15 6.21629e-16)
(0 0 0 0.222965 5.34129e-16 5.32069e-16 0.249377 -1.33636e-15 4.3865e-16)
(-1.15103e-14 9.15172e-30 -9.5423e-31 0.222965 -4.4458e-16 1.6614e-30 0.249377 -1.51383e-15 0)
(0 -2.55884e-30 0 0.203759 7.48577e-16 1.62277e-15 0.241136 -7.27754e-16 1.18208e-15)
(-1.15841e-14 4.55538e-30 0 0.203759 8.65282e-30 3.82377e-16 0.241136 -3.15544e-30 2.44952e-16)
(2.91401e-15 -2.20867e-30 -1.20697e-30 0.185473 8.83998e-16 4.4601e-15 0.232129 -2.03361e-15 4.87508e-16)
(-5.43571e-15 2.41394e-30 0 0.185473 1.95805e-16 6.27555e-15 0.232129 -1.1408e-15 -3.86873e-16)
(0 0 0 0.167971 -5.49203e-17 2.56143e-15 0.222164 -2.4839e-15 -2.39016e-16)
(1.1726e-14 -3.90962e-43 0 0.167971 -8.80212e-29 8.18503e-45 0.222164 0 -8.82682e-16)
(5.89694e-15 -5.36669e-30 0 0.151101 3.59918e-30 4.52314e-15 0.210986 0 2.27294e-16)
(-4.83753e-15 -3.49624e-43 0 0.151101 7.8673e-29 2.17975e-15 0.210986 -2.63519e-15 -3.34954e-16)
(7.52847e-15 -2.4232e-30 0 0.134697 1.09569e-15 0 0.198254 -1.71036e-15 8.40021e-46)
(-4.5636e-15 0 4.05329e-30 0.134697 8.19557e-29 4.48583e-15 0.198254 3.55426e-46 4.17806e-16)
(1.19227e-14 -4.83414e-30 0 0.118563 2.30568e-15 5.41417e-16 0.183505 -2.14098e-15 -5.93373e-17)
(7.61754e-15 -6.68604e-30 1.4013e-45 0.118563 3.32593e-15 -4.24872e-31 0.183505 -4.56915e-15 1.2326e-32)
(5.99165e-15 -4.60103e-30 2.54457e-31 0.102461 1.73604e-15 -9.86076e-32 0.166099 -5.38596e-15 -1.59055e-16)
(1.19833e-14 -1.90928e-30 0 0.102461 -2.36658e-30 1.33197e-15 0.166099 -6.19956e-15 1.1727e-16)
(0 3.83453e-31 0 0.0861016 -2.39914e-30 1.77483e-15 0.145161 -2.76307e-15 -5.36999e-16)
(-1.97038e-14 5.7859e-30 -1.92805e-30 0.0861016 -1.71812e-15 9.04112e-30 0.145161 -9.2875e-15 0)
(-6.63833e-15 1.63506e-30 6.42054e-30 0.0691286 -2.12697e-16 4.38264e-15 0.119514 -5.41895e-15 1.39428e-16)
(1.93244e-14 -1.07165e-29 -6.42054e-30 0.0691286 -7.75694e-16 2.66419e-15 0.119514 -7.44576e-16 -2.78259e-15)
(0 0 9.73891e-33 0.0511426 -5.22883e-17 -1.35585e-31 0.0877101 -8.25129e-15 0)
(0 -3.35261e-43 0 0.0511426 7.56472e-29 1.10049e-15 0.0877101 -3.15544e-30 -3.04147e-16)
(0 -2.15477e-30 2.85699e-30 0.0317787 -1.9475e-30 1.4708e-15 0.0482433 0 -1.59825e-15)
(1.21926e-14 -2.17069e-30 0 0.0317787 3.45902e-15 9.37946e-16 0.0482433 -1.025e-14 1.38333e-15)
(3.08583e-15 -3.62025e-30 7.68262e-31 1.37075e-09 1.46382e-15 0 1.56721e-09 -1.67362e-15 9.72565e-30)
(0 -1.00798e-30 0 1.37074e-09 -2.16413e-29 -2.06794e-15 1.56719e-09 -7.26329e-15 1.13686e-15)
(3.70426e-17 -8.22512e-33 -1.31602e-31 33.4833 6.31116e-16 2.27395e-14 -0.191466 1.61207e-14 1.82974e-16)
(0 8.22512e-33 2.63204e-31 33.4833 8.47312e-16 2.3068e-13 -0.191466 1.55471e-16 -6.59546e-16)
(0 6.81157e-29 -1.18208e-28 33.4635 1.84909e-27 -4.10208e-29 -0.585664 4.03959e-14 -8.84282e-16)
(0 0 1.05908e-26 33.4635 3.37438e-15 9.04523e-14 -0.585664 -9.32871e-17 -1.09624e-15)
(3.28938e-17 0 4.68478e-31 33.4422 7.93243e-16 2.21748e-15 -0.884758 4.17525e-14 -1.10817e-15)
(0 0 -4.68478e-31 33.4422 1.28558e-15 4.41859e-14 -0.884758 -1.98784e-18 -1.17673e-15)
(-7.05725e-17 1.38109e-32 -4.4195e-31 33.4178 3.4864e-15 2.84186e-15 -0.93712 3.84651e-14 -1.43424e-15)
(0 -1.38109e-32 1.32585e-30 33.4178 2.90575e-15 4.45149e-14 -0.93712 -8.6836e-18 -1.25025e-15)
(1.49141e-16 -2.60577e-32 4.16923e-31 33.3854 3.4095e-15 3.54304e-15 -0.992237 3.79262e-14 -1.82367e-15)
(-5.11797e-16 0 -3.15155e-30 33.3854 3.26248e-15 4.43175e-14 -0.992237 -5.19589e-18 -1.3105e-15)
(0 0 0 33.3328 3.05735e-15 4.29267e-15 -1.04968 3.80178e-14 -2.27725e-15)
(0 0 -1.57326e-30 33.3328 3.63816e-15 4.34014e-14 -1.04968 8.15668e-18 -1.34709e-15)
(-2.53528e-16 0 2.96834e-30 33.2337 2.44473e-15 5.02705e-15 -1.10831 3.79593e-14 -2.79891e-15)
(0 0 -2.96834e-30 33.2337 3.99715e-15 4.144e-14 -1.10831 3.43524e-17 -1.34147e-15)
(3.22465e-16 0 0 33.0394 2.04905e-15 5.68303e-15 -1.16572 3.78395e-14 -3.38622e-15)
(0 0 -7.00063e-31 33.0394 4.23418e-15 3.79383e-14 -1.16572 7.99555e-17 -1.2656e-15)
(-1.13969e-15 0 6.6042e-31 32.6725 1.59373e-15 6.23651e-15 -1.2178 3.77159e-14 -4.02982e-15)
(0 0 -1.98126e-30 32.6725 4.29474e-15 3.23497e-14 -1.2178 1.46483e-16 -1.08769e-15)
(0 0 1.24605e-30 32.0302 8.04724e-16 6.57483e-15 -1.25874 3.75907e-14 -4.7109e-15)
(-1.89978e-15 0 -3.43332e-30 32.0302 4.32509e-15 2.43134e-14 -1.25874 2.3766e-16 -7.82397e-16)
(1.02692e-16 7.34679e-32 1.17549e-30 31.0074 5.49812e-16 6.59765e-15 -1.28209 3.74578e-14 -5.39771e-15)
(-2.23619e-15 0 -2.51312e-30 31.0074 4.36966e-15 1.40843e-14 -1.28209 3.59892e-16 -3.59061e-16)
(6.47878e-16 6.93077e-32 3.32677e-30 29.5389 5.48587e-17 6.34501e-15 -1.28303 3.7298e-14 -6.05174e-15)
(0 -6.93077e-32 1.12104e-44 29.5389 4.65477e-15 4.90407e-45 -1.28303 4.98387e-16 -7.88861e-31)
(-1.48004e-15 0 2.09226e-30 27.6403 -1.34436e-15 5.80997e-15 -1.26061 3.71173e-14 -6.63852e-15)
(2.96008e-15 -1.30766e-31 1.03201e-28 27.6403 4.93972e-15 -5.76724e-15 -1.26061 6.6702e-16 -1.32719e-16)
(1.66675e-15 -1.23361e-31 -1.97378e-30 25.4167 -2.13616e-15 5.09303e-15 -1.21821 3.69337e-14 -7.1372e-15)
(3.3335e-15 1.23361e-31 4.24283e-30 25.4167 3.89967e-15 -1.64797e-14 -1.21821 8.54449e-16 -6.07879e-16)
(9.257e-16 -3.49127e-31 -3.72402e-30 23.0284 -2.79828e-15 4.43308e-15 -1.16205 3.69059e-14 -7.54858e-15)
(1.04822e-15 3.49127e-31 3.72402e-30 23.0284 2.55017e-15 -2.22796e-14 -1.16205 1.09572e-15 -1.01192e-15)
(1.01511e-15 -2.19571e-31 -1.75657e-30 20.6371 -4.09878e-15 3.89048e-15 -1.09879 3.63498e-14 -7.89182e-15)
(0 2.19571e-31 1.75657e-30 20.6371 2.35569e-15 -2.52877e-14 -1.09879 1.39357e-15 -1.30095e-15)
(1.10037e-15 2.07138e-31 2.48565e-30 18.366 -4.80769e-15 3.33197e-15 -1.03387 3.62312e-14 -8.19103e-15)
(-4.40146e-15 -2.07138e-31 -3.70554e-30 18.366 2.53173e-15 -2.61668e-14 -1.03387 1.67911e-15 -1.47675e-15)
(0 2.93112e-31 2.3449e-30 16.2876 -3.91559e-15 2.75705e-15 -0.970924 3.59737e-14 -8.46551e-15)
(-4.72336e-15 -4.8852e-31 -3.28546e-30 16.2876 3.07266e-15 -2.55924e-14 -0.970924 1.97781e-15 -1.56707e-15)
(-1.66041e-15 5.53028e-31 1.47474e-30 14.4313 -3.02674e-15 2.37909e-15 -0.912012 3.56475e-14 -8.7345e-15)
(0 -6.452e-31 -2.21211e-30 14.4313 2.40192e-15 -2.42057e-14 -0.912012 2.30359e-15 -1.58647e-15)
(-1.56639e-15 6.95616e-31 1.39123e-30 12.7977 -3.5854e-15 2.14376e-15 -0.858041 3.52864e-14 -9.01778e-15)
(-5.30864e-15 4.3822e-30 -2.56602e-30 12.7977 4.08834e-16 -2.25664e-14 -0.858041 2.66394e-15 -1.5743e-15)
(4.34885e-15 8.20282e-32 6.56225e-31 11.3714 -4.83865e-15 1.7892e-15 -0.809216 3.49076e-14 -9.32296e-15)
(0 -1.64056e-31 -6.56225e-31 11.3714 7.45226e-16 -2.08063e-14 -0.809216 3.03795e-15 -1.5489e-15)
(0 -3.09533e-31 0 10.1307 -5.5785e-15 1.43018e-15 -0.765346 3.45003e-14 -9.65247e-15)
(0 -1.90157e-30 0 10.1307 -4.89094e-29 -1.91374e-14 -0.765346 3.42556e-15 -1.50295e-15)
(1.51427e-15 7.66513e-31 0 9.05184 -4.91008e-15 1.25916e-15 -0.726053 3.40697e-14 -1.00152e-14)
(-6.05709e-15 -7.66513e-31 0 9.05184 -1.55954e-15 -1.7701e-14 -0.726053 3.85756e-15 -1.25286e-15)
(4.7086e-15 4.99289e-31 0 8.11257 -3.61273e-15 1.23832e-15 -0.690886 3.35625e-14 -1.04196e-14)
(-6.27813e-15 -4.99289e-31 0 8.11257 -1.85181e-15 -1.61211e-14 -0.690886 4.30069e-15 -8.72467e-16)
(2.34071e-15 -4.06048e-33 0 7.29278 -2.64584e-15 1.38513e-15 -0.659387 3.30442e-14 -1.01015e-14)
(-6.48738e-15 2.47689e-31 0 7.29278 -1.56863e-15 -1.45527e-14 -0.659387 4.75733e-15 -5.27499e-16)
(0 2.45155e-31 0 6.57504 -3.2541e-15 1.67479e-15 -0.631123 3.25227e-14 -9.49173e-15)
(-6.68608e-15 -3.06444e-31 0 6.57504 -2.96748e-15 -1.31325e-14 -0.631123 5.2138e-15 -1.78151e-16)
(2.08312e-15 -4.04727e-31 4.62545e-31 5.94444 -4.16214e-15 1.88058e-15 -0.6057 3.19842e-14 -8.90453e-15)
(-6.87537e-15 4.62545e-31 -2.31273e-31 5.94444 -4.43253e-15 -1.17728e-14 -0.6057 5.79784e-15 1.53143e-16)
(-1.96516e-15 5.45441e-31 -4.36353e-31 5.3884 -3.44706e-15 2.27588e-15 -0.582769 3.13774e-14 -8.32964e-15)
(0 -3.27265e-31 2.18176e-31 5.3884 -4.41032e-15 -1.06385e-14 -0.582769 6.45691e-15 4.66648e-16)
(5.46862e-15 7.20376e-31 -8.23287e-31 4.89629 -3.69219e-15 2.73925e-15 -0.562023 3.06842e-14 -7.78238e-15)
(-9.08336e-15 -9.26198e-31 1.23493e-30 4.89629 -4.05752e-15 -9.49868e-15 -0.562023 7.07907e-15 7.64663e-16)
(5.44686e-15 -5.825e-31 1.06792e-30 4.45921 -5.24574e-15 2.45913e-15 -0.543194 3.00975e-14 -7.24583e-15)
(-7.39592e-15 5.825e-31 -8.47986e-31 4.45921 -2.39475e-15 -8.27505e-15 -0.543194 7.68882e-15 9.79699e-16)
(0 3.66344e-31 -8.24273e-31 4.06965 -6.408e-15 1.61333e-15 -0.526048 2.955e-14 -6.66404e-15)
(-7.55621e-15 -1.83172e-31 8.99676e-31 4.06965 -9.71849e-16 -6.87595e-15 -0.526048 8.14006e-15 8.23142e-16)
(-3.85546e-15 1.55519e-30 -2.76479e-30 3.72128 -5.93205e-15 7.98107e-16 -0.510382 2.90708e-14 -6.03456e-15)
(-7.71091e-15 -1.55519e-30 0 3.72128 -1.46894e-15 -5.54568e-45 -0.510382 8.60661e-15 2.12931e-29)
(1.96514e-15 6.52057e-31 -8.15071e-31 3.40877 -3.73694e-15 3.14592e-16 -0.496022 2.86282e-14 -5.33576e-15)
(0 -3.26029e-31 -1.71726e-29 3.40877 -3.09588e-15 1.71987e-15 -0.496022 9.06617e-15 1.26996e-16)
(2.00139e-15 9.227e-31 -1.07648e-30 3.12758 -2.80126e-15 1.17482e-16 -0.482812 2.80753e-14 -4.57508e-15)
(-8.00555e-15 -1.23027e-30 1.79182e-30 3.12758 -4.16473e-15 7.21823e-15 -0.482812 9.59186e-15 1.10334e-15)
(-2.03658e-15 -8.7045e-31 9.6623e-31 2.87385 -3.51543e-15 1.76138e-16 -0.470621 2.75157e-14 -3.43322e-15)
(8.14633e-15 8.7045e-31 -1.1606e-30 2.87385 -3.04282e-15 5.99788e-15 -0.470621 1.01362e-14 1.01735e-15)
(-2.0708e-15 -5.4744e-31 0 2.64429 -3.1291e-15 -1.2326e-32 -0.459329 2.70234e-14 -3.9443e-31)
(0 1.09488e-30 -5.4744e-31 2.64429 -3.09068e-15 2.57957e-15 -0.459329 1.06513e-14 8.93526e-16)
(4.42997e-15 -1.03288e-30 1.11212e-30 2.43607 -8.05227e-16 -2.28139e-16 -0.448836 2.64221e-14 -2.12697e-17)
(-2.32584e-15 1.03288e-30 -7.7466e-31 2.43607 -5.57609e-15 -2.6319e-17 -0.448836 1.12622e-14 1.03716e-15)
(-4.33077e-15 1.94878e-30 -2.05635e-30 2.24677 1.36158e-15 3.44889e-16 -0.439048 2.55312e-14 -2.26741e-16)
(0 -1.46159e-30 1.46159e-30 2.24677 -4.93524e-15 -1.44251e-15 -0.439048 1.21572e-14 1.55705e-15)
(-4.13977e-15 9.19214e-31 -9.19214e-31 2.07428 3.48014e-16 1.61614e-15 -0.429887 2.45981e-14 1.58205e-19)
(1.7347e-14 0 4.59607e-31 2.07428 -2.6026e-15 -1.87468e-15 -0.429887 1.27824e-14 2.18406e-15)
(1.70596e-15 -1.73432e-30 8.67162e-31 1.91679 -2.09635e-15 3.00664e-16 -0.421282 2.39703e-14 9.11183e-16)
(-8.79758e-15 8.67162e-31 -6.50372e-31 1.91679 -3.60694e-15 -9.84859e-16 -0.421282 1.30992e-14 2.40207e-15)
(-3.6842e-15 8.18058e-31 -8.18058e-31 1.77271 -3.24747e-15 8.17594e-16 -0.413168 2.34346e-14 1.85922e-15)
(7.07691e-15 0 4.09029e-31 1.77271 -1.94625e-15 -1.25341e-15 -0.413168 1.36181e-14 2.50932e-15)
(0 -7.71734e-31 9.64667e-31 1.64066 -4.24e-15 8.18751e-30 -0.40549 2.27993e-14 1.84041e-15)
(0 -7.00649e-46 -1.54347e-30 1.64066 -4.93038e-32 -5.99949e-17 -0.40549 1.3946e-14 2.80242e-15)
(0 0 -7.28033e-31 1.51943 -3.49905e-15 -1.87025e-15 -0.398196 2.22258e-14 1.83154e-15)
(-9.15455e-15 0 3.64016e-31 1.51943 -4.55318e-16 1.25539e-15 -0.398196 1.43353e-14 2.73349e-15)
(2.31723e-15 0 0 1.40797 -1.57702e-15 -1.92216e-15 -0.39124 2.1691e-14 1.80298e-15)
(0 0 0 1.40797 -2.85758e-15 -9.45195e-17 -0.39124 1.49031e-14 2.6628e-15)
(0 0 -3.23958e-31 1.30532 -5.86501e-16 -1.86709e-15 -0.384582 2.11876e-14 1.79654e-15)
(-1.22992e-14 1.29583e-30 0 1.30532 -2.12277e-15 -3.21172e-16 -0.384582 1.52821e-14 2.74623e-15)
(-2.75272e-15 1.22245e-30 -6.11226e-31 1.21068 -9.13003e-17 -1.90214e-15 -0.378183 2.07094e-14 1.8572e-15)
(0 0 3.05613e-31 1.21068 -1.32119e-15 -6.3382e-17 -0.378183 1.54571e-14 2.7312e-15)
(2.59684e-15 -5.76614e-31 3.60384e-31 1.12329 -8.11832e-16 -9.46831e-16 -0.37201 2.03599e-14 1.83099e-15)
(0 1.75238e-30 -6.48691e-31 1.12329 -2.56282e-15 -4.03109e-16 -0.37201 1.55595e-14 2.75174e-15)
(2.42662e-15 0 -2.71981e-31 1.04251 -1.55009e-15 -5.25888e-16 -0.366032 1.98721e-14 1.62024e-15)
(-9.70648e-15 0 2.71981e-31 1.04251 -2.65928e-15 7.76834e-16 -0.366032 1.6065e-14 2.83648e-15)
(2.45283e-15 0 4.15521e-31 0.967764 -2.98105e-15 -1.50451e-15 -0.360219 1.92035e-14 1.58818e-15)
(7.50024e-15 2.32633e-30 0 0.967764 -1.91321e-15 1.0677e-15 -0.360219 1.62095e-14 2.67016e-15)
(4.36039e-15 -1.9364e-30 -2.4205e-31 0.898523 -4.37992e-15 -5.16268e-15 -0.354546 1.9147e-14 1.76549e-15)
(-1.20946e-14 0 1.21025e-31 0.898523 -2.83297e-15 -5.80779e-17 -0.354546 1.64884e-14 2.69186e-15)
(7.51194e-15 -9.13376e-31 1.14172e-31 0.834323 -3.30251e-15 -6.09433e-15 -0.348989 1.90914e-14 2.54624e-15)
(1.00159e-14 9.13376e-31 -1.14172e-31 0.834323 -1.70535e-15 -7.85718e-16 -0.348989 1.66916e-14 2.85571e-15)
(0 1.72331e-30 0 0.774746 -2.63655e-15 -4.82482e-15 -0.343523 1.90373e-14 3.18415e-15)
(-2.02316e-14 -5.71038e-30 0 0.774746 -1.99422e-15 3.335e-16 -0.343523 1.67399e-14 3.12654e-15)
(0 -1.62572e-30 -4.06431e-31 0.719413 -1.76003e-15 -9.88995e-16 -0.338128 1.9243e-14 3.65081e-15)
(-1.02142e-14 0 0 0.719413 -4.92429e-15 1.90965e-45 -0.338128 1.75847e-14 2.79255e-15)
(2.57774e-15 0 0 0.667982 -4.32689e-16 1.00906e-15 -0.332782 1.87331e-14 3.41269e-15)
(0 1.53366e-30 0 0.667982 -2.97411e-15 -5.81034e-16 -0.332782 1.78334e-14 2.81355e-15)
(0 0 -3.61704e-31 0.620144 -1.3603e-15 -3.36868e-16 -0.327466 1.83925e-14 3.62447e-15)
(1.04063e-14 0 1.96261e-30 0.620144 -2.74535e-15 -8.55842e-16 -0.327466 1.77858e-14 2.63386e-15)
(3.07346e-15 0 0 0.575616 -2.4223e-15 -1.14831e-16 -0.322159 1.84756e-14 3.51878e-15)
(0 0 0 0.575616 -2.74173e-15 -2.06487e-15 -0.322159 1.80197e-14 3.14336e-15)
(5.29625e-15 0 0 0.534142 -2.355e-15 0 -0.316841 1.83063e-14 3.51299e-15)
(1.05925e-14 1.2876e-30 3.219e-31 0.534142 -1.63478e-15 -1.94085e-15 -0.316841 1.80026e-14 3.4225e-15)
(2.73523e-15 0 0 0.495484 -2.02156e-15 -1.30609e-15 -0.31149 1.83766e-14 3.81626e-15)
(-2.73523e-15 1.34592e-30 0 0.495484 -1.95134e-15 -4.78189e-16 -0.31149 1.79917e-14 3.94313e-15)
(1.12874e-16 -2.29181e-30 2.86476e-31 0.459427 -1.21732e-15 2.34242e-15 -0.306084 1.82537e-14 3.62124e-15)
(-1.07729e-14 2.29181e-30 -1.95056e-30 0.459427 -2.94021e-15 -1.16357e-29 -0.306084 1.83711e-14 3.51381e-15)
(2.71522e-15 0 4.18039e-31 0.425771 -6.18009e-16 0 -0.300598 1.76587e-14 2.70176e-15)
(8.42664e-15 0 2.70253e-31 0.425771 -1.714e-15 -1.73967e-15 -0.300598 1.81437e-14 3.29909e-15)
(2.73685e-15 7.09015e-32 0 0.39433 -1.10486e-15 -1.33265e-15 -0.295005 1.76098e-14 3.1807e-15)
(-1.55402e-14 0 1.29908e-30 0.39433 -6.24864e-16 -7.76761e-16 -0.295005 1.83794e-14 1.43963e-15)
(0 0 0 0.364932 -1.89421e-15 -1.48212e-15 -0.289273 1.78699e-14 2.49844e-15)
(6.69977e-15 -1.92652e-31 -3.6529e-31 0.364932 6.42198e-16 2.50494e-16 -0.289273 1.77688e-14 1.81523e-15)
(2.77901e-15 -4.12102e-31 -8.22403e-31 0.337414 -1.02188e-15 0 -0.283367 1.52355e-14 2.78259e-31)
(-1.1116e-14 1.09813e-30 6.72097e-31 0.337414 2.18909e-29 1.27401e-15 -0.283367 1.66983e-14 3.019e-15)
(1.74315e-15 2.23859e-30 8.56181e-31 0.311626 -2.84414e-16 1.83508e-15 -0.277243 1.36615e-14 2.43158e-15)
(-1.11981e-14 9.79773e-31 -1.28427e-30 0.311626 -2.99831e-16 3.1854e-16 -0.277243 1.52428e-14 1.71474e-15)
(-8.17902e-16 8.99429e-31 -1.38001e-32 0.287423 -3.74896e-16 -7.30685e-16 -0.270851 1.26577e-14 1.04124e-15)
(-7.64104e-15 3.55969e-31 -4.03849e-31 0.287423 -1.92177e-15 -2.27663e-15 -0.270851 1.36322e-14 5.54485e-16)
(2.83937e-15 -7.31706e-31 0 0.264667 -6.15007e-16 -1.54969e-15 -0.264129 1.281e-14 9.23666e-16)
(-1.13575e-14 6.43123e-30 -1.05649e-30 0.264667 -1.34199e-15 -1.11826e-15 -0.264129 1.19405e-14 3.73668e-16)
(2.85869e-15 -9.10653e-31 0 0.243224 -1.22418e-15 -3.58427e-15 -0.257003 1.16229e-14 -8.8989e-16)
(-3.23725e-15 3.48533e-30 0 0.243224 -1.71988e-16 -2.86956e-15 -0.257003 1.04789e-14 -6.21629e-16)
(-2.87758e-15 1.3718e-30 0 0.222965 -1.11233e-15 4.28309e-47 -0.249377 8.43003e-15 -4.3865e-16)
(-2.30207e-14 1.06026e-29 0 0.222965 -1.40851e-15 -1.15246e-15 -0.249377 8.45012e-15 -7.92639e-16)
(-2.881e-15 0 6.3971e-31 0.203759 -1.77639e-16 -1.47203e-15 -0.241136 7.96132e-15 -1.18208e-15)
(-1.15841e-14 5.79454e-30 6.3971e-31 0.203759 -6.9249e-16 -2.33722e-15 -0.241136 8.34482e-15 -2.44952e-16)