/*--------------------------------*- C++ -*----------------------------------*\
| =========                 |                                                 |
| \\      /  F ield         | OpenFOAM: The Open Source CFD Toolbox           |
|  \\    /   O peration     | Version:  2106                                  |
|   \\  /    A nd           | Website:  www.openfoam.com                      |
|    \\/     M anipulation  |                                                 |
\*---------------------------------------------------------------------------*/
FoamFile
{
    version     2.0;
    format      ascii;
    arch        "LSB;label=32;scalar=64";
    class       volTensorField;
    location    "20000";
    object      grad(U);
}
// * * * * * * * * * * * * * * * * * * * * * * * * * * * * * * * * * * * * * //

dimensions      [0 0 -1 0 0 0 0];

internalField   nonuniform List<tensor> 
2560
(
(0 7.79589e-31 6.49658e-32 93.8033 -2.87607e-12 -7.14747e-13 0.135793 -2.07183e-15 -2.00395e-16)
(0 -8.71551e-28 -3.95796e-27 93.8033 0 -1.72288e-13 0.135793 -2.17887e-28 3.74037e-17)
(-7.20966e-17 -5.20487e-25 -3.83074e-26 93.7894 3.15414e-32 -9.25445e-14 0.409312 0 -2.71817e-16)
(0 -4.09822e-30 -5.12277e-31 93.7894 -1.09197e-14 -1.67941e-13 0.409312 -2.59197e-17 -1.98787e-16)
(-1.71913e-17 -4.03948e-30 -3.96297e-31 93.7751 3.47656e-12 -4.53286e-14 0.562891 -1.79909e-14 -2.6845e-16)
(0 8.07896e-30 5.04935e-31 93.7751 -6.63646e-15 -1.04132e-14 0.562891 -3.30912e-17 -2.04636e-16)
(5.51285e-17 -2.65918e-26 -6.11438e-31 93.759 -8.16603e-32 -4.50795e-14 0.57097 -3.15544e-30 -2.76744e-16)
(0 7.96317e-30 4.97698e-31 93.759 -9.56222e-15 -1.05783e-14 0.57097 -5.19657e-17 -2.10634e-16)
(2.76163e-16 -1.56981e-29 -9.81129e-31 93.738 8.38693e-14 -4.58659e-14 0.57912 -1.01995e-15 -2.86032e-16)
(0 1.17736e-29 9.81129e-31 93.738 -9.77889e-15 -1.07303e-14 0.57912 -7.18554e-17 -2.16781e-16)
(4.04873e-16 -1.41845e-29 -6.0816e-31 93.705 1.52708e-16 -4.65376e-14 0.587283 -1.65976e-18 -2.93273e-16)
(1.06135e-15 1.16048e-29 4.83534e-31 93.705 -9.90744e-15 -1.08438e-14 0.587283 -9.2788e-17 -2.2309e-16)
(-1.72299e-16 -4.04785e-28 -3.45745e-31 93.6475 7.30682e-17 -4.68337e-14 0.595353 -2.30676e-19 -2.98177e-16)
(6.89197e-16 7.62565e-30 9.53207e-31 93.6475 -1.01041e-14 -1.08874e-14 0.595353 -1.14432e-16 -2.29508e-16)
(-4.76985e-16 1.38364e-29 6.07454e-31 93.5447 1.87075e-14 -4.66776e-14 0.60316 -1.17466e-16 -2.99849e-16)
(8.50107e-16 -7.51636e-30 0 93.5447 -1.04034e-14 -1.08198e-14 0.60316 -1.36367e-16 -2.35996e-16)
(7.74704e-16 -9.96693e-30 -1.07132e-30 93.3657 1.88318e-14 -4.5902e-14 0.610449 -1.22241e-16 -2.96757e-16)
(-5.21336e-16 7.40863e-30 4.63039e-31 93.3657 -1.06087e-14 -1.05814e-14 0.610449 -1.59926e-16 -2.42452e-16)
(-5.13864e-16 7.30244e-30 4.56403e-31 93.0682 1.9113e-14 -4.42816e-14 0.616876 -1.22535e-16 -2.8711e-16)
(0 -3.65122e-30 -4.56403e-31 93.0682 -1.05995e-14 -1.01204e-14 0.616876 -1.82873e-16 -2.48753e-16)
(-3.36927e-16 -1.18442e-29 -1.18647e-30 92.5986 1.98305e-14 -4.15952e-14 0.622004 -1.29557e-16 -2.69249e-16)
(0 1.43956e-29 1.34958e-30 92.5986 -1.08753e-14 -9.37827e-15 0.622004 -2.05704e-16 -2.54747e-16)
(3.79625e-16 -2.38311e-29 -2.39058e-30 91.8953 2.03335e-14 -3.76726e-14 0.625331 -1.35793e-16 -2.4189e-16)
(0 1.77365e-29 1.77365e-30 91.8953 -1.1261e-14 -8.30303e-15 0.625331 -2.31328e-16 -2.60222e-16)
(9.84168e-16 -1.39859e-29 -8.74117e-31 90.8939 2.05053e-14 -3.24448e-14 0.626335 -1.40229e-16 -2.04623e-16)
(-9.84168e-16 1.39859e-29 8.74117e-31 90.8939 -1.11513e-14 -6.88346e-15 0.626335 -2.57681e-16 -2.64928e-16)
(-4.66586e-16 9.4323e-30 1.05807e-30 89.5364 2.08247e-14 -2.59978e-14 0.624545 -1.42154e-16 -1.58252e-16)
(1.86635e-15 -3.44635e-30 0 89.5364 -1.11567e-14 -5.1558e-15 0.624545 -2.84257e-16 -2.68639e-16)
(0 1.35878e-29 1.69848e-30 87.7808 2.142e-14 -1.85975e-14 0.619619 -1.48831e-16 -1.04963e-16)
(0 -1.35878e-29 -1.69848e-30 87.7808 -1.12297e-14 -3.18586e-15 0.619619 -3.11891e-16 -2.71151e-16)
(-5.54741e-16 2.53041e-30 2.19326e-31 85.6108 2.19867e-14 -1.06696e-14 0.611409 -1.54818e-16 -4.80552e-17)
(2.21896e-15 0 0 85.6108 -1.10908e-14 -1.0839e-15 0.611409 -3.38324e-16 -2.72268e-16)
(0 1.32011e-29 -1.02286e-28 83.0405 2.22543e-14 6.2377e-29 0.599997 -1.61399e-16 1.97215e-31)
(-2.395e-15 -1.32011e-29 -1.65014e-30 83.0405 -1.13403e-14 9.96684e-16 0.599997 -3.63387e-16 -2.71882e-16)
(0 1.62649e-29 -1.76678e-28 80.1139 2.19557e-14 2.32757e-15 0.585686 -1.63286e-16 -8.61276e-18)
(-2.56947e-15 -1.62649e-29 -1.21987e-30 80.1139 -1.12639e-14 2.92084e-15 0.585686 -3.91749e-16 -2.70054e-16)
(9.02509e-16 -6.41271e-30 -8.01589e-31 76.8994 2.13609e-14 1.11953e-14 0.568952 -1.61674e-16 -6.13229e-17)
(0 6.41271e-30 4.00795e-31 76.8994 -1.08562e-14 4.57144e-15 0.568952 -4.1942e-16 -2.66896e-16)
(7.27389e-16 1.0128e-29 5.77886e-31 73.4801 2.08286e-14 1.64792e-14 0.550371 -1.59073e-16 -1.07123e-16)
(-2.90955e-15 -1.5802e-29 -7.90101e-31 73.4801 -1.07054e-14 5.88452e-15 0.550371 -4.46267e-16 -2.62666e-16)
(-8.76824e-16 1.55755e-29 2.33633e-30 69.9427 2.01331e-14 2.0441e-14 0.530547 -1.58242e-16 -1.44203e-16)
(8.76824e-16 -1.55755e-29 -2.33633e-30 69.9427 -1.0273e-14 6.84742e-15 0.530547 -4.73628e-16 -2.57537e-16)
(5.62685e-17 -3.63459e-30 1.98245e-31 66.369 1.92619e-14 2.31119e-14 0.510046 -1.52905e-16 -1.71941e-16)
(-8.64257e-16 9.21137e-30 3.83807e-31 66.369 -9.62819e-15 7.4715e-15 0.510046 -4.99974e-16 -2.51767e-16)
(5.61929e-18 -2.47351e-29 -3.21233e-30 62.829 1.85637e-14 2.46276e-14 0.489361 -1.49117e-16 -1.90615e-16)
(0 2.42116e-29 2.64814e-30 62.829 -9.34303e-15 7.78633e-15 0.489361 -5.2497e-16 -2.45529e-16)
(0 1.49154e-29 1.11865e-30 59.3785 1.82426e-14 2.51785e-14 0.468889 -1.46195e-16 -2.01266e-16)
(-3.53219e-15 -2.08815e-29 -1.49154e-30 59.3785 -9.28985e-15 7.84327e-15 0.468889 -5.51175e-16 -2.39037e-16)
(9.18354e-16 1.22056e-29 1.28682e-30 56.0581 1.79761e-14 2.49718e-14 0.44893 -1.48264e-16 -2.05155e-16)
(0 -1.47016e-29 -1.47016e-30 56.0581 -9.45646e-15 7.69113e-15 0.44893 -5.75764e-16 -2.32445e-16)
(-2.72011e-15 2.52727e-29 2.17128e-30 52.8953 1.7288e-14 2.42035e-14 0.429696 -1.46082e-16 -2.03753e-16)
(8.15764e-16 -2.02872e-29 -1.81136e-30 52.8953 -9.31494e-15 7.37537e-15 0.429696 -5.99064e-16 -2.26035e-16)
(4.56176e-15 -3.0323e-29 -2.31714e-30 49.9057 1.65051e-14 2.30367e-14 0.411325 -1.41093e-16 -1.98308e-16)
(7.87631e-15 2.28531e-29 1.7854e-30 49.9057 -8.4118e-15 6.98821e-15 0.411325 -6.24263e-16 -2.19891e-16)
(-1.5851e-15 -1.68942e-29 -1.75981e-30 47.0963 1.60457e-14 2.16111e-14 0.393894 -1.37069e-16 -1.89911e-16)
(4.062e-15 1.68942e-29 1.75981e-30 47.0963 -8.01912e-15 6.57399e-15 0.393894 -6.49403e-16 -2.13905e-16)
(1.04512e-15 3.06683e-30 8.67284e-31 44.4676 1.55602e-14 2.00359e-14 0.377438 -1.37313e-16 -1.79562e-16)
(0 -2.77534e-30 -6.93835e-31 44.4676 -8.30834e-15 6.119e-15 0.377438 -6.7203e-16 -2.08063e-16)
(-2.14691e-15 4.9632e-30 3.44535e-31 42.0154 1.43844e-14 1.8394e-14 0.361957 -1.326e-16 -1.67948e-16)
(-8.58763e-15 0 0 42.0154 -8.15911e-15 5.64324e-15 0.361957 -6.96658e-16 -2.02378e-16)
(-1.10059e-15 1.05692e-29 1.18256e-30 39.7322 1.42857e-14 1.67477e-14 0.347429 -1.20492e-16 -1.55713e-16)
(-5.92025e-15 -5.39271e-30 -6.74088e-31 39.7322 -8.44851e-15 5.12016e-15 0.347429 -7.24249e-16 -1.96971e-16)
(0 1.59462e-29 9.9664e-31 37.6092 1.47851e-14 1.51368e-14 0.333818 -1.34707e-16 -1.43258e-16)
(-4.50633e-15 -1.59462e-29 -9.9664e-31 37.6092 -8.71844e-15 4.61386e-15 0.333818 -7.51706e-16 -1.92303e-16)
(1.47471e-15 -1.57177e-29 -1.63726e-30 35.6362 1.35899e-14 1.35814e-14 0.321079 -1.33134e-16 -1.30878e-16)
(3.13134e-15 1.57177e-29 1.63726e-30 35.6362 -7.70894e-15 4.1722e-15 0.321079 -7.76598e-16 -1.8779e-16)
(-1.17545e-15 2.47029e-30 1.70587e-31 33.8027 1.27612e-14 1.20971e-14 0.30916 -1.16527e-16 -1.1866e-16)
(0 2.58207e-30 3.22759e-31 33.8027 -6.938e-15 3.75297e-15 0.30916 -8.01993e-16 -1.83476e-16)
(-1.19845e-15 1.77369e-29 1.12518e-30 32.0986 1.27085e-14 1.06973e-14 0.298011 -1.21468e-16 -1.06832e-16)
(0 -1.52704e-29 -9.54398e-31 32.0986 -6.90755e-15 3.36545e-15 0.298011 -8.19847e-16 -1.79327e-16)
(-2.63278e-15 9.98952e-30 4.84755e-31 30.5138 1.20793e-14 9.38498e-15 0.287578 -1.18937e-16 -9.54608e-17)
(-4.88229e-15 -2.50859e-30 0 30.5138 -6.8367e-15 2.97909e-15 0.287578 -8.3629e-16 -1.75358e-16)
(1.24188e-15 -9.87912e-30 -4.80848e-31 29.0389 1.19205e-14 8.16062e-15 0.27781 -1.12863e-16 -8.45903e-17)
(0 7.41789e-30 3.09079e-31 29.0389 -6.04493e-15 2.6039e-15 0.27781 -8.56058e-16 -1.71704e-16)
(1.26243e-15 -1.22057e-29 -1.39111e-30 27.6649 1.17402e-14 7.02103e-15 0.26866 -1.19304e-16 -7.42426e-17)
(0 9.74877e-30 1.2186e-30 27.6649 -5.93884e-15 2.27589e-15 0.26866 -8.76256e-16 -1.68278e-16)
(-2.63461e-15 9.66153e-30 1.07429e-30 26.3836 1.10996e-14 5.96254e-15 0.260082 -1.12582e-16 -6.43913e-17)
(0 -2.40226e-30 -3.00283e-31 26.3836 -6.36976e-15 1.96862e-15 0.260082 -9.00738e-16 -1.64949e-16)
(0 1.18391e-29 8.87936e-31 25.1875 1.07859e-14 4.98343e-15 0.252032 -1.09866e-16 -5.50479e-17)
(0 -1.4207e-29 -8.87936e-31 25.1875 -5.79398e-15 1.66123e-15 0.252032 -9.20338e-16 -1.61953e-16)
(-1.31996e-15 4.78271e-30 7.59197e-31 24.0696 1.07002e-14 4.07762e-15 0.244471 -1.09454e-16 -4.62231e-17)
(3.96599e-15 0 0 24.0696 -4.79504e-15 1.39453e-15 0.244471 -9.37322e-16 -1.5927e-16)
(0 -1.61031e-29 -1.15022e-30 23.0235 1.10201e-14 3.23823e-15 0.237361 -1.11305e-16 -3.78377e-17)
(5.35166e-15 1.61031e-29 1.15022e-30 23.0235 -5.35018e-15 1.16462e-15 0.237361 -9.56407e-16 -1.56632e-16)
(7.88405e-17 8.8959e-30 6.71747e-31 22.0435 1.03092e-14 2.46092e-15 0.230669 -1.19404e-16 -2.98809e-17)
(-4.14478e-15 -1.58723e-29 -8.50302e-31 22.0435 -6.11108e-15 9.56377e-16 0.230669 -9.81318e-16 -1.53995e-16)
(1.37219e-15 -9.14678e-30 -7.38927e-31 21.1241 8.77656e-15 1.73648e-15 0.224364 -9.93606e-17 -2.23206e-17)
(0 6.70492e-30 5.58743e-31 21.1241 -4.91705e-15 7.47089e-16 0.224364 -9.972e-16 -1.51487e-16)
(-1.38859e-15 -1.96492e-30 1.8196e-31 20.2607 9.11577e-15 1.06437e-15 0.218417 -8.96436e-17 -1.50361e-17)
(0 8.81176e-30 2.75367e-31 20.2607 -3.94262e-15 5.17742e-16 0.218417 -1.01338e-15 -1.49206e-16)
(1.40452e-15 1.90763e-30 8.75603e-32 19.4487 9.51433e-15 4.45124e-16 0.212802 -1.09739e-16 -8.1777e-18)
(3.17335e-15 0 0 19.4487 -3.42047e-15 3.13856e-16 0.212802 -1.02247e-15 -1.47137e-16)
(1.20485e-15 -4.28049e-30 -1.07012e-30 18.6844 8.58859e-15 -1.3682e-16 0.207494 -1.01172e-16 -4.76971e-18)
(5.6801e-15 8.56098e-30 1.07012e-30 18.6844 -4.06672e-15 1.56554e-16 0.207494 -1.02926e-15 -1.4515e-16)
(-1.43512e-15 2.43302e-30 1.8592e-31 17.9639 8.03577e-15 -6.77897e-16 0.202472 -9.19761e-17 -1.07456e-17)
(0 0 0 17.9639 -5.11282e-15 -5.97167e-18 0.202472 -1.04655e-15 -1.43061e-16)
(-1.44983e-15 2.43038e-30 1.86591e-31 17.284 7.41687e-15 -1.17231e-15 0.197716 -9.14262e-17 -1.6441e-17)
(0 4.15867e-30 5.19833e-31 17.284 -3.967e-15 -1.63079e-16 0.197716 -1.06217e-15 -1.41058e-16)
(2.30757e-15 -8.19813e-30 -5.12383e-31 16.6418 7.5689e-15 -1.63846e-15 0.193206 -8.02353e-17 -2.20909e-17)
(-2.30757e-15 8.19813e-30 5.12383e-31 16.6418 -2.15688e-15 -2.86635e-16 0.193206 -1.07113e-15 -1.39043e-16)
(-3.75267e-15 -3.63428e-30 1.88414e-31 16.0344 8.69841e-15 -2.07516e-15 0.188926 -9.77018e-17 -2.74066e-17)
(0 8.08063e-30 1.01008e-30 16.0344 -2.56121e-15 -4.15253e-16 0.188926 -1.07745e-15 -1.37198e-16)
(-2.24189e-15 1.59296e-29 -1.94118e-31 15.4594 8.7777e-15 3.2049e-29 0.18486 -1.09702e-16 0)
(-5.9674e-15 -1.59296e-29 -9.95601e-31 15.4594 -3.81077e-15 -5.77446e-16 0.18486 -1.09339e-15 -1.35646e-16)
(7.0455e-16 -1.32798e-29 -3.05107e-31 14.9144 8.45797e-15 5.64912e-15 0.180994 -1.02495e-16 -5.46467e-17)
(3.81109e-15 1.57013e-29 9.81332e-31 14.9144 -4.09473e-15 -7.46862e-16 0.180994 -1.11334e-15 -1.34494e-16)
(0 1.54763e-29 9.67267e-31 14.3974 8.39875e-15 6.5629e-15 0.177315 -1.05015e-16 -8.4151e-17)
(0 -1.54763e-29 -9.67267e-31 14.3974 -4.67555e-15 -8.78206e-16 0.177315 -1.13053e-15 -1.33471e-16)
(-1.53107e-15 1.0044e-29 1.13165e-30 13.9066 8.04823e-15 6.06781e-15 0.17381 -1.04013e-16 -7.91557e-17)
(6.12429e-15 -7.62723e-30 -9.53403e-31 13.9066 -3.98763e-15 -9.57915e-16 0.17381 -1.14147e-15 -1.32432e-16)
(3.08719e-15 -1.23474e-29 -8.24344e-31 13.44 7.23069e-15 5.54847e-15 0.170469 -9.91761e-17 -7.4024e-17)
(6.17439e-15 7.51791e-30 4.69869e-31 13.44 -2.93382e-15 -1.02297e-15 0.170469 -1.14893e-15 -1.31072e-16)
(0 -7.41016e-30 -4.63135e-31 12.9961 6.02593e-15 5.0179e-15 0.167282 -8.59635e-17 -6.80732e-17)
(0 7.41016e-30 9.2627e-31 12.9961 -3.87505e-15 -1.1287e-15 0.167282 -1.16434e-15 -1.29766e-16)
(-1.5679e-15 -4.88954e-30 -2.80531e-31 12.5735 5.57979e-15 4.54124e-15 0.164238 -7.05415e-17 -6.23025e-17)
(0 1.09559e-29 4.56497e-31 12.5735 -3.59823e-15 -1.25755e-15 0.164238 -1.18681e-15 -1.28853e-16)
(-3.15939e-15 1.2022e-29 8.00804e-31 12.1707 6.51581e-15 4.13568e-15 0.161329 -7.66322e-17 -5.74072e-17)
(6.31879e-15 -1.07989e-29 -4.49954e-31 12.1707 -3.18638e-15 -1.37135e-15 0.161329 -1.20542e-15 -1.28028e-16)
(-1.59128e-15 2.40579e-30 -2.6859e-31 11.7865 6.28096e-15 3.7435e-15 0.158546 -9.78301e-17 -5.31991e-17)
(0 3.54804e-30 4.43505e-31 11.7865 -3.09458e-15 -1.43799e-15 0.158546 -1.2273e-15 -1.27325e-16)
(3.66093e-16 -1.0897e-30 -2.62503e-31 11.4198 4.89442e-15 3.31476e-15 0.155883 -7.24567e-17 -4.83674e-17)
(4.44185e-15 3.49719e-30 8.74297e-31 11.4198 -5.24539e-16 -1.46861e-15 0.155883 -1.24006e-15 -1.26444e-16)
(-1.61382e-15 9.30083e-30 1.03641e-30 11.0695 5.43981e-15 2.92906e-15 0.153333 -6.22393e-17 -4.28661e-17)
(0 0 0 11.0695 -1.12272e-15 -1.54566e-15 0.153333 -1.24366e-15 -1.25799e-16)
(-5.16231e-15 1.4993e-29 1.19842e-30 10.7346 6.87839e-15 2.5942e-15 0.150889 -8.9926e-17 -3.89311e-17)
(-4.58648e-15 -1.0193e-29 -8.49415e-31 10.7346 -3.06626e-15 -1.70052e-15 0.150889 -1.26785e-15 -1.2576e-16)
(-1.38589e-15 -5.2564e-30 -4.88127e-31 10.4142 7.09785e-15 2.24369e-15 0.148544 -1.05131e-16 -3.45621e-17)
(1.11994e-14 1.00469e-29 8.37241e-31 10.4142 -3.08406e-15 -1.7826e-15 0.148544 -1.28296e-15 -1.2634e-16)
(-4.93864e-15 2.36858e-29 1.76226e-30 10.1074 6.33916e-15 1.94671e-15 0.146295 -9.89164e-17 -2.99197e-17)
(-6.58485e-15 -1.65048e-29 -1.23786e-30 10.1074 -3.69022e-15 -1.8068e-15 0.146295 -1.29576e-15 -1.26617e-16)
(-1.65666e-15 -7.36737e-30 -6.38474e-31 9.81348 6.28683e-15 1.658e-15 0.144134 -8.59172e-17 -2.68481e-17)
(6.62666e-15 1.30146e-29 1.22012e-30 9.81348 -3.18468e-15 -1.89748e-15 0.144134 -1.31716e-15 -1.26854e-16)
(3.47234e-15 -1.20105e-29 -9.77229e-31 9.53171 6.24744e-15 1.30328e-15 0.142058 -1.00254e-16 -2.21891e-17)
(-1.80539e-15 9.62106e-30 8.01755e-31 9.53171 -3.27678e-15 -1.98159e-15 0.142058 -1.32913e-15 -1.27628e-16)
(0 -1.58053e-29 -1.1854e-30 9.26141 5.08006e-15 9.70293e-16 0.140062 -8.72427e-17 -1.69062e-17)
(6.70835e-15 1.58053e-29 1.1854e-30 9.26141 -3.38394e-15 -2.06404e-15 0.140062 -1.34346e-15 -1.28311e-16)
(0 -6.2315e-30 -3.89468e-31 9.00193 4.67758e-15 6.25493e-16 0.138142 -6.73698e-17 -1.26213e-17)
(6.74829e-15 6.2315e-30 3.89468e-31 9.00193 -1.71208e-15 -2.10852e-15 0.138142 -1.36086e-15 -1.29113e-16)
(-3.45774e-15 9.21327e-30 7.67773e-31 8.75271 5.95327e-15 3.52061e-16 0.136293 -7.72688e-17 -6.66741e-18)
(6.78766e-15 -3.07109e-30 -3.83886e-31 8.75271 -8.2209e-16 -2.12306e-15 0.136293 -1.36845e-15 -1.29669e-16)
(0 1.21083e-29 1.13515e-30 8.51318 6.65716e-15 1.45878e-16 0.134513 -1.09634e-16 -4.35506e-18)
(0 -1.21083e-29 -1.13515e-30 8.51318 -2.96723e-15 -2.19528e-15 0.134513 -1.37475e-15 -1.30483e-16)
(-3.43238e-15 4.75438e-30 3.59808e-31 8.28285 4.9913e-15 -1.06216e-16 0.132798 -1.02087e-16 -3.71267e-18)
(0 0 0 8.28285 -3.6216e-15 -2.28721e-15 0.132798 -1.39841e-15 -1.31755e-16)
(3.31119e-15 -1.47046e-29 -1.10285e-30 8.06123 3.49496e-15 -3.40515e-16 0.131144 -5.86904e-17 -7.4641e-18)
(3.59135e-15 1.47046e-29 1.10285e-30 8.06123 -5.40187e-16 -2.30675e-15 0.131144 -1.41079e-15 -1.33442e-16)
(0 5.79755e-30 3.62347e-31 7.84789 3.11241e-15 -6.14603e-16 0.129549 -5.57258e-17 -1.29928e-17)
(6.93983e-15 -2.89877e-30 0 7.84789 5.1655e-16 -2.33846e-15 0.129549 -1.40399e-15 -1.34779e-16)
(-1.74416e-15 -4.76445e-31 1.8092e-31 7.64241 3.51891e-15 -8.85044e-16 0.12801 -4.7609e-17 -1.68636e-17)
(0 5.71445e-30 0 7.64241 -3.35961e-16 -2.37416e-15 0.12801 -1.40046e-15 -1.36388e-16)
(1.75325e-15 6.07323e-30 1.70321e-31 7.44439 4.17632e-15 -1.0981e-15 0.126524 -7.1158e-17 -2.07113e-17)
(0 -5.63255e-30 0 7.44439 -5.53632e-17 -2.41088e-15 0.126524 -1.40443e-15 -1.37538e-16)
(1.5627e-15 -8.32773e-30 -3.46989e-31 7.25347 2.30004e-15 -1.33081e-15 0.125089 -7.16457e-17 -2.5489e-17)
(-1.5627e-15 1.11036e-29 3.46989e-31 7.25347 1.07512e-15 -2.49649e-15 0.125089 -1.40236e-15 -1.39567e-16)
(1.5403e-15 -5.47225e-30 -6.84031e-31 7.06931 -1.06925e-16 -1.56807e-15 0.123702 -1.15835e-17 -2.97291e-17)
(-1.5403e-15 5.47225e-30 6.84031e-31 7.06931 1.17085e-15 -2.56555e-15 0.123702 -1.39194e-15 -1.41915e-16)
(-2.04151e-15 0 -3.05082e-31 6.89158 -2.38337e-30 -1.83411e-15 0.122361 -3.15544e-30 -3.58039e-17)
(0 8.09073e-30 3.37114e-31 6.89158 4.80451e-16 -2.62507e-15 0.122361 -1.39081e-15 -1.44431e-16)
(-1.78854e-15 1.0356e-29 1.183e-30 6.71999 1.00181e-15 -2.05749e-15 0.121064 -9.07273e-18 -3.8751e-17)
(0 -7.97477e-30 -9.96846e-31 6.71999 1.73264e-16 -2.59683e-15 0.121064 -1.39154e-15 -1.47252e-16)
(1.79711e-15 -2.37553e-30 -1.87749e-31 6.55425 3.2307e-15 -2.20379e-15 0.11981 -4.35161e-17 -4.22685e-17)
(-7.18845e-15 0 6.55039e-31 6.55425 -2.33361e-15 -2.62402e-15 0.11981 -1.39561e-15 -1.4999e-16)
(0 -5.16521e-30 -3.22825e-31 6.3941 4.65601e-15 -2.92848e-15 0.118596 -7.54496e-17 -6.71037e-17)
(-7.22238e-15 7.74781e-30 3.22825e-31 6.3941 -3.51888e-15 -2.80822e-15 0.118596 -1.43304e-15 -1.54206e-16)
(-1.81399e-15 1.50898e-29 1.13966e-30 6.23927 4.85537e-15 -4.28215e-15 0.11742 -9.83223e-17 -9.50868e-17)
(1.16458e-14 -7.63676e-30 -6.36397e-31 6.23927 -1.73099e-15 -2.92873e-15 0.11742 -1.45051e-15 -1.60247e-16)
(1.82229e-15 1.01844e-29 4.3913e-31 6.08953 4.6281e-15 -5.01939e-15 0.116281 -8.5256e-17 -9.75695e-17)
(7.28917e-15 -1.75637e-29 -6.27276e-31 6.08953 -3.52275e-15 -2.90322e-15 0.116281 -1.45964e-15 -1.65809e-16)
(0 0 0 5.94466 5.50782e-15 -5.12585e-15 0.115178 -9.24167e-17 -1.02047e-16)
(0 2.47314e-30 3.09143e-31 5.94466 -4.65324e-15 -2.86793e-15 0.115178 -1.51054e-15 -1.7098e-16)
(-1.83866e-15 -9.83782e-30 -1.10469e-31 5.80445 5.73979e-15 -5.22945e-15 0.114108 -1.22256e-16 -1.0455e-16)
(7.35462e-15 1.46262e-29 9.14135e-31 5.80445 -3.78597e-15 -2.8811e-15 0.114108 -1.5251e-15 -1.7674e-16)
(-1.84672e-15 9.55824e-30 1.09802e-30 5.66869 5.09548e-15 -5.24807e-15 0.113071 -1.04354e-16 -1.05789e-16)
(-7.38687e-15 -4.80551e-30 -6.00689e-31 5.66869 -5.20876e-15 -2.98518e-15 0.113071 -1.54874e-15 -1.82705e-16)
(1.8547e-15 -1.18204e-29 -4.9456e-31 5.53719 5.69972e-15 -5.32304e-15 0.112065 -9.98274e-17 -1.10683e-16)
(7.41881e-15 9.47327e-30 2.9604e-31 5.53719 -4.7605e-15 -3.12181e-15 0.112065 -1.58716e-15 -1.89999e-16)
(-4.49089e-15 1.40107e-29 7.84376e-31 5.40979 6.45771e-15 -5.38954e-15 0.111089 -1.32158e-16 -1.11651e-16)
(1.00787e-14 -1.16719e-29 -5.83594e-31 5.40979 -4.21804e-15 -3.08892e-15 0.111089 -1.59091e-15 -1.9819e-16)
(-1.87045e-15 4.63586e-30 2.02514e-31 5.2863 5.84122e-15 -5.44199e-15 0.110142 -1.34247e-16 -1.16136e-16)
(0 -2.30092e-30 0 5.2863 -5.90283e-15 -3.07854e-15 0.110142 -1.62081e-15 -2.04622e-16)
(-1.87822e-15 2.33596e-30 2.04555e-31 5.16656 5.36948e-15 -5.57619e-15 0.109223 -1.10041e-16 -1.20661e-16)
(0 4.53588e-30 0 5.16656 -6.58841e-15 -3.24575e-15 0.109223 -1.65872e-15 -2.12293e-16)
(-4.4028e-15 -6.60902e-30 -3.51404e-31 5.05043 6.59012e-15 -5.57989e-15 0.10833 -1.18004e-16 -1.19699e-16)
(7.54371e-15 1.11772e-29 5.58858e-31 5.05043 -5.9162e-15 -3.28091e-15 0.10833 -1.68305e-15 -2.21159e-16)
(-5.87236e-16 -8.93246e-30 -7.60478e-31 4.93776 7.41416e-15 -5.57588e-15 0.107462 -1.66228e-16 -1.24019e-16)
(2.4808e-15 6.61018e-30 5.50848e-31 4.93776 -5.01943e-15 -3.16559e-15 0.107462 -1.70561e-15 -2.25061e-16)
(0 -4.34363e-30 -1.08591e-30 4.82842 6.1335e-15 -5.68591e-15 0.10662 -1.57737e-16 -1.28119e-16)
(0 6.51544e-30 1.08591e-30 4.82842 -5.0559e-15 -3.22636e-15 0.10662 -1.72544e-15 -2.28147e-16)
(-1.90865e-15 -4.09822e-30 -3.19927e-31 4.72226 5.17846e-15 -5.7309e-15 0.1058 -1.13901e-16 -1.29691e-16)
(0 1.07034e-29 5.35171e-31 4.72226 -4.90875e-15 -3.43233e-15 0.1058 -1.75646e-15 -2.33779e-16)
(-2.37565e-15 -1.899e-29 -1.055e-30 4.61918 6.05846e-15 -5.81274e-15 0.105004 -1.19084e-16 -1.35634e-16)
(1.77045e-14 1.899e-29 1.055e-30 4.61918 -4.15302e-15 -3.55225e-15 0.105004 -1.78566e-15 -2.40901e-16)
(-2.3416e-15 0 0 4.51905 7.11588e-15 -5.93081e-15 0.10423 -1.57691e-16 -1.38996e-16)
(7.69398e-15 4.15952e-30 5.19941e-31 4.51905 -5.10409e-15 -3.42198e-15 0.10423 -1.8097e-15 -2.47701e-16)
(-4.23888e-15 1.87035e-29 1.76182e-30 4.42175 6.34322e-15 -5.88293e-15 0.103476 -1.71888e-16 -1.37342e-16)
(-7.72333e-15 -1.43497e-29 -1.02498e-30 4.42175 -5.71176e-15 -3.26905e-15 0.103476 -1.85954e-15 -2.51203e-16)
(3.36848e-16 8.3694e-30 2.32644e-31 4.32719 4.42486e-15 -5.06722e-15 0.102744 -1.25751e-16 -1.03911e-16)
(-1.00274e-14 -4.04115e-30 -5.05143e-31 4.32719 -4.10329e-15 -3.41063e-15 0.102744 -1.89609e-15 -2.56067e-16)
(0 5.97484e-30 -2.56896e-29 4.23526 3.28487e-15 -1.36221e-15 0.10203 -8.48336e-17 -1.64661e-17)
(-2.24236e-15 -1.99161e-30 -4.97903e-31 4.23526 -1.87325e-15 -3.52809e-15 0.10203 -1.89751e-15 -2.6359e-16)
(0 5.8892e-30 4.90767e-31 4.14587 4.26511e-15 -7.40651e-16 0.101336 -7.39144e-17 -1.98906e-17)
(5.59986e-15 -1.96307e-30 0 4.14587 -2.66272e-15 -3.54522e-15 0.101336 -1.89837e-15 -2.70808e-16)
(-2.18896e-16 1.7059e-29 1.68921e-30 4.05891 6.73632e-15 -8.32491e-16 0.10066 -1.35753e-16 -2.15523e-17)
(0 -1.54795e-29 -9.67466e-31 4.05891 -6.0102e-15 -3.68101e-15 0.10066 -1.93673e-15 -2.77819e-16)
(0 -1.9072e-29 -1.4304e-30 3.97432 7.56793e-15 -9.76113e-16 0.100002 -1.99959e-16 -2.77776e-17)
(1.57338e-14 1.9072e-29 1.4304e-30 3.97432 -5.69453e-15 -3.0528e-15 0.100002 -1.99526e-15 -2.8715e-16)
(0 -3.75973e-30 -4.69966e-31 3.89199 6.3699e-15 -1.19505e-15 0.0993612 -1.82024e-16 -3.348e-17)
(1.579e-14 7.51946e-30 0 3.89199 -5.59973e-15 -1.6888e-15 0.0993612 -2.00381e-15 -2.86791e-16)
(-3.96146e-15 4.54182e-30 4.86655e-31 3.81185 4.63164e-15 -1.31065e-15 0.0987367 -1.44002e-16 -3.46429e-17)
(0 0 0 3.81185 -5.06803e-15 -1.05558e-15 0.0987367 -2.03174e-15 -2.76554e-16)
(-1.98767e-15 2.27348e-30 2.43491e-31 3.73383 2.74796e-15 -1.3112e-15 0.0981282 -9.63612e-17 -3.449e-17)
(1.59013e-14 3.65273e-30 0 3.73383 -1.06301e-15 -1.06056e-15 0.0981282 -2.05826e-15 -2.67701e-16)
(1.99456e-15 -9.47769e-30 -2.444e-31 3.65785 1.75333e-15 -1.17954e-15 0.0975352 -4.81792e-17 -2.85635e-17)
(0 7.20075e-30 0 3.65785 -1.14949e-15 -1.05101e-15 0.0975352 -2.0544e-15 -2.58327e-16)
(-2.0014e-15 2.27606e-30 -1.98687e-31 3.58384 7.85802e-16 -9.30601e-16 0.096957 -4.5592e-17 -2.18924e-17)
(0 3.54877e-30 4.43597e-31 3.58384 -1.50065e-15 -1.07652e-15 0.096957 -2.08461e-15 -2.50828e-16)
(-2.00821e-15 -2.8026e-45 1.1197e-30 3.51174 0 -6.94173e-16 0.0963934 -1.77348e-45 -1.6288e-17)
(8.03284e-15 -1.04937e-29 -8.74477e-31 3.51174 1.32096e-15 -1.13223e-15 0.0963934 -2.08393e-15 -2.45468e-16)
(-2.01498e-15 -7.1073e-30 6.75951e-31 3.44148 6.00994e-16 -5.71369e-16 0.0958438 -8.39289e-18 -1.56239e-17)
(6.11898e-15 0 0 3.44148 9.20305e-16 -1.2485e-15 0.0958438 -2.04599e-15 -2.40818e-16)
(-4.0434e-15 4.55384e-30 4.88695e-31 3.37299 1.69658e-15 -5.65544e-16 0.0953077 -6.16523e-17 -1.64326e-17)
(0 0 0 3.37299 6.71565e-17 -1.1881e-15 0.0953077 -2.05067e-15 -2.37029e-16)
(-1.42699e-16 8.97967e-30 -1.30945e-30 3.30623 1.28579e-15 -1.1091e-16 0.0947848 -3.42995e-17 -1.59423e-18)
(-1.88569e-15 -3.34965e-30 0 3.30623 2.59329e-16 -1.13263e-15 0.0947848 -2.05176e-15 -2.29998e-16)
(0 -6.60329e-30 -6.82967e-31 3.24113 1.5552e-15 3.08149e-33 0.0942745 -3.96675e-17 1.97215e-31)
(-8.14014e-15 6.60329e-30 4.12705e-31 3.24113 -6.69084e-16 -1.21138e-15 0.0942745 -2.04841e-15 -2.2715e-16)
(2.04164e-15 -8.78395e-30 -6.51535e-31 3.17764 1.98132e-15 -2.58707e-17 0.0937767 -5.11339e-17 -1.81329e-18)
(8.16658e-15 6.50865e-30 4.0679e-31 3.17764 -1.33425e-15 -1.16057e-15 0.0937767 -2.05013e-15 -2.23969e-16)
(2.04822e-15 -8.68589e-30 -6.44965e-31 3.11571 2.19271e-15 -9.54595e-17 0.0932907 -6.62309e-17 -3.93352e-18)
(-8.19288e-15 6.41536e-30 4.0096e-31 3.11571 -2.08713e-15 -1.11492e-15 0.0932907 -2.07632e-15 -2.20327e-16)
(-2.05476e-15 5.42982e-30 6.39005e-31 3.05529 2.36172e-15 -1.01355e-16 0.0928164 -6.54163e-17 -2.22811e-18)
(6.43915e-15 0 0 3.05529 -2.14397e-15 -1.04199e-15 0.0928164 -2.10968e-15 -2.17068e-16)
(0 6.23278e-30 3.89549e-31 2.99633 3.27427e-15 -2.01785e-16 0.0923533 -7.85411e-17 -1.03005e-17)
(-1.75437e-15 -3.11639e-30 0 2.99633 -1.74568e-15 -8.65303e-16 0.0923533 -2.12198e-15 -2.11959e-16)
(-3.45845e-15 9.21517e-30 7.67931e-31 2.93878 3.96675e-15 -3.75725e-16 0.0919011 -1.24138e-16 -1.32785e-17)
(6.54171e-15 -3.07172e-30 0 2.93878 -5.65874e-16 -8.2344e-16 0.0919011 -2.1445e-15 -2.05435e-16)
(2.07417e-15 -8.30028e-30 -9.98073e-31 2.88261 3.26171e-15 -4.11046e-16 0.0914595 -1.24575e-16 -1.28653e-17)
(0 6.0554e-30 7.56925e-31 2.88261 -7.41332e-16 -6.5002e-16 0.0914595 -2.14241e-15 -2.0067e-16)
(0 8.95291e-30 7.46076e-31 2.82777 3.41205e-15 -3.86955e-16 0.0910282 -8.26003e-17 -1.21014e-17)
(-8.32231e-15 -5.96861e-30 0 2.82777 -2.47455e-15 -3.82456e-16 0.0910282 -2.16052e-15 -1.90563e-16)
(0 5.88306e-30 7.35383e-31 2.77421 5.75369e-15 -5.44986e-16 0.0906069 -1.37997e-16 -2.36643e-17)
(0 0 0 2.77421 -3.18979e-15 -3.87806e-16 0.0906069 -2.18616e-15 -1.82751e-16)
(0 8.69812e-30 0 2.72191 6.64314e-15 -7.36779e-16 0.0901952 -2.39451e-16 -2.52886e-17)
(-3.2644e-15 -2.89937e-30 0 2.72191 -3.45012e-15 -4.04026e-16 0.0901952 -2.21542e-15 -1.73409e-16)
(2.09961e-15 6.36178e-30 4.75024e-31 2.67082 5.50078e-15 -7.78372e-16 0.089793 -2.01551e-16 -2.71809e-17)
(0 -8.57345e-30 -7.14454e-31 2.67082 -3.83927e-15 -3.46755e-16 0.089793 -2.23773e-15 -1.65031e-16)
(5.2774e-15 3.42238e-30 4.64601e-31 2.62091 5.16831e-15 -7.93975e-16 0.0893999 -1.6892e-16 -2.71039e-17)
(-3.1715e-15 -2.81686e-30 0 2.62091 -4.06105e-15 -4.00911e-16 0.0893999 -2.27106e-15 -1.5681e-16)
(-4.22431e-15 4.40797e-30 4.764e-31 2.57214 5.18105e-15 -9.41375e-16 0.0890157 -1.84559e-16 -3.82759e-17)
(8.44862e-15 0 0 2.57214 -4.08599e-15 -6.82777e-16 0.0890157 -2.29406e-15 -1.52422e-16)
(-2.11838e-15 2.1971e-30 2.3757e-31 2.52448 5.65084e-15 -1.2002e-15 0.0886401 -1.74758e-16 -4.62452e-17)
(0 2.73669e-30 6.84172e-31 2.52448 -5.65762e-15 -8.50937e-16 0.0886401 -2.31287e-15 -1.50022e-16)
(0 0 0 2.47789 6.56711e-15 -1.32719e-15 0.0882729 -2.23267e-16 -4.85299e-17)
(-3.03708e-15 0 0 2.47789 -5.66606e-15 -7.78952e-16 0.0882729 -2.37971e-15 -1.44374e-16)
(2.99355e-15 7.97641e-30 6.64701e-31 2.43235 6.84843e-15 -1.33766e-15 0.0879139 -2.45772e-16 -4.83636e-17)
(-2.99355e-15 -2.6588e-30 0 2.43235 -3.96173e-15 -6.49826e-16 0.0879139 -2.40315e-15 -1.37892e-16)
(-2.95064e-15 7.86209e-30 1.31035e-30 2.38782 7.18297e-15 -1.24101e-15 0.0875629 -2.50333e-16 -4.2797e-17)
(0 -2.6207e-30 0 2.38782 -3.40683e-15 -8.12936e-16 0.0875629 -2.43698e-15 -1.30243e-16)
(0 5.16627e-30 0 2.34429 6.41487e-15 -1.39089e-15 0.0872195 -2.77736e-16 -6.10367e-17)
(1.71443e-14 -2.58314e-30 0 2.34429 -4.23742e-15 -1.16853e-15 0.0872195 -2.47819e-15 -1.31283e-16)
(-4.29826e-15 4.30657e-30 4.75081e-31 2.30171 4.71819e-15 -1.86172e-15 0.0868837 -1.99982e-16 -7.99235e-17)
(8.59652e-15 0 0 2.30171 -5.44858e-15 -1.21592e-15 0.0868837 -2.48792e-15 -1.29504e-16)
(4.98079e-15 -4.6638e-30 -1.49591e-30 2.26006 4.58298e-15 -1.95984e-15 0.0865551 -1.56599e-16 -7.04095e-17)
(0 5.01924e-30 1.25481e-30 2.26006 -6.30381e-15 -1.02782e-15 0.0865551 -2.51043e-15 -1.20517e-16)
(0 4.9473e-30 0 2.21932 5.85955e-15 -1.76915e-15 0.0862337 -1.95388e-16 -6.73099e-17)
(-1.14301e-14 0 0 2.21932 -6.55075e-15 -1.06135e-15 0.0862337 -2.57313e-15 -1.0855e-16)
(-2.16728e-15 -7.62803e-30 -9.75275e-31 2.17946 7.30784e-15 -1.96208e-15 0.0859193 -2.61299e-16 -8.78227e-17)
(8.66913e-15 9.75279e-30 1.2191e-30 2.17946 -4.77367e-15 -1.22078e-15 0.0859193 -2.64071e-15 -1.01831e-16)
(0 4.8065e-30 0 2.14046 7.19425e-15 -2.17807e-15 0.0856115 -3.16344e-16 -8.67168e-17)
(0 0 0 2.14046 -3.78837e-15 -1.15786e-15 0.0856115 -2.67622e-15 -9.2106e-17)
(0 -4.73761e-30 0 2.10229 6.30582e-15 -2.12982e-15 0.0853103 -2.59784e-16 -8.64439e-17)
(2.66704e-15 7.10642e-30 0 2.10229 -5.66661e-15 -1.17648e-15 0.0853103 -2.71165e-15 -8.21024e-17)
(-2.18523e-15 4.43174e-30 2.51444e-31 2.06493 5.48129e-15 -2.21207e-15 0.0850156 -2.52853e-16 -9.60905e-17)
(0 -2.33486e-30 0 2.06493 -6.25761e-15 -1.57292e-15 0.0850156 -2.78827e-15 -7.7395e-17)
(-1.7912e-15 -1.42218e-29 -1.79777e-30 2.02836 3.44597e-15 -2.54142e-15 0.084727 -1.98887e-16 -1.16739e-16)
(1.75294e-14 1.61097e-29 1.72604e-30 2.02836 -3.22895e-15 -1.47812e-15 0.084727 -2.84315e-15 -7.56063e-17)
(0 4.53681e-30 5.67102e-31 1.99257 2.46287e-15 -2.51699e-15 0.0844445 -8.86953e-17 -9.68159e-17)
(-2.554e-15 0 0 1.99257 -1.60208e-15 -9.94891e-16 0.0844445 -2.84586e-15 -5.99383e-17)
(-2.51739e-15 6.70768e-30 1.67692e-30 1.95752 2.11195e-15 -1.98667e-15 0.0841679 -1.20639e-16 -7.41459e-17)
(0 0 0 1.95752 -1.37168e-15 -1.23309e-15 0.0841679 -2.87662e-15 -4.764e-17)
(-6.62659e-15 -9.14329e-30 -1.40203e-30 1.9232 5.11935e-16 -1.75089e-15 0.0838971 -6.08461e-17 -7.88979e-17)
(1.76709e-14 1.76308e-29 2.20385e-30 1.9232 5.44242e-16 -1.56337e-15 0.0838971 -2.89939e-15 -4.81011e-17)
(0 0 -2.17226e-30 1.88959 0 -1.7317e-15 0.0836319 0 -7.46043e-17)
(1.77178e-14 1.52058e-29 2.17226e-30 1.88959 1.22631e-16 -1.30924e-15 0.0836319 -2.87054e-15 -4.48092e-17)
(-2.22056e-15 1.06556e-29 1.34652e-30 1.85667 1.72176e-15 -1.35864e-15 0.0833722 -4.56584e-17 -4.74078e-17)
(-2.41069e-15 -4.28225e-30 -5.35282e-31 1.85667 -1.43268e-15 -1.32109e-15 0.0833722 -2.86667e-15 -3.6871e-17)
(2.22638e-15 -1.89638e-29 -2.38733e-30 1.82442 2.13974e-15 -1.06294e-15 0.0831178 -1.09674e-16 -4.96093e-17)
(1.78111e-14 1.68835e-29 2.11044e-30 1.82442 -7.44541e-16 -1.69047e-15 0.0831178 -2.89758e-15 -4.05528e-17)