/*--------------------------------*- C++ -*----------------------------------*\
| =========                 |                                                 |
| \\      /  F ield         | OpenFOAM: The Open Source CFD Toolbox           |
|  \\    /   O peration     | Version:  2106                                  |
|   \\  /    A nd           | Website:  www.openfoam.com                      |
|    \\/     M anipulation  |                                                 |
\*---------------------------------------------------------------------------*/
FoamFile
{
    version     2.0;
    format      ascii;
    arch        "LSB;label=32;scalar=64";
    class       surfaceScalarField;
    location    "20000";
    object      phi;
}
// * * * * * * * * * * * * * * * * * * * * * * * * * * * * * * * * * * * * * //

dimensions      [0 3 -1 0 0 0 0];

oriented        oriented;

internalField   nonuniform List<scalar> 
5116
(
4.91408e-08
-4.67704e-18
-4.92517e-22
-1.0142e-21
-3.20227e-23
1.50276e-07
-4.67051e-18
-2.40385e-21
-4.50655e-21
-6.22109e-22
2.55808e-07
-4.66385e-18
-2.48452e-21
-8.02813e-21
-6.49468e-22
3.65886e-07
-4.65692e-18
-2.5726e-21
-1.16812e-20
-6.77962e-22
4.80659e-07
-4.64978e-18
-2.66385e-21
-1.54496e-20
-7.07606e-22
6.00278e-07
-4.64262e-18
-2.75764e-21
-1.93504e-20
-7.38388e-22
7.24885e-07
-4.63503e-18
-2.85408e-21
-2.33121e-20
-7.70236e-22
8.54604e-07
-4.62702e-18
-2.95277e-21
-2.74888e-20
-8.02996e-22
9.89527e-07
-4.61906e-18
-3.05272e-21
-3.1815e-20
-8.36388e-22
1.1297e-06
-4.61032e-18
-3.1524e-21
-3.61099e-20
-8.69973e-22
1.27508e-06
-4.60156e-18
-3.24966e-21
-4.06391e-20
-9.03132e-22
1.42553e-06
-4.59244e-18
-3.34171e-21
-4.54988e-20
-9.35055e-22
1.58081e-06
-4.58342e-18
-3.42526e-21
-5.01587e-20
-9.64787e-22
1.74052e-06
-4.57401e-18
-3.4968e-21
-5.5008e-20
-9.91306e-22
1.90415e-06
-4.5644e-18
-3.55308e-21
-5.99288e-20
-1.01362e-21
2.07105e-06
-4.55461e-18
-3.5915e-21
-6.50069e-20
-1.03093e-21
2.24054e-06
-4.54451e-18
-3.61055e-21
-7.00536e-20
-1.04272e-21
2.41188e-06
-4.53453e-18
-3.61004e-21
-7.53685e-20
-1.04886e-21
2.58438e-06
-4.52505e-18
-3.59102e-21
-8.04567e-20
-1.04958e-21
2.75739e-06
-4.51548e-18
-3.55559e-21
-8.55703e-20
-1.04544e-21
2.93041e-06
-4.50605e-18
-3.50651e-21
-9.06432e-20
-1.0372e-21
3.10301e-06
-4.49711e-18
-3.44683e-21
-9.53922e-20
-1.0257e-21
3.27492e-06
-4.48836e-18
-3.37952e-21
-1.00016e-19
-1.01182e-21
3.44595e-06
-4.4794e-18
-3.30725e-21
-1.04731e-19
-9.96319e-22
3.61603e-06
-4.47039e-18
-3.23234e-21
-1.09596e-19
-9.79865e-22
3.78515e-06
-4.46123e-18
-3.15659e-21
-1.14325e-19
-9.63008e-22
3.95335e-06
-4.45327e-18
-3.08141e-21
-1.18931e-19
-9.46167e-22
4.12074e-06
-4.44467e-18
-3.00781e-21
-1.23302e-19
-9.29656e-22
4.28743e-06
-4.43615e-18
-2.93651e-21
-1.27912e-19
-9.13702e-22
4.45357e-06
-4.42842e-18
-2.86803e-21
-1.32181e-19
-8.98416e-22
4.61932e-06
-4.42083e-18
-2.80259e-21
-1.36396e-19
-8.83913e-22
4.78484e-06
-4.41162e-18
-2.74032e-21
-1.4208e-19
-8.70276e-22
4.95028e-06
-4.40435e-18
-2.68128e-21
-1.46304e-19
-8.57464e-22
5.11581e-06
-4.39697e-18
-2.6254e-21
-1.50628e-19
-8.45479e-22
5.28159e-06
-4.3891e-18
-2.57259e-21
-1.54356e-19
-8.34291e-22
5.44776e-06
-4.38185e-18
-2.52275e-21
-1.58627e-19
-8.23882e-22
5.61448e-06
-4.37489e-18
-2.47571e-21
-1.62158e-19
-8.14191e-22
5.78187e-06
-4.36727e-18
-2.43128e-21
-1.65867e-19
-8.05211e-22
5.95008e-06
-4.36063e-18
-2.38933e-21
-1.7011e-19
-7.96849e-22
6.11924e-06
-4.35335e-18
-2.34969e-21
-1.73283e-19
-7.89071e-22
6.28946e-06
-4.34691e-18
-2.31221e-21
-1.7686e-19
-7.81865e-22
6.46086e-06
-4.3394e-18
-2.27669e-21
-1.79912e-19
-7.75154e-22
6.63356e-06
-4.33188e-18
-2.24306e-21
-1.84834e-19
-7.68893e-22
6.80767e-06
-4.32711e-18
-2.21119e-21
-1.86934e-19
-7.62969e-22
6.98328e-06
-4.3205e-18
-2.18086e-21
-1.90514e-19
-7.57444e-22
7.1605e-06
-4.31295e-18
-2.152e-21
-1.9212e-19
-7.52178e-22
7.33942e-06
-4.30861e-18
-2.12454e-21
-1.95697e-19
-7.47181e-22
7.52014e-06
-4.30159e-18
-2.0983e-21
-1.9915e-19
-7.42398e-22
7.70274e-06
-4.29618e-18
-2.07329e-21
-2.02355e-19
-7.37774e-22
7.88732e-06
-4.29188e-18
-2.0493e-21
-2.03342e-19
-7.33346e-22
8.07396e-06
-4.28436e-18
-2.02628e-21
-2.05417e-19
-7.29137e-22
8.26275e-06
-4.2778e-18
-2.0043e-21
-2.07744e-19
-7.2507e-22
8.45376e-06
-4.27159e-18
-1.98327e-21
-2.11603e-19
-7.2111e-22
8.64707e-06
-4.265e-18
-1.9631e-21
-2.14771e-19
-7.17122e-22
8.84276e-06
-4.25809e-18
-1.94378e-21
-2.18762e-19
-7.13096e-22
9.04092e-06
-4.25254e-18
-1.92531e-21
-2.20386e-19
-7.08897e-22
9.24161e-06
-4.24785e-18
-1.90751e-21
-2.23575e-19
-7.04553e-22
9.44491e-06
-4.24328e-18
-1.89037e-21
-2.26833e-19
-7.00114e-22
9.6509e-06
-4.23773e-18
-1.87388e-21
-2.2903e-19
-6.95499e-22
9.85965e-06
-4.23096e-18
-1.85807e-21
-2.33087e-19
-6.90712e-22
1.00712e-05
-4.22907e-18
-1.84295e-21
-2.32638e-19
-6.85654e-22
1.02857e-05
-4.22355e-18
-1.82822e-21
-2.32517e-19
-6.80481e-22
1.05032e-05
-4.21715e-18
-1.81394e-21
-2.36e-19
-6.75489e-22
1.07237e-05
-4.21127e-18
-1.80025e-21
-2.39232e-19
-6.7023e-22
1.09473e-05
-4.20514e-18
-1.7871e-21
-2.4221e-19
-6.64671e-22
1.11742e-05
-4.19944e-18
-1.77464e-21
-2.44732e-19
-6.58796e-22
1.14043e-05
-4.19323e-18
-1.76292e-21
-2.48526e-19
-6.5255e-22
1.16377e-05
-4.18764e-18
-1.75199e-21
-2.51319e-19
-6.45974e-22
1.18746e-05
-4.18519e-18
-1.74176e-21
-2.5436e-19
-6.38897e-22
1.2115e-05
-4.17786e-18
-1.73205e-21
-2.53293e-19
-6.31336e-22
1.23589e-05
-4.17128e-18
-1.72316e-21
-2.56419e-19
-6.23634e-22
1.26064e-05
-4.16554e-18
-1.715e-21
-2.61251e-19
-6.15558e-22
1.28577e-05
-4.16344e-18
-1.70748e-21
-2.61118e-19
-6.06887e-22
1.31127e-05
-4.15957e-18
-1.70046e-21
-2.60241e-19
-5.97853e-22
1.33716e-05
-4.15687e-18
-1.69409e-21
-2.61353e-19
-5.88384e-22
1.36344e-05
-4.15046e-18
-1.68839e-21
-2.60645e-19
-5.78103e-22
1.39012e-05
-4.14848e-18
-1.68363e-21
-2.60322e-19
-5.67422e-22
1.41722e-05
-4.14924e-18
-1.67955e-21
-2.57719e-19
-5.5633e-22
1.44473e-05
-4.14978e-18
-1.67585e-21
-2.58622e-19
-5.44774e-22
1.47266e-05
-4.14721e-18
-1.6723e-21
-2.58031e-19
-5.32727e-22
1.50103e-05
-4.14383e-18
-1.66933e-21
-2.59991e-19
-5.20389e-22
1.52983e-05
-4.13866e-18
-1.66676e-21
-2.64305e-19
-5.07764e-22
1.55909e-05
-4.13082e-18
-1.66417e-21
-2.66522e-19
-4.95111e-22
1.5888e-05
-4.12782e-18
-1.66193e-21
-2.7066e-19
-4.82071e-22
1.61898e-05
-4.12102e-18
-1.65944e-21
-2.77246e-19
-4.69073e-22
1.64963e-05
-4.11258e-18
-1.65703e-21
-2.80474e-19
-4.55545e-22
1.68076e-05
-4.10655e-18
-1.65517e-21
-2.87093e-19
-4.41765e-22
1.71238e-05
-4.10116e-18
-1.65305e-21
-2.93401e-19
-4.27415e-22
1.74451e-05
-4.09096e-18
-1.6507e-21
-2.9985e-19
-4.12468e-22
1.77714e-05
-4.08325e-18
-1.64871e-21
-3.06545e-19
-3.96636e-22
1.81029e-05
-4.07806e-18
-1.6471e-21
-3.14203e-19
-3.8002e-22
1.84396e-05
-4.06765e-18
-1.64529e-21
-3.25461e-19
-3.62931e-22
1.87817e-05
-4.05711e-18
-1.64433e-21
-3.30515e-19
-3.44064e-22
1.91293e-05
-4.04946e-18
-1.64404e-21
-3.37178e-19
-3.24004e-22
1.94824e-05
-4.04142e-18
-1.64377e-21
-3.4291e-19
-3.03703e-22
1.98411e-05
-4.03404e-18
-1.64411e-21
-3.49948e-19
-2.83083e-22
2.02056e-05
-4.02323e-18
-1.64425e-21
-3.59099e-19
-2.61556e-22
2.05759e-05
-4.01299e-18
-1.64494e-21
-3.67027e-19
-2.38519e-22
2.09521e-05
-4.00675e-18
-1.6471e-21
-3.71021e-19
-2.145e-22
2.13344e-05
-4.00129e-18
-1.6496e-21
-3.75713e-19
-1.90634e-22
2.17229e-05
-3.99711e-18
-1.65257e-21
-3.78103e-19
-1.65999e-22
2.21175e-05
-3.98526e-18
-1.65475e-21
-3.8755e-19
-1.41454e-22
2.25186e-05
-3.97231e-18
-1.65784e-21
-3.97558e-19
-1.16876e-22
2.2926e-05
-3.96347e-18
-1.66258e-21
-4.07265e-19
-9.09099e-23
2.33401e-05
-3.95376e-18
-1.66713e-21
-4.15977e-19
-6.3414e-23
2.37608e-05
-3.94927e-18
-1.67232e-21
-4.16686e-19
-3.54096e-23
2.41883e-05
-3.94972e-18
-1.67635e-21
-4.17762e-19
-8.39881e-24
2.46228e-05
-3.9445e-18
-1.67802e-21
-4.21317e-19
1.57599e-23
2.50642e-05
-3.94874e-18
-1.6801e-21
-4.17777e-19
3.92928e-23
2.55128e-05
-3.94459e-18
-1.6816e-21
-4.15094e-19
6.2514e-23
2.59687e-05
-3.94082e-18
-1.68303e-21
-4.19873e-19
8.46232e-23
2.64319e-05
-3.9402e-18
-1.68434e-21
-4.12633e-19
1.07386e-22
2.69026e-05
-3.93616e-18
-1.68506e-21
-4.17205e-19
1.28387e-22
2.7381e-05
-3.933e-18
-1.68596e-21
-4.19925e-19
1.50118e-22
2.78671e-05
-3.92895e-18
-1.68733e-21
-4.22338e-19
1.72616e-22
2.83611e-05
-3.92311e-18
-1.68915e-21
-4.27706e-19
1.95139e-22
2.88632e-05
-3.91956e-18
-1.69174e-21
-4.31922e-19
2.18555e-22
2.93733e-05
-3.90773e-18
-1.69535e-21
-4.32759e-19
2.43415e-22
2.98918e-05
-3.90305e-18
-1.7002e-21
-4.35063e-19
2.68452e-22
3.04187e-05
-3.89894e-18
-1.70518e-21
-4.37426e-19
2.96125e-22
3.09541e-05
-3.88309e-18
-1.71034e-21
-4.46415e-19
3.24189e-22
3.14983e-05
-3.86917e-18
-1.71732e-21
-4.54382e-19
3.55456e-22
3.20512e-05
-3.8593e-18
-1.72649e-21
-4.60419e-19
3.86528e-22
3.26132e-05
-3.84926e-18
-1.73611e-21
-4.68929e-19
4.13218e-22
3.31844e-05
-3.8365e-18
-1.74624e-21
-4.76962e-19
4.37371e-22
3.37648e-05
-3.82409e-18
-1.75884e-21
-4.91604e-19
4.61269e-22
3.43546e-05
-3.81044e-18
-1.77094e-21
-5.03723e-19
4.84883e-22
3.49541e-05
-3.7961e-18
-1.78539e-21
-5.12673e-19
5.06184e-22
3.55633e-05
-3.77689e-18
-1.80083e-21
-5.17478e-19
5.27255e-22
3.61824e-05
-3.76231e-18
-1.82255e-21
-5.29416e-19
5.45726e-22
3.68116e-05
-3.74966e-18
-1.84773e-21
-5.46491e-19
5.6622e-22
3.74511e-05
-3.74208e-18
-1.8772e-21
-5.56492e-19
5.91165e-22
3.8101e-05
-3.73029e-18
-1.90624e-21
-5.7197e-19
6.17629e-22
3.87614e-05
-3.70648e-18
-1.93667e-21
-5.88808e-19
6.44441e-22
3.94327e-05
-3.68885e-18
-1.97382e-21
-5.95543e-19
6.71375e-22
4.01148e-05
-3.67772e-18
-2.01663e-21
-6.06747e-19
6.95672e-22
4.08081e-05
-3.65665e-18
-2.06073e-21
-6.24121e-19
7.1627e-22
4.15126e-05
-3.64908e-18
-2.1113e-21
-6.40956e-19
7.37626e-22
4.22286e-05
-3.64761e-18
-2.1601e-21
-6.37013e-19
7.61682e-22
4.29563e-05
-3.63601e-18
-2.20449e-21
-6.38395e-19
7.77738e-22
4.36959e-05
-3.63669e-18
-2.25026e-21
-6.41527e-19
7.89341e-22
4.44475e-05
-3.63917e-18
-2.28626e-21
-6.43167e-19
7.94822e-22
4.52114e-05
-3.63041e-18
-2.31338e-21
-6.40608e-19
7.94035e-22
4.59877e-05
-3.62603e-18
-2.33898e-21
-6.46836e-19
7.8788e-22
4.67766e-05
-3.62186e-18
-2.36186e-21
-6.52615e-19
7.82091e-22
4.75784e-05
-3.61534e-18
-2.37696e-21
-6.53449e-19
7.71142e-22
4.83933e-05
-3.61515e-18
-2.39016e-21
-6.60328e-19
7.48845e-22
4.92214e-05
-3.60502e-18
-2.39458e-21
-6.60918e-19
7.1937e-22
5.0063e-05
-3.60256e-18
-2.39883e-21
-6.69316e-19
6.81691e-22
5.09184e-05
-3.59428e-18
-2.4033e-21
-6.70587e-19
6.50184e-22
5.17877e-05
-3.58554e-18
-2.41103e-21
-6.79605e-19
6.17643e-22
5.26711e-05
-3.58172e-18
-2.42811e-21
-6.82524e-19
5.982e-22
5.35689e-05
-3.57423e-18
-2.44304e-21
-6.79819e-19
5.84361e-22
5.44814e-05
-3.55813e-18
-2.46648e-21
-6.84772e-19
5.65832e-22
5.54087e-05
-3.54633e-18
-2.50019e-21
-6.82929e-19
5.54336e-22
5.63511e-05
-3.54277e-18
-2.54264e-21
-6.91914e-19
5.41583e-22
5.73089e-05
-3.53158e-18
-2.58441e-21
-6.97109e-19
5.34196e-22
5.82823e-05
-3.53222e-18
-2.63396e-21
-6.93881e-19
5.39062e-22
5.92715e-05
-3.51177e-18
-2.68119e-21
-6.99407e-19
5.4106e-22
6.02768e-05
-3.49542e-18
-2.73441e-21
-7.03721e-19
5.37226e-22
6.12985e-05
-3.46298e-18
-2.78791e-21
-7.28915e-19
5.23682e-22
6.23368e-05
-3.44115e-18
-2.83765e-21
-7.62799e-19
5.27512e-22
6.3392e-05
-3.43101e-18
-2.88587e-21
-7.77839e-19
5.45493e-22
6.44644e-05
-3.41535e-18
-2.92252e-21
-8.03335e-19
5.38817e-22
6.55543e-05
-3.38854e-18
-2.94796e-21
-8.35406e-19
5.18278e-22
6.66618e-05
-3.36621e-18
-2.96923e-21
-8.67765e-19
5.18599e-22
6.77874e-05
-3.37156e-18
-2.9888e-21
-8.68201e-19
5.32114e-22
6.89313e-05
-3.37323e-18
-2.99534e-21
-8.62186e-19
5.40342e-22
7.00939e-05
-3.36637e-18
-2.98054e-21
-8.68891e-19
5.63167e-22
7.12753e-05
-3.37309e-18
-2.96346e-21
-8.67903e-19
6.22843e-22
7.24759e-05
-3.3842e-18
-2.93331e-21
-8.76622e-19
6.92022e-22
7.36961e-05
-3.38342e-18
-2.88273e-21
-8.69866e-19
7.81153e-22
7.49361e-05
-3.37933e-18
-2.84263e-21
-8.61018e-19
8.7584e-22
7.61962e-05
-3.37547e-18
-2.79737e-21
-8.67258e-19
9.66676e-22
7.74769e-05
-3.37071e-18
-2.73803e-21
-8.52102e-19
1.07762e-21
7.87783e-05
-3.37426e-18
-2.69552e-21
-8.44821e-19
1.20356e-21
8.01009e-05
-3.36905e-18
-2.64785e-21
-8.42242e-19
1.32782e-21
8.1445e-05
-3.35736e-18
-2.60422e-21
-8.49398e-19
1.42041e-21
8.28109e-05
-3.3634e-18
-2.56906e-21
-8.46407e-19
1.52713e-21
8.4199e-05
-3.35643e-18
-2.52343e-21
-8.44034e-19
1.64952e-21
8.56096e-05
-3.34733e-18
-2.46665e-21
-8.53402e-19
1.74419e-21
8.70431e-05
-3.34316e-18
-2.39363e-21
-8.35442e-19
1.82361e-21
8.84999e-05
-3.33318e-18
-2.32249e-21
-8.46511e-19
1.86478e-21
8.99804e-05
-3.31678e-18
-2.2533e-21
-8.45241e-19
1.97167e-21
9.14849e-05
-3.31082e-18
-2.21862e-21
-8.40123e-19
2.10903e-21
9.30137e-05
-3.30265e-18
-2.17214e-21
-8.5552e-19
2.24458e-21
9.45674e-05
-3.29191e-18
-2.13019e-21
-8.61756e-19
2.40797e-21
9.61463e-05
-3.27898e-18
-2.09365e-21
-8.63058e-19
2.54964e-21
9.77508e-05
-3.26242e-18
-2.07375e-21
-8.74354e-19
2.7019e-21
9.93813e-05
-3.24852e-18
-2.05124e-21
-8.91031e-19
2.83453e-21
0.000101038
-3.22477e-18
-2.02086e-21
-9.00523e-19
2.97936e-21
0.000102722
-3.21788e-18
-2.01059e-21
-9.04428e-19
3.08466e-21
0.000104433
-3.19362e-18
-1.9733e-21
-9.23895e-19
3.17072e-21
0.000106172
-3.17311e-18
-1.93664e-21
-9.59457e-19
3.24819e-21
0.000107939
-3.15186e-18
-1.89772e-21
-9.67509e-19
3.39054e-21
0.000109734
-3.13269e-18
-1.85997e-21
-9.8044e-19
3.50639e-21
0.000111559
-3.10835e-18
-1.84011e-21
-1.00018e-18
3.62661e-21
0.000113413
-3.09712e-18
-1.77316e-21
-1.04326e-18
3.75584e-21
0.000115297
-3.07113e-18
-1.69646e-21
-1.06692e-18
3.93363e-21
0.000117212
-3.04055e-18
-1.68413e-21
-1.09362e-18
4.15128e-21
0.000119157
-2.99462e-18
-1.66634e-21
-1.11085e-18
4.42526e-21
0.000121134
-2.96428e-18
-1.71933e-21
-1.14631e-18
4.66889e-21
0.000123143
-2.97668e-18
-1.8166e-21
-1.13561e-18
4.99829e-21
0.000125185
-2.96045e-18
-1.92119e-21
-1.12617e-18
5.31727e-21
0.000127259
-2.97e-18
-2.11891e-21
-1.12493e-18
5.7355e-21
0.000129367
-2.94321e-18
-2.22842e-21
-1.12165e-18
6.04771e-21
0.000131509
-2.95095e-18
-2.38408e-21
-1.07956e-18
6.30042e-21
0.000133686
-2.93305e-18
-2.53973e-21
-1.08159e-18
6.43826e-21
0.000135898
-2.92301e-18
-2.72578e-21
-1.09976e-18
6.57329e-21
0.000138145
-2.93332e-18
-2.72978e-21
-1.06508e-18
6.71771e-21
0.000140429
-2.91553e-18
-2.56545e-21
-1.08418e-18
6.86454e-21
0.000142749
-2.91134e-18
-2.38736e-21
-1.10648e-18
7.02477e-21
0.000145107
-2.86055e-18
-2.22435e-21
-1.14274e-18
7.19014e-21
0.000147503
-2.8392e-18
-2.29014e-21
-1.11018e-18
7.5007e-21
0.000149938
-2.80452e-18
-2.29124e-21
-1.12237e-18
7.72251e-21
0.000152411
-2.80708e-18
-2.21231e-21
-1.1112e-18
7.88454e-21
0.000154925
-2.77864e-18
-2.09271e-21
-1.13452e-18
8.02962e-21
0.000157479
-2.76383e-18
-1.88037e-21
-1.13412e-18
8.16944e-21
0.000160074
-2.73242e-18
-1.58933e-21
-1.18607e-18
8.29165e-21
0.000162711
-2.71356e-18
-1.36089e-21
-1.16346e-18
8.85032e-21
0.00016539
-2.688e-18
-1.01984e-21
-1.19115e-18
9.12354e-21
0.000168113
-2.65053e-18
-5.66031e-22
-1.21613e-18
9.30119e-21
0.000170879
-2.63022e-18
-1.90082e-22
-1.22374e-18
9.41461e-21
0.000173689
-2.60936e-18
1.91837e-22
-1.22101e-18
9.39929e-21
0.000176545
-2.59436e-18
4.85173e-22
-1.24112e-18
9.1219e-21
0.000179446
-2.56666e-18
8.26197e-22
-1.28163e-18
8.64001e-21
0.000182394
-2.54576e-18
1.12317e-21
-1.32534e-18
8.4642e-21
0.00018539
-2.52279e-18
1.04492e-21
-1.36672e-18
8.5202e-21
0.000188433
-2.50328e-18
7.51365e-22
-1.36682e-18
8.47032e-21
0.000191525
-2.50205e-18
1.65759e-22
-1.41012e-18
8.23976e-21
0.000194666
-2.51728e-18
-3.66513e-22
-1.43357e-18
7.91856e-21
0.000197858
-2.49162e-18
-8.84741e-22
-1.46285e-18
7.60543e-21
0.000201101
-2.49215e-18
-1.35919e-21
-1.46236e-18
7.26376e-21
0.000204396
-2.49026e-18
-1.77405e-21
-1.47117e-18
6.83206e-21
0.000207743
-2.48549e-18
-2.1284e-21
-1.49562e-18
6.41407e-21
0.000211144
-2.45842e-18
-2.21875e-21
-1.4936e-18
6.12595e-21
0.0002146
-2.46631e-18
-2.70213e-21
-1.53807e-18
5.82838e-21
0.00021811
-2.46558e-18
-3.00634e-21
-1.52041e-18
5.62626e-21
0.000221676
-2.46284e-18
-3.0326e-21
-1.52629e-18
5.0228e-21
0.000225299
-2.4571e-18
-2.83598e-21
-1.54281e-18
4.52717e-21
0.00022898
-2.44273e-18
-2.52042e-21
-1.563e-18
3.96779e-21
0.00023272
-2.44628e-18
-2.1264e-21
-1.56465e-18
3.33888e-21
0.000236519
-2.4278e-18
-1.40017e-21
-1.55236e-18
3.02449e-21
0.000240378
-2.40875e-18
-6.59755e-22
-1.56521e-18
2.57332e-21
0.000244299
-2.30572e-18
1.83566e-22
-1.61538e-18
2.38592e-21
0.000248282
-2.24857e-18
2.87672e-22
-1.64865e-18
2.59792e-21
0.000252328
-2.18606e-18
7.99359e-22
-1.71943e-18
2.58927e-21
0.000256439
-2.04193e-18
9.23383e-22
-1.70478e-18
2.72667e-21
0.000260614
-2.04492e-18
-1.36751e-22
-1.68676e-18
2.38218e-21
0.000264856
-2.07873e-18
-1.56452e-21
-1.67701e-18
2.30372e-21
0.000269165
-2.04089e-18
-1.65373e-21
-1.71157e-18
1.73861e-21
0.000273542
-2.10284e-18
-2.31353e-21
-1.67424e-18
1.38477e-21
0.000277988
-2.07235e-18
-1.71179e-21
-1.72127e-18
5.38367e-22
0.000282504
-2.06995e-18
-1.84629e-21
-1.62988e-18
9.93844e-22
0.000287091
-2.0093e-18
-2.38705e-21
-1.56607e-18
-2.71694e-23
0.000291751
-2.02668e-18
-3.73167e-21
-1.58358e-18
-2.48677e-21
0.000296484
-1.96424e-18
-4.99916e-21
-1.61136e-18
-4.69231e-21
0.000301291
-1.94437e-18
-6.56818e-21
-1.60367e-18
-7.46207e-21
0.000306174
-1.91647e-18
-7.37843e-21
-1.6555e-18
-9.78323e-21
0.000311133
-1.91815e-18
-8.94563e-21
-1.69588e-18
-1.18013e-20
0.000316171
-1.88781e-18
-1.07088e-20
-1.68638e-18
-1.2314e-20
0.000321287
-1.92183e-18
-1.29478e-20
-1.69427e-18
-1.25185e-20
0.000326483
-1.90169e-18
-1.29416e-20
-1.70875e-18
-1.37314e-20
0.00033176
-1.84725e-18
-1.25148e-20
-1.71414e-18
-1.52231e-20
0.000337119
-1.8574e-18
-1.23854e-20
-1.68865e-18
-1.65754e-20
0.000342562
-1.75264e-18
-1.16637e-20
-1.67961e-18
-1.81589e-20
0.000348089
-1.77691e-18
-1.26502e-20
-1.70119e-18
-2.01337e-20
0.000353703
-1.68593e-18
-1.26644e-20
-1.73731e-18
-2.09175e-20
0.000359403
-1.64957e-18
-1.33603e-20
-1.70026e-18
-1.95137e-20
0.000365192
-1.66693e-18
-1.4375e-20
-1.7017e-18
-1.88037e-20
0.00037107
-1.64594e-18
-1.56272e-20
-1.69598e-18
-1.86467e-20
0.000377038
-1.64211e-18
-1.75907e-20
-1.67276e-18
-2.01705e-20
0.000383099
-1.60452e-18
-1.926e-20
-1.6557e-18
-2.0531e-20
0.000389253
-1.58121e-18
-2.15805e-20
-1.64448e-18
-2.04181e-20
0.000395501
-1.58197e-18
-2.22172e-20
-1.60945e-18
-2.01673e-20
0.000401845
-1.51939e-18
-2.19733e-20
-1.58592e-18
-2.12479e-20
0.000408286
-1.52671e-18
-2.33222e-20
-1.55674e-18
-2.20598e-20
0.000414825
-1.54166e-18
-2.46119e-20
-1.5117e-18
-2.36733e-20
0.000421463
-1.49839e-18
-2.47673e-20
-1.48922e-18
-2.57041e-20
0.000428202
-1.50072e-18
-2.5454e-20
-1.47817e-18
-2.5235e-20
0.000435043
-1.4593e-18
-2.62319e-20
-1.45748e-18
-2.38578e-20
0.000441988
-1.43229e-18
-2.75771e-20
-1.4074e-18
-2.41814e-20
0.000449036
-1.36601e-18
-2.8739e-20
-1.41699e-18
-2.83675e-20
0.000456191
-1.35129e-18
-3.08763e-20
-1.38101e-18
-3.02782e-20
0.000463453
-1.31168e-18
-3.20662e-20
-1.32588e-18
-3.11173e-20
0.000470822
-1.22206e-18
-3.02605e-20
-1.32253e-18
-3.20047e-20
0.000478302
-1.29389e-18
-3.0331e-20
-1.30927e-18
-3.37034e-20
0.000485892
-1.22765e-18
-3.03671e-20
-1.28087e-18
-3.2348e-20
0.000493593
-1.22475e-18
-2.89737e-20
-1.28026e-18
-2.98764e-20
0.000501408
-1.28588e-18
-2.86778e-20
-1.25943e-18
-2.55518e-20
0.000509337
-1.21007e-18
-2.94658e-20
-1.17716e-18
-2.25446e-20
0.000517382
-1.34124e-18
-3.58512e-20
-1.21965e-18
-2.21097e-20
0.000525543
-1.23166e-18
-3.60007e-20
-1.22951e-18
-2.26879e-20
0.000533821
-1.20112e-18
-3.87502e-20
-1.21055e-18
-2.31662e-20
0.000542218
-1.30396e-18
-4.47603e-20
-1.3172e-18
-2.91497e-20
0.000550734
-1.28892e-18
-5.0283e-20
-1.1745e-18
-3.25431e-20
0.000559371
-1.12656e-18
-5.45088e-20
-1.22206e-18
-4.54006e-20
0.000568129
-1.2638e-18
-5.78717e-20
-1.26339e-18
-5.26542e-20
0.000577009
-1.22787e-18
-5.02765e-20
-1.22907e-18
-5.02713e-20
0.000586012
-1.17235e-18
-4.99357e-20
-1.28812e-18
-4.88379e-20
0.000595138
-1.19993e-18
-5.50097e-20
-1.13268e-18
-4.34628e-20
0.000604388
-1.3241e-18
-5.18395e-20
-1.17106e-18
-4.14121e-20
0.000613763
-1.2549e-18
-4.47584e-20
-1.15706e-18
-4.06937e-20
0.000623262
-1.12472e-18
-4.05976e-20
-1.20754e-18
-4.54915e-20
0.000632887
-1.10376e-18
-4.59227e-20
-1.27747e-18
-3.94966e-20
0.000642637
-1.03184e-18
-4.52595e-20
-1.20408e-18
-3.00628e-20
0.000652511
-1.2467e-18
-4.89826e-20
-1.11039e-18
-2.66847e-20
0.000662511
-1.12332e-18
-4.20279e-20
-9.29799e-19
-2.8729e-20
0.000672635
-1.13532e-18
-4.39835e-20
-9.11712e-19
-4.00742e-20
0.000682883
-1.07305e-18
-3.97524e-20
-9.67491e-19
-4.09797e-20
0.000693254
-9.68542e-19
-3.73692e-20
-9.78277e-19
-4.10402e-20
0.000703748
-1.12548e-18
-4.14491e-20
-1.06838e-18
-4.26788e-20
0.000714362
-1.03011e-18
-3.11571e-20
-1.04564e-18
-4.29546e-20
0.000725097
-1.0422e-18
-4.35768e-20
-1.07952e-18
-4.09659e-20
0.000735949
-1.09224e-18
-3.9812e-20
-1.12888e-18
-3.41105e-20
0.000746918
-1.07121e-18
-3.84978e-20
-1.06343e-18
-3.10069e-20
0.000758001
-1.07701e-18
-3.9116e-20
-1.06822e-18
-2.9607e-20
0.000769196
-1.09807e-18
-3.36694e-20
-1.10293e-18
-3.47006e-20
0.000780501
-1.13697e-18
-2.78358e-20
-1.12221e-18
-3.70562e-20
0.000791912
-1.91902e-20
-1.18064e-18
-2.9898e-20
-1.15871e-18
4.91408e-08
-3.72476e-22
-1.48907e-22
1.50276e-07
-2.24787e-21
-1.27831e-21
2.55808e-07
-4.1798e-21
-2.4513e-21
3.65886e-07
-6.2158e-21
-3.65862e-21
4.80659e-07
-8.26399e-21
-5.05566e-21
6.00278e-07
-1.0275e-20
-6.51571e-21
7.24885e-07
-1.23999e-20
-8.00303e-21
8.54604e-07
-1.45601e-20
-9.56798e-21
9.89527e-07
-1.72097e-20
-1.10142e-20
1.1297e-06
-1.96889e-20
-1.24357e-20
1.27508e-06
-2.22712e-20
-1.37129e-20
1.42553e-06
-2.49138e-20
-1.54399e-20
1.58081e-06
-2.75965e-20
-1.73486e-20
1.74052e-06
-3.02853e-20
-1.92301e-20
1.90415e-06
-3.30578e-20
-2.10525e-20
2.07105e-06
-3.59793e-20
-2.25632e-20
2.24054e-06
-3.9017e-20
-2.37935e-20
2.41188e-06
-4.19024e-20
-2.57867e-20
2.58438e-06
-4.43477e-20
-2.75225e-20
2.75739e-06
-4.68862e-20
-2.90306e-20
2.93041e-06
-4.90356e-20
-3.09345e-20
3.10301e-06
-5.18685e-20
-3.28544e-20
3.27492e-06
-5.38517e-20
-3.45231e-20
3.44595e-06
-5.73473e-20
-3.60475e-20
3.61603e-06
-5.97472e-20
-3.73616e-20
3.78515e-06
-6.24494e-20
-3.84214e-20
3.95335e-06
-6.47687e-20
-4.03917e-20
4.12074e-06
-6.71658e-20
-4.2709e-20
4.28743e-06
-7.09773e-20
-4.34243e-20
4.45357e-06
-7.32203e-20
-4.50837e-20
4.61932e-06
-7.45024e-20
-4.78903e-20
4.78484e-06
-7.62331e-20
-4.94431e-20
4.95028e-06
-7.83089e-20
-5.12634e-20
5.11581e-06
-8.01907e-20
-5.26574e-20
5.28159e-06
-8.24711e-20
-5.29074e-20
5.44776e-06
-8.38662e-20
-5.28644e-20
5.61448e-06
-8.45063e-20
-5.49236e-20
5.78187e-06
-8.63682e-20
-5.62458e-20
5.95008e-06
-8.75292e-20
-5.78342e-20
6.11924e-06
-8.87123e-20
-5.88542e-20
6.28946e-06
-8.96434e-20
-6.04605e-20
6.46086e-06
-9.1714e-20
-6.26023e-20
6.63356e-06
-9.38574e-20
-6.30187e-20
6.80767e-06
-9.54696e-20
-6.42431e-20
6.98328e-06
-9.68481e-20
-6.43541e-20
7.1605e-06
-9.82995e-20
-6.37591e-20
7.33942e-06
-1.00448e-19
-6.46206e-20
7.52014e-06
-1.02436e-19
-6.42198e-20
7.70274e-06
-1.02467e-19
-6.49151e-20
7.88732e-06
-1.0541e-19
-6.54108e-20
8.07396e-06
-1.09155e-19
-6.61072e-20
8.26275e-06
-1.1235e-19
-6.78353e-20
8.45376e-06
-1.14524e-19
-6.92133e-20
8.64707e-06
-1.16922e-19
-6.93925e-20
8.84276e-06
-1.19583e-19
-6.83776e-20
9.04092e-06
-1.19792e-19
-6.80775e-20
9.24161e-06
-1.21025e-19
-7.04651e-20
9.44491e-06
-1.21966e-19
-7.24675e-20
9.6509e-06
-1.23066e-19
-7.4947e-20
9.85965e-06
-1.2465e-19
-7.67427e-20
1.00712e-05
-1.25648e-19
-7.68697e-20
1.02857e-05
-1.24754e-19
-8.20119e-20
1.05032e-05
-1.26443e-19
-8.28121e-20
1.07237e-05
-1.27951e-19
-8.39096e-20
1.09473e-05
-1.30042e-19
-8.45983e-20
1.11742e-05
-1.32299e-19
-8.49883e-20
1.14043e-05
-1.34731e-19
-8.68496e-20
1.16377e-05
-1.35846e-19
-8.63165e-20
1.18746e-05
-1.37237e-19
-8.79282e-20
1.2115e-05
-1.39109e-19
-8.93668e-20
1.23589e-05
-1.39785e-19
-9.01842e-20
1.26064e-05
-1.39631e-19
-9.04949e-20
1.28577e-05
-1.40906e-19
-9.11652e-20
1.31127e-05
-1.42003e-19
-9.10729e-20
1.33716e-05
-1.43176e-19
-8.8778e-20
1.36344e-05
-1.43944e-19
-8.97336e-20
1.39012e-05
-1.45486e-19
-9.03165e-20
1.41722e-05
-1.45435e-19
-8.87536e-20
1.44473e-05
-1.42682e-19
-9.00074e-20
1.47266e-05
-1.4371e-19
-9.10506e-20
1.50103e-05
-1.45246e-19
-9.20962e-20
1.52983e-05
-1.43219e-19
-9.68673e-20
1.55909e-05
-1.4401e-19
-9.6124e-20
1.5888e-05
-1.44862e-19
-1.01987e-19
1.61898e-05
-1.46555e-19
-1.03172e-19
1.64963e-05
-1.50093e-19
-1.03346e-19
1.68076e-05
-1.4869e-19
-1.03892e-19
1.71238e-05
-1.49965e-19
-1.03992e-19
1.74451e-05
-1.51138e-19
-1.02815e-19
1.77714e-05
-1.54688e-19
-1.02128e-19
1.81029e-05
-1.56158e-19
-1.03548e-19
1.84396e-05
-1.60934e-19
-1.00578e-19
1.87817e-05
-1.64481e-19
-9.66688e-20
1.91293e-05
-1.66135e-19
-9.78904e-20
1.94824e-05
-1.71407e-19
-9.82687e-20
1.98411e-05
-1.70648e-19
-1.00014e-19
2.02056e-05
-1.72047e-19
-1.01491e-19
2.05759e-05
-1.78797e-19
-1.02566e-19
2.09521e-05
-1.76522e-19
-1.02762e-19
2.13344e-05
-1.74765e-19
-9.90282e-20
2.17229e-05
-1.68991e-19
-9.98303e-20
2.21175e-05
-1.67647e-19
-1.04513e-19
2.25186e-05
-1.71409e-19
-1.02924e-19
2.2926e-05
-1.68637e-19
-9.75705e-20
2.33401e-05
-1.68758e-19
-9.61634e-20
2.37608e-05
-1.65625e-19
-9.60257e-20
2.41883e-05
-1.62516e-19
-1.02182e-19
2.46228e-05
-1.66946e-19
-1.01525e-19
2.50642e-05
-1.7333e-19
-9.63021e-20
2.55128e-05
-1.74252e-19
-9.58379e-20
2.59687e-05
-1.756e-19
-9.64189e-20
2.64319e-05
-1.76578e-19
-9.57581e-20
2.69026e-05
-1.76447e-19
-9.45954e-20
2.7381e-05
-1.77284e-19
-9.50118e-20
2.78671e-05
-1.76435e-19
-9.88071e-20
2.83611e-05
-1.74058e-19
-1.01299e-19
2.88632e-05
-1.74256e-19
-1.01265e-19
2.93733e-05
-1.69034e-19
-1.06175e-19
2.98918e-05
-1.68736e-19
-1.02857e-19
3.04187e-05
-1.68724e-19
-1.05526e-19
3.09541e-05
-1.65004e-19
-1.02573e-19
3.14983e-05
-1.68456e-19
-1.02416e-19
3.20512e-05
-1.7092e-19
-1.04664e-19
3.26132e-05
-1.72427e-19
-1.02988e-19
3.31844e-05
-1.74106e-19
-9.64782e-20
3.37648e-05
-1.65731e-19
-9.53916e-20
3.43546e-05
-1.69034e-19
-9.67659e-20
3.49541e-05
-1.6661e-19
-9.15419e-20
3.55633e-05
-1.71462e-19
-9.51327e-20
3.61824e-05
-1.70568e-19
-9.17962e-20
3.68116e-05
-1.73768e-19
-8.34187e-20
3.74511e-05
-1.72601e-19
-7.51949e-20
3.8101e-05
-1.73939e-19
-7.57661e-20
3.87614e-05
-1.7522e-19
-8.04556e-20
3.94327e-05
-1.78578e-19
-7.82971e-20
4.01148e-05
-1.75775e-19
-7.78616e-20
4.08081e-05
-1.72647e-19
-7.76916e-20
4.15126e-05
-1.64117e-19
-7.80036e-20
4.22286e-05
-1.5784e-19
-7.78872e-20
4.29563e-05
-1.55758e-19
-7.56778e-20
4.36959e-05
-1.46464e-19
-8.19112e-20
4.44475e-05
-1.42735e-19
-8.06039e-20
4.52114e-05
-1.43475e-19
-7.54873e-20
4.59877e-05
-1.49937e-19
-7.64944e-20
4.67766e-05
-1.48836e-19
-7.92752e-20
4.75784e-05
-1.55857e-19
-8.24124e-20
4.83933e-05
-1.53377e-19
-8.53964e-20
4.92214e-05
-1.50638e-19
-8.78283e-20
5.0063e-05
-1.55911e-19
-8.16445e-20
5.09184e-05
-1.59939e-19
-8.06375e-20
5.17877e-05
-1.68459e-19
-7.23467e-20
5.26711e-05
-1.63835e-19
-7.07078e-20
5.35689e-05
-1.74157e-19
-7.39882e-20
5.44814e-05
-1.76187e-19
-7.2957e-20
5.54087e-05
-1.76051e-19
-7.2937e-20
5.63511e-05
-1.72259e-19
-7.22504e-20
5.73089e-05
-1.7467e-19
-6.71936e-20
5.82823e-05
-1.75271e-19
-7.17141e-20
5.92715e-05
-1.71807e-19
-7.39608e-20
6.02768e-05
-1.77089e-19
-8.02188e-20
6.12985e-05
-1.66976e-19
-8.47252e-20
6.23368e-05
-1.73711e-19
-8.56986e-20
6.3392e-05
-1.79534e-19
-9.04832e-20
6.44644e-05
-1.70949e-19
-9.64009e-20
6.55543e-05
-1.614e-19
-8.47813e-20
6.66618e-05
-1.64012e-19
-8.89679e-20
6.77874e-05
-1.75774e-19
-8.35265e-20
6.89313e-05
-1.69778e-19
-6.63248e-20
7.00939e-05
-1.69927e-19
-5.21688e-20
7.12753e-05
-1.73866e-19
-5.56197e-20
7.24759e-05
-1.77767e-19
-6.26139e-20
7.36961e-05
-1.92486e-19
-6.22367e-20
7.49361e-05
-1.88951e-19
-6.03358e-20
7.61962e-05
-1.83543e-19
-5.42777e-20
7.74769e-05
-2.00066e-19
-4.23823e-20
7.87783e-05
-2.04713e-19
-4.67331e-20
8.01009e-05
-2.06597e-19
-5.85125e-20
8.1445e-05
-2.00269e-19
-5.9017e-20
8.28109e-05
-1.99491e-19
-5.05742e-20
8.4199e-05
-1.94302e-19
-4.82552e-20
8.56096e-05
-1.8345e-19
-4.91122e-20
8.70431e-05
-1.80655e-19
-5.57551e-20
8.84999e-05
-1.75936e-19
-4.17308e-20
8.99804e-05
-1.91907e-19
-3.46106e-20
9.14849e-05
-1.93348e-19
-3.55413e-20
9.30137e-05
-2.06017e-19
-4.3516e-20
9.45674e-05
-2.19381e-19
-6.47305e-20
9.61463e-05
-2.37158e-19
-5.31055e-20
9.77508e-05
-2.39125e-19
-6.19452e-20
9.93813e-05
-2.37996e-19
-5.84444e-20
0.000101038
-2.37747e-19
-6.83721e-20
0.000102722
-2.37509e-19
-6.03543e-20
0.000104433
-2.37961e-19
-7.22818e-20
0.000106172
-2.37718e-19
-6.48098e-20
0.000107939
-2.39734e-19
-5.72914e-20
0.000109734
-2.50089e-19
-4.51823e-20
0.000111559
-2.2878e-19
-3.7992e-20
0.000113413
-2.31269e-19
-2.59139e-20
0.000115297
-2.33977e-19
-6.66719e-21
0.000117212
-2.01565e-19
1.26862e-20
0.000119157
-1.80445e-19
1.21825e-20
0.000121134
-1.55492e-19
1.81646e-20
0.000123143
-1.57644e-19
1.30853e-20
0.000125185
-1.6931e-19
3.42087e-20
0.000127259
-1.49951e-19
-5.58119e-21
0.000129367
-1.4086e-19
-1.87864e-20
0.000131509
-1.60773e-19
-1.86158e-20
0.000133686
-1.67952e-19
-1.96119e-20
0.000135898
-1.20331e-19
-3.987e-20
0.000138145
-1.01846e-19
-2.3949e-20
0.000140429
-1.05316e-19
-3.17679e-20
0.000142749
-1.30394e-19
-3.71577e-20
0.000145107
-1.56612e-19
-3.88508e-20
0.000147503
-1.31137e-19
-2.21129e-20
0.000149938
-9.64497e-20
-3.61041e-20
0.000152411
-1.21545e-19
-1.39353e-20
0.000154925
-1.08182e-19
-1.67702e-20
0.000157479
-1.17488e-19
-1.51948e-20
0.000160074
-1.45671e-19
2.42652e-20
0.000162711
-1.43016e-19
2.53437e-20
0.00016539
-1.24857e-19
4.45954e-20
0.000168113
-1.22932e-19
3.8173e-20
0.000170879
-1.12849e-19
4.367e-20
0.000173689
-1.03515e-19
7.42235e-20
0.000176545
-6.74663e-20
6.46221e-20
0.000179446
-4.1772e-20
8.7398e-20
0.000182394
-7.56039e-20
1.17918e-19
0.00018539
-7.66614e-20
1.19253e-19
0.000188433
-9.49811e-20
1.37796e-19
0.000191525
-6.55462e-20
1.10401e-19
0.000194666
-5.65294e-20
1.1993e-19
0.000197858
-1.67244e-20
1.30683e-19
0.000201101
-7.32784e-21
1.61767e-19
0.000204396
-4.73751e-23
1.80286e-19
0.000207743
3.41732e-20
1.77104e-19
0.000211144
6.8209e-21
1.89428e-19
0.0002146
2.11237e-20