/*--------------------------------*- C++ -*----------------------------------*\
| =========                 |                                                 |
| \\      /  F ield         | OpenFOAM: The Open Source CFD Toolbox           |
|  \\    /   O peration     | Version:  2106                                  |
|   \\  /    A nd           | Website:  www.openfoam.com                      |
|    \\/     M anipulation  |                                                 |
\*---------------------------------------------------------------------------*/
FoamFile
{
    version     2.0;
    format      ascii;
    arch        "LSB;label=32;scalar=64";
    class       volVectorField;
    location    "15000";
    object      U;
}
// * * * * * * * * * * * * * * * * * * * * * * * * * * * * * * * * * * * * * //

dimensions      [0 1 -1 0 0 0 0];

internalField   nonuniform List<vector> 
2560
(
(0.0037164 -8.54927e-16 -5.11275e-17)
(0.0037164 -3.7749e-19 -1.87636e-17)
(0.0112021 -3.84619e-15 -1.56552e-16)
(0.0112021 -9.69095e-19 -7.39619e-17)
(0.0187956 -3.5662e-15 -1.62384e-16)
(0.0187956 -2.49116e-18 -7.61237e-17)
(0.0264983 -3.38278e-15 -1.6783e-16)
(0.0264983 -3.91073e-18 -7.83468e-17)
(0.0343119 -3.35468e-15 -1.7348e-16)
(0.0343119 -5.38981e-18 -8.06328e-17)
(0.0422379 -3.36183e-15 -1.79327e-16)
(0.0422379 -6.9124e-18 -8.29838e-17)
(0.0502778 -3.36185e-15 -1.85343e-16)
(0.0502778 -8.49344e-18 -8.54009e-17)
(0.0584332 -3.35795e-15 -1.91531e-16)
(0.0584332 -1.01314e-17 -8.78859e-17)
(0.0667058 -3.35435e-15 -1.97903e-16)
(0.0667058 -1.18255e-17 -9.04394e-17)
(0.0750967 -3.35116e-15 -2.04464e-16)
(0.0750967 -1.36084e-17 -9.30617e-17)
(0.0836075 -3.34798e-15 -2.11216e-16)
(0.0836075 -1.54448e-17 -9.57533e-17)
(0.0922392 -3.34467e-15 -2.18156e-16)
(0.0922392 -1.7352e-17 -9.85125e-17)
(0.100993 -3.3412e-15 -2.25282e-16)
(0.100993 -1.93505e-17 -1.01338e-16)
(0.109868 -3.33767e-15 -2.32587e-16)
(0.109868 -2.13415e-17 -1.04225e-16)
(0.118866 -3.33396e-15 -2.40059e-16)
(0.118866 -2.34343e-17 -1.07168e-16)
(0.127986 -3.33001e-15 -2.47681e-16)
(0.127986 -2.56432e-17 -1.1016e-16)
(0.137225 -3.32601e-15 -2.55432e-16)
(0.137225 -2.79348e-17 -1.13188e-16)
(0.146582 -3.32183e-15 -2.63282e-16)
(0.146582 -3.03826e-17 -1.16239e-16)
(0.156053 -3.3175e-15 -2.71192e-16)
(0.156053 -3.2847e-17 -1.19298e-16)
(0.165633 -3.31313e-15 -2.79116e-16)
(0.165633 -3.53693e-17 -1.22341e-16)
(0.175315 -3.30853e-15 -2.87e-16)
(0.175315 -3.80344e-17 -1.25348e-16)
(0.18509 -3.30372e-15 -2.94781e-16)
(0.18509 -4.07912e-17 -1.28289e-16)
(0.194949 -3.29875e-15 -3.02386e-16)
(0.194949 -4.35663e-17 -1.31139e-16)
(0.204878 -3.29355e-15 -3.09742e-16)
(0.204878 -4.65878e-17 -1.3386e-16)
(0.214864 -3.28821e-15 -3.16768e-16)
(0.214864 -4.95612e-17 -1.36414e-16)
(0.22489 -3.28295e-15 -3.23388e-16)
(0.22489 -5.2466e-17 -1.38775e-16)
(0.234938 -3.27757e-15 -3.29528e-16)
(0.234938 -5.54721e-17 -1.40913e-16)
(0.244989 -3.27193e-15 -3.35123e-16)
(0.244989 -5.85267e-17 -1.42798e-16)
(0.255022 -3.26584e-15 -3.40116e-16)
(0.255022 -6.17593e-17 -1.44411e-16)
(0.265018 -3.25955e-15 -3.44465e-16)
(0.265018 -6.52169e-17 -1.45731e-16)
(0.274955 -3.25331e-15 -3.48147e-16)
(0.274955 -6.88736e-17 -1.46749e-16)
(0.284814 -3.24702e-15 -3.51154e-16)
(0.284814 -7.23783e-17 -1.47468e-16)
(0.294574 -3.2408e-15 -3.53495e-16)
(0.294574 -7.56147e-17 -1.47901e-16)
(0.304219 -3.23451e-15 -3.55195e-16)
(0.304219 -7.89419e-17 -1.48049e-16)
(0.313732 -3.22803e-15 -3.56292e-16)
(0.313732 -8.25402e-17 -1.47923e-16)
(0.323099 -3.2213e-15 -3.56835e-16)
(0.323099 -8.64999e-17 -1.47552e-16)
(0.332309 -3.2145e-15 -3.56879e-16)
(0.332309 -9.05058e-17 -1.46959e-16)
(0.341352 -3.20754e-15 -3.56485e-16)
(0.341352 -9.44163e-17 -1.46174e-16)
(0.350221 -3.20096e-15 -3.55716e-16)
(0.350221 -9.82573e-17 -1.45209e-16)
(0.358909 -3.19475e-15 -3.54635e-16)
(0.358909 -1.01828e-16 -1.4411e-16)
(0.367414 -3.18856e-15 -3.53303e-16)
(0.367414 -1.0516e-16 -1.42896e-16)
(0.375732 -3.1824e-15 -3.51775e-16)
(0.375732 -1.08346e-16 -1.41596e-16)
(0.383865 -3.17618e-15 -3.50106e-16)
(0.383865 -1.11983e-16 -1.40223e-16)
(0.391812 -3.17005e-15 -3.48342e-16)
(0.391812 -1.15464e-16 -1.38799e-16)
(0.399575 -3.16388e-15 -3.46528e-16)
(0.399575 -1.18887e-16 -1.37351e-16)
(0.407158 -3.15748e-15 -3.44696e-16)
(0.407158 -1.22444e-16 -1.35871e-16)
(0.414563 -3.1511e-15 -3.42879e-16)
(0.414563 -1.25808e-16 -1.3438e-16)
(0.421795 -3.14502e-15 -3.41105e-16)
(0.421795 -1.29319e-16 -1.329e-16)
(0.428857 -3.13892e-15 -3.39397e-16)
(0.428857 -1.32806e-16 -1.31433e-16)
(0.435756 -3.13286e-15 -3.37772e-16)
(0.435756 -1.3632e-16 -1.29981e-16)
(0.442495 -3.12661e-15 -3.36246e-16)
(0.442495 -1.39801e-16 -1.28558e-16)
(0.449081 -3.11996e-15 -3.3483e-16)
(0.449081 -1.43434e-16 -1.27167e-16)
(0.455517 -3.11356e-15 -3.33536e-16)
(0.455517 -1.46589e-16 -1.25818e-16)
(0.46181 -3.10724e-15 -3.32373e-16)
(0.46181 -1.4992e-16 -1.24503e-16)
(0.467964 -3.10108e-15 -3.31345e-16)
(0.467964 -1.53601e-16 -1.23224e-16)
(0.473985 -3.09492e-15 -3.30459e-16)
(0.473985 -1.56906e-16 -1.21978e-16)
(0.479877 -3.0885e-15 -3.29718e-16)
(0.479877 -1.60298e-16 -1.20769e-16)
(0.485646 -3.08209e-15 -3.29124e-16)
(0.485646 -1.63977e-16 -1.19613e-16)
(0.491295 -3.07552e-15 -3.28676e-16)
(0.491295 -1.67467e-16 -1.18476e-16)
(0.49683 -3.069e-15 -3.28375e-16)
(0.49683 -1.70748e-16 -1.17345e-16)
(0.502254 -3.0625e-15 -3.28221e-16)
(0.502254 -1.74144e-16 -1.1624e-16)
(0.507573 -3.05551e-15 -3.28215e-16)
(0.507573 -1.77613e-16 -1.15188e-16)
(0.51279 -3.04855e-15 -3.28353e-16)
(0.51279 -1.81738e-16 -1.14181e-16)
(0.517909 -3.04234e-15 -3.28634e-16)
(0.517909 -1.84522e-16 -1.13182e-16)
(0.522934 -3.03619e-15 -3.29061e-16)
(0.522934 -1.8744e-16 -1.12222e-16)
(0.527868 -3.02996e-15 -3.29629e-16)
(0.527868 -1.90828e-16 -1.11297e-16)
(0.532715 -3.02356e-15 -3.3034e-16)
(0.532715 -1.94079e-16 -1.10379e-16)
(0.537479 -3.01716e-15 -3.31194e-16)
(0.537479 -1.97829e-16 -1.09501e-16)
(0.542161 -3.01041e-15 -3.32186e-16)
(0.542161 -2.0091e-16 -1.08588e-16)
(0.546766 -3.00345e-15 -3.33318e-16)
(0.546766 -2.03791e-16 -1.07674e-16)
(0.551296 -2.99662e-15 -3.34583e-16)
(0.551296 -2.06937e-16 -1.06815e-16)
(0.555754 -2.99015e-15 -3.35985e-16)
(0.555754 -2.10559e-16 -1.05969e-16)
(0.560142 -2.9839e-15 -3.37521e-16)
(0.560142 -2.14173e-16 -1.05124e-16)
(0.564463 -2.97761e-15 -3.39189e-16)
(0.564463 -2.17649e-16 -1.0429e-16)
(0.56872 -2.97145e-15 -3.40986e-16)
(0.56872 -2.21188e-16 -1.03451e-16)
(0.572915 -2.96485e-15 -3.42909e-16)
(0.572915 -2.25066e-16 -1.02603e-16)
(0.577049 -2.95801e-15 -3.44953e-16)
(0.577049 -2.28987e-16 -1.01739e-16)
(0.581126 -2.95233e-15 -3.47121e-16)
(0.581126 -2.3276e-16 -1.0088e-16)
(0.585146 -2.94715e-15 -3.49415e-16)
(0.585146 -2.3656e-16 -9.99734e-17)
(0.589113 -2.941e-15 -3.51834e-16)
(0.589113 -2.40053e-16 -9.90165e-17)
(0.593027 -2.9343e-15 -3.54368e-16)
(0.593027 -2.4324e-16 -9.80957e-17)
(0.59689 -2.92831e-15 -3.57019e-16)
(0.59689 -2.47325e-16 -9.71792e-17)
(0.600705 -2.92317e-15 -3.59794e-16)
(0.600705 -2.5041e-16 -9.62225e-17)
(0.604473 -2.91766e-15 -3.6269e-16)
(0.604473 -2.52319e-16 -9.52602e-17)
(0.608195 -2.91149e-15 -3.65708e-16)
(0.608195 -2.56048e-16 -9.42847e-17)
(0.611873 -2.90482e-15 -3.68846e-16)
(0.611873 -2.59723e-16 -9.32767e-17)
(0.615508 -2.89769e-15 -3.72101e-16)
(0.615508 -2.63947e-16 -9.22911e-17)
(0.619102 -2.89e-15 -3.7547e-16)
(0.619102 -2.68684e-16 -9.12566e-17)
(0.622655 -2.88284e-15 -3.78963e-16)
(0.622655 -2.72225e-16 -9.01219e-17)
(0.62617 -2.87559e-15 -3.8257e-16)
(0.62617 -2.76612e-16 -8.90176e-17)
(0.629647 -2.86793e-15 -3.86286e-16)
(0.629647 -2.81499e-16 -8.78655e-17)
(0.633088 -2.8604e-15 -3.90113e-16)
(0.633088 -2.85275e-16 -8.6717e-17)
(0.636493 -2.85278e-15 -3.94045e-16)
(0.636493 -2.89107e-16 -8.55439e-17)
(0.639864 -2.84497e-15 -3.98099e-16)
(0.639864 -2.93788e-16 -8.42661e-17)
(0.643201 -2.83667e-15 -4.02271e-16)
(0.643201 -2.99276e-16 -8.29929e-17)
(0.646507 -2.82773e-15 -4.06551e-16)
(0.646507 -3.0488e-16 -8.17e-17)
(0.649781 -2.81938e-15 -4.10939e-16)
(0.649781 -3.0986e-16 -8.03915e-17)
(0.653024 -2.812e-15 -4.15462e-16)
(0.653024 -3.14738e-16 -7.89514e-17)
(0.656238 -2.80505e-15 -4.20121e-16)
(0.656238 -3.19927e-16 -7.74478e-17)
(0.659423 -2.79781e-15 -4.2493e-16)
(0.659423 -3.24214e-16 -7.5865e-17)
(0.66258 -2.79008e-15 -4.29859e-16)
(0.66258 -3.26783e-16 -7.42846e-17)
(0.66571 -2.78163e-15 -4.34914e-16)
(0.66571 -3.30921e-16 -7.26475e-17)
(0.668814 -2.77275e-15 -4.31372e-16)
(0.668814 -3.35621e-16 -7.09757e-17)
(0.671892 -2.76614e-15 -4.25261e-16)
(0.671892 -3.384e-16 -6.91692e-17)
(0.674945 -2.76096e-15 -4.19162e-16)
(0.674945 -3.42497e-16 -6.73651e-17)
(0.677973 -2.75534e-15 -4.12999e-16)
(0.677973 -3.45043e-16 -6.53861e-17)
(0.680979 -2.74916e-15 -4.06951e-16)
(0.680979 -3.47021e-16 -6.34838e-17)
(0.683961 -2.74323e-15 -4.00889e-16)
(0.683961 -3.50938e-16 -6.1743e-17)
(0.68692 -2.73758e-15 -3.94741e-16)
(0.68692 -3.53276e-16 -5.97763e-17)
(0.689858 -2.73114e-15 -3.88659e-16)
(0.689858 -3.54728e-16 -5.76895e-17)
(0.692775 -2.7249e-15 -3.82684e-16)
(0.692775 -3.5695e-16 -5.56283e-17)
(0.695671 -2.71904e-15 -3.76903e-16)
(0.695671 -3.59284e-16 -5.34832e-17)
(0.698547 -2.7127e-15 -3.70941e-16)
(0.698547 -3.62349e-16 -5.11799e-17)
(0.701403 -2.70605e-15 -3.65011e-16)
(0.701403 -3.65002e-16 -4.8821e-17)
(0.704241 -2.69925e-15 -3.59154e-16)
(0.704241 -3.68698e-16 -4.63771e-17)
(0.707059 -2.69294e-15 -3.53443e-16)
(0.707059 -3.72334e-16 -4.39525e-17)
(0.70986 -2.68635e-15 -3.4774e-16)
(0.70986 -3.74011e-16 -4.14984e-17)
(0.712642 -2.67887e-15 -3.41965e-16)
(0.712642 -3.75887e-16 -3.89972e-17)
(0.715408 -2.67076e-15 -3.36386e-16)
(0.715408 -3.7707e-16 -3.65117e-17)
(0.718156 -2.66265e-15 -3.309e-16)
(0.718156 -3.78503e-16 -3.39654e-17)
(0.720888 -2.65483e-15 -3.24968e-16)
(0.720888 -3.79809e-16 -3.15105e-17)
(0.723604 -2.64649e-15 -3.19334e-16)
(0.723604 -3.82494e-16 -2.8944e-17)
(0.726305 -2.63823e-15 -3.13729e-16)
(0.726305 -3.86068e-16 -2.6335e-17)
(0.72899 -2.63054e-15 -3.07997e-16)
(0.72899 -3.90426e-16 -2.39218e-17)
(0.73166 -2.62333e-15 -3.02095e-16)
(0.73166 -3.94689e-16 -2.14821e-17)
(0.734316 -2.61657e-15 -2.96476e-16)
(0.734316 -3.99054e-16 -1.88291e-17)
(0.736957 -2.60933e-15 -2.90954e-16)
(0.736957 -4.03729e-16 -1.63074e-17)
(0.739585 -2.60235e-15 -2.85218e-16)
(0.739585 -4.06204e-16 -1.41129e-17)
(0.742199 -2.59563e-15 -2.78959e-16)
(0.742199 -4.09686e-16 -1.18755e-17)
(0.744799 -2.5878e-15 -2.72591e-16)
(0.744799 -4.12336e-16 -9.41533e-18)
(0.747387 -2.58066e-15 -2.66262e-16)
(0.747387 -4.15149e-16 -7.13756e-18)
(0.749962 -2.5727e-15 -2.60075e-16)
(0.749962 -4.20336e-16 -4.77402e-18)
(0.752525 -2.56333e-15 -2.53734e-16)
(0.752525 -4.27795e-16 -4.38047e-18)
(0.755076 -2.5553e-15 -2.46894e-16)
(0.755076 -4.34142e-16 -4.54831e-18)
(0.757615 -2.54681e-15 -2.40603e-16)
(0.757615 -4.39715e-16 -4.6667e-18)
(0.760142 -2.53942e-15 -2.33923e-16)
(0.760142 -4.47014e-16 -4.71119e-18)
(0.762658 -2.53243e-15 -2.27028e-16)
(0.762658 -4.54117e-16 -4.82407e-18)
(0.765163 -2.52434e-15 -2.20687e-16)
(0.765163 -4.58555e-16 -5.12203e-18)
(0.767657 -2.5156e-15 -2.14592e-16)
(0.767657 -4.63285e-16 -5.34854e-18)
(0.770141 -2.50426e-15 -2.10235e-16)
(0.770141 -4.72025e-16 -5.41883e-18)
(0.772614 -2.4931e-15 -2.09005e-16)
(0.772614 -4.78038e-16 -5.77732e-18)
(0.775078 -2.48598e-15 -2.08396e-16)
(0.775078 -4.80495e-16 -5.91961e-18)
(0.777531 -2.4816e-15 -2.07807e-16)
(0.777531 -4.85109e-16 -5.81183e-18)
(0.779975 -2.47742e-15 -2.07033e-16)
(0.779975 -4.864e-16 -5.71529e-18)
(0.782409 -2.47271e-15 -2.05948e-16)
(0.782409 -4.86454e-16 -5.86906e-18)
(0.784834 -2.46681e-15 -2.04925e-16)
(0.784834 -4.91422e-16 -5.82518e-18)
(0.78725 -2.4597e-15 -2.03819e-16)
(0.78725 -4.92608e-16 -5.84657e-18)
(0.789657 -2.45273e-15 -2.02656e-16)
(0.789657 -4.95498e-16 -5.9884e-18)
(0.792055 -2.44756e-15 -2.0164e-16)
(0.792055 -4.99243e-16 -6.12327e-18)
(0.794445 -2.44091e-15 -2.00633e-16)
(0.794445 -5.03009e-16 -6.14282e-18)
(0.796826 -2.43234e-15 -1.99616e-16)
(0.796826 -5.09584e-16 -6.38456e-18)
(0.799199 -2.42534e-15 -1.98774e-16)
(0.799199 -5.13369e-16 -6.5807e-18)
(0.801565 -2.41717e-15 -1.97966e-16)
(0.801565 -5.18916e-16 -6.53198e-18)
(0.803922 -2.40564e-15 -1.97045e-16)
(0.803922 -5.23258e-16 -6.52789e-18)
(0.806272 -2.39543e-15 -1.96316e-16)
(0.806272 -5.27619e-16 -6.48399e-18)
(0.808614 -2.38602e-15 -1.95386e-16)
(0.808614 -5.36944e-16 -6.57506e-18)
(0.810949 -2.37623e-15 -1.94702e-16)
(0.810949 -5.42603e-16 -6.89711e-18)
(0.813276 -2.36808e-15 -1.94463e-16)
(0.813276 -5.45809e-16 -7.0519e-18)
(0.815597 -2.3594e-15 -1.9441e-16)
(0.815597 -5.52382e-16 -6.74035e-18)
(0.81791 -2.34684e-15 -1.94062e-16)
(0.81791 -5.59951e-16 -6.76801e-18)
(0.820217 -2.33524e-15 -1.93974e-16)
(0.820217 -5.62979e-16 -6.62828e-18)
(0.822517 -2.32782e-15 -1.9351e-16)
(0.822517 -5.69077e-16 -6.69851e-18)
(0.824811 -2.32318e-15 -1.9296e-16)
(0.824811 -5.7871e-16 -6.51553e-18)
(0.827098 -2.32007e-15 -1.91688e-16)
(0.827098 -5.85914e-16 -6.46307e-18)
(0.829379 -2.31045e-15 -1.90442e-16)
(0.829379 -5.9668e-16 -6.84811e-18)
(0.831653 -2.29752e-15 -1.90046e-16)
(0.831653 -6.09306e-16 -7.01157e-18)
(0.833922 -2.28861e-15 -1.89962e-16)
(0.833922 -6.19109e-16 -7.4269e-18)
(0.836184 -2.28053e-15 -1.90426e-16)
(0.836184 -6.28851e-16 -7.40679e-18)
(0.838441 -2.27033e-15 -1.907e-16)
(0.838441 -6.39432e-16 -7.71303e-18)
(0.840692 -2.25715e-15 -1.9133e-16)
(0.840692 -6.47717e-16 -7.92836e-18)
(0.842937 -2.2486e-15 -1.92497e-16)
(0.842937 -6.57765e-16 -8.04933e-18)
(0.845177 -2.24021e-15 -1.93282e-16)
(0.845177 -6.69144e-16 -8.18268e-18)
(0.847411 -2.22867e-15 -1.94555e-16)
(0.847411 -6.79952e-16 -8.48095e-18)
(0.84964 -2.21855e-15 -1.96399e-16)
(0.84964 -6.89495e-16 -8.49575e-18)
(0.851864 -2.2062e-15 -1.98171e-16)
(0.851864 -6.98895e-16 -8.44635e-18)
(0.854083 -2.19284e-15 -1.99939e-16)
(0.854083 -7.06439e-16 -8.37018e-18)
(0.856296 -2.17833e-15 -2.01533e-16)
(0.856296 -7.18209e-16 -8.1858e-18)
(0.858505 -2.16502e-15 -2.02775e-16)
(0.858505 -7.32454e-16 -8.7762e-18)
(0.860708 -2.14829e-15 -2.04706e-16)
(0.860708 -7.42801e-16 -8.86513e-18)
(0.862907 -2.1323e-15 -2.06971e-16)
(0.862907 -7.57631e-16 -8.89038e-18)
(0.865101 -2.11664e-15 -2.08866e-16)
(0.865101 -7.71146e-16 -8.88954e-18)
(0.86729 -2.09915e-15 -2.10925e-16)
(0.86729 -7.84772e-16 -9.37681e-18)
(0.869475 -2.08482e-15 -2.13542e-16)
(0.869475 -7.99602e-16 -9.98393e-18)
(0.871655 -2.0716e-15 -2.16563e-16)
(0.871655 -8.09619e-16 -1.02336e-17)
(0.873831 -2.0618e-15 -2.1952e-16)
(0.873831 -8.16326e-16 -9.48411e-18)
(0.876003 -2.05264e-15 -2.21278e-16)
(0.876003 -8.16971e-16 -8.86608e-18)
(0.87817 -2.03929e-15 -2.21826e-16)
(0.87817 -8.229e-16 -8.84095e-18)
(0.880332 -2.02498e-15 -2.2231e-16)
(0.880332 -8.32625e-16 -8.362e-18)
(0.882491 -2.01439e-15 -2.2153e-16)
(0.882491 -8.4019e-16 -8.49167e-18)
(0.884645 -2.00524e-15 -2.20217e-16)
(0.884645 -8.4895e-16 -8.48593e-18)
(0.886796 -1.99648e-15 -2.18074e-16)
(0.886796 -8.56014e-16 -8.38393e-18)
(0.888942 -1.99279e-15 -2.15319e-16)
(0.888942 -8.57537e-16 -8.22971e-18)
(0.891084 -1.98415e-15 -2.11379e-16)
(0.891084 -8.59318e-16 -9.21709e-18)
(0.893223 -1.97077e-15 -2.08076e-16)
(0.893223 -8.63656e-16 -9.71986e-18)
(0.895357 -1.9582e-15 -2.05383e-16)
(0.895357 -8.72478e-16 -9.66763e-18)
(0.897488 -1.94516e-15 -2.02437e-16)
(0.897488 -8.88704e-16 -1.05027e-17)
(0.899615 -1.934e-15 -1.99707e-16)
(0.899615 -8.88716e-16 -1.13091e-17)
(0.901738 -1.92486e-15 -1.97207e-16)
(0.901738 -8.92273e-16 -1.12246e-17)
(0.903857 -1.91927e-15 -1.92928e-16)
(0.903857 -9.093e-16 -8.73151e-18)
(0.905973 -1.91344e-15 -1.87494e-16)
(0.905973 -9.12628e-16 -9.45853e-18)
(0.908085 -1.90291e-15 -1.81898e-16)
(0.908085 -9.20054e-16 -9.25662e-18)
(0.910193 -1.89167e-15 -1.76787e-16)
(0.910193 -9.27074e-16 -6.34326e-18)
(0.912298 -1.88326e-15 -1.70764e-16)
(0.912298 -9.27081e-16 -2.73942e-18)
(0.914399 -1.87875e-15 -1.65157e-16)
(0.914399 -9.30165e-16 -1.40569e-18)
(0.916497 -1.87399e-15 -1.59296e-16)
(0.916497 -9.36134e-16 -1.07018e-18)
(0.918591 -1.86173e-15 -1.55554e-16)
(0.918591 -9.42828e-16 -9.60419e-20)
(0.920682 -1.84771e-15 -1.53165e-16)
(0.920682 -9.44355e-16 5.22592e-18)
(0.922769 -1.84336e-15 -1.49834e-16)
(0.922769 -9.41495e-16 7.14866e-18)
(0.924853 -1.83985e-15 -1.45017e-16)
(0.924853 -9.45736e-16 7.69648e-18)
(0.926934 -1.83052e-15 -1.40669e-16)
(0.926934 -9.53737e-16 7.7043e-18)
(0.929011 -1.81886e-15 -1.38606e-16)
(0.929011 -9.58754e-16 1.09038e-17)
(0.931084 -1.80448e-15 -1.38279e-16)
(0.931084 -9.71767e-16 2.05105e-17)
(0.933155 -1.79282e-15 -1.37922e-16)
(0.933155 -9.80104e-16 2.13986e-17)
(0.935222 -1.77912e-15 -1.38118e-16)
(0.935222 -9.87574e-16 2.25914e-17)
(0.937285 -1.76014e-15 -1.38258e-16)
(0.937285 -9.98313e-16 2.01322e-17)
(0.939345 -1.74298e-15 -1.4049e-16)
(0.939345 -1.00386e-15 2.26115e-17)
(0.941402 -1.72976e-15 -1.39599e-16)
(0.941402 -1.01351e-15 2.51763e-17)
(0.943455 -1.71736e-15 -1.37907e-16)
(0.943455 -1.02817e-15 2.34063e-17)
(0.945506 -1.70767e-15 -1.36364e-16)
(0.945506 -1.02397e-15 2.11807e-17)
(0.947552 -1.69703e-15 -1.35413e-16)
(0.947552 -1.02751e-15 1.90392e-17)
(0.949596 -1.68227e-15 -1.35634e-16)
(0.949596 -1.04836e-15 1.62158e-17)
(0.951635 -1.6708e-15 -1.3498e-16)
(0.951635 -1.05128e-15 1.14303e-17)
(0.953672 -1.65486e-15 -1.3618e-16)
(0.953672 -1.05118e-15 8.07926e-18)
(0.955705 -1.63878e-15 -1.39038e-16)
(0.955705 -1.06285e-15 7.29786e-18)
(0.957735 -1.63161e-15 -1.42607e-16)
(0.957735 -1.06931e-15 3.66154e-18)
(0.959761 -1.61934e-15 -1.42796e-16)
(0.959761 -1.06489e-15 -1.52065e-18)
(0.961784 -1.60429e-15 -1.40425e-16)
(0.961784 -1.07262e-15 -6.60263e-18)
(0.963803 -1.59126e-15 -1.38974e-16)
(0.963803 -1.08073e-15 -1.03668e-17)
(0.965818 -1.58262e-15 -1.37101e-16)
(0.965818 -1.07908e-15 -1.53694e-17)
(0.967831 -1.57723e-15 -1.35243e-16)
(0.967831 -1.08377e-15 -2.12766e-17)
(0.969839 -1.57118e-15 -1.32805e-16)
(0.969839 -1.09545e-15 -2.49765e-17)
(0.971844 -1.55815e-15 -1.31283e-16)
(0.971844 -1.09455e-15 -2.8945e-17)
(0.973845 -1.54017e-15 -1.30855e-16)
(0.973845 -1.09723e-15 -3.1871e-17)
(0.975842 -1.53211e-15 -1.31565e-16)
(0.975842 -1.11139e-15 -3.61375e-17)
(0.977836 -1.5178e-15 -1.31447e-16)
(0.977836 -1.10982e-15 -3.89541e-17)
(0.979826 -1.50462e-15 -1.31773e-16)
(0.979826 -1.11145e-15 -3.86397e-17)
(0.981812 -1.49939e-15 -1.313e-16)
(0.981812 -1.11015e-15 -3.9384e-17)
(0.983794 -1.48382e-15 -1.29051e-16)
(0.983794 -1.10503e-15 -4.4142e-17)
(0.985771 -1.46705e-15 -1.28362e-16)
(0.985771 -1.11236e-15 -5.0543e-17)
(0.987745 -1.45631e-15 -1.27449e-16)
(0.987745 -1.10395e-15 -5.49109e-17)
(0.989715 -1.43969e-15 -1.24235e-16)
(0.989715 -1.10791e-15 -5.91123e-17)
(0.99168 -1.42413e-15 -1.23781e-16)
(0.99168 -1.11371e-15 -6.25191e-17)
(0.993642 -1.41508e-15 -1.19362e-16)
(0.993642 -1.09867e-15 -6.66684e-17)
(0.995598 -1.40481e-15 -1.1753e-16)
(0.995598 -1.0985e-15 -7.18282e-17)
(0.997551 -1.39949e-15 -1.16371e-16)
(0.997551 -1.09822e-15 -7.61486e-17)
(0.999498 -1.39591e-15 -1.16915e-16)
(0.999498 -1.11427e-15 -7.17906e-17)
(1.00144 -1.37811e-15 -1.08436e-16)
(1.00144 -1.13383e-15 -6.16729e-17)
(1.00338 -1.35595e-15 -1.01535e-16)
(1.00338 -1.11656e-15 -5.81909e-17)
(1.00531 -1.34633e-15 -9.61195e-17)
(1.00531 -1.10239e-15 -5.6253e-17)
(1.00724 -1.33245e-15 -8.61621e-17)
(1.00724 -1.09559e-15 -5.50573e-17)
(1.00916 -1.3031e-15 -7.15358e-17)
(1.00916 -1.093e-15 -5.76042e-17)
(1.01108 -1.27586e-15 -6.64083e-17)
(1.01108 -1.09773e-15 -5.22835e-17)
(1.01299 -1.26329e-15 -6.54145e-17)
(1.01299 -1.08853e-15 -5.3427e-17)
(1.0149 -1.26032e-15 -6.48251e-17)
(1.0149 -1.0847e-15 -5.12518e-17)
(1.0168 -1.2594e-15 -6.96366e-17)
(1.0168 -1.07809e-15 -5.14256e-17)
(1.0187 -1.24274e-15 -6.63994e-17)
(1.0187 -1.0808e-15 -5.54587e-17)
(1.02059 -1.22938e-15 -7.01847e-17)
(1.02059 -1.07865e-15 -5.27043e-17)
(1.02247 -1.22154e-15 -7.49652e-17)
(1.02247 -1.07181e-15 -5.44193e-17)
(1.02435 -1.20137e-15 -7.3221e-17)
(1.02435 -1.06834e-15 -5.92321e-17)
(1.02622 -1.1896e-15 -7.76624e-17)
(1.02622 -1.07726e-15 -7.24021e-17)
(1.02808 -1.18198e-15 -8.79616e-17)
(1.02808 -1.09435e-15 -8.31975e-17)
(1.02994 -1.17752e-15 -9.82037e-17)
(1.02994 -1.11334e-15 -8.26142e-17)
(1.03179 -1.18528e-15 -9.80405e-17)
(1.03179 -1.12061e-15 -8.8005e-17)
(1.03363 -1.2076e-15 -9.63588e-17)
(1.03363 -1.11034e-15 -9.66877e-17)
(1.03547 -1.20692e-15 -9.04538e-17)
(1.03547 -1.11779e-15 -1.11209e-16)
(1.03729 -1.19287e-15 -8.56012e-17)
(1.03729 -1.12759e-15 -1.19261e-16)
(1.03911 -1.1844e-15 -9.17978e-17)
(1.03911 -1.12093e-15 -1.21338e-16)
(1.04092 -1.19003e-15 -9.33582e-17)
(1.04092 -1.12461e-15 -1.25467e-16)
(1.04272 -1.16553e-15 -8.58263e-17)
(1.04272 -1.12355e-15 -1.30879e-16)
(1.04452 -1.12902e-15 -8.57268e-17)
(1.04452 -1.13819e-15 -1.39663e-16)
(1.0463 -1.12078e-15 -8.93693e-17)
(1.0463 -1.16828e-15 -1.34179e-16)
(1.04807 -1.1173e-15 -8.86713e-17)
(1.04807 -1.16941e-15 -1.38412e-16)
(1.04984 -1.12593e-15 -8.83142e-17)
(1.04984 -1.15158e-15 -1.36098e-16)
(1.05159 -1.14621e-15 -7.99837e-17)
(1.05159 -1.13025e-15 -1.3786e-16)
(1.05333 -1.13632e-15 -7.95765e-17)
(1.05333 -1.13052e-15 -1.34036e-16)
(1.05507 -1.09567e-15 -6.96316e-17)
(1.05507 -1.12304e-15 -1.34816e-16)
(1.05679 -1.07745e-15 -8.3904e-17)
(1.05679 -1.12551e-15 -1.33665e-16)
(1.05849 -1.09013e-15 -9.82906e-17)
(1.05849 -1.1226e-15 -1.28439e-16)
(1.06019 -1.10918e-15 -1.01995e-16)
(1.06019 -1.10425e-15 -1.17806e-16)
(1.06187 -1.12442e-15 -1.01828e-16)
(1.06187 -1.09142e-15 -1.05263e-16)
(1.06354 -1.10162e-15 -8.8273e-17)
(1.06354 -1.09516e-15 -9.45054e-17)
(1.0652 -1.07724e-15 -9.40365e-17)
(1.0652 -1.1029e-15 -8.81877e-17)
(1.06684 -1.07191e-15 -1.0051e-16)
(1.06684 -1.11972e-15 -8.40988e-17)
(1.06846 -1.05528e-15 -1.08061e-16)
(1.06846 -1.12011e-15 -7.93182e-17)
(1.07007 -1.03299e-15 -1.20321e-16)
(1.07007 -1.10366e-15 -6.59975e-17)
(1.07167 -1.03725e-15 -1.20716e-16)
(1.07167 -1.10481e-15 -4.9046e-17)
(1.07324 -1.05587e-15 -1.12276e-16)
(1.07324 -1.10044e-15 -5.34929e-17)
(1.0748 -1.02242e-15 -1.1e-16)
(1.0748 -1.03437e-15 -5.05984e-17)
(1.07634 -1.02796e-15 -1.04597e-16)
(1.07634 -9.94644e-16 -3.73236e-17)
(1.07786 -1.04155e-15 -5.86526e-17)
(1.07786 -9.66205e-16 -4.27112e-17)
(1.07936 -1.00602e-15 -3.79072e-17)
(1.07936 -9.54161e-16 -5.02118e-17)
(1.08084 -9.91881e-16 -3.51007e-17)
(1.08084 -9.3236e-16 -4.07263e-17)
(1.08229 -9.50356e-16 -1.56443e-17)
(1.08229 -8.78682e-16 -6.34274e-17)
(1.08372 -9.14196e-16 -2.58505e-17)
(1.08372 -9.54418e-16 -5.75654e-17)
(1.08513 -9.0071e-16 -2.5417e-17)
(1.08513 -9.3259e-16 -6.04243e-17)
(1.08651 -9.0427e-16 -5.09119e-17)
(1.08651 -9.01191e-16 -4.09824e-17)
(1.08787 -8.6507e-16 -6.98906e-17)
(1.08787 -8.62157e-16 -4.15399e-17)
(1.08919 -7.65209e-16 -1.09221e-16)
(1.08919 -8.09268e-16 -5.06101e-17)
(1.09049 -8.35728e-16 -1.03749e-16)
(1.09049 -8.26469e-16 -4.62522e-17)
(1.09175 -7.75718e-16 -1.09283e-16)
(1.09175 -8.52361e-16 -4.63376e-17)
(1.09298 -8.11346e-16 -1.00839e-16)
(1.09298 -7.93494e-16 -4.67385e-17)
(1.09417 -7.96963e-16 -1.0928e-16)
(1.09417 -7.74574e-16 -3.66903e-17)
(1.09533 -7.79498e-16 -9.30755e-17)
(1.09533 -7.66319e-16 -4.82523e-17)
(1.09645 -7.32668e-16 -9.66455e-17)
(1.09645 -7.65863e-16 -4.65868e-17)
(1.09753 -6.80123e-16 -1.26264e-16)
(1.09753 -7.35092e-16 -4.64995e-17)
(1.09856 -7.33146e-16 -1.17978e-16)
(1.09856 -7.11893e-16 -6.94954e-17)
(1.09955 -6.90013e-16 -1.05313e-16)
(1.09955 -7.00894e-16 -7.48363e-17)
(1.10049 -7.01998e-16 -8.68486e-17)
(1.10049 -6.3427e-16 -7.91942e-17)
(1.10138 -6.47694e-16 -7.90564e-17)
(1.10138 -6.23153e-16 -6.00213e-17)
(1.10222 -6.07983e-16 -4.98451e-17)
(1.10222 -5.98589e-16 -5.50925e-17)
(1.10299 -5.934e-16 -3.40652e-17)
(1.10299 -5.80553e-16 -4.43153e-17)
(1.10371 -5.61128e-16 -4.32708e-17)
(1.10371 -5.84883e-16 -5.6017e-17)
(1.10436 -5.64519e-16 -2.2753e-17)
(1.10436 -5.65119e-16 -5.69358e-17)
(1.10495 -5.34954e-16 -6.22735e-17)
(1.10495 -5.43072e-16 -6.13164e-17)
(1.10546 -4.89905e-16 -8.88394e-17)
(1.10546 -5.69305e-16 -8.38606e-17)
(1.1059 -5.4013e-16 -9.21179e-17)
(1.1059 -5.19141e-16 -8.94952e-17)
(1.10626 -5.18046e-16 -1.04306e-16)
(1.10626 -5.06435e-16 -6.87986e-17)
(1.10653 -4.71624e-16 -1.15433e-16)
(1.10653 -4.72818e-16 -8.09077e-17)
(1.10672 -4.47691e-16 -8.92862e-17)
(1.10672 -4.54148e-16 -9.65147e-17)
(1.10682 -4.07537e-16 -6.72056e-17)
(1.10682 -3.98964e-16 -8.22559e-17)
(0.0037164 -1.9864e-19 1.35832e-17)
(0.0037164 -9.98824e-20 -2.33305e-18)
(0.0112021 -4.84186e-19 4.12416e-17)
(0.0112021 -1.39082e-19 -2.77211e-17)
(0.0187956 -1.30817e-18 4.24487e-17)
(0.0187956 -4.57829e-19 -2.85335e-17)
(0.0264983 -2.0796e-18 4.36904e-17)
(0.0264983 -7.36588e-19 -2.93717e-17)
(0.0343119 -2.8548e-18 4.49674e-17)
(0.0343119 -1.04439e-18 -3.02361e-17)
(0.0422379 -3.66197e-18 4.62814e-17)
(0.0422379 -1.36618e-18 -3.11277e-17)
(0.0502778 -4.52995e-18 4.76325e-17)
(0.0502778 -1.67951e-18 -3.20468e-17)
(0.0584332 -5.42762e-18 4.90217e-17)
(0.0584332 -1.99033e-18 -3.29948e-17)
(0.0667058 -6.34164e-18 5.04494e-17)
(0.0667058 -2.34447e-18 -3.39728e-17)
(0.0750967 -7.26539e-18 5.19158e-17)
(0.0750967 -2.7183e-18 -3.49792e-17)
(0.0836075 -8.23394e-18 5.34217e-17)
(0.0836075 -3.09019e-18 -3.6016e-17)
(0.0922392 -9.26138e-18 5.49656e-17)
(0.0922392 -3.50485e-18 -3.70819e-17)
(0.100993 -1.03235e-17 5.65465e-17)
(0.100993 -3.9333e-18 -3.81764e-17)
(0.109868 -1.14947e-17 5.81626e-17)
(0.109868 -4.31973e-18 -3.92991e-17)
(0.118866 -1.27278e-17 5.98092e-17)
(0.118866 -4.71111e-18 -4.04454e-17)
(0.127986 -1.39551e-17 6.14828e-17)
(0.127986 -5.14831e-18 -4.16156e-17)
(0.137225 -1.52263e-17 6.31774e-17)
(0.137225 -5.51146e-18 -4.28058e-17)
(0.146582 -1.65777e-17 6.48836e-17)
(0.146582 -5.93582e-18 -4.4009e-17)
(0.156053 -1.79729e-17 6.65927e-17)
(0.156053 -6.44134e-18 -4.52204e-17)
(0.165633 -1.92898e-17 6.82938e-17)
(0.165633 -6.97176e-18 -4.64294e-17)
(0.175315 -2.06427e-17 6.9975e-17)
(0.175315 -7.53415e-18 -4.76285e-17)
(0.18509 -2.21029e-17 7.16204e-17)
(0.18509 -8.13717e-18 -4.88056e-17)
(0.194949 -2.34776e-17 7.32133e-17)
(0.194949 -8.83651e-18 -4.99538e-17)
(0.204878 -2.48884e-17 7.47373e-17)
(0.204878 -9.59742e-18 -5.10591e-17)
(0.214864 -2.6402e-17 7.61707e-17)
(0.214864 -1.02926e-17 -5.21078e-17)
(0.22489 -2.79819e-17 7.74967e-17)
(0.22489 -1.09726e-17 -5.30824e-17)
(0.234938 -2.96402e-17 7.87003e-17)
(0.234938 -1.17839e-17 -5.39762e-17)
(0.244989 -3.12826e-17 7.97649e-17)
(0.244989 -1.25416e-17 -5.47797e-17)
(0.255022 -3.29202e-17 8.06781e-17)
(0.255022 -1.3328e-17 -5.54893e-17)
(0.265018 -3.45956e-17 8.14319e-17)
(0.265018 -1.44099e-17 -5.60954e-17)
(0.274955 -3.63585e-17 8.20225e-17)
(0.274955 -1.54339e-17 -5.65906e-17)
(0.284814 -3.81139e-17 8.24491e-17)
(0.284814 -1.63808e-17 -5.69678e-17)
(0.294574 -3.98695e-17 8.27185e-17)
(0.294574 -1.74049e-17 -5.72432e-17)
(0.304219 -4.17358e-17 8.28338e-17)
(0.304219 -1.84632e-17 -5.7417e-17)
(0.313732 -4.37377e-17 8.28022e-17)
(0.313732 -1.92295e-17 -5.74958e-17)
(0.323099 -4.56191e-17 8.26342e-17)
(0.323099 -2.01702e-17 -5.74893e-17)
(0.332309 -4.74425e-17 8.23482e-17)
(0.332309 -2.12536e-17 -5.7401e-17)
(0.341352 -4.9353e-17 8.19608e-17)
(0.341352 -2.2502e-17 -5.72523e-17)
(0.350221 -5.09291e-17 8.14834e-17)
(0.350221 -2.40164e-17 -5.70428e-17)
(0.358909 -5.24585e-17 8.09384e-17)
(0.358909 -2.51668e-17 -5.67838e-17)
(0.367414 -5.39698e-17 8.03357e-17)
(0.367414 -2.60482e-17 -5.6485e-17)
(0.375732 -5.56083e-17 7.96903e-17)
(0.375732 -2.71874e-17 -5.61645e-17)
(0.383865 -5.76317e-17 7.90093e-17)
(0.383865 -2.82957e-17 -5.58356e-17)
(0.391812 -5.97525e-17 7.82956e-17)
(0.391812 -2.89213e-17 -5.54884e-17)
(0.399575 -6.16891e-17 7.75626e-17)
(0.399575 -3.01106e-17 -5.51312e-17)
(0.407158 -6.32975e-17 7.68227e-17)
(0.407158 -3.08215e-17 -5.47742e-17)
(0.414563 -6.51131e-17 7.60803e-17)
(0.414563 -3.15134e-17 -5.44213e-17)
(0.421795 -6.71961e-17 7.53437e-17)
(0.421795 -3.28688e-17 -5.40909e-17)
(0.428857 -6.91965e-17 7.46171e-17)
(0.428857 -3.39932e-17 -5.37808e-17)
(0.435756 -7.11477e-17 7.39085e-17)
(0.435756 -3.475e-17 -5.34901e-17)
(0.442495 -7.3153e-17 7.322e-17)
(0.442495 -3.57589e-17 -5.32186e-17)
(0.449081 -7.50823e-17 7.25592e-17)
(0.449081 -3.68819e-17 -5.29681e-17)
(0.455517 -7.6873e-17 7.19221e-17)
(0.455517 -3.82091e-17 -5.27492e-17)
(0.46181 -7.86549e-17 7.13128e-17)
(0.46181 -3.96665e-17 -5.25463e-17)
(0.467964 -8.05005e-17 7.07332e-17)
(0.467964 -4.03268e-17 -5.23745e-17)
(0.473985 -8.22086e-17 7.01757e-17)
(0.473985 -4.10068e-17 -5.22469e-17)
(0.479877 -8.39292e-17 6.96325e-17)
(0.479877 -4.21161e-17 -5.21471e-17)
(0.485646 -8.57348e-17 6.91167e-17)
(0.485646 -4.30052e-17 -5.20765e-17)
(0.491295 -8.71838e-17 6.86158e-17)
(0.491295 -4.40514e-17 -5.20421e-17)
(0.49683 -8.84343e-17 6.81304e-17)
(0.49683 -4.51233e-17 -5.20452e-17)
(0.502254 -8.99101e-17 6.76656e-17)
(0.502254 -4.63286e-17 -5.20862e-17)
(0.507573 -9.16754e-17 6.72275e-17)
(0.507573 -4.7547e-17 -5.21398e-17)
(0.51279 -9.3332e-17 6.68203e-17)
(0.51279 -4.87057e-17 -5.22328e-17)
(0.517909 -9.46984e-17 6.64362e-17)
(0.517909 -4.98283e-17 -5.23662e-17)
(0.522934 -9.64273e-17 6.60805e-17)
(0.522934 -5.08051e-17 -5.25287e-17)
(0.527868 -9.87366e-17 6.57469e-17)
(0.527868 -5.20473e-17 -5.27442e-17)
(0.532715 -1.01393e-16 6.54246e-17)
(0.532715 -5.25909e-17 -5.29602e-17)
(0.537479 -1.03857e-16 6.51181e-17)
(0.537479 -5.28263e-17 -5.32576e-17)
(0.542161 -1.05916e-16 6.48049e-17)
(0.542161 -5.3477e-17 -5.35951e-17)
(0.546766 -1.07466e-16 6.44795e-17)
(0.546766 -5.48937e-17 -5.39157e-17)
(0.551296 -1.08809e-16 6.418e-17)
(0.551296 -5.63257e-17 -5.42921e-17)
(0.555754 -1.10265e-16 6.38692e-17)
(0.555754 -5.74934e-17 -5.46799e-17)
(0.560142 -1.11971e-16 6.35711e-17)
(0.560142 -5.88304e-17 -5.50779e-17)
(0.564463 -1.134e-16 6.32849e-17)
(0.564463 -5.97704e-17 -5.55255e-17)
(0.56872 -1.14843e-16 6.30204e-17)
(0.56872 -6.10294e-17 -5.60188e-17)
(0.572915 -1.16734e-16 6.27612e-17)
(0.572915 -6.29733e-17 -5.65297e-17)
(0.577049 -1.18301e-16 6.25204e-17)
(0.577049 -6.42358e-17 -5.7033e-17)
(0.581126 -1.1968e-16 6.22931e-17)
(0.581126 -6.57665e-17 -5.75846e-17)
(0.585146 -1.21783e-16 6.20801e-17)
(0.585146 -6.67784e-17 -5.81752e-17)
(0.589113 -1.23417e-16 6.18457e-17)