/*--------------------------------*- C++ -*----------------------------------*\
| =========                 |                                                 |
| \\      /  F ield         | OpenFOAM: The Open Source CFD Toolbox           |
|  \\    /   O peration     | Version:  2106                                  |
|   \\  /    A nd           | Website:  www.openfoam.com                      |
|    \\/     M anipulation  |                                                 |
\*---------------------------------------------------------------------------*/
FoamFile
{
    version     2.0;
    format      ascii;
    arch        "LSB;label=32;scalar=64";
    class       volScalarField;
    location    "19000";
    object      p;
}
// * * * * * * * * * * * * * * * * * * * * * * * * * * * * * * * * * * * * * //

dimensions      [0 2 -2 0 0 0 0];

internalField   nonuniform List<scalar> 
2560
(
1.60377e-15
2.77185e-14
3.40109e-15
2.77182e-14
3.71162e-15
2.77178e-14
3.62597e-15
2.77173e-14
3.61385e-15
2.77167e-14
3.64249e-15
2.77159e-14
3.67083e-15
2.7715e-14
3.69366e-15
2.77139e-14
3.71485e-15
2.77126e-14
3.73593e-15
2.77112e-14
3.75699e-15
2.77095e-14
3.77799e-15
2.77077e-14
3.799e-15
2.77057e-14
3.82003e-15
2.77035e-14
3.84101e-15
2.77012e-14
3.86198e-15
2.76987e-14
3.88298e-15
2.76959e-14
3.90401e-15
2.7693e-14
3.92504e-15
2.76899e-14
3.94627e-15
2.76866e-14
3.96755e-15
2.76831e-14
3.98887e-15
2.76794e-14
4.01029e-15
2.76755e-14
4.032e-15
2.76713e-14
4.05382e-15
2.7667e-14
4.07573e-15
2.76624e-14
4.09785e-15
2.76576e-14
4.12034e-15
2.76526e-14
4.1432e-15
2.76475e-14
4.16636e-15
2.7642e-14
4.18987e-15
2.76363e-14
4.21368e-15
2.76302e-14
4.23797e-15
2.76239e-14
4.26284e-15
2.76174e-14
4.28824e-15
2.76107e-14
4.31417e-15
2.76038e-14
4.34064e-15
2.75963e-14
4.36779e-15
2.75887e-14
4.39563e-15
2.75808e-14
4.42421e-15
2.75725e-14
4.45338e-15
2.75641e-14
4.48336e-15
2.75555e-14
4.51406e-15
2.75467e-14
4.54554e-15
2.75377e-14
4.57799e-15
2.75283e-14
4.61135e-15
2.75185e-14
4.64544e-15
2.75086e-14
4.6808e-15
2.74986e-14
4.71682e-15
2.74885e-14
4.75371e-15
2.7478e-14
4.79172e-15
2.74676e-14
4.83052e-15
2.7457e-14
4.86987e-15
2.74461e-14
4.91012e-15
2.74352e-14
4.95091e-15
2.74247e-14
4.99271e-15
2.7414e-14
5.03551e-15
2.74034e-14
5.07971e-15
2.73923e-14
5.12451e-15
2.7381e-14
5.16991e-15
2.73699e-14
5.21613e-15
2.73589e-14
5.26345e-15
2.73482e-14
5.31127e-15
2.73368e-14
5.36015e-15
2.73253e-14
5.40976e-15
2.73147e-14
5.45948e-15
2.73038e-14
5.51047e-15
2.72923e-14
5.56302e-15
2.72806e-14
5.6168e-15
2.72687e-14
5.6718e-15
2.72572e-14
5.72668e-15
2.72456e-14
5.78269e-15
2.72335e-14
5.84047e-15
2.72203e-14
5.89967e-15
2.72071e-14
5.96025e-15
2.71935e-14
6.02218e-15
2.71795e-14
6.08435e-15
2.71649e-14
6.14885e-15
2.71496e-14
6.21495e-15
2.71341e-14
6.2826e-15
2.71184e-14
6.34949e-15
2.71033e-14
6.41743e-15
2.70851e-14
6.48752e-15
2.7066e-14
6.55698e-15
2.70481e-14
6.6265e-15
2.70318e-14
6.69718e-15
2.70149e-14
6.76815e-15
2.69977e-14
6.84014e-15
2.69784e-14
6.91389e-15
2.69593e-14
6.98851e-15
2.69415e-14
7.06391e-15
2.69225e-14
7.14e-15
2.6904e-14
7.21496e-15
2.68879e-14
7.29039e-15
2.68717e-14
7.36707e-15
2.68536e-14
7.44313e-15
2.68347e-14
7.52024e-15
2.68195e-14
7.59465e-15
2.68064e-14
7.66804e-15
2.67918e-14
7.74301e-15
2.67748e-14
7.81852e-15
2.67575e-14
7.89446e-15
2.67398e-14
7.9688e-15
2.6722e-14
8.04327e-15
2.67059e-14
8.12061e-15
2.66909e-14
8.19781e-15
2.66751e-14
8.27374e-15
2.66595e-14
8.35018e-15
2.66444e-14
8.42698e-15
2.66268e-14
8.50298e-15
2.6612e-14
8.579e-15
2.65979e-14
8.65386e-15
2.65848e-14
8.72734e-15
2.65699e-14
8.8013e-15
2.65562e-14
8.87761e-15
2.6541e-14
8.95507e-15
2.65253e-14
9.03036e-15
2.65093e-14
9.10744e-15
2.64932e-14
9.18085e-15
2.64782e-14
9.25563e-15
2.64645e-14
9.33265e-15
2.64449e-14
9.40311e-15
2.6428e-14
9.47318e-15
2.64131e-14
9.54804e-15
2.63959e-14
9.62312e-15
2.63789e-14
9.69818e-15
2.63645e-14
9.77075e-15
2.63529e-14
9.84495e-15
2.63377e-14
9.92276e-15
2.63169e-14
9.99499e-15
2.62929e-14
1.00658e-14
2.62727e-14
1.01371e-14
2.62566e-14
1.0211e-14
2.62312e-14
1.0287e-14
2.62014e-14
1.03603e-14
2.61718e-14
1.0433e-14
2.61427e-14
1.05115e-14
2.61076e-14
1.05864e-14
2.60735e-14
1.06688e-14
2.60431e-14
1.07492e-14
2.60074e-14
1.08156e-14
2.59666e-14
1.08886e-14
2.59304e-14
1.0963e-14
2.58967e-14
1.10293e-14
2.58588e-14
1.10963e-14
2.58241e-14
1.11659e-14
2.57882e-14
1.12379e-14
2.57514e-14
1.13071e-14
2.57165e-14
1.13729e-14
2.56766e-14
1.14493e-14
2.56297e-14
1.15239e-14
2.55784e-14
1.16059e-14
2.55328e-14
1.16877e-14
2.54907e-14
1.17712e-14
2.54453e-14
1.18439e-14
2.53945e-14
1.19149e-14
2.53362e-14
1.19935e-14
2.52757e-14
1.20793e-14
2.52278e-14
1.2167e-14
2.51833e-14
1.22461e-14
2.51278e-14
1.23261e-14
2.50665e-14
1.23991e-14
2.50121e-14
1.24743e-14
2.49601e-14
1.25636e-14
2.49034e-14
1.26517e-14
2.48376e-14
1.27479e-14
2.47677e-14
1.28518e-14
2.46942e-14
1.29481e-14
2.46223e-14
1.30463e-14
2.45472e-14
1.31408e-14
2.44743e-14
1.32362e-14
2.44088e-14
1.33418e-14
2.43361e-14
1.34424e-14
2.42615e-14
1.35374e-14
2.41852e-14
1.36313e-14
2.41126e-14
1.37235e-14
2.40288e-14
1.38137e-14
2.39441e-14
1.39063e-14
2.38589e-14
1.40009e-14
2.37832e-14
1.40918e-14
2.37175e-14
1.41837e-14
2.36419e-14
1.42811e-14
2.35666e-14
1.43733e-14
2.3487e-14
1.44699e-14
2.34182e-14
1.45706e-14
2.33454e-14
1.46697e-14
2.32688e-14
1.4777e-14
2.31836e-14
1.48718e-14
2.30999e-14
1.4979e-14
2.30129e-14
1.50731e-14
2.29375e-14
1.51737e-14
2.2869e-14
1.52755e-14
2.27873e-14
1.5373e-14
2.27026e-14
1.54761e-14
2.26351e-14
1.55743e-14
2.25746e-14
1.56773e-14
2.24861e-14
1.57748e-14
2.24098e-14
1.58765e-14
2.23657e-14
1.5982e-14
2.23087e-14
1.60861e-14
2.22388e-14
1.61984e-14
2.21862e-14
1.62886e-14
2.21407e-14
1.63865e-14
2.20824e-14
1.64818e-14
2.20162e-14
1.65693e-14
2.1952e-14
1.66587e-14
2.18997e-14
1.67498e-14
2.18491e-14
1.68324e-14
2.17903e-14
1.69262e-14
2.17332e-14
1.70211e-14
2.16775e-14
1.70972e-14
2.16428e-14
1.71739e-14
2.15896e-14
1.72511e-14
2.15078e-14
1.73387e-14
2.14465e-14
1.74268e-14
2.13953e-14
1.75053e-14
2.13638e-14
1.7584e-14
2.13026e-14
1.76629e-14
2.1231e-14
1.77324e-14
2.11681e-14
1.78024e-14
2.1133e-14
1.78726e-14
2.10669e-14
1.7953e-14
2.09887e-14
1.80247e-14
2.09364e-14
1.80976e-14
2.08996e-14
1.81716e-14
2.0839e-14
1.82376e-14
2.07539e-14
1.83056e-14
2.06911e-14
1.83572e-14
2.065e-14
1.84209e-14
2.06299e-14
1.84777e-14
2.05922e-14
1.85468e-14
2.05361e-14
1.86099e-14
2.0499e-14
1.86674e-14
2.04989e-14
1.87478e-14
2.04597e-14
1.88143e-14
2.04085e-14
1.88867e-14
2.04005e-14
1.8975e-14
2.03877e-14
1.90423e-14
2.0388e-14
1.91079e-14
2.03634e-14
1.91822e-14
2.03594e-14
1.92565e-14
2.03749e-14
1.93131e-14
2.03628e-14
1.93801e-14
2.03503e-14
1.9431e-14
2.03728e-14
1.95022e-14
2.0384e-14
1.95758e-14
2.04197e-14
1.96519e-14
2.04434e-14
1.97312e-14
2.04364e-14
1.97608e-14
2.04153e-14
1.98136e-14
2.04147e-14
1.98901e-14
2.04152e-14
1.99559e-14
2.04513e-14
2.00114e-14
2.04691e-14
2.00576e-14
2.05207e-14
2.00761e-14
2.05357e-14
2.01189e-14
2.04964e-14
2.01526e-14
2.04702e-14
2.02131e-14
2.04549e-14
2.02493e-14
2.04823e-14
2.02791e-14
2.04829e-14
2.03206e-14
2.04729e-14
2.03398e-14
2.04674e-14
2.0354e-14
2.04486e-14
2.03978e-14
2.04491e-14
2.04216e-14
2.04834e-14
2.04755e-14
2.05008e-14
2.04766e-14
2.05168e-14
2.05238e-14
2.05152e-14
2.05853e-14
2.05436e-14
2.05965e-14
2.06e-14
2.06212e-14
2.06367e-14
2.05936e-14
2.06702e-14
2.06079e-14
2.06544e-14
2.06649e-14
2.0685e-14
2.0734e-14
2.07754e-14
2.07983e-14
2.08154e-14
2.08123e-14
2.08042e-14
2.07928e-14
2.0819e-14
2.08309e-14
2.08456e-14
2.08645e-14
2.093e-14
2.09541e-14
2.0982e-14
2.098e-14
2.10009e-14
2.1019e-14
2.09875e-14
2.10431e-14
2.09987e-14
2.10833e-14
2.10777e-14
2.11232e-14
2.11515e-14
2.11464e-14
2.1164e-14
2.12269e-14
2.11885e-14
2.12644e-14
2.12499e-14
2.12869e-14
2.13211e-14
2.1349e-14
2.13477e-14
2.1366e-14
2.13557e-14
2.1479e-14
2.13992e-14
2.14423e-14
2.14433e-14
2.14179e-14
2.14933e-14
2.14536e-14
2.1529e-14
2.15206e-14
2.15253e-14
2.14336e-14
2.15047e-14
2.14523e-14
2.15543e-14
2.13883e-14
2.14917e-14
2.13455e-14
2.14502e-14
2.1319e-14
2.14553e-14
2.13561e-14
2.14595e-14
2.13863e-14
2.14607e-14
2.13379e-14
2.14554e-14
2.14572e-14
2.14492e-14
2.14867e-14
2.15016e-14
2.15277e-14
2.14917e-14
2.15625e-14
2.15129e-14
2.15906e-14
2.15399e-14
2.15663e-14
2.15737e-14
2.15054e-14
2.15731e-14
2.15373e-14
2.15951e-14
2.155e-14
2.16179e-14
2.15423e-14
2.15974e-14
2.15629e-14
2.15796e-14
2.15694e-14
2.15803e-14
2.15882e-14
2.15997e-14
2.15982e-14
2.15941e-14
2.16026e-14
2.1606e-14
2.11484e-14
2.26553e-14
2.11483e-14
2.26553e-14
2.11482e-14
2.26552e-14
2.11481e-14
2.26551e-14
2.1148e-14
2.2655e-14
2.11478e-14
2.26548e-14
2.11476e-14
2.26546e-14
2.11473e-14
2.26544e-14
2.11471e-14
2.26541e-14
2.11468e-14
2.26537e-14
2.11464e-14
2.26534e-14
2.11461e-14
2.26529e-14
2.11457e-14
2.26525e-14
2.11453e-14
2.2652e-14
2.11448e-14
2.26515e-14
2.11444e-14
2.26509e-14
2.11439e-14
2.26503e-14
2.11434e-14
2.26496e-14
2.1143e-14
2.26487e-14
2.11424e-14
2.26478e-14
2.1142e-14
2.26469e-14
2.11414e-14
2.26459e-14
2.11409e-14
2.26449e-14
2.11403e-14
2.26439e-14
2.11397e-14
2.26427e-14
2.1139e-14
2.26415e-14
2.11383e-14
2.26403e-14
2.11376e-14
2.26391e-14
2.11369e-14
2.26378e-14
2.11363e-14
2.26363e-14
2.11357e-14
2.26345e-14
2.1135e-14
2.26328e-14
2.11344e-14
2.2631e-14
2.11338e-14
2.26291e-14
2.11331e-14
2.26269e-14
2.11325e-14
2.26247e-14
2.1132e-14
2.26222e-14
2.11313e-14
2.26197e-14
2.11307e-14
2.26168e-14
2.113e-14
2.26139e-14
2.11292e-14
2.2611e-14
2.11282e-14
2.26083e-14
2.11273e-14
2.26054e-14
2.11264e-14
2.26022e-14
2.11255e-14
2.25991e-14
2.11244e-14
2.25959e-14
2.11235e-14
2.25926e-14
2.11224e-14
2.25895e-14
2.11215e-14
2.25857e-14
2.11203e-14
2.25818e-14
2.11192e-14
2.25778e-14
2.11179e-14
2.25736e-14
2.11169e-14
2.25692e-14
2.11157e-14
2.25645e-14
2.11145e-14
2.25599e-14
2.11132e-14
2.25552e-14
2.1112e-14
2.255e-14
2.11108e-14
2.25448e-14
2.11096e-14
2.25395e-14
2.11085e-14
2.25336e-14
2.11071e-14
2.25276e-14
2.11058e-14
2.25217e-14
2.11039e-14
2.25166e-14
2.11021e-14
2.25097e-14
2.11006e-14
2.25031e-14
2.10998e-14
2.24965e-14
2.10988e-14
2.24889e-14
2.10975e-14
2.24822e-14
2.10961e-14
2.24743e-14
2.1095e-14
2.24655e-14
2.10938e-14
2.24568e-14
2.10933e-14
2.24482e-14
2.10926e-14
2.24396e-14
2.10921e-14
2.24308e-14
2.10911e-14
2.24216e-14
2.10902e-14
2.24115e-14
2.10896e-14
2.24015e-14
2.10894e-14
2.23911e-14
2.10896e-14
2.23801e-14
2.10884e-14
2.23691e-14
2.10883e-14
2.23589e-14
2.10884e-14
2.23484e-14
2.10889e-14
2.23379e-14
2.10892e-14
2.23279e-14
2.10899e-14
2.23172e-14
2.10901e-14
2.23061e-14
2.10887e-14
2.22972e-14
2.10868e-14
2.22862e-14
2.10844e-14
2.22766e-14
2.10833e-14
2.22666e-14
2.10827e-14
2.22562e-14
2.10807e-14
2.22472e-14
2.10784e-14
2.22378e-14
2.10757e-14
2.22263e-14
2.10726e-14
2.22171e-14
2.10701e-14
2.22092e-14
2.10672e-14
2.22036e-14
2.10649e-14
2.21968e-14
2.10641e-14
2.21869e-14
2.10621e-14
2.21774e-14
2.10618e-14
2.21703e-14
2.10594e-14
2.21628e-14
2.10586e-14
2.21568e-14
2.10596e-14
2.21503e-14
2.10575e-14
2.21444e-14
2.10583e-14
2.2137e-14
2.1056e-14
2.21302e-14
2.10537e-14
2.21258e-14
2.10533e-14
2.2117e-14
2.10539e-14
2.21096e-14
2.10535e-14
2.21048e-14
2.10522e-14
2.20995e-14
2.10509e-14
2.20926e-14
2.10519e-14
2.20851e-14
2.1053e-14
2.20791e-14
2.10554e-14
2.20747e-14
2.10518e-14
2.20685e-14
2.10505e-14
2.20618e-14
2.10475e-14
2.20598e-14
2.10448e-14
2.20549e-14
2.10436e-14
2.20473e-14
2.10429e-14
2.2038e-14
2.10426e-14
2.20301e-14
2.10429e-14
2.20258e-14
2.10438e-14
2.20229e-14
2.10476e-14
2.20215e-14
2.10455e-14
2.20194e-14
2.1042e-14
2.20187e-14
2.10392e-14
2.20172e-14
2.10418e-14
2.20105e-14
2.10386e-14
2.20119e-14
2.10363e-14
2.20147e-14
2.10351e-14
2.20121e-14
2.10327e-14
2.20087e-14
2.10315e-14
2.20113e-14
2.10337e-14
2.20107e-14
2.10395e-14
2.20114e-14
2.1049e-14
2.2009e-14
2.10554e-14
2.20102e-14
2.10632e-14
2.20105e-14
2.10774e-14
2.20028e-14
2.10816e-14
2.20034e-14
2.10852e-14
2.20148e-14
2.1093e-14
2.20204e-14
2.11027e-14
2.2018e-14
2.11121e-14
2.20168e-14
2.11213e-14
2.20217e-14
2.11327e-14
2.20326e-14
2.11441e-14
2.20401e-14
2.11556e-14
2.20441e-14
2.11647e-14
2.20494e-14
2.11741e-14
2.20488e-14
2.11838e-14
2.20567e-14
2.1194e-14
2.20707e-14
2.12046e-14
2.20715e-14
2.12159e-14
2.20688e-14
2.12328e-14
2.20746e-14
2.1236e-14
2.20841e-14
2.12449e-14
2.20975e-14
2.12574e-14
2.21122e-14
2.12661e-14
2.21259e-14
2.12712e-14
2.21385e-14
2.12923e-14
2.21452e-14
2.13051e-14
2.21609e-14
2.13195e-14
2.21805e-14
2.13257e-14
2.21993e-14
2.13337e-14
2.22272e-14
2.13534e-14
2.22494e-14
2.13801e-14
2.22612e-14
2.13989e-14
2.22675e-14
2.14099e-14
2.22931e-14
2.14233e-14
2.23085e-14
2.1449e-14
2.23085e-14
2.14724e-14
2.23183e-14
2.14735e-14
2.23379e-14
2.14874e-14
2.23424e-14
2.15042e-14
2.2347e-14
2.15091e-14
2.23667e-14
2.15172e-14
2.23767e-14
2.15336e-14
2.23771e-14
2.15534e-14
2.23881e-14
2.15568e-14
2.23997e-14
2.15639e-14
2.24121e-14
2.15747e-14
2.24105e-14
2.15845e-14
2.23999e-14
2.15884e-14
2.24055e-14
2.15964e-14
2.24025e-14
2.16038e-14
2.24009e-14
2.16006e-14
2.23909e-14
2.1602e-14
2.23878e-14
2.1603e-14
2.23767e-14
2.15989e-14
2.23576e-14
2.15896e-14
2.23508e-14
2.15854e-14
2.23466e-14
2.15863e-14
2.234e-14
2.15974e-14
2.23263e-14
2.16139e-14
2.23056e-14
2.16059e-14
2.23081e-14
2.16037e-14
2.22988e-14
2.16272e-14
2.2268e-14
2.16369e-14
2.22507e-14
2.16329e-14
2.22519e-14
2.16202e-14
2.22569e-14
2.16139e-14
2.22509e-14
2.1609e-14
2.22295e-14
2.15956e-14
2.22226e-14
2.15838e-14
2.22207e-14
2.15833e-14
2.21942e-14
2.15747e-14
2.21731e-14
2.15678e-14
2.21575e-14
2.15628e-14
2.21379e-14
2.15301e-14
2.21242e-14
2.1529e-14
2.20971e-14
2.15497e-14
2.20668e-14
2.15631e-14
2.20529e-14
2.15499e-14
2.20456e-14
2.15395e-14
2.20059e-14
2.15225e-14
2.19635e-14
2.15284e-14
2.19381e-14
2.15185e-14
2.19101e-14
2.15124e-14
2.187e-14
2.14912e-14
2.18469e-14
2.1484e-14
2.18317e-14
2.14812e-14
2.18052e-14
2.14927e-14
2.17868e-14
2.14899e-14
2.17768e-14
2.14633e-14
2.17178e-14
2.14713e-14
2.16581e-14
2.14664e-14
2.1645e-14
2.14587e-14
2.16307e-14
2.14293e-14
2.15963e-14
2.14162e-14
2.15424e-14
2.13819e-14
2.15542e-14
2.13544e-14
2.15566e-14
2.13328e-14
2.1541e-14
2.1317e-14
2.15366e-14
2.13254e-14
2.14969e-14
2.13022e-14
2.14871e-14
2.12845e-14
2.14889e-14
2.12625e-14
2.14937e-14
2.12447e-14
2.14839e-14
2.12399e-14
2.14784e-14
2.12386e-14
2.14685e-14
2.12499e-14
2.14913e-14
2.12646e-14
2.15014e-14
2.13098e-14
2.1472e-14
2.12959e-14
2.14562e-14
2.13137e-14
2.14722e-14
2.13085e-14
2.15023e-14
2.13158e-14
2.15122e-14
2.13174e-14
2.14846e-14
2.13314e-14
2.14732e-14
2.13226e-14
2.15128e-14
2.13429e-14
2.15339e-14
2.13742e-14
2.15723e-14
2.13643e-14
2.15937e-14
2.13997e-14
2.16005e-14
2.14465e-14
2.16106e-14
2.14188e-14
2.16066e-14
2.14027e-14
2.16069e-14
2.14661e-14
2.16127e-14
2.14908e-14
2.15717e-14
2.14797e-14
2.15507e-14
2.14845e-14
2.15668e-14
2.14877e-14
2.15873e-14
2.15057e-14
2.15795e-14
2.15224e-14
2.15598e-14
2.15399e-14
2.15605e-14
2.1559e-14
2.15649e-14
2.15634e-14
2.1589e-14
2.15532e-14
2.16172e-14
2.15431e-14
2.16189e-14
2.15173e-14
2.1595e-14
2.15079e-14
2.16271e-14
2.1544e-14
2.1653e-14
2.15456e-14
2.1672e-14
2.15588e-14
2.16694e-14
2.15689e-14
2.16459e-14
2.15787e-14
2.16469e-14
2.15265e-14
2.16874e-14
2.15299e-14
2.16789e-14
2.1556e-14
2.16515e-14
2.15928e-14
2.16477e-14
2.15972e-14
2.16661e-14
2.15839e-14
2.17081e-14
2.15933e-14
2.17317e-14
2.16086e-14
2.17376e-14
2.1704e-14
2.17556e-14
2.17234e-14
2.17664e-14
2.17265e-14
2.18267e-14
2.17955e-14
2.18538e-14
2.18473e-14
2.19032e-14
2.18558e-14
2.19485e-14
2.18434e-14
2.19934e-14
2.18352e-14
2.19878e-14
2.18592e-14
2.19593e-14
2.1919e-14
2.193e-14
2.19673e-14
2.18921e-14
2.18836e-14
2.18649e-14
2.18755e-14
2.18237e-14
2.1895e-14
2.17935e-14
2.18718e-14
2.1744e-14
2.17847e-14
2.17227e-14
2.17524e-14
2.17345e-14
2.17671e-14
2.17075e-14
2.17097e-14
2.17387e-14
2.16888e-14
2.17386e-14
2.1699e-14
2.17328e-14
2.17647e-14
2.17206e-14
2.17494e-14
2.17157e-14
2.17483e-14
2.1742e-14
2.17839e-14
2.17298e-14
2.1701e-14
2.1697e-14
2.17018e-14
2.16946e-14
2.16907e-14
2.16729e-14
2.17165e-14
2.16778e-14
2.16894e-14
2.16608e-14
2.1676e-14
2.16458e-14
2.16744e-14
2.16528e-14
2.16367e-14
2.1638e-14
2.16036e-14
2.16387e-14
2.15988e-14
2.16535e-14
2.16307e-14
2.16761e-14
2.16546e-14
2.16613e-14
2.16308e-14
2.16473e-14
2.16751e-14
2.16589e-14
2.16746e-14
2.16912e-14
2.16704e-14
2.17236e-14
2.17079e-14
2.17378e-14
2.17458e-14
2.18047e-14
2.16835e-14
2.18096e-14
2.17258e-14
2.17611e-14
2.17368e-14
2.17667e-14
2.1693e-14
2.17767e-14
2.1661e-14
2.17976e-14
2.16862e-14
2.17586e-14
2.16783e-14
2.17268e-14
2.1663e-14
2.16994e-14
2.16408e-14
2.16753e-14
2.16101e-14
2.16548e-14
2.15397e-14
2.16914e-14
2.15538e-14
2.16884e-14
2.16042e-14
2.16697e-14
2.15918e-14
2.17091e-14
2.15667e-14
2.17022e-14
2.16088e-14
2.17035e-14
2.16406e-14
2.17081e-14
2.16371e-14
2.17131e-14
2.1628e-14
2.1747e-14
2.16082e-14
2.17566e-14
2.15744e-14
2.17151e-14
2.16125e-14
2.1709e-14
2.16414e-14
2.17061e-14
2.15752e-14
2.17342e-14
2.15846e-14
2.17265e-14
2.15981e-14
2.17109e-14
2.15421e-14
2.16703e-14
2.14897e-14
2.16651e-14
2.15144e-14
2.16532e-14
2.15435e-14
2.16171e-14
2.15041e-14
2.16137e-14
2.15016e-14
2.16294e-14
2.15371e-14
2.16188e-14
2.14725e-14
2.15947e-14
2.15083e-14
2.15739e-14
2.14749e-14
2.15685e-14
2.14017e-14
2.15495e-14
2.13496e-14
2.15201e-14
2.13674e-14
2.15131e-14
2.13935e-14
2.14791e-14
2.1349e-14
2.14145e-14
2.12673e-14
2.13346e-14
2.12303e-14
2.12886e-14
2.12055e-14
2.12595e-14
2.1144e-14
2.1196e-14
2.10784e-14
2.11646e-14
2.10412e-14
2.11838e-14
2.10137e-14
2.11556e-14
2.09962e-14
2.11135e-14
2.09729e-14
2.10917e-14
2.0961e-14
2.10908e-14
2.09611e-14
2.10421e-14
2.08883e-14
2.10297e-14
2.0862e-14
2.10554e-14
2.08813e-14
2.10334e-14
2.08959e-14
2.09968e-14
2.08899e-14
2.0944e-14
2.08643e-14
2.09447e-14
2.0854e-14
2.09647e-14
2.08584e-14
2.09508e-14
2.08785e-14
2.09555e-14
2.08792e-14
2.09427e-14
2.08608e-14
2.09488e-14
2.08406e-14
2.09202e-14
2.08186e-14
2.08924e-14
2.08129e-14
2.09016e-14
2.08052e-14
2.08933e-14
2.07864e-14
2.08395e-14
2.07663e-14
2.08128e-14
2.07819e-14
2.08505e-14
2.07872e-14
2.08796e-14
2.07814e-14
2.08913e-14
2.07923e-14
2.08857e-14
2.0792e-14
2.08998e-14
2.07898e-14
2.09151e-14
2.07947e-14
2.09039e-14
2.07977e-14
2.08939e-14
2.078e-14
2.09034e-14
2.07886e-14
2.09137e-14
2.07855e-14
2.09156e-14
2.0799e-14
2.09091e-14
2.0801e-14
2.09323e-14
2.08007e-14
2.0947e-14
2.08171e-14
2.09341e-14
2.08218e-14
2.09222e-14
2.08151e-14
2.09592e-14
2.08253e-14
2.09587e-14
2.08335e-14
2.09592e-14
2.08399e-14
2.0941e-14
2.08449e-14
2.0923e-14
2.08389e-14
2.09245e-14
2.08414e-14
2.09358e-14
2.08427e-14
2.09276e-14
2.08428e-14
2.09195e-14
2.08418e-14
2.09213e-14
2.08399e-14
2.0933e-14
2.08467e-14
2.09252e-14
2.08525e-14
2.09172e-14
2.08477e-14
2.09091e-14
2.08421e-14
2.09207e-14
2.08455e-14
2.09224e-14
2.08482e-14
2.09143e-14
2.08503e-14
2.08862e-14
2.08618e-14
2.08578e-14
2.08634e-14
2.08687e-14
2.08548e-14
2.08893e-14
2.08458e-14
2.08798e-14
2.08365e-14
2.08701e-14
2.08268e-14
2.08704e-14
2.08167e-14
2.08806e-14
2.08159e-14
2.0891e-14
2.08144e-14
2.09016e-14
2.08123e-14
2.09075e-14
2.08143e-14
2.09087e-14
2.08106e-14
2.09102e-14
2.07961e-14
2.09273e-14
2.08058e-14
2.09147e-14
2.08248e-14
2.08974e-14
2.0808e-14
2.08954e-14
2.08006e-14
2.09087e-14
2.08076e-14
2.09123e-14
2.07938e-14
2.09162e-14
2.07792e-14
2.09105e-14
2.07739e-14
2.09152e-14
2.07728e-14
2.09203e-14
2.07708e-14
2.09057e-14
2.07682e-14
2.08813e-14
2.07648e-14
2.08823e-14
2.07659e-14
2.08885e-14
2.07664e-14
2.08999e-14
2.07661e-14
2.08964e-14
2.07603e-14
2.08931e-14
2.07588e-14
2.089e-14
2.07617e-14
2.0872e-14
2.0759e-14
2.08691e-14
2.07558e-14
2.08713e-14
2.07521e-14
2.08684e-14
2.07578e-14
2.08607e-14
2.07482e-14
2.08579e-14
2.0743e-14
2.086e-14
2.07423e-14
2.08523e-14
2.07363e-14
2.08396e-14
2.07348e-14
2.0822e-14
2.0728e-14
2.08193e-14
2.07208e-14
2.08165e-14
2.07182e-14
2.08187e-14
2.07104e-14
2.08258e-14
2.07021e-14
2.08329e-14
2.07033e-14
2.08253e-14
2.07017e-14
2.08203e-14
2.07023e-14
2.08153e-14
2.07049e-14
2.08128e-14
2.07097e-14
2.08055e-14
2.06997e-14
2.08055e-14
2.06918e-14
2.08056e-14
2.06885e-14
2.08081e-14
2.06898e-14
2.08082e-14
2.07005e-14
2.08133e-14
2.07012e-14
2.08088e-14
2.06922e-14
2.07971e-14
2.06877e-14
2.07903e-14
2.06879e-14
2.07884e-14
2.06902e-14
2.07914e-14
2.06852e-14
2.07967e-14
2.068e-14
2.07951e-14
2.0677e-14
2.07935e-14
2.06762e-14
2.07967e-14
2.06705e-14
2.07906e-14
2.06646e-14
2.07869e-14
2.06609e-14
2.07927e-14
2.06616e-14
2.0801e-14
2.06552e-14
2.08023e-14
2.06486e-14
2.08038e-14
2.06419e-14
2.08077e-14
2.06373e-14
2.08072e-14
2.06324e-14
2.07999e-14
2.06252e-14
2.07996e-14
2.06223e-14
2.07994e-14
2.06215e-14
2.07994e-14
2.06205e-14
2.07972e-14
2.06126e-14
2.07996e-14
2.06113e-14
2.07955e-14
2.06098e-14
2.07937e-14
2.06081e-14
2.07943e-14
2.06063e-14
2.07971e-14
2.06044e-14
2.08023e-14
2.06023e-14
2.08031e-14
2.06022e-14
2.07998e-14
2.06041e-14
2.07987e-14
2.06059e-14
2.07988e-14
2.06075e-14
2.07969e-14
2.0608e-14
2.0794e-14
2.06115e-14
2.07912e-14
2.06127e-14
2.07916e-14
2.06128e-14
2.07942e-14
2.06128e-14
2.07959e-14
2.06117e-14
2.07955e-14
2.06115e-14
2.07931e-14
2.06122e-14
2.07899e-14
2.06118e-14
2.07897e-14
2.06103e-14
2.07916e-14
2.06118e-14
2.07896e-14
2.06122e-14
2.07876e-14
2.06125e-14
2.07857e-14
2.06147e-14
2.07868e-14
2.06148e-14
2.07869e-14
2.06149e-14
2.07833e-14
2.06159e-14
2.07816e-14
2.06206e-14
2.07791e-14
2.06224e-14
2.07794e-14
2.06214e-14
2.07798e-14
2.06212e-14
2.07783e-14
2.06219e-14
2.0776e-14
2.06226e-14
2.07765e-14
2.06232e-14
2.0776e-14
2.06246e-14
2.07739e-14
2.06252e-14
2.07726e-14
2.06274e-14
2.07714e-14
2.06287e-14
2.07729e-14
2.06283e-14
2.07743e-14
2.06295e-14
2.07724e-14
2.0629e-14
2.07688e-14
2.06293e-14
2.0767e-14
2.06304e-14
2.0766e-14
2.06315e-14
2.07666e-14
2.06325e-14
2.07673e-14
2.06343e-14
2.07668e-14
2.06341e-14
2.07659e-14
2.06335e-14
2.07662e-14
2.06336e-14
2.07681e-14
2.06333e-14
2.07696e-14
2.0633e-14
2.07707e-14
2.0632e-14
2.07718e-14
2.06306e-14
2.07732e-14
2.06303e-14
2.07733e-14
2.06296e-14
2.0774e-14
2.06285e-14
2.07755e-14
2.06275e-14
2.07766e-14
2.06257e-14
2.0778e-14
2.06237e-14
2.07791e-14
2.06229e-14
2.07802e-14
2.06219e-14
2.07816e-14
2.06208e-14
2.07815e-14
2.06194e-14
2.07822e-14
2.06181e-14
2.07839e-14
2.0617e-14
2.07856e-14
2.06168e-14
2.07861e-14
2.06163e-14
2.07863e-14
2.06159e-14
2.07863e-14
2.06159e-14
2.07868e-14
2.06157e-14
2.0787e-14
2.06152e-14
2.07873e-14
2.06149e-14
2.07883e-14
2.06147e-14
2.07888e-14
2.06144e-14
2.07886e-14
2.06144e-14
2.07883e-14
2.06147e-14
2.07885e-14
2.06143e-14
2.07885e-14
2.06139e-14
2.07887e-14
2.0614e-14
2.07888e-14
2.06141e-14
2.0789e-14
2.06139e-14
2.07891e-14
2.06138e-14
2.07891e-14
2.06138e-14
2.07891e-14
2.06136e-14
2.07893e-14
2.06134e-14
2.07894e-14
2.06133e-14
2.07896e-14
2.06134e-14
2.07897e-14
2.06133e-14
2.07898e-14
2.06132e-14
2.07899e-14
2.0613e-14
2.079e-14
2.06128e-14
2.07901e-14
2.06129e-14
2.07902e-14
2.06128e-14
2.07902e-14
2.06128e-14
2.079e-14
2.06127e-14
2.079e-14
2.06128e-14
2.07901e-14
2.06127e-14
2.079e-14
2.06127e-14
2.079e-14
2.06127e-14
2.07901e-14
2.06127e-14
2.079e-14
2.06128e-14
2.079e-14
2.06129e-14
2.07899e-14
2.06129e-14
2.07898e-14
2.06129e-14
2.07898e-14
2.06129e-14
2.07898e-14
2.0613e-14
2.07898e-14
2.06131e-14
2.07898e-14
2.06131e-14
2.07899e-14
2.06132e-14
2.07898e-14
2.06132e-14
2.07898e-14
2.06132e-14
2.07898e-14
2.06132e-14
2.07898e-14
2.06132e-14
2.07898e-14
2.06133e-14
2.07898e-14
2.06133e-14
2.07898e-14
2.06133e-14
2.07898e-14
2.06133e-14
2.07898e-14
2.06134e-14
2.07897e-14
2.06134e-14
2.07897e-14
2.06134e-14
2.07897e-14
2.06135e-14
2.07897e-14
2.06135e-14
2.07896e-14
2.06135e-14
2.07896e-14
2.06135e-14
2.07896e-14
2.06135e-14
2.07896e-14
2.06135e-14
2.07896e-14
2.06135e-14
2.07896e-14
2.06135e-14
2.07896e-14
2.06135e-14
2.07896e-14
2.16016e-14
2.16491e-14
2.16042e-14
2.16691e-14
2.16427e-14
2.16549e-14
2.16572e-14
2.16641e-14
2.16244e-14
2.16514e-14
2.16807e-14
2.16663e-14
2.16927e-14
2.1727e-14
2.16536e-14
2.17479e-14
2.16479e-14
2.17358e-14
2.16748e-14
2.17593e-14
2.17107e-14
2.17424e-14
2.17692e-14
2.17495e-14
2.1759e-14
2.17537e-14
2.17507e-14
2.17564e-14
2.17197e-14
2.17839e-14
2.16846e-14
2.17672e-14
2.1717e-14
2.17342e-14
2.1724e-14
2.17032e-14
2.17364e-14
2.16699e-14
2.17866e-14
2.16557e-14
2.16994e-14
2.17083e-14
2.16717e-14
2.17095e-14
2.16726e-14
2.17152e-14
2.16456e-14
2.17539e-14
2.16662e-14
2.17769e-14
2.16818e-14
2.18125e-14
2.16899e-14
2.18356e-14
2.16322e-14
2.18475e-14
2.16705e-14
2.18812e-14
2.1695e-14
2.1879e-14
2.17094e-14
2.18083e-14
2.16926e-14
2.18053e-14
2.17292e-14
2.17842e-14
2.16477e-14
2.17986e-14
2.16469e-14
2.17806e-14
2.16845e-14
2.17726e-14
2.16595e-14
2.17417e-14
2.16178e-14
2.17177e-14
2.16346e-14
2.17008e-14
2.16513e-14
2.16888e-14
2.1638e-14
2.16962e-14
2.15941e-14
2.16934e-14
2.16097e-14
2.16973e-14
2.16386e-14
2.16919e-14
2.16216e-14
2.1723e-14
2.16183e-14
2.16512e-14
2.15848e-14
2.15824e-14
2.1507e-14
2.15621e-14
2.14621e-14
2.1545e-14
2.14806e-14
2.15319e-14
2.14171e-14
2.14728e-14
2.13688e-14
2.14003e-14
2.13375e-14
2.13796e-14
2.12732e-14
2.14119e-14
2.12549e-14
2.13687e-14
2.12009e-14
2.13322e-14
2.11779e-14
2.12692e-14
2.11541e-14
2.12273e-14
2.11301e-14
2.11376e-14
2.11079e-14
2.10824e-14
2.10539e-14
2.10776e-14
2.1035e-14
2.10733e-14
2.09985e-14
2.1088e-14
2.09784e-14
2.10885e-14
2.09393e-14
2.11101e-14
2.09314e-14
2.10668e-14
2.09205e-14
2.10101e-14
2.09077e-14
2.09918e-14
2.08933e-14
2.10294e-14
2.08761e-14
2.10711e-14
2.08546e-14
2.1065e-14
2.08461e-14
2.09927e-14
2.08521e-14
2.0978e-14
2.08554e-14
2.09845e-14
2.08562e-14
2.09942e-14
2.08364e-14
2.09895e-14
2.08321e-14
2.10068e-14
2.08248e-14
2.09918e-14
2.08056e-14
2.09533e-14
2.0784e-14
2.09279e-14
2.07971e-14
2.09149e-14
2.0827e-14
2.09413e-14
2.08275e-14
2.09607e-14
2.08355e-14
2.09454e-14
2.08422e-14
2.09414e-14
2.08478e-14
2.0958e-14
2.08523e-14
2.1005e-14
2.0855e-14
2.10265e-14
2.08749e-14
2.10038e-14
2.08937e-14
2.09833e-14
2.09121e-14
2.0993e-14
2.09206e-14
2.10138e-14
2.09288e-14
2.10171e-14
2.09464e-14
2.10026e-14
2.09544e-14
2.10084e-14
2.09626e-14
2.10346e-14
2.09514e-14
2.10427e-14
2.09302e-14
2.1062e-14
2.09373e-14
2.10734e-14
2.09338e-14
2.10965e-14
2.09389e-14
2.11026e-14
2.0943e-14
2.10915e-14
2.09266e-14
2.10726e-14
2.09289e-14
2.10557e-14
2.09304e-14
2.106e-14
2.09313e-14
2.10857e-14
2.09313e-14
2.11034e-14
2.09302e-14
2.10837e-14
2.09283e-14
2.10658e-14
2.09257e-14
2.10693e-14
2.09124e-14
2.10644e-14
2.09082e-14
2.10512e-14
2.09032e-14
2.10393e-14
2.08975e-14
2.1009e-14
2.09011e-14
2.09898e-14
2.09043e-14
2.10014e-14
2.08971e-14
2.0994e-14
2.08994e-14
2.09675e-14
2.09066e-14
2.09717e-14
2.09136e-14
2.09665e-14
2.09256e-14
2.09618e-14
2.09277e-14
2.09574e-14
2.0945e-14
2.09534e-14
2.09324e-14
2.09546e-14
2.09251e-14
2.09459e-14
2.0938e-14
2.09474e-14
2.09411e-14
2.09692e-14
2.09445e-14
2.09761e-14
2.09479e-14
2.09581e-14
2.09466e-14
2.09404e-14
2.09455e-14
2.09478e-14
2.09398e-14
2.09654e-14
2.09543e-14
2.0968e-14
2.09489e-14
2.09709e-14
2.09438e-14
2.09889e-14
2.09389e-14
2.09973e-14
2.0934e-14
2.09908e-14
2.09192e-14
2.09948e-14
2.09295e-14
2.10043e-14
2.09398e-14
2.10292e-14
2.09401e-14
2.10445e-14
2.09403e-14
2.10453e-14
2.09405e-14
2.10467e-14
2.09406e-14
2.10485e-14
2.09457e-14
2.10609e-14
2.09457e-14
2.10688e-14
2.09457e-14
2.10773e-14
2.09305e-14
2.10863e-14
2.09302e-14
2.1076e-14
2.09298e-14
2.10514e-14
2.09194e-14
2.10373e-14
2.09089e-14
2.10435e-14
2.09082e-14
2.10403e-14
2.09074e-14
2.10277e-14
2.09017e-14
2.10254e-14
2.09008e-14
2.10236e-14
2.089e-14
2.10173e-14
2.08791e-14
2.10065e-14
2.08682e-14
2.09961e-14
2.08621e-14
2.09935e-14
2.0856e-14
2.09937e-14
2.08473e-14
2.09893e-14
2.08434e-14
2.0978e-14
2.0837e-14
2.09671e-14
2.08329e-14
2.09687e-14
2.08287e-14
2.09609e-14
2.08293e-14
2.09437e-14
2.08202e-14
2.09316e-14
2.08207e-14
2.09198e-14
2.08259e-14
2.09107e-14
2.08239e-14
2.09017e-14
2.08147e-14
2.08905e-14
2.08103e-14
2.08819e-14
2.08083e-14
2.08735e-14
2.08039e-14
2.08723e-14
2.08042e-14
2.08618e-14
2.08022e-14
2.0849e-14
2.08025e-14
2.08364e-14
2.08076e-14
2.08309e-14
2.08034e-14
2.08301e-14
2.07969e-14
2.0827e-14
2.07927e-14
2.08171e-14
2.07933e-14
2.08141e-14
2.07916e-14
2.08181e-14
2.07876e-14
2.08221e-14
2.07814e-14
2.08238e-14
2.07729e-14
2.08233e-14
2.07668e-14
2.08274e-14
2.07608e-14
2.0827e-14
2.07547e-14
2.08199e-14
2.07509e-14
2.08129e-14
2.07516e-14
2.08104e-14
2.07457e-14
2.08147e-14
2.07442e-14
2.08167e-14
2.0736e-14
2.0821e-14
2.07367e-14
2.0821e-14
2.07352e-14
2.08189e-14
2.07315e-14
2.08189e-14
2.07257e-14
2.08234e-14
2.07209e-14
2.08257e-14
2.07151e-14
2.08271e-14
2.07104e-14
2.08316e-14
2.07045e-14
2.08352e-14
2.06998e-14
2.08378e-14
2.0696e-14
2.08383e-14
2.06912e-14
2.08389e-14
2.06874e-14
2.08406e-14
2.06856e-14
2.08414e-14
2.06808e-14
2.08422e-14
2.06779e-14
2.08441e-14
2.0671e-14
2.08471e-14
2.0666e-14
2.08481e-14
2.06621e-14
2.08483e-14
2.0659e-14
2.08475e-14
2.0655e-14
2.08487e-14
2.0651e-14
2.08501e-14
2.06459e-14
2.08524e-14
2.06418e-14
2.0852e-14
2.06367e-14
2.08507e-14
2.06325e-14
2.08504e-14
2.06283e-14
2.08511e-14
2.06231e-14
2.08519e-14
2.06189e-14
2.085e-14
2.06173e-14
2.08482e-14
2.06148e-14
2.08474e-14
2.06122e-14
2.08467e-14
2.06097e-14
2.08469e-14
2.06079e-14
2.08472e-14
2.06078e-14
2.08475e-14
2.06103e-14
2.08471e-14
2.06101e-14
2.08467e-14
2.06099e-14
2.08456e-14
2.06096e-14
2.08437e-14
2.06101e-14
2.08435e-14
2.06114e-14
2.08433e-14
2.06117e-14
2.08432e-14
2.06121e-14
2.08424e-14
2.06124e-14
2.08393e-14
2.0613e-14
2.08378e-14
2.06124e-14
2.08391e-14
2.06119e-14
2.08396e-14
2.06116e-14
2.08387e-14
2.06113e-14
2.08382e-14
2.0611e-14
2.08381e-14
2.06106e-14
2.0838e-14
2.06096e-14
2.08366e-14
2.06095e-14
2.08359e-14
2.06087e-14
2.0836e-14
2.06079e-14
2.08361e-14
2.06071e-14
2.08352e-14
2.06063e-14
2.0835e-14
2.06061e-14
2.08346e-14
2.06058e-14
2.08335e-14
2.06056e-14
2.08325e-14
2.06041e-14
2.08337e-14
2.06032e-14
2.08334e-14
2.06026e-14
2.08325e-14
2.06028e-14
2.08311e-14
2.06033e-14
2.083e-14
2.06032e-14
2.08298e-14
2.06029e-14
2.08299e-14
2.0603e-14
2.08292e-14
2.06029e-14
2.08286e-14
2.06032e-14