/*--------------------------------*- C++ -*----------------------------------*\
| =========                 |                                                 |
| \\      /  F ield         | OpenFOAM: The Open Source CFD Toolbox           |
|  \\    /   O peration     | Version:  2012                                  |
|   \\  /    A nd           | Website:  www.openfoam.com                      |
|    \\/     M anipulation  |                                                 |
\*---------------------------------------------------------------------------*/
FoamFile
{
    version     2.0;
    format      ascii;
    class       volVectorField;
    location    "5000";
    object      U;
}
// * * * * * * * * * * * * * * * * * * * * * * * * * * * * * * * * * * * * * //

dimensions      [0 1 -1 0 0 0 0];


internalField   nonuniform List<vector> 
160
(
(0.0433138 -6.06418e-16 -4.22802e-16)
(0.0433138 1.00446e-16 -5.50676e-17)
(0.141574 -7.85664e-15 -2.07235e-15)
(0.141574 -2.28354e-16 -2.77428e-16)
(0.265387 -6.0037e-15 -2.86582e-15)
(0.265387 -4.25469e-16 -4.25929e-16)
(0.408837 -5.15042e-15 -3.2003e-15)
(0.408837 -7.20316e-16 -5.57015e-16)
(0.539481 -4.3352e-15 -3.14732e-15)
(0.539481 -1.06639e-15 -6.58217e-16)
(0.639145 -3.77653e-15 -3.11824e-15)
(0.639145 -1.33824e-15 -7.64744e-16)
(0.715015 -3.29021e-15 -2.84101e-15)
(0.715015 -1.59036e-15 -7.97097e-16)
(0.77501 -2.85592e-15 -2.10351e-15)
(0.77501 -1.78497e-15 -7.1504e-16)
(0.823817 -2.50397e-15 -1.50433e-15)
(0.823817 -1.86307e-15 -6.29133e-16)
(0.864291 -2.21094e-15 -1.09823e-15)
(0.864291 -1.85976e-15 -6.19085e-16)
(0.89837 -1.93516e-15 -1.00911e-15)
(0.89837 -1.80441e-15 -8.64492e-16)
(0.927487 -1.77587e-15 -1.57912e-15)
(0.927487 -1.74989e-15 -1.50567e-15)
(0.952749 -1.64573e-15 -2.27994e-15)
(0.952749 -1.62565e-15 -2.15642e-15)
(0.975009 -1.59316e-15 -3.01672e-15)
(0.975009 -1.60662e-15 -3.39922e-15)
(0.994906 -1.58181e-15 -4.09458e-15)
(0.994906 -1.59697e-15 -4.28921e-15)
(1.01288 -1.36634e-15 -4.31926e-15)
(1.01288 -1.34923e-15 -3.67277e-15)
(1.02919 -1.45903e-15 -6.37332e-15)
(1.02919 -1.45789e-15 -6.26467e-15)
(1.04382 -9.61809e-16 -4.01928e-15)
(1.04382 -1.08546e-15 -4.34633e-15)
(1.05641 -1.58845e-15 -5.77715e-15)
(1.05641 -1.62134e-15 -5.33231e-15)
(1.06535 -1.28825e-15 -4.00877e-15)
(1.06535 -1.2837e-15 -3.55487e-15)
(0.0433138 1.1689e-17 1.23782e-16)
(0.0433138 1.35156e-17 -3.51483e-17)
(0.141574 -9.38381e-17 4.32832e-16)
(0.141574 -4.9671e-17 -5.47529e-16)
(0.265387 -2.05724e-16 5.52885e-16)
(0.265387 -1.05018e-16 -5.42171e-16)
(0.408837 -3.57415e-16 5.61311e-16)
(0.408837 -1.96368e-16 -2.94907e-16)
(0.539481 -5.02254e-16 4.79473e-16)
(0.539481 -3.01503e-16 5.68714e-17)
(0.639145 -6.26545e-16 3.82918e-16)
(0.639145 -4.05271e-16 7.30144e-17)
(0.715015 -7.53352e-16 2.97574e-16)
(0.715015 -5.45931e-16 9.66004e-17)
(0.77501 -8.61776e-16 3.5037e-16)
(0.77501 -6.91255e-16 1.43963e-16)
(0.823817 -9.6323e-16 4.69532e-16)
(0.823817 -8.39899e-16 2.85283e-16)
(0.864291 -1.08727e-15 5.30282e-16)
(0.864291 -1.00746e-15 4.56656e-16)
(0.89837 -1.18321e-15 6.80383e-16)
(0.89837 -1.13783e-15 5.88736e-16)
(0.927487 -1.26794e-15 1.31621e-15)
(0.927487 -1.24925e-15 1.27439e-15)
(0.952749 -1.36525e-15 2.11411e-15)
(0.952749 -1.37346e-15 2.12473e-15)
(0.975009 -1.43416e-15 2.96912e-15)
(0.975009 -1.41557e-15 2.94336e-15)
(0.994906 -1.42751e-15 3.61728e-15)
(0.994906 -1.42212e-15 4.08925e-15)
(1.01288 -1.38407e-15 5.25887e-15)
(1.01288 -1.34758e-15 4.20078e-15)
(1.02919 -1.49187e-15 5.74391e-15)
(1.02919 -1.46115e-15 6.08081e-15)
(1.04382 -8.19456e-16 3.50562e-15)
(1.04382 -1.02941e-15 4.16521e-15)
(1.05641 -1.36784e-15 6.20976e-15)
(1.05641 -1.62409e-15 5.54836e-15)
(1.06535 -1.3629e-15 4.62638e-15)
(1.06535 -1.32592e-15 4.55159e-15)
(1.06535 -7.40602e-16 -1.16335e-15)
(1.06535 -8.49872e-16 -1.40548e-15)
(1.05641 -5.07756e-16 -1.98133e-15)
(1.05641 -5.26558e-16 -1.91723e-15)
(1.04382 -1.86003e-17 -1.64197e-15)
(1.04382 -3.66708e-17 -1.61141e-15)
(1.02919 -2.48696e-16 -1.57777e-15)
(1.02919 -2.4252e-16 -1.40714e-15)
(1.01288 -3.23962e-16 -9.61477e-16)
(1.01288 -2.9183e-16 -8.22369e-16)
(0.994906 -2.21293e-16 -5.8736e-16)
(0.994906 -1.74965e-16 -5.43521e-16)
(0.975009 -9.97126e-17 -1.18557e-16)
(0.975009 -1.39012e-16 -1.58358e-16)
(0.952749 -3.4213e-17 -1.71299e-16)
(0.952749 -4.12581e-17 -1.37725e-16)
(0.927487 2.23006e-18 -8.46845e-17)
(0.927487 1.83685e-17 -5.78169e-17)
(0.89837 -2.55881e-17 -4.90786e-17)
(0.89837 -1.14841e-17 -3.21659e-17)
(0.864291 -5.60985e-18 -7.62337e-18)
(0.864291 -6.70345e-18 -3.58154e-17)
(0.823817 -1.04563e-17 -5.10233e-18)
(0.823817 -1.28361e-17 -3.27317e-17)
(0.77501 -3.97846e-18 -9.39363e-18)
(0.77501 2.66057e-18 -2.04834e-17)
(0.715015 5.09602e-18 -1.16331e-17)
(0.715015 8.32394e-18 -2.406e-17)
(0.639145 -4.90201e-18 -3.34946e-18)
(0.639145 -3.81115e-18 -2.90752e-17)
(0.539481 -3.20718e-18 -3.65394e-18)
(0.539481 -1.87197e-17 -2.67924e-17)
(0.408837 7.47135e-18 -7.23767e-18)
(0.408837 -9.27308e-18 -2.47756e-17)
(0.265387 7.94871e-18 -2.30822e-18)
(0.265387 -3.44891e-18 -2.1458e-17)
(0.141574 3.19976e-19 -3.22503e-19)
(0.141574 -2.57705e-19 -1.6405e-17)
(0.0433138 1.47196e-19 -1.87453e-20)
(0.0433138 9.75452e-20 -1.58103e-18)
(1.06535 -7.47177e-16 1.10241e-15)
(1.06535 -6.61789e-16 1.43814e-15)
(1.05641 -5.55585e-16 1.8434e-15)
(1.05641 -5.21052e-16 1.92772e-15)
(1.04382 -7.4544e-17 1.6159e-15)
(1.04382 -7.92014e-17 1.77652e-15)
(1.02919 -2.08835e-16 1.27829e-15)
(1.02919 -2.49898e-16 1.03144e-15)
(1.01288 -2.21899e-16 6.75949e-16)
(1.01288 -1.41641e-16 7.23693e-16)
(0.994906 -1.88126e-16 4.56247e-16)
(0.994906 -1.90545e-16 5.31505e-16)
(0.975009 -1.29312e-16 1.80493e-16)
(0.975009 -7.96488e-17 1.04624e-16)
(0.952749 4.77059e-18 1.23764e-16)
(0.952749 7.06068e-18 1.93466e-16)
(0.927487 -1.81619e-18 8.37624e-17)
(0.927487 -2.20986e-17 9.15562e-17)
(0.89837 -7.09065e-17 8.0647e-17)
(0.89837 -6.5421e-17 8.90607e-17)
(0.864291 -5.00402e-17 6.44233e-17)
(0.864291 -3.18491e-17 3.75837e-17)
(0.823817 -2.68662e-17 4.43954e-17)
(0.823817 -3.89324e-17 2.69499e-17)
(0.77501 -1.26827e-17 2.82917e-17)
(0.77501 -1.87179e-17 3.13582e-17)
(0.715015 -1.14267e-17 2.11783e-17)
(0.715015 -1.57736e-17 1.99004e-17)
(0.639145 -1.83711e-17 1.98297e-17)
(0.639145 -1.63729e-17 1.63443e-17)
(0.539481 -1.21968e-17 1.65868e-17)
(0.539481 -5.69456e-18 1.76837e-17)
(0.408837 -3.34005e-18 1.6354e-17)
(0.408837 -9.10642e-19 1.12894e-17)
(0.265387 -6.08614e-19 1.41958e-17)
(0.265387 -3.70591e-18 1.0708e-17)
(0.141574 1.80429e-20 1.08939e-17)
(0.141574 -1.0236e-18 7.93825e-18)
(0.0433138 -1.9358e-19 9.15813e-19)
(0.0433138 -6.94199e-20 6.4855e-19)
)
;

boundaryField
{
    walls
    {
        type            fixedValue;
        value           uniform (0 0 0);
    }
    inlet
    {
        type            cyclic;
    }
    outlet
    {
        type            cyclic;
    }
    sides
    {
        type            empty;
    }
}


// ************************************************************************* //
