/*--------------------------------*- C++ -*----------------------------------*\
| =========                 |                                                 |
| \\      /  F ield         | OpenFOAM: The Open Source CFD Toolbox           |
|  \\    /   O peration     | Version:  2012                                  |
|   \\  /    A nd           | Website:  www.openfoam.com                      |
|    \\/     M anipulation  |                                                 |
\*---------------------------------------------------------------------------*/
FoamFile
{
    version     2.0;
    format      ascii;
    class       volScalarField;
    location    "12700";
    object      k;
}
// * * * * * * * * * * * * * * * * * * * * * * * * * * * * * * * * * * * * * //

dimensions      [0 2 -2 0 0 0 0];


internalField   nonuniform List<scalar> 
2560
(
0.00301575
0.00301576
0.0679234
0.0679236
0.480509
0.48051
1.63642
1.63643
3.47169
3.47169
5.462
5.462
7.32708
7.32708
9.03112
9.03113
10.5995
10.5995
12.0607
12.0607
13.4367
13.4367
14.7437
14.7437
15.9932
15.9932
17.1938
17.1938
18.3519
18.3519
19.472
19.472
20.5577
20.5577
21.6116
21.6116
22.6355
22.6355
23.6307
23.6307
24.598
24.598
25.5379
25.5379
26.4505
26.4505
27.3355
27.3355
28.1926
28.1926
29.0211
29.0211
29.8201
29.82
30.5886
30.5886
31.3254
31.3254
32.0293
32.0293
32.6988
32.6988
33.3325
33.3325
33.9287
33.9287
34.486
34.486
35.0026
35.0026
35.477
35.477
35.9077
35.9077
36.293
36.293
36.6317
36.6316
36.9223
36.9223
37.1638
37.1638
37.3553
37.3553
37.496
37.496
37.5854
37.5854
37.6234
37.6234
37.61
37.61
37.5458
37.5458
37.4315
37.4315
37.2684
37.2684
37.058
37.058
36.8025
36.8025
36.5042
36.5042
36.1661
36.1661
35.7915
35.7915
35.3841
35.3841
34.9482
34.9482
34.4881
34.4881
34.0089
34.0089
33.5156
33.5156
33.0136
33.0136
32.5086
32.5086
32.0063
32.0063
31.5123
31.5123
31.0323
31.0323
30.5718
30.5718
30.136
30.136
29.7298
29.7298
29.3576
29.3576
29.0232
29.0232
28.7299
28.7299
28.48
28.48
28.2753
28.2753
28.1167
28.1167
28.0042
28.0042
27.937
27.937
27.9136
27.9136
27.9315
27.9315
27.9878
27.9878
28.0789
28.0789
28.2007
28.2007
28.3489
28.3489
28.5188
28.5188
28.7055
28.7055
28.9041
28.9041
29.1099
29.1099
29.3181
29.3181
29.5243
29.5243
29.7243
29.7243
29.9142
29.9142
30.0905
30.0905
30.25
30.25
30.39
30.39
30.5082
30.5082
30.6028
30.6028
30.6721
30.6721
30.7151
30.7151
30.7309
30.7309
30.7191
30.7191
30.6796
30.6796
30.6124
30.6124
30.518
30.518
30.3968
30.3968
30.2497
30.2497
30.0775
30.0775
29.8812
29.8812
29.662
29.662
29.421
29.421
29.1594
29.1594
28.8787
28.8787
28.58
28.58
28.2646
28.2646
27.9339
27.9339
27.5891
27.5891
27.2315
27.2315
26.8623
26.8623
26.4827
26.4827
26.0938
26.0938
25.6966
25.6966
25.2923
25.2923
24.8818
24.8818
24.466
24.466
24.0458
24.0458
23.6221
23.6221
23.1957
23.1956
22.7671
22.7671
22.3372
22.3372
21.9066
21.9066
21.4758
21.4758
21.0454
21.0454
20.616
20.616
20.1879
20.1879
19.7616
19.7616
19.3376
19.3376
18.9161
18.9161
18.4976
18.4976
18.0824
18.0824
17.6707
17.6707
17.2628
17.2628
16.8591
16.8591
16.4596
16.4596
16.0647
16.0647
15.6745
15.6745
15.2892
15.2892
14.909
14.909
14.534
14.534
14.1643
14.1643
13.8001
13.8001
13.4415
13.4415
13.0886
13.0886
12.7415
12.7415
12.4003
12.4003
12.0651
12.0651
11.736
11.736
11.413
11.413
11.0962
11.0962
10.7857
10.7857
10.4816
10.4816
10.1838
10.1838
9.89247
9.89247
9.6076
9.60759
9.32921
9.3292
9.05731
9.0573
8.79189
8.79189
8.53294
8.53293
8.28039
8.28039
8.03421
8.0342
7.7943
7.79429
7.56058
7.56057
7.33294
7.33293
7.11127
7.11127
6.89546
6.89546
6.68539
6.68539
6.48095
6.48095
6.28203
6.28203
6.08854
6.08853
5.90037
5.90036
5.71745
5.71744
5.5397
5.5397
5.36705
5.36704
5.19941
5.19941
5.03673
5.03672
4.87892
4.87891
4.72591
4.7259
4.57762
4.57761
4.43397
4.43396
4.29486
4.29485
4.16021
4.1602
4.02993
4.02992
3.90392
3.90391
3.7821
3.78209
3.66437
3.66437
3.55068
3.55067
3.44093
3.44093
3.33508
3.33507
3.23306
3.23305
3.13482
3.13481
3.0403
3.04029
2.94945
2.94944
2.86222
2.86222
2.77858
2.77857
2.69846
2.69845
2.62181
2.6218
2.54856
2.54855
2.47865
2.47864
2.41199
2.41198
2.34849
2.34848
2.28806
2.28805
2.23058
2.23057
2.17595
2.17595
2.12406
2.12406
2.07481
2.0748
2.02809
2.02808
1.9838
1.9838
1.94184
1.94183
1.90209
1.90208
1.86442
1.86442
1.82871
1.82871
1.79481
1.79481
1.76256
1.76256
1.7318
1.7318
1.70235
1.70235
1.67405
1.67404
1.64673
1.64672
1.62027
1.62027
1.59459
1.59458
1.5696
1.5696
1.54528
1.54528
1.52158
1.52158
1.49844
1.49844
1.47579
1.47578
1.45352
1.45351
1.43152
1.43152
1.40972
1.40971
1.38802
1.38802
1.36639
1.36638
1.34478
1.34477
1.32318
1.32318
1.30161
1.30161
1.28012
1.28012
1.25878
1.25877
1.23766
1.23766
1.21686
1.21686
1.19642
1.19642
1.17634
1.17634
1.15658
1.15657
1.13702
1.13701
1.11752
1.11751
1.09789
1.09788
1.07791
1.07791
1.05739
1.05739
1.03623
1.03623
1.01444
1.01443
0.992153
0.992144
0.969592
0.96958
0.94703
0.947018
0.924739
0.924726
0.902919
0.902906
0.881667
0.881653
0.860991
0.860977
0.840867
0.840851
0.8213
0.821283
0.802372
0.802353
0.78422
0.7842
0.766999
0.766979
0.750846
0.750827
0.735856
0.735839
0.722077
0.722063
0.709523
0.709512
0.698193
0.698187
0.688081
0.68808
0.679182
0.679187
0.671484
0.671498
0.664965
0.66499
0.659574
0.659613
0.655216
0.655273
0.651747
0.651823
0.648978
0.649074
0.646676
0.646784
0.644567
0.644662
0.642444
0.642487
0.640127
0.640086
0.637371
0.637259
0.633817
0.633672
0.629105
0.628959
0.622957
0.622824
0.615224
0.615107
0.605954
0.605854
0.595364
0.595278
0.583787
0.583713
0.571687
0.571625
0.559638
0.559588
0.548152
0.548112
0.537526
0.537496
0.527815
0.52779
0.519011
0.518991
0.511119
0.511102
0.504148
0.504134
0.498098
0.498088
0.49298
0.492973
0.4888
0.488798
0.485529
0.485534
0.483068
0.483081
0.481258
0.48128
0.479911
0.479944
0.478803
0.478849
0.477584
0.477643
0.475787
0.475853
0.472986
0.473051
0.468987
0.469041
0.463919
0.463956
0.458152
0.458167
0.452065
0.452069
0.44595
0.445942
0.440016
0.439999
0.434517
0.434497
0.429701
0.429682
0.425713
0.425696
0.422595
0.422579
0.420399
0.420388
0.419227
0.419222
0.00301576
0.00301575
0.0679236
0.0679235
0.48051
0.480509
1.63643
1.63642
3.47169
3.47169
5.462
5.462
7.32708
7.32708
9.03113
9.03112
10.5995
10.5995
12.0607
12.0607
13.4367
13.4367
14.7437
14.7437
15.9932
15.9932
17.1938
17.1938
18.3519
18.3519
19.472
19.472
20.5577
20.5577
21.6116
21.6116
22.6355
22.6355
23.6307
23.6307
24.598
24.598
25.5379
25.5379
26.4505
26.4505
27.3355
27.3355
28.1926
28.1926
29.0211
29.0211
29.8201
29.8201
30.5886
30.5886
31.3254
31.3254
32.0293
32.0293
32.6988
32.6988
33.3325
33.3325
33.9287
33.9287
34.486
34.486
35.0026
35.0026
35.4771
35.4771
35.9077
35.9077
36.293
36.293
36.6317
36.6317
36.9223
36.9223
37.1638
37.1638
37.3553
37.3553
37.496
37.496
37.5854
37.5854
37.6234
37.6234
37.61
37.61
37.5458
37.5458
37.4315
37.4315
37.2684
37.2684
37.058
37.058
36.8025
36.8025
36.5042
36.5042
36.1661
36.1661
35.7915
35.7915
35.3842
35.3842
34.9482
34.9482
34.4881
34.4881
34.0089
34.0089
33.5156
33.5156
33.0136
33.0136
32.5086
32.5086
32.0063
32.0063
31.5123
31.5123
31.0323
31.0323
30.5718
30.5718
30.136
30.136
29.7298
29.7298
29.3576
29.3576
29.0233
29.0233
28.7299
28.7299
28.48
28.48
28.2754
28.2754
28.1167
28.1167
28.0042
28.0042
27.937
27.937
27.9136
27.9136
27.9315
27.9315
27.9878
27.9878
28.0789
28.0789
28.2007
28.2007
28.3489
28.3489
28.5188
28.5188
28.7055
28.7054
28.9041
28.9041
29.1099
29.1099
29.3181
29.3181
29.5243
29.5243
29.7243
29.7243
29.9142
29.9142
30.0905
30.0905
30.25
30.25
30.39
30.39
30.5082
30.5082
30.6028
30.6028
30.6721
30.6721
30.7151
30.7151
30.7309
30.7309
30.7191
30.7191
30.6796
30.6796
30.6124
30.6124
30.518
30.518
30.3968
30.3968
30.2497
30.2497
30.0775
30.0775
29.8812
29.8812
29.662
29.662
29.421
29.421
29.1594
29.1594
28.8787
28.8787
28.58
28.58
28.2646
28.2646
27.9339
27.9339
27.5891
27.5891
27.2315
27.2315
26.8623
26.8623
26.4827
26.4827
26.0938
26.0938
25.6966
25.6966
25.2923
25.2923
24.8818
24.8818
24.466
24.466
24.0458
24.0458
23.6221
23.6221
23.1956
23.1956
22.7671
22.7671
22.3372
22.3372
21.9066
21.9066
21.4758
21.4758
21.0454
21.0454
20.616
20.616
20.1879
20.1879
19.7616
19.7616
19.3376
19.3376
18.9161
18.9161
18.4976
18.4976
18.0824
18.0824
17.6707
17.6707
17.2628
17.2628
16.8591
16.8591
16.4596
16.4596
16.0647
16.0647
15.6745
15.6745
15.2892
15.2892
14.909
14.909
14.534
14.534
14.1643
14.1643
13.8001
13.8001
13.4415
13.4415
13.0886
13.0886
12.7415
12.7415
12.4003
12.4003
12.0651
12.0651
11.736
11.736
11.413
11.413
11.0962
11.0962
10.7857
10.7857
10.4816
10.4816
10.1838
10.1838
9.89246
9.89247
9.60759
9.60759
9.3292
9.3292
9.0573
9.05731
8.79188
8.79189
8.53293
8.53293
8.28038
8.28039
8.0342
8.0342
7.79429
7.79429
7.56057
7.56057
7.33293
7.33293
7.11126
7.11127
6.89545
6.89546
6.68539
6.68539
6.48094
6.48095
6.28202
6.28203
6.08853
6.08853
5.90036
5.90037
5.71744
5.71745
5.53969
5.5397
5.36704
5.36704
5.1994
5.19941
5.03672
5.03673
4.87891
4.87892
4.7259
4.72591
4.57761
4.57762
4.43396
4.43396
4.29485
4.29486
4.1602
4.16021
4.02992
4.02992
3.90391
3.90392
3.78208
3.78209
3.66436
3.66437
3.55067
3.55067
3.44092
3.44093
3.33507
3.33508
3.23305
3.23306
3.13481
3.13481
3.04028
3.04029
2.94944
2.94944
2.86221
2.86222
2.77857
2.77857
2.69845
2.69845
2.6218
2.6218
2.54855
2.54856
2.47864
2.47864
2.41198
2.41199
2.34848
2.34849
2.28805
2.28806
2.23057
2.23058
2.17594
2.17595
2.12405
2.12406
2.0748
2.07481
2.02808
2.02809
1.98379
1.9838
1.94183
1.94184
1.90208
1.90209
1.86442
1.86442
1.82871
1.82871
1.79481
1.79481
1.76256
1.76256
1.7318
1.7318
1.70235
1.70235
1.67404
1.67405
1.64672
1.64673
1.62027
1.62027
1.59458
1.59459
1.5696
1.56961
1.54528
1.54529
1.52158
1.52158
1.49844
1.49845
1.47579
1.47579
1.45352
1.45352
1.43153
1.43153
1.40972
1.40972
1.38803
1.38803
1.36639
1.36639
1.34478
1.34478
1.32318
1.32319
1.30162
1.30162
1.28013
1.28013
1.25878
1.25879
1.23767
1.23768
1.21687
1.21688
1.19643
1.19644
1.17636
1.17636
1.15659
1.15659
1.13703
1.13703
1.11753
1.11753
1.0979
1.0979
1.07792
1.07793
1.0574
1.05741
1.03624
1.03625
1.01445
1.01445
0.992154
0.992164
0.969589
0.9696
0.947025
0.947037
0.924733
0.924745
0.902911
0.902924
0.881658
0.881671
0.860981
0.860994
0.840854
0.840869
0.821285
0.821302
0.802354
0.802372
0.7842
0.784219
0.76698
0.766999
0.750828
0.750846
0.735841
0.735857
0.722066
0.72208
0.709517
0.709528
0.698193
0.6982
0.688089
0.688092
0.679198
0.679195
0.671511
0.671501
0.665007
0.664988
0.659633
0.659603
0.655296
0.655251
0.651849
0.651788
0.649103
0.649026
0.646815
0.646728
0.644698
0.644621
0.642529
0.642493
0.640138
0.640168
0.637317
0.637404
0.63373
0.633844
0.629011
0.629126
0.622864
0.622971
0.615134
0.615229
0.605865
0.605949
0.595276
0.595349
0.583701
0.583764
0.571607
0.57166
0.559569
0.559612
0.548096
0.54813
0.537485
0.537512
0.527784
0.527806
0.518989
0.519008
0.511105
0.51112
0.504141
0.504154
0.4981
0.49811
0.492992
0.492999
0.488827
0.488828
0.485572
0.485568
0.48313
0.483119
0.481339
0.481319
0.480013
0.479982
0.478923
0.478881
0.477718
0.477664
0.47592
0.47586
0.473101
0.473044
0.469068
0.469023
0.46396
0.463932
0.458153
0.458147
0.452041
0.452048
0.445907
0.445925
0.439962
0.439988
0.434462
0.434489
0.429653
0.429676
0.425673
0.425692
0.422563
0.422577
0.420377
0.420385
0.419216
0.419219
0.41921
0.419204
0.420347
0.420335
0.422507
0.422491
0.425583
0.425565
0.429531
0.429511
0.434301
0.434279
0.439748
0.439729
0.445635
0.445626
0.451683
0.451687
0.457677
0.457693
0.46336
0.463396
0.468368
0.468421
0.47233
0.472394
0.475126
0.475191
0.476964
0.477021
0.478251
0.478296
0.479427
0.479459
0.480831
0.480852
0.48269
0.482702
0.485196
0.485201
0.488518
0.488516
0.492751
0.492744
0.497922
0.497912
0.504025
0.504011
0.511049
0.511032
0.518994
0.518973
0.527849
0.527824
0.537611
0.53758
0.548285
0.548246
0.559815
0.559765
0.571914
0.571853
0.584065
0.583991
0.595672
0.595586
0.60626
0.60616
0.615496
0.61538
0.623165
0.623032
0.629247
0.629101
0.633914
0.633768
0.637437
0.637325
0.640177
0.640138
0.642482
0.642527
0.644593
0.64469
0.646687
0.646795
0.648969
0.649066
0.651716
0.651793
0.655164
0.655221
0.659503
0.659542
0.664877
0.664902
0.671382
0.671396
0.679069
0.679074
0.687958
0.687957
0.698059
0.698053
0.709379
0.709368
0.721922
0.721908
0.735692
0.735675
0.750673
0.750655
0.766818
0.766798
0.78403
0.784009
0.802175
0.802155
0.821106
0.821088
0.84068
0.840664
0.860805
0.86079
0.881471
0.881457
0.902706
0.902693
0.9245
0.924487
0.94676
0.946747
0.9693
0.969288
0.991854
0.991845
1.01413
1.01413
1.0359
1.0359
1.05703
1.05702
1.07752
1.07752
1.0975
1.09749
1.11714
1.11714
1.13667
1.13667
1.15628
1.15628
1.17611
1.17611
1.19625
1.19624
1.21672
1.21671
1.23753
1.23752
1.25863
1.25862
1.27996
1.27995
1.30143
1.30142
1.32298
1.32297
1.34456
1.34455
1.36615
1.36615
1.38779
1.38778
1.40949
1.40948
1.4313
1.43129
1.4533
1.45329
1.47559
1.47558
1.49827
1.49827
1.52145
1.52145
1.54521
1.5452
1.56958
1.56958
1.5946
1.5946
1.62032
1.62031
1.64679
1.64679
1.67413
1.67412
1.70244
1.70244
1.73191
1.7319
1.76269
1.76268
1.79495
1.79494
1.82885
1.82885
1.86456
1.86455
1.9022
1.9022
1.94193
1.94193
1.98388
1.98387
2.02814
2.02814
2.07484
2.07484
2.12409
2.12408
2.17597
2.17596
2.2306
2.2306
2.28808
2.28808
2.34852
2.34852
2.41203
2.41202
2.47869
2.47869
2.54862
2.54861
2.62188
2.62187
2.69854
2.69853
2.77866
2.77866
2.86231
2.8623
2.94954
2.94953
3.04039
3.04038
3.13492
3.13491
3.23317
3.23316
3.33519
3.33518
3.44104
3.44103
3.55079
3.55078
3.66449
3.66448
3.78222
3.78221
3.90405
3.90404
4.03006
4.03005
4.16034
4.16033
4.29499
4.29498
4.43409
4.43408
4.57774
4.57773
4.72603
4.72602
4.87904
4.87903
5.03685
5.03684
5.19954
5.19953
5.36717
5.36717
5.53983
5.53983
5.71759
5.71758
5.90052
5.90051
6.08869
6.08869
6.28219
6.28219
6.48111
6.4811
6.68556
6.68555
6.89563
6.89563
7.11145
7.11145
7.33314
7.33313
7.56079
7.56079
7.79453
7.79452
8.03445
8.03445
8.28065
8.28064
8.5332
8.5332
8.79217
8.79216
9.05759
9.05759
9.32949
9.32949
9.60789
9.60788
9.89277
9.89276
10.1841
10.1841
10.4819
10.4819
10.7861
10.7861
11.0966
11.0966
11.4134
11.4133
11.7364
11.7363
12.0655
12.0655
12.4007
12.4007
12.7419
12.7419
13.089
13.089
13.4419
13.4419
13.8006
13.8006
14.1648
14.1648
14.5345
14.5345
14.9096
14.9096
15.2898
15.2898
15.6752
15.6752
16.0654
16.0654
16.4604
16.4604
16.8599
16.8599
17.2638
17.2638
17.6717
17.6717
18.0834
18.0834
18.4987
18.4987
18.9173
18.9173
19.3388
19.3388
19.7628
19.7628
20.1891
20.1891
20.6173
20.6173
21.0468
21.0468
21.4773
21.4773
21.9081
21.9081
22.3388
22.3388
22.7687
22.7687
23.1972
23.1972
23.6237
23.6237
24.0474
24.0474
24.4675
24.4675
24.8832
24.8832
25.2937
25.2937
25.6979
25.6979
26.095
26.095
26.4837
26.4837
26.8632
26.8632
27.2323
27.2323
27.5898
27.5898
27.9346
27.9346
28.2653
28.2653
28.5806
28.5806
28.8794
28.8794
29.1602
29.1602
29.4217
29.4217
29.6628
29.6628
29.882
29.882
30.0783
30.0783
30.2504
30.2504
30.3976
30.3976
30.5188
30.5188
30.6133
30.6133
30.6806
30.6806
30.7203
30.7203
30.7322
30.7322
30.7165
30.7165
30.6736
30.6736
30.6042
30.6042
30.5094
30.5094
30.3907
30.3907
30.25
30.25
30.0898
30.0898
29.9131
29.9131
29.7229
29.7229
29.5228
29.5228
29.3163
29.3163
29.1078
29.1078
28.9017
28.9017
28.7027
28.7027
28.5156
28.5156
28.3453
28.3453
28.1966
28.1966
28.0744
28.0744
27.983
27.983
27.9263
27.9263
27.9081
27.9081
27.9313
27.9313
27.9981
27.9981
28.1103
28.1103
28.2686
28.2686
28.473
28.473
28.7225
28.7225
29.0155
29.0155
29.3497
29.3496
29.7216
29.7216
30.1276
30.1276
30.5632
30.5632
31.0235
31.0235
31.5034
31.5034
31.9972
31.9972
32.4993
32.4993
33.0041
33.0041
33.506
33.506
33.9994
33.9993
34.4788
34.4788
34.939
34.939
35.3753
35.3753
35.783
35.783
36.1582
36.1582
36.4969
36.4969
36.7957
36.7957
37.0515
37.0515
37.2622
37.2622
37.4259
37.4259
37.5409
37.5409
37.6056
37.6056
37.6195
37.6195
37.5821
37.5821
37.4931
37.4931
37.3529
37.3529
37.1618
37.1618
36.9207
36.9207
36.6304
36.6304
36.292
36.292
35.9069
35.9069
35.4764
35.4764
35.0022
35.0021
34.4856
34.4856
33.9285
33.9285
33.3323
33.3323
32.6986
32.6986
32.0291
32.0291
31.3253
31.3253
30.5886
30.5886
29.8203
29.8203
29.0214
29.0214
28.193
28.193
27.336
27.336
26.451
26.451
25.5384
25.5384
24.5985
24.5985
23.6311
23.6311
22.6359
22.6359
21.612
21.612
20.5581
20.5581
19.4723
19.4723
18.3522
18.3522
17.1941
17.1941
15.9935
15.9935
14.7439
14.7439
13.4369
13.4369
12.0609
12.0609
10.5997
10.5997
9.03127
9.03127
7.32719
7.3272
5.46208
5.46209
3.47175
3.47176
1.63645
1.63646
0.480518
0.48052
0.0679246
0.0679248
0.00301588
0.00301589
0.419203
0.419208
0.420337
0.420349
0.422496
0.422511
0.425574
0.425587
0.429521
0.429535
0.434292
0.434306
0.439742
0.439754
0.445638
0.445641
0.451696
0.451687
0.457698
0.457678
0.463394
0.463356
0.468411
0.468358
0.472375
0.472312
0.475164
0.475101
0.476991
0.476935
0.478265
0.478221
0.479429
0.479398
0.480826
0.480805
0.48268
0.482668
0.485183
0.485179
0.488503
0.488505
0.492735
0.492742
0.497906
0.497917
0.504008
0.504022
0.511032
0.511049
0.518976
0.518996
0.52783
0.527854
0.537589
0.53762
0.548259
0.548297
0.559781
0.55983
0.57187
0.571931
0.584007
0.58408
0.595598
0.595684
0.606166
0.606267
0.615379
0.615497
0.623023
0.623159
0.629085
0.629235
0.633747
0.633897
0.6373
0.637415
0.640112
0.640152
0.642501
0.642454
0.644664
0.644564
0.64677
0.646658
0.649041
0.648943
0.65177
0.651692
0.655202
0.655144
0.659526
0.659486
0.664888
0.664863
0.671385
0.671371
0.679066
0.67906
0.687951
0.687952
0.698049
0.698055
0.709366
0.709376
0.721908
0.721921
0.735676
0.735692
0.750657
0.750676
0.766802
0.766822
0.784015
0.784034
0.802161
0.80218
0.821095
0.821112
0.840671
0.840686
0.860797
0.860811
0.881464
0.881478
0.902699
0.902712
0.924493
0.924506
0.946752
0.946764
0.969292
0.969303
0.991847
0.991857
1.01413
1.01413
1.03589
1.0359
1.05702
1.05702
1.07751
1.07752
1.09749
1.09749
1.11713
1.11713
1.13666
1.13666
1.15627
1.15627
1.1761
1.1761
1.19623
1.19623
1.2167
1.21671
1.23751
1.23751
1.25861
1.25861
1.27994
1.27994
1.30141
1.30141
1.32296
1.32296
1.34454
1.34454
1.36613
1.36613
1.38776
1.38777
1.40946
1.40947
1.43127
1.43128
1.45327
1.45328
1.47556
1.47557
1.49825
1.49825
1.52143
1.52143
1.54518
1.54518
1.56955
1.56956
1.59458
1.59458
1.62029
1.62029
1.64677
1.64677
1.6741
1.6741
1.70242
1.70242
1.73188
1.73189
1.76266
1.76266
1.79492
1.79492
1.82883
1.82883
1.86453
1.86454
1.90218
1.90218
1.94191
1.94192
1.98385
1.98386
2.02812
2.02813
2.07482
2.07483
2.12406
2.12407
2.17595
2.17596
2.23058
2.23059
2.28806
2.28807
2.3485
2.34851
2.41201
2.41201
2.47867
2.47868
2.5486
2.54861
2.62186
2.62186
2.69852
2.69853
2.77865
2.77865
2.86229
2.8623
2.94952
2.94953
3.04037
3.04038
3.1349
3.13491
3.23315
3.23316
3.33517
3.33518
3.44103
3.44103
3.55077
3.55078
3.66448
3.66448
3.78221
3.78222
3.90404
3.90405
4.03005
4.03005
4.16033
4.16033
4.29497
4.29498
4.43407
4.43408
4.57772
4.57773
4.72601
4.72602
4.87902
4.87903
5.03684
5.03684
5.19952
5.19953
5.36716
5.36717
5.53982
5.53983
5.71758
5.71758
5.90051
5.90051
6.08868
6.08869
6.28218
6.28219
6.4811
6.48111
6.68554
6.68555
6.89562
6.89563
7.11144
7.11145
7.33312
7.33313
7.56078
7.56079
7.79452
7.79452
8.03444
8.03445
8.28064
8.28064
8.53319
8.5332
8.79216
8.79216
9.05758
9.05759
9.32948
9.32949
9.60788
9.60788
9.89276
9.89276
10.1841
10.1841
10.4819
10.4819
10.786
10.7861
11.0966
11.0966
11.4133
11.4133
11.7363
11.7363
12.0655
12.0655
12.4007
12.4007
12.7419
12.7419
13.089
13.089
13.4419
13.4419
13.8006
13.8006
14.1648
14.1648
14.5345
14.5345
14.9095
14.9096
15.2898
15.2898
15.6752
15.6752
16.0654
16.0654
16.4604
16.4604
16.8599
16.8599
17.2638
17.2638
17.6717
17.6717
18.0834
18.0834
18.4987
18.4987
18.9173
18.9173
19.3387
19.3387
19.7628
19.7628
20.1891
20.1891
20.6173
20.6173
21.0468
21.0468
21.4773
21.4773
21.9081
21.9081
22.3387
22.3387
22.7687
22.7687
23.1972
23.1972
23.6237
23.6237
24.0474
24.0474
24.4675
24.4675
24.8832
24.8832
25.2937
25.2937
25.6979
25.6979
26.095
26.095
26.4837
26.4837
26.8632
26.8632
27.2323
27.2323
27.5898
27.5898
27.9346
27.9346
28.2653
28.2653
28.5806
28.5806
28.8793
28.8793
29.1601
29.1601
29.4217
29.4217
29.6628
29.6628
29.882
29.882
30.0782
30.0782
30.2504
30.2504
30.3976
30.3976
30.5188
30.5188
30.6133
30.6133
30.6805
30.6805
30.7203
30.7203
30.7322
30.7322
30.7165
30.7165
30.6736
30.6736
30.6042
30.6042
30.5094
30.5094
30.3907
30.3907
30.25
30.25
30.0898
30.0898
29.913
29.913
29.7229
29.7229
29.5228
29.5227
29.3163
29.3163
29.1078
29.1078
28.9017
28.9017
28.7027
28.7027
28.5156
28.5156
28.3453
28.3453
28.1966
28.1966
28.0744
28.0744
27.9829
27.9829
27.9263
27.9263
27.9081
27.9081
27.9313
27.9313
27.9981
27.9981
28.1103
28.1103
28.2686
28.2686
28.473
28.473
28.7225
28.7225
29.0155
29.0155
29.3497
29.3497
29.7216
29.7216
30.1276
30.1276
30.5632
30.5632
31.0235
31.0235
31.5034
31.5034
31.9972
31.9972
32.4993
32.4993
33.0041
33.0041
33.506
33.506
33.9994
33.9994
34.4788
34.4788
34.939
34.939
35.3753
35.3753
35.783
35.783
36.1582
36.1582
36.4969
36.4969
36.7957
36.7957
37.0515
37.0515
37.2622
37.2622
37.4259
37.4259
37.5409
37.5409
37.6056
37.6056
37.6195
37.6195
37.5821
37.5821
37.4931
37.4931
37.3529
37.3529
37.1618
37.1618
36.9207
36.9207
36.6304
36.6304
36.292
36.292
35.9069
35.9069
35.4764
35.4764
35.0021
35.0022
34.4856
34.4856
33.9285
33.9285
33.3323
33.3323
32.6986
32.6986
32.0291
32.0291
31.3253
31.3253
30.5886
30.5886
29.8203
29.8203
29.0214
29.0214
28.193
28.193
27.336
27.336
26.451
26.451
25.5384
25.5384
24.5985
24.5985
23.6311
23.6311
22.6359
22.6359
21.612
21.612
20.5581
20.5581
19.4723
19.4723
18.3522
18.3522
17.1941
17.1941
15.9935
15.9935
14.7439
14.7439
13.4369
13.4369
12.0609
12.0609
10.5997
10.5997
9.03127
9.03126
7.32719
7.32719
5.46209
5.46208
3.47175
3.47175
1.63646
1.63645
0.48052
0.480518
0.0679247
0.0679245
0.00301589
0.00301588
)
;

boundaryField
{
    walls
    {
        type            kqRWallFunction;
        value           nonuniform List<scalar> 8(0.00301575 0.00301576 0.00301576 0.00301575 0.00301588 0.00301589 0.00301589 0.00301588);
    }
    inlet
    {
        type            cyclic;
    }
    outlet
    {
        type            cyclic;
    }
    sides
    {
        type            empty;
    }
}


// ************************************************************************* //
