/*--------------------------------*- C++ -*----------------------------------*\
| =========                 |                                                 |
| \\      /  F ield         | OpenFOAM: The Open Source CFD Toolbox           |
|  \\    /   O peration     | Version:  2012                                  |
|   \\  /    A nd           | Website:  www.openfoam.com                      |
|    \\/     M anipulation  |                                                 |
\*---------------------------------------------------------------------------*/
FoamFile
{
    version     2.0;
    format      ascii;
    class       surfaceScalarField;
    location    "12700";
    object      phi;
}
// * * * * * * * * * * * * * * * * * * * * * * * * * * * * * * * * * * * * * //

dimensions      [0 3 -1 0 0 0 0];
oriented        oriented;


internalField   nonuniform List<scalar> 
5116
(
5.51845e-07
1.45284e-10
-3.40131e-11
-9.30132e-11
2.79869e-11
1.68631e-06
2.9795e-10
-5.23722e-11
-2.36282e-10
4.31532e-11
2.86871e-06
4.41924e-10
-4.92765e-11
-3.71113e-10
4.06024e-11
4.10052e-06
5.48835e-10
-3.67215e-11
-4.71566e-10
3.02574e-11
5.38325e-06
6.1454e-10
-2.24784e-11
-5.33084e-10
1.85215e-11
6.71842e-06
6.54358e-10
-1.37167e-11
-5.70599e-10
1.13022e-11
8.10766e-06
6.81197e-10
-9.1573e-12
-5.9567e-10
7.54534e-12
9.55272e-06
7.00565e-10
-6.69438e-12
-6.13975e-10
5.51596e-12
1.10554e-05
7.15975e-10
-5.24501e-12
-6.28341e-10
4.32171e-12
1.26178e-05
7.28436e-10
-4.32169e-12
-6.40155e-10
3.56092e-12
1.4242e-05
7.39326e-10
-3.69526e-12
-6.50281e-10
3.04475e-12
1.59302e-05
7.48669e-10
-3.2492e-12
-6.59163e-10
2.6772e-12
1.76848e-05
7.57291e-10
-2.91958e-12
-6.67167e-10
2.40559e-12
1.95082e-05
7.64946e-10
-2.66894e-12
-6.74461e-10
2.19906e-12
2.14032e-05
7.7227e-10
-2.47412e-12
-6.81248e-10
2.03853e-12
2.33725e-05
7.78912e-10
-2.32013e-12
-6.87589e-10
1.91163e-12
2.54188e-05
7.85424e-10
-2.19687e-12
-6.93618e-10
1.81006e-12
2.75452e-05
7.9142e-10
-2.09735e-12
-6.9935e-10
1.72804e-12
2.97548e-05
7.97407e-10
-2.01656e-12
-7.04887e-10
1.66146e-12
3.20506e-05
8.02977e-10
-1.95085e-12
-7.1022e-10
1.60731e-12
3.44359e-05
8.08615e-10
-1.89751e-12
-7.15432e-10
1.56335e-12
3.69139e-05
8.13905e-10
-1.85448e-12
-7.20502e-10
1.52787e-12
3.9488e-05
8.19319e-10
-1.82017e-12
-7.25504e-10
1.49958e-12
4.21614e-05
8.24432e-10
-1.79334e-12
-7.30408e-10
1.47746e-12
4.49375e-05
8.29707e-10
-1.77302e-12
-7.35282e-10
1.46071e-12
4.78196e-05
8.34719e-10
-1.75846e-12
-7.40092e-10
1.44869e-12
5.0811e-05
8.39924e-10
-1.74902e-12
-7.44902e-10
1.44089e-12
5.39147e-05
8.44896e-10
-1.74423e-12
-7.49674e-10
1.43692e-12
5.71338e-05
8.50086e-10
-1.74367e-12
-7.54472e-10
1.43644e-12
6.04713e-05
8.55066e-10
-1.74704e-12
-7.59254e-10
1.43919e-12
6.39298e-05
8.60286e-10
-1.75408e-12
-7.64081e-10
1.44497e-12
6.7512e-05
8.65319e-10
-1.76459e-12
-7.68913e-10
1.4536e-12
7.12201e-05
8.7061e-10
-1.77841e-12
-7.73809e-10
1.46496e-12
7.50562e-05
8.75733e-10
-1.79542e-12
-7.78728e-10
1.47895e-12
7.90219e-05
8.81134e-10
-1.81553e-12
-7.83728e-10
1.49549e-12
8.31186e-05
8.86383e-10
-1.83867e-12
-7.88767e-10
1.51452e-12
8.73473e-05
8.91928e-10
-1.86481e-12
-7.93905e-10
1.53603e-12
9.17086e-05
8.97339e-10
-1.89393e-12
-7.99098e-10
1.55999e-12
9.62024e-05
9.03064e-10
-1.92603e-12
-8.04405e-10
1.58639e-12
0.000100828
9.08671e-10
-1.96111e-12
-8.09785e-10
1.61526e-12
0.000105586
9.1461e-10
-1.99921e-12
-8.15296e-10
1.64661e-12
0.000110473
9.2045e-10
-2.04038e-12
-8.20896e-10
1.68049e-12
0.000115487
9.26638e-10
-2.08466e-12
-8.26644e-10
1.71693e-12
0.000120626
9.32747e-10
-2.13212e-12
-8.32499e-10
1.75598e-12
0.000125886
9.39223e-10
-2.18282e-12
-8.38519e-10
1.79771e-12
0.000131264
9.45638e-10
-2.23686e-12
-8.44664e-10
1.84218e-12
0.000136753
9.5244e-10
-2.2943e-12
-8.50994e-10
1.88945e-12
0.000142348
9.59201e-10
-2.35524e-12
-8.57467e-10
1.93961e-12
0.000148044
9.66371e-10
-2.41977e-12
-8.64145e-10
1.99271e-12
0.000153831
9.7352e-10
-2.48798e-12
-8.70986e-10
2.04885e-12
0.000159703
9.811e-10
-2.55994e-12
-8.78052e-10
2.10808e-12
0.000165651
9.88682e-10
-2.63576e-12
-8.85304e-10
2.17047e-12
0.000171664
9.96717e-10
-2.71548e-12
-8.92801e-10
2.23608e-12
0.000177731
1.00478e-09
-2.79917e-12
-9.00506e-10
2.30496e-12
0.000183843
1.01331e-09
-2.88687e-12
-9.08478e-10
2.37714e-12
0.000189986
1.0219e-09
-2.9786e-12
-9.1668e-10
2.45263e-12
0.000196146
1.03098e-09
-3.07435e-12
-9.25171e-10
2.53143e-12
0.000202312
1.04014e-09
-3.17408e-12
-9.33915e-10
2.61351e-12
0.000208468
1.04982e-09
-3.27771e-12
-9.42971e-10
2.6988e-12
0.000214599
1.0596e-09
-3.38512e-12
-9.523e-10
2.78721e-12
0.00022069
1.06992e-09
-3.49616e-12
-9.61962e-10
2.87859e-12
0.000226725
1.08035e-09
-3.61061e-12
-9.71917e-10
2.97278e-12
0.000232687
1.09135e-09
-3.7282e-12
-9.82222e-10
3.06956e-12
0.000238561
1.10248e-09
-3.84864e-12
-9.92837e-10
3.16868e-12
0.000244329
1.11419e-09
-3.97156e-12
-1.00382e-09
3.26985e-12
0.000249974
1.12605e-09
-4.09658e-12
-1.01512e-09
3.37274e-12
0.000255481
1.1385e-09
-4.22328e-12
-1.0268e-09
3.47701e-12
0.000260834
1.1511e-09
-4.35125e-12
-1.03881e-09
3.58232e-12
0.000266016
1.1643e-09
-4.48005e-12
-1.05121e-09
3.68832e-12
0.000271012
1.17766e-09
-4.6093e-12
-1.06394e-09
3.79469e-12
0.000275809
1.19161e-09
-4.73865e-12
-1.07705e-09
3.90114e-12
0.000280394
1.20573e-09
-4.86783e-12
-1.09051e-09
4.00745e-12
0.000284755
1.22044e-09
-4.99665e-12
-1.10434e-09
4.11346e-12
0.00028888
1.23531e-09
-5.12502e-12
-1.11852e-09
4.2191e-12
0.000292761
1.25078e-09
-5.25296e-12
-1.13307e-09
4.3244e-12
0.000296391
1.2664e-09
-5.38065e-12
-1.14796e-09
4.42947e-12
0.000299762
1.28261e-09
-5.50832e-12
-1.16322e-09
4.53454e-12
0.000302871
1.29898e-09
-5.63637e-12
-1.17883e-09
4.63991e-12
0.000305715
1.31594e-09
-5.76526e-12
-1.19482e-09
4.74597e-12
0.000308293
1.33307e-09
-5.89555e-12
-1.21116e-09
4.85319e-12
0.000310606
1.35081e-09
-6.02786e-12
-1.22788e-09
4.96207e-12
0.000312657
1.36873e-09
-6.16287e-12
-1.24497e-09
5.07317e-12
0.000314448
1.38726e-09
-6.30127e-12
-1.26247e-09
5.18707e-12
0.000315986
1.406e-09
-6.44381e-12
-1.28035e-09
5.30436e-12
0.000317277
1.42539e-09
-6.59119e-12
-1.29866e-09
5.42565e-12
0.000318329
1.44501e-09
-6.74418e-12
-1.31739e-09
5.55155e-12
0.000319151
1.46532e-09
-6.90346e-12
-1.33657e-09
5.68264e-12
0.000319753
1.4859e-09
-7.06978e-12
-1.35622e-09
5.8195e-12
0.000320146
1.5072e-09
-7.2438e-12
-1.37636e-09
5.96272e-12
0.000320339
1.52882e-09
-7.42623e-12
-1.397e-09
6.11285e-12
0.000320346
1.55122e-09
-7.61769e-12
-1.41819e-09
6.27042e-12
0.000320178
1.57399e-09
-7.81885e-12
-1.43993e-09
6.43597e-12
0.000319846
1.5976e-09
-8.03034e-12
-1.46228e-09
6.61003e-12
0.000319363
1.62164e-09
-8.25279e-12
-1.48523e-09
6.79311e-12
0.000318741
1.64659e-09
-8.48681e-12
-1.50885e-09
6.98571e-12
0.000317991
1.67204e-09
-8.73303e-12
-1.53315e-09
7.18836e-12
0.000317125
1.69846e-09
-8.99206e-12
-1.55818e-09
7.40156e-12
0.000316153
1.72547e-09
-9.26454e-12
-1.58395e-09
7.62582e-12
0.000315086
1.75353e-09
-9.5511e-12
-1.61054e-09
7.86168e-12
0.000313935
1.78226e-09
-9.85239e-12
-1.63795e-09
8.10966e-12
0.000312707
1.81213e-09
-1.01691e-11
-1.66626e-09
8.37033e-12
0.000311414
1.84276e-09
-1.05018e-11
-1.69548e-09
8.64421e-12
0.000310061
1.87463e-09
-1.08514e-11
-1.72567e-09
8.93193e-12
0.000308659
1.90736e-09
-1.12184e-11
-1.75688e-09
9.23404e-12
0.000307212
1.94142e-09
-1.16037e-11
-1.78916e-09
9.55122e-12
0.000305729
1.97646e-09
-1.20081e-11
-1.82256e-09
9.88406e-12
0.000304215
2.01295e-09
-1.24323e-11
-1.85714e-09
1.02333e-11
0.000302675
2.05053e-09
-1.28773e-11
-1.89294e-09
1.05995e-11
0.000301114
2.08968e-09
-1.33438e-11
-1.93004e-09
1.09836e-11
0.000299536
2.13006e-09
-1.38329e-11
-1.96848e-09
1.13863e-11
0.000297946
2.17214e-09
-1.43456e-11
-2.00835e-09
1.18083e-11
0.000296346
2.21558e-09
-1.48827e-11
-2.04969e-09
1.22505e-11
0.00029474
2.26088e-09
-1.54456e-11
-2.0926e-09
1.27139e-11
0.00029313
2.30769e-09
-1.60351e-11
-2.13712e-09
1.31992e-11
0.000291519
2.35651e-09
-1.66525e-11
-2.18336e-09
1.37076e-11
0.000289908
2.40702e-09
-1.72991e-11
-2.23136e-09
1.42398e-11
0.000288299
2.4597e-09
-1.79762e-11
-2.28125e-09
1.47973e-11
0.000286694
2.51426e-09
-1.8685e-11
-2.33308e-09
1.53809e-11
0.000285093
2.57118e-09
-1.94271e-11
-2.38696e-09
1.5992e-11
0.000283498
2.63018e-09
-2.02038e-11
-2.44297e-09
1.66315e-11
0.000281908
2.69174e-09
-2.10171e-11
-2.50124e-09
1.73012e-11
0.000280325
2.7556e-09
-2.1868e-11
-2.56183e-09
1.80018e-11
0.00027875
2.82225e-09
-2.27589e-11
-2.62489e-09
1.87355e-11
0.000277181
2.89143e-09
-2.3691e-11
-2.69049e-09
1.9503e-11
0.00027562
2.96365e-09
-2.4667e-11
-2.7588e-09
2.03069e-11
0.000274067
3.03866e-09
-2.56879e-11
-2.8299e-09
2.11475e-11
0.000272521
3.11698e-09
-2.67571e-11
-2.90396e-09
2.20282e-11
0.000270984
3.19837e-09
-2.78752e-11
-2.98107e-09
2.2949e-11
0.000269454
3.28338e-09
-2.90466e-11
-3.06142e-09
2.39139e-11
0.000267933
3.37177e-09
-3.02713e-11
-3.14512e-09
2.49225e-11
0.00026642
3.4641e-09
-3.15548e-11
-3.23236e-09
2.598e-11
0.000264917
3.56015e-09
-3.28964e-11
-3.32327e-09
2.70848e-11
0.000263423
3.66049e-09
-3.43031e-11
-3.41807e-09
2.82439e-11
0.000261939
3.76494e-09
-3.57729e-11
-3.51688e-09
2.94544e-11
0.000260465
3.87407e-09
-3.7315e-11
-3.61995e-09
3.07253e-11
0.000259003
3.98772e-09
-3.89254e-11
-3.72742e-09
3.20516e-11
0.000257554
4.10648e-09
-4.06166e-11
-3.83956e-09
3.34456e-11
0.000256117
4.23022e-09
-4.23814e-11
-3.95652e-09
3.48989e-11
0.000254694
4.35954e-09
-4.42367e-11
-4.07859e-09
3.64286e-11
0.000253285
4.49433e-09
-4.61709e-11
-4.20596e-09
3.80214e-11
0.000251892
4.63524e-09
-4.82073e-11
-4.33894e-09
3.97009e-11
0.000250516
4.78216e-09
-5.03273e-11
-4.47771e-09
4.14464e-11
0.000249157
4.93578e-09
-5.25635e-11
-4.62265e-09
4.32914e-11
0.000247819
5.096e-09
-5.48872e-11
-4.77394e-09
4.52043e-11
0.000246501
5.26356e-09
-5.73444e-11
-4.932e-09
4.72325e-11
0.000245206
5.43839e-09
-5.98911e-11
-5.09702e-09
4.93284e-11
0.000243937
5.62126e-09
-6.25931e-11
-5.26949e-09
5.156e-11
0.000242694
5.8121e-09
-6.53837e-11
-5.44958e-09
5.38556e-11
0.000241481
6.01179e-09
-6.83572e-11
-5.63787e-09
5.63133e-11
0.0002403
6.22023e-09
-7.14136e-11
-5.83451e-09
5.88262e-11
0.000239153
6.43837e-09
-7.46892e-11
-6.04018e-09
6.1536e-11
0.000238043
6.66613e-09
-7.80343e-11
-6.25499e-09
6.42841e-11
0.000236973
6.90457e-09
-8.16472e-11
-6.47976e-09
6.72765e-11
0.000235945
7.15353e-09
-8.53041e-11
-6.71451e-09
7.02773e-11
0.000234963
7.41428e-09
-8.92949e-11
-6.96027e-09
7.35878e-11
0.00023403
7.68652e-09
-9.32859e-11
-7.21692e-09
7.68576e-11
0.000233147
7.97179e-09
-9.77027e-11
-7.48576e-09
8.05286e-11
0.000232317
8.26959e-09
-1.02048e-10
-7.76644e-09
8.40809e-11
0.000231542
8.58182e-09
-1.06948e-10
-8.06067e-09
8.81642e-11
0.000230822
8.90766e-09
-1.11662e-10
-8.36773e-09
9.20067e-11
0.000230158
9.24955e-09
-1.17117e-10
-8.68988e-09
9.65666e-11
0.000229549
9.60615e-09
-1.22207e-10
-9.02585e-09
1.00698e-10
0.000228992
9.98067e-09
-1.28306e-10
-9.37874e-09
1.05817e-10
0.000228484
1.0371e-08
-1.33763e-10
-9.7464e-09
1.1022e-10
0.000228021
1.07814e-08
-1.40623e-10
-1.01331e-08
1.16009e-10
0.000227599
1.12086e-08
-1.46417e-10
-1.05355e-08
1.20643e-10
0.000227212
1.16587e-08
-1.54194e-10
-1.09595e-08
1.27248e-10
0.000226857
1.21262e-08
-1.60256e-10
-1.13998e-08
1.32035e-10
0.00022653
1.26199e-08
-1.69164e-10
-1.18649e-08
1.39662e-10
0.000226227
1.31315e-08
-1.75369e-10
-1.23466e-08
1.44464e-10
0.00022595
1.36735e-08
-1.8571e-10
-1.28573e-08
1.53407e-10
0.000225698
1.42331e-08
-1.91839e-10
-1.3384e-08
1.57989e-10
0.000225475
1.48286e-08
-2.04041e-10
-1.39452e-08
1.68665e-10
0.000225285
1.54403e-08
-2.09733e-10
-1.45208e-08
1.72654e-10
0.000225134
1.60953e-08
-2.24417e-10
-1.51381e-08
1.85673e-10
0.000225026
1.67634e-08
-2.29089e-10
-1.57666e-08
1.88467e-10
0.000224967
1.74849e-08
-2.47169e-10
-1.64468e-08
2.04733e-10
0.00022496
1.82134e-08
-2.49887e-10
-1.71319e-08
2.0538e-10
0.000225008
1.90096e-08
-2.72725e-10
-1.78827e-08
2.26244e-10
0.000225114
1.98025e-08
-2.72015e-10
-1.86279e-08
2.23249e-10
0.000225278
2.06834e-08
-3.01661e-10
-1.9459e-08
2.50751e-10
0.0002255
2.15435e-08
-2.95204e-10
-2.02669e-08
2.41773e-10
0.000225776
2.25214e-08
-3.34778e-10
-2.11901e-08
2.79021e-10
0.000226104
2.34639e-08
-3.23467e-10
-2.20754e-08
2.65091e-10
0.000226478
2.45539e-08
-3.73028e-10
-2.31056e-08
3.11969e-10
0.000226896
2.56398e-08
-3.72143e-10
-2.41287e-08
3.08228e-10
0.000227352
2.68586e-08
-4.16902e-10
-2.52818e-08
3.5005e-10
0.000227846
2.81078e-08
-4.27545e-10
-2.64622e-08
3.5758e-10
0.000228374
2.9473e-08
-4.66697e-10
-2.77554e-08
3.9352e-10
0.000228938
3.09069e-08
-4.90183e-10
-2.91139e-08
4.13617e-10
0.000229544
3.2345e-08
-4.92105e-10
-3.04731e-08
4.11985e-10
0.000230196
3.38849e-08
-5.26637e-10
-3.19304e-08
4.4284e-10
0.0002309
3.53947e-08
-5.17223e-10
-3.33538e-08
4.29545e-10
0.00023166
3.70511e-08
-5.66742e-10
-3.49198e-08
4.75072e-10
0.000232478
3.86401e-08
-5.4489e-10
-3.64141e-08
4.48991e-10
0.000233356
4.04273e-08
-6.11676e-10
-3.81025e-08
5.11453e-10
0.000234297
4.21524e-08
-5.91666e-10
-3.9724e-08
4.86646e-10
0.000235298
4.40871e-08
-6.62251e-10
-4.15507e-08
5.52759e-10
0.000236358
4.59963e-08
-6.54514e-10
-4.33468e-08
5.3986e-10
0.000237471
4.80957e-08
-7.18692e-10
-4.53284e-08
5.9918e-10
0.00023862
5.0201e-08
-7.21434e-10
-4.73103e-08
5.96381e-10
0.00023979
5.24827e-08
-7.81083e-10
-4.94637e-08
6.50773e-10
0.000240958
5.47973e-08
-7.92877e-10
-5.16439e-08
6.56633e-10
0.000242099
5.72791e-08
-8.49532e-10
-5.39861e-08
7.07619e-10
0.000243184
5.98173e-08
-8.69196e-10
-5.63782e-08
7.20954e-10
0.000244187
6.25176e-08
-9.24175e-10
-5.89267e-08
7.69835e-10
0.000245086
6.52949e-08
-9.50798e-10
-6.15454e-08
7.89719e-10
0.000245863
6.82323e-08
-1.00519e-09
-6.43183e-08
8.37576e-10
0.000246514
7.12654e-08
-1.03807e-09
-6.71795e-08
8.63298e-10
0.000247038
7.44594e-08
-1.09279e-09
-7.01953e-08
9.11039e-10
0.000247436
7.77662e-08
-1.13141e-09
-7.3316e-08
9.42065e-10
0.000247705
8.1237e-08
-1.18725e-09
-7.65939e-08
9.90462e-10
0.000247834
8.48365e-08
-1.23122e-09
-7.99922e-08
1.02641e-09
0.000247808
8.86052e-08
-1.28886e-09
-8.35524e-08
1.07613e-09
0.000247609
9.25178e-08
-1.33797e-09
-8.72479e-08
1.11675e-09
0.000247215
9.66067e-08
-1.39803e-09
-9.11118e-08
1.1684e-09
0.000246604
1.00854e-07
-1.4522e-09
-9.51254e-08
1.21361e-09
0.000245758
1.05288e-07
-1.51531e-09
-9.93158e-08
1.26778e-09
0.000244654
1.09895e-07
-1.57463e-09
-1.03671e-07
1.31763e-09
0.000243276
1.14698e-07
-1.64145e-09
-1.08213e-07
1.37495e-09
0.000241619
1.19692e-07
-1.7062e-09
-1.12935e-07
1.42965e-09
0.000239692
1.24895e-07
-1.77746e-09
-1.17856e-07
1.49078e-09
0.000237525
1.30305e-07
-1.84807e-09
-1.22975e-07
1.55071e-09
0.000235155
1.3594e-07
-1.92456e-09
-1.28307e-07
1.61636e-09
0.000232624
1.41802e-07
-2.00155e-09
-1.33855e-07
1.68195e-09
0.000229962
1.47906e-07
-2.08401e-09
-1.39633e-07
1.7528e-09
0.000227182
1.54257e-07
-2.16793e-09
-1.45646e-07
1.82454e-09
0.000224271
1.6087e-07
-2.25709e-09
-1.5191e-07
1.90126e-09
0.000221192
1.67753e-07
-2.34855e-09
-1.58429e-07
1.97969e-09
0.000217905
1.74919e-07
-2.44525e-09
-1.6522e-07
2.06302e-09
0.000214381
1.82381e-07
-2.54506e-09
-1.7229e-07
2.14885e-09
0.00021062
1.90151e-07
-2.65032e-09
-1.79656e-07
2.23972e-09
0.000206647
1.98244e-07
-2.75952e-09
-1.8733e-07
2.33386e-09
0.000202488
2.06675e-07
-2.8745e-09
-1.95326e-07
2.43329e-09
0.000198174
2.1546e-07
-2.99421e-09
-2.03659e-07
2.53674e-09
0.000193727
2.24615e-07
-3.12011e-09
-2.12346e-07
2.64579e-09
0.000189183
2.34158e-07
-3.25147e-09
-2.21403e-07
2.75957e-09
0.000184588
2.44108e-07
-3.38946e-09
-2.30848e-07
2.87928e-09
0.000179996
2.54483e-07
-3.53355e-09
-2.407e-07
3.00435e-09
0.000175457
2.65303e-07
-3.68464e-09
-2.50978e-07
3.13566e-09
0.000170985
2.76589e-07
-3.84234e-09
-2.617e-07
3.27285e-09
0.000166549
2.88362e-07
-4.0074e-09
-2.72889e-07
3.41654e-09
0.000162078
3.00644e-07
-4.1796e-09
-2.84564e-07
3.56668e-09
0.000157466
3.13457e-07
-4.35967e-09
-2.96747e-07
3.72371e-09
0.0001526
3.26825e-07
-4.54766e-09
-3.09463e-07
3.88797e-09
0.000147381
3.40775e-07
-4.74438e-09
-3.22734e-07
4.05978e-09
0.000141713
3.55333e-07
-4.95019e-09
-3.36588e-07
4.23997e-09
0.000135518
3.70528e-07
-5.16611e-09
-3.51053e-07
4.42873e-09
0.000128792
3.86395e-07
-5.39277e-09
-3.6616e-07
4.6275e-09
0.000121644
4.02965e-07
-5.6313e-09
-3.81942e-07
4.83609e-09
0.000114283
4.20278e-07
-5.8823e-09
-3.98436e-07
5.05646e-09
0.000106959
4.38372e-07
-6.14662e-09
-4.15677e-07
5.28754e-09
9.9901e-05
4.57287e-07
-6.42442e-09
-4.33706e-07
5.53171e-09
9.33164e-05
4.77064e-07
-6.71608e-09
-4.5256e-07
5.78656e-09
8.73613e-05
4.97744e-07
-7.02127e-09
-4.7228e-07
6.05519e-09
8.20351e-05
5.19365e-07
-7.34015e-09
-4.92902e-07
6.33367e-09
7.71293e-05
5.4197e-07
-7.67229e-09
-5.14468e-07
6.62666e-09
7.23265e-05
5.65595e-07
-8.01823e-09
-5.3701e-07
6.92855e-09
6.7386e-05
5.90285e-07
-8.37762e-09
-5.60576e-07
7.24641e-09
6.23184e-05
6.16078e-07
-8.75127e-09
-5.85197e-07
7.57202e-09
5.73675e-05
6.43018e-07
-9.13837e-09
-6.10921e-07
7.91537e-09
5.28679e-05
6.71141e-07
-9.53965e-09
-6.37776e-07
8.26425e-09
4.90935e-05
7.00492e-07
-9.95341e-09
-6.65812e-07
8.63259e-09
4.62119e-05
7.31101e-07
-1.03805e-08
-6.95051e-07
9.00288e-09
4.43201e-05
7.63012e-07
-1.08187e-08
-7.25545e-07
9.39502e-09
4.33653e-05
7.9625e-07
-1.12699e-08
-7.57305e-07
9.78489e-09
4.31388e-05
8.30863e-07
-1.17315e-08
-7.90394e-07
1.02011e-08
4.33932e-05
8.66871e-07
-1.22067e-08
-8.24814e-07
1.06102e-08
4.39105e-05
9.0433e-07
-1.26923e-08
-8.60639e-07
1.10521e-08
4.44816e-05
9.43254e-07
-1.31919e-08
-8.97859e-07
1.14805e-08
4.48554e-05
9.83705e-07
-1.3702e-08
-9.36565e-07
1.19499e-08
4.4722e-05
1.02569e-06
-1.42256e-08
-9.76729e-07
1.23962e-08
4.37753e-05
1.06928e-06
-1.47593e-08
-1.01846e-06
1.28938e-08
4.17568e-05
1.11446e-06
-1.53045e-08
-1.0617e-06
1.33543e-08
3.84803e-05
1.16131e-06
-1.58593e-08
-1.10658e-06
1.38785e-08
3.38735e-05
1.20981e-06
-1.64218e-08
-1.153e-06
1.43472e-08
2.78858e-05
1.26003e-06
-1.69948e-08
-1.20113e-06
1.4896e-08
2.04181e-05
1.31192e-06
-1.75709e-08
-1.25083e-06
1.53664e-08
1.14971e-05
1.3656e-06
-1.81597e-08
-1.30229e-06
1.59373e-08
1.33418e-06
1.42096e-06
-1.87435e-08
-1.35531e-06
1.64002e-08
-9.86993e-06
1.47811e-06
-1.93318e-08
-1.41011e-06
1.69778e-08
-2.21038e-05
1.5372e-06
-2.0005e-08
-1.46671e-06
1.75129e-08
-3.55483e-05
1.59851e-06
-2.07339e-08
-1.52554e-06
1.82368e-08
-5.03009e-05
1.66225e-06
-2.15755e-08
-1.58662e-06
1.89174e-08
-6.61257e-05
1.7289e-06
-2.25242e-08
-1.65061e-06
1.98645e-08
-8.24902e-05
1.79869e-06
-2.36097e-08
-1.71756e-06
2.07615e-08
-9.87738e-05
1.87234e-06
-2.48697e-08
-1.78837e-06
2.20217e-08
-0.000114512
1.95005e-06
-2.62646e-08
-1.86302e-06
2.31976e-08
-0.000129241
2.03284e-06
-2.79204e-08
-1.94274e-06
2.48553e-08
-0.000142116
2.12072e-06
-2.9661e-08
-2.02731e-06
2.63473e-08
-0.000152122
2.21509e-06
-3.17786e-08
-2.11836e-06
2.84702e-08
-0.000158711
2.3155e-06
-3.38388e-08
-2.21519e-06
3.02564e-08
-0.00016225
2.42389e-06
-3.64443e-08
-2.32001e-06
3.28726e-08
-0.000163925
2.53906e-06
-3.87417e-08
-2.4313e-06
3.48771e-08
-0.000165222
2.66384e-06
-4.18918e-08
-2.55223e-06
3.80412e-08
-0.000167261
2.79594e-06
-4.4364e-08
-2.68015e-06
4.02082e-08
-0.000170238
2.93982e-06
-4.82293e-08
-2.81988e-06
4.40851e-08
-0.000173523
3.09144e-06
-5.08334e-08
-2.96703e-06
4.63805e-08
-0.000176215
3.25784e-06
-5.56981e-08
-3.12896e-06
5.12456e-08
-0.000177463
3.43202e-06
-5.82959e-08
-3.29837e-06
5.3542e-08
-0.000176664
3.62503e-06
-6.45155e-08
-3.48659e-06
5.97388e-08
-0.000173608
3.82489e-06
-6.67787e-08
-3.68137e-06
6.17207e-08
-0.000168537
4.049e-06
-7.48168e-08
-3.90035e-06
6.96954e-08
-0.000161688
4.27745e-06
-7.62121e-08
-4.12341e-06
7.08433e-08
-0.000152664
4.53756e-06
-8.67496e-08
-4.37803e-06
8.12541e-08
-0.000140771
4.79735e-06
-8.65189e-08
-4.63201e-06
8.08225e-08
-0.000126198
5.09883e-06
-1.00463e-07
-4.92756e-06
9.45457e-08
-0.000109843
5.39261e-06
-9.75348e-08
-5.21463e-06
9.14745e-08
-9.30897e-05
5.74068e-06
-1.15948e-07
-5.55609e-06
1.09537e-07
-7.73553e-05
6.06923e-06
-1.09026e-07
-5.87767e-06
1.02548e-07
-6.34369e-05
6.46872e-06
-1.33063e-07
-6.27028e-06
1.26074e-07
-5.07926e-05
5.88438e-06
1.95175e-07
-5.69652e-06
-1.84861e-07
-3.94386e-05
5.33106e-06
1.84668e-07
-5.15402e-06
-1.74192e-07
-2.94714e-05
4.67656e-06
2.18632e-07
-4.51109e-06
-2.07291e-07
-2.17865e-05
4.04599e-06
2.10558e-07
-3.89233e-06
-1.98934e-07
-1.61355e-05
3.31191e-06
2.45232e-07
-3.17082e-06
-2.32771e-07
-1.10486e-05
2.58865e-06
2.41546e-07
-2.46048e-06
-2.28716e-07
-5.19551e-06
1.76689e-06
2.74514e-07
-1.65241e-06
-2.60857e-07
4.64516e-07
9.35767e-07
2.77569e-07
-8.35379e-07
-2.63486e-07
3.97791e-06
3.04516e-07
2.41759e-08
-2.89648e-07
6.13418e-08
5.51907e-07
-9.2922e-11
8.69728e-11
1.6864e-06
-2.36113e-10
2.21064e-10
2.8688e-06
-3.7085e-10
3.47212e-10
4.10059e-06
-4.71258e-10
4.41234e-10
5.38329e-06
-5.32725e-10
4.98772e-10
6.71845e-06
-5.7023e-10
5.33901e-10
8.10768e-06
-5.9527e-10
5.57336e-10
9.55273e-06
-6.13573e-10
5.74487e-10
1.10555e-05
-6.27916e-10
5.87908e-10
1.26178e-05
-6.39731e-10
5.98985e-10
1.4242e-05
-6.49836e-10
6.0844e-10
1.59302e-05
-6.58718e-10
6.16772e-10
1.76848e-05
-6.66702e-10
6.24243e-10
1.95082e-05
-6.73997e-10
6.3109e-10
2.14032e-05
-6.80763e-10
6.37421e-10
2.33725e-05
-6.87104e-10
6.43376e-10
2.54188e-05
-6.93112e-10
6.48999e-10
2.75452e-05
-6.98843e-10
6.54385e-10
2.97548e-05
-7.04358e-10
6.59547e-10
3.20506e-05
-7.09689e-10
6.64559e-10
3.44359e-05
-7.14879e-10
6.69417e-10
3.69139e-05
-7.19946e-10
6.74183e-10
3.9488e-05
-7.24925e-10
6.78844e-10
4.21614e-05
-7.29825e-10
6.83455e-10
4.49375e-05
-7.34675e-10
6.87997e-10
4.78196e-05
-7.39479e-10
6.9252e-10
5.0811e-05
-7.44264e-10
6.97001e-10
5.39147e-05
-7.4903e-10
7.01489e-10
5.71338e-05
-7.53801e-10
7.05957e-10
6.04713e-05
-7.58574e-10
7.10454e-10
6.39298e-05
-7.63373e-10
7.1495e-10
6.7512e-05
-7.68195e-10
7.19494e-10
7.12201e-05
-7.73061e-10
7.24054e-10
7.50562e-05
-7.77968e-10
7.28679e-10
7.90219e-05
-7.82936e-10
7.33335e-10
8.31186e-05
-7.87961e-10
7.38072e-10
8.73473e-05
-7.93064e-10
7.42857e-10
9.17086e-05
-7.98241e-10
7.47738e-10
9.62024e-05
-8.03512e-10
7.52681e-10
0.000100828
-8.08872e-10
7.57736e-10
0.000105586
-8.14344e-10
7.62869e-10
0.000110473
-8.19921e-10
7.6813e-10
0.000115487
-8.25627e-10
7.73484e-10
0.000120626
-8.31455e-10
7.78982e-10
0.000125886
-8.3743e-10
7.84591e-10
0.000131264
-8.43545e-10
7.90361e-10
0.000136753
-8.49824e-10
7.96257e-10
0.000142348
-8.56264e-10
8.02334e-10
0.000148044
-8.62887e-10
8.08556e-10
0.000153831
-8.6969e-10
8.14976e-10
0.000159703
-8.76696e-10
8.21561e-10
0.000165651
-8.83904e-10
8.28364e-10
0.000171664
-8.91335e-10
8.35352e-10
0.000177731
-8.9899e-10
8.42578e-10
0.000183843
-9.06891e-10
8.50009e-10
0.000189986
-9.15036e-10
8.57701e-10
0.000196146
-9.2345e-10
8.65617e-10
0.000202312
-9.32131e-10
8.73815e-10
0.000208468
-9.41101e-10
8.82258e-10
0.000214599
-9.50359e-10
8.91003e-10
0.00022069
-9.59927e-10
9.00012e-10
0.000226725
-9.69801e-10
9.09342e-10
0.000232687
-9.80005e-10
9.18952e-10
0.000238561
-9.90531e-10
9.28899e-10
0.000244329
-1.0014e-09
9.39139e-10
0.000249974
-1.0126e-09
9.4973e-10
0.000255481
-1.02416e-09
9.60624e-10
0.000260834
-1.03606e-09
9.71877e-10
0.000266016
-1.04833e-09
9.83437e-10
0.000271012
-1.06093e-09
9.95363e-10
0.000275809
-1.07391e-09
1.0076e-09
0.000280394
-1.08722e-09
1.0202e-09
0.000284755
-1.1009e-09
1.0331e-09
0.00028888
-1.11492e-09
1.04637e-09
0.000292761
-1.1293e-09
1.05995e-09
0.000296391
-1.14402e-09
1.07389e-09
0.000299762
-1.15911e-09
1.08813e-09
0.000302871
-1.17453e-09
1.10275e-09
0.000305715
-1.19032e-09
1.11767e-09
0.000308293
-1.20645e-09
1.13296e-09
0.000310607
-1.22296e-09
1.14857e-09
0.000312657
-1.23983e-09
1.16457e-09
0.000314448
-1.25709e-09
1.18089e-09
0.000315986
-1.27473e-09
1.19763e-09
0.000317277
-1.29279e-09
1.21472e-09
0.000318329
-1.31125e-09
1.23225e-09
0.000319151
-1.33017e-09
1.25016e-09
0.000319753
-1.34953e-09
1.26854e-09
0.000320146
-1.36938e-09
1.28734e-09
0.000320339
-1.38972e-09
1.30666e-09
0.000320346
-1.4106e-09
1.32644e-09
0.000320178
-1.43201e-09
1.34679e-09
0.000319846
-1.45403e-09
1.36765e-09
0.000319363
-1.47664e-09
1.38914e-09
0.000318741
-1.49991e-09
1.41119e-09
0.000317991
-1.52384e-09
1.43392e-09
0.000317125
-1.54849e-09
1.45729e-09
0.000316153
-1.57388e-09
1.48141e-09
0.000315086
-1.60007e-09
1.50624e-09
0.000313935
-1.62707e-09
1.53189e-09
0.000312708
-1.65496e-09
1.55832e-09
0.000311414
-1.68375e-09
1.58566e-09
0.000310062
-1.71351e-09
1.61386e-09
0.000308659
-1.74426e-09
1.64305e-09
0.000307213
-1.77609e-09
1.6732e-09
0.000305729
-1.809e-09
1.70444e-09
0.000304215
-1.8431e-09
1.73673e-09
0.000302675
-1.8784e-09
1.77022e-09
0.000301114
-1.91501e-09
1.80487e-09
0.000299536
-1.95292e-09
1.84082e-09
0.000297946
-1.99228e-09
1.87806e-09
0.000296346
-2.03307e-09
1.91673e-09
0.00029474
-2.07544e-09
1.9568e-09
0.00029313
-2.11939e-09
1.99844e-09
0.000291519
-2.16507e-09
2.04162e-09
0.000289908
-2.21249e-09
2.08651e-09
0.0002883
-2.26179e-09
2.1331e-09
0.000286694
-2.31301e-09
2.18156e-09
0.000285093
-2.36629e-09
2.23189e-09
0.000283498
-2.42167e-09
2.28426e-09
0.000281908
-2.47931e-09
2.33867e-09
0.000280326
-2.53924e-09
2.39532e-09
0.00027875
-2.60165e-09
2.45421e-09
0.000277181
-2.66658e-09
2.51554e-09
0.00027562
-2.73421e-09
2.57934e-09
0.000274067
-2.80461e-09
2.6458e-09
0.000272522
-2.87797e-09
2.71496e-09
0.000270984
-2.95436e-09
2.78704e-09
0.000269454
-3.03398e-09
2.86208e-09
0.000267933
-3.11693e-09
2.9403e-09
0.00026642
-3.20342e-09
3.02178e-09
0.000264917
-3.29355e-09
3.10674e-09
0.000263423
-3.38756e-09
3.19527e-09
0.000261939
-3.48557e-09
3.28761e-09
0.000260466
-3.58782e-09
3.38387e-09
0.000259004
-3.69446e-09
3.48429e-09
0.000257554
-3.80575e-09
3.58902e-09
0.000256117
-3.92184e-09
3.6983e-09
0.000254694
-4.04303e-09
3.81231e-09
0.000253285
-4.16949e-09
3.93131e-09
0.000251892
-4.30155e-09
4.05549e-09
0.000250516
-4.43938e-09
4.18515e-09
0.000249158
-4.58335e-09
4.3205e-09
0.000247819
-4.73366e-09
4.46185e-09
0.000246501
-4.89071e-09
4.60945e-09
0.000245207
-5.05471e-09
4.76362e-09
0.000243937
-5.22612e-09
4.92468e-09
0.000242695
-5.40514e-09
5.09292e-09
0.000241482
-5.59231e-09
5.26876e-09
0.0002403
-5.78783e-09
5.45245e-09
0.000239153
-5.99233e-09
5.64452e-09
0.000238043
-6.20595e-09
5.84517e-09
0.000236973
-6.42948e-09
6.05507e-09
0.000235946
-6.66299e-09
6.27435e-09
0.000234964
-6.90744e-09
6.50386e-09
0.00023403
-7.16277e-09
6.74359e-09
0.000233147
-7.43023e-09
6.99465e-09
0.000232317
-7.70952e-09
7.25682e-09
0.000231542
-8.00227e-09
7.53159e-09
0.000230823
-8.30786e-09
7.81838e-09
0.000230159
-8.62844e-09
8.11924e-09
0.000229549
-8.96285e-09
8.43302e-09
0.000228992
-9.31406e-09
8.7626e-09
0.000228484
-9.68006e-09
9.10596e-09
0.000228022
-1.0065e-08
9.46716e-09
0.000227599
-1.04656e-08
9.84288e-09
0.000227213
-1.08877e-08
1.02389e-08
0.000226858
-1.13261e-08
1.065e-08
0.00022653
-1.17892e-08
1.10846e-08
0.000226228
-1.22688e-08
1.15343e-08
0.00022595
-1.27773e-08
1.20115e-08
0.000225699
-1.33019e-08
1.25032e-08
0.000225476
-1.38607e-08
1.30276e-08
0.000225286
-1.44341e-08
1.35648e-08
0.000225135
-1.50489e-08
1.41419e-08
0.000225027
-1.56749e-08
1.47283e-08
0.000224968
-1.63523e-08
1.53643e-08
0.000224961
-1.70348e-08
1.60033e-08
0.000225009
-1.77827e-08
1.67058e-08
0.000225115
-1.85251e-08
1.74004e-08
0.000225279
-1.93531e-08
1.81786e-08
0.000225501
-2.01579e-08
1.8931e-08
0.000225777
-2.10778e-08
1.97963e-08
0.000226105
-2.19599e-08
2.0621e-08
0.00022648
-2.29865e-08
2.15877e-08
0.000226897
-2.40061e-08
2.25444e-08
0.000227354
-2.51555e-08
2.36281e-08
0.000227847
-2.63321e-08
2.47358e-08
0.000228375
-2.76212e-08
2.59529e-08
0.00022894
-2.89756e-08
2.72319e-08
0.000229546
-3.03303e-08
2.85076e-08
0.000230198
-3.1783e-08
2.98777e-08
0.000230902
-3.32015e-08
3.12097e-08
0.000231662
-3.47625e-08
3.26802e-08
0.00023248
-3.62514e-08
3.40744e-08
0.000233358
-3.79341e-08
3.56582e-08
0.000234299
-3.95494e-08
3.71697e-08
0.0002353
-4.13696e-08
3.88819e-08
0.000236361
-4.31587e-08
4.05577e-08
0.000237473
-4.51331e-08
4.24141e-08
0.000238623
-4.71071e-08
4.42647e-08
0.000239793
-4.92522e-08
4.62812e-08
0.000240961
-5.14235e-08
4.83181e-08
0.000242102
-5.37562e-08
5.05109e-08
0.000243187
-5.61382e-08
5.27469e-08
0.00024419
-5.86758e-08
5.51326e-08
0.000245089
-6.1283e-08
5.75813e-08
0.000245866
-6.40435e-08
6.01769e-08
0.000246517
-6.68915e-08
6.28532e-08
0.000247042
-6.9893e-08
6.56762e-08
0.00024744
-7.29988e-08
6.8596e-08
0.000247709
-7.62605e-08
7.16646e-08
0.000247838
-7.96418e-08
7.48449e-08
0.000247813
-8.31837e-08
7.81781e-08
0.000247614
-8.68599e-08
8.16373e-08
0.000247219
-9.0703e-08
8.52551e-08
0.000246609
-9.46948e-08
8.9013e-08
0.000245763
-9.88619e-08
9.29371e-08
0.00024466
-1.03192e-07
9.70154e-08
0.000243282
-1.07708e-07
1.01269e-07
0.000241625
-1.12402e-07
1.05692e-07
0.000239698
-1.17294e-07
1.10303e-07
0.000237531
-1.22381e-07
1.15098e-07
0.000235161
-1.2768e-07
1.20094e-07
0.00023263
-1.33193e-07
1.25292e-07
0.000229969
-1.38933e-07
1.30707e-07
0.000227188
-1.44907e-07
1.36343e-07
0.000224278
-1.51128e-07
1.42214e-07
0.000221199
-1.57603e-07
1.48325e-07
0.000217911
-1.64346e-07
1.54692e-07
0.000214387
-1.71366e-07
1.61322e-07
0.000210626
-1.78679e-07
1.6823e-07
0.000206653
-1.86295e-07
1.75427e-07
0.000202495
-1.94231e-07
1.82927e-07
0.00019818
-2.025e-07
1.90745e-07
0.000193734
-2.11119e-07
1.98895e-07
0.00018919
-2.20104e-07
2.07394e-07
0.000184594
-2.29473e-07
2.16259e-07
0.000180003
-2.39244e-07
2.25507e-07
0.000175464
-2.49435e-07
2.35155e-07
0.000170992
-2.60066e-07
2.45223e-07
0.000166556
-2.71157e-07
2.55729e-07
0.000162085
-2.82729e-07
2.66695e-07
0.000157473
-2.94803e-07
2.78139e-07
0.000152606
-3.07402e-07
2.90085e-07
0.000147386
-3.20551e-07
3.02555e-07
0.000141717
-3.34274e-07
3.15575e-07
0.00013552
-3.48601e-07
3.2917e-07
0.000128792
-3.63561e-07
3.43372e-07
0.000121643
-3.79188e-07
3.58209e-07
0.000114281
-3.95517e-07
3.73719e-07
0.000106957
-4.12584e-07
3.89933e-07
9.9898e-05
-4.30429e-07
4.06892e-07
9.33139e-05
-4.49089e-07
4.24628e-07
8.73595e-05
-4.68603e-07
4.43183e-07
8.2034e-05
-4.89008e-07
4.62588e-07