/*--------------------------------*- C++ -*----------------------------------*\
| =========                 |                                                 |
| \\      /  F ield         | OpenFOAM: The Open Source CFD Toolbox           |
|  \\    /   O peration     | Version:  2012                                  |
|   \\  /    A nd           | Website:  www.openfoam.com                      |
|    \\/     M anipulation  |                                                 |
\*---------------------------------------------------------------------------*/
FoamFile
{
    version     2.0;
    format      ascii;
    class       volTensorField;
    location    "9000";
    object      grad(U);
}
// * * * * * * * * * * * * * * * * * * * * * * * * * * * * * * * * * * * * * //

dimensions      [0 0 -1 0 0 0 0];


internalField   nonuniform List<tensor> 
640
(
(-3.70426e-17 2.10563e-30 2.63204e-31 33.4827 -3.53153e-12 -2.88716e-13 0.191462 -1.00821e-14 -5.06025e-16)
(0 -4.04624e-28 -2.63204e-31 33.4827 1.57772e-30 1.82178e-16 0.191462 1.01156e-28 3.83119e-16)
(-1.3978e-16 -6.68383e-26 -1.13527e-27 33.4629 -2.08022e-31 -1.40778e-13 0.585653 0 -1.70615e-15)
(0 -1.58912e-29 -4.96599e-31 33.4629 -1.51477e-14 3.2261e-16 0.585653 -1.16769e-16 -2.44712e-16)
(-1.31865e-16 2.24869e-29 9.36956e-31 33.4416 5.2305e-13 -6.9161e-14 0.884741 -1.46782e-14 -1.85214e-15)
(6.57863e-17 -1.49913e-29 -4.68478e-31 33.4416 -1.29066e-14 3.8107e-16 0.884741 -1.87922e-16 -2.70207e-16)
(1.78224e-16 -1.71597e-29 -1.2438e-30 33.4172 2.56118e-13 -7.32441e-14 0.937103 -1.21258e-14 -2.14622e-15)
(0 2.12136e-29 1.7678e-30 33.4172 -1.60051e-14 5.5595e-16 0.937103 -3.00935e-16 -2.94655e-16)
(0 -6.67078e-30 0 33.3848 1.37788e-14 -7.92263e-14 0.992219 -1.51642e-15 -2.43696e-15)
(-5.11788e-16 6.67078e-30 0 33.3848 -1.89326e-14 6.95508e-16 0.992219 -4.33126e-16 -3.17672e-16)
(0 -9.32186e-29 -3.14652e-30 33.3322 -3.73204e-28 -8.39904e-14 1.04966 0 -2.71196e-15)
(7.55296e-16 1.25861e-29 3.14652e-30 33.3322 -1.93186e-14 7.5888e-16 1.04966 -6.06058e-16 -3.38734e-16)
(-5.07047e-16 4.68716e-29 4.07328e-30 33.2331 2.58298e-14 -8.74415e-14 1.10829 -6.19097e-16 -2.96894e-15)
(0 -3.56201e-29 -3.71042e-30 33.2331 -1.92239e-14 7.87042e-16 1.10829 -7.58332e-16 -3.57675e-16)
(-3.22459e-16 2.79374e-29 3.74184e-30 33.0388 3.26044e-14 -8.91643e-14 1.1657 -1.06994e-15 -3.16935e-15)
(0 -1.68015e-29 -2.80025e-30 33.0388 -2.16165e-14 8.38759e-16 1.1657 -9.53679e-16 -3.7282e-16)
(0 -5.28336e-30 -2.64168e-30 32.6719 3.39832e-14 -8.80315e-14 1.21778 -1.17557e-15 -3.251e-15)
(3.16894e-15 5.28336e-30 3.96252e-30 32.6719 -2.32581e-14 9.03e-16 1.21778 -1.17071e-15 -3.82353e-16)
(1.1764e-15 -2.03904e-29 -5.42076e-30 32.0296 3.60922e-14 -8.28543e-14 1.25872 -1.30578e-15 -3.14915e-15)
(-7.01462e-16 1.49526e-29 4.98418e-30 32.0296 -2.52124e-14 9.70609e-16 1.25872 -1.431e-15 -3.83208e-16)
(-1.11807e-15 2.01497e-29 2.32721e-30 31.0069 3.82437e-14 -7.31588e-14 1.28207 -1.48882e-15 -2.83491e-15)
(0 -9.40389e-30 -1.17549e-30 31.0069 -2.52447e-14 9.71381e-16 1.28207 -1.72737e-15 -3.72802e-16)
(1.29573e-15 -1.06142e-29 1.86388e-30 29.5385 3.96139e-14 -5.98181e-14 1.28302 -1.64879e-15 -2.34531e-15)
(5.18293e-15 8.87138e-30 -1.10892e-30 29.5385 -2.51715e-14 9.37294e-16 1.28302 -2.01329e-15 -3.50039e-16)
(-7.40006e-16 2.19772e-29 7.16087e-30 27.6399 4.03046e-14 -4.50146e-14 1.2606 -1.79547e-15 -1.78188e-15)
(2.96002e-15 -8.36902e-30 -4.18451e-30 27.6399 -2.61304e-14 1.00002e-15 1.2606 -2.32402e-15 -3.13473e-16)
(8.33361e-16 -3.67512e-29 -6.93669e-30 25.4164 3.96103e-14 -3.13557e-14 1.2182 -1.91816e-15 -1.26255e-15)
(6.66689e-15 3.15804e-29 5.92133e-30 25.4164 -2.57606e-14 1.05781e-15 1.2182 -2.66739e-15 -2.59882e-16)
(-9.25684e-16 -9.78328e-30 -8.19527e-30 23.0282 3.83587e-14 -2.07126e-14 1.16204 -1.94771e-15 -8.68329e-16)
(-1.04822e-15 1.48961e-29 9.31005e-30 23.0282 -2.50836e-14 1.01311e-15 1.16204 -3.03558e-15 -1.95149e-16)
(9.62626e-16 -3.00853e-29 -7.60076e-30 20.6369 3.68391e-14 -1.3698e-14 1.09878 -2.022e-15 -6.26498e-16)
(2.08266e-15 3.51314e-29 8.78285e-30 20.6369 -2.37491e-14 1.01853e-15 1.09878 -3.41165e-15 -1.23227e-16)
(1.10035e-15 8.26722e-30 2.09086e-30 18.3659 3.44334e-14 -9.92487e-15 1.03386 -2.01694e-15 -5.24013e-16)
(2.53566e-15 -6.6284e-30 0 18.3659 -2.19519e-14 1.01667e-15 1.03386 -3.78774e-15 -4.3942e-17)
(5.79258e-16 -7.5678e-30 -3.44305e-30 16.2875 3.18549e-14 -8.55032e-15 0.970919 -1.98405e-15 -5.29542e-16)
(4.72329e-15 6.25306e-30 4.68979e-30 16.2875 -2.19538e-14 9.91344e-16 0.970919 -4.18194e-15 3.63012e-17)
(-2.51274e-15 2.74734e-29 6.94624e-30 14.4313 3.02174e-14 -8.65916e-15 0.912008 -1.93914e-15 -6.03449e-16)
(0 -1.76969e-29 -4.42423e-30 14.4313 -2.21726e-14 1.00805e-15 0.912008 -4.59299e-15 6.80975e-17)
(0 -3.33896e-29 -1.39123e-29 12.7976 2.9105e-14 -9.57332e-15 0.858038 -2.00912e-15 -7.25372e-16)
(5.30856e-15 3.33896e-29 1.39778e-29 12.7976 -2.03876e-14 1.05802e-15 0.858038 -5.03482e-15 7.86757e-17)
(0 3.14988e-29 1.18121e-29 11.3714 2.81442e-14 -1.09476e-14 0.809213 -2.0203e-15 -8.8578e-16)
(0 -3.14988e-29 -1.18121e-29 11.3714 -1.93818e-14 1.03714e-15 0.809213 -5.43132e-15 7.3363e-17)
(-2.78802e-15 1.48576e-29 4.95252e-30 10.1306 2.70788e-14 -1.24709e-14 0.765343 -2.11234e-15 -1.05914e-15)
(-5.82277e-15 -9.90505e-30 -5.0972e-30 10.1306 -1.98093e-14 1.04592e-15 0.765343 -5.82235e-15 8.98104e-17)
(-1.51425e-15 1.399e-29 3.63712e-30 9.05181 2.57003e-14 -1.39604e-14 0.726051 -2.09944e-15 -1.24828e-15)
(-1.31507e-15 0 0 9.05181 -1.78737e-14 1.09317e-15 0.726051 -6.25435e-15 9.04601e-17)
(1.56951e-15 -2.66206e-29 -1.45427e-29 8.11255 2.29279e-14 -1.54075e-14 0.690884 -2.13941e-15 -1.45064e-15)
(1.25561e-14 2.20376e-29 1.36609e-29 8.11255 -1.60748e-14 1.17231e-15 0.690884 -6.62195e-15 1.15164e-16)
(1.62182e-15 2.03753e-29 1.32065e-29 7.29277 2.10341e-14 -1.67593e-14 0.659385 -1.85993e-15 -1.66061e-15)
(0 -2.49476e-29 -1.45528e-29 7.29277 -1.49649e-14 1.17138e-15 0.659385 -7.01925e-15 1.04226e-16)
(-3.343e-15 1.68243e-29 6.68315e-30 6.57503 2.11092e-14 -1.79208e-14 0.631122 -2.04255e-15 -1.86498e-15)
(6.686e-15 0 -1.72297e-30 6.57503 -1.45506e-14 8.83483e-16 0.631122 -7.36625e-15 2.68586e-16)
(-3.43764e-15 1.62454e-29 8.39294e-30 5.94444 2.05908e-14 -1.89228e-14 0.6057 -2.10511e-15 -2.08081e-15)
(-6.87529e-15 -7.40073e-30 -5.72112e-30 5.94444 -1.5335e-14 9.40586e-16 0.6057 -7.79711e-15 4.78625e-16)
(0 1.39633e-29 5.23623e-30 5.38839 1.97224e-14 -1.98396e-14 0.58277 -2.18394e-15 -2.304e-15)
(0 -6.98165e-30 0 5.38839 -1.34243e-14 7.7439e-16 0.58277 -8.25862e-15 6.26997e-16)
(1.80735e-15 2.28667e-30 5.06407e-30 4.89629 1.87956e-14 -2.06588e-14 0.562024 -2.16802e-15 -2.53549e-15)
(0 0 -1.64657e-30 4.89629 -1.23075e-14 4.57721e-16 0.562024 -8.65007e-15 7.89372e-16)
(1.84896e-15 -2.28617e-29 -1.71156e-29 4.45921 2.03698e-14 -2.13817e-14 0.543195 -2.23068e-15 -2.77354e-15)
(0 1.864e-29 1.55333e-29 4.45921 -1.40967e-14 5.57851e-16 0.543195 -9.13742e-15 8.42302e-16)
(-3.29973e-15 -5.8615e-30 -5.8615e-30 4.06966 2.09845e-14 -2.18216e-14 0.526049 -2.83818e-15 -2.96813e-15)
(3.29973e-15 1.75845e-29 8.79224e-30 4.06966 -1.5818e-14 8.69773e-16 0.526049 -9.67953e-15 7.82003e-16)
(-5.78312e-15 2.29432e-29 -1.12104e-44 3.72129 1.82095e-14 -2.72155e-29 0.510384 -2.67296e-15 0)
(-7.71083e-15 -1.10592e-29 -1.95921e-29 3.72129 -1.4248e-14 6.31563e-16 0.510384 -1.03464e-14 6.25454e-16)
(4.90172e-15 -3.9182e-30 -1.56129e-29 3.40879 1.62465e-14 1.29773e-14 0.496024 -2.39271e-15 -9.58248e-16)
(7.86046e-15 5.21646e-30 5.55288e-30 3.40879 -1.15577e-14 2.22736e-16 0.496024 -1.07638e-14 3.99437e-16)
(-2.00137e-15 3.83612e-30 -9.96663e-31 3.1276 1.57167e-14 2.50618e-14 0.482815 -2.40628e-15 -3.82314e-15)
(8.00547e-15 9.84213e-30 5.35564e-30 3.1276 -1.28753e-14 7.01146e-16 0.482815 -1.116e-14 1.69603e-16)
(-2.03656e-15 3.74704e-30 -1.02766e-30 2.87387 1.6331e-14 2.49118e-14 0.470624 -2.51774e-15 -4.02951e-15)
(0 4.6424e-30 6.9636e-30 2.87387 -1.35457e-14 1.02418e-15 0.470624 -1.17313e-14 1.70329e-16)
(3.94665e-16 -5.14599e-30 -5.452e-30 2.64431 1.57587e-14 2.47873e-14 0.459333 -2.9138e-15 -4.2446e-15)
(-2.46545e-15 8.75903e-30 1.09488e-29 2.64431 -1.15788e-14 7.02682e-16 0.459333 -1.22534e-14 7.40746e-17)
(2.32584e-15 0 -2.06576e-30 2.43609 1.33521e-14 2.55018e-14 0.44884 -2.62171e-15 -4.48269e-15)
(-2.32584e-15 0 -7.00649e-46 2.43609 -1.17643e-14 -8.14886e-31 0.44884 -1.2867e-14 2.86682e-46)
(-2.13662e-15 1.91191e-29 1.23811e-29 2.24679 1.25474e-14 2.58862e-14 0.439053 -2.3497e-15 -5.0439e-15)
(0 -1.55903e-29 -1.16927e-29 2.24679 -1.11179e-14 -5.60843e-15 0.439053 -1.36444e-14 2.53074e-16)
(0 1.47074e-29 1.2869e-29 2.0743 1.28763e-14 2.52522e-14 0.429893 -2.61822e-15 -5.19353e-15)
(8.67341e-15 -1.47074e-29 -1.2869e-29 2.0743 -7.84217e-15 -2.86896e-15 0.429893 -1.41856e-14 1.81546e-16)
(-4.15205e-15 1.71468e-29 5.4822e-30 1.91681 1.23229e-14 2.13699e-14 0.421288 -2.78222e-15 -5.39395e-15)
(8.79751e-15 0 -1.73432e-30 1.91681 -7.08488e-15 -3.68961e-15 0.421288 -1.4783e-14 8.21957e-17)
(0 0 3.27223e-30 1.77273 1.21508e-14 1.39015e-14 0.413174 -2.68878e-15 -4.05949e-15)
(0 0 0 1.77273 -8.15383e-15 -4.45766e-15 0.413174 -1.55313e-14 -9.87272e-17)
(-2.25947e-15 -3.12752e-30 -5.71465e-30 1.64068 1.28539e-14 8.32736e-15 0.405496 -3.0428e-15 -2.43887e-15)
(9.03788e-15 6.17387e-30 6.17387e-30 1.64068 -8.01942e-15 -4.60921e-15 0.405496 -1.60259e-14 -4.36077e-16)
(0 -5.82426e-30 -4.3682e-30 1.51946 1.04748e-14 5.39832e-15 0.398203 -3.38273e-15 -1.69582e-15)
(9.15448e-15 5.82426e-30 4.3682e-30 1.51946 -7.56787e-15 -3.73288e-15 0.398203 -1.67194e-14 -8.24083e-16)
(-2.31722e-15 3.03486e-30 -2.21805e-30 1.40799 6.42636e-15 4.49766e-15 0.391248 -2.12253e-15 -1.14424e-15)
(0 0 2.74723e-30 1.40799 -6.44461e-15 -3.46076e-15 0.391248 -1.74552e-14 -1.03953e-15)
(2.34529e-15 -3.09866e-30 -4.32814e-30 1.30535 5.48908e-15 5.18792e-15 0.38459 -1.46237e-15 -1.38523e-15)
(9.38115e-15 0 3.88749e-30 1.30535 -4.27953e-15 -3.12348e-15 0.38459 -1.80312e-14 -1.36943e-15)
(3.79854e-16 7.89466e-30 2.78488e-30 1.2107 5.33374e-15 5.99771e-15 0.378191 -1.81106e-15 -1.70841e-15)
(-2.75272e-15 -4.88981e-30 -2.4449e-30 1.2107 -9.86903e-16 -2.27265e-15 0.378191 -1.72318e-14 -1.6054e-15)
(0 -4.61291e-30 -2.30646e-30 1.12332 6.41648e-15 6.84642e-15 0.372019 -1.54236e-15 -2.08216e-15)
(9.59984e-15 3.3232e-30 2.30646e-30 1.12332 -5.61833e-17 -2.40061e-15 0.372019 -1.60765e-14 -1.72081e-15)
(0 0 1.08792e-30 1.04254 7.91456e-15 5.71117e-15 0.366041 -2.78e-15 -2.50362e-15)
(-1.21562e-14 7.67688e-30 0 1.04254 -3.27503e-16 -1.95921e-15 0.366041 -1.28476e-14 -2.1194e-15)
(0 0 0 0.96779 6.85625e-15 4.45542e-15 0.360229 -2.82572e-15 -1.51161e-15)
(7.50018e-15 -4.74218e-30 0 0.96779 1.48161e-15 -1.24873e-15 0.360229 -1.02589e-14 -2.38994e-15)
(-2.98397e-16 2.76975e-30 7.27872e-32 0.898548 6.38533e-15 2.24316e-15 0.354556 -2.30554e-15 -1.84234e-15)
(-1.20946e-14 5.57491e-30 0 0.898548 1.59205e-15 -1.51829e-15 0.354556 -8.84759e-15 -2.51131e-15)
(7.5119e-15 -8.03487e-30 -9.55296e-31 0.834348 6.64277e-15 -5.01111e-16 0.348999 -2.78919e-15 -3.13923e-16)
(1.00159e-14 -7.07647e-30 0 0.834348 2.00778e-15 -2.55578e-15 0.348999 -6.41523e-15 -2.66948e-15)
(0 0 8.61654e-31 0.77477 5.57696e-15 -6.41141e-16 0.343534 -2.81428e-15 -2.57657e-16)
(0 0 8.61654e-31 0.77477 2.08261e-15 -3.25397e-15 0.343534 -4.96695e-15 -2.3179e-15)
(0 0 0 0.719436 4.9353e-15 -4.30404e-16 0.338139 -2.15258e-15 -1.47025e-16)
(1.02141e-14 -9.12087e-30 -1.36322e-30 0.719436 1.52892e-15 -1.52229e-15 0.338139 -3.28424e-15 -1.14263e-15)
(0 0 -3.50325e-46 0.668005 4.60423e-15 -7.96511e-30 0.332794 -2.53591e-15 0)
(1.03109e-14 -1.00213e-29 -1.27142e-30 0.668005 2.0801e-15 1.77777e-15 0.332794 -1.74274e-15 -1.32258e-15)
(-2.60156e-15 2.49982e-30 2.68674e-31 0.620166 2.98174e-15 1.76272e-15 0.327478 -2.07619e-15 -1.32803e-15)
(0 0 0 0.620166 1.58409e-15 2.79604e-15 0.327478 -1.09832e-15 -1.80468e-15)
(-2.62502e-15 8.14909e-30 1.98802e-31 0.575638 2.05727e-15 -7.24759e-16 0.322171 -1.06981e-15 -1.4e-15)
(-1.35735e-14 1.17281e-29 0 0.575638 2.03148e-15 -1.7225e-15 0.322171 -5.73305e-16 -2.10517e-15)
(5.29623e-15 -5.40374e-30 -4.64145e-31 0.534162 2.28148e-15 -2.21997e-15 0.316853 -1.25801e-15 -1.25211e-15)
(7.69305e-15 -1.00658e-29 -3.40452e-31 0.534162 3.08608e-15 -4.65407e-15 0.316853 -2.16009e-15 -2.31661e-15)
(0 -4.85875e-30 0 0.495504 2.775e-15 -2.76823e-15 0.311503 -1.47843e-15 -2.28942e-15)
(2.73523e-15 4.85875e-30 0 0.495504 1.91912e-15 -2.8871e-15 0.311503 -1.5139e-15 -1.31633e-15)
(0 -4.58361e-30 2.11071e-44 0.459446 3.233e-15 9.46258e-30 0.306097 -2.05836e-15 -9.60745e-47)
(2.15457e-14 -2.27343e-29 -2.58544e-30 0.459446 2.68507e-15 9.95407e-17 0.306097 -9.02563e-16 -5.10012e-16)
(2.43423e-15 0 0 0.425789 2.80961e-15 1.18977e-15 0.300611 -2.29554e-15 -1.43859e-15)
(8.42662e-15 -8.35862e-30 -1.43852e-31 0.425789 3.36215e-15 3.25337e-16 0.300611 -3.96353e-15 -1.5332e-15)
(0 -4.0792e-30 0 0.394347 2.94043e-15 1.85785e-16 0.295018 -1.69132e-15 -7.64707e-16)
(4.59277e-15 4.0792e-30 -3.39815e-44 0.394347 5.81262e-16 -7.6693e-30 0.295018 -7.61154e-16 7.88861e-31)
(-5.51623e-15 4.37517e-30 3.48971e-31 0.364948 2.93708e-15 -1.51874e-15 0.289286 -2.78298e-15 -2.56262e-15)
(1.10325e-14 -1.05427e-29 -2.5836e-32 0.364948 3.14923e-16 -5.36221e-16 0.289286 -1.26089e-16 -2.82289e-15)
(0 0 -1.81515e-30 0.33743 1.14781e-15 -3.94093e-15 0.28338 -2.48632e-15 -3.13096e-15)
(0 0 0 0.33743 1.76903e-15 -1.76601e-15 0.28338 -1.30435e-15 -7.49519e-16)
(6.65541e-15 -2.46231e-30 -3.15295e-30 0.311641 6.90214e-16 -1.08601e-29 0.277256 -7.74026e-16 0)
(7.34218e-15 -1.26069e-29 1.71236e-30 0.311641 2.44936e-15 -7.79387e-16 0.277256 -1.71068e-15 -3.39117e-15)
(-2.81964e-15 2.33468e-30 1.2007e-31 0.287436 1.11668e-15 -9.41245e-17 0.270864 -1.28107e-15 -2.17477e-15)
(1.12786e-14 -8.42053e-30 -1.43419e-31 0.287436 9.32885e-16 -1.11337e-15 0.270864 -2.72668e-15 -1.64108e-15)
(-2.83937e-15 2.23934e-30 0 0.264679 -4.36367e-16 -3.11153e-15 0.264142 -1.79516e-15 -2.10708e-15)
(0 0 0 0.264679 -5.75712e-16 -3.28977e-15 0.264142 -2.91033e-16 -1.13154e-15)
(3.23725e-15 -4.10296e-31 -9.61851e-31 0.243236 -9.21326e-17 -2.25392e-30 0.257015 -4.93705e-17 -1.97215e-31)
(8.19751e-15 -1.02523e-29 0 0.243236 -9.19804e-19 -4.20854e-15 0.257015 -2.82195e-16 -9.14297e-16)
(0 -2.92026e-31 0 0.222976 4.70092e-29 -8.19719e-16 0.24939 0 5.8638e-16)
(-1.15103e-14 1.01662e-29 1.19466e-30 0.222976 1.46134e-16 0 0.24939 -6.38038e-16 2.18848e-16)
(5.762e-15 0 3.36312e-44 0.203769 1.76123e-15 -7.47212e-30 0.241148 -1.451e-15 -1.62344e-46)
(-1.73461e-14 1.17218e-29 2.47147e-31 0.203769 2.84482e-17 1.55004e-15 0.241148 -1.71294e-17 -9.33316e-16)
(8.34973e-15 -6.84639e-30 2.41394e-30 0.185483 2.11341e-15 2.03997e-16 0.232141 -2.83115e-15 2.50284e-16)
(-5.43571e-15 4.82788e-30 2.41394e-30 0.185483 2.93188e-15 6.54217e-16 0.232141 -3.49799e-15 7.74738e-16)
(0 0 0 0.167979 1.80421e-15 0 0.222176 -2.55655e-15 0)
(1.1726e-14 -7.23937e-30 0 0.167979 2.72374e-15 5.41763e-16 0.222176 -4.00201e-15 -1.08913e-16)
(5.89695e-15 -3.83368e-30 0 0.151109 1.71293e-15 1.43089e-15 0.210997 -2.31933e-15 -6.20016e-16)
(-4.83753e-15 -4.7953e-31 2.14829e-30 0.151109 5.52622e-16 6.22507e-16 0.210997 -3.35034e-15 -1.97489e-16)
(2.96488e-15 -1.80712e-30 0 0.134704 1.68048e-15 1.31167e-15 0.198265 -2.60296e-15 1.92474e-15)
(0 7.00649e-46 1.05818e-31 0.134704 6.77532e-29 0 0.198265 -3.15544e-30 7.62497e-16)
(3.31239e-15 -3.03586e-30 0 0.118569 2.20141e-15 2.80704e-17 0.183515 -2.50448e-15 1.01363e-15)
(1.19227e-14 -6.68469e-30 1.91188e-30 0.118569 1.99858e-15 -2.05701e-16 0.183515 -2.09924e-15 -5.38992e-16)
(5.99167e-15 -2.12862e-30 1.80362e-30 0.102467 2.27352e-15 -1.83154e-15 0.16611 -4.65444e-15 -1.761e-15)
(1.19833e-14 -4.35392e-30 -2.56256e-30 0.102467 1.54235e-15 -9.05222e-16 0.16611 -4.41055e-15 -7.73288e-16)
(3.8314e-15 4.25768e-31 1.58577e-30 0.086107 -1.67633e-30 -7.69826e-16 0.14517 -3.06798e-15 5.04991e-16)
(-1.58725e-14 7.70086e-30 0 0.086107 2.82336e-16 -2.34866e-15 0.14517 -1.31756e-15 9.74351e-16)
(-6.63834e-15 1.08249e-30 0 0.0691332 -1.18973e-15 -2.34589e-15 0.119522 -3.51931e-15 9.85895e-16)
(1.93245e-14 -8.11495e-30 8.75812e-46 0.0691332 -1.69534e-16 1.97215e-31 0.119522 -3.06564e-16 -2.56698e-46)
(0 -1.00532e-31 0 0.0511463 -2.0178e-16 -3.50267e-15 0.0877168 -2.05311e-16 -6.02143e-16)
(-3.40977e-15 0 3.02848e-30 0.0511463 2.31129e-16 -5.5026e-16 0.0877168 -1.26856e-15 3.67941e-16)
(0 -6.9532e-31 -2.85324e-31 0.0317812 1.97215e-30 3.9443e-31 0.0482471 -1.57772e-30 0)
(1.21927e-14 -4.99108e-30 0 0.0317812 5.66976e-16 -1.30259e-15 0.0482471 -2.76777e-15 -1.71866e-16)
(3.08585e-15 4.74759e-31 2.69521e-30 7.76983e-15 9.86076e-31 3.39419e-15 1.06568e-14 -8.10253e-15 6.43805e-16)
(0 0 0 0 3.36151e-16 1.49844e-15 3.55271e-15 -1.14797e-15 3.85641e-16)
(0 1.02814e-33 0 33.4827 0 7.34119e-14 -0.191462 1.00821e-14 5.06025e-16)
(0 -5.1407e-34 0 33.4827 -6.39432e-16 1.57772e-30 -0.191462 -1.04705e-17 -4.93038e-32)
(0 0 1.31531e-28 33.4629 -5.77497e-15 2.37309e-14 -0.585653 4.79666e-14 1.9991e-15)
(-6.98901e-17 7.75936e-33 -6.41501e-27 33.4629 -1.35683e-15 -8.99302e-15 -0.585653 1.16769e-16 1.08991e-16)
(3.28931e-17 1.46399e-32 -4.09918e-31 33.4416 -5.55727e-15 1.17534e-14 -0.884741 4.43262e-14 2.35374e-15)
(0 -1.46399e-32 4.09918e-31 33.4416 -1.33381e-15 -4.27093e-15 -0.884741 1.87922e-16 1.10528e-16)
(-7.05712e-17 -2.76219e-32 3.86706e-31 33.4172 -6.43675e-15 1.22008e-14 -0.937103 4.13373e-14 2.73746e-15)
(0 2.76219e-32 -4.4195e-31 33.4172 -1.9596e-15 -4.04443e-15 -0.937103 3.00935e-16 1.0976e-16)
(1.49134e-16 1.04231e-31 -8.33847e-31 33.3848 -6.6433e-15 1.2617e-14 -0.992219 4.10034e-14 3.18695e-15)
(-5.11788e-16 -5.21154e-32 1.0551e-30 33.3848 -2.12196e-15 -3.75292e-15 -0.992219 4.33126e-16 1.06858e-16)
(0 4.91643e-32 0 33.3322 -7.27165e-15 1.29207e-14 -1.04966 4.12513e-14 3.70089e-15)
(0 0 0 33.3322 -1.97313e-15 -3.37716e-15 -1.04966 6.06058e-16 9.96419e-17)
(-2.53523e-16 1.39141e-31 -1.48417e-30 33.2331 -7.87609e-15 1.30225e-14 -1.10829 4.11572e-14 4.27626e-15)
(0 -1.39141e-31 1.48417e-30 33.2331 -2.12952e-15 -2.8953e-15 -1.10829 7.58332e-16 8.78692e-17)
(3.22459e-16 0 0 33.0388 -8.26397e-15 1.27991e-14 -1.1657 4.0957e-14 4.9097e-15)
(0 0 0 33.0388 -2.33015e-15 -2.28351e-15 -1.1657 9.53679e-16 6.8623e-17)
(-3.96117e-16 0 -8.25526e-31 32.6719 -8.37439e-15 1.20643e-14 -1.21778 4.07381e-14 5.59068e-15)
(-7.43567e-16 0 4.95315e-31 32.6719 -2.86145e-15 -1.48679e-15 -1.21778 1.17071e-15 3.89064e-17)
(0 7.78779e-32 -9.34535e-31 32.0296 -8.54563e-15 1.06944e-14 -1.25872 4.04893e-14 6.29499e-15)
(-1.89975e-15 -7.78779e-32 0 32.0296 -3.54525e-15 -4.91079e-46 -1.25872 1.431e-15 -8.22524e-45)
(1.02703e-16 0 1.46936e-31 31.0069 -9.05238e-15 8.57788e-15 -1.28207 4.02048e-14 6.98441e-15)
(-2.23615e-15 0 2.05848e-31 31.0069 -3.20202e-15 9.66741e-17 -1.28207 1.72737e-15 1.9799e-18)
(6.47866e-16 -1.38615e-31 -2.77231e-31 29.5385 -9.39174e-15 5.88437e-15 -1.28302 3.98906e-14 7.61593e-15)
(0 0 2.77231e-31 29.5385 -2.27864e-15 1.77704e-15 -1.28302 2.01329e-15 5.11114e-17)
(-1.48001e-15 2.61532e-31 -5.23064e-31 27.6399 -9.33615e-15 3.02684e-15 -1.2606 3.95479e-14 8.15252e-15)
(1.78219e-15 -1.30766e-31 1.45676e-31 27.6399 -2.25184e-15 2.89614e-15 -1.2606 2.32402e-15 1.04766e-16)
(1.66672e-15 -2.46722e-31 3.82004e-30 25.4164 -8.53172e-15 0 -1.2182 3.91772e-14 8.57896e-15)
(3.33344e-15 2.46722e-31 -7.93649e-31 25.4164 -3.37941e-15 3.77944e-15 -1.2182 2.66739e-15 1.63537e-16)
(9.25684e-16 -4.65502e-31 2.83618e-30 23.0282 -7.65761e-15 -1.01571e-15 -1.16204 3.87893e-14 8.90117e-15)
(0 4.65502e-31 -1.62926e-30 23.0282 -3.68977e-15 4.26356e-15 -1.16204 3.03558e-15 1.95149e-16)
(1.0151e-15 -6.58714e-31 8.78285e-31 20.6369 -6.97956e-15 -2.33052e-15 -1.09878 3.83827e-14 9.14433e-15)
(0 6.58714e-31 -8.78285e-31 20.6369 -3.69135e-15 4.49006e-15 -1.09878 3.41165e-15 1.23227e-16)
(1.10035e-15 2.07138e-31 -8.2855e-31 18.3659 -6.39565e-15 -2.79471e-15 -1.03386 3.79707e-14 9.3391e-15)
(-4.40139e-15 0 6.21413e-31 18.3659 -4.54072e-15 4.47279e-15 -1.03386 3.78774e-15 4.3942e-17)
(0 3.90816e-31 -9.7704e-31 16.2875 -5.62744e-15 -2.83938e-15 -0.970919 3.75684e-14 9.51331e-15)
(-4.72329e-15 -7.81632e-31 1.56326e-30 16.2875 -4.17486e-15 4.25142e-15 -0.970919 4.18194e-15 -3.63012e-17)
(-1.66041e-15 1.10606e-30 -1.65908e-30 14.4313 -4.88329e-15 -2.48042e-15 -0.912008 3.71628e-14 9.68998e-15)
(0 -7.37371e-31 1.47474e-30 14.4313 -3.92298e-15 3.9027e-15 -0.912008 4.59299e-15 -1.17564e-16)
(-3.13278e-15 1.39123e-30 -1.73904e-30 12.7976 -5.79173e-15 -1.83511e-15 -0.858038 3.67408e-14 9.87731e-15)
(-3.74218e-15 -1.04342e-30 1.56514e-30 12.7976 -3.87391e-15 3.49963e-15 -0.858038 5.03482e-15 -1.96564e-16)
(2.87114e-15 -3.28113e-31 3.28113e-31 11.3714 -7.00676e-15 -1.45316e-15 -0.809213 3.6357e-14 1.00854e-14)
(0 0 0 11.3714 -2.08949e-15 3.16e-15 -0.809213 5.43132e-15 -2.75289e-16)
(2.78802e-15 -3.09533e-31 6.19066e-31 10.1306 -7.00543e-15 -1.33573e-15 -0.765343 3.59651e-14 1.03334e-14)
(0 3.09533e-31 -6.19066e-31 10.1306 -1.32422e-15 2.91313e-15 -0.765343 5.82235e-15 -3.50436e-16)
(1.51425e-15 8.76015e-31 -8.76015e-31 9.05181 -6.28094e-15 -1.27967e-15 -0.726051 3.55765e-14 1.06235e-14)
(-6.05701e-15 -8.76015e-31 8.76015e-31 9.05181 -1.56896e-15 2.77606e-15 -0.726051 6.25435e-15 -4.29357e-16)
(4.70854e-15 5.50939e-31 -5.50939e-31 8.11255 -5.27462e-15 -1.43678e-15 -0.690884 3.51639e-14 1.09631e-14)
(-6.27805e-15 -5.50939e-31 5.50939e-31 8.11255 -1.41024e-15 2.85956e-15 -0.690884 6.62195e-15 -5.09983e-16)
(0 -1.03948e-30 0 7.29277 -4.44664e-15 -1.52154e-15 -0.659385 3.48068e-14 1.13613e-14)
(-6.4873e-15 1.03948e-30 -2.59871e-31 7.29277 -1.13582e-15 2.88624e-15 -0.659385 7.01925e-15 -6.05984e-16)
(0 0 0 6.57503 -4.10346e-15 -1.60176e-15 -0.631122 3.43939e-14 1.18113e-14)
(-6.686e-15 0 0 6.57503 -1.24206e-15 2.78302e-15 -0.631122 7.36625e-15 -6.97808e-16)
(6.24936e-15 -1.85018e-30 6.93818e-31 5.94444 -4.85721e-15 -1.63479e-15 -0.6057 3.39715e-14 1.23216e-14)
(-6.87529e-15 4.62545e-31 0 5.94444 -1.79327e-15 2.67079e-15 -0.6057 7.79711e-15 -7.859e-16)
(0 4.36353e-31 0 5.38839 -4.85012e-15 -1.56537e-15 -0.58277 3.35758e-14 1.28828e-14)
(-1.96516e-15 0 0 5.38839 -2.07307e-15 2.18064e-15 -0.58277 8.25862e-15 -8.86123e-16)
(7.32246e-15 1.23493e-30 -2.05822e-31 4.89629 -3.01973e-15 -1.41154e-15 -0.562024 3.31501e-14 1.35043e-14)
(-1.09372e-14 -1.64657e-30 6.17465e-31 4.89629 -2.67122e-15 1.39173e-15 -0.562024 8.65007e-15 -9.4781e-16)
(5.44682e-15 -1.55333e-30 3.88334e-31 4.45921 -7.85411e-16 -1.0453e-15 -0.543195 3.26511e-14 1.4175e-14)
(-7.39584e-15 7.76667e-31 0 4.45921 -2.48351e-15 5.41441e-16 -0.543195 9.13742e-15 -9.93828e-16)
(-3.29973e-15 1.46537e-30 0 4.06966 8.33735e-16 -3.52449e-16 -0.526049 3.19295e-14 1.48961e-14)
(-7.55613e-15 0 0 4.06966 -2.52396e-15 5.54788e-17 -0.526049 9.67953e-15 -1.01524e-15)
(-6.96829e-15 1.38239e-30 -3.45599e-31 3.72129 5.49218e-16 6.5963e-16 -0.510384 3.12176e-14 1.56326e-14)
(-4.59796e-15 -1.38239e-30 3.45599e-31 3.72129 -1.42124e-15 -7.34167e-16 -0.510384 1.03464e-14 -1.05517e-15)
(1.96512e-15 0 -3.26029e-31 3.40879 -4.07925e-16 8.97399e-16 -0.496024 3.06263e-14 1.53516e-14)
(-2.9366e-15 0 3.26029e-31 3.40879 5.30188e-16 -1.61235e-15 -0.496024 1.07638e-14 -1.00548e-15)
(2.00137e-15 6.15133e-31 -3.07567e-31 3.1276 -1.53905e-15 4.89055e-16 -0.482815 3.00484e-14 1.43714e-14)
(-8.00547e-15 -1.23027e-30 6.15133e-31 3.1276 5.79372e-16 -1.69208e-15 -0.482815 1.116e-14 -9.52463e-16)
(-2.03656e-15 -1.1606e-30 1.4822e-29 2.87387 -3.08817e-15 -1.78652e-28 -0.470624 2.9518e-14 1.33504e-14)
(5.53281e-15 1.1606e-30 -2.9015e-31 2.87387 3.50668e-16 -3.39797e-15 -0.470624 1.17313e-14 -9.28775e-16)
(3.94665e-16 0 -1.13888e-31 2.64431 -2.96656e-15 -2.79898e-16 -0.459333 2.89485e-14 1.22955e-14)
(-2.46545e-15 6.80202e-30 -2.7372e-31 2.64431 -5.66108e-45 -3.48819e-15 -0.459333 1.22534e-14 -7.51017e-16)
(2.10411e-15 -1.03288e-30 5.1644e-31 2.43609 -8.15584e-16 -9.60474e-16 -0.44884 2.83933e-14 1.12001e-14)
(0 1.03288e-30 -7.94477e-30 2.43609 -3.1039e-15 -3.77869e-16 -0.44884 1.2867e-14 -6.87102e-16)
(-6.52488e-15 1.94878e-30 -1.21799e-30 2.24679 1.12279e-15 -1.09333e-15 -0.439053 2.7778e-14 1.00045e-14)
(0 -9.74391e-31 -1.40484e-31 2.24679 -2.29474e-15 0 -0.439053 1.36444e-14 -2.53074e-16)
(-4.13977e-15 9.19214e-31 -4.59607e-31 2.0743 6.65589e-16 -4.71523e-16 -0.429893 2.70387e-14 8.74816e-15)
(1.52769e-14 6.95198e-30 0 2.0743 -2.3551e-15 1.24555e-15 -0.429893 1.41856e-14 -1.81546e-16)
(-2.46701e-16 -1.73432e-30 4.33581e-31 1.91681 -3.76972e-16 -2.27781e-16 -0.421288 2.63611e-14 7.406e-15)
(-6.84483e-15 0 -2.16791e-31 1.91681 -4.99302e-15 1.18712e-15 -0.421288 1.4783e-14 -8.21957e-17)
(-3.6842e-15 1.63612e-30 -6.13543e-31 1.77273 -5.54583e-16 2.63507e-16 -0.413174 2.5713e-14 6.41708e-15)
(7.07684e-15 0 0 1.77273 -2.4677e-15 9.35513e-17 -0.413174 1.55313e-14 9.87272e-17)
(0 -7.71734e-31 0 1.64068 -1.83514e-15 8.45885e-16 -0.405496 2.4994e-14 5.7479e-15)
(0 0 -3.85867e-31 1.64068 1.2211e-43 -1.19207e-15 -0.405496 1.60259e-14 4.36077e-16)
(0 0 -3.64016e-31 1.51946 -2.8243e-15 6.11089e-16 -0.398203 2.434e-14 5.27827e-15)
(-9.15448e-15 0 1.82008e-31 1.51946 -3.22858e-15 -8.67417e-16 -0.398203 1.67194e-14 8.24083e-16)
(2.31722e-15 0 0 1.40799 -2.47683e-15 6.06037e-16 -0.391248 2.3991e-14 4.95738e-15)
(0 0 0 1.40799 -2.94517e-15 -4.04951e-16 -0.391248 1.74552e-14 1.03953e-15)
(0 0 2.53157e-30 1.30535 -1.96367e-15 -1.70345e-29 -0.38459 2.37905e-14 4.56047e-15)
(-9.38115e-15 0 0 1.30535 -2.11061e-15 -7.02344e-16 -0.38459 1.80312e-14 1.36943e-15)
(-2.75272e-15 2.4449e-30 -4.58419e-31 1.2107 -1.92482e-15 -1.3996e-16 -0.378191 2.34633e-14 4.15817e-15)
(0 0 0 1.2107 -1.42066e-15 2.00195e-17 -0.378191 1.83988e-14 1.6054e-15)
(2.59684e-15 0 4.32461e-31 1.12332 -2.69682e-15 -1.20794e-29 -0.372019 2.3257e-14 3.63405e-15)
(0 1.01925e-30 -4.32461e-31 1.12332 -2.34209e-15 -6.27721e-16 -0.372019 1.83999e-14 1.72081e-15)
(2.4266e-15 0 -2.01015e-32 1.04254 -2.82953e-15 -2.14756e-16 -0.366041 2.28359e-14 3.01765e-15)
(-1.21562e-14 0 2.71981e-31 1.04254 -2.02003e-15 -1.84167e-15 -0.366041 1.88377e-14 2.1194e-15)
(2.45281e-15 0 -1.2829e-31 0.96779 -3.74665e-15 -9.98158e-16 -0.360229 2.23551e-14 2.72741e-15)
(7.50018e-15 7.38942e-30 1.2829e-31 0.96779 -4.94384e-16 -8.62937e-16 -0.360229 1.88016e-14 2.38994e-15)
(2.1802e-15 -1.9364e-30 -3.63076e-31 0.898548 -5.05658e-15 -1.55697e-15 -0.354556 2.22637e-14 2.36683e-15)
(-9.91437e-15 9.68202e-31 2.4205e-31 0.898548 -3.3821e-15 1.18376e-16 -0.354556 1.88905e-14 2.51131e-15)
(7.5119e-15 0 4.56688e-31 0.834348 -3.40872e-15 -1.09911e-15 -0.348999 2.20883e-14 2.60847e-15)
(1.00159e-14 0 -4.56688e-31 0.834348 -3.46365e-15 1.09477e-17 -0.348999 1.91631e-14 2.66948e-15)
(-3.88054e-15 3.44662e-30 -8.61654e-31 0.77477 -1.40822e-15 -2.31212e-16 -0.343534 2.15718e-14 2.69987e-15)
(-1.6351e-14 -3.44662e-30 8.61654e-31 0.77477 -4.48684e-15 -8.81275e-16 -0.343534 1.91903e-14 3.05452e-15)
(0 -1.62572e-30 1.52412e-31 0.719436 -5.52516e-16 -3.33253e-15 -0.338139 2.11596e-14 3.21662e-15)
(-1.02141e-14 0 -3.04823e-31 0.719436 -4.13801e-15 -8.99791e-16 -0.338139 1.97149e-14 3.5984e-15)
(2.57773e-15 0 0 0.668005 -3.20141e-16 -1.40204e-15 -0.332794 2.0527e-14 3.58717e-15)
(0 1.53366e-30 9.5854e-32 0.668005 -3.15114e-15 1.44402e-15 -0.332794 1.97955e-14 3.61297e-15)
(0 0 0 0.620166 -1.2218e-15 1.06002e-15 -0.327478 2.00893e-14 3.26403e-15)
(1.04063e-14 -1.44682e-30 0 0.620166 -4.06479e-15 2.88828e-15 -0.327478 1.99872e-14 2.76407e-15)
(0 0 0 0.575638 -4.32586e-15 1.98238e-15 -0.322171 2.04499e-14 2.83251e-15)
(0 0 1.1686e-30 0.575638 -3.53111e-15 8.65655e-45 -0.322171 2.04643e-14 2.10517e-15)
(5.29623e-15 0 0 0.534162 -3.28947e-15 2.07174e-15 -0.316853 2.07271e-14 2.92437e-15)
(1.05925e-14 2.5752e-30 0 0.534162 -9.66976e-16 -2.03281e-16 -0.316853 2.0293e-14 2.92991e-15)
(2.73523e-15 0 1.59465e-30 0.495504 -1.50293e-15 -5.02875e-30 -0.311503 2.07439e-14 2.87267e-15)
(-2.73523e-15 6.66044e-30 1.51836e-31 0.495504 -3.49071e-29 -1.08248e-16 -0.311503 1.98216e-14 3.55235e-15)
(-2.46748e-15 2.29181e-30 7.16189e-32 0.459446 7.5341e-16 -3.02994e-15 -0.306097 2.03106e-14 4.30598e-15)
(-1.07728e-14 0 -2.14878e-30 0.459446 -1.28704e-15 -1.2785e-29 -0.306097 2.00892e-14 3.87091e-15)
(2.71521e-15 2.11486e-31 0 0.425789 0 6.90979e-16 -0.300611 1.93897e-14 4.08276e-15)
(1.08608e-14 2.16203e-30 0 0.425789 4.38581e-16 -1.0433e-15 -0.300611 1.90211e-14 3.73972e-15)
(2.73685e-15 0 2.05683e-31 0.394347 -7.33085e-16 5.32481e-30 -0.295018 1.91354e-14 3.62911e-15)
(-1.55402e-14 7.00649e-46 1.59344e-32 0.394347 -9.86076e-32 1.78158e-15 -0.295018 1.87584e-14 4.14228e-15)
(0 0 2.40513e-31 0.364948 -5.5381e-16 2.69892e-15 -0.289286 1.62179e-14 3.81992e-15)
(1.10325e-14 1.14903e-30 9.10844e-45 0.364948 -6.81134e-16 -3.9443e-30 -0.289286 1.77218e-14 2.86943e-15)
(2.77901e-15 -6.00446e-31 9.83505e-31 0.33743 -1.03144e-15 4.33873e-30 -0.28338 1.38612e-14 3.13096e-15)
(-1.52034e-14 1.30723e-30 0 0.33743 2.21867e-29 7.19849e-16 -0.28338 1.69526e-14 4.08148e-15)
(1.74314e-15 1.76823e-30 -4.2809e-31 0.311641 -5.52309e-16 1.42363e-15 -0.277256 1.25487e-14 4.26921e-15)
(-1.11981e-14 1.71823e-30 0 0.311641 -1.89806e-16 5.57766e-15 -0.277256 1.51566e-14 3.39117e-15)
(-4.45545e-15 -8.97522e-31 0 0.287436 1.25811e-16 4.64602e-15 -0.270864 1.16369e-14 3.03997e-15)
(-4.00348e-15 3.75707e-30 0 0.287436 -2.11723e-15 5.89583e-15 -0.270864 1.11276e-14 1.89944e-15)
(2.83937e-15 -9.49548e-31 0 0.264679 -2.85395e-16 7.10792e-15 -0.264142 1.06565e-14 2.10708e-15)
(-1.47891e-14 5.24554e-30 0 0.264679 -1.07529e-15 5.27028e-15 -0.264142 9.40547e-15 1.13154e-15)
(2.85869e-15 -9.78315e-31 0 0.243236 -1.27713e-15 6.85568e-15 -0.257015 1.15548e-14 1.01508e-15)
(0 2.87525e-30 0 0.243236 -1.63065e-16 6.67875e-15 -0.257015 1.04033e-14 9.14297e-16)
(-2.87758e-15 1.29738e-30 0 0.222976 -1.36313e-16 -5.04455e-18 -0.24939 9.73526e-15 -5.8638e-16)
(-2.30207e-14 1.10624e-29 5.60519e-45 0.222976 -2.95967e-16 -1.97215e-31 -0.24939 8.98759e-15 6.41395e-30)
(2.881e-15 2.55884e-30 -1.27942e-30 0.203769 1.0678e-15 -4.03421e-16 -0.241148 9.94632e-15 1.59376e-15)