/*--------------------------------*- C++ -*----------------------------------*\
| =========                 |                                                 |
| \\      /  F ield         | OpenFOAM: The Open Source CFD Toolbox           |
|  \\    /   O peration     | Version:  2012                                  |
|   \\  /    A nd           | Website:  www.openfoam.com                      |
|    \\/     M anipulation  |                                                 |
\*---------------------------------------------------------------------------*/
FoamFile
{
    version     2.0;
    format      ascii;
    class       volScalarField;
    location    "3000";
    object      p;
}
// * * * * * * * * * * * * * * * * * * * * * * * * * * * * * * * * * * * * * //

dimensions      [0 2 -2 0 0 0 0];


internalField   nonuniform List<scalar> 
2560
(
1.16605e-15
5.90889e-15
2.41259e-15
5.90797e-15
2.44549e-15
5.90667e-15
2.12728e-15
5.90461e-15
1.86489e-15
5.90173e-15
1.63234e-15
5.89802e-15
1.39839e-15
5.89346e-15
1.16275e-15
5.88804e-15
9.3004e-16
5.88179e-15
7.01949e-16
5.87466e-15
4.78606e-16
5.86666e-15
2.59975e-16
5.85778e-15
4.61504e-17
5.84803e-15
-1.629e-16
5.83738e-15
-3.67321e-16
5.82584e-15
-5.67155e-16
5.81343e-15
-7.62483e-16
5.80013e-15
-9.53464e-16
5.78595e-15
-1.14023e-15
5.77081e-15
-1.32275e-15
5.75472e-15
-1.50134e-15
5.73769e-15
-1.6763e-15
5.71975e-15
-1.8478e-15
5.70083e-15
-2.01574e-15
5.68089e-15
-2.18062e-15
5.65979e-15
-2.34269e-15
5.63749e-15
-2.50224e-15
5.61406e-15
-2.65931e-15
5.58955e-15
-2.81422e-15
5.56382e-15
-2.9674e-15
5.53674e-15
-3.11912e-15
5.50815e-15
-3.26959e-15
5.47789e-15
-3.41908e-15
5.4462e-15
-3.56778e-15
5.41299e-15
-3.71586e-15
5.37815e-15
-3.86367e-15
5.34161e-15
-4.01155e-15
5.30301e-15
-4.15914e-15
5.26244e-15
-4.30683e-15
5.22e-15
-4.45508e-15
5.1754e-15
-4.6038e-15
5.12867e-15
-4.75296e-15
5.07989e-15
-4.90258e-15
5.0289e-15
-5.05279e-15
4.97543e-15
-5.20358e-15
4.91939e-15
-5.35494e-15
4.86071e-15
-5.50693e-15
4.79972e-15
-5.65941e-15
4.73627e-15
-5.81254e-15
4.66998e-15
-5.96614e-15
4.601e-15
-6.11991e-15
4.52929e-15
-6.27411e-15
4.45456e-15
-6.429e-15
4.37701e-15
-6.58404e-15
4.29684e-15
-6.73935e-15
4.21428e-15
-6.89511e-15
4.12956e-15
-7.05097e-15
4.04244e-15
-7.20656e-15
3.95291e-15
-7.36258e-15
3.86047e-15
-7.5192e-15
3.76643e-15
-7.67582e-15
3.67002e-15
-7.83205e-15
3.57155e-15
-7.98808e-15
3.47047e-15
-8.1444e-15
3.36709e-15
-8.29977e-15
3.26173e-15
-8.45527e-15
3.15415e-15
-8.61024e-15
3.04378e-15
-8.76491e-15
2.93186e-15
-8.91829e-15
2.81753e-15
-9.07029e-15
2.70177e-15
-9.2224e-15
2.58371e-15
-9.37362e-15
2.46372e-15
-9.5239e-15
2.34121e-15
-9.67221e-15
2.21689e-15
-9.81947e-15
2.0905e-15
-9.9653e-15
1.96177e-15
-1.011e-14
1.83012e-15
-1.02525e-14
1.69592e-15
-1.03931e-14
1.55958e-15
-1.05312e-14
1.42152e-15
-1.06676e-14
1.28113e-15
-1.0802e-14
1.13746e-15
-1.09344e-14
9.923e-16
-1.10662e-14
8.46088e-16
-1.11953e-14
6.99618e-16
-1.13224e-14
5.52994e-16
-1.14496e-14
4.05623e-16
-1.15755e-14
2.56899e-16
-1.16995e-14
1.08343e-16
-1.18229e-14
-3.85075e-17
-1.19451e-14
-1.86385e-16
-1.20654e-14
-3.3375e-16
-1.21861e-14
-4.79763e-16
-1.23028e-14
-6.27183e-16
-1.24155e-14
-7.78066e-16
-1.25266e-14
-9.29413e-16
-1.26331e-14
-1.08038e-15
-1.27381e-14
-1.23012e-15
-1.28423e-14
-1.38286e-15
-1.29421e-14
-1.53923e-15
-1.30391e-14
-1.69618e-15
-1.31327e-14
-1.85359e-15
-1.32265e-14
-2.01207e-15
-1.33163e-14
-2.17002e-15
-1.34014e-14
-2.32806e-15
-1.34857e-14
-2.48677e-15
-1.35676e-14
-2.64529e-15
-1.36452e-14
-2.80495e-15
-1.37201e-14
-2.96706e-15
-1.37938e-14
-3.12714e-15
-1.38656e-14
-3.28649e-15
-1.39364e-14
-3.44427e-15
-1.40064e-14
-3.60322e-15
-1.40735e-14
-3.76247e-15
-1.41393e-14
-3.92045e-15
-1.42039e-14
-4.07701e-15
-1.42682e-14
-4.23202e-15
-1.43301e-14
-4.38534e-15
-1.43941e-14
-4.53542e-15
-1.44532e-14
-4.68351e-15
-1.45091e-14
-4.8323e-15
-1.45674e-14
-4.97741e-15
-1.46228e-14
-5.12149e-15
-1.46741e-14
-5.26301e-15
-1.47256e-14
-5.4018e-15
-1.4776e-14
-5.53772e-15
-1.48256e-14
-5.67061e-15
-1.48732e-14
-5.80305e-15
-1.4919e-14
-5.93619e-15
-1.49672e-14
-6.06716e-15
-1.50113e-14
-6.19444e-15
-1.50555e-14
-6.31919e-15
-1.50947e-14
-6.44521e-15
-1.51319e-14
-6.57493e-15
-1.51697e-14
-6.70284e-15
-1.52073e-14
-6.83006e-15
-1.5242e-14
-6.96028e-15
-1.52782e-14
-7.08937e-15
-1.53108e-14
-7.21458e-15
-1.53439e-14
-7.34082e-15
-1.53815e-14
-7.47164e-15
-1.5415e-14
-7.60047e-15
-1.54484e-14
-7.72712e-15
-1.54832e-14
-7.85509e-15
-1.55159e-14
-7.9829e-15
-1.5548e-14
-8.10909e-15
-1.55773e-14
-8.23828e-15
-1.56078e-14
-8.36658e-15
-1.56396e-14
-8.49496e-15
-1.56706e-14
-8.62198e-15
-1.57022e-14
-8.74858e-15
-1.57312e-14
-8.87451e-15
-1.5758e-14
-8.99838e-15
-1.57839e-14
-9.12453e-15
-1.5816e-14
-9.25154e-15
-1.58478e-14
-9.37912e-15
-1.58784e-14
-9.50589e-15
-1.59059e-14
-9.62495e-15
-1.59306e-14
-9.74273e-15
-1.59595e-14
-9.86551e-15
-1.59883e-14
-9.99077e-15
-1.60195e-14
-1.01139e-14
-1.6045e-14
-1.02368e-14
-1.60629e-14
-1.03613e-14
-1.60904e-14
-1.0485e-14
-1.61111e-14
-1.06098e-14
-1.61314e-14
-1.07354e-14
-1.61558e-14
-1.08594e-14
-1.61763e-14
-1.09857e-14
-1.61973e-14
-1.111e-14
-1.62152e-14
-1.12321e-14
-1.62301e-14
-1.13538e-14
-1.62444e-14
-1.14787e-14
-1.62602e-14
-1.16008e-14
-1.6274e-14
-1.17237e-14
-1.62897e-14
-1.18454e-14
-1.63038e-14
-1.19674e-14
-1.63167e-14
-1.20897e-14
-1.63302e-14
-1.22084e-14
-1.63447e-14
-1.23233e-14
-1.63622e-14
-1.2438e-14
-1.63809e-14
-1.25522e-14
-1.6403e-14
-1.26676e-14
-1.64233e-14
-1.27787e-14
-1.64438e-14
-1.28888e-14
-1.64648e-14
-1.30031e-14
-1.64848e-14
-1.31161e-14
-1.6504e-14
-1.32294e-14
-1.65192e-14
-1.33447e-14
-1.65357e-14
-1.34585e-14
-1.65471e-14
-1.3574e-14
-1.65617e-14
-1.36928e-14
-1.65778e-14
-1.38085e-14
-1.65892e-14
-1.39211e-14
-1.65992e-14
-1.4034e-14
-1.66126e-14
-1.41519e-14
-1.66231e-14
-1.42701e-14
-1.66292e-14
-1.43828e-14
-1.66356e-14
-1.44948e-14
-1.6648e-14
-1.46093e-14
-1.66574e-14
-1.47176e-14
-1.66756e-14
-1.48201e-14
-1.66966e-14
-1.49199e-14
-1.67173e-14
-1.50201e-14
-1.67379e-14
-1.51153e-14
-1.67612e-14
-1.52057e-14
-1.67814e-14
-1.52972e-14
-1.68014e-14
-1.53873e-14
-1.68238e-14
-1.54789e-14
-1.68487e-14
-1.55641e-14
-1.68788e-14
-1.56431e-14
-1.69085e-14
-1.57244e-14
-1.69406e-14
-1.58082e-14
-1.69671e-14
-1.58893e-14
-1.70013e-14
-1.59626e-14
-1.70328e-14
-1.60336e-14
-1.70642e-14
-1.6108e-14
-1.70982e-14
-1.6186e-14
-1.71374e-14
-1.62573e-14
-1.71714e-14
-1.63221e-14
-1.72083e-14
-1.63992e-14
-1.72427e-14
-1.64728e-14
-1.72826e-14
-1.65383e-14
-1.73149e-14
-1.66088e-14
-1.73526e-14
-1.66796e-14
-1.73959e-14
-1.67508e-14
-1.74369e-14
-1.68177e-14
-1.74807e-14
-1.68831e-14
-1.75169e-14
-1.69499e-14
-1.75586e-14
-1.70185e-14
-1.76058e-14
-1.70893e-14
-1.76505e-14
-1.71574e-14
-1.76897e-14
-1.72176e-14
-1.77342e-14
-1.72812e-14
-1.77841e-14
-1.73568e-14
-1.78281e-14
-1.74256e-14
-1.7863e-14
-1.7502e-14
-1.79024e-14
-1.75756e-14
-1.79372e-14
-1.76614e-14
-1.79724e-14
-1.77404e-14
-1.80072e-14
-1.78193e-14
-1.80529e-14
-1.78991e-14
-1.81031e-14
-1.79808e-14
-1.81638e-14
-1.80494e-14
-1.82287e-14
-1.81306e-14
-1.82913e-14
-1.81991e-14
-1.83584e-14
-1.82748e-14
-1.8423e-14
-1.8365e-14
-1.84986e-14
-1.8457e-14
-1.85711e-14
-1.85516e-14
-1.86324e-14
-1.86347e-14
-1.87041e-14
-1.8699e-14
-1.87713e-14
-1.8774e-14
-1.88572e-14
-1.88368e-14
-1.89388e-14
-1.89104e-14
-1.90164e-14
-1.90034e-14
-1.9089e-14
-1.91001e-14
-1.91644e-14
-1.91752e-14
-1.92695e-14
-1.92276e-14
-1.93432e-14
-1.93094e-14
-1.94205e-14
-1.94033e-14
-1.95201e-14
-1.95011e-14
-1.96136e-14
-1.96122e-14
-1.97002e-14
-1.96878e-14
-1.97799e-14
-1.97768e-14
-1.98621e-14
-1.98593e-14
-1.9968e-14
-1.99663e-14
-2.00661e-14
-2.00559e-14
-2.01453e-14
-2.01382e-14
-2.02496e-14
-2.02013e-14
-2.03362e-14
-2.02997e-14
-2.0427e-14
-2.04464e-14
-2.05431e-14
-2.0575e-14
-2.06252e-14
-2.06617e-14
-2.07446e-14
-2.06688e-14
-2.08586e-14
-2.07474e-14
-2.09566e-14
-2.09094e-14
-2.10726e-14
-2.10728e-14
-2.12049e-14
-2.11643e-14
-2.13429e-14
-2.1244e-14
-2.14767e-14
-2.13069e-14
-2.16236e-14
-2.14377e-14
-2.1785e-14
-2.15957e-14
-2.19344e-14
-2.17554e-14
-2.20445e-14
-2.18901e-14
-2.21527e-14
-2.20275e-14
-2.23246e-14
-2.22093e-14
-2.24782e-14
-2.23686e-14
-2.25996e-14
-2.25198e-14
-2.27411e-14
-2.26502e-14
-2.2875e-14
-2.27585e-14
-2.30027e-14
-2.29547e-14
-2.31187e-14
-2.31071e-14
-2.32744e-14
-2.3276e-14
-2.34414e-14
-2.34625e-14
-2.35906e-14
-2.36385e-14
-2.37753e-14
-2.37782e-14
-2.39697e-14
-2.39361e-14
-2.41236e-14
-2.40801e-14
-2.42942e-14
-2.42904e-14
-2.44512e-14
-2.44595e-14
-2.46505e-14
-2.45632e-14
-2.48182e-14
-2.47025e-14
-2.49832e-14
-2.4844e-14
-2.5177e-14
-2.50398e-14
-2.52904e-14
-2.52057e-14
-2.53995e-14
-2.53728e-14
-2.55529e-14
-2.54878e-14
-2.56703e-14
-2.56281e-14
-2.57771e-14
-2.57415e-14
-2.58974e-14
-2.58561e-14
-2.60325e-14
-2.59984e-14
-2.61283e-14
-2.61159e-14
-2.62323e-14
-2.61551e-14
-2.63531e-14
-2.6324e-14
-2.64577e-14
-2.6468e-14
-2.65654e-14
-2.6546e-14
-2.6678e-14
-2.66104e-14
-2.67778e-14
-2.67601e-14
-2.68778e-14
-2.68499e-14
-1.19362e-15
-1.55065e-15
-1.19406e-15
-1.55085e-15
-1.19469e-15
-1.55114e-15
-1.19569e-15
-1.55163e-15
-1.19708e-15
-1.55233e-15
-1.1989e-15
-1.55326e-15
-1.20114e-15
-1.5544e-15
-1.2038e-15
-1.55574e-15
-1.20688e-15
-1.55732e-15
-1.21037e-15
-1.55916e-15
-1.2143e-15
-1.56122e-15
-1.21864e-15
-1.56358e-15
-1.22339e-15
-1.56618e-15
-1.22856e-15
-1.56903e-15
-1.23417e-15
-1.57212e-15
-1.24019e-15
-1.57543e-15
-1.24667e-15
-1.57903e-15
-1.2536e-15
-1.58288e-15
-1.26092e-15
-1.58704e-15
-1.2688e-15
-1.59147e-15
-1.27712e-15
-1.59614e-15
-1.286e-15
-1.60107e-15
-1.29532e-15
-1.60627e-15
-1.30519e-15
-1.61189e-15
-1.31546e-15
-1.61792e-15
-1.3263e-15
-1.62437e-15
-1.3378e-15
-1.63115e-15
-1.34986e-15
-1.63825e-15
-1.3625e-15
-1.64571e-15
-1.37581e-15
-1.65374e-15
-1.38992e-15
-1.6624e-15
-1.40489e-15
-1.67148e-15
-1.42052e-15
-1.68092e-15
-1.43693e-15
-1.69101e-15
-1.45437e-15
-1.70184e-15
-1.47259e-15
-1.71335e-15
-1.49163e-15
-1.72564e-15
-1.5118e-15
-1.73858e-15
-1.53279e-15
-1.75283e-15
-1.55474e-15
-1.76799e-15
-1.57769e-15
-1.78383e-15
-1.60205e-15
-1.80057e-15
-1.6274e-15
-1.81854e-15
-1.65348e-15
-1.83778e-15
-1.6809e-15
-1.85804e-15
-1.70963e-15
-1.87957e-15
-1.73968e-15
-1.9021e-15
-1.7711e-15
-1.92586e-15
-1.80403e-15
-1.95134e-15
-1.83839e-15
-1.97838e-15
-1.87388e-15
-2.00677e-15
-1.91098e-15
-2.03669e-15
-1.94935e-15
-2.06804e-15
-1.98938e-15
-2.10097e-15
-2.03121e-15
-2.1348e-15
-2.07463e-15
-2.16976e-15
-2.1199e-15
-2.20665e-15
-2.16679e-15
-2.24473e-15
-2.21557e-15
-2.28452e-15
-2.26601e-15
-2.32633e-15
-2.31782e-15
-2.36965e-15
-2.37157e-15
-2.41422e-15
-2.42782e-15
-2.45919e-15
-2.48604e-15
-2.50655e-15
-2.54623e-15
-2.55518e-15
-2.60752e-15
-2.60477e-15
-2.67106e-15
-2.65682e-15
-2.73688e-15
-2.70924e-15
-2.80468e-15
-2.76384e-15
-2.87413e-15
-2.82064e-15
-2.94554e-15
-2.87841e-15
-3.01795e-15
-2.93745e-15
-3.09229e-15
-2.99775e-15
-3.1679e-15
-3.05932e-15
-3.24574e-15
-3.12246e-15
-3.32512e-15
-3.1875e-15
-3.40571e-15
-3.25411e-15
-3.4878e-15
-3.32163e-15
-3.5717e-15
-3.39204e-15
-3.65772e-15
-3.46468e-15
-3.74482e-15
-3.53819e-15
-3.8333e-15
-3.61325e-15
-3.92383e-15
-3.68983e-15
-4.01499e-15
-3.76792e-15
-4.10744e-15
-3.84752e-15
-4.20113e-15
-3.9293e-15
-4.29603e-15
-4.01115e-15
-4.39209e-15
-4.09657e-15
-4.48858e-15
-4.18273e-15
-4.58686e-15
-4.2689e-15
-4.68475e-15
-4.35789e-15
-4.78435e-15
-4.44757e-15
-4.8849e-15
-4.53861e-15
-4.98636e-15
-4.63316e-15
-5.0894e-15
-4.72761e-15
-5.19252e-15
-4.82193e-15
-5.2964e-15
-4.91608e-15
-5.401e-15
-5.01223e-15
-5.50626e-15
-5.11326e-15
-5.61359e-15
-5.2148e-15
-5.72075e-15
-5.31608e-15
-5.83206e-15
-5.41855e-15
-5.94093e-15
-5.52291e-15
-6.04948e-15
-5.62913e-15
-6.16129e-15
-5.73646e-15
-6.27196e-15
-5.84489e-15
-6.38796e-15
-5.95365e-15
-6.50198e-15
-6.06273e-15
-6.61759e-15
-6.17355e-15
-6.73258e-15
-6.28464e-15
-6.8476e-15
-6.39526e-15
-6.96406e-15
-6.50754e-15
-7.08117e-15
-6.62146e-15
-7.19889e-15
-6.73411e-15
-7.315e-15
-6.84764e-15
-7.43089e-15
-6.96131e-15
-7.5522e-15
-7.07366e-15
-7.67318e-15
-7.18611e-15
-7.79377e-15
-7.29722e-15
-7.91394e-15
-7.4098e-15
-8.03222e-15
-7.5224e-15
-8.14859e-15
-7.63781e-15
-8.26578e-15
-7.75042e-15
-8.38237e-15
-7.86024e-15
-8.49691e-15
-7.97141e-15
-8.61213e-15
-8.08253e-15
-8.72933e-15
-8.19358e-15
-8.8471e-15
-8.3032e-15
-8.96672e-15
-8.41408e-15
-9.0814e-15
-8.5289e-15
-9.19515e-15
-8.64224e-15
-9.30927e-15
-8.75544e-15
-9.4237e-15
-8.86981e-15
-9.5397e-15
-8.98271e-15
-9.65197e-15
-9.09545e-15
-9.7644e-15
-9.20671e-15
-9.87307e-15
-9.31652e-15
-9.9844e-15
-9.42488e-15
-1.0097e-14
-9.5318e-15
-1.02071e-14
-9.63982e-15
-1.03133e-14
-9.75018e-15
-1.04219e-14
-9.85909e-15
-1.05267e-14
-9.96406e-15
-1.063e-14
-1.00701e-14
-1.07331e-14
-1.01784e-14
-1.08347e-14
-1.02865e-14
-1.09324e-14
-1.03944e-14
-1.10297e-14
-1.04985e-14
-1.11231e-14
-1.06036e-14
-1.12183e-14
-1.07109e-14
-1.13119e-14
-1.08169e-14
-1.14049e-14
-1.09216e-14
-1.14962e-14
-1.10238e-14
-1.15844e-14
-1.11259e-14
-1.16743e-14
-1.12279e-14
-1.17633e-14
-1.1331e-14
-1.1847e-14
-1.14363e-14
-1.19364e-14
-1.15371e-14
-1.20248e-14
-1.16357e-14
-1.21099e-14
-1.17322e-14
-1.21961e-14
-1.18265e-14
-1.22789e-14
-1.19232e-14
-1.23562e-14
-1.2022e-14
-1.24406e-14
-1.21147e-14
-1.25216e-14
-1.22055e-14
-1.26052e-14
-1.22965e-14
-1.26914e-14
-1.23857e-14
-1.27779e-14
-1.2473e-14
-1.28629e-14
-1.25606e-14
-1.29481e-14
-1.26485e-14
-1.30336e-14
-1.27326e-14
-1.31173e-14
-1.28189e-14
-1.31953e-14
-1.29112e-14
-1.32735e-14
-1.29979e-14
-1.33537e-14
-1.3081e-14
-1.34319e-14
-1.31644e-14
-1.35064e-14
-1.3248e-14
-1.35826e-14
-1.33263e-14
-1.36587e-14
-1.34067e-14
-1.3731e-14
-1.34872e-14
-1.38012e-14
-1.35645e-14
-1.38747e-14
-1.36384e-14
-1.39479e-14
-1.3709e-14
-1.40207e-14
-1.37817e-14
-1.40931e-14
-1.38527e-14
-1.41582e-14
-1.39205e-14
-1.42262e-14
-1.3985e-14
-1.42871e-14
-1.40529e-14
-1.43508e-14
-1.41209e-14
-1.44123e-14
-1.41855e-14
-1.44748e-14
-1.42517e-14
-1.45367e-14
-1.43177e-14
-1.45995e-14
-1.43787e-14
-1.466e-14
-1.44378e-14
-1.47183e-14
-1.44981e-14
-1.47744e-14
-1.4561e-14
-1.48282e-14
-1.46217e-14
-1.48904e-14
-1.46772e-14
-1.49488e-14
-1.4741e-14
-1.50005e-14
-1.48067e-14
-1.50544e-14
-1.48714e-14
-1.51075e-14
-1.49321e-14
-1.51626e-14
-1.49886e-14
-1.52168e-14
-1.50468e-14
-1.52729e-14
-1.51065e-14
-1.53281e-14
-1.51618e-14
-1.53793e-14
-1.52156e-14
-1.54324e-14
-1.52733e-14
-1.54845e-14
-1.53319e-14
-1.55299e-14
-1.53914e-14
-1.55796e-14
-1.54461e-14
-1.56309e-14
-1.54989e-14
-1.56807e-14
-1.5555e-14
-1.5713e-14
-1.56197e-14
-1.5749e-14
-1.56768e-14
-1.58017e-14
-1.5724e-14
-1.58578e-14
-1.57743e-14
-1.59039e-14
-1.58303e-14
-1.59426e-14
-1.58812e-14
-1.59869e-14
-1.59324e-14
-1.60314e-14
-1.59943e-14
-1.60836e-14
-1.60512e-14
-1.6133e-14
-1.61082e-14
-1.61794e-14
-1.6168e-14
-1.62226e-14
-1.62254e-14
-1.62782e-14
-1.62752e-14
-1.63435e-14
-1.6333e-14
-1.63975e-14
-1.63933e-14
-1.64481e-14
-1.64482e-14
-1.65111e-14
-1.6495e-14
-1.65734e-14
-1.6552e-14
-1.66379e-14
-1.66138e-14
-1.66964e-14
-1.66666e-14
-1.67601e-14
-1.67212e-14
-1.68264e-14
-1.67829e-14
-1.6887e-14
-1.68405e-14
-1.69336e-14
-1.69136e-14
-1.69998e-14
-1.69713e-14
-1.70573e-14
-1.70246e-14
-1.71208e-14
-1.70788e-14
-1.7188e-14
-1.71397e-14
-1.72531e-14
-1.72011e-14
-1.73163e-14
-1.72627e-14
-1.73809e-14
-1.73115e-14
-1.74407e-14
-1.73725e-14
-1.74954e-14
-1.74524e-14
-1.75712e-14
-1.75325e-14
-1.76413e-14
-1.76059e-14
-1.77126e-14
-1.76793e-14
-1.77777e-14
-1.77524e-14
-1.78581e-14
-1.78325e-14
-1.79397e-14
-1.79122e-14
-1.80226e-14
-1.79837e-14
-1.81072e-14
-1.80623e-14
-1.81855e-14
-1.814e-14
-1.82739e-14
-1.82335e-14
-1.83555e-14
-1.83178e-14
-1.843e-14
-1.83923e-14
-1.85417e-14
-1.84744e-14
-1.86565e-14
-1.85546e-14
-1.8748e-14
-1.8641e-14
-1.88441e-14
-1.87527e-14
-1.89345e-14
-1.88716e-14
-1.90378e-14
-1.89589e-14
-1.91245e-14
-1.90535e-14
-1.9225e-14
-1.91559e-14
-1.93292e-14
-1.92561e-14
-1.94264e-14
-1.93424e-14
-1.95165e-14
-1.94468e-14
-1.961e-14
-1.9537e-14
-1.97065e-14
-1.96467e-14
-1.98175e-14
-1.97772e-14
-1.99189e-14
-1.99058e-14
-2.00209e-14
-2.00091e-14
-2.01356e-14
-2.00867e-14
-2.02401e-14
-2.01989e-14
-2.03582e-14
-2.03225e-14
-2.04775e-14
-2.04568e-14
-2.06225e-14
-2.05762e-14
-2.07693e-14
-2.07309e-14
-2.09045e-14
-2.09105e-14
-2.10513e-14
-2.10814e-14
-2.12348e-14
-2.12057e-14
-2.13921e-14
-2.13715e-14
-2.15492e-14
-2.1526e-14
-2.17073e-14
-2.16962e-14
-2.18803e-14
-2.18563e-14
-2.20278e-14
-2.20044e-14
-2.21903e-14
-2.21811e-14
-2.23679e-14
-2.23185e-14
-2.25227e-14
-2.24274e-14
-2.26721e-14
-2.25458e-14
-2.28472e-14
-2.26678e-14
-2.2998e-14
-2.2844e-14
-2.31503e-14
-2.30759e-14
-2.33255e-14
-2.32582e-14
-2.3552e-14
-2.33625e-14
-2.36721e-14
-2.3546e-14
-2.3847e-14
-2.37862e-14
-2.39864e-14
-2.39507e-14
-2.41431e-14
-2.40674e-14
-2.43204e-14
-2.42428e-14
-2.45455e-14
-2.44227e-14
-2.47123e-14
-2.46036e-14
-2.48478e-14
-2.47883e-14
-2.50279e-14
-2.50089e-14
-2.5167e-14
-2.5244e-14
-2.53396e-14
-2.53958e-14
-2.54645e-14
-2.55205e-14
-2.56253e-14
-2.5645e-14
-2.57459e-14
-2.57655e-14
-2.58536e-14
-2.58822e-14
-2.6028e-14
-2.60222e-14
-2.61407e-14
-2.60994e-14
-2.62523e-14
-2.62212e-14
-2.63878e-14
-2.62762e-14
-2.65341e-14
-2.6327e-14
-2.66281e-14
-2.64099e-14
-2.68058e-14
-2.64688e-14
-2.69597e-14
-2.65558e-14
-2.69754e-14
-2.69063e-14
-2.70758e-14
-2.70255e-14
-2.71499e-14
-2.70526e-14
-2.72429e-14
-2.71281e-14
-2.73342e-14
-2.72486e-14
-2.73672e-14
-2.73105e-14
-2.73896e-14
-2.74005e-14
-2.74971e-14
-2.74796e-14
-2.75591e-14
-2.75415e-14
-2.76571e-14
-2.74993e-14
-2.77571e-14
-2.76307e-14
-2.77721e-14
-2.77213e-14
-2.78287e-14
-2.77558e-14
-2.78699e-14
-2.78706e-14
-2.79135e-14
-2.7937e-14
-2.79569e-14
-2.79314e-14
-2.79752e-14
-2.79859e-14
-2.80211e-14
-2.80192e-14
-2.80692e-14
-2.80841e-14
-2.80905e-14
-2.8154e-14
-2.81102e-14
-2.81783e-14
-2.81257e-14
-2.81863e-14
-2.81369e-14
-2.81771e-14
-2.81445e-14
-2.82311e-14
-2.81728e-14
-2.82674e-14
-2.81938e-14
-2.82038e-14
-2.81867e-14
-2.82009e-14
-2.81504e-14
-2.82307e-14
-2.8162e-14
-2.81578e-14
-2.81465e-14
-2.81713e-14
-2.81302e-14
-2.82481e-14
-2.80649e-14
-2.82296e-14
-2.8072e-14
-2.8132e-14
-2.809e-14
-2.80983e-14
-2.8095e-14
-2.80279e-14
-2.80782e-14
-2.80097e-14
-2.80538e-14
-2.80567e-14
-2.80564e-14
-2.80796e-14
-2.80436e-14
-2.80926e-14
-2.80534e-14
-2.80715e-14
-2.80608e-14
-2.80792e-14
-2.80659e-14
-2.80766e-14
-2.80565e-14
-2.80619e-14
-2.80711e-14
-2.80853e-14
-2.80473e-14
-2.80719e-14
-2.80339e-14
-2.80724e-14
-2.80298e-14
-2.8111e-14
-2.80449e-14
-2.80808e-14
-2.80222e-14
-2.80394e-14
-2.80095e-14
-2.79858e-14
-2.80085e-14
-2.79758e-14
-2.79966e-14
-2.79965e-14
-2.79954e-14
-2.79823e-14
-2.79618e-14
-2.79456e-14
-2.79602e-14
-2.79407e-14
-2.79588e-14
-2.79251e-14
-2.79482e-14
-2.78781e-14
-2.79403e-14
-2.78694e-14
-2.79349e-14
-2.78877e-14
-2.7941e-14
-2.78751e-14
-2.79212e-14
-2.78698e-14
-2.79035e-14
-2.78813e-14
-2.79225e-14
-2.78743e-14
-2.79251e-14
-2.78489e-14
-2.79131e-14
-2.78478e-14
-2.79116e-14
-2.78537e-14
-2.79196e-14
-2.78665e-14
-2.79287e-14
-2.78621e-14
-2.79236e-14
-2.78487e-14
-2.79278e-14
-2.7857e-14
-2.79188e-14
-2.78569e-14
-2.79184e-14
-2.78562e-14
-2.79261e-14
-2.78549e-14
-2.79282e-14
-2.78734e-14
-2.79381e-14
-2.78846e-14
-2.79423e-14
-2.78756e-14
-2.79477e-14
-2.78857e-14
-2.79543e-14
-2.79145e-14
-2.79617e-14
-2.79305e-14
-2.79545e-14
-2.79254e-14
-2.79511e-14
-2.79265e-14
-2.79513e-14
-2.79279e-14
-2.79637e-14
-2.79294e-14
-2.79653e-14
-2.79337e-14
-2.7962e-14
-2.79436e-14
-2.79649e-14
-2.79535e-14
-2.79738e-14
-2.79609e-14
-2.79803e-14
-2.79712e-14
-2.79735e-14
-2.79819e-14
-2.79804e-14
-2.79931e-14
-2.79845e-14
-2.80023e-14
-2.79885e-14
-2.80095e-14
-2.79897e-14
-2.80173e-14
-2.79986e-14
-2.8026e-14
-2.80099e-14
-2.80302e-14
-2.80132e-14
-2.80324e-14
-2.80164e-14
-2.80378e-14
-2.80195e-14
-2.80466e-14
-2.80251e-14
-2.80534e-14
-2.80383e-14
-2.80556e-14
-2.80463e-14
-2.80583e-14
-2.80543e-14
-2.80589e-14
-2.80624e-14
-2.80651e-14
-2.80733e-14
-2.80689e-14
-2.80871e-14
-2.80676e-14
-2.80958e-14
-2.8069e-14
-2.80942e-14
-2.80731e-14
-2.80984e-14
-2.80772e-14
-2.81028e-14
-2.80786e-14
-2.81021e-14
-2.80774e-14
-2.81045e-14
-2.80733e-14
-2.81099e-14
-2.8069e-14
-2.81159e-14
-2.80729e-14
-2.81138e-14
-2.80767e-14
-2.8115e-14
-2.80746e-14
-2.81193e-14
-2.80723e-14
-2.8127e-14
-2.80784e-14
-2.81322e-14
-2.80843e-14
-2.8135e-14
-2.80901e-14
-2.81382e-14
-2.80927e-14
-2.81418e-14
-2.80981e-14
-2.81458e-14
-2.81004e-14
-2.81503e-14
-2.80995e-14
-2.81491e-14
-2.81045e-14
-2.81529e-14
-2.81063e-14
-2.81539e-14
-2.81048e-14
-2.81522e-14
-2.81094e-14
-2.8146e-14
-2.81186e-14
-2.81464e-14
-2.81247e-14
-2.8147e-14
-2.81259e-14
-2.81461e-14
-2.81271e-14
-2.81471e-14
-2.81299e-14
-2.81515e-14
-2.81344e-14
-2.81545e-14
-2.81356e-14
-2.81509e-14
-2.81367e-14
-2.81525e-14
-2.8143e-14
-2.8156e-14
-2.81511e-14
-2.81579e-14
-2.8154e-14
-2.81598e-14
-2.81518e-14
-2.81584e-14
-2.81495e-14
-2.8157e-14
-2.81527e-14
-2.81593e-14
-2.81558e-14
-2.81599e-14
-2.81591e-14
-2.81606e-14
-2.81643e-14
-2.81594e-14
-2.81676e-14
-2.81602e-14
-2.81674e-14
-2.81629e-14
-2.8169e-14
-2.81637e-14
-2.81707e-14
-2.81704e-14
-2.81725e-14
-2.81693e-14
-2.81763e-14
-2.81723e-14
-2.81801e-14
-2.81792e-14
-2.8184e-14
-2.81843e-14
-2.81859e-14
-2.81875e-14
-2.81858e-14
-2.81907e-14
-2.81837e-14
-2.8194e-14
-2.81815e-14
-2.81974e-14
-2.81792e-14
-2.81968e-14
-2.8179e-14
-2.81983e-14
-2.81808e-14
-2.81999e-14
-2.81826e-14
-2.82059e-14
-2.81822e-14
-2.82054e-14
-2.81861e-14
-2.82029e-14
-2.81922e-14
-2.82069e-14
-2.81938e-14
-2.82111e-14
-2.81954e-14
-2.82108e-14
-2.8197e-14
-2.82106e-14
-2.81975e-14
-2.82024e-14
-2.81979e-14
-2.82e-14
-2.82017e-14
-2.82033e-14
-2.82079e-14
-2.82032e-14
-2.8213e-14
-2.82018e-14
-2.82158e-14
-2.81993e-14
-2.8215e-14
-2.8198e-14
-2.82155e-14
-2.81978e-14
-2.82183e-14
-2.81964e-14
-2.82201e-14
-2.81938e-14
-2.82218e-14
-2.81948e-14
-2.82286e-14
-2.81958e-14
-2.82329e-14
-2.81956e-14
-2.82324e-14
-2.8194e-14
-2.82306e-14
-2.8195e-14
-2.82326e-14
-2.81946e-14
-2.82347e-14
-2.81942e-14
-2.82356e-14
-2.81951e-14
-2.82365e-14
-2.81986e-14
-2.82401e-14
-2.82008e-14
-2.82412e-14
-2.82003e-14
-2.82396e-14
-2.82025e-14
-2.82381e-14
-2.82047e-14
-2.8238e-14
-2.82082e-14
-2.82378e-14
-2.82117e-14
-2.82391e-14
-2.82166e-14
-2.8239e-14
-2.82202e-14
-2.82403e-14
-2.82238e-14
-2.82389e-14
-2.82261e-14
-2.82389e-14
-2.8227e-14
-2.82402e-14
-2.82293e-14
-2.82416e-14
-2.82302e-14
-2.8243e-14
-2.82312e-14
-2.8243e-14
-2.82336e-14
-2.8243e-14
-2.8236e-14
-2.82444e-14
-2.82356e-14
-2.82473e-14
-2.82366e-14
-2.82459e-14
-2.82391e-14
-2.82431e-14
-2.82402e-14
-2.8241e-14
-2.82406e-14
-2.8241e-14
-2.8241e-14
-2.8241e-14
-2.82415e-14
-2.82411e-14
-2.82419e-14
-2.82397e-14
-2.82417e-14
-2.82375e-14
-2.824e-14
-2.82368e-14
-2.82405e-14
-2.82376e-14
-2.82418e-14
-2.82376e-14
-2.8243e-14
-2.82355e-14
-2.82443e-14
-2.8234e-14
-2.82457e-14
-2.82362e-14
-2.82455e-14
-2.82377e-14
-2.82433e-14
-2.82406e-14
-2.82424e-14
-2.82406e-14
-2.82424e-14
-2.82406e-14
-2.82423e-14
-2.82414e-14
-2.82408e-14
-2.82428e-14
-2.82394e-14
-2.82429e-14
-2.82401e-14
-2.82429e-14
-2.82401e-14
-2.82436e-14
-2.82401e-14
-2.82451e-14
-2.82379e-14
-2.8248e-14
-2.82373e-14
-2.82473e-14
-2.8238e-14
-2.82459e-14
-2.82373e-14
-2.82474e-14
-2.82374e-14
-2.8251e-14
-2.82368e-14
-2.82531e-14
-2.82361e-14
-2.82539e-14
-2.82355e-14
-2.82546e-14
-2.82356e-14
-2.82547e-14
-2.8235e-14
-2.82569e-14
-2.82351e-14
-2.82597e-14
-2.82345e-14
-2.82612e-14
-2.82335e-14
-2.82612e-14
-2.8233e-14
-2.82617e-14
-2.82324e-14
-2.82618e-14
-2.82328e-14
-2.82612e-14
-2.82336e-14
-2.82606e-14
-2.82337e-14
-2.82617e-14
-2.82338e-14
-2.82615e-14
-2.82343e-14
-2.82607e-14
-2.8235e-14
-2.82608e-14
-2.82364e-14
-2.82603e-14
-2.82381e-14
-2.82601e-14
-2.82383e-14
-2.82599e-14
-2.82387e-14
-2.82591e-14
-2.82388e-14
-2.82596e-14
-2.82392e-14
-2.82594e-14
-2.824e-14
-2.82581e-14
-2.82407e-14
-2.82568e-14
-2.82405e-14
-2.82563e-14
-2.82404e-14
-2.82565e-14
-2.82402e-14
-2.82569e-14
-2.82401e-14
-2.82568e-14
-2.82394e-14
-2.82575e-14
-2.8239e-14
-2.82579e-14
-2.82389e-14
-2.82572e-14
-2.82383e-14
-2.82574e-14
-2.82381e-14
-2.82578e-14
-2.82378e-14
-2.82584e-14
-2.82369e-14
-2.8259e-14
-2.82368e-14
-2.82592e-14
-2.82369e-14
-2.82593e-14
-2.82365e-14
-2.82594e-14
-2.82362e-14
-2.82595e-14
-2.8236e-14
-2.82599e-14
-2.82358e-14
-2.82602e-14
-2.82356e-14
-2.82606e-14
-2.82355e-14
-2.82607e-14
-2.82354e-14
-2.8261e-14
-2.82351e-14
-2.82611e-14
-2.82348e-14
-2.82612e-14
-2.82345e-14
-2.82616e-14
-2.82343e-14
-2.82618e-14
-2.82343e-14
-2.82619e-14
-2.82342e-14
-2.82622e-14
-2.82341e-14
-2.82624e-14
-2.82339e-14
-2.82626e-14
-2.82339e-14
-2.82631e-14
-2.82338e-14
-2.82632e-14
-2.82336e-14
-2.82633e-14
-2.82334e-14
-2.82635e-14
-2.82333e-14
-2.82637e-14
-2.82332e-14
-2.82639e-14
-2.82331e-14
-2.82641e-14
-2.8233e-14
-2.82643e-14
-2.82328e-14
-2.82646e-14
-2.82328e-14
-2.82648e-14
-2.82328e-14
-2.82649e-14
-2.82328e-14
-2.82649e-14
-2.82327e-14
-2.82649e-14
-2.82326e-14
-2.82649e-14
-2.82326e-14
-2.82649e-14
-2.82326e-14
-2.82649e-14
-2.82326e-14
-2.82649e-14
-2.82326e-14
-2.8265e-14
-2.82326e-14
-2.8265e-14
-2.82326e-14
-2.8265e-14
-2.82326e-14
-2.82649e-14
-2.82326e-14
-2.82649e-14
-2.82326e-14
-2.82649e-14
-2.82327e-14
-2.8265e-14
-2.82327e-14
-2.8265e-14
-2.82327e-14
-2.8265e-14
-2.82327e-14
-2.8265e-14
-2.82327e-14
-2.8265e-14
-2.82327e-14
-2.82651e-14
-2.82328e-14
-2.82651e-14
-2.82328e-14
-2.82651e-14
-2.82328e-14
-2.82651e-14
-2.82328e-14
-2.82651e-14
-2.82328e-14
-2.82651e-14
-2.82328e-14
-2.82651e-14
-2.82328e-14
-2.82651e-14
-2.70815e-14
-2.66568e-14
-2.71768e-14
-2.67458e-14
-2.711e-14
-2.69296e-14
-2.71491e-14
-2.7022e-14
-2.72008e-14
-2.71413e-14
-2.72517e-14
-2.71898e-14
-2.73307e-14
-2.71934e-14
-2.73979e-14
-2.73003e-14
-2.74719e-14
-2.74095e-14
-2.75211e-14
-2.7502e-14
-2.75918e-14
-2.75926e-14
-2.76524e-14
-2.76254e-14
-2.7765e-14
-2.76771e-14
-2.78285e-14
-2.77419e-14
-2.78716e-14
-2.77614e-14
-2.79531e-14
-2.78151e-14
-2.79648e-14
-2.78757e-14
-2.79853e-14
-2.79496e-14
-2.80078e-14
-2.80162e-14
-2.7998e-14
-2.80521e-14
-2.80635e-14
-2.80599e-14
-2.80989e-14
-2.80618e-14
-2.81364e-14
-2.81113e-14
-2.81477e-14
-2.81557e-14
-2.81585e-14
-2.81409e-14
-2.81701e-14
-2.81193e-14
-2.81849e-14
-2.81184e-14
-2.82048e-14
-2.81371e-14
-2.81477e-14
-2.80908e-14
-2.81225e-14
-2.801e-14
-2.81047e-14
-2.8027e-14
-2.80498e-14
-2.80446e-14
-2.80365e-14
-2.80001e-14
-2.8052e-14
-2.79903e-14
-2.80565e-14
-2.79732e-14
-2.80243e-14
-2.79492e-14
-2.80491e-14
-2.79594e-14
-2.80789e-14
-2.80015e-14
-2.8087e-14
-2.79967e-14
-2.81013e-14
-2.80106e-14
-2.81086e-14
-2.80178e-14
-2.8109e-14
-2.80701e-14
-2.80998e-14
-2.80687e-14
-2.80806e-14
-2.80786e-14
-2.80869e-14
-2.80631e-14
-2.80952e-14
-2.80711e-14
-2.80815e-14
-2.81143e-14
-2.80797e-14
-2.81465e-14
-2.80759e-14
-2.81353e-14
-2.80591e-14
-2.80823e-14
-2.80541e-14
-2.80673e-14
-2.8027e-14
-2.80774e-14
-2.80212e-14
-2.80135e-14
-2.80162e-14
-2.7951e-14
-2.79935e-14
-2.793e-14
-2.79635e-14
-2.79174e-14
-2.7946e-14
-2.79034e-14
-2.79301e-14
-2.78887e-14
-2.79158e-14
-2.79026e-14
-2.79115e-14
-2.78969e-14
-2.79167e-14
-2.78819e-14
-2.79135e-14
-2.78663e-14
-2.7903e-14
-2.78495e-14
-2.78939e-14
-2.78401e-14
-2.79031e-14
-2.78208e-14
-2.79142e-14
-2.78244e-14
-2.79272e-14
-2.78415e-14
-2.79342e-14
-2.784e-14
-2.79279e-14
-2.78127e-14
-2.7932e-14
-2.77905e-14
-2.79319e-14
-2.77871e-14
-2.79351e-14
-2.77942e-14
-2.79344e-14
-2.77905e-14
-2.79298e-14
-2.779e-14
-2.7935e-14
-2.7786e-14
-2.79363e-14
-2.77913e-14
-2.79338e-14
-2.77865e-14
-2.79276e-14
-2.77972e-14
-2.79299e-14
-2.78229e-14
-2.79367e-14
-2.78362e-14
-2.7933e-14
-2.78528e-14
-2.79217e-14
-2.78584e-14
-2.7923e-14
-2.78652e-14
-2.79248e-14
-2.78762e-14
-2.7927e-14
-2.78859e-14
-2.79268e-14
-2.78889e-14
-2.79296e-14
-2.78881e-14
-2.79381e-14
-2.78917e-14
-2.79469e-14
-2.79022e-14
-2.7956e-14
-2.79116e-14
-2.79655e-14
-2.79198e-14
-2.79647e-14
-2.79322e-14
-2.79722e-14
-2.7933e-14
-2.79852e-14
-2.79382e-14
-2.79881e-14
-2.79477e-14
-2.79861e-14
-2.79535e-14
-2.79975e-14
-2.79586e-14
-2.79986e-14
-2.79681e-14
-2.80052e-14
-2.79743e-14
-2.80147e-14
-2.79772e-14
-2.80191e-14
-2.79872e-14
-2.80237e-14
-2.79966e-14
-2.80364e-14
-2.80082e-14
-2.80466e-14
-2.80193e-14
-2.80543e-14
-2.80193e-14
-2.80568e-14
-2.80189e-14
-2.80595e-14
-2.80206e-14
-2.80623e-14
-2.80299e-14
-2.80681e-14
-2.80361e-14
-2.80657e-14
-2.80393e-14
-2.80689e-14
-2.80421e-14
-2.80722e-14
-2.80447e-14
-2.80755e-14
-2.8047e-14
-2.80818e-14
-2.80546e-14
-2.80797e-14
-2.80564e-14
-2.80776e-14
-2.8058e-14
-2.80812e-14
-2.80624e-14
-2.80848e-14
-2.80695e-14
-2.80855e-14
-2.80707e-14
-2.80861e-14
-2.80747e-14
-2.80837e-14
-2.80757e-14
-2.80871e-14
-2.80796e-14
-2.80845e-14
-2.80834e-14
-2.80908e-14
-2.80872e-14
-2.8097e-14
-2.8091e-14
-2.80954e-14
-2.80932e-14
-2.80952e-14
-2.80906e-14
-2.8095e-14
-2.80928e-14
-2.80962e-14
-2.80997e-14
-2.80989e-14
-2.81066e-14
-2.80983e-14
-2.81054e-14
-2.80976e-14
-2.81058e-14
-2.8095e-14
-2.81096e-14
-2.81023e-14
-2.81117e-14
-2.81012e-14
-2.81122e-14
-2.81015e-14
-2.81143e-14
-2.81069e-14
-2.81199e-14
-2.81106e-14
-2.81239e-14
-2.81123e-14
-2.81243e-14
-2.81104e-14
-2.8123e-14
-2.81138e-14
-2.81216e-14
-2.81171e-14
-2.81257e-14
-2.81186e-14
-2.81334e-14
-2.81199e-14
-2.81393e-14
-2.81174e-14
-2.81435e-14
-2.81186e-14
-2.81458e-14
-2.81196e-14
-2.81483e-14
-2.81263e-14
-2.81489e-14
-2.81252e-14
-2.81572e-14
-2.81239e-14
-2.81715e-14
-2.81304e-14
-2.81802e-14
-2.81308e-14
-2.81831e-14
-2.8133e-14
-2.81881e-14
-2.81331e-14
-2.81954e-14
-2.81412e-14
-2.81967e-14
-2.8143e-14
-2.8196e-14
-2.81488e-14
-2.81997e-14
-2.81566e-14
-2.82056e-14
-2.81644e-14
-2.82095e-14
-2.81679e-14
-2.82114e-14
-2.81713e-14
-2.82113e-14
-2.81768e-14
-2.82135e-14
-2.81778e-14
-2.82179e-14
-2.81811e-14
-2.82203e-14
-2.81775e-14
-2.82183e-14
-2.81784e-14
-2.82164e-14
-2.81758e-14
-2.8219e-14
-2.81788e-14
-2.82195e-14
-2.81783e-14
-2.82177e-14
-2.81742e-14
-2.82183e-14
-2.81735e-14
-2.82178e-14
-2.81775e-14
-2.82173e-14
-2.81791e-14
-2.82146e-14
-2.81794e-14
-2.82118e-14
-2.81785e-14
-2.82078e-14
-2.81788e-14