/*--------------------------------*- C++ -*----------------------------------*\
| =========                 |                                                 |
| \\      /  F ield         | OpenFOAM: The Open Source CFD Toolbox           |
|  \\    /   O peration     | Version:  2012                                  |
|   \\  /    A nd           | Website:  www.openfoam.com                      |
|    \\/     M anipulation  |                                                 |
\*---------------------------------------------------------------------------*/
FoamFile
{
    version     2.0;
    format      ascii;
    class       volVectorField;
    location    "14168";
    object      U;
}
// * * * * * * * * * * * * * * * * * * * * * * * * * * * * * * * * * * * * * //

dimensions      [0 1 -1 0 0 0 0];


internalField   nonuniform List<vector> 
2560
(
(0.00210336 -4.73772e-11 1.95573e-10)
(0.00210336 4.21568e-11 1.92975e-10)
(0.00634004 -9.06469e-11 3.01352e-10)
(0.00634004 1.15872e-10 2.97385e-10)
(0.0106377 3.52968e-11 3.11041e-10)
(0.0106377 1.51451e-10 3.06952e-10)
(0.0149971 1.1191e-10 3.22989e-10)
(0.0149971 1.92293e-10 3.18755e-10)
(0.0194191 1.65491e-10 3.39247e-10)
(0.0194191 2.30261e-10 3.34866e-10)
(0.0239046 2.08646e-10 3.62799e-10)
(0.0239046 2.73816e-10 3.58279e-10)
(0.0284543 2.58252e-10 3.97668e-10)
(0.0284543 3.25081e-10 3.93015e-10)
(0.0330691 3.13869e-10 4.49039e-10)
(0.0330691 3.79937e-10 4.4425e-10)
(0.0377498 3.69386e-10 5.23408e-10)
(0.0377498 4.3263e-10 5.18479e-10)
(0.042497 4.32234e-10 6.28721e-10)
(0.042497 4.91968e-10 6.23647e-10)
(0.0473116 4.9053e-10 7.74552e-10)
(0.0473116 5.46997e-10 7.69329e-10)
(0.0521942 5.49045e-10 9.72284e-10)
(0.0521942 6.02787e-10 9.66906e-10)
(0.0571455 6.11067e-10 1.23526e-09)
(0.0571455 6.626e-10 1.22972e-09)
(0.0621662 6.69779e-10 1.57899e-09)
(0.0621662 7.19456e-10 1.57329e-09)
(0.0672568 7.2536e-10 1.75326e-09)
(0.0672568 7.73477e-10 1.72912e-09)
(0.0724179 7.80235e-10 1.80444e-09)
(0.0724179 8.27039e-10 1.77961e-09)
(0.0776499 8.42937e-10 1.85707e-09)
(0.0776499 8.88632e-10 1.83153e-09)
(0.0829533 8.95987e-10 1.91117e-09)
(0.0829533 9.40762e-10 1.88489e-09)
(0.0883285 9.36911e-10 2.23663e-09)
(0.0883285 9.8092e-10 2.23662e-09)
(0.0937756 9.96502e-10 2.68543e-09)
(0.0937756 1.03991e-09 2.68541e-09)
(0.099295 1.06008e-09 3.19931e-09)
(0.099295 1.10304e-09 3.1993e-09)
(0.104887 1.08387e-09 3.78436e-09)
(0.104887 1.12653e-09 3.78435e-09)
(0.110551 1.11365e-09 4.44651e-09)
(0.110551 1.1561e-09 4.44649e-09)
(0.116287 1.19045e-09 5.19281e-09)
(0.116287 1.23284e-09 5.19279e-09)
(0.122096 1.23062e-09 6.03095e-09)
(0.122096 1.27332e-09 6.03093e-09)
(0.127976 1.21402e-09 6.96742e-09)
(0.127976 1.25683e-09 6.96741e-09)
(0.133928 1.24092e-09 8.00874e-09)
(0.133928 1.28392e-09 8.00872e-09)
(0.139951 1.31946e-09 9.16318e-09)
(0.139951 1.36304e-09 9.16317e-09)
(0.146044 1.32773e-09 1.04391e-08)
(0.146044 1.37073e-09 1.04391e-08)
(0.152207 1.2766e-09 1.18426e-08)
(0.152207 1.32195e-09 1.18426e-08)
(0.158438 1.28328e-09 1.33799e-08)
(0.158438 1.32961e-09 1.33799e-08)
(0.164736 1.34579e-09 1.50589e-08)
(0.164736 1.39114e-09 1.50589e-08)
(0.171101 1.30443e-09 1.68867e-08)
(0.171101 1.34957e-09 1.68867e-08)
(0.177531 1.21058e-09 1.88671e-08)
(0.177531 1.25859e-09 1.88671e-08)
(0.184025 1.20927e-09 2.10041e-08)
(0.184025 1.25934e-09 2.1004e-08)
(0.19058 1.23318e-09 2.33032e-08)
(0.19058 1.2816e-09 2.33032e-08)
(0.197195 1.12544e-09 2.57673e-08)
(0.197195 1.17497e-09 2.57672e-08)
(0.203869 9.7713e-10 2.83948e-08)
(0.203869 1.02735e-09 2.83948e-08)
(0.210598 9.33684e-10 3.11845e-08)
(0.210598 9.85495e-10 3.11845e-08)
(0.217381 9.29012e-10 3.41364e-08)
(0.217381 9.81507e-10 3.41364e-08)
(0.224215 7.88277e-10 3.7248e-08)
(0.224215 8.40728e-10 3.7248e-08)
(0.231099 5.55593e-10 4.05107e-08)
(0.231099 6.08706e-10 4.05107e-08)
(0.238028 4.77739e-10 4.39158e-08)
(0.238028 5.31545e-10 4.39158e-08)
(0.245 4.09912e-10 4.74573e-08)
(0.245 4.64467e-10 4.74573e-08)
(0.252012 2.16887e-10 5.11259e-08)
(0.252012 2.72076e-10 5.11259e-08)
(0.259062 -4.62871e-12 5.49085e-08)
(0.259062 5.00881e-11 5.49085e-08)
(0.266146 -1.27687e-10 5.87931e-08)
(0.266146 -7.2565e-11 5.87931e-08)
(0.27326 -4.29315e-11 6.27748e-08)
(0.27326 1.22631e-11 6.27747e-08)
(0.280401 -5.32608e-10 6.6841e-08)
(0.280401 -4.72496e-10 6.6841e-08)
(0.287566 -1.09475e-09 7.09642e-08)
(0.287566 -1.03779e-09 7.09643e-08)
(0.294751 -2.49139e-10 7.51486e-08)
(0.294751 -1.95573e-10 7.51486e-08)
(0.301953 -6.50415e-10 7.94048e-08)
(0.301953 -5.92423e-10 7.94048e-08)
(0.309167 -1.72891e-09 8.36982e-08)
(0.309167 -1.67105e-09 8.36981e-08)
(0.316389 -7.09902e-10 8.80287e-08)
(0.316389 -6.5219e-10 8.80287e-08)
(0.323617 -1.42105e-09 9.24082e-08)
(0.323617 -1.36275e-09 9.24081e-08)
(0.330846 -1.52042e-09 9.6821e-08)
(0.330846 -1.4621e-09 9.6821e-08)
(0.338072 -1.31849e-09 1.01276e-07)
(0.338072 -1.2667e-09 1.01276e-07)
(0.345291 -2.18565e-09 1.05764e-07)
(0.345291 -2.12867e-09 1.05764e-07)
(0.3525 -1.58637e-09 1.10284e-07)
(0.3525 -1.52624e-09 1.10284e-07)
(0.359694 -1.57571e-09 1.14863e-07)
(0.359694 -1.52055e-09 1.14863e-07)
(0.36687 -1.66619e-09 1.19508e-07)
(0.36687 -1.61504e-09 1.19508e-07)
(0.374023 -2.65275e-09 1.24201e-07)
(0.374023 -2.59738e-09 1.242e-07)
(0.381151 -2.31292e-09 1.28931e-07)
(0.381151 -2.25364e-09 1.28931e-07)
(0.388249 -9.89769e-10 1.33757e-07)
(0.388249 -9.40771e-10 1.33757e-07)
(0.395314 -2.88002e-09 1.38673e-07)
(0.395314 -2.82684e-09 1.38673e-07)
(0.402342 -2.52243e-09 1.43644e-07)
(0.402342 -2.46649e-09 1.43644e-07)
(0.40933 -2.10811e-09 1.48702e-07)
(0.40933 -2.05773e-09 1.48702e-07)
(0.416274 -2.17341e-09 1.53868e-07)
(0.416274 -2.12362e-09 1.53868e-07)
(0.423171 -2.20711e-09 1.59146e-07)
(0.423171 -2.153e-09 1.59146e-07)
(0.430019 -3.30095e-09 1.64512e-07)
(0.430019 -3.24871e-09 1.64512e-07)
(0.436813 -1.7606e-09 1.69986e-07)
(0.436813 -1.71573e-09 1.69986e-07)
(0.443552 -2.97527e-09 1.75587e-07)
(0.443552 -2.92429e-09 1.75587e-07)
(0.450232 -2.47175e-09 1.81298e-07)
(0.450232 -2.42038e-09 1.81298e-07)
(0.456852 -2.53888e-09 1.8714e-07)
(0.456852 -2.49168e-09 1.8714e-07)
(0.463407 -2.55763e-09 1.93118e-07)
(0.463407 -2.51104e-09 1.93118e-07)
(0.469897 -3.21067e-09 1.99213e-07)
(0.469897 -3.16284e-09 1.99213e-07)
(0.476319 -2.66847e-09 2.05426e-07)
(0.476319 -2.61898e-09 2.05426e-07)
(0.482671 -2.77779e-09 2.11776e-07)
(0.482671 -2.73241e-09 2.11776e-07)
(0.488952 -2.88562e-09 2.1826e-07)
(0.488952 -2.84034e-09 2.1826e-07)
(0.495159 -2.87072e-09 2.24877e-07)
(0.495159 -2.8214e-09 2.24877e-07)
(0.501291 -3.62869e-09 2.31603e-07)
(0.501291 -3.58185e-09 2.31603e-07)
(0.507347 -2.25818e-09 2.3846e-07)
(0.507347 -2.21605e-09 2.3846e-07)
(0.513325 -3.81381e-09 2.45444e-07)
(0.513325 -3.76664e-09 2.45444e-07)
(0.519225 -3.22766e-09 2.52518e-07)
(0.519225 -3.18035e-09 2.52518e-07)
(0.525045 -2.64763e-09 2.59724e-07)
(0.525045 -2.60455e-09 2.59724e-07)
(0.530785 -3.40034e-09 2.67057e-07)
(0.530785 -3.35462e-09 2.67057e-07)
(0.536444 -3.45463e-09 2.74484e-07)
(0.536444 -3.41082e-09 2.74484e-07)
(0.542023 -3.30432e-09 2.82003e-07)
(0.542023 -3.25907e-09 2.82003e-07)
(0.547519 -4.11485e-09 2.89585e-07)
(0.547519 -4.06994e-09 2.89585e-07)
(0.552933 -2.96578e-09 2.97238e-07)
(0.552933 -2.92329e-09 2.97238e-07)
(0.558266 -3.27909e-09 3.0499e-07)
(0.558266 -3.23475e-09 3.0499e-07)
(0.563517 -3.60611e-09 3.12812e-07)
(0.563517 -3.56122e-09 3.12812e-07)
(0.568686 -4.28407e-09 3.2065e-07)
(0.568686 -4.24068e-09 3.2065e-07)
(0.573773 -3.44014e-09 3.28503e-07)
(0.573773 -3.39703e-09 3.28503e-07)
(0.578779 -2.50967e-09 3.36441e-07)
(0.578779 -2.46679e-09 3.36441e-07)
(0.583705 -5.35344e-09 3.44369e-07)
(0.583705 -5.31054e-09 3.44369e-07)
(0.588551 -3.06848e-09 3.52247e-07)
(0.588551 -3.02544e-09 3.52247e-07)
(0.593317 -3.5555e-09 3.60148e-07)
(0.593317 -3.51264e-09 3.60148e-07)
(0.598004 -4.43175e-09 3.67994e-07)
(0.598004 -4.38815e-09 3.67994e-07)
(0.602613 -2.43662e-09 3.75825e-07)
(0.602613 -2.39696e-09 3.75825e-07)
(0.607146 -4.97877e-09 3.836e-07)
(0.607146 -4.93576e-09 3.836e-07)
(0.611602 -4.16384e-09 3.91218e-07)
(0.611602 -4.11985e-09 3.91218e-07)
(0.615983 -2.68785e-09 3.98772e-07)
(0.615983 -2.6482e-09 3.98772e-07)
(0.620291 -4.49059e-09 4.06231e-07)
(0.620291 -4.44856e-09 4.06231e-07)
(0.624525 -3.67763e-09 4.13526e-07)
(0.624525 -3.63537e-09 4.13526e-07)
(0.628688 -3.43098e-09 4.20691e-07)
(0.628688 -3.38899e-09 4.20691e-07)
(0.632781 -4.41919e-09 4.27669e-07)
(0.632781 -4.37716e-09 4.27669e-07)
(0.636804 -2.90181e-09 4.34465e-07)
(0.636804 -2.86236e-09 4.34465e-07)
(0.64076 -4.20795e-09 4.41072e-07)
(0.64076 -4.16457e-09 4.41071e-07)
(0.644649 -4.24728e-09 4.47391e-07)
(0.644649 -4.20505e-09 4.47391e-07)
(0.648473 -2.20623e-09 4.53511e-07)
(0.648473 -2.16717e-09 4.53511e-07)
(0.652233 -4.60484e-09 4.59393e-07)
(0.652233 -4.5624e-09 4.59393e-07)
(0.655932 -3.1405e-09 4.64958e-07)
(0.655932 -3.09882e-09 4.64958e-07)
(0.659569 -3.47442e-09 4.70251e-07)
(0.659569 -3.4329e-09 4.70251e-07)
(0.663148 -3.75369e-09 4.7521e-07)
(0.663148 -3.71114e-09 4.75211e-07)
(0.666668 -2.60557e-09 4.79867e-07)
(0.666668 -2.56573e-09 4.79867e-07)
(0.670133 -3.64462e-09 4.84206e-07)
(0.670133 -3.60281e-09 4.84206e-07)
(0.673543 -2.94637e-09 4.88185e-07)
(0.673543 -2.90296e-09 4.88185e-07)
(0.6769 -4.05931e-09 4.91754e-07)
(0.6769 -4.01743e-09 4.91755e-07)
(0.680206 -1.71243e-09 4.9497e-07)
(0.680206 -1.67194e-09 4.9497e-07)
(0.683461 -3.75503e-09 4.97835e-07)
(0.683461 -3.71161e-09 4.97835e-07)
(0.686669 -2.3373e-09 5.00288e-07)
(0.686669 -2.2945e-09 5.00288e-07)
(0.68983 -2.86478e-09 5.02371e-07)
(0.68983 -2.82191e-09 5.02371e-07)
(0.692946 -3.34893e-09 5.03997e-07)
(0.692946 -3.30481e-09 5.03997e-07)
(0.696018 -1.40175e-09 5.05248e-07)
(0.696018 -1.36002e-09 5.05248e-07)
(0.699049 -3.77093e-09 5.06084e-07)
(0.699049 -3.72615e-09 5.06084e-07)
(0.702039 -1.67234e-09 5.06467e-07)
(0.702039 -1.62801e-09 5.06467e-07)
(0.704992 -2.24593e-09 5.06497e-07)
(0.704992 -2.2011e-09 5.06497e-07)
(0.707907 -3.14808e-09 5.06056e-07)
(0.707907 -3.10286e-09 5.06056e-07)
(0.710787 -1.68681e-09 5.05171e-07)
(0.710787 -1.64178e-09 5.05171e-07)
(0.713633 -1.93178e-09 5.03926e-07)
(0.713633 -1.88611e-09 5.03926e-07)
(0.716448 -2.41335e-09 5.02261e-07)
(0.716448 -2.36633e-09 5.02261e-07)
(0.719232 -2.44388e-09 5.0013e-07)
(0.719232 -2.39668e-09 5.0013e-07)
(0.721988 -1.66023e-09 4.97584e-07)
(0.721988 -1.61364e-09 4.97584e-07)
(0.724716 -1.84366e-09 4.94669e-07)
(0.724716 -1.79517e-09 4.94669e-07)
(0.727419 -2.1003e-09 4.91349e-07)
(0.727419 -2.05173e-09 4.91349e-07)
(0.730098 -1.89759e-09 4.87619e-07)
(0.730098 -1.84866e-09 4.87619e-07)
(0.732755 -1.90003e-09 4.83497e-07)
(0.732755 -1.84974e-09 4.83497e-07)
(0.735391 -1.97684e-09 4.78977e-07)
(0.735391 -1.92602e-09 4.78977e-07)
(0.738007 -1.57768e-09 4.7409e-07)
(0.738007 -1.52761e-09 4.7409e-07)
(0.740606 -1.7655e-09 4.6886e-07)
(0.740606 -1.71269e-09 4.6886e-07)
(0.743188 -1.62793e-09 4.63291e-07)
(0.743188 -1.57586e-09 4.63291e-07)
(0.745755 -1.73637e-09 4.57394e-07)
(0.745755 -1.68244e-09 4.57394e-07)
(0.748308 -1.99938e-09 4.51145e-07)
(0.748308 -1.94445e-09 4.51145e-07)
(0.750849 -1.1416e-09 4.44608e-07)
(0.750849 -1.08796e-09 4.44608e-07)
(0.753379 -2.02751e-09 4.37795e-07)
(0.753379 -1.97109e-09 4.37795e-07)
(0.755899 -1.57674e-09 4.30679e-07)
(0.755899 -1.51857e-09 4.30679e-07)
(0.758411 -1.49606e-09 4.23325e-07)
(0.758411 -1.43945e-09 4.23325e-07)
(0.760915 -1.79234e-09 4.15732e-07)
(0.760915 -1.73316e-09 4.15732e-07)
(0.763413 -1.74426e-09 4.07891e-07)
(0.763413 -1.68347e-09 4.07891e-07)
(0.765905 -1.80005e-09 3.99822e-07)
(0.765905 -1.73975e-09 3.99822e-07)
(0.768394 -1.91916e-09 3.91527e-07)
(0.768394 -1.85636e-09 3.91527e-07)
(0.770879 -1.79372e-09 3.83028e-07)
(0.770879 -1.7311e-09 3.83028e-07)
(0.773362 -2.04127e-09 3.74333e-07)
(0.773362 -1.97605e-09 3.74333e-07)
(0.775843 -2.09747e-09 3.65436e-07)
(0.775843 -2.03166e-09 3.65436e-07)
(0.778324 -1.85339e-09 3.56379e-07)
(0.778324 -1.78687e-09 3.56379e-07)
(0.780804 -2.69691e-09 3.47124e-07)
(0.780804 -2.62765e-09 3.47124e-07)
(0.783286 -1.78508e-09 3.37703e-07)
(0.783286 -1.71626e-09 3.37703e-07)
(0.785768 -2.55035e-09 3.28162e-07)
(0.785768 -2.47831e-09 3.28162e-07)
(0.788252 -2.69667e-09 3.18426e-07)
(0.788252 -2.62348e-09 3.18427e-07)
(0.790738 -2.10509e-09 3.08575e-07)
(0.790738 -2.03221e-09 3.08576e-07)
(0.793226 -3.13187e-09 2.98592e-07)
(0.793226 -3.05583e-09 2.98592e-07)
(0.795717 -2.43417e-09 2.88468e-07)
(0.795717 -2.35594e-09 2.88468e-07)
(0.79821 -3.43598e-09 2.782e-07)
(0.79821 -3.35642e-09 2.782e-07)
(0.800705 -2.02686e-09 2.67873e-07)
(0.800705 -1.9479e-09 2.67873e-07)
(0.803203 -4.46914e-09 2.57398e-07)
(0.803203 -4.38488e-09 2.57398e-07)
(0.805704 -2.57203e-09 2.46737e-07)
(0.805704 -2.48818e-09 2.46737e-07)
(0.808207 -3.63327e-09 2.36038e-07)
(0.808207 -3.54671e-09 2.36038e-07)
(0.810712 -3.29936e-09 2.25249e-07)
(0.810712 -3.2105e-09 2.25249e-07)
(0.813219 -4.09658e-09 2.14351e-07)
(0.813219 -4.00714e-09 2.14352e-07)
(0.815728 -3.93856e-09 2.03301e-07)
(0.815728 -3.84425e-09 2.03301e-07)
(0.818239 -3.33844e-09 1.92246e-07)
(0.818239 -3.2452e-09 1.92246e-07)
(0.820753 -5.15197e-09 1.8107e-07)
(0.820753 -5.05337e-09 1.8107e-07)
(0.823268 -3.31591e-09 1.69822e-07)
(0.823268 -3.21777e-09 1.69822e-07)
(0.825786 -5.12996e-09 1.58562e-07)
(0.825786 -5.02756e-09 1.58562e-07)
(0.828306 -3.6649e-09 1.47292e-07)
(0.828306 -3.55996e-09 1.47293e-07)
(0.830827 -5.67885e-09 1.35998e-07)
(0.830827 -5.57301e-09 1.35998e-07)
(0.833351 -3.8781e-09 1.24703e-07)
(0.833351 -3.766e-09 1.24703e-07)
(0.835877 -5.59551e-09 1.1349e-07)
(0.835877 -5.48761e-09 1.1349e-07)
(0.838405 -5.26883e-09 1.02214e-07)
(0.838405 -5.14516e-09 1.02214e-07)
(0.840934 -5.13989e-09 9.10113e-08)
(0.840934 -5.03325e-09 9.10113e-08)
(0.843464 -5.95826e-09 7.98516e-08)
(0.843464 -5.81958e-09 7.98522e-08)
(0.845995 -5.98024e-09 6.8674e-08)
(0.845995 -5.88064e-09 6.86735e-08)
(0.848527 -6.00818e-09 5.75469e-08)
(0.848527 -5.84003e-09 5.75483e-08)
(0.851059 -6.81618e-09 4.64138e-08)
(0.851059 -6.74375e-09 4.64124e-08)
(0.853591 -6.61361e-09 3.52544e-08)
(0.853591 -6.39335e-09 3.52572e-08)
(0.856122 -7.26963e-09 2.40732e-08)
(0.856122 -7.23933e-09 2.40704e-08)
(0.858653 -7.29934e-09 1.28397e-08)
(0.858653 -7.04389e-09 1.28428e-08)
(0.861183 -7.7857e-09 1.05135e-08)
(0.861183 -7.67889e-09 1.84975e-08)
(0.863711 -7.94494e-09 1.05897e-08)
(0.863711 -7.98541e-09 1.88323e-08)
(0.866239 -8.26208e-09 1.01141e-08)
(0.866239 -8.46215e-09 9.9543e-09)
(0.868765 -8.5756e-09 2.15466e-08)
(0.868765 -8.52926e-09 2.1543e-08)
(0.87129 -8.52217e-09 3.32418e-08)
(0.87129 -8.70026e-09 3.32454e-08)
(0.873814 -9.1327e-09 4.4982e-08)
(0.873814 -9.12903e-09 4.49798e-08)
(0.876336 -9.26675e-09 5.67672e-08)
(0.876336 -9.39531e-09 5.67692e-08)
(0.878857 -9.17668e-09 6.8628e-08)
(0.878857 -9.20837e-09 6.86269e-08)
(0.881376 -1.00687e-08 8.04594e-08)
(0.881376 -1.01643e-08 8.04604e-08)
(0.883893 -1.02571e-08 9.22919e-08)
(0.883893 -1.03059e-08 9.22915e-08)
(0.886409 -1.00595e-08 1.04218e-07)
(0.886409 -1.01368e-08 1.04218e-07)
(0.888922 -1.14101e-08 1.16106e-07)
(0.888922 -1.14655e-08 1.16106e-07)
(0.891433 -1.11942e-08 1.28053e-07)
(0.891433 -1.12617e-08 1.28053e-07)
(0.89394 -1.15004e-08 1.40161e-07)
(0.89394 -1.15562e-08 1.40161e-07)
(0.896444 -1.25307e-08 1.52308e-07)
(0.896444 -1.25914e-08 1.52308e-07)
(0.898943 -1.21351e-08 1.64631e-07)
(0.898943 -1.21899e-08 1.64631e-07)
(0.901438 -1.32109e-08 1.7712e-07)
(0.901438 -1.32662e-08 1.7712e-07)
(0.903927 -1.25505e-08 1.89768e-07)
(0.903927 -1.26028e-08 1.89768e-07)
(0.90641 -1.43064e-08 2.02504e-07)
(0.90641 -1.43574e-08 2.02505e-07)
(0.908887 -1.30121e-08 2.154e-07)
(0.908887 -1.30614e-08 2.154e-07)
(0.911358 -1.51852e-08 2.28387e-07)
(0.911358 -1.52322e-08 2.28387e-07)
(0.913823 -1.44528e-08 2.41472e-07)
(0.913823 -1.44991e-08 2.41472e-07)
(0.916283 -1.53337e-08 2.54809e-07)
(0.916283 -1.53769e-08 2.54809e-07)
(0.918736 -1.59362e-08 2.68229e-07)
(0.918736 -1.59788e-08 2.68229e-07)
(0.921183 -1.5762e-08 2.81881e-07)
(0.921183 -1.58022e-08 2.81881e-07)
(0.923624 -1.69206e-08 2.95653e-07)
(0.923624 -1.69594e-08 2.95653e-07)
(0.926058 -1.66829e-08 3.09557e-07)
(0.926058 -1.67199e-08 3.09557e-07)
(0.928485 -1.85702e-08 3.23585e-07)
(0.928485 -1.86053e-08 3.23585e-07)
(0.930906 -1.79817e-08 3.37909e-07)
(0.930906 -1.80155e-08 3.3791e-07)
(0.933319 -1.97481e-08 3.52625e-07)
(0.933319 -1.97798e-08 3.52625e-07)
(0.935724 -1.95978e-08 3.67783e-07)
(0.935724 -1.96286e-08 3.67783e-07)
(0.938122 -2.01853e-08 3.8356e-07)
(0.938122 -2.02137e-08 3.8356e-07)
(0.940512 -2.1574e-08 3.99801e-07)
(0.940512 -2.16015e-08 3.99801e-07)
(0.942895 -2.12587e-08 4.16769e-07)
(0.942895 -2.12843e-08 4.16769e-07)
(0.945271 -2.28599e-08 4.34479e-07)
(0.945271 -2.2884e-08 4.34479e-07)
(0.947641 -2.23438e-08 4.52993e-07)
(0.947641 -2.23666e-08 4.52994e-07)
(0.950006 -2.25274e-08 4.72317e-07)
(0.950006 -2.25485e-08 4.72317e-07)
(0.952365 -2.3898e-08 4.92005e-07)
(0.952365 -2.39179e-08 4.92005e-07)
(0.954721 -2.22065e-08 5.12138e-07)
(0.954721 -2.22248e-08 5.12139e-07)
(0.957072 -2.60327e-08 5.32218e-07)
(0.957072 -2.60498e-08 5.32219e-07)
(0.959417 -2.47454e-08 5.52444e-07)
(0.959417 -2.47613e-08 5.52444e-07)
(0.961756 -2.70554e-08 5.73174e-07)
(0.961756 -2.70698e-08 5.73174e-07)
(0.964089 -2.84206e-08 5.9427e-07)
(0.964089 -2.84339e-08 5.9427e-07)
(0.966416 -2.73343e-08 6.16455e-07)
(0.966416 -2.73464e-08 6.16455e-07)
(0.968738 -3.07028e-08 6.39362e-07)
(0.968738 -3.07138e-08 6.39362e-07)
(0.971053 -2.87646e-08 6.63242e-07)
(0.971053 -2.87745e-08 6.63242e-07)
(0.973364 -3.15005e-08 6.88075e-07)
(0.973364 -3.15092e-08 6.88075e-07)
(0.975671 -3.0937e-08 7.13576e-07)
(0.975671 -3.09449e-08 7.13576e-07)
(0.977973 -3.31275e-08 7.3992e-07)
(0.977973 -3.31342e-08 7.3992e-07)
(0.980271 -3.40502e-08 7.67066e-07)
(0.980271 -3.40561e-08 7.67066e-07)
(0.982566 -3.35098e-08 7.955e-07)
(0.982566 -3.35148e-08 7.95501e-07)
(0.984859 -3.55237e-08 8.24718e-07)
(0.984859 -3.55278e-08 8.24718e-07)
(0.987149 -3.49753e-08 8.54542e-07)
(0.987149 -3.49787e-08 8.54542e-07)
(0.989437 -3.69749e-08 8.84764e-07)
(0.989437 -3.69775e-08 8.84764e-07)
(0.99172 -3.8202e-08 9.1511e-07)
(0.99172 -3.82039e-08 9.1511e-07)
(0.993998 -4.01665e-08 9.45963e-07)
(0.993998 -4.01677e-08 9.45963e-07)
(0.996269 -4.05237e-08 9.77692e-07)
(0.996269 -4.05243e-08 9.77692e-07)
(0.998532 -4.20785e-08 1.01033e-06)
(0.998532 -4.20786e-08 1.01033e-06)
(1.00079 -4.38885e-08 1.04368e-06)
(1.00079 -4.38881e-08 1.04368e-06)
(1.00303 -4.49973e-08 1.07815e-06)
(1.00303 -4.49964e-08 1.07815e-06)
(1.00526 -4.68101e-08 1.1139e-06)
(1.00526 -4.68087e-08 1.1139e-06)
(1.00749 -4.80324e-08 1.15112e-06)
(1.00749 -4.80307e-08 1.15112e-06)
(1.00971 -4.76399e-08 1.19e-06)
(1.00971 -4.76377e-08 1.19e-06)
(1.01192 -5.08368e-08 1.22974e-06)
(1.01192 -5.08343e-08 1.22974e-06)
(1.01413 -5.09465e-08 1.2703e-06)
(1.01413 -5.09438e-08 1.2703e-06)
(1.01635 -5.35644e-08 1.31184e-06)
(1.01635 -5.35613e-08 1.31184e-06)
(1.01856 -5.26392e-08 1.35419e-06)
(1.01856 -5.2636e-08 1.35419e-06)
(1.02078 -5.65261e-08 1.39667e-06)
(1.02078 -5.65227e-08 1.39667e-06)
(1.02299 -5.56358e-08 1.43904e-06)
(1.02299 -5.56322e-08 1.43904e-06)
(1.0252 -6.16782e-08 1.48107e-06)
(1.0252 -6.16745e-08 1.48107e-06)
(1.0274 -6.16774e-08 1.52341e-06)
(1.0274 -6.16737e-08 1.52341e-06)
(1.02959 -6.69575e-08 1.56725e-06)
(1.02959 -6.69537e-08 1.56725e-06)
(1.03177 -6.88968e-08 1.61337e-06)
(1.03177 -6.8893e-08 1.61337e-06)
(1.03396 -6.8218e-08 1.6636e-06)
(1.03396 -6.82142e-08 1.6636e-06)
(1.03614 -7.43791e-08 1.71676e-06)
(1.03614 -7.43753e-08 1.71676e-06)
(1.03832 -7.1849e-08 1.77367e-06)
(1.03832 -7.18453e-08 1.77367e-06)
(1.0405 -7.38966e-08 1.83424e-06)
(1.0405 -7.38929e-08 1.83424e-06)
(1.04268 -7.45065e-08 1.89596e-06)
(1.04268 -7.45029e-08 1.89596e-06)
(1.04486 -7.72283e-08 1.95777e-06)
(1.04486 -7.72248e-08 1.95777e-06)
(1.04703 -7.88904e-08 2.01878e-06)
(1.04703 -7.8887e-08 2.01878e-06)
(1.04919 -8.43458e-08 2.07852e-06)
(1.04919 -8.43425e-08 2.07852e-06)
(1.05134 -8.86505e-08 2.13794e-06)
(1.05134 -8.86473e-08 2.13794e-06)
(1.05348 -9.25605e-08 2.19951e-06)
(1.05348 -9.25575e-08 2.19951e-06)
(1.0556 -9.41072e-08 2.26495e-06)
(1.0556 -9.41043e-08 2.26495e-06)
(1.05771 -9.53248e-08 2.33433e-06)
(1.05771 -9.53221e-08 2.33433e-06)
(1.05979 -9.8111e-08 2.40597e-06)
(1.05979 -9.81083e-08 2.40597e-06)
(1.06186 -1.02669e-07 2.47865e-06)
(1.06186 -1.02667e-07 2.47865e-06)
(1.0639 -1.05572e-07 2.55296e-06)
(1.0639 -1.0557e-07 2.55296e-06)
(1.06592 -1.09984e-07 2.62953e-06)
(1.06592 -1.09982e-07 2.62953e-06)
(1.06792 -1.13133e-07 2.70875e-06)
(1.06792 -1.13131e-07 2.70875e-06)
(1.06989 -1.1725e-07 2.79107e-06)
(1.06989 -1.17248e-07 2.79107e-06)
(1.07185 -1.20987e-07 2.87662e-06)
(1.07185 -1.20985e-07 2.87662e-06)
(1.07378 -1.2205e-07 2.96574e-06)
(1.07378 -1.22048e-07 2.96574e-06)
(1.0757 -1.25416e-07 3.05655e-06)
(1.0757 -1.25414e-07 3.05655e-06)
(1.07759 -1.31821e-07 3.14649e-06)
(1.07759 -1.31819e-07 3.14649e-06)
(1.07946 -1.33144e-07 3.23631e-06)
(1.07946 -1.33143e-07 3.23631e-06)
(1.08132 -1.39763e-07 3.3252e-06)
(1.08132 -1.39762e-07 3.3252e-06)
(1.08315 -1.41427e-07 3.41215e-06)
(1.08315 -1.41426e-07 3.41215e-06)
(1.08497 -1.49282e-07 3.49611e-06)
(1.08497 -1.49281e-07 3.49611e-06)
(1.08678 -1.5231e-07 3.57657e-06)
(1.08678 -1.52309e-07 3.57657e-06)
(1.08858 -1.59445e-07 3.6538e-06)
(1.08858 -1.59444e-07 3.6538e-06)
(1.09037 -1.64007e-07 3.72725e-06)
(1.09037 -1.64006e-07 3.72725e-06)
(1.09216 -1.73257e-07 3.7972e-06)
(1.09216 -1.73256e-07 3.7972e-06)
(1.09394 -1.73952e-07 3.86539e-06)
(1.09394 -1.73951e-07 3.86539e-06)
(1.09572 -1.85012e-07 3.93025e-06)
(1.09572 -1.85011e-07 3.93025e-06)
(1.09749 -1.88862e-07 3.99124e-06)
(1.09749 -1.88862e-07 3.99124e-06)
(1.09923 -2.07071e-07 4.04983e-06)
(1.09923 -2.0707e-07 4.04983e-06)
(1.10093 -1.98849e-07 4.1134e-06)
(1.10093 -1.98848e-07 4.1134e-06)
(1.1026 -2.16002e-07 4.17918e-06)
(1.1026 -2.16002e-07 4.17918e-06)
(1.10422 -2.03852e-07 4.24301e-06)
(1.10422 -2.03852e-07 4.24301e-06)
(1.10582 -2.34737e-07 4.29596e-06)
(1.10582 -2.34737e-07 4.29596e-06)
(1.10739 -2.0502e-07 4.34062e-06)
(1.10739 -2.0502e-07 4.34062e-06)
(1.10893 -2.53668e-07 4.36258e-06)
(1.10893 -2.53668e-07 4.36258e-06)
(1.11043 -2.14256e-07 4.36305e-06)
(1.11043 -2.14255e-07 4.36305e-06)
(1.11191 -2.94039e-07 4.33191e-06)
(1.11191 -2.94039e-07 4.33191e-06)
(1.11334 -2.26469e-07 4.28956e-06)
(1.11334 -2.26468e-07 4.28956e-06)
(1.11474 -3.39923e-07 4.22701e-06)
(1.11474 -3.39923e-07 4.22701e-06)
(1.11609 -2.20166e-07 4.17197e-06)
(1.11609 -2.20165e-07 4.17197e-06)
(1.11741 -3.82124e-07 4.09492e-06)
(1.11741 -3.82124e-07 4.09492e-06)
(1.11867 -1.96456e-07 4.0223e-06)
(1.11867 -1.96456e-07 4.0223e-06)
(1.11987 -4.44173e-07 3.89964e-06)
(1.11987 -4.44173e-07 3.89964e-06)
(1.12099 -1.74011e-07 3.77686e-06)
(1.12099 -1.74011e-07 3.77686e-06)
(1.12204 -5.22633e-07 3.58818e-06)
(1.12204 -5.22632e-07 3.58818e-06)
(1.123 -1.43942e-07 3.41191e-06)
(1.123 -1.43942e-07 3.41191e-06)
(1.12388 -6.11133e-07 3.15385e-06)
(1.12388 -6.11132e-07 3.15385e-06)
(1.12467 -1.08606e-07 2.9267e-06)
(1.12467 -1.08606e-07 2.9267e-06)
(1.12536 -6.86253e-07 2.59334e-06)
(1.12536 -6.86256e-07 2.59334e-06)
(1.12594 -1.3021e-07 2.29763e-06)
(1.12594 -1.30215e-07 2.29763e-06)
(1.12642 -6.85101e-07 1.89618e-06)
(1.12642 -6.85103e-07 1.89618e-06)
(1.1268 -7.9169e-08 1.53789e-06)
(1.1268 -7.9172e-08 1.53789e-06)
(1.12707 -5.25281e-07 1.05804e-06)
(1.12707 -5.25282e-07 1.05804e-06)
(1.12721 1.25196e-07 5.69361e-07)
(1.12721 1.25198e-07 5.6936e-07)
(0.00210336 2.55463e-11 -1.60889e-13)
(0.00210336 2.55405e-11 -1.06225e-11)
(0.00634004 7.5955e-11 -1.59811e-12)
(0.00634004 7.59229e-11 -1.63607e-11)
(0.0106377 1.25972e-10 -5.42797e-12)
(0.0106377 1.25912e-10 -1.68398e-11)
(0.0149971 1.78445e-10 -1.31602e-11)
(0.0149971 1.78353e-10 -1.7333e-11)
(0.0194191 2.35021e-10 -2.64421e-11)
(0.0194191 2.34891e-10 -2.6442e-11)
(0.0239046 2.9052e-10 -4.71122e-11)
(0.0239046 2.90348e-10 -4.71122e-11)
(0.0284543 3.48815e-10 -7.71976e-11)
(0.0284543 3.48592e-10 -7.71975e-11)
(0.0330691 4.08929e-10 -1.18964e-10)
(0.0330691 4.08651e-10 -1.18964e-10)
(0.0377498 4.66428e-10 -1.74865e-10)
(0.0377498 4.66091e-10 -1.74865e-10)
(0.042497 5.30499e-10 -2.47613e-10)
(0.042497 5.30097e-10 -2.47613e-10)
(0.0473116 5.90283e-10 -3.40178e-10)
(0.0473116 5.89809e-10 -3.40178e-10)
(0.0521942 6.5102e-10 -4.55727e-10)
(0.0521942 6.5047e-10 -4.55727e-10)
(0.0571455 7.16011e-10 -5.97751e-10)
(0.0571455 7.15377e-10 -5.97751e-10)
(0.0621662 7.78357e-10 -7.70039e-10)
(0.0621662 7.77635e-10 -7.70039e-10)
(0.0672568 8.38288e-10 -9.76598e-10)
(0.0672568 8.37465e-10 -9.76598e-10)
(0.0724179 8.98079e-10 -1.2217e-09)
(0.0724179 8.97153e-10 -1.2217e-09)
(0.0776499 9.6614e-10 -1.51004e-09)
(0.0776499 9.65102e-10 -1.51004e-09)
(0.0829533 1.02503e-09 -1.84666e-09)
(0.0829533 1.02386e-09 -1.84666e-09)
(0.0883285 1.07227e-09 -2.23661e-09)
(0.0883285 1.07097e-09 -2.23661e-09)
(0.0937756 1.13867e-09 -2.68541e-09)
(0.0937756 1.13723e-09 -2.68541e-09)
(0.099295 1.20953e-09 -3.19929e-09)
(0.099295 1.20795e-09 -3.19929e-09)
(0.104887 1.24114e-09 -3.78434e-09)
(0.104887 1.2394e-09 -3.78434e-09)
(0.110551 1.27929e-09 -4.44649e-09)
(0.110551 1.2773e-09 -4.44648e-09)
(0.116287 1.36392e-09 -5.19279e-09)
(0.116287 1.36188e-09 -5.19279e-09)
(0.122096 1.41416e-09 -6.03092e-09)
(0.122096 1.41184e-09 -6.03092e-09)
(0.127976 1.40791e-09 -6.9674e-09)
(0.127976 1.4053e-09 -6.9674e-09)
(0.133928 1.44329e-09 -8.00871e-09)
(0.133928 1.44067e-09 -8.00871e-09)
(0.139951 1.53385e-09 -9.16316e-09)
(0.139951 1.53071e-09 -9.16316e-09)
(0.146044 1.55271e-09 -1.04391e-08)
(0.146044 1.54948e-09 -1.04391e-08)
(0.152207 1.5142e-09 -1.18426e-08)
(0.152207 1.51081e-09 -1.18426e-08)
(0.158438 1.53318e-09 -1.33799e-08)
(0.158438 1.52958e-09 -1.33799e-08)
(0.164736 1.60779e-09 -1.50589e-08)
(0.164736 1.60385e-09 -1.50589e-08)
(0.171101 1.57963e-09 -1.68867e-08)
(0.171101 1.57529e-09 -1.68867e-08)
(0.177531 1.50047e-09 -1.8867e-08)
(0.177531 1.49625e-09 -1.8867e-08)
(0.184025 1.51618e-09 -2.1004e-08)
(0.184025 1.51119e-09 -2.1004e-08)
(0.19058 1.55235e-09 -2.33032e-08)
(0.19058 1.54721e-09 -2.33032e-08)
(0.197195 1.45983e-09 -2.57672e-08)
(0.197195 1.45461e-09 -2.57672e-08)
(0.203869 1.32829e-09 -2.83948e-08)
(0.203869 1.32257e-09 -2.83948e-08)
(0.210598 1.30428e-09 -3.11844e-08)
(0.210598 1.29795e-09 -3.11844e-08)
(0.217381 1.31536e-09 -3.41364e-08)
(0.217381 1.30887e-09 -3.41364e-08)
(0.224215 1.19024e-09 -3.7248e-08)
(0.224215 1.18356e-09 -3.7248e-08)
(0.231099 9.78252e-10 -4.05107e-08)
(0.231099 9.70724e-10 -4.05107e-08)
(0.238028 9.19419e-10 -4.39158e-08)
(0.238028 9.11619e-10 -4.39158e-08)
(0.245 8.70602e-10 -4.74573e-08)
(0.245 8.62329e-10 -4.74573e-08)
(0.252012 6.96797e-10 -5.11259e-08)
(0.252012 6.88031e-10 -5.11259e-08)
(0.259062 4.93771e-10 -5.49084e-08)
(0.259062 4.84705e-10 -5.49084e-08)
(0.266146 3.98046e-10 -5.8793e-08)
(0.266146 3.8783e-10 -5.8793e-08)
(0.27326 4.99419e-10 -6.27748e-08)
(0.27326 4.89017e-10 -6.27748e-08)
(0.280401 3.30642e-11 -6.68411e-08)
(0.280401 2.2203e-11 -6.68411e-08)
(0.287566 -5.12639e-10 -7.09643e-08)
(0.287566 -5.23928e-10 -7.09643e-08)
(0.294751 3.56938e-10 -7.51485e-08)
(0.294751 3.44805e-10 -7.51485e-08)
(0.301953 -8.99356e-12 -7.94047e-08)
(0.301953 -2.26329e-11 -7.94047e-08)
(0.309167 -1.0789e-09 -8.36983e-08)
(0.309167 -1.09153e-09 -8.36983e-08)
(0.316389 -3.69551e-11 -8.80287e-08)
(0.316389 -5.11649e-11 -8.80287e-08)
(0.323617 -7.16322e-10 -9.24079e-08)
(0.323617 -7.31436e-10 -9.24079e-08)
(0.330846 -7.81478e-10 -9.68209e-08)
(0.330846 -7.97299e-10 -9.68209e-08)
(0.338072 -5.71349e-10 -1.01276e-07)
(0.338072 -5.87687e-10 -1.01276e-07)
(0.345291 -1.42258e-09 -1.05764e-07)
(0.345291 -1.43873e-09 -1.05764e-07)
(0.3525 -7.79722e-10 -1.10284e-07)
(0.3525 -7.9839e-10 -1.10284e-07)
(0.359694 -7.32772e-10 -1.14863e-07)
(0.359694 -7.51334e-10 -1.14863e-07)
(0.36687 -8.25711e-10 -1.19508e-07)
(0.36687 -8.44553e-10 -1.19508e-07)
(0.374023 -1.77943e-09 -1.242e-07)
(0.374023 -1.79951e-09 -1.242e-07)
(0.381151 -1.38073e-09 -1.28931e-07)
(0.381151 -1.40259e-09 -1.28931e-07)
(0.388249 -7.88952e-11 -1.33757e-07)
(0.388249 -1.00758e-10 -1.33757e-07)
(0.395314 -1.92062e-09 -1.38673e-07)
(0.395314 -1.94313e-09 -1.38673e-07)
(0.402342 -1.51741e-09 -1.43644e-07)
(0.402342 -1.54083e-09 -1.43644e-07)
(0.40933 -1.10576e-09 -1.48702e-07)
(0.40933 -1.1301e-09 -1.48702e-07)
(0.416274 -1.11621e-09 -1.53867e-07)
(0.416274 -1.14318e-09 -1.53867e-07)
(0.423171 -1.12844e-09 -1.59146e-07)
(0.423171 -1.15519e-09 -1.59146e-07)
(0.430019 -2.20776e-09 -1.64513e-07)
(0.430019 -2.23389e-09 -1.64513e-07)
(0.436813 -6.29532e-10 -1.69986e-07)
(0.436813 -6.5897e-10 -1.69986e-07)
(0.443552 -1.80977e-09 -1.75587e-07)
(0.443552 -1.83952e-09 -1.75587e-07)
(0.450232 -1.27629e-09 -1.81298e-07)
(0.450232 -1.30588e-09 -1.81298e-07)
(0.456852 -1.30635e-09 -1.8714e-07)
(0.456852 -1.34049e-09 -1.8714e-07)
(0.463407 -1.30065e-09 -1.93118e-07)
(0.463407 -1.33383e-09 -1.93118e-07)
(0.469897 -1.93014e-09 -1.99213e-07)
(0.469897 -1.96215e-09 -1.99213e-07)
(0.476319 -1.33946e-09 -2.05426e-07)
(0.476319 -1.37564e-09 -2.05426e-07)
(0.482671 -1.42109e-09 -2.11776e-07)
(0.482671 -1.45817e-09 -2.11776e-07)
(0.488952 -1.49467e-09 -2.1826e-07)
(0.488952 -1.53311e-09 -2.1826e-07)
(0.495159 -1.43925e-09 -2.24877e-07)
(0.495159 -1.4782e-09 -2.24877e-07)
(0.501291 -2.16726e-09 -2.31603e-07)
(0.501291 -2.20725e-09 -2.31603e-07)
(0.507347 -7.68996e-10 -2.3846e-07)
(0.507347 -8.11683e-10 -2.3846e-07)
(0.513325 -2.27724e-09 -2.45444e-07)
(0.513325 -2.31913e-09 -2.45444e-07)
(0.519225 -1.64239e-09 -2.52518e-07)
(0.519225 -1.6883e-09 -2.52518e-07)
(0.525045 -1.04557e-09 -2.59724e-07)
(0.525045 -1.09179e-09 -2.59724e-07)
(0.530785 -1.75048e-09 -2.67057e-07)
(0.530785 -1.79642e-09 -2.67057e-07)
(0.536444 -1.75545e-09 -2.74483e-07)
(0.536444 -1.80629e-09 -2.74483e-07)
(0.542022 -1.5682e-09 -2.82003e-07)
(0.542022 -1.61967e-09 -2.82003e-07)
(0.547519 -2.3498e-09 -2.89586e-07)
(0.547519 -2.39895e-09 -2.89586e-07)
(0.552933 -1.14672e-09 -2.97238e-07)