/*--------------------------------*- C++ -*----------------------------------*\
| =========                 |                                                 |
| \\      /  F ield         | OpenFOAM: The Open Source CFD Toolbox           |
|  \\    /   O peration     | Version:  2012                                  |
|   \\  /    A nd           | Website:  www.openfoam.com                      |
|    \\/     M anipulation  |                                                 |
\*---------------------------------------------------------------------------*/
FoamFile
{
    version     2.0;
    format      ascii;
    class       volScalarField;
    location    "2000";
    object      p;
}
// * * * * * * * * * * * * * * * * * * * * * * * * * * * * * * * * * * * * * //

dimensions      [0 2 -2 0 0 0 0];


internalField   nonuniform List<scalar> 
40
(
-5.94994e-16
-2.31971e-16
-9.38085e-16
-5.21948e-16
-2.66821e-15
-2.51771e-15
-8.3035e-15
-8.0682e-15
-3.79865e-14
-3.77046e-14
-1.04747e-15
-9.62212e-16
-1.14682e-15
-1.0598e-15
-2.25081e-15
-2.11714e-15
-7.84518e-15
-7.83234e-15
-3.76483e-14
-3.73666e-14
-3.71827e-14
-3.72574e-14
-3.68974e-14
-3.68978e-14
-3.68414e-14
-3.68423e-14
-3.68318e-14
-3.68362e-14
-3.68342e-14
-3.68369e-14
-3.72569e-14
-3.71814e-14
-3.68975e-14
-3.68972e-14
-3.68378e-14
-3.68387e-14
-3.68212e-14
-3.68256e-14
-3.68238e-14
-3.68265e-14
)
;

boundaryField
{
    walls
    {
        type            zeroGradient;
    }
    inlet
    {
        type            cyclic;
    }
    outlet
    {
        type            cyclic;
    }
    sides
    {
        type            empty;
    }
}


// ************************************************************************* //
