/*--------------------------------*- C++ -*----------------------------------*\
| =========                 |                                                 |
| \\      /  F ield         | OpenFOAM: The Open Source CFD Toolbox           |
|  \\    /   O peration     | Version:  2012                                  |
|   \\  /    A nd           | Website:  www.openfoam.com                      |
|    \\/     M anipulation  |                                                 |
\*---------------------------------------------------------------------------*/
FoamFile
{
    version     2.0;
    format      ascii;
    class       volVectorField;
    location    "2000";
    object      U;
}
// * * * * * * * * * * * * * * * * * * * * * * * * * * * * * * * * * * * * * //

dimensions      [0 1 -1 0 0 0 0];


internalField   nonuniform List<vector> 
40
(
(0.241428 9.07842e-17 3.94217e-15)
(0.241428 -1.26875e-15 1.94464e-15)
(0.744724 3.01778e-15 7.14637e-15)
(0.744724 -1.68993e-15 3.25686e-15)
(0.89766 1.62029e-15 7.48083e-15)
(0.89766 1.09853e-15 7.50691e-15)
(0.967108 2.68066e-16 9.21346e-15)
(0.967108 2.31244e-16 9.18473e-15)
(1.03629 -2.5899e-15 7.72099e-15)
(1.03629 -2.55866e-15 8.40235e-15)
(0.241428 1.3657e-16 -1.05373e-15)
(0.241428 1.26887e-16 -4.50213e-16)
(0.744724 1.10181e-15 -3.6429e-15)
(0.744724 8.57586e-16 -2.11975e-15)
(0.89766 1.00908e-15 -7.48083e-15)
(0.89766 8.66797e-16 -7.40799e-15)
(0.967108 3.05167e-16 -9.21346e-15)
(0.967108 3.3057e-16 -9.18473e-15)
(1.03629 -2.54903e-15 -8.32653e-15)
(1.03629 -2.54261e-15 -8.5029e-15)
(1.03629 5.109e-16 1.88423e-15)
(1.03629 5.14657e-16 1.23347e-15)
(0.967108 1.81228e-17 5.30266e-16)
(0.967108 2.45107e-17 6.50737e-16)
(0.89766 3.09261e-17 2.10796e-16)
(0.89766 4.59033e-17 2.00494e-16)
(0.744724 -2.65991e-17 9.61023e-17)
(0.744724 -2.13055e-17 7.80569e-17)
(0.241428 -3.0573e-18 4.04583e-17)
(0.241428 -4.36325e-18 2.79434e-17)
(1.03629 5.15489e-16 -1.0989e-15)
(1.03629 5.17455e-16 -6.7067e-16)
(0.967108 1.14985e-17 -6.55477e-16)
(0.967108 1.171e-17 -5.31223e-16)
(0.89766 1.66624e-17 -2.43072e-16)
(0.89766 3.19431e-17 -2.30674e-16)
(0.744724 -1.4147e-17 -8.59177e-17)
(0.744724 -1.37673e-17 -8.38454e-17)
(0.241428 1.3187e-18 -5.22713e-17)
(0.241428 -1.00848e-19 -5.36699e-17)
)
;

boundaryField
{
    walls
    {
        type            fixedValue;
        value           uniform (0 0 0);
    }
    inlet
    {
        type            cyclic;
    }
    outlet
    {
        type            cyclic;
    }
    sides
    {
        type            empty;
    }
}


// ************************************************************************* //
