/*--------------------------------*- C++ -*----------------------------------*\
| =========                 |                                                 |
| \\      /  F ield         | OpenFOAM: The Open Source CFD Toolbox           |
|  \\    /   O peration     | Version:  2012                                  |
|   \\  /    A nd           | Website:  www.openfoam.com                      |
|    \\/     M anipulation  |                                                 |
\*---------------------------------------------------------------------------*/
FoamFile
{
    version     2.0;
    format      ascii;
    class       volScalarField;
    location    "1000";
    object      nut;
}
// * * * * * * * * * * * * * * * * * * * * * * * * * * * * * * * * * * * * * //

dimensions      [0 2 -1 0 0 0 0];


internalField   nonuniform List<scalar> 
2560
(
3.99617e-13
3.99617e-13
3.37459e-13
3.37459e-13
2.97819e-13
2.97819e-13
2.73596e-13
2.73596e-13
2.65668e-13
2.65668e-13
2.85567e-13
2.85567e-13
3.59251e-13
3.59251e-13
5.32712e-13
5.32712e-13
8.79312e-13
8.79312e-13
1.50879e-12
1.50879e-12
2.57805e-12
2.57805e-12
4.30374e-12
4.30374e-12
6.97695e-12
6.97695e-12
1.09799e-11
1.09799e-11
1.68047e-11
1.68047e-11
2.50749e-11
2.50749e-11
3.65686e-11
3.65686e-11
5.22444e-11
5.22444e-11
7.3269e-11
7.3269e-11
1.01048e-10
1.01048e-10
1.37255e-10
1.37255e-10
1.83869e-10
1.83869e-10
2.43204e-10
2.43204e-10
3.17946e-10
3.17946e-10
4.11187e-10
4.11187e-10
5.2646e-10
5.2646e-10
6.67768e-10
6.67768e-10
8.39618e-10
8.39618e-10
1.04705e-09
1.04705e-09
1.29565e-09
1.29565e-09
1.59159e-09
1.59159e-09
1.94162e-09
1.94162e-09
2.3531e-09
2.3531e-09
2.83401e-09
2.83401e-09
3.3929e-09
3.3929e-09
4.03896e-09
4.03896e-09
4.78195e-09
4.78195e-09
5.63222e-09
5.63222e-09
6.60068e-09
6.60068e-09
7.69878e-09
7.69878e-09
8.93849e-09
8.93849e-09
1.03322e-08
1.03322e-08
1.1893e-08
1.1893e-08
1.3634e-08
1.3634e-08
1.55692e-08
1.55692e-08
1.77127e-08
1.77127e-08
2.00789e-08
2.00789e-08
2.26829e-08
2.26829e-08
2.55398e-08
2.55398e-08
2.86652e-08
2.86652e-08
3.20751e-08
3.20751e-08
3.57857e-08
3.57857e-08
3.98137e-08
3.98137e-08
4.4176e-08
4.4176e-08
4.889e-08
4.889e-08
5.39737e-08
5.39737e-08
5.94452e-08
5.94452e-08
6.53235e-08
6.53235e-08
7.16279e-08
7.16279e-08
7.83785e-08
7.83785e-08
8.55961e-08
8.55961e-08
9.33021e-08
9.33021e-08
1.01519e-07
1.01519e-07
1.1027e-07
1.1027e-07
1.1958e-07
1.1958e-07
1.29475e-07
1.29475e-07
1.39981e-07
1.39981e-07
1.51126e-07
1.51126e-07
1.62942e-07
1.62942e-07
1.75459e-07
1.75459e-07
1.88711e-07
1.88711e-07
2.02733e-07
2.02733e-07
2.17565e-07
2.17565e-07
2.33246e-07
2.33246e-07
2.49819e-07
2.49819e-07
2.6733e-07
2.6733e-07
2.85829e-07
2.85829e-07
3.05369e-07
3.05369e-07
3.26005e-07
3.26005e-07
3.47799e-07
3.47799e-07
3.70816e-07
3.70816e-07
3.95124e-07
3.95124e-07
4.20799e-07
4.20799e-07
4.47922e-07
4.47922e-07
4.76578e-07
4.76578e-07
5.06862e-07
5.06862e-07
5.38872e-07
5.38872e-07
5.72717e-07
5.72717e-07
6.08513e-07
6.08513e-07
6.46383e-07
6.46383e-07
6.86464e-07
6.86464e-07
7.28898e-07
7.28898e-07
7.73843e-07
7.73843e-07
8.21466e-07
8.21466e-07
8.71947e-07
8.71947e-07
9.25483e-07
9.25483e-07
9.82283e-07
9.82283e-07
1.04257e-06
1.04257e-06
1.1066e-06
1.1066e-06
1.17462e-06
1.17462e-06
1.24693e-06
1.24693e-06
1.32383e-06
1.32383e-06
1.40565e-06
1.40565e-06
1.49274e-06
1.49274e-06
1.5855e-06
1.5855e-06
1.68434e-06
1.68434e-06
1.78971e-06
1.78971e-06
1.90209e-06
1.90209e-06
2.02201e-06
2.02201e-06
2.15004e-06
2.15004e-06
2.28679e-06
2.28679e-06
2.43292e-06
2.43292e-06
2.58915e-06
2.58915e-06
2.75627e-06
2.75627e-06
2.93511e-06
2.93511e-06
3.12658e-06
3.12658e-06
3.33169e-06
3.33169e-06
3.55149e-06
3.55149e-06
3.78717e-06
3.78717e-06
4.03998e-06
4.03998e-06
4.31131e-06
4.31131e-06
4.60265e-06
4.60265e-06
4.91565e-06
4.91565e-06
5.25208e-06
5.25208e-06
5.61389e-06
5.61389e-06
6.00321e-06
6.00321e-06
6.42235e-06
6.42235e-06
6.87386e-06
6.87386e-06
7.36052e-06
7.36052e-06
7.88539e-06
7.88539e-06
8.45183e-06
8.45183e-06
9.06352e-06
9.06352e-06
9.72454e-06
9.72454e-06
1.04394e-05
1.04394e-05
1.1213e-05
1.1213e-05
1.20508e-05
1.20508e-05
1.2959e-05
1.2959e-05
1.39443e-05
1.39443e-05
1.50141e-05
1.5014e-05
1.61767e-05
1.61767e-05
1.74416e-05
1.74416e-05
1.88191e-05
1.88191e-05
2.03207e-05
2.03207e-05
2.19595e-05
2.19595e-05
2.37502e-05
2.37502e-05
2.57091e-05
2.57091e-05
2.78548e-05
2.78548e-05
3.0208e-05
3.0208e-05
3.27925e-05
3.27925e-05
3.56347e-05
3.56347e-05
3.87649e-05
3.87649e-05
4.22173e-05
4.22173e-05
4.60305e-05
4.60305e-05
5.02487e-05
5.02487e-05
5.49218e-05
5.49218e-05
6.01065e-05
6.01065e-05
6.58671e-05
6.58671e-05
7.22766e-05
7.22766e-05
7.94177e-05
7.94177e-05
8.73836e-05
8.73836e-05
9.62797e-05
9.62797e-05
0.000106224
0.000106224
0.000117348
0.000117348
0.0001298
0.0001298
0.000143741
0.000143741
0.00015935
0.00015935
0.00017682
0.00017682
0.000196359
0.000196359
0.000218188
0.000218188
0.000242539
0.000242539
0.000269652
0.000269652
0.000299769
0.000299769
0.000333133
0.000333133
0.000369976
0.000369976
0.00041052
0.00041052
0.000454967
0.000454967
0.000503491
0.000503491
0.000556237
0.000556237
0.00061331
0.00061331
0.000674777
0.000674777
0.000740656
0.000740656
0.00081092
0.00081092
0.000885493
0.000885493
0.000964251
0.000964251
0.00104702
0.00104702
0.00113359
0.00113359
0.00122371
0.00122371
0.00131707
0.00131707
0.00141336
0.00141336
0.00151223
0.00151223
0.00161331
0.00161331
0.00171622
0.00171622
0.00182056
0.00182056
0.00192595
0.00192595
0.00203198
0.00203198
0.00213829
0.00213829
0.00224449
0.00224449
0.00235023
0.00235023
0.00245517
0.00245517
0.00255901
0.00255901
0.00266146
0.00266146
0.00276225
0.00276225
0.00286114
0.00286114
0.00295794
0.00295794
0.00305246
0.00305246
0.00314455
0.00314455
0.00323409
0.00323409
0.00332097
0.00332097
0.00340513
0.00340513
0.00348651
0.00348651
0.00356508
0.00356508
0.00364084
0.00364084
0.00371379
0.00371379
0.00378396
0.00378396
0.0038514
0.0038514
0.00391614
0.00391614
0.00397826
0.00397826
0.00403783
0.00403783
0.00409493
0.00409493
0.00414965
0.00414965
0.00420209
0.00420209
0.00425233
0.00425233
0.00430049
0.00430049
0.00434666
0.00434666
0.00439093
0.00439093
0.00443343
0.00443343
0.00447424
0.00447424
0.00451346
0.00451346
0.0045512
0.0045512
0.00458754
0.00458754
0.00462258
0.00462258
0.00465641
0.00465641
0.00468911
0.00468911
0.00472076
0.00472076
0.00475144
0.00475144
0.00478123
0.00478123
0.00481018
0.00481018
0.00483837
0.00483837
0.00486585
0.00486585
0.00489269
0.00489269
0.00491892
0.00491892
0.00494461
0.00494461
0.00496979
0.00496979
0.0049945
0.0049945
0.00501878
0.00501878
0.00504265
0.00504265
0.00506616
0.00506616
0.00508931
0.00508931
0.00511214
0.00511214
0.00513466
0.00513466
0.00515689
0.00515689
0.00517883
0.00517883
0.00520049
0.00520049
0.00522188
0.00522188
0.00524301
0.00524301
0.00526386
0.00526386
0.00528445
0.00528445
0.00530475
0.00530475
0.00532478
0.00532478
0.00534451
0.00534451
0.00536394
0.00536394
0.00538305
0.00538305
0.00540182
0.00540182
0.00542024
0.00542024
0.00543829
0.00543829
0.00545595
0.00545595
0.00547319
0.00547319
0.00549
0.00549
0.00550634
0.00550634
0.00552218
0.00552218
0.00553751
0.00553751
0.00555228
0.00555228
0.00556648
0.00556648
0.00558006
0.00558006
0.005593
0.00559299
0.00560525
0.00560525
0.00561679
0.00561679
0.00562759
0.00562759
0.0056376
0.0056376
0.00564679
0.00564679
0.00565512
0.00565512
0.00566256
0.00566255
0.00566906
0.00566906
0.0056746
0.0056746
0.00567914
0.00567914
0.00568264
0.00568264
0.00568507
0.00568507
0.00568639
0.00568639
0.00568657
0.00568657
0.00568559
0.00568559
0.00568342
0.00568342
0.00568003
0.00568003
0.00567541
0.00567541
0.00566954
0.00566954
0.0056624
0.0056624
0.005654
0.005654
0.00564434
0.00564434
0.00563342
0.00563342
0.00562128
0.00562128
0.00560793
0.00560793
0.00559343
0.00559343
0.00557783
0.00557783
0.0055612
0.0055612
0.00554363
0.00554363
0.00552524
0.00552524
0.00550615
0.00550615
0.00548651
0.00548651
0.00546649
0.00546649
0.00544631
0.00544631
0.00542619
0.00542618
0.00540637
0.00540637
0.00538714
0.00538713
0.00536879
0.00536879
0.00535164
0.00535164
0.00533603
0.00533603
0.00532228
0.00532228
0.00531074
0.00531074
0.0053017
0.0053017
0.00529546
0.00529546
0.00529225
0.00529225
3.99617e-13
3.99617e-13
3.37459e-13
3.37459e-13
2.97819e-13
2.97819e-13
2.73596e-13
2.73596e-13
2.65668e-13
2.65668e-13
2.85567e-13
2.85567e-13
3.59251e-13
3.59251e-13
5.32712e-13
5.32712e-13
8.79312e-13
8.79312e-13
1.50879e-12
1.50879e-12
2.57805e-12
2.57805e-12
4.30374e-12
4.30374e-12
6.97695e-12
6.97695e-12
1.09799e-11
1.09799e-11
1.68047e-11
1.68047e-11
2.50749e-11
2.50749e-11
3.65686e-11
3.65686e-11
5.22444e-11
5.22444e-11
7.3269e-11
7.3269e-11
1.01048e-10
1.01048e-10
1.37255e-10
1.37255e-10
1.83869e-10
1.83869e-10
2.43204e-10
2.43204e-10
3.17946e-10
3.17946e-10
4.11187e-10
4.11187e-10
5.2646e-10
5.2646e-10
6.67768e-10
6.67768e-10
8.39618e-10
8.39618e-10
1.04705e-09
1.04705e-09
1.29565e-09
1.29565e-09
1.59159e-09
1.59159e-09
1.94162e-09
1.94162e-09
2.3531e-09
2.3531e-09
2.83401e-09
2.83401e-09
3.3929e-09
3.3929e-09
4.03896e-09
4.03896e-09
4.78195e-09
4.78195e-09
5.63222e-09
5.63222e-09
6.60068e-09
6.60068e-09
7.69878e-09
7.69878e-09
8.93849e-09
8.93849e-09
1.03322e-08
1.03322e-08
1.1893e-08
1.1893e-08
1.3634e-08
1.3634e-08
1.55692e-08
1.55692e-08
1.77127e-08
1.77127e-08
2.00789e-08
2.00789e-08
2.26829e-08
2.26829e-08
2.55398e-08
2.55398e-08
2.86652e-08
2.86652e-08
3.20751e-08
3.20751e-08
3.57857e-08
3.57857e-08
3.98137e-08
3.98137e-08
4.4176e-08
4.4176e-08
4.889e-08
4.889e-08
5.39737e-08
5.39737e-08
5.94452e-08
5.94452e-08
6.53235e-08
6.53235e-08
7.16279e-08
7.16279e-08
7.83785e-08
7.83785e-08
8.55961e-08
8.55961e-08
9.33021e-08
9.33021e-08
1.01519e-07
1.01519e-07
1.1027e-07
1.1027e-07
1.1958e-07
1.1958e-07
1.29475e-07
1.29475e-07
1.39981e-07
1.39981e-07
1.51126e-07
1.51126e-07
1.62942e-07
1.62942e-07
1.75459e-07
1.75459e-07
1.88711e-07
1.88711e-07
2.02733e-07
2.02733e-07
2.17565e-07
2.17565e-07
2.33246e-07
2.33246e-07
2.49819e-07
2.49819e-07
2.6733e-07
2.6733e-07
2.85829e-07
2.85829e-07
3.05369e-07
3.05369e-07
3.26005e-07
3.26005e-07
3.47799e-07
3.47799e-07
3.70816e-07
3.70816e-07
3.95124e-07
3.95124e-07
4.20799e-07
4.20799e-07
4.47922e-07
4.47922e-07
4.76578e-07
4.76578e-07
5.06862e-07
5.06862e-07
5.38872e-07
5.38872e-07
5.72717e-07
5.72717e-07
6.08513e-07
6.08513e-07
6.46383e-07
6.46383e-07
6.86464e-07
6.86464e-07
7.28898e-07
7.28898e-07
7.73843e-07
7.73843e-07
8.21466e-07
8.21466e-07
8.71947e-07
8.71947e-07
9.25483e-07
9.25483e-07
9.82283e-07
9.82283e-07
1.04257e-06
1.04257e-06
1.1066e-06
1.1066e-06
1.17462e-06
1.17462e-06
1.24693e-06
1.24693e-06
1.32383e-06
1.32383e-06
1.40565e-06
1.40565e-06
1.49274e-06
1.49274e-06
1.5855e-06
1.5855e-06
1.68434e-06
1.68434e-06
1.78971e-06
1.78971e-06
1.90209e-06
1.90209e-06
2.02201e-06
2.02201e-06
2.15004e-06
2.15004e-06
2.28679e-06
2.28679e-06
2.43292e-06
2.43292e-06
2.58915e-06
2.58915e-06
2.75627e-06
2.75627e-06
2.93511e-06
2.93511e-06
3.12658e-06
3.12658e-06
3.33169e-06
3.33169e-06
3.55149e-06
3.55149e-06
3.78717e-06
3.78717e-06
4.03998e-06
4.03998e-06
4.31131e-06
4.31131e-06
4.60265e-06
4.60265e-06
4.91565e-06
4.91565e-06
5.25208e-06
5.25208e-06
5.61389e-06
5.61389e-06
6.00321e-06
6.00321e-06
6.42235e-06
6.42235e-06
6.87386e-06
6.87386e-06
7.36052e-06
7.36052e-06
7.88539e-06
7.88539e-06
8.45183e-06
8.45183e-06
9.06352e-06
9.06352e-06
9.72454e-06
9.72454e-06
1.04394e-05
1.04394e-05
1.1213e-05
1.1213e-05
1.20508e-05
1.20508e-05
1.2959e-05
1.2959e-05
1.39443e-05
1.39443e-05
1.5014e-05
1.5014e-05
1.61767e-05
1.61767e-05
1.74416e-05
1.74416e-05
1.8819e-05
1.8819e-05
2.03207e-05
2.03207e-05
2.19595e-05
2.19595e-05
2.37502e-05
2.37502e-05
2.57091e-05
2.57091e-05
2.78548e-05
2.78548e-05
3.0208e-05
3.0208e-05
3.27925e-05
3.27924e-05
3.56347e-05
3.56347e-05
3.87649e-05
3.87649e-05
4.22172e-05
4.22172e-05
4.60305e-05
4.60305e-05
5.02487e-05
5.02487e-05
5.49218e-05
5.49218e-05
6.01065e-05
6.01065e-05
6.58671e-05
6.58671e-05
7.22766e-05
7.22766e-05
7.94177e-05
7.94177e-05
8.73836e-05
8.73836e-05
9.62796e-05
9.62796e-05
0.000106224
0.000106224
0.000117348
0.000117348
0.0001298
0.0001298
0.000143741
0.000143741
0.00015935
0.00015935
0.00017682
0.00017682
0.000196359
0.000196359
0.000218188
0.000218188
0.000242539
0.000242539
0.000269652
0.000269652
0.000299769
0.000299769
0.000333133
0.000333133
0.000369976
0.000369976
0.00041052
0.00041052
0.000454966
0.000454966
0.000503491
0.000503491
0.000556236
0.000556236
0.00061331
0.00061331
0.000674777
0.000674777
0.000740656
0.000740656
0.00081092
0.00081092
0.000885493
0.000885493
0.00096425
0.00096425
0.00104702
0.00104702
0.00113359
0.00113359
0.0012237
0.0012237
0.00131707
0.00131707
0.00141336
0.00141336
0.00151223
0.00151223
0.00161331
0.00161331
0.00171622
0.00171622
0.00182056
0.00182056
0.00192595
0.00192595
0.00203198
0.00203198
0.00213829
0.00213829
0.00224448
0.00224448
0.00235023
0.00235023
0.00245517
0.00245517
0.00255901
0.00255901
0.00266146
0.00266146
0.00276224
0.00276224
0.00286114
0.00286114
0.00295794
0.00295794
0.00305246
0.00305246
0.00314455
0.00314455
0.00323409
0.00323409
0.00332097
0.00332097
0.00340513
0.00340513
0.00348651
0.00348651
0.00356508
0.00356508
0.00364084
0.00364084
0.00371379
0.00371379
0.00378396
0.00378396
0.0038514
0.0038514
0.00391614
0.00391614
0.00397826
0.00397826
0.00403783
0.00403783
0.00409493
0.00409493
0.00414965
0.00414965
0.00420209
0.00420209
0.00425233
0.00425233
0.00430049
0.00430049
0.00434666
0.00434666
0.00439093
0.00439093
0.00443343
0.00443343
0.00447424
0.00447424
0.00451346
0.00451346
0.0045512
0.0045512
0.00458754
0.00458754
0.00462258
0.00462258
0.00465641
0.00465641
0.00468911
0.00468911
0.00472076
0.00472076
0.00475144
0.00475144
0.00478123
0.00478123
0.00481018
0.00481018
0.00483837
0.00483837
0.00486585
0.00486585
0.00489269
0.00489269
0.00491892
0.00491892
0.00494461
0.00494461
0.00496979
0.00496979
0.0049945
0.0049945
0.00501877
0.00501877
0.00504265
0.00504265
0.00506616
0.00506616
0.00508931
0.00508931
0.00511214
0.00511214
0.00513466
0.00513466
0.00515689
0.00515689
0.00517883
0.00517883
0.00520049
0.00520049
0.00522188
0.00522188
0.00524301
0.00524301
0.00526386
0.00526386
0.00528445
0.00528445
0.00530475
0.00530475
0.00532478
0.00532478
0.00534451
0.00534451
0.00536394
0.00536394
0.00538305
0.00538305
0.00540182
0.00540182
0.00542024
0.00542024
0.00543829
0.00543829
0.00545595
0.00545595
0.00547319
0.00547319
0.00549
0.00549
0.00550634
0.00550634
0.00552218
0.00552218
0.00553751
0.00553751
0.00555228
0.00555228
0.00556648
0.00556648
0.00558006
0.00558006
0.00559299
0.00559299
0.00560525
0.00560525
0.00561679
0.00561679
0.00562759
0.00562759
0.0056376
0.0056376
0.00564678
0.00564678
0.00565512
0.00565512
0.00566255
0.00566255
0.00566906
0.00566906
0.0056746
0.0056746
0.00567914
0.00567914
0.00568264
0.00568264
0.00568506
0.00568506
0.00568639
0.00568639
0.00568657
0.00568657
0.00568559
0.00568559
0.00568342
0.00568342
0.00568003
0.00568003
0.00567541
0.00567541
0.00566953
0.00566953
0.0056624
0.0056624
0.005654
0.005654
0.00564434
0.00564433
0.00563342
0.00563342
0.00562127
0.00562127
0.00560793
0.00560793
0.00559343
0.00559343
0.00557783
0.00557783
0.0055612
0.0055612
0.00554363
0.00554363
0.00552524
0.00552524
0.00550614
0.00550614
0.0054865
0.0054865
0.00546649
0.00546649
0.00544631
0.00544631
0.00542618
0.00542618
0.00540636
0.00540636
0.00538713
0.00538713
0.00536878
0.00536878
0.00535164
0.00535164
0.00533602
0.00533602
0.00532228
0.00532228
0.00531073
0.00531073
0.0053017
0.0053017
0.00529546
0.00529546
0.00529225
0.00529225
0.00529225
0.00529225
0.00529546
0.00529546
0.0053017
0.0053017
0.00531073
0.00531073
0.00532228
0.00532228
0.00533602
0.00533602
0.00535164
0.00535163
0.00536878
0.00536878
0.00538713
0.00538713
0.00540636
0.00540636
0.00542617
0.00542617
0.0054463
0.0054463
0.00546648
0.00546648
0.00548649
0.00548649
0.00550613
0.00550613
0.00552522
0.00552522
0.00554361
0.00554361
0.00556118
0.00556118
0.0055778
0.0055778
0.0055934
0.0055934
0.0056079
0.0056079
0.00562125
0.00562125
0.00563339
0.00563339
0.0056443
0.0056443
0.00565396
0.00565396
0.00566236
0.00566236
0.0056695
0.00566949
0.00567537
0.00567537
0.00567999
0.00567999
0.00568337
0.00568337
0.00568554
0.00568554
0.00568652
0.00568652
0.00568634
0.00568634
0.00568501
0.00568501
0.00568258
0.00568258
0.00567908
0.00567908
0.00567454
0.00567454
0.005669
0.005669
0.0056625
0.0056625
0.00565506
0.00565506
0.00564673
0.00564673
0.00563754
0.00563754
0.00562753
0.00562753
0.00561673
0.00561673
0.00560519
0.00560519
0.00559293
0.00559293
0.00558
0.00558
0.00556642
0.00556642
0.00555222
0.00555222
0.00553745
0.00553745
0.00552212
0.00552212
0.00550628
0.00550628
0.00548994
0.00548994
0.00547314
0.00547314
0.0054559
0.0054559
0.00543824
0.00543824
0.00542019
0.00542019
0.00540177
0.00540177
0.005383
0.005383
0.00536389
0.00536389
0.00534446
0.00534446
0.00532473
0.00532473
0.00530471
0.00530471
0.0052844
0.0052844
0.00526382
0.00526382
0.00524297
0.00524297
0.00522184
0.00522184
0.00520045
0.00520045
0.00517879
0.00517879
0.00515685
0.00515685
0.00513463
0.00513463
0.00511211
0.00511211
0.00508929
0.00508929
0.00506613
0.00506613
0.00504263
0.00504263
0.00501875
0.00501875
0.00499448
0.00499448
0.00496977
0.00496977
0.00494459
0.00494459
0.00491891
0.00491891
0.00489267
0.00489267
0.00486584
0.00486584
0.00483836
0.00483836
0.00481017
0.00481017
0.00478122
0.00478122
0.00475144
0.00475144
0.00472076
0.00472076
0.00468911
0.00468911
0.00465641
0.00465641
0.00462258
0.00462258
0.00458754
0.00458754
0.0045512
0.0045512
0.00451347
0.00451347
0.00447424
0.00447424
0.00443344
0.00443344
0.00439095
0.00439095
0.00434667
0.00434667
0.0043005
0.0043005
0.00425235
0.00425235
0.00420211
0.00420211
0.00414968
0.00414968
0.00409496
0.00409496
0.00403786
0.00403786
0.00397829
0.00397829
0.00391617
0.00391617
0.00385143
0.00385143
0.003784
0.003784
0.00371383
0.00371383
0.00364088
0.00364088
0.00356513
0.00356513
0.00348656
0.00348656
0.00340518
0.00340518
0.00332102
0.00332102
0.00323414
0.00323414
0.00314461
0.00314461
0.00305252
0.00305252
0.002958
0.002958
0.00286121
0.00286121
0.00276232
0.00276232
0.00266153
0.00266153
0.00255909
0.00255909
0.00245525
0.00245525
0.00235031
0.00235031
0.00224457
0.00224457
0.00213837
0.00213837
0.00203207
0.00203207
0.00192603
0.00192603
0.00182065
0.00182065
0.00171631
0.00171631
0.0016134
0.0016134
0.00151232
0.00151232
0.00141345
0.00141345
0.00131715
0.00131715
0.00122379
0.00122379
0.00113367
0.00113367
0.0010471
0.0010471
0.000964323
0.000964323
0.000885562
0.000885562
0.000810985
0.000810985
0.000740717
0.000740717
0.000674834
0.000674834
0.000613363
0.000613363
0.000556285
0.000556285
0.000503535
0.000503535
0.000455007
0.000455007
0.000410557
0.000410557
0.000370009
0.000370009
0.000333162
0.000333162
0.000299795
0.000299795
0.000269675
0.000269675
0.000242559
0.000242559
0.000218205
0.000218205
0.000196374
0.000196374
0.000176833
0.000176833
0.000159362
0.000159362
0.000143751
0.000143751
0.000129809
0.000129809
0.000117356
0.000117356
0.00010623
0.00010623
9.6285e-05
9.6285e-05
8.73882e-05
8.73882e-05
7.94216e-05
7.94216e-05
7.228e-05
7.228e-05
6.58699e-05
6.58699e-05
6.01089e-05
6.01089e-05
5.49239e-05
5.49239e-05
5.02505e-05
5.02505e-05
4.60321e-05
4.6032e-05
4.22186e-05
4.22186e-05
3.8766e-05
3.8766e-05
3.56357e-05
3.56357e-05
3.27933e-05
3.27933e-05
3.02087e-05
3.02087e-05
2.78554e-05
2.78554e-05
2.57096e-05
2.57096e-05
2.37507e-05
2.37506e-05
2.19599e-05
2.19599e-05
2.0321e-05
2.0321e-05
1.88194e-05
1.88194e-05
1.74419e-05
1.74419e-05
1.6177e-05
1.6177e-05
1.50143e-05
1.50143e-05
1.39444e-05
1.39444e-05
1.29592e-05
1.29592e-05
1.2051e-05
1.2051e-05
1.12131e-05
1.12131e-05
1.04395e-05
1.04395e-05
9.72464e-06
9.72464e-06
9.06361e-06
9.06361e-06
8.4519e-06
8.4519e-06
7.88546e-06
7.88546e-06
7.36058e-06
7.36058e-06
6.87391e-06
6.87391e-06
6.4224e-06
6.4224e-06
6.00325e-06
6.00325e-06
5.61393e-06
5.61393e-06
5.25212e-06
5.25212e-06
4.91568e-06
4.91568e-06
4.60268e-06
4.60268e-06
4.31133e-06
4.31133e-06
4.04e-06
4.04e-06
3.78719e-06
3.78719e-06
3.55151e-06
3.55151e-06
3.3317e-06
3.3317e-06
3.1266e-06
3.1266e-06
2.93512e-06
2.93512e-06
2.75628e-06
2.75628e-06
2.58917e-06
2.58917e-06
2.43293e-06
2.43293e-06
2.2868e-06
2.2868e-06
2.15005e-06
2.15005e-06
2.02202e-06
2.02202e-06
1.9021e-06
1.9021e-06
1.78971e-06
1.78971e-06
1.68435e-06
1.68435e-06
1.58551e-06
1.58551e-06
1.49275e-06
1.49275e-06
1.40565e-06
1.40565e-06
1.32383e-06
1.32383e-06
1.24694e-06
1.24694e-06
1.17463e-06
1.17463e-06
1.1066e-06
1.1066e-06
1.04258e-06
1.04258e-06
9.82286e-07
9.82286e-07
9.25486e-07
9.25486e-07
8.7195e-07
8.7195e-07
8.21468e-07
8.21468e-07
7.73846e-07
7.73846e-07
7.28901e-07
7.28901e-07
6.86466e-07
6.86466e-07
6.46386e-07
6.46386e-07
6.08515e-07
6.08515e-07
5.72719e-07
5.72719e-07
5.38874e-07
5.38874e-07
5.06863e-07
5.06863e-07
4.7658e-07
4.7658e-07
4.47923e-07
4.47923e-07
4.208e-07
4.208e-07
3.95125e-07
3.95125e-07
3.70817e-07
3.70817e-07
3.478e-07
3.478e-07
3.26006e-07
3.26006e-07
3.0537e-07
3.0537e-07
2.8583e-07
2.8583e-07
2.67331e-07
2.67331e-07
2.49819e-07
2.49819e-07
2.33246e-07
2.33246e-07
2.17565e-07
2.17565e-07
2.02734e-07
2.02734e-07
1.88711e-07
1.88711e-07
1.75459e-07
1.75459e-07
1.62942e-07
1.62942e-07
1.51127e-07
1.51127e-07
1.39981e-07
1.39981e-07
1.29475e-07
1.29475e-07
1.19581e-07
1.19581e-07
1.10271e-07
1.10271e-07
1.01519e-07
1.01519e-07
9.33024e-08
9.33024e-08
8.55963e-08
8.55963e-08
7.83788e-08
7.83788e-08
7.16281e-08
7.16281e-08
6.53237e-08
6.53237e-08
5.94454e-08
5.94454e-08
5.39738e-08
5.39738e-08
4.88902e-08
4.88902e-08
4.41761e-08
4.41761e-08
3.98138e-08
3.98138e-08
3.57858e-08
3.57858e-08
3.20752e-08
3.20752e-08
2.86653e-08
2.86653e-08
2.55399e-08
2.55399e-08
2.26829e-08
2.26829e-08
2.0079e-08
2.0079e-08
1.77127e-08
1.77127e-08
1.55693e-08
1.55693e-08
1.36341e-08
1.36341e-08
1.1893e-08
1.1893e-08
1.03323e-08
1.03323e-08
8.93851e-09
8.93851e-09
7.69881e-09
7.69881e-09
6.6007e-09
6.6007e-09
5.63224e-09
5.63224e-09
4.78196e-09
4.78196e-09
4.03897e-09
4.03897e-09
3.39291e-09
3.39291e-09
2.83401e-09
2.83401e-09
2.35311e-09
2.35311e-09
1.94162e-09
1.94162e-09
1.59159e-09
1.59159e-09
1.29565e-09
1.29565e-09
1.04705e-09
1.04705e-09
8.39621e-10
8.39621e-10
6.6777e-10
6.6777e-10
5.26462e-10
5.26462e-10
4.11189e-10
4.11189e-10
3.17947e-10
3.17947e-10
2.43204e-10
2.43204e-10
1.83869e-10
1.83869e-10
1.37255e-10
1.37255e-10
1.01048e-10
1.01048e-10
7.32692e-11
7.32692e-11
5.22445e-11
5.22445e-11
3.65687e-11
3.65687e-11
2.50749e-11
2.50749e-11
1.68047e-11
1.68047e-11
1.09799e-11
1.09799e-11
6.97697e-12
6.97697e-12
4.30375e-12
4.30375e-12
2.57805e-12
2.57805e-12
1.50879e-12
1.50879e-12
8.79311e-13
8.79311e-13
5.3271e-13
5.3271e-13
3.59248e-13
3.59248e-13
2.85565e-13
2.85565e-13
2.65665e-13
2.65665e-13
2.73593e-13
2.73593e-13
2.97815e-13
2.97815e-13
3.37455e-13
3.37455e-13
3.99613e-13
3.99613e-13
0.00529225
0.00529225
0.00529546
0.00529546
0.0053017
0.0053017
0.00531073
0.00531073
0.00532227
0.00532227
0.00533602
0.00533602
0.00535163
0.00535163
0.00536878
0.00536878
0.00538712
0.00538712
0.00540635
0.00540635
0.00542617
0.00542617
0.0054463
0.0054463
0.00546648
0.00546648
0.00548649
0.00548649
0.00550613
0.00550613
0.00552522
0.00552522
0.00554361
0.00554361
0.00556117
0.00556117
0.0055778
0.0055778
0.0055934
0.0055934
0.0056079
0.0056079
0.00562124
0.00562124
0.00563339
0.00563339
0.0056443
0.0056443
0.00565396
0.00565396
0.00566236
0.00566236
0.00566949
0.00566949
0.00567536
0.00567536
0.00567999
0.00567999
0.00568337
0.00568337
0.00568554
0.00568554
0.00568652
0.00568652
0.00568633
0.00568633
0.00568501
0.00568501
0.00568258
0.00568258
0.00567908
0.00567908
0.00567454
0.00567454
0.005669
0.005669
0.00566249
0.00566249
0.00565506
0.00565506
0.00564672
0.00564672
0.00563754
0.00563754
0.00562753
0.00562753
0.00561673
0.00561673
0.00560519
0.00560519
0.00559293
0.00559293
0.00558
0.00558
0.00556642
0.00556642
0.00555222
0.00555222
0.00553745
0.00553745
0.00552212
0.00552212
0.00550628
0.00550628
0.00548994
0.00548994
0.00547314
0.00547314
0.0054559
0.0054559
0.00543824
0.00543824
0.00542019
0.00542019
0.00540177
0.00540177
0.005383
0.005383
0.00536389
0.00536389
0.00534446
0.00534446
0.00532473
0.00532473
0.00530471
0.00530471
0.0052844
0.0052844
0.00526382
0.00526382
0.00524297
0.00524297
0.00522184
0.00522184
0.00520045
0.00520045
0.00517879
0.00517879
0.00515685
0.00515685
0.00513463
0.00513463
0.00511211
0.00511211
0.00508929
0.00508929
0.00506613
0.00506613
0.00504263
0.00504263
0.00501875
0.00501875
0.00499448
0.00499448
0.00496977
0.00496977
0.00494459
0.00494459
0.00491891
0.00491891
0.00489267
0.00489267
0.00486584
0.00486584
0.00483836
0.00483836
0.00481017
0.00481017
0.00478122
0.00478122
0.00475144
0.00475144
0.00472076
0.00472076
0.00468911
0.00468911
0.00465641
0.00465641
0.00462258
0.00462258
0.00458754
0.00458754
0.0045512
0.0045512
0.00451347
0.00451347
0.00447424
0.00447424
0.00443344
0.00443344
0.00439095
0.00439095
0.00434667
0.00434667
0.0043005
0.0043005
0.00425235
0.00425235
0.00420211
0.00420211
0.00414968
0.00414968
0.00409496
0.00409496
0.00403786
0.00403786
0.00397829
0.00397829
0.00391617
0.00391617
0.00385143
0.00385143
0.003784
0.003784
0.00371383
0.00371383
0.00364088
0.00364088
0.00356513
0.00356513
0.00348656
0.00348656
0.00340518
0.00340518
0.00332102
0.00332102
0.00323414
0.00323414
0.00314461
0.00314461
0.00305252
0.00305252
0.002958
0.002958
0.00286121
0.00286121
0.00276232
0.00276232
0.00266153
0.00266153
0.00255909
0.00255909
0.00245525
0.00245525
0.00235031
0.00235031
0.00224457
0.00224457
0.00213837
0.00213837
0.00203207
0.00203207
0.00192603
0.00192603
0.00182065
0.00182065
0.00171631
0.00171631
0.0016134
0.0016134
0.00151232
0.00151232
0.00141345
0.00141345
0.00131715
0.00131715
0.00122379
0.00122379
0.00113367
0.00113367
0.0010471
0.0010471
0.000964323
0.000964323
0.000885562
0.000885562
0.000810985
0.000810985
0.000740717
0.000740717
0.000674834
0.000674834
0.000613363
0.000613363
0.000556285
0.000556285
0.000503535
0.000503535
0.000455007
0.000455007
0.000410557
0.000410557
0.000370009
0.000370009
0.000333162
0.000333162
0.000299795
0.000299795
0.000269675
0.000269675
0.000242559
0.000242559
0.000218205
0.000218205
0.000196374
0.000196374
0.000176833
0.000176833
0.000159362
0.000159362
0.000143751
0.000143751
0.000129809
0.000129809
0.000117356
0.000117356
0.00010623
0.00010623
9.6285e-05
9.6285e-05
8.73882e-05
8.73882e-05
7.94216e-05
7.94216e-05
7.22799e-05
7.22799e-05
6.58699e-05
6.58699e-05
6.01089e-05
6.01089e-05
5.49239e-05
5.49239e-05
5.02505e-05
5.02505e-05
4.6032e-05
4.6032e-05
4.22186e-05
4.22186e-05
3.8766e-05
3.8766e-05
3.56357e-05
3.56357e-05
3.27933e-05
3.27933e-05
3.02087e-05
3.02087e-05
2.78554e-05
2.78554e-05
2.57096e-05
2.57096e-05
2.37506e-05
2.37506e-05
2.19599e-05
2.19599e-05
2.0321e-05
2.0321e-05
1.88194e-05
1.88194e-05
1.74419e-05
1.74419e-05
1.6177e-05
1.6177e-05
1.50143e-05
1.50143e-05
1.39444e-05
1.39444e-05
1.29592e-05
1.29592e-05
1.2051e-05
1.2051e-05
1.12131e-05
1.12131e-05
1.04395e-05
1.04395e-05
9.72464e-06
9.72464e-06
9.0636e-06
9.0636e-06
8.4519e-06
8.4519e-06
7.88545e-06
7.88545e-06
7.36058e-06
7.36058e-06
6.87391e-06
6.87391e-06
6.4224e-06
6.4224e-06
6.00325e-06
6.00325e-06
5.61393e-06
5.61393e-06
5.25212e-06
5.25212e-06
4.91568e-06
4.91568e-06
4.60268e-06
4.60268e-06
4.31133e-06
4.31133e-06
4.04e-06
4.04e-06
3.78719e-06
3.78719e-06
3.55151e-06
3.55151e-06
3.3317e-06
3.3317e-06
3.1266e-06
3.1266e-06
2.93512e-06
2.93512e-06
2.75628e-06
2.75628e-06
2.58917e-06
2.58917e-06
2.43293e-06
2.43293e-06
2.2868e-06
2.2868e-06
2.15005e-06
2.15005e-06
2.02202e-06
2.02202e-06
1.9021e-06
1.9021e-06
1.78971e-06
1.78971e-06
1.68435e-06
1.68435e-06
1.58551e-06
1.58551e-06
1.49275e-06
1.49275e-06
1.40565e-06
1.40565e-06
1.32383e-06
1.32383e-06
1.24694e-06
1.24694e-06
1.17463e-06
1.17463e-06
1.1066e-06
1.1066e-06
1.04258e-06
1.04258e-06
9.82286e-07
9.82286e-07
9.25486e-07
9.25486e-07
8.7195e-07
8.7195e-07
8.21468e-07
8.21468e-07
7.73846e-07
7.73846e-07
7.28901e-07
7.28901e-07
6.86466e-07
6.86466e-07
6.46386e-07
6.46386e-07
6.08515e-07
6.08515e-07
5.72719e-07
5.72719e-07
5.38874e-07
5.38874e-07
5.06863e-07
5.06863e-07
4.7658e-07
4.7658e-07
4.47923e-07
4.47923e-07
4.208e-07
4.208e-07
3.95125e-07
3.95125e-07
3.70817e-07
3.70817e-07
3.478e-07
3.478e-07
3.26006e-07
3.26006e-07
3.0537e-07
3.0537e-07
2.8583e-07
2.8583e-07
2.67331e-07
2.67331e-07
2.49819e-07
2.49819e-07
2.33246e-07
2.33246e-07
2.17565e-07
2.17565e-07
2.02734e-07
2.02734e-07
1.88711e-07
1.88711e-07
1.75459e-07
1.75459e-07
1.62942e-07
1.62942e-07
1.51127e-07
1.51127e-07
1.39981e-07
1.39981e-07
1.29475e-07
1.29475e-07
1.19581e-07
1.19581e-07
1.10271e-07
1.10271e-07
1.01519e-07
1.01519e-07
9.33024e-08
9.33024e-08
8.55963e-08
8.55963e-08
7.83788e-08
7.83788e-08
7.16281e-08
7.16281e-08
6.53237e-08
6.53237e-08
5.94454e-08
5.94454e-08
5.39738e-08
5.39738e-08
4.88902e-08
4.88902e-08
4.41761e-08
4.41761e-08
3.98138e-08
3.98138e-08
3.57858e-08
3.57858e-08
3.20752e-08
3.20752e-08
2.86653e-08
2.86653e-08
2.55399e-08
2.55399e-08
2.26829e-08
2.26829e-08
2.0079e-08
2.0079e-08
1.77127e-08
1.77127e-08
1.55693e-08
1.55693e-08
1.36341e-08
1.36341e-08
1.1893e-08
1.1893e-08
1.03323e-08
1.03323e-08
8.93851e-09
8.93851e-09
7.69881e-09
7.69881e-09
6.6007e-09
6.6007e-09
5.63224e-09
5.63224e-09
4.78196e-09
4.78196e-09
4.03897e-09
4.03897e-09
3.39291e-09
3.39291e-09
2.83401e-09
2.83401e-09
2.35311e-09
2.35311e-09
1.94162e-09
1.94162e-09
1.59159e-09
1.59159e-09
1.29565e-09
1.29565e-09
1.04705e-09
1.04705e-09
8.39621e-10
8.39621e-10
6.6777e-10
6.6777e-10
5.26462e-10
5.26462e-10
4.11189e-10
4.11189e-10
3.17947e-10
3.17947e-10
2.43204e-10
2.43204e-10
1.83869e-10
1.83869e-10
1.37255e-10
1.37255e-10
1.01048e-10
1.01048e-10
7.32692e-11
7.32692e-11
5.22445e-11
5.22445e-11
3.65687e-11
3.65687e-11
2.50749e-11
2.50749e-11
1.68047e-11
1.68047e-11
1.09799e-11
1.09799e-11
6.97697e-12
6.97697e-12
4.30375e-12
4.30375e-12
2.57805e-12
2.57805e-12
1.50879e-12
1.50879e-12
8.79311e-13
8.79311e-13
5.3271e-13
5.3271e-13
3.59248e-13
3.59248e-13
2.85565e-13
2.85565e-13