/*--------------------------------*- C++ -*----------------------------------*\
| =========                 |                                                 |
| \\      /  F ield         | OpenFOAM: The Open Source CFD Toolbox           |
|  \\    /   O peration     | Version:  2106                                  |
|   \\  /    A nd           | Website:  www.openfoam.com                      |
|    \\/     M anipulation  |                                                 |
\*---------------------------------------------------------------------------*/
FoamFile
{
    version     2.0;
    format      ascii;
    arch        "LSB;label=32;scalar=64";
    class       volTensorField;
    location    "17000";
    object      grad(U);
}
// * * * * * * * * * * * * * * * * * * * * * * * * * * * * * * * * * * * * * //

dimensions      [0 0 -1 0 0 0 0];

internalField   nonuniform List<tensor> 
2560
(
(-2.28578e-18 2.0789e-30 6.49658e-32 12.9408 -1.44948e-11 -2.22728e-13 0.0187334 -1.04917e-14 -1.64364e-16)
(0 0 -3.6153e-28 12.9408 -1.40281e-15 -8.16723e-15 0.0187334 -1.81162e-18 -6.8542e-18)
(-9.01208e-18 -8.6626e-25 -7.61234e-27 12.9389 4.33191e-32 -2.5483e-14 0.0564673 -6.31089e-30 -7.48474e-17)
(0 -8.19643e-30 -1.28069e-31 12.9389 -1.96729e-15 -6.19891e-15 0.0564673 -2.38948e-18 -3.45199e-17)
(-2.37156e-18 -1.25351e-29 -6.74389e-33 12.937 1.58421e-12 -1.11629e-14 0.0776553 -1.10818e-14 -5.80867e-17)
(0 2.42369e-29 1.89351e-31 12.937 -3.1123e-15 -4.63075e-16 0.0776553 -7.7207e-18 -3.55427e-17)
(2.51161e-17 -1.57566e-29 -2.43719e-31 12.935 7.57613e-13 -1.0322e-14 0.0787724 -7.77721e-15 -6.67978e-17)
(-1.75112e-17 1.19448e-29 1.86637e-31 12.935 -2.79863e-15 -4.69675e-16 0.0787724 -1.19749e-17 -3.66105e-17)
(6.90408e-17 -3.13961e-29 -4.29244e-31 12.933 7.07253e-14 -1.15431e-14 0.0799053 -1.33792e-15 -7.48776e-17)
(0 2.74716e-29 3.67923e-31 12.933 -2.87792e-15 -4.77259e-16 0.0799053 -1.64679e-17 -3.77271e-17)
(5.23244e-17 -1.25626e-29 -3.01786e-31 12.931 -5.98258e-14 -1.24053e-14 0.0810542 -2.59664e-16 -7.95652e-17)
(1.4639e-16 1.54731e-29 2.41767e-31 12.931 -2.93845e-15 -4.85094e-16 0.0810542 -2.10684e-17 -3.88979e-17)
(-2.37613e-17 -7.94854e-28 -5.69667e-32 12.9289 -3.58067e-15 -1.28764e-14 0.0822195 -1.13042e-17 -8.30626e-17)
(9.50452e-17 1.52513e-29 2.38302e-31 12.9289 -2.97853e-15 -4.93183e-16 0.0822195 -2.58032e-17 -4.01235e-17)
(-2.93024e-17 0 2.99386e-31 12.9267 1.52122e-27 -1.3219e-14 0.0834012 -6.76153e-46 -8.63177e-17)
(8.41524e-17 -7.51636e-30 -1.17443e-31 12.9267 -3.02196e-15 -5.01335e-16 0.0834012 -3.05669e-17 -4.14092e-17)
(1.0009e-16 -1.22775e-29 -2.9846e-31 12.9246 2.87086e-15 -1.35214e-14 0.0845996 -2.13911e-17 -8.94542e-17)
(0 1.48173e-29 2.3152e-31 12.9246 -3.09303e-15 -5.08986e-16 0.0845996 -3.56256e-17 -4.27541e-17)
(0 7.30244e-30 3.42302e-31 12.9224 2.80089e-15 -1.37985e-14 0.0858149 -1.58843e-17 -9.25276e-17)
(-6.4233e-17 0 -3.42302e-31 12.9224 -3.14896e-15 -5.17686e-16 0.0858149 -4.0893e-17 -4.41638e-17)
(-4.64084e-17 -1.67251e-29 -3.77715e-31 12.9201 3.68557e-15 -1.40611e-14 0.0870474 -2.10883e-17 -9.56127e-17)
(0 2.87911e-29 4.49861e-31 12.9201 -3.17435e-15 -5.25937e-16 0.0870474 -4.62809e-17 -4.5645e-17)
(5.22751e-17 -4.03398e-29 -7.40013e-31 12.9178 4.43375e-15 -1.43186e-14 0.0882973 -2.82714e-17 -9.87592e-17)
(0 2.83785e-29 5.54267e-31 12.9178 -3.21753e-15 -5.33747e-16 0.0882973 -5.18966e-17 -4.7192e-17)
(6.15105e-17 -1.39859e-29 -1.09265e-31 12.9155 4.81427e-15 -1.45765e-14 0.0895649 -3.19351e-17 -1.01991e-16)
(0 2.09788e-29 1.09265e-31 12.9155 -3.31174e-15 -5.42303e-16 0.0895649 -5.76601e-17 -4.88162e-17)
(-6.42624e-17 1.1757e-29 4.03756e-31 12.9131 5.029e-15 -1.48369e-14 0.0908503 -3.43776e-17 -1.05317e-16)
(2.5705e-16 0 -2.15397e-31 12.9131 -3.38917e-15 -5.49536e-16 0.0908503 -6.36979e-17 -5.05167e-17)
(0 4.07635e-29 7.43085e-31 12.9107 5.09483e-15 -1.51009e-14 0.0921539 -3.58923e-17 -1.08747e-16)
(0 -4.07635e-29 -7.43085e-31 12.9107 -3.36317e-15 -5.56814e-16 0.0921539 -6.98662e-17 -5.22925e-17)
(-7.65966e-17 4.8624e-30 1.91443e-31 12.9082 5.18467e-15 -1.53689e-14 0.0934759 -3.63245e-17 -1.12284e-16)
(3.06386e-16 0 -1.04633e-31 12.9082 -3.35509e-15 -5.64551e-16 0.0934759 -7.58085e-17 -5.41537e-17)
(-1.16118e-16 2.64023e-29 7.21937e-31 12.9057 5.3621e-15 -1.56408e-14 0.0948164 -3.82451e-17 -1.15929e-16)
(-2.15468e-16 -2.64023e-29 -7.21937e-31 12.9057 -3.52633e-15 -5.71266e-16 0.0948164 -8.1761e-17 -5.60979e-17)
(-1.14454e-16 3.25298e-29 6.09934e-31 12.9031 5.37325e-15 -1.59168e-14 0.0961759 -3.99959e-17 -1.19688e-16)
(-2.42695e-16 -3.25298e-29 -6.09934e-31 12.9031 -3.58954e-15 -5.78913e-16 0.0961759 -8.85528e-17 -5.81306e-17)
(2.25627e-16 -1.28254e-29 -3.00596e-31 12.9005 5.34471e-15 -1.61974e-14 0.0975544 -3.95317e-17 -1.23568e-16)
(0 1.92381e-29 4.00795e-31 12.9005 -3.54147e-15 -5.85407e-16 0.0975544 -9.51057e-17 -6.02639e-17)
(1.02345e-16 2.67459e-29 2.94699e-31 12.8978 5.54881e-15 -1.64824e-14 0.0989524 -4.07359e-17 -1.27567e-16)
(-4.09379e-16 -3.79248e-29 -5.92575e-31 12.8978 -3.69619e-15 -5.92055e-16 0.0989524 -1.01712e-16 -6.24833e-17)
(-1.09603e-16 3.11511e-29 7.78776e-31 12.8951 5.77285e-15 -1.67714e-14 0.10037 -4.38216e-17 -1.31687e-16)
(1.09603e-16 -3.11511e-29 -7.78776e-31 12.8951 -3.85027e-15 -6.00175e-16 0.10037 -1.09235e-16 -6.48201e-17)
(-1.15779e-16 -7.42648e-30 -8.4108e-32 12.8924 5.76928e-15 -1.70645e-14 0.101807 -4.54173e-17 -1.35934e-16)
(0 1.84227e-29 3.83807e-31 12.8924 -3.86757e-15 -6.08563e-16 0.101807 -1.16872e-16 -6.72623e-17)
(9.03263e-17 -4.35689e-29 -1.21237e-30 12.8896 5.72344e-15 -1.73622e-14 0.103265 -4.50488e-17 -1.40315e-16)
(0 4.23703e-29 1.13492e-30 12.8896 -3.8898e-15 -6.15995e-16 0.103265 -1.24767e-16 -6.98199e-17)
(0 1.78984e-29 7.45768e-31 12.8867 5.93923e-15 -1.76646e-14 0.104743 -4.60132e-17 -1.44832e-16)
(-5.18406e-16 -2.38646e-29 -9.32211e-31 12.8867 -3.94473e-15 -6.21555e-16 0.104743 -1.33277e-16 -7.24809e-17)
(1.36662e-16 1.86712e-29 7.98965e-31 12.8838 6.15373e-15 -1.79711e-14 0.106242 -4.98768e-17 -1.49481e-16)
(0 -2.35225e-29 -9.1885e-31 12.8838 -4.02974e-15 -6.28002e-16 0.106242 -1.42031e-16 -7.52622e-17)
(-4.91586e-16 5.02744e-29 1.33517e-30 12.8808 6.20369e-15 -1.82816e-14 0.107762 -5.0899e-17 -1.54271e-16)
(2.03941e-16 -4.05745e-29 -1.08682e-30 12.8808 -4.15319e-15 -6.34481e-16 0.107762 -1.51015e-16 -7.81752e-17)
(4.53259e-16 -5.45386e-29 -1.81413e-30 12.8778 6.32007e-15 -1.85969e-14 0.109303 -5.2174e-17 -1.59214e-16)
(1.20869e-15 4.57062e-29 1.42832e-30 12.8778 -4.19583e-15 -6.39044e-16 0.109303 -1.60673e-16 -8.12212e-17)
(1.98137e-16 -2.25256e-29 -1.23187e-30 12.8747 6.40679e-15 -1.89177e-14 0.110865 -5.43658e-17 -1.64315e-16)
(4.35679e-16 2.81569e-29 1.23187e-30 12.8747 -4.10044e-15 -6.45608e-16 0.110865 -1.70168e-16 -8.44034e-17)
(1.65927e-16 1.18064e-29 3.82492e-31 12.8715 6.42737e-15 -1.92432e-14 0.112449 -5.51959e-17 -1.69566e-16)
(0 -5.55068e-30 -3.46917e-31 12.8715 -4.12104e-15 -6.55081e-16 0.112449 -1.79442e-16 -8.77398e-17)
(-3.47013e-16 9.68825e-30 4.56465e-31 12.8683 6.61509e-15 -1.95736e-14 0.114056 -5.63181e-17 -1.74985e-16)
(-1.38805e-15 0 -1.70973e-31 12.8683 -4.35541e-15 -6.61582e-16 0.114056 -1.89403e-16 -9.12275e-17)
(-3.70934e-16 2.10204e-29 6.53333e-31 12.865 6.95657e-15 -1.99088e-14 0.115684 -6.01408e-17 -1.80563e-16)
(-7.24779e-16 -5.39271e-30 -3.37044e-31 12.865 -4.64039e-15 -6.65074e-16 0.115684 -1.99836e-16 -9.48563e-17)
(0 3.18925e-29 1.16275e-30 12.8617 7.05775e-15 -2.02491e-14 0.117336 -6.41099e-17 -1.8632e-16)
(-7.55972e-16 -3.18925e-29 -1.16275e-30 12.8617 -4.68553e-15 -6.67743e-16 0.117336 -2.10568e-16 -9.86471e-17)
(0 -3.66746e-29 -1.47353e-30 12.8582 6.89892e-15 -2.69207e-14 0.11901 -6.3749e-17 -3.09367e-16)
(7.8761e-16 3.66746e-29 1.47353e-30 12.8582 -4.47906e-15 -6.68186e-16 0.11901 -2.20871e-16 -1.02603e-16)
(-2.04925e-16 4.83764e-30 1.49753e-31 12.8547 6.84644e-15 -3.42233e-14 0.120707 -6.30474e-17 -3.28941e-16)
(0 1.03283e-29 0 12.8547 -4.41848e-15 -6.65593e-16 0.120707 -2.314e-16 -1.06704e-16)
(-2.13062e-16 3.53767e-29 1.1137e-30 12.8511 6.92271e-15 -3.53615e-14 0.122427 -6.46306e-17 -3.40118e-16)
(0 -3.05408e-29 -9.54398e-31 12.8511 -4.59877e-15 -6.67347e-16 0.122427 -2.42086e-16 -1.10967e-16)
(-2.21315e-16 2.49028e-29 7.96325e-31 12.8474 7.11774e-15 -3.60374e-14 0.124171 -6.63477e-17 -3.51646e-16)
(-8.85259e-16 -1.00343e-29 -3.13573e-31 12.8474 -4.84072e-15 -6.72115e-16 0.124171 -2.53987e-16 -1.15441e-16)
(2.29686e-16 -1.96676e-29 -7.97555e-31 12.8437 7.33889e-15 -3.67217e-14 0.125939 -7.02943e-17 -3.63503e-16)
(0 1.48358e-29 6.18158e-31 12.8437 -4.82573e-15 -6.76013e-16 0.125939 -2.66976e-16 -1.201e-16)
(2.38176e-16 -2.92016e-29 -1.40856e-30 12.8398 7.39097e-15 -3.7414e-14 0.127731 -7.26289e-17 -3.75722e-16)
(0 2.43719e-29 1.2186e-30 12.8398 -4.8599e-15 -6.75265e-16 0.127731 -2.79868e-16 -1.24968e-16)
(-2.46787e-16 2.40459e-29 1.10174e-30 12.8358 7.54902e-15 -3.81132e-14 0.129548 -7.33899e-17 -3.88267e-16)
(-3.38088e-16 -9.60904e-30 -6.00565e-31 12.8358 -5.10373e-15 -6.66328e-16 0.129548 -2.93758e-16 -1.30003e-16)
(-3.33242e-16 1.4207e-29 8.87936e-31 12.8317 7.67038e-15 -3.88104e-14 0.131389 -7.79471e-17 -4.01008e-16)
(3.33242e-16 -2.36783e-29 -1.47989e-30 12.8317 -5.04535e-15 -6.64584e-16 0.131389 -3.07726e-16 -1.35234e-16)
(-2.64378e-16 9.49101e-30 1.09912e-30 12.8274 7.59548e-15 -3.95097e-14 0.133255 -7.80256e-17 -4.14172e-16)
(1.05751e-15 0 -2.91737e-31 12.8274 -4.84187e-15 -6.69393e-16 0.133255 -3.21253e-16 -1.40729e-16)
(0 -3.22062e-29 -2.01289e-30 12.823 7.83677e-15 -4.02209e-14 0.135145 -7.8674e-17 -4.27748e-16)
(1.09345e-15 3.22062e-29 2.01289e-30 12.823 -4.98491e-15 -6.69042e-16 0.135145 -3.35139e-16 -1.46439e-16)
(2.82474e-16 1.33215e-29 1.1687e-30 12.8185 8.22597e-15 -4.09375e-14 0.137061 -8.5398e-17 -4.41633e-16)
(-1.1299e-15 -2.72097e-29 -1.98404e-30 12.8185 -5.31163e-15 -6.67426e-16 0.137061 -3.50844e-16 -1.52372e-16)
(2.91715e-16 -2.26953e-29 -8.20101e-31 12.8138 8.35265e-15 -4.16608e-14 0.139002 -8.93033e-17 -4.55974e-16)
(0 1.78798e-29 5.58743e-31 12.8138 -5.43025e-15 -6.70647e-16 0.139002 -3.66824e-16 -1.58562e-16)
(8.94854e-18 4.07195e-31 -2.76047e-31 12.8089 8.39885e-15 -4.23889e-14 0.140969 -9.06484e-17 -4.70599e-16)
(-3.10036e-16 8.81176e-30 1.10147e-30 12.8089 -5.45724e-15 -6.72453e-16 0.140969 -3.84266e-16 -1.6505e-16)
(3.10593e-16 3.87509e-30 7.97233e-31 12.8039 8.44282e-15 -4.31184e-14 0.142961 -9.29365e-17 -4.85624e-16)
(9.36779e-16 0 -5.42841e-31 12.8039 -5.47899e-15 -6.68264e-16 0.142961 -4.00686e-16 -1.71785e-16)
(3.01213e-16 -1.28415e-29 -1.07012e-30 12.7986 8.4533e-15 -3.79643e-14 0.144979 -9.42857e-17 -3.67592e-16)
(1.28093e-15 1.7122e-29 1.07012e-30 12.7986 -5.54247e-15 -6.64176e-16 0.144979 -4.1642e-16 -1.78784e-16)
(-3.30009e-16 5.86292e-31 -1.66549e-31 12.7931 8.45598e-15 -2.3615e-14 0.147022 -9.58964e-17 -1.69964e-16)
(0 1.26574e-29 1.05478e-30 12.7931 -5.62507e-15 -6.48073e-16 0.147022 -4.32812e-16 -1.8607e-16)
(-3.39924e-16 6.44408e-31 3.66012e-31 12.7873 8.58726e-15 -1.47409e-14 0.149091 -9.71094e-17 -1.71381e-16)
(0 1.2476e-29 0 12.7873 -5.73746e-15 -6.23485e-16 0.149091 -4.47732e-16 -1.93516e-16)
(5.76892e-16 -1.22972e-29 -1.02477e-30 12.7812 8.96992e-15 -1.46482e-14 0.151185 -1.01768e-16 -1.72749e-16)
(-5.76892e-16 1.22972e-29 1.02477e-30 12.7812 -5.80841e-15 -6.05559e-16 0.151185 -4.63213e-16 -2.01259e-16)
(-9.28798e-16 4.79656e-30 -1.28566e-31 12.7749 9.55521e-15 -1.45525e-14 0.153305 -1.09009e-16 -1.74104e-16)
(0 1.21209e-29 1.01008e-30 12.7749 -6.0402e-15 -6.00757e-16 0.153305 -4.81657e-16 -2.09299e-16)
(-5.60474e-16 3.58416e-29 2.9868e-30 12.7682 9.96058e-15 -1.44593e-14 0.155451 -1.188e-16 -1.7554e-16)
(-1.48206e-15 -3.18592e-29 -2.9868e-30 12.7682 -6.38961e-15 -5.99581e-16 0.155451 -5.03724e-16 -2.17727e-16)
(1.71441e-16 -1.87634e-29 -1.57561e-30 12.7611 9.74716e-15 -1.43607e-14 0.157621 -1.22076e-16 -1.76768e-16)
(9.71559e-16 2.74773e-29 2.45333e-30 12.7611 -6.51626e-15 -5.84623e-16 0.157621 -5.26301e-16 -2.26438e-16)
(0 3.09525e-29 3.38543e-30 12.7536 9.48091e-15 -1.42547e-14 0.159816 -1.17006e-16 -1.78024e-16)
(0 -3.09525e-29 -3.38543e-30 12.7536 -6.56821e-15 -5.63919e-16 0.159816 -5.49584e-16 -2.35427e-16)
(-4.02414e-16 2.00376e-29 1.82786e-30 12.7456 9.86628e-15 -1.41522e-14 0.162036 -1.18977e-16 -1.7934e-16)
(1.60966e-15 -1.52545e-29 -1.4301e-30 12.7456 -6.49969e-15 -5.47458e-16 0.162036 -5.71614e-16 -2.44758e-16)
(8.26692e-16 -3.21103e-29 -1.27612e-30 12.7372 1.00407e-14 -1.4054e-14 0.16428 -1.30235e-16 -1.80704e-16)
(1.65338e-15 2.25537e-29 4.69869e-31 12.7372 -6.44534e-15 -5.32838e-16 0.16428 -5.94842e-16 -2.54445e-16)
(5.21443e-16 -1.48203e-29 -9.2627e-31 12.7281 9.55607e-15 -1.39348e-14 0.166547 -1.26962e-16 -1.81471e-16)
(0 1.48203e-29 9.2627e-31 12.7281 -6.42583e-15 -5.23173e-16 0.166547 -6.19416e-16 -2.64467e-16)
(-4.35669e-16 4.77325e-30 -4.98925e-31 12.7185 9.44375e-15 -1.37976e-14 0.168836 -1.21364e-16 -1.82354e-16)
(0 7.30395e-30 1.36949e-30 12.7185 -6.3385e-15 -5.09092e-16 0.168836 -6.43931e-16 -2.74849e-16)
(-8.94128e-16 3.11358e-29 3.08889e-30 12.7082 9.79096e-15 -1.36589e-14 0.171148 -1.27698e-16 -1.83049e-16)
(1.78826e-15 -2.87971e-29 -2.69972e-30 12.7082 -6.45706e-15 -4.78857e-16 0.171148 -6.69526e-16 -2.85559e-16)
(-4.58616e-16 4.76474e-30 4.25059e-31 12.6972 1.03975e-14 -1.35128e-14 0.173481 -1.34275e-16 -1.83702e-16)
(0 7.09608e-30 8.8701e-31 12.6972 -6.66195e-15 -4.44176e-16 0.173481 -6.95168e-16 -2.9659e-16)
(-4.70327e-16 4.759e-30 -6.59157e-33 12.6854 1.07795e-14 -1.33665e-14 0.175834 -1.4802e-16 -1.84353e-16)
(1.88131e-15 6.99438e-30 1.31145e-30 12.6854 -6.44829e-15 -4.14794e-16 0.175834 -7.21188e-16 -3.07975e-16)
(-4.82199e-16 1.85434e-29 1.29788e-30 12.6727 1.07674e-14 -1.32065e-14 0.178205 -1.48803e-16 -1.84583e-16)
(-4.85131e-16 -6.89413e-30 0 12.6727 -6.85668e-15 -4.03198e-16 0.178205 -7.44891e-16 -3.19725e-16)
(-9.88466e-16 2.98876e-29 3.00682e-30 12.659 1.11493e-14 -1.30378e-14 0.180594 -1.52016e-16 -1.84937e-16)
(-1.97693e-15 -2.0386e-29 -2.12354e-30 12.659 -7.11565e-15 -3.68375e-16 0.180594 -7.74055e-16 -3.31926e-16)
(-1.01286e-15 -1.73016e-29 -2.03595e-30 12.6443 1.12679e-14 -1.28659e-14 0.182999 -1.64065e-16 -1.85011e-16)
(4.05144e-15 2.67917e-29 2.93034e-30 12.6443 -6.51386e-15 -3.19703e-16 0.182999 -8.01476e-16 -3.44222e-16)
(-1.55638e-15 4.72351e-29 4.65936e-30 12.6284 1.07658e-14 -1.2669e-14 0.185418 -1.59904e-16 -1.84569e-16)
(-2.07517e-15 -3.30096e-29 -3.30096e-30 12.6284 -6.52197e-15 -3.10189e-16 0.185418 -8.29443e-16 -3.57024e-16)
(-5.31321e-16 -2.77975e-29 -1.98187e-30 12.6113 1.09706e-14 -1.24527e-14 0.187849 -1.54116e-16 -1.83982e-16)
(1.66737e-15 3.25365e-29 3.25365e-30 12.6113 -7.04094e-15 -2.81836e-16 0.187849 -8.60421e-16 -3.70397e-16)
(5.44017e-16 -1.75605e-29 -2.8691e-30 12.5928 1.15936e-14 -1.22515e-14 0.19029 -1.70695e-16 -1.83889e-16)
(0 1.28281e-29 2.40526e-30 12.5928 -7.81637e-15 -2.38845e-16 0.19029 -8.91084e-16 -3.83885e-16)
(0 -3.16105e-29 -3.16105e-30 12.5728 1.14312e-14 -1.20513e-14 0.192739 -1.77472e-16 -1.83229e-16)
(2.22753e-15 3.16105e-29 3.16105e-30 12.5728 -7.54965e-15 -1.88668e-16 0.192739 -9.26576e-16 -3.9799e-16)
(0 -1.2463e-29 -1.55787e-30 12.5512 1.12457e-14 -1.18071e-14 0.195192 -1.70713e-16 -1.81676e-16)
(2.27966e-15 1.2463e-29 1.55787e-30 12.5512 -6.64741e-15 -1.21264e-16 0.195192 -9.56957e-16 -4.1217e-16)
(-8.64435e-16 2.45687e-29 3.07109e-30 12.5279 1.15583e-14 -1.15443e-14 0.197647 -1.76896e-16 -1.80294e-16)
(2.33247e-15 -6.14218e-30 -1.53555e-30 12.5279 -6.7224e-15 -7.9285e-17 0.197647 -9.84967e-16 -4.26712e-16)
(0 3.02707e-29 3.78384e-30 12.5026 1.16613e-14 -1.12646e-14 0.200101 -1.85585e-16 -1.78038e-16)
(0 -3.02707e-29 -3.78384e-30 12.5026 -7.21825e-15 -5.37889e-17 0.200101 -1.0159e-15 -4.41778e-16)
(-1.22007e-15 9.41757e-30 2.36891e-31 12.4754 1.16347e-14 -1.09503e-14 0.20255 -1.85379e-16 -1.75357e-16)
(0 0 7.45922e-31 12.4754 -7.62243e-15 -1.98386e-17 0.20255 -1.05066e-15 -4.57222e-16)
(0 -3.52911e-29 -4.41139e-30 12.4459 1.21185e-14 -1.06263e-14 0.204991 -1.90158e-16 -1.72566e-16)
(2.49501e-15 3.52911e-29 4.41139e-30 12.4459 -7.57793e-15 4.33769e-17 0.204991 -1.08675e-15 -4.7299e-16)
(0 1.15951e-29 1.44939e-30 12.4141 1.27378e-14 -1.02887e-14 0.207419 -2.06765e-16 -1.69198e-16)
(2.55056e-15 -5.79755e-30 -7.24693e-31 12.4141 -7.57386e-15 1.01255e-16 0.207419 -1.12156e-15 -4.88978e-16)
(-6.51698e-16 4.68884e-30 1.22167e-30 12.3798 1.28717e-14 -9.94318e-15 0.209831 -2.16452e-16 -1.65892e-16)
(0 1.14289e-29 0 12.3798 -7.8862e-15 1.58695e-16 0.209831 -1.15889e-15 -5.05497e-16)
(6.65927e-16 1.22144e-29 1.59971e-30 12.3428 1.25074e-14 -9.59778e-15 0.212221 -2.17365e-16 -1.62258e-16)
(0 -1.12651e-29 -1.40814e-30 12.3428 -7.69364e-15 2.16415e-16 0.212221 -1.19899e-15 -5.22091e-16)
(0 -1.11036e-29 -1.38796e-30 12.3029 1.21225e-14 -9.23889e-15 0.214584 -2.10246e-16 -1.58211e-16)
(0 1.66555e-29 2.08193e-30 12.3029 -7.70195e-15 2.54391e-16 0.214584 -1.23708e-15 -5.39178e-16)
(7.70151e-16 -1.64168e-29 -6.84031e-31 12.26 1.23295e-14 -8.86764e-15 0.216916 -2.10283e-16 -1.5385e-16)
(0 2.1889e-29 1.36806e-30 12.26 -8.2072e-15 3.31655e-16 0.216916 -1.28087e-15 -5.56575e-16)
(-6.60134e-16 -6.84925e-30 -2.94126e-31 12.2139 1.2891e-14 -8.49632e-15 0.219212 -2.23746e-16 -1.4949e-16)
(0 2.15753e-29 2.02268e-30 12.2139 -8.2394e-15 4.52741e-16 0.219212 -1.32645e-15 -5.73923e-16)
(-7.24522e-16 1.52913e-29 2.52544e-30 12.1644 1.32495e-14 -8.12466e-15 0.221465 -2.36635e-16 -1.44795e-16)
(0 -1.0633e-29 -1.99369e-30 12.1644 -7.77841e-15 5.23234e-16 0.221465 -1.36793e-15 -5.91375e-16)
(7.39583e-16 5.89165e-31 -5.36412e-31 12.1113 1.2971e-14 -7.70377e-15 0.22367 -2.43383e-16 -1.38288e-16)
(-3.69584e-15 -5.24031e-30 0 12.1113 -7.84484e-15 5.4981e-16 0.22367 -1.40941e-15 -6.09361e-16)
(1.45388e-15 -1.03304e-29 -1.93695e-30 12.0546 1.25139e-14 -7.21798e-15 0.22582 -2.33256e-16 -1.30792e-16)
(-3.01922e-15 1.54956e-29 1.93695e-30 12.0546 -7.98396e-15 6.15063e-16 0.22582 -1.45844e-15 -6.27135e-16)
(-7.70184e-16 1.99149e-29 3.72714e-30 11.9939 1.30096e-14 -6.73653e-15 0.227911 -2.33347e-16 -1.23994e-16)
(5.44495e-15 -1.01823e-29 -1.90919e-30 11.9939 -7.44625e-15 7.3872e-16 0.227911 -1.50277e-15 -6.45071e-16)
(7.85718e-16 1.54415e-29 1.95993e-30 11.9292 1.3902e-14 -6.27501e-15 0.229935 -2.58976e-16 -1.16782e-16)
(3.14287e-15 -2.5091e-29 -3.76365e-30 11.9292 -8.12266e-15 8.54782e-16 0.229935 -1.54056e-15 -6.62789e-16)
(0 0 0 11.8604 1.39109e-14 -5.80144e-15 0.231886 -2.74679e-16 -1.09053e-16)
(0 4.94628e-30 1.23657e-30 11.8604 -8.57804e-15 9.29313e-16 0.231886 -1.6012e-15 -6.8062e-16)
(-1.31082e-16 -2.46371e-29 -3.09984e-30 11.7872 1.32616e-14 -5.29768e-15 0.233759 -2.66912e-16 -1.00158e-16)
(2.58278e-15 2.92523e-29 3.65654e-30 11.7872 -8.34854e-15 9.89709e-16 0.233759 -1.65292e-15 -6.98413e-16)
(-8.33204e-16 1.90265e-29 2.36214e-30 11.7096 1.34043e-14 -4.77618e-15 0.235547 -2.5689e-16 -9.11949e-17)
(-3.33282e-15 -4.80551e-30 -6.00689e-31 11.7096 -9.448e-15 1.05358e-15 0.235547 -1.70541e-15 -7.16438e-16)
(8.49313e-16 -1.881e-29 -2.93131e-30 11.6276 1.45062e-14 -4.28821e-15 0.237245 -2.8049e-16 -8.31064e-17)
(3.39725e-15 1.42099e-29 2.36832e-30 11.6276 -9.63319e-15 1.17765e-15 0.237245 -1.76725e-15 -7.34547e-16)
(-8.65553e-16 3.26013e-29 5.23432e-30 11.5409 1.50862e-14 -3.84725e-15 0.238846 -3.09548e-16 -7.55439e-17)
(3.46221e-15 -2.80125e-29 -4.66875e-30 11.5409 -8.85218e-15 1.29594e-15 0.238846 -1.81871e-15 -7.51698e-16)
(-8.81918e-16 4.58057e-30 -7.07262e-33 11.4496 1.50474e-14 -3.37946e-15 0.240346 -3.12805e-16 -6.58208e-17)
(0 0 5.75229e-31 11.4496 -8.94138e-15 1.38915e-15 0.240346 -1.87614e-15 -7.69236e-16)
(-8.98402e-16 3.66001e-32 5.70407e-31 11.3536 1.4472e-14 -2.87936e-15 0.241739 -3.16978e-16 -5.63685e-17)
(0 9.07175e-30 1.13397e-30 11.3536 -8.34701e-15 1.50017e-15 0.241739 -1.93147e-15 -7.85934e-16)
(-2.17344e-15 -1.33154e-29 -1.66275e-30 11.253 1.32301e-14 -2.33873e-15 0.24302 -2.97359e-16 -4.42908e-17)
(3.65999e-15 2.23543e-29 2.23543e-30 11.253 -7.05859e-15 1.58138e-15 0.24302 -1.98151e-15 -8.02184e-16)
(9.31699e-16 -2.21918e-29 -2.22711e-30 11.1478 1.262e-14 -1.74518e-15 0.244186 -2.72378e-16 -3.18906e-17)
(0 1.76271e-29 1.65255e-30 11.1478 -6.83989e-15 1.66656e-15 0.244186 -2.03038e-15 -8.19099e-16)
(1.22262e-15 -4.34363e-30 -2.71477e-30 11.0379 1.26771e-14 -1.1259e-15 0.245233 -2.79213e-16 -1.79303e-17)
(-1.22262e-15 8.68725e-30 2.71477e-30 11.0379 -7.01683e-15 1.71439e-15 0.245233 -2.07605e-15 -8.35254e-16)
(-9.65386e-16 -4.01255e-30 -1.49172e-30 10.9235 1.27638e-14 -4.26357e-16 0.246157 -2.82906e-16 -4.79481e-18)
(0 1.28441e-29 2.14069e-30 10.9235 -7.05349e-15 1.69774e-15 0.246157 -2.13096e-15 -8.50708e-16)
(0 -3.79801e-29 -5.76796e-31 10.8047 1.35209e-14 5.05611e-29 0.246956 -2.91319e-16 0)
(7.85885e-15 3.79801e-29 5.27501e-30 10.8047 -7.02007e-15 1.71955e-15 0.246956 -2.19236e-15 -8.66286e-16)
(-1.1708e-15 4.15952e-30 1.55982e-30 10.6817 1.49141e-14 6.10549e-16 0.247629 -3.25998e-16 -8.28028e-18)
(3.99759e-15 8.31905e-30 2.17939e-29 10.6817 -7.51136e-15 5.58484e-16 0.247629 -2.24205e-15 -8.82487e-16)
(-2.17053e-15 3.73129e-29 4.15775e-30 10.5545 1.50104e-14 1.11095e-15 0.248173 -3.6483e-16 -2.00743e-17)
(-4.06602e-15 -2.86994e-29 -1.04499e-29 10.5545 -8.5061e-15 0 0.248173 -2.30034e-15 -9.07746e-16)
(1.03813e-16 2.06727e-29 3.59715e-30 10.4234 1.38526e-14 1.62638e-15 0.248588 -3.40102e-16 -3.21998e-17)
(-4.13467e-15 -1.21234e-29 -2.02057e-30 10.4234 -8.40947e-15 -5.52487e-17 0.248588 -2.36602e-15 -9.29322e-16)
(0 7.96645e-30 9.95806e-31 10.2885 1.42628e-14 2.12399e-15 0.248875 -3.19938e-16 -4.54058e-17)
(-1.12118e-15 0 0 10.2885 -7.65333e-15 -8.40554e-17 0.248875 -2.42049e-15 -9.43891e-16)
(0 7.85227e-30 1.96307e-30 10.1502 1.53379e-14 2.53231e-15 0.249034 -3.70043e-16 -5.73778e-17)
(4.2725e-15 0 -9.81534e-31 10.1502 -8.11609e-15 -9.68017e-17 0.249034 -2.47652e-15 -9.58126e-16)
(-1.09314e-15 3.42262e-29 4.28516e-30 10.0086 1.51074e-14 2.88418e-15 0.249066 -3.82433e-16 -6.69111e-17)
(0 -3.09589e-29 -3.86986e-30 10.0086 -8.75922e-15 -1.001e-16 0.249066 -2.54338e-15 -9.70795e-16)
(0 -4.57728e-29 -7.6288e-30 9.86394 1.47589e-14 3.23505e-15 0.248974 -3.69327e-16 -7.66975e-17)
(8.82157e-15 4.57728e-29 7.6288e-30 9.86394 -8.13043e-15 -1.21078e-16 0.248974 -2.61265e-15 -9.82545e-16)
(1.05827e-15 -1.12792e-29 -1.87986e-30 9.71661 1.44424e-14 3.55958e-15 0.24876 -3.75915e-16 -8.67159e-17)
(8.96001e-15 1.50389e-29 1.87986e-30 9.71661 -8.20998e-15 -8.90088e-17 0.24876 -2.66823e-15 -9.92854e-16)
(-2.27462e-15 8.89028e-30 -7.80047e-31 9.56683 1.37634e-14 3.88816e-15 0.248427 -3.63815e-16 -9.56892e-17)
(0 0 1.85292e-30 9.56683 -8.01973e-15 -6.45326e-17 0.248427 -2.73559e-15 -1.00142e-15)
(-1.15461e-15 4.43803e-30 5.30499e-31 9.41492 1.37489e-14 4.23413e-15 0.247979 -3.51381e-16 -1.06457e-16)
(9.23688e-15 7.30546e-30 9.13182e-31 9.41492 -6.68819e-15 -6.27749e-17 0.247979 -2.79876e-15 -1.00919e-15)
(1.17189e-15 -2.60273e-29 -2.32449e-30 9.26116 1.37598e-14 4.56618e-15 0.247419 -3.73703e-16 -1.16866e-16)
(0 2.16023e-29 1.80019e-30 9.26116 -7.29858e-15 -7.17857e-17 0.247419 -2.84673e-15 -1.01568e-15)
(-1.18915e-15 4.41779e-30 5.17756e-31 9.10586 1.36818e-14 4.86095e-15 0.246753 -3.62259e-16 -1.27466e-16)
(0 7.09755e-30 8.87193e-31 9.10586 -8.30915e-15 -1.24536e-16 0.246753 -2.91743e-15 -1.02185e-15)
(-1.20638e-15 1.83971e-29 2.26019e-30 8.94932 1.47527e-14 5.02415e-15 0.245986 -3.80388e-16 -1.36403e-16)
(4.82553e-15 -1.39916e-29 -1.74895e-30 8.94932 -7.74173e-15 -1.39707e-16 0.245986 -2.99752e-15 -1.02717e-15)
(-1.22357e-15 1.12821e-29 3.09112e-30 8.79184 1.53896e-14 5.09688e-15 0.245121 -4.32261e-16 -1.40251e-16)
(4.89429e-15 0 -1.72389e-30 8.79184 -7.30606e-15 -1.15393e-16 0.245121 -3.06872e-15 -1.03098e-15)
(-2.48143e-15 8.75397e-30 9.98304e-31 8.63371 1.49393e-14 5.18912e-15 0.244165 -4.27365e-16 -1.44492e-16)
(0 0 0 8.63371 -7.06698e-15 -9.33727e-17 0.244165 -3.13311e-15 -1.03377e-15)
(-1.2578e-15 1.77652e-29 2.16768e-30 8.47522 1.4107e-14 5.30185e-15 0.243122 -4.19222e-16 -1.49625e-16)
(0 -6.69931e-30 -8.37413e-31 8.47522 -7.46255e-15 -9.55759e-17 0.243122 -3.19323e-15 -1.03452e-15)
(1.85866e-15 -1.32066e-29 -2.47623e-30 8.31664 1.30685e-14 5.43344e-15 0.242 -3.91679e-16 -1.55253e-16)
(-6.95796e-15 1.32066e-29 2.47623e-30 8.31664 -7.80278e-15 -1.14125e-16 0.242 -3.26823e-15 -1.03416e-15)
(3.12381e-15 -2.38778e-29 -2.10667e-30 8.15824 1.36714e-14 5.55782e-15 0.240802 -3.70483e-16 -1.61739e-16)
(3.33512e-15 1.95259e-29 1.62716e-30 8.15824 -7.63853e-15 -8.08663e-17 0.240802 -3.33409e-15 -1.03285e-15)
(1.30867e-15 -1.71602e-29 -2.87844e-30 8.00027 1.44559e-14 5.65961e-15 0.239535 -4.39092e-16 -1.67215e-16)
(-5.23468e-15 1.28307e-29 2.40576e-30 8.00027 -7.90981e-15 -6.34381e-17 0.239535 -3.40703e-15 -1.02965e-15)
(-3.10536e-15 1.69653e-29 2.04655e-30 7.84297 1.46417e-14 5.76969e-15 0.238204 -4.28783e-16 -1.72634e-16)
(5.3019e-15 0 -7.90426e-31 7.84297 -7.87329e-15 -7.30046e-17 0.238204 -3.48659e-15 -1.02611e-15)
(-1.75437e-15 1.24656e-29 2.33729e-30 7.68656 1.59052e-14 5.84304e-15 0.236815 -4.63357e-16 -1.78868e-16)
(0 -6.23278e-30 -7.79098e-31 7.68656 -6.88497e-15 -8.68734e-18 0.236815 -3.56531e-15 -1.02207e-15)
(-1.72923e-15 2.45738e-29 2.30379e-30 7.53125 1.5004e-14 5.92958e-15 0.235374 -5.19993e-16 -1.82257e-16)
(3.70609e-15 -1.22869e-29 0 7.53125 -4.59399e-15 4.5753e-17 0.235374 -3.63982e-15 -1.01713e-15)
(1.37537e-15 -2.24463e-29 -2.71391e-30 7.37724 1.38501e-14 6.16683e-15 0.233885 -4.20017e-16 -1.89573e-16)
(0 1.81662e-29 -1.40563e-31 7.37724 -5.20161e-15 -8.83902e-30 0.233885 -3.68651e-15 -1.01287e-15)
(0 1.19372e-29 2.23823e-30 7.22471 1.40577e-14 6.28802e-15 0.232353 -4.61291e-16 -2.02797e-16)
(-5.56724e-15 -5.96861e-30 -1.49215e-30 7.22471 -7.09e-15 -6.03944e-17 0.232353 -3.76727e-15 -1.00937e-15)
(-1.65593e-15 5.88306e-30 7.35383e-31 7.07382 1.18722e-14 6.28801e-15 0.230784 -4.45818e-16 -2.03004e-16)
(0 5.88306e-30 7.35383e-31 7.07382 -5.11127e-15 -3.36686e-17 0.230784 -3.84639e-15 -1.0049e-15)
(0 1.15975e-29 2.17453e-30 6.92471 9.76415e-15 6.37931e-15 0.229183 -3.30669e-16 -2.08737e-16)
(-3.2644e-15 -5.79874e-30 -1.34131e-30 6.92471 -3.6213e-15 -3.45293e-17 0.229183 -3.90234e-15 -9.99276e-16)
(1.44051e-15 1.86092e-29 2.44787e-30 6.77752 1.05713e-14 6.44427e-15 0.227553 -3.17829e-16 -2.1506e-16)
(0 -2.28625e-29 -2.85782e-30 6.77752 -5.02948e-15 -1.27201e-16 0.227553 -3.94682e-15 -9.94357e-16)
(-1.29215e-16 7.03544e-30 2.4151e-30 6.63236 1.13504e-14 6.35059e-15 0.2259 -3.95143e-16 -2.19261e-16)
(0 -5.63371e-30 -1.40843e-30 6.63236 -5.65012e-15 -1.47709e-16 0.2259 -4.01202e-15 -9.88867e-16)
(-2.94488e-15 8.44994e-30 7.90008e-31 6.48935 1.03967e-14 6.20968e-15 0.224227 -3.80801e-16 -2.14908e-16)
(5.88976e-15 0 0 6.48935 -4.9817e-15 -1.30178e-16 0.224227 -4.07065e-15 -9.81841e-16)
(-1.48823e-15 4.22035e-30 3.87787e-31 6.34856 1.04326e-14 6.1038e-15 0.222537 -3.40084e-16 -2.15838e-16)
(0 5.47338e-30 1.36834e-30 6.34856 -5.49386e-15 -1.23348e-16 0.222537 -4.11637e-15 -9.72489e-16)
(-1.51854e-15 5.39493e-30 2.0231e-30 6.21008 1.06645e-14 5.9852e-15 0.220836 -3.945e-16 -2.13698e-16)
(0 -5.39493e-30 -2.0231e-30 6.21008 -5.76494e-15 -9.99621e-17 0.220836 -4.20236e-15 -9.6158e-16)
(0 1.06352e-29 2.6588e-30 6.07397 1.11392e-14 5.89827e-15 0.219125 -3.66722e-16 -2.13632e-16)
(0 -5.31761e-30 -1.9941e-30 6.07397 -5.89725e-15 -1.11836e-16 0.219125 -4.2568e-15 -9.4952e-16)
(-2.95064e-15 1.57242e-29 2.6207e-30 5.94028 1.30287e-14 5.69453e-15 0.217409 -4.40687e-16 -2.13615e-16)
(0 0 -6.55174e-31 5.94028 -6.1431e-15 -1.45873e-16 0.217409 -4.33323e-15 -9.35956e-16)
(-2.90835e-15 1.03325e-29 1.29157e-30 5.80906 1.23772e-14 5.39551e-15 0.21569 -5.17335e-16 -2.04807e-16)
(1.24019e-14 0 -6.45784e-31 5.80906 -5.4262e-15 -1.50409e-16 0.21569 -4.42143e-15 -9.21008e-16)
(-3.13089e-15 8.30523e-30 7.88481e-32 5.68034 1.00846e-14 5.1479e-15 0.21397 -4.04671e-16 -1.97417e-16)
(6.26178e-15 0 6.36528e-31 5.68034 -5.34016e-15 -6.46946e-17 0.21397 -4.47218e-15 -9.045e-16)
(4.40611e-15 -1.41879e-29 -2.23483e-30 5.55414 9.76264e-15 5.03968e-15 0.212253 -3.57811e-16 -1.91941e-16)
(-2.82558e-15 1.50577e-29 1.88222e-30 5.55414 -5.58723e-15 5.51418e-17 0.212253 -4.54614e-15 -8.85342e-16)
(0 4.9473e-30 6.18413e-31 5.43048 1.04027e-14 5.04531e-15 0.21054 -3.91636e-16 -1.94834e-16)
(-6.38199e-15 0 -3.08154e-31 5.43048 -5.10971e-15 0 0.21054 -4.63016e-15 -8.65085e-16)
(-1.61034e-15 -1.53849e-29 -2.09803e-30 5.30936 1.13817e-14 4.97327e-15 0.208834 -4.18488e-16 -1.98006e-16)
(6.44137e-15 2.4382e-29 3.04775e-30 5.30936 -5.45202e-15 -1.15788e-16 0.208834 -4.70043e-15 -8.4691e-16)
(-2.70582e-15 1.44195e-29 6.00813e-31 5.19079 1.04284e-14 4.70387e-15 0.207136 -4.81006e-16 -1.94809e-16)
(0 -4.8065e-30 0 5.19079 -5.43003e-15 -2.41122e-17 0.207136 -4.78393e-15 -8.29136e-16)
(2.66704e-15 -9.47523e-30 -1.1844e-30 5.07476 7.38425e-15 4.60854e-15 0.205449 -3.53792e-16 -1.82059e-16)
(0 1.42128e-29 -2.2397e-31 5.07476 -3.60959e-15 -1.10194e-29 0.205449 -4.85445e-15 -8.06937e-16)
(-1.65416e-15 4.116e-30 -2.58507e-31 4.96126 6.08724e-15 4.61288e-15 0.203773 -2.45796e-16 -1.9271e-16)
(0 0 5.83714e-31 4.96126 -2.04376e-15 -6.72429e-17 0.203773 -4.90969e-15 -7.87802e-16)
(-7.45934e-16 -2.86103e-29 -2.23477e-30 4.85026 6.70961e-15 4.45161e-15 0.202111 -2.56394e-16 -1.87753e-16)
(1.33483e-14 3.68223e-29 3.45209e-30 4.85026 -1.41572e-15 -3.50769e-17 0.202111 -4.95305e-15 -7.68236e-16)
(0 1.36104e-29 1.7013e-30 4.74176 9.29456e-15 4.35233e-15 0.200463 -3.05458e-16 -1.84761e-16)
(-2.554e-15 -4.53681e-30 0 4.74176 -3.18063e-15 0 0.200463 -4.98043e-15 -7.47652e-16)
(-5.03479e-15 1.34154e-29 1.11795e-30 4.63572 1.06493e-14 4.15271e-15 0.198831 -4.84968e-16 -1.84763e-16)
(0 0 -5.58974e-31 4.63572 -4.67578e-15 -3.67845e-17 0.198831 -5.06563e-15 -7.27294e-16)
(-5.13284e-15 -1.43327e-29 -2.38132e-30 4.53212 9.01591e-15 3.86301e-15 0.197216 -4.31947e-16 -1.72853e-16)
(1.36876e-14 3.08539e-29 3.85673e-30 4.53212 -3.0431e-15 -1.46278e-16 0.197216 -5.16114e-15 -7.09202e-16)
(0 -3.47562e-29 -3.25839e-30 4.43091 8.63668e-15 3.64569e-15 0.195618 -3.55396e-16 -1.64674e-16)