/*--------------------------------*- C++ -*----------------------------------*\
| =========                 |                                                 |
| \\      /  F ield         | OpenFOAM: The Open Source CFD Toolbox           |
|  \\    /   O peration     | Version:  2106                                  |
|   \\  /    A nd           | Website:  www.openfoam.com                      |
|    \\/     M anipulation  |                                                 |
\*---------------------------------------------------------------------------*/
FoamFile
{
    version     2.0;
    format      ascii;
    arch        "LSB;label=32;scalar=64";
    class       surfaceScalarField;
    location    "17000";
    object      phi;
}
// * * * * * * * * * * * * * * * * * * * * * * * * * * * * * * * * * * * * * //

dimensions      [0 3 -1 0 0 0 0];

oriented        oriented;

internalField   nonuniform List<scalar> 
5116
(
6.77928e-09
-8.78653e-18
-2.09097e-22
-4.20933e-22
-2.4804e-24
2.07316e-08
-8.78503e-18
-5.01791e-22
-1.40521e-21
-1.26795e-23
3.52905e-08
-8.78348e-18
-5.16571e-22
-2.40903e-21
-1.32514e-23
5.04765e-08
-8.78188e-18
-5.39052e-22
-3.45793e-21
-1.38548e-23
6.63109e-08
-8.78025e-18
-5.59827e-22
-4.53779e-21
-1.44926e-23
8.28154e-08
-8.77853e-18
-5.79086e-22
-5.69309e-21
-1.51675e-23
1.00013e-07
-8.77673e-18
-5.98123e-22
-6.86772e-21
-1.58811e-23
1.17926e-07
-8.77491e-18
-6.17428e-22
-8.06548e-21
-1.66364e-23
1.36579e-07
-8.77302e-18
-6.3714e-22
-9.33476e-21
-1.74359e-23
1.55996e-07
-8.77107e-18
-6.5735e-22
-1.06144e-20
-1.82819e-23
1.76203e-07
-8.76901e-18
-6.78136e-22
-1.19675e-20
-1.91783e-23
1.97226e-07
-8.76691e-18
-6.99549e-22
-1.33061e-20
-2.01269e-23
2.19093e-07
-8.76479e-18
-7.21622e-22
-1.47398e-20
-2.1132e-23
2.4183e-07
-8.76251e-18
-7.44379e-22
-1.62432e-20
-2.2196e-23
2.65467e-07
-8.76027e-18
-7.67846e-22
-1.77225e-20
-2.3322e-23
2.90033e-07
-8.75795e-18
-7.92041e-22
-1.92203e-20
-2.45144e-23
3.15558e-07
-8.75549e-18
-8.16988e-22
-2.08107e-20
-2.57768e-23
3.42075e-07
-8.75294e-18
-8.42708e-22
-2.25309e-20
-2.71132e-23
3.69615e-07
-8.75054e-18
-8.69227e-22
-2.41335e-20
-2.85279e-23
3.98212e-07
-8.74787e-18
-8.96561e-22
-2.58857e-20
-3.00269e-23
4.279e-07
-8.74509e-18
-9.24738e-22
-2.7764e-20
-3.16155e-23
4.58715e-07
-8.74216e-18
-9.53784e-22
-2.96746e-20
-3.32973e-23
4.90692e-07
-8.73947e-18
-9.83726e-22
-3.16231e-20
-3.50767e-23
5.2387e-07
-8.73641e-18
-1.01458e-21
-3.3575e-20
-3.69595e-23
5.58288e-07
-8.73325e-18
-1.04638e-21
-3.56578e-20
-3.8953e-23
5.93984e-07
-8.73e-18
-1.07916e-21
-3.7751e-20
-4.10648e-23
6.31001e-07
-8.7267e-18
-1.11294e-21
-4.00923e-20
-4.33024e-23
6.69381e-07
-8.72329e-18
-1.14775e-21
-4.21994e-20
-4.56701e-23
7.09167e-07
-8.7198e-18
-1.18361e-21
-4.44307e-20
-4.81799e-23
7.50404e-07
-8.71622e-18
-1.22056e-21
-4.67952e-20
-5.08388e-23
7.93138e-07
-8.71227e-18
-1.25863e-21
-4.93573e-20
-5.36503e-23
8.37418e-07
-8.7082e-18
-1.29787e-21
-5.21446e-20
-5.66245e-23
8.83292e-07
-8.70434e-18
-1.33829e-21
-5.46465e-20
-5.97647e-23
9.30811e-07
-8.70035e-18
-1.37994e-21
-5.72443e-20
-6.30815e-23
9.80026e-07
-8.69627e-18
-1.42284e-21
-5.98995e-20
-6.65814e-23
1.03099e-06
-8.69197e-18
-1.46703e-21
-6.28458e-20
-7.02851e-23
1.08376e-06
-8.68744e-18
-1.51254e-21
-6.5813e-20
-7.41984e-23
1.1384e-06
-8.68301e-18
-1.55941e-21
-6.87028e-20
-7.83376e-23
1.19495e-06
-8.67821e-18
-1.60766e-21
-7.20889e-20
-8.27091e-23
1.25349e-06
-8.67324e-18
-1.65735e-21
-7.51759e-20
-8.7316e-23
1.31407e-06
-8.66848e-18
-1.7085e-21
-7.82973e-20
-9.21912e-23
1.37676e-06
-8.66334e-18
-1.76115e-21
-8.16457e-20
-9.73415e-23
1.44161e-06
-8.65782e-18
-1.81534e-21
-8.50421e-20
-1.02779e-22
1.50871e-06
-8.65226e-18
-1.87111e-21
-8.87046e-20
-1.08534e-22
1.57812e-06
-8.64644e-18
-1.9285e-21
-9.24488e-20
-1.14621e-22
1.64991e-06
-8.64058e-18
-1.98754e-21
-9.62306e-20
-1.2105e-22
1.72415e-06
-8.63479e-18
-2.04828e-21
-1.00315e-19
-1.27829e-22
1.80093e-06
-8.62863e-18
-2.11074e-21
-1.04149e-19
-1.34976e-22
1.88031e-06
-8.62241e-18
-2.17496e-21
-1.08265e-19
-1.42496e-22
1.96238e-06
-8.61601e-18
-2.241e-21
-1.12672e-19
-1.50403e-22
2.04721e-06
-8.60884e-18
-2.30889e-21
-1.16991e-19
-1.58715e-22
2.1349e-06
-8.60102e-18
-2.37866e-21
-1.21895e-19
-1.67493e-22
2.22553e-06
-8.5938e-18
-2.45039e-21
-1.2683e-19
-1.7673e-22
2.31919e-06
-8.58658e-18
-2.52408e-21
-1.32066e-19
-1.86445e-22
2.41597e-06
-8.57861e-18
-2.59977e-21
-1.37027e-19
-1.96658e-22
2.51596e-06
-8.57023e-18
-2.67754e-21
-1.42597e-19
-2.07403e-22
2.61926e-06
-8.56298e-18
-2.75742e-21
-1.47441e-19
-2.18676e-22
2.72596e-06
-8.55492e-18
-2.83939e-21
-1.5274e-19
-2.30544e-22
2.83617e-06
-8.5469e-18
-2.92347e-21
-1.58118e-19
-2.43031e-22
2.94999e-06
-8.53814e-18
-3.00971e-21
-1.6378e-19
-2.5613e-22
3.06753e-06
-8.52861e-18
-3.09812e-21
-1.69527e-19
-2.69853e-22
3.18888e-06
-8.51946e-18
-3.18877e-21
-1.75142e-19
-2.84204e-22
3.31417e-06
-8.50947e-18
-3.28163e-21
-1.81764e-19
-2.99268e-22
3.4435e-06
-8.49917e-18
-3.37676e-21
-1.87664e-19
-3.14988e-22
3.57699e-06
-8.48951e-18
-3.47414e-21
-1.93333e-19
-3.31437e-22
3.71474e-06
-8.47967e-18
-3.57375e-21
-1.99507e-19
-3.48752e-22
3.85689e-06
-8.46832e-18
-3.67555e-21
-2.07483e-19
-3.66831e-22
4.00355e-06
-8.45732e-18
-3.77959e-21
-2.14807e-19
-3.85693e-22
4.15484e-06
-8.44711e-18
-3.8859e-21
-2.20778e-19
-4.05344e-22
4.31089e-06
-8.43506e-18
-3.99435e-21
-2.27661e-19
-4.25837e-22
4.47182e-06
-8.42382e-18
-4.10502e-21
-2.34684e-19
-4.47215e-22
4.63775e-06
-8.412e-18
-4.21771e-21
-2.41977e-19
-4.69536e-22
4.80882e-06
-8.39987e-18
-4.33243e-21
-2.50432e-19
-4.92835e-22
4.98514e-06
-8.38659e-18
-4.44903e-21
-2.57638e-19
-5.17e-22
5.16686e-06
-8.37309e-18
-4.56742e-21
-2.66373e-19
-5.42197e-22
5.3541e-06
-8.35923e-18
-4.68758e-21
-2.74175e-19
-5.68216e-22
5.54698e-06
-8.34643e-18
-4.80942e-21
-2.82767e-19
-5.95216e-22
5.74564e-06
-8.33307e-18
-4.93273e-21
-2.91735e-19
-6.2315e-22
5.95021e-06
-8.31851e-18
-5.05741e-21
-3.0106e-19
-6.5203e-22
6.16081e-06
-8.30307e-18
-5.1833e-21
-3.10634e-19
-6.8176e-22
6.37757e-06
-8.28806e-18
-5.31038e-21
-3.18744e-19
-7.12287e-22
6.60062e-06
-8.27465e-18
-5.43834e-21
-3.27845e-19
-7.43814e-22
6.83007e-06
-8.25862e-18
-5.56674e-21
-3.36974e-19
-7.76371e-22
7.06606e-06
-8.24188e-18
-5.69576e-21
-3.46737e-19
-8.09652e-22
7.3087e-06
-8.22478e-18
-5.82504e-21
-3.57509e-19
-8.43607e-22
7.5581e-06
-8.20849e-18
-5.95422e-21
-3.67034e-19
-8.78513e-22
7.81439e-06
-8.1922e-18
-6.08305e-21
-3.78719e-19
-9.14339e-22
8.07766e-06
-8.17375e-18
-6.21125e-21
-3.91313e-19
-9.50926e-22
8.34804e-06
-8.15362e-18
-6.33896e-21
-4.04066e-19
-9.87978e-22
8.62561e-06
-8.13424e-18
-6.46592e-21
-4.14223e-19
-1.02548e-21
8.91049e-06
-8.11437e-18
-6.59188e-21
-4.26732e-19
-1.06336e-21
9.20277e-06
-8.09695e-18
-6.71641e-21
-4.34909e-19
-1.10165e-21
9.50254e-06
-8.08005e-18
-6.83886e-21
-4.45472e-19
-1.14086e-21
9.80989e-06
-8.06281e-18
-6.95877e-21
-4.53874e-19
-1.18042e-21
1.01249e-05
-8.04386e-18
-7.07601e-21
-4.6339e-19
-1.22105e-21
1.04477e-05
-8.02597e-18
-7.19051e-21
-4.74054e-19
-1.26291e-21
1.07782e-05
-8.00403e-18
-7.30158e-21
-4.85723e-19
-1.30527e-21
1.11167e-05
-7.98027e-18
-7.40966e-21
-4.9698e-19
-1.34732e-21
1.14632e-05
-7.96176e-18
-7.51444e-21
-5.10153e-19
-1.38923e-21
1.18177e-05
-7.93998e-18
-7.61507e-21
-5.20838e-19
-1.43094e-21
1.21803e-05
-7.91607e-18
-7.71202e-21
-5.34684e-19
-1.47252e-21
1.2551e-05
-7.89149e-18
-7.80489e-21
-5.47203e-19
-1.51285e-21
1.293e-05
-7.86952e-18
-7.89414e-21
-5.60593e-19
-1.55221e-21
1.33173e-05
-7.84576e-18
-7.97907e-21
-5.74818e-19
-1.59004e-21
1.3713e-05
-7.82338e-18
-8.05962e-21
-5.86479e-19
-1.62649e-21
1.4117e-05
-7.80102e-18
-8.13605e-21
-5.98131e-19
-1.66214e-21
1.45296e-05
-7.7781e-18
-8.2074e-21
-6.09365e-19
-1.69658e-21
1.49506e-05
-7.75636e-18
-8.27412e-21
-6.23094e-19
-1.73067e-21
1.53803e-05
-7.72935e-18
-8.33627e-21
-6.37989e-19
-1.76315e-21
1.58187e-05
-7.70191e-18
-8.3946e-21
-6.50389e-19
-1.79395e-21
1.62657e-05
-7.67597e-18
-8.44944e-21
-6.63152e-19
-1.82363e-21
1.67216e-05
-7.64946e-18
-8.50037e-21
-6.75541e-19
-1.85049e-21
1.71864e-05
-7.62717e-18
-8.54668e-21
-6.90284e-19
-1.87526e-21
1.766e-05
-7.60247e-18
-8.58771e-21
-7.05495e-19
-1.89854e-21
1.81427e-05
-7.57332e-18
-8.62396e-21
-7.18724e-19
-1.91948e-21
1.86345e-05
-7.54808e-18
-8.65591e-21
-7.34475e-19
-1.93951e-21
1.91355e-05
-7.51549e-18
-8.68209e-21
-7.49278e-19
-1.95892e-21
1.96458e-05
-7.48342e-18
-8.70484e-21
-7.56395e-19
-1.97848e-21
2.01654e-05
-7.46341e-18
-8.72362e-21
-7.65071e-19
-1.99944e-21
2.06945e-05
-7.4281e-18
-8.73523e-21
-7.815e-19
-2.02032e-21
2.12331e-05
-7.40646e-18
-8.74449e-21
-7.92124e-19
-2.03973e-21
2.17814e-05
-7.38586e-18
-8.74908e-21
-7.98036e-19
-2.05741e-21
2.23394e-05
-7.36636e-18
-8.74929e-21
-8.08575e-19
-2.07541e-21
2.29073e-05
-7.33754e-18
-8.74466e-21
-8.22426e-19
-2.09085e-21
2.34853e-05
-7.31823e-18
-8.73933e-21
-8.3263e-19
-2.1036e-21
2.40733e-05
-7.29325e-18
-8.73101e-21
-8.44957e-19
-2.11111e-21
2.46716e-05
-7.27065e-18
-8.71937e-21
-8.58071e-19
-2.11518e-21
2.52803e-05
-7.24778e-18
-8.70484e-21
-8.70063e-19
-2.11693e-21
2.58996e-05
-7.21411e-18
-8.6875e-21
-8.84862e-19
-2.11364e-21
2.65294e-05
-7.18539e-18
-8.67145e-21
-8.97752e-19
-2.10626e-21
2.71701e-05
-7.16157e-18
-8.65375e-21
-9.1289e-19
-2.09457e-21
2.78218e-05
-7.14002e-18
-8.63332e-21
-9.24721e-19
-2.07952e-21
2.84845e-05
-7.11385e-18
-8.61012e-21
-9.33702e-19
-2.06261e-21
2.91586e-05
-7.08752e-18
-8.58566e-21
-9.47875e-19
-2.04627e-21
2.98441e-05
-7.055e-18
-8.56229e-21
-9.67713e-19
-2.02726e-21
3.05412e-05
-7.04404e-18
-8.54247e-21
-9.69578e-19
-2.00348e-21
3.12501e-05
-7.02376e-18
-8.51915e-21
-9.77088e-19
-1.98195e-21
3.19709e-05
-7.00792e-18
-8.49703e-21
-9.82806e-19
-1.95733e-21
3.27039e-05
-6.9866e-18
-8.47005e-21
-9.89208e-19
-1.93156e-21
3.34493e-05
-6.94998e-18
-8.43963e-21
-9.99618e-19
-1.90431e-21
3.42072e-05
-6.93031e-18
-8.41281e-21
-1.01218e-18
-1.87684e-21
3.49778e-05
-6.90654e-18
-8.38414e-21
-1.02034e-18
-1.84589e-21
3.57613e-05
-6.87836e-18
-8.35472e-21
-1.02999e-18
-1.8143e-21
3.6558e-05
-6.85605e-18
-8.32433e-21
-1.04301e-18
-1.77999e-21
3.7368e-05
-6.8279e-18
-8.29131e-21
-1.05356e-18
-1.7381e-21
3.81916e-05
-6.80586e-18
-8.25788e-21
-1.06414e-18
-1.69552e-21
3.9029e-05
-6.77376e-18
-8.22537e-21
-1.08009e-18
-1.65072e-21
3.98804e-05
-6.74182e-18
-8.19287e-21
-1.09638e-18
-1.60712e-21
4.0746e-05
-6.72324e-18
-8.16708e-21
-1.10754e-18
-1.55878e-21
4.16261e-05
-6.69558e-18
-8.12869e-21
-1.1216e-18
-1.51498e-21
4.2521e-05
-6.66131e-18
-8.08631e-21
-1.13863e-18
-1.47313e-21
4.34307e-05
-6.63148e-18
-8.04419e-21
-1.15804e-18
-1.42326e-21
4.43557e-05
-6.60635e-18
-7.998e-21
-1.1741e-18
-1.37387e-21
4.52961e-05
-6.56152e-18
-7.95037e-21
-1.19396e-18
-1.32366e-21
4.62523e-05
-6.53381e-18
-7.91441e-21
-1.2111e-18
-1.26245e-21
4.72244e-05
-6.50955e-18
-7.88481e-21
-1.22987e-18
-1.19084e-21
4.82128e-05
-6.50508e-18
-7.86794e-21
-1.23727e-18
-1.11103e-21
4.92176e-05
-6.48847e-18
-7.83877e-21
-1.24554e-18
-1.02491e-21
5.02393e-05
-6.46858e-18
-7.81277e-21
-1.25306e-18
-9.36818e-22
5.1278e-05
-6.43075e-18
-7.79546e-21
-1.27668e-18
-8.51546e-22
5.23341e-05
-6.40374e-18
-7.79242e-21
-1.29204e-18
-7.48586e-22
5.34078e-05
-6.39306e-18
-7.80455e-21
-1.29997e-18
-6.31636e-22
5.44994e-05
-6.38198e-18
-7.81828e-21
-1.31112e-18
-5.06639e-22
5.56093e-05
-6.36061e-18
-7.82282e-21
-1.32843e-18
-3.92118e-22
5.67378e-05
-6.34289e-18
-7.8442e-21
-1.34055e-18
-2.77153e-22
5.78851e-05
-6.31939e-18
-7.86364e-21
-1.35567e-18
-1.6544e-22
5.90515e-05
-6.29192e-18
-7.88411e-21
-1.37365e-18
-5.76903e-23
6.02375e-05
-6.27643e-18
-7.91731e-21
-1.38832e-18
5.09503e-23
6.14433e-05
-6.25766e-18
-7.93364e-21
-1.4003e-18
1.63757e-22
6.26692e-05
-6.24287e-18
-7.96038e-21
-1.42353e-18
2.78402e-22
6.39157e-05
-6.24031e-18
-7.98353e-21
-1.42777e-18
4.01517e-22
6.5183e-05
-6.21908e-18
-7.98113e-21
-1.44434e-18
5.16826e-22
6.64714e-05
-6.19749e-18
-7.98879e-21
-1.45758e-18
6.51607e-22
6.77814e-05
-6.17058e-18
-7.9978e-21
-1.47608e-18
7.87854e-22
6.91133e-05
-6.14972e-18
-8.0105e-21
-1.5001e-18
9.244e-22
7.04675e-05
-6.12765e-18
-8.02596e-21
-1.52089e-18
1.07948e-21
7.18443e-05
-6.12552e-18
-8.0377e-21
-1.54096e-18
1.24793e-21
7.32441e-05
-6.10136e-18
-8.01785e-21
-1.54858e-18
1.39771e-21
7.46674e-05
-6.06862e-18
-7.99512e-21
-1.56982e-18
1.54318e-21
7.61144e-05
-6.04789e-18
-8.00359e-21
-1.58417e-18
1.71034e-21
7.75856e-05
-6.01479e-18
-8.02405e-21
-1.61047e-18
1.85668e-21
7.90814e-05
-5.9963e-18
-8.03502e-21
-1.62811e-18
1.96632e-21
8.06023e-05
-5.95642e-18
-8.03185e-21
-1.65457e-18
2.05182e-21
8.21485e-05
-5.92615e-18
-8.06065e-21
-1.67272e-18
2.17406e-21
8.37206e-05
-5.89955e-18
-8.07886e-21
-1.69727e-18
2.27251e-21
8.5319e-05
-5.86926e-18
-8.08375e-21
-1.71113e-18
2.33145e-21
8.69441e-05
-5.83359e-18
-8.10866e-21
-1.73492e-18
2.33807e-21
8.85964e-05
-5.80107e-18
-8.16315e-21
-1.76749e-18
2.30303e-21
9.02763e-05
-5.76773e-18
-8.20101e-21
-1.78853e-18
2.28989e-21
9.19842e-05
-5.7322e-18
-8.22641e-21
-1.82885e-18
2.25284e-21
9.37207e-05
-5.70117e-18
-8.26851e-21
-1.84038e-18
2.23897e-21
9.54862e-05
-5.68089e-18
-8.32063e-21
-1.86609e-18
2.15185e-21
9.72812e-05
-5.64494e-18
-8.36347e-21
-1.8874e-18
2.06306e-21
9.91062e-05
-5.60644e-18
-8.41712e-21
-1.9305e-18
1.95717e-21
0.000100962
-5.59025e-18
-8.52251e-21
-1.96135e-18
1.88447e-21
0.000102848
-5.54828e-18
-8.63413e-21
-1.99999e-18
1.79096e-21
0.000104766
-5.51399e-18
-8.81489e-21
-2.03108e-18
1.73329e-21
0.000106716
-5.49379e-18
-8.96826e-21
-2.06957e-18
1.69164e-21
0.000108698
-5.46011e-18
-9.08607e-21
-2.10103e-18
1.58858e-21
0.000110714
-5.41983e-18
-9.25807e-21
-2.13564e-18
1.47884e-21
0.000112763
-5.35709e-18
-9.43527e-21
-2.16339e-18
1.33629e-21
0.000114846
-5.33155e-18
-9.58896e-21
-2.18761e-18
1.18787e-21
0.000116964
-5.30074e-18
-9.71005e-21
-2.2043e-18
1.07132e-21
0.000119118
-5.27223e-18
-9.80425e-21
-2.22701e-18
9.57219e-22
0.000121307
-5.25287e-18
-9.89829e-21
-2.25837e-18
8.69859e-22
0.000123533
-5.19634e-18
-9.91676e-21
-2.30587e-18
7.52225e-22
0.000125796
-5.1804e-18
-9.99162e-21
-2.30978e-18
6.48331e-22
0.000128096
-5.12384e-18
-1.00387e-20
-2.31673e-18
4.693e-22
0.000130435
-5.07358e-18
-1.01749e-20
-2.34868e-18
2.1597e-22
0.000132813
-5.03984e-18
-1.03511e-20
-2.38281e-18
2.96763e-24
0.00013523
-5.01074e-18
-1.05327e-20
-2.404e-18
-2.06434e-22
0.000137687
-4.95825e-18
-1.06306e-20
-2.41783e-18
-5.03583e-22
0.000140186
-4.90965e-18
-1.08332e-20
-2.44417e-18
-8.68401e-22
0.000142725
-4.87484e-18
-1.11071e-20
-2.47905e-18
-1.18252e-21
0.000145308
-4.81172e-18
-1.12191e-20
-2.50082e-18
-1.43258e-21
0.000147932
-4.76253e-18
-1.13802e-20
-2.53636e-18
-1.62676e-21
0.000150601
-4.71322e-18
-1.15142e-20
-2.5601e-18
-1.78476e-21
0.000153314
-4.67096e-18
-1.16197e-20
-2.58169e-18
-2.22719e-21
0.000156071
-4.61547e-18
-1.19257e-20
-2.60328e-18
-2.73973e-21
0.000158875
-4.57124e-18
-1.22606e-20
-2.62665e-18
-3.01777e-21
0.000161725
-4.52695e-18
-1.25783e-20
-2.64667e-18
-3.22406e-21
0.000164622
-4.49639e-18
-1.30285e-20
-2.67542e-18
-3.54042e-21
0.000167567
-4.47803e-18
-1.34625e-20
-2.69542e-18
-3.72945e-21
0.000170561
-4.40781e-18
-1.36577e-20
-2.71497e-18
-3.80705e-21
0.000173604
-4.38506e-18
-1.40348e-20
-2.71064e-18
-3.89425e-21
0.000176698
-4.35984e-18
-1.40747e-20
-2.70739e-18
-4.09493e-21
0.000179843
-4.30339e-18
-1.39006e-20
-2.72548e-18
-4.09764e-21
0.00018304
-4.26434e-18
-1.38408e-20
-2.7361e-18
-4.07801e-21
0.000186289
-4.22782e-18
-1.38062e-20
-2.73237e-18
-4.24788e-21
0.000189592
-4.18529e-18
-1.41516e-20
-2.74031e-18
-4.3922e-21
0.00019295
-4.1467e-18
-1.45179e-20
-2.75934e-18
-4.40324e-21
0.000196363
-4.1063e-18
-1.488e-20
-2.75778e-18
-4.35389e-21
0.000199832
-4.06226e-18
-1.52659e-20
-2.71872e-18
-4.39852e-21
0.000203358
-4.03591e-18
-1.59341e-20
-2.70691e-18
-4.82619e-21
0.000206942
-3.99474e-18
-1.66097e-20
-2.72176e-18
-5.57608e-21
0.000210586
-3.9409e-18
-1.72205e-20
-2.74022e-18
-6.42681e-21
0.000214289
-3.91224e-18
-1.79099e-20
-2.77033e-18
-7.07114e-21
0.000218052
-3.87774e-18
-1.83331e-20
-2.76968e-18
-7.81761e-21
0.000221878
-3.84594e-18
-1.86859e-20
-2.76821e-18
-8.80086e-21
0.000225766
-3.7664e-18
-1.86632e-20
-2.79336e-18
-9.77385e-21
0.000229718
-3.70841e-18
-1.87479e-20
-2.80031e-18
-1.06045e-20
0.000233734
-3.69768e-18
-1.92492e-20
-2.79841e-18
-1.14251e-20
0.000237816
-3.67425e-18
-1.94203e-20
-2.79645e-18
-1.21799e-20
0.000241965
-3.63375e-18
-1.96791e-20
-2.77512e-18
-1.33169e-20
0.000246182
-3.58124e-18
-2.0152e-20
-2.81481e-18
-1.42295e-20
0.000250467
-3.50806e-18
-2.06707e-20
-2.86351e-18
-1.45457e-20
0.000254822
-3.45684e-18
-2.13086e-20
-2.83965e-18
-1.482e-20
0.000259248
-3.45158e-18
-2.23812e-20
-2.78061e-18
-1.5217e-20
0.000263746
-3.36338e-18
-2.27931e-20
-2.82413e-18
-1.59757e-20
0.000268317
-3.33775e-18
-2.33275e-20
-2.73842e-18
-1.51632e-20
0.000272962
-3.33282e-18
-2.30453e-20
-2.76549e-18
-1.48822e-20
0.000277682
-3.25098e-18
-2.2823e-20
-2.84057e-18
-1.44102e-20
0.000282479
-3.22499e-18
-2.3391e-20
-2.83081e-18
-1.35818e-20
0.000287353
-3.18583e-18
-2.4127e-20
-2.89049e-18
-1.29198e-20
0.000292306
-3.17195e-18
-2.48913e-20
-2.81142e-18
-1.26675e-20
0.000297339
-3.13177e-18
-2.36525e-20
-2.85103e-18
-1.34043e-20
0.000302453
-3.1071e-18
-2.30176e-20
-2.87942e-18
-1.4262e-20
0.00030765
-3.0361e-18
-2.2226e-20
-2.90111e-18
-1.53918e-20
0.000312929
-3.00845e-18
-2.12655e-20
-2.81582e-18
-1.59664e-20
0.000318294
-2.96043e-18
-2.02907e-20
-2.85879e-18
-1.81686e-20
0.000323744
-2.94285e-18
-2.05021e-20
-2.91833e-18
-1.88305e-20
0.000329282
-3.0103e-18
-2.06394e-20
-2.79489e-18
-1.81816e-20
0.000334908
-2.98213e-18
-2.0111e-20
-2.83214e-18
-1.8951e-20
0.000340623
-3.01804e-18
-1.91563e-20
-2.83078e-18
-1.94424e-20
0.00034643
-2.99941e-18
-1.9144e-20
-2.82323e-18
-1.91369e-20
0.000352328
-2.91155e-18
-1.89291e-20
-2.71522e-18
-1.89923e-20
0.000358321
-2.87249e-18
-1.97644e-20
-2.73998e-18
-2.10922e-20
0.000364408
-2.85371e-18
-2.07173e-20
-2.72814e-18
-2.05961e-20
0.000370591
-2.77979e-18
-2.1263e-20
-2.729e-18
-1.98991e-20
0.000376871
-2.74782e-18
-2.24e-20
-2.71077e-18
-1.89074e-20
0.000383251
-2.7669e-18
-2.32091e-20
-2.68774e-18
-1.85753e-20
0.00038973
-2.74392e-18
-2.26001e-20
-2.68567e-18
-1.9247e-20
0.000396311
-2.74052e-18
-2.27027e-20
-2.72158e-18
-1.95774e-20
0.000402994
-2.70883e-18
-2.24937e-20
-2.7118e-18
-2.00411e-20
0.000409781
-2.73191e-18
-2.21521e-20
-2.64489e-18
-2.20689e-20
0.000416674
-2.66936e-18
-2.03877e-20
-2.63298e-18
-2.53743e-20
0.000423674
-2.65179e-18
-1.97647e-20
-2.61271e-18
-2.78459e-20
0.000430781
-2.64013e-18
-1.9803e-20
-2.60263e-18
-2.73719e-20
0.000437998
-2.62361e-18
-1.93398e-20
-2.56213e-18
-2.64085e-20
0.000445325
-2.58684e-18
-1.81866e-20
-2.6773e-18
-2.45471e-20
0.000452765
-2.55247e-18
-1.81773e-20
-2.6447e-18
-1.81666e-20
0.000460317
-2.57885e-18
-1.97805e-20
-2.63338e-18
-1.37374e-20
0.000467985
-2.63686e-18
-2.10844e-20
-2.54571e-18
-1.24234e-20
0.000475768
-2.614e-18
-2.00331e-20
-2.52745e-18
-1.22023e-20
0.000483667
-2.5845e-18
-1.86084e-20
-2.53831e-18
-8.73829e-21
0.000491686
-2.51693e-18
-1.63045e-20
-2.4883e-18
-6.84362e-21
0.000499823
-2.44407e-18
-1.65586e-20
-2.41688e-18
-7.81154e-21
0.000508081
-2.36529e-18
-1.99522e-20
-2.39205e-18
-1.13085e-20
0.000516461
-2.2803e-18
-1.84403e-20
-2.37438e-18
-1.07408e-20
0.000524964
-2.37609e-18
-1.75087e-20
-2.29863e-18
-9.18962e-21
0.000533591
-2.169e-18
-1.83794e-20
-2.22963e-18
-1.03528e-20
0.000542342
-2.20896e-18
-2.12711e-20
-2.17194e-18
-1.58234e-20
0.000551219
-2.0671e-18
-2.0125e-20
-2.07911e-18
-2.41229e-20
0.000560223
-2.0033e-18
-2.10244e-20
-2.02635e-18
-3.00279e-20
0.000569355
-1.90037e-18
-2.1618e-20
-1.9734e-18
-3.24039e-20
0.000578614
-1.81057e-18
-2.67937e-20
-1.91368e-18
-3.39828e-20
0.000588002
-1.6427e-18
-3.07067e-20
-1.81219e-18
-3.45066e-20
0.00059752
-1.71594e-18
-3.33885e-20
-1.79921e-18
-3.69985e-20
0.000607168
-1.64581e-18
-2.75083e-20
-1.82019e-18
-3.33987e-20
0.000616945
-1.74492e-18
-3.09248e-20
-1.76009e-18
-3.11824e-20
0.000626853
-1.71499e-18
-3.43639e-20
-1.7342e-18
-2.86768e-20
0.00063689
-1.70026e-18
-2.68161e-20
-1.67222e-18
-1.95866e-20
0.000647058
-1.68866e-18
-2.11124e-20
-1.68039e-18
-1.27997e-20
0.000657356
-1.71028e-18
-2.04153e-20
-1.57704e-18
-1.17586e-20
0.000667783
-1.96277e-18
-2.28228e-20
-1.64263e-18
-1.92595e-20
0.000678338
-1.64065e-18
-1.00577e-20
-1.71071e-18
-2.65839e-20
0.000689021
-1.62802e-18
-1.44668e-20
-1.65922e-18
-2.05562e-20
0.00069983
-1.57118e-18
-1.75789e-20
-1.5259e-18
-1.79073e-20
0.000710763
-1.30718e-18
-2.03413e-20
-1.42548e-18
-1.52962e-20
0.00072182
-1.29867e-18
-2.10012e-20
-1.3898e-18
-1.37796e-20
0.000732997
-1.16455e-18
-1.83059e-20
-1.34751e-18
-1.51043e-20
0.000744293
-1.31818e-18
-2.98665e-20
-1.30702e-18
-1.08469e-20
0.000755705
-1.27063e-18
-1.90803e-20
-1.3197e-18
-7.39616e-21
0.000767228
-1.10882e-18
-1.11192e-20
-1.08587e-18
-6.16237e-21
0.000778861
-1.11463e-18
-1.28401e-20
-1.16933e-18
-1.36981e-20
0.000790599
-1.10772e-18
-9.1413e-21
-9.74102e-19
-2.06543e-20
0.000802438
-1.11937e-18
-2.30587e-21
-9.53176e-19
-1.96289e-20
0.000814373
-8.28614e-19
6.51218e-21
-9.0164e-19
-1.83473e-20
0.0008264
-8.16481e-19
6.60481e-22
-8.81619e-19
-2.4011e-20
0.000838512
-4.9584e-21
-8.45402e-19
-2.99246e-20
-7.97014e-19
6.77928e-09
-1.99057e-22
-1.15335e-23
2.07316e-08
-6.80316e-22
-4.1695e-23
3.52905e-08
-1.18399e-21
-7.07001e-23
5.04765e-08
-1.71407e-21
-1.03076e-22
6.63109e-08
-2.23892e-21
-1.44077e-22
8.28154e-08
-2.81272e-21
-1.55593e-22
1.00013e-07
-3.40235e-21
-1.78681e-22
1.17926e-07
-4.01561e-21
-1.87296e-22
1.36579e-07
-4.62193e-21
-2.13208e-22
1.55996e-07
-5.22922e-21
-2.69827e-22
1.76203e-07
-5.92035e-21
-2.98009e-22
1.97226e-07
-6.60081e-21
-3.75291e-22
2.19093e-07
-7.28001e-21
-4.18738e-22
2.4183e-07
-8.06491e-21
-4.6381e-22
2.65467e-07
-8.82546e-21
-5.03507e-22
2.90033e-07
-9.60472e-21
-4.6491e-22
3.15558e-07
-1.04124e-20
-4.33818e-22
3.42075e-07
-1.12569e-20
-4.73411e-22
3.69615e-07
-1.20099e-20
-4.21913e-22
3.98212e-07
-1.28999e-20
-4.46266e-22
4.279e-07
-1.37811e-20
-4.91634e-22
4.58715e-07
-1.47343e-20
-5.33177e-22
4.90692e-07
-1.54778e-20
-6.46314e-22
5.2387e-07
-1.65532e-20
-7.83053e-22
5.58288e-07
-1.74972e-20
-9.62483e-22
5.93984e-07
-1.844e-20
-1.12806e-21
6.31001e-07
-1.94923e-20
-1.33858e-21
6.69381e-07
-2.07015e-20
-1.48779e-21
7.09167e-07
-2.17545e-20
-1.7034e-21
7.50404e-07
-2.30459e-20
-1.73738e-21
7.93138e-07
-2.44195e-20
-1.85546e-21
8.37418e-07
-2.59447e-20
-1.87908e-21
8.83292e-07
-2.73428e-20
-1.8926e-21
9.30811e-07
-2.8813e-20
-1.83861e-21
9.80026e-07
-3.01156e-20
-2.06299e-21
1.03099e-06
-3.13605e-20
-2.19635e-21
1.08376e-06
-3.25725e-20
-2.64232e-21
1.1384e-06
-3.40017e-20
-2.90187e-21
1.19495e-06
-3.53601e-20
-3.09375e-21
1.25349e-06
-3.66453e-20
-3.47879e-21
1.31407e-06
-3.80132e-20
-3.72895e-21
1.37676e-06
-3.96558e-20
-4.10814e-21
1.44161e-06
-4.1312e-20
-4.56122e-21
1.50871e-06
-4.29147e-20
-5.13997e-21
1.57812e-06
-4.43981e-20
-5.67089e-21
1.64991e-06
-4.60756e-20
-5.7828e-21
1.72415e-06
-4.79107e-20
-6.21982e-21
1.80093e-06
-4.98914e-20
-5.83694e-21
1.88031e-06
-5.22219e-20
-5.44925e-21
1.96238e-06
-5.45757e-20
-5.26451e-21
2.04721e-06
-5.61805e-20
-6.14642e-21
2.1349e-06
-5.83553e-20
-6.79012e-21
2.22553e-06
-6.03668e-20
-7.454e-21
2.31919e-06
-6.24053e-20
-8.0552e-21
2.41597e-06
-6.48166e-20
-8.6462e-21
2.51596e-06
-6.68519e-20
-9.46935e-21
2.61926e-06
-6.92189e-20
-1.02707e-20
2.72596e-06
-7.08236e-20
-1.1552e-20
2.83617e-06
-7.31699e-20
-1.2427e-20
2.94999e-06
-7.5359e-20
-1.32634e-20
3.06753e-06
-7.79263e-20
-1.37324e-20
3.18888e-06
-8.04537e-20
-1.46975e-20
3.31417e-06
-8.31522e-20
-1.51188e-20
3.4435e-06
-8.61588e-20
-1.60076e-20
3.57699e-06
-8.93164e-20
-1.82494e-20
3.71474e-06
-9.23148e-20
-1.85091e-20
3.85689e-06
-9.53536e-20
-2.01211e-20
4.00355e-06
-9.94289e-20
-2.11207e-20
4.15484e-06
-1.03046e-19
-2.15992e-20
4.31089e-06
-1.06541e-19
-2.26345e-20
4.47182e-06
-1.09067e-19
-2.36019e-20
4.63775e-06
-1.12938e-19
-2.49145e-20
4.80882e-06
-1.16433e-19
-2.56659e-20
4.98514e-06
-1.19315e-19
-2.75119e-20
5.16686e-06
-1.22928e-19
-2.79708e-20
5.3541e-06
-1.26458e-19
-2.98338e-20
5.54698e-06
-1.30056e-19
-3.1741e-20
5.74564e-06
-1.34036e-19
-3.41369e-20
5.95021e-06
-1.37329e-19
-3.57821e-20
6.16081e-06
-1.41721e-19
-3.73648e-20
6.37757e-06
-1.46048e-19
-3.93255e-20
6.60062e-06
-1.50052e-19
-4.23904e-20
6.83007e-06
-1.55522e-19
-4.33843e-20
7.06606e-06
-1.59195e-19
-4.51149e-20
7.3087e-06
-1.62174e-19
-4.99238e-20
7.5581e-06
-1.66143e-19
-5.21515e-20
7.81439e-06
-1.7043e-19
-5.47103e-20
8.07766e-06
-1.77386e-19
-5.6267e-20
8.34804e-06
-1.82598e-19
-5.99313e-20
8.62561e-06
-1.89123e-19
-6.05486e-20
8.91049e-06
-1.94865e-19
-6.31725e-20
9.20277e-06
-1.99839e-19
-6.69984e-20
9.50254e-06
-2.04646e-19
-6.80354e-20
9.80989e-06
-2.10851e-19
-7.08572e-20
1.01249e-05
-2.16549e-19
-7.6704e-20
1.04477e-05
-2.20922e-19
-8.12373e-20
1.07782e-05
-2.2765e-19
-8.2738e-20
1.11167e-05
-2.32362e-19
-8.49471e-20
1.14632e-05
-2.36877e-19
-8.7932e-20
1.18177e-05
-2.42657e-19
-9.11866e-20
1.21803e-05
-2.45457e-19
-9.31564e-20
1.2551e-05
-2.50695e-19
-9.67626e-20
1.293e-05
-2.5601e-19
-9.89686e-20
1.33173e-05
-2.604e-19
-1.01782e-19
1.3713e-05
-2.6798e-19
-1.0516e-19
1.4117e-05
-2.72023e-19
-1.06957e-19
1.45296e-05
-2.78912e-19
-1.11517e-19
1.49506e-05
-2.85882e-19
-1.14191e-19
1.53803e-05
-2.90918e-19
-1.20612e-19
1.58187e-05
-2.98341e-19
-1.27245e-19
1.62657e-05
-3.06093e-19
-1.27482e-19
1.67216e-05
-3.0924e-19
-1.30213e-19
1.71864e-05
-3.13858e-19
-1.35815e-19
1.766e-05
-3.19336e-19
-1.37589e-19
1.81427e-05
-3.23734e-19
-1.41569e-19
1.86345e-05
-3.26807e-19
-1.4672e-19
1.91355e-05
-3.3295e-19
-1.53681e-19
1.96458e-05
-3.38591e-19
-1.6076e-19
2.01654e-05
-3.44482e-19
-1.6436e-19
2.06945e-05
-3.50003e-19
-1.70979e-19
2.12331e-05
-3.56201e-19
-1.75574e-19
2.17814e-05
-3.62791e-19
-1.83415e-19
2.23394e-05
-3.67273e-19
-1.83887e-19
2.29073e-05
-3.74871e-19
-1.91011e-19
2.34853e-05
-3.8147e-19
-1.89028e-19
2.40733e-05
-3.81504e-19
-1.94332e-19
2.46716e-05
-3.87685e-19
-2.02255e-19
2.52803e-05
-3.94611e-19
-2.01004e-19
2.58996e-05
-4.02881e-19
-2.09098e-19
2.65294e-05
-4.06153e-19
-2.13275e-19
2.71701e-05
-4.09757e-19
-2.185e-19
2.78218e-05
-4.16037e-19
-2.22795e-19
2.84845e-05
-4.21824e-19
-2.29927e-19
2.91586e-05
-4.31837e-19
-2.35433e-19
2.98441e-05
-4.37253e-19
-2.41867e-19
3.05412e-05
-4.41711e-19
-2.48674e-19
3.12501e-05
-4.45518e-19
-2.53557e-19
3.19709e-05
-4.41842e-19
-2.62095e-19
3.27039e-05
-4.39681e-19
-2.64794e-19
3.34493e-05
-4.38526e-19
-2.74976e-19
3.42072e-05
-4.44336e-19
-2.84789e-19
3.49778e-05
-4.48872e-19
-2.91682e-19
3.57613e-05
-4.48336e-19
-2.95346e-19
3.6558e-05
-4.52744e-19
-2.97617e-19
3.7368e-05
-4.56057e-19
-3.04265e-19
3.81916e-05
-4.68373e-19
-3.02728e-19
3.9029e-05
-4.68595e-19
-3.12018e-19
3.98804e-05
-4.78103e-19
-3.1455e-19
4.0746e-05
-4.73185e-19
-3.29742e-19
4.16261e-05
-4.78749e-19
-3.36344e-19
4.2521e-05
-4.8372e-19
-3.30948e-19
4.34307e-05
-4.86624e-19
-3.41583e-19
4.43557e-05
-4.97285e-19
-3.46995e-19
4.52961e-05
-5.00996e-19
-3.49521e-19
4.62523e-05
-5.04503e-19
-3.51249e-19
4.72244e-05
-5.15436e-19
-3.5861e-19
4.82128e-05
-5.09714e-19
-3.64681e-19
4.92176e-05
-5.06196e-19
-3.77392e-19
5.02393e-05
-5.09518e-19
-3.82203e-19
5.1278e-05
-5.07247e-19
-3.7935e-19
5.23341e-05
-5.15999e-19
-3.86965e-19
5.34078e-05
-5.24809e-19
-3.85541e-19
5.44994e-05
-5.16819e-19
-3.94146e-19
5.56093e-05
-5.20802e-19
-3.93819e-19
5.67378e-05
-5.16323e-19
-3.91224e-19
5.78851e-05
-5.15268e-19
-3.95652e-19
5.90515e-05
-5.19527e-19
-3.9916e-19
6.02375e-05
-5.09671e-19
-4.01139e-19
6.14433e-05
-5.23621e-19
-4.05449e-19
6.26692e-05
-5.34439e-19
-4.10731e-19
6.39157e-05
-5.43079e-19
-4.13967e-19
6.5183e-05
-5.56156e-19
-4.04627e-19
6.64714e-05
-5.58573e-19
-4.02265e-19
6.77814e-05
-5.63533e-19
-4.02353e-19
6.91133e-05
-5.70636e-19
-4.01514e-19
7.04675e-05
-5.68516e-19
-4.02691e-19
7.18443e-05
-5.68855e-19
-4.15095e-19
7.32441e-05
-5.68273e-19
-4.15241e-19
7.46674e-05
-5.80163e-19
-4.11994e-19
7.61144e-05
-5.92307e-19
-4.08256e-19
7.75856e-05
-5.82249e-19
-4.19252e-19
7.90814e-05
-5.82561e-19
-4.24289e-19
8.06023e-05
-5.93865e-19
-4.11099e-19
8.21485e-05
-5.94312e-19
-4.18353e-19
8.37206e-05
-5.9999e-19
-4.295e-19
8.5319e-05
-6.23572e-19
-4.40776e-19
8.69441e-05
-6.45673e-19
-4.5865e-19
8.85964e-05
-6.46635e-19
-4.4748e-19
9.02763e-05
-6.49484e-19
-4.43427e-19
9.19842e-05
-6.60596e-19
-4.33989e-19
9.37207e-05
-6.65495e-19
-4.4399e-19
9.54862e-05
-6.6957e-19
-4.36551e-19
9.72812e-05
-6.64385e-19
-4.43164e-19
9.91062e-05
-6.66654e-19
-4.48309e-19
0.000100962
-6.68654e-19
-4.52183e-19
0.000102848
-6.75156e-19
-4.38903e-19
0.000104766
-6.57196e-19
-4.25052e-19
0.000106716
-6.50891e-19
-4.3804e-19
0.000108698
-6.61155e-19
-4.29517e-19
0.000110714
-6.54343e-19
-4.36352e-19
0.000112763
-6.25379e-19
-4.21271e-19
0.000114846
-6.32283e-19
-4.00173e-19
0.000116964
-6.29548e-19
-4.0042e-19
0.000119118
-6.30877e-19
-4.0832e-19
0.000121307
-6.13464e-19
-4.24805e-19
0.000123533
-6.05349e-19
-4.32873e-19
0.000125796
-6.17781e-19
-4.38104e-19
0.000128096
-6.24124e-19
-4.43807e-19
0.000130435
-6.20735e-19
-4.45639e-19
0.000132813
-6.30692e-19
-4.67103e-19
0.00013523
-6.28599e-19
-4.76442e-19
0.000137687
-6.63571e-19
-4.77679e-19
0.000140186
-6.96074e-19
-4.88623e-19
0.000142725
-6.7979e-19
-4.98733e-19
0.000145308
-6.91305e-19
-4.83081e-19
0.000147932
-6.95932e-19
-4.73122e-19
0.000150601
-6.86227e-19
-5.16751e-19
0.000153314
-7.31688e-19
-5.25559e-19
0.000156071
-7.27275e-19
-4.90506e-19
0.000158875
-7.19373e-19
-4.72853e-19
0.000161725
-7.36107e-19
-4.76768e-19
0.000164622
-7.3709e-19
-4.772e-19
0.000167567
-7.23108e-19
-4.70584e-19
0.000170561
-7.41101e-19
-4.54765e-19
0.000173604
-7.07729e-19
-4.62281e-19
0.000176698
-6.99981e-19
-4.49553e-19
0.000179843
-7.04794e-19
-4.69022e-19
0.00018304
-6.959e-19
-4.96204e-19
0.000186289
-7.47257e-19
-4.87971e-19
0.000189592
-7.38977e-19
-4.92125e-19
0.00019295
-7.4346e-19
-5.12346e-19
0.000196363
-7.63424e-19
-5.13991e-19
0.000199832
-8.07727e-19
-5.09611e-19
0.000203358
-8.13538e-19
-5.37214e-19