/*--------------------------------*- C++ -*----------------------------------*\
| =========                 |                                                 |
| \\      /  F ield         | OpenFOAM: The Open Source CFD Toolbox           |
|  \\    /   O peration     | Version:  2106                                  |
|   \\  /    A nd           | Website:  www.openfoam.com                      |
|    \\/     M anipulation  |                                                 |
\*---------------------------------------------------------------------------*/
FoamFile
{
    version     2.0;
    format      ascii;
    arch        "LSB;label=32;scalar=64";
    class       volScalarField;
    location    "19000";
    object      p;
}
// * * * * * * * * * * * * * * * * * * * * * * * * * * * * * * * * * * * * * //

dimensions      [0 2 -2 0 0 0 0];

internalField   nonuniform List<scalar> 
2560
(
5.41595e-15
2.72675e-14
1.24848e-14
2.7272e-14
1.41458e-14
2.72775e-14
1.43369e-14
2.72862e-14
1.46862e-14
2.72982e-14
1.5208e-14
2.73135e-14
1.57507e-14
2.73324e-14
1.62806e-14
2.73546e-14
1.6803e-14
2.73803e-14
1.73173e-14
2.74094e-14
1.78205e-14
2.74418e-14
1.83112e-14
2.74774e-14
1.87892e-14
2.75163e-14
1.92543e-14
2.75583e-14
1.97066e-14
2.76033e-14
2.01459e-14
2.76515e-14
2.05727e-14
2.77027e-14
2.0987e-14
2.77567e-14
2.13891e-14
2.78136e-14
2.17792e-14
2.78733e-14
2.21575e-14
2.79356e-14
2.2524e-14
2.80005e-14
2.28789e-14
2.80681e-14
2.32227e-14
2.81383e-14
2.35554e-14
2.82107e-14
2.3877e-14
2.82855e-14
2.41877e-14
2.83627e-14
2.4488e-14
2.84423e-14
2.47779e-14
2.85243e-14
2.50575e-14
2.86084e-14
2.53271e-14
2.86945e-14
2.55866e-14
2.87825e-14
2.58365e-14
2.88726e-14
2.60769e-14
2.89645e-14
2.6308e-14
2.90584e-14
2.65296e-14
2.91543e-14
2.67418e-14
2.92518e-14
2.69454e-14
2.93507e-14
2.71406e-14
2.94513e-14
2.73273e-14
2.95532e-14
2.75055e-14
2.96567e-14
2.76757e-14
2.97615e-14
2.78378e-14
2.98677e-14
2.79922e-14
2.99749e-14
2.81388e-14
3.0083e-14
2.8278e-14
3.01923e-14
2.84097e-14
3.03028e-14
2.85344e-14
3.04144e-14
2.86517e-14
3.0527e-14
2.87622e-14
3.06404e-14
2.88665e-14
3.07542e-14
2.89646e-14
3.08684e-14
2.9056e-14
3.09829e-14
2.91417e-14
3.10981e-14
2.92209e-14
3.12139e-14
2.92942e-14
3.13303e-14
2.93622e-14
3.14472e-14
2.94245e-14
3.15641e-14
2.94817e-14
3.1681e-14
2.95336e-14
3.17982e-14
2.95805e-14
3.19156e-14
2.96227e-14
3.20329e-14
2.966e-14
3.215e-14
2.96929e-14
3.22669e-14
2.97211e-14
3.23838e-14
2.97448e-14
3.25003e-14
2.97645e-14
3.26158e-14
2.97799e-14
3.27312e-14
2.97921e-14
3.28461e-14
2.98015e-14
3.29606e-14
2.98067e-14
3.30739e-14
2.98085e-14
3.31865e-14
2.98073e-14
3.32981e-14
2.98031e-14
3.34091e-14
2.97964e-14
3.35189e-14
2.97867e-14
3.3628e-14
2.9774e-14
3.37362e-14
2.97594e-14
3.3843e-14
2.9743e-14
3.39485e-14
2.97247e-14
3.40528e-14
2.97038e-14
3.41566e-14
2.9681e-14
3.42581e-14
2.96571e-14
3.4358e-14
2.96313e-14
3.44574e-14
2.96042e-14
3.45563e-14
2.95759e-14
3.46541e-14
2.9547e-14
3.47498e-14
2.95172e-14
3.48437e-14
2.9487e-14
3.49362e-14
2.94561e-14
3.5028e-14
2.94246e-14
3.51179e-14
2.93923e-14
3.52065e-14
2.93592e-14
3.52948e-14
2.93255e-14
3.53824e-14
2.92911e-14
3.5468e-14
2.92556e-14
3.55528e-14
2.922e-14
3.56383e-14
2.91835e-14
3.5723e-14
2.91462e-14
3.58054e-14
2.91101e-14
3.58845e-14
2.90751e-14
3.59624e-14
2.90406e-14
3.60386e-14
2.90052e-14
3.61131e-14
2.89713e-14
3.61869e-14
2.89394e-14
3.62598e-14
2.89075e-14
3.63312e-14
2.88758e-14
3.64024e-14
2.88466e-14
3.64715e-14
2.88188e-14
3.65375e-14
2.87924e-14
3.66026e-14
2.87681e-14
3.66669e-14
2.87439e-14
3.67289e-14
2.87215e-14
3.6788e-14
2.87015e-14
3.68443e-14
2.86829e-14
3.68995e-14
2.86671e-14
3.69514e-14
2.86526e-14
3.70018e-14
2.86406e-14
3.7049e-14
2.86286e-14
3.70966e-14
2.86214e-14
3.71422e-14
2.86164e-14
3.71843e-14
2.86117e-14
3.72246e-14
2.86089e-14
3.72642e-14
2.86078e-14
3.7304e-14
2.861e-14
3.73398e-14
2.86144e-14
3.73745e-14
2.86219e-14
3.7408e-14
2.86312e-14
3.74389e-14
2.86441e-14
3.74662e-14
2.86568e-14
3.74919e-14
2.86718e-14
3.75198e-14
2.8688e-14
3.75491e-14
2.87072e-14
3.75755e-14
2.8729e-14
3.7597e-14
2.87514e-14
3.76204e-14
2.87753e-14
3.76422e-14
2.88032e-14
3.76624e-14
2.88253e-14
3.7684e-14
2.88549e-14
3.77111e-14
2.8886e-14
3.7738e-14
2.89105e-14
3.77632e-14
2.89419e-14
3.77925e-14
2.8978e-14
3.78163e-14
2.90186e-14
3.78367e-14
2.90636e-14
3.78579e-14
2.91126e-14
3.7878e-14
2.91696e-14
3.78931e-14
2.92324e-14
3.79054e-14
2.92904e-14
3.79171e-14
2.936e-14
3.79261e-14
2.94349e-14
3.79306e-14
2.95126e-14
3.79369e-14
2.95994e-14
3.79431e-14
2.96908e-14
3.79451e-14
2.9776e-14
3.79406e-14
2.98634e-14
3.7932e-14
2.99591e-14
3.79215e-14
3.00676e-14
3.79156e-14
3.01777e-14
3.79145e-14
3.02848e-14
3.79028e-14
3.03866e-14
3.7896e-14
3.04849e-14
3.78965e-14
3.05952e-14
3.78932e-14
3.07176e-14
3.78839e-14
3.08268e-14
3.788e-14
3.09455e-14
3.78768e-14
3.10667e-14
3.78746e-14
3.11833e-14
3.78756e-14
3.13043e-14
3.78776e-14
3.1425e-14
3.78853e-14
3.15545e-14
3.78988e-14
3.16928e-14
3.79136e-14
3.18256e-14
3.79248e-14
3.19527e-14
3.79467e-14
3.20929e-14
3.797e-14
3.22222e-14
3.79947e-14
3.23501e-14
3.80208e-14
3.24956e-14
3.80388e-14
3.26344e-14
3.8068e-14
3.27714e-14
3.81036e-14
3.29112e-14
3.8141e-14
3.30486e-14
3.81752e-14
3.31837e-14
3.82014e-14
3.33211e-14
3.82344e-14
3.34608e-14
3.82743e-14
3.35928e-14
3.83112e-14
3.37217e-14
3.83502e-14
3.38475e-14
3.83815e-14
3.39798e-14
3.842e-14
3.41036e-14
3.84559e-14
3.42387e-14
3.84842e-14
3.4365e-14
3.85049e-14
3.44873e-14
3.85331e-14
3.46106e-14
3.8574e-14
3.47398e-14
3.86175e-14
3.48595e-14
3.86434e-14
3.49747e-14
3.86874e-14
3.50954e-14
3.87498e-14
3.52315e-14
3.88053e-14
3.53575e-14
3.88487e-14
3.54886e-14
3.8906e-14
3.55988e-14
3.89774e-14
3.57188e-14
3.90376e-14
3.58382e-14
3.91022e-14
3.59566e-14
3.91664e-14
3.60636e-14
3.9246e-14
3.61847e-14
3.93158e-14
3.62989e-14
3.93864e-14
3.64059e-14
3.94374e-14
3.65158e-14
3.95004e-14
3.6618e-14
3.95759e-14
3.67225e-14
3.96329e-14
3.68187e-14
3.96719e-14
3.69274e-14
3.97138e-14
3.70379e-14
3.97799e-14
3.71499e-14
3.98495e-14
3.72527e-14
3.99125e-14
3.73566e-14
3.99482e-14
3.7451e-14
3.99987e-14
3.75566e-14
4.00749e-14
3.76517e-14
4.01246e-14
3.77571e-14
4.01377e-14
3.78519e-14
4.0177e-14
3.79569e-14
4.0211e-14
3.80407e-14
4.02292e-14
3.81031e-14
4.02421e-14
3.81859e-14
4.02601e-14
3.8268e-14
4.02938e-14
3.83494e-14
4.03222e-14
3.84088e-14
4.03558e-14
3.84772e-14
4.03634e-14
3.85438e-14
4.03763e-14
3.86294e-14
4.04363e-14
3.87128e-14
4.04706e-14
3.87834e-14
4.04792e-14
3.88727e-14
4.05037e-14
3.89497e-14
4.05332e-14
3.90351e-14
4.05472e-14
3.90981e-14
4.05554e-14
3.91804e-14
4.05677e-14
3.92616e-14
4.05831e-14
3.93422e-14
4.05598e-14
3.94337e-14
4.05374e-14
3.95169e-14
4.05343e-14
3.95924e-14
4.05284e-14
3.96817e-14
4.05383e-14
3.97652e-14
4.05218e-14
3.98659e-14
4.0477e-14
3.99052e-14
4.04411e-14
3.99451e-14
4.04328e-14
4.00063e-14
4.04104e-14
4.00506e-14
4.04529e-14
4.01181e-14
4.04599e-14
4.01501e-14
4.05104e-14
4.0166e-14
4.05254e-14
4.02048e-14
4.05051e-14
4.02485e-14
4.04875e-14
4.02983e-14
4.05096e-14
4.03148e-14
4.05697e-14
4.03363e-14
4.05901e-14
4.03625e-14
4.0551e-14
4.03553e-14
4.05081e-14
4.03345e-14
4.04398e-14
4.03199e-14
4.04412e-14
4.0329e-14
4.04341e-14
4.03411e-14
4.04364e-14
4.03366e-14
4.03702e-14
4.03358e-14
4.03646e-14
4.03566e-14
4.03803e-14
4.03224e-14
4.04542e-14
4.03217e-14
4.04585e-14
4.03154e-14
4.03928e-14
4.02865e-14
4.03652e-14
4.02886e-14
4.04121e-14
4.02627e-14
4.05343e-14
4.02922e-14
4.0573e-14
4.03382e-14
4.0512e-14
4.03505e-14
4.04544e-14
4.03854e-14
4.04671e-14
4.04246e-14
4.05293e-14
4.04659e-14
4.06246e-14
4.04871e-14
4.06348e-14
4.04883e-14
4.06123e-14
4.04877e-14
4.06409e-14
4.05342e-14
4.06864e-14
4.0575e-14
4.06973e-14
4.05775e-14
4.06547e-14
4.05783e-14
4.0657e-14
4.06779e-14
4.06343e-14
4.06843e-14
4.06784e-14
4.06978e-14
4.07235e-14
4.07156e-14
4.07054e-14
4.07715e-14
4.07515e-14
4.07678e-14
4.07624e-14
4.07675e-14
4.07713e-14
4.07687e-14
4.07806e-14
4.07698e-14
4.07913e-14
4.0739e-14
4.07702e-14
4.07354e-14
4.08437e-14
4.0782e-14
4.07446e-14
4.08299e-14
4.06731e-14
4.077e-14
4.07627e-14
4.07993e-14
4.07883e-14
4.08001e-14
4.08397e-14
4.0767e-14
4.08623e-14
4.08639e-14
4.09213e-14
4.09221e-14
4.09552e-14
4.09155e-14
4.10207e-14
4.10025e-14
4.1072e-14
4.10717e-14
4.11336e-14
4.11286e-14
4.11763e-14
4.1149e-14
4.1198e-14
4.12156e-14
4.12525e-14
4.12513e-14
4.13666e-14
4.12997e-14
4.13613e-14
4.13678e-14
4.13659e-14
4.14137e-14
4.14182e-14
4.14644e-14
4.15215e-14
4.15392e-14
4.15547e-14
4.15997e-14
4.1612e-14
2.57436e-14
2.78077e-14
2.5746e-14
2.78082e-14
2.57489e-14
2.78089e-14
2.57535e-14
2.781e-14
2.57598e-14
2.78115e-14
2.57679e-14
2.78135e-14
2.57778e-14
2.7816e-14
2.57896e-14
2.7819e-14
2.58032e-14
2.78226e-14
2.58186e-14
2.78266e-14
2.58356e-14
2.78312e-14
2.58544e-14
2.78363e-14
2.58749e-14
2.78419e-14
2.58971e-14
2.78481e-14
2.59209e-14
2.78549e-14
2.59464e-14
2.78623e-14
2.59734e-14
2.78702e-14
2.60021e-14
2.78786e-14
2.60323e-14
2.78876e-14
2.60641e-14
2.78971e-14
2.60975e-14
2.79073e-14
2.61322e-14
2.79181e-14
2.61684e-14
2.79296e-14
2.62059e-14
2.79417e-14
2.62449e-14
2.79542e-14
2.62851e-14
2.79675e-14
2.63265e-14
2.79815e-14
2.63691e-14
2.79964e-14
2.6413e-14
2.80121e-14
2.64582e-14
2.80282e-14
2.65045e-14
2.80449e-14
2.65518e-14
2.80623e-14
2.66005e-14
2.80807e-14
2.66502e-14
2.80998e-14
2.67008e-14
2.81195e-14
2.67525e-14
2.81399e-14
2.68053e-14
2.81608e-14
2.68589e-14
2.81827e-14
2.69135e-14
2.82051e-14
2.69688e-14
2.82285e-14
2.70248e-14
2.82531e-14
2.70814e-14
2.82787e-14
2.71387e-14
2.83053e-14
2.71969e-14
2.83324e-14
2.72558e-14
2.83605e-14
2.73154e-14
2.83893e-14
2.73757e-14
2.84191e-14
2.74366e-14
2.845e-14
2.74981e-14
2.84814e-14
2.75603e-14
2.85135e-14
2.76234e-14
2.85462e-14
2.7687e-14
2.85795e-14
2.77518e-14
2.86139e-14
2.78171e-14
2.86488e-14
2.78831e-14
2.86844e-14
2.79495e-14
2.87208e-14
2.80164e-14
2.87579e-14
2.80837e-14
2.8796e-14
2.81511e-14
2.88351e-14
2.82191e-14
2.88747e-14
2.82876e-14
2.89154e-14
2.83565e-14
2.8957e-14
2.84253e-14
2.90001e-14
2.84945e-14
2.90434e-14
2.85641e-14
2.90876e-14
2.86346e-14
2.91323e-14
2.87054e-14
2.91772e-14
2.87765e-14
2.92232e-14
2.88479e-14
2.92692e-14
2.89198e-14
2.93156e-14
2.89921e-14
2.93627e-14
2.90648e-14
2.94103e-14
2.91376e-14
2.94592e-14
2.92106e-14
2.95091e-14
2.92832e-14
2.95598e-14
2.93558e-14
2.96111e-14
2.94287e-14
2.96633e-14
2.95019e-14
2.97163e-14
2.95749e-14
2.97701e-14
2.9647e-14
2.98246e-14
2.97196e-14
2.98808e-14
2.97922e-14
2.99379e-14
2.98653e-14
2.99959e-14
2.99385e-14
3.00552e-14
3.00121e-14
3.01155e-14
3.00856e-14
3.01767e-14
3.01593e-14
3.02389e-14
3.02325e-14
3.03015e-14
3.03056e-14
3.03653e-14
3.03786e-14
3.04303e-14
3.04529e-14
3.04952e-14
3.05269e-14
3.05612e-14
3.06009e-14
3.06276e-14
3.06752e-14
3.06931e-14
3.075e-14
3.07598e-14
3.08247e-14
3.0828e-14
3.08992e-14
3.08979e-14
3.09738e-14
3.09681e-14
3.10492e-14
3.10378e-14
3.11242e-14
3.11083e-14
3.11999e-14
3.11812e-14
3.12733e-14
3.12558e-14
3.13474e-14
3.13323e-14
3.14226e-14
3.14097e-14
3.14958e-14
3.14888e-14
3.15699e-14
3.15683e-14
3.16425e-14
3.1649e-14
3.17153e-14
3.17327e-14
3.17891e-14
3.18149e-14
3.18636e-14
3.1898e-14
3.19373e-14
3.19845e-14
3.20111e-14
3.20703e-14
3.20857e-14
3.21555e-14
3.21612e-14
3.22408e-14
3.22378e-14
3.23273e-14
3.23155e-14
3.24147e-14
3.2391e-14
3.25024e-14
3.24669e-14
3.25912e-14
3.25423e-14
3.26819e-14
3.26174e-14
3.27729e-14
3.26938e-14
3.28643e-14
3.27709e-14
3.29559e-14
3.28485e-14
3.3047e-14
3.29269e-14
3.31402e-14
3.30069e-14
3.32347e-14
3.30895e-14
3.33295e-14
3.31685e-14
3.3423e-14
3.32467e-14
3.35195e-14
3.33249e-14
3.36156e-14
3.34068e-14
3.37076e-14
3.34871e-14
3.38037e-14
3.35667e-14
3.39003e-14
3.36494e-14
3.39918e-14
3.37314e-14
3.40828e-14
3.3811e-14
3.41772e-14
3.38929e-14
3.42692e-14
3.39753e-14
3.43617e-14
3.40544e-14
3.44538e-14
3.41302e-14
3.45474e-14
3.42046e-14
3.46387e-14
3.42816e-14
3.47256e-14
3.43515e-14
3.48161e-14
3.4422e-14
3.49101e-14
3.44953e-14
3.49998e-14
3.45715e-14
3.50831e-14
3.46465e-14
3.51681e-14
3.47204e-14
3.52548e-14
3.47973e-14
3.53431e-14
3.48754e-14
3.54292e-14
3.49503e-14
3.55129e-14
3.50244e-14
3.55984e-14
3.50996e-14
3.56837e-14
3.51762e-14
3.57731e-14
3.52561e-14
3.58666e-14
3.5331e-14
3.59537e-14
3.54094e-14
3.60365e-14
3.54937e-14
3.61192e-14
3.55642e-14
3.62064e-14
3.56384e-14
3.62938e-14
3.57142e-14
3.63792e-14
3.57871e-14
3.64627e-14
3.58616e-14
3.65377e-14
3.59468e-14
3.66041e-14
3.6018e-14
3.66776e-14
3.60956e-14
3.67539e-14
3.61637e-14
3.68285e-14
3.62336e-14
3.69014e-14
3.63032e-14
3.69728e-14
3.63701e-14
3.70426e-14
3.64366e-14
3.71134e-14
3.65029e-14
3.71897e-14
3.65735e-14
3.72625e-14
3.66532e-14
3.7327e-14
3.6728e-14
3.73975e-14
3.67931e-14
3.74692e-14
3.68532e-14
3.75376e-14
3.69226e-14
3.75978e-14
3.6987e-14
3.76643e-14
3.70511e-14
3.77276e-14
3.71199e-14
3.7778e-14
3.71886e-14
3.78349e-14
3.72473e-14
3.78887e-14
3.73059e-14
3.79442e-14
3.73594e-14
3.79916e-14
3.74078e-14
3.8041e-14
3.74709e-14
3.80872e-14
3.75337e-14
3.81404e-14
3.76115e-14
3.81805e-14
3.76794e-14
3.82175e-14
3.77474e-14
3.82613e-14
3.78056e-14
3.83018e-14
3.78642e-14
3.8334e-14
3.79181e-14
3.83729e-14
3.79725e-14
3.84185e-14
3.80376e-14
3.84558e-14
3.80982e-14
3.84895e-14
3.81647e-14
3.85197e-14
3.82065e-14
3.85564e-14
3.82544e-14
3.85893e-14
3.83135e-14
3.86131e-14
3.83687e-14
3.86327e-14
3.84148e-14
3.86686e-14
3.84466e-14
3.87154e-14
3.84848e-14
3.87526e-14
3.85241e-14
3.87851e-14
3.85748e-14
3.88233e-14
3.86215e-14
3.88515e-14
3.86642e-14
3.88796e-14
3.87133e-14
3.89075e-14
3.8769e-14
3.89454e-14
3.88e-14
3.89931e-14
3.88166e-14
3.90506e-14
3.88497e-14
3.91077e-14
3.89201e-14
3.91542e-14
3.8986e-14
3.92108e-14
3.9016e-14
3.92775e-14
3.90412e-14
3.9344e-14
3.90924e-14
3.93897e-14
3.91802e-14
3.94461e-14
3.92524e-14
3.95129e-14
3.93301e-14
3.9569e-14
3.93821e-14
3.96142e-14
3.94398e-14
3.96696e-14
3.95032e-14
3.97038e-14
3.95727e-14
3.97479e-14
3.96169e-14
3.98123e-14
3.96359e-14
3.98449e-14
3.96922e-14
3.98776e-14
3.97548e-14
3.99414e-14
3.98025e-14
4.00156e-14
3.98563e-14
4.00484e-14
3.99059e-14
4.00712e-14
3.99518e-14
4.01359e-14
3.99937e-14
4.01906e-14
4.00209e-14
4.02251e-14
4.00645e-14
4.02607e-14
4.01244e-14
4.0287e-14
4.01594e-14
4.03346e-14
4.02109e-14
4.0404e-14
4.02474e-14
4.04648e-14
4.02891e-14
4.05076e-14
4.03358e-14
4.05637e-14
4.03974e-14
4.06135e-14
4.04844e-14
4.0678e-14
4.05457e-14
4.07474e-14
4.05918e-14
4.07817e-14
4.05611e-14
4.0822e-14
4.05946e-14
4.08501e-14
4.06506e-14
4.08468e-14
4.06899e-14
4.08521e-14
4.06731e-14
4.08454e-14
4.06802e-14
4.08475e-14
4.06907e-14
4.08583e-14
4.07242e-14
4.08578e-14
4.07613e-14
4.0885e-14
4.0743e-14
4.08999e-14
4.07674e-14
4.09639e-14
4.08332e-14
4.10394e-14
4.08214e-14
4.10884e-14
4.08289e-14
4.11326e-14
4.08936e-14
4.11937e-14
4.09178e-14
4.11953e-14
4.09421e-14
4.1158e-14
4.09886e-14
4.11975e-14
4.10583e-14
4.12177e-14
4.10963e-14
4.12567e-14
4.11226e-14
4.13156e-14
4.11561e-14
4.1322e-14
4.11985e-14
4.13334e-14
4.12327e-14
4.13682e-14
4.12418e-14
4.14075e-14
4.12441e-14
4.14164e-14
4.12772e-14
4.13793e-14
4.13086e-14
4.14056e-14
4.13212e-14
4.14951e-14
4.13499e-14
4.14855e-14
4.13786e-14
4.14854e-14
4.14091e-14
4.14777e-14
4.14442e-14
4.14989e-14
4.14854e-14
4.14954e-14
4.1536e-14
4.14465e-14
4.15315e-14
4.14685e-14
4.15244e-14
4.15278e-14
4.15294e-14
4.15431e-14
4.15469e-14
4.1551e-14
4.15431e-14
4.15508e-14
4.15347e-14
4.15435e-14
4.15226e-14
4.15654e-14
4.15052e-14
4.15525e-14
4.14457e-14
4.15742e-14
4.14377e-14
4.16028e-14
4.14778e-14
4.16087e-14
4.15032e-14
4.16251e-14
4.15145e-14
4.1619e-14
4.15146e-14
4.15578e-14
4.15094e-14
4.15325e-14
4.14696e-14
4.15725e-14
4.14829e-14
4.15283e-14
4.14624e-14
4.14282e-14
4.14783e-14
4.14144e-14
4.1471e-14
4.1457e-14
4.14351e-14
4.14136e-14
4.13742e-14
4.14309e-14
4.13674e-14
4.14568e-14
4.14404e-14
4.14649e-14
4.14289e-14
4.14787e-14
4.14726e-14
4.14707e-14
4.15476e-14
4.14632e-14
4.1612e-14
4.15006e-14
4.15843e-14
4.15501e-14
4.15933e-14
4.15928e-14
4.16042e-14
4.1634e-14
4.1586e-14
4.16523e-14
4.16115e-14
4.17342e-14
4.16449e-14
4.17225e-14
4.16648e-14
4.18021e-14
4.16861e-14
4.18e-14
4.17108e-14
4.18447e-14
4.16806e-14
4.19356e-14
4.16733e-14
4.19932e-14
4.16519e-14
4.16919e-14
4.16981e-14
4.17523e-14
4.17608e-14
4.19035e-14
4.18179e-14
4.19874e-14
4.19448e-14
4.20358e-14
4.20519e-14
4.21453e-14
4.21672e-14
4.22085e-14
4.22188e-14
4.22674e-14
4.23419e-14
4.23519e-14
4.24354e-14
4.24878e-14
4.24926e-14
4.25179e-14
4.25699e-14
4.26046e-14
4.26377e-14
4.26902e-14
4.26979e-14
4.27176e-14
4.27552e-14
4.27956e-14
4.28074e-14
4.28393e-14
4.28596e-14
4.28498e-14
4.28856e-14
4.29128e-14
4.29099e-14
4.29447e-14
4.29311e-14
4.29164e-14
4.29509e-14
4.29412e-14
4.3001e-14
4.29863e-14
4.30219e-14
4.30512e-14
4.30733e-14
4.3049e-14
4.30328e-14
4.31029e-14
4.30485e-14
4.31596e-14
4.30862e-14
4.31592e-14
4.31182e-14
4.31313e-14
4.3119e-14
4.32017e-14
4.31154e-14
4.32111e-14
4.31393e-14
4.31252e-14
4.31657e-14
4.3136e-14
4.31958e-14
4.3177e-14
4.31614e-14
4.31816e-14
4.31629e-14
4.32216e-14
4.3164e-14
4.32327e-14
4.31452e-14
4.31798e-14
4.31091e-14
4.31631e-14
4.3089e-14
4.31326e-14
4.30678e-14
4.3138e-14
4.30439e-14
4.3092e-14
4.30362e-14
4.30814e-14
4.30269e-14
4.309e-14
4.29604e-14
4.30473e-14
4.29971e-14
4.30437e-14
4.30314e-14
4.30582e-14
4.30467e-14
4.3036e-14
4.30629e-14
4.30495e-14
4.31175e-14
4.30997e-14
4.31744e-14
4.31498e-14
4.32147e-14
4.31429e-14
4.32222e-14
4.3114e-14
4.32161e-14
4.31559e-14
4.32328e-14
4.32516e-14
4.32316e-14
4.32323e-14
4.32123e-14
4.32496e-14
4.32312e-14
4.33439e-14
4.32475e-14
4.33835e-14
4.32799e-14
4.33686e-14
4.32911e-14
4.33953e-14
4.33389e-14
4.34252e-14
4.34244e-14
4.3438e-14
4.34318e-14
4.34506e-14
4.3459e-14
4.35222e-14
4.35043e-14
4.35559e-14
4.35284e-14
4.35709e-14
4.35315e-14
4.36074e-14
4.35727e-14
4.36471e-14
4.36322e-14
4.367e-14
4.36502e-14
4.37151e-14
4.37062e-14
4.37625e-14
4.37402e-14
4.37919e-14
4.3773e-14
4.38235e-14
4.37638e-14
4.38576e-14
4.37523e-14
4.38745e-14
4.37994e-14
4.39155e-14
4.38238e-14
4.39189e-14
4.38053e-14
4.39043e-14
4.38054e-14
4.38921e-14
4.38451e-14
4.39335e-14
4.38628e-14
4.39671e-14
4.38688e-14
4.39929e-14
4.38727e-14
4.40214e-14
4.38951e-14
4.40322e-14
4.39258e-14
4.40456e-14
4.39341e-14
4.40614e-14
4.39406e-14
4.40691e-14
4.39347e-14
4.40787e-14
4.39581e-14
4.40904e-14
4.3969e-14
4.40937e-14
4.39991e-14
4.40884e-14
4.4028e-14
4.41052e-14
4.4056e-14
4.41126e-14
4.40727e-14
4.40996e-14
4.40786e-14
4.40972e-14
4.40947e-14
4.41264e-14
4.41102e-14
4.41453e-14
4.41251e-14
4.41646e-14
4.41286e-14
4.41738e-14
4.41314e-14
4.4173e-14
4.41439e-14
4.41936e-14
4.41557e-14
4.42251e-14
4.41664e-14
4.42362e-14
4.41762e-14
4.4248e-14
4.41852e-14
4.4271e-14
4.41932e-14
4.42948e-14
4.42211e-14
4.43089e-14
4.42273e-14
4.43131e-14
4.4243e-14
4.4318e-14
4.4258e-14
4.43234e-14
4.42619e-14
4.43397e-14
4.42548e-14
4.4367e-14
4.42572e-14
4.43533e-14
4.42797e-14
4.43401e-14
4.42913e-14
4.43584e-14
4.42921e-14
4.43771e-14
4.42819e-14
4.43753e-14
4.42867e-14
4.43688e-14
4.42859e-14
4.43679e-14
4.42793e-14
4.43828e-14
4.42875e-14
4.43878e-14
4.42951e-14
4.43984e-14
4.42918e-14
4.44044e-14
4.43083e-14
4.44057e-14
4.43089e-14
4.44228e-14
4.4309e-14
4.44404e-14
4.43186e-14
4.44432e-14
4.43326e-14
4.44313e-14
4.4331e-14
4.44299e-14
4.43238e-14
4.4449e-14
4.43211e-14
4.44635e-14
4.43128e-14
4.44735e-14
4.42987e-14
4.4479e-14
4.42938e-14
4.4485e-14
4.43031e-14
4.44967e-14
4.43064e-14
4.44892e-14
4.4304e-14
4.44772e-14
4.43058e-14
4.44806e-14
4.43068e-14
4.44943e-14
4.43118e-14
4.45035e-14
4.43161e-14
4.45034e-14
4.43098e-14
4.45037e-14
4.43125e-14
4.45045e-14
4.43192e-14
4.45008e-14
4.43252e-14
4.45024e-14
4.43257e-14
4.45042e-14
4.43303e-14
4.45112e-14
4.43342e-14
4.45136e-14
4.4328e-14
4.45164e-14
4.43447e-14
4.451e-14
4.43514e-14
4.45039e-14
4.43482e-14
4.4498e-14
4.43492e-14
4.4497e-14
4.43543e-14
4.44985e-14
4.43521e-14
4.45024e-14
4.43631e-14
4.44996e-14
4.43668e-14
4.44993e-14
4.43678e-14
4.4499e-14
4.43707e-14
4.44922e-14
4.43709e-14
4.44878e-14
4.43685e-14
4.44857e-14
4.43725e-14
4.44837e-14
4.43783e-14
4.44753e-14
4.43728e-14
4.44735e-14
4.43692e-14
4.4474e-14
4.43719e-14
4.44767e-14
4.43763e-14
4.44774e-14
4.43848e-14
4.44824e-14
4.43908e-14
4.44832e-14
4.4388e-14
4.44777e-14
4.43893e-14
4.44766e-14
4.43944e-14
4.44776e-14
4.43993e-14
4.44849e-14
4.44019e-14
4.44902e-14
4.44043e-14
4.44934e-14
4.44065e-14
4.44967e-14
4.44125e-14
4.45001e-14
4.44162e-14
4.44975e-14
4.44179e-14
4.4495e-14
4.44213e-14
4.45004e-14
4.44265e-14
4.45078e-14
4.44258e-14
4.45114e-14
4.44211e-14
4.45188e-14
4.44201e-14
4.45224e-14
4.44189e-14
4.45242e-14
4.44139e-14
4.45241e-14
4.44107e-14
4.45269e-14
4.4412e-14
4.45307e-14
4.44122e-14
4.45337e-14
4.44115e-14
4.45367e-14
4.44096e-14
4.45399e-14
4.44077e-14
4.45403e-14
4.44066e-14
4.45418e-14
4.44054e-14
4.45424e-14
4.4404e-14
4.45441e-14
4.44026e-14
4.45449e-14
4.44019e-14
4.45441e-14
4.44029e-14
4.45407e-14
4.44012e-14
4.45409e-14
4.44011e-14
4.45421e-14
4.44027e-14
4.45391e-14
4.44041e-14
4.45361e-14
4.44063e-14
4.45325e-14
4.44076e-14
4.45305e-14
4.44079e-14
4.45295e-14
4.44082e-14
4.45286e-14
4.44084e-14
4.45269e-14
4.44085e-14
4.45244e-14
4.44103e-14
4.45204e-14
4.44111e-14
4.45181e-14
4.44111e-14
4.45174e-14
4.44119e-14
4.4516e-14
4.44118e-14
4.45138e-14
4.4412e-14
4.45117e-14
4.44126e-14
4.45116e-14
4.44128e-14
4.45112e-14
4.44129e-14
4.45096e-14
4.44134e-14
4.45084e-14
4.44155e-14
4.45073e-14
4.44163e-14
4.45074e-14
4.44163e-14
4.45083e-14
4.44163e-14
4.45085e-14
4.44166e-14
4.45083e-14
4.44165e-14
4.4509e-14
4.44164e-14
4.451e-14
4.44166e-14
4.45095e-14
4.44168e-14
4.45094e-14
4.44179e-14
4.45093e-14
4.4418e-14
4.4511e-14
4.44169e-14
4.45131e-14
4.44166e-14
4.45135e-14
4.44159e-14
4.45126e-14
4.44151e-14
4.45127e-14
4.44147e-14
4.45132e-14
4.44143e-14
4.45137e-14
4.44137e-14
4.45145e-14
4.44139e-14
4.45144e-14
4.44132e-14
4.45137e-14
4.44125e-14
4.45134e-14
4.44122e-14
4.45138e-14
4.44123e-14
4.45138e-14
4.44127e-14
4.45136e-14
4.44121e-14
4.45138e-14
4.44115e-14
4.45141e-14
4.44113e-14
4.45134e-14
4.44114e-14
4.45133e-14
4.44114e-14
4.45136e-14
4.44112e-14
4.45137e-14
4.44107e-14
4.45139e-14
4.44104e-14
4.45137e-14
4.44104e-14
4.45136e-14
4.44107e-14
4.45136e-14
4.44109e-14
4.45127e-14
4.44106e-14
4.45126e-14
4.44102e-14
4.45134e-14
4.44099e-14
4.4514e-14
4.44097e-14
4.45144e-14
4.44095e-14
4.45144e-14
4.44093e-14
4.45141e-14
4.44092e-14
4.45141e-14
4.44092e-14
4.45138e-14
4.44095e-14
4.45132e-14
4.44097e-14
4.45134e-14
4.441e-14
4.45134e-14
4.44102e-14
4.4513e-14
4.44106e-14
4.45124e-14
4.44113e-14
4.4512e-14
4.44114e-14
4.45116e-14
4.44114e-14
4.45114e-14
4.44116e-14
4.45113e-14
4.44121e-14
4.45114e-14
4.44121e-14
4.45112e-14
4.44122e-14
4.45109e-14
4.44123e-14
4.45108e-14
4.44123e-14
4.45108e-14
4.44123e-14
4.45108e-14
4.44123e-14
4.45109e-14
4.44125e-14
4.45108e-14
4.44126e-14
4.45108e-14
4.44125e-14
4.45108e-14
4.44124e-14
4.45108e-14
4.44126e-14
4.45107e-14
4.44124e-14
4.45108e-14
4.44124e-14
4.45108e-14
4.44124e-14
4.45106e-14
4.44124e-14
4.45106e-14
4.44124e-14
4.45108e-14
4.44124e-14
4.45108e-14
4.44123e-14
4.45108e-14
4.44122e-14
4.4511e-14
4.4412e-14
4.4511e-14
4.44119e-14
4.45111e-14
4.44118e-14
4.45109e-14
4.44117e-14
4.45107e-14
4.44115e-14
4.45106e-14
4.44114e-14
4.45106e-14
4.44114e-14
4.45105e-14
4.44112e-14
4.45105e-14
4.44111e-14
4.45105e-14
4.4411e-14
4.45104e-14
4.4411e-14
4.45103e-14
4.4411e-14
4.45102e-14
4.4411e-14
4.45102e-14
4.4411e-14
4.45101e-14
4.4411e-14
4.45101e-14
4.4411e-14
4.45099e-14
4.44111e-14
4.45098e-14
4.44111e-14
4.45098e-14
4.44111e-14
4.45097e-14
4.44111e-14
4.45097e-14
4.44111e-14
4.45097e-14
4.44111e-14
4.45097e-14
4.44111e-14
4.45096e-14
4.44111e-14
4.45096e-14
4.44111e-14
4.45096e-14
4.44111e-14
4.45096e-14
4.4411e-14
4.45096e-14
4.4411e-14
4.45096e-14
4.4411e-14
4.45096e-14
4.4411e-14
4.45096e-14
4.16449e-14
4.20047e-14
4.17135e-14
4.20501e-14
4.18876e-14
4.20428e-14
4.19683e-14
4.20977e-14
4.20411e-14
4.21278e-14
4.21358e-14
4.22321e-14
4.22232e-14
4.23574e-14
4.22963e-14
4.24036e-14
4.23606e-14
4.24466e-14
4.2471e-14
4.25078e-14
4.25798e-14
4.25756e-14
4.26673e-14
4.2704e-14
4.26711e-14
4.28153e-14
4.27176e-14
4.28946e-14
4.27742e-14
4.29761e-14
4.2751e-14
4.29734e-14
4.28189e-14
4.29727e-14
4.2869e-14
4.29947e-14
4.29057e-14
4.30039e-14
4.29937e-14
4.30565e-14
4.29872e-14
4.31532e-14
4.29976e-14
4.32144e-14
4.2988e-14
4.32127e-14
4.30515e-14
4.3175e-14
4.30721e-14
4.31849e-14
4.3085e-14
4.32079e-14
4.30895e-14
4.31784e-14
4.30544e-14
4.31565e-14
4.30744e-14
4.32419e-14
4.30804e-14
4.32758e-14
4.31043e-14
4.31931e-14
4.31208e-14
4.31856e-14
4.31315e-14
4.32181e-14
4.30661e-14
4.31898e-14
4.30577e-14
4.31696e-14
4.31081e-14
4.31893e-14
4.30652e-14
4.31953e-14
4.30469e-14
4.31395e-14
4.30389e-14
4.31938e-14
4.30208e-14
4.32056e-14
4.30091e-14
4.31938e-14
4.30045e-14
4.31226e-14
4.3011e-14
4.30942e-14
4.30312e-14
4.31062e-14
4.30131e-14
4.31416e-14
4.30075e-14
4.31121e-14
4.30334e-14
4.30701e-14
4.3039e-14
4.30488e-14
4.30624e-14
4.30838e-14
4.31212e-14
4.31382e-14
4.31221e-14
4.31556e-14
4.31576e-14
4.31558e-14
4.31352e-14
4.32328e-14
4.31266e-14
4.33152e-14
4.31666e-14
4.33293e-14
4.31614e-14
4.33509e-14
4.31681e-14
4.33808e-14
4.31861e-14
4.34186e-14
4.32152e-14
4.33867e-14
4.32575e-14
4.33995e-14
4.32951e-14
4.34364e-14
4.33476e-14
4.34777e-14
4.33955e-14
4.35236e-14
4.34791e-14
4.35345e-14
4.35021e-14
4.3567e-14
4.35234e-14
4.35417e-14
4.35442e-14
4.35163e-14
4.3586e-14
4.35292e-14
4.36698e-14
4.35796e-14
4.37361e-14
4.36472e-14
4.37652e-14
4.36919e-14
4.3756e-14
4.36937e-14
4.37891e-14
4.3693e-14
4.38039e-14
4.37298e-14
4.38003e-14
4.37639e-14
4.37979e-14
4.37962e-14
4.38161e-14
4.38274e-14
4.3834e-14
4.38477e-14
4.38313e-14
4.38266e-14
4.38186e-14
4.38358e-14
4.3826e-14
4.38651e-14
4.38739e-14
4.39046e-14
4.388e-14
4.3944e-14
4.38851e-14
4.39631e-14
4.39098e-14
4.39724e-14
4.39334e-14
4.39925e-14
4.39562e-14
4.40444e-14
4.39675e-14
4.4066e-14
4.39881e-14
4.4047e-14
4.39978e-14
4.40495e-14
4.40069e-14
4.40733e-14
4.40467e-14
4.40979e-14
4.4065e-14
4.4123e-14
4.40723e-14
4.41279e-14
4.40999e-14
4.41336e-14
4.41482e-14
4.41399e-14
4.41655e-14
4.41462e-14
4.41937e-14
4.41523e-14
4.42017e-14
4.41579e-14
4.42e-14
4.41945e-14
4.42196e-14
4.42102e-14
4.42397e-14
4.42153e-14
4.42289e-14
4.42201e-14
4.4229e-14
4.42248e-14
4.42398e-14
4.42504e-14
4.42507e-14
4.4297e-14
4.42615e-14
4.43229e-14
4.42825e-14
4.43179e-14
4.42824e-14
4.43237e-14
4.42927e-14
4.43298e-14
4.42923e-14
4.43466e-14
4.42916e-14
4.43638e-14
4.42906e-14
4.43815e-14
4.42891e-14
4.4379e-14
4.42975e-14
4.43877e-14
4.43053e-14
4.44073e-14
4.43021e-14
4.44173e-14
4.42984e-14
4.44125e-14
4.43095e-14
4.44085e-14
4.43201e-14
4.44103e-14
4.43355e-14
4.44126e-14
4.433e-14
4.44155e-14
4.43396e-14
4.44188e-14
4.43284e-14
4.44225e-14
4.43219e-14
4.44318e-14
4.43354e-14
4.44417e-14
4.43433e-14
4.44673e-14
4.43507e-14
4.44781e-14
4.43576e-14
4.44744e-14
4.43539e-14
4.44663e-14
4.43599e-14
4.44838e-14
4.43756e-14
4.44968e-14
4.43958e-14
4.45002e-14
4.43909e-14
4.45091e-14
4.44105e-14
4.45234e-14
4.4425e-14
4.45331e-14
4.44293e-14
4.45333e-14
4.44335e-14
4.45339e-14
4.44474e-14
4.45497e-14
4.44661e-14
4.45659e-14
4.44651e-14
4.45824e-14
4.44688e-14
4.45895e-14
4.44724e-14
4.45923e-14
4.44807e-14
4.45955e-14
4.44936e-14
4.46039e-14
4.44969e-14
4.46127e-14
4.45049e-14
4.46267e-14
4.44985e-14
4.46363e-14
4.45062e-14
4.46322e-14
4.45137e-14
4.46191e-14
4.45071e-14
4.46205e-14
4.45098e-14
4.46269e-14
4.45171e-14
4.46291e-14
4.45265e-14
4.46269e-14
4.4529e-14
4.46275e-14
4.45406e-14
4.46283e-14
4.45499e-14
4.46203e-14
4.45546e-14
4.46104e-14
4.45504e-14
4.45984e-14
4.45552e-14
4.45934e-14
4.45579e-14
4.45931e-14
4.45606e-14
4.45884e-14
4.45635e-14
4.45752e-14
4.45664e-14
4.45664e-14
4.4576e-14
4.45665e-14
4.45771e-14
4.45667e-14
4.45826e-14
4.45582e-14
4.4584e-14
4.45499e-14
4.45898e-14
4.45459e-14
4.45999e-14
4.45397e-14
4.45998e-14
4.45378e-14
4.45956e-14
4.45337e-14
4.45897e-14
4.45338e-14
4.45839e-14
4.45359e-14
4.45784e-14
4.454e-14
4.4571e-14
4.4542e-14
4.45637e-14
4.45419e-14
4.45567e-14
4.45419e-14
4.45557e-14
4.45439e-14
4.45469e-14
4.45498e-14
4.45362e-14
4.45518e-14
4.45296e-14
4.4548e-14
4.45269e-14
4.45461e-14
4.45223e-14
4.45462e-14
4.45197e-14
4.45445e-14
4.45134e-14
4.45427e-14
4.4508e-14
4.45373e-14
4.45036e-14
4.45347e-14
4.44993e-14
4.45313e-14
4.4495e-14
4.45242e-14
4.44917e-14
4.45181e-14
4.44929e-14
4.45148e-14
4.44897e-14
4.45142e-14
4.44864e-14
4.45136e-14
4.44814e-14
4.45139e-14
4.44818e-14
4.45124e-14
4.44813e-14
4.45075e-14
4.44799e-14
4.45035e-14
4.44742e-14
4.45047e-14
4.44711e-14
4.45041e-14
4.44681e-14
4.45028e-14
4.44659e-14
4.4504e-14
4.44637e-14
4.45018e-14
4.44624e-14
4.44996e-14
4.4461e-14
4.44983e-14
4.44589e-14
4.4497e-14
4.44575e-14
4.44957e-14
4.4457e-14
4.44937e-14
4.44549e-14
4.44924e-14
4.44544e-14
4.44912e-14
4.44522e-14
4.44916e-14
4.44517e-14
4.44912e-14
4.44512e-14
4.449e-14
4.4451e-14
4.44889e-14
4.44505e-14
4.44889e-14
4.44495e-14
4.44894e-14
4.44486e-14
4.44894e-14
4.4448e-14
4.44895e-14
4.44474e-14
4.44888e-14
4.44469e-14
4.44885e-14
4.44463e-14
4.44894e-14
4.44461e-14
4.44904e-14
4.44455e-14
4.44893e-14
4.44461e-14
4.4489e-14
4.44459e-14
4.44891e-14
4.44453e-14
4.44893e-14
4.44442e-14
4.44899e-14
4.44435e-14
4.44905e-14
4.44433e-14
4.44911e-14
4.44435e-14
4.44913e-14
4.44428e-14
4.44919e-14
4.44412e-14
4.44922e-14
4.44401e-14
4.44919e-14
4.44393e-14
4.44922e-14
4.4439e-14
4.44929e-14
4.44383e-14
4.44934e-14
4.44379e-14
4.44936e-14
4.44376e-14
4.44923e-14
4.44372e-14
4.44919e-14
4.44364e-14
4.44929e-14
4.44356e-14
4.4494e-14
4.4435e-14
4.4494e-14
4.44343e-14
4.44946e-14
4.44334e-14
4.44954e-14
4.44328e-14
4.44961e-14
4.44321e-14
4.44962e-14
4.44324e-14
4.44963e-14
4.44322e-14
4.44972e-14
4.44317e-14
4.44984e-14
4.44317e-14
4.44986e-14
4.4432e-14
4.4499e-14
4.44323e-14
4.44994e-14
4.44325e-14
4.44996e-14
4.44328e-14
4.45001e-14
4.44325e-14
4.45017e-14
4.44324e-14
4.45028e-14
4.44324e-14
4.45033e-14
4.44326e-14
4.45035e-14
4.44332e-14
4.45039e-14
4.44331e-14
4.45048e-14
4.44328e-14
4.45057e-14
4.44329e-14
4.45059e-14
4.44322e-14
4.45065e-14
4.44322e-14