/*--------------------------------*- C++ -*----------------------------------*\
| =========                 |                                                 |
| \\      /  F ield         | OpenFOAM: The Open Source CFD Toolbox           |
|  \\    /   O peration     | Version:  2106                                  |
|   \\  /    A nd           | Website:  www.openfoam.com                      |
|    \\/     M anipulation  |                                                 |
\*---------------------------------------------------------------------------*/
FoamFile
{
    version     2.0;
    format      ascii;
    arch        "LSB;label=32;scalar=64";
    class       volSymmTensorField;
    location    "19000";
    object      turbulenceProperties:R;
}
// * * * * * * * * * * * * * * * * * * * * * * * * * * * * * * * * * * * * * //

dimensions      [0 2 -2 0 0 0 0];

internalField   nonuniform List<symmTensor> 
2560
(
(1.8845e-08 -6.81442e-14 -9.86474e-17 1.8845e-08 8.42509e-28 1.8845e-08)
(1.8845e-08 -6.81442e-14 -9.86474e-17 1.8845e-08 2.21523e-28 1.8845e-08)
(2.83469e-09 -5.89089e-14 -2.57087e-16 2.83469e-09 2.2651e-28 2.83469e-09)
(2.83469e-09 -5.89089e-14 -2.57087e-16 2.83469e-09 4.8247e-28 2.83469e-09)
(1.31728e-09 -8.07463e-14 -4.84687e-16 1.31728e-09 2.61719e-28 1.31728e-09)
(1.31728e-09 -8.07463e-14 -4.84687e-16 1.31728e-09 3.97643e-29 1.31728e-09)
(2.16534e-09 -2.81438e-13 -1.71391e-15 2.16534e-09 6.03095e-28 2.16534e-09)
(2.16534e-09 -2.81438e-13 -1.71391e-15 2.16534e-09 1.3832e-28 2.16534e-09)
(4.93056e-09 -1.13051e-12 -6.98476e-15 4.93056e-09 2.31416e-27 4.93056e-09)
(4.93056e-09 -1.13051e-12 -6.98476e-15 4.93056e-09 5.53787e-28 4.93056e-09)
(1.02663e-08 -3.706e-12 -2.323e-14 1.02663e-08 7.6938e-27 1.02663e-08)
(1.02663e-08 -3.706e-12 -2.323e-14 1.02663e-08 1.8075e-27 1.02663e-08)
(1.91235e-08 -1.00708e-11 -6.40436e-14 1.91235e-08 2.13467e-26 1.91235e-08)
(1.91235e-08 -1.00708e-11 -6.40436e-14 1.91235e-08 4.88612e-27 1.91235e-08)
(3.26348e-08 -2.37477e-11 -1.53216e-13 3.26348e-08 5.00006e-26 3.26348e-08)
(3.26348e-08 -2.37477e-11 -1.53216e-13 3.26348e-08 1.14533e-26 3.26348e-08)
(5.20941e-08 -5.03063e-11 -3.29286e-13 5.20941e-08 8.14329e-26 5.20941e-08)
(5.20941e-08 -5.03063e-11 -3.29286e-13 5.20941e-08 2.41016e-26 5.20941e-08)
(7.8956e-08 -9.80762e-11 -6.51302e-13 7.8956e-08 1.16122e-25 7.8956e-08)
(7.8956e-08 -9.80762e-11 -6.51302e-13 7.8956e-08 4.66445e-26 7.8956e-08)
(1.14841e-07 -1.79004e-10 -1.20601e-12 1.14841e-07 2.17063e-25 1.14841e-07)
(1.14841e-07 -1.79004e-10 -1.20601e-12 1.14841e-07 8.44427e-26 1.14841e-07)
(1.61546e-07 -3.09674e-10 -2.11671e-12 1.61546e-07 3.85138e-25 1.61546e-07)
(1.61546e-07 -3.09674e-10 -2.11671e-12 1.61546e-07 1.4479e-25 1.61546e-07)
(2.21052e-07 -5.12515e-10 -3.55411e-12 2.21052e-07 6.53989e-25 2.21052e-07)
(2.21052e-07 -5.12515e-10 -3.55411e-12 2.21052e-07 2.37347e-25 2.21052e-07)
(2.95534e-07 -8.17215e-10 -5.7495e-12 2.95534e-07 1.07035e-24 2.95534e-07)
(2.95534e-07 -8.17215e-10 -5.7495e-12 2.95534e-07 3.74565e-25 2.95534e-07)
(3.87378e-07 -1.26238e-09 -9.01056e-12 3.87378e-07 1.69783e-24 3.87378e-07)
(3.87378e-07 -1.26238e-09 -9.01056e-12 3.87378e-07 5.72082e-25 3.87378e-07)
(4.99189e-07 -1.89744e-09 -1.37404e-11 4.99189e-07 2.62065e-24 4.99189e-07)
(4.99189e-07 -1.89744e-09 -1.37404e-11 4.99189e-07 8.49287e-25 4.99189e-07)
(6.33808e-07 -2.78491e-09 -2.04603e-11 6.33808e-07 3.94939e-24 6.33808e-07)
(6.33808e-07 -2.78491e-09 -2.04603e-11 6.33808e-07 1.23026e-24 6.33808e-07)
(7.94326e-07 -4.00291e-09 -2.98363e-11 7.94326e-07 5.82913e-24 7.94326e-07)
(7.94326e-07 -4.00291e-09 -2.98363e-11 7.94326e-07 1.74403e-24 7.94326e-07)
(9.84098e-07 -5.64814e-09 -4.27113e-11 9.84098e-07 8.44442e-24 9.84098e-07)
(9.84098e-07 -5.64814e-09 -4.27113e-11 9.84098e-07 2.6405e-24 9.84098e-07)
(1.20676e-06 -7.83924e-09 -6.01422e-11 1.20676e-06 1.20323e-23 1.20676e-06)
(1.20676e-06 -7.83924e-09 -6.01422e-11 1.20676e-06 4.05462e-24 1.20676e-06)
(1.46626e-06 -1.07207e-08 -8.34441e-11 1.46626e-06 1.6896e-23 1.46626e-06)
(1.46626e-06 -1.07207e-08 -8.34441e-11 1.46626e-06 5.71358e-24 1.46626e-06)
(1.76685e-06 -1.4467e-08 -1.14241e-10 1.76685e-06 2.34145e-23 1.76685e-06)
(1.76685e-06 -1.4467e-08 -1.14241e-10 1.76685e-06 7.73367e-24 1.76685e-06)
(2.11312e-06 -1.92881e-08 -1.54526e-10 2.11312e-06 3.20469e-23 2.11312e-06)
(2.11312e-06 -1.92881e-08 -1.54526e-10 2.11312e-06 1.03385e-23 2.11312e-06)
(2.51004e-06 -2.54346e-08 -2.0673e-10 2.51004e-06 4.33706e-23 2.51004e-06)
(2.51004e-06 -2.54346e-08 -2.0673e-10 2.51004e-06 1.36721e-23 2.51004e-06)
(2.96294e-06 -3.32042e-08 -2.73805e-10 2.96294e-06 5.81235e-23 2.96294e-06)
(2.96294e-06 -3.32042e-08 -2.73805e-10 2.96294e-06 1.78969e-23 2.96294e-06)
(3.47757e-06 -4.29492e-08 -3.59312e-10 3.47757e-06 7.71919e-23 3.47757e-06)
(3.47757e-06 -4.29492e-08 -3.59312e-10 3.47757e-06 2.32083e-23 3.47757e-06)
(4.0601e-06 -5.50844e-08 -4.67535e-10 4.0601e-06 1.01623e-22 4.0601e-06)
(4.0601e-06 -5.50844e-08 -4.67535e-10 4.0601e-06 2.98314e-23 4.0601e-06)
(4.71717e-06 -7.00962e-08 -6.03599e-10 4.71717e-06 1.32725e-22 4.71717e-06)
(4.71717e-06 -7.00962e-08 -6.03599e-10 4.71717e-06 3.80084e-23 4.71717e-06)
(5.4559e-06 -8.85529e-08 -7.73615e-10 5.4559e-06 1.72114e-22 5.4559e-06)
(5.4559e-06 -8.85529e-08 -7.73615e-10 5.4559e-06 4.80591e-23 5.4559e-06)
(6.28391e-06 -1.11116e-07 -9.84845e-10 6.28391e-06 2.2164e-22 6.28391e-06)
(6.28391e-06 -1.11116e-07 -9.84845e-10 6.28391e-06 6.03644e-23 6.28391e-06)
(7.20939e-06 -1.38554e-07 -1.24589e-09 7.20939e-06 2.83559e-22 7.20939e-06)
(7.20939e-06 -1.38554e-07 -1.24589e-09 7.20939e-06 7.53268e-23 7.20939e-06)
(8.24108e-06 -1.71755e-07 -1.56688e-09 8.24108e-06 3.6065e-22 8.24108e-06)
(8.24108e-06 -1.71755e-07 -1.56688e-09 8.24108e-06 9.33945e-23 8.24108e-06)
(9.38835e-06 -2.11743e-07 -1.95977e-09 9.38835e-06 4.56179e-22 9.38835e-06)
(9.38835e-06 -2.11743e-07 -1.95977e-09 9.38835e-06 1.15095e-22 9.38835e-06)
(1.06612e-05 -2.59698e-07 -2.43855e-09 1.06612e-05 4.5935e-22 1.06612e-05)
(1.06612e-05 -2.59698e-07 -2.43855e-09 1.06612e-05 1.4122e-22 1.06612e-05)
(1.20703e-05 -3.16972e-07 -3.01962e-09 1.20703e-05 1.16762e-24 1.20703e-05)
(1.20703e-05 -3.16972e-07 -3.01962e-09 1.20703e-05 1.72355e-22 1.20703e-05)
(1.36271e-05 -3.85114e-07 -3.72211e-09 1.36271e-05 -2.69223e-22 1.36271e-05)
(1.36271e-05 -3.85114e-07 -3.72211e-09 1.36271e-05 2.09027e-22 1.36271e-05)
(1.53438e-05 -4.65892e-07 -4.56828e-09 1.53438e-05 -3.29197e-22 1.53438e-05)
(1.53438e-05 -4.65892e-07 -4.56828e-09 1.53438e-05 2.52522e-22 1.53438e-05)
(1.72333e-05 -5.61322e-07 -5.58402e-09 1.72333e-05 -4.0062e-22 1.72333e-05)
(1.72333e-05 -5.61322e-07 -5.58402e-09 1.72333e-05 3.03855e-22 1.72333e-05)
(1.93095e-05 -6.73694e-07 -6.79932e-09 1.93095e-05 -4.84791e-22 1.93095e-05)
(1.93095e-05 -6.73694e-07 -6.79932e-09 1.93095e-05 3.64404e-22 1.93095e-05)
(2.1587e-05 -8.05607e-07 -8.24885e-09 2.1587e-05 -5.83216e-22 2.1587e-05)
(2.1587e-05 -8.05607e-07 -8.24885e-09 2.1587e-05 4.35178e-22 2.1587e-05)
(2.40816e-05 -9.60005e-07 -9.97266e-09 2.40816e-05 -6.97647e-22 2.40816e-05)
(2.40816e-05 -9.60005e-07 -9.97266e-09 2.40816e-05 5.17044e-22 2.40816e-05)
(2.68098e-05 -1.14021e-06 -1.20169e-08 2.68098e-05 -8.31102e-22 2.68098e-05)
(2.68098e-05 -1.14021e-06 -1.20169e-08 2.68098e-05 6.12046e-22 2.68098e-05)
(2.97895e-05 -1.34998e-06 -1.44345e-08 2.97895e-05 -9.8682e-22 2.97895e-05)
(2.97895e-05 -1.34998e-06 -1.44345e-08 2.97895e-05 7.22088e-22 2.97895e-05)
(3.30394e-05 -1.59354e-06 -1.72863e-08 3.30394e-05 -1.16672e-21 3.30394e-05)
(3.30394e-05 -1.59354e-06 -1.72863e-08 3.30394e-05 8.49442e-22 3.30394e-05)
(3.65794e-05 -1.87563e-06 -2.0642e-08 3.65794e-05 -1.37342e-21 3.65794e-05)
(3.65794e-05 -1.87563e-06 -2.0642e-08 3.65794e-05 9.96818e-22 3.65794e-05)
(4.04306e-05 -2.20158e-06 -2.45814e-08 4.04306e-05 -1.60936e-21 4.04306e-05)
(4.04306e-05 -2.20158e-06 -2.45814e-08 4.04306e-05 1.1655e-21 4.04306e-05)
(4.46156e-05 -2.57735e-06 -2.91952e-08 4.46156e-05 -1.87573e-21 4.46156e-05)
(4.46156e-05 -2.57735e-06 -2.91952e-08 4.46156e-05 1.35746e-21 4.46156e-05)
(4.9158e-05 -3.00961e-06 -3.4587e-08 4.9158e-05 -2.17878e-21 4.9158e-05)
(4.9158e-05 -3.00961e-06 -3.4587e-08 4.9158e-05 1.57805e-21 4.9158e-05)
(5.4083e-05 -3.5058e-06 -4.08747e-08 5.4083e-05 -2.52464e-21 5.4083e-05)
(5.4083e-05 -3.5058e-06 -4.08747e-08 5.4083e-05 1.82803e-21 5.4083e-05)
(5.94171e-05 -4.07419e-06 -4.81918e-08 5.94171e-05 -2.91987e-21 5.94171e-05)
(5.94171e-05 -4.07419e-06 -4.81918e-08 5.94171e-05 2.10784e-21 5.94171e-05)
(6.51885e-05 -4.724e-06 -5.669e-08 6.51885e-05 -3.36879e-21 6.51885e-05)
(6.51885e-05 -4.724e-06 -5.669e-08 6.51885e-05 2.42429e-21 6.51885e-05)
(7.14266e-05 -5.46545e-06 -6.65405e-08 7.14266e-05 -3.86587e-21 7.14266e-05)
(7.14266e-05 -5.46545e-06 -6.65405e-08 7.14266e-05 2.78454e-21 7.14266e-05)
(7.81629e-05 -6.30986e-06 -7.79369e-08 7.81629e-05 -4.41967e-21 7.81629e-05)
(7.81629e-05 -6.30986e-06 -7.79369e-08 7.81629e-05 3.19384e-21 7.81629e-05)
(8.54302e-05 -7.26976e-06 -9.10973e-08 8.54302e-05 -5.03233e-21 8.54302e-05)
(8.54302e-05 -7.26976e-06 -9.10973e-08 8.54302e-05 3.65826e-21 8.54302e-05)
(9.32632e-05 -8.35896e-06 -1.06267e-07 9.32632e-05 -5.69889e-21 9.32632e-05)
(9.32632e-05 -8.35896e-06 -1.06267e-07 9.32632e-05 4.17016e-21 9.32632e-05)
(0.000101698 -9.59267e-06 -1.23722e-07 0.000101698 -6.44138e-21 0.000101698)
(0.000101698 -9.59267e-06 -1.23722e-07 0.000101698 4.73786e-21 0.000101698)
(0.000110774 -1.09876e-05 -1.43771e-07 0.000110774 -7.25186e-21 0.000110774)
(0.000110774 -1.09876e-05 -1.43771e-07 0.000110774 5.36879e-21 0.000110774)
(0.00012053 -1.25622e-05 -1.6676e-07 0.00012053 -8.14367e-21 0.00012053)
(0.00012053 -1.25622e-05 -1.6676e-07 0.00012053 6.06808e-21 0.00012053)
(0.000131009 -1.43364e-05 -1.93074e-07 0.000131009 -9.12751e-21 0.000131009)
(0.000131009 -1.43364e-05 -1.93074e-07 0.000131009 6.86472e-21 0.000131009)
(0.000142255 -1.63322e-05 -2.23145e-07 0.000142255 -1.01728e-20 0.000142255)
(0.000142255 -1.63322e-05 -2.23145e-07 0.000142255 7.74214e-21 0.000142255)
(0.000154314 -1.85735e-05 -2.57449e-07 0.000154314 -1.12988e-20 0.000154314)
(0.000154314 -1.85735e-05 -2.57449e-07 0.000154314 8.68419e-21 0.000154314)
(0.000167233 -2.10862e-05 -2.96517e-07 0.000167233 -1.2495e-20 0.000167233)
(0.000167233 -2.10862e-05 -2.96517e-07 0.000167233 9.6898e-21 0.000167233)
(0.000181064 -2.38986e-05 -3.40938e-07 0.000181064 -1.37657e-20 0.000181064)
(0.000181064 -2.38986e-05 -3.40938e-07 0.000181064 1.08224e-20 0.000181064)
(0.000195857 -2.70409e-05 -3.91359e-07 0.000195857 -1.50926e-20 0.000195857)
(0.000195857 -2.70409e-05 -3.91359e-07 0.000195857 1.20459e-20 0.000195857)
(0.000211667 -3.05459e-05 -4.48494e-07 0.000211667 -1.65017e-20 0.000211667)
(0.000211667 -3.05459e-05 -4.48494e-07 0.000211667 1.33055e-20 0.000211667)
(0.00022855 -3.4449e-05 -5.1313e-07 0.00022855 -1.80564e-20 0.00022855)
(0.00022855 -3.4449e-05 -5.1313e-07 0.00022855 1.47339e-20 0.00022855)
(0.000246563 -3.87878e-05 -5.86126e-07 0.000246563 -1.94884e-20 0.000246563)
(0.000246563 -3.87878e-05 -5.86126e-07 0.000246563 1.62191e-20 0.000246563)
(0.000265765 -4.36026e-05 -6.68423e-07 0.000265765 -2.1001e-20 0.000265765)
(0.000265765 -4.36026e-05 -6.68423e-07 0.000265765 1.7802e-20 0.000265765)
(0.000286218 -4.89362e-05 -7.61044e-07 0.000286218 -2.26826e-20 0.000286218)
(0.000286218 -4.89362e-05 -7.61044e-07 0.000286218 1.95025e-20 0.000286218)
(0.000307984 -5.4834e-05 -8.65103e-07 0.000307984 -2.41993e-20 0.000307984)
(0.000307984 -5.4834e-05 -8.65103e-07 0.000307984 2.11783e-20 0.000307984)
(0.000331127 -6.13438e-05 -9.81803e-07 0.000331127 -2.56545e-20 0.000331127)
(0.000331127 -6.13438e-05 -9.81803e-07 0.000331127 2.29302e-20 0.000331127)
(0.000355712 -6.85161e-05 -1.11245e-06 0.000355712 -2.7248e-20 0.000355712)
(0.000355712 -6.85161e-05 -1.11245e-06 0.000355712 2.4796e-20 0.000355712)
(0.000381804 -7.64032e-05 -1.25843e-06 0.000381804 -2.8741e-20 0.000381804)
(0.000381804 -7.64032e-05 -1.25843e-06 0.000381804 2.67358e-20 0.000381804)
(0.000409469 -8.50599e-05 -1.42124e-06 0.000409469 -3.00405e-20 0.000409469)
(0.000409469 -8.50599e-05 -1.42124e-06 0.000409469 2.87779e-20 0.000409469)
(0.000438775 -9.45427e-05 -1.60249e-06 0.000438775 -3.13356e-20 0.000438775)
(0.000438775 -9.45427e-05 -1.60249e-06 0.000438775 3.10561e-20 0.000438775)
(0.000469787 -0.00010491 -1.80386e-06 0.000469787 9.41583e-21 0.000469787)
(0.000469787 -0.00010491 -1.80386e-06 0.000469787 3.32273e-20 0.000469787)
(0.000502571 -0.00011622 -2.02714e-06 0.000502571 8.97882e-20 0.000502571)
(0.000502571 -0.00011622 -2.02714e-06 0.000502571 3.50857e-20 0.000502571)
(0.000537193 -0.000128535 -2.27424e-06 0.000537193 1.35919e-19 0.000537193)
(0.000537193 -0.000128535 -2.27424e-06 0.000537193 3.71171e-20 0.000537193)
(0.000573715 -0.000141913 -2.54711e-06 0.000573715 1.54176e-19 0.000573715)
(0.000573715 -0.000141913 -2.54711e-06 0.000573715 3.93489e-20 0.000573715)
(0.000612199 -0.000156416 -2.84781e-06 0.000612199 1.74838e-19 0.000612199)
(0.000612199 -0.000156416 -2.84781e-06 0.000612199 1.39942e-19 0.000612199)
(0.000652703 -0.000172103 -3.17849e-06 0.000652703 1.97042e-19 0.000652703)
(0.000652703 -0.000172103 -3.17849e-06 0.000652703 2.73495e-19 0.000652703)
(0.000695284 -0.000189032 -3.54132e-06 0.000695284 2.20933e-19 0.000695284)
(0.000695284 -0.000189032 -3.54132e-06 0.000695284 3.12535e-19 0.000695284)
(0.000739994 -0.000207259 -3.93856e-06 0.000739994 2.48067e-19 0.000739994)
(0.000739994 -0.000207259 -3.93856e-06 0.000739994 3.40687e-19 0.000739994)
(0.00078688 -0.000226838 -4.37248e-06 0.00078688 2.78305e-19 0.00078688)
(0.00078688 -0.000226838 -4.37248e-06 0.00078688 3.70332e-19 0.00078688)
(0.000835985 -0.000247817 -4.84539e-06 0.000835985 3.09999e-19 0.000835985)
(0.000835985 -0.000247817 -4.84539e-06 0.000835985 4.00841e-19 0.000835985)
(0.000887346 -0.000270241 -5.3596e-06 0.000887346 3.44226e-19 0.000887346)
(0.000887346 -0.000270241 -5.3596e-06 0.000887346 4.31215e-19 0.000887346)
(0.000940993 -0.00029415 -5.91737e-06 0.000940993 3.80013e-19 0.000940993)
(0.000940993 -0.00029415 -5.91737e-06 0.000940993 4.63659e-19 0.000940993)
(0.00099695 -0.000319579 -6.52098e-06 0.00099695 4.17724e-19 0.00099695)
(0.00099695 -0.000319579 -6.52098e-06 0.00099695 4.98485e-19 0.00099695)
(0.00105523 -0.000346553 -7.1726e-06 0.00105523 4.59093e-19 0.00105523)
(0.00105523 -0.000346553 -7.1726e-06 0.00105523 5.32524e-19 0.00105523)
(0.00111585 -0.000375093 -7.87434e-06 0.00111585 5.02422e-19 0.00111585)
(0.00111585 -0.000375093 -7.87434e-06 0.00111585 5.65991e-19 0.00111585)
(0.0011788 -0.000405209 -8.62822e-06 0.0011788 5.49841e-19 0.0011788)
(0.0011788 -0.000405209 -8.62822e-06 0.0011788 6.00156e-19 0.0011788)
(0.00124407 -0.000436906 -9.43611e-06 0.00124407 5.99971e-19 0.00124407)
(0.00124407 -0.000436906 -9.43611e-06 0.00124407 6.34742e-19 0.00124407)
(0.00131165 -0.000470176 -1.02998e-05 0.00131165 6.53121e-19 0.00131165)
(0.00131165 -0.000470176 -1.02998e-05 0.00131165 6.65358e-19 0.00131165)
(0.00138151 -0.000505005 -1.12207e-05 0.00138151 7.09508e-19 0.00138151)
(0.00138151 -0.000505005 -1.12207e-05 0.00138151 6.94783e-19 0.00138151)
(0.0014536 -0.000541367 -1.22005e-05 0.0014536 7.66582e-19 0.0014536)
(0.0014536 -0.000541367 -1.22005e-05 0.0014536 7.28863e-19 0.0014536)
(0.00152788 -0.000579229 -1.32401e-05 0.00152788 8.32919e-19 0.00152788)
(0.00152788 -0.000579229 -1.32401e-05 0.00152788 7.5932e-19 0.00152788)
(0.00160429 -0.000618547 -1.43407e-05 0.00160429 9.03595e-19 0.00160429)
(0.00160429 -0.000618547 -1.43407e-05 0.00160429 7.84618e-19 0.00160429)
(0.00168277 -0.000659267 -1.5503e-05 0.00168277 9.67395e-19 0.00168277)
(0.00168277 -0.000659267 -1.5503e-05 0.00168277 8.07464e-19 0.00168277)
(0.00176323 -0.000701329 -1.67275e-05 0.00176323 1.02423e-18 0.00176323)
(0.00176323 -0.000701329 -1.67275e-05 0.00176323 8.27464e-19 0.00176323)
(0.00184558 -0.000744662 -1.80146e-05 0.00184558 1.08161e-18 0.00184558)
(0.00184558 -0.000744662 -1.80146e-05 0.00184558 8.44171e-19 0.00184558)
(0.00192974 -0.00078919 -1.93644e-05 0.00192974 1.14562e-18 0.00192974)
(0.00192974 -0.00078919 -1.93644e-05 0.00192974 8.57807e-19 0.00192974)
(0.0020156 -0.000834829 -2.07768e-05 0.0020156 1.2114e-18 0.0020156)
(0.0020156 -0.000834829 -2.07768e-05 0.0020156 8.76414e-19 0.0020156)
(0.00210304 -0.000881488 -2.22515e-05 0.00210304 1.27509e-18 0.00210304)
(0.00210304 -0.000881488 -2.22515e-05 0.00210304 8.92022e-19 0.00210304)
(0.00219196 -0.000929074 -2.37878e-05 0.00219196 1.33883e-18 0.00219196)
(0.00219196 -0.000929074 -2.37878e-05 0.00219196 8.92794e-19 0.00219196)
(0.00228222 -0.000977486 -2.53852e-05 0.00228222 1.40465e-18 0.00228222)
(0.00228222 -0.000977486 -2.53852e-05 0.00228222 8.96197e-19 0.00228222)
(0.0023737 -0.00102662 -2.70426e-05 0.0023737 1.47244e-18 0.0023737)
(0.0023737 -0.00102662 -2.70426e-05 0.0023737 8.96827e-19 0.0023737)
(0.00246627 -0.00107638 -2.87591e-05 0.00246627 1.53194e-18 0.00246627)
(0.00246627 -0.00107638 -2.87591e-05 0.00246627 8.75745e-19 0.00246627)
(0.00255979 -0.00112666 -3.05333e-05 0.00255979 1.5774e-18 0.00255979)
(0.00255979 -0.00112666 -3.05333e-05 0.00255979 8.55564e-19 0.00255979)
(0.00265413 -0.00117735 -3.23641e-05 0.00265413 1.62937e-18 0.00265413)
(0.00265413 -0.00117735 -3.23641e-05 0.00265413 8.43196e-19 0.00265413)
(0.00274914 -0.00122834 -3.42498e-05 0.00274914 1.68309e-18 0.00274914)
(0.00274914 -0.00122834 -3.42498e-05 0.00274914 8.20066e-19 0.00274914)
(0.00284468 -0.00127954 -3.61891e-05 0.00284468 1.73373e-18 0.00284468)
(0.00284468 -0.00127954 -3.61891e-05 0.00284468 7.90368e-19 0.00284468)
(0.00294063 -0.00133085 -3.81803e-05 0.00294063 1.77174e-18 0.00294063)
(0.00294063 -0.00133085 -3.81803e-05 0.00294063 7.60955e-19 0.00294063)
(0.00303683 -0.00138216 -4.02219e-05 0.00303683 1.79163e-18 0.00303683)
(0.00303683 -0.00138216 -4.02219e-05 0.00303683 7.31271e-19 0.00303683)
(0.00313317 -0.00143339 -4.2312e-05 0.00313317 1.82481e-18 0.00313317)
(0.00313317 -0.00143339 -4.2312e-05 0.00313317 6.89955e-19 0.00313317)
(0.00322949 -0.00148444 -4.44491e-05 0.00322949 1.85346e-18 0.00322949)
(0.00322949 -0.00148444 -4.44491e-05 0.00322949 6.47585e-19 0.00322949)
(0.00332568 -0.00153524 -4.66315e-05 0.00332568 1.86739e-18 0.00332568)
(0.00332568 -0.00153524 -4.66315e-05 0.00332568 6.05627e-19 0.00332568)
(0.00342161 -0.00158569 -4.88574e-05 0.00342161 1.89231e-18 0.00342161)
(0.00342161 -0.00158569 -4.88574e-05 0.00342161 5.71705e-19 0.00342161)
(0.00351716 -0.00163573 -5.11254e-05 0.00351716 1.90708e-18 0.00351716)
(0.00351716 -0.00163573 -5.11254e-05 0.00351716 5.5115e-19 0.00351716)
(0.00361221 -0.00168529 -5.34337e-05 0.00361221 1.91188e-18 0.00361221)
(0.00361221 -0.00168529 -5.34337e-05 0.00361221 4.73951e-19 0.00361221)
(0.00370666 -0.0017343 -5.57809e-05 0.00370666 1.91982e-18 0.00370666)
(0.00370666 -0.0017343 -5.57809e-05 0.00370666 3.8727e-19 0.00370666)
(0.0038004 -0.00178271 -5.81655e-05 0.0038004 1.92051e-18 0.0038004)
(0.0038004 -0.00178271 -5.81655e-05 0.0038004 3.52691e-19 0.0038004)
(0.00389333 -0.00183046 -6.0586e-05 0.00389333 1.92292e-18 0.00389333)
(0.00389333 -0.00183046 -6.0586e-05 0.00389333 3.1795e-19 0.00389333)
(0.00398536 -0.00187751 -6.30411e-05 0.00398536 1.95753e-18 0.00398536)
(0.00398536 -0.00187751 -6.30411e-05 0.00398536 2.09749e-19 0.00398536)
(0.00407641 -0.0019238 -6.55295e-05 0.00407641 1.95046e-18 0.00407641)
(0.00407641 -0.0019238 -6.55295e-05 0.00407641 9.42073e-20 0.00407641)
(0.00416639 -0.00196931 -6.805e-05 0.00416639 1.90376e-18 0.00416639)
(0.00416639 -0.00196931 -6.805e-05 0.00416639 2.21264e-20 0.00416639)
(0.00425523 -0.002014 -7.06016e-05 0.00425523 1.87383e-18 0.00425523)
(0.00425523 -0.002014 -7.06016e-05 0.00425523 -8.69211e-20 0.00425523)
(0.00434286 -0.00205784 -7.3183e-05 0.00434286 1.84345e-18 0.00434286)
(0.00434286 -0.00205784 -7.3183e-05 0.00434286 -2.11645e-19 0.00434286)
(0.00442922 -0.0021008 -7.57935e-05 0.00442922 1.7978e-18 0.00442922)
(0.00442922 -0.0021008 -7.57935e-05 0.00442922 -3.23106e-19 0.00442922)
(0.00451426 -0.00214288 -7.84321e-05 0.00451426 1.77708e-18 0.00451426)
(0.00451426 -0.00214288 -7.84321e-05 0.00451426 -3.70979e-19 0.00451426)
(0.00459792 -0.00218404 -8.10979e-05 0.00459792 1.80944e-18 0.00459792)
(0.00459792 -0.00218404 -8.10979e-05 0.00459792 -4.04974e-19 0.00459792)
(0.00468015 -0.00222429 -8.37903e-05 0.00468015 1.83696e-18 0.00468015)
(0.00468015 -0.00222429 -8.37903e-05 0.00468015 -5.25484e-19 0.00468015)
(0.00476093 -0.0022636 -8.65086e-05 0.00476093 1.82369e-18 0.00476093)
(0.00476093 -0.0022636 -8.65086e-05 0.00476093 -7.12444e-19 0.00476093)
(0.00484021 -0.00230197 -8.92521e-05 0.00484021 1.74289e-18 0.00484021)
(0.00484021 -0.00230197 -8.92521e-05 0.00484021 -8.29285e-19 0.00484021)
(0.00491796 -0.00233939 -9.20205e-05 0.00491796 1.72985e-18 0.00491796)
(0.00491796 -0.00233939 -9.20205e-05 0.00491796 -9.13653e-19 0.00491796)
(0.00499416 -0.00237588 -9.48131e-05 0.00499416 1.73407e-18 0.00499416)
(0.00499416 -0.00237588 -9.48131e-05 0.00499416 -1.03499e-18 0.00499416)
(0.00506878 -0.00241142 -9.76297e-05 0.00506878 1.73017e-18 0.00506878)
(0.00506878 -0.00241142 -9.76297e-05 0.00506878 -1.13755e-18 0.00506878)
(0.00514182 -0.00244601 -0.00010047 0.00514182 1.80626e-18 0.00514182)
(0.00514182 -0.00244601 -0.00010047 0.00514182 -1.09906e-18 0.00514182)
(0.00521325 -0.00247967 -0.000103333 0.00521325 1.87173e-18 0.00521325)
(0.00521325 -0.00247967 -0.000103333 0.00521325 -1.15338e-18 0.00521325)
(0.00528307 -0.0025124 -0.00010622 0.00528307 2.08141e-18 0.00528307)
(0.00528307 -0.0025124 -0.00010622 0.00528307 -1.38634e-18 0.00528307)
(0.00535126 -0.00254421 -0.000109129 0.00535126 2.20442e-18 0.00535126)
(0.00535126 -0.00254421 -0.000109129 0.00535126 -1.28355e-18 0.00535126)
(0.00541783 -0.0025751 -0.000112061 0.00541783 2.17046e-18 0.00541783)
(0.00541783 -0.0025751 -0.000112061 0.00541783 -1.26418e-18 0.00541783)
(0.00548278 -0.00260509 -0.000115015 0.00548278 2.04594e-18 0.00548278)
(0.00548278 -0.00260509 -0.000115015 0.00548278 -1.42628e-18 0.00548278)
(0.0055461 -0.00263418 -0.000117993 0.0055461 1.7744e-18 0.0055461)
(0.0055461 -0.00263418 -0.000117993 0.0055461 -1.32753e-18 0.0055461)
(0.0056078 -0.00266239 -0.000120992 0.0056078 1.65998e-18 0.0056078)
(0.0056078 -0.00266239 -0.000120992 0.0056078 -1.22702e-18 0.0056078)
(0.00566789 -0.00268973 -0.000124014 0.00566789 1.53288e-18 0.00566789)
(0.00566789 -0.00268973 -0.000124014 0.00566789 -1.25195e-18 0.00566789)
(0.00572637 -0.00271622 -0.000127059 0.00572637 1.24415e-18 0.00572637)
(0.00572637 -0.00271622 -0.000127059 0.00572637 -1.30589e-18 0.00572637)
(0.00578326 -0.00274186 -0.000130126 0.00578326 1.07307e-18 0.00578326)
(0.00578326 -0.00274186 -0.000130126 0.00578326 -1.26925e-18 0.00578326)
(0.00583856 -0.00276667 -0.000133216 0.00583856 1.01174e-18 0.00583856)
(0.00583856 -0.00276667 -0.000133216 0.00583856 -1.06999e-18 0.00583856)
(0.00589229 -0.00279067 -0.000136328 0.00589229 6.63577e-19 0.00589229)
(0.00589229 -0.00279067 -0.000136328 0.00589229 -1.02158e-18 0.00589229)
(0.00594447 -0.00281386 -0.000139464 0.00594447 1.36244e-19 0.00594447)
(0.00594447 -0.00281386 -0.000139464 0.00594447 -1.02286e-18 0.00594447)
(0.0059951 -0.00283627 -0.000142622 0.0059951 1.70405e-19 0.0059951)
(0.0059951 -0.00283627 -0.000142622 0.0059951 -8.47057e-19 0.0059951)
(0.00604421 -0.0028579 -0.000145804 0.00604421 -1.36949e-19 0.00604421)
(0.00604421 -0.0028579 -0.000145804 0.00604421 -8.28483e-19 0.00604421)
(0.00609181 -0.00287877 -0.000149009 0.00609181 -3.86913e-19 0.00609181)
(0.00609181 -0.00287877 -0.000149009 0.00609181 -8.41413e-19 0.00609181)
(0.00613792 -0.00289891 -0.000152238 0.00613792 -4.02194e-19 0.00613792)
(0.00613792 -0.00289891 -0.000152238 0.00613792 -5.44069e-19 0.00613792)
(0.00618255 -0.00291831 -0.00015549 0.00618255 -6.88327e-19 0.00618255)
(0.00618255 -0.00291831 -0.00015549 0.00618255 -2.93675e-19 0.00618255)
(0.00622574 -0.002937 -0.000158766 0.00622574 -1.33993e-18 0.00622574)
(0.00622574 -0.002937 -0.000158766 0.00622574 -2.93808e-19 0.00622574)
(0.00626749 -0.00295498 -0.000162066 0.00626749 -1.84959e-18 0.00626749)
(0.00626749 -0.00295498 -0.000162066 0.00626749 -4.94674e-19 0.00626749)
(0.00630782 -0.00297228 -0.000165391 0.00630782 -1.61508e-18 0.00630782)
(0.00630782 -0.00297228 -0.000165391 0.00630782 -5.11726e-19 0.00630782)
(0.00634676 -0.00298891 -0.00016874 0.00634676 -1.49732e-18 0.00634676)
(0.00634676 -0.00298891 -0.00016874 0.00634676 1.50901e-19 0.00634676)
(0.00638433 -0.00300488 -0.000172114 0.00638433 -1.46981e-18 0.00638433)
(0.00638433 -0.00300488 -0.000172114 0.00638433 4.43669e-19 0.00638433)
(0.00642054 -0.0030202 -0.000175513 0.00642054 -1.33145e-18 0.00642054)
(0.00642054 -0.0030202 -0.000175513 0.00642054 4.63937e-19 0.00642054)
(0.00645542 -0.00303488 -0.000178938 0.00645542 -1.99722e-18 0.00645542)
(0.00645542 -0.00303488 -0.000178938 0.00645542 6.0337e-19 0.00645542)
(0.00648899 -0.00304895 -0.000182387 0.00648899 -2.73396e-18 0.00648899)
(0.00648899 -0.00304895 -0.000182387 0.00648899 3.2924e-19 0.00648899)
(0.00652126 -0.00306241 -0.000185863 0.00652126 -2.73692e-18 0.00652126)
(0.00652126 -0.00306241 -0.000185863 0.00652126 5.28421e-20 0.00652126)
(0.00655225 -0.00307527 -0.000189364 0.00655225 -2.74676e-18 0.00655225)
(0.00655225 -0.00307527 -0.000189364 0.00655225 -1.28042e-19 0.00655225)
(0.006582 -0.00308755 -0.000192891 0.006582 -2.75467e-18 0.006582)
(0.006582 -0.00308755 -0.000192891 0.006582 -3.36271e-19 0.006582)
(0.00661051 -0.00309925 -0.000196445 0.00661051 -2.62489e-18 0.00661051)
(0.00661051 -0.00309925 -0.000196445 0.00661051 -3.1385e-19 0.00661051)
(0.0066378 -0.0031104 -0.000200025 0.0066378 -2.67923e-18 0.0066378)
(0.0066378 -0.0031104 -0.000200025 0.0066378 -2.92617e-21 0.0066378)
(0.0066639 -0.00312099 -0.000203632 0.0066639 -2.70184e-18 0.0066639)
(0.0066639 -0.00312099 -0.000203632 0.0066639 4.51807e-19 0.0066639)
(0.00668882 -0.00313104 -0.000207266 0.00668882 -2.86363e-18 0.00668882)
(0.00668882 -0.00313104 -0.000207266 0.00668882 4.9665e-19 0.00668882)
(0.00671258 -0.00314057 -0.000210927 0.00671258 -2.97582e-18 0.00671258)
(0.00671258 -0.00314057 -0.000210927 0.00671258 2.4109e-19 0.00671258)
(0.00673521 -0.00314957 -0.000214615 0.00673521 -3.03686e-18 0.00673521)
(0.00673521 -0.00314957 -0.000214615 0.00673521 8.36921e-19 0.00673521)
(0.00675671 -0.00315807 -0.000218331 0.00675671 -2.84255e-18 0.00675671)
(0.00675671 -0.00315807 -0.000218331 0.00675671 1.49695e-18 0.00675671)
(0.0067771 -0.00316606 -0.000222074 0.0067771 -2.67879e-18 0.0067771)
(0.0067771 -0.00316606 -0.000222074 0.0067771 1.27677e-18 0.0067771)
(0.00679641 -0.00317356 -0.000225845 0.00679641 -2.49962e-18 0.00679641)
(0.00679641 -0.00317356 -0.000225845 0.00679641 1.34974e-18 0.00679641)
(0.00681465 -0.00318058 -0.000229644 0.00681465 -2.40439e-18 0.00681465)
(0.00681465 -0.00318058 -0.000229644 0.00681465 1.33079e-18 0.00681465)
(0.00683184 -0.00318713 -0.00023347 0.00683184 -3.35326e-18 0.00683184)
(0.00683184 -0.00318713 -0.00023347 0.00683184 1.42982e-18 0.00683184)
(0.00684799 -0.00319321 -0.000237325 0.00684799 -3.45442e-18 0.00684799)
(0.00684799 -0.00319321 -0.000237325 0.00684799 2.212e-18 0.00684799)
(0.00686311 -0.00319883 -0.000241208 0.00686311 -2.50153e-18 0.00686311)
(0.00686311 -0.00319883 -0.000241208 0.00686311 2.83241e-18 0.00686311)
(0.00687723 -0.00320401 -0.000245119 0.00687723 -2.53053e-18 0.00687723)
(0.00687723 -0.00320401 -0.000245119 0.00687723 3.16729e-18 0.00687723)
(0.00689036 -0.00320874 -0.000249059 0.00689036 -2.61914e-18 0.00689036)
(0.00689036 -0.00320874 -0.000249059 0.00689036 3.01503e-18 0.00689036)
(0.00690251 -0.00321303 -0.000253027 0.00690251 -3.20263e-18 0.00690251)
(0.00690251 -0.00321303 -0.000253027 0.00690251 3.43774e-18 0.00690251)
(0.0069137 -0.00321689 -0.000257023 0.0069137 -3.55637e-18 0.0069137)
(0.0069137 -0.00321689 -0.000257023 0.0069137 4.24594e-18 0.0069137)
(0.00692393 -0.00322033 -0.000261047 0.00692393 -2.90788e-18 0.00692393)
(0.00692393 -0.00322033 -0.000261047 0.00692393 4.26877e-18 0.00692393)
(0.00693324 -0.00322336 -0.0002651 0.00693324 -2.47556e-18 0.00693324)
(0.00693324 -0.00322336 -0.0002651 0.00693324 4.56819e-18 0.00693324)
(0.00694161 -0.00322597 -0.000269182 0.00694161 -2.34582e-18 0.00694161)
(0.00694161 -0.00322597 -0.000269182 0.00694161 4.86446e-18 0.00694161)
(0.00694908 -0.00322818 -0.000273291 0.00694908 -2.95847e-18 0.00694908)
(0.00694908 -0.00322818 -0.000273291 0.00694908 5.24318e-18 0.00694908)
(0.00695565 -0.00322999 -0.000277429 0.00695565 -2.87373e-18 0.00695565)
(0.00695565 -0.00322999 -0.000277429 0.00695565 5.41567e-18 0.00695565)
(0.00696133 -0.00323141 -0.000281595 0.00696133 -2.92985e-18 0.00696133)
(0.00696133 -0.00323141 -0.000281595 0.00696133 5.26343e-18 0.00696133)
(0.00696613 -0.00323243 -0.000285788 0.00696613 -3.75714e-18 0.00696613)
(0.00696613 -0.00323243 -0.000285788 0.00696613 5.30919e-18 0.00696613)
(0.00697007 -0.00323308 -0.00029001 0.00697007 -4.09632e-18 0.00697007)
(0.00697007 -0.00323308 -0.00029001 0.00697007 6.03711e-18 0.00697007)
(0.00697315 -0.00323334 -0.000294259 0.00697315 -3.67037e-18 0.00697315)
(0.00697315 -0.00323334 -0.000294259 0.00697315 7.44538e-18 0.00697315)
(0.00697539 -0.00323323 -0.000298536 0.00697539 -2.59856e-18 0.00697539)
(0.00697539 -0.00323323 -0.000298536 0.00697539 7.98518e-18 0.00697539)
(0.00697679 -0.00323275 -0.00030284 0.00697679 -2.41441e-18 0.00697679)
(0.00697679 -0.00323275 -0.00030284 0.00697679 7.06819e-18 0.00697679)
(0.00697737 -0.0032319 -0.000307171 0.00697737 -2.76601e-18 0.00697737)
(0.00697737 -0.0032319 -0.000307171 0.00697737 7.37909e-18 0.00697737)
(0.00697713 -0.00323068 -0.000311529 0.00697713 -2.35376e-18 0.00697713)
(0.00697713 -0.00323068 -0.000311529 0.00697713 9.5693e-18 0.00697713)
(0.00697608 -0.00322911 -0.000315913 0.00697608 -1.79008e-18 0.00697608)
(0.00697608 -0.00322911 -0.000315913 0.00697608 9.3666e-18 0.00697608)
(0.00697424 -0.00322718 -0.000320323 0.00697424 -1.90335e-18 0.00697424)