/*--------------------------------*- C++ -*----------------------------------*\
| =========                 |                                                 |
| \\      /  F ield         | OpenFOAM: The Open Source CFD Toolbox           |
|  \\    /   O peration     | Version:  2106                                  |
|   \\  /    A nd           | Website:  www.openfoam.com                      |
|    \\/     M anipulation  |                                                 |
\*---------------------------------------------------------------------------*/
FoamFile
{
    version     2.0;
    format      ascii;
    arch        "LSB;label=32;scalar=64";
    class       surfaceScalarField;
    location    "18000";
    object      phi;
}
// * * * * * * * * * * * * * * * * * * * * * * * * * * * * * * * * * * * * * //

dimensions      [0 3 -1 0 0 0 0];

oriented        oriented;

internalField   nonuniform List<scalar> 
5116
(
1.6292e-08
-4.34528e-18
6.54595e-24
-1.39278e-22
4.95312e-23
4.98223e-08
-4.34456e-18
-1.91628e-22
-7.44075e-22
6.39442e-23
8.48103e-08
-4.34385e-18
-1.84456e-22
-1.32931e-21
6.68386e-23
1.21306e-07
-4.34315e-18
-1.82921e-22
-1.92624e-21
6.99006e-23
1.59359e-07
-4.34244e-18
-1.81019e-22
-2.51023e-21
7.31428e-23
1.99023e-07
-4.34178e-18
-1.77859e-22
-3.14466e-21
7.65776e-23
2.40351e-07
-4.34105e-18
-1.74035e-22
-3.7837e-21
8.02184e-23
2.834e-07
-4.34033e-18
-1.69768e-22
-4.40875e-21
8.40775e-23
3.28227e-07
-4.33967e-18
-1.65062e-22
-5.06203e-21
8.81697e-23
3.74892e-07
-4.33891e-18
-1.59915e-22
-5.73628e-21
9.25089e-23
4.23454e-07
-4.33822e-18
-1.54328e-22
-6.2663e-21
9.711e-23
4.73978e-07
-4.33752e-18
-1.48289e-22
-6.95914e-21
1.01987e-22
5.26527e-07
-4.33676e-18
-1.41784e-22
-7.61704e-21
1.07158e-22
5.8117e-07
-4.33597e-18
-1.34797e-22
-8.4333e-21
1.12639e-22
6.37973e-07
-4.33525e-18
-1.27311e-22
-9.1131e-21
1.1845e-22
6.97007e-07
-4.3345e-18
-1.19307e-22
-9.91324e-21
1.24608e-22
7.58346e-07
-4.33401e-18
-1.10769e-22
-1.04819e-20
1.31135e-22
8.22063e-07
-4.33341e-18
-1.01676e-22
-1.09909e-20
1.38048e-22
8.88233e-07
-4.33312e-18
-9.20116e-23
-1.16606e-20
1.45365e-22
9.56937e-07
-4.33227e-18
-8.17493e-23
-1.24644e-20
1.53108e-22
1.02825e-06
-4.3314e-18
-7.08825e-23
-1.34342e-20
1.61303e-22
1.10226e-06
-4.33057e-18
-5.93887e-23
-1.44877e-20
1.6997e-22
1.17904e-06
-4.33068e-18
-4.72523e-23
-1.49943e-20
1.79134e-22
1.25869e-06
-4.33012e-18
-3.44377e-23
-1.56008e-20
1.88819e-22
1.34128e-06
-4.32973e-18
-2.09401e-23
-1.61605e-20
1.99046e-22
1.42689e-06
-4.32931e-18
-6.73591e-24
-1.66303e-20
2.09831e-22
1.51563e-06
-4.32907e-18
8.18981e-24
-1.73427e-20
2.21195e-22
1.60757e-06
-4.3287e-18
2.38537e-23
-1.79858e-20
2.33164e-22
1.70279e-06
-4.32821e-18
4.02584e-23
-1.84344e-20
2.45761e-22
1.80139e-06
-4.32791e-18
5.74147e-23
-1.91748e-20
2.58999e-22
1.90345e-06
-4.32746e-18
7.53306e-23
-1.95313e-20
2.729e-22
2.00904e-06
-4.32686e-18
9.40133e-23
-2.00896e-20
2.87452e-22
2.11825e-06
-4.32617e-18
1.13448e-22
-2.10808e-20
3.02684e-22
2.23115e-06
-4.32565e-18
1.33621e-22
-2.18891e-20
3.18609e-22
2.3478e-06
-4.3249e-18
1.54524e-22
-2.2932e-20
3.3523e-22
2.46827e-06
-4.32424e-18
1.76126e-22
-2.33379e-20
3.5253e-22
2.59263e-06
-4.32416e-18
1.98404e-22
-2.396e-20
3.70487e-22
2.72091e-06
-4.32342e-18
2.21347e-22
-2.513e-20
3.89091e-22
2.85316e-06
-4.32349e-18
2.44895e-22
-2.57924e-20
4.08354e-22
2.98942e-06
-4.32358e-18
2.69023e-22
-2.63781e-20
4.28213e-22
3.12972e-06
-4.32327e-18
2.93662e-22
-2.70972e-20
4.48633e-22
3.27406e-06
-4.32421e-18
3.18749e-22
-2.66718e-20
4.69583e-22
3.42245e-06
-4.32415e-18
3.44258e-22
-2.76726e-20
4.9098e-22
3.5749e-06
-4.3253e-18
3.70059e-22
-2.79391e-20
5.12857e-22
3.73139e-06
-4.32494e-18
3.96106e-22
-2.82519e-20
5.35139e-22
3.8919e-06
-4.32556e-18
4.22244e-22
-2.89948e-20
5.57788e-22
4.0564e-06
-4.32757e-18
4.48395e-22
-2.9018e-20
5.80775e-22
4.22485e-06
-4.32847e-18
4.74518e-22
-2.98142e-20
6.04032e-22
4.39722e-06
-4.32873e-18
5.00464e-22
-3.01768e-20
6.2755e-22
4.57346e-06
-4.33023e-18
5.26162e-22
-3.11811e-20
6.51272e-22
4.75353e-06
-4.32976e-18
5.51574e-22
-3.17611e-20
6.75136e-22
4.93736e-06
-4.33078e-18
5.76574e-22
-3.26781e-20
6.9911e-22
5.12491e-06
-4.3304e-18
6.01185e-22
-3.35827e-20
7.23137e-22
5.31612e-06
-4.32999e-18
6.25348e-22
-3.45151e-20
7.47207e-22
5.51095e-06
-4.32968e-18
6.48969e-22
-3.4681e-20
7.71314e-22
5.70935e-06
-4.32998e-18
6.71923e-22
-3.53044e-20
7.95408e-22
5.91128e-06
-4.33163e-18
6.9426e-22
-3.66776e-20
8.19503e-22
6.1167e-06
-4.33188e-18
7.16015e-22
-3.73938e-20
8.43536e-22
6.32557e-06
-4.33183e-18
7.37123e-22
-3.79842e-20
8.67519e-22
6.53787e-06
-4.332e-18
7.57582e-22
-3.90841e-20
8.91502e-22
6.75358e-06
-4.33188e-18
7.77411e-22
-4.00771e-20
9.15505e-22
6.97268e-06
-4.33072e-18
7.9661e-22
-4.14189e-20
9.39545e-22
7.19517e-06
-4.33098e-18
8.15121e-22
-4.26517e-20
9.63604e-22
7.42104e-06
-4.32963e-18
8.32891e-22
-4.43567e-20
9.87837e-22
7.6503e-06
-4.33009e-18
8.4982e-22
-4.33128e-20
1.01227e-21
7.88295e-06
-4.33478e-18
8.66029e-22
-4.1852e-20
1.03674e-21
8.11902e-06
-4.33645e-18
8.81644e-22
-4.1837e-20
1.06143e-21
8.35854e-06
-4.33823e-18
8.96484e-22
-4.15516e-20
1.08625e-21
8.60152e-06
-4.34235e-18
9.10459e-22
-4.14056e-20
1.1114e-21
8.848e-06
-4.34023e-18
9.23798e-22
-4.13338e-20
1.13696e-21
9.09802e-06
-4.34126e-18
9.36181e-22
-4.25317e-20
1.16277e-21
9.35163e-06
-4.34298e-18
9.47767e-22
-4.29239e-20
1.18896e-21
9.60886e-06
-4.34732e-18
9.5855e-22
-4.25766e-20
1.21541e-21
9.86978e-06
-4.34903e-18
9.68804e-22
-4.19154e-20
1.24219e-21
1.01344e-05
-4.34915e-18
9.7842e-22
-4.21311e-20
1.26926e-21
1.04029e-05
-4.35113e-18
9.87045e-22
-4.44525e-20
1.29685e-21
1.06752e-05
-4.35297e-18
9.94784e-22
-4.50548e-20
1.32492e-21
1.09515e-05
-4.35652e-18
1.00167e-21
-4.77156e-20
1.35323e-21
1.12317e-05
-4.35897e-18
1.00769e-21
-4.91224e-20
1.38203e-21
1.1516e-05
-4.35929e-18
1.01282e-21
-5.06438e-20
1.41146e-21
1.18045e-05
-4.36068e-18
1.01665e-21
-5.10255e-20
1.44153e-21
1.20971e-05
-4.36067e-18
1.01936e-21
-5.27191e-20
1.47206e-21
1.23941e-05
-4.35737e-18
1.0208e-21
-5.51213e-20
1.50297e-21
1.26954e-05
-4.35544e-18
1.02057e-21
-6.13924e-20
1.53499e-21
1.30012e-05
-4.35494e-18
1.01832e-21
-6.39003e-20
1.56853e-21
1.33115e-05
-4.35706e-18
1.01446e-21
-6.55955e-20
1.6032e-21
1.36265e-05
-4.35723e-18
1.00929e-21
-6.81536e-20
1.63888e-21
1.39461e-05
-4.35608e-18
1.00244e-21
-7.18913e-20
1.67563e-21
1.42706e-05
-4.35488e-18
9.93721e-22
-7.72137e-20
1.71364e-21
1.46e-05
-4.35293e-18
9.83568e-22
-8.10566e-20
1.75276e-21
1.49343e-05
-4.35265e-18
9.71464e-22
-8.37271e-20
1.79268e-21
1.52738e-05
-4.3557e-18
9.58203e-22
-7.83308e-20
1.83295e-21
1.56184e-05
-4.36036e-18
9.43724e-22
-7.88576e-20
1.87317e-21
1.59683e-05
-4.36608e-18
9.28478e-22
-7.53196e-20
1.91368e-21
1.63236e-05
-4.36966e-18
9.1301e-22
-6.99323e-20
1.95316e-21
1.66844e-05
-4.37499e-18
8.96874e-22
-7.25271e-20
1.99119e-21
1.70507e-05
-4.37629e-18
8.80884e-22
-7.12182e-20
2.02895e-21
1.74228e-05
-4.37617e-18
8.64548e-22
-7.32111e-20
2.06614e-21
1.78006e-05
-4.37789e-18
8.46891e-22
-7.218e-20
2.10274e-21
1.81844e-05
-4.37907e-18
8.28656e-22
-7.18221e-20
2.13781e-21
1.85741e-05
-4.38107e-18
8.09401e-22
-6.94e-20
2.17215e-21
1.897e-05
-4.37868e-18
7.89997e-22
-7.3121e-20
2.20487e-21
1.93721e-05
-4.37817e-18
7.68993e-22
-7.24887e-20
2.23687e-21
1.97805e-05
-4.37815e-18
7.46937e-22
-7.39485e-20
2.26766e-21
2.01955e-05
-4.37676e-18
7.24671e-22
-7.7761e-20
2.29768e-21
2.0617e-05
-4.37634e-18
7.01137e-22
-7.90126e-20
2.3271e-21
2.10452e-05
-4.37612e-18
6.78541e-22
-8.02765e-20
2.35489e-21
2.14802e-05
-4.3753e-18
6.55545e-22
-8.32481e-20
2.3803e-21
2.19222e-05
-4.37558e-18
6.32196e-22
-8.59024e-20
2.40371e-21
2.23712e-05
-4.37381e-18
6.0848e-22
-9.10628e-20
2.42626e-21
2.28275e-05
-4.37348e-18
5.84996e-22
-9.42192e-20
2.44756e-21
2.3291e-05
-4.37241e-18
5.61149e-22
-9.45071e-20
2.46777e-21
2.3762e-05
-4.37032e-18
5.37143e-22
-9.99196e-20
2.48676e-21
2.42406e-05
-4.36765e-18
5.10912e-22
-1.06002e-19
2.50567e-21
2.4727e-05
-4.36554e-18
4.81839e-22
-1.11717e-19
2.52521e-21
2.52211e-05
-4.36393e-18
4.51117e-22
-1.13779e-19
2.54574e-21
2.57233e-05
-4.36658e-18
4.18874e-22
-1.14425e-19
2.56737e-21
2.62336e-05
-4.35653e-18
3.86083e-22
-1.18971e-19
2.58995e-21
2.67522e-05
-4.35397e-18
3.49303e-22
-1.2557e-19
2.61392e-21
2.72792e-05
-4.34945e-18
3.11126e-22
-1.28333e-19
2.63889e-21
2.78148e-05
-4.3429e-18
2.70189e-22
-1.34666e-19
2.66278e-21
2.83591e-05
-4.33648e-18
2.25914e-22
-1.37625e-19
2.68683e-21
2.89122e-05
-4.33386e-18
1.78429e-22
-1.45521e-19
2.70966e-21
2.94744e-05
-4.32873e-18
1.29859e-22
-1.49679e-19
2.73229e-21
3.00458e-05
-4.32418e-18
7.98326e-23
-1.56997e-19
2.75391e-21
3.06265e-05
-4.32885e-18
2.83544e-23
-1.66736e-19
2.77543e-21
3.12167e-05
-4.32774e-18
-1.85403e-23
-1.70054e-19
2.79516e-21
3.18165e-05
-4.32919e-18
-6.46608e-23
-1.73132e-19
2.80878e-21
3.24262e-05
-4.32419e-18
-1.09238e-22
-1.81974e-19
2.8195e-21
3.30458e-05
-4.31867e-18
-1.53299e-22
-1.8043e-19
2.83016e-21
3.36757e-05
-4.31525e-18
-1.95575e-22
-1.80563e-19
2.83599e-21
3.43158e-05
-4.32087e-18
-2.39134e-22
-1.79707e-19
2.83913e-21
3.49665e-05
-4.32191e-18
-2.76385e-22
-1.76464e-19
2.83249e-21
3.56278e-05
-4.32091e-18
-3.09413e-22
-1.73809e-19
2.81822e-21
3.63001e-05
-4.3082e-18
-3.36751e-22
-1.77785e-19
2.79845e-21
3.69834e-05
-4.31482e-18
-3.69904e-22
-1.79364e-19
2.77892e-21
3.76779e-05
-4.31665e-18
-3.99277e-22
-1.8235e-19
2.75684e-21
3.83839e-05
-4.3226e-18
-4.29263e-22
-1.77707e-19
2.73621e-21
3.91014e-05
-4.32395e-18
-4.55321e-22
-1.76642e-19
2.71448e-21
3.98309e-05
-4.31734e-18
-4.78665e-22
-1.77222e-19
2.69161e-21
4.05723e-05
-4.31638e-18
-5.09369e-22
-1.82802e-19
2.66887e-21
4.13259e-05
-4.31485e-18
-5.34755e-22
-1.83945e-19
2.646e-21
4.2092e-05
-4.31218e-18
-5.62897e-22
-1.91789e-19
2.62236e-21
4.28707e-05
-4.30431e-18
-5.94718e-22
-1.96258e-19
2.60254e-21
4.36623e-05
-4.301e-18
-6.28708e-22
-1.96772e-19
2.59237e-21
4.44669e-05
-4.29178e-18
-6.61324e-22
-2.06718e-19
2.58454e-21
4.52849e-05
-4.28776e-18
-6.94754e-22
-2.08409e-19
2.57472e-21
4.61163e-05
-4.28267e-18
-7.26308e-22
-2.18797e-19
2.56242e-21
4.69614e-05
-4.28619e-18
-7.55826e-22
-2.24363e-19
2.554e-21
4.78205e-05
-4.28422e-18
-7.83562e-22
-2.26166e-19
2.5482e-21
4.86939e-05
-4.27716e-18
-8.13683e-22
-2.37417e-19
2.53886e-21
4.95816e-05
-4.27295e-18
-8.43749e-22
-2.45955e-19
2.53726e-21
5.0484e-05
-4.26477e-18
-8.73322e-22
-2.51827e-19
2.5355e-21
5.14013e-05
-4.24831e-18
-9.02389e-22
-2.62775e-19
2.52234e-21
5.23338e-05
-4.23433e-18
-9.31401e-22
-2.74281e-19
2.50752e-21
5.32817e-05
-4.23218e-18
-9.54892e-22
-2.89612e-19
2.47851e-21
5.42453e-05
-4.22929e-18
-9.65193e-22
-2.92943e-19
2.44644e-21
5.52248e-05
-4.22271e-18
-9.66408e-22
-3.07872e-19
2.41317e-21
5.62204e-05
-4.19846e-18
-9.61507e-22
-3.15207e-19
2.38297e-21
5.72326e-05
-4.16385e-18
-9.69486e-22
-3.41651e-19
2.34602e-21
5.82615e-05
-4.13957e-18
-9.86828e-22
-3.55382e-19
2.31845e-21
5.93074e-05
-4.12266e-18
-1.0102e-21
-3.71714e-19
2.30346e-21
6.03706e-05
-4.1288e-18
-1.04258e-21
-3.7814e-19
2.30102e-21
6.14513e-05
-4.10372e-18
-1.06851e-21
-3.87365e-19
2.29349e-21
6.255e-05
-4.1173e-18
-1.13203e-21
-3.92466e-19
2.28824e-21
6.36668e-05
-4.1218e-18
-1.17007e-21
-3.92166e-19
2.28963e-21
6.4802e-05
-4.10812e-18
-1.20238e-21
-3.84207e-19
2.28604e-21
6.59561e-05
-4.10147e-18
-1.2412e-21
-3.88713e-19
2.2715e-21
6.71292e-05
-4.09907e-18
-1.27268e-21
-3.97318e-19
2.28284e-21
6.83217e-05
-4.09827e-18
-1.28732e-21
-3.94068e-19
2.32397e-21
6.95339e-05
-4.09793e-18
-1.30531e-21
-4.09377e-19
2.3562e-21
7.07661e-05
-4.09352e-18
-1.32074e-21
-4.08838e-19
2.41054e-21
7.20187e-05
-4.08196e-18
-1.33684e-21
-4.2255e-19
2.47287e-21
7.3292e-05
-4.06435e-18
-1.3606e-21
-4.26538e-19
2.52739e-21
7.45863e-05
-4.05141e-18
-1.37912e-21
-4.16481e-19
2.57022e-21
7.59021e-05
-4.04324e-18
-1.40633e-21
-4.35926e-19
2.59698e-21
7.72395e-05
-4.03541e-18
-1.43223e-21
-4.50388e-19
2.63387e-21
7.85991e-05
-4.01824e-18
-1.42679e-21
-4.5668e-19
2.65757e-21
7.9981e-05
-3.9904e-18
-1.41637e-21
-4.85136e-19
2.66121e-21
8.13859e-05
-3.97826e-18
-1.41447e-21
-4.83531e-19
2.70483e-21
8.28139e-05
-3.96172e-18
-1.40969e-21
-4.99631e-19
2.69987e-21
8.42654e-05
-3.94613e-18
-1.36798e-21
-5.013e-19
2.69059e-21
8.5741e-05
-3.94016e-18
-1.31849e-21
-5.21387e-19
2.65475e-21
8.72408e-05
-3.90946e-18
-1.25573e-21
-5.39588e-19
2.6904e-21
8.87655e-05
-3.88719e-18
-1.19452e-21
-5.54788e-19
2.76249e-21
9.03152e-05
-3.87076e-18
-1.17292e-21
-5.68671e-19
2.84597e-21
9.18905e-05
-3.84974e-18
-1.17275e-21
-5.96436e-19
2.96423e-21
9.34918e-05
-3.85558e-18
-1.27928e-21
-5.97442e-19
3.15368e-21
9.51195e-05
-3.84471e-18
-1.37668e-21
-6.07619e-19
3.33424e-21
9.67741e-05
-3.82829e-18
-1.51597e-21
-6.15805e-19
3.51718e-21
9.84559e-05
-3.83806e-18
-1.7052e-21
-6.04005e-19
3.72084e-21
0.000100165
-3.82256e-18
-1.90293e-21
-6.03418e-19
3.87863e-21
0.000101903
-3.82169e-18
-2.14086e-21
-6.15421e-19
4.01734e-21
0.000103669
-3.81612e-18
-2.35607e-21
-6.18351e-19
4.16416e-21
0.000105465
-3.83059e-18
-2.54557e-21
-6.20871e-19
4.28802e-21
0.00010729
-3.82415e-18
-2.66782e-21
-6.36017e-19
4.34436e-21
0.000109144
-3.81265e-18
-2.77009e-21
-6.48353e-19
4.40636e-21
0.00011103
-3.79758e-18
-2.78127e-21
-6.65246e-19
4.46554e-21
0.000112946
-3.78662e-18
-2.79367e-21
-6.84903e-19
4.53604e-21
0.000114894
-3.77752e-18
-2.8257e-21
-7.15182e-19
4.63385e-21
0.000116874
-3.72738e-18
-2.80319e-21
-7.31107e-19
4.74787e-21
0.000118887
-3.71055e-18
-2.79323e-21
-7.49786e-19
4.83537e-21
0.000120932
-3.70485e-18
-2.76641e-21
-7.61294e-19
4.93351e-21
0.000123012
-3.65554e-18
-2.73756e-21
-8.16333e-19
5.03614e-21
0.000125125
-3.61651e-18
-2.83418e-21
-8.52012e-19
5.30884e-21
0.000127273
-3.59459e-18
-3.01969e-21
-8.93453e-19
5.60989e-21
0.000129456
-3.54204e-18
-3.27128e-21
-9.20442e-19
5.9115e-21
0.000131675
-3.57525e-18
-3.68931e-21
-9.35967e-19
6.18289e-21
0.000133931
-3.53632e-18
-3.92672e-21
-9.84107e-19
6.30746e-21
0.000136223
-3.52574e-18
-4.18899e-21
-1.01375e-18
6.40789e-21
0.000138553
-3.50869e-18
-4.35534e-21
-1.03655e-18
6.47544e-21
0.000140922
-3.4924e-18
-4.28895e-21
-1.04836e-18
6.38865e-21
0.000143329
-3.44346e-18
-4.26722e-21
-1.13471e-18
6.19404e-21
0.000145775
-3.42475e-18
-4.47364e-21
-1.13876e-18
6.22002e-21
0.000148261
-3.39074e-18
-4.61422e-21
-1.19063e-18
6.13808e-21
0.000150788
-3.39929e-18
-4.76335e-21
-1.2e-18
6.23193e-21
0.000153357
-3.3707e-18
-4.64607e-21
-1.25033e-18
6.21842e-21
0.000155967
-3.35149e-18
-4.63077e-21
-1.26785e-18
6.1703e-21
0.00015862
-3.33258e-18
-4.677e-21
-1.33315e-18
6.03442e-21
0.000161317
-3.30143e-18
-4.85336e-21
-1.34136e-18
6.16849e-21
0.000164057
-3.25421e-18
-5.08486e-21
-1.36218e-18
6.14498e-21
0.000166842
-3.22912e-18
-5.34018e-21
-1.42177e-18
5.85745e-21
0.000169673
-3.22815e-18
-5.60945e-21
-1.44109e-18
5.72133e-21
0.00017255
-3.19947e-18
-5.75537e-21
-1.47343e-18
5.46658e-21
0.000175473
-3.16832e-18
-6.01558e-21
-1.50043e-18
5.15232e-21
0.000178445
-3.13966e-18
-6.16131e-21
-1.50863e-18
4.76987e-21
0.000181464
-3.10811e-18
-6.24272e-21
-1.54448e-18
4.5241e-21
0.000184533
-3.06003e-18
-6.47634e-21
-1.56983e-18
4.34375e-21
0.000187652
-3.04653e-18
-6.84643e-21
-1.6006e-18
4.02024e-21
0.000190821
-3.00433e-18
-7.26853e-21
-1.63441e-18
3.65622e-21
0.000194042
-2.97981e-18
-7.7527e-21
-1.64384e-18
3.40173e-21
0.000197315
-2.94936e-18
-8.29513e-21
-1.66725e-18
3.12396e-21
0.000200641
-2.90823e-18
-8.8741e-21
-1.67505e-18
2.98744e-21
0.000204021
-2.87074e-18
-9.54398e-21
-1.64757e-18
2.76312e-21
0.000207457
-2.84092e-18
-1.02105e-20
-1.67923e-18
2.42713e-21
0.000210947
-2.80164e-18
-1.0605e-20
-1.67318e-18
2.15102e-21
0.000214494
-2.76818e-18
-1.11233e-20
-1.69691e-18
1.93873e-21
0.000218099
-2.76456e-18
-1.14691e-20
-1.66882e-18
1.32931e-21
0.000221762
-2.72278e-18
-1.18245e-20
-1.69243e-18
9.85571e-24
0.000225484
-2.69872e-18
-1.22473e-20
-1.6786e-18
-9.91208e-22
0.000229266
-2.64055e-18
-1.24381e-20
-1.70685e-18
-1.97082e-21
0.00023311
-2.61865e-18
-1.29866e-20
-1.72218e-18
-3.0753e-21
0.000237015
-2.57432e-18
-1.32107e-20
-1.75847e-18
-4.19588e-21
0.000240983
-2.55561e-18
-1.3701e-20
-1.72996e-18
-4.70968e-21
0.000245015
-2.51473e-18
-1.42556e-20
-1.76365e-18
-5.09085e-21
0.000249112
-2.46283e-18
-1.4437e-20
-1.78113e-18
-4.92718e-21
0.000253275
-2.40141e-18
-1.39445e-20
-1.738e-18
-4.98722e-21
0.000257504
-2.31879e-18
-1.37188e-20
-1.71282e-18
-6.61417e-21
0.000261802
-2.332e-18
-1.39171e-20
-1.67315e-18
-7.97571e-21
0.000266168
-2.35808e-18
-1.34114e-20
-1.68672e-18
-9.88369e-21
0.000270605
-2.24999e-18
-1.16977e-20
-1.84045e-18
-1.18629e-20
0.000275112
-2.22303e-18
-1.10318e-20
-1.84236e-18
-1.20038e-20
0.000279691
-2.1489e-18
-1.08869e-20
-1.87654e-18
-1.21947e-20
0.000284344
-2.12365e-18
-1.16395e-20
-1.83591e-18
-1.19116e-20
0.000289071
-2.08761e-18
-1.23038e-20
-1.83482e-18
-1.28193e-20
0.000293873
-2.0759e-18
-1.29526e-20
-1.89667e-18
-1.39111e-20
0.000298751
-2.14833e-18
-1.42534e-20
-1.82514e-18
-1.39882e-20
0.000303707
-2.10508e-18
-1.50434e-20
-1.81873e-18
-1.45186e-20
0.000308742
-2.17468e-18
-1.45985e-20
-1.75049e-18
-1.50825e-20
0.000313857
-2.1768e-18
-1.34844e-20
-1.76483e-18
-1.6937e-20
0.000319053
-2.04882e-18
-1.25935e-20
-1.88093e-18
-1.87726e-20
0.00032433
-2.00385e-18
-1.3884e-20
-1.91019e-18
-1.85079e-20
0.000329692
-2.04461e-18
-1.59842e-20
-1.92399e-18
-1.80808e-20
0.000335137
-2.0291e-18
-1.75835e-20
-1.85708e-18
-1.80115e-20
0.000340669
-2.02334e-18
-1.93005e-20
-1.8607e-18
-1.79962e-20
0.000346288
-1.94439e-18
-2.03065e-20
-1.7976e-18
-1.90325e-20
0.000351994
-1.91662e-18
-2.21441e-20
-1.80251e-18
-2.14548e-20
0.000357791
-1.87813e-18
-2.30071e-20
-1.79614e-18
-2.18486e-20
0.000363677
-1.81413e-18
-2.43141e-20
-1.77783e-18
-2.17917e-20
0.000369656
-1.79193e-18
-2.59959e-20
-1.76854e-18
-2.1938e-20
0.000375728
-1.72992e-18
-2.57803e-20
-1.74667e-18
-2.32468e-20
0.000381895
-1.72088e-18
-2.64895e-20
-1.73302e-18
-2.58322e-20
0.000388157
-1.82132e-18
-2.73397e-20
-1.75067e-18
-2.74235e-20
0.000394516
-1.75605e-18
-2.50878e-20
-1.71226e-18
-2.76628e-20
0.000400974
-1.63193e-18
-2.3946e-20
-1.68396e-18
-2.76629e-20
0.000407531
-1.61418e-18
-2.37899e-20
-1.55501e-18
-2.79672e-20
0.000414189
-1.51434e-18
-2.45542e-20
-1.63901e-18
-3.02222e-20
0.000420949
-1.55313e-18
-2.7646e-20
-1.55956e-18
-2.73441e-20
0.000427812
-1.55732e-18
-2.8448e-20
-1.53741e-18
-2.57821e-20
0.000434781
-1.49761e-18
-2.58985e-20
-1.51191e-18
-2.51741e-20
0.000441855
-1.45129e-18
-2.37209e-20
-1.49229e-18
-2.50967e-20
0.000449036
-1.44612e-18
-2.17181e-20
-1.50609e-18
-2.64769e-20
0.000456326
-1.41432e-18
-2.32048e-20
-1.44841e-18
-2.65963e-20
0.000463726
-1.33114e-18
-2.35287e-20
-1.46465e-18
-2.86437e-20
0.000471237
-1.30132e-18
-2.41498e-20
-1.43622e-18
-2.70588e-20
0.00047886
-1.32339e-18
-2.57866e-20
-1.29371e-18
-2.12517e-20
0.000486597
-1.30366e-18
-2.84208e-20
-1.23902e-18
-2.31546e-20
0.000494448
-1.33765e-18
-3.05581e-20
-1.25993e-18
-2.59958e-20
0.000502415
-1.34745e-18
-3.07522e-20
-1.2831e-18
-2.71227e-20
0.000510499
-1.42183e-18
-3.22122e-20
-1.31689e-18
-2.88111e-20
0.000518701
-1.3936e-18
-3.63337e-20
-1.26847e-18
-3.16468e-20
0.000527023
-1.39514e-18
-4.13358e-20
-1.27675e-18
-3.54459e-20
0.000535464
-1.20782e-18
-4.10768e-20
-1.24264e-18
-4.04937e-20
0.000544027
-1.19909e-18
-4.2347e-20
-1.287e-18
-4.51393e-20
0.000552712
-1.28213e-18
-4.42368e-20
-1.24028e-18
-4.24499e-20
0.000561519
-1.27395e-18
-4.46099e-20
-1.24986e-18
-4.15892e-20
0.000570451
-1.15737e-18
-4.76819e-20
-1.28004e-18
-4.25611e-20
0.000579507
-1.21154e-18
-5.7076e-20
-1.25935e-18
-4.25445e-20
0.000588688
-1.1918e-18
-5.52146e-20
-1.26532e-18
-4.05761e-20
0.000597995
-1.22793e-18
-5.51596e-20
-1.33852e-18
-4.44684e-20
0.000607428
-1.28223e-18
-5.51212e-20
-1.23276e-18
-4.34302e-20
0.000616987
-1.31755e-18
-4.81422e-20
-1.22227e-18
-4.05678e-20
0.000626673
-1.50217e-18
-4.19045e-20
-1.2753e-18
-4.64528e-20
0.000636486
-1.45698e-18
-3.57044e-20
-1.32144e-18
-4.6601e-20
0.000646426
-1.55693e-18
-3.9442e-20
-1.29708e-18
-4.7659e-20
0.000656492
-1.36102e-18
-3.47166e-20
-1.50458e-18
-4.89232e-20
0.000666684
-1.43881e-18
-3.19985e-20
-1.39711e-18
-4.56061e-20
0.000677001
-1.50382e-18
-2.93091e-20
-1.44978e-18
-4.7121e-20
0.000687443
-1.31376e-18
-2.31579e-20
-1.35395e-18
-3.53816e-20
0.000698008
-1.18674e-18
-2.13539e-20
-1.20592e-18
-2.87972e-20
0.000708695
-1.13137e-18
-2.33163e-20
-1.15539e-18
-2.643e-20
0.000719503
-1.23919e-18
-2.51843e-20
-1.20692e-18
-2.56408e-20
0.00073043
-1.19027e-18
-1.04195e-20
-1.15599e-18
-2.08978e-20
0.000741474
-8.73964e-19
-1.53508e-21
-1.09503e-18
-1.7943e-20
0.000752631
-8.14664e-19
-8.83097e-21
-1.12386e-18
-1.66081e-20
0.000763901
-8.83861e-19
-1.67617e-20
-8.89469e-19
-1.31269e-20
0.00077528
-9.36849e-19
-2.08176e-20
-9.3296e-19
-1.16941e-20
0.000786764
-8.36395e-19
-1.43756e-20
-7.24716e-19
-3.67322e-21
0.00079835
-7.90963e-19
-1.77817e-20
-6.02859e-19
-1.43356e-20
0.000810034
-2.21684e-20
-7.39127e-19
-1.56206e-20
-5.96087e-19
1.6292e-08
1.58455e-23
4.29196e-23
4.98223e-08
-1.49209e-22
8.657e-23
8.48103e-08
-2.93517e-22
1.16024e-22
1.21306e-07
-4.65318e-22
1.55326e-22
1.59359e-07
-5.77927e-22
1.98689e-22
1.99023e-07
-7.06534e-22
2.34083e-22
2.40351e-07
-8.46165e-22
2.3449e-22
2.834e-07
-9.86497e-22
3.43529e-22
3.28227e-07
-1.09558e-21
4.08022e-22
3.74892e-07
-1.19306e-21
4.66432e-22
4.23454e-07
-1.29476e-21
5.25913e-22
4.73978e-07
-1.38625e-21
5.92905e-22
5.26527e-07
-1.39648e-21
6.02074e-22
5.8117e-07
-1.46576e-21
6.62649e-22
6.37973e-07
-1.4789e-21
7.19018e-22
6.97007e-07
-1.51024e-21
7.83996e-22
7.58346e-07
-1.65858e-21
9.33185e-22
8.22063e-07
-1.74456e-21
1.02599e-21
8.88233e-07
-1.67584e-21
1.06606e-21
9.56937e-07
-1.81735e-21
1.16104e-21
1.02825e-06
-1.67435e-21
1.08532e-21
1.10226e-06
-1.7051e-21
1.07043e-21
1.17904e-06
-1.56534e-21
1.3443e-21
1.25869e-06
-1.65844e-21
1.56266e-21
1.34128e-06
-1.64048e-21
1.76793e-21
1.42689e-06
-1.77299e-21
2.09589e-21
1.51563e-06
-1.9031e-21
2.17093e-21
1.60757e-06
-2.12815e-21
2.42306e-21
1.70279e-06
-1.97493e-21
2.49908e-21
1.80139e-06
-1.84683e-21
2.70417e-21
1.90345e-06
-1.14576e-21
2.36976e-21
2.00904e-06
-7.60766e-22
2.76827e-21
2.11825e-06
-4.40222e-22
2.63083e-21
2.23115e-06
-2.67334e-23
2.87783e-21
2.3478e-06
2.44731e-22
3.0767e-21
2.46827e-06
4.54917e-22
3.45884e-21
2.59263e-06
8.49721e-22
3.5497e-21
2.72091e-06
1.25338e-21
3.94357e-21
2.85316e-06
2.06145e-21
3.84535e-21
2.98942e-06
2.44537e-21
4.30941e-21
3.12972e-06
3.29447e-21
4.36226e-21
3.27406e-06
4.37607e-21
3.64848e-21
3.42245e-06
4.61937e-21
4.74369e-21
3.5749e-06
5.35805e-21
5.39782e-21
3.73139e-06
6.04244e-21
5.7885e-21
3.8919e-06
6.60258e-21
6.3283e-21
4.0564e-06
7.14353e-21
6.64714e-21
4.22485e-06
7.16835e-21
7.2459e-21
4.39722e-06
8.10075e-21
8.55339e-21
4.57346e-06
8.10805e-21
9.08599e-21
4.75353e-06
7.87808e-21
1.0635e-20
4.93736e-06
8.06984e-21
1.1271e-20
5.12491e-06
9.36931e-21
1.20333e-20
5.31612e-06
1.00353e-20
1.39812e-20
5.51095e-06
9.32071e-21
1.5863e-20
5.70935e-06
1.00046e-20
1.7383e-20
5.91128e-06
1.01818e-20
1.76484e-20
6.1167e-06
1.05765e-20
1.837e-20
6.32557e-06
1.14226e-20
1.91203e-20
6.53787e-06
1.20523e-20
1.99908e-20
6.75358e-06
1.28964e-20
2.16588e-20
6.97268e-06
1.39507e-20
2.27844e-20
7.19517e-06
1.30148e-20
2.53155e-20
7.42104e-06
1.31473e-20
2.5933e-20
7.6503e-06
1.54002e-20
2.59942e-20
7.88295e-06
1.63348e-20
2.93296e-20
8.11902e-06
1.72176e-20
2.95378e-20
8.35854e-06
1.66382e-20
3.1705e-20
8.60152e-06
1.75872e-20
3.35272e-20
8.848e-06
1.94768e-20
3.3432e-20
9.09802e-06
2.10887e-20
3.50346e-20
9.35163e-06
2.20553e-20
3.49739e-20
9.60886e-06
2.41546e-20
3.5992e-20
9.86978e-06
2.76553e-20
3.65696e-20
1.01344e-05
2.83339e-20
3.98164e-20
1.04029e-05
2.86011e-20
4.11321e-20
1.06752e-05
2.98042e-20
4.15427e-20
1.09515e-05
2.96121e-20
4.20504e-20
1.12317e-05
3.12694e-20
4.44352e-20
1.1516e-05
3.15191e-20
4.52971e-20
1.18045e-05
3.24628e-20
4.56118e-20
1.20971e-05
3.3215e-20
4.29185e-20
1.23941e-05
3.53107e-20
4.54572e-20
1.26954e-05
3.30542e-20
4.65959e-20
1.30012e-05
3.44356e-20
4.73948e-20
1.33115e-05
3.68906e-20
4.88801e-20
1.36265e-05
3.67927e-20
5.17446e-20
1.39461e-05
3.45151e-20
5.59852e-20
1.42706e-05
3.65468e-20
5.704e-20
1.46e-05
3.39428e-20
5.85027e-20
1.49343e-05
3.58554e-20
5.96371e-20
1.52738e-05
3.36891e-20
6.51477e-20
1.56184e-05
3.25239e-20
6.96266e-20
1.59683e-05
3.4056e-20
7.16494e-20
1.63236e-05
3.39231e-20
7.36124e-20
1.66844e-05
3.65651e-20
7.53352e-20
1.70507e-05
3.84254e-20
7.87611e-20
1.74228e-05
3.56083e-20
8.18486e-20
1.78006e-05
3.84294e-20
8.53888e-20
1.81844e-05
3.91643e-20
9.31592e-20
1.85741e-05
4.42493e-20
9.50148e-20
1.897e-05
4.5031e-20
9.5988e-20
1.93721e-05
4.58594e-20
9.60181e-20
1.97805e-05
4.96911e-20
1.00515e-19
2.01955e-05
4.82752e-20
1.05633e-19
2.0617e-05
5.67457e-20
1.07111e-19
2.10452e-05
5.71057e-20
1.08147e-19
2.14802e-05
6.02582e-20
1.07705e-19
2.19222e-05
6.24476e-20
1.10823e-19
2.23712e-05
6.70138e-20
1.10223e-19
2.28275e-05
6.63127e-20
1.10208e-19
2.3291e-05
7.0194e-20
1.11689e-19
2.3762e-05
6.82951e-20
1.13176e-19
2.42406e-05
6.62997e-20
1.14637e-19
2.4727e-05
6.95539e-20
1.18684e-19
2.52211e-05
7.31711e-20
1.27137e-19
2.57233e-05
7.67675e-20
1.35166e-19
2.62336e-05
7.60668e-20
1.39193e-19
2.67522e-05
7.61965e-20
1.41337e-19
2.72792e-05
7.4149e-20
1.42921e-19
2.78148e-05
7.25636e-20
1.44663e-19
2.83591e-05
7.00465e-20
1.48494e-19
2.89122e-05
6.98989e-20
1.57453e-19
2.94744e-05
7.09825e-20
1.65276e-19
3.00458e-05
7.24585e-20
1.7099e-19
3.06265e-05
8.16745e-20
1.71463e-19
3.12167e-05
7.9449e-20
1.68305e-19
3.18165e-05
7.48617e-20
1.76288e-19
3.24262e-05
7.24045e-20
1.82483e-19
3.30458e-05
7.42156e-20
1.85516e-19
3.36757e-05
6.65924e-20
1.96976e-19
3.43158e-05
6.81091e-20
1.92143e-19
3.49665e-05
6.52985e-20
1.96435e-19
3.56278e-05
7.01676e-20
2.01898e-19
3.63001e-05
6.34294e-20
2.13823e-19
3.69834e-05
6.7512e-20
2.18878e-19
3.76779e-05
7.07225e-20
2.21596e-19
3.83839e-05
7.96009e-20
2.20455e-19
3.91014e-05
8.92399e-20
2.20181e-19
3.98309e-05
8.71098e-20
2.20614e-19
4.05723e-05
1.04914e-19
2.11254e-19
4.13259e-05
1.05395e-19
2.09573e-19
4.2092e-05
1.03746e-19
2.08691e-19
4.28707e-05
1.06262e-19
2.14176e-19
4.36623e-05
1.07279e-19
2.18142e-19
4.44669e-05
1.06855e-19
2.14022e-19
4.52849e-05
1.07512e-19
2.18767e-19
4.61163e-05
1.12937e-19
2.23044e-19
4.69614e-05
1.08494e-19
2.24919e-19
4.78205e-05
1.03194e-19
2.23605e-19
4.86939e-05
1.0902e-19
2.27864e-19
4.95816e-05
1.08733e-19
2.26023e-19
5.0484e-05
1.06211e-19
2.18566e-19
5.14013e-05
1.0909e-19
2.18716e-19
5.23338e-05
1.15693e-19
2.06574e-19
5.32817e-05
1.19368e-19
2.08572e-19
5.42453e-05
1.19705e-19
2.16597e-19
5.52248e-05
1.20817e-19
2.18476e-19
5.62204e-05
1.11019e-19
2.26354e-19
5.72326e-05
1.11738e-19
2.30375e-19
5.82615e-05
1.11622e-19
2.35152e-19
5.93074e-05
1.11011e-19
2.40713e-19
6.03706e-05
1.14701e-19
2.42622e-19
6.14513e-05
1.09683e-19
2.43724e-19
6.255e-05
1.2812e-19
2.46521e-19
6.36668e-05
1.30358e-19
2.39928e-19
6.4802e-05
1.37521e-19
2.39631e-19
6.59561e-05
1.44383e-19
2.62184e-19
6.71292e-05
1.55655e-19
2.84732e-19
6.83217e-05
1.45637e-19
2.87102e-19
6.95339e-05
1.34049e-19
2.91022e-19
7.07661e-05
1.25252e-19
2.99776e-19
7.20187e-05
1.21539e-19
2.92026e-19
7.3292e-05
1.34528e-19
2.94377e-19
7.45863e-05
1.34705e-19
2.97271e-19
7.59021e-05
1.36904e-19
2.96303e-19
7.72395e-05
1.55881e-19
2.99706e-19
7.85991e-05
1.61202e-19
2.92931e-19
7.9981e-05
1.64227e-19
3.0171e-19
8.13859e-05
1.55176e-19
2.99329e-19
8.28139e-05
1.69838e-19
3.10003e-19
8.42654e-05
1.67951e-19
3.03005e-19
8.5741e-05
1.63221e-19
3.22124e-19
8.72408e-05
1.75226e-19
3.2287e-19
8.87655e-05
1.6194e-19
3.16823e-19
9.03152e-05
1.63959e-19
3.15393e-19
9.18905e-05
1.32032e-19
3.17603e-19
9.34918e-05
1.3841e-19
3.13138e-19
9.51195e-05
1.34873e-19
3.14793e-19
9.67741e-05
1.36192e-19
3.26887e-19
9.84559e-05
1.32947e-19
3.24969e-19
0.000100165
1.31667e-19
3.25616e-19
0.000101903
1.37984e-19
3.24386e-19
0.000103669
1.48632e-19
3.2803e-19
0.000105465
1.52904e-19
3.27342e-19
0.00010729
1.52978e-19
3.40611e-19
0.000109144
1.82776e-19
3.52944e-19
0.00011103
1.83011e-19
3.74228e-19
0.000112946
1.84017e-19
3.84867e-19
0.000114894
2.08341e-19
3.81367e-19
0.000116874
2.44688e-19
3.87903e-19
0.000118887
2.65622e-19
3.98338e-19
0.000120932
2.73686e-19
4.01084e-19
0.000123012
2.79147e-19
4.12397e-19
0.000125125
2.85975e-19
4.16152e-19
0.000127273
2.78181e-19
4.21411e-19
0.000129456
2.60535e-19
4.32271e-19
0.000131675
2.56369e-19
4.31624e-19
0.000133931
2.56306e-19
4.29083e-19
0.000136223
2.52999e-19
4.30084e-19
0.000138553
2.8517e-19
4.26786e-19
0.000140922
2.4364e-19
4.36487e-19
0.000143329
1.97747e-19
4.2782e-19
0.000145775
2.09383e-19
4.2837e-19
0.000148261
2.20449e-19
4.58834e-19
0.000150788
2.48624e-19
4.65421e-19
0.000153357
2.31063e-19
4.59262e-19
0.000155967
2.18103e-19
4.61261e-19
0.00015862
1.88134e-19
4.80049e-19
0.000161317
1.93567e-19
4.91739e-19
0.000164057
2.27416e-19
4.86929e-19
0.000166842
2.42588e-19
4.9538e-19
0.000169673
2.52452e-19
4.95225e-19
0.00017255
2.43101e-19
5.26678e-19
0.000175473
2.8022e-19
5.25602e-19
0.000178445
2.96381e-19
5.3708e-19
0.000181464
2.78357e-19
5.33621e-19
0.000184533
2.85356e-19
5.28771e-19
0.000187652
2.68752e-19
5.20284e-19
0.000190821
2.8255e-19
5.15448e-19
0.000194042
2.80663e-19
5.10161e-19
0.000197315
2.71889e-19
5.23599e-19
0.000200641
2.62396e-19
5.21043e-19
0.000204021
2.64623e-19
5.34356e-19
0.000207457
2.93892e-19
4.98757e-19
0.000210947
2.88274e-19
5.18657e-19
0.000214494
3.282e-19
4.76404e-19
0.000218099
3.11962e-19
4.47432e-19
0.000221762
3.10251e-19
4.57311e-19
0.000225484
3.2018e-19
4.63077e-19
0.000229266
2.88341e-19
4.37568e-19
0.00023311
2.91911e-19
4.03178e-19
0.000237015
2.68972e-19
4.06907e-19
0.000240983
2.47205e-19
4.25627e-19
0.000245015
2.78344e-19
4.09617e-19
0.000249112
3.37749e-19
3.87548e-19
0.000253275
3.08539e-19
2.91984e-19
0.000257504
3.0053e-19
3.03819e-19
0.000261802
2.9922e-19
2.81088e-19
0.000266168
3.30057e-19
2.59646e-19
0.000270605
3.26437e-19
2.65821e-19
0.000275112
3.06714e-19
2.7661e-19
0.000279691
3.06134e-19
2.62907e-19
0.000284344
3.20753e-19
1.9025e-19
0.000289071