/*--------------------------------*- C++ -*----------------------------------*\
| =========                 |                                                 |
| \\      /  F ield         | OpenFOAM: The Open Source CFD Toolbox           |
|  \\    /   O peration     | Version:  2106                                  |
|   \\  /    A nd           | Website:  www.openfoam.com                      |
|    \\/     M anipulation  |                                                 |
\*---------------------------------------------------------------------------*/
FoamFile
{
    version     2.0;
    format      ascii;
    arch        "LSB;label=32;scalar=64";
    class       volSymmTensorField;
    location    "10000";
    object      turbulenceProperties:R;
}
// * * * * * * * * * * * * * * * * * * * * * * * * * * * * * * * * * * * * * //

dimensions      [0 2 -2 0 0 0 0];

internalField   nonuniform List<symmTensor> 
2560
(
(5.40908e-06 -1.43944e-08 -2.08376e-11 5.40908e-06 1.43177e-22 5.40908e-06)
(5.40908e-06 -1.43944e-08 -2.08376e-11 5.40908e-06 3.7946e-24 5.40908e-06)
(2.36427e-06 -3.61415e-08 -1.57736e-10 2.36427e-06 3.58258e-23 2.36427e-06)
(2.36427e-06 -3.61415e-08 -1.57736e-10 2.36427e-06 8.32135e-24 2.36427e-06)
(1.15473e-05 -5.18715e-07 -3.11192e-09 1.15473e-05 2.74154e-22 1.15473e-05)
(1.15473e-05 -5.18715e-07 -3.11192e-09 1.15473e-05 7.96227e-24 1.15473e-05)
(4.16397e-05 -3.91018e-06 -2.37548e-08 4.16397e-05 1.70653e-21 4.16397e-05)
(4.16397e-05 -3.91018e-06 -2.37548e-08 4.16397e-05 5.53542e-23 4.16397e-05)
(0.000107543 -1.71927e-05 -1.05457e-07 0.000107543 4.3093e-21 0.000107543)
(0.000107543 -1.71927e-05 -1.05457e-07 0.000107543 1.74279e-22 0.000107543)
(0.000223635 -5.25843e-05 -3.24309e-07 0.000223635 -0 0.000223635)
(0.000223635 -5.25843e-05 -3.24309e-07 0.000223635 1.32368e-22 0.000223635)
(0.000397344 -0.000122505 -7.56936e-07 0.000397344 -5.39022e-20 0.000397344)
(0.000397344 -0.000122505 -7.56936e-07 0.000397344 -1.00432e-21 0.000397344)
(0.000623132 -0.000230044 -1.42285e-06 0.000623132 -1.99958e-19 0.000623132)
(0.000623132 -0.000230044 -1.42285e-06 0.000623132 -4.57387e-21 0.000623132)
(0.000882765 -0.000364682 -2.26343e-06 0.000882765 -4.52196e-19 0.000882765)
(0.000882765 -0.000364682 -2.26343e-06 0.000882765 -1.0815e-20 0.000882765)
(0.00115312 -0.000508837 -3.1824e-06 0.00115312 -7.60246e-19 0.00115312)
(0.00115312 -0.000508837 -3.1824e-06 0.00115312 -1.81979e-20 0.00115312)
(0.00141486 -0.000647493 -4.09705e-06 0.00141486 -1.05169e-18 0.00141486)
(0.00141486 -0.000647493 -4.09705e-06 0.00141486 -2.46524e-20 0.00141486)
(0.00165617 -0.000772341 -4.95852e-06 0.00165617 -1.27899e-18 0.00165617)
(0.00165617 -0.000772341 -4.95852e-06 0.00165617 -2.87781e-20 0.00165617)
(0.00187202 -0.000880735 -5.74696e-06 0.00187202 -1.4291e-18 0.00187202)
(0.00187202 -0.000880735 -5.74696e-06 0.00187202 -3.0195e-20 0.00187202)
(0.00206179 -0.000973212 -6.45991e-06 0.00206179 -1.51011e-18 0.00206179)
(0.00206179 -0.000973212 -6.45991e-06 0.00206179 -2.89645e-20 0.00206179)
(0.00222721 -0.00105162 -7.10316e-06 0.00222721 -1.53725e-18 0.00222721)
(0.00222721 -0.00105162 -7.10316e-06 0.00222721 -2.56286e-20 0.00222721)
(0.00237093 -0.00111811 -7.68543e-06 0.00237093 -1.52566e-18 0.00237093)
(0.00237093 -0.00111811 -7.68543e-06 0.00237093 -2.09951e-20 0.00237093)
(0.00249582 -0.00117468 -8.21581e-06 0.00249582 -1.48736e-18 0.00249582)
(0.00249582 -0.00117468 -8.21581e-06 0.00249582 -1.52636e-20 0.00249582)
(0.00260457 -0.00122308 -8.7026e-06 0.00260457 -1.43138e-18 0.00260457)
(0.00260457 -0.00122308 -8.7026e-06 0.00260457 -8.57877e-21 0.00260457)
(0.00269957 -0.00126472 -9.15302e-06 0.00269957 -1.36403e-18 0.00269957)
(0.00269957 -0.00126472 -9.15302e-06 0.00269957 -1.20627e-21 0.00269957)
(0.00278287 -0.00130077 -9.57313e-06 0.00278287 -1.28948e-18 0.00278287)
(0.00278287 -0.00130077 -9.57313e-06 0.00278287 7.48075e-21 0.00278287)
(0.0028562 -0.00133217 -9.968e-06 0.0028562 -1.21063e-18 0.0028562)
(0.0028562 -0.00133217 -9.968e-06 0.0028562 1.66193e-20 0.0028562)
(0.00292101 -0.00135966 -1.03418e-05 0.00292101 -1.12963e-18 0.00292101)
(0.00292101 -0.00135966 -1.03418e-05 0.00292101 2.48153e-20 0.00292101)
(0.00297853 -0.00138387 -1.0698e-05 0.00297853 -1.0481e-18 0.00297853)
(0.00297853 -0.00138387 -1.0698e-05 0.00297853 3.42061e-20 0.00297853)
(0.00302976 -0.00140529 -1.10394e-05 0.00302976 -9.66184e-19 0.00302976)
(0.00302976 -0.00140529 -1.10394e-05 0.00302976 4.44004e-20 0.00302976)
(0.00307554 -0.00142433 -1.13685e-05 0.00307554 -8.84285e-19 0.00307554)
(0.00307554 -0.00142433 -1.13685e-05 0.00307554 5.51029e-20 0.00307554)
(0.00311659 -0.00144132 -1.16873e-05 0.00311659 -8.04147e-19 0.00311659)
(0.00311659 -0.00144132 -1.16873e-05 0.00311659 6.80629e-20 0.00311659)
(0.00315351 -0.00145653 -1.19974e-05 0.00315351 -7.2503e-19 0.00315351)
(0.00315351 -0.00145653 -1.19974e-05 0.00315351 7.99258e-20 0.00315351)
(0.0031868 -0.0014702 -1.23002e-05 0.0031868 -6.46626e-19 0.0031868)
(0.0031868 -0.0014702 -1.23002e-05 0.0031868 8.94007e-20 0.0031868)
(0.00321689 -0.00148252 -1.2597e-05 0.00321689 -5.68751e-19 0.00321689)
(0.00321689 -0.00148252 -1.2597e-05 0.00321689 9.92075e-20 0.00321689)
(0.00324414 -0.00149365 -1.28888e-05 0.00324414 -4.91601e-19 0.00324414)
(0.00324414 -0.00149365 -1.28888e-05 0.00324414 1.1142e-19 0.00324414)
(0.00326887 -0.00150373 -1.31764e-05 0.00326887 -4.16718e-19 0.00326887)
(0.00326887 -0.00150373 -1.31764e-05 0.00326887 1.26832e-19 0.00326887)
(0.00329134 -0.00151287 -1.34607e-05 0.00329134 -3.42097e-19 0.00329134)
(0.00329134 -0.00151287 -1.34607e-05 0.00329134 1.40674e-19 0.00329134)
(0.0033118 -0.00152118 -1.37422e-05 0.0033118 -2.68606e-19 0.0033118)
(0.0033118 -0.00152118 -1.37422e-05 0.0033118 1.547e-19 0.0033118)
(0.00333043 -0.00152874 -1.40216e-05 0.00333043 -1.94893e-19 0.00333043)
(0.00333043 -0.00152874 -1.40216e-05 0.00333043 1.69149e-19 0.00333043)
(0.00334743 -0.00153563 -1.42994e-05 0.00334743 -3.2523e-19 0.00334743)
(0.00334743 -0.00153563 -1.42994e-05 0.00334743 1.80297e-19 0.00334743)
(0.00336293 -0.0015419 -1.45759e-05 0.00336293 -1.27049e-18 0.00336293)
(0.00336293 -0.0015419 -1.45759e-05 0.00336293 1.95174e-19 0.00336293)
(0.00337707 -0.00154763 -1.48517e-05 0.00337707 -1.31474e-18 0.00337707)
(0.00337707 -0.00154763 -1.48517e-05 0.00337707 2.12535e-19 0.00337707)
(0.00338998 -0.00155284 -1.5127e-05 0.00338998 -1.27544e-18 0.00338998)
(0.00338998 -0.00155284 -1.5127e-05 0.00338998 2.26525e-19 0.00338998)
(0.00340175 -0.0015576 -1.54022e-05 0.00340175 -1.24081e-18 0.00340175)
(0.00340175 -0.0015576 -1.54022e-05 0.00340175 2.4405e-19 0.00340175)
(0.00341248 -0.00156194 -1.56775e-05 0.00341248 -1.2092e-18 0.00341248)
(0.00341248 -0.00156194 -1.56775e-05 0.00341248 2.64966e-19 0.00341248)
(0.00342225 -0.00156589 -1.59531e-05 0.00342225 -1.1753e-18 0.00342225)
(0.00342225 -0.00156589 -1.59531e-05 0.00342225 2.78283e-19 0.00342225)
(0.00343113 -0.00156948 -1.62294e-05 0.00343113 -1.14337e-18 0.00343113)
(0.00343113 -0.00156948 -1.62294e-05 0.00343113 2.91025e-19 0.00343113)
(0.0034392 -0.00157273 -1.65065e-05 0.0034392 -1.11576e-18 0.0034392)
(0.0034392 -0.00157273 -1.65065e-05 0.0034392 3.10252e-19 0.0034392)
(0.0034465 -0.00157568 -1.67846e-05 0.0034465 -1.08522e-18 0.0034465)
(0.0034465 -0.00157568 -1.67846e-05 0.0034465 3.29721e-19 0.0034465)
(0.00345309 -0.00157834 -1.70639e-05 0.00345309 -8.93178e-19 0.00345309)
(0.00345309 -0.00157834 -1.70639e-05 0.00345309 3.53197e-19 0.00345309)
(0.00345903 -0.00158074 -1.73445e-05 0.00345903 -2.11383e-19 0.00345903)
(0.00345903 -0.00158074 -1.73445e-05 0.00345903 3.77576e-19 0.00345903)
(0.00346434 -0.00158288 -1.76266e-05 0.00346434 3.34545e-19 0.00346434)
(0.00346434 -0.00158288 -1.76266e-05 0.00346434 3.94192e-19 0.00346434)
(0.00346908 -0.00158479 -1.79103e-05 0.00346908 3.82108e-19 0.00346908)
(0.00346908 -0.00158479 -1.79103e-05 0.00346908 4.13274e-19 0.00346908)
(0.00347327 -0.00158649 -1.81957e-05 0.00347327 4.2669e-19 0.00347327)
(0.00347327 -0.00158649 -1.81957e-05 0.00347327 4.38568e-19 0.00347327)
(0.00347695 -0.00158797 -1.8483e-05 0.00347695 4.81183e-19 0.00347695)
(0.00347695 -0.00158797 -1.8483e-05 0.00347695 4.63254e-19 0.00347695)
(0.00348015 -0.00158926 -1.87722e-05 0.00348015 5.3428e-19 0.00348015)
(0.00348015 -0.00158926 -1.87722e-05 0.00348015 4.84421e-19 0.00348015)
(0.00348289 -0.00159036 -1.90635e-05 0.00348289 5.84386e-19 0.00348289)
(0.00348289 -0.00159036 -1.90635e-05 0.00348289 5.1127e-19 0.00348289)
(0.0034852 -0.00159129 -1.93569e-05 0.0034852 6.31116e-19 0.0034852)
(0.0034852 -0.00159129 -1.93569e-05 0.0034852 5.40064e-19 0.0034852)
(0.00348711 -0.00159205 -1.96526e-05 0.00348711 6.75867e-19 0.00348711)
(0.00348711 -0.00159205 -1.96526e-05 0.00348711 5.6424e-19 0.00348711)
(0.00348862 -0.00159265 -1.99505e-05 0.00348862 7.21647e-19 0.00348862)
(0.00348862 -0.00159265 -1.99505e-05 0.00348862 5.90287e-19 0.00348862)
(0.00348977 -0.00159311 -2.02509e-05 0.00348977 7.71086e-19 0.00348977)
(0.00348977 -0.00159311 -2.02509e-05 0.00348977 6.17156e-19 0.00348977)
(0.00349057 -0.00159342 -2.05538e-05 0.00349057 8.30631e-19 0.00349057)
(0.00349057 -0.00159342 -2.05538e-05 0.00349057 6.43225e-19 0.00349057)
(0.00349103 -0.00159359 -2.08592e-05 0.00349103 8.8152e-19 0.00349103)
(0.00349103 -0.00159359 -2.08592e-05 0.00349103 6.71529e-19 0.00349103)
(0.00349118 -0.00159363 -2.11673e-05 0.00349118 9.29487e-19 0.00349118)
(0.00349118 -0.00159363 -2.11673e-05 0.00349118 7.08941e-19 0.00349118)
(0.00349102 -0.00159355 -2.1478e-05 0.00349102 9.88585e-19 0.00349102)
(0.00349102 -0.00159355 -2.1478e-05 0.00349102 7.4699e-19 0.00349102)
(0.00349057 -0.00159334 -2.17915e-05 0.00349057 1.04033e-18 0.00349057)
(0.00349057 -0.00159334 -2.17915e-05 0.00349057 7.68121e-19 0.00349057)
(0.00348984 -0.00159302 -2.21077e-05 0.00348984 1.09237e-18 0.00348984)
(0.00348984 -0.00159302 -2.21077e-05 0.00348984 7.97381e-19 0.00348984)
(0.00348884 -0.00159259 -2.24269e-05 0.00348884 1.15723e-18 0.00348884)
(0.00348884 -0.00159259 -2.24269e-05 0.00348884 8.48571e-19 0.00348884)
(0.00348758 -0.00159206 -2.2749e-05 0.00348758 1.21363e-18 0.00348758)
(0.00348758 -0.00159206 -2.2749e-05 0.00348758 8.84216e-19 0.00348758)
(0.00348608 -0.00159142 -2.30741e-05 0.00348608 1.26518e-18 0.00348608)
(0.00348608 -0.00159142 -2.30741e-05 0.00348608 9.14534e-19 0.00348608)
(0.00348433 -0.00159068 -2.34022e-05 0.00348433 1.30715e-18 0.00348433)
(0.00348433 -0.00159068 -2.34022e-05 0.00348433 9.51731e-19 0.00348433)
(0.00348236 -0.00158984 -2.37335e-05 0.00348236 1.36472e-18 0.00348236)
(0.00348236 -0.00158984 -2.37335e-05 0.00348236 9.86644e-19 0.00348236)
(0.00348016 -0.00158891 -2.40678e-05 0.00348016 1.42726e-18 0.00348016)
(0.00348016 -0.00158891 -2.40678e-05 0.00348016 1.03656e-18 0.00348016)
(0.00347775 -0.00158789 -2.44054e-05 0.00347775 1.49365e-18 0.00347775)
(0.00347775 -0.00158789 -2.44054e-05 0.00347775 1.0772e-18 0.00347775)
(0.00347514 -0.00158679 -2.47463e-05 0.00347514 1.55984e-18 0.00347514)
(0.00347514 -0.00158679 -2.47463e-05 0.00347514 1.10397e-18 0.00347514)
(0.00347232 -0.0015856 -2.50904e-05 0.00347232 1.61006e-18 0.00347232)
(0.00347232 -0.0015856 -2.50904e-05 0.00347232 1.14097e-18 0.00347232)
(0.00346931 -0.00158432 -2.54379e-05 0.00346931 1.66918e-18 0.00346931)
(0.00346931 -0.00158432 -2.54379e-05 0.00346931 1.19409e-18 0.00346931)
(0.00346612 -0.00158297 -2.57888e-05 0.00346612 1.73267e-18 0.00346612)
(0.00346612 -0.00158297 -2.57888e-05 0.00346612 1.24639e-18 0.00346612)
(0.00346274 -0.00158155 -2.61431e-05 0.00346274 1.79934e-18 0.00346274)
(0.00346274 -0.00158155 -2.61431e-05 0.00346274 1.28001e-18 0.00346274)
(0.00345918 -0.00158004 -2.65009e-05 0.00345918 1.86369e-18 0.00345918)
(0.00345918 -0.00158004 -2.65009e-05 0.00345918 1.32065e-18 0.00345918)
(0.00345546 -0.00157847 -2.68623e-05 0.00345546 1.91949e-18 0.00345546)
(0.00345546 -0.00157847 -2.68623e-05 0.00345546 1.36025e-18 0.00345546)
(0.00345157 -0.00157682 -2.72273e-05 0.00345157 1.97255e-18 0.00345157)
(0.00345157 -0.00157682 -2.72273e-05 0.00345157 1.40105e-18 0.00345157)
(0.00344752 -0.00157511 -2.75958e-05 0.00344752 2.0492e-18 0.00344752)
(0.00344752 -0.00157511 -2.75958e-05 0.00344752 1.46826e-18 0.00344752)
(0.00344331 -0.00157332 -2.79681e-05 0.00344331 2.13702e-18 0.00344331)
(0.00344331 -0.00157332 -2.79681e-05 0.00344331 1.52625e-18 0.00344331)
(0.00343895 -0.00157148 -2.83441e-05 0.00343895 2.21587e-18 0.00343895)
(0.00343895 -0.00157148 -2.83441e-05 0.00343895 1.5264e-18 0.00343895)
(0.00343444 -0.00156957 -2.87238e-05 0.00343444 2.28127e-18 0.00343444)
(0.00343444 -0.00156957 -2.87238e-05 0.00343444 1.56696e-18 0.00343444)
(0.00342979 -0.00156759 -2.91074e-05 0.00342979 2.36085e-18 0.00342979)
(0.00342979 -0.00156759 -2.91074e-05 0.00342979 1.67176e-18 0.00342979)
(0.003425 -0.00156556 -2.94948e-05 0.003425 2.44925e-18 0.003425)
(0.003425 -0.00156556 -2.94948e-05 0.003425 1.74485e-18 0.003425)
(0.00342007 -0.00156346 -2.98861e-05 0.00342007 2.5262e-18 0.00342007)
(0.00342007 -0.00156346 -2.98861e-05 0.00342007 1.77509e-18 0.00342007)
(0.003415 -0.00156131 -3.02813e-05 0.003415 2.60244e-18 0.003415)
(0.003415 -0.00156131 -3.02813e-05 0.003415 1.81774e-18 0.003415)
(0.00340981 -0.00155911 -3.06805e-05 0.00340981 2.68789e-18 0.00340981)
(0.00340981 -0.00155911 -3.06805e-05 0.00340981 1.86095e-18 0.00340981)
(0.00340449 -0.00155684 -3.10838e-05 0.00340449 2.75197e-18 0.00340449)
(0.00340449 -0.00155684 -3.10838e-05 0.00340449 1.92398e-18 0.00340449)
(0.00339905 -0.00155453 -3.14911e-05 0.00339905 2.83054e-18 0.00339905)
(0.00339905 -0.00155453 -3.14911e-05 0.00339905 2.03934e-18 0.00339905)
(0.00339349 -0.00155216 -3.19026e-05 0.00339349 2.92892e-18 0.00339349)
(0.00339349 -0.00155216 -3.19026e-05 0.00339349 2.08107e-18 0.00339349)
(0.00338781 -0.00154974 -3.23182e-05 0.00338781 3.01612e-18 0.00338781)
(0.00338781 -0.00154974 -3.23182e-05 0.00338781 2.1266e-18 0.00338781)
(0.00338201 -0.00154727 -3.2738e-05 0.00338201 3.0928e-18 0.00338201)
(0.00338201 -0.00154727 -3.2738e-05 0.00338201 2.22751e-18 0.00338201)
(0.0033761 -0.00154475 -3.31621e-05 0.0033761 3.15207e-18 0.0033761)
(0.0033761 -0.00154475 -3.31621e-05 0.0033761 2.30548e-18 0.0033761)
(0.00337008 -0.00154218 -3.35905e-05 0.00337008 3.24385e-18 0.00337008)
(0.00337008 -0.00154218 -3.35905e-05 0.00337008 2.35676e-18 0.00337008)
(0.00336396 -0.00153956 -3.40232e-05 0.00336396 3.35389e-18 0.00336396)
(0.00336396 -0.00153956 -3.40232e-05 0.00336396 2.45512e-18 0.00336396)
(0.00335773 -0.0015369 -3.44602e-05 0.00335773 3.42157e-18 0.00335773)
(0.00335773 -0.0015369 -3.44602e-05 0.00335773 2.60254e-18 0.00335773)
(0.0033514 -0.0015342 -3.49018e-05 0.0033514 3.53108e-18 0.0033514)
(0.0033514 -0.0015342 -3.49018e-05 0.0033514 2.67846e-18 0.0033514)
(0.00334497 -0.00153145 -3.53477e-05 0.00334497 3.69493e-18 0.00334497)
(0.00334497 -0.00153145 -3.53477e-05 0.00334497 2.69025e-18 0.00334497)
(0.00333844 -0.00152865 -3.57982e-05 0.00333844 3.75409e-18 0.00333844)
(0.00333844 -0.00152865 -3.57982e-05 0.00333844 2.72842e-18 0.00333844)
(0.00333181 -0.00152581 -3.62533e-05 0.00333181 3.80301e-18 0.00333181)
(0.00333181 -0.00152581 -3.62533e-05 0.00333181 2.84773e-18 0.00333181)
(0.0033251 -0.00152294 -3.67129e-05 0.0033251 3.91614e-18 0.0033251)
(0.0033251 -0.00152294 -3.67129e-05 0.0033251 2.95364e-18 0.0033251)
(0.00331829 -0.00152002 -3.71772e-05 0.00331829 4.07615e-18 0.00331829)
(0.00331829 -0.00152002 -3.71772e-05 0.00331829 2.99915e-18 0.00331829)
(0.00331139 -0.00151706 -3.76463e-05 0.00331139 4.14727e-18 0.00331139)
(0.00331139 -0.00151706 -3.76463e-05 0.00331139 3.0901e-18 0.00331139)
(0.0033044 -0.00151406 -3.812e-05 0.0033044 4.17111e-18 0.0033044)
(0.0033044 -0.00151406 -3.812e-05 0.0033044 3.18164e-18 0.0033044)
(0.00329733 -0.00151103 -3.85985e-05 0.00329733 4.33797e-18 0.00329733)
(0.00329733 -0.00151103 -3.85985e-05 0.00329733 3.21466e-18 0.00329733)
(0.00329017 -0.00150795 -3.90819e-05 0.00329017 4.50367e-18 0.00329017)
(0.00329017 -0.00150795 -3.90819e-05 0.00329017 3.32733e-18 0.00329017)
(0.00328293 -0.00150484 -3.95701e-05 0.00328293 4.57107e-18 0.00328293)
(0.00328293 -0.00150484 -3.95701e-05 0.00328293 3.41163e-18 0.00328293)
(0.00327561 -0.0015017 -4.00633e-05 0.00327561 4.67779e-18 0.00327561)
(0.00327561 -0.0015017 -4.00633e-05 0.00327561 3.44019e-18 0.00327561)
(0.00326822 -0.00149852 -4.05614e-05 0.00326822 4.83743e-18 0.00326822)
(0.00326822 -0.00149852 -4.05614e-05 0.00326822 3.59333e-18 0.00326822)
(0.00326074 -0.0014953 -4.10645e-05 0.00326074 4.96892e-18 0.00326074)
(0.00326074 -0.0014953 -4.10645e-05 0.00326074 3.73862e-18 0.00326074)
(0.00325319 -0.00149205 -4.15728e-05 0.00325319 5.12106e-18 0.00325319)
(0.00325319 -0.00149205 -4.15728e-05 0.00325319 3.80803e-18 0.00325319)
(0.00324557 -0.00148877 -4.20861e-05 0.00324557 5.27237e-18 0.00324557)
(0.00324557 -0.00148877 -4.20861e-05 0.00324557 3.85894e-18 0.00324557)
(0.00323787 -0.00148545 -4.26045e-05 0.00323787 5.34867e-18 0.00323787)
(0.00323787 -0.00148545 -4.26045e-05 0.00323787 3.94981e-18 0.00323787)
(0.00323011 -0.00148211 -4.31282e-05 0.00323011 5.47697e-18 0.00323011)
(0.00323011 -0.00148211 -4.31282e-05 0.00323011 4.10999e-18 0.00323011)
(0.00322227 -0.00147873 -4.36571e-05 0.00322227 5.64814e-18 0.00322227)
(0.00322227 -0.00147873 -4.36571e-05 0.00322227 4.22114e-18 0.00322227)
(0.00321437 -0.00147532 -4.41914e-05 0.00321437 5.83158e-18 0.00321437)
(0.00321437 -0.00147532 -4.41914e-05 0.00321437 4.34269e-18 0.00321437)
(0.0032064 -0.00147188 -4.47309e-05 0.0032064 5.98316e-18 0.0032064)
(0.0032064 -0.00147188 -4.47309e-05 0.0032064 4.49238e-18 0.0032064)
(0.00319836 -0.00146841 -4.52759e-05 0.00319836 6.1509e-18 0.00319836)
(0.00319836 -0.00146841 -4.52759e-05 0.00319836 4.64741e-18 0.00319836)
(0.00319026 -0.00146491 -4.58263e-05 0.00319026 6.30918e-18 0.00319026)
(0.00319026 -0.00146491 -4.58263e-05 0.00319026 4.77853e-18 0.00319026)
(0.0031821 -0.00146139 -4.63822e-05 0.0031821 6.39424e-18 0.0031821)
(0.0031821 -0.00146139 -4.63822e-05 0.0031821 4.80183e-18 0.0031821)
(0.00317388 -0.00145783 -4.69436e-05 0.00317388 6.64198e-18 0.00317388)
(0.00317388 -0.00145783 -4.69436e-05 0.00317388 4.97343e-18 0.00317388)
(0.0031656 -0.00145425 -4.75106e-05 0.0031656 6.83835e-18 0.0031656)
(0.0031656 -0.00145425 -4.75106e-05 0.0031656 5.23992e-18 0.0031656)
(0.00315726 -0.00145065 -4.80833e-05 0.00315726 6.87291e-18 0.00315726)
(0.00315726 -0.00145065 -4.80833e-05 0.00315726 5.38738e-18 0.00315726)
(0.00314886 -0.00144701 -4.86616e-05 0.00314886 7.06988e-18 0.00314886)
(0.00314886 -0.00144701 -4.86616e-05 0.00314886 5.51796e-18 0.00314886)
(0.0031404 -0.00144335 -4.92457e-05 0.0031404 7.33563e-18 0.0031404)
(0.0031404 -0.00144335 -4.92457e-05 0.0031404 5.80722e-18 0.0031404)
(0.00313189 -0.00143967 -4.98355e-05 0.00313189 7.49957e-18 0.00313189)
(0.00313189 -0.00143967 -4.98355e-05 0.00313189 6.0626e-18 0.00313189)
(0.00312333 -0.00143596 -5.04312e-05 0.00312333 7.54894e-18 0.00312333)
(0.00312333 -0.00143596 -5.04312e-05 0.00312333 6.0914e-18 0.00312333)
(0.00311471 -0.00143222 -5.10327e-05 0.00311471 7.67357e-18 0.00311471)
(0.00311471 -0.00143222 -5.10327e-05 0.00311471 6.26785e-18 0.00311471)
(0.00310604 -0.00142846 -5.16402e-05 0.00310604 7.95042e-18 0.00310604)
(0.00310604 -0.00142846 -5.16402e-05 0.00310604 6.46994e-18 0.00310604)
(0.00309733 -0.00142468 -5.22537e-05 0.00309733 8.1052e-18 0.00309733)
(0.00309733 -0.00142468 -5.22537e-05 0.00309733 6.70441e-18 0.00309733)
(0.00308856 -0.00142088 -5.28731e-05 0.00308856 8.20478e-18 0.00308856)
(0.00308856 -0.00142088 -5.28731e-05 0.00308856 6.93997e-18 0.00308856)
(0.00307974 -0.00141705 -5.34987e-05 0.00307974 8.23112e-18 0.00307974)
(0.00307974 -0.00141705 -5.34987e-05 0.00307974 6.84346e-18 0.00307974)
(0.00307087 -0.0014132 -5.41304e-05 0.00307087 8.4702e-18 0.00307087)
(0.00307087 -0.0014132 -5.41304e-05 0.00307087 6.78893e-18 0.00307087)
(0.00306196 -0.00140933 -5.47682e-05 0.00306196 8.83386e-18 0.00306196)
(0.00306196 -0.00140933 -5.47682e-05 0.00306196 7.08282e-18 0.00306196)
(0.003053 -0.00140543 -5.54123e-05 0.003053 9.04493e-18 0.003053)
(0.003053 -0.00140543 -5.54123e-05 0.003053 7.32841e-18 0.003053)
(0.003044 -0.00140152 -5.60626e-05 0.003044 9.16324e-18 0.003044)
(0.003044 -0.00140152 -5.60626e-05 0.003044 7.37551e-18 0.003044)
(0.00303495 -0.00139758 -5.67193e-05 0.00303495 9.50287e-18 0.00303495)
(0.00303495 -0.00139758 -5.67193e-05 0.00303495 7.5611e-18 0.00303495)
(0.00302586 -0.00139363 -5.73823e-05 0.00302586 9.62623e-18 0.00302586)
(0.00302586 -0.00139363 -5.73823e-05 0.00302586 7.88068e-18 0.00302586)
(0.00301672 -0.00138965 -5.80518e-05 0.00301672 9.66094e-18 0.00301672)
(0.00301672 -0.00138965 -5.80518e-05 0.00301672 8.02587e-18 0.00301672)
(0.00300755 -0.00138566 -5.87277e-05 0.00300755 1.02276e-17 0.00300755)
(0.00300755 -0.00138566 -5.87277e-05 0.00300755 7.98006e-18 0.00300755)
(0.00299833 -0.00138164 -5.94101e-05 0.00299833 1.04865e-17 0.00299833)
(0.00299833 -0.00138164 -5.94101e-05 0.00299833 8.44322e-18 0.00299833)
(0.00298907 -0.00137761 -6.00991e-05 0.00298907 1.0505e-17 0.00298907)
(0.00298907 -0.00137761 -6.00991e-05 0.00298907 8.87972e-18 0.00298907)
(0.00297978 -0.00137355 -6.07947e-05 0.00297978 1.07948e-17 0.00297978)
(0.00297978 -0.00137355 -6.07947e-05 0.00297978 8.73737e-18 0.00297978)
(0.00297044 -0.00136948 -6.14969e-05 0.00297044 1.10368e-17 0.00297044)
(0.00297044 -0.00136948 -6.14969e-05 0.00297044 8.9448e-18 0.00297044)
(0.00296107 -0.00136539 -6.22058e-05 0.00296107 1.09559e-17 0.00296107)
(0.00296107 -0.00136539 -6.22058e-05 0.00296107 9.32263e-18 0.00296107)
(0.00295166 -0.00136128 -6.29215e-05 0.00295166 7.37973e-18 0.00295166)
(0.00295166 -0.00136128 -6.29215e-05 0.00295166 9.42685e-18 0.00295166)
(0.00294221 -0.00135716 -6.3644e-05 0.00294221 3.89043e-18 0.00294221)
(0.00294221 -0.00135716 -6.3644e-05 0.00294221 9.63201e-18 0.00294221)
(0.00293273 -0.00135301 -6.43733e-05 0.00293273 3.92527e-18 0.00293273)
(0.00293273 -0.00135301 -6.43733e-05 0.00293273 1.00525e-17 0.00293273)
(0.00292321 -0.00134885 -6.51096e-05 0.00292321 3.88896e-18 0.00292321)
(0.00292321 -0.00134885 -6.51096e-05 0.00292321 1.0354e-17 0.00292321)
(0.00291365 -0.00134468 -6.58527e-05 0.00291365 3.75262e-18 0.00291365)
(0.00291365 -0.00134468 -6.58527e-05 0.00291365 1.05136e-17 0.00291365)
(0.00290406 -0.00134048 -6.66028e-05 0.00290406 3.51252e-18 0.00290406)
(0.00290406 -0.00134048 -6.66028e-05 0.00290406 1.08737e-17 0.00290406)
(0.00289444 -0.00133627 -6.73599e-05 0.00289444 3.17957e-18 0.00289444)
(0.00289444 -0.00133627 -6.73599e-05 0.00289444 1.12553e-17 0.00289444)
(0.00288478 -0.00133204 -6.81241e-05 0.00288478 3.03107e-18 0.00288478)
(0.00288478 -0.00133204 -6.81241e-05 0.00288478 1.13404e-17 0.00288478)
(0.0028751 -0.0013278 -6.88954e-05 0.0028751 3.26033e-18 0.0028751)
(0.0028751 -0.0013278 -6.88954e-05 0.0028751 1.14735e-17 0.0028751)
(0.00286537 -0.00132354 -6.96739e-05 0.00286537 3.46308e-18 0.00286537)
(0.00286537 -0.00132354 -6.96739e-05 0.00286537 1.17179e-17 0.00286537)
(0.00285562 -0.00131926 -7.04595e-05 0.00285562 3.01873e-18 0.00285562)
(0.00285562 -0.00131926 -7.04595e-05 0.00285562 1.21043e-17 0.00285562)
(0.00284583 -0.00131496 -7.12523e-05 0.00284583 2.2621e-18 0.00284583)
(0.00284583 -0.00131496 -7.12523e-05 0.00284583 1.29181e-17 0.00284583)
(0.00283602 -0.00131066 -7.20524e-05 0.00283602 2.03084e-18 0.00283602)
(0.00283602 -0.00131066 -7.20524e-05 0.00283602 1.33831e-17 0.00283602)
(0.00282617 -0.00130633 -7.28598e-05 0.00282617 2.49257e-18 0.00282617)
(0.00282617 -0.00130633 -7.28598e-05 0.00282617 1.34055e-17 0.00282617)
(0.00281629 -0.00130199 -7.36745e-05 0.00281629 3.56827e-18 0.00281629)
(0.00281629 -0.00130199 -7.36745e-05 0.00281629 1.37521e-17 0.00281629)
(0.00280638 -0.00129764 -7.44967e-05 0.00280638 4.3505e-18 0.00280638)
(0.00280638 -0.00129764 -7.44967e-05 0.00280638 1.43477e-17 0.00280638)
(0.00279645 -0.00129326 -7.53262e-05 0.00279645 4.02519e-18 0.00279645)
(0.00279645 -0.00129326 -7.53262e-05 0.00279645 1.47375e-17 0.00279645)
(0.00278648 -0.00128888 -7.61631e-05 0.00278648 3.33063e-18 0.00278648)
(0.00278648 -0.00128888 -7.61631e-05 0.00278648 1.48282e-17 0.00278648)
(0.00277648 -0.00128448 -7.70075e-05 0.00277648 2.45749e-18 0.00277648)
(0.00277648 -0.00128448 -7.70075e-05 0.00277648 1.51683e-17 0.00277648)
(0.00276645 -0.00128006 -7.78594e-05 0.00276645 1.69475e-18 0.00276645)
(0.00276645 -0.00128006 -7.78594e-05 0.00276645 1.5507e-17 0.00276645)
(0.0027564 -0.00127563 -7.87188e-05 0.0027564 1.46189e-18 0.0027564)
(0.0027564 -0.00127563 -7.87188e-05 0.0027564 1.57141e-17 0.0027564)
(0.00274631 -0.00127118 -7.95858e-05 0.00274631 1.07638e-18 0.00274631)
(0.00274631 -0.00127118 -7.95858e-05 0.00274631 1.4542e-17 0.00274631)
(0.0027362 -0.00126672 -8.04604e-05 0.0027362 8.07236e-19 0.0027362)
(0.0027362 -0.00126672 -8.04604e-05 0.0027362 8.87086e-18 0.0027362)
(0.00272606 -0.00126224 -8.13425e-05 0.00272606 7.79069e-19 0.00272606)
(0.00272606 -0.00126224 -8.13425e-05 0.00272606 4.70852e-18 0.00272606)
(0.00271589 -0.00125774 -8.22323e-05 0.00271589 7.6183e-19 0.00271589)
(0.00271589 -0.00125774 -8.22323e-05 0.00271589 4.88309e-18 0.00271589)
(0.00270569 -0.00125323 -8.31297e-05 0.00270569 2.33894e-19 0.00270569)
(0.00270569 -0.00125323 -8.31297e-05 0.00270569 4.72543e-18 0.00270569)
(0.00269547 -0.00124871 -8.40348e-05 0.00269547 -6.5668e-19 0.00269547)
(0.00269547 -0.00124871 -8.40348e-05 0.00269547 4.44303e-18 0.00269547)
(0.00268521 -0.00124417 -8.49475e-05 0.00268521 -5.4344e-19 0.00268521)
(0.00268521 -0.00124417 -8.49475e-05 0.00268521 4.69191e-18 0.00268521)
(0.00267493 -0.00123962 -8.58679e-05 0.00267493 -5.67588e-19 0.00267493)
(0.00267493 -0.00123962 -8.58679e-05 0.00267493 5.04542e-18 0.00267493)
(0.00266462 -0.00123505 -8.6796e-05 0.00266462 -1.18605e-18 0.00266462)
(0.00266462 -0.00123505 -8.6796e-05 0.00266462 5.06102e-18 0.00266462)
(0.00265428 -0.00123046 -8.77318e-05 0.00265428 -1.68406e-18 0.00265428)
(0.00265428 -0.00123046 -8.77318e-05 0.00265428 5.10085e-18 0.00265428)
(0.00264391 -0.00122586 -8.86753e-05 0.00264391 -1.60605e-18 0.00264391)
(0.00264391 -0.00122586 -8.86753e-05 0.00264391 5.08048e-18 0.00264391)
(0.00263352 -0.00122124 -8.96265e-05 0.00263352 -1.56773e-18 0.00263352)
(0.00263352 -0.00122124 -8.96265e-05 0.00263352 5.24782e-18 0.00263352)
(0.00262309 -0.00121661 -9.05854e-05 0.00262309 -1.28728e-18 0.00262309)
(0.00262309 -0.00121661 -9.05854e-05 0.00262309 5.57889e-18 0.00262309)
(0.00261264 -0.00121196 -9.15519e-05 0.00261264 -1.13209e-18 0.00261264)
(0.00261264 -0.00121196 -9.15519e-05 0.00261264 5.705e-18 0.00261264)
(0.00260216 -0.00120729 -9.25262e-05 0.00260216 -1.19079e-18 0.00260216)
(0.00260216 -0.00120729 -9.25262e-05 0.00260216 5.67818e-18 0.00260216)
(0.00259165 -0.00120261 -9.35082e-05 0.00259165 -1.05732e-18 0.00259165)
(0.00259165 -0.00120261 -9.35082e-05 0.00259165 5.69656e-18 0.00259165)
(0.00258111 -0.00119791 -9.44978e-05 0.00258111 -2.1717e-18 0.00258111)
(0.00258111 -0.00119791 -9.44978e-05 0.00258111 6.18464e-18 0.00258111)
(0.00257054 -0.00119319 -9.5495e-05 0.00257054 -2.59329e-18 0.00257054)
(0.00257054 -0.00119319 -9.5495e-05 0.00257054 6.20341e-18 0.00257054)
(0.00255994 -0.00118846 -9.64998e-05 0.00255994 -2.05527e-18 0.00255994)
(0.00255994 -0.00118846 -9.64998e-05 0.00255994 5.75094e-18 0.00255994)
(0.00254931 -0.00118371 -9.75123e-05 0.00254931 -2.5496e-18 0.00254931)
(0.00254931 -0.00118371 -9.75123e-05 0.00254931 5.89228e-18 0.00254931)
(0.00253865 -0.00117894 -9.85322e-05 0.00253865 -3.00579e-18 0.00253865)
(0.00253865 -0.00117894 -9.85322e-05 0.00253865 6.16717e-18 0.00253865)
(0.00252796 -0.00117416 -9.95597e-05 0.00252796 -3.17213e-18 0.00252796)
(0.00252796 -0.00117416 -9.95597e-05 0.00252796 6.45833e-18 0.00252796)
(0.00251724 -0.00116935 -0.000100595 0.00251724 -3.78501e-18 0.00251724)
(0.00251724 -0.00116935 -0.000100595 0.00251724 6.78501e-18 0.00251724)
(0.00250649 -0.00116453 -0.000101637 0.00250649 -4.06566e-18 0.00250649)
(0.00250649 -0.00116453 -0.000101637 0.00250649 6.81343e-18 0.00250649)
(0.00249571 -0.00115969 -0.000102687 0.00249571 -4.1552e-18 0.00249571)
(0.00249571 -0.00115969 -0.000102687 0.00249571 6.25083e-18 0.00249571)
(0.00248489 -0.00115483 -0.000103744 0.00248489 -4.48947e-18 0.00248489)
(0.00248489 -0.00115483 -0.000103744 0.00248489 6.14216e-18 0.00248489)
(0.00247404 -0.00114995 -0.000104808 0.00247404 -4.43813e-18 0.00247404)
(0.00247404 -0.00114995 -0.000104808 0.00247404 7.38732e-18 0.00247404)
(0.00246316 -0.00114505 -0.00010588 0.00246316 -3.88106e-18 0.00246316)
(0.00246316 -0.00114505 -0.00010588 0.00246316 7.85715e-18 0.00246316)
(0.00245225 -0.00114014 -0.000106958 0.00245225 -4.20966e-18 0.00245225)
(0.00245225 -0.00114014 -0.000106958 0.00245225 6.78186e-18 0.00245225)
(0.0024413 -0.0011352 -0.000108044 0.0024413 -5.14392e-18 0.0024413)
(0.0024413 -0.0011352 -0.000108044 0.0024413 6.70505e-18 0.0024413)
(0.00243031 -0.00113024 -0.000109137 0.00243031 -5.74123e-18 0.00243031)
(0.00243031 -0.00113024 -0.000109137 0.00243031 8.63774e-18 0.00243031)
(0.00241929 -0.00112526 -0.000110236 0.00241929 -5.24296e-18 0.00241929)
(0.00241929 -0.00112526 -0.000110236 0.00241929 8.83057e-18 0.00241929)
(0.00240823 -0.00112026 -0.000111342 0.00240823 -4.62485e-18 0.00240823)
(0.00240823 -0.00112026 -0.000111342 0.00240823 7.25491e-18 0.00240823)
(0.00239714 -0.00111523 -0.000112455 0.00239714 -6.05606e-18 0.00239714)
(0.00239714 -0.00111523 -0.000112455 0.00239714 7.99192e-18 0.00239714)
(0.00238601 -0.00111019 -0.000113574 0.00238601 -5.76143e-18 0.00238601)
(0.00238601 -0.00111019 -0.000113574 0.00238601 1.05754e-17 0.00238601)
(0.00237484 -0.00110512 -0.0001147 0.00237484 -3.56381e-18 0.00237484)
(0.00237484 -0.00110512 -0.0001147 0.00237484 1.36656e-17 0.00237484)
(0.00236363 -0.00110003 -0.000115832 0.00236363 -3.57748e-18 0.00236363)
(0.00236363 -0.00110003 -0.000115832 0.00236363 1.6299e-17 0.00236363)
(0.00235238 -0.00109491 -0.00011697 0.00235238 -5.06313e-18 0.00235238)