/*--------------------------------*- C++ -*----------------------------------*\
| =========                 |                                                 |
| \\      /  F ield         | OpenFOAM: The Open Source CFD Toolbox           |
|  \\    /   O peration     | Version:  2106                                  |
|   \\  /    A nd           | Website:  www.openfoam.com                      |
|    \\/     M anipulation  |                                                 |
\*---------------------------------------------------------------------------*/
FoamFile
{
    version     2.0;
    format      ascii;
    arch        "LSB;label=32;scalar=64";
    class       volVectorField;
    location    "10000";
    object      U;
}
// * * * * * * * * * * * * * * * * * * * * * * * * * * * * * * * * * * * * * //

dimensions      [0 1 -1 0 0 0 0];

internalField   nonuniform List<vector> 
2560
(
(0.0156496 -6.48872e-16 -1.14106e-16)
(0.0156496 2.44383e-18 -1.29409e-18)
(0.0471724 -3.1897e-15 -5.09481e-16)
(0.0471724 -7.18923e-18 -1.5308e-17)
(0.079145 -2.89632e-15 -5.25216e-16)
(0.079145 -8.74188e-18 -1.57881e-17)
(0.111542 -2.74038e-15 -5.39997e-16)
(0.111542 -1.34427e-17 -1.62626e-17)
(0.144246 -2.72546e-15 -5.51719e-16)
(0.144246 -1.85935e-17 -1.66563e-17)
(0.176946 -2.73667e-15 -5.56155e-16)
(0.176946 -2.38259e-17 -1.68497e-17)
(0.209066 -2.73427e-15 -5.48918e-16)
(0.209066 -2.90178e-17 -1.67196e-17)
(0.239848 -2.72539e-15 -5.28347e-16)
(0.239848 -3.41059e-17 -1.62099e-17)
(0.268594 -2.71514e-15 -4.9697e-16)
(0.268594 -3.88301e-17 -1.53891e-17)
(0.294882 -2.70499e-15 -4.5991e-16)
(0.294882 -4.3231e-17 -1.4409e-17)
(0.318614 -2.69557e-15 -4.2207e-16)
(0.318614 -4.73509e-17 -1.34106e-17)
(0.339926 -2.68744e-15 -3.8661e-16)
(0.339926 -5.11857e-17 -1.24842e-17)
(0.359068 -2.68057e-15 -3.54968e-16)
(0.359068 -5.46745e-17 -1.16731e-17)
(0.37632 -2.67455e-15 -3.27468e-16)
(0.37632 -5.77215e-17 -1.09866e-17)
(0.391947 -2.66894e-15 -3.03877e-16)
(0.391947 -6.08429e-17 -1.04261e-17)
(0.406183 -2.66371e-15 -2.83747e-16)
(0.406183 -6.37233e-17 -9.97191e-18)
(0.419226 -2.65875e-15 -2.66589e-16)
(0.419226 -6.64921e-17 -9.60918e-18)
(0.431244 -2.65418e-15 -2.51951e-16)
(0.431244 -6.93516e-17 -9.32532e-18)
(0.442376 -2.6501e-15 -2.39437e-16)
(0.442376 -7.17671e-17 -9.10872e-18)
(0.452737 -2.6463e-15 -2.28716e-16)
(0.452737 -7.39891e-17 -8.9501e-18)
(0.462424 -2.6425e-15 -2.19511e-16)
(0.462424 -7.61387e-17 -8.85245e-18)
(0.471519 -2.63877e-15 -2.11595e-16)
(0.471519 -7.81733e-17 -8.79581e-18)
(0.480088 -2.63544e-15 -2.04781e-16)
(0.480088 -7.99384e-17 -8.77034e-18)
(0.488192 -2.63222e-15 -1.98918e-16)
(0.488192 -8.1861e-17 -8.78799e-18)
(0.495878 -2.62874e-15 -1.93877e-16)
(0.495878 -8.36184e-17 -8.83228e-18)
(0.50319 -2.6255e-15 -1.89553e-16)
(0.50319 -8.54849e-17 -8.91601e-18)
(0.510164 -2.62259e-15 -1.85856e-16)
(0.510164 -8.73301e-17 -9.0387e-18)
(0.516832 -2.62e-15 -1.82716e-16)
(0.516832 -8.87137e-17 -9.17837e-18)
(0.523222 -2.61738e-15 -1.80072e-16)
(0.523222 -9.01557e-17 -9.33127e-18)
(0.529357 -2.61448e-15 -1.77868e-16)
(0.529357 -9.17426e-17 -9.49996e-18)
(0.535259 -2.61178e-15 -1.76061e-16)
(0.535259 -9.31452e-17 -9.69492e-18)
(0.540948 -2.60904e-15 -1.7461e-16)
(0.540948 -9.46599e-17 -9.92425e-18)
(0.546439 -2.60669e-15 -1.73485e-16)
(0.546439 -9.56839e-17 -1.01625e-17)
(0.551749 -2.60446e-15 -1.72662e-16)
(0.551749 -9.67888e-17 -1.04361e-17)
(0.55689 -2.60191e-15 -1.72113e-16)
(0.55689 -9.84738e-17 -1.07166e-17)
(0.561874 -2.59923e-15 -1.68169e-16)
(0.561874 -1.00202e-16 -1.10082e-17)
(0.566712 -2.59668e-15 -1.63966e-16)
(0.566712 -1.01777e-16 -1.13271e-17)
(0.571415 -2.59428e-15 -1.60016e-16)
(0.571415 -1.03094e-16 -1.16664e-17)
(0.57599 -2.59193e-15 -1.56299e-16)
(0.57599 -1.04318e-16 -1.20087e-17)
(0.580446 -2.58942e-15 -1.52775e-16)
(0.580446 -1.05729e-16 -1.23907e-17)
(0.58479 -2.58678e-15 -1.49436e-16)
(0.58479 -1.07539e-16 -1.27945e-17)
(0.58903 -2.58483e-15 -1.46279e-16)
(0.58903 -1.07964e-16 -1.31903e-17)
(0.59317 -2.5835e-15 -1.43291e-16)
(0.59317 -1.08283e-16 -1.36077e-17)
(0.597218 -2.58167e-15 -1.40442e-16)
(0.597218 -1.09219e-16 -1.40502e-17)
(0.601177 -2.57974e-15 -1.37737e-16)
(0.601177 -1.09697e-16 -1.45122e-17)
(0.605053 -2.5777e-15 -1.35973e-16)
(0.605053 -1.1017e-16 -1.50138e-17)
(0.60885 -2.57527e-15 -1.36684e-16)
(0.60885 -1.10618e-16 -1.55387e-17)
(0.612573 -2.57349e-15 -1.37508e-16)
(0.612573 -1.11324e-16 -1.60684e-17)
(0.616224 -2.57183e-15 -1.38422e-16)
(0.616224 -1.12081e-16 -1.66271e-17)
(0.619809 -2.56992e-15 -1.39417e-16)
(0.619809 -1.12606e-16 -1.72188e-17)
(0.623329 -2.56787e-15 -1.40531e-16)
(0.623329 -1.13424e-16 -1.78367e-17)
(0.626788 -2.56541e-15 -1.41715e-16)
(0.626788 -1.14927e-16 -1.84628e-17)
(0.630189 -2.56303e-15 -1.42993e-16)
(0.630189 -1.15612e-16 -1.91312e-17)
(0.633534 -2.56081e-15 -1.44332e-16)
(0.633534 -1.16154e-16 -1.98169e-17)
(0.636826 -2.55915e-15 -1.45756e-16)
(0.636826 -1.17068e-16 -2.05294e-17)
(0.640068 -2.55775e-15 -1.47252e-16)
(0.640068 -1.17286e-16 -2.12687e-17)
(0.64326 -2.55556e-15 -1.48835e-16)
(0.64326 -1.18127e-16 -2.2036e-17)
(0.646407 -2.55352e-15 -1.505e-16)
(0.646407 -1.19422e-16 -2.28192e-17)
(0.649509 -2.5518e-15 -1.52239e-16)
(0.649509 -1.20096e-16 -2.36329e-17)
(0.652568 -2.54944e-15 -1.54048e-16)
(0.652568 -1.21231e-16 -2.4499e-17)
(0.655586 -2.54698e-15 -1.55945e-16)
(0.655586 -1.2209e-16 -2.53944e-17)
(0.658565 -2.54444e-15 -1.57896e-16)
(0.658565 -1.22809e-16 -2.62778e-17)
(0.661505 -2.54182e-15 -1.59934e-16)
(0.661505 -1.24885e-16 -2.7223e-17)
(0.66441 -2.53913e-15 -1.6207e-16)
(0.66441 -1.25733e-16 -2.82232e-17)
(0.667279 -2.53642e-15 -1.64259e-16)
(0.667279 -1.27207e-16 -2.92344e-17)
(0.670114 -2.5343e-15 -1.66527e-16)
(0.670114 -1.29032e-16 -3.02756e-17)
(0.672917 -2.53165e-15 -1.6883e-16)
(0.672917 -1.30594e-16 -3.1347e-17)
(0.675689 -2.52886e-15 -1.71233e-16)
(0.675689 -1.32422e-16 -3.24497e-17)
(0.67843 -2.52688e-15 -1.73697e-16)
(0.67843 -1.3355e-16 -3.36257e-17)
(0.681142 -2.52449e-15 -1.76303e-16)
(0.681142 -1.34507e-16 -3.47948e-17)
(0.683825 -2.52147e-15 -1.78926e-16)
(0.683825 -1.35747e-16 -3.5996e-17)
(0.686482 -2.51887e-15 -1.8163e-16)
(0.686482 -1.37975e-16 -3.72221e-17)
(0.689112 -2.51613e-15 -1.84413e-16)
(0.689112 -1.39639e-16 -3.85226e-17)
(0.691716 -2.5135e-15 -1.87271e-16)
(0.691716 -1.40628e-16 -3.98461e-17)
(0.694296 -2.51136e-15 -1.90224e-16)
(0.694296 -1.42043e-16 -4.11935e-17)
(0.696851 -2.50894e-15 -1.93257e-16)
(0.696851 -1.43963e-16 -4.25783e-17)
(0.699384 -2.50766e-15 -1.96329e-16)
(0.699384 -1.44828e-16 -4.39723e-17)
(0.701894 -2.50678e-15 -1.99522e-16)
(0.701894 -1.45063e-16 -4.5424e-17)
(0.704383 -2.50522e-15 -2.02802e-16)
(0.704383 -1.45956e-16 -4.69743e-17)
(0.70685 -2.50328e-15 -2.06198e-16)
(0.70685 -1.46454e-16 -4.85476e-17)
(0.709296 -2.50062e-15 -2.09661e-16)
(0.709296 -1.46575e-16 -5.00359e-17)
(0.711723 -2.49854e-15 -2.13185e-16)
(0.711723 -1.47807e-16 -5.16717e-17)
(0.714131 -2.49608e-15 -2.16865e-16)
(0.714131 -1.47583e-16 -5.34085e-17)
(0.716519 -2.49286e-15 -2.20596e-16)
(0.716519 -1.47018e-16 -5.52136e-17)
(0.71889 -2.49011e-15 -2.24432e-16)
(0.71889 -1.4884e-16 -5.69884e-17)
(0.721242 -2.4872e-15 -2.28362e-16)
(0.721242 -1.49555e-16 -5.88289e-17)
(0.723578 -2.48453e-15 -2.324e-16)
(0.723578 -1.50452e-16 -6.06638e-17)
(0.725896 -2.4827e-15 -2.36482e-16)
(0.725896 -1.51855e-16 -6.26207e-17)
(0.728198 -2.48116e-15 -2.40741e-16)
(0.728198 -1.52079e-16 -6.47177e-17)
(0.730485 -2.47922e-15 -2.45078e-16)
(0.730485 -1.53773e-16 -6.67399e-17)
(0.732756 -2.47703e-15 -2.4953e-16)
(0.732756 -1.56002e-16 -6.88779e-17)
(0.735011 -2.47564e-15 -2.54034e-16)
(0.735011 -1.56688e-16 -7.1104e-17)
(0.737252 -2.47368e-15 -2.58646e-16)
(0.737252 -1.57527e-16 -7.34016e-17)
(0.739479 -2.47118e-15 -2.63346e-16)
(0.739479 -1.59452e-16 -7.57025e-17)
(0.741691 -2.46936e-15 -2.68207e-16)
(0.741691 -1.62455e-16 -7.8214e-17)
(0.74389 -2.46721e-15 -2.73086e-16)
(0.74389 -1.64031e-16 -8.08488e-17)
(0.746076 -2.4642e-15 -2.78203e-16)
(0.746076 -1.6479e-16 -8.34948e-17)
(0.748249 -2.46033e-15 -2.83464e-16)
(0.748249 -1.67589e-16 -8.60936e-17)
(0.750409 -2.4573e-15 -2.88661e-16)
(0.750409 -1.70319e-16 -8.87517e-17)
(0.752556 -2.45487e-15 -2.94058e-16)
(0.752556 -1.71698e-16 -9.15987e-17)
(0.754692 -2.45121e-15 -2.99558e-16)
(0.754692 -1.7219e-16 -9.4501e-17)
(0.756815 -2.44866e-15 -3.05301e-16)
(0.756815 -1.73727e-16 -9.74205e-17)
(0.758928 -2.44833e-15 -3.1101e-16)
(0.758928 -1.74159e-16 -1.00499e-16)
(0.761028 -2.44827e-15 -3.16893e-16)
(0.761028 -1.72095e-16 -1.03591e-16)
(0.763118 -2.44756e-15 -3.23039e-16)
(0.763118 -1.72919e-16 -1.06735e-16)
(0.765197 -2.44638e-15 -3.29307e-16)
(0.765197 -1.73981e-16 -1.10081e-16)
(0.767265 -2.44429e-15 -3.35575e-16)
(0.767265 -1.7415e-16 -1.13362e-16)
(0.769323 -2.44223e-15 -3.4205e-16)
(0.769323 -1.76786e-16 -1.16727e-16)
(0.771371 -2.4406e-15 -3.48719e-16)
(0.771371 -1.78071e-16 -1.20315e-16)
(0.773409 -2.43819e-15 -3.55539e-16)
(0.773409 -1.79038e-16 -1.23967e-16)
(0.775437 -2.43546e-15 -3.62541e-16)
(0.775437 -1.81525e-16 -1.27677e-16)
(0.777456 -2.43281e-15 -3.69717e-16)
(0.777456 -1.83337e-16 -1.31375e-16)
(0.779465 -2.42926e-15 -3.76893e-16)
(0.779465 -1.86646e-16 -1.35237e-16)
(0.781465 -2.42617e-15 -3.84329e-16)
(0.781465 -1.88219e-16 -1.39245e-16)
(0.783457 -2.42251e-15 -3.91958e-16)
(0.783457 -1.9042e-16 -1.43322e-16)
(0.785439 -2.41863e-15 -3.99819e-16)
(0.785439 -1.94166e-16 -1.47556e-16)
(0.787413 -2.41499e-15 -4.07804e-16)
(0.787413 -1.97443e-16 -1.51904e-16)
(0.789378 -2.4088e-15 -4.16097e-16)
(0.789378 -2.00908e-16 -1.56443e-16)
(0.791335 -2.40309e-15 -4.2431e-16)
(0.791335 -2.05597e-16 -1.61007e-16)
(0.793284 -2.39844e-15 -4.32827e-16)
(0.793284 -2.11151e-16 -1.65464e-16)
(0.795225 -2.39331e-15 -4.41735e-16)
(0.795225 -2.14972e-16 -1.70338e-16)
(0.797158 -2.38918e-15 -4.50708e-16)
(0.797158 -2.20959e-16 -1.75374e-16)
(0.799084 -2.38401e-15 -4.59743e-16)
(0.799084 -2.26808e-16 -1.80452e-16)
(0.801002 -2.37879e-15 -4.69141e-16)
(0.801002 -2.3349e-16 -1.85646e-16)
(0.802912 -2.37375e-15 -4.78845e-16)
(0.802912 -2.39664e-16 -1.91271e-16)
(0.804815 -2.3684e-15 -4.88657e-16)
(0.804815 -2.46483e-16 -1.96912e-16)
(0.806711 -2.36205e-15 -4.98441e-16)
(0.806711 -2.54462e-16 -2.02405e-16)
(0.8086 -2.35456e-15 -5.08485e-16)
(0.8086 -2.61464e-16 -2.08282e-16)
(0.810482 -2.34928e-15 -5.18888e-16)
(0.810482 -2.67502e-16 -2.14138e-16)
(0.812357 -2.34568e-15 -5.29473e-16)
(0.812357 -2.6995e-16 -2.20474e-16)
(0.814226 -2.34399e-15 -5.40238e-16)
(0.814226 -2.708e-16 -2.26825e-16)
(0.816087 -2.34253e-15 -5.51013e-16)
(0.816087 -2.71296e-16 -2.32855e-16)
(0.817943 -2.3401e-15 -5.62411e-16)
(0.817943 -2.73253e-16 -2.38992e-16)
(0.819792 -2.33754e-15 -5.74045e-16)
(0.819792 -2.72754e-16 -2.45663e-16)
(0.821634 -2.33448e-15 -5.8597e-16)
(0.821634 -2.71499e-16 -2.52375e-16)
(0.823471 -2.32915e-15 -5.97854e-16)
(0.823471 -2.74268e-16 -2.59124e-16)
(0.825301 -2.32474e-15 -6.10475e-16)
(0.825301 -2.77991e-16 -2.66189e-16)
(0.827126 -2.32429e-15 -6.22732e-16)
(0.827126 -2.77358e-16 -2.73558e-16)
(0.828944 -2.31984e-15 -6.35768e-16)
(0.828944 -2.78259e-16 -2.80852e-16)
(0.830757 -2.30994e-15 -6.49158e-16)
(0.830757 -2.84667e-16 -2.87985e-16)
(0.832564 -2.30188e-15 -6.62386e-16)
(0.832564 -2.88948e-16 -2.96254e-16)
(0.834365 -2.29521e-15 -6.7597e-16)
(0.834365 -2.90559e-16 -3.04331e-16)
(0.83616 -2.28825e-15 -6.90067e-16)
(0.83616 -2.96452e-16 -3.12137e-16)
(0.837951 -2.28125e-15 -7.04244e-16)
(0.837951 -3.02667e-16 -3.20546e-16)
(0.839735 -2.27671e-15 -7.18111e-16)
(0.839735 -3.04e-16 -3.29077e-16)
(0.841515 -2.27195e-15 -7.23081e-16)
(0.841515 -3.10187e-16 -3.37659e-16)
(0.843289 -2.26432e-15 -7.27849e-16)
(0.843289 -3.14895e-16 -3.46483e-16)
(0.845058 -2.25716e-15 -7.32633e-16)
(0.845058 -3.20414e-16 -3.55876e-16)
(0.846822 -2.25166e-15 -7.37342e-16)
(0.846822 -3.26975e-16 -3.65284e-16)
(0.84858 -2.24694e-15 -7.41923e-16)
(0.84858 -3.31291e-16 -3.74857e-16)
(0.850334 -2.2447e-15 -7.46073e-16)
(0.850334 -3.35427e-16 -3.85003e-16)
(0.852083 -2.24365e-15 -7.50029e-16)
(0.852083 -3.36153e-16 -3.95389e-16)
(0.853827 -2.23939e-15 -7.53913e-16)
(0.853827 -3.40584e-16 -4.05617e-16)
(0.855566 -2.23247e-15 -7.58141e-16)
(0.855566 -3.43948e-16 -4.16149e-16)
(0.8573 -2.22572e-15 -7.62272e-16)
(0.8573 -3.4787e-16 -4.26801e-16)
(0.85903 -2.22116e-15 -7.65338e-16)
(0.85903 -3.54431e-16 -4.38132e-16)
(0.860755 -2.21709e-15 -7.67715e-16)
(0.860755 -3.57734e-16 -4.50625e-16)
(0.862475 -2.2103e-15 -7.70229e-16)
(0.862475 -3.62196e-16 -4.63006e-16)
(0.864191 -2.19418e-15 -7.73519e-16)
(0.864191 -3.80332e-16 -4.75339e-16)
(0.865903 -2.17411e-15 -7.77803e-16)
(0.865903 -3.97274e-16 -4.87806e-16)
(0.867609 -2.16296e-15 -7.82676e-16)
(0.867609 -3.99241e-16 -5.00978e-16)
(0.869312 -2.15708e-15 -7.87111e-16)
(0.869312 -4.02406e-16 -5.14291e-16)
(0.87101 -2.15796e-15 -7.90763e-16)
(0.87101 -4.06327e-16 -5.27473e-16)
(0.872704 -2.16149e-15 -7.9317e-16)
(0.872704 -4.07211e-16 -5.41533e-16)
(0.874394 -2.15732e-15 -7.95241e-16)
(0.874394 -4.12875e-16 -5.55495e-16)
(0.87608 -2.15155e-15 -7.96517e-16)
(0.87608 -4.19908e-16 -5.69799e-16)
(0.877761 -2.14756e-15 -7.97366e-16)
(0.877761 -4.24993e-16 -5.80165e-16)
(0.879438 -2.14031e-15 -7.98149e-16)
(0.879438 -4.32014e-16 -5.79102e-16)
(0.881112 -2.13045e-15 -7.98495e-16)
(0.881112 -4.41055e-16 -5.78257e-16)
(0.882781 -2.12577e-15 -7.98884e-16)
(0.882781 -4.44289e-16 -5.77138e-16)
(0.884446 -2.12344e-15 -7.98063e-16)
(0.884446 -4.49751e-16 -5.75737e-16)
(0.886107 -2.11357e-15 -7.96818e-16)
(0.886107 -4.57763e-16 -5.73448e-16)
(0.887765 -2.10099e-15 -7.95261e-16)
(0.887765 -4.66258e-16 -5.72189e-16)
(0.889418 -2.0915e-15 -7.93556e-16)
(0.889418 -4.75201e-16 -5.70521e-16)
(0.891068 -2.08348e-15 -7.90746e-16)
(0.891068 -4.84707e-16 -5.68818e-16)
(0.892714 -2.07185e-15 -7.879e-16)
(0.892714 -4.91389e-16 -5.66722e-16)
(0.894356 -2.05647e-15 -7.84752e-16)
(0.894356 -5.02545e-16 -5.64422e-16)
(0.895994 -2.04488e-15 -7.81427e-16)
(0.895994 -5.13924e-16 -5.62264e-16)
(0.897629 -2.03635e-15 -7.79573e-16)
(0.897629 -5.20867e-16 -5.6042e-16)
(0.899259 -2.02582e-15 -7.77081e-16)
(0.899259 -5.34563e-16 -5.58072e-16)
(0.900887 -2.01267e-15 -7.74745e-16)
(0.900887 -5.47035e-16 -5.55327e-16)
(0.90251 -2.00498e-15 -7.72173e-16)
(0.90251 -5.58211e-16 -5.52246e-16)
(0.904131 -1.99899e-15 -7.67635e-16)
(0.904131 -5.70318e-16 -5.49985e-16)
(0.905747 -1.9892e-15 -7.64186e-16)
(0.905747 -5.81366e-16 -5.46104e-16)
(0.90736 -1.97866e-15 -7.60456e-16)
(0.90736 -5.91311e-16 -5.41822e-16)
(0.90897 -1.96734e-15 -7.55498e-16)
(0.90897 -6.00678e-16 -5.37691e-16)
(0.910576 -1.95523e-15 -7.50363e-16)
(0.910576 -6.14131e-16 -5.3348e-16)
(0.912178 -1.94633e-15 -7.4477e-16)
(0.912178 -6.28054e-16 -5.29212e-16)
(0.913777 -1.93728e-15 -7.38462e-16)
(0.913777 -6.37372e-16 -5.25064e-16)
(0.915373 -1.9257e-15 -7.32034e-16)
(0.915373 -6.48445e-16 -5.203e-16)
(0.916965 -1.91405e-15 -7.24983e-16)
(0.916965 -6.61239e-16 -5.13848e-16)
(0.918554 -1.89888e-15 -7.17569e-16)
(0.918554 -6.71636e-16 -5.07867e-16)
(0.92014 -1.88038e-15 -7.09961e-16)
(0.92014 -6.83065e-16 -5.03902e-16)
(0.921722 -1.86824e-15 -7.03415e-16)
(0.921722 -6.93073e-16 -4.98193e-16)
(0.923301 -1.85679e-15 -6.96002e-16)
(0.923301 -7.03475e-16 -4.90262e-16)
(0.924876 -1.84145e-15 -6.86928e-16)
(0.924876 -7.17151e-16 -4.83312e-16)
(0.926449 -1.82744e-15 -6.77038e-16)
(0.926449 -7.19737e-16 -4.7957e-16)
(0.928018 -1.81034e-15 -6.69561e-16)
(0.928018 -7.267e-16 -4.72618e-16)
(0.929584 -1.79531e-15 -6.60683e-16)
(0.929584 -7.45864e-16 -4.63789e-16)
(0.931146 -1.78001e-15 -6.49522e-16)
(0.931146 -7.53575e-16 -4.57084e-16)
(0.932706 -1.75575e-15 -6.41369e-16)
(0.932706 -7.66259e-16 -4.54575e-16)
(0.934262 -1.72995e-15 -6.34442e-16)
(0.934262 -7.83827e-16 -4.55666e-16)
(0.935815 -1.71233e-15 -6.25805e-16)
(0.935815 -7.91922e-16 -4.58813e-16)
(0.937365 -1.696e-15 -6.1632e-16)
(0.937365 -7.9963e-16 -4.59826e-16)
(0.938911 -1.6821e-15 -6.08197e-16)
(0.938911 -8.11581e-16 -4.62005e-16)
(0.940455 -1.66453e-15 -6.05101e-16)
(0.940455 -8.231e-16 -4.63894e-16)
(0.941995 -1.64524e-15 -6.047e-16)
(0.941995 -8.3324e-16 -4.65671e-16)
(0.943532 -1.62999e-15 -6.02297e-16)
(0.943532 -8.4148e-16 -4.6801e-16)
(0.945066 -1.61547e-15 -6.00855e-16)
(0.945066 -8.50154e-16 -4.70504e-16)
(0.946597 -1.60064e-15 -6.00062e-16)
(0.946597 -8.57316e-16 -4.71557e-16)
(0.948125 -1.57554e-15 -5.98686e-16)
(0.948125 -8.61411e-16 -4.74288e-16)
(0.949649 -1.55511e-15 -5.96592e-16)
(0.949649 -8.78327e-16 -4.79658e-16)
(0.951171 -1.53839e-15 -5.92006e-16)
(0.951171 -8.85843e-16 -4.84295e-16)
(0.952689 -1.52321e-15 -5.92139e-16)
(0.952689 -8.88543e-16 -4.84621e-16)
(0.954205 -1.50513e-15 -5.91754e-16)
(0.954205 -8.9292e-16 -4.83943e-16)
(0.955717 -1.48262e-15 -5.8753e-16)
(0.955717 -8.92884e-16 -4.85908e-16)
(0.957226 -1.46193e-15 -5.82684e-16)
(0.957226 -9.01847e-16 -4.87334e-16)
(0.958732 -1.44334e-15 -5.83359e-16)
(0.958732 -9.09463e-16 -4.86863e-16)
(0.960234 -1.43023e-15 -5.86397e-16)
(0.960234 -9.06426e-16 -4.89429e-16)
(0.961734 -1.41595e-15 -5.8728e-16)
(0.961734 -9.03433e-16 -4.89305e-16)
(0.963231 -1.40731e-15 -5.89299e-16)
(0.963231 -9.05478e-16 -4.87776e-16)
(0.964724 -1.39776e-15 -5.84663e-16)
(0.964724 -8.97965e-16 -4.87836e-16)
(0.966214 -1.37888e-15 -5.81093e-16)
(0.966214 -8.92339e-16 -4.88881e-16)
(0.967701 -1.3547e-15 -5.79407e-16)
(0.967701 -9.05342e-16 -4.835e-16)
(0.969185 -1.33665e-15 -5.82774e-16)
(0.969185 -9.15189e-16 -4.80457e-16)
(0.970666 -1.31963e-15 -5.78459e-16)
(0.970666 -9.04819e-16 -4.82092e-16)
(0.972143 -1.30073e-15 -5.70632e-16)
(0.972143 -8.99807e-16 -4.80355e-16)
(0.973618 -1.28414e-15 -5.69043e-16)
(0.973618 -9.03462e-16 -4.75813e-16)
(0.975089 -1.27006e-15 -5.71868e-16)
(0.975089 -9.07094e-16 -4.74049e-16)
(0.976557 -1.26294e-15 -5.69993e-16)
(0.976557 -9.14162e-16 -4.77954e-16)
(0.978021 -1.26227e-15 -5.65049e-16)
(0.978021 -9.31132e-16 -4.73861e-16)
(0.979483 -1.2574e-15 -5.5563e-16)
(0.979483 -9.28407e-16 -4.62806e-16)
(0.980941 -1.24064e-15 -5.47783e-16)
(0.980941 -9.2647e-16 -4.59386e-16)
(0.982395 -1.22701e-15 -5.40528e-16)
(0.982395 -9.38448e-16 -4.56608e-16)
(0.983847 -1.21678e-15 -5.29891e-16)
(0.983847 -9.22945e-16 -4.5461e-16)
(0.985295 -1.20048e-15 -5.23589e-16)
(0.985295 -9.19313e-16 -4.47935e-16)
(0.986739 -1.18533e-15 -5.18713e-16)
(0.986739 -9.25123e-16 -4.42835e-16)
(0.98818 -1.17198e-15 -5.13738e-16)
(0.98818 -9.25196e-16 -4.38608e-16)
(0.989618 -1.16497e-15 -5.12109e-16)
(0.989618 -9.22846e-16 -4.4e-16)
(0.991052 -1.1605e-15 -5.07025e-16)
(0.991052 -9.08128e-16 -4.40052e-16)
(0.992482 -1.14617e-15 -5.02061e-16)
(0.992482 -9.10244e-16 -4.39047e-16)
(0.993909 -1.13065e-15 -4.97096e-16)
(0.993909 -9.09383e-16 -4.37277e-16)
(0.995332 -1.11478e-15 -4.93654e-16)
(0.995332 -8.9514e-16 -4.34963e-16)
(0.996752 -1.11111e-15 -4.94247e-16)
(0.996752 -8.83529e-16 -4.37402e-16)
(0.998167 -1.11597e-15 -4.88959e-16)
(0.998167 -8.6285e-16 -4.38618e-16)
(0.999579 -1.11478e-15 -4.80181e-16)
(0.999579 -8.64847e-16 -4.29442e-16)
(1.00099 -1.10302e-15 -4.53808e-16)
(1.00099 -8.76363e-16 -4.19751e-16)
(1.00239 -1.07866e-15 -4.48825e-16)
(1.00239 -8.73154e-16 -4.09032e-16)
(1.00379 -1.04681e-15 -4.49585e-16)
(1.00379 -8.79949e-16 -4.02888e-16)
(1.00519 -1.02091e-15 -4.52221e-16)
(1.00519 -8.8843e-16 -3.96388e-16)
(1.00658 -1.00828e-15 -4.35032e-16)
(1.00658 -8.85882e-16 -3.93952e-16)
(1.00797 -9.9693e-16 -4.33177e-16)
(1.00797 -8.96488e-16 -3.81843e-16)
(1.00935 -9.91217e-16 -4.32321e-16)
(1.00935 -9.06031e-16 -3.80368e-16)
(1.01073 -9.88975e-16 -4.2701e-16)
(1.01073 -9.17121e-16 -3.83335e-16)
(1.0121 -9.86829e-16 -4.34633e-16)
(1.0121 -9.23943e-16 -3.76128e-16)
(1.01347 -9.84372e-16 -4.2688e-16)
(1.01347 -9.27559e-16 -3.71321e-16)
(1.01484 -9.73659e-16 -4.17137e-16)
(1.01484 -9.28688e-16 -3.83359e-16)
(1.0162 -9.69466e-16 -4.19893e-16)
(1.0162 -9.27909e-16 -3.90757e-16)
(1.01756 -9.65983e-16 -4.05511e-16)
(1.01756 -9.38097e-16 -3.94349e-16)
(1.01891 -9.53129e-16 -3.90226e-16)
(1.01891 -9.49274e-16 -3.99438e-16)
(1.02025 -9.59303e-16 -3.98188e-16)
(1.02025 -9.45611e-16 -4.03612e-16)
(1.02159 -9.56854e-16 -3.97167e-16)
(1.02159 -9.52251e-16 -4.00749e-16)
(1.02293 -9.51266e-16 -3.96896e-16)
(1.02293 -9.54802e-16 -3.87427e-16)
(1.02426 -9.47589e-16 -3.9074e-16)
(1.02426 -9.22386e-16 -3.83714e-16)
(1.02558 -9.38153e-16 -3.95253e-16)
(1.02558 -9.09275e-16 -3.72945e-16)
(1.0269 -9.33251e-16 -3.92479e-16)
(1.0269 -9.10103e-16 -3.85614e-16)
(1.02821 -9.23585e-16 -3.9019e-16)
(1.02821 -8.90215e-16 -4.01561e-16)
(1.02952 -9.26217e-16 -3.7424e-16)
(1.02952 -8.94875e-16 -4.08465e-16)
(1.03082 -9.18649e-16 -3.7655e-16)
(1.03082 -8.97739e-16 -3.99985e-16)
(1.03211 -9.00417e-16 -3.84428e-16)
(1.03211 -8.75839e-16 -3.94488e-16)
(1.0334 -8.98321e-16 -3.89064e-16)
(1.0334 -8.74625e-16 -4.10036e-16)
(1.03468 -8.76208e-16 -3.88359e-16)
(1.03468 -9.02259e-16 -4.30468e-16)
(1.03595 -8.63502e-16 -4.02627e-16)
(1.03595 -9.20504e-16 -3.96003e-16)
(1.03722 -8.78551e-16 -4.16995e-16)
(1.03722 -9.07048e-16 -3.58912e-16)
(1.03848 -8.62442e-16 -4.12131e-16)
(1.03848 -9.00182e-16 -3.63003e-16)
(1.03973 -8.56523e-16 -4.20144e-16)
(1.03973 -8.75642e-16 -3.63722e-16)
(1.04097 -8.67574e-16 -4.1741e-16)
(1.04097 -8.63893e-16 -3.85503e-16)
(1.0422 -8.6438e-16 -4.16177e-16)
(1.0422 -8.68463e-16 -3.78192e-16)
(1.04343 -8.65851e-16 -4.10714e-16)
(1.04343 -8.55811e-16 -3.64946e-16)
(1.04464 -8.54195e-16 -4.07627e-16)
(1.04464 -8.49006e-16 -3.26095e-16)
(1.04585 -8.54081e-16 -4.12088e-16)
(1.04585 -8.40373e-16 -3.00358e-16)
(1.04705 -8.62813e-16 -4.02371e-16)
(1.04705 -8.41371e-16 -3.09849e-16)
(1.04823 -8.70489e-16 -3.94615e-16)
(1.04823 -8.298e-16 -3.24247e-16)
(1.04941 -8.81529e-16 -3.73414e-16)
(1.04941 -7.95027e-16 -3.3014e-16)
(1.05057 -8.60579e-16 -3.53355e-16)
(1.05057 -7.78183e-16 -3.3192e-16)
(1.05173 -8.42209e-16 -3.46783e-16)
(1.05173 -8.03796e-16 -3.58511e-16)
(1.05287 -8.44141e-16 -3.30301e-16)
(1.05287 -8.5656e-16 -3.7546e-16)
(1.054 -8.36341e-16 -3.07288e-16)
(1.054 -8.39631e-16 -3.75178e-16)
(1.05511 -8.30431e-16 -2.8439e-16)
(1.05511 -8.4088e-16 -3.41722e-16)
(1.05622 -8.14787e-16 -2.52624e-16)
(1.05622 -8.60513e-16 -3.16682e-16)
(1.05731 -7.94001e-16 -2.50928e-16)
(1.05731 -8.34701e-16 -3.16574e-16)
(1.05838 -7.88795e-16 -2.41944e-16)
(1.05838 -7.98332e-16 -3.1579e-16)
(1.05944 -7.5817e-16 -2.48209e-16)
(1.05944 -7.48267e-16 -3.1418e-16)
(1.06048 -7.36325e-16 -2.57984e-16)
(1.06048 -7.09487e-16 -3.10659e-16)
(1.0615 -7.21852e-16 -2.63225e-16)
(1.0615 -6.94266e-16 -2.8934e-16)
(1.06251 -7.05221e-16 -2.60966e-16)
(1.06251 -6.88317e-16 -2.53807e-16)
(1.0635 -6.62886e-16 -2.53507e-16)
(1.0635 -6.87388e-16 -2.60123e-16)
(1.06446 -5.9796e-16 -2.61101e-16)
(1.06446 -6.28871e-16 -2.29216e-16)
(1.06541 -5.61551e-16 -2.23307e-16)
(1.06541 -5.77633e-16 -2.32158e-16)
(1.06634 -5.40327e-16 -2.42444e-16)
(1.06634 -5.30554e-16 -2.66554e-16)
(1.06724 -5.19001e-16 -2.8572e-16)
(1.06724 -5.41912e-16 -2.86816e-16)
(1.06811 -5.35862e-16 -2.78348e-16)
(1.06811 -5.4723e-16 -2.74524e-16)
(1.06896 -5.29897e-16 -2.2988e-16)
(1.06896 -5.53895e-16 -2.55423e-16)
(1.06979 -4.82419e-16 -2.41465e-16)
(1.06979 -5.41339e-16 -2.34469e-16)
(1.07058 -4.73797e-16 -2.52665e-16)
(1.07058 -5.12732e-16 -1.97347e-16)
(1.07134 -4.89826e-16 -2.25558e-16)
(1.07134 -4.86949e-16 -1.95872e-16)
(1.07207 -4.95386e-16 -2.55491e-16)
(1.07207 -4.79026e-16 -1.18469e-16)
(1.07277 -4.86144e-16 -2.57504e-16)
(1.07277 -4.54503e-16 -1.19563e-16)
(1.07343 -4.66064e-16 -2.22062e-16)
(1.07343 -4.10346e-16 -1.45711e-16)
(1.07405 -4.29771e-16 -1.56886e-16)
(1.07405 -4.02361e-16 -1.73084e-16)
(1.07462 -4.02691e-16 -1.58325e-16)
(1.07462 -4.05752e-16 -1.86545e-16)
(1.07516 -4.08605e-16 -1.73396e-16)
(1.07516 -3.97197e-16 -1.61639e-16)
(1.07564 -4.10787e-16 -1.34087e-16)
(1.07564 -3.82841e-16 -1.32172e-16)
(1.07608 -3.71185e-16 -1.17001e-16)
(1.07608 -3.76243e-16 -1.58947e-16)
(1.07646 -3.46969e-16 -1.01898e-16)
(1.07646 -3.86268e-16 -1.49694e-16)
(1.07679 -3.2872e-16 -6.44535e-17)
(1.07679 -3.4727e-16 -2.01024e-16)
(1.07706 -3.18741e-16 -5.23228e-17)
(1.07706 -3.51263e-16 -2.28559e-16)
(1.07727 -3.51673e-16 -1.31027e-16)
(1.07727 -3.55601e-16 -2.78201e-16)
(1.07741 -3.46609e-16 -9.2896e-17)
(1.07741 -3.12057e-16 -2.78903e-16)
(1.07748 -3.52878e-16 -9.1692e-17)
(1.07748 -3.55186e-16 -2.72157e-16)
(0.0156496 1.03132e-18 5.22928e-17)
(0.0156496 8.81678e-19 1.00447e-16)
(0.0471724 -2.97704e-18 2.58987e-16)
(0.0471724 -1.97607e-18 3.95467e-16)
(0.079145 -3.74161e-18 2.66145e-16)
(0.079145 -2.46556e-18 4.06418e-16)
(0.111542 -5.94973e-18 2.74048e-16)
(0.111542 -4.04186e-18 4.16676e-16)
(0.144246 -8.28825e-18 2.80082e-16)
(0.144246 -5.68791e-18 4.24354e-16)
(0.176946 -1.06294e-17 2.82221e-16)
(0.176946 -7.51287e-18 4.26308e-16)
(0.209066 -1.30232e-17 2.78412e-16)
(0.209066 -9.37794e-18 4.19295e-16)
(0.239848 -1.54349e-17 2.67845e-16)
(0.239848 -1.09722e-17 4.02139e-16)
(0.268594 -1.75857e-17 2.51802e-16)
(0.268594 -1.26264e-17 3.76852e-16)
(0.294882 -1.95092e-17 2.32879e-16)
(0.294882 -1.40293e-17 3.47377e-16)
(0.318614 -2.12317e-17 2.13577e-16)
(0.318614 -1.53219e-17 3.17461e-16)
(0.339926 -2.28013e-17 1.95489e-16)
(0.339926 -1.67203e-17 2.89486e-16)
(0.359068 -2.42754e-17 1.79352e-16)
(0.359068 -1.80247e-17 2.64514e-16)
(0.37632 -2.56739e-17 1.65321e-16)
(0.37632 -1.92876e-17 2.42763e-16)
(0.391947 -2.70384e-17 1.53278e-16)
(0.391947 -2.02907e-17 2.24033e-16)
(0.406183 -2.81887e-17 1.42989e-16)
(0.406183 -2.11819e-17 2.07974e-16)
(0.419226 -2.91974e-17 1.34214e-16)
(0.419226 -2.16363e-17 1.94202e-16)
(0.431244 -3.04186e-17 1.26705e-16)
(0.431244 -2.21352e-17 1.82363e-16)
(0.442376 -3.17332e-17 1.20267e-16)
(0.442376 -2.28301e-17 1.72146e-16)
(0.452737 -3.26169e-17 1.14736e-16)
(0.452737 -2.36908e-17 1.63291e-16)
(0.462424 -3.33672e-17 1.09215e-16)
(0.462424 -2.45191e-17 1.55575e-16)
(0.471519 -3.44717e-17 1.04091e-16)
(0.471519 -2.50843e-17 1.48836e-16)
(0.480088 -3.55305e-17 9.95434e-17)
(0.480088 -2.5747e-17 1.42933e-16)
(0.488192 -3.66237e-17 9.54883e-17)
(0.488192 -2.64962e-17 1.37746e-16)
(0.495878 -3.76556e-17 9.1849e-17)
(0.495878 -2.69422e-17 1.33179e-16)
(0.50319 -3.85629e-17 8.85714e-17)
(0.50319 -2.73384e-17 1.29134e-16)
(0.510164 -3.96846e-17 8.56106e-17)
(0.510164 -2.81175e-17 1.25553e-16)
(0.516832 -4.08821e-17 8.29203e-17)
(0.516832 -2.86298e-17 1.22389e-16)
(0.523222 -4.19076e-17 8.04638e-17)
(0.523222 -2.89933e-17 1.19602e-16)
(0.529357 -4.28786e-17 7.82138e-17)
(0.529357 -2.97573e-17 1.17147e-16)
(0.535259 -4.34625e-17 7.61449e-17)
(0.535259 -3.08956e-17 1.14971e-16)
(0.540948 -4.38455e-17 7.42522e-17)
(0.540948 -3.16862e-17 1.13026e-16)
(0.546439 -4.45306e-17 7.25078e-17)
(0.546439 -3.20702e-17 1.11314e-16)
(0.551749 -4.53448e-17 7.08928e-17)
(0.551749 -3.24278e-17 1.09816e-16)
(0.55689 -4.61915e-17 6.93819e-17)
(0.55689 -3.19557e-17 1.08526e-16)
(0.561874 -4.69969e-17 6.79696e-17)
(0.561874 -3.17349e-17 1.07418e-16)
(0.566712 -4.75698e-17 6.66444e-17)
(0.566712 -3.22194e-17 1.06467e-16)
(0.571415 -4.81531e-17 6.54095e-17)
(0.571415 -3.2967e-17 1.05667e-16)
(0.57599 -4.88297e-17 6.42415e-17)
(0.57599 -3.36065e-17 1.05014e-16)
(0.580446 -4.94637e-17 6.31379e-17)
(0.580446 -3.34311e-17 1.04476e-16)
(0.58479 -4.99463e-17 6.20908e-17)
(0.58479 -3.32163e-17 1.04061e-16)
(0.58903 -5.06174e-17 6.1105e-17)
(0.58903 -3.36269e-17 1.0377e-16)
(0.59317 -5.13943e-17 6.0162e-17)
(0.59317 -3.40627e-17 1.0359e-16)
(0.597218 -5.18381e-17 5.92649e-17)
(0.597218 -3.39828e-17 1.03487e-16)
(0.601177 -5.25221e-17 5.84201e-17)
(0.601177 -3.49107e-17 1.03473e-16)
(0.605053 -5.29775e-17 5.76195e-17)
(0.605053 -3.53394e-17 1.03533e-16)
(0.60885 -5.38545e-17 5.68597e-17)
(0.60885 -3.48813e-17 1.03671e-16)
(0.612573 -5.48968e-17 5.61215e-17)
(0.612573 -3.50072e-17 1.03911e-16)
(0.616224 -5.5545e-17 5.54132e-17)
(0.616224 -3.4801e-17 1.04223e-16)
(0.619809 -5.6608e-17 5.47236e-17)
(0.619809 -3.43863e-17 1.04615e-16)
(0.623329 -5.75189e-17 5.40531e-17)
(0.623329 -3.4843e-17 1.05069e-16)
(0.626788 -5.84682e-17 5.3409e-17)
(0.626788 -3.58131e-17 1.05579e-16)
(0.630189 -5.93648e-17 5.34174e-17)
(0.630189 -3.69624e-17 1.06141e-16)
(0.633534 -5.98392e-17 5.62234e-17)
(0.633534 -3.72483e-17 1.06766e-16)
(0.636826 -6.03769e-17 5.90471e-17)
(0.636826 -3.66089e-17 1.07454e-16)
(0.640068 -6.10834e-17 6.18882e-17)
(0.640068 -3.673e-17 1.08198e-16)
(0.64326 -6.16907e-17 6.47173e-17)
(0.64326 -3.71308e-17 1.08993e-16)
(0.646407 -6.18871e-17 6.75673e-17)
(0.646407 -3.77965e-17 1.09846e-16)
(0.649509 -6.21888e-17 7.04455e-17)
(0.649509 -3.86148e-17 1.10748e-16)
(0.652568 -6.2861e-17 7.33049e-17)
(0.652568 -3.90599e-17 1.11708e-16)
(0.655586 -6.33358e-17 7.61692e-17)
(0.655586 -3.94721e-17 1.12726e-16)
(0.658565 -6.37027e-17 7.9052e-17)
(0.658565 -3.96972e-17 1.13792e-16)
(0.661505 -6.44375e-17 8.1975e-17)
(0.661505 -4.01616e-17 1.14893e-16)
(0.66441 -6.5193e-17 8.48698e-17)
(0.66441 -4.05587e-17 1.16059e-16)
(0.667279 -6.65485e-17 8.78113e-17)
(0.667279 -4.09349e-17 1.17283e-16)
(0.670114 -6.778e-17 9.07781e-17)
(0.670114 -4.14285e-17 1.18577e-16)
(0.672917 -6.88106e-17 9.37366e-17)
(0.672917 -4.06806e-17 1.19919e-16)
(0.675689 -6.98914e-17 9.6705e-17)
(0.675689 -4.06625e-17 1.21327e-16)
(0.67843 -7.00536e-17 9.96678e-17)
(0.67843 -4.17182e-17 1.2279e-16)
(0.681142 -7.02724e-17 1.02631e-16)
(0.681142 -4.20439e-17 1.24315e-16)
(0.683825 -7.04587e-17 1.0568e-16)
(0.683825 -4.22471e-17 1.25866e-16)
(0.686482 -7.05633e-17 1.08756e-16)
(0.686482 -4.27618e-17 1.27454e-16)
(0.689112 -7.08388e-17 1.11854e-16)
(0.689112 -4.33244e-17 1.29055e-16)
(0.691716 -7.11611e-17 1.14996e-16)
(0.691716 -4.30235e-17 1.30697e-16)
(0.694296 -7.1684e-17 1.1816e-16)
(0.694296 -4.31782e-17 1.32432e-16)
(0.696851 -7.24645e-17 1.21329e-16)
(0.696851 -4.39473e-17 1.34195e-16)
(0.699384 -7.3229e-17 1.24535e-16)
(0.699384 -4.37454e-17 1.35991e-16)
(0.701894 -7.37953e-17 1.27758e-16)
(0.701894 -4.33911e-17 1.37773e-16)
(0.704383 -7.41269e-17 1.30965e-16)
(0.704383 -4.26902e-17 1.3961e-16)
(0.70685 -7.43512e-17 1.34163e-16)
(0.70685 -4.24648e-17 1.41485e-16)
(0.709296 -7.4956e-17 1.36565e-16)
(0.709296 -4.30711e-17 1.43403e-16)