/*--------------------------------*- C++ -*----------------------------------*\
| =========                 |                                                 |
| \\      /  F ield         | OpenFOAM: The Open Source CFD Toolbox           |
|  \\    /   O peration     | Version:  2012                                  |
|   \\  /    A nd           | Website:  www.openfoam.com                      |
|    \\/     M anipulation  |                                                 |
\*---------------------------------------------------------------------------*/
FoamFile
{
    version     2.0;
    format      ascii;
    class       volScalarField;
    location    "8000";
    object      k;
}
// * * * * * * * * * * * * * * * * * * * * * * * * * * * * * * * * * * * * * //

dimensions      [0 2 -2 0 0 0 0];


internalField   nonuniform List<scalar> 
320
(
1.33654e-05
1.33654e-05
5.5261e-06
5.5261e-06
3.16836e-05
3.16836e-05
0.000138453
0.000138453
0.000432417
0.000432417
0.00106509
0.00106509
0.00213208
0.00213208
0.00351235
0.00351235
0.00492276
0.00492276
0.00615495
0.00615495
0.00714847
0.00714847
0.0079249
0.0079249
0.00852893
0.00852893
0.00900362
0.00900362
0.00938398
0.00938398
0.00969701
0.00969701
0.00996334
0.00996334
0.0101989
0.0101989
0.0104161
0.0104161
0.0106247
0.0106247
0.0108324
0.0108324
0.0110451
0.0110451
0.011267
0.011267
0.0115004
0.0115004
0.0117456
0.0117456
0.0120008
0.0120008
0.0122613
0.0122613
0.0125193
0.0125193
0.0127632
0.0127632
0.0129767
0.0129767
0.013138
0.013138
0.0132186
0.0132186
0.0131831
0.0131831
0.0129886
0.0129886
0.0125865
0.0125865
0.0119296
0.0119296
0.0109882
0.0109882
0.00979127
0.00979127
0.00851415
0.00851415
0.00760415
0.00760415
1.33654e-05
1.33654e-05
5.5261e-06
5.5261e-06
3.16836e-05
3.16836e-05
0.000138453
0.000138453
0.000432417
0.000432417
0.00106509
0.00106509
0.00213208
0.00213208
0.00351235
0.00351235
0.00492276
0.00492276
0.00615495
0.00615495
0.00714847
0.00714847
0.0079249
0.0079249
0.00852893
0.00852893
0.00900362
0.00900362
0.00938398
0.00938398
0.00969701
0.00969701
0.00996334
0.00996334
0.0101989
0.0101989
0.0104161
0.0104161
0.0106247
0.0106247
0.0108324
0.0108324
0.0110451
0.0110451
0.011267
0.011267
0.0115004
0.0115004
0.0117456
0.0117456
0.0120008
0.0120008
0.0122613
0.0122613
0.0125193
0.0125193
0.0127632
0.0127632
0.0129767
0.0129767
0.013138
0.013138
0.0132186
0.0132186
0.0131831
0.0131831
0.0129886
0.0129886
0.0125865
0.0125865
0.0119296
0.0119296
0.0109882
0.0109882
0.00979127
0.00979127
0.00851415
0.00851415
0.00760415
0.00760415
0.00760415
0.00760415
0.00851415
0.00851415
0.00979127
0.00979127
0.0109882
0.0109882
0.0119296
0.0119296
0.0125865
0.0125865
0.0129886
0.0129886
0.0131831
0.0131831
0.0132186
0.0132186
0.013138
0.013138
0.0129767
0.0129767
0.0127632
0.0127632
0.0125193
0.0125193
0.0122613
0.0122613
0.0120008
0.0120008
0.0117456
0.0117456
0.0115004
0.0115004
0.011267
0.011267
0.0110451
0.0110451
0.0108324
0.0108324
0.0106247
0.0106247
0.0104161
0.0104161
0.0101989
0.0101989
0.00996334
0.00996334
0.00969701
0.00969701
0.00938398
0.00938398
0.00900362
0.00900362
0.00852893
0.00852893
0.0079249
0.0079249
0.00714847
0.00714847
0.00615495
0.00615495
0.00492276
0.00492276
0.00351235
0.00351235
0.00213208
0.00213208
0.00106509
0.00106509
0.000432417
0.000432417
0.000138453
0.000138453
3.16836e-05
3.16836e-05
5.52611e-06
5.52611e-06
1.33655e-05
1.33655e-05
0.00760415
0.00760415
0.00851415
0.00851415
0.00979127
0.00979127
0.0109882
0.0109882
0.0119296
0.0119296
0.0125865
0.0125865
0.0129886
0.0129886
0.0131831
0.0131831
0.0132186
0.0132186
0.013138
0.013138
0.0129767
0.0129767
0.0127632
0.0127632
0.0125193
0.0125193
0.0122613
0.0122613
0.0120008
0.0120008
0.0117456
0.0117456
0.0115004
0.0115004
0.011267
0.011267
0.0110451
0.0110451
0.0108324
0.0108324
0.0106247
0.0106247
0.0104161
0.0104161
0.0101989
0.0101989
0.00996334
0.00996334
0.00969701
0.00969701
0.00938398
0.00938398
0.00900362
0.00900362
0.00852893
0.00852893
0.0079249
0.0079249
0.00714847
0.00714847
0.00615495
0.00615495
0.00492276
0.00492276
0.00351235
0.00351235
0.00213208
0.00213208
0.00106509
0.00106509
0.000432417
0.000432417
0.000138453
0.000138453
3.16836e-05
3.16836e-05
5.52611e-06
5.52611e-06
1.33655e-05
1.33655e-05
)
;

boundaryField
{
    walls
    {
        type            kqRWallFunction;
        value           nonuniform List<scalar> 8(1.33654e-05 1.33654e-05 1.33654e-05 1.33654e-05 1.33655e-05 1.33655e-05 1.33655e-05 1.33655e-05);
    }
    inlet
    {
        type            cyclic;
    }
    outlet
    {
        type            cyclic;
    }
    sides
    {
        type            empty;
    }
}


// ************************************************************************* //
