/*--------------------------------*- C++ -*----------------------------------*\
| =========                 |                                                 |
| \\      /  F ield         | OpenFOAM: The Open Source CFD Toolbox           |
|  \\    /   O peration     | Version:  2012                                  |
|   \\  /    A nd           | Website:  www.openfoam.com                      |
|    \\/     M anipulation  |                                                 |
\*---------------------------------------------------------------------------*/
FoamFile
{
    version     2.0;
    format      ascii;
    class       volScalarField;
    location    "8000";
    object      p;
}
// * * * * * * * * * * * * * * * * * * * * * * * * * * * * * * * * * * * * * //

dimensions      [0 2 -2 0 0 0 0];


internalField   nonuniform List<scalar> 
320
(
4.16264e-16
4.86902e-15
9.20822e-16
4.85352e-15
9.16102e-16
4.82823e-15
7.8462e-16
4.78903e-15
7.01773e-16
4.73369e-15
6.59023e-16
4.65895e-15
6.40479e-16
4.56213e-15
6.41474e-16
4.44183e-15
6.59603e-16
4.29711e-15
6.90312e-16
4.12831e-15
7.31518e-16
3.93601e-15
7.81173e-16
3.72339e-15
8.35687e-16
3.49272e-15
8.95571e-16
3.24617e-15
9.53713e-16
2.99228e-15
1.00608e-15
2.73279e-15
1.0524e-15
2.47412e-15
1.08877e-15
2.21593e-15
1.10069e-15
1.96634e-15
1.09354e-15
1.72868e-15
1.04793e-15
1.51353e-15
9.79907e-16
1.29857e-15
8.95565e-16
1.10049e-15
7.65043e-16
9.0231e-16
6.15542e-16
7.03984e-16
4.5342e-16
4.79357e-16
2.28855e-16
2.41667e-16
-6.02432e-17
-5.16947e-17
-3.75533e-16
-3.61979e-16
-7.15856e-16
-7.23735e-16
-1.15114e-15
-1.09408e-15
-1.57153e-15
-1.51743e-15
-2.05277e-15
-2.04584e-15
-2.50981e-15
-2.516e-15
-3.0484e-15
-3.07545e-15
-3.68547e-15
-3.69572e-15
-4.26684e-15
-4.25448e-15
-4.61119e-15
-4.55738e-15
-4.93692e-15
-5.07861e-15
-5.31344e-15
-5.25409e-15
3.04703e-15
3.56724e-15
3.04455e-15
3.56577e-15
3.04096e-15
3.56371e-15
3.03552e-15
3.56032e-15
3.02835e-15
3.55516e-15
3.01902e-15
3.54782e-15
3.00718e-15
3.53724e-15
2.99146e-15
3.52252e-15
2.97062e-15
3.50103e-15
2.94518e-15
3.47166e-15
2.91269e-15
3.434e-15
2.86971e-15
3.38511e-15
2.81858e-15
3.32131e-15
2.76133e-15
3.24477e-15
2.69399e-15
3.15533e-15
2.61133e-15
3.05211e-15
2.52344e-15
2.92999e-15
2.42366e-15
2.78822e-15
2.31184e-15
2.62639e-15
2.17995e-15
2.46161e-15
2.03107e-15
2.27902e-15
1.86513e-15
2.0583e-15
1.68583e-15
1.84447e-15
1.46995e-15
1.59563e-15
1.23077e-15
1.32325e-15
9.86151e-16
1.00584e-15
6.73282e-16
6.95724e-16
3.09443e-16
3.21145e-16
-7.28882e-17
-5.74476e-17
-4.87832e-16
-4.90729e-16
-9.96144e-16
-9.69231e-16
-1.50291e-15
-1.5136e-15
-2.00085e-15
-2.00515e-15
-2.34678e-15
-2.3731e-15
-2.97583e-15
-3.01708e-15
-3.62397e-15
-3.78219e-15
-4.22142e-15
-4.16579e-15
-4.57238e-15
-4.55707e-15
-4.93415e-15
-4.88796e-15
-5.11212e-15
-5.26012e-15
-5.44379e-15
-5.43509e-15
-5.77308e-15
-5.60027e-15
-6.21165e-15
-6.17043e-15
-6.49016e-15
-6.48123e-15
-6.26725e-15
-6.26659e-15
-6.21714e-15
-6.05767e-15
-6.3477e-15
-6.18085e-15
-6.25398e-15
-6.24214e-15
-6.15966e-15
-6.16604e-15
-6.20983e-15
-6.17942e-15
-6.19555e-15
-6.1734e-15
-6.22091e-15
-6.19892e-15
-6.25125e-15
-6.2523e-15
-6.28096e-15
-6.27416e-15
-6.27422e-15
-6.264e-15
-6.26907e-15
-6.25638e-15
-6.26645e-15
-6.26274e-15
-6.27578e-15
-6.26867e-15
-6.27306e-15
-6.2501e-15
-6.27263e-15
-6.24061e-15
-6.26623e-15
-6.23782e-15
-6.26307e-15
-6.23305e-15
-6.26656e-15
-6.22661e-15
-6.26856e-15
-6.2221e-15
-6.25924e-15
-6.22257e-15
-6.25534e-15
-6.22469e-15
-6.25275e-15
-6.22706e-15
-6.25104e-15
-6.22858e-15
-6.24884e-15
-6.2284e-15
-6.24717e-15
-6.22794e-15
-6.24633e-15
-6.22687e-15
-6.24576e-15
-6.22762e-15
-6.24537e-15
-6.22813e-15
-6.24512e-15
-6.22819e-15
-6.24508e-15
-6.22815e-15
-6.24489e-15
-6.22812e-15
-6.24481e-15
-6.2281e-15
-6.24476e-15
-6.2281e-15
-6.24478e-15
-6.22808e-15
-6.2448e-15
-6.22806e-15
-5.29451e-15
-5.2951e-15
-5.93949e-15
-5.8557e-15
-6.17e-15
-6.15608e-15
-6.33672e-15
-6.30085e-15
-6.29371e-15
-6.27479e-15
-6.17955e-15
-6.00145e-15
-6.19782e-15
-6.02162e-15
-6.14075e-15
-6.06297e-15
-6.12877e-15
-6.06657e-15
-6.18555e-15
-6.14999e-15
-6.15529e-15
-6.16687e-15
-6.24342e-15
-6.1894e-15
-6.24029e-15
-6.21047e-15
-6.28964e-15
-6.23918e-15
-6.28932e-15
-6.23471e-15
-6.27973e-15
-6.23747e-15
-6.28433e-15
-6.25384e-15
-6.28436e-15
-6.26099e-15
-6.2892e-15
-6.25106e-15
-6.26798e-15
-6.24748e-15
-6.26032e-15
-6.2326e-15
-6.25545e-15
-6.23422e-15
-6.25218e-15
-6.23429e-15
-6.24605e-15
-6.2336e-15
-6.2439e-15
-6.23269e-15
-6.24515e-15
-6.23474e-15
-6.24363e-15
-6.23506e-15
-6.2436e-15
-6.23526e-15
-6.24588e-15
-6.23535e-15
-6.24703e-15
-6.23632e-15
-6.24641e-15
-6.23625e-15
-6.24633e-15
-6.23614e-15
-6.24633e-15
-6.23601e-15
-6.24624e-15
-6.23615e-15
-6.24619e-15
-6.23599e-15
-6.24592e-15
-6.23594e-15
-6.24587e-15
-6.23594e-15
-6.24592e-15
-6.23593e-15
-6.24586e-15
-6.23591e-15
-6.24586e-15
-6.23589e-15
)
;

boundaryField
{
    walls
    {
        type            zeroGradient;
    }
    inlet
    {
        type            cyclic;
    }
    outlet
    {
        type            cyclic;
    }
    sides
    {
        type            empty;
    }
}


// ************************************************************************* //
