/*--------------------------------*- C++ -*----------------------------------*\
| =========                 |                                                 |
| \\      /  F ield         | OpenFOAM: The Open Source CFD Toolbox           |
|  \\    /   O peration     | Version:  2012                                  |
|   \\  /    A nd           | Website:  www.openfoam.com                      |
|    \\/     M anipulation  |                                                 |
\*---------------------------------------------------------------------------*/
FoamFile
{
    version     2.0;
    format      ascii;
    class       volVectorField;
    location    "7000";
    object      U;
}
// * * * * * * * * * * * * * * * * * * * * * * * * * * * * * * * * * * * * * //

dimensions      [0 1 -1 0 0 0 0];


internalField   nonuniform List<vector> 
40
(
(0.241428 1.32701e-15 9.31748e-16)
(0.241428 1.31078e-15 -6.80241e-16)
(0.744724 3.08436e-15 -6.12476e-16)
(0.744724 3.29987e-15 -4.04667e-16)
(0.89766 9.71193e-16 -1.25614e-15)
(0.89766 7.11828e-16 -4.59345e-16)
(0.967108 1.738e-15 -2.51575e-15)
(0.967108 1.60552e-15 -2.58184e-15)
(1.03629 -1.58929e-15 -7.19912e-15)
(1.03629 -1.58046e-15 -7.20828e-15)
(0.241428 1.51242e-16 -6.45574e-16)
(0.241428 -1.74371e-17 -2.58394e-16)
(0.744724 2.28444e-16 -2.54917e-16)
(0.744724 4.44208e-16 -2.00365e-16)
(0.89766 7.43557e-16 -3.04655e-16)
(0.89766 5.2768e-16 -1.25826e-15)
(0.967108 1.48539e-15 2.51575e-15)
(0.967108 1.46983e-15 2.58184e-15)
(1.03629 -1.5894e-15 7.57539e-15)
(1.03629 -1.58517e-15 7.47783e-15)
(1.03629 -3.78244e-17 -1.17837e-15)
(1.03629 -3.95751e-17 -1.10257e-15)
(0.967108 -1.76817e-17 -3.63573e-16)
(0.967108 -1.20957e-17 -3.55937e-16)
(0.89766 4.95714e-18 -1.59125e-16)
(0.89766 3.5136e-17 -1.10232e-16)
(0.744724 -3.57878e-17 -2.66431e-17)
(0.744724 -1.85934e-17 -1.37498e-16)
(0.241428 4.17679e-18 -2.65614e-17)
(0.241428 -6.27838e-18 -8.36816e-17)
(1.03629 -4.08823e-17 7.36135e-16)
(1.03629 -3.4653e-17 6.40586e-16)
(0.967108 -3.27643e-17 3.65277e-16)
(0.967108 -3.20317e-17 3.60912e-16)
(0.89766 -7.53692e-18 1.90258e-16)
(0.89766 1.88016e-17 1.13062e-16)
(0.744724 -3.00176e-17 5.43646e-17)
(0.744724 -1.90685e-17 1.09754e-16)
(0.241428 2.87739e-18 4.84e-17)
(0.241428 1.22854e-19 4.28664e-17)
)
;

boundaryField
{
    walls
    {
        type            fixedValue;
        value           uniform (0 0 0);
    }
    inlet
    {
        type            cyclic;
    }
    outlet
    {
        type            cyclic;
    }
    sides
    {
        type            empty;
    }
}


// ************************************************************************* //
