/*--------------------------------*- C++ -*----------------------------------*\
| =========                 |                                                 |
| \\      /  F ield         | OpenFOAM: The Open Source CFD Toolbox           |
|  \\    /   O peration     | Version:  2012                                  |
|   \\  /    A nd           | Website:  www.openfoam.com                      |
|    \\/     M anipulation  |                                                 |
\*---------------------------------------------------------------------------*/
FoamFile
{
    version     2.0;
    format      ascii;
    class       volScalarField;
    location    "14300";
    object      k;
}
// * * * * * * * * * * * * * * * * * * * * * * * * * * * * * * * * * * * * * //

dimensions      [0 2 -2 0 0 0 0];


internalField   nonuniform List<scalar> 
2560
(
0.0060863
0.0060863
0.143936
0.143936
1.00476
1.00476
3.20365
3.20365
6.17073
6.17073
9.06563
9.06563
11.6835
11.6835
14.0571
14.0571
16.2425
16.2425
18.2828
18.2828
20.2084
20.2084
22.0407
22.0407
23.795
23.795
25.4823
25.4823
27.1108
27.1108
28.6863
28.6863
30.2135
30.2135
31.6955
31.6955
33.1346
33.1346
34.5325
34.5325
35.89
35.89
37.2077
37.2077
38.4856
38.4856
39.7233
39.7233
40.9201
40.9201
42.0751
42.0751
43.1871
43.1871
44.2547
44.2547
45.2764
45.2764
46.2503
46.2503
47.1747
47.1747
48.0476
48.0476
48.8669
48.8669
49.6307
49.6307
50.3368
50.3368
50.9832
50.9832
51.5681
51.5681
52.0895
52.0895
52.5457
52.5457
52.9353
52.9353
53.2568
53.2568
53.5093
53.5093
53.692
53.692
53.8045
53.8045
53.8468
53.8468
53.8192
53.8192
53.7225
53.7225
53.558
53.558
53.3276
53.3276
53.0334
53.0334
52.6785
52.6785
52.266
52.266
51.8001
51.8001
51.2851
51.2851
50.7261
50.7261
50.1286
50.1286
49.4985
49.4985
48.8424
48.8424
48.167
48.167
47.4795
47.4795
46.7871
46.7871
46.0974
46.0974
45.418
45.418
44.7563
44.7563
44.1197
44.1197
43.5152
43.5152
42.9494
42.9494
42.4284
42.4284
41.9576
41.9576
41.5416
41.5416
41.1843
41.1843
40.8883
40.8883
40.6555
40.6555
40.4866
40.4866
40.3814
40.3814
40.3386
40.3386
40.3557
40.3557
40.4294
40.4294
40.5557
40.5557
40.7296
40.7296
40.9458
40.9458
41.1983
41.1983
41.481
41.481
41.7873
41.7873
42.1108
42.1108
42.4449
42.4449
42.7832
42.7832
43.1197
43.1197
43.4486
43.4486
43.7643
43.7643
44.0619
44.0619
44.3369
44.3369
44.5852
44.5852
44.8035
44.8035
44.9886
44.9886
45.1382
45.1382
45.2503
45.2503
45.3235
45.3235
45.3567
45.3567
45.3494
45.3494
45.3014
45.3014
45.2129
45.2129
45.0843
45.0843
44.9166
44.9166
44.7106
44.7106
44.4678
44.4678
44.1893
44.1893
43.8769
43.8769
43.5322
43.5322
43.157
43.157
42.753
42.753
42.3221
42.3221
41.8662
41.8662
41.3871
41.3871
40.8867
40.8867
40.3668
40.3668
39.8291
39.8291
39.2754
39.2754
38.7074
38.7074
38.1265
38.1265
37.5345
37.5345
36.9326
36.9326
36.3224
36.3224
35.7051
35.7051
35.082
35.082
34.4543
34.4542
33.8229
33.8229
33.189
33.189
32.5536
32.5536
31.9175
31.9175
31.2816
31.2816
30.6466
30.6466
30.0133
30.0133
29.3824
29.3824
28.7544
28.7544
28.1301
28.1301
27.5099
27.5099
26.8944
26.8944
26.2839
26.2839
25.679
25.679
25.0801
25.0801
24.4874
24.4874
23.9014
23.9014
23.3223
23.3223
22.7504
22.7504
22.1861
22.1861
21.6295
21.6295
21.0808
21.0808
20.5403
20.5403
20.0082
20.0082
19.4847
19.4847
18.9698
18.9698
18.4638
18.4638
17.9668
17.9668
17.4789
17.4789
17.0003
17.0003
16.531
16.531
16.0712
16.0712
15.6209
15.6209
15.1801
15.1801
14.749
14.749
14.3275
14.3275
13.9157
13.9157
13.5136
13.5136
13.121
13.121
12.7379
12.7379
12.3643
12.3643
11.9999
11.9999
11.6448
11.6448
11.2987
11.2987
10.9614
10.9614
10.6329
10.6329
10.313
10.313
10.0015
10.0015
9.69837
9.69837
9.40337
9.40337
9.11643
9.11643
8.83744
8.83744
8.56628
8.56628
8.30285
8.30284
8.04703
8.04703
7.79873
7.79873
7.55783
7.55783
7.3242
7.3242
7.09773
7.09773
6.87828
6.87828
6.66572
6.66572
6.45992
6.45992
6.26073
6.26073
6.06803
6.06803
5.88169
5.88169
5.7016
5.7016
5.52764
5.52764
5.35971
5.35971
5.19772
5.19772
5.04158
5.04158
4.8912
4.8912
4.7465
4.74649
4.60739
4.60739
4.47381
4.47381
4.34566
4.34566
4.22285
4.22285
4.10529
4.10529
3.99285
3.99285
3.88543
3.88542
3.78287
3.78287
3.68503
3.68503
3.59176
3.59176
3.5029
3.5029
3.41828
3.41828
3.33775
3.33775
3.26117
3.26117
3.18837
3.18837
3.11921
3.11921
3.05352
3.05352
2.99111
2.99111
2.9318
2.9318
2.87537
2.87537
2.82162
2.82162
2.7703
2.7703
2.72117
2.72117
2.674
2.674
2.62857
2.62857
2.58469
2.58468
2.54221
2.54221
2.50103
2.50102
2.46105
2.46105
2.4222
2.4222
2.38438
2.38438
2.34746
2.34746
2.31129
2.31129
2.27571
2.2757
2.24057
2.24057
2.20576
2.20576
2.17119
2.17119
2.1368
2.1368
2.10254
2.10254
2.06842
2.06842
2.03447
2.03447
2.00076
2.00076
1.96738
1.96738
1.93444
1.93444
1.90196
1.90196
1.86995
1.86995
1.83833
1.83833
1.80696
1.80696
1.77565
1.77566
1.74416
1.74417
1.71222
1.71222
1.67958
1.67958
1.64611
1.64612
1.61184
1.61185
1.57693
1.57694
1.54166
1.54167
1.50638
1.50639
1.47143
1.47144
1.43708
1.4371
1.40346
1.40348
1.37059
1.3706
1.33842
1.33844
1.30703
1.30704
1.27654
1.27654
1.24713
1.24713
1.21899
1.21898
1.19232
1.19231
1.16728
1.16727
1.14399
1.14398
1.1225
1.12249
1.10283
1.10282
1.08498
1.08497
1.06893
1.06893
1.05465
1.05465
1.04207
1.04206
1.03105
1.03105
1.02142
1.02142
1.01294
1.01294
1.00534
1.00534
0.99827
0.998269
0.991372
0.991371
0.984291
0.984289
0.976734
0.976731
0.968442
0.96844
0.959126
0.959123
0.948445
0.948442
0.936092
0.936088
0.921925
0.92192
0.906043
0.906038
0.888739
0.888733
0.870441
0.870436
0.851727
0.851722
0.833295
0.83329
0.815769
0.815765
0.79951
0.799506
0.784619
0.784616
0.771093
0.77109
0.758933
0.75893
0.74815
0.748148
0.738755
0.738753
0.730754
0.730753
0.724133
0.724132
0.718812
0.718812
0.714619
0.714619
0.711304
0.711305
0.7086
0.708602
0.706197
0.706199
0.703639
0.703642
0.700331
0.700333
0.695745
0.695746
0.689641
0.689641
0.68218
0.682177
0.67382
0.673816
0.665057
0.665052
0.656255
0.65625
0.647709
0.647705
0.639775
0.639773
0.632807
0.632807
0.627026
0.627027
0.622514
0.622516
0.619329
0.619332
0.617626
0.617629
0.0060863
0.0060863
0.143936
0.143936
1.00476
1.00476
3.20365
3.20365
6.17073
6.17073
9.06563
9.06563
11.6835
11.6835
14.0571
14.0571
16.2425
16.2425
18.2828
18.2828
20.2084
20.2084
22.0407
22.0407
23.795
23.795
25.4823
25.4823
27.1108
27.1108
28.6863
28.6863
30.2135
30.2135
31.6955
31.6955
33.1346
33.1346
34.5325
34.5325
35.89
35.89
37.2077
37.2077
38.4856
38.4856
39.7233
39.7233
40.9201
40.9201
42.0751
42.0751
43.1871
43.1871
44.2547
44.2547
45.2764
45.2764
46.2503
46.2503
47.1747
47.1747
48.0476
48.0476
48.8669
48.8669
49.6307
49.6307
50.3368
50.3368
50.9832
50.9832
51.5681
51.5681
52.0895
52.0895
52.5457
52.5457
52.9353
52.9353
53.2568
53.2568
53.5093
53.5093
53.692
53.692
53.8045
53.8046
53.8468
53.8468
53.8192
53.8192
53.7225
53.7225
53.558
53.558
53.3276
53.3276
53.0335
53.0335
52.6785
52.6785
52.266
52.266
51.8001
51.8001
51.2851
51.2851
50.7261
50.7261
50.1286
50.1286
49.4985
49.4985
48.8424
48.8424
48.167
48.167
47.4795
47.4795
46.7871
46.7871
46.0974
46.0974
45.418
45.418
44.7563
44.7563
44.1197
44.1197
43.5152
43.5152
42.9494
42.9494
42.4284
42.4284
41.9576
41.9576
41.5416
41.5416
41.1843
41.1843
40.8883
40.8883
40.6555
40.6555
40.4866
40.4866
40.3814
40.3814
40.3386
40.3386
40.3557
40.3557
40.4294
40.4294
40.5557
40.5557
40.7296
40.7296
40.9458
40.9458
41.1983
41.1983
41.481
41.481
41.7873
41.7873
42.1108
42.1108
42.4449
42.4449
42.7832
42.7832
43.1197
43.1197
43.4486
43.4486
43.7643
43.7643
44.0619
44.0619
44.3369
44.3369
44.5852
44.5852
44.8035
44.8035
44.9886
44.9886
45.1382
45.1382
45.2503
45.2503
45.3235
45.3235
45.3567
45.3567
45.3494
45.3494
45.3014
45.3014
45.2129
45.2129
45.0843
45.0843
44.9166
44.9166
44.7106
44.7106
44.4678
44.4678
44.1893
44.1893
43.8769
43.8769
43.5322
43.5322
43.157
43.157
42.753
42.753
42.3221
42.3221
41.8662
41.8662
41.3871
41.3871
40.8867
40.8867
40.3668
40.3668
39.8291
39.8291
39.2754
39.2754
38.7073
38.7073
38.1265
38.1265
37.5345
37.5345
36.9326
36.9326
36.3224
36.3224
35.7051
35.7051
35.082
35.082
34.4542
34.4542
33.8229
33.8229
33.189
33.189
32.5536
32.5536
31.9175
31.9175
31.2816
31.2816
30.6466
30.6466
30.0133
30.0133
29.3824
29.3824
28.7544
28.7544
28.1301
28.1301
27.5099
27.5099
26.8944
26.8944
26.2839
26.2839
25.679
25.679
25.08
25.08
24.4874
24.4874
23.9014
23.9014
23.3223
23.3223
22.7504
22.7504
22.1861
22.1861
21.6295
21.6295
21.0808
21.0808
20.5403
20.5403
20.0082
20.0082
19.4847
19.4847
18.9698
18.9698
18.4638
18.4638
17.9668
17.9668
17.4789
17.4789
17.0003
17.0003
16.531
16.531
16.0712
16.0712
15.6209
15.6209
15.1801
15.1801
14.749
14.749
14.3275
14.3275
13.9157
13.9157
13.5136
13.5136
13.121
13.121
12.7379
12.7379
12.3643
12.3643
11.9999
11.9999
11.6448
11.6448
11.2987
11.2987
10.9614
10.9614
10.6329
10.6329
10.313
10.313
10.0015
10.0015
9.69837
9.69837
9.40337
9.40337
9.11643
9.11643
8.83743
8.83744
8.56628
8.56628
8.30284
8.30284
8.04703
8.04703
7.79873
7.79873
7.55783
7.55783
7.3242
7.3242
7.09773
7.09773
6.87828
6.87828
6.66572
6.66572
6.45992
6.45992
6.26073
6.26073
6.06803
6.06803
5.88169
5.88169
5.7016
5.7016
5.52763
5.52764
5.35971
5.35971
5.19772
5.19772
5.04157
5.04158
4.89119
4.8912
4.74649
4.7465
4.60739
4.60739
4.47381
4.47381
4.34566
4.34566
4.22285
4.22285
4.10529
4.10529
3.99285
3.99285
3.88542
3.88543
3.78287
3.78287
3.68503
3.68503
3.59176
3.59176
3.5029
3.5029
3.41828
3.41828
3.33775
3.33775
3.26117
3.26117
3.18837
3.18838
3.11921
3.11922
3.05352
3.05352
2.99111
2.99111
2.9318
2.9318
2.87538
2.87538
2.82162
2.82162
2.7703
2.77031
2.72118
2.72118
2.67401
2.67401
2.62857
2.62857
2.58469
2.58469
2.54221
2.54221
2.50103
2.50103
2.46106
2.46106
2.42221
2.42221
2.38439
2.38439
2.34747
2.34747
2.31129
2.3113
2.27571
2.27571
2.24058
2.24058
2.20577
2.20577
2.1712
2.1712
2.13681
2.13681
2.10255
2.10255
2.06843
2.06843
2.03447
2.03447
2.00077
2.00077
1.96739
1.96739
1.93444
1.93444
1.90197
1.90197
1.86996
1.86996
1.83834
1.83833
1.80697
1.80697
1.77566
1.77566
1.74417
1.74417
1.71223
1.71222
1.67959
1.67958
1.64612
1.64612
1.61185
1.61185
1.57694
1.57694
1.54168
1.54167
1.50639
1.50638
1.47145
1.47143
1.4371
1.43708
1.40348
1.40346
1.3706
1.37059
1.33844
1.33842
1.30704
1.30703
1.27654
1.27654
1.24713
1.24714
1.21898
1.21899
1.19231
1.19232
1.16727
1.16728
1.14398
1.14399
1.12249
1.1225
1.10282
1.10283
1.08497
1.08498
1.06893
1.06893
1.05465
1.05466
1.04207
1.04207
1.03105
1.03105
1.02142
1.02142
1.01295
1.01295
1.00534
1.00534
0.998276
0.998277
0.991378
0.991379
0.984296
0.984298
0.976737
0.976739
0.968444
0.968447
0.959126
0.959129
0.948443
0.948447
0.936087
0.936092
0.921919
0.921923
0.906034
0.906039
0.888729
0.888735
0.870431
0.870437
0.851718
0.851723
0.833286
0.833291
0.815761
0.815766
0.799504
0.799507
0.784614
0.784618
0.771089
0.771092
0.75893
0.758932
0.748149
0.748151
0.738754
0.738756
0.730754
0.730756
0.724134
0.724135
0.718815
0.718816
0.714623
0.714622
0.711309
0.711308
0.708606
0.708604
0.706203
0.7062
0.703645
0.703641
0.700335
0.700333
0.695747
0.695745
0.68964
0.68964
0.682176
0.682178
0.673814
0.673818
0.665049
0.665054
0.656247
0.656252
0.647702
0.647706
0.63977
0.639772
0.632804
0.632805
0.627025
0.627024
0.622514
0.622512
0.619331
0.619328
0.617629
0.617625
0.617618
0.617621
0.619306
0.619309
0.622472
0.622474
0.626953
0.626954
0.632708
0.632707
0.639643
0.63964
0.647535
0.647531
0.656044
0.656039
0.664777
0.664772
0.673431
0.673427
0.681684
0.681682
0.689064
0.689064
0.695107
0.695109
0.699669
0.699672
0.703011
0.703014
0.705641
0.705644
0.708118
0.70812
0.710887
0.710888
0.714256
0.714256
0.7185
0.7185
0.723879
0.723878
0.730561
0.73056
0.738623
0.738621
0.748079
0.748077
0.75892
0.758917
0.771137
0.771134
0.784719
0.784716
0.799665
0.799661
0.815978
0.815974
0.833555
0.83355
0.852045
0.852039
0.870811
0.870806
0.889134
0.889128
0.906424
0.906419
0.922254
0.92225
0.936332
0.936328
0.948596
0.948592
0.959213
0.95921
0.968484
0.968481
0.976747
0.976744
0.984278
0.984276
0.991334
0.991332
0.998206
0.998205
1.00524
1.00524
1.01282
1.01282
1.02126
1.02126
1.03086
1.03086
1.04186
1.04186
1.05443
1.05443
1.0687
1.06869
1.08473
1.08473
1.10257
1.10257
1.12224
1.12223
1.14372
1.14371
1.16701
1.167
1.19204
1.19203
1.21871
1.2187
1.24686
1.24685
1.27626
1.27626
1.30676
1.30676
1.33817
1.33818
1.37034
1.37035
1.40321
1.40322
1.43681
1.43682
1.47113
1.47114
1.50604
1.50605
1.5413
1.54131
1.57656
1.57657
1.61146
1.61146
1.6457
1.64571
1.67912
1.67913
1.71173
1.71174
1.74368
1.74368
1.77518
1.77518
1.80653
1.80653
1.83796
1.83796
1.86966
1.86966
1.90174
1.90174
1.93426
1.93426
1.96722
1.96722
2.00057
2.00057
2.03426
2.03426
2.06819
2.06819
2.10229
2.10229
2.13653
2.13653
2.1709
2.1709
2.20546
2.20546
2.24028
2.24028
2.27542
2.27542
2.31101
2.31101
2.34721
2.34721
2.38417
2.38416
2.42203
2.42203
2.46094
2.46094
2.50099
2.50098
2.54222
2.54222
2.58473
2.58473
2.62864
2.62864
2.67409
2.67409
2.72127
2.72127
2.77042
2.77042
2.82176
2.82176
2.87553
2.87552
2.93195
2.93195
2.99126
2.99126
3.05365
3.05365
3.11932
3.11932
3.18845
3.18845
3.26122
3.26122
3.33778
3.33778
3.41829
3.41829
3.50291
3.5029
3.59177
3.59177
3.68505
3.68505
3.78289
3.78289
3.88546
3.88545
3.9929
3.99289
4.10535
4.10534
4.22292
4.22292
4.34574
4.34574
4.4739
4.4739
4.60749
4.60749
4.74659
4.74659
4.8913
4.89129
5.04169
5.04168
5.19783
5.19783
5.35982
5.35982
5.52775
5.52775
5.70172
5.70172
5.88182
5.88182
6.06817
6.06817
6.26088
6.26088
6.46006
6.46006
6.66586
6.66586
6.87842
6.87841
7.09786
7.09786
7.32433
7.32432
7.55795
7.55795
7.79885
7.79885
8.04716
8.04715
8.30297
8.30297
8.5664
8.5664
8.83757
8.83757
9.11657
9.11657
9.40352
9.40352
9.69853
9.69853
10.0017
10.0017
10.3132
10.3132
10.6331
10.6331
10.9616
10.9616
11.2989
11.2989
11.645
11.645
12.0002
12.0002
12.3645
12.3645
12.7382
12.7382
13.1213
13.1213
13.5139
13.5139
13.916
13.916
14.3278
14.3278
14.7493
14.7493
15.1804
15.1804
15.6212
15.6212
16.0715
16.0715
16.5314
16.5314
17.0007
17.0007
17.4793
17.4793
17.9672
17.9672
18.4642
18.4642
18.9703
18.9703
19.4851
19.4851
20.0087
20.0087
20.5409
20.5409
21.0814
21.0814
21.63
21.63
22.1867
22.1867
22.7511
22.7511
23.323
23.323
23.9021
23.9021
24.4882
24.4882
25.0809
25.0809
25.68
25.68
26.285
26.285
26.8955
26.8955
27.5112
27.5112
28.1314
28.1314
28.7558
28.7558
29.3838
29.3838
30.0147
30.0147
30.6481
30.6481
31.2831
31.2831
31.9191
31.9191
32.5553
32.5553
33.1908
33.1908
33.8247
33.8247
34.4561
34.4561
35.0839
35.0839
35.707
35.707
36.3242
36.3242
36.9344
36.9344
37.5362
37.5362
38.1282
38.1282
38.7089
38.7089
39.2769
39.2769
39.8304
39.8304
40.3679
40.3679
40.8876
40.8876
41.3878
41.3878
41.8668
41.8668
42.3227
42.3227
42.7536
42.7536
43.1576
43.1576
43.5329
43.5329
43.8776
43.8776
44.19
44.19
44.4685
44.4685
44.7115
44.7115
44.9173
44.9173
45.085
45.085
45.2135
45.2135
45.3021
45.3021
45.3502
45.3502
45.3576
45.3576
45.3246
45.3246
45.2516
45.2516
45.1396
45.1396
44.9901
44.9901
44.8049
44.8049
44.5864
44.5864
44.3375
44.3375
44.0617
44.0617
43.7633
43.7633
43.447
43.447
43.1178
43.1178
42.7811
42.7811
42.4424
42.4424
42.108
42.108
41.7841
41.7841
41.4773
41.4773
41.1941
41.1941
40.941
40.941
40.7242
40.7242
40.5497
40.5497
40.423
40.423
40.3488
40.3488
40.3313
40.3313
40.3736
40.3736
40.4784
40.4784
40.6468
40.6468
40.879
40.879
41.1745
41.1745
41.5314
41.5314
41.9469
41.9469
42.4173
42.4173
42.9379
42.9379
43.5034
43.5034
44.1076
44.1076
44.744
44.744
45.4055
45.4055
46.0847
46.0847
46.774
46.774
47.466
47.466
48.1535
48.1535
48.829
48.829
49.4853
49.4853
50.1155
50.1155
50.7134
50.7134
51.2729
51.2729
51.7886
51.7886
52.2553
52.2553
52.6683
52.6683
53.0237
53.0237
53.3183
53.3183
53.5495
53.5495
53.7148
53.7148
53.8122
53.8122
53.8405
53.8405
53.7989
53.7989
53.6871
53.6871
53.5049
53.5049
53.253
53.253
52.932
52.932
52.543
52.543
52.0871
52.0871
51.566
51.566
50.9814
50.9814
50.3352
50.3352
49.6293
49.6293
48.8658
48.8658
48.0465
48.0465
47.1737
47.1737
46.2495
46.2495
45.2757
45.2757
44.2543
44.2543
43.1869
43.1869
42.0751
42.0751
40.9202
40.9202
39.7235
39.7235
38.4859
38.4859
37.208
37.208
35.8903
35.8903
34.5328
34.5328
33.1349
33.1349
31.6957
31.6957
30.2137
30.2137
28.6866
28.6866
27.111
27.111
25.4825
25.4825
23.7952
23.7952
22.0409
22.0409
20.2085
20.2085
18.2829
18.2829
16.2426
16.2426
14.0572
14.0572
11.6835
11.6835
9.06568
9.06568
6.17077
6.17077
3.20366
3.20366
1.00477
1.00477
0.143936
0.143936
0.00608647
0.00608648
0.617621
0.617617
0.61931
0.619306
0.622474
0.622472
0.626955
0.626955
0.632709
0.63271
0.639641
0.639644
0.647533
0.647536
0.656041
0.656045
0.664774
0.664778
0.673428
0.673432
0.681683
0.681685
0.689064
0.689064
0.695109
0.695107
0.699671
0.699669
0.703013
0.703009
0.705642
0.70564
0.708119
0.708117
0.710886
0.710885
0.714255
0.714254
0.718499
0.718499
0.723877
0.723877
0.730559
0.730561
0.738621
0.738623
0.748077
0.748079
0.758917
0.75892
0.771135
0.771137
0.784717
0.78472
0.799663
0.799666
0.815976
0.81598
0.833553
0.833558
0.852043
0.852048
0.87081
0.870815
0.889132
0.889137
0.906422
0.906427
0.922252
0.922257
0.93633
0.936334
0.948594
0.948597
0.95921
0.959213
0.968481
0.968483
0.976743
0.976745
0.984275
0.984277
0.99133
0.991331
0.998202
0.998203
1.00524
1.00524
1.01281
1.01281
1.02126
1.02126
1.03086
1.03086
1.04186
1.04186
1.05443
1.05443
1.06869
1.06869
1.08473
1.08473
1.10257
1.10257
1.12223
1.12224
1.14372
1.14372
1.167
1.16701
1.19203
1.19204
1.21871
1.21872
1.24685
1.24686
1.27626
1.27626
1.30677
1.30676
1.33818
1.33817
1.37036
1.37034
1.40323
1.40321
1.43683
1.43681
1.47115
1.47113
1.50605
1.50604
1.54131
1.5413
1.57657
1.57656
1.61147
1.61146
1.64571
1.6457
1.67913
1.67913
1.71174
1.71174
1.74368
1.74368
1.77519
1.77518
1.80653
1.80653
1.83796
1.83796
1.86966
1.86966
1.90174
1.90174
1.93426
1.93426
1.96721
1.96721
2.00057
2.00057
2.03426
2.03426
2.06818
2.06818
2.10228
2.10228
2.13652
2.13652
2.17089
2.17089
2.20545
2.20545
2.24027
2.24027
2.27541
2.27541
2.311
2.311
2.3472
2.3472
2.38415
2.38415
2.42202
2.42202
2.46093
2.46093
2.50097
2.50097
2.5422
2.54221
2.58472
2.58472
2.62863
2.62863
2.67408
2.67408
2.72126
2.72126
2.7704
2.7704
2.82174
2.82174
2.87551
2.87551
2.93194
2.93194
2.99125
2.99125
3.05363
3.05364
3.1193
3.1193
3.18844
3.18844
3.26121
3.26121
3.33777
3.33777
3.41828
3.41828
3.50289
3.50289
3.59176
3.59176
3.68504
3.68504
3.78288
3.78288
3.88544
3.88545
3.99288
3.99289
4.10533
4.10534
4.22291
4.22292
4.34573
4.34574
4.47389
4.47389
4.60748
4.60748
4.74658
4.74658
4.89129
4.89129
5.04168
5.04168
5.19782
5.19782
5.35981
5.35982
5.52774
5.52775
5.70171
5.70171
5.88181
5.88181
6.06816
6.06816
6.26087
6.26087
6.46005
6.46006
6.66585
6.66585
6.87841
6.87841
7.09785
7.09785
7.32432
7.32432
7.55794
7.55794
7.79885
7.79885
8.04715
8.04715
8.30296
8.30296
8.5664
8.5664
8.83756
8.83756
9.11656
9.11656
9.40352
9.40352
9.69852
9.69853
10.0017
10.0017
10.3132
10.3132
10.6331
10.6331
10.9616
10.9616
11.2989
11.2989
11.645
11.645
12.0002
12.0002
12.3645
12.3645
12.7382
12.7382
13.1212
13.1212
13.5138
13.5138
13.916
13.916
14.3278
14.3278
14.7493
14.7493
15.1804
15.1804
15.6212
15.6212
16.0715
16.0715
16.5314
16.5314
17.0007
17.0007
17.4793
17.4793
17.9672
17.9672
18.4642
18.4642
18.9703
18.9703
19.4851
19.4851
20.0087
20.0087
20.5409
20.5409
21.0814
21.0814
21.63
21.63
22.1867
22.1867
22.7511
22.7511
23.323
23.323
23.9021
23.9021
24.4882
24.4882
25.0809
25.0809
25.68
25.68
26.285
26.285
26.8955
26.8955
27.5111
27.5111
28.1314
28.1314
28.7558
28.7558
29.3837
29.3837
30.0147
30.0147
30.6481
30.6481
31.2831
31.2831
31.9191
31.9191
32.5553
32.5553
33.1908
33.1908
33.8247
33.8247
34.4561
34.4561
35.0839
35.0839
35.707
35.707
36.3242
36.3242
36.9344
36.9344
37.5362
37.5362
38.1282
38.1282
38.7089
38.7089
39.2769
39.2769
39.8304
39.8304
40.3679
40.3679
40.8876
40.8876
41.3878
41.3878
41.8668
41.8668
42.3227
42.3227
42.7536
42.7536
43.1576
43.1576
43.5329
43.5329
43.8776
43.8776
44.19
44.19
44.4685
44.4685
44.7114
44.7114
44.9173
44.9173
45.085
45.085
45.2135
45.2135
45.3021
45.3021
45.3501
45.3501
45.3576
45.3576
45.3246
45.3246
45.2516
45.2516
45.1396
45.1396
44.9901
44.9901
44.8049
44.8049
44.5864
44.5864
44.3374
44.3374
44.0617
44.0617
43.7632
43.7632
43.4469
43.4469
43.1178
43.1178
42.7811
42.7811
42.4424
42.4424
42.108
42.108
41.7841
41.7841
41.4773
41.4773
41.194
41.194
40.9409
40.9409
40.7242
40.7242
40.5497
40.5497
40.423
40.423
40.3488
40.3488
40.3313
40.3313
40.3736
40.3736
40.4784
40.4784
40.6468
40.6468
40.879
40.879
41.1745
41.1745
41.5314
41.5314
41.9469
41.9469
42.4173
42.4173
42.9379
42.938
43.5034
43.5034
44.1076
44.1076
44.744
44.744
45.4055
45.4055
46.0847
46.0847
46.774
46.774
47.4661
47.4661
48.1535
48.1535
48.829
48.829
49.4853
49.4853
50.1156
50.1156
50.7134
50.7134
51.2729
51.2729
51.7886
51.7886
52.2553
52.2553
52.6683
52.6683
53.0237
53.0237
53.3183
53.3183
53.5495
53.5495
53.7148
53.7148
53.8122
53.8122
53.8405
53.8405
53.7989
53.7989
53.6871
53.6871
53.5049
53.5049
53.253
53.253
52.932
52.932
52.543
52.543
52.0871
52.0871
51.566
51.566
50.9814
50.9814
50.3352
50.3352
49.6293
49.6293
48.8658
48.8658
48.0465
48.0465
47.1737
47.1737
46.2495
46.2495
45.2757
45.2757
44.2543
44.2543
43.1869
43.1869
42.0751
42.0751
40.9202
40.9202
39.7235
39.7235
38.4859
38.4859
37.208
37.208
35.8903
35.8903
34.5328
34.5328
33.1349
33.1349
31.6957
31.6957
30.2137
30.2137
28.6866
28.6866
27.111
27.111
25.4825
25.4825
23.7952
23.7952
22.0409
22.0409
20.2085
20.2085
18.2829
18.2829
16.2426
16.2426
14.0572
14.0572
11.6835
11.6835
9.06568
9.06568
6.17077
6.17076
3.20366
3.20366
1.00477
1.00477
0.143936
0.143936
0.00608647
0.00608647
)
;

boundaryField
{
    walls
    {
        type            kqRWallFunction;
        value           nonuniform List<scalar> 8(0.0060863 0.0060863 0.0060863 0.0060863 0.00608647 0.00608647 0.00608648 0.00608647);
    }
    inlet
    {
        type            cyclic;
    }
    outlet
    {
        type            cyclic;
    }
    sides
    {
        type            empty;
    }
}


// ************************************************************************* //
