/*--------------------------------*- C++ -*----------------------------------*\
| =========                 |                                                 |
| \\      /  F ield         | OpenFOAM: The Open Source CFD Toolbox           |
|  \\    /   O peration     | Version:  2012                                  |
|   \\  /    A nd           | Website:  www.openfoam.com                      |
|    \\/     M anipulation  |                                                 |
\*---------------------------------------------------------------------------*/
FoamFile
{
    version     2.0;
    format      ascii;
    class       volScalarField;
    location    "14300";
    object      nut;
}
// * * * * * * * * * * * * * * * * * * * * * * * * * * * * * * * * * * * * * //

dimensions      [0 2 -1 0 0 0 0];


internalField   nonuniform List<scalar> 
2560
(
3.99321e-09
3.99321e-09
5.43737e-07
5.43737e-07
1.13542e-05
1.13542e-05
7.79481e-05
7.79481e-05
0.000254915
0.000254915
0.000534649
0.000534649
0.000884083
0.000884083
0.00127967
0.00127967
0.00170739
0.00170739
0.00215858
0.00215858
0.00262745
0.00262745
0.00310992
0.00310992
0.00360296
0.00360296
0.00410423
0.00410423
0.00461183
0.00461183
0.00512425
0.00512425
0.00564017
0.00564017
0.00615851
0.00615851
0.00667829
0.00667829
0.00719866
0.00719866
0.00771886
0.00771886
0.00823819
0.00823819
0.00875602
0.00875602
0.00927174
0.00927174
0.00978479
0.00978479
0.0102946
0.0102946
0.0108008
0.0108008
0.0113028
0.0113028
0.0118
0.0118
0.0122922
0.0122922
0.0127788
0.0127788
0.0132594
0.0132594
0.0137336
0.0137336
0.0142009
0.0142009
0.014661
0.014661
0.0151135
0.0151135
0.015558
0.015558
0.0159942
0.0159942
0.0164217
0.0164217
0.0168402
0.0168402
0.0172495
0.0172495
0.0176492
0.0176492
0.0180393
0.0180393
0.0184196
0.0184196
0.0187899
0.0187899
0.0191502
0.0191502
0.0195005
0.0195005
0.0198409
0.0198409
0.0201716
0.0201716
0.0204928
0.0204928
0.020805
0.020805
0.0211086
0.0211086
0.0214042
0.0214042
0.0216926
0.0216926
0.0219747
0.0219747
0.0222515
0.0222515
0.0225242
0.0225242
0.0227944
0.0227944
0.0230634
0.0230634
0.0233331
0.0233331
0.0236055
0.0236055
0.0238826
0.0238826
0.0241666
0.0241666
0.02446
0.02446
0.0247653
0.0247653
0.025085
0.025085
0.0254217
0.0254217
0.0257779
0.0257779
0.026156
0.026156
0.0265583
0.0265583
0.0269866
0.0269866
0.0274428
0.0274428
0.0279279
0.0279279
0.0284429
0.0284429
0.028988
0.028988
0.0295632
0.0295632
0.0301678
0.0301678
0.0308005
0.0308005
0.0314597
0.0314597
0.0321433
0.0321433
0.032849
0.032849
0.0335739
0.0335739
0.0343153
0.0343153
0.03507
0.03507
0.0358348
0.0358348
0.0366067
0.0366067
0.0373824
0.0373824
0.0381591
0.0381591
0.0389339
0.0389339
0.0397039
0.0397039
0.0404669
0.0404669
0.0412204
0.0412204
0.0419625
0.0419625
0.0426913
0.0426913
0.0434053
0.0434053
0.044103
0.044103
0.0447832
0.0447832
0.0454452
0.0454452
0.0460879
0.0460879
0.0467109
0.0467109
0.0473138
0.0473138
0.0478962
0.0478962
0.048458
0.048458
0.0489991
0.0489991
0.0495197
0.0495197
0.0500198
0.0500198
0.0504996
0.0504996
0.0509596
0.0509596
0.0514
0.0514
0.0518212
0.0518212
0.0522236
0.0522236
0.0526078
0.0526078
0.0529741
0.0529741
0.0533231
0.0533231
0.0536552
0.0536552
0.053971
0.053971
0.0542709
0.0542709
0.0545555
0.0545555
0.0548252
0.0548252
0.0550805
0.0550805
0.0553218
0.0553218
0.0555497
0.0555497
0.0557644
0.0557644
0.0559665
0.0559665
0.0561562
0.0561562
0.0563341
0.0563341
0.0565004
0.0565004
0.0566554
0.0566554
0.0567996
0.0567996
0.0569331
0.0569331
0.0570562
0.0570562
0.0571693
0.0571693
0.0572726
0.0572726
0.0573662
0.0573662
0.0574505
0.0574505
0.0575257
0.0575257
0.0575919
0.0575919
0.0576494
0.0576494
0.0576983
0.0576983
0.0577389
0.0577389
0.0577713
0.0577713
0.0577956
0.0577956
0.0578121
0.0578121
0.0578209
0.0578209
0.0578221
0.0578221
0.0578159
0.0578159
0.0578025
0.0578025
0.0577821
0.0577821
0.0577548
0.0577548
0.0577208
0.0577208
0.0576803
0.0576803
0.0576334
0.0576334
0.0575805
0.0575805
0.0575217
0.0575217
0.0574573
0.0574573
0.0573875
0.0573875
0.0573126
0.0573126
0.0572328
0.0572328
0.0571486
0.0571486
0.0570601
0.0570601
0.0569676
0.0569676
0.0568716
0.0568716
0.0567722
0.0567722
0.0566697
0.0566697
0.0565644
0.0565644
0.0564565
0.0564565
0.0563462
0.0563462
0.0562337
0.0562337
0.0561191
0.0561191
0.0560025
0.0560025
0.0558841
0.0558841
0.0557638
0.0557638
0.055642
0.055642
0.0555187
0.0555187
0.0553941
0.0553941
0.0552684
0.0552684
0.0551418
0.0551418
0.0550147
0.0550147
0.0548873
0.0548873
0.05476
0.05476
0.0546331
0.0546331
0.054507
0.054507
0.0543822
0.0543822
0.0542588
0.0542588
0.0541375
0.0541375
0.0540185
0.0540185
0.0539022
0.0539022
0.0537891
0.0537891
0.0536795
0.0536795
0.0535739
0.0535739
0.0534727
0.0534727
0.0533765
0.0533765
0.0532859
0.0532859
0.0532016
0.0532016
0.0531242
0.0531242
0.0530545
0.0530545
0.0529934
0.0529934
0.0529418
0.0529418
0.0529005
0.0529005
0.0528706
0.0528706
0.0528531
0.0528531
0.0528488
0.0528488
0.0528588
0.0528588
0.0528839
0.0528839
0.052925
0.052925
0.0529827
0.0529827
0.0530577
0.0530577
0.0531505
0.0531505
0.0532615
0.0532615
0.0533912
0.0533912
0.0535398
0.0535398
0.0537078
0.0537078
0.0538955
0.0538955
0.0541028
0.0541028
0.0543299
0.0543299
0.0545764
0.0545764
0.054842
0.054842
0.0551259
0.0551259
0.0554272
0.0554272
0.0557445
0.0557445
0.0560765
0.0560765
0.0564214
0.0564214
0.0567778
0.0567778
0.0571442
0.0571443
0.0575197
0.0575197
0.0579033
0.0579033
0.0582946
0.0582946
0.0586928
0.0586928
0.0590971
0.0590972
0.0595064
0.0595064
0.0599188
0.0599188
0.0603325
0.0603325
0.0607457
0.0607457
0.0611568
0.0611568
0.0615646
0.0615646
0.061968
0.061968
0.0623663
0.0623664
0.0627593
0.0627594
0.0631473
0.0631474
0.0635313
0.0635313
0.0639124
0.0639125
0.0642921
0.0642921
0.064671
0.0646711
0.0650491
0.0650491
0.065425
0.0654251
0.0657965
0.0657966
0.0661598
0.0661599
0.0665104
0.0665105
0.0668426
0.0668427
0.0671512
0.0671514
0.0674327
0.0674329
0.0676862
0.0676864
0.0679139
0.0679142
0.0681206
0.0681208
0.0683127
0.068313
0.0684976
0.0684979
0.0686811
0.0686815
0.0688668
0.0688672
0.0690554
0.0690559
0.0692469
0.0692473
0.0694432
0.0694435
0.0696486
0.0696487
0.069869
0.0698689
0.0701103
0.0701102
0.0703802
0.0703801
0.0706855
0.0706854
0.0710315
0.0710314
0.0714222
0.0714222
0.0718607
0.0718607
0.0723492
0.0723492
0.0728893
0.0728894
0.0734817
0.0734818
0.0741254
0.0741255
0.0748175
0.0748176
0.0755527
0.0755529
0.0763232
0.0763234
0.077119
0.0771191
0.0779276
0.0779278
0.0787349
0.0787351
0.0795268
0.0795269
0.0802908
0.0802909
0.0810156
0.0810157
0.0816882
0.0816883
0.0822927
0.0822927
0.0828139
0.0828139
0.0832426
0.0832426
0.0835794
0.0835794
0.0838334
0.0838333
0.0840201
0.0840201
0.0841634
0.0841633
0.0842946
0.0842946
0.0844443
0.0844443
0.0846317
0.0846317
0.0848642
0.0848642
0.0851436
0.0851437
0.0854721
0.0854722
0.0858519
0.085852
0.086285
0.0862851
0.0867728
0.086773
0.0873152
0.0873154
0.0879078
0.087908
0.08854
0.0885403
0.0891963
0.0891966
0.0898592
0.0898596
0.0905082
0.0905086
0.0911133
0.0911138
0.0916353
0.0916357
0.0920382
0.0920386
0.0923032
0.0923035
0.0924362
0.0924364
0.0924626
0.0924626
0.0924109
0.0924108
0.0923022
0.0923021
0.0921538
0.0921537
0.091988
0.0919879
0.0918279
0.0918279
0.0916879
0.0916881
0.0915729
0.0915731
0.0914856
0.0914859
0.0914352
0.0914355
3.99321e-09
3.99321e-09
5.43737e-07
5.43737e-07
1.13542e-05
1.13542e-05
7.79481e-05
7.79481e-05
0.000254915
0.000254915
0.000534649
0.000534649
0.000884083
0.000884083
0.00127967
0.00127967
0.00170739
0.00170739
0.00215858
0.00215858
0.00262745
0.00262745
0.00310992
0.00310992
0.00360296
0.00360296
0.00410423
0.00410423
0.00461183
0.00461183
0.00512425
0.00512425
0.00564017
0.00564017
0.00615851
0.00615851
0.00667829
0.00667829
0.00719866
0.00719866
0.00771886
0.00771886
0.00823819
0.00823819
0.00875602
0.00875602
0.00927174
0.00927174
0.00978479
0.00978479
0.0102946
0.0102946
0.0108008
0.0108008
0.0113028
0.0113028
0.0118
0.0118
0.0122922
0.0122922
0.0127788
0.0127788
0.0132594
0.0132594
0.0137336
0.0137336
0.0142009
0.0142009
0.014661
0.014661
0.0151135
0.0151135
0.015558
0.015558
0.0159942
0.0159942
0.0164217
0.0164217
0.0168402
0.0168402
0.0172495
0.0172495
0.0176492
0.0176492
0.0180393
0.0180393
0.0184196
0.0184196
0.0187899
0.0187899
0.0191502
0.0191502
0.0195005
0.0195005
0.0198409
0.0198409
0.0201716
0.0201716
0.0204928
0.0204928
0.020805
0.020805
0.0211086
0.0211086
0.0214042
0.0214042
0.0216926
0.0216926
0.0219747
0.0219747
0.0222515
0.0222515
0.0225242
0.0225242
0.0227944
0.0227944
0.0230634
0.0230634
0.0233331
0.0233331
0.0236055
0.0236055
0.0238826
0.0238826
0.0241666
0.0241666
0.02446
0.02446
0.0247653
0.0247653
0.025085
0.025085
0.0254217
0.0254217
0.0257779
0.0257779
0.026156
0.026156
0.0265583
0.0265583
0.0269866
0.0269866
0.0274428
0.0274427
0.0279279
0.0279279
0.0284429
0.0284429
0.028988
0.028988
0.0295632
0.0295632
0.0301678
0.0301678
0.0308005
0.0308005
0.0314597
0.0314597
0.0321433
0.0321433
0.032849
0.032849
0.0335739
0.0335739
0.0343153
0.0343153
0.03507
0.03507
0.0358348
0.0358348
0.0366067
0.0366067
0.0373824
0.0373824
0.0381591
0.0381591
0.0389338
0.0389338
0.0397039
0.0397039
0.0404669
0.0404669
0.0412204
0.0412204
0.0419625
0.0419625
0.0426913
0.0426913
0.0434053
0.0434053
0.044103
0.044103
0.0447832
0.0447832
0.0454451
0.0454451
0.0460879
0.0460879
0.0467109
0.0467109
0.0473138
0.0473138
0.0478962
0.0478962
0.048458
0.048458
0.0489991
0.0489991
0.0495197
0.0495197
0.0500198
0.0500198
0.0504996
0.0504996
0.0509596
0.0509596
0.0514
0.0514
0.0518212
0.0518212
0.0522236
0.0522236
0.0526078
0.0526078
0.0529741
0.0529741
0.0533231
0.0533231
0.0536552
0.0536552
0.053971
0.053971
0.0542709
0.0542709
0.0545555
0.0545555
0.0548252
0.0548252
0.0550805
0.0550805
0.0553218
0.0553218
0.0555496
0.0555496
0.0557644
0.0557644
0.0559665
0.0559665
0.0561562
0.0561562
0.0563341
0.0563341
0.0565004
0.0565004
0.0566554
0.0566554
0.0567996
0.0567996
0.0569331
0.0569331
0.0570562
0.0570562
0.0571693
0.0571693
0.0572726
0.0572726
0.0573662
0.0573662
0.0574505
0.0574505
0.0575257
0.0575257
0.0575919
0.0575919
0.0576494
0.0576494
0.0576983
0.0576983
0.0577389
0.0577389
0.0577713
0.0577713
0.0577956
0.0577956
0.0578121
0.0578121
0.0578208
0.0578208
0.0578221
0.0578221
0.0578159
0.0578159
0.0578025
0.0578025
0.0577821
0.0577821
0.0577548
0.0577548
0.0577208
0.0577208
0.0576803
0.0576803
0.0576334
0.0576334
0.0575805
0.0575805
0.0575217
0.0575217
0.0574573
0.0574573
0.0573875
0.0573875
0.0573126
0.0573126
0.0572328
0.0572328
0.0571486
0.0571486
0.0570601
0.0570601
0.0569676
0.0569676
0.0568716
0.0568716
0.0567722
0.0567722
0.0566697
0.0566697
0.0565644
0.0565644
0.0564565
0.0564565
0.0563462
0.0563462
0.0562337
0.0562337
0.0561191
0.0561191
0.0560025
0.0560025
0.0558841
0.0558841
0.0557638
0.0557638
0.055642
0.055642
0.0555187
0.0555187
0.0553941
0.0553941
0.0552684
0.0552684
0.0551418
0.0551418
0.0550147
0.0550147
0.0548873
0.0548873
0.05476
0.05476
0.0546331
0.0546331
0.054507
0.054507
0.0543821
0.0543821
0.0542588
0.0542588
0.0541375
0.0541375
0.0540185
0.0540185
0.0539022
0.0539022
0.0537891
0.0537891
0.0536795
0.0536795
0.0535739
0.0535739
0.0534727
0.0534727
0.0533765
0.0533765
0.0532859
0.0532859
0.0532016
0.0532016
0.0531242
0.0531242
0.0530545
0.0530545
0.0529934
0.0529934
0.0529418
0.0529418
0.0529005
0.0529005
0.0528706
0.0528706
0.0528531
0.0528531
0.0528488
0.0528488
0.0528588
0.0528588
0.0528839
0.0528839
0.052925
0.052925
0.0529827
0.0529827
0.0530577
0.0530577
0.0531505
0.0531505
0.0532615
0.0532615
0.0533912
0.0533912
0.0535399
0.0535398
0.0537079
0.0537079
0.0538955
0.0538955
0.0541028
0.0541028
0.0543299
0.0543299
0.0545765
0.0545765
0.0548421
0.054842
0.055126
0.055126
0.0554272
0.0554272
0.0557446
0.0557446
0.0560765
0.0560765
0.0564215
0.0564215
0.0567779
0.0567779
0.0571443
0.0571443
0.0575198
0.0575198
0.0579034
0.0579034
0.0582947
0.0582946
0.0586929
0.0586929
0.0590973
0.0590972
0.0595065
0.0595065
0.0599189
0.0599189
0.0603326
0.0603326
0.0607458
0.0607458
0.061157
0.0611569
0.0615648
0.0615647
0.0619682
0.0619681
0.0623665
0.0623664
0.0627595
0.0627595
0.0631475
0.0631475
0.0635314
0.0635314
0.0639126
0.0639126
0.0642923
0.0642922
0.0646712
0.0646711
0.0650493
0.0650492
0.0654252
0.0654251
0.0657967
0.0657966
0.0661601
0.06616
0.0665106
0.0665105
0.0668429
0.0668427
0.0671515
0.0671513
0.067433
0.0674328
0.0676865
0.0676863
0.0679143
0.067914
0.0681209
0.0681206
0.0683131
0.0683128
0.068498
0.0684976
0.0686816
0.0686812
0.0688673
0.0688668
0.0690559
0.0690554
0.0692473
0.0692469
0.0694435
0.0694432
0.0696487
0.0696486
0.0698689
0.069869
0.0701102
0.0701103
0.0703801
0.0703803
0.0706854
0.0706855
0.0710315
0.0710315
0.0714223
0.0714223
0.0718608
0.0718608
0.0723493
0.0723493
0.0728895
0.0728894
0.0734819
0.0734818
0.0741257
0.0741255
0.0748178
0.0748177
0.0755531
0.0755529
0.0763236
0.0763234
0.0771194
0.0771192
0.077928
0.0779279
0.0787353
0.0787352
0.0795271
0.079527
0.0802911
0.080291
0.0810159
0.0810158
0.0816884
0.0816883
0.0822928
0.0822927
0.0828139
0.0828139
0.0832425
0.0832425
0.0835792
0.0835793
0.0838331
0.0838332
0.0840198
0.0840199
0.0841631
0.0841632
0.0842944
0.0842944
0.0844441
0.0844441
0.0846316
0.0846316
0.0848641
0.0848641
0.0851437
0.0851436
0.0854722
0.0854721
0.085852
0.0858519
0.0862852
0.086285
0.0867731
0.0867729
0.0873155
0.0873153
0.0879082
0.0879079
0.0885405
0.0885402
0.0891969
0.0891965
0.0898598
0.0898594
0.0905088
0.0905084
0.0911139
0.0911135
0.0916359
0.0916354
0.0920386
0.0920382
0.0923034
0.0923032
0.0924363
0.0924361
0.0924624
0.0924624
0.0924106
0.0924107
0.0923018
0.092302
0.0921535
0.0921535
0.0919877
0.0919878
0.0918277
0.0918277
0.0916879
0.0916878
0.091573
0.0915728
0.0914858
0.0914855
0.0914354
0.0914351
0.0914345
0.0914347
0.0914835
0.0914838
0.0915692
0.0915694
0.0916818
0.0916819
0.0918196
0.0918197
0.0919772
0.0919772
0.09214
0.0921399
0.0922858
0.0922857
0.0923898
0.0923897
0.0924343
0.0924343
0.092401
0.0924011
0.0922628
0.092263
0.091994
0.0919944
0.0915896
0.09159
0.0910697
0.0910702
0.0904692
0.0904696
0.0898249
0.0898253
0.0891662
0.0891665
0.0885134
0.0885137
0.0878846
0.0878848
0.0872958
0.087296
0.0867574
0.0867575
0.0862735
0.0862736
0.0858442
0.0858444
0.0854681
0.0854682
0.0851431
0.0851432
0.084867
0.084867
0.0846377
0.0846378
0.0844534
0.0844534
0.0843065
0.0843065
0.0841782
0.0841782
0.0840376
0.0840376
0.0838522
0.0838522
0.0835978
0.0835977
0.0832588
0.0832588
0.0828263
0.0828263
0.0823015
0.0823015
0.0816944
0.0816945
0.08102
0.0810201
0.080294
0.0802941
0.079529
0.0795291
0.0787362
0.0787363
0.0779278
0.077928
0.077118
0.0771182
0.076321
0.0763212
0.0755494
0.0755495
0.0748131
0.0748133
0.0741201
0.0741202
0.0734758
0.0734759
0.072883
0.0728831
0.0723425
0.0723426
0.0718538
0.0718538
0.0714151
0.0714151
0.0710241
0.071024
0.070678
0.0706779
0.0703727
0.0703726
0.0701028
0.0701027
0.0698614
0.0698613
0.0696411
0.0696412
0.0694359
0.0694362
0.0692401
0.0692405
0.0690489
0.0690494
0.0688602
0.0688607
0.0686742
0.0686746
0.0684901
0.0684904
0.0683045
0.0683048
0.0681119
0.0681122
0.0679052
0.0679055
0.0676774
0.0676776
0.0674234
0.0674236
0.0671412
0.0671414
0.0668321
0.0668323
0.0665
0.0665001
0.0661498
0.0661499
0.0657873
0.0657874
0.0654171
0.0654172
0.0650426
0.0650427
0.0646658
0.0646658
0.0642876
0.0642877
0.0639083
0.0639083
0.063527
0.0635271
0.0631428
0.0631429
0.0627545
0.0627546
0.0623613
0.0623614
0.0619628
0.0619629
0.0615593
0.0615593
0.0611515
0.0611515
0.0607405
0.0607406
0.0603275
0.0603275
0.059914
0.059914
0.059502
0.059502
0.0590933
0.0590933
0.0586896
0.0586896
0.0582922
0.0582922
0.0579018
0.0579018
0.0575188
0.0575188
0.0571438
0.0571438
0.0567777
0.0567777
0.0564216
0.0564216
0.0560768
0.0560768
0.0557451
0.0557451
0.055428
0.055428
0.0551269
0.055127
0.0548431
0.0548432
0.0545776
0.0545776
0.0543309
0.0543309
0.0541036
0.0541036
0.0538961
0.0538961
0.0537083
0.0537083
0.0535401
0.0535401
0.0533914
0.0533914
0.0532617
0.0532617
0.0531508
0.0531508
0.0530581
0.0530581
0.0529831
0.0529831
0.0529255
0.0529255
0.0528845
0.0528845
0.0528595
0.0528595
0.0528496
0.0528496
0.052854
0.052854
0.0528716
0.0528716
0.0529015
0.0529015
0.0529428
0.0529428
0.0529944
0.0529944
0.0530556
0.0530556
0.0531253
0.0531253
0.0532027
0.0532027
0.053287
0.053287
0.0533777
0.0533777
0.0534739
0.0534739
0.0535751
0.0535751
0.0536808
0.0536808
0.0537904
0.0537904
0.0539035
0.0539035
0.0540197
0.0540197
0.0541387
0.0541387
0.05426
0.05426
0.0543833
0.0543833
0.0545082
0.0545082
0.0546343
0.0546343
0.0547612
0.0547612
0.0548885
0.0548885
0.0550159
0.0550159
0.0551431
0.0551431
0.0552697
0.0552697
0.0553954
0.0553954
0.0555201
0.0555201
0.0556434
0.0556434
0.0557652
0.0557652
0.0558855
0.0558855
0.056004
0.056004
0.0561206
0.0561206
0.0562353
0.0562353
0.0563478
0.0563478
0.0564582
0.0564582
0.0565661
0.0565661
0.0566714
0.0566714
0.0567739
0.0567739
0.0568733
0.0568733
0.0569694
0.0569694
0.0570619
0.0570619
0.0571504
0.0571504
0.0572347
0.0572347
0.0573144
0.0573144
0.0573894
0.0573894
0.0574592
0.0574592
0.0575237
0.0575237
0.0575825
0.0575825
0.0576354
0.0576354
0.0576823
0.0576823
0.0577229
0.0577229
0.0577569
0.0577569
0.0577843
0.0577843
0.0578047
0.0578047
0.0578182
0.0578182
0.0578244
0.0578244
0.0578232
0.0578232
0.0578145
0.0578145
0.0577981
0.0577981
0.0577739
0.0577739
0.0577416
0.0577416
0.0577011
0.0577011
0.0576523
0.0576523
0.0575949
0.0575949
0.0575287
0.0575287
0.0574536
0.0574536
0.0573693
0.0573693
0.0572757
0.0572757
0.0571725
0.0571725
0.0570594
0.0570594
0.0569363
0.0569363
0.0568029
0.0568029
0.0566588
0.0566588
0.0565038
0.0565038
0.0563375
0.0563375
0.0561597
0.0561597
0.0559699
0.0559699
0.0557678
0.0557678
0.055553
0.055553
0.0553252
0.0553252
0.0550838
0.0550838
0.0548285
0.0548285
0.0545587
0.0545587
0.054274
0.054274
0.0539739
0.0539739
0.053658
0.053658
0.0533258
0.0533258
0.0529767
0.0529767
0.0526104
0.0526104
0.0522262
0.0522262
0.0518238
0.0518238
0.0514026
0.0514026
0.0509622
0.0509622
0.0505023
0.0505023
0.0500224
0.0500224
0.0495224
0.0495224
0.0490018
0.0490018
0.0484606
0.0484606
0.0478988
0.0478988
0.0473164
0.0473164
0.0467136
0.0467136
0.0460906
0.0460906
0.045448
0.045448
0.0447862
0.0447862
0.0441059
0.0441059
0.0434083
0.0434083
0.0426943
0.0426943
0.0419654
0.0419654
0.041223
0.041223
0.0404691
0.0404691
0.0397058
0.0397058
0.0389354
0.0389354
0.0381604
0.0381604
0.0373836
0.0373836
0.0366076
0.0366076
0.0358356
0.0358356
0.0350705
0.0350705
0.0343155
0.0343155
0.0335739
0.0335739
0.0328486
0.0328486
0.0321426
0.0321426
0.0314587
0.0314587
0.0307992
0.0307992
0.0301663
0.0301663
0.0295615
0.0295615
0.028986
0.028986
0.0284406
0.0284406
0.0279254
0.0279254
0.02744
0.02744
0.0269837
0.0269837
0.0265551
0.0265551
0.0261527
0.0261527
0.0257744
0.0257744
0.025418
0.025418
0.0250812
0.0250812
0.0247614
0.0247614
0.024456
0.024456
0.0241625
0.0241625
0.0238784
0.0238784
0.0236012
0.0236012
0.0233288
0.0233288
0.023059
0.023059
0.02279
0.02279
0.0225199
0.0225199
0.0222472
0.0222472
0.0219704
0.0219704
0.0216885
0.0216885
0.0214002
0.0214002
0.0211048
0.0211048
0.0208013
0.0208013
0.0204893
0.0204893
0.0201681
0.0201681
0.0198376
0.0198376
0.0194974
0.0194974
0.0191472
0.0191472
0.0187871
0.0187871
0.018417
0.018417
0.0180369
0.0180369
0.0176469
0.0176469
0.0172473
0.0172473
0.0168382
0.0168382
0.0164198
0.0164198
0.0159924
0.0159924
0.0155563
0.0155563
0.0151119
0.0151119
0.0146596
0.0146596
0.0141995
0.0141995
0.0137323
0.0137323
0.0132582
0.0132582
0.0127777
0.0127777
0.0122911
0.0122911
0.0117991
0.0117991
0.0113019
0.0113019
0.0108
0.0108
0.0102939
0.0102939
0.00978414
0.00978414
0.00927116
0.00927116
0.0087555
0.0087555
0.00823774
0.00823774
0.00771845
0.00771845
0.0071983
0.0071983
0.00667797
0.00667797
0.00615824
0.00615824
0.00563994
0.00563994
0.00512405
0.00512405
0.00461167
0.00461167
0.00410409
0.00410409
0.00360286
0.00360286
0.00310984
0.00310984
0.00262739
0.00262739
0.00215854
0.00215854
0.00170737
0.00170737
0.00127965
0.00127965
0.000884075
0.000884076
0.000534646
0.000534646
0.000254915
0.000254915
7.79483e-05
7.79483e-05
1.13542e-05
1.13542e-05
5.43737e-07
5.43737e-07
3.9933e-09
3.9933e-09
0.0914347
0.0914344
0.0914838
0.0914836
0.0915694
0.0915692
0.091682
0.0916819
0.0918198
0.0918197
0.0919773
0.0919773
0.09214
0.0921401
0.0922858
0.0922859
0.0923898
0.0923899
0.0924343
0.0924343
0.0924012
0.092401
0.0922631
0.0922628
0.0919944
0.091994
0.09159
0.0915895
0.0910701
0.0910697
0.0904696
0.0904691
0.0898252
0.0898248
0.0891664
0.0891661
0.0885136
0.0885133
0.0878847
0.0878845
0.0872959
0.0872957
0.0867575
0.0867573
0.0862736
0.0862735
0.0858443
0.0858442
0.0854682
0.0854681
0.0851432
0.0851431
0.0848671
0.084867
0.0846378
0.0846378
0.0844535
0.0844535
0.0843066
0.0843066
0.0841784
0.0841784
0.0840378
0.0840378
0.0838523
0.0838524
0.0835979
0.0835979
0.0832589
0.0832589
0.0828264
0.0828264
0.0823016
0.0823015
0.0816945
0.0816944
0.0810201
0.08102
0.0802941
0.080294
0.079529
0.0795289
0.0787362
0.0787361
0.0779279
0.0779278
0.0771181
0.0771179
0.0763211
0.0763209
0.0755495
0.0755493
0.0748132
0.074813
0.0741202
0.07412
0.0734758
0.0734757
0.072883
0.072883
0.0723426
0.0723425
0.0718538
0.0718538
0.0714151
0.0714151
0.0710241
0.0710241
0.0706779
0.070678
0.0703726
0.0703728
0.0701027
0.0701029
0.0698614
0.0698615
0.0696413
0.0696412
0.0694363
0.069436
0.0692406
0.0692402
0.0690495
0.069049
0.0688608
0.0688603
0.0686748
0.0686743
0.0684905
0.0684902
0.0683049
0.0683046
0.0681123
0.068112
0.0679056
0.0679053
0.0676777
0.0676775
0.0674237
0.0674235
0.0671415
0.0671413
0.0668324
0.0668322
0.0665002
0.0665
0.06615
0.0661499
0.0657874
0.0657873
0.0654172
0.0654171
0.0650427
0.0650426
0.0646658
0.0646657
0.0642877
0.0642876
0.0639083
0.0639082
0.063527
0.063527
0.0631428
0.0631428
0.0627545
0.0627545
0.0623613
0.0623612
0.0619628
0.0619628
0.0615592
0.0615592
0.0611514
0.0611514
0.0607405
0.0607404
0.0603274
0.0603274
0.0599139
0.0599138
0.0595019
0.0595018
0.0590932
0.0590932
0.0586895
0.0586894
0.058292
0.058292
0.0579016
0.0579016
0.0575187
0.0575186
0.0571437
0.0571436
0.0567776
0.0567776
0.0564215
0.0564214
0.0560767
0.0560767
0.055745
0.055745
0.0554279
0.0554279
0.0551268
0.0551268
0.054843
0.054843
0.0545775
0.0545774
0.0543308
0.0543308
0.0541035
0.0541035
0.053896
0.053896
0.0537082
0.0537082
0.05354
0.05354
0.0533913
0.0533913
0.0532617
0.0532617
0.0531507
0.0531507
0.053058
0.053058
0.0529831
0.0529831
0.0529254
0.0529254
0.0528844
0.0528844
0.0528594
0.0528594
0.0528495
0.0528495
0.0528539
0.0528539
0.0528715
0.0528715
0.0529015
0.0529015
0.0529427
0.0529427
0.0529944
0.0529944
0.0530555
0.0530555
0.0531252
0.0531252
0.0532026
0.0532026
0.053287
0.053287
0.0533776
0.0533776
0.0534739
0.0534739
0.0535751
0.0535751
0.0536807
0.0536807
0.0537903
0.0537903
0.0539035
0.0539035
0.0540197
0.0540197
0.0541387
0.0541387
0.05426
0.05426
0.0543833
0.0543833
0.0545082
0.0545082
0.0546343
0.0546343
0.0547612
0.0547612
0.0548885
0.0548885
0.0550159
0.0550159
0.0551431
0.0551431
0.0552697
0.0552697
0.0553954
0.0553954
0.0555201
0.0555201
0.0556434
0.0556434
0.0557652
0.0557652
0.0558855
0.0558855
0.0560039
0.056004
0.0561206
0.0561206
0.0562353
0.0562353
0.0563478
0.0563478
0.0564582
0.0564582
0.0565661
0.0565661
0.0566714
0.0566714
0.0567739
0.0567739
0.0568733
0.0568733
0.0569694
0.0569694
0.0570618
0.0570618
0.0571504
0.0571504
0.0572347
0.0572347
0.0573144
0.0573144
0.0573894
0.0573894
0.0574592
0.0574592
0.0575236
0.0575236
0.0575825
0.0575825
0.0576354
0.0576354
0.0576823
0.0576823
0.0577228
0.0577228
0.0577569
0.0577569
0.0577842
0.0577842
0.0578047
0.0578047
0.0578182
0.0578182
0.0578244
0.0578244
0.0578232
0.0578232
0.0578145
0.0578145
0.0577981
0.0577981
0.0577739
0.0577738
0.0577416
0.0577416
0.0577011
0.0577011
0.0576523
0.0576523
0.0575949
0.0575949
0.0575287
0.0575287
0.0574536
0.0574536
0.0573693
0.0573693
0.0572757
0.0572757
0.0571725
0.0571725
0.0570594
0.0570594
0.0569363
0.0569363
0.0568029
0.0568029
0.0566588
0.0566588
0.0565038
0.0565038
0.0563375
0.0563375
0.0561597
0.0561597
0.0559699
0.0559699
0.0557678
0.0557678
0.055553
0.055553
0.0553252
0.0553252
0.0550838
0.0550838
0.0548285
0.0548285
0.0545587
0.0545587
0.054274
0.054274
0.0539739
0.0539739
0.053658
0.053658
0.0533258
0.0533258
0.0529767
0.0529767
0.0526104
0.0526104
0.0522262
0.0522262
0.0518238
0.0518238
0.0514026
0.0514026
0.0509622
0.0509622
0.0505023
0.0505023
0.0500224
0.0500224
0.0495223
0.0495223
0.0490018
0.0490018
0.0484606
0.0484606
0.0478988
0.0478988
0.0473164
0.0473164
0.0467136
0.0467136
0.0460906
0.0460906
0.045448
0.045448
0.0447861
0.0447861
0.0441059
0.0441059
0.0434083
0.0434083
0.0426943
0.0426943
0.0419654
0.0419654
0.041223
0.041223
0.0404691
0.0404691
0.0397057
0.0397057
0.0389354
0.0389354
0.0381604
0.0381604
0.0373836
0.0373836
0.0366076
0.0366076
0.0358356
0.0358356
0.0350705
0.0350705
0.0343155
0.0343155
0.0335739
0.0335739
0.0328486
0.0328486
0.0321426
0.0321426
0.0314587
0.0314587
0.0307992
0.0307992
0.0301663
0.0301663
0.0295615
0.0295615
0.028986
0.028986
0.0284406
0.0284406
0.0279254
0.0279254
0.02744
0.02744
0.0269837
0.0269837
0.0265551
0.0265551
0.0261527
0.0261527
0.0257744
0.0257744
0.0254181
0.0254181
0.0250812
0.0250812
0.0247614
0.0247614
0.024456
0.024456
0.0241625
0.0241625
0.0238784
0.0238784
0.0236012
0.0236012
0.0233288
0.0233288
0.023059
0.023059
0.02279
0.02279
0.0225199
0.0225199
0.0222472
0.0222472
0.0219704
0.0219704
0.0216885
0.0216885
0.0214002
0.0214002
0.0211048
0.0211048
0.0208013
0.0208013
0.0204893
0.0204893
0.0201681
0.0201681
0.0198376
0.0198376
0.0194974
0.0194974
0.0191472
0.0191472
0.0187871
0.0187871
0.018417
0.018417
0.0180369
0.0180369
0.0176469
0.0176469
0.0172473
0.0172473
0.0168382
0.0168382
0.0164198
0.0164198
0.0159924
0.0159924
0.0155563
0.0155563
0.0151119
0.0151119
0.0146596
0.0146596
0.0141995
0.0141995
0.0137323
0.0137323
0.0132582
0.0132582
0.0127777
0.0127777
0.0122911
0.0122911
0.0117991
0.0117991
0.0113019
0.0113019
0.0108
0.0108
0.0102939
0.0102939
0.00978414
0.00978414
0.00927116
0.00927116
0.0087555
0.0087555
0.00823774
0.00823774
0.00771845
0.00771845
0.0071983
0.0071983
0.00667797
0.00667797
0.00615824
0.00615824
0.00563994
0.00563994
0.00512405
0.00512405
0.00461167
0.00461167
0.00410409
0.00410409
0.00360286
0.00360286
0.00310984
0.00310984
0.00262739
0.00262739
0.00215854
0.00215854
0.00170737
0.00170737
0.00127965
0.00127965
0.000884075
0.000884075
0.000534646
0.000534646
0.000254915
0.000254915
7.79483e-05
7.79482e-05
1.13542e-05
1.13542e-05
5.43737e-07
5.43737e-07
3.9933e-09
3.9933e-09
)
;

boundaryField
{
    walls
    {
        type            nutUWallFunction;
        blending        stepwise;
        Cmu             0.09;
        kappa           0.41;
        E               9.8;
        value           uniform 0;
    }
    inlet
    {
        type            cyclic;
    }
    outlet
    {
        type            cyclic;
    }
    sides
    {
        type            empty;
    }
}


// ************************************************************************* //
