/*--------------------------------*- C++ -*----------------------------------*\
| =========                 |                                                 |
| \\      /  F ield         | OpenFOAM: The Open Source CFD Toolbox           |
|  \\    /   O peration     | Version:  2012                                  |
|   \\  /    A nd           | Website:  www.openfoam.com                      |
|    \\/     M anipulation  |                                                 |
\*---------------------------------------------------------------------------*/
FoamFile
{
    version     2.0;
    format      ascii;
    class       volSymmTensorField;
    location    "14300";
    object      turbulenceProperties:R;
}
// * * * * * * * * * * * * * * * * * * * * * * * * * * * * * * * * * * * * * //

dimensions      [0 2 -2 0 0 0 0];


internalField   nonuniform List<symmTensor> 
2560
(
(0.00405753 -5.05935e-06 -7.32757e-09 0.00405753 1.04113e-11 0.00405753)
(0.00405753 -5.05936e-06 -7.32757e-09 0.00405753 1.91777e-15 0.00405753)
(0.095957 -0.000688138 -3.00558e-06 0.095957 -1.04747e-13 0.095957)
(0.095957 -0.000688139 -3.00558e-06 0.095957 7.67593e-13 0.095957)
(0.669842 -0.0143528 -8.61089e-05 0.669842 -1.01646e-08 0.669842)
(0.669842 -0.0143528 -8.61089e-05 0.669842 2.50766e-11 0.669842)
(2.13576 -0.098413 -0.000598988 2.13576 -8.15492e-08 2.13576)
(2.13577 -0.0984131 -0.000598988 2.13577 1.73354e-10 2.13577)
(4.11382 -0.321424 -0.00198472 4.11382 -1.69532e-07 4.11382)
(4.11382 -0.321424 -0.00198472 4.11382 4.05832e-10 4.11382)
(6.04376 -0.673237 -0.00421748 6.04376 -1.74805e-07 6.04376)
(6.04376 -0.673237 -0.00421748 6.04376 8.04905e-10 6.04376)
(7.78898 -1.11174 -0.00706581 7.78898 -1.45864e-07 7.78898)
(7.78898 -1.11175 -0.00706582 7.78898 1.50846e-09 7.78898)
(9.37142 -1.60707 -0.0103627 9.37142 -1.19387e-07 9.37142)
(9.37142 -1.60707 -0.0103627 9.37142 2.55462e-09 9.37142)
(10.8283 -2.14154 -0.0140104 10.8283 -1.01026e-07 10.8283)
(10.8283 -2.14154 -0.0140104 10.8283 3.95375e-09 10.8283)
(12.1885 -2.70431 -0.0179504 12.1885 -8.9509e-08 12.1885)
(12.1885 -2.70431 -0.0179504 12.1885 5.67947e-09 12.1885)
(13.4723 -3.2883 -0.0221456 13.4723 -8.32335e-08 13.4723)
(13.4723 -3.2883 -0.0221456 13.4723 7.78607e-09 13.4723)
(14.6938 -3.88863 -0.0265715 14.6938 -8.12371e-08 14.6938)
(14.6938 -3.88863 -0.0265715 14.6938 1.02528e-08 14.6938)
(15.8634 -4.50179 -0.0312111 15.8634 -8.29542e-08 15.8634)
(15.8634 -4.50179 -0.0312111 15.8634 1.31071e-08 15.8634)
(16.9882 -5.12516 -0.0360527 16.9882 -8.81178e-08 16.9882)
(16.9882 -5.12516 -0.0360527 16.9882 1.64139e-08 16.9882)
(18.0738 -5.75671 -0.0410876 18.0738 -9.66846e-08 18.0738)
(18.0738 -5.75671 -0.0410876 18.0738 -2.4501e-08 18.0738)
(19.1242 -6.39481 -0.0463095 19.1242 -1.08673e-07 19.1242)
(19.1242 -6.39481 -0.0463095 19.1242 -9.31309e-08 19.1242)
(20.1423 -7.03811 -0.0517132 20.1423 -1.24274e-07 20.1423)
(20.1423 -7.03811 -0.0517132 20.1423 -1.24585e-07 20.1423)
(21.1303 -7.68543 -0.0572944 21.1303 -1.43676e-07 21.1303)
(21.1303 -7.68543 -0.0572944 21.1303 -1.44024e-07 21.1303)
(22.0898 -8.33566 -0.063049 22.0898 -1.32847e-07 22.0898)
(22.0898 -8.33566 -0.063049 22.0898 -1.67521e-07 22.0898)
(23.0217 -8.98777 -0.0689728 23.0217 -8.26559e-08 23.0217)
(23.0217 -8.98777 -0.0689728 23.0217 -1.95414e-07 23.0217)
(23.9267 -9.64067 -0.0750609 23.9267 -5.8045e-08 23.9267)
(23.9267 -9.64067 -0.0750609 23.9267 -2.28037e-07 23.9267)
(24.8052 -10.2933 -0.0813074 24.8052 -6.6119e-08 24.8052)
(24.8052 -10.2933 -0.0813074 24.8052 -2.65783e-07 24.8052)
(25.6571 -10.9443 -0.0877055 25.6571 -7.47576e-08 25.6571)
(25.6571 -10.9443 -0.0877055 25.6571 -3.0899e-07 25.6571)
(26.4822 -11.5925 -0.0942469 26.4822 -8.4447e-08 26.4822)
(26.4822 -11.5925 -0.0942469 26.4822 -3.18275e-07 26.4822)
(27.28 -12.2364 -0.100921 27.28 -9.47765e-08 27.28)
(27.28 -12.2364 -0.100921 27.28 -2.79166e-10 27.28)
(28.0501 -12.8744 -0.107716 28.0501 -1.05689e-07 28.0501)
(28.0501 -12.8743 -0.107716 28.0501 4.48652e-08 28.0501)
(28.7914 -13.5047 -0.114618 28.7914 -1.17317e-07 28.7914)
(28.7914 -13.5047 -0.114618 28.7914 3.95857e-08 28.7914)
(29.5032 -14.1254 -0.121611 29.5032 -1.30324e-07 29.5032)
(29.5032 -14.1254 -0.121611 29.5032 3.43554e-08 29.5032)
(30.1843 -14.7345 -0.128674 30.1843 -1.43859e-07 30.1843)
(30.1843 -14.7345 -0.128674 30.1843 2.97131e-08 30.1843)
(30.8336 -15.3297 -0.135787 30.8336 -1.58216e-07 30.8336)
(30.8336 -15.3297 -0.135787 30.8336 2.5097e-08 30.8336)
(31.4498 -15.9085 -0.142926 31.4498 -1.7331e-07 31.4498)
(31.4498 -15.9085 -0.142926 31.4498 2.09074e-08 31.4498)
(32.0317 -16.4685 -0.150063 32.0317 -1.90116e-07 32.0317)
(32.0317 -16.4685 -0.150063 32.0317 3.87786e-09 32.0317)
(32.5779 -17.0069 -0.157169 32.5779 -2.07365e-07 32.5779)
(32.5779 -17.0069 -0.157169 32.5779 -1.12394e-07 32.5779)
(33.0871 -17.521 -0.164212 33.0871 -2.25566e-07 33.0871)
(33.0871 -17.521 -0.164212 33.0871 -2.26468e-07 33.0871)
(33.5578 -18.0078 -0.171156 33.5578 -2.44868e-07 33.5578)
(33.5578 -18.0078 -0.171156 33.5578 -2.458e-07 33.5578)
(33.9888 -18.4644 -0.177967 33.9888 -2.65943e-07 33.9888)
(33.9888 -18.4644 -0.177967 33.9888 -2.66905e-07 33.9888)
(34.3787 -18.8878 -0.184602 34.3787 -2.87514e-07 34.3787)
(34.3787 -18.8878 -0.184602 34.3787 -2.88505e-07 34.3787)
(34.7263 -19.275 -0.191021 34.7263 -3.10126e-07 34.7263)
(34.7263 -19.275 -0.191021 34.7263 -3.11144e-07 34.7263)
(35.0305 -19.6229 -0.197181 35.0305 -3.34022e-07 35.0305)
(35.0305 -19.6229 -0.197181 35.0305 -3.35069e-07 35.0305)
(35.2902 -19.9287 -0.203037 35.2902 -3.59931e-07 35.2902)
(35.2902 -19.9287 -0.203037 35.2902 -3.61005e-07 35.2902)
(35.5045 -20.1896 -0.208544 35.5045 -3.86614e-07 35.5045)
(35.5045 -20.1896 -0.208544 35.5045 -3.87715e-07 35.5045)
(35.6729 -20.4028 -0.213654 35.6729 -4.14154e-07 35.6729)
(35.6729 -20.4028 -0.213654 35.6729 -4.1528e-07 35.6729)
(35.7947 -20.5656 -0.21832 35.7947 -4.43182e-07 35.7947)
(35.7947 -20.5656 -0.21832 35.7947 -4.44334e-07 35.7947)
(35.8697 -20.6759 -0.222497 35.8697 -4.7455e-07 35.8697)
(35.8697 -20.6759 -0.222497 35.8697 -4.75727e-07 35.8697)
(35.8979 -20.7314 -0.226137 35.8979 -5.05966e-07 35.8979)
(35.8979 -20.7314 -0.226137 35.8979 -5.0721e-07 35.8979)
(35.8795 -20.7304 -0.229196 35.8795 -5.39846e-07 35.8795)
(35.8795 -20.7304 -0.229196 35.8795 -5.41071e-07 35.8795)
(35.815 -20.6711 -0.231629 35.815 -5.73407e-07 35.815)
(35.815 -20.6711 -0.231629 35.815 -5.74996e-07 35.815)
(35.7054 -20.5525 -0.233395 35.7054 -6.12163e-07 35.7054)
(35.7054 -20.5525 -0.233395 35.7054 -6.13434e-07 35.7054)
(35.5517 -20.3734 -0.234454 35.5517 -6.48414e-07 35.5517)
(35.5517 -20.3734 -0.234454 35.5517 -6.49708e-07 35.5517)
(35.3556 -20.1334 -0.234768 35.3556 -6.83851e-07 35.3556)
(35.3556 -20.1334 -0.234768 35.3556 -6.85319e-07 35.3556)
(35.119 -19.8325 -0.234313 35.119 -7.27147e-07 35.119)
(35.119 -19.8325 -0.234313 35.119 -7.28654e-07 35.119)
(34.844 -19.4709 -0.233051 34.844 -7.7157e-07 34.844)
(34.844 -19.4709 -0.233051 34.844 -7.74558e-07 34.844)
(34.5334 -19.0489 -0.230955 34.5334 -8.03968e-07 34.5334)
(34.5334 -19.0489 -0.230955 34.5334 -8.099e-07 34.5334)
(34.1901 -18.5676 -0.228016 34.1901 -8.56536e-07 34.1901)
(34.1901 -18.5676 -0.228016 34.1901 -8.61065e-07 34.1901)
(33.8174 -18.0286 -0.224207 33.8174 -8.96118e-07 33.8174)
(33.8174 -18.0286 -0.224207 33.8174 -9.0008e-07 33.8174)
(33.419 -17.4333 -0.219519 33.419 -9.43394e-07 33.419)
(33.419 -17.4333 -0.219519 33.419 -9.44824e-07 33.419)
(32.999 -16.7838 -0.213949 32.999 -9.91552e-07 32.999)
(32.999 -16.7838 -0.213949 32.999 -9.93493e-07 32.999)
(32.5616 -16.0826 -0.207492 32.5616 -1.02847e-06 32.5616)
(32.5616 -16.0826 -0.207492 32.5616 -1.03369e-06 32.5616)
(32.1113 -15.3324 -0.200157 32.1113 -1.08035e-06 32.1113)
(32.1113 -15.3324 -0.200157 32.1113 -1.0836e-06 32.1113)
(31.653 -14.5361 -0.191946 31.653 -1.12276e-06 31.653)
(31.653 -14.5361 -0.191946 31.653 -1.12728e-06 31.653)
(31.1914 -13.6965 -0.18287 31.1914 -1.17338e-06 31.1914)
(31.1914 -13.6965 -0.18287 31.1914 -1.17582e-06 31.1914)
(30.7316 -12.8166 -0.17294 30.7316 -1.2079e-06 30.7316)
(30.7316 -12.8166 -0.17294 30.7316 -1.2121e-06 30.7316)
(30.2787 -11.8999 -0.162179 30.2787 -1.24896e-06 30.2787)
(30.2787 -11.8999 -0.162179 30.2787 -1.25052e-06 30.2787)
(29.8375 -10.9498 -0.150608 29.8375 -1.29981e-06 29.8375)
(29.8375 -10.9498 -0.150608 29.8375 -1.30226e-06 29.8375)
(29.4131 -9.96927 -0.138236 29.4131 -1.32816e-06 29.4131)
(29.4131 -9.96927 -0.138236 29.4131 -1.32976e-06 29.4131)
(29.0101 -8.9613 -0.125095 29.0101 -1.35972e-06 29.0101)
(29.0101 -8.9613 -0.125095 29.0101 -1.3652e-06 29.0101)
(28.6329 -7.9294 -0.111208 28.6329 -1.39792e-06 28.6329)
(28.6329 -7.9294 -0.111208 28.6329 -1.40308e-06 28.6329)
(28.2856 -6.87639 -0.0965951 28.2856 -1.41583e-06 28.2856)
(28.2856 -6.87639 -0.0965951 28.2856 -1.42866e-06 28.2856)
(27.9717 -5.80503 -0.0812797 27.9717 -1.45495e-06 27.9717)
(27.9717 -5.80503 -0.0812797 27.9717 -1.46752e-06 27.9717)
(27.6944 -4.71809 -0.0652854 27.6944 -1.44916e-06 27.6944)
(27.6944 -4.71809 -0.0652854 27.6944 -1.47127e-06 27.6944)
(27.4562 -3.61852 -0.0486452 27.4562 -1.49487e-06 27.4562)
(27.4562 -3.61851 -0.0486452 27.4562 -1.51286e-06 27.4562)
(27.2589 -2.50893 -0.0313761 27.2589 -1.48532e-06 27.2589)
(27.2589 -2.50893 -0.0313761 27.2589 -1.50871e-06 27.2589)
(27.1037 -1.39207 -0.0135177 27.1037 -1.52306e-06 27.1037)
(27.1037 -1.39207 -0.0135177 27.1037 -1.53782e-06 27.1037)
(26.9911 -0.000238904 -1.98408e-06 26.9911 -1.51721e-06 26.9911)
(26.9911 -0.000238678 -1.98221e-06 26.9911 -1.53671e-06 26.9911)
(26.921 0.592056 -0.00498848 26.921 -1.54798e-06 26.921)
(26.921 0.592057 -0.00498849 26.921 -1.55819e-06 26.921)
(26.8924 1.971 -0.0242992 26.8924 -1.53793e-06 26.8924)
(26.8924 1.971 -0.0242992 26.8924 -1.55433e-06 26.8924)
(26.9038 3.08512 -0.0441156 26.9038 -1.5652e-06 26.9038)
(26.9038 3.08512 -0.0441156 26.9038 -1.56886e-06 26.9038)
(26.953 4.18896 -0.0643663 26.953 -1.5691e-06 26.953)
(26.953 4.18896 -0.0643663 26.953 -1.57736e-06 26.953)
(27.0371 5.27831 -0.0849787 27.0371 -1.58296e-06 27.0371)
(27.0371 5.27831 -0.0849787 27.0371 -1.59074e-06 27.0371)
(27.1531 6.34863 -0.105876 27.1531 -1.60588e-06 27.1531)
(27.1531 6.34863 -0.105876 27.1531 -1.60844e-06 27.1531)
(27.2972 7.39493 -0.126966 27.2972 -1.60055e-06 27.2972)
(27.2972 7.39493 -0.126966 27.2972 -1.61915e-06 27.2972)
(27.4656 8.41184 -0.148143 27.4656 -1.64603e-06 27.4656)
(27.4656 8.41184 -0.148143 27.4656 -1.65663e-06 27.4656)
(27.654 9.39432 -0.16929 27.654 -1.64243e-06 27.654)
(27.654 9.39432 -0.16929 27.654 -1.66518e-06 27.654)
(27.8582 10.3373 -0.190303 27.8582 -1.69275e-06 27.8582)
(27.8582 10.3373 -0.190303 27.8582 -1.70085e-06 27.8582)
(28.0739 11.2357 -0.211054 28.0739 -1.71314e-06 28.0739)
(28.0739 11.2357 -0.211054 28.0739 -1.73168e-06 28.0739)
(28.2966 12.0848 -0.231419 28.2966 -1.76759e-06 28.2966)
(28.2966 12.0848 -0.231419 28.2966 -1.77408e-06 28.2966)
(28.5222 12.8808 -0.251289 28.5222 -1.78521e-06 28.5222)
(28.5222 12.8808 -0.251289 28.5222 -1.80661e-06 28.5222)
(28.7465 13.62 -0.270549 28.7465 -1.84869e-06 28.7465)
(28.7465 13.62 -0.270549 28.7465 -1.85699e-06 28.7465)
(28.9657 14.2991 -0.289089 28.9657 -1.86445e-06 28.9657)
(28.9657 14.2991 -0.289089 28.9657 -1.8888e-06 28.9657)
(29.1762 14.9155 -0.306807 29.1762 -1.94307e-06 29.1762)
(29.1762 14.9155 -0.306807 29.1762 -1.95101e-06 29.1762)
(29.3746 15.4672 -0.323604 29.3746 -1.9806e-06 29.3746)
(29.3746 15.4672 -0.323604 29.3746 -1.99953e-06 29.3746)
(29.5579 15.9537 -0.339408 29.5579 -2.05043e-06 29.5579)
(29.5579 15.9537 -0.339408 29.5579 -2.05301e-06 29.5579)
(29.7235 16.3746 -0.35416 29.7235 -2.08356e-06 29.7235)
(29.7235 16.3746 -0.35416 29.7235 -2.0993e-06 29.7235)
(29.869 16.73 -0.367804 29.869 -2.15062e-06 29.869)
(29.869 16.73 -0.367804 29.869 -2.15328e-06 29.869)
(29.9924 17.0208 -0.380292 29.9924 -2.2255e-06 29.9924)
(29.9924 17.0208 -0.380292 29.9924 -2.2282e-06 29.9924)
(30.0921 17.249 -0.391603 30.0921 -2.24888e-06 30.0921)
(30.0921 17.249 -0.391603 30.0921 -2.2692e-06 30.0921)
(30.1669 17.4165 -0.401739 30.1669 -2.32486e-06 30.1669)
(30.1669 17.4165 -0.401739 30.1669 -2.32763e-06 30.1669)
(30.2157 17.5257 -0.410679 30.2157 -2.38214e-06 30.2157)
(30.2157 17.5257 -0.410679 30.2157 -2.38494e-06 30.2157)
(30.2378 17.5796 -0.418439 30.2378 -2.42031e-06 30.2378)
(30.2378 17.5796 -0.418439 30.2378 -2.44129e-06 30.2378)
(30.2329 17.5817 -0.425048 30.2329 -2.50743e-06 30.2329)
(30.2329 17.5817 -0.425048 30.2329 -2.51512e-06 30.2329)
(30.2009 17.5355 -0.430532 30.2009 -2.51961e-06 30.2009)
(30.2009 17.5355 -0.430532 30.2009 -2.54606e-06 30.2009)
(30.1419 17.4447 -0.434939 30.1419 -2.58624e-06 30.1419)
(30.1419 17.4447 -0.434939 30.1419 -2.58917e-06 30.1419)
(30.0562 17.3128 -0.438306 30.0562 -2.63431e-06 30.0562)
(30.0562 17.3128 -0.438306 30.0562 -2.64888e-06 30.0562)
(29.9444 17.1437 -0.440683 29.9444 -2.67992e-06 29.9444)
(29.9444 17.1437 -0.440683 29.9444 -2.68291e-06 29.9444)
(29.8071 16.9413 -0.442132 29.8071 -2.70829e-06 29.8071)
(29.8071 16.9413 -0.442132 29.8071 -2.7288e-06 29.8071)
(29.6452 16.7093 -0.442708 29.6452 -2.76887e-06 29.6452)
(29.6452 16.7093 -0.442708 29.6452 -2.77326e-06 29.6452)
(29.4596 16.4514 -0.442476 29.4596 -2.76826e-06 29.4596)
(29.4596 16.4514 -0.442476 29.4596 -2.79748e-06 29.4596)
(29.2513 16.1709 -0.441499 29.2513 -2.83487e-06 29.2513)
(29.2513 16.1709 -0.441499 29.2513 -2.84376e-06 29.2513)
(29.0215 15.8712 -0.439831 29.0215 -2.82589e-06 29.0215)
(29.0215 15.8712 -0.439831 29.0215 -2.8538e-06 29.0215)
(28.7713 15.5555 -0.437544 28.7713 -2.86617e-06 28.7713)
(28.7713 15.5555 -0.437544 28.7713 -2.8693e-06 28.7713)
(28.502 15.2264 -0.434692 28.502 -2.88491e-06 28.502)
(28.502 15.2264 -0.434692 28.502 -2.90299e-06 28.502)
(28.2147 14.8867 -0.431325 28.2147 -2.90405e-06 28.2147)
(28.2147 14.8867 -0.431325 28.2147 -2.90721e-06 28.2147)
(27.9108 14.539 -0.427512 27.9108 -2.88555e-06 27.9108)
(27.9108 14.539 -0.427512 27.9108 -2.91743e-06 27.9108)
(27.5914 14.1854 -0.423302 27.5914 -2.92011e-06 27.5914)
(27.5914 14.1854 -0.423302 27.5914 -2.94027e-06 27.5914)
(27.2578 13.8279 -0.418739 27.2578 -2.86415e-06 27.2578)
(27.2578 13.8279 -0.418739 27.2578 -2.9182e-06 27.2578)
(26.9112 13.4683 -0.413873 26.9112 -2.92101e-06 26.9112)
(26.9112 13.4683 -0.413873 26.9112 -2.96399e-06 26.9112)
(26.5527 13.1084 -0.408747 26.5527 -2.83864e-06 26.5527)
(26.5527 13.1084 -0.408747 26.5527 -2.91133e-06 26.5527)
(26.1836 12.7495 -0.403404 26.1836 -2.89243e-06 26.1836)
(26.1836 12.7495 -0.403404 26.1836 -2.95057e-06 26.1836)
(25.8049 12.3929 -0.397877 25.8049 -2.77574e-06 25.8049)
(25.8049 12.3929 -0.397877 25.8049 -2.86595e-06 25.8049)
(25.4177 12.0396 -0.392203 25.4177 -2.8559e-06 25.4177)
(25.4177 12.0396 -0.392203 25.4177 -2.931e-06 25.4177)
(25.023 11.6904 -0.386405 25.023 -2.72931e-06 25.023)
(25.023 11.6904 -0.386405 25.023 -2.82579e-06 25.023)
(24.6218 11.3462 -0.380514 24.6218 -2.79753e-06 24.6218)
(24.6218 11.3462 -0.380514 24.6218 -2.87149e-06 24.6218)
(24.2149 11.0078 -0.374556 24.2149 -2.66896e-06 24.2149)
(24.2149 11.0078 -0.374556 24.2149 -2.76039e-06 24.2149)
(23.8034 10.6754 -0.368553 23.8034 -2.71232e-06 23.8034)
(23.8034 10.6754 -0.368553 23.8034 -2.77955e-06 23.8034)
(23.388 10.3496 -0.362516 23.388 -2.59506e-06 23.388)
(23.388 10.3496 -0.362516 23.388 -2.68197e-06 23.388)
(22.9695 10.0305 -0.356463 22.9695 -2.61866e-06 22.9695)
(22.9695 10.0305 -0.356463 22.9695 -2.69331e-06 22.9695)
(22.5486 9.71837 -0.350408 22.5486 -2.4695e-06 22.5486)
(22.5486 9.71837 -0.350408 22.5486 -2.57757e-06 22.5486)
(22.126 9.41323 -0.344353 22.126 -2.52012e-06 22.126)
(22.126 9.41323 -0.344353 22.126 -2.63098e-06 22.126)
(21.7024 9.11519 -0.338311 21.7024 -2.29838e-06 21.7024)
(21.7024 9.11519 -0.338311 21.7024 -2.44854e-06 21.7024)
(21.2783 8.82413 -0.332287 21.2783 -2.38729e-06 21.2783)
(21.2783 8.82413 -0.332287 21.2783 -2.53744e-06 21.2783)
(20.8544 8.53997 -0.326277 20.8544 -2.14906e-06 20.8544)
(20.8544 8.53997 -0.326277 20.8544 -2.33042e-06 20.8544)
(20.4311 8.26269 -0.320289 20.4311 -2.24393e-06 20.4311)
(20.4311 8.26269 -0.320289 20.4311 -2.43142e-06 20.4311)
(20.0089 7.99218 -0.314325 20.0089 -1.93175e-06 20.0089)
(20.0089 7.99218 -0.314325 20.0089 -2.16249e-06 20.0089)
(19.5882 7.72828 -0.308385 19.5882 -2.0807e-06 19.5882)
(19.5882 7.72828 -0.308385 19.5882 -2.32505e-06 19.5882)
(19.1696 7.47092 -0.30247 19.1696 -1.72205e-06 19.1696)
(19.1696 7.47092 -0.30247 19.1696 -2.00687e-06 19.1696)
(18.7534 7.22004 -0.296581 18.7534 -1.90588e-06 18.7534)
(18.7534 7.22004 -0.296581 18.7534 -2.21314e-06 18.7534)
(18.3399 6.97559 -0.290725 18.3399 -1.46012e-06 18.3399)
(18.3399 6.97559 -0.290725 18.3399 -1.81848e-06 18.3399)
(17.9296 6.73744 -0.284904 17.9296 -1.70769e-06 17.9296)
(17.9296 6.73744 -0.284904 17.9296 -2.10106e-06 17.9296)
(17.5226 6.50543 -0.279115 17.5226 -1.16194e-06 17.5226)
(17.5226 6.50543 -0.279115 17.5226 -1.61499e-06 17.5226)
(17.1193 6.27943 -0.27336 17.1193 -1.50211e-06 17.1193)
(17.1193 6.27943 -0.27336 17.1193 -2.00569e-06 17.1193)
(16.72 6.05924 -0.267638 16.72 -8.42693e-07 16.72)
(16.72 6.05924 -0.267638 16.72 -1.41285e-06 16.72)
(16.3249 5.84469 -0.261944 16.3249 -1.29006e-06 16.3249)
(16.3249 5.84469 -0.261944 16.3249 -1.9297e-06 16.3249)
(15.9342 5.63561 -0.256278 15.9342 -4.73902e-07 15.9342)
(15.9342 5.63561 -0.256279 15.9342 -1.1936e-06 15.9342)
(15.5482 5.43178 -0.250638 15.5482 -1.0556e-06 15.5482)
(15.5482 5.43178 -0.250638 15.5482 -1.86625e-06 15.5482)
(15.167 5.23303 -0.245017 15.1669 -2.87889e-07 15.167)
(15.167 5.23303 -0.245017 15.167 -9.72404e-07 15.167)
(14.7907 5.03918 -0.239414 14.7907 -8.25503e-07 14.7907)
(14.7907 5.03918 -0.239414 14.7907 -1.86136e-06 14.7907)
(14.4196 4.85009 -0.233825 14.4196 -1.69305e-07 14.4196)
(14.4196 4.85009 -0.233825 14.4196 -7.38463e-07 14.4196)
(14.0539 4.66564 -0.228251 14.0539 -3.36133e-07 14.0539)
(14.0539 4.66564 -0.228251 14.0539 -1.92219e-06 14.0539)
(13.6936 4.48572 -0.222689 13.6936 -1.17784e-07 13.6936)
(13.6936 4.48572 -0.222689 13.6936 -5.08327e-07 13.6936)
(13.3388 4.31023 -0.217139 13.3388 1.95566e-22 13.3388)
(13.3388 4.31023 -0.217139 13.3388 -1.86431e-06 13.3388)
(12.9898 4.13912 -0.211603 12.9898 -1.38414e-07 12.9898)
(12.9898 4.13912 -0.211603 12.9898 -2.62555e-07 12.9898)
(12.6465 3.97229 -0.206081 12.6465 -2.44087e-23 12.6465)
(12.6465 3.97229 -0.206081 12.6466 -2.24317e-06 12.6465)
(12.3092 3.80969 -0.200574 12.3092 -3.40673e-08 12.3092)
(12.3092 3.80969 -0.200574 12.3092 2.29646e-07 12.3092)
(11.9779 3.65131 -0.195086 11.9779 -3.77211e-22 11.9779)
(11.9779 3.65131 -0.195086 11.9779 -2.56797e-06 11.9779)
(11.6526 3.49715 -0.18962 11.6526 2.16749e-07 11.6526)
(11.6526 3.49715 -0.18962 11.6526 1.03592e-06 11.6526)
(11.3335 3.34731 -0.184184 11.3335 -0 11.3335)
(11.3335 3.34731 -0.184184 11.3336 -3.04903e-06 11.3335)
(11.0207 3.20192 -0.178789 11.0207 4.75854e-07 11.0207)
(11.0207 3.20192 -0.178789 11.0207 2.08098e-06 11.0207)
(10.7141 3.06121 -0.173451 10.7141 -1.70748e-37 10.7141)
(10.7141 3.06121 -0.173451 10.7141 -3.83286e-06 10.7141)
(10.4139 2.92548 -0.168193 10.4139 7.23109e-07 10.4139)
(10.4139 2.92548 -0.168193 10.4139 3.43162e-06 10.4139)
(10.1201 2.79508 -0.163038 10.1201 -7.19608e-22 10.1201)
(10.1201 2.79508 -0.163038 10.1201 -4.80728e-06 10.1201)
(9.83266 2.67039 -0.158019 9.83266 9.71062e-07 9.83266)
(9.83267 2.67039 -0.158019 9.83264 5.22021e-06 9.83267)
(9.55169 2.55173 -0.153166 9.55169 -1.53691e-21 9.55169)
(9.55168 2.55173 -0.153166 9.55171 -6.03508e-06 9.55168)
(9.27715 2.43936 -0.148507 9.27715 1.22399e-06 9.27715)
(9.27716 2.43936 -0.148507 9.27713 7.61647e-06 9.27716)
(9.00904 2.33341 -0.144067 9.00904 6.46683e-24 9.00904)
(9.00902 2.33341 -0.144067 9.00907 -7.57609e-06 9.00902)
(8.74732 2.23387 -0.139862 8.74732 1.44692e-06 8.74732)
(8.74733 2.23387 -0.139862 8.74729 1.08143e-05 8.74733)
(8.49194 2.1405 -0.135901 8.49194 1.91282e-21 8.49194)
(8.49192 2.1405 -0.135901 8.49197 -9.67764e-06 8.49192)
(8.24284 2.05294 -0.132173 8.24284 1.69294e-06 8.24284)
(8.24286 2.05294 -0.132173 8.24281 1.49658e-05 8.24286)
(7.99996 1.97068 -0.128669 7.99996 -3.14823e-21 7.99996)
(7.99994 1.97068 -0.128669 8 -1.25909e-05 7.99994)
(7.76319 1.89292 -0.125357 7.76319 1.88011e-06 7.76319)
(7.76321 1.89292 -0.125357 7.76315 1.88339e-05 7.76321)
(7.53245 1.81878 -0.12219 7.53245 -3.0359e-21 7.53245)
(7.53242 1.81878 -0.12219 7.53249 -1.63391e-05 7.53242)
(7.30763 1.74739 -0.119115 7.30763 2.061e-06 7.30763)
(7.30765 1.74739 -0.119115 7.30758 2.37124e-05 7.30765)
(7.08863 1.678 -0.116085 7.08863 3.37496e-21 7.08863)
(7.0886 1.678 -0.116085 7.08868 -2.12495e-05 7.0886)
(6.87535 1.60998 -0.113055 6.87535 2.1862e-06 6.87535)
(6.87537 1.60998 -0.113055 6.87529 2.98379e-05 6.87537)
(6.6677 1.54302 -0.109989 6.6677 -0 6.6677)
(6.66766 1.54303 -0.109989 6.66776 -2.75626e-05 6.66766)
(6.46558 1.47711 -0.106884 6.46558 2.21618e-06 6.46558)
(6.46561 1.47711 -0.106884 6.46552 3.75027e-05 6.46561)
(6.26891 1.41234 -0.10374 6.26891 -0 6.26891)
(6.26888 1.41234 -0.10374 6.26898 -3.57214e-05 6.26888)
(6.07762 1.34895 -0.100574 6.07762 2.16392e-06 6.07762)
(6.07765 1.34895 -0.100574 6.07755 4.72111e-05 6.07765)
(5.89162 1.28732 -0.0974051 5.89162 5.03195e-22 5.89162)
(5.89159 1.28732 -0.0974052 5.8917 -4.62221e-05 5.89159)
(5.71085 1.22774 -0.0942754 5.71085 1.97558e-06 5.71085)
(5.71089 1.22774 -0.0942754 5.71078 5.94964e-05 5.71089)
(5.53523 1.17043 -0.0911914 5.53523 -1.07524e-22 5.53523)
(5.53519 1.17043 -0.0911914 5.53531 -5.96763e-05 5.53519)
(5.36469 1.11585 -0.0881892 5.36469 1.64128e-06 5.36469)
(5.36473 1.11585 -0.0881892 5.36461 7.51385e-05 5.36473)
(5.19916 1.06428 -0.0853128 5.19916 3.69354e-22 5.19916)
(5.19912 1.06428 -0.0853128 5.19923 -7.94684e-05 5.19912)
(5.03855 1.01596 -0.0825789 5.03855 4.24511e-06 5.03855)
(5.03859 1.01596 -0.0825789 5.03848 9.50968e-05 5.03859)
(4.8828 0.971035 -0.0800233 4.8828 -1.17655e-20 4.8828)
(4.88277 0.971035 -0.0800233 4.88287 -0.000102222 4.88277)
(4.73182 0.929268 -0.0776519 4.73182 5.94882e-06 4.73182)
(4.73185 0.929268 -0.0776519 4.73176 0.000110085 4.73185)
(4.58552 0.89036 -0.0754387 4.58552 2.01193e-06 4.58552)
(4.58549 0.89036 -0.0754387 4.58558 -0.000119446 4.58549)
(4.44382 0.853999 -0.0733789 4.44382 6.27353e-06 4.44382)
(4.44384 0.853999 -0.0733789 4.44377 0.000124981 4.44384)
(4.30661 0.819786 -0.0714411 4.30661 2.17138e-06 4.30661)
(4.30659 0.819786 -0.0714411 4.30665 -0.000132427 4.30659)
(4.17382 0.787235 -0.0696031 4.17382 6.2945e-06 4.17382)
(4.17383 0.787235 -0.0696031 4.1738 0.000131401 4.17383)
(4.04535 0.755499 -0.0678148 4.04535 -5.26407e-06 4.04536)
(4.04535 0.7555 -0.0678149 4.04537 -0.00013741 4.04535)
(3.92113 0.724149 -0.0659858 3.92113 -2.42998e-06 3.92113)
(3.92113 0.724149 -0.0659858 3.92113 0.000136145 3.92113)
(3.80107 0.693336 -0.0641327 3.80107 -7.11763e-06 3.80107)
(3.80107 0.693336 -0.0641327 3.80106 -0.000135282 3.80107)
(3.68509 0.663116 -0.0622665 3.68509 -2.62701e-06 3.68509)
(3.68508 0.663116 -0.0622665 3.68512 0.000131354 3.68508)
(3.57314 0.633837 -0.0603877 3.57314 -7.26912e-06 3.57314)
(3.57315 0.633837 -0.0603877 3.57311 -0.00012771 3.57315)
(3.46515 0.605708 -0.0585632 3.46515 -1.07995e-21 3.46515)
(3.46512 0.605708 -0.0585632 3.46519 0.000121049 3.46512)
(3.36105 0.578648 -0.0567696 3.36105 -6.91289e-06 3.36105)
(3.36107 0.578648 -0.0567696 3.361 -0.000114699 3.36107)
(3.2608 0.553044 -0.0550215 3.2608 -1.43639e-21 3.2608)
(3.26077 0.553044 -0.0550215 3.26086 0.000105628 3.26077)
(3.16433 0.529183 -0.0533866 3.16433 -3.62876e-06 3.16433)
(3.16436 0.529183 -0.0533866 3.16427 -0.000102879 3.16436)
(3.0716 0.507351 -0.051863 3.0716 1.79867e-21 3.0716)
(3.07156 0.507351 -0.051863 3.07166 8.47119e-05 3.07156)
(2.98254 0.488456 -0.0505235 2.98254 -4.0998e-06 2.98254)
(2.98257 0.488457 -0.0505235 2.98248 -8.81484e-05 2.98257)
(2.89711 0.473117 -0.0494967 2.89711 -1.43259e-21 2.89711)
(2.89707 0.473117 -0.0494967 2.89718 7.04005e-05 2.89707)
(2.81524 0.461545 -0.0488056 2.81524 -4.561e-06 2.81524)
(2.81527 0.461546 -0.0488057 2.81517 -7.58147e-05 2.81527)
(2.73686 0.454109 -0.0485025 2.73686 -1.6571e-21 2.73686)
(2.73682 0.45411 -0.0485026 2.73693 5.87164e-05 2.73682)
(2.6619 0.450837 -0.0486471 2.6619 -4.97934e-06 2.6619)
(2.66193 0.450838 -0.0486472 2.66184 -6.54358e-05 2.66193)
(2.59028 0.451359 -0.049223 2.59028 -0 2.59028)
(2.59025 0.45136 -0.0492231 2.59035 4.75307e-05 2.59025)
(2.52191 0.455078 -0.0502037 2.52191 -5.3394e-06 2.52191)
(2.52194 0.455079 -0.0502038 2.52186 -5.66994e-05 2.52194)
(2.45669 0.461025 -0.051519 2.45669 -0 2.45669)
(2.45666 0.461027 -0.0515191 2.45675 2.90444e-05 2.45666)
(2.39451 0.467831 -0.0530505 2.39451 -5.63139e-06 2.39451)
(2.39453 0.467832 -0.0530506 2.39446 -4.93222e-05 2.39453)
(2.33527 0.474431 -0.0546238 2.33527 5.87931e-21 2.33527)
(2.33524 0.474432 -0.054624 2.33532 1.46598e-05 2.33524)
(2.27885 0.480469 -0.056176 2.27885 -5.88241e-06 2.27885)
(2.27887 0.48047 -0.0561761 2.27881 -4.30811e-05 2.27887)
(2.22517 0.486155 -0.057685 2.22517 -0 2.22517)
(2.22514 0.486157 -0.0576851 2.22522 5.03962e-06 2.22514)
(2.17411 0.492183 -0.0592193 2.17411 -6.11214e-06 2.17411)
(2.17413 0.492184 -0.0592195 2.17407 -3.78311e-05 2.17413)
(2.12558 0.499156 -0.0608774 2.12558 -6.11357e-23 2.12558)
(2.12557 0.499158 -0.0608776 2.1256 -4.66682e-06 2.12557)
(2.07948 0.507466 -0.062715 2.07948 -6.29684e-06 2.07948)
(2.07949 0.507467 -0.0627152 2.07944 -3.34077e-05 2.07949)
(2.03565 0.517316 -0.0647859 2.03574 5.21167e-06 2.03565)
(2.03568 0.517317 -0.0647862 2.03568 -6.50217e-06 2.03568)
(1.99407 0.528643 -0.067104 1.99407 -6.46721e-06 1.99407)
(1.99409 0.528645 -0.0671042 1.99404 -2.96789e-05 1.99409)
(1.95451 0.541226 -0.0696576 1.95458 8.83694e-06 1.95451)
(1.95453 0.541228 -0.0696579 1.95453 -6.98127e-06 1.95453)
(1.91692 0.554984 -0.0724184 1.91692 -6.78622e-06 1.91692)
(1.91693 0.554986 -0.0724188 1.91689 -2.67261e-05 1.91693)
(1.88106 0.569638 -0.0754101 1.88112 1.1763e-05 1.88106)
(1.88108 0.569641 -0.0754105 1.88108 -7.31734e-06 1.88108)
(1.84687 0.58428 -0.0785486 1.84687 -7.22155e-06 1.84687)
(1.84688 0.584283 -0.078549 1.84685 -2.44261e-05 1.84688)
(1.8141 0.597624 -0.0816809 1.81414 8.0973e-06 1.8141)
(1.81412 0.597627 -0.0816813 1.81412 -7.72944e-06 1.81412)
(1.78267 0.608183 -0.084604 1.78267 -7.75669e-06 1.78267)
(1.78268 0.608186 -0.0846044 1.78265 -2.26376e-05 1.78268)
(1.75237 0.61488 -0.0870882 1.7524 5.43801e-06 1.75237)
(1.75238 0.614883 -0.0870887 1.75238 -8.29714e-06 1.75238)
(1.72312 0.617426 -0.0890242 1.72312 -8.39038e-06 1.72312)
(1.72313 0.617429 -0.0890247 1.72311 -2.13049e-05 1.72313)
(1.6948 0.616447 -0.0903929 1.69482 3.08378e-06 1.6948)
(1.6948 0.61645 -0.0903933 1.6948 -8.82769e-06 1.6948)
(1.66735 0.613376 -0.091349 1.66735 -8.78591e-06 1.66735)
(1.66735 0.61338 -0.0913495 1.66734 -2.00293e-05 1.66735)
(1.64069 0.610013 -0.0921231 1.64071 1.31685e-06 1.64069)
(1.6407 0.610016 -0.0921236 1.6407 -9.04777e-06 1.6407)
(1.6148 0.608382 -0.093004 1.6148 -8.88182e-06 1.6148)
(1.6148 0.608386 -0.0930046 1.6148 -1.87154e-05 1.6148)
(1.58958 0.609483 -0.0943229 1.58959 -1.84923e-08 1.58958)
(1.58959 0.609488 -0.0943235 1.58959 -9.17581e-06 1.58959)
(1.56497 0.612653 -0.0960795 1.56497 -9.18925e-06 1.56497)
(1.56497 0.612658 -0.0960803 1.56497 -1.78973e-05 1.56497)
(1.54086 0.616198 -0.0980991 1.54086 -1.41227e-06 1.54086)
(1.54086 0.616203 -0.0981 1.54086 -9.62261e-06 1.54086)
(1.51714 0.618148 -0.100039 1.51714 -9.8553e-06 1.51714)
(1.51714 0.618154 -0.10004 1.51714 -1.76749e-05 1.51714)
(1.49371 0.617579 -0.101607 1.49371 -2.91647e-06 1.49371)
(1.49371 0.617585 -0.101608 1.49371 -1.03225e-05 1.49371)
(1.47051 0.6145 -0.10277 1.47051 -1.06046e-05 1.47051)
(1.47051 0.614506 -0.102771 1.47051 -1.76781e-05 1.47051)
(1.44746 0.609157 -0.10353 1.44746 -4.34144e-06 1.44746)
(1.44746 0.609163 -0.103531 1.44746 -1.10538e-05 1.44746)
(1.42453 0.60151 -0.103934 1.42453 -1.12696e-05 1.42453)
(1.42453 0.601517 -0.103936 1.42454 -1.77353e-05 1.42453)
(1.4017 0.591058 -0.103888 1.40169 -5.52427e-06 1.4017)
(1.40169 0.591064 -0.103889 1.40169 -1.17205e-05 1.40169)
(1.37895 0.577327 -0.103274 1.37895 -1.20489e-05 1.37895)
(1.37894 0.577333 -0.103275 1.37895 -1.80354e-05 1.37894)
(1.35631 0.560471 -0.101998 1.3563 -6.78259e-06 1.35631)
(1.35631 0.560478 -0.102 1.35631 -1.25759e-05 1.35631)
(1.33384 0.542031 -0.100162 1.33384 -1.27578e-05 1.33384)
(1.33383 0.542038 -0.100163 1.33385 -1.84927e-05 1.33383)
(1.31159 0.524482 -0.0981805 1.31158 -7.4723e-06 1.31159)
(1.31159 0.524489 -0.0981817 1.31159 -1.30671e-05 1.31159)
(1.28962 0.510279 -0.0965284 1.28962 -1.30711e-05 1.28962)
(1.28962 0.510288 -0.0965299 1.28963 -1.87406e-05 1.28962)
(1.26798 0.50134 -0.095666 1.26796 -7.66083e-06 1.26798)
(1.26797 0.501352 -0.0956679 1.26797 -1.32976e-05 1.26797)
(1.24663 0.498356 -0.0959141 1.24663 -1.34614e-05 1.24663)
(1.24663 0.49837 -0.0959166 1.24664 -1.91975e-05 1.24663)
(1.22556 0.500658 -0.0972998 1.22554 -8.0792e-06 1.22556)
(1.22555 0.500677 -0.097303 1.22555 -1.3918e-05 1.22555)
(1.20464 0.507321 -0.0996284 1.20464 -1.41474e-05 1.20464)
(1.20463 0.507344 -0.0996326 1.20466 -2.02093e-05 1.20463)
(1.18378 0.517397 -0.102814 1.18375 -8.36318e-06 1.18378)
(1.18377 0.517425 -0.10282 1.18377 -1.46555e-05 1.18377)
(1.16278 0.528224 -0.106633 1.16278 -1.50756e-05 1.16278)
(1.16277 0.528259 -0.10664 1.1628 -2.16621e-05 1.16277)
(1.14149 0.535038 -0.110271 1.14146 -8.85632e-06 1.14149)
(1.14148 0.535077 -0.110278 1.14148 -1.58249e-05 1.14148)
(1.11972 0.532939 -0.11257 1.11972 -1.64248e-05 1.11972)
(1.11971 0.532981 -0.112578 1.11974 -2.38002e-05 1.11971)
(1.09742 0.519324 -0.112555 1.09739 -9.34704e-06 1.09742)
(1.09741 0.519369 -0.112564 1.09741 -1.7191e-05 1.09741)
(1.07456 0.494744 -0.109937 1.07456 -1.75164e-05 1.07456)
(1.07455 0.494791 -0.109947 1.07459 -2.6015e-05 1.07455)
(1.0513 0.461126 -0.105044 1.05127 -8.99115e-06 1.0513)
(1.05129 0.461175 -0.105054 1.05129 -1.81493e-05 1.05129)
(1.02778 0.420977 -0.0981918 1.02778 -1.84087e-05 1.02778)
(1.02777 0.421031 -0.098203 1.02781 -2.84291e-05 1.02777)