/*--------------------------------*- C++ -*----------------------------------*\
| =========                 |                                                 |
| \\      /  F ield         | OpenFOAM: The Open Source CFD Toolbox           |
|  \\    /   O peration     | Version:  2012                                  |
|   \\  /    A nd           | Website:  www.openfoam.com                      |
|    \\/     M anipulation  |                                                 |
\*---------------------------------------------------------------------------*/
FoamFile
{
    version     2.0;
    format      ascii;
    class       volTensorField;
    location    "13800";
    object      grad(U);
}
// * * * * * * * * * * * * * * * * * * * * * * * * * * * * * * * * * * * * * //

dimensions      [0 0 -1 0 0 0 0];


internalField   nonuniform List<tensor> 
2560
(
(0 -1.38382e-14 1.88576e-13 536.238 0 3.0254 0.777042 0 0.00613909)
(0 0 1.14289e-18 535.632 0.036106 0.000259604 0.777043 -0.00037899 -0.00612644)
(0 1.76017e-19 0 534.681 -0.00707729 -9.03044e-21 2.33733 6.89856e-05 0)
(0 -1.40814e-19 1.12651e-18 534.092 0.141621 -0.000171559 2.33734 6.80032e-05 -0.00831134)
(-9.97798e-17 -1.38795e-19 1.11036e-18 533.308 -0.0771471 -1.97669 3.19733 2.6992e-05 0.00508515)
(0 2.73254e-19 -2.22073e-18 532.756 0.0532089 -6.24893e-05 3.19415 2.58158e-05 -0.00507429)
(3.16226e-16 -1.0371e-16 5.47225e-19 531.938 -0.0358864 -1.25712 3.23553 -1.88819e-06 0.00244341)
(0 3.38809e-19 -5.47225e-19 531.435 0.0278044 -1.51647e-05 3.23264 -1.06957e-06 -0.0024382)
(2.20931e-15 -4.74362e-19 1.34845e-18 530.596 -0.0146633 -0.535232 3.2744 7.27557e-07 0.00129547)
(0 5.42114e-19 -1.07876e-18 530.148 0.0152998 -3.70328e-06 3.27181 -2.32005e-07 -0.00129271)
(7.57075e-16 -2.71017e-19 3.98738e-19 529.173 -0.00943038 -0.235007 3.31247 1.42371e-07 0.000806547)
(6.05913e-15 3.38772e-19 -3.98738e-19 528.782 0.00968619 -6.88935e-07 3.3102 -1.12723e-06 -0.000804829)
(-9.81816e-16 -6.78067e-20 1.96512e-19 527.474 -0.00687704 -0.119516 3.34871 1.604e-06 0.000565982)
(3.92835e-15 2.03292e-19 -3.27519e-19 527.139 0.00665009 -1.84727e-07 3.34676 1.82979e-07 -0.000564776)
(-1.20934e-15 2.71123e-19 -1.93695e-19 525.425 -0.00508866 -0.0691865 3.38306 -5.50882e-07 0.00042999)
(4.8383e-15 -2.03279e-19 1.2913e-19 525.144 0.00524356 -1.37313e-07 3.38142 -1.78007e-06 -0.000429074)
(1.43915e-15 -2.71214e-19 1.27806e-19 523.241 -0.00421411 -0.0440082 3.41822 2.17265e-06 0.000340954)
(0 3.38831e-19 -1.27279e-19 523.011 0.00404228 -1.87039e-08 3.41687 9.37707e-07 -0.000344016)
(-2.05546e-15 2.71248e-19 -1.25455e-19 521.364 -0.00337494 -0.029958 3.45722 -1.1247e-06 0.000230261)
(0 -2.03374e-19 6.27275e-20 521.181 0.00351964 -2.81053e-08 3.45616 -2.34261e-06 -0.000286574)
(1.20944e-16 -6.77457e-19 1.12306e-19 519.868 -0.00299733 -0.0214438 3.4982 2.72786e-06 0.000164316)
(-2.026e-15 7.45323e-19 -1.54571e-19 519.728 0.00268948 -1.32764e-09 3.49739 1.50471e-06 -0.000245582)
(2.14176e-15 -3.43349e-18 2.56713e-19 518.619 -0.00256812 -0.0159487 3.54143 -1.58948e-06 0.000122269)
(0 8.80807e-19 -2.13298e-19 518.519 0.00264192 -1.12089e-07 3.54087 -2.83803e-06 -0.000215081)
(3.93667e-15 -2.71014e-19 6.00689e-20 517.735 -0.00220377 -0.0122529 3.5884 2.99364e-06 9.40015e-05)
(0 4.7445e-19 -6.00689e-20 517.669 0.0402201 0.000138654 3.58806 1.733e-06 -0.00019163)
(-2.6233e-15 4.14455e-19 -1.02457e-19 517.102 -0.0025837 -0.00959018 3.63626 0.000130192 7.45879e-05)
(1.04933e-14 2.40741e-34 5.92079e-20 517.067 -1.388e-17 1.82628e-06 3.63612 0 -0.000172542)
(0 -3.10295e-17 -1.16719e-19 516.284 -9.94095e-20 -0.00771483 3.68184 -5.42101e-20 5.92839e-05)
(0 -4.96054e-19 1.16719e-19 516.276 0.124456 0.000215878 3.68187 -0.000260998 -0.000158234)
(-3.119e-15 -1.15046e-19 1.56031e-20 514.944 -0.00328933 -0.00622868 3.72337 0.000577216 4.99985e-05)
(1.24759e-14 0 -2.87614e-20 514.959 -2.22224e-17 6.06643e-06 3.72356 -6.03334e-35 -0.000144502)
(0 -1.66247e-17 -1.41746e-19 512.984 3.44549e-17 -0.00506232 3.76089 1.0842e-19 3.94943e-05)
(-1.34885e-14 2.51617e-15 1.41746e-19 513.018 0.0786599 -0.000250206 3.7612 -0.000286895 -0.000135905)
(-7.32506e-15 1.67657e-18 -1.11772e-19 510.819 -0.00259412 -0.00427155 3.80016 0.000946907 3.43231e-05)
(-7.18546e-15 -3.93686e-19 1.11772e-19 510.868 -3.54806e-17 2.09812e-06 3.80057 0 -0.000126989)
(7.22008e-15 -2.20339e-19 5.50848e-20 509.439 -3.61903e-05 -0.0035956 3.85019 -0.000126402 2.88619e-05)
(0 1.12779e-29 -6.8856e-20 509.5 3.81421e-17 -4.44332e-06 3.85069 0 -0.00012014)
(-2.97389e-15 1.08591e-18 -5.55628e-20 509.634 -0.00283062 -0.00305301 3.91447 0.00107154 2.51043e-05)
(-9.45392e-15 -5.94087e-19 9.50168e-20 509.703 -3.71305e-20 9.00859e-07 3.91503 0 -0.000113538)
(0 0 -9.36549e-20 511.274 0.000270003 -0.00261001 3.98852 -0.00053004 2.13809e-05)
(0 3.20321e-19 9.36549e-20 511.35 3.81439e-17 -5.43056e-06 3.98913 0 -0.000108545)
(-4.67009e-15 -6.33001e-19 -1.17647e-20 513.61 -0.00284731 -0.00224604 4.06603 0.00119529 1.89429e-05)
(0 -1.54074e-33 -2.6375e-20 513.69 -4.15919e-17 -3.79757e-08 4.06667 2.34257e-34 -0.000103495)
(8.68854e-15 -1.59562e-19 1.18366e-19 516.043 0.000827463 -0.00200606 4.14435 -0.000926455 1.62582e-05)
(0 0 -1.29985e-19 516.126 -1.44312e-35 0.000270297 4.14502 2.1684e-19 -9.9769e-05)
(0 2.04995e-18 -6.4061e-20 518.442 -0.00327019 -0.00168227 4.22414 0.00158666 1.56521e-05)
(-2.08712e-14 -6.60018e-19 1.02498e-19 518.526 -5.50015e-20 5.06989e-06 4.22483 0 -9.44467e-05)
(5.49963e-15 -8.08229e-19 -3.9172e-20 520.902 0.00111747 -0.00148363 4.30632 -0.00193394 1.14703e-05)
(0 4.81482e-35 5.05143e-20 520.986 3.64185e-32 0.000127469 4.30701 -2.1684e-19 -9.30032e-05)
(-1.15736e-14 3.98322e-18 -8.31085e-20 523.449 -0.00378302 -0.00126431 4.3905 0.00234926 1.28343e-05)
(0 1.92593e-34 6.22379e-20 523.532 -7.84519e-17 1.03469e-05 4.39119 -4.33681e-19 -8.78374e-05)
(3.11042e-14 1.96307e-18 1.3138e-19 525.982 0.00168017 -0.00101587 4.47547 -0.00281752 8.13623e-06)
(3.57714e-14 0 -9.81533e-20 526.062 9.71445e-17 -0.000310553 4.47614 -4.08706e-30 -8.77574e-05)
(0 -3.48288e-18 4.83733e-20 528.359 -0.00411653 -0.000953157 4.56005 0.00290577 8.99224e-06)
(1.91733e-14 0 -4.83733e-20 528.436 -9.42846e-17 6.16332e-06 4.5607 -4.33681e-19 -8.48554e-05)
(6.68325e-15 -1.14432e-18 -1.29515e-21 530.517 0.00238628 -0.000831113 4.64429 -0.00306197 7.29444e-06)
(-1.2499e-14 4.25125e-19 0 530.59 1.06281e-19 2.16165e-06 4.64491 0 -8.3678e-05)
(-1.3987e-14 0 -8.87049e-21 532.627 -0.00463367 -0.000725341 4.73104 0.00315621 7.12297e-06)
(-5.59473e-14 -4.37819e-18 -1.17491e-20 532.696 1.09455e-19 1.71839e-06 4.73163 0 -8.12405e-05)
(-1.94518e-14 -1.11175e-18 -2.19939e-20 535.212 0.0031154 -0.000634164 4.82682 -0.00331732 5.6329e-06)
(-2.92337e-14 2.30282e-18 0 535.275 9.70294e-17 -1.02001e-05 4.82737 0 -8.04984e-05)
(0 3.65273e-18 -6.84886e-20 539.081 -0.00530468 -0.000556219 4.94024 0.00341411 5.69166e-06)
(-3.05106e-14 -1.42083e-18 6.84886e-20 539.139 1.18402e-19 -1.54746e-06 4.94074 4.33681e-19 -7.84522e-05)
(1.17977e-14 2.16022e-18 6.7507e-20 545.025 0.00400333 -0.00048659 5.07826 -0.00357545 4.37555e-06)
(2.00075e-14 0 -6.7507e-20 545.078 -1.24097e-19 -1.25209e-05 5.07872 -4.33681e-19 -7.80037e-05)
(-8.28091e-15 0 -2.10627e-20 553.437 -0.00613849 -0.000425826 5.24294 0.00367431 4.56931e-06)
(0 -9.62965e-35 0 553.484 -1.09339e-16 -1.04358e-06 5.24336 -4.33681e-19 -7.62698e-05)
(-8.6187e-15 -2.79833e-18 -6.47627e-20 564.113 0.00495132 -0.000448674 5.43048 -0.00383442 3.36243e-06)
(0 0 5.46548e-20 564.155 -1.33082e-19 0.000330074 5.43085 -4.33681e-19 -7.6039e-05)
(-8.96748e-15 4.13733e-18 -5.24765e-20 576.324 -0.00722685 -0.000313189 5.6326 0.00426331 5.13855e-06)
(-3.58697e-14 -2.36582e-18 2.15486e-20 576.362 -4.43591e-19 6.58518e-06 5.63294 0 -7.25675e-05)
(9.32967e-15 1.35934e-18 2.82659e-17 589.049 0.00596147 -0.000172879 5.83913 -0.00475834 8.41597e-07)
(0 -1.73334e-33 -3.18596e-20 589.083 5.55112e-17 0.00102771 5.83945 -1.88647e-34 -7.45476e-05)
(9.7069e-15 -4.01958e-18 4.96672e-20 601.256 -0.0087979 -0.00020233 6.04051 0.006185 9.00998e-06)
(0 -7.70372e-34 -4.18706e-20 601.288 0 2.12205e-05 6.04081 8.67362e-19 -6.50367e-05)
(-1.00997e-14 -1.32066e-18 -1.88079e-36 612.152 0.00789776 -2.00577e-18 6.23015 -0.00771176 1.35525e-20)
(-1.08188e-14 1.07042e-18 2.06353e-20 612.182 2.22312e-16 0.000419995 6.23045 0 -7.35768e-05)
(0 6.50864e-18 -4.0679e-20 621.404 -0.0101742 -9.62655e-05 6.40696 0.00952053 9.97317e-06)
(0 -1.32104e-18 4.0679e-20 621.432 -4.44089e-16 2.69359e-05 6.40724 1.73472e-18 -6.15993e-05)
(-1.09284e-14 -1.28307e-18 2.50946e-18 629.344 0.00876861 1.96512e-18 6.57766 -0.0114752 0)
(4.37135e-14 0 0 629.37 -7.96352e-19 -0.000328933 6.57791 1.10516e-33 -7.31222e-05)
(0 -1.26468e-17 4.94016e-20 637.076 -0.0108707 -4.84275e-06 6.75764 0.0129301 7.2881e-06)
(4.54393e-14 0 -4.94016e-20 637.099 -7.78053e-16 2.18354e-05 6.75786 1.73472e-18 -6.33875e-05)
(1.17995e-14 -4.98622e-18 1.70939e-17 646.337 0.00948734 3.854e-18 6.96842 -0.0145682 0)
(-4.7198e-14 8.0878e-18 5.84323e-20 646.356 0 -0.00072088 6.9686 -3.46945e-18 -7.31247e-05)
(1.22466e-14 -9.82951e-18 2.81155e-20 659.02 -0.0114104 6.43867e-05 7.23081 0.0153027 4.1611e-06)
(0 0 -1.91983e-20 659.034 -3.60822e-16 1.11904e-05 7.23094 1.36412e-33 -6.82692e-05)
(-1.27032e-14 2.42216e-18 4.34595e-18 676.465 0.0100852 -3.22143e-20 7.55661 -0.0162329 0)
(0 0 -3.78462e-20 676.476 4.12322e-16 -0.000314304 7.55671 6.72284e-34 -7.34848e-05)
(1.31739e-14 4.77488e-18 -9.21865e-21 698.88 -0.0119906 0.000116509 7.94327 0.0166642 3.04392e-06)
(3.31375e-14 -2.77334e-32 9.32594e-21 698.888 -4.16334e-16 6.52525e-06 7.94335 0 -7.08705e-05)
(1.92776e-14 4.70645e-18 4.90538e-18 725.212 0.0107275 1.82959e-18 8.37465 -0.0172915 0)
(5.46607e-14 0 -2.75768e-20 725.219 8.32667e-16 0.000174298 8.37473 -4.62386e-33 -7.41373e-05)
(-1.41836e-14 0 -9.14869e-21 753.497 -0.0126585 0.000163921 8.82622 0.0179027 4.62123e-06)
(0 -7.70372e-34 -1.81211e-20 753.505 0 8.92986e-06 8.82633 0 -7.03976e-05)
(-1.47339e-14 0 0 781.533 0.0114115 0 9.27388 -0.0187154 0)
(0 3.08149e-32 -1.78613e-20 781.545 4.48702e-16 0.00309149 9.27407 6.34562e-34 -7.50824e-05)
(0 -4.50697e-18 0 807.416 -0.0125842 0.000226847 9.69725 0.0223615 2.33241e-05)
(0 4.62223e-32 -1.76053e-20 807.436 -6.69237e-16 5.31109e-05 9.69755 1.25093e-33 -4.90501e-05)
(-3.41356e-14 8.88474e-18 1.02327e-17 829.317 0.0117121 -1.6752e-18 10.0713 -0.0262866 1.35525e-20)
(0 1.54074e-33 -3.4706e-20 829.349 -6.16503e-34 -0.000503517 10.0718 -3.46945e-18 -7.64882e-05)
(-1.79352e-14 2.18935e-17 -3.42086e-20 844.488 -0.011624 0.000343784 10.3508 0.0293539 2.16576e-05)
(-6.63986e-14 -2.03673e-17 3.42086e-20 844.536 -7.79193e-16 9.70191e-05 10.3515 -3.46945e-18 -5.43147e-05)
(3.74093e-16 2.58957e-17 1.02348e-17 847.941 0.0105639 0.000585466 10.4517 -0.0327212 3.59068e-06)
(5.15374e-14 0 -8.42957e-20 848.011 1.43875e-15 -0.0020288 10.4527 -1.30397e-29 -7.83122e-05)
(0 2.55245e-17 -6.64701e-20 831.285 -0.0103618 0.000611223 10.2365 0.0335253 1.16803e-05)
(0 0 6.64701e-20 831.386 -8.27767e-31 0.000190932 10.238 -6.45644e-34 -7.28885e-05)
(-1.88701e-14 -1.67724e-17 -4.29148e-20 782.289 0.00729501 0.000780101 9.51165 -0.0345851 7.99117e-06)
(7.54792e-14 0 3.27587e-20 782.43 7.60351e-16 0.000850186 9.51372 6.93889e-18 -8.10237e-05)
(3.94656e-14 -2.06651e-17 4.64656e-20 685.993 -0.00966056 0.00114342 8.0515 0.0356591 2.13977e-05)
(7.89296e-14 -6.16298e-32 -3.22892e-20 686.181 -7.74682e-16 0.000336677 8.05426 1.12296e-32 -7.23229e-05)
(3.33724e-14 8.14755e-18 1.59132e-20 527.675 0.00270952 0.00140496 5.64563 -0.0370275 1.50722e-05)
(0 -5.23853e-32 -1.59132e-20 527.919 7.77156e-16 0.00108063 5.6492 -2.2614e-33 -8.63527e-05)
(-2.15001e-14 -8.03078e-18 1.0043e-20 297.225 -0.00789282 0.00184594 2.16658 0.0384411 3.3737e-05)
(0 1.14015e-31 -3.13702e-20 297.528 -1.61249e-15 0.000347274 2.17102 6.93889e-18 -7.42396e-05)
(-1.59521e-13 -3.16627e-17 -9.80936e-20 -0.476413 -0.000698693 0.00207629 0.00318622 -0.0402817 2.17207e-05)
(0 0 1.08222e-19 7.61589e-30 -1.93957e-33 0.000581888 -1.52318e-29 3.87914e-33 -9.64779e-05)
(4.30244e-13 0 -6.02778e-21 -347.973 -0.0026095 0.00229489 2.36106 0.0419047 4.07014e-05)
(0 0 -1.52387e-20 -347.19 -2.90761e-18 0.000100197 2.35575 6.93889e-18 -8.39811e-05)
(-5.16804e-14 7.6904e-18 -1.23338e-20 -769.575 -0.00208131 0.00231587 7.72128 -0.0440876 2.29388e-05)
(1.12226e-13 0 -3.00406e-20 -769.099 8.88835e-16 -0.000556854 7.71512 5.53102e-33 -0.000111657)
(1.26086e-14 1.51604e-17 -3.90978e-20 -1169.46 0.00466693 0.00208107 13.5111 0.0456037 3.52868e-05)
(-3.10484e-14 -6.57012e-32 0 -1168.94 -9.46854e-16 -0.000280873 13.5041 0 -0.000103495)
(-1.73349e-14 -2.98861e-17 -8.92809e-20 -1530.99 -0.00394938 0.00185596 19.1999 -0.0476708 1.71842e-05)
(-8.05791e-14 2.64635e-17 5.83713e-20 -1530.43 3.30793e-18 -0.00148975 19.1923 0 -0.000128388)
(-4.29618e-14 -3.68222e-17 8.52931e-20 -1819.46 0.00977419 0.00128863 24.2276 0.0487913 1.98887e-05)
(1.11527e-13 0 -8.63021e-20 -1818.87 -9.40304e-16 -0.000507645 24.2194 3.90417e-30 -0.000127008)
(-4.61508e-15 -3.62945e-17 -1.97354e-19 -2010.9 -0.0083474 0.000961612 28.1174 -0.0503144 8.07841e-06)
(-7.55339e-14 1.39655e-17 1.41775e-19 -2010.29 1.92189e-15 -0.0012451 28.1087 0 -0.000141411)
(-2.36426e-14 -5.0084e-17 2.49597e-18 -2095.43 0.0114364 2.6563e-18 30.5626 0.0510343 0)
(5.0616e-14 -1.57772e-30 -1.39743e-19 -2094.81 9.36894e-16 0.00137673 30.5535 6.93889e-18 -0.000143005)
(6.68202e-15 1.41046e-17 7.28617e-20 -2077.15 -0.0131692 -6.11215e-05 31.4611 -0.0508191 4.26026e-06)
(0 3.08149e-33 -5.50962e-20 -2076.55 7.05279e-18 0.000350852 31.452 0 -0.000132106)
(0 -5.56098e-17 1.94586e-20 -1971.06 0.0115281 1.94586e-20 30.9049 0.0511033 0)
(1.84651e-14 0 -1.35766e-19 -1970.51 9.15934e-16 0.000730166 30.8961 6.93889e-18 -0.000140042)
(0 1.37032e-17 8.02922e-20 -1798.32 -0.0157656 -0.000334507 29.1276 -0.0507152 1.16729e-05)
(1.13678e-14 0 -8.02922e-20 -1797.87 -9.4369e-16 0.000123553 29.1197 6.93889e-18 -0.000124091)
(-6.91548e-15 6.7534e-18 0 -1581.41 0.0116351 -1.55782e-33 26.4325 0.0507793 2.71051e-20)
(5.52713e-15 0 2.63805e-20 -1581.11 -2.77556e-17 5.55201e-05 26.4265 -6.93889e-18 -0.000136701)
(0 -3.99396e-17 -1.04009e-19 -1340.63 -0.0158044 -0.000265946 23.1299 -0.050468 1.15165e-05)
(0 1.4029e-14 1.04009e-19 -1340.56 -1.77636e-15 -4.36063e-06 23.1268 6.93889e-18 -0.000120944)
(0 0 4.87501e-34 -1092.14 0.011557 -3.45071e-18 15.0731 0.0505164 5.20057e-36)
(0 0 0 -1092.35 8.95189e-16 0.00276072 15.0731 0 -0.000134825)
(0 0 -2.52624e-20 -847.551 -0.0130738 -0.0162311 7.20699 -0.00100486 -3.11564e-05)
(0 0 1.54074e-33 -848.086 0 1.04354e-18 7.20695 -1.11394e-28 -6.77626e-21)
(0 1.19521e-18 -1.55627e-21 -614.566 0.0117029 -0.000205168 1.20627 0.00238473 2.59904e-06)
(0 0 0 -615.412 -4.13027e-17 -0.00364955 1.20624 -5.50747e-34 -2.59864e-06)
(0 -1.8191e-16 0 -397.979 3.29597e-17 -0.000189068 -2.99493 0 -2.63696e-06)
(0 0 0 -399.046 -0.0759092 -4.34382e-20 -2.99495 -0.00143328 -4.23516e-22)
(1.07849e-15 1.35473e-18 -1.51198e-21 -200.666 0.0103109 -0.000187992 -1.84418 0.00171044 2.01554e-06)
(0 -4.24816e-15 0 -201.822 1.38778e-17 -0.000263021 -1.86438 2.1684e-19 -2.01513e-06)
(-7.74296e-13 -3.0556e-16 0 1.78306e-15 3.92751e-19 -0.000165077 8.88178e-16 2.1684e-19 -2.05859e-06)
(1.51385e-12 3.81518e-19 -2.85732e-22 -1.77385 -0.0544685 -1.38383e-20 -0.0153838 -0.00141682 0)
(-4.46024e-13 -1.88025e-19 7.34473e-22 116.258 0.00896614 -0.000161466 -1.02291 0.00119638 1.3516e-06)
(0 1.54074e-33 0 114.005 -1.40436e-17 -0.000242715 -1.00309 -8.69422e-34 -1.35119e-06)
(-6.07482e-16 -1.30083e-16 1.44789e-21 263.145 1.59816e-18 -0.000139795 -3.58398 0 -1.38809e-06)
(0 5.55991e-19 -1.92684e-22 262.176 -0.0352725 1.92684e-22 -3.5655 -0.000985844 2.11758e-22)
(-1.87058e-16 5.48022e-19 -7.1357e-22 374.569 0.00784202 -0.000134204 -1.22027 0.000835785 7.76029e-07)
(1.87058e-16 -1.64775e-15 7.1357e-22 373.786 -1.02926e-17 -0.000201793 -1.22025 0 -7.756e-07)
(0 -3.35214e-16 0 465.756 7.71081e-19 -0.000112955 2.65402 -1.0842e-19 -8.03012e-07)
(0 0 -4.45957e-22 465.218 -0.0204001 -2.22979e-22 2.65404 -0.000695636 1.05879e-22)
(1.45388e-15 -4.43688e-19 3.46631e-22 538.361 0.00699746 -0.000103042 7.3394 0.000600844 3.03686e-07)
(0 1.92593e-34 0 538.079 -1.81786e-18 -0.00015604 7.33943 0 -6.3361e-08)
(-1.26136e-16 -9.39145e-17 0 594.391 6.93889e-18 -8.11311e-05 11.7841 1.0842e-19 -3.17998e-07)
(-4.24745e-16 -6.1226e-19 0 594.331 -0.00971959 0 11.7849 -0.000516673 3.66286e-34)
(8.2678e-16 6.03485e-19 3.36766e-22 635.916 0.00632558 -7.21203e-05 12.6277 0.00046232 -3.2144e-08)
(3.30524e-15 -6.92711e-19 -7.00445e-22 636.024 7.06671e-18 -1.39328e-05 12.6311 0 5.74085e-07)
(0 -8.35963e-17 0 664.81 -6.07153e-18 -4.37474e-05 13.2626 0 3.07777e-08)
(0 2.54929e-19 0 665.028 -0.00258508 3.46099e-05 13.2676 -0.000415205 8.6893e-07)
(-2.47413e-15 -1.0051e-18 -1.63591e-21 682.577 0.00460407 -1.35664e-05 13.7045 0.000392244 -6.98406e-07)
(4.40411e-15 1.92593e-34 0 682.851 5.41746e-20 2.64221e-22 13.7103 0 2.11758e-22)
(-3.38975e-15 -8.32444e-17 6.44985e-22 690.242 -5.69048e-18 6.6503e-05 13.9605 0 1.87547e-08)
(-1.89663e-14 -3.30232e-19 -1.05669e-21 690.533 -0.00117672 -4.84957e-06 13.9664 -0.000381187 4.63498e-07)
(1.50151e-14 -3.25499e-19 -6.35741e-22 688.358 0.00293308 8.11316e-05 14.0288 0.000361106 -2.37012e-08)
(6.72767e-15 -9.62965e-35 1.23645e-21 688.639 0 9.51985e-06 14.0344 0 1.11437e-07)
(-1.58536e-14 -6.96668e-17 0 677.091 4.86325e-18 0.000104133 13.9013 5.42101e-20 1.56357e-08)
(3.18723e-14 -1.20313e-18 1.06997e-22 677.349 -0.00226461 9.44238e-06 13.9064 -0.000336215 2.79287e-07)
(-6.35164e-15 0 0 656.394 0.00245841 0.000122134 13.5673 0.00032038 -2.29827e-08)
(0 -1.11237e-16 0 656.623 4.29262e-18 7.57666e-05 13.5718 -5.42101e-20 2.20413e-07)
(-7.36951e-15 -3.0113e-17 0 626.208 4.37784e-18 0.000144673 13.0175 0 1.26391e-08)
(0 1.55852e-19 0 626.407 -0.002019 0.000125797 13.0214 -0.000297744 -1.29602e-08)
(-8.37956e-15 -9.60111e-19 -1.20014e-21 586.668 0.00203745 0.000156495 12.2491 0.000282857 -2.25158e-08)
(2.34488e-14 0 0 586.841 -3.89705e-20 0.000156816 12.2526 5.42101e-20 2.19699e-08)
(9.36548e-15 -7.93212e-17 0 538.313 -6.54175e-18 0.00016576 11.2701 5.42101e-20 9.69053e-09)
(0 6.05664e-19 0 538.463 -0.00180339 0.000165696 11.2732 -0.000265351 -9.97367e-09)
(9.78098e-15 -3.35803e-19 0 482.214 0.00172342 0.00016063 10.1024 0.000248228 -2.22813e-08)
(0 -8.66668e-34 0 482.346 3.06992e-18 0.000160929 10.1052 7.24921e-35 2.17075e-08)
(8.08749e-15 -2.19033e-17 0 420.002 3.26384e-20 0.000150077 8.78137 2.71051e-20 6.85869e-09)
(-1.92816e-14 4.78097e-19 0 420.118 -0.00157105 0.00015003 8.78382 -0.00023732 -7.09037e-09)
(1.90052e-14 -1.34123e-18 0 353.8 0.00149252 0.00012522 7.35508 0.000217176 -2.21816e-08)
(9.60091e-14 2.46519e-32 0 353.902 2.60209e-18 0.000125492 7.35727 2.71051e-20 2.15686e-08)
(-1.87328e-14 -1.70919e-17 -2.23313e-21 286.129 0 9.78208e-05 5.88255 -5.42101e-20 4.19876e-09)
(5.08639e-14 1.4292e-19 0 286.218 -0.00128819 9.77818e-05 5.88449 -0.000212273 -4.37046e-09)
(-3.17908e-14 1.02132e-18 0 219.692 0.001344 6.26187e-05 4.42697 0.000191209 -2.21336e-08)
(-5.3305e-14 -1.0784e-16 0 219.769 -2.69276e-19 6.28609e-05 4.42866 2.71051e-20 2.14652e-08)
(4.37502e-15 -1.31343e-17 3.58769e-19 157.119 -2.1684e-18 0 3.05106 0 2.06795e-25)
(-5.52979e-14 -6.24837e-19 -1.41051e-18 157.184 -0.00103789 4.91164e-07 3.05251 -0.000188696 -1.86675e-09)
(-1.79389e-14 5.4745e-19 0 100.768 0.00122986 -1.13255e-06 1.81225 0.000169964 -2.20794e-08)
(0 -3.16885e-19 0 100.823 1.90505e-18 -9.20149e-07 1.81345 0 2.13416e-08)
(-1.76817e-14 -2.20424e-17 5.4867e-19 52.5459 1.95156e-18 -2.55742e-07 0.757729 -2.71051e-20 -3.96447e-10)
(5.79215e-14 -2.02352e-19 4.59177e-41 52.5898 -0.000857844 -4.42794e-24 0.758679 -0.000166055 -3.86271e-41)
(1.50078e-13 1.46264e-18 -2.07762e-21 -1.17772e-12 0.00109873 -4.36148e-05 0 0.000152083 -2.20211e-08)
(0 0 0 0.0443041 4.15182e-20 -4.34283e-05 0.000551224 2.71051e-20 2.11913e-08)
(1.72293e-13 -1.85875e-17 0 -6.10399 -1.51788e-18 -5.20572e-05 0.0770492 0 -2.3314e-09)
(8.94911e-13 2.04784e-18 0 -6.04838 -0.000733332 -5.20857e-05 0.0763473 -0.000145006 2.46375e-09)
(0 -3.39106e-19 0 -32.848 0.000921414 -5.68114e-05 0.670504 0.000136439 -2.20047e-08)
(1.15948e-13 -9.62965e-35 0 -32.8347 1.55502e-18 -5.6643e-05 0.670046 9.45699e-35 2.106e-08)
(-2.87505e-14 3.85186e-34 0 -40.9177 1.44405e-18 -5.36658e-05 1.01463 3.58928e-35 -4.10862e-09)
(0 6.36659e-20 0 -40.9134 -0.000653439 -5.36827e-05 1.0144 -0.000126994 4.40112e-09)
(-1.42844e-14 1.41195e-19 0 -39.6555 0.000758682 -4.95205e-05 1.11258 0.000122085 -2.21254e-08)
(1.14275e-13 -3.37038e-34 0 -39.6592 -1.30104e-18 -4.93607e-05 1.11258 -3.58022e-35 2.103e-08)
(1.42354e-14 -2.06401e-17 0 -30.0803 -1.0538e-18 -4.1312e-05 0.977311 0 -5.83288e-09)
(0 5.41222e-19 0 -30.091 -0.00059333 -4.13102e-05 0.977511 -0.000111967 6.32905e-09)
(-8.03309e-14 -1.37177e-19 0 -6.93929 0.000636447 -3.44108e-05 0.629246 0.000108637 -2.24947e-08)
(0 -9.62965e-35 0 -6.97734 1.14223e-34 -3.4249e-05 0.62962 1.35525e-20 2.12077e-08)
(-1.42379e-14 -9.62965e-35 0 0.0226488 0 -2.54513e-05 0.597516 -6.85788e-35 -7.63435e-09)
(5.69518e-14 -4.80749e-19 0 1.06886e-12 -0.000526721 -2.54231e-05 0.596896 -9.91328e-05 8.38375e-09)
(-2.96937e-14 6.66364e-19 0 35.8609 0.000553334 -1.8052e-05 1.41155 9.63833e-05 -2.32464e-08)
(5.66657e-14 6.01853e-36 0 35.8376 8.67362e-19 -1.78785e-05 1.41087 1.35525e-20 2.17099e-08)
(-2.82792e-14 -1.50463e-36 0 65.5506 0 -3.05389e-06 2.30984 -1.35525e-20 -9.63886e-09)
(0 1.45958e-19 0 65.5263 -0.000442643 -1.47879e-06 2.30914 -8.76414e-05 1.07077e-08)
(-2.92549e-14 6.76173e-19 0 96.5815 0.000475571 2.01116e-06 3.25004 8.59419e-05 -2.45068e-08)
(0 -1.54476e-17 0 96.5578 -8.13152e-19 2.20488e-06 3.24937 0 2.26537e-08)
(0 -7.76795e-18 0 127.366 5.42101e-20 1.51946e-05 4.18627 0 -1.19675e-08)
(-5.70601e-14 5.38857e-19 0 127.344 -0.000370506 1.52938e-05 4.18568 -7.75262e-05 1.34342e-08)
(1.44329e-14 -6.70906e-19 0 156.283 0.00042654 2.98356e-05 5.06901 7.71274e-05 -2.63958e-08)
(5.77318e-14 0 0 156.265 0 3.00545e-05 5.06853 0 2.41356e-08)
(2.91227e-14 -1.08803e-17 0 181.715 -5.96311e-19 4.6932e-05 5.84702 0 -1.46942e-08)
(-7.31528e-14 5.51075e-19 0 181.702 -0.000352316 4.70702e-05 5.84667 -6.81112e-05 1.66602e-08)
(-2.92349e-14 6.65392e-19 0 202.131 0.000350429 6.25953e-05 6.47016 6.84504e-05 -2.89809e-08)
(5.99836e-14 1.68519e-34 0 202.123 -5.42101e-19 6.28404e-05 6.46997 1.35525e-20 2.62037e-08)
(0 -2.35928e-18 0 216.168 5.42101e-20 8.01344e-05 6.8921 -6.77626e-21 -1.78363e-08)
(0 -2.67696e-19 0 216.165 -0.000294861 8.03079e-05 6.89209 -6.03299e-05 2.0425e-08)
(-1.38338e-14 5.34315e-19 0 222.734 0.000288592 9.62767e-05 7.07434 6.11802e-05 -3.22683e-08)
(6.33567e-14 2.40741e-35 -3.29824e-21 222.736 2.71051e-20 9.65421e-05 7.07449 6.77626e-21 2.88293e-08)
(1.63418e-14 -6.90614e-18 0 221.112 -4.33681e-19 0.000113645 6.99003 0 -2.12993e-08)
(0 5.46162e-19 0 221.119 -0.000250162 0.000113844 6.99034 -5.39167e-05 2.46703e-08)
(0 5.44743e-19 0 211.051 0.000267409 0.000131377 6.62758 5.50471e-05 -3.61593e-08)
(-6.75083e-14 -7.50675e-18 0 211.062 1.30876e-20 0.000131652 6.62801 0 3.18806e-08)
(-2.6495e-14 -1.77424e-18 -3.15845e-21 192.817 4.06576e-19 0.000152907 5.99227 0 -2.48825e-08)
(0 4.04281e-19 0 192.832 -0.000196199 0.000153116 5.99282 -4.77056e-05 2.92334e-08)
(0 4.04713e-19 0 167.206 0.000265501 0.00017873 5.10812 5.04595e-05 -4.0475e-08)
(0 -7.39605e-18 -3.11318e-21 167.224 -1.8704e-21 0.000178997 5.10875 0 3.51273e-08)
(1.84697e-14 -1.35024e-18 0 135.511 0 0.000212403 4.01631 0 -2.82793e-08)
(0 -1.08627e-18 0 135.53 -0.000145543 0.000212604 4.01698 -4.11221e-05 3.38589e-08)
(1.8921e-14 5.38375e-19 0 99.4274 0.00024999 0.000253678 2.77273 4.74318e-05 -4.49717e-08)
(0 -6.79102e-18 0 99.4475 -3.52366e-19 0.000253921 2.77343 0 3.82728e-08)
(-3.85958e-14 0 0 60.9198 5.14996e-19 0.000304505 1.44343 4.99837e-36 -3.11427e-08)
(7.71912e-14 0 0 60.9398 -0.000122062 0.000304681 1.44412 -3.46596e-05 3.82534e-08)
(1.10227e-13 -1.41048e-19 0 5.58893 0.000186869 0.000361238 0.0983295 4.51512e-05 -4.94304e-08)
(0 0 0 5.62641 -2.28367e-34 0.000361442 0.0989888 6.77626e-21 4.10265e-08)
(3.54236e-13 -2.92475e-18 0 -0.0294845 -1.89735e-19 0.00042256 0.000526283 0 -3.31568e-08)
(0 -4.05493e-19 0 -0.00113306 -0.000142895 0.000422701 2.02245e-05 -3.00523e-05 4.21705e-08)
(0 5.42425e-19 0 -49.143 8.27426e-05 0.000481296 1.19409 4.21285e-05 -5.37271e-08)
(-2.39484e-14 -1.4708e-18 -1.14195e-20 -49.1272 2.80799e-19 0.000481458 1.19349 0 4.31886e-08)
(0 -2.63047e-18 0 -78.4096 7.60003e-21 0.000531408 2.37415 -3.38813e-21 -3.41249e-08)
(-2.36051e-14 -4.10837e-19 0 -78.3962 -0.00021947 0.000531515 2.37361 -2.89455e-05 4.54925e-08)
(0 5.4363e-19 0 -102.17 -1.94604e-05 0.000564784 3.39549 3.63226e-05 -5.79107e-08)
(1.25941e-13 0 -2.2189e-20 -102.159 -2.10064e-19 0.000564909 3.39503 3.33139e-34 4.47067e-08)
(-3.64839e-14 0 0 -120.096 0 0.000574218 4.2281 -3.38813e-21 -3.398e-08)
(7.29681e-14 0 0 -120.088 -0.000297684 0.000574297 4.22774 -3.15022e-05 4.82592e-08)
(1.78169e-14 -4.06897e-19 2.15575e-20 -132.361 -0.00010803 0.000551487 4.86077 2.75516e-05 -6.21844e-08)
(0 0 0 -132.355 0 0.000551584 4.86049 0 4.56699e-08)
(0 -3.881e-18 0 -139.553 2.81364e-19 0.000493886 5.30004 6.77626e-21 -3.27453e-08)
(-9.18335e-14 -1.38115e-19 0 -139.549 -0.000305282 0.000493945 5.29984 -3.7435e-05 5.06292e-08)
(-1.69648e-14 -1.08385e-18 -2.0944e-20 -142.558 -9.0506e-05 0.000400852 5.5672 1.84579e-05 -6.685e-08)
(6.78593e-14 0 0 -142.556 -2.49324e-20 0.000400931 5.56708 0 4.62394e-08)
(2.16466e-14 -2.35391e-18 0 -142.433 -2.71051e-19 0.000276719 5.69436 0 -3.04229e-08)
(-2.16466e-14 -4.07714e-19 -2.06438e-20 -142.432 -0.000225085 0.000276768 5.69429 -4.27734e-05 5.27798e-08)
(2.13363e-14 -4.0664e-19 3.04999e-19 -140.284 1.39225e-05 0.000106181 5.72024 1.26061e-05 -7.22215e-08)
(0 0 0 -140.283 -3.38813e-21 0.000105857 5.72021 2.64698e-23 4.6569e-08)
(-1.57619e-14 1.74537e-34 0 -137.129 6.3619e-19 -9.74498e-06 5.6851 -6.77626e-21 -2.6922e-08)
(0 0 -1.06635e-37 -137.129 -6.04204e-05 -3.84191e-22 5.68509 -4.39627e-05 0)
(1.06986e-14 -1.49131e-18 0 -133.816 0.000170905 -0.000189457 5.62572 1.37474e-05 -7.85829e-08)
(1.23038e-13 -1.23663e-22 0 -133.816 0 -0.0001894 5.62572 -8.91087e-07 4.6743e-08)
(0 -5.88253e-21 0 -130.967 3.08133e-19 -0.000331822 5.57237 0 -2.20056e-08)
(-2.0432e-14 -4.09195e-19 0 -130.966 9.98705e-05 -0.000331787 5.57236 -3.85818e-05 5.6774e-08)
(0 5.41975e-19 -1.92062e-20 -128.961 0.000276371 -0.000447579 5.54684 2.21863e-05 -8.61785e-08)
(0 -1.37911e-19 0 -128.96 5.42101e-20 -0.000447534 5.54681 0 4.67631e-08)
(-6.25443e-14 1.29398e-34 0 -127.942 2.38746e-19 -0.000528459 5.56157 3.99412e-36 -1.53087e-08)
(1.33701e-13 1.62806e-18 0 -127.94 0.000170735 -0.000528434 5.56151 -2.84848e-05 5.85288e-08)
(0 -1.62572e-18 0 -127.846 0.000278768 -0.000571669 5.61961 3.4535e-05 -9.52559e-08)
(1.10666e-13 0 0 -127.844 2.24499e-19 -0.00057164 5.61954 3.94925e-33 4.65718e-08)
(-1.34233e-14 0 0 -128.452 1.66582e-19 -0.000578113 5.71591 1.03972e-36 -6.37893e-09)
(0 -6.75911e-19 -9.19607e-21 -128.45 0.000133894 -0.000578103 5.71581 -1.79801e-05 5.99561e-08)
(-6.00813e-15 -1.62477e-18 0 -129.436 0.000196272 -0.000552988 5.83916 4.62858e-05 -1.06123e-07)
(1.23017e-13 0 0 -129.434 0 -0.000552977 5.83905 3.38813e-21 4.61061e-08)
(0 0 0 -130.427 -1.31529e-20 -0.000503165 5.97383 0 5.29148e-09)
(5.02713e-14 1.08385e-18 0 -130.424 4.10557e-05 -0.000503171 5.97371 -1.09247e-05 6.0933e-08)
(1.21265e-14 -5.41588e-19 0 -131.062 7.78097e-05 -0.000438443 6.10257 5.49401e-05 -1.19206e-07)
(0 0 0 -131.06 -1.42302e-19 -0.00043845 6.10245 -3.38813e-21 4.53565e-08)
(2.33618e-14 -1.62391e-19 0 -131.033 -4.79032e-19 -0.000366626 6.20894 0 2.0243e-08)
(2.85203e-14 -4.06574e-19 0 -131.031 -4.70275e-05 -0.000366648 6.20882 -9.21549e-06 6.13858e-08)
(1.79426e-14 6.78037e-19 0 -130.109 -1.53878e-06 -0.000295175 6.27857 6.07054e-05 -1.35104e-07)
(-1.79426e-14 7.49604e-36 0 -130.107 -1.35037e-20 -0.000295196 6.27847 0 4.43976e-08)
(0 -9.01691e-19 0 -128.158 -2.09093e-19 -0.000229131 6.30078 0 3.90277e-08)
(4.31813e-14 5.42219e-19 0 -128.157 -9.53828e-05 -0.000229163 6.30071 -1.12745e-05 6.1288e-08)
(2.07291e-14 -5.4237e-19 0 -125.156 -3.32763e-05 -0.000172127 6.26974 6.55445e-05 -1.54649e-07)
(0 9.62965e-35 0 -125.156 -1.15196e-19 -0.000109325 6.26969 7.5269e-35 4.33951e-08)
(2.71293e-14 -1.2445e-18 0 -121.175 -2.69558e-19 -0.000125183 6.18448 -6.77626e-21 6.22823e-08)
(3.97891e-14 1.21974e-18 3.66192e-22 -121.175 -9.84187e-05 -8.2642e-06 6.18446 -1.49404e-05 9.75485e-07)
(-8.4679e-15 -1.08415e-18 -2.01891e-21 -116.367 -2.92402e-05 -8.85532e-05 6.0485 7.19063e-05 -1.78888e-07)
(4.66537e-14 0 3.55799e-21 -116.367 -9.15828e-20 3.60572e-06 6.04851 3.20087e-34 2.20607e-07)
(-9.16399e-15 -2.89135e-19 0 -110.954 6.77626e-21 -6.1012e-05 5.86961 0 9.07147e-08)
(-3.66559e-14 4.06949e-19 -1.13728e-21 -110.955 -7.9884e-05 3.5783e-06 5.86964 -1.84548e-05 1.50741e-07)
(-2.52543e-14 -9.80724e-22 -9.80724e-22 -105.2 -1.1035e-05 -2.23411e-05 5.65911 8.12526e-05 -2.09021e-07)
(0 0 0 -105.201 -7.45389e-20 3.48685e-06 5.65916 3.75644e-35 2.17358e-07)
(-8.45543e-15 -1.7095e-19 0 -99.3879 -3.72694e-19 -1.17707e-06 5.43048 0 6.26125e-07)
(-3.38217e-14 2.71634e-19 -1.81682e-21 -99.3891 -5.95491e-05 3.46228e-06 5.43054 -2.10292e-05 1.52509e-07)
(0 -5.42151e-19 -9.52813e-22 -93.8045 4.73576e-06 5.82433e-06 5.19867 9.4142e-05 4.54473e-07)
(0 0 1.90563e-21 -93.8056 4.48892e-21 3.32409e-06 5.19873 0 2.0862e-07)
(0 -1.94652e-19 0 -88.7257 0 7.36937e-06 4.97925 -1.35525e-20 1.24405e-06)
(6.24945e-14 6.78071e-19 6.66796e-21 -88.7265 -4.30762e-05 3.31122e-06 4.9793 -2.26945e-05 1.55549e-07)
(-7.50618e-15 6.7761e-19 2.77709e-21 -84.4036 1.50239e-05 5.75209e-06 4.78774 0.000107923 1.03111e-06)
(3.00247e-14 0 1.27589e-22 -84.4039 0 3.13114e-06 4.78777 -1.28901e-36 1.94471e-07)
(-7.65401e-15 1.92593e-34 2.73729e-21 -81.0582 -5.03138e-19 9.04041e-06 4.63883 -2.47681e-34 1.551e-06)