/*--------------------------------*- C++ -*----------------------------------*\
| =========                 |                                                 |
| \\      /  F ield         | OpenFOAM: The Open Source CFD Toolbox           |
|  \\    /   O peration     | Version:  2012                                  |
|   \\  /    A nd           | Website:  www.openfoam.com                      |
|    \\/     M anipulation  |                                                 |
\*---------------------------------------------------------------------------*/
FoamFile
{
    version     2.0;
    format      ascii;
    class       volSymmTensorField;
    location    "9000";
    object      turbulenceProperties:R;
}
// * * * * * * * * * * * * * * * * * * * * * * * * * * * * * * * * * * * * * //

dimensions      [0 2 -2 0 0 0 0];


internalField   nonuniform List<symmTensor> 
2560
(
(2.91204e-07 -2.85742e-11 -4.13646e-14 2.91204e-07 4.14638e-27 2.91204e-07)
(2.91204e-07 -2.85742e-11 -4.13646e-14 2.91204e-07 3.53487e-26 2.91204e-07)
(5.27751e-08 -2.97614e-11 -1.29882e-13 5.27751e-08 7.25224e-26 5.27751e-08)
(5.27751e-08 -2.97614e-11 -1.29882e-13 5.27751e-08 1.62143e-26 5.27751e-08)
(8.50363e-08 -1.41451e-10 -8.49075e-13 8.50363e-08 6.13727e-26 8.50363e-08)
(8.50363e-08 -1.41451e-10 -8.49075e-13 8.50363e-08 3.85564e-26 8.50363e-08)
(2.71894e-07 -9.58981e-10 -5.8401e-12 2.71894e-07 1.89463e-25 2.71894e-07)
(2.71894e-07 -9.58981e-10 -5.8401e-12 2.71894e-07 2.65352e-25 2.71894e-07)
(7.00648e-07 -4.35932e-09 -2.69338e-11 7.00648e-07 9.91925e-25 7.00648e-07)
(7.00648e-07 -4.35932e-09 -2.69338e-11 7.00648e-07 1.22445e-24 7.00648e-07)
(1.49517e-06 -1.46447e-08 -9.17971e-11 1.49517e-06 3.13407e-24 1.49517e-06)
(1.49517e-06 -1.46447e-08 -9.17971e-11 1.49517e-06 4.1754e-24 1.49517e-06)
(2.80268e-06 -4.00392e-08 -2.54624e-10 2.80268e-06 8.60746e-24 2.80268e-06)
(2.80268e-06 -4.00392e-08 -2.54624e-10 2.80268e-06 1.15862e-23 2.80268e-06)
(4.79204e-06 -9.45648e-08 -6.10111e-10 4.79204e-06 2.07152e-23 4.79204e-06)
(4.79204e-06 -9.45648e-08 -6.10111e-10 4.79204e-06 2.77638e-23 4.79204e-06)
(7.65388e-06 -2.00329e-07 -1.31125e-09 7.65388e-06 4.46179e-23 7.65388e-06)
(7.65388e-06 -2.00329e-07 -1.31125e-09 7.65388e-06 5.96497e-23 7.65388e-06)
(1.16011e-05 -3.90248e-07 -2.59145e-09 1.16011e-05 8.82491e-23 1.16011e-05)
(1.16011e-05 -3.90248e-07 -2.59145e-09 1.16011e-05 1.17787e-22 1.16011e-05)
(1.68696e-05 -7.11206e-07 -4.79129e-09 1.68696e-05 1.63413e-22 1.68696e-05)
(1.68696e-05 -7.11206e-07 -4.79129e-09 1.68696e-05 2.17444e-22 1.68696e-05)
(2.37183e-05 -1.22764e-06 -8.39027e-09 2.37183e-05 2.86442e-22 2.37183e-05)
(2.37183e-05 -1.22764e-06 -8.39027e-09 2.37183e-05 3.79818e-22 2.37183e-05)
(3.243e-05 -2.02544e-06 -1.40432e-08 3.243e-05 4.79378e-22 3.243e-05)
(3.243e-05 -2.02544e-06 -1.40432e-08 3.243e-05 6.33243e-22 3.243e-05)
(4.33104e-05 -3.21609e-06 -2.26206e-08 4.33104e-05 7.71196e-22 4.33104e-05)
(4.33104e-05 -3.21609e-06 -2.26206e-08 4.33104e-05 1.01431e-21 4.33104e-05)
(5.66874e-05 -4.94078e-06 -3.52523e-08 5.66874e-05 1.19821e-21 5.66874e-05)
(5.66874e-05 -4.94078e-06 -3.52523e-08 5.66874e-05 1.56824e-21 5.66874e-05)
(7.29091e-05 -7.37413e-06 -5.33706e-08 7.29091e-05 1.80496e-21 7.29091e-05)
(7.29091e-05 -7.37413e-06 -5.33706e-08 7.29091e-05 2.34851e-21 7.29091e-05)
(9.23413e-05 -1.07272e-05 -7.87513e-08 9.23413e-05 2.64427e-21 9.23413e-05)
(9.23413e-05 -1.07272e-05 -7.87513e-08 9.23413e-05 3.41626e-21 9.23413e-05)
(0.000115362 -1.52492e-05 -1.13546e-07 0.000115362 3.77233e-21 0.000115362)
(0.000115362 -1.52492e-05 -1.13546e-07 0.000115362 4.83679e-21 0.000115362)
(0.000142358 -2.12269e-05 -1.60303e-07 0.000142358 5.24725e-21 0.000142358)
(0.000142358 -2.12269e-05 -1.60303e-07 0.000142358 6.67067e-21 0.000142358)
(0.000173712 -2.8982e-05 -2.21964e-07 0.000173712 7.13012e-21 0.000173712)
(0.000173712 -2.8982e-05 -2.21964e-07 0.000173712 8.97021e-21 0.000173712)
(0.000209799 -3.88645e-05 -3.01837e-07 0.000209799 9.47013e-21 0.000209799)
(0.000209799 -3.88645e-05 -3.01837e-07 0.000209799 1.17676e-20 0.000209799)
(0.00025097 -5.12428e-05 -4.03536e-07 0.00025097 1.2287e-20 0.00025097)
(0.00025097 -5.12428e-05 -4.03536e-07 0.00025097 1.50561e-20 0.00025097)
(0.000297542 -6.64899e-05 -5.30883e-07 0.000297542 1.55833e-20 0.000297542)
(0.000297542 -6.64899e-05 -5.30883e-07 0.000297542 1.87792e-20 0.000297542)
(0.000349781 -8.49655e-05 -6.87769e-07 0.000349781 1.93248e-20 0.000349781)
(0.000349781 -8.49655e-05 -6.87769e-07 0.000349781 2.28152e-20 0.000349781)
(0.000407889 -0.000106996 -8.77991e-07 0.000407889 2.34186e-20 0.000407889)
(0.000407889 -0.000106996 -8.77991e-07 0.000407889 2.69739e-20 0.000407889)
(0.000471991 -0.000132853 -1.10506e-06 0.000471991 2.77217e-20 0.000471991)
(0.000471991 -0.000132853 -1.10506e-06 0.000471991 3.09993e-20 0.000471991)
(0.000542119 -0.000162733 -1.37199e-06 0.000542119 3.20651e-20 0.000542119)
(0.000542119 -0.000162733 -1.37199e-06 0.000542119 3.45576e-20 0.000542119)
(0.000618206 -0.000196738 -1.68114e-06 0.000618206 3.62279e-20 0.000618206)
(0.000618206 -0.000196738 -1.68114e-06 0.000618206 3.72578e-20 0.000618206)
(0.000700079 -0.000234866 -2.03405e-06 0.000700079 3.99524e-20 0.000700079)
(0.000700079 -0.000234866 -2.03405e-06 0.000700079 3.86931e-20 0.000700079)
(0.000787461 -0.000277001 -2.43133e-06 0.000787461 4.29878e-20 0.000787461)
(0.000787461 -0.000277001 -2.43133e-06 0.000787461 3.84997e-20 0.000787461)
(0.00087997 -0.000322918 -2.87261e-06 0.00087997 4.51136e-20 0.00087997)
(0.00087997 -0.000322918 -2.87261e-06 0.00087997 3.63746e-20 0.00087997)
(0.000977138 -0.000372292 -3.35659e-06 0.000977138 4.62731e-20 0.000977138)
(0.000977138 -0.000372292 -3.35659e-06 0.000977138 3.21173e-20 0.000977138)
(0.00107842 -0.000424712 -3.88112e-06 0.00107842 4.63131e-20 0.00107842)
(0.00107842 -0.000424712 -3.88112e-06 0.00107842 2.56769e-20 0.00107842)
(0.0011832 -0.000479704 -4.44332e-06 0.0011832 4.49503e-20 0.0011832)
(0.0011832 -0.000479704 -4.44332e-06 0.0011832 1.708e-20 0.0011832)
(0.00129084 -0.000536755 -5.03976e-06 0.00129084 4.24952e-20 0.00129084)
(0.00129084 -0.000536755 -5.03976e-06 0.00129084 2.91064e-21 0.00129084)
(0.00140067 -0.000595332 -5.66663e-06 0.00140067 3.89224e-20 0.00140067)
(0.00140067 -0.000595332 -5.66663e-06 0.00140067 -2.80434e-21 0.00140067)
(0.00151203 -0.000654908 -6.31995e-06 0.00151203 3.43778e-20 0.00151203)
(0.00151203 -0.000654908 -6.31995e-06 0.00151203 -2.02331e-20 0.00151203)
(0.00162427 -0.000714982 -6.9957e-06 0.00162427 2.96159e-20 0.00162427)
(0.00162427 -0.000714982 -6.9957e-06 0.00162427 -3.53953e-20 0.00162427)
(0.00173677 -0.000775087 -7.68999e-06 0.00173677 2.4429e-20 0.00173677)
(0.00173677 -0.000775087 -7.68999e-06 0.00173677 -5.11208e-20 0.00173677)
(0.00184897 -0.000834804 -8.39914e-06 0.00184897 1.94749e-20 0.00184897)
(0.00184897 -0.000834804 -8.39914e-06 0.00184897 -6.70428e-20 0.00184897)
(0.00196033 -0.000893771 -9.1198e-06 0.00196033 1.47511e-20 0.00196033)
(0.00196033 -0.000893771 -9.1198e-06 0.00196033 -8.26535e-20 0.00196033)
(0.0020704 -0.000951678 -9.84895e-06 0.0020704 1.01082e-20 0.0020704)
(0.0020704 -0.000951678 -9.84895e-06 0.0020704 -9.74499e-20 0.0020704)
(0.00217876 -0.00100827 -1.0584e-05 0.00217876 6.42726e-21 0.00217876)
(0.00217876 -0.00100827 -1.0584e-05 0.00217876 -1.11128e-19 0.00217876)
(0.00228509 -0.00106335 -1.13225e-05 0.00228509 3.85063e-21 0.00228509)
(0.00228509 -0.00106335 -1.13225e-05 0.00228509 -1.2366e-19 0.00228509)
(0.00238909 -0.00111676 -1.20628e-05 0.00238909 1.73796e-21 0.00238909)
(0.00238909 -0.00111676 -1.20628e-05 0.00238909 -1.34805e-19 0.00238909)
(0.00249052 -0.00116839 -1.28032e-05 0.00249052 1.23805e-21 0.00249052)
(0.00249052 -0.00116839 -1.28032e-05 0.00249052 -1.4444e-19 0.00249052)
(0.0025892 -0.00121816 -1.35425e-05 0.0025892 2.89578e-21 0.0025892)
(0.0025892 -0.00121816 -1.35425e-05 0.0025892 -1.51861e-19 0.0025892)
(0.002685 -0.00126604 -1.42797e-05 0.002685 4.94447e-21 0.002685)
(0.002685 -0.00126604 -1.42797e-05 0.002685 -1.5725e-19 0.002685)
(0.00277782 -0.00131201 -1.50142e-05 0.00277782 8.51039e-21 0.00277782)
(0.00277782 -0.00131201 -1.50142e-05 0.00277782 -1.61037e-19 0.00277782)
(0.00286759 -0.00135606 -1.57452e-05 0.00286759 1.37019e-20 0.00286759)
(0.00286759 -0.00135606 -1.57452e-05 0.00286759 -1.62784e-19 0.00286759)
(0.00295428 -0.00139823 -1.64727e-05 0.00295428 2.04843e-20 0.00295428)
(0.00295428 -0.00139823 -1.64727e-05 0.00295428 -1.62042e-19 0.00295428)
(0.00303789 -0.00143855 -1.71963e-05 0.00303789 2.88025e-20 0.00303789)
(0.00303789 -0.00143855 -1.71963e-05 0.00303789 -1.59096e-19 0.00303789)
(0.00311842 -0.00147706 -1.79159e-05 0.00311842 3.82251e-20 0.00311842)
(0.00311842 -0.00147706 -1.79159e-05 0.00311842 -1.54537e-19 0.00311842)
(0.00319593 -0.00151383 -1.86318e-05 0.00319593 4.89935e-20 0.00319593)
(0.00319593 -0.00151383 -1.86318e-05 0.00319593 -1.48227e-19 0.00319593)
(0.00327045 -0.0015489 -1.93439e-05 0.00327045 6.0308e-20 0.00327045)
(0.00327045 -0.0015489 -1.93439e-05 0.00327045 -1.40053e-19 0.00327045)
(0.00334204 -0.00158235 -2.00524e-05 0.00334204 7.29993e-20 0.00334204)
(0.00334204 -0.00158235 -2.00524e-05 0.00334204 -1.30066e-19 0.00334204)
(0.00341077 -0.00161423 -2.07576e-05 0.00341077 8.81163e-20 0.00341077)
(0.00341077 -0.00161423 -2.07576e-05 0.00341077 -1.17756e-19 0.00341077)
(0.00347672 -0.00164461 -2.14598e-05 0.00347672 1.03696e-19 0.00347672)
(0.00347672 -0.00164461 -2.14598e-05 0.00347672 -1.04129e-19 0.00347672)
(0.00353997 -0.00167356 -2.21593e-05 0.00353997 1.20761e-19 0.00353997)
(0.00353997 -0.00167356 -2.21593e-05 0.00353997 -8.95519e-20 0.00353997)
(0.0036006 -0.00170114 -2.28564e-05 0.0036006 1.38916e-19 0.0036006)
(0.0036006 -0.00170114 -2.28564e-05 0.0036006 -7.17384e-20 0.0036006)
(0.0036587 -0.00172742 -2.35514e-05 0.0036587 1.58001e-19 0.0036587)
(0.0036587 -0.00172742 -2.35514e-05 0.0036587 -5.15061e-20 0.0036587)
(0.00371436 -0.00175245 -2.42448e-05 0.00371436 1.74732e-19 0.00371436)
(0.00371436 -0.00175245 -2.42448e-05 0.00371436 -3.30439e-20 0.00371436)
(0.00376767 -0.00177629 -2.49368e-05 0.00376767 1.91974e-19 0.00376767)
(0.00376767 -0.00177629 -2.49368e-05 0.00376767 -1.53861e-20 0.00376767)
(0.0038187 -0.00179901 -2.56279e-05 0.0038187 2.15745e-19 0.0038187)
(0.0038187 -0.00179901 -2.56279e-05 0.0038187 4.92304e-21 0.0038187)
(0.00386755 -0.00182065 -2.63183e-05 0.00386755 2.38909e-19 0.00386755)
(0.00386755 -0.00182065 -2.63183e-05 0.00386755 2.67086e-20 0.00386755)
(0.00391431 -0.00184127 -2.70085e-05 0.00391431 2.62358e-19 0.00391431)
(0.00391431 -0.00184127 -2.70085e-05 0.00391431 4.8394e-20 0.00391431)
(0.00395904 -0.00186092 -2.76988e-05 0.00395904 2.87379e-19 0.00395904)
(0.00395904 -0.00186092 -2.76988e-05 0.00395904 7.09088e-20 0.00395904)
(0.00400184 -0.00187965 -2.83895e-05 0.00400184 3.12821e-19 0.00400184)
(0.00400184 -0.00187965 -2.83895e-05 0.00400184 9.50659e-20 0.00400184)
(0.00404278 -0.00189749 -2.90809e-05 0.00404278 3.39659e-19 0.00404278)
(0.00404278 -0.00189749 -2.90809e-05 0.00404278 1.19868e-19 0.00404278)
(0.00408193 -0.0019145 -2.97734e-05 0.00408193 3.6655e-19 0.00408193)
(0.00408193 -0.0019145 -2.97734e-05 0.00408193 1.4401e-19 0.00408193)
(0.00411936 -0.0019307 -3.04673e-05 0.00411936 3.9946e-19 0.00411936)
(0.00411936 -0.0019307 -3.04673e-05 0.00411936 1.70836e-19 0.00411936)
(0.00415516 -0.00194615 -3.1163e-05 0.00415516 4.25671e-19 0.00415516)
(0.00415516 -0.00194615 -3.1163e-05 0.00415516 2.00601e-19 0.00415516)
(0.00418937 -0.00196087 -3.18606e-05 0.00418937 4.55286e-19 0.00418937)
(0.00418937 -0.00196087 -3.18606e-05 0.00418937 2.2871e-19 0.00418937)
(0.00422207 -0.00197491 -3.25605e-05 0.00422207 4.9701e-19 0.00422207)
(0.00422207 -0.00197491 -3.25605e-05 0.00422207 2.5621e-19 0.00422207)
(0.00425331 -0.00198828 -3.32629e-05 0.00425331 5.18744e-19 0.00425331)
(0.00425331 -0.00198828 -3.32629e-05 0.00425331 2.84551e-19 0.00425331)
(0.00428316 -0.00200103 -3.39682e-05 0.00428316 5.58291e-19 0.00428316)
(0.00428316 -0.00200103 -3.39682e-05 0.00428316 3.1482e-19 0.00428316)
(0.00431167 -0.00201318 -3.46766e-05 0.00431167 5.99778e-19 0.00431167)
(0.00431167 -0.00201318 -3.46766e-05 0.00431167 3.42448e-19 0.00431167)
(0.00433889 -0.00202475 -3.53884e-05 0.00433889 6.38375e-19 0.00433889)
(0.00433889 -0.00202475 -3.53884e-05 0.00433889 3.70975e-19 0.00433889)
(0.00436487 -0.00203578 -3.61037e-05 0.00436487 6.64452e-19 0.00436487)
(0.00436487 -0.00203578 -3.61037e-05 0.00436487 4.04521e-19 0.00436487)
(0.00438967 -0.00204629 -3.68229e-05 0.00438967 6.96048e-19 0.00438967)
(0.00438967 -0.00204629 -3.68229e-05 0.00438967 4.38586e-19 0.00438967)
(0.00441333 -0.00205629 -3.75462e-05 0.00441333 7.35084e-19 0.00441333)
(0.00441333 -0.00205629 -3.75462e-05 0.00441333 4.70427e-19 0.00441333)
(0.00443588 -0.00206582 -3.82737e-05 0.00443588 7.76102e-19 0.00443588)
(0.00443588 -0.00206582 -3.82737e-05 0.00443588 5.04088e-19 0.00443588)
(0.00445738 -0.00207488 -3.90057e-05 0.00445738 8.13713e-19 0.00445738)
(0.00445738 -0.00207488 -3.90057e-05 0.00445738 5.40928e-19 0.00445738)
(0.00447787 -0.00208351 -3.97425e-05 0.00447787 8.52584e-19 0.00447787)
(0.00447787 -0.00208351 -3.97425e-05 0.00447787 5.81292e-19 0.00447787)
(0.00449738 -0.00209171 -4.04842e-05 0.00449738 9.03767e-19 0.00449738)
(0.00449738 -0.00209171 -4.04842e-05 0.00449738 6.26208e-19 0.00449738)
(0.00451595 -0.00209951 -4.12309e-05 0.00451595 9.48599e-19 0.00451595)
(0.00451595 -0.00209951 -4.12309e-05 0.00451595 6.59904e-19 0.00451595)
(0.00453361 -0.00210691 -4.1983e-05 0.00453361 9.75644e-19 0.00453361)
(0.00453361 -0.00210691 -4.1983e-05 0.00453361 6.95159e-19 0.00453361)
(0.00455039 -0.00211395 -4.27406e-05 0.00455039 1.01831e-18 0.00455039)
(0.00455039 -0.00211395 -4.27406e-05 0.00455039 7.29192e-19 0.00455039)
(0.00456634 -0.00212062 -4.35039e-05 0.00456634 1.06264e-18 0.00456634)
(0.00456634 -0.00212062 -4.35039e-05 0.00456634 7.57981e-19 0.00456634)
(0.00458147 -0.00212695 -4.42731e-05 0.00458147 1.09843e-18 0.00458147)
(0.00458147 -0.00212695 -4.42731e-05 0.00458147 7.98623e-19 0.00458147)
(0.00459582 -0.00213295 -4.50483e-05 0.00459582 1.13798e-18 0.00459582)
(0.00459582 -0.00213295 -4.50483e-05 0.00459582 8.41051e-19 0.00459582)
(0.00460941 -0.00213862 -4.58297e-05 0.00460941 1.17978e-18 0.00460941)
(0.00460941 -0.00213862 -4.58297e-05 0.00460941 8.81876e-19 0.00460941)
(0.00462227 -0.00214399 -4.66175e-05 0.00462227 1.21748e-18 0.00462227)
(0.00462227 -0.00214399 -4.66175e-05 0.00462227 9.27107e-19 0.00462227)
(0.00463443 -0.00214905 -4.74118e-05 0.00463443 1.25892e-18 0.00463443)
(0.00463443 -0.00214905 -4.74118e-05 0.00463443 9.7819e-19 0.00463443)
(0.0046459 -0.00215383 -4.82128e-05 0.0046459 1.29635e-18 0.0046459)
(0.0046459 -0.00215383 -4.82128e-05 0.0046459 1.03408e-18 0.0046459)
(0.00465672 -0.00215833 -4.90207e-05 0.00465672 1.32671e-18 0.00465672)
(0.00465672 -0.00215833 -4.90207e-05 0.00465672 1.09564e-18 0.00465672)
(0.00466689 -0.00216256 -4.98356e-05 0.00466689 1.37282e-18 0.00466689)
(0.00466689 -0.00216256 -4.98356e-05 0.00466689 1.16249e-18 0.00466689)
(0.00467646 -0.00216654 -5.06576e-05 0.00467646 1.41532e-18 0.00467646)
(0.00467646 -0.00216654 -5.06576e-05 0.00467646 1.22392e-18 0.00467646)
(0.00468542 -0.00217026 -5.1487e-05 0.00468542 1.45076e-18 0.00468542)
(0.00468542 -0.00217026 -5.1487e-05 0.00468542 1.27405e-18 0.00468542)
(0.0046938 -0.00217374 -5.23239e-05 0.0046938 1.47978e-18 0.0046938)
(0.0046938 -0.00217374 -5.23239e-05 0.0046938 1.33188e-18 0.0046938)
(0.00470163 -0.00217698 -5.31683e-05 0.00470163 1.51438e-18 0.00470163)
(0.00470163 -0.00217698 -5.31683e-05 0.00470163 1.39302e-18 0.00470163)
(0.00470891 -0.00217999 -5.40205e-05 0.00470891 1.55882e-18 0.00470891)
(0.00470891 -0.00217999 -5.40205e-05 0.00470891 1.45844e-18 0.00470891)
(0.00471566 -0.00218279 -5.48806e-05 0.00471566 1.28551e-18 0.00471566)
(0.00471566 -0.00218279 -5.48806e-05 0.00471566 1.53717e-18 0.00471566)
(0.0047219 -0.00218537 -5.57487e-05 0.0047219 2.45105e-20 0.0047219)
(0.0047219 -0.00218537 -5.57487e-05 0.0047219 1.60749e-18 0.0047219)
(0.00472765 -0.00218774 -5.66249e-05 0.00472765 -2.63281e-18 0.00472765)
(0.00472765 -0.00218774 -5.66249e-05 0.00472765 1.68193e-18 0.00472765)
(0.00473291 -0.00218991 -5.75095e-05 0.00473291 -2.69851e-18 0.00473291)
(0.00473291 -0.00218991 -5.75095e-05 0.00473291 1.74318e-18 0.00473291)
(0.00473771 -0.00219188 -5.84025e-05 0.00473771 -2.6895e-18 0.00473771)
(0.00473771 -0.00219188 -5.84025e-05 0.00473771 1.45725e-18 0.00473771)
(0.00474205 -0.00219367 -5.93041e-05 0.00474205 -2.73256e-18 0.00474205)
(0.00474205 -0.00219367 -5.93041e-05 0.00474205 1.20024e-18 0.00474205)
(0.00474595 -0.00219527 -6.02143e-05 0.00474595 -2.8069e-18 0.00474595)
(0.00474595 -0.00219527 -6.02143e-05 0.00474595 1.27463e-18 0.00474595)
(0.00474943 -0.00219668 -6.11334e-05 0.00474943 -2.81815e-18 0.00474943)
(0.00474943 -0.00219668 -6.11334e-05 0.00474943 1.2955e-18 0.00474943)
(0.00475248 -0.00219792 -6.20614e-05 0.00475248 -2.8397e-18 0.00475248)
(0.00475248 -0.00219792 -6.20614e-05 0.00475248 1.26907e-18 0.00475248)
(0.00475513 -0.002199 -6.29985e-05 0.00475513 -2.90563e-18 0.00475513)
(0.00475513 -0.002199 -6.29985e-05 0.00475513 1.32614e-18 0.00475513)
(0.00475738 -0.0021999 -6.39448e-05 0.00475738 -2.93669e-18 0.00475738)
(0.00475738 -0.0021999 -6.39448e-05 0.00475738 1.41521e-18 0.00475738)
(0.00475924 -0.00220064 -6.49005e-05 0.00475924 -2.93685e-18 0.00475924)
(0.00475924 -0.00220064 -6.49005e-05 0.00475924 1.41e-18 0.00475924)
(0.00476073 -0.00220123 -6.58655e-05 0.00476073 -2.92879e-18 0.00476073)
(0.00476073 -0.00220123 -6.58655e-05 0.00476073 1.47103e-18 0.00476073)
(0.00476186 -0.00220166 -6.68402e-05 0.00476186 -2.96827e-18 0.00476186)
(0.00476186 -0.00220166 -6.68402e-05 0.00476186 1.51449e-18 0.00476186)
(0.00476263 -0.00220194 -6.78245e-05 0.00476263 -3.03768e-18 0.00476263)
(0.00476263 -0.00220194 -6.78245e-05 0.00476263 1.54944e-18 0.00476263)
(0.00476305 -0.00220207 -6.88187e-05 0.00476305 -3.11539e-18 0.00476305)
(0.00476305 -0.00220207 -6.88187e-05 0.00476305 1.56429e-18 0.00476305)
(0.00476313 -0.00220206 -6.98228e-05 0.00476313 -3.18251e-18 0.00476313)
(0.00476313 -0.00220206 -6.98228e-05 0.00476313 1.49257e-18 0.00476313)
(0.00476287 -0.00220191 -7.0837e-05 0.00476287 -3.21566e-18 0.00476287)
(0.00476287 -0.00220191 -7.0837e-05 0.00476287 1.58113e-18 0.00476287)
(0.0047623 -0.00220163 -7.18613e-05 0.0047623 -3.34849e-18 0.0047623)
(0.0047623 -0.00220163 -7.18613e-05 0.0047623 1.72654e-18 0.0047623)
(0.00476141 -0.00220121 -7.28959e-05 0.00476141 -3.44473e-18 0.00476141)
(0.00476141 -0.00220121 -7.28959e-05 0.00476141 1.80579e-18 0.00476141)
(0.00476021 -0.00220066 -7.39409e-05 0.00476021 -3.4022e-18 0.00476021)
(0.00476021 -0.00220066 -7.39409e-05 0.00476021 1.71654e-18 0.00476021)
(0.00475871 -0.00219998 -7.49965e-05 0.00475871 -3.35116e-18 0.00475871)
(0.00475871 -0.00219998 -7.49965e-05 0.00475871 1.71398e-18 0.00475871)
(0.00475692 -0.00219917 -7.60627e-05 0.00475692 -3.44184e-18 0.00475692)
(0.00475692 -0.00219917 -7.60627e-05 0.00475692 1.80773e-18 0.00475692)
(0.00475483 -0.00219824 -7.71396e-05 0.00475483 -3.47116e-18 0.00475483)
(0.00475483 -0.00219824 -7.71396e-05 0.00475483 1.75045e-18 0.00475483)
(0.00475247 -0.00219719 -7.82275e-05 0.00475247 -3.46571e-18 0.00475247)
(0.00475247 -0.00219719 -7.82275e-05 0.00475247 1.71913e-18 0.00475247)
(0.00474983 -0.00219603 -7.93263e-05 0.00474983 -3.41285e-18 0.00474983)
(0.00474983 -0.00219603 -7.93263e-05 0.00474983 1.80162e-18 0.00474983)
(0.00474692 -0.00219475 -8.04362e-05 0.00474692 -3.48766e-18 0.00474692)
(0.00474692 -0.00219475 -8.04362e-05 0.00474692 2.03937e-18 0.00474692)
(0.00474374 -0.00219335 -8.15573e-05 0.00474374 -3.52852e-18 0.00474374)
(0.00474374 -0.00219335 -8.15573e-05 0.00474374 2.11323e-18 0.00474374)
(0.00474031 -0.00219184 -8.26897e-05 0.00474031 -3.49757e-18 0.00474031)
(0.00474031 -0.00219184 -8.26897e-05 0.00474031 1.93693e-18 0.00474031)
(0.00473662 -0.00219023 -8.38335e-05 0.00473662 -3.54312e-18 0.00473662)
(0.00473662 -0.00219023 -8.38335e-05 0.00473662 1.77147e-18 0.00473662)
(0.00473269 -0.00218851 -8.49889e-05 0.00473269 -3.44765e-18 0.00473269)
(0.00473269 -0.00218851 -8.49889e-05 0.00473269 1.99956e-18 0.00473269)
(0.00472851 -0.00218668 -8.6156e-05 0.00472851 -3.50747e-18 0.00472851)
(0.00472851 -0.00218668 -8.6156e-05 0.00472851 2.17469e-18 0.00472851)
(0.00472409 -0.00218475 -8.73348e-05 0.00472409 -3.6272e-18 0.00472409)
(0.00472409 -0.00218475 -8.73348e-05 0.00472409 2.0519e-18 0.00472409)
(0.00471944 -0.00218271 -8.85255e-05 0.00471944 -3.54378e-18 0.00471944)
(0.00471944 -0.00218271 -8.85255e-05 0.00471944 2.12569e-18 0.00471944)
(0.00471456 -0.00218058 -8.97281e-05 0.00471456 -3.48787e-18 0.00471456)
(0.00471456 -0.00218058 -8.97281e-05 0.00471456 2.36641e-18 0.00471456)
(0.00470945 -0.00217835 -9.09428e-05 0.00470945 -3.3525e-18 0.00470945)
(0.00470945 -0.00217835 -9.09428e-05 0.00470945 2.36489e-18 0.00470945)
(0.00470412 -0.00217602 -9.21697e-05 0.00470412 -3.26006e-18 0.00470412)
(0.00470412 -0.00217602 -9.21697e-05 0.00470412 2.15999e-18 0.00470412)
(0.00469857 -0.0021736 -9.34089e-05 0.00469857 -3.51186e-18 0.00469857)
(0.00469857 -0.0021736 -9.34089e-05 0.00469857 2.5338e-18 0.00469857)
(0.00469281 -0.00217108 -9.46605e-05 0.00469281 -3.57012e-18 0.00469281)
(0.00469281 -0.00217108 -9.46605e-05 0.00469281 2.88306e-18 0.00469281)
(0.00468684 -0.00216848 -9.59246e-05 0.00468684 -3.49715e-18 0.00468684)
(0.00468684 -0.00216848 -9.59246e-05 0.00468684 2.64469e-18 0.00468684)
(0.00468067 -0.00216578 -9.72013e-05 0.00468067 -3.56332e-18 0.00468067)
(0.00468067 -0.00216578 -9.72013e-05 0.00468067 2.71234e-18 0.00468067)
(0.00467429 -0.00216299 -9.84907e-05 0.00467429 -3.53208e-18 0.00467429)
(0.00467429 -0.00216299 -9.84907e-05 0.00467429 2.93766e-18 0.00467429)
(0.00466771 -0.00216011 -9.97929e-05 0.00466771 -3.3802e-18 0.00466771)
(0.00466771 -0.00216011 -9.97929e-05 0.00466771 2.84431e-18 0.00466771)
(0.00466093 -0.00215715 -0.000101108 0.00466093 -2.23553e-18 0.00466093)
(0.00466093 -0.00215715 -0.000101108 0.00466093 2.89397e-18 0.00466093)
(0.00465396 -0.0021541 -0.000102436 0.00465396 7.56262e-20 0.00465396)
(0.00465396 -0.0021541 -0.000102436 0.00465396 3.02624e-18 0.00465396)
(0.0046468 -0.00215096 -0.000103777 0.0046468 4.46985e-19 0.0046468)
(0.0046468 -0.00215096 -0.000103777 0.0046468 3.09818e-18 0.0046468)
(0.00463945 -0.00214775 -0.000105131 0.00463945 4.71638e-19 0.00463945)
(0.00463945 -0.00214775 -0.000105131 0.00463945 3.30976e-18 0.00463945)
(0.00463192 -0.00214445 -0.000106499 0.00463192 3.40752e-19 0.00463192)
(0.00463192 -0.00214445 -0.000106499 0.00463192 3.65211e-18 0.00463192)
(0.0046242 -0.00214106 -0.00010788 0.0046242 1.46136e-19 0.0046242)
(0.0046242 -0.00214106 -0.00010788 0.0046242 3.76198e-18 0.0046242)
(0.00461631 -0.0021376 -0.000109274 0.00461631 4.33269e-19 0.00461631)
(0.00461631 -0.0021376 -0.000109274 0.00461631 3.81153e-18 0.00461631)
(0.00460824 -0.00213406 -0.000110682 0.00460824 8.17285e-19 0.00460824)
(0.00460824 -0.00213406 -0.000110682 0.00460824 3.76269e-18 0.00460824)
(0.00459999 -0.00213044 -0.000112104 0.00459999 8.11533e-19 0.00459999)
(0.00459999 -0.00213044 -0.000112104 0.00459999 3.45634e-18 0.00459999)
(0.00459157 -0.00212674 -0.000113539 0.00459157 4.6909e-19 0.00459157)
(0.00459157 -0.00212674 -0.000113539 0.00459157 3.36844e-18 0.00459157)
(0.00458299 -0.00212296 -0.000114988 0.00458299 1.27048e-19 0.00458299)
(0.00458299 -0.00212296 -0.000114988 0.00458299 3.4818e-18 0.00458299)
(0.00457423 -0.00211911 -0.000116451 0.00457423 1.93906e-19 0.00457423)
(0.00457423 -0.00211911 -0.000116451 0.00457423 3.36303e-18 0.00457423)
(0.00456531 -0.00211518 -0.000117928 0.00456531 4.62649e-19 0.00456531)
(0.00456531 -0.00211518 -0.000117928 0.00456531 2.69803e-18 0.00456531)
(0.00455622 -0.00211117 -0.000119419 0.00455622 7.85542e-19 0.00455622)
(0.00455622 -0.00211117 -0.000119419 0.00455622 2.49524e-18 0.00455622)
(0.00454697 -0.0021071 -0.000120924 0.00454697 9.74492e-19 0.00454697)
(0.00454697 -0.0021071 -0.000120924 0.00454697 2.94105e-18 0.00454697)
(0.00453756 -0.00210294 -0.000122443 0.00453756 1.8108e-18 0.00453756)
(0.00453756 -0.00210294 -0.000122443 0.00453756 3.12906e-18 0.00453756)
(0.00452799 -0.00209872 -0.000123976 0.00452799 3.83969e-18 0.00452799)
(0.00452799 -0.00209872 -0.000123976 0.00452799 3.17429e-18 0.00452799)
(0.00451827 -0.00209442 -0.000125524 0.00451827 2.67455e-18 0.00451827)
(0.00451827 -0.00209442 -0.000125524 0.00451827 2.73142e-18 0.00451827)
(0.00450838 -0.00209005 -0.000127086 0.00450838 9.14646e-19 0.00450838)
(0.00450838 -0.00209005 -0.000127086 0.00450838 2.679e-18 0.00450838)
(0.00449835 -0.00208561 -0.000128662 0.00449835 3.6965e-19 0.00449835)
(0.00449835 -0.00208561 -0.000128662 0.00449835 2.86824e-18 0.00449835)
(0.00448816 -0.00208109 -0.000130253 0.00448816 2.13358e-19 0.00448816)
(0.00448816 -0.00208109 -0.000130253 0.00448816 2.3029e-18 0.00448816)
(0.00447782 -0.00207651 -0.000131858 0.00447782 4.00893e-19 0.00447782)
(0.00447782 -0.00207651 -0.000131858 0.00447782 1.92218e-18 0.00447782)
(0.00446733 -0.00207186 -0.000133478 0.00446733 1.59461e-19 0.00446733)
(0.00446733 -0.00207186 -0.000133478 0.00446733 2.18357e-18 0.00446733)
(0.0044567 -0.00206713 -0.000135112 0.0044567 9.77754e-20 0.0044567)
(0.0044567 -0.00206713 -0.000135112 0.0044567 2.04025e-18 0.0044567)
(0.00444591 -0.00206234 -0.000136761 0.00444591 -4.7e-19 0.00444591)
(0.00444591 -0.00206234 -0.000136761 0.00444591 1.60336e-18 0.00444591)
(0.00443498 -0.00205747 -0.000138425 0.00443498 4.03262e-19 0.00443498)
(0.00443498 -0.00205747 -0.000138425 0.00443498 1.80794e-18 0.00443498)
(0.0044239 -0.00205254 -0.000140103 0.0044239 2.07676e-18 0.0044239)
(0.0044239 -0.00205254 -0.000140103 0.0044239 1.81468e-18 0.0044239)
(0.00441268 -0.00204754 -0.000141796 0.00441268 2.06116e-18 0.00441268)
(0.00441268 -0.00204754 -0.000141796 0.00441268 1.4886e-18 0.00441268)
(0.00440131 -0.00204247 -0.000143504 0.00440131 1.84758e-18 0.00440131)
(0.00440131 -0.00204247 -0.000143504 0.00440131 1.53771e-18 0.00440131)
(0.0043898 -0.00203733 -0.000145227 0.0043898 2.15838e-18 0.0043898)
(0.0043898 -0.00203733 -0.000145227 0.0043898 1.68648e-18 0.0043898)
(0.00437815 -0.00203212 -0.000146964 0.00437815 2.01771e-18 0.00437815)
(0.00437815 -0.00203212 -0.000146964 0.00437815 1.74834e-18 0.00437815)
(0.00436636 -0.00202685 -0.000148716 0.00436636 2.05897e-18 0.00436636)
(0.00436636 -0.00202685 -0.000148716 0.00436636 1.49835e-18 0.00436636)
(0.00435442 -0.0020215 -0.000150482 0.00435442 2.19052e-18 0.00435442)
(0.00435442 -0.0020215 -0.000150482 0.00435442 1.50007e-18 0.00435442)
(0.00434235 -0.00201609 -0.000152264 0.00434235 2.93505e-18 0.00434235)
(0.00434235 -0.00201609 -0.000152264 0.00434235 1.99349e-18 0.00434235)
(0.00433013 -0.00201061 -0.00015406 0.00433013 3.17684e-18 0.00433013)
(0.00433013 -0.00201061 -0.00015406 0.00433013 2.77628e-18 0.00433013)
(0.00431778 -0.00200506 -0.000155871 0.00431778 2.91589e-18 0.00431778)
(0.00431778 -0.00200506 -0.000155871 0.00431778 3.72605e-18 0.00431778)
(0.00430529 -0.00199945 -0.000157696 0.00430529 2.85007e-18 0.00430529)
(0.00430529 -0.00199945 -0.000157696 0.00430529 4.21056e-18 0.00430529)
(0.00429265 -0.00199376 -0.000159536 0.00429265 2.86476e-18 0.00429265)
(0.00429265 -0.00199376 -0.000159536 0.00429265 4.36981e-18 0.00429265)
(0.00427988 -0.00198801 -0.000161391 0.00427988 2.27681e-18 0.00427988)
(0.00427988 -0.00198801 -0.000161391 0.00427988 4.84886e-18 0.00427988)
(0.00426698 -0.00198219 -0.00016326 0.00426698 2.48879e-18 0.00426698)
(0.00426698 -0.00198219 -0.00016326 0.00426698 4.97113e-18 0.00426698)
(0.00425393 -0.0019763 -0.000165144 0.00425393 2.75309e-18 0.00425393)
(0.00425393 -0.0019763 -0.000165144 0.00425393 4.70312e-18 0.00425393)
(0.00424074 -0.00197034 -0.000167042 0.00424074 2.14991e-18 0.00424074)
(0.00424074 -0.00197034 -0.000167042 0.00424074 5.40552e-18 0.00424074)
(0.00422742 -0.00196431 -0.000168954 0.00422742 2.12529e-18 0.00422742)
(0.00422742 -0.00196431 -0.000168954 0.00422742 5.34568e-18 0.00422742)
(0.00421396 -0.00195822 -0.00017088 0.00421396 2.07684e-18 0.00421396)
(0.00421396 -0.00195822 -0.00017088 0.00421396 4.7682e-18 0.00421396)
(0.00420036 -0.00195205 -0.000172821 0.00420036 2.28237e-18 0.00420036)
(0.00420036 -0.00195205 -0.000172821 0.00420036 4.58344e-18 0.00420036)
(0.00418662 -0.00194582 -0.000174775 0.00418662 2.54091e-18 0.00418662)
(0.00418662 -0.00194582 -0.000174775 0.00418662 4.55086e-18 0.00418662)
(0.00417275 -0.00193951 -0.000176744 0.00417275 2.16124e-18 0.00417275)
(0.00417275 -0.00193951 -0.000176744 0.00417275 4.25438e-18 0.00417275)
(0.00415873 -0.00193314 -0.000178726 0.00415873 2.25933e-18 0.00415873)
(0.00415873 -0.00193314 -0.000178726 0.00415873 3.21597e-18 0.00415873)
(0.00414458 -0.00192669 -0.000180721 0.00414458 2.99579e-18 0.00414458)
(0.00414458 -0.00192669 -0.000180721 0.00414458 3.12868e-18 0.00414458)
(0.00413028 -0.00192017 -0.000182731 0.00413028 3.42102e-18 0.00413028)
(0.00413028 -0.00192017 -0.000182731 0.00413028 3.71207e-18 0.00413028)
(0.00411585 -0.00191358 -0.000184753 0.00411585 2.82496e-18 0.00411585)
(0.00411585 -0.00191358 -0.000184753 0.00411585 2.0986e-18 0.00411585)
(0.00410127 -0.00190692 -0.000186788 0.00410127 2.39913e-18 0.00410127)
(0.00410127 -0.00190692 -0.000186788 0.00410127 1.73188e-18 0.00410127)
(0.00408656 -0.00190019 -0.000188836 0.00408656 3.34302e-18 0.00408656)
(0.00408656 -0.00190019 -0.000188836 0.00408656 1.13144e-18 0.00408656)
(0.0040717 -0.00189338 -0.000190897 0.0040717 3.88079e-18 0.0040717)
(0.0040717 -0.00189338 -0.000190897 0.0040717 2.13619e-18 0.0040717)
(0.0040567 -0.0018865 -0.00019297 0.0040567 4.94298e-18 0.0040567)
(0.0040567 -0.0018865 -0.00019297 0.0040567 5.52798e-19 0.0040567)
(0.00404156 -0.00187955 -0.000195056 0.00404156 5.36663e-18 0.00404156)
(0.00404156 -0.00187955 -0.000195056 0.00404156 4.00337e-19 0.00404156)