/*--------------------------------*- C++ -*----------------------------------*\
| =========                 |                                                 |
| \\      /  F ield         | OpenFOAM: The Open Source CFD Toolbox           |
|  \\    /   O peration     | Version:  2012                                  |
|   \\  /    A nd           | Website:  www.openfoam.com                      |
|    \\/     M anipulation  |                                                 |
\*---------------------------------------------------------------------------*/
FoamFile
{
    version     2.0;
    format      ascii;
    class       volTensorField;
    location    "10000";
    object      grad(U);
}
// * * * * * * * * * * * * * * * * * * * * * * * * * * * * * * * * * * * * * //

dimensions      [0 0 -1 0 0 0 0];


internalField   nonuniform List<tensor> 
80
(
(0 5.97475e-31 -1.86711e-32 47.4415 7.22974e-14 2.22712e-15 1.93012 2.20032e-15 1.6162e-17)
(-3.36348e-16 -1.06835e-28 2.19677e-28 47.4415 0 0 1.93012 0 1.55242e-15)
(2.41963e-15 1.31036e-28 1.43271e-30 38.9655 -1.22223e-29 1.38621e-14 6.98086 -1.57772e-30 4.49215e-16)
(0 -1.22614e-45 -3.45022e-31 38.9655 -1.89327e-29 7.36477e-47 6.98086 -4.05943e-46 -8.28715e-16)
(0 1.71777e-30 0 20.8382 -4.71919e-14 -1.9204e-14 6.41738 6.95806e-15 2.38092e-16)
(3.39383e-15 -1.71777e-30 2.50706e-30 20.8382 3.9285e-14 -7.49762e-15 6.41738 2.6622e-15 1.68124e-15)
(0 -1.02978e-30 0 7.14001 -1.11094e-14 -1.63418e-14 3.5466 5.94933e-15 -4.20648e-16)
(6.76861e-15 5.14888e-31 0 7.14001 -3.51269e-15 -2.24088e-14 3.5466 2.54425e-15 -3.19009e-15)
(6.57904e-16 9.26002e-31 -2.46934e-30 2.44368 -5.3088e-15 -1.62201e-14 2.2202 4.56563e-15 -1.89187e-15)
(0 -9.26002e-31 0 2.44368 -1.50645e-15 -1.73875e-14 2.2202 3.05624e-15 -2.06656e-15)
(-2.36715e-15 -9.25206e-32 0 0.948812 4.61662e-16 -1.5487e-14 1.56616 3.45754e-15 -1.28686e-15)
(0 3.61978e-31 0 0.948812 3.47785e-31 -1.59277e-14 1.56616 2.60833e-15 -4.06923e-16)
(2.52272e-15 4.63327e-32 -7.09947e-30 0.414562 3.68566e-16 -1.41972e-14 1.22824 5.15952e-15 -1.30118e-15)
(0 8.87434e-31 0 0.414562 9.33368e-16 -1.42075e-14 1.22824 3.55666e-15 -2.24259e-15)
(0 -4.61953e-32 0 0.19891 2.8875e-16 -1.16165e-14 1.02519 -1.11881e-16 -2.44603e-16)
(1.05445e-14 0 0 0.19891 0 -1.14845e-14 1.02519 0 -3.06563e-16)
(-5.59957e-15 -8.40779e-44 2.04113e-29 0.100608 3.77831e-29 -1.67019e-14 0.883493 1.02525e-45 1.37468e-15)
(2.18154e-14 1.78636e-29 0 0.100608 1.64587e-16 -1.68471e-14 0.883493 7.95124e-16 -1.32183e-16)
(1.18038e-18 0 -7.58644e-32 1.09635e-15 -1.2806e-15 -2.9634e-16 7.10602e-15 1.09609e-14 2.74529e-15)
(0 2.26787e-30 3.30619e-45 5.17173e-29 -9.92412e-16 3.9443e-31 -3.55212e-15 7.99748e-15 1.09957e-29)
(0 0 0 47.4415 2.92674e-15 -2.11045e-14 -1.93012 -2.20032e-15 -1.6162e-17)
(0 0 1.1876e-43 47.4415 4.19551e-15 0 -1.93012 -3.6569e-15 2.13932e-28)
(0 -6.39112e-30 -1.43271e-30 38.9655 4.93038e-32 -1.10112e-14 -6.98086 -1.15132e-14 -4.49215e-16)
(0 0 -6.72623e-44 38.9655 -1.29624e-15 -4.81095e-45 -6.98086 7.27679e-15 -6.89354e-29)
(-1.93404e-15 -4.29443e-31 2.14721e-30 20.8382 1.8419e-14 1.58246e-14 -6.41738 -6.95806e-15 -2.38092e-16)
(0 9.88055e-30 2.52884e-29 20.8382 1.17521e-14 1.06864e-14 -6.41738 -2.63524e-15 -2.39627e-15)
(5.70316e-15 7.37139e-31 -4.76272e-30 7.14001 4.9644e-15 1.11913e-14 -3.5466 -3.2935e-15 4.20648e-16)
(-9.08746e-15 0 0 7.14001 4.14443e-15 0 -3.5466 -2.54425e-15 6.13733e-30)
(0 -3.50325e-46 0 2.44368 3.87916e-46 1.39986e-14 -2.2202 7.88861e-31 1.89187e-15)
(0 1.23467e-30 0 2.44368 1.99438e-15 2.16329e-14 -2.2202 -1.47792e-15 2.06656e-15)
(2.36715e-15 2.74015e-31 0 0.948812 -3.26674e-16 1.62035e-14 -1.56616 -1.48305e-15 1.28686e-15)
(-9.46859e-15 3.60837e-47 -2.96066e-30 0.948812 -1.17854e-45 1.65995e-14 -1.56616 6.50027e-32 4.06923e-16)
(0 0 0 0.414562 -1.17356e-46 1.4643e-14 -1.22824 -3.9443e-30 1.30118e-15)
(-2.01817e-14 -4.133e-30 -1.41989e-29 0.414562 -8.33793e-16 1.37213e-14 -1.22824 -1.44761e-15 2.24259e-15)
(0 5.51725e-31 -1.70241e-29 0.19891 3.02755e-16 1.24918e-14 -1.02519 1.11881e-16 2.44603e-16)
(-1.05445e-14 -3.99002e-31 1.70241e-29 0.19891 9.32398e-16 1.23656e-14 -1.02519 5.85314e-17 3.06563e-16)
(-2.72692e-15 -2.34682e-30 0 0.100608 6.22314e-17 1.73337e-14 -0.883493 -3.00641e-16 -1.37468e-15)
(-1.09077e-14 -3.75901e-30 0 0.100608 0 1.69128e-14 -0.883493 2.96092e-30 1.32183e-16)
(3.04391e-16 4.58861e-30 1.7609e-29 0 -9.33453e-16 0 0 -7.52235e-15 -9.0719e-30)
(-1.1641e-14 -8.08219e-31 7.37542e-32 2.19963e-15 -1.20416e-15 1.06632e-15 -1.77612e-14 -1.05982e-14 9.47371e-29)
(-2.91025e-15 1.48538e-43 0 -2.79256e-09 1.67164e-29 1.57817e-14 2.25027e-08 2.86069e-46 -3.13004e-15)
(1.16433e-14 -7.87115e-31 0 -2.79219e-09 -3.51745e-17 1.59516e-14 2.25027e-08 -2.83458e-16 -2.9747e-15)
(-2.72692e-15 -7.83979e-31 0 -0.100608 -1.82821e-16 7.69965e-15 0.883493 1.04401e-15 2.14028e-15)
(-1.09077e-14 -3.31924e-30 0 -0.100608 -1.37486e-16 7.40479e-15 0.883493 7.38607e-16 1.37092e-15)
(4.79186e-15 -6.87809e-32 0 -0.19891 0 5.55576e-15 1.02519 4.95619e-16 5.37328e-16)
(0 1.24688e-31 0 -0.19891 -3.28585e-16 4.88487e-15 1.02519 7.4832e-16 1.07778e-15)
(-5.04544e-15 -1.22522e-31 -8.87434e-31 -0.414562 3.02661e-16 4.51181e-15 1.22824 6.83459e-16 1.71674e-15)
(6.09422e-15 0 8.87434e-31 -0.414562 2.19186e-29 4.97616e-15 1.22824 -1.18821e-46 1.97391e-15)
(0 3.96881e-32 0 -0.948812 -4.39773e-17 1.06726e-15 1.56616 4.5772e-17 4.31993e-16)
(0 0 0 -0.948812 -5.17792e-16 2.95054e-15 1.56616 2.75142e-16 2.40693e-16)
(0 0 -3.08667e-31 -2.44368 -8.17917e-16 1.4634e-15 2.2202 2.17616e-16 -4.66316e-16)
(8.48929e-15 0 3.08667e-31 -2.44368 -6.93739e-16 7.93591e-16 2.2202 8.09267e-17 1.99915e-16)
(-1.69215e-15 6.4361e-32 -2.57444e-31 -7.14001 -7.05396e-16 -1.04523e-15 3.5466 -6.51007e-17 3.09624e-16)
(6.76862e-15 -6.4361e-32 -6.31724e-34 -7.14001 1.09352e-16 4.01706e-44 3.5466 1.76492e-17 4.55205e-18)
(0 1.07361e-31 2.14721e-31 -20.8382 1.13077e-17 -4.52896e-15 6.41738 -2.59005e-16 7.75858e-17)
(-1.93404e-15 -2.62743e-46 2.14721e-31 -20.8382 -2.02598e-30 -9.96969e-16 6.41738 0 6.96285e-16)
(8.06542e-16 2.2386e-32 -5.60519e-45 -38.9655 -2.6016e-17 -2.56895e-31 6.98086 2.87835e-17 -6.16298e-33)
(0 0 0 -38.9655 -1.7075e-15 7.27068e-15 6.98086 1.14765e-16 8.16391e-16)
(3.36348e-16 -3.98925e-31 -1.49369e-31 -47.4415 -2.94729e-16 1.94021e-14 1.93012 8.31046e-18 1.5316e-16)
(-3.36348e-16 0 1.49369e-31 -47.4415 -4.61585e-16 1.12944e-14 1.93012 1.56734e-18 3.89437e-16)
(-3.44421e-15 1.91192e-31 -2.44726e-29 -2.79257e-09 -2.36917e-16 -1.5693e-14 -2.25027e-08 1.87655e-15 3.13004e-15)
(2.36076e-18 0 0 -2.79238e-09 -1.65154e-16 -1.56464e-14 -2.25027e-08 1.7014e-15 2.9747e-15)
(2.72692e-15 1.75162e-46 0 -0.100608 -1.2326e-32 -7.29678e-15 -0.883493 -7.99383e-31 -2.14028e-15)
(-1.37803e-14 -4.9386e-30 0 -0.100608 -2.13191e-17 -6.80638e-15 -0.883493 -1.02993e-16 -1.37092e-15)
(-2.40195e-16 2.66001e-31 8.51205e-30 -0.19891 -7.73861e-16 -5.46144e-15 -1.02519 -4.95619e-16 -5.37328e-16)
(-1.05445e-14 -2.80972e-31 -4.25602e-30 -0.19891 -7.18355e-16 -4.57384e-15 -1.02519 -7.4832e-16 -1.07778e-15)
(-5.04544e-15 -2.51773e-31 0 -0.414562 -1.82588e-16 -4.92788e-15 -1.22824 -3.17005e-16 -1.71674e-15)
(-1.00909e-14 -6.93017e-32 0 -0.414562 -6.38797e-16 -5.83752e-15 -1.22824 -1.10907e-15 -1.97391e-15)
(0 -9.25206e-32 7.40165e-31 -0.948812 -4.16862e-16 -3.07174e-15 -1.56616 -4.35982e-16 -4.31993e-16)
(0 -1.4013e-45 -7.40165e-31 -0.948812 1.47911e-31 -4.2478e-15 -1.56616 -2.75142e-16 -2.40693e-16)
(2.12232e-15 0 0 -2.44368 -1.09904e-17 -9.8761e-16 -2.2202 -2.17616e-16 4.66316e-16)
(-2.78023e-15 3.85834e-32 -3.08667e-31 -2.44368 3.33605e-16 -1.23409e-15 -2.2202 -8.09267e-17 -1.99915e-16)
(0 3.21805e-32 0 -7.14001 -5.09373e-16 1.82455e-15 -3.5466 6.51007e-17 -3.09624e-16)
(0 -3.21805e-32 0 -7.14001 4.58094e-16 2.43024e-15 -3.5466 -1.76492e-17 -4.55205e-18)
(1.69692e-15 -4.90454e-45 0 -20.8382 -6.22302e-60 3.15935e-15 -6.41738 -8.33234e-30 -7.75858e-17)
(3.39383e-15 0 0 -20.8382 2.85347e-16 3.9791e-15 -6.41738 -2.2533e-16 -6.96285e-16)
(0 0 0 -38.9655 1.18076e-15 -7.07217e-15 -6.98086 -2.87835e-17 2.89239e-17)
(0 -6.37076e-32 -4.48416e-44 -38.9655 2.22263e-45 -1.57772e-30 -6.98086 -1.14765e-16 -9.38744e-29)
(-3.36348e-16 -4.66777e-33 0 -47.4415 1.38682e-17 -2.15096e-14 -1.93012 -8.31046e-18 -1.5316e-16)
(0 4.95951e-33 -1.49369e-31 -47.4415 1.39509e-16 -2.49309e-14 -1.93012 -1.56734e-18 -3.89437e-16)
)
;

boundaryField
{
    walls
    {
        type            extrapolatedCalculated;
        value           nonuniform List<tensor> 8((0 5.97475e-31 -1.86711e-32 47.9021 7.22974e-14 1.51467e-15 1.93012 2.20032e-15 1.6162e-17) (0 0 0 47.9021 3.69183e-14 -7.12449e-16 -1.93012 -2.20032e-15 -1.6162e-17) (-3.36348e-16 -1.06835e-28 2.19677e-28 47.9021 1.43449e-13 0 1.93012 0 1.55242e-15) (0 0 1.1876e-43 47.9021 3.80654e-14 7.70565e-14 -1.93012 -3.6569e-15 2.13932e-28) (3.36348e-16 -3.98925e-31 -1.49369e-31 -47.9021 -2.94729e-16 1.28556e-14 1.93012 8.31046e-18 1.5316e-16) (-3.36348e-16 -4.66777e-33 0 -47.9021 -1.17771e-16 -2.04579e-14 -1.93012 -8.31046e-18 -1.5316e-16) (-3.36348e-16 0 1.49369e-31 -47.9021 -2.69691e-16 5.00034e-15 1.93012 1.56734e-18 3.89437e-16) (0 4.95951e-33 -1.49369e-31 -47.9021 1.91894e-16 -2.43305e-14 -1.93012 -1.56734e-18 -3.89437e-16));
    }
    inlet
    {
        type            cyclic;
    }
    outlet
    {
        type            cyclic;
    }
    sides
    {
        type            empty;
    }
}


// ************************************************************************* //
