/*--------------------------------*- C++ -*----------------------------------*\
| =========                 |                                                 |
| \\      /  F ield         | OpenFOAM: The Open Source CFD Toolbox           |
|  \\    /   O peration     | Version:  2012                                  |
|   \\  /    A nd           | Website:  www.openfoam.com                      |
|    \\/     M anipulation  |                                                 |
\*---------------------------------------------------------------------------*/
FoamFile
{
    version     2.0;
    format      ascii;
    class       surfaceScalarField;
    location    "10000";
    object      phi;
}
// * * * * * * * * * * * * * * * * * * * * * * * * * * * * * * * * * * * * * //

dimensions      [0 3 -1 0 0 0 0];
oriented        oriented;


internalField   nonuniform List<scalar> 
156
(
1.94427e-05
1.88313e-18
-9.23945e-21
-1.59333e-19
4.41751e-20
0.000117301
1.51583e-18
1.57835e-19
-7.34053e-20
8.23692e-20
0.000351242
1.03207e-18
2.20362e-19
3.98432e-20
1.31585e-19
0.000735933
6.79509e-19
2.92055e-19
4.15742e-20
1.97852e-19
0.00136592
1.39792e-19
2.21775e-19
-9.26439e-20
1.58986e-19
0.00242291
1.0484e-19
-6.03049e-20
7.79807e-20
-2.23429e-20
0.00421161
2.95318e-19
-4.12556e-19
3.13821e-19
-5.43547e-19
0.0072477
7.09552e-19
-1.9104e-19
6.64338e-19
-3.91898e-19
0.0123994
1.71866e-18
1.04913e-18
1.69369e-18
8.4472e-19
0.0211285
1.09074e-18
-5.34694e-19
2.85072e-19
-5.13127e-19
1.94427e-05
-1.52783e-21
3.10321e-20
0.000117301
1.23039e-19
1.28836e-19
0.000351242
3.57309e-19
2.58545e-19
0.000735933
5.64629e-19
4.50588e-19
0.00136592
7.32062e-19
7.73991e-19
0.00242291
8.30891e-19
7.74816e-19
0.00421161
7.93803e-19
8.47696e-19
0.0072477
9.05521e-19
9.01719e-19
0.0123994
1.71578e-18
1.68293e-18
0.0211285
-5.77809e-19
-5.37112e-19
0.0211285
3.49963e-19
-1.37473e-18
3.46893e-19
-1.20365e-18
0.0123994
5.22751e-19
-9.86445e-19
4.96723e-19
-8.69418e-19
0.0072477
6.92185e-20
-2.38975e-19
1.26896e-19
-4.35097e-20
0.00421161
1.50048e-19
-9.43062e-21
1.69834e-19
-2.46275e-21
0.00242291
1.4441e-19
3.61197e-21
1.06614e-19
2.31143e-20
0.00136592
-2.6912e-22
-1.11906e-20
3.95637e-20
3.74367e-22
0.000735933
8.86483e-22
8.22391e-21
-2.67795e-20
1.20788e-20
0.000351242
1.86757e-20
9.48698e-21
4.35718e-20
1.6415e-20
0.000117301
5.24392e-21
7.45527e-21
8.36856e-21
1.3166e-20
1.94427e-05
3.00906e-21
3.92117e-21
0.0211285
4.01838e-19
4.00995e-19
0.0123994
6.76595e-19
6.50396e-19
0.0072477
1.35908e-19
1.28947e-19
0.00421161
3.68052e-20
2.98999e-20
0.00242291
-1.10956e-20
-7.35833e-20
0.00136592
-2.70308e-20
-2.61968e-20
0.000735933
-2.9819e-20
-1.07143e-20
0.000351242
-2.14835e-20
-1.5454e-21
0.000117301
-5.02929e-21
-2.18891e-21
1.94427e-05
)
;

boundaryField
{
    walls
    {
        type            calculated;
        value           uniform 0;
    }
    inlet
    {
        type            cyclic;
        value           nonuniform List<scalar> 
40
(
-1.94427e-05
-0.000117301
-0.000351242
-0.000735933
-0.00136592
-0.00242291
-0.00421161
-0.0072477
-0.0123994
-0.0211285
-1.94427e-05
-0.000117301
-0.000351242
-0.000735933
-0.00136592
-0.00242291
-0.00421161
-0.0072477
-0.0123994
-0.0211285
-0.0211285
-0.0123994
-0.0072477
-0.00421161
-0.00242291
-0.00136592
-0.000735933
-0.000351242
-0.000117301
-1.94427e-05
-0.0211285
-0.0123994
-0.0072477
-0.00421161
-0.00242291
-0.00136592
-0.000735933
-0.000351242
-0.000117301
-1.94427e-05
)
;
    }
    outlet
    {
        type            cyclic;
        value           nonuniform List<scalar> 
40
(
1.94427e-05
0.000117301
0.000351242
0.000735933
0.00136592
0.00242291
0.00421161
0.0072477
0.0123994
0.0211285
1.94427e-05
0.000117301
0.000351242
0.000735933
0.00136592
0.00242291
0.00421161
0.0072477
0.0123994
0.0211285
0.0211285
0.0123994
0.0072477
0.00421161
0.00242291
0.00136592
0.000735933
0.000351242
0.000117301
1.94427e-05
0.0211285
0.0123994
0.0072477
0.00421161
0.00242291
0.00136592
0.000735933
0.000351242
0.000117301
1.94427e-05
)
;
    }
    sides
    {
        type            empty;
        value           nonuniform List<scalar> 0();
    }
}


// ************************************************************************* //
