/*--------------------------------*- C++ -*----------------------------------*\
| =========                 |                                                 |
| \\      /  F ield         | OpenFOAM: The Open Source CFD Toolbox           |
|  \\    /   O peration     | Version:  2012                                  |
|   \\  /    A nd           | Website:  www.openfoam.com                      |
|    \\/     M anipulation  |                                                 |
\*---------------------------------------------------------------------------*/
FoamFile
{
    version     2.0;
    format      ascii;
    class       volTensorField;
    location    "13700";
    object      grad(U);
}
// * * * * * * * * * * * * * * * * * * * * * * * * * * * * * * * * * * * * * //

dimensions      [0 0 -1 0 0 0 0];


internalField   nonuniform List<tensor> 
2560
(
(0 -1.04635e-22 -1.10917e-16 1192.45 0.000181555 -0.00477396 1.72711 5.48199e-08 -6.87e-06)
(-2.9258e-16 9.16999e-18 -2.23221e-21 1192.45 -4.70621e-06 -5.66656e-07 1.72711 7.82689e-08 6.85992e-06)
(0 -1.37513e-22 -7.14322e-17 1191.04 0.000142194 1.11928e-23 5.20238 3.20752e-07 -1.69407e-21)
(-1.15355e-15 6.87567e-23 -2.20021e-21 1191.04 -3.83887e-05 -1.82941e-06 5.20238 3.66769e-07 1.03119e-05)
(-2.20305e-16 1.73208e-18 -5.32695e-22 1189.56 -2.03296e-20 0.00145196 7.13648 0 -5.07585e-06)
(0 -2.71085e-22 3.25302e-21 1189.57 -0.00014293 -2.85413e-06 7.13649 4.02563e-07 9.04064e-06)
(-1.53898e-15 5.2918e-22 -2.1376e-21 1188.01 -1.9e-05 0.00187474 7.23051 2.39243e-09 -5.97543e-06)
(2.24143e-15 -5.2918e-22 2.1376e-21 1188.01 -0.000168868 -2.62279e-06 7.23052 4.42902e-08 5.96866e-06)
(0 6.25503e-22 -2.10696e-21 1186.37 1.56949e-05 0.00129473 7.32526 -2.08823e-07 -3.37872e-06)
(0 7.14375e-18 2.10696e-21 1186.37 -3.15012e-05 -1.82992e-06 7.32527 -9.66187e-08 3.37488e-06)
(1.68602e-15 3.24494e-22 -7.78785e-22 1184.67 4.09951e-05 0.000660251 7.42099 -1.65286e-07 -2.00754e-06)
(1.34882e-14 0 1.03838e-21 1184.67 -5.08273e-21 -1.60191e-06 7.421 -3.57082e-34 2.00525e-06)
(-2.18749e-15 2.71867e-22 -5.11749e-22 1182.96 3.1349e-05 0.000333544 7.51804 -1.03539e-07 -1.32417e-06)
(8.74996e-15 -5.51168e-22 7.67623e-22 1182.96 -9.32567e-07 -1.75321e-06 7.51804 -1.96281e-08 1.32263e-06)
(-2.69546e-15 -5.28059e-22 5.04414e-22 1181.28 1.91322e-05 0.000185707 7.61674 -6.94686e-08 -9.51255e-07)
(6.55051e-15 3.94074e-22 -2.52207e-22 1181.28 -4.98297e-06 -2.08667e-06 7.61674 -2.77186e-08 9.50132e-07)
(7.3807e-15 3.96194e-22 -2.48592e-22 1179.69 1.40521e-05 0.000114878 7.71741 -5.83905e-08 -7.23733e-07)
(0 -5.28259e-22 2.48592e-22 1179.69 -4.65924e-06 -2.44955e-06 7.71741 -1.59647e-08 7.22854e-07)
(8.22182e-15 -5.28345e-22 1.22515e-22 1178.22 1.10775e-05 7.77919e-05 7.82035 -3.89074e-08 -5.70539e-07)
(-8.22182e-15 3.98173e-22 0 1178.22 -4.32066e-06 -2.8007e-06 7.82035 2.8496e-09 5.69819e-07)
(-4.25923e-15 9.28333e-22 -2.37452e-22 1176.91 7.78878e-06 5.68833e-05 7.92582 -3.62575e-08 -4.29043e-07)
(0 -9.28333e-22 3.01897e-22 1176.91 -5.27195e-06 -3.15918e-06 7.92582 5.48319e-09 4.57726e-07)
(4.79418e-15 1.32419e-21 -3.02929e-22 1175.78 7.3373e-06 4.44865e-05 8.03407 -3.05015e-08 -3.31272e-07)
(0 -1.194e-21 2.9757e-22 1175.78 -4.05921e-06 -3.52138e-06 8.03407 1.13232e-08 3.69357e-07)
(0 3.99628e-22 -1.75983e-22 1174.87 5.95452e-06 3.69512e-05 8.14527 -2.517e-08 -2.72124e-07)
(0 -5.31615e-22 1.17322e-22 1174.87 -4.18293e-06 -3.89008e-06 8.14527 1.66694e-08 2.95062e-07)
(-5.88554e-15 -5.31223e-22 1.1564e-22 1174.17 5.21858e-06 3.2401e-05 8.2596 -2.44746e-08 -2.29347e-07)
(1.57817e-14 3.97514e-22 0 1174.17 -3.95652e-06 -4.27543e-06 8.2596 1.74522e-08 2.28921e-07)
(0 -1.58864e-21 1.13983e-22 1173.7 4.50855e-06 2.98026e-05 8.37717 -2.07793e-08 -1.67466e-07)
(0 1.58864e-21 -1.13983e-22 1173.7 -3.90687e-06 -4.67448e-06 8.37717 2.11651e-08 1.67077e-07)
(-7.00687e-15 0 0 1173.46 4.24988e-06 2.85558e-05 8.49802 -2.24254e-08 -1.07189e-07)
(2.80275e-14 0 0 1173.46 -3.55074e-06 -5.08647e-06 8.49802 1.95877e-08 1.0683e-07)
(0 -1.58841e-21 0 1173.43 4.3346e-06 2.82969e-05 8.62218 -1.82682e-08 -4.65189e-08)
(-3.03172e-14 1.58841e-21 0 1173.43 -2.96443e-06 -1.03462e-06 8.62218 2.37703e-08 4.61844e-08)
(0 -1.58952e-21 0 1173.61 3.16015e-06 2.88021e-05 8.74959 -1.75003e-08 -4.93391e-15)
(-3.26396e-14 1.58952e-21 1.4724e-18 1173.61 -3.72533e-06 6.40552e-06 8.74959 2.4603e-08 -4.41455e-15)
(1.44402e-14 2.62245e-22 -6.72422e-24 1173.96 3.18618e-06 2.99255e-05 8.88012 -2.04347e-08 -1.30688e-15)
(0 -5.27851e-22 0 1173.96 -3.35424e-06 2.99168e-05 8.88012 2.16883e-08 -1.20033e-15)
(2.35798e-14 -1.06045e-21 0 1174.46 3.81467e-06 3.15676e-05 9.01362 -1.81453e-08 2.65633e-15)
(-5.16195e-14 1.59068e-21 0 1174.46 -2.43398e-06 3.15601e-05 9.01361 2.40265e-08 2.54803e-15)
(0 -1.58748e-21 0 1175.08 3.18615e-06 3.24818e-05 9.14982 -1.52245e-08 7.10912e-15)
(0 1.58748e-21 0 1175.08 -2.8136e-06 3.36631e-05 9.14982 2.69687e-08 6.84944e-15)
(-2.43969e-14 2.64008e-22 1.01371e-19 1175.76 1.83197e-06 1.77759e-05 9.28842 -1.67944e-08 -4.62269e-09)
(1.38281e-14 -5.28016e-22 0 1175.76 -3.95462e-06 3.61913e-05 9.28842 2.54434e-08 4.88724e-09)
(2.43614e-15 1.85013e-21 0 1176.46 3.33667e-06 9.10762e-06 9.42902 -2.36408e-08 -6.13653e-08)
(2.72598e-14 5.16583e-24 1.01551e-22 1176.46 4.23516e-22 3.91124e-05 9.42902 1.86119e-08 6.16213e-08)
(0 5.86487e-20 1.00095e-22 1177.11 2.92132e-06 9.70081e-06 9.57119 -1.25052e-08 -1.24022e-07)
(-4.73133e-14 1.58901e-21 -1.00095e-22 1177.11 -1.95232e-06 4.24082e-05 9.57119 2.97798e-08 1.24268e-07)
(1.24726e-14 -1.58782e-21 9.86607e-23 1177.67 2.01049e-06 1.03192e-05 9.71438 -1.75729e-08 -1.93409e-07)
(0 1.58782e-21 -9.86607e-23 1177.67 -3.30963e-06 4.60831e-05 9.71438 2.47268e-08 1.93649e-07)
(-2.62534e-14 1.08442e-20 2.9174e-22 1178.05 1.20431e-06 1.09343e-05 9.85796 -1.78523e-08 -2.70503e-07)
(0 1.85376e-21 -2.9174e-22 1178.05 -3.62228e-06 5.01379e-05 9.85796 2.44764e-08 2.70734e-07)
(4.13726e-14 1.85116e-21 -3.83411e-22 1178.19 3.4973e-06 1.15744e-05 10.0013 -2.61591e-08 -3.56311e-07)
(1.10327e-13 4.49045e-24 5.75117e-22 1178.19 6.35275e-22 5.45636e-05 10.0013 1.61785e-08 3.56537e-07)
(-2.53615e-14 9.70239e-20 -1.88958e-22 1178.01 0 1.22664e-05 10.1437 -9.79642e-09 -4.5173e-07)
(5.78604e-14 -1.58843e-21 2.57157e-22 1178.01 -2.03677e-06 4.75404e-05 10.1436 3.25605e-08 3.29092e-07)
(1.51494e-14 -5.29648e-22 3.725e-22 1177.43 1.62722e-06 1.29808e-05 10.2842 -2.23513e-08 -5.06842e-07)
(-2.4998e-14 3.95781e-22 0 1177.43 -2.52824e-06 -1.75916e-23 10.2842 2.00132e-08 7.143e-38)
(-3.16879e-14 0 0 1176.37 2.11758e-22 1.36959e-05 10.422 -1.7117e-08 -4.67915e-07)
(-1.26751e-13 0 -4.76196e-22 1176.37 -3.25778e-06 -4.05633e-06 10.422 2.52633e-08 3.91907e-08)
(-1.65485e-14 -5.25884e-22 0 1174.74 3.20303e-06 1.44422e-05 10.5562 -2.96635e-08 -4.28734e-07)
(-6.61939e-14 2.0494e-19 -4.01203e-22 1174.74 4.23516e-22 -3.24534e-06 10.5562 1.2719e-08 3.21535e-08)
(0 1.77973e-19 1.78356e-22 1172.47 0 1.52453e-05 10.6857 -1.00135e-08 -3.88957e-07)
(-6.90519e-14 1.85183e-21 -3.8008e-22 1172.46 -1.88011e-06 -2.52106e-06 10.6857 3.23764e-08 2.57517e-08)
(0 1.58769e-21 -3.51599e-22 1169.45 1.10166e-06 1.60688e-05 10.8095 -2.52115e-08 -3.48268e-07)
(7.19491e-14 -4.75686e-20 5.33995e-22 1169.45 -3.30091e-06 -1.87014e-06 10.8095 1.7178e-08 1.98786e-08)
(-1.87211e-14 3.23042e-21 0 1165.6 1.9346e-06 1.68978e-05 10.9265 -2.1807e-08 -3.06526e-07)
(0 -2.65335e-22 0 1165.6 -2.71786e-06 -1.28157e-06 10.9265 2.05858e-08 1.44552e-08)
(-1.94641e-14 -1.32367e-21 3.41593e-22 1160.84 3.23039e-06 1.7774e-05 11.0355 -2.85029e-08 -2.63515e-07)
(0 1.78284e-19 -3.41593e-22 1160.84 0 -7.46288e-07 11.0355 1.38838e-08 9.40604e-09)
(2.3793e-15 7.18379e-20 0 1155.09 0 1.87085e-05 11.1354 -1.36294e-08 -2.18926e-07)
(-1.03459e-13 6.60241e-22 -2.87379e-22 1155.09 -2.22686e-06 -2.56721e-07 11.1354 2.87522e-08 4.67834e-09)
(2.09763e-14 6.63742e-22 0 1148.26 1.12826e-06 1.96623e-05 11.2248 -2.7396e-08 -1.72503e-07)
(0 -6.63742e-22 0 1148.26 -3.61285e-06 1.93491e-07 11.2248 1.49754e-08 4.01509e-09)
(2.17444e-14 1.1909e-21 0 1140.28 2.04409e-06 2.06269e-05 11.3026 -2.56877e-08 -1.24138e-07)
(0 -1.1909e-21 0 1140.28 -2.70256e-06 6.09671e-07 11.3026 1.66732e-08 8.05852e-09)
(-2.25196e-14 -9.26975e-22 0 1131.05 3.155e-06 2.16437e-05 11.3675 -3.07703e-08 -7.36269e-08)
(-4.32753e-14 1.60622e-24 -3.22426e-22 1131.05 4.23516e-22 9.9625e-07 11.3675 1.1574e-08 1.19372e-08)
(4.2655e-14 1.3126e-19 0 1120.53 1.14109e-06 2.2729e-05 11.4181 -1.78686e-08 -2.06635e-08)
(-4.2655e-14 1.32336e-21 0 1120.53 -2.02106e-06 8.16373e-06 11.4181 2.44571e-08 2.08392e-08)
(-2.40888e-14 -5.28609e-22 0 1108.64 1.31713e-06 2.38463e-05 11.4533 -2.72626e-08 2.34475e-11)
(5.43115e-14 1.32152e-22 0 1108.64 -3.48436e-06 1.9775e-05 11.4533 1.50411e-08 -6.98967e-12)
(0 1.58722e-21 0 1095.31 1.42865e-06 2.49682e-05 11.4717 -2.90633e-08 2.33443e-11)
(9.95239e-14 -1.58722e-21 0 1095.31 -3.40114e-06 2.49679e-05 11.4717 1.32147e-08 -7.95355e-12)
(2.56769e-14 -1.06042e-21 0 1080.51 4.04244e-06 2.61523e-05 11.4721 -3.77028e-08 2.4713e-11)
(-1.02708e-13 8.60484e-20 0 1080.51 1.05879e-22 2.6152e-05 11.4721 4.54618e-09 -8.11549e-12)
(2.64756e-14 1.12823e-19 0 1064.17 -2.11758e-22 2.73997e-05 11.4532 -1.17897e-08 2.47305e-11)
(0 -1.05928e-21 0 1064.17 -3.44197e-06 2.73994e-05 11.4532 3.04248e-08 -9.16179e-12)
(-2.72758e-14 5.26668e-22 0 1046.26 2.64085e-06 2.86809e-05 11.4139 -4.88938e-08 2.60563e-11)
(0 0 0 1046.26 0 2.86806e-05 11.4139 1.47462e-37 -9.35555e-12)
(6.71921e-14 5.66938e-20 0 1026.74 0 2.99872e-05 11.3529 -9.49204e-09 2.62506e-11)
(7.31891e-14 3.97309e-22 0 1026.74 -3.84818e-06 2.99869e-05 11.3528 3.26432e-08 -1.05276e-11)
(0 6.64286e-22 5.74517e-22 1005.6 3.7323e-06 3.13423e-05 11.2691 -6.46064e-08 2.76703e-11)
(1.54058e-13 0 0 1005.6 -1.27055e-21 3.1342e-05 11.2691 -3.30872e-24 -1.08997e-11)
(-2.96725e-14 1.05474e-19 0 982.814 0 3.28184e-05 11.1616 0 2.78654e-11)
(0 -5.29784e-22 0 982.814 -7.76146e-07 3.28181e-05 11.1616 4.69656e-08 -1.20154e-11)
(-3.04654e-14 0 0 958.377 -3.23186e-06 3.42526e-05 11.0293 -4.52114e-08 2.93232e-11)
(0 -5.23281e-22 0 958.377 -8.40258e-06 3.42522e-05 11.0293 -3.22394e-09 -1.2525e-11)
(0 6.6192e-22 0 932.289 1.85681e-06 3.558e-05 10.8712 -6.22417e-08 2.95807e-11)
(0 -1.06595e-21 0 932.289 -2.54342e-06 3.55797e-05 10.8712 -1.49377e-08 -1.36373e-11)
(-3.20325e-14 5.33808e-22 -5.42282e-22 904.575 1.64404e-05 3.72659e-05 10.687 -5.40865e-08 3.11242e-11)
(0 1.88079e-37 0 904.575 1.69407e-21 3.72654e-05 10.687 0 -1.43363e-11)
(0 1.43006e-23 0 875.258 -1.68692e-21 3.89035e-05 10.4756 -1.32349e-23 3.21714e-11)
(-1.67084e-13 1.72045e-21 0 875.258 -2.03354e-05 3.8903e-05 10.4756 1.44842e-07 -1.61712e-11)
(-3.35635e-14 1.58055e-21 -5.26848e-22 844.351 8.14621e-06 4.02851e-05 10.2364 -2.71256e-07 3.35971e-11)
(1.34254e-13 0 0 844.351 1.01325e-20 4.02847e-05 10.2364 5.29396e-23 -1.68807e-11)
(3.48495e-14 2.53988e-19 0 811.912 1.66974e-21 4.20498e-05 9.96925 0 3.43799e-11)
(-3.48495e-14 1.72017e-21 0 811.912 5.90856e-06 4.20495e-05 9.96925 2.16915e-07 -1.83761e-11)
(-3.50436e-14 -1.0557e-21 0 777.998 -1.41395e-05 4.36341e-05 9.67362 -1.68899e-07 3.51652e-11)
(1.40175e-13 -1.17549e-38 0 777.998 3.38813e-21 4.36337e-05 9.67362 0 -1.8567e-11)
(7.15198e-14 1.06028e-21 0 742.658 1.95868e-05 4.52378e-05 9.34938 -3.55371e-08 3.65035e-11)
(1.4304e-13 -1.06028e-21 0 742.658 1.38496e-05 4.52372e-05 9.34938 5.93508e-09 -2.05304e-11)
(0 6.2219e-24 1.98915e-21 705.977 -1.69718e-21 4.69229e-05 8.9967 0 3.83599e-11)
(3.33724e-14 -1.05674e-21 0 705.977 -1.67314e-05 4.69223e-05 8.99669 8.62152e-08 -2.19499e-11)
(-3.71347e-14 5.20795e-22 0 668.04 6.94615e-06 4.83518e-05 8.61566 -2.1755e-07 3.97021e-11)
(0 -3.76158e-37 0 668.04 7.42377e-21 4.83514e-05 8.61566 -2.64698e-23 -2.38313e-11)
(-7.55785e-14 -2.40741e-35 0 628.951 -3.39517e-21 4.99579e-05 8.20692 0 4.09057e-11)
(1.51157e-13 1.72117e-21 0 628.951 2.62233e-07 4.99574e-05 8.20692 1.42616e-07 -2.47533e-11)
(-3.84193e-14 0 0 588.818 -2.16388e-07 5.15383e-05 7.77089 -1.77951e-07 4.25368e-11)
(0 -9.40395e-38 0 588.818 8.56531e-22 5.15377e-05 7.77089 0 -2.68297e-11)
(-3.90227e-14 9.8166e-20 0 547.753 1.70247e-21 5.30381e-05 7.30836 0 4.41549e-11)
(1.56091e-13 -1.05612e-21 0 547.753 -1.37837e-06 5.30377e-05 7.30836 1.01487e-07 -2.83702e-11)
(2.24993e-14 -8.0965e-22 0 505.88 -9.7072e-06 5.41638e-05 6.82028 -1.57212e-07 4.51966e-11)
(-6.20968e-14 4.04825e-22 -9.25314e-22 505.88 -6.76819e-21 5.41633e-05 6.82028 -1.32349e-23 -2.97658e-11)
(-8.02837e-14 -1.32533e-21 0 463.345 1.92406e-05 5.53001e-05 6.30815 -1.17709e-07 4.73172e-11)
(-1.60567e-13 6.29402e-19 0 463.345 4.76421e-06 5.52995e-05 6.30815 -3.37568e-08 -3.19994e-11)
(-1.41637e-13 0 -8.9898e-22 420.307 -4.9105e-24 5.67257e-05 5.77355 1.32349e-23 4.9331e-11)
(3.2523e-13 -1.58726e-21 0 420.307 -5.97055e-06 5.67253e-05 5.77355 1.11332e-07 -3.42664e-11)
(-1.23394e-13 -2.38138e-21 0 376.909 -1.51245e-05 5.74305e-05 5.21773 -1.59234e-07 4.98939e-11)
(-1.64526e-13 3.53218e-19 0 376.909 -1.72199e-05 5.743e-05 5.21773 -1.18807e-07 -3.51737e-11)
(-1.00186e-13 1.99243e-21 0 333.317 2.48602e-05 5.81032e-05 4.6431 -1.97295e-07 5.28608e-11)
(2.24906e-13 0 0 333.316 -2.17904e-23 5.81026e-05 4.6431 -3.76909e-34 -3.82945e-11)
(4.19775e-14 4.47787e-23 0 289.717 -3.38813e-21 5.87066e-05 4.05191 0 5.4049e-11)
(0 -1.0761e-21 0 289.717 -2.24966e-05 5.87061e-05 4.05191 2.01464e-07 -4.00304e-11)
(0 2.01528e-21 0 246.285 2.19898e-05 5.9167e-05 3.4464 -4.90427e-07 5.6454e-11)
(1.69371e-13 0 0 246.285 8.47033e-21 5.91665e-05 3.4464 5.29396e-23 -4.24704e-11)
(0 3.28028e-48 1.67275e-21 203.199 6.30711e-23 5.93797e-05 2.82928 5.29396e-23 5.79408e-11)
(1.7067e-13 -1.04547e-21 0 203.199 -2.54027e-05 5.93791e-05 2.82928 4.94288e-07 -4.47475e-11)
(-5.53239e-14 -8.2439e-22 -3.29756e-21 160.645 1.48975e-05 5.91342e-05 2.20334 -8.44193e-07 6.06531e-11)
(1.71803e-13 0 -1.64878e-21 160.644 2.07378e-37 5.91336e-05 2.20334 7.74755e-38 -4.73861e-11)
(0 1.27763e-19 0 118.816 -1.13445e-20 5.91228e-05 1.57185 0 6.16136e-11)
(0 2.23458e-21 0 118.816 -3.57454e-06 5.91223e-05 1.57185 6.91277e-07 -4.9335e-11)
(-8.67766e-14 0 0 77.8944 -6.63612e-06 5.86778e-05 0.937557 -8.64654e-07 6.42006e-11)
(0 0 0 77.8943 -1.70552e-20 5.86773e-05 0.937556 -1.05879e-22 -5.17226e-11)
(3.12193e-14 5.27501e-19 0 37.1363 6.70603e-21 5.82055e-05 0.303994 0 6.49479e-11)
(2.36606e-13 -1.97362e-21 0 37.1362 8.14796e-06 5.8205e-05 0.303993 5.45176e-07 -5.36962e-11)
(8.42661e-15 -1.06993e-21 0 -0.0084222 -8.25748e-06 5.76694e-05 6.99458e-05 -6.88505e-07 6.77983e-11)
(1.74418e-13 0 0 -0.00844331 1.00742e-20 5.76689e-05 7.01212e-05 1.50125e-37 -5.62328e-11)
(-4.35368e-14 2.09035e-19 0 -37.6576 -3.38813e-21 5.70091e-05 0.32557 0 6.8741e-11)
(0 -5.27299e-22 0 -37.6577 5.0739e-06 5.70086e-05 0.32557 3.61002e-07 -5.85297e-11)
(4.33846e-14 -1.13398e-21 0 -73.2337 -1.08874e-05 5.61466e-05 0.94809 -5.52254e-07 7.17473e-11)
(0 1.20646e-18 0 -73.2338 3.38813e-21 5.61462e-05 0.948091 -1.05879e-22 -6.10582e-11)
(5.00064e-14 6.87871e-19 1.49031e-21 -107.094 -2.25973e-23 5.5428e-05 1.5604 0 7.19926e-11)
(0 -1.05951e-21 0 -107.094 1.38258e-05 5.54277e-05 1.5604 1.1977e-07 -6.28254e-11)
(0 6.88568e-22 0 -139.107 -1.44642e-05 5.47405e-05 2.15903 -2.51967e-07 7.44058e-11)
(0 -1.0558e-21 0 -139.107 -5.02469e-06 5.474e-05 2.15903 -4.42103e-08 -6.46199e-11)
(-3.67918e-14 4.97713e-22 2.89578e-21 -169.172 2.05064e-05 5.40858e-05 2.74097 -2.39292e-07 7.56729e-11)
(0 2.79414e-23 0 -169.172 -2.79414e-23 5.40853e-05 2.74097 -5.29396e-23 -6.74494e-11)
(-4.23802e-14 0 0 -197.209 -1.41503e-21 5.34785e-05 3.3036 -1.4788e-37 7.92029e-11)
(0 1.05921e-21 0 -197.209 -2.19427e-05 5.34781e-05 3.3036 8.37127e-08 -7.02119e-11)
(4.20384e-14 0 0 -223.149 1.68568e-05 5.28113e-05 3.8443 -5.71199e-07 7.95263e-11)
(-1.68154e-13 2.96237e-22 0 -223.149 1.84218e-21 5.28108e-05 3.8443 0 -7.22235e-11)
(4.6524e-14 4.06772e-23 2.77305e-21 -246.938 -4.19449e-21 5.25792e-05 4.36065 5.29396e-23 8.30148e-11)
(-2.13181e-13 -1.03989e-21 0 -246.938 -8.59928e-06 5.25789e-05 4.36065 3.30444e-07 -7.48335e-11)
(-4.12597e-14 -1.53748e-21 0 -268.553 -1.57882e-06 5.20989e-05 4.85035 -6.69505e-07 8.30256e-11)
(3.30077e-13 0 -2.7333e-21 -268.553 0 5.20986e-05 4.85036 -1.05879e-22 -7.64585e-11)
(-4.37298e-15 5.59044e-19 0 -287.993 1.69407e-21 5.18788e-05 5.31202 2.64698e-23 8.63888e-11)
(2.08508e-13 2.35736e-21 0 -287.993 4.7592e-06 5.18784e-05 5.31202 2.36871e-07 -7.87935e-11)
(0 0 0 -305.262 5.52675e-07 5.19969e-05 5.74394 -5.11061e-07 8.64854e-11)
(0 9.40395e-37 0 -305.262 6.77626e-21 5.19965e-05 5.74394 -5.29396e-23 -8.05334e-11)
(-8.38e-14 2.54345e-20 0 -320.397 1.95172e-23 5.20135e-05 6.14491 0 9.05932e-11)
(1.59546e-13 -2.39252e-21 0 -320.397 -6.48677e-06 5.20131e-05 6.14491 1.77131e-07 -8.35241e-11)
(-3.93831e-14 -1.0481e-21 0 -333.453 5.69677e-06 5.21161e-05 6.51441 -5.66975e-07 9.06843e-11)
(-1.57533e-13 1.47816e-19 0 -333.453 7.36473e-23 5.21157e-05 6.51441 -1.05879e-22 -8.50897e-11)
(8.15247e-14 8.44219e-20 0 -344.495 2.51588e-21 5.22988e-05 6.85201 0 9.50716e-11)
(1.1278e-13 -1.07281e-21 0 -344.495 -6.36345e-06 5.22984e-05 6.85201 2.17812e-07 -8.82907e-11)
(-3.83218e-14 -2.42819e-21 0 -353.595 2.74093e-06 5.24238e-05 7.15746 -6.21733e-07 9.51146e-11)
(1.53287e-13 -1.31655e-36 0 -353.595 9.39867e-21 5.24234e-05 7.15746 1.05879e-22 -8.98219e-11)
(-3.77682e-14 0 0 -360.837 2.25085e-23 5.29299e-05 7.43086 -2.64698e-23 9.95876e-11)
(0 0 0 -360.837 4.29462e-06 5.29296e-05 7.43086 1.97847e-07 -9.31103e-11)
(-3.72023e-14 0 0 -366.318 -4.81508e-06 5.3484e-05 7.67241 -4.51995e-07 9.9286e-11)
(0 -3.76158e-37 0 -366.318 5.14e-21 5.34835e-05 7.67241 2.68054e-37 -9.40333e-11)
(-3.66261e-14 1.18421e-19 0 -370.15 0 5.39226e-05 7.88293 -2.44385e-08 1.04931e-10)
(1.46505e-13 -2.11431e-21 0 -370.15 5.45991e-07 5.39222e-05 7.88293 1.08081e-08 -9.84699e-11)
(3.60416e-14 1.33081e-21 0 -372.446 -4.4089e-06 5.42301e-05 8.06344 -3.51225e-07 1.03804e-10)
(0 -3.76158e-37 0 -372.446 1.73794e-21 5.42297e-05 8.06344 -5.29396e-23 -9.84973e-11)
(3.91239e-14 7.65177e-22 4.66393e-21 -373.313 1.98519e-05 5.48686e-05 8.21492 -2.14235e-07 1.10259e-10)
(-3.91239e-14 -1.05667e-21 0 -373.313 1.09053e-05 5.48681e-05 8.21492 -1.72202e-07 -1.03795e-10)
(3.70836e-15 -1.17549e-37 0 -372.867 -8.47033e-22 5.56966e-05 8.33839 -9.49527e-09 1.10138e-10)
(-3.85632e-14 -1.05724e-21 0 -372.867 -1.62878e-05 5.5696e-05 8.33839 2.51437e-08 -1.04494e-10)
(3.80105e-14 3.7524e-21 0 -371.232 1.26967e-06 5.58595e-05 8.43533 -4.82755e-07 1.17432e-10)
(2.36038e-13 -9.62965e-35 0 -371.232 -5.0822e-21 5.58592e-05 8.43533 5.29396e-23 -1.10706e-10)
(-3.74657e-14 2.14354e-19 -4.46626e-21 -368.521 0 5.65144e-05 8.5075 -7.85582e-08 1.14289e-10)
(1.34623e-13 -5.23389e-22 0 -368.522 9.14663e-06 5.65139e-05 8.5075 -4.43135e-08 -1.08318e-10)
(-6.99839e-14 1.17411e-19 -4.40224e-21 -364.841 -5.00069e-06 5.71176e-05 8.55602 -1.65716e-07 1.24191e-10)
(-1.32221e-13 3.1985e-21 0 -364.841 -1.95289e-05 5.71171e-05 8.55602 -1.31674e-07 -1.17292e-10)
(-3.2456e-14 -1.89838e-21 4.33915e-21 -360.306 1.6196e-05 5.75582e-05 8.58257 -4.27483e-07 1.21469e-10)
(-1.29824e-13 1.63879e-22 0 -360.306 4.80336e-21 5.75575e-05 8.58257 0 -1.14931e-10)
(-3.58777e-14 1.8499e-20 0 -355.023 1.19553e-21 5.83366e-05 8.58895 -1.32349e-23 1.33076e-10)
(0 8.01929e-22 0 -355.023 -8.85259e-06 5.83362e-05 8.58895 1.44859e-07 -1.25734e-10)
(0 -1.38326e-21 0 -349.093 -3.31517e-06 5.84929e-05 8.57667 -5.32261e-07 1.2758e-10)
(8.96995e-14 6.02066e-19 0 -349.093 4.94376e-21 5.84923e-05 8.57667 0 -1.20472e-10)
(-3.90366e-14 1.80806e-19 -4.15524e-21 -342.612 0 5.87809e-05 8.54755 -8.4473e-08 1.41685e-10)
(0 3.70076e-21 0 -342.612 6.58816e-06 5.87806e-05 8.54755 -5.11745e-08 -1.33965e-10)
(0 5.56757e-21 0 -335.663 1.43542e-06 5.94271e-05 8.50301 -2.47566e-07 1.33767e-10)
(2.40743e-13 -7.42312e-19 0 -335.663 -5.52022e-07 5.94263e-05 8.50301 -6.96804e-09 -1.25857e-10)
(3.38646e-14 1.8993e-20 0 -328.332 1.05879e-22 5.96278e-05 8.44455 -1.77018e-07 1.52898e-10)
(2.3612e-13 -2.11311e-21 0 -328.332 -9.50309e-06 5.96274e-05 8.44455 -1.44064e-07 -1.44583e-10)
(-5.78876e-14 0 0 -320.695 1.2139e-05 5.99122e-05 8.3738 -3.59552e-07 1.40705e-10)
(0 0 0 -320.695 6.98802e-21 5.99113e-05 8.37381 0 -1.32099e-10)
(-2.83797e-14 -1.49018e-40 0 -312.822 7.43688e-25 6.01835e-05 8.29214 -4.1359e-25 1.65721e-10)
(2.27038e-13 -1.0588e-21 0 -312.822 -1.13806e-05 6.01831e-05 8.29214 3.52978e-08 -1.5698e-10)
(2.78233e-14 1.81213e-21 0 -304.78 8.2577e-06 6.02264e-05 8.20101 -5.23889e-07 1.4749e-10)
(0 -2.63311e-36 0 -304.78 -9.87728e-21 6.02254e-05 8.20101 -5.02967e-37 -1.38019e-10)
(-2.72749e-14 8.03425e-20 0 -296.621 2.27113e-23 6.04768e-05 8.1017 1.32349e-23 1.80728e-10)
(0 -1.05681e-21 0 -296.621 -3.30711e-06 6.04765e-05 8.1017 1.14137e-07 -1.71357e-10)
(-8.97477e-14 -2.11267e-21 0 -288.399 -2.04701e-06 6.03558e-05 7.99525 -4.70225e-07 1.53395e-10)
(1.69952e-13 1.8695e-21 0 -288.399 -5.20378e-21 6.03548e-05 7.99525 0 -1.43167e-10)
(-2.62035e-14 2.77851e-19 0 -280.16 0 6.01948e-05 7.883 -1.29358e-07 1.97558e-10)
(7.37592e-14 7.80895e-22 0 -280.16 2.57777e-06 6.01945e-05 7.88301 -9.73415e-08 -1.87713e-10)
(-5.13618e-14 0 0 -271.939 5.75399e-06 6.04161e-05 7.76588 -2.39202e-07 1.58401e-10)
(0 0 0 -271.939 -1.86301e-06 6.04148e-05 7.76588 -2.63953e-08 -1.47263e-10)
(-2.51673e-14 7.0982e-36 0 -263.772 0 6.00537e-05 7.64465 -1.38746e-07 2.19031e-10)
(0 1.32065e-21 0 -263.772 -1.46297e-05 6.00535e-05 7.64465 -1.06993e-07 -2.08555e-10)
(0 1.32942e-21 0 -255.694 1.89381e-05 5.9847e-05 7.52042 -4.89414e-07 1.62435e-10)
(-9.86507e-14 0 0 -255.694 0 5.98454e-05 7.52042 5.29396e-23 -1.50584e-10)
(5.34795e-14 6.47321e-23 0 -247.726 -2.5411e-21 5.95058e-05 7.39391 2.64698e-23 2.44847e-10)
(6.73564e-14 -2.12934e-21 0 -247.726 -1.95288e-05 5.95057e-05 7.39391 2.6473e-07 -2.33981e-10)
(2.36808e-14 2.04501e-21 0 -239.888 1.99785e-05 5.90916e-05 7.26572 -8.94777e-07 1.64075e-10)
(-9.47232e-14 4.13774e-36 0 -239.888 7.38366e-21 5.90896e-05 7.26572 -2.1729e-37 -1.51411e-10)
(-2.32035e-14 -2.35099e-38 0 -232.2 -1.59867e-36 5.87965e-05 7.1365 -2.49709e-38 2.76754e-10)
(3.58579e-14 1.27307e-21 -1.35794e-20 -232.2 -1.62129e-05 5.87967e-05 7.1365 6.79578e-07 -2.65353e-10)
(0 -2.09137e-21 0 -224.676 1.42537e-05 5.82704e-05 7.00684 -1.21422e-06 1.61415e-10)
(0 -3.21498e-36 -6.6924e-21 -224.676 1.15862e-20 5.8268e-05 7.00684 2.11758e-22 -1.48122e-10)
(-5.53353e-14 0 -6.59648e-21 -217.329 -2.11758e-22 5.75867e-05 6.87723 0 3.16268e-10)
(8.91045e-14 1.33991e-21 0 -217.329 -1.47986e-05 5.75872e-05 6.87723 9.26688e-07 -3.04542e-10)
(2.18258e-14 2.03185e-21 0 -210.166 1.49076e-05 5.67726e-05 6.74805 -1.49781e-06 1.53968e-10)
(0 0 0 -210.166 -1.28114e-20 5.67696e-05 6.74805 -2.81976e-37 -1.39941e-10)
(0 1.13067e-19 0 -203.193 1.01644e-20 5.63061e-05 6.61974 0 3.66906e-10)
(-1.12417e-13 1.20164e-21 0 -203.193 -7.39637e-06 5.6307e-05 6.61974 1.1953e-06 -3.54725e-10)
(-2.6495e-14 1.97403e-22 -6.31689e-21 -196.413 3.91435e-06 5.54621e-05 6.49244 -1.54781e-06 1.37418e-10)
(0 -3.38542e-36 0 -196.413 -1.22795e-20 5.54585e-05 6.49244 -2.11758e-22 -1.22876e-10)
(0 2.29224e-19 0 -189.831 -1.69407e-21 5.46802e-05 6.36652 0 4.31289e-10)
(0 1.36201e-21 -6.22635e-21 -189.831 -7.5573e-07 5.46817e-05 6.36652 1.09712e-06 -4.189e-10)
(2.01113e-14 -4.79462e-21 0 -183.448 1.11802e-06 5.37387e-05 6.24223 -1.36672e-06 1.0899e-10)
(0 5.27082e-19 0 -183.448 1.9958e-20 5.37341e-05 6.24223 -2.11758e-22 -9.38614e-11)
(1.97036e-14 2.227e-19 0 -177.261 -1.45899e-21 5.26137e-05 6.11972 1.05879e-22 5.14997e-10)
(0 1.60681e-21 -1.20983e-20 -177.261 -1.25423e-06 5.26161e-05 6.11972 8.77674e-07 -5.02271e-10)
(-3.86082e-14 0 0 -171.269 9.38742e-06 5.18395e-05 5.99905 -1.18213e-06 6.29469e-11)
(7.72164e-14 0 0 -171.269 -1.79956e-20 5.18336e-05 5.99905 -1.77404e-37 -4.73967e-11)
(-1.89125e-14 4.01011e-21 0 -165.468 0 5.04601e-05 5.88031 0 6.25488e-10)
(0 -9.18281e-22 0 -165.468 -1.50116e-05 5.04637e-05 5.88031 9.12389e-07 -6.126e-10)
(-2.42966e-14 -1.08614e-21 0 -159.854 2.44701e-05 4.95134e-05 5.76359 -1.46875e-06 -7.19349e-12)
(0 0 -5.79276e-21 -159.854 1.01644e-20 4.95057e-05 5.76359 0 2.32174e-11)
(0 2.59649e-35 0 -154.42 7.9847e-22 4.82817e-05 5.64877 0 7.73118e-10)
(0 1.60586e-21 -1.14195e-20 -154.42 -2.47332e-05 4.82869e-05 5.64877 1.46905e-06 -7.59977e-10)
(-2.36051e-14 -2.11046e-21 0 -149.162 2.49793e-05 4.67859e-05 5.53594 -2.12305e-06 -1.12796e-10)
(0 8.83972e-36 0 -149.162 1.62509e-20 4.6776e-05 5.53594 0 1.29099e-10)
(-2.32668e-14 2.79879e-22 0 -144.072 -5.59758e-22 4.55145e-05 5.42504 0 9.69448e-10)
(1.39386e-13 1.38681e-21 -1.10945e-20 -144.072 -1.74033e-05 4.55221e-05 5.42504 2.0474e-06 -9.56242e-10)
(-3.41391e-14 0 0 -139.144 2.30536e-05 4.43276e-05 5.31588 -2.53316e-06 -2.70304e-10)
(6.82782e-14 0 0 -139.144 -6.94573e-22 4.43146e-05 5.31588 -4.23516e-22 2.86855e-10)
(3.93277e-14 3.49067e-22 0 -134.373 0 4.2608e-05 5.20849 4.23516e-22 1.23493e-09)
(-2.26046e-14 -3.70519e-21 0 -134.373 -2.45994e-05 4.26187e-05 5.20849 2.546e-06 -1.22163e-09)
(0 -1.32803e-21 0 -129.752 3.14843e-05 4.09838e-05 5.1028 -3.24318e-06 -4.98448e-10)
(-8.78152e-14 2.22906e-21 -1.06242e-20 -129.752 1.73866e-21 4.09667e-05 5.1028 0 5.15047e-10)
(-1.60512e-14 -1.97483e-36 -1.0472e-20 -125.276 -3.54292e-21 3.93801e-05 4.99869 0 1.59556e-09)
(6.42049e-14 -6.54499e-21 0 -125.276 -2.43719e-05 3.93952e-05 4.99869 3.36138e-06 -1.58233e-09)
(0 -3.22559e-21 0 -120.938 3.29895e-05 3.79236e-05 4.8961 -3.98799e-06 -8.29805e-10)
(0 -7.99336e-36 -1.03219e-20 -120.938 2.8509e-20 3.79009e-05 4.8961 7.62116e-38 8.46295e-10)
(2.13363e-14 4.7207e-35 1.01739e-20 -116.735 -1.16476e-21 3.59825e-05 4.79498 0 2.0883e-09)
(-2.13363e-14 -3.81523e-21 0 -116.735 -3.04561e-05 3.60037e-05 4.79498 4.22739e-06 -2.07524e-09)
(-1.50951e-14 0 0 -112.664 4.20428e-05 3.4293e-05 4.69534 -5.03443e-06 -1.30517e-09)
(0 9.7313e-36 0 -112.664 3.50607e-20 3.42628e-05 4.69534 0 1.32123e-09)
(-8.85031e-15 -1.69271e-36 1.97688e-20 -108.719 -3.00925e-21 3.2188e-05 4.59716 -2.08809e-37 2.76524e-09)
(1.18318e-13 -1.29733e-20 0 -108.719 -3.60946e-05 3.22175e-05 4.59716 5.45203e-06 -2.7526e-09)
(0 -3.65352e-21 0 -104.895 5.07802e-05 3.04193e-05 4.50033 -6.39893e-06 -1.98527e-09)
(0 0 0 -104.895 3.53482e-21 3.03789e-05 4.50033 -8.47033e-22 2.00061e-09)
(-2.01391e-14 2.41729e-35 -9.60309e-21 -101.187 -4.35461e-20 2.82905e-05 4.40479 1.00366e-50 3.69948e-09)
(0 2.40077e-21 -9.60309e-21 -101.187 -4.09968e-05 2.83314e-05 4.4048 7.03483e-06 -3.68745e-09)
(-2.18869e-14 8.28227e-21 9.46546e-21 -97.5912 5.96234e-05 2.66047e-05 4.31049 -8.08929e-06 -2.95534e-09)
(9.14492e-14 -9.62965e-35 0 -97.5912 -8.94608e-21 2.65503e-05 4.31049 -7.01655e-35 2.96963e-09)
(1.9566e-14 9.62965e-35 0 -94.1014 0 2.43005e-05 4.21728 0 4.99441e-09)
(8.94962e-14 -1.39947e-20 0 -94.1014 -4.86278e-05 2.43571e-05 4.21728 8.98742e-06 -4.9832e-09)
(-1.33593e-14 -5.74754e-21 0 -90.7135 7.16375e-05 2.24977e-05 4.1251 -1.02727e-05 -4.33541e-09)
(0 1.42124e-21 0 -90.7135 6.66713e-20 2.24241e-05 4.12511 1.69407e-21 4.34831e-09)
(1.30921e-14 1.58541e-21 0 -87.4223 -3.45793e-34 1.9913e-05 4.03386 1.69407e-21 6.79505e-09)
(1.04737e-13 -1.58625e-20 0 -87.4223 -5.67707e-05 1.99913e-05 4.03386 1.14557e-05 -6.7849e-09)
(0 8.93435e-21 0 -84.2231 9.06449e-05 1.8377e-05 3.94341 -1.30396e-05 -6.2967e-09)
(5.1324e-14 0 0 -84.2231 8.08707e-20 1.82773e-05 3.94341 -1.2279e-34 6.30781e-09)
(3.10442e-14 4.09044e-21 0 -81.1119 -7.31343e-20 1.56217e-05 3.85368 0 9.3091e-09)
(-1.84682e-14 -2.20158e-21 0 -81.1119 -7.30573e-05 1.57297e-05 3.85368 1.47693e-05 -9.30025e-09)
(2.46544e-14 0 0 -78.0848 0.000114633 1.40359e-05 3.76456 -1.68632e-05 -9.08088e-09)
(4.93088e-14 -1.50463e-36 0 -78.0848 9.48677e-20 1.39003e-05 3.76456 0 9.08991e-09)
(0 6.76129e-48 2.25973e-20 -75.1386 1.06329e-20 9.29214e-06 3.676 3.38813e-21 1.28291e-08)
(0 0 0 -75.1386 -8.67448e-05 1.14093e-05 3.676 1.91869e-05 -1.28217e-08)
(1.76854e-14 0 0 -72.2705 0.000138269 9.78008e-06 3.58793 -2.17569e-05 -1.30348e-08)
(4.73907e-14 3.00927e-36 0 -72.2705 2.57949e-19 9.5952e-06 3.58793 3.38813e-21 1.30414e-08)
(2.32339e-14 1.36981e-20 1.4702e-19 -69.4779 -2.71051e-19 8.47033e-22 3.5003 0 0)
(0 -8.31218e-21 0 -69.4779 -0.000102485 2.85452e-06 3.5003 2.47089e-05 -1.77653e-08)
(2.85743e-14 4.09652e-21 0 -66.7588 0.0001713 5.24453e-06 3.41311 -2.79831e-05 -1.86501e-08)
(4.55689e-14 0 0 -66.7588 1.47115e-19 4.99162e-06 3.41311 -3.38813e-21 1.86541e-08)
(0 8.81885e-21 1.83704e-20 -64.1108 -3.25261e-19 4.23516e-22 3.32631 0 -3.30872e-24)
(4.46939e-14 -1.61512e-20 0 -64.1108 -0.00012276 1.97975e-06 3.32631 3.18063e-05 -2.47252e-08)
(-1.09606e-14 1.28108e-21 0 -61.5323 0.000213519 6.39881e-07 3.23989 -2.67572e-05 -2.66311e-08)
(-4.38426e-14 1.99589e-20 0 -61.5323 1.35525e-20 2.93026e-07 3.23989 0 2.66323e-08)
(-2.72076e-14 -1.30903e-34 -1.13141e-37 -59.0223 -2.38181e-19 -2.01104e-22 3.15385 -1.57627e-36 -1.3309e-39)
(0 -7.84579e-21 0 -59.0223 -0.000148587 -2.97015e-06 3.15386 4.09557e-05 -3.45493e-08)
(-1.05527e-14 3.60432e-21 0 -56.5804 0.000267548 -4.11106e-06 3.06824 -2.03856e-05 -3.79849e-08)
(-4.22109e-14 2.57146e-20 0 -56.5804 2.6966e-19 -4.58808e-06 3.06824 0 3.79835e-08)
(0 9.39796e-34 0 -54.2073 0 0 2.98315 6.77626e-21 1.32349e-23)
(0 -7.6225e-21 0 -54.2073 -0.000178574 -7.14212e-06 2.98315 5.27787e-05 -4.84524e-08)
(1.57564e-14 0 7.51325e-21 -51.9051 0.00033313 -9.0481e-06 2.89873 -1.05085e-05 -5.41573e-08)
(8.13449e-14 1.32408e-34 0 -51.9051 2.319e-19 -9.7093e-06 2.89873 -1.35525e-20 5.41542e-08)
(-2.5515e-14 0 0 -49.6773 0 0 2.81523 2.61333e-36 2.62991e-39)
(5.5468e-14 0 0 -49.6773 -0.0002097 -9.77844e-06 2.81523 6.78804e-05 -6.82745e-08)
(-1.5308e-14 -1.06367e-20 -7.29943e-21 -47.5287 3.79471e-19 -1.38055e-05 2.73299 0 -7.73335e-08)
(-3.92245e-14 6.48341e-19 0 -47.5288 0.000152903 -1.47161e-05 2.73299 -4.33178e-06 7.7329e-08)
(-1.50886e-14 4.33334e-34 4.81953e-37 -45.4653 -7.91941e-19 -8.7719e-22 2.65244 -1.00547e-35 1.32349e-23)
(0 7.19481e-20 -1.06864e-19 -45.4653 -0.000250393 -1.34111e-05 2.65244 8.70464e-05 -9.63745e-08)