/*--------------------------------*- C++ -*----------------------------------*\
| =========                 |                                                 |
| \\      /  F ield         | OpenFOAM: The Open Source CFD Toolbox           |
|  \\    /   O peration     | Version:  2012                                  |
|   \\  /    A nd           | Website:  www.openfoam.com                      |
|    \\/     M anipulation  |                                                 |
\*---------------------------------------------------------------------------*/
FoamFile
{
    version     2.0;
    format      ascii;
    class       volScalarField;
    location    "13700";
    object      p;
}
// * * * * * * * * * * * * * * * * * * * * * * * * * * * * * * * * * * * * * //

dimensions      [0 2 -2 0 0 0 0];


internalField   nonuniform List<scalar> 
2560
(
3.98921e-09
0.0014002
-2.5318e-08
0.00140014
-2.25094e-07
0.00139993
-8.25408e-07
0.00139934
-2.20413e-06
0.00139797
-4.91635e-06
0.00139527
-9.6185e-06
0.00139057
-1.70983e-05
0.00138309
-2.82974e-05
0.00137189
-4.42904e-05
0.00135591
-6.62877e-05
0.00133391
-9.56542e-05
0.00130455
-0.000133872
0.00126634
-0.000182576
0.00121764
-0.000243533
0.00115669
-0.00031865
0.00108158
-0.00040995
0.000990293
-0.000519593
0.00088066
-0.000649885
0.000750378
-0.000803236
0.000597039
-0.000982146
0.000418141
-0.00118929
0.000211012
-0.00142746
-2.71435e-05
-0.00169946
-0.000299131
-0.00200825
-0.000607906
-0.00235696
-0.000956604
-0.00274877
-0.00134839
-0.00318682
-0.00178642
-0.00367445
-0.00227403
-0.00421515
-0.00281471
-0.00481239
-0.00341193
-0.00546961
-0.00406913
-0.00619042
-0.00478993
-0.0069786
-0.00557808
-0.00783779
-0.00643724
-0.00877162
-0.00737105
-0.00978396
-0.00838336
-0.0108787
-0.00947808
-0.0120596
-0.010659
-0.0133305
-0.0119298
-0.0146952
-0.0132945
-0.0161578
-0.0147571
-0.0177221
-0.0163213
-0.0193919
-0.0179911
-0.0211712
-0.0197703
-0.0230638
-0.0216629
-0.0250736
-0.0236727
-0.0272044
-0.0258034
-0.02946
-0.028059
-0.0318448
-0.0304438
-0.0343618
-0.0329607
-0.0370139
-0.0356128
-0.0398072
-0.038406
-0.0427436
-0.0413424
-0.0458264
-0.0444251
-0.0490609
-0.0476596
-0.0524485
-0.0510471
-0.0559944
-0.054593
-0.0597007
-0.0582993
-0.0635704
-0.0621689
-0.0676075
-0.0662059
-0.0718149
-0.0704133
-0.0761963
-0.0747946
-0.080752
-0.0793503
-0.0854866
-0.0840848
-0.090404
-0.0890021
-0.0955032
-0.0941013
-0.100789
-0.0993874
-0.106262
-0.10486
-0.111927
-0.110525
-0.117782
-0.11638
-0.12383
-0.122428
-0.130073
-0.128671
-0.136511
-0.135109
-0.143147
-0.141745
-0.14998
-0.148577
-0.157012
-0.155609
-0.16424
-0.162837
-0.171667
-0.170265
-0.179292
-0.177889
-0.187115
-0.185712
-0.195132
-0.193729
-0.203346
-0.201943
-0.211753
-0.21035
-0.220351
-0.218948
-0.22914
-0.227736
-0.238116
-0.236712
-0.247277
-0.245873
-0.256621
-0.255217
-0.266143
-0.264739
-0.275838
-0.274434
-0.285706
-0.284302
-0.29574
-0.294336
-0.305938
-0.304533
-0.316291
-0.314886
-0.326798
-0.325393
-0.337453
-0.336048
-0.348247
-0.346843
-0.359179
-0.357774
-0.370239
-0.368834
-0.381422
-0.380017
-0.392724
-0.391318
-0.404132
-0.402727
-0.415644
-0.414238
-0.427251
-0.425845
-0.438945
-0.437539
-0.450719
-0.449314
-0.462566
-0.46116
-0.474476
-0.47307
-0.486444
-0.485038
-0.498458
-0.497052
-0.510513
-0.509106
-0.5226
-0.521193
-0.534708
-0.533301
-0.546833
-0.545426
-0.558962
-0.557555
-0.57109
-0.569683
-0.583207
-0.5818
-0.595306
-0.593899
-0.607376
-0.605969
-0.619411
-0.618004
-0.631403
-0.629995
-0.643342
-0.641934
-0.655223
-0.653815
-0.667035
-0.665627
-0.678772
-0.677363
-0.690427
-0.689018
-0.701989
-0.70058
-0.713456
-0.712047
-0.724816
-0.723407
-0.736066
-0.734656
-0.747195
-0.745785
-0.758201
-0.756792
-0.769073
-0.767663
-0.779808
-0.778398
-0.790396
-0.788986
-0.800837
-0.799426
-0.811117
-0.809707
-0.82124
-0.819829
-0.831189
-0.829779
-0.840972
-0.839561
-0.85057
-0.84916
-0.859994
-0.858582
-0.869223
-0.867812
-0.878271
-0.876858
-0.887113
-0.885702
-0.895771
-0.894357
-0.904213
-0.902801
-0.912467
-0.911053
-0.920498
-0.919087
-0.928341
-0.926925
-0.93595
-0.934539
-0.943372
-0.941956
-0.950551
-0.94914
-0.957548
-0.95613
-0.96429
-0.96288
-0.970857
-0.969436
-0.977157
-0.975747
-0.98329
-0.981867
-0.989145
-0.987736
-0.994846
-0.99342
-1.00025
-0.998845
-1.00552
-1.00409
-1.01048
-1.00907
-1.01532
-1.01389
-1.01982
-1.01843
-1.02425
-1.02281
-1.0283
-1.02691
-1.03231
-1.03086
-1.03591
-1.03452
-1.03952
-1.03806
-1.04267
-1.04129
-1.04589
-1.04442
-1.04858
-1.04722
-1.05144
-1.04994
-1.05367
-1.05234
-1.05619
-1.05466
-1.05796
-1.05665
-1.06016
-1.0586
-1.06147
-1.06021
-1.0634
-1.06179
-1.06424
-1.06303
-1.06594
-1.06425
-1.06645
-1.06515
-1.06781
-1.06603
-1.06815
-1.06661
-1.06903
-1.06714
-1.06921
-1.06743
-1.06963
-1.06763
-1.06965
-1.06763
-1.0693
-1.06751
-1.06915
-1.06724
-1.06838
-1.0668
-1.06809
-1.06628
-1.06692
-1.06554
-1.0665
-1.06476
-1.06502
-1.06375
-1.0644
-1.06273
-1.06278
-1.06146
-1.06183
-1.0602
-1.06006
-1.05869
-1.0588
-1.05721
-1.05688
-1.05547
-1.05534
-1.05377
-1.05326
-1.05182
-1.05145
-1.0499
-1.04921
-1.04775
-1.04717
-1.04562
-1.04476
-1.04328
-1.04249
-1.04095
-1.03992
-1.03843
-1.03745
-1.03591
-1.03472
-1.03322
-1.03206
-1.03051
-1.02917
-1.02765
-1.02633
-1.02478
-1.02329
-1.02176
-1.02027
-1.01872
-1.01709
-1.01554
-1.01389
-1.01233
-1.01055
-1.00899
-1.00718
-1.00561
-1.00367
-1.0021
-1.00012
-0.99854
-0.996431
-0.994852
-0.992693
-0.991104
-0.988829
-0.987238
-0.984912
-0.983312
-0.980884
-0.97928
-0.9768
-0.975188
-0.972613
-0.970996
-0.968363
-0.966738
-0.96401
-0.96238
-0.959588
-0.957949
-0.955062
-0.953417
-0.95046
-0.948808
-0.945759
-0.9441
-0.940978
-0.939311
-0.936096
-0.934422
-0.931129
-0.929447
-0.926065
-0.924376
-0.920917
-0.919221
-0.915682
-0.913978
-0.910367
-0.908655
-0.904969
-0.90325
-0.899488
-0.897761
-0.893928
-0.892194
-0.888283
-0.886541
-0.882558
-0.880809
-0.876742
-0.874986
-0.870844
-0.869081
-0.864849
-0.86308
-0.858779
-0.857004
-0.852611
-0.85083
-0.846373
-0.844587
-0.84004
-0.83825
-0.833654
-0.831859
-0.82718
-0.825381
-0.820668
-0.818865
-0.814065
-0.812259
-0.807426
-0.805617
-0.800672
-0.798862
-0.793873
-0.792062
-0.786938
-0.785125
-0.77995
-0.778137
-0.772812
-0.770999
-0.765642
-0.763828
-0.758326
-0.756512
-0.751013
-0.749197
-0.743557
-0.741741
-0.736128
-0.73431
-0.728531
-0.726711
-0.720966
-0.719143
-0.713205
-0.71138
-0.705505
-0.703674
-0.697588
-0.695753
-0.689762
-0.687919
-0.681689
-0.679837
-0.673739
-0.671874
-0.665499
-0.66362
-0.657421
-0.655521
-0.649007
-0.647087
-0.640819
-0.638868
-0.632257
-0.630277
-0.624
-0.621976
-0.615323
-0.613258
-0.607049
-0.604924
-0.598303
-0.596123
-0.590075
-0.587816
-0.581305
-0.578978
-0.573183
-0.570756
-0.564422
-0.561916
-0.556456
-0.553826
-0.547731
-0.545018
-0.539975
-0.537112
-0.531287
-0.528343
-0.523752
-0.520621
-0.515079
-0.511873
-0.507823
-0.504378
-0.499208
-0.495706
-0.492357
-0.488544
-0.483898
-0.480073
-0.477656
-0.473417
-0.469455
-0.46529
-0.463973
-0.45925
-0.456016
-0.451511
-0.451371
-0.446101
-0.443592
-0.438778
-0.439925
-0.434058
-0.43233
-0.427264
-0.429866
-0.423349
-0.410146
-0.417216
-0.408082
-0.414029
-0.401608
-0.409059
-0.399983
-0.406529
-0.394866
-0.402823
-0.393731
-0.401038
-0.390099
-0.398684
-0.389492
-0.397715
-0.387564
-0.39688
0.00140033
-1.99372e-06
0.00140027
-2.0269e-06
0.00140006
-2.22713e-06
0.00139947
-2.82694e-06
0.0013981
-4.20534e-06
0.00139539
-6.91692e-06
0.00139069
-1.16183e-05
0.00138322
-1.90964e-05
0.00137202
-3.02939e-05
0.00135604
-4.62842e-05
0.00133404
-6.82788e-05
0.00130468
-9.76412e-05
0.00126647
-0.000135855
0.00121778
-0.000184554
0.00115683
-0.000245506
0.00108172
-0.000320616
0.000990431
-0.00041191
0.000880801
-0.000521545
0.00075052
-0.000651831
0.000597184
-0.000805172
0.000418287
-0.000984075
0.00021116
-0.00119121
-2.69928e-05
-0.00142937
-0.000298978
-0.00170136
-0.00060775
-0.00201014
-0.000956446
-0.00235884
-0.00134823
-0.00275064
-0.00178626
-0.00318867
-0.00227387
-0.00367629
-0.00281454
-0.00421697
-0.00341176
-0.0048142
-0.00406896
-0.00547141
-0.00478975
-0.00619221
-0.0055779
-0.00698038
-0.00643706
-0.00783955
-0.00737087
-0.00877337
-0.00838317
-0.00978569
-0.00947789
-0.0108804
-0.0106588
-0.0120613
-0.0119296
-0.0133322
-0.0132943
-0.0146969
-0.0147568
-0.0161594
-0.0163211
-0.0177238
-0.0179909
-0.0193935
-0.0197701
-0.0211728
-0.0216627
-0.0230653
-0.0236725
-0.0250752
-0.0258032
-0.0272059
-0.0280588
-0.0294616
-0.0304435
-0.0318463
-0.0329605
-0.0343633
-0.0356126
-0.0370154
-0.0384058
-0.0398087
-0.0413421
-0.042745
-0.0444249
-0.0458278
-0.0476594
-0.0490623
-0.0510469
-0.0524499
-0.0545927
-0.0559958
-0.058299
-0.0597021
-0.0621687
-0.0635718
-0.0662057
-0.0676088
-0.070413
-0.0718162
-0.0747943
-0.0761976
-0.07935
-0.0807533
-0.0840845
-0.0854878
-0.0890018
-0.0904052
-0.0941011
-0.0955045
-0.0993871
-0.100791
-0.10486
-0.106263
-0.110524
-0.111928
-0.116379
-0.117783
-0.122427
-0.123831
-0.128671
-0.130075
-0.135109
-0.136513
-0.141744
-0.143148
-0.148577
-0.149981
-0.155609
-0.157013
-0.162837
-0.164241
-0.170264
-0.171669
-0.177888
-0.179293
-0.185711
-0.187116
-0.193729
-0.195133
-0.201942
-0.203347
-0.21035
-0.211754
-0.218948
-0.220352
-0.227736
-0.229141
-0.236712
-0.238117
-0.245873
-0.247278
-0.255217
-0.256622
-0.264738
-0.266143
-0.274434
-0.275839
-0.284301
-0.285707
-0.294336
-0.295741
-0.304533
-0.305939
-0.314886
-0.316292
-0.325393
-0.326799
-0.336048
-0.337454
-0.346842
-0.348248
-0.357774
-0.35918
-0.368834
-0.370239
-0.380017
-0.381423
-0.391318
-0.392724
-0.402727
-0.404133
-0.414238
-0.415644
-0.425845
-0.427252
-0.437539
-0.438945
-0.449313
-0.45072
-0.46116
-0.462567
-0.47307
-0.474477
-0.485038
-0.486445
-0.497052
-0.498459
-0.509106
-0.510513
-0.521193
-0.5226
-0.533301
-0.534708
-0.545426
-0.546833
-0.557554
-0.558962
-0.569682
-0.57109
-0.581799
-0.583207
-0.593899
-0.595307
-0.605969
-0.607377
-0.618003
-0.619412
-0.629995
-0.631404
-0.641934
-0.643343
-0.653815
-0.655223
-0.665627
-0.667036
-0.677363
-0.678772
-0.689018
-0.690427
-0.70058
-0.701989
-0.712047
-0.713457
-0.723407
-0.724817
-0.734656
-0.736066
-0.745785
-0.747195
-0.756792
-0.758202
-0.767663
-0.769073
-0.778398
-0.779809
-0.788986
-0.790396
-0.799426
-0.800837
-0.809707
-0.811117
-0.819829
-0.82124
-0.829779
-0.83119
-0.83956
-0.840973
-0.849159
-0.850571
-0.858582
-0.859995
-0.867812
-0.869223
-0.876858
-0.878271
-0.885702
-0.887113
-0.894357
-0.895771
-0.902801
-0.904213
-0.911053
-0.912468
-0.919086
-0.920498
-0.926925
-0.928341
-0.934538
-0.93595
-0.941955
-0.943373
-0.94914
-0.950552
-0.956129
-0.957548
-0.96288
-0.964291
-0.969436
-0.970857
-0.975747
-0.977157
-0.981867
-0.983291
-0.987736
-0.989145
-0.99342
-0.994846
-0.998845
-1.00025
-1.00409
-1.00552
-1.00907
-1.01048
-1.01389
-1.01532
-1.01843
-1.01983
-1.02281
-1.02425
-1.02691
-1.0283
-1.03086
-1.03231
-1.03452
-1.03591
-1.03806
-1.03952
-1.04129
-1.04267
-1.04442
-1.04589
-1.04722
-1.04858
-1.04994
-1.05144
-1.05234
-1.05367
-1.05466
-1.05619
-1.05665
-1.05796
-1.0586
-1.06016
-1.06021
-1.06148
-1.06179
-1.0634
-1.06303
-1.06424
-1.06425
-1.06594
-1.06515
-1.06645
-1.06603
-1.06781
-1.06661
-1.06815
-1.06714
-1.06903
-1.06743
-1.06921
-1.06763
-1.06963
-1.06763
-1.06965
-1.06751
-1.0693
-1.06724
-1.06915
-1.0668
-1.06838
-1.06628
-1.06809
-1.06554
-1.06692
-1.06476
-1.0665
-1.06375
-1.06502
-1.06273
-1.0644
-1.06146
-1.06278
-1.0602
-1.06183
-1.05869
-1.06007
-1.05721
-1.0588
-1.05547
-1.05688
-1.05377
-1.05534
-1.05182
-1.05326
-1.0499
-1.05145
-1.04775
-1.04921
-1.04562
-1.04717
-1.04328
-1.04476
-1.04095
-1.04249
-1.03843
-1.03992
-1.03591
-1.03745
-1.03322
-1.03472
-1.03051
-1.03206
-1.02765
-1.02917
-1.02478
-1.02633
-1.02176
-1.02329
-1.01872
-1.02027
-1.01554
-1.01709
-1.01233
-1.01389
-1.00899
-1.01055
-1.00561
-1.00718
-1.0021
-1.00367
-0.99854
-1.00012
-0.994852
-0.996431
-0.991104
-0.992693
-0.987238
-0.988829
-0.983311
-0.984912
-0.97928
-0.980884
-0.975188
-0.976801
-0.970996
-0.972614
-0.966738
-0.968364
-0.96238
-0.964011
-0.957949
-0.959588
-0.953417
-0.955062
-0.948808
-0.950461
-0.9441
-0.945759
-0.939311
-0.940978
-0.934422
-0.936097
-0.929447
-0.931129
-0.924376
-0.926066
-0.91922
-0.920918
-0.913978
-0.915683
-0.908655
-0.910367
-0.90325
-0.904969
-0.897761
-0.899489
-0.892194
-0.893929
-0.886541
-0.888283
-0.880809
-0.882559
-0.874986
-0.876742
-0.869081
-0.870844
-0.86308
-0.86485
-0.857004
-0.858779
-0.85083
-0.852611
-0.844587
-0.846374
-0.83825
-0.840041
-0.831859
-0.833654
-0.82538
-0.82718
-0.818865
-0.820669
-0.812259
-0.814066
-0.805617
-0.807426
-0.798862
-0.800673
-0.792061
-0.793874
-0.785125
-0.786938
-0.778137
-0.779951
-0.770999
-0.772812
-0.763828
-0.765642
-0.756512
-0.758326
-0.749197
-0.751013
-0.741741
-0.743558
-0.73431
-0.736128
-0.726711
-0.728531
-0.719143
-0.720966
-0.71138
-0.713205
-0.703674
-0.705505
-0.695753
-0.697588
-0.687919
-0.689763
-0.679837
-0.681689
-0.671874
-0.673739
-0.66362
-0.665499
-0.655521
-0.657421
-0.647086
-0.649007
-0.638868
-0.640819
-0.630276
-0.632258
-0.621976
-0.624
-0.613257
-0.615324
-0.604924
-0.607049
-0.596123
-0.598304
-0.587816
-0.590075
-0.578978
-0.581305
-0.570755
-0.573183
-0.561916
-0.564423
-0.553826
-0.556457
-0.545018
-0.547731
-0.537112
-0.539975
-0.528342
-0.531288
-0.520621
-0.523752
-0.511872
-0.51508
-0.504378
-0.507823
-0.495705
-0.499208
-0.488544
-0.492358
-0.480072
-0.483899
-0.473417
-0.477656
-0.46529
-0.469456
-0.459249
-0.463974
-0.451511
-0.456016
-0.446101
-0.451372
-0.438777
-0.443592
-0.434058
-0.439925
-0.427264
-0.43233
-0.423349
-0.429867
-0.417216
-0.410144
-0.414029
-0.408081
-0.409059
-0.401607
-0.406529
-0.399982
-0.402823
-0.394865
-0.401038
-0.39373
-0.398684
-0.390098
-0.397715
-0.389491
-0.39688
-0.387563
-0.387564
-0.39688
-0.389492
-0.397714
-0.390099
-0.398684
-0.393732
-0.401037
-0.394867
-0.402823
-0.399986
-0.406525
-0.40161
-0.409059
-0.408082
-0.414025
-0.410145
-0.417213
-0.429846
-0.423347
-0.43231
-0.427263
-0.439904
-0.434056
-0.443572
-0.438776
-0.451352
-0.4461
-0.455998
-0.45151
-0.463954
-0.459246
-0.469435
-0.465285
-0.477637
-0.473413
-0.483878
-0.480066
-0.492341
-0.488541
-0.49919
-0.4957
-0.507806
-0.504373
-0.515061
-0.511866
-0.523732
-0.520612
-0.531269
-0.528334
-0.53996
-0.537107
-0.547712
-0.545008
-0.556441
-0.553821
-0.564406
-0.561909
-0.573163
-0.570744
-0.581291
-0.578972
-0.59006
-0.587809
-0.598293
-0.59612
-0.607034
-0.604915
-0.615314
-0.613255
-0.623983
-0.621965
-0.632241
-0.630266
-0.640804
-0.638859
-0.648989
-0.647075
-0.657408
-0.655514
-0.665483
-0.66361
-0.673725
-0.671865
-0.681674
-0.679828
-0.68975
-0.687912
-0.697571
-0.695742
-0.705492
-0.703667
-0.713189
-0.711368
-0.72095
-0.719133
-0.728514
-0.726699
-0.736114
-0.7343
-0.74354
-0.741728
-0.751002
-0.749191
-0.758312
-0.756503
-0.765623
-0.763814
-0.772798
-0.77099
-0.779935
-0.778127
-0.786926
-0.785119
-0.793859
-0.792051
-0.800656
-0.798851
-0.807408
-0.805604
-0.814057
-0.812256
-0.820654
-0.818856
-0.827169
-0.825375
-0.833641
-0.831851
-0.84003
-0.838244
-0.846357
-0.844576
-0.852591
-0.850815
-0.858768
-0.856998
-0.864836
-0.863071
-0.870835
-0.869077
-0.876725
-0.874974
-0.88254
-0.880795
-0.888268
-0.886531
-0.89391
-0.89218
-0.89947
-0.897748
-0.904953
-0.903238
-0.910355
-0.908647
-0.915673
-0.913973
-0.92091
-0.919217
-0.926055
-0.924371
-0.931116
-0.929438
-0.936084
-0.934415
-0.940963
-0.9393
-0.945744
-0.944089
-0.95045
-0.948801
-0.955045
-0.953405
-0.959569
-0.957935
-0.963999
-0.962373
-0.96835
-0.966729
-0.972594
-0.970981
-0.976786
-0.975178
-0.980869
-0.979269
-0.984895
-0.983299
-0.988812
-0.987225
-0.992684
-0.991099
-0.996421
-0.994847
-1.0001
-0.99853
-1.00366
-1.0021
-1.00717
-1.0056
-1.01053
-1.00898
-1.01388
-1.01232
-1.01708
-1.01554
-1.02026
-1.01871
-1.02328
-1.02175
-1.02632
-1.02478
-1.02916
-1.02765
-1.03204
-1.0305
-1.03471
-1.03321
-1.03744
-1.0359
-1.03991
-1.03842
-1.04248
-1.04094
-1.04474
-1.04327
-1.04715
-1.04561
-1.0492
-1.04774
-1.05144
-1.04989
-1.05324
-1.05181
-1.05532
-1.05375
-1.05687
-1.05547
-1.05879
-1.0572
-1.06005
-1.05868
-1.06182
-1.06019
-1.06277
-1.06145
-1.06439
-1.06272
-1.065
-1.06374
-1.06649
-1.06476
-1.06691
-1.06553
-1.06808
-1.06627
-1.06837
-1.06679
-1.06914
-1.06723
-1.06929
-1.0675
-1.06964
-1.06762
-1.06962
-1.06762
-1.0692
-1.06742
-1.06902
-1.06714
-1.06813
-1.0666
-1.06779
-1.06602
-1.06644
-1.06514
-1.06593
-1.06424
-1.06422
-1.06302
-1.06339
-1.06178
-1.06146
-1.0602
-1.06015
-1.05859
-1.05795
-1.05665
-1.05618
-1.05466
-1.05366
-1.05232
-1.05142
-1.04992
-1.04856
-1.04721
-1.04589
-1.04441
-1.04266
-1.04129
-1.03951
-1.03805
-1.03591
-1.03452
-1.0323
-1.03086
-1.02828
-1.02689
-1.02423
-1.02279
-1.0198
-1.01841
-1.01532
-1.01388
-1.01045
-1.00905
-1.0055
-1.00408
-1.00023
-0.998827
-0.994821
-0.993398
-0.989148
-0.987742
-0.983283
-0.981862
-0.977132
-0.975725
-0.970862
-0.969444
-0.964276
-0.962868
-0.95752
-0.956104
-0.95056
-0.949151
-0.943376
-0.941961
-0.935949
-0.93454
-0.928351
-0.926938
-0.920461
-0.919052
-0.912467
-0.911055
-0.904189
-0.90278
-0.895752
-0.89434
-0.887106
-0.885697
-0.87824
-0.876829
-0.869173
-0.867765
-0.859976
-0.858566
-0.850593
-0.849185
-0.840923
-0.839514
-0.831168
-0.829759
-0.821222
-0.819813
-0.811121
-0.809713
-0.800841
-0.799432
-0.790426
-0.789018
-0.779841
-0.778433
-0.769035
-0.767627
-0.758178
-0.75677
-0.747232
-0.745825
-0.736025
-0.734618
-0.724749
-0.723342
-0.713463
-0.712056
-0.702013
-0.700607
-0.690448
-0.689041
-0.678732
-0.677325
-0.667051
-0.665645
-0.65524
-0.653834
-0.643352
-0.641945
-0.631346
-0.629941
-0.619433
-0.618027
-0.60742
-0.606014
-0.59523
-0.593825
-0.583258
-0.581852
-0.571131
-0.569725
-0.558937
-0.557532
-0.54676
-0.545355
-0.534702
-0.533297
-0.522517
-0.521112
-0.510482
-0.509077
-0.4985
-0.497095
-0.48636
-0.484955
-0.474459
-0.473054
-0.462596
-0.461192
-0.450645
-0.449241
-0.43893
-0.437526
-0.427321
-0.425917
-0.415618
-0.414214
-0.404034
-0.40263
-0.392741
-0.391337
-0.381401
-0.379997
-0.370194
-0.36879
-0.359133
-0.357729
-0.348232
-0.346829
-0.337486
-0.336083
-0.32674
-0.325337
-0.316344
-0.31494
-0.305965
-0.304561
-0.295766
-0.294363
-0.285781
-0.284378
-0.275809
-0.274406
-0.266062
-0.264659
-0.256524
-0.255121
-0.247223
-0.245821
-0.238139
-0.236736
-0.229123
-0.22772
-0.220331
-0.218929
-0.211797
-0.210394
-0.203317
-0.201914
-0.195103
-0.193701
-0.187122
-0.18572
-0.179245
-0.177842
-0.171602
-0.170199
-0.16424
-0.162837
-0.156944
-0.155542
-0.149938
-0.148536
-0.143156
-0.141754
-0.136514
-0.135113
-0.130087
-0.128686
-0.123813
-0.122411
-0.117747
-0.116345
-0.111991
-0.110589
-0.106282
-0.10488
-0.100752
-0.09935
-0.0955402
-0.0941387
-0.0903792
-0.0889777
-0.0855206
-0.0841191
-0.0807197
-0.0793182
-0.076215
-0.0748135
-0.0717631
-0.0703617
-0.0676115
-0.0662101
-0.0636133
-0.062212
-0.0596921
-0.0582908
-0.0560168
-0.0546155
-0.0524357
-0.0510345
-0.0490766
-0.0476754
-0.0458208
-0.0444196
-0.0427689
-0.0413677
-0.0398227
-0.0384215
-0.0369765
-0.0355753
-0.0343291
-0.032928
-0.0318563
-0.0304551
-0.0294897
-0.0280886
-0.0272047
-0.0258037
-0.0250324
-0.0236313
-0.0230797
-0.0216785
-0.0211618
-0.0197607
-0.0193838
-0.0179827
-0.0177026
-0.0163016
-0.0161566
-0.0147556
-0.0146923
-0.0132913
-0.0133089
-0.0119079
-0.0120457
-0.0106448
-0.0108655
-0.00946456
-0.00978554
-0.00838461
-0.00874749
-0.00734656
-0.00783661
-0.00643564
-0.00696694
-0.00556599
-0.00617582
-0.00477489
-0.00545631
-0.00405539
-0.00480715
-0.00340624
-0.0042185
-0.0028176
-0.00366893
-0.00226803
-0.00317414
-0.00177324
-0.00273794
-0.00133705
-0.00234678
-0.000945897
-0.00199051
-0.00058964
-0.00168826
-0.000287376
-0.00141572
-1.48387e-05
-0.00117593
0.000224946
-0.000972729
0.000428144
-0.000796238
0.000604627
-0.000640942
0.000759923
-0.00050892
0.000891946
-0.000400688
0.00100017
-0.000310321
0.00109053
-0.000233831
0.00116703
-0.000171959
0.0012289
-0.000123843
0.00127701
-8.60616e-05
0.00131479
-5.61399e-05
0.00134471
-3.3884e-05
0.00136697
-1.81444e-05
0.0013827
-7.12274e-06
0.00139372
4.79373e-07
0.00140133
5.21065e-06
0.00140606
7.87522e-06
0.00140872
9.23257e-06
0.00141007
9.84376e-06
0.00141068
1.00547e-05
0.0014109
1.00952e-05
0.00141095
-0.39688
-0.387563
-0.397714
-0.389491
-0.398684
-0.390098
-0.401036
-0.393731
-0.402823
-0.394866
-0.406525
-0.399985
-0.409059
-0.40161
-0.414025
-0.408081
-0.417213
-0.410145
-0.423347
-0.429846
-0.427263
-0.43231
-0.434056
-0.439904
-0.438776
-0.443572
-0.446101
-0.451352
-0.45151
-0.455998
-0.459246
-0.463954
-0.465285
-0.469435
-0.473413
-0.477637
-0.480066
-0.483878
-0.488541
-0.492341
-0.495701
-0.49919
-0.504373
-0.507806
-0.511866
-0.515061
-0.520612
-0.523732
-0.528334
-0.531269
-0.537108
-0.53996
-0.545009
-0.547712
-0.553821
-0.556441
-0.561909
-0.564406
-0.570744
-0.573164
-0.578972
-0.581291
-0.587809
-0.59006
-0.59612
-0.598293
-0.604916
-0.607034
-0.613255
-0.615314
-0.621965
-0.623983
-0.630266
-0.632241
-0.638859
-0.640804
-0.647075
-0.648989
-0.655514
-0.657408
-0.66361
-0.665483
-0.671866
-0.673725
-0.679828
-0.681674
-0.687912
-0.68975
-0.695742
-0.697572
-0.703667
-0.705492
-0.711369
-0.713189
-0.719133
-0.72095
-0.7267
-0.728514
-0.7343
-0.736114
-0.741729
-0.74354
-0.749191
-0.751002
-0.756503
-0.758312
-0.763815
-0.765624
-0.77099
-0.772798
-0.778127
-0.779935
-0.785119
-0.786926
-0.792052
-0.793859
-0.798851
-0.800657
-0.805604
-0.807408
-0.812256
-0.814057
-0.818857
-0.820655
-0.825375
-0.827169
-0.831851
-0.833641
-0.838244
-0.84003
-0.844576
-0.846357
-0.850816
-0.852592
-0.856998
-0.858768
-0.863071
-0.864836
-0.869078
-0.870836
-0.874974
-0.876725
-0.880795
-0.88254
-0.886531
-0.888268
-0.89218
-0.89391
-0.897748
-0.89947
-0.903238
-0.904953
-0.908648
-0.910355
-0.913973
-0.915673
-0.919217
-0.92091
-0.924371
-0.926056
-0.929439
-0.931116
-0.934415
-0.936084
-0.9393
-0.940963
-0.944089
-0.945744
-0.948801
-0.95045
-0.953405
-0.955045
-0.957935
-0.959569
-0.962373
-0.963999
-0.966729
-0.96835
-0.970981
-0.972594
-0.975178
-0.976786
-0.979269
-0.980869
-0.983299
-0.984895
-0.987225
-0.988812
-0.991099
-0.992684
-0.994847
-0.996421
-0.99853
-1.0001
-1.0021
-1.00366
-1.0056
-1.00717
-1.00898
-1.01053
-1.01232
-1.01388
-1.01554
-1.01708
-1.01871
-1.02026
-1.02175
-1.02328
-1.02478
-1.02632
-1.02765
-1.02916
-1.0305
-1.03204
-1.03321
-1.03471
-1.0359
-1.03744
-1.03842
-1.03991
-1.04094
-1.04248
-1.04327
-1.04474
-1.04561
-1.04715
-1.04774
-1.0492
-1.04989
-1.05144
-1.05181
-1.05324
-1.05375
-1.05532
-1.05547
-1.05687
-1.0572
-1.05879
-1.05868
-1.06005
-1.06019
-1.06182
-1.06145
-1.06277
-1.06272
-1.06439
-1.06374
-1.065
-1.06476
-1.06649
-1.06553
-1.06691
-1.06627
-1.06808
-1.06679
-1.06837
-1.06723
-1.06914
-1.0675
-1.06929
-1.06762
-1.06964
-1.06762
-1.06962
-1.06742
-1.0692
-1.06714
-1.06902
-1.0666
-1.06813
-1.06602
-1.06779
-1.06514
-1.06644
-1.06424
-1.06593
-1.06302
-1.06422
-1.06178
-1.06339
-1.0602
-1.06146
-1.05859
-1.06015
-1.05665
-1.05795
-1.05466
-1.05618
-1.05232
-1.05366
-1.04992
-1.05142
-1.04721
-1.04856
-1.04441
-1.04589
-1.04129
-1.04266
-1.03805
-1.03951
-1.03452
-1.03591
-1.03086
-1.0323
-1.02689
-1.02828
-1.02279
-1.02423
-1.01841
-1.0198
-1.01389
-1.01532
-1.00905
-1.01045
-1.00408
-1.0055
-0.998828
-1.00023
-0.993398
-0.994821
-0.987743
-0.989148
-0.981863
-0.983283
-0.975725
-0.977132
-0.969444
-0.970862
-0.962869
-0.964276
-0.956104
-0.95752
-0.949151
-0.95056
-0.941962
-0.943376
-0.93454
-0.935949
-0.926938
-0.928351
-0.919052
-0.920461
-0.911055
-0.912467
-0.90278
-0.904189
-0.89434
-0.895752
-0.885697
-0.887106
-0.876829
-0.87824
-0.867765
-0.869173
-0.858566
-0.859976
-0.849185
-0.850594
-0.839514
-0.840924
-0.82976
-0.831168
-0.819813
-0.821222
-0.809714
-0.811121
-0.799432
-0.800841
-0.789018
-0.790426
-0.778433
-0.779841
-0.767627
-0.769035
-0.75677
-0.758178
-0.745825
-0.747232
-0.734618
-0.736026
-0.723342
-0.724749
-0.712057
-0.713463
-0.700607
-0.702013
-0.689041
-0.690448
-0.677326
-0.678732
-0.665645
-0.667051
-0.653834
-0.65524
-0.641946
-0.643352
-0.629941
-0.631347
-0.618027
-0.619433
-0.606014
-0.60742
-0.593825
-0.59523
-0.581852
-0.583258
-0.569726
-0.571131
-0.557532
-0.558937
-0.545355
-0.54676
-0.533297
-0.534702
-0.521112
-0.522517
-0.509077
-0.510482
-0.497095
-0.4985
-0.484956
-0.48636
-0.473055
-0.474459
-0.461192
-0.462596
-0.449241
-0.450645
-0.437526
-0.43893
-0.425917
-0.427321
-0.414214
-0.415618
-0.402631
-0.404034
-0.391337
-0.392741
-0.379997
-0.381401
-0.36879
-0.370194
-0.357729
-0.359133
-0.346829
-0.348232
-0.336083
-0.337486
-0.325337
-0.32674
-0.314941
-0.316344
-0.304562
-0.305965
-0.294363
-0.295766
-0.284379
-0.285782
-0.274406
-0.275809
-0.264659
-0.266062
-0.255121
-0.256524
-0.245821
-0.247224
-0.236736
-0.238139
-0.22772
-0.229123
-0.218929
-0.220331
-0.210394
-0.211797
-0.201914
-0.203317
-0.193701
-0.195103
-0.18572
-0.187122
-0.177843
-0.179245
-0.1702
-0.171602
-0.162838
-0.16424
-0.155542
-0.156944
-0.148536
-0.149938
-0.141755
-0.143156
-0.135113
-0.136515
-0.128686
-0.130087
-0.122412
-0.123813
-0.116345
-0.117747
-0.110589
-0.111991
-0.10488
-0.106282
-0.0993502
-0.100752
-0.0941388
-0.0955403
-0.0889778
-0.0903793
-0.0841192
-0.0855207
-0.0793183
-0.0807198
-0.0748137
-0.0762151
-0.0703618
-0.0717632
-0.0662102
-0.0676116
-0.0622122
-0.0636134
-0.058291
-0.0596922
-0.0546157
-0.0560169
-0.0510346
-0.0524358
-0.0476756
-0.0490767
-0.0444197
-0.0458209
-0.0413679
-0.042769
-0.0384217
-0.0398228
-0.0355755
-0.0369766
-0.0329282
-0.0343292
-0.0304553
-0.0318564
-0.0280888
-0.0294898
-0.0258038
-0.0272048
-0.0236315
-0.0250325
-0.0216787
-0.0230797
-0.0197609
-0.0211619
-0.0179829
-0.0193838
-0.0163018
-0.0177027
-0.0147557
-0.0161567
-0.0132915
-0.0146924
-0.0119081
-0.013309
-0.0106449
-0.0120458
-0.00946474
-0.0108656
-0.00838478
-0.00978564
-0.00734674
-0.00874758
-0.00643581
-0.0078367
-0.00556617
-0.00696704
-0.00477507
-0.00617591
-0.00405556
-0.00545641
-0.00340641
-0.00480725
-0.00281778
-0.0042186
-0.0022682
-0.00366902
-0.00177341
-0.00317424
-0.00133723
-0.00273804
-0.000946075
-0.00234687
-0.000589818
-0.00199061
-0.000287554
-0.00168835
-1.50167e-05
-0.00141581
0.000224768
-0.00117602
0.000427965
-0.000972826
0.000604448
-0.000796335
0.000759745
-0.000641039
0.000891768
-0.000509017
0.000999996
-0.000400785
0.00109036
-0.000310418
0.00116685
-0.000233928
0.00122872
-0.000172057
0.00127683
-0.00012394
0.00131461
-8.61589e-05
0.00134453
-5.62373e-05
0.00136679
-3.39814e-05
0.00138253
-1.82418e-05
0.00139355
-7.22024e-06
0.00140115
3.81862e-07
0.00140588
5.11312e-06
0.00140854
7.77768e-06
0.00140989
9.135e-06
0.0014105
9.74617e-06
0.00141072
9.95712e-06
0.00141077
9.99765e-06
)
;

boundaryField
{
    walls
    {
        type            zeroGradient;
    }
    inlet
    {
        type            cyclic;
    }
    outlet
    {
        type            cyclic;
    }
    sides
    {
        type            empty;
    }
}


// ************************************************************************* //
