/*--------------------------------*- C++ -*----------------------------------*\
| =========                 |                                                 |
| \\      /  F ield         | OpenFOAM: The Open Source CFD Toolbox           |
|  \\    /   O peration     | Version:  2012                                  |
|   \\  /    A nd           | Website:  www.openfoam.com                      |
|    \\/     M anipulation  |                                                 |
\*---------------------------------------------------------------------------*/
FoamFile
{
    version     2.0;
    format      ascii;
    class       volScalarField;
    location    "15000";
    object      p;
}
// * * * * * * * * * * * * * * * * * * * * * * * * * * * * * * * * * * * * * //

dimensions      [0 2 -2 0 0 0 0];


internalField   nonuniform List<scalar> 
40
(
2.26405e-16
4.07264e-17
4.09376e-16
1.06325e-16
9.32067e-16
9.77253e-16
1.93925e-15
2.17821e-15
9.57754e-15
9.82201e-15
4.96384e-16
4.28838e-16
4.90307e-16
4.15673e-16
5.36532e-16
5.90798e-16
2.19258e-15
2.24079e-15
9.99038e-15
1.00843e-14
2.08094e-14
2.08004e-14
2.10673e-14
2.10672e-14
2.11088e-14
2.11085e-14
2.11156e-14
2.11153e-14
2.11115e-14
2.11121e-14
2.08853e-14
2.08385e-14
2.10682e-14
2.10679e-14
2.1111e-14
2.11094e-14
2.11242e-14
2.11156e-14
2.11214e-14
2.11153e-14
)
;

boundaryField
{
    walls
    {
        type            zeroGradient;
    }
    inlet
    {
        type            cyclic;
    }
    outlet
    {
        type            cyclic;
    }
    sides
    {
        type            empty;
    }
}


// ************************************************************************* //
