/*--------------------------------*- C++ -*----------------------------------*\
| =========                 |                                                 |
| \\      /  F ield         | OpenFOAM: The Open Source CFD Toolbox           |
|  \\    /   O peration     | Version:  2106                                  |
|   \\  /    A nd           | Website:  www.openfoam.com                      |
|    \\/     M anipulation  |                                                 |
\*---------------------------------------------------------------------------*/
FoamFile
{
    version     2.0;
    format      ascii;
    arch        "LSB;label=32;scalar=64";
    class       volScalarField;
    location    "1000";
    object      k;
}
// * * * * * * * * * * * * * * * * * * * * * * * * * * * * * * * * * * * * * //

dimensions      [0 2 -2 0 0 0 0];

internalField   nonuniform List<scalar> 
2560
(
9.10168e-07
9.10168e-07
1.34426e-07
1.34426e-07
4.51321e-08
4.51321e-08
3.62674e-08
3.62674e-08
5.92056e-08
5.92056e-08
1.12979e-07
1.12979e-07
2.0568e-07
2.0568e-07
3.48838e-07
3.48838e-07
5.56249e-07
5.56249e-07
8.4371e-07
8.4371e-07
1.22898e-06
1.22898e-06
1.73181e-06
1.73181e-06
2.37396e-06
2.37396e-06
3.17921e-06
3.17921e-06
4.17331e-06
4.17331e-06
5.38392e-06
5.38392e-06
6.84042e-06
6.84042e-06
8.57368e-06
8.57368e-06
1.06157e-05
1.06157e-05
1.29993e-05
1.29993e-05
1.57573e-05
1.57573e-05
1.89223e-05
1.89223e-05
2.25257e-05
2.25257e-05
2.6597e-05
2.6597e-05
3.11632e-05
3.11632e-05
3.62475e-05
3.62475e-05
4.18689e-05
4.18689e-05
4.80415e-05
4.80415e-05
5.47733e-05
5.47733e-05
6.20663e-05
6.20663e-05
6.99155e-05
6.99155e-05
7.83091e-05
7.83091e-05
8.72278e-05
8.72278e-05
9.66453e-05
9.66453e-05
0.000106529
0.000106529
0.000116838
0.000116838
0.000127527
0.000127527
0.000138545
0.000138545
0.000149836
0.000149836
0.00016134
0.00016134
0.000172994
0.000172994
0.000184733
0.000184733
0.000196489
0.000196489
0.000208197
0.000208197
0.000219789
0.000219789
0.0002312
0.0002312
0.000242366
0.000242366
0.000253226
0.000253226
0.000263722
0.000263722
0.0002738
0.0002738
0.000283409
0.000283409
0.000292503
0.000292503
0.000301042
0.000301042
0.000308989
0.000308989
0.000316313
0.000316313
0.000322987
0.000322987
0.000328992
0.000328992
0.00033431
0.00033431
0.000338933
0.000338933
0.000342852
0.000342852
0.000346067
0.000346067
0.000348582
0.000348582
0.000350403
0.000350403
0.000351541
0.000351541
0.000352012
0.000352012
0.000351833
0.000351833
0.000351026
0.000351026
0.000349613
0.000349613
0.000347622
0.000347622
0.000345079
0.000345079
0.000342016
0.000342016
0.000338463
0.000338463
0.000334453
0.000334453
0.000330017
0.000330017
0.000325191
0.000325191
0.000320008
0.000320008
0.000314502
0.000314502
0.000308707
0.000308707
0.000302655
0.000302655
0.00029638
0.00029638
0.000289914
0.000289914
0.000283288
0.000283288
0.000276532
0.000276532
0.000269675
0.000269675
0.000262744
0.000262744
0.000255767
0.000255767
0.000248767
0.000248767
0.000241769
0.000241769
0.000234794
0.000234794
0.000227863
0.000227863
0.000220995
0.000220995
0.000214208
0.000214208
0.000207517
0.000207517
0.000200937
0.000200937
0.000194481
0.000194481
0.00018816
0.00018816
0.000181985
0.000181985
0.000175965
0.000175965
0.000170108
0.000170108
0.00016442
0.00016442
0.000158905
0.000158905
0.000153569
0.000153569
0.000148415
0.000148415
0.000143445
0.000143445
0.000138659
0.000138659
0.00013406
0.00013406
0.000129646
0.000129646
0.000125417
0.000125417
0.000121371
0.000121371
0.000117507
0.000117507
0.00011382
0.00011382
0.00011031
0.00011031
0.000106972
0.000106972
0.000103802
0.000103802
0.000100797
0.000100797
9.79527e-05
9.79527e-05
9.52643e-05
9.52643e-05
9.27276e-05
9.27276e-05
9.0338e-05
9.0338e-05
8.80909e-05
8.80909e-05
8.59815e-05
8.59815e-05
8.40054e-05
8.40054e-05
8.21579e-05
8.21579e-05
8.04344e-05
8.04344e-05
7.88305e-05
7.88305e-05
7.73419e-05
7.73419e-05
7.59643e-05
7.59643e-05
7.46935e-05
7.46935e-05
7.35257e-05
7.35257e-05
7.24569e-05
7.24569e-05
7.14833e-05
7.14833e-05
7.06012e-05
7.06012e-05
6.98069e-05
6.98069e-05
6.9097e-05
6.9097e-05
6.84679e-05
6.84679e-05
6.79158e-05
6.79158e-05
6.74371e-05
6.74371e-05
6.70279e-05
6.70279e-05
6.66843e-05
6.66843e-05
6.6402e-05
6.6402e-05
6.61767e-05
6.61767e-05
6.60036e-05
6.60036e-05
6.58779e-05
6.58779e-05
6.57945e-05
6.57945e-05
6.57483e-05
6.57483e-05
6.57341e-05
6.57341e-05
6.57469e-05
6.57469e-05
6.57819e-05
6.57819e-05
6.58344e-05
6.58344e-05
6.59002e-05
6.59002e-05
6.59759e-05
6.59759e-05
6.6058e-05
6.6058e-05
6.61441e-05
6.61441e-05
6.62319e-05
6.62319e-05
6.63199e-05
6.63199e-05
6.64067e-05
6.64067e-05
6.64916e-05
6.64916e-05
6.65739e-05
6.65739e-05
6.66534e-05
6.66534e-05
6.67299e-05
6.67299e-05
6.68035e-05
6.68035e-05
6.68743e-05
6.68743e-05
6.69425e-05
6.69425e-05
6.70084e-05
6.70084e-05
6.70723e-05
6.70723e-05
6.71344e-05
6.71344e-05
6.71952e-05
6.71952e-05
6.72548e-05
6.72548e-05
6.73137e-05
6.73137e-05
6.73721e-05
6.73721e-05
6.74302e-05
6.74302e-05
6.74885e-05
6.74885e-05
6.7547e-05
6.7547e-05
6.76062e-05
6.76062e-05
6.76662e-05
6.76662e-05
6.77272e-05
6.77272e-05
6.77895e-05
6.77895e-05
6.78533e-05
6.78533e-05
6.79188e-05
6.79188e-05
6.79862e-05
6.79862e-05
6.80557e-05
6.80557e-05
6.81275e-05
6.81275e-05
6.82018e-05
6.82018e-05
6.82788e-05
6.82788e-05
6.83587e-05
6.83587e-05
6.84417e-05
6.84417e-05
6.85279e-05
6.85279e-05
6.86176e-05
6.86176e-05
6.87109e-05
6.87109e-05
6.88081e-05
6.88081e-05
6.89092e-05
6.89092e-05
6.90146e-05
6.90146e-05
6.91244e-05
6.91244e-05
6.92389e-05
6.92389e-05
6.93581e-05
6.93581e-05
6.94823e-05
6.94823e-05
6.96117e-05
6.96117e-05
6.97465e-05
6.97465e-05
6.98868e-05
6.98868e-05
7.0033e-05
7.0033e-05
7.01852e-05
7.01852e-05
7.03436e-05
7.03436e-05
7.05083e-05
7.05083e-05
7.06797e-05
7.06797e-05
7.08579e-05
7.08579e-05
7.10431e-05
7.10431e-05
7.12355e-05
7.12355e-05
7.14353e-05
7.14353e-05
7.16427e-05
7.16427e-05
7.1858e-05
7.1858e-05
7.20812e-05
7.20812e-05
7.23126e-05
7.23126e-05
7.25525e-05
7.25525e-05
7.28008e-05
7.28008e-05
7.3058e-05
7.3058e-05
7.3324e-05
7.3324e-05
7.35992e-05
7.35992e-05
7.38836e-05
7.38836e-05
7.41774e-05
7.41774e-05
7.44808e-05
7.44808e-05
7.47938e-05
7.47938e-05
7.51167e-05
7.51167e-05
7.54495e-05
7.54495e-05
7.57924e-05
7.57924e-05
7.61455e-05
7.61455e-05
7.65088e-05
7.65088e-05
7.68824e-05
7.68824e-05
7.72663e-05
7.72663e-05
7.76607e-05
7.76607e-05
7.80655e-05
7.80655e-05
7.84807e-05
7.84807e-05
7.89064e-05
7.89064e-05
7.93425e-05
7.93425e-05
7.97888e-05
7.97888e-05
8.02455e-05
8.02455e-05
8.07123e-05
8.07123e-05
8.11892e-05
8.11892e-05
8.1676e-05
8.1676e-05
8.21725e-05
8.21725e-05
8.26785e-05
8.26785e-05
8.31938e-05
8.31938e-05
8.37182e-05
8.37182e-05
8.42513e-05
8.42513e-05
8.47928e-05
8.47928e-05
8.53424e-05
8.53424e-05
8.58996e-05
8.58996e-05
8.64641e-05
8.64641e-05
8.70354e-05
8.70354e-05
8.7613e-05
8.7613e-05
8.81963e-05
8.81963e-05
8.87848e-05
8.87848e-05
8.93779e-05
8.93779e-05
8.99748e-05
8.99748e-05
9.05749e-05
9.05749e-05
9.11775e-05
9.11775e-05
9.17817e-05
9.17817e-05
9.23866e-05
9.23866e-05
9.29916e-05
9.29916e-05
9.35955e-05
9.35955e-05
9.41974e-05
9.41974e-05
9.47963e-05
9.47963e-05
9.53912e-05
9.53912e-05
9.59808e-05
9.59808e-05
9.65642e-05
9.65642e-05
9.71399e-05
9.71399e-05
9.77069e-05
9.77069e-05
9.82638e-05
9.82638e-05
9.88093e-05
9.88093e-05
9.93419e-05
9.93419e-05
9.98603e-05
9.98603e-05
0.000100363
0.000100363
0.000100849
0.000100849
0.000101315
0.000101315
0.000101762
0.000101762
0.000102187
0.000102187
0.000102588
0.000102588
0.000102964
0.000102964
0.000103313
0.000103313
0.000103634
0.000103634
0.000103925
0.000103925
0.000104185
0.000104185
0.000104411
0.000104411
0.000104602
0.000104602
0.000104757
0.000104757
0.000104875
0.000104875
0.000104953
0.000104953
0.00010499
0.00010499
0.000104985
0.000104985
0.000104938
0.000104938
0.000104847
0.000104847
0.00010471
0.00010471
0.000104528
0.000104528
0.0001043
0.0001043
0.000104026
0.000104026
0.000103706
0.000103706
0.000103339
0.000103339
0.000102928
0.000102928
0.000102472
0.000102472
0.000101973
0.000101973
0.000101432
0.000101432
0.000100853
0.000100853
0.000100238
0.000100238
9.95895e-05
9.95895e-05
9.89124e-05
9.89124e-05
9.82109e-05
9.82109e-05
9.74903e-05
9.74903e-05
9.67565e-05
9.67565e-05
9.60161e-05
9.60161e-05
9.52764e-05
9.52764e-05
9.45455e-05
9.45455e-05
9.38321e-05
9.38321e-05
9.31456e-05
9.31456e-05
9.24957e-05
9.24957e-05
9.18928e-05
9.18928e-05
9.13473e-05
9.13474e-05
9.08699e-05
9.08699e-05
9.04709e-05
9.04709e-05
9.01598e-05
9.01598e-05
8.99456e-05
8.99456e-05
8.98356e-05
8.98356e-05
9.10168e-07
9.10168e-07
1.34426e-07
1.34426e-07
4.51321e-08
4.51321e-08
3.62674e-08
3.62674e-08
5.92056e-08
5.92056e-08
1.12979e-07
1.12979e-07
2.0568e-07
2.0568e-07
3.48838e-07
3.48838e-07
5.56249e-07
5.56249e-07
8.4371e-07
8.4371e-07
1.22898e-06
1.22898e-06
1.73181e-06
1.73181e-06
2.37396e-06
2.37396e-06
3.17921e-06
3.17921e-06
4.17331e-06
4.17331e-06
5.38392e-06
5.38392e-06
6.84042e-06
6.84042e-06
8.57368e-06
8.57368e-06
1.06157e-05
1.06157e-05
1.29993e-05
1.29993e-05
1.57573e-05
1.57573e-05
1.89223e-05
1.89223e-05
2.25257e-05
2.25257e-05
2.6597e-05
2.6597e-05
3.11632e-05
3.11632e-05
3.62475e-05
3.62475e-05
4.18689e-05
4.18689e-05
4.80415e-05
4.80415e-05
5.47733e-05
5.47733e-05
6.20663e-05
6.20663e-05
6.99155e-05
6.99155e-05
7.83091e-05
7.83091e-05
8.72278e-05
8.72278e-05
9.66453e-05
9.66453e-05
0.000106529
0.000106529
0.000116838
0.000116838
0.000127527
0.000127527
0.000138545
0.000138545
0.000149836
0.000149836
0.00016134
0.00016134
0.000172994
0.000172994
0.000184733
0.000184733
0.000196489
0.000196489
0.000208197
0.000208197
0.000219789
0.000219789
0.0002312
0.0002312
0.000242366
0.000242366
0.000253226
0.000253226
0.000263722
0.000263722
0.0002738
0.0002738
0.000283409
0.000283409
0.000292503
0.000292503
0.000301042
0.000301042
0.000308989
0.000308989
0.000316313
0.000316313
0.000322987
0.000322987
0.000328992
0.000328992
0.00033431
0.00033431
0.000338933
0.000338933
0.000342852
0.000342852
0.000346067
0.000346067
0.000348582
0.000348582
0.000350403
0.000350403
0.000351541
0.000351541
0.000352012
0.000352012
0.000351833
0.000351833
0.000351026
0.000351026
0.000349613
0.000349613
0.000347622
0.000347622
0.000345079
0.000345079
0.000342016
0.000342016
0.000338463
0.000338463
0.000334453
0.000334453
0.000330017
0.000330017
0.000325191
0.000325191
0.000320008
0.000320008
0.000314502
0.000314502
0.000308707
0.000308707
0.000302655
0.000302655
0.00029638
0.00029638
0.000289914
0.000289914
0.000283288
0.000283288
0.000276532
0.000276532
0.000269675
0.000269675
0.000262744
0.000262744
0.000255767
0.000255767
0.000248767
0.000248767
0.000241769
0.000241769
0.000234794
0.000234794
0.000227863
0.000227863
0.000220995
0.000220995
0.000214208
0.000214208
0.000207517
0.000207517
0.000200937
0.000200937
0.000194481
0.000194481
0.00018816
0.00018816
0.000181985
0.000181985
0.000175965
0.000175965
0.000170108
0.000170108
0.00016442
0.00016442
0.000158905
0.000158905
0.000153569
0.000153569
0.000148415
0.000148415
0.000143445
0.000143445
0.000138659
0.000138659
0.00013406
0.00013406
0.000129646
0.000129646
0.000125417
0.000125417
0.000121371
0.000121371
0.000117507
0.000117507
0.00011382
0.00011382
0.00011031
0.00011031
0.000106972
0.000106972
0.000103802
0.000103802
0.000100797
0.000100797
9.79527e-05
9.79527e-05
9.52643e-05
9.52643e-05
9.27276e-05
9.27276e-05
9.0338e-05
9.0338e-05
8.80909e-05
8.80909e-05
8.59815e-05
8.59815e-05
8.40054e-05
8.40054e-05
8.21579e-05
8.21579e-05
8.04344e-05
8.04344e-05
7.88305e-05
7.88305e-05
7.73419e-05
7.73419e-05
7.59643e-05
7.59643e-05
7.46935e-05
7.46935e-05
7.35257e-05
7.35257e-05
7.24569e-05
7.24569e-05
7.14833e-05
7.14833e-05
7.06012e-05
7.06012e-05
6.98069e-05
6.98069e-05
6.9097e-05
6.9097e-05
6.84679e-05
6.84679e-05
6.79158e-05
6.79158e-05
6.74371e-05
6.74371e-05
6.70279e-05
6.70279e-05
6.66843e-05
6.66843e-05
6.6402e-05
6.6402e-05
6.61767e-05
6.61767e-05
6.60036e-05
6.60036e-05
6.58779e-05
6.58779e-05
6.57945e-05
6.57945e-05
6.57483e-05
6.57483e-05
6.57341e-05
6.57341e-05
6.57469e-05
6.57469e-05
6.57819e-05
6.57819e-05
6.58344e-05
6.58344e-05
6.59002e-05
6.59002e-05
6.59759e-05
6.59759e-05
6.6058e-05
6.6058e-05
6.61441e-05
6.61441e-05
6.62319e-05
6.62319e-05
6.63199e-05
6.63199e-05
6.64067e-05
6.64067e-05
6.64916e-05
6.64916e-05
6.65739e-05
6.65739e-05
6.66534e-05
6.66534e-05
6.67299e-05
6.67299e-05
6.68035e-05
6.68035e-05
6.68743e-05
6.68743e-05
6.69425e-05
6.69425e-05
6.70084e-05
6.70084e-05
6.70723e-05
6.70723e-05
6.71344e-05
6.71344e-05
6.71952e-05
6.71952e-05
6.72548e-05
6.72548e-05
6.73137e-05
6.73137e-05
6.73721e-05
6.73721e-05
6.74302e-05
6.74302e-05
6.74885e-05
6.74885e-05
6.7547e-05
6.7547e-05
6.76062e-05
6.76062e-05
6.76662e-05
6.76662e-05
6.77272e-05
6.77272e-05
6.77895e-05
6.77895e-05
6.78533e-05
6.78533e-05
6.79188e-05
6.79188e-05
6.79862e-05
6.79862e-05
6.80557e-05
6.80557e-05
6.81275e-05
6.81275e-05
6.82018e-05
6.82018e-05
6.82788e-05
6.82788e-05
6.83587e-05
6.83587e-05
6.84417e-05
6.84417e-05
6.85279e-05
6.85279e-05
6.86176e-05
6.86176e-05
6.87109e-05
6.87109e-05
6.88081e-05
6.88081e-05
6.89092e-05
6.89092e-05
6.90146e-05
6.90146e-05
6.91244e-05
6.91244e-05
6.92389e-05
6.92389e-05
6.93581e-05
6.93581e-05
6.94823e-05
6.94823e-05
6.96117e-05
6.96117e-05
6.97465e-05
6.97465e-05
6.98868e-05
6.98868e-05
7.0033e-05
7.0033e-05
7.01852e-05
7.01852e-05
7.03436e-05
7.03436e-05
7.05083e-05
7.05083e-05
7.06797e-05
7.06797e-05
7.08579e-05
7.08579e-05
7.10431e-05
7.10431e-05
7.12355e-05
7.12355e-05
7.14353e-05
7.14353e-05
7.16427e-05
7.16427e-05
7.1858e-05
7.1858e-05
7.20812e-05
7.20812e-05
7.23126e-05
7.23126e-05
7.25525e-05
7.25525e-05
7.28008e-05
7.28008e-05
7.3058e-05
7.3058e-05
7.3324e-05
7.3324e-05
7.35992e-05
7.35992e-05
7.38836e-05
7.38836e-05
7.41774e-05
7.41774e-05
7.44808e-05
7.44808e-05
7.47938e-05
7.47938e-05
7.51167e-05
7.51167e-05
7.54495e-05
7.54495e-05
7.57924e-05
7.57924e-05
7.61455e-05
7.61455e-05
7.65088e-05
7.65088e-05
7.68824e-05
7.68824e-05
7.72663e-05
7.72663e-05
7.76607e-05
7.76607e-05
7.80655e-05
7.80655e-05
7.84807e-05
7.84807e-05
7.89064e-05
7.89064e-05
7.93425e-05
7.93425e-05
7.97888e-05
7.97888e-05
8.02455e-05
8.02455e-05
8.07123e-05
8.07123e-05
8.11892e-05
8.11892e-05
8.1676e-05
8.1676e-05
8.21725e-05
8.21725e-05
8.26785e-05
8.26785e-05
8.31938e-05
8.31938e-05
8.37182e-05
8.37182e-05
8.42513e-05
8.42513e-05
8.47928e-05
8.47928e-05
8.53424e-05
8.53424e-05
8.58996e-05
8.58996e-05
8.64641e-05
8.64641e-05
8.70354e-05
8.70354e-05
8.7613e-05
8.7613e-05
8.81963e-05
8.81963e-05
8.87848e-05
8.87848e-05
8.93779e-05
8.93779e-05
8.99748e-05
8.99748e-05
9.05749e-05
9.05749e-05
9.11775e-05
9.11775e-05
9.17817e-05
9.17817e-05
9.23866e-05
9.23866e-05
9.29916e-05
9.29916e-05
9.35955e-05
9.35955e-05
9.41974e-05
9.41974e-05
9.47963e-05
9.47963e-05
9.53912e-05
9.53912e-05
9.59808e-05
9.59808e-05
9.65642e-05
9.65642e-05
9.71399e-05
9.71399e-05
9.77069e-05
9.77069e-05
9.82638e-05
9.82638e-05
9.88093e-05
9.88093e-05
9.93419e-05
9.93419e-05
9.98603e-05
9.98603e-05
0.000100363
0.000100363
0.000100849
0.000100849
0.000101315
0.000101315
0.000101762
0.000101762
0.000102187
0.000102187
0.000102588
0.000102588
0.000102964
0.000102964
0.000103313
0.000103313
0.000103634
0.000103634
0.000103925
0.000103925
0.000104185
0.000104185
0.000104411
0.000104411
0.000104602
0.000104602
0.000104757
0.000104757
0.000104875
0.000104875
0.000104953
0.000104953
0.00010499
0.00010499
0.000104985
0.000104986
0.000104938
0.000104938
0.000104847
0.000104847
0.00010471
0.00010471
0.000104528
0.000104528
0.0001043
0.0001043
0.000104026
0.000104026
0.000103706
0.000103706
0.00010334
0.00010334
0.000102928
0.000102928
0.000102472
0.000102472
0.000101973
0.000101973
0.000101432
0.000101432
0.000100853
0.000100853
0.000100238
0.000100238
9.95895e-05
9.95895e-05
9.89124e-05
9.89124e-05
9.82109e-05
9.82109e-05
9.74903e-05
9.74903e-05
9.67565e-05
9.67565e-05
9.60161e-05
9.60161e-05
9.52764e-05
9.52764e-05
9.45455e-05
9.45455e-05
9.38321e-05
9.38322e-05
9.31456e-05
9.31456e-05
9.24957e-05
9.24957e-05
9.18928e-05
9.18928e-05
9.13474e-05
9.13474e-05
9.087e-05
9.087e-05
9.04709e-05
9.04709e-05
9.01599e-05
9.01599e-05
8.99457e-05
8.99457e-05
8.98356e-05
8.98356e-05
8.98356e-05
8.98356e-05
8.99456e-05
8.99456e-05
9.01598e-05
9.01598e-05
9.04708e-05
9.04708e-05
9.08698e-05
9.08698e-05
9.13472e-05
9.13472e-05
9.18926e-05
9.18926e-05
9.24955e-05
9.24955e-05
9.31454e-05
9.31454e-05
9.38319e-05
9.3832e-05
9.45453e-05
9.45453e-05
9.52762e-05
9.52762e-05
9.60159e-05
9.60159e-05
9.67563e-05
9.67563e-05
9.74901e-05
9.74901e-05
9.82107e-05
9.82107e-05
9.89122e-05
9.89122e-05
9.95893e-05
9.95893e-05
0.000100238
0.000100238
0.000100853
0.000100853
0.000101432
0.000101432
0.000101973
0.000101973
0.000102472
0.000102472
0.000102928
0.000102928
0.000103339
0.000103339
0.000103706
0.000103706
0.000104026
0.000104026
0.0001043
0.0001043
0.000104528
0.000104528
0.00010471
0.00010471
0.000104847
0.000104847
0.000104938
0.000104938
0.000104986
0.000104986
0.00010499
0.00010499
0.000104953
0.000104953
0.000104875
0.000104875
0.000104758
0.000104758
0.000104603
0.000104603
0.000104411
0.000104411
0.000104185
0.000104185
0.000103926
0.000103926
0.000103635
0.000103635
0.000103314
0.000103314
0.000102964
0.000102964
0.000102588
0.000102588
0.000102187
0.000102187
0.000101762
0.000101762
0.000101316
0.000101316
0.000100849
0.000100849
0.000100363
0.000100363
9.98607e-05
9.98607e-05
9.93423e-05
9.93423e-05
9.88096e-05
9.88096e-05
9.82642e-05
9.82642e-05
9.77073e-05
9.77073e-05
9.71403e-05
9.71403e-05
9.65645e-05
9.65645e-05
9.59812e-05
9.59812e-05
9.53915e-05
9.53915e-05
9.47967e-05
9.47967e-05
9.41977e-05
9.41977e-05
9.35958e-05
9.35958e-05
9.29919e-05
9.29919e-05
9.2387e-05
9.2387e-05
9.1782e-05
9.1782e-05
9.11778e-05
9.11778e-05
9.05753e-05
9.05753e-05
8.99752e-05
8.99752e-05
8.93782e-05
8.93782e-05
8.87852e-05
8.87852e-05
8.81967e-05
8.81967e-05
8.76133e-05
8.76133e-05
8.70357e-05
8.70357e-05
8.64644e-05
8.64644e-05
8.58999e-05
8.58999e-05
8.53426e-05
8.53426e-05
8.4793e-05
8.4793e-05
8.42515e-05
8.42515e-05
8.37184e-05
8.37184e-05
8.31941e-05
8.31941e-05
8.26787e-05
8.26787e-05
8.21727e-05
8.21727e-05
8.16762e-05
8.16762e-05
8.11894e-05
8.11894e-05
8.07125e-05
8.07125e-05
8.02457e-05
8.02457e-05
7.9789e-05
7.9789e-05
7.93426e-05
7.93426e-05
7.89066e-05
7.89066e-05
7.84809e-05
7.84809e-05
7.80657e-05
7.80657e-05
7.76609e-05
7.76609e-05
7.72665e-05
7.72665e-05
7.68825e-05
7.68825e-05
7.65089e-05
7.65089e-05
7.61456e-05
7.61456e-05
7.57926e-05
7.57926e-05
7.54497e-05
7.54497e-05
7.51168e-05
7.51168e-05
7.47939e-05
7.47939e-05
7.44809e-05
7.44809e-05
7.41775e-05
7.41775e-05
7.38837e-05
7.38837e-05
7.35993e-05
7.35993e-05
7.33241e-05
7.33241e-05
7.30581e-05
7.30581e-05
7.28009e-05
7.28009e-05
7.25525e-05
7.25525e-05
7.23127e-05
7.23127e-05
7.20813e-05
7.20813e-05
7.1858e-05
7.1858e-05
7.16428e-05
7.16428e-05
7.14354e-05
7.14354e-05
7.12356e-05
7.12356e-05
7.10431e-05
7.10431e-05
7.08579e-05
7.08579e-05
7.06798e-05
7.06798e-05
7.05084e-05
7.05084e-05
7.03436e-05
7.03436e-05
7.01852e-05
7.01852e-05
7.00331e-05
7.00331e-05
6.98869e-05
6.98869e-05
6.97465e-05
6.97465e-05
6.96117e-05
6.96117e-05
6.94823e-05
6.94823e-05
6.93581e-05
6.93581e-05
6.92389e-05
6.92389e-05
6.91245e-05
6.91245e-05
6.90147e-05
6.90147e-05
6.89093e-05
6.89093e-05
6.88081e-05
6.88081e-05
6.87109e-05
6.87109e-05
6.86176e-05
6.86176e-05
6.85279e-05
6.85279e-05
6.84417e-05
6.84417e-05
6.83587e-05
6.83587e-05
6.82788e-05
6.82788e-05
6.82018e-05
6.82018e-05
6.81275e-05
6.81275e-05
6.80557e-05
6.80557e-05
6.79862e-05
6.79862e-05
6.79188e-05
6.79188e-05
6.78533e-05
6.78533e-05
6.77895e-05
6.77895e-05
6.77272e-05
6.77272e-05
6.76662e-05
6.76662e-05
6.76062e-05
6.76062e-05
6.75471e-05
6.75471e-05
6.74885e-05
6.74885e-05
6.74303e-05
6.74303e-05
6.73721e-05
6.73721e-05
6.73137e-05
6.73137e-05
6.72549e-05
6.72549e-05
6.71952e-05
6.71952e-05
6.71345e-05
6.71345e-05
6.70723e-05
6.70723e-05
6.70084e-05
6.70084e-05
6.69425e-05
6.69425e-05
6.68743e-05
6.68743e-05
6.68035e-05
6.68035e-05
6.673e-05
6.673e-05
6.66534e-05
6.66534e-05
6.6574e-05
6.6574e-05
6.64916e-05
6.64916e-05
6.64068e-05
6.64068e-05
6.632e-05
6.632e-05
6.6232e-05
6.6232e-05
6.61442e-05
6.61442e-05
6.60581e-05
6.60581e-05
6.5976e-05
6.5976e-05
6.59004e-05
6.59004e-05
6.58345e-05
6.58345e-05
6.5782e-05
6.5782e-05
6.57471e-05
6.57471e-05
6.57343e-05
6.57343e-05
6.57485e-05
6.57485e-05
6.57947e-05
6.57947e-05
6.58781e-05
6.58781e-05
6.60038e-05
6.60038e-05
6.61769e-05
6.61769e-05
6.64023e-05
6.64023e-05
6.66846e-05
6.66846e-05
6.70282e-05
6.70282e-05
6.74374e-05
6.74374e-05
6.79161e-05
6.79161e-05
6.84682e-05
6.84682e-05
6.90974e-05
6.90974e-05
6.98073e-05
6.98073e-05
7.06016e-05
7.06016e-05
7.14837e-05
7.14837e-05
7.24573e-05
7.24573e-05
7.35262e-05
7.35262e-05
7.4694e-05
7.4694e-05
7.59648e-05
7.59648e-05
7.73424e-05
7.73424e-05
7.8831e-05
7.8831e-05
8.04349e-05
8.04349e-05
8.21584e-05
8.21584e-05
8.4006e-05
8.4006e-05
8.59822e-05
8.59822e-05
8.80915e-05
8.80915e-05
9.03387e-05
9.03387e-05
9.27283e-05
9.27283e-05
9.5265e-05
9.5265e-05
9.79534e-05
9.79534e-05
0.000100798
0.000100798
0.000103803
0.000103803
0.000106973
0.000106973
0.000110311
0.000110311
0.000113821
0.000113821
0.000117507
0.000117507
0.000121372
0.000121372
0.000125418
0.000125418
0.000129647
0.000129647
0.000134061
0.000134061
0.00013866
0.00013866
0.000143446
0.000143446
0.000148416
0.000148416
0.00015357
0.00015357
0.000158906
0.000158906
0.000164421
0.000164421
0.000170109
0.000170109
0.000175967
0.000175967
0.000181986
0.000181986
0.000188161
0.000188161
0.000194482
0.000194482
0.000200938
0.000200938
0.000207518
0.000207518
0.000214209
0.000214209
0.000220996
0.000220996
0.000227864
0.000227864
0.000234795
0.000234795
0.00024177
0.00024177
0.000248768
0.000248768
0.000255768
0.000255768
0.000262746
0.000262746
0.000269676
0.000269676
0.000276533
0.000276533
0.00028329
0.00028329
0.000289916
0.000289916
0.000296382
0.000296382
0.000302656
0.000302656
0.000308708
0.000308708
0.000314503
0.000314503
0.00032001
0.00032001
0.000325193
0.000325193
0.000330019
0.000330019
0.000334454
0.000334454
0.000338465
0.000338465
0.000342018
0.000342018
0.000345081
0.000345081
0.000347623
0.000347623
0.000349614
0.000349614
0.000351027
0.000351027
0.000351835
0.000351835
0.000352013
0.000352013
0.000351543
0.000351543
0.000350404
0.000350404
0.000348583
0.000348583
0.000346069
0.000346069
0.000342853
0.000342853
0.000338934
0.000338934
0.000334312
0.000334312
0.000328993
0.000328993
0.000322988
0.000322988
0.000316314
0.000316314
0.00030899
0.00030899
0.000301043
0.000301043
0.000292505
0.000292505
0.00028341
0.00028341
0.000273801
0.000273801
0.000263723
0.000263723
0.000253227
0.000253227
0.000242367
0.000242367
0.000231201
0.000231201
0.00021979
0.00021979
0.000208198
0.000208198
0.00019649
0.00019649
0.000184733
0.000184733
0.000172995
0.000172995
0.000161341
0.000161341
0.000149837
0.000149837
0.000138546
0.000138546
0.000127528
0.000127528
0.000116838
0.000116838
0.000106529
0.000106529
9.66457e-05
9.66457e-05
8.7228e-05
8.7228e-05
7.83093e-05
7.83093e-05
6.99157e-05
6.99157e-05
6.20665e-05
6.20665e-05
5.47735e-05
5.47735e-05
4.80416e-05
4.80416e-05
4.1869e-05
4.1869e-05
3.62476e-05
3.62476e-05
3.11633e-05
3.11633e-05
2.65971e-05
2.65971e-05
2.25257e-05
2.25257e-05
1.89223e-05
1.89223e-05
1.57573e-05
1.57573e-05
1.29993e-05
1.29993e-05
1.06157e-05
1.06157e-05
8.57371e-06
8.57371e-06
6.84045e-06
6.84045e-06
5.38394e-06
5.38394e-06
4.17332e-06
4.17332e-06
3.17922e-06
3.17922e-06
2.37397e-06
2.37397e-06
1.73182e-06
1.73182e-06
1.22899e-06
1.22899e-06
8.43712e-07
8.43712e-07
5.5625e-07
5.5625e-07
3.48839e-07
3.48839e-07
2.0568e-07
2.0568e-07
1.12979e-07
1.12979e-07
5.92056e-08
5.92056e-08
3.62672e-08
3.62672e-08
4.51318e-08
4.51318e-08
1.34424e-07
1.34424e-07
9.10162e-07
9.10162e-07
8.98356e-05
8.98356e-05
8.99456e-05
8.99456e-05
9.01598e-05
9.01598e-05
9.04708e-05
9.04708e-05
9.08698e-05
9.08698e-05
9.13472e-05
9.13472e-05
9.18926e-05
9.18926e-05
9.24955e-05
9.24955e-05
9.31454e-05
9.31454e-05
9.3832e-05
9.3832e-05
9.45453e-05
9.45453e-05
9.52762e-05
9.52762e-05
9.60159e-05
9.60159e-05
9.67563e-05
9.67563e-05
9.74901e-05
9.74901e-05
9.82107e-05
9.82107e-05
9.89122e-05
9.89122e-05
9.95893e-05
9.95893e-05
0.000100238
0.000100238
0.000100853
0.000100853
0.000101432
0.000101432
0.000101973
0.000101973
0.000102472
0.000102472
0.000102928
0.000102928
0.000103339
0.000103339
0.000103706
0.000103706
0.000104026
0.000104026
0.0001043
0.0001043
0.000104528
0.000104528
0.00010471
0.00010471
0.000104847
0.000104847
0.000104938
0.000104938
0.000104986
0.000104986
0.00010499
0.00010499
0.000104953
0.000104953
0.000104875
0.000104875
0.000104758
0.000104758
0.000104603
0.000104603
0.000104411
0.000104411
0.000104185
0.000104185
0.000103926
0.000103926
0.000103635
0.000103635
0.000103314
0.000103314
0.000102964
0.000102964
0.000102588
0.000102588
0.000102187
0.000102187
0.000101762
0.000101762
0.000101316
0.000101316
0.000100849
0.000100849
0.000100363
0.000100363
9.98607e-05
9.98607e-05
9.93423e-05
9.93423e-05
9.88096e-05
9.88096e-05
9.82642e-05
9.82642e-05
9.77073e-05
9.77073e-05
9.71403e-05
9.71403e-05
9.65645e-05
9.65645e-05
9.59812e-05
9.59812e-05
9.53915e-05
9.53915e-05
9.47967e-05
9.47967e-05
9.41977e-05
9.41977e-05
9.35958e-05
9.35958e-05
9.29919e-05
9.29919e-05
9.2387e-05
9.2387e-05
9.1782e-05
9.1782e-05
9.11778e-05
9.11778e-05
9.05753e-05
9.05753e-05
8.99752e-05
8.99752e-05
8.93782e-05
8.93782e-05
8.87852e-05
8.87852e-05
8.81967e-05
8.81967e-05
8.76133e-05
8.76133e-05
8.70357e-05
8.70357e-05
8.64644e-05
8.64644e-05
8.58999e-05
8.58999e-05
8.53426e-05
8.53426e-05
8.4793e-05
8.4793e-05
8.42515e-05
8.42515e-05
8.37184e-05
8.37184e-05
8.31941e-05
8.31941e-05
8.26787e-05
8.26787e-05
8.21727e-05
8.21727e-05
8.16762e-05
8.16762e-05
8.11894e-05
8.11894e-05
8.07125e-05
8.07125e-05
8.02457e-05
8.02457e-05
7.9789e-05
7.9789e-05
7.93426e-05
7.93426e-05
7.89066e-05
7.89066e-05
7.84809e-05
7.84809e-05
7.80657e-05
7.80657e-05
7.76609e-05
7.76609e-05
7.72665e-05
7.72665e-05
7.68825e-05
7.68825e-05
7.65089e-05
7.65089e-05
7.61456e-05
7.61456e-05
7.57926e-05
7.57926e-05
7.54497e-05
7.54497e-05
7.51168e-05
7.51168e-05
7.47939e-05
7.47939e-05
7.44809e-05
7.44809e-05
7.41775e-05
7.41775e-05
7.38837e-05
7.38837e-05
7.35993e-05
7.35993e-05
7.33241e-05
7.33241e-05
7.30581e-05
7.30581e-05
7.28009e-05
7.28009e-05
7.25525e-05
7.25525e-05
7.23127e-05
7.23127e-05
7.20813e-05
7.20813e-05
7.1858e-05
7.1858e-05
7.16428e-05
7.16428e-05
7.14354e-05
7.14354e-05
7.12356e-05
7.12356e-05
7.10431e-05
7.10431e-05
7.08579e-05
7.08579e-05
7.06798e-05
7.06798e-05
7.05084e-05
7.05084e-05
7.03436e-05
7.03436e-05
7.01852e-05
7.01852e-05
7.00331e-05
7.00331e-05
6.98869e-05
6.98869e-05
6.97465e-05
6.97465e-05
6.96117e-05
6.96117e-05
6.94823e-05
6.94823e-05
6.93581e-05
6.93581e-05
6.92389e-05
6.92389e-05
6.91245e-05
6.91245e-05
6.90147e-05
6.90147e-05
6.89093e-05
6.89093e-05
6.88081e-05
6.88081e-05
6.87109e-05
6.87109e-05
6.86176e-05
6.86176e-05
6.85279e-05
6.85279e-05
6.84417e-05
6.84417e-05
6.83587e-05
6.83587e-05
6.82788e-05
6.82788e-05
6.82018e-05
6.82018e-05
6.81275e-05
6.81275e-05
6.80557e-05
6.80557e-05
6.79862e-05
6.79862e-05
6.79188e-05
6.79188e-05
6.78533e-05
6.78533e-05
6.77895e-05
6.77895e-05
6.77272e-05
6.77272e-05
6.76662e-05
6.76662e-05
6.76062e-05
6.76062e-05
6.75471e-05
6.75471e-05
6.74885e-05
6.74885e-05
6.74303e-05
6.74303e-05
6.73721e-05
6.73721e-05
6.73137e-05
6.73137e-05
6.72549e-05
6.72549e-05
6.71952e-05
6.71952e-05
6.71345e-05
6.71345e-05
6.70723e-05
6.70723e-05
6.70084e-05
6.70084e-05
6.69425e-05
6.69425e-05
6.68743e-05
6.68743e-05
6.68035e-05
6.68035e-05
6.673e-05
6.673e-05
6.66534e-05
6.66534e-05
6.6574e-05
6.6574e-05
6.64916e-05
6.64916e-05
6.64068e-05
6.64068e-05
6.632e-05
6.632e-05
6.6232e-05
6.6232e-05
6.61442e-05
6.61442e-05
6.60581e-05
6.60581e-05
6.5976e-05
6.5976e-05
6.59004e-05
6.59004e-05
6.58345e-05
6.58345e-05
6.5782e-05
6.5782e-05
6.57471e-05
6.57471e-05
6.57343e-05
6.57343e-05
6.57485e-05
6.57485e-05
6.57947e-05
6.57947e-05
6.58781e-05
6.58781e-05
6.60038e-05
6.60038e-05
6.61769e-05
6.61769e-05
6.64023e-05
6.64023e-05
6.66846e-05
6.66846e-05
6.70282e-05
6.70282e-05
6.74374e-05
6.74374e-05
6.79161e-05
6.79161e-05
6.84682e-05
6.84682e-05
6.90974e-05
6.90974e-05
6.98073e-05
6.98073e-05
7.06016e-05
7.06016e-05
7.14837e-05
7.14837e-05
7.24573e-05
7.24573e-05
7.35262e-05
7.35262e-05
7.4694e-05
7.4694e-05
7.59648e-05
7.59648e-05
7.73424e-05
7.73424e-05
7.8831e-05
7.8831e-05
8.04349e-05
8.04349e-05
8.21584e-05
8.21584e-05
8.4006e-05
8.4006e-05
8.59822e-05
8.59822e-05
8.80915e-05
8.80915e-05
9.03387e-05
9.03387e-05
9.27283e-05
9.27283e-05
9.5265e-05
9.5265e-05
9.79534e-05
9.79534e-05
0.000100798
0.000100798
0.000103803
0.000103803
0.000106973
0.000106973
0.000110311
0.000110311
0.000113821
0.000113821
0.000117507
0.000117507
0.000121372
0.000121372
0.000125418
0.000125418
0.000129647
0.000129647
0.000134061
0.000134061
0.00013866
0.00013866
0.000143446
0.000143446
0.000148416
0.000148416
0.00015357
0.00015357
0.000158906
0.000158906
0.000164421
0.000164421
0.000170109
0.000170109
0.000175967
0.000175967
0.000181986
0.000181986
0.000188161
0.000188161
0.000194482
0.000194482
0.000200938
0.000200938
0.000207518
0.000207518
0.000214209
0.000214209
0.000220996
0.000220996
0.000227864
0.000227864
0.000234795
0.000234795
0.00024177
0.00024177
0.000248768
0.000248768
0.000255768
0.000255768
0.000262746
0.000262746
0.000269676
0.000269676
0.000276533
0.000276533
0.00028329
0.00028329
0.000289916
0.000289916
0.000296382
0.000296382
0.000302656
0.000302656
0.000308708
0.000308708
0.000314503
0.000314503
0.00032001
0.00032001
0.000325193
0.000325193
0.000330019
0.000330019
0.000334454
0.000334454
0.000338465
0.000338465
0.000342018
0.000342018
0.000345081
0.000345081
0.000347623
0.000347623
0.000349614
0.000349614
0.000351027
0.000351027
0.000351835
0.000351835
0.000352013
0.000352013
0.000351543
0.000351543
0.000350404
0.000350404
0.000348583
0.000348583
0.000346069
0.000346069
0.000342853
0.000342853
0.000338934
0.000338934
0.000334312