/*--------------------------------*- C++ -*----------------------------------*\
| =========                 |                                                 |
| \\      /  F ield         | OpenFOAM: The Open Source CFD Toolbox           |
|  \\    /   O peration     | Version:  2106                                  |
|   \\  /    A nd           | Website:  www.openfoam.com                      |
|    \\/     M anipulation  |                                                 |
\*---------------------------------------------------------------------------*/
FoamFile
{
    version     2.0;
    format      ascii;
    arch        "LSB;label=32;scalar=64";
    class       volSymmTensorField;
    location    "1000";
    object      turbulenceProperties:R;
}
// * * * * * * * * * * * * * * * * * * * * * * * * * * * * * * * * * * * * * //

dimensions      [0 2 -2 0 0 0 0];

internalField   nonuniform List<symmTensor> 
2560
(
(6.06778e-07 -8.11827e-11 -1.17543e-13 6.06778e-07 3.24686e-25 6.06778e-07)
(6.06778e-07 -8.11827e-11 -1.17543e-13 6.06778e-07 8.21728e-30 6.06778e-07)
(8.96171e-08 -6.88673e-11 -3.00705e-13 8.96171e-08 3.87764e-26 8.96171e-08)
(8.96171e-08 -6.88673e-11 -3.00705e-13 8.96171e-08 9.57289e-31 8.96171e-08)
(3.00881e-08 -6.81243e-11 -4.08634e-13 3.00881e-08 2.5885e-26 3.00881e-08)
(3.00881e-08 -6.81243e-11 -4.08634e-13 3.00881e-08 -4.97097e-30 3.00881e-08)
(2.41783e-08 -1.15875e-10 -7.0496e-13 2.41783e-08 3.99736e-26 2.41783e-08)
(2.41783e-08 -1.15875e-10 -7.0496e-13 2.41783e-08 9.13373e-30 2.41783e-08)
(3.94704e-08 -3.32912e-10 -2.05421e-12 3.94704e-08 9.5654e-26 3.94704e-08)
(3.94704e-08 -3.32912e-10 -2.05421e-12 3.94704e-08 8.07509e-29 3.94704e-08)
(7.5319e-08 -9.97123e-10 -6.24035e-12 7.5319e-08 2.66065e-25 7.5319e-08)
(7.5319e-08 -9.97123e-10 -6.24035e-12 7.5319e-08 3.53505e-28 7.5319e-08)
(1.3712e-07 -2.63818e-09 -1.6746e-11 1.3712e-07 7.16282e-25 1.3712e-07)
(1.3712e-07 -2.63818e-09 -1.6746e-11 1.3712e-07 1.20687e-27 1.3712e-07)
(2.32558e-07 -6.15442e-09 -3.96223e-11 2.32558e-07 1.71317e-24 2.32558e-07)
(2.32558e-07 -6.15442e-09 -3.96223e-11 2.32558e-07 3.4895e-27 2.32558e-07)
(3.70832e-07 -1.29523e-08 -8.45765e-11 3.70832e-07 3.68205e-24 3.70832e-07)
(3.70832e-07 -1.29523e-08 -8.45765e-11 3.70832e-07 8.78418e-27 3.70832e-07)
(5.62473e-07 -2.5108e-08 -1.66289e-10 5.62473e-07 7.30123e-24 5.62473e-07)
(5.62473e-07 -2.5108e-08 -1.66289e-10 5.62473e-07 1.9574e-26 5.62473e-07)
(8.19322e-07 -4.5548e-08 -3.05964e-10 8.19322e-07 1.35628e-23 8.19322e-07)
(8.19322e-07 -4.5548e-08 -3.05964e-10 8.19322e-07 4.17452e-26 8.19322e-07)
(1.15454e-06 -7.82456e-08 -5.33106e-10 1.15454e-06 2.38719e-23 1.15454e-06)
(1.15454e-06 -7.82456e-08 -5.33106e-10 1.15454e-06 7.88874e-26 1.15454e-06)
(1.58264e-06 -1.28424e-07 -8.8747e-10 1.58264e-06 4.01551e-23 1.58264e-06)
(1.58264e-06 -1.28424e-07 -8.8747e-10 1.58264e-06 1.36707e-25 1.58264e-06)
(2.11947e-06 -2.02759e-07 -1.42115e-09 2.11947e-06 6.49988e-23 2.11947e-06)
(2.11947e-06 -2.02759e-07 -1.42115e-09 2.11947e-06 2.48431e-25 2.11947e-06)
(2.78221e-06 -3.09555e-07 -2.20066e-09 2.78221e-06 1.01814e-22 2.78221e-06)
(2.78221e-06 -3.09555e-07 -2.20066e-09 2.78221e-06 4.43765e-25 2.78221e-06)
(3.58928e-06 -4.58903e-07 -3.30895e-09 3.58928e-06 1.5488e-22 3.58928e-06)
(3.58928e-06 -4.58903e-07 -3.30895e-09 3.58928e-06 7.14709e-25 3.58928e-06)
(4.56028e-06 -6.62767e-07 -4.84713e-09 4.56028e-06 2.29579e-22 4.56028e-06)
(4.56028e-06 -6.62767e-07 -4.84713e-09 4.56028e-06 1.13616e-24 4.56028e-06)
(5.71579e-06 -9.35003e-07 -6.93573e-09 5.71579e-06 3.32563e-22 5.71579e-06)
(5.71579e-06 -9.35003e-07 -6.93573e-09 5.71579e-06 1.82934e-24 5.71579e-06)
(7.07714e-06 -1.29129e-06 -9.71532e-09 7.07714e-06 4.71614e-22 7.07714e-06)
(7.07714e-06 -1.29129e-06 -9.71532e-09 7.07714e-06 2.95768e-24 7.07714e-06)
(8.66617e-06 -1.74893e-06 -1.33463e-08 8.66617e-06 6.56242e-22 8.66617e-06)
(8.66617e-06 -1.74893e-06 -1.33463e-08 8.66617e-06 4.19455e-24 8.66617e-06)
(1.05048e-05 -2.32658e-06 -1.80078e-08 1.05048e-05 8.97288e-22 1.05048e-05)
(1.05048e-05 -2.32658e-06 -1.80078e-08 1.05048e-05 5.905e-24 1.05048e-05)
(1.26148e-05 -3.04378e-06 -2.38953e-08 1.26148e-05 1.20646e-21 1.26148e-05)
(1.26148e-05 -3.04378e-06 -2.38953e-08 1.26148e-05 8.74639e-24 1.26148e-05)
(1.50171e-05 -3.92048e-06 -3.1217e-08 1.50171e-05 1.59736e-21 1.50171e-05)
(1.50171e-05 -3.92048e-06 -3.1217e-08 1.50171e-05 1.24308e-23 1.50171e-05)
(1.77314e-05 -4.97638e-06 -4.01901e-08 1.77314e-05 2.08527e-21 1.77314e-05)
(1.77314e-05 -4.97638e-06 -4.01901e-08 1.77314e-05 1.70175e-23 1.77314e-05)
(2.07755e-05 -6.23028e-06 -5.10346e-08 2.07755e-05 2.68619e-21 2.07755e-05)
(2.07755e-05 -6.23028e-06 -5.10346e-08 2.07755e-05 2.26071e-23 2.07755e-05)
(2.4165e-05 -7.69937e-06 -6.39682e-08 2.4165e-05 3.41486e-21 2.4165e-05)
(2.4165e-05 -7.69937e-06 -6.39682e-08 2.4165e-05 2.86645e-23 2.4165e-05)
(2.79126e-05 -9.39856e-06 -7.91991e-08 2.79126e-05 4.28774e-21 2.79126e-05)
(2.79126e-05 -9.39856e-06 -7.91991e-08 2.79126e-05 3.53197e-23 2.79126e-05)
(3.20276e-05 -1.13399e-05 -9.69205e-08 3.20276e-05 5.32145e-21 3.20276e-05)
(3.20276e-05 -1.13399e-05 -9.69205e-08 3.20276e-05 4.54997e-23 3.20276e-05)
(3.65155e-05 -1.35318e-05 -1.17304e-07 3.65155e-05 6.53248e-21 3.65155e-05)
(3.65155e-05 -1.35318e-05 -1.17304e-07 3.65155e-05 6.53793e-23 3.65155e-05)
(4.13775e-05 -1.59792e-05 -1.40494e-07 4.13775e-05 7.93874e-21 4.13775e-05)
(4.13775e-05 -1.59792e-05 -1.40494e-07 4.13775e-05 9.58113e-23 4.13775e-05)
(4.66104e-05 -1.86825e-05 -1.66605e-07 4.66104e-05 9.55606e-21 4.66104e-05)
(4.66104e-05 -1.86825e-05 -1.66605e-07 4.66104e-05 1.13518e-22 4.66104e-05)
(5.2206e-05 -2.16383e-05 -1.95714e-07 5.2206e-05 1.14007e-20 5.2206e-05)
(5.2206e-05 -2.16383e-05 -1.95714e-07 5.2206e-05 1.2834e-22 5.2206e-05)
(5.81518e-05 -2.48387e-05 -2.27863e-07 5.81518e-05 1.3481e-20 5.81518e-05)
(5.81518e-05 -2.48387e-05 -2.27863e-07 5.81518e-05 1.55368e-22 5.81518e-05)
(6.44302e-05 -2.82718e-05 -2.63055e-07 6.44302e-05 1.58059e-20 6.44302e-05)
(6.44302e-05 -2.82718e-05 -2.63055e-07 6.44302e-05 1.98757e-22 6.44302e-05)
(7.10191e-05 -3.1922e-05 -3.01252e-07 7.10191e-05 1.83906e-20 7.10191e-05)
(7.10191e-05 -3.1922e-05 -3.01252e-07 7.10191e-05 2.40896e-22 7.10191e-05)
(7.78919e-05 -3.57703e-05 -3.4238e-07 7.78919e-05 2.12463e-20 7.78919e-05)
(7.78919e-05 -3.57703e-05 -3.4238e-07 7.78919e-05 3.16677e-22 7.78919e-05)
(8.50181e-05 -3.97946e-05 -3.8633e-07 8.50181e-05 2.43755e-20 8.50181e-05)
(8.50181e-05 -3.97946e-05 -3.8633e-07 8.50181e-05 3.69148e-22 8.50181e-05)
(9.23636e-05 -4.39705e-05 -4.32956e-07 9.23636e-05 2.77968e-20 9.23636e-05)
(9.23636e-05 -4.39705e-05 -4.32956e-07 9.23636e-05 4.28013e-22 9.23636e-05)
(9.98909e-05 -4.82715e-05 -4.82082e-07 9.98909e-05 3.14878e-20 9.98909e-05)
(9.98909e-05 -4.82715e-05 -4.82082e-07 9.98909e-05 5.11933e-22 9.98909e-05)
(0.00010756 -5.26696e-05 -5.33506e-07 0.00010756 3.54878e-20 0.00010756)
(0.00010756 -5.26696e-05 -5.33506e-07 0.00010756 5.66388e-22 0.00010756)
(0.000115329 -5.71358e-05 -5.87e-07 0.000115329 3.97694e-20 0.000115329)
(0.000115329 -5.71358e-05 -5.87e-07 0.000115329 6.13437e-22 0.000115329)
(0.000123155 -6.16409e-05 -6.42317e-07 0.000123155 4.4342e-20 0.000123155)
(0.000123155 -6.16409e-05 -6.42317e-07 0.000123155 7.04915e-22 0.000123155)
(0.000130993 -6.61552e-05 -6.99192e-07 0.000130993 4.92187e-20 0.000130993)
(0.000130993 -6.61552e-05 -6.99192e-07 0.000130993 8.30061e-22 0.000130993)
(0.000138798 -7.06496e-05 -7.57347e-07 0.000138798 5.44069e-20 0.000138798)
(0.000138798 -7.06496e-05 -7.57347e-07 0.000138798 1.01215e-21 0.000138798)
(0.000146526 -7.50957e-05 -8.16498e-07 0.000146526 5.98841e-20 0.000146526)
(0.000146526 -7.50957e-05 -8.16498e-07 0.000146526 1.1242e-21 0.000146526)
(0.000154133 -7.94662e-05 -8.76349e-07 0.000154133 6.56139e-20 0.000154133)
(0.000154133 -7.94662e-05 -8.76349e-07 0.000154133 1.21888e-21 0.000154133)
(0.000161578 -8.37348e-05 -9.36608e-07 0.000161578 7.16653e-20 0.000161578)
(0.000161578 -8.37348e-05 -9.36608e-07 0.000161578 1.29269e-21 0.000161578)
(0.000168818 -8.78771e-05 -9.96977e-07 0.000168818 7.80268e-20 0.000168818)
(0.000168818 -8.78771e-05 -9.96977e-07 0.000168818 1.42554e-21 0.000168818)
(0.000175815 -9.18702e-05 -1.05717e-06 0.000175815 8.46548e-20 0.000175815)
(0.000175815 -9.18702e-05 -1.05717e-06 0.000175815 1.6519e-21 0.000175815)
(0.000182533 -9.5693e-05 -1.11689e-06 0.000182533 9.15356e-20 0.000182533)
(0.000182533 -9.5693e-05 -1.11689e-06 0.000182533 1.83033e-21 0.000182533)
(0.000188939 -9.93266e-05 -1.17586e-06 0.000188939 9.87082e-20 0.000188939)
(0.000188939 -9.93266e-05 -1.17586e-06 0.000188939 2.14211e-21 0.000188939)
(0.000195002 -0.000102754 -1.23382e-06 0.000195002 1.06186e-19 0.000195002)
(0.000195002 -0.000102754 -1.23382e-06 0.000195002 2.36341e-21 0.000195002)
(0.000200695 -0.00010596 -1.2905e-06 0.000200695 1.13963e-19 0.000200695)
(0.000200695 -0.00010596 -1.2905e-06 0.000200695 2.50684e-21 0.000200695)
(0.000205993 -0.000108933 -1.34567e-06 0.000205993 1.21942e-19 0.000205993)
(0.000205993 -0.000108933 -1.34567e-06 0.000205993 2.71368e-21 0.000205993)
(0.000210875 -0.00011166 -1.39909e-06 0.000210875 1.30171e-19 0.000210875)
(0.000210875 -0.00011166 -1.39909e-06 0.000210875 2.92927e-21 0.000210875)
(0.000215325 -0.000114135 -1.45055e-06 0.000215325 1.3868e-19 0.000215325)
(0.000215325 -0.000114135 -1.45055e-06 0.000215325 3.24112e-21 0.000215325)
(0.000219328 -0.00011635 -1.49985e-06 0.000219328 1.47432e-19 0.000219328)
(0.000219328 -0.00011635 -1.49985e-06 0.000219328 3.52484e-21 0.000219328)
(0.000222874 -0.000118301 -1.54682e-06 0.000222874 1.56758e-19 0.000222874)
(0.000222874 -0.000118301 -1.54682e-06 0.000222874 3.75522e-21 0.000222874)
(0.000225955 -0.000119986 -1.59129e-06 0.000225955 1.66028e-19 0.000225955)
(0.000225955 -0.000119986 -1.59129e-06 0.000225955 3.95634e-21 0.000225955)
(0.000228568 -0.000121402 -1.63311e-06 0.000228568 1.75528e-19 0.000228568)
(0.000228568 -0.000121402 -1.63311e-06 0.000228568 4.24794e-21 0.000228568)
(0.000230712 -0.000122552 -1.67217e-06 0.000230712 1.85342e-19 0.000230712)
(0.000230712 -0.000122552 -1.67217e-06 0.000230712 4.65094e-21 0.000230712)
(0.000232388 -0.000123438 -1.70836e-06 0.000232388 1.95388e-19 0.000232388)
(0.000232388 -0.000123438 -1.70836e-06 0.000232388 4.95739e-21 0.000232388)
(0.000233602 -0.000124063 -1.7416e-06 0.000233602 2.05613e-19 0.000233602)
(0.000233602 -0.000124063 -1.7416e-06 0.000233602 5.27134e-21 0.000233602)
(0.000234361 -0.000124434 -1.77181e-06 0.000234361 2.15892e-19 0.000234361)
(0.000234361 -0.000124434 -1.77181e-06 0.000234361 5.83521e-21 0.000234361)
(0.000234675 -0.000124557 -1.79895e-06 0.000234675 2.26279e-19 0.000234675)
(0.000234675 -0.000124557 -1.79895e-06 0.000234675 6.18479e-21 0.000234675)
(0.000234555 -0.000124439 -1.82298e-06 0.000234555 2.37022e-19 0.000234555)
(0.000234555 -0.000124439 -1.82298e-06 0.000234555 6.72017e-21 0.000234555)
(0.000234017 -0.000124089 -1.84389e-06 0.000234017 2.48117e-19 0.000234017)
(0.000234017 -0.000124089 -1.84389e-06 0.000234017 7.04711e-21 0.000234017)
(0.000233075 -0.000123518 -1.86168e-06 0.000233075 2.59278e-19 0.000233075)
(0.000233075 -0.000123518 -1.86168e-06 0.000233075 7.49121e-21 0.000233075)
(0.000231748 -0.000122735 -1.87638e-06 0.000231748 2.70515e-19 0.000231748)
(0.000231748 -0.000122735 -1.87638e-06 0.000231748 7.90823e-21 0.000231748)
(0.000230053 -0.000121752 -1.888e-06 0.000230053 2.82235e-19 0.000230053)
(0.000230053 -0.000121752 -1.888e-06 0.000230053 8.25032e-21 0.000230053)
(0.000228011 -0.00012058 -1.89661e-06 0.000228011 2.93801e-19 0.000228011)
(0.000228011 -0.00012058 -1.89661e-06 0.000228011 8.99709e-21 0.000228011)
(0.000225642 -0.000119231 -1.90225e-06 0.000225642 3.05103e-19 0.000225642)
(0.000225642 -0.000119231 -1.90225e-06 0.000225642 9.4733e-21 0.000225642)
(0.000222968 -0.000117718 -1.90501e-06 0.000222968 3.1709e-19 0.000222968)
(0.000222968 -0.000117718 -1.90501e-06 0.000222968 9.74841e-21 0.000222968)
(0.000220012 -0.000116053 -1.90497e-06 0.000220012 3.29385e-19 0.000220012)
(0.000220012 -0.000116053 -1.90497e-06 0.000220012 1.03507e-20 0.000220012)
(0.000216794 -0.000114249 -1.90221e-06 0.000216794 3.41551e-19 0.000216794)
(0.000216794 -0.000114249 -1.90221e-06 0.000216794 1.09324e-20 0.000216794)
(0.000213339 -0.000112319 -1.89685e-06 0.000213339 3.54061e-19 0.000213339)
(0.000213339 -0.000112319 -1.89685e-06 0.000213339 1.14528e-20 0.000213339)
(0.000209668 -0.000110274 -1.889e-06 0.000209668 3.66457e-19 0.000209668)
(0.000209668 -0.000110274 -1.889e-06 0.000209668 1.19184e-20 0.000209668)
(0.000205804 -0.000108129 -1.87877e-06 0.000205804 3.78887e-19 0.000205804)
(0.000205804 -0.000108129 -1.87877e-06 0.000205804 1.26193e-20 0.000205804)
(0.00020177 -0.000105894 -1.86629e-06 0.00020177 3.91397e-19 0.00020177)
(0.00020177 -0.000105894 -1.86629e-06 0.00020177 1.32077e-20 0.00020177)
(0.000197587 -0.000103583 -1.85169e-06 0.000197587 4.0401e-19 0.000197587)
(0.000197587 -0.000103583 -1.85169e-06 0.000197587 1.33909e-20 0.000197587)
(0.000193276 -0.000101206 -1.83511e-06 0.000193276 4.16844e-19 0.000193276)
(0.000193276 -0.000101206 -1.83511e-06 0.000193276 1.43231e-20 0.000193276)
(0.000188859 -9.87757e-05 -1.81667e-06 0.000188859 4.29007e-19 0.000188859)
(0.000188859 -9.87757e-05 -1.81667e-06 0.000188859 1.62413e-20 0.000188859)
(0.000184355 -9.63021e-05 -1.79653e-06 0.000184355 4.41014e-19 0.000184355)
(0.000184355 -9.63021e-05 -1.79653e-06 0.000184355 1.66479e-20 0.000184355)
(0.000179783 -9.37959e-05 -1.77482e-06 0.000179783 4.54032e-19 0.000179783)
(0.000179783 -9.37959e-05 -1.77482e-06 0.000179783 1.66922e-20 0.000179783)
(0.000175163 -9.1267e-05 -1.75167e-06 0.000175163 4.67194e-19 0.000175163)
(0.000175163 -9.1267e-05 -1.75167e-06 0.000175163 1.82803e-20 0.000175163)
(0.000170511 -8.8725e-05 -1.72725e-06 0.000170511 4.79889e-19 0.000170511)
(0.000170511 -8.8725e-05 -1.72725e-06 0.000170511 1.88579e-20 0.000170511)
(0.000165845 -8.61787e-05 -1.70167e-06 0.000165845 4.93008e-19 0.000165845)
(0.000165845 -8.61787e-05 -1.70167e-06 0.000165845 1.95223e-20 0.000165845)
(0.000161179 -8.36365e-05 -1.67509e-06 0.000161179 5.06198e-19 0.000161179)
(0.000161179 -8.36365e-05 -1.67509e-06 0.000161179 2.03518e-20 0.000161179)
(0.000156529 -8.11062e-05 -1.64764e-06 0.000156529 5.1907e-19 0.000156529)
(0.000156529 -8.11062e-05 -1.64764e-06 0.000156529 2.08863e-20 0.000156529)
(0.000151909 -7.8595e-05 -1.61945e-06 0.000151909 5.32113e-19 0.000151909)
(0.000151909 -7.8595e-05 -1.61945e-06 0.000151909 2.17822e-20 0.000151909)
(0.00014733 -7.61095e-05 -1.59065e-06 0.00014733 5.4503e-19 0.00014733)
(0.00014733 -7.61095e-05 -1.59065e-06 0.00014733 2.39279e-20 0.00014733)
(0.000142805 -7.3656e-05 -1.56136e-06 0.000142805 5.5777e-19 0.000142805)
(0.000142805 -7.3656e-05 -1.56136e-06 0.000142805 2.45382e-20 0.000142805)
(0.000138345 -7.124e-05 -1.53171e-06 0.000138345 5.60145e-19 0.000138345)
(0.000138345 -7.124e-05 -1.53171e-06 0.000138345 2.57277e-20 0.000138345)
(0.000133958 -6.88664e-05 -1.50182e-06 0.000133958 4.31003e-19 0.000133958)
(0.000133958 -6.88664e-05 -1.50182e-06 0.000133958 2.66195e-20 0.000133958)
(0.000129654 -6.65398e-05 -1.47179e-06 0.000129654 3.05991e-19 0.000129654)
(0.000129654 -6.65398e-05 -1.47179e-06 0.000129654 2.75468e-20 0.000129654)
(0.00012544 -6.4264e-05 -1.44173e-06 0.00012544 3.08518e-19 0.00012544)
(0.00012544 -6.4264e-05 -1.44173e-06 0.00012544 2.74306e-20 0.00012544)
(0.000121324 -6.20427e-05 -1.41175e-06 0.000121324 3.11213e-19 0.000121324)
(0.000121324 -6.20427e-05 -1.41175e-06 0.000121324 2.77081e-20 0.000121324)
(0.00011731 -5.98787e-05 -1.38193e-06 0.00011731 3.12485e-19 0.00011731)
(0.00011731 -5.98787e-05 -1.38193e-06 0.00011731 3.08067e-20 0.00011731)
(0.000113405 -5.77746e-05 -1.35236e-06 0.000113405 3.10114e-19 0.000113405)
(0.000113405 -5.77746e-05 -1.35236e-06 0.000113405 3.25035e-20 0.000113405)
(0.000109613 -5.57324e-05 -1.32314e-06 0.000109613 3.07488e-19 0.000109613)
(0.000109613 -5.57324e-05 -1.32314e-06 0.000109613 3.27382e-20 0.000109613)
(0.000105937 -5.37539e-05 -1.29433e-06 0.000105937 3.07358e-19 0.000105937)
(0.000105937 -5.37539e-05 -1.29433e-06 0.000105937 3.30442e-20 0.000105937)
(0.00010238 -5.18403e-05 -1.266e-06 0.00010238 3.08677e-19 0.00010238)
(0.00010238 -5.18403e-05 -1.266e-06 0.00010238 3.43779e-20 0.00010238)
(9.89433e-05 -4.99925e-05 -1.23823e-06 9.89433e-05 3.0691e-19 9.89433e-05)
(9.89433e-05 -4.99925e-05 -1.23823e-06 9.89433e-05 3.69554e-20 9.89433e-05)
(9.56297e-05 -4.82111e-05 -1.21107e-06 9.56297e-05 3.01752e-19 9.56297e-05)
(9.56297e-05 -4.82111e-05 -1.21107e-06 9.56297e-05 3.79912e-20 9.56297e-05)
(9.24396e-05 -4.64963e-05 -1.18456e-06 9.24396e-05 2.97996e-19 9.24396e-05)
(9.24396e-05 -4.64963e-05 -1.18456e-06 9.24396e-05 4.00312e-20 9.24396e-05)
(8.93733e-05 -4.48481e-05 -1.15877e-06 8.93733e-05 2.97883e-19 8.93733e-05)
(8.93733e-05 -4.48481e-05 -1.15877e-06 8.93733e-05 4.16859e-20 8.93733e-05)
(8.64308e-05 -4.32662e-05 -1.13373e-06 8.64308e-05 2.9581e-19 8.64308e-05)
(8.64308e-05 -4.32662e-05 -1.13373e-06 8.64308e-05 4.42384e-20 8.64308e-05)
(8.36114e-05 -4.175e-05 -1.10948e-06 8.36114e-05 2.90357e-19 8.36114e-05)
(8.36114e-05 -4.175e-05 -1.10948e-06 8.36114e-05 4.66888e-20 8.36114e-05)
(8.09142e-05 -4.02986e-05 -1.08605e-06 8.09142e-05 2.87646e-19 8.09142e-05)
(8.09142e-05 -4.02986e-05 -1.08605e-06 8.09142e-05 4.76415e-20 8.09142e-05)
(7.83377e-05 -3.89111e-05 -1.06346e-06 7.83377e-05 2.85488e-19 7.83377e-05)
(7.83377e-05 -3.89111e-05 -1.06346e-06 7.83377e-05 4.91433e-20 7.83377e-05)
(7.58803e-05 -3.75863e-05 -1.04173e-06 7.58803e-05 2.79751e-19 7.58803e-05)
(7.58803e-05 -3.75863e-05 -1.04173e-06 7.58803e-05 5.30624e-20 7.58803e-05)
(7.354e-05 -3.63227e-05 -1.02088e-06 7.354e-05 2.70454e-19 7.354e-05)
(7.354e-05 -3.63227e-05 -1.02088e-06 7.354e-05 5.68403e-20 7.354e-05)
(7.13145e-05 -3.5119e-05 -1.00092e-06 7.13145e-05 2.58429e-19 7.13145e-05)
(7.13145e-05 -3.5119e-05 -1.00092e-06 7.13145e-05 5.97632e-20 7.13145e-05)
(6.92014e-05 -3.39734e-05 -9.81852e-07 6.92014e-05 2.46403e-19 6.92014e-05)
(6.92014e-05 -3.39734e-05 -9.81852e-07 6.92014e-05 6.23574e-20 6.92014e-05)
(6.71981e-05 -3.28841e-05 -9.63675e-07 6.71981e-05 2.34608e-19 6.71981e-05)
(6.71981e-05 -3.28841e-05 -9.63675e-07 6.71981e-05 6.56266e-20 6.71981e-05)
(6.53018e-05 -3.18492e-05 -9.46385e-07 6.53018e-05 2.20707e-19 6.53018e-05)
(6.53018e-05 -3.18492e-05 -9.46385e-07 6.53018e-05 6.83707e-20 6.53018e-05)
(6.35096e-05 -3.08668e-05 -9.29972e-07 6.35096e-05 2.08784e-19 6.35096e-05)
(6.35096e-05 -3.08668e-05 -9.29972e-07 6.35096e-05 6.98548e-20 6.35096e-05)
(6.18184e-05 -2.99347e-05 -9.14422e-07 6.18184e-05 1.98146e-19 6.18184e-05)
(6.18184e-05 -2.99347e-05 -9.14422e-07 6.18184e-05 7.24435e-20 6.18184e-05)
(6.02253e-05 -2.90508e-05 -8.99714e-07 6.02253e-05 1.7779e-19 6.02253e-05)
(6.02253e-05 -2.90508e-05 -8.99714e-07 6.02253e-05 7.81227e-20 6.02253e-05)
(5.87272e-05 -2.82127e-05 -8.85823e-07 5.87272e-05 1.47862e-19 5.87272e-05)
(5.87272e-05 -2.82127e-05 -8.85823e-07 5.87272e-05 8.5432e-20 5.87272e-05)
(5.7321e-05 -2.74182e-05 -8.72719e-07 5.7321e-05 1.2315e-19 5.7321e-05)
(5.7321e-05 -2.74182e-05 -8.72719e-07 5.7321e-05 8.97198e-20 5.7321e-05)
(5.60036e-05 -2.66647e-05 -8.60363e-07 5.60036e-05 9.46276e-20 5.60036e-05)
(5.60036e-05 -2.66647e-05 -8.60363e-07 5.60036e-05 9.56625e-20 5.60036e-05)
(5.47719e-05 -2.59497e-05 -8.48712e-07 5.47719e-05 5.82107e-20 5.47719e-05)
(5.47719e-05 -2.59497e-05 -8.48712e-07 5.47719e-05 1.0279e-19 5.47719e-05)
(5.36229e-05 -2.52706e-05 -8.37715e-07 5.36229e-05 1.43733e-20 5.36229e-05)
(5.36229e-05 -2.52706e-05 -8.37715e-07 5.36229e-05 1.09692e-19 5.36229e-05)
(5.25537e-05 -2.46246e-05 -8.27314e-07 5.25537e-05 -1.60644e-20 5.25537e-05)
(5.25537e-05 -2.46246e-05 -8.27314e-07 5.25537e-05 1.16991e-19 5.25537e-05)
(5.15612e-05 -2.40088e-05 -8.1744e-07 5.15612e-05 -6.84678e-20 5.15612e-05)
(5.15612e-05 -2.40088e-05 -8.1744e-07 5.15612e-05 1.24263e-19 5.15612e-05)
(5.06428e-05 -2.34203e-05 -8.08019e-07 5.06428e-05 -1.22707e-19 5.06428e-05)
(5.06428e-05 -2.34203e-05 -8.08018e-07 5.06428e-05 1.35775e-19 5.06428e-05)
(4.97957e-05 -2.28558e-05 -7.9896e-07 4.97957e-05 -1.88688e-19 4.97957e-05)
(4.97957e-05 -2.28558e-05 -7.9896e-07 4.97957e-05 1.47117e-19 4.97957e-05)
(4.90171e-05 -2.2312e-05 -7.90167e-07 4.90171e-05 -2.70536e-19 4.90171e-05)
(4.90171e-05 -2.2312e-05 -7.90167e-07 4.90171e-05 1.60124e-19 4.90171e-05)
(4.83046e-05 -2.17854e-05 -7.81528e-07 4.83046e-05 -3.65264e-19 4.83046e-05)
(4.83046e-05 -2.17854e-05 -7.81528e-07 4.83046e-05 1.75775e-19 4.83046e-05)
(4.76555e-05 -2.12723e-05 -7.72918e-07 4.76555e-05 -4.75602e-19 4.76555e-05)
(4.76555e-05 -2.12723e-05 -7.72918e-07 4.76555e-05 1.90299e-19 4.76555e-05)
(4.70674e-05 -2.07687e-05 -7.64199e-07 4.70674e-05 -6.19164e-19 4.70674e-05)
(4.70674e-05 -2.07687e-05 -7.64199e-07 4.70674e-05 2.11223e-19 4.70674e-05)
(4.6538e-05 -2.02707e-05 -7.5522e-07 4.6538e-05 -7.90076e-19 4.6538e-05)
(4.6538e-05 -2.02707e-05 -7.5522e-07 4.6538e-05 2.33722e-19 4.6538e-05)
(4.60647e-05 -1.97738e-05 -7.45816e-07 4.60647e-05 -9.66096e-19 4.60647e-05)
(4.60647e-05 -1.97738e-05 -7.45816e-07 4.60647e-05 2.5245e-19 4.60647e-05)
(4.56452e-05 -1.92737e-05 -7.35811e-07 4.56452e-05 -1.16482e-18 4.56452e-05)
(4.56452e-05 -1.92737e-05 -7.35811e-07 4.56452e-05 2.76753e-19 4.56452e-05)
(4.52772e-05 -1.87659e-05 -7.2502e-07 4.52772e-05 -1.41624e-18 4.52772e-05)
(4.52772e-05 -1.87659e-05 -7.2502e-07 4.52772e-05 3.12043e-19 4.52772e-05)
(4.4958e-05 -1.82459e-05 -7.13253e-07 4.4958e-05 -1.69779e-18 4.4958e-05)
(4.4958e-05 -1.82459e-05 -7.13253e-07 4.4958e-05 3.47556e-19 4.4958e-05)
(4.46853e-05 -1.77096e-05 -7.00322e-07 4.46853e-05 -2.01619e-18 4.46853e-05)
(4.46853e-05 -1.77096e-05 -7.00322e-07 4.46853e-05 3.80811e-19 4.46853e-05)
(4.44562e-05 -1.71527e-05 -6.86049e-07 4.44562e-05 -2.39217e-18 4.44562e-05)
(4.44562e-05 -1.71527e-05 -6.86049e-07 4.44562e-05 4.29779e-19 4.44562e-05)
(4.4268e-05 -1.65721e-05 -6.70273e-07 4.4268e-05 -2.79537e-18 4.4268e-05)
(4.4268e-05 -1.6572e-05 -6.70273e-07 4.4268e-05 4.91929e-19 4.4268e-05)
(4.41178e-05 -1.59648e-05 -6.52862e-07 4.41178e-05 -3.24616e-18 4.41178e-05)
(4.41178e-05 -1.59648e-05 -6.52862e-07 4.41178e-05 5.50541e-19 4.41178e-05)
(4.40024e-05 -1.53291e-05 -6.33727e-07 4.40024e-05 -3.73291e-18 4.40024e-05)
(4.40024e-05 -1.53291e-05 -6.33727e-07 4.40024e-05 6.08271e-19 4.40024e-05)
(4.39186e-05 -1.46647e-05 -6.1283e-07 4.39186e-05 -4.26792e-18 4.39186e-05)
(4.39186e-05 -1.46647e-05 -6.1283e-07 4.39186e-05 6.95599e-19 4.39186e-05)
(4.3863e-05 -1.39724e-05 -5.90197e-07 4.3863e-05 -4.85135e-18 4.3863e-05)
(4.3863e-05 -1.39723e-05 -5.90197e-07 4.3863e-05 8.0625e-19 4.3863e-05)
(4.38322e-05 -1.32547e-05 -5.65926e-07 4.38322e-05 -5.40782e-18 4.38322e-05)
(4.38322e-05 -1.32547e-05 -5.65925e-07 4.38322e-05 9.54783e-19 4.38322e-05)
(4.38228e-05 -1.25159e-05 -5.40191e-07 4.38228e-05 -5.9951e-18 4.38228e-05)
(4.38228e-05 -1.25159e-05 -5.40191e-07 4.38228e-05 1.08888e-18 4.38228e-05)
(4.38313e-05 -1.1762e-05 -5.13249e-07 4.38313e-05 -6.71924e-18 4.38313e-05)
(4.38313e-05 -1.1762e-05 -5.13248e-07 4.38313e-05 1.17528e-18 4.38313e-05)
(4.38546e-05 -1.10003e-05 -4.85427e-07 4.38546e-05 -7.42508e-18 4.38546e-05)
(4.38546e-05 -1.10003e-05 -4.85427e-07 4.38546e-05 1.32013e-18 4.38546e-05)
(4.38896e-05 -1.02397e-05 -4.57126e-07 4.38896e-05 -7.96771e-18 4.38896e-05)
(4.38896e-05 -1.02397e-05 -4.57126e-07 4.38896e-05 1.65873e-18 4.38896e-05)
(4.39335e-05 -9.49003e-06 -4.28807e-07 4.39335e-05 -8.425e-18 4.39335e-05)
(4.39335e-05 -9.49003e-06 -4.28807e-07 4.39335e-05 1.89631e-18 4.39335e-05)
(4.39839e-05 -8.76184e-06 -4.00979e-07 4.39839e-05 -8.83477e-18 4.39839e-05)
(4.39839e-05 -8.76184e-06 -4.00979e-07 4.39839e-05 2.14899e-18 4.39839e-05)
(4.40387e-05 -8.06606e-06 -3.74189e-07 4.40387e-05 -9.26035e-18 4.40387e-05)
(4.40387e-05 -8.06606e-06 -3.74189e-07 4.40387e-05 2.38211e-18 4.40387e-05)
(4.40961e-05 -7.41364e-06 -3.49008e-07 4.40961e-05 -9.72332e-18 4.40961e-05)
(4.40961e-05 -7.41364e-06 -3.49008e-07 4.40961e-05 2.6052e-18 4.40961e-05)
(4.41546e-05 -6.81525e-06 -3.26025e-07 4.41546e-05 -1.00017e-17 4.41546e-05)
(4.41546e-05 -6.81525e-06 -3.26025e-07 4.41546e-05 2.85574e-18 4.41546e-05)
(4.42132e-05 -6.28104e-06 -3.05831e-07 4.42132e-05 -1.02357e-17 4.42132e-05)
(4.42132e-05 -6.28104e-06 -3.05831e-07 4.42132e-05 3.27904e-18 4.42132e-05)
(4.42711e-05 -5.82042e-06 -2.89017e-07 4.42711e-05 -1.03612e-17 4.42711e-05)
(4.42711e-05 -5.82042e-06 -2.89017e-07 4.42711e-05 3.86134e-18 4.42711e-05)
(4.43277e-05 -5.44201e-06 -2.76168e-07 4.43277e-05 -9.95899e-18 4.43277e-05)
(4.43277e-05 -5.44201e-06 -2.76168e-07 4.43277e-05 5.00214e-18 4.43277e-05)
(4.43826e-05 -5.15349e-06 -2.67852e-07 4.43826e-05 -9.61292e-18 4.43826e-05)
(4.43826e-05 -5.15349e-06 -2.67852e-07 4.43826e-05 5.03236e-18 4.43826e-05)
(4.44356e-05 -4.96161e-06 -2.64626e-07 4.44356e-05 -9.57517e-18 4.44356e-05)
(4.44356e-05 -4.96161e-06 -2.64626e-07 4.44356e-05 5.19577e-18 4.44356e-05)
(4.44866e-05 -4.87216e-06 -2.67025e-07 4.44866e-05 -9.46705e-18 4.44866e-05)
(4.44866e-05 -4.87216e-06 -2.67025e-07 4.44866e-05 5.86592e-18 4.44866e-05)
(4.45357e-05 -4.89004e-06 -2.75565e-07 4.45357e-05 -9.37426e-18 4.45357e-05)
(4.45357e-05 -4.89004e-06 -2.75565e-07 4.45357e-05 6.84985e-18 4.45357e-05)
(4.45829e-05 -5.01919e-06 -2.90739e-07 4.45829e-05 -9.4073e-18 4.45829e-05)
(4.45829e-05 -5.01919e-06 -2.90739e-07 4.45829e-05 7.85446e-18 4.45829e-05)
(4.46283e-05 -5.26274e-06 -3.13014e-07 4.46283e-05 -9.29483e-18 4.46283e-05)
(4.46283e-05 -5.26274e-06 -3.13014e-07 4.46283e-05 8.37426e-18 4.46283e-05)
(4.46723e-05 -5.62296e-06 -3.42831e-07 4.46723e-05 -8.78158e-18 4.46723e-05)
(4.46723e-05 -5.62296e-06 -3.42831e-07 4.46723e-05 8.73429e-18 4.46723e-05)
(4.47149e-05 -6.10134e-06 -3.80603e-07 4.47149e-05 -8.83571e-18 4.47149e-05)
(4.47149e-05 -6.10134e-06 -3.80603e-07 4.47149e-05 9.62417e-18 4.47149e-05)
(4.47563e-05 -6.69861e-06 -4.26714e-07 4.47563e-05 -8.6902e-18 4.47563e-05)
(4.47563e-05 -6.6986e-06 -4.26714e-07 4.47563e-05 1.06497e-17 4.47563e-05)
(4.47968e-05 -7.41478e-06 -4.81517e-07 4.47968e-05 -8.24806e-18 4.47968e-05)
(4.47968e-05 -7.41478e-06 -4.81517e-07 4.47968e-05 1.16284e-17 4.47968e-05)
(4.48366e-05 -8.24921e-06 -5.45333e-07 4.48366e-05 -7.80265e-18 4.48366e-05)
(4.48366e-05 -8.24921e-06 -5.45333e-07 4.48366e-05 1.26915e-17 4.48366e-05)
(4.48758e-05 -9.20059e-06 -6.18447e-07 4.48758e-05 -7.58536e-18 4.48758e-05)
(4.48758e-05 -9.20059e-06 -6.18447e-07 4.48758e-05 1.34612e-17 4.48758e-05)
(4.49147e-05 -1.0267e-05 -7.01114e-07 4.49147e-05 -7.12916e-18 4.49147e-05)
(4.49147e-05 -1.0267e-05 -7.01114e-07 4.49147e-05 1.34885e-17 4.49147e-05)
(4.49535e-05 -1.14461e-05 -7.93551e-07 4.49535e-05 -6.91217e-18 4.49535e-05)
(4.49535e-05 -1.14461e-05 -7.93551e-07 4.49535e-05 1.34495e-17 4.49535e-05)
(4.49923e-05 -1.27347e-05 -8.95942e-07 4.49923e-05 -7.1931e-18 4.49923e-05)
(4.49923e-05 -1.27347e-05 -8.95942e-07 4.49923e-05 1.49237e-17 4.49923e-05)
(4.50314e-05 -1.41296e-05 -1.00844e-06 4.50314e-05 -7.5992e-18 4.50314e-05)
(4.50314e-05 -1.41296e-05 -1.00844e-06 4.50314e-05 1.68585e-17 4.50314e-05)
(4.50708e-05 -1.56267e-05 -1.13115e-06 4.50708e-05 -6.4056e-18 4.50708e-05)
(4.50708e-05 -1.56267e-05 -1.13115e-06 4.50708e-05 1.83249e-17 4.50708e-05)
(4.51108e-05 -1.72218e-05 -1.26415e-06 4.51108e-05 -5.45156e-18 4.51108e-05)
(4.51108e-05 -1.72218e-05 -1.26415e-06 4.51108e-05 1.96341e-17 4.51108e-05)
(4.51514e-05 -1.89103e-05 -1.4075e-06 4.51514e-05 -5.74015e-18 4.51514e-05)
(4.51514e-05 -1.89103e-05 -1.4075e-06 4.51514e-05 2.07949e-17 4.51514e-05)
(4.5193e-05 -2.06873e-05 -1.56122e-06 4.5193e-05 -6.30293e-18 4.5193e-05)
(4.5193e-05 -2.06873e-05 -1.56122e-06 4.5193e-05 2.1853e-17 4.5193e-05)
(4.52355e-05 -2.25477e-05 -1.72528e-06 4.52355e-05 -5.47769e-18 4.52355e-05)
(4.52355e-05 -2.25477e-05 -1.72528e-06 4.52355e-05 2.28052e-17 4.52355e-05)
(4.52792e-05 -2.44861e-05 -1.89964e-06 4.52792e-05 -2.7197e-18 4.52792e-05)
(4.52792e-05 -2.44861e-05 -1.89964e-06 4.52792e-05 2.26669e-17 4.52792e-05)
(4.53241e-05 -2.64971e-05 -2.08424e-06 4.53241e-05 -3.35927e-18 4.53241e-05)
(4.53241e-05 -2.64971e-05 -2.08424e-06 4.53241e-05 2.37281e-17 4.53241e-05)
(4.53704e-05 -2.8575e-05 -2.27898e-06 4.53704e-05 -5.37298e-18 4.53704e-05)
(4.53704e-05 -2.8575e-05 -2.27898e-06 4.53704e-05 2.56271e-17 4.53704e-05)
(4.54183e-05 -3.07143e-05 -2.48376e-06 4.54183e-05 -4.40981e-18 4.54183e-05)
(4.54183e-05 -3.07143e-05 -2.48376e-06 4.54183e-05 2.69003e-17 4.54183e-05)
(4.54679e-05 -3.29093e-05 -2.69843e-06 4.54679e-05 -4.71122e-18 4.54679e-05)
(4.54679e-05 -3.29093e-05 -2.69843e-06 4.54679e-05 2.77911e-17 4.54679e-05)
(4.55192e-05 -3.51543e-05 -2.92286e-06 4.55192e-05 -3.92826e-18 4.55192e-05)
(4.55192e-05 -3.51543e-05 -2.92286e-06 4.55192e-05 2.85451e-17 4.55192e-05)
(4.55725e-05 -3.74439e-05 -3.15687e-06 4.55725e-05 -5.10526e-18 4.55725e-05)
(4.55725e-05 -3.74439e-05 -3.15687e-06 4.55725e-05 2.99899e-17 4.55725e-05)
(4.56278e-05 -3.97725e-05 -3.40029e-06 4.56278e-05 -5.51651e-18 4.56278e-05)
(4.56278e-05 -3.97725e-05 -3.40029e-06 4.56278e-05 3.21449e-17 4.56278e-05)
(4.56853e-05 -4.21349e-05 -3.65294e-06 4.56853e-05 -9.44918e-19 4.56853e-05)
(4.56853e-05 -4.21349e-05 -3.65294e-06 4.56853e-05 3.31132e-17 4.56853e-05)
(4.57451e-05 -4.45259e-05 -3.91463e-06 4.57451e-05 3.25952e-19 4.57451e-05)
(4.57451e-05 -4.45259e-05 -3.91463e-06 4.57451e-05 3.36457e-17 4.57451e-05)
(4.58073e-05 -4.69404e-05 -4.18516e-06 4.58073e-05 1.36322e-18 4.58073e-05)
(4.58073e-05 -4.69404e-05 -4.18516e-06 4.58073e-05 3.4884e-17 4.58073e-05)
(4.5872e-05 -4.93737e-05 -4.46433e-06 4.5872e-05 9.88094e-19 4.5872e-05)
(4.5872e-05 -4.93737e-05 -4.46433e-06 4.5872e-05 3.64118e-17 4.5872e-05)
(4.59395e-05 -5.18211e-05 -4.75195e-06 4.59395e-05 -3.55024e-20 4.59395e-05)
(4.59395e-05 -5.18211e-05 -4.75195e-06 4.59395e-05 3.81753e-17 4.59395e-05)
(4.60098e-05 -5.42784e-05 -5.04782e-06 4.60098e-05 -2.06206e-18 4.60098e-05)
(4.60098e-05 -5.42784e-05 -5.04782e-06 4.60098e-05 3.90901e-17 4.60098e-05)