/*--------------------------------*- C++ -*----------------------------------*\
| =========                 |                                                 |
| \\      /  F ield         | OpenFOAM: The Open Source CFD Toolbox           |
|  \\    /   O peration     | Version:  2012                                  |
|   \\  /    A nd           | Website:  www.openfoam.com                      |
|    \\/     M anipulation  |                                                 |
\*---------------------------------------------------------------------------*/
FoamFile
{
    version     2.0;
    format      ascii;
    class       volTensorField;
    location    "12200";
    object      grad(U);
}
// * * * * * * * * * * * * * * * * * * * * * * * * * * * * * * * * * * * * * //

dimensions      [0 0 -1 0 0 0 0];


internalField   nonuniform List<tensor> 
2560
(
(-7.3145e-17 -1.30426e-14 1.3324e-13 424.128 0 3.13651 0.61484 -5.42101e-20 0.00542451)
(0 0 0 423.632 0.0244168 0.000253889 0.614841 -0.000381486 -0.00540834)
(0 1.40814e-19 0 422.572 -0.000341217 -8.3429e-21 1.84837 6.21431e-05 0)
(-2.88386e-16 -1.0561e-19 2.25302e-18 422.088 0.140857 -0.000166622 1.84837 6.15307e-05 -0.00767204)
(-7.93075e-17 -1.34458e-19 0 421.202 -0.0774065 -1.67693 2.52436 2.8704e-05 0.00528126)
(0 2.68916e-19 -1.11036e-18 420.744 0.0559286 -5.61884e-05 2.52171 2.75377e-05 -0.00526552)
(8.10798e-16 -2.7094e-19 5.47225e-19 419.829 -0.0403673 -1.27916 2.55273 -1.27297e-06 0.0026969)
(-5.60358e-16 2.7094e-19 -5.47225e-19 419.409 0.0309515 -1.85335e-05 2.5503 -2.4652e-06 -0.00268886)
(2.20931e-15 -4.74395e-19 1.34845e-18 418.469 -0.0163578 -0.59743 2.58149 8.10498e-07 0.00142365)
(0 5.42081e-19 -1.07876e-18 418.091 0.0169025 -5.44147e-06 2.57929 -1.11996e-06 -0.00141941)
(1.68753e-15 -2.03263e-19 3.98738e-19 417.001 -0.010345 -0.265245 2.60911 5.49935e-07 0.000869701)
(3.70306e-15 2.71017e-19 -3.98738e-19 416.667 0.0103593 -9.76115e-07 2.60715 -1.19185e-06 -0.00086711)
(-7.76168e-16 -6.78067e-20 1.31008e-19 415.221 -0.00718211 -0.13305 2.63447 9.64e-07 0.000600331)
(3.10563e-15 2.03292e-19 -2.62015e-19 414.931 0.00708321 -3.10759e-07 2.63277 -8.61057e-07 -0.000598542)
(-3.07139e-15 3.3884e-19 -6.4565e-20 413.045 -0.00532997 -0.0758084 2.65746 3.03402e-07 0.000450526)
(3.8237e-15 -2.71123e-19 0 412.798 0.00546168 -1.22776e-07 2.656 -1.61527e-06 -0.000449183)
(3.22219e-15 -2.03286e-19 1.90919e-19 410.681 -0.00425323 -0.0475911 2.6807 1.45573e-06 0.000357938)
(-2.08534e-15 2.71051e-19 -1.90919e-19 410.475 0.00420487 -3.00702e-08 2.67948 -5.728e-07 -0.000356871)
(0 2.71002e-19 -1.25455e-19 408.561 -0.00348811 -0.0320645 2.70714 1.7353e-07 0.000247345)
(0 -2.03129e-19 0 408.393 0.00361435 -2.23401e-08 2.70615 -1.73375e-06 -0.00029522)
(-1.50311e-15 -4.7434e-19 1.74745e-19 406.75 -0.00291188 -0.0227661 2.73483 1.93256e-06 0.000174964)
(0 5.42146e-19 -2.164e-19 406.618 0.00294745 -8.23295e-09 2.73405 -2.97503e-07 -0.000251608)
(3.68577e-15 -8.80807e-19 2.56364e-19 405.107 -0.00247037 -0.0168231 2.76396 3.004e-07 0.000129285)
(0 8.13199e-19 -1.82827e-19 405.007 0.00269193 -4.06219e-08 2.76339 -2.15204e-06 -0.000219384)
(1.96834e-15 -4.06638e-19 9.01033e-20 403.737 -0.00229558 -0.0128565 2.79595 2.74344e-06 9.88379e-05)
(0 6.0984e-19 -9.01033e-20 403.667 0.040842 0.000142518 2.79556 5.73635e-07 -0.000194749)
(-2.06571e-15 3.40445e-19 -4.31029e-20 402.522 -0.00252756 -0.0100205 2.82783 0.000133961 7.80529e-05)
(8.26295e-15 2.52778e-34 0 402.479 -1.38801e-17 1.8313e-06 2.82762 0 -0.000174801)
(0 -5.13506e-17 -1.45898e-19 401.017 -2.07661e-19 -0.00802465 2.85636 -5.42101e-20 6.18245e-05)
(0 -6.41952e-19 1.45898e-19 400.998 0.119851 0.000199964 2.8563 -0.000266452 -0.000159885)
(-2.45292e-15 2.30091e-19 -1.30924e-20 398.878 -0.00292976 -0.00646365 2.87968 0.000562818 5.18443e-05)
(9.81165e-15 0 0 398.878 -2.16454e-17 6.40532e-06 2.87975 -5.40195e-35 -0.000145746)
(0 -3.25861e-17 -1.41746e-19 395.998 3.34238e-17 -0.00524719 2.89772 1.0842e-19 4.10251e-05)
(-1.06009e-14 8.92219e-16 1.41746e-19 396.016 0.0861694 -0.000226465 2.89791 -0.000314284 -0.000136731)
(-3.66253e-15 1.67657e-18 -8.38287e-20 392.788 -0.00219133 -0.00441106 2.91617 0.000918708 3.54869e-05)
(-7.73233e-15 -3.81681e-19 8.38287e-20 392.82 -3.43986e-17 2.24627e-06 2.91646 1.0842e-19 -0.00012749)
(3.61004e-15 -2.20339e-19 6.8856e-20 390.234 -0.000420704 -0.00370628 2.94397 -0.000145878 2.97611e-05)
(0 1.14357e-29 -8.26272e-20 390.278 3.73434e-17 -4.6572e-06 2.94434 0 -0.000120465)
(3.24592e-15 1.30309e-18 -4.20675e-20 389.122 -0.00243547 -0.00314224 2.98453 0.00105186 2.58661e-05)
(-1.29834e-14 -5.82816e-19 8.14429e-20 389.174 -3.6426e-20 8.58895e-07 2.98496 0 -0.000113637)
(0 -2.14068e-19 -9.36549e-20 389.32 -0.000151832 -0.00268289 3.0333 -0.000596684 2.19773e-05)
(0 3.16695e-19 9.36549e-20 389.379 4.16136e-17 -5.8055e-06 3.03379 0 -0.000108542)
(-1.92699e-16 -6.33001e-19 2.78832e-20 390.078 -0.00237881 -0.00230646 3.08393 0.001184 1.94724e-05)
(-3.45703e-15 -1.54074e-33 -5.27501e-20 390.143 -4.15924e-17 -1.49933e-07 3.08446 2.34257e-34 -0.000103323)
(2.95814e-15 3.16024e-20 1.31443e-19 390.8 0.000363696 -0.00205641 3.13373 -0.00104218 1.66753e-05)
(0 0 -1.42984e-19 390.869 -2.16469e-35 0.000270954 3.13429 -1.73175e-34 -9.95384e-05)
(0 1.84496e-18 -6.4061e-20 391.36 -0.00274819 -0.00172459 3.18336 0.0015833 1.60358e-05)
(-1.62693e-14 -6.58372e-19 1.02498e-19 391.43 -5.48643e-20 5.23285e-06 3.18394 0 -9.40779e-05)
(4.28132e-15 -8.08229e-19 -5.18861e-20 391.857 0.000554797 -0.00150974 3.23373 -0.00193643 1.17691e-05)
(0 4.81482e-35 6.31429e-20 391.928 3.64764e-32 9.23399e-05 3.23432 -2.1684e-19 -9.26081e-05)
(-8.99736e-15 3.18658e-18 -1.07899e-19 392.329 -0.0032012 -0.00129374 3.28452 0.00231524 1.29618e-05)
(0 -9.62965e-35 8.7133e-20 392.4 -7.72954e-17 1.07803e-05 3.28511 -1.78209e-34 -8.75116e-05)
(1.4159e-14 1.96307e-18 1.55582e-19 392.689 0.00104804 -0.00105043 3.33456 -0.00275259 8.49925e-06)
(3.77567e-14 1.57772e-30 -1.22692e-19 392.758 9.71445e-17 -0.000268722 3.33514 4.33681e-19 -8.72413e-05)
(0 -3.86986e-18 8.46532e-20 392.81 -0.00344244 -0.000973795 3.38282 0.00284392 9.21076e-06)
(1.97772e-14 -7.88861e-31 -8.46532e-20 392.877 -9.22575e-17 6.84892e-06 3.38339 0 -8.42124e-05)
(-7.32637e-15 -1.14432e-18 -2.52277e-20 392.654 0.00169009 -0.000848768 3.42951 -0.00300892 7.42822e-06)
(0 4.17843e-19 1.192e-20 392.718 1.04461e-19 2.66991e-06 3.43005 0 -8.30757e-05)
(-1.08079e-14 0 -2.03906e-20 392.416 -0.00386993 -0.000740779 3.47771 0.00310638 7.29576e-06)
(-4.3231e-14 -4.30821e-18 0 392.476 1.07705e-19 1.79447e-06 3.47822 4.33681e-19 -8.05211e-05)
(-5.63743e-15 -1.11175e-18 -4.50584e-20 392.653 0.00233399 -0.000647875 3.53423 -0.00327649 5.73129e-06)
(-2.25495e-14 2.2749e-18 1.15807e-20 392.709 9.70308e-17 -1.12045e-05 3.53471 0 -7.98322e-05)
(0 4.38327e-18 -1.02733e-19 394.214 -0.00444453 -0.000568969 3.60806 0.00337613 5.83846e-06)
(-2.34895e-14 -1.40476e-18 1.02733e-19 394.264 1.17063e-19 -1.84309e-06 3.60849 0 -7.76776e-05)
(0 2.16022e-18 7.87582e-20 397.933 0.00313179 -0.000498354 3.70662 -0.00354599 4.4593e-06)
(2.44363e-14 0 -7.87582e-20 397.977 6.8158e-18 -1.38525e-05 3.707 -4.33681e-19 -7.72847e-05)
(-6.34887e-15 0 -9.84895e-21 404.257 -0.00517745 -0.000437154 3.83252 0.00364713 4.70214e-06)
(0 -9.62965e-35 -2.21798e-20 404.294 -1.08512e-16 -1.24141e-06 3.83285 -4.33681e-19 -7.54484e-05)
(-1.80559e-14 -2.09874e-18 -7.55848e-20 413.042 0.00397432 -0.000457177 3.98262 -0.00381495 3.44042e-06)
(1.14619e-14 9.62965e-35 6.55858e-20 413.074 1.37454e-17 0.000322809 3.9829 -4.33681e-19 -7.52712e-05)
(-1.81449e-14 4.13733e-18 -4.15844e-20 423.628 -0.00617484 -0.000322716 4.14944 0.00423807 5.22145e-06)
(-2.73887e-14 -2.35146e-18 2.15486e-20 423.655 -2.81965e-17 6.70146e-06 4.14967 0 -7.17412e-05)
(7.11094e-15 2.03901e-18 2.72804e-17 435.069 0.00488402 -0.000193436 4.3237 -0.00473295 9.4167e-07)
(0 -1.92593e-33 -2.12397e-20 435.092 5.55112e-17 0.00103626 4.32391 -2.8297e-34 -7.37357e-05)
(7.38693e-15 -5.35944e-18 6.00056e-20 446.422 -0.00721707 -0.00020898 4.4969 0.00615797 9.0881e-06)
(0 -7.70372e-34 -5.23383e-20 446.442 0 2.14577e-05 4.49708 0 -6.41247e-05)
(-7.67583e-15 -1.32066e-18 6.77085e-35 456.987 0.00585619 -2.00577e-18 4.66364 -0.00768875 0)
(0 1.06731e-18 2.06353e-20 457.003 2.22311e-16 0.00042742 4.66379 0 -7.27332e-05)
(0 6.50864e-18 -3.05093e-20 466.532 -0.00812001 -9.79702e-05 4.82414 0.0094936 1.00091e-05)
(0 -1.31721e-18 5.08488e-20 466.545 -5.55112e-16 2.72762e-05 4.82426 1.73472e-18 -6.06274e-05)
(-8.28937e-15 -2.56614e-18 2.53077e-18 475.499 0.00672597 1.95156e-18 4.98659 -0.0114569 0)
(2.26465e-14 0 -1.0024e-20 475.509 -7.95126e-19 -0.000324194 4.98666 -1.73472e-18 -7.22709e-05)
(0 -1.26468e-17 5.92819e-20 485.105 -0.00881525 -2.75538e-06 5.16797 0.0129059 7.32929e-06)
(3.44409e-14 -6.31089e-30 -5.92819e-20 485.11 -7.78051e-16 2.22387e-05 5.168 1.50756e-29 -6.23911e-05)
(8.9378e-15 -7.47933e-18 1.74093e-17 497.206 0.00747033 3.79974e-18 5.3915 -0.0145551 0)
(-3.57512e-14 8.08084e-18 5.84323e-20 497.206 0 -0.00072157 5.39147 0 -7.2285e-05)
(9.2719e-15 -9.82951e-18 3.75808e-20 513.816 -0.00937683 6.86917e-05 5.67977 0.0152794 4.20963e-06)
(0 0 -2.87974e-20 513.81 -3.88578e-16 1.1578e-05 5.67968 1.36412e-33 -6.72962e-05)
(-9.61513e-15 2.42216e-18 4.45429e-18 536.392 0.00810681 -5.05655e-21 6.04644 -0.0162186 0)
(0 1.54074e-33 -3.78462e-20 536.381 4.11977e-16 -0.000311148 6.0463 1.00843e-33 -7.26687e-05)
(9.97301e-15 7.16232e-18 -9.35583e-21 565.253 -0.00999496 0.000121953 6.49078 0.016642 3.12001e-06)
(3.01132e-14 -2.77334e-32 0 565.239 -4.02456e-16 6.95256e-06 6.49061 0 -6.99017e-05)
(0 4.70645e-18 5.4407e-18 599.449 0.00879364 1.82959e-18 6.99845 -0.0172811 0)
(4.14119e-14 3.08149e-33 -4.59614e-20 599.433 8.32667e-16 0.000155402 6.99827 -3.46945e-18 -7.33517e-05)
(-1.07625e-14 0 -9.04699e-21 637.102 -0.0107102 0.00017077 7.54655 0.0178651 4.60759e-06)
(0 -7.70372e-34 -1.81211e-20 637.088 0 9.08022e-06 7.54642 0 -6.95947e-05)
(-1.12076e-14 0 0 676.075 0.00953975 0 8.11246 -0.0186699 0)
(0 3.00445e-32 -8.93067e-21 676.067 4.47626e-16 0.00322568 8.11242 3.46945e-18 -7.43355e-05)
(1.84605e-14 -4.50697e-18 1.76053e-20 714.501 -0.0106617 0.000238091 8.6769 0.0224164 2.4127e-05)
(0 3.08149e-32 -1.76053e-20 714.503 -4.472e-16 5.51823e-05 8.677 1.25093e-33 -4.73281e-05)
(5.97645e-15 8.88474e-18 1.42136e-17 750.553 0.0100033 -1.72945e-18 9.21562 -0.0264655 0)
(-1.8196e-14 7.70372e-33 -4.33825e-20 750.571 1.11022e-16 -0.00112431 9.21593 -3.46945e-18 -7.58095e-05)
(-1.79352e-14 2.62722e-17 -5.13129e-20 781.446 -0.0098803 0.000365287 9.68351 0.0290078 1.88449e-05)
(-5.11758e-14 -2.01266e-17 5.13129e-20 781.484 -5.57124e-16 9.80246e-05 9.6841 0 -5.73288e-05)
(-1.34226e-14 2.58957e-17 6.86769e-18 802.105 0.00917951 0.000627814 9.99607 -0.0318621 3.8504e-06)
(5.36899e-14 0 -5.05774e-20 802.17 1.32785e-15 -0.00144939 9.99707 -1.11188e-29 -7.77041e-05)
(0 2.55245e-17 -4.98525e-20 804.004 -0.00905901 0.000660958 10.0148 0.0326808 1.26637e-05)
(0 0 4.98525e-20 804.106 -9.06706e-31 0.000212169 10.0163 -6.29365e-34 -7.17268e-05)
(-3.20489e-14 -1.67724e-17 -2.63818e-20 774.721 0.0062285 0.000848538 9.54408 -0.0337729 8.73415e-06)
(7.66696e-14 0 1.63793e-20 774.869 7.42512e-16 0.000945769 9.54629 0 -8.06016e-05)
(3.14025e-14 -1.65321e-17 4.55268e-20 699.049 -0.00898956 0.00125382 8.3555 0.0348915 2.34927e-05)
(6.28033e-14 -5.54668e-32 -3.22892e-20 699.252 -7.4698e-16 0.000373882 8.35851 9.9641e-33 -7.0977e-05)
(1.66862e-14 1.22213e-17 3.18264e-20 561.97 0.0018668 0.00154474 6.23502 -0.0363277 1.6606e-05)
(0 -5.85483e-32 -3.18264e-20 562.237 8.32667e-16 0.00120419 6.23895 -2.82675e-33 -8.64153e-05)
(-1.74501e-14 -8.03078e-18 1.06984e-20 353.028 -0.00778354 0.00203707 3.05074 0.0378242 3.72572e-05)
(0 1.15556e-31 -3.13702e-20 353.362 -1.66796e-15 0.000385942 3.05565 2.22899e-33 -7.29784e-05)
(-1.48721e-12 -2.3747e-17 -5.14059e-20 0.438725 -0.00114825 0.00229262 0.00293417 -0.039788 2.39787e-05)
(1.26218e-29 -3.08149e-33 6.18412e-20 5.9301e-30 -1.91583e-33 0.000651523 -1.18602e-29 3.83166e-33 -9.7571e-05)
(1.99463e-12 0 -5.39455e-21 -173.604 -0.00270493 0.00253653 1.17793 0.0415187 4.50165e-05)
(0 0 -1.52387e-20 -172.734 -2.88078e-18 0.000111285 1.17204 6.93889e-18 -8.36728e-05)
(-1.67049e-14 7.6904e-18 3.26667e-20 -651.62 -0.00187736 0.00255712 6.24085 -0.0438672 2.52522e-05)
(6.68234e-14 6.16298e-33 -7.51016e-20 -651.088 8.84405e-16 -0.000615384 6.23398 6.93889e-18 -0.000114345)
(-1.51271e-14 1.51604e-17 -6.84464e-20 -1033.04 0.00458099 0.00229493 11.7415 0.0454805 3.89575e-05)
(-1.55242e-14 -6.57006e-32 0 -1032.45 -9.46845e-16 -0.000312806 11.7337 0 -0.000105221)
(-1.10692e-14 -2.98861e-17 -1.19284e-19 -1377.97 -0.00314029 0.00204063 17.1563 -0.0477041 1.87321e-05)
(-6.80482e-14 2.64823e-17 8.7557e-20 -1377.35 3.31029e-18 -0.00165525 17.1477 -6.93889e-18 -0.000132818)
(-2.20021e-14 -3.68222e-17 5.58678e-20 -1652.2 0.00946469 0.00140763 21.9327 0.0488785 2.1765e-05)
(8.80185e-14 0 -8.63021e-20 -1651.54 -9.12543e-16 -0.00056548 21.9235 4.34353e-30 -0.000131192)
(-2.61474e-14 -5.08123e-17 -2.27949e-19 -1832.15 -0.00724103 0.00103985 25.6014 -0.0505001 8.47376e-06)
(-4.97348e-14 1.40172e-17 1.7013e-19 -1831.47 1.92901e-15 -0.00138506 25.5916 0 -0.000147123)
(-6.46891e-15 -5.0084e-17 2.16063e-18 -1908.31 0.010553 2.77827e-18 27.8629 0.0512296 0)
(2.58812e-14 0 -1.39743e-19 -1907.64 9.50799e-16 0.00153305 27.8529 2.76843e-30 -0.000148768)
(-2.84366e-15 2.11569e-17 7.33531e-20 -1885.04 -0.0118628 -0.000105645 28.6218 -0.0509177 5.19564e-06)
(7.22156e-15 -3.08149e-33 -5.50962e-20 -1884.41 3.48221e-17 0.00039128 28.612 -6.93889e-18 -0.000136516)
(0 -5.56098e-17 2.01809e-20 -1777.49 0.00995882 -3.40292e-20 27.9751 0.0511629 2.71051e-20)
(1.0112e-14 0 -1.35766e-19 -1776.97 9.15934e-16 0.00081451 27.9663 6.93889e-18 -0.000145179)
(0 6.8516e-18 5.35281e-20 -1606.84 -0.0140897 -0.00042069 26.1602 -0.0506592 1.35923e-05)
(3.85853e-15 0 -5.35281e-20 -1606.49 -9.15934e-16 0.000138746 26.1532 -6.93889e-18 -0.00012726)
(-3.45774e-15 6.7534e-18 -3.00927e-36 -1395.48 0.00945996 -6.9815e-34 21.364 0.0506594 2.71051e-20)
(0 0 2.63805e-20 -1395.37 2.77556e-17 6.32601e-05 21.364 -6.93889e-18 -0.000141074)
(0 -3.99396e-17 -1.04009e-19 -1163.51 -0.0135523 -0.000356638 11.2384 -0.0502421 1.36114e-05)
(0 1.5637e-14 1.04009e-19 -1163.71 -1.7486e-15 -4.27268e-06 11.2384 6.93889e-18 -0.00012332)
(0 0 4.87501e-34 -926.775 0.00889028 -3.45019e-18 2.86847 0.0502251 5.34487e-36)
(0 0 0 -927.333 1.78333e-15 0.00308883 2.86843 0 -0.000138496)
(-4.13898e-16 4.04198e-19 -3.15779e-20 -696.545 -0.0104102 -0.0166307 -3.70867 -0.0025844 -3.50083e-05)
(4.13898e-16 -5.04871e-29 1.54074e-33 -697.406 0 1.16552e-18 -3.70871 -1.10614e-28 2.55288e-33)
(0 1.19521e-18 0 -480.103 0.00901625 -0.000227646 -6.29095 0.00245454 3.04404e-06)
(-1.23286e-15 0 0 -481.123 -5.51709e-17 -0.00407845 -6.30872 -5.66706e-34 -3.04403e-06)
(1.17935e-15 -1.3942e-16 0 -281.723 3.46945e-17 -0.000212034 -3.18145 0 -3.07236e-06)
(0 0 0 -282.785 -0.0292264 -5.06045e-20 -3.19948 -0.000246252 -4.23516e-22)
(-2.05805e-12 1.1612e-18 0 -40.4186 0.00780291 -0.000209008 -0.345507 0.00172998 2.38945e-06)
(4.04832e-12 -4.73608e-15 0 -42.4723 0 -0.00029343 -0.363062 0 -2.38945e-06)
(-1.86683e-15 -2.2745e-16 1.49031e-21 3.73367e-15 3.92368e-19 -0.000185166 3.55271e-15 2.1684e-19 -2.4249e-06)
(3.28877e-12 1.90759e-19 -3.36522e-22 0.289175 -0.0607211 -3.36522e-22 -0.00250787 -0.00141624 0)
(0 -1.88025e-19 0 187.122 0.00656591 -0.000179742 -2.1905 0.001183 1.64629e-06)
(-1.5403e-15 3.08149e-33 0 186.205 -2.09805e-17 -0.000270542 -2.17379 -9.67073e-34 -1.6463e-06)
(3.11362e-15 -9.32976e-17 1.44789e-21 299.964 7.34326e-19 -0.000156684 -4.41119 0 -1.67936e-06)
(-3.03645e-15 5.55991e-19 -2.3306e-22 299.136 -0.0393501 2.3306e-22 -4.39563 -0.000961257 0)
(9.61781e-17 5.48022e-19 0 392.115 0.00550245 -0.000149591 -6.31311 0.000806461 1.0032e-06)
(0 -1.83959e-15 0 391.409 -1.02968e-17 -0.000225077 -6.29914 1.0842e-19 -1.00321e-06)
(0 -2.29595e-16 0 465.034 -9.16439e-20 -0.000126466 -3.0576 0 -1.02977e-06)
(3.68754e-16 -1.80056e-19 -5.71645e-22 464.504 -0.0227747 -3.67395e-21 -3.05757 -0.000663046 0)
(3.63469e-16 -4.43688e-19 6.93262e-22 520.661 0.00467909 -0.000115167 1.53916 0.000570142 4.7718e-07)
(0 0 0 520.369 -7.87611e-20 -0.000164256 1.53919 0 -2.18071e-08)
(0 -6.02193e-17 6.83326e-22 561.268 6.07153e-18 -9.06347e-05 6.65021 -5.42101e-20 -4.93903e-07)
(0 -6.1226e-19 3.85186e-34 561.212 -0.0108617 0 6.65025 -0.00048937 4.1689e-34)
(7.73093e-17 6.03485e-19 1.0103e-21 589.136 0.00397735 -8.09789e-05 11.6005 0.000442194 1.06655e-07)
(3.07155e-16 -7.90553e-19 -6.42231e-22 589.259 7.06089e-18 1.14146e-05 11.6042 0 6.57138e-07)
(0 -4.92347e-17 0 606.276 -5.20417e-18 -6.3924e-05 12.009 0 -1.11751e-07)
(0 8.49765e-20 6.63879e-22 606.515 -0.00288468 4.01629e-05 12.0145 -0.000403462 9.08497e-07)
(-1.62462e-15 -1.08886e-18 -1.96309e-21 614.26 0.0034812 -1.32437e-06 12.258 0.000392294 -5.84742e-07)
(6.49498e-15 -1.92593e-34 0 614.56 5.40661e-20 3.24555e-22 12.2643 0 4.23516e-22)
(-2.46186e-15 -8.61956e-17 6.44985e-22 614.13 -5.25657e-18 7.60503e-05 12.3555 0 1.20195e-08)
(-1.52544e-14 -4.1279e-19 -1.28419e-21 614.448 -0.00129252 -3.55184e-06 12.362 -0.000380419 4.36654e-07)
(3.32709e-15 -3.25499e-19 -6.35741e-22 606.397 0.0030352 9.12611e-05 12.3003 0.0003589 -1.55028e-08)
(1.3305e-14 0 1.38342e-21 606.706 0 1.22889e-05 12.3064 1.0842e-19 1.99325e-07)
(-4.21088e-15 -7.14845e-17 0 591.142 4.86177e-18 0.000117187 12.0836 0 9.63756e-09)
(1.68405e-14 -1.28334e-18 2.59576e-22 591.425 -0.00247235 1.23882e-05 12.0892 -0.000331779 3.12525e-07)
(-5.10374e-15 0 0 568.191 0.00251349 0.000137641 11.6931 0.000315182 -1.4945e-08)
(0 -1.2101e-16 0 568.442 4.29346e-18 6.25151e-05 11.6981 0 4.68742e-07)
(-5.99519e-15 -3.07073e-17 0 537.321 3.50937e-18 0.00016311 11.1173 0 7.12709e-09)
(0 3.89629e-19 0 537.54 -0.00218835 0.000120003 11.1217 -0.000290629 -7.06477e-09)
(-6.87317e-15 -6.14471e-19 0 498.487 0.00205307 0.000176692 10.3506 0.000275175 -1.48048e-08)
(2.74906e-14 0 0 498.676 -2.5462e-19 0.000176962 10.3544 0 1.47488e-08)
(7.72377e-15 -8.03494e-17 0 452.023 -6.54038e-18 0.000187241 9.39762 0 4.51709e-09)
(0 6.81372e-19 0 452.187 -0.00194162 0.000187222 9.40098 -0.000256425 -4.44655e-09)
(0 -4.85049e-19 0 398.795 0.00171334 0.000181735 8.27655 0.000238481 -1.48848e-08)
(0 -8.66668e-34 0 398.938 2.8516e-18 0.000181983 8.27952 9.32041e-35 1.48154e-08)
(3.603e-16 -2.19943e-17 0 340.222 2.47937e-19 0.000169895 7.01892 -2.71051e-20 2.03597e-09)
(-9.64079e-15 6.61981e-19 0 340.347 -0.00167838 0.000169887 7.02156 -0.000227197 -1.95273e-09)
(9.50261e-15 -1.37748e-18 0 278.225 0.00146756 0.000142072 5.66901 0.000205833 -1.50486e-08)
(7.01344e-14 2.46519e-32 0 278.335 2.38524e-18 0.000142293 5.67137 2.71051e-20 1.49613e-08)
(-9.36642e-15 -1.68815e-17 -2.23313e-21 215.134 0 0.00011112 4.28203 -2.71051e-20 -2.48125e-10)
(4.21624e-14 1.4292e-19 0 215.23 -0.00135964 0.000111114 4.28411 -0.000201359 3.47504e-10)
(-2.94918e-14 8.45231e-19 -2.20112e-21 153.474 0.00131497 7.15203e-05 2.91756 0.000178914 -1.52083e-08)
(-3.48766e-14 -1.12595e-16 0 153.557 -4.87565e-20 7.17109e-05 2.91938 2.71051e-20 1.50982e-08)
(-1.14079e-14 -1.2813e-17 4.06225e-19 95.7197 -1.95156e-18 7.89869e-07 1.635 2.71051e-20 -2.27548e-09)
(-4.56309e-14 -4.85984e-19 -1.64278e-18 95.7907 -0.00107865 -1.33032e-24 1.63656 -0.00017717 0)
(6.60534e-14 5.13235e-19 0 40.4377 0.00120125 -4.99774e-07 0.488801 0.000157298 -1.53099e-08)
(0 -3.26555e-19 0 40.5449 1.692e-18 -3.39591e-07 0.490097 -2.71051e-20 1.51712e-08)
(-3.9443e-31 -2.0702e-17 5.81774e-19 -9.60843e-13 1.73472e-18 -1.34267e-06 -3.95662e-31 0 -4.02196e-09)
(1.06654e-14 -3.37253e-19 0 0.0270346 -0.000878034 -4.60496e-23 0.000331539 -0.000153997 -4.01713e-40)
(1.16832e-14 1.32968e-18 -4.15524e-21 -34.1248 0.00106816 -4.85651e-05 0.476411 0.000139433 -1.53484e-08)
(-1.74283e-14 0 0 -34.0892 3.77284e-20 -4.84308e-05 0.475386 2.71051e-20 1.51731e-08)
(0 -1.73426e-17 0 -58.7741 -1.40946e-18 -5.82564e-05 1.22731 -2.71051e-20 -5.52013e-09)
(9.19515e-14 1.83486e-18 0 -58.7499 -0.000741118 -5.82677e-05 1.22656 -0.000132555 5.70787e-09)
(0 -3.39106e-19 0 -73.4319 0.000882425 -6.35291e-05 1.74398 0.000124025 -1.53768e-08)
(1.07342e-13 -9.62965e-35 0 -73.4187 1.33445e-18 -6.34125e-05 1.74351 9.24993e-35 1.51546e-08)
(-2.22455e-14 2.88889e-34 0 -78.4531 1.22339e-18 -6.01067e-05 2.01957 3.29617e-35 -6.85194e-09)
(0 7.95824e-20 0 -78.4503 -0.000655474 -6.01108e-05 2.01937 -0.00011446 7.08966e-09)
(-1.09746e-14 -1.41195e-19 0 -74.563 0.000712531 -5.52966e-05 2.05792 0.000109982 -1.54861e-08)
(8.77971e-14 -2.88889e-34 0 -74.5697 -1.19262e-18 -5.51872e-05 2.05797 -7.29659e-35 1.52031e-08)
(1.08705e-14 -1.90367e-17 0 -62.7622 -1.05759e-18 -4.61285e-05 1.87214 -1.35525e-20 -8.14039e-09)
(0 5.41222e-19 0 -62.7774 -0.000592837 -4.6117e-05 1.87244 -9.96408e-05 8.4436e-09)
(-1.08217e-14 0 0 -44.2247 0.0005877 -3.81818e-05 1.48236 9.68509e-05 -1.57988e-08)
(0 -9.62965e-35 0 -44.2469 -1.0842e-19 -3.80685e-05 1.48287 1.35525e-20 1.54375e-08)
(4.91595e-15 0 0 -14.1858 0 -2.8143e-05 0.913622 -7.87462e-35 -9.52549e-09)
(2.75954e-14 -5.55866e-19 0 -14.2456 -0.000523168 -2.81074e-05 0.914314 -8.71897e-05 9.91376e-09)
(-1.66511e-13 5.47899e-19 0 0.0216739 0.000506426 -1.96108e-05 0.639965 8.49447e-05 -1.64504e-08)
(4.3447e-14 0 -1.85101e-21 7.84134e-13 8.67362e-19 -1.9483e-05 0.639062 1.35525e-20 1.59877e-08)
(-2.15579e-14 0 0 38.6258 0 -3.24308e-06 1.55566 -1.35525e-20 -1.11538e-08)
(0 5.83834e-20 0 38.5936 -0.000433659 -4.02737e-06 1.55474 -7.61352e-05 1.16525e-08)
(-2.58397e-14 5.46693e-19 0 70.6155 0.00043037 3.2538e-06 2.51138 7.49576e-05 -1.75812e-08)
(0 -1.48835e-17 -1.79833e-21 70.584 -6.50521e-19 3.40496e-06 2.51049 0 1.69882e-08)
(1.48693e-14 -6.81773e-18 0 102.306 5.42101e-20 1.82093e-05 3.46324 -1.35525e-20 -1.31598e-08)
(-4.31858e-14 6.09759e-19 0 102.277 -0.000357509 1.83149e-05 3.46244 -6.65101e-05 1.38012e-08)
(1.09117e-14 -6.77895e-19 0 132.145 0.000386198 3.51232e-05 4.3637 6.6675e-05 -1.93118e-08)
(4.3647e-14 -1.54074e-33 0 132.121 5.42101e-20 3.53033e-05 4.36305 1.35525e-20 1.85508e-08)
(1.11034e-14 -9.65767e-18 0 158.581 -4.87891e-19 5.46678e-05 5.16345 0 -1.56381e-08)
(-4.4414e-14 5.37298e-19 0 158.562 -0.000342689 5.48134e-05 5.16298 -5.75403e-05 1.64636e-08)
(-1.13714e-14 5.43177e-19 0 180.136 0.000310084 7.28875e-05 5.81411 5.83917e-05 -2.17142e-08)
(4.54858e-14 1.20371e-34 -1.69743e-21 180.124 -4.87891e-19 7.30977e-05 5.81384 6.77626e-21 2.07374e-08)
(0 -1.91008e-18 0 195.497 0 9.31127e-05 6.27087 0 -1.86223e-08)
(0 -3.3462e-19 0 195.491 -0.000282745 9.32945e-05 6.27082 -5.02942e-05 1.96849e-08)
(-2.76676e-14 3.95789e-19 -3.29824e-21 203.604 0.000249316 0.000112066 6.49642 5.1552e-05 -2.47832e-08)
(4.8461e-14 0 0 203.605 -8.37553e-35 0.0001123 6.49657 -2.09388e-35 2.35283e-08)
(1.25705e-14 -5.85741e-18 0 203.763 -3.25261e-19 0.000132322 6.46476 0 -2.20375e-08)
(0 6.76201e-19 0 203.77 -0.000236982 0.00013253 6.4651 -4.44715e-05 2.34061e-08)
(0 5.44743e-19 0 195.733 0.000234353 0.000153346 6.16474 4.58438e-05 -2.84061e-08)
(-5.22425e-14 -6.8723e-18 -6.40874e-21 195.746 1.59264e-20 0.000153593 6.16524 6.77626e-21 2.67928e-08)
(-2.6495e-14 -1.37481e-18 -3.15845e-21 179.775 2.98156e-19 0.000178688 5.60175 0 -2.56963e-08)
(0 2.71626e-19 0 179.792 -0.000179939 0.000178906 5.60237 -3.87347e-05 2.74591e-08)
(0 6.78673e-19 0 156.671 0.000241099 0.000209375 4.79946 4.17385e-05 -3.23729e-08)
(-1.30576e-14 -6.9655e-18 0 156.691 1.98592e-20 0.000209618 4.80018 0 3.02969e-08)
(1.45386e-14 -6.63004e-19 0 127.688 0 0.000249169 3.79841 -3.38813e-21 -2.93054e-08)
(0 -1.08627e-18 0 127.71 -0.000125898 0.000249378 3.79918 -3.24131e-05 3.15754e-08)
(-1.04109e-14 5.38375e-19 0 94.4868 0.000231817 0.000298257 2.65354 3.92587e-05 -3.64051e-08)
(0 -6.48224e-18 0 94.5098 -2.98156e-19 0.000298477 2.65434 0 3.37329e-08)
(-3.06302e-14 0 0 58.993 3.38813e-19 0.000358605 1.42972 3.22045e-36 -3.25299e-08)
(6.126e-14 0 0 59.0158 -0.000102634 0.000358789 1.4305 -2.60624e-05 3.54484e-08)
(7.99382e-14 0 0 11.1099 0.000166554 0.000426456 0.195464 3.74637e-05 -4.02396e-08)
(0 0 0 11.152 -1.5007e-34 0.000426639 0.196204 0 3.68001e-08)
(2.78084e-13 -2.21088e-18 0 -0.0205766 -1.21973e-19 0.000499992 0.00036728 0 -3.50782e-08)
(-3.15544e-30 -3.38877e-19 0 -8.75744e-13 -0.000130896 0.000500141 1.42109e-14 -2.16957e-05 3.88212e-08)
(0 5.42425e-19 0 -41.6931 5.17574e-05 0.00057125 0.982284 3.45952e-05 -4.37156e-08)
(0 -6.20772e-19 0 -41.6757 2.17572e-19 0.000571393 0.981611 0 3.92921e-08)
(-2.36051e-14 -2.46248e-18 -1.12558e-20 -67.879 3.15151e-20 0.000632804 2.04547 -3.38813e-21 -3.67949e-08)
(0 -3.37674e-19 -2.25116e-20 -67.8644 -0.000225332 0.000632918 2.04488 -2.12687e-05 4.15824e-08)
(0 5.40856e-19 0 -88.6574 -6.34977e-05 0.000675372 2.94943 2.81992e-05 -4.68458e-08)
(1.18419e-13 0 -1.10945e-20 -88.6458 -1.35525e-19 0.000675479 2.94895 -3.38813e-21 4.11655e-08)
(-2.88972e-14 0 0 -103.742 0 0.000689947 3.66585 -3.38813e-21 -3.76786e-08)
(5.77945e-14 0 0 -103.733 -0.000323607 0.000690033 3.66546 -2.50511e-05 4.37905e-08)
(1.40861e-14 -4.06897e-19 0 -113.343 -0.000165618 0.000666824 4.18513 1.79522e-05 -4.98057e-08)
(0 -9.62965e-35 0 -113.337 0 0.000666908 4.18486 0 4.25294e-08)
(0 -4.15984e-18 0 -118.08 2.24449e-19 0.000602066 4.51537 0 -3.78425e-08)
(-5.4908e-14 -6.37455e-20 0 -118.077 -0.000340195 0.000602134 4.5152 -3.27973e-05 4.56412e-08)
(-3.53409e-14 -1.08418e-18 0 -118.865 -0.000143943 0.0004948 4.67927 6.8615e-06 -5.28644e-08)
(5.35183e-14 7.70372e-34 0 -118.864 1.68121e-33 0.000494872 4.67918 -3.22475e-06 4.35748e-08)
(0 -2.52239e-18 0 -116.775 -2.43945e-19 0.000349398 4.71012 0 -3.73889e-08)
(0 -3.35461e-19 0 -116.775 -0.000252082 0.000349459 4.71009 -3.98648e-05 4.73448e-08)
(2.13363e-14 -4.06958e-19 1.39966e-19 -112.926 -1.78856e-05 0.0001668 4.64763 -8.8079e-07 -5.6291e-08)
(0 -3.37236e-21 0 -112.926 -1.65914e-19 0.000166862 4.64765 -1.21502e-05 4.44767e-08)
(-1.2436e-14 1.39931e-34 0 -108.342 5.04936e-19 -9.08033e-06 4.53282 -6.77626e-21 -3.63288e-08)
(0 0 -9.539e-38 -108.343 -6.00743e-05 -3.43679e-22 4.53287 -4.19759e-05 0)
(-3.56798e-15 -1.49254e-18 1.97688e-20 -103.869 0.000174404 -0.000207362 4.40296 -7.39258e-07 -6.02956e-08)
(1.07553e-13 -1.86358e-21 0 -103.87 -1.0842e-19 -0.0002073 4.403 -1.34285e-05 4.53276e-08)
(2.0432e-14 -4.38059e-21 0 -100.121 2.07258e-19 -0.00038059 4.28855 0 -3.45129e-08)
(-2.0432e-14 -3.40996e-19 0 -100.122 0.000131387 -0.000380535 4.28858 -3.60857e-05 5.07506e-08)
(-2.01391e-14 5.42575e-19 -1.92062e-20 -97.4659 0.000308375 -0.000522998 4.21141 7.77481e-06 -6.50126e-08)
(0 -1.51828e-19 0 -97.4657 -5.42101e-20 -0.000522944 4.21142 -6.62781e-06 4.61084e-08)
(-3.38965e-14 7.82409e-35 1.89309e-20 -96.03 1.41158e-19 -0.00062438 4.1838 2.36152e-36 -3.16613e-08)
(9.03907e-14 1.62569e-18 0 -96.0291 0.00021844 -0.000624335 4.18377 -2.42565e-05 5.23586e-08)
(0 -1.6263e-18 0 -95.7303 0.000319075 -0.000680627 4.20839 2.06456e-05 -7.05419e-08)
(8.80274e-14 3.08149e-33 0 -95.7287 5.65222e-20 -0.000680587 4.20833 4.39265e-33 4.67198e-08)
(-1.06966e-14 -3.76158e-37 0 -96.3239 5.44239e-20 -0.000692511 4.27959 3.39686e-37 -2.74135e-08)
(-1.92856e-14 -6.7821e-19 -1.83921e-20 -96.3217 0.000175437 -0.000692479 4.2795 -1.16221e-05 5.37173e-08)
(1.03776e-14 -1.62704e-18 0 -97.463 0.000225165 -0.000665691 4.38545 3.23435e-05 -7.70139e-08)
(8.30209e-14 1.54074e-33 0 -97.4604 0 -0.000665668 4.38534 0 4.70394e-08)
(-9.36835e-15 -3.85186e-34 0 -98.7515 1.26962e-20 -0.000608369 4.50966 -2.11758e-22 -2.13893e-08)
(4.95582e-14 1.08413e-18 0 -98.7488 6.23873e-05 -0.000608354 4.50954 -2.91831e-06 5.46986e-08)
(9.70863e-15 -5.41588e-19 0 -99.8041 8.44344e-05 -0.000532103 4.63407 3.9637e-05 -8.46728e-08)
(0 0 0 -99.8015 -9.48677e-20 -0.000532099 4.63395 -7.51604e-35 4.70018e-08)
(1.87295e-14 1.20371e-35 0 -100.288 -2.26697e-20 -0.000446513 4.74135 -5.5385e-35 -1.32159e-08)
(2.83573e-14 -4.06336e-19 -8.68008e-21 -100.285 -4.72251e-05 -0.000446515 4.74123 -5.858e-07 5.52421e-08)
(0 4.06395e-19 4.27784e-21 -99.9478 -1.09396e-05 -0.000360585 4.81624 4.25406e-05 -9.39182e-08)
(-8.97128e-15 -1.55627e-34 -4.27784e-21 -99.946 -9.23981e-21 -0.000360594 4.81614 3.38813e-21 4.66331e-08)
(0 -8.85105e-19 0 -98.6319 -3.04464e-20 -0.000280743 4.84715 0 -2.51139e-09)
(3.47182e-14 4.06895e-19 0 -98.6307 -0.000109474 -0.000214844 4.84707 -2.81274e-06 5.53603e-08)
(1.66947e-14 -5.4237e-19 0 -96.2949 -4.90161e-05 -0.00021143 4.82731 4.32414e-05 -1.05326e-07)
(0 0 0 -96.2944 -8.13152e-20 -5.09456e-05 4.82727 7.5269e-35 1.67413e-06)
(8.02745e-15 -1.27261e-18 -4.09652e-21 -92.9884 -8.89175e-20 -0.000154177 4.75488 -1.69407e-21 1.11424e-08)
(3.21098e-14 1.08417e-18 6.08447e-21 -92.9886 -0.000116116 9.73091e-06 4.75487 -7.01137e-06 4.72379e-07)
(-8.4679e-15 -1.08415e-18 -4.03781e-21 -88.8481 -4.31528e-05 -0.000109288 4.63246 4.45622e-05 -1.19623e-07)
(3.93599e-14 0 6.97854e-21 -88.849 -3.60558e-20 9.5806e-06 4.63249 4.01933e-34 5.09222e-07)
(-7.436e-15 -2.93814e-19 0 -84.0789 0 -5.8506e-05 4.467 0 2.82509e-08)
(-2.9744e-14 2.71133e-19 -1.68732e-21 -84.0803 -9.56311e-05 9.4212e-06 4.46706 -1.10389e-05 4.69531e-07)
(-1.53942e-14 -4.90362e-22 -1.96145e-21 -78.9294 -1.95122e-05 -7.28224e-06 4.26895 4.81215e-05 3.0672e-07)
(0 0 1.96145e-21 -78.9312 -2.71051e-20 9.21913e-06 4.26904 3.75644e-35 5.0268e-07)
(-6.91642e-15 -1.58975e-19 0 -73.6696 -1.6263e-19 6.16777e-06 4.05099 0 1.20471e-06)
(-2.76656e-14 2.70667e-19 -6.94954e-22 -73.6717 -7.23318e-05 9.0252e-06 4.0511 -1.39309e-05 4.6239e-07)
(7.99277e-15 -5.42106e-19 -1.90563e-21 -68.575 1.34348e-06 6.86867e-06 3.82731 5.4403e-05 1.3566e-06)
(0 -9.62965e-35 3.81125e-21 -68.577 -5.41788e-21 8.76059e-06 3.82743 4.23516e-22 4.88482e-07)
(0 -1.24113e-19 -1.87831e-21 -63.9117 -1.69407e-21 5.9721e-06 3.61278 -6.77626e-21 2.03392e-06)
(5.95658e-14 5.41893e-19 1.31163e-20 -63.9134 -5.33872e-05 8.53979e-06 3.61288 -1.57436e-05 4.51448e-07)