/*--------------------------------*- C++ -*----------------------------------*\
| =========                 |                                                 |
| \\      /  F ield         | OpenFOAM: The Open Source CFD Toolbox           |
|  \\    /   O peration     | Version:  2012                                  |
|   \\  /    A nd           | Website:  www.openfoam.com                      |
|    \\/     M anipulation  |                                                 |
\*---------------------------------------------------------------------------*/
FoamFile
{
    version     2.0;
    format      ascii;
    class       volScalarField;
    location    "12200";
    object      k;
}
// * * * * * * * * * * * * * * * * * * * * * * * * * * * * * * * * * * * * * //

dimensions      [0 2 -2 0 0 0 0];


internalField   nonuniform List<scalar> 
2560
(
0.0149787
0.0149669
0.42757
0.427261
2.85222
2.85039
7.81382
7.81
13.0977
13.0926
17.7685
17.7626
21.8775
21.8709
25.5763
25.5691
28.9766
28.9688
32.1537
32.1455
35.1594
35.1507
38.0301
38.021
40.7928
40.7833
43.4677
43.4578
46.0707
46.0604
48.6145
48.6037
51.1092
51.098
53.5635
53.552
55.9846
55.9727
58.3787
58.3664
60.7511
60.7384
63.1063
63.0933
65.4484
65.435
67.7811
67.7673
70.1074
70.0933
72.4306
72.416
74.7533
74.7383
77.0781
77.0627
79.4075
79.3917
81.7437
81.7275
84.0891
84.0724
86.4457
86.4286
88.8154
88.7979
91.2001
91.1821
93.601
93.5826
96.0195
96.0006
98.4564
98.437
100.913
100.893
103.389
103.368
105.885
105.864
108.404
108.382
110.944
110.922
113.508
113.485
116.095
116.071
118.704
118.68
121.335
121.311
123.984
123.959
126.648
126.622
129.32
129.294
131.994
131.967
134.662
134.634
137.317
137.288
139.951
139.922
142.56
142.53
145.144
145.113
147.712
147.68
150.288
150.255
152.909
152.875
155.619
155.583
158.446
158.408
161.387
161.348
164.353
164.313
167.191
167.15
169.693
169.652
171.641
171.599
172.854
172.813
173.234
173.194
172.776
172.737
171.56
171.523
169.722
169.688
167.428
167.397
164.84
164.81
162.099
162.072
159.32
159.294
156.583
156.558
153.94
153.916
151.418
151.395
149.02
148.998
146.733
146.712
144.535
144.515
142.399
142.381
140.298
140.281
138.203
138.188
136.092
136.078
133.942
133.93
131.737
131.728
129.466
129.458
127.119
127.112
124.692
124.686
122.186
122.181
119.606
119.601
116.962
116.958
114.268
114.264
111.543
111.54
108.807
108.804
106.083
106.08
103.39
103.388
100.746
100.744
98.1643
98.1624
95.6536
95.6519
93.2183
93.2167
90.859
90.8575
88.574
88.5726
86.3609
86.3596
84.2174
84.2162
82.142
82.1409
80.1345
80.1335
78.1956
78.1947
76.3266
76.3258
74.5287
74.528
72.8018
72.8011
71.144
71.1434
69.5514
69.5509
68.0178
68.0173
66.5345
66.534
65.0916
65.0913
63.6791
63.6788
62.2878
62.2875
60.911
60.9108
59.5458
59.5457
58.1934
58.1933
56.8589
56.8589
55.5506
55.5506
54.2781
54.2782
53.0509
53.0509
51.8761
51.8762
50.7586
50.7586
49.6983
49.6983
48.6921
48.6921
47.7348
47.7348
46.8203
46.8203
45.9425
45.9425
45.0964
45.0964
44.2788
44.2788
43.4878
43.4878
42.723
42.7231
41.9849
41.985
41.2743
41.2743
40.592
40.592
39.9384
39.9384
39.3137
39.3137
38.7174
38.7174
38.1485
38.1485
37.6057
37.6056
37.0872
37.0871
36.5911
36.591
36.1156
36.1154
35.659
35.6589
35.2204
35.2202
34.799
34.7989
34.395
34.3948
34.0091
34.0088
33.6424
33.6421
33.2965
33.2962
32.9733
32.9729
32.6746
32.6742
32.4022
32.4017
32.1575
32.157
31.9419
31.9413
31.756
31.7553
31.6001
31.5993
31.474
31.4732
31.3769
31.376
31.3074
31.3063
31.263
31.2619
31.2407
31.2394
31.2361
31.2347
31.2438
31.2423
31.2571
31.2555
31.2684
31.2666
31.2691
31.2673
31.2507
31.2489
31.2048
31.203
31.1244
31.1227
31.0046
31.0032
30.844
30.843
30.6444
30.644
30.4116
30.4116
30.1543
30.1546
29.8845
29.8848
29.6153
29.6156
29.3599
29.3602
29.1298
29.13
28.9331
28.9331
28.7738
28.7737
28.6514
28.6512
28.5596
28.5593
28.4889
28.4885
28.4275
28.4271
28.3624
28.3621
28.2813
28.2812
28.1739
28.1743
28.0329
28.0337
27.8537
27.8548
27.6345
27.6358
27.3768
27.3782
27.0845
27.0858
26.7633
26.7645
26.4201
26.4212
26.0623
26.0633
25.6975
25.6983
25.3326
25.3333
24.9742
24.9748
24.6278
24.6283
24.2984
24.2989
23.99
23.9903
23.7057
23.706
23.448
23.4483
23.2188
23.219
23.0192
23.0193
22.8494
22.8495
22.7091
22.7091
22.5968
22.5967
22.5096
22.5095
22.4436
22.4434
22.3927
22.3925
22.3497
22.3494
22.3055
22.3051
22.2499
22.2494
22.1721
22.1716
22.0618
22.0613
21.9103
21.9097
21.7111
21.7105
21.4616
21.4609
21.1631
21.1625
20.8221
20.8217
20.4486
20.4485
20.0545
20.0546
19.6521
19.6522
19.2538
19.2539
18.8692
18.8693
18.5047
18.5047
18.1618
18.1618
17.8386
17.8385
17.5303
17.5302
17.2308
17.2307
16.9348
16.9347
16.6381
16.6381
16.34
16.3401
16.0413
16.0415
15.7447
15.7449
15.4537
15.4538
15.1722
15.1724
14.9038
14.9039
14.6507
14.6508
14.4142
14.4143
14.1949
14.195
13.9926
13.9926
13.8069
13.807
13.6376
13.6376
13.4843
13.4843
13.347
13.347
13.2255
13.2255
13.1196
13.1196
13.0288
13.0288
12.9524
12.9524
12.8897
12.8897
12.8396
12.8396
12.8012
12.8012
12.7737
12.7737
12.7563
12.7563
12.7486
12.7486
12.7503
12.7503
12.7613
12.7613
12.782
12.782
12.8126
12.8126
12.8537
12.8537
12.9055
12.9055
12.9684
12.9684
13.0425
13.0425
13.1279
13.1279
13.2243
13.2243
13.3317
13.3317
13.4497
13.4497
13.578
13.578
13.7167
13.7167
13.8653
13.8653
14.024
14.024
14.1926
14.1926
14.3709
14.3709
14.5591
14.5591
14.7569
14.7569
14.9643
14.9643
15.1812
15.1812
15.4076
15.4076
15.6433
15.6433
15.8884
15.8884
16.143
16.143
16.4075
16.4075
16.6821
16.6821
16.9673
16.9673
17.2636
17.2636
17.5715
17.5715
17.8913
17.8913
18.2233
18.2233
18.5677
18.5677
18.9246
18.9246
19.2939
19.2939
19.6759
19.6759
20.0706
20.0706
20.4786
20.4786
20.9003
20.9003
21.3366
21.3366
21.7881
21.7881
22.2561
22.2561
22.7414
22.7414
23.2452
23.2452
23.7687
23.7687
24.3128
24.3128
24.8786
24.8786
25.4672
25.4672
26.0795
26.0795
26.7158
26.7158
27.3757
27.3757
28.0565
28.0565
28.7501
28.7501
29.4365
29.4365
30.0692
30.0692
30.5454
30.5454
30.5075
30.5075
0.0149669
0.0149787
0.42726
0.42757
2.85038
2.85222
7.80999
7.81382
13.0926
13.0977
17.7626
17.7685
21.8709
21.8775
25.5691
25.5763
28.9688
28.9766
32.1455
32.1538
35.1507
35.1594
38.021
38.0302
40.7833
40.7928
43.4578
43.4677
46.0604
46.0708
48.6037
48.6145
51.098
51.1092
53.5519
53.5635
55.9727
55.9846
58.3664
58.3787
60.7384
60.7511
63.0933
63.1063
65.435
65.4484
67.7673
67.7811
70.0933
70.1075
72.416
72.4306
74.7383
74.7533
77.0627
77.0781
79.3917
79.4075
81.7275
81.7437
84.0724
84.0891
86.4286
86.4457
88.7979
88.8154
91.1821
91.2001
93.5826
93.6011
96.0006
96.0195
98.437
98.4564
100.893
100.913
103.368
103.389
105.864
105.885
108.382
108.404
110.922
110.944
113.485
113.508
116.071
116.095
118.68
118.704
121.311
121.335
123.959
123.985
126.622
126.648
129.294
129.32
131.967
131.994
134.634
134.662
137.288
137.317
139.922
139.951
142.53
142.56
145.113
145.144
147.68
147.712
150.255
150.288
152.875
152.909
155.583
155.619
158.408
158.446
161.348
161.387
164.313
164.353
167.15
167.191
169.652
169.693
171.599
171.641
172.813
172.854
173.194
173.234
172.737
172.776
171.523
171.56
169.688
169.723
167.397
167.428
164.81
164.84
162.072
162.099
159.294
159.32
156.558
156.583
153.916
153.94
151.395
151.418
148.998
149.02
146.712
146.733
144.515
144.535
142.381
142.399
140.281
140.298
138.188
138.203
136.078
136.092
133.93
133.942
131.728
131.737
129.457
129.466
127.112
127.119
124.686
124.692
122.181
122.186
119.601
119.606
116.958
116.962
114.264
114.268
111.54
111.543
108.804
108.807
106.08
106.083
103.388
103.39
100.744
100.746
98.1624
98.1642
95.6518
95.6536
93.2167
93.2183
90.8575
90.8589
88.5726
88.574
86.3596
86.3609
84.2162
84.2174
82.1409
82.142
80.1335
80.1345
78.1947
78.1956
76.3258
76.3266
74.5279
74.5287
72.8011
72.8017
71.1433
71.144
69.5508
69.5514
68.0172
68.0177
66.534
66.5344
65.0912
65.0916
63.6788
63.6791
62.2875
62.2877
60.9108
60.9109
59.5457
59.5458
58.1933
58.1934
56.8589
56.8589
55.5506
55.5506
54.2781
54.2781
53.0509
53.0508
51.8761
51.8761
50.7586
50.7585
49.6982
49.6982
48.692
48.692
47.7347
47.7347
46.8202
46.8202
45.9424
45.9424
45.0963
45.0963
44.2787
44.2787
43.4877
43.4877
42.723
42.7229
41.9849
41.9848
41.2742
41.2742
40.5918
40.5918
39.9383
39.9383
39.3135
39.3136
38.7172
38.7173
38.1484
38.1484
37.6055
37.6056
37.087
37.0871
36.5908
36.591
36.1153
36.1154
35.6588
35.6589
35.2201
35.2203
34.7987
34.7989
34.3947
34.3949
34.0087
34.009
33.6419
33.6422
33.296
33.2964
32.9728
32.9731
32.674
32.6744
32.4015
32.402
32.1568
32.1574
31.9411
31.9417
31.7551
31.7558
31.5991
31.5999
31.473
31.4738
31.3758
31.3768
31.3061
31.3072
31.2617
31.2629
31.2392
31.2405
31.2345
31.2359
31.2421
31.2436
31.2553
31.2569
31.2664
31.2682
31.2671
31.269
31.2487
31.2506
31.2028
31.2047
31.1225
31.1243
31.0031
31.0045
30.8429
30.8439
30.6439
30.6443
30.4115
30.4115
30.1545
30.1542
29.8847
29.8844
29.6155
29.6151
29.36
29.3598
29.1298
29.1296
28.9329
28.9329
28.7734
28.7735
28.6509
28.6511
28.559
28.5593
28.4882
28.4886
28.4267
28.4271
28.3617
28.362
28.2809
28.281
28.1739
28.1736
28.0334
28.0326
27.8545
27.8534
27.6356
27.6342
27.3779
27.3766
27.0856
27.0843
26.7643
26.7631
26.421
26.4199
26.0632
26.0622
25.6982
25.6973
25.3332
25.3325
24.9747
24.974
24.6282
24.6277
24.2987
24.2983
23.9902
23.9898
23.7058
23.7055
23.4481
23.4478
23.2188
23.2186
23.019
23.0189
22.8492
22.8491
22.7088
22.7088
22.5963
22.5964
22.5091
22.5092
22.4429
22.4431
22.392
22.3923
22.3489
22.3493
22.3046
22.305
22.2489
22.2494
22.1711
22.1717
22.0608
22.0615
21.9093
21.9101
21.7102
21.711
21.4607
21.4615
21.1623
21.1631
20.8217
20.8222
20.4486
20.4487
20.0547
20.0546
19.6523
19.6522
19.254
19.2539
18.8693
18.8693
18.5047
18.5047
18.1618
18.1618
17.8384
17.8385
17.53
17.5302
17.2306
17.2307
16.9345
16.9347
16.638
16.6381
16.34
16.3399
16.0415
16.0413
15.7449
15.7447
15.4539
15.4537
15.1724
15.1722
14.9039
14.9038
14.6508
14.6507
14.4143
14.4142
14.195
14.1949
13.9927
13.9926
13.807
13.8069
13.6376
13.6376
13.4843
13.4843
13.347
13.347
13.2255
13.2255
13.1196
13.1195
13.0287
13.0287
12.9524
12.9524
12.8896
12.8896
12.8395
12.8395
12.8012
12.8011
12.7736
12.7736
12.7563
12.7563
12.7486
12.7486
12.7502
12.7502
12.7613
12.7613
12.782
12.782
12.8127
12.8127
12.8537
12.8537
12.9055
12.9055
12.9684
12.9684
13.0425
13.0425
13.1279
13.1279
13.2243
13.2243
13.3317
13.3317
13.4496
13.4497
13.578
13.578
13.7166
13.7166
13.8653
13.8653
14.024
14.024
14.1925
14.1926
14.3709
14.3709
14.5591
14.5591
14.7569
14.7569
14.9643
14.9643
15.1812
15.1812
15.4075
15.4076
15.6433
15.6433
15.8884
15.8884
16.143
16.143
16.4075
16.4075
16.6821
16.6821
16.9673
16.9673
17.2636
17.2636
17.5714
17.5715
17.8913
17.8913
18.2233
18.2233
18.5677
18.5677
18.9245
18.9245
19.2939
19.2939
19.6758
19.6758
20.0706
20.0706
20.4786
20.4786
20.9003
20.9003
21.3365
21.3365
21.7881
21.7881
22.256
22.256
22.7414
22.7414
23.2452
23.2452
23.7686
23.7686
24.3126
24.3127
24.8784
24.8785
25.467
25.467
26.0792
26.0792
26.7154
26.7154
27.3752
27.3752
28.0558
28.0558
28.7492
28.7492
29.4355
29.4355
30.068
30.068
30.5441
30.5441
30.5064
30.5064
30.5075
30.5075
30.5455
30.5455
30.0695
30.0695
29.4369
29.4369
28.7504
28.7504
28.0569
28.0569
27.3762
27.3762
26.7163
26.7163
26.08
26.08
25.4677
25.4677
24.8791
24.8791
24.3132
24.3132
23.7691
23.7691
23.2456
23.2456
22.7418
22.7418
22.2565
22.2565
21.7886
21.7886
21.3371
21.3371
20.9008
20.9008
20.4791
20.4791
20.0711
20.0711
19.6764
19.6764
19.2945
19.2945
18.9251
18.9251
18.5683
18.5683
18.2239
18.2239
17.8919
17.8919
17.572
17.572
17.2642
17.2642
16.9679
16.9678
16.6827
16.6827
16.4081
16.4081
16.1436
16.1436
15.889
15.889
15.6438
15.6438
15.408
15.408
15.1817
15.1817
14.9647
14.9647
14.7573
14.7573
14.5594
14.5594
14.3713
14.3713
14.1929
14.1929
14.0243
14.0243
13.8656
13.8656
13.7169
13.7169
13.5782
13.5782
13.4498
13.4498
13.3318
13.3318
13.2244
13.2244
13.1279
13.1279
13.0425
13.0425
12.9683
12.9683
12.9054
12.9054
12.8535
12.8535
12.8125
12.8125
12.7818
12.7818
12.761
12.761
12.7499
12.7499
12.7482
12.7482
12.7559
12.7559
12.7731
12.7731
12.8006
12.8006
12.8389
12.8389
12.8889
12.8889
12.9516
12.9516
13.028
13.028
13.1188
13.1188
13.2246
13.2246
13.3461
13.3461
13.4833
13.4834
13.6365
13.6366
13.8058
13.8059
13.9915
13.9915
14.1937
14.1938
14.413
14.4131
14.6494
14.6495
14.9024
14.9025
15.1708
15.171
15.4522
15.4524
15.7433
15.7435
16.04
16.0402
16.3388
16.3389
16.6371
16.637
16.9338
16.9337
17.23
17.2298
17.5295
17.5294
17.8379
17.8379
18.1612
18.1612
18.5042
18.5042
18.8687
18.8688
19.2534
19.2535
19.6518
19.6519
20.0543
20.0544
20.4487
20.4486
20.8224
20.822
21.1635
21.1628
21.4621
21.4613
21.7116
21.7109
21.9107
21.91
22.0622
22.0616
22.1724
22.1719
22.2502
22.2498
22.3059
22.3055
22.3501
22.3498
22.3931
22.3928
22.4438
22.4436
22.5098
22.5097
22.5969
22.5968
22.7092
22.7092
22.8494
22.8495
23.0191
23.0192
23.2187
23.2189
23.4479
23.4481
23.7054
23.7057
23.9896
23.99
24.298
24.2985
24.6273
24.6279
24.9736
24.9743
25.332
25.3327
25.6968
25.6976
26.0616
26.0625
26.4193
26.4204
26.7624
26.7636
27.0835
27.0849
27.3758
27.3772
27.6334
27.6348
27.8525
27.8537
28.0317
28.0326
28.1727
28.173
28.2799
28.2798
28.3608
28.3605
28.4258
28.4254
28.4872
28.4868
28.5579
28.5576
28.6497
28.6495
28.7721
28.772
28.9313
28.9314
29.128
29.1282
29.3581
29.3584
29.6135
29.6138
29.8827
29.8831
30.1525
30.1528
30.4098
30.4098
30.6426
30.6422
30.8423
30.8413
31.003
31.0015
31.1228
31.121
31.2031
31.2012
31.249
31.247
31.2673
31.2654
31.2665
31.2647
31.2552
31.2535
31.2418
31.2402
31.2341
31.2326
31.2386
31.2373
31.2609
31.2597
31.3051
31.3041
31.3746
31.3736
31.4716
31.4707
31.5976
31.5968
31.7533
31.7526
31.9391
31.9385
32.1547
32.1541
32.3991
32.3987
32.6714
32.671
32.9699
32.9696
33.293
33.2927
33.6387
33.6384
34.0052
34.0049
34.3909
34.3907
34.7946
34.7944
35.2157
35.2155
35.6541
35.6539
36.1103
36.1102
36.5855
36.5854
37.0813
37.0812
37.5996
37.5995
38.1421
38.1421
38.7107
38.7107
39.3067
39.3067
39.9312
39.9312
40.5845
40.5845
41.2666
41.2666
41.9769
41.9769
42.7147
42.7147
43.479
43.479
44.2695
44.2695
45.0866
45.0867
45.9322
45.9323
46.8095
46.8096
47.7236
47.7236
48.6804
48.6805
49.6862
49.6863
50.7461
50.7461
51.8631
51.8632
53.0374
53.0375
54.2642
54.2643
55.5363
55.5363
56.8441
56.8442
58.1781
58.1781
59.5301
59.53
60.8948
60.8947
62.2712
62.271
63.6621
63.6618
65.0743
65.0739
66.5167
66.5163
67.9995
67.9991
69.5327
69.5322
71.1247
71.1241
72.7819
72.7813
74.5083
74.5076
76.3056
76.3048
78.174
78.1732
80.1123
80.1113
82.1192
82.1181
84.1939
84.1928
86.3368
86.3356
88.5492
88.5479
90.8335
90.8321
93.1922
93.1907
95.6268
95.6252
98.1368
98.135
100.718
100.716
103.361
103.359
106.053
106.051
108.777
108.774
111.511
111.508
114.236
114.233
116.93
116.926
119.574
119.569
122.154
122.148
124.659
124.653
127.085
127.078
129.431
129.423
131.702
131.692
133.905
133.893
136.054
136.04
138.164
138.149
140.257
140.24
142.357
142.338
144.492
144.471
146.688
146.667
148.974
148.952
151.371
151.348
153.892
153.867
156.534
156.508
159.27
159.242
162.048
162.019
164.788
164.757
167.375
167.342
169.669
169.633
171.506
171.467
172.724
172.683
173.183
173.141
172.805
172.761
171.592
171.548
169.645
169.601
167.143
167.1
164.306
164.264
161.341
161.3
158.401
158.362
155.574
155.537
152.865
152.829
150.245
150.21
147.669
147.636
145.102
145.07
142.52
142.488
139.912
139.882
137.28
137.25
134.626
134.597
131.959
131.93
129.286
129.258
126.615
126.588
123.953
123.927
121.304
121.279
118.675
118.65
116.066
116.042
113.48
113.456
110.917
110.894
108.377
108.355
105.86
105.838
103.364
103.343
100.889
100.868
98.4331
98.4127
95.9968
95.977
93.579
93.5596
91.1786
91.1597
88.7945
88.7761
86.4253
86.4073
84.0692
84.0517
81.7244
81.7073
79.3887
79.3721
77.0599
77.0438
74.7357
74.7199
72.4135
72.3982
70.0909
70.076
67.7651
67.7506
65.433
65.4189
63.0913
63.0777
60.7366
60.7233
58.3647
58.3519
55.9711
55.9587
53.5506
53.5385
51.0968
51.0851
48.6026
48.5914
46.0595
46.0486
43.457
43.4466
40.7827
40.7727
38.0206
38.0111
35.1505
35.1414
32.1455
32.1369
28.969
28.9609
25.5694
25.5619
21.8715
21.8646
17.7633
17.7572
13.0935
13.0882
7.81089
7.80689
2.85093
2.84901
0.427362
0.427038
0.0149717
0.0149594
30.5064
30.5064
30.5442
30.5442
30.0683
30.0683
29.4358
29.4358
28.7495
28.7495
28.0562
28.0562
27.3756
27.3756
26.7159
26.7159
26.0797
26.0797
25.4675
25.4675
24.8789
24.8789
24.3131
24.3131
23.769
23.769
23.2456
23.2456
22.7418
22.7418
22.2565
22.2565
21.7886
21.7886
21.337
21.3371
20.9008
20.9008
20.4791
20.4791
20.0711
20.0711
19.6763
19.6763
19.2944
19.2944
18.9251
18.9251
18.5683
18.5683
18.2239
18.2239
17.8918
17.8918
17.572
17.572
17.2641
17.2642
16.9678
16.9679
16.6826
16.6827
16.4081
16.4081
16.1436
16.1436
15.889
15.889
15.6438
15.6438
15.408
15.408
15.1816
15.1816
14.9647
14.9647
14.7572
14.7573
14.5594
14.5594
14.3712
14.3713
14.1928
14.1928
14.0243
14.0243
13.8656
13.8656
13.7168
13.7168
13.5782
13.5782
13.4498
13.4498
13.3318
13.3318
13.2244
13.2244
13.1279
13.1279
13.0425
13.0425
12.9683
12.9683
12.9054
12.9054
12.8536
12.8535
12.8125
12.8125
12.7818
12.7818
12.761
12.761
12.7499
12.7499
12.7482
12.7482
12.7558
12.7558
12.7731
12.7731
12.8005
12.8005
12.8388
12.8388
12.8889
12.8889
12.9516
12.9516
13.0279
13.0279
13.1187
13.1187
13.2246
13.2246
13.3461
13.346
13.4833
13.4833
13.6366
13.6365
13.8059
13.8058
13.9915
13.9915
14.1938
14.1937
14.4131
14.413
14.6495
14.6494
14.9026
14.9024
15.171
15.1708
15.4524
15.4522
15.7435
15.7433
16.0402
16.04
16.3388
16.3387
16.6369
16.637
16.9335
16.9337
17.2297
17.2299
17.5293
17.5294
17.8378
17.8379
18.1611
18.1612
18.5042
18.5042
18.8689
18.8688
19.2536
19.2535
19.652
19.6519
20.0545
20.0545
20.4486
20.4488
20.8219
20.8224
21.1627
21.1635
21.4611
21.462
21.7106
21.7114
21.9097
21.9105
22.0612
22.0619
22.1714
22.172
22.2492
22.2498
22.305
22.3054
22.3493
22.3496
22.3923
22.3926
22.4432
22.4434
22.5093
22.5094
22.5964
22.5965
22.7088
22.7088
22.8492
22.8491
23.019
23.0189
23.2187
23.2185
23.4479
23.4477
23.7056
23.7053
23.9899
23.9895
24.2984
24.2979
24.6278
24.6272
24.9741
24.9735
25.3326
25.3318
25.6975
25.6966
26.0624
26.0614
26.4202
26.4191
26.7635
26.7622
27.0847
27.0833
27.377
27.3755
27.6346
27.6332
27.8535
27.8522
28.0323
28.0314
28.1727
28.1724
28.2795
28.2796
28.3602
28.3605
28.4251
28.4255
28.4865
28.4869
28.5573
28.5576
28.6492
28.6494
28.7717
28.7718
28.9312
28.9312
29.128
29.1279
29.3583
29.358
29.6137
29.6134
29.8829
29.8826
30.1527
30.1524
30.4097
30.4097
30.6421
30.6425
30.8412
30.8422
31.0014
31.0029
31.1208
31.1227
31.201
31.203
31.2468
31.2489
31.2653
31.2672
31.2645
31.2664
31.2533
31.255
31.2401
31.2417
31.2325
31.234
31.2371
31.2385
31.2595
31.2607
31.3039
31.305
31.3735
31.3745
31.4705
31.4714
31.5966
31.5974
31.7525
31.7532
31.9384
31.939
32.154
32.1545
32.3985
32.399
32.6708
32.6713
32.9694
32.9698
33.2925
33.2929
33.6383
33.6386
34.0048
34.0051
34.3905
34.3908
34.7943
34.7945
35.2154
35.2156
35.6538
35.6539
36.11
36.1102
36.5853
36.5854
37.0811
37.0812
37.5994
37.5995
38.142
38.142
38.7106
38.7106
39.3066
39.3066
39.9311
39.9311
40.5844
40.5844
41.2665
41.2665
41.9768
41.9768
42.7146
42.7146
43.4789
43.4789
44.2694
44.2694
45.0866
45.0866
45.9322
45.9322
46.8095
46.8095
47.7236
47.7235
48.6804
48.6804
49.6862
49.6862
50.7461
50.746
51.8631
51.8631
53.0374
53.0374
54.2642
54.2642
55.5362
55.5362
56.8441
56.8441
58.1781
58.1781
59.53
59.5301
60.8947
60.8948
62.2709
62.2712
63.6618
63.6621
65.0739
65.0743
66.5163
66.5167
67.999
67.9996
69.5322
69.5327
71.1241
71.1248
72.7812
72.782
74.5076
74.5083
76.3048
76.3057
78.1731
78.1741
80.1113
80.1123
82.1181
82.1192
84.1928
84.194
86.3355
86.3368
88.5478
88.5493
90.8321
90.8336
93.1906
93.1923
95.6251
95.6269
98.1349
98.1369
100.716
100.718
103.359
103.361
106.05
106.053
108.774
108.777
111.508
111.511
114.233
114.236
116.926
116.93
119.569
119.574
122.148
122.154
124.653
124.659
127.078
127.085
129.423
129.431
131.692
131.702
133.893
133.905
136.04
136.054
138.149
138.164
140.24
140.258
142.338
142.358
144.471
144.492
146.667
146.689
148.952
148.975
151.348
151.372
153.867
153.892
156.508
156.534
159.242
159.27
162.019
162.048
164.757
164.788
167.342
167.376
169.633
169.669
171.468
171.506
172.683
172.724
173.141
173.184
172.761
172.805
171.548
171.592
169.601
169.646
167.1
167.144
164.264
164.306
161.3
161.341
158.362
158.401
155.537
155.575
152.829
152.866
150.21
150.245
147.636
147.67
145.07
145.103
142.488
142.52
139.882
139.913
137.25
137.28
134.597
134.626
131.93
131.959
129.258
129.286
126.588
126.615
123.927
123.953
121.279
121.305
118.65
118.675
116.042
116.066
113.456
113.48
110.894
110.917
108.355
108.378
105.838
105.86
103.343
103.364
100.868
100.889
98.4128
98.4333
95.9771
95.9971
93.5597
93.5792
91.1598
91.1788
88.7762
88.7947
86.4074
86.4255
84.0518
84.0694
81.7074
81.7246
79.3722
79.3889
77.0438
77.0601
74.72
74.7359
72.3983
72.4137
70.0761
70.0911
67.7507
67.7652
65.419
65.4331
63.0777
63.0915
60.7234
60.7368
58.3519
58.3649
55.9587
55.9713
53.5385
53.5507
51.0852
51.0969
48.5914
48.6028
46.0486
46.0596
43.4466
43.4572
40.7727
40.7828
38.0111
38.0207
35.1414
35.1506
32.1369
32.1456
28.9609
28.9691
25.5619
25.5695
21.8646
21.8715
17.7572
17.7634
13.0882
13.0936
7.8069
7.81093
2.84901
2.85094
0.427038
0.427364
0.0149594
0.0149718
)
;

boundaryField
{
    walls
    {
        type            kqRWallFunction;
        value           nonuniform List<scalar> 8(0.0149787 0.0149669 0.0149669 0.0149787 0.0149717 0.0149594 0.0149594 0.0149718);
    }
    inlet
    {
        type            cyclic;
    }
    outlet
    {
        type            cyclic;
    }
    sides
    {
        type            empty;
    }
}


// ************************************************************************* //
