/*--------------------------------*- C++ -*----------------------------------*\
| =========                 |                                                 |
| \\      /  F ield         | OpenFOAM: The Open Source CFD Toolbox           |
|  \\    /   O peration     | Version:  2012                                  |
|   \\  /    A nd           | Website:  www.openfoam.com                      |
|    \\/     M anipulation  |                                                 |
\*---------------------------------------------------------------------------*/
FoamFile
{
    version     2.0;
    format      ascii;
    class       volScalarField;
    location    "12200";
    object      omega;
}
// * * * * * * * * * * * * * * * * * * * * * * * * * * * * * * * * * * * * * //

dimensions      [0 0 -1 0 0 0 0];


internalField   nonuniform List<scalar> 
2560
(
1.52417e+06
1.52417e+06
263973
263976
87396.4
87399.4
41474.5
41475.4
25573.3
25573
18485
18484.4
14612.2
14611.5
12187
12186.3
10524.4
10523.8
9310.91
9310.3
8384.1
8383.54
7651.73
7651.21
7057.53
7057.04
6565.18
6564.72
6150.21
6149.78
5795.5
5795.09
5488.69
5488.3
5220.65
5220.29
4984.48
4984.13
4774.84
4774.51
4587.57
4587.25
4419.32
4419.01
4267.42
4267.13
4129.68
4129.4
4004.31
4004.04
3889.8
3889.54
3784.91
3784.66
3688.57
3688.33
3599.89
3599.65
3518.09
3517.86
3442.52
3442.29
3372.6
3372.37
3307.82
3307.6
3247.76
3247.54
3192.01
3191.79
3140.23
3140.02
3092.11
3091.9
3047.37
3047.16
3005.76
3005.56
2967.06
2966.85
2931.07
2930.86
2897.61
2897.4
2866.52
2866.31
2837.65
2837.45
2810.86
2810.65
2786
2785.79
2762.92
2762.72
2741.47
2741.27
2721.5
2721.29
2702.84
2702.63
2685.35
2685.14
2668.87
2668.66
2653.29
2653.07
2638.48
2638.27
2624.43
2624.21
2611.17
2610.94
2598.88
2598.65
2587.88
2587.64
2578.5
2578.25
2570.97
2570.71
2565.21
2564.95
2560.45
2560.18
2555.43
2555.16
2548.47
2548.2
2537.87
2537.6
2522.26
2521.99
2500.9
2500.64
2473.77
2473.52
2441.46
2441.22
2404.98
2404.76
2365.52
2365.31
2324.25
2324.06
2282.21
2282.04
2240.23
2240.06
2198.87
2198.72
2158.54
2158.38
2119.42
2119.27
2081.53
2081.39
2044.79
2044.66
2009.04
2008.91
1974.08
1973.97
1939.72
1939.61
1905.75
1905.66
1871.99
1871.91
1838.3
1838.23
1804.54
1804.48
1770.62
1770.57
1736.48
1736.44
1702.07
1702.04
1667.39
1667.36
1632.46
1632.44
1597.35
1597.33
1562.15
1562.13
1526.97
1526.96
1491.97
1491.96
1457.28
1457.27
1423.04
1423.03
1389.38
1389.37
1356.39
1356.38
1324.13
1324.12
1292.62
1292.62
1261.88
1261.88
1231.89
1231.89
1202.63
1202.63
1174.09
1174.08
1146.24
1146.24
1119.09
1119.09
1092.65
1092.65
1066.92
1066.92
1041.9
1041.9
1017.6
1017.6
994.001
994.002
971.075
971.076
948.775
948.776
927.036
927.038
905.785
905.787
884.943
884.946
864.443
864.446
844.231
844.234
824.281
824.285
804.598
804.602
785.213
785.217
766.182
766.186
747.571
747.575
729.443
729.448
711.85
711.854
694.824
694.828
678.362
678.365
662.441
662.445
647.024
647.027
632.063
632.067
617.515
617.519
603.342
603.346
589.519
589.522
576.029
576.032
562.867
562.871
550.034
550.037
537.531
537.534
525.362
525.365
513.527
513.53
502.025
502.028
490.85
490.853
479.993
479.995
469.441
469.444
459.182
459.185
449.2
449.203
439.482
439.484
430.013
430.015
420.785
420.787
411.791
411.793
403.028
403.03
394.5
394.501
386.209
386.21
378.163
378.164
370.371
370.372
362.841
362.842
355.582
355.582
348.598
348.598
341.895
341.894
335.474
335.473
329.335
329.334
323.474
323.472
317.884
317.882
312.554
312.552
307.47
307.467
302.613
302.609
297.957
297.953
293.474
293.469
289.127
289.122
284.878
284.872
280.683
280.676
276.5
276.493
272.288
272.28
268.012
268.006
263.651
263.645
259.194
259.19
254.649
254.647
250.038
250.038
245.397
245.399
240.776
240.778
236.228
236.23
231.808
231.809
227.56
227.561
223.517
223.518
219.695
219.695
216.09
216.089
212.675
212.675
209.414
209.413
206.259
206.257
203.159
203.158
200.067
200.067
196.944
196.945
193.761
193.764
190.501
190.505
187.157
187.162
183.732
183.737
180.238
180.242
176.693
176.698
173.121
173.125
169.545
169.549
165.989
165.993
162.477
162.48
159.028
159.031
155.661
155.663
152.391
152.393
149.23
149.232
146.189
146.19
143.274
143.275
140.492
140.493
137.844
137.845
135.332
135.333
132.953
132.954
130.702
130.703
128.571
128.571
126.545
126.545
124.608
124.607
122.735
122.735
120.902
120.901
119.077
119.076
117.231
117.229
115.333
115.332
113.36
113.358
111.292
111.29
109.122
109.12
106.852
106.85
104.498
104.497
102.084
102.084
99.6411
99.6414
97.199
97.1994
94.7891
94.7895
92.4358
92.4361
90.1547
90.1549
87.9495
87.9495
85.8149
85.8148
83.7386
83.7385
81.7054
81.7052
79.7008
79.7006
77.7148
77.7148
75.7442
75.7445
73.791
73.7914
71.8604
71.8609
69.9607
69.9612
68.1008
68.1012
66.2881
66.2885
64.528
64.5283
62.823
62.8233
61.1743
61.1745
59.5809
59.5811
58.042
58.0422
56.5566
56.5567
55.1238
55.1239
53.7431
53.7432
52.4138
52.4139
51.1352
51.1353
49.9058
49.9059
48.724
48.7241
47.5877
47.5878
46.4946
46.4947
45.4425
45.4426
44.4292
44.4292
43.4529
43.453
42.5123
42.5123
41.6062
41.6063
40.7343
40.7343
39.8963
39.8963
39.0921
39.0921
38.3219
38.3219
37.5857
37.5857
36.8833
36.8833
36.2143
36.2143
35.5779
35.578
34.9735
34.9735
34.3998
34.3998
33.856
33.856
33.3411
33.3411
32.854
32.854
32.3939
32.3939
31.96
31.96
31.5516
31.5516
31.1678
31.1678
30.8079
30.8079
30.4712
30.4712
30.157
30.157
29.8645
29.8645
29.5931
29.5931
29.3421
29.3421
29.111
29.111
28.8994
28.8995
28.7071
28.7071
28.5337
28.5337
28.3793
28.3793
28.2438
28.2438
28.1272
28.1272
28.0293
28.0293
27.9499
27.9499
27.8888
27.8888
27.8456
27.8456
27.8201
27.8201
27.812
27.812
27.821
27.821
27.8473
27.8473
27.8909
27.8909
27.9522
27.9522
28.0314
28.0314
28.129
28.129
28.2456
28.2456
28.3816
28.3816
28.5377
28.5377
28.7144
28.7144
28.9122
28.9122
29.1316
29.1316
29.3732
29.3732
29.6371
29.6371
29.9231
29.9231
30.2296
30.2296
30.5523
30.5523
30.8803
30.8803
31.1886
31.1886
31.4224
31.4224
31.3915
31.3915
1.52417e+06
1.52417e+06
263976
263973
87399.4
87396.4
41475.4
41474.5
25573
25573.3
18484.4
18485
14611.5
14612.2
12186.3
12187
10523.8
10524.4
9310.3
9310.91
8383.53
8384.1
7651.21
7651.74
7057.04
7057.53
6564.72
6565.18
6149.78
6150.21
5795.09
5795.5
5488.3
5488.69
5220.29
5220.65
4984.13
4984.48
4774.51
4774.84
4587.25
4587.57
4419.01
4419.32
4267.13
4267.42
4129.4
4129.68
4004.04
4004.31
3889.54
3889.8
3784.66
3784.91
3688.33
3688.57
3599.65
3599.89
3517.86
3518.09
3442.29
3442.52
3372.37
3372.6
3307.6
3307.82
3247.54
3247.76
3191.79
3192.01
3140.02
3140.23
3091.9
3092.11
3047.16
3047.37
3005.56
3005.76
2966.85
2967.06
2930.86
2931.07
2897.4
2897.61
2866.31
2866.52
2837.45
2837.65
2810.65
2810.86
2785.79
2786
2762.72
2762.92
2741.27
2741.47
2721.29
2721.5
2702.63
2702.84
2685.14
2685.35
2668.66
2668.87
2653.07
2653.29
2638.27
2638.48
2624.21
2624.43
2610.94
2611.17
2598.65
2598.89
2587.64
2587.88
2578.25
2578.5
2570.71
2570.97
2564.95
2565.21
2560.18
2560.45
2555.16
2555.43
2548.2
2548.47
2537.59
2537.87
2521.99
2522.26
2500.64
2500.9
2473.52
2473.77
2441.22
2441.46
2404.76
2404.98
2365.31
2365.52
2324.06
2324.25
2282.04
2282.22
2240.06
2240.23
2198.72
2198.88
2158.38
2158.54
2119.27
2119.42
2081.39
2081.53
2044.66
2044.79
2008.91
2009.04
1973.97
1974.09
1939.61
1939.72
1905.66
1905.75
1871.91
1871.99
1838.23
1838.3
1804.48
1804.54
1770.57
1770.62
1736.44
1736.48
1702.04
1702.07
1667.36
1667.39
1632.44
1632.46
1597.33
1597.35
1562.13
1562.15
1526.96
1526.97
1491.96
1491.97
1457.27
1457.28
1423.03
1423.04
1389.37
1389.38
1356.38
1356.39
1324.12
1324.13
1292.62
1292.62
1261.88
1261.88
1231.89
1231.89
1202.63
1202.63
1174.08
1174.09
1146.24
1146.24
1119.09
1119.09
1092.65
1092.65
1066.92
1066.92
1041.9
1041.9
1017.6
1017.6
994.002
994.001
971.076
971.075
948.776
948.775
927.038
927.036
905.787
905.784
884.946
884.943
864.446
864.443
844.234
844.231
824.285
824.281
804.602
804.598
785.217
785.213
766.186
766.182
747.575
747.571
729.448
729.443
711.854
711.85
694.827
694.823
678.365
678.361
662.445
662.441
647.027
647.023
632.067
632.063
617.518
617.515
603.346
603.342
589.522
589.518
576.032
576.028
562.87
562.867
550.036
550.033
537.534
537.53
525.364
525.361
513.53
513.527
502.028
502.025
490.852
490.849
479.995
479.992
469.443
469.441
459.184
459.182
449.202
449.2
439.483
439.481
430.015
430.012
420.786
420.784
411.792
411.79
403.03
403.028
394.5
394.499
386.21
386.208
378.164
378.163
370.372
370.371
362.841
362.841
355.581
355.581
348.597
348.597
341.894
341.894
335.473
335.474
329.333
329.335
323.472
323.474
317.881
317.883
312.551
312.554
307.466
307.47
302.608
302.612
297.952
297.957
293.468
293.473
289.121
289.127
284.871
284.878
280.676
280.683
276.492
276.499
272.28
272.287
268.005
268.012
263.645
263.65
259.19
259.194
254.647
254.648
250.038
250.037
245.399
245.397
240.778
240.776
236.23
236.228
231.809
231.807
227.56
227.559
223.517
223.516
219.694
219.694
216.088
216.089
212.674
212.674
209.412
209.413
206.256
206.258
203.156
203.158
200.065
200.066
196.944
196.943
193.763
193.76
190.505
190.5
187.161
187.156
183.736
183.731
180.242
180.237
176.697
176.693
173.125
173.121
169.548
169.545
165.992
165.989
162.479
162.476
159.03
159.028
155.663
155.66
152.392
152.39
149.231
149.23
146.19
146.188
143.275
143.274
140.492
140.491
137.844
137.843
135.332
135.331
132.953
132.952
130.702
130.701
128.57
128.57
126.544
126.544
124.606
124.606
122.733
122.734
120.899
120.9
119.075
119.076
117.228
117.229
115.331
115.332
113.357
113.359
111.29
111.291
109.12
109.122
106.85
106.852
104.497
104.498
102.084
102.085
99.6416
99.6413
97.1997
97.1993
94.7897
94.7894
92.4363
92.436
90.1549
90.1547
87.9494
87.9494
85.8146
85.8147
83.7382
83.7384
81.7048
81.7051
79.7003
79.7006
77.7146
77.7146
75.7444
75.7441
73.7914
73.7909
71.861
71.8604
69.9613
69.9607
68.1013
68.1008
66.2886
66.2882
64.5284
64.528
62.8234
62.8231
61.1746
61.1743
59.5812
59.5809
58.0422
58.042
56.5567
56.5566
55.1239
55.1238
53.7432
53.743
52.4139
52.4138
51.1352
51.1351
49.9058
49.9057
48.724
48.7239
47.5877
47.5876
46.4946
46.4945
45.4425
45.4424
44.4292
44.4291
43.4529
43.4528
42.5123
42.5122
41.6063
41.6062
40.7344
40.7343
39.8963
39.8963
39.0922
39.0921
38.322
38.3219
37.5858
37.5857
36.8834
36.8833
36.2143
36.2143
35.578
35.578
34.9735
34.9735
34.3999
34.3998
33.8561
33.856
33.3411
33.3411
32.854
32.854
32.3939
32.3939
31.96
31.96
31.5516
31.5515
31.1678
31.1678
30.8079
30.8079
30.4712
30.4712
30.157
30.157
29.8645
29.8645
29.5931
29.5931
29.3421
29.3421
29.111
29.111
28.8995
28.8995
28.7071
28.7071
28.5337
28.5337
28.3793
28.3793
28.2438
28.2438
28.1271
28.1271
28.0292
28.0292
27.9499
27.9499
27.8888
27.8888
27.8456
27.8456
27.8201
27.8201
27.8119
27.8119
27.821
27.821
27.8473
27.8473
27.8909
27.8909
27.9522
27.9522
28.0314
28.0314
28.129
28.129
28.2456
28.2456
28.3816
28.3816
28.5377
28.5377
28.7143
28.7143
28.9121
28.9121
29.1315
29.1315
29.373
29.373
29.6369
29.6369
29.9228
29.9228
30.2292
30.2292
30.5518
30.5518
30.8798
30.8798
31.188
31.1879
31.4217
31.4217
31.3909
31.3909
31.3915
31.3915
31.4225
31.4225
31.1888
31.1888
30.8805
30.8805
30.5525
30.5525
30.2298
30.2298
29.9233
29.9233
29.6373
29.6373
29.3734
29.3734
29.1318
29.1318
28.9123
28.9123
28.7145
28.7145
28.5378
28.5378
28.3818
28.3818
28.2457
28.2457
28.1291
28.1291
28.0315
28.0315
27.9523
27.9523
27.8911
27.8911
27.8474
27.8474
27.8211
27.8211
27.812
27.812
27.8202
27.8202
27.8457
27.8457
27.8889
27.8889
27.95
27.95
28.0293
28.0293
28.1272
28.1272
28.2438
28.2438
28.3792
28.3792
28.5336
28.5336
28.707
28.707
28.8993
28.8993
29.1109
29.1109
29.3419
29.3419
29.5928
29.5928
29.8641
29.8641
30.1565
30.1565
30.4707
30.4707
30.8073
30.8073
31.1671
31.1671
31.5508
31.5509
31.9592
31.9592
32.393
32.3931
32.853
32.853
33.34
33.34
33.8549
33.8549
34.3986
34.3987
34.9722
34.9722
35.5766
35.5766
36.2128
36.2128
36.8817
36.8817
37.584
37.5841
38.3202
38.3202
39.0902
39.0903
39.8943
39.8943
40.7322
40.7322
41.604
41.604
42.5099
42.51
43.4504
43.4505
44.4265
44.4266
45.4396
45.4397
46.4916
46.4917
47.5846
47.5847
48.7208
48.7209
49.9026
49.9026
51.1318
51.1319
52.4104
52.4105
53.7395
53.7396
55.1201
55.1203
56.5528
56.553
58.0381
58.0383
59.5769
59.5771
61.1702
61.1704
62.8189
62.8191
64.5237
64.524
66.2837
66.2841
68.0962
68.0967
69.9561
69.9566
71.8559
71.8565
73.7867
73.7871
75.7402
75.7405
77.711
77.7111
79.6973
79.6971
81.7021
81.7019
83.7356
83.7354
85.812
85.812
87.9467
87.9468
90.152
90.1522
92.4333
92.4336
94.7867
94.7871
97.1969
97.1973
99.6392
99.6395
102.083
102.083
104.497
104.496
106.851
106.85
109.121
109.12
111.291
111.289
113.359
113.357
115.332
115.33
117.229
117.228
119.076
119.075
120.9
120.899
122.734
122.733
124.606
124.605
126.543
126.543
128.568
128.569
130.7
130.7
132.95
132.951
135.329
135.329
137.84
137.841
140.488
140.489
143.27
143.271
146.184
146.186
149.225
149.227
152.385
152.388
155.655
155.658
159.022
159.025
162.47
162.473
165.983
165.986
169.538
169.542
173.114
173.118
176.686
176.69
180.23
180.235
183.723
183.728
187.148
187.153
190.492
190.497
193.752
193.755
196.934
196.935
200.056
200.056
203.148
203.147
206.247
206.246
209.402
209.401
212.663
212.663
216.077
216.077
219.682
219.683
223.505
223.505
227.547
227.548
231.795
231.796
236.215
236.217
240.763
240.765
245.384
245.386
250.024
250.025
254.635
254.634
259.18
259.176
263.637
263.631
267.999
267.991
272.273
272.265
276.485
276.477
280.668
280.661
284.862
284.856
289.111
289.105
293.457
293.452
297.94
297.935
302.595
302.591
307.452
307.448
312.535
312.532
317.864
317.862
323.454
323.452
329.314
329.312
335.452
335.451
341.872
341.871
348.574
348.574
355.556
355.557
362.815
362.816
370.344
370.345
378.135
378.136
386.179
386.18
394.468
394.47
402.995
402.997
411.756
411.758
420.748
420.75
429.975
429.977
439.441
439.444
449.158
449.161
459.138
459.141
469.396
469.398
479.945
479.948
490.801
490.804
501.975
501.978
513.475
513.478
525.308
525.311
537.475
537.479
549.976
549.98
562.808
562.812
575.967
575.971
589.454
589.458
603.275
603.279
617.445
617.449
631.99
631.994
646.947
646.951
662.362
662.367
678.28
678.285
694.74
694.744
711.764
711.769
729.355
729.359
747.48
747.484
766.089
766.093
785.118
785.122
804.5
804.504
824.181
824.185
844.129
844.132
864.338
864.342
884.837
884.84
905.676
905.679
926.926
926.929
948.663
948.665
970.961
970.962
993.883
993.885
1017.48
1017.48
1041.78
1041.78
1066.79
1066.79
1092.52
1092.52
1118.96
1118.96
1146.11
1146.11
1173.95
1173.95
1202.49
1202.49
1231.75
1231.75
1261.74
1261.73
1292.48
1292.47
1323.98
1323.97
1356.24
1356.23
1389.22
1389.22
1422.88
1422.87
1457.11
1457.1
1491.8
1491.79
1526.8
1526.79
1561.98
1561.96
1597.18
1597.16
1632.29
1632.27
1667.22
1667.19
1701.9
1701.87
1736.3
1736.26
1770.44
1770.39
1804.35
1804.29
1838.11
1838.03
1871.79
1871.71
1905.54
1905.45
1939.51
1939.4
1973.86
1973.74
2008.81
2008.68
2044.55
2044.41
2081.29
2081.14
2119.17
2119.02
2158.28
2158.12
2198.61
2198.45
2239.96
2239.79
2281.94
2281.76
2323.98
2323.78
2365.24
2365.03
2404.7
2404.47
2441.18
2440.93
2473.5
2473.24
2500.64
2500.37
2522.01
2521.72
2537.63
2537.34
2548.23
2547.94
2555.18
2554.9
2560.21
2559.92
2564.97
2564.69
2570.72
2570.46
2578.26
2578
2587.64
2587.39
2598.64
2598.4
2610.92
2610.69
2624.19
2623.95
2638.25
2638.02
2653.06
2652.83
2668.65
2668.43
2685.13
2684.91
2702.63
2702.41
2721.29
2721.07
2741.26
2741.05
2762.71
2762.5
2785.79
2785.58
2810.65
2810.44
2837.45
2837.23
2866.31
2866.1
2897.4
2897.19
2930.86
2930.65
2966.86
2966.64
3005.56
3005.34
3047.16
3046.94
3091.9
3091.68
3140.01
3139.79
3191.78
3191.56
3247.52
3247.29
3307.58
3307.35
3372.35
3372.11
3442.26
3442.02
3517.83
3517.58
3599.62
3599.36
3688.29
3688.03
3784.62
3784.35
3889.5
3889.22
4003.99
4003.71
4129.35
4129.05
4267.07
4266.76
4418.95
4418.63
4587.18
4586.85
4774.44
4774.09
4984.05
4983.69
5220.2
5219.82
5488.21
5487.8
5794.99
5794.56
6149.67
6149.22
6564.6
6564.12
7056.91
7056.39
7651.07
7650.51
8383.38
8382.78
9310.12
9309.48
10523.6
10522.9
12186.1
12185.4
14611.2
14610.4
18483.9
18483.2
25572.2
25571.9
41473.9
41474.7
87397
87400
263974
263977
1.52418e+06
1.52418e+06
31.391
31.3909
31.4218
31.4218
31.1881
31.1881
30.8799
30.8799
30.552
30.552
30.2294
30.2294
29.923
29.923
29.6371
29.6371
29.3732
29.3732
29.1317
29.1317
28.9122
28.9122
28.7145
28.7145
28.5378
28.5378
28.3817
28.3817
28.2457
28.2457
28.1291
28.1291
28.0315
28.0315
27.9523
27.9523
27.8911
27.8911
27.8474
27.8474
27.8211
27.8211
27.812
27.812
27.8202
27.8202
27.8457
27.8457
27.8889
27.8889
27.9499
27.9499
28.0293
28.0293
28.1272
28.1271
28.2438
28.2438
28.3792
28.3792
28.5336
28.5336
28.707
28.707
28.8993
28.8993
29.1109
29.1109
29.3419
29.3419
29.5928
29.5928
29.8641
29.8641
30.1565
30.1565
30.4707
30.4707
30.8073
30.8073
31.1671
31.1671
31.5509
31.5508
31.9593
31.9592
32.3931
32.393
32.8531
32.853
33.3401
33.34
33.8549
33.8549
34.3987
34.3986
34.9722
34.9722
35.5766
35.5766
36.2129
36.2128
36.8818
36.8818
37.5841
37.5841
38.3202
38.3202
39.0903
39.0903
39.8943
39.8943
40.7322
40.7322
41.604
41.604
42.5099
42.5099
43.4504
43.4503
44.4265
44.4264
45.4396
45.4395
46.4916
46.4915
47.5846
47.5845
48.7208
48.7207
49.9026
49.9025
51.1319
51.1318
52.4105
52.4103
53.7396
53.7395
55.1203
55.1201
56.553
56.5528
58.0384
58.0381
59.5772
59.577
61.1705
61.1702
62.8193
62.8189
64.5241
64.5237
66.2842
66.2837
68.0968
68.0963
69.9567
69.9561
71.8565
71.8559
73.7871
73.7865
75.7404
75.74
77.7108
77.7108
79.6968
79.697
81.7015
81.7019
83.7351
83.7354
85.8117
85.8118
87.9467
87.9466
90.1523
90.1521
92.4337
92.4334
94.7874
94.787
97.1976
97.1971
99.6397
99.6394
102.083
102.083
104.496
104.497
106.849
106.851
109.119
109.121
111.289
111.291
113.356
113.358
115.329
115.331
117.227
117.228
119.073
119.074
120.898
120.899
122.732
122.732
124.604
124.604
126.542
126.542
128.567
128.567
130.699
130.699
132.95
132.949
135.328
135.328
137.841
137.84
140.488
140.487
143.271
143.27
146.185
146.184
149.227
149.225
152.387
152.385
155.657
155.655
159.024
159.022
162.473
162.47
165.986
165.982
169.542
169.538
173.118
173.113
176.69
176.685
180.234
180.229
183.728
183.722
187.153
187.147
190.496
190.491
193.754
193.751
196.934
196.933
200.055
200.055
203.145
203.147
206.245
206.246
209.4
209.401
212.662
212.663
216.076
216.077
219.682
219.682
223.505
223.504
227.548
227.547
231.796
231.794
236.217
236.215
240.765
240.763
245.385
245.384
250.024
250.024
254.633
254.635
259.176
259.18
263.631
263.637
267.991
267.998
272.265
272.273
276.477
276.485
280.66
280.668
284.855
284.862
289.104
289.111
293.451
293.457
297.935
297.94
302.59
302.595
307.448
307.451
312.532
312.535
317.861
317.864
323.451
323.453
329.312
329.313
335.45
335.451
341.87
341.871
348.573
348.573
355.556
355.556
362.815
362.815
370.344
370.343
378.135
378.134
386.18
386.178
394.469
394.468
402.997
402.995
411.757
411.755
420.75
420.748
429.976
429.974
439.443
439.441
449.16
449.158
459.14
459.138
469.398
469.395
479.948
479.945
490.804
490.801
501.977
501.974
513.478
513.475
525.311
525.308
537.479
537.475
549.98
549.976
562.811
562.808
575.97
575.967
589.457
589.454
603.278
603.275
617.448
617.445
631.993
631.99
646.951
646.947
662.366
662.362
678.285
678.281
694.744
694.74
711.769
711.764
729.359
729.355
747.484
747.48
766.093
766.089
785.122
785.118
804.504
804.5
824.185
824.181
844.132
844.129
864.342
864.339
884.84
884.837
905.679
905.677
926.929
926.927
948.665
948.663
970.962
970.961
993.885
993.884
1017.48
1017.48
1041.78
1041.78
1066.79
1066.79
1092.52
1092.52
1118.96
1118.96
1146.11
1146.11
1173.95
1173.95
1202.49
1202.49
1231.75
1231.75
1261.73
1261.74
1292.47
1292.48
1323.97
1323.98
1356.23
1356.24
1389.22
1389.22
1422.87
1422.88
1457.1
1457.11
1491.79
1491.8
1526.79
1526.8
1561.96
1561.98
1597.16
1597.18
1632.27
1632.29
1667.19
1667.22
1701.87
1701.9
1736.26
1736.31
1770.39
1770.44
1804.29
1804.36
1838.03
1838.11
1871.71
1871.8
1905.45
1905.55
1939.4
1939.51
1973.74
1973.87
2008.68
2008.81
2044.41
2044.56
2081.14
2081.29
2119.02
2119.17
2158.12
2158.28
2198.45
2198.62
2239.79
2239.96
2281.76
2281.95
2323.78
2323.98
2365.03
2365.24
2404.47
2404.7
2440.93
2441.19
2473.24
2473.51
2500.37
2500.65
2521.73
2522.01
2537.34
2537.63
2547.94
2548.23
2554.9
2555.19
2559.92
2560.21
2564.69
2564.97
2570.46
2570.73
2578
2578.26
2587.39
2587.64
2598.4
2598.64
2610.69
2610.93
2623.96
2624.19
2638.02
2638.25
2652.84
2653.06
2668.43
2668.66
2684.92
2685.14
2702.41
2702.63
2721.07
2721.29
2741.05
2741.27
2762.5
2762.72
2785.58
2785.8
2810.44
2810.66
2837.24
2837.45
2866.1
2866.32
2897.19
2897.41
2930.65
2930.87
2966.64
2966.86
3005.34
3005.56
3046.95
3047.17
3091.68
3091.9
3139.79
3140.02
3191.56
3191.79
3247.3
3247.53
3307.35
3307.59
3372.11
3372.35
3442.02
3442.27
3517.58
3517.83
3599.36
3599.62
3688.03
3688.29
3784.35
3784.62
3889.22
3889.5
4003.71
4004
4129.06
4129.36
4266.77
4267.08
4418.64
4418.96
4586.85
4587.19
4774.09
4774.45
4983.69
4984.06
5219.82
5220.21
5487.81
5488.22
5794.56
5795
6149.22
6149.68
6564.12
6564.61
7056.39
7056.92
7650.52
7651.08
8382.79
8383.39
9309.49
9310.13
10522.9
10523.6
12185.4
12186.1
14610.4
14611.2
18483.2
18483.9
25571.9
25572.2
41474.7
41473.9
87400
87396.9
263977
263974
1.52418e+06
1.52418e+06
)
;

boundaryField
{
    walls
    {
        blending        binomial2;
        n               2;
        beta1           0.075;
        type            omegaWallFunction;
        value           nonuniform List<scalar> 8(1.52417e+06 1.52417e+06 1.52417e+06 1.52417e+06 1.52418e+06 1.52418e+06 1.52418e+06 1.52418e+06);
    }
    inlet
    {
        type            cyclic;
    }
    outlet
    {
        type            cyclic;
    }
    sides
    {
        type            empty;
    }
}


// ************************************************************************* //
