/*--------------------------------*- C++ -*----------------------------------*\
| =========                 |                                                 |
| \\      /  F ield         | OpenFOAM: The Open Source CFD Toolbox           |
|  \\    /   O peration     | Version:  2012                                  |
|   \\  /    A nd           | Website:  www.openfoam.com                      |
|    \\/     M anipulation  |                                                 |
\*---------------------------------------------------------------------------*/
FoamFile
{
    version     2.0;
    format      ascii;
    class       volSymmTensorField;
    location    "12200";
    object      turbulenceProperties:R;
}
// * * * * * * * * * * * * * * * * * * * * * * * * * * * * * * * * * * * * * //

dimensions      [0 2 -2 0 0 0 0];


internalField   nonuniform List<symmTensor> 
2560
(
(0.00998577 -4.16808e-06 -6.04229e-09 0.00998577 -3.08238e-08 0.00998577)
(0.00997794 -4.15994e-06 -6.03755e-09 0.00997794 1.25296e-12 0.00997794)
(0.285047 -0.000684461 -2.99389e-06 0.285047 -1.00656e-10 0.285047)
(0.284841 -0.000683173 -2.99169e-06 0.28484 1.70095e-10 0.284841)
(1.90148 -0.0137461 -8.23834e-05 1.90148 5.47263e-05 1.90148)
(1.90026 -0.0137219 -8.22414e-05 1.90026 9.34396e-10 1.90026)
(5.20921 -0.079096 -0.000480936 5.20922 0.000240994 5.20921)
(5.20667 -0.0789765 -0.000480232 5.20666 3.95415e-09 5.20667)
(8.73179 -0.214324 -0.00132215 8.73181 0.000305981 8.73179)
(8.72843 -0.21405 -0.00132052 8.72841 3.35927e-09 8.72843)
(11.8457 -0.400838 -0.00250798 11.8457 0.000254963 11.8457)
(11.8418 -0.400397 -0.00250535 11.8417 2.08331e-09 11.8418)
(14.585 -0.621672 -0.00394435 14.585 0.000199203 14.585)
(14.5806 -0.621081 -0.0039408 14.5806 1.75401e-09 14.5806)
(17.0508 -0.866835 -0.00557706 17.0508 0.000159094 17.0508)
(17.0461 -0.866122 -0.00557275 17.046 3.64672e-09 17.0461)
(19.3177 -1.13072 -0.00738068 19.3177 0.000131027 19.3177)
(19.3126 -1.12992 -0.00737581 19.3125 1.65952e-09 19.3126)
(21.4358 -1.4109 -0.00934868 21.4358 0.000110729 21.4358)
(21.4304 -1.41005 -0.00934347 21.4303 6.06323e-09 21.4304)
(23.4396 -1.70574 -0.0114687 23.4396 9.54634e-05 23.4396)
(23.4338 -1.70488 -0.0114634 23.4338 1.2819e-09 23.4338)
(25.3534 -2.01343 -0.0137373 25.3534 8.36116e-05 25.3534)
(25.3474 -2.01259 -0.0137321 25.3473 1.0896e-08 25.3474)
(27.1952 -2.33362 -0.0161607 27.1952 7.42952e-05 27.1952)
(27.189 -2.33283 -0.0161558 27.1885 -8.2694e-07 27.189)
(28.9785 -2.66508 -0.0187229 28.9785 6.54584e-05 28.9785)
(28.9719 -2.66437 -0.0187185 28.9719 -1.21231e-08 28.9719)
(30.7138 -3.00399 -0.0213968 30.7138 6.0112e-05 30.7138)
(30.7075 -3.00338 -0.021393 30.7057 4.97979e-07 30.7075)
(32.4096 -3.34591 -0.0241557 32.4097 4.9498e-05 32.4096)
(32.4025 -3.34541 -0.0241526 32.4025 -5.37218e-08 32.4025)
(34.0728 -3.68743 -0.0269828 34.0728 4.88604e-05 34.0728)
(34.0659 -3.68705 -0.0269806 34.0643 5.03457e-06 34.0659)
(35.709 -4.02997 -0.0299197 35.709 3.58313e-05 35.709)
(35.7013 -4.02972 -0.0299183 35.7013 -2.30432e-08 35.7013)
(37.323 -4.38302 -0.0330661 37.3231 4.32666e-05 37.323)
(37.3151 -4.38289 -0.0330655 37.3151 5.23012e-08 37.3151)
(38.9191 -4.75752 -0.0364897 38.9192 2.55576e-05 38.9191)
(38.9109 -4.75749 -0.0364899 38.9109 -1.04996e-08 38.9109)
(40.5007 -5.15559 -0.0401686 40.5007 4.34299e-05 40.5007)
(40.4923 -5.15566 -0.0401695 40.4923 7.68689e-08 40.4923)
(42.0708 -5.57018 -0.0440374 42.0709 1.60282e-05 42.0708)
(42.0622 -5.57033 -0.0440389 42.0622 2.1407e-09 42.0622)
(43.6323 -5.99362 -0.0480613 43.6323 4.75223e-05 43.6323)
(43.6234 -5.99385 -0.0480633 43.6234 -4.15499e-06 43.6234)
(45.1873 -6.42344 -0.0522489 45.1874 2.31901e-06 45.1873)
(45.1782 -6.42373 -0.0522513 45.1782 -8.58758e-08 45.1782)
(46.7383 -6.86063 -0.0566162 46.7383 6.03356e-05 46.7383)
(46.7288 -6.86096 -0.0566189 46.7288 -1.61647e-06 46.7289)
(48.287 -7.30542 -0.0611598 48.2871 -1.90209e-05 48.287)
(48.2774 -7.30576 -0.0611626 48.2774 -2.0071e-07 48.2774)
(49.8355 -7.75574 -0.0658587 49.8355 7.51109e-05 49.8355)
(49.8256 -7.75608 -0.0658615 49.8256 5.30665e-06 49.8256)
(51.3853 -8.20833 -0.0706889 51.3855 -3.90789e-05 51.3853)
(51.3751 -8.20866 -0.0706915 51.3751 -1.43099e-07 51.3752)
(52.9383 -8.66127 -0.0756491 52.9383 8.50939e-05 52.9383)
(52.9278 -8.66154 -0.0756512 52.9278 -5.88859e-08 52.9278)
(54.4957 -9.11788 -0.0808053 54.4959 -5.49653e-05 54.4957)
(54.485 -9.11808 -0.0808066 54.485 -4.16896e-08 54.485)
(56.0594 -9.59118 -0.0863293 56.0593 9.5859e-05 56.0594)
(56.0483 -9.59128 -0.0863296 56.0483 2.73651e-07 56.0483)
(57.6304 -10.1044 -0.092481 57.6306 -7.19524e-05 57.6304)
(57.6191 -10.1044 -0.0924799 57.6191 4.72355e-08 57.6191)
(59.2103 -10.6846 -0.0995232 59.2102 0.000108591 59.2103)
(59.1986 -10.6843 -0.0995204 59.1986 3.71893e-07 59.1986)
(60.7999 -11.3519 -0.107621 60.8002 -9.01392e-05 60.7999)
(60.7881 -11.3515 -0.107616 60.7881 3.48555e-08 60.7881)
(62.4008 -12.1119 -0.116784 62.4005 0.000125274 62.4008)
(62.3884 -12.1112 -0.116777 62.3884 -9.46467e-06 62.3884)
(64.0129 -12.9533 -0.126878 64.0132 -0.00011972 64.0129)
(64.0004 -12.9525 -0.126869 64.0004 -2.04885e-07 64.0004)
(65.6377 -13.8531 -0.137672 65.6374 0.000156862 65.6377)
(65.6247 -13.852 -0.13766 65.6247 -3.29915e-05 65.6247)
(67.2748 -14.7831 -0.148913 67.2753 -0.000196998 67.2748)
(67.2617 -14.7818 -0.1489 67.2617 -7.10472e-07 67.2617)
(68.9259 -15.7189 -0.160414 68.9254 0.000264468 68.9259)
(68.9121 -15.7174 -0.160399 68.9121 -1.47e-05 68.9121)
(70.59 -16.6491 -0.172159 70.5906 -0.000335302 70.59)
(70.5763 -16.6474 -0.172141 70.5763 -9.73279e-07 70.5763)
(72.2692 -17.586 -0.184426 72.2687 0.000423727 72.2692)
(72.2548 -17.5841 -0.184405 72.2548 1.19886e-05 72.2548)
(73.9626 -18.5738 -0.197872 73.9632 -0.000494038 73.9626)
(73.9481 -18.5716 -0.197848 73.9481 -8.51372e-07 73.9481)
(75.672 -19.6883 -0.213491 75.6714 0.000576348 75.672)
(75.6568 -19.6858 -0.213463 75.6568 2.85689e-05 75.6568)
(77.3961 -21.0214 -0.232372 77.3969 -0.000627925 77.3961)
(77.3809 -21.0184 -0.232339 77.3809 -4.73623e-07 77.3809)
(79.1364 -22.6522 -0.255345 79.1357 0.000684923 79.1364)
(79.1203 -22.6488 -0.255306 79.1203 1.31383e-05 79.1203)
(80.8898 -24.6178 -0.282685 80.8907 -0.000730102 80.8898)
(80.8739 -24.614 -0.282642 80.8739 -3.02758e-07 80.8739)
(82.6566 -26.8999 -0.314052 82.6558 0.000775478 82.6566)
(82.6397 -26.8958 -0.314003 82.6397 -6.97269e-06 82.6397)
(84.4316 -29.4322 -0.348629 84.4326 -0.000833203 84.4316)
(84.4149 -29.4278 -0.348578 84.4149 -4.19426e-07 84.4149)
(86.2136 -32.1257 -0.385487 86.2127 0.000887154 86.2136)
(86.1957 -32.1212 -0.385436 86.1957 -0.000153258 86.1957)
(87.9955 -34.8928 -0.423738 87.9965 -0.00110633 87.9955)
(87.9778 -34.8884 -0.423689 87.9778 -2.69449e-06 87.9778)
(89.775 -37.6379 -0.462135 89.774 0.00132717 89.775)
(89.7561 -37.634 -0.462091 89.7561 5.63733e-05 89.7561)
(91.5442 -40.2064 -0.498228 91.5453 -0.00151128 91.5442)
(91.5256 -40.2031 -0.498195 91.5256 -5.04284e-06 91.5256)
(93.3012 -42.3081 -0.527256 93.3002 0.0016475 93.3012)
(93.2813 -42.3061 -0.527241 93.2813 7.64404e-05 93.2813)
(95.0397 -43.4412 -0.54111 95.0407 -0.00180149 95.0397)
(95.0199 -43.4411 -0.541122 95.0199 -1.14622e-05 95.0199)
(96.7627 -42.8459 -0.527835 96.762 0.00182088 96.7627)
(96.7417 -42.8485 -0.527888 96.7417 -5.22988e-05 96.7417)
(98.4743 -39.5447 -0.472665 98.4753 -0.00204471 98.4743)
(98.4532 -39.551 -0.472773 98.4532 -2.11474e-05 98.4532)
(100.192 -32.4976 -0.360558 100.192 0.00201142 100.192)
(100.17 -32.5087 -0.360738 100.17 -6.96265e-05 100.17)
(101.939 -20.8592 -0.180258 101.94 -0.00235527 101.939)
(101.917 -20.8762 -0.180524 101.917 -2.2801e-05 101.917)
(103.746 -0.0264781 -0.000177084 103.746 0.00226294 103.746)
(103.722 -3.57661e-31 -3.73176e-21 103.722 -3.93156e-05 103.722)
(105.63 10.699 -0.0725947 105.631 -0.00271507 105.63)
(105.606 10.644 -0.0722213 105.606 -6.8574e-06 105.606)
(107.591 40.9958 -0.392635 107.591 0.00259897 107.591)
(107.565 40.9568 -0.392149 107.565 3.87108e-05 107.565)
(109.569 66.3096 -0.753673 109.568 -0.00306665 109.569)
(109.542 66.2629 -0.753071 109.542 2.00759e-05 109.542)
(111.461 90.155 -1.12247 111.461 0.00298757 111.461)
(111.433 90.1014 -1.12175 111.433 0.000108281 111.433)
(113.129 110.014 -1.46042 113.128 -0.00334837 113.129)
(113.101 109.955 -1.4596 113.101 3.76481e-05 113.101)
(114.427 123.912 -1.73147 114.428 0.00334509 114.427)
(114.399 123.849 -1.73057 114.399 9.36618e-05 114.399)
(115.237 130.779 -1.90948 115.235 -0.00351084 115.237)
(115.209 130.716 -1.90855 115.209 -0.000105048 115.209)
(115.489 130.574 -1.98259 115.491 0.00353432 115.489)
(115.463 130.514 -1.98166 115.463 -2.71e-05 115.463)
(115.184 124.146 -1.95387 115.183 -0.00357338 115.184)
(115.158 124.094 -1.95302 115.158 -5.68811e-05 115.158)
(114.372 112.912 -1.83826 114.374 0.00358934 114.372)
(114.349 112.874 -1.83755 114.349 -9.74843e-06 114.349)
(113.149 98.4812 -1.50769 113.147 -0.0035751 113.149)
(113.125 98.4624 -1.50752 113.125 -4.46386e-06 113.125)
(111.618 82.3518 -0.795441 111.62 0.00358132 111.618)
(111.598 82.3574 -0.795355 111.598 3.02384e-07 111.598)
(109.894 65.7284 -0.203437 109.892 -0.00356205 109.894)
(109.874 65.7615 -0.203414 109.874 -0.000219043 109.874)
(108.066 49.4736 0.263416 108.067 0.0013648 108.066)
(108.048 49.5302 0.263395 108.048 -8.27757e-20 108.048)
(106.214 34.1439 0.447398 106.212 -0.000158372 106.214)
(106.196 34.2133 0.448622 106.196 0.000290024 106.196)
(104.389 20.0616 0.226553 104.389 1.50991e-05 104.389)
(104.371 20.1355 0.227817 104.375 1.75343e-05 104.371)
(102.627 2.88252 0.0246404 102.626 -0.000108471 102.627)
(102.611 3.02873 0.0258902 102.611 2.09247e-05 102.611)
(100.945 -2.50496e-16 -2.53818e-16 100.945 1.32288e-05 100.945)
(100.927 -0.0206579 0.000179156 100.936 0.000101172 100.927)
(99.3469 -13.3963 0.156821 99.346 -7.18245e-05 99.3469)
(99.332 -13.3296 0.155613 99.332 1.9367e-05 99.332)
(97.8217 -21.5252 0.316544 97.8217 1.12436e-05 97.8217)
(97.806 -21.4641 0.315403 97.8116 6.89738e-05 97.806)
(96.3567 -28.2096 0.454179 96.3559 -4.72566e-05 96.3567)
(96.3433 -28.1568 0.45314 96.3433 1.61913e-05 96.3433)
(94.9328 -33.5449 0.220558 94.9328 9.12252e-06 94.9328)
(94.9195 -33.5044 0.220541 94.9228 4.78251e-05 94.9195)
(93.5321 -37.6588 -0.111326 93.5314 -3.29078e-05 93.5321)
(93.5208 -37.6353 -0.111321 93.5208 1.18797e-05 93.5208)
(92.1356 -40.7027 -0.482268 92.1356 6.57275e-06 92.1356)
(92.1251 -40.6963 -0.482242 92.1267 3.54866e-05 92.1251)
(90.7279 -42.8295 -0.843339 90.7273 -2.62599e-05 90.7279)
(90.719 -42.8362 -0.84357 90.719 -8.29781e-07 90.719)
(89.2945 -44.1744 -0.874999 89.2945 4.65762e-06 89.2945)
(89.2868 -44.1897 -0.87536 89.2872 2.64694e-05 89.2868)
(87.8251 -44.843 -0.894872 87.8246 -2.85421e-05 87.8251)
(87.8184 -44.863 -0.895296 87.8184 -2.36926e-23 87.8184)
(86.3106 -44.9044 -0.903422 86.3106 -5.56071e-06 86.3106)
(86.305 -44.9261 -0.90386 86.3051 2.80745e-05 86.305)
(84.746 -44.3912 -0.900445 84.7456 -3.2954e-05 84.746)
(84.7411 -44.4124 -0.900863 84.7411 -8.99576e-07 84.7411)
(83.128 -43.3065 -0.885234 83.128 -8.58498e-06 83.128)
(83.1239 -43.326 -0.885616 83.1243 2.33976e-05 83.1239)
(81.4575 -41.6369 -0.85687 81.4571 -3.31828e-05 81.4575)
(81.4539 -41.6542 -0.85721 81.4539 -4.58098e-06 81.4539)
(79.7373 -39.368 -0.814536 79.7373 -1.19506e-05 79.7373)
(79.7342 -39.3831 -0.814835 79.7345 1.2501e-05 79.7342)
(77.9745 -36.5003 -0.757893 77.9742 -3.30867e-05 77.9745)
(77.9718 -36.5134 -0.758156 77.9718 -1.29573e-05 77.9718)
(76.1785 -33.0645 -0.687416 76.1785 -1.36963e-05 76.1785)
(76.1762 -33.0758 -0.687647 76.1764 5.06195e-06 76.1762)
(74.3618 -29.1313 -0.604587 74.3616 -3.0696e-05 74.3618)
(74.3598 -29.1411 -0.604793 74.3598 -1.32932e-05 74.3598)
(72.5381 -24.8119 -0.51188 72.5381 -1.23902e-05 72.5381)
(72.5362 -24.8206 -0.512064 72.5365 4.17947e-06 72.5362)
(70.7219 -20.2535 -0.412676 70.7217 -2.53258e-05 70.7219)
(70.7202 -20.2611 -0.412841 70.7202 -1.03581e-05 70.7202)
(68.9265 -15.6303 -0.311107 68.9265 -8.07332e-06 68.9265)
(68.925 -15.6371 -0.311254 68.9252 6.55659e-06 68.925)
(67.164 -11.1286 -0.211556 67.1638 -1.81594e-05 67.164)
(67.1626 -11.1345 -0.211685 67.1626 -5.19977e-06 67.1626)
(65.4428 -6.9274 -0.118327 65.4428 -5.71642e-08 65.4428)
(65.4416 -6.93244 -0.118439 65.4417 1.28219e-05 65.4416)
(63.7691 -2.92118 -0.0353105 63.7689 -1.1327e-05 63.7691)
(63.7679 -2.92888 -0.0354036 63.7679 2.45313e-08 63.7679)
(62.1455 6.92932e-14 -4.1955e-20 62.1455 9.68273e-08 62.1455)
(62.1444 -0.00194959 -2.39088e-05 62.1446 1.11054e-05 62.1444)
(60.5727 2.45708 -0.0343028 60.5725 -6.54275e-06 60.5727)
(60.5717 2.45448 -0.0342286 60.5717 3.4871e-06 60.5717)
(59.0493 4.2259 -0.0882447 59.0493 4.18867e-06 59.0493)
(59.0484 4.2241 -0.0881897 59.0485 1.37201e-05 59.0484)
(57.574 5.27313 -0.125235 57.5739 -4.34423e-06 57.574)
(57.5731 5.27212 -0.1252 57.5731 4.55358e-06 57.5731)
(56.1449 5.62745 -0.144864 56.1449 4.31146e-06 56.1449)
(56.1441 5.62718 -0.144848 56.1442 1.25219e-05 56.1441)
(54.7614 5.34334 -0.147474 54.7613 -3.91889e-06 54.7614)
(54.7606 5.34376 -0.147477 54.7606 3.95478e-06 54.7606)
(53.423 4.49419 -0.134057 53.423 3.3031e-06 53.423)
(53.4223 4.49522 -0.134077 53.4224 1.04371e-05 53.4223)
(52.1305 3.16494 -0.106085 52.1304 -4.19866e-06 52.1305)
(52.1298 3.1665 -0.106121 52.1298 2.72435e-06 52.1298)
(50.8844 1.01484 -0.0653601 50.8844 2.01334e-06 50.8844)
(50.8839 1.01912 -0.0654089 50.8839 8.24821e-06 50.8839)
(49.6858 -0.00155037 -0.0457778 49.6858 -4.67344e-06 49.6858)
(49.6853 -5.60898e-14 -0.0457127 49.6853 1.39364e-06 49.6853)
(48.5345 -2.7634 -0.111296 48.5345 2.32019e-07 48.5345)
(48.534 -2.76106 -0.111229 48.5341 5.73499e-06 48.534)
(47.4294 -5.05419 -0.179748 47.4293 -5.59785e-06 47.4294)
(47.4289 -5.05189 -0.179683 47.4289 -2.43702e-07 47.4289)
(46.3676 -7.32746 -0.248048 46.3676 -1.3042e-06 46.3676)
(46.3672 -7.32532 -0.247989 46.3673 3.45185e-06 46.3672)
(45.3452 -9.4735 -0.312834 45.3451 -7.29792e-06 45.3452)
(45.3448 -9.47166 -0.312785 45.3448 -2.53088e-06 45.3448)
(44.3563 -11.3815 -0.370587 44.3563 -3.92357e-06 44.3563)
(44.356 -11.3801 -0.37055 44.356 1.95712e-07 44.356)
(43.3944 -12.945 -0.417815 43.3944 -9.43401e-06 43.3944)
(43.3942 -12.944 -0.417792 43.3942 -5.25291e-06 43.3942)
(42.4527 -14.0676 -0.451242 42.4527 -6.70024e-06 42.4527)
(42.4525 -14.0671 -0.451235 42.4526 -3.09421e-06 42.4525)
(41.5252 -14.6707 -0.468102 41.5251 -1.17895e-05 41.5252)
(41.525 -14.6707 -0.468109 41.525 -8.09179e-06 41.525)
(40.6073 -14.7014 -0.46643 40.6073 -9.547e-06 40.6073)
(40.6072 -14.7019 -0.466452 40.6072 -6.35336e-06 40.6072)
(39.6972 -14.1397 -0.445339 39.6972 -1.43894e-05 39.6972)
(39.6971 -14.1405 -0.445372 39.6971 -1.10954e-05 39.6971)
(38.7956 -13.0024 -0.405152 38.7956 -1.29238e-05 38.7956)
(38.7956 -13.0036 -0.405195 38.7956 -1.0138e-05 38.7956)
(37.906 -11.3449 -0.347539 37.9059 -1.81837e-05 37.906)
(37.9059 -11.3463 -0.347589 37.9059 -1.51788e-05 37.9059)
(37.0337 -9.25776 -0.275396 37.0337 -1.80655e-05 37.0337)
(37.0337 -9.25932 -0.275451 37.0338 -1.57306e-05 37.0337)
(36.1854 -6.86031 -0.192663 36.1854 -2.45057e-05 36.1854)
(36.1854 -6.86194 -0.19272 36.1854 -2.16711e-05 36.1854)
(35.3673 -4.29044 -0.103981 35.3673 -2.60806e-05 35.3673)
(35.3673 -4.29207 -0.104037 35.3673 -2.41984e-05 35.3673)
(34.5841 -0.809637 -0.0142444 34.5841 -3.38082e-05 34.5841)
(34.5841 -0.8127 -0.0142983 34.5841 -3.10912e-05 34.5841)
(33.8391 0.00150317 -2.68307e-05 33.8391 -3.65257e-05 33.8391)
(33.8391 6.3975e-14 -1.03813e-15 33.8391 -3.49515e-05 33.8391)
(33.1322 3.05453 -0.0719643 33.1322 -4.43856e-05 33.1322)
(33.1322 3.05324 -0.0719146 33.1322 -4.18613e-05 33.1322)
(32.4614 4.98938 -0.15035 32.4614 -4.65137e-05 32.4614)
(32.4614 4.98828 -0.150306 32.4614 -4.49584e-05 32.4614)
(31.8232 6.54079 -0.217597 31.8232 -5.19067e-05 31.8232)
(31.8232 6.5399 -0.21756 31.8232 -4.98339e-05 31.8232)
(31.2135 7.6847 -0.271549 31.2135 -5.11081e-05 31.2135)
(31.2135 7.68402 -0.271519 31.2136 -4.92585e-05 31.2135)
(30.6283 8.43256 -0.311369 30.6283 -5.09466e-05 30.6283)
(30.6283 8.43208 -0.311347 30.6283 -4.96169e-05 30.6283)
(30.0643 8.82582 -0.337498 30.0643 -4.5001e-05 30.0643)
(30.0643 8.82551 -0.337483 30.0643 -4.25545e-05 30.0643)
(29.5192 8.92798 -0.35146 29.5192 -3.76798e-05 29.5192)
(29.5192 8.92782 -0.351451 29.5192 -3.69274e-05 29.5192)
(28.9919 8.81606 -0.355594 28.9919 -2.63781e-05 28.9919)
(28.9919 8.816 -0.35559 28.9919 -2.3373e-05 28.9919)
(28.482 8.57135 -0.352767 28.482 -1.25937e-05 28.482)
(28.482 8.57135 -0.352767 28.482 -1.17429e-05 28.482)
(27.99 8.26993 -0.345998 27.99 6.93116e-07 27.99)
(27.99 8.26997 -0.345999 27.99 3.20407e-06 27.99)
(27.5162 7.97559 -0.338081 27.5162 1.59791e-05 27.5162)
(27.5162 7.97561 -0.338083 27.5162 1.69485e-05 27.5162)
(27.0613 7.73584 -0.331354 27.0613 2.94062e-05 27.0613)
(27.0613 7.73583 -0.331354 27.0613 3.21899e-05 27.0613)
(26.6256 7.58018 -0.327533 26.6256 4.00703e-05 26.6256)
(26.6256 7.58012 -0.327531 26.6256 4.1186e-05 26.6256)
(26.2091 7.52013 -0.327634 26.2091 4.88953e-05 26.2091)
(26.2091 7.52001 -0.32763 26.2091 5.0791e-05 26.2091)
(25.8116 7.55104 -0.331951 25.8116 5.20582e-05 25.8116)
(25.8116 7.55086 -0.331944 25.8116 5.36832e-05 25.8116)
(25.4324 7.65557 -0.34013 25.4324 5.50389e-05 25.4324)
(25.4323 7.65534 -0.340121 25.4323 5.59597e-05 25.4323)
(25.0705 7.80751 -0.351307 25.0705 5.07358e-05 25.0705)
(25.0704 7.80724 -0.351295 25.0704 5.33246e-05 25.0704)
(24.7248 7.97595 -0.364236 24.7248 4.91367e-05 24.7248)
(24.7247 7.97567 -0.364223 24.7247 4.93708e-05 24.7247)
(24.3941 8.12987 -0.377483 24.394 4.01155e-05 24.3941)
(24.394 8.12959 -0.37747 24.394 4.33435e-05 24.394)
(24.077 8.2414 -0.389633 24.077 3.66934e-05 24.077)
(24.077 8.24114 -0.38962 24.077 3.67414e-05 24.077)
(23.7727 8.28822 -0.399389 23.7727 2.6374e-05 23.7727)
(23.7726 8.288 -0.399377 23.7726 2.99022e-05 23.7726)
(23.4803 8.25566 -0.405714 23.4803 2.34987e-05 23.4803)
(23.4801 8.25548 -0.405704 23.4802 1.82181e-05 23.4801)
(23.1994 8.13756 -0.40794 23.1994 1.42131e-05 23.1994)
(23.1992 8.13744 -0.407932 23.1992 4.3052e-06 23.1992)
(22.93 7.93577 -0.405788 22.93 1.31577e-05 22.93)
(22.9299 7.9357 -0.405784 22.9299 -2.32087e-07 22.9299)
(22.6727 7.65943 -0.399356 22.6727 5.5799e-06 22.6727)
(22.6726 7.65943 -0.399354 22.6726 -8.25917e-07 22.6726)
(22.4283 7.32405 -0.389117 22.4283 5.09641e-06 22.4283)
(22.4281 7.32409 -0.389118 22.4281 1.40919e-07 22.4281)
(22.1977 6.94957 -0.375872 22.1977 -3.59581e-06 22.1977)
(22.1975 6.94965 -0.375875 22.1975 -8.11716e-07 22.1975)
(21.9822 6.55863 -0.36065 21.9822 -5.49102e-07 21.9822)
(21.9819 6.55873 -0.360655 21.982 4.36735e-07 21.9819)
(21.7831 6.17531 -0.344657 21.7831 -5.51764e-06 21.7831)
(21.7828 6.17541 -0.344662 21.7828 -7.88897e-07 21.7828)
(21.6014 5.82391 -0.329212 21.6014 -5.44204e-07 21.6014)
(21.6011 5.82399 -0.329217 21.6011 6.5643e-07 21.6011)
(21.4384 5.5279 -0.315699 21.4384 -6.49202e-06 21.4384)
(21.438 5.52792 -0.315702 21.438 -7.58199e-07 21.438)
(21.2946 5.30919 -0.305501 21.2946 -8.85453e-07 21.2946)
(21.2942 5.30914 -0.305501 21.2942 8.17316e-07 21.2942)
(21.1706 5.1873 -0.299985 21.1706 -7.41096e-06 21.1706)
(21.1702 5.18715 -0.299979 21.1702 -6.97483e-07 21.1702)
(21.0667 5.17889 -0.30041 21.0667 -8.46695e-07 21.0667)
(21.0662 5.17862 -0.300398 21.0662 9.76526e-07 21.0662)
(20.9827 5.29784 -0.307953 20.9827 -7.82232e-06 20.9827)
(20.9821 5.29742 -0.307932 20.9821 -6.73041e-07 20.9821)
(20.918 5.55371 -0.323667 20.918 -5.45505e-07 20.918)
(20.9173 5.5531 -0.323636 20.9173 1.17489e-06 20.9173)
(20.8716 5.9505 -0.348319 20.8716 -7.84297e-06 20.8716)
(20.8709 5.94966 -0.348275 20.8709 -5.69414e-07 20.8709)
(20.842 6.48607 -0.382363 20.842 -5.43004e-07 20.842)
(20.8413 6.48498 -0.382303 20.8413 1.27764e-06 20.8413)
(20.8271 7.15096 -0.425846 20.8271 -7.67183e-06 20.8271)
(20.8263 7.14954 -0.425768 20.8263 -4.68779e-07 20.8263)
(20.8241 7.92713 -0.478294 20.8241 -5.36349e-07 20.8241)
(20.8231 7.92532 -0.478193 20.8232 1.35382e-06 20.8231)
(20.8292 8.78745 -0.538603 20.8292 -7.40046e-06 20.8292)
(20.8282 8.78513 -0.538471 20.8282 -3.87306e-07 20.8282)
(20.8381 9.69579 -0.604992 20.8381 -5.25403e-07 20.8381)
(20.837 9.69274 -0.60482 20.837 1.39232e-06 20.837)
(20.8456 10.6072 -0.674977 20.8456 -7.12722e-06 20.8456)
(20.8444 10.6031 -0.674746 20.8444 -3.40323e-07 20.8444)
(20.8461 11.4695 -0.745336 20.8461 -5.1055e-07 20.8461)
(20.8449 11.4637 -0.745014 20.8449 1.38455e-06 20.8449)
(20.8338 12.2256 -0.812275 20.8338 -6.92621e-06 20.8338)
(20.8326 12.2173 -0.81181 20.8326 -3.37877e-07 20.8326)
(20.8032 12.8167 -0.871508 20.8032 -4.90002e-07 20.8032)
(20.802 12.8048 -0.870824 20.802 1.33046e-06 20.802)
(20.7496 13.1857 -0.918544 20.7496 -6.787e-06 20.7496)
(20.7485 13.1702 -0.917568 20.7485 -3.80555e-07 20.7485)
(20.6698 13.2811 -0.630952 20.6698 -4.61327e-07 20.6698)
(20.6688 13.2651 -0.630907 20.6688 1.24649e-06 20.6688)
(20.5627 13.06 -0.159513 20.5626 -6.70035e-06 20.5627)
(20.562 13.0537 -0.159473 20.562 -4.48936e-07 20.562)
(20.4296 12.4991 0.310493 20.4296 -4.78095e-07 20.4296)
(20.4294 12.509 0.310529 20.4294 1.23494e-06 20.4294)
(20.2744 11.5978 0.765354 20.2744 -6.81621e-06 20.2744)
(20.2744 11.616 0.765384 20.2744 -3.54169e-07 20.2744)
(20.1029 10.3665 0.732627 20.1029 -6.02967e-07 20.1029)
(20.1031 10.3833 0.733732 20.1031 1.38728e-06 20.1031)
(19.923 8.82925 0.613951 19.923 -7.02182e-06 19.923)
(19.9232 8.84158 0.614724 19.9232 -1.897e-07 19.9232)
(19.7435 7.02879 0.473071 19.7435 -7.00105e-07 19.7435)
(19.7437 7.03727 0.473609 19.7438 1.61429e-06 19.7437)
(19.5733 5.02107 0.313945 19.5733 -7.28634e-06 19.5733)
(19.5735 5.02705 0.314345 19.5735 3.13239e-08 19.5735)
(19.4199 2.87215 0.141678 19.4199 -7.55804e-07 19.4199)
(19.42 2.87674 0.142009 19.42 1.91236e-06 19.42)
(19.2887 -7.01427e-20 -3.29309e-22 19.2887 -7.58961e-06 19.2887)
(19.2888 0.00361435 0.0001469 19.2888 2.85963e-07 19.2888)
(19.1825 -0.935569 0.0385777 19.1825 -7.68013e-07 19.1825)
(19.1825 -0.928018 0.0382664 19.1825 2.24226e-06 19.1825)
(19.1009 -3.69347 0.222403 19.1009 -7.89247e-06 19.1009)
(19.1008 -3.68923 0.222076 19.1008 5.2904e-07 19.1008)
(19.0397 -5.68353 0.401988 19.0397 -7.46341e-07 19.0397)
(19.0395 -5.67817 0.401599 19.0395 2.5453e-06 19.0395)
(18.9926 -7.46802 0.571439 18.9926 -8.09601e-06 18.9926)
(18.9924 -7.4604 0.57091 18.9924 6.97673e-07 18.9924)
(18.9516 -8.99793 0.725268 18.9516 -6.98903e-07 18.9516)
(18.9514 -8.98651 0.724472 18.9514 2.77969e-06 18.9514)
(18.9082 -10.239 0.858909 18.9082 -8.23564e-06 18.9082)
(18.908 -10.223 0.857691 18.908 7.5908e-07 18.908)
(18.8542 -11.1689 0.724545 18.8542 -5.9577e-07 18.8542)
(18.8541 -11.1521 0.724491 18.8542 2.93581e-06 18.8541)
(18.7826 -11.7764 0.207198 18.7826 -8.25904e-06 18.7826)
(18.7829 -11.7724 0.20713 18.7829 7.23204e-07 18.7829)
(18.6886 -12.0765 -0.345029 18.6886 -5.94835e-07 18.6886)
(18.6891 -12.0891 -0.345098 18.6891 3.13824e-06 18.6891)
(18.5691 -12.099 -0.918585 18.5691 -8.49524e-06 18.5691)
(18.5699 -12.1157 -0.918652 18.5699 8.6002e-07 18.5699)
(18.423 -11.8736 -1.11772 18.423 -9.8475e-07 18.423)
(18.4239 -11.8864 -1.1187 18.4239 3.55218e-06 18.4239)
(18.2512 -11.4357 -1.08253 18.2512 -8.86052e-06 18.2512)
(18.2521 -11.4441 -1.08315 18.2521 1.04478e-06 18.2521)
(18.0563 -10.8252 -1.03103 18.0563 -1.69669e-06 18.0563)
(18.0572 -10.8304 -1.03143 18.0572 4.03387e-06 18.0572)
(17.8422 -10.0838 -0.96679 17.8422 -9.28195e-06 17.8422)
(17.843 -10.0872 -0.967067 17.843 1.26782e-06 17.843)
(17.6134 -9.25205 -0.893143 17.6134 -2.39235e-06 17.6134)
(17.6141 -9.25444 -0.893347 17.6141 4.59564e-06 17.6141)
(17.3749 -8.36514 -0.813062 17.3749 -9.7715e-06 17.3749)
(17.3755 -8.36691 -0.813219 17.3755 1.52969e-06 17.3755)
(17.1317 -7.45342 -0.729283 17.1317 -3.03973e-06 17.1317)
(17.1322 -7.45478 -0.729408 17.1322 5.26984e-06 17.1322)
(16.8884 -6.5415 -0.64393 16.8884 -1.29497e-05 16.8884)
(16.8889 -6.54257 -0.644032 16.8889 1.80285e-06 16.8889)
(16.6494 -5.6466 -0.558468 16.6494 -1.07209e-05 16.6494)
(16.6498 -5.64747 -0.558552 16.6499 6.03939e-06 16.6498)
(16.4185 -4.77935 -0.473803 16.4185 -2.06312e-05 16.4185)
(16.4189 -4.78006 -0.473873 16.4189 2.10304e-06 16.4189)
(16.1989 -3.94403 -0.390139 16.1989 -1.48778e-05 16.1989)
(16.1992 -3.94463 -0.3902 16.1992 6.89232e-06 16.1992)
(15.9933 -3.13865 -0.307044 15.9933 -2.32654e-05 15.9933)
(15.9936 -3.13916 -0.307097 15.9936 2.40495e-06 15.9936)
(15.8038 -2.35571 -0.223453 15.8038 -1.68189e-05 15.8038)
(15.804 -2.35616 -0.223502 15.804 7.84531e-06 15.804)
(15.632 -1.58307 -0.137778 15.632 -2.50118e-05 15.632)
(15.6322 -1.58348 -0.137824 15.6322 -2.82148e-06 15.6322)
(15.4792 -0.805218 -0.0480127 15.4792 -1.75164e-05 15.4792)
(15.4793 -0.805613 -0.0480584 15.4794 -3.42804e-06 15.4793)
(15.3461 -0.00198204 -0.00011725 15.3461 -2.55144e-05 15.3461)
(15.3462 -0.00198835 -0.000117624 15.3462 -1.00215e-05 15.3462)
(15.233 0.806834 -0.0484233 15.233 -1.69168e-05 15.233)
(15.233 0.806039 -0.0483756 15.233 -2.48044e-06 15.233)
(15.1394 1.71879 -0.153706 15.1394 -2.49803e-05 15.1394)
(15.1394 1.71835 -0.153654 15.1394 -8.27058e-06 15.1394)
(15.0645 2.66362 -0.268963 15.0645 -1.53829e-05 15.0645)
(15.0645 2.66313 -0.268906 15.0645 5.57822e-07 15.0645)
(15.0064 3.66554 -0.395024 15.0064 -2.4192e-05 15.0064)
(15.0063 3.66499 -0.39496 15.0063 -6.0911e-06 15.0063)
(14.9624 4.71499 -0.531667 14.9624 -1.37418e-05 14.9624)
(14.9622 4.71437 -0.531593 14.9623 3.84188e-06 14.9622)
(14.9285 5.79236 -0.677374 14.9285 -2.40661e-05 14.9285)
(14.9283 5.79163 -0.677287 14.9283 -4.39674e-06 14.9283)
(14.8998 6.86747 -0.829159 14.8998 -1.30123e-05 14.8998)
(14.8996 6.86662 -0.829056 14.8996 6.35626e-06 14.8996)
(14.8703 7.90065 -0.982428 14.8703 -2.55357e-05 14.8703)
(14.8701 7.89963 -0.982305 14.8701 -4.12881e-06 14.8701)
(14.8332 8.84445 -1.13119 14.8332 -1.36952e-05 14.8332)
(14.8329 8.84321 -1.13104 14.833 7.59175e-06 14.8329)
(14.7814 9.64674 -1.26816 14.7814 -2.87911e-05 14.7814)
(14.781 9.64516 -1.26797 14.781 -5.49858e-06 14.781)
(14.7079 10.255 -1.38535 14.7079 -1.55695e-05 14.7079)
(14.7075 10.2528 -1.3851 14.7075 7.74881e-06 14.7075)
(14.6069 10.6201 -1.47459 14.6069 -3.32247e-05 14.6069)
(14.6064 10.617 -1.47425 14.6064 -7.9285e-06 14.6064)
(14.4741 10.7018 -1.5281 14.4741 -1.78439e-05 14.4741)
(14.4736 10.6967 -1.52756 14.4737 7.59469e-06 14.4736)
(14.3077 10.4728 -1.53944 14.3077 -3.76726e-05 14.3077)
(14.3073 10.4644 -1.53852 14.3073 -1.02804e-05 14.3073)
(14.1087 9.92146 -0.921725 14.1087 -1.92438e-05 14.1087)
(14.1083 9.91014 -0.921564 14.1083 8.39245e-06 14.1083)
(13.8814 9.05216 -0.218132 13.8814 -4.0941e-05 13.8814)
(13.8811 9.04671 -0.21791 13.8811 -1.13629e-05 13.8811)
(13.6324 7.893 0.42335 13.6324 -1.88368e-05 13.6324)
(13.6323 7.9014 0.423573 13.6324 1.12931e-05 13.6323)
(13.3697 6.50007 0.886816 13.3697 -4.26229e-05 13.3697)
(13.3697 6.51359 0.88861 13.3697 -1.04846e-05 13.3697)
(13.1014 4.93667 0.644163 13.1014 -1.61436e-05 13.1014)
(13.1015 4.9457 0.645164 13.1015 1.64762e-05 13.1015)
(12.8358 3.2718 0.384283 12.8358 -4.30938e-05 12.8358)
(12.8359 3.27683 0.384861 12.8359 -8.52933e-06 12.8359)
(12.5795 1.49926 0.120099 12.5795 -1.19271e-05 12.5795)
(12.5795 1.50436 0.120507 12.5795 2.32894e-05 12.5795)
(12.3365 -6.48691e-05 5.27193e-06 12.3365 -4.34776e-05 12.3365)
(12.3365 -3.46945e-15 6.94345e-31 12.3365 -6.22968e-06 12.3365)
(12.1079 -1.52082 0.135785 12.1079 -7.51812e-06 12.1079)
(12.1079 -1.51857 0.135426 12.1079 3.05861e-05 12.1079)
(11.8924 -2.79294 0.369903 11.8924 -4.50325e-05 11.8924)
(11.8924 -2.79021 0.369517 11.8924 -4.76658e-06 11.8924)
(11.6868 -3.80098 0.570049 11.6868 -4.60777e-06 11.6868)
(11.6868 -3.7968 0.569518 11.6868 3.70748e-05 11.6868)
(11.4872 -4.50905 0.726682 11.4872 -4.88488e-05 11.4872)
(11.4871 -4.50233 0.725787 11.4871 -4.36994e-06 11.4871)
(11.2898 -4.90077 0.776344 11.2898 -4.30684e-06 11.2898)
(11.2898 -4.89273 0.776156 11.2898 4.27127e-05 11.2898)
(11.0921 -4.98057 0.339601 11.0921 -5.47843e-05 11.0921)
(11.0921 -4.97785 0.33933 11.0921 -4.74478e-06 11.0921)
(10.8933 -4.7793 -0.100918 10.8933 -5.15076e-06 10.8933)
(10.8934 -4.78477 -0.101179 10.8934 4.79827e-05 10.8934)
(10.6942 -4.34757 -0.521554 10.6942 -6.23803e-05 10.6942)
(10.6943 -4.35517 -0.521739 10.6943 -5.62812e-06 10.6943)
(10.4965 -3.74396 -0.632379 10.4965 -6.36445e-06 10.4965)
(10.4966 -3.74935 -0.633144 10.4966 5.39134e-05 10.4966)
(10.3024 -3.03277 -0.500477 10.3024 -7.09916e-05 10.3024)
(10.3025 -3.03607 -0.500943 10.3025 -6.71296e-06 10.3025)
(10.1148 -2.27943 -0.362721 10.1148 -7.09908e-06 10.1148)
(10.1149 -2.28146 -0.363021 10.1149 6.1168e-05 10.1149)
(9.93585 -1.54479 -0.23014 9.93584 -8.01286e-05 9.93585)
(9.93592 -1.5461 -0.230345 9.93592 -7.20141e-06 9.93592)
(9.76711 -0.881142 -0.112306 9.76711 -7.40432e-06 9.76711)
(9.76716 -0.882039 -0.11245 9.76719 7.01586e-05 9.76716)
(9.60947 -0.165035 -0.0164165 9.60946 -9.04279e-05 9.60948)
(9.60952 -0.166041 -0.0165166 9.60952 -7.39237e-06 9.60952)
(9.46328 0.000175698 -1.77314e-05 9.46328 -7.4765e-06 9.46328)
(9.4633 2.65129e-15 7.60762e-21 9.46334 8.10016e-05 9.4633)
(9.3284 0.357382 -0.0534396 9.32839 -0.000102405 9.32841)
(9.32843 0.357155 -0.0533761 9.32843 -7.54848e-06 9.32843)
(9.20462 0.480698 -0.0944144 9.20462 -7.71217e-06 9.20462)
(9.20463 0.480633 -0.094385 9.20467 9.35489e-05 9.20463)
(9.09172 0.470642 -0.106838 9.09171 -0.00011669 9.09172)
(9.09174 0.47072 -0.106841 9.09174 -8.04117e-06 9.09174)
(8.98954 0.346199 -0.0927699 8.98954 -8.49844e-06 8.98954)
(8.98954 0.346397 -0.0928011 8.98959 0.000107689 8.98954)
(8.898 0.012786 -0.0558573 8.89799 -0.000133802 8.898)
(8.89801 0.0134079 -0.0559114 8.89801 -8.91458e-06 8.89801)
(8.81701 -0.00515516 -0.0640199 8.81701 -9.45769e-06 8.81701)
(8.817 -0.00439037 -0.0639479 8.81705 0.000124271 8.817)
(8.7464 -0.449438 -0.136139 8.74639 -0.000153936 8.7464)
(8.7464 -0.449124 -0.136072 8.7464 -9.99393e-06 8.7464)
(8.68585 -0.768657 -0.210268 8.68585 -1.0574e-05 8.68585)
(8.68584 -0.768385 -0.210213 8.68589 0.000143645 8.68584)
(8.63495 -1.07818 -0.282011 8.63493 -0.00017721 8.63495)
(8.63495 -1.07798 -0.281973 8.63495 -1.09174e-05 8.63495)