/*--------------------------------*- C++ -*----------------------------------*\
| =========                 |                                                 |
| \\      /  F ield         | OpenFOAM: The Open Source CFD Toolbox           |
|  \\    /   O peration     | Version:  2012                                  |
|   \\  /    A nd           | Website:  www.openfoam.com                      |
|    \\/     M anipulation  |                                                 |
\*---------------------------------------------------------------------------*/
FoamFile
{
    version     2.0;
    format      ascii;
    class       surfaceScalarField;
    location    "10000";
    object      phi;
}
// * * * * * * * * * * * * * * * * * * * * * * * * * * * * * * * * * * * * * //

dimensions      [0 3 -1 0 0 0 0];
oriented        oriented;


internalField   nonuniform List<scalar> 
5116
(
2.53966e-08
-8.87278e-18
-1.05884e-21
-1.75828e-21
-1.84245e-22
7.76653e-08
-8.85954e-18
-4.89169e-21
-8.97184e-21
-1.14282e-21
1.32207e-07
-8.84589e-18
-5.05406e-21
-1.63759e-20
-1.1933e-21
1.89099e-07
-8.83181e-18
-5.22377e-21
-2.39831e-20
-1.24596e-21
2.4842e-07
-8.81736e-18
-5.39851e-21
-3.17444e-20
-1.30089e-21
3.10253e-07
-8.80233e-18
-5.57856e-21
-3.98155e-20
-1.35818e-21
3.74682e-07
-8.78682e-18
-5.76509e-21
-4.81309e-20
-1.41792e-21
4.41794e-07
-8.77072e-18
-5.95844e-21
-5.67343e-20
-1.48021e-21
5.11678e-07
-8.75421e-18
-6.15874e-21
-6.56146e-20
-1.54514e-21
5.84425e-07
-8.73704e-18
-6.36613e-21
-7.47859e-20
-1.6128e-21
6.60128e-07
-8.71949e-18
-6.58078e-21
-8.41287e-20
-1.68328e-21
7.38883e-07
-8.70134e-18
-6.80283e-21
-9.37057e-20
-1.75666e-21
8.20784e-07
-8.68263e-18
-7.03233e-21
-1.03593e-19
-1.83299e-21
9.05928e-07
-8.66317e-18
-7.2693e-21
-1.13761e-19
-1.91233e-21
9.94411e-07
-8.64301e-18
-7.51364e-21
-1.2457e-19
-1.99467e-21
1.08633e-06
-8.62238e-18
-7.76513e-21
-1.35432e-19
-2.08e-21
1.18176e-06
-8.60108e-18
-8.02339e-21
-1.46787e-19
-2.16826e-21
1.28081e-06
-8.57907e-18
-8.28787e-21
-1.5797e-19
-2.25931e-21
1.38355e-06
-8.55684e-18
-8.5578e-21
-1.69417e-19
-2.35298e-21
1.49005e-06
-8.53354e-18
-8.83214e-21
-1.81658e-19
-2.44902e-21
1.60037e-06
-8.50933e-18
-9.10964e-21
-1.943e-19
-2.54709e-21
1.71455e-06
-8.48461e-18
-9.38872e-21
-2.06916e-19
-2.64675e-21
1.83263e-06
-8.45978e-18
-9.66756e-21
-2.20047e-19
-2.74751e-21
1.95462e-06
-8.43347e-18
-9.94406e-21
-2.33795e-19
-2.84875e-21
2.08051e-06
-8.40614e-18
-1.02159e-20
-2.47553e-19
-2.94979e-21
2.21026e-06
-8.37849e-18
-1.04807e-20
-2.6113e-19
-3.0499e-21
2.34383e-06
-8.3507e-18
-1.07358e-20
-2.75558e-19
-3.1483e-21
2.48114e-06
-8.32211e-18
-1.09788e-20
-2.89804e-19
-3.24418e-21
2.62209e-06
-8.29346e-18
-1.12071e-20
-3.04136e-19
-3.33679e-21
2.76657e-06
-8.2631e-18
-1.14187e-20
-3.20065e-19
-3.42542e-21
2.91443e-06
-8.23155e-18
-1.16118e-20
-3.35829e-19
-3.50938e-21
3.06554e-06
-8.20003e-18
-1.17849e-20
-3.51679e-19
-3.5882e-21
3.21974e-06
-8.16837e-18
-1.19369e-20
-3.67494e-19
-3.66147e-21
3.37687e-06
-8.13665e-18
-1.20676e-20
-3.8308e-19
-3.72895e-21
3.53678e-06
-8.10387e-18
-1.21767e-20
-3.99864e-19
-3.79055e-21
3.69931e-06
-8.072e-18
-1.22649e-20
-4.15089e-19
-3.84631e-21
3.86431e-06
-8.04064e-18
-1.23329e-20
-4.29427e-19
-3.89641e-21
4.03166e-06
-8.00878e-18
-1.23819e-20
-4.45365e-19
-3.94115e-21
4.20124e-06
-7.97619e-18
-1.24134e-20
-4.60724e-19
-3.98084e-21
4.37294e-06
-7.94317e-18
-1.24288e-20
-4.76988e-19
-4.01595e-21
4.54669e-06
-7.91082e-18
-1.243e-20
-4.92819e-19
-4.04688e-21
4.7224e-06
-7.88043e-18
-1.24185e-20
-5.07321e-19
-4.07409e-21
4.90004e-06
-7.84835e-18
-1.23959e-20
-5.23184e-19
-4.09807e-21
5.07955e-06
-7.81656e-18
-1.23638e-20
-5.38294e-19
-4.11922e-21
5.26092e-06
-7.78465e-18
-1.23237e-20
-5.53454e-19
-4.13808e-21
5.44414e-06
-7.75304e-18
-1.2277e-20
-5.68455e-19
-4.155e-21
5.62922e-06
-7.72247e-18
-1.22249e-20
-5.83876e-19
-4.1704e-21
5.81616e-06
-7.69103e-18
-1.21683e-20
-5.98342e-19
-4.18458e-21
6.00499e-06
-7.66052e-18
-1.21083e-20
-6.13219e-19
-4.19786e-21
6.19574e-06
-7.62897e-18
-1.20457e-20
-6.28358e-19
-4.2105e-21
6.38845e-06
-7.59803e-18
-1.19812e-20
-6.42704e-19
-4.22272e-21
6.58317e-06
-7.56576e-18
-1.19154e-20
-6.58301e-19
-4.23475e-21
6.77994e-06
-7.53442e-18
-1.18488e-20
-6.72048e-19
-4.24672e-21
6.97883e-06
-7.50414e-18
-1.17817e-20
-6.86479e-19
-4.25882e-21
7.17989e-06
-7.47418e-18
-1.17145e-20
-7.00325e-19
-4.27115e-21
7.38319e-06
-7.44473e-18
-1.16474e-20
-7.15042e-19
-4.28382e-21
7.58878e-06
-7.41575e-18
-1.15805e-20
-7.28661e-19
-4.29686e-21
7.79674e-06
-7.38717e-18
-1.15141e-20
-7.42227e-19
-4.31039e-21
8.00714e-06
-7.35813e-18
-1.14482e-20
-7.56665e-19
-4.32441e-21
8.22005e-06
-7.32908e-18
-1.13828e-20
-7.70045e-19
-4.33891e-21
8.43554e-06
-7.30116e-18
-1.1318e-20
-7.81994e-19
-4.35397e-21
8.65368e-06
-7.26992e-18
-1.12537e-20
-7.947e-19
-4.36964e-21
8.87455e-06
-7.24125e-18
-1.11899e-20
-8.07832e-19
-4.38607e-21
9.09822e-06
-7.21315e-18
-1.11268e-20
-8.20176e-19
-4.40303e-21
9.32478e-06
-7.18533e-18
-1.1064e-20
-8.28013e-19
-4.42063e-21
9.55429e-06
-7.15772e-18
-1.10018e-20
-8.39803e-19
-4.4392e-21
9.78684e-06
-7.12906e-18
-1.09397e-20
-8.52497e-19
-4.45837e-21
1.00225e-05
-7.1013e-18
-1.08779e-20
-8.64662e-19
-4.47805e-21
1.02614e-05
-7.07468e-18
-1.08162e-20
-8.74898e-19
-4.49806e-21
1.05035e-05
-7.04691e-18
-1.07544e-20
-8.85666e-19
-4.51843e-21
1.0749e-05
-7.0189e-18
-1.06928e-20
-8.97317e-19
-4.53908e-21
1.09979e-05
-6.99232e-18
-1.06313e-20
-9.07698e-19
-4.56e-21
1.12503e-05
-6.96455e-18
-1.05695e-20
-9.19793e-19
-4.58119e-21
1.15063e-05
-6.93598e-18
-1.05076e-20
-9.31031e-19
-4.60241e-21
1.1766e-05
-6.90995e-18
-1.04454e-20
-9.42315e-19
-4.62349e-21
1.20294e-05
-6.88296e-18
-1.03829e-20
-9.54012e-19
-4.64409e-21
1.22967e-05
-6.85779e-18
-1.03201e-20
-9.64742e-19
-4.66453e-21
1.25679e-05
-6.83464e-18
-1.02568e-20
-9.71779e-19
-4.68468e-21
1.28431e-05
-6.81504e-18
-1.01926e-20
-9.8069e-19
-4.70471e-21
1.31224e-05
-6.79086e-18
-1.01272e-20
-9.88214e-19
-4.7244e-21
1.34059e-05
-6.76912e-18
-1.00609e-20
-9.96e-19
-4.74362e-21
1.36937e-05
-6.74621e-18
-9.99331e-21
-1.00338e-18
-4.76246e-21
1.39858e-05
-6.72463e-18
-9.92454e-21
-1.00989e-18
-4.78082e-21
1.42823e-05
-6.70179e-18
-9.85408e-21
-1.01646e-18
-4.79843e-21
1.45834e-05
-6.67966e-18
-9.78192e-21
-1.0251e-18
-4.81514e-21
1.48891e-05
-6.66112e-18
-9.70815e-21
-1.02878e-18
-4.83064e-21
1.51995e-05
-6.6393e-18
-9.63257e-21
-1.03263e-18
-4.84552e-21
1.55147e-05
-6.61729e-18
-9.55579e-21
-1.03789e-18
-4.85951e-21
1.58348e-05
-6.59782e-18
-9.47735e-21
-1.0462e-18
-4.87263e-21
1.61599e-05
-6.57503e-18
-9.39752e-21
-1.05529e-18
-4.88441e-21
1.64901e-05
-6.55371e-18
-9.31697e-21
-1.06099e-18
-4.89414e-21
1.68254e-05
-6.53322e-18
-9.23471e-21
-1.06798e-18
-4.90274e-21
1.71661e-05
-6.51036e-18
-9.15117e-21
-1.07611e-18
-4.90968e-21
1.75121e-05
-6.49485e-18
-9.06634e-21
-1.0821e-18
-4.91454e-21
1.78636e-05
-6.47339e-18
-8.97937e-21
-1.08877e-18
-4.91781e-21
1.82206e-05
-6.45124e-18
-8.89087e-21
-1.09696e-18
-4.91951e-21
1.85834e-05
-6.42966e-18
-8.80099e-21
-1.1044e-18
-4.91885e-21
1.89519e-05
-6.41049e-18
-8.70922e-21
-1.11113e-18
-4.91558e-21
1.93263e-05
-6.38861e-18
-8.61499e-21
-1.12176e-18
-4.91015e-21
1.97067e-05
-6.36824e-18
-8.51867e-21
-1.12903e-18
-4.90212e-21
2.00932e-05
-6.34695e-18
-8.42002e-21
-1.13713e-18
-4.89221e-21
2.04859e-05
-6.32136e-18
-8.31814e-21
-1.14418e-18
-4.87999e-21
2.08849e-05
-6.30411e-18
-8.21529e-21
-1.14902e-18
-4.8655e-21
2.12904e-05
-6.28776e-18
-8.11054e-21
-1.15501e-18
-4.84835e-21
2.17024e-05
-6.26745e-18
-8.0015e-21
-1.16324e-18
-4.82931e-21
2.21211e-05
-6.24605e-18
-7.89038e-21
-1.17282e-18
-4.80729e-21
2.25465e-05
-6.22559e-18
-7.7763e-21
-1.18231e-18
-4.78174e-21
2.29789e-05
-6.20537e-18
-7.65854e-21
-1.19111e-18
-4.75381e-21
2.34182e-05
-6.18727e-18
-7.53823e-21
-1.20078e-18
-4.72182e-21
2.38647e-05
-6.17095e-18
-7.41579e-21
-1.19377e-18
-4.68572e-21
2.43185e-05
-6.15754e-18
-7.29112e-21
-1.19594e-18
-4.64885e-21
2.47796e-05
-6.14564e-18
-7.16305e-21
-1.19463e-18
-4.6088e-21
2.52483e-05
-6.13167e-18
-7.03193e-21
-1.19507e-18
-4.56624e-21
2.57246e-05
-6.11618e-18
-6.89907e-21
-1.19438e-18
-4.5205e-21
2.62087e-05
-6.10475e-18
-6.76528e-21
-1.19396e-18
-4.47185e-21
2.67007e-05
-6.0882e-18
-6.62908e-21
-1.19482e-18
-4.42129e-21
2.72008e-05
-6.07637e-18
-6.49065e-21
-1.19246e-18
-4.36663e-21
2.7709e-05
-6.05837e-18
-6.35126e-21
-1.19491e-18
-4.30804e-21
2.82256e-05
-6.04315e-18
-6.21305e-21
-1.19865e-18
-4.24406e-21
2.87506e-05
-6.02879e-18
-6.0745e-21
-1.19921e-18
-4.17398e-21
2.92842e-05
-6.01325e-18
-5.93518e-21
-1.20082e-18
-4.09909e-21
2.98266e-05
-5.99652e-18
-5.79629e-21
-1.20418e-18
-4.01937e-21
3.03779e-05
-5.98337e-18
-5.65763e-21
-1.20891e-18
-3.93461e-21
3.09382e-05
-5.97922e-18
-5.51747e-21
-1.208e-18
-3.84644e-21
3.15077e-05
-5.97395e-18
-5.3729e-21
-1.20201e-18
-3.75409e-21
3.20866e-05
-5.9684e-18
-5.22503e-21
-1.20304e-18
-3.66033e-21
3.2675e-05
-5.95914e-18
-5.07404e-21
-1.19836e-18
-3.56224e-21
3.32731e-05
-5.95662e-18
-4.9177e-21
-1.19979e-18
-3.46478e-21
3.3881e-05
-5.94061e-18
-4.7574e-21
-1.19498e-18
-3.3623e-21
3.4499e-05
-5.93419e-18
-4.59963e-21
-1.19999e-18
-3.25858e-21
3.51271e-05
-5.92679e-18
-4.43883e-21
-1.19568e-18
-3.1511e-21
3.57655e-05
-5.91846e-18
-4.2767e-21
-1.19974e-18
-3.04e-21
3.64145e-05
-5.91592e-18
-4.11161e-21
-1.20209e-18
-2.92678e-21
3.70741e-05
-5.9029e-18
-3.9417e-21
-1.19869e-18
-2.81224e-21
3.77446e-05
-5.89845e-18
-3.76951e-21
-1.2056e-18
-2.69846e-21
3.84261e-05
-5.89798e-18
-3.59509e-21
-1.2108e-18
-2.57928e-21
3.91189e-05
-5.88671e-18
-3.41966e-21
-1.21508e-18
-2.45394e-21
3.98231e-05
-5.87492e-18
-3.25341e-21
-1.21727e-18
-2.32242e-21
4.05389e-05
-5.8659e-18
-3.09588e-21
-1.22416e-18
-2.1817e-21
4.12665e-05
-5.84176e-18
-2.94022e-21
-1.22686e-18
-2.03277e-21
4.20061e-05
-5.82832e-18
-2.79588e-21
-1.23429e-18
-1.87741e-21
4.27579e-05
-5.81703e-18
-2.65743e-21
-1.24364e-18
-1.70763e-21
4.35221e-05
-5.80708e-18
-2.52942e-21
-1.24895e-18
-1.5258e-21
4.42989e-05
-5.79697e-18
-2.40981e-21
-1.25061e-18
-1.33669e-21
4.50885e-05
-5.78858e-18
-2.29492e-21
-1.26125e-18
-1.13695e-21
4.58911e-05
-5.77396e-18
-2.18541e-21
-1.27702e-18
-9.27652e-22
4.67069e-05
-5.76704e-18
-2.08704e-21
-1.27044e-18
-7.10822e-22
4.75362e-05
-5.76737e-18
-1.9971e-21
-1.27468e-18
-4.94592e-22
4.83792e-05
-5.76765e-18
-1.91094e-21
-1.26964e-18
-2.67332e-22
4.9236e-05
-5.76433e-18
-1.83e-21
-1.2665e-18
-3.39872e-23
5.0107e-05
-5.76096e-18
-1.75639e-21
-1.27289e-18
2.02019e-22
5.09923e-05
-5.7599e-18
-1.68526e-21
-1.27848e-18
4.48025e-22
5.18922e-05
-5.75476e-18
-1.62451e-21
-1.27989e-18
7.06715e-22
5.2807e-05
-5.74143e-18
-1.56881e-21
-1.29116e-18
9.68458e-22
5.37368e-05
-5.735e-18
-1.51707e-21
-1.29514e-18
1.24616e-21
5.4682e-05
-5.73756e-18
-1.46554e-21
-1.30986e-18
1.52341e-21
5.56427e-05
-5.73711e-18
-1.40954e-21
-1.3139e-18
1.80543e-21
5.66192e-05
-5.72408e-18
-1.33639e-21
-1.33333e-18
2.09017e-21
5.76118e-05
-5.69776e-18
-1.26731e-21
-1.35802e-18
2.38399e-21
5.86208e-05
-5.67982e-18
-1.21595e-21
-1.36604e-18
2.68344e-21
5.96464e-05
-5.64473e-18
-1.17114e-21
-1.39767e-18
2.98062e-21
6.06889e-05
-5.63944e-18
-1.14875e-21
-1.41373e-18
3.30946e-21
6.17485e-05
-5.6291e-18
-1.13248e-21
-1.42829e-18
3.64021e-21
6.28256e-05
-5.61102e-18
-1.11279e-21
-1.44347e-18
3.95534e-21
6.39204e-05
-5.62319e-18
-1.12489e-21
-1.44501e-18
4.24872e-21
6.50332e-05
-5.60954e-18
-1.12298e-21
-1.46851e-18
4.51101e-21
6.61643e-05
-5.58782e-18
-1.14062e-21
-1.4875e-18
4.76182e-21
6.7314e-05
-5.58358e-18
-1.17025e-21
-1.49411e-18
5.00074e-21
6.84826e-05
-5.56242e-18
-1.19033e-21
-1.52024e-18
5.21274e-21
6.96705e-05
-5.56849e-18
-1.21544e-21
-1.53144e-18
5.41545e-21
7.08779e-05
-5.54056e-18
-1.23123e-21
-1.54496e-18
5.59935e-21
7.21051e-05
-5.52907e-18
-1.27373e-21
-1.56543e-18
5.7681e-21
7.33524e-05
-5.50268e-18
-1.33449e-21
-1.59308e-18
5.92093e-21
7.46203e-05
-5.50013e-18
-1.41734e-21
-1.61039e-18
6.04702e-21
7.5909e-05
-5.47333e-18
-1.46274e-21
-1.63778e-18
6.13253e-21
7.72189e-05
-5.44714e-18
-1.53696e-21
-1.67634e-18
6.20985e-21
7.85502e-05
-5.42413e-18
-1.63028e-21
-1.70792e-18
6.27695e-21
7.99034e-05
-5.39734e-18
-1.70912e-21
-1.75278e-18
6.30528e-21
8.12788e-05
-5.36525e-18
-1.79003e-21
-1.79961e-18
6.34605e-21
8.26768e-05
-5.33763e-18
-1.89355e-21
-1.83005e-18
6.41286e-21
8.40977e-05
-5.30985e-18
-2.01618e-21
-1.87951e-18
6.43893e-21
8.55419e-05
-5.30673e-18
-2.14965e-21
-1.88528e-18
6.48461e-21
8.70098e-05
-5.30716e-18
-2.2848e-21
-1.89079e-18
6.50021e-21
8.85018e-05
-5.30578e-18
-2.44927e-21
-1.89698e-18
6.50382e-21
9.00182e-05
-5.29117e-18
-2.59813e-21
-1.91846e-18
6.47432e-21
9.15594e-05
-5.28403e-18
-2.74242e-21
-1.94168e-18
6.41872e-21
9.31259e-05
-5.27856e-18
-2.88472e-21
-1.95028e-18
6.37412e-21
9.4718e-05
-5.27649e-18
-3.03297e-21
-1.97513e-18
6.3244e-21
9.63362e-05
-5.25467e-18
-3.14179e-21
-1.98729e-18
6.28762e-21
9.79809e-05
-5.24025e-18
-3.28264e-21
-2.00973e-18
6.21209e-21
9.96524e-05
-5.20902e-18
-3.41789e-21
-2.03759e-18
6.14939e-21
0.000101351
-5.17139e-18
-3.57301e-21
-2.06364e-18
6.13205e-21
0.000103078
-5.15388e-18
-3.75075e-21
-2.08012e-18
6.13295e-21
0.000104833
-5.13572e-18
-3.90653e-21
-2.09958e-18
6.11284e-21
0.000106617
-5.11547e-18
-4.05785e-21
-2.12648e-18
6.06128e-21
0.000108429
-5.09541e-18
-4.23683e-21
-2.13244e-18
5.96957e-21
0.000110272
-5.08772e-18
-4.42737e-21
-2.15215e-18
5.81808e-21
0.000112144
-5.07688e-18
-4.57085e-21
-2.18313e-18
5.64496e-21
0.000114047
-5.06579e-18
-4.67714e-21
-2.21073e-18
5.41667e-21
0.000115981
-5.04086e-18
-4.82432e-21
-2.23982e-18
5.19814e-21
0.000117947
-4.99496e-18
-4.98703e-21
-2.27086e-18
4.9784e-21
0.000119944
-4.97751e-18
-5.20084e-21
-2.28321e-18
4.76779e-21
0.000121974
-4.94501e-18
-5.38596e-21
-2.31702e-18
4.49681e-21
0.000124038
-4.92211e-18
-5.59985e-21
-2.36478e-18
4.30629e-21
0.000126134
-4.89574e-18
-5.79278e-21
-2.39723e-18
4.19497e-21
0.000128266
-4.84825e-18
-6.04871e-21
-2.40427e-18
4.17032e-21
0.000130431
-4.81902e-18
-6.43697e-21
-2.43384e-18
4.06769e-21
0.000132632
-4.81284e-18
-6.85683e-21
-2.46708e-18
3.90838e-21
0.000134869
-4.7772e-18
-7.1858e-21
-2.49777e-18
3.72523e-21
0.000137142
-4.75596e-18
-7.60801e-21
-2.54737e-18
3.44994e-21
0.000139452
-4.71475e-18
-7.93979e-21
-2.534e-18
3.13251e-21
0.0001418
-4.67502e-18
-8.24511e-21
-2.58075e-18
2.57662e-21
0.000144186
-4.64778e-18
-8.58347e-21
-2.61024e-18
2.03515e-21
0.00014661
-4.60746e-18
-8.99027e-21
-2.62998e-18
1.51573e-21
0.000149074
-4.54351e-18
-9.33075e-21
-2.66479e-18
9.94701e-22
0.000151578
-4.50758e-18
-9.62202e-21
-2.68659e-18
5.12632e-22
0.000154122
-4.47549e-18
-9.68557e-21
-2.69515e-18
-1.27314e-23
0.000156708
-4.44657e-18
-9.92752e-21
-2.732e-18
-5.92714e-22
0.000159336
-4.42639e-18
-1.024e-20
-2.75754e-18
-9.92966e-22
0.000162006
-4.40076e-18
-1.04408e-20
-2.78012e-18
-1.16236e-21
0.000164719
-4.38172e-18
-1.06392e-20
-2.77731e-18
-1.15871e-21
0.000167476
-4.33756e-18
-1.06371e-20
-2.81347e-18
-1.35339e-21
0.000170278
-4.30087e-18
-1.08011e-20
-2.82446e-18
-1.33981e-21
0.000173126
-4.27628e-18
-1.11074e-20
-2.84073e-18
-1.38124e-21
0.000176019
-4.22574e-18
-1.14285e-20
-2.82631e-18
-1.59748e-21
0.000178959
-4.19601e-18
-1.17245e-20
-2.86016e-18
-1.97529e-21
0.000181946
-4.15473e-18
-1.18091e-20
-2.85856e-18
-2.23922e-21
0.000184982
-4.10498e-18
-1.20925e-20
-2.87477e-18
-2.65472e-21
0.000188067
-4.0792e-18
-1.2562e-20
-2.88673e-18
-3.25799e-21
0.000191201
-4.07267e-18
-1.30856e-20
-2.87721e-18
-4.0234e-21
0.000194386
-4.02512e-18
-1.35317e-20
-2.89247e-18
-5.0119e-21
0.000197623
-4.00858e-18
-1.39627e-20
-2.89782e-18
-5.83179e-21
0.000200911
-3.97181e-18
-1.42662e-20
-2.86982e-18
-6.46331e-21
0.000204252
-3.94065e-18
-1.45244e-20
-2.87715e-18
-7.09073e-21
0.000207647
-3.91448e-18
-1.47508e-20
-2.88466e-18
-7.53105e-21
0.000211097
-3.86331e-18
-1.50026e-20
-2.87246e-18
-7.59436e-21
0.000214602
-3.83719e-18
-1.54337e-20
-2.87191e-18
-7.65776e-21
0.000218163
-3.77593e-18
-1.55822e-20
-2.84841e-18
-7.9084e-21
0.000221782
-3.76901e-18
-1.60589e-20
-2.85901e-18
-8.43491e-21
0.000225458
-3.7391e-18
-1.60875e-20
-2.85366e-18
-8.70678e-21
0.000229194
-3.71289e-18
-1.63203e-20
-2.86549e-18
-8.94095e-21
0.000232989
-3.67283e-18
-1.64451e-20
-2.87213e-18
-9.04193e-21
0.000236845
-3.63405e-18
-1.64546e-20
-2.87944e-18
-9.09707e-21
0.000240762
-3.60766e-18
-1.65659e-20
-2.86379e-18
-8.85045e-21
0.000244743
-3.61269e-18
-1.68238e-20
-2.88225e-18
-8.60224e-21
0.000248786
-3.56494e-18
-1.67733e-20
-2.91514e-18
-8.01579e-21
0.000252895
-3.50354e-18
-1.62299e-20
-2.8525e-18
-7.53595e-21
0.000257068
-3.43974e-18
-1.59903e-20
-2.81621e-18
-8.07649e-21
0.000261309
-3.41639e-18
-1.67655e-20
-2.81564e-18
-7.94418e-21
0.000265617
-3.39005e-18
-1.68171e-20
-2.84657e-18
-8.56103e-21
0.000269993
-3.38207e-18
-1.58787e-20
-2.76584e-18
-8.8437e-21
0.000274439
-3.2994e-18
-1.43841e-20
-2.81047e-18
-9.88196e-21
0.000278955
-3.30744e-18
-1.40951e-20
-2.83803e-18
-1.00553e-20
0.000283544
-3.2519e-18
-1.34153e-20
-2.8594e-18
-1.01099e-20
0.000288204
-3.14935e-18
-1.38071e-20
-2.9275e-18
-9.91568e-21
0.000292939
-3.07459e-18
-1.43211e-20
-3.01039e-18
-9.8595e-21
0.000297749
-3.06171e-18
-1.58835e-20
-3.03895e-18
-9.49469e-21
0.000302634
-3.14479e-18
-1.79281e-20
-2.95666e-18
-8.72888e-21
0.000307597
-3.13849e-18
-1.7662e-20
-2.93223e-18
-8.98793e-21
0.000312638
-3.109e-18
-1.62928e-20
-2.92891e-18
-1.06339e-20
0.000317758
-3.0882e-18
-1.59898e-20
-2.96065e-18
-1.21134e-20
0.000322959
-3.08755e-18
-1.46566e-20
-2.96541e-18
-1.34242e-20
0.000328241
-3.09939e-18
-1.28608e-20
-2.97557e-18
-1.47628e-20
0.000333607
-3.04116e-18
-1.09411e-20
-2.86207e-18
-1.63685e-20
0.000339056
-2.96899e-18
-1.00075e-20
-2.984e-18
-1.76013e-20
0.000344591
-2.91989e-18
-9.56847e-21
-2.89868e-18
-1.70097e-20
0.000350212
-2.90968e-18
-1.05501e-20
-2.88095e-18
-1.88316e-20
0.000355921
-2.91728e-18
-1.27871e-20
-2.89603e-18
-1.89273e-20
0.000361718
-2.81998e-18
-1.47868e-20
-2.86462e-18
-1.80972e-20
0.000367606
-2.83483e-18
-1.73582e-20
-2.86154e-18
-1.74005e-20
0.000373585
-2.8378e-18
-1.91274e-20
-2.89101e-18
-1.77975e-20
0.000379657
-2.80374e-18
-1.95752e-20
-2.86654e-18
-1.82124e-20
0.000385823
-2.77945e-18
-1.97673e-20
-2.85465e-18
-1.878e-20
0.000392084
-2.75141e-18
-2.06365e-20
-2.85943e-18
-1.94354e-20
0.000398441
-2.84847e-18
-2.10532e-20
-2.73172e-18
-2.0703e-20
0.000404897
-2.78892e-18
-1.96732e-20
-2.78256e-18
-2.17158e-20
0.000411451
-2.80537e-18
-2.00941e-20
-2.79055e-18
-2.1559e-20
0.000418105
-2.76094e-18
-1.91513e-20
-2.74076e-18
-2.13031e-20
0.000424861
-2.72952e-18
-1.97008e-20
-2.73235e-18
-2.23572e-20
0.00043172
-2.74602e-18
-2.03095e-20
-2.75085e-18
-2.07637e-20
0.000438683
-2.69631e-18
-2.01004e-20
-2.65555e-18
-1.81326e-20
0.000445751
-2.64877e-18
-2.12496e-20
-2.6883e-18
-1.95656e-20
0.000452926
-2.70141e-18
-2.45633e-20
-2.60282e-18
-2.28919e-20
0.000460209
-2.67436e-18
-2.52815e-20
-2.58215e-18
-2.4294e-20
0.000467601
-2.76938e-18
-2.56404e-20
-2.4945e-18
-2.42059e-20
0.000475104
-2.6481e-18
-2.07007e-20
-2.56557e-18
-2.65494e-20
0.000482718
-2.63289e-18
-1.97159e-20
-2.54482e-18
-2.70816e-20
0.000490446
-2.60497e-18
-1.9652e-20
-2.46362e-18
-2.64847e-20
0.000498287
-2.3829e-18
-1.5974e-20
-2.49105e-18
-2.58766e-20
0.000506244
-2.36161e-18
-1.78331e-20
-2.5331e-18
-2.38987e-20
0.000514317
-2.32295e-18
-2.06575e-20
-2.34592e-18
-1.99985e-20
0.000522508
-2.26982e-18
-1.99668e-20
-2.24583e-18
-2.25497e-20
0.000530818
-2.0458e-18
-1.92964e-20
-2.10665e-18
-2.09149e-20
0.000539247
-1.9617e-18
-2.25503e-20
-2.04251e-18
-1.9647e-20
0.000547797
-1.9307e-18
-2.36513e-20
-2.0333e-18
-1.69829e-20
0.000556468
-1.89669e-18
-1.86858e-20
-1.90212e-18
-1.68141e-20
0.000565262
-1.74095e-18
-1.37356e-20
-1.82129e-18
-1.9321e-20
0.00057418
-1.71822e-18
-1.20619e-20
-1.77645e-18
-1.64649e-20
0.000583221
-1.62342e-18
-4.99221e-21
-1.62171e-18
-9.34015e-21
0.000592387
-1.52938e-18
-2.61735e-21
-1.65597e-18
-1.58193e-20
0.000601678
-1.51476e-18
-2.73847e-21
-1.56842e-18
-1.71117e-20
0.000611095
-1.51088e-18
-2.24243e-21
-1.55294e-18
-1.3485e-20
0.000620638
-1.46708e-18
2.01168e-21
-1.59168e-18
-8.23282e-21
0.000630308
-1.55218e-18
2.68001e-21
-1.37691e-18
-6.87084e-21
0.000640103
-1.51546e-18
-2.96808e-21
-1.44946e-18
-1.07524e-20
0.000650025
-1.48714e-18
-4.19351e-21
-1.46816e-18
-1.08794e-20
0.000660073
-1.42353e-18
-4.58341e-21
-1.41153e-18
-1.30343e-20
0.000670246
-1.40039e-18
-6.4706e-21
-1.38248e-18
-1.40069e-20
0.000680544
-1.3117e-18
-4.36259e-21
-1.21042e-18
-9.03308e-21
0.000690966
-1.26307e-18
1.3534e-21
-1.21486e-18
-5.43588e-21
0.000701511
-1.19883e-18
4.29238e-21
-1.26798e-18
-1.06181e-21
0.000712177
-1.32541e-18
6.54154e-21
-1.19212e-18
2.75421e-21
0.000722963
-1.13654e-18
1.40819e-20
-1.25023e-18
7.21356e-22
0.000733868
-1.14287e-18
3.74952e-21
-1.04123e-18
4.43227e-21
0.000744888
-1.02536e-18
-2.09864e-21
-1.08047e-18
-4.28824e-21
0.000756022
-1.0185e-18
-9.13172e-21
-1.10761e-18
-2.1866e-20
0.000767266
-1.01436e-18
-1.35531e-20
-1.08058e-18
-1.91597e-20
0.000778619
-9.90181e-19
-1.00434e-20
-9.63749e-19
-2.79154e-20
0.000790076
-9.39361e-19
-1.03223e-20
-9.96093e-19
-3.31662e-20
0.000801635
-3.92922e-21
-9.28734e-19
-3.52801e-20
-9.85118e-19
2.53966e-08
-8.66655e-22
-3.71105e-22
7.76653e-08
-4.92916e-21
-2.32746e-21
1.32207e-07
-9.08593e-21
-4.41572e-21
1.89099e-07
-1.34141e-20
-6.54224e-21
2.4842e-07
-1.78848e-20
-8.77459e-21
3.10253e-07
-2.24448e-20
-1.11634e-20
3.74682e-07
-2.70857e-20
-1.37017e-20
4.41794e-07
-3.19142e-20
-1.62845e-20
5.11678e-07
-3.69739e-20
-1.90096e-20
5.84425e-07
-4.20753e-20
-2.18677e-20
6.60128e-07
-4.74149e-20
-2.46899e-20
7.38883e-07
-5.29472e-20
-2.77361e-20
8.20784e-07
-5.86126e-20
-3.10491e-20
9.05928e-07
-6.43919e-20
-3.44106e-20
9.94411e-07
-7.01425e-20
-3.79455e-20
1.08633e-06
-7.58107e-20
-4.17329e-20
1.18176e-06
-8.21811e-20
-4.53213e-20
1.28081e-06
-8.91369e-20
-4.908e-20
1.38355e-06
-9.56649e-20
-5.29873e-20
1.49005e-06
-1.02452e-19
-5.73913e-20
1.60037e-06
-1.09041e-19
-6.17747e-20
1.71455e-06
-1.16362e-19
-6.6551e-20
1.83263e-06
-1.23838e-19
-7.16013e-20
1.95462e-06
-1.31903e-19
-7.6081e-20
2.08051e-06
-1.40752e-19
-8.04433e-20
2.21026e-06
-1.49281e-19
-8.52276e-20
2.34383e-06
-1.58566e-19
-9.02295e-20
2.48114e-06
-1.67477e-19
-9.54228e-20
2.62209e-06
-1.76516e-19
-1.00976e-19
2.76657e-06
-1.85923e-19
-1.06517e-19
2.91443e-06
-1.94556e-19
-1.12878e-19
3.06554e-06
-2.03383e-19
-1.19576e-19
3.21974e-06
-2.1224e-19
-1.26335e-19
3.37687e-06
-2.20784e-19
-1.33132e-19
3.53678e-06
-2.29766e-19
-1.40232e-19
3.69931e-06
-2.38648e-19
-1.46164e-19
3.86431e-06
-2.48178e-19
-1.52525e-19
4.03166e-06
-2.57744e-19
-1.58954e-19
4.20124e-06
-2.68033e-19
-1.66076e-19
4.37294e-06
-2.77629e-19
-1.72039e-19
4.54669e-06
-2.86723e-19
-1.78619e-19
4.7224e-06
-2.97175e-19
-1.85114e-19
4.90004e-06
-3.07691e-19
-1.90798e-19
5.07955e-06
-3.17386e-19
-1.98218e-19
5.26092e-06
-3.26964e-19
-2.05061e-19
5.44414e-06
-3.36367e-19
-2.12015e-19
5.62922e-06
-3.46033e-19
-2.19028e-19
5.81616e-06
-3.5643e-19
-2.25086e-19
6.00499e-06
-3.66341e-19
-2.3146e-19
6.19574e-06
-3.76648e-19
-2.38056e-19
6.38845e-06
-3.86831e-19
-2.44453e-19
6.58317e-06
-3.97281e-19
-2.50999e-19
6.77994e-06
-4.06193e-19
-2.57798e-19
6.97883e-06
-4.15904e-19
-2.63963e-19
7.17989e-06
-4.25079e-19
-2.69888e-19
7.38319e-06
-4.3378e-19
-2.76992e-19
7.58878e-06
-4.42658e-19
-2.83813e-19
7.79674e-06
-4.51735e-19
-2.90302e-19
8.00714e-06
-4.59294e-19
-2.9777e-19
8.22005e-06
-4.68361e-19
-3.05189e-19
8.43554e-06
-4.77449e-19
-3.10269e-19
8.65368e-06
-4.84577e-19
-3.17507e-19
8.87455e-06
-4.95721e-19
-3.21352e-19
9.09822e-06
-5.04496e-19
-3.28133e-19
9.32478e-06
-5.18328e-19
-3.36738e-19
9.55429e-06
-5.2654e-19
-3.43195e-19
9.78684e-06
-5.35396e-19
-3.49063e-19
1.00225e-05
-5.43396e-19
-3.54303e-19
1.02614e-05
-5.51668e-19
-3.61479e-19
1.05035e-05
-5.60769e-19
-3.6833e-19
1.0749e-05
-5.68863e-19
-3.75676e-19
1.09979e-05
-5.76304e-19
-3.82992e-19
1.12503e-05
-5.83177e-19
-3.91015e-19
1.15063e-05
-5.91488e-19
-3.9763e-19
1.1766e-05
-5.99351e-19
-4.01081e-19
1.20294e-05
-6.06779e-19
-4.09812e-19
1.22967e-05
-6.14042e-19
-4.17003e-19
1.25679e-05
-6.20935e-19
-4.24621e-19
1.28431e-05
-6.26886e-19
-4.32639e-19
1.31224e-05
-6.36488e-19
-4.39404e-19
1.34059e-05
-6.4546e-19
-4.47595e-19
1.36937e-05
-6.56632e-19
-4.55149e-19
1.39858e-05
-6.63736e-19
-4.62268e-19
1.42823e-05
-6.70115e-19
-4.69701e-19
1.45834e-05
-6.77481e-19
-4.76506e-19
1.48891e-05
-6.83993e-19
-4.84398e-19
1.51995e-05
-6.93258e-19
-4.89685e-19
1.55147e-05
-6.98478e-19
-4.97332e-19
1.58348e-05
-7.08026e-19
-5.06335e-19
1.61599e-05
-7.19962e-19
-5.10169e-19
1.64901e-05
-7.24621e-19
-5.19023e-19
1.68254e-05
-7.32871e-19
-5.28209e-19
1.71661e-05
-7.38532e-19
-5.36169e-19
1.75121e-05
-7.4466e-19
-5.43318e-19
1.78636e-05
-7.50457e-19
-5.51653e-19
1.82206e-05
-7.57787e-19
-5.58657e-19
1.85834e-05
-7.63512e-19
-5.63634e-19
1.89519e-05
-7.69166e-19
-5.68061e-19
1.93263e-05
-7.73881e-19
-5.70233e-19
1.97067e-05
-7.79409e-19
-5.7697e-19
2.00932e-05
-7.80187e-19
-5.85499e-19
2.04859e-05
-7.89447e-19
-5.93097e-19
2.08849e-05
-8.0026e-19
-5.97005e-19
2.12904e-05
-7.96822e-19
-6.04588e-19
2.17024e-05
-8.02223e-19
-6.08008e-19
2.21211e-05
-8.04026e-19
-6.11567e-19
2.25465e-05
-8.03605e-19
-6.1994e-19
2.29789e-05
-8.07033e-19
-6.2274e-19
2.34182e-05
-8.13014e-19
-6.30347e-19
2.38647e-05
-8.19689e-19
-6.38761e-19
2.43185e-05
-8.22369e-19
-6.47928e-19
2.47796e-05
-8.25544e-19
-6.56905e-19
2.52483e-05
-8.30495e-19
-6.63075e-19
2.57246e-05
-8.37126e-19
-6.70079e-19
2.62087e-05
-8.42071e-19
-6.80369e-19
2.67007e-05
-8.42435e-19
-6.82699e-19
2.72008e-05
-8.48464e-19
-6.86036e-19
2.7709e-05
-8.54659e-19
-6.93121e-19
2.82256e-05
-8.57739e-19
-6.98682e-19
2.87506e-05
-8.58539e-19
-7.0319e-19
2.92842e-05
-8.62633e-19
-7.07526e-19
2.98266e-05
-8.6718e-19
-7.07064e-19
3.03779e-05
-8.70867e-19
-7.09005e-19
3.09382e-05
-8.73634e-19
-7.06956e-19
3.15077e-05
-8.77662e-19
-7.13501e-19
3.20866e-05
-8.83501e-19
-7.15107e-19
3.2675e-05
-8.8152e-19
-7.21475e-19
3.32731e-05
-8.89404e-19
-7.16387e-19
3.3881e-05
-9.01028e-19
-7.22391e-19
3.4499e-05
-9.05094e-19
-7.31426e-19
3.51271e-05
-9.12425e-19
-7.27608e-19
3.57655e-05
-9.16351e-19
-7.33508e-19
3.64145e-05
-9.22002e-19
-7.38972e-19
3.70741e-05
-9.2065e-19
-7.47039e-19
3.77446e-05
-9.23009e-19
-7.50544e-19
3.84261e-05
-9.2396e-19
-7.51708e-19
3.91189e-05
-9.28181e-19
-7.60668e-19
3.98231e-05
-9.26566e-19
-7.66103e-19
4.05389e-05
-9.14425e-19
-7.74452e-19
4.12665e-05
-9.11685e-19
-7.81481e-19
4.20061e-05
-9.1162e-19
-7.78682e-19
4.27579e-05
-9.20232e-19
-7.76853e-19
4.35221e-05
-9.2332e-19
-7.8022e-19
4.42989e-05
-9.21894e-19
-7.79774e-19
4.50885e-05
-9.23392e-19
-7.84001e-19
4.58911e-05
-9.28225e-19
-7.91845e-19
4.67069e-05
-9.33493e-19
-7.93266e-19
4.75362e-05
-9.32014e-19
-7.9128e-19
4.83792e-05
-9.31735e-19
-7.91294e-19
4.9236e-05
-9.3297e-19
-7.9079e-19
5.0107e-05
-9.25456e-19
-7.90187e-19
5.09923e-05
-9.34225e-19
-7.8478e-19
5.18922e-05
-9.36893e-19
-7.84733e-19
5.2807e-05
-9.32799e-19
-7.77634e-19
5.37368e-05
-9.30365e-19
-7.80149e-19
5.4682e-05
-9.35074e-19
-7.80775e-19
5.56427e-05
-9.22665e-19
-7.78289e-19
5.66192e-05
-9.19476e-19
-7.80568e-19
5.76118e-05
-9.20579e-19
-7.79916e-19
5.86208e-05
-9.23073e-19
-7.75424e-19
5.96464e-05
-9.25777e-19
-7.67431e-19
6.06889e-05
-9.36213e-19
-7.66468e-19
6.17485e-05
-9.22192e-19
-7.67402e-19
6.28256e-05
-9.25569e-19
-7.74309e-19
6.39204e-05
-9.16251e-19
-7.76527e-19
6.50332e-05
-9.23452e-19
-7.80415e-19
6.61643e-05
-9.14585e-19
-7.75698e-19
6.7314e-05
-9.08745e-19
-7.70963e-19
6.84826e-05
-9.07811e-19
-7.6657e-19
6.96705e-05
-9.29718e-19
-7.53791e-19
7.08779e-05
-9.50111e-19
-7.49982e-19
7.21051e-05
-9.66789e-19
-7.5225e-19
7.33524e-05
-9.64345e-19
-7.57242e-19
7.46203e-05
-9.41184e-19
-7.5423e-19
7.5909e-05
-9.47758e-19
-7.40727e-19
7.72189e-05
-9.48947e-19
-7.36911e-19
7.85502e-05
-9.34634e-19
-7.35104e-19
7.99034e-05
-9.28389e-19
-7.2731e-19
8.12788e-05
-9.2458e-19
-7.2265e-19
8.26768e-05
-9.17114e-19
-7.36251e-19
8.40977e-05
-8.96232e-19
-7.364e-19
8.55419e-05
-8.82515e-19
-7.40185e-19
8.70098e-05
-8.92298e-19
-7.3763e-19
8.85018e-05
-8.85087e-19
-7.38145e-19
9.00182e-05
-8.83297e-19
-7.38616e-19
9.15594e-05
-8.99011e-19
-7.28993e-19
9.31259e-05
-9.20487e-19
-7.20588e-19
9.4718e-05
-9.19472e-19
-7.16058e-19
9.63362e-05
-9.35247e-19
-7.2611e-19
9.79809e-05
-9.38642e-19
-7.22474e-19
9.96524e-05
-9.39026e-19
-7.06562e-19
0.000101351
-9.38921e-19
-6.97596e-19
0.000103078
-9.39181e-19
-6.99425e-19
0.000104833
-9.36241e-19
-7.06904e-19
0.000106617
-9.35782e-19
-7.16418e-19
0.000108429
-9.25151e-19
-7.15463e-19
0.000110272
-9.08723e-19
-7.08506e-19
0.000112144
-8.95652e-19
-7.13685e-19
0.000114047
-9.02025e-19
-6.98963e-19
0.000115981
-8.82584e-19
-6.92364e-19
0.000117947
-8.64781e-19
-6.7653e-19
0.000119944
-8.50965e-19
-6.78467e-19
0.000121974
-8.44312e-19
-6.67932e-19
0.000124038
-8.35149e-19
-6.7949e-19
0.000126134
-8.50635e-19
-6.61616e-19
0.000128266
-8.64084e-19
-6.62691e-19
0.000130431
-8.64158e-19
-6.83023e-19
0.000132632
-8.50266e-19
-6.89423e-19
0.000134869
-8.66285e-19
-7.12654e-19
0.000137142
-8.55938e-19
-7.41672e-19
0.000139452
-8.57096e-19
-7.37082e-19
0.0001418
-8.86014e-19
-7.33906e-19
0.000144186
-9.36612e-19
-7.45862e-19
0.00014661
-9.31507e-19
-7.48365e-19
0.000149074
-9.04564e-19
-7.49153e-19
0.000151578
-8.60936e-19
-7.59373e-19
0.000154122
-9.09312e-19
-7.59448e-19
0.000156708
-9.37345e-19
-7.52535e-19
0.000159336
-9.34797e-19
-7.47139e-19
0.000162006
-9.35488e-19
-7.30305e-19
0.000164719
-8.93176e-19
-7.45188e-19
0.000167476
-9.02232e-19
-7.47003e-19
0.000170278
-9.1903e-19
-7.67776e-19
0.000173126
-9.19159e-19
-7.72766e-19
0.000176019
-8.89368e-19
-7.61677e-19
0.000178959
-8.60428e-19
-7.77615e-19
0.000181946
-8.87192e-19
-7.82203e-19
0.000184982
-8.93949e-19
-7.90072e-19
0.000188067
-9.01041e-19
-8.09033e-19
0.000191201
-9.11925e-19
-8.31468e-19
0.000194386
-9.04424e-19
-8.12082e-19
0.000197623
-9.18406e-19
-7.81057e-19
0.000200911
-9.19973e-19
-7.51836e-19
0.000204252
-9.2081e-19
-7.5594e-19
0.000207647
-9.26809e-19