/*--------------------------------*- C++ -*----------------------------------*\
| =========                 |                                                 |
| \\      /  F ield         | OpenFOAM: The Open Source CFD Toolbox           |
|  \\    /   O peration     | Version:  2012                                  |
|   \\  /    A nd           | Website:  www.openfoam.com                      |
|    \\/     M anipulation  |                                                 |
\*---------------------------------------------------------------------------*/
FoamFile
{
    version     2.0;
    format      ascii;
    class       volVectorField;
    location    "8000";
    object      U;
}
// * * * * * * * * * * * * * * * * * * * * * * * * * * * * * * * * * * * * * //

dimensions      [0 1 -1 0 0 0 0];


internalField   nonuniform List<vector> 
1280
(
(0.00469572 -5.9033e-16 -3.49787e-17)
(0.00469572 7.8523e-19 -7.48064e-21)
(0.0142224 -3.07317e-15 -1.38379e-16)
(0.0142224 -3.13631e-18 -1.11977e-20)
(0.0240262 -2.78959e-15 -1.50488e-16)
(0.0240262 -4.39818e-18 -2.97901e-20)
(0.0341149 -2.63473e-15 -1.6296e-16)
(0.0341149 -6.98336e-18 -3.52018e-20)
(0.0444969 -2.62195e-15 -1.76649e-16)
(0.0444969 -9.70053e-18 -3.69361e-20)
(0.0551804 -2.63039e-15 -1.91478e-16)
(0.0551804 -1.25987e-17 -3.77133e-20)
(0.0661739 -2.63021e-15 -2.07362e-16)
(0.0661739 -1.5622e-17 -3.81128e-20)
(0.0774862 -2.62554e-15 -2.24315e-16)
(0.0774862 -1.88649e-17 -3.41131e-20)
(0.0891255 -2.62027e-15 -2.42379e-16)
(0.0891255 -2.22954e-17 -2.64445e-20)
(0.1011 -2.61482e-15 -2.61591e-16)
(0.1011 -2.5841e-17 -1.6078e-20)
(0.113418 -2.60913e-15 -2.81984e-16)
(0.113418 -2.96068e-17 -1.79486e-21)
(0.126086 -2.60297e-15 -3.0358e-16)
(0.126086 -3.35999e-17 1.52482e-20)
(0.139108 -2.59634e-15 -3.26381e-16)
(0.139108 -3.77492e-17 3.94926e-20)
(0.152487 -2.58936e-15 -3.50361e-16)
(0.152487 -4.205e-17 6.32286e-20)
(0.166222 -2.58192e-15 -3.7545e-16)
(0.166222 -4.67778e-17 1.01241e-19)
(0.180307 -2.57421e-15 -4.01527e-16)
(0.180307 -5.15453e-17 1.56591e-19)
(0.194729 -2.56633e-15 -4.28404e-16)
(0.194729 -5.65222e-17 2.12664e-19)
(0.209469 -2.55821e-15 -4.55818e-16)
(0.209469 -6.18016e-17 2.95906e-19)
(0.224498 -2.54941e-15 -4.83436e-16)
(0.224498 -6.71292e-17 3.6638e-19)
(0.239777 -2.5399e-15 -5.10852e-16)
(0.239777 -7.24687e-17 4.38432e-19)
(0.255256 -2.53008e-15 -5.37619e-16)
(0.255256 -7.87305e-17 5.31181e-19)
(0.270879 -2.51977e-15 -5.63281e-16)
(0.270879 -8.51793e-17 6.30748e-19)
(0.286579 -2.50933e-15 -5.87406e-16)
(0.286579 -9.15927e-17 7.2263e-19)
(0.302285 -2.49801e-15 -6.09639e-16)
(0.302285 -9.92448e-17 8.29925e-19)
(0.317927 -2.48636e-15 -6.29724e-16)
(0.317927 -1.06608e-16 9.16416e-19)
(0.333434 -2.47498e-15 -6.47541e-16)
(0.333434 -1.13871e-16 1.04062e-18)
(0.348741 -2.46283e-15 -6.63097e-16)
(0.348741 -1.21478e-16 1.18186e-18)
(0.363793 -2.4505e-15 -6.74042e-16)
(0.363793 -1.28206e-16 1.32496e-18)
(0.378544 -2.43834e-15 -6.83056e-16)
(0.378544 -1.34818e-16 1.44152e-18)
(0.392956 -2.42662e-15 -6.90483e-16)
(0.392956 -1.42246e-16 1.53078e-18)
(0.407004 -2.41422e-15 -6.9656e-16)
(0.407004 -1.49743e-16 1.62306e-18)
(0.42067 -2.40099e-15 -7.0162e-16)
(0.42067 -1.57809e-16 1.73915e-18)
(0.433947 -2.3868e-15 -7.05979e-16)
(0.433947 -1.66321e-16 1.75489e-18)
(0.446833 -2.37173e-15 -7.09846e-16)
(0.446833 -1.74789e-16 1.92909e-18)
(0.45933 -2.35969e-15 -7.13548e-16)
(0.45933 -1.8226e-16 2.09381e-18)
(0.471448 -2.34993e-15 -7.17186e-16)
(0.471448 -1.88478e-16 2.11347e-18)
(0.483197 -2.33974e-15 -7.2094e-16)
(0.483197 -1.93781e-16 2.13989e-18)
(0.494589 -2.32893e-15 -7.25093e-16)
(0.494589 -1.99509e-16 2.37696e-18)
(0.50564 -2.31607e-15 -7.29682e-16)
(0.50564 -2.06789e-16 2.79465e-18)
(0.516364 -2.30265e-15 -7.34716e-16)
(0.516364 -2.14393e-16 2.98206e-18)
(0.526777 -2.29053e-15 -7.40272e-16)
(0.526777 -2.20945e-16 2.92889e-18)
(0.536895 -2.27827e-15 -7.46473e-16)
(0.536895 -2.27968e-16 2.83891e-18)
(0.546731 -2.2642e-15 -7.53204e-16)
(0.546731 -2.36832e-16 3.19287e-18)
(0.556302 -2.25018e-15 -7.60778e-16)
(0.556302 -2.43587e-16 3.60894e-18)
(0.565621 -2.23957e-15 -7.69251e-16)
(0.565621 -2.51094e-16 3.6684e-18)
(0.574702 -2.22941e-15 -7.78042e-16)
(0.574702 -2.58467e-16 3.58872e-18)
(0.583558 -2.21731e-15 -7.87907e-16)
(0.583558 -2.64125e-16 3.78076e-18)
(0.5922 -2.2064e-15 -7.98576e-16)
(0.5922 -2.71231e-16 4.22801e-18)
(0.600641 -2.19557e-15 -8.09649e-16)
(0.600641 -2.77541e-16 4.95078e-18)
(0.608892 -2.18313e-15 -8.22323e-16)
(0.608892 -2.84784e-16 5.14005e-18)
(0.616961 -2.17173e-15 -8.3579e-16)
(0.616961 -2.90604e-16 5.14113e-18)
(0.62486 -2.16194e-15 -8.49465e-16)
(0.62486 -2.96732e-16 5.6336e-18)
(0.632597 -2.15152e-15 -8.64687e-16)
(0.632597 -3.04952e-16 5.8135e-18)
(0.640181 -2.13968e-15 -8.80915e-16)
(0.640181 -3.13255e-16 5.73413e-18)
(0.647619 -2.12521e-15 -8.98275e-16)
(0.647619 -3.24275e-16 5.92521e-18)
(0.654919 -2.10983e-15 -9.16659e-16)
(0.654919 -3.36248e-16 6.36965e-18)
(0.662088 -2.09462e-15 -9.35926e-16)
(0.662088 -3.49159e-16 6.43791e-18)
(0.669132 -2.07865e-15 -9.55889e-16)
(0.669132 -3.59211e-16 6.35898e-18)
(0.676058 -2.06534e-15 -9.57456e-16)
(0.676058 -3.6556e-16 7.14145e-18)
(0.682872 -2.05393e-15 -9.53198e-16)
(0.682872 -3.71409e-16 7.30823e-18)
(0.689578 -2.04046e-15 -9.49535e-16)
(0.689578 -3.78824e-16 8.14e-18)
(0.696182 -2.02608e-15 -9.45075e-16)
(0.696182 -3.90201e-16 9.06677e-18)
(0.702688 -2.01034e-15 -9.40571e-16)
(0.702688 -4.0153e-16 8.71531e-18)
(0.709102 -1.99138e-15 -9.3647e-16)
(0.709102 -4.10762e-16 8.60062e-18)
(0.715427 -1.97267e-15 -9.32568e-16)
(0.715427 -4.20842e-16 9.30928e-18)
(0.721667 -1.95173e-15 -9.28031e-16)
(0.721667 -4.33919e-16 9.10294e-18)
(0.727827 -1.92784e-15 -9.24555e-16)
(0.727827 -4.48741e-16 9.59825e-18)
(0.733909 -1.90192e-15 -9.20853e-16)
(0.733909 -4.67596e-16 1.84601e-18)
(0.739918 -1.87542e-15 -9.18272e-16)
(0.739918 -4.85244e-16 -6.82054e-18)
(0.745855 -1.85578e-15 -9.16489e-16)
(0.745855 -4.97021e-16 -1.40513e-17)
(0.751724 -1.83609e-15 -9.13742e-16)
(0.751724 -5.11121e-16 -2.35004e-17)
(0.757529 -1.81932e-15 -9.11366e-16)
(0.757529 -5.219e-16 -3.08391e-17)
(0.763271 -1.81105e-15 -9.06867e-16)
(0.763271 -5.26681e-16 -3.9571e-17)
(0.768953 -1.79943e-15 -9.01178e-16)
(0.768953 -5.34854e-16 -4.95038e-17)
(0.774578 -1.78429e-15 -8.95802e-16)
(0.774578 -5.43295e-16 -6.04277e-17)
(0.780148 -1.77098e-15 -8.89074e-16)
(0.780148 -5.51936e-16 -7.24898e-17)
(0.785664 -1.75842e-15 -8.82993e-16)
(0.785664 -5.63041e-16 -8.19746e-17)
(0.791129 -1.74131e-15 -8.74088e-16)
(0.791129 -5.70993e-16 -9.62786e-17)
(0.796546 -1.71972e-15 -8.66958e-16)
(0.796546 -5.82396e-16 -1.07962e-16)
(0.801914 -1.6961e-15 -8.59368e-16)
(0.801914 -6.03302e-16 -1.20577e-16)
(0.807237 -1.67257e-15 -8.51284e-16)
(0.807237 -6.17258e-16 -1.36067e-16)
(0.812516 -1.65501e-15 -8.42145e-16)
(0.812516 -6.26587e-16 -1.50801e-16)
(0.817753 -1.64214e-15 -8.31026e-16)
(0.817753 -6.34842e-16 -1.66095e-16)
(0.822948 -1.62568e-15 -8.19956e-16)
(0.822948 -6.4624e-16 -1.80124e-16)
(0.828104 -1.60614e-15 -8.06625e-16)
(0.828104 -6.64233e-16 -1.96484e-16)
(0.833221 -1.58018e-15 -7.93118e-16)
(0.833221 -6.84672e-16 -2.19461e-16)
(0.838302 -1.55371e-15 -7.8294e-16)
(0.838302 -7.00264e-16 -2.38803e-16)
(0.843346 -1.53295e-15 -7.71742e-16)
(0.843346 -7.12199e-16 -2.55642e-16)
(0.848355 -1.50886e-15 -7.56974e-16)
(0.848355 -7.30311e-16 -2.79063e-16)
(0.853331 -1.49042e-15 -7.45763e-16)
(0.853331 -7.4183e-16 -3.02154e-16)
(0.858273 -1.46884e-15 -7.32735e-16)
(0.858273 -7.54385e-16 -3.27644e-16)
(0.863184 -1.43456e-15 -7.21654e-16)
(0.863184 -7.63172e-16 -3.49837e-16)
(0.868064 -1.41478e-15 -7.13173e-16)
(0.868064 -7.8103e-16 -3.66315e-16)
(0.872913 -1.4075e-15 -6.93749e-16)
(0.872913 -7.98637e-16 -3.96203e-16)
(0.877733 -1.39052e-15 -6.73166e-16)
(0.877733 -8.08063e-16 -4.30589e-16)
(0.882524 -1.37031e-15 -6.60298e-16)
(0.882524 -8.1676e-16 -4.57447e-16)
(0.887287 -1.35636e-15 -6.48542e-16)
(0.887287 -8.21872e-16 -4.69427e-16)
(0.892022 -1.33805e-15 -6.26104e-16)
(0.892022 -8.33138e-16 -4.7525e-16)
(0.89673 -1.31467e-15 -6.13155e-16)
(0.89673 -8.43503e-16 -4.69599e-16)
(0.901412 -1.30336e-15 -5.93688e-16)
(0.901412 -8.68371e-16 -4.67585e-16)
(0.906069 -1.29326e-15 -5.95733e-16)
(0.906069 -8.78453e-16 -4.71499e-16)
(0.910699 -1.27859e-15 -5.96218e-16)
(0.910699 -8.76042e-16 -4.75856e-16)
(0.915305 -1.26337e-15 -5.86194e-16)
(0.915305 -8.82645e-16 -4.77606e-16)
(0.919885 -1.23927e-15 -5.84246e-16)
(0.919885 -8.7913e-16 -4.7848e-16)
(0.924441 -1.21348e-15 -5.80318e-16)
(0.924441 -8.82534e-16 -4.82361e-16)
(0.928974 -1.18969e-15 -5.82041e-16)
(0.928974 -8.83911e-16 -4.6378e-16)
(0.933482 -1.16642e-15 -5.7721e-16)
(0.933482 -8.64855e-16 -4.6213e-16)
(0.937966 -1.14736e-15 -5.69186e-16)
(0.937966 -8.51582e-16 -4.71007e-16)
(0.942427 -1.12847e-15 -5.59413e-16)
(0.942427 -8.47144e-16 -4.69427e-16)
(0.946864 -1.11119e-15 -5.53308e-16)
(0.946864 -8.23841e-16 -4.73313e-16)
(0.951277 -1.10215e-15 -5.42236e-16)
(0.951277 -8.2221e-16 -4.73822e-16)
(0.955667 -1.09532e-15 -5.07656e-16)
(0.955667 -8.21557e-16 -4.66485e-16)
(0.960034 -1.07537e-15 -5.0392e-16)
(0.960034 -8.13858e-16 -4.5306e-16)
(0.964377 -1.03407e-15 -4.83565e-16)
(0.964377 -8.34286e-16 -4.64131e-16)
(0.968696 -9.92709e-16 -4.80891e-16)
(0.968696 -8.58034e-16 -4.58683e-16)
(0.972991 -9.73566e-16 -4.62613e-16)
(0.972991 -8.69648e-16 -4.61228e-16)
(0.977261 -9.58869e-16 -4.61346e-16)
(0.977261 -8.56383e-16 -4.57574e-16)
(0.981508 -9.28485e-16 -4.64932e-16)
(0.981508 -8.51086e-16 -4.45287e-16)
(0.985729 -8.95764e-16 -4.75239e-16)
(0.985729 -8.52016e-16 -4.5031e-16)
(0.989925 -8.79828e-16 -4.54696e-16)
(0.989925 -8.45559e-16 -4.60371e-16)
(0.994095 -8.57225e-16 -4.57382e-16)
(0.994095 -8.41497e-16 -4.80472e-16)
(0.998239 -8.2728e-16 -4.79591e-16)
(0.998239 -8.09373e-16 -4.77607e-16)
(1.00236 -7.96375e-16 -5.05326e-16)
(1.00236 -7.98851e-16 -4.77106e-16)
(1.00644 -7.87242e-16 -5.4258e-16)
(1.00644 -8.07408e-16 -4.85873e-16)
(1.01051 -8.09662e-16 -5.14376e-16)
(1.01051 -8.18825e-16 -4.836e-16)
(1.01454 -8.51518e-16 -5.30249e-16)
(1.01454 -8.46139e-16 -4.30908e-16)
(1.01854 -8.59235e-16 -4.90251e-16)
(1.01854 -8.33615e-16 -4.04025e-16)
(1.02251 -8.63161e-16 -4.83751e-16)
(1.02251 -8.17052e-16 -3.96464e-16)
(1.02644 -8.60438e-16 -4.70353e-16)
(1.02644 -8.17962e-16 -4.24687e-16)
(1.03035 -8.36783e-16 -4.41441e-16)
(1.03035 -8.33603e-16 -4.33262e-16)
(1.03422 -8.12221e-16 -4.44879e-16)
(1.03422 -8.33507e-16 -4.71961e-16)
(1.03805 -8.07438e-16 -4.48621e-16)
(1.03805 -8.14482e-16 -4.64289e-16)
(1.04184 -8.34126e-16 -4.32584e-16)
(1.04184 -8.23414e-16 -4.73483e-16)
(1.04559 -8.03964e-16 -3.81781e-16)
(1.04559 -8.22264e-16 -4.82765e-16)
(1.0493 -7.71017e-16 -3.46018e-16)
(1.0493 -8.40515e-16 -4.40124e-16)
(1.05297 -7.79693e-16 -3.64537e-16)
(1.05297 -8.12053e-16 -4.50512e-16)
(1.05658 -7.74697e-16 -2.63101e-16)
(1.05658 -8.04431e-16 -5.43659e-16)
(1.06015 -7.58692e-16 -2.38355e-16)
(1.06015 -8.10039e-16 -5.30769e-16)
(1.06367 -7.43251e-16 -2.2505e-16)
(1.06367 -7.68986e-16 -4.9281e-16)
(1.06713 -7.2057e-16 -2.10908e-16)
(1.06713 -7.42392e-16 -4.76562e-16)
(1.07053 -7.11025e-16 -2.34274e-16)
(1.07053 -7.03092e-16 -3.38307e-16)
(1.07386 -7.54015e-16 -2.59844e-16)
(1.07386 -6.75783e-16 -3.34485e-16)
(1.07713 -7.51293e-16 -2.27961e-16)
(1.07713 -6.85943e-16 -3.22727e-16)
(1.08032 -6.91621e-16 -2.35659e-16)
(1.08032 -6.94743e-16 -2.64128e-16)
(1.08343 -6.809e-16 -2.52887e-16)
(1.08343 -6.6979e-16 -2.52152e-16)
(1.08646 -6.8825e-16 -2.36613e-16)
(1.08646 -6.83477e-16 -2.26547e-16)
(1.08939 -6.81289e-16 -2.41585e-16)
(1.08939 -6.8444e-16 -2.18405e-16)
(1.09223 -6.59035e-16 -2.1427e-16)
(1.09223 -6.99773e-16 -2.87403e-16)
(1.09495 -6.44391e-16 -2.54149e-16)
(1.09495 -6.76745e-16 -2.53968e-16)
(1.09755 -6.30028e-16 -2.54265e-16)
(1.09755 -6.23377e-16 -2.59871e-16)
(1.10002 -5.53423e-16 -2.05222e-16)
(1.10002 -5.43778e-16 -1.97039e-16)
(1.10234 -5.11315e-16 -1.93713e-16)
(1.10234 -5.06562e-16 -1.8824e-16)
(1.1045 -5.23188e-16 -2.07457e-16)
(1.1045 -5.16926e-16 -2.09795e-16)
(1.10648 -4.75367e-16 -2.0243e-16)
(1.10648 -5.14846e-16 -2.64816e-16)
(1.10826 -4.7049e-16 -2.43062e-16)
(1.10826 -4.9537e-16 -2.07236e-16)
(1.10981 -4.78485e-16 -2.71619e-16)
(1.10981 -4.3592e-16 -2.44167e-16)
(1.11112 -4.55414e-16 -2.77953e-16)
(1.11112 -4.19343e-16 -2.64638e-16)
(1.11214 -4.12335e-16 -2.15338e-16)
(1.11214 -4.01121e-16 -2.62597e-16)
(1.11286 -3.92433e-16 -2.00073e-16)
(1.11286 -4.14254e-16 -1.82762e-16)
(1.11324 -4.06918e-16 -3.32111e-16)
(1.11324 -4.11352e-16 -2.56738e-16)
(0.00469572 4.68438e-19 7.77386e-18)
(0.00469572 1.92424e-19 1.05943e-17)
(0.0142224 -1.5661e-18 2.24081e-17)
(0.0142224 -4.40307e-19 9.7931e-18)
(0.0240262 -2.1421e-18 2.32835e-17)
(0.0240262 -5.14892e-19 1.04289e-17)
(0.0341149 -3.41238e-18 2.87406e-17)
(0.0341149 -8.19072e-19 1.11451e-17)
(0.0444969 -4.73553e-18 3.03509e-17)
(0.0444969 -1.13613e-18 1.19513e-17)
(0.0551804 -6.09829e-18 3.20214e-17)
(0.0551804 -1.51788e-18 1.2857e-17)
(0.0661739 -7.52084e-18 3.37524e-17)
(0.0661739 -1.93263e-18 1.38712e-17)
(0.0774862 -9.05237e-18 3.55485e-17)
(0.0774862 -2.31866e-18 1.50001e-17)
(0.0891255 -1.0818e-17 3.73994e-17)
(0.0891255 -2.72797e-18 1.62643e-17)
(0.1011 -1.26089e-17 3.93061e-17)
(0.1011 -3.14103e-18 1.76752e-17)
(0.113418 -1.42933e-17 4.12699e-17)
(0.113418 -3.7448e-18 1.92294e-17)
(0.126086 -1.59813e-17 4.32903e-17)
(0.126086 -4.49485e-18 2.09441e-17)
(0.139108 -1.77167e-17 4.53551e-17)
(0.139108 -5.14649e-18 2.28238e-17)
(0.152487 -1.94106e-17 4.91754e-17)
(0.152487 -6.04603e-18 2.48749e-17)
(0.166222 -2.13922e-17 5.37581e-17)
(0.166222 -7.00438e-18 2.7099e-17)
(0.180307 -2.34004e-17 5.85053e-17)
(0.180307 -7.7254e-18 2.95072e-17)
(0.194729 -2.5342e-17 6.34133e-17)
(0.194729 -8.70495e-18 3.20731e-17)
(0.209469 -2.75386e-17 6.84297e-17)
(0.209469 -9.84993e-18 3.47865e-17)
(0.224498 -3.01313e-17 7.34952e-17)
(0.224498 -1.09421e-17 3.76117e-17)
(0.239777 -3.27834e-17 7.85477e-17)
(0.239777 -1.18514e-17 4.05381e-17)
(0.255256 -3.53992e-17 8.35356e-17)
(0.255256 -1.28314e-17 4.34999e-17)
(0.270879 -3.8417e-17 8.82845e-17)
(0.270879 -1.41288e-17 4.65382e-17)
(0.286579 -4.16043e-17 9.28127e-17)
(0.286579 -1.54739e-17 4.95731e-17)
(0.302285 -4.50194e-17 9.70425e-17)
(0.302285 -1.71552e-17 5.25336e-17)
(0.317927 -4.85572e-17 1.00885e-16)
(0.317927 -1.87523e-17 5.54064e-17)
(0.333434 -5.2217e-17 1.04392e-16)
(0.333434 -1.99116e-17 5.82052e-17)
(0.348741 -5.63088e-17 1.07487e-16)
(0.348741 -2.14312e-17 6.09243e-17)
(0.363793 -6.01406e-17 1.10126e-16)
(0.363793 -2.27736e-17 6.35266e-17)
(0.378544 -6.3843e-17 1.12515e-16)
(0.378544 -2.3273e-17 6.59352e-17)
(0.392956 -6.73026e-17 1.14501e-16)
(0.392956 -2.49205e-17 6.83381e-17)
(0.407004 -7.05102e-17 1.16282e-16)
(0.407004 -2.6605e-17 7.06956e-17)
(0.42067 -7.38265e-17 1.17801e-16)
(0.42067 -2.74098e-17 7.30685e-17)
(0.433947 -7.64294e-17 1.19159e-16)
(0.433947 -2.84379e-17 7.5386e-17)
(0.446833 -7.97811e-17 1.20388e-16)
(0.446833 -2.99242e-17 7.7795e-17)
(0.45933 -8.28304e-17 1.21653e-16)
(0.45933 -3.25076e-17 8.00531e-17)
(0.471448 -8.45902e-17 1.22829e-16)
(0.471448 -3.48298e-17 8.24516e-17)
(0.483197 -8.71367e-17 1.23961e-16)
(0.483197 -3.58168e-17 8.49877e-17)
(0.494589 -8.99881e-17 1.25139e-16)
(0.494589 -3.75546e-17 8.74768e-17)
(0.50564 -9.157e-17 1.26362e-16)
(0.50564 -4.02054e-17 8.99947e-17)
(0.516364 -9.35067e-17 1.27777e-16)
(0.516364 -4.10973e-17 9.23247e-17)
(0.526777 -9.5938e-17 1.29264e-16)
(0.526777 -4.19769e-17 9.48803e-17)
(0.536895 -9.74096e-17 1.31075e-16)
(0.536895 -4.22462e-17 9.75556e-17)
(0.546731 -9.93613e-17 1.32891e-16)
(0.546731 -4.28523e-17 1.0048e-16)
(0.556302 -1.02034e-16 1.34916e-16)
(0.556302 -4.54857e-17 1.03304e-16)
(0.565621 -1.04238e-16 1.37004e-16)
(0.565621 -4.74351e-17 1.0619e-16)
(0.574702 -1.05926e-16 1.39623e-16)
(0.574702 -4.83848e-17 1.09004e-16)
(0.583558 -1.08191e-16 1.42444e-16)
(0.583558 -4.93589e-17 1.11844e-16)
(0.5922 -1.11794e-16 1.45138e-16)
(0.5922 -5.1395e-17 1.15004e-16)
(0.600641 -1.14875e-16 1.48063e-16)
(0.600641 -5.42186e-17 1.18025e-16)
(0.608892 -1.1558e-16 1.50985e-16)
(0.608892 -5.6696e-17 1.20917e-16)
(0.616961 -1.15782e-16 1.54276e-16)
(0.616961 -5.58073e-17 1.23682e-16)
(0.62486 -1.19571e-16 1.58318e-16)
(0.62486 -5.64286e-17 1.26489e-16)
(0.632597 -1.24535e-16 1.60908e-16)
(0.632597 -5.65406e-17 1.29836e-16)
(0.640181 -1.23439e-16 1.64028e-16)
(0.640181 -5.57259e-17 1.33491e-16)
(0.647619 -1.2344e-16 1.68147e-16)
(0.647619 -5.56567e-17 1.36952e-16)
(0.654919 -1.27061e-16 1.71598e-16)
(0.654919 -5.30092e-17 1.40722e-16)
(0.662088 -1.30568e-16 1.74975e-16)
(0.662088 -5.17872e-17 1.44881e-16)
(0.669132 -1.35167e-16 1.78419e-16)
(0.669132 -4.92604e-17 1.49565e-16)
(0.676058 -1.38637e-16 1.81607e-16)
(0.676058 -4.84405e-17 1.54457e-16)
(0.682872 -1.41231e-16 1.85135e-16)
(0.682872 -5.18364e-17 1.58965e-16)
(0.689578 -1.44189e-16 1.89392e-16)
(0.689578 -5.45937e-17 1.63797e-16)
(0.696182 -1.47225e-16 1.93617e-16)
(0.696182 -5.83678e-17 1.6736e-16)
(0.702688 -1.50452e-16 1.98172e-16)
(0.702688 -6.14742e-17 1.71316e-16)
(0.709102 -1.52856e-16 2.03322e-16)
(0.709102 -6.30818e-17 1.75919e-16)
(0.715427 -1.54101e-16 2.08722e-16)
(0.715427 -6.70524e-17 1.80879e-16)
(0.721667 -1.57219e-16 2.14443e-16)
(0.721667 -7.15882e-17 1.85865e-16)
(0.727827 -1.60539e-16 2.21108e-16)
(0.727827 -7.80036e-17 1.90288e-16)
(0.733909 -1.60364e-16 2.28645e-16)
(0.733909 -8.27977e-17 1.94304e-16)
(0.739918 -1.62152e-16 2.36952e-16)
(0.739918 -8.51956e-17 1.99269e-16)
(0.745855 -1.66134e-16 2.44699e-16)
(0.745855 -8.55603e-17 2.05693e-16)
(0.751724 -1.67747e-16 2.53708e-16)
(0.751724 -8.52823e-17 2.10451e-16)
(0.757529 -1.70702e-16 2.63182e-16)
(0.757529 -8.88141e-17 2.16304e-16)
(0.763271 -1.71321e-16 2.71201e-16)
(0.763271 -9.44985e-17 2.22605e-16)
(0.768953 -1.69844e-16 2.80468e-16)
(0.768953 -9.94812e-17 2.28675e-16)
(0.774578 -1.6951e-16 2.91161e-16)
(0.774578 -1.00942e-16 2.28985e-16)
(0.780148 -1.72461e-16 3.02745e-16)
(0.780148 -1.04031e-16 2.23219e-16)
(0.785664 -1.79596e-16 3.13772e-16)
(0.785664 -1.058e-16 2.18266e-16)
(0.791129 -1.84706e-16 3.24591e-16)
(0.791129 -1.04567e-16 2.10834e-16)
(0.796546 -1.86785e-16 3.37556e-16)
(0.796546 -1.08797e-16 2.04766e-16)
(0.801914 -1.90015e-16 3.51623e-16)
(0.801914 -1.12957e-16 1.97537e-16)
(0.807237 -1.98643e-16 3.64371e-16)
(0.807237 -1.13389e-16 1.89482e-16)
(0.812516 -2.01922e-16 3.76748e-16)
(0.812516 -1.1326e-16 1.81496e-16)
(0.817753 -2.03021e-16 3.91571e-16)
(0.817753 -1.1738e-16 1.73057e-16)
(0.822948 -2.05181e-16 4.02399e-16)
(0.822948 -1.23445e-16 1.66805e-16)
(0.828104 -2.01231e-16 4.13345e-16)
(0.828104 -1.22501e-16 1.56897e-16)
(0.833221 -1.94678e-16 4.25804e-16)
(0.833221 -1.22272e-16 1.44092e-16)
(0.838302 -1.86701e-16 4.45417e-16)
(0.838302 -1.24573e-16 1.36737e-16)
(0.843346 -1.80279e-16 4.64464e-16)
(0.843346 -1.23376e-16 1.2482e-16)
(0.848355 -1.75494e-16 4.77288e-16)
(0.848355 -1.27781e-16 1.10632e-16)
(0.853331 -1.73735e-16 4.76218e-16)
(0.853331 -1.29926e-16 9.83129e-17)
(0.858273 -1.77555e-16 4.77077e-16)
(0.858273 -1.16752e-16 8.80994e-17)
(0.863184 -1.80836e-16 4.77871e-16)
(0.863184 -1.15368e-16 8.0121e-17)
(0.868064 -1.79718e-16 4.74749e-16)
(0.868064 -1.31851e-16 7.13645e-17)
(0.872913 -1.81561e-16 4.71424e-16)
(0.872913 -1.32924e-16 6.79579e-17)
(0.877733 -1.88727e-16 4.68752e-16)
(0.877733 -1.30036e-16 7.40892e-17)
(0.882524 -1.94221e-16 4.67381e-16)
(0.882524 -1.40415e-16 7.93818e-17)
(0.887287 -2.05296e-16 4.71666e-16)
(0.887287 -1.49543e-16 7.65512e-17)
(0.892022 -2.15723e-16 4.68875e-16)
(0.892022 -1.50206e-16 6.94076e-17)
(0.89673 -2.15884e-16 4.58785e-16)
(0.89673 -1.48165e-16 6.75624e-17)
(0.901412 -2.21505e-16 4.51268e-16)
(0.901412 -1.41838e-16 7.6657e-17)
(0.906069 -2.31941e-16 4.47e-16)
(0.906069 -1.44778e-16 7.99791e-17)
(0.910699 -2.26111e-16 4.42829e-16)
(0.910699 -1.64625e-16 1.01445e-16)
(0.915305 -2.21237e-16 4.43096e-16)
(0.915305 -1.86857e-16 1.1337e-16)
(0.919885 -2.26795e-16 4.42765e-16)
(0.919885 -1.86808e-16 1.27176e-16)
(0.924441 -2.29096e-16 4.43733e-16)
(0.924441 -1.7313e-16 1.31919e-16)
(0.928974 -2.34267e-16 4.23452e-16)
(0.928974 -1.8292e-16 1.50497e-16)
(0.933482 -2.34836e-16 4.24486e-16)
(0.933482 -1.77796e-16 1.64118e-16)
(0.937966 -2.40654e-16 4.28744e-16)
(0.937966 -1.88058e-16 1.79104e-16)
(0.942427 -2.46567e-16 4.25707e-16)
(0.942427 -2.2092e-16 2.03257e-16)
(0.946864 -2.40715e-16 4.22043e-16)
(0.946864 -2.04269e-16 2.16914e-16)
(0.951277 -2.33927e-16 4.19459e-16)
(0.951277 -2.20238e-16 2.18231e-16)
(0.955667 -2.45979e-16 4.25235e-16)
(0.955667 -2.13396e-16 2.36398e-16)
(0.960034 -2.55273e-16 3.96221e-16)
(0.960034 -2.00122e-16 2.83099e-16)
(0.964377 -2.54536e-16 3.93817e-16)
(0.964377 -2.29726e-16 2.98133e-16)
(0.968696 -2.52678e-16 3.65383e-16)
(0.968696 -2.50488e-16 3.16434e-16)
(0.972991 -2.58495e-16 3.7595e-16)
(0.972991 -2.63545e-16 3.28505e-16)
(0.977261 -2.87639e-16 3.7974e-16)
(0.977261 -2.50331e-16 3.28814e-16)
(0.981508 -3.01122e-16 3.63505e-16)
(0.981508 -2.6016e-16 3.38645e-16)
(0.985729 -2.93835e-16 3.44575e-16)
(0.985729 -2.80237e-16 3.46254e-16)
(0.989925 -3.0469e-16 3.69263e-16)
(0.989925 -2.95615e-16 3.62041e-16)
(0.994095 -3.1944e-16 3.57295e-16)
(0.994095 -3.16916e-16 3.49243e-16)
(0.998239 -3.30261e-16 3.74306e-16)
(0.998239 -3.25696e-16 3.5491e-16)
(1.00236 -3.43186e-16 3.86033e-16)
(1.00236 -3.1921e-16 3.78997e-16)
(1.00644 -3.39491e-16 3.76443e-16)
(1.00644 -2.94051e-16 3.68858e-16)
(1.01051 -3.51239e-16 4.25026e-16)
(1.01051 -2.76432e-16 3.39941e-16)
(1.01454 -3.45397e-16 3.6825e-16)
(1.01454 -3.28271e-16 3.44246e-16)
(1.01854 -3.30693e-16 3.72131e-16)
(1.01854 -3.48883e-16 3.37203e-16)
(1.02251 -3.52518e-16 3.35561e-16)
(1.02251 -3.58512e-16 3.33107e-16)
(1.02644 -3.59641e-16 3.18292e-16)
(1.02644 -3.86011e-16 3.0037e-16)
(1.03035 -3.85094e-16 3.38381e-16)
(1.03035 -3.98539e-16 2.96812e-16)
(1.03422 -4.145e-16 3.29495e-16)
(1.03422 -4.08861e-16 2.78807e-16)
(1.03805 -4.2717e-16 3.05844e-16)
(1.03805 -4.30101e-16 3.28108e-16)
(1.04184 -4.31348e-16 2.77793e-16)
(1.04184 -4.50057e-16 3.31014e-16)
(1.04559 -4.31466e-16 2.43258e-16)
(1.04559 -4.60898e-16 3.1564e-16)
(1.0493 -4.34282e-16 2.56815e-16)
(1.0493 -5.042e-16 3.60001e-16)
(1.05297 -4.03502e-16 2.40633e-16)
(1.05297 -5.3645e-16 4.56435e-16)
(1.05658 -4.15438e-16 4.4336e-16)
(1.05658 -5.50347e-16 3.93749e-16)
(1.06015 -4.35687e-16 5.02901e-16)
(1.06015 -5.1124e-16 3.05813e-16)
(1.06367 -4.60614e-16 4.95406e-16)
(1.06367 -4.51119e-16 2.72196e-16)
(1.06713 -4.95548e-16 4.70015e-16)
(1.06713 -4.07273e-16 2.24009e-16)
(1.07053 -5.10261e-16 3.91506e-16)
(1.07053 -4.55627e-16 2.69944e-16)
(1.07386 -5.51638e-16 3.7657e-16)
(1.07386 -4.60043e-16 2.46842e-16)
(1.07713 -5.70557e-16 2.59771e-16)
(1.07713 -4.89353e-16 1.87216e-16)
(1.08032 -5.21183e-16 1.78092e-16)
(1.08032 -4.97531e-16 2.10463e-16)
(1.08343 -4.83088e-16 2.16473e-16)
(1.08343 -4.8225e-16 1.70044e-16)
(1.08646 -5.37433e-16 2.69945e-16)
(1.08646 -5.63619e-16 2.26292e-16)
(1.08939 -5.5119e-16 1.9428e-16)
(1.08939 -5.66902e-16 2.67928e-16)
(1.09223 -5.78218e-16 2.80187e-16)
(1.09223 -6.10386e-16 2.78676e-16)
(1.09495 -5.56768e-16 3.05455e-16)
(1.09495 -5.85815e-16 2.63023e-16)
(1.09755 -5.13977e-16 3.18744e-16)
(1.09755 -5.10673e-16 2.2158e-16)
(1.10002 -5.39081e-16 2.59888e-16)
(1.10002 -4.83212e-16 2.21539e-16)
(1.10234 -5.20381e-16 2.37325e-16)
(1.10234 -4.8163e-16 2.58717e-16)
(1.1045 -5.03192e-16 3.19467e-16)
(1.1045 -4.93115e-16 2.7229e-16)
(1.10648 -4.63266e-16 2.33508e-16)
(1.10648 -4.75928e-16 2.63651e-16)
(1.10826 -4.25531e-16 1.89325e-16)
(1.10826 -4.4372e-16 2.06101e-16)
(1.10981 -3.71784e-16 3.59761e-16)
(1.10981 -4.13511e-16 3.09423e-16)
(1.11112 -4.84478e-16 2.99235e-16)
(1.11112 -4.41845e-16 2.44751e-16)
(1.11214 -3.16573e-16 1.76847e-16)
(1.11214 -4.28644e-16 2.02931e-16)
(1.11286 -2.79363e-16 2.55544e-16)
(1.11286 -4.32179e-16 2.62757e-16)
(1.11324 -4.47e-16 2.30498e-16)
(1.11324 -4.01877e-16 2.05385e-16)
(1.11324 -2.50279e-16 -2.87643e-16)
(1.11324 -3.31894e-16 -2.63572e-16)
(1.11286 -3.43043e-16 -4.62093e-16)
(1.11286 -3.83752e-16 -3.37038e-16)
(1.11214 -3.42182e-16 -3.73222e-16)
(1.11214 -3.3027e-16 -3.3648e-16)
(1.11112 -2.78524e-16 -4.16113e-16)
(1.11112 -3.10993e-16 -2.17595e-16)
(1.10981 -2.08834e-16 -4.83033e-16)
(1.10981 -3.83891e-16 -5.18847e-16)
(1.10826 -3.98221e-16 -4.76987e-16)
(1.10826 -2.14371e-16 -2.99376e-16)
(1.10648 -4.26901e-16 -4.33169e-16)
(1.10648 -3.10939e-16 -3.08648e-16)
(1.1045 -3.85657e-16 -2.4176e-16)
(1.1045 -3.71312e-16 -2.27911e-16)
(1.10234 -2.88268e-16 -1.12686e-16)
(1.10234 -3.13778e-16 -2.40891e-16)
(1.10002 -2.67052e-16 -2.03883e-16)
(1.10002 -2.50147e-16 -1.95849e-16)
(1.09755 -2.50856e-16 -1.12471e-16)
(1.09755 -2.31229e-16 -1.87174e-16)
(1.09495 -2.19493e-16 -1.29609e-16)
(1.09495 -2.51743e-16 -2.7489e-16)
(1.09223 -2.34685e-16 -1.76062e-16)
(1.09223 -2.60517e-16 -2.09976e-16)
(1.08939 -2.35182e-16 -1.62709e-16)
(1.08939 -2.4596e-16 -1.57334e-16)
(1.08646 -2.04036e-16 -1.53456e-16)
(1.08646 -1.94057e-16 -1.42272e-16)
(1.08343 -1.7852e-16 -1.25266e-16)
(1.08343 -2.09666e-16 -9.56311e-17)
(1.08032 -1.25911e-16 -1.9065e-16)
(1.08032 -2.35733e-16 -8.76817e-17)
(1.07713 -2.37234e-16 -1.33949e-16)
(1.07713 -2.32304e-16 -1.16808e-16)
(1.07386 -2.18283e-16 -9.71251e-17)
(1.07386 -2.06735e-16 -1.31824e-16)
(1.07053 -2.1944e-16 -9.02195e-17)
(1.07053 -1.88001e-16 -6.1561e-17)
(1.06713 -1.79655e-16 -6.774e-17)
(1.06713 -1.21237e-16 -1.01915e-16)
(1.06367 -1.57994e-16 -8.66056e-17)
(1.06367 -1.58433e-16 -8.02579e-17)
(1.06015 -1.12665e-16 -5.1078e-17)
(1.06015 -1.03462e-16 -1.68247e-17)
(1.05658 -8.84155e-17 -5.22152e-17)
(1.05658 -6.90535e-17 -3.43728e-17)
(1.05297 -8.01203e-17 -4.22925e-17)
(1.05297 -8.6866e-17 -2.56974e-17)
(1.0493 -9.76998e-17 -4.73747e-17)
(1.0493 -9.79305e-17 -3.64332e-17)
(1.04559 -9.73636e-17 -1.04569e-16)
(1.04559 -8.45234e-17 -6.65072e-17)
(1.04184 -8.32484e-17 -9.18202e-17)
(1.04184 -6.81001e-17 -9.14628e-17)
(1.03805 -4.85674e-17 -8.59262e-17)
(1.03805 -6.10405e-17 -8.71848e-17)
(1.03422 -3.34198e-17 -7.74609e-17)
(1.03422 -6.00454e-17 -1.03415e-16)
(1.03035 -5.01528e-17 -6.85596e-17)
(1.03035 -6.81515e-17 -1.0829e-16)
(1.02644 -3.85517e-17 -5.54498e-17)
(1.02644 -8.12485e-17 -5.51602e-17)
(1.02251 -4.71994e-17 -6.72531e-17)
(1.02251 -5.95328e-17 -6.07852e-17)
(1.01854 -6.43162e-17 -9.89733e-17)
(1.01854 -7.24551e-17 -5.05389e-17)
(1.01454 -7.09763e-17 -6.64153e-17)
(1.01454 -7.27033e-17 -5.19071e-17)
(1.01051 -8.29196e-17 -6.38294e-17)
(1.01051 -3.92824e-17 -4.31724e-17)
(1.00644 -6.00287e-17 -5.10516e-17)
(1.00644 -6.69399e-17 -4.64544e-17)
(1.00236 -1.01466e-16 -4.52208e-17)
(1.00236 -7.09856e-17 -3.65391e-17)
(0.998239 -9.54051e-17 -3.02844e-17)
(0.998239 -8.17696e-17 -3.20191e-17)
(0.994095 -8.74602e-17 -3.00852e-17)
(0.994095 -8.35155e-17 -1.58676e-17)
(0.989925 -7.7775e-17 -2.16745e-17)
(0.989925 -7.79065e-17 -3.29724e-17)
(0.985729 -7.91601e-17 -2.8429e-17)
(0.985729 -7.55337e-17 -3.10158e-17)
(0.981508 -7.68774e-17 -2.58558e-17)
(0.981508 -8.62183e-17 -3.47482e-17)
(0.977261 -8.07208e-17 -3.58909e-17)
(0.977261 -8.45642e-17 -2.90567e-17)
(0.972991 -5.5743e-17 -3.33859e-17)
(0.972991 -7.97417e-17 -2.8714e-17)
(0.968696 -7.18129e-17 -2.8313e-17)
(0.968696 -6.56684e-17 -1.56473e-17)
(0.964377 -7.58571e-17 -2.39181e-17)
(0.964377 -5.228e-17 -2.24298e-17)
(0.960034 -5.09666e-17 -3.33387e-17)
(0.960034 -5.50478e-17 -2.24945e-17)
(0.955667 -5.45365e-17 -2.61211e-17)
(0.955667 -5.44657e-17 -2.83897e-17)
(0.951277 -5.21772e-17 -1.06541e-17)
(0.951277 -4.94767e-17 -3.78386e-17)
(0.946864 -5.09503e-17 -9.89825e-18)
(0.946864 -4.21054e-17 -3.99418e-17)
(0.942427 -4.99573e-17 -2.104e-17)
(0.942427 -4.31908e-17 -3.50618e-17)
(0.937966 -4.89772e-17 -2.71391e-17)
(0.937966 -4.6808e-17 -3.02192e-17)
(0.933482 -4.8135e-17 -2.89575e-17)
(0.933482 -5.5307e-17 -2.88514e-17)
(0.928974 -4.57594e-17 -2.30046e-17)
(0.928974 -5.51927e-17 -3.22362e-17)
(0.924441 -5.37473e-17 -2.40233e-17)
(0.924441 -6.11031e-17 -3.15894e-17)
(0.919885 -5.30884e-17 -1.33579e-17)
(0.919885 -5.86506e-17 -3.56147e-17)
(0.915305 -6.07501e-17 -9.29287e-18)
(0.915305 -4.88777e-17 -3.60323e-17)
(0.910699 -5.40116e-17 -8.10234e-18)
(0.910699 -5.37775e-17 -3.17741e-17)
(0.906069 -4.02552e-17 -8.97568e-18)
(0.906069 -6.18331e-17 -2.58462e-17)
(0.901412 -2.8912e-17 -1.36199e-17)
(0.901412 -5.81563e-17 -3.04056e-17)
(0.89673 -3.54107e-17 -1.67285e-17)
(0.89673 -4.1722e-17 -3.01204e-17)
(0.892022 -2.74198e-17 -1.73707e-17)
(0.892022 -3.34935e-17 -2.17429e-17)
(0.887287 -4.34917e-17 -1.55128e-17)
(0.887287 -2.895e-17 -1.51163e-17)
(0.882524 -3.18285e-17 -1.01631e-17)
(0.882524 -2.94253e-17 -9.17485e-18)
(0.877733 -2.70567e-17 -1.12146e-17)
(0.877733 -4.15199e-17 -4.10087e-18)
(0.872913 -2.83136e-17 -7.37867e-18)
(0.872913 -4.02619e-17 -5.27763e-18)
(0.868064 -2.83687e-17 -5.11958e-18)
(0.868064 -3.78843e-17 -3.75955e-18)
(0.863184 -2.1742e-17 -1.01983e-17)
(0.863184 -3.2592e-17 -5.58583e-18)
(0.858273 -1.08008e-17 -1.14741e-17)
(0.858273 -4.33635e-17 -9.63367e-18)
(0.853331 -1.85013e-17 -9.26022e-18)
(0.853331 -4.03976e-17 -1.04083e-17)
(0.848355 -1.735e-17 -1.15304e-17)
(0.848355 -2.22059e-17 -1.19143e-17)
(0.843346 -1.42465e-17 -1.07958e-17)
(0.843346 -2.94249e-17 -1.43698e-17)
(0.838302 -1.39703e-17 -8.29943e-18)
(0.838302 -3.06239e-17 -1.4662e-17)
(0.833221 -1.7787e-17 -7.49838e-18)
(0.833221 -2.95728e-17 -1.37415e-17)
(0.828104 -2.4494e-17 -3.94819e-18)
(0.828104 -1.95459e-17 -1.45291e-17)
(0.822948 -2.5775e-17 -4.76677e-18)
(0.822948 -1.512e-17 -1.52597e-17)
(0.817753 -2.50357e-17 -4.55417e-18)
(0.817753 -2.21752e-17 -1.58219e-17)
(0.812516 -2.33982e-17 -1.27516e-18)
(0.812516 -1.20996e-17 -1.59176e-17)
(0.807237 -2.56583e-17 -1.11128e-18)
(0.807237 -1.24441e-17 -1.44972e-17)
(0.801914 -2.43179e-17 -1.19439e-18)
(0.801914 -5.92082e-18 -1.57856e-17)
(0.796546 -2.38628e-17 -1.32085e-18)
(0.796546 -9.82648e-18 -1.70102e-17)
(0.791129 -2.17262e-17 -8.70483e-19)
(0.791129 -1.48928e-17 -1.80096e-17)
(0.785664 -1.55131e-17 -4.38475e-19)
(0.785664 -1.5481e-17 -1.8068e-17)
(0.780148 -1.58729e-17 -5.65972e-19)