/*--------------------------------*- C++ -*----------------------------------*\
| =========                 |                                                 |
| \\      /  F ield         | OpenFOAM: The Open Source CFD Toolbox           |
|  \\    /   O peration     | Version:  2012                                  |
|   \\  /    A nd           | Website:  www.openfoam.com                      |
|    \\/     M anipulation  |                                                 |
\*---------------------------------------------------------------------------*/
FoamFile
{
    version     2.0;
    format      ascii;
    class       volScalarField;
    location    "11000";
    object      k;
}
// * * * * * * * * * * * * * * * * * * * * * * * * * * * * * * * * * * * * * //

dimensions      [0 2 -2 0 0 0 0];


internalField   nonuniform List<scalar> 
2560
(
3.50222e-05
3.50222e-05
0.000128087
0.000128087
0.000891568
0.000891568
0.00329537
0.00329537
0.00866456
0.00866456
0.0186028
0.0186028
0.0349148
0.0349148
0.0594258
0.0594258
0.0936284
0.0936284
0.138192
0.138192
0.192581
0.192581
0.255132
0.255132
0.32364
0.32364
0.39605
0.39605
0.470831
0.470831
0.547022
0.547022
0.624104
0.624104
0.701838
0.701838
0.780146
0.780146
0.859031
0.859031
0.938519
0.938519
1.01863
1.01863
1.09936
1.09936
1.18067
1.18067
1.26246
1.26246
1.34459
1.34459
1.42688
1.42688
1.50908
1.50908
1.59089
1.59089
1.67195
1.67195
1.75189
1.75189
1.83025
1.83025
1.90655
1.90655
1.98027
1.98027
2.05086
2.05086
2.11775
2.11775
2.18034
2.18034
2.23802
2.23802
2.29018
2.29018
2.33621
2.33621
2.37549
2.37549
2.40745
2.40745
2.43153
2.43153
2.4472
2.4472
2.45401
2.45401
2.45155
2.45155
2.4395
2.4395
2.41763
2.41763
2.38584
2.38584
2.34415
2.34415
2.29276
2.29276
2.23202
2.23202
2.16251
2.16251
2.08498
2.08498
2.00046
2.00046
1.91017
1.91017
1.81559
1.81559
1.71841
1.71841
1.62051
1.62051
1.5239
1.5239
1.4307
1.4307
1.34299
1.34299
1.26278
1.26278
1.19184
1.19184
1.13158
1.13158
1.08294
1.08294
1.04632
1.04632
1.02149
1.02149
1.00747
1.00747
1.00285
1.00285
1.00587
1.00587
1.01461
1.01461
1.02714
1.02714
1.04171
1.04171
1.05684
1.05684
1.07132
1.07132
1.08429
1.08429
1.09514
1.09514
1.10353
1.10353
1.10929
1.10929
1.11239
1.11239
1.1129
1.1129
1.11097
1.11097
1.10675
1.10675
1.10045
1.10045
1.09223
1.09223
1.08229
1.08229
1.07079
1.07079
1.05789
1.05789
1.04372
1.04372
1.02842
1.02842
1.0121
1.0121
0.994878
0.994878
0.976845
0.976845
0.958099
0.958099
0.938727
0.938727
0.918814
0.918814
0.89844
0.89844
0.87768
0.87768
0.856611
0.856611
0.835302
0.835302
0.813822
0.813822
0.792234
0.792234
0.7706
0.7706
0.748978
0.748978
0.727423
0.727423
0.705985
0.705985
0.68471
0.68471
0.663641
0.663641
0.642818
0.642818
0.622274
0.622274
0.602042
0.602042
0.582148
0.582148
0.562616
0.562616
0.543466
0.543466
0.524716
0.524716
0.506379
0.506379
0.488467
0.488467
0.470988
0.470988
0.453947
0.453947
0.437349
0.437349
0.421193
0.421193
0.40548
0.40548
0.390207
0.390207
0.375369
0.375369
0.360961
0.360961
0.346976
0.346976
0.333407
0.333407
0.320244
0.320244
0.307478
0.307478
0.295102
0.295102
0.283106
0.283106
0.271481
0.271481
0.260218
0.260218
0.249309
0.249309
0.238746
0.238746
0.228521
0.228521
0.218626
0.218626
0.209053
0.209053
0.199793
0.199793
0.190839
0.190839
0.182183
0.182183
0.173817
0.173817
0.165732
0.165732
0.157922
0.157922
0.150379
0.150379
0.143098
0.143098
0.136072
0.136072
0.129296
0.129296
0.122767
0.122767
0.116479
0.116479
0.110429
0.110429
0.104615
0.104615
0.0990354
0.0990354
0.0936877
0.0936877
0.0885712
0.0885712
0.0836855
0.0836855
0.0790303
0.0790303
0.0746052
0.0746052
0.0704092
0.0704092
0.0664406
0.0664406
0.0626963
0.0626963
0.0591715
0.0591715
0.0558595
0.0558596
0.0527516
0.0527516
0.0498368
0.0498368
0.0471024
0.0471025
0.0445343
0.0445343
0.042117
0.042117
0.039835
0.039835
0.0376731
0.0376732
0.035618
0.035618
0.0336581
0.0336581
0.0317846
0.0317846
0.0299917
0.0299917
0.0282758
0.0282758
0.0266355
0.0266356
0.0250709
0.0250709
0.0235827
0.0235827
0.0221718
0.0221718
0.0208391
0.0208392
0.019585
0.019585
0.0184087
0.0184087
0.0173084
0.0173084
0.0162811
0.0162811
0.0153226
0.0153226
0.0144283
0.0144284
0.0135932
0.0135932
0.0128118
0.0128118
0.0120793
0.0120793
0.0113918
0.0113918
0.0107466
0.0107466
0.0101423
0.0101423
0.00957818
0.00957818
0.00905432
0.00905433
0.00857098
0.00857099
0.00812871
0.00812871
0.00772798
0.00772798
0.00736899
0.00736899
0.0070515
0.0070515
0.00677447
0.00677447
0.00653604
0.00653604
0.00633373
0.00633373
0.00616455
0.00616455
0.00602516
0.00602516
0.00591202
0.00591202
0.00582142
0.00582142
0.00574967
0.00574967
0.00569346
0.00569346
0.00565021
0.00565021
0.00561826
0.00561826
0.00559665
0.00559665
0.00558482
0.00558482
0.00558224
0.00558224
0.00558832
0.00558832
0.00560226
0.00560226
0.00562306
0.00562306
0.0056494
0.0056494
0.00567949
0.00567949
0.00571087
0.00571087
0.00574051
0.00574051
0.00576533
0.00576533
0.00578325
0.00578325
0.00579405
0.00579405
0.00579964
0.00579964
0.00580334
0.00580334
0.00580861
0.00580861
0.00581805
0.00581805
0.00583286
0.00583286
0.00585281
0.00585281
0.00587644
0.00587644
0.00590137
0.00590137
0.00592517
0.00592517
0.00594607
0.00594607
0.0059631
0.0059631
0.00597603
0.00597603
0.00598551
0.00598551
0.00599346
0.00599346
0.00600335
0.00600335
0.00601961
0.00601961
0.006046
0.006046
0.00608469
0.00608469
0.00613608
0.00613608
0.00620036
0.00620037
0.00627838
0.00627838
0.00637078
0.00637078
0.0064757
0.0064757
0.00658634
0.00658634
0.00668844
0.00668844
0.00676322
0.00676322
0.00679637
0.00679637
0.0067864
0.0067864
0.00674502
0.00674503
0.00669179
0.0066918
0.00664609
0.00664609
0.00662012
0.00662012
0.00661475
0.00661475
0.00663057
0.00663057
0.00666796
0.00666796
0.00671623
0.00671623
0.00676188
0.00676188
0.00680034
0.00680035
0.00683981
0.00683981
0.00689369
0.0068937
0.00697369
0.00697369
0.00708113
0.00708114
0.00721157
0.00721157
0.00736144
0.00736145
0.00752999
0.00753
0.00771859
0.0077186
0.0079305
0.00793051
0.0081711
0.00817111
0.00844656
0.00844657
0.00876079
0.0087608
0.0091136
0.00911361
0.00949957
0.00949958
0.00991118
0.0099112
0.0103384
0.0103384
0.0107688
0.0107688
0.0111945
0.0111946
0.0116175
0.0116176
0.0120427
0.0120428
0.012465
0.012465
0.0128596
0.0128596
0.0131847
0.0131847
0.0133991
0.0133992
0.0134799
0.01348
0.0134193
0.0134193
0.0132166
0.0132166
0.0128976
0.0128977
0.0125368
0.0125368
0.0122276
0.0122277
0.011987
0.0119871
0.0117979
0.011798
0.0116655
0.0116656
0.0116055
0.0116055
0.0115988
0.0115988
0.0115783
0.0115783
0.0114873
0.0114873
0.0113103
0.0113103
0.0110686
0.0110686
0.0107952
0.0107952
0.0105119
0.0105119
0.0102228
0.0102228
0.00993386
0.00993388
0.00967391
0.00967392
0.00947136
0.00947138
0.00932435
0.00932437
0.00922619
0.00922621
0.00918713
0.00918715
0.00920902
0.00920903
0.00927631
0.00927633
0.00937403
0.00937404
0.00949116
0.00949117
0.00959227
0.00959229
0.00960786
0.00960788
0.00950435
0.00950438
0.00934767
0.00934772
0.00921949
0.00921958
0.00914908
0.00914922
3.50222e-05
3.50222e-05
0.000128087
0.000128087
0.000891568
0.000891568
0.00329538
0.00329538
0.00866456
0.00866456
0.0186028
0.0186028
0.0349149
0.0349149
0.0594258
0.0594258
0.0936284
0.0936284
0.138192
0.138192
0.192581
0.192581
0.255132
0.255132
0.323641
0.323641
0.39605
0.39605
0.470831
0.470831
0.547023
0.547023
0.624104
0.624104
0.701838
0.701838
0.780147
0.780147
0.859031
0.859031
0.938519
0.938519
1.01863
1.01863
1.09936
1.09936
1.18067
1.18067
1.26246
1.26246
1.34459
1.34459
1.42688
1.42688
1.50908
1.50908
1.59089
1.59089
1.67196
1.67196
1.75189
1.75189
1.83025
1.83025
1.90655
1.90655
1.98027
1.98027
2.05086
2.05086
2.11775
2.11775
2.18034
2.18034
2.23802
2.23802
2.29018
2.29018
2.33621
2.33621
2.37549
2.37549
2.40745
2.40745
2.43153
2.43153
2.4472
2.4472
2.45401
2.45401
2.45155
2.45155
2.4395
2.4395
2.41763
2.41763
2.38584
2.38584
2.34415
2.34415
2.29276
2.29276
2.23203
2.23203
2.16251
2.16251
2.08498
2.08498
2.00046
2.00046
1.91017
1.91017
1.81559
1.81559
1.71841
1.71841
1.62051
1.62051
1.52391
1.52391
1.4307
1.4307
1.34299
1.34299
1.26279
1.26279
1.19184
1.19184
1.13158
1.13158
1.08294
1.08294
1.04632
1.04632
1.02149
1.02149
1.00747
1.00747
1.00285
1.00285
1.00587
1.00587
1.01461
1.01461
1.02714
1.02714
1.04171
1.04171
1.05684
1.05684
1.07132
1.07132
1.08429
1.08429
1.09514
1.09514
1.10353
1.10353
1.10929
1.10929
1.11238
1.11238
1.1129
1.1129
1.11097
1.11097
1.10675
1.10675
1.10045
1.10045
1.09223
1.09223
1.08229
1.08229
1.07079
1.07079
1.05789
1.05789
1.04372
1.04372
1.02842
1.02842
1.0121
1.0121
0.994878
0.994878
0.976845
0.976846
0.958099
0.958099
0.938727
0.938727
0.918814
0.918814
0.89844
0.89844
0.877681
0.877681
0.856611
0.856611
0.835302
0.835302
0.813822
0.813822
0.792234
0.792234
0.770601
0.770601
0.748979
0.748979
0.727423
0.727423
0.705985
0.705985
0.68471
0.68471
0.663642
0.663642
0.642819
0.642819
0.622275
0.622275
0.602042
0.602042
0.582148
0.582148
0.562616
0.562616
0.543466
0.543466
0.524716
0.524716
0.50638
0.50638
0.488468
0.488468
0.470988
0.470989
0.453948
0.453948
0.437349
0.437349
0.421194
0.421194
0.405481
0.405481
0.390208
0.390208
0.37537
0.37537
0.360962
0.360962
0.346977
0.346977
0.333407
0.333407
0.320244
0.320244
0.307479
0.307479
0.295103
0.295103
0.283106
0.283106
0.271481
0.271481
0.260218
0.260218
0.249309
0.249309
0.238746
0.238746
0.228521
0.228521
0.218626
0.218626
0.209053
0.209053
0.199794
0.199794
0.19084
0.19084
0.182184
0.182184
0.173817
0.173817
0.165732
0.165732
0.157922
0.157922
0.150379
0.150379
0.143098
0.143098
0.136072
0.136072
0.129297
0.129297
0.122767
0.122767
0.116479
0.116479
0.110429
0.110429
0.104616
0.104616
0.0990356
0.0990356
0.0936879
0.0936879
0.0885714
0.0885714
0.0836857
0.0836857
0.0790305
0.0790305
0.0746053
0.0746053
0.0704093
0.0704093
0.0664407
0.0664407
0.0626964
0.0626964
0.0591717
0.0591717
0.0558597
0.0558597
0.0527517
0.0527517
0.0498369
0.0498369
0.0471026
0.0471026
0.0445344
0.0445344
0.0421171
0.0421171
0.0398351
0.0398351
0.0376733
0.0376733
0.0356181
0.0356181
0.0336582
0.0336582
0.0317847
0.0317847
0.0299918
0.0299918
0.0282759
0.0282759
0.0266357
0.0266357
0.025071
0.025071
0.0235828
0.0235828
0.0221719
0.0221719
0.0208393
0.0208393
0.0195851
0.0195852
0.0184088
0.0184089
0.0173085
0.0173085
0.0162812
0.0162812
0.0153227
0.0153227
0.0144285
0.0144285
0.0135933
0.0135933
0.0128119
0.0128119
0.0120794
0.0120794
0.0113919
0.0113919
0.0107467
0.0107467
0.0101424
0.0101424
0.00957827
0.00957827
0.00905441
0.00905441
0.00857107
0.00857107
0.00812878
0.00812879
0.00772805
0.00772805
0.00736905
0.00736906
0.00705155
0.00705156
0.00677451
0.00677452
0.00653608
0.00653608
0.00633376
0.00633376
0.00616458
0.00616458
0.00602519
0.00602519
0.00591204
0.00591204
0.00582144
0.00582144
0.00574968
0.00574969
0.00569347
0.00569347
0.00565022
0.00565022
0.00561826
0.00561826
0.00559665
0.00559665
0.00558482
0.00558482
0.00558224
0.00558224
0.00558831
0.00558831
0.00560226
0.00560226
0.00562305
0.00562305
0.00564939
0.00564939
0.00567948
0.00567948
0.00571086
0.00571086
0.0057405
0.0057405
0.00576533
0.00576533
0.00578325
0.00578325
0.00579405
0.00579405
0.00579964
0.00579964
0.00580335
0.00580335
0.00580862
0.00580862
0.00581805
0.00581805
0.00583286
0.00583286
0.00585281
0.00585281
0.00587644
0.00587644
0.00590137
0.00590137
0.00592517
0.00592517
0.00594607
0.00594607
0.0059631
0.0059631
0.00597604
0.00597604
0.00598552
0.00598552
0.00599346
0.00599346
0.00600335
0.00600336
0.0060196
0.0060196
0.00604599
0.00604599
0.00608468
0.00608468
0.00613606
0.00613606
0.00620034
0.00620034
0.00627835
0.00627835
0.00637074
0.00637074
0.00647566
0.00647566
0.0065863
0.00658631
0.00668841
0.00668841
0.0067632
0.0067632
0.00679638
0.00679638
0.00678642
0.00678642
0.00674505
0.00674506
0.00669182
0.00669183
0.00664611
0.00664611
0.00662013
0.00662014
0.00661475
0.00661476
0.00663056
0.00663057
0.00666795
0.00666795
0.00671621
0.00671622
0.00676187
0.00676187
0.00680033
0.00680034
0.00683979
0.0068398
0.00689366
0.00689366
0.00697364
0.00697364
0.00708106
0.00708106
0.00721148
0.00721148
0.00736134
0.00736135
0.00752988
0.00752988
0.00771846
0.00771847
0.00793034
0.00793035
0.00817091
0.00817092
0.00844633
0.00844634
0.00876051
0.00876052
0.00911328
0.00911329
0.0094992
0.00949921
0.00991077
0.00991079
0.010338
0.010338
0.0107684
0.0107684
0.0111941
0.0111941
0.011617
0.0116171
0.0120422
0.0120422
0.0124645
0.0124645
0.0128591
0.0128591
0.0131843
0.0131843
0.0133989
0.0133989
0.0134799
0.0134799
0.0134195
0.0134195
0.013217
0.013217
0.0128981
0.0128981
0.0125372
0.0125372
0.0122279
0.0122279
0.0119871
0.0119871
0.0117978
0.0117979
0.0116652
0.0116653
0.011605
0.011605
0.0115982
0.0115982
0.0115777
0.0115777
0.0114868
0.0114868
0.0113101
0.0113101
0.0110685
0.0110685
0.0107953
0.0107953
0.010512
0.010512
0.010223
0.0102231
0.00993411
0.00993413
0.00967407
0.00967409
0.00947143
0.00947145
0.00932438
0.0093244
0.00922617
0.00922619
0.00918701
0.00918702
0.00920877
0.00920878
0.00927601
0.00927602
0.00937373
0.00937373
0.00949097
0.00949096
0.0095923
0.00959227
0.00960831
0.00960822
0.00950499
0.00950488
0.00934831
0.00934817
0.0092199
0.00921971
0.00914935
0.0091492
0.00914345
0.00914359
0.00920241
0.0092025
0.00932016
0.00932021
0.00947035
0.00947038
0.00956412
0.00956414
0.00954282
0.00954284
0.00943873
0.00943874
0.0093155
0.00931551
0.00921626
0.00921628
0.00915228
0.0091523
0.00913311
0.00913312
0.00917439
0.00917441
0.00927505
0.00927507
0.0094252
0.00942521
0.00963264
0.00963266
0.00989683
0.00989685
0.0101904
0.0101904
0.0104867
0.0104867
0.0107801
0.0107801
0.0110641
0.0110642
0.0113123
0.0113123
0.0114906
0.0114907
0.0115806
0.0115806
0.0116024
0.0116024
0.0116158
0.0116159
0.0116808
0.0116808
0.0118182
0.0118182
0.0120129
0.0120129
0.0122601
0.0122601
0.0125761
0.0125761
0.0129467
0.0129468
0.0132749
0.013275
0.0134805
0.0134805
0.0135371
0.0135371
0.0134461
0.0134461
0.0132164
0.0132164
0.0128801
0.0128802
0.0124805
0.0124805
0.0120571
0.0120571
0.011633
0.0116331
0.0112113
0.0112113
0.0107865
0.0107865
0.0103566
0.0103566
0.00992863
0.00992864
0.00951566
0.00951568
0.00912824
0.00912825
0.00877384
0.00877385
0.00845863
0.00845863
0.00818223
0.00818224
0.00794048
0.00794049
0.00772703
0.00772704
0.00753665
0.00753666
0.00736723
0.00736723
0.00721693
0.00721694
0.00708528
0.00708528
0.00697632
0.00697632
0.00689482
0.00689483
0.00683929
0.00683929
0.00679841
0.00679841
0.0067604
0.0067604
0.00671632
0.00671633
0.00666842
0.00666842
0.0066304
0.0066304
0.00661362
0.00661363
0.00661806
0.00661806
0.00664312
0.00664312
0.00668794
0.00668795
0.00674142
0.00674142
0.00678261
0.00678261
0.00678987
0.00678987
0.00675146
0.00675146
0.00667232
0.00667232
0.00656802
0.00656802
0.0064564
0.0064564
0.00635158
0.00635158
0.00625985
0.00625985
0.00618241
0.00618242
0.00611864
0.00611864
0.00606787
0.00606787
0.00602976
0.00602976
0.00600365
0.00600365
0.00598746
0.00598746
0.00597752
0.00597752
0.00596982
0.00596982
0.0059607
0.0059607
0.00594783
0.00594783
0.0059314
0.0059314
0.00591171
0.00591172
0.00588865
0.00588865
0.00586432
0.00586432
0.00584185
0.00584185
0.00582334
0.00582334
0.00581021
0.00581021
0.00580292
0.00580292
0.00579996
0.00579996
0.00579778
0.00579778
0.00579278
0.00579278
0.00578229
0.00578229
0.00576424
0.00576424
0.00573907
0.00573907
0.00570972
0.00570972
0.0056791
0.0056791
0.0056497
0.0056497
0.00562381
0.00562381
0.005603
0.005603
0.00558842
0.00558842
0.0055815
0.0055815
0.00558325
0.00558325
0.00559407
0.00559407
0.00561473
0.00561473
0.00564627
0.00564627
0.00568952
0.00568952
0.00574604
0.00574604
0.00581831
0.00581831
0.00590936
0.00590936
0.00602287
0.00602287
0.0061628
0.00616281
0.00633268
0.00633268
0.00653561
0.00653561
0.00677453
0.00677453
0.00705177
0.00705177
0.00736893
0.00736893
0.0077274
0.0077274
0.00812817
0.00812817
0.00857097
0.00857097
0.00905441
0.00905441
0.00957777
0.00957778
0.0101415
0.0101416
0.0107461
0.0107461
0.0113921
0.0113921
0.012081
0.012081
0.0128143
0.0128143
0.0135952
0.0135952
0.014429
0.014429
0.015322
0.015322
0.0162792
0.0162792
0.0173052
0.0173052
0.0184047
0.0184047
0.0195807
0.0195807
0.0208346
0.0208346
0.022167
0.022167
0.0235777
0.0235777
0.0250657
0.0250657
0.0266309
0.0266309
0.0282727
0.0282727
0.0299894
0.0299894
0.0317811
0.0317811
0.0336524
0.0336524
0.0356109
0.0356109
0.0376662
0.0376662
0.0398293
0.0398293
0.0421136
0.0421136
0.0445335
0.0445335
0.0471037
0.0471037
0.0498391
0.0498391
0.0527545
0.0527545
0.055863
0.055863
0.059175
0.059175
0.0626992
0.0626992
0.0664422
0.0664422
0.0704092
0.0704092
0.074604
0.074604
0.0790282
0.0790282
0.0836823
0.0836823
0.0885668
0.0885668
0.0936821
0.0936821
0.0990283
0.0990283
0.104607
0.104607
0.110418
0.110418
0.116465
0.116465
0.12275
0.12275
0.129277
0.129277
0.136049
0.136049
0.143072
0.143072
0.15035
0.15035
0.157889
0.157889
0.165698
0.165698
0.173784
0.173784
0.182152
0.182152
0.190809
0.190809
0.199766
0.199766
0.209032
0.209032
0.218612
0.218612
0.228514
0.228514
0.238743
0.238743
0.249304
0.249304
0.260209
0.260209
0.271471
0.271471
0.283098
0.283098
0.295095
0.295095
0.307479
0.307479
0.320264
0.320264
0.333447
0.333447
0.347032
0.347032
0.36103
0.36103
0.375454
0.375454
0.390306
0.390306
0.405587
0.405587
0.421309
0.421309
0.437477
0.437477
0.454081
0.454081
0.471118
0.471118
0.488592
0.488592
0.506482
0.506482
0.524774
0.524774
0.54348
0.54348
0.562596
0.562596
0.582105
0.582105
0.601991
0.601991
0.622215
0.622215
0.642739
0.642739
0.663552
0.663552
0.68461
0.68461
0.705864
0.705864
0.727292
0.727292
0.748828
0.748828
0.770395
0.770395
0.791981
0.791981
0.813557
0.813557
0.835035
0.835035
0.856351
0.856351
0.877464
0.877464
0.898301
0.898301
0.91876
0.91876
0.938754
0.938754
0.958209
0.958209
0.977004
0.977004
0.995029
0.995029
1.01218
1.01218
1.02834
1.02834
1.0435
1.0435
1.0576
1.0576
1.07055
1.07055
1.08213
1.08213
1.09213
1.09213
1.10038
1.10038
1.10668
1.10668
1.11083
1.11083
1.11268
1.11268
1.11206
1.11206
1.10885
1.10885
1.10302
1.10302
1.0946
1.0946
1.08375
1.08375
1.07086
1.07086
1.05649
1.05649
1.04147
1.04147
1.02696
1.02696
1.01447
1.01447
1.00579
1.00579
1.00282
1.00282
1.00744
1.00744
1.02143
1.02143
1.04623
1.04623
1.08282
1.08282
1.13143
1.13143
1.19167
1.19167
1.26259
1.26259
1.34277
1.34277
1.43041
1.43041
1.52356
1.52356
1.62019
1.62019
1.71815
1.71815
1.81542
1.81542
1.91011
1.91011
2.00051
2.00051
2.0852
2.0852
2.16295
2.16295
2.23273
2.23273
2.2936
2.2936
2.34501
2.34501
2.38675
2.38675
2.41872
2.41872
2.44077
2.44077
2.45292
2.45292
2.45548
2.45548
2.44877
2.44877
2.43317
2.43317
2.40913
2.40913
2.3772
2.3772
2.33795
2.33795
2.29192
2.29192
2.23971
2.23971
2.18197
2.18197
2.11932
2.11932
2.05236
2.05236
1.9817
1.9817
1.9079
1.9079
1.8315
1.8315
1.75304
1.75304
1.67302
1.67302
1.5919
1.5919
1.51006
1.51006
1.42783
1.42783
1.34551
1.34551
1.26334
1.26334
1.18151
1.18151
1.10015
1.10015
1.01936
1.01936
0.939193
0.939193
0.859648
0.859648
0.780711
0.780711
0.702354
0.702354
0.624573
0.624573
0.547444
0.547444
0.471207
0.471207
0.396381
0.396381
0.323925
0.323925
0.255367
0.255367
0.192767
0.192767
0.138331
0.138331
0.0937252
0.0937252
0.0594884
0.0594884
0.034952
0.034952
0.0186227
0.0186227
0.00867385
0.00867385
0.0032989
0.0032989
0.000892522
0.000892522
0.000128219
0.000128219
3.50314e-05
3.50314e-05
0.00914374
0.00914359
0.00920289
0.0092027
0.00932094
0.0093208
0.0094711
0.00947098
0.00956465
0.00956457
0.00954293
0.0095429
0.00943859
0.00943858
0.00931524
0.00931525
0.00921601
0.00921601
0.00915207
0.00915208
0.009133
0.00913302
0.00917438
0.0091744
0.0092751
0.00927512
0.0094253
0.00942533
0.00963283
0.00963285
0.00989709
0.00989711
0.0101907
0.0101907
0.0104869
0.0104869
0.0107802
0.0107802
0.0110641
0.0110641
0.011312
0.0113121
0.0114902
0.0114903
0.01158
0.0115801
0.0116019
0.0116019
0.0116154
0.0116155
0.0116806
0.0116806
0.0118182
0.0118182
0.012013
0.012013
0.0122604
0.0122604
0.0125765
0.0125765
0.0129472
0.0129472
0.0132753
0.0132753
0.0134807
0.0134807
0.0135371
0.0135371
0.0134458
0.0134458
0.013216
0.013216
0.0128797
0.0128797
0.01248
0.01248
0.0120566
0.0120566
0.0116326
0.0116326
0.0112108
0.0112108
0.010786
0.010786
0.0103561
0.0103561
0.00992822
0.00992824
0.0095153
0.00951531
0.00912792
0.00912793
0.00877356
0.00877357
0.0084584
0.00845841
0.00818205
0.00818206
0.00794033
0.00794034
0.00772691
0.00772691
0.00753654
0.00753655
0.00736713
0.00736713
0.00721685
0.00721685
0.00708521
0.00708521
0.00697627
0.00697627
0.00689479
0.0068948
0.00683928
0.00683928
0.0067984
0.0067984
0.00676039
0.00676039
0.00671631
0.00671632
0.00666841
0.00666841
0.00663039
0.0066304
0.00661363
0.00661363
0.00661808
0.00661808
0.00664314
0.00664314
0.00668797
0.00668798
0.00674145
0.00674145
0.00678263
0.00678264
0.00678988
0.00678988
0.00675145
0.00675145
0.00667229
0.00667229
0.00656798
0.00656798
0.00645636
0.00645636
0.00635155
0.00635155
0.00625982
0.00625982
0.00618239
0.00618239
0.00611862
0.00611862
0.00606786
0.00606786
0.00602975
0.00602975
0.00600365
0.00600365
0.00598746
0.00598746
0.00597753
0.00597753
0.00596983
0.00596983
0.00596071
0.00596071
0.00594784
0.00594784
0.0059314
0.0059314
0.00591172
0.00591172
0.00588865
0.00588865
0.00586432
0.00586432
0.00584185
0.00584185
0.00582334
0.00582335
0.00581021
0.00581021
0.00580292
0.00580292
0.00579997
0.00579997
0.00579778
0.00579778
0.00579278
0.00579278
0.00578229
0.00578229
0.00576423
0.00576423
0.00573907
0.00573907
0.00570971
0.00570971
0.0056791
0.0056791
0.00564969
0.00564969
0.00562381
0.00562381
0.005603
0.005603
0.00558842
0.00558842
0.00558149
0.00558149
0.00558324
0.00558324
0.00559407
0.00559407
0.00561474
0.00561474
0.00564627
0.00564627
0.00568953
0.00568953
0.00574605
0.00574605
0.00581832
0.00581832
0.00590938
0.00590938
0.0060229
0.0060229
0.00616283
0.00616283
0.00633271
0.00633271
0.00653565
0.00653565
0.00677458
0.00677458
0.00705182
0.00705183
0.00736899
0.007369
0.00772747
0.00772747
0.00812824
0.00812825
0.00857105
0.00857105
0.00905449
0.0090545
0.00957787
0.00957787
0.0101416
0.0101416
0.0107462
0.0107462
0.0113922
0.0113922
0.0120811
0.0120811
0.0128144
0.0128144
0.0135953
0.0135953
0.0144291
0.0144291
0.0153221
0.0153221
0.0162793
0.0162793
0.0173053
0.0173053
0.0184048
0.0184048
0.0195808
0.0195808
0.0208347
0.0208347
0.0221671
0.0221672
0.0235779
0.0235779
0.0250658
0.0250658
0.026631
0.026631
0.0282728
0.0282728
0.0299895
0.0299895
0.0317812
0.0317813
0.0336525
0.0336525
0.035611
0.035611
0.0376663
0.0376663
0.0398294
0.0398294
0.0421137
0.0421137
0.0445336
0.0445337
0.0471038
0.0471038
0.0498392
0.0498392
0.0527546
0.0527546
0.0558631
0.0558631
0.0591751
0.0591751
0.0626993
0.0626993
0.0664423
0.0664423
0.0704094
0.0704094
0.0746042
0.0746042
0.0790283
0.0790284
0.0836824
0.0836824
0.088567
0.088567
0.0936822
0.0936822
0.0990285
0.0990285
0.104607
0.104607
0.110418
0.110418
0.116465
0.116465
0.12275
0.12275
0.129277
0.129277
0.136049
0.136049
0.143072
0.143072
0.15035
0.15035
0.15789
0.15789
0.165698
0.165698
0.173784
0.173784
0.182152
0.182152
0.19081
0.19081
0.199767
0.199767
0.209032
0.209032
0.218613
0.218613
0.228514
0.228514
0.238743
0.238743
0.249305
0.249305
0.260209
0.260209
0.271472
0.271472
0.283098
0.283098
0.295096
0.295096
0.30748
0.30748
0.320264
0.320264
0.333448
0.333448
0.347032
0.347032
0.36103
0.36103
0.375455
0.375455
0.390307
0.390307
0.405588
0.405588
0.421309
0.421309
0.437478
0.437478
0.454081
0.454081
0.471118
0.471118
0.488593
0.488593
0.506483
0.506483
0.524775
0.524775
0.54348
0.54348
0.562597
0.562597
0.582105
0.582105
0.601991
0.601991
0.622215
0.622215
0.642739
0.642739
0.663553
0.663553
0.68461
0.68461
0.705864
0.705864
0.727293
0.727293
0.748829
0.748829
0.770395
0.770395
0.791981
0.791981
0.813557
0.813557
0.835035
0.835035
0.856351
0.856352
0.877464
0.877464
0.898301
0.898301
0.91876
0.91876
0.938754
0.938754
0.958209
0.958209
0.977004
0.977004
0.995029
0.995029
1.01218
1.01218
1.02834
1.02834
1.0435
1.0435
1.0576
1.0576
1.07055
1.07055
1.08213
1.08213
1.09213
1.09213
1.10038
1.10038
1.10668
1.10668
1.11083
1.11083
1.11268
1.11268
1.11206
1.11206
1.10885
1.10885
1.10302
1.10302
1.0946
1.0946
1.08375
1.08375
1.07086
1.07086
1.05649
1.05649
1.04147
1.04147
1.02696
1.02696
1.01447
1.01447
1.00579
1.00579
1.00282
1.00282
1.00744
1.00744
1.02143
1.02143
1.04623
1.04623
1.08282
1.08282
1.13144
1.13144
1.19167
1.19167
1.26259
1.26259
1.34277
1.34277
1.43041
1.43041
1.52356
1.52356
1.62019
1.62019
1.71816
1.71816
1.81543
1.81543
1.91011
1.91011
2.00052
2.00052
2.0852
2.0852
2.16296
2.16296
2.23273
2.23273
2.2936
2.2936
2.34501
2.34501
2.38676
2.38676
2.41872
2.41872
2.44077
2.44077
2.45292
2.45292
2.45548
2.45548
2.44878
2.44878
2.43317
2.43317
2.40913
2.40913
2.3772
2.3772
2.33795
2.33795
2.29192
2.29192
2.23971
2.23971
2.18197
2.18197
2.11933
2.11933
2.05236
2.05236
1.9817
1.9817
1.9079
1.9079
1.8315
1.8315
1.75304
1.75304
1.67302
1.67302
1.5919
1.5919
1.51006
1.51006
1.42783
1.42783
1.34551
1.34551
1.26334
1.26334
1.18151
1.18151
1.10015
1.10015
1.01936
1.01936
0.939194
0.939194
0.859648
0.859648
0.780712
0.780712
0.702355
0.702355
0.624573
0.624573
0.547445
0.547445
0.471208
0.471208
0.396381
0.396381
0.323925
0.323925
0.255367
0.255367
0.192767
0.192767
0.138331
0.138331
0.0937253
0.0937253
0.0594885
0.0594884
0.034952
0.034952
0.0186227
0.0186227
0.00867386
0.00867386
0.0032989
0.0032989
0.000892523
0.000892523
0.000128219
0.000128219
3.50314e-05
3.50314e-05
)
;

boundaryField
{
    walls
    {
        type            kqRWallFunction;
        value           nonuniform List<scalar> 8(3.50222e-05 3.50222e-05 3.50222e-05 3.50222e-05 3.50314e-05 3.50314e-05 3.50314e-05 3.50314e-05);
    }
    inlet
    {
        type            cyclic;
    }
    outlet
    {
        type            cyclic;
    }
    sides
    {
        type            empty;
    }
}


// ************************************************************************* //
