/*--------------------------------*- C++ -*----------------------------------*\
| =========                 |                                                 |
| \\      /  F ield         | OpenFOAM: The Open Source CFD Toolbox           |
|  \\    /   O peration     | Version:  2012                                  |
|   \\  /    A nd           | Website:  www.openfoam.com                      |
|    \\/     M anipulation  |                                                 |
\*---------------------------------------------------------------------------*/
FoamFile
{
    version     2.0;
    format      ascii;
    class       volScalarField;
    location    "11000";
    object      p;
}
// * * * * * * * * * * * * * * * * * * * * * * * * * * * * * * * * * * * * * //

dimensions      [0 2 -2 0 0 0 0];


internalField   nonuniform List<scalar> 
2560
(
3.33683e-09
-3.92896e-06
-4.29964e-08
-3.9567e-06
-2.36555e-07
-4.13562e-06
-8.32649e-07
-4.72617e-06
-2.22393e-06
-6.11721e-06
-4.93965e-06
-8.83345e-06
-9.64227e-06
-1.35362e-05
-1.71285e-05
-2.10222e-05
-2.83333e-05
-3.22271e-05
-4.43258e-05
-4.82198e-05
-6.63177e-05
-7.02118e-05
-9.56695e-05
-9.95638e-05
-0.000133876
-0.000137771
-0.00018257
-0.000186464
-0.000243519
-0.000247414
-0.000318627
-0.000322522
-0.000409919
-0.000413814
-0.000519554
-0.00052345
-0.000649837
-0.000653733
-0.000803176
-0.000807072
-0.000982076
-0.000985973
-0.00118921
-0.00119311
-0.00142736
-0.00143126
-0.00169935
-0.00170325
-0.00200813
-0.00201203
-0.00235683
-0.00236073
-0.00274862
-0.00275252
-0.00318665
-0.00319055
-0.00367426
-0.00367816
-0.00421494
-0.00421884
-0.00481216
-0.00481607
-0.00546937
-0.00547327
-0.00619016
-0.00619407
-0.00697832
-0.00698222
-0.00783748
-0.00784139
-0.0087713
-0.0087752
-0.00978361
-0.00978751
-0.0108783
-0.0108822
-0.0120592
-0.0120631
-0.0133301
-0.013334
-0.0146948
-0.0146987
-0.0161573
-0.0161612
-0.0177216
-0.0177255
-0.0193914
-0.0193953
-0.0211706
-0.0211745
-0.0230632
-0.0230671
-0.025073
-0.0250769
-0.0272038
-0.0272077
-0.0294593
-0.0294632
-0.0318441
-0.031848
-0.034361
-0.0343649
-0.0370132
-0.0370171
-0.0398064
-0.0398103
-0.0427427
-0.0427466
-0.0458256
-0.0458295
-0.0490599
-0.0490638
-0.0524476
-0.0524515
-0.0559933
-0.0559973
-0.0596997
-0.0597036
-0.0635694
-0.0635733
-0.0676063
-0.0676103
-0.0718138
-0.0718177
-0.0761951
-0.076199
-0.0807507
-0.0807546
-0.0854854
-0.0854893
-0.0904025
-0.0904064
-0.0955021
-0.095506
-0.100788
-0.100792
-0.106261
-0.106265
-0.111925
-0.111929
-0.11778
-0.117784
-0.123828
-0.123832
-0.130072
-0.130076
-0.13651
-0.136514
-0.143145
-0.143149
-0.149978
-0.149982
-0.15701
-0.157014
-0.164238
-0.164242
-0.171665
-0.171669
-0.17929
-0.179294
-0.187112
-0.187116
-0.19513
-0.195134
-0.203344
-0.203348
-0.211751
-0.211755
-0.220349
-0.220353
-0.229137
-0.229141
-0.238113
-0.238117
-0.247275
-0.247279
-0.256618
-0.256622
-0.26614
-0.266144
-0.275835
-0.275839
-0.285703
-0.285707
-0.295737
-0.295741
-0.305935
-0.305939
-0.316288
-0.316292
-0.326795
-0.326799
-0.33745
-0.337454
-0.348244
-0.348248
-0.359176
-0.35918
-0.370236
-0.370239
-0.381419
-0.381423
-0.39272
-0.392724
-0.404129
-0.404133
-0.41564
-0.415644
-0.427247
-0.427251
-0.438941
-0.438945
-0.450716
-0.45072
-0.462562
-0.462566
-0.474473
-0.474477
-0.48644
-0.486444
-0.498454
-0.498458
-0.510509
-0.510513
-0.522595
-0.522599
-0.534704
-0.534708
-0.546828
-0.546832
-0.558957
-0.558961
-0.571085
-0.571089
-0.583202
-0.583206
-0.595301
-0.595305
-0.607372
-0.607376
-0.619407
-0.619411
-0.631398
-0.631402
-0.643337
-0.643341
-0.655218
-0.655222
-0.66703
-0.667034
-0.678767
-0.678771
-0.690421
-0.690425
-0.701984
-0.701988
-0.71345
-0.713454
-0.724811
-0.724815
-0.73606
-0.736064
-0.74719
-0.747194
-0.758195
-0.758199
-0.769068
-0.769072
-0.779801
-0.779805
-0.790391
-0.790395
-0.80083
-0.800834
-0.811112
-0.811116
-0.821232
-0.821236
-0.831185
-0.831189
-0.840964
-0.840968
-0.850566
-0.85057
-0.859985
-0.859989
-0.869219
-0.869223
-0.878261
-0.878265
-0.887109
-0.887113
-0.89576
-0.895764
-0.904209
-0.904214
-0.912455
-0.91246
-0.920496
-0.9205
-0.928327
-0.928331
-0.935949
-0.935953
-0.943357
-0.943361
-0.950552
-0.950556
-0.957531
-0.957535
-0.964292
-0.964296
-0.970836
-0.97084
-0.977161
-0.977165
-0.983267
-0.983271
-0.989152
-0.989156
-0.994818
-0.994822
-1.00026
-1.00027
-1.00549
-1.00549
-1.01049
-1.0105
-1.01528
-1.01528
-1.01985
-1.01985
-1.0242
-1.0242
-1.02833
-1.02834
-1.03225
-1.03226
-1.03596
-1.03596
-1.03945
-1.03945
-1.04273
-1.04273
-1.0458
-1.0458
-1.04866
-1.04867
-1.05132
-1.05133
-1.05378
-1.05378
-1.05604
-1.05604
-1.0581
-1.05811
-1.05997
-1.05998
-1.06166
-1.06166
-1.06316
-1.06316
-1.06448
-1.06449
-1.06563
-1.06563
-1.0666
-1.06661
-1.06742
-1.06742
-1.06804
-1.06805
-1.06856
-1.06855
-1.06881
-1.06886
-1.06913
-1.06904
-1.06915
-1.06906
-1.06888
-1.06892
-1.06868
-1.06866
-1.06823
-1.06824
-1.06769
-1.06769
-1.06699
-1.06699
-1.06616
-1.06616
-1.06521
-1.06521
-1.06413
-1.06413
-1.06292
-1.06292
-1.0616
-1.0616
-1.06016
-1.06016
-1.0586
-1.0586
-1.05694
-1.05694
-1.05517
-1.05517
-1.05329
-1.05329
-1.0513
-1.0513
-1.04922
-1.04922
-1.04703
-1.04703
-1.04475
-1.04475
-1.04237
-1.04237
-1.0399
-1.0399
-1.03734
-1.03734
-1.03468
-1.03468
-1.03195
-1.03195
-1.02912
-1.02912
-1.02622
-1.02622
-1.02323
-1.02323
-1.02016
-1.02016
-1.01702
-1.01702
-1.01378
-1.01378
-1.01047
-1.01047
-1.00707
-1.00707
-1.00358
-1.00358
-1.00001
-1.00001
-0.996336
-0.996336
-0.992576
-0.992576
-0.988726
-0.988726
-0.984791
-0.984791
-0.980774
-0.980774
-0.976675
-0.976675
-0.972495
-0.972495
-0.968232
-0.968232
-0.963885
-0.963885
-0.959451
-0.959451
-0.954928
-0.954928
-0.950317
-0.950317
-0.945617
-0.945618
-0.940828
-0.940829
-0.935947
-0.935947
-0.930973
-0.930973
-0.925908
-0.925908
-0.920754
-0.920754
-0.915517
-0.915517
-0.910197
-0.910197
-0.904795
-0.904795
-0.899311
-0.899311
-0.893746
-0.893746
-0.888099
-0.888099
-0.882368
-0.882368
-0.876552
-0.876552
-0.870646
-0.870646
-0.864653
-0.864653
-0.858574
-0.858574
-0.85241
-0.85241
-0.846162
-0.846162
-0.839836
-0.839836
-0.833437
-0.833437
-0.826972
-0.826972
-0.820446
-0.820446
-0.813856
-0.813856
-0.807199
-0.807199
-0.800463
-0.800463
-0.793643
-0.793643
-0.786729
-0.78673
-0.779716
-0.779716
-0.772606
-0.772606
-0.765404
-0.765405
-0.758122
-0.758123
-0.750771
-0.750771
-0.743357
-0.743357
-0.73588
-0.73588
-0.728333
-0.728334
-0.72071
-0.720711
-0.713011
-0.713011
-0.705239
-0.705239
-0.697396
-0.697396
-0.689482
-0.689483
-0.681497
-0.681497
-0.673438
-0.673439
-0.665304
-0.665304
-0.657091
-0.657092
-0.648804
-0.648804
-0.64045
-0.640451
-0.632039
-0.632039
-0.623578
-0.623579
-0.61508
-0.615081
-0.606557
-0.606558
-0.598024
-0.598025
-0.589493
-0.589494
-0.580977
-0.580978
-0.572489
-0.57249
-0.564036
-0.564037
-0.555628
-0.555629
-0.547277
-0.547278
-0.53899
-0.538991
-0.530761
-0.530762
-0.522586
-0.522587
-0.514473
-0.514475
-0.506443
-0.506445
-0.498515
-0.498517
-0.490726
-0.490728
-0.483117
-0.483119
-0.475732
-0.475734
-0.468591
-0.468594
-0.461712
-0.461714
-0.455085
-0.455088
-0.448723
-0.448726
-0.442629
-0.442632
-0.436845
-0.436848
-0.431387
-0.43139
-0.426303
-0.426306
-0.4216
-0.421603
-0.417327
-0.41733
-0.413479
-0.413481
-0.410113
-0.410115
-0.407231
-0.40723
-0.40487
-0.404869
-0.403027
-0.403019
-0.401761
-0.401754
-0.401109
-0.401093
-2.05401e-05
-1.66036e-05
-2.05678e-05
-1.66313e-05
-2.07467e-05
-1.68102e-05
-2.13373e-05
-1.74008e-05
-2.27283e-05
-1.87918e-05
-2.54446e-05
-2.1508e-05
-3.01473e-05
-2.62107e-05
-3.76333e-05
-3.36968e-05
-4.88382e-05
-4.49017e-05
-6.48309e-05
-6.08944e-05
-8.68229e-05
-8.28864e-05
-0.000116175
-0.000112238
-0.000154382
-0.000150445
-0.000203075
-0.000199139
-0.000264025
-0.000260089
-0.000339133
-0.000335197
-0.000430425
-0.000426489
-0.000540061
-0.000536124
-0.000670344
-0.000666408
-0.000823683
-0.000819746
-0.00100258
-0.000998647
-0.00120972
-0.00120578
-0.00144787
-0.00144393
-0.00171986
-0.00171592
-0.00202864
-0.0020247
-0.00237734
-0.0023734
-0.00276913
-0.00276519
-0.00320716
-0.00320322
-0.00369477
-0.00369084
-0.00423545
-0.00423152
-0.00483268
-0.00482874
-0.00548988
-0.00548594
-0.00621068
-0.00620674
-0.00699883
-0.0069949
-0.007858
-0.00785406
-0.00879181
-0.00878788
-0.00980413
-0.00980019
-0.0108989
-0.0108949
-0.0120798
-0.0120758
-0.0133506
-0.0133467
-0.0147153
-0.0147113
-0.0161778
-0.0161739
-0.0177421
-0.0177382
-0.0194119
-0.019408
-0.0211911
-0.0211872
-0.0230837
-0.0230798
-0.0250935
-0.0250896
-0.0272243
-0.0272203
-0.0294799
-0.0294759
-0.0318646
-0.0318607
-0.0343815
-0.0343776
-0.0370337
-0.0370298
-0.0398269
-0.039823
-0.0427632
-0.0427593
-0.0458461
-0.0458422
-0.0490804
-0.0490765
-0.0524681
-0.0524642
-0.0560139
-0.0560099
-0.0597202
-0.0597163
-0.0635899
-0.063586
-0.0676269
-0.0676229
-0.0718343
-0.0718304
-0.0762156
-0.0762117
-0.0807712
-0.0807673
-0.085506
-0.085502
-0.090423
-0.0904191
-0.0955226
-0.0955187
-0.100808
-0.100804
-0.106281
-0.106277
-0.111946
-0.111942
-0.117801
-0.117797
-0.123849
-0.123845
-0.130092
-0.130088
-0.13653
-0.136527
-0.143166
-0.143162
-0.149999
-0.149995
-0.15703
-0.157026
-0.164259
-0.164255
-0.171686
-0.171682
-0.17931
-0.179306
-0.187133
-0.187129
-0.195151
-0.195147
-0.203364
-0.20336
-0.211772
-0.211768
-0.22037
-0.220366
-0.229158
-0.229154
-0.238134
-0.23813
-0.247295
-0.247291
-0.256639
-0.256635
-0.26616
-0.266156
-0.275856
-0.275852
-0.285723
-0.285719
-0.295758
-0.295754
-0.305955
-0.305951
-0.316308
-0.316304
-0.326816
-0.326812
-0.337471
-0.337467
-0.348265
-0.348261
-0.359196
-0.359192
-0.370256
-0.370252
-0.38144
-0.381436
-0.392741
-0.392737
-0.40415
-0.404146
-0.415661
-0.415657
-0.427268
-0.427264
-0.438962
-0.438958
-0.450736
-0.450732
-0.462583
-0.462579
-0.474493
-0.474489
-0.486461
-0.486457
-0.498475
-0.498471
-0.510529
-0.510525
-0.522616
-0.522612
-0.534725
-0.534721
-0.546849
-0.546845
-0.558978
-0.558974
-0.571106
-0.571102
-0.583223
-0.583219
-0.595322
-0.595318
-0.607393
-0.607389
-0.619427
-0.619423
-0.631419
-0.631415
-0.643358
-0.643354
-0.655239
-0.655235
-0.66705
-0.667047
-0.678787
-0.678783
-0.690442
-0.690438
-0.702004
-0.702
-0.713471
-0.713467
-0.724832
-0.724828
-0.73608
-0.736076
-0.74721
-0.747206
-0.758216
-0.758212
-0.769088
-0.769084
-0.779822
-0.779818
-0.790411
-0.790407
-0.80085
-0.800846
-0.811133
-0.811129
-0.821253
-0.821249
-0.831205
-0.831201
-0.840985
-0.840981
-0.850586
-0.850582
-0.860006
-0.860002
-0.869239
-0.869235
-0.878282
-0.878278
-0.88713
-0.887126
-0.895781
-0.895777
-0.90423
-0.904226
-0.912476
-0.912472
-0.920516
-0.920512
-0.928348
-0.928344
-0.935969
-0.935965
-0.943378
-0.943374
-0.950572
-0.950568
-0.957551
-0.957547
-0.964313
-0.964309
-0.970857
-0.970853
-0.977182
-0.977178
-0.983287
-0.983283
-0.989173
-0.989169
-0.994838
-0.994834
-1.00028
-1.00028
-1.00551
-1.00551
-1.01051
-1.01051
-1.0153
-1.0153
-1.01987
-1.01987
-1.02422
-1.02422
-1.02835
-1.02835
-1.03227
-1.03227
-1.03598
-1.03597
-1.03947
-1.03946
-1.04275
-1.04274
-1.04582
-1.04582
-1.04868
-1.04868
-1.05134
-1.05134
-1.0538
-1.0538
-1.05606
-1.05605
-1.05812
-1.05812
-1.05999
-1.05999
-1.06168
-1.06168
-1.06318
-1.06318
-1.0645
-1.0645
-1.06565
-1.06565
-1.06662
-1.06662
-1.06743
-1.06743
-1.06807
-1.06806
-1.06856
-1.06858
-1.06888
-1.06883
-1.06906
-1.06914
-1.06908
-1.06917
-1.06894
-1.0689
-1.06868
-1.0687
-1.06825
-1.06824
-1.0677
-1.06771
-1.06701
-1.067
-1.06618
-1.06618
-1.06522
-1.06522
-1.06414
-1.06414
-1.06294
-1.06294
-1.06161
-1.06161
-1.06017
-1.06017
-1.05862
-1.05862
-1.05696
-1.05696
-1.05518
-1.05518
-1.05331
-1.0533
-1.05132
-1.05132
-1.04923
-1.04923
-1.04705
-1.04705
-1.04476
-1.04476
-1.04239
-1.04239
-1.03991
-1.03991
-1.03735
-1.03735
-1.0347
-1.0347
-1.03196
-1.03196
-1.02914
-1.02914
-1.02623
-1.02623
-1.02325
-1.02325
-1.02018
-1.02018
-1.01703
-1.01703
-1.0138
-1.0138
-1.01049
-1.01049
-1.00709
-1.00709
-1.0036
-1.0036
-1.00002
-1.00002
-0.996353
-0.996353
-0.992593
-0.992593
-0.988743
-0.988743
-0.984808
-0.984808
-0.98079
-0.98079
-0.976691
-0.976691
-0.972512
-0.972512
-0.968249
-0.968249
-0.963901
-0.963901
-0.959467
-0.959467
-0.954945
-0.954945
-0.950334
-0.950334
-0.945634
-0.945634
-0.940845
-0.940845
-0.935963
-0.935963
-0.930989
-0.930989
-0.925924
-0.925924
-0.920771
-0.920771
-0.915533
-0.915533
-0.910214
-0.910214
-0.904812
-0.904812
-0.899328
-0.899328
-0.893763
-0.893763
-0.888116
-0.888116
-0.882385
-0.882385
-0.876568
-0.876568
-0.870663
-0.870663
-0.86467
-0.86467
-0.858591
-0.858591
-0.852427
-0.852427
-0.846179
-0.846179
-0.839852
-0.839853
-0.833454
-0.833454
-0.826989
-0.826989
-0.820462
-0.820463
-0.813873
-0.813873
-0.807216
-0.807216
-0.80048
-0.80048
-0.793659
-0.79366
-0.786746
-0.786746
-0.779733
-0.779733
-0.772622
-0.772623
-0.765421
-0.765422
-0.758139
-0.75814
-0.750788
-0.750788
-0.743374
-0.743374
-0.735897
-0.735897
-0.72835
-0.728351
-0.720727
-0.720728
-0.713028
-0.713028
-0.705256
-0.705256
-0.697413
-0.697413
-0.689499
-0.6895
-0.681514
-0.681515
-0.673455
-0.673456
-0.665321
-0.665322
-0.657109
-0.657109
-0.648821
-0.648821
-0.640467
-0.640468
-0.632056
-0.632057
-0.623595
-0.623597
-0.615097
-0.615098
-0.606575
-0.606576
-0.598041
-0.598042
-0.58951
-0.589512
-0.580994
-0.580996
-0.572506
-0.572508
-0.564051
-0.564054
-0.555645
-0.555648
-0.547292
-0.547295
-0.539008
-0.539012
-0.530775
-0.530778
-0.522605
-0.522609
-0.514485
-0.51449
-0.506464
-0.506469
-0.498525
-0.498531
-0.490749
-0.490755
-0.483123
-0.48313
-0.475758
-0.475766
-0.468591
-0.468601
-0.461743
-0.461755
-0.455075
-0.455088
-0.448763
-0.448779
-0.442603
-0.442622
-0.436898
-0.43692
-0.431337
-0.431363
-0.426376
-0.426408
-0.421514
-0.421549
-0.417431
-0.41748
-0.413337
-0.413384
-0.41026
-0.410345
-0.407016
-0.407056
-0.405054
-0.405246
-0.402755
-0.402673
-0.401873
-0.401977
-0.400897
-0.400367
-0.401109
-0.401093
-0.401761
-0.401754
-0.403026
-0.403019
-0.40487
-0.404869
-0.407231
-0.40723
-0.410112
-0.410114
-0.413481
-0.413483
-0.417325
-0.417328
-0.421599
-0.421602
-0.426303
-0.426306
-0.431388
-0.431391
-0.436845
-0.436848
-0.44263
-0.442633
-0.448725
-0.448728
-0.455087
-0.45509
-0.461711
-0.461714
-0.46859
-0.468593
-0.475731
-0.475733
-0.483115
-0.483117
-0.490728
-0.490729
-0.498515
-0.498517
-0.506443
-0.506445
-0.514472
-0.514474
-0.522583
-0.522584
-0.530758
-0.53076
-0.538992
-0.538993
-0.547274
-0.547275
-0.555629
-0.55563
-0.564035
-0.564036
-0.572485
-0.572486
-0.580978
-0.580979
-0.589494
-0.589495
-0.598028
-0.598029
-0.606557
-0.606558
-0.615085
-0.615085
-0.623576
-0.623577
-0.632036
-0.632037
-0.64045
-0.64045
-0.648801
-0.648801
-0.657092
-0.657093
-0.665303
-0.665304
-0.673438
-0.673438
-0.681497
-0.681498
-0.689483
-0.689483
-0.697394
-0.697395
-0.70524
-0.70524
-0.713009
-0.713009
-0.720708
-0.720708
-0.728331
-0.728331
-0.735879
-0.735879
-0.743354
-0.743354
-0.750773
-0.750774
-0.758123
-0.758123
-0.7654
-0.7654
-0.772605
-0.772605
-0.779716
-0.779716
-0.786731
-0.786731
-0.793642
-0.793642
-0.80046
-0.80046
-0.807196
-0.807196
-0.81386
-0.81386
-0.820447
-0.820447
-0.826975
-0.826975
-0.833438
-0.833439
-0.839839
-0.839839
-0.84616
-0.84616
-0.852405
-0.852405
-0.858577
-0.858577
-0.864654
-0.864654
-0.870651
-0.870651
-0.876549
-0.876549
-0.882363
-0.882363
-0.888098
-0.888098
-0.893741
-0.893741
-0.899307
-0.899307
-0.904793
-0.904793
-0.910198
-0.910198
-0.915521
-0.915521
-0.92076
-0.92076
-0.925912
-0.925911
-0.930973
-0.930973
-0.935948
-0.935948
-0.940827
-0.940827
-0.945616
-0.945616
-0.95032
-0.95032
-0.954926
-0.954925
-0.959446
-0.959446
-0.963887
-0.963887
-0.968233
-0.968232
-0.97249
-0.97249
-0.976674
-0.976674
-0.980773
-0.980772
-0.984787
-0.984787
-0.988724
-0.988724
-0.992581
-0.992581
-0.99634
-0.99634
-1
-1
-1.00359
-1.00359
-1.00707
-1.00707
-1.01047
-1.01047
-1.01378
-1.01378
-1.01702
-1.01702
-1.02017
-1.02017
-1.02323
-1.02323
-1.02622
-1.02622
-1.02912
-1.02912
-1.03194
-1.03194
-1.03469
-1.03469
-1.03734
-1.03734
-1.03989
-1.03989
-1.04237
-1.04237
-1.04475
-1.04475
-1.04703
-1.04703
-1.04922
-1.04922
-1.05131
-1.0513
-1.05329
-1.05329
-1.05517
-1.05517
-1.05694
-1.05694
-1.0586
-1.0586
-1.06016
-1.06016
-1.0616
-1.0616
-1.06292
-1.06292
-1.06412
-1.06412
-1.06521
-1.0652
-1.06617
-1.06617
-1.06699
-1.06699
-1.06769
-1.06769
-1.06824
-1.06822
-1.06866
-1.06868
-1.06892
-1.06888
-1.06906
-1.06915
-1.06904
-1.06913
-1.06886
-1.06881
-1.06855
-1.06856
-1.06805
-1.06804
-1.06742
-1.06742
-1.06661
-1.0666
-1.06563
-1.06563
-1.06448
-1.06448
-1.06317
-1.06316
-1.06166
-1.06166
-1.05998
-1.05997
-1.05811
-1.05811
-1.05605
-1.05604
-1.05378
-1.05378
-1.05132
-1.05131
-1.04866
-1.04866
-1.04581
-1.0458
-1.04274
-1.04274
-1.03945
-1.03945
-1.03597
-1.03596
-1.03226
-1.03226
-1.02833
-1.02833
-1.0242
-1.02419
-1.01985
-1.01984
-1.01529
-1.01529
-1.01049
-1.01049
-1.00548
-1.00548
-1.00026
-1.00026
-0.994811
-0.994807
-0.989172
-0.989168
-0.983275
-0.983271
-0.977155
-0.977151
-0.970856
-0.970852
-0.964296
-0.964292
-0.95752
-0.957516
-0.950577
-0.950572
-0.943376
-0.943372
-0.935969
-0.935965
-0.928348
-0.928344
-0.920483
-0.920479
-0.912465
-0.912461
-0.904207
-0.904203
-0.895756
-0.895752
-0.887119
-0.887115
-0.878248
-0.878244
-0.869183
-0.869179
-0.859989
-0.859985
-0.850597
-0.850593
-0.840941
-0.840937
-0.831172
-0.831168
-0.821237
-0.821233
-0.811128
-0.811124
-0.800853
-0.800849
-0.790436
-0.790432
-0.77985
-0.779846
-0.769047
-0.769043
-0.758189
-0.758185
-0.747241
-0.747237
-0.736036
-0.736032
-0.724764
-0.72476
-0.713468
-0.713464
-0.702032
-0.702028
-0.69045
-0.690446
-0.678753
-0.678749
-0.667054
-0.66705
-0.655258
-0.655254
-0.643357
-0.643353
-0.631361
-0.631357
-0.619447
-0.619443
-0.607422
-0.607418
-0.595256
-0.595252
-0.583256
-0.583252
-0.571154
-0.57115
-0.558939
-0.558935
-0.546783
-0.546779
-0.534704
-0.5347
-0.522535
-0.522531
-0.510494
-0.51049
-0.498507
-0.498503
-0.486377
-0.486373
-0.47447
-0.474466
-0.462605
-0.462601
-0.450662
-0.450658
-0.43894
-0.438936
-0.427335
-0.427331
-0.415626
-0.415622
-0.404054
-0.40405
-0.392746
-0.392742
-0.381417
-0.381413
-0.370206
-0.370202
-0.359142
-0.359138
-0.348252
-0.348248
-0.337488
-0.337484
-0.326766
-0.326762
-0.316346
-0.316342
-0.305983
-0.305979
-0.295779
-0.295775
-0.285791
-0.285787
-0.275825
-0.275822
-0.266073
-0.266069
-0.256538
-0.256534
-0.247237
-0.247233
-0.238151
-0.238147
-0.229135
-0.229131
-0.220349
-0.220345
-0.211804
-0.2118
-0.203335
-0.203331
-0.195114
-0.19511
-0.187137
-0.187133
-0.179255
-0.179251
-0.171621
-0.171617
-0.164245
-0.164241
-0.156963
-0.156959
-0.149949
-0.149945
-0.14317
-0.143166
-0.136528
-0.136525
-0.130101
-0.130097
-0.123825
-0.123821
-0.117764
-0.11776
-0.112003
-0.111999
-0.10629
-0.106286
-0.100778
-0.100774
-0.0955364
-0.0955325
-0.0904125
-0.0904087
-0.0855139
-0.08551
-0.0807525
-0.0807486
-0.0762122
-0.0762083
-0.0717884
-0.0717845
-0.0676204
-0.0676165
-0.0636251
-0.0636212
-0.059712
-0.0597081
-0.0560225
-0.0560186
-0.0524579
-0.052454
-0.0490825
-0.0490786
-0.045841
-0.0458371
-0.0427784
-0.0427745
-0.0398386
-0.0398347
-0.0369891
-0.0369852
-0.0343449
-0.034341
-0.0318676
-0.0318637
-0.0295068
-0.0295029
-0.0272136
-0.0272097
-0.0250532
-0.0250493
-0.023086
-0.0230821
-0.0211818
-0.0211779
-0.019393
-0.0193891
-0.0177198
-0.0177159
-0.0161689
-0.016165
-0.0147058
-0.014702
-0.0133246
-0.0133207
-0.0120568
-0.0120529
-0.0108832
-0.0108793
-0.00979478
-0.00979089
-0.00876643
-0.00876254
-0.0078464
-0.0078425
-0.00698365
-0.00697976
-0.00618815
-0.00618426
-0.00547103
-0.00546714
-0.00482101
-0.00481712
-0.00423208
-0.00422819
-0.0036832
-0.00367931
-0.00318789
-0.003184
-0.00275235
-0.00274846
-0.0023598
-0.0023559
-0.00200568
-0.00200179
-0.00170137
-0.00169747
-0.00142996
-0.00142607
-0.00118999
-0.00118609
-0.000986653
-0.000982758
-0.000810085
-0.000806191
-0.000654909
-0.000651015
-0.000523038
-0.000519143
-0.000414629
-0.000410733
-0.000324153
-0.000320259
-0.000247843
-0.000243949
-0.000186034
-0.00018214
-0.000137806
-0.000133911
-9.99307e-05
-9.60362e-05
-7.01853e-05
-6.62911e-05
-4.79354e-05
-4.40416e-05
-3.21139e-05
-2.82206e-05
-2.10649e-05
-1.71716e-05
-1.35242e-05
-9.63065e-06
-8.77088e-06
-4.87744e-06
-6.08617e-06
-2.19286e-06
-4.72094e-06
-8.279e-07
-4.11922e-06
-2.23363e-07
-3.92982e-06
-2.21342e-08
-3.89937e-06
2.77534e-08
-0.400897
-0.400367
-0.401873
-0.401977
-0.402755
-0.402672
-0.405054
-0.405245
-0.407016
-0.407056
-0.410258
-0.410343
-0.413339
-0.413385
-0.41743
-0.417478
-0.421512
-0.421548
-0.426376
-0.426408
-0.431338
-0.431363
-0.436898
-0.43692
-0.442604
-0.442622
-0.448764
-0.44878
-0.455076
-0.45509
-0.461742
-0.461754
-0.468589
-0.468599
-0.475757
-0.475765
-0.483121
-0.483128
-0.49075
-0.490756
-0.498525
-0.498531
-0.506463
-0.506468
-0.514485
-0.514489
-0.522601
-0.522605
-0.530772
-0.530776
-0.53901
-0.539013
-0.547289
-0.547292
-0.555646
-0.555649
-0.564051
-0.564053
-0.572503
-0.572505
-0.580994
-0.580996
-0.589511
-0.589513
-0.598044
-0.598046
-0.606574
-0.606576
-0.615101
-0.615103
-0.623593
-0.623594
-0.632053
-0.632054
-0.640466
-0.640467
-0.648817
-0.648818
-0.657109
-0.65711
-0.66532
-0.665321
-0.673455
-0.673455
-0.681514
-0.681515
-0.6895
-0.6895
-0.697411
-0.697412
-0.705256
-0.705257
-0.713026
-0.713026
-0.720725
-0.720725
-0.728348
-0.728348
-0.735896
-0.735896
-0.74337
-0.743371
-0.75079
-0.75079
-0.758139
-0.75814
-0.765417
-0.765417
-0.772622
-0.772622
-0.779732
-0.779733
-0.786747
-0.786748
-0.793659
-0.793659
-0.800476
-0.800476
-0.807212
-0.807212
-0.813877
-0.813877
-0.820463
-0.820463
-0.826991
-0.826991
-0.833455
-0.833455
-0.839855
-0.839855
-0.846176
-0.846176
-0.852421
-0.852421
-0.858593
-0.858593
-0.864671
-0.864671
-0.870667
-0.870668
-0.876565
-0.876566
-0.88238
-0.88238
-0.888114
-0.888115
-0.893758
-0.893758
-0.899323
-0.899323
-0.904809
-0.904809
-0.910215
-0.910215
-0.915537
-0.915537
-0.920777
-0.920777
-0.925928
-0.925928
-0.93099
-0.93099
-0.935965
-0.935965
-0.940843
-0.940843
-0.945632
-0.945633
-0.950336
-0.950336
-0.954942
-0.954942
-0.959462
-0.959462
-0.963904
-0.963904
-0.968249
-0.968249
-0.972506
-0.972507
-0.97669
-0.97669
-0.980789
-0.980789
-0.984804
-0.984804
-0.98874
-0.98874
-0.992597
-0.992597
-0.996357
-0.996357
-1.00002
-1.00002
-1.0036
-1.0036
-1.00709
-1.00709
-1.01048
-1.01048
-1.0138
-1.0138
-1.01703
-1.01703
-1.02018
-1.02018
-1.02325
-1.02325
-1.02624
-1.02624
-1.02914
-1.02914
-1.03196
-1.03196
-1.0347
-1.0347
-1.03735
-1.03735
-1.03991
-1.03991
-1.04238
-1.04238
-1.04476
-1.04476
-1.04705
-1.04705
-1.04923
-1.04923
-1.05132
-1.05132
-1.0533
-1.0533
-1.05518
-1.05518
-1.05696
-1.05696
-1.05862
-1.05862
-1.06017
-1.06017
-1.06162
-1.06162
-1.06294
-1.06294
-1.06414
-1.06414
-1.06522
-1.06522
-1.06618
-1.06618
-1.067
-1.06701
-1.06771
-1.0677
-1.06824
-1.06825
-1.0687
-1.06868
-1.0689
-1.06894
-1.06917
-1.06908
-1.06914
-1.06906
-1.06883
-1.06888
-1.06858
-1.06856
-1.06806
-1.06807
-1.06743
-1.06743
-1.06662
-1.06662
-1.06565
-1.06565
-1.0645
-1.0645
-1.06318
-1.06318
-1.06168
-1.06168
-1.05999
-1.05999
-1.05812
-1.05813
-1.05606
-1.05606
-1.05379
-1.0538
-1.05133
-1.05134
-1.04867
-1.04868
-1.04582
-1.04582
-1.04275
-1.04276
-1.03947
-1.03947
-1.03598
-1.03598
-1.03227
-1.03228
-1.02834
-1.02835
-1.02421
-1.02421
-1.01986
-1.01986
-1.0153
-1.01531
-1.0105
-1.01051
-1.0055
-1.0055
-1.00027
-1.00028
-0.994823
-0.994827
-0.989184
-0.989188
-0.983287
-0.983292
-0.977168
-0.977172
-0.970868
-0.970872
-0.964308
-0.964312
-0.957532
-0.957536
-0.950589
-0.950593
-0.943388
-0.943392
-0.935981
-0.935985
-0.92836
-0.928364
-0.920495
-0.9205
-0.912478
-0.912482
-0.904219
-0.904223
-0.895768
-0.895772
-0.887131
-0.887135
-0.87826
-0.878264
-0.869195
-0.869199
-0.860001
-0.860005
-0.85061
-0.850614
-0.840953
-0.840957
-0.831184
-0.831188
-0.821249
-0.821253
-0.811141
-0.811145
-0.800865
-0.80087
-0.790449
-0.790453
-0.779862
-0.779866
-0.769059
-0.769063
-0.758202
-0.758206
-0.747253
-0.747257
-0.736048
-0.736052
-0.724776
-0.72478
-0.713481
-0.713485
-0.702044
-0.702048
-0.690462
-0.690466
-0.678765
-0.678769
-0.667066
-0.66707
-0.655271
-0.655275
-0.64337
-0.643374
-0.631374
-0.631378
-0.61946
-0.619464
-0.607434
-0.607438
-0.595268
-0.595272
-0.583268
-0.583272
-0.571166
-0.57117
-0.558951
-0.558955
-0.546795
-0.546799
-0.534716
-0.53472
-0.522548
-0.522552
-0.510506
-0.51051
-0.49852
-0.498524
-0.48639
-0.486394
-0.474483
-0.474487
-0.462617
-0.462621
-0.450675
-0.450678
-0.438953
-0.438957
-0.427347
-0.427351
-0.415639
-0.415643
-0.404066
-0.40407
-0.392758
-0.392762
-0.38143
-0.381434
-0.370218
-0.370222
-0.359155
-0.359159
-0.348265
-0.348269
-0.3375
-0.337504
-0.326778
-0.326782
-0.316359
-0.316363
-0.305995
-0.305999
-0.295792
-0.295796
-0.285804
-0.285808
-0.275838
-0.275842
-0.266085
-0.266089
-0.25655
-0.256554
-0.247249
-0.247253
-0.238163
-0.238167
-0.229147
-0.229151
-0.220361
-0.220365
-0.211816
-0.21182
-0.203347
-0.203351
-0.195126
-0.19513
-0.187149
-0.187153
-0.179267
-0.179271
-0.171634
-0.171638
-0.164258
-0.164262
-0.156976
-0.15698
-0.149961
-0.149965
-0.143183
-0.143187
-0.136541
-0.136545
-0.130113
-0.130117
-0.123837
-0.123841
-0.117776
-0.11778
-0.112016
-0.112019
-0.106303
-0.106307
-0.10079
-0.100794
-0.095549
-0.0955529
-0.0904251
-0.090429
-0.0855264
-0.0855303
-0.080765
-0.080769
-0.0762247
-0.0762286
-0.0718009
-0.0718049
-0.067633
-0.0676369
-0.0636377
-0.0636416
-0.0597245
-0.0597285
-0.056035
-0.056039
-0.0524704
-0.0524744
-0.049095
-0.049099
-0.0458535
-0.0458575
-0.042791
-0.0427949
-0.0398511
-0.039855
-0.0370016
-0.0370056
-0.0343574
-0.0343613
-0.0318801
-0.031884
-0.0295193
-0.0295233
-0.0272261
-0.02723
-0.0250657
-0.0250697
-0.0230985
-0.0231025
-0.0211943
-0.0211983
-0.0194055
-0.0194094
-0.0177323
-0.0177362
-0.0161814
-0.0161854
-0.0147184
-0.0147223
-0.0133371
-0.0133411
-0.0120693
-0.0120733
-0.0108958
-0.0108997
-0.00980731
-0.00981125
-0.00877896
-0.0087829
-0.00785892
-0.00786287
-0.00699618
-0.00700012
-0.00620068
-0.00620462
-0.00548356
-0.0054875
-0.00483354
-0.00483748
-0.00424461
-0.00424855
-0.00369573
-0.00369967
-0.00320042
-0.00320436
-0.00276488
-0.00276882
-0.00237232
-0.00237626
-0.00201821
-0.00202215
-0.00171389
-0.00171784
-0.00144249
-0.00144643
-0.00120251
-0.00120646
-0.000999179
-0.00100312
-0.000822611
-0.000826554
-0.000667435
-0.000671378
-0.000535564
-0.000539506
-0.000427154
-0.000431096
-0.000336679
-0.000340622
-0.000260369
-0.000264312
-0.00019856
-0.000202502
-0.000150332
-0.000154273
-0.000112456
-0.000116399
-8.2711e-05
-8.66536e-05
-6.04614e-05
-6.44033e-05
-4.46402e-05
-4.85809e-05
-3.35913e-05
-3.75321e-05
-2.60503e-05
-2.9992e-05
-2.12969e-05
-2.52386e-05
-1.86123e-05
-2.25537e-05
-1.7247e-05
-2.11884e-05
-1.66453e-05
-2.05868e-05
-1.64559e-05
-2.03974e-05
-1.64255e-05
-2.03672e-05
)
;

boundaryField
{
    walls
    {
        type            zeroGradient;
    }
    inlet
    {
        type            cyclic;
    }
    outlet
    {
        type            cyclic;
    }
    sides
    {
        type            empty;
    }
}


// ************************************************************************* //
