/*--------------------------------*- C++ -*----------------------------------*\
| =========                 |                                                 |
| \\      /  F ield         | OpenFOAM: The Open Source CFD Toolbox           |
|  \\    /   O peration     | Version:  2012                                  |
|   \\  /    A nd           | Website:  www.openfoam.com                      |
|    \\/     M anipulation  |                                                 |
\*---------------------------------------------------------------------------*/
FoamFile
{
    version     2.0;
    format      ascii;
    class       surfaceScalarField;
    location    "11000";
    object      phi;
}
// * * * * * * * * * * * * * * * * * * * * * * * * * * * * * * * * * * * * * //

dimensions      [0 3 -1 0 0 0 0];
oriented        oriented;


internalField   nonuniform List<scalar> 
5116
(
2.10127e-07
-4.42618e-12
1.0431e-13
-2.68446e-14
6.43551e-14
6.41312e-07
-4.65245e-12
1.62868e-13
-7.21474e-14
1.0057e-13
1.09003e-06
-4.88862e-12
1.69895e-13
-1.14898e-13
1.04984e-13
1.55694e-06
-5.13356e-12
1.77154e-13
-1.67413e-13
1.09499e-13
2.04268e-06
-5.3867e-12
1.84284e-13
-2.12302e-13
1.13908e-13
2.54785e-06
-5.63454e-12
1.9048e-13
-2.52085e-13
1.17734e-13
3.07303e-06
-5.90125e-12
1.94317e-13
-2.98134e-13
1.20104e-13
3.61874e-06
-6.15059e-12
1.93776e-13
-3.34274e-13
1.19771e-13
4.18549e-06
-6.41252e-12
1.86925e-13
-3.82944e-13
1.15536e-13
4.7738e-06
-6.65446e-12
1.73271e-13
-4.32624e-13
1.07096e-13
5.38427e-06
-6.87539e-12
1.54668e-13
-4.7598e-13
9.55974e-14
6.01759e-06
-7.06575e-12
1.34456e-13
-5.17853e-13
8.31031e-14
6.67471e-06
-7.22974e-12
1.15569e-13
-5.48711e-13
7.14286e-14
7.3568e-06
-7.36542e-12
9.95163e-14
-5.76583e-13
6.15069e-14
8.06536e-06
-7.48737e-12
8.65731e-14
-5.97972e-13
5.35073e-14
8.8022e-06
-7.59027e-12
7.63902e-14
-6.18007e-13
4.72129e-14
9.56942e-06
-7.687e-12
6.84384e-14
-6.34475e-13
4.22977e-14
1.03695e-05
-7.7704e-12
6.22195e-14
-6.50793e-13
3.84536e-14
1.1205e-05
-7.85189e-12
5.73286e-14
-6.64497e-13
3.54303e-14
1.20788e-05
-7.92328e-12
5.34567e-14
-6.78584e-13
3.30366e-14
1.29942e-05
-7.99516e-12
5.03732e-14
-6.90597e-13
3.11299e-14
1.39543e-05
-8.05912e-12
4.79062e-14
-7.03433e-13
2.96051e-14
1.49624e-05
-8.12491e-12
4.59296e-14
-7.14308e-13
2.83833e-14
1.6022e-05
-8.18394e-12
4.43494e-14
-7.26162e-13
2.74055e-14
1.71365e-05
-8.24576e-12
4.30929e-14
-7.36291e-13
2.66282e-14
1.83093e-05
-8.30177e-12
4.21057e-14
-7.47643e-13
2.60177e-14
1.95437e-05
-8.36124e-12
4.13466e-14
-7.57316e-13
2.55479e-14
2.0843e-05
-8.41555e-12
4.07839e-14
-7.68431e-13
2.5199e-14
2.22102e-05
-8.47371e-12
4.03916e-14
-7.77847e-13
2.49557e-14
2.36484e-05
-8.52726e-12
4.01507e-14
-7.88885e-13
2.48063e-14
2.51601e-05
-8.58501e-12
4.00467e-14
-7.98176e-13
2.47411e-14
2.67481e-05
-8.63847e-12
4.00683e-14
-8.09169e-13
2.47532e-14
2.84147e-05
-8.69648e-12
4.02057e-14
-8.18465e-13
2.48371e-14
3.01618e-05
-8.75052e-12
4.04529e-14
-8.29557e-13
2.49888e-14
3.19914e-05
-8.80947e-12
4.08057e-14
-8.38983e-13
2.52055e-14
3.39049e-05
-8.8647e-12
4.12607e-14
-8.50284e-13
2.54854e-14
3.59036e-05
-8.92513e-12
4.18165e-14
-8.59915e-13
2.58276e-14
3.79885e-05
-8.98196e-12
4.24731e-14
-8.71354e-13
2.62319e-14
4.01601e-05
-9.04446e-12
4.32316e-14
-8.81293e-13
2.6699e-14
4.24186e-05
-9.10336e-12
4.40939e-14
-8.92877e-13
2.72303e-14
4.47638e-05
-9.16866e-12
4.50635e-14
-9.03371e-13
2.78278e-14
4.71951e-05
-9.23045e-12
4.61455e-14
-9.15409e-13
2.84943e-14
4.97112e-05
-9.29918e-12
4.7345e-14
-9.26542e-13
2.92334e-14
5.23104e-05
-9.36471e-12
4.8669e-14
-9.39315e-13
3.00494e-14
5.49904e-05
-9.43735e-12
5.01263e-14
-9.50989e-13
3.09474e-14
5.7748e-05
-9.50586e-12
5.1726e-14
-9.63106e-13
3.19336e-14
6.05793e-05
-9.58305e-12
5.34806e-14
-9.75308e-13
3.30151e-14
6.34794e-05
-9.65309e-12
5.54027e-14
-9.84482e-13
3.41997e-14
6.64424e-05
-9.73588e-12
5.7505e-14
-9.9746e-13
3.54975e-14
6.94613e-05
-9.8153e-12
5.98115e-14
-1.01107e-12
3.6918e-14
7.25277e-05
-9.90593e-12
6.2337e-14
-1.02611e-12
3.84729e-14
7.56319e-05
-1.00034e-11
6.50968e-14
-1.05141e-12
4.01777e-14
7.87628e-05
-1.01033e-11
6.81261e-14
-1.06864e-12
4.20452e-14
8.19074e-05
-1.02105e-11
7.14524e-14
-1.09585e-12
4.40877e-14
8.50513e-05
-1.03182e-11
7.50876e-14
-1.11264e-12
4.6326e-14
8.81784e-05
-1.04248e-11
7.90586e-14
-1.13048e-12
4.87787e-14
9.12708e-05
-1.0542e-11
8.33974e-14
-1.1468e-12
5.14568e-14
9.43094e-05
-1.06512e-11
8.81325e-14
-1.15644e-12
5.43724e-14
9.72735e-05
-1.07833e-11
9.32699e-14
-1.17576e-12
5.75316e-14
0.000100142
-1.09094e-11
9.87935e-14
-1.18965e-12
6.09358e-14
0.000102892
-1.10601e-11
1.04688e-13
-1.21406e-12
6.4571e-14
0.000105502
-1.12224e-11
1.10902e-13
-1.24997e-12
6.84001e-14
0.000107951
-1.1393e-11
1.17335e-13
-1.27916e-12
7.23713e-14
0.000110218
-1.15903e-11
1.23877e-13
-1.33453e-12
7.63983e-14
0.000112287
-1.17771e-11
1.30371e-13
-1.36418e-12
8.03845e-14
0.000114144
-1.19875e-11
1.36615e-13
-1.4175e-12
8.42288e-14
0.000115778
-1.21854e-11
1.42443e-13
-1.44384e-12
8.78259e-14
0.000117187
-1.23919e-11
1.47751e-13
-1.48032e-12
9.11002e-14
0.000118371
-1.26016e-11
1.52496e-13
-1.50622e-12
9.40196e-14
0.000119338
-1.2805e-11
1.56705e-13
-1.52855e-12
9.66082e-14
0.000120102
-1.30295e-11
1.60483e-13
-1.55928e-12
9.89182e-14
0.000120678
-1.3241e-11
1.63954e-13
-1.58051e-12
1.01041e-13
0.000121088
-1.34816e-11
1.67266e-13
-1.61878e-12
1.03075e-13
0.000121353
-1.37041e-11
1.70568e-13
-1.64275e-12
1.05103e-13
0.000121497
-1.39597e-11
1.73987e-13
-1.6876e-12
1.07209e-13
0.000121541
-1.41959e-11
1.77639e-13
-1.71643e-12
1.09444e-13
0.000121504
-1.4466e-11
1.81582e-13
-1.76618e-12
1.11861e-13
0.000121403
-1.4724e-11
1.85851e-13
-1.80694e-12
1.14495e-13
0.000121252
-1.50091e-11
1.90502e-13
-1.86056e-12
1.17363e-13
0.000121062
-1.52938e-11
1.95571e-13
-1.9159e-12
1.20475e-13
0.000120842
-1.55935e-11
2.01062e-13
-1.97099e-12
1.23848e-13
0.000120599
-1.58975e-11
2.07002e-13
-2.031e-12
1.27481e-13
0.000120337
-1.62118e-11
2.13384e-13
-2.08517e-12
1.31386e-13
0.000120059
-1.65295e-11
2.20206e-13
-2.14242e-12
1.35574e-13
0.000119767
-1.68608e-11
2.27477e-13
-2.19607e-12
1.40043e-13
0.000119463
-1.72014e-11
2.3521e-13
-2.25785e-12
1.4481e-13
0.000119146
-1.75551e-11
2.43443e-13
-2.31412e-12
1.4987e-13
0.000118819
-1.79266e-11
2.52173e-13
-2.38596e-12
1.55229e-13
0.000118479
-1.83069e-11
2.61432e-13
-2.44649e-12
1.60905e-13
0.000118129
-1.87089e-11
2.71244e-13
-2.52522e-12
1.66906e-13
0.000117768
-1.91176e-11
2.81586e-13
-2.58927e-12
1.73253e-13
0.000117396
-1.95415e-11
2.92493e-13
-2.66399e-12
1.79964e-13
0.000117015
-1.99813e-11
3.04022e-13
-2.73172e-12
1.87044e-13
0.000116623
-2.04214e-11
3.16171e-13
-2.79365e-12
1.94521e-13
0.000116223
-2.08986e-11
3.2901e-13
-2.86815e-12
2.02398e-13
0.000115814
-2.13755e-11
3.42604e-13
-2.9345e-12
2.10694e-13
0.000115398
-2.18984e-11
3.56898e-13
-3.02043e-12
2.19458e-13
0.000114975
-2.24369e-11
3.71929e-13
-3.11286e-12
2.28705e-13
0.000114546
-2.30091e-11
3.87774e-13
-3.21065e-12
2.38456e-13
0.000114112
-2.36015e-11
4.04533e-13
-3.31741e-12
2.4872e-13
0.000113674
-2.42221e-11
4.22237e-13
-3.42151e-12
2.59523e-13
0.000113233
-2.4858e-11
4.40804e-13
-3.52775e-12
2.70942e-13
0.000112789
-2.55306e-11
4.60381e-13
-3.63797e-12
2.82969e-13
0.000112344
-2.62269e-11
4.81112e-13
-3.75572e-12
2.95618e-13
0.000111897
-2.69617e-11
5.02867e-13
-3.87656e-12
3.08976e-13
0.00011145
-2.77324e-11
5.2576e-13
-4.01514e-12
3.23056e-13
0.000111003
-2.85353e-11
5.4998e-13
-4.14733e-12
3.37866e-13
0.000110557
-2.93688e-11
5.75505e-13
-4.2886e-12
3.53462e-13
0.000110113
-3.02454e-11
6.02326e-13
-4.43126e-12
3.69917e-13
0.00010967
-3.11342e-11
6.30549e-13
-4.56179e-12
3.87265e-13
0.000109228
-3.20948e-11
6.60375e-13
-4.71867e-12
4.05504e-13
0.00010879
-3.30634e-11
6.91872e-13
-4.85492e-12
4.24691e-13
0.000108354
-3.41214e-11
7.24963e-13
-5.03116e-12
4.44933e-13
0.000107921
-3.51993e-11
7.59712e-13
-5.19553e-12
4.66274e-13
0.000107492
-3.63649e-11
7.96319e-13
-5.39415e-12
4.88751e-13
0.000107065
-3.75723e-11
8.34998e-13
-5.59806e-12
5.12391e-13
0.000106643
-3.88529e-11
8.75751e-13
-5.81627e-12
5.3727e-13
0.000106224
-4.02047e-11
9.18579e-13
-6.06433e-12
5.63516e-13
0.00010581
-4.16071e-11
9.63742e-13
-6.29887e-12
5.91136e-13
0.000105399
-4.31013e-11
1.01142e-12
-6.5777e-12
6.2017e-13
0.000104993
-4.46355e-11
1.06163e-12
-6.8262e-12
6.50765e-13
0.000104591
-4.62542e-11
1.11445e-12
-7.10582e-12
6.83025e-13
0.000104194
-4.79338e-11
1.16991e-12
-7.37036e-12
7.17028e-13
0.000103801
-4.96792e-11
1.22835e-12
-7.64135e-12
7.52861e-13
0.000103412
-5.15279e-11
1.29016e-12
-7.93163e-12
7.90547e-13
0.000103029
-5.34474e-11
1.35541e-12
-8.2246e-12
8.30204e-13
0.00010265
-5.54946e-11
1.42415e-12
-8.55234e-12
8.72018e-13
0.000102277
-5.76301e-11
1.49628e-12
-8.89353e-12
9.16192e-13
0.00010191
-5.98954e-11
1.57245e-12
-9.26381e-12
9.6273e-13
0.000101548
-6.22627e-11
1.65306e-12
-9.65021e-12
1.01167e-12
0.000101193
-6.47652e-11
1.73788e-12
-1.00599e-11
1.0634e-12
0.000100844
-6.73831e-11
1.82738e-12
-1.04902e-11
1.11799e-12
0.000100504
-7.01455e-11
1.92191e-12
-1.09416e-11
1.17555e-12
0.000100171
-7.30377e-11
2.02185e-12
-1.14159e-11
1.23628e-12
9.98469e-05
-7.6089e-11
2.12726e-12
-1.19127e-11
1.30042e-12
9.95323e-05
-7.92874e-11
2.23862e-12
-1.24369e-11
1.36818e-12
9.92276e-05
-8.26619e-11
2.35637e-12
-1.29861e-11
1.43972e-12
9.89333e-05
-8.6208e-11
2.48076e-12
-1.35713e-11
1.51533e-12
9.86501e-05
-8.99442e-11
2.61237e-12
-1.41793e-11
1.59524e-12
9.83785e-05
-9.38763e-11
2.75168e-12
-1.483e-11
1.67974e-12
9.81191e-05
-9.80176e-11
2.899e-12
-1.55025e-11
1.76911e-12
9.78727e-05
-1.0237e-10
3.05492e-12
-1.62138e-11
1.86366e-12
9.76399e-05
-1.06963e-10
3.21997e-12
-1.69582e-11
1.96379e-12
9.74216e-05
-1.11785e-10
3.39494e-12
-1.77351e-11
2.06982e-12
9.72187e-05
-1.1689e-10
3.58067e-12
-1.85621e-11
2.18205e-12
9.70323e-05
-1.22258e-10
3.77763e-12
-1.94268e-11
2.301e-12
9.68635e-05
-1.27944e-10
3.98644e-12
-2.03488e-11
2.42712e-12
9.67135e-05
-1.33932e-10
4.20783e-12
-2.13163e-11
2.561e-12
9.65834e-05
-1.40272e-10
4.4431e-12
-2.2342e-11
2.70304e-12
9.64748e-05
-1.46951e-10
4.69309e-12
-2.34142e-11
2.85375e-12
9.63887e-05
-1.54025e-10
4.95867e-12
-2.4553e-11
3.0138e-12
9.63268e-05
-1.61487e-10
5.24101e-12
-2.57419e-11
3.18376e-12
9.62903e-05
-1.69396e-10
5.5413e-12
-2.70058e-11
3.36431e-12
9.62808e-05
-1.77765e-10
5.86042e-12
-2.83428e-11
3.55608e-12
9.62997e-05
-1.86616e-10
6.19952e-12
-2.97476e-11
3.75979e-12
9.63484e-05
-1.96021e-10
6.56029e-12
-3.1259e-11
3.97607e-12
9.6428e-05
-2.0595e-10
6.94378e-12
-3.28169e-11
4.20572e-12
9.65395e-05
-2.16508e-10
7.35164e-12
-3.44953e-11
4.44919e-12
9.66832e-05
-2.27635e-10
7.78364e-12
-3.62144e-11
4.7073e-12
9.68588e-05
-2.39487e-10
8.24091e-12
-3.80588e-11
4.98092e-12
9.70655e-05
-2.51987e-10
8.72651e-12
-3.9961e-11
5.26986e-12
9.73013e-05
-2.65315e-10
9.2403e-12
-4.19759e-11
5.57493e-12
9.75635e-05
-2.79417e-10
9.78244e-12
-4.40835e-11
5.89704e-12
9.78489e-05
-2.94392e-10
1.0354e-11
-4.62718e-11
6.23616e-12
9.81535e-05
-3.10271e-10
1.0957e-11
-4.86078e-11
6.59274e-12
9.84732e-05
-3.27098e-10
1.15936e-11
-5.10021e-11
6.96699e-12
9.88041e-05
-3.45009e-10
1.22633e-11
-5.35963e-11
7.35975e-12
9.91429e-05
-3.63885e-10
1.29655e-11
-5.62365e-11
7.77314e-12
9.94868e-05
-3.83946e-10
1.37048e-11
-5.91071e-11
8.20695e-12
9.98351e-05
-4.05032e-10
1.44851e-11
-6.2028e-11
8.66164e-12
0.000100189
-4.27507e-10
1.53056e-11
-6.5193e-11
9.14073e-12
0.00010055
-4.5096e-10
1.61722e-11
-6.84086e-11
9.64352e-12
0.000100924
-4.75867e-10
1.70883e-11
-7.1884e-11
1.01754e-11
0.000101315
-5.01833e-10
1.80635e-11
-7.53285e-11
1.07313e-11
0.00010173
-5.29558e-10
1.90826e-11
-7.91274e-11
1.1328e-11
0.000102174
-5.58023e-10
2.01836e-11
-8.2655e-11
1.19366e-11
0.000102652
-5.89306e-10
2.13046e-11
-8.6939e-11
1.26224e-11
0.000103168
-6.19287e-10
2.2584e-11
-9.01344e-11
1.32528e-11
0.000103724
-6.5433e-10
2.37425e-11
-9.50724e-11
1.41039e-11
0.000104323
-6.83335e-10
2.53584e-11
-9.71187e-11
1.45984e-11
0.000104964
-7.20679e-10
2.62176e-11
-1.03462e-10
1.5964e-11
0.000105646
-7.45705e-10
2.89284e-11
-1.02669e-10
1.55776e-11
0.000106366
-7.836e-10
2.78982e-11
-1.1368e-10
1.90282e-11
0.000107121
-8.10229e-10
3.50505e-11
-1.04454e-10
1.43943e-11
0.000107905
-8.36101e-10
2.49116e-11
-1.3494e-10
2.71419e-11
0.000108716
-9.26933e-10
5.20477e-11
-8.77486e-11
2.7023e-12
0.00010955
-8.759e-10
-7.58567e-13
-2.06763e-10
5.8288e-11
0.000110406
-1.19946e-09
1.18848e-10
2.62748e-11
-5.846e-11
0.000111282
-7.49156e-10
-1.32549e-10
-4.99774e-10
1.95871e-10
0.000112182
-2.8314e-10
-1.42651e-10
-1.06424e-09
2.08978e-10
0.000113113
-5.97792e-10
1.27348e-10
-8.21664e-10
-5.79544e-11
0.000114081
-5.06508e-10
-8.89106e-12
-9.95712e-10
8.14089e-11
0.000115093
-6.14399e-10
6.27752e-11
-9.58185e-10
1.29066e-11
0.000116156
-6.21658e-10
2.90128e-11
-1.02934e-09
4.9855e-11
0.000117274
-6.79823e-10
4.83856e-11
-1.0472e-09
3.36628e-11
0.000118454
-7.15656e-10
4.11138e-11
-1.09385e-09
4.40848e-11
0.0001197
-7.65525e-10
4.70781e-11
-1.12819e-09
4.1195e-11
0.000121018
-8.11849e-10
4.63864e-11
-1.17101e-09
4.4866e-11
0.000122409
-8.62915e-10
4.88927e-11
-1.21186e-09
4.52113e-11
0.000123876
-9.1448e-10
4.96918e-11
-1.25583e-09
4.70373e-11
0.000125411
-9.68149e-10
5.11471e-11
-1.30027e-09
4.79921e-11
0.000127008
-1.02283e-09
5.21132e-11
-1.34635e-09
4.92224e-11
0.000128654
-1.07875e-09
5.31385e-11
-1.39327e-09
5.01484e-11
0.000130337
-1.1355e-09
5.39463e-11
-1.44127e-09
5.10546e-11
0.000132041
-1.19305e-09
5.46862e-11
-1.49003e-09
5.1799e-11
0.000133754
-1.25118e-09
5.52996e-11
-1.53955e-09
5.24757e-11
0.000135466
-1.30988e-09
5.58403e-11
-1.58973e-09
5.30604e-11
0.000137174
-1.36897e-09
5.63079e-11
-1.64049e-09
5.35902e-11
0.000138888
-1.4285e-09
5.67317e-11
-1.69185e-09
5.40758e-11
0.000140621
-1.48838e-09
5.71216e-11
-1.74372e-09
5.45264e-11
0.000142385
-1.54863e-09
5.74941e-11
-1.79609e-09
5.49537e-11
0.000144192
-1.60921e-09
5.78574e-11
-1.84897e-09
5.53762e-11
0.000146041
-1.67012e-09
5.82209e-11
-1.90233e-09
5.58027e-11
0.00014793
-1.73138e-09
5.85919e-11
-1.95623e-09
5.62338e-11
0.000149851
-1.79297e-09
5.89783e-11
-2.01059e-09
5.66766e-11
0.000151792
-1.85498e-09
5.93896e-11
-2.06554e-09
5.71506e-11
0.00015374
-1.91734e-09
5.98333e-11
-2.12099e-09
5.76505e-11
0.000155685
-1.98019e-09
6.03206e-11
-2.17709e-09
5.81966e-11
0.00015761
-2.04352e-09
6.08623e-11
-2.23377e-09
5.87918e-11
0.000159501
-2.10743e-09
6.14712e-11
-2.29118e-09
5.94447e-11
0.000161356
-2.17199e-09
6.21629e-11
-2.34935e-09
6.01885e-11
0.000163184
-2.23731e-09
6.29491e-11
-2.40841e-09
6.10222e-11
0.000165012
-2.3035e-09
6.38384e-11
-2.46843e-09
6.19546e-11
0.000166873
-2.37068e-09
6.48306e-11
-2.52955e-09
6.29887e-11
0.000168804
-2.43892e-09
6.59159e-11
-2.59181e-09
6.41127e-11
0.000170829
-2.50835e-09
6.70775e-11
-2.65533e-09
6.53098e-11
0.000172955
-2.57895e-09
6.83103e-11
-2.72011e-09
6.65824e-11
0.000175166
-2.65086e-09
6.95976e-11
-2.78631e-09
6.79145e-11
0.00017742
-2.72404e-09
7.09285e-11
-2.85384e-09
6.92843e-11
0.000179671
-2.79861e-09
7.23169e-11
-2.92284e-09
7.07073e-11
0.000181886
-2.87459e-09
7.37701e-11
-2.99331e-09
7.21962e-11
0.00018406
-2.9521e-09
7.53071e-11
-3.06539e-09
7.37718e-11
0.000186207
-3.03121e-09
7.69374e-11
-3.13914e-09
7.54434e-11
0.000188346
-3.11206e-09
7.86762e-11
-3.2147e-09
7.72235e-11
0.000190493
-3.19474e-09
8.05262e-11
-3.29215e-09
7.91094e-11
0.000192662
-3.2794e-09
8.2497e-11
-3.37163e-09
8.11168e-11
0.000194875
-3.36614e-09
8.45879e-11
-3.45323e-09
8.32426e-11
0.000197167
-3.45508e-09
8.67733e-11
-3.53707e-09
8.54631e-11
0.000199589
-3.5463e-09
8.90583e-11
-3.62323e-09
8.77895e-11
0.000202189
-3.63987e-09
9.14046e-11
-3.71179e-09
9.01728e-11
0.000204988
-3.73582e-09
9.37912e-11
-3.80275e-09
9.26032e-11
0.00020797
-3.83419e-09
9.62102e-11
-3.8962e-09
9.50631e-11
0.000211081
-3.935e-09
9.86488e-11
-3.9921e-09
9.75417e-11
0.000214239
-4.03829e-09
1.01122e-10
-4.09054e-09
1.00067e-10
0.000217356
-4.14408e-09
1.03623e-10
-4.1915e-09
1.02619e-10
0.00022035
-4.25242e-09
1.0616e-10
-4.29506e-09
1.05203e-10
0.000223136
-4.36336e-09
1.08757e-10
-4.40123e-09
1.07852e-10
0.000225629
-4.47703e-09
1.11472e-10
-4.51017e-09
1.10622e-10
0.0002278
-4.59366e-09
1.14412e-10
-4.62206e-09
1.13614e-10
0.000229716
-4.71361e-09
1.17699e-10
-4.73728e-09
1.16956e-10
0.000231529
-4.83736e-09
1.21455e-10
-4.85626e-09
1.20768e-10
0.00023342
-4.9654e-09
1.25687e-10
-4.97949e-09
1.25056e-10
0.000235551
-5.09814e-09
1.3033e-10
-5.10734e-09
1.29758e-10
0.000238071
-5.23588e-09
1.35252e-10
-5.24011e-09
1.34738e-10
0.000241084
-5.37877e-09
1.40328e-10
-5.37793e-09
1.39883e-10
0.000244552
-5.52684e-09
1.45413e-10
-5.52083e-09
1.45036e-10
0.000248235
-5.68009e-09
1.50497e-10
-5.66878e-09
1.50192e-10
0.000251789
-5.83851e-09
1.55567e-10
-5.82179e-09
1.55349e-10
0.000254947
-6.0021e-09
1.60623e-10
-5.97982e-09
1.60492e-10
0.000257683
-6.17099e-09
1.65787e-10
-6.14301e-09
1.65759e-10
0.000260199
-6.34535e-09
1.71126e-10
-6.31148e-09
1.71203e-10
0.000262784
-6.52547e-09
1.76721e-10
-6.48551e-09
1.76905e-10
0.000265672
-6.71155e-09
1.82508e-10
-6.66526e-09
1.82821e-10
0.000269002
-6.90361e-09
1.88291e-10
-6.85074e-09
1.88739e-10
0.000272868
-7.10153e-09
1.93944e-10
-7.04179e-09
1.94539e-10
0.00027724
-7.30519e-09
1.9944e-10
-7.23828e-09
2.00199e-10
0.000281967
-7.51453e-09
2.04883e-10
-7.44009e-09
2.05805e-10
0.000286896
-7.72945e-09
2.1017e-10
-7.6471e-09
2.11275e-10
0.000291937
-7.95003e-09
2.15532e-10
-7.85936e-09
2.16856e-10
0.000297039
-8.17611e-09
2.20692e-10
-8.07667e-09
2.22248e-10
0.000302128
-8.40785e-09
2.25966e-10
-8.29911e-09
2.27776e-10
0.00030708
-8.64489e-09
2.30856e-10
-8.52632e-09
2.32953e-10
0.000311776
-8.88744e-09
2.35921e-10
-8.75843e-09
2.38334e-10
0.000316129
-9.13494e-09
2.4037e-10
-8.99484e-09
2.43127e-10
0.000320105
-9.38792e-09
2.45293e-10
-9.23598e-09
2.48439e-10
0.000323756
-9.64556e-09
2.4936e-10
-9.48102e-09
2.52943e-10
0.000327118
-9.90907e-09
2.54558e-10
-9.73105e-09
2.58627e-10
0.000330147
-1.01773e-08
2.58547e-10
-9.98488e-09
2.63172e-10
0.000332887
-1.04525e-08
2.64684e-10
-1.02446e-08
2.69936e-10
0.000335539
-1.07326e-08
2.68733e-10
-1.05082e-08
2.74706e-10
0.000338257
-1.10214e-08
2.76333e-10
-1.07792e-08
2.83119e-10
0.000340971
-1.13151e-08
2.80003e-10
-1.10535e-08
2.87714e-10
0.000343367
-1.16196e-08
2.89581e-10
-1.13372e-08
2.98379e-10
0.00034515
-1.19284e-08
2.92499e-10
-1.16236e-08
3.02554e-10
0.000346297
-1.22524e-08
3.05918e-10
-1.19232e-08
3.17435e-10
0.000347023
-1.25805e-08
3.08123e-10
-1.22247e-08
3.21374e-10
0.000347583
-1.29311e-08
3.28372e-10
-1.25463e-08
3.43686e-10
0.000348057
-1.32845e-08
3.28623e-10
-1.28679e-08
3.46444e-10
0.000348554
-1.36719e-08
3.5946e-10
-1.32203e-08
3.80279e-10
0.000349646
-1.40572e-08
3.53898e-10
-1.35671e-08
3.78352e-10
0.000352214
-1.44924e-08
3.99777e-10
-1.396e-08
4.28607e-10
0.000356795
-1.4911e-08
3.78526e-10
-1.43322e-08
4.12564e-10
0.000363103
-1.54016e-08
4.45392e-10
-1.47722e-08
4.85601e-10
0.000370088
-1.58467e-08
3.94149e-10
-1.51624e-08
4.41698e-10
0.000376417
-1.64007e-08
4.96502e-10
-1.56572e-08
5.53021e-10
0.00038109
-1.68601e-08
3.94631e-10
-1.60534e-08
4.61755e-10
0.000383955
-1.7491e-08
5.58108e-10
-1.66173e-08
6.37921e-10
0.000385573
-1.79455e-08
3.72262e-10
-1.70018e-08
4.67656e-10
0.00038669
-1.86812e-08
6.43263e-10
-1.76653e-08
7.57818e-10
0.000387953
-1.91025e-08
3.16191e-10
-1.80137e-08
4.54508e-10
0.000389774
-1.99944e-08
7.73554e-10
-1.8834e-08
9.41482e-10
0.000392197
-2.03274e-08
1.97927e-10
-1.91004e-08
4.02715e-10
0.00039487
-2.14545e-08
9.75571e-10
-2.01711e-08
1.22655e-09
0.000397509
-2.15941e-08
-3.35067e-11
-2.0272e-08
2.75276e-10
0.000400643
-2.30798e-08
1.29305e-09
-2.17481e-08
1.6751e-09
0.000405229
-2.28358e-08
-4.6294e-10
-2.1538e-08
1.00097e-11
0.000411442
-2.48702e-08
1.79489e-09
-2.3674e-08
2.38539e-09
0.000418751
-2.39148e-08
-1.22361e-09
-2.29141e-08
-4.91124e-10
0.000426183
-2.6787e-08
2.58591e-09
-2.61295e-08
3.51486e-09
0.000432646
-2.4578e-08
-2.51986e-09
-2.44436e-08
-1.37646e-09
0.000437705
-2.87342e-08
3.83619e-09
-2.9443e-08
5.33626e-09
0.000441867
-2.43917e-08
-4.66058e-09
-2.62345e-08
-2.89499e-09
0.000445825
-3.04815e-08
5.77654e-09
-3.42225e-08
8.32302e-09
0.000449167
-2.26386e-08
-8.06709e-09
-2.84816e-08
-5.5264e-09
0.000450995
-3.147e-08
8.6097e-09
-4.1739e-08
1.35018e-08
0.000451533
-1.82618e-08
-1.30865e-08
-3.12969e-08
-1.05777e-08
0.0004526
-2.99085e-08
1.16926e-08
-5.5215e-08
2.38728e-08
0.00045595
-1.09378e-08
-1.79623e-08
-3.33375e-08
-2.29056e-08
0.000461322
-1.76784e-08
7.70453e-09
-4.9711e-08
1.53852e-08
0.000467562
-1.51636e-08
-1.73768e-10
-5.18732e-08
-1.96484e-10
2.10127e-07
1.43431e-13
2.39111e-14
6.41312e-07
3.64314e-13
5.80301e-14
1.09003e-06
5.9938e-13
9.80688e-14
1.55694e-06
8.36655e-13
1.32212e-13
2.04268e-06
1.09295e-12
1.76835e-13
2.54785e-06
1.36456e-12
2.30076e-13
3.07303e-06
1.6358e-12
2.7793e-13
3.61874e-06
1.91679e-12
3.3702e-13
4.18549e-06
2.17315e-12
3.78316e-13
4.7738e-06
2.40588e-12
4.12171e-13
5.38427e-06
2.61477e-12
4.42866e-13
6.01759e-06
2.7921e-12
4.6581e-13
6.67471e-06
2.94995e-12
4.90485e-13
7.3568e-06
3.08513e-12
5.11839e-13
8.06536e-06
3.2052e-12
5.32032e-13
8.8022e-06
3.31007e-12
5.49505e-13
9.56942e-06
3.40538e-12
5.65698e-13
1.03695e-05
3.49087e-12
5.80029e-13
1.1205e-05
3.57085e-12
5.93569e-13
1.20788e-05
3.64429e-12
6.05838e-13
1.29942e-05
3.71463e-12
6.17677e-13
1.39543e-05
3.78025e-12
6.28472e-13
1.49624e-05
3.84453e-12
6.39272e-13
1.6022e-05
3.90537e-12
6.49303e-13
1.71365e-05
3.96582e-12
6.59468e-13
1.83093e-05
4.02354e-12
6.68909e-13
1.95437e-05
4.08168e-12
6.78678e-13
2.0843e-05
4.13755e-12
6.87724e-13
2.22102e-05
4.19448e-12
6.97288e-13
2.36484e-05
4.24944e-12
7.06083e-13
2.51601e-05
4.30603e-12
7.15602e-13
2.67481e-05
4.36098e-12
7.24409e-13
2.84147e-05
4.41793e-12
7.34007e-13
3.01618e-05
4.47351e-12
7.42899e-13
3.19914e-05
4.53143e-12
7.52664e-13
3.39049e-05
4.58824e-12
7.61744e-13
3.59036e-05
4.64775e-12
7.71806e-13
3.79885e-05
4.70653e-12
7.81332e-13
4.01601e-05
4.76817e-12
7.91784e-13
4.24186e-05
4.8296e-12
8.01957e-13
4.47638e-05
4.89385e-12
8.12756e-13
4.71951e-05
4.95835e-12
8.2349e-13
4.97112e-05
5.02586e-12
8.3477e-13
5.23104e-05
5.09393e-12
8.46001e-13
5.49904e-05
5.16564e-12
8.58112e-13
5.7748e-05
5.23958e-12
8.715e-13
6.05793e-05
5.31645e-12
8.84735e-13
6.34794e-05
5.39958e-12
9.02791e-13
6.64424e-05
5.4825e-12
9.17214e-13
6.94613e-05
5.56869e-12
9.33081e-13
7.25277e-05
5.65771e-12
9.47796e-13
7.56319e-05
5.74117e-12
9.54542e-13
7.87628e-05
5.83778e-12
9.69862e-13
8.19074e-05
5.93005e-12
9.77627e-13
8.50513e-05
6.03881e-12
9.96707e-13
8.81784e-05
6.15328e-12
1.01758e-12
9.12708e-05
6.27652e-12
1.04121e-12
9.43094e-05
6.41452e-12
1.07461e-12
9.72735e-05
6.55131e-12
1.09998e-12
0.000100142
6.703e-12
1.13444e-12
0.000102892
6.85389e-12
1.16033e-12
0.000105502
7.0039e-12
1.17865e-12
0.000107951
7.17116e-12
1.20591e-12
0.000110218
7.32351e-12
1.21091e-12
0.000112287
7.51216e-12
1.24397e-12
0.000114144
7.68794e-12
1.25727e-12
0.000115778
7.90008e-12
1.29953e-12
0.000117187
8.11147e-12
1.33531e-12
0.000118371
8.34097e-12
1.38289e-12
0.000119339
8.58164e-12
1.43705e-12
0.000120102
8.81974e-12
1.48357e-12
0.000120678
9.0738e-12
1.54208e-12
0.000121088
9.31595e-12
1.58436e-12
0.000121353
9.5786e-12
1.64336e-12
0.000121497
9.82575e-12
1.68247e-12
0.000121541
1.00959e-11
1.74018e-12
0.000121504
1.03513e-11
1.77821e-12
0.000121403
1.06239e-11
1.82835e-12
0.000121252
1.08909e-11
1.86708e-12
0.000121062
1.11658e-11
1.90752e-12
0.000120842
1.14495e-11
1.95001e-12
0.000120599
1.17394e-11
1.99121e-12
0.000120337
1.20453e-11
2.04061e-12
0.000120059
1.23607e-11
2.091e-12
0.000119767
1.26914e-11
2.14796e-12
0.000119463
1.30282e-11
2.20143e-12
0.000119146
1.33838e-11
2.2638e-12
0.000118819
1.37397e-11
2.31559e-12
0.000118479
1.41219e-11
2.38253e-12
0.000118129
1.45035e-11
2.43659e-12
0.000117768
1.49167e-11
2.5098e-12
0.000117396
1.53387e-11
2.57843e-12
0.000117015
1.57865e-11
2.65902e-12
0.000116623
1.62616e-11
2.75194e-12
0.000116223
1.67451e-11
2.83798e-12
0.000115814
1.72606e-11
2.93908e-12
0.000115398
1.77799e-11
3.02701e-12
0.000114975
1.8319e-11
3.11637e-12
0.000114546
1.88788e-11
3.20761e-12
0.000114112
1.94588e-11
3.29834e-12
0.000113674
2.00704e-11
3.39953e-12
0.000113233
2.07118e-11
3.50798e-12
0.000112789
2.13815e-11
3.62156e-12
0.000112344
2.2079e-11
3.73747e-12
0.000111897
2.28093e-11
3.86048e-12
0.00011145
2.35608e-11
3.97703e-12
0.000111004
2.43586e-11
4.1111e-12
0.000110558
2.51905e-11
4.24814e-12
0.000110113
2.60651e-11
4.39627e-12
0.00010967
2.69993e-11
4.57e-12
0.000109229
2.79565e-11
4.7312e-12
0.00010879
2.89866e-11
4.92714e-12
0.000108354
3.00315e-11
5.09855e-12
0.000107921
3.11461e-11
5.29808e-12
0.000107492
3.22871e-11
5.48084e-12
0.000107066
3.3487e-11
5.67584e-12
0.000106643
3.47398e-11
5.87533e-12
0.000106225
3.60337e-11
6.06452e-12
0.00010581
3.74154e-11
6.28815e-12
0.000105399
3.88312e-11
6.48822e-12
0.000104993
4.03601e-11
6.74168e-12
0.000104591
4.19444e-11
6.9875e-12
0.000104194
4.36355e-11
7.27454e-12
0.000103801
4.54156e-11
7.58172e-12
0.000103412
4.72784e-11
7.89794e-12
0.000103029
4.92449e-11
8.23977e-12
0.000102651
5.12897e-11
8.57781e-12
0.000102277
5.34393e-11
8.93543e-12
0.00010191
5.56849e-11
9.29912e-12
0.000101548
5.80455e-11
9.68204e-12
0.000101193
6.05219e-11
1.00801e-11
0.000100845
6.31233e-11
1.04983e-11
0.000100504
6.58585e-11
1.0938e-11
0.000100171
6.87331e-11
1.13999e-11
9.9847e-05
7.17576e-11
1.1887e-11
9.95324e-05
7.49353e-11
1.23976e-11
9.92277e-05
7.82806e-11
1.2936e-11
9.89335e-05
8.17914e-11
1.34947e-11
9.86502e-05
8.54945e-11
1.40895e-11
9.83787e-05
8.93805e-11
1.47038e-11
9.81193e-05
9.34846e-11
1.53613e-11
9.78728e-05
9.78022e-11
1.60501e-11
9.764e-05
1.02355e-10
1.67797e-11
9.74217e-05
1.07159e-10
1.75528e-11
9.72189e-05
1.12214e-10
1.83572e-11
9.70325e-05
1.17548e-10
1.92062e-11
9.68636e-05
1.23166e-10
2.00893e-11
9.67136e-05
1.29095e-10
2.10182e-11
9.65836e-05
1.35347e-10
2.19899e-11
9.64749e-05
1.41955e-10
2.30157e-11
9.63889e-05
1.48927e-10
2.40895e-11
9.63269e-05
1.56303e-10
2.52221e-11
9.62905e-05
1.6409e-10
2.64046e-11
9.6281e-05
1.72317e-10
2.76343e-11
9.62999e-05
1.81025e-10
2.8941e-11
9.63485e-05
1.90204e-10
3.0266e-11
9.64282e-05
1.99956e-10
3.16984e-11
9.65396e-05
2.10241e-10
3.31472e-11
9.66833e-05
2.21181e-10
3.47388e-11
9.6859e-05
2.32729e-10
3.63307e-11
9.70656e-05
2.44999e-10
3.80699e-11
9.73014e-05
2.57978e-10
3.97967e-11
9.75637e-05
2.71734e-10
4.16325e-11
9.7849e-05
2.86323e-10
4.35033e-11
9.81536e-05
3.01726e-10
4.54514e-11
9.84733e-05
3.18084e-10
4.74586e-11
9.88043e-05
3.35313e-10
4.94637e-11
9.9143e-05
3.5361e-10
5.16188e-11
9.9487e-05
3.72856e-10
5.37828e-11
9.98353e-05
3.93287e-10
5.61545e-11
0.000100189
4.14779e-10
5.84601e-11
0.00010055
4.3759e-10
6.11546e-11
0.000100924
4.61597e-10
6.38624e-11
0.000101315
4.87167e-10
6.70418e-11
0.00010173
5.14001e-10
7.0101e-11
0.000102174
5.42813e-10
7.41357e-11
0.000102652
5.72683e-10
7.71728e-11
0.000103168
6.05546e-10
8.34279e-11
0.000103725
6.38683e-10
8.66431e-11
0.000104323
6.76829e-10
9.80064e-11
0.000104964
7.12897e-10
1.03275e-10
0.000105646
7.58416e-10
1.23213e-10
0.000106366
7.94557e-10
1.32696e-10
0.000107121
8.53447e-10
1.56001e-10
0.000107905
8.75234e-10
1.82659e-10
0.000108716
9.77389e-10
1.47087e-10
0.00010955
9.16116e-10
2.56161e-10
0.000110406
1.20975e-09
-6.48658e-12
0.000111283
7.47226e-10
5.07692e-10
0.000112183
2.49284e-10
1.04058e-09
0.000113113
5.61444e-10
7.95903e-10
0.000114082
4.601e-10
9.6027e-10
0.000115093
5.73489e-10
9.28672e-10
0.000116156
5.8138e-10
1.00088e-09
0.000117274
6.45732e-10
1.02539e-09
0.000118454
6.84444e-10
1.07539e-09
0.000119701
7.3853e-10
1.11446e-09
0.000121018
7.8712e-10
1.16007e-09
0.000122409
8.40481e-10
1.20385e-09
0.000123876
8.93371e-10
1.24977e-09
0.000125411
9.48224e-10
1.29597e-09
0.000127008
1.00365e-09
1.34339e-09
0.000128654
1.06017e-09
1.39154e-09
0.000130337
1.11735e-09
1.44061e-09
0.000132041
1.17522e-09
1.49036e-09
0.000133754
1.23367e-09
1.54088e-09
0.000135466
1.29256e-09
1.59194e-09
0.000137174
1.35189e-09
1.64366e-09
0.000138888
1.41152e-09
1.69583e-09
0.00014062
1.4715e-09
1.74856e-09
0.000142385
1.53175e-09
1.80171e-09
0.000144192
1.5923e-09
1.85536e-09
0.000146041
1.65314e-09
1.90947e-09
0.00014793
1.71428e-09
1.96406e-09
0.000149851
1.77575e-09
2.01914e-09
0.000151792
1.83753e-09
2.07474e-09
0.00015374
1.89972e-09
2.13091e-09
0.000155685
1.96231e-09
2.18767e-09
0.00015761
2.0254e-09
2.2451e-09
0.000159501
2.08904e-09
2.30323e-09
0.000161356
2.15331e-09
2.36215e-09
0.000163184
2.21831e-09
2.42196e-09
0.000165012
2.28413e-09
2.48273e-09
0.000166873
2.35087e-09
2.54458e-09
0.000168804
2.41864e-09
2.60758e-09
0.000170829
2.48748e-09
2.67179e-09
0.000172955
2.55753e-09
2.73735e-09
0.000175166
2.62876e-09
2.80425e-09
0.00017742
2.7013e-09
2.87262e-09
0.000179671
2.77515e-09
2.94243e-09
0.000181886
2.85043e-09
3.01382e-09
0.000184059
2.92717e-09
3.08682e-09
0.000186207
3.00549e-09
3.16156e-09
0.000188346
3.08547e-09
3.23814e-09
0.000190493
3.16723e-09
3.31665e-09
0.000192662
3.25089e-09
3.39724e-09
0.000194875
3.33657e-09
3.48e-09
0.000197167
3.42435e-09
3.56504e-09
0.000199589
3.51434e-09
3.65249e-09
0.000202189
3.60659e-09
3.74238e-09
0.000204988
3.70115e-09
3.8348e-09
0.000207969
3.79803e-09
3.92974e-09
0.00021108
3.89728e-09
4.02725e-09
0.000214239
3.99887e-09
4.12738e-09
0.000217355
4.10287e-09
4.23018e-09
0.00022035
4.20929e-09
4.33565e-09
0.000223136
4.3182e-09
4.44389e-09
0.000225629
4.42969e-09
4.55502e-09
0.0002278
4.544e-09
4.66927e-09
0.000229716
4.66144e-09
4.78699e-09
0.000231529
4.7825e-09
4.90869e-09
0.00023342
4.90762e-09
5.03482e-09
0.000235551
5.03721e-09
5.16585e-09
0.000238071
5.17152e-09
5.30204e-09
0.000241084
5.31069e-09
5.4436e-09
0.000244551
5.45472e-09
5.59053e-09
0.000248234
5.6036e-09
5.74287e-09
0.000251789
5.75727e-09
5.90063e-09
0.000254946
5.91571e-09
6.06382e-09
0.000257682
6.07897e-09
6.2326e-09
0.000260199
6.24722e-09
6.40718e-09
0.000262784
6.42068e-09
6.58783e-09
0.000265672
6.59951e-09
6.77484e-09
0.000269002
6.78364e-09
6.96821e-09
0.000272867