/*--------------------------------*- C++ -*----------------------------------*\
| =========                 |                                                 |
| \\      /  F ield         | OpenFOAM: The Open Source CFD Toolbox           |
|  \\    /   O peration     | Version:  2012                                  |
|   \\  /    A nd           | Website:  www.openfoam.com                      |
|    \\/     M anipulation  |                                                 |
\*---------------------------------------------------------------------------*/
FoamFile
{
    version     2.0;
    format      ascii;
    class       volTensorField;
    location    "11300";
    object      grad(U);
}
// * * * * * * * * * * * * * * * * * * * * * * * * * * * * * * * * * * * * * //

dimensions      [0 0 -1 0 0 0 0];


internalField   nonuniform List<tensor> 
2560
(
(0 -1.21933e-14 9.58003e-14 359.44 0 3.0207 0.521268 0 0.0047332)
(0 0 5.71445e-19 359.03 0.0126287 0.000250256 0.521268 -0.000383694 -0.00471927)
(0 7.92077e-20 1.84981e-14 357.883 0.00749575 -7.50252e-21 1.56628 5.57624e-05 8.67362e-19)
(0 -6.1606e-20 2.25302e-18 357.482 0.13418 -0.000166879 1.56628 5.52932e-05 -0.00689948)
(5.00997e-16 -1.34458e-19 1.11036e-18 356.513 -0.0760589 -1.33817 2.13602 2.99225e-05 0.00528113)
(-5.68506e-16 2.68916e-19 -2.22073e-18 356.132 0.0568231 -4.89451e-05 2.13381 2.91191e-05 -0.00526558)
(2.125e-16 -2.03339e-19 5.47225e-19 355.136 -0.0434637 -1.23393 2.15871 -1.01919e-06 0.00292729)
(0 2.03339e-19 -5.47225e-19 354.784 0.0334903 -1.90741e-05 2.15666 -2.0898e-06 -0.00291867)
(1.10465e-15 -4.06643e-19 1.07876e-18 353.759 -0.018248 -0.65104 2.18158 3.7951e-07 0.00155789)
(0 4.06511e-19 -1.07876e-18 353.441 0.0186928 -7.61314e-06 2.17973 -7.78604e-07 -0.0015533)
(1.5962e-15 -2.03263e-19 2.65825e-19 352.253 -0.0109149 -0.297352 2.20306 5.28587e-07 0.000935879)
(4.06086e-15 2.71017e-19 -3.98738e-19 351.971 0.0110996 -1.46652e-06 2.20141 -7.34435e-07 -0.000933123)
(-6.57561e-16 -2.03292e-19 0 350.406 -0.00762063 -0.147839 2.22199 1.07032e-06 0.000634924)
(2.63105e-15 3.3881e-19 -1.31008e-19 350.16 0.00751283 -4.47863e-07 2.22054 -3.4743e-07 -0.000633054)
(-1.86728e-15 2.03279e-19 -1.93695e-19 348.127 -0.00547438 -0.0829262 2.23819 2.58836e-07 0.000470138)
(3.23847e-15 -1.35435e-19 6.4565e-20 347.917 0.00567944 -1.38676e-07 2.23694 -1.13839e-06 -0.000468753)
(2.00515e-15 -2.71028e-19 1.90919e-19 345.618 -0.00449827 -0.051335 2.25423 1.80481e-06 0.000369785)
(0 3.38831e-19 -1.90919e-19 345.442 0.00435197 -4.58861e-08 2.25319 9.42585e-08 -0.000368697)
(0 2.71248e-19 -1.25455e-19 343.303 -0.00358729 -0.0341986 2.273 -1.961e-07 0.000264855)
(0 -2.03374e-19 6.27275e-20 343.159 0.00369237 -3.62661e-08 2.27215 -1.59495e-06 -0.000302679)
(-1.27124e-15 -4.7434e-19 1.44629e-19 341.242 -0.00314336 -0.0240643 2.29249 2.22398e-06 0.000185546)
(0 5.42086e-19 -1.54571e-19 341.129 0.00301747 -1.46375e-08 2.29182 5.07975e-07 -0.000256428)
(3.42443e-15 -8.13199e-19 2.2539e-19 339.285 -0.00265445 -0.0176548 2.31283 -6.21518e-07 0.000136044)
(-1.99696e-15 7.45353e-19 -1.82827e-19 339.199 0.00272042 6.61756e-08 2.31234 -1.99837e-06 -0.000222518)
(1.96834e-15 -2.03202e-19 6.00689e-20 337.532 -0.00210933 -0.0134121 2.33534 2.52101e-06 0.000103352)
(-1.96834e-15 2.71014e-19 -6.00689e-20 337.473 0.0415787 0.000147271 2.33501 6.48565e-07 -0.000196755)
(-1.74384e-15 2.66436e-19 -1.02045e-19 335.858 -0.00225207 -0.0104032 2.35702 0.00013623 8.11797e-05)
(6.97547e-15 0 5.92079e-20 335.821 -2.32485e-21 1.82755e-06 2.35684 0 -0.00017601)
(-1.91232e-15 4.66874e-19 -1.16719e-19 333.811 -0.00160603 -0.00829003 2.37452 -9.82058e-06 6.40369e-05)
(1.91232e-15 -4.66874e-19 1.16719e-19 333.795 0.114535 0.00018123 2.37447 -0.000271859 -0.000160559)
(-2.06814e-15 0 -1.29247e-20 331.039 -0.00285721 -0.00665971 2.38592 0.00054523 5.33885e-05)
(8.27252e-15 0 0 331.041 -2.0972e-17 6.90443e-06 2.38599 -5.2339e-35 -0.000146085)
(0 -3.98141e-17 -1.13397e-19 327.432 3.21216e-17 -0.0053982 2.39106 1.0842e-19 4.22983e-05)
(-8.93184e-15 4.07652e-16 1.13397e-19 327.449 0.085671 -0.000199111 2.39124 -0.000312466 -0.0001367)
(0 1.5648e-18 -8.38287e-20 323.391 -0.00194914 -0.00451967 2.39556 0.000886133 3.64143e-05)
(-9.59297e-15 -3.68235e-19 8.38287e-20 323.421 -3.31868e-17 2.39224e-06 2.39583 0 -0.000127181)
(3.61004e-15 -1.1017e-19 4.13136e-20 319.898 -0.000622987 -0.00378945 2.40827 -0.000196228 3.04395e-05)
(0 1.23273e-29 -5.50848e-20 319.938 3.64335e-17 -4.72669e-06 2.40861 0 -0.000120033)
(-8.31791e-16 1.30309e-18 -5.58074e-20 317.732 -0.0021731 -0.00320692 2.43251 0.00102983 2.64358e-05)
(-7.34751e-15 -5.70707e-19 9.50168e-20 317.78 -3.56692e-20 7.70365e-07 2.4329 0 -0.000113016)
(0 0 -1.20413e-19 316.758 -0.000419351 -0.00273387 2.46365 -0.00069855 2.2392e-05)
(0 3.1286e-19 1.20413e-19 316.812 4.16138e-17 -6.10278e-06 2.46409 -2.1684e-19 -0.000107866)
(3.99462e-16 -4.22001e-19 1.67412e-21 316.218 -0.00203158 -0.00234728 2.49524 0.00117252 1.98453e-05)
(-3.45703e-15 -1.54074e-33 -2.6375e-20 316.278 -4.15927e-17 -3.18098e-07 2.49573 2.34257e-34 -0.000102505)
(1.80819e-16 9.533e-21 1.31597e-19 315.514 4.38678e-05 -0.00208911 2.52453 -0.00119809 1.69417e-05)
(0 -9.62965e-35 -1.42984e-19 315.577 -1.44312e-35 0.000271664 2.52504 -1.1545e-34 -9.87041e-05)
(0 2.04995e-18 -5.12488e-20 314.514 -0.00235002 -0.00175101 2.55208 0.00158185 1.62897e-05)
(-1.35918e-14 -6.57805e-19 6.4061e-20 314.578 -5.48171e-20 5.42288e-06 2.55261 0 -9.31272e-05)
(3.57144e-15 -8.08229e-19 -5.20413e-20 313.316 0.000124817 -0.00151965 2.57872 -0.00194336 1.19411e-05)
(0 0 6.31429e-20 313.381 3.66056e-32 5.03226e-05 2.57926 3.74639e-35 -9.16676e-05)
(-7.49375e-15 3.18658e-18 -1.2012e-19 311.955 -0.00274441 -0.00130995 2.60406 0.00227799 1.29507e-05)
(0 0 9.95806e-20 312.02 -7.6053e-17 1.13785e-05 2.6046 -1.75345e-34 -8.66934e-05)
(1.17733e-14 1.57045e-18 1.42771e-19 310.342 0.000542504 -0.00107474 2.62688 -0.00267992 8.78187e-06)
(3.13948e-14 0 -1.10422e-19 310.406 6.93889e-17 -0.000219134 2.62742 4.33681e-19 -8.62289e-05)
(0 -3.09589e-18 6.04666e-20 308.354 -0.00288391 -0.000983269 2.6461 0.00277428 9.3368e-06)
(1.64159e-14 0 -6.04666e-20 308.416 -8.99986e-17 7.63065e-06 2.64662 -4.33681e-19 -8.30836e-05)
(4.28548e-15 -7.62879e-19 -1.34599e-20 305.954 0.00111379 -0.000856165 2.66189 -0.00295087 7.46353e-06)
(-6.24951e-15 4.09782e-19 1.192e-20 306.012 1.02445e-19 3.44832e-06 2.66239 -4.33681e-19 -8.20211e-05)
(-8.93612e-15 0 -3.17886e-20 303.345 -0.00321091 -0.000746751 2.67735 0.00305161 7.38919e-06)
(-3.5744e-14 -4.23228e-18 1.17491e-20 303.399 1.05807e-19 1.85105e-06 2.67781 4.33681e-19 -7.93556e-05)
(-4.6508e-15 -1.11175e-18 -4.49061e-20 301.091 0.00166103 -0.00065291 2.69933 -0.00323378 5.74239e-06)
(-2.46746e-14 2.24522e-18 2.31615e-20 301.14 9.70323e-17 -1.22697e-05 2.69975 4.33681e-19 -7.87525e-05)
(0 3.65273e-18 -9.13181e-20 300.056 -0.00367472 -0.000573789 2.73689 0.00333621 5.91776e-06)
(-1.93314e-14 -1.38816e-18 9.13181e-20 300.099 1.1568e-19 -2.22615e-06 2.73726 0 -7.64931e-05)
(0 2.16022e-18 9.00093e-20 301.092 0.00235368 -0.000502863 2.79759 -0.00351783 4.4668e-06)
(2.00575e-14 0 -9.00093e-20 301.129 -1.22117e-19 -1.53241e-05 2.79791 -4.33681e-19 -7.61864e-05)
(-5.19651e-15 0 -9.67101e-21 304.671 -0.0042863 -0.000441864 2.88427 0.00362106 4.77801e-06)
(0 -9.62965e-35 -1.10899e-20 304.701 -1.07738e-16 -1.48868e-06 2.88453 0 -7.42487e-05)
(-5.38142e-15 -2.09874e-18 -7.54271e-20 310.681 0.00306696 -0.000459077 2.99408 -0.00379984 3.45192e-06)
(0 0 6.55858e-20 310.705 -1.31901e-19 0.000313674 2.99428 7.32199e-35 -7.41535e-05)
(-5.57171e-15 3.44777e-18 -5.21925e-20 318.501 -0.00516682 -0.000326565 3.11995 0.00421495 5.24599e-06)
(-3.35844e-14 -2.33867e-18 2.15486e-20 318.52 -2.81941e-17 6.82959e-06 3.1201 0 -7.05748e-05)
(5.76972e-15 1.35934e-18 2.67143e-17 327.238 0.00383435 -0.00020361 3.25315 -0.00471109 9.91197e-07)
(0 -1.73334e-33 -3.18596e-20 327.252 5.55112e-17 0.00104415 3.25326 -8.67362e-19 -7.25996e-05)
(5.97704e-15 -4.01958e-18 4.9365e-20 336.008 -0.00608825 -0.000209868 3.38585 0.00613075 9.10518e-06)
(0 -7.70372e-34 -4.18706e-20 336.017 0 2.16971e-05 3.38592 -8.67362e-19 -6.29024e-05)
(-6.19427e-15 -1.32066e-18 0 344.183 0.00468285 -2.03288e-18 3.5135 -0.00766832 4.25972e-50)
(0 1.06447e-18 2.06353e-20 344.188 2.22311e-16 0.000434779 3.51353 0 -7.15928e-05)
(-1.06638e-14 6.50864e-18 -4.0679e-20 351.621 -0.0068822 -9.45595e-05 3.63737 0.00946628 9.98924e-06)
(1.06638e-14 -1.31343e-18 5.08488e-20 351.621 -4.44089e-16 2.76177e-05 3.63734 0 -5.93717e-05)
(-6.6553e-15 -2.56614e-18 2.81428e-18 358.861 0.00546405 1.91768e-18 3.76688 -0.0114404 0)
(2.66213e-14 7.70372e-33 0 358.856 1.10228e-16 -0.000318587 3.7668 -1.73472e-18 -7.1148e-05)
(0 -1.26468e-17 4.94016e-20 367.238 -0.007497 4.29359e-06 3.92051 0.01288 7.41808e-06)
(2.75815e-14 -6.31089e-30 -4.94016e-20 367.226 -7.7805e-16 2.26557e-05 3.92035 1.73472e-18 -6.11318e-05)
(7.13927e-15 -4.98622e-18 1.80822e-17 378.735 0.00616083 3.77256e-18 4.12314 -0.0145427 0)
(-2.85572e-14 8.07395e-18 5.84323e-20 378.716 0 -0.000720957 4.1229 0 -7.11992e-05)
(7.38704e-15 -7.37213e-18 4.69964e-20 395.506 -0.00800977 7.75022e-05 4.39929 0.0152539 4.30597e-06)
(0 0 -3.83965e-20 395.48 -3.88578e-16 1.19978e-05 4.39897 1.02309e-33 -6.60772e-05)
(-7.64157e-15 4.84431e-18 4.66224e-18 419.165 0.00677342 -3.20891e-20 4.76476 -0.0162057 1.35525e-20)
(0 0 -2.83847e-20 419.131 4.11645e-16 -0.000306842 4.76436 1.34457e-33 -7.16305e-05)
(7.90885e-15 4.77488e-18 -2.81922e-20 450.189 -0.00861025 0.000131181 5.22112 0.016619 3.24205e-06)
(2.18567e-14 -2.77334e-32 1.86519e-20 450.151 -4.16334e-16 7.42798e-06 5.22067 0 -6.87016e-05)
(9.6388e-15 4.70645e-18 6.1837e-18 487.794 0.00745794 1.78893e-18 5.75647 -0.017274 0)
(3.27876e-14 0 -2.75768e-20 487.754 8.32667e-16 0.000133284 5.756 -5.2744e-33 -7.23648e-05)
(-8.51381e-15 0 -8.90754e-21 530.265 -0.00933382 0.000180584 6.35046 0.0178254 4.61265e-06)
(0 -7.70372e-34 -1.81211e-20 530.226 0 9.23183e-06 6.35003 0 -6.86023e-05)
(-8.86668e-15 0 0 575.619 0.00823276 0 6.98292 -0.0186233 1.35525e-20)
(0 3.08149e-32 -1.78613e-20 575.586 4.46508e-16 0.00337648 6.98258 6.34562e-34 -7.34044e-05)
(0 -4.50697e-18 1.76053e-20 622.124 -0.00926463 0.000251919 7.63694 0.0224802 2.50369e-05)
(0 4.62223e-32 -1.76053e-20 622.102 -6.69253e-16 5.74931e-05 7.63675 1.25093e-33 -4.53133e-05)
(-1.87977e-14 8.88474e-18 1.90109e-17 668.061 0.00881612 -1.72951e-18 8.29029 -0.0266706 0)
(0 1.54074e-33 -3.4706e-20 668.056 -6.16503e-34 -0.00187608 8.29035 -3.46945e-18 -7.49623e-05)
(-3.58703e-14 2.18935e-17 -5.13129e-20 710.713 -0.00859053 0.000389451 8.89949 0.0285676 1.53535e-05)
(-2.28262e-14 -1.98212e-17 5.13129e-20 710.731 -5.57094e-16 9.93586e-05 8.89987 0 -6.10453e-05)
(-1.07411e-14 2.15797e-17 2.88354e-18 745.023 0.00823644 0.000672346 9.38097 -0.0307919 4.12351e-06)
(4.2964e-14 0 -6.74366e-20 745.073 1.43902e-15 -0.000740948 9.38181 3.46945e-18 -7.69298e-05)
(0 2.55245e-17 -6.64701e-20 762.421 -0.00812645 0.000716589 9.59636 0.0316272 1.37813e-05)
(0 1.54074e-33 6.64701e-20 762.513 -2.77556e-17 0.00023718 9.59779 -6.09076e-34 -7.0315e-05)
(-1.20624e-14 -1.67724e-17 -4.25655e-20 750.368 0.0054905 0.000925702 9.34919 -0.0327564 9.56294e-06)
(4.82485e-14 0 3.27587e-20 750.51 7.20163e-16 0.00105815 9.35136 0 -8.00286e-05)
(4.26122e-14 -1.65321e-17 4.43989e-20 693.46 -0.00863413 0.00137972 8.40902 0.0339264 2.59004e-05)
(3.44363e-14 -4.93038e-32 -3.22892e-20 693.664 -7.19291e-16 0.000417397 8.41206 6.93889e-18 -6.93292e-05)
(1.66862e-14 8.14755e-18 1.59132e-20 576.403 0.00123261 0.00170487 6.55857 -0.0354408 1.83554e-05)
(-1.66862e-14 -4.93038e-32 -1.59132e-20 576.674 7.21645e-16 0.00134939 6.56259 -2.2614e-33 -8.63894e-05)
(1.90765e-15 -8.03078e-18 2.7168e-20 388.381 -0.00792942 0.00225719 3.66147 0.0370336 4.13289e-05)
(-1.6447e-14 1.07852e-31 -3.13702e-20 388.724 -1.55688e-15 0.000430992 3.66652 4.45798e-33 -7.14047e-05)
(-2.67732e-12 -2.3747e-17 -6.64646e-20 0.339492 -0.00147608 0.00254235 0.0022705 -0.0391404 2.6577e-05)
(1.26218e-29 -3.08149e-33 7.73015e-20 4.6911e-30 -1.88465e-33 0.000733418 1.42109e-14 3.76929e-33 -9.87301e-05)
(3.14094e-12 0 -4.63148e-21 -39.5827 -0.00293128 0.00281613 0.268576 0.0409959 5.00242e-05)
(0 3.08149e-33 0 -38.6876 -5.83557e-17 0.000123859 0.262503 6.93889e-18 -8.319e-05)
(-1.42369e-14 1.53808e-17 1.76009e-20 -552.735 -0.00160264 0.00283666 5.02827 -0.0435372 2.79249e-05)
(5.69514e-14 6.16298e-33 -6.00812e-20 -552.193 8.7775e-16 -0.000683736 5.02123 6.55592e-33 -0.000117353)
(-1.28056e-14 2.27405e-17 -3.85057e-20 -914.54 0.0045385 0.00254246 10.229 0.0452622 4.3211e-05)
(-1.55242e-14 -6.56995e-32 0 -913.95 -9.4683e-16 -0.000350545 10.2212 0 -0.0001071)
(-2.20576e-14 -2.98861e-17 -9.09988e-20 -1241.65 -0.00234094 0.00225407 15.3564 -0.0476679 2.05102e-05)
(-4.41199e-14 2.64622e-17 5.83713e-20 -1241.03 3.30778e-18 -0.00184845 15.3478 0 -0.000137849)
(-3.31315e-14 -3.68222e-17 5.51522e-20 -1500.46 0.00935756 0.00154412 19.8672 0.0489029 2.39143e-05)
(8.72887e-14 0 -8.63021e-20 -1499.83 -9.40296e-16 -0.000633004 19.8581 4.858e-30 -0.000135928)
(-5.9275e-15 -5.08123e-17 -2.30478e-19 -1667.98 -0.00630751 0.00112869 23.3022 -0.0506384 8.90391e-06)
(-4.25963e-14 1.40556e-17 1.7013e-19 -1667.36 1.93428e-15 -0.00154857 23.293 0 -0.000153636)
(-1.9537e-14 -5.0084e-17 1.70516e-18 -1735.19 0.0100051 2.91379e-18 25.3716 0.0513756 0)
(3.41935e-14 0 -1.67692e-19 -1734.61 9.50819e-16 0.00171664 25.3626 3.09255e-30 -0.000155331)
(2.99524e-15 7.05231e-18 7.38794e-20 -1706.8 -0.0109437 -0.00016131 25.9883 -0.0509481 6.35745e-06)
(0 6.16298e-33 -5.50962e-20 -1706.31 -2.06848e-17 0.000438836 25.9802 -6.93889e-18 -0.000141479)
(0 -4.86586e-17 2.09856e-20 -1598.17 0.00887576 2.09856e-20 25.2561 0.0511421 2.71051e-20)
(5.38192e-15 3.15544e-30 -1.35766e-19 -1597.83 8.88178e-16 0.000912837 25.2497 6.93889e-18 -0.000150986)
(0 6.8516e-18 8.02922e-20 -1430.48 -0.0130253 -0.000525914 23.2377 -0.0505007 1.59292e-05)
(0 6.16298e-33 -8.02922e-20 -1430.34 -9.4369e-16 0.000156001 23.2377 6.93889e-18 -0.000130744)
(-1.72887e-15 6.7534e-18 1.73411e-17 -1225.95 0.00797808 -2.69794e-05 12.85 0.0504195 2.1149e-07)
(-3.45774e-15 1.2326e-32 2.63805e-20 -1226.07 -9.81047e-33 7.16657e-05 12.85 -6.93889e-18 -0.000145961)
(0 -3.99396e-17 -1.04009e-19 -1004.36 -0.0121829 -0.000467649 4.0277 -0.0498735 1.61766e-05)
(0 1.75111e-14 1.04009e-19 -1004.78 -1.72085e-15 -4.97539e-06 4.02766 6.93889e-18 -0.000125846)
(0 0 4.81482e-34 -781.132 0.00730609 -3.44963e-18 -3.11645 0.0497722 2.71051e-20)
(0 0 0 -781.809 1.78326e-15 0.00348265 -3.11648 0 -0.000142534)
(0 4.04198e-19 -5.05247e-20 -566.978 -0.00901678 -0.017061 -7.63897 -0.00305695 -3.94309e-05)
(-5.09378e-16 0 0 -567.803 0 1.30104e-18 -7.65325 -1.09304e-28 -6.77626e-21)
(0 1.19521e-18 -3.11253e-21 -368.542 0.00763563 -0.000253986 -4.58183 0.00258285 3.50724e-06)
(-4.32853e-15 3.85186e-34 -1.55627e-21 -369.408 -4.12752e-17 -0.00458981 -4.59633 -5.96382e-34 -3.50724e-06)
(1.79086e-15 1.60529e-19 0 -189.478 -0.00723121 -0.00023904 -1.78392 -0.000986391 -3.51784e-06)
(0 0 0 -190.326 2.77556e-17 -5.79416e-20 -1.79797 4.13218e-35 -6.77511e-38)
(-1.02296e-12 1.1612e-18 0 3.55271e-15 0.00661226 -0.000233443 -1.77636e-15 0.0017861 2.76185e-06)
(2.03128e-12 -5.30597e-15 0 -1.05675 0 -0.000328762 -0.00903333 2.1684e-19 -2.76184e-06)
(-6.82798e-13 -1.91857e-16 0 83.4476 -4.67738e-19 -0.000208947 -0.7237 2.1684e-19 -2.78843e-06)
(1.41002e-12 1.90759e-19 -3.86972e-22 81.9127 -0.0680143 -3.86972e-22 -0.710389 -0.00144226 0)
(0 -5.64075e-19 0 219.337 0.00552287 -0.000200773 -2.92369 0.00118636 1.92113e-06)
(-1.5403e-15 1.54074e-33 0 218.656 -1.40421e-17 -0.000302993 -2.91123 -1.08162e-33 -1.92113e-06)
(1.81952e-15 -7.81287e-17 1.44789e-21 313.206 7.36666e-19 -0.000176916 -4.80938 -1.0842e-19 -1.95098e-06)
(-1.51823e-15 3.7066e-19 -2.70752e-22 312.594 -0.0441167 2.70752e-22 -4.79787 -0.000944273 4.23516e-22)
(2.48325e-16 5.48022e-19 0 387.625 0.00459274 -0.000167045 -6.38541 0.000775541 1.19315e-06)
(0 -2.06401e-15 0 387.1 -1.37705e-17 -0.00025231 -6.37508 1.0842e-19 -1.19314e-06)
(0 -1.91825e-16 0 444.38 7.81638e-19 -0.000142958 -4.34411 -1.0842e-19 -1.21889e-06)
(0 0 -6.76619e-22 443.975 -0.0255588 -3.3831e-22 -4.34408 -0.000620264 2.11758e-22)
(2.8396e-18 -2.66213e-19 0 485.655 0.00390109 -0.000128549 -0.00890623 0.000520173 5.96479e-07)
(-4.2594e-18 3.85186e-34 0 485.422 -3.54129e-18 -0.000195489 -0.00887679 0 -3.79027e-07)
(0 -4.97195e-17 1.36665e-21 513.883 6.07153e-18 -0.000102726 4.7107 0 -6.13604e-07)
(-7.16519e-16 -6.1226e-19 0 513.832 -0.0121917 0 4.71073 -0.000434289 4.63851e-34)
(0 6.46591e-19 1.0103e-21 531.446 0.00332209 -9.02697e-05 9.71243 0.000384982 1.73878e-07)
(0 -8.65371e-19 -9.6253e-22 531.531 5.31031e-18 -3.54518e-06 9.71246 0 1.04139e-06)
(0 -4.04622e-17 0 540.381 -4.77049e-18 -7.33671e-05 10.6467 0 -1.78067e-07)
(0 2.12441e-19 6.63879e-22 540.557 -0.0032395 4.42509e-05 10.6508 -0.000345269 8.02671e-07)
(4.17619e-15 -1.17262e-18 -2.29027e-21 542.234 0.00281189 -1.68262e-06 10.7742 0.000336019 -4.97625e-07)
(-2.39816e-16 0 0 542.461 4.62674e-20 3.15869e-22 10.779 5.42101e-20 0)
(-2.05913e-15 -6.5022e-17 6.44985e-22 537.964 -4.81552e-18 8.67613e-05 10.7862 0 -3.71102e-08)
(-1.36442e-14 -3.30232e-19 -7.2187e-22 538.211 -0.00139098 -4.50078e-06 10.7912 -0.000327228 2.81676e-07)
(2.82249e-15 -6.91686e-19 -1.27148e-21 527.957 0.00233384 0.000103636 10.6799 0.00030777 3.05031e-08)
(1.12872e-14 0 1.81306e-21 528.203 4.33681e-19 1.20886e-05 10.6849 5.42101e-20 3.89504e-07)
(-3.5964e-15 -5.38998e-17 0 512.13 3.54694e-18 0.000131825 10.4445 0 -3.4156e-08)
(1.4383e-14 -8.82293e-19 2.82667e-22 512.363 -0.00266702 1.28478e-05 10.4492 -0.000281963 1.38676e-07)
(-4.37398e-15 1.58118e-19 0 490.118 0.00188755 0.000156128 10.0649 0.000267504 2.6193e-08)
(0 -1.29567e-16 0 490.331 3.43271e-18 9.7001e-05 10.0691 -5.42101e-20 1.39642e-07)
(-5.14729e-15 -2.32512e-17 0 461.489 3.28612e-18 0.000183974 9.52606 2.71051e-20 -3.21171e-08)
(0 2.7274e-19 0 461.682 -0.00233591 0.000168692 9.52994 -0.000244308 3.21428e-08)
(-5.9066e-15 -5.37662e-19 0 425.974 0.00149151 0.000200438 8.81865 0.000230722 2.21644e-08)
(1.3557e-14 -1.2326e-32 0 426.145 -3.16249e-20 0.000200204 8.82215 0 -2.21911e-08)
(6.64012e-15 -6.13008e-17 0 383.681 -5.45027e-18 0.000211551 7.94332 0 -3.0375e-08)
(0 5.6781e-19 0 383.834 -0.00205616 0.000211967 7.94649 -0.000213749 3.03995e-08)
(0 -1.86557e-19 0 335.25 0.00121575 0.000206331 6.91398 0.000196972 1.83506e-08)
(0 -6.74075e-34 0 335.386 2.41217e-18 0.000206135 6.91685 5.83193e-35 -1.83774e-08)
(-7.97454e-15 -1.67035e-17 0 281.885 2.56919e-20 0.000192191 5.75798 0 -2.8897e-08)
(0 4.4132e-19 0 282.007 -0.00175982 0.000192564 5.76058 -0.000188129 2.89209e-08)
(9.50261e-15 -1.34123e-18 0 225.305 0.00103254 0.000161586 4.51552 0.000167141 1.48053e-08)
(6.83702e-14 0 0 225.413 2.1684e-18 0.000161416 4.51786 1.86784e-32 -1.48332e-08)
(-9.36642e-15 -1.23715e-17 -2.23313e-21 167.654 0 0.000125842 3.2379 -2.71051e-20 -2.75745e-08)
(3.61481e-14 2.8584e-19 0 167.75 -0.00140261 0.00012617 3.24001 -0.000165709 2.75987e-08)
(-1.86686e-14 1.07415e-18 -4.40224e-21 111.296 0.000943074 8.17659e-05 1.98115 0.000143181 1.15895e-08)
(-3.77448e-14 -1.15089e-16 0 111.38 -3.88759e-20 8.16108e-05 1.983 0 -1.16197e-08)
(-6.37869e-16 -8.71693e-18 3.66216e-19 58.5649 -1.6263e-18 8.83944e-06 0.801427 0 -2.63111e-08)
(-4.80498e-14 -4.68628e-19 -1.87865e-18 58.6375 -0.00108966 -6.79088e-21 0.803029 -0.000144561 0)
(2.56702e-13 4.10588e-19 0 8.3871e-13 0.000887376 1.92399e-07 0 0.000124655 8.74059e-09)
(0 -2.73725e-19 -4.27696e-21 0.0653108 1.26734e-18 4.81166e-08 0.000789461 -1.35525e-20 -8.77441e-09)
(1.72782e-13 -1.37931e-17 5.05165e-19 -20.3517 1.40946e-18 -8.18138e-06 0.249584 -1.35525e-20 -2.50635e-08)
(-3.17715e-13 -2.02352e-19 2.93874e-39 -20.2426 -0.000868833 -2.76993e-22 0.248246 -0.000124006 -2.41635e-39)
(9.3807e-16 1.3463e-18 -4.15524e-21 -58.9098 0.000800664 -5.42873e-05 1.12959 0.000109844 6.25236e-09)
(0 0 0 -58.8727 2.95598e-20 -5.44207e-05 1.12853 1.35525e-20 -6.29152e-09)
(0 -1.13321e-17 0 -80.5527 -1.0842e-18 -6.58282e-05 1.80708 -1.35525e-20 -2.3845e-08)
(7.54636e-14 1.83486e-18 0 -80.5276 -0.000721178 -6.56222e-05 1.8063 -0.000104891 2.38801e-08)
(0 -3.39106e-19 0 -92.8092 0.000646186 -7.12677e-05 2.2634 9.73153e-05 4.06638e-09)
(7.37004e-14 0 0 -92.7958 1.11025e-18 -7.13851e-05 2.26291 8.84107e-35 -4.11304e-09)
(-1.80155e-14 2.40741e-34 0 -96.0267 8.91105e-19 -6.7889e-05 2.49242 2.24818e-35 -2.27312e-08)
(0 0 0 -96.0246 -0.000632244 -6.77073e-05 2.49223 -8.90785e-05 2.27748e-08)
(-8.83362e-15 0 0 -90.9016 0.000502368 -6.1953e-05 2.49813 8.58643e-05 2.0708e-09)
(7.06689e-14 -2.40741e-34 0 -90.91 -9.75782e-19 -6.20479e-05 2.49822 -4.96847e-35 -2.1281e-09)
(8.70291e-15 -1.29055e-17 0 -78.386 -7.92932e-19 -5.20039e-05 2.29325 0 -2.18257e-08)
(0 5.41222e-19 0 -78.4039 -0.000569798 -5.18343e-05 2.29361 -7.65224e-05 2.18816e-08)
(-8.62626e-15 0 0 -59.5884 0.000403154 -4.25558e-05 1.89696 7.50068e-05 1.23596e-10)
(0 0 0 -59.6143 7.61484e-35 -4.26202e-05 1.89756 1.35525e-20 -1.95608e-10)
(-8.61203e-15 0 0 -35.713 0 -3.15632e-05 1.33285 -7.73013e-35 -2.12544e-08)
(3.44477e-14 -5.48354e-19 0 -35.7451 -0.000499425 -3.13929e-05 1.33366 -6.62299e-05 2.13271e-08)
(-1.68202e-13 4.07222e-19 0 -1.73323e-14 0.000347721 -2.14838e-05 0.6284 6.51284e-05 -1.94285e-09)
(2.69004e-14 0 0 -0.0199709 5.42101e-19 -2.15108e-05 0.629362 0 1.85053e-09)
(-1.72338e-14 0 0 13.1206 0 -8.62782e-06 1.07613 -1.35525e-20 -2.11419e-08)
(0 0 0 13.0458 -0.0004063 -8.12741e-06 1.07504 -5.71304e-05 2.12375e-08)
(-8.56267e-15 5.39499e-19 0 53.4642 0.000293297 4.51844e-06 2.00457 5.70471e-05 -4.29504e-09)
(-7.54275e-15 -1.39297e-17 0 53.427 -5.42101e-19 4.53518e-06 2.00352 0 4.17524e-09)
(7.43464e-15 -4.34359e-18 0 84.4805 0 2.12497e-05 2.93006 -6.77626e-21 -2.16114e-08)
(-3.42937e-14 6.09759e-19 0 84.4463 -0.000327865 2.14546e-05 2.92912 -4.92916e-05 2.17378e-08)
(8.65476e-15 -5.45111e-19 0 113.745 0.000270868 4.08845e-05 3.80777 5.05496e-05 -7.08186e-09)
(3.46195e-14 -1.54074e-33 0 113.716 0 4.0948e-05 3.80699 6.77626e-21 6.92488e-09)
(8.81027e-15 -6.60333e-18 0 139.787 -3.52366e-19 6.29648e-05 4.59089 0 -2.2745e-08)
(-3.52414e-14 4.75302e-19 0 139.765 -0.000318767 6.31961e-05 4.59032 -4.18615e-05 2.29125e-08)
(-2.32787e-14 4.07383e-19 0 161.203 0.000208192 8.41608e-05 5.23329 4.37204e-05 -1.03907e-08)
(3.61588e-14 9.62965e-35 0 161.188 -3.79471e-19 8.42705e-05 5.23296 -2.81288e-35 1.01837e-08)
(-1.4035e-14 -1.0715e-18 0 176.731 0 0.000107177 5.692 0 -2.45751e-08)
(0 -3.3462e-19 0 176.724 -0.000257664 0.000107434 5.69192 -3.60876e-05 2.47973e-08)
(-1.38338e-14 5.34315e-19 -3.29824e-21 185.353 0.000159642 0.000129327 5.93111 3.82293e-05 -1.42271e-08)
(3.88035e-14 2.40741e-35 -6.59648e-21 185.354 -2.71051e-20 0.000129476 5.93126 -1.76967e-35 1.39531e-08)
(1.01132e-14 -3.73186e-18 0 186.395 -2.43945e-19 0.000152582 5.9255 -3.38813e-21 -2.70221e-08)
(0 5.39661e-19 0 186.403 -0.000212055 0.000152854 5.92586 -3.16555e-05 2.73171e-08)
(0 5.38335e-19 0 179.619 0.000160539 0.000177269 5.66436 3.37446e-05 -1.84758e-08)
(-4.22423e-14 -6.13634e-18 0 179.633 -7.95317e-21 0.000177442 5.66491 3.38813e-21 1.81119e-08)
(-1.32475e-14 -7.53886e-19 -6.31689e-21 165.271 2.03288e-19 0.000206604 5.15288 3.38813e-21 -2.98947e-08)
(0 2.71626e-19 0 165.29 -0.0001527 0.000206878 5.15356 -2.70617e-05 3.02863e-08)
(0 5.41693e-19 0 144.105 0.00018403 0.000242618 4.41405 3.0832e-05 -2.29184e-08)
(0 -6.49791e-18 0 144.127 1.41199e-20 0.000242796 4.41484 3.38813e-21 2.24337e-08)
(-9.50726e-16 0 0 117.345 0 0.000288895 3.48731 -6.23621e-35 -3.28944e-08)
(1.28705e-14 -1.0832e-18 0 117.369 -9.58594e-05 0.000289152 3.48815 -2.1552e-05 3.34133e-08)
(1.2309e-14 5.44424e-19 0 86.6017 0.000187319 0.000346451 2.42613 2.9544e-05 -2.72599e-08)
(0 -6.18187e-18 -1.20983e-20 86.6267 -1.89735e-19 0.000346615 2.427 3.38813e-21 2.66129e-08)
(-2.52691e-14 0 0 53.7435 1.66018e-19 0.00041693 1.29366 1.57388e-36 -3.56829e-08)
(5.05377e-14 0 0 53.7681 -7.36053e-05 0.000417154 1.2945 -1.57714e-05 3.63682e-08)
(8.04161e-14 0 0 8.89489 0.000124326 0.000496747 0.156493 2.8819e-05 -3.12162e-08)
(0 0 0 8.94006 1.35525e-20 0.000496882 0.157288 3.38813e-21 3.03506e-08)
(2.46588e-13 -1.15501e-18 0 -0.0188109 -5.42101e-20 0.000583268 0.000335765 8.47033e-22 -3.79783e-08)
(-1.57772e-30 -3.38877e-19 0 -7.22977e-13 -0.000110512 0.00058345 0 -1.20524e-05 3.88792e-08)
(0 5.3957e-19 0 -38.5801 1.74391e-06 0.000667932 0.920423 2.66283e-05 -3.46074e-08)
(-2.39484e-14 -2.78789e-21 -2.2839e-20 -38.5616 -1.48584e-19 0.000668032 0.919706 3.38813e-21 3.34485e-08)
(-1.18026e-14 -2.14727e-18 -1.12558e-20 -62.0254 2.89259e-20 0.000741609 1.8811 0 -3.96528e-08)
(-2.36051e-14 -3.39081e-19 -1.12558e-20 -62.0101 -0.000224572 0.000741749 1.88048 -1.26952e-05 4.08324e-08)
(1.16334e-14 5.40856e-19 0 -80.1774 -0.000124429 0.000793991 2.68289 2.00962e-05 -3.74301e-08)
(8.56628e-14 0 0 -80.1655 -5.42101e-20 0.000794063 2.68239 1.04992e-33 3.58802e-08)
(-2.36949e-14 0 0 -92.7957 0 0.000813979 3.29942 -1.69407e-21 -4.07587e-08)
(4.73901e-14 0 0 -92.7872 -0.000344561 0.000814088 3.29904 -1.80863e-05 4.23024e-08)
(1.15304e-14 -3.38857e-19 0 -100.13 -0.000238605 0.000790468 3.72289 8.77199e-06 -3.98511e-08)
(0 0 0 -100.124 0 0.000790524 3.72263 0 3.77883e-08)
(0 -4.40828e-18 0 -102.829 1.6854e-19 0.000718063 3.96297 0 -4.14817e-08)
(-4.48884e-14 -6.90576e-20 0 -102.827 -0.00037089 0.000718154 3.96282 -2.80324e-05 4.35091e-08)
(-3.28916e-14 -1.01578e-18 0 -101.827 -0.000210626 0.000595699 4.04368 -3.92745e-06 -4.21244e-08)
(6.56826e-14 0 0 -101.827 2.15758e-31 0.000595752 4.04362 -1.20992e-05 3.93992e-08)
(0 -2.68168e-18 0 -98.212 -1.89735e-19 0.000427647 3.99932 0 -4.20093e-08)
(-2.16466e-14 -3.40622e-19 0 -98.2132 -0.000274493 0.000427731 3.99934 -3.71806e-05 4.46899e-08)
(0 -4.04414e-19 4.06958e-20 -93.1029 -6.01397e-05 0.000223462 3.87032 -1.31268e-05 -4.44947e-08)
(1.06682e-14 -6.10664e-21 0 -93.105 -3.00436e-19 0.000223519 3.87039 -2.20015e-05 4.09256e-08)
(-1.01756e-14 1.24885e-34 0 -87.5207 4.56441e-19 -6.04859e-07 3.69806 1.27788e-36 -4.24348e-08)
(0 0 -8.94689e-38 -87.523 -5.33945e-05 -3.22346e-22 3.69815 -4.04911e-05 0)
(-9.5476e-15 -1.49254e-18 3.95376e-20 -82.2978 0.000170935 -0.000225708 3.51989 -1.3436e-05 -4.71148e-08)
(7.96485e-14 -3.20868e-21 0 -82.2998 -1.6263e-19 -0.000225648 3.51998 -2.3121e-05 4.24759e-08)
(0 -3.70432e-21 0 -78.0317 1.77448e-19 -0.000432021 3.36613 0 -4.26846e-08)
(0 -1.99726e-19 -3.89709e-20 -78.033 0.000171484 -0.00043194 3.3662 -3.42538e-05 4.74447e-08)
(-1.00696e-14 4.08131e-19 -1.92062e-20 -75.0685 0.000336384 -0.000603082 3.25817 -4.14475e-06 -5.0028e-08)
(-1.00696e-14 -1.7043e-19 0 -75.069 -1.0842e-19 -0.000603024 3.2582 -1.47707e-05 4.40292e-08)
(-2.79515e-14 5.04052e-35 0 -73.5111 8.9739e-20 -0.000726669 3.20764 1.69407e-21 -4.2546e-08)
(7.45374e-14 1.62806e-18 0 -73.5106 0.000276235 -0.000726597 3.20764 -2.07456e-05 4.88921e-08)
(0 -1.6263e-18 0 -73.2511 0.000356945 -0.000797181 3.21652 1.00886e-05 -5.31955e-08)
(7.27421e-14 -4.54843e-22 0 -73.2496 9.94876e-33 -0.000797134 3.21647 -1.63874e-06 4.5453e-08)
(-8.8567e-15 -2.62352e-22 0 -74.0202 -1.16666e-20 -0.000815261 3.27838 1.89044e-06 -4.17434e-08)
(-9.64278e-15 -4.74747e-19 -1.83921e-20 -74.0181 0.000227141 -0.000815204 3.27829 -5.9743e-06 5.01647e-08)
(8.60797e-15 -1.62477e-18 0 -75.4467 0.000251556 -0.000786969 3.38043 2.26629e-05 -5.65778e-08)
(6.88639e-14 0 0 -75.4441 -2.71051e-20 -0.000786938 3.38032 0 4.65811e-08)
(0 -3.85186e-34 0 -77.1118 2.71051e-20 -0.000721924 3.50554 1.22402e-05 -4.00082e-08)
(3.33896e-14 1.08329e-18 0 -77.1089 9.27688e-05 -0.000721887 3.50541 4.38186e-06 5.11131e-08)
(8.07724e-15 -5.41588e-19 0 -78.6095 8.71866e-05 -0.000633506 3.63473 2.95705e-05 -6.02221e-08)
(0 0 0 -78.6068 -8.80914e-20 -0.000633492 3.6346 -1.69407e-21 4.72984e-08)
(1.56021e-14 -8.31068e-21 0 -79.5887 2.61626e-19 -0.000533288 3.74994 1.49712e-05 -3.71316e-08)
(3.12043e-14 -2.03982e-19 -8.68008e-21 -79.5863 -3.99197e-05 -0.00053327 3.74981 7.28419e-06 5.16822e-08)
(0 4.06395e-19 0 -79.7786 -2.55514e-05 -0.000431871 3.83519 3.06199e-05 -6.43196e-08)
(-8.97128e-15 -1.92593e-34 0 -79.7768 -7.88215e-21 -0.00043187 3.83509 0 4.75961e-08)
(0 -9.21551e-19 0 -79.0126 6.77626e-20 -0.000337193 3.87828 1.2073e-05 -3.29453e-08)
(2.89921e-14 5.41824e-19 0 -79.0114 -0.000117274 -0.000296336 3.87821 4.78368e-06 5.19085e-08)
(1.39605e-14 -5.4237e-19 0 -77.2329 -7.08122e-05 -0.000254573 3.87185 2.82434e-05 -6.92165e-08)
(0 0 0 -77.2325 -6.77626e-20 -9.90169e-05 3.87182 7.5269e-35 1.05663e-06)
(6.72373e-15 -1.38685e-18 -4.09652e-21 -74.4794 2.71051e-20 -0.000186124 3.81349 6.51002e-06 -2.72995e-08)
(2.68949e-14 1.08455e-18 5.92352e-21 -74.4799 -0.000127917 1.29283e-05 3.8135 -7.67246e-08 6.44325e-07)
(0 -1.1528e-18 -6.05672e-21 -70.877 -6.33379e-05 -0.000132225 3.70526 2.56845e-05 -7.54067e-08)
(2.59266e-14 0 9.06182e-21 -70.8783 -2.47036e-20 1.27513e-05 3.70531 4.73035e-34 6.6191e-07)
(-6.25613e-15 -3.2377e-19 0 -66.6197 0 -6.92215e-05 3.55353 7.47698e-07 -1.99981e-08)
(-2.50245e-14 2.71133e-19 -1.89682e-21 -66.6216 -0.000105302 1.25497e-05 3.55362 -4.73177e-06 6.42094e-07)
(-1.4275e-14 -2.45181e-22 -3.9229e-21 -61.9453 -3.41035e-05 -9.8921e-06 3.36817 2.4753e-05 5.01259e-07)
(0 0 0 -61.9477 0 1.23084e-05 3.36829 -1.32349e-23 6.55674e-07)
(-5.85749e-15 -1.70612e-19 0 -57.1129 -2.03288e-20 7.35904e-06 3.16122 0 1.36485e-06)
(-2.34299e-14 2.7115e-19 -1.11206e-21 -57.1156 -7.86457e-05 1.20398e-05 3.16136 -8.01298e-06 6.31971e-07)
(0 -3.38725e-19 -3.81125e-21 -52.3868 -7.9986e-06 7.6578e-06 2.94619 2.5871e-05 1.79474e-06)
(0 -9.62965e-35 5.71688e-21 -52.3895 3.00822e-34 1.17204e-05 2.94634 -2.83879e-06 6.39969e-07)
(0 -1.03361e-19 -1.87831e-21 -48.0225 1.69407e-21 7.20967e-06 2.73723 0 2.33587e-06)
(4.41755e-14 5.41893e-19 1.44453e-20 -48.025 -5.6794e-05 1.13875e-05 2.73737 -9.99316e-06 6.13558e-07)