/*--------------------------------*- C++ -*----------------------------------*\
| =========                 |                                                 |
| \\      /  F ield         | OpenFOAM: The Open Source CFD Toolbox           |
|  \\    /   O peration     | Version:  2012                                  |
|   \\  /    A nd           | Website:  www.openfoam.com                      |
|    \\/     M anipulation  |                                                 |
\*---------------------------------------------------------------------------*/
FoamFile
{
    version     2.0;
    format      ascii;
    class       volScalarField;
    location    "11300";
    object      p;
}
// * * * * * * * * * * * * * * * * * * * * * * * * * * * * * * * * * * * * * //

dimensions      [0 2 -2 0 0 0 0];


internalField   nonuniform List<scalar> 
2560
(
4.04717e-09
-0.962212
-3.66357e-05
-0.96224
-4.06048e-05
-0.962246
-3.38624e-05
-0.962249
-3.06842e-05
-0.962251
-2.98847e-05
-0.962252
-2.92569e-05
-0.962252
-2.9052e-05
-0.962253
-2.85218e-05
-0.962253
-2.85155e-05
-0.962253
-2.77797e-05
-0.962253
-2.78201e-05
-0.962254
-3.03841e-05
-0.962253
-4.23409e-05
-0.961673
-8.73074e-05
-0.962369
-0.000179333
-0.961007
-0.000358674
-0.962909
-0.000574483
-0.962923
-0.000826771
-0.963773
-0.00106762
-0.963794
-0.00134033
-0.964728
-0.00158598
-0.964744
-0.00186121
-0.965733
-0.00210669
-0.963132
-0.00245738
-0.966999
-0.0028501
-0.964138
-0.00344264
-0.968911
-0.00407332
-0.968974
-0.00489307
-0.971411
-0.0056474
-0.971539
-0.00654631
-0.97418
-0.00726131
-0.974303
-0.00810648
-0.976919
-0.00867327
-0.976977
-0.00944438
-0.979489
-0.00993161
-0.974659
-0.0108307
-0.982333
-0.0114987
-0.960932
-0.012821
-0.986604
-0.0139074
-0.958736
-0.0158072
-0.992976
-0.0173551
-0.971894
-0.0197592
-1.00119
-0.0216061
-0.99428
-0.0243032
-1.0104
-0.0262451
-1.00971
-0.029103
-1.02003
-0.0310763
-1.01693
-0.0341669
-1.03017
-0.0363533
-0.958541
-0.0400255
-1.04325
-0.0433418
-1.01586
-0.0494446
-1.06079
-0.057434
-1.06231
-0.0713875
-1.09114
-0.0914476
-1.09753
-0.121435
-1.1501
-0.160726
-1.16518
-0.209938
-1.24826
-0.265343
-1.27201
-0.322685
-1.37153
-0.376215
-1.39667
-0.419506
-1.47957
-0.44954
-1.49518
-0.462274
-1.53382
-0.460698
-1.53213
-0.444205
-1.49201
-0.42
-1.48073
-0.388356
-1.42092
-0.356667
-1.40731
-0.323768
-1.34823
-0.295023
-1.33609
-0.267786
-0.263769
-0.245508
-0.250706
-0.22511
-0.221321
-0.209054
-0.212132
-0.194552
-0.190886
-0.183626
-0.184484
-0.173917
-0.170303
-0.167096
-0.166146
-0.161165
-0.157565
-0.157487
-0.155151
-0.154322
-0.15072
-0.152794
-0.149542
-0.151477
-0.147877
-0.151395
-0.147525
-0.151469
-0.14785
-0.152702
-0.149151
-0.154337
-0.150731
-0.157348
-0.153803
-0.161195
-0.157605
-0.166734
-0.163196
-0.173479
-0.169906
-0.182048
-0.178522
-0.191871
-0.188317
-0.20327
-0.199759
-0.215557
-0.212025
-0.228801
-0.225306
-0.24228
-0.238769
-0.255963
-0.252486
-0.269228
-0.26574
-0.282095
-0.278637
-0.294126
-0.29066
-0.30546
-0.302021
-0.315858
-0.312415
-0.325546
-0.322127
-0.334415
-0.330994
-0.342713
-0.339314
-0.350383
-0.346984
-0.357653
-0.354274
-0.36448
-0.361102
-0.371067
-0.367708
-0.3774
-0.374046
-0.383673
-0.380337
-0.389909
-0.386578
-0.39632
-0.393007
-0.402947
-0.399642
-0.409975
-0.406689
-0.417455
-0.414179
-0.425545
-0.422288
-0.434295
-0.431051
-0.443865
-0.440642
-0.454345
-0.451136
-0.465948
-0.46276
-0.478856
-0.475685
-0.493378
-0.490229
-0.509804
-0.506672
-0.528506
-0.525396
-0.549807
-0.546716
-0.574026
-0.570957
-0.601347
-0.598296
-0.631857
-0.628828
-0.665417
-0.662406
-0.701705
-0.698715
-0.740147
-0.737175
-0.780004
-0.777053
-0.820351
-0.817418
-0.860202
-0.857288
-0.898547
-0.895651
-0.934485
-0.931608
-0.967257
-0.964398
-0.99634
-0.993501
-1.02144
-1.01861
-1.0425
-1.0397
-1.05969
-1.05691
-1.07334
-1.07058
-1.08389
-1.08113
-1.09181
-1.08908
-1.09762
-1.0949
-1.10177
-1.09907
-1.10467
-1.10198
-1.10664
-1.10398
-1.10797
-1.10531
-1.10884
-1.1062
-1.1094
-1.10678
-1.10977
-1.10716
-1.10999
-1.1074
-1.11013
-1.10755
-1.11021
-1.10764
-1.11024
-1.10769
-1.11025
-1.1077
-1.11022
-1.10769
-1.11017
-1.10766
-1.11012
-1.10761
-1.11005
-1.10756
-1.10997
-1.10749
-1.10988
-1.10742
-1.10979
-1.10734
-1.1097
-1.10725
-1.10961
-1.10717
-1.10952
-1.10709
-1.10943
-1.10701
-1.10935
-1.10694
-1.10928
-1.10687
-1.10922
-1.10681
-1.10916
-1.10676
-1.10912
-1.10671
-1.10908
-1.10668
-1.10905
-1.10665
-1.10902
-1.10662
-1.109
-1.10661
-1.10898
-1.10659
-1.10897
-1.10659
-1.10895
-1.10658
-1.10894
-1.10657
-1.10893
-1.10657
-1.10892
-1.10656
-1.1089
-1.10654
-1.10887
-1.10652
-1.10883
-1.10648
-1.10878
-1.10643
-1.1087
-1.10636
-1.10859
-1.10625
-1.10845
-1.10611
-1.10824
-1.10591
-1.10797
-1.10565
-1.10761
-1.1053
-1.10715
-1.10485
-1.10656
-1.10427
-1.10581
-1.10353
-1.10489
-1.10263
-1.10375
-1.10151
-1.10239
-1.10016
-1.10076
-1.09856
-1.09886
-1.09667
-1.09665
-1.09449
-1.09414
-1.092
-1.09132
-1.08921
-1.0882
-1.08611
-1.08479
-1.08272
-1.08111
-1.07906
-1.07719
-1.07516
-1.07305
-1.07105
-1.06873
-1.06675
-1.06424
-1.0623
-1.05963
-1.0577
-1.05489
-1.05299
-1.05003
-1.04815
-1.04506
-1.0432
-1.03996
-1.03812
-1.03473
-1.03291
-1.02935
-1.02754
-1.02381
-1.02201
-1.0181
-1.01631
-1.01222
-1.01044
-1.00618
-1.0044
-0.999982
-0.998207
-0.993658
-0.991883
-0.987235
-0.985461
-0.980739
-0.978968
-0.97421
-0.972442
-0.967671
-0.965907
-0.961157
-0.959397
-0.954683
-0.952927
-0.948267
-0.946513
-0.941912
-0.940159
-0.935622
-0.933869
-0.929387
-0.927637
-0.923204
-0.921457
-0.917059
-0.915318
-0.910948
-0.909214
-0.904854
-0.903128
-0.898777
-0.89706
-0.892705
-0.890998
-0.88664
-0.884944
-0.880571
-0.878886
-0.874503
-0.872829
-0.868422
-0.866759
-0.862335
-0.860682
-0.856224
-0.854582
-0.850091
-0.84846
-0.843916
-0.842295
-0.837703
-0.836092
-0.831428
-0.829828
-0.825095
-0.823505
-0.818682
-0.817103
-0.812198
-0.810631
-0.805622
-0.804066
-0.798967
-0.797424
-0.792212
-0.790682
-0.785377
-0.783861
-0.778438
-0.776938
-0.77142
-0.769935
-0.7643
-0.762832
-0.757102
-0.755651
-0.749805
-0.748373
-0.74244
-0.741027
-0.734984
-0.73359
-0.727472
-0.726097
-0.719884
-0.718529
-0.712261
-0.710926
-0.704581
-0.703267
-0.696889
-0.695595
-0.689162
-0.687887
-0.681444
-0.680189
-0.673705
-0.67247
-0.665988
-0.664773
-0.658255
-0.65706
-0.650544
-0.649368
-0.642809
-0.641653
-0.635089
-0.633952
-0.627332
-0.626214
-0.61958
-0.618481
-0.611784
-0.610705
-0.603996
-0.602935
-0.596173
-0.595131
-0.588379
-0.587354
-0.580581
-0.579575
-0.572853
-0.571863
-0.565168
-0.564196
-0.557607
-0.556651
-0.550141
-0.549203
-0.542851
-0.541929
-0.535698
-0.534795
-0.528762
-0.527874
-0.521991
-0.521124
-0.515457
-0.514604
-0.509096
-0.508266
-0.502973
-0.502159
-0.497017
-0.496227
-0.491285
-0.490511
-0.485698
-0.484952
-0.480313
-0.479584
-0.475045
-0.474347
-0.469951
-0.46927
-0.464944
-0.464297
-0.460087
-0.459456
-0.455297
-0.454705
-0.450653
-0.450076
-0.446086
-0.445553
-0.441695
-0.441176
-0.437436
-0.436967
-0.433436
-0.432979
-0.429673
-0.429274
-0.426301
-0.425913
-0.423319
-0.422978
-0.42087
-0.420538
-0.418967
-0.41867
-0.417714
-0.417424
-0.417122
-0.416848
-0.965593
-0.000538017
-0.965621
-0.000574666
-0.965627
-0.000578639
-0.96563
-0.000571901
-0.965632
-0.000568734
-0.965633
-0.00056795
-0.965633
-0.000567397
-0.965634
-0.000567213
-0.965634
-0.000566738
-0.965634
-0.000566676
-0.965635
-0.000566142
-0.965635
-0.000566277
-0.965634
-0.000568761
-0.965054
-0.000580023
-0.96575
-0.000624135
-0.964388
-0.000716284
-0.96629
-0.000895585
-0.966304
-0.00111178
-0.967154
-0.00136421
-0.967176
-0.00160536
-0.968109
-0.00187819
-0.968125
-0.00212403
-0.969115
-0.00239932
-0.966514
-0.00264492
-0.97038
-0.00299563
-0.96752
-0.00338842
-0.972293
-0.00398096
-0.972355
-0.00461169
-0.974792
-0.00543142
-0.97492
-0.00618576
-0.977562
-0.00708466
-0.977684
-0.00779967
-0.9803
-0.00864481
-0.980358
-0.0092116
-0.982871
-0.00998269
-0.97804
-0.0104699
-0.985714
-0.011369
-0.964314
-0.012037
-0.989986
-0.0133593
-0.962118
-0.0144456
-0.996358
-0.0163454
-0.975275
-0.0178933
-1.00458
-0.0202974
-0.997661
-0.0221443
-1.01378
-0.0248413
-1.01309
-0.0267832
-1.02341
-0.0296411
-1.02031
-0.0316145
-1.03355
-0.034705
-0.961922
-0.0368914
-1.04664
-0.0405636
-1.01924
-0.0438799
-1.06418
-0.0499827
-1.0657
-0.0579721
-1.09452
-0.0719256
-1.10091
-0.0919857
-1.15348
-0.121973
-1.16856
-0.161264
-1.25164
-0.210476
-1.27539
-0.265881
-1.37492
-0.323223
-1.40005
-0.376753
-1.48295
-0.420044
-1.49856
-0.450078
-1.5372
-0.462812
-1.53551
-0.461236
-1.49539
-0.444743
-1.48412
-0.420538
-1.4243
-0.388894
-1.41069
-0.357205
-1.35161
-0.324306
-1.33947
-0.295561
-0.267149
-0.268324
-0.254086
-0.246046
-0.224701
-0.225648
-0.215512
-0.209592
-0.194266
-0.19509
-0.187864
-0.184164
-0.173683
-0.174455
-0.169526
-0.167634
-0.160945
-0.161703
-0.158531
-0.158025
-0.1541
-0.15486
-0.152922
-0.153332
-0.151257
-0.152015
-0.150905
-0.151933
-0.15123
-0.152007
-0.152531
-0.15324
-0.154111
-0.154875
-0.157183
-0.157886
-0.160985
-0.161733
-0.166576
-0.167272
-0.173286
-0.174017
-0.181902
-0.182586
-0.191697
-0.192409
-0.203139
-0.203808
-0.215405
-0.216095
-0.228686
-0.229339
-0.242149
-0.242818
-0.255866
-0.256501
-0.26912
-0.269766
-0.282017
-0.282633
-0.29404
-0.294664
-0.305401
-0.305997
-0.315795
-0.316396
-0.325507
-0.326084
-0.334374
-0.334952
-0.342694
-0.343251
-0.350364
-0.350921
-0.357654
-0.358191
-0.364483
-0.365018
-0.371089
-0.371605
-0.377426
-0.377938
-0.383717
-0.384211
-0.389959
-0.390447
-0.396388
-0.396858
-0.403023
-0.403485
-0.410069
-0.410513
-0.417559
-0.417993
-0.425668
-0.426082
-0.434431
-0.434833
-0.444022
-0.444403
-0.454516
-0.454882
-0.46614
-0.466485
-0.479065
-0.479393
-0.493609
-0.493916
-0.510053
-0.510342
-0.528777
-0.529043
-0.550097
-0.550345
-0.574337
-0.574564
-0.601678
-0.601885
-0.632208
-0.632394
-0.665788
-0.665954
-0.702095
-0.702242
-0.740557
-0.740684
-0.780433
-0.780541
-0.820799
-0.820888
-0.860669
-0.860738
-0.899033
-0.899083
-0.934989
-0.935021
-0.967781
-0.967793
-0.996881
-0.996876
-1.022
-1.02197
-1.04308
-1.04304
-1.06029
-1.06023
-1.07395
-1.07388
-1.08452
-1.08442
-1.09246
-1.09235
-1.09829
-1.09816
-1.10245
-1.10231
-1.10537
-1.1052
-1.10735
-1.10718
-1.1087
-1.1085
-1.10958
-1.10938
-1.11017
-1.10994
-1.11053
-1.1103
-1.11079
-1.11053
-1.11092
-1.11067
-1.11103
-1.11074
-1.11106
-1.11078
-1.1111
-1.11078
-1.11109
-1.11075
-1.11104
-1.11071
-1.11101
-1.11065
-1.11094
-1.11058
-1.11089
-1.1105
-1.1108
-1.11042
-1.11073
-1.11033
-1.11064
-1.11023
-1.11056
-1.11014
-1.11047
-1.11005
-1.1104
-1.10997
-1.11032
-1.10989
-1.11026
-1.10981
-1.1102
-1.10975
-1.11015
-1.10969
-1.1101
-1.10965
-1.11007
-1.10961
-1.11003
-1.10958
-1.11002
-1.10955
-1.10999
-1.10953
-1.10999
-1.10952
-1.10997
-1.1095
-1.10997
-1.10949
-1.10996
-1.10948
-1.10996
-1.10946
-1.10995
-1.10945
-1.10993
-1.10943
-1.10991
-1.1094
-1.10987
-1.10936
-1.10982
-1.10931
-1.10975
-1.10923
-1.10964
-1.10913
-1.1095
-1.10898
-1.1093
-1.10878
-1.10904
-1.1085
-1.10869
-1.10815
-1.10824
-1.10768
-1.10766
-1.10709
-1.10693
-1.10634
-1.10602
-1.10542
-1.1049
-1.10428
-1.10356
-1.10292
-1.10195
-1.10129
-1.10007
-1.09938
-1.09788
-1.09718
-1.0954
-1.09467
-1.0926
-1.09185
-1.08951
-1.08873
-1.08612
-1.08531
-1.08247
-1.08163
-1.07856
-1.0777
-1.07446
-1.07357
-1.07015
-1.06924
-1.0657
-1.06476
-1.06111
-1.06014
-1.0564
-1.05541
-1.05156
-1.05054
-1.04661
-1.04558
-1.04153
-1.04047
-1.03633
-1.03525
-1.03095
-1.02986
-1.02543
-1.02433
-1.01972
-1.01861
-1.01386
-1.01274
-1.00781
-1.00668
-1.00163
-1.0005
-0.995289
-0.994157
-0.988884
-0.987751
-0.982373
-0.981237
-0.975868
-0.974727
-0.969312
-0.968167
-0.962825
-0.961675
-0.95633
-0.955176
-0.949943
-0.948786
-0.943561
-0.942403
-0.937301
-0.936143
-0.931037
-0.929875
-0.924893
-0.923727
-0.918717
-0.917544
-0.912653
-0.911472
-0.906526
-0.905334
-0.900505
-0.899302
-0.894395
-0.893179
-0.888396
-0.887166
-0.882283
-0.881038
-0.876287
-0.875029
-0.870156
-0.868882
-0.864149
-0.862861
-0.857978
-0.856675
-0.851935
-0.850618
-0.845689
-0.844358
-0.839577
-0.838231
-0.83322
-0.831859
-0.827002
-0.825625
-0.820494
-0.819102
-0.814139
-0.81273
-0.807456
-0.806028
-0.800947
-0.7995
-0.79407
-0.792603
-0.787401
-0.78591
-0.780325
-0.778811
-0.773495
-0.771954
-0.76622
-0.764652
-0.759233
-0.757635
-0.751762
-0.750134
-0.744634
-0.742972
-0.736981
-0.735286
-0.729733
-0.728001
-0.721922
-0.720155
-0.714594
-0.712787
-0.706662
-0.704819
-0.699298
-0.697412
-0.691286
-0.689364
-0.68393
-0.681964
-0.675871
-0.673868
-0.668555
-0.666505
-0.660463
-0.658376
-0.653194
-0.651058
-0.645058
-0.642885
-0.637827
-0.635601
-0.629621
-0.627359
-0.622407
-0.620089
-0.614112
-0.611759
-0.606916
-0.604503
-0.598538
-0.596093
-0.591394
-0.588885
-0.58298
-0.580442
-0.575965
-0.573358
-0.567599
-0.564967
-0.560819
-0.558113
-0.552603
-0.549875
-0.546168
-0.543357
-0.538191
-0.535363
-0.532189
-0.529267
-0.524516
-0.52158
-0.519005
-0.515959
-0.511656
-0.508602
-0.506653
-0.503469
-0.499619
-0.496432
-0.49511
-0.491768
-0.488348
-0.485014
-0.4843
-0.480778
-0.477751
-0.474251
-0.474117
-0.470389
-0.467713
-0.46403
-0.464451
-0.460489
-0.458137
-0.454252
-0.455236
-0.451009
-0.449003
-0.4449
-0.446519
-0.441993
-0.440439
-0.4361
-0.438528
-0.433659
-0.408168
-0.428175
-0.406494
-0.426272
-0.401691
-0.421854
-0.400444
-0.420569
-0.397134
-0.417614
-0.396465
-0.417091
-0.394929
-0.416027
-0.417123
-0.416848
-0.417716
-0.417421
-0.418971
-0.418667
-0.420873
-0.420534
-0.423324
-0.422973
-0.426304
-0.425906
-0.429681
-0.42927
-0.433441
-0.43297
-0.437442
-0.436958
-0.441703
-0.441168
-0.446095
-0.445545
-0.450662
-0.450067
-0.455307
-0.454696
-0.460098
-0.459446
-0.464956
-0.464287
-0.469962
-0.469257
-0.475056
-0.474334
-0.480325
-0.47957
-0.48571
-0.484937
-0.491299
-0.490498
-0.497031
-0.496212
-0.502988
-0.502144
-0.50911
-0.508249
-0.51547
-0.514586
-0.522005
-0.521105
-0.52878
-0.527858
-0.535713
-0.534775
-0.54287
-0.541912
-0.550158
-0.549184
-0.557622
-0.556628
-0.565188
-0.564178
-0.572873
-0.571843
-0.580604
-0.579558
-0.588399
-0.587332
-0.596198
-0.595114
-0.604015
-0.60291
-0.611804
-0.61068
-0.619602
-0.618457
-0.627351
-0.626187
-0.635114
-0.633929
-0.642832
-0.641627
-0.650569
-0.649343
-0.65828
-0.657033
-0.666015
-0.664747
-0.673728
-0.67244
-0.681472
-0.680163
-0.689186
-0.687856
-0.696916
-0.695564
-0.704607
-0.703234
-0.712289
-0.710895
-0.71991
-0.718494
-0.727505
-0.726068
-0.735015
-0.733558
-0.742467
-0.740989
-0.749838
-0.74834
-0.757133
-0.755616
-0.764336
-0.7628
-0.771452
-0.769899
-0.77847
-0.7769
-0.785407
-0.783821
-0.792252
-0.790652
-0.799002
-0.797387
-0.805661
-0.804033
-0.812235
-0.810594
-0.818722
-0.817069
-0.825129
-0.823465
-0.83146
-0.829784
-0.837743
-0.836056
-0.843954
-0.842257
-0.850134
-0.848425
-0.856259
-0.854539
-0.862368
-0.860637
-0.868461
-0.866718
-0.874537
-0.872783
-0.880606
-0.878841
-0.886677
-0.8849
-0.892747
-0.890959
-0.898822
-0.897023
-0.904902
-0.903093
-0.910994
-0.909176
-0.917101
-0.915276
-0.923248
-0.921417
-0.929426
-0.927592
-0.935661
-0.933824
-0.941957
-0.94012
-0.948305
-0.946466
-0.954718
-0.952877
-0.961203
-0.959358
-0.967714
-0.965865
-0.974243
-0.97239
-0.98078
-0.978923
-0.987274
-0.985415
-0.993694
-0.991833
-1.00002
-0.998159
-1.00623
-1.00436
-1.01227
-1.0104
-1.01814
-1.01627
-1.02386
-1.02198
-1.0294
-1.0275
-1.03478
-1.03286
-1.04
-1.03807
-1.04511
-1.04316
-1.05008
-1.04811
-1.05494
-1.05294
-1.05968
-1.05766
-1.06429
-1.06225
-1.06877
-1.0667
-1.0731
-1.07101
-1.07723
-1.07511
-1.08115
-1.07901
-1.08484
-1.08266
-1.08825
-1.08605
-1.09137
-1.08915
-1.0942
-1.09195
-1.09671
-1.09443
-1.09891
-1.09661
-1.10082
-1.0985
-1.10244
-1.10011
-1.10381
-1.10145
-1.10494
-1.10257
-1.10587
-1.10348
-1.10662
-1.10421
-1.10721
-1.10478
-1.10767
-1.10524
-1.10803
-1.10559
-1.1083
-1.10585
-1.1085
-1.10605
-1.10865
-1.10619
-1.10876
-1.1063
-1.10884
-1.10637
-1.10889
-1.10642
-1.10893
-1.10646
-1.10896
-1.10648
-1.10898
-1.1065
-1.10899
-1.1065
-1.109
-1.10651
-1.10902
-1.10652
-1.10903
-1.10652
-1.10904
-1.10653
-1.10906
-1.10655
-1.10908
-1.10656
-1.10911
-1.10658
-1.10914
-1.10661
-1.10918
-1.10665
-1.10922
-1.10669
-1.10928
-1.10675
-1.10934
-1.10681
-1.10942
-1.10688
-1.10949
-1.10695
-1.10958
-1.10703
-1.10967
-1.1071
-1.10977
-1.10719
-1.10986
-1.10727
-1.10995
-1.10735
-1.11003
-1.10742
-1.11012
-1.10749
-1.11018
-1.10754
-1.11024
-1.10759
-1.11028
-1.10762
-1.11032
-1.10764
-1.11031
-1.10761
-1.11028
-1.10757
-1.11019
-1.10747
-1.11007
-1.10733
-1.10983
-1.10708
-1.10948
-1.10671
-1.10891
-1.10612
-1.10805
-1.10525
-1.10671
-1.1039
-1.10475
-1.10192
-1.10183
-1.09898
-1.09771
-1.09485
-1.09187
-1.08899
-1.08396
-1.08106
-1.07342
-1.0705
-1.05974
-1.05681
-1.0425
-1.03954
-1.0215
-1.01852
-0.99652
-0.993524
-0.967217
-0.964202
-0.934535
-0.931501
-0.898599
-0.895544
-0.860354
-0.85728
-0.820488
-0.817393
-0.780255
-0.777141
-0.740389
-0.737254
-0.701704
-0.69855
-0.66546
-0.662284
-0.632088
-0.628892
-0.601358
-0.59814
-0.573987
-0.570748
-0.549932
-0.546671
-0.528656
-0.525375
-0.509942
-0.506639
-0.493428
-0.490106
-0.478977
-0.475633
-0.466064
-0.462702
-0.454454
-0.451071
-0.443916
-0.440516
-0.43441
-0.430991
-0.425672
-0.422237
-0.417504
-0.414052
-0.410101
-0.406636
-0.403068
-0.399585
-0.396402
-0.392909
-0.389969
-0.386459
-0.383766
-0.380247
-0.377455
-0.373921
-0.371147
-0.367605
-0.364601
-0.361044
-0.357701
-0.354138
-0.35047
-0.346891
-0.342832
-0.339248
-0.334459
-0.330858
-0.325636
-0.322032
-0.316018
-0.312396
-0.305539
-0.301914
-0.294127
-0.290483
-0.28222
-0.278575
-0.269305
-0.26564
-0.256016
-0.252351
-0.242326
-0.23864
-0.228889
-0.225205
-0.215701
-0.211994
-0.20331
-0.199609
-0.192026
-0.188299
-0.182176
-0.178459
-0.173594
-0.169851
-0.166882
-0.163152
-0.161272
-0.157514
-0.157419
-0.153679
-0.154399
-0.150628
-0.15279
-0.149041
-0.151553
-0.147764
-0.151491
-0.147435
-0.151557
-0.147779
-0.152881
-0.149439
-0.154403
-0.150619
-0.157593
-0.155026
-0.161225
-0.157455
-0.167226
-0.166129
-0.174042
-0.170288
-0.183716
-0.184497
-0.194709
-0.19092
-0.209238
-0.211438
-0.225094
-0.22116
-0.245598
-1.29769
-0.267751
-1.30651
-0.295178
-1.35681
-0.323924
-1.36837
-0.356401
-1.42784
-0.388177
-1.4413
-0.420318
-1.50209
-0.44402
-1.51329
-0.460847
-1.55356
-0.462424
-1.55527
-0.449444
-1.51676
-0.419968
-1.50109
-0.375667
-1.41754
-0.323129
-1.39278
-0.266074
-1.29277
-0.210147
-1.26901
-0.161152
-1.18556
-0.12154
-1.1705
-0.0916957
-1.11768
-0.0715197
-1.11133
-0.0576174
-1.0823
-0.0496083
-1.08078
-0.0433528
-1.02081
-0.0400928
-1.06289
-0.0364409
-0.985407
-0.0343028
-1.05003
-0.0311532
-1.03385
-0.029152
-1.03976
-0.0263446
-1.03021
-0.0243856
-1.0302
-0.0216772
-1.01406
-0.0198262
-1.02099
-0.0174346
-0.993409
-0.0158946
-1.01281
-0.0139609
-0.976744
-0.0128943
-1.00639
-0.0115628
-0.981707
-0.0109139
-1.00215
-0.00998898
-0.993822
-0.00952309
-0.999294
-0.00873872
-0.996786
-0.00817367
-0.996725
-0.00732351
-0.994127
-0.00662323
-0.994008
-0.00573232
-0.991386
-0.00496934
-0.991249
-0.00413447
-0.988814
-0.00350885
-0.988751
-0.00291542
-0.984149
-0.00251443
-0.986836
-0.00217069
-0.982992
-0.00192425
-0.985576
-0.00164651
-0.984583
-0.00140547
-0.98457
-0.00113606
-0.983635
-0.000892446
-0.983613
-0.000636287
-0.982759
-0.000423518
-0.982746
-0.000244883
-0.980848
-0.00015021
-0.982202
-0.000104923
-0.981487
-9.27927e-05
-0.982083
-9.02669e-05
-0.982084
-9.01456e-05
-0.982084
-9.0843e-05
-0.982083
-9.0786e-05
-0.982083
-9.13261e-05
-0.982083
-9.14873e-05
-0.982082
-9.22475e-05
-0.982082
-9.31584e-05
-0.982081
-9.66898e-05
-0.982078
-0.000103656
-0.982075
-9.95693e-05
-0.982069
-6.2539e-05
-0.982042
-0.394929
-0.416029
-0.396463
-0.417092
-0.397133
-0.417615
-0.400443
-0.420571
-0.401689
-0.421857
-0.406492
-0.426272
-0.408166
-0.42818
-0.438499
-0.43366
-0.440408
-0.436102
-0.44649
-0.441996
-0.448974
-0.444905
-0.455206
-0.451013
-0.458106
-0.454257
-0.464422
-0.460495
-0.467683
-0.464036
-0.474086
-0.470394
-0.477718
-0.474256
-0.484267
-0.480783
-0.488314
-0.485019
-0.495078
-0.491776
-0.499585
-0.496439
-0.506619
-0.503477
-0.511621
-0.508609
-0.518968
-0.515965
-0.524479
-0.521586
-0.532156
-0.529277
-0.538153
-0.535369
-0.546133
-0.543368
-0.552567
-0.549884
-0.560779
-0.558119
-0.567563
-0.564979
-0.575928
-0.57337
-0.582946
-0.580457
-0.591355
-0.588896
-0.598504
-0.596109
-0.606875
-0.604513
-0.61407
-0.611769
-0.622367
-0.620102
-0.629577
-0.627369
-0.637787
-0.635616
-0.645015
-0.642898
-0.653153
-0.651073
-0.66042
-0.65839
-0.668514
-0.666522
-0.675825
-0.673881
-0.683888
-0.681982
-0.691239
-0.689378
-0.699252
-0.697429
-0.706614
-0.704835
-0.714548
-0.712805
-0.721872
-0.72017
-0.729689
-0.728023
-0.736934
-0.735306
-0.744582
-0.742988
-0.751714
-0.750155
-0.759183
-0.757655
-0.766173
-0.764676
-0.773444
-0.771975
-0.780273
-0.778832
-0.787346
-0.785929
-0.794026
-0.792632
-0.800896
-0.799524
-0.807408
-0.806056
-0.814089
-0.812755
-0.820446
-0.81913
-0.826947
-0.825648
-0.833163
-0.831879
-0.839528
-0.83826
-0.845637
-0.844384
-0.851887
-0.850649
-0.857921
-0.856698
-0.86409
-0.862882
-0.870101
-0.868908
-0.876228
-0.87505
-0.882224
-0.881061
-0.888338
-0.88719
-0.894342
-0.893208
-0.900454
-0.899335
-0.906477
-0.905369
-0.912602
-0.911506
-0.918661
-0.917573
-0.924839
-0.923758
-0.930978
-0.929902
-0.937242
-0.93617
-0.943508
-0.942435
-0.949883
-0.948812
-0.956267
-0.955198
-0.962772
-0.961708
-0.969256
-0.968197
-0.975802
-0.974748
-0.982315
-0.981265
-0.988825
-0.987778
-0.995226
-0.994181
-1.00157
-1.00052
-1.00776
-1.00672
-1.01381
-1.01277
-1.01966
-1.01863
-1.02538
-1.02436
-1.03089
-1.02989
-1.03626
-1.03528
-1.04147
-1.0405
-1.04656
-1.04561
-1.0515
-1.05058
-1.05634
-1.05544
-1.06105
-1.06018
-1.06565
-1.0648
-1.07009
-1.06927
-1.0744
-1.07361
-1.0785
-1.07774
-1.0824
-1.08166
-1.08605
-1.08534
-1.08944
-1.08876
-1.09253
-1.09188
-1.09533
-1.09471
-1.09782
-1.09722
-1.1
-1.09942
-1.10188
-1.10133
-1.10349
-1.10296
-1.10483
-1.10432
-1.10595
-1.10546
-1.10686
-1.10639
-1.10759
-1.10713
-1.10817
-1.10772
-1.10862
-1.10819
-1.10897
-1.10855
-1.10923
-1.10882
-1.10943
-1.10902
-1.10957
-1.10917
-1.10968
-1.10928
-1.10975
-1.10935
-1.1098
-1.10941
-1.10984
-1.10945
-1.10986
-1.10947
-1.10987
-1.10949
-1.10989
-1.10951
-1.10989
-1.10952
-1.1099
-1.10953
-1.1099
-1.10955
-1.10991
-1.10956
-1.10992
-1.10958
-1.10994
-1.1096
-1.10996
-1.10963
-1.11
-1.10966
-1.11003
-1.1097
-1.11008
-1.10974
-1.11012
-1.1098
-1.11019
-1.10986
-1.11025
-1.10993
-1.11033
-1.11001
-1.1104
-1.1101
-1.11049
-1.11019
-1.11056
-1.11028
-1.11066
-1.11037
-1.11072
-1.11047
-1.11081
-1.11055
-1.11086
-1.11063
-1.11094
-1.1107
-1.11096
-1.11076
-1.11101
-1.1108
-1.11103
-1.11084
-1.11099
-1.11082
-1.11096
-1.1108
-1.11082
-1.11071
-1.11071
-1.11059
-1.11043
-1.11035
-1.11009
-1.11
-1.10948
-1.10942
-1.10862
-1.10857
-1.10725
-1.10723
-1.1053
-1.10527
-1.10234
-1.10234
-1.09822
-1.09823
-1.09235
-1.09239
-1.08443
-1.08448
-1.07386
-1.07394
-1.06017
-1.06026
-1.0429
-1.04301
-1.02189
-1.02202
-0.996887
-0.997037
-0.967571
-0.967736
-0.934865
-0.935053
-0.898913
-0.899117
-0.860645
-0.860872
-0.820762
-0.821006
-0.780507
-0.780773
-0.740623
-0.740908
-0.701916
-0.702222
-0.665653
-0.665979
-0.632259
-0.632606
-0.601509
-0.601877
-0.574116
-0.574505
-0.550041
-0.550451
-0.528744
-0.529174
-0.510009
-0.510461
-0.493475
-0.493946
-0.479003
-0.479496
-0.466072
-0.466583
-0.454441
-0.454973
-0.443886
-0.444435
-0.434362
-0.43493
-0.425608
-0.426191
-0.417423
-0.418024
-0.410007
-0.410621
-0.402956
-0.403588
-0.396279
-0.396922
-0.38983
-0.39049
-0.383618
-0.384286
-0.377291
-0.377976
-0.370975
-0.371667
-0.364413
-0.365122
-0.357506
-0.358221
-0.350259
-0.350992
-0.342616
-0.343353
-0.334226
-0.334982
-0.325398
-0.326157
-0.315762
-0.316541
-0.30528
-0.30606
-0.293849
-0.29465
-0.28194
-0.282741
-0.269006
-0.26983
-0.255716
-0.256537
-0.242006
-0.242852
-0.228571
-0.22941
-0.215361
-0.216227
-0.202976
-0.203831
-0.191668
-0.192553
-0.181829
-0.182697
-0.173223
-0.174123
-0.166526
-0.167403
-0.16089
-0.161802
-0.157058
-0.15794
-0.154006
-0.154931
-0.152418
-0.153311
-0.151133
-0.152086
-0.150797
-0.152011
-0.151142
-0.152092
-0.152801
-0.153401
-0.153995
-0.15494
-0.158422
-0.158112
-0.160871
-0.161765
-0.169566
-0.167744
-0.173715
-0.174584
-0.187907
-0.184233
-0.19429
-0.195254
-0.215343
-0.209753
-0.224466
-0.225643
-0.25372
-0.246111
-0.266831
-0.268254
-1.36626
-0.295721
-1.37841
-0.324433
-1.4373
-0.356942
-1.45076
-0.388689
-1.51154
-0.420858
-1.52274
-0.444536
-1.56302
-0.461384
-1.56473
-0.462943
-1.52622
-0.449981
-1.51056
-0.42049
-1.42701
-0.376203
-1.40226
-0.323654
-1.30225
-0.26661
-1.27849
-0.210674
-1.19503
-0.161688
-1.17996
-0.122069
-1.12713
-0.0922317
-1.12078
-0.0720501
-1.09176
-0.0581537
-1.09024
-0.0501403
-1.03028
-0.0438896
-1.07236
-0.0406263
-0.994877
-0.0369782
-1.0595
-0.0348377
-1.04332
-0.0316911
-1.04923
-0.0296881
-1.03968
-0.0268831
-1.03967
-0.0249229
-1.02353
-0.0222163
-1.03046
-0.0203645
-1.00288
-0.0179743
-1.02228
-0.0164339
-0.986211
-0.0145014
-1.01586
-0.0134344
-0.991174
-0.0121039
-1.01162
-0.0114549
-1.00329
-0.0105307
-1.00876
-0.0100648
-1.00625
-0.00928098
-1.00619
-0.00871598
-1.00359
-0.00786629
-1.00348
-0.00716612
-1.00086
-0.00627558
-1.00072
-0.00551275
-0.998287
-0.00467818
-0.998223
-0.00405271
-0.993621
-0.00345952
-0.996307
-0.00305869
-0.992462
-0.00271514
-0.995045
-0.00246883
-0.994052
-0.00219121
-0.994039
-0.00195025
-0.993104
-0.00168089
-0.993084
-0.00143733
-0.992231
-0.00118113
-0.99222
-0.000968428
-0.990323
-0.000789687
-0.991676
-0.000695183
-0.990962
-0.000650282
-0.991557
-0.000638701
-0.991558
-0.000636277
-0.991557
-0.000636233
-0.991557
-0.000637099
-0.991556
-0.000637052
-0.991556
-0.00063759
-0.991555
-0.000637736
-0.991554
-0.000638497
-0.991554
-0.000639439
-0.991551
-0.000643011
-0.991548
-0.000650001
-0.991542
-0.000645921
-0.991514
-0.000608877
)
;

boundaryField
{
    walls
    {
        type            zeroGradient;
    }
    inlet
    {
        type            cyclic;
    }
    outlet
    {
        type            cyclic;
    }
    sides
    {
        type            empty;
    }
}


// ************************************************************************* //
