/*--------------------------------*- C++ -*----------------------------------*\
| =========                 |                                                 |
| \\      /  F ield         | OpenFOAM: The Open Source CFD Toolbox           |
|  \\    /   O peration     | Version:  2012                                  |
|   \\  /    A nd           | Website:  www.openfoam.com                      |
|    \\/     M anipulation  |                                                 |
\*---------------------------------------------------------------------------*/
FoamFile
{
    version     2.0;
    format      ascii;
    class       volSymmTensorField;
    location    "11300";
    object      turbulenceProperties:R;
}
// * * * * * * * * * * * * * * * * * * * * * * * * * * * * * * * * * * * * * //

dimensions      [0 2 -2 0 0 0 0];


internalField   nonuniform List<symmTensor> 
2560
(
(0.00611558 -2.16333e-06 -3.13731e-09 0.00611558 -1.81805e-08 0.00611558)
(0.00611087 -2.1592e-06 -3.1349e-09 0.00611087 8.02492e-13 0.00611087)
(0.17415 -0.000353632 -1.54767e-06 0.17415 -5.51e-11 0.17415)
(0.174027 -0.000352981 -1.54656e-06 0.174027 1.10181e-10 0.174027)
(1.19282 -0.0072645 -4.35248e-05 1.19283 2.72666e-05 1.19282)
(1.19205 -0.0072518 -4.34501e-05 1.19205 4.03711e-10 1.19206)
(3.52472 -0.0458305 -0.000278582 3.52473 0.00015924 3.52472)
(3.52293 -0.0457603 -0.000278168 3.52293 2.72974e-09 3.52293)
(6.26572 -0.135359 -0.000834741 6.26573 0.000249108 6.26572)
(6.26324 -0.135183 -0.000833697 6.26323 3.20966e-09 6.26324)
(8.76527 -0.266394 -0.00166608 8.76529 0.000224874 8.76527)
(8.76236 -0.266097 -0.00166431 8.76234 1.66396e-09 8.76236)
(10.9736 -0.425499 -0.00269817 10.9736 0.00017952 10.9736)
(10.9703 -0.42509 -0.00269571 10.9703 9.65473e-10 10.9703)
(12.9578 -0.604062 -0.00388365 12.9578 0.000143891 12.9578)
(12.9542 -0.603559 -0.00388061 12.9542 2.21543e-09 12.9542)
(14.7768 -0.797145 -0.00519923 14.7768 0.000118397 14.7768)
(14.773 -0.796575 -0.00519576 14.773 -1.11545e-10 14.773)
(16.4721 -1.00257 -0.00663797 16.4721 9.98726e-05 16.4721)
(16.4681 -1.00196 -0.00663423 16.4681 4.76283e-09 16.4681)
(18.0724 -1.21882 -0.00818814 18.0724 8.59432e-05 18.0724)
(18.0681 -1.2182 -0.00818431 18.0681 -1.76175e-09 18.0681)
(19.598 -1.44427 -0.00984528 19.598 7.5156e-05 19.598)
(19.5936 -1.44367 -0.00984153 19.5935 8.22362e-09 19.5936)
(21.064 -1.67848 -0.0116132 21.064 6.66829e-05 21.064)
(21.0594 -1.67791 -0.0116096 21.059 -7.35453e-07 21.0594)
(22.4816 -1.92024 -0.0134761 22.4816 5.87003e-05 22.4816)
(22.4767 -1.91973 -0.0134729 22.4767 -1.04473e-08 22.4767)
(23.8596 -2.16606 -0.015408 23.8597 5.38567e-05 23.8596)
(23.8551 -2.16563 -0.0154053 23.8536 5.87992e-07 23.8551)
(25.2052 -2.41183 -0.0173829 25.2052 4.45479e-05 25.2052)
(25.1999 -2.41149 -0.0173809 25.1999 -5.02958e-08 25.1999)
(26.5238 -2.65429 -0.0193829 26.5238 4.37599e-05 26.5238)
(26.5189 -2.65405 -0.0193816 26.5175 4.14646e-06 26.5189)
(27.8204 -2.89435 -0.0214403 27.8204 3.25202e-05 27.8204)
(27.8148 -2.89422 -0.0214397 27.8148 -2.14076e-08 27.8148)
(29.0989 -3.13995 -0.0236383 29.0989 3.91213e-05 29.0989)
(29.0931 -3.13991 -0.0236384 29.0931 4.63884e-08 29.0931)
(30.3627 -3.40033 -0.0260323 30.3627 2.3299e-05 30.3627)
(30.3568 -3.40039 -0.0260331 30.3568 -8.24323e-09 30.3568)
(31.6148 -3.67703 -0.0285988 31.6148 3.98446e-05 31.6148)
(31.6087 -3.67717 -0.0286002 31.6087 7.08337e-08 31.6087)
(32.8576 -3.9635 -0.0312755 32.8577 1.47245e-05 32.8576)
(32.8514 -3.96373 -0.0312775 32.8514 3.98654e-09 32.8514)
(34.0936 -4.25261 -0.0340265 34.0936 4.43061e-05 34.0936)
(34.0871 -4.2529 -0.034029 34.0871 -3.66111e-06 34.0871)
(35.3245 -4.54172 -0.0368531 35.3246 2.44278e-06 35.3245)
(35.3179 -4.54207 -0.0368561 35.3179 -7.82989e-08 35.3179)
(36.5524 -4.83124 -0.0397631 36.5524 5.33986e-05 36.5524)
(36.5456 -4.83163 -0.0397664 36.5456 -7.75862e-07 36.5456)
(37.7789 -5.12088 -0.0427468 37.779 -1.58908e-05 37.7789)
(37.7719 -5.12131 -0.0427504 37.7719 -1.8676e-07 37.7719)
(39.0056 -5.40837 -0.0457789 39.0056 6.5433e-05 39.0056)
(38.9984 -5.40881 -0.0457826 38.9984 3.81841e-06 38.9984)
(40.2339 -5.69037 -0.0488311 40.234 -3.30514e-05 40.2339)
(40.2266 -5.69081 -0.0488347 40.2266 -1.40799e-07 40.2266)
(41.4654 -5.96476 -0.0518952 41.4654 7.42206e-05 41.4654)
(41.4578 -5.96518 -0.0518986 41.4578 -6.72189e-08 41.4578)
(42.7012 -6.23414 -0.0550231 42.7014 -4.73679e-05 42.7012)
(42.6935 -6.2345 -0.055026 42.6935 -3.80368e-08 42.6935)
(43.943 -6.50976 -0.058361 43.9429 8.40324e-05 43.943)
(43.935 -6.51004 -0.0583631 43.935 2.65245e-07 43.935)
(45.1916 -6.81209 -0.0621348 45.1917 -6.27146e-05 45.1916)
(45.1834 -6.81226 -0.0621358 45.1834 5.05336e-08 45.1834)
(46.4486 -7.16518 -0.0665752 46.4484 9.56817e-05 46.4486)
(46.4401 -7.16521 -0.0665747 46.4401 3.6463e-07 46.4401)
(47.7147 -7.58741 -0.0718288 47.7149 -7.91736e-05 47.7147)
(47.7061 -7.58727 -0.0718267 47.7061 3.70692e-08 47.7061)
(48.9912 -8.08426 -0.0779092 48.9911 0.000110822 48.9912)
(48.9824 -8.08394 -0.0779053 48.9824 -8.16117e-06 48.9824)
(50.2786 -8.64702 -0.0847039 50.2789 -0.000105566 50.2786)
(50.2697 -8.64651 -0.0846981 50.2697 -1.85396e-07 50.2697)
(51.5781 -9.25657 -0.0920217 51.5779 0.000139022 51.5781)
(51.5688 -9.25586 -0.092014 51.5688 -2.95325e-05 51.5688)
(52.8898 -9.89002 -0.0996588 52.8901 -0.000174275 52.8898)
(52.8804 -9.88912 -0.099649 52.8804 -6.38556e-07 52.8804)
(54.2149 -10.5283 -0.107476 54.2146 0.000234569 54.2149)
(54.2051 -10.5272 -0.107464 54.2051 -1.32981e-05 54.2051)
(55.5533 -11.1648 -0.115496 55.5538 -0.000297576 55.5533)
(55.5435 -11.1635 -0.115481 55.5435 -8.76828e-07 55.5435)
(56.9067 -11.8147 -0.124016 56.9064 0.000376651 56.9067)
(56.8964 -11.8132 -0.123999 56.8964 1.04876e-05 56.8964)
(58.2747 -12.5226 -0.133688 58.2752 -0.000439349 58.2747)
(58.2644 -12.5208 -0.133667 58.2644 -7.72458e-07 58.2644)
(59.659 -13.3625 -0.145473 59.6585 0.000513096 59.659)
(59.6481 -13.3603 -0.145447 59.6481 2.54339e-05 59.6481)
(61.0587 -14.4239 -0.16044 61.0593 -0.000559129 61.0587)
(61.0479 -14.4213 -0.160409 61.0479 -4.37502e-07 61.0479)
(62.4751 -15.7861 -0.179445 62.4746 0.000610319 62.4751)
(62.4637 -15.7831 -0.179409 62.4637 1.15546e-05 62.4637)
(63.9061 -17.4923 -0.202869 63.9068 -0.000650834 63.9061)
(63.8948 -17.4888 -0.202828 63.8948 -2.88584e-07 63.8948)
(65.3518 -19.537 -0.230556 65.3512 0.000691853 65.3518)
(65.3397 -19.5331 -0.230511 65.3397 -5.33765e-06 65.3397)
(66.8079 -21.8725 -0.261945 66.8086 -0.000742715 66.8079)
(66.796 -21.8684 -0.261897 66.796 -3.80753e-07 66.796)
(68.2729 -24.4311 -0.296377 68.2722 0.000790433 68.2729)
(68.2602 -24.4269 -0.296329 68.2602 -0.000143292 68.2602)
(69.7404 -27.1462 -0.333236 69.7412 -0.000991909 69.7404)
(69.728 -27.1421 -0.33319 69.728 -2.50841e-06 69.728)
(71.2073 -29.9429 -0.371577 71.2066 0.00119539 71.2073)
(71.194 -29.9393 -0.371537 71.194 8.40776e-05 71.1941)
(72.6656 -32.6919 -0.409366 72.6664 -0.00133199 72.6656)
(72.6525 -32.6891 -0.409337 72.6525 -4.56986e-06 72.6525)
(74.1112 -35.1404 -0.44247 74.1104 0.00142064 74.1112)
(74.0972 -35.1387 -0.44246 74.0972 3.49442e-05 74.0973)
(75.5365 -36.8423 -0.463723 75.5373 -0.00156294 75.5365)
(75.5227 -36.8425 -0.463739 75.5227 -1.14599e-05 75.5227)
(76.9408 -37.1174 -0.462464 76.9402 0.00157453 76.9407)
(76.9261 -37.1202 -0.462518 76.9261 -5.23363e-05 76.9261)
(78.3248 -35.0863 -0.425462 78.3257 -0.00178635 78.3248)
(78.3102 -35.0925 -0.425567 78.3102 -2.11162e-05 78.3102)
(79.7019 -29.8098 -0.339189 79.7018 0.00174472 79.7019)
(79.6864 -29.8204 -0.339358 79.6864 -6.97782e-05 79.6864)
(81.0916 -20.5199 -0.193452 81.0925 -0.00207591 81.0916)
(81.0759 -20.5357 -0.193696 81.0759 -2.27686e-05 81.0759)
(82.5219 -0.0183177 -0.000122508 82.5221 0.00197469 82.5219)
(82.5053 -2.52917e-31 -7.66676e-16 82.5053 -3.95677e-05 82.5053)
(84.0154 2.18052 -0.0147952 84.0157 -0.0024135 84.0154)
(83.9981 2.13095 -0.0144589 83.9981 -6.82227e-06 83.9981)
(85.5738 31.0792 -0.282729 85.574 0.00228851 85.5738)
(85.5559 31.0449 -0.2823 85.5559 3.84405e-05 85.5559)
(87.1517 52.4593 -0.586753 87.1512 -0.00274214 87.1517)
(87.1329 52.4192 -0.586229 87.1329 2.01054e-05 87.1329)
(88.6642 72.5886 -0.897751 88.6645 0.00265495 88.6642)
(88.6452 72.5435 -0.897141 88.6452 0.000108049 88.6452)
(89.9951 89.2646 -1.18192 89.994 -0.00300116 89.9951)
(89.9754 89.2162 -1.18125 89.9754 3.76537e-05 89.9754)
(91.018 100.77 -1.40779 91.0188 0.00299111 91.018)
(90.999 100.721 -1.40707 90.999 9.35452e-05 90.999)
(91.6344 106.197 -1.55278 91.6331 -0.00314427 91.6344)
(91.615 106.149 -1.55206 91.615 -0.00010505 91.615)
(91.7874 105.544 -1.60705 91.7887 0.00316047 91.7874)
(91.7696 105.502 -1.60637 91.7696 -2.71335e-05 91.7696)
(91.482 99.602 -1.57403 91.4809 -0.00318731 91.482)
(91.4644 99.5704 -1.57346 91.4644 -5.68844e-05 91.4644)
(90.7651 89.6515 -1.45636 90.7667 0.00319796 90.7651)
(90.7496 89.6341 -1.45622 90.7496 -9.77599e-06 90.7496)
(89.7221 77.1264 -0.808411 89.7211 -0.00317026 89.7221)
(89.707 77.1268 -0.808336 89.707 -4.50818e-06 89.707)
(88.4441 63.3435 -0.25402 88.4456 0.00317493 88.4441)
(88.431 63.3642 -0.253996 88.431 3.13763e-07 88.431)
(87.0252 49.3454 0.196871 87.0243 -0.00314419 87.0252)
(87.0124 49.3842 0.196858 87.0124 -0.000219987 87.0124)
(85.5397 35.8593 0.483138 85.5408 0.00127239 85.5397)
(85.5283 35.9088 0.484004 85.5283 -8.228e-20 85.5283)
(84.0491 23.3333 0.290087 84.0482 -0.000147446 84.0491)
(84.0376 23.3864 0.290984 84.0376 0.00029057 84.0376)
(82.5907 12.0099 0.113072 82.5916 7.76727e-05 82.5907)
(82.5802 12.0627 0.113954 82.5802 3.6723e-21 82.5802)
(81.1897 -2.25563e-16 1.12745e-16 81.1889 -9.85464e-05 81.1897)
(81.179 0.0670668 0.000573302 81.179 2.08649e-05 81.179)
(79.8529 -5.30506 0.0460082 79.8529 1.32835e-05 79.8529)
(79.8399 -5.20712 0.0451588 79.8486 9.16835e-05 79.8399)
(78.5807 -13.9709 0.186228 78.58 -6.27777e-05 78.5807)
(78.5707 -13.9266 0.185421 78.5707 1.92981e-05 78.5707)
(77.3617 -19.9931 0.307001 77.3617 1.12932e-05 77.3617)
(77.3505 -19.9527 0.306246 77.3562 6.02725e-05 77.3505)
(76.1836 -24.801 0.408551 76.183 -3.89327e-05 76.1836)
(76.1746 -24.7658 0.407864 76.1746 1.61423e-05 76.1746)
(75.0306 -28.5002 0.278609 75.0306 9.16856e-06 75.0306)
(75.0214 -28.4726 0.27859 75.0246 3.97781e-05 75.0214)
(73.8887 -31.221 0.00057255 73.8882 -2.51761e-05 73.8887)
(73.8811 -31.2043 0.000570626 73.8811 1.25666e-05 73.8811)
(72.7439 -33.1101 -0.303515 72.7439 6.61873e-06 72.7439)
(72.7368 -33.1051 -0.303502 72.7383 2.79803e-05 72.7368)
(71.5857 -34.3121 -0.62707 71.5852 -1.90277e-05 71.5857)
(71.5798 -34.316 -0.627044 71.5798 2.2888e-07 71.5798)
(70.4044 -34.9516 -0.688623 70.4044 4.74535e-06 70.4044)
(70.3993 -34.9616 -0.688862 70.3997 1.94689e-05 70.3993)
(69.1937 -35.1233 -0.697898 69.1934 -2.16567e-05 69.1937)
(69.1894 -35.1367 -0.698187 69.1894 -3.5318e-21 69.1894)
(67.9483 -34.8854 -0.699452 67.9483 -5.62622e-06 67.9483)
(67.9447 -34.9003 -0.699758 67.9449 2.1511e-05 67.9447)
(66.6657 -34.2607 -0.693053 66.6654 -2.66974e-05 66.6657)
(66.6627 -34.2758 -0.693356 66.6627 -7.84443e-07 66.6627)
(65.3444 -33.243 -0.677967 65.3444 -8.55695e-06 65.3444)
(65.3418 -33.2573 -0.678253 65.3422 1.74682e-05 65.3418)
(63.9858 -31.8091 -0.653219 63.9856 -2.74941e-05 63.9858)
(63.9837 -31.8223 -0.653483 63.9837 -6.29533e-06 63.9837)
(62.5928 -29.9332 -0.617882 62.5928 -1.1933e-05 62.5928)
(62.591 -29.9451 -0.618122 62.5913 4.90456e-06 62.591)
(61.1712 -27.6016 -0.571416 61.171 -2.79376e-05 61.1712)
(61.1697 -27.6122 -0.571634 61.1697 -1.29723e-05 61.1697)
(59.7286 -24.8264 -0.51398 59.7286 -1.36886e-05 59.7286)
(59.7273 -24.8359 -0.514177 59.7276 1.15322e-07 59.7273)
(58.2748 -21.6554 -0.446607 58.2746 -2.60512e-05 58.2748)
(58.2737 -21.6639 -0.446786 58.2737 -1.3315e-05 58.2737)
(56.8204 -18.1725 -0.371204 56.8204 -1.23901e-05 56.8204)
(56.8194 -18.1801 -0.371367 56.8197 -2.85893e-07 56.8194)
(55.3767 -14.4939 -0.290484 55.3765 -2.11471e-05 55.3767)
(55.3759 -14.5007 -0.290631 55.3759 -1.03838e-05 55.3759)
(53.9537 -10.7612 -0.207833 53.9537 -8.07746e-06 53.9537)
(53.953 -10.7673 -0.207965 53.9531 2.53787e-06 53.953)
(52.5602 -7.12789 -0.126881 52.5601 -1.44066e-05 52.5602)
(52.5596 -7.1332 -0.126999 52.5596 -5.22666e-06 52.5596)
(51.2023 -3.74261 -0.0512155 51.2023 -5.64887e-07 51.2023)
(51.2016 -3.7472 -0.0513172 51.2018 9.23813e-06 51.2016)
(49.8835 -5.34868e-14 -0 49.8834 -7.96184e-06 49.8835)
(49.8829 -0.004165 -5.03455e-05 49.8829 -3.06849e-09 49.8829)
(48.605 1.29535 -0.0158856 48.605 5.20731e-07 48.605)
(48.6044 1.28839 -0.0158002 48.6046 7.89268e-06 48.6044)
(47.3663 3.74268 -0.0717657 47.3662 -3.52964e-06 47.3663)
(47.3658 3.74028 -0.0716974 47.3658 3.45744e-06 47.3658)
(46.1654 5.10903 -0.114614 46.1654 4.17513e-06 46.1654)
(46.165 5.10738 -0.114563 46.1651 1.08146e-05 46.165)
(45.0003 5.87711 -0.143329 45.0003 -1.64946e-06 45.0003)
(45 5.8762 -0.143297 45 4.5204e-06 45)
(43.8693 6.07196 -0.157601 43.8693 4.29276e-06 43.8693)
(43.869 6.07177 -0.157587 43.8691 9.91379e-06 43.869)
(42.7716 5.74016 -0.157749 42.7715 -1.50992e-06 42.7716)
(42.7713 5.74063 -0.157753 42.7713 3.91809e-06 42.7713)
(41.707 4.94381 -0.144635 41.707 3.27989e-06 41.707)
(41.7068 4.9449 -0.144657 41.7068 8.09539e-06 41.7068)
(40.6764 3.75424 -0.119514 40.6764 -2.04451e-06 40.6764)
(40.6762 3.75584 -0.119551 40.6762 2.68517e-06 40.6762)
(39.6809 2.24803 -0.0838994 39.6809 1.98682e-06 39.6809)
(39.6807 2.25004 -0.0839494 39.6808 6.14504e-06 39.6807)
(38.7217 1.09026e-15 -0.0395295 38.7216 -2.74546e-06 38.7217)
(38.7215 0.00125626 -0.0395897 38.7215 1.35313e-06 38.7215)
(37.7992 -0.824992 -0.0676649 37.7992 5.42498e-07 37.7992)
(37.7991 -0.820284 -0.0675959 37.7991 4.10323e-06 37.7991)
(36.9134 -3.36111 -0.12602 36.9134 -3.87041e-06 36.9134)
(36.9132 -3.35874 -0.125953 36.9132 -2.85109e-07 36.9132)
(36.062 -5.31135 -0.184215 36.062 -1.33599e-06 36.062)
(36.0619 -5.30916 -0.184155 36.062 1.75012e-06 36.0619)
(35.242 -7.15328 -0.239466 35.2419 -5.75019e-06 35.242)
(35.2419 -7.1514 -0.239416 35.2419 -2.57515e-06 35.2419)
(34.4485 -8.79513 -0.288849 34.4485 -3.96161e-06 34.4485)
(34.4484 -8.79365 -0.288811 34.4484 -1.34232e-06 34.4484)
(33.676 -10.1483 -0.329454 33.676 -8.05059e-06 33.676)
(33.6759 -10.1473 -0.329431 33.6759 -5.3051e-06 33.6759)
(32.9186 -11.1325 -0.358547 32.9186 -6.75125e-06 32.9186)
(32.9186 -11.132 -0.358539 32.9186 -4.49417e-06 32.9186)
(32.1709 -11.6821 -0.373816 32.1709 -1.05605e-05 32.1709)
(32.1709 -11.6821 -0.373823 32.1709 -8.16032e-06 32.1709)
(31.4288 -11.7531 -0.373632 31.4288 -9.62103e-06 31.4288)
(31.4288 -11.7536 -0.373652 31.4289 -7.64213e-06 31.4288)
(30.6904 -11.3294 -0.357278 30.6904 -1.33097e-05 30.6904)
(30.6905 -11.3302 -0.357311 30.6905 -1.11921e-05 30.6905)
(29.9561 -10.4263 -0.325075 29.9561 -1.30338e-05 29.9561)
(29.9561 -10.4275 -0.325117 29.9562 -1.13438e-05 29.9561)
(29.2285 -9.09181 -0.27849 29.2285 -1.72524e-05 29.2285)
(29.2287 -9.09316 -0.278538 29.2287 -1.53183e-05 29.2287)
(28.5124 -7.40399 -0.220035 28.5124 -1.82281e-05 28.5124)
(28.5125 -7.40548 -0.220088 28.5125 -1.68844e-05 28.5125)
(27.8131 -5.46504 -0.153102 27.813 -2.37273e-05 27.8131)
(27.8132 -5.4666 -0.153156 27.8132 -2.18732e-05 27.8132)
(27.1357 -3.39263 -0.0816637 27.1357 -2.63193e-05 27.1357)
(27.1359 -3.39417 -0.0817167 27.1359 -2.53377e-05 27.1359)
(26.4846 -0.56184 -0.0098848 26.4845 -3.31971e-05 26.4846)
(26.4847 -0.564691 -0.00993495 26.4847 -3.13851e-05 26.4847)
(25.8621 0.0011893 -2.12284e-05 25.8621 -3.68765e-05 25.8621)
(25.8622 4.57093e-14 -0 25.8622 -3.61258e-05 25.8622)
(25.2682 2.44237 -0.0582689 25.2682 -4.39702e-05 25.2682)
(25.2683 2.4412 -0.0582232 25.2683 -4.22907e-05 25.2683)
(24.7013 3.93315 -0.119284 24.7013 -4.70268e-05 24.7013)
(24.7013 3.93216 -0.119244 24.7014 -4.62305e-05 24.7013)
(24.1582 5.0943 -0.170465 24.1583 -5.17253e-05 24.1582)
(24.1583 5.09352 -0.170432 24.1583 -5.04528e-05 24.1583)
(23.6359 5.90936 -0.210111 23.6359 -5.18353e-05 23.6359)
(23.636 5.90879 -0.210086 23.636 -5.06903e-05 23.636)
(23.131 6.39226 -0.237669 23.131 -5.10234e-05 23.131)
(23.1311 6.39189 -0.237651 23.1311 -5.04667e-05 23.1311)
(22.6413 6.58223 -0.253675 22.6413 -4.59641e-05 22.6413)
(22.6414 6.58203 -0.253664 22.6414 -4.41753e-05 22.6414)
(22.1653 6.53671 -0.259581 22.1653 -3.79883e-05 22.1653)
(22.1654 6.53666 -0.259576 22.1654 -3.7467e-05 22.1654)
(21.7025 6.3238 -0.257513 21.7025 -2.75358e-05 21.7025)
(21.7026 6.32385 -0.257513 21.7026 -2.51471e-05 21.7026)
(21.2531 6.0142 -0.250012 21.2531 -1.35871e-05 21.2531)
(21.2532 6.01431 -0.250016 21.2532 -1.30174e-05 21.2532)
(20.8178 5.67313 -0.23971 20.8178 3.92073e-08 20.8178)
(20.8179 5.67326 -0.239715 20.8179 2.62464e-06 20.8179)
(20.3972 5.35436 -0.229007 20.3972 1.55589e-05 20.3972)
(20.3973 5.35446 -0.229012 20.3973 1.6185e-05 20.3973)
(19.9921 5.09706 -0.219877 19.9921 2.82198e-05 19.9921)
(19.9922 5.09712 -0.21988 19.9922 3.04518e-05 19.9922)
(19.6029 4.9246 -0.21374 19.6029 3.98349e-05 19.6029)
(19.603 4.9246 -0.213741 19.603 4.0528e-05 19.603)
(19.2298 4.84477 -0.2114 19.2298 4.78913e-05 19.2298)
(19.2299 4.84471 -0.211399 19.2298 4.92535e-05 19.2299)
(18.8727 4.85165 -0.21304 18.8726 5.21317e-05 18.8727)
(18.8727 4.85153 -0.213036 18.8727 5.2905e-05 18.8727)
(18.531 4.92871 -0.218294 18.531 5.4159e-05 18.531)
(18.5311 4.92853 -0.218287 18.5311 5.46786e-05 18.5311)
(18.2043 5.05218 -0.226366 18.2043 5.11806e-05 18.2043)
(18.2043 5.05197 -0.226357 18.2043 5.26958e-05 18.2043)
(17.8915 5.1947 -0.236153 17.8915 4.78084e-05 17.8915)
(17.8915 5.19447 -0.236143 17.8915 4.8335e-05 17.8915)
(17.5917 5.32912 -0.246407 17.5917 4.09422e-05 17.5917)
(17.5917 5.32889 -0.246396 17.5917 4.29455e-05 17.5917)
(17.3039 5.43132 -0.255904 17.3039 3.53712e-05 17.3039)
(17.3039 5.43111 -0.255894 17.3039 3.58942e-05 17.3039)
(17.0272 5.48203 -0.263537 17.0272 2.75721e-05 17.0272)
(17.0272 5.48186 -0.263528 17.0272 2.96759e-05 17.0272)
(16.761 5.46859 -0.268422 16.761 2.25021e-05 16.761)
(16.7609 5.46846 -0.268415 16.761 2.01787e-05 16.7609)
(16.5048 5.38553 -0.269988 16.5048 1.57822e-05 16.5048)
(16.5047 5.38545 -0.269983 16.5047 6.90449e-06 16.5047)
(16.2586 5.23402 -0.267992 16.2586 1.26223e-05 16.2586)
(16.2585 5.23401 -0.26799 16.2586 -9.03131e-07 16.2585)
(16.0227 5.02125 -0.262498 16.0227 7.54782e-06 16.0227)
(16.0226 5.02129 -0.262498 16.0226 -9.03351e-07 16.0226)
(15.7977 4.75949 -0.253874 15.7977 4.89196e-06 15.7977)
(15.7976 4.75958 -0.253877 15.7976 -5.58527e-07 15.7976)
(15.5842 4.46454 -0.242751 15.5842 -1.07106e-06 15.5842)
(15.5841 4.46466 -0.242757 15.5841 -8.87082e-07 15.5841)
(15.3833 4.15418 -0.229936 15.3833 -5.3527e-07 15.3833)
(15.3832 4.15433 -0.229943 15.3832 -2.92896e-07 15.3832)
(15.1959 3.84721 -0.216364 15.1959 -2.46231e-06 15.1959)
(15.1957 3.84736 -0.216372 15.1957 -6.52248e-07 15.1957)
(15.0227 3.56242 -0.203054 15.0227 -5.34829e-07 15.0227)
(15.0225 3.56255 -0.203061 15.0225 -1.03432e-07 15.0225)
(14.8646 3.31779 -0.191063 14.8646 -2.7447e-06 14.8646)
(14.8644 3.31789 -0.191069 14.8644 -4.75075e-07 14.8644)
(14.7222 3.13001 -0.181441 14.7222 -5.57366e-07 14.7222)
(14.722 3.13004 -0.181445 14.722 2.96911e-08 14.722)
(14.5959 3.01381 -0.175218 14.5959 -3.12687e-06 14.5959)
(14.5956 3.01377 -0.175218 14.5956 -3.06477e-07 14.5956)
(14.4858 2.98178 -0.173339 14.4858 -7.68528e-07 14.4858)
(14.4854 2.98164 -0.173334 14.4854 1.65226e-07 14.4854)
(14.3919 3.04442 -0.176687 14.3919 -3.33448e-06 14.3919)
(14.3915 3.04416 -0.176676 14.3915 -2.66933e-07 14.3915)
(14.3139 3.20911 -0.18606 14.3139 -5.35499e-07 14.3139)
(14.3134 3.20872 -0.186041 14.3135 3.46686e-07 14.3134)
(14.2512 3.47919 -0.202045 14.2512 -3.30471e-06 14.2512)
(14.2507 3.47863 -0.202016 14.2507 -1.50607e-07 14.2507)
(14.2028 3.85357 -0.225008 14.2028 -5.33551e-07 14.2028)
(14.2023 3.85283 -0.224968 14.2023 4.41038e-07 14.2023)
(14.1675 4.32591 -0.255025 14.1675 -3.1557e-06 14.1675)
(14.1669 4.32495 -0.254972 14.1669 -3.93643e-08 14.1669)
(14.1431 4.88363 -0.291796 14.1431 -5.28923e-07 14.1431)
(14.1424 4.88242 -0.291728 14.1424 5.17419e-07 14.1424)
(14.1273 5.50755 -0.334566 14.1273 -3.04632e-06 14.1273)
(14.1265 5.50603 -0.334479 14.1265 5.08711e-08 14.1265)
(14.1168 6.17189 -0.382089 14.1168 -5.22064e-07 14.1168)
(14.116 6.16997 -0.381977 14.1161 5.63204e-07 14.116)
(14.1081 6.84436 -0.432603 14.1081 -2.97119e-06 14.1081)
(14.1073 6.84189 -0.43246 14.1073 1.05209e-07 14.1073)
(14.0969 7.48725 -0.483803 14.0969 -5.13647e-07 14.0969)
(14.096 7.484 -0.483614 14.096 5.66858e-07 14.096)
(14.0788 8.05913 -0.532954 14.0788 -2.92425e-06 14.0788)
(14.0778 8.05471 -0.532698 14.0778 1.14017e-07 14.0778)
(14.0495 8.51701 -0.57695 14.0495 -6.76497e-07 14.0495)
(14.0485 8.51094 -0.576596 14.0485 5.24411e-07 14.0485)
(14.0053 8.81947 -0.612533 14.0053 -2.90077e-06 14.0053)
(14.0043 8.8113 -0.612038 14.0043 7.73775e-08 14.0043)
(13.9435 8.92943 -0.636482 13.9435 -8.96951e-07 13.9435)
(13.9426 8.91938 -0.635819 13.9426 4.47718e-07 13.9426)
(13.8627 8.81669 -0.399615 13.8627 -2.8943e-06 13.8627)
(13.862 8.80694 -0.39958 13.862 1.3355e-08 13.862)
(13.7637 8.46058 -0.0851519 13.7637 -1.10111e-06 13.7637)
(13.7632 8.45702 -0.0851214 13.7632 3.69822e-07 13.7632)
(13.649 7.85626 0.219642 13.649 -2.9478e-06 13.649)
(13.6487 7.86254 0.219668 13.6487 1.98727e-08 13.6487)
(13.5227 7.01455 0.495288 13.5227 -1.41123e-06 13.5227)
(13.5226 7.02628 0.496233 13.5226 4.55606e-07 13.5226)
(13.3904 5.95607 0.413226 13.3904 -3.0988e-06 13.3904)
(13.3904 5.96753 0.414027 13.3904 1.58799e-07 13.3904)
(13.2585 4.71189 0.315574 13.2585 -1.71328e-06 13.2585)
(13.2585 4.72099 0.316181 13.2585 6.22956e-07 13.2585)
(13.1333 3.32237 0.205217 13.1333 -3.24252e-06 13.1333)
(13.1333 3.32914 0.205673 13.1333 3.56937e-07 13.1333)
(13.0202 1.83563 0.0859195 13.0202 -1.97562e-06 13.0202)
(13.0202 1.84082 0.0862906 13.0202 8.56076e-07 13.0202)
(12.9232 -4.92686e-20 1.83966e-16 12.9232 -3.37836e-06 12.9232)
(12.9232 0.00293148 0.000119146 12.9232 5.93471e-07 12.9232)
(12.8439 -0.937043 0.0386385 12.8439 -2.20346e-06 12.8439)
(12.8438 -0.928556 0.0382886 12.8438 1.11706e-06 12.8438)
(12.7818 -2.67613 0.164889 12.7818 -3.51042e-06 12.7818)
(12.7817 -2.67095 0.164505 12.7817 8.23356e-07 12.7817)
(12.7336 -4.0249 0.287366 12.7336 -2.41216e-06 12.7336)
(12.7335 -4.01808 0.286876 12.7335 1.34799e-06 12.7335)
(12.6947 -5.22024 0.401836 12.6946 -3.65736e-06 12.6946)
(12.6945 -5.21105 0.40116 12.6945 9.85115e-07 12.6945)
(12.659 -6.22787 0.504401 12.659 -2.61165e-06 12.659)
(12.6589 -6.21672 0.503485 12.6589 1.50815e-06 12.6589)
(12.6205 -7.0245 0.407382 12.6205 -3.82619e-06 12.6205)
(12.6205 -7.01497 0.407343 12.6205 1.05e-06 12.6205)
(12.5734 -7.59688 0.0815852 12.5734 -2.80465e-06 12.5734)
(12.5737 -7.59657 0.0815373 12.5737 1.5941e-06 12.5737)
(12.5133 -7.94772 -0.274094 12.5133 -4.09149e-06 12.5133)
(12.5138 -7.95662 -0.274143 12.5138 1.12527e-06 12.5138)
(12.4369 -8.09162 -0.650103 12.4369 -3.19016e-06 12.4369)
(12.4376 -8.102 -0.650153 12.4376 1.82988e-06 12.4376)
(12.3423 -8.04545 -0.750891 12.3423 -4.53663e-06 12.3423)
(12.343 -8.05369 -0.751533 12.343 1.30108e-06 12.343)
(12.2293 -7.83314 -0.734534 12.2293 -3.62229e-06 12.2293)
(12.23 -7.83882 -0.734967 12.23 2.1135e-06 12.23)
(12.0991 -7.4841 -0.705718 12.0991 -5.02771e-06 12.0991)
(12.0997 -7.48789 -0.706013 12.0997 1.49168e-06 12.0997)
(11.9538 -7.02836 -0.666814 11.9538 -4.05785e-06 11.9538)
(11.9544 -7.03094 -0.667024 11.9544 2.45526e-06 11.9544)
(11.7964 -6.49587 -0.620409 11.7964 -5.5442e-06 11.7964)
(11.797 -6.49771 -0.620566 11.797 1.72887e-06 11.797)
(11.6304 -5.91476 -0.568844 11.6304 -4.49605e-06 11.6304)
(11.6309 -5.91613 -0.568966 11.6309 2.86413e-06 11.6309)
(11.4591 -5.3088 -0.514145 11.4591 -6.09525e-06 11.4591)
(11.4596 -5.30987 -0.514242 11.4596 2.01079e-06 11.4596)
(11.2861 -4.698 -0.458151 11.2861 -4.91204e-06 11.2861)
(11.2865 -4.69884 -0.45823 11.2865 3.37032e-06 11.2865)
(11.1144 -4.09812 -0.402239 11.1144 -1.03955e-05 11.1144)
(11.1148 -4.0988 -0.402304 11.1148 2.30898e-06 11.1148)
(10.9469 -3.51961 -0.347304 10.9469 -1.36619e-05 10.9469)
(10.9472 -3.52016 -0.347358 10.9472 3.95375e-06 10.9472)
(10.786 -2.96828 -0.29385 10.786 -1.71242e-05 10.786)
(10.7862 -2.96874 -0.293896 10.7862 2.63993e-06 10.7862)
(10.6336 -2.44556 -0.241885 10.6336 -1.65411e-05 10.6336)
(10.6338 -2.44594 -0.241924 10.6338 4.5994e-06 10.6338)
(10.4914 -1.94854 -0.190966 10.4914 -1.97296e-05 10.4914)
(10.4916 -1.94887 -0.191001 10.4916 2.98114e-06 10.4916)
(10.3607 -1.47049 -0.140206 10.3607 -1.8385e-05 10.3607)
(10.3608 -1.47079 -0.140238 10.3608 2.22268e-06 10.3608)
(10.2424 -1.00147 -0.0883416 10.2424 -2.13945e-05 10.2424)
(10.2425 -1.00174 -0.0883716 10.2425 -6.38388e-06 10.2425)
(10.1373 -0.529178 -0.033808 10.1373 -1.90202e-05 10.1373)
(10.1374 -0.529436 -0.0338379 10.1374 -7.23545e-06 10.1374)
(10.0457 -0.000900669 -5.32802e-05 10.0457 -2.17589e-05 10.0457)
(10.0458 -0.000983386 -5.81734e-05 10.0458 -9.3087e-06 10.0458)
(9.96796 0.420914 -0.0252618 9.96796 -1.83941e-05 9.96796)
(9.96799 0.420389 -0.0252303 9.96801 -5.51759e-06 9.96799)
(9.90379 1.03226 -0.0906416 9.90378 -2.1025e-05 9.90379)
(9.90379 1.03197 -0.0906075 9.9038 -7.43482e-06 9.90379)
(9.85258 1.63299 -0.163277 9.85258 -1.6871e-05 9.85258)
(9.85256 1.63267 -0.163239 9.85258 -2.77494e-06 9.85256)
(9.81323 2.2793 -0.243895 9.81323 -1.99719e-05 9.81323)
(9.81319 2.27893 -0.243852 9.8132 -5.10404e-06 9.81319)
(9.78398 2.9653 -0.332476 9.78398 -1.52803e-05 9.78398)
(9.78392 2.96488 -0.332426 9.78393 1.71877e-07 9.78392)
(9.76233 3.67794 -0.428086 9.76232 -1.9516e-05 9.76233)
(9.76224 3.67746 -0.428028 9.76225 -3.22724e-06 9.76224)
(9.74498 4.39666 -0.528749 9.74498 -1.46457e-05 9.74498)
(9.74486 4.39611 -0.528682 9.74488 2.30071e-06 9.74486)
(9.7279 5.09408 -0.631352 9.72789 -2.05953e-05 9.7279)
(9.72776 5.09344 -0.631273 9.72777 -2.74631e-06 9.72776)
(9.70645 5.73729 -0.731789 9.70645 -1.54741e-05 9.70645)
(9.70628 5.73653 -0.731696 9.7063 3.09517e-06 9.70628)
(9.67569 6.28986 -0.825027 9.67569 -2.34083e-05 9.67569)
(9.6755 6.28896 -0.824916 9.6755 -3.87587e-06 9.6755)
(9.63082 6.71488 -0.905522 9.63082 -1.7549e-05 9.63082)
(9.6306 6.71378 -0.905385 9.63062 2.75062e-06 9.6306)
(9.56764 6.97752 -0.967558 9.56763 -2.73554e-05 9.56764)
(9.5674 6.97611 -0.967386 9.5674 -6.0412e-06 9.5674)
(9.48313 7.0486 -1.00562 9.48313 -2.00785e-05 9.48313)
(9.48285 7.04668 -1.00539 9.48287 2.03352e-06 9.48285)
(9.37588 6.90773 -1.0151 9.37587 -3.12742e-05 9.37588)
(9.3756 6.90498 -1.01478 9.3756 -8.1025e-06 9.3756)
(9.24645 6.54595 -0.992532 9.24645 -2.17853e-05 9.24645)
(9.24616 6.542 -0.992054 9.24618 2.20709e-06 9.24616)
(9.09741 5.96722 -0.696558 9.0974 -3.39888e-05 9.09741)
(9.09715 5.96221 -0.696444 9.09715 -8.88575e-06 9.09715)
(8.9334 5.18841 -0.277276 8.9334 -2.1677e-05 8.9334)
(8.93319 5.18435 -0.277128 8.93321 4.27911e-06 8.93319)
(8.76027 4.24043 0.0839838 8.76026 -3.49093e-05 8.76027)
(8.76015 4.24196 0.0841551 8.76015 -7.71887e-06 8.76015)
(8.58408 3.1691 0.373421 8.58408 -1.93675e-05 8.58408)
(8.58403 3.17597 0.37356 8.58405 8.85269e-06 8.58403)
(8.41035 2.02854 0.229478 8.41035 -3.4655e-05 8.41035)
(8.41034 2.03575 0.230508 8.41034 -5.18041e-06 8.41034)
(8.24349 0.602501 0.0482636 8.24349 -1.55748e-05 8.24349)
(8.24347 0.612756 0.0490851 8.24349 1.48805e-05 8.24347)
(8.08638 -0.00175731 0.000142817 8.08638 -3.41547e-05 8.08638)
(8.08637 -1.20271e-15 6.61013e-31 8.08637 -2.31416e-06 8.08637)
(7.93927 -1.2448 0.127119 7.93927 -1.16863e-05 7.93927)
(7.93924 -1.23959 0.126318 7.93927 2.12674e-05 7.93924)
(7.80078 -2.10369 0.286562 7.80077 -3.47297e-05 7.80078)
(7.80076 -2.09812 0.28564 7.80076 -2.30267e-07 7.80076)
(7.66831 -2.77288 0.325053 7.66831 -9.0867e-06 7.66831)
(7.66832 -2.76886 0.32491 7.66834 2.66707e-05 7.66832)
(7.53889 -3.22665 0.0654519 7.53888 -3.74292e-05 7.53889)
(7.53894 -3.22718 0.0652778 7.53894 4.03416e-08 7.53894)
(7.40995 -3.45707 -0.229977 7.40995 -7.83063e-06 7.40995)
(7.41004 -3.46108 -0.230129 7.41007 3.11943e-05 7.41004)
(7.27978 -3.47179 -0.54257 7.27978 -4.21874e-05 7.27978)
(7.2799 -3.4758 -0.542687 7.2799 -1.24946e-06 7.2799)
(7.1477 -3.29193 -0.5695 7.1477 -7.50129e-06 7.1477)
(7.14781 -3.29486 -0.569925 7.14784 3.50103e-05 7.14781)
(7.01438 -2.9515 -0.502505 7.01438 -4.83117e-05 7.01438)
(7.01449 -2.95346 -0.502792 7.01449 -3.79065e-06 7.01449)
(6.88148 -2.49417 -0.416177 6.88148 -6.99557e-06 6.88148)
(6.88157 -2.4955 -0.41638 6.8816 3.92543e-05 6.88157)
(6.75107 -1.96832 -0.318922 6.75106 -5.52741e-05 6.75107)
(6.75115 -1.96927 -0.319072 6.75115 -6.69241e-06 6.75115)
(6.62518 -1.42112 -0.219061 6.62518 -7.05545e-06 6.62518)
(6.62524 -1.42181 -0.219175 6.62527 4.47904e-05 6.62524)
(6.50545 -0.895562 -0.124406 6.50544 -6.2523e-05 6.50545)
(6.5055 -0.896085 -0.124494 6.5055 -7.1486e-06 6.5055)
(6.39293 -0.424859 -0.0416564 6.39293 -7.32848e-06 6.39293)
(6.39296 -0.425527 -0.0417219 6.393 5.18556e-05 6.39296)
(6.28815 -1.20247e-14 -3.26785e-16 6.28814 -7.06834e-05 6.28815)
(6.28818 -7.39535e-05 -7.35639e-06 6.28818 -7.30246e-06 6.28818)
(6.19117 0.234144 -0.0245559 6.19117 -7.37248e-06 6.19117)
(6.19118 0.233959 -0.0245093 6.19122 6.05087e-05 6.19118)
(6.10185 0.405777 -0.0711624 6.10184 -8.0241e-05 6.10185)
(6.10187 0.405682 -0.0711342 6.10187 -7.42835e-06 6.10187)
(6.01997 0.472173 -0.0964508 6.01997 -7.58457e-06 6.01997)
(6.01998 0.47216 -0.09644 6.02001 7.05606e-05 6.01998)
(5.94537 0.443762 -0.101158 5.94536 -9.17808e-05 5.94537)
(5.94538 0.443821 -0.101163 5.94538 -7.89356e-06 5.94538)
(5.87795 0.335471 -0.0870666 5.87795 -8.34373e-06 5.87795)
(5.87795 0.335588 -0.0870863 5.87799 8.18678e-05 5.87795)
(5.81769 0.137903 -0.0570602 5.81768 -0.000105774 5.81769)
(5.8177 0.138242 -0.0570909 5.8177 -8.73534e-06 5.8177)
(5.76457 -0.00196456 -0.0338352 5.76457 -9.26779e-06 5.76457)
(5.76456 -0.00180188 -0.0337965 5.7646 9.52455e-05 5.76456)
(5.71849 -0.269986 -0.0865351 5.71848 -0.000122375 5.71849)
(5.71849 -0.269816 -0.0864988 5.71849 -9.77845e-06 5.71849)
(5.67925 -0.502191 -0.139823 5.67925 -1.03445e-05 5.67925)
(5.67924 -0.502042 -0.139792 5.67928 0.000111 5.67924)