/*--------------------------------*- C++ -*----------------------------------*\
| =========                 |                                                 |
| \\      /  F ield         | OpenFOAM: The Open Source CFD Toolbox           |
|  \\    /   O peration     | Version:  2012                                  |
|   \\  /    A nd           | Website:  www.openfoam.com                      |
|    \\/     M anipulation  |                                                 |
\*---------------------------------------------------------------------------*/
FoamFile
{
    version     2.0;
    format      ascii;
    class       volVectorField;
    location    "11300";
    object      U;
}
// * * * * * * * * * * * * * * * * * * * * * * * * * * * * * * * * * * * * * //

dimensions      [0 1 -1 0 0 0 0];


internalField   nonuniform List<vector> 
2560
(
(0.0260784 -2.59002e-05 0.000473376)
(0.0260485 -1.24699e-05 5.51514e-08)
(0.0783587 -1.08107e-05 0.000692003)
(0.0782693 1.63339e-05 1.70236e-08)
(0.131198 -2.3902e-05 0.00052812)
(0.13105 2.68085e-05 6.3346e-09)
(0.184598 -3.34495e-05 0.000292732)
(0.184395 3.32371e-05 2.4881e-09)
(0.238566 -3.69986e-05 0.000155789)
(0.238312 3.69134e-05 5.8214e-10)
(0.293106 -3.90355e-05 9.35881e-05)
(0.292805 3.89587e-05 1.63776e-10)
(0.348182 -4.03901e-05 6.34925e-05)
(0.34784 4.03627e-05 1.28563e-10)
(0.403732 -4.14392e-05 4.70138e-05)
(0.403354 4.13273e-05 2.18706e-11)
(0.459687 -4.2141e-05 3.69786e-05)
(0.459278 4.21809e-05 8.53744e-11)
(0.516042 -4.29013e-05 3.03573e-05)
(0.515607 4.27393e-05 5.92823e-12)
(0.572867 -4.33211e-05 2.57186e-05)
(0.572411 4.33989e-05 7.44868e-11)
(0.63018 -4.39542e-05 2.23175e-05)
(0.629707 4.37463e-05 6.55691e-36)
(0.688 -4.42192e-05 1.97337e-05)
(0.687515 4.43237e-05 9.81885e-11)
(0.746384 -4.46818e-05 1.77042e-05)
(0.74589 5.8156e-05 5.10671e-08)
(0.805309 -4.50048e-05 1.61033e-05)
(0.804811 1.78768e-05 2.96214e-21)
(0.864672 -4.52503e-05 1.47686e-05)
(0.864173 9.96221e-05 1.16495e-07)
(0.92432 -4.60359e-05 1.37111e-05)
(0.923823 -3.82516e-05 8.0624e-10)
(0.984097 -4.56235e-05 1.28008e-05)
(0.983604 0.000134084 4.50281e-08)
(1.04399 -4.67683e-05 1.20398e-05)
(1.0435 -5.1674e-05 1.05485e-09)
(1.10419 -4.58424e-05 1.13789e-05)
(1.10371 0.00014867 4.38801e-08)
(1.16501 -4.76155e-05 1.08191e-05)
(1.16454 -6.50792e-05 7.27674e-10)
(1.2266 -4.59798e-05 1.03229e-05)
(1.22614 0.000163075 4.21323e-08)
(1.28898 -4.84415e-05 9.8994e-06)
(1.28853 -7.83939e-05 3.85744e-36)
(1.35209 -4.59265e-05 9.49216e-06)
(1.35166 0.000203953 1.51579e-07)
(1.41589 -4.94332e-05 9.19363e-06)
(1.41547 -0.000145061 1.67893e-21)
(1.48036 -4.5824e-05 8.86987e-06)
(1.47996 0.000273463 1.74534e-07)
(1.54546 -5.06338e-05 8.65032e-06)
(1.54507 -0.000217518 2.22232e-09)
(1.61113 -4.55238e-05 8.4169e-06)
(1.61076 0.00032279 8.40312e-08)
(1.67729 -5.195e-05 8.23031e-06)
(1.67692 -0.000243298 4.31855e-09)
(1.74383 -4.49438e-05 8.04558e-06)
(1.74348 0.000349942 8.66967e-08)
(1.81077 -5.3475e-05 7.90202e-06)
(1.81043 -0.000270065 3.94112e-09)
(1.87825 -4.40728e-05 7.75408e-06)
(1.87792 0.000377529 8.23828e-08)
(1.94667 -5.52881e-05 7.64241e-06)
(1.94635 -0.000296658 1.78492e-09)
(2.01661 -4.28204e-05 7.52296e-06)
(2.0163 0.000404761 7.64622e-08)
(2.08872 -5.74821e-05 7.43666e-06)
(2.08841 -0.000322667 -1.42831e-37)
(2.16357 -4.11461e-05 7.30551e-06)
(2.16327 0.000462474 2.27007e-07)
(2.24157 -6.02169e-05 7.28073e-06)
(2.24127 -0.000411058 4.23447e-37)
(2.3229 -3.89886e-05 7.0531e-06)
(2.3226 0.000651894 7.4231e-07)
(2.40754 -6.35544e-05 7.17963e-06)
(2.40725 -0.000703444 1.27194e-21)
(2.49538 -3.62679e-05 6.9299e-06)
(2.49509 0.000982725 9.72544e-07)
(2.58632 -6.74752e-05 7.13485e-06)
(2.58602 -0.00107674 -5.06758e-37)
(2.68049 -3.29755e-05 6.95428e-06)
(2.68019 0.0013208 8.2118e-07)
(2.7785 -7.19282e-05 7.13973e-06)
(2.7782 -0.00138251 1.23828e-21)
(2.88158 -2.91148e-05 7.07507e-06)
(2.88127 0.00155433 4.47612e-07)
(2.99156 -7.6896e-05 7.18272e-06)
(2.99125 -0.00154384 -1.22924e-21)
(3.11068 -2.4692e-05 7.17503e-06)
(3.11036 0.00168641 2.8524e-07)
(3.24121 -8.24629e-05 7.25608e-06)
(3.24087 -0.00164511 2.03737e-36)
(3.38512 -1.9627e-05 7.24472e-06)
(3.38477 0.00180199 3.64894e-07)
(3.54388 -8.87412e-05 7.36004e-06)
(3.54352 -0.00177376 -1.41388e-37)
(3.71846 -1.38215e-05 6.88998e-06)
(3.71809 0.00226166 2.33902e-06)
(3.90938 -9.53113e-05 7.5159e-06)
(3.90901 -0.00257192 0)
(4.11664 -7.34535e-06 7.3713e-06)
(4.11627 0.00286392 1.24705e-06)
(4.33912 -0.000101821 7.75514e-06)
(4.33876 -0.00297754 4.23669e-08)
(4.57365 -8.83421e-07 7.85823e-06)
(4.57331 0.00316342 8.06834e-07)
(4.81356 -0.000108382 8.20276e-06)
(4.81325 -0.00316744 1.79902e-07)
(5.04729 4.17089e-06 8.44184e-06)
(5.04704 0.00338829 1.48879e-06)
(5.25751 -0.000115589 9.08935e-06)
(5.25734 -0.00342867 4.30133e-07)
(5.42148 6.71904e-06 9.54823e-06)
(5.4214 0.00369645 2.38733e-06)
(5.51301 -0.000122632 1.05815e-05)
(5.51307 -0.00379159 6.87853e-07)
(5.5063 7.60557e-06 1.12459e-05)
(5.5065 0.0040918 2.90612e-06)
(5.38059 -0.00012653 1.24965e-05)
(5.38097 -0.00422737 7.40249e-07)
(5.12487 8.44476e-06 1.31946e-05)
(5.12544 0.00451759 2.46351e-06)
(4.74096 -0.000125299 1.42749e-05)
(4.74175 -0.00464168 4.68592e-07)
(4.24428 8.7188e-06 1.47876e-05)
(4.2453 0.00488137 1.17328e-06)
(3.66172 -0.000120473 1.53855e-05)
(3.66297 -0.00494355 2.73405e-21)
(3.02743 5.96382e-06 1.56081e-05)
(3.02891 0.0051314 5.27521e-08)
(2.37773 -0.000114854 1.54492e-05)
(2.3794 -0.00498015 1.27863e-06)
(1.74632 -5.54164e-07 1.54884e-05)
(1.74816 0.00511457 3.66742e-07)
(1.16091 -0.000109708 1.50902e-05)
(1.16285 -0.00494055 1.99215e-06)
(0.641524 -9.10429e-06 1.50849e-05)
(0.643469 0.00505086 4.64519e-07)
(0.20046 -0.000104871 1.46805e-05)
(0.202303 -0.00488267 2.07095e-06)
(-0.156633 -1.74712e-05 1.47162e-05)
(-0.155018 0.00499449 4.37174e-07)
(-0.429192 -0.000100204 1.00836e-06)
(-0.427896 -0.000205693 4.92514e-06)
(-0.620167 -2.37029e-05 8.48001e-07)
(-0.619227 0.000281789 4.97277e-07)
(-0.734713 -9.49292e-05 7.98223e-07)
(-0.734136 -0.000119589 1.15001e-06)
(-0.779311 -2.88042e-05 6.45852e-07)
(-0.779085 0.000207212 3.69667e-07)
(-0.761218 -9.01973e-05 5.99436e-07)
(-0.761325 -5.39914e-05 8.78279e-07)
(-0.688126 -3.31656e-05 4.64e-07)
(-0.688544 0.000151596 2.71887e-07)
(-0.567891 -8.61319e-05 4.23468e-07)
(-0.568597 -8.25706e-06 6.18566e-07)
(-0.408256 -3.69077e-05 3.05516e-07)
(-0.409221 0.000114253 1.86201e-07)
(-0.216613 -8.26581e-05 2.72801e-07)
(-0.217795 2.06708e-05 3.94691e-07)
(0.000224648 -4.0155e-05 1.73687e-07)
(-0.00111161 9.19597e-05 1.35784e-07)
(0.236236 -7.96132e-05 1.53542e-07)
(0.234838 3.62241e-05 2.14902e-07)
(0.486316 -4.2875e-05 7.61235e-08)
(0.484932 8.11564e-05 1.88867e-07)
(0.746214 -7.69368e-05 6.74272e-08)
(0.744898 4.24506e-05 2.11854e-07)
(1.01238 -4.51625e-05 4.31349e-09)
(1.01117 7.85429e-05 2.31921e-07)
(1.28174 -7.46017e-05 6.66711e-08)
(1.28064 4.19205e-05 2.24879e-07)
(1.55139 -4.71214e-05 9.09682e-08)
(1.55042 7.76716e-05 2.27481e-07)
(1.81839 -7.26116e-05 1.72431e-07)
(1.81755 4.44579e-05 2.37219e-07)
(2.0795 -4.88667e-05 2.26722e-07)
(2.07878 7.53841e-05 2.40686e-07)
(2.33112 -7.09676e-05 3.36183e-07)
(2.3305 4.65805e-05 3.39397e-07)
(2.56927 -5.04729e-05 4.21838e-07)
(2.56875 7.33053e-05 4.19619e-07)
(2.78974 -6.96477e-05 5.52365e-07)
(2.78931 4.83177e-05 5.55405e-07)
(2.98832 -5.19556e-05 6.52759e-07)
(2.98797 7.14058e-05 6.50921e-07)
(3.16117 -6.85475e-05 7.81282e-07)
(3.16089 4.97808e-05 7.84173e-07)
(3.30512 -5.32674e-05 8.68599e-07)
(3.3049 6.97268e-05 8.67116e-07)
(3.41801 -6.75831e-05 9.65715e-07)
(3.41785 5.10598e-05 9.68474e-07)
(3.49896 -5.4308e-05 1.01391e-06)
(3.49885 6.83628e-05 1.01275e-06)
(3.54849 -6.66606e-05 1.06174e-06)
(3.54843 5.22537e-05 1.06437e-06)
(3.56852 -5.50965e-05 1.06156e-06)
(3.5685 6.72894e-05 1.06068e-06)
(3.56228 -6.57483e-05 1.06197e-06)
(3.5623 5.33987e-05 1.06448e-06)
(3.53404 -5.57165e-05 1.02388e-06)
(3.53408 6.64181e-05 1.02325e-06)
(3.48886 -6.48907e-05 9.94492e-07)
(3.48892 5.44547e-05 9.96879e-07)
(3.43228 -5.62375e-05 9.40605e-07)
(3.43235 6.56751e-05 9.40194e-07)
(3.36997 -6.4183e-05 9.03344e-07)
(3.37005 5.53303e-05 9.0562e-07)
(3.30752 -5.67179e-05 8.523e-07)
(3.30759 6.49981e-05 8.52088e-07)
(3.25018 -6.36246e-05 8.2183e-07)
(3.25025 5.60299e-05 8.24016e-07)
(3.20276 -5.718e-05 7.82692e-07)
(3.20281 6.4361e-05 7.82673e-07)
(3.16944 -6.31673e-05 7.64241e-07)
(3.16947 5.66045e-05 7.66371e-07)
(3.15373 -5.7603e-05 7.39199e-07)
(3.15374 6.37813e-05 7.39384e-07)
(3.15838 -6.27591e-05 7.34385e-07)
(3.15836 5.71092e-05 7.36506e-07)
(3.18528 -5.79447e-05 7.26956e-07)
(3.18523 6.32985e-05 7.27374e-07)
(3.23539 -6.24044e-05 7.41035e-07)
(3.23532 5.75418e-05 7.43205e-07)
(3.30865 -5.82146e-05 7.57965e-07)
(3.30855 6.29006e-05 7.58659e-07)
(3.40384 -6.20617e-05 8.01718e-07)
(3.40372 5.79457e-05 8.04004e-07)
(3.51861 -5.85076e-05 8.52528e-07)
(3.51848 6.24907e-05 8.53549e-07)
(3.64944 -6.1794e-05 9.30076e-07)
(3.64931 5.82595e-05 9.32548e-07)
(3.79174 -5.87393e-05 1.01819e-06)
(3.7916 6.21513e-05 1.01959e-06)
(3.94002 -6.15864e-05 1.13298e-06)
(3.93988 5.84997e-05 1.13571e-06)
(4.08816 -5.89258e-05 1.26093e-06)
(4.08803 6.18647e-05 1.26275e-06)
(4.22977 -6.13642e-05 1.41921e-06)
(4.22965 5.8742e-05 1.42222e-06)
(4.35859 -5.90382e-05 1.59927e-06)
(4.35849 6.16583e-05 1.60152e-06)
(4.46894 -6.10902e-05 1.82242e-06)
(4.46886 5.90247e-05 1.82574e-06)
(4.55612 -5.90734e-05 2.08629e-06)
(4.55607 6.15339e-05 2.08896e-06)
(4.61678 -6.0797e-05 2.41507e-06)
(4.61674 5.93161e-05 2.41869e-06)
(4.64912 -5.90843e-05 2.80978e-06)
(4.64911 6.14376e-05 2.81283e-06)
(4.65303 -6.06016e-05 3.28965e-06)
(4.65304 5.95e-05 3.29351e-06)
(4.63002 -5.91721e-05 3.85148e-06)
(4.63004 6.12671e-05 3.85484e-06)
(4.58299 -6.06192e-05 4.49983e-06)
(4.58303 5.94617e-05 4.50388e-06)
(4.51592 -5.94807e-05 5.21446e-06)
(4.51597 6.08778e-05 5.21807e-06)
(4.43344 -6.08694e-05 5.98015e-06)
(4.4335 5.91822e-05 5.98435e-06)
(4.34036 -6.00324e-05 6.7538e-06)
(4.34043 6.02461e-05 6.7576e-06)
(4.24129 -6.13426e-05 7.49648e-06)
(4.24136 5.86716e-05 7.50079e-06)
(4.1402 -6.06567e-05 8.15083e-06)
(4.14027 5.95418e-05 8.15481e-06)
(4.04021 -6.17716e-05 8.67187e-06)
(4.04029 5.81978e-05 8.67629e-06)
(3.94346 -6.11101e-05 9.00625e-06)
(3.94353 5.90074e-05 9.0104e-06)
(3.85101 -6.19043e-05 9.12452e-06)
(3.85107 5.80132e-05 9.12906e-06)
(3.76301 -6.11235e-05 9.00328e-06)
(3.76307 5.8911e-05 9.00759e-06)
(3.67885 -6.15554e-05 8.65064e-06)
(3.67892 5.83036e-05 8.65531e-06)
(3.5974 -6.06624e-05 8.08475e-06)
(3.59746 5.92864e-05 8.08923e-06)
(3.51721 -6.08388e-05 7.35073e-06)
(3.51727 5.89553e-05 7.35553e-06)
(3.4368 -5.99609e-05 6.4963e-06)
(3.43686 5.98992e-05 6.50093e-06)
(3.35484 -6.00546e-05 5.58336e-06)
(3.3549 5.96679e-05 5.58826e-06)
(3.27033 -5.9351e-05 4.66294e-06)
(3.2704 6.0417e-05 4.6677e-06)
(3.18269 -5.94868e-05 3.78827e-06)
(3.18276 6.01576e-05 3.79325e-06)
(3.09182 -5.90351e-05 2.99254e-06)
(3.0919 6.06371e-05 2.99738e-06)
(2.99807 -5.92871e-05 2.30138e-06)
(2.99815 6.02724e-05 2.3064e-06)
(2.90219 -5.90256e-05 1.72284e-06)
(2.90227 6.05466e-05 1.72772e-06)
(2.80523 -5.93531e-05 1.25835e-06)
(2.80532 6.0115e-05 1.26337e-06)
(2.70844 -5.92043e-05 8.96723e-07)
(2.70852 6.02632e-05 1.00252e-06)
(2.6131 -5.95327e-05 6.25668e-07)
(2.61318 5.98373e-05 1.01904e-06)
(2.52047 -5.94134e-05 4.27466e-07)
(2.52055 5.99442e-05 1.03514e-06)
(2.43163 -5.96978e-05 2.87496e-07)
(2.43171 5.95677e-05 1.05169e-06)
(2.34743 -5.95679e-05 2.48358e-07)
(2.3475 5.96741e-05 1.06774e-06)
(2.2684 -5.97903e-05 2.61802e-07)
(2.26847 5.93641e-05 1.08414e-06)
(2.19474 -5.96535e-05 2.67984e-07)
(2.19481 5.94667e-05 1.09994e-06)
(2.12631 -5.98141e-05 2.82639e-07)
(2.12638 5.92223e-05 1.11594e-06)
(2.0626 -5.96793e-05 2.8776e-07)
(2.06266 5.93128e-05 1.13127e-06)
(2.00276 -5.97874e-05 3.03887e-07)
(2.00282 5.91245e-05 1.14665e-06)
(1.94564 -5.96852e-05 3.08506e-07)
(1.9457 5.9172e-05 1.16138e-06)
(1.88982 -5.97546e-05 3.25452e-07)
(1.88988 5.90261e-05 1.17596e-06)
(1.83363 -5.95977e-05 3.37339e-07)
(1.83369 5.91178e-05 1.19003e-06)
(1.77524 -5.97478e-05 3.40712e-07)
(1.7753 5.88955e-05 1.20377e-06)
(1.71268 -5.95551e-05 3.57614e-07)
(1.71276 5.90112e-05 1.21725e-06)
(1.64399 -5.96891e-05 3.6188e-07)
(1.64407 5.88102e-05 1.23035e-06)
(1.56724 -5.95107e-05 3.77828e-07)
(1.56734 5.88989e-05 1.24348e-06)
(1.4807 -5.96303e-05 3.82789e-07)
(1.48082 5.87188e-05 1.25635e-06)
(1.38294 -5.94631e-05 3.97853e-07)
(1.38308 5.87818e-05 1.26963e-06)
(1.27294 -5.95715e-05 4.03339e-07)
(1.27311 5.86211e-05 1.28296e-06)
(1.15022 -5.9412e-05 4.17593e-07)
(1.15043 5.86595e-05 1.29715e-06)
(1.01496 -5.95127e-05 4.2347e-07)
(1.01522 5.85169e-05 1.3119e-06)
(0.868064 -5.93575e-05 4.37e-07)
(0.86838 5.85309e-05 1.32802e-06)
(0.711197 -5.94534e-05 4.43158e-07)
(0.711603 5.84063e-05 1.3453e-06)
(0.546816 -5.92983e-05 4.56045e-07)
(0.547349 5.83958e-05 1.36437e-06)
(0.378109 -5.93934e-05 4.62365e-07)
(0.378811 5.82886e-05 1.38519e-06)
(0.208906 -5.92332e-05 4.74632e-07)
(0.209807 5.82537e-05 1.40798e-06)
(0.0435641 -5.93316e-05 4.80925e-07)
(0.0446265 5.81638e-05 1.43289e-06)
(-0.113209 -5.91682e-05 4.9244e-07)
(-0.11218 5.81093e-05 1.45945e-06)
(-0.256722 -5.92553e-05 5.00406e-07)
(-0.255904 5.80201e-05 1.48607e-06)
(-0.382488 -5.90981e-05 5.13695e-07)
(-0.381911 5.79578e-05 1.51311e-06)
(-0.486402 -5.91786e-05 5.23721e-07)
(-0.486027 5.78696e-05 1.53994e-06)
(-0.564994 -5.90214e-05 5.38246e-07)
(-0.56477 5.77966e-05 1.56646e-06)
(-0.615597 -5.90995e-05 5.49607e-07)
(-0.615486 5.7709e-05 1.59249e-06)
(-0.636565 -5.89376e-05 5.64588e-07)
(-0.636545 5.76258e-05 1.61768e-06)
(-0.627345 -5.90176e-05 5.76463e-07)
(-0.627408 5.75386e-05 1.64251e-06)
(-0.588471 -5.88499e-05 5.91161e-07)
(-0.588624 5.74419e-05 1.6665e-06)
(-0.521566 -5.89328e-05 6.02907e-07)
(-0.521833 5.73585e-05 1.69091e-06)
(-0.429199 -5.87564e-05 6.1686e-07)
(-0.429621 5.72465e-05 1.71505e-06)
(-0.314731 -5.88468e-05 6.28146e-07)
(-0.315361 5.71662e-05 1.74092e-06)
(-0.182098 -5.86574e-05 6.41165e-07)
(-0.182961 5.70383e-05 1.76737e-06)
(-0.0355552 -5.8759e-05 6.51864e-07)
(-0.0365634 5.69606e-05 1.79699e-06)
(0.120475 -5.85623e-05 6.63787e-07)
(0.119598 5.68234e-05 1.82771e-06)
(0.281867 -5.86525e-05 6.77059e-07)
(0.281209 5.67265e-05 1.8594e-06)
(0.444772 -5.84641e-05 6.92498e-07)
(0.444304 5.65965e-05 1.89132e-06)
(0.605692 -5.85459e-05 7.10133e-07)
(0.605357 5.64771e-05 1.92469e-06)
(0.761645 -5.8358e-05 7.29657e-07)
(0.761397 5.63559e-05 1.95782e-06)
(0.910195 -5.84348e-05 7.52062e-07)
(0.910006 5.6211e-05 1.99256e-06)
(1.04944 -5.82463e-05 7.75851e-07)
(1.04929 5.60982e-05 2.02627e-06)
(1.17803 -5.83135e-05 8.03118e-07)
(1.17791 5.59332e-05 2.06162e-06)
(1.2951 -5.8123e-05 8.31053e-07)
(1.295 5.5829e-05 2.09493e-06)
(1.40019 -5.81891e-05 8.63033e-07)
(1.40011 5.5636e-05 2.1299e-06)
(1.4932 -5.79762e-05 8.94769e-07)
(1.49313 5.55601e-05 2.16167e-06)
(1.5743 -5.80517e-05 1.08879e-06)
(1.57425 5.53295e-05 2.19526e-06)
(1.64384 -5.78155e-05 1.32335e-06)
(1.6438 5.52821e-05 2.2244e-06)
(1.70225 -5.78955e-05 1.5844e-06)
(1.70222 5.50197e-05 2.25574e-06)
(1.74997 -5.7637e-05 1.86962e-06)
(1.74994 5.49999e-05 2.28135e-06)
(1.78734 -5.77272e-05 2.17277e-06)
(1.78732 5.4701e-05 2.30979e-06)
(1.81453 -5.74511e-05 2.48865e-06)
(1.81452 5.47047e-05 2.46839e-06)
(1.83151 -5.75464e-05 2.80897e-06)
(1.83151 5.43747e-05 2.78732e-06)
(1.83795 -5.7283e-05 3.12506e-06)
(1.83795 5.43729e-05 3.10311e-06)
(1.83324 -5.73611e-05 3.4322e-06)
(1.83325 5.40343e-05 3.40905e-06)
(1.81656 -5.71362e-05 3.72014e-06)
(1.81657 5.4003e-05 3.69699e-06)
(1.78686 -5.71985e-05 3.98893e-06)
(1.78688 5.36538e-05 3.96485e-06)
(1.74308 -5.70003e-05 4.23396e-06)
(1.7431 5.36074e-05 4.2103e-06)
(1.68417 -5.7061e-05 4.45844e-06)
(1.6842 5.32315e-05 4.43418e-06)
(1.60934 -5.68803e-05 4.66492e-06)
(1.60938 5.31825e-05 4.64165e-06)
(1.51815 -5.69387e-05 4.86201e-06)
(1.51821 5.27774e-05 4.83857e-06)
(1.41073 -5.67505e-05 5.0579e-06)
(1.41079 5.2754e-05 5.03614e-06)
(1.28783 -5.68213e-05 5.26051e-06)
(1.28791 5.23003e-05 5.23903e-06)
(1.15101 -5.65942e-05 5.4812e-06)
(1.15111 5.23372e-05 5.46218e-06)
(1.00258 -5.66909e-05 5.72245e-06)
(1.0027 5.18143e-05 5.70415e-06)
(0.845688 -5.64172e-05 5.99342e-06)
(0.845832 5.19221e-05 5.97835e-06)
(0.684181 -5.65244e-05 6.29189e-06)
(0.684359 5.13365e-05 6.27786e-06)
(0.522522 -5.62278e-05 6.61725e-06)
(0.522749 5.14938e-05 6.60709e-06)
(0.365603 -5.63258e-05 6.96353e-06)
(0.365903 5.08544e-05 6.95449e-06)
(0.218498 -5.6036e-05 7.3202e-06)
(0.218904 5.10332e-05 7.31543e-06)
(0.0862199 -5.61139e-05 7.67957e-06)
(0.0867507 5.03395e-05 7.67565e-06)
(-0.0265702 -5.58315e-05 8.02604e-06)
(-0.0259757 5.05469e-05 8.02636e-06)
(-0.115932 -5.59429e-05 8.34734e-06)
(-0.115478 4.97301e-05 8.34562e-06)
(-0.179059 -5.55804e-05 8.64382e-06)
(-0.178797 5.00186e-05 8.64021e-06)
(-0.214401 -5.58176e-05 8.89231e-06)
(-0.214297 4.90397e-05 8.8875e-06)
(-0.221795 -5.53253e-05 9.11044e-06)
(-0.221817 4.94386e-05 9.10498e-06)
(-0.202558 -5.56907e-05 9.27969e-06)
(-0.202701 4.82915e-05 9.27412e-06)
(-0.159495 -5.5096e-05 9.42394e-06)
(-0.159776 4.87764e-05 9.41917e-06)
(-0.096636 -5.55341e-05 9.54059e-06)
(-0.0970586 4.75112e-05 9.53679e-06)
(-0.018979 -5.48501e-05 9.65108e-06)
(-0.0194633 4.80705e-05 9.64938e-06)
(0.067927 -5.53634e-05 9.75244e-06)
(0.0675321 4.66996e-05 9.7526e-06)
(0.158471 -5.45631e-05 9.86871e-06)
(0.158191 4.73014e-05 9.86412e-06)
(0.247287 -5.51657e-05 9.99071e-06)
(0.247098 4.58515e-05 9.98552e-06)
(0.32965 -5.42356e-05 1.01377e-05)
(0.329522 4.65089e-05 1.01275e-05)
(0.401765 -5.49698e-05 1.029e-05)
(0.401678 4.49328e-05 1.02793e-05)
(0.461023 -5.38583e-05 1.0472e-05)
(0.460964 4.56993e-05 1.04567e-05)
(0.506064 -5.47675e-05 1.06496e-05)
(0.506026 4.39533e-05 1.06343e-05)
(0.536736 -5.34743e-05 1.08486e-05)
(0.536714 4.4833e-05 1.08295e-05)
(0.553995 -5.45697e-05 1.1036e-05)
(0.553985 4.29049e-05 1.10176e-05)
(0.559716 -5.30664e-05 1.12435e-05)
(0.559715 4.39309e-05 1.12224e-05)
(0.556417 -5.43878e-05 1.14322e-05)
(0.556423 4.17792e-05 1.14124e-05)
(0.546974 -5.2646e-05 1.16435e-05)
(0.546983 4.29845e-05 1.16217e-05)
(0.534341 -5.42109e-05 1.18362e-05)
(0.534352 4.05895e-05 1.1816e-05)
(0.521275 -5.22263e-05 1.20564e-05)
(0.521284 4.19826e-05 1.20348e-05)
(0.510192 -5.40282e-05 1.22658e-05)
(0.5102 3.93487e-05 1.22457e-05)
(0.503041 -5.17749e-05 1.25109e-05)
(0.503044 4.09597e-05 1.24894e-05)
(0.501166 -5.38674e-05 1.27411e-05)
(0.501165 3.80317e-05 1.27207e-05)
(0.505338 -5.13016e-05 1.30143e-05)
(0.505332 3.99087e-05 1.29922e-05)
(0.515828 -5.37082e-05 1.32715e-05)
(0.515817 3.66628e-05 1.325e-05)
(0.532477 -5.08024e-05 1.35727e-05)
(0.532463 3.88381e-05 1.35491e-05)
(0.554762 -5.35711e-05 1.38466e-05)
(0.554745 3.52269e-05 1.38229e-05)
(0.581884 -5.02914e-05 1.41632e-05)
(0.581865 3.774e-05 1.4137e-05)
(0.612848 -5.34655e-05 1.44435e-05)
(0.612829 3.37223e-05 1.44165e-05)
(0.646596 -4.97469e-05 1.47706e-05)
(0.646578 3.66442e-05 1.47409e-05)
(0.681975 -5.34129e-05 1.50452e-05)
(0.681957 3.21367e-05 1.50144e-05)
(0.717809 -4.91906e-05 1.5372e-05)
(0.717792 3.55385e-05 1.53383e-05)
(0.752938 -5.33813e-05 1.56391e-05)
(0.752923 3.05124e-05 1.56043e-05)
(0.786183 -4.86625e-05 1.59554e-05)
(0.78617 3.43932e-05 1.59177e-05)
(0.816516 -5.3352e-05 1.62133e-05)
(0.816505 2.88797e-05 1.61745e-05)
(0.84302 -4.81471e-05 1.6514e-05)
(0.843012 3.32351e-05 1.64727e-05)
(0.864921 -5.33826e-05 1.67428e-05)
(0.864915 2.71928e-05 1.67007e-05)
(0.881738 -4.7627e-05 1.70204e-05)
(0.881734 3.20927e-05 1.69761e-05)
(0.893335 -5.3453e-05 1.72128e-05)
(0.893333 2.54833e-05 1.71684e-05)
(0.899881 -4.71343e-05 1.74475e-05)
(0.89988 3.09442e-05 1.74013e-05)
(0.901829 -5.35847e-05 1.75843e-05)
(0.901829 2.37401e-05 1.75386e-05)
(0.899888 -4.66669e-05 1.77673e-05)
(0.899889 2.98005e-05 1.77202e-05)
(0.894969 -5.37708e-05 1.78468e-05)
(0.894971 2.19787e-05 1.78007e-05)
(0.888039 -4.6231e-05 1.79777e-05)
(0.888041 2.86624e-05 1.79303e-05)
(0.879956 -5.40357e-05 1.80013e-05)
(0.879958 2.0182e-05 1.79555e-05)
(0.871432 -4.58166e-05 1.80972e-05)
(0.871434 2.75458e-05 1.80499e-05)
(0.862919 -5.43652e-05 1.80893e-05)
(0.862921 1.83702e-05 1.80439e-05)
(0.854531 -4.54514e-05 1.81725e-05)
(0.854534 2.64278e-05 1.81253e-05)
(0.846173 -5.47357e-05 1.81676e-05)
(0.846176 1.6573e-05 1.81226e-05)
(0.837532 -4.51233e-05 1.82695e-05)
(0.837534 2.53255e-05 1.82222e-05)
(0.828126 -5.51784e-05 1.82841e-05)
(0.828128 1.47654e-05 1.82397e-05)
(0.81754 -4.48118e-05 1.84245e-05)
(0.817543 2.42644e-05 1.83773e-05)
(0.805454 -5.56873e-05 1.84642e-05)
(0.805457 1.29593e-05 1.84206e-05)
(0.791728 -4.45454e-05 1.86281e-05)
(0.791732 2.32203e-05 1.8581e-05)
(0.7765 -5.62537e-05 1.86706e-05)
(0.776504 1.11695e-05 1.86282e-05)
(0.76015 -4.43405e-05 1.88205e-05)
(0.760154 2.21808e-05 1.87739e-05)
(0.743317 -5.68877e-05 1.88193e-05)
(0.743321 9.39135e-06 1.87785e-05)
(0.726794 -4.42128e-05 1.8905e-05)
(0.726798 2.11332e-05 1.88588e-05)
(0.711534 -5.75945e-05 1.88127e-05)
(0.711538 7.62428e-06 1.87737e-05)
(0.698515 -4.41647e-05 1.87934e-05)
(0.698517 2.00782e-05 1.87474e-05)
(0.688552 -5.83988e-05 1.85731e-05)
(0.688553 5.84952e-06 1.85355e-05)
(0.682358 -4.41964e-05 1.84342e-05)
(0.682359 1.90195e-05 1.83874e-05)
(0.680484 -5.92938e-05 1.80896e-05)
(0.680484 4.08197e-06 1.80528e-05)
(0.68318 -4.43098e-05 1.78486e-05)
(0.683178 1.7962e-05 1.77998e-05)
(0.690397 -6.02768e-05 1.74054e-05)
(0.690395 2.33632e-06 1.73684e-05)
(0.701872 -4.45347e-05 1.7092e-05)
(0.701869 1.68866e-05 1.70397e-05)
(0.717127 -6.13364e-05 1.65978e-05)
(0.717123 6.42262e-07 1.65597e-05)
(0.735498 -4.48704e-05 1.62645e-05)
(0.735494 1.581e-05 1.62069e-05)
(0.756201 -6.24874e-05 1.57617e-05)
(0.756197 -9.89884e-07 1.57218e-05)
(0.778395 -4.53487e-05 1.54452e-05)
(0.77839 1.47222e-05 1.53806e-05)
(0.801182 -6.37329e-05 1.49734e-05)
(0.801178 -2.52992e-06 1.49314e-05)
(0.823733 -4.59907e-05 1.47087e-05)
(0.82373 1.36297e-05 1.46357e-05)
(0.845354 -6.50919e-05 1.42933e-05)
(0.845351 -3.95562e-06 1.42495e-05)
(0.865434 -4.68288e-05 1.40993e-05)
(0.865431 1.25337e-05 1.40164e-05)
(0.883558 -6.65839e-05 1.37537e-05)
(0.883556 -5.23709e-06 1.37089e-05)
(0.899615 -4.78843e-05 1.364e-05)
(0.899613 1.14512e-05 1.35456e-05)
(0.913708 -6.82274e-05 1.33563e-05)
(0.913706 -6.33528e-06 1.33118e-05)
(0.926213 -4.91926e-05 1.32952e-05)
(0.926212 1.03903e-05 1.31873e-05)
(0.937801 -7.00505e-05 1.30184e-05)
(0.937799 -7.21246e-06 1.29759e-05)
(0.949432 -5.07984e-05 1.29326e-05)
(0.94943 9.35565e-06 1.28085e-05)
(0.962421 -7.20753e-05 1.37999e-05)
(0.962419 -7.81385e-06 1.25202e-05)
(0.978528 -5.2767e-05 1.23148e-05)
(0.978525 8.33933e-06 1.21699e-05)
(1.00024 -7.4341e-05 1.48824e-05)
(1.00023 -8.0855e-06 1.16553e-05)
(1.03095 -5.51788e-05 1.11202e-05)
(1.03094 7.33516e-06 1.09471e-05)
(1.07571 -5.74344e-05 1.00792e-05)
(1.0757 -8.00982e-06 1.00476e-05)
(1.14264 -3.80572e-05 9.01886e-06)
(1.14263 6.58958e-06 8.87684e-06)
(1.24513 -3.95088e-05 7.4994e-06)
(1.24512 -7.84088e-06 7.47062e-06)
(1.40362 -1.97565e-05 5.9059e-06)
(1.40361 6.12864e-06 5.79936e-06)
(1.64944 -2.03155e-05 3.95932e-06)
(1.64944 -7.6413e-06 3.93693e-06)
(2.1257 -1.34028e-07 1.9088e-06)
(2.1257 5.71072e-06 1.85576e-06)
(0.0260484 -1.24557e-05 -5.5122e-08)
(0.0260783 -2.58995e-05 -0.000471982)
(0.0782691 1.63869e-05 -1.70311e-08)
(0.0783587 -1.08045e-05 -0.000689965)
(0.13105 2.68942e-05 -6.36124e-09)
(0.131198 -2.38966e-05 -0.000526565)
(0.184395 3.33476e-05 -2.49824e-09)
(0.184598 -3.34461e-05 -0.00029187)
(0.238311 3.70365e-05 -5.83701e-10)
(0.238566 -3.69913e-05 -0.00015533)
(0.292804 3.90884e-05 -1.64376e-10)
(0.293105 -3.90321e-05 -9.33125e-05)
(0.347839 4.04971e-05 -1.28854e-10)
(0.348182 -4.03974e-05 -6.33056e-05)
(0.403353 4.14651e-05 -2.1982e-11)
(0.403731 -4.14411e-05 -4.68753e-05)
(0.459276 4.23214e-05 -8.57049e-11)
(0.459686 -4.21715e-05 -3.68697e-05)
(0.515606 4.28817e-05 -5.9226e-12)
(0.516042 -4.28988e-05 -3.02679e-05)
(0.572409 4.35435e-05 -7.47997e-11)
(0.572867 -4.33481e-05 -2.56429e-05)
(0.629705 4.3892e-05 5.40959e-22)
(0.630179 -4.39461e-05 -2.22518e-05)
(0.687513 4.44713e-05 -9.82022e-11)
(0.687999 -4.42589e-05 -1.96756e-05)
(0.745888 5.83047e-05 -5.10683e-08)
(0.746383 -4.47541e-05 -1.7652e-05)
(0.804809 1.80262e-05 -4.79972e-19)
(0.805308 -4.50627e-05 -1.60559e-05)
(0.864171 9.97733e-05 -1.16492e-07)
(0.864671 -4.52702e-05 -1.4725e-05)
(0.923821 -3.80992e-05 -8.06295e-10)
(0.924319 -4.60633e-05 -1.36708e-05)
(0.983602 0.000134237 -4.5031e-08)
(0.984095 -4.5637e-05 -1.27631e-05)
(1.0435 -5.15205e-05 -1.05485e-09)
(1.04398 -4.67909e-05 -1.20044e-05)
(1.10371 0.000148825 -4.38805e-08)
(1.10419 -4.58606e-05 -1.13455e-05)
(1.16453 -6.49242e-05 -7.27591e-10)
(1.165 -4.76405e-05 -1.07873e-05)
(1.22614 0.000163232 -4.21327e-08)
(1.22659 -4.60032e-05 -1.02927e-05)
(1.28853 -7.82372e-05 5.67421e-19)
(1.28898 -4.84693e-05 -9.87041e-06)
(1.35166 0.000204111 -1.51579e-07)
(1.35209 -4.59531e-05 -9.4643e-06)
(1.41547 -0.000144903 -1.67893e-21)
(1.41589 -4.94627e-05 -9.16676e-06)
(1.47995 0.000273623 -1.74534e-07)
(1.48036 -4.58525e-05 -8.84388e-06)
(1.54507 -0.000217358 -2.22234e-09)
(1.54546 -5.06641e-05 -8.62511e-06)
(1.61075 0.000322952 -8.40314e-08)
(1.61113 -4.55534e-05 -8.39239e-06)
(1.67692 -0.000243137 -4.31861e-09)
(1.67728 -5.19806e-05 -8.20643e-06)
(1.74348 0.000350105 -8.66968e-08)
(1.74383 -4.49739e-05 -8.02225e-06)
(1.81042 -0.000269903 -3.94111e-09)
(1.81077 -5.35058e-05 -7.87919e-06)
(1.87792 0.000377694 -8.23834e-08)
(1.87825 -4.41033e-05 -7.7317e-06)
(1.94635 -0.000296495 -1.78481e-09)
(1.94667 -5.5319e-05 -7.62042e-06)
(2.0163 0.000404927 -7.64627e-08)
(2.01661 -4.2851e-05 -7.50133e-06)
(2.08841 -0.000322502 -4.21274e-19)
(2.08872 -5.75131e-05 -7.41535e-06)
(2.16327 0.000462642 -2.27007e-07)
(2.16357 -4.11768e-05 -7.28449e-06)
(2.24127 -0.000410892 0)
(2.24157 -6.02479e-05 -7.25996e-06)
(2.3226 0.000652063 -7.42311e-07)
(2.3229 -3.90195e-05 -7.03255e-06)
(2.40725 -0.000703277 -2.85189e-19)
(2.40754 -6.35855e-05 -7.15928e-06)
(2.49509 0.000982896 -9.72544e-07)
(2.49538 -3.62989e-05 -6.90972e-06)
(2.58602 -0.00107657 -2.50463e-21)
(2.58632 -6.75065e-05 -7.1148e-06)
(2.68019 0.00132098 -8.2118e-07)
(2.68049 -3.30067e-05 -6.93436e-06)
(2.7782 -0.00138234 -3.10855e-18)
(2.7785 -7.19596e-05 -7.11992e-06)
(2.88127 0.00155451 -4.47612e-07)
(2.88158 -2.91462e-05 -7.05533e-06)
(2.99125 -0.00154367 0)
(2.99156 -7.69276e-05 -7.16305e-06)
(3.11036 0.00168659 -2.85241e-07)
(3.11068 -2.47236e-05 -7.1554e-06)
(3.24087 -0.00164494 1.22476e-21)
(3.24121 -8.24947e-05 -7.23648e-06)
(3.38477 0.00180217 -3.64895e-07)
(3.38512 -1.96588e-05 -7.22513e-06)
(3.54352 -0.00177359 -4.89851e-21)
(3.54388 -8.87732e-05 -7.34044e-06)
(3.71809 0.00226184 -2.33902e-06)
(3.71846 -1.38536e-05 -6.87035e-06)
(3.90901 -0.00257175 -3.68627e-21)
(3.90938 -9.53436e-05 -7.49623e-06)
(4.11627 0.0028641 -1.24704e-06)
(4.11664 -7.37767e-06 -7.35158e-06)
(4.33876 -0.00297737 -4.23669e-08)
(4.33912 -0.000101854 -7.73534e-06)
(4.57331 0.0031636 -8.06835e-07)
(4.57365 -9.16028e-07 -7.83834e-06)
(4.81325 -0.00316726 -1.79902e-07)
(4.81356 -0.000108415 -8.18276e-06)
(5.04704 0.00338847 -1.48879e-06)
(5.04729 4.13798e-06 -8.42171e-06)
(5.25734 -0.00342849 -4.30134e-07)
(5.25751 -0.000115622 -9.06907e-06)
(5.42141 0.00369664 -2.38733e-06)
(5.42148 6.68581e-06 -9.52781e-06)
(5.51307 -0.00379141 -6.87853e-07)
(5.51302 -0.000122666 -1.05609e-05)
(5.50651 0.00409198 -2.90612e-06)
(5.5063 7.57199e-06 -1.12251e-05)
(5.38098 -0.00422719 -7.40249e-07)
(5.3806 -0.000126564 -1.24755e-05)
(5.12545 0.00451778 -2.46352e-06)
(5.12487 8.41082e-06 -1.31735e-05)
(4.74176 -0.00464149 -4.68592e-07)
(4.74096 -0.000125334 -1.42535e-05)
(4.2453 0.00488157 -1.17328e-06)
(4.24428 8.68448e-06 -1.4766e-05)
(3.66298 -0.00494336 -2.99114e-18)
(3.66173 -0.000120507 -1.53636e-05)
(3.02891 0.00513159 -5.2752e-08)
(3.02744 5.92908e-06 -1.55859e-05)
(2.37941 -0.00497996 -1.27863e-06)
(2.37773 -0.00011489 -1.54265e-05)
(1.74817 0.00511477 -3.66742e-07)
(1.74633 -5.89347e-07 -1.54653e-05)
(1.16286 -0.00494036 -1.99215e-06)
(1.16092 -0.000109743 -1.50665e-05)
(0.643477 0.00505106 -4.64519e-07)
(0.641527 -9.13996e-06 -1.50606e-05)
(0.20231 -0.00488248 -2.07095e-06)
(0.200463 -0.000104907 -1.46556e-05)
(-0.155012 0.00499469 -4.37174e-07)
(-0.156631 -1.75074e-05 -1.46906e-05)
(-0.427891 -0.000205491 -4.95145e-06)
(-0.42919 -0.000100241 -1.00836e-06)
(-0.619223 0.000281988 -4.97277e-07)
(-0.620165 -2.37396e-05 -8.48001e-07)
(-0.734133 -0.000119383 -1.15001e-06)
(-0.734711 -9.49663e-05 -7.98223e-07)
(-0.779083 0.000207414 -3.69667e-07)
(-0.77931 -2.88416e-05 -6.45852e-07)
(-0.761324 -5.37825e-05 -8.78279e-07)
(-0.761217 -9.0235e-05 -5.99436e-07)
(-0.688545 0.000151801 -2.71887e-07)
(-0.688125 -3.32036e-05 -4.64e-07)
(-0.568599 -8.04445e-06 -6.18566e-07)
(-0.567891 -8.61702e-05 -4.23468e-07)
(-0.409223 0.000114462 -1.86201e-07)
(-0.408256 -3.69465e-05 -3.05516e-07)
(-0.217798 2.08874e-05 -3.94691e-07)
(-0.216613 -8.26971e-05 -2.72802e-07)
(-0.00111527 9.21722e-05 -1.14039e-07)
(0.000223935 -4.01945e-05 -1.73686e-07)
(0.234834 3.64451e-05 -2.14903e-07)
(0.236235 -7.9653e-05 -1.53542e-07)
(0.484927 8.13732e-05 -5.87357e-08)
(0.486314 -4.29153e-05 -7.61234e-08)
(0.744893 4.26762e-05 -8.52338e-08)
(0.746212 -7.69775e-05 -6.74272e-08)
(1.01116 7.87644e-05 -5.4076e-08)
(1.01238 -4.52037e-05 -4.3134e-09)
(1.28064 4.21512e-05 -7.03821e-08)
(1.28173 -7.46433e-05 -6.66711e-08)
(1.55042 7.78985e-05 -8.79179e-08)
(1.55139 -4.71636e-05 -9.0968e-08)
(1.81754 4.46936e-05 -1.75846e-07)
(1.81838 -7.26542e-05 -1.72431e-07)
(2.07877 7.56171e-05 -2.24103e-07)
(2.0795 -4.89099e-05 -2.26722e-07)
(2.3305 4.68216e-05 -3.39395e-07)
(2.33112 -7.10113e-05 -3.36183e-07)
(2.56875 7.3545e-05 -4.19621e-07)
(2.56927 -5.05172e-05 -4.21838e-07)
(2.7893 4.85648e-05 -5.55403e-07)
(2.78974 -6.96926e-05 -5.52365e-07)
(2.98796 7.16527e-05 -6.50924e-07)
(2.98832 -5.20011e-05 -6.52759e-07)
(3.16089 5.00346e-05 -7.84171e-07)
(3.16117 -6.85938e-05 -7.81281e-07)
(3.3049 6.99815e-05 -8.67119e-07)
(3.30512 -5.33143e-05 -8.68599e-07)
(3.41785 5.1321e-05 -9.68472e-07)