/*--------------------------------*- C++ -*----------------------------------*\
| =========                 |                                                 |
| \\      /  F ield         | OpenFOAM: The Open Source CFD Toolbox           |
|  \\    /   O peration     | Version:  2012                                  |
|   \\  /    A nd           | Website:  www.openfoam.com                      |
|    \\/     M anipulation  |                                                 |
\*---------------------------------------------------------------------------*/
FoamFile
{
    version     2.0;
    format      ascii;
    class       volScalarField;
    location    "11300";
    object      k;
}
// * * * * * * * * * * * * * * * * * * * * * * * * * * * * * * * * * * * * * //

dimensions      [0 2 -2 0 0 0 0];


internalField   nonuniform List<scalar> 
2560
(
0.00107368
0.00107368
0.0219393
0.0219393
0.156434
0.156434
0.560425
0.560425
1.33255
1.33255
2.35836
2.35836
3.43349
3.43349
4.45664
4.45664
5.40875
5.40875
6.29665
6.29665
7.13119
7.13119
7.92187
7.92187
8.6761
8.6761
9.39954
9.39954
10.0964
10.0964
10.77
10.77
11.4227
11.4227
12.0563
12.0563
12.6721
12.6721
13.2712
13.2712
13.8541
13.8541
14.4213
14.4213
14.9728
14.9728
15.5087
15.5087
16.0287
16.0287
16.5325
16.5325
17.0195
17.0195
17.489
17.489
17.9404
17.9404
18.3728
18.3728
18.7852
18.7852
19.1767
19.1767
19.5461
19.5461
19.8924
19.8924
20.2145
20.2145
20.5111
20.5111
20.7811
20.7811
21.0235
21.0235
21.2372
21.2372
21.4212
21.4212
21.5746
21.5746
21.6965
21.6965
21.7865
21.7865
21.8441
21.8441
21.8689
21.8689
21.8609
21.8609
21.8202
21.8202
21.7474
21.7474
21.6431
21.6431
21.5083
21.5083
21.3443
21.3443
21.1527
21.1527
20.9354
20.9354
20.6946
20.6946
20.4329
20.4329
20.153
20.153
19.8581
19.8581
19.5513
19.5513
19.2363
19.2363
18.9168
18.9168
18.5963
18.5963
18.2789
18.2789
17.9683
17.9683
17.6681
17.6681
17.3821
17.3821
17.1133
17.1133
16.865
16.865
16.6396
16.6396
16.4393
16.4393
16.2658
16.2658
16.1201
16.1201
16.0028
16.0028
15.9138
15.9138
15.8525
15.8525
15.8176
15.8176
15.8074
15.8074
15.8199
15.8199
15.8526
15.8526
15.9027
15.9027
15.9671
15.9671
16.043
16.043
16.1271
16.1271
16.2164
16.2164
16.3079
16.3079
16.3989
16.3989
16.4867
16.4867
16.5691
16.5691
16.6438
16.6438
16.7092
16.7092
16.7635
16.7635
16.8056
16.8056
16.8345
16.8345
16.8494
16.8494
16.8497
16.8497
16.8352
16.8352
16.8057
16.8057
16.7612
16.7612
16.7021
16.7021
16.6285
16.6285
16.5409
16.5409
16.4398
16.4398
16.3258
16.3258
16.1995
16.1995
16.0616
16.0616
15.9128
15.9128
15.7537
15.7537
15.5852
15.5852
15.4078
15.4078
15.2224
15.2224
15.0296
15.0296
14.8301
14.8301
14.6245
14.6245
14.4136
14.4136
14.1978
14.1978
13.9778
13.9778
13.7542
13.7542
13.5274
13.5274
13.298
13.298
13.0665
13.0665
12.8332
12.8332
12.5987
12.5987
12.3632
12.3632
12.1272
12.1272
11.891
11.891
11.655
11.655
11.4193
11.4193
11.1842
11.1842
10.9501
10.9501
10.7171
10.7171
10.4855
10.4855
10.2554
10.2554
10.027
10.027
9.80049
9.80049
9.576
9.576
9.35367
9.35367
9.13363
9.13363
8.916
8.916
8.70088
8.70088
8.48836
8.48836
8.27855
8.27855
8.0715
8.0715
7.86731
7.86731
7.66602
7.66602
7.46771
7.46771
7.27243
7.27243
7.08023
7.08023
6.89115
6.89115
6.70523
6.70523
6.52253
6.52253
6.34307
6.34307
6.1669
6.1669
5.99404
5.99404
5.82453
5.82453
5.6584
5.6584
5.49567
5.49567
5.33639
5.33639
5.18056
5.18056
5.02822
5.02822
4.87938
4.87938
4.73405
4.73405
4.59224
4.59224
4.45395
4.45395
4.31917
4.31917
4.18788
4.18788
4.06004
4.06004
3.93561
3.93561
3.81454
3.81454
3.69677
3.69677
3.58222
3.58222
3.47083
3.47083
3.36252
3.36252
3.25721
3.25721
3.15483
3.15483
3.05532
3.05532
2.95862
2.95862
2.86466
2.86466
2.77341
2.77341
2.68482
2.68482
2.59884
2.59884
2.51545
2.51545
2.43459
2.43459
2.35624
2.35624
2.28035
2.28035
2.20688
2.20688
2.13579
2.13579
2.06702
2.06702
2.00052
2.00052
1.93625
1.93625
1.87416
1.87416
1.81419
1.81419
1.7563
1.7563
1.70046
1.70046
1.64661
1.64661
1.59475
1.59475
1.54483
1.54483
1.49682
1.49682
1.45072
1.45072
1.40649
1.40649
1.36411
1.36411
1.32356
1.32356
1.28482
1.28482
1.24786
1.24786
1.21266
1.21266
1.17916
1.17916
1.14734
1.14734
1.11714
1.11714
1.08851
1.08851
1.06139
1.06139
1.03572
1.03572
1.01144
1.01144
0.988485
0.988485
0.966807
0.966807
0.946349
0.946349
0.927051
0.927051
0.90885
0.90885
0.891677
0.891677
0.875455
0.875455
0.8601
0.8601
0.845519
0.845519
0.831614
0.831614
0.818278
0.818278
0.805412
0.805412
0.792927
0.792927
0.780754
0.780754
0.76885
0.76885
0.757194
0.757194
0.745776
0.745776
0.734591
0.734591
0.723621
0.723621
0.712831
0.712831
0.702171
0.702171
0.691584
0.691584
0.681024
0.681024
0.670454
0.670454
0.659857
0.659857
0.649226
0.649226
0.638568
0.638568
0.627908
0.627908
0.61729
0.61729
0.606776
0.606776
0.596437
0.596437
0.586333
0.586333
0.576504
0.576504
0.566956
0.566956
0.557662
0.557662
0.548557
0.548557
0.539544
0.539544
0.530492
0.530492
0.52125
0.52125
0.511681
0.511681
0.501704
0.501704
0.491327
0.491327
0.480641
0.480641
0.4698
0.4698
0.45899
0.45899
0.448388
0.448388
0.438118
0.438118
0.428233
0.428233
0.418734
0.418734
0.409598
0.409598
0.400822
0.400822
0.392453
0.392453
0.38457
0.38457
0.377253
0.377253
0.370561
0.370561
0.364511
0.364511
0.35909
0.35909
0.354269
0.354269
0.350024
0.350024
0.346342
0.346342
0.343225
0.343225
0.340688
0.340688
0.338754
0.338754
0.337432
0.337432
0.336709
0.336709
0.336529
0.336529
0.336798
0.336798
0.337382
0.337382
0.338112
0.338112
0.338808
0.338807
0.339309
0.339309
0.339469
0.339469
0.339112
0.339112
0.338006
0.338006
0.335909
0.335909
0.332659
0.332659
0.32824
0.32824
0.322769
0.322769
0.316454
0.316454
0.309602
0.309602
0.302621
0.30262
0.295884
0.295884
0.289609
0.289609
0.283806
0.283806
0.278461
0.278461
0.273591
0.273591
0.2692
0.2692
0.265265
0.265265
0.261776
0.261776
0.258754
0.258754
0.256224
0.256224
0.254172
0.254172
0.252535
0.252535
0.251233
0.251233
0.250144
0.250144
0.249041
0.249041
0.247604
0.247604
0.24555
0.24555
0.242781
0.242781
0.239443
0.239444
0.235818
0.235818
0.232147
0.232147
0.228575
0.228575
0.22522
0.225221
0.222218
0.222219
0.219667
0.219668
0.217604
0.217605
0.216021
0.216022
0.214908
0.214909
0.214311
0.214312
0.00107368
0.00107368
0.0219393
0.0219393
0.156434
0.156434
0.560425
0.560425
1.33255
1.33255
2.35836
2.35836
3.43349
3.43349
4.45664
4.45664
5.40875
5.40875
6.29665
6.29665
7.13119
7.13119
7.92187
7.92187
8.6761
8.6761
9.39954
9.39954
10.0964
10.0964
10.77
10.77
11.4227
11.4227
12.0563
12.0563
12.6721
12.6721
13.2712
13.2712
13.8541
13.8541
14.4213
14.4213
14.9728
14.9728
15.5087
15.5087
16.0287
16.0287
16.5325
16.5325
17.0195
17.0195
17.489
17.489
17.9404
17.9404
18.3728
18.3728
18.7852
18.7852
19.1767
19.1767
19.5461
19.5461
19.8924
19.8924
20.2145
20.2145
20.5111
20.5111
20.7811
20.7811
21.0235
21.0235
21.2372
21.2372
21.4212
21.4212
21.5746
21.5746
21.6966
21.6966
21.7865
21.7865
21.8441
21.8441
21.8689
21.8689
21.8609
21.8609
21.8202
21.8202
21.7474
21.7474
21.6431
21.6431
21.5083
21.5083
21.3443
21.3443
21.1527
21.1527
20.9354
20.9354
20.6946
20.6946
20.4329
20.4329
20.153
20.153
19.8581
19.8581
19.5513
19.5513
19.2364
19.2364
18.9168
18.9168
18.5963
18.5963
18.2789
18.2789
17.9683
17.9683
17.6681
17.6681
17.3821
17.3821
17.1133
17.1133
16.865
16.865
16.6396
16.6396
16.4393
16.4393
16.2658
16.2658
16.1201
16.1201
16.0028
16.0028
15.9138
15.9138
15.8525
15.8525
15.8176
15.8176
15.8074
15.8074
15.8199
15.8199
15.8526
15.8526
15.9027
15.9027
15.9671
15.9671
16.043
16.043
16.1271
16.1271
16.2164
16.2164
16.3079
16.3079
16.3989
16.3989
16.4867
16.4867
16.5691
16.5691
16.6438
16.6438
16.7091
16.7091
16.7635
16.7635
16.8056
16.8056
16.8345
16.8345
16.8493
16.8493
16.8497
16.8497
16.8351
16.8351
16.8056
16.8056
16.7612
16.7612
16.7021
16.7021
16.6285
16.6285
16.5409
16.5409
16.4398
16.4398
16.3258
16.3258
16.1995
16.1995
16.0616
16.0616
15.9128
15.9128
15.7537
15.7537
15.5852
15.5852
15.4078
15.4078
15.2224
15.2224
15.0296
15.0296
14.8301
14.8301
14.6245
14.6245
14.4136
14.4136
14.1978
14.1978
13.9778
13.9778
13.7542
13.7542
13.5274
13.5274
13.298
13.298
13.0665
13.0665
12.8332
12.8332
12.5987
12.5987
12.3632
12.3632
12.1272
12.1272
11.891
11.891
11.655
11.655
11.4193
11.4193
11.1842
11.1842
10.9501
10.9501
10.7171
10.7171
10.4855
10.4855
10.2554
10.2554
10.027
10.027
9.80049
9.80049
9.576
9.576
9.35367
9.35367
9.13363
9.13363
8.916
8.916
8.70088
8.70088
8.48836
8.48836
8.27854
8.27854
8.0715
8.0715
7.8673
7.8673
7.66602
7.66602
7.46771
7.46771
7.27243
7.27243
7.08022
7.08022
6.89114
6.89114
6.70523
6.70523
6.52253
6.52253
6.34307
6.34307
6.16689
6.16689
5.99403
5.99404
5.82452
5.82452
5.65839
5.65839
5.49567
5.49567
5.33639
5.33639
5.18056
5.18056
5.02822
5.02822
4.87938
4.87938
4.73405
4.73405
4.59224
4.59224
4.45395
4.45395
4.31917
4.31917
4.18788
4.18788
4.06004
4.06004
3.93561
3.93561
3.81454
3.81454
3.69677
3.69677
3.58222
3.58222
3.47083
3.47083
3.36252
3.36252
3.25721
3.25721
3.15483
3.15483
3.05532
3.05532
2.95861
2.95861
2.86466
2.86466
2.77341
2.77341
2.68481
2.68481
2.59884
2.59884
2.51544
2.51544
2.43459
2.43459
2.35624
2.35624
2.28035
2.28035
2.20688
2.20688
2.13579
2.13579
2.06702
2.06702
2.00052
2.00052
1.93625
1.93625
1.87416
1.87416
1.81419
1.81419
1.7563
1.7563
1.70045
1.70045
1.64661
1.64661
1.59474
1.59474
1.54482
1.54482
1.49682
1.49682
1.45071
1.45071
1.40648
1.40648
1.3641
1.3641
1.32356
1.32356
1.28482
1.28482
1.24786
1.24786
1.21265
1.21265
1.17916
1.17916
1.14734
1.14734
1.11714
1.11714
1.08851
1.08851
1.06139
1.06139
1.03571
1.03571
1.01143
1.01143
0.988477
0.988477
0.966799
0.966799
0.94634
0.94634
0.927041
0.927041
0.90884
0.90884
0.891667
0.891667
0.875444
0.875445
0.860089
0.860089
0.845508
0.845508
0.831602
0.831602
0.818267
0.818267
0.805401
0.805401
0.792915
0.792915
0.780742
0.780742
0.768838
0.768839
0.757182
0.757182
0.745764
0.745764
0.734579
0.734579
0.72361
0.72361
0.71282
0.71282
0.70216
0.70216
0.691574
0.691574
0.681014
0.681014
0.670445
0.670445
0.659848
0.659848
0.649217
0.649217
0.63856
0.63856
0.6279
0.6279
0.617282
0.617283
0.606769
0.606769
0.59643
0.59643
0.586326
0.586326
0.576497
0.576497
0.56695
0.56695
0.557656
0.557656
0.548552
0.548552
0.539539
0.539539
0.530489
0.530489
0.521248
0.521248
0.51168
0.51168
0.501704
0.501704
0.491328
0.491328
0.480643
0.480644
0.469803
0.469804
0.458994
0.458995
0.448393
0.448393
0.438123
0.438123
0.428239
0.428239
0.41874
0.41874
0.409603
0.409603
0.400827
0.400828
0.392458
0.392458
0.384574
0.384574
0.377256
0.377256
0.370562
0.370563
0.364512
0.364512
0.359089
0.35909
0.354267
0.354267
0.350021
0.350021
0.346338
0.346339
0.34322
0.34322
0.340682
0.340682
0.338745
0.338745
0.33742
0.33742
0.336695
0.336695
0.336511
0.336511
0.336778
0.336777
0.33736
0.33736
0.338089
0.338088
0.338783
0.338783
0.339285
0.339285
0.339448
0.339447
0.339094
0.339093
0.337992
0.337991
0.3359
0.335899
0.332657
0.332656
0.328244
0.328243
0.322778
0.322777
0.316465
0.316465
0.309614
0.309615
0.302631
0.302633
0.295892
0.295893
0.289615
0.289616
0.283809
0.28381
0.278463
0.278464
0.273592
0.273593
0.2692
0.2692
0.265263
0.265263
0.261772
0.261773
0.258748
0.258748
0.256214
0.256214
0.254159
0.254158
0.252518
0.252518
0.251213
0.251213
0.250122
0.250122
0.24902
0.24902
0.247586
0.247586
0.245537
0.245538
0.242775
0.242776
0.239444
0.239445
0.235823
0.235824
0.232154
0.232155
0.228583
0.228584
0.225228
0.225229
0.222224
0.222225
0.219672
0.219672
0.217608
0.217608
0.216024
0.216024
0.214909
0.214909
0.214313
0.214312
0.214306
0.214307
0.214892
0.214893
0.215995
0.215996
0.21756
0.217561
0.219603
0.219604
0.222134
0.222135
0.225112
0.225113
0.228443
0.228443
0.231981
0.231981
0.235591
0.235591
0.23915
0.23915
0.242434
0.242434
0.245164
0.245164
0.247199
0.247199
0.248653
0.248653
0.249802
0.249802
0.250944
0.250944
0.252295
0.252295
0.253977
0.253977
0.256072
0.256072
0.25865
0.25865
0.261718
0.261718
0.265251
0.265251
0.26923
0.26923
0.273666
0.273666
0.27858
0.27858
0.283969
0.283969
0.289816
0.289816
0.296134
0.296134
0.302913
0.302913
0.30994
0.30994
0.316832
0.316832
0.323166
0.323166
0.328629
0.328629
0.333011
0.333011
0.3362
0.3362
0.338243
0.338243
0.339312
0.339312
0.339648
0.339648
0.339476
0.339476
0.338965
0.338965
0.338262
0.338262
0.337524
0.337524
0.336928
0.336928
0.336648
0.336648
0.336819
0.336819
0.337531
0.337531
0.338846
0.338846
0.340773
0.340773
0.343301
0.343301
0.346408
0.346408
0.350077
0.350077
0.354311
0.354311
0.359121
0.359121
0.36453
0.36453
0.370565
0.370565
0.377244
0.377244
0.384546
0.384546
0.392417
0.392417
0.400779
0.400779
0.40955
0.40955
0.418678
0.418678
0.428163
0.428163
0.438029
0.438029
0.448276
0.448276
0.45885
0.45885
0.46964
0.46964
0.480471
0.480471
0.491146
0.491146
0.501503
0.501503
0.511451
0.511451
0.521
0.521
0.530236
0.530237
0.539295
0.539295
0.548329
0.548329
0.557469
0.557469
0.566804
0.566804
0.576387
0.576387
0.586239
0.586239
0.596348
0.596348
0.606681
0.606681
0.617182
0.617182
0.627786
0.627786
0.638434
0.638434
0.649083
0.649083
0.659703
0.659703
0.670296
0.670296
0.68087
0.68087
0.691434
0.691434
0.702025
0.702025
0.7127
0.7127
0.723512
0.723512
0.734509
0.734509
0.745731
0.745731
0.757189
0.757189
0.768875
0.768875
0.780798
0.780798
0.792987
0.792987
0.805482
0.805482
0.818355
0.818355
0.8317
0.8317
0.845618
0.845618
0.860207
0.860207
0.875567
0.875567
0.891786
0.891786
0.908947
0.908947
0.927133
0.927133
0.946417
0.946417
0.96686
0.96686
0.988524
0.988524
1.01147
1.01147
1.03575
1.03575
1.06142
1.06142
1.08855
1.08855
1.11718
1.11718
1.14738
1.14738
1.17921
1.17921
1.21271
1.21271
1.24793
1.24793
1.28489
1.28489
1.32364
1.32364
1.36419
1.36419
1.40657
1.40657
1.4508
1.4508
1.49691
1.49691
1.54492
1.54492
1.59484
1.59484
1.64671
1.64671
1.70056
1.70056
1.75641
1.75641
1.8143
1.8143
1.87428
1.87428
1.93637
1.93637
2.00064
2.00064
2.06713
2.06713
2.1359
2.1359
2.207
2.207
2.28047
2.28047
2.35636
2.35636
2.43471
2.43471
2.51557
2.51557
2.59897
2.59897
2.68494
2.68494
2.77354
2.77354
2.8648
2.8648
2.95877
2.95877
3.05548
3.05548
3.15499
3.15499
3.25737
3.25737
3.36269
3.36269
3.47101
3.47101
3.58241
3.58241
3.69697
3.69697
3.81476
3.81476
3.93584
3.93584
4.06028
4.06028
4.18812
4.18812
4.31943
4.31943
4.45421
4.45421
4.59251
4.59251
4.73432
4.73432
4.87965
4.87965
5.0285
5.0285
5.18085
5.18085
5.33668
5.33668
5.49598
5.49598
5.65871
5.65871
5.82485
5.82485
5.99437
5.99437
6.16724
6.16724
6.34343
6.34343
6.5229
6.5229
6.70562
6.70562
6.89155
6.89155
7.08065
7.08065
7.27288
7.27288
7.46819
7.46819
7.66653
7.66653
7.86786
7.86786
8.07209
8.07209
8.27918
8.27918
8.48905
8.48905
8.70162
8.70162
8.9168
8.9168
9.13448
9.13448
9.35455
9.35455
9.57691
9.57691
9.80143
9.80143
10.028
10.028
10.2564
10.2564
10.4866
10.4866
10.7183
10.7183
10.9513
10.9513
11.1855
11.1855
11.4205
11.4205
11.6562
11.6562
11.8924
11.8924
12.1285
12.1285
12.3645
12.3645
12.6
12.6
12.8345
12.8345
13.0677
13.0677
13.2992
13.2992
13.5285
13.5285
13.7552
13.7552
13.9787
13.9787
14.1986
14.1986
14.4143
14.4143
14.6253
14.6253
14.8308
14.8308
15.0304
15.0304
15.2232
15.2232
15.4087
15.4087
15.586
15.586
15.7546
15.7546
15.9137
15.9137
16.0625
16.0625
16.2004
16.2004
16.3267
16.3267
16.4407
16.4407
16.5418
16.5418
16.6295
16.6295
16.7033
16.7033
16.7625
16.7625
16.8071
16.8071
16.8366
16.8366
16.8511
16.8511
16.8506
16.8506
16.8354
16.8354
16.806
16.806
16.7634
16.7634
16.7086
16.7086
16.6431
16.6431
16.5683
16.5683
16.4858
16.4858
16.3978
16.3978
16.3066
16.3066
16.2148
16.2148
16.1251
16.1251
16.0407
16.0407
15.9646
15.9646
15.8998
15.8998
15.8496
15.8496
15.8167
15.8167
15.8041
15.8041
15.8141
15.8141
15.8489
15.8489
15.9101
15.9101
15.999
15.999
16.1161
16.1161
16.2616
16.2616
16.435
16.435
16.6352
16.6352
16.8605
16.8605
17.1087
17.1087
17.3774
17.3774
17.6634
17.6634
17.9635
17.9635
18.274
18.274
18.5913
18.5913
18.9116
18.9116
19.2312
19.2312
19.5462
19.5462
19.8531
19.8531
20.1482
20.1482
20.4283
20.4283
20.6903
20.6903
20.9314
20.9314
21.1492
21.1492
21.3411
21.3411
21.5053
21.5053
21.6403
21.6403
21.7451
21.7451
21.8183
21.8183
21.8593
21.8593
21.8676
21.8676
21.8432
21.8432
21.786
21.786
21.6962
21.6962
21.5745
21.5745
21.4214
21.4214
21.2376
21.2376
21.024
21.024
20.7817
20.7817
20.5117
20.5117
20.2151
20.2151
19.8931
19.8931
19.5468
19.5468
19.1774
19.1774
18.7858
18.7858
18.3734
18.3734
17.941
17.941
17.4897
17.4897
17.0202
17.0202
16.5333
16.5333
16.0296
16.0296
15.5096
15.5096
14.9736
14.9736
14.4221
14.422
13.8548
13.8548
13.2718
13.2718
12.6727
12.6727
12.0568
12.0568
11.4232
11.4232
10.7705
10.7705
10.0969
10.0969
9.39995
9.39995
8.67649
8.67649
7.92222
7.92222
7.13151
7.13151
6.29694
6.29694
5.409
5.409
4.45686
4.45686
3.43367
3.43367
2.3585
2.3585
1.33264
1.33264
0.560463
0.560463
0.156445
0.156445
0.0219407
0.0219407
0.00107376
0.00107376
0.214307
0.214307
0.214894
0.214894
0.215998
0.215998
0.217563
0.217563
0.219608
0.219608
0.222141
0.222141
0.22512
0.22512
0.228451
0.228452
0.231988
0.231989
0.235595
0.235597
0.23915
0.239151
0.242428
0.242429
0.245151
0.245152
0.247181
0.247181
0.248632
0.248632
0.249781
0.249781
0.250924
0.250924
0.252278
0.252278
0.253964
0.253964
0.256063
0.256063
0.258644
0.258644
0.261715
0.261715
0.265249
0.26525
0.26923
0.26923
0.273667
0.273668
0.278582
0.278583
0.283973
0.283974
0.289822
0.289823
0.296143
0.296144
0.302924
0.302925
0.309953
0.309954
0.316844
0.316844
0.323175
0.323175
0.328632
0.328631
0.333008
0.333007
0.336192
0.336191
0.338229
0.338228
0.339294
0.339293
0.339626
0.339625
0.339453
0.339452
0.338941
0.338941
0.338238
0.338238
0.337501
0.337501
0.336908
0.336908
0.336631
0.336631
0.336804
0.336804
0.33752
0.33752
0.338837
0.338837
0.340766
0.340766
0.343296
0.343296
0.346404
0.346404
0.350075
0.350075
0.35431
0.35431
0.359121
0.359121
0.36453
0.36453
0.370567
0.370567
0.377247
0.377247
0.38455
0.38455
0.392421
0.392422
0.400784
0.400784
0.409555
0.409556
0.418684
0.418684
0.428169
0.428169
0.438034
0.438035
0.44828
0.448281
0.458855
0.458855
0.469643
0.469644
0.480473
0.480474
0.491148
0.491148
0.501503
0.501503
0.51145
0.51145
0.520998
0.520998
0.530233
0.530233
0.539291
0.539291
0.548324
0.548324
0.557463
0.557463
0.566798
0.566798
0.576381
0.576381
0.586232
0.586232
0.596341
0.596341
0.606674
0.606674
0.617174
0.617175
0.627778
0.627778
0.638426
0.638426
0.649074
0.649074
0.659694
0.659694
0.670287
0.670287
0.68086
0.68086
0.691423
0.691424
0.702014
0.702014
0.712689
0.712689
0.723501
0.723501
0.734498
0.734498
0.74572
0.74572
0.757177
0.757177
0.768863
0.768864
0.780787
0.780787
0.792975
0.792975
0.805471
0.805471
0.818343
0.818343
0.831688
0.831689
0.845607
0.845607
0.860196
0.860196
0.875556
0.875556
0.891775
0.891776
0.908937
0.908937
0.927123
0.927124
0.946408
0.946408
0.966851
0.966852
0.988516
0.988516
1.01146
1.01146
1.03574
1.03574
1.06142
1.06142
1.08854
1.08854
1.11718
1.11718
1.14738
1.14738
1.17921
1.17921
1.21271
1.21271
1.24792
1.24793
1.28489
1.28489
1.32363
1.32363
1.36418
1.36418
1.40656
1.40656
1.4508
1.4508
1.49691
1.49691
1.54492
1.54492
1.59484
1.59484
1.64671
1.64671
1.70055
1.70055
1.75641
1.75641
1.8143
1.8143
1.87427
1.87427
1.93637
1.93637
2.00064
2.00064
2.06713
2.06713
2.1359
2.1359
2.20699
2.20699
2.28046
2.28046
2.35635
2.35635
2.43471
2.43471
2.51557
2.51557
2.59896
2.59896
2.68494
2.68494
2.77354
2.77354
2.8648
2.8648
2.95877
2.95877
3.05548
3.05548
3.15499
3.15499
3.25737
3.25737
3.36269
3.36269
3.47101
3.47101
3.58241
3.58241
3.69697
3.69697
3.81476
3.81476
3.93584
3.93584
4.06027
4.06027
4.18812
4.18812
4.31942
4.31942
4.45421
4.45421
4.5925
4.5925
4.73432
4.73432
4.87965
4.87965
5.0285
5.0285
5.18085
5.18085
5.33668
5.33668
5.49598
5.49598
5.65871
5.65871
5.82485
5.82485
5.99437
5.99437
6.16724
6.16724
6.34343
6.34343
6.5229
6.5229
6.70562
6.70562
6.89155
6.89155
7.08065
7.08065
7.27287
7.27287
7.46819
7.46819
7.66653
7.66653
7.86785
7.86785
8.07209
8.07209
8.27918
8.27918
8.48905
8.48905
8.70162
8.70162
8.9168
8.9168
9.13448
9.13448
9.35455
9.35455
9.57691
9.57691
9.80143
9.80143
10.028
10.028
10.2564
10.2564
10.4865
10.4866
10.7183
10.7183
10.9513
10.9513
11.1855
11.1855
11.4205
11.4205
11.6562
11.6562
11.8923
11.8923
12.1285
12.1285
12.3645
12.3645
12.6
12.6
12.8345
12.8345
13.0677
13.0677
13.2992
13.2992
13.5285
13.5285
13.7552
13.7552
13.9787
13.9787
14.1986
14.1986
14.4143
14.4143
14.6253
14.6253
14.8308
14.8308
15.0304
15.0304
15.2232
15.2232
15.4086
15.4086
15.586
15.586
15.7546
15.7546
15.9137
15.9137
16.0625
16.0625
16.2004
16.2004
16.3267
16.3267
16.4407
16.4407
16.5418
16.5418
16.6295
16.6295
16.7032
16.7032
16.7625
16.7625
16.807
16.807
16.8366
16.8366
16.8511
16.8511
16.8506
16.8506
16.8354
16.8354
16.806
16.806
16.7633
16.7633
16.7086
16.7086
16.6431
16.6431
16.5683
16.5683
16.4858
16.4858
16.3978
16.3978
16.3066
16.3066
16.2148
16.2148
16.1251
16.1251
16.0407
16.0407
15.9646
15.9646
15.8998
15.8998
15.8496
15.8496
15.8167
15.8167
15.8041
15.8041
15.8141
15.8141
15.8489
15.8489
15.9101
15.9101
15.999
15.999
16.1161
16.1161
16.2616
16.2616
16.435
16.435
16.6352
16.6352
16.8605
16.8605
17.1087
17.1087
17.3774
17.3774
17.6634
17.6634
17.9635
17.9635
18.2741
18.2741
18.5913
18.5913
18.9116
18.9116
19.2312
19.2312
19.5462
19.5462
19.8531
19.8531
20.1482
20.1482
20.4283
20.4283
20.6903
20.6903
20.9315
20.9315
21.1492
21.1492
21.3411
21.3411
21.5053
21.5053
21.6403
21.6403
21.7451
21.7451
21.8183
21.8183
21.8593
21.8593
21.8676
21.8676
21.8432
21.8432
21.786
21.786
21.6962
21.6962
21.5745
21.5745
21.4214
21.4214
21.2376
21.2376
21.024
21.024
20.7817
20.7817
20.5117
20.5117
20.2151
20.2151
19.8931
19.8931
19.5468
19.5468
19.1774
19.1774
18.7858
18.7858
18.3734
18.3734
17.941
17.941
17.4897
17.4897
17.0202
17.0202
16.5333
16.5333
16.0296
16.0296
15.5096
15.5096
14.9736
14.9736
14.422
14.422
13.8548
13.8548
13.2718
13.2718
12.6727
12.6727
12.0568
12.0568
11.4232
11.4232
10.7705
10.7705
10.0969
10.0969
9.39995
9.39995
8.67648
8.67648
7.92221
7.92221
7.13151
7.13151
6.29693
6.29693
5.409
5.409
4.45685
4.45685
3.43367
3.43367
2.35849
2.35849
1.33264
1.33264
0.560463
0.560463
0.156445
0.156445
0.0219407
0.0219407
0.00107376
0.00107376
)
;

boundaryField
{
    walls
    {
        type            kqRWallFunction;
        value           nonuniform List<scalar> 8(0.00107368 0.00107368 0.00107368 0.00107368 0.00107376 0.00107376 0.00107376 0.00107376);
    }
    inlet
    {
        type            cyclic;
    }
    outlet
    {
        type            cyclic;
    }
    sides
    {
        type            empty;
    }
}


// ************************************************************************* //
