/*--------------------------------*- C++ -*----------------------------------*\
| =========                 |                                                 |
| \\      /  F ield         | OpenFOAM: The Open Source CFD Toolbox           |
|  \\    /   O peration     | Version:  2012                                  |
|   \\  /    A nd           | Website:  www.openfoam.com                      |
|    \\/     M anipulation  |                                                 |
\*---------------------------------------------------------------------------*/
FoamFile
{
    version     2.0;
    format      ascii;
    class       volScalarField;
    location    "2000";
    object      nut;
}
// * * * * * * * * * * * * * * * * * * * * * * * * * * * * * * * * * * * * * //

dimensions      [0 2 -1 0 0 0 0];


internalField   nonuniform List<scalar> 
80
(
1.87836e-07
1.87836e-07
3.58967e-06
3.58967e-06
0.000127753
0.000127753
0.000634991
0.000634991
0.00194539
0.00194539
0.00489822
0.00489822
0.0103165
0.0103165
0.0184486
0.0184486
0.0275722
0.0275722
0.024668
0.024668
1.87836e-07
1.87836e-07
3.58967e-06
3.58967e-06
0.000127753
0.000127753
0.000634991
0.000634991
0.00194539
0.00194539
0.00489822
0.00489822
0.0103165
0.0103165
0.0184486
0.0184486
0.0275722
0.0275722
0.024668
0.024668
0.024668
0.024668
0.0275722
0.0275722
0.0184486
0.0184486
0.0103165
0.0103165
0.00489822
0.00489822
0.00194539
0.00194539
0.000634991
0.000634991
0.000127753
0.000127753
3.58967e-06
3.58967e-06
1.87836e-07
1.87836e-07
0.024668
0.024668
0.0275722
0.0275722
0.0184486
0.0184486
0.0103165
0.0103165
0.00489822
0.00489822
0.00194539
0.00194539
0.000634991
0.000634991
0.000127753
0.000127753
3.58967e-06
3.58967e-06
1.87836e-07
1.87836e-07
)
;

boundaryField
{
    walls
    {
        type            nutUWallFunction;
        blending        stepwise;
        Cmu             0.09;
        kappa           0.41;
        E               9.8;
        value           uniform 0;
    }
    inlet
    {
        type            cyclic;
    }
    outlet
    {
        type            cyclic;
    }
    sides
    {
        type            empty;
    }
}


// ************************************************************************* //
