/*--------------------------------*- C++ -*----------------------------------*\
| =========                 |                                                 |
| \\      /  F ield         | OpenFOAM: The Open Source CFD Toolbox           |
|  \\    /   O peration     | Version:  2012                                  |
|   \\  /    A nd           | Website:  www.openfoam.com                      |
|    \\/     M anipulation  |                                                 |
\*---------------------------------------------------------------------------*/
FoamFile
{
    version     2.0;
    format      ascii;
    class       surfaceScalarField;
    location    "2000";
    object      phi;
}
// * * * * * * * * * * * * * * * * * * * * * * * * * * * * * * * * * * * * * //

dimensions      [0 3 -1 0 0 0 0];
oriented        oriented;


internalField   nonuniform List<scalar> 
156
(
1.94427e-05
-2.46227e-18
-8.78951e-20
-3.04651e-19
3.00721e-20
0.000117301
-2.07259e-18
-7.26141e-20
-7.10633e-19
6.08488e-20
0.000351243
-1.69258e-18
-9.10156e-20
-1.06725e-18
1.41083e-20
0.000735933
-1.3254e-18
-9.31917e-20
-1.12767e-18
-3.75958e-20
0.00136592
-1.09519e-18
-6.59539e-20
-1.10868e-18
-1.22819e-19
0.00242291
-1.09025e-18
-1.40158e-19
-1.15898e-18
-1.87685e-19
0.00421161
-1.14794e-18
-2.48279e-19
-1.24115e-18
-2.74929e-19
0.0072477
-3.37885e-19
-5.3788e-19
-3.039e-19
6.00959e-19
0.0123994
4.1708e-19
5.54399e-19
4.24267e-19
8.7862e-19
0.0211285
2.00022e-18
1.27262e-18
5.67578e-19
1.28825e-18
1.94427e-05
-4.906e-20
-7.33533e-21
0.000117301
-5.68656e-20
-1.36264e-20
0.000351243
-9.19794e-20
-5.98676e-21
0.000735933
-5.18296e-20
-1.25152e-19
0.00136592
-2.89158e-19
-1.41554e-19
0.00242291
-3.69771e-19
-3.63479e-19
0.00421161
-6.84476e-19
-5.43132e-19
0.0072477
-8.54648e-20
-1.16271e-19
0.0123994
4.43799e-19
3.81925e-19
0.0211285
1.25048e-18
1.27417e-18
0.0211285
6.66919e-19
-1.53678e-18
6.6791e-19
-3.32413e-19
0.0123994
2.44842e-19
-4.26842e-19
1.4547e-19
-3.28168e-19
0.0072477
-9.48817e-20
-2.68195e-19
3.87775e-20
4.408e-19
0.00421161
1.22756e-19
-9.428e-21
1.03379e-19
2.07661e-20
0.00242291
1.33425e-19
-6.06021e-20
1.82115e-19
6.13711e-20
0.00136592
2.01574e-20
-2.38061e-20
1.0311e-19
2.25347e-20
0.000735933
-4.34167e-21
5.23425e-21
7.60354e-20
1.83244e-20
0.000351243
2.364e-22
6.07622e-21
2.19257e-20
1.13491e-20
0.000117301
4.74555e-21
5.00939e-21
3.22666e-21
8.98402e-21
1.94427e-05
1.95592e-21
2.04512e-21
0.0211285
7.56226e-19
7.30465e-19
0.0123994
3.56232e-19
3.19063e-19
0.0072477
-4.01701e-20
-4.46156e-20
0.00421161
-3.34611e-20
-2.38717e-20
0.00242291
3.47716e-20
-3.20033e-22
0.00136592
2.76403e-20
-5.19401e-21
0.000735933
-2.90844e-20
-2.56128e-20
0.000351243
-1.14601e-20
-3.05847e-22
0.000117301
-7.27056e-21
-2.40734e-21
1.94427e-05
)
;

boundaryField
{
    walls
    {
        type            calculated;
        value           uniform 0;
    }
    inlet
    {
        type            cyclic;
        value           nonuniform List<scalar> 
40
(
-1.94427e-05
-0.000117301
-0.000351243
-0.000735933
-0.00136592
-0.00242291
-0.00421161
-0.0072477
-0.0123994
-0.0211285
-1.94427e-05
-0.000117301
-0.000351243
-0.000735933
-0.00136592
-0.00242291
-0.00421161
-0.0072477
-0.0123994
-0.0211285
-0.0211285
-0.0123994
-0.0072477
-0.00421161
-0.00242291
-0.00136592
-0.000735933
-0.000351243
-0.000117301
-1.94427e-05
-0.0211285
-0.0123994
-0.0072477
-0.00421161
-0.00242291
-0.00136592
-0.000735933
-0.000351243
-0.000117301
-1.94427e-05
)
;
    }
    outlet
    {
        type            cyclic;
        value           nonuniform List<scalar> 
40
(
1.94427e-05
0.000117301
0.000351243
0.000735933
0.00136592
0.00242291
0.00421161
0.0072477
0.0123994
0.0211285
1.94427e-05
0.000117301
0.000351243
0.000735933
0.00136592
0.00242291
0.00421161
0.0072477
0.0123994
0.0211285
0.0211285
0.0123994
0.0072477
0.00421161
0.00242291
0.00136592
0.000735933
0.000351243
0.000117301
1.94427e-05
0.0211285
0.0123994
0.0072477
0.00421161
0.00242291
0.00136592
0.000735933
0.000351243
0.000117301
1.94427e-05
)
;
    }
    sides
    {
        type            empty;
        value           nonuniform List<scalar> 0();
    }
}


// ************************************************************************* //
