/*--------------------------------*- C++ -*----------------------------------*\
| =========                 |                                                 |
| \\      /  F ield         | OpenFOAM: The Open Source CFD Toolbox           |
|  \\    /   O peration     | Version:  2012                                  |
|   \\  /    A nd           | Website:  www.openfoam.com                      |
|    \\/     M anipulation  |                                                 |
\*---------------------------------------------------------------------------*/
FoamFile
{
    version     2.0;
    format      ascii;
    class       volTensorField;
    location    "8000";
    object      grad(U);
}
// * * * * * * * * * * * * * * * * * * * * * * * * * * * * * * * * * * * * * //

dimensions      [0 0 -1 0 0 0 0];


internalField   nonuniform List<tensor> 
2560
(
(-1.82862e-17 -5.59475e-25 0 94.3631 0 6.13733e-13 0.1366 -7.74452e-41 1.5426e-16)
(0 -2.70646e-28 0 94.3631 -5.1895e-41 5.15876e-13 0.1366 -9.45376e-45 1.75221e-16)
(0 1.53683e-30 3.54409e-26 94.3525 -4.24666e-12 6.53621e-14 0.411758 -3.76531e-15 1.91978e-16)
(0 -5.12277e-31 0 94.3525 3.05175e-15 3.17999e-13 0.411758 4.96201e-18 -3.27951e-16)
(1.24836e-16 -2.5405e-25 -1.04973e-31 94.3404 8.07849e-28 3.40706e-14 0.56629 -3.15544e-30 2.14284e-16)
(-1.42127e-16 1.21184e-29 0 94.3404 6.73557e-15 2.38117e-14 0.56629 2.25893e-17 -3.37389e-16)
(5.54564e-17 -3.98158e-30 1.09893e-31 94.3255 1.98858e-12 3.54632e-14 0.574423 -1.98031e-14 2.14564e-16)
(0 3.98158e-30 0 94.3255 6.02148e-15 2.41489e-14 0.574423 3.66213e-17 -3.47019e-16)
(2.76163e-16 -1.56981e-29 4.90565e-31 94.3046 -3.55096e-14 3.52036e-14 0.58262 -5.85682e-16 2.17353e-16)
(0 1.17736e-29 -4.90565e-31 94.3046 6.05059e-15 2.44393e-14 0.58262 3.7618e-17 -3.56836e-16)
(4.05672e-16 -1.43243e-29 6.02279e-31 94.2706 -7.13451e-14 3.52748e-14 0.590823 -3.00289e-16 2.21742e-16)
(7.95525e-16 1.1638e-29 -4.83534e-31 94.2706 6.1635e-15 2.46354e-14 0.590823 3.91097e-17 -3.66807e-16)
(-1.73338e-16 -1.05667e-30 -1.23341e-31 94.2109 -3.19986e-14 3.5376e-14 0.598927 -1.0236e-16 2.25008e-16)
(6.93353e-16 7.64956e-30 0 94.2109 6.44322e-15 2.4665e-14 0.598927 4.2278e-17 -3.76887e-16)
(-2.1381e-16 6.51697e-30 -1.2841e-31 94.1045 -1.57887e-14 3.51649e-14 0.606758 -9.9901e-17 2.25514e-16)
(8.55242e-16 3.2952e-32 0 94.1045 6.75246e-15 2.44365e-14 0.606758 4.4246e-17 -3.87014e-16)
(2.54899e-16 -1.01679e-29 5.97104e-31 93.9206 -1.62738e-14 3.44317e-14 0.614064 -1.11709e-16 2.22e-16)
(0 7.40863e-30 -4.63039e-31 93.9206 6.81805e-15 2.38294e-14 0.614064 4.43752e-17 -3.97005e-16)
(0 3.65122e-30 -4.56403e-31 93.6167 -1.7244e-14 3.29965e-14 0.620496 -1.15714e-16 2.13056e-16)
(-5.13864e-16 0 -4.56403e-31 93.6167 6.91442e-15 2.26967e-14 0.620496 4.68221e-17 -4.06626e-16)
(-3.3896e-16 -4.4347e-30 -1.47533e-31 93.1393 -1.76302e-14 3.06799e-14 0.625618 -1.20186e-16 1.97285e-16)
(0 7.19778e-30 0 93.1393 7.0627e-15 2.09083e-14 0.625618 4.76734e-17 -4.15665e-16)
(3.81912e-16 -2.75966e-29 1.48565e-30 92.4265 -1.78738e-14 2.73447e-14 0.628927 -1.22435e-16 1.73698e-16)
(0 2.12839e-29 -1.33024e-30 92.4265 6.72538e-15 1.83688e-14 0.628927 4.35819e-17 -4.23695e-16)
(4.92084e-16 -1.39859e-29 4.37058e-31 91.4143 -1.83088e-14 2.29458e-14 0.629904 -1.2974e-16 1.4205e-16)
(0 1.39859e-29 -4.37058e-31 91.4143 6.6366e-15 1.50392e-14 0.629904 4.78384e-17 -4.30341e-16)
(-9.5441e-16 9.66261e-30 -6.03532e-31 90.0449 -1.87691e-14 1.75705e-14 0.62808 -1.32498e-16 1.03143e-16)
(1.87751e-15 -3.35078e-30 0 90.0449 7.00155e-15 1.09928e-14 0.62808 4.99942e-17 -4.35216e-16)
(0 1.69848e-29 -8.4924e-31 88.2771 -1.90228e-14 1.14522e-14 0.623117 -1.37163e-16 5.88602e-17)
(0 -1.69848e-29 8.4924e-31 88.2771 7.32163e-15 6.40566e-15 0.623117 5.38095e-17 -4.37981e-16)
(-5.5803e-16 -5.73943e-31 -1.89622e-31 86.0952 -1.94874e-14 3.33414e-15 0.614875 -1.4311e-16 1.19862e-17)
(2.23212e-15 3.46507e-30 0 86.0952 7.62682e-15 1.55441e-15 0.614875 5.58793e-17 -4.38365e-16)
(0 1.32011e-29 3.99446e-42 83.5139 -1.96971e-14 -5.26663e-29 0.603438 -1.44263e-16 0)
(-2.40913e-15 -1.33333e-29 8.25071e-31 83.5139 7.42655e-15 -3.23189e-15 0.603438 5.24427e-17 -4.36289e-16)
(0 9.75894e-30 -1.62649e-30 80.578 -2.00242e-14 -7.49297e-15 0.589116 -1.52177e-16 3.42898e-17)
(-2.58457e-15 -9.90046e-30 1.62649e-30 80.578 7.49234e-15 -7.64697e-15 0.589116 5.84971e-17 -4.31772e-16)
(9.02509e-16 -3.20636e-30 8.01589e-31 77.3563 -1.97237e-14 -1.26703e-14 0.572384 -1.43944e-16 7.69234e-17)
(0 3.20636e-30 0 77.3563 6.94157e-15 -1.14369e-14 0.572384 4.56481e-17 -4.25023e-16)
(7.31636e-16 9.85304e-30 1.72364e-31 73.9316 -1.84114e-14 -1.68233e-14 0.553819 -1.36498e-16 1.13605e-16)
(-2.92654e-15 -1.59761e-29 0 73.9316 5.97234e-15 -1.44687e-14 0.553819 4.53374e-17 -4.16285e-16)
(0 1.24604e-29 -7.78776e-31 70.3908 -1.83535e-14 -1.98745e-14 0.534024 -1.47258e-16 1.42906e-16)
(0 -1.24604e-29 7.78776e-31 70.3908 6.79452e-15 -1.66832e-14 0.534024 5.97856e-17 -4.06118e-16)
(5.15501e-17 -2.77151e-31 6.08253e-31 66.815 -1.88397e-14 -2.18692e-14 0.513563 -1.48177e-16 1.64437e-16)
(-8.64257e-16 9.21137e-30 -7.67614e-31 66.815 7.48832e-15 -1.80959e-14 0.513563 5.76242e-17 -3.94857e-16)
(6.63406e-19 -3.35196e-29 6.02734e-31 63.2742 -1.81579e-14 -2.29261e-14 0.492926 -1.40646e-16 1.78599e-16)
(0 3.3291e-29 0 63.2742 6.9495e-15 -1.88066e-14 0.492926 5.29024e-17 -3.82946e-16)
(-1.67932e-15 5.96615e-30 0 59.8235 -1.6694e-14 -2.32043e-14 0.472506 -1.28717e-16 1.86192e-16)
(-1.87366e-15 -1.21573e-29 0 59.8235 6.11005e-15 -1.89242e-14 0.472506 4.56646e-17 -3.70694e-16)
(9.61669e-17 1.48362e-29 1.45107e-31 56.5033 -1.57612e-14 -2.28744e-14 0.452602 -1.2938e-16 1.88353e-16)
(8.27626e-16 -1.76419e-29 0 56.5033 5.16344e-15 -1.85978e-14 0.452602 3.88384e-17 -3.58186e-16)
(-1.91572e-15 2.88046e-29 -1.00799e-30 53.3407 -1.52156e-14 -2.20957e-14 0.433424 -1.23358e-16 1.86204e-16)
(0 -2.31854e-29 7.24544e-31 53.3407 5.34896e-15 -1.79632e-14 0.433424 5.01068e-17 -3.45742e-16)
(4.57957e-15 -3.986e-29 1.13087e-30 50.3513 -1.48141e-14 -2.10133e-14 0.415108 -1.26353e-16 1.8084e-16)
(7.92381e-15 3.19354e-29 -7.14159e-31 50.3513 6.04353e-15 -1.71177e-14 0.415108 5.17681e-17 -3.33522e-16)
(0 -1.40785e-29 3.51962e-31 47.5418 -1.47377e-14 -1.97408e-14 0.39773 -1.25656e-16 1.73282e-16)
(4.08677e-15 1.43477e-29 -1.05589e-30 47.5418 5.94872e-15 -1.61466e-14 0.39773 4.99415e-17 -3.21726e-16)
(1.05157e-15 5.50671e-30 1.34614e-31 44.9127 -1.4112e-14 -1.83589e-14 0.381325 -1.1912e-16 1.6422e-16)
(0 -5.55068e-30 0 44.9127 5.57918e-15 -1.50606e-14 0.381325 4.68271e-17 -3.10538e-16)
(-2.16034e-15 1.11135e-29 -2.6604e-31 42.4597 -1.38406e-14 -1.69324e-14 0.365891 -1.24526e-16 1.54208e-16)
(-8.64135e-15 -6.05189e-30 0 42.4597 5.76039e-15 -1.39248e-14 0.365891 5.46169e-17 -2.99628e-16)
(-1.10757e-15 1.36108e-29 -4.68762e-31 40.1754 -1.33675e-14 -1.55089e-14 0.351409 -1.14099e-16 1.43741e-16)
(-4.43027e-15 -8.3966e-30 -6.74088e-31 40.1754 5.48084e-15 -1.28177e-14 0.351409 4.31707e-17 -2.89014e-16)
(-1.49616e-15 1.32885e-29 -9.9664e-31 38.0509 -1.27581e-14 -1.41208e-14 0.33784 -1.17054e-16 1.33121e-16)
(-3.03918e-15 -1.36066e-29 9.9664e-31 38.0509 4.83604e-15 -1.17755e-14 0.33784 4.44503e-17 -2.78711e-16)
(0 -1.83373e-29 0 36.076 -1.24324e-14 -1.27918e-14 0.325141 -1.11411e-16 1.22621e-16)
(4.63616e-15 1.86687e-29 0 36.076 4.61094e-15 -1.07968e-14 0.325141 4.02681e-17 -2.69039e-16)
(-1.18325e-15 8.00074e-30 -1.29215e-31 34.2404 -1.07761e-14 -1.15277e-14 0.31326 -8.93732e-17 1.12417e-16)
(0 0 0 34.2404 3.48725e-15 -9.84831e-15 0.31326 2.46465e-17 -2.59915e-16)
(-1.20653e-15 1.81101e-29 -4.46889e-31 32.5339 -9.01219e-15 -1.0331e-14 0.302145 -8.10621e-17 1.02471e-16)
(0 -1.52704e-29 3.18133e-31 32.5339 2.57066e-15 -8.94398e-15 0.302145 2.39813e-17 -2.5109e-16)
(-1.22894e-15 1.28756e-29 -1.28458e-31 30.9463 -8.45367e-15 -9.20719e-15 0.291745 -8.11935e-17 9.29058e-17)
(-4.91575e-15 -7.89716e-30 0 30.9463 2.07306e-15 -8.07978e-15 0.291745 1.57483e-17 -2.42618e-16)
(1.25053e-15 -1.27329e-29 1.28315e-31 29.4684 -8.39985e-15 -8.15879e-15 0.282008 -8.2381e-17 8.37452e-17)
(0 9.89052e-30 0 29.4684 1.76363e-15 -7.30722e-15 0.282008 1.86146e-17 -2.34265e-16)
(1.27137e-15 -1.99036e-29 7.37613e-31 28.0912 -8.43844e-15 -7.18741e-15 0.272886 -8.43398e-17 7.5064e-17)
(0 1.70603e-29 -6.09298e-31 28.0912 1.72177e-15 -6.61654e-15 0.272886 1.53766e-17 -2.26545e-16)
(-2.64384e-15 1.48569e-29 -1.28439e-31 26.8066 -8.03983e-15 -6.28705e-15 0.264334 -7.67469e-17 6.68686e-17)
(0 -7.20678e-30 0 26.8066 1.39413e-15 -5.94348e-15 0.264334 1.25453e-17 -2.1902e-16)
(-1.33297e-15 1.18391e-29 0 25.6069 -7.66054e-15 -5.45245e-15 0.256308 -7.90417e-17 5.90858e-17)
(1.33297e-15 -1.65748e-29 5.91957e-31 25.6069 1.26546e-15 -5.32143e-15 0.256308 1.31917e-17 -2.11616e-16)
(-1.32978e-15 9.84926e-30 -1.2905e-31 24.4853 -7.69947e-15 -4.68195e-15 0.24877 -7.98039e-17 5.17331e-17)
(5.3191e-15 -4.27181e-30 0 24.4853 2.00547e-15 -4.76728e-15 0.24877 2.82902e-17 -2.04484e-16)
(0 -1.84035e-29 5.75111e-31 23.4354 -7.50102e-15 -3.96871e-15 0.241681 -7.71734e-17 4.48056e-17)
(5.39208e-15 1.88163e-29 -5.75111e-31 23.4354 1.8702e-15 -4.25213e-15 0.241681 1.07263e-17 -1.97649e-16)
(8.92442e-17 6.21886e-30 1.30109e-31 22.4513 -7.34039e-15 -3.30753e-15 0.235009 -7.87059e-17 3.8212e-17)
(-4.18639e-15 -1.4026e-29 5.66868e-31 22.4513 6.92815e-16 -3.75603e-15 0.235009 3.93618e-18 -1.91191e-16)
(1.3829e-15 -2.85077e-30 1.3079e-31 21.5278 -8.03556e-15 -2.69388e-15 0.228722 -9.45192e-17 3.19763e-17)
(0 0 0 21.5278 1.67799e-15 -3.26829e-15 0.228722 3.24185e-17 -1.84578e-16)
(-1.39959e-15 -1.55404e-30 4.19154e-31 20.6602 -9.07419e-15 -2.12565e-15 0.222792 -1.03877e-16 2.60153e-17)
(0 4.40588e-30 -5.50735e-31 20.6602 3.38455e-15 -2.82831e-15 0.222792 4.16218e-17 -1.78009e-16)
(1.41583e-15 5.83133e-30 1.32465e-31 19.844 -9.39572e-15 -1.60046e-15 0.217191 -1.0447e-16 2.04032e-17)
(5.66331e-15 -3.91526e-30 0 19.844 3.73246e-15 -2.4732e-15 0.217191 4.11389e-17 -1.71456e-16)
(2.4097e-15 -8.56098e-30 5.35061e-31 19.0752 -9.57937e-15 -1.11551e-15 0.211897 -1.11082e-16 1.5047e-17)
(5.72653e-15 9.00294e-30 0 19.0752 3.41167e-15 -2.14466e-15 0.211897 3.55718e-17 -1.65128e-16)
(-1.44703e-15 2.86131e-30 -1.34529e-31 18.3503 -8.77088e-15 -6.62728e-16 0.206888 -8.89428e-17 1.0012e-17)
(0 4.21914e-30 0 18.3503 2.58282e-15 -1.78295e-15 0.206888 2.32891e-17 -1.59133e-16)
(-1.46204e-15 -1.2937e-30 -1.35719e-31 17.6659 -7.20821e-15 -2.33456e-16 0.202142 -7.7888e-17 5.07835e-18)
(0 8.31733e-30 0 17.6659 1.7703e-15 -1.44098e-15 0.202142 1.76628e-17 -1.52861e-16)
(2.30757e-15 -4.09906e-30 5.12383e-31 17.019 -7.21346e-15 1.66294e-16 0.197642 -9.16725e-17 4.23222e-18)
(0 4.09906e-30 0 17.019 2.14109e-15 -1.14452e-15 0.197642 3.27452e-17 -1.46679e-16)
(-1.491e-15 -1.17155e-30 -1.36564e-31 16.407 -7.31315e-15 5.42533e-16 0.19337 -8.25629e-17 8.73094e-18)
(-2.27449e-15 1.21209e-29 0 16.407 2.67206e-15 -8.67961e-16 0.19337 3.09274e-17 -1.40284e-16)
(0 1.9912e-29 -9.95601e-31 15.8273 -6.05881e-15 8.97485e-16 0.189312 -6.38068e-17 1.30015e-17)
(-6.01994e-15 -1.64166e-29 4.97801e-31 15.8273 2.55795e-15 -6.12987e-16 0.189312 3.09251e-17 -1.33868e-16)
(6.91107e-16 -1.28282e-29 3.5342e-31 15.2776 -5.66364e-15 1.23014e-15 0.185452 -7.52166e-17 1.72068e-17)
(3.86486e-15 1.62029e-29 -4.90666e-31 15.2776 1.82308e-15 -3.52344e-16 0.185452 1.36743e-17 -1.275e-16)
(-2.17809e-15 1.54763e-29 -4.83633e-31 14.7558 -6.42971e-15 1.54336e-15 0.181777 -8.4881e-17 2.12347e-17)
(2.17809e-15 -4.07606e-29 4.83633e-31 14.7558 9.86076e-32 -1.32385e-16 0.181777 0 -1.20835e-16)
(-5.83888e-15 1.05049e-29 -6.15128e-31 14.2601 -5.98441e-15 1.83916e-15 0.178276 -6.60941e-17 2.52343e-17)
(1.04743e-14 -7.11969e-30 4.76702e-31 14.2601 8.60462e-16 3.16673e-17 0.178276 2.42939e-17 -1.14281e-16)
(5.23204e-15 -9.51213e-30 7.48319e-31 13.7887 -5.75881e-15 2.11606e-15 0.174938 -8.15461e-17 2.90018e-17)
(4.11576e-15 4.28317e-30 -4.69869e-31 13.7887 1.3367e-15 2.21061e-16 0.174938 9.84524e-18 -1.0797e-16)
(2.08577e-15 -1.11152e-29 0 13.34 -6.85996e-15 2.36831e-15 0.171751 -9.68577e-17 3.25773e-17)
(0 -2.8026e-45 0 13.34 2.05597e-29 4.33817e-16 0.171751 1.54255e-45 -1.0119e-16)
(-1.58289e-15 -7.69121e-31 -1.41178e-31 12.9124 -6.30678e-15 2.60976e-15 0.168707 -6.92422e-17 3.62643e-17)
(0 7.30395e-30 0 12.9124 4.15793e-16 6.04309e-16 0.168707 1.50987e-17 -9.42715e-17)
(-3.19e-15 2.01701e-29 -7.34613e-31 12.5048 -4.6998e-15 2.84695e-15 0.165796 -5.63929e-17 3.99229e-17)
(6.37999e-15 -2.10541e-29 4.49954e-31 12.5048 7.10633e-16 7.43115e-16 0.165796 4.75267e-18 -8.76464e-17)
(-1.60689e-15 2.88576e-30 -1.43603e-31 12.1157 -4.29465e-15 3.07413e-15 0.163012 -6.01946e-17 4.35373e-17)
(0 3.54804e-30 0 12.1157 2.91526e-16 8.87792e-16 0.163012 3.14799e-18 -8.0632e-17)
(-1.61857e-15 2.8815e-30 2.92106e-31 11.744 -5.62659e-15 3.28517e-15 0.160345 -9.4987e-17 4.69458e-17)
(6.47428e-15 4.02437e-30 -4.37149e-31 11.744 1.94856e-15 1.03935e-15 0.160345 5.08507e-17 -7.36144e-17)
(-1.63005e-15 6.32646e-30 -5.77505e-31 11.3888 -7.76555e-15 3.47553e-15 0.15779 -1.22146e-16 5.0169e-17)
(0 0 0 11.3888 2.9922e-15 1.18312e-15 0.15779 3.26073e-17 -6.58955e-17)
(-3.28268e-15 2.27566e-29 -1.14615e-30 11.0489 -8.08802e-15 3.6487e-15 0.15534 -1.06975e-16 5.32649e-17)
(-6.56536e-15 -1.75312e-29 8.49415e-31 11.0489 3.24809e-15 1.33055e-15 0.15534 5.96453e-17 -5.88569e-17)
(-3.30489e-15 -1.43197e-29 2.18953e-47 10.7235 -7.4017e-15 -7.90104e-32 0.152989 -1.05846e-16 1.97215e-31)
(1.32196e-14 1.7859e-29 0 10.7235 4.16545e-15 1.45558e-15 0.152989 6.01322e-17 -5.10777e-17)
(-4.99012e-15 2.84777e-29 -7.82737e-31 10.4118 -7.13296e-15 -1.42168e-14 0.150731 -1.02213e-16 2.02005e-16)
(-6.6535e-15 -2.03944e-29 4.1262e-31 10.4118 3.13564e-15 1.58624e-15 0.150731 3.1132e-17 -4.34124e-17)
(-1.67413e-15 -1.98813e-29 2.91835e-31 10.1129 -6.86474e-15 -1.43443e-14 0.148561 -1.0095e-16 2.1281e-16)
(6.69654e-15 2.33664e-29 -4.06706e-31 10.1129 2.50259e-15 1.75038e-15 0.148561 4.30217e-17 -3.56185e-17)
(1.68473e-15 -9.31157e-30 5.08896e-31 9.82621 -6.72125e-15 -1.40431e-14 0.146474 -1.00867e-16 2.11722e-16)
(0 6.41404e-30 -4.00877e-31 9.82621 2.57359e-15 1.86397e-15 0.146474 3.41911e-17 -2.6724e-17)
(0 -2.21274e-29 3.95132e-31 9.55096 -6.575e-15 -1.37636e-14 0.144466 -9.94197e-17 2.09934e-16)
(6.7807e-15 2.27398e-29 -3.95132e-31 9.55096 2.6822e-15 1.96559e-15 0.144466 4.76149e-17 -1.83252e-17)
(1.75401e-15 -6.2315e-30 7.78937e-31 9.28655 -6.15463e-15 -1.34878e-14 0.142533 -9.07348e-17 2.09348e-16)
(6.82187e-15 6.8553e-30 0 9.28655 2.96741e-15 2.08271e-15 0.142533 4.40716e-17 -9.81551e-18)
(-1.72887e-15 9.21327e-30 -7.67773e-31 9.0324 -5.06414e-15 -1.32742e-14 0.140671 -6.78904e-17 2.07498e-16)
(6.86246e-15 6.44844e-31 0 9.0324 2.30155e-15 2.19466e-15 0.140671 2.79793e-17 -4.74778e-19)
(0 1.81624e-29 0 8.78796 -5.02016e-15 -1.31448e-14 0.138876 -9.19836e-17 2.08733e-16)
(0 -1.81624e-29 0 8.78796 1.31571e-15 2.31473e-15 0.138876 1.37731e-17 9.02762e-18)
(-3.47101e-15 8.79381e-30 -1.47424e-31 8.55273 -6.62342e-15 -1.29851e-14 0.137145 -1.21999e-16 2.09432e-16)
(0 -2.98369e-30 0 8.55273 2.18035e-15 2.4319e-15 0.137145 5.69075e-17 1.88983e-17)
(1.65559e-15 -2.05865e-29 0 8.32623 -6.73671e-15 -1.2785e-14 0.135474 -9.84146e-17 2.09654e-16)
(5.32541e-15 2.12472e-29 0 8.32623 3.4029e-15 2.51711e-15 0.135474 5.44983e-17 2.90798e-17)
(0 2.89877e-30 0 8.10803 -5.29622e-15 -1.25507e-14 0.133861 -7.73725e-17 2.20766e-16)
(7.0195e-15 6.97419e-31 -3.62347e-31 8.10803 1.90903e-15 2.58849e-15 0.133861 1.58543e-17 3.93762e-17)
(-1.76438e-15 2.91629e-30 -1.62839e-32 7.8977 -4.56073e-15 -1.23739e-14 0.132302 -7.63292e-17 4.72712e-16)
(0 2.85723e-30 0 7.8977 6.97743e-16 2.70187e-15 0.132302 7.60197e-18 4.70925e-17)
(1.77377e-15 -9.77633e-32 3.52034e-31 7.69485 -5.30736e-15 -1.22967e-14 0.130796 -1.05354e-16 5.39441e-16)
(-3.17084e-15 0 -3.52034e-31 7.69485 5.68008e-16 2.84502e-15 0.130796 2.74871e-17 5.02095e-17)
(3.1254e-15 -8.32773e-30 0 7.49914 -6.69737e-15 -1.21741e-14 0.129339 -1.27135e-16 4.88161e-16)
(0 8.32773e-30 0 7.49914 1.16112e-15 2.93356e-15 0.129339 7.46604e-17 5.15658e-17)
(1.5403e-15 -8.20838e-30 0 7.3102 -6.50943e-15 -1.19877e-14 0.12793 -1.01778e-16 4.36958e-16)
(-1.5403e-15 8.20838e-30 3.42016e-31 7.3102 1.40737e-15 3.01058e-15 0.12793 1.11323e-16 5.44105e-17)
(-5.66118e-16 -4.93623e-30 0 7.12773 -5.20138e-15 -1.18022e-14 0.126565 -8.38145e-17 3.85479e-16)
(0 1.07876e-29 3.37114e-31 7.12773 1.04319e-15 3.10791e-15 0.126565 1.69488e-16 5.6577e-17)
(-1.81025e-15 1.0906e-29 0 6.95142 -4.0583e-15 -1.17394e-14 0.125244 -6.30491e-17 3.33811e-16)
(0 -7.97477e-30 0 6.95142 6.82482e-16 3.18514e-15 0.125244 2.24746e-16 5.88223e-17)
(1.81912e-15 -2.93739e-30 0 6.78099 -2.63198e-15 -1.17317e-14 0.123963 -3.34683e-17 2.80743e-16)
(-1.02265e-14 -6.39749e-31 -3.12504e-32 6.78099 -1.24372e-15 3.35655e-15 0.123963 2.60628e-16 6.45798e-17)
(0 -7.74781e-30 0 6.61617 -2.97432e-15 -1.16201e-14 0.122722 -7.77536e-17 2.27017e-16)
(-7.31157e-15 7.15878e-30 -3.77771e-32 6.61617 -1.0966e-15 3.53172e-15 0.122722 3.46101e-16 6.71243e-17)
(-1.83657e-15 1.82081e-29 3.18198e-31 6.45671 -3.99545e-15 -1.15242e-14 0.121519 -7.33578e-17 1.7316e-16)
(1.46926e-14 -9.0206e-30 -5.41022e-31 6.45671 7.32128e-17 3.47742e-15 0.121519 3.75112e-16 6.44026e-17)
(1.84517e-15 1.21118e-29 3.13638e-31 6.30237 -2.74348e-15 -1.14839e-14 0.120351 -3.16326e-17 1.18823e-16)
(7.38067e-15 -1.95118e-29 -5.73969e-31 6.30237 -3.14161e-15 3.45185e-15 0.120351 4.15051e-16 6.81023e-17)
(0 -4.94628e-30 0 6.15294 -2.29714e-15 -1.13954e-14 0.119217 -5.80014e-17 6.38518e-17)
(0 9.89256e-30 0 6.15294 -3.31051e-15 3.60946e-15 0.119217 4.94092e-16 7.24704e-17)
(-1.8621e-15 -1.65583e-29 -9.14135e-31 6.0082 -2.61885e-15 -1.125e-14 0.118117 -4.53599e-17 8.7863e-18)
(7.44841e-15 1.99641e-29 9.80462e-31 6.0082 -2.13092e-15 3.72971e-15 0.118117 5.66126e-16 7.48822e-17)
(-1.87045e-15 1.49586e-29 3.00344e-31 5.86794 -1.88824e-15 -9.7174e-15 0.117048 -3.02068e-17 -4.62188e-17)
(-7.48179e-15 -7.60947e-30 -3.73349e-31 5.86794 -3.32054e-15 3.82967e-15 0.117048 6.69474e-16 7.86287e-17)
(1.87871e-15 -1.24122e-29 -2.9604e-31 5.73199 -2.46821e-15 -4.46933e-15 0.116009 -7.04418e-17 -8.73014e-17)
(7.51485e-15 9.81181e-30 3.77039e-31 5.73199 -1.89039e-15 3.92271e-15 0.116009 7.75259e-16 8.08862e-17)
(-1.8869e-15 1.69485e-29 8.7539e-31 5.60016 -3.22016e-15 -6.25048e-16 0.114999 -6.23362e-17 -9.05e-17)
(7.54761e-15 -1.37168e-29 -7.83853e-31 5.60016 -1.78299e-15 3.89712e-15 0.114999 8.87029e-16 7.98685e-17)
(-1.89502e-15 7.55327e-30 -2.87615e-31 5.47229 -1.04287e-15 -5.5783e-16 0.114017 -1.09113e-17 -9.30109e-17)
(0 -4.60183e-30 2.87615e-31 5.47229 -3.71501e-15 3.98418e-15 0.114017 9.72638e-16 8.69258e-17)
(-1.90306e-15 2.95254e-30 0 5.34821 -3.54899e-16 -5.32438e-16 0.113061 -4.10853e-18 -9.57047e-17)
(0 0 2.83492e-31 5.34821 -3.94078e-15 4.10244e-15 0.113061 1.10301e-15 8.7266e-17)
(-4.42791e-15 -5.98934e-30 -5.58858e-31 5.22778 -1.56369e-16 -5.99325e-16 0.112131 -2.61668e-18 -9.77576e-17)
(7.64415e-15 9.02188e-30 6.75001e-31 5.22778 -3.73275e-15 4.1026e-15 0.112131 1.23511e-15 8.9479e-17)
(1.91894e-15 -7.35289e-30 -5.50848e-31 5.11085 -9.76372e-16 -6.44291e-16 0.111226 -4.03266e-17 -1.25668e-16)
(0 4.40679e-30 5.50848e-31 5.11085 -4.01081e-15 4.24317e-15 0.111226 1.37418e-15 9.60102e-17)
(0 -8.68725e-30 -2.71477e-31 4.99728 -1.96819e-15 -5.76704e-16 0.110344 -4.69895e-17 -1.87091e-16)
(0 8.68725e-30 2.71477e-31 4.99728 -4.88518e-15 4.36398e-15 0.110344 1.37038e-15 9.74961e-17)
(-1.93456e-15 -5.61672e-30 -2.67586e-31 4.88695 -2.00729e-15 -6.18663e-16 0.109484 -4.32794e-17 -2.48736e-16)
(0 8.56274e-30 5.35171e-31 4.88695 -5.16805e-15 4.39129e-15 0.109484 1.34367e-15 1.0006e-16)
(2.37565e-15 -2.11e-29 -1.055e-30 4.77973 -1.46615e-15 -5.61075e-16 0.108647 -2.34898e-17 -3.12333e-16)
(1.55382e-14 2.532e-29 1.63444e-30 4.77973 -4.07374e-15 4.35121e-15 0.108647 1.3232e-15 9.85096e-17)
(0 4.15952e-30 0 4.6755 -1.35515e-15 -4.48949e-16 0.107831 -3.93707e-17 -3.71134e-16)
(7.7997e-15 4.15952e-30 1.68604e-31 4.6755 -2.65319e-15 4.28921e-15 0.107831 1.31524e-15 1.00099e-16)
(-1.95752e-15 2.75361e-29 1.02498e-30 4.57415 -3.4412e-15 -5.8729e-16 0.107034 -1.22882e-16 -4.27209e-16)
(-7.83007e-15 -2.04995e-29 -1.1987e-30 4.57415 -3.92555e-16 4.49772e-15 0.107034 1.30944e-15 1.11261e-16)
(-4.24001e-15 1.10265e-29 1.01029e-30 4.47558 -4.86042e-15 -6.78761e-16 0.106258 -1.08653e-16 -4.8674e-16)
(-7.86021e-15 -8.08229e-30 -9.42795e-31 4.47558 8.96253e-16 4.76095e-15 0.106258 1.3284e-15 1.15668e-16)
(0 7.96645e-30 2.48952e-31 4.37969 -3.40323e-15 -5.66773e-16 0.1055 -5.55136e-17 -5.44666e-16)
(0 -3.98323e-30 -2.48952e-31 4.37969 1.42817e-15 4.79215e-15 0.1055 1.365e-15 1.1604e-16)
(0 -1.58849e-29 4.90767e-31 4.28638 2.41391e-28 -3.96007e-16 0.10476 0 -6.02283e-16)
(7.91981e-15 -3.92614e-30 -2.77105e-31 4.28638 4.62265e-16 4.76804e-15 0.10476 1.40088e-15 1.17865e-16)
(-4.5483e-15 2.02596e-29 9.67466e-31 4.19555 2.8282e-16 -4.61586e-16 0.104037 -4.4987e-18 -6.57592e-16)
(2.17854e-15 -1.93493e-29 -1.4512e-30 4.19555 -1.24696e-15 4.8187e-15 0.104037 1.40724e-15 1.21979e-16)
(0 -3.43296e-29 -1.9072e-30 4.10713 -1.3383e-15 -6.82232e-16 0.103331 -7.78167e-17 -7.18058e-16)
(1.59571e-14 3.43296e-29 2.38733e-30 4.10713 1.17362e-15 4.86196e-15 0.103331 1.40783e-15 1.23518e-16)
(2.11654e-15 -7.51946e-30 -2.34983e-31 4.02102 -3.5924e-15 -5.78882e-16 0.102642 -1.06411e-16 -7.8012e-16)
(1.38987e-14 7.51946e-30 9.75196e-31 4.02102 1.7763e-15 4.93446e-15 0.102642 1.45592e-15 1.29292e-16)
(-4.01824e-15 5.89938e-30 0 3.93715 -3.10391e-15 -4.44227e-16 0.101968 -5.45251e-17 -8.3755e-16)
(0 0 0 3.93715 -1.12449e-16 5.06395e-15 0.101968 1.48016e-15 1.33915e-16)
(-2.01629e-15 -7.01423e-31 0 3.85544 -1.81947e-15 -6.154e-16 0.101309 -4.13127e-17 -8.96624e-16)
(1.61303e-14 7.30546e-30 1.02274e-30 3.85544 5.95103e-16 5.08358e-15 0.101309 1.49225e-15 1.34122e-16)
(2.02341e-15 -1.37502e-29 -6.7507e-31 3.77581 -1.82632e-15 -6.74471e-16 0.100664 -5.6491e-17 -9.56372e-16)
(0 1.08011e-29 6.7507e-31 3.77581 -5.52394e-16 5.19612e-15 0.100664 1.53027e-15 1.43902e-16)
(-2.03048e-15 2.95352e-30 0 3.69821 -1.45518e-15 -5.2841e-16 0.100034 -2.22349e-17 -1.01576e-15)
(0 3.54877e-30 4.43597e-31 3.69821 -1.76058e-15 5.38662e-15 0.100034 1.53155e-15 1.48465e-16)
(-5.9758e-15 -1.4013e-45 8.74477e-31 3.62255 0 -5.1929e-16 0.0994174 -1.38115e-45 -1.07446e-15)
(1.20883e-14 -6.99582e-30 -5.44376e-31 3.62255 -9.57402e-16 5.37126e-15 0.0994174 1.53251e-15 1.47265e-16)
(-2.04449e-15 1.67454e-29 4.30972e-31 3.54879 1.87039e-16 -5.47863e-16 0.0988138 -9.67491e-18 -1.13512e-15)
(8.17796e-15 -6.89555e-30 -8.49063e-32 3.54879 -1.35268e-15 5.36924e-15 0.0988138 1.55592e-15 1.527e-16)
(-4.10285e-15 2.50743e-30 0 3.47685 -2.54795e-16 -5.27901e-16 0.098223 -1.52635e-17 -1.19558e-15)
(0 3.39836e-30 0 3.47685 -1.37947e-15 5.48169e-15 0.098223 1.56563e-15 1.57999e-16)
(-2.05832e-15 1.41222e-29 1.25612e-30 3.40667 -4.83442e-17 -6.27539e-16 0.0976444 -6.94904e-19 -1.25589e-15)
(0 -1.0049e-29 -8.37413e-31 3.40667 -1.1719e-15 5.66519e-15 0.0976444 1.57035e-15 1.678e-16)
(3.71732e-15 -9.90493e-30 0 3.33821 -3.09848e-16 -6.83237e-16 0.0970777 -1.75006e-17 -1.31768e-15)
(-8.26071e-15 9.90493e-30 4.28955e-31 3.33821 -3.25446e-16 5.82796e-15 0.0970777 1.56603e-15 1.72191e-16)
(5.73603e-15 -1.30102e-29 -1.22037e-30 3.27141 -3.82145e-16 -6.6706e-16 0.0965225 -5.65389e-18 -1.37787e-15)
(4.62392e-15 9.76297e-30 1.63801e-30 3.27141 -7.51594e-16 5.85528e-15 0.0965225 1.57826e-15 1.74344e-16)
(3.88453e-15 -5.90104e-30 -8.0192e-31 3.20621 1.96574e-28 -5.95747e-16 0.0959784 -3.15544e-30 -1.43929e-15)
(-1.01208e-14 3.20768e-30 3.65077e-31 3.20621 -2.89043e-15 5.90607e-15 0.0959784 1.568e-15 1.80307e-16)
(-2.0855e-15 1.24314e-29 3.95213e-31 3.14257 1.52074e-15 -5.35417e-16 0.0954451 -2.37692e-17 -1.50082e-15)
(8.34199e-15 -3.16171e-30 6.31278e-32 3.14257 -2.99391e-15 6.00518e-15 0.0954451 1.55658e-15 1.85532e-16)
(-1.75437e-15 1.24656e-29 7.79098e-31 3.08044 3.35941e-15 -4.26682e-16 0.0949222 -6.91934e-17 -1.56044e-15)
(0 -9.34917e-30 -3.89549e-31 3.08044 -3.4544e-15 5.97331e-15 0.0949222 1.55708e-15 1.83605e-16)
(-1.72923e-15 1.53586e-29 3.83966e-31 3.01977 4.27697e-15 -5.71403e-16 0.0944094 -1.38922e-16 -1.61855e-15)
(4.93695e-15 -9.21517e-30 1.22163e-31 3.01977 -3.38043e-15 5.93125e-15 0.0944094 1.54009e-15 1.8831e-16)
(2.10547e-15 -1.20018e-29 -1.13539e-30 2.96052 2.91088e-15 -8.04706e-16 0.0939064 -1.29168e-16 -1.68423e-15)
(0 9.0831e-30 1.13539e-30 2.96052 -4.5236e-15 6.08734e-15 0.0939064 1.54229e-15 1.98985e-16)
(-3.36003e-15 2.9843e-30 1.49215e-30 2.90264 1.42913e-15 -5.67202e-16 0.0934129 -5.54618e-17 -1.74781e-15)
(-8.44822e-15 0 -2.04029e-30 2.90264 -6.33213e-15 6.23164e-15 0.0934129 1.50678e-15 2.03207e-16)
(-3.31187e-15 0 -7.35383e-31 2.8461 1.63008e-15 -5.02251e-16 0.0929286 -3.66317e-17 -1.80839e-15)
(0 8.82459e-30 7.35383e-31 2.8461 -5.2226e-15 6.30399e-15 0.0929286 1.48105e-15 2.09585e-16)
(0 2.89937e-30 7.24843e-31 2.79086 1.95034e-15 -7.2979e-16 0.0924532 -7.03388e-17 -1.87223e-15)
(-3.2644e-15 0 -7.24843e-31 2.79086 -5.97156e-15 6.42054e-15 0.0924532 1.48e-15 2.16958e-16)
(2.1316e-15 1.70859e-29 1.78614e-30 2.73688 2.39757e-15 -6.40802e-16 0.0919865 -5.91328e-17 -1.93773e-15)
(0 -2.00047e-29 -1.78614e-30 2.73688 -7.53516e-15 6.49453e-15 0.0919865 1.46786e-15 2.20747e-16)
(2.13805e-15 2.72554e-30 1.05632e-30 2.68412 2.70804e-15 -5.61283e-16 0.0915281 -1.02758e-16 -1.9995e-15)
(-3.1715e-15 -2.81686e-30 -1.05632e-30 2.68412 -6.402e-15 6.53914e-15 0.0915281 1.42286e-15 2.26385e-16)
(-4.28892e-15 5.81084e-30 0 2.63255 2.22226e-15 -5.55575e-16 0.0910779 -8.22468e-17 -2.06405e-15)
(8.57784e-15 0 6.65153e-31 2.63255 -5.46785e-15 6.55664e-15 0.0910779 1.37754e-15 2.28437e-16)
(-2.15084e-15 2.89718e-30 0 2.58214 3.031e-15 -5.70097e-16 0.0906356 -7.18268e-17 -2.12493e-15)
(0 2.73669e-30 0 2.58214 -6.96568e-15 6.5847e-15 0.0906356 1.35073e-15 2.35005e-16)
(0 5.39493e-30 3.37183e-31 2.53285 4.25527e-15 -7.4044e-16 0.0902009 -1.41984e-16 -2.18595e-15)
(0 -5.39493e-30 -1.01155e-30 2.53285 -8.12673e-15 6.72423e-15 0.0902009 1.27886e-15 2.45163e-16)
(-2.99355e-15 7.97641e-30 9.97052e-31 2.48465 5.26804e-15 -5.03607e-16 0.0897737 -1.61977e-16 -2.24723e-15)
(0 -5.31761e-30 -9.97052e-31 2.48465 -8.4157e-15 6.91408e-15 0.0897737 1.21625e-15 2.55741e-16)
(-2.95064e-15 1.04828e-29 6.55174e-31 2.43751 6.25036e-15 -4.47576e-16 0.0893538 -2.20038e-16 -2.30092e-15)
(0 -2.6207e-30 -9.82761e-31 2.43751 -8.38989e-15 7.04323e-15 0.0893538 1.14796e-15 2.61905e-16)
(0 2.58314e-30 1.29157e-30 2.3914 5.25849e-15 -6.00663e-16 0.0889408 -2.39436e-16 -2.36498e-15)
(1.74084e-14 0 2.76882e-31 2.3914 -6.85624e-15 6.9632e-15 0.0889408 1.08846e-15 2.57222e-16)
(-4.36456e-15 5.7165e-30 0 2.3463 3.21703e-15 -3.64515e-16 0.0885347 -1.51995e-16 -2.42975e-15)
(8.72912e-15 0 8.17361e-31 2.3463 -5.32511e-15 6.76903e-15 0.0885347 1.07646e-15 2.54783e-16)
(2.18848e-15 -7.88256e-30 -6.27405e-31 2.30217 1.47628e-15 -1.67594e-16 0.0881352 -9.09065e-17 -2.49084e-15)
(0 5.01924e-30 1.25481e-30 2.30217 -4.70946e-15 7.02121e-15 0.0881352 1.04639e-15 2.84251e-16)
(0 4.9473e-30 6.18413e-31 2.25899 -8.9508e-16 -7.17778e-17 0.0877422 -9.24015e-17 -2.5496e-15)
(-1.15637e-14 0 -1.47293e-30 2.25899 -3.61223e-15 7.538e-15 0.0877422 1.01991e-15 3.02774e-16)
(-2.20079e-15 -4.07878e-30 -3.04775e-30 2.21674 1.15177e-29 3.06977e-18 0.0873554 0 -2.60387e-15)
(8.80317e-15 1.95056e-29 3.94558e-30 2.21674 -2.27581e-15 7.55657e-15 0.0873554 1.02823e-15 2.94055e-16)
(0 1.44195e-29 1.20163e-30 2.17539 -2.14131e-16 -9.33859e-17 0.0869747 -3.55062e-17 -2.66059e-15)
(0 -9.61301e-30 -1.20163e-30 2.17539 -3.29723e-15 7.36162e-15 0.0869747 1.04746e-15 2.95908e-16)
(2.66704e-15 0 -5.92202e-31 2.13492 5.76295e-30 -7.67921e-17 0.0865999 -3.15544e-30 -2.7182e-15)
(-2.66704e-15 9.47523e-30 1.1844e-30 2.13492 -5.01811e-15 7.62122e-15 0.0865999 1.01959e-15 3.23929e-16)
(-2.21905e-15 7.52253e-30 0 2.09531 1.20975e-15 -1.24874e-16 0.0862309 -1.54166e-16 -2.77474e-15)
(0 -4.66971e-30 0 2.09531 -4.01672e-15 7.80728e-15 0.0862309 9.76687e-16 3.20035e-16)
(-1.85904e-15 5.60519e-45 -3.45209e-30 2.05652 1.14862e-29 -3.44094e-16 0.0858676 -3.15544e-30 -2.83497e-15)
(1.78007e-14 3.22195e-29 6.70541e-30 2.05652 -1.25251e-15 7.54204e-15 0.0858676 9.77689e-16 3.1106e-16)
(0 9.07362e-30 1.1342e-30 2.01855 2.91168e-15 3.58487e-17 0.0855096 -9.09913e-17 -2.89254e-15)
(-2.554e-15 -4.53681e-30 -1.1342e-30 2.01855 -4.4351e-16 7.74386e-15 0.0855096 1.00636e-15 3.46669e-16)
(-2.51739e-15 4.47179e-30 1.11795e-30 1.98137 3.15401e-15 3.33912e-16 0.085157 -1.56692e-16 -2.9383e-15)
(-2.51739e-15 0 -1.11795e-30 1.98137 -1.34584e-15 8.24499e-15 0.085157 9.84916e-16 3.63652e-16)
(-4.24779e-15 -2.2362e-29 -3.85673e-30 1.94496 2.62846e-15 -4.00968e-17 0.0848095 -1.14681e-16 -2.99191e-15)
(1.79443e-14 3.52616e-29 7.29332e-30 1.94496 -1.27511e-15 8.14348e-15 0.0848095 9.62962e-16 3.47888e-16)
(0 -3.04117e-29 -4.88759e-30 1.9093 2.72004e-15 -1.18451e-16 0.0844671 -1.15021e-16 -3.0451e-15)
(1.79917e-14 3.04117e-29 7.30577e-30 1.9093 -1.94826e-15 7.91345e-15 0.0844671 9.8934e-16 3.53761e-16)
(-2.25488e-15 1.5662e-29 2.14113e-30 1.87438 3.21847e-15 2.08782e-17 0.0841296 -1.26219e-16 -3.09585e-15)
(-2.41069e-15 -8.56451e-30 -1.60585e-30 1.87438 -2.50405e-15 8.15355e-15 0.0841296 9.67287e-16 3.79833e-16)
(2.26076e-15 -3.65701e-29 -5.2761e-30 1.84017 2.92038e-15 -1.15855e-16 0.0837968 -1.6355e-16 -3.14745e-15)
(1.80861e-14 3.3767e-29 7.84613e-30 1.84017 -1.40811e-15 8.37381e-15 0.0837968 9.25831e-16 3.8437e-16)
(0 -1.24811e-29 -4.16038e-30 1.80666 2.20902e-15 -1.8323e-16 0.0834687 -1.02515e-16 -3.19989e-15)
(9.06648e-15 1.24811e-29 5.4964e-30 1.80666 -2.62035e-15 8.29541e-15 0.0834687 9.44875e-16 3.83649e-16)
(2.27246e-15 -1.51092e-29 -2.05038e-30 1.77382 4.04416e-15 -8.74644e-17 0.0831452 -1.02001e-16 -3.24795e-15)
(0 1.23023e-29 2.05038e-30 1.77382 -4.07685e-15 8.42704e-15 0.0831452 9.12156e-16 4.08084e-16)
(2.28111e-15 -5.54592e-30 5.05247e-31 1.74166 5.93931e-15 1.41076e-16 0.082826 -2.79148e-16 -3.29549e-15)