/*--------------------------------*- C++ -*----------------------------------*\
| =========                 |                                                 |
| \\      /  F ield         | OpenFOAM: The Open Source CFD Toolbox           |
|  \\    /   O peration     | Version:  2012                                  |
|   \\  /    A nd           | Website:  www.openfoam.com                      |
|    \\/     M anipulation  |                                                 |
\*---------------------------------------------------------------------------*/
FoamFile
{
    version     2.0;
    format      ascii;
    class       volScalarField;
    location    "13200";
    object      omega;
}
// * * * * * * * * * * * * * * * * * * * * * * * * * * * * * * * * * * * * * //

dimensions      [0 0 -1 0 0 0 0];


internalField   nonuniform List<scalar> 
2560
(
1.52416e+06
1.52416e+06
264874
264874
88856.1
88856.1
41114
41114
23691.7
23691.7
16203.6
16203.6
12410.5
12410.5
10194.1
10194.1
8755.61
8755.61
7749.31
7749.31
7005.94
7005.94
6433.9
6433.9
5979.59
5979.59
5609.62
5609.62
5302.12
5302.12
5042.18
5042.18
4819.27
4819.27
4625.73
4625.73
4455.87
4455.87
4305.35
4305.35
4170.8
4170.8
4049.57
4049.57
3939.53
3939.53
3838.96
3838.96
3746.45
3746.45
3660.82
3660.82
3581.08
3581.08
3506.4
3506.4
3436.06
3436.06
3369.44
3369.44
3306.03
3306.02
3245.34
3245.34
3186.97
3186.97
3130.57
3130.57
3075.82
3075.82
3022.43
3022.43
2970.17
2970.17
2918.8
2918.8
2868.14
2868.14
2818.01
2818.01
2768.27
2768.27
2718.78
2718.78
2669.44
2669.44
2620.15
2620.15
2570.84
2570.84
2521.45
2521.45
2471.94
2471.94
2422.28
2422.28
2372.47
2372.47
2322.5
2322.5
2272.4
2272.4
2222.19
2222.19
2171.93
2171.93
2121.68
2121.68
2071.51
2071.51
2021.5
2021.5
1971.75
1971.75
1922.36
1922.36
1873.46
1873.46
1825.15
1825.15
1777.57
1777.57
1730.84
1730.84
1685.09
1685.09
1640.45
1640.45
1597.05
1597.05
1554.99
1554.99
1514.39
1514.39
1475.35
1475.35
1437.93
1437.93
1402.22
1402.22
1368.24
1368.24
1336.03
1336.03
1305.6
1305.6
1276.93
1276.93
1249.98
1249.98
1224.7
1224.7
1201.01
1201.01
1178.84
1178.84
1158.08
1158.08
1138.63
1138.63
1120.37
1120.37
1103.18
1103.18
1086.95
1086.95
1071.56
1071.56
1056.9
1056.9
1042.85
1042.85
1029.32
1029.32
1016.21
1016.21
1003.43
1003.43
990.915
990.915
978.586
978.586
966.385
966.385
954.26
954.26
942.168
942.168
930.074
930.074
917.948
917.948
905.769
905.769
893.519
893.519
881.187
881.187
868.767
868.767
856.256
856.256
843.656
843.656
830.969
830.969
818.202
818.202
805.363
805.363
792.462
792.462
779.509
779.508
766.515
766.515
753.495
753.495
740.458
740.458
727.42
727.42
714.391
714.391
701.385
701.385
688.414
688.414
675.488
675.488
662.621
662.621
649.821
649.821
637.1
637.1
624.466
624.466
611.929
611.929
599.497
599.497
587.178
587.178
574.977
574.977
562.903
562.903
550.959
550.959
539.153
539.153
527.487
527.487
515.967
515.967
504.596
504.596
493.377
493.377
482.313
482.313
471.406
471.406
460.658
460.658
450.071
450.071
439.647
439.647
429.386
429.386
419.29
419.29
409.358
409.358
399.592
399.592
389.991
389.991
380.555
380.555
371.285
371.285
362.18
362.18
353.24
353.239
344.463
344.463
335.849
335.849
327.398
327.398
319.108
319.108
310.979
310.979
303.01
303.01
295.2
295.2
287.547
287.547
280.051
280.051
272.71
272.71
265.525
265.525
258.492
258.492
251.612
251.612
244.883
244.883
238.304
238.304
231.874
231.874
225.591
225.591
219.453
219.453
213.46
213.46
207.61
207.61
201.9
201.9
196.328
196.328
190.892
190.892
185.59
185.59
180.419
180.419
175.377
175.377
170.461
170.461
165.668
165.668
160.995
160.995
156.441
156.441
152.004
152.003
147.679
147.679
143.467
143.467
139.364
139.364
135.369
135.369
131.48
131.48
127.694
127.694
124.011
124.011
120.428
120.428
116.943
116.943
113.555
113.554
110.261
110.26
107.059
107.059
103.948
103.948
100.926
100.926
97.9906
97.9905
95.1401
95.1399
92.3728
92.3727
89.6873
89.6871
87.0819
87.0818
84.5553
84.5552
82.1061
82.106
79.733
79.7329
77.4349
77.4348
75.2104
75.2103
73.0585
73.0584
70.9778
70.9777
68.9673
68.9672
67.0255
67.0254
65.1511
65.1509
63.3424
63.3423
61.598
61.5979
59.916
59.9159
58.2947
58.2946
56.7322
56.7321
55.2267
55.2265
53.7763
53.7762
52.3795
52.3794
51.0344
51.0343
49.7393
49.7391
48.4922
48.4921
47.2913
47.2912
46.1345
46.1344
45.0195
45.0194
43.9439
43.9438
42.9054
42.9053
41.9014
41.9013
40.9293
40.9292
39.987
39.9869
39.0725
39.0724
38.1841
38.184
37.3207
37.3206
36.4813
36.4812
35.665
35.6649
34.8705
34.8704
34.0967
34.0966
33.342
33.3419
32.6048
32.6047
31.8836
31.8834
31.1771
31.177
30.4845
30.4844
29.805
29.8049
29.138
29.1379
28.4833
28.4832
27.841
27.8409
27.2115
27.2114
26.5953
26.5952
25.993
25.9929
25.4047
25.4046
24.8302
24.8301
24.2687
24.2686
23.7188
23.7187
23.1788
23.1787
22.6466
22.6465
22.1197
22.1196
21.596
21.5959
21.0742
21.0741
20.5541
20.5539
20.0366
20.0365
19.5238
19.5236
19.0178
19.0177
18.5212
18.5211
18.0357
18.0355
17.5619
17.5618
17.1
17.0998
16.6493
16.6492
16.2099
16.2098
15.7824
15.7822
15.3679
15.3677
14.9679
14.9676
14.5835
14.5833
14.2159
14.2156
13.8653
13.8651
13.5321
13.5319
13.2162
13.216
12.9174
12.9173
12.6357
12.6356
12.3707
12.3707
12.1222
12.1222
11.8893
11.8894
11.6711
11.6712
11.4663
11.4662
11.2732
11.2729
11.0896
11.089
10.9127
10.9119
10.7398
10.739
10.5689
10.5682
10.3981
10.3976
10.2256
10.2251
10.0488
10.0484
9.86558
9.86519
9.67473
9.67437
9.47655
9.47622
9.27262
9.27231
9.06533
9.06503
8.85804
8.85777
8.65492
8.65468
8.45972
8.4595
8.27462
8.27442
8.1001
8.09992
7.93612
7.93595
7.78269
7.78254
7.63989
7.63975
7.50774
7.50761
7.38629
7.38617
7.27557
7.27547
7.17521
7.17512
7.08434
7.08428
7.00168
7.00164
6.9258
6.92579
6.85506
6.85508
6.787
6.78704
6.71843
6.71847
6.64654
6.64656
6.57012
6.57009
6.4901
6.49001
6.40899
6.40885
6.32944
6.32927
6.25337
6.25319
6.18227
6.1821
6.11797
6.11784
6.06232
6.06223
6.01655
6.0165
5.98114
5.98111
5.95645
5.95645
5.94342
5.94344
1.52416e+06
1.52416e+06
264874
264874
88856.1
88856.1
41114
41114
23691.7
23691.7
16203.6
16203.6
12410.5
12410.5
10194.1
10194.1
8755.61
8755.61
7749.31
7749.31
7005.94
7005.94
6433.9
6433.9
5979.59
5979.59
5609.62
5609.62
5302.12
5302.12
5042.18
5042.18
4819.27
4819.27
4625.73
4625.73
4455.87
4455.87
4305.35
4305.35
4170.8
4170.8
4049.57
4049.57
3939.53
3939.53
3838.96
3838.96
3746.45
3746.45
3660.82
3660.82
3581.08
3581.08
3506.4
3506.4
3436.06
3436.06
3369.44
3369.44
3306.02
3306.03
3245.34
3245.34
3186.97
3186.97
3130.57
3130.57
3075.82
3075.82
3022.43
3022.43
2970.17
2970.17
2918.8
2918.8
2868.14
2868.14
2818.01
2818.01
2768.27
2768.27
2718.78
2718.78
2669.44
2669.44
2620.15
2620.15
2570.84
2570.84
2521.45
2521.45
2471.94
2471.94
2422.28
2422.28
2372.47
2372.47
2322.5
2322.5
2272.4
2272.4
2222.19
2222.19
2171.93
2171.93
2121.68
2121.68
2071.51
2071.51
2021.5
2021.5
1971.75
1971.75
1922.36
1922.36
1873.46
1873.46
1825.15
1825.15
1777.57
1777.57
1730.84
1730.84
1685.09
1685.09
1640.45
1640.45
1597.05
1597.05
1554.99
1554.99
1514.39
1514.39
1475.35
1475.35
1437.93
1437.93
1402.22
1402.22
1368.24
1368.24
1336.03
1336.03
1305.6
1305.6
1276.93
1276.93
1249.98
1249.98
1224.7
1224.7
1201.01
1201.01
1178.84
1178.84
1158.08
1158.08
1138.63
1138.63
1120.37
1120.37
1103.18
1103.18
1086.95
1086.95
1071.56
1071.56
1056.9
1056.9
1042.85
1042.85
1029.32
1029.32
1016.21
1016.21
1003.43
1003.43
990.915
990.915
978.586
978.586
966.385
966.385
954.26
954.26
942.168
942.168
930.074
930.074
917.948
917.948
905.769
905.769
893.518
893.518
881.187
881.187
868.767
868.767
856.256
856.256
843.656
843.656
830.969
830.969
818.202
818.202
805.363
805.363
792.462
792.462
779.508
779.508
766.515
766.515
753.495
753.495
740.458
740.458
727.42
727.42
714.391
714.391
701.385
701.385
688.414
688.414
675.488
675.488
662.621
662.621
649.821
649.821
637.1
637.1
624.466
624.466
611.929
611.929
599.497
599.497
587.178
587.178
574.977
574.977
562.902
562.903
550.959
550.959
539.153
539.153
527.487
527.487
515.967
515.967
504.596
504.596
493.377
493.377
482.312
482.313
471.406
471.406
460.658
460.658
450.071
450.071
439.647
439.647
429.386
429.386
419.29
419.29
409.358
409.358
399.592
399.592
389.991
389.991
380.555
380.555
371.285
371.285
362.18
362.18
353.239
353.24
344.463
344.463
335.849
335.849
327.398
327.398
319.108
319.108
310.979
310.979
303.01
303.01
295.2
295.2
287.547
287.547
280.051
280.051
272.71
272.71
265.525
265.525
258.492
258.492
251.612
251.612
244.883
244.883
238.304
238.304
231.874
231.874
225.591
225.591
219.453
219.453
213.46
213.46
207.61
207.61
201.9
201.9
196.328
196.328
190.892
190.892
185.59
185.59
180.419
180.419
175.377
175.377
170.461
170.461
165.668
165.668
160.995
160.995
156.441
156.441
152.003
152.004
147.679
147.679
143.467
143.467
139.364
139.364
135.369
135.369
131.48
131.48
127.694
127.694
124.011
124.011
120.428
120.428
116.943
116.943
113.554
113.555
110.26
110.261
107.059
107.059
103.948
103.948
100.926
100.926
97.9904
97.9905
95.1399
95.14
92.3727
92.3728
89.6871
89.6872
87.0818
87.0819
84.5552
84.5553
82.106
82.1061
79.7329
79.733
77.4347
77.4349
75.2103
75.2104
73.0583
73.0585
70.9777
70.9778
68.9672
68.9673
67.0254
67.0255
65.1509
65.151
63.3423
63.3424
61.5979
61.598
59.9159
59.916
58.2946
58.2947
56.7321
56.7322
55.2265
55.2267
53.7762
53.7763
52.3794
52.3795
51.0343
51.0344
49.7392
49.7393
48.4921
48.4922
47.2912
47.2914
46.1344
46.1345
45.0194
45.0195
43.9439
43.944
42.9053
42.9055
41.9013
41.9014
40.9293
40.9294
39.987
39.9871
39.0724
39.0725
38.1841
38.1842
37.3207
37.3208
36.4813
36.4814
35.6649
35.665
34.8705
34.8706
34.0967
34.0968
33.342
33.3421
32.6048
32.6049
31.8835
31.8836
31.1771
31.1772
30.4845
30.4846
29.805
29.8051
29.138
29.1381
28.4833
28.4834
27.841
27.8411
27.2115
27.2116
26.5953
26.5954
25.993
25.9931
25.4047
25.4049
24.8302
24.8304
24.2687
24.2688
23.7188
23.7189
23.1789
23.179
22.6467
22.6468
22.1198
22.1199
21.596
21.5961
21.0742
21.0743
20.554
20.5542
20.0366
20.0367
19.5237
19.5238
19.0177
19.0179
18.5211
18.5213
18.0355
18.0357
17.5618
17.562
17.0998
17.1
16.6492
16.6493
16.2098
16.2099
15.7822
15.7824
15.3677
15.3679
14.9676
14.9679
14.5833
14.5835
14.2157
14.2159
13.8652
13.8654
13.532
13.5321
13.2161
13.2162
12.9174
12.9175
12.6357
12.6358
12.3708
12.3708
12.1223
12.1223
11.8896
11.8894
11.6714
11.6713
11.4664
11.4664
11.2731
11.2734
11.0892
11.0898
10.9122
10.9129
10.7392
10.74
10.5684
10.5691
10.3978
10.3983
10.2253
10.2257
10.0485
10.0489
9.86527
9.86566
9.67439
9.67475
9.4762
9.47654
9.27225
9.27256
9.06495
9.06525
8.85768
8.85795
8.65459
8.65484
8.45944
8.45965
8.27438
8.27457
8.09989
8.10007
7.93594
7.93611
7.78254
7.7827
7.63977
7.63991
7.50765
7.50778
7.38624
7.38636
7.27556
7.27566
7.17524
7.17533
7.08443
7.08449
7.00181
7.00185
6.92598
6.92599
6.85527
6.85525
6.78722
6.78718
6.71862
6.71858
6.64666
6.64665
6.57014
6.57018
6.49002
6.49011
6.4088
6.40895
6.32919
6.32936
6.25309
6.25327
6.182
6.18217
6.11774
6.11787
6.06214
6.06223
6.01642
6.01647
5.98105
5.98107
5.9564
5.9564
5.94341
5.9434
5.94337
5.94338
5.95629
5.95629
5.98083
5.98081
6.01605
6.016
6.06164
6.06156
6.11707
6.11694
6.18112
6.18095
6.25199
6.25181
6.32767
6.3275
6.40665
6.4065
6.48721
6.48712
6.56683
6.56679
6.64297
6.64298
6.71477
6.71481
6.78357
6.78361
6.85207
6.85208
6.92326
6.92324
6.99952
6.99948
7.0825
7.08244
7.17367
7.17359
7.27437
7.27427
7.38545
7.38533
7.50725
7.50711
7.63974
7.63959
7.78288
7.78272
7.93663
7.93647
8.10093
8.10075
8.27577
8.27557
8.46117
8.46095
8.65662
8.65637
8.86002
8.85975
9.06757
9.06728
9.27496
9.27464
9.47875
9.47842
9.67655
9.67619
9.86681
9.86642
10.0495
10.049
10.2258
10.2253
10.3981
10.3975
10.5686
10.5679
10.7394
10.7386
10.9121
10.9114
11.0888
11.0882
11.2722
11.2719
11.4652
11.4651
11.6698
11.6699
11.8879
11.888
12.1206
12.1207
12.3691
12.3691
12.634
12.6339
12.9157
12.9155
13.2144
13.2142
13.5302
13.5301
13.8634
13.8632
14.2139
14.2137
14.5815
14.5813
14.9658
14.9656
15.3659
15.3656
15.7803
15.7801
16.208
16.2078
16.6475
16.6473
17.0982
17.098
17.5601
17.5599
18.0337
18.0335
18.519
18.5189
19.0154
19.0152
19.5211
19.521
20.034
20.0339
20.5514
20.5513
21.0713
21.0712
21.5929
21.5928
22.1164
22.1163
22.6433
22.6432
23.1757
23.1756
23.716
23.7159
24.2664
24.2663
24.8286
24.8285
25.4037
25.4035
25.9923
25.9921
26.5946
26.5945
27.2107
27.2106
27.84
27.8399
28.4821
28.482
29.1366
29.1365
29.8035
29.8033
30.4828
30.4827
31.1754
31.1753
31.8819
31.8818
32.6032
32.6031
33.3405
33.3404
34.0955
34.0954
34.8696
34.8695
35.6644
35.6643
36.4813
36.4812
37.3213
37.3212
38.1851
38.185
39.0737
39.0736
39.9885
39.9884
40.9309
40.9308
41.903
41.9029
42.9071
42.907
43.9458
43.9457
45.0214
45.0213
46.1364
46.1363
47.2932
47.293
48.4938
48.4937
49.7405
49.7404
51.0353
51.0352
52.3801
52.38
53.7767
53.7766
55.2268
55.2267
56.7323
56.7322
58.2948
58.2947
59.9161
59.916
61.5981
61.598
63.3426
63.3424
65.1512
65.1511
67.0258
67.0257
68.9677
68.9676
70.9783
70.9782
73.0589
73.0588
75.2108
75.2107
77.4353
77.4351
79.7334
79.7333
82.1065
82.1064
84.5557
84.5556
87.0822
87.0821
89.6875
89.6874
92.3731
92.373
95.1403
95.1402
97.9908
97.9907
100.926
100.926
103.948
103.948
107.059
107.059
110.261
110.26
113.554
113.554
116.943
116.942
120.427
120.427
124.01
124.01
127.694
127.694
131.479
131.479
135.368
135.368
139.363
139.363
143.466
143.466
147.679
147.678
152.003
152.003
156.44
156.44
160.994
160.994
165.666
165.666
170.459
170.459
175.376
175.376
180.418
180.418
185.589
185.589
190.891
190.891
196.327
196.327
201.898
201.898
207.608
207.608
213.459
213.459
219.452
219.452
225.589
225.589
231.872
231.872
238.302
238.302
244.881
244.881
251.61
251.61
258.49
258.49
265.522
265.522
272.708
272.708
280.048
280.048
287.544
287.544
295.197
295.196
303.007
303.007
310.976
310.976
319.105
319.105
327.394
327.394
335.846
335.846
344.459
344.459
353.236
353.236
362.177
362.177
371.282
371.282
380.553
380.553
389.988
389.988
399.589
399.589
409.356
409.356
419.288
419.288
429.385
429.385
439.645
439.645
450.07
450.069
460.656
460.656
471.404
471.403
482.31
482.31
493.374
493.374
504.593
504.593
515.965
515.965
527.485
527.485
539.15
539.15
550.956
550.956
562.899
562.899
574.972
574.972
587.171
587.171
599.49
599.49
611.921
611.921
624.456
624.456
637.088
637.088
649.807
649.807
662.604
662.603
675.468
675.468
688.391
688.391
701.361
701.361
714.366
714.366
727.394
727.394
740.432
740.432
753.467
753.467
766.488
766.488
779.48
779.48
792.433
792.433
805.334
805.334
818.171
818.171
830.936
830.936
843.623
843.623
856.223
856.223
868.733
868.733
881.153
881.153
893.486
893.486
905.737
905.737
917.917
917.917
930.042
930.042
942.134
942.134
954.22
954.22
966.336
966.336
978.526
978.526
990.844
990.844
1003.35
1003.35
1016.12
1016.12
1029.23
1029.23
1042.76
1042.76
1056.8
1056.8
1071.46
1071.46
1086.84
1086.84
1103.06
1103.06
1120.24
1120.24
1138.49
1138.49
1157.94
1157.94
1178.69
1178.69
1200.86
1200.86
1224.54
1224.54
1249.82
1249.82
1276.76
1276.76
1305.43
1305.43
1335.86
1335.86
1368.06
1368.06
1402.03
1402.03
1437.75
1437.75
1475.16
1475.16
1514.2
1514.2
1554.8
1554.8
1596.86
1596.86
1640.27
1640.27
1684.91
1684.91
1730.66
1730.66
1777.39
1777.39
1824.98
1824.98
1873.29
1873.29
1922.21
1922.21
1971.6
1971.6
2021.36
2021.36
2071.39
2071.39
2121.58
2121.58
2171.86
2171.86
2222.14
2222.14
2272.37
2272.37
2322.48
2322.48
2372.47
2372.47
2422.31
2422.31
2471.99
2471.99
2521.52
2521.52
2570.93
2570.93
2620.27
2620.27
2669.57
2669.57
2718.93
2718.93
2768.43
2768.43
2818.19
2818.19
2868.34
2868.33
2919.01
2919.01
2970.38
2970.38
3022.66
3022.65
3076.05
3076.05
3130.8
3130.8
3187.21
3187.21
3245.57
3245.57
3306.26
3306.26
3369.68
3369.68
3436.3
3436.3
3506.65
3506.65
3581.34
3581.34
3661.08
3661.08
3746.72
3746.72
3839.23
3839.23
3939.79
3939.79
4049.83
4049.83
4171.05
4171.05
4305.6
4305.6
4456.12
4456.12
4625.97
4625.97
4819.5
4819.5
5042.41
5042.41
5302.34
5302.34
5609.84
5609.84
5979.81
5979.81
6434.11
6434.11
7006.15
7006.15
7749.51
7749.51
8755.8
8755.8
10194.3
10194.3
12410.6
12410.6
16203.7
16203.7
23691.8
23691.8
41114.1
41114.1
88856.4
88856.4
264874
264874
1.52417e+06
1.52417e+06
5.94337
5.94336
5.9563
5.9563
5.98083
5.98085
6.01602
6.01607
6.06158
6.06167
6.11697
6.1171
6.18098
6.18114
6.25184
6.25201
6.32752
6.32769
6.40652
6.40666
6.48713
6.48721
6.56678
6.56682
6.64295
6.64294
6.71477
6.71473
6.78356
6.78352
6.85203
6.85201
6.92318
6.9232
6.99942
6.99946
7.08238
7.08245
7.17354
7.17363
7.27424
7.27434
7.3853
7.38543
7.5071
7.50723
7.63959
7.63974
7.78273
7.78288
7.93648
7.93664
8.10077
8.10095
8.2756
8.2758
8.461
8.46122
8.65643
8.65667
8.85981
8.86008
9.06734
9.06763
9.2747
9.27501
9.47846
9.47879
9.67621
9.67657
9.86642
9.86681
10.049
10.0494
10.2253
10.2258
10.3974
10.398
10.5679
10.5685
10.7385
10.7393
10.9113
10.912
11.0882
11.0888
11.2718
11.2722
11.465
11.4651
11.6699
11.6698
11.8879
11.8878
12.1206
12.1206
12.3691
12.3691
12.6339
12.6339
12.9155
12.9156
13.2142
13.2143
13.5301
13.5302
13.8632
13.8634
14.2137
14.2139
14.5813
14.5816
14.9657
14.9659
15.3657
15.3659
15.7802
15.7804
16.2078
16.208
16.6474
16.6475
17.0981
17.0982
17.56
17.5601
18.0336
18.0337
18.5189
18.5191
19.0153
19.0154
19.521
19.5212
20.0339
20.034
20.5513
20.5514
21.0712
21.0713
21.5928
21.5929
22.1163
22.1164
22.6432
22.6433
23.1755
23.1756
23.7159
23.716
24.2663
24.2664
24.8284
24.8285
25.4035
25.4036
25.9921
25.9922
26.5944
26.5946
27.2105
27.2106
27.8398
27.8399
28.4818
28.482
29.1364
29.1365
29.8032
29.8033
30.4826
30.4827
31.1751
31.1753
31.8816
31.8817
32.6029
32.603
33.3402
33.3403
34.0952
34.0953
34.8693
34.8694
35.6641
35.6642
36.481
36.4812
37.321
37.3211
38.1848
38.1849
39.0734
39.0736
39.9882
39.9883
40.9306
40.9307
41.9027
41.9028
42.9068
42.907
43.9455
43.9456
45.0211
45.0212
46.1361
46.1362
47.2929
47.293
48.4935
48.4936
49.7402
49.7403
51.0351
51.0352
52.3798
52.3799
53.7764
53.7765
55.2266
55.2267
56.732
56.7321
58.2945
58.2946
59.9159
59.916
61.5979
61.598
63.3423
63.3424
65.151
65.1511
67.0256
67.0257
68.9674
68.9676
70.9781
70.9782
73.0587
73.0588
75.2106
75.2107
77.435
77.4352
79.7332
79.7333
82.1063
82.1064
84.5555
84.5556
87.082
87.0821
89.6873
89.6875
92.3729
92.373
95.1401
95.1402
97.9907
97.9908
100.926
100.926
103.948
103.948
107.059
107.059
110.26
110.26
113.554
113.554
116.942
116.943
120.427
120.427
124.01
124.01
127.693
127.694
131.479
131.479
135.368
135.368
139.363
139.363
143.466
143.466
147.678
147.679
152.003
152.003
156.44
156.44
160.994
160.994
165.666
165.666
170.459
170.459
175.376
175.376
180.418
180.418
185.589
185.589
190.891
190.891
196.326
196.327
201.898
201.898
207.608
207.608
213.459
213.459
219.452
219.452
225.589
225.589
231.872
231.872
238.302
238.302
244.881
244.881
251.61
251.61
258.49
258.49
265.522
265.522
272.708
272.708
280.048
280.048
287.544
287.544
295.196
295.196
303.007
303.007
310.976
310.976
319.105
319.105
327.394
327.394
335.846
335.846
344.459
344.459
353.236
353.236
362.177
362.177
371.282
371.282
380.553
380.553
389.988
389.988
399.589
399.589
409.356
409.356
419.288
419.288
429.385
429.385
439.645
439.645
450.069
450.069
460.656
460.656
471.403
471.403
482.31
482.31
493.374
493.374
504.593
504.593
515.965
515.965
527.485
527.485
539.15
539.15
550.956
550.956
562.898
562.898
574.972
574.972
587.171
587.171
599.49
599.49
611.921
611.921
624.456
624.456
637.088
637.088
649.807
649.807
662.603
662.603
675.468
675.468
688.391
688.391
701.361
701.361
714.366
714.366
727.394
727.394
740.432
740.432
753.467
753.467
766.488
766.488
779.48
779.48
792.433
792.433
805.334
805.334
818.171
818.171
830.936
830.936
843.622
843.622
856.223
856.223
868.733
868.733
881.153
881.153
893.486
893.486
905.737
905.737
917.917
917.917
930.042
930.042
942.134
942.134
954.22
954.22
966.336
966.336
978.526
978.526
990.844
990.844
1003.35
1003.35
1016.12
1016.12
1029.23
1029.23
1042.76
1042.76
1056.8
1056.8
1071.46
1071.46
1086.84
1086.84
1103.06
1103.06
1120.24
1120.24
1138.49
1138.49
1157.94
1157.94
1178.69
1178.69
1200.86
1200.86
1224.54
1224.54
1249.82
1249.82
1276.76
1276.76
1305.43
1305.43
1335.86
1335.86
1368.06
1368.06
1402.03
1402.03
1437.75
1437.75
1475.16
1475.16
1514.2
1514.2
1554.8
1554.8
1596.86
1596.86
1640.27
1640.27
1684.91
1684.91
1730.66
1730.66
1777.39
1777.39
1824.98
1824.98
1873.29
1873.29
1922.21
1922.21
1971.6
1971.6
2021.36
2021.36
2071.39
2071.39
2121.58
2121.58
2171.86
2171.86
2222.14
2222.14
2272.37
2272.37
2322.48
2322.48
2372.47
2372.47
2422.31
2422.31
2471.99
2471.99
2521.52
2521.52
2570.93
2570.93
2620.26
2620.27
2669.57
2669.57
2718.93
2718.93
2768.43
2768.43
2818.19
2818.19
2868.33
2868.33
2919.01
2919.01
2970.38
2970.38
3022.65
3022.65
3076.04
3076.05
3130.8
3130.8
3187.21
3187.21
3245.57
3245.57
3306.26
3306.26
3369.68
3369.68
3436.3
3436.3
3506.65
3506.65
3581.34
3581.34
3661.08
3661.08
3746.72
3746.72
3839.23
3839.23
3939.79
3939.79
4049.83
4049.83
4171.05
4171.05
4305.6
4305.6
4456.12
4456.12
4625.97
4625.97
4819.5
4819.5
5042.41
5042.41
5302.34
5302.34
5609.84
5609.84
5979.8
5979.81
6434.11
6434.11
7006.15
7006.15
7749.51
7749.51
8755.8
8755.8
10194.3
10194.3
12410.6
12410.6
16203.7
16203.7
23691.8
23691.8
41114.1
41114.1
88856.4
88856.4
264874
264874
1.52417e+06
1.52417e+06
)
;

boundaryField
{
    walls
    {
        blending        binomial2;
        n               2;
        beta1           0.075;
        type            omegaWallFunction;
        value           nonuniform List<scalar> 8(1.52416e+06 1.52416e+06 1.52416e+06 1.52416e+06 1.52417e+06 1.52417e+06 1.52417e+06 1.52417e+06);
    }
    inlet
    {
        type            cyclic;
    }
    outlet
    {
        type            cyclic;
    }
    sides
    {
        type            empty;
    }
}


// ************************************************************************* //
