/*--------------------------------*- C++ -*----------------------------------*\
| =========                 |                                                 |
| \\      /  F ield         | OpenFOAM: The Open Source CFD Toolbox           |
|  \\    /   O peration     | Version:  2012                                  |
|   \\  /    A nd           | Website:  www.openfoam.com                      |
|    \\/     M anipulation  |                                                 |
\*---------------------------------------------------------------------------*/
FoamFile
{
    version     2.0;
    format      ascii;
    class       volSymmTensorField;
    location    "13200";
    object      turbulenceProperties:R;
}
// * * * * * * * * * * * * * * * * * * * * * * * * * * * * * * * * * * * * * //

dimensions      [0 2 -2 0 0 0 0];


internalField   nonuniform List<symmTensor> 
2560
(
(0.00259002 -2.86862e-06 -4.15497e-09 0.00259002 2.41559e-11 0.00259002)
(0.00259003 -2.86863e-06 -4.15498e-09 0.00259003 1.32647e-15 0.00259003)
(0.0594503 -0.000378415 -1.653e-06 0.0594503 -1.21941e-13 0.0594503)
(0.0594503 -0.000378417 -1.653e-06 0.0594503 4.91064e-13 0.0594503)
(0.418994 -0.00793974 -4.76306e-05 0.418994 -1.79056e-08 0.418994)
(0.418995 -0.00793977 -4.76308e-05 0.418995 1.87359e-11 0.418995)
(1.39823 -0.0571837 -0.000348019 1.39823 -1.83911e-07 1.39823)
(1.39823 -0.0571839 -0.000348021 1.39823 1.51841e-10 1.39823)
(2.86689 -0.203172 -0.00125443 2.86689 -4.91174e-07 2.86689)
(2.86689 -0.203172 -0.00125443 2.86689 4.16365e-10 2.86689)
(4.39343 -0.454546 -0.00284722 4.39343 -5.85707e-07 4.39343)
(4.39343 -0.454547 -0.00284723 4.39343 7.57043e-10 4.39343)
(5.80131 -0.782441 -0.00497239 5.80131 -5.13571e-07 5.80131)
(5.80131 -0.782442 -0.0049724 5.80131 1.34822e-09 5.80131)
(7.08256 -1.16117 -0.00748668 7.08256 -4.20818e-07 7.08256)
(7.08256 -1.16117 -0.00748669 7.08256 2.3175e-09 7.08256)
(8.26148 -1.57469 -0.010301 8.26148 -3.47322e-07 8.26148)
(8.26148 -1.5747 -0.010301 8.26148 3.67981e-09 8.26148)
(9.36052 -2.01317 -0.0133617 9.36052 -2.93912e-07 9.36052)
(9.36052 -2.01317 -0.0133617 9.36052 5.35606e-09 9.36052)
(10.3963 -2.47024 -0.0166351 10.3963 -2.55776e-07 10.3963)
(10.3963 -2.47024 -0.0166351 10.3963 7.42695e-09 10.3963)
(11.3808 -2.94157 -0.020099 11.3808 -2.29031e-07 11.3808)
(11.3808 -2.94157 -0.020099 11.3808 9.86169e-09 11.3808)
(12.3225 -3.42412 -0.0237387 12.3225 -2.1106e-07 12.3225)
(12.3225 -3.42412 -0.0237387 12.3225 1.26834e-08 12.3225)
(13.2277 -3.91564 -0.027544 13.2277 -2.00207e-07 13.2277)
(13.2277 -3.91564 -0.027544 13.2277 1.59575e-08 13.2277)
(14.101 -4.41444 -0.0315078 14.101 -1.95482e-07 14.101)
(14.101 -4.41444 -0.0315078 14.101 1.96703e-08 14.101)
(14.9458 -4.91921 -0.0356249 14.9458 -1.96244e-07 14.9458)
(14.9458 -4.91921 -0.0356249 14.9458 2.38721e-08 14.9458)
(15.7647 -5.42886 -0.0398916 15.7647 -2.02215e-07 15.7647)
(15.7647 -5.42886 -0.0398916 15.7647 2.85379e-08 15.7647)
(16.5595 -5.94248 -0.0443049 16.5595 -2.13242e-07 16.5595)
(16.5595 -5.94248 -0.0443049 16.5595 3.37836e-08 16.5595)
(17.3316 -6.45924 -0.0488621 17.3316 -2.29331e-07 17.3316)
(17.3316 -6.45924 -0.0488621 17.3316 3.96102e-08 17.3316)
(18.0819 -6.97835 -0.0535604 18.0819 -2.50621e-07 18.0819)
(18.0819 -6.97835 -0.0535604 18.0819 4.59308e-08 18.0819)
(18.8109 -7.49902 -0.0583967 18.8109 -2.77308e-07 18.8109)
(18.8109 -7.49902 -0.0583966 18.8109 -7.11894e-08 18.8109)
(19.519 -8.0204 -0.0633669 19.519 -3.09657e-07 19.519)
(19.519 -8.0204 -0.0633669 19.519 -2.91361e-07 19.519)
(20.2062 -8.54157 -0.0684664 20.2062 -3.47931e-07 20.2062)
(20.2062 -8.54157 -0.0684664 20.2062 -3.48252e-07 20.2062)
(20.8724 -9.06153 -0.0736892 20.8724 -3.92646e-07 20.8724)
(20.8724 -9.06153 -0.0736891 20.8724 -3.92988e-07 20.8724)
(21.5172 -9.57916 -0.0790277 21.5172 -3.01832e-07 21.5172)
(21.5172 -9.57916 -0.0790277 21.5172 -4.44393e-07 21.5172)
(22.1401 -10.0932 -0.0844727 22.1401 -1.46253e-07 22.1401)
(22.1401 -10.0932 -0.0844726 22.1401 -5.03105e-07 22.1401)
(22.7405 -10.6022 -0.0900133 22.7405 -1.16582e-07 22.7405)
(22.7405 -10.6022 -0.0900133 22.7405 -5.69385e-07 22.7405)
(23.3176 -11.1048 -0.0956371 23.3176 -1.29561e-07 23.3176)
(23.3176 -11.1047 -0.0956371 23.3176 -6.44077e-07 23.3176)
(23.8705 -11.5991 -0.101329 23.8705 -1.43095e-07 23.8705)
(23.8705 -11.5991 -0.101329 23.8705 -7.27345e-07 23.8705)
(24.3984 -12.0833 -0.107071 24.3984 -1.57427e-07 24.3984)
(24.3984 -12.0833 -0.107071 24.3984 -8.20249e-07 24.3984)
(24.9 -12.5555 -0.112844 24.9 -1.72528e-07 24.9)
(24.9 -12.5555 -0.112844 24.9 -9.22899e-07 24.9)
(25.3745 -13.0136 -0.118626 25.3745 -1.89314e-07 25.3745)
(25.3744 -13.0136 -0.118626 25.3744 -1.03655e-06 25.3744)
(25.8205 -13.4552 -0.124394 25.8205 -2.06582e-07 25.8205)
(25.8205 -13.4552 -0.124394 25.8205 -1.04613e-06 25.8205)
(26.237 -13.8781 -0.13012 26.237 -2.24774e-07 26.237)
(26.237 -13.8781 -0.13012 26.237 -3.51119e-10 26.237)
(26.6227 -14.2798 -0.135776 26.6227 -2.44112e-07 26.6227)
(26.6227 -14.2798 -0.135776 26.6227 2.11019e-08 26.6227)
(26.9766 -14.6578 -0.141332 26.9766 -2.65191e-07 26.9766)
(26.9766 -14.6578 -0.141332 26.9766 7.8137e-09 26.9766)
(27.2974 -15.0096 -0.146753 27.2974 -2.86819e-07 27.2974)
(27.2974 -15.0095 -0.146753 27.2974 -4.77638e-09 27.2974)
(27.5841 -15.3324 -0.152005 27.5841 -3.09455e-07 27.5841)
(27.5841 -15.3324 -0.152005 27.5841 -1.72939e-08 27.5841)
(27.8357 -15.6238 -0.157052 27.8357 -3.33438e-07 27.8357)
(27.8357 -15.6238 -0.157052 27.8357 -2.94922e-08 27.8357)
(28.0513 -15.8813 -0.161857 28.0513 -3.59394e-07 28.0513)
(28.0513 -15.8813 -0.161857 28.0513 -4.17335e-08 28.0513)
(28.2301 -16.1024 -0.16638 28.2301 -3.86202e-07 28.2301)
(28.2301 -16.1024 -0.16638 28.2301 -5.3462e-08 28.2301)
(28.3714 -16.2846 -0.170582 28.3714 -4.13819e-07 28.3714)
(28.3714 -16.2846 -0.170582 28.3714 -6.5103e-08 28.3714)
(28.4748 -16.4257 -0.174422 28.4748 -4.43024e-07 28.4748)
(28.4748 -16.4257 -0.174422 28.4748 -7.65012e-08 28.4748)
(28.5398 -16.5237 -0.177861 28.5398 -4.74499e-07 28.5398)
(28.5398 -16.5237 -0.177861 28.5398 -8.82894e-08 28.5398)
(28.5665 -16.5766 -0.180859 28.5665 -5.06159e-07 28.5665)
(28.5665 -16.5766 -0.180859 28.5665 -9.88767e-08 28.5665)
(28.5549 -16.5828 -0.183377 28.5549 -5.40182e-07 28.5549)
(28.5549 -16.5828 -0.183377 28.5549 -1.10592e-07 28.5549)
(28.5055 -16.5409 -0.185378 28.5055 -5.74061e-07 28.5055)
(28.5055 -16.5409 -0.185378 28.5055 -1.20767e-07 28.5055)
(28.4189 -16.4496 -0.186825 28.4189 -6.12795e-07 28.4189)
(28.4189 -16.4496 -0.186825 28.4189 -1.32413e-07 28.4189)
(28.296 -16.3081 -0.187684 28.296 -6.4965e-07 28.296)
(28.2959 -16.3081 -0.187684 28.2959 -1.4197e-07 28.2959)
(28.138 -16.1157 -0.187924 28.138 -6.85337e-07 28.138)
(28.1379 -16.1157 -0.187924 28.1379 -1.51792e-07 28.1379)
(27.9464 -15.8725 -0.187521 27.9464 -7.29105e-07 27.9464)
(27.9464 -15.8725 -0.187521 27.9464 -2.86203e-07 27.9464)
(27.7232 -15.5786 -0.186444 27.7232 -7.73284e-07 27.7232)
(27.7232 -15.5786 -0.186444 27.7232 -6.05841e-07 27.7232)
(27.4704 -15.2339 -0.18467 27.4704 -8.06775e-07 27.4704)
(27.4704 -15.2339 -0.18467 27.4704 -8.12053e-07 27.4704)
(27.1906 -14.8397 -0.18219 27.1906 -8.59122e-07 27.1906)
(27.1906 -14.8397 -0.18219 27.1906 -8.63647e-07 27.1906)
(26.8864 -14.3971 -0.178981 26.8864 -8.99813e-07 26.8864)
(26.8864 -14.3971 -0.178981 26.8864 -9.03142e-07 26.8864)
(26.561 -13.9071 -0.175037 26.561 -9.47595e-07 26.561)
(26.561 -13.9071 -0.175037 26.561 -9.48444e-07 26.561)
(26.2178 -13.3717 -0.170354 26.2178 -9.95586e-07 26.2178)
(26.2178 -13.3717 -0.170354 26.2178 -9.97496e-07 26.2178)
(25.8602 -12.793 -0.164929 25.8602 -1.03375e-06 25.8602)
(25.8602 -12.793 -0.164929 25.8602 -1.0382e-06 25.8602)
(25.4921 -12.1732 -0.15877 25.4921 -1.08533e-06 25.4921)
(25.4921 -12.1732 -0.15877 25.4921 -1.08847e-06 25.4921)
(25.1174 -11.5148 -0.15188 25.1174 -1.12901e-06 25.1174)
(25.1174 -11.5148 -0.15188 25.1174 -1.13267e-06 25.1174)
(24.7404 -10.8203 -0.144269 24.7404 -1.17915e-06 24.7404)
(24.7403 -10.8203 -0.144269 24.7403 -1.18142e-06 24.7403)
(24.365 -10.0923 -0.135948 24.365 -1.21489e-06 24.365)
(24.365 -10.0923 -0.135948 24.365 -1.21743e-06 24.365)
(23.9957 -9.33377 -0.126939 23.9957 -1.25565e-06 23.9957)
(23.9957 -9.33377 -0.126939 23.9957 -1.25833e-06 23.9957)
(23.6366 -8.54778 -0.117262 23.6366 -1.30619e-06 23.6366)
(23.6366 -8.54778 -0.117262 23.6366 -1.30902e-06 23.6366)
(23.2916 -7.73685 -0.106925 23.2916 -1.33487e-06 23.2916)
(23.2916 -7.73684 -0.106925 23.2916 -1.33582e-06 23.2916)
(22.9648 -6.90371 -0.0959602 22.9648 -1.36718e-06 22.9648)
(22.9648 -6.90371 -0.0959602 22.9648 -1.37148e-06 22.9648)
(22.6596 -6.05145 -0.0843894 22.6596 -1.40398e-06 22.6596)
(22.6596 -6.05145 -0.0843894 22.6596 -1.40862e-06 22.6596)
(22.3795 -5.18261 -0.0722316 22.3795 -1.42297e-06 22.3795)
(22.3795 -5.18261 -0.0722316 22.3795 -1.43442e-06 22.3795)
(22.1274 -4.29966 -0.0595117 22.1274 -1.4603e-06 22.1274)
(22.1274 -4.29966 -0.0595117 22.1274 -1.47217e-06 22.1274)
(21.9056 -3.40516 -0.0462535 21.9056 -1.45571e-06 21.9056)
(21.9056 -3.40516 -0.0462535 21.9056 -1.47627e-06 21.9056)
(21.7161 -2.50179 -0.0324898 21.7161 -1.49943e-06 21.7161)
(21.7161 -2.50179 -0.0324898 21.7161 -1.51661e-06 21.7161)
(21.5603 -1.59201 -0.01824 21.5603 -1.49125e-06 21.5603)
(21.5603 -1.59201 -0.0182399 21.5603 -1.51302e-06 21.5603)
(21.4389 -0.432884 -0.00354355 21.4389 -1.52716e-06 21.4389)
(21.4389 -0.43288 -0.00354352 21.4389 -1.54112e-06 21.4389)
(21.3522 0.000211614 -1.75744e-06 21.3522 -1.52294e-06 21.3522)
(21.3522 0.000214407 -1.78063e-06 21.3522 -1.54089e-06 21.3522)
(21.2997 1.14879 -0.0117834 21.2997 -1.55251e-06 21.2997)
(21.2997 1.1488 -0.0117834 21.2997 -1.56207e-06 21.2997)
(21.2803 2.0566 -0.0275775 21.2803 -1.54459e-06 21.2803)
(21.2803 2.05661 -0.0275776 21.2803 -1.55959e-06 21.2803)
(21.2926 2.95597 -0.0437241 21.2926 -1.57154e-06 21.2926)
(21.2926 2.95597 -0.0437242 21.2926 -1.57479e-06 21.2926)
(21.3344 3.84296 -0.0601546 21.3344 -1.57802e-06 21.3344)
(21.3344 3.84296 -0.0601546 21.3344 -1.58147e-06 21.3344)
(21.4032 4.71378 -0.0767998 21.4032 -1.5933e-06 21.4032)
(21.4032 4.71378 -0.0767999 21.4032 -1.60047e-06 21.4032)
(21.4961 5.56446 -0.0935883 21.4961 -1.6178e-06 21.4961)
(21.4961 5.56446 -0.0935883 21.4961 -1.6204e-06 21.4961)
(21.61 6.39067 -0.110435 21.61 -1.61615e-06 21.61)
(21.61 6.39068 -0.110435 21.61 -1.63372e-06 21.61)
(21.7414 7.18788 -0.127247 21.7414 -1.66352e-06 21.7414)
(21.7414 7.18788 -0.127247 21.7414 -1.67384e-06 21.7414)
(21.8868 7.95192 -0.143922 21.8868 -1.66449e-06 21.8868)
(21.8868 7.95192 -0.143922 21.8868 -1.68589e-06 21.8868)
(22.0426 8.67877 -0.160372 22.0426 -1.71686e-06 22.0426)
(22.0426 8.67877 -0.160372 22.0426 -1.72444e-06 22.0426)
(22.2052 9.36433 -0.176489 22.2052 -1.74238e-06 22.2052)
(22.2052 9.36433 -0.176489 22.2052 -1.75934e-06 22.2052)
(22.371 10.0053 -0.192174 22.371 -1.79886e-06 22.371)
(22.3711 10.0053 -0.192174 22.3711 -1.80463e-06 22.3711)
(22.5368 10.5988 -0.207339 22.5367 -1.8219e-06 22.5368)
(22.5368 10.5988 -0.207339 22.5368 -1.84151e-06 22.5368)
(22.6991 11.1424 -0.2219 22.6991 -1.88715e-06 22.6991)
(22.6991 11.1424 -0.2219 22.6991 -1.89454e-06 22.6991)
(22.855 11.634 -0.235772 22.855 -1.90831e-06 22.855)
(22.855 11.634 -0.235772 22.855 -1.9307e-06 22.855)
(23.0017 12.0722 -0.248883 23.0017 -1.98826e-06 23.0017)
(23.0017 12.0722 -0.248883 23.0017 -1.99516e-06 23.0017)
(23.1368 12.4562 -0.261165 23.1368 -2.03094e-06 23.1368)
(23.1368 12.4562 -0.261165 23.1368 -2.04779e-06 23.1368)
(23.2581 12.7862 -0.272573 23.2581 -2.10128e-06 23.2581)
(23.2581 12.7862 -0.272573 23.2581 -2.10298e-06 23.2581)
(23.3636 13.0627 -0.283075 23.3636 -2.13944e-06 23.3636)
(23.3636 13.0627 -0.283075 23.3636 -2.15297e-06 23.3636)
(23.4517 13.2865 -0.292641 23.4517 -2.20624e-06 23.4517)
(23.4517 13.2865 -0.292641 23.4517 -2.21482e-06 23.4517)
(23.5211 13.4592 -0.301247 23.5211 -2.28579e-06 23.5211)
(23.5211 13.4592 -0.301247 23.5211 -2.28759e-06 23.5211)
(23.5708 13.583 -0.308894 23.5708 -2.308e-06 23.5708)
(23.5708 13.583 -0.308894 23.5708 -2.32892e-06 23.5708)
(23.6 13.6602 -0.315598 23.6 -2.3885e-06 23.6)
(23.6 13.6602 -0.315598 23.6 -2.39036e-06 23.6)
(23.6083 13.6931 -0.321359 23.6083 -2.44334e-06 23.6083)
(23.6083 13.6931 -0.321359 23.6083 -2.44523e-06 23.6083)
(23.5953 13.6848 -0.326202 23.5953 -2.48625e-06 23.5953)
(23.5953 13.6848 -0.326202 23.5953 -2.5042e-06 23.5953)
(23.5611 13.6383 -0.330165 23.5611 -2.5709e-06 23.5611)
(23.5611 13.6383 -0.330165 23.5611 -2.57614e-06 23.5611)
(23.5056 13.557 -0.33328 23.5056 -2.58678e-06 23.5056)
(23.5056 13.557 -0.33328 23.5056 -2.60966e-06 23.5056)
(23.4294 13.4439 -0.335596 23.4294 -2.64773e-06 23.4294)
(23.4294 13.4439 -0.335596 23.4294 -2.64974e-06 23.4294)
(23.3328 13.3021 -0.33715 23.3328 -2.70174e-06 23.3328)
(23.3328 13.3021 -0.33715 23.3328 -2.70376e-06 23.3328)
(23.2164 13.1347 -0.33799 23.2164 -2.73982e-06 23.2164)
(23.2164 13.1347 -0.33799 23.2164 -2.74189e-06 23.2164)
(23.0809 12.945 -0.33817 23.0809 -2.77528e-06 23.0809)
(23.0809 12.945 -0.33817 23.0809 -2.79075e-06 23.0809)
(22.9272 12.7357 -0.337737 22.9272 -2.82745e-06 22.9272)
(22.9272 12.7357 -0.337737 22.9272 -2.82956e-06 22.9272)
(22.756 12.5099 -0.336748 22.756 -2.8343e-06 22.756)
(22.756 12.5099 -0.336748 22.756 -2.85738e-06 22.756)
(22.5684 12.2699 -0.335252 22.5684 -2.8937e-06 22.5684)
(22.5684 12.2699 -0.335252 22.5684 -2.89646e-06 22.5684)
(22.3652 12.0184 -0.333292 22.3652 -2.89063e-06 22.3652)
(22.3652 12.0184 -0.333292 22.3652 -2.91105e-06 22.3652)
(22.1474 11.7576 -0.330925 22.1473 -2.91536e-06 22.1474)
(22.1473 11.7576 -0.330925 22.1474 -2.91757e-06 22.1473)
(21.916 11.4893 -0.328191 21.916 -2.94825e-06 21.916)
(21.916 11.4893 -0.328191 21.916 -2.95045e-06 21.916)
(21.672 11.2156 -0.325126 21.672 -2.94796e-06 21.672)
(21.672 11.2156 -0.325126 21.672 -2.95023e-06 21.672)
(21.4163 10.9384 -0.321781 21.4163 -2.94777e-06 21.4163)
(21.4163 10.9384 -0.321781 21.4163 -2.96817e-06 21.4163)
(21.1501 10.6589 -0.318193 21.1501 -2.96941e-06 21.1501)
(21.1501 10.6589 -0.318193 21.1501 -2.97718e-06 21.1501)
(20.8741 10.3785 -0.314392 20.8741 -2.92571e-06 20.8741)
(20.8741 10.3785 -0.314392 20.8741 -2.96539e-06 20.8741)
(20.5894 10.0985 -0.31041 20.5894 -2.96674e-06 20.5894)
(20.5894 10.0985 -0.31041 20.5894 -2.99403e-06 20.5894)
(20.2967 9.81993 -0.306279 20.2967 -2.90015e-06 20.2967)
(20.2967 9.81993 -0.306279 20.2967 -2.95489e-06 20.2967)
(19.9971 9.54365 -0.302027 19.9971 -2.93461e-06 19.9971)
(19.9971 9.54365 -0.302027 19.9971 -2.97303e-06 19.9971)
(19.6913 9.27046 -0.297677 19.6913 -2.838e-06 19.6913)
(19.6913 9.27046 -0.297677 19.6913 -2.9059e-06 19.6913)
(19.38 9.00095 -0.293252 19.38 -2.89461e-06 19.38)
(19.38 9.00095 -0.293252 19.38 -2.94511e-06 19.38)
(19.0641 8.73562 -0.288765 19.0641 -2.79335e-06 19.0641)
(19.0641 8.73562 -0.288765 19.0641 -2.86221e-06 19.0641)
(18.7442 8.475 -0.284238 18.7442 -2.83297e-06 18.7442)
(18.7442 8.475 -0.284238 18.7442 -2.87638e-06 18.7442)
(18.4211 8.21948 -0.279687 18.421 -2.73613e-06 18.4211)
(18.421 8.21948 -0.279687 18.421 -2.79343e-06 18.421)
(18.0952 7.96923 -0.275125 18.0952 -2.74471e-06 18.0952)
(18.0952 7.96924 -0.275125 18.0952 -2.77402e-06 18.0952)
(17.7673 7.72442 -0.270559 17.7673 -2.66722e-06 17.7673)
(17.7673 7.72442 -0.270559 17.7673 -2.71184e-06 17.7673)
(17.4379 7.4852 -0.265997 17.4379 -2.64825e-06 17.4379)
(17.4379 7.4852 -0.265997 17.4379 -2.67568e-06 17.4379)
(17.1075 7.25154 -0.261449 17.1075 -2.5491e-06 17.1075)
(17.1075 7.25154 -0.261449 17.1075 -2.60454e-06 17.1075)
(16.7766 7.02344 -0.256912 16.7766 -2.54718e-06 16.7766)
(16.7766 7.02344 -0.256912 16.7766 -2.59905e-06 16.7766)
(16.4456 6.80091 -0.252396 16.4456 -2.38841e-06 16.4456)
(16.4456 6.80091 -0.252396 16.4456 -2.47287e-06 16.4456)
(16.115 6.58377 -0.2479 16.115 -2.41216e-06 16.115)
(16.115 6.58377 -0.2479 16.115 -2.48853e-06 16.115)
(15.7851 6.3719 -0.243421 15.7851 -2.25305e-06 15.7851)
(15.7851 6.3719 -0.243421 15.7851 -2.35235e-06 15.7851)
(15.4563 6.16526 -0.238962 15.4563 -2.26695e-06 15.4563)
(15.4563 6.16526 -0.238962 15.4563 -2.36215e-06 15.4563)
(15.1289 5.96371 -0.234525 15.1289 -2.05407e-06 15.1289)
(15.1289 5.96371 -0.234525 15.1289 -2.18228e-06 15.1289)
(14.8033 5.76712 -0.230105 14.8033 -2.1022e-06 14.8033)
(14.8033 5.76712 -0.230106 14.8033 -2.23115e-06 14.8033)
(14.4797 5.57538 -0.225705 14.4797 -1.86799e-06 14.4797)
(14.4797 5.57538 -0.225705 14.4797 -2.02473e-06 14.4797)
(14.1584 5.38846 -0.221324 14.1584 -1.92623e-06 14.1584)
(14.1584 5.38846 -0.221325 14.1584 -2.08925e-06 14.1584)
(13.8397 5.2063 -0.216967 13.8397 -1.6362e-06 13.8397)
(13.8397 5.2063 -0.216967 13.8397 -1.83464e-06 13.8397)
(13.5237 5.0288 -0.212634 13.5237 -1.72722e-06 13.5237)
(13.5237 5.0288 -0.212634 13.5237 -1.94042e-06 13.5237)
(13.2107 4.85582 -0.208323 13.2107 -1.37614e-06 13.2107)
(13.2107 4.85582 -0.208323 13.2107 -1.62964e-06 13.2107)
(12.9009 4.68727 -0.204036 12.9009 -1.52116e-06 12.9009)
(12.9009 4.68727 -0.204036 12.9009 -1.79988e-06 12.9009)
(12.5944 4.52298 -0.199769 12.5944 -1.10477e-06 12.5944)
(12.5944 4.52298 -0.199769 12.5944 -1.42614e-06 12.5944)
(12.2914 4.36281 -0.195521 12.2914 -1.30901e-06 12.2914)
(12.2914 4.36281 -0.195521 12.2914 -1.66822e-06 12.2914)
(11.9922 4.20664 -0.19129 11.9922 -7.95861e-07 11.9922)
(11.9922 4.20664 -0.19129 11.9922 -1.20564e-06 11.9922)
(11.6967 4.0543 -0.187073 11.6967 -1.07481e-06 11.6967)
(11.6967 4.0543 -0.187073 11.6967 -1.53608e-06 11.6967)
(11.4051 3.90564 -0.182866 11.4051 -4.61287e-07 11.4051)
(11.4051 3.90564 -0.182866 11.4051 -9.8328e-07 11.4051)
(11.1176 3.76054 -0.178667 11.1176 -8.45346e-07 11.1176)
(11.1176 3.76054 -0.178667 11.1176 -1.44632e-06 11.1176)
(10.8342 3.61889 -0.174474 10.8342 -6.68581e-08 10.8342)
(10.8342 3.61889 -0.174474 10.8342 -7.48221e-07 10.8342)
(10.5551 3.48059 -0.170285 10.5551 -6.12097e-07 10.5551)
(10.5551 3.48059 -0.170285 10.5551 -1.40231e-06 10.5551)
(10.2804 3.34557 -0.1661 10.2804 3.69138e-07 10.2804)
(10.2804 3.34557 -0.1661 10.2804 -5.1694e-07 10.2804)
(10.01 3.21376 -0.161918 10.01 -4.1973e-23 10.01)
(10.01 3.21377 -0.161918 10.01 -1.25277e-06 10.01)
(9.7442 3.08513 -0.157741 9.74418 8.76975e-07 9.7442)
(9.74419 3.08513 -0.157741 9.74419 -2.69987e-07 9.74419)
(9.48294 2.95961 -0.153569 9.48294 -2.09506e-23 9.48294)
(9.48293 2.95961 -0.153569 9.48295 -1.43427e-06 9.48293)
(9.22634 2.83718 -0.149401 9.22632 1.46518e-06 9.22634)
(9.22633 2.83718 -0.149402 9.22633 -1.85767e-08 9.22633)
(8.97444 2.71782 -0.145243 8.97444 2.17907e-23 8.97444)
(8.97444 2.71782 -0.145243 8.97445 -1.5625e-06 8.97444)
(8.72733 2.60157 -0.141096 8.7273 2.16404e-06 8.72733)
(8.72732 2.60157 -0.141096 8.72732 2.41618e-07 8.72732)
(8.48502 2.4885 -0.136967 8.48502 -0 8.48502)
(8.48501 2.4885 -0.136967 8.48503 -1.89241e-06 8.48501)
(8.2476 2.37874 -0.132865 8.24757 3.00268e-06 8.2476)
(8.24759 2.37874 -0.132865 8.24759 5.13257e-07 8.24759)
(8.01507 2.27252 -0.128805 8.01507 -1.56149e-37 8.01507)
(8.01506 2.27252 -0.128805 8.01508 -2.42525e-06 8.01506)
(7.78751 2.17008 -0.124805 7.78747 3.9851e-06 7.78751)
(7.7875 2.17008 -0.124805 7.7875 7.77368e-07 7.7875)
(7.5649 2.07175 -0.120886 7.5649 3.99163e-23 7.5649)
(7.56489 2.07175 -0.120886 7.56491 -3.08227e-06 7.56489)
(7.34731 1.97785 -0.117074 7.34726 4.25239e-06 7.34731)
(7.34729 1.97785 -0.117074 7.34729 1.04802e-06 7.34729)
(7.13469 1.88867 -0.113396 7.13469 3.44166e-24 7.13469)
(7.13468 1.88867 -0.113396 7.13471 -3.92474e-06 7.13468)
(6.92711 1.80444 -0.109877 6.92705 3.44206e-06 6.92711)
(6.92708 1.80444 -0.109877 6.92708 1.33157e-06 6.92708)
(6.72446 1.72529 -0.106536 6.72446 4.88658e-24 6.72446)
(6.72445 1.72529 -0.106536 6.72448 -5.02914e-06 6.72445)
(6.5268 1.6512 -0.103388 6.52676 2.01766e-06 6.5268)
(6.52679 1.6512 -0.103388 6.52679 1.59616e-06 6.52679)
(6.33402 1.58199 -0.100439 6.33402 -1.98808e-35 6.33402)
(6.334 1.58199 -0.100439 6.33405 -6.40708e-06 6.334)
(6.14611 1.51736 -0.09768 6.14611 1.74084e-06 6.14611)
(6.14612 1.51736 -0.0976801 6.14608 3.85765e-06 6.14612)
(5.96298 1.45686 -0.0951043 5.96298 -0 5.96298)
(5.96296 1.45687 -0.0951043 5.96301 -8.22283e-06 5.96296)
(5.78456 1.39985 -0.0926826 5.78456 1.94164e-06 5.78456)
(5.78458 1.39985 -0.0926826 5.78453 7.80095e-06 5.78458)
(5.61078 1.34554 -0.0903753 5.61078 -2.60149e-21 5.61078)
(5.61076 1.34554 -0.0903753 5.61082 -1.09944e-05 5.61076)
(5.44154 1.29324 -0.0881367 5.44154 2.1387e-06 5.44154)
(5.44155 1.29324 -0.0881367 5.4415 1.34508e-05 5.44155)
(5.27675 1.24228 -0.0859276 5.27675 2.5695e-21 5.27675)
(5.27673 1.24228 -0.0859276 5.2768 -1.48249e-05 5.27673)
(5.11634 1.19215 -0.0837067 5.11634 2.28306e-06 5.11634)
(5.11636 1.19215 -0.0837068 5.1163 2.13984e-05 5.11636)
(4.96023 1.1426 -0.0814462 4.96023 -0 4.96023)
(4.9602 1.1426 -0.0814462 4.96028 -2.50675e-05 4.9602)
(4.80834 1.09361 -0.0791411 4.80834 2.3356e-06 4.80834)
(4.80836 1.09361 -0.0791411 4.80829 2.57792e-05 4.80836)
(4.6606 1.04528 -0.0767932 4.6606 4.0375e-06 4.6606)
(4.66057 1.04528 -0.0767932 4.66066 -3.19315e-05 4.66057)
(4.51695 0.997821 -0.0744149 4.51695 2.3095e-06 4.51696)
(4.51698 0.997821 -0.074415 4.5169 3.33966e-05 4.51698)
(4.37734 0.951579 -0.0720252 4.37734 4.54778e-06 4.37734)
(4.3773 0.951579 -0.0720252 4.3774 -4.0819e-05 4.3773)
(4.24169 0.906797 -0.0696582 4.24169 2.15098e-06 4.24169)
(4.24172 0.906798 -0.0696582 4.24163 4.32594e-05 4.24172)
(4.10996 0.863678 -0.0673202 4.10996 5.17329e-06 4.10997)
(4.10993 0.863678 -0.0673202 4.11003 -5.23272e-05 4.10993)
(3.9821 0.822614 -0.0650418 3.9821 1.84982e-06 3.9821)
(3.98212 0.822615 -0.0650419 3.98203 5.60573e-05 3.98212)
(3.85803 0.783872 -0.0628611 3.85803 4.21716e-06 3.85803)
(3.858 0.783873 -0.0628611 3.8581 -6.72982e-05 3.85799)
(3.73772 0.747654 -0.0607917 3.73772 3.1397e-06 3.73772)
(3.73774 0.747655 -0.0607917 3.73765 7.27111e-05 3.73774)
(3.62108 0.714094 -0.0588647 3.62108 1.8645e-06 3.62108)
(3.62105 0.714095 -0.0588648 3.62115 -8.50283e-05 3.62104)
(3.50807 0.682993 -0.0570849 3.50807 5.91561e-06 3.50807)
(3.50809 0.682993 -0.0570849 3.50801 9.08281e-05 3.50809)
(3.3986 0.654103 -0.0554299 3.3986 2.01492e-06 3.3986)
(3.39857 0.654104 -0.05543 3.39866 -0.000101575 3.39857)
(3.29262 0.627166 -0.0538957 3.29262 6.2477e-06 3.29262)
(3.29264 0.627167 -0.0538957 3.29258 0.000104982 3.29264)
(3.19005 0.601844 -0.0524551 3.19005 2.17214e-06 3.19005)
(3.19003 0.601845 -0.0524552 3.19009 -0.000113903 3.19003)
(3.09082 0.577729 -0.0510893 3.09082 6.2682e-06 3.09083)
(3.09083 0.57773 -0.0510893 3.09081 0.00010796 3.09083)
(2.99487 0.554103 -0.0497551 2.99487 -5.1854e-06 2.99487)
(2.99485 0.554104 -0.0497552 2.99488 -0.000116423 2.99485)
(2.90212 0.530603 -0.0483752 2.90212 -2.42985e-06 2.90212)
(2.90211 0.530604 -0.0483753 2.90213 0.000112931 2.90211)
(2.81252 0.507367 -0.0469638 2.81252 -7.08863e-06 2.81252)
(2.81252 0.507367 -0.0469638 2.81251 -0.00011377 2.81252)
(2.72601 0.484446 -0.04553 2.72601 -2.6296e-06 2.72601)
(2.72599 0.484447 -0.0455301 2.72604 0.000107587 2.72599)
(2.64255 0.462146 -0.0440744 2.64255 -7.22771e-06 2.64255)
(2.64256 0.462146 -0.0440744 2.64252 -0.000105753 2.64256)
(2.56208 0.440648 -0.0426539 2.56208 -2.81526e-06 2.56208)
(2.56205 0.440649 -0.042654 2.56213 9.68162e-05 2.56205)
(2.48456 0.419891 -0.0412486 2.48456 -5.76511e-06 2.48457)
(2.48458 0.419891 -0.0412486 2.48452 -9.2409e-05 2.48458)
(2.40996 0.400208 -0.0398706 2.40996 -4.57032e-06 2.40996)
(2.40993 0.400209 -0.0398706 2.41002 8.22712e-05 2.40992)
(2.33822 0.381851 -0.0385778 2.33822 -3.73703e-06 2.33823)
(2.33824 0.381851 -0.0385779 2.33817 -7.70367e-05 2.33824)
(2.26932 0.365069 -0.0373686 2.26932 -6.94522e-06 2.26932)
(2.26928 0.365069 -0.0373686 2.26938 6.79478e-05 2.26928)
(2.2032 0.350643 -0.0363048 2.2032 -4.20635e-06 2.20321)
(2.20322 0.350643 -0.0363048 2.20315 -6.42404e-05 2.20322)
(2.13984 0.339106 -0.0354966 2.13984 -6.80876e-06 2.13984)
(2.13981 0.339107 -0.0354966 2.13991 5.3028e-05 2.1398)
(2.07918 0.330646 -0.0349633 2.07918 -4.66072e-06 2.07919)
(2.07921 0.330647 -0.0349635 2.07914 -5.36263e-05 2.07921)
(2.02118 0.325581 -0.0347498 2.02118 -6.74665e-06 2.02119)
(2.02115 0.325583 -0.03475 2.02125 2.47128e-05 2.02115)
(1.96578 0.323942 -0.034907 1.96578 -5.06852e-06 1.96579)
(1.9658 0.323944 -0.0349072 1.96574 -4.48e-05 1.9658)
(1.91292 0.325417 -0.0354209 1.91292 -6.76553e-06 1.91292)
(1.91289 0.32542 -0.0354212 1.91298 2.34362e-06 1.91289)
(1.86252 0.329502 -0.036269 1.86252 -5.41434e-06 1.86253)
(1.86254 0.329505 -0.0362693 1.86249 -3.74749e-05 1.86254)
(1.81446 0.335374 -0.0373912 1.81463 5.88446e-06 1.81447)
(1.81452 0.335378 -0.0373916 1.81452 -3.04357e-06 1.81452)
(1.76882 0.341866 -0.0386864 1.76882 -5.69314e-06 1.76882)
(1.76884 0.341869 -0.0386868 1.76879 -3.29653e-05 1.76884)
(1.72531 0.348073 -0.0400056 1.72543 2.07234e-05 1.72531)
(1.72535 0.348077 -0.040006 1.72535 -3.1484e-06 1.72535)
(1.68402 0.353696 -0.0412946 1.68402 -5.92866e-06 1.68402)
(1.68403 0.3537 -0.041295 1.68399 -2.93042e-05 1.68403)
(1.64472 0.358919 -0.0425349 1.64482 1.72408e-05 1.64472)
(1.64475 0.358923 -0.0425354 1.64475 -3.23847e-06 1.64475)
(1.60747 0.364342 -0.0437854 1.60747 -6.14267e-06 1.60747)
(1.60748 0.364347 -0.0437859 1.60745 -2.55907e-05 1.60748)
(1.57207 0.37049 -0.0451305 1.57214 1.33344e-05 1.57207)
(1.57209 0.370495 -0.0451311 1.57209 -3.31862e-06 1.57209)
(1.53854 0.377703 -0.0466184 1.53854 -6.3125e-06 1.53854)
(1.53855 0.377709 -0.046619 1.53853 -2.21031e-05 1.53855)
(1.50671 0.386165 -0.0482957 1.50676 1.10103e-05 1.50671)
(1.50672 0.386171 -0.0482964 1.50672 -3.39444e-06 1.50672)
(1.47655 0.395829 -0.0501747 1.47655 -6.46766e-06 1.47655)
(1.47655 0.395836 -0.0501755 1.47654 -2.04689e-05 1.47655)
(1.44791 0.406512 -0.0522461 1.44794 7.96283e-06 1.44791)
(1.44792 0.406519 -0.052247 1.44792 -4.95313e-06 1.44792)
(1.42072 0.418153 -0.0544863 1.42072 -6.77385e-06 1.42072)
(1.42072 0.418161 -0.0544873 1.42071 -2.01271e-05 1.42072)
(1.39482 0.430521 -0.0569162 1.39484 4.86012e-06 1.39482)
(1.39483 0.43053 -0.0569173 1.39483 -7.25608e-06 1.39483)
(1.37013 0.442843 -0.0594643 1.37013 -7.19894e-06 1.37013)
(1.37012 0.442852 -0.0594656 1.37013 -1.85357e-05 1.37012)
(1.34648 0.454021 -0.0620003 1.34648 2.66645e-06 1.34648)
(1.34648 0.454031 -0.0620016 1.34648 -7.66555e-06 1.34648)
(1.32376 0.462785 -0.06435 1.32376 -7.72712e-06 1.32376)
(1.32376 0.462795 -0.0643514 1.32377 -1.7371e-05 1.32376)
(1.30186 0.468213 -0.0663169 1.30186 5.86948e-07 1.30186)
(1.30186 0.468223 -0.0663183 1.30186 -8.23352e-06 1.30186)
(1.28067 0.470062 -0.0678074 1.28067 -8.35675e-06 1.28067)
(1.28066 0.470071 -0.0678088 1.28068 -1.65853e-05 1.28066)
(1.26012 0.468876 -0.0688058 1.26011 -1.26353e-06 1.26012)
(1.26012 0.468885 -0.0688071 1.26012 -8.76643e-06 1.26012)
(1.24016 0.465894 -0.0694459 1.24016 -8.75005e-06 1.24016)
(1.24015 0.465904 -0.0694473 1.24017 -1.5786e-05 1.24015)
(1.22076 0.462671 -0.0699271 1.22074 -2.59575e-06 1.22076)
(1.22075 0.462681 -0.0699286 1.22075 -8.98979e-06 1.22075)
(1.20186 0.460958 -0.0704993 1.20186 -8.84473e-06 1.20186)
(1.20185 0.46097 -0.070501 1.20188 -1.4882e-05 1.20185)
(1.18344 0.461625 -0.0714487 1.18342 -3.56068e-06 1.18344)
(1.18343 0.461638 -0.0714507 1.18343 -9.12158e-06 1.18343)
(1.16542 0.464108 -0.0727768 1.16542 -9.15232e-06 1.16542)
(1.1654 0.464123 -0.072779 1.16544 -1.44122e-05 1.1654)
(1.14773 0.466957 -0.0743344 1.1477 -4.64538e-06 1.14773)
(1.14772 0.466973 -0.0743369 1.14772 -9.57324e-06 1.14772)
(1.13028 0.468482 -0.0758279 1.13028 -9.82085e-06 1.13028)
(1.13027 0.468499 -0.0758306 1.1303 -1.44808e-05 1.13027)
(1.11302 0.467892 -0.0770062 1.11298 -5.89889e-06 1.11302)
(1.113 0.467908 -0.077009 1.113 -1.02795e-05 1.113)
(1.09585 0.465199 -0.0778433 1.09585 -1.05747e-05 1.09585)
(1.09583 0.465217 -0.0778461 1.09587 -1.47207e-05 1.09583)
(1.07877 0.460622 -0.0783411 1.07873 -7.12871e-06 1.07877)
(1.07876 0.460639 -0.078344 1.07876 -1.10177e-05 1.07876)
(1.06172 0.45413 -0.0785417 1.06172 -1.12447e-05 1.06172)
(1.0617 0.454147 -0.0785447 1.06174 -1.49597e-05 1.0617)
(1.04472 0.445293 -0.0783643 1.04467 -8.17017e-06 1.04472)
(1.0447 0.44531 -0.0783672 1.0447 -1.16899e-05 1.0447)
(1.02773 0.433711 -0.0777103 1.02773 -1.20269e-05 1.02773)
(1.02771 0.433727 -0.0777132 1.02776 -1.53833e-05 1.02771)
(1.01084 0.419518 -0.0764998 1.01078 -9.33931e-06 1.01084)
(1.01082 0.419533 -0.0765025 1.01082 -1.25464e-05 1.01082)
(0.994022 0.404042 -0.0748201 0.994022 -1.27331e-05 0.994022)
(0.994003 0.404058 -0.0748227 0.994056 -1.58998e-05 0.994003)
(0.977419 0.389418 -0.0730301 0.977364 -9.99303e-06 0.977419)
(0.977399 0.389436 -0.073033 0.977399 -1.30315e-05 0.977399)
(0.961007 0.377762 -0.0715401 0.961007 -1.30365e-05 0.961008)
(0.960987 0.377784 -0.0715436 0.961045 -1.61363e-05 0.960987)
(0.944896 0.370724 -0.0707468 0.944835 -1.02051e-05 0.944896)
(0.944875 0.370752 -0.0707515 0.944875 -1.32485e-05 0.944875)
(0.929004 0.368899 -0.0709275 0.929004 -1.34132e-05 0.929005)
(0.928983 0.368936 -0.0709337 0.929046 -1.65067e-05 0.928983)
(0.913377 0.371711 -0.072106 0.913311 -1.0719e-05 0.913377)
(0.913355 0.371757 -0.0721141 0.913355 -1.38512e-05 0.913355)
(0.897853 0.37836 -0.0741152 0.897853 -1.40896e-05 0.897853)
(0.89783 0.378418 -0.0741255 0.897899 -1.73546e-05 0.897829)
(0.882412 0.388027 -0.0768817 0.88234 -1.11886e-05 0.882412)
(0.882388 0.388098 -0.0768946 0.882388 -1.4575e-05 0.882388)
(0.866821 0.398417 -0.0802119 0.866821 -1.50214e-05 0.866821)
(0.866796 0.398497 -0.0802274 0.866872 -1.85654e-05 0.866796)
(0.851021 0.405415 -0.0834046 0.850943 -1.19764e-05 0.851022)
(0.850996 0.405501 -0.083422 0.850996 -1.57425e-05 0.850996)
(0.834774 0.404793 -0.085461 0.834774 -1.63923e-05 0.834775)
(0.834748 0.404877 -0.0854792 0.834829 -2.03773e-05 0.834748)
(0.818111 0.394295 -0.0855393 0.818025 -1.28805e-05 0.818111)
(0.818083 0.394371 -0.0855566 0.818083 -1.71187e-05 0.818082)
(0.800931 0.374386 -0.0833895 0.800931 -1.75106e-05 0.800931)
(0.8009 0.374451 -0.0834049 0.800989 -2.21592e-05 0.8009)
(0.783446 0.346718 -0.0792909 0.783353 -1.30535e-05 0.783446)
(0.783414 0.346766 -0.0793034 0.783414 -1.80837e-05 0.783414)