/*--------------------------------*- C++ -*----------------------------------*\
| =========                 |                                                 |
| \\      /  F ield         | OpenFOAM: The Open Source CFD Toolbox           |
|  \\    /   O peration     | Version:  2012                                  |
|   \\  /    A nd           | Website:  www.openfoam.com                      |
|    \\/     M anipulation  |                                                 |
\*---------------------------------------------------------------------------*/
FoamFile
{
    version     2.0;
    format      ascii;
    class       volVectorField;
    location    "13200";
    object      U;
}
// * * * * * * * * * * * * * * * * * * * * * * * * * * * * * * * * * * * * * //

dimensions      [0 1 -1 0 0 0 0];


internalField   nonuniform List<vector> 
2560
(
(0.0815029 1.83275e-08 -1.3411e-06)
(0.0815031 -1.31528e-08 4.71171e-22)
(0.245491 6.04271e-08 -2.02699e-06)
(0.245491 -2.41803e-08 -1.73281e-10)
(0.411651 9.48169e-08 -1.82877e-06)
(0.411652 -5.33831e-08 -5.49892e-10)
(0.580001 1.05878e-07 -1.27017e-06)
(0.580003 -1.00443e-07 -1.10038e-09)
(0.750556 1.11297e-07 -7.39062e-07)
(0.750558 -1.31726e-07 -1.47743e-09)
(0.923331 1.2234e-07 -4.41818e-07)
(0.923333 -1.40615e-07 -1.75323e-09)
(1.09835 1.32208e-07 -2.91943e-07)
(1.09835 -1.43433e-07 -2.02153e-09)
(1.27563 1.38854e-07 -2.1105e-07)
(1.27564 -1.46105e-07 -2.33824e-09)
(1.45523 1.431e-07 -1.62823e-07)
(1.45523 -1.48963e-07 -2.72429e-09)
(1.63718 1.47122e-07 -1.31411e-07)
(1.63719 -1.50767e-07 -3.17797e-09)
(1.82155 1.49767e-07 -1.09401e-07)
(1.82155 -1.53034e-07 -3.70095e-09)
(2.00838 1.52256e-07 -9.30068e-08)
(2.00838 -1.54847e-07 -4.29741e-09)
(2.19776 1.54482e-07 -8.01271e-08)
(2.19776 -1.56456e-07 -4.96794e-09)
(2.38975 1.56289e-07 -6.951e-08)
(2.38975 -1.58145e-07 -5.71802e-09)
(2.58443 1.58108e-07 -6.03612e-08)
(2.58443 -1.59548e-07 -6.55227e-09)
(2.78188 1.59543e-07 -5.21476e-08)
(2.78189 -1.61129e-07 -7.47547e-09)
(2.98219 1.61197e-07 -4.4492e-08)
(2.9822 -1.6232e-07 -8.49232e-09)
(3.18544 1.62602e-07 -3.71141e-08)
(3.18544 -1.63626e-07 -9.60849e-09)
(3.39171 1.63756e-07 -2.97938e-08)
(3.39171 -1.65072e-07 -1.08327e-08)
(3.60108 1.65135e-07 -2.23518e-08)
(3.60108 -1.66204e-07 -1.21686e-08)
(3.81363 1.66523e-07 -1.46354e-08)
(3.81363 -1.67253e-07 -1.36221e-08)
(4.02943 1.67624e-07 -6.50658e-09)
(4.02943 -1.68531e-07 -6.49466e-09)
(4.24854 1.68444e-07 2.1628e-09)
(4.24854 -1.70043e-07 2.17451e-09)
(4.47101 1.70171e-07 1.14915e-08)
(4.47102 -1.70609e-07 1.15031e-08)
(4.6969 1.71057e-07 2.15977e-08)
(4.6969 -1.71989e-07 2.16091e-08)
(4.92623 1.72147e-07 2.57959e-08)
(4.92624 -1.73143e-07 3.26135e-08)
(5.15902 1.72848e-07 2.82858e-08)
(5.15903 -1.74672e-07 4.46369e-08)
(5.39527 1.74804e-07 3.09626e-08)
(5.39527 -1.74938e-07 5.78e-08)
(5.63496 1.75278e-07 3.38408e-08)
(5.63497 -1.76683e-07 7.2232e-08)
(5.87806 1.76639e-07 3.69264e-08)
(5.87806 -1.77544e-07 8.80708e-08)
(6.1245 1.7712e-07 4.02244e-08)
(6.12451 -1.7929e-07 1.05458e-07)
(6.37421 1.79253e-07 4.37556e-08)
(6.37421 -1.79401e-07 1.24542e-07)
(6.62708 1.79608e-07 4.75382e-08)
(6.62708 -1.81298e-07 1.45482e-07)
(6.88297 1.80894e-07 5.15765e-08)
(6.88298 -1.82291e-07 1.64068e-07)
(7.14174 1.81725e-07 5.58823e-08)
(7.14174 -1.83759e-07 1.63555e-07)
(7.40318 1.83641e-07 6.04814e-08)
(7.40318 -1.84171e-07 1.63291e-07)
(7.66709 1.84129e-07 6.53921e-08)
(7.6671 -1.86043e-07 1.63259e-07)
(7.93323 1.85376e-07 7.06218e-08)
(7.93323 -1.8719e-07 1.6345e-07)
(8.2013 1.86366e-07 7.61855e-08)
(8.2013 -1.88634e-07 1.63852e-07)
(8.471 1.88241e-07 8.21131e-08)
(8.471 -1.89236e-07 1.64457e-07)
(8.742 1.89053e-07 8.84299e-08)
(8.742 -1.90947e-07 1.65258e-07)
(9.01393 1.90187e-07 9.51478e-08)
(9.01393 -1.92387e-07 1.66249e-07)
(9.28637 1.91105e-07 1.02278e-07)
(9.28637 -1.94097e-07 1.67425e-07)
(9.5589 1.93745e-07 1.09866e-07)
(9.5589 -1.94144e-07 1.68782e-07)
(9.83104 1.93234e-07 1.17925e-07)
(9.83104 -1.97402e-07 1.70316e-07)
(10.1023 1.96631e-07 1.26486e-07)
(10.1023 -1.96823e-07 1.72024e-07)
(10.3722 1.95255e-07 1.35559e-07)
(10.3722 -2.01083e-07 1.73903e-07)
(10.6401 2.00302e-07 1.45189e-07)
(10.6401 -1.98998e-07 1.75952e-07)
(10.9055 1.99282e-07 1.55432e-07)
(10.9055 -2.0306e-07 1.78166e-07)
(11.1678 1.99805e-07 1.66237e-07)
(11.1678 -2.05658e-07 1.80544e-07)
(11.4263 2.0198e-07 1.77619e-07)
(11.4263 -2.06703e-07 1.83082e-07)
(11.6804 2.11809e-07 1.89822e-07)
(11.6804 -2.00174e-07 1.89819e-07)
(11.9295 1.93802e-07 2.02603e-07)
(11.9295 -2.2159e-07 2.02601e-07)
(12.1729 2.19107e-07 2.16078e-07)
(12.1729 -1.99791e-07 2.16075e-07)
(12.4098 2.02721e-07 2.30418e-07)
(12.4098 -2.19796e-07 2.30414e-07)
(12.6396 2.11667e-07 2.45367e-07)
(12.6396 -2.14586e-07 2.45363e-07)
(12.8617 2.17729e-07 2.61236e-07)
(12.8617 -2.12363e-07 2.61232e-07)
(13.0752 2.06e-07 2.77806e-07)
(13.0752 -2.28072e-07 2.77801e-07)
(13.2795 2.24652e-07 2.95159e-07)
(13.2795 -2.13514e-07 2.95155e-07)
(13.474 2.12329e-07 3.13376e-07)
(13.474 -2.3008e-07 3.1337e-07)
(13.6579 2.26683e-07 3.32396e-07)
(13.6579 -2.20087e-07 3.32391e-07)
(13.8307 2.17908e-07 3.52262e-07)
(13.8307 -2.33382e-07 3.52256e-07)
(13.9917 2.21707e-07 3.72692e-07)
(13.9917 -2.34246e-07 3.72686e-07)
(14.1402 2.34798e-07 3.9401e-07)
(14.1402 -2.25951e-07 3.94004e-07)
(14.2759 2.2424e-07 4.16142e-07)
(14.2759 -2.41489e-07 4.16135e-07)
(14.3981 2.2571e-07 4.38641e-07)
(14.3981 -2.4513e-07 4.38634e-07)
(14.5064 2.46256e-07 4.61957e-07)
(14.5064 -2.29863e-07 4.6195e-07)
(14.6004 2.1563e-07 4.85601e-07)
(14.6004 -2.6593e-07 4.85593e-07)
(14.6797 2.67147e-07 5.09975e-07)
(14.6797 -2.20013e-07 5.09966e-07)
(14.7442 2.02595e-07 5.34484e-07)
(14.7442 -2.90326e-07 5.34475e-07)
(14.7935 2.83352e-07 5.59363e-07)
(14.7935 -2.15496e-07 5.59354e-07)
(14.8276 2.07489e-07 5.84576e-07)
(14.8276 -2.97448e-07 5.84565e-07)
(14.8465 2.81774e-07 6.09797e-07)
(14.8465 -2.29415e-07 6.09787e-07)
(14.8501 2.23032e-07 6.35332e-07)
(14.8501 -2.9457e-07 6.35321e-07)
(14.8385 2.78609e-07 6.60818e-07)
(14.8385 -2.45567e-07 6.60806e-07)
(14.8121 2.36679e-07 6.86511e-07)
(14.8121 -2.94231e-07 6.86499e-07)
(14.771 2.72811e-07 7.11967e-07)
(14.771 -2.64994e-07 7.11955e-07)
(14.7156 2.59309e-07 7.37764e-07)
(14.7156 -2.85555e-07 7.37751e-07)
(14.6463 2.63128e-07 7.63343e-07)
(14.6463 -2.88948e-07 7.6333e-07)
(14.5637 2.8212e-07 7.89302e-07)
(14.5637 -2.77338e-07 7.89289e-07)
(14.4683 2.53155e-07 8.1508e-07)
(14.4683 -3.1384e-07 8.15066e-07)
(14.3607 3.02601e-07 8.41187e-07)
(14.3607 -2.72111e-07 8.41173e-07)
(14.2416 2.55876e-07 8.67537e-07)
(14.2416 -3.26704e-07 8.67522e-07)
(14.1116 3.05386e-07 8.93976e-07)
(14.1116 -2.85264e-07 8.93961e-07)
(13.9716 2.72542e-07 9.20927e-07)
(13.9716 -3.26323e-07 9.20911e-07)
(13.8223 3.10384e-07 9.48322e-07)
(13.8223 -2.96923e-07 9.48306e-07)
(13.6645 2.78118e-07 9.76139e-07)
(13.6645 -3.37773e-07 9.76123e-07)
(13.4989 3.21153e-07 1.00451e-06)
(13.4989 -3.0359e-07 1.00449e-06)
(13.3264 2.84119e-07 1.0334e-06)
(13.3264 -3.49606e-07 1.03338e-06)
(13.1477 3.29144e-07 1.06279e-06)
(13.1477 -3.13879e-07 1.06277e-06)
(12.9636 3.02497e-07 1.09315e-06)
(12.9636 -3.49944e-07 1.09313e-06)
(12.7748 3.28712e-07 1.12409e-06)
(12.7748 -3.33521e-07 1.12407e-06)
(12.5821 3.17668e-07 1.15589e-06)
(12.5821 -3.54451e-07 1.15587e-06)
(12.3862 3.28607e-07 1.18814e-06)
(12.3862 -3.53869e-07 1.18812e-06)
(12.1876 3.4627e-07 1.22168e-06)
(12.1876 -3.46595e-07 1.22166e-06)
(11.9872 3.2481e-07 1.25592e-06)
(11.9872 -3.79036e-07 1.2559e-06)
(11.7853 3.53594e-07 1.29068e-06)
(11.7853 -3.61205e-07 1.29066e-06)
(11.5826 3.52852e-07 1.32676e-06)
(11.5826 -3.73635e-07 1.32674e-06)
(11.3795 3.46686e-07 1.36333e-06)
(11.3795 -3.91346e-07 1.3633e-06)
(11.1766 3.79389e-07 1.40106e-06)
(11.1766 -3.7113e-07 1.40103e-06)
(10.9743 3.53603e-07 1.43972e-06)
(10.9743 -4.09112e-07 1.4397e-06)
(10.7729 3.81376e-07 1.47878e-06)
(10.7729 -3.94723e-07 1.47876e-06)
(10.5728 3.82212e-07 1.51898e-06)
(10.5728 -4.06787e-07 1.51896e-06)
(10.3742 3.89678e-07 1.56007e-06)
(10.3742 -4.13712e-07 1.56004e-06)
(10.1776 3.90545e-07 1.60173e-06)
(10.1776 -4.26491e-07 1.60171e-06)
(9.983 4.1341e-07 1.64442e-06)
(9.983 -4.19173e-07 1.64439e-06)
(9.79075 3.97145e-07 1.6877e-06)
(9.79075 -4.49853e-07 1.68767e-06)
(9.60097 4.32697e-07 1.7317e-06)
(9.60097 -4.31182e-07 1.73166e-06)
(9.41383 4.16613e-07 1.7766e-06)
(9.41383 -4.62463e-07 1.77657e-06)
(9.22943 4.37442e-07 1.8217e-06)
(9.22943 -4.60062e-07 1.82166e-06)
(9.04788 4.46917e-07 1.86767e-06)
(9.04788 -4.6655e-07 1.86764e-06)
(8.86925 4.541e-07 1.91441e-06)
(8.86925 -4.79593e-07 1.91438e-06)
(8.69361 4.52904e-07 1.96116e-06)
(8.69361 -4.97491e-07 1.96113e-06)
(8.521 4.92388e-07 2.00893e-06)
(8.521 -4.80333e-07 2.00889e-06)
(8.35144 4.52209e-07 2.05649e-06)
(8.35144 -5.3787e-07 2.05645e-06)
(8.18494 5.34295e-07 2.10497e-06)
(8.18494 -4.806e-07 2.10492e-06)
(8.02151 4.5791e-07 2.15342e-06)
(8.02151 -5.74847e-07 2.15338e-06)
(7.86113 5.68639e-07 2.20242e-06)
(7.86113 -4.9192e-07 2.20237e-06)
(7.7038 4.67481e-07 2.25112e-06)
(7.7038 -6.11198e-07 2.25108e-06)
(7.54947 6.05722e-07 2.30013e-06)
(7.54947 -5.04372e-07 2.30007e-06)
(7.39813 4.91757e-07 2.34943e-06)
(7.39813 -6.36344e-07 2.34939e-06)
(7.24973 6.24794e-07 2.39835e-06)
(7.24973 -5.39151e-07 2.39828e-06)
(7.10423 5.30865e-07 2.44768e-06)
(7.10423 -6.50415e-07 2.44764e-06)
(6.96159 6.39133e-07 2.49629e-06)
(6.96159 -5.8348e-07 2.49621e-06)
(6.82176 5.729e-07 2.54498e-06)
(6.82176 -6.65571e-07 2.54494e-06)
(6.68469 6.68995e-07 2.59352e-06)
(6.68469 -6.17689e-07 2.59343e-06)
(6.55033 5.92684e-07 2.64101e-06)
(6.55033 -7.07226e-07 2.64097e-06)
(6.41864 7.28891e-07 2.6891e-06)
(6.41864 -6.27955e-07 2.689e-06)
(6.28957 5.96125e-07 2.73557e-06)
(6.28957 -7.6968e-07 2.73554e-06)
(6.16308 7.92072e-07 2.78205e-06)
(6.16308 -6.41843e-07 2.78193e-06)
(6.03911 6.16494e-07 2.82733e-06)
(6.03911 -8.19819e-07 2.8273e-06)
(5.91764 8.53257e-07 2.87269e-06)
(5.91764 -6.65615e-07 2.87254e-06)
(5.79863 6.24902e-07 2.91575e-06)
(5.79863 -8.86592e-07 2.91573e-06)
(5.68203 9.3397e-07 2.95895e-06)
(5.68203 -6.7894e-07 2.95876e-06)
(5.56781 6.36048e-07 2.99987e-06)
(5.56781 -9.55242e-07 2.99988e-06)
(5.45594 1.02012e-06 3.04111e-06)
(5.45594 -6.97388e-07 3.04087e-06)
(5.34639 6.36006e-07 3.07901e-06)
(5.34639 -1.03943e-06 3.07905e-06)
(5.23911 1.12855e-06 3.11759e-06)
(5.23911 -7.05944e-07 3.11729e-06)
(5.13409 6.24331e-07 3.1519e-06)
(5.13409 -1.13905e-06 3.15199e-06)
(5.03129 1.25963e-06 3.18743e-06)
(5.03129 -7.06589e-07 3.18704e-06)
(4.93069 6.00999e-07 3.21788e-06)
(4.93069 -1.25315e-06 3.21805e-06)
(4.83225 1.4145e-06 3.25032e-06)
(4.83225 -7.01178e-07 3.24981e-06)
(4.73597 5.57317e-07 3.27626e-06)
(4.73597 -1.38887e-06 3.27654e-06)
(4.64181 1.60172e-06 3.30508e-06)
(4.64181 -6.85023e-07 3.30441e-06)
(4.54976 4.88581e-07 3.32557e-06)
(4.54976 -1.54848e-06 3.32601e-06)
(4.4598 1.84007e-06 3.35116e-06)
(4.4598 -6.44446e-07 3.35025e-06)
(4.37193 3.69171e-07 3.36547e-06)
(4.37193 -1.75397e-06 3.36614e-06)
(4.28613 2.145e-06 3.38742e-06)
(4.28612 -5.70757e-07 3.38619e-06)
(4.20238 1.97755e-07 3.39518e-06)
(4.20238 -2.00132e-06 3.39619e-06)
(4.12069 2.51876e-06 3.41348e-06)
(4.12069 -4.70735e-07 3.4118e-06)
(4.04105 -4.11539e-08 3.41326e-06)
(4.04105 -2.29824e-06 3.41475e-06)
(3.96344 2.98998e-06 3.42794e-06)
(3.96344 -3.27916e-07 3.42562e-06)
(3.88786 -3.74068e-07 3.41837e-06)
(3.88786 -2.66003e-06 3.42056e-06)
(3.8143 3.58912e-06 3.4299e-06)
(3.8143 -1.28365e-07 3.42667e-06)
(3.74275 -8.36666e-07 3.40927e-06)
(3.74275 -3.10635e-06 3.41246e-06)
(3.67321 4.35671e-06 3.41819e-06)
(3.67321 1.45863e-07 3.41368e-06)
(3.60565 -1.4692e-06 3.38459e-06)
(3.60565 -3.65456e-06 3.38924e-06)
(3.54006 5.33565e-06 3.39144e-06)
(3.54006 5.06628e-07 3.38509e-06)
(3.47641 -2.31399e-06 3.34267e-06)
(3.47641 -4.31447e-06 3.34941e-06)
(3.41466 6.58326e-06 3.34932e-06)
(3.41465 9.68338e-07 3.34036e-06)
(3.35474 -3.45392e-06 3.28126e-06)
(3.35474 -5.12275e-06 3.29102e-06)
(3.29661 8.21049e-06 3.29078e-06)
(3.29661 1.58235e-06 3.27807e-06)
(3.24018 -5.00828e-06 3.199e-06)
(3.24018 -6.13308e-06 3.21312e-06)
(3.18536 1.03382e-05 3.21442e-06)
(3.18536 2.38632e-06 3.19631e-06)
(3.13206 -7.09996e-06 3.09348e-06)
(3.13206 -7.37484e-06 3.11394e-06)
(3.08017 1.31222e-05 3.121e-06)
(3.08017 3.41885e-06 3.09507e-06)
(3.02961 -9.93886e-06 2.9611e-06)
(3.02961 -8.92473e-06 2.99077e-06)
(2.98027 1.68142e-05 3.00787e-06)
(2.98027 4.76713e-06 2.97068e-06)
(2.9321 -1.37622e-05 2.80095e-06)
(2.93209 -1.08315e-05 2.84399e-06)
(2.88501 2.16613e-05 2.87777e-06)
(2.88501 6.44711e-06 2.82424e-06)
(2.839 -1.88966e-05 2.60769e-06)
(2.839 -1.31533e-05 2.6702e-06)
(2.79404 2.80846e-05 2.73014e-06)
(2.79403 8.55177e-06 2.65282e-06)
(2.75014 -2.57976e-05 2.37908e-06)
(2.75013 -1.59624e-05 2.47719e-06)
(2.70732 3.65809e-05 2.56796e-06)
(2.70732 1.11115e-05 2.46159e-06)
(2.66563 -3.50471e-05 2.10923e-06)
(2.66562 -1.92917e-05 2.6549e-06)
(2.62507 4.78729e-05 2.39767e-06)
(2.62507 1.41832e-05 2.60209e-06)
(2.58568 -4.75082e-05 1.79395e-06)
(2.58568 -2.32175e-05 2.85232e-06)
(2.54746 6.29532e-05 2.22549e-06)
(2.54746 1.78067e-05 2.7428e-06)
(2.51041 -6.43106e-05 1.42529e-06)
(2.51041 -2.77385e-05 3.0744e-06)
(2.47452 8.31529e-05 2.06282e-06)
(2.47451 2.19452e-05 2.87917e-06)
(2.43975 -8.7041e-05 9.89678e-07)
(2.43975 -3.28105e-05 3.32821e-06)
(2.40608 0.000110368 1.92339e-06)
(2.40608 2.65229e-05 3.00403e-06)
(2.37343 -0.000117908 6.16666e-07)
(2.37343 -3.8287e-05 3.624e-06)
(2.34175 0.000143459 1.67025e-06)
(2.34175 3.12629e-05 3.25647e-06)
(2.31095 -0.000152226 4.37005e-07)
(2.31095 -4.37916e-05 3.97079e-06)
(2.28098 0.000174618 1.15797e-06)
(2.28098 3.56751e-05 3.77832e-06)
(2.25177 -0.00017874 2.42883e-07)
(2.25177 -4.88391e-05 4.36945e-06)
(2.22329 0.000197856 5.92304e-07)
(2.22328 3.92351e-05 4.35913e-06)
(2.19548 -0.000196784 3.31421e-08)
(2.19548 -5.29456e-05 4.81806e-06)
(2.16835 0.00021249 0)
(2.16835 4.14581e-05 4.99918e-06)
(2.14192 -0.00019436 5.38579e-07)
(2.14192 -5.56899e-05 4.80885e-06)
(2.11621 0.000207026 2.32694e-07)
(2.11621 4.20762e-05 5.14779e-06)
(2.09124 -0.00018258 1.25623e-06)
(2.09124 -5.6836e-05 4.76599e-06)
(2.06704 0.000191267 4.86695e-07)
(2.06703 4.1058e-05 5.31289e-06)
(2.04358 -0.000160446 2.01843e-06)
(2.04357 -5.64608e-05 4.73201e-06)
(2.02086 0.000165016 7.61643e-07)
(2.02085 3.85644e-05 5.50743e-06)
(1.99887 -0.000131191 2.65503e-06)
(1.99887 -5.48197e-05 4.88373e-06)
(1.97758 0.000135182 1.23199e-06)
(1.97758 3.48918e-05 5.74037e-06)
(1.95694 -0.000102995 3.08915e-06)
(1.95693 -5.23319e-05 5.3004e-06)
(1.93687 0.000111531 1.9851e-06)
(1.93687 3.04748e-05 6.01018e-06)
(1.91725 -8.02182e-05 3.5848e-06)
(1.91725 -4.94775e-05 5.71683e-06)
(1.89792 9.28743e-05 2.74968e-06)
(1.89792 2.57022e-05 6.3128e-06)
(1.87871 -6.17331e-05 4.14409e-06)
(1.87871 -4.65457e-05 6.13628e-06)
(1.85943 7.81959e-05 3.53273e-06)
(1.85943 2.07782e-05 6.64474e-06)
(1.83988 -4.66293e-05 4.76492e-06)
(1.83988 -4.37252e-05 6.56124e-06)
(1.81989 6.67329e-05 4.34277e-06)
(1.81989 1.58796e-05 7.00312e-06)
(1.79931 -3.42231e-05 5.44246e-06)
(1.79931 -4.11812e-05 6.99387e-06)
(1.77806 5.78585e-05 5.17687e-06)
(1.77806 1.10955e-05 7.38556e-06)
(1.75614 -2.39255e-05 6.17045e-06)
(1.75614 -3.89847e-05 7.43529e-06)
(1.73357 5.10471e-05 6.03349e-06)
(1.73357 6.45544e-06 7.79019e-06)
(1.71039 -1.52635e-05 6.94479e-06)
(1.71039 -3.7177e-05 7.88706e-06)
(1.68661 4.59342e-05 6.91898e-06)
(1.68661 2.01005e-06 8.21551e-06)
(1.6622 -7.90444e-06 7.76357e-06)
(1.66219 -3.58173e-05 8.35029e-06)
(1.63708 4.22312e-05 7.83201e-06)
(1.63707 -2.21967e-06 8.66044e-06)
(1.61117 -1.56592e-06 8.62144e-06)
(1.61117 -3.49248e-05 8.8261e-06)
(1.58439 3.96653e-05 8.76683e-06)
(1.58438 -6.27876e-06 9.12449e-06)
(1.55664 3.98765e-06 9.51666e-06)
(1.55664 -3.4496e-05 9.49103e-06)
(1.52787 3.80777e-05 9.73922e-06)
(1.52786 -1.01611e-05 9.81275e-06)
(1.49798 8.94753e-06 1.04705e-05)
(1.49797 -3.45194e-05 1.04616e-05)
(1.46695 3.73248e-05 1.07717e-05)
(1.46694 -1.3894e-05 1.08374e-05)
(1.43479 1.34725e-05 1.15007e-05)
(1.43478 -3.49772e-05 1.15055e-05)
(1.40163 3.72439e-05 1.18774e-05)
(1.40162 -1.75617e-05 1.19384e-05)
(1.36768 1.77267e-05 1.26238e-05)
(1.36767 -3.58177e-05 1.26401e-05)
(1.3332 3.77596e-05 1.30815e-05)
(1.33319 -2.11907e-05 1.31402e-05)
(1.29845 2.18437e-05 1.38568e-05)
(1.29844 -3.69995e-05 1.38828e-05)
(1.26362 3.87973e-05 1.43815e-05)
(1.26361 -2.48301e-05 1.44397e-05)
(1.22879 2.58548e-05 1.5167e-05)
(1.22878 -3.85692e-05 1.52016e-05)
(1.19392 4.03188e-05 1.57333e-05)
(1.19391 -2.85108e-05 1.57927e-05)
(1.15884 2.97363e-05 1.65108e-05)
(1.15882 -4.06185e-05 1.65533e-05)
(1.12335 4.23482e-05 1.71245e-05)
(1.12333 -3.22156e-05 1.71863e-05)
(1.08736 3.36039e-05 1.79216e-05)
(1.08734 -4.30942e-05 1.79714e-05)
(1.0509 4.48455e-05 1.8606e-05)
(1.05088 -3.60036e-05 1.86709e-05)
(1.01414 3.76048e-05 1.94577e-05)
(1.01412 -4.5909e-05 1.95144e-05)
(0.977224 4.77321e-05 2.02204e-05)
(0.977204 -3.99834e-05 2.0289e-05)
(0.940327 4.18017e-05 2.11366e-05)
(0.940306 -4.90605e-05 2.11998e-05)
(0.903579 5.10214e-05 2.19773e-05)
(0.903557 -4.41811e-05 2.20501e-05)
(0.867152 4.61669e-05 2.29495e-05)
(0.867128 -5.26391e-05 2.30189e-05)
(0.831256 5.47245e-05 2.38713e-05)
(0.831231 -4.8634e-05 2.39486e-05)
(0.796139 5.07991e-05 2.49198e-05)
(0.796113 -5.66114e-05 2.49953e-05)
(0.762002 5.89534e-05 2.59376e-05)
(0.761975 -5.32862e-05 2.60198e-05)
(0.728883 5.56566e-05 2.70401e-05)
(0.728854 -6.10875e-05 2.71217e-05)
(0.696633 6.3692e-05 2.81201e-05)
(0.696603 -5.82163e-05 2.82074e-05)
(0.66493 6.07532e-05 2.92476e-05)
(0.664898 -6.61254e-05 2.93353e-05)
(0.633335 6.89161e-05 3.03769e-05)
(0.6333 -6.35161e-05 3.04695e-05)
(0.601403 6.62095e-05 3.15578e-05)
(0.601365 -7.16795e-05 3.16513e-05)
(0.568771 7.47665e-05 3.27782e-05)
(0.568728 -6.91195e-05 3.28755e-05)
(0.535111 7.19954e-05 3.40263e-05)
(0.535063 -7.78612e-05 3.41245e-05)
(0.500184 8.12204e-05 3.53514e-05)
(0.50013 -7.51332e-05 3.54519e-05)
(0.464052 7.81941e-05 3.67053e-05)
(0.46399 -8.46787e-05 3.68061e-05)
(0.427204 8.83718e-05 3.81854e-05)
(0.427134 -8.15607e-05 3.82865e-05)
(0.390478 8.48911e-05 3.96849e-05)
(0.390401 -9.21519e-05 3.97855e-05)
(0.354812 9.63218e-05 4.1332e-05)
(0.354728 -8.8414e-05 4.14309e-05)
(0.321012 9.19571e-05 4.29342e-05)
(0.320924 -0.000100529 4.30322e-05)
(0.289771 0.000105168 4.47308e-05)
(0.289678 -9.57212e-05 4.48255e-05)
(0.261546 9.95514e-05 4.64278e-05)
(0.261451 -0.000109778 4.65222e-05)
(0.236228 0.000115015 4.83374e-05)
(0.23613 -0.000103508 4.84278e-05)
(0.212996 0.000107581 5.00438e-05)
(0.21289 -0.000120116 5.01352e-05)
(0.190703 0.000125924 5.20098e-05)
(0.190585 -0.000111842 5.20956e-05)
(0.16852 0.000115971 5.37019e-05)
(0.168385 -0.000131742 5.3789e-05)
(0.146489 0.00013811 5.58085e-05)
(0.146336 -0.000120639 5.58862e-05)
(0.125402 0.000124763 5.76056e-05)
(0.125235 -0.000144739 5.76844e-05)
(0.106295 0.000151874 6.00219e-05)
(0.10612 -0.000129729 6.00873e-05)
(0.0899487 0.000134032 6.20146e-05)
(0.0897761 -0.000159148 6.20831e-05)
(0.0767685 0.000167152 6.47425e-05)
(0.0766101 -0.000139297 6.47953e-05)
(0.0669184 0.000143869 6.68958e-05)
(0.0667841 -0.000174984 6.69571e-05)
(0.0600998 0.000184272 6.98518e-05)
(0.0599935 -0.000149131 6.98963e-05)
(0.055565 0.000153792 7.18765e-05)
(0.0554832 -0.000192819 7.19373e-05)
(0.0524928 0.000203373 7.48486e-05)
(0.0524268 -0.000159193 7.48902e-05)
(0.0501902 0.000163642 7.65573e-05)
(0.0501269 -0.000212895 7.66234e-05)
(0.0480294 0.000224583 7.95147e-05)
(0.0479508 -0.000169455 7.95559e-05)
(0.0453012 0.000173314 8.09873e-05)
(0.0451812 -0.000235386 8.10608e-05)
(0.0411777 0.000248572 8.42318e-05)
(0.0409782 -0.000179338 8.42698e-05)
(0.034895 0.000182799 8.56261e-05)
(0.0345588 -0.000260366 8.57016e-05)
(0.0258693 0.000275588 8.92058e-05)
(0.0253107 -0.000188674 8.92277e-05)
(0.0137459 0.000191407 9.02975e-05)
(0.0128539 -0.000288574 9.03575e-05)
(-0.00154001 0.000305864 9.41527e-05)
(-0.00283167 -0.000197307 9.41339e-05)
(-0.0201212 0.000198992 9.48808e-05)
(-0.0215683 -0.000320331 9.49127e-05)
(-0.0421631 0.0003398 9.91127e-05)
(-0.0433893 -0.000204494 9.91673e-05)
(-0.0673234 0.000205116 9.95189e-05)
(-0.068195 -0.000356184 9.96609e-05)
(-0.0948226 0.000378258 0.000104415)
(-0.0954315 -0.000210008 0.000104589)
(-0.124035 0.000209353 0.000104499)
(-0.124504 -0.000396764 0.000104808)
(-0.154853 0.000422344 0.000110227)
(-0.155249 -0.000213305 0.000110573)
(-0.187609 0.000210948 0.000109703)
(-0.187962 -0.00044339 0.000110249)
(-0.222414 0.000473092 0.000116294)
(-0.222732 -0.000214181 0.000116881)
(-0.258598 0.000209587 0.000115004)
(-0.258884 -0.000497183 0.000115887)
(-0.29486 0.000532311 0.000122716)
(-0.295112 -0.000212052 0.000123635)
(-0.329773 0.000204486 0.000120348)
(-0.329992 -0.000560087 0.00012169)
(-0.362342 0.000602227 0.000129393)
(-0.36253 -0.000206462 0.000130723)
(-0.391634 0.000194835 0.000125525)
(-0.391788 -0.000634404 0.000127448)
(-0.41597 0.00068583 0.000136202)
(-0.416086 -0.000196724 0.000137994)
(-0.433402 0.000179404 0.000130247)
(-0.433476 -0.000723047 0.000132863)
(-0.443068 0.000786803 0.000142958)
(-0.443104 -0.000182038 0.000145177)
(-0.44602 0.0001569 0.000134271)
(-0.446026 -0.00082898 0.000137635)
(-0.444891 0.000909076 0.000149425)
(-0.444882 -0.00016175 0.00015193)
(-0.442759 0.000124751 0.000137144)
(-0.44275 -0.000956007 0.000141345)
(-0.441815 0.00105784 0.000155786)
(-0.441813 -0.000134379 0.000158463)
(-0.442353 8.09321e-05 0.00013942)
(-0.442357 -0.00110687 0.000144759)
(-0.443113 0.00123907 0.00016243)
(-0.443113 -9.88179e-05 0.0001652)
(-0.442401 2.08717e-05 0.000140061)
(-0.442385 -0.00128635 0.000147025)
(-0.438741 0.00146037 0.000168105)
(-0.438697 -5.4384e-05 0.000170686)
(-0.431184 -6.00805e-05 0.000137575)
(-0.431107 -0.00149825 0.000146751)
(-0.419568 0.00173111 0.000171652)
(-0.419452 -1.29161e-06 0.000173371)
(-0.404516 -0.000169622 0.000130202)
(-0.404361 -0.00174734 0.000155095)
(-0.386659 0.00206394 0.000172957)
(-0.386458 6.0306e-05 0.000172687)
(-0.365466 -0.000316941 0.000118691)
(-0.3652 -0.00203671 0.000177251)
(-0.339996 0.00247574 0.000174757)
(-0.339644 0.000130128 0.000176907)
(-0.310765 -0.000515249 0.000104635)
(-0.31032 -0.00236955 0.000202604)
(-0.279478 0.00298749 0.000178717)
(-0.278943 0.000206606 0.000196973)
(-0.248412 -0.00078418 8.64547e-05)
(-0.247809 -0.00275051 0.00023138)
(-0.219872 0.00362542 0.000183582)
(-0.21923 0.000288047 0.000217579)
(-0.194933 -0.00114895 6.12596e-05)
(-0.19427 -0.00318406 0.000263757)
(-0.173152 0.00667779 0.000767958)
(-0.172502 0.000369077 0.000156081)
(-0.153341 -0.00427826 0.000315636)
(-0.152756 -0.00319451 8.84195e-05)
(-0.136141 0.00709371 0.000371893)
(-0.135659 0.000869343 0.000131255)
(-0.122707 -0.00520744 0.000351519)
(-0.12235 -0.00312456 7.56569e-05)
(-0.112727 0.00741312 0.000408875)
(-0.112466 0.00135486 0.000101933)
(-0.10392 -0.00610715 0.000396061)
(-0.103708 -0.00296675 5.73657e-05)
(-0.0945194 0.00760991 0.000451476)
(-0.0943516 0.00183872 6.74896e-05)
(-0.0858604 -0.00696415 0.000449255)
(-0.0857652 -0.00271562 3.32594e-05)
(-0.0807371 0.00764955 0.000497197)
(-0.0807064 0.00232976 2.48776e-05)
(0.0815031 -1.31621e-08 -1.88487e-21)
(0.0815029 2.05358e-08 1.34025e-06)
(0.245491 -2.42076e-08 1.73291e-10)
(0.245491 6.50419e-08 2.02658e-06)
(0.411652 -5.34325e-08 5.49889e-10)
(0.411651 9.91952e-08 1.8284e-06)
(0.580003 -1.0051e-07 1.1004e-09)
(0.580001 1.10014e-07 1.26991e-06)
(0.750558 -1.31801e-07 1.47747e-09)
(0.750556 1.1543e-07 7.38912e-07)
(0.923333 -1.40697e-07 1.75329e-09)
(0.923331 1.26471e-07 4.41728e-07)
(1.09835 -1.43516e-07 2.02159e-09)
(1.09835 1.3635e-07 2.91883e-07)
(1.27564 -1.46191e-07 2.33832e-09)
(1.27563 1.42988e-07 2.11006e-07)
(1.45523 -1.49051e-07 2.72437e-09)
(1.45523 1.47241e-07 1.62789e-07)
(1.63719 -1.50856e-07 3.17807e-09)
(1.63718 1.51258e-07 1.31383e-07)
(1.82155 -1.53124e-07 3.70104e-09)
(1.82155 1.53908e-07 1.09377e-07)
(2.00838 -1.54938e-07 4.29751e-09)
(2.00838 1.56396e-07 9.29859e-08)
(2.19776 -1.56548e-07 4.96804e-09)
(2.19776 1.58625e-07 8.01084e-08)
(2.38975 -1.58238e-07 5.71813e-09)
(2.38975 1.6043e-07 6.94929e-08)
(2.58443 -1.59641e-07 6.55237e-09)
(2.58443 1.62253e-07 6.03454e-08)
(2.78189 -1.61223e-07 7.47559e-09)
(2.78188 1.63688e-07 5.21327e-08)
(2.9822 -1.62415e-07 8.49243e-09)
(2.98219 1.65344e-07 4.4478e-08)
(3.18544 -1.63722e-07 9.60861e-09)
(3.18544 1.66749e-07 3.71007e-08)
(3.39171 -1.65168e-07 1.08328e-08)
(3.39171 1.67905e-07 2.97809e-08)
(3.60108 -1.663e-07 1.21688e-08)
(3.60108 1.69286e-07 2.23393e-08)
(3.81363 -1.6735e-07 1.36222e-08)
(3.81363 1.70677e-07 1.46232e-08)
(4.02943 -1.68629e-07 6.50658e-09)
(4.02943 1.71779e-07 6.49466e-09)
(4.24854 -1.7014e-07 -2.1628e-09)
(4.24854 1.72601e-07 -2.17451e-09)
(4.47102 -1.70707e-07 -1.14915e-08)
(4.47101 1.74331e-07 -1.15031e-08)
(4.6969 -1.72088e-07 -2.15977e-08)
(4.6969 1.75219e-07 -2.16091e-08)
(4.92624 -1.73242e-07 -3.26021e-08)
(4.92623 1.76312e-07 -2.57968e-08)
(5.15902 -1.74771e-07 -4.46255e-08)
(5.15902 1.77015e-07 -2.82868e-08)
(5.39527 -1.75038e-07 -5.77885e-08)
(5.39527 1.78974e-07 -3.09635e-08)
(5.63496 -1.76783e-07 -7.22205e-08)
(5.63496 1.79451e-07 -3.38419e-08)
(5.87806 -1.77644e-07 -8.80593e-08)
(5.87806 1.80815e-07 -3.69273e-08)
(6.1245 -1.79391e-07 -1.05447e-07)
(6.1245 1.81299e-07 -4.02255e-08)
(6.37421 -1.79501e-07 -1.2453e-07)
(6.37421 1.83435e-07 -4.37565e-08)
(6.62708 -1.81399e-07 -1.45471e-07)
(6.62708 1.83794e-07 -4.75393e-08)
(6.88297 -1.82392e-07 -1.64084e-07)
(6.88297 1.85084e-07 -5.15775e-08)
(7.14174 -1.8386e-07 -1.63572e-07)
(7.14174 1.85918e-07 -5.58835e-08)
(7.40318 -1.84273e-07 -1.63307e-07)
(7.40318 1.87838e-07 -6.04823e-08)
(7.6671 -1.86144e-07 -1.63275e-07)
(7.66709 1.88329e-07 -6.53933e-08)
(7.93323 -1.87292e-07 -1.63465e-07)
(7.93322 1.89581e-07 -7.06228e-08)
(8.2013 -1.88737e-07 -1.63867e-07)
(8.2013 1.90575e-07 -7.61867e-08)
(8.471 -1.89338e-07 -1.64472e-07)
(8.471 1.92454e-07 -8.21141e-08)
(8.742 -1.9105e-07 -1.65273e-07)
(8.742 1.93271e-07 -8.84311e-08)
(9.01393 -1.9249e-07 -1.66264e-07)
(9.01393 1.94409e-07 -9.51488e-08)
(9.28637 -1.942e-07 -1.6744e-07)
(9.28637 1.95331e-07 -1.02279e-07)
(9.5589 -1.94248e-07 -1.68797e-07)
(9.55889 1.97976e-07 -1.09867e-07)
(9.83104 -1.97506e-07 -1.70331e-07)
(9.83104 1.9747e-07 -1.17927e-07)
(10.1023 -1.96927e-07 -1.72039e-07)
(10.1023 2.00873e-07 -1.26487e-07)
(10.3722 -2.01187e-07 -1.73919e-07)
(10.3722 1.99501e-07 -1.3556e-07)
(10.6401 -1.99103e-07 -1.75967e-07)
(10.6401 2.04554e-07 -1.4519e-07)
(10.9055 -2.03164e-07 -1.78181e-07)
(10.9055 2.03539e-07 -1.55433e-07)
(11.1678 -2.05763e-07 -1.80559e-07)
(11.1678 2.04068e-07 -1.66238e-07)
(11.4263 -2.06808e-07 -1.83098e-07)
(11.4263 2.06248e-07 -1.77621e-07)
(11.6804 -2.0028e-07 -1.89819e-07)
(11.6804 2.16083e-07 -1.89823e-07)
(11.9295 -2.21696e-07 -2.02601e-07)
(11.9295 1.98082e-07 -2.02605e-07)
(12.1729 -1.99897e-07 -2.16075e-07)
(12.1729 2.23394e-07 -2.16079e-07)
(12.4098 -2.19902e-07 -2.30414e-07)
(12.4098 2.07014e-07 -2.30419e-07)
(12.6396 -2.14692e-07 -2.45363e-07)
(12.6396 2.15966e-07 -2.45368e-07)
(12.8617 -2.1247e-07 -2.61232e-07)
(12.8617 2.22035e-07 -2.61237e-07)
(13.0752 -2.28179e-07 -2.77802e-07)
(13.0752 2.10313e-07 -2.77807e-07)
(13.2795 -2.13621e-07 -2.95155e-07)
(13.2795 2.28971e-07 -2.95161e-07)
(13.474 -2.30187e-07 -3.1337e-07)
(13.474 2.16656e-07 -3.13377e-07)
(13.6579 -2.20195e-07 -3.32391e-07)
(13.6579 2.31017e-07 -3.32398e-07)
(13.8307 -2.33489e-07 -3.52256e-07)
(13.8307 2.22251e-07 -3.52263e-07)
(13.9917 -2.34355e-07 -3.72686e-07)
(13.9917 2.26056e-07 -3.72693e-07)
(14.1402 -2.2606e-07 -3.94004e-07)
(14.1402 2.39156e-07 -3.94012e-07)
(14.2759 -2.41598e-07 -4.16136e-07)
(14.2759 2.28606e-07 -4.16144e-07)
(14.3981 -2.45239e-07 -4.38634e-07)
(14.3981 2.30084e-07 -4.38642e-07)
(14.5064 -2.29972e-07 -4.6195e-07)
(14.5064 2.50639e-07 -4.61959e-07)
(14.6004 -2.6604e-07 -4.85593e-07)
(14.6004 2.20022e-07 -4.85602e-07)
(14.6797 -2.20124e-07 -5.09966e-07)
(14.6797 2.71547e-07 -5.09976e-07)
(14.7442 -2.90437e-07 -5.34475e-07)
(14.7442 2.07005e-07 -5.34485e-07)
(14.7935 -2.15608e-07 -5.59354e-07)
(14.7935 2.87771e-07 -5.59365e-07)
(14.8276 -2.97561e-07 -5.84566e-07)
(14.8276 2.11917e-07 -5.84577e-07)
(14.8465 -2.29529e-07 -6.09787e-07)
(14.8465 2.86212e-07 -6.09799e-07)
(14.8501 -2.94684e-07 -6.35321e-07)
(14.8501 2.2748e-07 -6.35333e-07)
(14.8385 -2.45684e-07 -6.60807e-07)
(14.8385 2.83066e-07 -6.60819e-07)
(14.8121 -2.94348e-07 -6.86499e-07)
(14.8121 2.41147e-07 -6.86512e-07)
(14.771 -2.65112e-07 -7.11955e-07)
(14.771 2.77289e-07 -7.11968e-07)
(14.7156 -2.85675e-07 -7.37751e-07)
(14.7156 2.63798e-07 -7.37765e-07)
(14.6463 -2.89069e-07 -7.6333e-07)
(14.6463 2.67627e-07 -7.63345e-07)
(14.5637 -2.77461e-07 -7.89289e-07)
(14.5637 2.86629e-07 -7.89304e-07)
(14.4683 -3.13965e-07 -8.15066e-07)
(14.4683 2.57675e-07 -8.15082e-07)
(14.3607 -2.72237e-07 -8.41173e-07)
(14.3607 3.07133e-07 -8.41189e-07)
(14.2416 -3.26833e-07 -8.67522e-07)
(14.2416 2.60418e-07 -8.67539e-07)
(14.1116 -2.85394e-07 -8.93961e-07)
(14.1116 3.09939e-07 -8.93978e-07)
(13.9716 -3.26456e-07 -9.20911e-07)
(13.9716 2.77105e-07 -9.20928e-07)
(13.8223 -2.97058e-07 -9.48306e-07)
(13.8223 3.1496e-07 -9.48324e-07)
(13.6645 -3.37911e-07 -9.76123e-07)
(13.6645 2.82704e-07 -9.76141e-07)
(13.4989 -3.0373e-07 -1.00449e-06)
(13.4989 3.25751e-07 -1.00451e-06)
(13.3264 -3.49748e-07 -1.03338e-06)
(13.3264 2.88728e-07 -1.0334e-06)
(13.1477 -3.14023e-07 -1.06277e-06)
(13.1477 3.33765e-07 -1.06279e-06)
(12.9636 -3.50092e-07 -1.09313e-06)
(12.9636 3.07128e-07 -1.09315e-06)
(12.7748 -3.33671e-07 -1.12407e-06)
(12.7748 3.33356e-07 -1.12409e-06)
(12.5821 -3.54604e-07 -1.15587e-06)
(12.5821 3.22323e-07 -1.15589e-06)
(12.3862 -3.54024e-07 -1.18812e-06)
(12.3862 3.33275e-07 -1.18815e-06)
(12.1876 -3.46754e-07 -1.22166e-06)
(12.1876 3.50949e-07 -1.22169e-06)
(11.9872 -3.79198e-07 -1.2559e-06)
(11.9872 3.29503e-07 -1.25592e-06)
(11.7853 -3.6137e-07 -1.29066e-06)
(11.7853 3.58297e-07 -1.29068e-06)
(11.5826 -3.73802e-07 -1.32674e-06)
(11.5826 3.57569e-07 -1.32676e-06)
(11.3795 -3.91517e-07 -1.3633e-06)