/*--------------------------------*- C++ -*----------------------------------*\
| =========                 |                                                 |
| \\      /  F ield         | OpenFOAM: The Open Source CFD Toolbox           |
|  \\    /   O peration     | Version:  2012                                  |
|   \\  /    A nd           | Website:  www.openfoam.com                      |
|    \\/     M anipulation  |                                                 |
\*---------------------------------------------------------------------------*/
FoamFile
{
    version     2.0;
    format      ascii;
    class       volSymmTensorField;
    location    "4000";
    object      turbulenceProperties:R;
}
// * * * * * * * * * * * * * * * * * * * * * * * * * * * * * * * * * * * * * //

dimensions      [0 2 -2 0 0 0 0];


internalField   nonuniform List<symmTensor> 
2560
(
(8.87383e-08 -2.44151e-12 -3.53418e-15 8.87383e-08 1.32661e-27 8.87383e-08)
(8.87383e-08 -2.44151e-12 -3.53418e-15 8.87383e-08 -5.05391e-31 8.87383e-08)
(1.4262e-08 -2.25546e-12 -9.84193e-15 1.4262e-08 -9.03263e-28 1.4262e-08)
(1.4262e-08 -2.25546e-12 -9.84193e-15 1.4262e-08 -7.50186e-31 1.4262e-08)
(1.27984e-08 -5.97119e-12 -3.58463e-14 1.27984e-08 -9.83802e-29 1.27984e-08)
(1.27984e-08 -5.97119e-12 -3.58463e-14 1.27984e-08 -2.03275e-30 1.27984e-08)
(3.45217e-08 -3.41594e-11 -2.08052e-13 3.45217e-08 9.44275e-27 3.45217e-08)
(3.45217e-08 -3.41594e-11 -2.08052e-13 3.45217e-08 -1.69189e-29 3.45217e-08)
(8.69596e-08 -1.51837e-10 -9.38252e-13 8.69596e-08 -3.27482e-27 8.69596e-08)
(8.69596e-08 -1.51837e-10 -9.38252e-13 8.69596e-08 -8.33588e-29 8.69596e-08)
(1.84855e-07 -5.08325e-10 -3.18685e-12 1.84855e-07 -9.5127e-27 1.84855e-07)
(1.84855e-07 -5.08325e-10 -3.18685e-12 1.84855e-07 -2.82628e-28 1.84855e-07)
(3.46319e-07 -1.38978e-09 -8.83981e-12 3.46319e-07 -3.8731e-26 3.46319e-07)
(3.46319e-07 -1.38978e-09 -8.83981e-12 3.46319e-07 -8.53848e-28 3.46319e-07)
(5.92325e-07 -3.2858e-09 -2.1204e-11 5.92325e-07 -8.85639e-26 5.92325e-07)
(5.92325e-07 -3.2858e-09 -2.1204e-11 5.92325e-07 -2.33777e-27 5.92325e-07)
(9.46697e-07 -6.97215e-09 -4.5648e-11 9.46697e-07 -1.94222e-25 9.46697e-07)
(9.46697e-07 -6.97215e-09 -4.5648e-11 9.46697e-07 -5.23758e-27 9.46697e-07)
(1.43622e-06 -1.36117e-08 -9.0416e-11 1.43622e-06 -3.85094e-25 1.43622e-06)
(1.43622e-06 -1.36117e-08 -9.0416e-11 1.43622e-06 -1.03161e-26 1.43622e-06)
(2.09081e-06 -2.48764e-08 -1.67648e-10 2.09081e-06 -7.12412e-25 2.09081e-06)
(2.09081e-06 -2.48764e-08 -1.67648e-10 2.09081e-06 -2.08584e-26 2.09081e-06)
(2.9437e-06 -4.3093e-08 -2.94642e-10 2.9437e-06 -1.25618e-24 2.9437e-06)
(2.9437e-06 -4.3093e-08 -2.94642e-10 2.9437e-06 -3.93668e-26 2.9437e-06)
(4.03163e-06 -7.14157e-08 -4.95404e-10 4.03163e-06 -2.12897e-24 4.03163e-06)
(4.03163e-06 -7.14157e-08 -4.95404e-10 4.03163e-06 -6.51823e-26 4.03163e-06)
(5.3951e-06 -1.14029e-07 -8.02525e-10 5.3951e-06 -3.48033e-24 5.3951e-06)
(5.3951e-06 -1.14029e-07 -8.02525e-10 5.3951e-06 -9.95971e-26 5.3951e-06)
(7.07863e-06 -1.76385e-07 -1.25945e-09 7.07863e-06 -5.49944e-24 7.07863e-06)
(7.07863e-06 -1.76385e-07 -1.25945e-09 7.07863e-06 -1.59803e-25 7.07863e-06)
(9.13094e-06 -2.65477e-07 -1.92319e-09 9.13094e-06 -8.4522e-24 9.13094e-06)
(9.13094e-06 -2.65477e-07 -1.92319e-09 9.13094e-06 -2.81352e-25 9.13094e-06)
(1.16053e-05 -3.90153e-07 -2.86751e-09 1.16053e-05 -1.27203e-23 1.16053e-05)
(1.16053e-05 -3.90153e-07 -2.86751e-09 1.16053e-05 -4.65918e-25 1.16053e-05)
(1.45597e-05 -5.61478e-07 -4.18675e-09 1.45597e-05 -1.87477e-23 1.45597e-05)
(1.45597e-05 -5.61478e-07 -4.18675e-09 1.45597e-05 -7.002e-25 1.45597e-05)
(1.80572e-05 -7.93136e-07 -6.0002e-09 1.80572e-05 -2.7079e-23 1.80572e-05)
(1.80572e-05 -7.93136e-07 -6.0002e-09 1.80572e-05 -1.1046e-24 1.80572e-05)
(2.21663e-05 -1.10189e-06 -8.45721e-09 2.21663e-05 -3.84861e-23 2.21663e-05)
(2.21663e-05 -1.10189e-06 -8.45721e-09 2.21663e-05 -1.68734e-24 2.21663e-05)
(2.69607e-05 -1.50807e-06 -1.17431e-08 2.69607e-05 -5.37035e-23 2.69607e-05)
(2.69607e-05 -1.50807e-06 -1.17431e-08 2.69607e-05 -2.24522e-24 2.69607e-05)
(3.25204e-05 -2.03616e-06 -1.60857e-08 3.25204e-05 -7.3687e-23 3.25204e-05)
(3.25204e-05 -2.03616e-06 -1.60857e-08 3.25204e-05 -2.53248e-24 3.25204e-05)
(3.89312e-05 -2.71535e-06 -2.1763e-08 3.89312e-05 -1.005e-22 3.89312e-05)
(3.89312e-05 -2.71535e-06 -2.1763e-08 3.89312e-05 -3.5338e-24 3.89312e-05)
(4.62849e-05 -3.58021e-06 -2.91115e-08 4.62849e-05 -1.36317e-22 4.62849e-05)
(4.62849e-05 -3.58021e-06 -2.91115e-08 4.62849e-05 -5.17504e-24 4.62849e-05)
(5.468e-05 -4.67134e-06 -3.85352e-08 5.468e-05 -1.81265e-22 5.468e-05)
(5.468e-05 -4.67134e-06 -3.85352e-08 5.468e-05 -7.05759e-24 5.468e-05)
(6.42213e-05 -6.03605e-06 -5.05154e-08 6.42213e-05 -2.38125e-22 6.42213e-05)
(6.42213e-05 -6.03605e-06 -5.05154e-08 6.42213e-05 -9.55903e-24 6.42213e-05)
(7.502e-05 -7.72904e-06 -6.56217e-08 7.502e-05 -3.10382e-22 7.502e-05)
(7.502e-05 -7.72904e-06 -6.56217e-08 7.502e-05 -1.17529e-23 7.502e-05)
(8.71936e-05 -9.81303e-06 -8.45222e-08 8.71936e-05 -4.01078e-22 8.71936e-05)
(8.71936e-05 -9.81303e-06 -8.45222e-08 8.71936e-05 -1.50627e-23 8.71936e-05)
(0.000100866 -1.23594e-05 -1.07995e-07 0.000100866 -5.14491e-22 0.000100866)
(0.000100866 -1.23594e-05 -1.07995e-07 0.000100866 -1.76208e-23 0.000100866)
(0.000116166 -1.54485e-05 -1.36939e-07 0.000116166 -6.54959e-22 0.000116166)
(0.000116166 -1.54485e-05 -1.36939e-07 0.000116166 -2.08519e-23 0.000116166)
(0.000133228 -1.91702e-05 -1.72383e-07 0.000133228 -8.27163e-22 0.000133228)
(0.000133228 -1.91702e-05 -1.72383e-07 0.000133228 -3.05579e-23 0.000133228)
(0.000152192 -2.3624e-05 -2.15496e-07 0.000152192 -1.03133e-21 0.000152192)
(0.000152192 -2.3624e-05 -2.15496e-07 0.000152192 -4.18987e-23 0.000152192)
(0.000173199 -2.89186e-05 -2.67591e-07 0.000173199 -1.27952e-21 0.000173199)
(0.000173199 -2.89186e-05 -2.67591e-07 0.000173199 -5.40203e-23 0.000173199)
(0.000196395 -3.51716e-05 -3.30131e-07 0.000196395 -1.58263e-21 0.000196395)
(0.000196395 -3.51716e-05 -3.30131e-07 0.000196395 -6.72289e-23 0.000196395)
(0.000221925 -4.25089e-05 -4.04728e-07 0.000221925 -1.93328e-21 0.000221925)
(0.000221925 -4.25089e-05 -4.04728e-07 0.000221925 -8.27911e-23 0.000221925)
(0.000249934 -5.10632e-05 -4.93139e-07 0.000249934 -2.33911e-21 0.000249934)
(0.000249934 -5.10632e-05 -4.93139e-07 0.000249934 -8.05656e-23 0.000249934)
(0.000280563 -6.09721e-05 -5.97255e-07 0.000280563 -2.81556e-21 0.000280563)
(0.000280563 -6.09721e-05 -5.97255e-07 0.000280563 -9.08437e-23 0.000280563)
(0.000313949 -7.23762e-05 -7.19082e-07 0.000313949 -3.35017e-21 0.000313949)
(0.000313949 -7.23762e-05 -7.19082e-07 0.000313949 -1.23534e-22 0.000313949)
(0.000350222 -8.54161e-05 -8.60726e-07 0.000350222 -3.99098e-21 0.000350222)
(0.000350222 -8.54161e-05 -8.60726e-07 0.000350222 -1.53701e-22 0.000350222)
(0.0003895 -0.000100229 -1.02436e-06 0.0003895 -4.70722e-21 0.0003895)
(0.0003895 -0.000100229 -1.02436e-06 0.0003895 -2.11506e-22 0.0003895)
(0.000431888 -0.000116947 -1.21217e-06 0.000431888 -5.47727e-21 0.000431888)
(0.000431888 -0.000116947 -1.21217e-06 0.000431888 -2.58805e-22 0.000431888)
(0.000477477 -0.00013569 -1.42636e-06 0.000477477 -6.32617e-21 0.000477477)
(0.000477477 -0.00013569 -1.42636e-06 0.000477477 -3.1336e-22 0.000477477)
(0.000526336 -0.000156564 -1.66905e-06 0.000526336 -7.25415e-21 0.000526336)
(0.000526336 -0.000156564 -1.66905e-06 0.000526336 -3.24678e-22 0.000526336)
(0.000578515 -0.000179657 -1.94226e-06 0.000578515 -8.29796e-21 0.000578515)
(0.000578515 -0.000179657 -1.94226e-06 0.000578515 -3.34159e-22 0.000578515)
(0.000634038 -0.000205036 -2.24785e-06 0.000634038 -9.44725e-21 0.000634038)
(0.000634038 -0.000205036 -2.24785e-06 0.000634038 -4.02747e-22 0.000634038)
(0.000692904 -0.00023274 -2.58749e-06 0.000692904 -1.05986e-20 0.000692904)
(0.000692904 -0.00023274 -2.58749e-06 0.000692904 -5.04442e-22 0.000692904)
(0.000755083 -0.000262784 -2.96258e-06 0.000755083 -1.17481e-20 0.000755083)
(0.000755083 -0.000262784 -2.96258e-06 0.000755083 -6.03923e-22 0.000755083)
(0.000820518 -0.000295151 -3.37423e-06 0.000820518 -1.30225e-20 0.000820518)
(0.000820518 -0.000295151 -3.37423e-06 0.000820518 -7.81921e-22 0.000820518)
(0.000889119 -0.000329795 -3.82324e-06 0.000889119 -1.43478e-20 0.000889119)
(0.000889119 -0.000329795 -3.82324e-06 0.000889119 -9.1732e-22 0.000889119)
(0.000960771 -0.00036664 -4.31006e-06 0.000960771 -1.57467e-20 0.000960771)
(0.000960771 -0.00036664 -4.31006e-06 0.000960771 -1.05082e-21 0.000960771)
(0.00103533 -0.000405581 -4.83481e-06 0.00103533 -1.71794e-20 0.00103533)
(0.00103533 -0.000405581 -4.83481e-06 0.00103533 -1.13574e-21 0.00103533)
(0.00111262 -0.000446487 -5.39723e-06 0.00111262 -1.85719e-20 0.00111262)
(0.00111262 -0.000446487 -5.39723e-06 0.00111262 -9.31514e-22 0.00111262)
(0.00119244 -0.000489203 -5.99677e-06 0.00119244 -1.99365e-20 0.00119244)
(0.00119244 -0.000489203 -5.99677e-06 0.00119244 -8.44516e-22 0.00119244)
(0.00127459 -0.000533554 -6.63254e-06 0.00127459 -2.09926e-20 0.00127459)
(0.00127459 -0.000533554 -6.63254e-06 0.00127459 -7.65338e-22 0.00127459)
(0.00135881 -0.00057935 -7.30337e-06 0.00135881 -2.21995e-20 0.00135881)
(0.00135881 -0.00057935 -7.30337e-06 0.00135881 -8.20304e-22 0.00135881)
(0.00144487 -0.000626389 -8.00787e-06 0.00144487 -2.34872e-20 0.00144487)
(0.00144487 -0.000626389 -8.00787e-06 0.00144487 -1.00485e-21 0.00144487)
(0.0015325 -0.000674463 -8.74442e-06 0.0015325 -2.46168e-20 0.0015325)
(0.0015325 -0.000674463 -8.74442e-06 0.0015325 -1.25935e-21 0.0015325)
(0.00162143 -0.00072336 -9.51127e-06 0.00162143 -2.65777e-20 0.00162143)
(0.00162143 -0.00072336 -9.51127e-06 0.00162143 -1.65852e-21 0.00162143)
(0.00171139 -0.00077287 -1.03065e-05 0.00171139 -2.84676e-20 0.00171139)
(0.00171139 -0.00077287 -1.03065e-05 0.00171139 -2.1701e-21 0.00171139)
(0.00180211 -0.000822787 -1.11283e-05 0.00180211 -3.0063e-20 0.00180211)
(0.00180211 -0.000822787 -1.11283e-05 0.00180211 -2.30407e-21 0.00180211)
(0.00189331 -0.000872913 -1.19746e-05 0.00189331 -3.19861e-20 0.00189331)
(0.00189331 -0.000872913 -1.19746e-05 0.00189331 -2.55806e-21 0.00189331)
(0.00198474 -0.000923062 -1.28433e-05 0.00198474 -3.40998e-20 0.00198474)
(0.00198474 -0.000923062 -1.28433e-05 0.00198474 -2.73954e-21 0.00198474)
(0.00207615 -0.000973057 -1.37327e-05 0.00207615 -3.6116e-20 0.00207615)
(0.00207615 -0.000973057 -1.37327e-05 0.00207615 -2.00183e-21 0.00207615)
(0.00216728 -0.00102274 -1.46407e-05 0.00216728 -3.84018e-20 0.00216728)
(0.00216728 -0.00102274 -1.46407e-05 0.00216728 -2.61854e-21 0.00216728)
(0.00225791 -0.00107195 -1.55656e-05 0.00225791 -4.0289e-20 0.00225791)
(0.00225791 -0.00107195 -1.55656e-05 0.00225791 -2.98816e-21 0.00225791)
(0.00234782 -0.00112057 -1.65057e-05 0.00234782 -4.18423e-20 0.00234782)
(0.00234782 -0.00112057 -1.65057e-05 0.00234782 -2.61587e-21 0.00234782)
(0.00243681 -0.00116847 -1.74592e-05 0.00243681 -4.3425e-20 0.00243681)
(0.00243681 -0.00116847 -1.74592e-05 0.00243681 -2.49178e-21 0.00243681)
(0.00252469 -0.00121554 -1.84247e-05 0.00252469 -4.54232e-20 0.00252469)
(0.00252469 -0.00121554 -1.84247e-05 0.00252469 -1.19509e-21 0.00252469)
(0.0026113 -0.0012617 -1.94007e-05 0.0026113 -4.79712e-20 0.0026113)
(0.0026113 -0.0012617 -1.94007e-05 0.0026113 -1.99164e-21 0.0026113)
(0.00269648 -0.00130687 -2.0386e-05 0.00269648 -5.0398e-20 0.00269648)
(0.00269648 -0.00130687 -2.0386e-05 0.00269648 -2.31073e-21 0.00269648)
(0.00278008 -0.00135097 -2.13793e-05 0.00278008 -5.15757e-20 0.00278008)
(0.00278008 -0.00135097 -2.13793e-05 0.00278008 -1.05038e-21 0.00278008)
(0.00286198 -0.00139396 -2.23794e-05 0.00286198 -5.24961e-20 0.00286198)
(0.00286198 -0.00139396 -2.23794e-05 0.00286198 -1.10523e-21 0.00286198)
(0.00294208 -0.00143578 -2.33854e-05 0.00294208 -5.47515e-20 0.00294208)
(0.00294208 -0.00143578 -2.33854e-05 0.00294208 3.01369e-22 0.00294208)
(0.00302027 -0.0014764 -2.43964e-05 0.00302027 -5.89432e-20 0.00302027)
(0.00302027 -0.0014764 -2.43964e-05 0.00302027 4.70278e-22 0.00302027)
(0.00309647 -0.00151579 -2.54114e-05 0.00309647 -6.19758e-20 0.00309647)
(0.00309647 -0.00151579 -2.54114e-05 0.00309647 -1.57091e-21 0.00309647)
(0.0031706 -0.00155393 -2.64297e-05 0.0031706 -6.42604e-20 0.0031706)
(0.0031706 -0.00155393 -2.64297e-05 0.0031706 -2.35977e-22 0.0031706)
(0.00324261 -0.0015908 -2.74507e-05 0.00324261 -6.77059e-20 0.00324261)
(0.00324261 -0.0015908 -2.74507e-05 0.00324261 -1.27351e-22 0.00324261)
(0.00331244 -0.00162639 -2.84735e-05 0.00331244 -7.06245e-20 0.00331244)
(0.00331244 -0.00162639 -2.84735e-05 0.00331244 -2.86797e-21 0.00331244)
(0.00338005 -0.0016607 -2.94978e-05 0.00338005 -7.37125e-20 0.00338005)
(0.00338005 -0.0016607 -2.94978e-05 0.00338005 -5.8877e-21 0.00338005)
(0.00344541 -0.00169372 -3.05228e-05 0.00344541 -8.02147e-20 0.00344541)
(0.00344541 -0.00169372 -3.05228e-05 0.00344541 -9.64048e-21 0.00344541)
(0.00350849 -0.00172546 -3.15481e-05 0.00350849 -8.38431e-20 0.00350849)
(0.00350849 -0.00172546 -3.15481e-05 0.00350849 -7.98062e-21 0.00350849)
(0.00356928 -0.00175592 -3.25732e-05 0.00356928 -8.90021e-20 0.00356928)
(0.00356928 -0.00175592 -3.25732e-05 0.00356928 -6.12797e-21 0.00356928)
(0.00362776 -0.00178511 -3.35978e-05 0.00362776 -9.86269e-20 0.00362776)
(0.00362776 -0.00178511 -3.35978e-05 0.00362776 -7.8304e-21 0.00362776)
(0.00368393 -0.00181304 -3.46213e-05 0.00368393 -1.05941e-19 0.00368393)
(0.00368393 -0.00181304 -3.46213e-05 0.00368393 -6.68981e-21 0.00368393)
(0.00373778 -0.00183972 -3.56433e-05 0.00373778 -1.09023e-19 0.00373778)
(0.00373778 -0.00183972 -3.56433e-05 0.00373778 -2.29741e-21 0.00373778)
(0.00378933 -0.00186517 -3.66636e-05 0.00378933 -1.19145e-19 0.00378933)
(0.00378933 -0.00186517 -3.66636e-05 0.00378933 2.70473e-21 0.00378933)
(0.00383857 -0.00188939 -3.76818e-05 0.00383857 -1.24942e-19 0.00383857)
(0.00383857 -0.00188939 -3.76818e-05 0.00383857 1.61044e-20 0.00383857)
(0.00388552 -0.00191241 -3.86974e-05 0.00388552 -1.34545e-19 0.00388552)
(0.00388552 -0.00191241 -3.86974e-05 0.00388552 1.85908e-20 0.00388552)
(0.0039302 -0.00193424 -3.97103e-05 0.0039302 -1.40161e-19 0.0039302)
(0.0039302 -0.00193424 -3.97103e-05 0.0039302 9.27208e-21 0.0039302)
(0.00397262 -0.00195489 -4.072e-05 0.00397262 -1.47173e-19 0.00397262)
(0.00397262 -0.00195489 -4.072e-05 0.00397262 1.46348e-20 0.00397262)
(0.0040128 -0.00197439 -4.17263e-05 0.0040128 -1.52184e-19 0.0040128)
(0.0040128 -0.00197439 -4.17263e-05 0.0040128 1.90505e-20 0.0040128)
(0.00405076 -0.00199275 -4.27289e-05 0.00405076 -1.58201e-19 0.00405076)
(0.00405076 -0.00199275 -4.27289e-05 0.00405076 1.68982e-20 0.00405076)
(0.00408653 -0.00200998 -4.37274e-05 0.00408653 -1.60252e-19 0.00408653)
(0.00408653 -0.00200998 -4.37274e-05 0.00408653 1.47583e-20 0.00408653)
(0.00412014 -0.00202612 -4.47216e-05 0.00412014 -1.58758e-19 0.00412014)
(0.00412014 -0.00202612 -4.47216e-05 0.00412014 1.58496e-20 0.00412014)
(0.00415161 -0.00204117 -4.57111e-05 0.00415161 -1.65652e-19 0.00415161)
(0.00415161 -0.00204117 -4.57111e-05 0.00415161 3.18774e-20 0.00415161)
(0.00418097 -0.00205516 -4.66957e-05 0.00418097 -1.33046e-19 0.00418097)
(0.00418097 -0.00205516 -4.66957e-05 0.00418097 3.30999e-20 0.00418097)
(0.00420825 -0.00206809 -4.76751e-05 0.00420825 1.46225e-20 0.00420825)
(0.00420825 -0.00206809 -4.76751e-05 0.00420825 2.30282e-20 0.00420825)
(0.00423349 -0.00208 -4.8649e-05 0.00423349 1.40299e-19 0.00423349)
(0.00423349 -0.00208 -4.8649e-05 0.00423349 4.51987e-20 0.00423349)
(0.0042567 -0.0020909 -4.96171e-05 0.0042567 1.44554e-19 0.0042567)
(0.0042567 -0.0020909 -4.96171e-05 0.0042567 5.534e-20 0.0042567)
(0.00427793 -0.0021008 -5.0579e-05 0.00427793 1.40244e-19 0.00427793)
(0.00427793 -0.0021008 -5.0579e-05 0.00427793 3.71926e-20 0.00427793)
(0.00429721 -0.00210973 -5.15346e-05 0.00429721 1.08751e-19 0.00429721)
(0.00429721 -0.00210973 -5.15346e-05 0.00429721 3.46682e-20 0.00429721)
(0.00431456 -0.00211771 -5.24836e-05 0.00431456 1.10646e-19 0.00431456)
(0.00431456 -0.00211771 -5.24836e-05 0.00431456 3.11428e-20 0.00431456)
(0.00433003 -0.00212475 -5.34255e-05 0.00433003 1.56903e-19 0.00433003)
(0.00433003 -0.00212475 -5.34255e-05 0.00433003 1.77622e-20 0.00433003)
(0.00434365 -0.00213086 -5.43602e-05 0.00434365 1.3815e-19 0.00434365)
(0.00434365 -0.00213086 -5.43602e-05 0.00434365 1.27865e-20 0.00434365)
(0.00435545 -0.00213608 -5.52874e-05 0.00435545 1.32963e-19 0.00435545)
(0.00435545 -0.00213608 -5.52874e-05 0.00435545 2.68127e-20 0.00435545)
(0.00436546 -0.00214041 -5.62068e-05 0.00436546 1.37027e-19 0.00436546)
(0.00436546 -0.00214041 -5.62068e-05 0.00436546 3.46896e-20 0.00436546)
(0.00437373 -0.00214387 -5.7118e-05 0.00437373 1.56035e-19 0.00437373)
(0.00437373 -0.00214387 -5.7118e-05 0.00437373 3.55388e-20 0.00437373)
(0.00438028 -0.00214649 -5.80209e-05 0.00438028 1.8458e-19 0.00438028)
(0.00438028 -0.00214649 -5.80209e-05 0.00438028 5.49382e-20 0.00438028)
(0.00438514 -0.00214828 -5.8915e-05 0.00438514 1.61028e-19 0.00438514)
(0.00438514 -0.00214828 -5.8915e-05 0.00438514 6.06331e-20 0.00438514)
(0.00438836 -0.00214925 -5.98002e-05 0.00438836 1.4997e-19 0.00438836)
(0.00438836 -0.00214925 -5.98002e-05 0.00438836 5.14835e-20 0.00438836)
(0.00438997 -0.00214943 -6.06761e-05 0.00438997 1.64566e-19 0.00438997)
(0.00438997 -0.00214943 -6.06761e-05 0.00438997 4.65234e-20 0.00438997)
(0.00439 -0.00214883 -6.15426e-05 0.00439 1.72498e-19 0.00439)
(0.00439 -0.00214883 -6.15426e-05 0.00439 7.08728e-20 0.00439)
(0.00438849 -0.00214748 -6.23992e-05 0.00438849 1.95566e-19 0.00438849)
(0.00438849 -0.00214748 -6.23992e-05 0.00438849 8.28868e-20 0.00438849)
(0.00438547 -0.00214538 -6.32457e-05 0.00438547 1.92401e-19 0.00438547)
(0.00438547 -0.00214538 -6.32457e-05 0.00438547 6.5523e-20 0.00438547)
(0.00438098 -0.00214255 -6.40819e-05 0.00438098 1.86409e-19 0.00438098)
(0.00438098 -0.00214255 -6.40819e-05 0.00438098 7.40615e-20 0.00438098)
(0.00437505 -0.00213902 -6.49074e-05 0.00437505 2.15675e-19 0.00437505)
(0.00437505 -0.00213902 -6.49074e-05 0.00437505 8.1632e-20 0.00437505)
(0.00436771 -0.0021348 -6.57221e-05 0.00436771 1.83329e-19 0.00436771)
(0.00436771 -0.0021348 -6.57221e-05 0.00436771 9.76757e-20 0.00436771)
(0.004359 -0.00212991 -6.65256e-05 0.004359 1.58718e-19 0.004359)
(0.004359 -0.00212991 -6.65256e-05 0.004359 1.01515e-19 0.004359)
(0.00434895 -0.00212436 -6.73177e-05 0.00434895 2.55714e-19 0.00434895)
(0.00434895 -0.00212436 -6.73177e-05 0.00434895 7.45705e-20 0.00434895)
(0.0043376 -0.00211817 -6.80982e-05 0.0043376 2.09748e-19 0.0043376)
(0.0043376 -0.00211817 -6.80982e-05 0.0043376 1.09663e-19 0.0043376)
(0.00432498 -0.00211136 -6.88668e-05 0.00432498 1.66867e-19 0.00432498)
(0.00432498 -0.00211136 -6.88668e-05 0.00432498 1.45776e-19 0.00432498)
(0.00431112 -0.00210394 -6.96231e-05 0.00431112 2.5277e-19 0.00431112)
(0.00431112 -0.00210394 -6.96231e-05 0.00431112 1.38114e-19 0.00431112)
(0.00429606 -0.00209594 -7.03672e-05 0.00429606 2.5999e-19 0.00429606)
(0.00429606 -0.00209594 -7.03672e-05 0.00429606 1.37685e-19 0.00429606)
(0.00427983 -0.00208736 -7.10985e-05 0.00427983 2.30674e-19 0.00427983)
(0.00427983 -0.00208736 -7.10985e-05 0.00427983 1.77091e-19 0.00427983)
(0.00426247 -0.00207824 -7.18171e-05 0.00426247 1.66019e-19 0.00426247)
(0.00426247 -0.00207824 -7.18171e-05 0.00426247 1.84757e-19 0.00426247)
(0.004244 -0.00206857 -7.25225e-05 0.004244 2.36597e-19 0.004244)
(0.004244 -0.00206857 -7.25225e-05 0.004244 1.12172e-19 0.004244)
(0.00422445 -0.00205838 -7.32147e-05 0.00422445 3.00282e-19 0.00422445)
(0.00422445 -0.00205838 -7.32147e-05 0.00422445 1.19788e-19 0.00422445)
(0.00420387 -0.00204769 -7.38933e-05 0.00420387 1.88301e-19 0.00420387)
(0.00420387 -0.00204769 -7.38933e-05 0.00420387 1.71594e-19 0.00420387)
(0.00418228 -0.0020365 -7.45582e-05 0.00418228 2.08544e-19 0.00418228)
(0.00418228 -0.0020365 -7.45582e-05 0.00418228 1.4852e-19 0.00418228)
(0.00415972 -0.00202485 -7.52092e-05 0.00415972 3.10054e-19 0.00415972)
(0.00415972 -0.00202485 -7.52092e-05 0.00415972 7.20936e-20 0.00415972)
(0.00413621 -0.00201274 -7.58462e-05 0.00413621 2.9422e-19 0.00413621)
(0.00413621 -0.00201274 -7.58462e-05 0.00413621 4.81793e-20 0.00413621)
(0.00411179 -0.00200019 -7.64688e-05 0.00411179 3.11306e-19 0.00411179)
(0.00411179 -0.00200019 -7.64688e-05 0.00411179 1.13248e-19 0.00411179)
(0.00408649 -0.00198721 -7.70769e-05 0.00408649 2.35972e-19 0.00408649)
(0.00408649 -0.00198721 -7.70769e-05 0.00408649 1.73138e-19 0.00408649)
(0.00406033 -0.00197382 -7.76704e-05 0.00406033 1.563e-19 0.00406033)
(0.00406033 -0.00197382 -7.76704e-05 0.00406033 1.5771e-19 0.00406033)
(0.00403336 -0.00196004 -7.82491e-05 0.00403336 3.75637e-19 0.00403336)
(0.00403336 -0.00196004 -7.82491e-05 0.00403336 1.44885e-19 0.00403336)
(0.00400559 -0.00194588 -7.88128e-05 0.00400559 3.05535e-19 0.00400559)
(0.00400559 -0.00194588 -7.88128e-05 0.00400559 1.48639e-19 0.00400559)
(0.00397707 -0.00193136 -7.93613e-05 0.00397707 3.00601e-19 0.00397707)
(0.00397707 -0.00193136 -7.93613e-05 0.00397707 1.83378e-19 0.00397707)
(0.00394781 -0.00191649 -7.98946e-05 0.00394781 3.96191e-19 0.00394781)
(0.00394781 -0.00191649 -7.98946e-05 0.00394781 1.91974e-19 0.00394781)
(0.00391785 -0.00190129 -8.04125e-05 0.00391785 3.06514e-19 0.00391785)
(0.00391785 -0.00190129 -8.04125e-05 0.00391785 2.23661e-19 0.00391785)
(0.00388722 -0.00188577 -8.09149e-05 0.00388722 3.05304e-19 0.00388722)
(0.00388722 -0.00188577 -8.09149e-05 0.00388722 3.31148e-19 0.00388722)
(0.00385595 -0.00186994 -8.14015e-05 0.00385595 4.0645e-19 0.00385595)
(0.00385595 -0.00186994 -8.14015e-05 0.00385595 2.46026e-19 0.00385595)
(0.00382405 -0.00185382 -8.18724e-05 0.00382405 4.51989e-19 0.00382405)
(0.00382405 -0.00185382 -8.18724e-05 0.00382405 2.22919e-19 0.00382405)
(0.00379157 -0.00183743 -8.23274e-05 0.00379157 3.9902e-19 0.00379157)
(0.00379157 -0.00183743 -8.23274e-05 0.00379157 3.46835e-19 0.00379157)
(0.00375853 -0.00182078 -8.27664e-05 0.00375853 4.03353e-19 0.00375853)
(0.00375853 -0.00182078 -8.27664e-05 0.00375853 3.87911e-19 0.00375853)
(0.00372496 -0.00180388 -8.31893e-05 0.00372496 4.24714e-19 0.00372496)
(0.00372496 -0.00180388 -8.31893e-05 0.00372496 3.80023e-19 0.00372496)
(0.00369087 -0.00178674 -8.3596e-05 0.00369087 3.72701e-19 0.00369087)
(0.00369087 -0.00178674 -8.3596e-05 0.00369087 5.04587e-19 0.00369087)
(0.00365631 -0.00176939 -8.39864e-05 0.00365631 5.13728e-19 0.00365631)
(0.00365631 -0.00176939 -8.39864e-05 0.00365631 4.93711e-19 0.00365631)
(0.00362129 -0.00175183 -8.43605e-05 0.00362129 2.87168e-19 0.00362129)
(0.00362129 -0.00175183 -8.43605e-05 0.00362129 5.4222e-19 0.00362129)
(0.00358585 -0.00173407 -8.47182e-05 0.00358585 2.20325e-19 0.00358585)
(0.00358585 -0.00173407 -8.47182e-05 0.00358585 5.25413e-19 0.00358585)
(0.00354999 -0.00171613 -8.50594e-05 0.00354999 1.40924e-19 0.00354999)
(0.00354999 -0.00171613 -8.50594e-05 0.00354999 5.36306e-19 0.00354999)
(0.00351376 -0.00169802 -8.53841e-05 0.00351376 9.78994e-20 0.00351376)
(0.00351376 -0.00169802 -8.53841e-05 0.00351376 5.83515e-19 0.00351376)
(0.00347718 -0.00167975 -8.56922e-05 0.00347718 1.6853e-19 0.00347718)
(0.00347718 -0.00167975 -8.56922e-05 0.00347718 6.33083e-19 0.00347718)
(0.00344026 -0.00166134 -8.59837e-05 0.00344026 3.49677e-19 0.00344026)
(0.00344026 -0.00166134 -8.59837e-05 0.00344026 6.71934e-19 0.00344026)
(0.00340303 -0.00164279 -8.62585e-05 0.00340303 2.0865e-19 0.00340303)
(0.00340303 -0.00164279 -8.62585e-05 0.00340303 8.65966e-19 0.00340303)
(0.00336552 -0.00162412 -8.65167e-05 0.00336552 5.08869e-19 0.00336552)
(0.00336552 -0.00162412 -8.65167e-05 0.00336552 9.45536e-19 0.00336552)
(0.00332775 -0.00160535 -8.67582e-05 0.00332775 2.28674e-19 0.00332775)
(0.00332775 -0.00160535 -8.67582e-05 0.00332775 9.49369e-19 0.00332775)
(0.00328973 -0.00158647 -8.6983e-05 0.00328973 2.39479e-19 0.00328973)
(0.00328973 -0.00158647 -8.6983e-05 0.00328973 9.77947e-19 0.00328973)
(0.0032515 -0.0015675 -8.7191e-05 0.0032515 2.95873e-19 0.0032515)
(0.0032515 -0.0015675 -8.7191e-05 0.0032515 9.84471e-19 0.0032515)
(0.00321307 -0.00154846 -8.73824e-05 0.00321307 3.97686e-19 0.00321307)
(0.00321307 -0.00154846 -8.73824e-05 0.00321307 1.20025e-18 0.00321307)
(0.00317447 -0.00152935 -8.7557e-05 0.00317447 4.27326e-19 0.00317447)
(0.00317447 -0.00152935 -8.7557e-05 0.00317447 1.38642e-18 0.00317447)
(0.00313571 -0.00151018 -8.77149e-05 0.00313571 3.34867e-19 0.00313571)
(0.00313571 -0.00151018 -8.77149e-05 0.00313571 1.365e-18 0.00313571)
(0.00309681 -0.00149097 -8.78561e-05 0.00309681 4.62813e-19 0.00309681)
(0.00309681 -0.00149097 -8.78561e-05 0.00309681 1.33783e-18 0.00309681)
(0.0030578 -0.00147171 -8.79806e-05 0.0030578 2.75812e-20 0.0030578)
(0.0030578 -0.00147171 -8.79806e-05 0.0030578 1.40305e-18 0.0030578)
(0.00301869 -0.00145243 -8.80885e-05 0.00301869 1.27126e-19 0.00301869)
(0.00301869 -0.00145243 -8.80885e-05 0.00301869 1.46558e-18 0.00301869)
(0.0029795 -0.00143313 -8.81798e-05 0.0029795 2.73576e-20 0.0029795)
(0.0029795 -0.00143313 -8.81798e-05 0.0029795 1.46632e-18 0.0029795)
(0.00294025 -0.00141382 -8.82546e-05 0.00294025 4.5216e-20 0.00294025)
(0.00294025 -0.00141382 -8.82546e-05 0.00294025 1.58258e-18 0.00294025)
(0.00290096 -0.00139451 -8.83128e-05 0.00290096 3.13153e-19 0.00290096)
(0.00290096 -0.00139451 -8.83128e-05 0.00290096 1.67109e-18 0.00290096)
(0.00286164 -0.00137521 -8.83545e-05 0.00286164 1.91457e-19 0.00286164)
(0.00286164 -0.00137521 -8.83545e-05 0.00286164 1.74949e-18 0.00286164)
(0.00282231 -0.00135592 -8.83797e-05 0.00282231 1.09762e-19 0.00282231)
(0.00282231 -0.00135592 -8.83797e-05 0.00282231 1.8679e-18 0.00282231)
(0.002783 -0.00133665 -8.83887e-05 0.002783 4.59712e-19 0.002783)
(0.002783 -0.00133665 -8.83887e-05 0.002783 1.90179e-18 0.002783)
(0.0027437 -0.00131742 -8.83813e-05 0.0027437 4.2742e-19 0.0027437)
(0.0027437 -0.00131742 -8.83813e-05 0.0027437 2.01582e-18 0.0027437)
(0.00270444 -0.00129822 -8.83576e-05 0.00270444 2.75097e-19 0.00270444)
(0.00270444 -0.00129822 -8.83576e-05 0.00270444 2.3047e-18 0.00270444)
(0.00266524 -0.00127908 -8.83178e-05 0.00266524 4.7952e-19 0.00266524)
(0.00266524 -0.00127908 -8.83178e-05 0.00266524 2.34494e-18 0.00266524)
(0.0026261 -0.00125998 -8.82618e-05 0.0026261 4.37342e-19 0.0026261)
(0.0026261 -0.00125998 -8.82618e-05 0.0026261 2.31767e-18 0.0026261)
(0.00258705 -0.00124094 -8.81899e-05 0.00258705 1.86989e-19 0.00258705)
(0.00258705 -0.00124094 -8.81899e-05 0.00258705 2.59389e-18 0.00258705)
(0.0025481 -0.00122197 -8.8102e-05 0.0025481 3.21024e-19 0.0025481)
(0.0025481 -0.00122197 -8.8102e-05 0.0025481 2.70492e-18 0.0025481)
(0.00250925 -0.00120307 -8.79982e-05 0.00250925 2.04806e-19 0.00250925)
(0.00250925 -0.00120307 -8.79982e-05 0.00250925 2.75952e-18 0.00250925)
(0.00247052 -0.00118425 -8.78787e-05 0.00247052 5.38825e-19 0.00247052)
(0.00247052 -0.00118425 -8.78787e-05 0.00247052 2.75832e-18 0.00247052)
(0.00243193 -0.00116552 -8.77435e-05 0.00243193 8.02994e-19 0.00243193)
(0.00243193 -0.00116552 -8.77435e-05 0.00243193 2.80715e-18 0.00243193)
(0.00239349 -0.00114687 -8.75927e-05 0.00239349 2.2857e-20 0.00239349)
(0.00239349 -0.00114687 -8.75927e-05 0.00239349 3.18925e-18 0.00239349)
(0.00235521 -0.00112833 -8.74264e-05 0.00235521 -2.66664e-19 0.00235521)
(0.00235521 -0.00112833 -8.74264e-05 0.00235521 3.2577e-18 0.00235521)
(0.00231709 -0.00110988 -8.72448e-05 0.00231709 -5.17786e-20 0.00231709)
(0.00231709 -0.00110988 -8.72448e-05 0.00231709 3.19041e-18 0.00231709)
(0.00227915 -0.00109154 -8.70478e-05 0.00227915 -3.9332e-19 0.00227915)
(0.00227915 -0.00109154 -8.70478e-05 0.00227915 3.16637e-18 0.00227915)
(0.00224141 -0.0010733 -8.68357e-05 0.00224141 3.70436e-20 0.00224141)
(0.00224141 -0.0010733 -8.68357e-05 0.00224141 3.24136e-18 0.00224141)
(0.00220386 -0.00105519 -8.66085e-05 0.00220386 1.49644e-20 0.00220386)
(0.00220386 -0.00105519 -8.66085e-05 0.00220386 3.44961e-18 0.00220386)
(0.00216653 -0.00103719 -8.63663e-05 0.00216653 -1.86795e-19 0.00216653)
(0.00216653 -0.00103719 -8.63663e-05 0.00216653 3.52602e-18 0.00216653)
(0.00212941 -0.00101932 -8.61093e-05 0.00212941 2.81447e-20 0.00212941)
(0.00212941 -0.00101932 -8.61093e-05 0.00212941 3.65645e-18 0.00212941)
(0.00209252 -0.00100158 -8.58376e-05 0.00209252 5.21007e-20 0.00209252)
(0.00209252 -0.00100158 -8.58376e-05 0.00209252 3.66826e-18 0.00209252)
(0.00205587 -0.000983963 -8.55512e-05 0.00205587 -8.40795e-20 0.00205587)
(0.00205587 -0.000983963 -8.55512e-05 0.00205587 3.75637e-18 0.00205587)
(0.00201946 -0.000966486 -8.52503e-05 0.00201946 -1.66956e-19 0.00201946)
(0.00201946 -0.000966486 -8.52503e-05 0.00201946 4.05372e-18 0.00201946)
(0.0019833 -0.000949147 -8.4935e-05 0.0019833 -6.91063e-20 0.0019833)
(0.0019833 -0.000949147 -8.4935e-05 0.0019833 4.24596e-18 0.0019833)
(0.0019474 -0.00093195 -8.46055e-05 0.0019474 1.99035e-19 0.0019474)
(0.0019474 -0.00093195 -8.46055e-05 0.0019474 4.14115e-18 0.0019474)
(0.00191177 -0.000914898 -8.42618e-05 0.00191177 -8.76151e-20 0.00191177)
(0.00191177 -0.000914898 -8.42618e-05 0.00191177 4.2035e-18 0.00191177)
(0.00187641 -0.000897994 -8.39041e-05 0.00187641 -2.69393e-19 0.00187641)
(0.00187641 -0.000897994 -8.39041e-05 0.00187641 4.15577e-18 0.00187641)
(0.00184133 -0.000881241 -8.35325e-05 0.00184133 -1.44463e-19 0.00184133)
(0.00184133 -0.000881241 -8.35325e-05 0.00184133 4.59427e-18 0.00184133)
(0.00180653 -0.00086464 -8.31471e-05 0.00180653 -1.49971e-20 0.00180653)
(0.00180653 -0.00086464 -8.31471e-05 0.00180653 4.72322e-18 0.00180653)
(0.00177202 -0.000848196 -8.2748e-05 0.00177202 1.14925e-19 0.00177202)
(0.00177202 -0.000848196 -8.2748e-05 0.00177202 4.52233e-18 0.00177202)
(0.00173781 -0.000831909 -8.23354e-05 0.00173781 2.8774e-20 0.00173781)
(0.00173781 -0.000831909 -8.23354e-05 0.00173781 4.61634e-18 0.00173781)
(0.00170391 -0.000815782 -8.19094e-05 0.00170391 -4.27651e-19 0.00170391)
(0.00170391 -0.000815782 -8.19094e-05 0.00170391 5.16168e-18 0.00170391)
(0.0016703 -0.000799816 -8.14701e-05 0.0016703 6.08144e-19 0.0016703)
(0.0016703 -0.000799816 -8.14701e-05 0.0016703 4.9981e-18 0.0016703)