/*--------------------------------*- C++ -*----------------------------------*\
| =========                 |                                                 |
| \\      /  F ield         | OpenFOAM: The Open Source CFD Toolbox           |
|  \\    /   O peration     | Version:  2012                                  |
|   \\  /    A nd           | Website:  www.openfoam.com                      |
|    \\/     M anipulation  |                                                 |
\*---------------------------------------------------------------------------*/
FoamFile
{
    version     2.0;
    format      ascii;
    class       volVectorField;
    location    "8000";
    object      U;
}
// * * * * * * * * * * * * * * * * * * * * * * * * * * * * * * * * * * * * * //

dimensions      [0 1 -1 0 0 0 0];


internalField   nonuniform List<vector> 
5120
(
(0.00149286 -2.15429e-15 8.28034e-19)
(0.00149286 -2.15146e-20 -2.94604e-19)
(0.0044891 -1.87024e-15 1.77193e-17)
(0.0044891 7.43549e-20 -1.14496e-18)
(0.00750652 -3.96998e-15 2.0944e-17)
(0.00750652 1.29973e-19 -1.16124e-18)
(0.010545 -3.70267e-15 1.87217e-17)
(0.010545 2.09821e-19 -1.17764e-18)
(0.0136045 -3.64631e-15 1.97886e-17)
(0.0136045 2.90141e-19 -1.19414e-18)
(0.0166847 -3.69614e-15 2.07307e-17)
(0.0166847 3.73576e-19 -1.21074e-18)
(0.0197857 -3.7023e-15 2.11682e-17)
(0.0197857 4.59156e-19 -1.22745e-18)
(0.0229071 -3.70209e-15 2.14826e-17)
(0.0229071 5.44479e-19 -1.24424e-18)
(0.0260491 -3.70153e-15 2.18167e-17)
(0.0260491 6.31117e-19 -1.26113e-18)
(0.0292113 -3.70153e-15 2.21667e-17)
(0.0292113 7.10589e-19 -1.27808e-18)
(0.0323936 -3.7017e-15 2.2522e-17)
(0.0323936 8.0209e-19 -1.2951e-18)
(0.0355959 -3.70191e-15 2.28816e-17)
(0.0355959 8.95619e-19 -1.31224e-18)
(0.0388181 -3.70212e-15 2.32458e-17)
(0.0388181 9.74168e-19 -1.32935e-18)
(0.04206 -3.70232e-15 2.36147e-17)
(0.04206 1.05778e-18 -1.34659e-18)
(0.0453214 -3.70249e-15 2.39884e-17)
(0.0453214 1.13594e-18 -1.36399e-18)
(0.0486023 -3.70265e-15 2.4367e-17)
(0.0486023 1.21456e-18 -1.38133e-18)
(0.0519024 -3.70281e-15 2.47508e-17)
(0.0519024 1.30461e-18 -1.39874e-18)
(0.0552215 -3.70296e-15 2.51403e-17)
(0.0552215 1.38943e-18 -1.41625e-18)
(0.0585596 -3.70312e-15 2.55358e-17)
(0.0585596 1.4784e-18 -1.43383e-18)
(0.0619165 -3.70329e-15 2.59368e-17)
(0.0619165 1.57409e-18 -1.45135e-18)
(0.0652919 -3.70346e-15 2.63439e-17)
(0.0652919 1.658e-18 -1.46898e-18)
(0.0686858 -3.70363e-15 2.67569e-17)
(0.0686858 1.75802e-18 -1.48655e-18)
(0.072098 -3.70381e-15 2.71763e-17)
(0.072098 1.86431e-18 -1.50431e-18)
(0.0755282 -3.70398e-15 2.76018e-17)
(0.0755282 1.94141e-18 -1.52223e-18)
(0.0789763 -3.70414e-15 2.8034e-17)
(0.0789763 2.01989e-18 -1.5402e-18)
(0.0824422 -3.7043e-15 2.84722e-17)
(0.0824422 2.10288e-18 -1.55791e-18)
(0.0859257 -3.70445e-15 2.89167e-17)
(0.0859257 2.18781e-18 -1.57561e-18)
(0.0894265 -3.70461e-15 2.93682e-17)
(0.0894265 2.27626e-18 -1.59344e-18)
(0.0929445 -3.70478e-15 2.98267e-17)
(0.0929445 2.3863e-18 -1.61139e-18)
(0.0964795 -3.70494e-15 3.02918e-17)
(0.0964795 2.48315e-18 -1.62962e-18)
(0.100031 -3.7051e-15 3.07638e-17)
(0.100031 2.56378e-18 -1.64767e-18)
(0.1036 -3.70526e-15 3.12429e-17)
(0.1036 2.66961e-18 -1.66564e-18)
(0.107185 -3.70544e-15 3.17292e-17)
(0.107185 2.76137e-18 -1.68327e-18)
(0.110786 -3.70562e-15 3.22234e-17)
(0.110786 2.84282e-18 -1.70086e-18)
(0.114403 -3.70577e-15 3.27241e-17)
(0.114403 2.90743e-18 -1.71859e-18)
(0.118036 -3.70594e-15 3.32324e-17)
(0.118036 2.98799e-18 -1.73628e-18)
(0.121685 -3.70612e-15 3.37485e-17)
(0.121685 3.07807e-18 -1.75388e-18)
(0.125349 -3.70626e-15 3.42724e-17)
(0.125349 3.13353e-18 -1.70915e-18)
(0.129028 -3.70643e-15 3.48036e-17)
(0.129028 3.17003e-18 -7.77698e-19)
(0.132723 -3.70661e-15 3.53429e-17)
(0.132723 3.23427e-18 -2.46606e-20)
(0.136432 -3.70679e-15 3.57537e-17)
(0.136432 3.28204e-18 -2.5708e-20)
(0.140156 -3.70695e-15 3.63341e-17)
(0.140156 3.31902e-18 -2.68636e-20)
(0.143895 -3.7071e-15 3.71427e-17)
(0.143895 3.36852e-18 -2.78982e-20)
(0.147647 -3.70728e-15 3.79648e-17)
(0.147647 3.43873e-18 -2.87048e-20)
(0.151414 -3.70747e-15 3.88004e-17)
(0.151414 3.513e-18 -2.98902e-20)
(0.155194 -3.7076e-15 3.96499e-17)
(0.155194 3.54286e-18 -3.0793e-20)
(0.158988 -3.70778e-15 4.05135e-17)
(0.158988 3.6157e-18 -3.17365e-20)
(0.162795 -3.70804e-15 4.13913e-17)
(0.162795 3.73913e-18 -3.27195e-20)
(0.166616 -3.7083e-15 4.22834e-17)
(0.166616 3.89414e-18 -3.43638e-20)
(0.170449 -3.70857e-15 4.319e-17)
(0.170449 3.98934e-18 -3.65686e-20)
(0.174295 -3.70878e-15 4.41115e-17)
(0.174295 4.08903e-18 -3.77552e-20)
(0.178153 -3.70899e-15 4.50481e-17)
(0.178153 4.25255e-18 -3.84635e-20)
(0.182024 -3.70924e-15 4.59999e-17)
(0.182024 4.32149e-18 -3.98695e-20)
(0.185907 -3.7095e-15 4.69671e-17)
(0.185907 4.42874e-18 -4.11928e-20)
(0.189801 -3.7097e-15 4.79498e-17)
(0.189801 4.44596e-18 -4.30091e-20)
(0.193707 -3.7099e-15 4.89487e-17)
(0.193707 4.46061e-18 -4.45622e-20)
(0.197625 -3.71012e-15 4.99636e-17)
(0.197625 4.62214e-18 -4.63602e-20)
(0.201553 -3.71033e-15 5.09948e-17)
(0.201553 4.63435e-18 -4.92946e-20)
(0.205493 -3.71058e-15 5.20426e-17)
(0.205493 4.67301e-18 -5.19429e-20)
(0.209443 -3.71083e-15 5.31072e-17)
(0.209443 4.8124e-18 -5.26714e-20)
(0.213403 -3.71106e-15 5.41886e-17)
(0.213403 4.8549e-18 -5.34362e-20)
(0.217373 -3.71131e-15 5.52872e-17)
(0.217373 4.86486e-18 -5.63501e-20)
(0.221354 -3.71156e-15 5.64033e-17)
(0.221354 4.98838e-18 -5.94999e-20)
(0.225344 -3.71174e-15 5.75374e-17)
(0.225344 5.14607e-18 -6.14858e-20)
(0.229343 -3.71191e-15 5.86896e-17)
(0.229343 5.14761e-18 -6.27933e-20)
(0.233352 -3.71211e-15 5.98603e-17)
(0.233352 5.15167e-18 -6.40722e-20)
(0.237369 -3.71233e-15 6.10496e-17)
(0.237369 5.21447e-18 -6.50469e-20)
(0.241396 -3.71246e-15 6.22576e-17)
(0.241396 5.27389e-18 -6.65408e-20)
(0.24543 -3.71252e-15 6.34849e-17)
(0.24543 5.31119e-18 -6.85319e-20)
(0.249473 -3.7127e-15 6.47316e-17)
(0.249473 5.31025e-18 -7.122e-20)
(0.253524 -3.7129e-15 6.59979e-17)
(0.253524 5.29913e-18 -7.45515e-20)
(0.257582 -3.71313e-15 6.72842e-17)
(0.257582 5.2916e-18 -7.66052e-20)
(0.261648 -3.71341e-15 6.85904e-17)
(0.261648 5.33227e-18 -7.72626e-20)
(0.265722 -3.71357e-15 6.9917e-17)
(0.265722 5.3225e-18 -7.89938e-20)
(0.269802 -3.71369e-15 7.12642e-17)
(0.269802 5.30283e-18 -8.069e-20)
(0.273888 -3.71387e-15 7.14911e-17)
(0.273888 5.28193e-18 -8.27701e-20)
(0.277981 -3.71402e-15 7.13911e-17)
(0.277981 5.23787e-18 -8.43899e-20)
(0.282081 -3.71412e-15 7.12866e-17)
(0.282081 5.23554e-18 -8.62637e-20)
(0.286186 -3.71415e-15 7.11758e-17)
(0.286186 5.26488e-18 -8.92629e-20)
(0.290296 -3.71419e-15 7.10585e-17)
(0.290296 5.22505e-18 -9.11917e-20)
(0.294413 -3.71433e-15 7.09316e-17)
(0.294413 5.28111e-18 -9.35528e-20)
(0.298534 -3.71452e-15 7.07997e-17)
(0.298534 5.38073e-18 -9.61033e-20)
(0.30266 -3.71464e-15 7.06629e-17)
(0.30266 5.41323e-18 -1.00374e-19)
(0.306791 -3.71468e-15 7.13286e-17)
(0.306791 5.21617e-18 -1.07589e-19)
(0.310925 -3.71491e-15 7.23726e-17)
(0.310925 5.20968e-18 -1.10509e-19)
(0.315064 -3.71541e-15 7.34286e-17)
(0.315064 5.52674e-18 -1.11919e-19)
(0.319207 -3.71592e-15 7.45033e-17)
(0.319207 5.58436e-18 -1.14538e-19)
(0.323353 -3.71629e-15 7.55939e-17)
(0.323353 5.61683e-18 -1.19874e-19)
(0.327503 -3.71664e-15 7.66976e-17)
(0.327503 5.68572e-18 -1.23902e-19)
(0.331655 -3.71687e-15 7.78171e-17)
(0.331655 5.73288e-18 -1.26955e-19)
(0.33581 -3.71702e-15 7.89514e-17)
(0.33581 5.80676e-18 -1.277e-19)
(0.339968 -3.71717e-15 8.01043e-17)
(0.339968 5.87515e-18 -1.30706e-19)
(0.344127 -3.7173e-15 8.12695e-17)
(0.344127 5.82642e-18 -1.38438e-19)
(0.348289 -3.71761e-15 8.24504e-17)
(0.348289 5.76354e-18 -1.42529e-19)
(0.352452 -3.71799e-15 8.36446e-17)
(0.352452 5.89679e-18 -1.44332e-19)
(0.356616 -3.7182e-15 8.48611e-17)
(0.356616 6.05544e-18 -1.46344e-19)
(0.360781 -3.71827e-15 8.60937e-17)
(0.360781 5.91362e-18 -1.48355e-19)
(0.364947 -3.71833e-15 8.734e-17)
(0.364947 5.65876e-18 -1.54628e-19)
(0.369113 -3.71849e-15 8.86002e-17)
(0.369113 5.66424e-18 -1.60395e-19)
(0.37328 -3.71862e-15 8.9882e-17)
(0.37328 5.72972e-18 -1.60383e-19)
(0.377447 -3.71882e-15 9.11754e-17)
(0.377447 5.59062e-18 -1.62752e-19)
(0.381613 -3.71906e-15 9.24895e-17)
(0.381613 5.44232e-18 -1.69103e-19)
(0.385778 -3.71927e-15 9.38197e-17)
(0.385778 5.35268e-18 -1.74293e-19)
(0.389943 -3.71935e-15 9.51674e-17)
(0.389943 5.20668e-18 -1.7455e-19)
(0.394106 -3.71938e-15 9.65357e-17)
(0.394106 5.16301e-18 -1.76116e-19)
(0.398268 -3.71947e-15 9.79136e-17)
(0.398268 5.19158e-18 -1.80705e-19)
(0.402428 -3.7196e-15 9.93161e-17)
(0.402428 5.07923e-18 -1.87002e-19)
(0.406585 -3.71971e-15 1.00732e-16)
(0.406585 4.80217e-18 -1.92162e-19)
(0.410741 -3.71979e-15 1.02171e-16)
(0.410741 4.60175e-18 -1.97235e-19)
(0.414894 -3.71985e-15 1.03628e-16)
(0.414894 4.46941e-18 -1.99955e-19)
(0.419044 -3.71984e-15 1.051e-16)
(0.419044 4.38185e-18 -2.02636e-19)
(0.42319 -3.71991e-15 1.06592e-16)
(0.42319 4.11903e-18 -2.07706e-19)
(0.427334 -3.71998e-15 1.081e-16)
(0.427334 3.84826e-18 -2.12762e-19)
(0.431473 -3.71971e-15 1.09636e-16)
(0.431473 3.67366e-18 -2.1838e-19)
(0.435609 -3.71962e-15 1.11182e-16)
(0.435609 3.50786e-18 -2.24217e-19)
(0.43974 -3.71995e-15 1.12748e-16)
(0.43974 3.79561e-18 -2.30404e-19)
(0.443866 -3.72025e-15 1.14333e-16)
(0.443866 3.85348e-18 -2.33746e-19)
(0.447988 -3.72036e-15 1.15948e-16)
(0.447988 3.68616e-18 -2.40111e-19)
(0.452104 -3.72053e-15 1.1757e-16)
(0.452104 3.65468e-18 -2.4893e-19)
(0.456216 -3.72104e-15 1.19213e-16)
(0.456216 3.56967e-18 -2.53225e-19)
(0.460321 -3.72151e-15 1.20881e-16)
(0.460321 3.96826e-18 -2.5661e-19)
(0.46442 -3.72173e-15 1.22573e-16)
(0.46442 4.05472e-18 -2.65519e-19)
(0.468514 -3.7218e-15 1.24286e-16)
(0.468514 3.75468e-18 -2.73158e-19)
(0.4726 -3.72205e-15 1.26016e-16)
(0.4726 3.7266e-18 -2.76695e-19)
(0.47668 -3.72233e-15 1.27766e-16)
(0.47668 3.58843e-18 -2.81916e-19)
(0.480753 -3.72257e-15 1.29537e-16)
(0.480753 3.68563e-18 -2.84725e-19)
(0.484819 -3.72277e-15 1.31339e-16)
(0.484819 3.19975e-18 -2.92162e-19)
(0.488877 -3.7231e-15 1.3315e-16)
(0.488877 3.05398e-18 -2.98904e-19)
(0.492927 -3.72359e-15 1.34996e-16)
(0.492927 2.92501e-18 -3.04938e-19)
(0.496969 -3.72385e-15 1.36856e-16)
(0.496969 2.72782e-18 -3.07744e-19)
(0.501003 -3.7241e-15 1.38733e-16)
(0.501003 2.66995e-18 -3.13797e-19)
(0.505028 -3.72427e-15 1.40646e-16)
(0.505028 2.55253e-18 -3.21388e-19)
(0.509045 -3.72445e-15 1.42579e-16)
(0.509045 2.25519e-18 -3.29021e-19)
(0.513052 -3.72458e-15 1.4453e-16)
(0.513052 1.83763e-18 -3.33346e-19)
(0.51705 -3.72457e-15 1.46507e-16)
(0.51705 1.69388e-18 -3.36885e-19)
(0.521038 -3.72493e-15 1.48508e-16)
(0.521038 1.60346e-18 -3.24339e-19)
(0.525017 -3.72535e-15 1.50528e-16)
(0.525017 1.40586e-18 -2.17873e-19)
(0.528985 -3.72553e-15 1.52585e-16)
(0.528985 1.12876e-18 -1.13449e-19)
(0.532943 -3.72589e-15 1.54658e-16)
(0.532943 6.03585e-19 8.05416e-22)
(0.53689 -3.72625e-15 1.56751e-16)
(0.53689 1.35743e-19 1.17007e-19)
(0.540827 -3.72626e-15 1.58876e-16)
(0.540827 -2.46857e-19 2.40005e-19)
(0.544753 -3.72606e-15 1.61037e-16)
(0.544753 -9.80233e-19 3.69349e-19)
(0.548667 -3.72585e-15 1.63214e-16)
(0.548667 -1.29312e-18 4.92074e-19)
(0.55257 -3.72552e-15 1.65416e-16)
(0.55257 -1.64032e-18 6.17773e-19)
(0.556461 -3.72522e-15 1.67645e-16)
(0.556461 -2.3573e-18 7.57697e-19)
(0.560341 -3.72514e-15 1.699e-16)
(0.560341 -2.96897e-18 8.96134e-19)
(0.564208 -3.72484e-15 1.72185e-16)
(0.564208 -3.554e-18 1.03155e-18)
(0.568063 -3.72436e-15 1.74502e-16)
(0.568063 -4.18016e-18 1.1726e-18)
(0.571905 -3.72418e-15 1.76824e-16)
(0.571905 -4.88808e-18 1.3242e-18)
(0.575734 -3.72421e-15 1.7919e-16)
(0.575734 -5.00961e-18 1.48869e-18)
(0.579551 -3.72413e-15 1.81579e-16)
(0.579551 -5.37157e-18 1.64332e-18)
(0.583354 -3.72423e-15 1.83991e-16)
(0.583354 -5.9686e-18 1.80519e-18)
(0.587144 -3.72455e-15 1.86437e-16)
(0.587144 -5.79549e-18 1.97865e-18)
(0.59092 -3.72433e-15 1.88909e-16)
(0.59092 -5.94145e-18 2.15276e-18)
(0.594682 -3.72416e-15 1.91406e-16)
(0.594682 -6.52165e-18 2.34567e-18)
(0.598431 -3.72424e-15 1.93945e-16)
(0.598431 -6.87047e-18 2.55352e-18)
(0.602165 -3.72425e-15 1.96504e-16)
(0.602165 -7.10013e-18 2.75287e-18)
(0.605885 -3.72412e-15 1.99093e-16)
(0.605885 -7.08258e-18 2.95202e-18)
(0.60959 -3.72395e-15 2.01711e-16)
(0.60959 -7.22292e-18 3.1542e-18)
(0.613281 -3.72387e-15 2.04367e-16)
(0.613281 -7.51475e-18 3.37504e-18)
(0.616957 -3.7237e-15 2.07056e-16)
(0.616957 -7.53484e-18 3.60843e-18)
(0.620618 -3.72359e-15 2.09767e-16)
(0.620618 -7.51854e-18 3.83648e-18)
(0.624263 -3.7234e-15 2.12522e-16)
(0.624263 -7.92863e-18 4.07176e-18)
(0.627893 -3.72311e-15 2.15311e-16)
(0.627893 -8.31054e-18 4.31642e-18)
(0.631508 -3.72285e-15 2.1813e-16)
(0.631508 -8.19147e-18 4.56297e-18)
(0.635107 -3.7224e-15 2.20968e-16)
(0.635107 -8.14289e-18 4.82216e-18)
(0.63869 -3.7221e-15 2.2385e-16)
(0.63869 -8.40468e-18 5.0873e-18)
(0.642257 -3.72224e-15 2.26755e-16)
(0.642257 -9.20165e-18 5.36696e-18)
(0.645808 -3.72199e-15 2.29717e-16)
(0.645808 -9.53173e-18 5.65337e-18)
(0.649343 -3.72159e-15 2.32697e-16)
(0.649343 -9.61709e-18 5.9309e-18)
(0.652861 -3.72121e-15 2.35719e-16)
(0.652861 -1.00713e-17 6.22605e-18)
(0.656362 -3.72069e-15 2.38773e-16)
(0.656362 -1.06132e-17 6.53941e-18)
(0.659847 -3.72047e-15 2.41865e-16)
(0.659847 -1.17614e-17 6.85831e-18)
(0.663316 -3.71998e-15 2.45001e-16)
(0.663316 -1.29858e-17 7.18413e-18)
(0.666767 -3.71933e-15 2.48162e-16)
(0.666767 -1.39453e-17 7.51684e-18)
(0.670201 -3.71885e-15 2.51384e-16)
(0.670201 -1.52987e-17 7.85296e-18)
(0.673618 -3.7182e-15 2.54623e-16)
(0.673618 -1.60906e-17 8.19097e-18)
(0.677017 -3.71726e-15 2.57917e-16)
(0.677017 -1.7427e-17 8.54416e-18)
(0.6804 -3.71593e-15 2.61252e-16)
(0.6804 -1.90132e-17 8.91945e-18)
(0.683764 -3.7149e-15 2.64627e-16)
(0.683764 -2.0017e-17 9.29854e-18)
(0.687111 -3.71453e-15 2.68022e-16)
(0.687111 -2.16306e-17 9.69361e-18)
(0.690441 -3.71392e-15 2.71469e-16)
(0.690441 -2.21142e-17 1.00838e-17)
(0.693752 -3.71251e-15 2.74965e-16)
(0.693752 -2.42739e-17 1.04859e-17)
(0.697046 -3.71113e-15 2.78503e-16)
(0.697046 -2.68491e-17 1.09197e-17)
(0.700321 -3.71007e-15 2.82059e-16)
(0.700321 -2.73506e-17 1.13503e-17)
(0.703579 -3.7087e-15 2.85695e-16)
(0.703579 -2.9182e-17 1.17883e-17)
(0.706818 -3.70706e-15 2.89379e-16)
(0.706818 -3.13288e-17 1.22313e-17)
(0.710039 -3.70653e-15 2.93069e-16)
(0.710039 -3.25033e-17 1.26904e-17)
(0.713242 -3.70637e-15 2.96792e-16)
(0.713242 -3.3177e-17 1.31728e-17)
(0.716426 -3.70603e-15 3.00597e-16)
(0.716426 -3.36845e-17 1.36609e-17)
(0.719592 -3.70611e-15 3.04426e-16)
(0.719592 -3.44052e-17 1.41637e-17)
(0.722739 -3.70596e-15 3.08324e-16)
(0.722739 -3.48904e-17 1.4674e-17)
(0.725868 -3.70583e-15 3.12244e-16)
(0.725868 -3.56521e-17 1.51822e-17)
(0.728978 -3.70572e-15 3.16235e-16)
(0.728978 -3.66213e-17 1.57345e-17)
(0.73207 -3.70538e-15 3.20288e-16)
(0.73207 -3.7438e-17 1.62979e-17)
(0.735142 -3.70483e-15 3.24357e-16)
(0.735142 -3.77648e-17 1.68501e-17)
(0.738196 -3.70426e-15 3.28488e-16)
(0.738196 -3.80048e-17 1.74285e-17)
(0.741231 -3.70347e-15 3.32708e-16)
(0.741231 -3.8081e-17 1.80297e-17)
(0.744247 -3.70224e-15 3.3696e-16)
(0.744247 -3.88931e-17 1.86188e-17)
(0.747244 -3.70103e-15 3.41231e-16)
(0.747244 -3.95815e-17 1.92579e-17)
(0.750222 -3.69988e-15 3.45592e-16)
(0.750222 -4.01382e-17 1.99088e-17)
(0.753182 -3.699e-15 3.49983e-16)
(0.753182 -4.09457e-17 2.05593e-17)
(0.756122 -3.69817e-15 3.54438e-16)
(0.756122 -4.09188e-17 2.12112e-17)
(0.759043 -3.69669e-15 3.58955e-16)
(0.759043 -4.1924e-17 2.18718e-17)
(0.761945 -3.69492e-15 3.63528e-16)
(0.761945 -4.33774e-17 2.25655e-17)
(0.764827 -3.69339e-15 3.68148e-16)
(0.764827 -4.45999e-17 2.32783e-17)
(0.767691 -3.69237e-15 3.72806e-16)
(0.767691 -4.5244e-17 2.40027e-17)
(0.770535 -3.6907e-15 3.77551e-16)
(0.770535 -4.59729e-17 2.47528e-17)
(0.773361 -3.68893e-15 3.82368e-16)
(0.773361 -4.74595e-17 2.5514e-17)
(0.776167 -3.68717e-15 3.87227e-16)
(0.776167 -4.88941e-17 2.62906e-17)
(0.778954 -3.68483e-15 3.92158e-16)
(0.778954 -5.03085e-17 2.70825e-17)
(0.781722 -3.68287e-15 3.97114e-16)
(0.781722 -5.23765e-17 2.78834e-17)
(0.78447 -3.68112e-15 4.02162e-16)
(0.78447 -5.36445e-17 2.86886e-17)
(0.7872 -3.67949e-15 4.07263e-16)
(0.7872 -5.5596e-17 2.95279e-17)
(0.78991 -3.67771e-15 4.12446e-16)
(0.78991 -5.8123e-17 3.0433e-17)
(0.792601 -3.6764e-15 4.17659e-16)
(0.792601 -5.86838e-17 3.13108e-17)
(0.795273 -3.6756e-15 4.2294e-16)
(0.795273 -5.98291e-17 3.21841e-17)
(0.797925 -3.67444e-15 4.283e-16)
(0.797925 -6.10389e-17 3.30854e-17)
(0.800559 -3.67354e-15 4.33738e-16)
(0.800559 -6.14615e-17 3.40152e-17)
(0.803173 -3.67254e-15 4.39227e-16)
(0.803173 -6.30637e-17 3.49719e-17)
(0.805768 -3.6711e-15 4.44813e-16)
(0.805768 -6.43567e-17 3.59936e-17)
(0.808345 -3.66966e-15 4.5047e-16)
(0.808345 -6.50726e-17 3.70315e-17)
(0.810902 -3.6681e-15 4.56189e-16)
(0.810902 -6.66688e-17 3.80599e-17)
(0.81344 -3.66688e-15 4.61972e-16)
(0.81344 -6.81459e-17 3.91225e-17)
(0.815958 -3.66552e-15 4.67861e-16)
(0.815958 -6.91602e-17 4.02097e-17)
(0.818458 -3.66371e-15 4.73814e-16)
(0.818458 -7.06413e-17 4.12974e-17)
(0.820939 -3.66159e-15 4.79879e-16)
(0.820939 -7.20819e-17 4.24168e-17)
(0.823401 -3.65986e-15 4.85984e-16)
(0.823401 -7.3678e-17 4.35443e-17)
(0.825844 -3.65874e-15 4.92169e-16)
(0.825844 -7.52188e-17 4.47513e-17)
(0.828268 -3.65773e-15 4.98419e-16)
(0.828268 -7.67207e-17 4.59692e-17)
(0.830674 -3.65653e-15 5.04787e-16)
(0.830674 -7.8777e-17 4.71823e-17)
(0.83306 -3.65513e-15 5.11242e-16)
(0.83306 -7.98822e-17 4.83793e-17)
(0.835428 -3.654e-15 5.17787e-16)
(0.835428 -8.09642e-17 4.95749e-17)
(0.837777 -3.65348e-15 5.24382e-16)
(0.837777 -8.29269e-17 5.08434e-17)
(0.840107 -3.6525e-15 5.31081e-16)
(0.840107 -8.56948e-17 5.21454e-17)
(0.842419 -3.65056e-15 5.37893e-16)
(0.842419 -8.79165e-17 5.35066e-17)
(0.844712 -3.64797e-15 5.44755e-16)
(0.844712 -8.98903e-17 5.4837e-17)
(0.846986 -3.6451e-15 5.51768e-16)
(0.846986 -9.20232e-17 5.61441e-17)
(0.849242 -3.64333e-15 5.5885e-16)
(0.849242 -9.32335e-17 5.75348e-17)
(0.85148 -3.64086e-15 5.66002e-16)
(0.85148 -9.49145e-17 5.89498e-17)
(0.853699 -3.63759e-15 5.73272e-16)
(0.853699 -9.66136e-17 6.03665e-17)
(0.855899 -3.63448e-15 5.80674e-16)
(0.855899 -9.78574e-17 6.18369e-17)
(0.858082 -3.63208e-15 5.88062e-16)
(0.858082 -9.87032e-17 6.3358e-17)
(0.860246 -3.62953e-15 5.95674e-16)
(0.860246 -1.00712e-16 6.49189e-17)
(0.862392 -3.62564e-15 6.0336e-16)
(0.862392 -1.03324e-16 6.64808e-17)
(0.86452 -3.62173e-15 6.11106e-16)
(0.86452 -1.05018e-16 6.80809e-17)
(0.86663 -3.61814e-15 6.18989e-16)
(0.86663 -1.07065e-16 6.97424e-17)
(0.868722 -3.61391e-15 6.26957e-16)
(0.868722 -1.09829e-16 7.14379e-17)
(0.870796 -3.60895e-15 6.35073e-16)
(0.870796 -1.11218e-16 7.31447e-17)
(0.872852 -3.60461e-15 6.43279e-16)
(0.872852 -1.13525e-16 7.48967e-17)
(0.87489 -3.60094e-15 6.51573e-16)
(0.87489 -1.17802e-16 7.67287e-17)
(0.87691 -3.5969e-15 6.59994e-16)
(0.87691 -1.20702e-16 7.85658e-17)
(0.878913 -3.59267e-15 6.68503e-16)
(0.878913 -1.23675e-16 8.0378e-17)
(0.880898 -3.58834e-15 6.77179e-16)
(0.880898 -1.27702e-16 8.2187e-17)
(0.882866 -3.58439e-15 6.85941e-16)
(0.882866 -1.32813e-16 8.40911e-17)
(0.884816 -3.58173e-15 6.9477e-16)
(0.884816 -1.35808e-16 8.6074e-17)
(0.886749 -3.5791e-15 7.03748e-16)
(0.886749 -1.36898e-16 8.80903e-17)
(0.888664 -3.57684e-15 7.12832e-16)
(0.888664 -1.38679e-16 9.01624e-17)
(0.890562 -3.57556e-15 7.22052e-16)
(0.890562 -1.40252e-16 9.22487e-17)
(0.892443 -3.57529e-15 7.31395e-16)
(0.892443 -1.41309e-16 9.44274e-17)
(0.894307 -3.57198e-15 7.40946e-16)
(0.894307 -1.43023e-16 9.66018e-17)
(0.896154 -3.57022e-15 7.50676e-16)
(0.896154 -1.45261e-16 9.88496e-17)
(0.897983 -3.56659e-15 7.60447e-16)
(0.897983 -1.47016e-16 1.01167e-16)
(0.899796 -3.56341e-15 7.70399e-16)
(0.899796 -1.49253e-16 1.03511e-16)
(0.901592 -3.56069e-15 7.8057e-16)
(0.901592 -1.52589e-16 1.05878e-16)
(0.903371 -3.55775e-15 7.90761e-16)
(0.903371 -1.55612e-16 1.08337e-16)
(0.905133 -3.5534e-15 8.01137e-16)
(0.905133 -1.57943e-16 1.10815e-16)
(0.906879 -3.5488e-15 8.11677e-16)
(0.906879 -1.60228e-16 1.13324e-16)
(0.908608 -3.54422e-15 8.22302e-16)
(0.908608 -1.64244e-16 1.15926e-16)
(0.910321 -3.53953e-15 8.33083e-16)
(0.910321 -1.68215e-16 1.18617e-16)
(0.912017 -3.53535e-15 8.44069e-16)
(0.912017 -1.72213e-16 1.21272e-16)
(0.913697 -3.52962e-15 8.55102e-16)
(0.913697 -1.77229e-16 1.23948e-16)
(0.915361 -3.52358e-15 8.66375e-16)
(0.915361 -1.82831e-16 1.26764e-16)
(0.917008 -3.51817e-15 8.77686e-16)
(0.917008 -1.87823e-16 1.29622e-16)
(0.91864 -3.51136e-15 8.89173e-16)
(0.91864 -1.9223e-16 1.3248e-16)
(0.920255 -3.5051e-15 9.00806e-16)
(0.920255 -1.97617e-16 1.35369e-16)
(0.921855 -3.50083e-15 9.09037e-16)
(0.921855 -2.0256e-16 1.38419e-16)
(0.923438 -3.49635e-15 9.17157e-16)
(0.923438 -2.04006e-16 1.41447e-16)
(0.925006 -3.49251e-15 9.25359e-16)
(0.925006 -2.06678e-16 1.44526e-16)
(0.926558 -3.48833e-15 9.33453e-16)
(0.926558 -2.1172e-16 1.47824e-16)
(0.928094 -3.48306e-15 9.41549e-16)
(0.928094 -2.1446e-16 1.51071e-16)
(0.929615 -3.4784e-15 9.49883e-16)
(0.929615 -2.18169e-16 1.54213e-16)
(0.93112 -3.47266e-15 9.58149e-16)
(0.93112 -2.23808e-16 1.57533e-16)
(0.93261 -3.46719e-15 9.66277e-16)
(0.93261 -2.27431e-16 1.60998e-16)
(0.934084 -3.46159e-15 9.74565e-16)
(0.934084 -2.30947e-16 1.64449e-16)
(0.935543 -3.45571e-15 9.82898e-16)
(0.935543 -2.36076e-16 1.6794e-16)
(0.936987 -3.44947e-15 9.91163e-16)
(0.936987 -2.41902e-16 1.71536e-16)
(0.938416 -3.44254e-15 9.99312e-16)
(0.938416 -2.49332e-16 1.75282e-16)
(0.939829 -3.43545e-15 1.00761e-15)
(0.939829 -2.53496e-16 1.79011e-16)
(0.941228 -3.42726e-15 1.01586e-15)
(0.941228 -2.59731e-16 1.82693e-16)
(0.942611 -3.42061e-15 1.02424e-15)
(0.942611 -2.67101e-16 1.86531e-16)
(0.94398 -3.41441e-15 1.03264e-15)
(0.94398 -2.73359e-16 1.90471e-16)
(0.945334 -3.40739e-15 1.04083e-15)
(0.945334 -2.78505e-16 1.94438e-16)
(0.946674 -3.40078e-15 1.04911e-15)
(0.946674 -2.82577e-16 1.98485e-16)
(0.947998 -3.39446e-15 1.0574e-15)
(0.947998 -2.88688e-16 2.02682e-16)
(0.949308 -3.38682e-15 1.06572e-15)
(0.949308 -2.92949e-16 2.06881e-16)
(0.950604 -3.37924e-15 1.074e-15)
(0.950604 -2.97601e-16 2.11052e-16)
(0.951885 -3.37197e-15 1.08227e-15)
(0.951885 -3.04703e-16 2.15393e-16)
(0.953152 -3.36414e-15 1.09053e-15)
(0.953152 -3.10358e-16 2.19844e-16)
(0.954404 -3.35742e-15 1.09891e-15)
(0.954404 -3.15228e-16 2.2429e-16)
(0.955642 -3.3513e-15 1.10726e-15)
(0.955642 -3.22275e-16 2.28783e-16)
(0.956866 -3.344e-15 1.11562e-15)
(0.956866 -3.30237e-16 2.33478e-16)
(0.958076 -3.33756e-15 1.12381e-15)
(0.958076 -3.35098e-16 2.38204e-16)
(0.959272 -3.33187e-15 1.13211e-15)
(0.959272 -3.36536e-16 2.42925e-16)
(0.960454 -3.3266e-15 1.14026e-15)
(0.960454 -3.40692e-16 2.47871e-16)
(0.961622 -3.32047e-15 1.14821e-15)
(0.961622 -3.45555e-16 2.52964e-16)
(0.962776 -3.31067e-15 1.15605e-15)
(0.962776 -3.48029e-16 2.58102e-16)
(0.963916 -3.30069e-15 1.16378e-15)
(0.963916 -3.51102e-16 2.63246e-16)
(0.965043 -3.29275e-15 1.17141e-15)
(0.965043 -3.56006e-16 2.68532e-16)
(0.966155 -3.28479e-15 1.179e-15)
(0.966155 -3.59371e-16 2.73995e-16)
(0.967255 -3.2754e-15 1.18636e-15)
(0.967255 -3.6422e-16 2.79478e-16)
(0.96834 -3.26637e-15 1.19369e-15)
(0.96834 -3.71672e-16 2.85118e-16)
(0.969412 -3.25716e-15 1.20091e-15)
(0.969412 -3.76972e-16 2.90722e-16)
(0.970471 -3.24548e-15 1.20823e-15)
(0.970471 -3.82247e-16 2.96353e-16)
(0.971516 -3.23318e-15 1.2153e-15)
(0.971516 -3.90122e-16 3.02188e-16)
(0.972548 -3.22346e-15 1.2224e-15)
(0.972548 -3.96972e-16 3.08084e-16)
(0.973567 -3.21258e-15 1.22953e-15)
(0.973567 -4.02813e-16 3.13819e-16)
(0.974572 -3.20007e-15 1.23664e-15)
(0.974572 -4.1029e-16 3.19919e-16)
(0.975565 -3.19006e-15 1.24343e-15)
(0.975565 -4.1868e-16 3.26338e-16)
(0.976544 -3.18035e-15 1.25044e-15)
(0.976544 -4.25691e-16 3.32571e-16)
(0.97751 -3.16963e-15 1.25737e-15)
(0.97751 -4.33796e-16 3.38607e-16)
(0.978463 -3.15917e-15 1.26418e-15)
(0.978463 -4.43949e-16 3.44926e-16)
(0.979403 -3.14901e-15 1.27093e-15)
(0.979403 -4.52148e-16 3.51458e-16)
(0.980329 -3.13627e-15 1.27751e-15)
(0.980329 -4.60644e-16 3.57971e-16)
(0.981244 -3.12706e-15 1.28376e-15)
(0.981244 -4.67522e-16 3.64575e-16)
(0.982145 -3.12157e-15 1.28992e-15)
(0.982145 -4.73224e-16 3.71249e-16)
(0.983033 -3.112e-15 1.29576e-15)
(0.983033 -4.77716e-16 3.78111e-16)
(0.983909 -3.10363e-15 1.30124e-15)
(0.983909 -4.82221e-16 3.8508e-16)
(0.984771 -3.09583e-15 1.30653e-15)
(0.984771 -4.87578e-16 3.92036e-16)
(0.985621 -3.08627e-15 1.31156e-15)
(0.985621 -4.93972e-16 3.99049e-16)
(0.986459 -3.0772e-15 1.31656e-15)
(0.986459 -5.03261e-16 4.06078e-16)
(0.987284 -3.06897e-15 1.32125e-15)
(0.987284 -5.12344e-16 4.13192e-16)
(0.988096 -3.05986e-15 1.32575e-15)
(0.988096 -5.20671e-16 4.2029e-16)
(0.988895 -3.0488e-15 1.33002e-15)
(0.988895 -5.31533e-16 4.2765e-16)
(0.989682 -3.03732e-15 1.33405e-15)
(0.989682 -5.40917e-16 4.35028e-16)
(0.990457 -3.0255e-15 1.33777e-15)
(0.990457 -5.50113e-16 4.42396e-16)
(0.991219 -3.01352e-15 1.34146e-15)
(0.991219 -5.61648e-16 4.49769e-16)
(0.991968 -3.00161e-15 1.3449e-15)
(0.991968 -5.70406e-16 4.57282e-16)
(0.992705 -2.98978e-15 1.3482e-15)
(0.992705 -5.80684e-16 4.64699e-16)
(0.99343 -2.9773e-15 1.3512e-15)
(0.99343 -5.94446e-16 4.72272e-16)
(0.994142 -2.96136e-15 1.3537e-15)
(0.994142 -6.05977e-16 4.80108e-16)
(0.994842 -2.9457e-15 1.35633e-15)
(0.994842 -6.14184e-16 4.87436e-16)
(0.99553 -2.93146e-15 1.35907e-15)
(0.99553 -6.25446e-16 4.94806e-16)
(0.996205 -2.91772e-15 1.36153e-15)
(0.996205 -6.38179e-16 5.02435e-16)
(0.996868 -2.90367e-15 1.3639e-15)
(0.996868 -6.49018e-16 5.09921e-16)
(0.997519 -2.88899e-15 1.36632e-15)
(0.997519 -6.61493e-16 5.17157e-16)
(0.998158 -2.87381e-15 1.36858e-15)
(0.998158 -6.73885e-16 5.24642e-16)
(0.998784 -2.85813e-15 1.37008e-15)
(0.998784 -6.87031e-16 5.322e-16)
(0.999398 -2.84375e-15 1.37159e-15)
(0.999398 -6.99158e-16 5.39389e-16)
(1 -2.83248e-15 1.37269e-15)
(1 -7.0994e-16 5.46695e-16)
(1.00059 -2.82261e-15 1.37301e-15)
(1.00059 -7.18168e-16 5.54464e-16)
(1.00117 -2.80929e-15 1.37302e-15)
(1.00117 -7.26054e-16 5.61927e-16)
(1.00173 -2.79717e-15 1.37277e-15)
(1.00173 -7.34499e-16 5.6925e-16)
(1.00229 -2.78936e-15 1.37222e-15)
(1.00229 -7.40169e-16 5.76445e-16)
(1.00283 -2.77998e-15 1.37142e-15)
(1.00283 -7.47262e-16 5.83836e-16)
(1.00336 -2.76973e-15 1.36986e-15)
(1.00336 -7.52909e-16 5.9112e-16)
(1.00387 -2.75983e-15 1.36835e-15)
(1.00387 -7.58688e-16 5.9829e-16)
(1.00438 -2.74744e-15 1.36607e-15)
(1.00438 -7.66672e-16 6.05403e-16)
(1.00487 -2.73385e-15 1.3634e-15)
(1.00487 -7.75509e-16 6.1225e-16)
(1.00535 -2.71943e-15 1.36011e-15)
(1.00535 -7.85827e-16 6.23204e-16)
(1.00582 -2.70483e-15 1.35631e-15)
(1.00582 -7.93679e-16 6.37692e-16)
(1.00628 -2.69255e-15 1.35242e-15)
(1.00628 -8.01938e-16 6.51835e-16)
(1.00672 -2.67988e-15 1.34751e-15)
(1.00672 -8.12813e-16 6.66057e-16)
(1.00716 -2.66459e-15 1.34194e-15)
(1.00716 -8.20585e-16 6.80523e-16)
(1.00758 -2.64879e-15 1.33599e-15)
(1.00758 -8.29779e-16 6.94569e-16)
(1.00799 -2.63294e-15 1.3292e-15)
(1.00799 -8.40091e-16 7.08854e-16)
(1.00839 -2.61624e-15 1.32165e-15)
(1.00839 -8.49164e-16 7.22656e-16)
(1.00877 -2.59946e-15 1.31368e-15)
(1.00877 -8.60098e-16 7.36239e-16)
(1.00915 -2.58342e-15 1.30475e-15)
(1.00915 -8.71659e-16 7.50109e-16)
(1.00951 -2.5678e-15 1.29557e-15)
(1.00951 -8.79522e-16 7.63117e-16)
(1.00987 -2.55246e-15 1.28662e-15)
(1.00987 -8.87633e-16 7.75631e-16)
(1.01021 -2.53765e-15 1.27678e-15)
(1.01021 -8.97509e-16 7.87654e-16)
(1.01054 -2.5242e-15 1.26623e-15)
(1.01054 -9.06448e-16 7.99705e-16)
(1.01085 -2.50733e-15 1.25509e-15)
(1.01085 -9.17488e-16 8.11333e-16)
(1.01116 -2.491e-15 1.2432e-15)
(1.01116 -9.30323e-16 8.2265e-16)
(1.01146 -2.47824e-15 1.23104e-15)
(1.01146 -9.39098e-16 8.33346e-16)
(1.01174 -2.4659e-15 1.21827e-15)
(1.01174 -9.47538e-16 8.43197e-16)
(1.01201 -2.45605e-15 1.20493e-15)
(1.01201 -9.60595e-16 8.52803e-16)
(1.01228 -2.4442e-15 1.19077e-15)
(1.01228 -9.69947e-16 8.62158e-16)
(1.01253 -2.43008e-15 1.17589e-15)
(1.01253 -9.79655e-16 8.70877e-16)
(1.01277 -2.41756e-15 1.16052e-15)
(1.01277 -9.89943e-16 8.78519e-16)
(1.01301 -2.405e-15 1.14481e-15)
(1.01301 -9.96476e-16 8.85412e-16)
(1.01323 -2.39233e-15 1.12849e-15)
(1.01323 -1.00345e-15 8.92041e-16)
(1.01344 -2.38208e-15 1.11157e-15)
(1.01344 -1.01232e-15 8.97728e-16)
(1.01364 -2.37221e-15 1.09814e-15)
(1.01364 -1.02169e-15 9.0226e-16)
(1.01384 -2.36327e-15 1.08738e-15)
(1.01384 -1.0268e-15 9.06107e-16)
(1.01402 -2.35533e-15 1.07621e-15)
(1.01402 -1.03331e-15 9.09711e-16)
(1.0142 -2.3455e-15 1.0645e-15)
(1.0142 -1.04114e-15 9.12249e-16)
(1.01436 -2.33361e-15 1.05227e-15)
(1.01436 -1.05336e-15 9.14272e-16)
(1.01452 -2.32073e-15 1.03922e-15)
(1.01452 -1.06343e-15 9.15973e-16)
(1.01467 -2.30494e-15 1.02618e-15)
(1.01467 -1.06588e-15 9.16068e-16)
(1.01481 -2.28574e-15 1.013e-15)
(1.01481 -1.07433e-15 9.15773e-16)
(1.01495 -2.26894e-15 9.98904e-16)
(1.01495 -1.08461e-15 9.15177e-16)
(1.01507 -2.25441e-15 9.84861e-16)
(1.01507 -1.09407e-15 9.13607e-16)
(1.01519 -2.24195e-15 9.70545e-16)
(1.01519 -1.10549e-15 9.11356e-16)
(1.0153 -2.22818e-15 9.56476e-16)
(1.0153 -1.11985e-15 9.08257e-16)
(1.01541 -2.21223e-15 9.41173e-16)
(1.01541 -1.13172e-15 9.04398e-16)
(1.01551 -2.19608e-15 9.26151e-16)
(1.01551 -1.14207e-15 9.00141e-16)
(1.0156 -2.18091e-15 9.09989e-16)
(1.0156 -1.15397e-15 8.94501e-16)
(1.01569 -2.16748e-15 8.94283e-16)
(1.01569 -1.15673e-15 8.88937e-16)
(1.01577 -2.15794e-15 8.78907e-16)
(1.01577 -1.15993e-15 8.83035e-16)
(1.01585 -2.14947e-15 8.63362e-16)
(1.01585 -1.16551e-15 8.77495e-16)
(1.01592 -2.14066e-15 8.47259e-16)
(1.01592 -1.17224e-15 8.70798e-16)
(1.01599 -2.13353e-15 8.31651e-16)
(1.01599 -1.17878e-15 8.64537e-16)
(1.01605 -2.12232e-15 8.15816e-16)
(1.01605 -1.18267e-15 8.57129e-16)
(1.01611 -2.11219e-15 7.99027e-16)
(1.01611 -1.19031e-15 8.48376e-16)
(1.01616 -2.10571e-15 7.83484e-16)
(1.01616 -1.19065e-15 8.40614e-16)
(1.01621 -2.10011e-15 7.67764e-16)
(1.01621 -1.19592e-15 8.33066e-16)
(1.01626 -2.10166e-15 7.52317e-16)
(1.01626 -1.19856e-15 8.24598e-16)
(1.0163 -2.10303e-15 7.37309e-16)