/*--------------------------------*- C++ -*----------------------------------*\
| =========                 |                                                 |
| \\      /  F ield         | OpenFOAM: The Open Source CFD Toolbox           |
|  \\    /   O peration     | Version:  2106                                  |
|   \\  /    A nd           | Website:  www.openfoam.com                      |
|    \\/     M anipulation  |                                                 |
\*---------------------------------------------------------------------------*/
FoamFile
{
    version     2.0;
    format      ascii;
    arch        "LSB;label=32;scalar=64";
    class       volScalarField;
    location    "2000";
    object      omega;
}
// * * * * * * * * * * * * * * * * * * * * * * * * * * * * * * * * * * * * * //

dimensions      [0 0 -1 0 0 0 0];

internalField   nonuniform List<scalar> 
2560
(
5.34523e+06
5.34523e+06
929951
929951
315228
315228
148644
148644
84247.1
84247.1
53502.4
53502.4
36668.9
36668.9
26532.6
26532.6
19990
19990
15538
15538
12380.4
12380.4
10065.1
10065.1
8320.36
8320.36
6975.17
6975.17
5917.8
5917.8
5072.77
5072.77
4387.66
4387.66
3825.18
3825.18
3358.22
3358.22
2966.73
2966.73
2635.61
2635.61
2353.32
2353.32
2110.93
2110.93
1901.45
1901.45
1719.32
1719.32
1560.13
1560.13
1420.29
1420.29
1296.87
1296.87
1187.49
1187.49
1090.17
1090.17
1003.26
1003.26
925.39
925.39
855.388
855.388
792.275
792.275
735.214
735.214
683.49
683.49
636.487
636.487
593.674
593.674
554.593
554.593
518.844
518.844
486.078
486.078
455.99
455.99
428.312
428.312
402.807
402.807
379.267
379.267
357.507
357.507
337.362
337.362
318.686
318.686
301.349
301.349
285.233
285.233
270.233
270.233
256.255
256.255
243.214
243.214
231.034
231.034
219.645
219.645
208.985
208.985
198.995
198.995
189.626
189.626
180.829
180.829
172.562
172.562
164.786
164.786
157.464
157.464
150.564
150.564
144.056
144.056
137.913
137.913
132.109
132.109
126.621
126.621
121.427
121.427
116.508
116.508
111.845
111.845
107.422
107.422
103.223
103.223
99.2341
99.2341
95.4416
95.4416
91.8333
91.8333
88.3977
88.3977
85.1243
85.1243
82.0033
82.0033
79.0255
79.0255
76.1824
76.1824
73.4661
73.4661
70.8694
70.8694
68.3852
68.3852
66.0073
66.0073
63.7297
63.7297
61.5469
61.5469
59.4537
59.4537
57.4452
57.4452
55.517
55.517
53.6648
53.6648
51.8847
51.8847
50.173
50.173
48.5262
48.5262
46.9412
46.9412
45.4147
45.4147
43.9442
43.9442
42.5268
42.5268
41.16
41.16
39.8416
39.8416
38.5692
38.5692
37.341
37.341
36.1548
36.1548
35.0088
35.0088
33.9014
33.9014
32.8309
32.8309
31.7957
31.7957
30.7945
30.7945
29.8258
29.8258
28.8884
28.8884
27.981
27.981
27.1026
27.1026
26.2519
26.2519
25.428
25.428
24.6298
24.6298
23.8566
23.8566
23.1073
23.1073
22.3811
22.3811
21.6772
21.6772
20.995
20.995
20.3335
20.3335
19.6923
19.6923
19.0705
19.0705
18.4675
18.4675
17.8829
17.8829
17.3159
17.3159
16.766
16.766
16.2327
16.2327
15.7155
15.7155
15.2139
15.2139
14.7274
14.7274
14.2556
14.2556
13.798
13.798
13.3542
13.3542
12.9238
12.9238
12.5065
12.5065
12.1018
12.1018
11.7093
11.7093
11.3287
11.3287
10.9598
10.9598
10.602
10.602
10.2552
10.2552
9.91898
9.91898
9.59305
9.59305
9.27714
9.27714
8.97094
8.97094
8.67418
8.67418
8.3866
8.3866
8.10793
8.10793
7.83791
7.83791
7.5763
7.5763
7.32285
7.32285
7.07733
7.07733
6.83951
6.83951
6.60917
6.60917
6.38608
6.38608
6.17005
6.17005
5.96085
5.96085
5.75829
5.75829
5.56218
5.56218
5.37232
5.37232
5.18852
5.18852
5.01061
5.01061
4.83841
4.83841
4.67174
4.67174
4.51044
4.51044
4.35435
4.35435
4.2033
4.2033
4.05714
4.05714
3.91572
3.91572
3.77889
3.77889
3.64651
3.64651
3.51844
3.51844
3.39455
3.39455
3.27469
3.27469
3.15875
3.15875
3.0466
3.0466
2.93811
2.93811
2.83318
2.83318
2.73167
2.73167
2.63349
2.63349
2.53852
2.53852
2.44666
2.44666
2.35781
2.35781
2.27187
2.27187
2.18873
2.18873
2.10832
2.10832
2.03054
2.03054
1.9553
1.9553
1.88251
1.88251
1.8121
1.8121
1.74399
1.74399
1.6781
1.6781
1.61435
1.61435
1.55269
1.55269
1.49302
1.49302
1.4353
1.4353
1.37946
1.37946
1.32544
1.32544
1.27317
1.27317
1.22261
1.22261
1.17369
1.17369
1.12636
1.12636
1.08059
1.08059
1.03631
1.03631
0.993484
0.993485
0.952069
0.952069
0.912021
0.912021
0.873303
0.873303
0.835875
0.835875
0.799704
0.799704
0.764754
0.764754
0.730993
0.730993
0.698392
0.698392
0.66692
0.66692
0.63655
0.636551
0.607257
0.607257
0.579015
0.579015
0.5518
0.5518
0.525591
0.525591
0.500364
0.500364
0.476099
0.476099
0.452777
0.452777
0.430378
0.430378
0.408882
0.408882
0.388271
0.388271
0.368527
0.368527
0.349632
0.349632
0.331567
0.331567
0.314314
0.314314
0.297854
0.297854
0.282168
0.282168
0.267237
0.267237
0.253042
0.253042
0.239561
0.239561
0.226774
0.226774
0.214659
0.214659
0.203195
0.203195
0.192359
0.192359
0.182128
0.182128
0.172479
0.172479
0.163388
0.163388
0.154831
0.154831
0.146784
0.146784
0.139224
0.139224
0.132126
0.132126
0.125468
0.125468
0.119225
0.119225
0.113376
0.113376
0.107898
0.107898
0.102771
0.102771
0.0979718
0.0979719
0.0934824
0.0934824
0.0892832
0.0892832
0.0853559
0.0853559
0.0816832
0.0816832
0.0782486
0.0782486
0.0750365
0.0750365
0.0720321
0.0720321
0.0692216
0.0692217
0.066592
0.066592
0.064131
0.064131
0.0618272
0.0618272
0.0596697
0.0596697
0.0576487
0.0576487
0.0557547
0.0557547
0.053979
0.053979
0.0523135
0.0523135
0.0507507
0.0507507
0.0492835
0.0492835
0.0479054
0.0479054
0.0466102
0.0466102
0.0453923
0.0453923
0.0442464
0.0442464
0.0431677
0.0431677
0.0421515
0.0421515
0.0411936
0.0411936
0.0402901
0.0402901
0.0394373
0.0394374
0.0386319
0.0386319
0.0378705
0.0378705
0.0371503
0.0371503
0.0364686
0.0364686
0.0358226
0.0358226
0.0352102
0.0352102
0.034629
0.034629
0.0340769
0.034077
0.0335522
0.0335522
0.033053
0.033053
0.0325776
0.0325776
0.0321246
0.0321246
0.0316925
0.0316925
0.0312801
0.0312801
0.0308861
0.0308861
0.0305095
0.0305095
0.0301493
0.0301493
0.0298046
0.0298046
0.0294747
0.0294747
0.0291587
0.0291587
0.0288562
0.0288562
0.0285665
0.0285665
0.0282893
0.0282893
0.0280242
0.0280242
0.0277709
0.0277709
0.0275293
0.0275293
0.0272992
0.0272992
0.0270807
0.0270807
0.0268739
0.0268739
0.0266788
0.0266788
0.0264957
0.0264957
0.0263249
0.0263249
0.0261668
0.0261668
0.0260218
0.0260218
0.0258904
0.0258904
0.0257732
0.0257732
0.0256707
0.0256708
0.0255837
0.0255837
0.0255128
0.0255128
0.0254586
0.0254586
0.0254218
0.0254218
0.0254031
0.0254031
5.34523e+06
5.34523e+06
929951
929951
315228
315228
148644
148644
84247.1
84247.1
53502.4
53502.4
36668.9
36668.9
26532.6
26532.6
19990
19990
15538
15538
12380.4
12380.4
10065.1
10065.1
8320.36
8320.36
6975.17
6975.17
5917.8
5917.8
5072.77
5072.77
4387.66
4387.66
3825.18
3825.18
3358.22
3358.22
2966.73
2966.73
2635.61
2635.61
2353.32
2353.32
2110.93
2110.93
1901.45
1901.45
1719.32
1719.32
1560.13
1560.13
1420.29
1420.29
1296.87
1296.87
1187.49
1187.49
1090.17
1090.17
1003.26
1003.26
925.39
925.39
855.388
855.388
792.275
792.275
735.214
735.214
683.49
683.49
636.487
636.487
593.674
593.674
554.593
554.593
518.844
518.844
486.078
486.078
455.99
455.99
428.312
428.312
402.807
402.807
379.267
379.267
357.507
357.507
337.362
337.362
318.686
318.686
301.349
301.349
285.233
285.233
270.233
270.233
256.255
256.255
243.214
243.214
231.034
231.034
219.645
219.645
208.985
208.985
198.995
198.995
189.626
189.626
180.829
180.829
172.562
172.562
164.786
164.786
157.464
157.464
150.564
150.564
144.056
144.056
137.913
137.913
132.109
132.109
126.621
126.621
121.427
121.427
116.508
116.508
111.845
111.845
107.422
107.422
103.223
103.223
99.2341
99.2341
95.4416
95.4416
91.8333
91.8333
88.3977
88.3977
85.1243
85.1243
82.0033
82.0033
79.0255
79.0255
76.1824
76.1824
73.4661
73.4661
70.8694
70.8694
68.3852
68.3852
66.0073
66.0073
63.7297
63.7297
61.5469
61.5469
59.4537
59.4537
57.4452
57.4452
55.517
55.517
53.6648
53.6648
51.8847
51.8847
50.173
50.173
48.5262
48.5262
46.9412
46.9412
45.4147
45.4147
43.9442
43.9442
42.5268
42.5268
41.16
41.16
39.8416
39.8416
38.5692
38.5692
37.341
37.341
36.1548
36.1548
35.0088
35.0088
33.9014
33.9014
32.8309
32.8309
31.7957
31.7957
30.7945
30.7945
29.8258
29.8258
28.8884
28.8884
27.981
27.981
27.1026
27.1026
26.2519
26.2519
25.428
25.428
24.6298
24.6298
23.8566
23.8566
23.1073
23.1073
22.3811
22.3811
21.6772
21.6772
20.995
20.995
20.3335
20.3335
19.6923
19.6923
19.0705
19.0705
18.4675
18.4675
17.8829
17.8829
17.3159
17.3159
16.766
16.766
16.2327
16.2327
15.7155
15.7155
15.2139
15.2139
14.7274
14.7274
14.2556
14.2556
13.798
13.798
13.3542
13.3542
12.9238
12.9238
12.5065
12.5065
12.1018
12.1018
11.7093
11.7093
11.3287
11.3287
10.9598
10.9598
10.602
10.602
10.2552
10.2552
9.91898
9.91898
9.59305
9.59305
9.27714
9.27714
8.97094
8.97094
8.67418
8.67418
8.3866
8.3866
8.10793
8.10793
7.83791
7.83791
7.5763
7.5763
7.32285
7.32285
7.07733
7.07733
6.83951
6.83951
6.60917
6.60917
6.38608
6.38608
6.17005
6.17005
5.96085
5.96085
5.75829
5.75829
5.56218
5.56218
5.37232
5.37232
5.18852
5.18852
5.01061
5.01061
4.83841
4.83841
4.67174
4.67174
4.51044
4.51044
4.35435
4.35435
4.2033
4.2033
4.05714
4.05714
3.91572
3.91572
3.77889
3.77889
3.64651
3.64651
3.51844
3.51844
3.39455
3.39455
3.27469
3.27469
3.15875
3.15875
3.0466
3.0466
2.93811
2.93811
2.83318
2.83318
2.73167
2.73167
2.63349
2.63349
2.53852
2.53852
2.44666
2.44666
2.35781
2.35781
2.27187
2.27187
2.18873
2.18873
2.10832
2.10832
2.03054
2.03054
1.9553
1.9553
1.88251
1.88251
1.8121
1.8121
1.74399
1.74399
1.6781
1.6781
1.61435
1.61435
1.55269
1.55269
1.49302
1.49302
1.4353
1.4353
1.37946
1.37946
1.32544
1.32544
1.27317
1.27317
1.22261
1.22261
1.17369
1.17369
1.12636
1.12636
1.08059
1.08059
1.03631
1.03631
0.993485
0.993485
0.952069
0.952069
0.912021
0.912022
0.873303
0.873303
0.835875
0.835876
0.799704
0.799704
0.764754
0.764754
0.730993
0.730993
0.698392
0.698392
0.66692
0.66692
0.636551
0.636551
0.607257
0.607257
0.579015
0.579015
0.551801
0.551801
0.525591
0.525591
0.500364
0.500364
0.476099
0.4761
0.452777
0.452777
0.430378
0.430378
0.408882
0.408882
0.388271
0.388271
0.368528
0.368528
0.349632
0.349632
0.331567
0.331567
0.314314
0.314314
0.297854
0.297854
0.282168
0.282168
0.267237
0.267237
0.253042
0.253042
0.239561
0.239561
0.226774
0.226774
0.214659
0.214659
0.203195
0.203196
0.192359
0.19236
0.182129
0.182129
0.172479
0.172479
0.163388
0.163388
0.154831
0.154831
0.146784
0.146784
0.139224
0.139224
0.132126
0.132126
0.125468
0.125468
0.119225
0.119225
0.113376
0.113376
0.107898
0.107899
0.102771
0.102771
0.0979719
0.0979719
0.0934825
0.0934825
0.0892832
0.0892832
0.0853559
0.085356
0.0816832
0.0816832
0.0782486
0.0782486
0.0750365
0.0750365
0.0720321
0.0720322
0.0692217
0.0692217
0.0665921
0.0665921
0.064131
0.0641311
0.0618272
0.0618272
0.0596697
0.0596697
0.0576487
0.0576487
0.0557547
0.0557547
0.053979
0.053979
0.0523136
0.0523136
0.0507507
0.0507508
0.0492835
0.0492835
0.0479054
0.0479054
0.0466102
0.0466102
0.0453923
0.0453923
0.0442464
0.0442464
0.0431677
0.0431677
0.0421515
0.0421515
0.0411936
0.0411936
0.0402901
0.0402901
0.0394374
0.0394374
0.0386319
0.0386319
0.0378705
0.0378705
0.0371503
0.0371503
0.0364686
0.0364686
0.0358226
0.0358226
0.0352102
0.0352102
0.034629
0.034629
0.034077
0.034077
0.0335522
0.0335522
0.033053
0.033053
0.0325776
0.0325777
0.0321246
0.0321246
0.0316925
0.0316926
0.0312801
0.0312801
0.0308861
0.0308861
0.0305095
0.0305095
0.0301493
0.0301493
0.0298046
0.0298046
0.0294747
0.0294747
0.0291587
0.0291587
0.0288562
0.0288562
0.0285665
0.0285665
0.0282893
0.0282893
0.0280242
0.0280242
0.0277709
0.0277709
0.0275293
0.0275293
0.0272992
0.0272992
0.0270808
0.0270808
0.0268739
0.0268739
0.0266788
0.0266788
0.0264957
0.0264957
0.0263249
0.0263249
0.0261668
0.0261668
0.0260218
0.0260218
0.0258904
0.0258904
0.0257732
0.0257732
0.0256708
0.0256708
0.0255837
0.0255837
0.0255128
0.0255128
0.0254586
0.0254586
0.0254218
0.0254218
0.0254031
0.0254031
0.0254031
0.0254031
0.0254218
0.0254218
0.0254586
0.0254586
0.0255128
0.0255128
0.0255837
0.0255837
0.0256707
0.0256707
0.0257731
0.0257731
0.0258903
0.0258903
0.0260217
0.0260217
0.0261667
0.0261667
0.0263248
0.0263248
0.0264956
0.0264956
0.0266787
0.0266787
0.0268737
0.0268738
0.0270806
0.0270806
0.0272991
0.0272991
0.0275291
0.0275291
0.0277707
0.0277707
0.028024
0.028024
0.0282891
0.0282891
0.0285662
0.0285663
0.0288559
0.0288559
0.0291584
0.0291584
0.0294743
0.0294744
0.0298043
0.0298043
0.030149
0.030149
0.0305091
0.0305091
0.0308857
0.0308857
0.0312796
0.0312796
0.031692
0.031692
0.0321241
0.0321241
0.0325771
0.0325771
0.0330524
0.0330524
0.0335516
0.0335516
0.0340762
0.0340763
0.0346282
0.0346282
0.0352094
0.0352094
0.0358218
0.0358218
0.0364676
0.0364676
0.0371494
0.0371494
0.0378695
0.0378695
0.0386308
0.0386308
0.0394362
0.0394362
0.0402889
0.0402889
0.0411923
0.0411923
0.04215
0.04215
0.0431661
0.0431661
0.0442448
0.0442448
0.0453905
0.0453905
0.0466083
0.0466083
0.0479034
0.0479034
0.0492814
0.0492814
0.0507485
0.0507485
0.0523112
0.0523112
0.0539765
0.0539765
0.055752
0.055752
0.0576458
0.0576458
0.0596667
0.0596667
0.0618239
0.0618239
0.0641276
0.0641276
0.0665884
0.0665884
0.0692178
0.0692178
0.072028
0.072028
0.0750321
0.0750321
0.078244
0.078244
0.0816783
0.0816783
0.0853507
0.0853508
0.0892777
0.0892778
0.0934767
0.0934767
0.0979658
0.0979658
0.102764
0.102764
0.107892
0.107892
0.113369
0.113369
0.119218
0.119218
0.12546
0.12546
0.132118
0.132118
0.139216
0.139216
0.146776
0.146776
0.154822
0.154822
0.163379
0.163379
0.172469
0.172469
0.182118
0.182118
0.192349
0.192349
0.203185
0.203185
0.214648
0.214648
0.226763
0.226763
0.239549
0.239549
0.25303
0.25303
0.267225
0.267225
0.282156
0.282156
0.297842
0.297842
0.314302
0.314302
0.331555
0.331555
0.34962
0.34962
0.368515
0.368515
0.388259
0.388259
0.40887
0.40887
0.430365
0.430366
0.452765
0.452765
0.476087
0.476088
0.500352
0.500352
0.525579
0.525579
0.551789
0.551789
0.579004
0.579004
0.607246
0.607246
0.63654
0.63654
0.666909
0.666909
0.698381
0.698381
0.730983
0.730983
0.764744
0.764744
0.799694
0.799694
0.835866
0.835866
0.873294
0.873294
0.912013
0.912013
0.95206
0.952061
0.993476
0.993476
1.0363
1.0363
1.08058
1.08058
1.12636
1.12636
1.17368
1.17368
1.2226
1.2226
1.27316
1.27316
1.32543
1.32543
1.37946
1.37946
1.4353
1.4353
1.49302
1.49302
1.55268
1.55268
1.61435
1.61435
1.67809
1.67809
1.74399
1.74399
1.8121
1.8121
1.88251
1.88251
1.95529
1.95529
2.03053
2.03053
2.10832
2.10832
2.18873
2.18873
2.27186
2.27186
2.35781
2.35781
2.44666
2.44666
2.53852
2.53852
2.63349
2.63349
2.73167
2.73167
2.83317
2.83317
2.93811
2.93811
3.0466
3.0466
3.15875
3.15875
3.27469
3.27469
3.39455
3.39455
3.51844
3.51844
3.64651
3.64651
3.77889
3.77889
3.91572
3.91572
4.05714
4.05714
4.2033
4.2033
4.35434
4.35435
4.51044
4.51044
4.67174
4.67174
4.8384
4.8384
5.01061
5.01061
5.18852
5.18852
5.37231
5.37231
5.56218
5.56218
5.75829
5.75829
5.96085
5.96085
6.17005
6.17005
6.38608
6.38608
6.60917
6.60917
6.83951
6.83951
7.07733
7.07733
7.32285
7.32285
7.5763
7.5763
7.83791
7.83791
8.10793
8.10793
8.3866
8.3866
8.67418
8.67418
8.97094
8.97094
9.27714
9.27714
9.59305
9.59305
9.91897
9.91897
10.2552
10.2552
10.602
10.602
10.9598
10.9598
11.3287
11.3287
11.7093
11.7093
12.1018
12.1018
12.5065
12.5065
12.9238
12.9238
13.3542
13.3542
13.798
13.798
14.2556
14.2556
14.7274
14.7274
15.2139
15.2139
15.7155
15.7155
16.2327
16.2327
16.766
16.766
17.3159
17.3159
17.8829
17.8829
18.4675
18.4675
19.0705
19.0705
19.6923
19.6923
20.3335
20.3335
20.995
20.995
21.6772
21.6772
22.3811
22.3811
23.1073
23.1073
23.8566
23.8566
24.6298
24.6298
25.428
25.428
26.2519
26.2519
27.1026
27.1026
27.981
27.981
28.8884
28.8884
29.8258
29.8258
30.7945
30.7945
31.7957
31.7957
32.8309
32.8309
33.9014
33.9014
35.0088
35.0088
36.1548
36.1548
37.341
37.341
38.5692
38.5692
39.8416
39.8416
41.16
41.16
42.5268
42.5268
43.9442
43.9442
45.4147
45.4147
46.9412
46.9412
48.5262
48.5262
50.173
50.173
51.8847
51.8847
53.6648
53.6648
55.517
55.517
57.4452
57.4452
59.4537
59.4537
61.5469
61.5469
63.7297
63.7297
66.0073
66.0073
68.3852
68.3852
70.8694
70.8694
73.4661
73.4661
76.1824
76.1824
79.0255
79.0255
82.0033
82.0033
85.1243
85.1243
88.3977
88.3977
91.8333
91.8333
95.4416
95.4416
99.2341
99.2341
103.223
103.223
107.422
107.422
111.845
111.845
116.508
116.508
121.427
121.427
126.621
126.621
132.109
132.109
137.913
137.913
144.056
144.056
150.564
150.564
157.464
157.464
164.786
164.786
172.562
172.562
180.829
180.829
189.626
189.626
198.995
198.995
208.985
208.985
219.645
219.645
231.034
231.034
243.214
243.214
256.255
256.255
270.233
270.233
285.233
285.233
301.349
301.349
318.686
318.686
337.362
337.362
357.507
357.507
379.267
379.267
402.807
402.807
428.312
428.312
455.99
455.99
486.078
486.078
518.844
518.844
554.593
554.593
593.674
593.674
636.487
636.487
683.49
683.49
735.214
735.214
792.275
792.275
855.388
855.388
925.39
925.39
1003.26
1003.26
1090.17
1090.17
1187.49
1187.49
1296.87
1296.87
1420.29
1420.29
1560.13
1560.13
1719.32
1719.32
1901.45
1901.45
2110.93
2110.93
2353.32
2353.32
2635.61
2635.61
2966.73
2966.73
3358.22
3358.22
3825.18
3825.18
4387.66
4387.66
5072.77
5072.77
5917.8
5917.8
6975.17
6975.17
8320.36
8320.36
10065.1
10065.1
12380.5
12380.5
15538
15538
19990
19990
26532.6
26532.6
36668.9
36668.9
53502.4
53502.4
84247.1
84247.1
148644
148644
315229
315229
929952
929952
5.34526e+06
5.34526e+06
0.0254031
0.0254031
0.0254218
0.0254218
0.0254586
0.0254586
0.0255128
0.0255128
0.0255837
0.0255837
0.0256707
0.0256707
0.0257731
0.0257732
0.0258904
0.0258904
0.0260217
0.0260217
0.0261667
0.0261667
0.0263248
0.0263248
0.0264956
0.0264956
0.0266787
0.0266787
0.0268738
0.0268738
0.0270806
0.0270806
0.0272991
0.0272991
0.0275291
0.0275291
0.0277707
0.0277707
0.028024
0.028024
0.0282891
0.0282891
0.0285663
0.0285663
0.0288559
0.0288559
0.0291584
0.0291584
0.0294744
0.0294744
0.0298043
0.0298043
0.030149
0.030149
0.0305091
0.0305091
0.0308857
0.0308857
0.0312797
0.0312797
0.0316921
0.0316921
0.0321241
0.0321241
0.0325771
0.0325771
0.0330524
0.0330524
0.0335516
0.0335516
0.0340763
0.0340763
0.0346282
0.0346282
0.0352094
0.0352094
0.0358218
0.0358218
0.0364676
0.0364677
0.0371494
0.0371494
0.0378695
0.0378695
0.0386308
0.0386308
0.0394362
0.0394362
0.0402889
0.0402889
0.0411923
0.0411923
0.04215
0.04215
0.0431661
0.0431661
0.0442448
0.0442448
0.0453906
0.0453906
0.0466083
0.0466083
0.0479034
0.0479034
0.0492814
0.0492814
0.0507485
0.0507485
0.0523112
0.0523112
0.0539765
0.0539765
0.055752
0.055752
0.0576458
0.0576458
0.0596667
0.0596667
0.0618239
0.061824
0.0641276
0.0641276
0.0665884
0.0665884
0.0692178
0.0692178
0.072028
0.0720281
0.0750321
0.0750322
0.078244
0.078244
0.0816783
0.0816784
0.0853508
0.0853508
0.0892778
0.0892778
0.0934767
0.0934767
0.0979658
0.0979659
0.102764
0.102764
0.107892
0.107892
0.113369
0.113369
0.119218
0.119218
0.12546
0.12546
0.132118
0.132118
0.139216
0.139216
0.146776
0.146776
0.154822
0.154822
0.163379
0.163379
0.17247
0.17247
0.182118
0.182119
0.192349
0.192349
0.203185
0.203185
0.214648
0.214649
0.226763
0.226763
0.239549
0.239549
0.25303
0.25303
0.267226
0.267226
0.282156
0.282156
0.297842
0.297842
0.314302
0.314302
0.331555
0.331555
0.34962
0.34962
0.368515
0.368515
0.388259
0.388259
0.40887
0.40887
0.430366
0.430366
0.452765
0.452765
0.476088
0.476088
0.500352
0.500352
0.525579
0.525579
0.551789
0.551789
0.579004
0.579004
0.607246
0.607246
0.63654
0.63654
0.666909
0.66691
0.698381
0.698382
0.730983
0.730983
0.764744
0.764744
0.799694
0.799694
0.835866
0.835866
0.873294
0.873294
0.912013
0.912013
0.952061
0.952061
0.993476
0.993477
1.0363
1.0363
1.08058
1.08058
1.12636
1.12636
1.17368
1.17368
1.2226
1.2226
1.27316
1.27316
1.32543
1.32543
1.37946
1.37946
1.4353
1.4353
1.49302
1.49302
1.55268
1.55268
1.61435
1.61435
1.67809
1.67809
1.74399
1.74399
1.8121
1.8121
1.88251
1.88251
1.95529
1.95529
2.03053
2.03053
2.10832
2.10832
2.18873
2.18873
2.27186
2.27186
2.35781
2.35781
2.44666
2.44666
2.53852
2.53852
2.63349
2.63349
2.73167
2.73167
2.83317
2.83317
2.93811
2.93811
3.0466
3.0466
3.15875
3.15875
3.27469
3.27469
3.39455
3.39455
3.51844
3.51844
3.64651
3.64651
3.77889
3.77889
3.91572
3.91572
4.05714
4.05714
4.2033
4.2033
4.35435
4.35435
4.51044
4.51044
4.67174
4.67174
4.8384
4.8384
5.01061
5.01061
5.18852
5.18852
5.37231
5.37231
5.56218
5.56218
5.75829
5.75829
5.96085
5.96085
6.17005
6.17005
6.38608
6.38608
6.60917
6.60917
6.83951
6.83951
7.07733
7.07733
7.32285
7.32285
7.5763
7.5763
7.83791
7.83791
8.10793
8.10793
8.3866
8.3866
8.67418
8.67418
8.97094
8.97094
9.27714
9.27714
9.59305
9.59305
9.91897
9.91897
10.2552
10.2552
10.602
10.602
10.9598
10.9598
11.3287
11.3287
11.7093
11.7093
12.1018
12.1018
12.5065
12.5065
12.9238
12.9238
13.3542
13.3542
13.798
13.798
14.2556
14.2556
14.7274
14.7274
15.2139
15.2139
15.7155
15.7155
16.2327
16.2327
16.766
16.766
17.3159
17.3159
17.8829
17.8829
18.4675
18.4675
19.0705
19.0705
19.6923
19.6923
20.3335
20.3335
20.995
20.995
21.6772
21.6772
22.3811
22.3811
23.1073
23.1073
23.8566
23.8566
24.6298
24.6298
25.428
25.428
26.2519
26.2519
27.1026
27.1026
27.981
27.981
28.8884
28.8884
29.8258
29.8258
30.7945
30.7945
31.7957
31.7957
32.8309
32.8309
33.9014
33.9014
35.0088
35.0088
36.1548
36.1548
37.341
37.341
38.5692
38.5692
39.8416
39.8416
41.16
41.16
42.5268
42.5268
43.9442
43.9442
45.4147
45.4147
46.9412
46.9412
48.5262
48.5262
50.173
50.173
51.8847
51.8847
53.6648
53.6648
55.517
55.517
57.4452
57.4452
59.4537
59.4537
61.5469
61.5469
63.7297
63.7297
66.0073
66.0073
68.3852
68.3852
70.8694
70.8694
73.4661
73.4661
76.1824
76.1824
79.0255
79.0255
82.0033
82.0033
85.1243
85.1243
88.3977
88.3977
91.8333
91.8333
95.4416
95.4416
99.2341
99.2341
103.223
103.223
107.422
107.422
111.845
111.845
116.508
116.508
121.427
121.427
126.621
126.621
132.109
132.109
137.913
137.913
144.056
144.056
150.564
150.564
157.464
157.464
164.786
164.786
172.562
172.562
180.829
180.829
189.626
189.626
198.995
198.995
208.985
208.985
219.645
219.645
231.034
231.034
243.214
243.214
256.255
256.255
270.233
270.233
285.233
285.233
301.349
301.349
318.686
318.686
337.362
337.362
357.507
357.507
379.267
379.267
402.807
402.807
428.312
428.312
455.99
455.99
486.078
486.078
518.844
518.844
554.593
554.593
593.674
593.674
636.487
636.487
683.49
683.49
735.214
735.214
792.275
792.275
855.388
855.388
925.39
925.39
1003.26
1003.26
1090.17
1090.17
1187.49
1187.49
1296.87
1296.87
1420.29
1420.29
1560.13
1560.13
1719.32
1719.32
1901.45
1901.45
2110.93
2110.93
2353.32
2353.32
2635.61
2635.61
2966.73
2966.73
3358.22
3358.22
3825.18
3825.18
4387.66
4387.66
5072.77
5072.77
5917.8
5917.8
6975.17
6975.17
8320.36
8320.36
10065.1
10065.1
12380.5
12380.5
15538
15538
19990
19990
26532.6
26532.6
36668.9
36668.9
53502.4
53502.4
84247.1
84247.1
148644
148644
315229
315229
929952
929952
5.34526e+06
5.34526e+06
)
;

boundaryField
{
    walls
    {
        blending        binomial2;
        n               2;
        beta1           0.075;
        type            omegaWallFunction;
        value           nonuniform List<scalar> 8(5.34523e+06 5.34523e+06 5.34523e+06 5.34523e+06 5.34526e+06 5.34526e+06 5.34526e+06 5.34526e+06);
    }
    inlet
    {
        type            cyclic;
    }
    outlet
    {
        type            cyclic;
    }
    sides
    {
        type            empty;
    }
}


// ************************************************************************* //
