/*--------------------------------*- C++ -*----------------------------------*\
| =========                 |                                                 |
| \\      /  F ield         | OpenFOAM: The Open Source CFD Toolbox           |
|  \\    /   O peration     | Version:  2012                                  |
|   \\  /    A nd           | Website:  www.openfoam.com                      |
|    \\/     M anipulation  |                                                 |
\*---------------------------------------------------------------------------*/
FoamFile
{
    version     2.0;
    format      ascii;
    class       volScalarField;
    location    "4000";
    object      p;
}
// * * * * * * * * * * * * * * * * * * * * * * * * * * * * * * * * * * * * * //

dimensions      [0 2 -2 0 0 0 0];


internalField   nonuniform List<scalar> 
160
(
3.11806e-16
2.23026e-15
6.46159e-16
2.24379e-15
8.30738e-16
2.25479e-15
1.01331e-15
2.27448e-15
1.24232e-15
2.30934e-15
1.52351e-15
2.36905e-15
1.85509e-15
2.47017e-15
2.22278e-15
2.63125e-15
2.6392e-15
2.87962e-15
3.11182e-15
3.23225e-15
3.68587e-15
3.72123e-15
4.38829e-15
4.418e-15
5.25678e-15
5.2941e-15
6.41346e-15
6.4174e-15
7.97403e-15
7.95487e-15
1.00823e-14
1.00836e-14
1.26704e-14
1.26647e-14
1.60662e-14
1.62505e-14
1.95087e-14
1.94862e-14
2.41623e-14
2.41115e-14
2.27462e-15
2.46059e-15
2.27942e-15
2.46482e-15
2.28874e-15
2.47227e-15
2.30863e-15
2.4883e-15
2.34961e-15
2.52032e-15
2.42686e-15
2.58025e-15
2.55314e-15
2.68442e-15
2.75693e-15
2.84405e-15
3.02838e-15
3.09761e-15
3.40996e-15
3.44839e-15
3.90992e-15
3.93235e-15
4.55159e-15
4.57428e-15
5.41011e-15
5.4292e-15
6.52803e-15
6.52949e-15
8.01781e-15
7.99957e-15
9.99421e-15
1.00117e-14
1.28484e-14
1.26342e-14
1.60665e-14
1.60779e-14
1.9146e-14
1.94006e-14
2.42296e-14
2.41099e-14
2.71725e-14
2.73199e-14
2.95587e-14
2.95874e-14
2.98113e-14
2.99364e-14
2.9684e-14
2.96922e-14
2.95194e-14
2.95089e-14
2.93442e-14
2.93424e-14
2.92124e-14
2.92119e-14
2.91114e-14
2.9112e-14
2.91104e-14
2.91186e-14
2.91018e-14
2.91292e-14
2.91056e-14
2.91265e-14
2.91122e-14
2.91209e-14
2.91161e-14
2.91115e-14
2.91147e-14
2.91095e-14
2.91144e-14
2.91081e-14
2.91153e-14
2.91069e-14
2.91138e-14
2.91075e-14
2.91132e-14
2.91077e-14
2.91132e-14
2.91078e-14
2.91133e-14
2.91078e-14
2.73367e-14
2.75065e-14
2.96604e-14
2.95927e-14
2.99749e-14
2.99063e-14
2.98327e-14
2.98555e-14
2.95636e-14
2.95018e-14
2.93498e-14
2.93442e-14
2.92167e-14
2.92145e-14
2.91257e-14
2.91165e-14
2.91172e-14
2.91185e-14
2.91122e-14
2.91209e-14
2.91069e-14
2.91247e-14
2.91075e-14
2.91136e-14
2.91067e-14
2.91054e-14
2.91004e-14
2.91015e-14
2.91012e-14
2.91005e-14
2.91022e-14
2.90981e-14
2.91014e-14
2.90977e-14
2.91015e-14
2.90977e-14
2.91015e-14
2.90978e-14
2.91015e-14
2.90978e-14
)
;

boundaryField
{
    walls
    {
        type            zeroGradient;
    }
    inlet
    {
        type            cyclic;
    }
    outlet
    {
        type            cyclic;
    }
    sides
    {
        type            empty;
    }
}


// ************************************************************************* //
