/*--------------------------------*- C++ -*----------------------------------*\
| =========                 |                                                 |
| \\      /  F ield         | OpenFOAM: The Open Source CFD Toolbox           |
|  \\    /   O peration     | Version:  2012                                  |
|   \\  /    A nd           | Website:  www.openfoam.com                      |
|    \\/     M anipulation  |                                                 |
\*---------------------------------------------------------------------------*/
FoamFile
{
    version     2.0;
    format      ascii;
    class       volVectorField;
    location    "3000";
    object      U;
}
// * * * * * * * * * * * * * * * * * * * * * * * * * * * * * * * * * * * * * //

dimensions      [0 1 -1 0 0 0 0];


internalField   nonuniform List<vector> 
2560
(
(0.00215107 -1.43189e-15 9.98972e-18)
(0.00215107 -4.46447e-19 1.01486e-17)
(0.00648365 -3.80623e-16 7.62444e-17)
(0.00648365 9.47785e-19 4.0014e-17)
(0.0108778 -2.63086e-15 8.01622e-17)
(0.0108778 1.13478e-18 4.11961e-17)
(0.0153335 -2.04399e-15 8.46223e-17)
(0.0153335 1.81708e-18 4.2416e-17)
(0.0198508 -1.99215e-15 8.91676e-17)
(0.0198508 2.51316e-18 4.36749e-17)
(0.0244299 -2.01116e-15 9.37724e-17)
(0.0244299 3.2194e-18 4.49743e-17)
(0.0290707 -2.0181e-15 9.85243e-17)
(0.0290707 3.93436e-18 4.63154e-17)
(0.0337732 -2.01958e-15 1.03444e-16)
(0.0337732 4.65472e-18 4.7699e-17)
(0.0385375 -2.02054e-15 1.08535e-16)
(0.0385375 5.37591e-18 4.91275e-17)
(0.0433636 -2.02191e-15 1.13802e-16)
(0.0433636 6.1018e-18 5.06014e-17)
(0.0482515 -2.02334e-15 1.19249e-16)
(0.0482515 6.85394e-18 5.21231e-17)
(0.0532012 -2.02474e-15 1.24882e-16)
(0.0532012 7.61838e-18 5.36942e-17)
(0.0582128 -2.02616e-15 1.30705e-16)
(0.0582128 8.35186e-18 5.53156e-17)
(0.0632862 -2.0276e-15 1.36724e-16)
(0.0632862 9.09109e-18 5.69892e-17)
(0.0684215 -2.02899e-15 1.42945e-16)
(0.0684215 9.83512e-18 5.87174e-17)
(0.0736187 -2.03045e-15 1.49372e-16)
(0.0736187 1.06105e-17 6.0501e-17)
(0.0788778 -2.03198e-15 1.56011e-16)
(0.0788778 1.14131e-17 6.23417e-17)
(0.0841988 -2.03348e-15 1.62869e-16)
(0.0841988 1.2115e-17 6.42422e-17)
(0.0895818 -2.035e-15 1.69952e-16)
(0.0895818 1.28436e-17 6.62034e-17)
(0.0950268 -2.03653e-15 1.77266e-16)
(0.0950268 1.35746e-17 6.82288e-17)
(0.100534 -2.03806e-15 1.84818e-16)
(0.100534 1.43064e-17 7.03197e-17)
(0.106103 -2.03966e-15 1.92614e-16)
(0.106103 1.50835e-17 7.24756e-17)
(0.111734 -2.04128e-15 2.00661e-16)
(0.111734 1.58593e-17 7.47003e-17)
(0.117428 -2.04289e-15 2.08966e-16)
(0.117428 1.65762e-17 7.69964e-17)
(0.123183 -2.04451e-15 2.17535e-16)
(0.123183 1.725e-17 7.93656e-17)
(0.129001 -2.04623e-15 2.26375e-16)
(0.129001 1.79919e-17 8.18116e-17)
(0.134881 -2.04801e-15 2.35492e-16)
(0.134881 1.88419e-17 8.43347e-17)
(0.140824 -2.04985e-15 2.44892e-16)
(0.140824 1.97773e-17 8.69378e-17)
(0.146829 -2.05159e-15 2.54581e-16)
(0.146829 2.06143e-17 8.96191e-17)
(0.152896 -2.05323e-15 2.64565e-16)
(0.152896 2.1315e-17 9.23825e-17)
(0.159026 -2.05494e-15 2.74849e-16)
(0.159026 2.20352e-17 9.52314e-17)
(0.165218 -2.05661e-15 2.85439e-16)
(0.165218 2.27742e-17 9.81711e-17)
(0.171472 -2.05824e-15 2.96339e-16)
(0.171472 2.34916e-17 1.01198e-16)
(0.177788 -2.0599e-15 3.0544e-16)
(0.177788 2.40882e-17 1.04312e-16)
(0.184167 -2.06172e-15 3.09725e-16)
(0.184167 2.4841e-17 1.07517e-16)
(0.190607 -2.06363e-15 3.1409e-16)
(0.190607 2.57123e-17 1.10812e-16)
(0.197109 -2.0655e-15 3.18529e-16)
(0.197109 2.63902e-17 1.14197e-16)
(0.203671 -2.06731e-15 3.2305e-16)
(0.203671 2.71695e-17 1.17679e-16)
(0.210295 -2.06922e-15 3.27645e-16)
(0.210295 2.79598e-17 1.21251e-16)
(0.216978 -2.07101e-15 3.32309e-16)
(0.216978 2.86592e-17 1.24919e-16)
(0.223721 -2.07266e-15 3.37035e-16)
(0.223721 2.92479e-17 1.28675e-16)
(0.230523 -2.07435e-15 3.41825e-16)
(0.230523 2.99235e-17 1.3252e-16)
(0.237382 -2.07611e-15 3.46669e-16)
(0.237382 3.03419e-17 1.3645e-16)
(0.244297 -2.07799e-15 3.51556e-16)
(0.244297 3.08197e-17 1.40464e-16)
(0.251268 -2.08003e-15 3.56487e-16)
(0.251268 3.15318e-17 1.4456e-16)
(0.258292 -2.08211e-15 3.5829e-16)
(0.258292 3.21782e-17 1.48741e-16)
(0.265368 -2.08412e-15 3.57984e-16)
(0.265368 3.29208e-17 1.52993e-16)
(0.272494 -2.08628e-15 3.57551e-16)
(0.272494 3.34749e-17 1.57321e-16)
(0.279668 -2.08849e-15 3.56996e-16)
(0.279668 3.41296e-17 1.61715e-16)
(0.286888 -2.09057e-15 3.56305e-16)
(0.286888 3.49739e-17 1.66178e-16)
(0.294151 -2.09271e-15 3.55473e-16)
(0.294151 3.57506e-17 1.70689e-16)
(0.301455 -2.09466e-15 3.54487e-16)
(0.301455 3.61335e-17 1.75251e-16)
(0.308797 -2.0963e-15 3.53324e-16)
(0.308797 3.65029e-17 1.79859e-16)
(0.316174 -2.09774e-15 3.51994e-16)
(0.316174 3.66936e-17 1.84515e-16)
(0.323582 -2.09904e-15 3.50487e-16)
(0.323582 3.64361e-17 1.89212e-16)
(0.331019 -2.10056e-15 3.4881e-16)
(0.331019 3.64878e-17 1.93929e-16)
(0.338481 -2.10224e-15 3.46971e-16)
(0.338481 3.65961e-17 1.98653e-16)
(0.345964 -2.10388e-15 3.44947e-16)
(0.345964 3.64984e-17 2.03406e-16)
(0.353465 -2.10537e-15 3.42751e-16)
(0.353465 3.66635e-17 2.08187e-16)
(0.360981 -2.10674e-15 3.44839e-16)
(0.360981 3.66113e-17 2.1298e-16)
(0.368507 -2.10797e-15 3.47636e-16)
(0.368507 3.66209e-17 2.17784e-16)
(0.376039 -2.10955e-15 3.50326e-16)
(0.376039 3.7265e-17 2.22577e-16)
(0.383575 -2.1114e-15 3.52917e-16)
(0.383575 3.73825e-17 2.27403e-16)
(0.391111 -2.11307e-15 3.55424e-16)
(0.391111 3.79228e-17 2.32235e-16)
(0.398642 -2.11467e-15 3.57854e-16)
(0.398642 3.81459e-17 2.37052e-16)
(0.406166 -2.11624e-15 3.60173e-16)
(0.406166 3.79145e-17 2.41872e-16)
(0.413678 -2.11731e-15 3.62392e-16)
(0.413678 3.75166e-17 2.46713e-16)
(0.421176 -2.11805e-15 3.64512e-16)
(0.421176 3.66026e-17 2.51562e-16)
(0.428657 -2.11895e-15 3.66537e-16)
(0.428657 3.60725e-17 2.56417e-16)
(0.436116 -2.11963e-15 3.68493e-16)
(0.436116 3.56489e-17 2.61285e-16)
(0.443552 -2.11999e-15 3.70361e-16)
(0.443552 3.48526e-17 2.66134e-16)
(0.450961 -2.12091e-15 3.72117e-16)
(0.450961 3.35913e-17 2.71029e-16)
(0.458342 -2.12158e-15 3.73835e-16)
(0.458342 3.20244e-17 2.75975e-16)
(0.46569 -2.12199e-15 3.75489e-16)
(0.46569 3.03792e-17 2.80911e-16)
(0.473005 -2.12289e-15 3.77117e-16)
(0.473005 2.92906e-17 2.85876e-16)
(0.480283 -2.12353e-15 3.78694e-16)
(0.480283 2.87983e-17 2.90861e-16)
(0.487523 -2.12386e-15 3.80245e-16)
(0.487523 2.79126e-17 2.95941e-16)
(0.494723 -2.12413e-15 3.81811e-16)
(0.494723 2.57409e-17 3.01065e-16)
(0.501881 -2.12469e-15 3.83374e-16)
(0.501881 2.36651e-17 3.0622e-16)
(0.508995 -2.12556e-15 3.84915e-16)
(0.508995 2.30272e-17 3.11422e-16)
(0.516064 -2.12662e-15 3.86445e-16)
(0.516064 2.28574e-17 3.16653e-16)
(0.523087 -2.12745e-15 3.87952e-16)
(0.523087 2.18851e-17 3.22008e-16)
(0.530062 -2.12917e-15 3.89427e-16)
(0.530062 2.23223e-17 3.27455e-16)
(0.536989 -2.13141e-15 3.90923e-16)
(0.536989 2.3525e-17 3.32993e-16)
(0.543866 -2.13256e-15 3.92478e-16)
(0.543866 2.28096e-17 3.38621e-16)
(0.550692 -2.13288e-15 3.94095e-16)
(0.550692 2.21299e-17 3.44358e-16)
(0.557467 -2.13322e-15 3.95728e-16)
(0.557467 2.09082e-17 3.50113e-16)
(0.56419 -2.13341e-15 3.97296e-16)
(0.56419 1.9155e-17 3.56077e-16)
(0.57086 -2.13252e-15 3.98965e-16)
(0.57086 1.7535e-17 3.6224e-16)
(0.577477 -2.13162e-15 4.00735e-16)
(0.577477 1.5167e-17 3.6843e-16)
(0.584041 -2.13226e-15 4.02535e-16)
(0.584041 1.34608e-17 3.74779e-16)
(0.59055 -2.13328e-15 4.04445e-16)
(0.59055 1.27771e-17 3.81328e-16)
(0.597004 -2.13416e-15 4.06462e-16)
(0.597004 1.21494e-17 3.88009e-16)
(0.603404 -2.13497e-15 4.08577e-16)
(0.603404 1.14557e-17 3.94809e-16)
(0.609749 -2.13529e-15 4.10787e-16)
(0.609749 1.07304e-17 4.01826e-16)
(0.616039 -2.13575e-15 4.12991e-16)
(0.616039 1.08438e-17 4.09118e-16)
(0.622274 -2.13542e-15 4.15484e-16)
(0.622274 1.0991e-17 4.16584e-16)
(0.628453 -2.13341e-15 4.18288e-16)
(0.628453 9.16983e-18 4.2415e-16)
(0.634577 -2.13199e-15 4.21108e-16)
(0.634577 7.23871e-18 4.31868e-16)
(0.640645 -2.13127e-15 4.2392e-16)
(0.640645 6.61495e-18 4.39863e-16)
(0.646658 -2.1299e-15 4.26777e-16)
(0.646658 7.06194e-18 4.48106e-16)
(0.652616 -2.12778e-15 4.2987e-16)
(0.652616 5.173e-18 4.56564e-16)
(0.658518 -2.12615e-15 4.3287e-16)
(0.658518 3.30013e-18 4.65263e-16)
(0.664365 -2.12566e-15 4.35897e-16)
(0.664365 3.21604e-18 4.74218e-16)
(0.670157 -2.12439e-15 4.39091e-16)
(0.670157 -3.82252e-19 4.83404e-16)
(0.675894 -2.12234e-15 4.42338e-16)
(0.675894 -3.32885e-18 4.92886e-16)
(0.681576 -2.11922e-15 4.45639e-16)
(0.681576 -5.2111e-18 5.02538e-16)
(0.687203 -2.11617e-15 4.48922e-16)
(0.687203 -9.95364e-18 5.12449e-16)
(0.692776 -2.11306e-15 4.52234e-16)
(0.692776 -1.37017e-17 5.22812e-16)
(0.698295 -2.10962e-15 4.5564e-16)
(0.698295 -1.68467e-17 5.33428e-16)
(0.70376 -2.10586e-15 4.5923e-16)
(0.70376 -2.12408e-17 5.44292e-16)
(0.70917 -2.1006e-15 4.63073e-16)
(0.70917 -2.51609e-17 5.55442e-16)
(0.714527 -2.09722e-15 4.66742e-16)
(0.714527 -3.08496e-17 5.66968e-16)
(0.719831 -2.09558e-15 4.70554e-16)
(0.719831 -3.43382e-17 5.78842e-16)
(0.725081 -2.09248e-15 4.74556e-16)
(0.725081 -3.70838e-17 5.91038e-16)
(0.730278 -2.08973e-15 4.78628e-16)
(0.730278 -4.03078e-17 6.03613e-16)
(0.735423 -2.08758e-15 4.82756e-16)
(0.735423 -4.22424e-17 6.16496e-16)
(0.740515 -2.08531e-15 4.87033e-16)
(0.740515 -4.57126e-17 6.29814e-16)
(0.745555 -2.08262e-15 4.91272e-16)
(0.745555 -4.88398e-17 6.43488e-16)
(0.750543 -2.07924e-15 4.95619e-16)
(0.750543 -5.35248e-17 6.57467e-16)
(0.75548 -2.07426e-15 5.00238e-16)
(0.75548 -5.83605e-17 6.72041e-16)
(0.760365 -2.07086e-15 5.04841e-16)
(0.760365 -6.22387e-17 6.87108e-16)
(0.765198 -2.07059e-15 5.09742e-16)
(0.765198 -6.417e-17 7.02533e-16)
(0.769981 -2.06898e-15 5.14777e-16)
(0.769981 -6.48998e-17 7.18151e-16)
(0.774714 -2.06712e-15 5.19731e-16)
(0.774714 -6.52376e-17 7.29212e-16)
(0.779396 -2.06575e-15 5.24885e-16)
(0.779396 -6.80603e-17 7.36807e-16)
(0.784028 -2.06238e-15 5.30041e-16)
(0.784028 -7.07507e-17 7.44599e-16)
(0.78861 -2.05849e-15 5.35071e-16)
(0.78861 -7.11561e-17 7.51995e-16)
(0.793143 -2.05455e-15 5.40116e-16)
(0.793143 -7.51212e-17 7.5925e-16)
(0.797627 -2.04812e-15 5.45204e-16)
(0.797627 -7.89357e-17 7.66859e-16)
(0.802062 -2.04385e-15 5.50267e-16)
(0.802062 -8.12558e-17 7.74958e-16)
(0.806448 -2.04101e-15 5.55313e-16)
(0.806448 -8.52815e-17 7.82821e-16)
(0.810786 -2.03536e-15 5.60236e-16)
(0.810786 -9.20446e-17 7.90234e-16)
(0.815076 -2.02916e-15 5.65124e-16)
(0.815076 -9.6939e-17 7.97762e-16)
(0.819319 -2.02443e-15 5.69958e-16)
(0.819319 -1.01318e-16 8.0564e-16)
(0.823513 -2.01917e-15 5.74812e-16)
(0.823513 -1.08648e-16 8.13212e-16)
(0.827661 -2.01187e-15 5.79923e-16)
(0.827661 -1.17461e-16 8.20554e-16)
(0.831762 -2.00658e-15 5.84367e-16)
(0.831762 -1.23281e-16 8.2845e-16)
(0.835816 -2.00045e-15 5.89426e-16)
(0.835816 -1.28368e-16 8.35709e-16)
(0.839824 -1.98984e-15 5.94967e-16)
(0.839824 -1.38891e-16 8.42738e-16)
(0.843786 -1.98184e-15 6.00061e-16)
(0.843786 -1.48378e-16 8.50465e-16)
(0.847702 -1.97245e-15 6.05679e-16)
(0.847702 -1.54603e-16 8.58244e-16)
(0.851572 -1.96428e-15 6.11083e-16)
(0.851572 -1.62239e-16 8.65966e-16)
(0.855398 -1.96011e-15 6.16298e-16)
(0.855398 -1.6703e-16 8.73572e-16)
(0.859178 -1.9544e-15 6.21558e-16)
(0.859178 -1.68916e-16 8.81092e-16)
(0.862914 -1.94803e-15 6.26903e-16)
(0.862914 -1.75794e-16 8.88303e-16)
(0.866605 -1.93997e-15 6.32008e-16)
(0.866605 -1.81546e-16 8.95213e-16)
(0.870252 -1.93533e-15 6.37083e-16)
(0.870252 -1.88138e-16 9.01988e-16)
(0.873856 -1.93135e-15 6.41992e-16)
(0.873856 -1.95816e-16 9.08531e-16)
(0.877416 -1.92446e-15 6.46602e-16)
(0.877416 -2.03923e-16 9.14666e-16)
(0.880932 -1.91896e-15 6.50719e-16)
(0.880932 -2.12059e-16 9.20714e-16)
(0.884406 -1.91331e-15 6.54971e-16)
(0.884406 -2.18113e-16 9.26337e-16)
(0.887836 -1.90385e-15 6.59305e-16)
(0.887836 -2.28338e-16 9.31756e-16)
(0.891224 -1.8926e-15 6.64096e-16)
(0.891224 -2.38733e-16 9.36692e-16)
(0.89457 -1.88117e-15 6.68658e-16)
(0.89457 -2.49516e-16 9.41907e-16)
(0.897874 -1.87042e-15 6.7285e-16)
(0.897874 -2.62942e-16 9.47006e-16)
(0.901136 -1.86182e-15 6.76319e-16)
(0.901136 -2.7015e-16 9.52343e-16)
(0.904356 -1.85714e-15 6.7971e-16)
(0.904356 -2.71958e-16 9.56953e-16)
(0.907535 -1.84489e-15 6.84201e-16)
(0.907535 -2.80897e-16 9.60346e-16)
(0.910673 -1.82789e-15 6.8728e-16)
(0.910673 -2.89468e-16 9.64022e-16)
(0.91377 -1.81399e-15 6.90504e-16)
(0.91377 -2.94584e-16 9.67773e-16)
(0.916826 -1.80416e-15 6.93043e-16)
(0.916826 -3.05306e-16 9.72133e-16)
(0.919841 -1.79928e-15 6.94397e-16)
(0.919841 -3.14823e-16 9.7541e-16)
(0.922817 -1.791e-15 6.96955e-16)
(0.922817 -3.20262e-16 9.77056e-16)
(0.925752 -1.78274e-15 6.97792e-16)
(0.925752 -3.2625e-16 9.7871e-16)
(0.928648 -1.7717e-15 6.98221e-16)
(0.928648 -3.36891e-16 9.78799e-16)
(0.931504 -1.75997e-15 6.98581e-16)
(0.931504 -3.45106e-16 9.79244e-16)
(0.93432 -1.74611e-15 6.98815e-16)
(0.93432 -3.55782e-16 9.79158e-16)
(0.937097 -1.72977e-15 6.98078e-16)
(0.937097 -3.67015e-16 9.78757e-16)
(0.939835 -1.71781e-15 6.96766e-16)
(0.939835 -3.74145e-16 9.77949e-16)
(0.942533 -1.71071e-15 6.94901e-16)
(0.942533 -3.84832e-16 9.7653e-16)
(0.945193 -1.68758e-15 6.93827e-16)
(0.945193 -3.9381e-16 9.73638e-16)
(0.947815 -1.67177e-15 6.92167e-16)
(0.947815 -4.02289e-16 9.70899e-16)
(0.950397 -1.65537e-15 6.89792e-16)
(0.950397 -4.14339e-16 9.67876e-16)
(0.952942 -1.63617e-15 6.87052e-16)
(0.952942 -4.28084e-16 9.64121e-16)
(0.955447 -1.62093e-15 6.82953e-16)
(0.955447 -4.38357e-16 9.60168e-16)
(0.957915 -1.60819e-15 6.77303e-16)
(0.957915 -4.50325e-16 9.55271e-16)
(0.960345 -1.59817e-15 6.71141e-16)
(0.960345 -4.56477e-16 9.48347e-16)
(0.962736 -1.58325e-15 6.65323e-16)
(0.962736 -4.62928e-16 9.39876e-16)
(0.96509 -1.56723e-15 6.59065e-16)
(0.96509 -4.82776e-16 9.31659e-16)
(0.967405 -1.55057e-15 6.52621e-16)
(0.967405 -5.01729e-16 9.23075e-16)
(0.969683 -1.53463e-15 6.45447e-16)
(0.969683 -5.15427e-16 9.14096e-16)
(0.971923 -1.51984e-15 6.36911e-16)
(0.971923 -5.31313e-16 9.03914e-16)
(0.974125 -1.49866e-15 6.29019e-16)
(0.974125 -5.4762e-16 8.92706e-16)
(0.97629 -1.47887e-15 6.20202e-16)
(0.97629 -5.66478e-16 8.81844e-16)
(0.978416 -1.45933e-15 6.11913e-16)
(0.978416 -5.84296e-16 8.70774e-16)
(0.980505 -1.4418e-15 6.02204e-16)
(0.980505 -5.98129e-16 8.60107e-16)
(0.982557 -1.42848e-15 5.91282e-16)
(0.982557 -6.15001e-16 8.4801e-16)
(0.98457 -1.41772e-15 5.80015e-16)
(0.98457 -6.28771e-16 8.34561e-16)
(0.986545 -1.40433e-15 5.687e-16)
(0.986545 -6.39716e-16 8.20368e-16)
(0.988483 -1.3855e-15 5.57989e-16)
(0.988483 -6.49075e-16 8.05184e-16)
(0.990382 -1.36917e-15 5.46203e-16)
(0.990382 -6.60606e-16 7.91039e-16)
(0.992244 -1.3495e-15 5.34668e-16)
(0.992244 -6.76748e-16 7.89229e-16)
(0.994067 -1.32838e-15 5.23168e-16)
(0.994067 -6.90879e-16 7.88661e-16)
(0.995852 -1.30948e-15 5.2235e-16)
(0.995852 -7.01315e-16 7.8751e-16)
(0.997598 -1.29155e-15 5.27385e-16)
(0.997598 -7.12749e-16 7.86502e-16)
(0.999306 -1.27166e-15 5.34349e-16)
(0.999306 -7.12599e-16 7.85239e-16)
(1.00097 -1.25247e-15 5.36807e-16)
(1.00097 -7.15303e-16 7.86262e-16)
(1.0026 -1.24067e-15 5.4218e-16)
(1.0026 -7.30015e-16 7.83902e-16)
(1.0042 -1.22412e-15 5.4831e-16)
(1.0042 -7.31558e-16 7.81659e-16)
(1.00575 -1.19637e-15 5.58741e-16)
(1.00575 -7.36366e-16 7.79533e-16)
(1.00726 -1.16192e-15 5.68604e-16)
(1.00726 -7.46862e-16 7.81298e-16)
(1.00873 -1.13668e-15 5.77341e-16)
(1.00873 -7.52171e-16 7.84497e-16)
(1.01016 -1.11878e-15 5.87407e-16)
(1.01016 -7.52953e-16 7.86395e-16)
(1.01155 -1.09968e-15 5.97602e-16)
(1.01155 -7.54386e-16 7.88124e-16)
(1.01291 -1.08343e-15 6.04862e-16)
(1.01291 -7.69669e-16 7.92591e-16)
(1.01422 -1.07671e-15 6.13142e-16)
(1.01422 -7.8383e-16 7.94932e-16)
(1.01548 -1.07104e-15 6.2165e-16)
(1.01548 -7.88259e-16 7.947e-16)
(1.01671 -1.06198e-15 6.27899e-16)
(1.01671 -8.02077e-16 7.95194e-16)
(1.0179 -1.05435e-15 6.35293e-16)
(1.0179 -8.15302e-16 7.96324e-16)
(1.01904 -1.03918e-15 6.41718e-16)
(1.01904 -8.19647e-16 7.99964e-16)
(1.02015 -1.02596e-15 6.48606e-16)
(1.02015 -8.321e-16 8.0457e-16)
(1.02121 -1.0209e-15 6.52764e-16)
(1.02121 -8.24502e-16 8.07567e-16)
(1.02223 -1.01711e-15 6.6333e-16)
(1.02223 -8.16935e-16 8.03217e-16)
(1.0232 -1.00753e-15 6.72146e-16)
(1.0232 -8.20089e-16 8.01475e-16)
(1.02414 -9.93981e-16 6.76702e-16)
(1.02414 -8.20098e-16 8.00462e-16)
(1.02503 -9.85581e-16 6.78946e-16)
(1.02503 -8.29116e-16 7.99776e-16)
(1.02588 -9.75855e-16 6.86135e-16)
(1.02588 -8.28477e-16 7.96565e-16)
(1.02669 -9.62203e-16 6.90781e-16)
(1.02669 -8.16999e-16 7.94502e-16)
(1.02746 -9.545e-16 6.91888e-16)
(1.02746 -8.13142e-16 7.90088e-16)
(1.02818 -9.47776e-16 6.88229e-16)
(1.02818 -8.08728e-16 7.81916e-16)
(1.02887 -9.44026e-16 6.83749e-16)
(1.02887 -7.90912e-16 7.66493e-16)
(1.02952 -9.43954e-16 6.74751e-16)
(1.02952 -7.84301e-16 7.54354e-16)
(1.03012 -9.44112e-16 6.6912e-16)
(1.03012 -7.89329e-16 7.3615e-16)
(1.0307 -9.38028e-16 6.61343e-16)
(1.0307 -7.86559e-16 7.19145e-16)
(1.03123 -9.26124e-16 6.48849e-16)
(1.03123 -7.73956e-16 7.00669e-16)
(1.03173 -9.12272e-16 6.37483e-16)
(1.03173 -7.8028e-16 6.76112e-16)
(1.03219 -9.04069e-16 6.24866e-16)
(1.03219 -7.8202e-16 6.55128e-16)
(1.03263 -9.1109e-16 6.08833e-16)
(1.03263 -7.65345e-16 6.35835e-16)
(1.03303 -9.11134e-16 5.94551e-16)
(1.03303 -7.53373e-16 6.1307e-16)
(1.0334 -9.06332e-16 5.80554e-16)
(1.0334 -7.57676e-16 5.84111e-16)
(1.03375 -8.93667e-16 5.66949e-16)
(1.03375 -7.55085e-16 5.53117e-16)
(1.03407 -8.73624e-16 5.48278e-16)
(1.03407 -7.50617e-16 5.35512e-16)
(1.03437 -8.63365e-16 5.32175e-16)
(1.03437 -7.52296e-16 5.13476e-16)
(1.03465 -8.41399e-16 5.19717e-16)
(1.03465 -7.44305e-16 4.85237e-16)
(1.03491 -8.13885e-16 5.03634e-16)
(1.03491 -7.40861e-16 4.72122e-16)
(1.03515 -8.04391e-16 4.9108e-16)
(1.03515 -7.33108e-16 4.51249e-16)
(1.03537 -8.051e-16 4.7167e-16)
(1.03537 -7.24337e-16 4.48595e-16)
(1.03558 -7.9343e-16 4.62824e-16)
(1.03558 -7.35437e-16 4.41136e-16)
(1.03578 -7.79348e-16 4.479e-16)
(1.03578 -7.34737e-16 4.35674e-16)
(1.03596 -7.65401e-16 4.37407e-16)
(1.03596 -7.44172e-16 4.31857e-16)
(1.03614 -7.40061e-16 4.25849e-16)
(1.03614 -7.72237e-16 4.22583e-16)
(1.0363 -7.29467e-16 4.16593e-16)
(1.0363 -7.7081e-16 4.08166e-16)
(1.03646 -7.45194e-16 4.02113e-16)
(1.03646 -7.54629e-16 4.04743e-16)
(1.03661 -7.45526e-16 3.97402e-16)
(1.03661 -7.57433e-16 3.87752e-16)
(1.03676 -7.4102e-16 3.90075e-16)
(1.03676 -7.75805e-16 3.8127e-16)
(1.0369 -7.41572e-16 3.75397e-16)
(1.0369 -7.76789e-16 3.71575e-16)
(1.03703 -7.20481e-16 3.78882e-16)
(1.03703 -7.58918e-16 3.60359e-16)
(1.03716 -7.07076e-16 3.70875e-16)
(1.03716 -7.35602e-16 3.63353e-16)
(1.03729 -7.02932e-16 3.5991e-16)
(1.03729 -7.15876e-16 3.5996e-16)
(1.03742 -6.98199e-16 3.51455e-16)
(1.03742 -7.01022e-16 3.43773e-16)
(1.03755 -6.94774e-16 3.38484e-16)
(1.03755 -6.95491e-16 3.38791e-16)
(1.03767 -6.91365e-16 3.29638e-16)
(1.03767 -6.90254e-16 3.30833e-16)
(1.0378 -6.8261e-16 3.23977e-16)
(1.0378 -6.84449e-16 3.31065e-16)
(1.03792 -6.73174e-16 3.18156e-16)
(1.03792 -6.7101e-16 3.27827e-16)
(1.03804 -6.66487e-16 3.07968e-16)
(1.03804 -6.70174e-16 3.11308e-16)
(1.03817 -6.69105e-16 2.9714e-16)
(1.03817 -6.68671e-16 3.05612e-16)
(1.03829 -6.73834e-16 2.9585e-16)
(1.03829 -6.65264e-16 2.98682e-16)
(1.03842 -6.75223e-16 2.76057e-16)
(1.03842 -6.63682e-16 2.96963e-16)
(1.03855 -6.75828e-16 2.65233e-16)
(1.03855 -6.63516e-16 2.84184e-16)
(1.03868 -6.77867e-16 2.70856e-16)
(1.03868 -6.60521e-16 2.67944e-16)
(1.03881 -6.81894e-16 2.70095e-16)
(1.03881 -6.65353e-16 2.52266e-16)
(1.03894 -6.78487e-16 2.62597e-16)
(1.03894 -6.77329e-16 2.24113e-16)
(1.03907 -6.74026e-16 2.50633e-16)
(1.03907 -6.62372e-16 2.17623e-16)
(1.03921 -6.71089e-16 2.37941e-16)
(1.03921 -6.5638e-16 2.12394e-16)
(1.03934 -6.54739e-16 2.39192e-16)
(1.03934 -6.64785e-16 2.22431e-16)
(1.03948 -6.37775e-16 2.33298e-16)
(1.03948 -6.50274e-16 2.21328e-16)
(1.03962 -6.42248e-16 2.19673e-16)
(1.03962 -6.51134e-16 2.13843e-16)
(1.03977 -6.26202e-16 2.27459e-16)
(1.03977 -6.60329e-16 2.10509e-16)
(1.03991 -6.09592e-16 2.22086e-16)
(1.03991 -6.55758e-16 2.35856e-16)
(1.04006 -6.28411e-16 2.00803e-16)
(1.04006 -6.53305e-16 2.45687e-16)
(1.04021 -6.36673e-16 2.01639e-16)
(1.04021 -6.55792e-16 2.17702e-16)
(1.04036 -6.46547e-16 1.86311e-16)
(1.04036 -6.57309e-16 1.97282e-16)
(1.04051 -6.70049e-16 1.90646e-16)
(1.04051 -6.5081e-16 1.85743e-16)
(1.04067 -6.71344e-16 1.85529e-16)
(1.04067 -6.34714e-16 2.00174e-16)
(1.04083 -6.5345e-16 1.84573e-16)
(1.04083 -6.21132e-16 1.81117e-16)
(1.04099 -6.46501e-16 1.86888e-16)
(1.04099 -6.28186e-16 1.98611e-16)
(1.04115 -6.46507e-16 1.80582e-16)
(1.04115 -6.65843e-16 1.85433e-16)
(1.04131 -6.48134e-16 1.80917e-16)
(1.04131 -6.7037e-16 1.93893e-16)
(1.04148 -6.4804e-16 1.8716e-16)
(1.04148 -6.76406e-16 2.07744e-16)
(1.04164 -6.40584e-16 1.94103e-16)
(1.04164 -6.64098e-16 2.14923e-16)
(1.04181 -6.40445e-16 1.96904e-16)
(1.04181 -6.46908e-16 2.11228e-16)
(1.04198 -6.60865e-16 1.84664e-16)
(1.04198 -6.33802e-16 2.13226e-16)
(1.04215 -6.75309e-16 1.77514e-16)
(1.04215 -6.24251e-16 1.92895e-16)
(1.04232 -6.541e-16 1.76779e-16)
(1.04232 -6.21588e-16 1.74552e-16)
(1.0425 -6.57145e-16 1.87672e-16)
(1.0425 -6.45879e-16 1.77643e-16)
(1.04267 -6.72272e-16 1.91e-16)
(1.04267 -6.72661e-16 1.76451e-16)
(1.04284 -6.66018e-16 1.62929e-16)
(1.04284 -6.55944e-16 1.89206e-16)
(1.04302 -6.6367e-16 1.70365e-16)
(1.04302 -6.61659e-16 1.61463e-16)
(1.04319 -6.85965e-16 1.65742e-16)
(1.04319 -6.65141e-16 1.41001e-16)
(1.04337 -6.65995e-16 1.67394e-16)
(1.04337 -6.31181e-16 1.98728e-16)
(1.04354 -6.46794e-16 1.35375e-16)
(1.04354 -6.29595e-16 1.72522e-16)
(1.04372 -6.17952e-16 1.45339e-16)
(1.04372 -6.10095e-16 1.9361e-16)
(1.04389 -5.8542e-16 1.61922e-16)
(1.04389 -5.84995e-16 1.95015e-16)
(1.04407 -5.70193e-16 1.73617e-16)
(1.04407 -5.80119e-16 1.37348e-16)
(1.04424 -5.54749e-16 1.67416e-16)
(1.04424 -5.75339e-16 1.43735e-16)
(1.04441 -5.24348e-16 1.91485e-16)
(1.04441 -5.47397e-16 1.93423e-16)
(1.04458 -4.79741e-16 1.86697e-16)
(1.04458 -5.33207e-16 1.46554e-16)
(1.04475 -4.56705e-16 1.87779e-16)
(1.04475 -4.95835e-16 1.68624e-16)
(1.04491 -4.32944e-16 1.78145e-16)
(1.04491 -4.88702e-16 2.0966e-16)
(1.04507 -4.11565e-16 1.8855e-16)
(1.04507 -4.35984e-16 1.93804e-16)
(1.04523 -4.16844e-16 1.79125e-16)
(1.04523 -4.20582e-16 1.9382e-16)
(1.04539 -4.29707e-16 1.57412e-16)
(1.04539 -4.0884e-16 1.88381e-16)
(1.04554 -4.1699e-16 1.76274e-16)
(1.04554 -3.83514e-16 2.11878e-16)
(1.04569 -4.18032e-16 1.77771e-16)
(1.04569 -3.91935e-16 1.51083e-16)
(1.04583 -4.17158e-16 1.56309e-16)
(1.04583 -4.06417e-16 1.48102e-16)
(1.04597 -3.9876e-16 1.73697e-16)
(1.04597 -4.01112e-16 1.23284e-16)
(1.0461 -3.96428e-16 1.51889e-16)
(1.0461 -3.69108e-16 1.0736e-16)
(1.04622 -3.70699e-16 1.31164e-16)
(1.04622 -3.48141e-16 1.07517e-16)
(1.04634 -3.49849e-16 9.84655e-17)
(1.04634 -3.35803e-16 1.32302e-16)
(1.04645 -3.38716e-16 1.04386e-16)
(1.04645 -3.31536e-16 1.48411e-16)
(1.04656 -3.51406e-16 7.63278e-17)
(1.04656 -3.59001e-16 1.54113e-16)
(1.04665 -3.39004e-16 1.00569e-16)
(1.04665 -3.76549e-16 7.1414e-17)
(1.04674 -2.99404e-16 1.07963e-16)
(1.04674 -3.27978e-16 1.55952e-16)
(1.04681 -2.92178e-16 8.72414e-17)
(1.04681 -3.26128e-16 1.52883e-16)
(1.04688 -2.8123e-16 8.23852e-17)
(1.04688 -3.09026e-16 1.91222e-16)
(1.04693 -2.91236e-16 7.38804e-17)
(1.04693 -3.06618e-16 1.71094e-16)
(1.04698 -2.94634e-16 7.54111e-17)
(1.04698 -2.67583e-16 2.87739e-16)
(1.047 -2.6709e-16 9.80639e-17)
(1.047 -2.91131e-16 2.42838e-16)
(1.04702 -2.70474e-16 9.36059e-17)
(1.04702 -2.85738e-16 2.09799e-16)
(0.00215107 -2.17759e-19 -2.51055e-18)
(0.00215107 -6.23807e-20 -4.02363e-19)
(0.00648365 5.2504e-19 -1.69419e-17)
(0.00648365 1.80416e-19 -4.78389e-18)
(0.0108778 6.65513e-19 -1.7429e-17)
(0.0108778 2.38186e-19 -4.93328e-18)
(0.0153335 1.06375e-18 -1.79247e-17)
(0.0153335 3.77228e-19 -5.09254e-18)
(0.0198508 1.46696e-18 -1.84288e-17)
(0.0198508 5.30768e-19 -5.26245e-18)
(0.0244299 1.87167e-18 -1.89413e-17)
(0.0244299 6.93264e-19 -5.44365e-18)
(0.0290707 2.2893e-18 -1.9462e-17)
(0.0290707 8.50523e-19 -5.63665e-18)
(0.0337732 2.71167e-18 -1.99908e-17)
(0.0337732 1.03458e-18 -5.8426e-18)
(0.0385375 3.13647e-18 -2.0528e-17)
(0.0385375 1.21185e-18 -6.06179e-18)
(0.0433636 3.57008e-18 -2.10738e-17)
(0.0433636 1.4024e-18 -6.29445e-18)
(0.0482515 4.02451e-18 -2.16276e-17)
(0.0482515 1.61146e-18 -6.54164e-18)
(0.0532012 4.48643e-18 -2.21896e-17)
(0.0532012 1.80203e-18 -6.80377e-18)
(0.0582128 4.94061e-18 -2.27592e-17)
(0.0582128 2.0044e-18 -7.08175e-18)
(0.0632862 5.39618e-18 -2.33365e-17)
(0.0632862 2.19535e-18 -7.37603e-18)
(0.0684215 5.8605e-18 -2.39207e-17)
(0.0684215 2.41986e-18 -7.68826e-18)
(0.0736187 6.33706e-18 -2.45124e-17)
(0.0736187 2.71024e-18 -8.01934e-18)
(0.0788778 6.82996e-18 -2.51112e-17)
(0.0788778 3.04264e-18 -8.3704e-18)
(0.0841988 7.30315e-18 -2.57177e-17)
(0.0841988 3.32742e-18 -8.74096e-18)
(0.0895818 7.78109e-18 -2.63312e-17)
(0.0895818 3.63029e-18 -9.133e-18)
(0.0950268 8.31385e-18 -2.69513e-17)
(0.0950268 3.941e-18 -9.54596e-18)
(0.100534 8.87645e-18 -2.75778e-17)
(0.100534 4.17649e-18 -9.97998e-18)
(0.106103 9.46446e-18 -2.82088e-17)
(0.106103 4.40392e-18 -1.04377e-17)
(0.111734 1.01147e-17 -2.88439e-17)
(0.111734 4.6401e-18 -1.0921e-17)
(0.117428 1.07528e-17 -2.94825e-17)
(0.117428 4.89131e-18 -1.14314e-17)
(0.123183 1.1334e-17 -3.01259e-17)
(0.123183 5.22281e-18 -1.19672e-17)
(0.129001 1.18764e-17 -3.07727e-17)
(0.129001 5.54458e-18 -1.25291e-17)
(0.134881 1.22884e-17 -3.14211e-17)
(0.134881 5.84645e-18 -1.31208e-17)
(0.140824 1.26381e-17 -3.20743e-17)
(0.140824 6.25999e-18 -1.37422e-17)
(0.146829 1.30698e-17 -3.27319e-17)
(0.146829 6.72103e-18 -1.43992e-17)
(0.152896 1.35294e-17 -3.33942e-17)
(0.152896 7.1654e-18 -1.50915e-17)
(0.159026 1.39739e-17 -3.40614e-17)
(0.159026 7.60293e-18 -1.5814e-17)
(0.165218 1.44232e-17 -3.47322e-17)
(0.165218 8.15332e-18 -1.65646e-17)
(0.171472 1.49064e-17 -3.5406e-17)
(0.171472 8.59864e-18 -1.73508e-17)
(0.177788 1.55669e-17 -3.60813e-17)
(0.177788 8.81052e-18 -1.81769e-17)
(0.184167 1.63128e-17 -3.67551e-17)
(0.184167 9.28992e-18 -1.9039e-17)
(0.190607 1.69936e-17 -3.74287e-17)
(0.190607 9.75384e-18 -1.99387e-17)
(0.197109 1.76684e-17 -3.81e-17)
(0.197109 1.01155e-17 -2.08751e-17)
(0.203671 1.82564e-17 -3.87673e-17)
(0.203671 1.05469e-17 -2.18548e-17)
(0.210295 1.89305e-17 -3.9433e-17)
(0.210295 1.09653e-17 -2.28744e-17)
(0.216978 1.97113e-17 -4.00915e-17)
(0.216978 1.14785e-17 -2.39261e-17)
(0.223721 2.05562e-17 -4.07385e-17)
(0.223721 1.19987e-17 -2.50211e-17)
(0.230523 2.13841e-17 -4.137e-17)
(0.230523 1.23149e-17 -2.61598e-17)
(0.237382 2.20127e-17 -4.19846e-17)
(0.237382 1.25264e-17 -2.7344e-17)
(0.244297 2.2725e-17 -4.25807e-17)
(0.244297 1.30042e-17 -2.85685e-17)
(0.251268 2.34823e-17 -4.3154e-17)
(0.251268 1.3487e-17 -2.98415e-17)
(0.258292 2.42443e-17 -4.37082e-17)
(0.258292 1.42941e-17 -3.11512e-17)
(0.265368 2.48189e-17 -4.42379e-17)
(0.265368 1.52173e-17 -3.25039e-17)
(0.272494 2.54075e-17 -4.47469e-17)
(0.272494 1.58152e-17 -3.39029e-17)
(0.279668 2.61122e-17 -4.52295e-17)
(0.279668 1.6435e-17 -3.53488e-17)
(0.286888 2.66551e-17 -4.56861e-17)
(0.286888 1.74246e-17 -3.68375e-17)
(0.294151 2.72957e-17 -4.61131e-17)
(0.294151 1.82983e-17 -3.83694e-17)
(0.301455 2.77191e-17 -4.65086e-17)
(0.301455 1.87701e-17 -3.99208e-17)
(0.308797 2.83496e-17 -4.68693e-17)
(0.308797 1.90919e-17 -4.15069e-17)
(0.316174 2.91238e-17 -4.71873e-17)
(0.316174 1.97657e-17 -4.31234e-17)
(0.323582 2.97236e-17 -4.74658e-17)
(0.323582 2.09343e-17 -4.47718e-17)
(0.331019 3.06395e-17 -4.76973e-17)
(0.331019 2.17141e-17 -4.64635e-17)
(0.338481 3.17123e-17 -4.78799e-17)
(0.338481 2.20151e-17 -4.81739e-17)
(0.345964 3.25907e-17 -4.80016e-17)
(0.345964 2.25609e-17 -4.99097e-17)
(0.353465 3.30838e-17 -4.80706e-17)
(0.353465 2.32806e-17 -5.16852e-17)
(0.360981 3.34444e-17 -4.81003e-17)
(0.360981 2.41265e-17 -5.34894e-17)
(0.368507 3.40172e-17 -4.80879e-17)
(0.368507 2.50002e-17 -5.53204e-17)
(0.376039 3.47035e-17 -4.8033e-17)
(0.376039 2.58721e-17 -5.71596e-17)
(0.383575 3.53007e-17 -5.11846e-17)
(0.383575 2.65939e-17 -5.90258e-17)
(0.391111 3.58163e-17 -5.6884e-17)
(0.391111 2.74043e-17 -6.09189e-17)
(0.398642 3.60165e-17 -6.26024e-17)
(0.398642 2.83055e-17 -6.2836e-17)
(0.406166 3.64226e-17 -6.83441e-17)
(0.406166 2.87163e-17 -6.4782e-17)
(0.413678 3.7377e-17 -7.407e-17)
(0.413678 2.98956e-17 -6.67134e-17)
(0.421176 3.78381e-17 -7.98178e-17)
(0.421176 3.14598e-17 -6.8682e-17)
(0.428657 3.8343e-17 -8.55761e-17)
(0.428657 3.22449e-17 -7.06745e-17)
(0.436116 3.93156e-17 -9.13138e-17)
(0.436116 3.29696e-17 -7.26641e-17)
(0.443552 4.02739e-17 -9.70681e-17)
(0.443552 3.38373e-17 -7.46832e-17)
(0.450961 4.13372e-17 -1.02807e-16)
(0.450961 3.47083e-17 -7.66969e-17)
(0.458342 4.2065e-17 -1.0853e-16)
(0.458342 3.56694e-17 -7.87112e-17)
(0.46569 4.3017e-17 -1.14278e-16)
(0.46569 3.66577e-17 -8.07544e-17)
(0.473005 4.395e-17 -1.19997e-16)
(0.473005 3.74694e-17 -8.28287e-17)
(0.480283 4.43386e-17 -1.25702e-16)
(0.480283 3.84108e-17 -8.49418e-17)
(0.487523 4.4657e-17 -1.31375e-16)
(0.487523 4.00616e-17 -8.70257e-17)
(0.494723 4.52506e-17 -1.37054e-16)
(0.494723 4.0864e-17 -8.91457e-17)
(0.501881 4.62327e-17 -1.42728e-16)
(0.501881 4.14526e-17 -9.13344e-17)
(0.508995 4.73506e-17 -1.48346e-16)
(0.508995 4.20996e-17 -9.34904e-17)
(0.516064 4.77353e-17 -1.53967e-16)
(0.516064 4.2209e-17 -9.56693e-17)
(0.523087 4.77576e-17 -1.5958e-16)
(0.523087 4.25029e-17 -9.78027e-17)
(0.530062 4.82444e-17 -1.65191e-16)
(0.530062 4.3449e-17 -9.99435e-17)
(0.536989 4.77903e-17 -1.70743e-16)
(0.536989 4.4581e-17 -1.02109e-16)
(0.543866 4.74132e-17 -1.76267e-16)
(0.543866 4.45343e-17 -1.04316e-16)
(0.550692 4.78171e-17 -1.81756e-16)
(0.550692 4.58779e-17 -1.06518e-16)
(0.557467 4.85174e-17 -1.8728e-16)
(0.557467 4.72204e-17 -1.09425e-16)
(0.56419 4.90408e-17 -1.92709e-16)
(0.56419 4.79968e-17 -1.12273e-16)
(0.57086 4.85266e-17 -1.98059e-16)
(0.57086 5.00494e-17 -1.15174e-16)
(0.577477 4.83424e-17 -2.03445e-16)
(0.577477 5.08597e-17 -1.18172e-16)
(0.584041 4.86373e-17 -2.08758e-16)
(0.584041 5.19679e-17 -1.21163e-16)
(0.59055 4.92032e-17 -2.13996e-16)