/*--------------------------------*- C++ -*----------------------------------*\
| =========                 |                                                 |
| \\      /  F ield         | OpenFOAM: The Open Source CFD Toolbox           |
|  \\    /   O peration     | Version:  2012                                  |
|   \\  /    A nd           | Website:  www.openfoam.com                      |
|    \\/     M anipulation  |                                                 |
\*---------------------------------------------------------------------------*/
FoamFile
{
    version     2.0;
    format      ascii;
    class       surfaceScalarField;
    location    "11200";
    object      phi;
}
// * * * * * * * * * * * * * * * * * * * * * * * * * * * * * * * * * * * * * //

dimensions      [0 3 -1 0 0 0 0];
oriented        oriented;


internalField   nonuniform List<scalar> 
5116
(
1.91454e-07
-2.00696e-08
6.70635e-09
2.00569e-08
-6.67888e-09
5.7317e-07
-4.99425e-08
9.98123e-09
4.99062e-08
-9.94035e-09
9.64509e-07
-7.34087e-08
7.8432e-09
7.3362e-08
-7.81108e-09
1.37008e-06
-8.67775e-08
4.47339e-09
8.67406e-08
-4.45507e-09
1.79289e-06
-9.40203e-08
2.42167e-09
9.39826e-08
-2.41175e-09
2.2332e-06
-9.84388e-08
1.47266e-09
9.83862e-08
-1.46663e-09
2.69057e-06
-1.01465e-07
1.01089e-09
1.0141e-07
-1.00675e-09
3.16466e-06
-1.03739e-07
7.57778e-10
1.03675e-07
-7.54674e-10
3.65521e-06
-1.05545e-07
6.03712e-10
1.05479e-07
-6.0124e-10
4.16257e-06
-1.07056e-07
5.02195e-10
1.06986e-07
-5.00138e-10
4.68771e-06
-1.0834e-07
4.31227e-10
1.08274e-07
-4.29461e-10
5.23121e-06
-1.09456e-07
3.79348e-10
1.09415e-07
-3.77794e-10
5.7937e-06
-1.10496e-07
3.40089e-10
1.10439e-07
-3.38697e-10
6.37615e-06
-1.11452e-07
3.09379e-10
1.11354e-07
-3.08111e-10
6.97887e-06
-1.12302e-07
2.85342e-10
1.12217e-07
-2.84173e-10
7.60143e-06
-1.13091e-07
2.6535e-10
1.13e-07
-2.64262e-10
8.24292e-06
-1.13835e-07
2.49752e-10
1.1375e-07
-2.4873e-10
8.90231e-06
-1.14542e-07
2.36384e-10
1.14461e-07
-2.35416e-10
9.57981e-06
-1.15217e-07
2.25391e-10
1.15135e-07
-2.24468e-10
1.02777e-05
-1.15864e-07
2.15956e-10
1.15779e-07
-2.15072e-10
1.09993e-05
-1.16488e-07
2.0816e-10
1.16408e-07
-2.07308e-10
1.17469e-05
-1.17092e-07
2.0136e-10
1.17012e-07
-2.00536e-10
1.25211e-05
-1.17678e-07
1.95764e-10
1.17608e-07
-1.94964e-10
1.33222e-05
-1.18248e-07
1.90309e-10
1.18173e-07
-1.89529e-10
1.41502e-05
-1.18808e-07
1.86849e-10
1.18742e-07
-1.86085e-10
1.50057e-05
-1.19355e-07
1.82727e-10
1.19273e-07
-1.81978e-10
1.5889e-05
-1.19895e-07
1.80546e-10
1.19819e-07
-1.7981e-10
1.68e-05
-1.20428e-07
1.77974e-10
1.20352e-07
-1.77247e-10
1.77383e-05
-1.20955e-07
1.76252e-10
1.2088e-07
-1.75533e-10
1.87036e-05
-1.21478e-07
1.74509e-10
1.21409e-07
-1.73797e-10
1.96965e-05
-1.21997e-07
1.73562e-10
1.2193e-07
-1.72856e-10
2.07191e-05
-1.22514e-07
1.72517e-10
1.22445e-07
-1.71814e-10
2.17768e-05
-1.23029e-07
1.72206e-10
1.22967e-07
-1.71506e-10
2.28771e-05
-1.23543e-07
1.71763e-10
1.23487e-07
-1.71064e-10
2.40287e-05
-1.24058e-07
1.71992e-10
1.24011e-07
-1.71294e-10
2.52403e-05
-1.24571e-07
1.71214e-10
1.24524e-07
-1.70515e-10
2.65184e-05
-1.25087e-07
1.72819e-10
1.25065e-07
-1.72118e-10
2.78677e-05
-1.25595e-07
1.69508e-10
1.25543e-07
-1.68805e-10
2.92901e-05
-1.26117e-07
1.74707e-10
1.26105e-07
-1.74e-10
3.07866e-05
-1.26629e-07
1.7054e-10
1.26572e-07
-1.69829e-10
3.23582e-05
-1.27159e-07
1.77651e-10
1.27142e-07
-1.76935e-10
3.40095e-05
-1.27684e-07
1.74973e-10
1.2763e-07
-1.74251e-10
3.5751e-05
-1.28227e-07
1.81586e-10
1.28196e-07
-1.80857e-10
3.76024e-05
-1.28772e-07
1.8182e-10
1.28726e-07
-1.81084e-10
3.95931e-05
-1.29329e-07
1.86413e-10
1.29292e-07
-1.85669e-10
4.17593e-05
-1.29893e-07
1.88181e-10
1.29861e-07
-1.87427e-10
4.41401e-05
-1.30467e-07
1.92107e-10
1.30445e-07
-1.91343e-10
4.67725e-05
-1.31049e-07
1.93812e-10
1.31038e-07
-1.93038e-10
4.96882e-05
-1.31642e-07
1.98719e-10
1.31676e-07
-1.97933e-10
5.29131e-05
-1.32203e-07
1.86811e-10
1.32183e-07
-1.86013e-10
5.64685e-05
-1.3282e-07
2.06724e-10
1.32926e-07
-2.05912e-10
6.0368e-05
-1.33433e-07
2.0439e-10
1.3333e-07
-2.03564e-10
6.46091e-05
-1.34079e-07
2.15972e-10
1.34059e-07
-2.15131e-10
6.91565e-05
-1.34735e-07
2.18705e-10
1.34696e-07
-2.17848e-10
7.39179e-05
-1.35412e-07
2.26462e-10
1.35363e-07
-2.25588e-10
7.87168e-05
-1.36095e-07
2.28051e-10
1.36029e-07
-2.27159e-10
8.32722e-05
-1.36808e-07
2.38296e-10
1.36733e-07
-2.37384e-10
8.71973e-05
-1.37521e-07
2.37751e-10
1.37438e-07
-2.36819e-10
9.00259e-05
-1.38273e-07
2.51452e-10
1.38188e-07
-2.505e-10
9.12709e-05
-1.3902e-07
2.4923e-10
1.38935e-07
-2.48255e-10
9.05053e-05
-1.39816e-07
2.6588e-10
1.39729e-07
-2.64883e-10
8.74483e-05
-1.40608e-07
2.64715e-10
1.40503e-07
-2.63694e-10
8.20326e-05
-1.41453e-07
2.8199e-10
1.41339e-07
-2.80944e-10
7.44329e-05
-1.42307e-07
2.85428e-10
1.42197e-07
-2.84354e-10
6.50457e-05
-1.4321e-07
3.00942e-10
1.43071e-07
-2.99838e-10
5.44266e-05
-1.44137e-07
3.10227e-10
1.43973e-07
-3.09089e-10
4.32054e-05
-1.45077e-07
3.13446e-10
1.44912e-07
-3.12269e-10
3.20004e-05
-1.46061e-07
3.28859e-10
1.45878e-07
-3.27639e-10
2.13495e-05
-1.47057e-07
3.32259e-10
1.46804e-07
-3.30993e-10
1.16714e-05
-1.48109e-07
3.51799e-10
1.47821e-07
-3.50482e-10
3.25491e-06
-1.4918e-07
3.57143e-10
1.48819e-07
-3.55771e-10
-3.72926e-06
-1.50311e-07
3.78471e-10
1.50668e-07
-3.77041e-10
-9.20579e-06
-1.5031e-07
-2.48174e-13
1.50014e-07
1.73947e-12
-1.31676e-05
-1.50316e-07
3.45781e-12
1.50066e-07
-1.9022e-12
-1.56564e-05
-1.50315e-07
-1.73172e-13
1.50093e-07
1.79578e-12
-1.67454e-05
-1.50319e-07
2.83392e-12
1.50122e-07
-1.14179e-12
-1.65302e-05
-1.50317e-07
-1.30881e-13
1.50135e-07
1.89504e-12
-1.51225e-05
-1.50319e-07
2.0246e-12
1.50156e-07
-1.85843e-13
-1.26453e-05
-1.50317e-07
-1.15099e-13
1.50165e-07
2.03119e-12
-9.22677e-06
-1.50316e-07
1.26504e-12
1.5018e-07
7.31339e-13
-4.99521e-06
-1.50314e-07
-1.15642e-13
1.50184e-07
2.19555e-12
-7.354e-08
-1.50311e-07
5.97e-13
1.50183e-07
1.56999e-12
5.42638e-06
-1.50308e-07
-1.24403e-13
1.50176e-07
2.38235e-12
1.14071e-05
-1.50304e-07
9.20855e-14
1.50161e-07
2.26109e-12
1.77855e-05
-1.503e-07
-1.3339e-13
1.50156e-07
2.58645e-12
2.44908e-05
-1.50294e-07
-3.0943e-13
1.5015e-07
2.86741e-12
3.14591e-05
-1.50291e-07
-1.58197e-13
1.5014e-07
2.82656e-12
3.86275e-05
-1.50285e-07
-1.10282e-13
1.50137e-07
2.89485e-12
4.59271e-05
-1.50281e-07
-1.62691e-13
1.50131e-07
3.06983e-12
5.32776e-05
-1.50275e-07
-1.17448e-13
1.50123e-07
3.15378e-12
6.05838e-05
-1.5027e-07
-1.65075e-13
1.50114e-07
3.33779e-12
6.77342e-05
-1.50264e-07
-1.22117e-13
1.50105e-07
3.43863e-12
7.46045e-05
-1.50259e-07
-1.64765e-13
1.50095e-07
3.63295e-12
8.10634e-05
-1.50252e-07
-1.23576e-13
1.50084e-07
3.75145e-12
8.69816e-05
-1.50246e-07
-1.61206e-13
1.50072e-07
3.95713e-12
9.22423e-05
-1.50239e-07
-1.21292e-13
1.5006e-07
4.09364e-12
9.67508e-05
-1.50232e-07
-1.53825e-13
1.50047e-07
4.31121e-12
0.000100446
-1.50224e-07
-1.14806e-13
1.50034e-07
4.46584e-12
0.000103304
-1.50217e-07
-1.4227e-13
1.50019e-07
4.69581e-12
0.000105344
-1.50209e-07
-1.03884e-13
1.50005e-07
4.86885e-12
0.000106626
-1.50201e-07
-1.26403e-13
1.4999e-07
5.1121e-12
0.000107248
-1.50192e-07
-8.84621e-14
1.49974e-07
5.30439e-12
0.000107339
-1.50183e-07
-1.06206e-13
1.49958e-07
5.56241e-12
0.000107051
-1.50173e-07
-6.85116e-14
1.49941e-07
5.77534e-12
0.000106551
-1.50164e-07
-8.16003e-14
1.49923e-07
6.04999e-12
0.00010601
-1.50153e-07
-4.38334e-14
1.49905e-07
6.28497e-12
0.000105604
-1.50143e-07
-5.2226e-14
1.49885e-07
6.57786e-12
0.000105498
-1.50131e-07
-1.38621e-14
1.49866e-07
6.83582e-12
0.000105849
-1.5012e-07
-1.72623e-14
1.49845e-07
7.14788e-12
0.0001068
-1.50107e-07
2.24983e-14
1.49824e-07
7.42904e-12
0.000108471
-1.50095e-07
2.47287e-14
1.49802e-07
7.76054e-12
0.000110963
-1.50081e-07
6.70139e-14
1.49779e-07
8.06471e-12
0.000114345
-1.50068e-07
7.59206e-14
1.49755e-07
8.41586e-12
0.000118652
-1.50053e-07
1.22247e-13
1.49731e-07
8.74335e-12
0.000123877
-1.50039e-07
1.39333e-13
1.49705e-07
9.1153e-12
0.000129972
-1.50023e-07
1.91631e-13
1.49678e-07
9.46772e-12
0.000136834
-1.50007e-07
2.18852e-13
1.4965e-07
9.86307e-12
0.000144317
-1.4999e-07
2.79459e-13
1.49622e-07
1.02435e-11
0.000152227
-1.49973e-07
3.19135e-13
1.49592e-07
1.06658e-11
0.000160334
-1.49954e-07
3.90617e-13
1.49561e-07
1.10775e-11
0.000168382
-1.49936e-07
4.45181e-13
1.49529e-07
1.15298e-11
0.000176107
-1.49916e-07
5.30002e-13
1.49496e-07
1.19744e-11
0.000183252
-1.49896e-07
6.01613e-13
1.49461e-07
1.24572e-11
0.000189589
-1.49875e-07
7.01706e-13
1.49426e-07
1.29337e-11
0.000194935
-1.49853e-07
7.91869e-13
1.49388e-07
1.3445e-11
0.000199165
-1.49831e-07
9.0833e-13
1.4935e-07
1.39507e-11
0.000202223
-1.49808e-07
1.01777e-12
1.4931e-07
1.44881e-11
0.000204126
-1.49784e-07
1.15097e-12
1.49269e-07
1.50215e-11
0.000204955
-1.49759e-07
1.27997e-12
1.49226e-07
1.55855e-11
0.000204848
-1.49733e-07
1.43002e-12
1.49182e-07
1.61488e-11
0.000203982
-1.49707e-07
1.57894e-12
1.49136e-07
1.67433e-11
0.000202555
-1.49679e-07
1.74623e-12
1.49089e-07
1.73413e-11
0.000200766
-1.49651e-07
1.91594e-12
1.4904e-07
1.79715e-11
0.000198797
-1.49622e-07
2.10134e-12
1.48989e-07
1.86085e-11
0.000196795
-1.49593e-07
2.29328e-12
1.48936e-07
1.92782e-11
0.000194867
-1.49562e-07
2.49803e-12
1.48882e-07
1.99564e-11
0.000193073
-1.4953e-07
2.7141e-12
1.48826e-07
2.06664e-11
0.000191426
-1.49497e-07
2.93954e-12
1.48768e-07
2.13852e-11
0.0001899
-1.49463e-07
3.18192e-12
1.48708e-07
2.21347e-11
0.000188438
-1.49428e-07
3.42915e-12
1.48646e-07
2.28925e-11
0.000186966
-1.49393e-07
3.70017e-12
1.48582e-07
2.36801e-11
0.000185401
-1.49356e-07
3.96975e-12
1.48516e-07
2.44758e-11
0.000183664
-1.49318e-07
4.27174e-12
1.48448e-07
2.5301e-11
0.000181691
-1.49279e-07
4.56357e-12
1.48378e-07
2.61351e-11
0.000179441
-1.49239e-07
4.89887e-12
1.48305e-07
2.69993e-11
0.000176895
-1.49198e-07
5.21211e-12
1.4823e-07
2.78737e-11
0.000174064
-1.49156e-07
5.58329e-12
1.48153e-07
2.87799e-11
0.000170982
-1.49112e-07
5.91642e-12
1.48073e-07
2.9698e-11
0.000167705
-1.49068e-07
6.32651e-12
1.47991e-07
3.06496e-11
0.000164303
-1.49022e-07
6.67716e-12
1.47907e-07
3.16142e-11
0.000160856
-1.48976e-07
7.12995e-12
1.4782e-07
3.26133e-11
0.000157444
-1.48927e-07
7.49465e-12
1.4773e-07
3.3625e-11
0.000154142
-1.48878e-07
7.99489e-12
1.47638e-07
3.46706e-11
0.000151012
-1.48828e-07
8.36866e-12
1.47542e-07
3.57269e-11
0.000148103
-1.48776e-07
8.92237e-12
1.47444e-07
3.68146e-11
0.000145439
-1.48723e-07
9.29834e-12
1.47344e-07
3.791e-11
0.000143024
-1.48668e-07
9.91333e-12
1.4724e-07
3.90327e-11
0.000140837
-1.48612e-07
1.02822e-11
1.47133e-07
4.01605e-11
0.00013883
-1.48556e-07
1.09686e-11
1.47024e-07
4.13103e-11
0.000136933
-1.48497e-07
1.13187e-11
1.46911e-07
4.24646e-11
0.000135049
-1.48438e-07
1.20898e-11
1.46796e-07
4.3635e-11
0.00013306
-1.48377e-07
1.27165e-11
1.46677e-07
4.48135e-11
0.000130826
-1.48315e-07
1.30831e-11
1.46555e-07
4.60019e-11
0.000128192
-1.48251e-07
1.38832e-11
1.46431e-07
4.72063e-11
0.00012499
-1.48187e-07
1.43018e-11
1.46303e-07
4.84187e-11
0.000121051
-1.48121e-07
1.51056e-11
1.46172e-07
4.9658e-11
0.000116208
-1.48053e-07
1.55717e-11
1.46037e-07
5.09104e-11
0.000110309
-1.47984e-07
1.63799e-11
1.459e-07
5.22055e-11
0.00010323
-1.47914e-07
1.68897e-11
1.45759e-07
5.35276e-11
9.48824e-05
-1.47842e-07
1.77043e-11
1.45614e-07
5.49138e-11
8.52296e-05
-1.47769e-07
1.82547e-11
1.45466e-07
5.63504e-11
7.42949e-05
-1.47694e-07
1.90786e-11
1.45314e-07
5.78774e-11
6.21706e-05
-1.47617e-07
1.96676e-11
1.45158e-07
5.94851e-11
4.90235e-05
-1.47538e-07
2.05036e-11
1.44997e-07
6.12101e-11
3.50956e-05
-1.47456e-07
2.11286e-11
1.44831e-07
6.30475e-11
2.07008e-05
-1.47373e-07
2.19773e-11
1.44661e-07
6.50214e-11
6.21728e-06
-1.47286e-07
2.26315e-11
1.44484e-07
6.71322e-11
-7.92634e-06
-1.47197e-07
2.34865e-11
1.44302e-07
6.93772e-11
-2.12698e-05
-1.47105e-07
2.423e-11
1.44114e-07
7.16894e-11
-3.33398e-05
-1.4701e-07
2.52112e-11
1.4392e-07
7.40625e-11
-4.36771e-05
-1.46912e-07
2.60895e-11
1.43719e-07
7.64937e-11
-5.18618e-05
-1.46811e-07
2.71798e-11
1.43512e-07
7.89515e-11
-5.75329e-05
-1.46707e-07
2.81653e-11
1.43299e-07
8.14541e-11
-6.04134e-05
-1.466e-07
2.93315e-11
1.43079e-07
8.39557e-11
-6.03246e-05
-1.46491e-07
3.03877e-11
1.42852e-07
8.65089e-11
-5.71929e-05
-1.46378e-07
3.15954e-11
1.42619e-07
8.90584e-11
-5.10582e-05
-1.46262e-07
3.26912e-11
1.42379e-07
9.17034e-11
-4.20663e-05
-1.46143e-07
3.3917e-11
1.42132e-07
9.4375e-11
-3.04597e-05
-1.46021e-07
3.50353e-11
1.41877e-07
9.7221e-11
-1.65579e-05
-1.45895e-07
3.62689e-11
1.41615e-07
1.00143e-10
-7.31945e-07
-1.45765e-07
3.74022e-11
1.41345e-07
1.03335e-10
1.66092e-05
-1.45632e-07
3.86325e-11
1.41066e-07
1.06634e-10
3.50443e-05
-1.45494e-07
4.0011e-11
1.40778e-07
1.10053e-10
5.41629e-05
-1.45351e-07
4.15142e-11
1.40481e-07
1.13581e-10
7.35768e-05
-1.45205e-07
4.3219e-11
1.40175e-07
1.17262e-10
9.29385e-05
-1.45055e-07
4.50503e-11
1.39858e-07
1.21029e-10
0.000111947
-1.449e-07
4.71314e-11
1.39532e-07
1.24967e-10
0.000130348
-1.44742e-07
4.93275e-11
1.39195e-07
1.28946e-10
0.000147942
-1.44579e-07
5.18188e-11
1.38848e-07
1.33106e-10
0.00016458
-1.44413e-07
5.43996e-11
1.3849e-07
1.37243e-10
0.000180154
-1.44242e-07
5.73215e-11
1.38121e-07
1.41568e-10
0.0001946
-1.44069e-07
6.02927e-11
1.37741e-07
1.45791e-10
0.000207885
-1.43892e-07
6.36548e-11
1.3735e-07
1.50216e-10
0.000219999
-1.43712e-07
6.70106e-11
1.36949e-07
1.54449e-10
0.000230943
-1.43529e-07
7.08151e-11
1.36536e-07
1.58911e-10
0.000240721
-1.43343e-07
7.45408e-11
1.36113e-07
1.63081e-10
0.000249326
-1.43156e-07
7.87845e-11
1.35679e-07
1.67523e-10
0.000256728
-1.42966e-07
8.28572e-11
1.35235e-07
1.71566e-10
0.000262862
-1.42775e-07
8.75324e-11
1.3478e-07
1.75952e-10
0.000267623
-1.42582e-07
9.19211e-11
1.34316e-07
1.79823e-10
0.000270858
-1.42389e-07
9.7016e-11
1.33841e-07
1.84142e-10
0.000272373
-1.42194e-07
1.01681e-10
1.33357e-07
1.87826e-10
0.000271935
-1.42e-07
1.0718e-10
1.32863e-07
1.92112e-10
0.00026929
-1.41805e-07
1.12075e-10
1.32361e-07
1.9565e-10
0.000264179
-1.4161e-07
1.1797e-10
1.31848e-07
2.0001e-10
0.000256369
-1.41415e-07
1.23053e-10
1.31326e-07
2.03522e-10
0.000245674
-1.41221e-07
1.29352e-10
1.30794e-07
2.0816e-10
0.000231989
-1.41025e-07
1.34599e-10
1.30252e-07
2.11865e-10
0.000215316
-1.4083e-07
1.41344e-10
1.29699e-07
2.17096e-10
0.000195787
-1.40633e-07
1.46757e-10
1.29134e-07
2.21305e-10
0.000173681
-1.40436e-07
1.54031e-10
1.28555e-07
2.27529e-10
0.000149432
-1.40236e-07
1.59623e-10
1.27962e-07
2.32597e-10
0.000123634
-1.40034e-07
1.67529e-10
1.27352e-07
2.40237e-10
9.70199e-05
-1.39826e-07
1.73296e-10
1.26725e-07
2.46476e-10
7.04496e-05
-1.39615e-07
1.81918e-10
1.26076e-07
2.55878e-10
4.48656e-05
-1.39396e-07
1.87788e-10
1.25406e-07
2.63445e-10
2.1253e-05
-1.39172e-07
1.97154e-10
1.24709e-07
2.74766e-10
5.81372e-07
-1.38936e-07
2.02952e-10
1.23988e-07
2.83553e-10
-1.62687e-05
-1.38695e-07
2.12999e-10
1.23236e-07
2.96642e-10
-2.85595e-05
-1.38442e-07
2.19283e-10
1.22459e-07
3.05413e-10
-3.57686e-05
-1.38183e-07
2.30729e-10
1.2165e-07
3.1938e-10
-3.76348e-05
-1.37914e-07
2.37101e-10
1.20815e-07
3.27966e-10
-3.41905e-05
-1.37639e-07
2.49712e-10
1.19948e-07
3.42954e-10
-2.57824e-05
-1.37351e-07
2.55721e-10
1.19053e-07
3.51419e-10
-1.3035e-05
-1.37059e-07
2.69389e-10
1.18123e-07
3.67911e-10
3.1876e-06
-1.36751e-07
2.74677e-10
1.17164e-07
3.76564e-10
2.18471e-05
-1.36438e-07
2.89594e-10
1.16166e-07
3.94976e-10
4.18074e-05
-1.36109e-07
2.95054e-10
1.1514e-07
4.02843e-10
6.19273e-05
-1.35778e-07
3.12594e-10
1.14073e-07
4.22662e-10
8.11479e-05
-1.35431e-07
3.18294e-10
1.12979e-07
4.29484e-10
9.85622e-05
-1.35084e-07
3.38837e-10
1.11842e-07
4.50841e-10
0.000113486
-1.34723e-07
3.44449e-10
1.1068e-07
4.56146e-10
0.00012549
-1.34364e-07
3.6813e-10
1.09474e-07
4.79141e-10
0.000134409
-1.3399e-07
3.73043e-10
1.08245e-07
4.8239e-10
0.000140338
-1.33624e-07
3.99892e-10
1.06971e-07
5.07233e-10
0.000143606
-1.3324e-07
4.03371e-10
1.05676e-07
5.07945e-10
0.000144721
-1.32868e-07
4.33476e-10
1.04335e-07
5.35025e-10
0.000144312
-1.32477e-07
4.34782e-10
1.02977e-07
5.32759e-10
0.00014307
-1.32101e-07
4.68384e-10
1.01569e-07
5.62576e-10
0.00014167
-1.31704e-07
4.6681e-10
1.00149e-07
5.56806e-10
0.00014074
-1.31326e-07
5.04322e-10
9.86763e-08
5.89858e-10
0.000140816
-1.30924e-07
4.99183e-10
9.71957e-08
5.79868e-10
0.000142304
-1.30546e-07
5.41205e-10
9.56599e-08
6.16608e-10
0.000145472
-1.30142e-07
5.31855e-10
9.41221e-08
6.01497e-10
0.000150462
-1.29768e-07
5.79201e-10
9.2526e-08
6.42395e-10
0.000157305
-1.29363e-07
5.65032e-10
9.09353e-08
6.21146e-10
0.000165925
-1.28997e-07
6.18738e-10
8.9283e-08
6.66772e-10
0.00017616
-1.28596e-07
5.99147e-10
8.76449e-08
6.38293e-10
0.000187783
-1.28242e-07
6.60441e-10
8.59415e-08
6.89369e-10
0.00020053
-1.2785e-07
6.34746e-10
8.42624e-08
6.52495e-10
0.000214097
-1.27517e-07
7.04989e-10
8.25137e-08
7.09906e-10
0.000228151
-1.2714e-07
6.72338e-10
8.0801e-08
6.63368e-10
0.000242345
-1.26834e-07
7.52973e-10
7.90132e-08
7.2817e-10
0.000256308
-1.26477e-07
7.12269e-10
7.72746e-08
6.70584e-10
0.000269693
-1.26206e-07
8.04785e-10
7.54543e-08
7.44023e-10
0.000282171
-1.25878e-07
7.54648e-10
7.36978e-08
6.73906e-10
0.000293441
-1.2565e-07
8.60583e-10
7.18515e-08
7.5746e-10
0.000303283
-1.25356e-07
7.99358e-10
7.0085e-08
6.7326e-10
0.000311585
-1.25179e-07
9.20348e-10
6.82187e-08
7.68687e-10
0.000318334
-1.24925e-07
8.46146e-10
6.64495e-08
6.68782e-10
0.000323618
-1.24806e-07
9.84025e-10
6.45679e-08
7.78127e-10
0.000327623
-1.24596e-07
8.94769e-10
6.28023e-08
6.60769e-10
0.00033062
-1.24541e-07
1.05167e-09
6.09089e-08
7.86328e-10
0.000332918
-1.24378e-07
9.45111e-10
5.91519e-08
6.49521e-10
0.000334802
-1.24393e-07
1.12353e-09
5.72491e-08
7.93795e-10
0.000336522
-1.24281e-07
9.97242e-10
5.55051e-08
6.3519e-10
0.00033824
-1.24372e-07
1.2001e-09
5.35943e-08
8.0087e-10
0.00034
-1.24314e-07
1.05141e-09
5.18674e-08
6.17723e-10
0.000341761
-1.24486e-07
1.28207e-09
4.99497e-08
8.07756e-10
0.000343397
-1.24485e-07
1.10795e-09
4.8244e-08
5.96937e-10
0.000344706
-1.24747e-07
1.37018e-09
4.632e-08
8.14627e-10
0.000345501
-1.24806e-07
1.16717e-09
4.46396e-08
5.72647e-10
0.000345627
-1.25163e-07
1.46521e-09
4.27093e-08
8.21763e-10
0.000344994
-1.25285e-07
1.22929e-09
4.10578e-08
5.44746e-10
0.000343629
-1.25746e-07
1.56784e-09
3.91205e-08
8.29574e-10
0.000341664
-1.25934e-07
1.29439e-09
3.75013e-08
5.13168e-10
0.000339357
-1.26506e-07
1.67881e-09
3.55552e-08
8.38512e-10
0.000337047
-1.26762e-07
1.36258e-09
3.39715e-08
4.77737e-10
0.000335164
-1.27454e-07
1.79901e-09
3.20143e-08
8.48865e-10
0.000334177
-1.27781e-07
1.43416e-09
3.04698e-08
4.37946e-10
0.000334505
-1.28602e-07
1.9297e-09
2.84997e-08
8.60535e-10
0.000336537
-1.29004e-07
1.50978e-09
2.69995e-08
3.92778e-10
0.000340612
-1.29967e-07
2.07274e-09
2.50157e-08
8.72905e-10
0.000346935
-1.3045e-07
1.59064e-09
2.35676e-08
3.40623e-10
0.000355576
-1.31571e-07
2.23072e-09
2.15719e-08
8.84819e-10
0.000366498
-1.32144e-07
1.67848e-09
2.01871e-08
2.79305e-10
0.000379556
-1.33443e-07
2.407e-09
1.81843e-08
8.94662e-10
0.000394494
-1.34119e-07
1.77552e-09
1.68783e-08
2.06193e-10
0.000410982
-1.35624e-07
2.60555e-09
1.48764e-08
9.0048e-10
0.000428634
-1.36419e-07
1.88414e-09
1.36692e-08
1.1835e-10
0.000447018
-1.38161e-07
2.83076e-09
1.16802e-08
9.00093e-10
0.000465706
-1.39096e-07
2.00666e-09
1.05964e-08
1.27099e-11
0.000484323
-1.41114e-07
3.08717e-09
8.63559e-09
8.91208e-10
0.000502518
-1.42214e-07
2.14512e-09
7.70449e-09
-1.13775e-10
0.000520029
-1.44552e-07
3.37952e-09
5.79085e-09
8.71451e-10
0.000536754
-1.45844e-07
2.30129e-09
5.04598e-09
-2.64086e-10
0.000552707
-1.48552e-07
3.71287e-09
3.2023e-09
8.38269e-10
0.000568068
-1.50067e-07
2.4768e-09
2.68194e-09
-4.41283e-10
0.000583196
-1.53202e-07
4.09321e-09
9.35558e-10
7.88496e-10
0.000598648
-1.54975e-07
2.67358e-09
6.8373e-10
-6.48919e-10
0.000615223
-1.58606e-07
4.52836e-09
-9.31236e-10
7.17488e-10
0.000634036
-1.60678e-07
2.89465e-09
-8.6208e-10
-8.91799e-10
0.000656715
-1.64887e-07
5.02936e-09
-2.29986e-09
6.17466e-10
0.000685555
-1.42704e-07
-2.14587e-08
-1.84404e-09
-1.17747e-09
0.000724039
-1.2173e-07
-2.02547e-08
-2.87291e-09
3.10587e-10
0.000777891
-9.83563e-08
-2.27347e-08
-2.24326e-09
-1.26628e-09
0.000856744
-7.56854e-08
-2.20355e-08
-2.84114e-09
-3.53548e-11
0.000975765
-5.08566e-08
-2.42526e-08
-2.15416e-09
-1.261e-09
0.00115899
-2.59198e-08
-2.43583e-08
-2.2681e-09
-4.62297e-10
0.00151292
-2.63307e-08
9.69674e-10
-1.06354e-09
-1.76115e-09
1.78068e-07
2.01238e-08
-2.00865e-08
5.53247e-07
5.00726e-08
-4.99788e-08
9.48852e-07
7.36065e-08
-7.34733e-08
1.36115e-06
8.70296e-08
-8.68837e-08
1.78805e-06
9.42957e-08
-9.4139e-08
2.23026e-06
9.87139e-08
-9.85397e-08
2.68855e-06
1.01748e-07
-1.01573e-07
3.16314e-06
1.0402e-07
-1.03854e-07
3.654e-06
1.05831e-07
-1.05666e-07
4.16156e-06
1.07342e-07
-1.07155e-07
4.68684e-06
1.08635e-07
-1.08446e-07
5.23044e-06
1.0978e-07
-1.09587e-07
5.79301e-06
1.10807e-07
-1.10563e-07
6.37552e-06
1.11725e-07
-1.11468e-07
6.97829e-06
1.12591e-07
-1.12346e-07
7.60089e-06
1.13377e-07
-1.13152e-07
8.24241e-06
1.14129e-07
-1.13905e-07
8.90182e-06
1.14842e-07
-1.14614e-07
9.57935e-06
1.15518e-07
-1.15289e-07
1.02773e-05
1.16165e-07
-1.15934e-07
1.09989e-05
1.16796e-07
-1.16556e-07
1.17465e-05
1.17402e-07
-1.17157e-07
1.25207e-05
1.18e-07
-1.17743e-07
1.33218e-05
1.18567e-07
-1.18312e-07
1.41498e-05
1.19138e-07
-1.18871e-07
1.50054e-05
1.1967e-07
-1.19418e-07
1.58886e-05
1.20219e-07
-1.19958e-07
1.67996e-05
1.20753e-07
-1.20491e-07
1.77379e-05
1.21283e-07
-1.21019e-07
1.87033e-05
1.21813e-07
-1.21542e-07
1.96961e-05
1.22336e-07
-1.22061e-07
2.07188e-05
1.22853e-07
-1.22578e-07
2.17764e-05
1.23377e-07
-1.23094e-07
2.28767e-05
1.23898e-07
-1.23608e-07
2.40284e-05
1.24424e-07
-1.24123e-07
2.52399e-05
1.24939e-07
-1.24636e-07
2.65181e-05
1.25481e-07
-1.25153e-07
2.78673e-05
1.25961e-07
-1.25662e-07
2.92897e-05
1.26525e-07
-1.26184e-07
3.07862e-05
1.26994e-07
-1.26696e-07
3.23579e-05
1.27565e-07
-1.27227e-07
3.40091e-05
1.28055e-07
-1.27752e-07
3.57506e-05
1.28622e-07
-1.28295e-07
3.7602e-05
1.29155e-07
-1.2884e-07
3.95927e-05
1.29723e-07
-1.29398e-07
4.17589e-05
1.30293e-07
-1.29962e-07
4.41397e-05
1.30879e-07
-1.30537e-07
4.67721e-05
1.31474e-07
-1.31118e-07
4.96877e-05
1.32114e-07
-1.31712e-07
5.29128e-05
1.32623e-07
-1.32273e-07
5.64681e-05
1.33367e-07
-1.32891e-07
6.03676e-05
1.33773e-07
-1.33504e-07
6.46086e-05
1.34504e-07
-1.3415e-07
6.91561e-05
1.35143e-07
-1.34806e-07
7.39175e-05
1.35813e-07
-1.35484e-07
7.87163e-05
1.3648e-07
-1.36168e-07
8.32717e-05
1.37187e-07
-1.36882e-07
8.71968e-05
1.37894e-07
-1.37594e-07
9.00254e-05
1.38646e-07
-1.38347e-07
9.12704e-05
1.39396e-07
-1.39094e-07
9.05048e-05
1.40192e-07
-1.39891e-07
8.74478e-05
1.40969e-07
-1.40684e-07
8.20321e-05
1.41807e-07
-1.41529e-07
7.44324e-05
1.42668e-07
-1.42384e-07
6.50452e-05
1.43544e-07
-1.43286e-07
5.44261e-05
1.44448e-07
-1.44215e-07
4.32049e-05
1.45391e-07
-1.45155e-07
3.19999e-05
1.4636e-07
-1.46139e-07
2.1349e-05
1.47289e-07
-1.47136e-07
1.16708e-05
1.48309e-07
-1.48188e-07
3.25429e-06
1.49311e-07
-1.4926e-07
-3.72993e-06
1.51163e-07
-1.50392e-07
-9.20572e-06
1.50513e-07
-1.50392e-07
-1.31676e-05
1.50569e-07
-1.50399e-07
-1.56563e-05
1.506e-07
-1.50398e-07
-1.67453e-05
1.50632e-07
-1.50403e-07
-1.65302e-05
1.5065e-07
-1.50402e-07
-1.51225e-05
1.50675e-07
-1.50404e-07
-1.26453e-05
1.50689e-07
-1.50403e-07
-9.22679e-06
1.50709e-07
-1.50403e-07
-4.99524e-06
1.50718e-07
-1.50402e-07
-7.35892e-08
1.50722e-07
-1.504e-07
5.42632e-06
1.5072e-07
-1.50398e-07
1.1407e-05
1.50712e-07
-1.50395e-07
1.77854e-05
1.50712e-07
-1.50393e-07
2.44907e-05
1.50713e-07
-1.50388e-07
3.1459e-05
1.50709e-07
-1.50386e-07
3.86274e-05
1.50713e-07
-1.50381e-07
4.5927e-05
1.50714e-07
-1.50379e-07
5.32776e-05
1.50713e-07
-1.50374e-07
6.05837e-05
1.50712e-07
-1.50371e-07
6.77341e-05
1.50711e-07
-1.50366e-07
7.46044e-05
1.50709e-07
-1.50362e-07
8.10633e-05
1.50707e-07
-1.50357e-07
8.69816e-05
1.50705e-07
-1.50353e-07
9.22422e-05
1.50702e-07
-1.50347e-07
9.67508e-05
1.507e-07
-1.50343e-07
0.000100446
1.50697e-07
-1.50337e-07
0.000103304
1.50694e-07
-1.50332e-07
0.000105344
1.50691e-07
-1.50326e-07
0.000106626
1.50688e-07
-1.5032e-07
0.000107248
1.50685e-07
-1.50313e-07
0.000107339
1.50682e-07
-1.50307e-07
0.000107051
1.50679e-07
-1.503e-07
0.000106551
1.50675e-07
-1.50293e-07
0.00010601
1.50673e-07
-1.50285e-07
0.000105604
1.50669e-07
-1.50277e-07
0.000105498
1.50666e-07
-1.50269e-07
0.000105849
1.50663e-07
-1.50261e-07
0.0001068
1.5066e-07
-1.50252e-07
0.000108471
1.50657e-07
-1.50243e-07
0.000110963
1.50654e-07
-1.50233e-07
0.000114345
1.5065e-07
-1.50223e-07
0.000118651
1.50647e-07
-1.50212e-07
0.000123877
1.50644e-07
-1.50202e-07
0.000129971
1.50641e-07
-1.5019e-07
0.000136834
1.50638e-07
-1.50179e-07
0.000144317
1.50635e-07
-1.50166e-07
0.000152227
1.50632e-07
-1.50154e-07
0.000160334
1.50629e-07
-1.50141e-07
0.000168382
1.50626e-07
-1.50127e-07
0.000176107
1.50623e-07
-1.50113e-07
0.000183252
1.5062e-07
-1.50099e-07
0.000189589
1.50618e-07
-1.50084e-07
0.000194935
1.50615e-07
-1.50068e-07
0.000199165
1.50613e-07
-1.50052e-07
0.000202224
1.50611e-07
-1.50036e-07
0.000204127
1.50609e-07
-1.50019e-07
0.000204956
1.50607e-07
-1.50002e-07
0.000204848
1.50606e-07
-1.49984e-07
0.000203982
1.50604e-07
-1.49965e-07
0.000202555
1.50604e-07
-1.49946e-07
0.000200767
1.50603e-07
-1.49927e-07
0.000198797
1.50602e-07
-1.49907e-07
0.000196796
1.50603e-07
-1.49886e-07
0.000194868
1.50603e-07
-1.49865e-07
0.000193074
1.50604e-07
-1.49844e-07
0.000191427
1.50605e-07
-1.49821e-07
0.000189901
1.50607e-07
-1.49799e-07
0.000188439
1.50609e-07
-1.49775e-07
0.000186967
1.50611e-07
-1.49752e-07
0.000185402
1.50614e-07
-1.49727e-07
0.000183665
1.50618e-07
-1.49702e-07
0.000181693
1.50622e-07
-1.49676e-07
0.000179442
1.50628e-07
-1.4965e-07
0.000176897
1.50633e-07
-1.49624e-07
0.000174065
1.5064e-07
-1.49597e-07
0.000170983
1.50647e-07
-1.49569e-07
0.000167706
1.50655e-07
-1.4954e-07
0.000164304
1.50663e-07
-1.49511e-07
0.000160857
1.50673e-07
-1.49482e-07
0.000157445
1.50683e-07
-1.49451e-07
0.000154143
1.50695e-07
-1.49421e-07
0.000151014
1.50707e-07
-1.49389e-07
0.000148104
1.50721e-07
-1.49358e-07
0.00014544
1.50735e-07
-1.49325e-07
0.000143026
1.50751e-07
-1.49292e-07
0.000140838
1.50767e-07
-1.49258e-07
0.000138832
1.50785e-07
-1.49224e-07
0.000136935
1.50801e-07
-1.49189e-07
0.000135051
1.50823e-07
-1.49154e-07
0.000133062
1.50845e-07
-1.49118e-07
0.000130828
1.50865e-07
-1.49082e-07
0.000128194
1.5089e-07
-1.49045e-07
0.000124993
1.50915e-07
-1.49008e-07
0.000121054
1.50942e-07
-1.4897e-07
0.000116211
1.50969e-07
-1.48931e-07
0.000110313
1.50999e-07
-1.48892e-07
0.000103234
1.51029e-07
-1.48853e-07
9.48864e-05
1.51062e-07
-1.48813e-07
8.5234e-05
1.51095e-07
-1.48772e-07
7.42996e-05
1.51131e-07
-1.48731e-07
6.21756e-05
1.51167e-07
-1.48688e-07
4.90287e-05
1.51205e-07
-1.48645e-07
3.51009e-05
1.51245e-07
-1.486e-07
2.07062e-05
1.51286e-07
-1.48555e-07
6.22253e-06
1.51329e-07
-1.48508e-07
-7.92136e-06
1.51373e-07
-1.48459e-07
-2.12653e-05
1.51418e-07
-1.48409e-07
-3.3336e-05
1.51466e-07
-1.48357e-07
-4.36741e-05
1.51515e-07
-1.48304e-07
-5.18599e-05
1.51567e-07
-1.48249e-07
-5.75322e-05
1.51621e-07
-1.48193e-07
-6.04141e-05
1.51677e-07
-1.48136e-07
-6.03268e-05
1.51735e-07
-1.48077e-07
-5.71968e-05
1.51796e-07
-1.48018e-07
-5.10638e-05
1.51859e-07
-1.47956e-07
-4.20735e-05
1.51925e-07
-1.47893e-07
-3.04685e-05
1.51993e-07
-1.47829e-07
-1.65682e-05
1.52064e-07
-1.47763e-07
-7.43684e-07
1.52136e-07
-1.47695e-07
1.65962e-05
1.52212e-07
-1.47625e-07
3.50303e-05
1.5229e-07
-1.47552e-07
5.41482e-05
1.52371e-07
-1.47478e-07
7.35614e-05
1.52455e-07
-1.47402e-07
9.29228e-05
1.52544e-07
-1.47325e-07
0.000111931
1.52637e-07
-1.47245e-07
0.000130332
1.52735e-07
-1.47165e-07
0.000147927
1.52839e-07
-1.47084e-07
0.000164565
1.52949e-07
-1.47002e-07
0.00018014
1.53065e-07
-1.46919e-07
0.000194587
1.53189e-07
-1.46836e-07
0.000207873
1.5332e-07
-1.46753e-07
0.000219988
1.53459e-07
-1.46671e-07
0.000230934
1.53608e-07
-1.4659e-07
0.000240714
1.53766e-07
-1.4651e-07
0.000249321
1.53934e-07
-1.46431e-07
0.000256725
1.54112e-07
-1.46355e-07
0.000262861
1.54302e-07
-1.46281e-07
0.000267624
1.54503e-07
-1.46211e-07
0.000270863
1.54716e-07
-1.46143e-07
0.000272381
1.54942e-07
-1.46079e-07
0.000271947
1.55181e-07
-1.46019e-07
0.000269306
1.55433e-07
-1.45963e-07
0.0002642
1.557e-07
-1.45912e-07
0.000256395
1.55981e-07
-1.45866e-07
0.000245706
1.56277e-07
-1.45824e-07
0.000232027
1.56587e-07
-1.45788e-07
0.000215359
1.56914e-07
-1.45756e-07
0.000195835
1.57255e-07
-1.45729e-07
0.000173734
1.57614e-07
-1.45706e-07
0.000149489
1.57988e-07
-1.45687e-07
0.000123694
1.5838e-07
-1.45672e-07
9.70813e-05
1.58788e-07
-1.4566e-07
7.05107e-05
1.59216e-07
-1.45649e-07
4.49245e-05
1.59659e-07
-1.45641e-07
2.13074e-05
1.60123e-07
-1.45633e-07
6.28888e-07
1.60603e-07
-1.45626e-07
-1.62304e-05
1.61104e-07
-1.45617e-07
-2.85325e-05
1.61623e-07
-1.45611e-07
-3.57547e-05
1.62166e-07
-1.45603e-07
-3.76353e-05
1.62728e-07
-1.45601e-07
-3.42059e-05
1.63317e-07
-1.45596e-07
-2.58123e-05
1.63924e-07
-1.45596e-07
-1.30785e-05
1.64559e-07
-1.45593e-07
3.13255e-06
1.65212e-07
-1.45595e-07
2.17831e-05
1.65895e-07
-1.45592e-07
4.17376e-05
1.66597e-07
-1.45597e-07
6.18553e-05
1.67334e-07
-1.45598e-07
8.10773e-05
1.68095e-07
-1.45611e-07
9.84964e-05
1.68896e-07
-1.45621e-07
0.000113428
1.69723e-07
-1.45648e-07
0.000125442
1.70596e-07
-1.45673e-07
0.000134373
1.71497e-07
-1.45719e-07
0.000140314
1.7245e-07
-1.45763e-07
0.000143593
1.7343e-07
-1.45833e-07
0.000144717
1.74468e-07
-1.459e-07
0.000144317
1.75531e-07
-1.45998e-07
0.000143079
1.76657e-07
-1.4609e-07
0.000141681
1.77807e-07
-1.46218e-07
0.000140748
1.79023e-07
-1.46338e-07
0.000140819
1.80261e-07
-1.46498e-07
0.000142298
1.81571e-07
-1.46649e-07
0.000145455
1.829e-07
-1.46845e-07
0.000150432
1.84307e-07
-1.47029e-07
0.000157261
1.85729e-07
-1.47266e-07
0.000165866
1.87238e-07
-1.47487e-07
0.000176088
1.88757e-07
-1.47771e-07
0.000187698
1.90375e-07
-1.48036e-07
0.000200436
1.92e-07
-1.48376e-07
0.000213995
1.93735e-07