/*--------------------------------*- C++ -*----------------------------------*\
| =========                 |                                                 |
| \\      /  F ield         | OpenFOAM: The Open Source CFD Toolbox           |
|  \\    /   O peration     | Version:  2012                                  |
|   \\  /    A nd           | Website:  www.openfoam.com                      |
|    \\/     M anipulation  |                                                 |
\*---------------------------------------------------------------------------*/
FoamFile
{
    version     2.0;
    format      ascii;
    class       volSymmTensorField;
    location    "11200";
    object      turbulenceProperties:R;
}
// * * * * * * * * * * * * * * * * * * * * * * * * * * * * * * * * * * * * * //

dimensions      [0 2 -2 0 0 0 0];


internalField   nonuniform List<symmTensor> 
2560
(
(0.0056772 -1.96699e-06 -2.85273e-09 0.0056772 -1.67053e-08 0.0056772)
(0.00567288 -1.96326e-06 -2.85056e-09 0.00567288 7.48569e-13 0.00567288)
(0.161557 -0.000321229 -1.40597e-06 0.161557 -5.04299e-11 0.161557)
(0.161444 -0.000320644 -1.40498e-06 0.161444 1.03363e-10 0.161444)
(1.11005 -0.00661505 -3.9632e-05 1.11006 2.43667e-05 1.11005)
(1.10934 -0.00660358 -3.95646e-05 1.10934 3.51608e-10 1.10934)
(3.31499 -0.0422548 -0.000256837 3.31501 0.000148387 3.31499)
(3.31332 -0.0421904 -0.000256456 3.31331 2.5171e-09 3.31332)
(5.94892 -0.126496 -0.000780047 5.94893 0.0002403 5.94891)
(5.94658 -0.126333 -0.000779076 5.94657 3.23289e-09 5.94658)
(8.36527 -0.251057 -0.00157006 8.36528 0.000220137 8.36527)
(8.36252 -0.250779 -0.0015684 8.3625 1.67257e-09 8.36252)
(10.5024 -0.402981 -0.00255517 10.5024 0.000176504 10.5024)
(10.4993 -0.402595 -0.00255286 10.4993 9.89948e-10 10.4993)
(12.4223 -0.573821 -0.00368885 12.4223 0.000141603 12.4223)
(12.419 -0.573347 -0.00368598 12.419 2.19379e-09 12.419)
(14.1818 -0.758716 -0.00494803 14.1818 0.000116511 14.1818)
(14.1782 -0.758178 -0.00494475 14.1782 2.66661e-10 14.1782)
(15.8209 -0.955503 -0.00632567 15.8209 9.82569e-05 15.8209)
(15.8171 -0.954928 -0.00632214 15.8171 4.73117e-09 15.8171)
(17.3676 -1.1627 -0.00781015 17.3676 8.45292e-05 17.3676)
(17.3636 -1.16211 -0.00780654 17.3636 -2.015e-09 17.3636)
(18.8417 -1.37867 -0.00939689 18.8417 7.39e-05 18.8417)
(18.8375 -1.3781 -0.00939336 18.8375 9.12064e-09 18.8375)
(20.2578 -1.60299 -0.0110893 20.2578 6.5553e-05 20.2578)
(20.2536 -1.60245 -0.0110861 20.2532 -7.23456e-07 20.2536)
(21.6269 -1.83444 -0.0128719 21.627 5.77e-05 21.6269)
(21.6224 -1.83397 -0.012869 21.6224 -1.03744e-08 21.6224)
(22.9577 -2.06959 -0.0147189 22.9577 5.2922e-05 22.9577)
(22.9534 -2.06919 -0.0147165 22.952 5.9862e-07 22.9534)
(24.2568 -2.30439 -0.0166044 24.2568 4.38071e-05 24.2568)
(24.2519 -2.30408 -0.0166026 24.2519 -5.00188e-08 24.2519)
(25.5298 -2.5356 -0.0185106 25.5298 4.30025e-05 25.5298)
(25.5252 -2.53539 -0.0185094 25.5238 4.01978e-06 25.5252)
(26.7814 -2.76407 -0.0204685 26.7814 3.20161e-05 26.7814)
(26.7761 -2.76396 -0.020468 26.7761 -2.11529e-08 26.7761)
(28.0154 -2.99754 -0.0225591 28.0154 3.85045e-05 28.0154)
(28.01 -2.99753 -0.0225594 28.01 4.52756e-08 28.01)
(29.2351 -3.24501 -0.0248363 29.2352 2.29484e-05 29.2351)
(29.2296 -3.24509 -0.0248373 29.2296 -7.78429e-09 29.2296)
(30.4435 -3.50796 -0.0272765 30.4436 3.93069e-05 30.4435)
(30.4378 -3.50812 -0.0272781 30.4378 6.89017e-08 30.4378)
(31.643 -3.77992 -0.0298181 31.6431 1.45115e-05 31.643)
(31.6371 -3.78016 -0.0298203 31.6371 4.40578e-09 31.6371)
(32.8358 -4.05384 -0.0324251 32.8358 4.38252e-05 32.8358)
(32.8297 -4.05415 -0.0324277 32.8297 -3.59034e-06 32.8297)
(34.0237 -4.32708 -0.035098 34.0238 2.43405e-06 34.0237)
(34.0175 -4.32745 -0.0351011 34.0175 -7.72273e-08 34.0175)
(35.2087 -4.59996 -0.0378436 35.2087 5.23897e-05 35.2087)
(35.2023 -4.60037 -0.037847 35.2023 -6.55153e-07 35.2023)
(36.3923 -4.87214 -0.0406514 36.3924 -1.54679e-05 36.3923)
(36.3858 -4.87258 -0.0406551 36.3858 -1.84987e-07 36.3858)
(37.5763 -5.1413 -0.0434956 37.5762 6.40322e-05 37.5763)
(37.5695 -5.14175 -0.0434994 37.5695 3.60638e-06 37.5695)
(38.7618 -5.4041 -0.0463472 38.7619 -3.22118e-05 38.7618)
(38.7549 -5.40455 -0.0463509 38.7549 -1.4035e-07 38.7549)
(39.9504 -5.65835 -0.049197 39.9504 7.26498e-05 39.9504)
(39.9433 -5.65878 -0.0492005 39.9433 -6.80137e-08 39.9433)
(41.1433 -5.90653 -0.0520948 41.1434 -4.63024e-05 41.1433)
(41.1361 -5.90692 -0.0520978 41.1361 -3.76163e-08 41.1361)
(42.342 -6.15961 -0.0551826 42.3419 8.23244e-05 42.342)
(42.3345 -6.15992 -0.0551848 42.3345 2.63101e-07 42.3345)
(43.5475 -6.43759 -0.0586811 43.5476 -6.14153e-05 43.5475)
(43.5399 -6.43779 -0.0586822 43.5399 5.114e-08 43.5399)
(44.7612 -6.76404 -0.0628155 44.7611 9.38198e-05 44.7612)
(44.7533 -6.76411 -0.0628154 44.7533 3.60913e-07 44.7533)
(45.9839 -7.15695 -0.0677292 45.9841 -7.76325e-05 45.9839)
(45.9759 -7.15685 -0.0677274 45.9759 3.75369e-08 45.9759)
(47.2168 -7.62173 -0.0734348 47.2167 0.000108743 47.2168)
(47.2086 -7.62145 -0.0734313 47.2086 -7.97219e-06 47.2086)
(48.4605 -8.14985 -0.0798217 48.4607 -0.000103573 48.4605)
(48.4521 -8.14938 -0.0798164 48.4521 -1.82607e-07 48.4521)
(49.716 -8.72263 -0.0867028 49.7158 0.000136443 49.716)
(49.7073 -8.72197 -0.0866956 49.7073 -2.9031e-05 49.7073)
(50.9836 -9.31776 -0.093879 50.9839 -0.000171047 50.9836)
(50.9748 -9.31692 -0.0938698 50.9748 -6.28164e-07 50.9748)
(52.2645 -9.91677 -0.101216 52.2642 0.000230272 52.2645)
(52.2553 -9.91574 -0.101204 52.2553 -1.30934e-05 52.2553)
(53.5586 -10.5135 -0.108739 53.559 -0.000292177 53.5586)
(53.5494 -10.5122 -0.108725 53.5494 -8.62847e-07 53.5494)
(54.8674 -11.1232 -0.116747 54.8671 0.000369862 54.8674)
(54.8578 -11.1218 -0.11673 54.8578 1.02715e-05 54.8578)
(56.1908 -11.7905 -0.125884 56.1913 -0.000431489 56.1908)
(56.1812 -11.7888 -0.125864 56.1812 -7.60984e-07 56.1812)
(57.5304 -12.5888 -0.137107 57.53 0.000503955 57.5304)
(57.5203 -12.5867 -0.137082 57.5203 2.49788e-05 57.5203)
(58.8855 -13.6071 -0.151478 58.886 -0.000549217 58.8855)
(58.8754 -13.6045 -0.151448 58.8754 -4.32231e-07 58.8754)
(60.2572 -14.9244 -0.169853 60.2567 0.000599525 60.2572)
(60.2465 -14.9214 -0.169818 60.2465 1.1325e-05 60.2465)
(61.6435 -16.5847 -0.192626 61.6441 -0.000639398 61.6435)
(61.6329 -16.5813 -0.192586 61.6329 -2.86491e-07 61.633)
(63.0446 -18.5842 -0.219666 63.044 0.000679745 63.0446)
(63.0333 -18.5804 -0.219621 63.0333 -5.10182e-06 63.0334)
(64.4564 -20.8779 -0.250446 64.4571 -0.000729647 64.4564)
(64.4453 -20.8739 -0.250399 64.4453 -3.75121e-07 64.4453)
(65.8773 -23.4013 -0.284348 65.8766 0.000776422 65.8773)
(65.8655 -23.3972 -0.2843 65.8655 -0.000141827 65.8655)
(67.3012 -26.0909 -0.320794 67.302 -0.000975345 67.3012)
(67.2896 -26.0869 -0.320749 67.2896 -2.4811e-06 67.2896)
(68.7248 -28.875 -0.358888 68.724 0.00117625 68.7248)
(68.7124 -28.8714 -0.358849 68.7124 8.8111e-05 68.7124)
(70.1401 -31.6285 -0.396658 70.1409 -0.00130594 70.1401)
(70.128 -31.6256 -0.39663 70.128 -4.50275e-06 70.128)
(71.543 -34.1042 -0.43007 71.5422 0.00138764 71.543)
(71.53 -34.1026 -0.43006 71.53 2.88986e-05 71.53)
(72.9256 -35.865 -0.452097 72.9263 -0.00152825 72.9256)
(72.9127 -35.8652 -0.452114 72.9127 -1.1459e-05 72.9127)
(74.2867 -36.2425 -0.452276 74.2862 0.00153869 74.2867)
(74.2731 -36.2453 -0.45233 74.2731 -5.23411e-05 74.2731)
(75.6269 -34.3721 -0.417603 75.6278 -0.00174878 75.6269)
(75.6133 -34.3783 -0.417707 75.6133 -2.11094e-05 75.6133)
(76.9587 -29.3298 -0.334775 76.9586 0.00170595 76.9587)
(76.9443 -29.3402 -0.334941 76.9443 -6.97994e-05 76.9443)
(78.3011 -20.359 -0.193758 78.3019 -0.00203531 78.3011)
(78.2864 -20.3745 -0.193997 78.2864 -2.27628e-05 78.2864)
(79.6816 -0.0167102 -0.000111757 79.6818 0.00193283 79.6816)
(79.6662 -2.40256e-31 -7.53532e-16 79.6662 -3.9606e-05 79.6662)
(81.1234 1.22969 -0.00834365 81.1237 -0.0023697 81.1234)
(81.1074 1.18124 -0.00801491 81.1074 -6.81867e-06 81.1074)
(82.6283 29.8086 -0.268996 82.6285 0.00224343 82.6283)
(82.6116 29.7753 -0.268578 82.6116 3.83958e-05 82.6116)
(84.1528 50.6335 -0.565009 84.1523 -0.00269504 84.1528)
(84.1353 50.5946 -0.564501 84.1353 2.01135e-05 84.1353)
(85.6144 70.2372 -0.867863 85.6147 0.00260669 85.6144)
(85.5967 70.1938 -0.867274 85.5967 0.000108013 85.5967)
(86.9 86.4632 -1.14445 86.8989 -0.00295078 86.9)
(86.8816 86.4169 -1.1438 86.8816 3.7653e-05 86.8816)
(87.8861 97.6323 -1.36397 87.8869 0.00293975 87.8861)
(87.8685 97.5854 -1.36328 87.8685 9.35244e-05 87.8685)
(88.4768 102.858 -1.50435 88.4756 -0.00309109 88.4768)
(88.4589 102.813 -1.50366 88.4589 -0.000105053 88.4589)
(88.6171 102.148 -1.55605 88.6185 0.00310625 88.6171)
(88.6007 102.109 -1.55542 88.6007 -2.71306e-05 88.6008)
(88.3126 96.2825 -1.52255 88.3115 -0.00313134 88.3126)
(88.2963 96.2541 -1.52203 88.2963 -5.68728e-05 88.2964)
(87.6096 86.5226 -1.36113 87.6112 0.00314123 87.6096)
(87.5954 86.508 -1.361 87.5954 -9.79399e-06 87.5954)
(86.5921 74.2761 -0.736171 86.5911 -0.00311064 86.5921)
(86.5782 74.2786 -0.736105 86.5782 -4.53366e-06 86.5782)
(85.349 60.8329 -0.202839 85.3505 0.00311612 85.349)
(85.3371 60.8546 -0.202821 85.3371 2.99488e-07 85.3371)
(83.9721 47.2115 0.229471 83.9712 -0.00308358 83.9721)
(83.9603 47.2496 0.229456 83.9603 -0.000220105 83.9603)
(82.533 34.1188 0.457736 82.5341 0.00125622 82.533)
(82.5226 34.1661 0.458558 82.5226 -8.41896e-20 82.5226)
(81.091 21.9873 0.270861 81.0901 -0.000146112 81.091)
(81.0805 22.0375 0.271705 81.0805 0.000290634 81.0805)
(79.6816 11.048 0.0999537 79.6824 8.82505e-05 79.6816)
(79.672 11.0976 0.100779 79.672 3.6806e-21 79.672)
(78.3283 -7.23887e-20 -0 78.3275 -9.73591e-05 78.3283)
(78.3185 0.0564989 0.000482964 78.3185 2.08581e-05 78.3185)
(77.0373 -6.13806 0.0532324 77.0373 1.32889e-05 77.0373)
(77.0251 -6.04678 0.0524408 77.0337 8.19956e-05 77.0251)
(75.8078 -13.9166 0.187848 75.8071 -6.17111e-05 75.8078)
(75.7986 -13.8754 0.187098 75.7986 1.92885e-05 75.7986)
(74.6291 -19.6613 0.303414 74.6291 1.1298e-05 74.6291)
(74.6187 -19.6239 0.302714 74.6243 5.92268e-05 74.6187)
(73.489 -24.2267 0.400222 73.4884 -3.79685e-05 73.489)
(73.4807 -24.1941 0.399586 73.4807 1.61377e-05 73.4807)
(72.3721 -27.7191 0.273934 72.3721 9.17298e-06 72.3721)
(72.3635 -27.6936 0.273917 72.3668 3.88046e-05 72.3635)
(71.2651 -30.2686 0.00398646 71.2646 -2.42971e-05 71.2651)
(71.2581 -30.2531 0.00398444 71.2581 1.25673e-05 71.2581)
(70.1546 -32.0202 -0.290411 70.1546 6.62325e-06 70.1546)
(70.1481 -32.0155 -0.290399 70.1496 2.70807e-05 70.1481)
(69.0309 -33.1167 -0.602941 69.0305 -1.82096e-05 69.0309)
(69.0254 -33.1202 -0.602917 69.0254 4.34536e-07 69.0254)
(67.8847 -33.6805 -0.663134 67.8847 4.74999e-06 67.8847)
(67.8801 -33.6895 -0.663352 67.8805 1.86548e-05 67.8801)
(66.7104 -33.8039 -0.671341 66.7101 -2.08986e-05 66.7104)
(66.7064 -33.8162 -0.671606 66.7064 -3.46733e-21 66.7064)
(65.5029 -33.5435 -0.672297 65.5029 -5.6192e-06 65.5029)
(65.4996 -33.5572 -0.67258 65.4998 2.07423e-05 65.4996)
(64.2599 -32.9202 -0.665761 64.2597 -2.59947e-05 64.2599)
(64.2572 -32.9341 -0.666043 64.2572 -7.76337e-07 64.2572)
(62.9803 -31.9263 -0.650991 62.9803 -8.55404e-06 62.9803)
(62.9779 -31.9397 -0.651259 62.9783 1.68592e-05 62.9779)
(61.6653 -30.5373 -0.627003 61.6651 -2.68622e-05 61.6653)
(61.6634 -30.5497 -0.627251 61.6634 -6.50118e-06 61.6634)
(60.3178 -28.7257 -0.592851 60.3178 -1.19312e-05 60.3178)
(60.3162 -28.7369 -0.593079 60.3165 4.01114e-06 60.3162)
(58.9434 -26.4759 -0.547971 58.9432 -2.73674e-05 58.9434)
(58.9421 -26.486 -0.54818 58.9421 -1.29747e-05 58.9421)
(57.5494 -23.7979 -0.492479 57.5494 -1.3688e-05 57.5494)
(57.5483 -23.807 -0.492669 57.5485 -4.67732e-07 57.5483)
(56.1452 -20.7361 -0.427347 56.145 -2.55389e-05 56.1452)
(56.1443 -20.7443 -0.427521 56.1443 -1.33181e-05 56.1443)
(54.741 -17.371 -0.354407 54.741 -1.23904e-05 54.741)
(54.7402 -17.3784 -0.354566 54.7404 -8.14176e-07 54.7402)
(53.3476 -13.8147 -0.276282 53.3475 -2.06878e-05 53.3476)
(53.3469 -13.8214 -0.276426 53.3469 -1.03872e-05 53.3469)
(51.9748 -10.2046 -0.196259 51.9748 -8.07832e-06 51.9748)
(51.9741 -10.2105 -0.196388 51.9743 2.06089e-06 51.9741)
(50.6308 -6.68959 -0.117865 50.6307 -1.39956e-05 50.6308)
(50.6302 -6.6948 -0.11798 50.6302 -5.23022e-06 50.6302)
(49.3213 -3.4144 -0.0445909 49.3213 -6.10197e-07 49.3213)
(49.3208 -3.41891 -0.0446909 49.321 8.81156e-06 49.3208)
(48.0499 -5.13377e-14 -4.0964e-22 48.0498 -7.57682e-06 48.0499)
(48.0495 -0.003577 -4.32379e-05 48.0495 -6.72469e-09 48.0495)
(46.8174 1.66036 -0.0203618 46.8174 5.58235e-07 46.8174)
(46.817 1.65352 -0.020278 46.8171 7.50922e-06 46.817)
(45.6232 3.82103 -0.0744276 45.6231 -3.20229e-06 45.6232)
(45.6228 3.81867 -0.0743604 45.6228 3.45344e-06 45.6228)
(44.4652 5.13712 -0.115834 44.4652 4.17298e-06 44.4652)
(44.4649 5.1355 -0.115785 44.465 1.04667e-05 44.4649)
(43.3416 5.8724 -0.143513 43.3415 -1.35812e-06 43.3416)
(43.3413 5.87151 -0.143481 43.3413 4.51594e-06 43.3413)
(42.2505 6.05132 -0.157165 42.2505 4.28996e-06 42.2505)
(42.2502 6.05113 -0.157151 42.2503 9.60066e-06 42.2502)
(41.1911 5.71925 -0.157104 41.191 -1.25092e-06 41.1911)
(41.1908 5.71973 -0.157108 41.1908 3.91318e-06 41.1908)
(40.1634 4.93668 -0.144172 40.1634 3.27654e-06 40.1634)
(40.1632 4.93776 -0.144193 40.1632 7.8135e-06 40.1632)
(39.1682 3.77293 -0.119592 39.1681 -1.81435e-06 39.1682)
(39.168 3.77452 -0.119628 39.168 2.67995e-06 39.168)
(38.2066 2.30238 -0.0848352 38.2066 1.98308e-06 38.2066)
(38.2064 2.30437 -0.084885 38.2065 5.89122e-06 38.2064)
(37.2799 1.14554e-15 -0.0415894 37.2798 -2.54089e-06 37.2799)
(37.2797 0.00152298 -0.0416494 37.2797 1.34777e-06 37.2797)
(36.3886 -0.585555 -0.0628007 36.3886 5.38521e-07 36.3886)
(36.3885 -0.580868 -0.0627319 36.3885 3.89454e-06 36.3885)
(35.5326 -3.16522 -0.119614 35.5326 -3.68854e-06 35.5326)
(35.5325 -3.16286 -0.119548 35.5325 -2.9054e-07 35.5325)
(34.71 -5.06542 -0.176275 34.71 -1.34028e-06 34.71)
(34.7099 -5.06324 -0.176214 34.71 1.54378e-06 34.7099)
(33.9176 -6.86038 -0.230079 33.9176 -5.58867e-06 33.9176)
(33.9175 -6.8585 -0.230029 33.9175 -2.5809e-06 33.9175)
(33.1509 -8.46096 -0.278187 33.1509 -3.96663e-06 33.1509)
(33.1508 -8.45949 -0.27815 33.1508 -1.52924e-06 33.1508)
(32.4044 -9.7811 -0.317772 32.4043 -7.90777e-06 32.4044)
(32.4043 -9.7801 -0.317749 32.4043 -5.31179e-06 32.4043)
(31.6723 -10.7427 -0.346172 31.6723 -6.75787e-06 31.6723)
(31.6723 -10.7422 -0.346164 31.6724 -4.66474e-06 31.6723)
(30.9494 -11.2819 -0.361139 30.9494 -1.04354e-05 30.9494)
(30.9495 -11.2819 -0.361147 30.9495 -8.16907e-06 30.9495)
(30.2318 -11.3559 -0.361087 30.2318 -9.63057e-06 30.2318)
(30.2318 -11.3563 -0.361108 30.2319 -7.79963e-06 30.2318)
(29.5173 -10.9489 -0.345321 29.5173 -1.32019e-05 29.5173)
(29.5174 -10.9498 -0.345354 29.5174 -1.12044e-05 29.5174)
(28.8065 -10.0761 -0.314157 28.8065 -1.3048e-05 28.8065)
(28.8066 -10.0772 -0.314198 28.8066 -1.14917e-05 28.8066)
(28.102 -8.78416 -0.269029 28.1019 -1.71621e-05 28.102)
(28.1021 -8.78551 -0.269077 28.1021 -1.53362e-05 28.1021)
(27.4081 -7.14936 -0.212392 27.4081 -1.8249e-05 27.4081)
(27.4082 -7.15084 -0.212444 27.4082 -1.70264e-05 27.4082)
(26.7302 -5.2714 -0.147557 26.7302 -2.36553e-05 26.7302)
(26.7303 -5.27294 -0.147611 26.7303 -2.1899e-05 26.7303)
(26.0734 -3.26504 -0.0784023 26.0734 -2.63498e-05 26.0734)
(26.0735 -3.26656 -0.0784546 26.0735 -2.54784e-05 26.0735)
(25.4416 -0.51089 -0.0089884 25.4416 -3.31454e-05 25.4416)
(25.4417 -0.513701 -0.00903785 25.4417 -3.14226e-05 25.4417)
(24.8373 0.00116789 -2.08462e-05 24.8373 -3.69214e-05 24.8373)
(24.8374 4.36342e-14 -8.79279e-16 24.8375 -3.62715e-05 24.8374)
(24.2605 2.37177 -0.0568095 24.2605 -4.39431e-05 24.2605)
(24.2607 2.37061 -0.0567646 24.2607 -4.23458e-05 24.2607)
(23.7094 3.80542 -0.115582 23.7094 -4.70931e-05 23.7094)
(23.7096 3.80446 -0.115543 23.7096 -4.63895e-05 23.7096)
(23.1813 4.91717 -0.164718 23.1813 -5.17287e-05 23.1813)
(23.1814 4.91641 -0.164686 23.1814 -5.05331e-05 23.1814)
(22.6727 5.69151 -0.202576 22.6727 -5.19306e-05 22.6727)
(22.6728 5.69095 -0.202551 22.6728 -5.08715e-05 22.6728)
(22.1808 6.14259 -0.228637 22.1808 -5.10621e-05 22.1808)
(22.1809 6.14224 -0.22862 22.1809 -5.05789e-05 22.1809)
(21.7033 6.30926 -0.243448 21.7033 -4.60923e-05 21.7033)
(21.7034 6.30908 -0.243438 21.7034 -4.43836e-05 21.7034)
(21.2388 6.24803 -0.248449 21.2388 -3.80602e-05 21.2388)
(21.2389 6.24799 -0.248445 21.2389 -3.75651e-05 21.2389)
(20.787 6.02567 -0.245732 20.787 -2.76923e-05 20.787)
(20.7871 6.02573 -0.245733 20.7871 -2.53783e-05 20.7871)
(20.348 5.71138 -0.23779 20.348 -1.36801e-05 20.348)
(20.3481 5.71149 -0.237794 20.3481 -1.31416e-05 20.3481)
(19.9225 5.36881 -0.227199 19.9225 -1.31394e-07 19.9225)
(19.9226 5.36894 -0.227204 19.9226 2.55478e-06 19.9226)
(19.5114 5.05032 -0.216302 19.5113 1.54647e-05 19.5114)
(19.5114 5.05043 -0.216307 19.5114 1.60536e-05 19.5114)
(19.1151 4.79392 -0.207023 19.1151 2.80544e-05 19.1151)
(19.1152 4.79399 -0.207027 19.1152 3.02206e-05 19.1152)
(18.7344 4.62209 -0.200738 18.7343 3.97612e-05 18.7344)
(18.7344 4.6221 -0.20074 18.7344 4.04092e-05 18.7344)
(18.3691 4.54212 -0.198221 18.3691 4.77488e-05 18.3691)
(18.3692 4.54206 -0.19822 18.3692 4.90479e-05 18.3692)
(18.0195 4.54788 -0.199639 18.0194 5.20954e-05 18.0195)
(18.0195 4.54776 -0.199635 18.0195 5.28137e-05 18.0195)
(17.6848 4.62295 -0.204623 17.6848 5.39695e-05 17.6848)
(17.6849 4.62278 -0.204616 17.6849 5.45074e-05 17.6849)
(17.3647 4.74391 -0.212385 17.3646 5.11905e-05 17.3647)
(17.3647 4.7437 -0.212376 17.3647 5.26038e-05 17.3647)
(17.0581 4.88387 -0.221843 17.0581 4.76425e-05 17.0581)
(17.0581 4.88365 -0.221833 17.0581 4.81981e-05 17.0581)
(16.7641 5.01625 -0.231771 16.7641 4.09995e-05 16.7641)
(16.7641 5.01603 -0.23176 16.7641 4.28859e-05 16.7641)
(16.4818 5.11746 -0.240975 16.4818 3.52183e-05 16.4818)
(16.4818 5.11726 -0.240964 16.4818 3.57848e-05 16.4818)
(16.2103 5.16869 -0.248371 16.2103 2.76746e-05 16.2103)
(16.2103 5.16852 -0.248362 16.2103 2.96411e-05 16.2103)
(15.9489 5.15759 -0.253101 15.9489 2.23478e-05 15.9489)
(15.9489 5.15747 -0.253094 15.9489 2.04853e-05 15.9489)
(15.6973 5.07885 -0.254607 15.6973 1.5928e-05 15.6973)
(15.6972 5.07878 -0.254603 15.6972 7.28958e-06 15.6972)
(15.4554 4.93363 -0.252655 15.4554 1.24515e-05 15.4554)
(15.4553 4.93361 -0.252653 15.4553 -9.80636e-07 15.4553)
(15.2234 4.72888 -0.247306 15.2234 7.7388e-06 15.2234)
(15.2233 4.72892 -0.247306 15.2233 -9.11951e-07 15.2233)
(15.0019 4.47652 -0.238918 15.0019 4.73966e-06 15.0019)
(15.0018 4.47661 -0.238922 15.0018 -6.40194e-07 15.0018)
(14.7916 4.19183 -0.228103 14.7916 -7.53105e-07 14.7916)
(14.7915 4.19195 -0.228108 14.7915 -8.69973e-07 14.7915)
(14.5935 3.892 -0.215637 14.5935 -5.33928e-07 14.5935)
(14.5933 3.89215 -0.215645 14.5934 -3.79076e-07 14.5933)
(14.4083 3.59514 -0.202425 14.4083 -2.1488e-06 14.4083)
(14.4081 3.59529 -0.202434 14.4081 -6.27427e-07 14.4081)
(14.2369 3.31932 -0.189446 14.2369 -5.34243e-07 14.2369)
(14.2367 3.31946 -0.189454 14.2367 -1.94276e-07 14.2367)
(14.0801 3.08181 -0.177715 14.08 -2.35214e-06 14.08)
(14.0799 3.08191 -0.177722 14.0799 -4.48812e-07 14.0799)
(13.9383 2.89858 -0.168238 13.9383 -5.32643e-07 13.9383)
(13.9381 2.89863 -0.168242 13.9381 -6.56692e-08 13.9381)
(13.8121 2.78372 -0.161999 13.8121 -2.65909e-06 13.8121)
(13.8118 2.7837 -0.161999 13.8118 -2.78705e-07 13.8118)
(13.7016 2.74923 -0.1599 13.7016 -7.44346e-07 13.7016)
(13.7012 2.74911 -0.159896 13.7013 6.58205e-08 13.7012)
(13.6067 2.80514 -0.162783 13.6067 -2.86225e-06 13.6067)
(13.6063 2.8049 -0.162773 13.6063 -2.37796e-07 13.6063)
(13.5271 2.95848 -0.171411 13.5271 -5.34074e-07 13.5271)
(13.5268 2.95811 -0.171393 13.5268 2.43988e-07 13.5268)
(13.4625 3.21244 -0.186343 13.4625 -2.83423e-06 13.4625)
(13.462 3.21192 -0.186316 13.462 -1.20176e-07 13.462)
(13.4117 3.56603 -0.20793 13.4117 -5.32326e-07 13.4117)
(13.4112 3.56534 -0.207893 13.4112 3.36086e-07 13.4112)
(13.3736 4.01323 -0.236247 13.3736 -2.72274e-06 13.3736)
(13.373 4.01234 -0.236197 13.373 -7.74434e-09 13.373)
(13.3462 4.54214 -0.271013 13.3462 -5.27519e-07 13.3462)
(13.3456 4.54101 -0.270949 13.3456 4.11202e-07 13.3456)
(13.3274 5.13456 -0.311513 13.3274 -2.64455e-06 13.3274)
(13.3267 5.13313 -0.311431 13.3267 8.37946e-08 13.3267)
(13.314 5.76603 -0.356569 13.314 -5.20804e-07 13.314)
(13.3133 5.76424 -0.356465 13.3133 4.5651e-07 13.3133)
(13.3027 6.40589 -0.404511 13.3027 -2.59624e-06 13.3027)
(13.3019 6.40361 -0.404378 13.3019 1.39606e-07 13.3019)
(13.2893 7.01833 -0.453149 13.2893 -7.31333e-07 13.2893)
(13.2885 7.01535 -0.452976 13.2885 4.60161e-07 13.2885)
(13.2697 7.56395 -0.499889 13.2697 -2.57289e-06 13.2697)
(13.2688 7.55995 -0.499657 13.2688 1.49992e-07 13.2688)
(13.2398 8.00191 -0.54178 13.2398 -9.38835e-07 13.2398)
(13.2389 7.99646 -0.541461 13.2389 4.17763e-07 13.2389)
(13.196 8.29281 -0.575725 13.196 -2.57061e-06 13.196)
(13.1951 8.2855 -0.575282 13.1951 1.14905e-07 13.1951)
(13.1356 8.40143 -0.598663 13.1356 -1.13548e-06 13.1356)
(13.1347 8.39235 -0.59807 13.1347 3.40722e-07 13.1347)
(13.0573 8.29918 -0.421882 13.0573 -2.5836e-06 13.0573)
(13.0566 8.28995 -0.421848 13.0566 5.23189e-08 13.0566)
(12.9618 7.96657 -0.126305 12.9618 -1.31834e-06 12.9618)
(12.9613 7.96192 -0.126276 12.9613 2.60898e-07 12.9613)
(12.8514 7.39807 0.160208 12.8514 -2.64194e-06 12.8514)
(12.8511 7.40238 0.160233 12.8511 4.61753e-08 12.8511)
(12.7301 6.60372 0.428056 12.7301 -1.593e-06 12.7301)
(12.7299 6.61425 0.428076 12.7299 3.29358e-07 12.7299)
(12.6031 5.60404 0.388656 12.603 -2.80278e-06 12.6031)
(12.603 5.61505 0.389444 12.603 1.81364e-07 12.603)
(12.4764 4.42871 0.296375 12.4764 -1.8721e-06 12.4764)
(12.4764 4.43777 0.296988 12.4765 4.87865e-07 12.4764)
(12.3563 3.11611 0.192103 12.3562 -2.95424e-06 12.3562)
(12.3563 3.123 0.192571 12.3563 3.75293e-07 12.3563)
(12.2477 1.71202 0.0794284 12.2477 -2.11409e-06 12.2477)
(12.2477 1.71736 0.0798106 12.2477 7.11262e-07 12.2477)
(12.1544 -4.44767e-17 -7.63437e-22 12.1543 -3.09538e-06 12.1544)
(12.1543 0.00284983 0.000115827 12.1543 6.08189e-07 12.1543)
(12.0778 -0.92538 0.0381576 12.0778 -2.32466e-06 12.0778)
(12.0778 -0.916605 0.0377957 12.0778 9.61743e-07 12.0778)
(12.0176 -2.54336 0.157214 12.0176 -3.23046e-06 12.0176)
(12.0176 -2.53798 0.156814 12.0176 8.35212e-07 12.0176)
(11.9706 -3.81243 0.272572 11.9706 -2.51925e-06 11.9706)
(11.9705 -3.80544 0.272064 11.9705 1.18149e-06 11.9705)
(11.9322 -4.93488 0.380214 11.9322 -3.37842e-06 11.9322)
(11.9322 -4.92576 0.379525 11.9322 9.9521e-07 11.9322)
(11.8969 -5.87829 0.476443 11.8969 -2.70745e-06 11.8969)
(11.8969 -5.86792 0.47555 11.8969 1.33005e-06 11.8969)
(11.8587 -6.62089 0.322027 11.8587 -3.54661e-06 11.8587)
(11.8588 -6.61338 0.321989 11.8588 1.05983e-06 11.8588)
(11.8123 -7.15148 0.0143322 11.8123 -2.89096e-06 11.8123)
(11.8126 -7.15303 0.0142868 11.8126 1.40559e-06 11.8126)
(11.7535 -7.47346 -0.321051 11.7535 -3.82673e-06 11.7535)
(11.754 -7.48238 -0.321097 11.754 1.15529e-06 11.754)
(11.6792 -7.60024 -0.675071 11.6792 -3.28338e-06 11.6792)
(11.6799 -7.60957 -0.675119 11.6799 1.64241e-06 11.6799)
(11.5877 -7.548 -0.704074 11.5877 -4.26321e-06 11.5877)
(11.5884 -7.55522 -0.704635 11.5884 1.32785e-06 11.5884)
(11.4788 -7.34013 -0.687923 11.4788 -3.70245e-06 11.4788)
(11.4795 -7.34511 -0.688305 11.4795 1.90743e-06 11.4795)
(11.3538 -7.00489 -0.66017 11.3537 -4.74224e-06 11.3538)
(11.3544 -7.00824 -0.660434 11.3544 1.51723e-06 11.3544)
(11.2146 -6.57082 -0.623071 11.2146 -4.12537e-06 11.2146)
(11.2152 -6.57315 -0.623261 11.2152 2.22935e-06 11.2152)
(11.0643 -6.06626 -0.579076 11.0643 -5.2439e-06 11.0643)
(11.0649 -6.06794 -0.579219 11.0649 1.75381e-06 11.0649)
(10.906 -5.51772 -0.530394 10.906 -4.55206e-06 10.906)
(10.9065 -5.51898 -0.530506 10.9065 2.61666e-06 10.9065)
(10.743 -4.94748 -0.478925 10.743 -5.77723e-06 10.743)
(10.7435 -4.94846 -0.479015 10.7435 2.03568e-06 10.7435)
(10.5786 -4.37422 -0.426395 10.5786 -4.96905e-06 10.5786)
(10.5789 -4.375 -0.426468 10.579 3.09903e-06 10.5789)
(10.4156 -3.81264 -0.374086 10.4156 -1.03482e-05 10.4156)
(10.4159 -3.81327 -0.374146 10.4159 2.33442e-06 10.4159)
(10.2567 -3.27236 -0.322824 10.2567 -1.39958e-05 10.2567)
(10.257 -3.27288 -0.322874 10.257 3.6558e-06 10.257)
(10.1041 -2.75866 -0.273069 10.1041 -1.67901e-05 10.1041)
(10.1044 -2.75909 -0.273112 10.1044 2.66681e-06 10.1044)
(9.95976 -2.27269 -0.224809 9.95976 -1.66052e-05 9.95976)
(9.95996 -2.27305 -0.224846 9.95997 4.27147e-06 9.95996)
(9.8251 -1.8115 -0.177611 9.82509 -1.93719e-05 9.8251)
(9.82526 -1.81181 -0.177643 9.82527 3.01079e-06 9.82526)
(9.70132 -1.36857 -0.130617 9.70132 -1.84515e-05 9.70132)
(9.70145 -1.36885 -0.130647 9.70147 1.21424e-06 9.70145)
(9.58934 -0.934342 -0.0826185 9.58933 -2.10076e-05 9.58934)
(9.58945 -0.934593 -0.0826466 9.58945 -7.00938e-06 9.58945)
(9.4898 -0.49702 -0.0321185 9.4898 -1.90915e-05 9.4898)
(9.48988 -0.497261 -0.0321464 9.48989 -7.63601e-06 9.48988)
(9.40311 -0.000787132 -4.65638e-05 9.40311 -2.13363e-05 9.40311)
(9.40317 -0.000878475 -5.19673e-05 9.40317 -9.26674e-06 9.40317)
(9.32942 0.377394 -0.0226499 9.32942 -1.84728e-05 9.32942)
(9.32945 0.376903 -0.0226204 9.32947 -5.95716e-06 9.32945)
(9.2686 0.952934 -0.0833936 9.26859 -2.05593e-05 9.2686)
(9.26861 0.95266 -0.0833616 9.26862 -7.37807e-06 9.26861)
(9.22006 1.51297 -0.151021 9.22006 -1.69601e-05 9.22006)
(9.22005 1.51267 -0.150986 9.22007 -3.25892e-06 9.22005)
(9.18277 2.11668 -0.226234 9.18276 -1.94549e-05 9.18277)
(9.18274 2.11634 -0.226194 9.18275 -5.02824e-06 9.18274)
(9.15508 2.7586 -0.309029 9.15508 -1.53837e-05 9.15508)
(9.15502 2.75821 -0.308983 9.15504 -3.6287e-07 9.15502)
(9.13466 3.42647 -0.398536 9.13465 -1.89393e-05 9.13466)
(9.13458 3.42602 -0.398482 9.13459 -3.12782e-06 9.13458)
(9.11841 4.10094 -0.492903 9.11841 -1.47683e-05 9.11841)
(9.11831 4.10042 -0.492841 9.11832 1.70762e-06 9.11831)
(9.10253 4.75622 -0.589201 9.10253 -1.9951e-05 9.10253)
(9.10241 4.75563 -0.589128 9.10242 -2.61894e-06 9.10241)
(9.08266 5.36128 -0.683569 9.08266 -1.56224e-05 9.08266)
(9.08251 5.36059 -0.683482 9.08253 2.43484e-06 9.08251)
(9.05413 5.88179 -0.771262 9.05412 -2.26898e-05 9.05413)
(9.05396 5.88097 -0.77116 9.05396 -3.71679e-06 9.05396)
(9.01239 6.28291 -0.847058 9.01239 -1.77306e-05 9.01239)
(9.01219 6.28192 -0.846934 9.01221 2.01324e-06 9.01219)
(8.95347 6.53172 -0.905567 8.95346 -2.65569e-05 8.95347)
(8.95325 6.53047 -0.905413 8.95325 -5.84711e-06 8.95325)
(8.87448 6.60059 -0.941582 8.87448 -2.03014e-05 8.87448)
(8.87425 6.59894 -0.941381 8.87427 1.20892e-06 8.87425)
(8.77411 6.4701 -0.95073 8.7741 -3.03901e-05 8.77411)
(8.77386 6.46781 -0.950456 8.77386 -7.86956e-06 8.77386)
(8.65284 6.13159 -0.929728 8.65284 -2.20568e-05 8.65284)
(8.65259 6.12841 -0.929336 8.65261 1.2854e-06 8.65259)
(8.5131 5.58865 -0.739684 8.51309 -3.30122e-05 8.5131)
(8.51287 5.58462 -0.739584 8.51287 -8.6089e-06 8.51287)
(8.35918 4.85723 -0.34751 8.35918 -2.20116e-05 8.35918)
(8.359 4.85359 -0.347383 8.35902 3.24211e-06 8.359)
(8.19666 3.96649 -0.00986558 8.19666 -3.38137e-05 8.19666)
(8.19655 3.96671 -0.00971317 8.19655 -7.42194e-06 8.19655)
(8.03133 2.95846 0.26019 8.03133 -1.97498e-05 8.03133)
(8.03127 2.96361 0.260327 8.03129 7.70383e-06 8.03127)
(7.86842 1.8842 0.211946 7.86842 -3.34437e-05 7.86842)
(7.8684 1.89093 0.212983 7.8684 -4.78995e-06 7.8684)
(7.71206 0.515142 0.0412657 7.71206 -1.60264e-05 7.71206)
(7.71205 0.526302 0.0421596 7.71207 1.3614e-05 7.71205)
(7.56498 -0.00244842 0.000198983 7.56497 -3.28003e-05 7.56498)
(7.56497 -9.84333e-16 6.39141e-31 7.56497 -1.84379e-06 7.56497)
(7.42734 -1.19668 0.123863 7.42734 -1.22191e-05 7.42734)
(7.42732 -1.1913 0.122992 7.42734 1.98591e-05 7.42732)
(7.29778 -2.00322 0.2738 7.29778 -3.32167e-05 7.29778)
(7.29778 -1.99829 0.272889 7.29778 3.29914e-07 7.29778)
(7.17382 -2.62989 0.199054 7.17382 -9.71333e-06 7.17382)
(7.17383 -2.62765 0.198916 7.17386 2.50985e-05 7.17383)
(7.05262 -3.05344 -0.047766 7.05261 -3.57425e-05 7.05262)
(7.05268 -3.05513 -0.0479146 7.05268 7.31985e-07 7.05268)
(6.93173 -3.26626 -0.32798 6.93173 -8.59133e-06 6.93173)
(6.93182 -3.2698 -0.328106 6.93185 2.94422e-05 6.93182)
(6.80946 -3.27475 -0.574307 6.80946 -4.03004e-05 6.80946)
(6.80957 -3.27793 -0.574793 6.80957 -4.794e-07 6.80957)
(6.68519 -3.09944 -0.535658 6.68519 -8.38964e-06 6.68519)
(6.68529 -3.10175 -0.535997 6.68532 3.30025e-05 6.68529)
(6.55966 -2.77299 -0.471513 6.55965 -4.61967e-05 6.55966)
(6.55976 -2.77458 -0.471751 6.55976 -2.89134e-06 6.55976)
(6.43447 -2.33695 -0.389262 6.43447 -8.03582e-06 6.43447)
(6.43455 -2.33807 -0.389434 6.43458 3.69968e-05 6.43455)
(6.31164 -1.83723 -0.296873 6.31163 -5.28947e-05 6.31164)
(6.31171 -1.83804 -0.297003 6.31171 -5.78043e-06 6.31171)
(6.19308 -1.31843 -0.202223 6.19308 -7.06382e-06 6.19308)
(6.19313 -1.31905 -0.202325 6.19317 4.22563e-05 6.19313)
(6.08037 -0.821199 -0.112697 6.08036 -5.98401e-05 6.08037)
(6.08042 -0.821666 -0.112775 6.08042 -7.15515e-06 6.08042)
(5.97449 -0.353022 -0.034613 5.97449 -7.33194e-06 5.97449)
(5.97452 -0.353623 -0.0346718 5.97455 4.90095e-05 5.97452)
(5.87594 -1.1956e-14 -0 5.87593 -6.76545e-05 5.87594)
(5.87597 -2.73727e-05 -2.72285e-06 5.87597 -7.30284e-06 5.87597)
(5.78474 0.242516 -0.0277266 5.78474 -7.37108e-06 5.78474)
(5.78476 0.242351 -0.0276848 5.78479 5.73056e-05 5.78476)
(5.70076 0.402148 -0.0713527 5.70075 -7.68188e-05 5.70076)
(5.70077 0.402064 -0.0713275 5.70077 -7.42349e-06 5.70077)
(5.62376 0.462072 -0.0947395 5.62376 -7.57884e-06 5.62376)
(5.62376 0.462063 -0.0947302 5.6238 6.69481e-05 5.62376)
(5.5536 0.432379 -0.0986337 5.55359 -8.791e-05 5.5536)
(5.55361 0.432435 -0.0986392 5.55361 -7.88349e-06 5.55361)
(5.49019 0.327365 -0.0847626 5.49019 -8.33257e-06 5.49019)
(5.49019 0.327473 -0.084781 5.49023 7.77887e-05 5.49019)
(5.43352 0.144176 -0.0558892 5.43352 -0.000101391 5.43352)
(5.43353 0.144486 -0.0559175 5.43353 -8.71886e-06 5.43353)
(5.38357 -0.00168207 -0.0307987 5.38357 -9.24945e-06 5.38357)
(5.38356 -0.00155742 -0.0307634 5.3836 9.06361e-05 5.38356)
(5.34025 -0.250306 -0.0808143 5.34025 -0.000117409 5.34025)
(5.34026 -0.250151 -0.0807812 5.34026 -9.75437e-06 5.34026)
(5.30337 -0.470525 -0.131275 5.30337 -1.0318e-05 5.30337)