/*--------------------------------*- C++ -*----------------------------------*\
| =========                 |                                                 |
| \\      /  F ield         | OpenFOAM: The Open Source CFD Toolbox           |
|  \\    /   O peration     | Version:  2012                                  |
|   \\  /    A nd           | Website:  www.openfoam.com                      |
|    \\/     M anipulation  |                                                 |
\*---------------------------------------------------------------------------*/
FoamFile
{
    version     2.0;
    format      ascii;
    class       volVectorField;
    location    "11200";
    object      U;
}
// * * * * * * * * * * * * * * * * * * * * * * * * * * * * * * * * * * * * * //

dimensions      [0 1 -1 0 0 0 0];


internalField   nonuniform List<vector> 
2560
(
(0.0255437 -2.58117e-05 0.000463298)
(0.0255147 -1.25818e-05 5.52454e-08)
(0.0767469 -1.05014e-05 0.000679697)
(0.0766601 1.59519e-05 1.68198e-08)
(0.128493 -2.34339e-05 0.000526417)
(0.12835 2.63827e-05 6.32025e-09)
(0.180785 -3.30066e-05 0.000295919)
(0.180588 3.2851e-05 2.6085e-09)
(0.233627 -3.66116e-05 0.000157897)
(0.233381 3.65877e-05 6.26897e-10)
(0.287025 -3.86977e-05 9.46449e-05)
(0.286733 3.86615e-05 1.81137e-10)
(0.340942 -4.00575e-05 6.40381e-05)
(0.34061 4.00744e-05 1.3335e-10)
(0.395313 -4.11337e-05 4.73162e-05)
(0.394946 4.10534e-05 2.75559e-11)
(0.45007 -4.18442e-05 3.71562e-05)
(0.449673 4.19018e-05 8.73223e-11)
(0.505207 -4.26048e-05 3.04654e-05)
(0.504784 4.24729e-05 9.87158e-12)
(0.56079 -4.30264e-05 2.57854e-05)
(0.560347 4.31282e-05 9.35268e-11)
(0.616837 -4.36507e-05 2.23582e-05)
(0.616378 4.3475e-05 5.32041e-36)
(0.673367 -4.39166e-05 1.97573e-05)
(0.672896 4.40634e-05 9.24073e-11)
(0.730431 -4.4437e-05 1.77161e-05)
(0.729952 5.79363e-05 5.13638e-08)
(0.788008 -4.47263e-05 1.6107e-05)
(0.787525 1.74989e-05 3.0276e-21)
(0.845989 -4.49798e-05 1.47667e-05)
(0.845505 9.90947e-05 1.1569e-07)
(0.904221 -4.57332e-05 1.37047e-05)
(0.903739 -3.79654e-05 8.58921e-10)
(0.962542 -4.53544e-05 1.27911e-05)
(0.962065 0.000133319 4.58336e-08)
(1.02094 -4.64514e-05 1.20278e-05)
(1.02046 -5.15678e-05 1.10476e-09)
(1.0796 -4.55855e-05 1.1365e-05)
(1.07914 0.00014809 4.47028e-08)
(1.13883 -4.72879e-05 1.08039e-05)
(1.13837 -6.51675e-05 7.5568e-10)
(1.19877 -4.57398e-05 1.03065e-05)
(1.19833 0.000162694 4.29839e-08)
(1.25946 -4.80975e-05 9.8822e-06)
(1.25903 -7.8695e-05 3.9345e-36)
(1.32081 -4.57051e-05 9.47418e-06)
(1.32039 0.000203766 1.52487e-07)
(1.38279 -4.90685e-05 9.17518e-06)
(1.38238 -0.000145554 0)
(1.44536 -4.56277e-05 8.85167e-06)
(1.44497 0.000272711 1.72574e-07)
(1.50848 -5.02436e-05 8.63116e-06)
(1.50811 -0.000216719 2.29822e-09)
(1.5721 -4.53574e-05 8.39739e-06)
(1.57173 0.000321534 8.54934e-08)
(1.6361 -5.15264e-05 8.21082e-06)
(1.63575 -0.000242782 4.42724e-09)
(1.7004 -4.48123e-05 8.02585e-06)
(1.70006 0.00034897 8.82257e-08)
(1.76498 -5.30103e-05 7.88238e-06)
(1.76466 -0.000269845 4.03559e-09)
(1.83001 -4.39838e-05 7.73423e-06)
(1.82969 0.00037686 8.38732e-08)
(1.89585 -5.47733e-05 7.62265e-06)
(1.89554 -0.000296741 1.82748e-09)
(1.96308 -4.27824e-05 7.50299e-06)
(1.96278 0.000404399 7.79139e-08)
(2.03234 -5.69069e-05 7.41677e-06)
(2.03205 -0.000323055 -1.42452e-37)
(2.10421 -4.117e-05 7.28562e-06)
(2.10392 0.000462249 2.27738e-07)
(2.17908 -5.95709e-05 7.26075e-06)
(2.17879 -0.000411417 1.32183e-21)
(2.25712 -3.90872e-05 7.03315e-06)
(2.25684 0.000651683 7.43648e-07)
(2.33832 -6.28259e-05 7.15978e-06)
(2.33804 -0.000703903 0)
(2.42256 -3.64537e-05 6.91023e-06)
(2.42228 0.00098259 9.74478e-07)
(2.50973 -6.66523e-05 7.11546e-06)
(2.50945 -0.00107733 -5.03308e-37)
(2.59999 -3.32597e-05 6.93523e-06)
(2.59971 0.00132077 8.2361e-07)
(2.69395 -7.09994e-05 7.12113e-06)
(2.69366 -0.00138327 0)
(2.79285 -2.95066e-05 7.05693e-06)
(2.79256 0.00155441 4.50155e-07)
(2.89856 -7.58513e-05 7.16504e-06)
(2.89825 -0.00154469 -3.63662e-37)
(3.01333 -2.51997e-05 7.15776e-06)
(3.01301 0.00168664 2.88217e-07)
(3.13947 -8.12943e-05 7.23938e-06)
(3.13914 -0.00164619 2.52047e-36)
(3.27902 -2.02573e-05 7.22896e-06)
(3.27868 0.00180207 3.65859e-07)
(3.4335 -8.74427e-05 7.34435e-06)
(3.43315 -0.00177433 -4.55853e-37)
(3.60394 -1.45785e-05 6.87202e-06)
(3.60358 0.00226353 2.35424e-06)
(3.79097 -9.38734e-05 7.50166e-06)
(3.7906 -0.00257668 1.25026e-21)
(3.99466 -8.22559e-06 7.37376e-06)
(3.99429 0.00285745 1.18778e-06)
(4.21401 -0.000100245 7.74306e-06)
(4.21365 -0.00296121 4.33827e-08)
(4.44594 -1.87275e-06 7.84724e-06)
(4.4456 0.00314682 8.19279e-07)
(4.68391 -0.000106692 8.1963e-06)
(4.68361 -0.00315208 1.8333e-07)
(4.91647 3.08313e-06 8.43872e-06)
(4.91622 0.00337322 1.51313e-06)
(5.12641 -0.000113836 9.09605e-06)
(5.12623 -0.0034155 4.37855e-07)
(5.29105 5.53491e-06 9.56204e-06)
(5.29098 0.00368433 2.42757e-06)
(5.38433 -0.000120864 1.06119e-05)
(5.38438 -0.00378236 7.00014e-07)
(5.38048 6.35118e-06 1.12869e-05)
(5.38068 0.00408412 2.95587e-06)
(5.25879 -0.000124749 1.2558e-05)
(5.25916 -0.00422334 7.53296e-07)
(5.00823 7.18225e-06 1.32671e-05)
(5.0088 0.00451491 2.50607e-06)
(4.6306 -0.000123482 1.43648e-05)
(4.63138 -0.00464252 4.76794e-07)
(4.14124 7.505e-06 1.48848e-05)
(4.14224 0.00488262 1.19368e-06)
(3.56691 -0.000118621 1.54915e-05)
(3.56814 -0.00494727 0)
(2.94159 4.81186e-06 1.57158e-05)
(2.94304 0.00513454 5.37399e-08)
(2.30139 -0.000113016 1.5552e-05)
(2.30303 -0.00498206 1.30116e-06)
(1.67981 -1.64903e-06 1.55892e-05)
(1.6816 0.00511493 3.73238e-07)
(1.10429 -0.000107945 1.51813e-05)
(1.10617 -0.00493926 2.02718e-06)
(0.594603 -1.01272e-05 1.51722e-05)
(0.596476 0.00504744 4.72988e-07)
(0.16281 -0.000103232 1.4757e-05)
(0.164572 -0.00487783 2.1077e-06)
(-0.185662 -1.83869e-05 1.47886e-05)
(-0.184131 0.0049873 4.45345e-07)
(-0.450446 -9.86964e-05 1.02538e-06)
(-0.449227 -0.00021057 5.01477e-06)
(-0.634644 -2.45131e-05 8.64404e-07)
(-0.633769 0.000285102 5.0643e-07)
(-0.743532 -9.35303e-05 8.11599e-07)
(-0.743004 -0.000122882 1.17056e-06)
(-0.783669 -2.95134e-05 6.58555e-07)
(-0.783475 0.000209238 3.76471e-07)
(-0.762356 -8.88962e-05 6.09327e-07)
(-0.762478 -5.60981e-05 8.93996e-07)
(-0.687288 -3.37802e-05 4.73356e-07)
(-0.687704 0.000152647 2.76894e-07)
(-0.566294 -8.49216e-05 4.3027e-07)
(-0.566983 -9.52204e-06 6.29696e-07)
(-0.407061 -3.74346e-05 3.11945e-07)
(-0.407992 0.000114647 1.89619e-07)
(-0.216898 -8.15322e-05 2.76957e-07)
(-0.218033 1.99524e-05 4.01801e-07)
(-0.00251504 -4.06014e-05 1.77664e-07)
(-0.00379618 9.19566e-05 1.34743e-07)
(0.230183 -7.85641e-05 1.55601e-07)
(0.228843 3.57941e-05 2.18754e-07)
(0.47622 -4.32463e-05 7.8261e-08)
(0.474892 8.09386e-05 1.88532e-07)
(0.731476 -7.59572e-05 6.79717e-08)
(0.730211 4.2119e-05 2.12569e-07)
(0.992538 -4.54639e-05 5.07027e-09)
(0.991369 7.82651e-05 2.32282e-07)
(1.25646 -7.36852e-05 6.73068e-08)
(1.2554 4.15894e-05 2.2569e-07)
(1.52048 -4.73589e-05 9.32483e-08)
(1.51954 7.73751e-05 2.2783e-07)
(1.78176 -7.17534e-05 1.75105e-07)
(1.78094 4.41654e-05 2.38138e-07)
(2.03719 -4.90469e-05 2.31519e-07)
(2.03648 7.50689e-05 2.41144e-07)
(2.28326 -7.0164e-05 3.42008e-07)
(2.28265 4.63148e-05 3.45653e-07)
(2.51607 -5.06027e-05 4.30305e-07)
(2.51556 7.29679e-05 4.27676e-07)
(2.7315 -6.88957e-05 5.62361e-07)
(2.73107 4.807e-05 5.65785e-07)
(2.92538 -5.20414e-05 6.65611e-07)
(2.92503 7.10501e-05 6.63417e-07)
(3.09392 -6.78433e-05 7.95721e-07)
(3.09364 4.95441e-05 7.98954e-07)
(3.23398 -5.33137e-05 8.85584e-07)
(3.23376 6.93567e-05 8.8379e-07)
(3.3434 -6.69219e-05 9.83771e-07)
(3.34324 5.08298e-05 9.86833e-07)
(3.4213 -5.43165e-05 1.03371e-06)
(3.4212 6.79841e-05 1.03227e-06)
(3.46819 -6.60367e-05 1.08173e-06)
(3.46813 5.20284e-05 1.08463e-06)
(3.48597 -5.50686e-05 1.0823e-06)
(3.48595 6.69071e-05 1.08119e-06)
(3.47782 -6.5156e-05 1.08207e-06)
(3.47783 5.31774e-05 1.08481e-06)
(3.44797 -5.56546e-05 1.04393e-06)
(3.44801 6.60358e-05 1.0431e-06)
(3.40143 -6.43258e-05 1.01339e-06)
(3.40149 5.42361e-05 1.01598e-06)
(3.34367 -5.61449e-05 9.59102e-07)
(3.34375 6.52946e-05 9.58512e-07)
(3.28033 -6.36433e-05 9.20589e-07)
(3.28041 5.51117e-05 9.2304e-07)
(3.21692 -5.65983e-05 8.6915e-07)
(3.21699 6.46199e-05 8.68781e-07)
(3.15865 -6.31087e-05 8.3761e-07)
(3.15872 5.58087e-05 8.39948e-07)
(3.11027 -5.70371e-05 7.98262e-07)
(3.11032 6.3985e-05 7.98106e-07)
(3.07591 -6.26734e-05 7.79024e-07)
(3.07595 5.63794e-05 7.81285e-07)
(3.05906 -5.74398e-05 7.54003e-07)
(3.05907 6.34078e-05 7.54069e-07)
(3.06242 -6.22845e-05 7.48715e-07)
(3.0624 5.68798e-05 7.50948e-07)
(3.08789 -5.77628e-05 7.41616e-07)
(3.08784 6.29284e-05 7.41928e-07)
(3.1364 -6.19471e-05 7.55638e-07)
(3.13633 5.73076e-05 7.57903e-07)
(3.20789 -5.80156e-05 7.73351e-07)
(3.2078 6.25346e-05 7.73952e-07)
(3.30119 -6.1619e-05 8.17689e-07)
(3.30107 5.77074e-05 8.20056e-07)
(3.41395 -5.82946e-05 8.69946e-07)
(3.41382 6.21276e-05 8.70885e-07)
(3.5427 -6.1365e-05 9.48822e-07)
(3.54256 5.80162e-05 9.51364e-07)
(3.68288 -5.85135e-05 1.03915e-06)
(3.68274 6.17916e-05 1.04048e-06)
(3.82906 -6.117e-05 1.15611e-06)
(3.82892 5.82509e-05 1.15889e-06)
(3.97516 -5.86883e-05 1.28713e-06)
(3.97503 6.15085e-05 1.28888e-06)
(4.11486 -6.09582e-05 1.44858e-06)
(4.11474 5.84886e-05 1.45165e-06)
(4.24194 -5.87893e-05 1.63288e-06)
(4.24185 6.13066e-05 1.63507e-06)
(4.35078 -6.06916e-05 1.86073e-06)
(4.3507 5.87686e-05 1.8641e-06)
(4.43671 -5.88132e-05 2.13074e-06)
(4.43665 6.11876e-05 2.13336e-06)
(4.49641 -6.04038e-05 2.46671e-06)
(4.49637 5.90583e-05 2.47036e-06)
(4.52812 -5.88135e-05 2.87061e-06)
(4.52811 6.10967e-05 2.87361e-06)
(4.53176 -6.02142e-05 3.36127e-06)
(4.53176 5.92391e-05 3.36516e-06)
(4.50883 -5.88937e-05 3.93633e-06)
(4.50885 6.09294e-05 3.93965e-06)
(4.46225 -6.02411e-05 4.59972e-06)
(4.46229 5.91936e-05 4.6038e-06)
(4.39598 -5.92007e-05 5.33159e-06)
(4.39603 6.05377e-05 5.33517e-06)
(4.31465 -6.05048e-05 6.11573e-06)
(4.31471 5.8902e-05 6.11994e-06)
(4.22306 -5.97579e-05 6.90877e-06)
(4.22313 5.98971e-05 6.91255e-06)
(4.12577 -6.09965e-05 7.67032e-06)
(4.12584 5.83739e-05 7.67464e-06)
(4.02674 -6.03912e-05 8.34224e-06)
(4.02681 5.91809e-05 8.34619e-06)
(3.92906 -6.1443e-05 8.87787e-06)
(3.92913 5.78831e-05 8.8823e-06)
(3.83482 -6.08514e-05 9.22301e-06)
(3.83489 5.8637e-05 9.22712e-06)
(3.74505 -6.15863e-05 9.34678e-06)
(3.74512 5.76881e-05 9.35133e-06)
(3.65988 -6.08623e-05 9.22552e-06)
(3.65995 5.85407e-05 9.22981e-06)
(3.57867 -6.12356e-05 8.86682e-06)
(3.57873 5.798e-05 8.8715e-06)
(3.50023 -6.03872e-05 8.28951e-06)
(3.50029 5.89279e-05 8.29397e-06)
(3.42311 -6.05066e-05 7.53922e-06)
(3.42317 5.86435e-05 7.54403e-06)
(3.34579 -5.96651e-05 6.66512e-06)
(3.34585 5.95591e-05 6.66974e-06)
(3.26694 -5.97065e-05 5.73024e-06)
(3.26701 5.93714e-05 5.73515e-06)
(3.18553 -5.90361e-05 4.78726e-06)
(3.1856 6.00942e-05 4.79201e-06)
(3.10098 -5.91267e-05 3.89048e-06)
(3.10105 5.98721e-05 3.89547e-06)
(3.01317 -5.87086e-05 3.07437e-06)
(3.01325 6.03242e-05 3.07921e-06)
(2.92245 -5.89239e-05 2.36505e-06)
(2.92253 5.99888e-05 2.37008e-06)
(2.82956 -5.86959e-05 1.77116e-06)
(2.82964 6.02353e-05 1.77605e-06)
(2.73554 -5.89936e-05 1.29404e-06)
(2.73562 5.98261e-05 1.29907e-06)
(2.64164 -5.88773e-05 9.22529e-07)
(2.64172 5.99478e-05 1.01659e-06)
(2.54915 -5.91802e-05 6.43864e-07)
(2.54923 5.95398e-05 1.03369e-06)
(2.45931 -5.90908e-05 4.40109e-07)
(2.45939 5.96231e-05 1.05048e-06)
(2.37322 -5.9352e-05 2.96083e-07)
(2.3733 5.92615e-05 1.06763e-06)
(2.29172 -5.92489e-05 2.54003e-07)
(2.2918 5.93482e-05 1.08439e-06)
(2.21535 -5.9449e-05 2.66928e-07)
(2.21543 5.9051e-05 1.10139e-06)
(2.14433 -5.93367e-05 2.74188e-07)
(2.1444 5.91377e-05 1.1179e-06)
(2.0785 -5.94752e-05 2.88133e-07)
(2.07856 5.89043e-05 1.13451e-06)
(2.01738 -5.93633e-05 2.94572e-07)
(2.01744 5.89821e-05 1.15056e-06)
(1.96014 -5.94492e-05 3.09732e-07)
(1.9602 5.88028e-05 1.16654e-06)
(1.90564 -5.93699e-05 3.15037e-07)
(1.9057 5.88399e-05 1.18195e-06)
(1.85249 -5.94166e-05 3.31674e-07)
(1.85254 5.87008e-05 1.19712e-06)
(1.79904 -5.92804e-05 3.43867e-07)
(1.7991 5.87872e-05 1.21183e-06)
(1.74348 -5.94105e-05 3.4871e-07)
(1.74354 5.85655e-05 1.22614e-06)
(1.68388 -5.92378e-05 3.64731e-07)
(1.68395 5.86805e-05 1.24021e-06)
(1.61829 -5.93506e-05 3.70345e-07)
(1.61837 5.8477e-05 1.25383e-06)
(1.54482 -5.91936e-05 3.85551e-07)
(1.54491 5.85683e-05 1.26749e-06)
(1.46174 -5.92902e-05 3.91752e-07)
(1.46186 5.83822e-05 1.28084e-06)
(1.36764 -5.91465e-05 4.06178e-07)
(1.36778 5.84513e-05 1.2946e-06)
(1.26151 -5.92295e-05 4.12815e-07)
(1.26167 5.82806e-05 1.30836e-06)
(1.14286 -5.90963e-05 4.26524e-07)
(1.14305 5.83292e-05 1.32301e-06)
(1.01184 -5.91684e-05 4.33481e-07)
(1.01208 5.81723e-05 1.33816e-06)
(0.869335 -5.9043e-05 4.46551e-07)
(0.869638 5.82011e-05 1.35472e-06)
(0.716972 -5.91065e-05 4.5374e-07)
(0.717359 5.80571e-05 1.3724e-06)
(0.557151 -5.89855e-05 4.66247e-07)
(0.557654 5.80668e-05 1.39195e-06)
(0.392992 -5.90435e-05 4.73572e-07)
(0.393652 5.79345e-05 1.41319e-06)
(0.228249 -5.89223e-05 4.85536e-07)
(0.229096 5.79257e-05 1.43654e-06)
(0.0671897 -5.89783e-05 4.92826e-07)
(0.0682013 5.78043e-05 1.46191e-06)
(-0.085577 -5.88581e-05 5.04117e-07)
(-0.0845551 5.77811e-05 1.48914e-06)
(-0.225416 -5.89026e-05 5.12622e-07)
(-0.224581 5.76592e-05 1.51671e-06)
(-0.347924 -5.87844e-05 5.25737e-07)
(-0.347324 5.76248e-05 1.54446e-06)
(-0.449078 -5.8828e-05 5.36256e-07)
(-0.448683 5.75088e-05 1.57229e-06)
(-0.525476 -5.87038e-05 5.50658e-07)
(-0.525239 5.74586e-05 1.59955e-06)
(-0.574511 -5.87511e-05 5.62446e-07)
(-0.574394 5.73483e-05 1.6266e-06)
(-0.594579 -5.86157e-05 5.7734e-07)
(-0.594557 5.72821e-05 1.65253e-06)
(-0.585151 -5.86717e-05 5.89556e-07)
(-0.585219 5.71781e-05 1.67838e-06)
(-0.546771 -5.85234e-05 6.042e-07)
(-0.546937 5.7092e-05 1.70308e-06)
(-0.481056 -5.85896e-05 6.16195e-07)
(-0.481343 5.69985e-05 1.72852e-06)
(-0.390547 -5.84246e-05 6.30137e-07)
(-0.390998 5.68894e-05 1.75338e-06)
(-0.278567 -5.85071e-05 6.41586e-07)
(-0.279228 5.6807e-05 1.78037e-06)
(-0.148997 -5.83194e-05 6.5466e-07)
(-0.149874 5.6673e-05 1.80758e-06)
(-0.00602526 -5.84235e-05 6.65442e-07)
(-0.00699562 5.66028e-05 1.83846e-06)
(0.146041 -5.82193e-05 6.77482e-07)
(0.145226 5.64507e-05 1.86997e-06)
(0.303177 -5.83155e-05 6.91601e-07)
(0.30257 5.6364e-05 1.90225e-06)
(0.461616 -5.81218e-05 7.073e-07)
(0.46118 5.62219e-05 1.9351e-06)
(0.617952 -5.8206e-05 7.25792e-07)
(0.617638 5.61082e-05 1.96917e-06)
(0.7693 -5.80158e-05 7.45702e-07)
(0.769065 5.59786e-05 2.0033e-06)
(0.913311 -5.80925e-05 7.68968e-07)
(0.91313 5.58358e-05 2.03884e-06)
(1.04816 -5.79036e-05 7.93263e-07)
(1.04802 5.57173e-05 2.07361e-06)
(1.17257 -5.7969e-05 8.21383e-07)
(1.17246 5.55521e-05 2.10983e-06)
(1.28572 -5.77792e-05 8.49931e-07)
(1.28563 5.54438e-05 2.14422e-06)
(1.38721 -5.78432e-05 8.82745e-07)
(1.38713 5.52491e-05 2.1801e-06)
(1.47696 -5.763e-05 9.15666e-07)
(1.47689 5.51704e-05 2.21296e-06)
(1.55516 -5.77044e-05 1.12876e-06)
(1.55512 5.49371e-05 2.24745e-06)
(1.62219 -5.74661e-05 1.37205e-06)
(1.62215 5.48874e-05 2.27767e-06)
(1.67848 -5.75468e-05 1.64276e-06)
(1.67845 5.46224e-05 2.30988e-06)
(1.72447 -5.72836e-05 1.93864e-06)
(1.72445 5.46e-05 2.33651e-06)
(1.76051 -5.73771e-05 2.253e-06)
(1.76049 5.4299e-05 2.36577e-06)
(1.78679 -5.70931e-05 2.58072e-06)
(1.78678 5.42989e-05 2.56011e-06)
(1.80326 -5.7195e-05 2.91288e-06)
(1.80325 5.39685e-05 2.89102e-06)
(1.8096 -5.69207e-05 3.24084e-06)
(1.8096 5.39599e-05 3.2185e-06)
(1.80522 -5.70087e-05 3.55928e-06)
(1.80523 5.36237e-05 3.53593e-06)
(1.7893 -5.67702e-05 3.85804e-06)
(1.78931 5.35813e-05 3.83447e-06)
(1.76082 -5.68463e-05 4.13664e-06)
(1.76083 5.32379e-05 4.11235e-06)
(1.71869 -5.66305e-05 4.39086e-06)
(1.71872 5.31759e-05 4.36673e-06)
(1.6619 -5.67105e-05 4.62341e-06)
(1.66194 5.28094e-05 4.59894e-06)
(1.58965 -5.6507e-05 4.83761e-06)
(1.58969 5.27401e-05 4.81382e-06)
(1.50149 -5.65908e-05 5.04165e-06)
(1.50155 5.23483e-05 5.01797e-06)
(1.39753 -5.63732e-05 5.2448e-06)
(1.39759 5.23007e-05 5.22248e-06)
(1.27849 -5.64764e-05 5.4545e-06)
(1.27857 5.18637e-05 5.43275e-06)
(1.14586 -5.62119e-05 5.68332e-06)
(1.14595 5.18738e-05 5.66371e-06)
(1.00189 -5.63488e-05 5.93306e-06)
(1.00201 5.13701e-05 5.91445e-06)
(0.849639 -5.60293e-05 6.21402e-06)
(0.849777 5.14495e-05 6.19834e-06)
(0.69285 -5.61837e-05 6.52312e-06)
(0.693019 5.08852e-05 6.50871e-06)
(0.535872 -5.58347e-05 6.86049e-06)
(0.536084 5.10126e-05 6.84975e-06)
(0.383477 -5.5985e-05 7.21928e-06)
(0.383751 5.03954e-05 7.20976e-06)
(0.240622 -5.56389e-05 7.58913e-06)
(0.240983 5.05443e-05 7.58384e-06)
(0.112202 -5.57715e-05 7.9617e-06)
(0.112668 4.98706e-05 7.95712e-06)
(0.00276425 -5.54287e-05 8.32133e-06)
(0.00330107 5.00488e-05 8.32125e-06)
(-0.0838411 -5.56092e-05 8.65354e-06)
(-0.0833889 4.92566e-05 8.65312e-06)
(-0.144821 -5.51634e-05 8.96155e-06)
(-0.144543 4.95039e-05 8.95802e-06)
(-0.178662 -5.54945e-05 9.21839e-06)
(-0.17855 4.85589e-05 9.21479e-06)
(-0.185217 -5.48961e-05 9.44492e-06)
(-0.185246 4.89085e-05 9.43976e-06)
(-0.165784 -5.53765e-05 9.61963e-06)
(-0.16595 4.77993e-05 9.61519e-06)
(-0.12313 -5.46571e-05 9.7694e-06)
(-0.123438 4.82307e-05 9.76516e-06)
(-0.0612245 -5.52258e-05 9.88975e-06)
(-0.0616469 4.70043e-05 9.88697e-06)
(0.0150222 -5.44053e-05 1.00041e-05)
(0.0145977 4.7513e-05 1.00033e-05)
(0.100208 -5.50536e-05 1.01094e-05)
(0.0998749 4.61695e-05 1.01087e-05)
(0.188816 -5.4112e-05 1.02302e-05)
(0.188579 4.67326e-05 1.02246e-05)
(0.275585 -5.48588e-05 1.03567e-05)
(0.27542 4.53019e-05 1.03503e-05)
(0.355893 -5.37765e-05 1.05094e-05)
(0.35578 4.59292e-05 1.04983e-05)
(0.426043 -5.46654e-05 1.06676e-05)
(0.425965 4.43599e-05 1.06555e-05)
(0.483504 -5.33912e-05 1.08565e-05)
(0.483451 4.51118e-05 1.08405e-05)
(0.526973 -5.44656e-05 1.1041e-05)
(0.526938 4.33543e-05 1.10242e-05)
(0.556329 -5.30002e-05 1.12474e-05)
(0.556309 4.42388e-05 1.12276e-05)
(0.572539 -5.42713e-05 1.14419e-05)
(0.57253 4.22772e-05 1.14219e-05)
(0.577468 -5.2585e-05 1.16571e-05)
(0.577468 4.33316e-05 1.16352e-05)
(0.573606 -5.4095e-05 1.18528e-05)
(0.573611 4.112e-05 1.18312e-05)
(0.563789 -5.2157e-05 1.20717e-05)
(0.563798 4.23812e-05 1.20492e-05)
(0.550923 -5.39255e-05 1.22713e-05)
(0.550933 3.98969e-05 1.22494e-05)
(0.537714 -5.17298e-05 1.24996e-05)
(0.537723 4.1376e-05 1.24772e-05)
(0.526528 -5.37523e-05 1.27162e-05)
(0.526535 3.86213e-05 1.26944e-05)
(0.519266 -5.12694e-05 1.29701e-05)
(0.519269 4.03518e-05 1.29479e-05)
(0.517234 -5.36041e-05 1.32079e-05)
(0.517233 3.72673e-05 1.31858e-05)
(0.521171 -5.07859e-05 1.34909e-05)
(0.521165 3.93013e-05 1.34681e-05)
(0.531326 -5.34601e-05 1.37564e-05)
(0.531316 3.58601e-05 1.37332e-05)
(0.54753 -5.02749e-05 1.40683e-05)
(0.547517 3.82335e-05 1.40439e-05)
(0.569255 -5.33419e-05 1.43507e-05)
(0.569239 3.4384e-05 1.43252e-05)
(0.595709 -4.9751e-05 1.46785e-05)
(0.595692 3.71401e-05 1.46514e-05)
(0.62591 -5.32593e-05 1.49669e-05)
(0.625892 3.28373e-05 1.49384e-05)
(0.65882 -4.91914e-05 1.53057e-05)
(0.658803 3.60523e-05 1.52751e-05)
(0.693309 -5.32345e-05 1.55878e-05)
(0.693292 3.1207e-05 1.55554e-05)
(0.728228 -4.86185e-05 1.59263e-05)
(0.728213 3.49573e-05 1.58917e-05)
(0.762448 -5.32347e-05 1.62003e-05)
(0.762434 2.9537e-05 1.61638e-05)
(0.794819 -4.80736e-05 1.65279e-05)
(0.794806 3.38245e-05 1.64892e-05)
(0.824338 -5.32402e-05 1.67919e-05)
(0.824328 2.78583e-05 1.67516e-05)
(0.850116 -4.75404e-05 1.71035e-05)
(0.850108 3.26816e-05 1.70611e-05)
(0.871396 -5.33107e-05 1.73368e-05)
(0.87139 2.61233e-05 1.72932e-05)
(0.887714 -4.70008e-05 1.76245e-05)
(0.88771 3.15583e-05 1.75792e-05)
(0.898941 -5.34253e-05 1.78198e-05)
(0.898939 2.43646e-05 1.7774e-05)
(0.905249 -4.64878e-05 1.80632e-05)
(0.905248 3.04319e-05 1.80159e-05)
(0.907084 -5.36062e-05 1.82005e-05)
(0.907085 2.25706e-05 1.81534e-05)
(0.905148 -4.59992e-05 1.83905e-05)
(0.905149 2.93137e-05 1.83423e-05)
(0.900336 -5.38462e-05 1.8468e-05)
(0.900338 2.07572e-05 1.84206e-05)
(0.893599 -4.55416e-05 1.86044e-05)
(0.893601 2.82048e-05 1.8556e-05)
(0.885777 -5.41702e-05 1.86238e-05)
(0.885779 1.89067e-05 1.85767e-05)
(0.877566 -4.51045e-05 1.87242e-05)
(0.877568 2.71214e-05 1.86758e-05)
(0.869405 -5.45639e-05 1.87107e-05)
(0.869408 1.704e-05 1.8664e-05)
(0.861401 -4.47168e-05 1.87983e-05)
(0.861403 2.60403e-05 1.87499e-05)
(0.853453 -5.50026e-05 1.87876e-05)
(0.853455 1.51879e-05 1.87413e-05)
(0.845248 -4.43659e-05 1.88948e-05)
(0.845251 2.4979e-05 1.88464e-05)
(0.83631 -5.55185e-05 1.89041e-05)
(0.836312 1.33246e-05 1.88584e-05)
(0.826225 -4.40309e-05 1.90514e-05)
(0.826228 2.39639e-05 1.90029e-05)
(0.814679 -5.61058e-05 1.90864e-05)
(0.814682 1.14627e-05 1.90415e-05)
(0.801532 -4.37414e-05 1.92582e-05)
(0.801536 2.29703e-05 1.92099e-05)
(0.786917 -5.67551e-05 1.9296e-05)
(0.78692 9.61766e-06 1.92522e-05)
(0.771204 -4.35148e-05 1.94537e-05)
(0.771208 2.19853e-05 1.94057e-05)
(0.755018 -5.7477e-05 1.94461e-05)
(0.755021 7.78487e-06 1.94038e-05)
(0.73913 -4.33674e-05 1.95377e-05)
(0.739133 2.09961e-05 1.94901e-05)
(0.724467 -5.82773e-05 1.94359e-05)
(0.72447 5.96427e-06 1.93953e-05)
(0.711982 -4.33022e-05 1.94192e-05)
(0.711984 2.00034e-05 1.93717e-05)
(0.702465 -5.91813e-05 1.91851e-05)
(0.702466 4.13688e-06 1.91458e-05)
(0.696605 -4.33198e-05 1.90451e-05)
(0.696606 1.90114e-05 1.89968e-05)
(0.694935 -6.01821e-05 1.86826e-05)
(0.694934 2.31859e-06 1.86441e-05)
(0.69769 -4.34227e-05 1.84376e-05)
(0.697688 1.80252e-05 1.83871e-05)
(0.704818 -6.12773e-05 1.79733e-05)
(0.704816 5.25149e-07 1.79345e-05)
(0.716057 -4.36419e-05 1.76538e-05)
(0.716054 1.70251e-05 1.75996e-05)
(0.730941 -6.24548e-05 1.71369e-05)
(0.730937 -1.21221e-06 1.7097e-05)
(0.74882 -4.39771e-05 1.6797e-05)
(0.748817 1.60288e-05 1.67374e-05)
(0.768935 -6.373e-05 1.62714e-05)
(0.768931 -2.88226e-06 1.62296e-05)
(0.790469 -4.44618e-05 1.59491e-05)
(0.790465 1.50256e-05 1.58824e-05)
(0.812555 -6.51061e-05 1.54558e-05)
(0.812551 -4.45317e-06 1.54118e-05)
(0.834392 -4.5118e-05 1.51869e-05)
(0.834389 1.40226e-05 1.51116e-05)
(0.855311 -6.66028e-05 1.47521e-05)
(0.855308 -5.90129e-06 1.47063e-05)
(0.874723 -4.59796e-05 1.45563e-05)
(0.874721 1.30209e-05 1.44706e-05)
(0.89223 -6.82402e-05 1.41937e-05)
(0.892227 -7.19504e-06 1.41469e-05)
(0.907725 -4.70694e-05 1.40808e-05)
(0.907723 1.20379e-05 1.39832e-05)
(0.921308 -7.00377e-05 1.37824e-05)
(0.921306 -8.29315e-06 1.37358e-05)
(0.93334 -4.84245e-05 1.37235e-05)
(0.933339 1.10822e-05 1.36119e-05)
(0.944463 -7.20248e-05 1.34327e-05)
(0.944461 -9.15551e-06 1.3388e-05)
(0.955591 -5.00919e-05 1.33481e-05)
(0.955589 1.01586e-05 1.32194e-05)
(0.967973 -7.42251e-05 1.42495e-05)
(0.967971 -9.72406e-06 1.29168e-05)
(0.983276 -5.21398e-05 1.27095e-05)
(0.983273 9.25915e-06 1.25589e-05)
(1.00385 -7.66797e-05 1.53756e-05)
(1.00385 -9.94118e-06 1.20237e-05)
(1.03292 -5.4652e-05 1.14758e-05)
(1.03291 8.37781e-06 1.12957e-05)
(1.07526 -5.95937e-05 1.03976e-05)
(1.07526 -9.78713e-06 1.03644e-05)
(1.13868 -3.72588e-05 9.30601e-06)
(1.13868 7.7738e-06 9.15881e-06)
(1.23613 -4.14707e-05 7.73531e-06)
(1.23613 -9.52853e-06 7.70536e-06)
(1.38768 -1.86708e-05 6.09261e-06)
(1.38768 7.47259e-06 5.98279e-06)
(1.62463 -2.20569e-05 4.08294e-06)
(1.62463 -9.22947e-06 4.05993e-06)
(2.09035 1.25615e-06 1.96873e-06)
(2.09035 7.22278e-06 1.9142e-06)
(0.0255146 -1.25679e-05 -5.52165e-08)
(0.0255437 -2.58147e-05 -0.000461942)
(0.0766598 1.60039e-05 -1.68264e-08)
(0.0767468 -1.0512e-05 -0.000677708)
(0.128349 2.64671e-05 -6.34662e-09)
(0.128493 -2.34541e-05 -0.000524877)
(0.180587 3.29603e-05 -2.61902e-09)
(0.180785 -3.30363e-05 -0.000295053)
(0.23338 3.67098e-05 -6.28329e-10)
(0.233627 -3.66783e-05 -0.000157435)
(0.286732 3.87902e-05 -1.81576e-10)
(0.287025 -3.87318e-05 -9.4368e-05)
(0.340609 4.02079e-05 -1.33449e-10)
(0.340941 -4.01102e-05 -6.38507e-05)
(0.394945 4.11901e-05 -2.74782e-11)
(0.395313 -4.11689e-05 -4.71777e-05)
(0.449671 4.20414e-05 -8.75299e-11)
(0.45007 -4.19086e-05 -3.70475e-05)
(0.504783 4.26143e-05 -9.73131e-12)
(0.505206 -4.26407e-05 -3.03762e-05)
(0.560346 4.3272e-05 -9.36353e-11)
(0.56079 -4.30678e-05 -2.57099e-05)
(0.616376 4.362e-05 2.67377e-22)
(0.616837 -4.36938e-05 -2.22928e-05)
(0.672894 4.42101e-05 -9.25332e-11)
(0.673366 -4.39823e-05 -1.96994e-05)
(0.729951 5.80842e-05 -5.1365e-08)
(0.730431 -4.44299e-05 -1.76642e-05)
(0.787523 1.76475e-05 -4.57458e-19)
(0.788007 -4.47459e-05 -1.60598e-05)
(0.845503 9.92451e-05 -1.15687e-07)
(0.845988 -4.49953e-05 -1.47234e-05)
(0.903736 -3.7814e-05 -8.5876e-10)
(0.90422 -4.57652e-05 -1.36646e-05)
(0.962063 0.000133471 -4.58365e-08)
(0.962541 -4.53791e-05 -1.27537e-05)
(1.02046 -5.14153e-05 -1.10453e-09)
(1.02093 -4.64833e-05 -1.19927e-05)
(1.07914 0.000148244 -4.47031e-08)
(1.0796 -4.56114e-05 -1.13318e-05)
(1.13837 -6.50133e-05 -7.5546e-10)
(1.13882 -4.73172e-05 -1.07724e-05)
(1.19833 0.00016285 -4.29841e-08)
(1.19877 -4.57649e-05 -1.02765e-05)
(1.25903 -7.8539e-05 5.59416e-19)
(1.25946 -4.81246e-05 -9.85344e-06)
(1.32039 0.000203923 -1.52487e-07)
(1.32081 -4.57297e-05 -9.44653e-06)
(1.38238 -0.000145397 -1.71193e-21)
(1.38279 -4.90945e-05 -9.14853e-06)
(1.44496 0.00027287 -1.72574e-07)
(1.44536 -4.56523e-05 -8.8259e-06)
(1.5081 -0.000216561 -2.29803e-09)
(1.50848 -5.02693e-05 -8.60616e-06)
(1.57173 0.000321695 -8.54933e-08)
(1.57209 -4.53822e-05 -8.37309e-06)
(1.63575 -0.000242623 -4.42699e-09)
(1.6361 -5.15522e-05 -8.18714e-06)
(1.70006 0.000349133 -8.82257e-08)
(1.7004 -4.48375e-05 -8.00272e-06)
(1.76466 -0.000269683 -4.03524e-09)
(1.76498 -5.30361e-05 -7.85975e-06)
(1.82969 0.000377023 -8.38736e-08)
(1.83 -4.40094e-05 -7.71204e-06)
(1.89554 -0.000296578 -1.82711e-09)
(1.89585 -5.47993e-05 -7.60087e-06)
(1.96278 0.000404564 -7.79141e-08)
(1.96308 -4.28082e-05 -7.48156e-06)
(2.03205 -0.000322891 -4.07217e-19)
(2.03234 -5.69332e-05 -7.39566e-06)
(2.10392 0.000462416 -2.27738e-07)
(2.10421 -4.11962e-05 -7.26479e-06)
(2.17879 -0.000411252 0)
(2.17907 -5.95974e-05 -7.24017e-06)
(2.25683 0.000651852 -7.43648e-07)
(2.25712 -3.91137e-05 -7.01279e-06)
(2.33804 -0.000703737 -2.73119e-19)
(2.33832 -6.28527e-05 -7.13962e-06)
(2.42227 0.00098276 -9.74478e-07)
(2.42256 -3.64804e-05 -6.89024e-06)
(2.50945 -0.00107717 -2.54996e-21)
(2.50973 -6.66792e-05 -7.09561e-06)
(2.59971 0.00132095 -8.2361e-07)
(2.59999 -3.32867e-05 -6.91551e-06)
(2.69366 -0.0013831 -3.13003e-18)
(2.69395 -7.10266e-05 -7.1015e-06)
(2.79256 0.00155458 -4.50156e-07)
(2.79285 -2.95339e-05 -7.03738e-06)
(2.89825 -0.00154452 -1.25116e-21)
(2.89856 -7.58788e-05 -7.14556e-06)
(3.01301 0.00168682 -2.88217e-07)
(3.01333 -2.52272e-05 -7.13833e-06)
(3.13914 -0.00164602 1.24646e-21)
(3.13947 -8.13221e-05 -7.21997e-06)
(3.27868 0.00180225 -3.6586e-07)
(3.27902 -2.0285e-05 -7.20956e-06)
(3.43315 -0.00177415 -6.23091e-21)
(3.4335 -8.74707e-05 -7.32495e-06)
(3.60358 0.00226371 -2.35424e-06)
(3.60394 -1.46066e-05 -6.85259e-06)
(3.7906 -0.00257651 -5.00103e-21)
(3.79097 -9.39017e-05 -7.48219e-06)
(3.99429 0.00285763 -1.18778e-06)
(3.99466 -8.25392e-06 -7.35424e-06)
(4.21365 -0.00296103 -4.33824e-08)
(4.21401 -0.000100273 -7.72347e-06)
(4.4456 0.003147 -8.1928e-07)
(4.44594 -1.90137e-06 -7.82755e-06)
(4.68361 -0.00315191 -1.8333e-07)
(4.68391 -0.000106721 -8.1765e-06)
(4.91622 0.0033734 -1.51313e-06)
(4.91647 3.05419e-06 -8.4188e-06)
(5.12623 -0.00341532 -4.37855e-07)
(5.12641 -0.000113865 -9.07598e-06)
(5.29098 0.00368451 -2.42757e-06)
(5.29106 5.50565e-06 -9.54183e-06)
(5.38439 -0.00378218 -7.00014e-07)
(5.38434 -0.000120894 -1.05915e-05)
(5.38068 0.00408431 -2.95587e-06)
(5.38048 6.32158e-06 -1.12664e-05)
(5.25917 -0.00422316 -7.53296e-07)
(5.25879 -0.000124779 -1.25373e-05)
(5.00881 0.0045151 -2.50607e-06)
(5.00823 7.15228e-06 -1.32462e-05)
(4.63139 -0.00464234 -4.76793e-07)
(4.6306 -0.000123512 -1.43437e-05)
(4.14225 0.00488281 -1.19368e-06)
(4.14124 7.47464e-06 -1.48635e-05)
(3.56815 -0.00494708 -3.04305e-18)
(3.56691 -0.000118651 -1.54698e-05)
(2.94305 0.00513473 -5.37403e-08)
(2.94159 4.78109e-06 -1.56938e-05)
(2.30304 -0.00498187 -1.30117e-06)
(2.3014 -0.000113047 -1.55296e-05)
(1.68161 0.00511513 -3.73238e-07)
(1.67982 -1.68025e-06 -1.55663e-05)
(1.10618 -0.00493907 -2.02718e-06)
(1.1043 -0.000107976 -1.51578e-05)
(0.596483 0.00504763 -4.72988e-07)
(0.594606 -1.01589e-05 -1.51481e-05)
(0.164579 -0.00487764 -2.1077e-06)
(0.162812 -0.000103264 -1.47324e-05)
(-0.184126 0.0049875 -4.45345e-07)
(-0.18566 -1.84192e-05 -1.47633e-05)
(-0.449222 -0.000210369 -5.04083e-06)
(-0.450444 -9.87289e-05 -1.02538e-06)
(-0.633765 0.000285299 -5.0643e-07)
(-0.634642 -2.45459e-05 -8.64405e-07)
(-0.743001 -0.000122678 -1.17056e-06)
(-0.74353 -9.35634e-05 -8.116e-07)
(-0.783474 0.000209439 -3.76471e-07)
(-0.783668 -2.95469e-05 -6.58556e-07)
(-0.762477 -5.58903e-05 -8.93997e-07)
(-0.762355 -8.89298e-05 -6.09328e-07)
(-0.687705 0.000152851 -2.76894e-07)
(-0.687287 -3.38143e-05 -4.73358e-07)
(-0.566984 -9.31054e-06 -6.29697e-07)
(-0.566294 -8.49559e-05 -4.30271e-07)
(-0.407994 0.000114855 -1.89619e-07)
(-0.407061 -3.74695e-05 -3.11947e-07)
(-0.218036 2.0168e-05 -4.01801e-07)
(-0.216898 -8.15672e-05 -2.76958e-07)
(-0.00379977 9.21681e-05 -1.16096e-07)
(-0.00251575 -4.06371e-05 -1.77666e-07)
(0.228839 3.6014e-05 -2.18755e-07)
(0.230182 -7.85999e-05 -1.55602e-07)
(0.474887 8.11544e-05 -5.97757e-08)
(0.476218 -4.32828e-05 -7.82624e-08)
(0.730206 4.23436e-05 -8.68265e-08)
(0.731474 -7.59938e-05 -6.79726e-08)
(0.991364 7.84856e-05 -5.4575e-08)
(0.992536 -4.55014e-05 -5.07179e-09)
(1.2554 4.1819e-05 -7.15022e-08)
(1.25646 -7.37227e-05 -6.73052e-08)
(1.51953 7.76009e-05 -8.96659e-08)
(1.52047 -4.73974e-05 -9.32473e-08)
(1.78093 4.44e-05 -1.79007e-07)
(1.78176 -7.17919e-05 -1.75103e-07)
(2.03647 7.53008e-05 -2.28425e-07)
(2.03718 -4.90865e-05 -2.31518e-07)
(2.28265 4.6555e-05 -3.45651e-07)
(2.28325 -7.02036e-05 -3.42006e-07)
(2.51556 7.32064e-05 -4.27679e-07)
(2.51607 -5.06436e-05 -4.30303e-07)
(2.73107 4.83163e-05 -5.65784e-07)
(2.73149 -6.89365e-05 -5.62359e-07)
(2.92503 7.12957e-05 -6.6342e-07)
(2.92538 -5.20835e-05 -6.6561e-07)
(3.09364 4.97971e-05 -7.98953e-07)
(3.09392 -6.78853e-05 -7.95718e-07)
(3.23376 6.961e-05 -8.83793e-07)
(3.23398 -5.33572e-05 -8.85582e-07)
(3.34324 5.10903e-05 -9.86832e-07)