/*--------------------------------*- C++ -*----------------------------------*\
| =========                 |                                                 |
| \\      /  F ield         | OpenFOAM: The Open Source CFD Toolbox           |
|  \\    /   O peration     | Version:  2106                                  |
|   \\  /    A nd           | Website:  www.openfoam.com                      |
|    \\/     M anipulation  |                                                 |
\*---------------------------------------------------------------------------*/
FoamFile
{
    version     2.0;
    format      ascii;
    arch        "LSB;label=32;scalar=64";
    class       volTensorField;
    location    "18000";
    object      grad(U);
}
// * * * * * * * * * * * * * * * * * * * * * * * * * * * * * * * * * * * * * //

dimensions      [0 0 -1 0 0 0 0];

internalField   nonuniform List<tensor> 
2560
(
(-2.28578e-18 -4.17554e-25 0 12.9174 0 1.3028e-13 0.0186996 0 6.30819e-17)
(0 -2.0789e-30 3.67655e-27 12.9174 1.16909e-15 9.00925e-14 0.0186996 -3.28032e-18 6.33648e-17)
(0 1.53683e-30 1.02138e-26 12.9155 -2.4935e-12 3.34113e-14 0.0563652 -2.73438e-15 9.81339e-17)
(0 -1.02394e-30 0 12.9155 2.09523e-15 6.73548e-14 0.0563652 6.15398e-18 2.42436e-16)
(-2.36729e-18 -1.75404e-25 -4.11531e-32 12.9136 3.75042e-32 1.74806e-14 0.0775148 0 1.10312e-16)
(0 8.07896e-30 -1.26234e-31 12.9136 2.04553e-15 5.02041e-15 0.0775148 8.97038e-18 2.49435e-16)
(7.59123e-18 -7.96317e-30 4.46123e-32 12.9116 1.27131e-12 1.82661e-14 0.0786297 -1.38248e-14 1.10577e-16)
(0 7.96317e-30 0 12.9116 3.08979e-15 5.06639e-15 0.0786297 1.41973e-17 2.56562e-16)
(6.90408e-17 -1.37358e-29 2.45282e-31 12.9096 6.97183e-14 1.80431e-14 0.0797604 -1.40954e-15 1.10788e-16)
(-3.45204e-17 1.17736e-29 -1.22641e-31 12.9096 3.1136e-15 5.11111e-15 0.0797604 1.9146e-17 2.63815e-16)
(5.22914e-17 -7.65716e-30 1.72034e-31 12.9075 -6.54995e-14 1.80527e-14 0.0809069 -2.44458e-16 1.13936e-16)
(1.46126e-16 7.74279e-30 0 12.9075 3.09884e-15 5.15477e-15 0.0809069 1.94272e-17 2.71191e-16)
(-2.37184e-17 -2.68456e-28 6.49408e-32 12.9053 -1.78704e-14 1.83566e-14 0.0820697 -5.64166e-17 1.17899e-16)
(9.48737e-17 7.63171e-30 -2.38302e-31 12.9053 3.09699e-15 5.1977e-15 0.0820697 1.96834e-17 2.78688e-16)
(-2.92495e-17 1.12906e-29 -1.7483e-31 12.9032 -6.25414e-15 1.87214e-14 0.0832487 -2.34711e-17 1.21982e-16)
(1.16998e-16 -5.62844e-30 0 12.9032 3.12814e-15 5.24015e-15 0.0832487 2.03982e-17 2.86303e-16)
(1.00027e-16 -5.59854e-30 4.0797e-31 12.9009 -4.36042e-15 1.90871e-14 0.0844444 -3.32759e-17 1.26141e-16)
(0 5.55647e-30 -3.47279e-31 12.9009 3.1514e-15 5.28224e-15 0.0844444 2.05644e-17 2.94035e-16)
(0 5.47683e-30 -1.14101e-31 12.8986 -5.24416e-15 1.94538e-14 0.0856569 -3.58971e-17 1.30425e-16)
(0 -1.82561e-30 0 12.8986 3.12353e-15 5.32393e-15 0.0856569 2.06256e-17 3.01883e-16)
(-4.63244e-17 -5.30234e-30 -6.76718e-32 12.8963 -5.40242e-15 1.98248e-14 0.0868865 -3.63834e-17 1.34836e-16)
(0 8.99723e-30 -2.24931e-31 12.8963 3.09994e-15 5.366e-15 0.0868865 2.08489e-17 3.09847e-16)
(5.21803e-17 -1.78592e-29 5.14771e-31 12.8939 -5.3838e-15 2.02e-14 0.0881333 -3.66941e-17 1.39375e-16)
(0 1.41892e-29 -4.43414e-31 12.8939 3.07904e-15 5.40786e-15 0.0881333 2.09441e-17 3.17928e-16)
(6.15105e-17 -5.2447e-30 2.18529e-31 12.8914 -5.37623e-15 2.05791e-14 0.0893977 -3.73442e-17 1.44044e-16)
(0 6.99293e-30 -2.18529e-31 12.8914 3.12898e-15 5.44842e-15 0.0893977 2.21523e-17 3.26126e-16)
(-1.85403e-16 7.06751e-30 -2.94539e-31 12.8889 -5.33494e-15 2.09622e-14 0.0906798 -3.71879e-17 1.48849e-16)
(2.56582e-16 -1.69435e-30 0 12.8889 3.1249e-15 5.48809e-15 0.0906798 2.15002e-17 3.3444e-16)
(0 1.18894e-29 -4.2462e-31 12.8864 -5.29879e-15 2.13497e-14 0.0919799 -3.79221e-17 1.53795e-16)
(0 -1.18894e-29 4.2462e-31 12.8864 3.02566e-15 5.5282e-15 0.0919799 2.13844e-17 3.42863e-16)
(-7.64568e-17 3.57369e-30 -8.75046e-32 12.8838 -5.29857e-15 2.17414e-14 0.0932983 -3.8274e-17 1.58884e-16)
(3.05827e-16 -1.63841e-30 0 12.8838 3.00067e-15 5.56888e-15 0.0932983 2.17681e-17 3.51394e-16)
(-1.16118e-16 1.1551e-29 -4.12535e-31 12.8811 -5.2989e-15 2.21381e-14 0.0946352 -3.90378e-17 1.6413e-16)
(-2.14862e-16 -1.15907e-29 4.12535e-31 12.8811 2.94517e-15 5.60831e-15 0.0946352 2.11952e-17 3.60036e-16)
(0 1.30119e-29 -4.06623e-31 12.8784 -5.38397e-15 2.254e-14 0.0959908 -4.06635e-17 1.6953e-16)
(-3.56494e-16 -1.30544e-29 4.06623e-31 12.8784 2.94088e-15 5.64711e-15 0.0959908 2.23418e-17 3.68783e-16)
(2.25627e-16 -6.41271e-30 6.01192e-31 12.8756 -5.45837e-15 2.29469e-14 0.0973654 -4.13068e-17 1.75093e-16)
(0 8.01589e-30 -6.01192e-31 12.8756 2.99742e-15 5.6883e-15 0.0973654 2.26713e-17 3.77638e-16)
(1.02156e-16 7.57845e-30 -4.86463e-31 12.8728 -5.42692e-15 2.33589e-14 0.0987592 -4.1372e-17 1.80819e-16)
(-4.08625e-16 -1.11113e-29 7.90101e-31 12.8728 2.96587e-15 5.72942e-15 0.0987592 2.25122e-17 3.86614e-16)
(0 1.09029e-29 -5.84082e-31 12.8699 -5.38421e-15 2.37764e-14 0.100173 -4.18519e-17 1.86721e-16)
(0 -1.09029e-29 5.84082e-31 12.8699 2.94333e-15 5.76891e-15 0.100173 2.29844e-17 3.957e-16)
(-1.15565e-16 -1.16622e-30 2.6737e-31 12.8669 -5.50067e-15 2.41994e-14 0.101606 -4.44234e-17 1.92797e-16)
(0 7.67614e-30 -3.83807e-31 12.8669 3.04605e-15 5.80556e-15 0.101606 2.47941e-17 4.04902e-16)
(9.0554e-17 -1.92801e-29 1.39135e-30 12.8639 -5.65038e-15 2.46276e-14 0.103059 -4.5477e-17 1.99052e-16)
(0 2.11852e-29 -9.45766e-31 12.8639 3.09101e-15 5.84213e-15 0.103059 2.43783e-17 4.14187e-16)
(0 1.19323e-29 -7.45768e-31 12.8609 -5.58029e-15 2.50613e-14 0.104532 -4.45851e-17 2.05496e-16)
(-5.17441e-16 -1.49799e-29 7.45768e-31 12.8609 2.99023e-15 5.8844e-15 0.104532 2.38819e-17 4.23571e-16)
(1.36406e-16 1.27942e-29 -6.01755e-31 12.8577 -5.41813e-15 2.55008e-14 0.106026 -4.41345e-17 2.12132e-16)
(0 -1.47016e-29 7.3508e-31 12.8577 2.82069e-15 5.92498e-15 0.106026 2.2296e-17 4.33076e-16)
(-4.91047e-16 1.83079e-29 -1.379e-30 12.8545 -5.29311e-15 2.30437e-14 0.107541 -4.3799e-17 1.70398e-16)
(2.03941e-16 -1.44909e-29 1.08682e-30 12.8545 2.70063e-15 5.96535e-15 0.107541 2.25724e-17 4.42676e-16)
(6.53424e-16 -2.28681e-29 1.52993e-30 12.8513 -5.24822e-15 1.96765e-14 0.109077 -4.46652e-17 1.61181e-16)
(1.20642e-15 2.01494e-29 -1.42832e-30 12.8513 2.76743e-15 6.00691e-15 0.109077 2.40831e-17 4.52397e-16)
(0 -1.12628e-29 3.51962e-31 12.848 -5.26718e-15 1.91717e-14 0.110634 -4.54087e-17 1.66694e-16)
(6.32619e-16 1.41595e-29 -1.05589e-30 12.848 2.76876e-15 6.0453e-15 0.110634 2.32565e-17 4.62214e-16)
(-2.96848e-17 3.63951e-30 -1.84967e-31 12.8446 -5.32778e-15 1.95425e-14 0.112213 -4.70326e-17 1.72381e-16)
(0 -2.77534e-30 0 12.8446 2.76857e-15 6.08371e-15 0.112213 2.47854e-17 4.72113e-16)
(-3.46353e-16 3.82385e-30 -3.3347e-31 12.8411 -5.4781e-15 1.99187e-14 0.113814 -4.94039e-17 1.78247e-16)
(-1.38541e-15 -1.74786e-31 0 12.8411 2.90498e-15 6.1214e-15 0.113814 2.63561e-17 4.82095e-16)
(-1.80849e-16 7.30575e-30 -5.08743e-31 12.8376 -5.53715e-15 2.03001e-14 0.115437 -4.94724e-17 1.84292e-16)
(-7.23395e-16 -2.78787e-30 3.37044e-31 12.8376 2.95409e-15 6.15648e-15 0.115437 2.63948e-17 4.92187e-16)
(0 1.59462e-29 -9.9664e-31 12.834 -5.42093e-15 2.06892e-14 0.117082 -4.87304e-17 1.90569e-16)
(-7.54522e-16 -1.60424e-29 9.9664e-31 12.834 2.90568e-15 6.19018e-15 0.117082 2.62447e-17 5.0238e-16)
(0 -1.04785e-29 9.82356e-31 12.8303 -5.34872e-15 2.10865e-14 0.11875 -4.95846e-17 1.97045e-16)
(7.86093e-16 1.05795e-29 -9.82356e-31 12.8303 2.83577e-15 6.22793e-15 0.11875 2.58737e-17 5.12647e-16)
(-2.04528e-16 -6.65849e-31 -1.87711e-31 12.8266 -5.40626e-15 2.14913e-14 0.120441 -5.12387e-17 2.03756e-16)
(0 5.16414e-30 -3.22759e-31 12.8266 2.75737e-15 6.27122e-15 0.120441 2.5541e-17 5.22994e-16)
(-5.70833e-16 1.20978e-29 -1.14785e-30 12.8227 -5.38304e-15 2.19033e-14 0.122155 -5.05945e-17 2.10668e-16)
(3.58186e-16 -1.01803e-29 9.54398e-31 12.8227 2.69486e-15 6.31058e-15 0.122155 2.54406e-17 5.33467e-16)
(-2.20883e-16 9.44431e-30 -1.14012e-30 12.8188 -5.34476e-15 2.23194e-14 0.123893 -5.19996e-17 2.17769e-16)
(-8.83531e-16 -2.6229e-30 3.13573e-31 12.8188 2.69881e-15 6.34445e-15 0.123893 2.63654e-17 5.44023e-16)
(2.29235e-16 -1.18098e-29 8.23728e-31 12.8147 -5.5071e-15 2.27383e-14 0.125654 -5.52609e-17 2.25054e-16)
(0 9.89052e-30 -6.18158e-31 12.8147 2.84286e-15 6.38346e-15 0.125654 2.90112e-17 5.54664e-16)
(2.37706e-16 -1.41069e-29 1.43055e-30 12.8106 -5.47725e-15 2.31649e-14 0.12744 -5.29287e-17 2.32639e-16)
(0 1.2186e-29 -1.2186e-30 12.8106 2.78735e-15 6.42747e-15 0.12744 2.60333e-17 5.65408e-16)
(-2.46298e-16 1.15315e-29 -5.18851e-31 12.8063 -5.18099e-15 2.36017e-14 0.129249 -5.08987e-17 2.40464e-16)
(0 -4.80452e-30 0 12.8063 2.41678e-15 6.4698e-15 0.129249 2.23796e-17 5.7626e-16)
(0 9.47132e-30 -1.18391e-30 12.802 -5.03179e-15 2.40467e-14 0.131083 -5.14232e-17 2.48568e-16)
(0 -1.18391e-29 1.18391e-30 12.802 2.26088e-15 6.50898e-15 0.131083 2.36028e-17 5.87233e-16)
(-2.6385e-16 4.25803e-30 -8.15981e-31 12.7975 -5.14691e-15 2.4502e-14 0.132942 -5.47818e-17 2.5697e-16)
(1.0554e-15 2.46981e-30 0 12.7975 2.60694e-15 6.54634e-15 0.132942 3.02263e-17 5.98307e-16)
(0 -1.15022e-29 1.72533e-30 12.7928 -5.46378e-15 2.16647e-14 0.134825 -5.96099e-17 1.96032e-16)
(1.09125e-15 1.16441e-29 -1.72533e-30 12.7928 2.79489e-15 6.58068e-15 0.134825 2.82565e-17 6.09451e-16)
(2.81904e-16 7.14354e-30 3.91518e-28 12.788 -5.54116e-15 5.72307e-15 0.136734 -5.80417e-17 3.03814e-17)
(-1.12762e-15 -1.14842e-29 5.66868e-31 12.788 2.63882e-15 6.61556e-15 0.136734 2.77736e-17 6.20648e-16)
(2.91123e-16 -1.08676e-29 1.39712e-30 12.7831 -5.39293e-15 2.82394e-15 0.138667 -5.81394e-17 3.04555e-17)
(0 8.93989e-30 -1.11749e-30 12.7831 2.65144e-15 6.64766e-15 0.138667 2.93581e-17 6.31953e-16)
(-3.00474e-16 -2.73998e-31 2.70424e-31 12.7779 -5.36604e-15 2.79415e-15 0.140626 -5.91501e-17 3.06157e-17)
(0 6.60882e-30 -1.10147e-30 12.7779 2.56491e-15 6.68311e-15 0.140626 2.66821e-17 6.43307e-16)
(3.09956e-16 2.41252e-30 -8.04672e-31 12.7726 -5.35667e-15 2.7644e-15 0.14261 -5.96331e-17 3.0683e-17)
(9.34232e-16 1.62466e-31 5.42841e-31 12.7726 2.48758e-15 6.72305e-15 0.14261 2.8491e-17 6.54802e-16)
(3.01213e-16 -6.42073e-30 5.35061e-31 12.7671 -5.29945e-15 2.73489e-15 0.14462 -5.95862e-17 3.08439e-17)
(1.27829e-15 8.72935e-30 0 12.7671 2.53488e-15 6.75719e-15 0.14462 2.85355e-17 6.6638e-16)
(-3.29325e-16 -1.763e-31 -2.82413e-31 12.7613 -5.17547e-15 2.70724e-15 0.146655 -5.85297e-17 3.09461e-17)
(0 6.32871e-30 0 12.7613 2.47045e-15 6.79654e-15 0.146655 2.78446e-17 6.77985e-16)
(-3.39216e-16 1.93447e-30 -2.83112e-31 12.7553 -5.07917e-15 2.68275e-15 0.148716 -5.90857e-17 3.11763e-17)
(0 4.15867e-30 0 12.7553 2.53818e-15 6.84014e-15 0.148716 3.0951e-17 6.89717e-16)
(0 -6.14859e-30 5.12383e-31 12.749 -4.93997e-15 2.64486e-15 0.150802 -5.69503e-17 3.09559e-17)
(0 8.19813e-30 -5.12383e-31 12.749 2.68013e-15 6.8762e-15 0.150802 3.20193e-17 7.01532e-16)
(-3.59416e-16 -8.30933e-32 -2.84629e-31 12.7424 -5.0558e-15 2.59441e-15 0.152914 -6.35973e-17 3.08785e-17)
(0 8.08063e-30 -5.05039e-31 12.7424 2.48207e-15 6.90615e-15 0.152914 2.71027e-17 7.13451e-16)
(0 1.59296e-29 -1.9912e-30 12.7354 -5.39154e-15 2.55668e-15 0.155051 -6.67958e-17 3.09438e-17)
(-1.47892e-15 -1.41353e-29 1.4934e-30 12.7354 2.44332e-15 6.92987e-15 0.155051 3.20135e-17 7.25503e-16)
(1.72252e-16 -7.87286e-30 6.95262e-31 12.7281 -5.17963e-15 2.53258e-15 0.157213 -6.02239e-17 3.11875e-17)
(9.68316e-16 1.198e-29 -9.81332e-31 12.7281 2.49518e-15 6.95951e-15 0.157213 2.91782e-17 7.37591e-16)
(0 1.16072e-29 -9.67267e-31 12.7204 -4.95339e-15 2.51097e-15 0.159399 -6.30809e-17 3.13083e-17)
(0 -1.16072e-29 9.67267e-31 12.7204 2.13795e-15 6.99965e-15 0.159399 2.39954e-17 7.4982e-16)
(-4.01548e-16 7.66393e-30 -7.64246e-31 12.7123 -4.88487e-15 2.48656e-15 0.16161 -6.02452e-17 3.14802e-17)
(1.60619e-15 -5.50299e-30 4.76702e-31 12.7123 2.08318e-15 7.03765e-15 0.16161 2.86399e-17 7.62167e-16)
(1.35393e-15 -1.14076e-29 1.04642e-30 12.7036 -4.72483e-15 2.46599e-15 0.163845 -6.07991e-17 3.16949e-17)
(1.12078e-15 7.74427e-30 -4.69869e-31 12.7036 2.05243e-15 7.06797e-15 0.163845 2.39049e-17 7.74598e-16)
(0 -5.55762e-30 9.2627e-31 12.6944 -4.91226e-15 2.43985e-15 0.166104 -6.69167e-17 3.17179e-17)
(0 7.41016e-30 -4.63135e-31 12.6944 1.69923e-15 7.08955e-15 0.166104 2.02323e-17 7.87146e-16)
(-4.34717e-16 -1.70492e-30 1.66749e-31 12.6846 -5.12242e-15 2.41743e-15 0.168385 -6.81619e-17 3.2028e-17)
(0 7.30395e-30 -9.12994e-31 12.6846 1.74569e-15 7.10336e-15 0.168385 2.58392e-17 7.99841e-16)
(-8.92162e-16 1.10969e-29 -1.03093e-30 12.6742 -5.05738e-15 2.40273e-15 0.170688 -6.71244e-17 3.22508e-17)
(1.78432e-15 -1.05567e-29 8.99908e-31 12.6742 1.76706e-15 7.13726e-15 0.170688 2.14008e-17 8.12496e-16)
(-4.57602e-16 1.95113e-30 -2.91231e-31 12.663 -4.74398e-15 2.38643e-15 0.173012 -6.15909e-17 3.25206e-17)
(0 5.32206e-30 -4.43505e-31 12.663 1.70341e-15 7.17644e-15 0.173012 2.48559e-17 8.25357e-16)
(2.29033e-17 -3.29335e-30 1.45136e-31 12.6511 -4.47477e-15 2.36586e-15 0.175357 -6.16239e-17 3.26252e-17)
(1.38494e-15 8.98743e-30 -8.74297e-31 12.6511 2.14988e-15 7.18228e-15 0.175357 3.44109e-17 8.38278e-16)
(-4.81122e-16 8.84691e-30 -1.15461e-30 12.6382 -4.67914e-15 2.32999e-15 0.17772 -6.91459e-17 3.24639e-17)
(0 -1.72353e-30 0 12.6382 2.09352e-15 7.17069e-15 0.17772 2.39979e-17 8.51253e-16)
(-9.86247e-16 1.24016e-29 -1.01198e-30 12.6245 -5.099e-15 2.29432e-15 0.180101 -7.54153e-17 3.25625e-17)
(-1.97249e-15 -8.75003e-30 4.24707e-31 12.6245 2.17876e-15 7.18556e-15 0.180101 3.78525e-17 8.64151e-16)
(-1.01058e-15 -7.80939e-30 2.48474e-31 12.6097 -5.1852e-15 2.28125e-15 0.182498 -7.3668e-17 3.30363e-17)
(4.0423e-15 1.22494e-29 -8.37241e-31 12.6097 2.5982e-15 7.2068e-15 0.182498 3.68492e-17 8.77286e-16)
(-1.55285e-15 1.90775e-29 -1.71105e-30 12.5938 -5.06129e-15 2.25334e-15 0.184909 -7.39835e-17 3.26963e-17)
(-2.07047e-15 -1.34787e-29 8.25241e-31 12.5938 2.35638e-15 7.19948e-15 0.184909 3.18557e-17 8.90385e-16)
(-5.30111e-16 -6.17192e-30 5.17333e-31 12.5766 -4.47351e-15 2.21408e-15 0.187332 -5.83033e-17 3.28337e-17)
(1.20462e-15 1.00465e-29 -8.13413e-31 12.5766 1.90836e-15 7.20133e-15 0.187332 2.45725e-17 9.0343e-16)
(5.42772e-16 -9.97982e-30 2.96942e-31 12.5581 -4.19066e-15 2.18179e-15 0.189766 -6.75958e-17 3.26773e-17)
(0 8.01755e-30 0 12.5581 1.4718e-15 7.20597e-15 0.189766 1.95848e-17 9.1666e-16)
(0 -9.48316e-30 1.58053e-30 12.5382 -5.14021e-15 2.16395e-15 0.192208 -8.91481e-17 3.3248e-17)
(2.2224e-15 9.77653e-30 -1.58053e-30 12.5382 1.78854e-15 7.21147e-15 0.192208 3.50115e-17 9.29822e-16)
(8.77005e-16 -9.34724e-30 7.78937e-31 12.5167 -5.32074e-15 2.17069e-15 0.194654 -7.51959e-17 3.38446e-17)
(2.27439e-15 9.65252e-30 -7.78937e-31 12.5167 2.05426e-15 7.2282e-15 0.194654 2.84307e-17 9.42992e-16)
(-8.64435e-16 9.21327e-30 -7.67773e-31 12.4934 -4.47942e-15 2.15502e-15 0.197104 -6.51877e-17 3.3727e-17)
(2.32706e-15 -2.75678e-30 0 12.4934 1.73063e-15 7.22477e-15 0.197104 2.58158e-17 9.56256e-16)
(-8.52046e-16 9.08122e-30 -1.51354e-30 12.4683 -4.49505e-15 2.11748e-15 0.199552 -7.78994e-17 3.36331e-17)
(8.52046e-16 -9.08122e-30 1.51354e-30 12.4683 1.55413e-15 7.18941e-15 0.199552 2.3608e-17 9.69485e-16)
(-1.21722e-15 3.9403e-30 -6.02782e-31 12.4412 -4.76865e-15 2.06207e-15 0.201997 -7.59917e-17 3.29136e-17)
(0 0 0 12.4412 1.68355e-15 7.14114e-15 0.201997 3.07791e-17 9.82521e-16)
(8.27797e-16 -1.17637e-29 7.35231e-31 12.412 -4.07188e-15 1.97921e-15 0.204433 -5.72006e-17 3.18853e-17)
(1.66135e-15 1.20902e-29 -7.35231e-31 12.412 2.15292e-15 7.09436e-15 0.204433 3.97802e-17 9.95514e-16)
(0 8.69632e-30 0 12.3804 -3.71016e-15 1.89552e-15 0.206858 -6.61143e-17 3.10775e-17)
(2.54455e-15 -5.4566e-30 0 12.3804 2.11302e-15 7.04089e-15 0.206858 3.03456e-17 1.00851e-15)
(-6.50156e-16 -8.81395e-31 -3.04545e-31 12.3464 -3.88918e-15 1.79644e-15 0.209266 -6.49535e-17 2.94557e-17)
(0 5.71445e-30 0 12.3464 1.61128e-15 6.99429e-15 0.209266 2.39126e-17 1.02121e-15)
(6.64346e-16 6.47208e-30 -3.98422e-31 12.3097 -3.94075e-15 1.66298e-15 0.211654 -6.98273e-17 2.73914e-17)
(0 -2.81628e-30 0 12.3097 1.39253e-15 6.93944e-15 0.211654 2.37003e-17 1.03402e-15)
(1.5627e-15 -5.55182e-30 6.93978e-31 12.2702 -4.62942e-15 1.51696e-15 0.214017 -9.09197e-17 2.52165e-17)
(0 8.32773e-30 0 12.2702 1.11956e-15 6.85752e-15 0.214017 1.50749e-17 1.04679e-15)
(7.70151e-16 -8.20838e-30 0 12.2277 -4.97399e-15 1.38696e-15 0.216349 -8.40881e-17 2.35852e-17)
(0 8.20838e-30 0 12.2277 7.80456e-16 6.79791e-15 0.216349 1.23733e-17 1.05925e-15)
(-6.56736e-16 -4.1263e-30 5.73893e-32 12.1821 -4.40912e-15 1.27697e-15 0.218645 -7.3267e-17 2.1999e-17)
(0 8.09073e-30 0 12.1821 7.81844e-16 6.74328e-15 0.218645 1.55664e-17 1.07188e-15)
(-2.21925e-15 1.26163e-29 -9.73991e-31 12.1331 -4.2206e-15 1.12594e-15 0.2209 -7.96725e-17 1.87653e-17)
(1.49647e-15 -1.0633e-29 6.64564e-31 12.1331 1.03632e-15 6.63036e-15 0.2209 2.20214e-17 1.08452e-15)
(7.37805e-16 -1.98522e-30 3.10187e-31 12.0807 -4.37707e-15 9.55765e-16 0.223108 -8.12054e-17 1.63437e-17)
(-4.42624e-15 -3.93398e-31 0 12.0807 9.58045e-16 6.44552e-15 0.223108 1.31247e-17 1.09683e-15)
(1.45388e-15 -7.74781e-30 6.45651e-31 12.0246 -4.40875e-15 7.88984e-16 0.225263 -8.31964e-17 1.30511e-17)
(-3.01195e-15 9.94544e-30 -6.45651e-31 12.0246 1.26008e-15 6.26964e-15 0.225263 3.40102e-17 1.10852e-15)
(-7.68327e-16 1.21723e-29 -3.11606e-31 11.9646 -4.38271e-15 6.21339e-16 0.227359 -8.25919e-17 1.04346e-17)
(6.14661e-15 -6.84993e-30 0 11.9646 1.85619e-15 6.14855e-15 0.227359 3.62233e-17 1.12011e-15)
(7.83821e-16 5.53377e-30 3.12086e-31 11.9006 -3.98881e-15 4.81492e-16 0.229389 -7.04063e-17 8.02716e-18)
(3.13528e-15 -4.35065e-32 0 11.9006 1.1453e-29 6.02485e-15 0.229389 0 1.13138e-15)
(0 0 0 11.8326 -3.635e-15 3.28164e-16 0.231349 -7.11348e-17 4.72673e-18)
(0 4.94628e-30 0 11.8326 4.88633e-16 5.87357e-15 0.231349 2.03804e-17 1.14217e-15)
(-8.15258e-16 -1.26312e-29 6.16415e-31 11.7603 -3.90622e-15 1.30013e-16 0.233231 -8.32608e-17 1.28398e-18)
(3.26103e-15 1.50412e-29 -6.09424e-31 11.7603 1.35833e-15 5.67463e-15 0.233231 3.33716e-17 1.15273e-15)
(-2.18382e-15 9.20333e-30 4.29284e-45 11.6836 -4.53592e-15 -3.09332e-29 0.23503 -9.86386e-17 -3.9443e-31)
(-3.32477e-15 -5.21916e-30 -6.00689e-31 11.6836 2.21541e-15 5.46975e-15 0.23503 5.55767e-17 1.16243e-15)
(2.18051e-15 -9.10337e-30 3.12224e-31 11.6024 -4.81192e-15 -2.92296e-16 0.23674 -9.70036e-17 3.92532e-18)
(2.05581e-15 7.52716e-30 0 11.6024 3.04395e-15 5.3099e-15 0.23674 6.82829e-17 1.17189e-15)
(-8.63466e-16 1.36758e-29 -8.94782e-31 11.5167 -4.25819e-15 -4.59285e-16 0.238355 -7.852e-17 7.98885e-18)
(3.45387e-15 -1.12073e-29 5.83594e-31 11.5167 2.38445e-15 5.11181e-15 0.238355 2.98015e-17 1.18137e-15)
(-8.79795e-16 4.30822e-30 -3.10217e-31 11.4265 -3.48293e-15 -6.67764e-16 0.239869 -6.71633e-17 1.09789e-17)
(0 -2.30092e-30 0 11.4265 1.18302e-15 4.87835e-15 0.239869 1.96363e-17 1.18966e-15)
(-8.96244e-16 2.00831e-30 -3.08628e-31 11.3316 -3.24718e-15 -9.14883e-16 0.241279 -7.07374e-17 1.70115e-17)
(0 4.53588e-30 0 11.3316 1.19557e-15 4.66397e-15 0.241279 3.1211e-17 1.19767e-15)
(-9.12806e-16 -9.16617e-30 -3.07059e-31 11.232 -3.04901e-15 -1.11276e-15 0.242577 -6.0532e-17 2.18694e-17)
(3.65122e-15 1.16763e-29 0 11.232 1.22928e-15 4.4702e-15 0.242577 2.16742e-17 1.20515e-15)
(9.29474e-16 -1.08248e-29 3.0143e-31 11.1279 -2.90114e-15 6.4951e-16 0.243762 -6.63004e-17 5.50676e-17)
(0 8.81357e-30 0 11.1279 6.13129e-16 4.2837e-15 0.243762 6.699e-18 1.21192e-15)
(1.22262e-15 -4.34363e-30 0 11.0192 -3.21331e-15 5.1014e-15 0.244829 -7.62468e-17 1.71968e-16)
(0 -3.50325e-45 0 11.0192 1.20357e-29 4.03993e-15 0.244829 6.02799e-46 1.21837e-15)
(-9.63097e-16 -2.26681e-30 -2.93588e-31 10.906 -3.05993e-15 7.53181e-15 0.245774 -6.12929e-17 1.66805e-16)
(0 8.56274e-30 0 10.906 1.403e-16 3.77822e-15 0.245774 1.25839e-17 1.22458e-15)
(1.18783e-15 -1.688e-29 1.055e-30 10.7884 -2.15435e-15 7.30958e-15 0.246595 -3.68509e-17 1.6679e-16)
(7.8403e-15 2.00292e-29 -1.055e-30 10.7884 9.9636e-16 3.53637e-15 0.246595 3.30357e-17 1.2308e-15)
(-1.1708e-15 -4.78828e-30 -1.03988e-30 10.6666 0 7.19231e-15 0.24729 0 1.66222e-16)
(3.98821e-15 -2.10195e-45 0 10.6666 1.18452e-29 6.92115e-15 0.24729 0 1.23542e-15)
(-3.32218e-15 1.63696e-29 -3.06372e-31 10.5406 -2.90781e-16 6.89247e-15 0.247858 -1.63752e-17 1.57489e-16)
(-2.90251e-15 -1.28332e-29 0 10.5406 -1.7228e-15 1.16745e-14 0.247858 3.02662e-17 1.28098e-15)
(1.06212e-16 8.07869e-30 7.06003e-31 10.4107 -1.09411e-15 6.51884e-15 0.248298 -3.5909e-17 1.53155e-16)
(-4.12508e-15 -4.56312e-30 0 10.4107 -1.49555e-15 1.27394e-14 0.248298 5.08108e-17 1.34316e-15)
(0 3.98323e-30 0 10.277 -1.01434e-15 6.26405e-15 0.24861 -1.29697e-17 1.49693e-16)
(-1.12118e-15 0 0 10.277 -8.11474e-16 1.24268e-14 0.24861 2.02437e-17 1.40592e-15)
(0 3.92614e-30 -9.81534e-31 10.1399 -6.03913e-16 6.07009e-15 0.248794 -1.66815e-17 1.48058e-16)
(4.26272e-15 5.53403e-31 0 10.1399 -1.10658e-15 1.21576e-14 0.248794 1.89828e-17 1.46837e-15)
(-2.18487e-15 1.34686e-29 -1.63799e-30 9.99946 -1.6443e-15 5.80401e-15 0.248853 -6.55036e-17 1.4074e-16)
(1.08927e-15 -1.16096e-29 9.67466e-31 9.99946 -6.82961e-16 1.19069e-14 0.248853 3.54181e-17 1.53126e-15)
(0 -2.47936e-29 0 9.85601 -3.32088e-15 5.45094e-15 0.248787 -1.02438e-16 1.34438e-16)
(8.8017e-15 2.5854e-29 1.71912e-31 9.85601 1.32904e-15 1.15892e-14 0.248787 6.58711e-17 1.43886e-15)
(1.05827e-15 -3.75973e-30 9.39932e-31 9.70982 -3.64822e-15 5.22638e-15 0.248599 -8.43123e-17 1.33276e-16)
(8.94002e-15 0 4.1269e-31 9.70982 1.17319e-29 1.11356e-14 0.248599 1.97215e-31 1.28376e-15)
(-2.26959e-15 5.87975e-30 -5.75855e-31 9.56117 -3.00052e-15 5.02005e-15 0.248293 -7.1533e-17 1.27575e-16)
(0 -1.85292e-30 0 9.56117 -2.42044e-16 1.07656e-14 0.248293 3.14476e-18 1.13621e-15)
(-1.15208e-15 1.91017e-31 -2.849e-31 9.41034 -2.24671e-15 4.72944e-15 0.247871 -4.67475e-17 1.21746e-16)
(9.21666e-15 6.67175e-30 8.77117e-31 9.41034 -3.10535e-16 1.04614e-14 0.247871 1.26079e-17 9.85137e-16)
(1.16936e-15 -9.21988e-30 1.18219e-30 9.25764 -1.49321e-15 4.39792e-15 0.247339 -3.30292e-17 1.1345e-16)
(0 7.20075e-30 -9.00094e-31 9.25764 -2.76749e-16 1.00535e-14 0.247339 3.701e-18 8.33993e-16)
(-1.18661e-15 2.42374e-31 -2.78762e-31 9.10336 -1.54283e-15 4.06274e-15 0.246699 -5.08293e-17 1.0699e-16)
(0 5.32316e-30 0 9.10336 -1.09266e-15 9.69087e-15 0.246699 5.1556e-17 6.82604e-16)
(-1.20383e-15 1.25078e-29 -1.14934e-30 8.9478 -2.29153e-15 3.83081e-15 0.245957 -7.55192e-17 1.0391e-16)
(4.81531e-15 -9.90077e-30 1.66423e-30 8.9478 5.82662e-16 9.39712e-15 0.245957 3.98465e-17 5.28533e-16)
(-1.22101e-15 7.18811e-30 -1.1332e-30 8.79126 -2.58779e-15 3.61255e-15 0.245118 -6.8988e-17 9.78433e-17)
(4.88404e-15 -1.12075e-30 9.06411e-31 8.79126 1.60161e-15 9.01726e-15 0.245118 4.96905e-17 3.76139e-16)
(-2.4763e-15 6.46653e-31 -5.34499e-31 8.63403 -1.90588e-15 3.37621e-15 0.244186 -3.88049e-17 9.3463e-17)
(0 3.39836e-30 0 8.63403 1.94314e-15 8.56515e-15 0.244186 6.05098e-17 2.38004e-16)
(-1.25523e-15 8.71605e-30 -1.10196e-30 8.4764 -2.05801e-15 3.0206e-15 0.243169 -7.98195e-17 8.01141e-17)
(0 -1.11161e-29 0 8.4764 1.14245e-15 8.20181e-15 0.243169 1.64217e-17 2.33539e-16)
(0 -4.95247e-30 0 8.31863 -3.12702e-15 2.6262e-15 0.24207 -1.02753e-16 7.30274e-17)
(-5.08904e-15 5.98046e-30 -1.08208e-30 8.31863 1.4094e-15 7.83936e-15 0.24207 6.61512e-17 2.23679e-16)
(1.28922e-15 -1.01617e-29 2.34747e-31 8.161 -2.63612e-15 2.39225e-15 0.240895 -5.2895e-17 2.21971e-16)
(5.15688e-15 8.77798e-30 1.11734e-30 8.161 2.20358e-15 7.37481e-15 0.240895 6.42445e-17 2.12688e-16)
(1.30611e-15 -1.16499e-29 -1.39426e-30 8.00375 -1.7207e-15 2.16782e-15 0.239651 -5.03999e-17 3.66144e-16)
(-5.22443e-15 8.93908e-30 4.53551e-31 8.00375 9.85325e-16 6.94377e-15 0.239651 1.479e-17 2.04163e-16)
(-1.32292e-15 6.31641e-30 -1.84387e-31 7.84713 -9.59678e-16 1.9611e-15 0.238342 -1.46145e-17 5.08713e-16)
(3.51179e-15 6.81947e-31 1.18054e-30 7.84713 7.57918e-16 6.62653e-15 0.238342 3.14986e-17 1.99453e-16)
(0 0 1.5582e-30 7.69135 4.04625e-44 1.87574e-15 0.236974 -6.25116e-46 6.50328e-16)
(0 -3.11639e-30 -1.5582e-30 7.69135 8.88075e-16 6.39182e-15 0.236974 2.33255e-17 1.95533e-16)
(-1.72923e-15 9.21517e-30 -1.53586e-30 7.53664 5.79672e-16 1.70224e-15 0.235553 -2.68047e-17 7.87776e-16)
(3.69592e-15 -2.38299e-30 1.23981e-30 7.53664 7.97155e-16 6.18317e-15 0.235553 7.45828e-17 1.92118e-16)
(1.37284e-15 -1.49286e-29 -6.4778e-31 7.38318 5.92006e-16 1.48607e-15 0.234083 -9.41442e-18 9.3132e-16)
(0 9.0831e-30 7.56925e-31 7.38318 -2.18584e-16 5.82113e-15 0.234083 9.05879e-17 1.78064e-16)
(0 8.95291e-30 1.49215e-30 7.23116 1.65658e-15 1.37197e-15 0.232571 -3.77206e-17 1.06345e-15)
(-5.55715e-15 -6.61806e-30 -2.79515e-30 7.23116 -1.2879e-15 5.43832e-15 0.232571 1.59338e-16 1.72862e-16)
(-1.65593e-15 0 -1.47077e-30 7.08073 2.28603e-15 1.24528e-15 0.23102 -6.94161e-17 1.19373e-15)
(0 5.88306e-30 0 7.08073 -1.07368e-15 5.28516e-15 0.23102 2.44455e-16 1.7318e-16)
(-1.6322e-15 8.69812e-30 0 6.93205 2.1242e-15 1.0367e-15 0.229436 -8.03376e-17 1.32798e-15)
(0 -5.79874e-30 0 6.93205 -9.90146e-16 5.17028e-15 0.229436 3.19767e-16 1.70239e-16)
(1.43804e-15 1.51345e-29 1.12305e-32 6.78526 1.53972e-15 8.57354e-16 0.227822 -6.06216e-17 1.46835e-15)
(0 -1.71469e-29 0 6.78526 -1.53369e-15 4.91438e-15 0.227822 4.85117e-16 1.60881e-16)
(1.45407e-15 6.43567e-30 0 6.64046 1.2685e-15 7.48216e-16 0.226185 -4.30156e-17 1.50586e-15)
(-3.1715e-15 -5.63371e-30 0 6.64046 -1.859e-15 4.62502e-15 0.226185 7.07387e-16 1.55299e-16)
(-2.93999e-15 4.02861e-30 0 6.49777 1.3736e-15 6.55057e-16 0.224526 -4.3719e-17 1.46138e-15)
(5.87999e-15 3.03654e-31 1.42583e-30 6.49777 -1.52693e-15 4.44901e-15 0.224526 8.33278e-16 1.53296e-16)
(-1.48581e-15 2.01117e-30 0 6.35727 1.4986e-15 5.79948e-16 0.222851 -5.16187e-17 1.41794e-15)
(0 2.73669e-30 1.36834e-30 6.35727 -1.10935e-15 4.2532e-15 0.222851 9.6451e-16 1.45968e-16)
(0 5.39493e-30 0 6.21905 2.36056e-15 4.62727e-16 0.221163 -5.38605e-17 1.37378e-15)
(-1.51854e-15 -5.39493e-30 0 6.21905 -7.48712e-16 3.93403e-15 0.221163 1.14692e-15 1.34833e-16)
(-1.49677e-15 1.06352e-29 1.3294e-30 6.08317 3.75704e-15 3.46692e-16 0.219465 -1.1512e-16 1.32928e-15)
(0 -5.31761e-30 -1.3294e-30 6.08317 -1.51071e-15 3.59114e-15 0.219465 1.37255e-15 1.25225e-16)
(-1.47532e-15 1.04828e-29 -1.31035e-30 5.94969 3.95623e-15 2.47379e-16 0.217761 -1.57329e-16 1.28595e-15)
(0 -5.24139e-30 0 5.94969 -2.61772e-15 3.42591e-15 0.217761 1.47157e-15 1.26552e-16)
(-1.45418e-15 7.74941e-30 0 5.81865 3.31833e-15 2.67879e-16 0.216053 -1.33238e-16 1.24264e-15)
(1.23832e-14 -2.58314e-30 3.07068e-30 5.81865 -2.25959e-15 3.43695e-15 0.216053 1.45729e-15 1.29723e-16)
(-3.12626e-15 6.52626e-30 0 5.69008 2.65854e-15 2.77754e-16 0.214344 -1.14031e-16 1.19941e-15)
(6.25252e-15 -2.54611e-30 1.5568e-30 5.69008 -2.22356e-15 3.36034e-15 0.214344 1.46834e-15 1.24421e-16)
(4.40382e-15 -9.51829e-30 0 5.56401 2.30107e-15 2.11924e-16 0.212637 -8.68702e-17 1.15601e-15)
(0 7.52886e-30 0 5.56401 -3.59393e-15 3.0209e-15 0.212637 1.45484e-15 1.07285e-16)
(0 2.47365e-30 0 5.44046 2.01822e-15 1.0812e-16 0.210933 -8.97389e-17 1.11719e-15)
(-9.158e-15 2.47365e-30 -2.83591e-30 5.44046 -3.38518e-15 2.70057e-15 0.210933 1.42921e-15 1.02944e-16)
(-1.6081e-15 -7.76363e-30 -1.2191e-30 5.31944 1.10049e-15 4.94892e-17 0.209236 -6.72327e-17 1.07644e-15)
(6.43241e-15 9.75279e-30 2.83709e-30 5.31944 -1.24156e-15 2.52702e-15 0.209236 1.4338e-15 9.66192e-17)
(1.35291e-15 7.74471e-30 0 5.20093 9.65793e-16 1.45087e-16 0.207547 -1.93493e-17 1.03647e-15)
(-1.35291e-15 -4.8065e-30 -1.20163e-30 5.20093 -1.2524e-15 2.23897e-15 0.207547 1.44396e-15 8.27079e-17)
(1.33352e-15 -4.73761e-30 0 5.08496 2.3303e-15 2.68856e-16 0.205867 -6.92152e-17 9.98865e-16)
(0 7.10642e-30 0 5.08496 -3.73891e-15 1.97461e-15 0.205867 1.43374e-15 7.78e-17)
(-1.65201e-15 1.97099e-30 0 4.97149 3.15334e-15 2.4542e-16 0.204199 -1.20618e-16 9.63638e-16)
(0 0 0 4.97149 -4.22401e-15 1.94583e-15 0.204199 1.39115e-15 8.27393e-17)
(-7.41674e-16 -1.67904e-29 1.1507e-30 4.86052 2.93032e-15 1.77105e-16 0.202544 -1.39626e-16 9.2731e-16)
(1.33312e-14 2.07125e-29 4.51622e-30 4.86052 -3.50892e-15 1.81346e-15 0.202544 1.36798e-15 6.89215e-17)
(0 4.53681e-30 0 4.75202 2.84546e-15 3.73096e-16 0.200902 -1.05352e-16 8.92982e-16)
(-2.554e-15 -2.26841e-30 -1.1342e-30 4.75202 -5.01482e-15 1.49735e-15 0.200902 1.34334e-15 5.81289e-17)
(0 6.70768e-30 -1.11795e-30 4.64597 3.42085e-15 5.34881e-16 0.199276 -1.36459e-16 8.63672e-16)
(0 0 0 4.64597 -4.88057e-15 1.42725e-15 0.199276 1.2705e-15 6.48585e-17)
(-5.12671e-15 -1.1816e-29 -1.10192e-30 4.54235 3.63276e-15 6.82924e-16 0.197666 -1.5836e-16 8.33803e-16)
(1.36712e-14 1.98346e-29 4.52156e-30 4.54235 -3.28149e-15 1.55566e-15 0.197666 1.22128e-15 7.11347e-17)
(0 -2.17226e-29 0 4.44111 3.49466e-15 9.54668e-16 0.196073 -1.5911e-16 8.04923e-16)
(1.37827e-14 2.17226e-29 3.4532e-30 4.44111 -5.15802e-15 1.42986e-15 0.196073 1.19876e-15 5.55244e-17)
(-1.73666e-15 1.04932e-29 0 4.34224 3.61239e-15 1.10231e-15 0.194497 -1.50667e-16 7.77728e-16)
(0 -4.28225e-30 -1.07056e-30 4.34224 -6.66972e-15 1.30034e-15 0.194497 1.13917e-15 6.14838e-17)
(1.75038e-15 -2.30255e-29 -2.11044e-30 4.24568 4.31832e-15 1.32629e-15 0.192941 -1.74437e-16 7.50349e-16)
(1.4003e-14 2.11044e-29 5.5705e-30 4.24568 -4.74463e-15 1.46716e-15 0.192941 1.06204e-15 7.24848e-17)
(0 -1.24811e-29 0 4.15141 3.9042e-15 1.61098e-15 0.191403 -2.1997e-16 7.28076e-16)
(7.05591e-15 1.24811e-29 1.7354e-30 4.15141 -5.14943e-15 1.62087e-15 0.191403 1.02264e-15 7.76193e-17)
(1.77747e-15 -1.01144e-29 0 4.05938 3.46436e-15 1.68571e-15 0.189886 -1.40927e-16 7.06698e-16)
(0 8.20151e-30 0 4.05938 -5.69919e-15 1.64746e-15 0.189886 9.60246e-16 7.7124e-17)
(3.58171e-15 2.42631e-31 0 3.96955 3.48891e-15 1.63732e-15 0.188388 -1.84799e-16 6.84375e-16)
(4.88798e-15 -4.04198e-30 1.74617e-30 3.96955 -3.11987e-15 1.66728e-15 0.188388 9.08731e-16 8.17955e-17)
(0 7.96809e-30 0 3.88189 1.75825e-15 1.4634e-15 0.18691 -1.47411e-16 6.62049e-16)
(0 -3.98405e-30 -9.96012e-31 3.88189 -7.55607e-16 1.839e-15 0.18691 9.07701e-16 9.61059e-17)
(2.21067e-15 -7.85389e-30 0 3.79634 -3.45932e-16 1.23285e-15 0.185454 -5.6166e-17 6.33247e-16)