/*--------------------------------*- C++ -*----------------------------------*\
| =========                 |                                                 |
| \\      /  F ield         | OpenFOAM: The Open Source CFD Toolbox           |
|  \\    /   O peration     | Version:  2106                                  |
|   \\  /    A nd           | Website:  www.openfoam.com                      |
|    \\/     M anipulation  |                                                 |
\*---------------------------------------------------------------------------*/
FoamFile
{
    version     2.0;
    format      ascii;
    arch        "LSB;label=32;scalar=64";
    class       surfaceScalarField;
    location    "18000";
    object      phi;
}
// * * * * * * * * * * * * * * * * * * * * * * * * * * * * * * * * * * * * * //

dimensions      [0 3 -1 0 0 0 0];

oriented        oriented;

internalField   nonuniform List<scalar> 
5116
(
6.76702e-09
-3.41048e-18
1.29709e-22
2.0115e-22
2.29294e-23
2.06941e-08
-3.41239e-18
6.76722e-22
1.34473e-21
8.89854e-23
3.52267e-08
-3.41435e-18
6.90568e-22
2.52287e-21
9.2873e-23
5.03853e-08
-3.41633e-18
7.01313e-22
3.70094e-21
9.69022e-23
6.6191e-08
-3.41836e-18
7.13423e-22
4.90726e-21
1.01076e-22
8.26656e-08
-3.42041e-18
7.27016e-22
6.11466e-21
1.05397e-22
9.98315e-08
-3.4225e-18
7.41036e-22
7.34757e-21
1.09869e-22
1.17712e-07
-3.42461e-18
7.55212e-22
8.58154e-21
1.14496e-22
1.36331e-07
-3.42682e-18
7.69544e-22
9.90058e-21
1.19281e-22
1.55713e-07
-3.42899e-18
7.84048e-22
1.11633e-20
1.24228e-22
1.75883e-07
-3.43121e-18
7.98724e-22
1.24841e-20
1.29342e-22
1.96867e-07
-3.43348e-18
8.13571e-22
1.37643e-20
1.34627e-22
2.18693e-07
-3.43581e-18
8.28592e-22
1.51169e-20
1.40087e-22
2.41388e-07
-3.43816e-18
8.43789e-22
1.65204e-20
1.45726e-22
2.6498e-07
-3.44052e-18
8.59164e-22
1.78311e-20
1.51547e-22
2.895e-07
-3.44296e-18
8.74719e-22
1.91961e-20
1.57555e-22
3.14978e-07
-3.44533e-18
8.90456e-22
2.05268e-20
1.63756e-22
3.41444e-07
-3.44784e-18
9.06372e-22
2.18969e-20
1.70154e-22
3.68932e-07
-3.4504e-18
9.22468e-22
2.32643e-20
1.76753e-22
3.97474e-07
-3.45302e-18
9.38744e-22
2.4725e-20
1.83562e-22
4.27104e-07
-3.45558e-18
9.55196e-22
2.61162e-20
1.90582e-22
4.57859e-07
-3.45823e-18
9.71825e-22
2.75764e-20
1.9782e-22
4.89774e-07
-3.46115e-18
9.88627e-22
2.91942e-20
2.0528e-22
5.22886e-07
-3.46388e-18
1.00561e-21
3.06226e-20
2.12964e-22
5.57235e-07
-3.46674e-18
1.02276e-21
3.21819e-20
2.20883e-22
5.92861e-07
-3.46938e-18
1.04009e-21
3.34818e-20
2.29036e-22
6.29803e-07
-3.47223e-18
1.05759e-21
3.50133e-20
2.37434e-22
6.68105e-07
-3.475e-18
1.07526e-21
3.6397e-20
2.4608e-22
7.0781e-07
-3.47789e-18
1.0931e-21
3.79002e-20
2.54982e-22
7.48962e-07
-3.4809e-18
1.1111e-21
3.9559e-20
2.64144e-22
7.91608e-07
-3.48403e-18
1.12927e-21
4.12356e-20
2.73568e-22
8.35796e-07
-3.48707e-18
1.14761e-21
4.28729e-20
2.83255e-22
8.81573e-07
-3.49014e-18
1.16612e-21
4.44693e-20
2.93216e-22
9.28991e-07
-3.49331e-18
1.18477e-21
4.6083e-20
3.03464e-22
9.78102e-07
-3.49652e-18
1.20359e-21
4.765e-20
3.1401e-22
1.02896e-06
-3.49957e-18
1.22256e-21
4.92686e-20
3.24854e-22
1.08162e-06
-3.50305e-18
1.24167e-21
5.10097e-20
3.36007e-22
1.13613e-06
-3.50655e-18
1.26093e-21
5.27921e-20
3.47477e-22
1.19256e-06
-3.50961e-18
1.28034e-21
5.4262e-20
3.59271e-22
1.25097e-06
-3.5129e-18
1.29989e-21
5.56972e-20
3.71395e-22
1.31141e-06
-3.51603e-18
1.31956e-21
5.72427e-20
3.83855e-22
1.37396e-06
-3.51973e-18
1.33937e-21
5.92149e-20
3.96658e-22
1.43867e-06
-3.52351e-18
1.35932e-21
6.08772e-20
4.09805e-22
1.50562e-06
-3.52708e-18
1.3794e-21
6.28506e-20
4.23307e-22
1.57486e-06
-3.53075e-18
1.39962e-21
6.45301e-20
4.37162e-22
1.64649e-06
-3.53441e-18
1.41997e-21
6.62506e-20
4.514e-22
1.72056e-06
-3.5383e-18
1.44043e-21
6.78648e-20
4.66022e-22
1.79715e-06
-3.54187e-18
1.46101e-21
6.9864e-20
4.81044e-22
1.87634e-06
-3.54549e-18
1.48168e-21
7.15092e-20
4.96469e-22
1.95822e-06
-3.54929e-18
1.50246e-21
7.366e-20
5.12319e-22
2.04285e-06
-3.55273e-18
1.52328e-21
7.53174e-20
5.28602e-22
2.13033e-06
-3.55702e-18
1.54417e-21
7.72383e-20
5.45324e-22
2.22074e-06
-3.56099e-18
1.56512e-21
7.91099e-20
5.62477e-22
2.31417e-06
-3.56479e-18
1.58615e-21
8.09184e-20
5.80098e-22
2.41071e-06
-3.56862e-18
1.6072e-21
8.22884e-20
5.98203e-22
2.51045e-06
-3.57236e-18
1.62826e-21
8.42483e-20
6.16818e-22
2.6135e-06
-3.57656e-18
1.64935e-21
8.53735e-20
6.35931e-22
2.71993e-06
-3.58063e-18
1.67044e-21
8.70845e-20
6.55551e-22
2.82987e-06
-3.58498e-18
1.69152e-21
8.83888e-20
6.75656e-22
2.9434e-06
-3.58901e-18
1.7126e-21
8.98425e-20
6.96303e-22
3.06064e-06
-3.59277e-18
1.73367e-21
9.15572e-20
7.17478e-22
3.18169e-06
-3.59669e-18
1.75469e-21
9.36063e-20
7.39182e-22
3.30665e-06
-3.60134e-18
1.77563e-21
9.55008e-20
7.61397e-22
3.43565e-06
-3.60609e-18
1.79648e-21
9.76445e-20
7.84174e-22
3.56879e-06
-3.61059e-18
1.81728e-21
9.9891e-20
8.075e-22
3.7062e-06
-3.61512e-18
1.83795e-21
1.0206e-19
8.31372e-22
3.84798e-06
-3.61804e-18
1.85852e-21
1.02575e-19
8.55788e-22
3.99426e-06
-3.62365e-18
1.87891e-21
1.04959e-19
8.80799e-22
4.14516e-06
-3.6291e-18
1.89929e-21
1.06706e-19
9.06357e-22
4.3008e-06
-3.63319e-18
1.91958e-21
1.0836e-19
9.325e-22
4.46131e-06
-3.63774e-18
1.93969e-21
1.10012e-19
9.59151e-22
4.62682e-06
-3.64286e-18
1.95956e-21
1.11893e-19
9.86293e-22
4.79744e-06
-3.64686e-18
1.97915e-21
1.13941e-19
1.01392e-21
4.97331e-06
-3.65016e-18
1.9983e-21
1.16151e-19
1.04209e-21
5.15456e-06
-3.65487e-18
2.01688e-21
1.17699e-19
1.07082e-21
5.34132e-06
-3.65829e-18
2.03481e-21
1.19249e-19
1.10014e-21
5.53371e-06
-3.6638e-18
2.05195e-21
1.20669e-19
1.13003e-21
5.73186e-06
-3.66952e-18
2.06835e-21
1.21102e-19
1.16041e-21
5.93591e-06
-3.67427e-18
2.08391e-21
1.22314e-19
1.19143e-21
6.14599e-06
-3.67834e-18
2.09851e-21
1.22504e-19
1.22293e-21
6.36221e-06
-3.6841e-18
2.11182e-21
1.24758e-19
1.25499e-21
6.5847e-06
-3.68938e-18
2.12418e-21
1.26253e-19
1.28708e-21
6.8136e-06
-3.69418e-18
2.1353e-21
1.28393e-19
1.31946e-21
7.04902e-06
-3.69924e-18
2.14514e-21
1.29046e-19
1.35215e-21
7.29107e-06
-3.70357e-18
2.15365e-21
1.29959e-19
1.38522e-21
7.53989e-06
-3.70821e-18
2.16073e-21
1.30754e-19
1.4186e-21
7.79558e-06
-3.71347e-18
2.16641e-21
1.34241e-19
1.45218e-21
8.05825e-06
-3.72069e-18
2.17053e-21
1.38814e-19
1.4858e-21
8.32802e-06
-3.72591e-18
2.17318e-21
1.4099e-19
1.51949e-21
8.60498e-06
-3.73004e-18
2.17416e-21
1.42749e-19
1.55328e-21
8.88925e-06
-3.73443e-18
2.17321e-21
1.44711e-19
1.587e-21
9.18091e-06
-3.73862e-18
2.17042e-21
1.45725e-19
1.62062e-21
9.48005e-06
-3.74199e-18
2.16581e-21
1.46625e-19
1.6544e-21
9.78678e-06
-3.74784e-18
2.1591e-21
1.47193e-19
1.68825e-21
1.01012e-05
-3.75073e-18
2.15077e-21
1.47424e-19
1.72191e-21
1.04233e-05
-3.75503e-18
2.14029e-21
1.48248e-19
1.75527e-21
1.07533e-05
-3.75596e-18
2.12797e-21
1.48818e-19
1.78833e-21
1.10912e-05
-3.75395e-18
2.11318e-21
1.45406e-19
1.82142e-21
1.1437e-05
-3.7583e-18
2.09523e-21
1.44203e-19
1.85482e-21
1.17909e-05
-3.7586e-18
2.07559e-21
1.43215e-19
1.88769e-21
1.21529e-05
-3.76032e-18
2.05331e-21
1.39961e-19
1.92007e-21
1.25231e-05
-3.76132e-18
2.029e-21
1.40011e-19
1.95245e-21
1.29015e-05
-3.76808e-18
2.00212e-21
1.41565e-19
1.98361e-21
1.32882e-05
-3.77487e-18
1.97349e-21
1.4426e-19
2.01418e-21
1.36833e-05
-3.77803e-18
1.94355e-21
1.44016e-19
2.04373e-21
1.40868e-05
-3.78216e-18
1.91105e-21
1.42737e-19
2.07269e-21
1.44989e-05
-3.7846e-18
1.87687e-21
1.40697e-19
2.10116e-21
1.49194e-05
-3.78671e-18
1.84058e-21
1.39819e-19
2.12856e-21
1.53486e-05
-3.79066e-18
1.802e-21
1.40229e-19
2.15545e-21
1.57865e-05
-3.79686e-18
1.76173e-21
1.42944e-19
2.18146e-21
1.62331e-05
-3.79977e-18
1.71997e-21
1.46647e-19
2.20628e-21
1.66885e-05
-3.80027e-18
1.67608e-21
1.49061e-19
2.22982e-21
1.71528e-05
-3.80929e-18
1.62965e-21
1.51299e-19
2.25187e-21
1.7626e-05
-3.81355e-18
1.58132e-21
1.56051e-19
2.2727e-21
1.81083e-05
-3.81593e-18
1.53111e-21
1.58193e-19
2.29278e-21
1.85997e-05
-3.8194e-18
1.47859e-21
1.59551e-19
2.31223e-21
1.91003e-05
-3.81842e-18
1.42607e-21
1.61106e-19
2.33081e-21
1.96102e-05
-3.81577e-18
1.37107e-21
1.63509e-19
2.34963e-21
2.01295e-05
-3.81691e-18
1.3138e-21
1.61726e-19
2.36747e-21
2.06583e-05
-3.81237e-18
1.25528e-21
1.60904e-19
2.38516e-21
2.11966e-05
-3.80735e-18
1.19412e-21
1.57181e-19
2.40201e-21
2.17446e-05
-3.80202e-18
1.13005e-21
1.55305e-19
2.4189e-21
2.23024e-05
-3.80013e-18
1.06412e-21
1.51919e-19
2.43539e-21
2.287e-05
-3.79776e-18
9.97289e-22
1.49799e-19
2.45087e-21
2.34477e-05
-3.79383e-18
9.27993e-22
1.43448e-19
2.46581e-21
2.40356e-05
-3.79038e-18
8.56762e-22
1.41965e-19
2.47945e-21
2.46337e-05
-3.78704e-18
7.83447e-22
1.41318e-19
2.49149e-21
2.52422e-05
-3.77558e-18
7.07754e-22
1.38226e-19
2.50093e-21
2.58613e-05
-3.76777e-18
6.29817e-22
1.32873e-19
2.50792e-21
2.6491e-05
-3.76089e-18
5.49071e-22
1.25485e-19
2.51356e-21
2.71315e-05
-3.7524e-18
4.67552e-22
1.20668e-19
2.51645e-21
2.77831e-05
-3.74927e-18
3.8527e-22
1.11971e-19
2.51462e-21
2.84458e-05
-3.74274e-18
3.04806e-22
1.04668e-19
2.51039e-21
2.91197e-05
-3.73971e-18
2.21501e-22
9.92448e-20
2.5062e-21
2.98051e-05
-3.74048e-18
1.3885e-22
9.84091e-20
2.49896e-21
3.05022e-05
-3.73317e-18
5.89094e-23
8.98192e-20
2.4852e-21
3.12111e-05
-3.72316e-18
-2.10504e-23
7.71455e-20
2.46755e-21
3.19319e-05
-3.71502e-18
-9.87721e-23
6.84797e-20
2.44995e-21
3.26649e-05
-3.71101e-18
-1.77671e-22
5.08163e-20
2.42983e-21
3.34103e-05
-3.6979e-18
-2.5437e-22
4.68148e-20
2.40897e-21
3.41682e-05
-3.68985e-18
-3.34771e-22
3.32229e-20
2.37781e-21
3.49389e-05
-3.67933e-18
-4.16167e-22
1.84214e-20
2.34092e-21
3.57225e-05
-3.67152e-18
-4.97571e-22
8.51164e-22
2.29728e-21
3.65193e-05
-3.6575e-18
-5.8458e-22
-1.23651e-20
2.25351e-21
3.73294e-05
-3.64687e-18
-6.74e-22
-2.66191e-20
2.20538e-21
3.81531e-05
-3.63719e-18
-7.64895e-22
-4.62336e-20
2.15566e-21
3.89907e-05
-3.62543e-18
-8.56201e-22
-5.51636e-20
2.10741e-21
3.98422e-05
-3.61829e-18
-9.53076e-22
-5.84331e-20
2.05695e-21
4.0708e-05
-3.62023e-18
-1.05718e-21
-5.40389e-20
2.00667e-21
4.15883e-05
-3.62526e-18
-1.16285e-21
-5.52479e-20
1.95798e-21
4.24834e-05
-3.61707e-18
-1.26592e-21
-6.50034e-20
1.91031e-21
4.33933e-05
-3.61805e-18
-1.37461e-21
-6.54701e-20
1.87983e-21
4.43186e-05
-3.61283e-18
-1.48031e-21
-7.39983e-20
1.84807e-21
4.52593e-05
-3.60064e-18
-1.588e-21
-8.12344e-20
1.81274e-21
4.62157e-05
-3.60131e-18
-1.70466e-21
-8.60942e-20
1.77901e-21
4.71881e-05
-3.59066e-18
-1.82566e-21
-9.87632e-20
1.74817e-21
4.81767e-05
-3.59011e-18
-1.9535e-21
-1.07038e-19
1.72117e-21
4.91819e-05
-3.58267e-18
-2.07572e-21
-1.1593e-19
1.70591e-21
5.02039e-05
-3.56547e-18
-2.1974e-21
-1.22406e-19
1.69814e-21
5.1243e-05
-3.54444e-18
-2.32928e-21
-1.29668e-19
1.68924e-21
5.22994e-05
-3.52944e-18
-2.46208e-21
-1.40491e-19
1.67475e-21
5.33736e-05
-3.51924e-18
-2.59192e-21
-1.68456e-19
1.67099e-21
5.44656e-05
-3.51367e-18
-2.72061e-21
-1.76875e-19
1.69192e-21
5.55759e-05
-3.50166e-18
-2.82266e-21
-1.93267e-19
1.70544e-21
5.67048e-05
-3.49752e-18
-2.93217e-21
-2.03551e-19
1.72408e-21
5.78526e-05
-3.4791e-18
-3.02615e-21
-2.22132e-19
1.74124e-21
5.90195e-05
-3.46809e-18
-3.10969e-21
-2.36622e-19
1.76867e-21
6.0206e-05
-3.45736e-18
-3.19486e-21
-2.50162e-19
1.80257e-21
6.14123e-05
-3.44571e-18
-3.2792e-21
-2.68626e-19
1.83147e-21
6.26387e-05
-3.43036e-18
-3.36667e-21
-2.86637e-19
1.85222e-21
6.38857e-05
-3.42074e-18
-3.45323e-21
-3.02434e-19
1.84908e-21
6.51535e-05
-3.41078e-18
-3.54067e-21
-3.13184e-19
1.81548e-21
6.64426e-05
-3.39954e-18
-3.64227e-21
-3.28026e-19
1.78149e-21
6.77532e-05
-3.39916e-18
-3.74946e-21
-3.50752e-19
1.7372e-21
6.90857e-05
-3.38403e-18
-3.84402e-21
-3.78075e-19
1.70605e-21
7.04405e-05
-3.3617e-18
-3.94997e-21
-3.91954e-19
1.68754e-21
7.18179e-05
-3.35686e-18
-4.07594e-21
-4.16633e-19
1.66478e-21
7.32184e-05
-3.32115e-18
-4.1696e-21
-4.32572e-19
1.63204e-21
7.46423e-05
-3.30561e-18
-4.25166e-21
-4.5988e-19
1.60027e-21
7.609e-05
-3.28469e-18
-4.33535e-21
-4.74747e-19
1.62144e-21
7.75619e-05
-3.25725e-18
-4.42126e-21
-5.04084e-19
1.63696e-21
7.90585e-05
-3.23516e-18
-4.50583e-21
-5.18919e-19
1.6657e-21
8.058e-05
-3.21023e-18
-4.57861e-21
-5.42386e-19
1.68097e-21
8.2127e-05
-3.19369e-18
-4.65019e-21
-5.60041e-19
1.73783e-21
8.36999e-05
-3.16928e-18
-4.72107e-21
-5.86722e-19
1.7898e-21
8.5299e-05
-3.13571e-18
-4.79416e-21
-6.14518e-19
1.82987e-21
8.69249e-05
-3.13215e-18
-4.87266e-21
-6.3166e-19
1.84045e-21
8.8578e-05
-3.10605e-18
-4.93248e-21
-6.58554e-19
1.82435e-21
9.02587e-05
-3.07849e-18
-5.00333e-21
-6.85979e-19
1.82592e-21
9.19675e-05
-3.05707e-18
-5.10794e-21
-7.09753e-19
1.80181e-21
9.37048e-05
-3.02412e-18
-5.20879e-21
-7.21527e-19
1.78567e-21
9.54711e-05
-2.99976e-18
-5.32027e-21
-7.51859e-19
1.74193e-21
9.7267e-05
-2.96666e-18
-5.43522e-21
-7.72725e-19
1.68001e-21
9.90928e-05
-2.92554e-18
-5.50678e-21
-8.13276e-19
1.58351e-21
0.000100949
-2.89979e-18
-5.58041e-21
-8.3314e-19
1.52283e-21
0.000102836
-2.85801e-18
-5.62185e-21
-8.63526e-19
1.40935e-21
0.000104755
-2.82763e-18
-5.69649e-21
-8.91334e-19
1.32246e-21
0.000106706
-2.79066e-18
-5.72707e-21
-9.14923e-19
1.29437e-21
0.00010869
-2.76379e-18
-5.78233e-21
-9.41505e-19
1.28885e-21
0.000110706
-2.72867e-18
-5.87207e-21
-9.71087e-19
1.2478e-21
0.000112756
-2.64806e-18
-5.97075e-21
-1.01841e-18
1.2267e-21
0.00011484
-2.60749e-18
-6.13643e-21
-1.04337e-18
1.24276e-21
0.000116959
-2.57466e-18
-6.24513e-21
-1.07e-18
1.1881e-21
0.000119114
-2.51539e-18
-6.33644e-21
-1.09885e-18
1.14028e-21
0.000121304
-2.47794e-18
-6.49568e-21
-1.1245e-18
1.12874e-21
0.000123531
-2.47564e-18
-6.67989e-21
-1.14622e-18
1.13225e-21
0.000125795
-2.47677e-18
-6.86726e-21
-1.15094e-18
1.14036e-21
0.000128096
-2.47426e-18
-7.05136e-21
-1.15376e-18
1.10114e-21
0.000130436
-2.46983e-18
-7.2983e-21
-1.16379e-18
1.00198e-21
0.000132815
-2.46541e-18
-7.64443e-21
-1.16363e-18
9.32939e-22
0.000135233
-2.4379e-18
-8.0146e-21
-1.16295e-18
9.08149e-22
0.000137691
-2.42391e-18
-8.50594e-21
-1.14264e-18
6.92928e-22
0.000140191
-2.43328e-18
-9.03075e-21
-1.16119e-18
4.78024e-22
0.000142732
-2.40266e-18
-9.4804e-21
-1.16964e-18
3.92447e-22
0.000145315
-2.39043e-18
-9.97437e-21
-1.13853e-18
4.28358e-22
0.000147941
-2.39516e-18
-1.03437e-20
-1.14585e-18
3.4192e-22
0.00015061
-2.37231e-18
-1.05009e-20
-1.1603e-18
1.58862e-22
0.000153324
-2.37182e-18
-1.06548e-20
-1.17833e-18
-1.1431e-23
0.000156083
-2.35906e-18
-1.07571e-20
-1.17113e-18
-2.18284e-22
0.000158887
-2.34532e-18
-1.08282e-20
-1.17606e-18
-3.78793e-22
0.000161738
-2.31777e-18
-1.09045e-20
-1.20014e-18
-7.51413e-22
0.000164636
-2.30121e-18
-1.09975e-20
-1.18091e-18
-1.1196e-21
0.000167582
-2.3084e-18
-1.11208e-20
-1.18765e-18
-1.55767e-21
0.000170577
-2.29367e-18
-1.12467e-20
-1.19157e-18
-1.75194e-21
0.000173622
-2.25211e-18
-1.13172e-20
-1.20839e-18
-2.23858e-21
0.000176716
-2.2509e-18
-1.13388e-20
-1.21543e-18
-2.70668e-21
0.000179862
-2.2164e-18
-1.09923e-20
-1.20713e-18
-2.83843e-21
0.00018306
-2.21584e-18
-1.07779e-20
-1.21271e-18
-2.81756e-21
0.000186311
-2.18742e-18
-1.05887e-20
-1.20778e-18
-2.97724e-21
0.000189615
-2.16297e-18
-1.05222e-20
-1.21335e-18
-3.22161e-21
0.000192973
-2.16688e-18
-1.05331e-20
-1.23401e-18
-3.25178e-21
0.000196387
-2.13898e-18
-1.05568e-20
-1.23463e-18
-2.94136e-21
0.000199857
-2.1548e-18
-1.04336e-20
-1.21594e-18
-2.65689e-21
0.000203384
-2.13117e-18
-1.0265e-20
-1.20641e-18
-2.56605e-21
0.000206969
-2.11423e-18
-1.01025e-20
-1.20534e-18
-2.58901e-21
0.000210613
-2.10692e-18
-9.82146e-21
-1.20038e-18
-2.65887e-21
0.000214317
-2.08141e-18
-9.52645e-21
-1.22958e-18
-2.59997e-21
0.000218082
-2.06968e-18
-9.29401e-21
-1.21097e-18
-2.38215e-21
0.000221908
-2.04855e-18
-9.19246e-21
-1.19568e-18
-2.53634e-21
0.000225797
-2.0473e-18
-8.77691e-21
-1.20344e-18
-2.40355e-21
0.00022975
-2.01494e-18
-8.24001e-21
-1.21364e-18
-2.1229e-21
0.000233767
-1.99054e-18
-8.01253e-21
-1.1899e-18
-1.89634e-21
0.00023785
-1.97977e-18
-7.75038e-21
-1.17621e-18
-1.8977e-21
0.000242
-1.97875e-18
-7.66944e-21
-1.0922e-18
-2.15308e-21
0.000246217
-1.91133e-18
-7.46583e-21
-1.12699e-18
-2.61854e-21
0.000250503
-1.83445e-18
-7.32634e-21
-1.13874e-18
-2.42198e-21
0.000254859
-1.76117e-18
-6.59246e-21
-1.20254e-18
-2.49231e-21
0.000259285
-1.65209e-18
-5.46316e-21
-1.13754e-18
-3.04326e-21
0.000263784
-1.58391e-18
-4.42966e-21
-1.10821e-18
-4.04927e-21
0.000268355
-1.55283e-18
-4.03814e-21
-1.05422e-18
-4.41224e-21
0.000273001
-1.50623e-18
-3.82692e-21
-1.09837e-18
-4.46928e-21
0.000277722
-1.445e-18
-4.12152e-21
-1.00295e-18
-3.43295e-21
0.000282519
-1.44294e-18
-3.95597e-21
-1.011e-18
-4.3024e-21
0.000287394
-1.39451e-18
-3.19006e-21
-1.01507e-18
-5.40635e-21
0.000292348
-1.32191e-18
-2.60752e-21
-1.02459e-18
-6.97975e-21
0.000297381
-1.31406e-18
-3.01524e-21
-1.03229e-18
-7.72716e-21
0.000302495
-1.2905e-18
-3.3998e-21
-9.79575e-19
-8.11556e-21
0.000307692
-1.26722e-18
-3.99672e-21
-9.89296e-19
-8.95717e-21
0.000312972
-1.22009e-18
-3.11404e-21
-9.80268e-19
-9.30725e-21
0.000318337
-1.17785e-18
-2.40353e-21
-9.34232e-19
-1.00513e-20
0.000323788
-1.07158e-18
-2.56298e-21
-1.02854e-18
-1.10435e-20
0.000329325
-1.03249e-18
-5.10314e-21
-1.02772e-18
-9.46205e-21
0.000334952
-1.0675e-18
-7.82426e-21
-1.00479e-18
-7.95634e-21
0.000340667
-1.0438e-18
-8.61825e-21
-9.25124e-19
-7.79266e-21
0.000346474
-8.92768e-19
-9.12826e-21
-9.94651e-19
-8.59522e-21
0.000352373
-9.12849e-19
-1.09619e-20
-8.5028e-19
-8.19416e-21
0.000358365
-9.03152e-19
-1.17267e-20
-8.27856e-19
-1.01263e-20
0.000364452
-8.51203e-19
-1.09999e-20
-8.37568e-19
-1.05647e-20
0.000370636
-7.95312e-19
-1.0344e-20
-7.5801e-19
-9.42776e-21
0.000376916
-7.71286e-19
-9.65353e-21
-7.29717e-19
-8.97714e-21
0.000383296
-7.49494e-19
-7.89311e-21
-7.2668e-19
-8.82852e-21
0.000389775
-7.10669e-19
-7.10193e-21
-7.15522e-19
-7.13626e-21
0.000396355
-6.59768e-19
-6.44178e-21
-7.15233e-19
-6.57656e-21
0.000403039
-6.20615e-19
-6.13471e-21
-7.17217e-19
-5.67015e-21
0.000409826
-5.55179e-19
-6.9745e-21
-6.04275e-19
-4.19298e-21
0.000416719
-5.77905e-19
-8.83466e-21
-5.74737e-19
-3.9615e-21
0.000423718
-5.85013e-19
-1.02892e-20
-6.27481e-19
-4.72026e-21
0.000430825
-6.61462e-19
-1.20804e-20
-6.59243e-19
-5.61749e-21
0.000438042
-6.72156e-19
-1.18634e-20
-6.71754e-19
-5.26951e-21
0.000445369
-6.56598e-19
-1.07328e-20
-6.8515e-19
-2.81361e-21
0.000452808
-6.33025e-19
-9.64833e-21
-6.17929e-19
1.26712e-21
0.000460361
-5.6782e-19
-1.0703e-20
-7.10178e-19
1.88727e-21
0.000468028
-6.51027e-19
-1.39466e-20
-6.46739e-19
2.60015e-21
0.00047581
-7.40786e-19
-1.71102e-20
-5.50356e-19
1.9172e-21
0.00048371
-7.58545e-19
-1.67064e-20
-5.32588e-19
-1.85696e-22
0.000491728
-5.89983e-19
-1.45966e-20
-6.94255e-19
-5.49843e-21
0.000499865
-6.16086e-19
-1.98483e-20
-6.63242e-19
-7.40991e-21
0.000508123
-7.51483e-19
-2.39684e-20
-7.09606e-19
-1.16404e-20
0.000516503
-7.75791e-19
-2.37573e-20
-7.64224e-19
-1.16247e-20
0.000525005
-7.23599e-19
-2.25974e-20
-7.59469e-19
-1.15611e-20
0.000533631
-8.51078e-19
-2.49725e-20
-7.0715e-19
-1.42846e-20
0.000542383
-8.8365e-19
-2.3655e-20
-7.55077e-19
-2.02929e-20
0.000551259
-8.05989e-19
-2.47298e-20
-7.42095e-19
-2.29743e-20
0.000560263
-8.00645e-19
-2.79579e-20
-7.74412e-19
-2.62092e-20
0.000569394
-7.9108e-19
-3.11479e-20
-8.87924e-19
-3.07522e-20
0.000578654
-7.93582e-19
-3.44422e-20
-9.13661e-19
-3.21978e-20
0.000588042
-7.32262e-19
-3.6879e-20
-7.86689e-19
-3.63062e-20
0.000597559
-8.47299e-19
-4.23029e-20
-8.689e-19
-3.94952e-20
0.000607206
-8.31797e-19
-3.47786e-20
-7.78432e-19
-3.37893e-20
0.000616984
-7.75708e-19
-3.0084e-20
-8.52228e-19
-3.84428e-20
0.000626891
-7.48911e-19
-3.29508e-20
-8.63492e-19
-3.94923e-20
0.000636929
-9.49266e-19
-3.53685e-20
-8.65612e-19
-3.75838e-20
0.000647097
-9.09639e-19
-2.56886e-20
-9.12486e-19
-3.56956e-20
0.000657395
-8.91406e-19
-2.2729e-20
-8.6041e-19
-2.75608e-20
0.000667822
-9.41695e-19
-2.74149e-20
-8.37627e-19
-2.29644e-20
0.000678378
-8.54614e-19
-2.13521e-20
-8.80795e-19
-2.25437e-20
0.000689061
-9.01552e-19
-2.15694e-20
-9.23532e-19
-2.48146e-20
0.00069987
-9.57632e-19
-1.75032e-20
-8.39065e-19
-1.82897e-20
0.000710804
-9.21438e-19
-1.18627e-20
-8.24111e-19
-1.3631e-20
0.000721862
-8.81017e-19
-6.40877e-21
-7.84632e-19
-1.53643e-20
0.00073304
-9.10304e-19
-9.39093e-21
-7.51479e-19
-2.10592e-20
0.000744336
-9.40996e-19
-1.00881e-20
-9.77192e-19
-3.43887e-20
0.000755748
-8.2212e-19
-2.90069e-21
-1.00811e-18
-2.5343e-20
0.000767273
-8.25961e-19
-1.24028e-20
-9.3165e-19
-1.78056e-20
0.000778907
-8.94528e-19
-1.88142e-20
-9.72155e-19
-2.41672e-20
0.000790645
-9.44642e-19
-1.2209e-20
-1.02659e-18
-3.77862e-20
0.000802485
-8.256e-19
-1.72968e-20
-9.46388e-19
-3.02596e-20
0.000814421
-9.52845e-19
-1.82221e-20
-9.5458e-19
-3.24891e-20
0.000826448
-8.53663e-19
-1.00851e-20
-8.77039e-19
-3.97975e-20
0.000838561
9.14587e-23
-8.87993e-19
-4.63438e-20
-9.06828e-19
6.76702e-09
1.19096e-22
3.43509e-23
2.06941e-08
7.35721e-22
1.84452e-22
3.52267e-08
1.34991e-21
3.50876e-22
5.03853e-08
1.96992e-21
5.21807e-22
6.6191e-08
2.62948e-21
6.77246e-22
8.26656e-08
3.29084e-21
8.50945e-22
9.98315e-08
3.93586e-21
1.02745e-21
1.17712e-07
4.62184e-21
1.21637e-21
1.36331e-07
5.27674e-21
1.45326e-21
1.55713e-07
5.97318e-21
1.69939e-21
1.75883e-07
6.63761e-21
1.9606e-21
1.96867e-07
7.34575e-21
2.21308e-21
2.18693e-07
8.03415e-21
2.47388e-21
2.41388e-07
8.82351e-21
2.67724e-21
2.6498e-07
9.62759e-21
2.91434e-21
2.895e-07
1.0406e-20
3.22124e-21
3.14978e-07
1.12664e-20
3.44891e-21
3.41444e-07
1.20945e-20
3.67333e-21
3.68932e-07
1.29915e-20
3.98228e-21
3.97474e-07
1.38465e-20
4.24425e-21
4.27104e-07
1.47576e-20
4.52181e-21
4.57859e-07
1.56311e-20
4.71979e-21
4.89774e-07
1.66604e-20
4.97014e-21
5.22886e-07
1.75023e-20
5.39172e-21
5.57235e-07
1.84512e-20
5.72718e-21
5.92861e-07
1.93012e-20
6.13864e-21
6.29803e-07
2.01462e-20
6.44951e-21
6.68105e-07
2.10739e-20
6.76017e-21
7.0781e-07
2.20809e-20
7.10482e-21
7.48962e-07
2.30668e-20
7.44005e-21
7.91608e-07
2.42798e-20
7.64017e-21
8.35796e-07
2.52552e-20
8.07595e-21
8.81573e-07
2.61934e-20
8.47798e-21
9.28991e-07
2.72457e-20
9.09196e-21
9.78102e-07
2.8188e-20
9.40213e-21
1.02896e-06
2.9158e-20
9.89817e-21
1.08162e-06
3.02823e-20
1.0559e-20
1.13613e-06
3.13114e-20
1.10983e-20
1.19256e-06
3.24486e-20
1.15615e-20
1.25097e-06
3.36318e-20
1.20987e-20
1.31141e-06
3.50351e-20
1.24689e-20
1.37396e-06
3.61978e-20
1.28253e-20
1.43867e-06
3.7138e-20
1.33611e-20
1.50562e-06
3.83562e-20
1.3871e-20
1.57486e-06
3.96776e-20
1.47225e-20
1.64649e-06
4.08415e-20
1.54422e-20
1.72056e-06
4.18859e-20
1.62028e-20
1.79715e-06
4.31043e-20
1.71556e-20
1.87634e-06
4.45154e-20
1.82494e-20
1.95822e-06
4.46331e-20
1.9639e-20
2.04285e-06
4.60936e-20
2.02576e-20
2.13033e-06
4.7363e-20
2.04927e-20
2.22074e-06
4.901e-20
2.13891e-20
2.31417e-06
5.00097e-20
2.276e-20
2.41071e-06
5.08654e-20
2.40465e-20
2.51045e-06
5.22933e-20
2.51219e-20
2.6135e-06
5.31231e-20
2.58216e-20
2.71993e-06
5.43648e-20
2.63371e-20
2.82987e-06
5.56918e-20
2.72104e-20
2.9434e-06
5.73071e-20
2.77909e-20
3.06064e-06
5.87638e-20
2.86784e-20
3.18169e-06
5.9894e-20
2.97205e-20
3.30665e-06
6.0785e-20
3.11491e-20
3.43565e-06
6.21848e-20
3.20642e-20
3.56879e-06
6.28697e-20
3.33131e-20
3.7062e-06
6.3757e-20
3.47791e-20
3.84798e-06
6.53645e-20
3.60342e-20
3.99426e-06
6.73211e-20
3.80013e-20
4.14516e-06
6.83388e-20
3.98116e-20
4.3008e-06
6.9675e-20
4.10855e-20
4.46131e-06
7.09513e-20
4.25345e-20
4.62682e-06
7.23524e-20
4.36604e-20
4.79744e-06
7.40785e-20
4.51756e-20
4.97331e-06
7.61517e-20
4.67216e-20
5.15456e-06
7.71891e-20
4.81146e-20
5.34132e-06
7.85971e-20
5.02161e-20
5.53371e-06
8.02772e-20
5.14375e-20
5.73186e-06
8.15692e-20
5.36034e-20
5.93591e-06
8.35438e-20
5.49746e-20
6.14599e-06
8.33528e-20
5.66537e-20
6.36221e-06
8.54744e-20
5.61036e-20
6.5847e-06
8.53608e-20
5.82437e-20
6.8136e-06
8.69049e-20
6.0255e-20
7.04902e-06
8.8391e-20
6.18396e-20
7.29107e-06
8.96637e-20
6.37764e-20
7.53989e-06
9.17146e-20
6.57858e-20
7.79558e-06
9.2384e-20
6.90907e-20
8.05825e-06
9.2636e-20
7.42951e-20
8.32802e-06
9.42306e-20
7.74639e-20
8.60498e-06
9.54398e-20
7.98974e-20
8.88925e-06
9.73361e-20
8.28435e-20
9.18091e-06
9.99818e-20
8.58492e-20
9.48005e-06
1.00801e-19
8.90806e-20
9.78678e-06
1.0353e-19
9.22684e-20
1.01012e-05
1.06049e-19
9.42608e-20
1.04233e-05
1.09851e-19
9.51484e-20
1.07533e-05
1.122e-19
9.85283e-20
1.10912e-05
1.12094e-19
1.02467e-19
1.1437e-05
1.16044e-19
1.05905e-19
1.17909e-05
1.17223e-19
1.09814e-19
1.21529e-05
1.2057e-19
1.13874e-19
1.25231e-05
1.22489e-19
1.13667e-19
1.29015e-05
1.24502e-19
1.17912e-19
1.32882e-05
1.29536e-19
1.22546e-19
1.36833e-05
1.31891e-19
1.27563e-19
1.40868e-05
1.36786e-19
1.31183e-19
1.44989e-05
1.38937e-19
1.32826e-19
1.49194e-05
1.40313e-19
1.37711e-19
1.53486e-05
1.42868e-19
1.40306e-19
1.57865e-05
1.43687e-19
1.43448e-19
1.62331e-05
1.45516e-19
1.45256e-19
1.66885e-05
1.49285e-19
1.45923e-19
1.71528e-05
1.4757e-19
1.48625e-19
1.7626e-05
1.50013e-19
1.53017e-19
1.81083e-05
1.50441e-19
1.55483e-19
1.85997e-05
1.57689e-19
1.57953e-19
1.91003e-05
1.57968e-19
1.65439e-19
1.96102e-05
1.59391e-19
1.67892e-19
2.01295e-05
1.59903e-19
1.7026e-19
2.06583e-05
1.60904e-19
1.72726e-19
2.11966e-05
1.6011e-19
1.75283e-19
2.17446e-05
1.6097e-19
1.80987e-19
2.23024e-05
1.60401e-19
1.88758e-19
2.287e-05
1.55899e-19
1.98562e-19
2.34477e-05
1.56722e-19
1.99802e-19
2.40356e-05
1.5489e-19
2.08617e-19
2.46337e-05
1.48692e-19
2.19766e-19
2.52422e-05
1.49833e-19
2.29378e-19
2.58613e-05
1.44452e-19
2.36814e-19
2.6491e-05
1.43065e-19
2.3977e-19
2.71315e-05
1.44262e-19
2.42216e-19
2.77831e-05
1.47795e-19
2.4601e-19
2.84458e-05
1.41783e-19
2.56151e-19
2.91197e-05
1.40604e-19
2.58665e-19
2.98051e-05
1.40561e-19
2.60297e-19
3.05022e-05
1.42629e-19
2.636e-19
3.12111e-05
1.52576e-19
2.68364e-19
3.19319e-05
1.53517e-19
2.69541e-19
3.26649e-05
1.60398e-19
2.72393e-19
3.34103e-05
1.63096e-19
2.71586e-19
3.41682e-05
1.63121e-19
2.69997e-19
3.49389e-05
1.67091e-19
2.69869e-19
3.57225e-05
1.58096e-19
2.78146e-19
3.65193e-05
1.5981e-19
2.74007e-19
3.73294e-05
1.59464e-19
2.76868e-19
3.81531e-05
1.62205e-19
2.79515e-19
3.89907e-05
1.62439e-19
2.79826e-19
3.98422e-05
1.59612e-19
2.83477e-19
4.0708e-05
1.55971e-19
2.9122e-19
4.15883e-05
1.54799e-19
2.94806e-19
4.24834e-05
1.55523e-19
3.12861e-19
4.33933e-05
1.58608e-19
3.13805e-19
4.43186e-05
1.58325e-19
3.09159e-19
4.52593e-05
1.57751e-19
3.09159e-19
4.62157e-05
1.52696e-19
3.15554e-19
4.71881e-05
1.54316e-19
3.17046e-19
4.81767e-05
1.60895e-19
3.27735e-19
4.91819e-05
1.64441e-19
3.33571e-19
5.02039e-05
1.57509e-19
3.40019e-19
5.1243e-05
1.5816e-19
3.37199e-19
5.22994e-05
1.56038e-19
3.3841e-19
5.33736e-05
1.49606e-19
3.42974e-19
5.44656e-05
1.71929e-19
3.39122e-19
5.55759e-05
1.69406e-19
3.40766e-19
5.67048e-05
1.78899e-19
3.40628e-19
5.78526e-05
1.9416e-19
3.43246e-19
5.90195e-05
1.92621e-19
3.51435e-19
6.0206e-05
1.8996e-19
3.53593e-19
6.14123e-05
1.84463e-19
3.52509e-19
6.26387e-05
1.86184e-19
3.43125e-19
6.38857e-05
1.76834e-19
3.23507e-19
6.51535e-05
1.61716e-19
3.30945e-19
6.64426e-05
1.60557e-19
3.27025e-19
6.77532e-05
1.61203e-19
3.33366e-19
6.90857e-05
1.58305e-19
3.27044e-19
7.04405e-05
1.53307e-19
3.27401e-19
7.18179e-05
1.6292e-19
3.27017e-19
7.32184e-05
1.85875e-19
3.25308e-19
7.46423e-05
1.8027e-19
3.37578e-19
7.609e-05
1.78347e-19
3.38276e-19
7.75619e-05
1.85076e-19
3.39689e-19
7.90585e-05
1.97921e-19
3.28077e-19
8.058e-05
2.0312e-19
3.38908e-19
8.2127e-05
1.92979e-19
3.39342e-19
8.36999e-05
1.84538e-19
3.37059e-19
8.5299e-05
1.79009e-19
3.18165e-19
8.69249e-05
1.61558e-19
3.10739e-19
8.8578e-05
1.56777e-19
3.20475e-19
9.02587e-05
1.40934e-19
3.08425e-19
9.19675e-05
1.38323e-19
3.16904e-19
9.37048e-05
1.41512e-19
3.2241e-19
9.54711e-05
1.29046e-19
3.17831e-19
9.7267e-05
1.38268e-19
3.08242e-19
9.90928e-05
1.4211e-19
3.05359e-19
0.000100949
1.54309e-19
2.85845e-19
0.000102836
1.56199e-19
2.85706e-19
0.000104755
1.76348e-19
3.01539e-19
0.000106706
1.78272e-19
3.18705e-19
0.00010869
1.71711e-19
3.07482e-19
0.000110706
1.76952e-19
3.18908e-19
0.000112756
1.99607e-19
3.32024e-19
0.00011484
2.26678e-19
3.23455e-19
0.000116959
2.30589e-19
3.24072e-19
0.000119114
2.30942e-19
3.19945e-19
0.000121304
2.32748e-19
3.17746e-19
0.000123531
2.16803e-19
3.14374e-19
0.000125795
2.09391e-19
3.01155e-19
0.000128096
2.01085e-19
2.92404e-19
0.000130436
1.93372e-19
2.96866e-19
0.000132815
2.01698e-19
3.05145e-19
0.000135233
1.93377e-19
2.76316e-19
0.000137691
1.80904e-19
3.20442e-19
0.000140191
1.60478e-19
3.24398e-19
0.000142732
1.47962e-19
3.29846e-19
0.000145315
1.57065e-19
3.21561e-19
0.000147941
1.64459e-19
2.95438e-19
0.00015061
1.57017e-19
3.01091e-19
0.000153324
1.40336e-19
2.81401e-19
0.000156083
1.32511e-19
2.91039e-19
0.000158887
1.28491e-19
2.58354e-19
0.000161738
1.42643e-19
2.66529e-19
0.000164636
1.50178e-19
2.64716e-19
0.000167582
1.33587e-19
3.01534e-19
0.000170577
1.39304e-19
2.74942e-19
0.000173622
1.61614e-19
2.68058e-19
0.000176716
1.9296e-19
2.92803e-19
0.000179862
1.74907e-19
3.25718e-19
0.00018306
1.51969e-19
3.02028e-19
0.000186311
1.43759e-19
2.84366e-19
0.000189615
1.45205e-19
2.92282e-19
0.000192973
1.32655e-19
3.07684e-19
0.000196387
1.67076e-19
3.06272e-19
0.000199857
1.42241e-19
3.11384e-19
0.000203384
1.52109e-19
2.94645e-19
0.000206969
1.711e-19
2.55634e-19
0.000210613
1.70036e-19
2.63476e-19
0.000214317
1.74712e-19
2.67704e-19
0.000218082
1.40878e-19
2.45398e-19
0.000221908
1.56429e-19
2.57458e-19
0.000225797
1.34695e-19
2.23518e-19
0.00022975
1.00757e-19
2.04686e-19
0.000233767
1.02012e-19
1.88346e-19
0.00023785
8.65632e-20
1.64293e-19
0.000242
9.4078e-20
2.1753e-19
0.000246217
1.17107e-19
2.26304e-19
0.000250503
1.88495e-19
2.33713e-19
0.000254859
2.22276e-19
1.75483e-19
0.000259285
2.51492e-19
1.70805e-19
0.000263784
2.02933e-19
2.20801e-19
0.000268355
1.82269e-19
2.52786e-19
0.000273001
1.63035e-19
2.54283e-19
0.000277722
2.33104e-19
1.75296e-19
0.000282519
2.55114e-19
1.25016e-19
0.000287394
2.54438e-19
6.77795e-20
0.000292348
2.07584e-19
1.54079e-19
0.000297381
1.86164e-19
2.10528e-19
0.000302495
1.64135e-19
2.14305e-19
0.000307692
2.43231e-19
1.79133e-19
0.000312972
2.32238e-19
1.24789e-19
0.000318337
1.85642e-19
1.32487e-19