/*--------------------------------*- C++ -*----------------------------------*\
| =========                 |                                                 |
| \\      /  F ield         | OpenFOAM: The Open Source CFD Toolbox           |
|  \\    /   O peration     | Version:  2012                                  |
|   \\  /    A nd           | Website:  www.openfoam.com                      |
|    \\/     M anipulation  |                                                 |
\*---------------------------------------------------------------------------*/
FoamFile
{
    version     2.0;
    format      ascii;
    class       volTensorField;
    location    "11600";
    object      grad(U);
}
// * * * * * * * * * * * * * * * * * * * * * * * * * * * * * * * * * * * * * //

dimensions      [0 0 -1 0 0 0 0];


internalField   nonuniform List<tensor> 
2560
(
(-7.3145e-17 -1.25071e-14 1.08751e-13 381.29 -2.77556e-17 3.0877 0.552871 -5.42101e-20 0.00500167)
(0 0 1.14289e-18 380.847 0.0172387 0.000251447 0.552872 -0.000382913 -0.00498682)
(0 1.0561e-19 1.07228e-14 379.734 0.00445318 -7.84616e-21 1.66155 5.87478e-05 0)
(0 -7.04068e-20 2.25302e-18 379.301 0.136972 -0.000166274 1.66155 5.78816e-05 -0.00721528)
(-7.14921e-17 -9.97592e-20 2.22073e-18 378.364 -0.0769131 -1.47415 2.2672 3.0105e-05 0.00530546)
(0 2.38555e-19 -3.33109e-18 377.954 0.0567185 -5.18192e-05 2.26482 2.88103e-05 -0.00528969)
(2.25312e-16 -2.7094e-19 1.64167e-18 376.989 -0.0425292 -1.26012 2.29181 -8.75504e-07 0.00284036)
(0 2.7094e-19 -1.64167e-18 376.61 0.032584 -1.92294e-05 2.28961 -2.51505e-06 -0.00283191)
(1.10465e-15 -4.06775e-19 1.34845e-18 375.618 -0.0173853 -0.631376 2.31667 6.35664e-07 0.00150408)
(0 4.06643e-19 -1.07876e-18 375.277 0.01797 -6.72558e-06 2.31468 -3.83106e-07 -0.00149961)
(1.62704e-15 -2.03295e-19 3.98738e-19 374.126 -0.0105788 -0.284466 2.34024 1.09334e-06 0.000909206)
(3.21894e-15 2.7105e-19 -3.98738e-19 373.824 0.0107914 -1.24631e-06 2.33846 -6.95882e-07 -0.000906503)
(-6.97617e-16 -1.35526e-19 2.62015e-19 372.304 -0.00745592 -0.141818 2.36135 1.40613e-06 0.000621113)
(2.79133e-15 2.71051e-19 -3.93023e-19 372.04 0.00734367 -3.97226e-07 2.3598 -3.22633e-07 -0.000619267)
(-8.58846e-16 2.71123e-19 -2.5826e-19 370.062 -0.00553203 -0.0800354 2.37987 8.09892e-07 0.000462424)
(3.43613e-15 -2.03279e-19 1.2913e-19 369.837 0.00559283 -9.70881e-08 2.37853 -9.55399e-07 -0.000461051)
(1.02137e-15 -2.71059e-19 1.90919e-19 367.606 -0.00440998 -0.0498254 2.39836 1.67063e-06 0.000365212)
(0 3.38831e-19 -1.90919e-19 367.417 0.00429086 -3.92007e-08 2.39725 -1.36396e-07 -0.000364128)
(-2.05546e-15 2.71002e-19 -1.25455e-19 365.361 -0.00362745 -0.0333456 2.41976 4.54728e-07 0.000257832)
(0 -2.03252e-19 6.27275e-20 365.207 0.00366991 -3.89501e-08 2.41885 -1.1628e-06 -0.000299862)
(-1.34956e-15 -5.42086e-19 2.06119e-19 363.39 -0.00307269 -0.0235502 2.44206 1.8688e-06 0.00018134)
(0 6.09832e-19 -2.164e-19 363.268 0.0029934 9.57184e-09 2.44134 3.24696e-07 -0.000254662)
(1.51574e-15 -8.81045e-19 2.25606e-19 361.545 -0.00285023 -0.0173285 2.46542 1.99483e-07 0.000133383)
(0 8.13199e-19 -1.82827e-19 361.453 0.0027139 5.89107e-08 2.46489 -1.28627e-06 -0.000221416)
(1.96834e-15 -2.7105e-19 6.00689e-20 359.929 -0.00229234 -0.0131956 2.49119 1.45776e-06 0.00010159)
(-1.96834e-15 3.38811e-19 -6.00689e-20 359.864 0.0412791 0.000145295 2.49082 2.65266e-07 -0.000196092)
(-1.85257e-15 3.55247e-19 -1.02165e-19 358.419 -0.00209159 -0.010255 2.51638 0.000135404 7.99647e-05)
(7.41042e-15 1.20371e-35 2.9604e-20 358.378 -2.30934e-21 1.8105e-06 2.51617 0 -0.000175655)
(0 -1.1022e-17 -1.45898e-19 356.564 -0.00117983 -0.00818858 2.53768 -4.18069e-06 6.31846e-05)
(0 -5.25234e-19 1.45898e-19 356.545 0.116724 0.000188957 2.53762 -0.000269615 -0.000160409)
(-2.19815e-15 -2.30091e-19 -1.30032e-20 354.016 -0.0028 -0.0065858 2.55319 0.000552645 5.28048e-05)
(8.79258e-15 0 0 354.016 -2.12593e-17 6.67519e-06 2.55325 -7.43765e-35 -0.000146061)
(0 -3.72049e-17 -1.41746e-19 350.667 3.25557e-17 -0.00534189 2.5628 0 4.182e-05)
(-9.49585e-15 4.94729e-16 1.41746e-19 350.683 0.0866109 -0.000210373 2.56297 -0.000315895 -0.000136817)
(0 1.5648e-18 -1.11772e-19 346.92 -0.00201163 -0.00447995 2.57212 0.000899664 3.6072e-05)
(-1.0202e-14 -3.73814e-19 1.11772e-19 346.949 -3.36896e-17 2.32558e-06 2.57239 0 -0.000127403)
(1.08301e-14 0 5.50848e-20 343.759 -0.000568453 -0.00375945 2.59006 -0.000173319 3.01945e-05)
(-7.22008e-15 1.13554e-29 -6.8856e-20 343.799 3.67999e-17 -4.67615e-06 2.5904 2.1684e-19 -0.000120298)
(2.90211e-15 1.08591e-18 -5.57316e-20 341.967 -0.00225969 -0.00318389 2.61996 0.00103895 2.62306e-05)
(-1.16082e-14 -5.75701e-19 9.50168e-20 342.015 -3.59813e-20 8.21149e-07 2.62037 0 -0.000113351)
(0 -4.28137e-19 -8.02757e-20 341.408 -0.000338989 -0.00271596 2.65724 -0.000654845 2.22468e-05)
(0 3.14364e-19 8.02757e-20 341.463 3.81443e-17 -6.0306e-06 2.65769 0 -0.000108219)
(-3.25784e-15 -4.22001e-19 2.79741e-20 341.329 -0.00215547 -0.00233314 2.69547 0.00117721 1.97138e-05)
(0 -1.54074e-33 -5.27501e-20 341.39 -4.5062e-17 -2.34198e-07 2.69596 2.34257e-34 -0.000102911)
(3.37513e-15 4.34725e-19 1.18528e-19 341.133 0.000145381 -0.00207798 2.73193 -0.00113237 1.68518e-05)
(0 9.62965e-35 -1.29985e-19 341.197 -2.16469e-35 0.000271375 2.73245 2.1684e-19 -9.91116e-05)
(0 1.63996e-18 -5.12488e-20 340.69 -0.00249213 -0.00174218 2.76722 0.00158229 1.62025e-05)
(-1.44978e-14 -6.5796e-19 6.4061e-20 340.756 -5.483e-20 5.34423e-06 2.76776 2.1684e-19 -9.35786e-05)
(3.81169e-15 -8.08229e-19 -6.46002e-20 340.099 0.000270481 -0.0015174 2.80222 -0.00193999 1.1886e-05)
(0 0 7.57714e-20 340.166 3.65433e-32 6.77731e-05 2.80277 -2.1684e-19 -9.21109e-05)
(-8.00278e-15 3.98322e-18 -9.53291e-20 339.399 -0.00290647 -0.00130488 2.83656 0.00229312 1.29695e-05)
(0 0 7.46854e-20 339.466 -7.65567e-17 1.11246e-05 2.83711 -1.76506e-34 -8.70825e-05)
(1.90137e-14 1.57045e-18 1.5528e-19 338.501 0.000717237 -0.00106612 2.86906 -0.00270938 8.67779e-06)
(3.35492e-14 0 -1.22692e-19 338.566 9.71445e-17 -0.00023967 2.86961 -3.73816e-30 -8.66955e-05)
(0 -3.48288e-18 6.04666e-20 337.282 -0.00308335 -0.000980648 2.89866 0.00280266 9.29605e-06)
(1.75546e-14 0 -6.04666e-20 337.346 -9.09186e-17 7.30811e-06 2.8992 0 -8.35954e-05)
(4.58613e-15 -1.14432e-18 -1.33924e-20 335.708 0.00131483 -0.000854273 2.92559 -0.00297418 7.45972e-06)
(0 4.13022e-19 0 335.768 7.04215e-18 3.1067e-06 2.9261 0 -8.24998e-05)
(-9.57072e-15 0 -4.36917e-20 333.979 -0.00344669 -0.000745346 2.95293 0.0030737 7.36e-06)
(-3.82823e-14 -4.26288e-18 2.34983e-20 334.036 1.06572e-19 1.82796e-06 2.95341 4.33681e-19 -7.98777e-05)
(-4.98547e-15 -3.70584e-19 -4.49732e-20 332.66 0.00189796 -0.000651794 2.98757 -0.00325059 5.7471e-06)
(-1.99416e-14 2.25691e-18 1.15807e-20 332.712 9.70317e-17 -1.17929e-05 2.98801 0 -7.92369e-05)
(-1.19693e-14 4.38327e-18 -1.02733e-19 332.611 -0.00395061 -0.000572676 3.03854 0.00335202 5.89292e-06)
(-8.77339e-15 -1.39473e-18 1.02733e-19 332.657 1.16227e-19 -2.0521e-06 3.03893 -4.33681e-19 -7.70187e-05)
(0 2.16022e-18 6.7507e-20 334.682 0.00262903 -0.000501798 3.11341 -0.00352843 4.47168e-06)
(2.15445e-14 0 -6.7507e-20 334.721 -1.22485e-19 -1.47597e-05 3.11375 -4.33681e-19 -7.66745e-05)
(-5.58814e-15 0 -9.74825e-21 339.335 -0.00460613 -0.000440668 3.21495 0.00363097 4.75335e-06)
(0 -1.92593e-34 -1.10899e-20 339.368 -1.08032e-16 -1.39387e-06 3.21523 0 -7.47771e-05)
(-5.79384e-15 -2.79833e-18 -7.54957e-20 346.452 0.00338972 -0.000459004 3.34023 -0.00380479 3.45448e-06)
(0 0 6.55858e-20 346.479 -1.32074e-19 0.0003175 3.34047 -4.33681e-19 -7.46462e-05)
(-6.00594e-15 3.44777e-18 -5.22645e-20 355.399 -0.00552824 -0.000325629 3.4821 0.00422344 5.24201e-06)
(-3.53213e-14 -2.34336e-18 3.23229e-20 355.42 -4.3938e-19 6.77748e-06 3.48228 8.67362e-19 -7.10858e-05)
(6.22681e-15 2.03901e-18 2.68965e-17 365.267 0.00420939 -0.000200723 3.63163 -0.0047186 9.77142e-07)
(0 -3.46667e-33 -3.18596e-20 365.284 1.11022e-16 0.00104114 3.63177 -2.8297e-34 -7.30968e-05)
(6.45811e-15 -4.01958e-18 5.99068e-20 375.151 -0.00649306 -0.000210067 3.78078 0.00614087 9.10457e-06)
(0 -7.70372e-34 -5.23383e-20 375.163 0 2.16025e-05 3.78089 0 -6.34321e-05)
(-1.75193e-14 -2.64131e-18 -2.67276e-51 384.399 0.00510324 -2.05998e-18 3.92473 -0.0076753 2.29691e-51)
(0 1.06544e-18 3.09529e-20 384.408 2.22311e-16 0.000431883 3.9248 -8.67362e-19 -7.2089e-05)
(0 6.50864e-18 -3.05093e-20 392.838 -0.00732724 -9.64606e-05 4.06437 0.00947662 1.00039e-05)
(0 -1.31486e-18 5.08488e-20 392.842 -5.55112e-16 2.74829e-05 4.0644 0 -5.99117e-05)
(-7.21543e-15 -2.56614e-18 2.67283e-18 400.97 0.00591749 1.93124e-18 4.20869 -0.011446 0)
(2.88618e-14 0 -1.0024e-20 400.97 -7.94369e-19 -0.00032092 4.20866 -3.46945e-18 -7.16345e-05)
(0 -1.26468e-17 6.91623e-20 410.085 -0.00797294 9.54015e-07 4.3756 0.01289 7.37827e-06)
(2.99373e-14 6.31089e-30 -6.91623e-20 410.08 -7.7805e-16 2.24894e-05 4.37551 1.51177e-29 -6.1671e-05)
(-2.45352e-15 -7.47933e-18 1.77666e-17 422.119 0.00663267 3.71838e-18 4.58936 -0.0145469 -1.35525e-20)
(-2.08213e-14 8.07627e-18 5.84323e-20 422.107 0 -0.000721362 4.5892 -1.73472e-18 -7.16681e-05)
(8.03724e-15 -9.82951e-18 3.74761e-20 439.168 -0.00850545 7.35005e-05 4.87374 0.0152639 4.26281e-06)
(0 0 -2.87974e-20 439.15 -3.88578e-16 1.18281e-05 4.8735 -1.73472e-18 -6.65987e-05)
(-8.32407e-15 2.42216e-18 4.56854e-18 462.782 0.00725514 -3.21204e-20 5.24368 -0.0162101 0)
(0 0 -3.78462e-20 462.758 4.11759e-16 -0.000308681 5.24338 6.72284e-34 -7.20778e-05)
(8.62461e-15 4.77488e-18 -9.4613e-21 493.375 -0.00911339 0.000127083 5.69981 0.016628 3.18867e-06)
(3.44986e-14 -2.46519e-32 0 493.346 -4.02456e-16 7.23439e-06 5.69947 0 -6.92139e-05)
(9.6388e-15 4.70645e-18 5.86512e-18 530.09 0.00794075 1.81604e-18 6.22923 -0.017276 0)
(2.61479e-14 3.08149e-33 -3.67691e-20 530.059 8.46545e-16 0.000142444 6.22888 -3.46945e-18 -7.27894e-05)
(-9.2982e-15 0 -8.96759e-21 571.139 -0.00983362 0.000176346 6.8105 0.0178412 4.6087e-06)
(0 -7.70372e-34 -1.81211e-20 571.11 0 9.1723e-06 6.81019 0 -6.90274e-05)
(-9.68584e-15 0 -1.50463e-36 614.47 0.00870392 0 7.42236 -0.0186415 0)
(0 3.08149e-32 -8.93067e-21 614.448 4.46945e-16 0.00331504 7.42215 6.34562e-34 -7.38049e-05)
(9.23027e-15 -4.50697e-18 1.76053e-20 658.288 -0.00977405 0.000246158 8.04686 0.0224538 2.46655e-05)
(0 4.62223e-32 -1.76053e-20 658.276 -6.6925e-16 5.65539e-05 8.04679 1.25093e-33 -4.61538e-05)
(-1.05874e-14 8.88474e-18 1.70221e-17 700.817 0.0092408 -1.72948e-18 8.66079 -0.0265861 0)
(0 7.70372e-33 -2.60295e-20 700.821 1.11022e-16 -0.00156408 8.66096 0 -7.53279e-05)
(0 2.62722e-17 -5.13129e-20 739.299 -0.00906136 0.000379595 9.21985 0.0287516 1.68108e-05)
(-4.44427e-14 -1.99489e-17 5.13129e-20 739.326 -5.57106e-16 9.88148e-05 9.22033 -3.46945e-18 -5.95076e-05)
(-1.16922e-14 2.58957e-17 4.54257e-18 768.657 0.00856893 0.000654402 9.63994 -0.0312376 4.01346e-06)
(4.67684e-14 0 -6.74366e-20 768.714 1.43895e-15 -0.00103567 9.64087 -9.72917e-30 -7.72662e-05)
(0 2.97786e-17 -4.98525e-20 780.325 -0.00846036 0.000693896 9.78244 0.0320663 1.3324e-05)
(0 7.70372e-34 4.98525e-20 780.422 -2.77556e-17 0.000226825 9.78394 6.93889e-18 -7.09128e-05)
(-1.30662e-14 -1.67724e-17 -4.26484e-20 761.796 0.00574942 0.000894166 9.45107 -0.0331802 9.22476e-06)
(5.22636e-14 0 3.27587e-20 761.943 7.2948e-16 0.0010117 9.45328 0 -8.02838e-05)
(2.77315e-14 -1.65321e-17 2.87234e-20 697.738 -0.0087403 0.00132811 8.41603 0.0343293 2.49119e-05)
(5.54612e-14 -6.16298e-32 -1.61446e-20 697.943 -7.47019e-16 0.000399418 8.41909 6.93889e-18 -7.00267e-05)
(1.66862e-14 4.07378e-18 4.77396e-20 572.957 0.00145838 0.00163916 6.46124 -0.0358112 1.7638e-05)
(0 -4.93038e-32 -4.77396e-20 573.229 7.21645e-16 0.00128937 6.46526 -2.2614e-33 -8.64212e-05)
(8.59848e-16 -8.03078e-18 4.25271e-20 376.779 -0.00783786 0.00216672 3.45207 0.0373647 3.96538e-05)
(-1.6447e-14 1.10934e-31 -4.70553e-20 377.122 -1.61242e-15 0.000412403 3.4571 4.45798e-33 -7.20746e-05)
(-2.2305e-12 -1.58314e-17 -9.75564e-20 0.389641 -0.00136835 0.00243966 0.00260589 -0.0394123 2.55092e-05)
(0 3.08149e-33 1.08222e-19 5.13589e-30 5.55112e-17 0.000699583 1.42109e-14 3.79548e-33 -9.82753e-05)
(2.73716e-12 0 -4.94908e-21 -87.7675 -0.00281483 0.00270107 0.595519 0.0412167 4.79621e-05)
(0 3.08149e-33 0 -86.874 -5.8371e-17 0.000118683 0.589457 0 -8.34124e-05)
(-1.51253e-14 7.6904e-18 2.59617e-21 -589.52 -0.0017356 0.00272159 5.4754 -0.0436781 2.68253e-05)
(6.05051e-14 0 -4.50609e-20 -588.977 8.80592e-16 -0.000655664 5.46835 6.93889e-18 -0.000116137)
(1.88606e-15 2.27405e-17 -6.82555e-20 -959.197 0.00457086 0.00244054 10.7957 0.0453575 4.14587e-05)
(-1.55242e-14 -6.57e-32 2.96101e-20 -958.602 -9.46837e-16 -0.000335049 10.7878 0 -0.00010635)
(-2.35961e-14 -2.24146e-17 -9.06344e-20 -1293.49 -0.00268188 0.00216618 16.0381 -0.0476878 1.97788e-05)
(-4.7197e-14 2.64733e-17 5.83713e-20 -1292.86 3.30916e-18 -0.00176865 16.0294 0 -0.000135801)
(-1.94487e-14 -3.68222e-17 8.42082e-20 -1558.53 0.00940764 0.001488 20.6554 0.0488982 2.30309e-05)
(7.78049e-14 0 -8.63021e-20 -1557.87 -9.40297e-16 -0.000604982 20.6462 4.64776e-30 -0.000134)
(-2.26705e-14 -4.35534e-17 -2.01091e-19 -1731.07 -0.00669422 0.00109223 24.1842 -0.0505864 8.72867e-06)
(-3.02326e-14 1.40412e-17 1.41775e-19 -1730.41 1.9323e-15 -0.00148101 24.1746 0 -0.000150977)
(-1.27588e-14 -5.0084e-17 1.89591e-18 -1801.88 0.0102267 2.84603e-18 26.3305 0.0513209 0)
(2.90609e-14 0 -1.39743e-19 -1801.25 9.50811e-16 0.00164113 26.3209 -6.93889e-18 -0.00015265)
(3.4654e-15 1.41046e-17 7.36664e-20 -1775.52 -0.0113136 -0.000138138 27.0036 -0.0509408 5.87588e-06)
(0 0 -5.50962e-20 -1774.97 7.06977e-18 0.000419122 26.9947 0 -0.000139458)
(0 -5.56098e-17 2.06578e-20 -1667.27 0.00930665 -3.35523e-20 26.3046 0.0511564 2.71051e-20)
(6.95394e-15 0 -1.35766e-19 -1666.85 8.88178e-16 0.000871938 26.297 4.72382e-30 -0.000148619)
(0 1.37032e-17 2.67641e-20 -1498.31 -0.013443 -0.000482084 24.473 -0.0505716 1.49581e-05)
(4.68549e-15 6.16298e-33 -2.67641e-20 -1498.08 -9.4369e-16 0.000148845 24.4678 -6.74863e-33 -0.000129338)
(-3.45774e-15 6.7534e-18 0 -1290.93 0.00856074 -2.31615e-33 15.6818 0.0505244 2.71051e-20)
(0 -1.2326e-32 0 -1290.96 2.77556e-17 6.83659e-05 15.6818 -6.93889e-18 -0.000143978)
(0 -3.99396e-17 -1.56014e-19 -1065.06 -0.0127058 -0.000421512 6.36104 -0.0500318 1.51103e-05)
(0 1.67419e-14 1.56014e-19 -1065.41 -1.72085e-15 -4.07959e-06 6.361 6.93889e-18 -0.000124838)
(0 0 4.81482e-34 -836.308 0.00789025 -3.44986e-18 -1.24927 0.049965 5.43725e-36)
(0 0 0 -836.969 2.67147e-15 0.00332008 -1.24931 0 -0.000140898)
(0 8.08395e-19 -3.78935e-20 -615.641 -0.00950216 -0.0168876 -7.12744 -0.0029784 -3.76107e-05)
(0 0 0 -616.511 8.88178e-16 1.24683e-18 -7.12747 4.33681e-19 2.74064e-33)
(1.63186e-15 7.96809e-19 0 -409.97 0.00811563 -0.000243044 -5.21193 0.00252283 3.31578e-06)
(-3.38368e-15 0 0 -410.915 -4.12836e-17 -0.00437857 -5.22795 -5.82499e-34 -3.31574e-06)
(1.61591e-15 2.21349e-19 0 -223.202 -0.00767403 -0.000227954 -2.28951 -0.000504302 -3.33917e-06)
(0 4.81482e-35 -9.40395e-38 -224.145 1.38778e-17 -5.49991e-20 -2.30526 4.04787e-35 4.23516e-22)
(-1.86374e-12 1.54826e-18 0 0 0.00703238 -0.000223283 -1.77636e-15 0.00175643 2.60955e-06)
(3.68748e-12 -5.07146e-15 0 -1.50167 0 -0.000314314 -0.0128366 2.1684e-19 -2.60951e-06)
(-1.49342e-12 -2.04568e-16 2.98061e-21 40.1372 1.26215e-18 -0.000199202 -0.34809 0 -2.64185e-06)
(3.044e-12 3.81518e-19 -3.66634e-22 38.4004 -0.0650013 -1.39192e-20 -0.333028 -0.00142489 0)
(0 -1.88025e-19 0 209.15 0.00589972 -0.000192026 -2.67985 0.00117884 1.80888e-06)
(-3.0806e-15 3.08149e-33 0 208.372 -2.09799e-17 -0.000289606 -2.66566 -1.03438e-33 -1.80884e-06)
(2.95705e-16 -8.38704e-17 1.44789e-21 310.314 7.36591e-19 -0.00016863 -4.69561 -2.1684e-19 -1.84176e-06)
(0 3.7066e-19 -2.55599e-22 309.612 -0.0421461 2.55599e-22 -4.68243 -0.000944872 2.11758e-22)
(2.27419e-16 5.48022e-19 0 391.475 0.00493061 -0.000159772 -6.39682 0.000782432 1.11546e-06)
(0 -1.97181e-15 0 390.873 -6.83066e-18 -0.000241113 -6.38495 -1.0842e-19 -1.11542e-06)
(0 -2.06031e-16 0 454.301 7.80071e-19 -0.000136213 -4.14072 0 -1.14275e-06)
(7.37508e-16 0 -6.34368e-22 453.839 -0.0244082 -3.17184e-22 -4.1407 -0.00063161 0)
(9.08673e-17 -3.5495e-19 0 500.888 0.0041997 -0.000122957 0.312502 0.000535039 5.478e-07)
(0 -3.85186e-34 0 500.625 -7.38945e-20 -0.000186562 0.312533 0 -2.29486e-07)
(0 -5.38401e-17 0 533.62 6.50521e-18 -9.77987e-05 5.19815 5.42101e-20 -5.65489e-07)
(-1.43304e-15 -5.24794e-19 0 533.566 -0.0116493 0 5.19818 -0.000450767 4.45523e-34)
(0 6.89697e-19 1.0103e-21 554.854 0.00358507 -8.63591e-05 10.4074 0.000402743 1.4594e-07)
(0 -8.98647e-19 -7.90366e-22 554.958 6.18259e-18 7.11404e-06 10.4075 0 8.15286e-07)
(0 -4.42072e-17 0 566.631 -4.77049e-18 -6.97662e-05 11.1853 0 -1.51522e-07)
(0 2.97418e-19 6.63879e-22 566.838 -0.00310037 4.2722e-05 11.1901 -0.000362973 8.48415e-07)
(-1.4001e-15 -1.17262e-18 -2.29027e-21 570.518 0.00304385 -1.96041e-06 11.3532 0.000353141 -5.37347e-07)
(5.59732e-15 0 0 570.781 4.86363e-20 3.20691e-22 11.3588 0 4.23516e-22)
(-2.18273e-15 -7.12476e-17 6.44985e-22 567.516 -4.81773e-18 8.29795e-05 11.3917 0 -2.13477e-08)
(-8.72775e-15 -4.1279e-19 -1.3512e-21 567.799 -0.00135304 -4.07682e-06 11.3975 -0.000343157 3.27637e-07)
(2.98629e-15 -4.47561e-19 -6.35741e-22 558.068 0.00254043 9.85735e-05 11.2988 0.000323458 1.54938e-08)
(1.19421e-14 -9.62965e-35 1.25413e-21 558.346 0 1.21787e-05 11.3044 5.42101e-20 3.28527e-07)
(-3.80301e-15 -5.91675e-17 0 542.161 3.98482e-18 0.000125744 11.0645 0 -2.10822e-08)
(1.52092e-14 -9.62502e-19 2.91983e-22 542.42 -0.00258994 1.26313e-05 11.0696 -0.000297181 1.91545e-07)
(-4.62501e-15 3.95294e-20 0 519.509 0.00207369 0.000148544 10.6749 0.000282379 1.24843e-08)
(0 -1.26241e-16 0 519.743 3.86433e-18 8.18225e-05 10.6795 0 2.78053e-07)
(-5.44338e-15 -2.54611e-17 0 489.765 3.07126e-18 0.000175336 10.1165 0 -2.07529e-08)
(0 2.7274e-19 0 489.972 -0.00228016 0.000148053 10.1206 -0.000258656 2.07559e-08)
(-6.24752e-15 -7.29685e-19 0 452.747 0.00166042 0.00019069 9.38133 0.000244789 9.85432e-09)
(2.4988e-14 -1.2326e-32 0 452.928 -3.35689e-20 0.000190618 9.38501 0 -9.92354e-09)
(7.02484e-15 -6.69283e-17 0 408.653 -5.66895e-18 0.000201504 8.47175 2.71051e-20 -2.04115e-08)
(0 4.92102e-19 0 408.812 -0.00201293 0.00020177 8.47503 -0.0002271 2.04185e-08)
(9.78098e-15 -3.35803e-19 0 358.21 0.00136651 0.000196238 7.40329 0.000210296 7.36741e-09)
(0 -8.66668e-34 0 358.351 2.8477e-18 0.000196177 7.40623 -2.71051e-20 -7.43805e-09)
(-8.44119e-15 -1.82698e-17 0 302.705 2.73927e-20 0.000182986 6.20495 0 -2.01335e-08)
(0 5.14874e-19 0 302.83 -0.00172948 0.000183226 6.20759 -0.000200445 2.01457e-08)
(0 -1.37748e-18 0 243.935 0.00116473 0.000153591 4.9185 0.000179728 5.04262e-09)
(7.24003e-14 0 0 244.045 2.1684e-18 0.000153539 4.92086 2.71051e-20 -5.11608e-09)
(-9.36642e-15 -1.37262e-17 -2.23313e-21 184.114 0 0.000119765 3.59675 -2.71051e-20 -1.98898e-08)
(3.82995e-14 2.8584e-19 0 184.211 -0.00138752 0.000119979 3.59886 -0.000177021 1.99099e-08)
(-1.92374e-14 1.07415e-18 -2.20112e-21 125.668 0.00105562 7.75894e-05 2.2971 0.000154928 2.90754e-09)
(-4.00197e-14 -1.14268e-16 0 125.752 -4.2118e-20 7.75376e-05 2.29895 2.71051e-20 -2.98606e-09)
(-1.23412e-15 -9.96712e-18 3.73548e-19 70.9818 -1.73472e-18 6.59575e-06 1.07695 0 -1.96042e-08)
(-4.1335e-14 -4.85984e-19 -1.78207e-18 71.0542 -0.00108718 -1.08998e-23 1.07854 -0.000154982 -3.30872e-24)
(5.09959e-13 4.10588e-19 0 8.91531e-13 0.000981619 -5.2876e-08 0 0.000135467 1.01507e-09)
(0 -2.73725e-19 0 0.0897817 1.4812e-18 -1.06198e-07 0.00108526 -2.71051e-20 -1.10117e-09)
(4.07853e-13 -1.596e-17 5.159e-19 -0.894367 1.6263e-18 -6.29455e-06 0.0109681 0 -1.92469e-08)
(-7.76183e-13 -2.02352e-19 2.93874e-39 -0.786165 -0.000874215 -2.12971e-22 0.00964116 -0.000133672 -3.30872e-24)
(1.65114e-15 1.46264e-18 -4.15524e-21 -51.1732 0.000880721 -5.18964e-05 0.923474 0.000119699 -6.41763e-10)
(-8.71416e-15 0 0 -51.1366 3.22748e-20 -5.19494e-05 0.922422 0 5.44564e-10)
(0 -1.31974e-17 0 -73.9034 -1.19262e-18 -6.27197e-05 1.62837 0 -1.88429e-08)
(8.12369e-14 1.81848e-18 0 -73.8786 -0.000730578 -6.25838e-05 1.6276 -0.000113888 1.89092e-08)
(0 -4.68289e-19 0 -86.9957 0.000717658 -6.80502e-05 2.10654 0.000106252 -2.11582e-09)
(7.95365e-14 0 0 -86.9824 1.22113e-18 -6.8097e-05 2.10606 1.09944e-34 2.00289e-09)
(-1.94896e-14 2.64815e-34 0 -90.8024 1.00182e-18 -6.46929e-05 2.3516 2.5759e-35 -1.84673e-08)
(0 0 0 -90.8001 -0.000642681 -6.45696e-05 2.35141 -9.7395e-05 1.85597e-08)
(-9.57833e-15 0 0 -86.0334 0.00056683 -5.9184e-05 2.36752 9.39701e-05 -3.50564e-09)
(7.66265e-14 -3.37038e-34 0 -86.0413 -9.75782e-19 -5.92169e-05 2.3676 -5.30979e-35 3.37058e-09)
(9.45573e-15 -1.48043e-17 0 -73.6617 -8.45042e-19 -4.95912e-05 2.16721 -1.35525e-20 -1.82276e-08)
(0 5.41222e-19 0 -73.6787 -0.000579892 -4.94703e-05 2.16755 -8.41376e-05 1.8354e-08)
(-9.38796e-15 0 0 -54.8237 0.000460298 -4.07282e-05 1.77027 8.23846e-05 -4.94139e-09)
(0 -9.62965e-35 0 -54.8484 -1.0842e-19 -4.07388e-05 1.77084 1.35525e-20 4.77587e-09)
(-9.38362e-15 0 0 -30.7573 5.42101e-20 -3.01588e-05 1.20092 -7.63915e-35 -1.82498e-08)
(3.7534e-14 -5.40843e-19 0 -30.7879 -0.00050961 -3.00292e-05 1.20169 -7.31615e-05 1.842e-08)
(-6.44497e-14 5.33091e-19 0 -1.88976e-14 0.000397016 -2.06861e-05 0.487413 7.18541e-05 -6.57405e-09)
(3.00309e-14 6.01853e-36 -1.85101e-21 -0.00635145 7.04731e-19 -2.06663e-05 0.488329 0 6.3669e-09)
(-1.87349e-14 0 0 23.9124 0 -8.36317e-06 1.24274 -1.35525e-20 -1.86636e-08)
(0 0 0 23.8414 -0.000417801 -6.40224e-06 1.24171 -6.3439e-05 1.88903e-08)
(-9.32279e-15 5.46693e-19 0 59.5081 0.000336089 4.0262e-06 2.18556 6.3148e-05 -8.55832e-09)
(0 -1.43057e-17 -1.79833e-21 59.4728 -6.50521e-19 4.08331e-06 2.18457 0 8.29522e-09)
(1.48693e-14 -5.12459e-18 0 90.9226 5.42101e-20 2.00048e-05 3.12496 -1.35525e-20 -1.95933e-08)
(-3.73766e-14 4.67955e-19 0 90.8903 -0.000340176 2.01803e-05 3.12407 -5.50258e-05 1.98926e-08)
(9.43733e-15 -4.05339e-19 0 120.538 0.000306776 3.85466e-05 4.01496 5.60548e-05 -1.10303e-08)
(3.77497e-14 -3.08149e-33 0 120.51 0 3.86448e-05 4.01423 6.77626e-21 1.06923e-08)
(9.60588e-15 -7.5584e-18 0 146.848 -3.79471e-19 5.95668e-05 4.80772 0 -2.11238e-08)
(-3.84238e-14 6.06183e-19 0 146.827 -0.000328618 5.97728e-05 4.80719 -4.71037e-05 2.15168e-08)
(-9.84947e-15 6.78971e-19 0 168.421 0.000240331 7.95644e-05 5.45618 4.87474e-05 -1.40712e-08)
(3.93981e-14 1.32408e-34 -3.39486e-21 168.407 -4.33681e-19 7.97037e-05 5.45588 6.77626e-21 1.36336e-08)
(0 -1.40325e-18 0 183.972 0 0.000101421 5.91663 0 -2.32877e-08)
(-1.4035e-14 -2.74388e-19 0 183.966 -0.000267908 0.000101655 5.91655 -4.08489e-05 2.38014e-08)
(-1.38338e-14 3.95789e-19 -3.29824e-21 192.468 0.000188255 0.000122282 6.15258 4.28046e-05 -1.76825e-08)
(4.21678e-14 0 0 192.469 -7.55538e-35 0.000122455 6.15273 -6.77626e-21 1.71127e-08)
(2.46064e-14 -4.4083e-18 0 193.227 -2.71051e-19 0.000144297 6.13858 0 -2.60061e-08)
(-1.36355e-14 5.39661e-19 0 193.235 -0.000222163 0.00014455 6.13893 -3.59545e-05 2.6676e-08)
(0 4.1016e-19 0 186.011 0.000183914 0.000167505 5.86372 3.79047e-05 -2.17495e-08)
(-4.57395e-14 -6.41223e-18 -3.20437e-21 186.025 1.80474e-20 0.000167699 5.86425 6.77626e-21 2.10047e-08)
(-1.32475e-14 -9.55163e-19 -3.15845e-21 171.074 2.1684e-19 0.000195198 5.33329 0 -2.90904e-08)
(0 2.71626e-19 0 171.092 -0.000163702 0.000195455 5.33396 -3.09867e-05 2.99625e-08)
(0 4.04713e-19 0 149.18 0.000201619 0.000229054 4.57063 3.45757e-05 -2.60583e-08)
(-1.30576e-14 -6.66376e-18 0 149.202 -1.10244e-20 0.000229251 4.57139 3.38813e-21 2.50819e-08)
(-1.28998e-14 1.20371e-35 0 121.575 0 0.000272677 3.61565 -1.10714e-35 -3.22431e-08)
(2.57409e-14 -1.0832e-18 0 121.599 -0.000107961 0.00027292 3.61647 -2.52268e-05 3.3377e-08)
(-1.21283e-14 4.11342e-19 0 89.8914 0.000200677 0.000326795 2.52248 3.28595e-05 -3.03198e-08)
(0 -6.2796e-18 0 89.9157 -2.43945e-19 0.000326974 2.52332 0 2.90374e-08)
(-2.71616e-14 -1.50463e-36 0 56.0204 2.1684e-19 0.000393137 1.35499 -1.69407e-21 -3.51294e-08)
(5.43227e-14 0 0 56.0443 -8.5261e-05 0.000393349 1.35581 -1.92842e-05 3.66001e-08)
(7.82591e-14 0 0 10.2651 0.000137526 0.000468092 0.1806 3.17446e-05 -3.42599e-08)
(0 0 0 10.3092 -1.5007e-34 0.000468241 0.181377 3.38813e-21 3.25737e-08)
(2.43353e-13 -1.49744e-18 0 -0.0189594 -5.42101e-20 0.00054932 0.000338414 -1.69407e-21 -3.74626e-08)
(0 -3.38877e-19 -1.15855e-20 -7.76268e-13 -0.000118618 0.000549492 0 -1.53618e-05 3.93646e-08)
(0 5.42425e-19 0 -39.5164 1.87622e-05 0.000628538 0.934915 2.93133e-05 -3.7705e-08)
(-1.19742e-14 -1.04434e-19 0 -39.4983 1.77744e-19 0.000628651 0.934212 0 3.54881e-08)
(-1.18026e-14 -2.22883e-18 -1.12558e-20 -64.009 2.97995e-20 0.000697278 1.93471 -1.69407e-21 -3.91064e-08)
(-2.36051e-14 -3.37674e-19 -2.25116e-20 -63.9939 -0.000224678 0.00069741 1.9341 -1.56207e-05 4.15592e-08)
(0 5.40856e-19 0 -83.1596 -0.000102437 0.000745676 2.77533 2.28617e-05 -4.06596e-08)
(8.15231e-14 0 -2.2189e-20 -83.1477 -1.0842e-19 0.000745758 2.77483 8.95715e-34 3.77495e-08)
(-2.55398e-14 0 0 -96.7095 0 0.000763457 3.4296 -1.69407e-21 -4.00906e-08)
(5.10799e-14 0 0 -96.7009 -0.00033584 0.000763559 3.42921 -2.0401e-05 4.32508e-08)
(1.24363e-14 -3.38857e-19 0 -104.893 -0.000211266 0.000740109 3.88902 1.19907e-05 -4.32929e-08)
(0 -9.62965e-35 0 -104.887 0 0.000740173 3.88875 0 3.94858e-08)
(0 -4.27038e-18 0 -108.349 1.69063e-19 0.000670806 4.16264 3.38813e-21 -4.05742e-08)
(-4.84381e-14 -6.90576e-20 0 -108.346 -0.000358227 0.00067089 4.16248 -2.9489e-05 4.46514e-08)
(-3.37588e-14 -1.08385e-18 0 -108.003 -0.000185487 0.000554584 4.27399 -4.96578e-08 -4.58667e-08)
(6.91513e-14 0 0 -108.002 1.94046e-33 0.000554641 4.27392 -8.9063e-06 4.09111e-08)
(0 -2.59073e-18 0 -104.939 -2.1684e-19 0.000395734 4.257 0 -4.07094e-08)
(0 -3.35461e-19 0 -104.939 -0.000265219 0.00039581 4.257 -3.78217e-05 4.59861e-08)
(0 -4.06958e-19 4.06958e-20 -100.276 -4.46287e-05 0.000203287 4.15186 -8.6615e-06 -4.86344e-08)
(1.06682e-14 -5.105e-21 0 -100.277 -2.51157e-19 0.000203345 4.15191 -1.83927e-05 4.22222e-08)
(-1.09745e-14 1.29398e-34 0 -95.0389 4.6687e-19 -7.28422e-06 3.99985 -6.77626e-21 -4.05573e-08)
(0 0 -9.22044e-38 -95.0407 -5.59805e-05 -3.32201e-22 3.99993 -4.06696e-05 0)
(-7.3206e-16 -1.49254e-18 5.93064e-20 -90.0658 0.000170912 -0.000218326 3.83836 -8.80276e-06 -5.17737e-08)
(8.58445e-14 -2.71498e-21 0 -90.0674 -1.6263e-19 -0.000218267 3.83843 -1.95635e-05 4.35221e-08)
(1.0216e-14 -3.89322e-21 0 -85.9623 2.05308e-19 -0.000411171 3.69783 0 -4.00122e-08)
(-1.0216e-14 -2.04597e-19 0 -85.9633 0.000155258 -0.0004111 3.69788 -3.45941e-05 4.89192e-08)
(-1.00696e-14 4.08131e-19 -1.92062e-20 -83.084 0.000323732 -0.000570552 3.59987 1.4607e-07 -5.53633e-08)
(-1.00696e-14 -1.62552e-19 0 -83.0842 -1.0842e-19 -0.000570497 3.5999 -1.18355e-05 4.47892e-08)
(-3.00496e-14 5.9433e-35 0 -81.5441 1.06186e-19 -0.00068508 3.55642 1.77645e-36 -3.88348e-08)
(8.01324e-14 1.62569e-18 0 -81.5434 0.00025274 -0.000685017 3.55641 -2.17864e-05 5.04044e-08)
(-9.78299e-15 -1.6263e-18 0 -81.2446 0.0003404 -0.00074975 3.56977 1.37866e-05 -5.94231e-08)
(8.7919e-14 3.08149e-33 0 -81.2431 -5.40174e-20 -0.000749707 3.56972 4.72957e-33 4.59045e-08)
(1.36824e-16 0 0 -81.9277 1.1008e-20 -0.000765273 3.63385 6.87062e-38 -3.67122e-08)
(-9.64278e-15 -4.74747e-19 0 -81.9255 0.000206046 -0.000765226 3.63377 -7.9003e-06 5.16951e-08)
(9.2325e-15 -1.62704e-18 0 -83.2309 0.000239774 -0.000737542 3.73623 2.59535e-05 -6.39817e-08)
(7.38601e-14 1.54074e-33 0 -83.2283 0 -0.000737515 3.73612 1.69407e-21 4.67174e-08)
(0 -3.85186e-34 0 -84.7439 1.35525e-20 -0.000675611 3.86009 7.36059e-06 -3.33304e-08)
(3.57899e-14 1.08385e-18 0 -84.7411 8.02928e-05 -0.000675583 3.85996 1.7692e-06 5.26517e-08)
(-5.80822e-16 -5.43789e-19 0 -86.0684 8.51248e-05 -0.000592115 3.98678 3.29555e-05 -6.91711e-08)
(9.23408e-15 -9.62965e-35 0 -86.0657 -9.48677e-20 -0.000592104 3.98665 -7.54659e-35 4.71325e-08)
(1.67067e-14 -5.10184e-21 0 -86.8593 1.60725e-19 -0.000497838 4.09848 9.19065e-06 -2.8408e-08)
(2.43118e-14 -2.02897e-19 0 -86.857 -4.30296e-05 -0.000497828 4.09836 4.4279e-06 5.32169e-08)
(8.97128e-15 4.06395e-19 0 -86.8514 -2.04417e-05 -0.000402721 4.17948 3.46872e-05 -7.52671e-08)
(-8.97128e-15 4.56092e-36 0 -86.8496 -8.21622e-21 -0.000402725 4.17938 0 4.7153e-08)
(0 -8.97053e-19 4.21653e-21 -85.8823 2.71051e-20 -0.000314089 4.21777 5.56619e-06 -2.16858e-08)
(3.10166e-14 4.73305e-19 0 -85.8811 -0.000114238 -0.000262124 4.21769 2.03034e-06 5.34189e-08)
(1.49278e-14 -5.4237e-19 0 -83.898 -6.26861e-05 -0.000236897 4.20616 3.34829e-05 -8.27154e-08)
(0 0 0 -83.8977 -6.77626e-20 -7.84765e-05 4.20612 7.5269e-35 1.33052e-06)
(7.18531e-15 -1.32698e-18 -4.09652e-21 -80.9423 -4.29714e-22 -0.000173021 4.14243 0 -1.28975e-08)
(2.87412e-14 1.01645e-18 6.00166e-21 -80.9427 -0.000123267 1.16101e-05 4.14243 -2.56573e-06 5.72881e-07)
(-8.4679e-15 -1.15179e-18 -6.05672e-21 -77.1432 -5.58088e-05 -0.000122807 4.02879 3.24155e-05 -9.21112e-08)
(3.6154e-14 0 9.04698e-21 -77.1443 -2.40351e-20 1.14381e-05 4.02883 4.48249e-34 5.989e-07)
(-6.67465e-15 -3.07739e-19 0 -72.6982 0 -6.38075e-05 3.8718 -8.47033e-22 -1.70445e-09)
(-2.66985e-14 2.71133e-19 -1.82324e-21 -72.7 -0.000101553 1.12449e-05 3.87188 -6.96808e-06 5.69446e-07)
(-1.46725e-14 -4.90362e-22 -1.96145e-21 -67.8492 -2.88335e-05 -7.84285e-06 3.68154 3.32182e-05 4.49276e-07)
(0 0 1.96145e-21 -67.8514 -1.35525e-20 1.10144e-05 3.68164 3.76324e-35 5.91961e-07)
(-6.23411e-15 -1.6212e-19 0 -62.8592 -7.45389e-20 6.88728e-06 3.47027 -1.69407e-21 1.32274e-06)
(-2.49363e-14 2.70667e-19 -2.88662e-21 -62.8617 -7.63211e-05 1.07675e-05 3.4704 -1.00928e-05 5.59523e-07)
(0 -3.38725e-19 0 -57.9971 -4.8772e-06 7.34782e-06 3.25176 3.63385e-05 1.64299e-06)
(7.99277e-15 -9.62965e-35 1.90563e-21 -57.9995 -6.77626e-21 1.04662e-05 3.2519 -1.1105e-06 5.76371e-07)
(0 -1.04009e-19 0 -53.5227 0 6.71421e-06 3.04045 -3.38813e-21 2.23556e-06)
(4.68569e-14 5.42833e-19 1.38897e-20 -53.5249 -5.57253e-05 1.01705e-05 3.04059 -1.20069e-05 5.43124e-07)
(9.84497e-15 5.42458e-19 5.55418e-21 -49.675 1.16716e-05 7.27297e-06 2.85082 4.18353e-05 2.28303e-06)