/*--------------------------------*- C++ -*----------------------------------*\
| =========                 |                                                 |
| \\      /  F ield         | OpenFOAM: The Open Source CFD Toolbox           |
|  \\    /   O peration     | Version:  2012                                  |
|   \\  /    A nd           | Website:  www.openfoam.com                      |
|    \\/     M anipulation  |                                                 |
\*---------------------------------------------------------------------------*/
FoamFile
{
    version     2.0;
    format      ascii;
    class       volScalarField;
    location    "11600";
    object      nut;
}
// * * * * * * * * * * * * * * * * * * * * * * * * * * * * * * * * * * * * * //

dimensions      [0 2 -1 0 0 0 0];


internalField   nonuniform List<scalar> 
2560
(
7.30569e-09
7.29996e-09
1.20174e-06
1.20086e-06
2.45912e-05
2.45743e-05
0.000150447
0.000150366
0.000430734
0.000430564
0.000833331
0.000833071
0.00132129
0.00132094
0.00187307
0.00187264
0.00247629
0.00247578
0.00312325
0.00312265
0.00380872
0.00380803
0.00452891
0.00452813
0.00528095
0.00528008
0.00606257
0.0060616
0.00687189
0.00687083
0.00770735
0.00770619
0.0085676
0.00856635
0.00945148
0.00945012
0.0103579
0.0103565
0.011286
0.0112844
0.0122348
0.0122331
0.0132035
0.0132017
0.0141913
0.0141894
0.0151975
0.0151955
0.0162215
0.0162193
0.0172624
0.0172601
0.0183197
0.0183173
0.0193927
0.0193902
0.0204809
0.0204783
0.0215835
0.0215808
0.0227001
0.0226972
0.02383
0.023827
0.0249725
0.0249694
0.0261272
0.0261239
0.0272933
0.0272899
0.0284701
0.0284665
0.0296569
0.0296532
0.0308531
0.0308492
0.0320578
0.0320538
0.0332704
0.0332663
0.0344902
0.034486
0.0357165
0.0357121
0.0369484
0.0369439
0.0381853
0.0381807
0.0394263
0.0394214
0.0406701
0.0406651
0.0419156
0.0419105
0.0431611
0.0431559
0.044405
0.0443996
0.0456453
0.0456398
0.04688
0.0468743
0.0481069
0.048101
0.0493239
0.0493179
0.0505294
0.0505232
0.0517224
0.0517161
0.0529041
0.0528975
0.0540776
0.0540709
0.0552491
0.0552422
0.0564256
0.0564185
0.0576125
0.0576051
0.0588081
0.0588005
0.0599959
0.0599882
0.0611482
0.0611403
0.0622284
0.0622204
0.0631985
0.0631905
0.0640287
0.0640208
0.0647031
0.0646954
0.0652222
0.0652149
0.0656008
0.0655939
0.0658635
0.0658569
0.0660393
0.0660331
0.0661572
0.0661514
0.0662433
0.0662377
0.0663184
0.066313
0.0663978
0.0663925
0.0664912
0.0664861
0.0666037
0.0665987
0.0667362
0.0667313
0.0668855
0.0668807
0.067047
0.0670424
0.0672148
0.0672105
0.0673825
0.0673785
0.0675441
0.0675405
0.0676939
0.0676906
0.0678268
0.0678239
0.0679387
0.0679361
0.0680259
0.0680236
0.0680857
0.0680837
0.068116
0.0681142
0.0681158
0.0681142
0.0680853
0.0680838
0.0680257
0.0680244
0.0679397
0.0679385
0.0678314
0.0678303
0.0677057
0.0677047
0.0675683
0.0675673
0.0674249
0.067424
0.0672808
0.0672799
0.0671404
0.0671395
0.0670066
0.0670058
0.0668815
0.0668807
0.0667657
0.066765
0.0666592
0.0666584
0.0665614
0.0665607
0.0664724
0.0664717
0.0663924
0.0663917
0.0663221
0.0663214
0.0662631
0.0662624
0.066217
0.0662164
0.0661859
0.0661853
0.0661711
0.0661705
0.0661736
0.066173
0.0661929
0.0661923
0.0662272
0.0662266
0.0662735
0.066273
0.0663276
0.0663271
0.0663848
0.0663843
0.0664403
0.0664399
0.0664906
0.0664902
0.0665337
0.0665333
0.0665698
0.0665695
0.0666019
0.0666016
0.0666349
0.0666345
0.0666751
0.0666748
0.0667293
0.066729
0.0668035
0.0668032
0.0669022
0.0669019
0.0670272
0.0670269
0.0671782
0.0671779
0.0673532
0.0673529
0.0675493
0.067549
0.0677637
0.0677634
0.0679941
0.0679938
0.0682394
0.0682391
0.0684995
0.0684992
0.0687756
0.0687753
0.0690694
0.0690691
0.0693831
0.0693827
0.0697187
0.0697183
0.0700783
0.0700779
0.0704634
0.070463
0.0708752
0.0708747
0.0713142
0.0713137
0.0717806
0.0717801
0.0722741
0.0722735
0.0727942
0.0727936
0.0733402
0.0733396
0.0739116
0.073911
0.0745084
0.0745077
0.0751309
0.0751302
0.0757803
0.0757795
0.0764583
0.0764574
0.0771673
0.0771664
0.0779105
0.0779095
0.0786912
0.0786901
0.0795128
0.0795117
0.0803789
0.0803777
0.0812926
0.0812912
0.0822566
0.0822551
0.083273
0.0832715
0.0843435
0.0843418
0.0854686
0.0854667
0.086648
0.0866459
0.0878804
0.0878782
0.0891631
0.0891607
0.0904918
0.0904892
0.0918607
0.0918578
0.0932615
0.0932585
0.0946843
0.0946811
0.096117
0.0961136
0.097546
0.0975424
0.0989569
0.0989532
0.100336
0.100332
0.10167
0.101666
0.10295
0.102947
0.104172
0.104169
0.105337
0.105335
0.106453
0.106453
0.107536
0.107536
0.108605
0.108605
0.109685
0.109685
0.110799
0.110799
0.11197
0.11197
0.113216
0.113215
0.114543
0.114543
0.115952
0.115952
0.11743
0.117429
0.118956
0.118955
0.120505
0.120505
0.12205
0.12205
0.123564
0.123564
0.125024
0.125026
0.126415
0.126417
0.127725
0.127728
0.128951
0.128954
0.130096
0.130099
0.131168
0.131171
0.13218
0.132182
0.133147
0.13315
0.134089
0.134091
0.135021
0.135023
0.135964
0.135965
0.136933
0.136935
0.137946
0.137947
0.139016
0.139017
0.140157
0.140158
0.141379
0.14138
0.142692
0.142693
0.144104
0.144104
0.14562
0.14562
0.147243
0.147242
0.148974
0.148973
0.15081
0.150809
0.152743
0.152742
0.15476
0.154759
0.156843
0.156842
0.158966
0.158965
0.161097
0.161096
0.1632
0.163198
0.165234
0.165232
0.167161
0.167159
0.168945
0.168943
0.170559
0.170556
0.171987
0.171984
0.17323
0.173227
0.174304
0.174302
0.175248
0.175246
0.176107
0.176107
0.176937
0.176937
0.17779
0.17779
0.178713
0.178713
0.179741
0.179741
0.180883
0.180883
0.182134
0.182133
0.183472
0.183471
0.184868
0.184868
0.186296
0.186297
0.187741
0.187742
0.189197
0.189198
0.19067
0.190671
0.192183
0.192184
0.193765
0.193766
0.195447
0.195448
0.19726
0.19726
0.199226
0.199226
0.201361
0.201362
0.203679
0.203679
0.206185
0.206185
0.208887
0.208887
0.21179
0.21179
0.214903
0.214903
0.218233
0.218233
0.221789
0.221789
0.225577
0.225576
0.2296
0.2296
0.233862
0.233862
0.238361
0.238361
0.243095
0.243094
0.24806
0.24806
0.253255
0.253255
0.258678
0.258677
0.264327
0.264327
0.270207
0.270206
0.27632
0.27632
0.282673
0.282673
0.289273
0.289273
0.296128
0.296128
0.303244
0.303244
0.310626
0.310625
0.318275
0.318275
0.326193
0.326192
0.334374
0.334374
0.342816
0.342816
0.351512
0.351512
0.360457
0.360456
0.369643
0.369643
0.379065
0.379065
0.388717
0.388716
0.39859
0.39859
0.408679
0.408679
0.418974
0.418974
0.429468
0.429468
0.44015
0.44015
0.451012
0.451011
0.462041
0.462041
0.47323
0.473229
0.484566
0.484566
0.496043
0.496043
0.507652
0.507652
0.519387
0.519387
0.531243
0.531242
0.543213
0.543213
0.555291
0.555291
0.567469
0.567469
0.579735
0.579735
0.592076
0.592076
0.604478
0.604478
0.616927
0.616927
0.629408
0.629408
0.641909
0.641909
0.65442
0.65442
0.666933
0.666932
0.67944
0.67944
0.691939
0.691939
0.704424
0.704424
0.716892
0.716892
0.729339
0.729339
0.74176
0.74176
0.754149
0.754149
0.766498
0.766498
0.778799
0.778799
0.791041
0.791041
0.803209
0.803209
0.815275
0.815275
0.827188
0.827188
0.838837
0.838837
0.849971
0.849971
0.860006
0.860006
0.867586
0.867586
0.867359
0.867359
7.29995e-09
7.30569e-09
1.20085e-06
1.20174e-06
2.45743e-05
2.45912e-05
0.000150366
0.000150447
0.000430564
0.000430734
0.000833071
0.000833331
0.00132094
0.00132129
0.00187263
0.00187307
0.00247578
0.00247629
0.00312265
0.00312326
0.00380803
0.00380872
0.00452813
0.00452891
0.00528008
0.00528095
0.0060616
0.00606257
0.00687083
0.00687189
0.00770619
0.00770735
0.00856635
0.00856761
0.00945012
0.00945148
0.0103565
0.0103579
0.0112844
0.011286
0.0122331
0.0122348
0.0132017
0.0132035
0.0141894
0.0141913
0.0151955
0.0151975
0.0162193
0.0162215
0.0172601
0.0172624
0.0183173
0.0183197
0.0193902
0.0193927
0.0204783
0.0204809
0.0215808
0.0215835
0.0226972
0.0227001
0.023827
0.02383
0.0249694
0.0249726
0.0261239
0.0261272
0.0272898
0.0272933
0.0284665
0.0284701
0.0296532
0.0296569
0.0308492
0.0308531
0.0320538
0.0320578
0.0332663
0.0332704
0.034486
0.0344902
0.0357121
0.0357165
0.0369439
0.0369484
0.0381807
0.0381853
0.0394214
0.0394263
0.0406651
0.0406701
0.0419105
0.0419156
0.0431559
0.0431611
0.0443996
0.044405
0.0456398
0.0456454
0.0468743
0.04688
0.048101
0.0481069
0.0493179
0.0493239
0.0505232
0.0505294
0.0517161
0.0517224
0.0528975
0.0529041
0.0540709
0.0540776
0.0552421
0.0552491
0.0564185
0.0564256
0.0576051
0.0576125
0.0588005
0.0588081
0.0599881
0.0599959
0.0611403
0.0611483
0.0622204
0.0622284
0.0631905
0.0631985
0.0640208
0.0640287
0.0646954
0.0647031
0.0652149
0.0652222
0.0655938
0.0656009
0.0658569
0.0658635
0.0660331
0.0660393
0.0661514
0.0661572
0.0662377
0.0662433
0.066313
0.0663184
0.0663925
0.0663978
0.066486
0.0664912
0.0665987
0.0666037
0.0667312
0.0667362
0.0668807
0.0668855
0.0670424
0.067047
0.0672104
0.0672148
0.0673785
0.0673825
0.0675404
0.0675441
0.0676906
0.0676939
0.0678239
0.0678268
0.0679361
0.0679387
0.0680236
0.0680259
0.0680836
0.0680857
0.0681142
0.068116
0.0681142
0.0681158
0.0680838
0.0680853
0.0680244
0.0680257
0.0679385
0.0679397
0.0678303
0.0678314
0.0677047
0.0677057
0.0675673
0.0675683
0.067424
0.0674249
0.0672799
0.0672808
0.0671395
0.0671404
0.0670058
0.0670066
0.0668807
0.0668815
0.0667649
0.0667657
0.0666584
0.0666591
0.0665607
0.0665614
0.0664717
0.0664724
0.0663916
0.0663923
0.0663214
0.0663221
0.0662624
0.066263
0.0662164
0.066217
0.0661853
0.0661859
0.0661705
0.0661711
0.066173
0.0661736
0.0661923
0.0661928
0.0662266
0.0662271
0.0662729
0.0662735
0.0663271
0.0663276
0.0663843
0.0663847
0.0664399
0.0664403
0.0664902
0.0664906
0.0665333
0.0665336
0.0665694
0.0665698
0.0666015
0.0666019
0.0666345
0.0666348
0.0666747
0.066675
0.066729
0.0667293
0.0668031
0.0668034
0.0669018
0.0669021
0.0670269
0.0670272
0.0671778
0.0671782
0.0673528
0.0673531
0.0675489
0.0675493
0.0677633
0.0677637
0.0679937
0.0679941
0.068239
0.0682393
0.0684991
0.0684995
0.0687752
0.0687755
0.069069
0.0690693
0.0693826
0.069383
0.0697182
0.0697186
0.0700778
0.0700782
0.0704628
0.0704633
0.0708746
0.070875
0.0713136
0.071314
0.0717799
0.0717804
0.0722734
0.0722739
0.0727934
0.072794
0.0733394
0.07334
0.0739108
0.0739115
0.0745076
0.0745083
0.07513
0.0751308
0.0757793
0.0757801
0.0764572
0.0764581
0.0771662
0.0771671
0.0779093
0.0779103
0.0786899
0.078691
0.0795114
0.0795126
0.0803774
0.0803787
0.081291
0.0812923
0.0822548
0.0822563
0.0832712
0.0832728
0.0843415
0.0843433
0.0854664
0.0854683
0.0866456
0.0866477
0.0878778
0.0878801
0.0891603
0.0891628
0.0904889
0.0904916
0.0918575
0.0918604
0.0932581
0.0932612
0.0946807
0.094684
0.0961132
0.0961167
0.097542
0.0975457
0.0989528
0.0989566
0.100332
0.100335
0.101666
0.101669
0.102946
0.10295
0.104169
0.104171
0.105335
0.105336
0.106452
0.106453
0.107536
0.107536
0.108605
0.108605
0.109684
0.109684
0.110798
0.110798
0.11197
0.11197
0.113215
0.113215
0.114542
0.114543
0.115951
0.115952
0.117428
0.117429
0.118955
0.118955
0.120504
0.120505
0.122049
0.122049
0.123564
0.123563
0.125025
0.125023
0.126417
0.126414
0.127728
0.127725
0.128954
0.128951
0.130099
0.130095
0.13117
0.131167
0.132182
0.132179
0.133149
0.133147
0.13409
0.134088
0.135023
0.135021
0.135965
0.135963
0.136934
0.136933
0.137947
0.137946
0.139017
0.139016
0.140157
0.140157
0.141379
0.141379
0.142692
0.142692
0.144103
0.144103
0.145619
0.145619
0.147241
0.147242
0.148972
0.148973
0.150808
0.150808
0.15274
0.152741
0.154758
0.154759
0.15684
0.156842
0.158963
0.158965
0.161094
0.161096
0.163196
0.163198
0.16523
0.165233
0.167157
0.16716
0.168941
0.168944
0.170555
0.170558
0.171983
0.171987
0.173226
0.17323
0.174301
0.174305
0.175246
0.175248
0.176107
0.176108
0.176937
0.176938
0.17779
0.177791
0.178713
0.178714
0.179741
0.179741
0.180883
0.180883
0.182133
0.182134
0.18347
0.183471
0.184867
0.184867
0.186296
0.186296
0.187741
0.18774
0.189198
0.189196
0.190671
0.19067
0.192184
0.192183
0.193766
0.193765
0.195448
0.195448
0.197261
0.19726
0.199226
0.199226
0.201362
0.201361
0.203679
0.203679
0.206185
0.206185
0.208887
0.208887
0.21179
0.21179
0.214903
0.214903
0.218233
0.218233
0.221788
0.221789
0.225576
0.225576
0.2296
0.2296
0.233861
0.233861
0.23836
0.23836
0.243094
0.243094
0.248059
0.24806
0.253254
0.253255
0.258677
0.258677
0.264327
0.264327
0.270206
0.270207
0.27632
0.27632
0.282673
0.282673
0.289273
0.289273
0.296128
0.296128
0.303244
0.303244
0.310626
0.310626
0.318275
0.318276
0.326192
0.326193
0.334374
0.334374
0.342816
0.342816
0.351512
0.351512
0.360456
0.360457
0.369643
0.369643
0.379065
0.379065
0.388716
0.388716
0.39859
0.39859
0.408678
0.408678
0.418973
0.418974
0.429467
0.429468
0.44015
0.44015
0.451011
0.451011
0.462041
0.462041
0.473229
0.473229
0.484566
0.484566
0.496042
0.496043
0.507651
0.507652
0.519386
0.519387
0.531242
0.531242
0.543212
0.543213
0.555291
0.555291
0.567468
0.567469
0.579734
0.579734
0.592075
0.592076
0.604477
0.604478
0.616926
0.616926
0.629407
0.629408
0.641909
0.641909
0.654419
0.65442
0.666932
0.666932
0.67944
0.67944
0.691938
0.691938
0.704423
0.704424
0.716891
0.716892
0.729338
0.729339
0.741759
0.741759
0.754147
0.754147
0.766495
0.766496
0.778796
0.778796
0.791037
0.791037
0.803203
0.803203
0.815267
0.815268
0.827178
0.827178
0.838825
0.838825
0.849956
0.849956
0.859989
0.859988
0.867568
0.867568
0.867344
0.867343
0.86736
0.86736
0.867589
0.867589
0.860011
0.860011
0.849977
0.849977
0.838843
0.838843
0.827195
0.827195
0.815283
0.815283
0.803218
0.803218
0.791051
0.791051
0.778809
0.778809
0.766508
0.766508
0.754159
0.754159
0.741771
0.741771
0.72935
0.72935
0.716904
0.716904
0.704436
0.704436
0.691952
0.691952
0.679454
0.679454
0.666947
0.666947
0.654435
0.654435
0.641924
0.641924
0.629424
0.629424
0.616943
0.616943
0.604496
0.604495
0.592094
0.592094
0.579753
0.579753
0.567488
0.567487
0.55531
0.55531
0.543232
0.543232
0.531262
0.531262
0.519407
0.519407
0.507673
0.507672
0.496064
0.496064
0.484588
0.484587
0.473251
0.47325
0.462062
0.462062
0.451032
0.451031
0.44017
0.44017
0.429487
0.429487
0.418993
0.418993
0.408698
0.408697
0.398609
0.398609
0.388735
0.388735
0.379083
0.379083
0.36966
0.36966
0.360473
0.360473
0.351528
0.351528
0.342832
0.342832
0.334389
0.334389
0.326207
0.326207
0.318289
0.318289
0.310639
0.310639
0.303256
0.303256
0.29614
0.296139
0.289284
0.289284
0.282683
0.282683
0.276329
0.276329
0.270215
0.270215
0.264335
0.264335
0.258684
0.258684
0.25326
0.25326
0.248064
0.248064
0.243098
0.243097
0.238363
0.238363
0.233863
0.233863
0.229601
0.229601
0.225577
0.225577
0.221789
0.221789
0.218232
0.218232
0.214901
0.214901
0.211788
0.211788
0.208884
0.208884
0.206182
0.206182
0.203675
0.203675
0.201357
0.201357
0.199221
0.199221
0.197255
0.197255
0.195442
0.195443
0.193759
0.19376
0.192177
0.192179
0.190665
0.190666
0.189193
0.189194
0.187738
0.187739
0.186294
0.186294
0.184866
0.184866
0.183471
0.18347
0.182134
0.182133
0.180883
0.180883
0.179741
0.179741
0.178714
0.178714
0.177792
0.177791
0.176939
0.176939
0.17611
0.176109
0.175251
0.175249
0.174309
0.174306
0.173235
0.173232
0.171993
0.171989
0.170565
0.170561
0.168951
0.168948
0.167167
0.167164
0.16524
0.165237
0.163205
0.163203
0.161103
0.161101
0.158972
0.15897
0.156849
0.156847
0.154766
0.154764
0.152748
0.152747
0.150814
0.150814
0.148978
0.148978
0.147247
0.147247
0.145624
0.145624
0.144108
0.144108
0.142696
0.142697
0.141383
0.141383
0.14016
0.140161
0.13902
0.13902
0.137949
0.13795
0.136936
0.136937
0.135966
0.135968
0.135024
0.135025
0.134091
0.134093
0.13315
0.133152
0.132182
0.132185
0.13117
0.131173
0.130098
0.130101
0.128953
0.128956
0.127727
0.12773
0.126416
0.126419
0.125025
0.125027
0.123564
0.123565
0.12205
0.12205
0.120505
0.120505
0.118956
0.118955
0.11743
0.117429
0.115952
0.115951
0.114543
0.114542
0.113215
0.113215
0.11197
0.11197
0.110798
0.110798
0.109684
0.109684
0.108605
0.108605
0.107536
0.107536
0.106453
0.106452
0.105336
0.105334
0.104171
0.104169
0.10295
0.102946
0.10167
0.101666
0.100335
0.100331
0.0989565
0.0989525
0.0975454
0.0975416
0.0961163
0.0961127
0.0946835
0.0946801
0.0932606
0.0932574
0.0918597
0.0918567
0.0904907
0.0904879
0.0891618
0.0891592
0.0878789
0.0878766
0.0866464
0.0866442
0.0854668
0.0854648
0.0843415
0.0843397
0.0832709
0.0832692
0.0822542
0.0822527
0.08129
0.0812886
0.0803761
0.0803748
0.0795099
0.0795087
0.078688
0.0786869
0.0779071
0.0779061
0.0771637
0.0771628
0.0764544
0.0764535
0.0757761
0.0757753
0.0751265
0.0751257
0.0745037
0.074503
0.0739066
0.0739059
0.0733349
0.0733342
0.0727886
0.072788
0.0722682
0.0722677
0.0717745
0.0717739
0.0713079
0.0713074
0.0708687
0.0708682
0.0704567
0.0704562
0.0700714
0.0700709
0.0697116
0.0697112
0.0693758
0.0693754
0.069062
0.0690616
0.068768
0.0687676
0.0684916
0.0684913
0.0682312
0.0682308
0.0679856
0.0679853
0.067755
0.0677546
0.0675403
0.06754
0.0673439
0.0673436
0.0671688
0.0671685
0.0670176
0.0670173
0.0668924
0.0668921
0.0667935
0.0667932
0.0667192
0.0667189
0.0666648
0.0666645
0.0666245
0.0666241
0.0665914
0.0665911
0.0665592
0.0665588
0.0665229
0.0665225
0.0664798
0.0664794
0.0664294
0.066429
0.0663738
0.0663733
0.0663166
0.0663161
0.0662624
0.0662618
0.066216
0.0662154
0.0661816
0.066181
0.0661622
0.0661616
0.0661597
0.066159
0.0661743
0.0661737
0.0662053
0.0662047
0.0662513
0.0662506
0.0663102
0.0663095
0.0663804
0.0663797
0.0664604
0.0664596
0.0665493
0.0665485
0.0666469
0.0666462
0.0667534
0.0667526
0.0668692
0.0668683
0.0669942
0.0669933
0.0671279
0.067127
0.0672683
0.0672674
0.0674123
0.0674114
0.0675556
0.0675546
0.067693
0.0676919
0.0678186
0.0678175
0.067927
0.0679258
0.068013
0.0680117
0.0680728
0.0680713
0.0681034
0.0681018
0.0681036
0.0681018
0.0680732
0.0680712
0.0680134
0.068011
0.067926
0.0679233
0.067814
0.067811
0.0676809
0.0676775
0.067531
0.0675271
0.0673692
0.067365
0.0672013
0.0671967
0.0670333
0.0670285
0.0668717
0.0668666
0.0667222
0.066717
0.0665896
0.0665843
0.066477
0.0664715
0.0663834
0.0663779
0.066304
0.0662982
0.0662288
0.0662229
0.0661427
0.0661365
0.0660248
0.0660182
0.065849
0.065842
0.0655865
0.0655791
0.0652082
0.0652004
0.0646894
0.0646813
0.0640153
0.064007
0.0631854
0.0631769
0.0622154
0.0622069
0.0611354
0.061127
0.0599832
0.059975
0.0587957
0.0587876
0.0576003
0.0575924
0.0564136
0.056406
0.0552372
0.0552298
0.0540659
0.0540588
0.0528926
0.0528856
0.0517113
0.0517045
0.0505185
0.0505119
0.0493134
0.049307
0.0480968
0.0480906
0.0468702
0.0468642
0.0456359
0.04563
0.0443959
0.0443901
0.0431523
0.0431467
0.041907
0.0419016
0.0406619
0.0406566
0.0394184
0.0394132
0.0381777
0.0381728
0.0369411
0.0369363
0.0357094
0.0357048
0.0344835
0.034479
0.033264
0.0332596
0.0320516
0.0320474
0.0308472
0.0308431
0.0296513
0.0296473
0.0284647
0.0284609
0.0272881
0.0272845
0.0261223
0.0261188
0.0249679
0.0249645
0.0238255
0.0238223
0.0226959
0.0226928
0.0215795
0.0215766
0.0204771
0.0204743
0.0193892
0.0193865
0.0183163
0.0183138
0.0172592
0.0172568
0.0162185
0.0162162
0.0151948
0.0151926
0.0141887
0.0141867
0.0132011
0.0131992
0.0122325
0.0122308
0.0112839
0.0112823
0.010356
0.0103545
0.00944974
0.00944831
0.00856602
0.00856469
0.00770591
0.00770469
0.00687059
0.00686947
0.00606141
0.00606039
0.00527993
0.00527901
0.00452802
0.00452719
0.00380795
0.00380722
0.0031226
0.00312196
0.00247575
0.0024752
0.00187263
0.00187217
0.00132095
0.00132059
0.000833087
0.000832813
0.000430582
0.000430403
0.000150378
0.000150293
2.45773e-05
2.45595e-05
1.20103e-06
1.2001e-06
7.3015e-09
7.29546e-09
0.867344
0.867344
0.86757
0.86757
0.859994
0.859994
0.849961
0.849961
0.838831
0.838831
0.827185
0.827186
0.815275
0.815276
0.803212
0.803212
0.791046
0.791047
0.778805
0.778806
0.766505
0.766505
0.754157
0.754157
0.741769
0.741769
0.729349
0.729349
0.716903
0.716903
0.704435
0.704436
0.691951
0.691952
0.679454
0.679454
0.666946
0.666947
0.654434
0.654434
0.641923
0.641924
0.629423
0.629423
0.616943
0.616943
0.604495
0.604495
0.592093
0.592093
0.579752
0.579753
0.567487
0.567487
0.55531
0.55531
0.543232
0.543232
0.531262
0.531262
0.519407
0.519407
0.507672
0.507673
0.496064
0.496064
0.484587
0.484587
0.47325
0.473251
0.462061
0.462062
0.451031
0.451031
0.440169
0.44017
0.429486
0.429487
0.418993
0.418993
0.408697
0.408697
0.398608
0.398609
0.388734
0.388735
0.379083
0.379083
0.36966
0.36966
0.360473
0.360473
0.351528
0.351528
0.342831
0.342832
0.334389
0.334389
0.326207
0.326207
0.318289
0.318289
0.310639
0.310639
0.303256
0.303257
0.29614
0.29614
0.289284
0.289284
0.282683
0.282683
0.276329
0.276329
0.270215
0.270215
0.264334
0.264335
0.258683
0.258684
0.253259
0.25326
0.248063
0.248064
0.243097
0.243097
0.238362
0.238362
0.233863
0.233863
0.2296
0.229601
0.225576
0.225577
0.221788
0.221788
0.218232
0.218232
0.214901
0.214901
0.211788
0.211788
0.208884
0.208884
0.206182
0.206182
0.203675
0.203675
0.201357
0.201357
0.199221
0.199221
0.197255
0.197255
0.195443
0.195442
0.19376
0.193759
0.192179
0.192177
0.190666
0.190665
0.189194
0.189192
0.187738
0.187737
0.186294
0.186293
0.184865
0.184866
0.183469
0.18347
0.182132
0.182133
0.180882
0.180883
0.179741
0.179741
0.178714
0.178715
0.177792
0.177792
0.176939
0.17694
0.17611
0.176111
0.175249
0.175252
0.174306
0.174309
0.173231
0.173235
0.171989
0.171992
0.17056
0.170564
0.168947
0.16895
0.167162
0.167166
0.165236
0.165238
0.163201
0.163204
0.161099
0.161101
0.158968
0.15897
0.156846
0.156847
0.154763
0.154764
0.152745
0.152746
0.150812
0.150813
0.148977
0.148977
0.147246
0.147246
0.145623
0.145623
0.144107
0.144107
0.142696
0.142696
0.141383
0.141382
0.140161
0.14016
0.13902
0.139019
0.13795
0.137949
0.136937
0.136936
0.135968
0.135966
0.135025
0.135023
0.134092
0.13409
0.133152
0.133149
0.132184
0.132181
0.131172
0.131169
0.1301
0.130097
0.128956
0.128952
0.127729
0.127726
0.126418
0.126415
0.125026
0.125024
0.123564
0.123564
0.12205
0.12205
0.120504
0.120505
0.118954
0.118955
0.117428
0.117429
0.115951
0.115951
0.114542
0.114542
0.113214
0.113215
0.111969
0.111969
0.110798
0.110798
0.109684
0.109684
0.108605
0.108605
0.107535
0.107536
0.106452
0.106453
0.105334
0.105336
0.104168
0.104171
0.102946
0.10295
0.101665
0.101669
0.100331
0.100335
0.0989522
0.0989562
0.0975413
0.0975452
0.0961124
0.0961161
0.0946798
0.0946833
0.0932571
0.0932604
0.0918563
0.0918594
0.0904876
0.0904905
0.0891589
0.0891615
0.0878763
0.0878787
0.0866439
0.0866461
0.0854645
0.0854665
0.0843394
0.0843413
0.0832689
0.0832707
0.0822524
0.082254
0.0812884
0.0812898
0.0803746
0.0803759
0.0795084
0.0795097
0.0786867
0.0786878
0.0779059
0.077907
0.0771626
0.0771635
0.0764533
0.0764542
0.0757751
0.075776
0.0751256
0.0751264
0.0745028
0.0745036
0.0739058
0.0739065
0.0733341
0.0733347
0.0727878
0.0727885
0.0722675
0.0722681
0.0717738
0.0717744
0.0713072
0.0713078
0.0708681
0.0708685
0.0704561
0.0704566
0.0700708
0.0700713
0.0697111
0.0697115
0.0693753
0.0693757
0.0690615
0.0690619
0.0687675
0.0687679
0.0684912
0.0684916
0.0682307
0.0682311
0.0679852
0.0679856
0.0677546
0.0677549
0.0675399
0.0675403
0.0673436
0.0673439
0.0671684
0.0671687
0.0670173
0.0670176
0.0668921
0.0668924
0.0667931
0.0667935
0.0667188
0.0667191
0.0666645
0.0666648
0.0666241
0.0666244
0.066591
0.0665914
0.0665588
0.0665592
0.0665225
0.0665229
0.0664794
0.0664798
0.0664289
0.0664294
0.0663733
0.0663738
0.066316
0.0663166
0.0662618
0.0662624
0.0662154
0.066216
0.066181
0.0661816
0.0661616
0.0661623
0.066159
0.0661597
0.0661737
0.0661743
0.0662047
0.0662054
0.0662506
0.0662513
0.0663095
0.0663102
0.0663797
0.0663804
0.0664596
0.0664604
0.0665485
0.0665493
0.0666461
0.066647
0.0667526
0.0667535
0.0668683
0.0668692
0.0669933
0.0669942
0.067127
0.0671279
0.0672674
0.0672683
0.0674113
0.0674123
0.0675546
0.0675557
0.0676919
0.067693
0.0678175
0.0678187
0.0679258
0.067927
0.0680117
0.0680131
0.0680713
0.0680728
0.0681018
0.0681035
0.0681018
0.0681037
0.0680711
0.0680733
0.068011
0.0680134
0.0679233
0.0679261
0.0678109
0.0678141
0.0676774
0.067681
0.0675271
0.067531
0.067365
0.0673693
0.0671967
0.0672014
0.0670285
0.0670334
0.0668666
0.0668717
0.066717
0.0667223
0.0665843
0.0665897
0.0664715
0.0664771
0.0663779
0.0663835
0.0662982
0.066304
0.0662229
0.0662289
0.0661365
0.0661428
0.0660182
0.0660248
0.065842
0.0658491
0.0655791
0.0655866
0.0652004
0.0652083
0.0646813
0.0646895
0.064007
0.0640154
0.0631769
0.0631855
0.0622069
0.0622155
0.061127
0.0611355
0.0599749
0.0599833
0.0587876
0.0587958
0.0575924
0.0576003
0.056406
0.0564137
0.0552298
0.0552373
0.0540588
0.054066
0.0528857
0.0528927
0.0517045
0.0517113
0.0505119
0.0505186
0.049307
0.0493135
0.0480906
0.0480969
0.0468642
0.0468703
0.04563
0.0456359
0.0443901
0.0443959
0.0431467
0.0431523
0.0419016
0.0419071
0.0406566
0.040662
0.0394133
0.0394184
0.0381728
0.0381778
0.0369363
0.0369412
0.0357048
0.0357095
0.034479
0.0344835
0.0332596
0.033264
0.0320474
0.0320517
0.0308431
0.0308472
0.0296474
0.0296513
0.0284609
0.0284647
0.0272845
0.0272882
0.0261188
0.0261223
0.0249646
0.0249679
0.0238224
0.0238256
0.0226928
0.0226959
0.0215766
0.0215796
0.0204743
0.0204771
0.0193865
0.0193892
0.0183138
0.0183164
0.0172569
0.0172593
0.0162162
0.0162185
0.0151926
0.0151948
0.0141867
0.0141887
0.0131992
0.0132011
0.0122308
0.0122326
0.0112823
0.0112839
0.0103545
0.010356
0.00944831
0.00944976
0.0085647
0.00856604
0.0077047
0.00770593
0.00686948
0.00687061
0.0060604
0.00606143
0.00527902
0.00527995
0.0045272
0.00452803
0.00380722
0.00380796
0.00312196
0.00312261
0.00247521
0.00247576
0.00187217
0.00187263
0.00132059
0.00132096
0.000832814
0.00083309
0.000430403
0.000430584
0.000150294
0.000150379
2.45595e-05
2.45775e-05
1.2001e-06
1.20104e-06
7.29547e-09
7.30156e-09
)
;

boundaryField
{
    walls
    {
        type            nutUWallFunction;
        blending        stepwise;
        Cmu             0.09;
        kappa           0.41;
        E               9.8;
        value           uniform 0;
    }
    inlet
    {
        type            cyclic;
    }
    outlet
    {
        type            cyclic;
    }
    sides
    {
        type            empty;
    }
}


// ************************************************************************* //
