/*--------------------------------*- C++ -*----------------------------------*\
| =========                 |                                                 |
| \\      /  F ield         | OpenFOAM: The Open Source CFD Toolbox           |
|  \\    /   O peration     | Version:  2012                                  |
|   \\  /    A nd           | Website:  www.openfoam.com                      |
|    \\/     M anipulation  |                                                 |
\*---------------------------------------------------------------------------*/
FoamFile
{
    version     2.0;
    format      ascii;
    class       volScalarField;
    location    "11600";
    object      omega;
}
// * * * * * * * * * * * * * * * * * * * * * * * * * * * * * * * * * * * * * //

dimensions      [0 0 -1 0 0 0 0];


internalField   nonuniform List<scalar> 
2560
(
1.52417e+06
1.52417e+06
264227
264229
87633
87636
41126.4
41127.5
24929.2
24929.2
17796.1
17795.6
13954
13953.4
11574.7
11574.1
9957.01
9956.45
8783.5
8782.97
7891.47
7890.98
7189.19
7188.72
6621.08
6620.64
6151.5
6151.09
5756.52
5756.13
5419.47
5419.11
5128.37
5128.03
4874.38
4874.06
4650.84
4650.53
4452.62
4452.32
4275.7
4275.42
4116.89
4116.62
3973.62
3973.36
3843.81
3843.56
3725.74
3725.49
3617.97
3617.73
3519.32
3519.09
3428.78
3428.55
3345.49
3345.27
3268.73
3268.51
3197.86
3197.65
3132.35
3132.14
3071.72
3071.52
3015.55
3015.36
2963.49
2963.29
2915.19
2915
2870.37
2870.18
2828.77
2828.58
2790.15
2789.96
2754.3
2754.12
2721.05
2720.86
2690.22
2690.04
2661.67
2661.48
2635.24
2635.06
2610.82
2610.64
2588.26
2588.07
2567.41
2567.23
2548.13
2547.95
2530.27
2530.09
2513.67
2513.48
2498.16
2497.97
2483.59
2483.4
2469.8
2469.61
2456.69
2456.5
2444.17
2443.97
2432.28
2432.08
2421.17
2420.96
2411.14
2410.93
2402.56
2402.34
2395.7
2395.47
2390.53
2390.3
2386.34
2386.11
2381.93
2381.69
2375.68
2375.43
2365.92
2365.68
2351.34
2351.1
2331.23
2331
2305.61
2305.39
2275.09
2274.88
2240.67
2240.49
2203.54
2203.37
2164.82
2164.66
2125.5
2125.35
2086.33
2086.19
2047.84
2047.7
2010.34
2010.21
1973.99
1973.87
1938.79
1938.67
1904.61
1904.5
1871.31
1871.2
1838.68
1838.58
1806.54
1806.45
1774.71
1774.63
1743.03
1742.96
1711.38
1711.33
1679.66
1679.61
1647.79
1647.75
1615.72
1615.68
1583.42
1583.39
1550.89
1550.87
1518.16
1518.15
1485.3
1485.29
1452.4
1452.39
1419.55
1419.55
1386.91
1386.9
1354.59
1354.59
1322.74
1322.73
1291.45
1291.45
1260.81
1260.8
1230.86
1230.86
1201.63
1201.63
1173.11
1173.11
1145.28
1145.28
1118.12
1118.12
1091.61
1091.61
1065.73
1065.73
1040.48
1040.48
1015.86
1015.87
991.903
991.905
968.603
968.605
945.967
945.969
923.989
923.991
902.641
902.643
881.879
881.882
861.642
861.645
841.858
841.862
822.451
822.454
803.348
803.353
784.499
784.503
765.873
765.878
747.473
747.478
729.329
729.334
711.495
711.5
694.036
694.041
677.014
677.019
660.479
660.484
644.463
644.468
628.963
628.968
613.958
613.963
599.409
599.414
585.273
585.278
571.508
571.512
558.08
558.084
544.967
544.971
532.159
532.163
519.652
519.656
507.45
507.454
495.558
495.562
483.982
483.986
472.724
472.727
461.783
461.786
451.155
451.158
440.833
440.836
430.805
430.808
421.059
421.062
411.582
411.584
402.358
402.361
393.376
393.379
384.626
384.629
376.102
376.104
367.8
367.802
359.723
359.725
351.874
351.875
344.259
344.261
336.888
336.889
329.768
329.769
322.907
322.907
316.311
316.311
309.983
309.983
303.928
303.927
298.143
298.142
292.627
292.626
287.373
287.371
282.373
282.37
277.613
277.61
273.077
273.073
268.742
268.738
264.582
264.577
260.564
260.558
256.65
256.644
252.8
252.793
248.971
248.964
245.125
245.118
241.228
241.221
237.254
237.248
233.193
233.188
229.05
229.047
224.845
224.844
220.611
220.612
216.394
216.395
212.245
212.246
208.213
208.214
204.341
204.342
200.661
200.661
197.184
197.184
193.906
193.906
190.803
190.803
187.837
187.836
184.963
184.962
182.134
182.134
179.306
179.307
176.445
176.447
173.525
173.529
170.531
170.536
167.458
167.463
164.313
164.317
161.107
161.111
157.859
157.863
154.591
154.595
151.326
151.329
148.084
148.087
144.887
144.89
141.753
141.755
138.698
138.7
135.734
135.736
132.872
132.874
130.121
130.122
127.486
127.488
124.973
124.974
122.582
122.583
120.315
120.316
118.171
118.171
116.143
116.144
114.226
114.226
112.406
112.406
110.669
110.668
108.993
108.993
107.356
107.356
105.73
105.729
104.086
104.085
102.398
102.397
100.643
100.642
98.8029
98.8016
96.8705
96.869
94.8475
94.8461
92.7467
92.7455
90.5916
90.5909
88.4105
88.4103
86.233
86.233
84.0865
84.0867
81.9933
81.9935
79.9678
79.9679
78.0117
78.0117
76.1188
76.1187
74.2765
74.2764
72.4699
72.47
70.686
70.6863
68.9164
68.9169
67.1577
67.1583
65.4112
65.4118
63.6834
63.684
61.9831
61.9836
60.319
60.3194
58.6983
58.6987
57.1257
57.126
55.6035
55.6037
54.1319
54.1321
52.7104
52.7106
51.3377
51.3378
50.0128
50.013
48.7352
48.7353
47.5043
47.5044
46.3198
46.3199
45.1808
45.1809
44.0862
44.0863
43.0344
43.0345
42.0235
42.0236
41.0514
41.0515
40.116
40.116
39.2152
39.2152
38.3475
38.3475
37.5115
37.5116
36.7065
36.7065
35.9319
35.932
35.1876
35.1876
34.4736
34.4736
33.7899
33.7899
33.1366
33.1367
32.5136
32.5136
31.9204
31.9204
31.3565
31.3565
30.8209
30.8209
30.3129
30.3129
29.8314
29.8314
29.3756
29.3756
28.9446
28.9446
28.5377
28.5377
28.1542
28.1542
27.7932
27.7932
27.4543
27.4543
27.1366
27.1366
26.8396
26.8396
26.5625
26.5625
26.3049
26.3049
26.0659
26.0659
25.8452
25.8452
25.6421
25.6421
25.4564
25.4564
25.2877
25.2877
25.1359
25.1359
25.0009
25.0009
24.8827
24.8827
24.7811
24.7811
24.6961
24.6961
24.6275
24.6275
24.5749
24.5749
24.5382
24.5382
24.5171
24.5171
24.5112
24.5112
24.5206
24.5206
24.5452
24.5452
24.5851
24.5851
24.6405
24.6405
24.7119
24.7119
24.7995
24.7995
24.9039
24.9039
25.0254
25.0254
25.1647
25.1647
25.3221
25.3221
25.4981
25.4981
25.6934
25.6934
25.9082
25.9082
26.1428
26.1428
26.3973
26.3973
26.6707
26.6707
26.9599
26.9599
27.2567
27.2567
27.5406
27.5406
27.7632
27.7632
27.7359
27.7359
1.52417e+06
1.52417e+06
264229
264226
87636
87633
41127.5
41126.4
24929.2
24929.2
17795.6
17796.1
13953.4
13954
11574.1
11574.7
9956.44
9957.01
8782.97
8783.5
7890.98
7891.47
7188.72
7189.19
6620.64
6621.08
6151.09
6151.5
5756.13
5756.52
5419.11
5419.47
5128.03
5128.37
4874.06
4874.38
4650.53
4650.84
4452.32
4452.62
4275.42
4275.7
4116.62
4116.89
3973.36
3973.63
3843.56
3843.81
3725.49
3725.74
3617.73
3617.97
3519.09
3519.32
3428.55
3428.78
3345.27
3345.49
3268.51
3268.73
3197.65
3197.86
3132.14
3132.35
3071.52
3071.72
3015.36
3015.55
2963.29
2963.49
2915
2915.19
2870.18
2870.37
2828.58
2828.77
2789.96
2790.15
2754.12
2754.3
2720.86
2721.05
2690.04
2690.22
2661.48
2661.67
2635.06
2635.25
2610.64
2610.82
2588.07
2588.26
2567.23
2567.41
2547.95
2548.13
2530.09
2530.27
2513.48
2513.67
2497.97
2498.16
2483.4
2483.59
2469.61
2469.8
2456.5
2456.69
2443.97
2444.17
2432.08
2432.28
2420.96
2421.17
2410.93
2411.14
2402.34
2402.56
2395.47
2395.7
2390.3
2390.53
2386.11
2386.35
2381.69
2381.93
2375.43
2375.68
2365.68
2365.92
2351.1
2351.34
2331
2331.23
2305.39
2305.61
2274.89
2275.09
2240.49
2240.68
2203.37
2203.54
2164.66
2164.82
2125.35
2125.5
2086.19
2086.33
2047.7
2047.84
2010.21
2010.34
1973.87
1973.99
1938.67
1938.79
1904.5
1904.61
1871.2
1871.31
1838.58
1838.68
1806.45
1806.54
1774.63
1774.71
1742.96
1743.03
1711.33
1711.38
1679.61
1679.66
1647.75
1647.79
1615.68
1615.72
1583.39
1583.42
1550.87
1550.89
1518.15
1518.16
1485.29
1485.3
1452.39
1452.4
1419.55
1419.55
1386.9
1386.91
1354.59
1354.59
1322.73
1322.74
1291.45
1291.45
1260.8
1260.81
1230.86
1230.86
1201.63
1201.63
1173.11
1173.11
1145.28
1145.28
1118.12
1118.12
1091.61
1091.61
1065.73
1065.73
1040.48
1040.48
1015.87
1015.86
991.905
991.903
968.605
968.603
945.969
945.967
923.991
923.989
902.643
902.641
881.882
881.879
861.645
861.642
841.862
841.858
822.454
822.451
803.353
803.348
784.503
784.499
765.878
765.873
747.478
747.473
729.334
729.329
711.5
711.495
694.041
694.036
677.019
677.014
660.484
660.479
644.467
644.463
628.968
628.963
613.962
613.958
599.413
599.409
585.277
585.273
571.512
571.508
558.084
558.08
544.971
544.967
532.162
532.158
519.655
519.651
507.453
507.449
495.562
495.558
483.985
483.982
472.727
472.724
461.786
461.783
451.158
451.155
440.835
440.832
430.808
430.804
421.062
421.059
411.584
411.581
402.36
402.358
393.378
393.376
384.628
384.626
376.104
376.101
367.802
367.8
359.724
359.722
351.875
351.873
344.26
344.259
336.889
336.888
329.769
329.768
322.907
322.906
316.31
316.31
309.983
309.983
303.927
303.927
298.142
298.143
292.625
292.626
287.371
287.373
282.369
282.372
277.609
277.612
273.072
273.076
268.737
268.742
264.577
264.582
260.558
260.563
256.643
256.649
252.792
252.799
248.964
248.971
245.117
245.125
241.22
241.228
237.247
237.254
233.188
233.193
229.047
229.05
224.844
224.845
220.612
220.611
216.395
216.394
212.245
212.244
208.213
208.212
204.342
204.341
200.661
200.66
197.183
197.183
193.905
193.906
190.802
190.802
187.835
187.836
184.961
184.962
182.133
182.133
179.306
179.305
176.446
176.444
173.528
173.524
170.535
170.53
167.463
167.458
164.317
164.312
161.111
161.106
157.863
157.859
154.595
154.591
151.329
151.325
148.087
148.084
144.89
144.887
141.755
141.753
138.699
138.697
135.735
135.733
132.873
132.872
130.122
130.121
127.487
127.486
124.973
124.972
122.582
122.581
120.315
120.315
118.17
118.17
116.143
116.142
114.225
114.225
112.405
112.405
110.667
110.667
108.992
108.992
107.354
107.355
105.728
105.729
104.084
104.085
102.396
102.397
100.641
100.642
98.8008
98.8024
96.8684
96.8702
94.8457
94.8474
92.7453
92.7468
90.5909
90.5918
88.4104
88.4108
86.2332
86.2332
84.0868
84.0867
81.9935
81.9935
79.9679
79.9678
78.0115
78.0116
76.1184
76.1186
74.2761
74.2763
72.4697
72.4697
70.6861
70.6857
68.9167
68.9161
67.1583
67.1575
65.4118
65.4111
63.6841
63.6834
61.9837
61.9831
60.3196
60.3191
58.6989
58.6984
57.1262
57.1258
55.6039
55.6035
54.1322
54.132
52.7106
52.7104
51.3379
51.3377
50.013
50.0128
48.7353
48.7352
47.5044
47.5043
46.3199
46.3197
45.1808
45.1807
44.0862
44.0861
43.0344
43.0343
42.0235
42.0234
41.0514
41.0513
40.1159
40.1159
39.2152
39.2151
38.3475
38.3474
37.5116
37.5115
36.7066
36.7065
35.932
35.9319
35.1877
35.1876
34.4736
34.4736
33.79
33.7899
33.1367
33.1367
32.5137
32.5137
31.9205
31.9205
31.3565
31.3565
30.821
30.8209
30.3129
30.3129
29.8314
29.8314
29.3756
29.3756
28.9446
28.9446
28.5377
28.5377
28.1542
28.1542
27.7932
27.7932
27.4543
27.4543
27.1366
27.1366
26.8396
26.8396
26.5625
26.5625
26.3049
26.3049
26.0659
26.0659
25.8452
25.8452
25.6421
25.6421
25.4564
25.4564
25.2877
25.2877
25.1359
25.1359
25.0009
25.0009
24.8827
24.8827
24.7811
24.7811
24.6961
24.6961
24.6275
24.6275
24.5749
24.5749
24.5382
24.5382
24.517
24.517
24.5112
24.5112
24.5206
24.5206
24.5452
24.5452
24.5851
24.5851
24.6405
24.6405
24.7119
24.7119
24.7995
24.7995
24.9038
24.9039
25.0254
25.0254
25.1646
25.1646
25.322
25.322
25.4981
25.4981
25.6933
25.6933
25.908
25.908
26.1427
26.1427
26.3971
26.3971
26.6704
26.6704
26.9595
26.9595
27.2562
27.2562
27.54
27.54
27.7626
27.7625
27.7354
27.7354
27.7359
27.7359
27.7632
27.7632
27.5407
27.5407
27.2568
27.2568
26.96
26.96
26.6709
26.6709
26.3975
26.3975
26.143
26.143
25.9083
25.9083
25.6935
25.6935
25.4983
25.4983
25.3222
25.3222
25.1648
25.1648
25.0255
25.0255
24.9039
24.9039
24.7996
24.7996
24.712
24.712
24.6406
24.6406
24.5852
24.5852
24.5452
24.5452
24.5206
24.5206
24.5113
24.5113
24.5171
24.5171
24.5383
24.5383
24.575
24.575
24.6275
24.6275
24.6961
24.6961
24.781
24.781
24.8826
24.8826
25.0008
25.0008
25.1358
25.1358
25.2876
25.2876
25.4562
25.4562
25.6419
25.6419
25.8449
25.8449
26.0656
26.0656
26.3044
26.3044
26.562
26.562
26.839
26.839
27.136
27.136
27.4536
27.4536
27.7925
27.7925
28.1534
28.1534
28.5369
28.5369
28.9437
28.9437
29.3746
29.3746
29.8303
29.8303
30.3117
30.3117
30.8196
30.8196
31.3551
31.3551
31.919
31.919
32.5121
32.5121
33.135
33.135
33.7881
33.7882
34.4717
34.4717
35.1856
35.1856
35.9298
35.9298
36.7043
36.7043
37.5092
37.5092
38.345
38.345
39.2125
39.2125
40.1131
40.1131
41.0484
41.0485
42.0204
42.0205
43.0312
43.0313
44.0829
44.083
45.1774
45.1775
46.3163
46.3164
47.5008
47.5009
48.7315
48.7316
50.009
50.0091
51.3337
51.3339
52.7063
52.7065
54.1278
54.128
55.5992
55.5995
57.1214
57.1217
58.6939
58.6943
60.3145
60.3149
61.9785
61.979
63.6789
63.6795
65.4069
65.4076
67.1537
67.1543
68.9127
68.9132
70.6826
70.6829
72.4667
72.4668
74.2736
74.2735
76.116
76.1159
78.0091
78.009
79.9653
79.9653
81.9909
81.991
84.0842
84.0844
86.2309
86.2309
88.4087
88.4084
90.5902
90.5894
92.7457
92.7444
94.8468
94.8452
96.8697
96.8682
98.802
98.8006
100.642
100.64
102.397
102.396
104.085
104.084
105.728
105.727
107.354
107.354
108.992
108.991
110.667
110.666
112.404
112.404
114.223
114.223
116.14
116.141
118.167
118.168
120.312
120.312
122.578
122.579
124.969
124.97
127.482
127.483
130.116
130.118
132.867
132.869
135.728
135.73
138.692
138.694
141.747
141.749
144.88
144.883
148.077
148.08
151.318
151.322
154.584
154.588
157.851
157.856
161.098
161.103
164.304
164.309
167.449
167.454
170.521
170.526
173.515
173.519
176.434
176.437
179.295
179.296
182.122
182.122
184.951
184.95
187.824
187.824
190.79
190.79
193.894
193.893
197.17
197.171
200.647
200.648
204.328
204.328
208.199
208.2
212.23
212.232
216.38
216.381
220.597
220.597
224.83
224.829
229.035
229.032
233.178
233.173
237.239
237.232
241.212
241.205
245.109
245.101
248.955
248.947
252.782
252.775
256.632
256.626
260.545
260.54
264.563
264.558
268.722
268.718
273.056
273.052
277.591
277.588
282.35
282.348
287.35
287.348
292.603
292.602
298.118
298.117
303.902
303.901
309.957
309.956
316.282
316.283
322.878
322.878
329.738
329.739
336.857
336.858
344.226
344.228
351.839
351.841
359.687
359.689
367.763
367.765
376.062
376.065
384.585
384.588
393.333
393.336
402.313
402.316
411.534
411.537
421.01
421.013
430.754
430.757
440.78
440.783
451.101
451.104
461.727
461.73
472.666
472.67
483.922
483.926
495.497
495.501
507.386
507.39
519.586
519.59
532.09
532.094
544.896
544.9
558.006
558.01
571.431
571.435
585.193
585.197
599.326
599.33
613.872
613.877
628.875
628.88
644.372
644.377
660.385
660.39
676.917
676.922
693.936
693.942
711.393
711.399
729.225
729.231
747.366
747.371
765.763
765.769
784.387
784.392
803.234
803.239
822.334
822.338
841.74
841.744
861.521
861.525
881.755
881.758
902.514
902.517
923.859
923.862
945.834
945.837
968.466
968.469
991.763
991.766
1015.72
1015.72
1040.33
1040.33
1065.57
1065.58
1091.45
1091.45
1117.96
1117.97
1145.12
1145.12
1172.95
1172.95
1201.46
1201.46
1230.69
1230.69
1260.63
1260.63
1291.27
1291.27
1322.56
1322.55
1354.41
1354.4
1386.72
1386.71
1419.36
1419.35
1452.2
1452.19
1485.11
1485.1
1517.97
1517.95
1550.69
1550.67
1583.22
1583.19
1615.52
1615.48
1647.58
1647.54
1679.45
1679.4
1711.16
1711.1
1742.8
1742.73
1774.47
1774.39
1806.3
1806.2
1838.43
1838.32
1871.05
1870.93
1904.35
1904.22
1938.51
1938.38
1973.71
1973.58
2010.05
2009.92
2047.54
2047.4
2086.02
2085.88
2125.19
2125.03
2164.51
2164.34
2203.23
2203.04
2240.36
2240.16
2274.77
2274.56
2305.3
2305.07
2330.93
2330.69
2351.04
2350.79
2365.63
2365.37
2375.39
2375.13
2381.64
2381.38
2386.05
2385.79
2390.24
2389.99
2395.4
2395.16
2402.26
2402.03
2410.84
2410.62
2420.87
2420.65
2431.98
2431.77
2443.88
2443.67
2456.4
2456.2
2469.52
2469.32
2483.31
2483.11
2497.89
2497.69
2513.4
2513.2
2530.01
2529.81
2547.87
2547.68
2567.15
2566.96
2588
2587.8
2610.56
2610.37
2634.99
2634.79
2661.41
2661.21
2689.96
2689.76
2720.79
2720.59
2754.04
2753.84
2789.88
2789.68
2828.49
2828.29
2870.09
2869.89
2914.9
2914.7
2963.2
2962.99
3015.25
3015.04
3071.41
3071.2
3132.03
3131.81
3197.53
3197.31
3268.39
3268.16
3345.14
3344.91
3428.42
3428.18
3518.95
3518.71
3617.59
3617.34
3725.34
3725.08
3843.4
3843.13
3973.2
3972.92
4116.45
4116.16
4275.23
4274.93
4452.13
4451.82
4650.33
4650
4873.84
4873.49
5127.8
5127.43
5418.87
5418.48
5755.88
5755.47
6150.82
6150.38
6620.35
6619.89
7188.41
7187.91
7890.64
7890.1
8782.6
8782.03
9956.02
9955.41
11573.6
11573
13952.8
13952.2
17794.9
17794.3
24928.1
24928
41125.9
41127
87633.8
87636.8
264227
264230
1.52418e+06
1.52418e+06
27.7354
27.7354
27.7626
27.7626
27.5402
27.5401
27.2563
27.2563
26.9596
26.9596
26.6706
26.6706
26.3972
26.3972
26.1428
26.1428
25.9082
25.9082
25.6934
25.6934
25.4982
25.4982
25.3221
25.3221
25.1647
25.1647
25.0255
25.0255
24.9039
24.9039
24.7996
24.7996
24.712
24.712
24.6406
24.6406
24.5851
24.5851
24.5452
24.5452
24.5206
24.5206
24.5112
24.5112
24.5171
24.5171
24.5382
24.5382
24.5749
24.5749
24.6275
24.6274
24.6961
24.6961
24.781
24.781
24.8826
24.8826
25.0008
25.0008
25.1358
25.1358
25.2876
25.2876
25.4562
25.4562
25.6419
25.6419
25.8449
25.8449
26.0656
26.0656
26.3044
26.3044
26.562
26.562
26.839
26.839
27.136
27.136
27.4536
27.4536
27.7925
27.7925
28.1534
28.1534
28.5369
28.5369
28.9437
28.9437
29.3746
29.3746
29.8303
29.8303
30.3117
30.3117
30.8197
30.8196
31.3552
31.3551
31.919
31.919
32.5121
32.5121
33.1351
33.135
33.7882
33.7882
34.4718
34.4717
35.1857
35.1856
35.9299
35.9298
36.7043
36.7043
37.5092
37.5092
38.345
38.3449
39.2125
39.2124
40.1131
40.113
41.0484
41.0483
42.0204
42.0203
43.0312
43.0311
44.0829
44.0828
45.1775
45.1774
46.3164
46.3163
47.5009
47.5007
48.7317
48.7315
50.0092
50.009
51.3339
51.3337
52.7066
52.7063
54.1281
54.1278
55.5996
55.5993
57.1219
57.1214
58.6944
58.6939
60.3151
60.3145
61.9792
61.9785
63.6796
63.6789
65.4076
65.4068
67.1543
67.1535
68.9131
68.9124
70.6826
70.6823
72.4665
72.4664
74.2732
74.2733
76.1157
76.1158
78.0089
78.0089
79.9653
79.9653
81.9911
81.991
84.0845
84.0844
86.2311
86.2311
88.4085
88.4089
90.5894
90.5903
92.7443
92.7458
94.8448
94.8467
96.8676
96.8694
98.7998
98.8015
100.639
100.641
102.395
102.396
104.083
104.084
105.726
105.727
107.353
107.353
108.99
108.99
110.665
110.665
112.402
112.403
114.222
114.222
116.14
116.139
118.167
118.167
120.312
120.311
122.578
122.578
124.969
124.968
127.483
127.481
130.117
130.116
132.868
132.867
135.73
135.728
138.694
138.691
141.749
141.746
144.883
144.88
148.08
148.077
151.322
151.318
154.587
154.583
157.855
157.851
161.103
161.098
164.308
164.303
167.454
167.448
170.526
170.521
173.518
173.514
176.436
176.433
179.295
179.294
182.121
182.121
184.949
184.95
187.823
187.823
190.789
190.79
193.892
193.893
197.17
197.17
200.647
200.647
204.328
204.327
208.199
208.198
212.231
212.23
216.381
216.38
220.597
220.596
224.829
224.83
229.032
229.035
233.173
233.178
237.232
237.239
241.204
241.212
245.101
245.109
248.946
248.954
252.775
252.782
256.625
256.632
260.539
260.545
264.557
264.563
268.717
268.722
273.052
273.056
277.588
277.591
282.347
282.35
287.347
287.35
292.601
292.603
298.117
298.118
303.901
303.902
309.956
309.956
316.282
316.282
322.878
322.877
329.738
329.737
336.857
336.856
344.228
344.226
351.841
351.839
359.688
359.687
367.765
367.762
376.064
376.062
384.587
384.585
393.335
393.333
402.315
402.313
411.537
411.534
421.013
421.01
430.757
430.754
440.783
440.78
451.104
451.1
461.73
461.726
472.669
472.666
483.926
483.922
495.501
495.497
507.39
507.386
519.59
519.586
532.094
532.09
544.9
544.896
558.01
558.006
571.435
571.431
585.197
585.193
599.33
599.326
613.877
613.872
628.88
628.875
644.377
644.372
660.391
660.385
676.923
676.917
693.942
693.937
711.399
711.394
729.231
729.226
747.372
747.367
765.769
765.764
784.392
784.388
803.239
803.235
822.338
822.335
841.744
841.74
861.525
861.522
881.759
881.756
902.518
902.515
923.862
923.86
945.837
945.835
968.469
968.467
991.766
991.764
1015.72
1015.72
1040.33
1040.33
1065.58
1065.58
1091.45
1091.45
1117.97
1117.97
1145.12
1145.12
1172.95
1172.95
1201.46
1201.46
1230.69
1230.69
1260.63
1260.63
1291.27
1291.27
1322.55
1322.56
1354.4
1354.41
1386.71
1386.72
1419.36
1419.36
1452.19
1452.2
1485.1
1485.11
1517.95
1517.97
1550.67
1550.7
1583.19
1583.22
1615.48
1615.52
1647.54
1647.59
1679.4
1679.45
1711.1
1711.17
1742.73
1742.81
1774.39
1774.48
1806.2
1806.3
1838.32
1838.43
1870.93
1871.05
1904.23
1904.35
1938.39
1938.52
1973.58
1973.71
2009.92
2010.06
2047.4
2047.54
2085.88
2086.03
2125.04
2125.19
2164.35
2164.52
2203.05
2203.23
2240.16
2240.36
2274.56
2274.78
2305.07
2305.31
2330.69
2330.94
2350.79
2351.05
2365.37
2365.63
2375.13
2375.39
2381.38
2381.64
2385.79
2386.05
2389.99
2390.24
2395.17
2395.41
2402.03
2402.27
2410.62
2410.85
2420.65
2420.88
2431.77
2431.99
2443.67
2443.88
2456.2
2456.41
2469.32
2469.53
2483.12
2483.32
2497.69
2497.9
2513.21
2513.41
2529.81
2530.01
2547.68
2547.88
2566.96
2567.16
2587.81
2588
2610.37
2610.57
2634.8
2634.99
2661.22
2661.41
2689.77
2689.97
2720.59
2720.79
2753.84
2754.04
2789.68
2789.88
2828.3
2828.5
2869.89
2870.1
2914.7
2914.91
2962.99
2963.2
3015.05
3015.26
3071.2
3071.42
3131.82
3132.04
3197.32
3197.54
3268.17
3268.4
3344.91
3345.15
3428.19
3428.43
3518.71
3518.96
3617.34
3617.6
3725.09
3725.35
3843.14
3843.41
3972.92
3973.21
4116.16
4116.45
4274.94
4275.24
4451.82
4452.14
4650
4650.34
4873.5
4873.85
5127.44
5127.81
5418.48
5418.88
5755.47
5755.89
6150.39
6150.83
6619.89
6620.36
7187.92
7188.42
7890.11
7890.65
8782.03
8782.61
9955.42
9956.03
11573
11573.7
13952.2
13952.8
17794.3
17794.9
24928
24928.1
41127
41125.9
87636.8
87633.7
264230
264227
1.52418e+06
1.52418e+06
)
;

boundaryField
{
    walls
    {
        blending        binomial2;
        n               2;
        beta1           0.075;
        type            omegaWallFunction;
        value           nonuniform List<scalar> 8(1.52417e+06 1.52417e+06 1.52417e+06 1.52417e+06 1.52418e+06 1.52418e+06 1.52418e+06 1.52418e+06);
    }
    inlet
    {
        type            cyclic;
    }
    outlet
    {
        type            cyclic;
    }
    sides
    {
        type            empty;
    }
}


// ************************************************************************* //
