/*--------------------------------*- C++ -*----------------------------------*\
| =========                 |                                                 |
| \\      /  F ield         | OpenFOAM: The Open Source CFD Toolbox           |
|  \\    /   O peration     | Version:  2012                                  |
|   \\  /    A nd           | Website:  www.openfoam.com                      |
|    \\/     M anipulation  |                                                 |
\*---------------------------------------------------------------------------*/
FoamFile
{
    version     2.0;
    format      ascii;
    class       surfaceScalarField;
    location    "11600";
    object      phi;
}
// * * * * * * * * * * * * * * * * * * * * * * * * * * * * * * * * * * * * * //

dimensions      [0 3 -1 0 0 0 0];
oriented        oriented;


internalField   nonuniform List<scalar> 
5116
(
2.0729e-07
-2.16293e-08
7.24083e-09
2.16522e-08
-7.21217e-09
6.2062e-07
-5.34049e-08
1.06275e-08
5.34324e-08
-1.05855e-08
1.04425e-06
-7.70754e-08
7.90498e-09
7.70673e-08
-7.87374e-09
1.48389e-06
-8.99001e-08
4.29386e-09
8.99076e-08
-4.2769e-09
1.94254e-06
-9.68349e-08
2.30684e-09
9.6804e-08
-2.29772e-09
2.42023e-06
-1.01051e-07
1.41472e-09
1.01035e-07
-1.40913e-09
2.91655e-06
-1.04018e-07
9.8049e-10
1.03966e-07
-9.76615e-10
3.43125e-06
-1.06221e-07
7.4059e-10
1.06181e-07
-7.37662e-10
3.96418e-06
-1.08021e-07
5.93403e-10
1.07955e-07
-5.91056e-10
4.51577e-06
-1.09538e-07
4.95775e-10
1.0944e-07
-4.93813e-10
5.0871e-06
-1.10823e-07
4.27166e-10
1.10716e-07
-4.25473e-10
5.67885e-06
-1.11989e-07
3.76799e-10
1.11846e-07
-3.75306e-10
6.2918e-06
-1.12995e-07
3.38557e-10
1.12858e-07
-3.37217e-10
6.92702e-06
-1.13911e-07
3.08556e-10
1.13783e-07
-3.07338e-10
7.58499e-06
-1.14757e-07
2.85027e-10
1.14635e-07
-2.83904e-10
8.26544e-06
-1.15534e-07
2.65395e-10
1.15429e-07
-2.64349e-10
8.96763e-06
-1.16279e-07
2.50105e-10
1.16176e-07
-2.4912e-10
9.69073e-06
-1.1698e-07
2.36968e-10
1.16886e-07
-2.36034e-10
1.04352e-05
-1.17657e-07
2.26148e-10
1.17562e-07
-2.25257e-10
1.12035e-05
-1.18304e-07
2.16867e-10
1.18213e-07
-2.16011e-10
1.19992e-05
-1.18931e-07
2.09185e-10
1.18838e-07
-2.08359e-10
1.28248e-05
-1.19538e-07
2.02494e-10
1.19448e-07
-2.01695e-10
1.36813e-05
-1.20128e-07
1.9698e-10
1.20037e-07
-1.96202e-10
1.45693e-05
-1.20703e-07
1.91608e-10
1.20613e-07
-1.90849e-10
1.54893e-05
-1.21267e-07
1.88209e-10
1.21176e-07
-1.87466e-10
1.6442e-05
-1.21819e-07
1.84102e-10
1.21727e-07
-1.83372e-10
1.74281e-05
-1.22364e-07
1.82026e-10
1.22272e-07
-1.81308e-10
1.84482e-05
-1.22902e-07
1.7952e-10
1.2281e-07
-1.78811e-10
1.95023e-05
-1.23434e-07
1.77834e-10
1.23343e-07
-1.77134e-10
2.05905e-05
-1.23962e-07
1.76155e-10
1.23871e-07
-1.75461e-10
2.17139e-05
-1.24486e-07
1.7524e-10
1.24396e-07
-1.74551e-10
2.28754e-05
-1.25008e-07
1.74257e-10
1.2492e-07
-1.73571e-10
2.40807e-05
-1.25528e-07
1.73975e-10
1.25441e-07
-1.73291e-10
2.5338e-05
-1.26048e-07
1.73593e-10
1.25967e-07
-1.72911e-10
2.66568e-05
-1.26568e-07
1.73851e-10
1.26488e-07
-1.73169e-10
2.80462e-05
-1.27086e-07
1.7312e-10
1.27013e-07
-1.72436e-10
2.95135e-05
-1.27609e-07
1.74769e-10
1.27537e-07
-1.74084e-10
3.10637e-05
-1.28122e-07
1.7151e-10
1.28056e-07
-1.70822e-10
3.26994e-05
-1.28651e-07
1.76745e-10
1.28583e-07
-1.76054e-10
3.44219e-05
-1.29168e-07
1.72631e-10
1.29102e-07
-1.71936e-10
3.62325e-05
-1.29706e-07
1.79774e-10
1.29638e-07
-1.79073e-10
3.81358e-05
-1.30236e-07
1.77148e-10
1.30168e-07
-1.76441e-10
4.01421e-05
-1.30786e-07
1.83787e-10
1.30717e-07
-1.83073e-10
4.22706e-05
-1.31337e-07
1.84073e-10
1.31269e-07
-1.83352e-10
4.45496e-05
-1.31902e-07
1.88694e-10
1.31833e-07
-1.87965e-10
4.70141e-05
-1.32472e-07
1.90525e-10
1.3241e-07
-1.89787e-10
4.97012e-05
-1.33054e-07
1.94472e-10
1.32992e-07
-1.93724e-10
5.26453e-05
-1.33641e-07
1.96192e-10
1.33598e-07
-1.95433e-10
5.58749e-05
-1.34243e-07
2.01174e-10
1.34202e-07
-2.00403e-10
5.94118e-05
-1.34811e-07
1.89622e-10
1.3478e-07
-1.88839e-10
6.32724e-05
-1.35437e-07
2.09249e-10
1.35402e-07
-2.08453e-10
6.74647e-05
-1.36051e-07
2.05301e-10
1.3601e-07
-2.04491e-10
7.19799e-05
-1.36706e-07
2.1859e-10
1.36656e-07
-2.17765e-10
7.67756e-05
-1.37369e-07
2.21486e-10
1.37314e-07
-2.20645e-10
8.17519e-05
-1.38055e-07
2.2914e-10
1.37994e-07
-2.28282e-10
8.67241e-05
-1.38746e-07
2.30979e-10
1.38683e-07
-2.30103e-10
9.14036e-05
-1.39468e-07
2.40993e-10
1.39401e-07
-2.40098e-10
9.53956e-05
-1.40189e-07
2.4084e-10
1.4012e-07
-2.39925e-10
9.82267e-05
-1.4095e-07
2.54122e-10
1.40878e-07
-2.53187e-10
9.94038e-05
-1.41705e-07
2.52414e-10
1.41633e-07
-2.51457e-10
9.8495e-05
-1.42509e-07
2.68495e-10
1.42433e-07
-2.67516e-10
9.52166e-05
-1.43311e-07
2.67818e-10
1.43233e-07
-2.66816e-10
8.95008e-05
-1.44163e-07
2.84535e-10
1.44077e-07
-2.83508e-10
8.15241e-05
-1.45026e-07
2.88246e-10
1.44933e-07
-2.87192e-10
7.16882e-05
-1.45935e-07
3.03387e-10
1.45832e-07
-3.02304e-10
6.05565e-05
-1.46871e-07
3.1268e-10
1.46756e-07
-3.11563e-10
4.87699e-05
-1.47818e-07
3.1638e-10
1.47694e-07
-3.15225e-10
3.69601e-05
-1.48811e-07
3.3154e-10
1.48684e-07
-3.30344e-10
2.56805e-05
-1.49816e-07
3.35547e-10
1.49655e-07
-3.34305e-10
1.53664e-05
-1.50878e-07
3.54713e-10
1.50724e-07
-3.53422e-10
6.3239e-06
-1.51958e-07
3.60693e-10
1.51781e-07
-3.59348e-10
-1.25967e-06
-1.53101e-07
3.81669e-10
1.52933e-07
-3.80267e-10
-7.29312e-06
-1.53097e-07
-2.29426e-13
1.52938e-07
1.69075e-12
-1.17551e-05
-1.53105e-07
3.20341e-12
1.52954e-07
-1.6792e-12
-1.46749e-05
-1.53101e-07
-1.75014e-13
1.52957e-07
1.76474e-12
-1.61157e-05
-1.53107e-07
2.60627e-12
1.52968e-07
-9.48509e-13
-1.61654e-05
-1.53103e-07
-1.4634e-13
1.52967e-07
1.87457e-12
-1.49307e-05
-1.53106e-07
1.83722e-12
1.52973e-07
-3.60208e-14
-1.25317e-05
-1.53102e-07
-1.40384e-13
1.5297e-07
2.01717e-12
-9.09657e-06
-1.53103e-07
1.11668e-12
1.52971e-07
8.38547e-13
-4.75561e-06
-1.53099e-07
-1.48995e-13
1.52965e-07
2.18575e-12
3.64173e-07
-1.53097e-07
4.83188e-13
1.52962e-07
1.63852e-12
6.14504e-06
-1.53093e-07
-1.65008e-13
1.52955e-07
2.37537e-12
1.24821e-05
-1.53089e-07
3.13706e-15
1.52949e-07
2.30001e-12
1.92837e-05
-1.53085e-07
-1.81061e-13
1.52941e-07
2.58146e-12
2.64696e-05
-1.5308e-07
-3.78285e-13
1.52931e-07
2.88083e-12
3.39657e-05
-1.53075e-07
-2.10169e-13
1.52922e-07
2.82015e-12
4.16988e-05
-1.5307e-07
-1.9141e-13
1.5291e-07
2.91447e-12
4.95896e-05
-1.53065e-07
-2.20372e-13
1.52902e-07
3.06273e-12
5.75478e-05
-1.5306e-07
-2.018e-13
1.52889e-07
3.1699e-12
6.54682e-05
-1.53054e-07
-2.27947e-13
1.5288e-07
3.32881e-12
7.32308e-05
-1.53048e-07
-2.09552e-13
1.52868e-07
3.45038e-12
8.07031e-05
-1.53042e-07
-2.33072e-13
1.52858e-07
3.62159e-12
8.7747e-05
-1.53036e-07
-2.14743e-13
1.52846e-07
3.75873e-12
9.42276e-05
-1.53029e-07
-2.3548e-13
1.52835e-07
3.94313e-12
0.000100023
-1.53022e-07
-2.16946e-13
1.52822e-07
4.09638e-12
0.000105037
-1.53015e-07
-2.34726e-13
1.5281e-07
4.29442e-12
0.000109205
-1.53008e-07
-2.15709e-13
1.52796e-07
4.46398e-12
0.000112504
-1.53e-07
-2.30387e-13
1.52783e-07
4.67596e-12
0.000114954
-1.52992e-07
-2.10715e-13
1.52768e-07
4.86215e-12
0.000116618
-1.52983e-07
-2.22257e-13
1.52754e-07
5.0887e-12
0.000117596
-1.52974e-07
-2.01832e-13
1.52738e-07
5.29233e-12
0.000118022
-1.52965e-07
-2.10247e-13
1.52723e-07
5.53464e-12
0.000118052
-1.52955e-07
-1.88965e-13
1.52705e-07
5.757e-12
0.000117859
-1.52945e-07
-1.9422e-13
1.52688e-07
6.01659e-12
0.000117622
-1.52934e-07
-1.71863e-13
1.52669e-07
6.25902e-12
0.000117521
-1.52923e-07
-1.73769e-13
1.52651e-07
6.53719e-12
0.000117729
-1.52912e-07
-1.49915e-13
1.52631e-07
6.80055e-12
0.000118407
-1.529e-07
-1.48033e-13
1.52611e-07
7.098e-12
0.000119703
-1.52887e-07
-1.2198e-13
1.52589e-07
7.38252e-12
0.000121743
-1.52874e-07
-1.15543e-13
1.52567e-07
7.69936e-12
0.000124629
-1.52861e-07
-8.6258e-14
1.52544e-07
8.00489e-12
0.000128433
-1.52846e-07
-7.41152e-14
1.5252e-07
8.3412e-12
0.00013319
-1.52832e-07
-4.01977e-14
1.52495e-07
8.66805e-12
0.000138893
-1.52817e-07
-2.07806e-14
1.5247e-07
9.02477e-12
0.000145488
-1.52801e-07
1.95473e-14
1.52443e-07
9.37442e-12
0.000152872
-1.52784e-07
4.82133e-14
1.52416e-07
9.75381e-12
0.000160892
-1.52767e-07
9.7095e-14
1.52387e-07
1.0129e-11
0.000169346
-1.5275e-07
1.37324e-13
1.52357e-07
1.05341e-11
0.000177999
-1.52731e-07
1.97103e-13
1.52326e-07
1.09376e-11
0.000186586
-1.52712e-07
2.51327e-13
1.52295e-07
1.13708e-11
0.000194835
-1.52693e-07
3.24263e-13
1.52261e-07
1.18039e-11
0.000202481
-1.52672e-07
3.947e-13
1.52227e-07
1.22653e-11
0.000209289
-1.52651e-07
4.82555e-13
1.52191e-07
1.27264e-11
0.000215066
-1.52629e-07
5.70834e-13
1.52155e-07
1.32136e-11
0.000219684
-1.52606e-07
6.74565e-13
1.52117e-07
1.37e-11
0.00022308
-1.52583e-07
7.81593e-13
1.52077e-07
1.42103e-11
0.000225266
-1.52559e-07
9.01372e-13
1.52036e-07
1.472e-11
0.000226321
-1.52534e-07
1.02758e-12
1.51994e-07
1.52534e-11
0.000226379
-1.52508e-07
1.16322e-12
1.51951e-07
1.57881e-11
0.000225617
-1.52481e-07
1.30911e-12
1.51906e-07
1.63478e-11
0.000224235
-1.52454e-07
1.46053e-12
1.51859e-07
1.69114e-11
0.000222432
-1.52426e-07
1.62707e-12
1.51811e-07
1.7502e-11
0.000220391
-1.52397e-07
1.79455e-12
1.51761e-07
1.80983e-11
0.000218265
-1.52367e-07
1.98335e-12
1.51709e-07
1.8723e-11
0.000216165
-1.52336e-07
2.16743e-12
1.51656e-07
1.93539e-11
0.000214153
-1.52304e-07
2.38069e-12
1.51601e-07
2.00135e-11
0.000212248
-1.52272e-07
2.58187e-12
1.51545e-07
2.06782e-11
0.000210428
-1.52238e-07
2.8222e-12
1.51486e-07
2.13718e-11
0.000208643
-1.52204e-07
3.04058e-12
1.51426e-07
2.20689e-11
0.000206821
-1.52168e-07
3.3109e-12
1.51364e-07
2.27951e-11
0.000204883
-1.52132e-07
3.54586e-12
1.51299e-07
2.35234e-11
0.000202755
-1.52094e-07
3.84938e-12
1.51233e-07
2.42819e-11
0.000200376
-1.52056e-07
4.09934e-12
1.51165e-07
2.50418e-11
0.000197706
-1.52016e-07
4.43959e-12
1.51095e-07
2.58339e-11
0.000194729
-1.51976e-07
4.70191e-12
1.51022e-07
2.66272e-11
0.000191458
-1.51934e-07
5.08304e-12
1.50948e-07
2.74557e-11
0.000187928
-1.51892e-07
5.35392e-12
1.50871e-07
2.82853e-11
0.000184197
-1.51848e-07
5.78109e-12
1.50792e-07
2.91533e-11
0.000180335
-1.51803e-07
6.05531e-12
1.50711e-07
3.00219e-11
0.000176423
-1.51757e-07
6.53506e-12
1.50627e-07
3.09309e-11
0.00017254
-1.5171e-07
6.80559e-12
1.50541e-07
3.18391e-11
0.000168762
-1.51662e-07
7.3463e-12
1.50452e-07
3.27883e-11
0.000165151
-1.51613e-07
7.60376e-12
1.50361e-07
3.37341e-11
0.000161753
-1.51562e-07
8.21609e-12
1.50267e-07
3.47193e-11
0.000158591
-1.51511e-07
8.44821e-12
1.50171e-07
3.56985e-11
0.000155667
-1.51458e-07
9.14595e-12
1.50072e-07
3.67133e-11
0.000152955
-1.51404e-07
9.33697e-12
1.4997e-07
3.77211e-11
0.000150404
-1.51349e-07
1.01375e-11
1.49866e-07
3.87586e-11
0.000147937
-1.51292e-07
1.04395e-11
1.49759e-07
3.97916e-11
0.000145452
-1.51234e-07
1.11889e-11
1.49649e-07
4.08462e-11
0.000142822
-1.51176e-07
1.17642e-11
1.49536e-07
4.19042e-11
0.0001399
-1.51116e-07
1.20124e-11
1.49421e-07
4.29747e-11
0.000136522
-1.51055e-07
1.28256e-11
1.49302e-07
4.40613e-11
0.000132513
-1.50992e-07
1.30337e-11
1.49181e-07
4.51551e-11
0.000127693
-1.50928e-07
1.39376e-11
1.49057e-07
4.62802e-11
0.00012189
-1.50863e-07
1.42041e-11
1.4893e-07
4.74145e-11
0.000114946
-1.50797e-07
1.50955e-11
1.488e-07
4.85984e-11
0.000106731
-1.50729e-07
1.54153e-11
1.48667e-07
4.98027e-11
9.71576e-05
-1.5066e-07
1.62963e-11
1.4853e-07
5.10785e-11
8.61912e-05
-1.50589e-07
1.66648e-11
1.4839e-07
5.23955e-11
7.38613e-05
-1.50517e-07
1.75381e-11
1.48246e-07
5.38084e-11
6.0271e-05
-1.50442e-07
1.79509e-11
1.48098e-07
5.52908e-11
4.56023e-05
-1.50366e-07
1.88182e-11
1.47946e-07
5.68922e-11
3.0117e-05
-1.50288e-07
1.92702e-11
1.47789e-07
5.85936e-11
1.4153e-05
-1.50207e-07
2.01307e-11
1.47628e-07
6.04286e-11
-1.88405e-06
-1.50123e-07
2.06132e-11
1.47461e-07
6.23883e-11
-1.75349e-05
-1.50037e-07
2.14739e-11
1.47289e-07
6.4457e-11
-3.23072e-05
-1.49948e-07
2.2107e-11
1.47111e-07
6.65456e-11
-4.56945e-05
-1.49857e-07
2.30753e-11
1.46927e-07
6.87262e-11
-5.72048e-05
-1.49762e-07
2.38559e-11
1.46738e-07
7.09143e-11
-6.63872e-05
-1.49666e-07
2.49129e-11
1.46542e-07
7.31655e-11
-7.28519e-05
-1.49566e-07
2.58199e-11
1.46341e-07
7.54101e-11
-7.62971e-05
-1.49463e-07
2.69314e-11
1.46134e-07
7.76972e-11
-7.65236e-05
-1.49358e-07
2.79218e-11
1.45921e-07
7.99799e-11
-7.34428e-05
-1.4925e-07
2.90638e-11
1.45701e-07
8.2309e-11
-6.70857e-05
-1.49139e-07
3.00104e-11
1.45476e-07
8.46673e-11
-5.75959e-05
-1.49026e-07
3.12583e-11
1.45243e-07
8.7107e-11
-4.5221e-05
-1.48909e-07
3.22314e-11
1.45005e-07
8.96399e-11
-3.02929e-05
-1.48789e-07
3.34834e-11
1.44758e-07
9.23073e-11
-1.3202e-05
-1.48665e-07
3.44893e-11
1.44505e-07
9.51475e-11
5.61716e-06
-1.48538e-07
3.57188e-11
1.44243e-07
9.81705e-11
2.57126e-05
-1.48406e-07
3.68158e-11
1.43974e-07
1.0136e-10
4.66388e-05
-1.48271e-07
3.82811e-11
1.43695e-07
1.0457e-10
6.797e-05
-1.48131e-07
3.96944e-11
1.43408e-07
1.07991e-10
8.93203e-05
-1.47987e-07
4.14523e-11
1.43111e-07
1.11407e-10
0.000110351
-1.47839e-07
4.32317e-11
1.42805e-07
1.15056e-10
0.000130772
-1.47688e-07
4.53185e-11
1.4249e-07
1.18653e-10
0.00015035
-1.47532e-07
4.74991e-11
1.42164e-07
1.22498e-10
0.000168906
-1.47374e-07
4.99357e-11
1.41829e-07
1.26226e-10
0.000186307
-1.4721e-07
5.25396e-11
1.41484e-07
1.30217e-10
0.000202467
-1.47044e-07
5.5333e-11
1.41128e-07
1.3401e-10
0.000217333
-1.46875e-07
5.83718e-11
1.40762e-07
1.38089e-10
0.000230878
-1.46702e-07
6.15178e-11
1.40386e-07
1.41875e-10
0.000243092
-1.46527e-07
6.49952e-11
1.4e-07
1.45985e-10
0.000253966
-1.4635e-07
6.84801e-11
1.39604e-07
1.49694e-10
0.00026348
-1.46169e-07
7.23939e-11
1.39199e-07
1.5379e-10
0.000271593
-1.45988e-07
7.61958e-11
1.38783e-07
1.57363e-10
0.000278228
-1.45804e-07
8.05384e-11
1.38358e-07
1.61413e-10
0.000283267
-1.4562e-07
8.46268e-11
1.37924e-07
1.64807e-10
0.000286543
-1.45434e-07
8.93854e-11
1.37481e-07
1.68812e-10
0.000287846
-1.45248e-07
9.37209e-11
1.37029e-07
1.72015e-10
0.000286927
-1.45061e-07
9.88787e-11
1.36568e-07
1.76016e-10
0.000283515
-1.44874e-07
1.03416e-10
1.36098e-07
1.79066e-10
0.000277339
-1.44687e-07
1.08958e-10
1.35619e-07
1.83176e-10
0.000268152
-1.445e-07
1.13654e-10
1.35132e-07
1.86185e-10
0.000255766
-1.44312e-07
1.19581e-10
1.34635e-07
1.90609e-10
0.000240074
-1.44124e-07
1.24404e-10
1.34129e-07
1.93778e-10
0.000221091
-1.43936e-07
1.30744e-10
1.33612e-07
1.98822e-10
0.000198971
-1.43747e-07
1.35686e-10
1.33084e-07
2.02432e-10
0.000174028
-1.43556e-07
1.42498e-10
1.32542e-07
2.08482e-10
0.000146745
-1.43362e-07
1.47558e-10
1.31988e-07
2.12853e-10
0.000117775
-1.43166e-07
1.54917e-10
1.31417e-07
2.20318e-10
8.79257e-05
-1.42964e-07
1.60076e-10
1.30829e-07
2.25728e-10
5.81353e-05
-1.42759e-07
1.68042e-10
1.30221e-07
2.34951e-10
2.94309e-05
-1.42545e-07
1.73219e-10
1.29592e-07
2.41534e-10
2.88159e-06
-1.42325e-07
1.81802e-10
1.28938e-07
2.52691e-10
-2.04635e-05
-1.42095e-07
1.86796e-10
1.28261e-07
2.60293e-10
-3.9654e-05
-1.41859e-07
1.96819e-10
1.27556e-07
2.72396e-10
-5.3895e-05
-1.41613e-07
2.02357e-10
1.26828e-07
2.7983e-10
-6.26218e-05
-1.41362e-07
2.13805e-10
1.2607e-07
2.92793e-10
-6.55485e-05
-1.41101e-07
2.19462e-10
1.2529e-07
2.99876e-10
-6.27016e-05
-1.40836e-07
2.32122e-10
1.24479e-07
3.13854e-10
-5.44409e-05
-1.4056e-07
2.37464e-10
1.23645e-07
3.2063e-10
-4.14238e-05
-1.4028e-07
2.51221e-10
1.22777e-07
3.36083e-10
-2.45644e-05
-1.39986e-07
2.55894e-10
1.21885e-07
3.4282e-10
-4.96599e-06
-1.39688e-07
2.70778e-10
1.20956e-07
3.60399e-10
1.6159e-05
-1.39373e-07
2.74426e-10
1.19999e-07
3.67321e-10
3.75856e-05
-1.39055e-07
2.91477e-10
1.19003e-07
3.8655e-10
5.81705e-05
-1.3872e-07
2.95163e-10
1.1798e-07
3.92325e-10
7.69274e-05
-1.38385e-07
3.15083e-10
1.16917e-07
4.13135e-10
9.31034e-05
-1.38033e-07
3.18526e-10
1.15829e-07
4.17343e-10
0.000106214
-1.37684e-07
3.4147e-10
1.14698e-07
4.39868e-10
0.000116057
-1.37317e-07
3.44103e-10
1.13545e-07
4.42019e-10
0.000122707
-1.36957e-07
3.70124e-10
1.12348e-07
4.6649e-10
0.00012649
-1.36578e-07
3.71255e-10
1.11132e-07
4.66142e-10
0.000127927
-1.36208e-07
4.00444e-10
1.09869e-07
4.92943e-10
0.000127676
-1.35819e-07
3.99368e-10
1.08591e-07
4.89685e-10
0.000126461
-1.35442e-07
4.31952e-10
1.07263e-07
5.19298e-10
0.000125001
-1.35043e-07
4.27995e-10
1.05923e-07
5.12645e-10
0.000123968
-1.34661e-07
4.64361e-10
1.04531e-07
5.45545e-10
0.000123944
-1.34253e-07
4.56882e-10
1.03131e-07
5.34843e-10
0.000125373
-1.33867e-07
4.97597e-10
1.01676e-07
5.71461e-10
0.000128558
-1.33451e-07
4.86e-10
1.00218e-07
5.55885e-10
0.00013367
-1.33064e-07
5.31826e-10
9.87028e-08
5.96655e-10
0.000140755
-1.32644e-07
5.15559e-10
9.71916e-08
5.75263e-10
0.000149747
-1.32259e-07
5.67461e-10
9.56187e-08
6.20694e-10
0.000160487
-1.31837e-07
5.45982e-10
9.40585e-08
5.92474e-10
0.000172736
-1.3146e-07
6.05096e-10
9.24329e-08
6.43203e-10
0.000186217
-1.31042e-07
5.77793e-10
9.08296e-08
6.07075e-10
0.000200601
-1.30678e-07
6.45375e-10
8.91565e-08
6.63879e-10
0.000215527
-1.30268e-07
6.11488e-10
8.75166e-08
6.18681e-10
0.000230618
-1.29925e-07
6.88858e-10
8.58019e-08
6.82494e-10
0.000245467
-1.2953e-07
6.47408e-10
8.41327e-08
6.26972e-10
0.000259692
-1.29214e-07
7.35919e-10
8.23825e-08
6.989e-10
0.000272932
-1.28841e-07
6.8567e-10
8.06913e-08
6.31728e-10
0.000284856
-1.28561e-07
7.86706e-10
7.89116e-08
7.13088e-10
0.00029522
-1.28214e-07
7.26167e-10
7.72059e-08
6.32897e-10
0.000303894
-1.27977e-07
8.41185e-10
7.54023e-08
7.25257e-10
0.000310857
-1.27663e-07
7.68648e-10
7.36887e-08
6.30634e-10
0.000316193
-1.27474e-07
8.99266e-10
7.18656e-08
7.3582e-10
0.000320093
-1.27197e-07
8.12855e-10
7.01496e-08
6.2525e-10
0.000322842
-1.27063e-07
9.60943e-10
6.83101e-08
7.45309e-10
0.000324764
-1.26825e-07
8.58632e-10
6.65962e-08
6.17073e-10
0.000326162
-1.26752e-07
1.02639e-09
6.47423e-08
7.54227e-10
0.000327305
-1.26556e-07
9.05996e-10
6.30342e-08
6.063e-10
0.00032837
-1.26547e-07
1.096e-09
6.11669e-08
7.6293e-10
0.00032941
-1.26396e-07
9.55125e-10
5.94679e-08
5.92939e-10
0.000330389
-1.26458e-07
1.17032e-09
5.75878e-08
7.71641e-10
0.000331178
-1.26354e-07
1.00628e-09
5.5901e-08
5.76889e-10
0.000331571
-1.26492e-07
1.25001e-09
5.40081e-08
7.80567e-10
0.00033137
-1.26438e-07
1.0597e-09
5.23365e-08
5.5805e-10
0.000330413
-1.26657e-07
1.33566e-09
5.04302e-08
7.90019e-10
0.000328607
-1.26655e-07
1.11551e-09
4.87763e-08
5.36414e-10
0.000325983
-1.26962e-07
1.42784e-09
4.6855e-08
8.00445e-10
0.000322687
-1.27014e-07
1.17371e-09
4.52208e-08
5.12025e-10
0.000319
-1.27414e-07
1.52711e-09
4.3282e-08
8.12341e-10
0.000315296
-1.2752e-07
1.23434e-09
4.1669e-08
4.84835e-10
0.000312048
-1.28021e-07
1.63419e-09
3.97095e-08
8.26054e-10
0.000309773
-1.28183e-07
1.29757e-09
3.81195e-08
4.54492e-10
0.000308939
-1.28791e-07
1.75013e-09
3.61362e-08
8.41565e-10
0.000309986
-1.29012e-07
1.36396e-09
3.45723e-08
4.20158e-10
0.000313293
-1.29737e-07
1.87655e-09
3.25633e-08
8.58356e-10
0.000319101
-1.3002e-07
1.43457e-09
3.10308e-08
3.8044e-10
0.000327501
-1.30877e-07
2.01577e-09
2.89963e-08
8.75387e-10
0.000338466
-1.31229e-07
1.51097e-09
2.7504e-08
3.33412e-10
0.000351841
-1.32233e-07
2.17082e-09
2.54469e-08
8.91192e-10
0.000367351
-1.32665e-07
1.59516e-09
2.4007e-08
2.76747e-10
0.00038463
-1.33841e-07
2.3453e-09
2.19335e-08
9.04e-10
0.000403251
-1.34367e-07
1.68929e-09
2.05623e-08
2.07871e-10
0.000422725
-1.35741e-07
2.54311e-09
1.84818e-08
9.11874e-10
0.000442572
-1.36378e-07
1.79537e-09
1.71999e-08
1.24149e-10
0.000462362
-1.37984e-07
2.76828e-09
1.51248e-08
9.12836e-10
0.000481697
-1.38753e-07
1.91513e-09
1.39563e-08
2.30379e-11
0.00050028
-1.40629e-07
3.0249e-09
1.19021e-08
9.04925e-10
0.000517991
-1.41553e-07
2.04992e-09
1.08746e-08
-9.7858e-11
0.00053485
-1.43741e-07
3.31727e-09
8.85955e-09
8.8611e-10
0.000551068
-1.44845e-07
2.20093e-09
8.00421e-09
-2.40931e-10
0.000567072
-1.47395e-07
3.6504e-09
6.05011e-09
8.53889e-10
0.000583529
-1.48708e-07
2.36955e-09
5.40248e-09
-4.08977e-10
0.000601408
-1.51677e-07
4.03095e-09
3.53643e-09
8.04445e-10
0.000622071
-1.53231e-07
2.55816e-09
3.13879e-09
-6.05955e-10
0.000647502
-1.56689e-07
4.46865e-09
1.39779e-09
7.31022e-10
0.000680499
-1.35612e-07
-2.01442e-08
1.30397e-09
-8.38465e-10
0.000725247
-1.15576e-07
-1.9097e-08
-1.1921e-10
4.85111e-10
0.000788414
-9.33631e-08
-2.13384e-08
-8.61972e-11
-9.07429e-10
0.00088078
-7.1736e-08
-2.07464e-08
-1.16654e-09
2.0015e-10
0.00101854
-4.81396e-08
-2.27598e-08
-1.10992e-09
-8.92714e-10
0.00122576
-2.43947e-08
-2.28961e-08
-1.79388e-09
-1.64273e-10
0.00160775
-2.47005e-08
1.14796e-09
-6.98535e-10
-1.93692e-09
1.92836e-07
2.17237e-08
-2.1677e-08
5.99405e-07
5.36088e-08
-5.3516e-08
1.02847e-06
7.73218e-08
-7.71738e-08
1.47531e-06
9.02046e-08
-9.0056e-08
1.93793e-06
9.71238e-08
-9.69456e-08
2.4174e-06
1.01369e-07
-1.0119e-07
2.91459e-06
1.04309e-07
-1.04116e-07
3.42976e-06
1.06532e-07
-1.06311e-07
3.96299e-06
1.08312e-07
-1.08096e-07
4.51478e-06
1.09801e-07
-1.09534e-07
5.08623e-06
1.11082e-07
-1.10827e-07
5.67809e-06
1.12216e-07
-1.11942e-07
6.29111e-06
1.13231e-07
-1.12968e-07
6.92639e-06
1.14159e-07
-1.13913e-07
7.58441e-06
1.15013e-07
-1.14776e-07
8.2649e-06
1.1581e-07
-1.15585e-07
8.96712e-06
1.1656e-07
-1.16338e-07
9.69024e-06
1.17272e-07
-1.17055e-07
1.04347e-05
1.1795e-07
-1.17733e-07
1.1203e-05
1.18603e-07
-1.18387e-07
1.19987e-05
1.19231e-07
-1.19013e-07
1.28243e-05
1.19843e-07
-1.19624e-07
1.36809e-05
1.20434e-07
-1.20212e-07
1.45689e-05
1.21011e-07
-1.20789e-07
1.54889e-05
1.21576e-07
-1.21351e-07
1.64416e-05
1.22129e-07
-1.21903e-07
1.74278e-05
1.22676e-07
-1.22447e-07
1.84478e-05
1.23215e-07
-1.22985e-07
1.95019e-05
1.2375e-07
-1.23517e-07
2.05901e-05
1.2428e-07
-1.24045e-07
2.17135e-05
1.24807e-07
-1.24569e-07
2.2875e-05
1.25333e-07
-1.25091e-07
2.40803e-05
1.25856e-07
-1.25611e-07
2.53376e-05
1.26383e-07
-1.26131e-07
2.66564e-05
1.26905e-07
-1.26652e-07
2.80458e-05
1.27433e-07
-1.2717e-07
2.95131e-05
1.27958e-07
-1.27693e-07
3.10633e-05
1.28478e-07
-1.28207e-07
3.2699e-05
1.29008e-07
-1.28736e-07
3.44215e-05
1.29528e-07
-1.29253e-07
3.62322e-05
1.30066e-07
-1.29792e-07
3.81354e-05
1.30598e-07
-1.30322e-07
4.01417e-05
1.31148e-07
-1.30872e-07
4.22702e-05
1.31702e-07
-1.31424e-07
4.45492e-05
1.32268e-07
-1.31989e-07
4.70137e-05
1.32847e-07
-1.32559e-07
4.97008e-05
1.33431e-07
-1.33142e-07
5.26449e-05
1.34039e-07
-1.33729e-07
5.58745e-05
1.34645e-07
-1.34332e-07
5.94114e-05
1.35224e-07
-1.349e-07
6.3272e-05
1.35849e-07
-1.35527e-07
6.74643e-05
1.36459e-07
-1.36142e-07
7.19795e-05
1.37107e-07
-1.36797e-07
7.67752e-05
1.37767e-07
-1.3746e-07
8.17514e-05
1.38449e-07
-1.38146e-07
8.67237e-05
1.3914e-07
-1.38838e-07
9.14031e-05
1.39861e-07
-1.3956e-07
9.53951e-05
1.40582e-07
-1.40282e-07
9.82263e-05
1.41342e-07
-1.41043e-07
9.94033e-05
1.42099e-07
-1.41799e-07
9.84945e-05
1.42903e-07
-1.42604e-07
9.52162e-05
1.43705e-07
-1.43406e-07
8.95003e-05
1.44552e-07
-1.44258e-07
8.15237e-05
1.4541e-07
-1.45122e-07
7.16877e-05
1.46311e-07
-1.46031e-07
6.0556e-05
1.47239e-07
-1.46968e-07
4.87693e-05
1.48179e-07
-1.47916e-07
3.69596e-05
1.49172e-07
-1.48909e-07
2.56799e-05
1.50147e-07
-1.49914e-07
1.53658e-05
1.51219e-07
-1.50977e-07
6.32329e-06
1.52279e-07
-1.52057e-07
-1.26034e-06
1.53434e-07
-1.53201e-07
-7.29304e-06
1.53443e-07
-1.53198e-07
-1.1755e-05
1.53464e-07
-1.53206e-07
-1.46748e-05
1.5347e-07
-1.53204e-07
-1.61156e-05
1.53486e-07
-1.5321e-07
-1.61654e-05
1.53489e-07
-1.53207e-07
-1.49307e-05
1.53499e-07
-1.53211e-07
-1.25317e-05
1.53501e-07
-1.53208e-07
-9.0966e-06
1.53507e-07
-1.5321e-07
-4.75565e-06
1.53506e-07
-1.53207e-07
3.64121e-07
1.53509e-07
-1.53206e-07
6.14498e-06
1.53507e-07
-1.53203e-07
1.2482e-05
1.53507e-07
-1.532e-07
1.92837e-05
1.53505e-07
-1.53197e-07
2.64695e-05
1.53501e-07
-1.53193e-07
3.39656e-05
1.53499e-07
-1.53189e-07
4.16987e-05
1.53494e-07
-1.53186e-07
4.95895e-05
1.53492e-07
-1.53182e-07
5.75477e-05
1.53487e-07
-1.53178e-07
6.54681e-05
1.53486e-07
-1.53174e-07
7.32307e-05
1.53482e-07
-1.5317e-07
8.07031e-05
1.53481e-07
-1.53165e-07
8.77469e-05
1.53477e-07
-1.53161e-07
9.42275e-05
1.53476e-07
-1.53156e-07
0.000100023
1.53472e-07
-1.53151e-07
0.000105037
1.53471e-07
-1.53145e-07
0.000109205
1.53467e-07
-1.5314e-07
0.000112504
1.53466e-07
-1.53134e-07
0.000114954
1.53462e-07
-1.53128e-07
0.000116618
1.5346e-07
-1.53122e-07
0.000117596
1.53457e-07
-1.53116e-07
0.000118022
1.53455e-07
-1.53109e-07
0.000118052
1.53451e-07
-1.53102e-07
0.000117859
1.53449e-07
-1.53094e-07
0.000117622
1.53445e-07
-1.53087e-07
0.000117521
1.53443e-07
-1.53079e-07
0.000117729
1.53439e-07
-1.53071e-07
0.000118407
1.53437e-07
-1.53062e-07
0.000119703
1.53433e-07
-1.53053e-07
0.000121743
1.5343e-07
-1.53043e-07
0.000124629
1.53427e-07
-1.53034e-07
0.000128433
1.53424e-07
-1.53024e-07
0.00013319
1.53421e-07
-1.53014e-07
0.000138893
1.53418e-07
-1.53003e-07
0.000145488
1.53414e-07
-1.52992e-07
0.000152872
1.53412e-07
-1.5298e-07
0.000160891
1.53408e-07
-1.52968e-07
0.000169346
1.53406e-07
-1.52955e-07
0.000177999
1.53402e-07
-1.52943e-07
0.000186586
1.534e-07
-1.52929e-07
0.000194835
1.53397e-07
-1.52915e-07
0.000202481
1.53394e-07
-1.52901e-07
0.000209289
1.53392e-07
-1.52887e-07
0.000215066
1.5339e-07
-1.52871e-07
0.000219684
1.53387e-07
-1.52856e-07
0.000223081
1.53386e-07
-1.5284e-07
0.000225267
1.53384e-07
-1.52823e-07
0.000226321
1.53382e-07
-1.52806e-07
0.000226379
1.53381e-07
-1.52789e-07
0.000225618
1.5338e-07
-1.52771e-07
0.000224235
1.53379e-07
-1.52753e-07
0.000222432
1.53379e-07
-1.52734e-07
0.000220392
1.53379e-07
-1.52715e-07
0.000218266
1.53379e-07
-1.52695e-07
0.000216165
1.5338e-07
-1.52675e-07
0.000214153
1.53381e-07
-1.52655e-07
0.000212248
1.53382e-07
-1.52634e-07
0.000210429
1.53385e-07
-1.52612e-07
0.000208644
1.53387e-07
-1.5259e-07
0.000206822
1.5339e-07
-1.52568e-07
0.000204884
1.53394e-07
-1.52545e-07
0.000202756
1.53398e-07
-1.52521e-07
0.000200377
1.53402e-07
-1.52498e-07
0.000197707
1.53408e-07
-1.52473e-07
0.000194731
1.53414e-07
-1.52448e-07
0.00019146
1.53421e-07
-1.52423e-07
0.00018793
1.53428e-07
-1.52397e-07
0.000184198
1.53436e-07
-1.52371e-07
0.000180337
1.53445e-07
-1.52344e-07
0.000176424
1.53455e-07
-1.52317e-07
0.000172542
1.53466e-07
-1.5229e-07
0.000168764
1.53478e-07
-1.52262e-07
0.000165153
1.5349e-07
-1.52233e-07
0.000161755
1.53503e-07
-1.52204e-07
0.000158593
1.53517e-07
-1.52175e-07
0.000155669
1.53533e-07
-1.52145e-07
0.000152957
1.53549e-07
-1.52114e-07
0.000150406
1.53567e-07
-1.52084e-07
0.000147939
1.53586e-07
-1.52052e-07
0.000145454
1.53606e-07
-1.52021e-07
0.000142824
1.53628e-07
-1.5199e-07
0.000139902
1.5365e-07
-1.51957e-07
0.000136525
1.53674e-07
-1.51925e-07
0.000132516
1.53698e-07
-1.51891e-07
0.000127697
1.53725e-07
-1.51858e-07
0.000121894
1.53752e-07
-1.51824e-07
0.000114949
1.53781e-07
-1.5179e-07
0.000106735
1.53811e-07
-1.51754e-07
9.71622e-05
1.53843e-07
-1.5172e-07
8.61962e-05
1.53876e-07
-1.51683e-07
7.38666e-05
1.53911e-07
-1.51647e-07
6.02766e-05
1.53946e-07
-1.5161e-07
4.56082e-05
1.53984e-07
-1.51572e-07
3.0123e-05
1.54022e-07
-1.51532e-07
1.4159e-05
1.54062e-07
-1.51492e-07
-1.87822e-06
1.54104e-07
-1.51451e-07
-1.75294e-05
1.54146e-07
-1.51408e-07
-3.23022e-05
1.54191e-07
-1.51364e-07
-4.56902e-05
1.54237e-07
-1.51319e-07
-5.72014e-05
1.54285e-07
-1.51272e-07
-6.6385e-05
1.54335e-07
-1.51225e-07
-7.28511e-05
1.54388e-07
-1.51176e-07
-7.62978e-05
1.54442e-07
-1.51126e-07
-7.6526e-05
1.545e-07
-1.51075e-07
-7.34471e-05
1.54559e-07
-1.51024e-07
-6.70918e-05
1.54621e-07
-1.50971e-07
-5.76038e-05
1.54685e-07
-1.50917e-07
-4.52308e-05
1.54751e-07
-1.50862e-07
-3.03044e-05
1.5482e-07
-1.50806e-07
-1.32151e-05
1.54892e-07
-1.50747e-07
5.60262e-06
1.54965e-07
-1.50688e-07
2.56969e-05
1.55042e-07
-1.50626e-07
4.66221e-05
1.55121e-07
-1.50563e-07
6.79526e-05
1.55204e-07
-1.50497e-07
8.93025e-05
1.5529e-07
-1.50431e-07
0.000110333
1.55381e-07
-1.50363e-07
0.000130754
1.55476e-07
-1.50295e-07
0.000150333
1.55577e-07
-1.50225e-07
0.000168889
1.55683e-07
-1.50156e-07
0.000186291
1.55796e-07
-1.50085e-07
0.000202452
1.55915e-07
-1.50016e-07
0.000217319
1.56043e-07
-1.49946e-07
0.000230866
1.56177e-07
-1.49877e-07
0.000243082
1.56321e-07
-1.49809e-07
0.000253957
1.56473e-07
-1.49743e-07
0.000263473
1.56635e-07
-1.49679e-07
0.000271589
1.56807e-07
-1.49617e-07
0.000278227
1.5699e-07
-1.49557e-07
0.000283269
1.57183e-07
-1.49502e-07
0.000286549
1.57389e-07
-1.49448e-07
0.000287855
1.57606e-07
-1.494e-07
0.000286941
1.57836e-07
-1.49355e-07
0.000283534
1.58079e-07
-1.49315e-07
0.000277363
1.58336e-07
-1.49279e-07
0.000268183
1.58605e-07
-1.49249e-07
0.000255802
1.5889e-07
-1.49222e-07
0.000240117
1.59188e-07
-1.49202e-07
0.00022114
1.59501e-07
-1.49186e-07
0.000199025
1.59829e-07
-1.49175e-07
0.000174087
1.60173e-07
-1.49167e-07
0.000146809
1.60531e-07
-1.49165e-07
0.000117842
1.60907e-07
-1.49165e-07
8.79947e-05
1.61297e-07
-1.4917e-07
5.8204e-05
1.61705e-07
-1.49175e-07
2.94971e-05
1.62129e-07
-1.49183e-07
2.94283e-06
1.62571e-07
-1.4919e-07
-2.04097e-05
1.63028e-07
-1.492e-07
-3.96102e-05
1.63506e-07
-1.49209e-07
-5.38635e-05
1.64002e-07
-1.49222e-07
-6.26045e-05
1.64522e-07
-1.49236e-07
-6.55467e-05
1.65062e-07
-1.49256e-07
-6.27159e-05
1.65627e-07
-1.49275e-07
-5.44712e-05
1.66212e-07
-1.49302e-07
-4.14689e-05
1.66825e-07
-1.49327e-07
-2.46224e-05
1.67457e-07
-1.4936e-07
-5.03414e-06
1.68118e-07
-1.4939e-07
1.60839e-05
1.68796e-07
-1.49426e-07
3.75074e-05
1.69507e-07
-1.49459e-07
5.80929e-05
1.70238e-07
-1.49502e-07
7.68541e-05
1.71007e-07
-1.49543e-07
9.30377e-05
1.71799e-07
-1.49598e-07
0.000106159
1.72634e-07
-1.49652e-07
0.000116013
1.73494e-07
-1.49725e-07
0.000122676
1.74401e-07
-1.49796e-07
0.00012647
1.75333e-07
-1.49891e-07
0.000127918
1.76318e-07
-1.49982e-07
0.000127675
1.77327e-07
-1.50101e-07
0.000126465
1.78392e-07
-1.50215e-07
0.000125007
1.79478e-07
-1.50361e-07
0.000123973
1.80627e-07
-1.50499e-07
0.000123943
1.81793e-07
-1.50673e-07
0.000125364
1.83026e-07
-1.50837e-07
0.000128537
1.84274e-07
-1.51043e-07
0.000133635
1.85595e-07
-1.51236e-07
0.000140706
1.86928e-07
-1.51477e-07
0.000149684
1.88341e-07
-1.51702e-07
0.000160409
1.89762e-07
-1.51984e-07
0.000172645
1.91273e-07
-1.52247e-07
0.000186115
1.92789e-07
-1.52578e-07
0.00020049
1.94406e-07