/*--------------------------------*- C++ -*----------------------------------*\
| =========                 |                                                 |
| \\      /  F ield         | OpenFOAM: The Open Source CFD Toolbox           |
|  \\    /   O peration     | Version:  2012                                  |
|   \\  /    A nd           | Website:  www.openfoam.com                      |
|    \\/     M anipulation  |                                                 |
\*---------------------------------------------------------------------------*/
FoamFile
{
    version     2.0;
    format      ascii;
    class       volVectorField;
    location    "11600";
    object      U;
}
// * * * * * * * * * * * * * * * * * * * * * * * * * * * * * * * * * * * * * //

dimensions      [0 1 -1 0 0 0 0];


internalField   nonuniform List<vector> 
2560
(
(0.0276597 -2.6115e-05 0.000500222)
(0.0276275 -1.21626e-05 5.49449e-08)
(0.083126 -1.15476e-05 0.000723698)
(0.0830296 1.73664e-05 1.75805e-08)
(0.139197 -2.50094e-05 0.000530553)
(0.139038 2.79311e-05 6.29595e-09)
(0.195877 -3.44375e-05 0.000284038)
(0.195659 3.4237e-05 2.19098e-09)
(0.253172 -3.78231e-05 0.000150409)
(0.252899 3.77618e-05 4.99958e-10)
(0.311089 -3.97594e-05 9.09208e-05)
(0.310766 3.97375e-05 1.3774e-10)
(0.369595 -4.11107e-05 6.21114e-05)
(0.369228 4.11155e-05 1.14586e-10)
(0.428629 -4.21107e-05 4.62425e-05)
(0.428223 4.20527e-05 1.17613e-11)
(0.488126 -4.28809e-05 3.65213e-05)
(0.487686 4.29062e-05 8.47584e-11)
(0.548085 -4.35429e-05 3.00755e-05)
(0.547617 4.34447e-05 -2.13098e-12)
(0.608579 -4.40759e-05 2.5542e-05)
(0.608088 4.41171e-05 7.30878e-11)
(0.66963 -4.45703e-05 2.22074e-05)
(0.669122 4.44434e-05 9.01788e-21)
(0.731266 -4.50429e-05 1.96676e-05)
(0.730744 4.50399e-05 9.4286e-11)
(0.793546 -4.53583e-05 1.76685e-05)
(0.793015 5.87489e-05 5.03822e-08)
(0.856455 -4.57741e-05 1.60889e-05)
(0.855919 1.88387e-05 -6.53203e-21)
(0.919897 -4.58786e-05 1.47688e-05)
(0.919359 0.000100991 1.18558e-07)
(0.983727 -4.67865e-05 1.37233e-05)
(0.983191 -3.89192e-05 6.9323e-10)
(1.0478 -4.62258e-05 1.28215e-05)
(1.04727 0.000136038 4.29854e-08)
(1.1121 -4.75445e-05 1.20666e-05)
(1.11157 -5.18774e-05 9.45058e-10)
(1.17685 -4.64215e-05 1.14109e-05)
(1.17633 0.00015016 4.18284e-08)
(1.24235 -4.84277e-05 1.08547e-05)
(1.24184 -6.47988e-05 6.656e-10)
(1.30878 -4.65243e-05 1.03619e-05)
(1.30829 0.000164087 4.00797e-08)
(1.37617 -4.93065e-05 9.94056e-06)
(1.37569 -7.76159e-05 4.73398e-36)
(1.44447 -4.64256e-05 9.5355e-06)
(1.444 0.000204495 1.49381e-07)
(1.51365 -5.03613e-05 9.23835e-06)
(1.51319 -0.000143797 1.59646e-21)
(1.5837 -4.62569e-05 8.91411e-06)
(1.58326 0.000275407 1.795e-07)
(1.65462 -5.16369e-05 8.69717e-06)
(1.65419 -0.000219462 2.04388e-09)
(1.72634 -4.58742e-05 8.46476e-06)
(1.72593 0.000325977 8.03556e-08)
(1.79881 -5.30485e-05 8.27827e-06)
(1.79841 -0.000244531 4.05208e-09)
(1.87195 -4.51955e-05 8.09427e-06)
(1.87156 0.000352401 8.28223e-08)
(1.94577 -5.46903e-05 7.95059e-06)
(1.9454 -0.000270531 3.71687e-09)
(2.02046 -4.4204e-05 7.80327e-06)
(2.0201 0.00037924 7.86697e-08)
(2.09643 -5.66451e-05 7.69148e-06)
(2.09607 -0.000296362 1.69081e-09)
(2.17426 -4.28062e-05 7.57265e-06)
(2.17391 0.000405737 7.29577e-08)
(2.25463 -5.90092e-05 7.48628e-06)
(2.25429 -0.000321635 -1.43781e-37)
(2.33814 -4.09558e-05 7.35523e-06)
(2.33781 0.000463131 2.25275e-07)
(2.42519 -6.19436e-05 7.3308e-06)
(2.42486 -0.000410084 4.03953e-37)
(2.51598 -3.85865e-05 7.10319e-06)
(2.51566 0.000652504 7.39074e-07)
(2.6105 -6.55134e-05 7.22961e-06)
(2.61018 -0.000702184 -2.83233e-21)
(2.70862 -3.56193e-05 6.97951e-06)
(2.7083 0.00098311 9.67799e-07)
(2.81023 -6.97001e-05 7.18385e-06)
(2.80991 -0.00107507 1.19557e-21)
(2.91545 -3.20496e-05 7.00254e-06)
(2.91513 0.00132088 8.15154e-07)
(3.02484 -7.44497e-05 7.18699e-06)
(3.02451 -0.00138041 0)
(3.13957 -2.78864e-05 7.12125e-06)
(3.13924 0.0015541 4.41282e-07)
(3.26141 -7.97409e-05 7.22782e-06)
(3.26108 -0.00154144 -4.5511e-37)
(3.39251 -2.31393e-05 7.21919e-06)
(3.39217 0.00168576 2.77806e-07)
(3.535 -8.56528e-05 7.29891e-06)
(3.53465 -0.00164212 -2.73101e-21)
(3.69073 -1.77318e-05 7.28524e-06)
(3.69037 0.00180167 3.62541e-07)
(3.86099 -9.22922e-05 7.40046e-06)
(3.86063 -0.00177203 3.90215e-21)
(4.04655 -1.15724e-05 6.9362e-06)
(4.04618 0.00225677 2.30081e-06)
(4.24773 -9.92481e-05 7.55283e-06)
(4.24735 -0.00255954 3.91631e-21)
(4.46425 -4.75139e-06 7.36641e-06)
(4.46388 0.00287973 1.39554e-06)
(4.69474 -0.00010614 7.78668e-06)
(4.69438 -0.0030178 3.98766e-08)
(4.93574 2.01646e-06 7.88702e-06)
(4.93541 0.00320443 7.75452e-07)
(5.1803 -0.000113015 8.22012e-06)
(5.18001 -0.00320518 1.71342e-07)
(5.41658 7.34494e-06 8.45074e-06)
(5.41634 0.0034254 1.42754e-06)
(5.62698 -0.000120403 9.07353e-06)
(5.62681 -0.0034609 4.10742e-07)
(5.78851 1.0157e-05 9.51448e-06)
(5.78845 0.00372612 2.2862e-06)
(5.87481 -0.000127506 1.05058e-05)
(5.87487 -0.00381391 6.57307e-07)
(5.85992 1.1237e-05 1.11436e-05)
(5.86014 0.00411024 2.78116e-06)
(5.72304 -0.000131447 1.23426e-05)
(5.72343 -0.00423655 7.07538e-07)
(5.45315 1.21083e-05 1.30132e-05)
(5.45373 0.00452345 2.35668e-06)
(5.05219 -0.000130319 1.40497e-05)
(5.053 -0.00463864 4.4786e-07)
(4.53581 1.22653e-05 1.45442e-05)
(4.53685 0.00487736 1.12215e-06)
(3.9312 -0.000125581 1.512e-05)
(3.93248 -0.00493325 -1.48115e-20)
(3.27294 9.35205e-06 1.53382e-05)
(3.27446 0.00512254 5.05011e-08)
(2.59785 -0.000119921 1.51913e-05)
(2.59959 -0.00497435 1.22239e-06)
(1.94024 2.67729e-06 1.52359e-05)
(1.94217 0.00511277 3.5037e-07)
(1.32841 -0.000114564 1.48619e-05)
(1.33047 -0.00494279 1.90395e-06)
(0.783035 -6.08031e-06 1.48661e-05)
(0.785141 0.00505832 4.43623e-07)
(0.317031 -0.000109382 1.44883e-05)
(0.319066 -0.00489399 1.97917e-06)
(-0.0633809 -1.47565e-05 1.45339e-05)
(-0.0615531 0.00501105 4.18026e-07)
(-0.357125 -0.000104346 9.6588e-07)
(-0.355625 -0.000193698 4.70017e-06)
(-0.566731 -2.12887e-05 8.06685e-07)
(-0.565616 0.000273372 4.75108e-07)
(-0.697029 -9.87645e-05 7.64881e-07)
(-0.696314 -0.000111372 1.0988e-06)
(-0.754267 -2.66751e-05 6.13829e-07)
(-0.753946 0.000202115 3.52875e-07)
(-0.745565 -9.37576e-05 5.74823e-07)
(-0.74562 -4.86903e-05 8.39008e-07)
(-0.678568 -3.13022e-05 4.40382e-07)
(-0.678979 0.00014898 2.59495e-07)
(-0.561178 -8.94371e-05 4.06593e-07)
(-0.561918 -5.00787e-06 5.90769e-07)
(-0.401258 -3.52906e-05 2.89251e-07)
(-0.402294 0.000113323 1.77706e-07)
(-0.206392 -8.57266e-05 2.62552e-07)
(-0.207677 2.26086e-05 3.76827e-07)
(0.0163576 -3.87635e-05 1.63577e-07)
(0.0148965 9.20532e-05 1.40625e-07)
(0.260674 -8.24662e-05 1.48542e-07)
(0.259145 3.74333e-05 2.05091e-07)
(0.521129 -4.16945e-05 7.06325e-08)
(0.519618 8.17503e-05 1.91778e-07)
(0.793125 -7.95943e-05 6.6213e-08)
(0.791695 4.33417e-05 2.1216e-07)
(1.07276 -4.41779e-05 2.291e-09)
(1.07145 7.92689e-05 2.3337e-07)
(1.35659 -7.70814e-05 6.51924e-08)
(1.35542 4.28114e-05 2.25179e-07)
(1.64138 -4.63164e-05 8.51211e-08)
(1.64035 7.84335e-05 2.29375e-07)
(1.92385 -7.49276e-05 1.65832e-07)
(1.92296 4.52563e-05 2.37588e-07)
(2.20046 -4.82228e-05 2.14569e-07)
(2.1997 7.62256e-05 2.42377e-07)
(2.46733 -7.31305e-05 3.21672e-07)
(2.46669 4.73128e-05 3.2375e-07)
(2.72025 -4.99711e-05 4.00483e-07)
(2.71971 7.4208e-05 3.99493e-07)
(2.95478 -7.16661e-05 5.2738e-07)
(2.95433 4.90053e-05 5.29424e-07)
(3.16657 -5.1579e-05 6.20401e-07)
(3.16621 7.23592e-05 6.1966e-07)
(3.35165 -7.04324e-05 7.45135e-07)
(3.35136 5.04387e-05 7.47152e-07)
(3.50678 -5.30035e-05 8.25869e-07)
(3.50655 7.07188e-05 8.2536e-07)
(3.62974 -6.93473e-05 9.20475e-07)
(3.62957 5.16976e-05 9.22468e-07)
(3.71966 -5.41512e-05 9.64134e-07)
(3.71955 6.93776e-05 9.63838e-07)
(3.77709 -6.83195e-05 1.01162e-06)
(3.77702 5.28756e-05 1.01359e-06)
(3.80401 -5.50423e-05 1.0094e-06)
(3.80398 6.83128e-05 1.00929e-06)
(3.80374 -6.73174e-05 1.01159e-06)
(3.80374 5.40065e-05 1.01352e-06)
(3.78065 -5.57579e-05 9.73435e-07)
(3.78068 6.74409e-05 9.73493e-07)
(3.73994 -6.63818e-05 9.47107e-07)
(3.73999 5.50515e-05 9.48997e-07)
(3.68728 -5.63656e-05 8.94073e-07)
(3.68734 6.66922e-05 8.94277e-07)
(3.62849 -6.56017e-05 8.60097e-07)
(3.62856 5.59233e-05 8.61952e-07)
(3.5693 -5.69224e-05 8.09904e-07)
(3.56936 6.60077e-05 8.10245e-07)
(3.51512 -6.49753e-05 7.82247e-07)
(3.51518 5.66255e-05 7.8408e-07)
(3.47086 -5.74506e-05 7.43505e-07)
(3.47091 6.5363e-05 7.43987e-07)
(3.44084 -6.44556e-05 7.2715e-07)
(3.44086 5.72067e-05 7.28988e-07)
(3.42865 -5.79317e-05 7.01928e-07)
(3.42865 6.4775e-05 7.0257e-07)
(3.43712 -6.3992e-05 6.98418e-07)
(3.4371 5.7719e-05 7.00302e-07)
(3.46819 -5.83264e-05 6.90043e-07)
(3.46814 6.42814e-05 6.9088e-07)
(3.52283 -6.35878e-05 7.0437e-07)
(3.52276 5.81602e-05 7.06351e-07)
(3.60095 -5.86449e-05 7.1922e-07)
(3.60086 6.38707e-05 7.20298e-07)
(3.70133 -6.32025e-05 7.61599e-07)
(3.70121 5.85718e-05 7.6374e-07)
(3.82152 -5.8978e-05 8.08666e-07)
(3.82139 6.34509e-05 8.10039e-07)
(3.95793 -6.28953e-05 8.8296e-07)
(3.95779 5.88953e-05 8.85326e-07)
(4.10584 -5.92464e-05 9.6542e-07)
(4.1057 6.31002e-05 9.67144e-07)
(4.25966 -6.26511e-05 1.07483e-06)
(4.25952 5.91466e-05 1.07748e-06)
(4.41312 -5.94661e-05 1.19497e-06)
(4.413 6.28018e-05 1.19708e-06)
(4.55971 -6.23985e-05 1.3453e-06)
(4.5596 5.93977e-05 1.34827e-06)
(4.69305 -5.96105e-05 1.51461e-06)
(4.69295 6.25814e-05 1.51714e-06)
(4.80731 -6.21018e-05 1.72598e-06)
(4.80724 5.96849e-05 1.72928e-06)
(4.8977 -5.96773e-05 1.97428e-06)
(4.89765 6.24403e-05 1.97721e-06)
(4.96076 -6.17916e-05 2.28502e-06)
(4.96073 5.99779e-05 2.28864e-06)
(4.99464 -5.97174e-05 2.65648e-06)
(4.99463 6.23272e-05 2.65977e-06)
(4.99915 -6.1578e-05 3.10915e-06)
(4.99916 6.0167e-05 3.11303e-06)
(4.97578 -5.98267e-05 3.63753e-06)
(4.9758 6.21454e-05 3.64112e-06)
(4.92741 -6.15693e-05 4.24796e-06)
(4.92745 6.01442e-05 4.25205e-06)
(4.85803 -6.01409e-05 4.91903e-06)
(4.85808 6.17587e-05 4.92285e-06)
(4.77229 -6.17824e-05 5.6382e-06)
(4.77235 5.98928e-05 5.64246e-06)
(4.67507 -6.06804e-05 6.3628e-06)
(4.67513 6.11461e-05 6.36682e-06)
(4.571 -6.22067e-05 7.05793e-06)
(4.57107 5.94238e-05 7.06231e-06)
(4.46415 -6.12834e-05 7.66788e-06)
(4.46422 6.04688e-05 7.67205e-06)
(4.35772 -6.2589e-05 8.15218e-06)
(4.3578 5.89906e-05 8.15668e-06)
(4.25393 -6.17207e-05 8.45944e-06)
(4.254 5.99551e-05 8.46376e-06)
(4.15393 -6.2693e-05 8.56392e-06)
(4.154 5.88299e-05 8.56854e-06)
(4.05797 -6.17415e-05 8.44279e-06)
(4.05804 5.98552e-05 8.44726e-06)
(3.96553 -6.23467e-05 8.10559e-06)
(3.96559 5.9114e-05 8.11034e-06)
(3.87553 -6.13165e-05 7.56861e-06)
(3.8756 6.01979e-05 7.57323e-06)
(3.78662 -6.16595e-05 6.87583e-06)
(3.78669 5.97334e-05 6.8807e-06)
(3.69738 -6.06678e-05 6.07108e-06)
(3.69744 6.07608e-05 6.07584e-06)
(3.60653 -6.09139e-05 5.21362e-06)
(3.6066 6.04055e-05 5.21859e-06)
(3.51312 -6.01064e-05 4.35014e-06)
(3.5132 6.12327e-05 4.355e-06)
(3.41662 -6.03746e-05 3.53129e-06)
(3.4167 6.08655e-05 3.53633e-06)
(3.31695 -5.98204e-05 2.78691e-06)
(3.31703 6.14252e-05 2.79183e-06)
(3.21449 -6.01814e-05 2.14157e-06)
(3.21457 6.09737e-05 2.14662e-06)
(3.11 -5.98194e-05 1.60161e-06)
(3.11009 6.13285e-05 1.60656e-06)
(3.00456 -6.02364e-05 1.16894e-06)
(3.00464 6.08278e-05 1.17399e-06)
(2.8994 -5.99917e-05 8.32098e-07)
(2.89949 6.10537e-05 9.65393e-07)
(2.79584 -6.0397e-05 5.80189e-07)
(2.79593 6.05705e-05 9.8037e-07)
(2.69512 -6.01903e-05 3.95875e-07)
(2.69521 6.07473e-05 9.94692e-07)
(2.59833 -6.0544e-05 2.66107e-07)
(2.59841 6.0321e-05 1.00966e-06)
(2.50629 -6.03365e-05 2.30787e-07)
(2.50637 6.04877e-05 1.0239e-06)
(2.41953 -6.06236e-05 2.45798e-07)
(2.41961 6.0133e-05 1.0387e-06)
(2.33824 -6.04174e-05 2.4912e-07)
(2.33831 6.02873e-05 1.05269e-06)
(2.26223 -6.06399e-05 2.65829e-07)
(2.2623 6.00024e-05 1.0671e-06)
(2.19096 -6.0442e-05 2.67491e-07)
(2.19103 6.0137e-05 1.08068e-06)
(2.12354 -6.06099e-05 2.86262e-07)
(2.12361 5.99121e-05 1.09448e-06)
(2.05877 -6.04475e-05 2.90566e-07)
(2.05884 5.99992e-05 1.10755e-06)
(1.99517 -6.05749e-05 3.06959e-07)
(1.99524 5.98211e-05 1.12061e-06)
(1.93102 -6.03662e-05 3.18117e-07)
(1.93109 5.99414e-05 1.13316e-06)
(1.8644 -6.05643e-05 3.20171e-07)
(1.86447 5.97002e-05 1.14545e-06)
(1.7933 -6.03256e-05 3.36947e-07)
(1.79338 5.98355e-05 1.15759e-06)
(1.71568 -6.05064e-05 3.37506e-07)
(1.71578 5.96208e-05 1.16932e-06)
(1.62958 -6.02827e-05 3.55738e-07)
(1.62969 5.97244e-05 1.18128e-06)
(1.53321 -6.04487e-05 3.57346e-07)
(1.53334 5.95355e-05 1.19289e-06)
(1.42512 -6.02365e-05 3.74326e-07)
(1.42527 5.96089e-05 1.20515e-06)
(1.30428 -6.03913e-05 3.76778e-07)
(1.30447 5.94443e-05 1.21731e-06)
(1.17025 -6.01866e-05 3.92604e-07)
(1.17047 5.94886e-05 1.2306e-06)
(1.02324 -6.0334e-05 3.95726e-07)
(1.02352 5.93468e-05 1.24424e-06)
(0.864236 -6.01332e-05 4.10495e-07)
(0.864589 5.93625e-05 1.25948e-06)
(0.695022 -6.02763e-05 4.14134e-07)
(0.695485 5.92431e-05 1.27563e-06)
(0.518194 -6.00751e-05 4.27923e-07)
(0.518814 5.92304e-05 1.29376e-06)
(0.337112 -6.02179e-05 4.31919e-07)
(0.33794 5.91323e-05 1.31335e-06)
(0.155813 -6.00114e-05 4.44743e-07)
(0.156871 5.90918e-05 1.33507e-06)
(-0.0211108 -6.01586e-05 4.48877e-07)
(-0.0199159 5.90155e-05 1.3586e-06)
(-0.188703 -5.99474e-05 4.6092e-07)
(-0.18767 5.89508e-05 1.38353e-06)
(-0.342137 -6.00803e-05 4.67708e-07)
(-0.341373 5.88753e-05 1.40788e-06)
(-0.4767 -5.98857e-05 4.81197e-07)
(-0.476184 5.88105e-05 1.43317e-06)
(-0.588072 -5.99986e-05 4.90346e-07)
(-0.587744 5.87254e-05 1.45761e-06)
(-0.672596 -5.98184e-05 5.04732e-07)
(-0.672401 5.86618e-05 1.48232e-06)
(-0.727458 -5.99137e-05 5.15611e-07)
(-0.72736 5.85651e-05 1.5059e-06)
(-0.7509 -5.97454e-05 5.30097e-07)
(-0.75088 5.85051e-05 1.52934e-06)
(-0.742299 -5.98253e-05 5.41714e-07)
(-0.742351 5.83944e-05 1.55171e-06)
(-0.702165 -5.96696e-05 5.55789e-07)
(-0.702292 5.83373e-05 1.57401e-06)
(-0.63214 -5.97329e-05 5.65664e-07)
(-0.632361 5.82133e-05 1.5959e-06)
(-0.534859 -5.95896e-05 5.80742e-07)
(-0.535208 5.81601e-05 1.61835e-06)
(-0.413789 -5.96381e-05 5.90238e-07)
(-0.414324 5.80194e-05 1.64154e-06)
(-0.273005 -5.95057e-05 6.04379e-07)
(-0.273785 5.79724e-05 1.66616e-06)
(-0.116936 -5.95398e-05 6.13615e-07)
(-0.117946 5.78114e-05 1.6928e-06)
(0.0497626 -5.94223e-05 6.26383e-07)
(0.0487438 5.77755e-05 1.72155e-06)
(0.222623 -5.94379e-05 6.3637e-07)
(0.221824 5.75905e-05 1.752e-06)
(0.397586 -5.93205e-05 6.52216e-07)
(0.397019 5.7552e-05 1.78158e-06)
(0.570915 -5.93405e-05 6.66602e-07)
(0.570519 5.73599e-05 1.81349e-06)
(0.73938 -5.92115e-05 6.86145e-07)
(0.739096 5.7316e-05 1.84404e-06)
(0.900308 -5.92381e-05 7.05343e-07)
(0.900095 5.7113e-05 1.87714e-06)
(1.05158 -5.90975e-05 7.28793e-07)
(1.05142 5.70643e-05 1.90808e-06)
(1.19166 -5.91254e-05 7.52911e-07)
(1.19153 5.68544e-05 1.94168e-06)
(1.31953 -5.89728e-05 7.80188e-07)
(1.31942 5.68018e-05 1.9721e-06)
(1.43459 -5.90093e-05 8.09104e-07)
(1.43451 5.65771e-05 2.0053e-06)
(1.53667 -5.88264e-05 8.39909e-07)
(1.5366 5.65392e-05 2.03413e-06)
(1.62584 -5.88808e-05 9.93017e-07)
(1.62579 5.62905e-05 2.066e-06)
(1.70242 -5.86671e-05 1.20708e-06)
(1.70237 5.62677e-05 2.09223e-06)
(1.76678 -5.87349e-05 1.44481e-06)
(1.76675 5.60005e-05 2.12199e-06)
(1.81935 -5.84914e-05 1.70505e-06)
(1.81932 5.59916e-05 2.14472e-06)
(1.86045 -5.85778e-05 1.98112e-06)
(1.86043 5.57019e-05 2.17182e-06)
(1.89024 -5.83082e-05 2.26933e-06)
(1.89023 5.57026e-05 2.24946e-06)
(1.90867 -5.84094e-05 2.56106e-06)
(1.90866 5.53964e-05 2.54051e-06)
(1.91538 -5.81406e-05 2.84954e-06)
(1.91538 5.5379e-05 2.82797e-06)
(1.90976 -5.82376e-05 3.12927e-06)
(1.90977 5.50785e-05 3.10733e-06)
(1.89094 -5.79913e-05 3.39224e-06)
(1.89096 5.5019e-05 3.36947e-06)
(1.85789 -5.80873e-05 3.63708e-06)
(1.85791 5.47248e-05 3.61434e-06)
(1.80948 -5.78504e-05 3.86116e-06)
(1.80951 5.46335e-05 3.83784e-06)
(1.74469 -5.79615e-05 4.06566e-06)
(1.74472 5.43343e-05 4.04294e-06)
(1.66271 -5.77221e-05 4.2549e-06)
(1.66276 5.42186e-05 4.23191e-06)
(1.56317 -5.78516e-05 4.43449e-06)
(1.56323 5.39165e-05 4.4128e-06)
(1.44623 -5.75825e-05 4.61439e-06)
(1.4463 5.37972e-05 4.59281e-06)
(1.31277 -5.77485e-05 4.799e-06)
(1.31286 5.34799e-05 4.77956e-06)
(1.16448 -5.74155e-05 5.00184e-06)
(1.16459 5.33824e-05 4.98287e-06)
(1.00388 -5.76365e-05 5.22158e-06)
(1.00402 5.30379e-05 5.20564e-06)
(0.834342 -5.72258e-05 5.47057e-06)
(0.834505 5.29642e-05 5.45536e-06)
(0.659994 -5.74946e-05 5.74224e-06)
(0.6602 5.26064e-05 5.73095e-06)
(0.4856 -5.70201e-05 6.04107e-06)
(0.485875 5.25282e-05 6.03056e-06)
(0.316368 -5.73269e-05 6.35597e-06)
(0.316753 5.21743e-05 6.35012e-06)
(0.15769 -5.68068e-05 6.68356e-06)
(0.158234 5.20559e-05 6.67817e-06)
(0.0148967 -5.71502e-05 7.00991e-06)
(0.0155941 5.17154e-05 7.00965e-06)
(-0.10701 -5.65862e-05 7.32749e-06)
(-0.106398 5.15628e-05 7.32693e-06)
(-0.203999 -5.69842e-05 7.62199e-06)
(-0.203618 5.11435e-05 7.61819e-06)
(-0.273129 -5.63477e-05 7.89256e-06)
(-0.272935 5.10543e-05 7.88776e-06)
(-0.312733 -5.68531e-05 8.12071e-06)
(-0.312659 5.04911e-05 8.11388e-06)
(-0.322615 -5.61032e-05 8.32024e-06)
(-0.322623 5.04942e-05 8.31318e-06)
(-0.304142 -5.67229e-05 8.47615e-06)
(-0.304225 4.97886e-05 8.4686e-06)
(-0.260233 -5.58801e-05 8.60854e-06)
(-0.260413 4.98545e-05 8.6017e-06)
(-0.195079 -5.6568e-05 8.71615e-06)
(-0.195399 4.90596e-05 8.7104e-06)
(-0.113875 -5.56402e-05 8.81762e-06)
(-0.114359 4.91703e-05 8.81341e-06)
(-0.022461 -5.63923e-05 8.91212e-06)
(-0.0230159 4.82948e-05 8.91028e-06)
(0.0731489 -5.53892e-05 9.01548e-06)
(0.0727197 4.84518e-05 9.01569e-06)
(0.167354 -5.61686e-05 9.12961e-06)
(0.167069 4.74739e-05 9.12495e-06)
(0.255172 -5.51007e-05 9.26122e-06)
(0.254988 4.7708e-05 9.25603e-06)
(0.332554 -5.59471e-05 9.40284e-06)
(0.332435 4.65904e-05 9.3929e-06)
(0.396681 -5.47647e-05 9.5663e-06)
(0.396604 4.69431e-05 9.55606e-06)
(0.446037 -5.57171e-05 9.73112e-06)
(0.445988 4.56503e-05 9.7168e-06)
(0.480374 -5.44206e-05 9.91032e-06)
(0.480345 4.61201e-05 9.89625e-06)
(0.500611 -5.5489e-05 1.00844e-05)
(0.500597 4.46469e-05 1.00672e-05)
(0.508642 -5.40522e-05 1.02718e-05)
(0.508638 4.52575e-05 1.02555e-05)
(0.507045 -5.52731e-05 1.04474e-05)
(0.507049 4.35726e-05 1.04289e-05)
(0.498794 -5.36703e-05 1.06384e-05)
(0.498803 4.43472e-05 1.06213e-05)
(0.486964 -5.50591e-05 1.0818e-05)
(0.486975 4.24398e-05 1.07993e-05)
(0.474443 -5.32871e-05 1.10175e-05)
(0.474454 4.33787e-05 1.10003e-05)
(0.463781 -5.48368e-05 1.12127e-05)
(0.463788 4.12602e-05 1.11943e-05)
(0.457047 -5.28731e-05 1.14352e-05)
(0.45705 4.23832e-05 1.1418e-05)
(0.455693 -5.4631e-05 1.16499e-05)
(0.455691 4.00106e-05 1.16313e-05)
(0.460576 -5.24376e-05 1.18985e-05)
(0.460569 4.1354e-05 1.18806e-05)
(0.472028 -5.44226e-05 1.21385e-05)
(0.472015 3.87132e-05 1.2119e-05)
(0.489926 -5.1977e-05 1.24131e-05)
(0.489909 4.02987e-05 1.23936e-05)
(0.513756 -5.42303e-05 1.26691e-05)
(0.513736 3.73544e-05 1.26476e-05)
(0.54271 -5.15046e-05 1.2958e-05)
(0.542689 3.92099e-05 1.29358e-05)
(0.57576 -5.40623e-05 1.32204e-05)
(0.575738 3.59324e-05 1.31959e-05)
(0.611798 -5.10008e-05 1.35193e-05)
(0.611777 3.81147e-05 1.34935e-05)
(0.649607 -5.39381e-05 1.37771e-05)
(0.649587 3.44363e-05 1.37489e-05)
(0.687939 -5.04859e-05 1.40758e-05)
(0.68792 3.7002e-05 1.40459e-05)
(0.725556 -5.38284e-05 1.43273e-05)
(0.725539 3.29049e-05 1.42951e-05)
(0.761201 -4.99971e-05 1.46165e-05)
(0.761187 3.58447e-05 1.45824e-05)
(0.793771 -5.37159e-05 1.48602e-05)
(0.793758 3.13664e-05 1.48242e-05)
(0.822281 -4.95205e-05 1.51351e-05)
(0.822271 3.46675e-05 1.50973e-05)
(0.845903 -5.36536e-05 1.53527e-05)
(0.845895 2.97788e-05 1.53134e-05)
(0.864113 -4.90408e-05 1.56065e-05)
(0.864108 3.34967e-05 1.55656e-05)
(0.876754 -5.36229e-05 1.57915e-05)
(0.876751 2.81714e-05 1.57499e-05)
(0.883985 -4.85876e-05 1.60057e-05)
(0.883984 3.23125e-05 1.59628e-05)
(0.886271 -5.36437e-05 1.61404e-05)
(0.886271 2.65341e-05 1.60975e-05)
(0.884345 -4.81594e-05 1.6307e-05)
(0.884346 3.1125e-05 1.6263e-05)
(0.879155 -5.37097e-05 1.63894e-05)
(0.879157 2.48812e-05 1.63462e-05)
(0.871711 -4.77622e-05 1.65079e-05)
(0.871714 2.9935e-05 1.64636e-05)
(0.862918 -5.38432e-05 1.65395e-05)
(0.862921 2.31967e-05 1.64967e-05)
(0.85353 -4.73866e-05 1.66255e-05)
(0.853533 2.87569e-05 1.65812e-05)
(0.844035 -5.40311e-05 1.66285e-05)
(0.844038 2.14992e-05 1.65861e-05)
(0.834571 -4.7058e-05 1.67023e-05)
(0.834573 2.75699e-05 1.66581e-05)
(0.825054 -5.42517e-05 1.67084e-05)
(0.825057 1.98155e-05 1.66666e-05)
(0.815173 -4.67651e-05 1.67989e-05)
(0.815176 2.63894e-05 1.67547e-05)
(0.804441 -5.45333e-05 1.68233e-05)
(0.804444 1.81223e-05 1.67822e-05)
(0.792431 -4.64888e-05 1.69487e-05)
(0.792435 2.52385e-05 1.69046e-05)
(0.778817 -5.48706e-05 1.69964e-05)
(0.778821 1.64301e-05 1.69564e-05)
(0.76346 -4.62548e-05 1.7143e-05)
(0.763464 2.4095e-05 1.70992e-05)
(0.746507 -5.5255e-05 1.71936e-05)
(0.746512 1.47519e-05 1.7155e-05)
(0.728368 -4.60777e-05 1.73268e-05)
(0.728373 2.2947e-05 1.72837e-05)
(0.709726 -5.56955e-05 1.73374e-05)
(0.709731 1.30825e-05 1.73006e-05)
(0.691431 -4.59711e-05 1.7411e-05)
(0.691435 2.17824e-05 1.73685e-05)
(0.674501 -5.61967e-05 1.73379e-05)
(0.674505 1.14206e-05 1.7303e-05)
(0.659987 -4.59365e-05 1.73142e-05)
(0.659991 2.06014e-05 1.72721e-05)
(0.648777 -5.67807e-05 1.71232e-05)
(0.648779 9.74767e-06 1.70899e-05)
(0.641646 -4.59731e-05 1.69887e-05)
(0.641647 1.94067e-05 1.69461e-05)
(0.639198 -5.74408e-05 1.66831e-05)
(0.639197 8.07623e-06 1.66508e-05)
(0.641716 -4.60817e-05 1.64539e-05)
(0.641715 1.82024e-05 1.64096e-05)
(0.64917 -5.81743e-05 1.60572e-05)
(0.649168 6.41857e-06 1.60249e-05)
(0.661288 -4.62888e-05 1.57608e-05)
(0.661285 1.69705e-05 1.57132e-05)
(0.677568 -5.89701e-05 1.53167e-05)
(0.677564 4.80083e-06 1.52834e-05)
(0.697298 -4.65926e-05 1.50015e-05)
(0.697294 1.57262e-05 1.49489e-05)
(0.719633 -5.98417e-05 1.45492e-05)
(0.719628 3.23128e-06 1.45141e-05)
(0.743658 -4.70217e-05 1.42491e-05)
(0.743653 1.446e-05 1.419e-05)
(0.768397 -6.07915e-05 1.38251e-05)
(0.768393 1.73646e-06 1.3788e-05)
(0.792943 -4.75946e-05 1.35726e-05)
(0.792939 1.31776e-05 1.35056e-05)
(0.816527 -6.18371e-05 1.32003e-05)
(0.816524 3.3544e-07 1.31614e-05)
(0.838481 -4.83399e-05 1.3013e-05)
(0.838478 1.18801e-05 1.29369e-05)
(0.858346 -6.29961e-05 1.27047e-05)
(0.858343 -9.45973e-07 1.26649e-05)
(0.875995 -4.92764e-05 1.25918e-05)
(0.875993 1.05828e-05 1.25052e-05)
(0.891542 -6.42847e-05 1.234e-05)
(0.89154 -2.07391e-06 1.23006e-05)
(0.905409 -5.04352e-05 1.22758e-05)
(0.905407 9.29292e-06 1.21772e-05)
(0.91835 -6.57278e-05 1.20298e-05)
(0.918348 -3.01628e-06 1.19923e-05)
(0.931458 -5.18561e-05 1.19432e-05)
(0.931456 8.01404e-06 1.18301e-05)
(0.946239 -6.73443e-05 1.26843e-05)
(0.946236 -3.72587e-06 1.15731e-05)
(0.964721 -5.35975e-05 1.13745e-05)
(0.964718 6.73819e-06 1.12431e-05)
(0.989769 -6.91679e-05 1.36614e-05)
(0.989765 -4.15687e-06 1.07753e-05)
(1.0253 -5.57315e-05 1.02724e-05)
(1.02529 5.45906e-06 1.01162e-05)
(1.07706 -5.27609e-05 9.31841e-06)
(1.07705 -4.29598e-06 9.29051e-06)
(1.15409 -3.9285e-05 8.33405e-06)
(1.15408 4.39322e-06 8.20433e-06)
(1.27081 -3.53786e-05 6.93559e-06)
(1.27081 -4.3672e-06 6.90928e-06)
(1.44851 -2.17014e-05 5.46041e-06)
(1.4485 3.56795e-06 5.36157e-06)
(1.71822 -1.67849e-05 3.66373e-06)
(1.71822 -4.42975e-06 3.64246e-06)
(2.22138 -2.84093e-06 1.76562e-06)
(2.22138 2.76453e-06 1.71594e-06)
(0.0276274 -1.21477e-05 -5.49145e-08)
(0.0276597 -2.61287e-05 -0.000498737)
(0.0830293 1.74224e-05 -1.75905e-08)
(0.0831259 -1.15783e-05 -0.000721545)
(0.139038 2.80199e-05 -6.3236e-09)
(0.139197 -2.50501e-05 -0.000528975)
(0.195658 3.43499e-05 -2.2007e-09)
(0.195877 -3.44885e-05 -0.000283193)
(0.252898 3.78867e-05 -5.02275e-10)
(0.253172 -3.78001e-05 -0.000149961)
(0.310765 3.98687e-05 -1.39016e-10)
(0.311089 -3.9807e-05 -9.06504e-05)
(0.369226 4.12513e-05 -1.15682e-10)
(0.369595 -4.11478e-05 -6.19268e-05)
(0.428221 4.21916e-05 -1.21701e-11)
(0.428629 -4.21482e-05 -4.61051e-05)
(0.487685 4.3048e-05 -8.51296e-11)
(0.488125 -4.29199e-05 -3.64129e-05)
(0.547616 4.35884e-05 1.82857e-12)
(0.548084 -4.3561e-05 -2.99862e-05)
(0.608087 4.42627e-05 -7.37035e-11)
(0.608578 -4.40846e-05 -2.54663e-05)
(0.66912 4.45903e-05 4.91301e-22)
(0.66963 -4.4572e-05 -2.21416e-05)
(0.730742 4.51887e-05 -9.39409e-11)
(0.731265 -4.50134e-05 -1.96093e-05)
(0.793013 5.88988e-05 -5.03833e-08)
(0.793545 -4.54365e-05 -1.76159e-05)
(0.855917 1.89893e-05 -5.1879e-19)
(0.856454 -4.58002e-05 -1.60409e-05)
(0.919357 0.000101143 -1.18556e-07)
(0.919896 -4.58944e-05 -1.47246e-05)
(0.983189 -3.87658e-05 -6.93568e-10)
(0.983726 -4.68166e-05 -1.36824e-05)
(1.04726 0.000136192 -4.29887e-08)
(1.0478 -4.62511e-05 -1.27833e-05)
(1.11157 -5.17229e-05 -9.45375e-10)
(1.1121 -4.75777e-05 -1.20308e-05)
(1.17633 0.000150317 -4.18283e-08)
(1.17685 -4.64513e-05 -1.1377e-05)
(1.24184 -6.46426e-05 -6.65925e-10)
(1.24235 -4.84626e-05 -1.08225e-05)
(1.30828 0.000164245 -4.008e-08)
(1.30878 -4.65562e-05 -1.03312e-05)
(1.37568 -7.74581e-05 5.96046e-19)
(1.37617 -4.93417e-05 -9.91116e-06)
(1.44399 0.000204654 -1.49382e-07)
(1.44446 -4.64584e-05 -9.50724e-06)
(1.51319 -0.000143638 -1.59646e-21)
(1.51365 -5.0396e-05 -9.21109e-06)
(1.58326 0.000275569 -1.79501e-07)
(1.5837 -4.62898e-05 -8.88775e-06)
(1.65419 -0.000219301 -2.04416e-09)
(1.65461 -5.1671e-05 -8.67159e-06)
(1.72593 0.00032614 -8.03559e-08)
(1.72634 -4.59071e-05 -8.43989e-06)
(1.79841 -0.00024437 -4.05233e-09)
(1.79881 -5.30821e-05 -8.25403e-06)
(1.87156 0.000352566 -8.2823e-08)
(1.87195 -4.52283e-05 -8.07059e-06)
(1.94539 -0.000270369 -3.71717e-09)
(1.94577 -5.47237e-05 -7.92741e-06)
(2.02009 0.000379405 -7.86698e-08)
(2.02046 -4.42368e-05 -7.78054e-06)
(2.09607 -0.000296198 -1.6912e-09)
(2.09642 -5.66784e-05 -7.66914e-06)
(2.17391 0.000405904 -7.29577e-08)
(2.17426 -4.28393e-05 -7.55067e-06)
(2.25429 -0.00032147 -4.55144e-19)
(2.25463 -5.90426e-05 -7.46462e-06)
(2.3378 0.000463299 -2.25276e-07)
(2.33814 -4.09891e-05 -7.33386e-06)
(2.42486 -0.000409917 0)
(2.42519 -6.19773e-05 -7.30968e-06)
(2.51565 0.000652674 -7.39075e-07)
(2.51598 -3.86201e-05 -7.08229e-06)
(2.61018 -0.000702017 -3.1739e-19)
(2.6105 -6.55474e-05 -7.2089e-06)
(2.7083 0.000983281 -9.678e-07)
(2.70862 -3.56532e-05 -6.95897e-06)
(2.80991 -0.0010749 -1.19557e-21)
(2.81023 -6.97343e-05 -7.16345e-06)
(2.91512 0.00132105 -8.15156e-07)
(2.91545 -3.20838e-05 -6.98226e-06)
(3.02451 -0.00138024 -3.05579e-18)
(3.02484 -7.44843e-05 -7.16681e-06)
(3.13924 0.00155428 -4.41283e-07)
(3.13957 -2.7921e-05 -7.10115e-06)
(3.26108 -0.00154127 0)
(3.26141 -7.97758e-05 -7.20778e-06)
(3.39216 0.00168594 -2.77808e-07)
(3.39251 -2.31742e-05 -7.1992e-06)
(3.53465 -0.00164195 1.17526e-34)
(3.535 -8.5688e-05 -7.27894e-06)
(3.69037 0.00180185 -3.62544e-07)
(3.69073 -1.7767e-05 -7.26528e-06)
(3.86063 -0.00177186 -1.95107e-21)
(3.86099 -9.23278e-05 -7.38049e-06)
(4.04618 0.00225695 -2.30081e-06)
(4.04655 -1.1608e-05 -6.91619e-06)
(4.24735 -0.00255936 -7.44099e-21)
(4.24773 -9.9284e-05 -7.53279e-06)
(4.46388 0.00287991 -1.39554e-06)
(4.46425 -4.78725e-06 -7.3463e-06)
(4.69438 -0.00301762 -3.98773e-08)
(4.69474 -0.000106176 -7.76649e-06)
(4.93541 0.00320462 -7.75453e-07)
(4.93574 1.98026e-06 -7.86673e-06)
(5.18001 -0.003205 -1.71342e-07)
(5.1803 -0.000113051 -8.19972e-06)
(5.41634 0.00342558 -1.42754e-06)
(5.41658 7.3084e-06 -8.43021e-06)
(5.62682 -0.00346072 -4.10743e-07)
(5.62698 -0.00012044 -9.05286e-06)
(5.78845 0.00372631 -2.2862e-06)
(5.78851 1.01201e-05 -9.49366e-06)
(5.87488 -0.00381372 -6.57307e-07)
(5.87481 -0.000127544 -1.04848e-05)
(5.86014 0.00411043 -2.78116e-06)
(5.85993 1.11997e-05 -1.11224e-05)
(5.72343 -0.00423636 -7.07539e-07)
(5.72304 -0.000131485 -1.23213e-05)
(5.45374 0.00452364 -2.35668e-06)
(5.45315 1.20707e-05 -1.29917e-05)
(5.05301 -0.00463846 -4.47861e-07)
(5.0522 -0.000130358 -1.4028e-05)
(4.53685 0.00487756 -1.12215e-06)
(4.53581 1.22273e-05 -1.45222e-05)
(3.93249 -0.00493306 -2.86042e-18)
(3.93121 -0.000125619 -1.50977e-05)
(3.27447 0.00512273 -5.04995e-08)
(3.27295 9.31363e-06 -1.53155e-05)
(2.5996 -0.00497416 -1.22239e-06)
(2.59785 -0.00011996 -1.51682e-05)
(1.94218 0.00511297 -3.5037e-07)
(1.94024 2.63843e-06 -1.52123e-05)
(1.33048 -0.0049426 -1.90395e-06)
(1.32842 -0.000114604 -1.48378e-05)
(0.785149 0.00505852 -4.43622e-07)
(0.783038 -6.11966e-06 -1.48414e-05)
(0.319073 -0.00489379 -1.97917e-06)
(0.317034 -0.000109422 -1.4463e-05)
(-0.0615466 0.00501125 -4.18026e-07)
(-0.0633783 -1.47964e-05 -1.45079e-05)
(-0.355619 -0.000193494 -4.72695e-06)
(-0.357122 -0.000104386 -9.65878e-07)
(-0.565611 0.000273572 -4.75107e-07)
(-0.566729 -2.13291e-05 -8.06682e-07)
(-0.696311 -0.000111165 -1.0988e-06)
(-0.697028 -9.88054e-05 -7.64879e-07)
(-0.753944 0.000202319 -3.52874e-07)
(-0.754266 -2.67161e-05 -6.13826e-07)
(-0.74562 -4.84795e-05 -8.39008e-07)
(-0.745564 -9.37991e-05 -5.74821e-07)
(-0.678979 0.000149186 -2.59494e-07)
(-0.678568 -3.13439e-05 -4.40379e-07)
(-0.56192 -4.79329e-06 -5.90769e-07)
(-0.561178 -8.94793e-05 -4.06591e-07)
(-0.402297 0.000113534 -1.77705e-07)
(-0.401258 -3.53329e-05 -2.89248e-07)
(-0.20768 2.28272e-05 -3.76827e-07)
(-0.206392 -8.57696e-05 -2.6255e-07)
(0.0148926 9.22674e-05 -1.08797e-07)
(0.0163569 -3.88066e-05 -1.63573e-07)
(0.25914 3.76563e-05 -2.05091e-07)
(0.260673 -8.251e-05 -1.48539e-07)
(0.519613 8.19689e-05 -5.60385e-08)
(0.521128 -4.17385e-05 -7.06294e-08)
(0.79169 4.35695e-05 -8.13653e-08)
(0.793123 -7.9639e-05 -6.62107e-08)
(1.07144 7.94921e-05 -5.60257e-08)
(1.07275 -4.42228e-05 -2.28799e-09)
(1.35541 4.30443e-05 -6.73272e-08)
(1.35658 -7.71271e-05 -6.51952e-08)
(1.64035 7.86623e-05 -8.35717e-08)
(1.64138 -4.63622e-05 -8.51234e-08)
(1.92296 4.54939e-05 -1.6794e-07)
(1.92385 -7.49744e-05 -1.65834e-07)
(2.1997 7.64607e-05 -2.13321e-07)
(2.20046 -4.82696e-05 -2.14571e-07)
(2.46669 4.75557e-05 -3.23748e-07)
(2.46733 -7.31784e-05 -3.21675e-07)
(2.7197 7.445e-05 -3.99498e-07)
(2.72024 -5.0019e-05 -4.00486e-07)
(2.95433 4.92541e-05 -5.29421e-07)
(2.95478 -7.17153e-05 -5.27382e-07)
(3.1662 7.26086e-05 -6.19665e-07)
(3.16657 -5.16281e-05 -6.20404e-07)
(3.35136 5.06939e-05 -7.47148e-07)
(3.35165 -7.04831e-05 -7.45137e-07)
(3.50655 7.09764e-05 -8.25365e-07)
(3.50678 -5.30539e-05 -8.25872e-07)
(3.62957 5.19599e-05 -9.22464e-07)
(3.62974 -6.93997e-05 -9.20477e-07)