/*--------------------------------*- C++ -*----------------------------------*\
| =========                 |                                                 |
| \\      /  F ield         | OpenFOAM: The Open Source CFD Toolbox           |
|  \\    /   O peration     | Version:  2106                                  |
|   \\  /    A nd           | Website:  www.openfoam.com                      |
|    \\/     M anipulation  |                                                 |
\*---------------------------------------------------------------------------*/
FoamFile
{
    version     2.0;
    format      ascii;
    arch        "LSB;label=32;scalar=64";
    class       volSymmTensorField;
    location    "9000";
    object      turbulenceProperties:R;
}
// * * * * * * * * * * * * * * * * * * * * * * * * * * * * * * * * * * * * * //

dimensions      [0 2 -2 0 0 0 0];

internalField   nonuniform List<symmTensor> 
2560
(
(2.66638e-07 -2.36596e-11 -3.42501e-14 2.66638e-07 1.6199e-25 2.66638e-07)
(2.66638e-07 -2.36596e-11 -3.42501e-14 2.66638e-07 5.27256e-30 2.66638e-07)
(4.77419e-08 -2.43463e-11 -1.0625e-13 4.77419e-08 1.88441e-26 4.77419e-08)
(4.77419e-08 -2.43463e-11 -1.0625e-13 4.77419e-08 -2.08818e-30 4.77419e-08)
(7.36743e-08 -1.10822e-10 -6.65221e-13 7.36743e-08 5.48406e-26 7.36743e-08)
(7.36743e-08 -1.10822e-10 -6.65221e-13 7.36743e-08 -2.49626e-29 7.36743e-08)
(2.33518e-07 -7.44801e-10 -4.53577e-12 2.33518e-07 3.95118e-25 2.33518e-07)
(2.33518e-07 -7.44801e-10 -4.53577e-12 2.33518e-07 6.1481e-29 2.33518e-07)
(6.01109e-07 -3.3821e-09 -2.08961e-11 6.01109e-07 1.12781e-24 6.01109e-07)
(6.01109e-07 -3.3821e-09 -2.08961e-11 6.01109e-07 1.13977e-27 6.01109e-07)
(1.28251e-06 -1.13599e-08 -7.12069e-11 1.28251e-06 3.72823e-24 1.28251e-06)
(1.28251e-06 -1.13599e-08 -7.12069e-11 1.28251e-06 5.99392e-27 1.28251e-06)
(2.40396e-06 -3.10584e-08 -1.97512e-10 2.40396e-06 1.01776e-23 2.40396e-06)
(2.40396e-06 -3.10584e-08 -1.97512e-10 2.40396e-06 2.1414e-26 2.40396e-06)
(4.11033e-06 -7.33593e-08 -4.733e-10 4.11033e-06 2.44274e-23 4.11033e-06)
(4.11033e-06 -7.33593e-08 -4.733e-10 4.11033e-06 6.54759e-26 4.11033e-06)
(6.56524e-06 -1.55428e-07 -1.01736e-09 6.56524e-06 5.23481e-23 6.56524e-06)
(6.56524e-06 -1.55428e-07 -1.01736e-09 6.56524e-06 1.73837e-25 6.56524e-06)
(9.95157e-06 -3.02843e-07 -2.01106e-09 9.95157e-06 1.03225e-22 9.95157e-06)
(9.95157e-06 -3.02843e-07 -2.01106e-09 9.95157e-06 4.0088e-25 9.95157e-06)
(1.44721e-05 -5.52086e-07 -3.7194e-09 1.44721e-05 1.90721e-22 1.44721e-05)
(1.44721e-05 -5.52086e-07 -3.7194e-09 1.44721e-05 8.55716e-25 1.44721e-05)
(2.03498e-05 -9.53387e-07 -6.51612e-09 2.03498e-05 3.33735e-22 2.03498e-05)
(2.03498e-05 -9.53387e-07 -6.51612e-09 2.03498e-05 1.68802e-24 2.03498e-05)
(2.78287e-05 -1.57389e-06 -1.09129e-08 2.78287e-05 5.57925e-22 2.78287e-05)
(2.78287e-05 -1.57389e-06 -1.09129e-08 2.78287e-05 3.06338e-24 2.78287e-05)
(3.71733e-05 -2.50105e-06 -1.75925e-08 3.71733e-05 8.96665e-22 3.71733e-05)
(3.71733e-05 -2.50105e-06 -1.75925e-08 3.71733e-05 5.2627e-24 3.71733e-05)
(4.86687e-05 -3.84616e-06 -2.74448e-08 4.86687e-05 1.39215e-21 4.86687e-05)
(4.86687e-05 -3.84616e-06 -2.74448e-08 4.86687e-05 8.92436e-24 4.86687e-05)
(6.26192e-05 -5.74779e-06 -4.16054e-08 6.26192e-05 2.09561e-21 6.26192e-05)
(6.26192e-05 -5.74779e-06 -4.16054e-08 6.26192e-05 1.57054e-23 6.26192e-05)
(7.9347e-05 -8.3748e-06 -6.14925e-08 7.9347e-05 3.06789e-21 7.9347e-05)
(7.9347e-05 -8.3748e-06 -6.14925e-08 7.9347e-05 2.65559e-23 7.9347e-05)
(9.91887e-05 -1.19286e-05 -8.88422e-08 9.91887e-05 4.37763e-21 9.91887e-05)
(9.91887e-05 -1.19286e-05 -8.88422e-08 9.91887e-05 4.1649e-23 9.91887e-05)
(0.000122492 -1.66444e-05 -1.25735e-07 0.000122492 6.09548e-21 0.000122492)
(0.000122492 -1.66444e-05 -1.25735e-07 0.000122492 6.18461e-23 0.000122492)
(0.00014961 -2.27903e-05 -1.74611e-07 0.00014961 8.29183e-21 0.00014961)
(0.00014961 -2.27903e-05 -1.74611e-07 0.00014961 8.88178e-23 0.00014961)
(0.000180895 -3.06645e-05 -2.38266e-07 0.000180895 1.10275e-20 0.000180895)
(0.000180895 -3.06645e-05 -2.38266e-07 0.000180895 1.27552e-22 0.000180895)
(0.000216687 -4.05894e-05 -3.19827e-07 0.000216687 1.43406e-20 0.000216687)
(0.000216687 -4.05894e-05 -3.19827e-07 0.000216687 1.85276e-22 0.000216687)
(0.000257309 -5.29029e-05 -4.22694e-07 0.000257309 1.82333e-20 0.000257309)
(0.000257309 -5.29029e-05 -4.22694e-07 0.000257309 2.67077e-22 0.000257309)
(0.000303052 -6.79464e-05 -5.50457e-07 0.000303052 2.2669e-20 0.000303052)
(0.000303052 -6.79464e-05 -5.50457e-07 0.000303052 3.71035e-22 0.000303052)
(0.000354161 -8.60494e-05 -7.06777e-07 0.000354161 2.75471e-20 0.000354161)
(0.000354161 -8.60494e-05 -7.06777e-07 0.000354161 5.26041e-22 0.000354161)
(0.000410828 -0.000107513 -8.95239e-07 0.000410828 3.26714e-20 0.000410828)
(0.000410828 -0.000107513 -8.95239e-07 0.000410828 6.72734e-22 0.000410828)
(0.000473173 -0.000132589 -1.11919e-06 0.000473173 3.78307e-20 0.000473173)
(0.000473173 -0.000132589 -1.11919e-06 0.000473173 8.32104e-22 0.000473173)
(0.000541241 -0.000161467 -1.38156e-06 0.000541241 4.26959e-20 0.000541241)
(0.000541241 -0.000161467 -1.38156e-06 0.000541241 1.06992e-21 0.000541241)
(0.000614985 -0.000194253 -1.68471e-06 0.000614985 4.68893e-20 0.000614985)
(0.000614985 -0.000194253 -1.68471e-06 0.000614985 1.44224e-21 0.000614985)
(0.000694267 -0.000230963 -2.03027e-06 0.000694267 5.00299e-20 0.000694267)
(0.000694267 -0.000230963 -2.03027e-06 0.000694267 2.0639e-21 0.000694267)
(0.000778855 -0.000271511 -2.41906e-06 0.000778855 5.16949e-20 0.000778855)
(0.000778855 -0.000271511 -2.41906e-06 0.000778855 2.62884e-21 0.000778855)
(0.000868423 -0.000315714 -2.85103e-06 0.000868423 5.15873e-20 0.000868423)
(0.000868423 -0.000315714 -2.85103e-06 0.000868423 3.07906e-21 0.000868423)
(0.000962564 -0.000363298 -3.32525e-06 0.000962564 4.93402e-20 0.000962564)
(0.000962564 -0.000363298 -3.32525e-06 0.000962564 3.71194e-21 0.000962564)
(0.0010608 -0.000413907 -3.84e-06 0.0010608 4.4837e-20 0.0010608)
(0.0010608 -0.000413907 -3.84e-06 0.0010608 4.53916e-21 0.0010608)
(0.00116258 -0.000467123 -4.39284e-06 0.00116258 3.81531e-20 0.00116258)
(0.00116258 -0.000467123 -4.39284e-06 0.00116258 5.49703e-21 0.00116258)
(0.00126733 -0.000522483 -4.98077e-06 0.00126733 2.92946e-20 0.00126733)
(0.00126733 -0.000522483 -4.98077e-06 0.00126733 6.78367e-21 0.00126733)
(0.00137445 -0.000579504 -5.60039e-06 0.00137445 1.86445e-20 0.00137445)
(0.00137445 -0.000579504 -5.60039e-06 0.00137445 7.96159e-21 0.00137445)
(0.00148331 -0.000637695 -6.24804e-06 0.00148331 2.63792e-21 0.00148331)
(0.00148331 -0.000637695 -6.24804e-06 0.00148331 9.21212e-21 0.00148331)
(0.00159331 -0.000696582 -6.91996e-06 0.00159331 -4.46991e-21 0.00159331)
(0.00159331 -0.000696582 -6.91996e-06 0.00159331 1.09454e-20 0.00159331)
(0.00170387 -0.000755718 -7.61246e-06 0.00170387 -2.20167e-20 0.00170387)
(0.00170387 -0.000755718 -7.61246e-06 0.00170387 1.27228e-20 0.00170387)
(0.00181443 -0.000814692 -8.32196e-06 0.00181443 -3.71006e-20 0.00181443)
(0.00181443 -0.000814692 -8.32196e-06 0.00181443 1.46054e-20 0.00181443)
(0.00192449 -0.000873143 -9.04515e-06 0.00192449 -5.23184e-20 0.00192449)
(0.00192449 -0.000873143 -9.04515e-06 0.00192449 1.68127e-20 0.00192449)
(0.00203359 -0.000930754 -9.779e-06 0.00203359 -6.6798e-20 0.00203359)
(0.00203359 -0.000930754 -9.779e-06 0.00203359 1.97754e-20 0.00203359)
(0.00214132 -0.00098726 -1.05208e-05 0.00214132 -8.10732e-20 0.00214132)
(0.00214132 -0.00098726 -1.05208e-05 0.00214132 2.35303e-20 0.00214132)
(0.00224731 -0.00104245 -1.12682e-05 0.00224731 -9.42375e-20 0.00224731)
(0.00224731 -0.00104245 -1.12682e-05 0.00224731 2.65793e-20 0.00224731)
(0.00235128 -0.00109614 -1.20191e-05 0.00235128 -1.05222e-19 0.00235128)
(0.00235128 -0.00109614 -1.20191e-05 0.00235128 2.87854e-20 0.00235128)
(0.00245297 -0.0011482 -1.27719e-05 0.00245297 -1.14988e-19 0.00245297)
(0.00245297 -0.0011482 -1.27719e-05 0.00245297 3.21107e-20 0.00245297)
(0.00255216 -0.00119855 -1.35251e-05 0.00255216 -1.2277e-19 0.00255216)
(0.00255216 -0.00119855 -1.35251e-05 0.00255216 3.66074e-20 0.00255216)
(0.00264871 -0.00124713 -1.42777e-05 0.00264871 -1.28557e-19 0.00264871)
(0.00264871 -0.00124713 -1.42777e-05 0.00264871 4.11214e-20 0.00264871)
(0.00274249 -0.00129388 -1.50287e-05 0.00274249 -1.32213e-19 0.00274249)
(0.00274249 -0.00129388 -1.50287e-05 0.00274249 4.51998e-20 0.00274249)
(0.00283341 -0.00133882 -1.57775e-05 0.00283341 -1.32988e-19 0.00283341)
(0.00283341 -0.00133882 -1.57775e-05 0.00283341 5.06502e-20 0.00283341)
(0.00292142 -0.00138193 -1.65236e-05 0.00292142 -1.31484e-19 0.00292142)
(0.00292142 -0.00138193 -1.65236e-05 0.00292142 5.59774e-20 0.00292142)
(0.00300649 -0.00142325 -1.72668e-05 0.00300649 -1.2862e-19 0.00300649)
(0.00300649 -0.00142325 -1.72668e-05 0.00300649 6.00944e-20 0.00300649)
(0.00308861 -0.0014628 -1.80068e-05 0.00308861 -1.24235e-19 0.00308861)
(0.00308861 -0.0014628 -1.80068e-05 0.00308861 6.47701e-20 0.00308861)
(0.00316781 -0.00150063 -1.87436e-05 0.00316781 -1.18052e-19 0.00316781)
(0.00316781 -0.00150063 -1.87436e-05 0.00316781 7.01611e-20 0.00316781)
(0.0032441 -0.0015368 -1.94772e-05 0.0032441 -1.09136e-19 0.0032441)
(0.0032441 -0.0015368 -1.94772e-05 0.0032441 7.81597e-20 0.0032441)
(0.00331754 -0.00157135 -2.02077e-05 0.00331754 -9.782e-20 0.00331754)
(0.00331754 -0.00157135 -2.02077e-05 0.00331754 8.59439e-20 0.00331754)
(0.00338818 -0.00160434 -2.09354e-05 0.00338818 -8.68812e-20 0.00338818)
(0.00338818 -0.00160434 -2.09354e-05 0.00338818 9.62569e-20 0.00338818)
(0.00345608 -0.00163583 -2.16603e-05 0.00345608 -7.26494e-20 0.00345608)
(0.00345608 -0.00163583 -2.16603e-05 0.00345608 1.06367e-19 0.00345608)
(0.00352131 -0.00166588 -2.23829e-05 0.00352131 -5.65257e-20 0.00352131)
(0.00352131 -0.00166588 -2.23829e-05 0.00352131 1.14666e-19 0.00352131)
(0.00358395 -0.00169456 -2.31033e-05 0.00358395 -4.12289e-20 0.00358395)
(0.00358395 -0.00169456 -2.31033e-05 0.00358395 1.23901e-19 0.00358395)
(0.00364406 -0.00172191 -2.38219e-05 0.00364406 -2.26386e-20 0.00364406)
(0.00364406 -0.00172191 -2.38219e-05 0.00364406 1.32642e-19 0.00364406)
(0.00370174 -0.00174801 -2.4539e-05 0.00370174 -5.37149e-21 0.00370174)
(0.00370174 -0.00174801 -2.4539e-05 0.00370174 1.42708e-19 0.00370174)
(0.00375706 -0.0017729 -2.52549e-05 0.00375706 1.23923e-20 0.00375706)
(0.00375706 -0.0017729 -2.52549e-05 0.00375706 1.52492e-19 0.00375706)
(0.0038101 -0.00179665 -2.597e-05 0.0038101 3.5405e-20 0.0038101)
(0.0038101 -0.00179665 -2.597e-05 0.0038101 1.63581e-19 0.0038101)
(0.00386095 -0.0018193 -2.66846e-05 0.00386095 5.84984e-20 0.00386095)
(0.00386095 -0.0018193 -2.66846e-05 0.00386095 1.76596e-19 0.00386095)
(0.00390968 -0.00184091 -2.7399e-05 0.00390968 8.30833e-20 0.00390968)
(0.00390968 -0.00184091 -2.7399e-05 0.00390968 1.88298e-19 0.00390968)
(0.00395637 -0.00186152 -2.81136e-05 0.00395637 1.08601e-19 0.00395637)
(0.00395637 -0.00186152 -2.81136e-05 0.00395637 2.01114e-19 0.00395637)
(0.00400109 -0.00188119 -2.88288e-05 0.00400109 1.32237e-19 0.00400109)
(0.00400109 -0.00188119 -2.88288e-05 0.00400109 2.15325e-19 0.00400109)
(0.00404393 -0.00189996 -2.95448e-05 0.00404393 1.60204e-19 0.00404393)
(0.00404393 -0.00189996 -2.95448e-05 0.00404393 2.27222e-19 0.00404393)
(0.00408496 -0.00191786 -3.0262e-05 0.00408496 1.92266e-19 0.00408496)
(0.00408496 -0.00191786 -3.0262e-05 0.00408496 2.40351e-19 0.00408496)
(0.00412424 -0.00193494 -3.09807e-05 0.00412424 2.191e-19 0.00412424)
(0.00412424 -0.00193494 -3.09807e-05 0.00412424 2.59821e-19 0.00412424)
(0.00416184 -0.00195125 -3.17011e-05 0.00416184 2.46052e-19 0.00416184)
(0.00416184 -0.00195125 -3.17011e-05 0.00416184 2.78291e-19 0.00416184)
(0.00419783 -0.0019668 -3.24237e-05 0.00419783 2.79862e-19 0.00419783)
(0.00419783 -0.0019668 -3.24237e-05 0.00419783 2.89833e-19 0.00419783)
(0.00423227 -0.00198164 -3.31486e-05 0.00423227 3.08655e-19 0.00423227)
(0.00423227 -0.00198164 -3.31486e-05 0.00423227 3.00128e-19 0.00423227)
(0.00426522 -0.00199581 -3.38762e-05 0.00426522 3.40456e-19 0.00426522)
(0.00426522 -0.00199581 -3.38762e-05 0.00426522 3.1588e-19 0.00426522)
(0.00429674 -0.00200932 -3.46068e-05 0.00429674 3.71034e-19 0.00429674)
(0.00429674 -0.00200932 -3.46068e-05 0.00429674 3.27196e-19 0.00429674)
(0.00432689 -0.00202222 -3.53405e-05 0.00432689 3.96247e-19 0.00432689)
(0.00432689 -0.00202222 -3.53405e-05 0.00432689 3.30064e-19 0.00432689)
(0.00435572 -0.00203452 -3.60777e-05 0.00435572 4.24036e-19 0.00435572)
(0.00435572 -0.00203452 -3.60777e-05 0.00435572 3.47856e-19 0.00435572)
(0.00438327 -0.00204626 -3.68187e-05 0.00438327 4.62251e-19 0.00438327)
(0.00438327 -0.00204626 -3.68187e-05 0.00438327 3.64611e-19 0.00438327)
(0.0044096 -0.00205745 -3.75636e-05 0.0044096 5.12845e-19 0.0044096)
(0.0044096 -0.00205745 -3.75636e-05 0.0044096 3.90536e-19 0.0044096)
(0.00443476 -0.00206813 -3.83127e-05 0.00443476 5.5371e-19 0.00443476)
(0.00443476 -0.00206813 -3.83127e-05 0.00443476 4.17941e-19 0.00443476)
(0.00445879 -0.00207831 -3.90662e-05 0.00445879 5.87699e-19 0.00445879)
(0.00445879 -0.00207831 -3.90662e-05 0.00445879 4.29567e-19 0.00445879)
(0.00448173 -0.00208801 -3.98244e-05 0.00448173 6.28603e-19 0.00448173)
(0.00448173 -0.00208801 -3.98244e-05 0.00448173 4.41389e-19 0.00448173)
(0.00450362 -0.00209725 -4.05875e-05 0.00450362 6.82881e-19 0.00450362)
(0.00450362 -0.00209725 -4.05875e-05 0.00450362 4.67014e-19 0.00450362)
(0.0045245 -0.00210606 -4.13556e-05 0.0045245 7.31031e-19 0.0045245)
(0.0045245 -0.00210606 -4.13556e-05 0.0045245 4.77441e-19 0.0045245)
(0.00454441 -0.00211445 -4.21291e-05 0.00454441 7.73025e-19 0.00454441)
(0.00454441 -0.00211445 -4.21291e-05 0.00454441 5.20829e-19 0.00454441)
(0.00456338 -0.00212243 -4.2908e-05 0.00456338 8.25507e-19 0.00456338)
(0.00456338 -0.00212243 -4.2908e-05 0.00456338 5.70508e-19 0.00456338)
(0.00458145 -0.00213002 -4.36927e-05 0.00458145 8.79654e-19 0.00458145)
(0.00458145 -0.00213002 -4.36927e-05 0.00458145 5.83706e-19 0.00458145)
(0.00459864 -0.00213724 -4.44832e-05 0.00459864 9.31e-19 0.00459864)
(0.00459864 -0.00213724 -4.44832e-05 0.00459864 6.00018e-19 0.00459864)
(0.004615 -0.00214411 -4.52798e-05 0.004615 9.74845e-19 0.004615)
(0.004615 -0.00214411 -4.52798e-05 0.004615 6.36785e-19 0.004615)
(0.00463055 -0.00215062 -4.60826e-05 0.00463055 1.00839e-18 0.00463055)
(0.00463055 -0.00215062 -4.60826e-05 0.00463055 6.70719e-19 0.00463055)
(0.00464531 -0.0021568 -4.68919e-05 0.00464531 1.05943e-18 0.00464531)
(0.00464531 -0.0021568 -4.68919e-05 0.00464531 6.86191e-19 0.00464531)
(0.00465932 -0.00216266 -4.77078e-05 0.00465932 1.10869e-18 0.00465932)
(0.00465932 -0.00216266 -4.77078e-05 0.00465932 7.08194e-19 0.00465932)
(0.00467259 -0.00216821 -4.85305e-05 0.00467259 1.14241e-18 0.00467259)
(0.00467259 -0.00216821 -4.85305e-05 0.00467259 7.54626e-19 0.00467259)
(0.00468516 -0.00217346 -4.93601e-05 0.00468516 1.19801e-18 0.00468516)
(0.00468516 -0.00217346 -4.93601e-05 0.00468516 7.96141e-19 0.00468516)
(0.00469704 -0.00217842 -5.01968e-05 0.00469704 1.26221e-18 0.00469704)
(0.00469704 -0.00217842 -5.01968e-05 0.00469704 8.10691e-19 0.00469704)
(0.00470827 -0.00218311 -5.10409e-05 0.00470827 1.29729e-18 0.00470827)
(0.00470827 -0.00218311 -5.10409e-05 0.00470827 8.30809e-19 0.00470827)
(0.00471885 -0.00218752 -5.18923e-05 0.00471885 1.31891e-18 0.00471885)
(0.00471885 -0.00218752 -5.18923e-05 0.00471885 8.51455e-19 0.00471885)
(0.00472881 -0.00219167 -5.27513e-05 0.00472881 1.36928e-18 0.00472881)
(0.00472881 -0.00219167 -5.27513e-05 0.00472881 8.82104e-19 0.00472881)
(0.00473818 -0.00219557 -5.36181e-05 0.00473818 1.44009e-18 0.00473818)
(0.00473818 -0.00219557 -5.36181e-05 0.00473818 9.16623e-19 0.00473818)
(0.00474696 -0.00219922 -5.44928e-05 0.00474696 1.50366e-18 0.00474696)
(0.00474696 -0.00219922 -5.44928e-05 0.00474696 9.56016e-19 0.00474696)
(0.00475518 -0.00220264 -5.53756e-05 0.00475518 1.56582e-18 0.00475518)
(0.00475518 -0.00220264 -5.53756e-05 0.00475518 1.0072e-18 0.00475518)
(0.00476285 -0.00220583 -5.62665e-05 0.00476285 1.61469e-18 0.00476285)
(0.00476285 -0.00220583 -5.62665e-05 0.00476285 1.0364e-18 0.00476285)
(0.00476999 -0.00220879 -5.71658e-05 0.00476999 1.65061e-18 0.00476999)
(0.00476999 -0.00220879 -5.71658e-05 0.00476999 1.06305e-18 0.00476999)
(0.00477661 -0.00221154 -5.80735e-05 0.00477661 1.71352e-18 0.00477661)
(0.00477661 -0.00221154 -5.80735e-05 0.00477661 1.10584e-18 0.00477661)
(0.00478274 -0.00221408 -5.89899e-05 0.00478274 1.78434e-18 0.00478274)
(0.00478274 -0.00221408 -5.89899e-05 0.00478274 1.14338e-18 0.00478274)
(0.00478838 -0.00221642 -5.9915e-05 0.00478838 1.83535e-18 0.00478838)
(0.00478838 -0.00221642 -5.9915e-05 0.00478838 1.18493e-18 0.00478838)
(0.00479355 -0.00221855 -6.08491e-05 0.00479355 1.89524e-18 0.00479355)
(0.00479355 -0.00221855 -6.08491e-05 0.00479355 1.25096e-18 0.00479355)
(0.00479826 -0.0022205 -6.17922e-05 0.00479826 1.95763e-18 0.00479826)
(0.00479826 -0.0022205 -6.17922e-05 0.00479826 1.28446e-18 0.00479826)
(0.00480252 -0.00222226 -6.27444e-05 0.00480252 2.00276e-18 0.00480252)
(0.00480252 -0.00222226 -6.27444e-05 0.00480252 1.32631e-18 0.00480252)
(0.00480635 -0.00222383 -6.3706e-05 0.00480635 2.05854e-18 0.00480635)
(0.00480635 -0.00222383 -6.3706e-05 0.00480635 1.35841e-18 0.00480635)
(0.00480975 -0.00222523 -6.46771e-05 0.00480975 2.13299e-18 0.00480975)
(0.00480975 -0.00222523 -6.46771e-05 0.00480975 1.41838e-18 0.00480975)
(0.00481275 -0.00222645 -6.56577e-05 0.00481275 2.20888e-18 0.00481275)
(0.00481275 -0.00222645 -6.56577e-05 0.00481275 1.50341e-18 0.00481275)
(0.00481534 -0.00222751 -6.6648e-05 0.00481534 2.26916e-18 0.00481534)
(0.00481534 -0.00222751 -6.6648e-05 0.00481534 1.52604e-18 0.00481534)
(0.00481754 -0.0022284 -6.76481e-05 0.00481754 2.29624e-18 0.00481754)
(0.00481754 -0.0022284 -6.76481e-05 0.00481754 1.5564e-18 0.00481754)
(0.00481937 -0.00222913 -6.86583e-05 0.00481937 2.37726e-18 0.00481937)
(0.00481937 -0.00222913 -6.86583e-05 0.00481937 1.60324e-18 0.00481937)
(0.00482082 -0.00222971 -6.96785e-05 0.00482082 2.48011e-18 0.00482082)
(0.00482082 -0.00222971 -6.96785e-05 0.00482082 1.69867e-18 0.00482082)
(0.00482191 -0.00223013 -7.07089e-05 0.00482191 2.5452e-18 0.00482191)
(0.00482191 -0.00223013 -7.07089e-05 0.00482191 1.68686e-18 0.00482191)
(0.00482265 -0.0022304 -7.17497e-05 0.00482265 2.59363e-18 0.00482265)
(0.00482265 -0.0022304 -7.17497e-05 0.00482265 1.69967e-18 0.00482265)
(0.00482304 -0.00223053 -7.2801e-05 0.00482304 2.63247e-18 0.00482304)
(0.00482304 -0.00223053 -7.2801e-05 0.00482304 1.8177e-18 0.00482304)
(0.0048231 -0.00223052 -7.38629e-05 0.0048231 2.70133e-18 0.0048231)
(0.0048231 -0.00223052 -7.38629e-05 0.0048231 1.88512e-18 0.0048231)
(0.00482283 -0.00223036 -7.49355e-05 0.00482283 2.77408e-18 0.00482283)
(0.00482283 -0.00223036 -7.49355e-05 0.00482283 1.88862e-18 0.00482283)
(0.00482223 -0.00223007 -7.6019e-05 0.00482223 2.84553e-18 0.00482223)
(0.00482223 -0.00223007 -7.6019e-05 0.00482223 1.96673e-18 0.00482223)
(0.00482133 -0.00222965 -7.71134e-05 0.00482133 2.92503e-18 0.00482133)
(0.00482133 -0.00222965 -7.71134e-05 0.00482133 2.07017e-18 0.00482133)
(0.00482012 -0.0022291 -7.82189e-05 0.00482012 2.90853e-18 0.00482012)
(0.00482012 -0.0022291 -7.82189e-05 0.00482012 2.07829e-18 0.00482012)
(0.0048186 -0.00222842 -7.93356e-05 0.0048186 1.56922e-19 0.0048186)
(0.0048186 -0.00222842 -7.93356e-05 0.0048186 2.07622e-18 0.0048186)
(0.0048168 -0.00222761 -8.04637e-05 0.0048168 -1.94265e-18 0.0048168)
(0.0048168 -0.00222761 -8.04637e-05 0.0048168 2.11829e-18 0.0048168)
(0.0048147 -0.00222668 -8.16032e-05 0.0048147 -1.89075e-18 0.0048147)
(0.0048147 -0.00222668 -8.16032e-05 0.0048147 2.18891e-18 0.0048147)
(0.00481233 -0.00222563 -8.27543e-05 0.00481233 -1.68601e-18 0.00481233)
(0.00481233 -0.00222563 -8.27543e-05 0.00481233 2.24986e-18 0.00481233)
(0.00480968 -0.00222447 -8.3917e-05 0.00480968 -1.56979e-18 0.00480968)
(0.00480968 -0.00222447 -8.3917e-05 0.00480968 2.32049e-18 0.00480968)
(0.00480676 -0.00222318 -8.50916e-05 0.00480676 -1.77147e-18 0.00480676)
(0.00480676 -0.00222318 -8.50916e-05 0.00480676 2.31772e-18 0.00480676)
(0.00480358 -0.00222179 -8.62781e-05 0.00480358 -2.10343e-18 0.00480358)
(0.00480358 -0.00222179 -8.62781e-05 0.00480358 2.44648e-18 0.00480358)
(0.00480014 -0.00222028 -8.74766e-05 0.00480014 -1.92921e-18 0.00480014)
(0.00480014 -0.00222028 -8.74766e-05 0.00480014 2.59159e-18 0.00480014)
(0.00479644 -0.00221866 -8.86873e-05 0.00479644 -1.734e-18 0.00479644)
(0.00479644 -0.00221866 -8.86873e-05 0.00479644 2.57502e-18 0.00479644)
(0.0047925 -0.00221694 -8.99103e-05 0.0047925 -2.00639e-18 0.0047925)
(0.0047925 -0.00221694 -8.99103e-05 0.0047925 2.65544e-18 0.0047925)
(0.00478831 -0.0022151 -9.11456e-05 0.00478831 -2.04183e-18 0.00478831)
(0.00478831 -0.0022151 -9.11456e-05 0.00478831 2.80254e-18 0.00478831)
(0.00478388 -0.00221317 -9.23934e-05 0.00478388 -1.85833e-18 0.00478388)
(0.00478388 -0.00221317 -9.23934e-05 0.00478388 2.94445e-18 0.00478388)
(0.00477921 -0.00221113 -9.36538e-05 0.00477921 -1.79797e-18 0.00477921)
(0.00477921 -0.00221113 -9.36538e-05 0.00477921 2.88321e-18 0.00477921)
(0.00477432 -0.00220899 -9.4927e-05 0.00477432 -1.58841e-18 0.00477432)
(0.00477432 -0.00220899 -9.4927e-05 0.00477432 3.06086e-18 0.00477432)
(0.00476919 -0.00220676 -9.62129e-05 0.00476919 -1.51965e-18 0.00476919)
(0.00476919 -0.00220676 -9.62129e-05 0.00476919 3.24957e-18 0.00476919)
(0.00476385 -0.00220442 -9.75118e-05 0.00476385 -1.62451e-18 0.00476385)
(0.00476385 -0.00220442 -9.75118e-05 0.00476385 3.19491e-18 0.00476385)
(0.00475828 -0.00220199 -9.88237e-05 0.00475828 -1.58571e-18 0.00475828)
(0.00475828 -0.00220199 -9.88237e-05 0.00475828 3.23462e-18 0.00475828)
(0.0047525 -0.00219946 -0.000100149 0.0047525 -1.58685e-18 0.0047525)
(0.0047525 -0.00219946 -0.000100149 0.0047525 3.39911e-18 0.0047525)
(0.00474651 -0.00219684 -0.000101487 0.00474651 -1.65308e-18 0.00474651)
(0.00474651 -0.00219684 -0.000101487 0.00474651 3.5301e-18 0.00474651)
(0.0047403 -0.00219413 -0.000102839 0.0047403 -1.46164e-18 0.0047403)
(0.0047403 -0.00219413 -0.000102839 0.0047403 3.71516e-18 0.0047403)
(0.00473389 -0.00219133 -0.000104204 0.00473389 -1.06089e-18 0.00473389)
(0.00473389 -0.00219133 -0.000104204 0.00473389 4.02177e-18 0.00473389)
(0.00472728 -0.00218843 -0.000105582 0.00472728 -7.61324e-19 0.00472728)
(0.00472728 -0.00218843 -0.000105582 0.00472728 4.03444e-18 0.00472728)
(0.00472047 -0.00218545 -0.000106975 0.00472047 -9.86205e-19 0.00472047)
(0.00472047 -0.00218545 -0.000106975 0.00472047 4.02357e-18 0.00472047)
(0.00471347 -0.00218238 -0.000108381 0.00471347 -1.34951e-18 0.00471347)
(0.00471347 -0.00218238 -0.000108381 0.00471347 4.23758e-18 0.00471347)
(0.00470627 -0.00217923 -0.000109801 0.00470627 -1.5779e-18 0.00470627)
(0.00470627 -0.00217923 -0.000109801 0.00470627 4.30558e-18 0.00470627)
(0.00469887 -0.00217599 -0.000111234 0.00469887 -1.69268e-18 0.00469887)
(0.00469887 -0.00217599 -0.000111234 0.00469887 4.36632e-18 0.00469887)
(0.00469129 -0.00217266 -0.000112682 0.00469129 -1.85668e-18 0.00469129)
(0.00469129 -0.00217266 -0.000112682 0.00469129 4.42881e-18 0.00469129)
(0.00468353 -0.00216925 -0.000114144 0.00468353 -1.81955e-18 0.00468353)
(0.00468353 -0.00216925 -0.000114144 0.00468353 4.45906e-18 0.00468353)
(0.00467558 -0.00216576 -0.00011562 0.00467558 -1.78325e-18 0.00467558)
(0.00467558 -0.00216576 -0.00011562 0.00467558 4.58461e-18 0.00467558)
(0.00466745 -0.00216219 -0.000117111 0.00466745 -2.58337e-18 0.00466745)
(0.00466745 -0.00216219 -0.000117111 0.00466745 4.91951e-18 0.00466745)
(0.00465914 -0.00215853 -0.000118615 0.00465914 -2.96923e-18 0.00465914)
(0.00465914 -0.00215853 -0.000118615 0.00465914 5.0714e-18 0.00465914)
(0.00465065 -0.0021548 -0.000120135 0.00465065 -2.72698e-18 0.00465065)
(0.00465065 -0.0021548 -0.000120135 0.00465065 5.02234e-18 0.00465065)
(0.00464199 -0.00215098 -0.000121668 0.00464199 -2.72892e-18 0.00464199)
(0.00464199 -0.00215098 -0.000121668 0.00464199 5.2317e-18 0.00464199)
(0.00463316 -0.00214709 -0.000123217 0.00463316 -2.91037e-18 0.00463316)
(0.00463316 -0.00214709 -0.000123217 0.00463316 5.72018e-18 0.00463316)
(0.00462415 -0.00214311 -0.00012478 0.00462415 -1.85915e-18 0.00462415)
(0.00462415 -0.00214311 -0.00012478 0.00462415 6.0401e-18 0.00462415)
(0.00461498 -0.00213906 -0.000126358 0.00461498 -1.60478e-18 0.00461498)
(0.00461498 -0.00213906 -0.000126358 0.00461498 5.96536e-18 0.00461498)
(0.00460564 -0.00213494 -0.00012795 0.00460564 -2.67517e-18 0.00460564)
(0.00460564 -0.00213494 -0.00012795 0.00460564 5.984e-18 0.00460564)
(0.00459613 -0.00213073 -0.000129558 0.00459613 -2.28907e-18 0.00459613)
(0.00459613 -0.00213073 -0.000129558 0.00459613 6.2141e-18 0.00459613)
(0.00458646 -0.00212645 -0.00013118 0.00458646 -2.2146e-18 0.00458646)
(0.00458646 -0.00212645 -0.00013118 0.00458646 6.4347e-18 0.00458646)
(0.00457663 -0.0021221 -0.000132817 0.00457663 -2.43638e-18 0.00457663)
(0.00457663 -0.0021221 -0.000132817 0.00457663 6.7572e-18 0.00457663)
(0.00456663 -0.00211766 -0.00013447 0.00456663 -1.47208e-18 0.00456663)
(0.00456663 -0.00211766 -0.00013447 0.00456663 7.1071e-18 0.00456663)
(0.00455648 -0.00211316 -0.000136137 0.00455648 -1.36062e-18 0.00455648)
(0.00455648 -0.00211316 -0.000136137 0.00455648 7.51768e-18 0.00455648)
(0.00454616 -0.00210858 -0.00013782 0.00454616 -1.47342e-18 0.00454616)
(0.00454616 -0.00210858 -0.00013782 0.00454616 7.94731e-18 0.00454616)
(0.00453569 -0.00210392 -0.000139518 0.00453569 -5.87791e-19 0.00453569)
(0.00453569 -0.00210392 -0.000139518 0.00453569 8.14942e-18 0.00453569)
(0.00452507 -0.0020992 -0.000141231 0.00452507 -4.00165e-19 0.00452507)
(0.00452507 -0.0020992 -0.000141231 0.00452507 8.33508e-18 0.00452507)
(0.00451428 -0.00209439 -0.000142959 0.00451428 5.05666e-19 0.00451428)
(0.00451428 -0.00209439 -0.000142959 0.00451428 8.34785e-18 0.00451428)
(0.00450335 -0.00208952 -0.000144702 0.00450335 8.48131e-19 0.00450335)
(0.00450335 -0.00208952 -0.000144702 0.00450335 8.33005e-18 0.00450335)
(0.00449225 -0.00208457 -0.000146461 0.00449225 1.93459e-19 0.00449225)
(0.00449225 -0.00208457 -0.000146461 0.00449225 8.40339e-18 0.00449225)
(0.00448101 -0.00207955 -0.000148235 0.00448101 -1.54792e-18 0.00448101)
(0.00448101 -0.00207955 -0.000148235 0.00448101 8.40167e-18 0.00448101)
(0.00446962 -0.00207446 -0.000150024 0.00446962 -1.35943e-18 0.00446962)
(0.00446962 -0.00207446 -0.000150024 0.00446962 8.38638e-18 0.00446962)
(0.00445807 -0.00206929 -0.000151829 0.00445807 -2.83508e-19 0.00445807)
(0.00445807 -0.00206929 -0.000151829 0.00445807 8.65904e-18 0.00445807)
(0.00444637 -0.00206405 -0.000153649 0.00444637 2.08665e-19 0.00444637)
(0.00444637 -0.00206405 -0.000153649 0.00444637 8.97868e-18 0.00444637)
(0.00443453 -0.00205874 -0.000155484 0.00443453 2.83408e-19 0.00443453)
(0.00443453 -0.00205874 -0.000155484 0.00443453 9.13552e-18 0.00443453)
(0.00442253 -0.00205335 -0.000157334 0.00442253 3.83562e-19 0.00442253)
(0.00442253 -0.00205335 -0.000157334 0.00442253 9.14577e-18 0.00442253)
(0.00441038 -0.0020479 -0.0001592 0.00441038 3.12168e-19 0.00441038)
(0.00441038 -0.0020479 -0.0001592 0.00441038 9.2123e-18 0.00441038)
(0.00439809 -0.00204237 -0.000161081 0.00439809 -1.87026e-19 0.00439809)
(0.00439809 -0.00204237 -0.000161081 0.00439809 9.61599e-18 0.00439809)
(0.00438565 -0.00203677 -0.000162977 0.00438565 -1.41641e-19 0.00438565)
(0.00438565 -0.00203677 -0.000162977 0.00438565 9.75932e-18 0.00438565)
(0.00437306 -0.00203109 -0.000164888 0.00437306 -4.4468e-19 0.00437306)
(0.00437306 -0.00203109 -0.000164888 0.00437306 9.71629e-18 0.00437306)
(0.00436032 -0.00202535 -0.000166814 0.00436032 -9.40221e-19 0.00436032)
(0.00436032 -0.00202535 -0.000166814 0.00436032 9.78812e-18 0.00436032)
(0.00434743 -0.00201953 -0.000168756 0.00434743 -1.64261e-18 0.00434743)
(0.00434743 -0.00201953 -0.000168756 0.00434743 1.06858e-17 0.00434743)
(0.0043344 -0.00201363 -0.000170712 0.0043344 -2.41005e-18 0.0043344)
(0.0043344 -0.00201363 -0.000170712 0.0043344 1.11559e-17 0.0043344)
(0.00432122 -0.00200767 -0.000172683 0.00432122 -2.96196e-18 0.00432122)
(0.00432122 -0.00200767 -0.000172683 0.00432122 1.14301e-17 0.00432122)
(0.00430789 -0.00200163 -0.000174668 0.00430789 -3.5959e-18 0.00430789)
(0.00430789 -0.00200163 -0.000174668 0.00430789 1.16445e-17 0.00430789)
(0.00429442 -0.00199551 -0.000176669 0.00429442 -3.56346e-18 0.00429442)
(0.00429442 -0.00199551 -0.000176669 0.00429442 1.18108e-17 0.00429442)
(0.00428079 -0.00198933 -0.000178684 0.00428079 -3.6191e-18 0.00428079)
(0.00428079 -0.00198933 -0.000178684 0.00428079 1.22955e-17 0.00428079)
(0.00426702 -0.00198307 -0.000180713 0.00426702 -2.54013e-18 0.00426702)
(0.00426702 -0.00198307 -0.000180713 0.00426702 1.22362e-17 0.00426702)
(0.0042531 -0.00197673 -0.000182756 0.0042531 -4.40358e-19 0.0042531)
(0.0042531 -0.00197673 -0.000182756 0.0042531 1.2428e-17 0.0042531)
(0.00423903 -0.00197032 -0.000184814 0.00423903 8.75109e-19 0.00423903)
(0.00423903 -0.00197032 -0.000184814 0.00423903 1.26269e-17 0.00423903)
(0.00422481 -0.00196383 -0.000186885 0.00422481 2.16633e-18 0.00422481)
(0.00422481 -0.00196383 -0.000186885 0.00422481 1.24806e-17 0.00422481)
(0.00421044 -0.00195727 -0.000188971 0.00421044 4.813e-18 0.00421044)
(0.00421044 -0.00195727 -0.000188971 0.00421044 1.43682e-17 0.00421044)
(0.00419593 -0.00195062 -0.000191069 0.00419593 6.97954e-18 0.00419593)
(0.00419593 -0.00195062 -0.000191069 0.00419593 1.5062e-17 0.00419593)
(0.00418126 -0.00194391 -0.000193182 0.00418126 6.79522e-18 0.00418126)
(0.00418126 -0.00194391 -0.000193182 0.00418126 1.31882e-17 0.00418126)
(0.00416644 -0.00193711 -0.000195307 0.00416644 5.79924e-18 0.00416644)
(0.00416644 -0.00193711 -0.000195307 0.00416644 1.36735e-17 0.00416644)
(0.00415147 -0.00193024 -0.000197445 0.00415147 5.02183e-18 0.00415147)
(0.00415147 -0.00193024 -0.000197445 0.00415147 1.51622e-17 0.00415147)
(0.00413634 -0.00192329 -0.000199596 0.00413634 5.50656e-18 0.00413634)
(0.00413634 -0.00192329 -0.000199596 0.00413634 1.55534e-17 0.00413634)