/*--------------------------------*- C++ -*----------------------------------*\
| =========                 |                                                 |
| \\      /  F ield         | OpenFOAM: The Open Source CFD Toolbox           |
|  \\    /   O peration     | Version:  2012                                  |
|   \\  /    A nd           | Website:  www.openfoam.com                      |
|    \\/     M anipulation  |                                                 |
\*---------------------------------------------------------------------------*/
FoamFile
{
    version     2.0;
    format      ascii;
    class       volTensorField;
    location    "17000";
    object      grad(U);
}
// * * * * * * * * * * * * * * * * * * * * * * * * * * * * * * * * * * * * * //

dimensions      [0 0 -1 0 0 0 0];


internalField   nonuniform List<tensor> 
40
(
(0 0 2.76949e-29 52.8247 9.73856e-14 6.31089e-30 4.82857 6.308e-15 -2.42405e-15)
(0 0 -1.40386e-30 52.8247 1.21105e-13 -1.13026e-14 4.82857 5.8403e-15 -6.74279e-15)
(3.34027e-15 -7.10303e-30 -1.72708e-29 14.1011 5.53327e-15 -2.138e-14 6.11742 9.95585e-15 -9.27522e-15)
(1.6425e-14 0 -1.98373e-31 14.1011 1.39425e-29 -7.88861e-31 6.11742 3.15544e-30 -1.42943e-15)
(4.22976e-16 -1.7856e-31 0 1.93716 -3.60432e-15 -4.48918e-15 2.77793 5.63237e-15 -3.24058e-15)
(-2.52897e-15 0 0 1.93716 -3.41107e-16 -1.55365e-14 2.77793 3.83069e-15 -4.78894e-15)
(6.39784e-15 1.62267e-30 0 0.319874 -1.29813e-29 -1.08818e-14 2.76744 0 1.57772e-29)
(9.20082e-15 3.51503e-30 0 0.319874 -3.99107e-16 -1.08515e-14 2.76744 4.29015e-15 7.88861e-30)
(-2.87552e-15 -4.20442e-30 -3.69469e-32 6.52256e-16 -1.60337e-17 -5.18125e-17 7.10465e-15 -2.19963e-16 8.82486e-16)
(-3.15544e-30 -8.41906e-30 5.60519e-45 -6.90489e-29 -2.39056e-18 1.27023e-43 -7.75181e-19 -3.27957e-17 3.69799e-32)
(0 -2.63224e-31 -1.40386e-30 52.8247 7.35233e-15 -3.26359e-14 -4.82857 -6.308e-15 2.42405e-15)
(0 1.75482e-31 0 52.8247 6.81306e-17 -2.24721e-42 -4.82857 -5.8403e-15 2.77506e-28)
(-1.11045e-15 -2.2197e-31 8.87878e-31 14.1011 2.45474e-15 1.67208e-14 -6.11742 -9.95585e-15 9.46885e-15)
(1.6234e-14 -4.50198e-30 4.43939e-31 14.1011 2.05104e-29 2.12514e-14 -6.11742 -1.61272e-14 1.42943e-15)
(2.52897e-15 1.12309e-30 2.24617e-30 1.93716 2.70339e-15 1.25226e-14 -2.77793 -5.63237e-15 3.24058e-15)
(0 0 0 1.93716 3.01249e-15 1.34928e-14 -2.77793 -3.83069e-15 4.78894e-15)
(-2.3002e-15 0 0 0.319874 -1.01104e-15 1.21146e-14 -2.76744 -1.16926e-14 -1.57772e-29)
(0 0 0 0.319874 -8.06998e-16 1.25289e-14 -2.76744 -7.48178e-15 -7.88861e-30)
(3.41081e-16 -3.03233e-30 1.60359e-31 -1.38778e-17 -9.86076e-32 0 3.55271e-15 0 -9.86076e-32)
(7.46192e-15 -1.19913e-29 -5.73653e-29 6.52256e-16 -1.42903e-17 2.05494e-16 -1.06581e-14 1.96046e-16 6.31089e-29)
(2.87862e-15 9.52428e-31 0 -1.34492e-08 2.62436e-17 7.92063e-15 1.84508e-07 3.60032e-16 1.08521e-16)
(1.15052e-14 1.25028e-30 0 -1.34492e-08 5.6145e-17 7.91955e-15 1.84508e-07 7.70243e-16 -9.70413e-16)
(2.3002e-15 -6.39964e-32 3.97404e-32 -0.319874 2.46519e-32 1.99709e-15 2.76744 4.61142e-16 -5.2103e-16)
(9.20082e-15 0 0 -0.319874 -3.75968e-18 2.50775e-15 2.76744 4.15024e-16 -6.29935e-17)
(-1.68302e-15 4.21158e-31 0 -1.93716 -8.61003e-16 0 2.77793 4.69185e-16 8.74513e-16)
(-2.52897e-15 -3.99001e-47 -1.40386e-30 -1.93716 0 1.10168e-16 2.77793 0 9.65156e-16)
(-2.43612e-15 0 4.43939e-31 -14.1011 0 2.28007e-15 6.11742 -9.86076e-32 -6.28114e-16)
(-1.8083e-15 -2.2197e-31 -4.43939e-31 -14.1011 -4.26967e-16 1.39559e-15 6.11742 3.47284e-17 1.96797e-16)
(0 8.77412e-32 -2.07396e-30 -52.8247 3.93156e-15 1.05833e-14 4.82857 -1.98023e-16 -4.57148e-16)
(0 0 0 -52.8247 -4.93038e-32 3.0801e-15 4.82857 0 6.11639e-21)
(0 0 -1.43755e-29 -1.34494e-08 1.54626e-17 -8.04677e-15 -1.84508e-07 -2.12128e-16 -1.08521e-16)
(-1.55515e-14 -3.50325e-46 0 -1.34492e-08 0 -7.88978e-15 -1.84508e-07 -8.18427e-31 9.70413e-16)
(0 8.87878e-32 0 -0.319874 -9.62061e-17 -1.99213e-15 -2.76744 -4.61142e-16 5.2103e-16)
(9.20082e-15 -1.08449e-31 3.4636e-31 -0.319874 0 -2.50775e-15 -2.76744 -4.15024e-16 6.29935e-17)
(0 1.40386e-31 1.89175e-44 -1.93716 -5.67973e-16 -1.995e-44 -2.77793 -4.69185e-16 -3.42168e-29)
(0 -1.40386e-31 1.12309e-30 -1.93716 -2.648e-16 -6.01088e-16 -2.77793 -1.03016e-15 -9.65156e-16)
(-1.99932e-15 3.60701e-31 0 -14.1011 4.09098e-16 -3.34556e-15 -6.11742 8.23517e-16 6.28114e-16)
(0 -3.32954e-31 -4.43939e-31 -14.1011 -8.54252e-16 -2.93589e-15 -6.11742 -3.47284e-17 -1.96797e-16)
(-7.90302e-16 3.70434e-31 0 -52.8247 7.87388e-16 -5.54363e-15 -4.82857 1.98023e-16 4.57148e-16)
(0 -9.59669e-33 0 -52.8247 -6.77847e-16 -3.76945e-15 -4.82857 -5.81124e-17 -6.11639e-21)
)
;

boundaryField
{
    walls
    {
        type            extrapolatedCalculated;
        value           nonuniform List<tensor> 8((0 0 2.76949e-29 70.3933 1.70087e-13 9.10196e-15 4.82857 6.308e-15 -2.42405e-15) (0 -2.63224e-31 -1.40386e-30 70.3933 1.3835e-14 -7.978e-14 -4.82857 -6.308e-15 2.42405e-15) (0 0 -1.40386e-30 70.3933 1.69494e-13 -3.71351e-14 4.82857 5.8403e-15 -6.74279e-15) (0 1.75482e-31 0 70.3933 7.91535e-16 -1.59465e-13 -4.82857 -5.8403e-15 2.77506e-28) (0 8.77412e-32 -2.07396e-30 -70.3933 5.42706e-15 2.30713e-14 4.82857 -1.98023e-16 -4.57148e-16) (-7.90302e-16 3.70434e-31 0 -70.3933 3.46691e-16 -9.74223e-15 -4.82857 1.98023e-16 4.57148e-16) (0 0 0 -70.3933 -1.25369e-15 2.85003e-15 4.82857 0 6.11639e-21) (0 -9.59669e-33 0 -70.3933 -4.40698e-16 -2.85021e-15 -4.82857 -5.81124e-17 -6.11639e-21));
    }
    inlet
    {
        type            cyclic;
    }
    outlet
    {
        type            cyclic;
    }
    sides
    {
        type            empty;
    }
}


// ************************************************************************* //
