/*--------------------------------*- C++ -*----------------------------------*\
| =========                 |                                                 |
| \\      /  F ield         | OpenFOAM: The Open Source CFD Toolbox           |
|  \\    /   O peration     | Version:  2012                                  |
|   \\  /    A nd           | Website:  www.openfoam.com                      |
|    \\/     M anipulation  |                                                 |
\*---------------------------------------------------------------------------*/
FoamFile
{
    version     2.0;
    format      ascii;
    class       volVectorField;
    location    "17000";
    object      U;
}
// * * * * * * * * * * * * * * * * * * * * * * * * * * * * * * * * * * * * * //

dimensions      [0 1 -1 0 0 0 0];


internalField   nonuniform List<vector> 
40
(
(0.241428 5.8335e-16 3.1217e-17)
(0.241428 5.81316e-16 -1.27363e-16)
(0.744724 9.35721e-16 -8.80372e-16)
(0.744724 1.61936e-15 8.00561e-17)
(0.89766 3.21002e-16 -1.11225e-15)
(0.89766 1.97384e-16 -1.15027e-15)
(0.967108 7.3189e-16 -1.66068e-15)
(0.967108 6.24636e-16 -1.69542e-15)
(1.03629 -1.08701e-15 -9.75108e-15)
(1.03629 -1.08679e-15 -9.76885e-15)
(0.241428 4.74501e-17 -2.73622e-16)
(0.241428 2.71473e-18 -5.46917e-16)
(0.744724 5.98642e-17 -6.6513e-17)
(0.744724 -6.63956e-18 -2.22999e-16)
(0.89766 2.42235e-16 7.88195e-16)
(0.89766 1.85685e-16 6.71377e-16)
(0.967108 4.37366e-16 1.66068e-15)
(0.967108 4.37591e-16 1.69542e-15)
(1.03629 -1.09251e-15 9.83933e-15)
(1.03629 -1.08761e-15 9.76885e-15)
(1.03629 1.86915e-16 -2.53946e-15)
(1.03629 1.81963e-16 -2.51641e-15)
(0.967108 2.29594e-17 -1.34351e-16)
(0.967108 2.87818e-17 -1.39141e-16)
(0.89766 2.49888e-17 -2.065e-16)
(0.89766 7.61485e-17 -3.36003e-17)
(0.744724 -5.3389e-17 -1.15425e-16)
(0.744724 -1.11006e-17 -5.70286e-17)
(0.241428 -1.86132e-17 -7.91278e-17)
(0.241428 4.29977e-18 -9.77478e-18)
(1.03629 1.95916e-16 2.55031e-15)
(1.03629 2.01219e-16 2.41937e-15)
(0.967108 2.31548e-17 8.22475e-17)
(0.967108 1.27206e-17 1.32842e-16)
(0.89766 2.19297e-17 2.93951e-16)
(0.89766 5.03945e-17 1.30116e-16)
(0.744724 -2.89627e-17 5.2614e-17)
(0.744724 1.45734e-17 7.67083e-17)
(0.241428 -1.18905e-18 3.3413e-17)
(0.241428 1.51146e-18 9.77539e-18)
)
;

boundaryField
{
    walls
    {
        type            fixedValue;
        value           uniform (0 0 0);
    }
    inlet
    {
        type            cyclic;
    }
    outlet
    {
        type            cyclic;
    }
    sides
    {
        type            empty;
    }
}


// ************************************************************************* //
