/*--------------------------------*- C++ -*----------------------------------*\
| =========                 |                                                 |
| \\      /  F ield         | OpenFOAM: The Open Source CFD Toolbox           |
|  \\    /   O peration     | Version:  2012                                  |
|   \\  /    A nd           | Website:  www.openfoam.com                      |
|    \\/     M anipulation  |                                                 |
\*---------------------------------------------------------------------------*/
FoamFile
{
    version     2.0;
    format      ascii;
    class       volScalarField;
    location    "5000";
    object      k;
}
// * * * * * * * * * * * * * * * * * * * * * * * * * * * * * * * * * * * * * //

dimensions      [0 2 -2 0 0 0 0];


internalField   nonuniform List<scalar> 
5120
(
1.55757e-07
1.55757e-07
2.29762e-08
2.29762e-08
6.93228e-09
6.93228e-09
3.06642e-09
3.06642e-09
1.79328e-09
1.79328e-09
1.39883e-09
1.39883e-09
1.45117e-09
1.45117e-09
1.83082e-09
1.83082e-09
2.5184e-09
2.5184e-09
3.53438e-09
3.53438e-09
4.91848e-09
4.91848e-09
6.72161e-09
6.72161e-09
9.00243e-09
9.00243e-09
1.18257e-08
1.18257e-08
1.52617e-08
1.52617e-08
1.93854e-08
1.93854e-08
2.4277e-08
2.4277e-08
3.00213e-08
3.00213e-08
3.67078e-08
3.67078e-08
4.44313e-08
4.44313e-08
5.32911e-08
5.32911e-08
6.33919e-08
6.33919e-08
7.48433e-08
7.48433e-08
8.77603e-08
8.77603e-08
1.02263e-07
1.02263e-07
1.18478e-07
1.18478e-07
1.36536e-07
1.36536e-07
1.56575e-07
1.56575e-07
1.78736e-07
1.78736e-07
2.0317e-07
2.0317e-07
2.3003e-07
2.3003e-07
2.59478e-07
2.59478e-07
2.9168e-07
2.9168e-07
3.26808e-07
3.26808e-07
3.65043e-07
3.65043e-07
4.06568e-07
4.06568e-07
4.51576e-07
4.51576e-07
5.00263e-07
5.00263e-07
5.52833e-07
5.52833e-07
6.09494e-07
6.09494e-07
6.70463e-07
6.70463e-07
7.35959e-07
7.35959e-07
8.06208e-07
8.06208e-07
8.81443e-07
8.81443e-07
9.61899e-07
9.61899e-07
1.04782e-06
1.04782e-06
1.13945e-06
1.13945e-06
1.23703e-06
1.23703e-06
1.34083e-06
1.34083e-06
1.4511e-06
1.4511e-06
1.5681e-06
1.5681e-06
1.69209e-06
1.69209e-06
1.82334e-06
1.82334e-06
1.96211e-06
1.96211e-06
2.10866e-06
2.10866e-06
2.26327e-06
2.26327e-06
2.4262e-06
2.4262e-06
2.59772e-06
2.59772e-06
2.77807e-06
2.77807e-06
2.96754e-06
2.96754e-06
3.16636e-06
3.16636e-06
3.3748e-06
3.3748e-06
3.59309e-06
3.59309e-06
3.82148e-06
3.82148e-06
4.0602e-06
4.0602e-06
4.30946e-06
4.30946e-06
4.5695e-06
4.5695e-06
4.84051e-06
4.84051e-06
5.12269e-06
5.12269e-06
5.41622e-06
5.41622e-06
5.72127e-06
5.72127e-06
6.03801e-06
6.03801e-06
6.36656e-06
6.36656e-06
6.70707e-06
6.70707e-06
7.05965e-06
7.05965e-06
7.42438e-06
7.42438e-06
7.80136e-06
7.80136e-06
8.19064e-06
8.19064e-06
8.59226e-06
8.59226e-06
9.00626e-06
9.00626e-06
9.43263e-06
9.43263e-06
9.87137e-06
9.87137e-06
1.03224e-05
1.03224e-05
1.07858e-05
1.07858e-05
1.12613e-05
1.12613e-05
1.17489e-05
1.17489e-05
1.22485e-05
1.22485e-05
1.276e-05
1.276e-05
1.32831e-05
1.32831e-05
1.38177e-05
1.38177e-05
1.43636e-05
1.43636e-05
1.49206e-05
1.49206e-05
1.54884e-05
1.54884e-05
1.60668e-05
1.60668e-05
1.66554e-05
1.66554e-05
1.72541e-05
1.72541e-05
1.78623e-05
1.78623e-05
1.84799e-05
1.84799e-05
1.91065e-05
1.91065e-05
1.97416e-05
1.97416e-05
2.03849e-05
2.03849e-05
2.1036e-05
2.1036e-05
2.16945e-05
2.16945e-05
2.23598e-05
2.23598e-05
2.30317e-05
2.30317e-05
2.37095e-05
2.37095e-05
2.43929e-05
2.43929e-05
2.50813e-05
2.50813e-05
2.57743e-05
2.57743e-05
2.64714e-05
2.64714e-05
2.7172e-05
2.7172e-05
2.78756e-05
2.78756e-05
2.85817e-05
2.85817e-05
2.92899e-05
2.92899e-05
2.99995e-05
2.99995e-05
3.071e-05
3.071e-05
3.14209e-05
3.14209e-05
3.21316e-05
3.21316e-05
3.28417e-05
3.28417e-05
3.35505e-05
3.35505e-05
3.42576e-05
3.42576e-05
3.49625e-05
3.49625e-05
3.56645e-05
3.56645e-05
3.63632e-05
3.63632e-05
3.70581e-05
3.70581e-05
3.77487e-05
3.77487e-05
3.84344e-05
3.84344e-05
3.91148e-05
3.91148e-05
3.97894e-05
3.97894e-05
4.04577e-05
4.04577e-05
4.11192e-05
4.11192e-05
4.17736e-05
4.17736e-05
4.24203e-05
4.24203e-05
4.30589e-05
4.30589e-05
4.36891e-05
4.36891e-05
4.43104e-05
4.43104e-05
4.49224e-05
4.49224e-05
4.55247e-05
4.55247e-05
4.6117e-05
4.6117e-05
4.6699e-05
4.6699e-05
4.72703e-05
4.72703e-05
4.78306e-05
4.78306e-05
4.83795e-05
4.83795e-05
4.89169e-05
4.89169e-05
4.94424e-05
4.94424e-05
4.99558e-05
4.99558e-05
5.04569e-05
5.04569e-05
5.09454e-05
5.09454e-05
5.14212e-05
5.14212e-05
5.18839e-05
5.18839e-05
5.23336e-05
5.23336e-05
5.277e-05
5.277e-05
5.3193e-05
5.3193e-05
5.36025e-05
5.36025e-05
5.39984e-05
5.39984e-05
5.43805e-05
5.43805e-05
5.47488e-05
5.47488e-05
5.51034e-05
5.51034e-05
5.5444e-05
5.5444e-05
5.57707e-05
5.57707e-05
5.60836e-05
5.60836e-05
5.63825e-05
5.63825e-05
5.66675e-05
5.66675e-05
5.69388e-05
5.69388e-05
5.71962e-05
5.71962e-05
5.74399e-05
5.74399e-05
5.76699e-05
5.76699e-05
5.78864e-05
5.78864e-05
5.80894e-05
5.80894e-05
5.82791e-05
5.82791e-05
5.84556e-05
5.84556e-05
5.8619e-05
5.8619e-05
5.87694e-05
5.87694e-05
5.89071e-05
5.89071e-05
5.90323e-05
5.90323e-05
5.9145e-05
5.9145e-05
5.92455e-05
5.92455e-05
5.93339e-05
5.93339e-05
5.94106e-05
5.94106e-05
5.94756e-05
5.94756e-05
5.95293e-05
5.95293e-05
5.95719e-05
5.95719e-05
5.96035e-05
5.96035e-05
5.96245e-05
5.96245e-05
5.9635e-05
5.9635e-05
5.96354e-05
5.96354e-05
5.96259e-05
5.96259e-05
5.96068e-05
5.96068e-05
5.95783e-05
5.95783e-05
5.95407e-05
5.95407e-05
5.94944e-05
5.94944e-05
5.94394e-05
5.94394e-05
5.93763e-05
5.93763e-05
5.93051e-05
5.93051e-05
5.92263e-05
5.92263e-05
5.91401e-05
5.91401e-05
5.90467e-05
5.90467e-05
5.89466e-05
5.89466e-05
5.88399e-05
5.88399e-05
5.8727e-05
5.8727e-05
5.86081e-05
5.86081e-05
5.84836e-05
5.84836e-05
5.83537e-05
5.83537e-05
5.82187e-05
5.82187e-05
5.80789e-05
5.80789e-05
5.79346e-05
5.79346e-05
5.77861e-05
5.77861e-05
5.76336e-05
5.76336e-05
5.74774e-05
5.74774e-05
5.73179e-05
5.73179e-05
5.71551e-05
5.71551e-05
5.69896e-05
5.69896e-05
5.68214e-05
5.68214e-05
5.66509e-05
5.66509e-05
5.64783e-05
5.64783e-05
5.63039e-05
5.63039e-05
5.61279e-05
5.61279e-05
5.59506e-05
5.59506e-05
5.57722e-05
5.57722e-05
5.5593e-05
5.5593e-05
5.54131e-05
5.54131e-05
5.52329e-05
5.52329e-05
5.50525e-05
5.50525e-05
5.48721e-05
5.48721e-05
5.46921e-05
5.46921e-05
5.45125e-05
5.45125e-05
5.43336e-05
5.43336e-05
5.41556e-05
5.41556e-05
5.39787e-05
5.39787e-05
5.38031e-05
5.38031e-05
5.36289e-05
5.36289e-05
5.34564e-05
5.34564e-05
5.32858e-05
5.32858e-05
5.31171e-05
5.31171e-05
5.29505e-05
5.29505e-05
5.27863e-05
5.27863e-05
5.26246e-05
5.26246e-05
5.24655e-05
5.24655e-05
5.23092e-05
5.23092e-05
5.21558e-05
5.21558e-05
5.20054e-05
5.20054e-05
5.18582e-05
5.18582e-05
5.17144e-05
5.17144e-05
5.1574e-05
5.1574e-05
5.14371e-05
5.14371e-05
5.1304e-05
5.1304e-05
5.11746e-05
5.11746e-05
5.10491e-05
5.10491e-05
5.09275e-05
5.09275e-05
5.08101e-05
5.08101e-05
5.06968e-05
5.06968e-05
5.05878e-05
5.05878e-05
5.04832e-05
5.04832e-05
5.0383e-05
5.0383e-05
5.02873e-05
5.02873e-05
5.01962e-05
5.01962e-05
5.01097e-05
5.01097e-05
5.0028e-05
5.0028e-05
4.99511e-05
4.99511e-05
4.9879e-05
4.9879e-05
4.98118e-05
4.98118e-05
4.97495e-05
4.97495e-05
4.96923e-05
4.96923e-05
4.96402e-05
4.96402e-05
4.95931e-05
4.95931e-05
4.95512e-05
4.95512e-05
4.95145e-05
4.95145e-05
4.9483e-05
4.9483e-05
4.94568e-05
4.94568e-05
4.94359e-05
4.94359e-05
4.94203e-05
4.94203e-05
4.941e-05
4.941e-05
4.94052e-05
4.94052e-05
4.94058e-05
4.94058e-05
4.94118e-05
4.94118e-05
4.94233e-05
4.94233e-05
4.94403e-05
4.94403e-05
4.94628e-05
4.94628e-05
4.94908e-05
4.94908e-05
4.95244e-05
4.95244e-05
4.95635e-05
4.95635e-05
4.96082e-05
4.96082e-05
4.96585e-05
4.96585e-05
4.97144e-05
4.97144e-05
4.97759e-05
4.97759e-05
4.98431e-05
4.98431e-05
4.99159e-05
4.99159e-05
4.99944e-05
4.99944e-05
5.00785e-05
5.00785e-05
5.01683e-05
5.01683e-05
5.02638e-05
5.02638e-05
5.0365e-05
5.0365e-05
5.04718e-05
5.04718e-05
5.05844e-05
5.05844e-05
5.07027e-05
5.07027e-05
5.08267e-05
5.08267e-05
5.09564e-05
5.09564e-05
5.10919e-05
5.10919e-05
5.1233e-05
5.1233e-05
5.13799e-05
5.13799e-05
5.15325e-05
5.15325e-05
5.16908e-05
5.16908e-05
5.18548e-05
5.18548e-05
5.20245e-05
5.20245e-05
5.21998e-05
5.21998e-05
5.23808e-05
5.23808e-05
5.25675e-05
5.25675e-05
5.27598e-05
5.27598e-05
5.29577e-05
5.29577e-05
5.31611e-05
5.31611e-05
5.337e-05
5.337e-05
5.35844e-05
5.35844e-05
5.38043e-05
5.38043e-05
5.40295e-05
5.40295e-05
5.42599e-05
5.42599e-05
5.44956e-05
5.44956e-05
5.47365e-05
5.47365e-05
5.49823e-05
5.49823e-05
5.52331e-05
5.52331e-05
5.54887e-05
5.54887e-05
5.5749e-05
5.5749e-05
5.60138e-05
5.60138e-05
5.6283e-05
5.6283e-05
5.65565e-05
5.65565e-05
5.6834e-05
5.6834e-05
5.71153e-05
5.71153e-05
5.74003e-05
5.74003e-05
5.76887e-05
5.76887e-05
5.79802e-05
5.79802e-05
5.82747e-05
5.82747e-05
5.85719e-05
5.85719e-05
5.88715e-05
5.88715e-05
5.91732e-05
5.91732e-05
5.94766e-05
5.94766e-05
5.97816e-05
5.97816e-05
6.00878e-05
6.00878e-05
6.03947e-05
6.03947e-05
6.07023e-05
6.07023e-05
6.101e-05
6.101e-05
6.13175e-05
6.13175e-05
6.16245e-05
6.16245e-05
6.19308e-05
6.19308e-05
6.22358e-05
6.22358e-05
6.25394e-05
6.25394e-05
6.28412e-05
6.28412e-05
6.31409e-05
6.31409e-05
6.34382e-05
6.34382e-05
6.37328e-05
6.37328e-05
6.40246e-05
6.40246e-05
6.43131e-05
6.43131e-05
6.45983e-05
6.45983e-05
6.488e-05
6.488e-05
6.51579e-05
6.51579e-05
6.54319e-05
6.54319e-05
6.5702e-05
6.5702e-05
6.59679e-05
6.59679e-05
6.62296e-05
6.62296e-05
6.64871e-05
6.64871e-05
6.67403e-05
6.67403e-05
6.69893e-05
6.69893e-05
6.7234e-05
6.7234e-05
6.74745e-05
6.74745e-05
6.77108e-05
6.77108e-05
6.7943e-05
6.7943e-05
6.81712e-05
6.81712e-05
6.83955e-05
6.83955e-05
6.8616e-05
6.8616e-05
6.88329e-05
6.88329e-05
6.90462e-05
6.90462e-05
6.92562e-05
6.92562e-05
6.9463e-05
6.9463e-05
6.96667e-05
6.96667e-05
6.98676e-05
6.98676e-05
7.00658e-05
7.00658e-05
7.02614e-05
7.02614e-05
7.04548e-05
7.04548e-05
7.06459e-05
7.06459e-05
7.08351e-05
7.08351e-05
7.10225e-05
7.10225e-05
7.12082e-05
7.12082e-05
7.13926e-05
7.13926e-05
7.15756e-05
7.15756e-05
7.17576e-05
7.17576e-05
7.19387e-05
7.19387e-05
7.2119e-05
7.2119e-05
7.22988e-05
7.22988e-05
7.24781e-05
7.24781e-05
7.26572e-05
7.26572e-05
7.28362e-05
7.28362e-05
7.30153e-05
7.30153e-05
7.31945e-05
7.31945e-05
7.33742e-05
7.33742e-05
7.35543e-05
7.35543e-05
7.37351e-05
7.37351e-05
7.39166e-05
7.39166e-05
7.40991e-05
7.40991e-05
7.42826e-05
7.42826e-05
7.44673e-05
7.44673e-05
7.46533e-05
7.46533e-05
7.48407e-05
7.48407e-05
7.50296e-05
7.50296e-05
7.52201e-05
7.52201e-05
7.54124e-05
7.54124e-05
7.56066e-05
7.56066e-05
7.58028e-05
7.58028e-05
7.60011e-05
7.60011e-05
7.62015e-05
7.62015e-05
7.64042e-05
7.64042e-05
7.66093e-05
7.66093e-05
7.68169e-05
7.68169e-05
7.7027e-05
7.7027e-05
7.72399e-05
7.72399e-05
7.74554e-05
7.74554e-05
7.76739e-05
7.76739e-05
7.78952e-05
7.78952e-05
7.81196e-05
7.81196e-05
7.83471e-05
7.83471e-05
7.85777e-05
7.85777e-05
7.88116e-05
7.88116e-05
7.90489e-05
7.90489e-05
7.92896e-05
7.92896e-05
7.95337e-05
7.95337e-05
7.97815e-05
7.97815e-05
8.00328e-05
8.00328e-05
8.02879e-05
8.02879e-05
8.05467e-05
8.05467e-05
8.08094e-05
8.08094e-05
8.1076e-05
8.1076e-05
8.13466e-05
8.13466e-05
8.16212e-05
8.16212e-05
8.18999e-05
8.18999e-05
8.21827e-05
8.21827e-05
8.24698e-05
8.24698e-05
8.27611e-05
8.27611e-05
8.30568e-05
8.30568e-05
8.33568e-05
8.33568e-05
8.36612e-05
8.36612e-05
8.39701e-05
8.39701e-05
8.42836e-05
8.42836e-05
8.46016e-05
8.46016e-05
8.49242e-05
8.49242e-05
8.52514e-05
8.52514e-05
8.55834e-05
8.55834e-05
8.59201e-05
8.59201e-05
8.62615e-05
8.62615e-05
8.66077e-05
8.66077e-05
8.69588e-05
8.69588e-05
8.73147e-05
8.73147e-05
8.76754e-05
8.76754e-05
8.80411e-05
8.80411e-05
8.84117e-05
8.84117e-05
8.87873e-05
8.87873e-05
8.91678e-05
8.91678e-05
8.95533e-05
8.95533e-05
8.99437e-05
8.99437e-05
9.03392e-05
9.03392e-05
9.07397e-05
9.07397e-05
9.11451e-05
9.11451e-05
9.15556e-05
9.15556e-05
9.19711e-05
9.19711e-05
9.23916e-05
9.23916e-05
9.28171e-05
9.28171e-05
9.32476e-05
9.32476e-05
9.3683e-05
9.3683e-05
9.41234e-05
9.41234e-05
9.45688e-05
9.45688e-05
9.5019e-05
9.5019e-05
9.54742e-05
9.54742e-05
9.59342e-05
9.59342e-05
9.63991e-05
9.63991e-05
9.68687e-05
9.68687e-05
9.73431e-05
9.73431e-05
9.78223e-05
9.78223e-05
9.83061e-05
9.83061e-05
9.87945e-05
9.87945e-05
9.92875e-05
9.92875e-05
9.9785e-05
9.9785e-05
0.000100287
0.000100287
0.000100793
0.000100793
0.000101304
0.000101304
0.000101819
0.000101819
0.000102338
0.000102338
0.000102862
0.000102862
0.000103389
0.000103389
0.00010392
0.00010392
0.000104455
0.000104455
0.000104994
0.000104994
0.000105537
0.000105537
0.000106083
0.000106083
0.000106633
0.000106633
0.000107186
0.000107186
0.000107742
0.000107742
0.000108302
0.000108302
0.000108864
0.000108864
0.00010943
0.00010943
0.000109998
0.000109998
0.000110569
0.000110569
0.000111142
0.000111142
0.000111718
0.000111718
0.000112296
0.000112296
0.000112876
0.000112876
0.000113458
0.000113458
0.000114042
0.000114042
0.000114628
0.000114628
0.000115214
0.000115214
0.000115803
0.000115803
0.000116392
0.000116392
0.000116982
0.000116982
0.000117573
0.000117573
0.000118165
0.000118165
0.000118757
0.000118757
0.00011935
0.00011935
0.000119942
0.000119942
0.000120534
0.000120534
0.000121126
0.000121126
0.000121717
0.000121717
0.000122307
0.000122307
0.000122897
0.000122897
0.000123485
0.000123485
0.000124072
0.000124072
0.000124657
0.000124657
0.00012524
0.00012524
0.00012582
0.00012582
0.000126399
0.000126399
0.000126975
0.000126975
0.000127548
0.000127548
0.000128118
0.000128118
0.000128684
0.000128684
0.000129247
0.000129247
0.000129806
0.000129806
0.000130361
0.000130361
0.000130911
0.000130911
0.000131456
0.000131456
0.000131997
0.000131997
0.000132532
0.000132532
0.000133062
0.000133062
0.000133586
0.000133586
0.000134104
0.000134104
0.000134615
0.000134615
0.00013512
0.00013512
0.000135618
0.000135618
0.000136109
0.000136109
0.000136592
0.000136592
0.000137067
0.000137067
0.000137534
0.000137534
0.000137992
0.000137992
0.000138442
0.000138442
0.000138883
0.000138883
0.000139314
0.000139314
0.000139736
0.000139736
0.000140147
0.000140147
0.000140549
0.000140549
0.000140939
0.000140939
0.000141319
0.000141319
0.000141688
0.000141688
0.000142045
0.000142045
0.000142391
0.000142391
0.000142724
0.000142724
0.000143045
0.000143045
0.000143353
0.000143353
0.000143649
0.000143649
0.000143931
0.000143931
0.0001442
0.0001442
0.000144455
0.000144455
0.000144696
0.000144696
0.000144922
0.000144922
0.000145134
0.000145134
0.000145331
0.000145331
0.000145513
0.000145513
0.00014568
0.00014568
0.000145832
0.000145832
0.000145967
0.000145967
0.000146087
0.000146087
0.000146191
0.000146191
0.000146278
0.000146278
0.000146349
0.000146349
0.000146403
0.000146403
0.000146441
0.000146441
0.000146461
0.000146461
0.000146465
0.000146465
0.000146451
0.000146452
0.000146421
0.000146421
0.000146373
0.000146373
0.000146308
0.000146308
0.000146226
0.000146226
0.000146126
0.000146126
0.00014601
0.00014601
0.000145876
0.000145876
0.000145725
0.000145725
0.000145557
0.000145557
0.000145373
0.000145373
0.000145171
0.000145171
0.000144954
0.000144954
0.00014472
0.00014472
0.00014447
0.00014447
0.000144205
0.000144205
0.000143924
0.000143924
0.000143628
0.000143628
0.000143318
0.000143318
0.000142994
0.000142994
0.000142656
0.000142656
0.000142305
0.000142305
0.000141942
0.000141942
0.000141567
0.000141567
0.000141181
0.000141181
0.000140784
0.000140784
0.000140378
0.000140378
0.000139962
0.000139962
0.000139539
0.000139539
0.000139109
0.000139109
0.000138673
0.000138673
0.000138231
0.000138231
0.000137786
0.000137786
0.000137338
0.000137338
0.000136888
0.000136888
0.000136437
0.000136437
0.000135987
0.000135987
0.00013554
0.00013554
0.000135095
0.000135095
0.000134656
0.000134656
0.000134223
0.000134223
0.000133797
0.000133797
0.000133381
0.000133381
0.000132975
0.000132975
0.000132582
0.000132582
0.000132203
0.000132203
0.000131839
0.000131839
0.000131492
0.000131492
0.000131164
0.000131164
0.000130855
0.000130855
0.000130569
0.000130569
0.000130306
0.000130306
0.000130067
0.000130067
0.000129854
0.000129854
0.000129669
0.000129669
0.000129512
0.000129512
0.000129384
0.000129384
0.000129288
0.000129288
0.000129223
0.000129223
0.00012919
0.00012919
1.55757e-07
1.55757e-07
2.29762e-08
2.29762e-08
6.93228e-09
6.93228e-09
3.06642e-09
3.06642e-09
1.79328e-09
1.79328e-09
1.39883e-09
1.39883e-09
1.45117e-09
1.45117e-09
1.83082e-09
1.83082e-09
2.5184e-09
2.5184e-09
3.53438e-09
3.53438e-09
4.91848e-09
4.91848e-09
6.72161e-09
6.72161e-09
9.00243e-09
9.00243e-09
1.18257e-08
1.18257e-08
1.52617e-08
1.52617e-08
1.93854e-08
1.93854e-08
2.4277e-08
2.4277e-08
3.00213e-08
3.00213e-08
3.67078e-08
3.67078e-08
4.44313e-08
4.44313e-08
5.32911e-08
5.32911e-08
6.33919e-08
6.33919e-08
7.48433e-08
7.48433e-08
8.77603e-08
8.77603e-08
1.02263e-07
1.02263e-07
1.18478e-07
1.18478e-07
1.36536e-07
1.36536e-07
1.56575e-07
1.56575e-07
1.78736e-07
1.78736e-07
2.0317e-07
2.0317e-07
2.3003e-07
2.3003e-07
2.59478e-07
2.59478e-07
2.9168e-07
2.9168e-07
3.26808e-07
3.26808e-07
3.65043e-07
3.65043e-07
4.06568e-07
4.06568e-07
4.51576e-07
4.51576e-07
5.00263e-07
5.00263e-07
5.52833e-07
5.52833e-07
6.09494e-07
6.09494e-07
6.70463e-07
6.70463e-07
7.35959e-07
7.35959e-07
8.06208e-07
8.06208e-07
8.81443e-07
8.81443e-07
9.61899e-07
9.61899e-07
1.04782e-06
1.04782e-06
1.13945e-06
1.13945e-06
1.23703e-06
1.23703e-06
1.34083e-06
1.34083e-06
1.4511e-06
1.4511e-06
1.5681e-06
1.5681e-06
1.69209e-06
1.69209e-06
1.82334e-06
1.82334e-06
1.96211e-06
1.96211e-06
2.10866e-06
2.10866e-06
2.26327e-06
2.26327e-06
2.4262e-06
2.4262e-06
2.59772e-06
2.59772e-06
2.77807e-06
2.77807e-06
2.96754e-06
2.96754e-06
3.16636e-06
3.16636e-06
3.3748e-06
3.3748e-06
3.59309e-06
3.59309e-06
3.82148e-06
3.82148e-06
4.0602e-06
4.0602e-06
4.30946e-06
4.30946e-06
4.5695e-06
4.5695e-06
4.84051e-06
4.84051e-06
5.12269e-06
5.12269e-06
5.41622e-06
5.41622e-06
5.72127e-06
5.72127e-06
6.03801e-06
6.03801e-06
6.36656e-06
6.36656e-06
6.70707e-06
6.70707e-06
7.05965e-06
7.05965e-06
7.42438e-06
7.42438e-06
7.80136e-06
7.80136e-06
8.19064e-06
8.19064e-06
8.59226e-06
8.59226e-06
9.00626e-06
9.00626e-06
9.43263e-06
9.43263e-06
9.87137e-06
9.87137e-06
1.03224e-05
1.03224e-05
1.07858e-05
1.07858e-05
1.12613e-05
1.12613e-05
1.17489e-05
1.17489e-05
1.22485e-05
1.22485e-05
1.276e-05
1.276e-05
1.32831e-05
1.32831e-05
1.38177e-05
1.38177e-05
1.43636e-05
1.43636e-05
1.49206e-05
1.49206e-05
1.54884e-05
1.54884e-05
1.60668e-05
1.60668e-05
1.66554e-05
1.66554e-05
1.72541e-05
1.72541e-05
1.78623e-05
1.78623e-05
1.84799e-05
1.84799e-05
1.91065e-05
1.91065e-05
1.97416e-05
1.97416e-05
2.03849e-05
2.03849e-05
2.1036e-05
2.1036e-05
2.16945e-05
2.16945e-05
2.23598e-05
2.23598e-05
2.30317e-05
2.30317e-05
2.37095e-05
2.37095e-05
2.43929e-05
2.43929e-05
2.50813e-05
2.50813e-05
2.57743e-05
2.57743e-05
2.64714e-05
2.64714e-05
2.7172e-05
2.7172e-05
2.78756e-05
2.78756e-05
2.85817e-05
2.85817e-05
2.92899e-05
2.92899e-05
2.99995e-05
2.99995e-05
3.071e-05
3.071e-05
3.14209e-05
3.14209e-05
3.21316e-05
3.21316e-05
3.28417e-05
3.28417e-05
3.35505e-05
3.35505e-05
3.42576e-05
3.42576e-05
3.49625e-05
3.49625e-05
3.56645e-05
3.56645e-05
3.63632e-05
3.63632e-05
3.70581e-05
3.70581e-05
3.77487e-05
3.77487e-05
3.84344e-05
3.84344e-05
3.91148e-05
3.91148e-05
3.97894e-05
3.97894e-05
4.04577e-05
4.04577e-05
4.11192e-05
4.11192e-05
4.17736e-05
4.17736e-05
4.24203e-05
4.24203e-05
4.30589e-05
4.30589e-05
4.36891e-05
4.36891e-05
4.43104e-05
4.43104e-05
4.49224e-05
4.49224e-05
4.55247e-05
4.55247e-05
4.6117e-05
4.6117e-05
4.6699e-05
4.6699e-05
4.72703e-05
4.72703e-05
4.78306e-05
4.78306e-05
4.83795e-05
4.83795e-05
4.89169e-05
4.89169e-05
4.94424e-05
4.94424e-05
4.99558e-05
4.99558e-05
5.04569e-05
5.04569e-05
5.09454e-05
5.09454e-05
5.14212e-05
5.14212e-05
5.18839e-05
5.18839e-05
5.23336e-05
5.23336e-05
5.277e-05
5.277e-05
5.3193e-05
5.3193e-05
5.36025e-05
5.36025e-05
5.39984e-05
5.39984e-05
5.43805e-05
5.43805e-05
5.47488e-05
5.47488e-05
5.51034e-05
5.51034e-05
5.5444e-05
5.5444e-05
5.57707e-05
5.57707e-05
5.60836e-05
5.60836e-05
5.63825e-05
5.63825e-05
5.66675e-05
5.66675e-05
5.69388e-05
5.69388e-05
5.71962e-05
5.71962e-05
5.74399e-05
5.74399e-05
5.76699e-05
5.76699e-05
5.78864e-05
5.78864e-05
5.80894e-05
5.80894e-05
5.82791e-05
5.82791e-05
5.84556e-05
5.84556e-05
5.8619e-05
5.8619e-05
5.87694e-05
5.87694e-05
5.89071e-05
5.89071e-05
5.90323e-05
5.90323e-05
5.9145e-05
5.9145e-05
5.92455e-05
5.92455e-05
5.93339e-05
5.93339e-05
5.94106e-05
5.94106e-05
5.94756e-05
5.94756e-05
5.95293e-05
5.95293e-05
5.95719e-05
5.95719e-05
5.96035e-05
5.96035e-05
5.96245e-05
5.96245e-05
5.9635e-05
5.9635e-05
5.96354e-05
5.96354e-05
5.96259e-05
5.96259e-05
5.96068e-05
5.96068e-05
5.95783e-05
5.95783e-05
5.95407e-05
5.95407e-05
5.94944e-05
5.94944e-05
5.94394e-05
5.94394e-05
5.93763e-05
5.93763e-05
5.93051e-05
5.93051e-05
5.92263e-05
5.92263e-05
5.91401e-05
5.91401e-05
5.90467e-05
5.90467e-05
5.89466e-05
5.89466e-05
5.88399e-05
5.88399e-05
5.8727e-05
5.8727e-05
5.86081e-05
5.86081e-05
5.84836e-05
5.84836e-05
5.83537e-05
5.83537e-05
5.82187e-05
5.82187e-05
5.80789e-05
5.80789e-05
5.79346e-05
5.79346e-05
5.77861e-05
5.77861e-05
5.76336e-05
5.76336e-05
5.74774e-05
5.74774e-05
5.73179e-05
5.73179e-05
5.71551e-05
5.71551e-05
5.69896e-05
5.69896e-05
5.68214e-05
5.68214e-05
5.66509e-05
5.66509e-05
5.64783e-05
5.64783e-05
5.63039e-05
5.63039e-05
5.61279e-05
5.61279e-05
5.59506e-05
5.59506e-05
5.57722e-05
5.57722e-05
5.5593e-05
5.5593e-05
5.54131e-05
5.54131e-05
5.52329e-05
5.52329e-05
5.50525e-05
5.50525e-05
5.48721e-05
5.48721e-05
5.46921e-05
5.46921e-05
5.45125e-05
5.45125e-05
5.43336e-05
5.43336e-05
5.41556e-05
5.41556e-05
5.39787e-05
5.39787e-05
5.38031e-05
5.38031e-05
5.36289e-05
5.36289e-05
5.34564e-05
5.34564e-05
5.32858e-05
5.32858e-05
5.31171e-05
5.31171e-05
5.29505e-05
5.29505e-05
5.27863e-05
5.27863e-05
5.26246e-05
5.26246e-05
5.24655e-05
5.24655e-05
5.23092e-05
5.23092e-05
5.21558e-05
5.21558e-05
5.20054e-05
5.20054e-05
5.18582e-05
5.18582e-05
5.17144e-05
5.17144e-05
5.1574e-05
5.1574e-05
5.14371e-05
5.14371e-05
5.1304e-05
5.1304e-05
5.11746e-05
5.11746e-05
5.10491e-05
5.1049e-05
5.09275e-05
5.09275e-05
5.08101e-05
5.08101e-05
5.06968e-05
5.06968e-05
5.05878e-05
5.05878e-05
5.04832e-05
5.04832e-05
5.0383e-05
5.0383e-05
5.02873e-05
5.02873e-05
5.01962e-05
5.01962e-05
5.01097e-05
5.01097e-05
5.0028e-05
5.0028e-05
4.99511e-05
4.99511e-05
4.9879e-05
4.9879e-05
4.98118e-05
4.98118e-05
4.97495e-05
4.97495e-05
4.96923e-05
4.96923e-05
4.96402e-05
4.96402e-05
4.95931e-05
4.95931e-05
4.95512e-05
4.95512e-05
4.95145e-05
4.95145e-05
4.9483e-05
4.9483e-05
4.94568e-05
4.94568e-05
4.94359e-05
4.94359e-05
4.94203e-05
4.94203e-05
4.941e-05
4.941e-05
4.94052e-05
4.94052e-05
4.94058e-05
4.94058e-05
4.94118e-05
4.94118e-05
4.94233e-05
4.94233e-05
4.94403e-05
4.94403e-05
4.94628e-05
4.94628e-05
4.94908e-05
4.94908e-05
4.95244e-05
4.95244e-05
4.95635e-05
4.95635e-05
4.96082e-05
4.96082e-05
4.96585e-05
4.96585e-05
4.97144e-05
4.97144e-05
4.97759e-05
4.97759e-05
4.98431e-05
4.98431e-05
4.99159e-05
4.99159e-05
4.99944e-05
4.99944e-05
5.00785e-05
5.00785e-05
5.01683e-05
5.01683e-05
5.02638e-05
5.02638e-05
5.0365e-05
5.0365e-05
5.04718e-05
5.04718e-05
5.05844e-05
5.05844e-05
5.07027e-05
5.07027e-05
5.08267e-05
5.08267e-05
5.09564e-05
5.09564e-05
5.10919e-05
5.10919e-05
5.1233e-05
5.1233e-05
5.13799e-05
5.13799e-05
5.15325e-05
5.15325e-05
5.16908e-05
5.16908e-05
5.18548e-05
5.18548e-05
5.20245e-05
5.20245e-05
5.21998e-05
5.21998e-05
5.23808e-05
5.23808e-05
5.25675e-05
5.25675e-05
5.27598e-05
5.27598e-05
5.29577e-05
5.29577e-05
5.31611e-05
5.31611e-05
5.337e-05
5.337e-05
5.35844e-05
5.35844e-05
5.38043e-05
5.38043e-05
5.40295e-05
5.40295e-05
5.42599e-05
5.42599e-05
5.44956e-05
5.44956e-05
5.47365e-05
5.47365e-05
5.49823e-05
5.49823e-05
5.52331e-05
5.52331e-05
5.54887e-05
5.54887e-05
5.5749e-05
5.5749e-05
5.60138e-05
5.60138e-05
5.6283e-05
5.6283e-05
5.65565e-05
5.65565e-05
5.6834e-05
5.6834e-05
5.71153e-05
5.71153e-05
5.74003e-05
5.74003e-05
5.76887e-05
5.76887e-05
5.79802e-05
5.79802e-05
5.82747e-05
5.82747e-05
5.85719e-05
5.85719e-05
5.88715e-05
5.88715e-05
5.91732e-05
5.91732e-05
5.94766e-05
5.94766e-05
5.97816e-05
5.97816e-05
6.00878e-05
6.00878e-05
6.03947e-05
6.03947e-05
6.07023e-05
6.07023e-05
6.101e-05
6.101e-05
6.13175e-05
6.13175e-05
6.16245e-05
6.16245e-05
6.19308e-05
6.19308e-05
6.22358e-05
6.22358e-05
6.25394e-05
6.25394e-05
6.28412e-05
6.28412e-05
6.31409e-05
6.31409e-05
6.34382e-05
6.34382e-05
6.37328e-05
6.37328e-05
6.40246e-05
6.40246e-05
6.43131e-05
6.43131e-05
6.45983e-05
6.45983e-05
6.488e-05
6.488e-05
6.51579e-05
6.51579e-05
6.54319e-05
6.54319e-05
6.5702e-05
6.5702e-05
6.59679e-05
6.59679e-05
6.62296e-05
6.62296e-05
6.64871e-05
6.64871e-05
6.67403e-05
6.67403e-05
6.69893e-05
6.69893e-05
6.7234e-05
6.7234e-05
6.74745e-05
6.74745e-05
6.77108e-05
6.77108e-05
6.7943e-05
6.7943e-05
6.81712e-05
6.81712e-05
6.83955e-05
6.83955e-05
6.8616e-05
6.8616e-05
6.88329e-05
6.88329e-05
6.90462e-05
6.90462e-05
6.92562e-05
6.92562e-05
6.9463e-05
6.9463e-05
6.96667e-05
6.96667e-05
6.98676e-05
6.98676e-05
7.00658e-05
7.00658e-05
7.02614e-05
7.02614e-05
7.04548e-05
7.04548e-05
7.06459e-05
7.06459e-05
7.08351e-05
7.08351e-05
7.10225e-05
7.10225e-05
7.12082e-05
7.12082e-05
7.13926e-05
7.13926e-05
7.15756e-05
7.15756e-05
7.17576e-05
7.17576e-05
7.19387e-05
7.19387e-05
7.2119e-05
7.2119e-05
7.22988e-05
7.22988e-05
7.24781e-05
7.24781e-05
7.26572e-05
7.26572e-05
7.28362e-05
7.28362e-05
7.30153e-05
7.30153e-05
7.31945e-05
7.31945e-05
7.33742e-05
7.33742e-05
7.35543e-05
7.35543e-05
7.37351e-05
7.37351e-05
7.39166e-05
7.39166e-05
7.40991e-05
7.40991e-05
7.42826e-05
7.42826e-05
7.44673e-05
7.44673e-05
7.46533e-05
7.46533e-05
7.48407e-05
7.48407e-05
7.50296e-05
7.50296e-05
7.52201e-05
7.52201e-05
7.54124e-05
7.54124e-05
7.56066e-05
7.56066e-05
7.58028e-05
7.58028e-05
7.60011e-05
7.60011e-05
7.62015e-05
7.62015e-05
7.64042e-05
7.64042e-05
7.66093e-05
7.66093e-05
7.68169e-05
7.68169e-05
7.7027e-05
7.7027e-05
7.72399e-05
7.72399e-05
7.74554e-05
7.74554e-05
7.76739e-05
7.76739e-05
7.78952e-05
7.78952e-05
7.81196e-05
7.81196e-05
7.83471e-05
7.83471e-05
7.85777e-05
7.85777e-05
7.88116e-05
7.88116e-05
7.90489e-05
7.90489e-05
7.92896e-05
7.92896e-05
7.95337e-05
7.95337e-05
7.97815e-05
7.97815e-05
8.00328e-05
8.00328e-05
8.02879e-05
8.02879e-05
8.05467e-05
8.05467e-05
8.08094e-05
8.08094e-05
8.1076e-05
8.1076e-05
8.13466e-05
8.13466e-05
8.16212e-05
8.16212e-05
8.18999e-05
8.18999e-05
8.21827e-05
8.21827e-05
8.24698e-05
8.24698e-05
8.27611e-05
8.27611e-05
8.30568e-05
8.30568e-05
8.33568e-05
8.33568e-05
8.36612e-05
8.36612e-05
8.39701e-05
8.39701e-05
8.42836e-05
8.42836e-05
8.46016e-05
8.46016e-05
8.49242e-05
8.49242e-05
8.52514e-05
8.52514e-05
8.55834e-05
8.55834e-05
8.59201e-05
8.59201e-05
8.62615e-05
8.62615e-05
8.66077e-05
8.66077e-05
8.69588e-05
8.69588e-05
8.73147e-05
8.73147e-05
8.76754e-05
8.76754e-05
8.80411e-05
8.80411e-05
8.84117e-05
8.84117e-05
8.87873e-05
8.87873e-05
8.91678e-05
8.91678e-05
8.95533e-05
8.95533e-05
8.99437e-05
8.99437e-05
9.03392e-05
9.03392e-05
9.07397e-05
9.07397e-05
9.11451e-05
9.11451e-05
9.15556e-05
9.15556e-05
9.19711e-05
9.19711e-05
9.23916e-05
9.23916e-05
9.28171e-05
9.28171e-05
9.32476e-05
9.32476e-05
9.3683e-05
9.3683e-05
9.41234e-05
9.41234e-05
9.45688e-05
9.45688e-05
9.5019e-05
9.5019e-05
9.54742e-05
9.54742e-05
9.59342e-05
9.59342e-05
9.63991e-05
9.63991e-05
9.68687e-05
9.68687e-05
9.73431e-05
9.73431e-05
9.78223e-05
9.78223e-05
9.83061e-05
9.83061e-05
9.87945e-05
9.87945e-05
9.92875e-05
9.92875e-05
9.9785e-05
9.9785e-05
0.000100287
0.000100287
0.000100793
0.000100793
0.000101304
0.000101304
0.000101819
0.000101819
0.000102338
0.000102338
0.000102862
0.000102862
0.000103389
0.000103389
0.00010392
0.00010392
0.000104455
0.000104455
0.000104994
0.000104994
0.000105537
0.000105537
0.000106083
0.000106083
0.000106633
0.000106633
0.000107186
0.000107186
0.000107742
0.000107742
0.000108302
0.000108302
0.000108864
0.000108864
0.00010943
0.00010943
0.000109998
0.000109998
0.000110569
0.000110569
0.000111142
0.000111142
0.000111718
0.000111718
0.000112296
0.000112296
0.000112876
0.000112876
0.000113458
0.000113458
0.000114042
0.000114042
0.000114628
0.000114628
0.000115214
0.000115214
0.000115803
0.000115803
0.000116392
0.000116392
0.000116982
0.000116982
0.000117573
0.000117573
0.000118165
0.000118165
0.000118757
0.000118757
0.00011935
0.00011935
0.000119942
0.000119942
0.000120534
0.000120534
0.000121126
0.000121126
0.000121717
0.000121717
0.000122307
0.000122307
0.000122897
0.000122897
0.000123485
0.000123485
0.000124072
0.000124072
0.000124657
0.000124657
0.00012524
0.00012524
0.00012582
0.00012582
0.000126399
0.000126399
0.000126975
0.000126975
0.000127548
0.000127548
0.000128118
0.000128118
0.000128684
0.000128684
0.000129247
0.000129247
0.000129806
0.000129806
0.000130361
0.000130361
0.000130911
0.000130911
0.000131456
0.000131456
0.000131997
0.000131997
0.000132532
0.000132532
0.000133062
0.000133062
0.000133586
0.000133586
0.000134104
0.000134104
0.000134615
0.000134615
0.00013512
0.00013512
0.000135618
0.000135618
0.000136109
0.000136109
0.000136592
0.000136592
0.000137067
0.000137067
0.000137534
0.000137534
0.000137992
0.000137992
0.000138442
0.000138442
0.000138883
0.000138883
0.000139314
0.000139314
0.000139736
0.000139736
0.000140147
0.000140147
0.000140549
0.000140549
0.000140939
0.000140939
0.000141319
0.000141319
0.000141688
0.000141688
0.000142045
0.000142045
0.000142391
0.000142391
0.000142724
0.000142724
0.000143045
0.000143045
0.000143353
0.000143353
0.000143649
0.000143649
0.000143931
0.000143931
0.0001442
0.0001442
0.000144455
0.000144455
0.000144696
0.000144696
0.000144922
0.000144922
0.000145134
0.000145134
0.000145331
0.000145331
0.000145513
0.000145513
0.00014568
0.00014568
0.000145832
0.000145832
0.000145967
0.000145967
0.000146087
0.000146087
0.000146191
0.000146191
0.000146278
0.000146278
0.000146349
0.000146349
0.000146403
0.000146403
0.000146441
0.000146441
0.000146461
0.000146461
0.000146465
0.000146465
0.000146452
0.000146452
0.000146421
0.000146421
0.000146373
0.000146373
0.000146308
0.000146308
0.000146226
0.000146226
0.000146126