/*--------------------------------*- C++ -*----------------------------------*\
| =========                 |                                                 |
| \\      /  F ield         | OpenFOAM: The Open Source CFD Toolbox           |
|  \\    /   O peration     | Version:  2012                                  |
|   \\  /    A nd           | Website:  www.openfoam.com                      |
|    \\/     M anipulation  |                                                 |
\*---------------------------------------------------------------------------*/
FoamFile
{
    version     2.0;
    format      ascii;
    class       volScalarField;
    location    "16200";
    object      omega;
}
// * * * * * * * * * * * * * * * * * * * * * * * * * * * * * * * * * * * * * //

dimensions      [0 0 -1 0 0 0 0];


internalField   nonuniform List<scalar> 
2560
(
1.52417e+06
1.52417e+06
264409
264409
87997.1
87997.1
41400.9
41400.9
25198.1
25198.1
18159.9
18159.9
14427.9
14427.9
12147.3
12147.3
10613.2
10613.2
9509.93
9509.93
8677.12
8677.12
8025.1
8025.1
7499.91
7499.91
7067.12
7067.12
6703.75
6703.75
6393.85
6393.85
6125.99
6125.99
5891.76
5891.76
5684.83
5684.83
5500.33
5500.33
5334.46
5334.46
5184.18
5184.18
5047.07
5047.07
4921.12
4921.12
4804.71
4804.71
4696.46
4696.46
4595.22
4595.22
4500
4500
4409.97
4409.97
4324.41
4324.41
4242.68
4242.68
4164.24
4164.24
4088.6
4088.6
4015.36
4015.36
3944.13
3944.13
3874.58
3874.58
3806.43
3806.43
3739.42
3739.42
3673.32
3673.32
3607.94
3607.94
3543.09
3543.09
3478.65
3478.65
3414.47
3414.47
3350.45
3350.45
3286.52
3286.52
3222.6
3222.6
3158.64
3158.64
3094.63
3094.63
3030.54
3030.54
2966.39
2966.39
2902.2
2902.2
2838
2838
2773.85
2773.85
2709.81
2709.81
2645.98
2645.98
2582.44
2582.44
2519.29
2519.29
2456.66
2456.66
2394.67
2394.67
2333.45
2333.45
2273.14
2273.14
2213.89
2213.89
2155.83
2155.83
2099.12
2099.12
2043.88
2043.88
1990.25
1990.25
1938.36
1938.36
1888.31
1888.31
1840.21
1840.21
1794.14
1794.14
1750.16
1750.16
1708.31
1708.31
1668.61
1668.61
1631.07
1631.07
1595.66
1595.66
1562.34
1562.34
1531.04
1531.04
1501.69
1501.69
1474.17
1474.17
1448.4
1448.4
1424.24
1424.24
1401.56
1401.56
1380.24
1380.24
1360.14
1360.14
1341.13
1341.13
1323.07
1323.07
1305.83
1305.83
1289.3
1289.3
1273.37
1273.37
1257.92
1257.92
1242.86
1242.86
1228.1
1228.1
1213.57
1213.57
1199.19
1199.19
1184.91
1184.91
1170.66
1170.66
1156.42
1156.42
1142.14
1142.14
1127.79
1127.79
1113.35
1113.35
1098.81
1098.81
1084.15
1084.15
1069.37
1069.37
1054.47
1054.47
1039.44
1039.44
1024.29
1024.29
1009.04
1009.04
993.678
993.678
978.228
978.228
962.7
962.7
947.107
947.107
931.464
931.464
915.784
915.784
900.083
900.083
884.376
884.376
868.677
868.677
853.002
853.002
837.364
837.364
821.777
821.777
806.254
806.254
790.809
790.809
775.452
775.452
760.195
760.195
745.049
745.049
730.022
730.022
715.126
715.126
700.367
700.367
685.753
685.753
671.292
671.292
656.99
656.99
642.852
642.852
628.885
628.885
615.092
615.092
601.478
601.478
588.047
588.047
574.802
574.802
561.746
561.746
548.881
548.881
536.209
536.209
523.733
523.733
511.453
511.453
499.371
499.371
487.488
487.488
475.803
475.803
464.318
464.318
453.033
453.033
441.947
441.947
431.061
431.061
420.374
420.374
409.885
409.885
399.595
399.595
389.502
389.502
379.605
379.605
369.905
369.905
360.399
360.399
351.088
351.088
341.969
341.969
333.042
333.042
324.305
324.305
315.757
315.757
307.397
307.397
299.223
299.223
291.233
291.233
283.425
283.425
275.797
275.797
268.347
268.347
261.072
261.072
253.969
253.969
247.035
247.035
240.269
240.269
233.665
233.665
227.223
227.223
220.937
220.937
214.807
214.807
208.829
208.829
202.999
202.999
197.317
197.317
191.778
191.778
186.382
186.382
181.125
181.125
176.005
176.005
171.019
171.019
166.166
166.166
161.443
161.443
156.847
156.847
152.376
152.376
148.028
148.028
143.8
143.8
139.69
139.69
135.695
135.695
131.813
131.813
128.042
128.042
124.38
124.38
120.824
120.824
117.373
117.373
114.025
114.025
110.779
110.779
107.631
107.631
104.582
104.582
101.629
101.629
98.7699
98.7699
96.0039
96.0038
93.3288
93.3288
90.7428
90.7428
88.244
88.244
85.8301
85.8301
83.499
83.499
81.2484
81.2484
79.076
79.076
76.9794
76.9794
74.9565
74.9565
73.005
73.005
71.1228
71.1228
69.3076
69.3076
67.5571
67.5571
65.869
65.869
64.2405
64.2405
62.6692
62.6692
61.1521
61.1521
59.6865
59.6865
58.2693
58.2693
56.8976
56.8976
55.5686
55.5686
54.28
54.28
53.0297
53.0297
51.816
51.816
50.6373
50.6373
49.4922
49.4922
48.379
48.379
47.2961
47.2961
46.2413
46.2413
45.2127
45.2127
44.2084
44.2084
43.2266
43.2266
42.2661
42.2661
41.3255
41.3255
40.4041
40.4041
39.5011
39.5011
38.6163
38.6163
37.7498
37.7498
36.9018
36.9018
36.0724
36.0724
35.2617
35.2617
34.469
34.469
33.6935
33.6935
32.9336
32.9336
32.1873
32.1873
31.4523
31.4523
30.7262
30.7262
30.0066
30.0066
29.2921
29.2921
28.5826
28.5826
27.8788
27.8788
27.1824
27.1824
26.4958
26.4958
25.822
25.822
25.163
25.163
24.5193
24.5193
23.8903
23.8903
23.2754
23.2754
22.6743
22.6743
22.0878
22.0878
21.5171
21.5171
20.9638
20.9638
20.4296
20.4296
19.9157
19.9157
19.4231
19.4231
18.9522
18.9522
18.5032
18.5032
18.076
18.076
17.6703
17.6703
17.2856
17.2856
16.921
16.921
16.5752
16.5752
16.2467
16.2467
15.9333
15.9333
15.6329
15.6329
15.3428
15.3428
15.0605
15.0605
14.7833
14.7833
14.5093
14.5093
14.2368
14.2368
13.9638
13.9638
13.6881
13.6881
13.408
13.408
13.1225
13.1225
12.8323
12.8323
12.5393
12.5393
12.2459
12.2459
11.9558
11.9558
11.6731
11.6731
11.4018
11.4018
11.1441
11.1441
10.9007
10.9007
10.6718
10.6718
10.4572
10.4571
10.2569
10.2569
10.0712
10.0712
9.89991
9.8999
9.74291
9.7429
9.59958
9.59957
9.46872
9.46871
9.34866
9.34866
9.23765
9.23765
9.13369
9.13369
9.03395
9.03395
8.93486
8.93485
8.83324
8.83324
8.72764
8.72763
8.61886
8.61885
8.5095
8.5095
8.40249
8.40249
8.30012
8.30011
8.20438
8.20438
8.11767
8.11767
8.04241
8.04241
7.98027
7.98027
7.93208
7.93208
7.89856
7.89856
7.881
7.881
1.52417e+06
1.52417e+06
264409
264409
87997.1
87997.1
41400.9
41400.9
25198.1
25198.1
18159.9
18159.9
14427.9
14427.9
12147.3
12147.3
10613.2
10613.2
9509.93
9509.93
8677.12
8677.12
8025.1
8025.1
7499.91
7499.91
7067.12
7067.12
6703.75
6703.75
6393.85
6393.85
6125.99
6125.99
5891.76
5891.76
5684.83
5684.83
5500.33
5500.33
5334.45
5334.45
5184.18
5184.18
5047.07
5047.07
4921.12
4921.12
4804.71
4804.71
4696.46
4696.46
4595.22
4595.22
4500
4500
4409.97
4409.97
4324.41
4324.41
4242.68
4242.68
4164.24
4164.24
4088.6
4088.6
4015.36
4015.36
3944.13
3944.13
3874.58
3874.58
3806.43
3806.43
3739.42
3739.42
3673.32
3673.32
3607.94
3607.94
3543.09
3543.09
3478.65
3478.65
3414.47
3414.47
3350.45
3350.45
3286.52
3286.52
3222.6
3222.6
3158.64
3158.64
3094.63
3094.63
3030.54
3030.54
2966.39
2966.39
2902.2
2902.2
2838
2838
2773.85
2773.85
2709.82
2709.82
2645.98
2645.98
2582.44
2582.44
2519.29
2519.29
2456.66
2456.66
2394.67
2394.67
2333.45
2333.45
2273.14
2273.14
2213.89
2213.89
2155.83
2155.83
2099.12
2099.12
2043.88
2043.88
1990.25
1990.25
1938.36
1938.36
1888.31
1888.31
1840.21
1840.21
1794.14
1794.14
1750.16
1750.16
1708.31
1708.31
1668.61
1668.61
1631.07
1631.07
1595.66
1595.66
1562.34
1562.34
1531.04
1531.04
1501.69
1501.69
1474.17
1474.17
1448.4
1448.4
1424.24
1424.24
1401.56
1401.56
1380.24
1380.24
1360.14
1360.14
1341.13
1341.13
1323.07
1323.07
1305.83
1305.83
1289.3
1289.3
1273.37
1273.37
1257.92
1257.92
1242.86
1242.86
1228.1
1228.1
1213.57
1213.57
1199.19
1199.19
1184.91
1184.91
1170.66
1170.66
1156.42
1156.42
1142.14
1142.14
1127.79
1127.79
1113.35
1113.35
1098.81
1098.81
1084.15
1084.15
1069.37
1069.37
1054.47
1054.47
1039.44
1039.44
1024.29
1024.29
1009.04
1009.04
993.678
993.678
978.228
978.228
962.7
962.7
947.107
947.107
931.464
931.464
915.784
915.784
900.083
900.083
884.376
884.376
868.677
868.677
853.002
853.002
837.364
837.364
821.777
821.777
806.254
806.254
790.809
790.809
775.452
775.452
760.195
760.195
745.049
745.049
730.022
730.022
715.126
715.126
700.367
700.367
685.753
685.753
671.292
671.292
656.99
656.99
642.852
642.852
628.885
628.885
615.092
615.092
601.478
601.478
588.047
588.047
574.802
574.802
561.746
561.746
548.881
548.881
536.209
536.209
523.733
523.733
511.453
511.453
499.371
499.371
487.488
487.488
475.803
475.803
464.318
464.318
453.033
453.033
441.947
441.947
431.061
431.061
420.374
420.374
409.885
409.885
399.595
399.595
389.502
389.502
379.605
379.605
369.905
369.905
360.399
360.399
351.088
351.088
341.969
341.969
333.042
333.042
324.305
324.305
315.757
315.757
307.397
307.397
299.223
299.223
291.233
291.233
283.425
283.425
275.797
275.797
268.347
268.347
261.072
261.072
253.969
253.969
247.035
247.035
240.269
240.269
233.665
233.665
227.223
227.223
220.937
220.937
214.807
214.807
208.829
208.829
202.999
202.999
197.317
197.317
191.778
191.778
186.382
186.382
181.125
181.125
176.005
176.005
171.019
171.019
166.166
166.166
161.443
161.443
156.847
156.847
152.376
152.376
148.028
148.028
143.8
143.8
139.69
139.69
135.695
135.695
131.813
131.813
128.042
128.042
124.38
124.38
120.824
120.824
117.373
117.373
114.025
114.025
110.779
110.779
107.631
107.631
104.582
104.582
101.629
101.629
98.7699
98.7699
96.0038
96.0039
93.3288
93.3288
90.7428
90.7429
88.244
88.244
85.8301
85.8301
83.499
83.499
81.2484
81.2484
79.076
79.076
76.9794
76.9794
74.9565
74.9565
73.005
73.005
71.1228
71.1228
69.3076
69.3076
67.5571
67.5572
65.869
65.869
64.2405
64.2406
62.6692
62.6692
61.1522
61.1522
59.6865
59.6865
58.2693
58.2693
56.8976
56.8976
55.5686
55.5686
54.2801
54.2801
53.0298
53.0298
51.816
51.816
50.6373
50.6373
49.4922
49.4922
48.3791
48.3791
47.2961
47.2961
46.2414
46.2414
45.2128
45.2128
44.2084
44.2084
43.2267
43.2267
42.2661
42.2661
41.3256
41.3256
40.4041
40.4041
39.5011
39.5012
38.6164
38.6164
37.7498
37.7498
36.9018
36.9018
36.0724
36.0724
35.2617
35.2617
34.4691
34.4691
33.6935
33.6935
32.9336
32.9336
32.1873
32.1873
31.4523
31.4523
30.7262
30.7262
30.0066
30.0066
29.2922
29.2921
28.5826
28.5826
27.8788
27.8788
27.1825
27.1824
26.4958
26.4958
25.822
25.822
25.163
25.163
24.5193
24.5193
23.8903
23.8903
23.2754
23.2754
22.6743
22.6744
22.0878
22.0878
21.5171
21.5171
20.9638
20.9638
20.4296
20.4296
19.9157
19.9157
19.4231
19.4231
18.9522
18.9522
18.5032
18.5032
18.076
18.076
17.6703
17.6703
17.2856
17.2856
16.921
16.921
16.5752
16.5752
16.2467
16.2467
15.9333
15.9333
15.6329
15.6329
15.3428
15.3428
15.0605
15.0605
14.7833
14.7833
14.5093
14.5093
14.2368
14.2368
13.9638
13.9638
13.6881
13.6881
13.408
13.408
13.1225
13.1225
12.8323
12.8323
12.5393
12.5393
12.2459
12.2459
11.9558
11.9558
11.6731
11.6731
11.4018
11.4018
11.1441
11.1441
10.9007
10.9007
10.6718
10.6718
10.4571
10.4572
10.2569
10.2569
10.0712
10.0712
9.8999
9.89991
9.7429
9.74291
9.59958
9.59958
9.46871
9.46872
9.34866
9.34866
9.23765
9.23765
9.13369
9.13369
9.03395
9.03395
8.93485
8.93486
8.83324
8.83324
8.72763
8.72763
8.61885
8.61885
8.5095
8.5095
8.40249
8.40249
8.30011
8.30012
8.20437
8.20438
8.11767
8.11767
8.04241
8.04241
7.98027
7.98027
7.93208
7.93207
7.89856
7.89856
7.881
7.881
7.88097
7.88098
7.89848
7.89849
7.93193
7.93193
7.97999
7.98
8.04204
8.04204
8.11716
8.11716
8.20369
8.20369
8.29928
8.29927
8.40131
8.4013
8.50775
8.50774
8.61654
8.61653
8.72489
8.72489
8.83018
8.83018
8.93168
8.93167
9.03097
9.03096
9.13111
9.1311
9.23547
9.23547
9.34682
9.34681
9.46714
9.46714
9.59825
9.59825
9.74186
9.74185
9.89917
9.89916
10.0708
10.0708
10.2568
10.2568
10.4573
10.4573
10.6722
10.6722
10.9014
10.9014
11.145
11.145
11.403
11.403
11.6745
11.6745
11.9575
11.9575
12.2478
12.2478
12.5413
12.5413
12.8342
12.8342
13.124
13.124
13.4089
13.4089
13.6884
13.6884
13.9636
13.9636
14.2363
14.2363
14.5087
14.5087
14.7825
14.7825
15.0594
15.0594
15.3416
15.3416
15.6314
15.6314
15.9317
15.9316
16.2448
16.2448
16.5732
16.5732
16.9188
16.9188
17.2833
17.2833
17.668
17.668
18.0736
18.0736
18.5009
18.5009
18.9499
18.9499
19.4208
19.4208
19.9134
19.9134
20.4273
20.4273
20.9616
20.9616
21.5149
21.5149
22.0857
22.0857
22.6724
22.6724
23.2736
23.2736
23.8887
23.8887
24.5176
24.5176
25.1612
25.1612
25.8201
25.8201
26.4937
26.4937
27.1801
27.1802
27.8765
27.8765
28.5802
28.5802
29.2896
29.2896
30.0037
30.0037
30.7231
30.7231
31.4493
31.4493
32.1844
32.1844
32.931
32.931
33.6915
33.6915
34.4676
34.4676
35.2608
35.2608
36.0718
36.0718
36.9013
36.9013
37.7492
37.7492
38.6155
38.6155
39.5
39.5
40.4028
40.4028
41.3241
41.3241
42.2645
42.2645
43.225
43.225
44.2068
44.2068
45.2112
45.2112
46.2398
46.2398
47.2948
47.2948
48.378
48.378
49.4915
49.4915
50.6372
50.6372
51.8164
51.8164
53.0306
53.0306
54.2811
54.2811
55.5699
55.5698
56.8989
56.8989
58.2706
58.2706
59.6879
59.6879
61.1537
61.1537
62.6708
62.6708
64.2422
64.2421
65.8705
65.8705
67.5584
67.5584
69.3085
69.3085
71.1234
71.1234
73.0053
73.0053
74.9565
74.9564
76.9792
76.9792
79.0757
79.0757
81.2481
81.2481
83.4987
83.4987
85.8299
85.8298
88.2437
88.2437
90.7426
90.7426
93.3287
93.3287
96.0038
96.0038
98.7699
98.7699
101.629
101.629
104.582
104.582
107.631
107.631
110.779
110.779
114.025
114.025
117.373
117.373
120.824
120.824
124.38
124.38
128.042
128.042
131.813
131.813
135.695
135.695
139.69
139.69
143.8
143.8
148.028
148.028
152.376
152.376
156.846
156.846
161.442
161.442
166.165
166.165
171.018
171.018
176.003
176.003
181.123
181.123
186.38
186.38
191.777
191.777
197.315
197.315
202.997
202.997
208.827
208.827
214.805
214.805
220.935
220.935
227.22
227.22
233.663
233.663
240.266
240.266
247.033
247.033
253.966
253.966
261.069
261.069
268.344
268.344
275.794
275.794
283.422
283.422
291.23
291.23
299.22
299.22
307.394
307.394
315.754
315.754
324.301
324.301
333.038
333.038
341.965
341.965
351.084
351.084
360.395
360.395
369.9
369.9
379.601
379.601
389.497
389.497
399.59
399.59
409.88
409.88
420.368
420.368
431.055
431.055
441.942
441.942
453.027
453.027
464.312
464.312
475.797
475.797
487.482
487.482
499.366
499.366
511.448
511.448
523.728
523.728
536.204
536.204
548.876
548.876
561.741
561.741
574.797
574.797
588.042
588.042
601.473
601.473
615.086
615.086
628.879
628.879
642.846
642.846
656.983
656.983
671.285
671.285
685.746
685.746
700.359
700.359
715.118
715.118
730.014
730.014
745.039
745.039
760.184
760.184
775.44
775.44
790.796
790.796
806.24
806.24
821.76
821.76
837.345
837.345
852.981
852.981
868.653
868.653
884.348
884.348
900.053
900.053
915.752
915.752
931.431
931.431
947.073
947.073
962.665
962.665
978.193
978.193
993.642
993.642
1009
1009
1024.26
1024.26
1039.4
1039.4
1054.43
1054.43
1069.33
1069.33
1084.11
1084.11
1098.77
1098.77
1113.31
1113.31
1127.74
1127.74
1142.09
1142.09
1156.38
1156.38
1170.62
1170.62
1184.86
1184.86
1199.14
1199.14
1213.52
1213.52
1228.04
1228.04
1242.79
1242.79
1257.83
1257.83
1273.27
1273.27
1289.2
1289.2
1305.73
1305.73
1322.96
1322.96
1341.01
1341.01
1360.02
1360.02
1380.11
1380.11
1401.43
1401.43
1424.09
1424.09
1448.24
1448.24
1474.01
1474.01
1501.51
1501.51
1530.86
1530.86
1562.15
1562.15
1595.47
1595.47
1630.87
1630.87
1668.41
1668.41
1708.1
1708.1
1749.94
1749.94
1793.92
1793.92
1839.99
1839.99
1888.09
1888.09
1938.13
1938.13
1990.02
1990.02
2043.65
2043.65
2098.89
2098.89
2155.61
2155.61
2213.67
2213.67
2272.92
2272.92
2333.23
2333.23
2394.46
2394.46
2456.46
2456.46
2519.1
2519.1
2582.26
2582.26
2645.82
2645.82
2709.68
2709.68
2773.74
2773.74
2837.92
2837.92
2902.14
2902.14
2966.35
2966.35
3030.52
3030.52
3094.63
3094.63
3158.67
3158.67
3222.65
3222.65
3286.6
3286.6
3350.56
3350.56
3414.6
3414.6
3478.79
3478.79
3543.26
3543.26
3608.12
3608.12
3673.53
3673.53
3739.64
3739.64
3806.66
3806.66
3874.82
3874.82
3944.38
3944.38
4015.62
4015.62
4088.87
4088.87
4164.51
4164.51
4242.95
4242.95
4324.68
4324.68
4410.26
4410.26
4500.3
4500.3
4595.52
4595.52
4696.77
4696.77
4805.03
4805.03
4921.44
4921.44
5047.39
5047.39
5184.5
5184.5
5334.77
5334.77
5500.64
5500.64
5685.13
5685.13
5892.06
5892.06
6126.28
6126.28
6394.14
6394.14
6704.04
6704.04
7067.4
7067.4
7500.18
7500.18
8025.38
8025.38
8677.39
8677.39
9510.19
9510.19
10613.4
10613.4
12147.5
12147.5
14428.1
14428.1
18160.1
18160.1
25198.3
25198.3
41401.1
41401.1
87997.3
87997.3
264410
264410
1.52418e+06
1.52418e+06
7.88098
7.88097
7.89849
7.89848
7.93193
7.93193
7.98
7.98
8.04204
8.04205
8.11716
8.11716
8.20369
8.20369
8.29927
8.29928
8.4013
8.40131
8.50774
8.50775
8.61653
8.61654
8.72489
8.72489
8.83018
8.83018
8.93167
8.93168
9.03096
9.03097
9.1311
9.13111
9.23547
9.23547
9.34681
9.34682
9.46714
9.46714
9.59825
9.59825
9.74185
9.74186
9.89916
9.89916
10.0708
10.0708
10.2568
10.2568
10.4573
10.4573
10.6722
10.6722
10.9014
10.9014
11.145
11.145
11.403
11.403
11.6745
11.6745
11.9575
11.9575
12.2478
12.2478
12.5413
12.5413
12.8342
12.8342
13.124
13.124
13.4089
13.4089
13.6884
13.6884
13.9636
13.9636
14.2363
14.2363
14.5087
14.5087
14.7825
14.7825
15.0594
15.0594
15.3416
15.3416
15.6314
15.6314
15.9317
15.9317
16.2448
16.2448
16.5732
16.5732
16.9188
16.9188
17.2833
17.2833
17.668
17.668
18.0736
18.0737
18.5009
18.5009
18.9499
18.9499
19.4208
19.4208
19.9134
19.9134
20.4273
20.4274
20.9616
20.9616
21.5149
21.515
22.0857
22.0857
22.6724
22.6724
23.2736
23.2737
23.8887
23.8887
24.5176
24.5177
25.1612
25.1613
25.8201
25.8201
26.4937
26.4937
27.1802
27.1802
27.8765
27.8765
28.5803
28.5803
29.2896
29.2896
30.0038
30.0038
30.7232
30.7232
31.4493
31.4493
32.1844
32.1844
32.9311
32.9311
33.6915
33.6915
34.4677
34.4677
35.2608
35.2608
36.0719
36.0719
36.9013
36.9013
37.7492
37.7492
38.6155
38.6155
39.5
39.5
40.4028
40.4028
41.3241
41.3241
42.2644
42.2644
43.2249
43.2249
44.2067
44.2067
45.2111
45.2111
46.2398
46.2398
47.2947
47.2947
48.378
48.378
49.4915
49.4915
50.6371
50.6371
51.8164
51.8164
53.0305
53.0305
54.281
54.281
55.5698
55.5698
56.8988
56.8988
58.2706
58.2706
59.6879
59.6879
61.1536
61.1537
62.6708
62.6708
64.2421
64.2421
65.8704
65.8704
67.5583
67.5583
69.3084
69.3085
71.1233
71.1233
73.0052
73.0052
74.9564
74.9564
76.9791
76.9791
79.0756
79.0756
81.248
81.248
83.4987
83.4987
85.8298
85.8298
88.2437
88.2437
90.7426
90.7426
93.3286
93.3286
96.0038
96.0038
98.7699
98.7699
101.629
101.629
104.582
104.582
107.631
107.631
110.778
110.779
114.025
114.025
117.373
117.373
120.824
120.824
124.38
124.38
128.042
128.042
131.813
131.813
135.695
135.695
139.69
139.69
143.8
143.8
148.028
148.028
152.376
152.376
156.846
156.846
161.442
161.442
166.165
166.165
171.018
171.018
176.003
176.003
181.123
181.123
186.38
186.38
191.777
191.777
197.315
197.315
202.997
202.997
208.827
208.827
214.805
214.805
220.935
220.935
227.22
227.22
233.663
233.663
240.266
240.266
247.033
247.033
253.966
253.966
261.069
261.069
268.344
268.344
275.794
275.794
283.422
283.422
291.23
291.23
299.22
299.22
307.394
307.394
315.754
315.754
324.301
324.301
333.038
333.038
341.965
341.965
351.083
351.083
360.395
360.395
369.9
369.9
379.601
379.601
389.497
389.497
399.59
399.59
409.88
409.88
420.368
420.368
431.055
431.055
441.941
441.941
453.027
453.027
464.312
464.312
475.797
475.797
487.482
487.482
499.366
499.366
511.448
511.448
523.728
523.728
536.204
536.204
548.876
548.876
561.741
561.741
574.797
574.797
588.042
588.042
601.473
601.473
615.086
615.086
628.879
628.879
642.846
642.846
656.983
656.983
671.285
671.285
685.746
685.746
700.359
700.359
715.118
715.118
730.014
730.014
745.039
745.039
760.184
760.184
775.44
775.44
790.796
790.796
806.24
806.24
821.76
821.76
837.345
837.345
852.98
852.98
868.653
868.653
884.348
884.348
900.053
900.053
915.752
915.752
931.431
931.431
947.073
947.073
962.665
962.665
978.193
978.193
993.642
993.642
1009
1009
1024.26
1024.26
1039.4
1039.4
1054.43
1054.43
1069.33
1069.33
1084.11
1084.11
1098.77
1098.77
1113.31
1113.31
1127.74
1127.74
1142.09
1142.09
1156.38
1156.38
1170.62
1170.62
1184.86
1184.86
1199.14
1199.14
1213.52
1213.52
1228.04
1228.04
1242.79
1242.79
1257.83
1257.83
1273.27
1273.27
1289.2
1289.2
1305.73
1305.73
1322.96
1322.96
1341.01
1341.01
1360.02
1360.02
1380.11
1380.11
1401.43
1401.43
1424.09
1424.09
1448.24
1448.24
1474.01
1474.01
1501.51
1501.51
1530.86
1530.86
1562.16
1562.16
1595.47
1595.47
1630.87
1630.87
1668.41
1668.41
1708.1
1708.1
1749.94
1749.94
1793.92
1793.92
1839.99
1839.99
1888.09
1888.09
1938.13
1938.13
1990.02
1990.02
2043.65
2043.65
2098.89
2098.89
2155.61
2155.61
2213.67
2213.67
2272.92
2272.92
2333.23
2333.23
2394.46
2394.46
2456.46
2456.46
2519.1
2519.1
2582.26
2582.26
2645.82
2645.82
2709.68
2709.68
2773.74
2773.74
2837.92
2837.92
2902.14
2902.14
2966.35
2966.35
3030.52
3030.52
3094.63
3094.63
3158.67
3158.67
3222.65
3222.65
3286.6
3286.6
3350.56
3350.56
3414.6
3414.6
3478.79
3478.79
3543.26
3543.26
3608.12
3608.12
3673.52
3673.52
3739.64
3739.64
3806.66
3806.66
3874.82
3874.82
3944.38
3944.38
4015.62
4015.62
4088.87
4088.87
4164.5
4164.5
4242.95
4242.95
4324.68
4324.68
4410.26
4410.26
4500.3
4500.3
4595.52
4595.52
4696.77
4696.77
4805.03
4805.03
4921.44
4921.44
5047.38
5047.38
5184.5
5184.5
5334.77
5334.77
5500.64
5500.64
5685.13
5685.13
5892.06
5892.06
6126.28
6126.28
6394.14
6394.14
6704.03
6704.03
7067.4
7067.4
7500.18
7500.18
8025.38
8025.38
8677.39
8677.39
9510.19
9510.19
10613.4
10613.4
12147.5
12147.5
14428.1
14428.1
18160.1
18160.1
25198.3
25198.3
41401.1
41401.1
87997.3
87997.3
264410
264410
1.52418e+06
1.52418e+06
)
;

boundaryField
{
    walls
    {
        blending        binomial2;
        n               2;
        beta1           0.075;
        type            omegaWallFunction;
        value           nonuniform List<scalar> 8(1.52417e+06 1.52417e+06 1.52417e+06 1.52417e+06 1.52418e+06 1.52418e+06 1.52418e+06 1.52418e+06);
    }
    inlet
    {
        type            cyclic;
    }
    outlet
    {
        type            cyclic;
    }
    sides
    {
        type            empty;
    }
}


// ************************************************************************* //
