/*--------------------------------*- C++ -*----------------------------------*\
| =========                 |                                                 |
| \\      /  F ield         | OpenFOAM: The Open Source CFD Toolbox           |
|  \\    /   O peration     | Version:  2012                                  |
|   \\  /    A nd           | Website:  www.openfoam.com                      |
|    \\/     M anipulation  |                                                 |
\*---------------------------------------------------------------------------*/
FoamFile
{
    version     2.0;
    format      ascii;
    class       volScalarField;
    location    "16200";
    object      p;
}
// * * * * * * * * * * * * * * * * * * * * * * * * * * * * * * * * * * * * * //

dimensions      [0 2 -2 0 0 0 0];


internalField   nonuniform List<scalar> 
2560
(
2.70428e-10
9.69598e-05
-4.1979e-08
9.69043e-05
-2.39079e-07
9.66977e-05
-8.23402e-07
9.61109e-05
-2.20243e-06
9.47339e-05
-4.91866e-06
9.20186e-05
-9.61865e-06
8.73201e-05
-1.70981e-05
7.98428e-05
-2.82964e-05
6.86466e-05
-4.42895e-05
5.26569e-05
-6.62859e-05
3.06635e-05
-9.56525e-05
1.30164e-06
-0.00013387
-3.69114e-05
-0.000182573
-8.56092e-05
-0.000243529
-0.00014656
-0.000318645
-0.000221669
-0.000409944
-0.000312962
-0.000519586
-0.000422595
-0.000649877
-0.00055288
-0.000803225
-0.000706219
-0.000982134
-0.00088512
-0.00118927
-0.00109225
-0.00142744
-0.00133041
-0.00169944
-0.0016024
-0.00200823
-0.00191117
-0.00235694
-0.00225987
-0.00274874
-0.00265167
-0.00318679
-0.0030897
-0.00367441
-0.00357731
-0.0042151
-0.00411799
-0.00481234
-0.00471522
-0.00546956
-0.00537242
-0.00619037
-0.00609322
-0.00697854
-0.00688137
-0.00783772
-0.00774054
-0.00877155
-0.00867435
-0.00978387
-0.00968667
-0.0108786
-0.0107814
-0.0120595
-0.0119623
-0.0133304
-0.0132331
-0.0146951
-0.0145978
-0.0161577
-0.0160604
-0.017722
-0.0176247
-0.0193917
-0.0192944
-0.021171
-0.0210737
-0.0230636
-0.0229662
-0.0250734
-0.0249761
-0.0272042
-0.0271068
-0.0294598
-0.0293624
-0.0318446
-0.0317472
-0.0343616
-0.0342641
-0.0370137
-0.0369162
-0.0398069
-0.0397095
-0.0427433
-0.0426458
-0.0458261
-0.0457286
-0.0490606
-0.0489631
-0.0524481
-0.0523506
-0.055994
-0.0558965
-0.0597003
-0.0596028
-0.06357
-0.0634725
-0.067607
-0.0675094
-0.0718144
-0.0717168
-0.0761958
-0.0760982
-0.0807515
-0.0806539
-0.085486
-0.0853884
-0.0904034
-0.0903057
-0.0955026
-0.095405
-0.100789
-0.100691
-0.106261
-0.106164
-0.111926
-0.111828
-0.117781
-0.117683
-0.123829
-0.123731
-0.130073
-0.129975
-0.136511
-0.136413
-0.143146
-0.143049
-0.149979
-0.149881
-0.157011
-0.156913
-0.164239
-0.164141
-0.171667
-0.171569
-0.179291
-0.179193
-0.187114
-0.187016
-0.195131
-0.195033
-0.203345
-0.203247
-0.211752
-0.211654
-0.22035
-0.220252
-0.229138
-0.22904
-0.238115
-0.238017
-0.247276
-0.247178
-0.256619
-0.256521
-0.266141
-0.266043
-0.275837
-0.275738
-0.285704
-0.285606
-0.295739
-0.29564
-0.305936
-0.305838
-0.316289
-0.316191
-0.326796
-0.326698
-0.337451
-0.337353
-0.348246
-0.348147
-0.359177
-0.359079
-0.370237
-0.370138
-0.38142
-0.381322
-0.392722
-0.392623
-0.40413
-0.404032
-0.415642
-0.415543
-0.427249
-0.42715
-0.438943
-0.438844
-0.450717
-0.450619
-0.462564
-0.462465
-0.474474
-0.474376
-0.486442
-0.486343
-0.498456
-0.498358
-0.51051
-0.510411
-0.522597
-0.522499
-0.534705
-0.534607
-0.54683
-0.546732
-0.558959
-0.55886
-0.571087
-0.570989
-0.583204
-0.583105
-0.595304
-0.595205
-0.607373
-0.607275
-0.619409
-0.61931
-0.6314
-0.631301
-0.64334
-0.643241
-0.655219
-0.655121
-0.667032
-0.666933
-0.678768
-0.678669
-0.690424
-0.690325
-0.701985
-0.701886
-0.713453
-0.713354
-0.724812
-0.724713
-0.736063
-0.735964
-0.74719
-0.747091
-0.758199
-0.758099
-0.769068
-0.768969
-0.779805
-0.779706
-0.79039
-0.790292
-0.800834
-0.800734
-0.811111
-0.811013
-0.821238
-0.821138
-0.831183
-0.831085
-0.84097
-0.84087
-0.850564
-0.850466
-0.859992
-0.859892
-0.869216
-0.869118
-0.878269
-0.878168
-0.887105
-0.887008
-0.89577
-0.895668
-0.904204
-0.904107
-0.912467
-0.912364
-0.920488
-0.920392
-0.928341
-0.928237
-0.935939
-0.935844
-0.943373
-0.943268
-0.950539
-0.950445
-0.95755
-0.957443
-0.964276
-0.964184
-0.970859
-0.970751
-0.977141
-0.977051
-0.983295
-0.983183
-0.989127
-0.98904
-0.994852
-0.994737
-1.00023
-1.00015
-1.00553
-1.00541
-1.01045
-1.01038
-1.01533
-1.01521
-1.0198
-1.01973
-1.02426
-1.02413
-1.02827
-1.02821
-1.03233
-1.03218
-1.03587
-1.03583
-1.03954
-1.03938
-1.04263
-1.04259
-1.04592
-1.04574
-1.04853
-1.04852
-1.05147
-1.05127
-1.05362
-1.05364
-1.05622
-1.05599
-1.0579
-1.05796
-1.06021
-1.05993
-1.0614
-1.06151
-1.06345
-1.06311
-1.06416
-1.06434
-1.066
-1.06558
-1.06651
-1.06646
-1.06787
-1.06735
-1.06821
-1.06792
-1.0691
-1.06847
-1.06928
-1.06874
-1.0697
-1.06895
-1.06972
-1.06895
-1.06937
-1.06883
-1.06922
-1.06856
-1.06844
-1.06812
-1.06815
-1.0676
-1.06698
-1.06686
-1.06655
-1.06609
-1.065
-1.06507
-1.06445
-1.06406
-1.06271
-1.06278
-1.06186
-1.06154
-1.06
-1.06001
-1.05883
-1.05854
-1.05682
-1.05679
-1.05536
-1.05511
-1.0532
-1.05314
-1.05147
-1.05124
-1.04916
-1.04907
-1.04717
-1.04697
-1.04471
-1.04461
-1.04249
-1.0423
-1.03987
-1.03976
-1.03745
-1.03726
-1.03467
-1.03455
-1.03204
-1.03187
-1.02912
-1.02899
-1.02631
-1.02614
-1.02324
-1.0231
-1.02025
-1.02008
-1.01703
-1.01689
-1.01386
-1.0137
-1.01049
-1.01034
-1.00714
-1.00698
-1.00361
-1.00346
-1.00007
-0.999912
-0.996367
-0.996214
-0.992642
-0.99248
-0.988761
-0.988606
-0.984855
-0.984692
-0.980812
-0.980655
-0.976736
-0.976574
-0.972536
-0.972377
-0.968292
-0.968129
-0.963928
-0.963767
-0.95951
-0.959346
-0.954974
-0.954811
-0.950376
-0.95021
-0.945665
-0.945501
-0.940886
-0.94072
-0.935997
-0.935831
-0.931029
-0.930862
-0.925959
-0.925792
-0.92081
-0.920642
-0.91557
-0.915402
-0.910252
-0.910083
-0.904851
-0.904681
-0.899366
-0.899195
-0.893803
-0.893633
-0.888153
-0.887981
-0.882427
-0.882256
-0.876605
-0.876432
-0.870707
-0.870535
-0.864705
-0.864532
-0.858637
-0.858464
-0.85246
-0.852287
-0.846227
-0.846054
-0.839884
-0.839711
-0.833504
-0.83333
-0.827019
-0.826845
-0.820515
-0.820342
-0.8139
-0.813726
-0.807272
-0.807097
-0.800504
-0.800329
-0.793719
-0.793544
-0.786768
-0.786592
-0.779797
-0.779621
-0.772641
-0.772463
-0.765491
-0.765312
-0.758154
-0.757974
-0.750864
-0.750683
-0.743384
-0.743202
-0.735981
-0.735797
-0.728355
-0.72817
-0.720821
-0.720634
-0.713026
-0.712837
-0.70536
-0.705169
-0.697404
-0.69721
-0.689617
-0.68942
-0.681496
-0.681297
-0.673588
-0.673385
-0.665293
-0.665087
-0.65726
-0.657049
-0.648782
-0.648567
-0.640642
-0.64042
-0.632005
-0.631777
-0.623797
-0.623561
-0.615032
-0.61479
-0.606808
-0.606555
-0.597959
-0.597699
-0.589782
-0.589507
-0.580894
-0.580611
-0.572824
-0.572522
-0.563931
-0.563621
-0.556018
-0.555682
-0.547146
-0.546807
-0.539445
-0.539069
-0.530598
-0.530226
-0.523117
-0.522693
-0.514272
-0.513864
-0.507066
-0.506581
-0.498267
-0.497823
-0.49146
-0.490896
-0.482808
-0.482331
-0.476601
-0.475933
-0.468203
-0.467706
-0.462748
-0.461939
-0.45459
-0.454099
-0.449971
-0.448965
-0.441985
-0.441549
-0.438363
-0.437078
-0.430531
-0.430235
-0.427974
-0.426486
-0.420451
-0.420418
-0.418313
-0.417397
-0.411963
-0.412314
-0.410284
-0.410024
-0.405275
-0.40612
-0.404095
-0.404575
-0.399574
-0.402013
-0.398955
-0.401208
-0.397057
-0.400285
9.73309e-05
-1.9494e-06
9.72754e-05
-1.99177e-06
9.70687e-05
-2.18867e-06
9.64819e-05
-2.77243e-06
9.51049e-05
-4.15092e-06
9.23897e-05
-6.86604e-06
8.76912e-05
-1.15649e-05
8.0214e-05
-1.90422e-05
6.9018e-05
-3.02385e-05
5.30286e-05
-4.62283e-05
3.10354e-05
-6.82218e-05
1.67386e-06
-9.75837e-05
-3.65388e-05
-0.000135797
-8.52362e-05
-0.000184495
-0.000146187
-0.000245446
-0.000221295
-0.000320555
-0.000312588
-0.000411848
-0.00042222
-0.000521481
-0.000552504
-0.000651766
-0.000705843
-0.000805105
-0.000884743
-0.000984006
-0.00109187
-0.00119114
-0.00133003
-0.00142929
-0.00160202
-0.00170128
-0.00191079
-0.00201006
-0.00225949
-0.00235876
-0.00265129
-0.00275056
-0.00308931
-0.00318859
-0.00357693
-0.0036762
-0.00411761
-0.00421688
-0.00471483
-0.00481411
-0.00537203
-0.00547131
-0.00609283
-0.00619211
-0.00688099
-0.00698027
-0.00774015
-0.00783943
-0.00867396
-0.00877325
-0.00968627
-0.00978556
-0.010781
-0.0108803
-0.0119619
-0.0120612
-0.0132327
-0.013332
-0.0145974
-0.0146967
-0.01606
-0.0161593
-0.0176243
-0.0177236
-0.019294
-0.0193933
-0.0210733
-0.0211726
-0.0229658
-0.0230651
-0.0249757
-0.025075
-0.0271064
-0.0272057
-0.029362
-0.0294613
-0.0317468
-0.0318461
-0.0342637
-0.0343631
-0.0369158
-0.0370151
-0.039709
-0.0398084
-0.0426454
-0.0427447
-0.0457282
-0.0458275
-0.0489627
-0.049062
-0.0523502
-0.0524495
-0.0558961
-0.0559954
-0.0596023
-0.0597017
-0.063472
-0.0635714
-0.067509
-0.0676084
-0.0717164
-0.0718157
-0.0760977
-0.0761971
-0.0806534
-0.0807528
-0.0853879
-0.0854873
-0.0903053
-0.0904047
-0.0954045
-0.0955039
-0.100691
-0.10079
-0.106163
-0.106263
-0.111828
-0.111927
-0.117683
-0.117782
-0.123731
-0.12383
-0.129974
-0.130074
-0.136412
-0.136512
-0.143048
-0.143148
-0.149881
-0.14998
-0.156912
-0.157012
-0.164141
-0.16424
-0.171568
-0.171668
-0.179192
-0.179292
-0.187015
-0.187115
-0.195033
-0.195132
-0.203246
-0.203346
-0.211654
-0.211753
-0.220252
-0.220351
-0.22904
-0.229139
-0.238016
-0.238116
-0.247177
-0.247277
-0.256521
-0.25662
-0.266043
-0.266142
-0.275738
-0.275837
-0.285606
-0.285705
-0.29564
-0.295739
-0.305837
-0.305937
-0.31619
-0.31629
-0.326698
-0.326797
-0.337353
-0.337452
-0.348147
-0.348246
-0.359079
-0.359178
-0.370138
-0.370238
-0.381322
-0.381421
-0.392623
-0.392722
-0.404032
-0.404131
-0.415543
-0.415642
-0.42715
-0.42725
-0.438844
-0.438943
-0.450618
-0.450718
-0.462465
-0.462564
-0.474375
-0.474475
-0.486343
-0.486442
-0.498357
-0.498457
-0.510411
-0.510511
-0.522498
-0.522598
-0.534606
-0.534706
-0.546731
-0.546831
-0.55886
-0.558959
-0.570988
-0.571088
-0.583105
-0.583204
-0.595204
-0.595304
-0.607274
-0.607374
-0.619309
-0.619409
-0.631301
-0.6314
-0.64324
-0.64334
-0.65512
-0.65522
-0.666933
-0.667033
-0.678669
-0.678768
-0.690324
-0.690424
-0.701886
-0.701985
-0.713354
-0.713454
-0.724713
-0.724812
-0.735963
-0.736063
-0.747091
-0.747191
-0.758099
-0.758199
-0.768969
-0.769068
-0.779706
-0.779806
-0.790292
-0.790391
-0.800734
-0.800835
-0.811013
-0.811112
-0.821137
-0.821238
-0.831085
-0.831184
-0.840869
-0.84097
-0.850465
-0.850564
-0.859891
-0.859993
-0.869118
-0.869216
-0.878168
-0.87827
-0.887007
-0.887105
-0.895668
-0.89577
-0.904107
-0.904204
-0.912364
-0.912467
-0.920392
-0.920488
-0.928237
-0.928341
-0.935844
-0.935939
-0.943268
-0.943373
-0.950445
-0.950539
-0.957443
-0.95755
-0.964184
-0.964276
-0.970751
-0.97086
-0.977051
-0.977141
-0.983183
-0.983295
-0.98904
-0.989127
-0.994737
-0.994852
-1.00015
-1.00023
-1.00541
-1.00553
-1.01038
-1.01045
-1.01521
-1.01533
-1.01973
-1.0198
-1.02413
-1.02426
-1.02821
-1.02827
-1.03218
-1.03233
-1.03583
-1.03587
-1.03938
-1.03954
-1.04259
-1.04263
-1.04574
-1.04592
-1.04852
-1.04854
-1.05127
-1.05147
-1.05364
-1.05362
-1.05599
-1.05622
-1.05796
-1.0579
-1.05993
-1.06021
-1.06151
-1.0614
-1.06311
-1.06345
-1.06434
-1.06416
-1.06558
-1.066
-1.06646
-1.06651
-1.06735
-1.06787
-1.06792
-1.06821
-1.06847
-1.0691
-1.06874
-1.06928
-1.06895
-1.0697
-1.06895
-1.06972
-1.06883
-1.06937
-1.06856
-1.06922
-1.06812
-1.06844
-1.0676
-1.06815
-1.06686
-1.06698
-1.06609
-1.06655
-1.06507
-1.065
-1.06406
-1.06445
-1.06278
-1.06271
-1.06154
-1.06186
-1.06001
-1.06
-1.05854
-1.05883
-1.05679
-1.05682
-1.05511
-1.05536
-1.05314
-1.0532
-1.05124
-1.05147
-1.04907
-1.04916
-1.04696
-1.04717
-1.04461
-1.04471
-1.0423
-1.04249
-1.03976
-1.03987
-1.03726
-1.03745
-1.03455
-1.03467
-1.03187
-1.03204
-1.02899
-1.02912
-1.02614
-1.02631
-1.0231
-1.02324
-1.02008
-1.02025
-1.01689
-1.01703
-1.0137
-1.01386
-1.01034
-1.01049
-1.00698
-1.00714
-1.00346
-1.00361
-0.999912
-1.00007
-0.996214
-0.996367
-0.99248
-0.992642
-0.988606
-0.988761
-0.984692
-0.984855
-0.980655
-0.980812
-0.976574
-0.976736
-0.972377
-0.972536
-0.968129
-0.968292
-0.963767
-0.963928
-0.959345
-0.95951
-0.954811
-0.954974
-0.95021
-0.950376
-0.945501
-0.945665
-0.94072
-0.940886
-0.935831
-0.935997
-0.930862
-0.931029
-0.925792
-0.925959
-0.920642
-0.92081
-0.915402
-0.91557
-0.910083
-0.910252
-0.904681
-0.90485
-0.899195
-0.899366
-0.893633
-0.893803
-0.887981
-0.888153
-0.882256
-0.882427
-0.876432
-0.876605
-0.870535
-0.870707
-0.864532
-0.864705
-0.858464
-0.858637
-0.852287
-0.85246
-0.846054
-0.846227
-0.839711
-0.839884
-0.83333
-0.833504
-0.826845
-0.827019
-0.820342
-0.820515
-0.813726
-0.8139
-0.807097
-0.807272
-0.800329
-0.800504
-0.793544
-0.793719
-0.786592
-0.786768
-0.779621
-0.779797
-0.772463
-0.772641
-0.765312
-0.765491
-0.757974
-0.758154
-0.750683
-0.750864
-0.743202
-0.743384
-0.735797
-0.735981
-0.72817
-0.728355
-0.720634
-0.720821
-0.712837
-0.713026
-0.705169
-0.70536
-0.69721
-0.697404
-0.68942
-0.689617
-0.681297
-0.681496
-0.673385
-0.673588
-0.665087
-0.665293
-0.657049
-0.65726
-0.648567
-0.648782
-0.64042
-0.640642
-0.631777
-0.632005
-0.623561
-0.623797
-0.61479
-0.615031
-0.606555
-0.606808
-0.597699
-0.597959
-0.589507
-0.589782
-0.580611
-0.580894
-0.572522
-0.572824
-0.563621
-0.56393
-0.555682
-0.556018
-0.546807
-0.547146
-0.539069
-0.539445
-0.530226
-0.530598
-0.522693
-0.523117
-0.513864
-0.514272
-0.506581
-0.507066
-0.497823
-0.498267
-0.490896
-0.49146
-0.482331
-0.482808
-0.475933
-0.476601
-0.467706
-0.468203
-0.461939
-0.462748
-0.454099
-0.45459
-0.448965
-0.449971
-0.441549
-0.441985
-0.437078
-0.438363
-0.430235
-0.430531
-0.426486
-0.427974
-0.420418
-0.420451
-0.417397
-0.418312
-0.412314
-0.411963
-0.410024
-0.410284
-0.40612
-0.405275
-0.404575
-0.404095
-0.402013
-0.399574
-0.401208
-0.398955
-0.400285
-0.397057
-0.397057
-0.400284
-0.398954
-0.401212
-0.399574
-0.402013
-0.404138
-0.40458
-0.40531
-0.40612
-0.410314
-0.410023
-0.411994
-0.412315
-0.418341
-0.417399
-0.420481
-0.42042
-0.428006
-0.426491
-0.430562
-0.430241
-0.438387
-0.437084
-0.442013
-0.441557
-0.449996
-0.448973
-0.454617
-0.454109
-0.46277
-0.461946
-0.468226
-0.467714
-0.476622
-0.475941
-0.48283
-0.48234
-0.491483
-0.490907
-0.498289
-0.497833
-0.507087
-0.506591
-0.514293
-0.513875
-0.523134
-0.522701
-0.530617
-0.530235
-0.539467
-0.539083
-0.547164
-0.546816
-0.556039
-0.555695
-0.563951
-0.563634
-0.57284
-0.57253
-0.580915
-0.580626
-0.589802
-0.589521
-0.597983
-0.597717
-0.606827
-0.606567
-0.615056
-0.614808
-0.623813
-0.623572
-0.632021
-0.631789
-0.64066
-0.640433
-0.648798
-0.648577
-0.65728
-0.657064
-0.665311
-0.6651
-0.673607
-0.6734
-0.681515
-0.681311
-0.689637
-0.689436
-0.69742
-0.697222
-0.70538
-0.705184
-0.713042
-0.712849
-0.720838
-0.720646
-0.728371
-0.728181
-0.735999
-0.735811
-0.743399
-0.743212
-0.750885
-0.7507
-0.758173
-0.757988
-0.765505
-0.765322
-0.77266
-0.772477
-0.779815
-0.779634
-0.786789
-0.786608
-0.793737
-0.793557
-0.800521
-0.800341
-0.807286
-0.807107
-0.813924
-0.813745
-0.820534
-0.820356
-0.82704
-0.826863
-0.833523
-0.833346
-0.839906
-0.839728
-0.846243
-0.846065
-0.852474
-0.852296
-0.858659
-0.858481
-0.864724
-0.864547
-0.870731
-0.870554
-0.87662
-0.876444
-0.882441
-0.882265
-0.888171
-0.887995
-0.893817
-0.893642
-0.89938
-0.899206
-0.904866
-0.904693
-0.910272
-0.910099
-0.915593
-0.91542
-0.920835
-0.920662
-0.925982
-0.925811
-0.931048
-0.930877
-0.936017
-0.935847
-0.940903
-0.940732
-0.945682
-0.945514
-0.950397
-0.950227
-0.95499
-0.954823
-0.959524
-0.959355
-0.963949
-0.963784
-0.968312
-0.968144
-0.972549
-0.972386
-0.976754
-0.976588
-0.980829
-0.980667
-0.98487
-0.984703
-0.988777
-0.988617
-0.992665
-0.992499
-0.99639
-0.996233
-1.00009
-0.999925
-1.00363
-1.00348
-1.00716
-1.007
-1.01051
-1.01036
-1.01388
-1.01371
-1.01705
-1.01691
-1.02027
-1.0201
-1.02326
-1.02312
-1.02633
-1.02616
-1.02914
-1.02901
-1.03206
-1.03188
-1.03469
-1.03457
-1.03746
-1.03728
-1.03989
-1.03977
-1.04251
-1.04231
-1.04472
-1.04462
-1.04719
-1.04698
-1.04917
-1.04909
-1.05149
-1.05126
-1.05322
-1.05316
-1.05538
-1.05512
-1.05684
-1.05681
-1.05885
-1.05856
-1.06002
-1.06003
-1.06189
-1.06155
-1.06273
-1.06279
-1.06446
-1.06407
-1.06502
-1.06508
-1.06657
-1.06611
-1.067
-1.06688
-1.06817
-1.06761
-1.06846
-1.06814
-1.06924
-1.06858
-1.06939
-1.06884
-1.06974
-1.06896
-1.06972
-1.06897
-1.0693
-1.06876
-1.06912
-1.06848
-1.06823
-1.06794
-1.06789
-1.06737
-1.06653
-1.06648
-1.06602
-1.06559
-1.06418
-1.06435
-1.06347
-1.06313
-1.06142
-1.06153
-1.06022
-1.05994
-1.05792
-1.05797
-1.05625
-1.05601
-1.05363
-1.05365
-1.05148
-1.05128
-1.04855
-1.04853
-1.04594
-1.04576
-1.04265
-1.04262
-1.03957
-1.0394
-1.0359
-1.03585
-1.03235
-1.0322
-1.02828
-1.02822
-1.02428
-1.02414
-1.01981
-1.01973
-1.01536
-1.01523
-1.01046
-1.01038
-1.00554
-1.00542
-1.00024
-1.00016
-0.994859
-0.99474
-0.989162
-0.989071
-0.983319
-0.983203
-0.977147
-0.977054
-0.970897
-0.970784
-0.964294
-0.964198
-0.957554
-0.957443
-0.950579
-0.950481
-0.943409
-0.9433
-0.935969
-0.93587
-0.928383
-0.928275
-0.920483
-0.920382
-0.912499
-0.912392
-0.904211
-0.90411
-0.895782
-0.895676
-0.88713
-0.887028
-0.87827
-0.878164
-0.869198
-0.869096
-0.860005
-0.8599
-0.850619
-0.850517
-0.840953
-0.840848
-0.831194
-0.831091
-0.821251
-0.821146
-0.811148
-0.811045
-0.80087
-0.800765
-0.790453
-0.79035
-0.77987
-0.779766
-0.769062
-0.768959
-0.758207
-0.758103
-0.747259
-0.747156
-0.736055
-0.735951
-0.724776
-0.724673
-0.713493
-0.713389
-0.702041
-0.701938
-0.690477
-0.690373
-0.67876
-0.678657
-0.66708
-0.666977
-0.655268
-0.655165
-0.643381
-0.643277
-0.631375
-0.631272
-0.619462
-0.619358
-0.607449
-0.607346
-0.595259
-0.595155
-0.583287
-0.583184
-0.571159
-0.571056
-0.558967
-0.558864
-0.546788
-0.546685
-0.534732
-0.534629
-0.522546
-0.522443
-0.510512
-0.510409
-0.498529
-0.498426
-0.48639
-0.486287
-0.474488
-0.474385
-0.462626
-0.462523
-0.450674
-0.450571
-0.43896
-0.438857
-0.427351
-0.427247
-0.415648
-0.415545
-0.404064
-0.403961
-0.392771
-0.392667
-0.38143
-0.381327
-0.370224
-0.37012
-0.359163
-0.35906
-0.348262
-0.348159
-0.337517
-0.337413
-0.32677
-0.326666
-0.316374
-0.316271
-0.305995
-0.305891
-0.295797
-0.295693
-0.285812
-0.285709
-0.275839
-0.275736
-0.266092
-0.265989
-0.256554
-0.256451
-0.247254
-0.247151
-0.238169
-0.238066
-0.229153
-0.22905
-0.220361
-0.220258
-0.211827
-0.211724
-0.203347
-0.203244
-0.195134
-0.195031
-0.187152
-0.187049
-0.179276
-0.179172
-0.171632
-0.171529
-0.164271
-0.164167
-0.156974
-0.156871
-0.149969
-0.149866
-0.143187
-0.143084
-0.136545
-0.136442
-0.130118
-0.130015
-0.123844
-0.12374
-0.117778
-0.117675
-0.112021
-0.111918
-0.106314
-0.106211
-0.100781
-0.100678
-0.0955727
-0.0954697
-0.0904084
-0.0903054
-0.0855532
-0.0854502
-0.080749
-0.0806459
-0.0762473
-0.0761443
-0.071793
-0.07169
-0.0676431
-0.0675401
-0.0636441
-0.0635411
-0.059723
-0.05962
-0.0560481
-0.0559451
-0.0524663
-0.0523633
-0.0491082
-0.0490052
-0.0458512
-0.0457482
-0.0428005
-0.0426975
-0.0398532
-0.0397503
-0.037008
-0.036905
-0.0343596
-0.0342566
-0.0318879
-0.0317849
-0.0295201
-0.0294171
-0.0272366
-0.0271336
-0.0250627
-0.0249597
-0.0231115
-0.0230085
-0.0211922
-0.0210892
-0.0194154
-0.0193124
-0.0177333
-0.0176303
-0.0161879
-0.016085
-0.0147233
-0.0146204
-0.0133399
-0.0132369
-0.0120771
-0.0119741
-0.0108963
-0.0107933
-0.00981713
-0.00971416
-0.00877816
-0.00867519
-0.00786818
-0.00776521
-0.00699772
-0.00689475
-0.00620724
-0.00610427
-0.00548727
-0.0053843
-0.00483843
-0.00473547
-0.0042496
-0.00414663
-0.00370012
-0.00359716
-0.00320529
-0.00310232
-0.00276908
-0.00266611
-0.00237802
-0.00227505
-0.00202159
-0.00191863
-0.00171951
-0.00161655
-0.00144684
-0.00134387
-0.00120713
-0.00110416
-0.00100388
-0.000900915
-0.000827437
-0.000724476
-0.000672104
-0.000569141
-0.000540104
-0.000437138
-0.000431859
-0.000328895
-0.000341513
-0.000238552
-0.000265004
-0.000162042
-0.000203143
-0.000100179
-0.000155021
-5.20572e-05
-0.000117252
-1.42911e-05
-8.73176e-05
1.56445e-05
-6.50694e-05
3.78943e-05
-4.93263e-05
5.36366e-05
-3.8313e-05
6.46486e-05
-3.07033e-05
7.22589e-05
-2.5976e-05
7.69865e-05
-2.33089e-05
7.96541e-05
-2.19497e-05
8.10121e-05
-2.13514e-05
8.1613e-05
-2.11458e-05
8.18282e-05
-2.11007e-05
8.18866e-05
-0.400284
-0.397058
-0.401212
-0.398954
-0.402013
-0.399574
-0.40458
-0.404138
-0.40612
-0.40531
-0.410023
-0.410314
-0.412315
-0.411994
-0.417399
-0.418341
-0.42042
-0.420481
-0.426491
-0.428006
-0.430242
-0.430562
-0.437084
-0.438387
-0.441557
-0.442013
-0.448973
-0.449996
-0.454109
-0.454617
-0.461946
-0.46277
-0.467714
-0.468226
-0.475941
-0.476622
-0.48234
-0.48283
-0.490907
-0.491483
-0.497834
-0.498289
-0.506591
-0.507087
-0.513875
-0.514293
-0.522701
-0.523134
-0.530235
-0.530617
-0.539083
-0.539467
-0.546816
-0.547164
-0.555695
-0.556039
-0.563634
-0.563951
-0.57253
-0.57284
-0.580626
-0.580915
-0.589521
-0.589802
-0.597717
-0.597983
-0.606567
-0.606827
-0.614808
-0.615056
-0.623572
-0.623813
-0.631789
-0.632021
-0.640433
-0.64066
-0.648577
-0.648798
-0.657064
-0.65728
-0.6651
-0.665311
-0.6734
-0.673607
-0.681311
-0.681515
-0.689436
-0.689637
-0.697222
-0.69742
-0.705184
-0.70538
-0.712849
-0.713042
-0.720646
-0.720838
-0.728181
-0.728371
-0.735811
-0.735999
-0.743212
-0.743399
-0.7507
-0.750885
-0.757988
-0.758173
-0.765322
-0.765505
-0.772477
-0.77266
-0.779634
-0.779815
-0.786608
-0.786789
-0.793557
-0.793737
-0.800341
-0.800521
-0.807107
-0.807286
-0.813745
-0.813924
-0.820356
-0.820534
-0.826863
-0.82704
-0.833346
-0.833523
-0.839728
-0.839906
-0.846065
-0.846243
-0.852296
-0.852473
-0.858481
-0.858659
-0.864547
-0.864724
-0.870554
-0.870731
-0.876444
-0.87662
-0.882265
-0.882441
-0.887995
-0.888171
-0.893642
-0.893817
-0.899206
-0.89938
-0.904693
-0.904866
-0.910099
-0.910272
-0.91542
-0.915593
-0.920662
-0.920835
-0.925811
-0.925982
-0.930877
-0.931048
-0.935847
-0.936017
-0.940732
-0.940903
-0.945514
-0.945682
-0.950228
-0.950397
-0.954823
-0.95499
-0.959355
-0.959524
-0.963784
-0.963949
-0.968144
-0.968312
-0.972386
-0.972549
-0.976588
-0.976754
-0.980667
-0.980829
-0.984703
-0.98487
-0.988618
-0.988777
-0.992499
-0.992665
-0.996233
-0.99639
-0.999925
-1.00009
-1.00348
-1.00363
-1.007
-1.00716
-1.01036
-1.01051
-1.01371
-1.01388
-1.01691
-1.01705
-1.0201
-1.02027
-1.02312
-1.02326
-1.02616
-1.02633
-1.02901
-1.02914
-1.03188
-1.03206
-1.03457
-1.03469
-1.03728
-1.03746
-1.03977
-1.03989
-1.04231
-1.04251
-1.04462
-1.04472
-1.04698
-1.04719
-1.04909
-1.04917
-1.05126
-1.05149
-1.05316
-1.05322
-1.05512
-1.05538
-1.05681
-1.05684
-1.05856
-1.05885
-1.06003
-1.06002
-1.06155
-1.06189
-1.06279
-1.06273
-1.06407
-1.06446
-1.06508
-1.06502
-1.06611
-1.06657
-1.06688
-1.067
-1.06761
-1.06817
-1.06814
-1.06846
-1.06858
-1.06924
-1.06884
-1.06939
-1.06896
-1.06974
-1.06897
-1.06972
-1.06876
-1.0693
-1.06848
-1.06912
-1.06794
-1.06823
-1.06737
-1.06789
-1.06648
-1.06653
-1.06559
-1.06602
-1.06435
-1.06418
-1.06313
-1.06347
-1.06153
-1.06142
-1.05994
-1.06022
-1.05797
-1.05792
-1.05601
-1.05625
-1.05365
-1.05363
-1.05128
-1.05148
-1.04853
-1.04855
-1.04576
-1.04594
-1.04262
-1.04265
-1.0394
-1.03957
-1.03585
-1.0359
-1.0322
-1.03235
-1.02822
-1.02828
-1.02414
-1.02428
-1.01973
-1.01981
-1.01523
-1.01536
-1.01038
-1.01046
-1.00542
-1.00554
-1.00016
-1.00024
-0.99474
-0.994859
-0.989071
-0.989162
-0.983204
-0.983319
-0.977054
-0.977147
-0.970784
-0.970897
-0.964198
-0.964294
-0.957443
-0.957554
-0.950481
-0.950579
-0.9433
-0.943409
-0.93587
-0.935969
-0.928275
-0.928383
-0.920382
-0.920483
-0.912392
-0.912499
-0.904111
-0.904211
-0.895676
-0.895782
-0.887028
-0.88713
-0.878164
-0.87827
-0.869096
-0.869198
-0.8599
-0.860005
-0.850517
-0.850619
-0.840848
-0.840953
-0.831091
-0.831194
-0.821146
-0.821251
-0.811045
-0.811148
-0.800765
-0.80087
-0.79035
-0.790453
-0.779766
-0.77987
-0.768959
-0.769062
-0.758103
-0.758207
-0.747156
-0.747259
-0.735951
-0.736055
-0.724673
-0.724776
-0.713389
-0.713493
-0.701938
-0.702041
-0.690373
-0.690477
-0.678657
-0.67876
-0.666977
-0.66708
-0.655165
-0.655268
-0.643277
-0.643381
-0.631272
-0.631375
-0.619358
-0.619462
-0.607346
-0.607449
-0.595155
-0.595259
-0.583184
-0.583287
-0.571056
-0.571159
-0.558864
-0.558967
-0.546685
-0.546788
-0.534629
-0.534732
-0.522443
-0.522546
-0.510409
-0.510512
-0.498426
-0.498529
-0.486287
-0.48639
-0.474385
-0.474488
-0.462523
-0.462626
-0.450571
-0.450674
-0.438857
-0.43896
-0.427247
-0.427351
-0.415545
-0.415648
-0.403961
-0.404064
-0.392667
-0.392771
-0.381327
-0.38143
-0.37012
-0.370224
-0.35906
-0.359163
-0.348159
-0.348262
-0.337413
-0.337517
-0.326666
-0.32677
-0.316271
-0.316374
-0.305891
-0.305995
-0.295693
-0.295797
-0.285709
-0.285812
-0.275736
-0.275839
-0.265989
-0.266092
-0.256451
-0.256554
-0.247151
-0.247254
-0.238066
-0.238169
-0.22905
-0.229153
-0.220258
-0.220361
-0.211724
-0.211827
-0.203244
-0.203347
-0.195031
-0.195134
-0.187049
-0.187152
-0.179172
-0.179276
-0.171529
-0.171632
-0.164168
-0.164271
-0.156871
-0.156974
-0.149866
-0.149969
-0.143084
-0.143187
-0.136442
-0.136545
-0.130015
-0.130119
-0.123741
-0.123844
-0.117675
-0.117778
-0.111918
-0.112021
-0.106211
-0.106314
-0.100678
-0.100781
-0.0954697
-0.0955727
-0.0903054
-0.0904084
-0.0854502
-0.0855532
-0.080646
-0.080749
-0.0761444
-0.0762474
-0.07169
-0.071793
-0.0675401
-0.0676431
-0.0635411
-0.0636441
-0.05962
-0.059723
-0.0559452
-0.0560481
-0.0523633
-0.0524663
-0.0490053
-0.0491082
-0.0457483
-0.0458512
-0.0426976
-0.0428005
-0.0397503
-0.0398533
-0.0369051
-0.037008
-0.0342567
-0.0343596
-0.031785
-0.0318879
-0.0294172
-0.0295201
-0.0271336
-0.0272366
-0.0249597
-0.0250627
-0.0230086
-0.0231115
-0.0210892
-0.0211922
-0.0193125
-0.0194154
-0.0176304
-0.0177333
-0.016085
-0.0161879
-0.0146204
-0.0147233
-0.013237
-0.0133399
-0.0119742
-0.0120771
-0.0107934
-0.0108963
-0.00971421
-0.00981714
-0.00867524
-0.00877816
-0.00776526
-0.00786818
-0.0068948
-0.00699773
-0.00610432
-0.00620725
-0.00538435
-0.00548727
-0.00473552
-0.00483844
-0.00414669
-0.0042496
-0.00359721
-0.00370013
-0.00310238
-0.0032053
-0.00266617
-0.00276908
-0.00227511
-0.00237802
-0.00191869
-0.0020216
-0.0016166
-0.00171951
-0.00134393
-0.00144684
-0.00110422
-0.00120713
-0.000900968
-0.00100388
-0.00072453
-0.000827437
-0.000569195
-0.000672104
-0.000437192
-0.000540104
-0.00032895
-0.000431859
-0.000238606
-0.000341512
-0.000162096
-0.000265003
-0.000100233
-0.000203142
-5.21119e-05
-0.000155019
-1.43458e-05
-0.000117251
1.55898e-05
-8.73161e-05
3.78396e-05
-6.50678e-05
5.35819e-05
-4.93245e-05
6.45938e-05
-3.83111e-05
7.22041e-05
-3.07013e-05
7.69317e-05
-2.5974e-05
7.95993e-05
-2.33069e-05
8.09573e-05
-2.19477e-05
8.15582e-05
-2.13494e-05
8.17734e-05
-2.11438e-05
8.18319e-05
-2.10987e-05
)
;

boundaryField
{
    walls
    {
        type            zeroGradient;
    }
    inlet
    {
        type            cyclic;
    }
    outlet
    {
        type            cyclic;
    }
    sides
    {
        type            empty;
    }
}


// ************************************************************************* //
