/*--------------------------------*- C++ -*----------------------------------*\
| =========                 |                                                 |
| \\      /  F ield         | OpenFOAM: The Open Source CFD Toolbox           |
|  \\    /   O peration     | Version:  2012                                  |
|   \\  /    A nd           | Website:  www.openfoam.com                      |
|    \\/     M anipulation  |                                                 |
\*---------------------------------------------------------------------------*/
FoamFile
{
    version     2.0;
    format      ascii;
    class       surfaceScalarField;
    location    "16200";
    object      phi;
}
// * * * * * * * * * * * * * * * * * * * * * * * * * * * * * * * * * * * * * //

dimensions      [0 3 -1 0 0 0 0];
oriented        oriented;


internalField   nonuniform List<scalar> 
5116
(
7.71258e-07
1.62038e-12
-6.83845e-13
-2.18308e-12
7.02124e-13
2.3573e-06
3.74826e-12
-9.46618e-13
-5.24557e-12
1.04378e-12
4.01096e-06
6.55456e-12
-7.34076e-13
-7.62367e-12
8.09419e-13
5.73438e-06
7.3128e-12
-4.1584e-13
-9.00157e-12
4.58508e-13
7.52977e-06
8.47184e-12
-2.27096e-13
-9.73483e-12
2.50389e-13
9.39942e-06
8.52456e-12
-1.40254e-13
-1.0218e-11
1.54628e-13
1.13457e-05
9.22283e-12
-9.79167e-14
-1.05263e-11
1.07944e-13
1.33712e-05
9.12779e-12
-7.46467e-14
-1.07904e-11
8.22787e-14
1.54786e-05
9.65373e-12
-6.04557e-14
-1.09753e-11
6.66278e-14
1.76706e-05
9.50475e-12
-5.11072e-14
-1.11598e-11
5.63119e-14
1.99501e-05
9.9647e-12
-4.45807e-14
-1.12918e-11
4.9111e-14
2.23203e-05
9.79538e-12
-3.98308e-14
-1.1438e-11
4.38645e-14
2.47843e-05
1.02085e-11
-3.62555e-14
-1.15429e-11
3.99165e-14
2.73454e-05
1.00273e-11
-3.35028e-14
-1.16678e-11
3.68711e-14
3.00071e-05
1.04196e-11
-3.13382e-14
-1.17565e-11
3.44776e-14
3.27729e-05
1.02337e-11
-2.96183e-14
-1.18682e-11
3.25697e-14
3.56464e-05
1.06058e-11
-2.82325e-14
-1.19469e-11
3.10338e-14
3.86315e-05
1.04162e-11
-2.71151e-14
-1.20501e-11
2.9789e-14
4.17319e-05
1.07793e-11
-2.6206e-14
-1.21221e-11
2.87774e-14
4.49515e-05
1.05889e-11
-2.54737e-14
-1.22197e-11
2.79556e-14
4.82943e-05
1.09411e-11
-2.48809e-14
-1.22875e-11
2.72914e-14
5.17643e-05
1.07499e-11
-2.4413e-14
-1.23814e-11
2.67597e-14
5.53655e-05
1.10979e-11
-2.40446e-14
-1.24463e-11
2.63414e-14
5.91018e-05
1.09076e-11
-2.37702e-14
-1.25379e-11
2.60211e-14
6.29771e-05
1.12498e-11
-2.35705e-14
-1.26013e-11
2.57872e-14
6.69955e-05
1.10603e-11
-2.34456e-14
-1.26917e-11
2.56297e-14
7.11606e-05
1.14009e-11
-2.33796e-14
-1.27544e-11
2.55413e-14
7.54761e-05
1.12132e-11
-2.33762e-14
-1.28444e-11
2.55156e-14
7.99455e-05
1.15508e-11
-2.34216e-14
-1.29071e-11
2.55479e-14
8.45722e-05
1.1365e-11
-2.35217e-14
-1.29975e-11
2.56338e-14
8.93592e-05
1.17024e-11
-2.36639e-14
-1.30608e-11
2.57706e-14
9.43094e-05
1.15193e-11
-2.38561e-14
-1.31521e-11
2.59552e-14
9.94252e-05
1.18558e-11
-2.40861e-14
-1.32167e-11
2.61862e-14
0.000104709
1.16754e-11
-2.43634e-14
-1.33096e-11
2.64616e-14
0.000110162
1.20129e-11
-2.46759e-14
-1.33758e-11
2.67806e-14
0.000115786
1.18359e-11
-2.50344e-14
-1.34707e-11
2.71421e-14
0.000121582
1.21742e-11
-2.54269e-14
-1.35392e-11
2.75461e-14
0.000127551
1.20007e-11
-2.58653e-14
-1.36367e-11
2.79919e-14
0.000133691
1.23409e-11
-2.63374e-14
-1.37079e-11
2.84799e-14
0.000140003
1.21716e-11
-2.68561e-14
-1.38085e-11
2.901e-14
0.000146484
1.25139e-11
-2.74089e-14
-1.38828e-11
2.95829e-14
0.000153133
1.23491e-11
-2.80098e-14
-1.3987e-11
3.01988e-14
0.000159948
1.26943e-11
-2.86458e-14
-1.40651e-11
3.0859e-14
0.000166923
1.25345e-11
-2.93318e-14
-1.41734e-11
3.15636e-14
0.000174057
1.28831e-11
-3.00545e-14
-1.42557e-11
3.23142e-14
0.000181342
1.27288e-11
-3.08296e-14
-1.43687e-11
3.31111e-14
0.000188773
1.30814e-11
-3.16431e-14
-1.44557e-11
3.39562e-14
0.000196343
1.2933e-11
-3.25117e-14
-1.45739e-11
3.48498e-14
0.000204045
1.32904e-11
-3.34205e-14
-1.46663e-11
3.57937e-14
0.00021187
1.31486e-11
-3.43872e-14
-1.47904e-11
3.67883e-14
0.000219809
1.35111e-11
-3.53957e-14
-1.48887e-11
3.78353e-14
0.00022785
1.33763e-11
-3.64648e-14
-1.50192e-11
3.89351e-14
0.000235983
1.37452e-11
-3.75776e-14
-1.51241e-11
4.00894e-14
0.000244196
1.3618e-11
-3.8753e-14
-1.52618e-11
4.1298e-14
0.000252475
1.39934e-11
-3.99726e-14
-1.53738e-11
4.25619e-14
0.000260806
1.38745e-11
-4.12559e-14
-1.55192e-11
4.38803e-14
0.000269175
1.42576e-11
-4.25831e-14
-1.5639e-11
4.52542e-14
0.000277565
1.41475e-11
-4.39747e-14
-1.57929e-11
4.66823e-14
0.00028596
1.45385e-11
-4.54084e-14
-1.59212e-11
4.81643e-14
0.000294343
1.44378e-11
-4.69045e-14
-1.60841e-11
4.96976e-14
0.000302696
1.48376e-11
-4.84388e-14
-1.62215e-11
5.12811e-14
0.000311002
1.47466e-11
-5.00321e-14
-1.63942e-11
5.29113e-14
0.00031924
1.51563e-11
-5.16573e-14
-1.6541e-11
5.45855e-14
0.000327392
1.50753e-11
-5.33356e-14
-1.67239e-11
5.62991e-14
0.000335438
1.54951e-11
-5.50377e-14
-1.68808e-11
5.80487e-14
0.000343359
1.54242e-11
-5.67844e-14
-1.70745e-11
5.98277e-14
0.000351135
1.58554e-11
-5.85448e-14
-1.72415e-11
6.16328e-14
0.000358747
1.57946e-11
-6.03408e-14
-1.74463e-11
6.34567e-14
0.000366175
1.62366e-11
-6.21389e-14
-1.7624e-11
6.52952e-14
0.000373401
1.61858e-11
-6.39632e-14
-1.78401e-11
6.71415e-14
0.000380407
1.66404e-11
-6.57792e-14
-1.80281e-11
6.89923e-14
0.000387175
1.65995e-11
-6.76132e-14
-1.82556e-11
7.08412e-14
0.000393688
1.70652e-11
-6.94306e-14
-1.84542e-11
7.26868e-14
0.000399932
1.70338e-11
-7.12616e-14
-1.86932e-11
7.45248e-14
0.000405893
1.75124e-11
-7.30722e-14
-1.8902e-11
7.63566e-14
0.000411558
1.74906e-11
-7.48971e-14
-1.91523e-11
7.81805e-14
0.000416914
1.79802e-11
-7.67035e-14
-1.93715e-11
8.00009e-14
0.000421954
1.79678e-11
-7.85301e-14
-1.96334e-11
8.18184e-14
0.000426668
1.84701e-11
-8.03449e-14
-1.98624e-11
8.36406e-14
0.000431051
1.84673e-11
-8.21918e-14
-2.01357e-11
8.54711e-14
0.000435097
1.89808e-11
-8.40401e-14
-2.03751e-11
8.7321e-14
0.000438804
1.89878e-11
-8.59356e-14
-2.06603e-11
8.91938e-14
0.000442171
1.95141e-11
-8.78483e-14
-2.09099e-11
9.11033e-14
0.000445199
1.95317e-11
-8.9826e-14
-2.12073e-11
9.30533e-14
0.00044789
2.00701e-11
-9.1839e-14
-2.1468e-11
9.50593e-14
0.000450248
2.00988e-11
-9.39367e-14
-2.17784e-11
9.71249e-14
0.000452278
2.06506e-11
-9.60893e-14
-2.20504e-11
9.92676e-14
0.000453988
2.06918e-11
-9.83458e-14
-2.23745e-11
1.01489e-13
0.000455385
2.12573e-11
-1.00677e-13
-2.26594e-11
1.03808e-13
0.000456478
2.13121e-11
-1.03131e-13
-2.29984e-11
1.06224e-13
0.000457279
2.18927e-11
-1.05679e-13
-2.32969e-11
1.08759e-13
0.000457798
2.19628e-11
-1.08367e-13
-2.36521e-11
1.11407e-13
0.000458047
2.25598e-11
-1.11169e-13
-2.3966e-11
1.14196e-13
0.000458039
2.26469e-11
-1.14128e-13
-2.43392e-11
1.17113e-13
0.000457788
2.32614e-11
-1.17221e-13
-2.46697e-11
1.20191e-13
0.000457305
2.33675e-11
-1.20486e-13
-2.50624e-11
1.23414e-13
0.000456606
2.40017e-11
-1.23907e-13
-2.54119e-11
1.2682e-13
0.000455704
2.41289e-11
-1.27513e-13
-2.58264e-11
1.30381e-13
0.000454612
2.47842e-11
-1.31299e-13
-2.61965e-11
1.34152e-13
0.000453345
2.4935e-11
-1.35282e-13
-2.66347e-11
1.3809e-13
0.000451915
2.56145e-11
-1.39471e-13
-2.70283e-11
1.42263e-13
0.000450337
2.57914e-11
-1.43866e-13
-2.74929e-11
1.46612e-13
0.000448622
2.64963e-11
-1.48499e-13
-2.79119e-11
1.51228e-13
0.000446783
2.67021e-11
-1.53343e-13
-2.84055e-11
1.56025e-13
0.000444832
2.74363e-11
-1.58463e-13
-2.88533e-11
1.61127e-13
0.00044278
2.76742e-11
-1.63796e-13
-2.93788e-11
1.66413e-13
0.000440638
2.84392e-11
-1.69451e-13
-2.9858e-11
1.72049e-13
0.000438415
2.87123e-11
-1.75314e-13
-3.04186e-11
1.77864e-13
0.000436123
2.95132e-11
-1.81554e-13
-3.09329e-11
1.84085e-13
0.000433769
2.98253e-11
-1.8799e-13
-3.15322e-11
1.90472e-13
0.000431361
3.06634e-11
-1.94874e-13
-3.2085e-11
1.97335e-13
0.000428908
3.10183e-11
-2.01927e-13
-3.27266e-11
2.04338e-13
0.000426416
3.18995e-11
-2.09521e-13
-3.3322e-11
2.1191e-13
0.000423892
3.23013e-11
-2.17239e-13
-3.40103e-11
2.19577e-13
0.000421342
3.32281e-11
-2.25617e-13
-3.46525e-11
2.27932e-13
0.00041877
3.36814e-11
-2.34046e-13
-3.53917e-11
2.36309e-13
0.000416182
3.46604e-11
-2.43294e-13
-3.60857e-11
2.45533e-13
0.000413582
3.51703e-11
-2.52482e-13
-3.68809e-11
2.54668e-13
0.000410974
3.62044e-11
-2.62699e-13
-3.76316e-11
2.6486e-13
0.00040836
3.6776e-11
-2.72692e-13
-3.8488e-11
2.74799e-13
0.000405744
3.78729e-11
-2.83996e-13
-3.93014e-11
2.86077e-13
0.000403129
3.85123e-11
-2.94833e-13
-4.02249e-11
2.96859e-13
0.000400516
3.96762e-11
-3.07364e-13
-4.11068e-11
3.09363e-13
0.000397908
4.03896e-11
-3.19077e-13
-4.21036e-11
3.21019e-13
0.000395305
4.16295e-11
-3.33006e-13
-4.30613e-11
3.3492e-13
0.00039271
4.24241e-11
-3.45609e-13
-4.41384e-11
3.47466e-13
0.000390123
4.37448e-11
-3.61148e-13
-4.51789e-11
3.62975e-13
0.000387545
4.46278e-11
-3.74634e-13
-4.63437e-11
3.76403e-13
0.000384978
4.60401e-11
-3.92048e-13
-4.74757e-11
3.93786e-13
0.000382423
4.702e-11
-4.06368e-13
-4.87364e-11
4.08047e-13
0.000379879
4.85305e-11
-4.25992e-13
-4.99688e-11
4.27638e-13
0.000377349
4.96159e-11
-4.41041e-13
-5.1334e-11
4.42628e-13
0.000374834
5.12373e-11
-4.63305e-13
-5.26772e-11
4.64857e-13
0.000372333
5.24382e-11
-4.78897e-13
-5.41567e-11
4.80389e-13
0.000369848
5.41788e-11
-5.04363e-13
-5.56217e-11
5.05819e-13
0.00036738
5.55053e-11
-5.20188e-13
-5.72255e-11
5.21582e-13
0.000364929
5.73802e-11
-5.49602e-13
-5.88251e-11
5.50959e-13
0.000362498
5.88437e-11
-5.65167e-13
-6.05645e-11
5.66463e-13
0.000360087
6.08645e-11
-5.99529e-13
-6.23124e-11
6.00785e-13
0.000357696
6.24767e-11
-6.14084e-13
-6.41991e-11
6.15277e-13
0.000355327
6.46618e-11
-6.54743e-13
-6.61116e-11
6.55895e-13
0.000352982
6.64357e-11
-6.67161e-13
-6.8158e-11
6.68249e-13
0.000350661
6.88003e-11
-7.15965e-13
-7.02529e-11
7.17011e-13
0.000348367
7.07489e-11
-7.24579e-13
-7.24718e-11
7.2556e-13
0.000346101
7.33163e-11
-7.84071e-13
-7.477e-11
7.85008e-13
0.000343865
7.54535e-11
-7.86435e-13
-7.71748e-11
7.87305e-13
0.000341662
7.82451e-11
-8.60147e-13
-7.97001e-11
8.6097e-13
0.000339493
8.05844e-11
-8.52698e-13
-8.23037e-11
8.53455e-13
0.000337362
8.36309e-11
-9.45553e-13
-8.50842e-11
9.46261e-13
0.00033527
8.61857e-11
-9.23128e-13
-8.7899e-11
9.23766e-13
0.000333221
8.95174e-11
-1.04204e-12
-9.09681e-11
1.04263e-12
0.000331217
9.22989e-11
-9.97162e-13
-9.40045e-11
9.97677e-13
0.000329262
9.59585e-11
-1.15188e-12
-9.74024e-11
1.15234e-12
0.000327358
9.89755e-11
-1.07375e-12
-1.00668e-10
1.07414e-12
0.00032551
1.03009e-10
-1.27809e-12
-1.04444e-10
1.27842e-12
0.000323718
1.06265e-10
-1.15113e-12
-1.07941e-10
1.15138e-12
0.000321988
1.10737e-10
-1.42472e-12
-1.12156e-10
1.4249e-12
0.00032032
1.14227e-10
-1.22644e-12
-1.15877e-10
1.22654e-12
0.000318718
1.19211e-10
-1.5973e-12
-1.20611e-10
1.59733e-12
0.000317181
1.22917e-10
-1.29523e-12
-1.24537e-10
1.29517e-12
0.000315711
1.28517e-10
-1.80347e-12
-1.29889e-10
1.80334e-12
0.000314306
1.32401e-10
-1.3507e-12
-1.3398e-10
1.35048e-12
0.000312964
1.38746e-10
-2.05394e-12
-1.40084e-10
2.05363e-12
0.000311683
1.42739e-10
-1.3826e-12
-1.4427e-10
1.3822e-12
0.000310458
1.50008e-10
-2.3638e-12
-1.51305e-10
2.3633e-12
0.000309285
1.53993e-10
-1.37557e-12
-1.55468e-10
1.37498e-12
0.00030816
1.62424e-10
-2.7546e-12
-1.63677e-10
2.75391e-12
0.000307077
1.66216e-10
-1.30678e-12
-1.67633e-10
1.306e-12
0.000306034
1.76146e-10
-3.25721e-12
-1.77352e-10
3.25633e-12
0.000305028
1.79458e-10
-1.14237e-12
-1.80815e-10
1.14141e-12
0.000304058
1.91351e-10
-3.91628e-12
-1.92514e-10
3.91522e-12
0.000303125
1.93747e-10
-8.32215e-13
-1.95047e-10
8.3108e-13
0.000302233
2.08246e-10
-4.79656e-12
-2.09389e-10
4.79532e-12
0.000301385
2.09073e-10
-3.02054e-13
-2.10334e-10
3.00759e-13
0.000300588
2.27126e-10
-5.99249e-12
-2.28266e-10
5.9911e-12
0.000299844
2.25413e-10
5.58163e-13
-2.26633e-10
-5.59581e-13
0.00029916
2.48375e-10
-7.64245e-12
-2.49517e-10
7.64095e-12
0.000298539
2.42586e-10
1.91167e-12
-2.4383e-10
-1.91314e-12
0.000297983
2.72433e-10
-9.9499e-12
-2.73637e-10
9.94843e-12
0.000297494
2.60071e-10
4.00118e-12
-2.61693e-10
-4.00245e-12
0.000297074
2.99729e-10
-1.32152e-11
-3.01296e-10
1.32142e-11
0.000296719
2.77615e-10
7.18753e-12
-2.79803e-10
-7.18832e-12
0.000296429
3.31381e-10
-1.78864e-11
-3.33416e-10
1.78851e-11
0.000296197
3.3765e-10
-2.211e-12
-3.40119e-10
2.20892e-12
0.000296019
4.10272e-10
-2.41287e-11
-4.12447e-10
2.41258e-11
0.000295891
4.52623e-10
-1.4158e-11
-4.54986e-10
1.41544e-11
0.000295808
5.49025e-10
-3.204e-11
-5.51038e-10
3.20357e-11
0.000295767
6.34165e-10
-2.83941e-11
-6.36282e-10
2.83892e-11
0.000295764
7.5948e-10
-4.16919e-11
-7.61283e-10
4.16866e-11
0.000295801
8.94604e-10
-4.50979e-11
-8.96642e-10
4.50926e-11
0.000295881
9.92954e-10
-3.27237e-11
-9.94737e-10
3.27188e-11
0.000296008
1.11862e-09
-4.19854e-11
-1.12077e-09
4.19805e-11
0.000296186
1.18221e-09
-2.11356e-11
-1.18409e-09
2.11308e-11
0.000296418
1.29737e-09
-3.85081e-11
-1.29971e-09
3.85031e-11
0.000296704
1.32256e-09
-8.324e-12
-1.32459e-09
8.31887e-12
0.000297046
1.42729e-09
-3.5035e-11
-1.42979e-09
3.50293e-11
0.000297443
1.41133e-09
5.41058e-12
-1.41345e-09
-5.41713e-12
0.000297892
1.5073e-09
-3.20866e-11
-1.50981e-09
3.20789e-11
0.00029839
1.49139e-09
5.40823e-12
-1.49346e-09
-5.41706e-12
0.000298926
1.58063e-09
-2.98256e-11
-1.58304e-09
2.98163e-11
0.000299484
1.57782e-09
1.04159e-12
-1.57978e-09
-1.05088e-12
0.000300045
1.66216e-09
-2.82024e-11
-1.6645e-09
2.8193e-11
0.000300584
1.67125e-09
-2.93094e-12
-1.67315e-09
2.92147e-12
0.000301073
1.75241e-09
-2.71504e-11
-1.75472e-09
2.71407e-11
0.00030148
1.77247e-09
-6.58703e-12
-1.77432e-09
6.57716e-12
0.000301777
1.852e-09
-2.66105e-11
-1.85428e-09
2.66003e-11
0.000301937
1.88228e-09
-9.99391e-12
-1.88408e-09
9.98346e-12
0.00030194
1.96157e-09
-2.65325e-11
-1.96382e-09
2.65216e-11
0.000301779
2.0015e-09
-1.32112e-11
-2.00326e-09
1.32001e-11
0.000301449
2.0818e-09
-2.68737e-11
-2.08404e-09
2.68621e-11
0.000300947
2.13098e-09
-1.62929e-11
-2.13269e-09
1.6281e-11
0.000300267
2.21345e-09
-2.75973e-11
-2.21565e-09
2.75848e-11
0.000299393
2.27161e-09
-1.92879e-11
-2.27328e-09
1.92751e-11
0.000298308
2.3573e-09
-2.86723e-11
-2.35947e-09
2.8659e-11
0.000296988
2.42433e-09
-2.22407e-11
-2.42593e-09
2.22269e-11
0.000295407
2.51422e-09
-3.00741e-11
-2.51633e-09
3.00597e-11
0.000293542
2.5901e-09
-2.51924e-11
-2.59163e-09
2.51775e-11
0.000291369
2.68512e-09
-3.17845e-11
-2.68718e-09
3.1769e-11
0.00028886
2.76996e-09
-2.81815e-11
-2.77143e-09
2.81654e-11
0.000285997
2.871e-09
-3.37921e-11
-2.873e-09
3.37754e-11
0.00028277
2.96504e-09
-3.12459e-11
-2.96643e-09
3.12286e-11
0.000279185
3.07298e-09
-3.60927e-11
-3.07491e-09
3.60746e-11
0.000275268
3.17655e-09
-3.44234e-11
-3.17786e-09
3.44047e-11
0.000271053
3.29228e-09
-3.86876e-11
-3.29413e-09
3.86682e-11
0.00026658
3.40583e-09
-3.77548e-11
-3.40707e-09
3.77346e-11
0.000261874
3.53024e-09
-4.15825e-11
-3.53203e-09
4.15615e-11
0.000256945
3.65433e-09
-4.12693e-11
-3.6555e-09
4.12475e-11
0.000251781
3.78835e-09
-4.47858e-11
-3.79007e-09
4.47632e-11
0.000246341
3.92364e-09
-4.50026e-11
-3.92474e-09
4.49791e-11
0.000240581
4.06822e-09
-4.83115e-11
-4.0699e-09
4.82871e-11
0.000234473
4.21547e-09
-4.89927e-11
-4.21653e-09
4.89674e-11
0.000228015
4.37166e-09
-5.2181e-11
-4.37331e-09
5.21547e-11
0.000221231
4.53177e-09
-5.32796e-11
-4.5328e-09
5.32523e-11
0.000214148
4.70066e-09
-5.6422e-11
-4.70231e-09
5.63938e-11
0.000206793
4.87465e-09
-5.7905e-11
-4.87567e-09
5.78757e-11
0.000199191
5.05746e-09
-6.10657e-11
-5.05912e-09
6.10353e-11
0.000191378
5.24646e-09
-6.2911e-11
-5.24749e-09
6.28794e-11
0.000183398
5.4445e-09
-6.6144e-11
-5.44619e-09
6.61113e-11
0.00017531
5.64976e-09
-6.83368e-11
-5.65083e-09
6.83027e-11
0.000167164
5.86442e-09
-7.16869e-11
-5.86617e-09
7.16516e-11
0.000158974
6.08733e-09
-7.4217e-11
-6.08845e-09
7.41803e-11
0.000150713
6.32007e-09
-7.77202e-11
-6.3219e-09
7.76823e-11
0.00014231
6.56207e-09
-8.05823e-11
-6.56327e-09
8.05428e-11
0.000133663
6.81445e-09
-8.42714e-11
-6.81638e-09
8.42305e-11
0.00012466
7.07711e-09
-8.74679e-11
-7.07839e-09
8.74254e-11
0.000115206
7.3508e-09
-9.13783e-11
-7.35284e-09
9.13343e-11
0.000105208
7.63582e-09
-9.49234e-11
-7.63721e-09
9.48776e-11
9.45898e-05
7.93267e-09
-9.90972e-11
-7.93481e-09
9.90499e-11
8.33517e-05
8.24197e-09
-1.03016e-10
-8.24345e-09
1.02967e-10
7.16056e-05
8.56402e-09
-1.07502e-10
-8.56627e-09
1.07451e-10
5.95651e-05
8.89973e-09
-1.11823e-10
-8.90132e-09
1.1177e-10
4.74821e-05
9.24926e-09
-1.1666e-10
-9.25161e-09
1.16605e-10
3.55881e-05
9.6137e-09
-1.21398e-10
-9.61537e-09
1.2134e-10
2.40941e-05
9.99304e-09
-1.26601e-10
-9.99548e-09
1.26542e-10
1.31573e-05
1.03885e-08
-1.31742e-10
-1.03903e-08
1.31681e-10
2.77783e-06
1.08e-08
-1.37298e-10
-1.08024e-08
1.37234e-10
-7.25363e-06
1.12285e-08
-1.42779e-10
-1.12303e-08
1.42712e-10
-1.72565e-05
1.16745e-08
-1.48793e-10
-1.1677e-08
1.48724e-10
-2.74743e-05
1.21393e-08
-1.54875e-10
-1.21412e-08
1.54803e-10
-3.78993e-05
1.26235e-08
-1.61522e-10
-1.2626e-08
1.61447e-10
-4.82903e-05
1.31287e-08
-1.68321e-10
-1.31305e-08
1.68243e-10
-5.83159e-05
1.36553e-08
-1.75697e-10
-1.36578e-08
1.75616e-10
-6.77062e-05
1.42055e-08
-1.83301e-10
-1.42072e-08
1.83217e-10
-7.62992e-05
1.47795e-08
-1.91459e-10
-1.47818e-08
1.91373e-10
-8.4004e-05
1.53794e-08
-1.9991e-10
-1.5381e-08
1.9982e-10
-9.08802e-05
1.60056e-08
-2.08862e-10
-1.60078e-08
2.08769e-10
-9.71446e-05
1.66604e-08
-2.18179e-10
-1.66618e-08
2.18082e-10
-0.000103052
1.73438e-08
-2.27932e-10
-1.73458e-08
2.27833e-10
-0.000108829
1.80585e-08
-2.38158e-10
-1.80597e-08
2.38054e-10
-0.000114691
1.88044e-08
-2.48757e-10
-1.88061e-08
2.48651e-10
-0.000120895
1.95846e-08
-2.59987e-10
-1.95855e-08
2.59876e-10
-0.000127757
2.03989e-08
-2.71534e-10
-2.04002e-08
2.71421e-10
-0.000135588
2.1251e-08
-2.8396e-10
-2.12516e-08
2.83842e-10
-0.00014465
2.21406e-08
-2.96666e-10
-2.21417e-08
2.96546e-10
-0.000155127
2.30728e-08
-3.10653e-10
-2.3073e-08
3.10528e-10
-0.000167089
2.40472e-08
-3.24909e-10
-2.40478e-08
3.24782e-10
-0.000180579
2.50706e-08
-3.41065e-10
-2.50704e-08
3.40932e-10
-0.000195686
2.61427e-08
-3.5747e-10
-2.61429e-08
3.57336e-10
-0.000212369
2.7273e-08
-3.76707e-10
-2.72725e-08
3.76566e-10
-0.000230396
2.8461e-08
-3.96098e-10
-2.84608e-08
3.95957e-10
-0.000249542
2.97203e-08
-4.19686e-10
-2.97193e-08
4.19537e-10
-0.000269767
3.10491e-08
-4.43067e-10
-3.10485e-08
4.42917e-10
-0.00029122
3.24674e-08
-4.727e-10
-3.2466e-08
4.7254e-10
-0.000313966
3.39709e-08
-5.01312e-10
-3.39701e-08
5.01152e-10
-0.000337728
3.55895e-08
-5.39488e-10
-3.5588e-08
5.39316e-10
-0.000361925
3.73134e-08
-5.74842e-10
-3.73127e-08
5.7467e-10
-0.000385887
3.91885e-08
-6.25017e-10
-3.91872e-08
6.24829e-10
-0.000409106
4.11926e-08
-6.68268e-10
-4.11923e-08
6.68082e-10
-0.000431072
4.33973e-08
-7.34916e-10
-4.33966e-08
7.34712e-10
-0.000450892
4.57543e-08
-7.8605e-10
-4.57554e-08
7.8585e-10
-0.00046749
4.83797e-08
-8.75203e-10
-4.83806e-08
8.74981e-10
-0.000480272
5.11727e-08
-9.31496e-10
-5.11761e-08
9.31283e-10
-0.000489577
5.43274e-08
-1.05166e-09
-5.43308e-08
1.05143e-09
-0.000496589
5.76434e-08
-1.106e-09
-5.76502e-08
1.10578e-09
-0.000502804
6.14584e-08
-1.27174e-09
-6.1465e-08
1.2715e-09
-0.000509351
6.53882e-08
-1.31073e-09
-6.53988e-08
1.31053e-09
-0.000516413
7.00353e-08
-1.54901e-09
-7.00452e-08
1.54878e-09
-0.000523337
7.46727e-08
-1.54661e-09
-7.46864e-08
1.54643e-09
-0.000529191
8.03925e-08
-1.9064e-09
-8.04047e-08
1.90619e-09
-0.000533112
8.58186e-08
-1.80935e-09
-8.58335e-08
1.8092e-09
-0.000534491
9.29565e-08
-2.37865e-09
-9.29682e-08
2.37845e-09
-0.000533142
9.92003e-08
-2.08206e-09
-9.92146e-08
2.08193e-09
-0.000529348
1.0826e-07
-3.02026e-09
-1.0827e-07
3.02011e-09
-0.000523406
1.15238e-07
-2.32522e-09
-1.15244e-07
2.32527e-09
-0.000514922
1.27004e-07
-3.92125e-09
-1.27001e-07
3.92143e-09
-0.000503202
1.34423e-07
-2.46173e-09
-1.3438e-07
2.46216e-09
-0.000488463
1.50154e-07
-5.23667e-09
-1.50087e-07
5.23741e-09
-0.0004717
1.57144e-07
-2.35337e-09
-1.57169e-07
2.35387e-09
-0.000454403
1.78769e-07
-7.21256e-09
-1.78845e-07
7.21173e-09
-0.000438153
1.83727e-07
-1.72032e-09
-1.84055e-07
1.71694e-09
-0.000423837
2.10817e-07
-9.02633e-09
-2.11197e-07
9.01967e-09
-0.000411276
2.11687e-07
-2.05949e-10
-2.11621e-07
2.00522e-10
-0.000400031
2.3009e-07
-6.08079e-09
-2.29703e-07
6.08018e-09
-0.000390629
2.23628e-07
2.34932e-09
-2.22284e-07
-2.34528e-09
-0.000384042
2.29737e-07
-2.00351e-09
-2.28131e-07
2.01436e-09
-0.000380118
2.10946e-07
6.27242e-09
-2.09256e-07
-6.2645e-09
-0.000377312
1.99255e-07
3.84717e-09
-1.97871e-07
-3.84474e-09
-0.00037439
1.38912e-07
2.00133e-08
-1.38032e-07
-2.00139e-08
-0.000372439
8.11589e-08
1.9189e-08
-8.06599e-08
-1.91917e-08
-0.000373548
2.84807e-08
-4.4256e-09
-2.84828e-08
4.64484e-09
7.7126e-07
-2.11598e-12
2.0797e-12
2.35731e-06
-5.23117e-12
5.21318e-12
4.01096e-06
-7.64874e-12
7.64792e-12
5.73438e-06
-9.02151e-12
9.01912e-12
7.52977e-06
-9.76941e-12
9.7737e-12
9.39942e-06
-1.02346e-11
1.02311e-11
1.13457e-05
-1.05562e-11
1.05586e-11
1.33712e-05
-1.08045e-11
1.07997e-11
1.54786e-05
-1.10025e-11
1.10032e-11
1.76706e-05
-1.11728e-11
1.11669e-11
1.99501e-05
-1.13183e-11
1.13181e-11
2.23203e-05
-1.14513e-11
1.14448e-11
2.47843e-05
-1.15694e-11
1.15684e-11
2.73454e-05
-1.16813e-11
1.16743e-11
3.00071e-05
-1.17832e-11
1.17817e-11
3.27729e-05
-1.18822e-11
1.18748e-11
3.56464e-05
-1.19738e-11
1.19718e-11
3.86315e-05
-1.20646e-11
1.20567e-11
4.17319e-05
-1.21494e-11
1.21469e-11
4.49515e-05
-1.22347e-11
1.22264e-11
4.82943e-05
-1.23151e-11
1.2312e-11
5.17643e-05
-1.23968e-11
1.23879e-11
5.53655e-05
-1.24744e-11
1.24708e-11
5.91018e-05
-1.25539e-11
1.25445e-11
6.29771e-05
-1.26299e-11
1.26257e-11
6.69955e-05
-1.27082e-11
1.26982e-11
7.11606e-05
-1.27835e-11
1.27786e-11
7.54761e-05
-1.28615e-11
1.28508e-11
7.99455e-05
-1.29367e-11
1.29312e-11
8.45722e-05
-1.30151e-11
1.30038e-11
8.93592e-05
-1.30911e-11
1.30849e-11
9.43093e-05
-1.31704e-11
1.31584e-11
9.94252e-05
-1.32476e-11
1.32407e-11
0.000104709
-1.33286e-11
1.33157e-11
0.000110162
-1.34075e-11
1.33998e-11
0.000115786
-1.34905e-11
1.34768e-11
0.000121582
-1.35717e-11
1.35631e-11
0.000127551
-1.36573e-11
1.36426e-11
0.000133691
-1.37413e-11
1.37318e-11
0.000140002
-1.38299e-11
1.38143e-11
0.000146484
-1.39172e-11
1.39068e-11
0.000153133
-1.40094e-11
1.39928e-11
0.000159948
-1.41004e-11
1.40891e-11
0.000166923
-1.41967e-11
1.41792e-11
0.000174057
-1.42921e-11
1.42798e-11
0.000181342
-1.4393e-11
1.43744e-11
0.000188773
-1.44932e-11
1.448e-11
0.000196343
-1.45993e-11
1.45798e-11
0.000204045
-1.47049e-11
1.46909e-11
0.00021187
-1.48168e-11
1.47964e-11
0.000219809
-1.49284e-11
1.49137e-11
0.00022785
-1.50466e-11
1.50255e-11
0.000235983
-1.51648e-11
1.51496e-11
0.000244196
-1.52899e-11
1.52684e-11
0.000252475
-1.54155e-11
1.53999e-11
0.000260806
-1.55481e-11
1.55265e-11
0.000269175
-1.56816e-11
1.56661e-11
0.000277565
-1.58222e-11
1.5801e-11
0.00028596
-1.59645e-11
1.59494e-11
0.000294343
-1.61138e-11
1.60933e-11
0.000302696
-1.62654e-11
1.6251e-11
0.000311002
-1.6424e-11
1.64044e-11
0.00031924
-1.65852e-11
1.65723e-11
0.000327392
-1.67536e-11
1.67358e-11
0.000335438
-1.6925e-11
1.6914e-11
0.000343359
-1.71038e-11
1.7088e-11
0.000351135
-1.72855e-11
1.72773e-11
0.000358747
-1.74751e-11
1.7462e-11
0.000366175
-1.76677e-11
1.76623e-11
0.000373401
-1.78688e-11
1.78578e-11
0.000380407
-1.80707e-11
1.80696e-11
0.000387175
-1.82837e-11
1.8276e-11
0.000393688
-1.84958e-11
1.84991e-11
0.000399932
-1.87212e-11
1.87162e-11
0.000405893
-1.89417e-11
1.89509e-11
0.000411558
-1.91798e-11
1.91785e-11
0.000416914
-1.94101e-11
1.94244e-11
0.000421954
-1.96619e-11
1.96624e-11
0.000426668
-1.98985e-11
1.99201e-11
0.000431051
-2.01642e-11
2.01685e-11
0.000435097
-2.04094e-11
2.04377e-11
0.000438804
-2.06903e-11
2.06965e-11
0.000442172
-2.09411e-11
2.09781e-11
0.000445199
-2.12378e-11
2.12477e-11
0.00044789
-2.14975e-11
2.15418e-11
0.000450248
-2.18118e-11
2.18228e-11
0.000452278
-2.20765e-11
2.21307e-11
0.000453988
-2.24093e-11
2.2424e-11
0.000455385
-2.26834e-11
2.27463e-11
0.000456478
-2.30366e-11
2.30527e-11
0.000457279
-2.33173e-11
2.33914e-11
0.000457798
-2.36922e-11
2.37124e-11
0.000458047
-2.39846e-11
2.40681e-11
0.00045804
-2.43838e-11
2.44051e-11
0.000457788
-2.46849e-11
2.47804e-11
0.000457306
-2.51097e-11
2.51353e-11
0.000456606
-2.54252e-11
2.55315e-11
0.000455704
-2.58784e-11
2.5906e-11
0.000454612
-2.62065e-11
2.63259e-11
0.000453345
-2.66898e-11
2.67224e-11
0.000451916
-2.70368e-11
2.71676e-11
0.000450337
-2.75534e-11
2.75884e-11
0.000448622
-2.79176e-11
2.80622e-11
0.000446783
-2.84696e-11
2.85101e-11
0.000444832
-2.88576e-11
2.90147e-11
0.00044278
-2.94483e-11
2.94924e-11
0.000440638
-2.986e-11
3.00315e-11
0.000438416
-3.0492e-11
3.05424e-11
0.000436123
-3.09341e-11
3.11187e-11
0.000433769
-3.16113e-11
3.1666e-11
0.000431361
-3.20846e-11
3.22838e-11
0.000428908
-3.281e-11
3.28714e-11
0.000426416
-3.33213e-11
3.35342e-11
0.000423892
-3.40993e-11
3.41661e-11
0.000421342
-3.4651e-11
3.48786e-11
0.00041877
-3.54853e-11
3.55595e-11
0.000416182
-3.60846e-11
3.6326e-11
0.000413582
-3.69804e-11
3.70604e-11
0.000410974
-3.76307e-11
3.78867e-11
0.00040836
-3.85924e-11
3.86802e-11
0.000405745
-3.93017e-11
3.95713e-11
0.000403129
-4.03353e-11
4.04296e-11
0.000400516
-4.11084e-11
4.13922e-11
0.000397908
-4.22195e-11
4.23218e-11
0.000395305
-4.30651e-11
4.33622e-11
0.00039271
-4.42604e-11
4.43697e-11
0.000390123
-4.51853e-11
4.5496e-11
0.000387545
-4.64719e-11
4.65891e-11
0.000384978
-4.74856e-11
4.78089e-11
0.000382423
-4.88713e-11
4.89957e-11
0.00037988
-4.99826e-11
5.03186e-11
0.00037735
-5.14758e-11
5.16081e-11
0.000374834
-5.26956e-11
5.30437e-11
0.000372333
-5.43056e-11
5.44453e-11
0.000369848
-5.56454e-11
5.60052e-11
0.00036738
-5.73821e-11
5.75295e-11
0.00036493
-5.88548e-11
5.92258e-11
0.000362498
-6.0729e-11
6.08839e-11
0.000360087
-6.23489e-11
6.27309e-11
0.000357696
-6.4372e-11
6.45348e-11
0.000355327
-6.6155e-11
6.65479e-11
0.000352982
-6.83391e-11
6.85102e-11
0.000350661
-7.03042e-11
7.07077e-11
0.000348367
-7.26619e-11
7.28419e-11
0.000346101
-7.48292e-11
7.52439e-11
0.000343865
-7.73734e-11
7.75634e-11
0.000341662
-7.97678e-11
8.0194e-11
0.000339493
-8.25112e-11
8.27126e-11
0.000337362
-8.516e-11
8.55992e-11
0.00033527
-8.81145e-11
8.83297e-11
0.000333221
-9.10524e-11
9.15056e-11
0.000331217
-9.42283e-11
9.44594e-11
0.000329262
-9.74945e-11
9.79641e-11
0.000327359
-1.00899e-10
1.01149e-10
0.00032551
-1.04544e-10
1.05031e-10
0.000323719
-1.08179e-10
1.08451e-10
0.000321988
-1.12263e-10
1.12771e-10
0.00032032
-1.16121e-10
1.16421e-10
0.000318718
-1.20724e-10
1.21256e-10
0.000317181
-1.24786e-10
1.25115e-10
0.000315711
-1.30007e-10
1.30566e-10
0.000314306
-1.34233e-10
1.34597e-10
0.000312964
-1.40207e-10
1.40794e-10
0.000311683
-1.44525e-10
1.44928e-10
0.000310458
-1.5143e-10
1.52049e-10
0.000309285
-1.55724e-10
1.56169e-10
0.00030816
-1.63804e-10
1.64455e-10
0.000307077
-1.67889e-10
1.68377e-10
0.000306034
-1.77478e-10
1.78163e-10
0.000305028
-1.81068e-10
1.81601e-10
0.000304058
-1.92637e-10
1.93355e-10
0.000303125
-1.95296e-10
1.95874e-10
0.000302233
-2.09506e-10
2.10245e-10
0.000301386
-2.10575e-10
2.11191e-10
0.000300588
-2.28376e-10
2.29128e-10
0.000299844
-2.26865e-10
2.27521e-10
0.00029916
-2.49617e-10
2.50384e-10
0.000298539
-2.4405e-10
2.44713e-10
0.000297983
-2.73727e-10
2.74476e-10
0.000297495
-2.619e-10
2.62345e-10
0.000297074
-3.01374e-10
3.01914e-10
0.00029672
-2.79995e-10
2.80086e-10
0.000296429
-3.33481e-10
3.33725e-10
0.000296197
-3.40296e-10
3.40177e-10
0.00029602
-4.12498e-10
4.12618e-10
0.000295892
-4.55148e-10
4.55028e-10
0.000295809
-5.51077e-10
5.51237e-10
0.000295767
-6.3643e-10
6.36389e-10
0.000295765
-7.61309e-10
7.61541e-10
0.000295801
-8.96775e-10
8.96732e-10
0.000295881
-9.94753e-10
9.94962e-10
0.000296008
-1.12089e-09
1.12078e-09
0.000296186
-1.1841e-09
1.18425e-09
0.000296419
-1.29981e-09
1.2996e-09
0.000296705
-1.32458e-09
1.32467e-09
0.000297047
-1.42988e-09
1.42951e-09
0.000297444
-1.41344e-09
1.4134e-09
0.000297893
-1.50989e-09
1.50937e-09
0.00029839
-1.49345e-09
1.4933e-09
0.000298927
-1.58312e-09
1.58254e-09
0.000299485
-1.57976e-09
1.57959e-09
0.000300046
-1.66458e-09
1.66396e-09
0.000300585
-1.67313e-09
1.67294e-09
0.000301073
-1.75479e-09
1.75416e-09
0.000301481
-1.7743e-09
1.77411e-09
0.000301777
-1.85435e-09
1.8537e-09
0.000301937
-1.88407e-09
1.88388e-09
0.000301941
-1.9639e-09
1.96323e-09
0.00030178
-2.00325e-09
2.00306e-09
0.000301449
-2.08411e-09
2.08343e-09
0.000300948
-2.13269e-09
2.13251e-09
0.000300267
-2.21572e-09
2.21504e-09
0.000299394
-2.27327e-09
2.27311e-09
0.000298309
-2.35954e-09
2.35885e-09
0.000296988
-2.42594e-09
2.42579e-09
0.000295408
-2.51641e-09
2.51573e-09
0.000293543
-2.59165e-09
2.59152e-09
0.000291369
-2.68726e-09
2.68658e-09
0.000288861
-2.77146e-09
2.77135e-09
0.000285998
-2.87309e-09
2.87242e-09
0.00028277
-2.96648e-09
2.96638e-09
0.000279186
-3.07502e-09
3.07434e-09
0.000275268
-3.17793e-09
3.17784e-09
0.000271054
-3.29425e-09
3.29358e-09
0.00026658
-3.40715e-09
3.40707e-09
0.000261874
-3.53216e-09
3.53147e-09
0.000256945
-3.6556e-09
3.65551e-09
0.000251781
-3.79023e-09
3.78951e-09
0.000246341
-3.92487e-09
3.92474e-09
0.000240581
-4.07007e-09
4.0693e-09
0.000234473
-4.21669e-09
4.2165e-09
0.000228015
-4.3735e-09
4.37266e-09
0.000221231
-4.53298e-09
4.53271e-09
0.000214147
-4.70253e-09
4.70157e-09
0.000206792
-4.87587e-09
4.8755e-09
0.00019919
-5.05936e-09
5.05827e-09
0.000191377
-5.24773e-09
5.24721e-09
0.000183397
-5.44646e-09
5.44519e-09
0.000175309
-5.6511e-09
5.6504e-09
0.000167163
-5.86647e-09
5.865e-09
0.000158972
-6.08874e-09
6.08785e-09
0.000150711
-6.32222e-09
6.32052e-09
0.000142309
-6.56359e-09
6.56246e-09
0.000133661
-6.81673e-09
6.81476e-09
0.000124658
-7.07875e-09
7.07735e-09
0.000115204
-7.35322e-09
7.35096e-09
0.000105206
-7.6376e-09
7.63591e-09
9.45875e-05
-7.93522e-09
7.93266e-09
8.33492e-05
-8.24387e-09
8.24189e-09
7.16031e-05
-8.56671e-09
8.56383e-09
5.95624e-05
-8.90178e-09
8.89947e-09
4.74793e-05
-9.25208e-09
9.24888e-09
3.55853e-05
-9.61587e-09
9.61324e-09
2.40913e-05
-9.99599e-09
9.99246e-09
1.31544e-05
-1.03908e-08
1.03879e-08
2.77493e-06
-1.0803e-08