/*--------------------------------*- C++ -*----------------------------------*\
| =========                 |                                                 |
| \\      /  F ield         | OpenFOAM: The Open Source CFD Toolbox           |
|  \\    /   O peration     | Version:  2106                                  |
|   \\  /    A nd           | Website:  www.openfoam.com                      |
|    \\/     M anipulation  |                                                 |
\*---------------------------------------------------------------------------*/
FoamFile
{
    version     2.0;
    format      ascii;
    arch        "LSB;label=32;scalar=64";
    class       volSymmTensorField;
    location    "2000";
    object      turbulenceProperties:R;
}
// * * * * * * * * * * * * * * * * * * * * * * * * * * * * * * * * * * * * * //

dimensions      [0 2 -2 0 0 0 0];

internalField   nonuniform List<symmTensor> 
2560
(
(3.07553e-07 -2.93202e-11 -4.24425e-14 3.07553e-07 6.762e-27 3.07553e-07)
(3.07553e-07 -2.93202e-11 -4.24425e-14 3.07553e-07 -1.6254e-29 3.07553e-07)
(5.26602e-08 -2.88551e-11 -1.25915e-13 5.26602e-08 -5.4107e-27 5.26602e-08)
(5.26602e-08 -2.88551e-11 -1.25915e-13 5.26602e-08 -2.01436e-29 5.26602e-08)
(6.76663e-08 -1.09381e-10 -6.56624e-13 6.76663e-08 2.04024e-27 6.76663e-08)
(6.76663e-08 -1.09381e-10 -6.56624e-13 6.76663e-08 -7.01303e-29 6.76663e-08)
(2.05668e-07 -7.05047e-10 -4.29405e-12 2.05668e-07 1.63247e-25 2.05668e-07)
(2.05668e-07 -7.05047e-10 -4.29405e-12 2.05668e-07 -7.0907e-28 2.05668e-07)
(5.26965e-07 -3.18733e-09 -1.96948e-11 5.26965e-07 1.5075e-25 5.26965e-07)
(5.26965e-07 -3.18733e-09 -1.96948e-11 5.26965e-07 -3.58932e-27 5.26965e-07)
(1.12418e-06 -1.07067e-08 -6.71204e-11 1.12418e-06 5.18063e-25 1.12418e-06)
(1.12418e-06 -1.07067e-08 -6.71204e-11 1.12418e-06 -1.29013e-26 1.12418e-06)
(2.10877e-06 -2.93013e-08 -1.86364e-10 2.10877e-06 1.38596e-24 2.10877e-06)
(2.10877e-06 -2.93013e-08 -1.86364e-10 2.10877e-06 -3.69558e-26 2.10877e-06)
(3.60941e-06 -6.92991e-08 -4.47174e-10 3.60941e-06 3.38926e-24 3.60941e-06)
(3.60941e-06 -6.92991e-08 -4.47174e-10 3.60941e-06 -9.32741e-26 3.60941e-06)
(5.77228e-06 -1.47045e-07 -9.62658e-10 5.77228e-06 7.45511e-24 5.77228e-06)
(5.77228e-06 -1.47045e-07 -9.62658e-10 5.77228e-06 -2.15507e-25 5.77228e-06)
(8.76171e-06 -2.8698e-07 -1.90609e-09 8.76171e-06 1.48936e-23 8.76171e-06)
(8.76171e-06 -2.8698e-07 -1.90609e-09 8.76171e-06 -4.39185e-25 8.76171e-06)
(1.2761e-05 -5.24093e-07 -3.53158e-09 1.2761e-05 2.76635e-23 1.2761e-05)
(1.2761e-05 -5.24093e-07 -3.53158e-09 1.2761e-05 -8.28212e-25 1.2761e-05)
(1.79733e-05 -9.06744e-07 -6.19884e-09 1.79733e-05 4.86181e-23 1.79733e-05)
(1.79733e-05 -9.06744e-07 -6.19884e-09 1.79733e-05 -1.55931e-24 1.79733e-05)
(2.46221e-05 -1.49983e-06 -1.04022e-08 2.46221e-05 8.15575e-23 2.46221e-05)
(2.46221e-05 -1.49983e-06 -1.04022e-08 2.46221e-05 -2.73729e-24 2.46221e-05)
(3.29515e-05 -2.38821e-06 -1.68038e-08 3.29515e-05 1.31298e-22 3.29515e-05)
(3.29515e-05 -2.38821e-06 -1.68038e-08 3.29515e-05 -4.33213e-24 3.29515e-05)
(4.32265e-05 -3.68027e-06 -2.62699e-08 4.32265e-05 2.04147e-22 4.32265e-05)
(4.32265e-05 -3.68027e-06 -2.62699e-08 4.32265e-05 -6.73493e-24 4.32265e-05)
(5.5732e-05 -5.51144e-06 -3.99094e-08 5.5732e-05 3.08318e-22 5.5732e-05)
(5.5732e-05 -5.51144e-06 -3.99094e-08 5.5732e-05 -1.09409e-23 5.5732e-05)
(7.07717e-05 -8.04727e-06 -5.91121e-08 7.07717e-05 4.53334e-22 7.07717e-05)
(7.07717e-05 -8.04727e-06 -5.91121e-08 7.07717e-05 -1.73655e-23 7.07717e-05)
(8.86656e-05 -1.14859e-05 -8.5584e-08 8.86656e-05 6.49875e-22 8.86656e-05)
(8.86656e-05 -1.14859e-05 -8.5584e-08 8.86656e-05 -2.69083e-23 8.86656e-05)
(0.000109746 -1.60589e-05 -1.21375e-07 0.000109746 9.10906e-22 0.000109746)
(0.000109746 -1.60589e-05 -1.21375e-07 0.000109746 -3.9962e-23 0.000109746)
(0.000134354 -2.20313e-05 -1.68892e-07 0.000134354 1.24776e-21 0.000134354)
(0.000134354 -2.20313e-05 -1.68892e-07 0.000134354 -4.92985e-23 0.000134354)
(0.000162832 -2.96976e-05 -2.30902e-07 0.000162832 1.67478e-21 0.000162832)
(0.000162832 -2.96976e-05 -2.30902e-07 0.000162832 -6.00903e-23 0.000162832)
(0.000195514 -3.93772e-05 -3.10498e-07 0.000195514 2.20762e-21 0.000195514)
(0.000195514 -3.93772e-05 -3.10498e-07 0.000195514 -7.99374e-23 0.000195514)
(0.00023272 -5.14042e-05 -4.11049e-07 0.00023272 2.85128e-21 0.00023272)
(0.00023272 -5.14042e-05 -4.11049e-07 0.00023272 -1.01205e-22 0.00023272)
(0.000274741 -6.61165e-05 -5.36112e-07 0.000274741 3.6017e-21 0.000274741)
(0.000274741 -6.61165e-05 -5.36112e-07 0.000274741 -1.26579e-22 0.000274741)
(0.000321829 -8.38395e-05 -6.89315e-07 0.000321829 4.47367e-21 0.000321829)
(0.000321829 -8.38395e-05 -6.89315e-07 0.000321829 -1.74878e-22 0.000321829)
(0.000374184 -0.00010487 -8.7421e-07 0.000374184 5.46795e-21 0.000374184)
(0.000374184 -0.00010487 -8.7421e-07 0.000374184 -2.24694e-22 0.000374184)
(0.000431942 -0.000129458 -1.09411e-06 0.000431942 6.56794e-21 0.000431942)
(0.000431942 -0.000129458 -1.09411e-06 0.000431942 -2.64347e-22 0.000431942)
(0.000495163 -0.000157788 -1.35193e-06 0.000495163 7.72254e-21 0.000495163)
(0.000495163 -0.000157788 -1.35193e-06 0.000495163 -3.39911e-22 0.000495163)
(0.000563824 -0.000189965 -1.65002e-06 0.000563824 8.91365e-21 0.000563824)
(0.000563824 -0.000189965 -1.65002e-06 0.000563824 -4.20327e-22 0.000563824)
(0.000637809 -0.000226004 -1.99e-06 0.000637809 1.01145e-20 0.000637809)
(0.000637809 -0.000226004 -1.99e-06 0.000637809 -4.7135e-22 0.000637809)
(0.000716914 -0.000265824 -2.37273e-06 0.000716914 1.12392e-20 0.000716914)
(0.000716914 -0.000265824 -2.37273e-06 0.000716914 -5.70146e-22 0.000716914)
(0.000800841 -0.000309248 -2.79819e-06 0.000800841 1.23603e-20 0.000800841)
(0.000800841 -0.000309248 -2.79819e-06 0.000800841 -7.33087e-22 0.000800841)
(0.000889207 -0.000356008 -3.26555e-06 0.000889207 1.34387e-20 0.000889207)
(0.000889207 -0.000356008 -3.26555e-06 0.000889207 -8.59097e-22 0.000889207)
(0.000981557 -0.00040576 -3.77316e-06 0.000981557 1.43356e-20 0.000981557)
(0.000981557 -0.00040576 -3.77316e-06 0.000981557 -9.98456e-22 0.000981557)
(0.00107737 -0.000458099 -4.31868e-06 0.00107737 1.51297e-20 0.00107737)
(0.00107737 -0.000458099 -4.31868e-06 0.00107737 -1.19356e-21 0.00107737)
(0.00117608 -0.000512575 -4.89924e-06 0.00117608 1.56907e-20 0.00117608)
(0.00117608 -0.000512575 -4.89924e-06 0.00117608 -1.3137e-21 0.00117608)
(0.00127709 -0.000568715 -5.51149e-06 0.00127709 1.62571e-20 0.00127709)
(0.00127709 -0.000568715 -5.51149e-06 0.00127709 -1.54544e-21 0.00127709)
(0.00137979 -0.00062604 -6.15186e-06 0.00137979 1.69051e-20 0.00137979)
(0.00137979 -0.00062604 -6.15186e-06 0.00137979 -1.82448e-21 0.00137979)
(0.00148356 -0.000684078 -6.8166e-06 0.00148356 1.7197e-20 0.00148356)
(0.00148356 -0.000684078 -6.8166e-06 0.00148356 -2.02787e-21 0.00148356)
(0.00158779 -0.000742382 -7.50198e-06 0.00158779 1.75435e-20 0.00158779)
(0.00158779 -0.000742382 -7.50198e-06 0.00158779 -2.2707e-21 0.00158779)
(0.00169193 -0.000800538 -8.20433e-06 0.00169193 1.80832e-20 0.00169193)
(0.00169193 -0.000800538 -8.20433e-06 0.00169193 -2.42463e-21 0.00169193)
(0.00179541 -0.000858169 -8.92016e-06 0.00179541 1.81586e-20 0.00179541)
(0.00179541 -0.000858169 -8.92016e-06 0.00179541 -2.6571e-21 0.00179541)
(0.00189773 -0.000914942 -9.6462e-06 0.00189773 1.86697e-20 0.00189773)
(0.00189773 -0.000914942 -9.6462e-06 0.00189773 -2.93485e-21 0.00189773)
(0.00199845 -0.000970569 -1.03794e-05 0.00199845 1.95651e-20 0.00199845)
(0.00199845 -0.000970569 -1.03794e-05 0.00199845 -2.98088e-21 0.00199845)
(0.00209714 -0.0010248 -1.11172e-05 0.00209714 2.04291e-20 0.00209714)
(0.00209714 -0.0010248 -1.11172e-05 0.00209714 -2.45148e-21 0.00209714)
(0.00219345 -0.00107744 -1.18569e-05 0.00219345 2.10749e-20 0.00219345)
(0.00219345 -0.00107744 -1.18569e-05 0.00219345 -2.2669e-21 0.00219345)
(0.00228705 -0.00112831 -1.25963e-05 0.00228705 2.22037e-20 0.00228705)
(0.00228705 -0.00112831 -1.25963e-05 0.00228705 -2.93952e-21 0.00228705)
(0.00237767 -0.00117728 -1.33337e-05 0.00237767 2.32698e-20 0.00237767)
(0.00237767 -0.00117728 -1.33337e-05 0.00237767 -3.06124e-21 0.00237767)
(0.00246509 -0.00122426 -1.40672e-05 0.00246509 2.393e-20 0.00246509)
(0.00246509 -0.00122426 -1.40672e-05 0.00246509 -2.93125e-21 0.00246509)
(0.00254912 -0.00126916 -1.47953e-05 0.00254912 2.53089e-20 0.00254912)
(0.00254912 -0.00126916 -1.47953e-05 0.00254912 -3.21204e-21 0.00254912)
(0.0026296 -0.00131192 -1.55167e-05 0.0026296 2.72126e-20 0.0026296)
(0.0026296 -0.00131192 -1.55167e-05 0.0026296 -3.56235e-21 0.0026296)
(0.00270641 -0.00135252 -1.62303e-05 0.00270641 2.95805e-20 0.00270641)
(0.00270641 -0.00135252 -1.62303e-05 0.00270641 -3.63713e-21 0.00270641)
(0.00277947 -0.00139094 -1.69351e-05 0.00277947 3.15994e-20 0.00277947)
(0.00277947 -0.00139094 -1.69351e-05 0.00277947 -4.04569e-21 0.00277947)
(0.0028487 -0.00142718 -1.76301e-05 0.0028487 3.41608e-20 0.0028487)
(0.0028487 -0.00142718 -1.76301e-05 0.0028487 -4.82334e-21 0.0028487)
(0.00291408 -0.00146123 -1.83146e-05 0.00291408 3.63256e-20 0.00291408)
(0.00291408 -0.00146123 -1.83146e-05 0.00291408 -4.35238e-21 0.00291408)
(0.00297557 -0.00149311 -1.89878e-05 0.00297557 3.88572e-20 0.00297557)
(0.00297557 -0.00149311 -1.89878e-05 0.00297557 -5.61287e-21 0.00297557)
(0.00303317 -0.00152285 -1.96493e-05 0.00303317 4.26292e-20 0.00303317)
(0.00303317 -0.00152285 -1.96493e-05 0.00303317 -6.11915e-21 0.00303317)
(0.00308689 -0.00155047 -2.02984e-05 0.00308689 4.56534e-20 0.00308689)
(0.00308689 -0.00155047 -2.02984e-05 0.00308689 -5.32383e-21 0.00308689)
(0.00313677 -0.00157601 -2.09346e-05 0.00313677 4.80638e-20 0.00313677)
(0.00313677 -0.00157601 -2.09346e-05 0.00313677 -6.30951e-21 0.00313677)
(0.00318283 -0.00159951 -2.15574e-05 0.00318283 5.13796e-20 0.00318283)
(0.00318283 -0.00159951 -2.15574e-05 0.00318283 -5.70933e-21 0.00318283)
(0.00322512 -0.00162099 -2.21665e-05 0.00322512 5.54632e-20 0.00322512)
(0.00322512 -0.00162099 -2.21665e-05 0.00322512 -6.59187e-21 0.00322512)
(0.0032637 -0.00164051 -2.27615e-05 0.0032637 5.81122e-20 0.0032637)
(0.0032637 -0.00164051 -2.27615e-05 0.0032637 -5.21742e-21 0.0032637)
(0.00329862 -0.0016581 -2.3342e-05 0.00329862 6.16888e-20 0.00329862)
(0.00329862 -0.0016581 -2.3342e-05 0.00329862 -2.90245e-21 0.00329862)
(0.00332996 -0.00167382 -2.39077e-05 0.00332996 6.48709e-20 0.00332996)
(0.00332996 -0.00167382 -2.39077e-05 0.00332996 -6.53731e-21 0.00332996)
(0.00335777 -0.0016877 -2.44583e-05 0.00335777 6.94948e-20 0.00335777)
(0.00335777 -0.0016877 -2.44583e-05 0.00335777 -6.55269e-21 0.00335777)
(0.00338214 -0.00169979 -2.49935e-05 0.00338214 7.57933e-20 0.00338214)
(0.00338214 -0.00169979 -2.49935e-05 0.00338214 -1.37519e-22 0.00338214)
(0.00340315 -0.00171014 -2.55129e-05 0.00340315 8.10735e-20 0.00340315)
(0.00340315 -0.00171014 -2.55129e-05 0.00340315 1.95243e-21 0.00340315)
(0.00342087 -0.0017188 -2.60165e-05 0.00342087 8.63458e-20 0.00342087)
(0.00342087 -0.0017188 -2.60165e-05 0.00342087 1.72103e-21 0.00342087)
(0.00343538 -0.0017258 -2.65039e-05 0.00343538 8.91864e-20 0.00343538)
(0.00343538 -0.0017258 -2.65039e-05 0.00343538 2.83399e-21 0.00343538)
(0.00344678 -0.00173121 -2.69749e-05 0.00344678 9.3979e-20 0.00344678)
(0.00344678 -0.00173121 -2.69749e-05 0.00344678 3.52222e-21 0.00344678)
(0.00345515 -0.00173506 -2.74294e-05 0.00345515 9.99484e-20 0.00345515)
(0.00345515 -0.00173506 -2.74294e-05 0.00345515 5.89476e-21 0.00345515)
(0.00346057 -0.00173741 -2.7867e-05 0.00346057 1.06403e-19 0.00346057)
(0.00346057 -0.00173741 -2.7867e-05 0.00346057 6.05688e-21 0.00346057)
(0.00346313 -0.00173829 -2.82877e-05 0.00346313 1.12642e-19 0.00346313)
(0.00346313 -0.00173829 -2.82877e-05 0.00346313 3.78771e-21 0.00346313)
(0.00346292 -0.00173777 -2.86913e-05 0.00346292 1.18923e-19 0.00346292)
(0.00346292 -0.00173777 -2.86913e-05 0.00346292 3.91779e-21 0.00346292)
(0.00346002 -0.00173587 -2.90776e-05 0.00346002 1.24506e-19 0.00346002)
(0.00346002 -0.00173587 -2.90776e-05 0.00346002 2.34201e-22 0.00346002)
(0.00345454 -0.00173266 -2.94466e-05 0.00345454 1.31234e-19 0.00345454)
(0.00345454 -0.00173266 -2.94466e-05 0.00345454 -3.00274e-21 0.00345454)
(0.00344654 -0.00172817 -2.9798e-05 0.00344654 1.38478e-19 0.00344654)
(0.00344654 -0.00172817 -2.9798e-05 0.00344654 -2.5017e-21 0.00344654)
(0.00343613 -0.00172245 -3.01318e-05 0.00343613 1.39491e-19 0.00343613)
(0.00343613 -0.00172245 -3.01318e-05 0.00343613 -3.41772e-21 0.00343613)
(0.00342339 -0.00171555 -3.04479e-05 0.00342339 1.43564e-19 0.00342339)
(0.00342339 -0.00171555 -3.04479e-05 0.00342339 -3.34703e-21 0.00342339)
(0.00340841 -0.00170751 -3.07462e-05 0.00340841 1.49952e-19 0.00340841)
(0.00340841 -0.00170751 -3.07462e-05 0.00340841 2.06697e-21 0.00340841)
(0.00339127 -0.00169838 -3.10267e-05 0.00339127 1.56965e-19 0.00339127)
(0.00339127 -0.00169838 -3.10267e-05 0.00339127 1.53093e-20 0.00339127)
(0.00337206 -0.00168821 -3.12893e-05 0.00337206 1.65161e-19 0.00337206)
(0.00337206 -0.00168821 -3.12893e-05 0.00337206 1.95309e-20 0.00337206)
(0.00335086 -0.00167703 -3.15341e-05 0.00335086 1.67913e-19 0.00335086)
(0.00335086 -0.00167703 -3.15341e-05 0.00335086 2.20656e-20 0.00335086)
(0.00332777 -0.00166489 -3.17609e-05 0.00332777 1.77968e-19 0.00332777)
(0.00332777 -0.00166489 -3.17609e-05 0.00332777 2.24206e-20 0.00332777)
(0.00330286 -0.00165184 -3.19699e-05 0.00330286 1.88542e-19 0.00330286)
(0.00330286 -0.00165184 -3.19699e-05 0.00330286 2.41029e-20 0.00330286)
(0.00327622 -0.00163791 -3.21611e-05 0.00327622 1.9599e-19 0.00327622)
(0.00327622 -0.00163791 -3.21611e-05 0.00327622 2.53054e-20 0.00327622)
(0.00324793 -0.00162316 -3.23344e-05 0.00324793 2.06474e-19 0.00324793)
(0.00324793 -0.00162316 -3.23344e-05 0.00324793 2.7109e-20 0.00324793)
(0.00321807 -0.00160762 -3.249e-05 0.00321807 2.16326e-19 0.00321807)
(0.00321807 -0.00160762 -3.249e-05 0.00321807 2.81797e-20 0.00321807)
(0.00318672 -0.00159133 -3.26279e-05 0.00318672 2.20457e-19 0.00318672)
(0.00318672 -0.00159133 -3.26279e-05 0.00318672 3.15011e-20 0.00318672)
(0.00315396 -0.00157434 -3.27482e-05 0.00315396 2.25629e-19 0.00315396)
(0.00315396 -0.00157434 -3.27482e-05 0.00315396 4.0732e-20 0.00315396)
(0.00311987 -0.00155669 -3.28511e-05 0.00311987 2.45303e-19 0.00311987)
(0.00311987 -0.00155669 -3.28511e-05 0.00311987 4.02376e-20 0.00311987)
(0.00308453 -0.00153841 -3.29366e-05 0.00308453 2.61892e-19 0.00308453)
(0.00308453 -0.00153841 -3.29366e-05 0.00308453 3.88894e-20 0.00308453)
(0.00304801 -0.00151954 -3.30049e-05 0.00304801 2.7189e-19 0.00304801)
(0.00304801 -0.00151954 -3.30049e-05 0.00304801 3.82184e-20 0.00304801)
(0.00301038 -0.00150014 -3.30562e-05 0.00301038 2.9088e-19 0.00301038)
(0.00301038 -0.00150014 -3.30562e-05 0.00301038 4.00362e-20 0.00301038)
(0.00297173 -0.00148022 -3.30906e-05 0.00297173 2.81882e-19 0.00297173)
(0.00297173 -0.00148022 -3.30906e-05 0.00297173 5.19499e-20 0.00297173)
(0.00293211 -0.00145983 -3.31082e-05 0.00293211 2.84405e-19 0.00293211)
(0.00293211 -0.00145983 -3.31082e-05 0.00293211 5.03493e-20 0.00293211)
(0.0028916 -0.00143901 -3.31094e-05 0.0028916 3.09136e-19 0.0028916)
(0.0028916 -0.00143901 -3.31094e-05 0.0028916 3.99038e-20 0.0028916)
(0.00285028 -0.0014178 -3.30943e-05 0.00285028 3.14709e-19 0.00285028)
(0.00285028 -0.0014178 -3.30943e-05 0.00285028 5.55313e-20 0.00285028)
(0.0028082 -0.00139621 -3.30632e-05 0.0028082 3.27219e-19 0.0028082)
(0.0028082 -0.00139621 -3.30632e-05 0.0028082 6.50498e-20 0.0028082)
(0.00276543 -0.0013743 -3.30162e-05 0.00276543 3.3919e-19 0.00276543)
(0.00276543 -0.0013743 -3.30162e-05 0.00276543 5.97093e-20 0.00276543)
(0.00272204 -0.0013521 -3.29536e-05 0.00272204 3.50465e-19 0.00272204)
(0.00272204 -0.0013521 -3.29536e-05 0.00272204 6.32031e-20 0.00272204)
(0.00267809 -0.00132963 -3.28758e-05 0.00267809 3.75555e-19 0.00267809)
(0.00267809 -0.00132963 -3.28758e-05 0.00267809 6.82976e-20 0.00267809)
(0.00263365 -0.00130693 -3.27829e-05 0.00263365 3.97475e-19 0.00263365)
(0.00263365 -0.00130693 -3.27829e-05 0.00263365 6.86764e-20 0.00263365)
(0.00258876 -0.00128403 -3.26753e-05 0.00258876 4.06627e-19 0.00258876)
(0.00258876 -0.00128403 -3.26753e-05 0.00258876 6.75051e-20 0.00258876)
(0.00254349 -0.00126096 -3.25532e-05 0.00254349 4.17309e-19 0.00254349)
(0.00254349 -0.00126096 -3.25532e-05 0.00254349 8.10739e-20 0.00254349)
(0.0024979 -0.00123774 -3.24169e-05 0.0024979 4.31864e-19 0.0024979)
(0.0024979 -0.00123774 -3.24169e-05 0.0024979 8.76929e-20 0.0024979)
(0.00245204 -0.00121442 -3.22668e-05 0.00245204 4.41787e-19 0.00245204)
(0.00245204 -0.00121442 -3.22668e-05 0.00245204 9.28502e-20 0.00245204)
(0.00240597 -0.00119101 -3.21033e-05 0.00240597 4.48243e-19 0.00240597)
(0.00240597 -0.00119101 -3.21033e-05 0.00240597 1.14681e-19 0.00240597)
(0.00235973 -0.00116753 -3.19265e-05 0.00235973 4.59698e-19 0.00235973)
(0.00235973 -0.00116753 -3.19265e-05 0.00235973 1.08425e-19 0.00235973)
(0.00231337 -0.00114403 -3.17369e-05 0.00231337 5.07197e-19 0.00231337)
(0.00231337 -0.00114403 -3.17369e-05 0.00231337 9.65414e-20 0.00231337)
(0.00226695 -0.00112052 -3.15348e-05 0.00226695 4.9094e-19 0.00226695)
(0.00226695 -0.00112052 -3.15348e-05 0.00226695 1.07066e-19 0.00226695)
(0.00222051 -0.00109702 -3.13206e-05 0.00222051 5.23748e-19 0.00222051)
(0.00222051 -0.00109702 -3.13206e-05 0.00222051 1.32043e-19 0.00222051)
(0.0021741 -0.00107355 -3.10946e-05 0.0021741 5.38806e-19 0.0021741)
(0.0021741 -0.00107355 -3.10946e-05 0.0021741 1.51034e-19 0.0021741)
(0.00212775 -0.00105015 -3.08572e-05 0.00212775 5.51665e-19 0.00212775)
(0.00212775 -0.00105015 -3.08572e-05 0.00212775 1.59721e-19 0.00212775)
(0.00208151 -0.00102683 -3.06087e-05 0.00208151 5.87277e-19 0.00208151)
(0.00208151 -0.00102683 -3.06087e-05 0.00208151 1.87886e-19 0.00208151)
(0.00203543 -0.00100361 -3.03496e-05 0.00203543 6.12424e-19 0.00203543)
(0.00203543 -0.00100361 -3.03496e-05 0.00203543 2.14402e-19 0.00203543)
(0.00198953 -0.000980502 -3.00802e-05 0.00198953 6.27086e-19 0.00198953)
(0.00198953 -0.000980502 -3.00802e-05 0.00198953 2.34485e-19 0.00198953)
(0.00194385 -0.000957537 -2.98009e-05 0.00194385 6.5924e-19 0.00194385)
(0.00194385 -0.000957537 -2.98009e-05 0.00194385 2.59726e-19 0.00194385)
(0.00189844 -0.000934726 -2.9512e-05 0.00189844 6.92151e-19 0.00189844)
(0.00189844 -0.000934726 -2.9512e-05 0.00189844 2.6847e-19 0.00189844)
(0.00185332 -0.000912088 -2.9214e-05 0.00185332 6.91699e-19 0.00185332)
(0.00185332 -0.000912088 -2.9214e-05 0.00185332 2.9051e-19 0.00185332)
(0.00180852 -0.000889636 -2.89073e-05 0.00180852 6.95937e-19 0.00180852)
(0.00180852 -0.000889636 -2.89073e-05 0.00180852 3.04161e-19 0.00180852)
(0.00176407 -0.000867388 -2.85922e-05 0.00176407 7.29971e-19 0.00176407)
(0.00176407 -0.000867388 -2.85922e-05 0.00176407 2.8759e-19 0.00176407)
(0.00172001 -0.000845355 -2.82691e-05 0.00172001 7.60829e-19 0.00172001)
(0.00172001 -0.000845355 -2.82691e-05 0.00172001 2.76673e-19 0.00172001)
(0.00167636 -0.000823552 -2.79384e-05 0.00167636 7.85863e-19 0.00167636)
(0.00167636 -0.000823552 -2.79384e-05 0.00167636 2.8603e-19 0.00167636)
(0.00163315 -0.00080199 -2.76005e-05 0.00163315 8.05901e-19 0.00163315)
(0.00163315 -0.00080199 -2.76005e-05 0.00163315 2.84355e-19 0.00163315)
(0.0015904 -0.000780682 -2.72558e-05 0.0015904 8.40475e-19 0.0015904)
(0.0015904 -0.000780682 -2.72558e-05 0.0015904 2.89765e-19 0.0015904)
(0.00154812 -0.000759639 -2.69047e-05 0.00154812 8.66884e-19 0.00154812)
(0.00154812 -0.000759639 -2.69047e-05 0.00154812 3.20707e-19 0.00154812)
(0.00150635 -0.000738869 -2.65475e-05 0.00150635 8.97536e-19 0.00150635)
(0.00150635 -0.000738869 -2.65475e-05 0.00150635 3.37297e-19 0.00150635)
(0.00146511 -0.000718383 -2.61847e-05 0.00146511 9.37571e-19 0.00146511)
(0.00146511 -0.000718383 -2.61847e-05 0.00146511 3.42725e-19 0.00146511)
(0.0014244 -0.00069819 -2.58165e-05 0.0014244 9.62411e-19 0.0014244)
(0.0014244 -0.00069819 -2.58165e-05 0.0014244 3.45214e-19 0.0014244)
(0.00138426 -0.000678296 -2.54435e-05 0.00138426 9.66256e-19 0.00138426)
(0.00138426 -0.000678296 -2.54435e-05 0.00138426 3.49419e-19 0.00138426)
(0.00134469 -0.00065871 -2.50659e-05 0.00134469 9.77588e-19 0.00134469)
(0.00134469 -0.00065871 -2.50659e-05 0.00134469 3.90277e-19 0.00134469)
(0.0013057 -0.000639437 -2.46842e-05 0.0013057 9.96022e-19 0.0013057)
(0.0013057 -0.000639437 -2.46842e-05 0.0013057 4.55406e-19 0.0013057)
(0.00126732 -0.000620484 -2.42986e-05 0.00126732 1.02513e-18 0.00126732)
(0.00126732 -0.000620484 -2.42986e-05 0.00126732 4.45862e-19 0.00126732)
(0.00122955 -0.000601855 -2.39096e-05 0.00122955 1.06097e-18 0.00122955)
(0.00122955 -0.000601855 -2.39096e-05 0.00122955 4.14878e-19 0.00122955)
(0.00119241 -0.000583557 -2.35175e-05 0.00119241 1.09308e-18 0.00119241)
(0.00119241 -0.000583557 -2.35175e-05 0.00119241 4.41723e-19 0.00119241)
(0.0011559 -0.000565591 -2.31227e-05 0.0011559 1.11785e-18 0.0011559)
(0.0011559 -0.000565591 -2.31227e-05 0.0011559 4.75604e-19 0.0011559)
(0.00112003 -0.000547962 -2.27254e-05 0.00112003 1.12645e-18 0.00112003)
(0.00112003 -0.000547962 -2.27254e-05 0.00112003 4.88112e-19 0.00112003)
(0.00108481 -0.000530674 -2.23261e-05 0.00108481 1.18215e-18 0.00108481)
(0.00108481 -0.000530674 -2.23261e-05 0.00108481 5.25221e-19 0.00108481)
(0.00105024 -0.000513727 -2.19251e-05 0.00105024 1.25265e-18 0.00105024)
(0.00105024 -0.000513727 -2.19251e-05 0.00105024 5.87511e-19 0.00105024)
(0.00101634 -0.000497124 -2.15226e-05 0.00101634 1.25451e-18 0.00101634)
(0.00101634 -0.000497124 -2.15226e-05 0.00101634 6.22736e-19 0.00101634)
(0.000983106 -0.000480867 -2.11191e-05 0.000983106 1.27576e-18 0.000983106)
(0.000983106 -0.000480867 -2.11191e-05 0.000983106 6.33545e-19 0.000983106)
(0.000950538 -0.000464955 -2.07148e-05 0.000950538 1.32212e-18 0.000950538)
(0.000950538 -0.000464955 -2.07148e-05 0.000950538 6.61819e-19 0.000950538)
(0.000918642 -0.000449391 -2.031e-05 0.000918642 1.36392e-18 0.000918642)
(0.000918642 -0.000449391 -2.031e-05 0.000918642 6.92824e-19 0.000918642)
(0.00088742 -0.000434173 -1.99051e-05 0.00088742 1.40203e-18 0.00088742)
(0.00088742 -0.000434173 -1.99051e-05 0.00088742 7.05075e-19 0.00088742)
(0.000856872 -0.000419301 -1.95002e-05 0.000856872 1.43136e-18 0.000856872)
(0.000856872 -0.000419301 -1.95002e-05 0.000856872 7.33391e-19 0.000856872)
(0.000826998 -0.000404775 -1.90958e-05 0.000826998 1.5014e-18 0.000826998)
(0.000826998 -0.000404775 -1.90958e-05 0.000826998 7.5506e-19 0.000826998)
(0.000797798 -0.000390593 -1.8692e-05 0.000797798 1.54494e-18 0.000797798)
(0.000797798 -0.000390593 -1.8692e-05 0.000797798 7.62978e-19 0.000797798)
(0.000769271 -0.000376754 -1.82892e-05 0.000769271 1.57057e-18 0.000769271)
(0.000769271 -0.000376754 -1.82892e-05 0.000769271 8.01704e-19 0.000769271)
(0.000741415 -0.000363255 -1.78876e-05 0.000741415 1.58987e-18 0.000741415)
(0.000741415 -0.000363255 -1.78876e-05 0.000741415 8.55115e-19 0.000741415)
(0.000714228 -0.000350095 -1.74875e-05 0.000714228 1.61012e-18 0.000714228)
(0.000714228 -0.000350095 -1.74875e-05 0.000714228 8.75488e-19 0.000714228)
(0.000687706 -0.000337272 -1.7089e-05 0.000687706 1.66275e-18 0.000687706)
(0.000687706 -0.000337272 -1.7089e-05 0.000687706 8.58905e-19 0.000687706)
(0.000661845 -0.000324782 -1.66925e-05 0.000661845 1.71415e-18 0.000661845)
(0.000661845 -0.000324782 -1.66925e-05 0.000661845 9.07647e-19 0.000661845)
(0.000636643 -0.000312622 -1.62982e-05 0.000636643 1.7825e-18 0.000636643)
(0.000636643 -0.000312622 -1.62982e-05 0.000636643 9.84264e-19 0.000636643)
(0.000612093 -0.00030079 -1.59063e-05 0.000612093 1.80352e-18 0.000612093)
(0.000612093 -0.00030079 -1.59063e-05 0.000612093 1.02316e-18 0.000612093)
(0.000588193 -0.000289281 -1.5517e-05 0.000588193 1.78914e-18 0.000588193)
(0.000588193 -0.000289281 -1.5517e-05 0.000588193 1.06208e-18 0.000588193)
(0.000564935 -0.000278093 -1.51306e-05 0.000564935 1.79383e-18 0.000564935)
(0.000564935 -0.000278093 -1.51306e-05 0.000564935 1.0705e-18 0.000564935)
(0.000542314 -0.00026722 -1.47471e-05 0.000542314 1.8013e-18 0.000542314)
(0.000542314 -0.00026722 -1.47471e-05 0.000542314 1.11366e-18 0.000542314)
(0.000520326 -0.00025666 -1.43669e-05 0.000520326 1.88249e-18 0.000520326)
(0.000520326 -0.00025666 -1.43669e-05 0.000520326 1.21614e-18 0.000520326)
(0.000498962 -0.000246408 -1.39901e-05 0.000498962 1.97e-18 0.000498962)
(0.000498962 -0.000246408 -1.39901e-05 0.000498962 1.28451e-18 0.000498962)
(0.000478218 -0.000236459 -1.36169e-05 0.000478218 1.99693e-18 0.000478218)
(0.000478218 -0.000236459 -1.36169e-05 0.000478218 1.30095e-18 0.000478218)
(0.000458086 -0.00022681 -1.32474e-05 0.000458086 1.96979e-18 0.000458086)
(0.000458086 -0.00022681 -1.32474e-05 0.000458086 1.3806e-18 0.000458086)
(0.00043856 -0.000217455 -1.28819e-05 0.00043856 1.92359e-18 0.00043856)
(0.00043856 -0.000217455 -1.28819e-05 0.00043856 1.46774e-18 0.00043856)
(0.000419634 -0.00020839 -1.25205e-05 0.000419634 1.92209e-18 0.000419634)
(0.000419634 -0.00020839 -1.25205e-05 0.000419634 1.49599e-18 0.000419634)
(0.000401299 -0.000199611 -1.21633e-05 0.000401299 1.96631e-18 0.000401299)
(0.000401299 -0.000199611 -1.21633e-05 0.000401299 1.51901e-18 0.000401299)
(0.000383551 -0.000191111 -1.18105e-05 0.000383551 2.03023e-18 0.000383551)
(0.000383551 -0.000191111 -1.18105e-05 0.000383551 1.32299e-18 0.000383551)
(0.00036638 -0.000182887 -1.14623e-05 0.00036638 2.06898e-18 0.00036638)
(0.00036638 -0.000182887 -1.14623e-05 0.00036638 2.94922e-19 0.00036638)
(0.000349782 -0.000174933 -1.11187e-05 0.000349782 2.09317e-18 0.000349782)
(0.000349782 -0.000174933 -1.11187e-05 0.000349782 1.54379e-18 0.000349782)
(0.000333749 -0.000167245 -1.078e-05 0.000333749 2.10919e-18 0.000333749)
(0.000333749 -0.000167245 -1.078e-05 0.000333749 2.53561e-18 0.000333749)
(0.000318275 -0.000159817 -1.04462e-05 0.000318275 2.09662e-18 0.000318275)
(0.000318275 -0.000159817 -1.04462e-05 0.000318275 2.87268e-18 0.000318275)
(0.000303353 -0.000152645 -1.01174e-05 0.000303353 2.09415e-18 0.000303353)
(0.000303353 -0.000152645 -1.01174e-05 0.000303353 2.92117e-18 0.000303353)
(0.000288977 -0.000145723 -9.79388e-06 0.000288977 2.13541e-18 0.000288977)
(0.000288977 -0.000145723 -9.79388e-06 0.000288977 2.97058e-18 0.000288977)
(0.000275141 -0.000139047 -9.47564e-06 0.000275141 2.15686e-18 0.000275141)
(0.000275141 -0.000139046 -9.47564e-06 0.000275141 2.98952e-18 0.000275141)
(0.00026184 -0.00013261 -9.16282e-06 0.00026184 2.15243e-18 0.00026184)
(0.00026184 -0.00013261 -9.16282e-06 0.00026184 3.02974e-18 0.00026184)
(0.000249067 -0.00012641 -8.85554e-06 0.000249067 2.14316e-18 0.000249067)
(0.000249067 -0.00012641 -8.85554e-06 0.000249067 3.08869e-18 0.000249067)
(0.000236817 -0.00012044 -8.55391e-06 0.000236817 2.11373e-18 0.000236817)
(0.000236817 -0.00012044 -8.5539e-06 0.000236817 3.14805e-18 0.000236817)
(0.000225086 -0.000114695 -8.25803e-06 0.000225086 2.1182e-18 0.000225086)
(0.000225086 -0.000114695 -8.25802e-06 0.000225086 3.22184e-18 0.000225086)
(0.000213868 -0.000109172 -7.96801e-06 0.000213868 2.10432e-18 0.000213868)
(0.000213868 -0.000109171 -7.96801e-06 0.000213868 3.28176e-18 0.000213868)
(0.000203159 -0.000103864 -7.68396e-06 0.000203159 2.08353e-18 0.000203159)
(0.000203159 -0.000103864 -7.68396e-06 0.000203159 3.31626e-18 0.000203159)
(0.000192954 -9.87667e-05 -7.40598e-06 0.000192954 2.03323e-18 0.000192954)
(0.000192954 -9.87667e-05 -7.40598e-06 0.000192954 3.39269e-18 0.000192954)
(0.000183249 -9.38761e-05 -7.13419e-06 0.000183249 1.98598e-18 0.000183249)
(0.000183249 -9.38761e-05 -7.13419e-06 0.000183249 3.49727e-18 0.000183249)
(0.00017404 -8.91871e-05 -6.86868e-06 0.00017404 1.90063e-18 0.00017404)
(0.00017404 -8.91871e-05 -6.86868e-06 0.00017404 3.62218e-18 0.00017404)
(0.000165323 -8.4695e-05 -6.60957e-06 0.000165323 1.78144e-18 0.000165323)
(0.000165323 -8.4695e-05 -6.60957e-06 0.000165323 3.67786e-18 0.000165323)
(0.000157093 -8.0395e-05 -6.35696e-06 0.000157093 1.71279e-18 0.000157093)
(0.000157093 -8.0395e-05 -6.35696e-06 0.000157093 3.63716e-18 0.000157093)
(0.000149345 -7.62826e-05 -6.11098e-06 0.000149345 1.6374e-18 0.000149345)
(0.000149345 -7.62826e-05 -6.11098e-06 0.000149345 3.62518e-18 0.000149345)
(0.000142075 -7.23532e-05 -5.87173e-06 0.000142075 1.4849e-18 0.000142075)
(0.000142075 -7.23532e-05 -5.87173e-06 0.000142075 3.60565e-18 0.000142075)
(0.000135276 -6.86023e-05 -5.63936e-06 0.000135276 1.25209e-18 0.000135276)
(0.000135276 -6.86022e-05 -5.63936e-06 0.000135276 3.61785e-18 0.000135276)
(0.000128944 -6.50252e-05 -5.41399e-06 0.000128944 1.05041e-18 0.000128944)
(0.000128944 -6.50252e-05 -5.41399e-06 0.000128944 3.7108e-18 0.000128944)
(0.00012307 -6.16178e-05 -5.19579e-06 0.00012307 8.71922e-19 0.00012307)
(0.00012307 -6.16178e-05 -5.19579e-06 0.00012307 3.76306e-18 0.00012307)
(0.000117647 -5.83758e-05 -4.98492e-06 0.000117647 7.43377e-19 0.000117647)
(0.000117647 -5.83758e-05 -4.98492e-06 0.000117647 3.80649e-18 0.000117647)
(0.000112665 -5.52953e-05 -4.78159e-06 0.000112665 5.30905e-19 0.000112665)
(0.000112665 -5.52952e-05 -4.78159e-06 0.000112665 3.85399e-18 0.000112665)
(0.000108112 -5.23724e-05 -4.58604e-06 0.000108112 2.3157e-19 0.000108112)
(0.000108112 -5.23724e-05 -4.58603e-06 0.000108112 3.99203e-18 0.000108112)
(0.000103977 -4.96041e-05 -4.39853e-06 0.000103977 9.53799e-20 0.000103977)
(0.000103977 -4.96041e-05 -4.39853e-06 0.000103977 4.14966e-18 0.000103977)
(0.000100245 -4.69876e-05 -4.21942e-06 0.000100245 -8.99322e-20 0.000100245)
(0.000100245 -4.69876e-05 -4.21942e-06 0.000100245 4.13552e-18 0.000100245)
(9.68993e-05 -4.45209e-05 -4.0491e-06 9.68993e-05 -4.46898e-19 9.68993e-05)
(9.68993e-05 -4.45209e-05 -4.0491e-06 9.68993e-05 4.25694e-18 9.68993e-05)
(9.39231e-05 -4.22029e-05 -3.88804e-06 9.39231e-05 -8.45825e-19 9.39231e-05)
(9.39231e-05 -4.22029e-05 -3.88804e-06 9.39231e-05 4.46346e-18 9.39231e-05)
(9.12969e-05 -4.00333e-05 -3.73682e-06 9.12969e-05 -1.06817e-18 9.12969e-05)
(9.12969e-05 -4.00333e-05 -3.73682e-06 9.12969e-05 4.52594e-18 9.12969e-05)
(8.90003e-05 -3.80131e-05 -3.59611e-06 8.90003e-05 -1.36641e-18 8.90003e-05)