/*--------------------------------*- C++ -*----------------------------------*\
| =========                 |                                                 |
| \\      /  F ield         | OpenFOAM: The Open Source CFD Toolbox           |
|  \\    /   O peration     | Version:  2012                                  |
|   \\  /    A nd           | Website:  www.openfoam.com                      |
|    \\/     M anipulation  |                                                 |
\*---------------------------------------------------------------------------*/
FoamFile
{
    version     2.0;
    format      ascii;
    class       volVectorField;
    location    "1000";
    object      U;
}
// * * * * * * * * * * * * * * * * * * * * * * * * * * * * * * * * * * * * * //

dimensions      [0 1 -1 0 0 0 0];


internalField   nonuniform List<vector> 
2560
(
(0.00522297 -1.42165e-15 2.45645e-18)
(0.00522297 -1.0055e-18 4.61774e-19)
(0.0157395 -3.68244e-15 6.9422e-17)
(0.0157395 1.09574e-18 5.46384e-18)
(0.0263986 -3.58327e-15 7.32189e-17)
(0.0263986 1.0477e-18 5.60676e-18)
(0.0371953 -3.42828e-15 7.78101e-17)
(0.0371953 1.71338e-18 5.74028e-18)
(0.0481246 -3.35736e-15 8.24922e-17)
(0.0481246 2.3836e-18 5.86829e-18)
(0.0591815 -3.3788e-15 8.72092e-17)
(0.0591815 3.06494e-18 5.99067e-18)
(0.0703607 -3.38752e-15 9.20693e-17)
(0.0703607 3.75839e-18 6.10685e-18)
(0.0816568 -3.38948e-15 9.71018e-17)
(0.0816568 4.41259e-18 6.21684e-18)
(0.0930643 -3.39037e-15 1.02311e-16)
(0.0930643 5.11212e-18 6.31944e-18)
(0.104578 -3.39157e-15 1.07701e-16)
(0.104578 5.84669e-18 6.41321e-18)
(0.116191 -3.39288e-15 1.13277e-16)
(0.116191 6.54059e-18 6.49943e-18)
(0.127899 -3.39418e-15 1.19043e-16)
(0.127899 7.17848e-18 6.57652e-18)
(0.139694 -3.39551e-15 1.25005e-16)
(0.139694 7.83174e-18 6.64401e-18)
(0.151573 -3.39689e-15 1.31168e-16)
(0.151573 8.5863e-18 6.69889e-18)
(0.163527 -3.3982e-15 1.37538e-16)
(0.163527 9.30102e-18 6.74228e-18)
(0.175552 -3.39952e-15 1.44122e-16)
(0.175552 1.00338e-17 6.77496e-18)
(0.18764 -3.40081e-15 1.50924e-16)
(0.18764 1.0715e-17 6.79323e-18)
(0.199786 -3.40207e-15 1.57952e-16)
(0.199786 1.12622e-17 6.79773e-18)
(0.211983 -3.40357e-15 1.65211e-16)
(0.211983 1.19622e-17 6.78711e-18)
(0.224226 -3.40508e-15 1.72708e-16)
(0.224226 1.2663e-17 6.76231e-18)
(0.236507 -3.40646e-15 1.80451e-16)
(0.236507 1.32888e-17 6.72357e-18)
(0.24882 -3.40788e-15 1.88446e-16)
(0.24882 1.3938e-17 6.67202e-18)
(0.261159 -3.40933e-15 1.96702e-16)
(0.261159 1.47113e-17 6.6031e-18)
(0.273517 -3.41073e-15 2.05225e-16)
(0.273517 1.53406e-17 6.51021e-18)
(0.285889 -3.4118e-15 2.14023e-16)
(0.285889 1.57521e-17 6.39868e-18)
(0.298267 -3.41307e-15 2.23106e-16)
(0.298267 1.62325e-17 6.26703e-18)
(0.310646 -3.4144e-15 2.3248e-16)
(0.310646 1.69263e-17 6.11792e-18)
(0.323019 -3.41574e-15 2.42154e-16)
(0.323019 1.76799e-17 5.94753e-18)
(0.335379 -3.41717e-15 2.52136e-16)
(0.335379 1.82771e-17 5.75496e-18)
(0.347721 -3.41863e-15 2.62434e-16)
(0.347721 1.88859e-17 5.52896e-18)
(0.360038 -3.42019e-15 2.73058e-16)
(0.360038 1.96932e-17 5.27043e-18)
(0.372325 -3.4216e-15 2.84016e-16)
(0.372325 2.04694e-17 4.98819e-18)
(0.384575 -3.42302e-15 2.95316e-16)
(0.384575 2.1149e-17 4.68935e-18)
(0.396782 -3.42445e-15 3.06968e-16)
(0.396782 2.17801e-17 4.36353e-18)
(0.40894 -3.42591e-15 3.18984e-16)
(0.40894 2.22532e-17 3.99965e-18)
(0.421045 -3.42723e-15 3.31372e-16)
(0.421045 2.26773e-17 3.60428e-18)
(0.433089 -3.42837e-15 3.44146e-16)
(0.433089 2.3034e-17 3.17495e-18)
(0.445067 -3.42951e-15 3.57317e-16)
(0.445067 2.33899e-17 2.72184e-18)
(0.456975 -3.43054e-15 3.70893e-16)
(0.456975 2.34952e-17 2.23425e-18)
(0.468806 -3.43135e-15 3.84887e-16)
(0.468806 2.34495e-17 1.71391e-18)
(0.480556 -3.43211e-15 3.99312e-16)
(0.480556 2.3549e-17 1.16602e-18)
(0.492219 -3.43315e-15 4.14181e-16)
(0.492219 2.41651e-17 5.84183e-19)
(0.50379 -3.43431e-15 4.29503e-16)
(0.50379 2.44732e-17 -4.50659e-20)
(0.515265 -3.43524e-15 4.4529e-16)
(0.515265 2.46117e-17 -7.26435e-19)
(0.526639 -3.43671e-15 4.61556e-16)
(0.526639 2.52054e-17 -7.93122e-19)
(0.537908 -3.43817e-15 4.78109e-16)
(0.537908 2.5828e-17 -8.33282e-19)
(0.549066 -3.43875e-15 4.86154e-16)
(0.549066 2.63938e-17 -8.7556e-19)
(0.560111 -3.43939e-15 4.94352e-16)
(0.560111 2.64789e-17 -9.33031e-19)
(0.571037 -3.44041e-15 5.02759e-16)
(0.571037 2.59839e-17 -9.79051e-19)
(0.581841 -3.44124e-15 5.11365e-16)
(0.581841 2.53966e-17 -1.02912e-18)
(0.59252 -3.44154e-15 5.20129e-16)
(0.59252 2.49765e-17 -1.09384e-18)
(0.60307 -3.44115e-15 5.29109e-16)
(0.60307 2.3989e-17 -1.14593e-18)
(0.613487 -3.44055e-15 5.38333e-16)
(0.613487 2.31849e-17 -1.19354e-18)
(0.623769 -3.44044e-15 5.47773e-16)
(0.623769 2.24051e-17 -1.25343e-18)
(0.633912 -3.44121e-15 5.57429e-16)
(0.633912 2.18545e-17 -1.30803e-18)
(0.643914 -3.44178e-15 5.67342e-16)
(0.643914 2.21265e-17 -1.36039e-18)
(0.653771 -3.44199e-15 5.77505e-16)
(0.653771 2.18273e-17 -1.42849e-18)
(0.663482 -3.44277e-15 5.87417e-16)
(0.663482 2.14756e-17 -1.52132e-18)
(0.673045 -3.44351e-15 5.96658e-16)
(0.673045 2.14377e-17 -1.60882e-18)
(0.682456 -3.44378e-15 6.06127e-16)
(0.682456 2.05991e-17 -1.67632e-18)
(0.691715 -3.44392e-15 6.15791e-16)
(0.691715 1.96533e-17 -1.75951e-18)
(0.700819 -3.44347e-15 6.25693e-16)
(0.700819 1.89166e-17 -1.85675e-18)
(0.709767 -3.44198e-15 6.35813e-16)
(0.709767 1.61511e-17 -1.96323e-18)
(0.718558 -3.44015e-15 6.4616e-16)
(0.718558 1.44357e-17 -2.01806e-18)
(0.72719 -3.43873e-15 6.56746e-16)
(0.72719 1.35798e-17 -2.10578e-18)
(0.735663 -3.43826e-15 6.67546e-16)
(0.735663 1.24313e-17 -2.2364e-18)
(0.743975 -3.43752e-15 6.78603e-16)
(0.743975 1.17496e-17 -2.34357e-18)
(0.752126 -3.43639e-15 6.89918e-16)
(0.752126 9.96655e-18 -2.45731e-18)
(0.760115 -3.4359e-15 7.01442e-16)
(0.760115 8.2621e-18 -2.54583e-18)
(0.767942 -3.43509e-15 7.13299e-16)
(0.767942 6.71772e-18 -2.65882e-18)
(0.775607 -3.43366e-15 7.25402e-16)
(0.775607 5.22145e-18 -2.79198e-18)
(0.783109 -3.4321e-15 7.37801e-16)
(0.783109 2.28794e-18 -2.93581e-18)
(0.790449 -3.43017e-15 7.5043e-16)
(0.790449 -1.01498e-18 -3.06792e-18)
(0.797627 -3.42748e-15 7.63305e-16)
(0.797627 -2.92801e-18 -3.19462e-18)
(0.804644 -3.42475e-15 7.76416e-16)
(0.804644 -5.71135e-18 -3.33813e-18)
(0.811499 -3.42086e-15 7.89839e-16)
(0.811499 -9.5824e-18 -3.46844e-18)
(0.818194 -3.41744e-15 8.0341e-16)
(0.818194 -1.18332e-17 -3.61536e-18)
(0.82473 -3.41636e-15 8.17217e-16)
(0.82473 -1.37706e-17 -3.83658e-18)
(0.831106 -3.41512e-15 8.31245e-16)
(0.831106 -1.6665e-17 -3.98507e-18)
(0.837325 -3.41325e-15 8.4565e-16)
(0.837325 -1.83719e-17 -4.09327e-18)
(0.843387 -3.41017e-15 8.60357e-16)
(0.843387 -2.04751e-17 -4.34563e-18)
(0.849294 -3.40697e-15 8.75233e-16)
(0.849294 -2.48893e-17 -4.6664e-18)
(0.855048 -3.40435e-15 8.90432e-16)
(0.855048 -2.85258e-17 -4.83355e-18)
(0.860648 -3.40032e-15 9.05999e-16)
(0.860648 -3.13067e-17 -4.91423e-18)
(0.866098 -3.39582e-15 9.21819e-16)
(0.866098 -3.66556e-17 -5.11638e-18)
(0.871399 -3.39188e-15 9.37866e-16)
(0.871399 -4.12921e-17 -5.33529e-18)
(0.876552 -3.38864e-15 9.54158e-16)
(0.876552 -4.53118e-17 -5.62755e-18)
(0.88156 -3.38709e-15 9.70606e-16)
(0.88156 -4.8796e-17 -5.94508e-18)
(0.886424 -3.381e-15 9.87468e-16)
(0.886424 -5.05678e-17 -6.14945e-18)
(0.891146 -3.37717e-15 1.00488e-15)
(0.891146 -5.48113e-17 -6.391e-18)
(0.895728 -3.37125e-15 1.0226e-15)
(0.895728 -6.09816e-17 -6.68627e-18)
(0.900173 -3.36518e-15 1.04066e-15)
(0.900173 -6.66341e-17 -6.91964e-18)
(0.904482 -3.35846e-15 1.059e-15)
(0.904482 -7.21482e-17 -7.13997e-18)
(0.908658 -3.35128e-15 1.07769e-15)
(0.908658 -7.89319e-17 -7.51836e-18)
(0.912703 -3.34645e-15 1.09647e-15)
(0.912703 -8.52799e-17 -7.90284e-18)
(0.91662 -3.3418e-15 1.11547e-15)
(0.91662 -8.95835e-17 -8.21903e-18)
(0.92041 -3.33438e-15 1.13478e-15)
(0.92041 -9.38555e-17 -8.33887e-18)
(0.924076 -3.32597e-15 1.15433e-15)
(0.924076 -1.01193e-16 -8.63484e-18)
(0.92762 -3.31653e-15 1.17402e-15)
(0.92762 -1.09262e-16 -9.13883e-18)
(0.931045 -3.30622e-15 1.19396e-15)
(0.931045 -1.16867e-16 -9.61602e-18)
(0.934354 -3.29593e-15 1.21396e-15)
(0.934354 -1.24693e-16 -9.94304e-18)
(0.937548 -3.28622e-15 1.23415e-15)
(0.937548 -1.32835e-16 -1.02719e-17)
(0.94063 -3.27743e-15 1.25446e-15)
(0.94063 -1.40063e-16 -1.06439e-17)
(0.943603 -3.26848e-15 1.27517e-15)
(0.943603 -1.45263e-16 -1.09366e-17)
(0.946469 -3.25874e-15 1.29599e-15)
(0.946469 -1.54302e-16 -1.13225e-17)
(0.949231 -3.24926e-15 1.31681e-15)
(0.949231 -1.63735e-16 -1.17553e-17)
(0.95189 -3.23841e-15 1.33784e-15)
(0.95189 -1.72272e-16 -1.21404e-17)
(0.95445 -3.22557e-15 1.35897e-15)
(0.95445 -1.84996e-16 -1.2697e-17)
(0.956913 -3.20951e-15 1.37997e-15)
(0.956913 -1.98838e-16 -1.30736e-17)
(0.959282 -3.19529e-15 1.40102e-15)
(0.959282 -2.08542e-16 -1.31912e-17)
(0.961558 -3.18459e-15 1.42252e-15)
(0.961558 -2.17043e-16 -1.36608e-17)
(0.963744 -3.17306e-15 1.44391e-15)
(0.963744 -2.25956e-16 -1.42323e-17)
(0.965843 -3.1592e-15 1.46523e-15)
(0.965843 -2.37699e-16 -1.4834e-17)
(0.967857 -3.14297e-15 1.48626e-15)
(0.967857 -2.48209e-16 -1.52245e-17)
(0.969788 -3.12845e-15 1.50715e-15)
(0.969788 -2.59262e-16 -1.54388e-17)
(0.971638 -3.11435e-15 1.52797e-15)
(0.971638 -2.71539e-16 -1.57549e-17)
(0.97341 -3.09794e-15 1.54848e-15)
(0.97341 -2.83573e-16 -1.60084e-17)
(0.975107 -3.0806e-15 1.56884e-15)
(0.975107 -2.95328e-16 -1.62907e-17)
(0.976729 -3.06494e-15 1.58904e-15)
(0.976729 -3.04102e-16 -1.66545e-17)
(0.97828 -3.04901e-15 1.60934e-15)
(0.97828 -3.15751e-16 -1.70419e-17)
(0.979761 -3.03044e-15 1.62887e-15)
(0.979761 -3.2825e-16 -1.73823e-17)
(0.981175 -3.01072e-15 1.64763e-15)
(0.981175 -3.41213e-16 -1.76378e-17)
(0.982523 -2.9923e-15 1.66613e-15)
(0.982523 -3.55018e-16 -1.78864e-17)
(0.983808 -2.97267e-15 1.68413e-15)
(0.983808 -3.69415e-16 -1.81933e-17)
(0.985031 -2.95053e-15 1.70143e-15)
(0.985031 -3.85263e-16 -1.8485e-17)
(0.986195 -2.93023e-15 1.71804e-15)
(0.986195 -3.99091e-16 -1.82757e-17)
(0.987301 -2.9115e-15 1.73441e-15)
(0.987301 -4.12281e-16 -1.40851e-17)
(0.988351 -2.89158e-15 1.74992e-15)
(0.988351 -4.2596e-16 -2.16922e-17)
(0.989348 -2.86796e-15 1.76428e-15)
(0.989348 -4.4057e-16 -2.95551e-17)
(0.990291 -2.84152e-15 1.77712e-15)
(0.990291 -4.54338e-16 -3.76573e-17)
(0.991185 -2.8173e-15 1.78932e-15)
(0.991185 -4.68747e-16 -4.58041e-17)
(0.992029 -2.79332e-15 1.80035e-15)
(0.992029 -4.85488e-16 -5.40497e-17)
(0.992825 -2.76773e-15 1.81006e-15)
(0.992825 -5.04428e-16 -6.24073e-17)
(0.993576 -2.74216e-15 1.81798e-15)
(0.993576 -5.19886e-16 -7.09235e-17)
(0.994283 -2.71696e-15 1.82453e-15)
(0.994283 -5.32303e-16 -7.95918e-17)
(0.994947 -2.69015e-15 1.82971e-15)
(0.994947 -5.47489e-16 -8.83941e-17)
(0.99557 -2.66407e-15 1.83267e-15)
(0.99557 -5.64065e-16 -9.732e-17)
(0.996152 -2.64141e-15 1.83335e-15)
(0.996152 -5.77917e-16 -1.06223e-16)
(0.996697 -2.61573e-15 1.83254e-15)
(0.996697 -5.91675e-16 -1.15038e-16)
(0.997204 -2.5841e-15 1.82869e-15)
(0.997204 -6.12773e-16 -1.23954e-16)
(0.997675 -2.55447e-15 1.82198e-15)
(0.997675 -6.33569e-16 -1.32787e-16)
(0.998113 -2.52679e-15 1.81348e-15)
(0.998113 -6.49495e-16 -1.41239e-16)
(0.998517 -2.49646e-15 1.80207e-15)
(0.998517 -6.70227e-16 -1.49528e-16)
(0.99889 -2.46363e-15 1.78718e-15)
(0.99889 -6.91312e-16 -1.5749e-16)
(0.999232 -2.43435e-15 1.76955e-15)
(0.999232 -7.05544e-16 -1.64855e-16)
(0.999545 -2.41e-15 1.74909e-15)
(0.999545 -7.2146e-16 -1.72147e-16)
(0.999831 -2.38244e-15 1.72529e-15)
(0.999831 -7.35041e-16 -1.79317e-16)
(1.00009 -2.3543e-15 1.69801e-15)
(1.00009 -7.48903e-16 -1.86378e-16)
(1.00032 -2.33074e-15 1.66705e-15)
(1.00032 -7.59181e-16 -1.9257e-16)
(1.00053 -2.30841e-15 1.63247e-15)
(1.00053 -7.6955e-16 -1.97895e-16)
(1.00072 -2.28893e-15 1.59904e-15)
(1.00072 -7.82901e-16 -2.01848e-16)
(1.00089 -2.26963e-15 1.56596e-15)
(1.00089 -7.92178e-16 -2.04417e-16)
(1.00104 -2.24575e-15 1.52866e-15)
(1.00104 -8.07253e-16 -2.06044e-16)
(1.00117 -2.22004e-15 1.48768e-15)
(1.00117 -8.21966e-16 -2.07368e-16)
(1.00128 -2.19313e-15 1.443e-15)
(1.00128 -8.38399e-16 -1.90986e-16)
(1.00138 -2.16252e-15 1.39555e-15)
(1.00138 -8.62182e-16 -1.71364e-16)
(1.00146 -2.12998e-15 1.34481e-15)
(1.00146 -8.81998e-16 -1.51661e-16)
(1.00154 -2.1005e-15 1.29104e-15)
(1.00154 -8.95896e-16 -1.33743e-16)
(1.0016 -2.07241e-15 1.23555e-15)
(1.0016 -9.11727e-16 -1.16224e-16)
(1.00165 -2.0473e-15 1.17853e-15)
(1.00165 -9.25359e-16 -9.84807e-17)
(1.00169 -2.02055e-15 1.12131e-15)
(1.00169 -9.33627e-16 -8.12658e-17)
(1.00173 -1.99704e-15 1.06336e-15)
(1.00173 -9.44871e-16 -6.48939e-17)
(1.00176 -1.98406e-15 1.00684e-15)
(1.00176 -9.54045e-16 -4.97716e-17)
(1.00178 -1.96991e-15 9.50747e-16)
(1.00178 -9.66028e-16 -3.63929e-17)
(1.0018 -1.95032e-15 8.95711e-16)
(1.0018 -9.82933e-16 -2.3228e-17)
(1.00182 -1.92698e-15 8.43105e-16)
(1.00182 -9.98701e-16 -1.16769e-17)
(1.00183 -1.90563e-15 7.93614e-16)
(1.00183 -1.01186e-15 -2.34163e-19)
(1.00185 -1.88958e-15 7.46627e-16)
(1.00185 -1.02252e-15 1.01074e-17)
(1.00186 -1.87354e-15 7.03283e-16)
(1.00186 -1.0315e-15 1.81146e-17)
(1.00187 -1.85953e-15 6.61993e-16)
(1.00187 -1.03738e-15 2.57425e-17)
(1.00188 -1.84879e-15 6.22685e-16)
(1.00188 -1.04285e-15 3.27e-17)
(1.00188 -1.83934e-15 5.85866e-16)
(1.00188 -1.04248e-15 3.90831e-17)
(1.00189 -1.82881e-15 5.53571e-16)
(1.00189 -1.04156e-15 4.59908e-17)
(1.0019 -1.81461e-15 5.23851e-16)
(1.0019 -1.04721e-15 5.22429e-17)
(1.00191 -1.8007e-15 4.95262e-16)
(1.00191 -1.05076e-15 5.81038e-17)
(1.00192 -1.78737e-15 4.69752e-16)
(1.00192 -1.04978e-15 6.37477e-17)
(1.00193 -1.77317e-15 4.44545e-16)
(1.00193 -1.05637e-15 6.94877e-17)
(1.00194 -1.76004e-15 4.21307e-16)
(1.00194 -1.06148e-15 7.61432e-17)
(1.00196 -1.74513e-15 4.00712e-16)
(1.00196 -1.06014e-15 8.17587e-17)
(1.00197 -1.73129e-15 3.81137e-16)
(1.00197 -1.06377e-15 8.57784e-17)
(1.00199 -1.71813e-15 3.64769e-16)
(1.00199 -1.06536e-15 9.04894e-17)
(1.002 -1.70872e-15 3.48813e-16)
(1.002 -1.06812e-15 9.58455e-17)
(1.00202 -1.70432e-15 3.3325e-16)
(1.00202 -1.06906e-15 1.01998e-16)
(1.00204 -1.69792e-15 3.21004e-16)
(1.00204 -1.06215e-15 1.05613e-16)
(1.00206 -1.68728e-15 3.08655e-16)
(1.00206 -1.05794e-15 1.09783e-16)
(1.00208 -1.67902e-15 2.98346e-16)
(1.00208 -1.05244e-15 1.16314e-16)
(1.0021 -1.67503e-15 2.90141e-16)
(1.0021 -1.04962e-15 1.22757e-16)
(1.00213 -1.66636e-15 2.82661e-16)
(1.00213 -1.05434e-15 1.29141e-16)
(1.00215 -1.65864e-15 2.76777e-16)
(1.00215 -1.05729e-15 1.34971e-16)
(1.00218 -1.65191e-15 2.71509e-16)
(1.00218 -1.05429e-15 1.4101e-16)
(1.00221 -1.64495e-15 2.66221e-16)
(1.00221 -1.05051e-15 1.46104e-16)
(1.00224 -1.64562e-15 2.5988e-16)
(1.00224 -1.04365e-15 1.53119e-16)
(1.00227 -1.64176e-15 2.54536e-16)
(1.00227 -1.03499e-15 1.62322e-16)
(1.0023 -1.63437e-15 2.49839e-16)
(1.0023 -1.02672e-15 1.69776e-16)
(1.00234 -1.63144e-15 2.44865e-16)
(1.00234 -1.0198e-15 1.76446e-16)
(1.00237 -1.6249e-15 2.39874e-16)
(1.00237 -1.01718e-15 1.88527e-16)
(1.00241 -1.61218e-15 2.38161e-16)
(1.00241 -1.01087e-15 2.00479e-16)
(1.00245 -1.59531e-15 2.33685e-16)
(1.00245 -1.02497e-15 2.11247e-16)
(1.00249 -1.58085e-15 2.32198e-16)
(1.00249 -1.0504e-15 2.21226e-16)
(1.00253 -1.56719e-15 2.32309e-16)
(1.00253 -1.05187e-15 2.33077e-16)
(1.00258 -1.54727e-15 2.34659e-16)
(1.00258 -1.05402e-15 2.43869e-16)
(1.00263 -1.53049e-15 2.32928e-16)
(1.00263 -1.05989e-15 2.56268e-16)
(1.00268 -1.51859e-15 2.31103e-16)
(1.00268 -1.065e-15 2.70137e-16)
(1.00273 -1.50481e-15 2.30797e-16)
(1.00273 -1.06497e-15 2.8424e-16)
(1.00278 -1.50138e-15 2.30972e-16)
(1.00278 -1.0595e-15 2.96981e-16)
(1.00283 -1.49358e-15 2.33459e-16)
(1.00283 -1.05953e-15 3.1166e-16)
(1.00289 -1.47481e-15 2.33952e-16)
(1.00289 -1.06634e-15 3.23561e-16)
(1.00295 -1.46099e-15 2.36099e-16)
(1.00295 -1.06901e-15 3.38186e-16)
(1.00301 -1.4609e-15 2.3708e-16)
(1.00301 -1.06391e-15 3.5303e-16)
(1.00307 -1.46856e-15 2.38015e-16)
(1.00307 -1.05128e-15 3.66259e-16)
(1.00314 -1.46246e-15 2.39821e-16)
(1.00314 -1.03363e-15 3.64012e-16)
(1.0032 -1.45228e-15 2.38026e-16)
(1.0032 -1.03253e-15 3.62888e-16)
(1.00327 -1.43689e-15 2.40165e-16)
(1.00327 -1.03008e-15 3.56332e-16)
(1.00334 -1.43354e-15 2.39816e-16)
(1.00334 -1.02033e-15 3.52001e-16)
(1.00342 -1.43283e-15 2.45258e-16)
(1.00342 -1.01788e-15 3.42328e-16)
(1.00349 -1.42068e-15 2.43864e-16)
(1.00349 -1.01792e-15 3.38777e-16)
(1.00357 -1.414e-15 2.45218e-16)
(1.00357 -1.02654e-15 3.30068e-16)
(1.00365 -1.40653e-15 2.47146e-16)
(1.00365 -1.04546e-15 3.24455e-16)
(1.00373 -1.3965e-15 2.50308e-16)
(1.00373 -1.05166e-15 3.23297e-16)
(1.00382 -1.38228e-15 2.51132e-16)
(1.00382 -1.05862e-15 3.23068e-16)
(1.0039 -1.37163e-15 2.50533e-16)
(1.0039 -1.08524e-15 3.20235e-16)
(1.00399 -1.36494e-15 2.47778e-16)
(1.00399 -1.09653e-15 3.18008e-16)
(1.00409 -1.3508e-15 2.50327e-16)
(1.00409 -1.09498e-15 3.1627e-16)
(1.00418 -1.33946e-15 2.49418e-16)
(1.00418 -1.10778e-15 3.18835e-16)
(1.00428 -1.34518e-15 2.45549e-16)
(1.00428 -1.11504e-15 3.20925e-16)
(1.00438 -1.33644e-15 2.45686e-16)
(1.00438 -1.11371e-15 3.16756e-16)
(1.00448 -1.31643e-15 2.44092e-16)
(1.00448 -1.12456e-15 3.12985e-16)
(1.00459 -1.30591e-15 2.45612e-16)
(1.00459 -1.13869e-15 3.11978e-16)
(1.00469 -1.30762e-15 2.43513e-16)
(1.00469 -1.1353e-15 3.1886e-16)
(1.0048 -1.30881e-15 2.42706e-16)
(1.0048 -1.13114e-15 3.18296e-16)
(1.00492 -1.30092e-15 2.41238e-16)
(1.00492 -1.1496e-15 3.13944e-16)
(1.00503 -1.29987e-15 2.3777e-16)
(1.00503 -1.15157e-15 3.09636e-16)
(1.00515 -1.30663e-15 2.28349e-16)
(1.00515 -1.14499e-15 3.14603e-16)
(1.00527 -1.30893e-15 2.29056e-16)
(1.00527 -1.16022e-15 3.04443e-16)
(1.0054 -1.29861e-15 2.31715e-16)
(1.0054 -1.1558e-15 2.88995e-16)
(1.00552 -1.2917e-15 2.27175e-16)
(1.00552 -1.15394e-15 2.82587e-16)
(1.00565 -1.2856e-15 2.33634e-16)
(1.00565 -1.16256e-15 2.66572e-16)
(1.00579 -1.27171e-15 2.31813e-16)
(1.00579 -1.16175e-15 2.58953e-16)
(1.00592 -1.2622e-15 2.30454e-16)
(1.00592 -1.16526e-15 2.53391e-16)
(1.00606 -1.2543e-15 2.2727e-16)
(1.00606 -1.15791e-15 2.50457e-16)
(1.0062 -1.24698e-15 2.23384e-16)
(1.0062 -1.16774e-15 2.4865e-16)
(1.00635 -1.23854e-15 2.22526e-16)
(1.00635 -1.18127e-15 2.41771e-16)
(1.00649 -1.22873e-15 2.23978e-16)
(1.00649 -1.17973e-15 2.34755e-16)
(1.00664 -1.2216e-15 2.24168e-16)
(1.00664 -1.17472e-15 2.43589e-16)
(1.0068 -1.21153e-15 2.22761e-16)
(1.0068 -1.16064e-15 2.4364e-16)
(1.00695 -1.19727e-15 2.19861e-16)
(1.00695 -1.16166e-15 2.38441e-16)
(1.00711 -1.17293e-15 2.09277e-16)
(1.00711 -1.15312e-15 2.36177e-16)
(1.00727 -1.14688e-15 2.07097e-16)
(1.00727 -1.12749e-15 2.3279e-16)
(1.00744 -1.1379e-15 2.00103e-16)
(1.00744 -1.10339e-15 2.35419e-16)
(1.0076 -1.11302e-15 1.93783e-16)
(1.0076 -1.07121e-15 2.33558e-16)
(1.00778 -1.07982e-15 1.88462e-16)
(1.00778 -1.04914e-15 2.17638e-16)
(1.00795 -1.05605e-15 1.84121e-16)
(1.00795 -1.03386e-15 2.20356e-16)
(1.00813 -1.03231e-15 1.81469e-16)
(1.00813 -1.01123e-15 2.17293e-16)
(1.00831 -1.0117e-15 1.81432e-16)
(1.00831 -9.95694e-16 2.2518e-16)
(1.00849 -1.00307e-15 1.77346e-16)
(1.00849 -9.77581e-16 2.34493e-16)
(1.00867 -9.99742e-16 1.68548e-16)
(1.00867 -9.54139e-16 2.28969e-16)
(1.00886 -9.87833e-16 1.6248e-16)
(1.00886 -9.29556e-16 2.16252e-16)
(1.00906 -9.73838e-16 1.66215e-16)
(1.00906 -9.20078e-16 2.15963e-16)
(1.00925 -9.64505e-16 1.52741e-16)
(1.00925 -9.05729e-16 2.22572e-16)
(1.00945 -9.64032e-16 1.39388e-16)
(1.00945 -8.90818e-16 2.1158e-16)
(1.00965 -9.48308e-16 1.52696e-16)
(1.00965 -8.78487e-16 2.06904e-16)
(1.00985 -9.31787e-16 1.60454e-16)
(1.00985 -8.82093e-16 2.03321e-16)
(1.01006 -9.24089e-16 1.66418e-16)
(1.01006 -8.88449e-16 1.86278e-16)
(1.01027 -9.35011e-16 1.79638e-16)
(1.01027 -8.72056e-16 1.81081e-16)
(1.01048 -9.37315e-16 1.96738e-16)
(1.01048 -8.62321e-16 1.74781e-16)
(1.0107 -9.15143e-16 2.05497e-16)
(1.0107 -8.66987e-16 1.90267e-16)
(1.01092 -8.75759e-16 2.30738e-16)
(1.01092 -9.06566e-16 1.81516e-16)
(1.01114 -8.5525e-16 2.1815e-16)
(1.01114 -8.95478e-16 1.85791e-16)
(1.01136 -8.38575e-16 1.98083e-16)
(1.01136 -8.80353e-16 1.81204e-16)
(1.01159 -8.16454e-16 1.8538e-16)
(1.01159 -8.57621e-16 1.70009e-16)
(1.01182 -8.05413e-16 1.67081e-16)
(1.01182 -8.5138e-16 1.61215e-16)
(1.01205 -7.98154e-16 1.71024e-16)
(1.01205 -8.46363e-16 1.58955e-16)
(1.01229 -7.88755e-16 1.8221e-16)
(1.01229 -8.12708e-16 1.39888e-16)
(1.01253 -7.92278e-16 1.53614e-16)
(1.01253 -8.40199e-16 1.60681e-16)
(1.01277 -7.78305e-16 1.27052e-16)
(1.01277 -8.02318e-16 1.66096e-16)
(1.01301 -7.48977e-16 1.17264e-16)
(1.01301 -7.71863e-16 1.24219e-16)
(1.01325 -7.4191e-16 1.08075e-16)
(1.01325 -7.69609e-16 1.10253e-16)
(1.0135 -7.19586e-16 9.67786e-17)
(1.0135 -7.61726e-16 1.05406e-16)
(1.01375 -7.65379e-16 1.09128e-16)
(1.01375 -7.44298e-16 1.09573e-16)
(1.014 -7.4968e-16 9.70888e-17)
(1.014 -7.26253e-16 1.08843e-16)
(1.01425 -7.32916e-16 1.00611e-16)
(1.01425 -7.2025e-16 9.47789e-17)
(1.01451 -7.25027e-16 9.31703e-17)
(1.01451 -7.3036e-16 7.83398e-17)
(1.01477 -7.12479e-16 9.22568e-17)
(1.01477 -7.26629e-16 7.73056e-17)
(1.01502 -6.72304e-16 8.32612e-17)
(1.01502 -7.11382e-16 8.90577e-17)
(1.01528 -6.79726e-16 9.41224e-17)
(1.01528 -6.91795e-16 1.02033e-16)
(1.01554 -6.78763e-16 8.1025e-17)
(1.01554 -6.97126e-16 9.62511e-17)
(1.01581 -6.81773e-16 6.24184e-17)
(1.01581 -7.16167e-16 1.2495e-16)
(1.01607 -6.66208e-16 8.70588e-17)
(1.01607 -6.72986e-16 1.41922e-16)
(1.01633 -6.86627e-16 9.39485e-17)
(1.01633 -6.60906e-16 1.0125e-16)
(1.0166 -6.71701e-16 7.24027e-17)
(1.0166 -6.58931e-16 1.24726e-16)
(1.01686 -6.55004e-16 8.7332e-17)
(1.01686 -6.39908e-16 1.09141e-16)
(1.01713 -6.53667e-16 8.94797e-17)
(1.01713 -6.34525e-16 1.16933e-16)
(1.01739 -6.28927e-16 9.05428e-17)
(1.01739 -6.05824e-16 1.07404e-16)
(1.01765 -6.2021e-16 6.93697e-17)
(1.01765 -5.96676e-16 1.10607e-16)
(1.01792 -6.26985e-16 9.48436e-17)
(1.01792 -6.0134e-16 9.16487e-17)
(1.01818 -6.07647e-16 9.79955e-17)
(1.01818 -6.0433e-16 1.19839e-16)
(1.01844 -5.84572e-16 6.39833e-17)
(1.01844 -6.21655e-16 9.41592e-17)
(1.01869 -5.32553e-16 8.11312e-17)
(1.01869 -5.9352e-16 1.28289e-16)
(1.01895 -5.7102e-16 1.20525e-16)
(1.01895 -5.79234e-16 9.16746e-17)
(1.0192 -5.51485e-16 9.3413e-17)
(1.0192 -6.00913e-16 7.08196e-17)
(1.01945 -5.31409e-16 7.41904e-17)
(1.01945 -5.26183e-16 1.1353e-16)
(1.0197 -5.45096e-16 6.9106e-17)
(1.0197 -5.47738e-16 1.41842e-16)
(1.01994 -5.74052e-16 1.0342e-16)
(1.01994 -5.77406e-16 1.56767e-16)
(1.02017 -5.605e-16 1.0189e-16)
(1.02017 -5.63655e-16 1.54992e-16)
(1.0204 -5.57803e-16 1.19862e-16)
(1.0204 -5.46366e-16 1.55713e-16)
(1.02062 -5.3613e-16 1.27885e-16)
(1.02062 -5.51767e-16 1.25683e-16)
(1.02084 -5.22158e-16 8.03168e-17)
(1.02084 -5.64448e-16 1.5206e-16)
(1.02105 -5.01207e-16 9.72242e-17)
(1.02105 -5.46091e-16 1.97112e-16)
(1.02125 -5.29113e-16 1.31706e-16)
(1.02125 -5.08873e-16 1.88874e-16)
(1.02143 -5.28532e-16 1.3136e-16)
(1.02143 -4.94615e-16 1.82746e-16)
(1.02161 -5.24903e-16 1.2075e-16)
(1.02161 -4.95012e-16 1.42635e-16)
(1.02178 -4.90506e-16 1.30304e-16)
(1.02178 -5.06503e-16 1.49757e-16)
(1.02193 -5.08453e-16 1.44212e-16)
(1.02193 -4.80399e-16 1.50182e-16)
(1.02207 -5.0002e-16 9.44165e-17)
(1.02207 -4.9252e-16 1.48676e-16)
(1.02219 -4.58863e-16 1.11557e-16)
(1.02219 -5.07209e-16 1.36404e-16)
(1.02229 -4.61821e-16 1.35111e-16)
(1.02229 -4.93274e-16 1.36105e-16)
(1.02238 -4.55317e-16 1.07671e-16)
(1.02238 -4.61107e-16 1.77945e-16)
(1.02245 -4.42757e-16 1.82643e-16)
(1.02245 -4.50252e-16 2.28437e-16)
(1.0225 -4.39263e-16 2.13259e-16)
(1.0225 -4.56657e-16 2.21113e-16)
(1.02252 -4.33046e-16 2.12415e-16)
(1.02252 -4.13623e-16 2.28999e-16)
(0.00522297 -3.16457e-19 -1.23451e-18)
(0.00522297 -6.63458e-20 9.27157e-18)
(0.0157395 5.84492e-19 -1.41782e-19)
(0.0157395 1.6128e-19 3.65407e-17)
(0.0263986 6.42944e-19 2.70168e-18)
(0.0263986 1.90389e-19 3.76029e-17)
(0.0371953 1.02892e-18 -3.08901e-18)
(0.0371953 3.16293e-19 3.86928e-17)
(0.0481246 1.41028e-18 -8.35453e-18)
(0.0481246 4.5413e-19 3.98102e-17)
(0.0591815 1.81119e-18 -1.25299e-17)
(0.0591815 5.80312e-19 4.09559e-17)
(0.0703607 2.1966e-18 -1.66195e-17)
(0.0703607 7.54028e-19 4.21299e-17)
(0.0816568 2.54925e-18 -1.8238e-17)
(0.0816568 1.0101e-18 4.33342e-17)
(0.0930643 2.91246e-18 -1.87025e-17)
(0.0930643 1.19316e-18 4.4568e-17)
(0.104578 3.24534e-18 -1.91699e-17)
(0.104578 1.4228e-18 4.58321e-17)
(0.116191 3.61513e-18 -1.96406e-17)
(0.116191 1.65192e-18 4.71273e-17)
(0.127899 4.02068e-18 -2.0112e-17)
(0.127899 1.76558e-18 4.8454e-17)
(0.139694 4.43549e-18 -2.05842e-17)
(0.139694 1.96046e-18 4.98142e-17)
(0.151573 4.90608e-18 -2.10562e-17)
(0.151573 2.13486e-18 5.1207e-17)
(0.163527 5.43306e-18 -2.15276e-17)
(0.163527 2.28188e-18 5.26312e-17)
(0.175552 6.07324e-18 -2.19979e-17)
(0.175552 2.45734e-18 5.40912e-17)
(0.18764 6.65295e-18 -2.24659e-17)
(0.18764 2.70544e-18 5.5587e-17)
(0.199786 7.10172e-18 -2.29348e-17)
(0.199786 2.86052e-18 5.71182e-17)
(0.211983 7.59525e-18 -2.34029e-17)
(0.211983 2.96164e-18 5.86845e-17)
(0.224226 8.20672e-18 -2.38672e-17)
(0.224226 3.08357e-18 6.02872e-17)
(0.236507 8.75616e-18 -2.43289e-17)
(0.236507 3.26539e-18 6.19276e-17)
(0.24882 9.25839e-18 -2.47858e-17)
(0.24882 3.4397e-18 6.36074e-17)
(0.261159 9.82983e-18 -2.52368e-17)
(0.261159 3.54892e-18 6.53288e-17)
(0.273517 1.03082e-17 -2.5681e-17)
(0.273517 3.72274e-18 6.7094e-17)
(0.285889 1.0754e-17 -2.61217e-17)
(0.285889 3.91344e-18 6.88936e-17)
(0.298267 1.11767e-17 -2.65544e-17)
(0.298267 4.17565e-18 7.07306e-17)
(0.310646 1.15753e-17 -2.69768e-17)
(0.310646 4.40718e-18 7.26136e-17)
(0.323019 1.21491e-17 -2.73909e-17)
(0.323019 4.67095e-18 7.45381e-17)
(0.335379 1.27829e-17 -2.77938e-17)
(0.335379 5.02366e-18 7.65137e-17)
(0.347721 1.32892e-17 -2.81876e-17)
(0.347721 5.16953e-18 7.85359e-17)
(0.360038 1.37699e-17 -2.85706e-17)
(0.360038 5.20503e-18 8.05913e-17)
(0.372325 1.41548e-17 -2.89392e-17)
(0.372325 5.72678e-18 8.26869e-17)
(0.384575 1.43966e-17 -2.93006e-17)
(0.384575 6.24044e-18 8.48374e-17)
(0.396782 1.48245e-17 -2.96499e-17)
(0.396782 6.23711e-18 8.70339e-17)
(0.40894 1.54096e-17 -2.99837e-17)
(0.40894 6.47459e-18 8.9276e-17)
(0.421045 1.61725e-17 -3.03008e-17)
(0.421045 6.67204e-18 9.15685e-17)
(0.433089 1.70349e-17 -3.05969e-17)
(0.433089 7.06015e-18 9.39117e-17)
(0.445067 1.76329e-17 -3.08785e-17)
(0.445067 7.23488e-18 9.63066e-17)
(0.456975 1.80902e-17 -3.11424e-17)
(0.456975 7.14937e-18 9.87475e-17)
(0.468806 1.85719e-17 -3.13915e-17)
(0.468806 7.5713e-18 1.01235e-16)
(0.480556 1.93079e-17 -3.16146e-17)
(0.480556 8.05372e-18 1.03779e-16)
(0.492219 1.99061e-17 -3.18038e-17)
(0.492219 8.1838e-18 1.0639e-16)
(0.50379 2.00348e-17 -3.19689e-17)
(0.50379 8.32153e-18 1.09055e-16)
(0.515265 2.01446e-17 -3.26867e-17)
(0.515265 8.91328e-18 1.11763e-16)
(0.526639 2.04008e-17 -3.4482e-17)
(0.526639 9.04602e-18 1.14531e-16)
(0.537908 2.08747e-17 -3.63135e-17)
(0.537908 9.52103e-18 1.1709e-16)
(0.549066 2.1876e-17 -3.81919e-17)
(0.549066 9.64984e-18 1.1927e-16)
(0.560111 2.27961e-17 -4.01151e-17)
(0.560111 9.923e-18 1.21494e-16)
(0.571037 2.35558e-17 -4.20846e-17)
(0.571037 1.04701e-17 1.23735e-16)
(0.581841 2.39493e-17 -4.40936e-17)
(0.581841 1.11611e-17 1.25995e-16)
(0.59252 2.41249e-17 -4.61379e-17)
(0.59252 1.18208e-17 1.28293e-16)
(0.60307 2.4796e-17 -4.82537e-17)
(0.60307 1.21182e-17 1.30631e-16)
(0.613487 2.53789e-17 -5.03923e-17)
(0.613487 1.24077e-17 1.32976e-16)
(0.623769 2.58448e-17 -5.25707e-17)
(0.623769 1.25677e-17 1.35339e-16)
(0.633912 2.67291e-17 -5.48075e-17)
(0.633912 1.34458e-17 1.37738e-16)
(0.643914 2.77274e-17 -5.71148e-17)
(0.643914 1.40126e-17 1.40167e-16)
(0.653771 2.80786e-17 -5.94716e-17)
(0.653771 1.49114e-17 1.42599e-16)
(0.663482 2.83285e-17 -6.18616e-17)
(0.663482 1.57318e-17 1.45059e-16)
(0.673045 2.84885e-17 -6.42722e-17)
(0.673045 1.59145e-17 1.47525e-16)
(0.682456 2.85482e-17 -6.67445e-17)
(0.682456 1.6124e-17 1.50004e-16)
(0.691715 2.89943e-17 -6.92485e-17)
(0.691715 1.67351e-17 1.51523e-16)
(0.700819 2.94831e-17 -7.17953e-17)
(0.700819 1.78982e-17 1.52417e-16)
(0.709767 2.96709e-17 -7.44262e-17)
(0.709767 1.81804e-17 1.53231e-16)
(0.718558 2.99837e-17 -7.71473e-17)
(0.718558 1.83798e-17 1.53993e-16)
(0.72719 2.92027e-17 -7.99003e-17)
(0.72719 1.89847e-17 1.54688e-16)
(0.735663 2.82841e-17 -8.26533e-17)
(0.735663 1.87731e-17 1.55287e-16)
(0.743975 2.82725e-17 -8.54846e-17)
(0.743975 1.94996e-17 1.55794e-16)
(0.752126 2.80473e-17 -8.8354e-17)
(0.752126 2.0388e-17 1.56194e-16)
(0.760115 2.82671e-17 -9.12795e-17)
(0.760115 2.02062e-17 1.56506e-16)
(0.767942 2.88011e-17 -9.4236e-17)
(0.767942 2.04883e-17 1.56727e-16)
(0.775607 2.9451e-17 -9.72627e-17)
(0.775607 2.12338e-17 1.56846e-16)
(0.783109 3.02448e-17 -1.0034e-16)
(0.783109 2.15756e-17 1.56854e-16)
(0.790449 3.0024e-17 -1.03453e-16)
(0.790449 2.133e-17 1.56787e-16)
(0.797627 3.04915e-17 -1.06622e-16)
(0.797627 2.15232e-17 1.56652e-16)
(0.804644 3.18041e-17 -1.09941e-16)
(0.804644 2.14395e-17 1.56441e-16)
(0.811499 3.19314e-17 -1.13263e-16)
(0.811499 2.08645e-17 1.56181e-16)
(0.818194 3.19242e-17 -1.16669e-16)
(0.818194 2.14203e-17 1.55868e-16)
(0.82473 3.22145e-17 -1.20149e-16)
(0.82473 2.20804e-17 1.55448e-16)
(0.831106 3.27902e-17 -1.23647e-16)
(0.831106 2.27118e-17 1.54998e-16)
(0.837325 3.28778e-17 -1.27291e-16)
(0.837325 2.33601e-17 1.54462e-16)
(0.843387 3.19331e-17 -1.30962e-16)
(0.843387 2.36193e-17 1.53805e-16)
(0.849294 3.10727e-17 -1.34671e-16)
(0.849294 2.37299e-17 1.53013e-16)
(0.855048 3.06979e-17 -1.3843e-16)
(0.855048 2.45479e-17 1.52105e-16)
(0.860648 3.04217e-17 -1.42338e-16)
(0.860648 2.52474e-17 1.51114e-16)
(0.866098 2.90329e-17 -1.4627e-16)
(0.866098 2.49965e-17 1.50013e-16)
(0.871399 2.76521e-17 -1.50237e-16)
(0.871399 2.64923e-17 1.48874e-16)
(0.876552 2.74127e-17 -1.54212e-16)
(0.876552 2.6311e-17 1.47628e-16)
(0.88156 2.81365e-17 -1.58266e-16)
(0.88156 2.53343e-17 1.46223e-16)
(0.886424 2.94444e-17 -1.62433e-16)
(0.886424 2.60437e-17 1.44652e-16)
(0.891146 2.90247e-17 -1.66702e-16)
(0.891146 2.50198e-17 1.42939e-16)
(0.895728 2.83778e-17 -1.70948e-16)
(0.895728 2.47135e-17 1.41104e-16)
(0.900173 2.93261e-17 -1.75284e-16)
(0.900173 2.39388e-17 1.39137e-16)
(0.904482 3.06504e-17 -1.79764e-16)
(0.904482 2.18677e-17 1.37046e-16)