/*--------------------------------*- C++ -*----------------------------------*\
| =========                 |                                                 |
| \\      /  F ield         | OpenFOAM: The Open Source CFD Toolbox           |
|  \\    /   O peration     | Version:  2012                                  |
|   \\  /    A nd           | Website:  www.openfoam.com                      |
|    \\/     M anipulation  |                                                 |
\*---------------------------------------------------------------------------*/
FoamFile
{
    version     2.0;
    format      ascii;
    class       surfaceScalarField;
    location    "3000";
    object      phi;
}
// * * * * * * * * * * * * * * * * * * * * * * * * * * * * * * * * * * * * * //

dimensions      [0 3 -1 0 0 0 0];
oriented        oriented;


internalField   nonuniform List<scalar> 
2556
(
6.617e-08
-3.61581e-18
-3.1966e-22
-8.82987e-22
7.29292e-23
2.06305e-07
-3.61202e-18
-1.24101e-21
-3.32309e-21
-8.08344e-23
3.58758e-07
-3.60818e-18
-1.31147e-21
-5.81711e-21
-8.81014e-23
5.24381e-07
-3.60386e-18
-1.39758e-21
-8.58253e-21
-9.59561e-23
7.04079e-07
-3.5994e-18
-1.48431e-21
-1.14683e-20
-1.04431e-22
8.98813e-07
-3.59475e-18
-1.57458e-21
-1.44588e-20
-1.13561e-22
1.10961e-06
-3.58981e-18
-1.67087e-21
-1.7702e-20
-1.23401e-22
1.33754e-06
-3.5841e-18
-1.77366e-21
-2.09751e-20
-1.33984e-22
1.58376e-06
-3.57823e-18
-1.88313e-21
-2.50127e-20
-1.45336e-22
1.84947e-06
-3.57192e-18
-1.9996e-21
-2.8868e-20
-1.57457e-22
2.13595e-06
-3.56583e-18
-2.12347e-21
-3.27009e-20
-1.70417e-22
2.44451e-06
-3.55916e-18
-2.25503e-21
-3.66882e-20
-1.84237e-22
2.77651e-06
-3.55216e-18
-2.39443e-21
-4.18533e-20
-1.98912e-22
3.13334e-06
-3.54486e-18
-2.54163e-21
-4.6525e-20
-2.1436e-22
3.51638e-06
-3.53655e-18
-2.69629e-21
-5.20074e-20
-2.30601e-22
3.92697e-06
-3.52843e-18
-2.85783e-21
-5.80474e-20
-2.47494e-22
4.36639e-06
-3.51876e-18
-3.02497e-21
-6.45704e-20
-2.64943e-22
4.83575e-06
-3.51052e-18
-3.19627e-21
-6.96911e-20
-2.82756e-22
5.33601e-06
-3.50114e-18
-3.36935e-21
-7.62113e-20
-3.00897e-22
5.86787e-06
-3.49027e-18
-3.54169e-21
-8.3418e-20
-3.18765e-22
6.43172e-06
-3.47715e-18
-3.71025e-21
-9.18815e-20
-3.3625e-22
7.02767e-06
-3.46602e-18
-3.87207e-21
-9.92379e-20
-3.52626e-22
7.65548e-06
-3.45398e-18
-4.02361e-21
-1.05891e-19
-3.67866e-22
8.31466e-06
-3.44101e-18
-4.1624e-21
-1.14615e-19
-3.81665e-22
9.00446e-06
-3.42879e-18
-4.28674e-21
-1.22103e-19
-3.93525e-22
9.72401e-06
-3.41326e-18
-4.39504e-21
-1.33116e-19
-4.03202e-22
1.04724e-05
-3.39917e-18
-4.48758e-21
-1.42489e-19
-4.10056e-22
1.12487e-05
-3.3855e-18
-4.56523e-21
-1.50643e-19
-4.14481e-22
1.20522e-05
-3.37274e-18
-4.62796e-21
-1.60143e-19
-4.17164e-22
1.28823e-05
-3.35695e-18
-4.67743e-21
-1.69795e-19
-4.1736e-22
1.37386e-05
-3.34205e-18
-4.71577e-21
-1.78481e-19
-4.15283e-22
1.46209e-05
-3.3263e-18
-4.74465e-21
-1.86154e-19
-4.11584e-22
1.55293e-05
-3.30952e-18
-4.76617e-21
-1.93221e-19
-4.06285e-22
1.64641e-05
-3.29619e-18
-4.7833e-21
-2.01145e-19
-3.98992e-22
1.74256e-05
-3.2834e-18
-4.79617e-21
-2.09573e-19
-3.90147e-22
1.84147e-05
-3.27319e-18
-4.80585e-21
-2.19055e-19
-3.79236e-22
1.94319e-05
-3.2608e-18
-4.8133e-21
-2.26605e-19
-3.65343e-22
2.04782e-05
-3.24687e-18
-4.8183e-21
-2.35895e-19
-3.50551e-22
2.15547e-05
-3.23241e-18
-4.82144e-21
-2.46206e-19
-3.34979e-22
2.26624e-05
-3.21618e-18
-4.82358e-21
-2.53296e-19
-3.19167e-22
2.38024e-05
-3.20415e-18
-4.82418e-21
-2.58565e-19
-3.03645e-22
2.49762e-05
-3.18756e-18
-4.82192e-21
-2.66512e-19
-2.8712e-22
2.61849e-05
-3.16929e-18
-4.82002e-21
-2.74291e-19
-2.69912e-22
2.743e-05
-3.15477e-18
-4.81838e-21
-2.87216e-19
-2.49985e-22
2.8713e-05
-3.13332e-18
-4.81969e-21
-2.98267e-19
-2.24164e-22
3.00352e-05
-3.11559e-18
-4.82487e-21
-3.12038e-19
-1.97195e-22
3.13982e-05
-3.0974e-18
-4.83064e-21
-3.24497e-19
-1.66453e-22
3.28037e-05
-3.0772e-18
-4.83651e-21
-3.37096e-19
-1.32125e-22
3.42532e-05
-3.06474e-18
-4.84009e-21
-3.44736e-19
-9.7006e-23
3.57485e-05
-3.03633e-18
-4.83653e-21
-3.57018e-19
-6.33859e-23
3.72913e-05
-3.01143e-18
-4.83732e-21
-3.76669e-19
-3.48853e-23
3.88834e-05
-2.99865e-18
-4.83945e-21
-3.81947e-19
-9.04483e-25
4.05266e-05
-2.97156e-18
-4.84375e-21
-4.00074e-19
3.29736e-23
4.22227e-05
-2.95049e-18
-4.85797e-21
-4.2182e-19
8.15107e-23
4.39739e-05
-2.92736e-18
-4.87474e-21
-4.28492e-19
1.36788e-22
4.5782e-05
-2.91378e-18
-4.89958e-21
-4.36064e-19
1.96516e-22
4.76491e-05
-2.89817e-18
-4.9243e-21
-4.45464e-19
2.57251e-22
4.95775e-05
-2.89198e-18
-4.954e-21
-4.49326e-19
3.20817e-22
5.15691e-05
-2.85931e-18
-4.98398e-21
-4.58712e-19
3.83668e-22
5.36264e-05
-2.84056e-18
-5.02961e-21
-4.75062e-19
4.4759e-22
5.57516e-05
-2.82016e-18
-5.07506e-21
-4.85418e-19
5.16999e-22
5.79471e-05
-2.80541e-18
-5.12599e-21
-5.02584e-19
5.76667e-22
6.02155e-05
-2.79086e-18
-5.16262e-21
-5.16282e-19
6.35432e-22
6.25592e-05
-2.78337e-18
-5.17684e-21
-5.25121e-19
6.99997e-22
6.49808e-05
-2.75361e-18
-5.14527e-21
-5.48806e-19
7.76751e-22
6.74832e-05
-2.7317e-18
-5.08771e-21
-5.65797e-19
8.63735e-22
7.0069e-05
-2.69484e-18
-4.98614e-21
-5.75009e-19
9.48092e-22
7.27412e-05
-2.68234e-18
-4.86852e-21
-5.91522e-19
1.03764e-21
7.55027e-05
-2.66163e-18
-4.7215e-21
-5.90059e-19
1.16276e-21
7.83566e-05
-2.62615e-18
-4.62154e-21
-6.12787e-19
1.31206e-21
8.1306e-05
-2.58316e-18
-4.58071e-21
-6.36531e-19
1.48682e-21
8.43543e-05
-2.58225e-18
-4.65459e-21
-6.38863e-19
1.71335e-21
8.75047e-05
-2.57791e-18
-4.71116e-21
-6.45557e-19
1.95195e-21
9.07608e-05
-2.56684e-18
-4.78895e-21
-6.54262e-19
2.20526e-21
9.41261e-05
-2.56737e-18
-4.861e-21
-6.69789e-19
2.40818e-21
9.76043e-05
-2.57543e-18
-4.90377e-21
-6.89292e-19
2.62865e-21
0.000101199
-2.56783e-18
-4.88458e-21
-6.92214e-19
2.85241e-21
0.000104915
-2.54948e-18
-4.84073e-21
-7.0392e-19
3.0303e-21
0.000108755
-2.53142e-18
-4.79407e-21
-7.13447e-19
3.15882e-21
0.000112725
-2.51218e-18
-4.78028e-21
-7.43344e-19
3.27758e-21
0.000116827
-2.48501e-18
-4.70967e-21
-7.6709e-19
3.32095e-21
0.000121068
-2.46312e-18
-4.62643e-21
-8.10926e-19
3.40769e-21
0.00012545
-2.40297e-18
-4.50833e-21
-8.37293e-19
3.59793e-21
0.00012998
-2.42738e-18
-4.521e-21
-8.25914e-19
4.01589e-21
0.000134662
-2.37652e-18
-4.34281e-21
-8.41919e-19
4.29879e-21
0.000139501
-2.37359e-18
-4.299e-21
-8.86327e-19
4.58404e-21
0.000144502
-2.32808e-18
-3.95874e-21
-9.02242e-19
4.99294e-21
0.000149671
-2.29366e-18
-3.72689e-21
-9.55316e-19
5.18893e-21
0.000155013
-2.2212e-18
-3.62332e-21
-1.00249e-18
5.72186e-21
0.000160534
-2.16782e-18
-3.87959e-21
-1.02639e-18
6.64481e-21
0.000166239
-2.17505e-18
-4.42884e-21
-1.01368e-18
7.58449e-21
0.000172136
-2.1921e-18
-4.87396e-21
-1.02705e-18
8.14704e-21
0.000178231
-2.18552e-18
-5.2676e-21
-1.05721e-18
8.55831e-21
0.000184529
-2.20209e-18
-5.85048e-21
-1.06345e-18
8.76589e-21
0.000191037
-2.19764e-18
-6.06948e-21
-1.08011e-18
8.68427e-21
0.000197763
-2.15711e-18
-6.32551e-21
-1.10329e-18
8.32931e-21
0.000204714
-2.13532e-18
-6.69679e-21
-1.1037e-18
7.95169e-21
0.000211897
-2.1264e-18
-7.50635e-21
-1.15594e-18
7.69421e-21
0.000219319
-2.13057e-18
-8.30314e-21
-1.14683e-18
8.16701e-21
0.000226988
-2.14133e-18
-8.81421e-21
-1.17653e-18
7.95103e-21
0.000234913
-2.10411e-18
-9.05908e-21
-1.1788e-18
7.15933e-21
0.000243102
-2.05642e-18
-9.44934e-21
-1.21495e-18
6.41379e-21
0.000251563
-2.03859e-18
-1.03419e-20
-1.17349e-18
6.20213e-21
0.000260306
-1.99584e-18
-1.11617e-20
-1.18723e-18
5.41044e-21
0.000269338
-1.91428e-18
-1.16885e-20
-1.28783e-18
3.9186e-21
0.000278671
-1.89847e-18
-1.25611e-20
-1.288e-18
4.30107e-21
0.000288313
-1.90427e-18
-1.31508e-20
-1.25615e-18
4.61566e-21
0.000298274
-1.8891e-18
-1.38038e-20
-1.14745e-18
4.62128e-21
0.000308565
-1.81549e-18
-1.35406e-20
-1.20947e-18
2.59462e-21
0.000319196
-1.82214e-18
-1.47864e-20
-1.13118e-18
1.30004e-21
0.000330178
-1.77555e-18
-1.53311e-20
-1.11638e-18
-9.54823e-22
0.000341523
-1.8e-18
-1.65556e-20
-1.12651e-18
-3.26154e-21
0.000353242
-1.70202e-18
-1.63351e-20
-1.16504e-18
-6.7009e-21
0.000365346
-1.63556e-18
-1.68579e-20
-1.27973e-18
-1.02731e-20
0.000377849
-1.57047e-18
-1.73401e-20
-1.25099e-18
-1.18994e-20
0.000390762
-1.50718e-18
-1.83009e-20
-1.29144e-18
-1.45815e-20
0.000404099
-1.48825e-18
-2.05284e-20
-1.28629e-18
-1.67945e-20
0.000417873
-1.45856e-18
-2.13671e-20
-1.22714e-18
-1.71341e-20
0.000432098
-1.35187e-18
-2.18061e-20
-1.26595e-18
-2.12697e-20
0.000446788
-1.29976e-18
-2.31544e-20
-1.28365e-18
-2.31096e-20
0.000461957
-1.2785e-18
-2.46918e-20
-1.22747e-18
-2.50013e-20
0.00047762
-1.21595e-18
-2.4336e-20
-1.19601e-18
-2.45121e-20
0.000493792
-1.21098e-18
-2.5102e-20
-1.21648e-18
-2.36901e-20
0.00051049
-1.22845e-18
-2.53773e-20
-1.24515e-18
-2.1839e-20
0.000527728
-1.30875e-18
-2.67052e-20
-1.2322e-18
-2.03382e-20
0.000545525
-1.30139e-18
-2.71459e-20
-1.27517e-18
-2.189e-20
0.000563896
-1.33775e-18
-3.28607e-20
-1.1942e-18
-2.19925e-20
0.000582858
-1.34224e-18
-3.86303e-20
-1.19106e-18
-2.88348e-20
0.00060243
-1.19021e-18
-3.83485e-20
-1.18489e-18
-3.67175e-20
0.00062263
-1.17798e-18
-4.32064e-20
-1.1854e-18
-4.12956e-20
0.000643475
-1.10523e-18
-5.14103e-20
-1.20342e-18
-4.71374e-20
0.000664985
-1.32913e-18
-5.49329e-20
-1.23301e-18
-5.41733e-20
0.000687179
-1.31099e-18
-4.23051e-20
-1.29409e-18
-5.72418e-20
0.000710077
-1.31491e-18
-4.00141e-20
-1.23704e-18
-6.07354e-20
0.000733698
-1.11938e-18
-3.60807e-20
-1.31389e-18
-5.26076e-20
0.000758063
-1.0405e-18
-5.00327e-20
-1.29481e-18
-3.76955e-20
0.000783191
-1.24538e-18
-5.83857e-20
-1.12494e-18
-3.19339e-20
0.000809105
-1.14744e-18
-5.71246e-20
-1.12222e-18
-3.5441e-20
0.000835823
-1.09766e-18
-4.64733e-20
-1.13195e-18
-4.19625e-20
0.000863367
-1.27961e-18
-4.1604e-20
-1.13226e-18
-5.35564e-20
0.000891759
-1.23399e-18
-6.57797e-21
-1.18514e-18
-5.32929e-20
0.000921018
-1.22041e-18
-8.66335e-21
-1.14915e-18
-4.95651e-20
0.000951165
-1.03676e-18
-1.91252e-20
-1.21659e-18
-4.34385e-20
0.000982221
-1.11629e-18
-3.94211e-20
-1.23125e-18
-2.99888e-20
0.0010142
-1.28743e-18
-5.75449e-20
-1.24871e-18
-2.95918e-20
0.00104714
-1.17421e-18
-1.00387e-20
-1.09076e-18
-1.99144e-20
0.00108103
-1.05474e-18
1.27147e-20
-1.09377e-18
-1.83093e-20
0.00111591
-1.21744e-18
-1.92227e-20
-1.08854e-18
3.16191e-21
0.00115178
-9.34448e-19
2.94782e-20
-1.23879e-18
9.55519e-21
0.00118866
-9.42082e-19
9.54585e-21
-9.06129e-19
5.32298e-20
0.00122656
-8.95882e-19
3.61697e-21
-7.72603e-19
3.76086e-20
0.00126548
-9.92002e-19
-2.14958e-21
-7.89442e-19
4.53387e-21
0.00130543
-8.89293e-19
2.11053e-20
-1.00294e-18
-2.7634e-20
0.0013464
-7.77623e-19
8.64567e-21
-1.05273e-18
7.41795e-21
0.00138839
-1.01344e-18
3.19119e-20
-9.18024e-19
2.8215e-20
0.00143137
-8.5599e-19
7.66207e-20
-7.79628e-19
3.0045e-20
0.00147532
-8.98576e-19
3.17459e-20
-7.55681e-19
1.06233e-20
0.00152021
-6.86743e-19
1.26383e-20
-7.49194e-19
2.10918e-20
0.00156598
-7.32425e-19
2.77875e-20
-7.43411e-19
-1.66705e-20
0.0016126
-1.53675e-20
-7.77495e-19
-1.06221e-19
-9.09292e-19
6.617e-08
-3.1187e-22
-8.0439e-24
2.06305e-07
-1.41739e-21
-3.44758e-22
3.58758e-07
-2.52678e-21
-7.76656e-22
5.24381e-07
-3.66454e-21
-1.17181e-21
7.04079e-07
-4.9415e-21
-1.46081e-21
8.98813e-07
-6.18943e-21
-2.02449e-21
1.10961e-06
-7.39417e-21
-2.52526e-21
1.33754e-06
-9.14546e-21
-2.86284e-21
1.58376e-06
-1.05745e-20
-3.3645e-21
1.84947e-06
-1.21109e-20
-4.18797e-21
2.13595e-06
-1.38584e-20
-4.83101e-21
2.44451e-06
-1.52687e-20
-5.36077e-21
2.77651e-06
-1.70558e-20
-5.97755e-21
3.13334e-06
-1.83864e-20
-6.99528e-21
3.51638e-06
-2.06079e-20
-7.61896e-21
3.92697e-06
-2.1384e-20
-8.72463e-21
4.36639e-06
-2.32426e-20
-9.81196e-21
4.83575e-06
-2.48868e-20
-1.17162e-20
5.33601e-06
-2.76746e-20
-1.17354e-20
5.86787e-06
-2.9287e-20
-1.39381e-20
6.43172e-06
-3.21986e-20
-1.37644e-20
7.02767e-06
-3.45997e-20
-1.58983e-20
7.65548e-06
-3.82425e-20
-1.69793e-20
8.31466e-06
-4.32526e-20
-1.92798e-20
9.00446e-06
-4.64506e-20
-2.08098e-20
9.72401e-06
-5.02004e-20
-2.16815e-20
1.04724e-05
-5.74498e-20
-2.3444e-20
1.12487e-05
-5.91199e-20
-2.73195e-20
1.20522e-05
-6.27727e-20
-2.832e-20
1.28823e-05
-6.47147e-20
-3.10548e-20
1.37386e-05
-6.64679e-20
-3.39036e-20
1.46209e-05
-6.83969e-20
-3.43772e-20
1.55293e-05
-7.5148e-20
-3.29222e-20
1.64641e-05
-7.83951e-20
-3.47502e-20
1.74256e-05
-8.06187e-20
-3.67483e-20
1.84147e-05
-8.55245e-20
-3.6656e-20
1.94319e-05
-8.60814e-20
-3.8431e-20
2.04782e-05
-8.69958e-20
-3.7937e-20
2.15547e-05
-8.97207e-20
-4.05104e-20
2.26624e-05
-8.84836e-20
-4.54801e-20
2.38024e-05
-8.68787e-20
-4.6196e-20
2.49762e-05
-8.95895e-20
-4.8429e-20
2.61849e-05
-9.14813e-20
-4.64742e-20
2.743e-05
-1.02636e-19
-4.26098e-20
2.8713e-05
-1.06483e-19
-4.56e-20
3.00352e-05
-1.08291e-19
-4.74151e-20
3.13982e-05
-1.11773e-19
-4.83473e-20
3.28037e-05
-1.11381e-19
-5.08052e-20
3.42532e-05
-1.10795e-19
-4.9983e-20
3.57485e-05
-1.12952e-19
-5.59974e-20
3.72913e-05
-1.09569e-19
-5.37507e-20
3.88834e-05
-1.12624e-19
-5.37005e-20
4.05266e-05
-1.05528e-19
-4.58146e-20
4.22227e-05
-9.34928e-20
-5.18137e-20
4.39739e-05
-9.09758e-20
-4.37479e-20
4.5782e-05
-8.87355e-20
-4.02029e-20
4.76491e-05
-9.04756e-20
-3.96816e-20
4.95775e-05
-9.88795e-20
-3.83037e-20
5.15691e-05
-1.01568e-19
-3.7774e-20
5.36264e-05
-1.03323e-19
-3.73084e-20
5.57516e-05
-1.10041e-19
-4.08721e-20
5.79471e-05
-1.12384e-19
-4.37922e-20
6.02155e-05
-1.15063e-19
-4.32628e-20
6.25592e-05
-1.07743e-19
-3.34601e-20
6.49808e-05
-9.86799e-20
-3.24106e-20
6.74832e-05
-9.12633e-20
-3.18878e-20
7.0069e-05
-8.32534e-20
-2.38937e-20
7.27412e-05
-8.07159e-20
-1.51141e-20
7.55027e-05
-1.03769e-19
-2.71653e-21
7.83566e-05
-1.06711e-19
-5.57039e-21
8.1306e-05
-1.24255e-19
3.16545e-21
8.43543e-05
-1.17647e-19
8.14271e-21
8.75047e-05
-1.29665e-19
1.69161e-20
9.07608e-05
-1.22249e-19
5.1089e-21
9.41261e-05
-1.20614e-19
8.90782e-21
9.76043e-05
-1.16721e-19
-2.4202e-21
0.000101199
-1.12639e-19
4.39008e-22
0.000104915
-1.15361e-19
-4.97353e-21
0.000108755
-1.35643e-19
1.24332e-20
0.000112725
-1.24429e-19
2.07759e-22
0.000116827
-1.19837e-19
2.44874e-20
0.000121068
-1.14672e-19
2.11544e-20
0.00012545
-1.13428e-19
3.62801e-20
0.00012998
-1.09362e-19
2.13175e-20
0.000134662
-1.05757e-19
3.89866e-20
0.000139501
-6.6407e-20
4.42452e-20
0.000144502
-6.47153e-20
6.57807e-21
0.000149671
-6.14976e-20
2.4128e-20
0.000155013
-5.9187e-20
3.04133e-20
0.000160534
-5.6966e-20
2.32916e-20
0.000166239
-5.2753e-20
2.1717e-20
0.000172136
-5.34439e-20
3.05478e-20
0.000178231
-4.31679e-20
3.2386e-20
0.000184529
-3.61536e-21
4.1835e-20
0.000191037
-2.01141e-20
1.62273e-20
0.000197763
-6.25421e-21
1.59073e-20
0.000204714
-5.39677e-20
4.66624e-20
0.000211897
-6.62539e-20
7.3252e-20
0.000219319
-4.85246e-20
6.26622e-20
0.000226988
-3.26165e-20
5.80495e-20
0.000234913
-2.32478e-20
7.65261e-20
0.000243102
-3.87948e-20
7.60752e-20
0.000251563
-3.50976e-20
8.60215e-20
0.000260306
2.05216e-21
5.64052e-20
0.000269338
2.02579e-20
1.01585e-19
0.000278671
2.02521e-20
1.00994e-19
0.000288313
-1.19943e-20
1.2665e-19
0.000298274
3.08969e-20
9.22692e-20
0.000308565
-8.5224e-21
5.69256e-20
0.000319196
6.84136e-21
7.16202e-20
0.000330178
-6.2294e-22
1.05973e-19
0.000341523
2.687e-20
1.02968e-19
0.000353242
6.31276e-20
8.32705e-20
0.000365346
6.39493e-20
6.67198e-20
0.000377849
3.23426e-20
5.88469e-20
0.000390762
-1.29037e-20
8.72024e-21
0.000404099
-1.73862e-20
5.84846e-20
0.000417873
-4.02318e-20
-1.1573e-20
0.000432098
-1.32163e-20
2.94158e-20
0.000446788
-4.60963e-20
-3.03227e-20
0.000461957
-6.12739e-20
-6.32401e-21
0.00047762
-1.10428e-19
-4.13939e-20
0.000493792
-1.38741e-19
-4.47629e-20
0.00051049
-1.62905e-19
-7.6556e-20
0.000527728
-1.88883e-19
-1.37769e-19
0.000545525
-2.50339e-19
-1.51341e-19
0.000563896
-3.09013e-19
-2.25591e-19
0.000582858
-3.0405e-19
-3.15855e-19
0.00060243
-3.42348e-19
-3.13479e-19
0.00062263
-4.8961e-19
-3.82762e-19
0.000643475
-4.24167e-19
-5.0092e-19
0.000664985
-4.38982e-19
-5.47541e-19
0.000687179
-5.92674e-19
-6.78341e-19
0.000710077
-5.86486e-19
-4.92057e-19
0.000733698
-5.72919e-19
-4.59265e-19
0.000758063
-3.8676e-19
-5.65647e-19
0.000783191
-4.90327e-19
-5.35975e-19
0.000809105
-2.88583e-19
-5.39123e-19
0.000835823
-3.19385e-19
-5.53667e-19
0.000863367
-3.00095e-19
-4.55079e-19
0.000891759
-6.62711e-19
-5.36385e-19
0.000921018
-7.57986e-19
-5.42808e-19
0.000951165
-7.00537e-19
-6.1333e-19
0.000982221
-8.59212e-19
-7.9825e-19
0.0010142
-6.94668e-19
-8.56818e-19
0.00104714
-8.17097e-19
-8.15541e-19
0.00108103
-1.10988e-18
-7.82933e-19
0.00111591
-8.87387e-19
-1.01435e-18
0.00115178
-9.9284e-19
-9.84204e-19
0.00118866
-8.97899e-19
-9.49264e-19
0.00122656
-8.79241e-19
-8.85317e-19
0.00126548
-8.70584e-19
-9.06987e-19
0.00130543
-9.80339e-19
-9.03836e-19
0.0013464
-7.11639e-19
-1.0259e-18
0.00138839
-8.66431e-19
-9.21025e-19
0.00143137
-1.07725e-18
-9.15355e-19
0.00147532
-1.07444e-18
-8.93459e-19
0.00152021
-7.55275e-19
-9.7519e-19
0.00156598
-8.82671e-19
-9.70023e-19
0.0016126
-8.05597e-19
-6.37299e-19
0.0016126
-5.61268e-19
-2.7174e-21
-4.7866e-19
-2.01614e-21
0.00156598
-4.7625e-19
-5.42982e-20
-4.31702e-19
3.77009e-22
0.00152021
-4.00718e-19
-3.61667e-20
-3.62117e-19
-9.85288e-21
0.00147532
-1.35814e-19
-1.13496e-22
-3.61951e-19
-3.40309e-20
0.00143137
-5.31083e-19
-6.45746e-20
-4.93191e-19
-2.84037e-20
0.00138839
-3.70842e-19
-2.07928e-20
-3.33202e-19
-1.93972e-20
0.0013464
-5.51615e-19
-6.85459e-20
-4.09201e-19
-4.45974e-21
0.00130543
-6.50921e-19
-7.35054e-20
-3.867e-19
2.56915e-20
0.00126548
-3.27421e-19
-2.18375e-22
-4.17965e-19
1.39951e-20
0.00122656
-2.7296e-19
-3.05199e-20
-4.24972e-19
1.8941e-20
0.00118866
-1.74645e-19
-2.3618e-21
-2.94958e-19
2.8509e-22
0.00115178
-2.71605e-19
-1.33526e-20
-2.4478e-19
-3.86302e-21
0.00111591
-2.18878e-19
-1.98848e-20
-2.58245e-19
-5.67849e-21
0.00108103
-4.70963e-19
-1.93317e-20
-1.8927e-19
1.91603e-20
0.00104714
-2.50933e-19
-1.34393e-20
-2.53576e-19
1.34063e-20
0.0010142
-2.59842e-19
-1.93855e-20
-2.46725e-19
1.94665e-20
0.000982221
-2.39158e-19
-2.85396e-20
-4.07793e-19
3.05205e-21
0.000951165
-2.8958e-19
-2.72994e-20
-2.51084e-19
5.10754e-21
0.000921018
-3.15602e-19
-1.34191e-20
-3.0221e-19
-8.05061e-22
0.000891759
-3.10027e-19
-4.3692e-21
-3.49872e-19
-3.45769e-21
0.000863367
-2.92862e-19
2.60531e-21
-3.33588e-19
-2.94559e-21
0.000835823
-1.67187e-19
1.87476e-21
-1.52698e-19
7.59541e-21
0.000809105
-1.42134e-19
-8.57263e-21
-1.14822e-19
9.35912e-21
0.000783192
-8.80017e-20
-1.87026e-20
-1.81234e-19
5.22674e-21
0.000758063
-1.66049e-19
-2.57535e-20
-3.27847e-19
9.68923e-22
0.000733698
-2.76365e-19
-3.16853e-20
-1.73222e-19
4.88902e-21
0.000710077
-1.64917e-19
-2.775e-20
-1.99272e-19
-4.70852e-21
0.000687179
-1.21726e-19
-2.66984e-20
-1.4493e-19
-8.43003e-21
0.000664985
-1.88314e-19
-2.44636e-20
-8.50447e-20
-1.82612e-20
0.000643475
-1.15881e-19
-1.67883e-20
-7.16355e-20
-2.44273e-20
0.00062263
-2.02026e-19
-1.3503e-20
-1.26609e-19
-2.02785e-20
0.00060243
-1.04664e-19
-5.28951e-21
-1.54461e-19
-9.92655e-21
0.000582858
-2.23711e-19
-3.67046e-21
-2.05212e-19
-4.92299e-22
0.000563896
-1.24463e-19
3.50936e-21
-1.8632e-19
4.9821e-21
0.000545525
-2.0002e-19
-2.99605e-21
-1.79889e-19
4.40596e-21
0.000527729
-1.70046e-19
-4.47306e-21
-1.60227e-19
1.1152e-21
0.00051049
-1.93602e-19
-5.26278e-21
-1.38644e-19
5.90332e-21
0.000493792
-1.50399e-19
-4.69415e-21
-1.77798e-19
5.98638e-21
0.00047762
-1.22412e-19
-4.90621e-21
-2.12025e-19
5.67293e-21
0.000461957
-1.65267e-19
-4.83781e-21
-1.45296e-19
6.88226e-21
0.000446788
-1.97252e-19
-4.60363e-21
-1.68089e-19
6.84827e-21
0.000432098
-1.729e-19
-3.19362e-21
-1.41565e-19
6.25203e-21
0.000417873
-1.46692e-19
-7.65051e-22
-1.84122e-19
4.56012e-21
0.000404099
-1.48641e-19
-2.77922e-22
-1.4757e-19
3.58257e-21
0.000390762
-1.52753e-19
8.27709e-23
-1.96222e-19
2.10033e-21
0.000377849
-1.64808e-19
7.08423e-22
-1.86285e-19
9.7441e-22
0.000365346
-1.52248e-19
1.66147e-21
-1.05249e-19
1.65746e-21
0.000353242
-1.19589e-19
1.03847e-21
-1.06323e-19
1.50433e-21
0.000341523
-1.57229e-19
5.60432e-23
-1.01239e-19
1.10893e-21
0.000330178
-1.59672e-19
-4.37067e-22
-8.56537e-20
5.20375e-22
0.000319196
-1.21661e-19
-9.26874e-22
-9.7038e-20
-3.50254e-22
0.000308565
-8.17365e-20
-1.4132e-21
-5.96798e-20
-6.47733e-22
0.000298274
-1.04443e-19
-2.44668e-21
-5.96189e-20
-1.43983e-21
0.000288313
-8.51059e-20
-2.63084e-21
-6.43139e-20
-2.40697e-21
0.000278671
-1.05179e-19
-2.79172e-21
-9.1848e-20
-3.24763e-21
0.000269338
-6.02404e-20
-1.57403e-21
-1.45252e-19
-3.86645e-21
0.000260306
-1.17338e-19
-9.56615e-22
-1.33631e-19
-3.65222e-21
0.000251563
-1.25078e-19
-9.4335e-23
-1.79059e-19
-2.94151e-21
0.000243102
-9.96077e-20
-3.26457e-22
-1.58506e-19
-1.42902e-21
0.000234913
-6.96109e-20
-1.31158e-22
-1.51736e-19
-8.3973e-22
0.000226988
-4.9228e-20
-1.67954e-22
-1.41073e-19
-8.73569e-22
0.000219319
-7.46702e-20
-6.3792e-22
-1.1991e-19
-8.52916e-22
0.000211897
-1.09998e-19
-7.40305e-22
-7.66446e-20
-8.01832e-22
0.000204714
-1.27584e-19
-4.65785e-22
-4.81371e-20
-1.07407e-21
0.000197763
-1.11652e-19
-6.17355e-23
-4.81394e-20
-1.47477e-21
0.000191037
-1.20919e-19
1.74038e-22
-4.45799e-20
-1.74781e-21
0.000184529
-1.07846e-19
9.90267e-23
-8.2822e-20
-2.09965e-21
0.000178231
-1.12226e-19
2.30942e-22
-8.46184e-20
-2.26257e-21
0.000172136
-5.35107e-20
2.07798e-22
-1.01449e-19
-2.18238e-21
0.000166239
-6.91734e-20
-4.71683e-23
-9.50613e-20
-1.62963e-21
0.000160534
-6.90805e-20
8.83697e-24
-1.00859e-19
-1.16779e-21
0.000155013
-5.11731e-20
2.64014e-22
-7.88721e-20
-7.62184e-22
0.000149671
-6.13429e-20
4.07309e-22
-8.68731e-20
-5.13175e-22
0.000144502
-5.23277e-20
5.47391e-22
-8.03878e-20
-2.50165e-22
0.000139501
-4.39668e-20
7.20978e-22
-8.50097e-20
-7.33129e-23
0.000134662
-5.41317e-20
8.87649e-22
-9.32984e-20
-4.34194e-24
0.00012998
-5.08532e-20
1.09343e-21
-6.23582e-20
3.90756e-23
0.00012545
-4.74208e-20
1.18705e-21
-6.53113e-20
-3.44386e-23
0.000121068
-1.40245e-20
1.24598e-21
-9.78766e-20
-2.27737e-22
0.000116827
-2.51411e-20
1.21191e-21
-9.68209e-20
-2.86455e-22
0.000112725
-2.32227e-20
1.22659e-21
-8.758e-20
-2.92847e-22
0.000108755
-2.89323e-20
1.16643e-21
-6.55589e-20
-2.2187e-22
0.000104915
-3.26367e-20
1.13604e-21
-6.84699e-20
-2.33457e-22
0.000101199
-2.55279e-20
1.11224e-21
-6.79465e-20
-2.74186e-22
9.76043e-05
-2.35983e-20
1.06615e-21
-6.95435e-20
-3.53495e-22
9.41261e-05
-1.64989e-20
1.01782e-21
-7.21371e-20
-4.71977e-22
9.07608e-05
-3.74522e-20
1.00211e-21
-8.26988e-20
-5.3038e-22
8.75047e-05
-4.57959e-20
1.02885e-21
-6.77885e-20
-4.85003e-22
8.43543e-05
-2.32484e-20
1.04152e-21
-5.30714e-20
-4.4848e-22
8.1306e-05
-2.70683e-20
1.01589e-21
-5.27328e-20
-4.11633e-22
7.83566e-05
-2.23054e-20
9.82169e-22
-5.4152e-20
-3.59589e-22
7.55027e-05
-3.14689e-20
9.57621e-22
-5.11766e-20
-2.94518e-22
7.27412e-05
-2.92502e-20
9.49373e-22
-3.93203e-20
-2.53475e-22
7.0069e-05
-2.19213e-20
9.05019e-22
-2.88623e-20
-2.28706e-22
6.74832e-05
-2.64103e-20
8.55322e-22
-4.01126e-20
-2.03964e-22
6.49808e-05
-2.31588e-20
8.01031e-22
-2.64957e-20
-1.55115e-22
6.25592e-05
-2.67572e-20
7.37511e-22
-2.14264e-20
-1.39757e-22
6.02154e-05
-2.88571e-20
6.87577e-22
-2.59158e-20
-1.42905e-22
5.79471e-05
-2.4311e-20
6.52402e-22
-2.8222e-20
-1.25946e-22
5.57516e-05
-2.96814e-20
6.15144e-22
-2.78885e-20
-9.84065e-23
5.36264e-05
-2.83914e-20
5.78885e-22
-2.74061e-20
-5.97578e-23
5.15691e-05
-2.85181e-20
5.45433e-22
-3.14601e-20
-3.78077e-23
4.95775e-05
-1.52917e-20
5.26745e-22
-2.90617e-20
-1.5925e-23
4.76492e-05
-1.44666e-20
4.9154e-22
-2.60572e-20
1.21019e-24
4.5782e-05
-1.46649e-20
4.63721e-22
-2.12634e-20
8.7918e-24
4.39739e-05
-8.30087e-21
4.35531e-22
-2.59125e-20
8.22041e-24
4.22227e-05
-4.47866e-21
4.18369e-22
-2.22279e-20
4.14323e-24
4.05266e-05
-3.84803e-21
3.88499e-22
-2.76535e-20
5.88918e-24
3.88834e-05
-5.07697e-21
3.63546e-22
-2.83219e-20
1.13478e-23
3.72913e-05
2.94664e-21
3.45765e-22
-2.40533e-20
2.4124e-23
3.57485e-05
4.29696e-21
3.26396e-22
-1.8127e-20
3.30376e-23
3.42532e-05
-2.53146e-21
3.13061e-22
-1.75527e-20
3.93588e-23
3.28037e-05
-4.72379e-21
3.04601e-22
-1.87633e-20
4.48303e-23
3.13982e-05
9.02463e-22
2.97079e-22
-9.52934e-21
4.95592e-23
3.00352e-05
2.89705e-21
2.89455e-22
-1.03768e-20
5.05472e-23
2.8713e-05
-4.6219e-21
2.8089e-22
-2.84705e-21
5.61952e-23
2.743e-05
-6.15592e-21
2.74011e-22
-5.4939e-21
6.08868e-23
2.61849e-05
-3.38617e-21
2.68604e-22
-4.38183e-21
6.79927e-23
2.49762e-05
-4.00527e-21
2.62016e-22
-8.98821e-23
7.49493e-23
2.38024e-05
-4.50463e-21
2.56037e-22
-8.79971e-22
7.93183e-23
2.26624e-05
-2.78339e-21
2.48181e-22
-2.60345e-21
8.40593e-23
2.15547e-05
-2.35789e-21
2.39844e-22
-5.24313e-21
8.82757e-23
2.04782e-05
-1.339e-21
2.32164e-22
-5.51374e-21
9.27962e-23
1.94319e-05
-6.53389e-22
2.24773e-22
-3.5692e-21
9.68155e-23
1.84147e-05
8.05969e-24
2.1788e-22
-1.74724e-21
9.92388e-23
1.74257e-05
1.90096e-22
2.11641e-22
1.98456e-21
1.00246e-22
1.64641e-05
1.16902e-21
2.05699e-22
3.83213e-22
9.999e-23
1.55293e-05
6.26965e-22
1.9975e-22
7.30123e-22
9.99194e-23
1.46209e-05
-1.44033e-21
1.93461e-22
3.21155e-21
9.94134e-23
1.37386e-05
-5.25966e-22
1.87491e-22
2.68612e-21
9.71141e-23
1.28823e-05
-1.07768e-21
1.81018e-22
2.47079e-21
9.46603e-23
1.20522e-05
1.86151e-21
1.74953e-22
1.41701e-21
9.23996e-23
1.12487e-05
-3.21563e-22
1.67984e-22
2.18672e-21
8.95718e-23
1.04724e-05
-4.21508e-22
1.60883e-22
2.10514e-21
8.64912e-23
9.72401e-06
1.0296e-21
1.53997e-22
2.52622e-21
8.31068e-23
9.00446e-06
-6.13247e-22
1.46157e-22
4.07954e-21
7.96395e-23
8.31466e-06
-7.0376e-22
1.38354e-22
2.33764e-21
7.57871e-23
7.65548e-06
-9.04998e-22
1.30158e-22
2.39476e-21
7.19967e-23
7.02767e-06
-1.15288e-21
1.21932e-22
2.01508e-21
6.79739e-23
6.43172e-06
-6.3395e-22
1.13751e-22
1.15399e-21
6.3926e-23
5.86787e-06
-1.14516e-21
1.05708e-22
1.5148e-21
5.99811e-23
5.33602e-06
4.74184e-22
9.79626e-23
6.8517e-22
5.59066e-23
4.83575e-06
5.57349e-22
9.03545e-23
4.27416e-22
5.20468e-23
4.36639e-06
6.29828e-22
8.31732e-23
3.32863e-22
4.83745e-23
3.92697e-06
4.20663e-22
7.6456e-23
3.43102e-22
4.47654e-23
3.51638e-06
-1.45285e-22
7.02114e-23
3.96631e-22
4.13177e-23
3.13334e-06
-3.7316e-22
6.4471e-23
2.4131e-22
3.80668e-23
2.77651e-06
-3.36886e-22
5.9145e-23
9.71122e-24
3.50528e-23
2.44451e-06
1.96043e-23
5.4203e-23
2.37738e-22
3.22503e-23
2.13595e-06
-2.63243e-22
4.96389e-23
2.4956e-22
2.96382e-23
1.84948e-06
-1.72097e-22
4.54564e-23
6.39974e-22
2.7245e-23
1.58376e-06
-4.80849e-22
4.1614e-23
4.45214e-22
2.50215e-23
1.33754e-06
-3.619e-22
3.81124e-23
3.61232e-22
2.29885e-23
1.1096e-06
-7.94099e-23
3.49232e-23
2.54247e-22
2.11045e-23
8.98814e-07
-2.157e-22
3.1986e-23
3.62028e-22
1.93687e-23
7.04078e-07
-1.11848e-22
2.92988e-23
2.11527e-22
1.7764e-23
5.24382e-07
-7.41821e-23
2.68441e-23
1.45885e-22
1.62896e-23
3.58759e-07
-5.14839e-23
2.46006e-23
5.7053e-23
1.49389e-23
2.06305e-07
-2.51719e-23
2.25472e-23
2.31538e-23
1.37014e-23
6.61701e-08
5.33073e-24
2.75489e-24
0.0016126
-8.98928e-19
-6.3573e-19
0.00156598
-5.87399e-19
-6.44259e-19
0.00152021
-3.65922e-19
-5.6476e-19
0.00147532
-3.79747e-19
-3.54327e-19
0.00143137
-3.78505e-19
-4.80746e-19
0.00138839
-5.6206e-19
-3.04344e-19
0.0013464
-5.38684e-19
-2.437e-19
0.00130543
-2.97368e-19
-3.98756e-19
0.00126548
-4.54577e-19
-3.59829e-19
0.00122656
-1.03938e-19
-5.09555e-19
0.00118866
-2.49633e-19
-3.92783e-19
0.00115178
-3.74741e-19
-3.71025e-19
0.00111591
-2.43964e-19
-1.74105e-19
0.00108103
-3.8089e-19
-2.30612e-19
0.00104714
-1.72896e-19
-7.98438e-20
0.0010142
-1.45842e-19
-1.1759e-19
0.000982221
-7.17347e-20
-1.80931e-19
0.000951165
-7.266e-20
-1.84924e-19
0.000921018
-1.21611e-19
-2.04273e-19
0.000891759
-1.1006e-19
-2.40505e-19
0.000863367
-1.97337e-19
-2.02084e-19
0.000835823
-2.29946e-19
-1.68823e-19
0.000809105
-2.42797e-19
-2.26889e-19
0.000783192
-1.95176e-19
-2.18335e-19
0.000758063
-2.71998e-19
-1.68091e-19
0.000733698
-2.21398e-19
-2.18906e-19
0.000710077
-1.42196e-19
-2.33762e-19
0.000687179
-9.03169e-20
-2.88002e-19
0.000664985
-7.63798e-20
-1.88576e-19
0.000643475
-8.97953e-20
-4.12572e-20
0.00062263
-7.59602e-20
-1.11343e-20
0.00060243
-6.60913e-20
-2.91191e-20
0.000582858
-3.12661e-20
-5.19002e-20
0.000563896
-1.97365e-19
-6.89635e-20
0.000545525
-2.08634e-19
-2.08301e-19
0.000527729
-1.90725e-19
-7.46635e-20
0.00051049
-1.8181e-19
-1.0814e-19
0.000493792
-1.5504e-19
-1.66127e-19
0.00047762
-1.3125e-19
-1.95522e-19
0.000461957
-1.65319e-19
-1.46857e-19
0.000446788
-1.57197e-19
-1.82494e-19
0.000432098
-1.08383e-19
-1.85689e-19
0.000417873
-1.3573e-19
-2.03985e-19
0.000404099
-1.43681e-19
-2.02717e-19
0.000390762
-1.57631e-19
-2.48567e-19
0.000377849
-1.39379e-19
-1.70034e-19
0.000365346
-1.82102e-19
-1.24402e-19
0.000353242
-1.77932e-19
-1.30234e-19
0.000341523
-1.98885e-19
-1.43883e-19
0.000330178
-2.08947e-19
-1.68419e-19
0.000319196
-1.78967e-19
-1.73593e-19
0.000308565
-1.91876e-19
-1.90074e-19
0.000298274
-1.9164e-19
-1.9974e-19
0.000288313
-1.83919e-19
-1.80701e-19
0.000278671
-9.56593e-20
-2.07608e-19
0.000269338
-4.7391e-20
-2.12578e-19
0.000260306
-3.87477e-20
-1.45678e-19
0.000251563
-1.19512e-19
-9.95314e-20
0.000243102
-5.9553e-20
-1.08661e-19
0.000234913
-5.43083e-20
-9.53951e-20
0.000226988
-8.26744e-20
-7.36484e-20
0.000219319
-8.23988e-20
-8.42247e-20
0.000211897
-8.44508e-20
-7.7344e-20
0.000204714
-8.22727e-20
-6.30827e-20
0.000197763
-7.30842e-20
-6.93762e-20
0.000191037
-1.13628e-19
-9.30346e-20
0.000184529
-7.12619e-20
-1.16474e-19
0.000178231
-1.04567e-19
-1.00477e-19
0.000172136
-1.02803e-19
-5.9369e-20
0.000166239
-8.5722e-20
-5.68049e-20
0.000160534
-5.13481e-20
-4.9991e-20
0.000155013
-4.40422e-20
-5.31893e-20
0.000149671
-3.61736e-20
-5.77358e-20
0.000144502
-8.19085e-21
-4.40987e-20
0.000139501
2.86737e-22
-5.22198e-20
0.000134662
4.59652e-21
-7.28437e-20
0.00012998
-2.15908e-20
-5.15659e-20
0.00012545
-3.50085e-20
-4.92261e-20
0.000121068
-2.79669e-20
-4.34377e-20
0.000116827
-2.63761e-20
-3.91992e-20
0.000112725
-4.8106e-20
-6.84841e-21
0.000108755
-3.81586e-20
-1.18144e-20
0.000104915
-2.79129e-20
-2.91625e-20
0.000101199
-1.14735e-20
-2.95787e-20
9.76043e-05
9.95829e-22
-3.17176e-20
9.41261e-05
2.36824e-20
-2.90705e-20
9.07608e-05
2.331e-20