/*--------------------------------*- C++ -*----------------------------------*\
| =========                 |                                                 |
| \\      /  F ield         | OpenFOAM: The Open Source CFD Toolbox           |
|  \\    /   O peration     | Version:  2012                                  |
|   \\  /    A nd           | Website:  www.openfoam.com                      |
|    \\/     M anipulation  |                                                 |
\*---------------------------------------------------------------------------*/
FoamFile
{
    version     2.0;
    format      ascii;
    class       volScalarField;
    location    "14000";
    object      p;
}
// * * * * * * * * * * * * * * * * * * * * * * * * * * * * * * * * * * * * * //

dimensions      [0 2 -2 0 0 0 0];


internalField   nonuniform List<scalar> 
320
(
5.68664e-16
6.12844e-15
1.23651e-15
6.11814e-15
1.32134e-15
6.09871e-15
1.26405e-15
6.06713e-15
1.25063e-15
6.02081e-15
1.2724e-15
5.95624e-15
1.3171e-15
5.87076e-15
1.38175e-15
5.76351e-15
1.4662e-15
5.63457e-15
1.56816e-15
5.48442e-15
1.68575e-15
5.31577e-15
1.81628e-15
5.132e-15
1.95675e-15
4.93688e-15
2.10806e-15
4.73307e-15
2.2639e-15
4.52525e-15
2.41565e-15
4.32351e-15
2.56222e-15
4.13509e-15
2.70246e-15
3.96086e-15
2.82945e-15
3.79464e-15
2.93322e-15
3.65582e-15
3.01693e-15
3.54319e-15
3.06473e-15
3.45417e-15
3.12364e-15
3.3547e-15
3.1396e-15
3.26647e-15
3.13497e-15
3.18176e-15
3.09279e-15
3.1123e-15
3.03379e-15
3.03711e-15
2.9612e-15
2.95139e-15
2.85054e-15
2.85386e-15
2.73169e-15
2.75532e-15
2.59587e-15
2.58953e-15
2.54646e-15
2.50031e-15
2.29018e-15
2.28735e-15
2.04604e-15
2.03968e-15
1.87989e-15
1.87022e-15
1.43608e-15
1.57229e-15
1.3009e-15
1.31745e-15
1.04324e-15
1.12778e-15
1.23929e-16
3.47544e-16
-1.67296e-16
-1.63129e-16
4.44884e-15
5.05346e-15
4.44855e-15
5.05361e-15
4.44786e-15
5.05364e-15
4.44676e-15
5.05346e-15
4.44533e-15
5.053e-15
4.44352e-15
5.05202e-15
4.44157e-15
5.04994e-15
4.43848e-15
5.04629e-15
4.43407e-15
5.03921e-15
4.4301e-15
5.02807e-15
4.42406e-15
5.01342e-15
4.41378e-15
4.99182e-15
4.40026e-15
4.96241e-15
4.38582e-15
4.92483e-15
4.3682e-15
4.87946e-15
4.34282e-15
4.8246e-15
4.31559e-15
4.75713e-15
4.28357e-15
4.66963e-15
4.24373e-15
4.5684e-15
4.19292e-15
4.4749e-15
4.13108e-15
4.37922e-15
4.05755e-15
4.25787e-15
3.9749e-15
4.13397e-15
3.88379e-15
4.00022e-15
3.78901e-15
3.82892e-15
3.64787e-15
3.67368e-15
3.52077e-15
3.51778e-15
3.348e-15
3.34693e-15
3.19205e-15
3.1945e-15
3.00819e-15
3.01814e-15
2.82426e-15
2.80215e-15
2.55053e-15
2.54639e-15
2.25214e-15
2.28888e-15
2.10787e-15
2.07555e-15
1.9366e-15
1.79742e-15
1.51526e-15
1.49097e-15
1.30843e-15
1.31455e-15
1.06525e-15
1.14221e-15
3.58287e-16
4.26637e-16
-1.20311e-17
-5.47827e-17
-6.72062e-16
-5.76822e-16
-1.40396e-15
-1.29046e-15
-1.66032e-15
-1.62095e-15
-2.17547e-15
-2.20735e-15
-2.07552e-15
-2.02473e-15
-2.16105e-15
-2.13949e-15
-2.29042e-15
-2.0585e-15
-2.24453e-15
-2.08024e-15
-2.11416e-15
-2.12819e-15
-2.05865e-15
-2.0612e-15
-2.13485e-15
-2.02814e-15
-2.11127e-15
-2.09074e-15
-2.11002e-15
-2.09792e-15
-2.11971e-15
-2.09503e-15
-2.11259e-15
-2.11193e-15
-2.07924e-15
-2.09758e-15
-2.08556e-15
-2.11868e-15
-2.0959e-15
-2.12143e-15
-2.10038e-15
-2.1179e-15
-2.10153e-15
-2.11742e-15
-2.11054e-15
-2.10945e-15
-2.11011e-15
-2.10718e-15
-2.11815e-15
-2.10929e-15
-2.12621e-15
-2.10707e-15
-2.12463e-15
-2.10079e-15
-2.12423e-15
-2.10028e-15
-2.12187e-15
-2.10321e-15
-2.12025e-15
-2.10534e-15
-2.1191e-15
-2.10694e-15
-2.11828e-15
-2.10718e-15
-2.11769e-15
-2.10725e-15
-2.11802e-15
-2.10795e-15
-2.11805e-15
-2.10848e-15
-2.11815e-15
-2.1086e-15
-2.11828e-15
-2.10853e-15
-2.11825e-15
-2.10849e-15
-2.11819e-15
-2.10848e-15
-2.11815e-15
-2.10848e-15
-2.11812e-15
-2.10846e-15
-2.1181e-15
-2.10847e-15
-4.38156e-16
-4.44219e-16
-1.45314e-15
-1.4311e-15
-1.64425e-15
-1.60923e-15
-1.97825e-15
-2.01392e-15
-2.08301e-15
-2.08909e-15
-2.16766e-15
-2.10294e-15
-2.09537e-15
-2.04564e-15
-2.07448e-15
-2.0187e-15
-2.0026e-15
-1.97307e-15
-2.02177e-15
-2.01977e-15
-2.02007e-15
-2.03541e-15
-2.09668e-15
-2.06645e-15
-2.09588e-15
-2.10684e-15
-2.08499e-15
-2.11334e-15
-2.0894e-15
-2.10132e-15
-2.08508e-15
-2.0928e-15
-2.09398e-15
-2.10071e-15
-2.1015e-15
-2.1074e-15
-2.10781e-15
-2.11331e-15
-2.10265e-15
-2.10845e-15
-2.10711e-15
-2.09442e-15
-2.10768e-15
-2.09767e-15
-2.1088e-15
-2.10779e-15
-2.1059e-15
-2.1095e-15
-2.10947e-15
-2.11126e-15
-2.11239e-15
-2.11309e-15
-2.11068e-15
-2.11354e-15
-2.11273e-15
-2.11286e-15
-2.11448e-15
-2.11232e-15
-2.11505e-15
-2.11283e-15
-2.11426e-15
-2.11328e-15
-2.11394e-15
-2.11294e-15
-2.11366e-15
-2.11331e-15
-2.11355e-15
-2.11364e-15
-2.11356e-15
-2.11356e-15
-2.11344e-15
-2.11349e-15
-2.11351e-15
-2.11349e-15
-2.11354e-15
-2.1135e-15
-2.1135e-15
-2.11351e-15
-2.11351e-15
-2.11353e-15
)
;

boundaryField
{
    walls
    {
        type            zeroGradient;
    }
    inlet
    {
        type            cyclic;
    }
    outlet
    {
        type            cyclic;
    }
    sides
    {
        type            empty;
    }
}


// ************************************************************************* //
