/*--------------------------------*- C++ -*----------------------------------*\
| =========                 |                                                 |
| \\      /  F ield         | OpenFOAM: The Open Source CFD Toolbox           |
|  \\    /   O peration     | Version:  2106                                  |
|   \\  /    A nd           | Website:  www.openfoam.com                      |
|    \\/     M anipulation  |                                                 |
\*---------------------------------------------------------------------------*/
FoamFile
{
    version     2.0;
    format      ascii;
    arch        "LSB;label=32;scalar=64";
    class       volSymmTensorField;
    location    "11000";
    object      turbulenceProperties:R;
}
// * * * * * * * * * * * * * * * * * * * * * * * * * * * * * * * * * * * * * //

dimensions      [0 2 -2 0 0 0 0];

internalField   nonuniform List<symmTensor> 
2560
(
(2.68967e-07 -2.39698e-11 -3.46994e-14 2.68967e-07 1.14577e-25 2.68967e-07)
(2.68967e-07 -2.39698e-11 -3.46994e-14 2.68967e-07 1.65262e-30 2.68967e-07)
(4.8314e-08 -2.47448e-11 -1.0799e-13 4.8314e-08 1.11967e-26 4.8314e-08)
(4.8314e-08 -2.47448e-11 -1.0799e-13 4.8314e-08 4.6211e-30 4.8314e-08)
(7.54372e-08 -1.13964e-10 -6.84083e-13 7.54372e-08 3.02031e-26 7.54372e-08)
(7.54372e-08 -1.13964e-10 -6.84083e-13 7.54372e-08 3.75731e-29 7.54372e-08)
(2.39684e-07 -7.67773e-10 -4.67566e-12 2.39684e-07 1.6481e-25 2.39684e-07)
(2.39684e-07 -7.67773e-10 -4.67566e-12 2.39684e-07 3.77098e-28 2.39684e-07)
(6.17167e-07 -3.48746e-09 -2.15471e-11 6.17167e-07 1.04824e-24 6.17167e-07)
(6.17167e-07 -3.48746e-09 -2.15471e-11 6.17167e-07 2.19746e-27 6.17167e-07)
(1.31684e-06 -1.17145e-08 -7.34296e-11 1.31684e-06 1.89031e-24 1.31684e-06)
(1.31684e-06 -1.17145e-08 -7.34296e-11 1.31684e-06 9.01463e-27 1.31684e-06)
(2.46835e-06 -3.20284e-08 -2.03682e-10 2.46835e-06 5.17616e-24 2.46835e-06)
(2.46835e-06 -3.20284e-08 -2.03682e-10 2.46835e-06 2.84908e-26 2.46835e-06)
(4.22044e-06 -7.56512e-08 -4.8809e-10 4.22044e-06 1.25665e-23 4.22044e-06)
(4.22044e-06 -7.56512e-08 -4.8809e-10 4.22044e-06 7.55487e-26 4.22044e-06)
(6.74111e-06 -1.60285e-07 -1.04916e-09 6.74111e-06 2.69206e-23 6.74111e-06)
(6.74111e-06 -1.60285e-07 -1.04916e-09 6.74111e-06 1.78929e-25 6.74111e-06)
(1.02181e-05 -3.1231e-07 -2.07394e-09 1.02181e-05 5.31193e-23 1.02181e-05)
(1.02181e-05 -3.1231e-07 -2.07394e-09 1.02181e-05 3.8934e-25 1.02181e-05)
(1.48597e-05 -5.69347e-07 -3.83572e-09 1.48597e-05 9.81167e-23 1.48597e-05)
(1.48597e-05 -5.69347e-07 -3.83572e-09 1.48597e-05 8.07725e-25 1.48597e-05)
(2.08947e-05 -9.83197e-07 -6.71992e-09 2.08947e-05 1.71531e-22 2.08947e-05)
(2.08947e-05 -9.83197e-07 -6.71992e-09 2.08947e-05 1.55185e-24 2.08947e-05)
(2.85736e-05 -1.62309e-06 -1.12542e-08 2.85736e-05 2.86118e-22 2.85736e-05)
(2.85736e-05 -1.62309e-06 -1.12542e-08 2.85736e-05 2.84667e-24 2.85736e-05)
(3.8168e-05 -2.57922e-06 -1.81425e-08 3.8168e-05 4.58466e-22 3.8168e-05)
(3.8168e-05 -2.57922e-06 -1.81425e-08 3.8168e-05 4.99047e-24 3.8168e-05)
(4.99703e-05 -3.96631e-06 -2.83024e-08 4.99703e-05 7.09431e-22 4.99703e-05)
(4.99703e-05 -3.96631e-06 -2.83024e-08 4.99703e-05 8.56948e-24 4.99703e-05)
(6.42928e-05 -5.92716e-06 -4.2904e-08 6.42928e-05 1.06415e-21 6.42928e-05)
(6.42928e-05 -5.92716e-06 -4.2904e-08 6.42928e-05 1.37201e-23 6.42928e-05)
(8.14657e-05 -8.63577e-06 -6.34088e-08 8.14657e-05 1.55228e-21 8.14657e-05)
(8.14657e-05 -8.63577e-06 -6.34088e-08 8.14657e-05 2.11951e-23 8.14657e-05)
(0.000101834 -1.22996e-05 -9.16047e-08 0.000101834 2.20464e-21 0.000101834)
(0.000101834 -1.22996e-05 -9.16047e-08 0.000101834 3.44963e-23 0.000101834)
(0.000125754 -1.71606e-05 -1.29633e-07 0.000125754 3.05298e-21 0.000125754)
(0.000125754 -1.71606e-05 -1.29633e-07 0.000125754 5.169e-23 0.000125754)
(0.000153587 -2.34945e-05 -1.80004e-07 0.000153587 4.12966e-21 0.000153587)
(0.000153587 -2.34945e-05 -1.80004e-07 0.000153587 7.29963e-23 0.000153587)
(0.000185692 -3.16076e-05 -2.45589e-07 0.000185692 5.45347e-21 0.000185692)
(0.000185692 -3.16076e-05 -2.45589e-07 0.000185692 1.06385e-22 0.000185692)
(0.000222417 -4.18307e-05 -3.29597e-07 0.000222417 7.02893e-21 0.000222417)
(0.000222417 -4.18307e-05 -3.29597e-07 0.000222417 1.5249e-22 0.000222417)
(0.000264091 -5.45096e-05 -4.35513e-07 0.000264091 8.84487e-21 0.000264091)
(0.000264091 -5.45096e-05 -4.35513e-07 0.000264091 2.16895e-22 0.000264091)
(0.000311007 -6.9993e-05 -5.67006e-07 0.000311007 1.08618e-20 0.000311007)
(0.000311007 -6.9993e-05 -5.67006e-07 0.000311007 3.06744e-22 0.000311007)
(0.000363414 -8.86163e-05 -7.2781e-07 0.000363414 1.30176e-20 0.000363414)
(0.000363414 -8.86163e-05 -7.2781e-07 0.000363414 4.11919e-22 0.000363414)
(0.000421502 -0.000110684 -9.2157e-07 0.000421502 1.51679e-20 0.000421502)
(0.000421502 -0.000110684 -9.2157e-07 0.000421502 5.50956e-22 0.000421502)
(0.00048539 -0.00013645 -1.15167e-06 0.00048539 1.71615e-20 0.00048539)
(0.00048539 -0.00013645 -1.15167e-06 0.00048539 7.53341e-22 0.00048539)
(0.000555115 -0.000166102 -1.42106e-06 0.000555115 1.8845e-20 0.000555115)
(0.000555115 -0.000166102 -1.42106e-06 0.000555115 9.77907e-22 0.000555115)
(0.000630623 -0.000199742 -1.73209e-06 0.000630623 1.99877e-20 0.000630623)
(0.000630623 -0.000199742 -1.73209e-06 0.000630623 1.26096e-21 0.000630623)
(0.000711766 -0.000237376 -2.08635e-06 0.000711766 2.03585e-20 0.000711766)
(0.000711766 -0.000237376 -2.08635e-06 0.000711766 1.6278e-21 0.000711766)
(0.000798296 -0.000278909 -2.4846e-06 0.000798296 1.9722e-20 0.000798296)
(0.000798296 -0.000278909 -2.4846e-06 0.000798296 2.02806e-21 0.000798296)
(0.000889876 -0.000324147 -2.92669e-06 0.000889876 1.79332e-20 0.000889876)
(0.000889876 -0.000324147 -2.92669e-06 0.000889876 2.48796e-21 0.000889876)
(0.00098608 -0.000372798 -3.4116e-06 0.00098608 1.48292e-20 0.00098608)
(0.00098608 -0.000372798 -3.4116e-06 0.00098608 3.05785e-21 0.00098608)
(0.00108641 -0.000424495 -3.9375e-06 0.00108641 1.03376e-20 0.00108641)
(0.00108641 -0.000424495 -3.9375e-06 0.00108641 3.78852e-21 0.00108641)
(0.00119032 -0.000478805 -4.50183e-06 0.00119032 1.04377e-21 0.00119032)
(0.00119032 -0.000478805 -4.50183e-06 0.00119032 4.57477e-21 0.00119032)
(0.0012972 -0.000535252 -5.10148e-06 0.0012972 1.07636e-21 0.0012972)
(0.0012972 -0.000535252 -5.10148e-06 0.0012972 5.57174e-21 0.0012972)
(0.00140643 -0.00059334 -5.73295e-06 0.00140643 -1.08179e-20 0.00140643)
(0.00140643 -0.00059334 -5.73295e-06 0.00140643 6.73979e-21 0.00140643)
(0.00151739 -0.000652572 -6.3925e-06 0.00151739 -2.02484e-20 0.00151739)
(0.00151739 -0.000652572 -6.3925e-06 0.00151739 7.93336e-21 0.00151739)
(0.00162947 -0.000712464 -7.07631e-06 0.00162947 -3.04115e-20 0.00162947)
(0.00162947 -0.000712464 -7.07631e-06 0.00162947 9.21769e-21 0.00162947)
(0.00174207 -0.000772566 -7.78062e-06 0.00174207 -4.10611e-20 0.00174207)
(0.00174207 -0.000772566 -7.78062e-06 0.00174207 1.04676e-20 0.00174207)
(0.00185463 -0.000832466 -8.50183e-06 0.00185463 -5.2165e-20 0.00185463)
(0.00185463 -0.000832466 -8.50183e-06 0.00185463 1.17988e-20 0.00185463)
(0.00196665 -0.000891799 -9.23661e-06 0.00196665 -6.34309e-20 0.00196665)
(0.00196665 -0.000891799 -9.23661e-06 0.00196665 1.341e-20 0.00196665)
(0.00207767 -0.00095025 -9.98192e-06 0.00207767 -7.45414e-20 0.00207767)
(0.00207767 -0.00095025 -9.98192e-06 0.00207767 1.54985e-20 0.00207767)
(0.00218727 -0.00100756 -1.07351e-05 0.00218727 -8.51043e-20 0.00218727)
(0.00218727 -0.00100756 -1.07351e-05 0.00218727 1.77279e-20 0.00218727)
(0.00229511 -0.00106351 -1.14937e-05 0.00229511 -9.53351e-20 0.00229511)
(0.00229511 -0.00106351 -1.14937e-05 0.00229511 2.01184e-20 0.00229511)
(0.00240088 -0.00111793 -1.22558e-05 0.00240088 -1.05018e-19 0.00240088)
(0.00240088 -0.00111793 -1.22558e-05 0.00240088 2.26251e-20 0.00240088)
(0.00250433 -0.0011707 -1.30198e-05 0.00250433 -1.13713e-19 0.00250433)
(0.00250433 -0.0011707 -1.30198e-05 0.00250433 2.55721e-20 0.00250433)
(0.00260528 -0.00122172 -1.37842e-05 0.00260528 -1.21474e-19 0.00260528)
(0.00260528 -0.00122172 -1.37842e-05 0.00260528 2.87861e-20 0.00260528)
(0.00270355 -0.00127095 -1.45479e-05 0.00270355 -1.2851e-19 0.00270355)
(0.00270355 -0.00127095 -1.45479e-05 0.00270355 3.19325e-20 0.00270355)
(0.00279903 -0.00131834 -1.53102e-05 0.00279903 -1.34293e-19 0.00279903)
(0.00279903 -0.00131834 -1.53102e-05 0.00279903 3.59261e-20 0.00279903)
(0.00289165 -0.00136389 -1.60705e-05 0.00289165 -1.38456e-19 0.00289165)
(0.00289165 -0.00136389 -1.60705e-05 0.00289165 3.97127e-20 0.00289165)
(0.00298135 -0.00140762 -1.68282e-05 0.00298135 -1.41544e-19 0.00298135)
(0.00298135 -0.00140762 -1.68282e-05 0.00298135 4.34577e-20 0.00298135)
(0.00306811 -0.00144954 -1.75832e-05 0.00306811 -1.44743e-19 0.00306811)
(0.00306811 -0.00144954 -1.75832e-05 0.00306811 4.89606e-20 0.00306811)
(0.00315194 -0.0014897 -1.83352e-05 0.00315194 -1.47693e-19 0.00315194)
(0.00315194 -0.0014897 -1.83352e-05 0.00315194 5.41052e-20 0.00315194)
(0.00323284 -0.00152814 -1.90843e-05 0.00323284 -1.48689e-19 0.00323284)
(0.00323284 -0.00152814 -1.90843e-05 0.00323284 5.83253e-20 0.00323284)
(0.00331085 -0.0015649 -1.98306e-05 0.00331085 -1.48396e-19 0.00331085)
(0.00331085 -0.0015649 -1.98306e-05 0.00331085 6.4155e-20 0.00331085)
(0.00338602 -0.00160006 -2.05741e-05 0.00338602 -1.4782e-19 0.00338602)
(0.00338602 -0.00160006 -2.05741e-05 0.00338602 7.13531e-20 0.00338602)
(0.00345841 -0.00163366 -2.13152e-05 0.00345841 -1.47183e-19 0.00345841)
(0.00345841 -0.00163366 -2.13152e-05 0.00345841 7.65765e-20 0.00345841)
(0.00352809 -0.00166578 -2.2054e-05 0.00352809 -1.44721e-19 0.00352809)
(0.00352809 -0.00166578 -2.2054e-05 0.00352809 7.75892e-20 0.00352809)
(0.00359513 -0.00169646 -2.27908e-05 0.00359513 -1.39253e-19 0.00359513)
(0.00359513 -0.00169646 -2.27908e-05 0.00359513 8.16976e-20 0.00359513)
(0.0036596 -0.00172578 -2.3526e-05 0.0036596 -1.33864e-19 0.0036596)
(0.0036596 -0.00172578 -2.3526e-05 0.0036596 9.34012e-20 0.0036596)
(0.00372158 -0.0017538 -2.426e-05 0.00372158 -1.27967e-19 0.00372158)
(0.00372158 -0.0017538 -2.426e-05 0.00372158 1.03459e-19 0.00372158)
(0.00378116 -0.00178056 -2.49929e-05 0.00378116 -1.20136e-19 0.00378116)
(0.00378116 -0.00178056 -2.49929e-05 0.00378116 1.058e-19 0.00378116)
(0.00383841 -0.00180615 -2.57253e-05 0.00383841 -1.13701e-19 0.00383841)
(0.00383841 -0.00180615 -2.57253e-05 0.00383841 1.10756e-19 0.00383841)
(0.00389343 -0.00183059 -2.64575e-05 0.00389343 -1.06882e-19 0.00389343)
(0.00389343 -0.00183059 -2.64575e-05 0.00389343 1.26504e-19 0.00389343)
(0.00394628 -0.00185397 -2.71899e-05 0.00394628 -9.85021e-20 0.00394628)
(0.00394628 -0.00185397 -2.71899e-05 0.00394628 1.3949e-19 0.00394628)
(0.00399706 -0.00187631 -2.79228e-05 0.00399706 -8.66191e-20 0.00399706)
(0.00399706 -0.00187631 -2.79228e-05 0.00399706 1.4495e-19 0.00399706)
(0.00404585 -0.00189768 -2.86566e-05 0.00404585 -7.74852e-20 0.00404585)
(0.00404585 -0.00189768 -2.86566e-05 0.00404585 1.50457e-19 0.00404585)
(0.00409271 -0.00191813 -2.93917e-05 0.00409271 -6.92503e-20 0.00409271)
(0.00409271 -0.00191813 -2.93917e-05 0.00409271 1.56553e-19 0.00409271)
(0.00413773 -0.00193769 -3.01284e-05 0.00413773 -5.73848e-20 0.00413773)
(0.00413773 -0.00193769 -3.01284e-05 0.00413773 1.69619e-19 0.00413773)
(0.00418098 -0.0019564 -3.0867e-05 0.00418098 -4.5609e-20 0.00418098)
(0.00418098 -0.0019564 -3.0867e-05 0.00418098 1.91055e-19 0.00418098)
(0.00422252 -0.00197432 -3.1608e-05 0.00422252 -3.85967e-20 0.00422252)
(0.00422252 -0.00197432 -3.1608e-05 0.00422252 2.09063e-19 0.00422252)
(0.00426244 -0.00199148 -3.23516e-05 0.00426244 -3.10212e-20 0.00426244)
(0.00426244 -0.00199148 -3.23516e-05 0.00426244 2.17254e-19 0.00426244)
(0.00430078 -0.00200791 -3.30983e-05 0.00430078 -2.03104e-20 0.00430078)
(0.00430078 -0.00200791 -3.30983e-05 0.00430078 2.24026e-19 0.00430078)
(0.00433762 -0.00202365 -3.38482e-05 0.00433762 -1.17656e-20 0.00433762)
(0.00433762 -0.00202365 -3.38482e-05 0.00433762 2.44989e-19 0.00433762)
(0.00437302 -0.00203873 -3.46017e-05 0.00437302 -2.10455e-21 0.00437302)
(0.00437302 -0.00203873 -3.46017e-05 0.00437302 2.68667e-19 0.00437302)
(0.00440704 -0.00205318 -3.53592e-05 0.00440704 4.01941e-21 0.00440704)
(0.00440704 -0.00205318 -3.53592e-05 0.00440704 2.8013e-19 0.00440704)
(0.00443972 -0.00206704 -3.61208e-05 0.00443972 1.60338e-20 0.00443972)
(0.00443972 -0.00206704 -3.61208e-05 0.00443972 2.8204e-19 0.00443972)
(0.00447112 -0.00208032 -3.6887e-05 0.00447112 2.72181e-20 0.00447112)
(0.00447112 -0.00208032 -3.6887e-05 0.00447112 2.88948e-19 0.00447112)
(0.0045013 -0.00209306 -3.7658e-05 0.0045013 3.38777e-20 0.0045013)
(0.0045013 -0.00209306 -3.7658e-05 0.0045013 3.23061e-19 0.0045013)
(0.0045303 -0.00210528 -3.8434e-05 0.0045303 4.95283e-20 0.0045303)
(0.0045303 -0.00210528 -3.8434e-05 0.0045303 3.69503e-19 0.0045303)
(0.00455817 -0.002117 -3.92153e-05 0.00455817 5.36426e-20 0.00455817)
(0.00455817 -0.002117 -3.92153e-05 0.00455817 3.80676e-19 0.00455817)
(0.00458495 -0.00212825 -4.00022e-05 0.00458495 5.68127e-20 0.00458495)
(0.00458495 -0.00212825 -4.00022e-05 0.00458495 3.52778e-19 0.00458495)
(0.00461069 -0.00213903 -4.0795e-05 0.00461069 8.04766e-20 0.00461069)
(0.00461069 -0.00213903 -4.0795e-05 0.00461069 3.5619e-19 0.00461069)
(0.00463542 -0.00214939 -4.15939e-05 0.00463542 1.00496e-19 0.00463542)
(0.00463542 -0.00214939 -4.15939e-05 0.00463542 4.11627e-19 0.00463542)
(0.00465918 -0.00215932 -4.23991e-05 0.00465918 1.12138e-19 0.00465918)
(0.00465918 -0.00215932 -4.23991e-05 0.00465918 4.30112e-19 0.00465918)
(0.004682 -0.00216886 -4.32108e-05 0.004682 1.29467e-19 0.004682)
(0.004682 -0.00216886 -4.32108e-05 0.004682 4.76956e-19 0.004682)
(0.00470394 -0.00217801 -4.40294e-05 0.00470394 1.57062e-19 0.00470394)
(0.00470394 -0.00217801 -4.40294e-05 0.00470394 4.60323e-19 0.00470394)
(0.004725 -0.00218679 -4.4855e-05 0.004725 1.84443e-19 0.004725)
(0.004725 -0.00218679 -4.4855e-05 0.004725 4.31882e-19 0.004725)
(0.00474524 -0.00219522 -4.56878e-05 0.00474524 1.98361e-19 0.00474524)
(0.00474524 -0.00219522 -4.56878e-05 0.00474524 4.97337e-19 0.00474524)
(0.00476467 -0.00220331 -4.65281e-05 0.00476467 2.17314e-19 0.00476467)
(0.00476467 -0.00220331 -4.65281e-05 0.00476467 5.3083e-19 0.00476467)
(0.00478333 -0.00221107 -4.73761e-05 0.00478333 2.33924e-19 0.00478333)
(0.00478333 -0.00221107 -4.73761e-05 0.00478333 5.37721e-19 0.00478333)
(0.00480124 -0.00221851 -4.8232e-05 0.00480124 2.41889e-19 0.00480124)
(0.00480124 -0.00221851 -4.8232e-05 0.00480124 5.96596e-19 0.00480124)
(0.00481842 -0.00222566 -4.90959e-05 0.00481842 2.63796e-19 0.00481842)
(0.00481842 -0.00222566 -4.90959e-05 0.00481842 6.28916e-19 0.00481842)
(0.00483491 -0.00223251 -4.99682e-05 0.00483491 2.73107e-19 0.00483491)
(0.00483491 -0.00223251 -4.99682e-05 0.00483491 6.47581e-19 0.00483491)
(0.00485073 -0.00223908 -5.0849e-05 0.00485073 2.89614e-19 0.00485073)
(0.00485073 -0.00223908 -5.0849e-05 0.00485073 6.06271e-19 0.00485073)
(0.0048659 -0.00224537 -5.17385e-05 0.0048659 3.34398e-19 0.0048659)
(0.0048659 -0.00224537 -5.17385e-05 0.0048659 6.24776e-19 0.0048659)
(0.00488043 -0.00225141 -5.26368e-05 0.00488043 3.39917e-19 0.00488043)
(0.00488043 -0.00225141 -5.26368e-05 0.00488043 7.61421e-19 0.00488043)
(0.00489436 -0.00225719 -5.35443e-05 0.00489436 3.39473e-19 0.00489436)
(0.00489436 -0.00225719 -5.35443e-05 0.00489436 8.54389e-19 0.00489436)
(0.00490769 -0.00226272 -5.4461e-05 0.00490769 3.77093e-19 0.00490769)
(0.00490769 -0.00226272 -5.4461e-05 0.00490769 8.57675e-19 0.00490769)
(0.00492045 -0.00226802 -5.53872e-05 0.00492045 4.14816e-19 0.00492045)
(0.00492045 -0.00226802 -5.53872e-05 0.00492045 8.71886e-19 0.00492045)
(0.00493266 -0.00227309 -5.6323e-05 0.00493266 4.54499e-19 0.00493266)
(0.00493266 -0.00227309 -5.6323e-05 0.00493266 8.88275e-19 0.00493266)
(0.00494433 -0.00227794 -5.72686e-05 0.00494433 4.97152e-19 0.00494433)
(0.00494433 -0.00227794 -5.72686e-05 0.00494433 8.45054e-19 0.00494433)
(0.00495548 -0.00228257 -5.82242e-05 0.00495548 5.21536e-19 0.00495548)
(0.00495548 -0.00228257 -5.82242e-05 0.00495548 8.63705e-19 0.00495548)
(0.00496612 -0.00228699 -5.919e-05 0.00496612 5.42894e-19 0.00496612)
(0.00496612 -0.00228699 -5.919e-05 0.00496612 1.00358e-18 0.00496612)
(0.00497626 -0.00229121 -6.01662e-05 0.00497626 5.65203e-19 0.00497626)
(0.00497626 -0.00229121 -6.01662e-05 0.00497626 1.04184e-18 0.00497626)
(0.00498593 -0.00229523 -6.11529e-05 0.00498593 6.07288e-19 0.00498593)
(0.00498593 -0.00229523 -6.11529e-05 0.00498593 1.08511e-18 0.00498593)
(0.00499514 -0.00229907 -6.21502e-05 0.00499514 6.42637e-19 0.00499514)
(0.00499514 -0.00229907 -6.21502e-05 0.00499514 1.16164e-18 0.00499514)
(0.00500389 -0.00230271 -6.31585e-05 0.00500389 6.50882e-19 0.00500389)
(0.00500389 -0.00230271 -6.31585e-05 0.00500389 1.18373e-18 0.00500389)
(0.0050122 -0.00230617 -6.41778e-05 0.0050122 6.97209e-19 0.0050122)
(0.0050122 -0.00230617 -6.41778e-05 0.0050122 1.15128e-18 0.0050122)
(0.00502008 -0.00230946 -6.52083e-05 0.00502008 7.47529e-19 0.00502008)
(0.00502008 -0.00230946 -6.52083e-05 0.00502008 1.27417e-18 0.00502008)
(0.00502754 -0.00231257 -6.62501e-05 0.00502754 7.65954e-19 0.00502754)
(0.00502754 -0.00231257 -6.62501e-05 0.00502754 1.44514e-18 0.00502754)
(0.0050346 -0.00231551 -6.73035e-05 0.0050346 7.78298e-19 0.0050346)
(0.0050346 -0.00231551 -6.73035e-05 0.0050346 1.40365e-18 0.0050346)
(0.00504125 -0.0023183 -6.83686e-05 0.00504125 8.13016e-19 0.00504125)
(0.00504125 -0.0023183 -6.83686e-05 0.00504125 1.34655e-18 0.00504125)
(0.00504752 -0.00232092 -6.94456e-05 0.00504752 8.56467e-19 0.00504752)
(0.00504752 -0.00232092 -6.94456e-05 0.00504752 1.42861e-18 0.00504752)
(0.00505341 -0.00232338 -7.05346e-05 0.00505341 8.93875e-19 0.00505341)
(0.00505341 -0.00232338 -7.05346e-05 0.00505341 1.49555e-18 0.00505341)
(0.00505893 -0.00232569 -7.16357e-05 0.00505893 8.78207e-19 0.00505893)
(0.00505893 -0.00232569 -7.16357e-05 0.00505893 1.55373e-18 0.00505893)
(0.00506409 -0.00232785 -7.27492e-05 0.00506409 8.90674e-19 0.00506409)
(0.00506409 -0.00232785 -7.27492e-05 0.00506409 1.56773e-18 0.00506409)
(0.0050689 -0.00232987 -7.38753e-05 0.0050689 9.53392e-19 0.0050689)
(0.0050689 -0.00232987 -7.38753e-05 0.0050689 1.65945e-18 0.0050689)
(0.00507335 -0.00233174 -7.50139e-05 0.00507335 9.93366e-19 0.00507335)
(0.00507335 -0.00233174 -7.50139e-05 0.00507335 1.78314e-18 0.00507335)
(0.00507747 -0.00233347 -7.61654e-05 0.00507747 1.00456e-18 0.00507747)
(0.00507747 -0.00233347 -7.61654e-05 0.00507747 1.8178e-18 0.00507747)
(0.00508126 -0.00233507 -7.73299e-05 0.00508126 9.83515e-19 0.00508126)
(0.00508126 -0.00233507 -7.73299e-05 0.00508126 1.82519e-18 0.00508126)
(0.00508472 -0.00233653 -7.85075e-05 0.00508472 1.01636e-18 0.00508472)
(0.00508472 -0.00233653 -7.85075e-05 0.00508472 1.89598e-18 0.00508472)
(0.00508787 -0.00233785 -7.96984e-05 0.00508787 1.09175e-18 0.00508787)
(0.00508787 -0.00233785 -7.96984e-05 0.00508787 1.99485e-18 0.00508787)
(0.0050907 -0.00233905 -8.09027e-05 0.0050907 1.15532e-18 0.0050907)
(0.0050907 -0.00233905 -8.09027e-05 0.0050907 1.84573e-18 0.0050907)
(0.00509322 -0.00234012 -8.21206e-05 0.00509322 1.18989e-18 0.00509322)
(0.00509322 -0.00234012 -8.21206e-05 0.00509322 1.9317e-18 0.00509322)
(0.00509544 -0.00234106 -8.33522e-05 0.00509544 1.21632e-18 0.00509544)
(0.00509544 -0.00234106 -8.33522e-05 0.00509544 2.16995e-18 0.00509544)
(0.00509737 -0.00234187 -8.45978e-05 0.00509737 1.27498e-18 0.00509737)
(0.00509737 -0.00234187 -8.45978e-05 0.00509737 2.3433e-18 0.00509737)
(0.00509901 -0.00234257 -8.58573e-05 0.00509901 1.31837e-18 0.00509901)
(0.00509901 -0.00234257 -8.58573e-05 0.00509901 2.3813e-18 0.00509901)
(0.00510036 -0.00234314 -8.71311e-05 0.00510036 1.38907e-18 0.00510036)
(0.00510036 -0.00234314 -8.71311e-05 0.00510036 2.28986e-18 0.00510036)
(0.00510143 -0.0023436 -8.84192e-05 0.00510143 1.37789e-18 0.00510143)
(0.00510143 -0.0023436 -8.84192e-05 0.00510143 2.50234e-18 0.00510143)
(0.00510222 -0.00234394 -8.97217e-05 0.00510222 1.42176e-18 0.00510222)
(0.00510222 -0.00234394 -8.97217e-05 0.00510222 2.6194e-18 0.00510222)
(0.00510274 -0.00234416 -9.10389e-05 0.00510274 1.50656e-18 0.00510274)
(0.00510274 -0.00234416 -9.10389e-05 0.00510274 2.83946e-18 0.00510274)
(0.00510299 -0.00234427 -9.23709e-05 0.00510299 1.54631e-18 0.00510299)
(0.00510299 -0.00234427 -9.23709e-05 0.00510299 2.90749e-18 0.00510299)
(0.00510298 -0.00234427 -9.37177e-05 0.00510298 1.62027e-18 0.00510298)
(0.00510298 -0.00234427 -9.37177e-05 0.00510298 2.95786e-18 0.00510298)
(0.00510271 -0.00234416 -9.50797e-05 0.00510271 1.59261e-18 0.00510271)
(0.00510271 -0.00234416 -9.50797e-05 0.00510271 3.05315e-18 0.00510271)
(0.00510218 -0.00234394 -9.64568e-05 0.00510218 1.60807e-18 0.00510218)
(0.00510218 -0.00234394 -9.64568e-05 0.00510218 3.21392e-18 0.00510218)
(0.0051014 -0.00234361 -9.78492e-05 0.0051014 1.62662e-18 0.0051014)
(0.0051014 -0.00234361 -9.78492e-05 0.0051014 3.27829e-18 0.0051014)
(0.00510037 -0.00234317 -9.92571e-05 0.00510037 1.63962e-18 0.00510037)
(0.00510037 -0.00234317 -9.92571e-05 0.00510037 3.38907e-18 0.00510037)
(0.00509909 -0.00234262 -0.000100681 0.00509909 1.70563e-18 0.00509909)
(0.00509909 -0.00234262 -0.000100681 0.00509909 3.53181e-18 0.00509909)
(0.00509756 -0.00234197 -0.00010212 0.00509756 1.59026e-18 0.00509756)
(0.00509756 -0.00234197 -0.00010212 0.00509756 3.62858e-18 0.00509756)
(0.0050958 -0.00234122 -0.000103575 0.0050958 1.57733e-18 0.0050958)
(0.0050958 -0.00234122 -0.000103575 0.0050958 3.6802e-18 0.0050958)
(0.0050938 -0.00234036 -0.000105046 0.0050938 1.6855e-18 0.0050938)
(0.0050938 -0.00234036 -0.000105046 0.0050938 3.74258e-18 0.0050938)
(0.00509156 -0.0023394 -0.000106534 0.00509156 1.72754e-18 0.00509156)
(0.00509156 -0.0023394 -0.000106534 0.00509156 3.9683e-18 0.00509156)
(0.00508909 -0.00233834 -0.000108037 0.00508909 1.77106e-18 0.00508909)
(0.00508909 -0.00233834 -0.000108037 0.00508909 4.02904e-18 0.00508909)
(0.00508639 -0.00233718 -0.000109557 0.00508639 1.75954e-18 0.00508639)
(0.00508639 -0.00233718 -0.000109557 0.00508639 4.12279e-18 0.00508639)
(0.00508346 -0.00233592 -0.000111093 0.00508346 1.81055e-18 0.00508346)
(0.00508346 -0.00233592 -0.000111093 0.00508346 4.21744e-18 0.00508346)
(0.0050803 -0.00233455 -0.000112647 0.0050803 1.85008e-18 0.0050803)
(0.0050803 -0.00233455 -0.000112647 0.0050803 4.45087e-18 0.0050803)
(0.00507692 -0.00233309 -0.000114216 0.00507692 1.8478e-18 0.00507692)
(0.00507692 -0.00233309 -0.000114216 0.00507692 4.5636e-18 0.00507692)
(0.00507332 -0.00233154 -0.000115803 0.00507332 1.85786e-18 0.00507332)
(0.00507332 -0.00233154 -0.000115803 0.00507332 4.6783e-18 0.00507332)
(0.0050695 -0.00232988 -0.000117407 0.0050695 1.97028e-18 0.0050695)
(0.0050695 -0.00232988 -0.000117407 0.0050695 4.58906e-18 0.0050695)
(0.00506546 -0.00232813 -0.000119028 0.00506546 2.12702e-18 0.00506546)
(0.00506546 -0.00232813 -0.000119028 0.00506546 4.79204e-18 0.00506546)
(0.0050612 -0.00232628 -0.000120666 0.0050612 4.51697e-18 0.0050612)
(0.0050612 -0.00232628 -0.000120666 0.0050612 5.0779e-18 0.0050612)
(0.00505673 -0.00232433 -0.000122321 0.00505673 6.89612e-18 0.00505673)
(0.00505673 -0.00232433 -0.000122321 0.00505673 5.49303e-18 0.00505673)
(0.00505204 -0.00232229 -0.000123994 0.00505204 7.2578e-18 0.00505204)
(0.00505204 -0.00232229 -0.000123994 0.00505204 5.72097e-18 0.00505204)
(0.00504714 -0.00232015 -0.000125685 0.00504714 7.74734e-18 0.00504714)
(0.00504714 -0.00232015 -0.000125685 0.00504714 5.67857e-18 0.00504714)
(0.00504203 -0.00231792 -0.000127393 0.00504203 7.90679e-18 0.00504203)
(0.00504203 -0.00231792 -0.000127393 0.00504203 5.12588e-18 0.00504203)
(0.0050367 -0.00231559 -0.000129119 0.0050367 7.97199e-18 0.0050367)
(0.0050367 -0.00231559 -0.000129119 0.0050367 5.74414e-18 0.0050367)
(0.00503117 -0.00231317 -0.000130862 0.00503117 8.19266e-18 0.00503117)
(0.00503117 -0.00231317 -0.000130862 0.00503117 6.10615e-18 0.00503117)
(0.00502544 -0.00231066 -0.000132624 0.00502544 8.42831e-18 0.00502544)
(0.00502544 -0.00231066 -0.000132624 0.00502544 6.50115e-18 0.00502544)
(0.00501949 -0.00230805 -0.000134403 0.00501949 7.81393e-18 0.00501949)
(0.00501949 -0.00230805 -0.000134403 0.00501949 5.98059e-18 0.00501949)
(0.00501334 -0.00230535 -0.000136201 0.00501334 2.00322e-18 0.00501334)
(0.00501334 -0.00230535 -0.000136201 0.00501334 6.73266e-18 0.00501334)
(0.00500699 -0.00230255 -0.000138017 0.00500699 3.98045e-19 0.00500699)
(0.00500699 -0.00230255 -0.000138017 0.00500699 7.13781e-18 0.00500699)
(0.00500043 -0.00229966 -0.000139851 0.00500043 -5.76914e-19 0.00500043)
(0.00500043 -0.00229966 -0.000139851 0.00500043 7.24591e-18 0.00500043)
(0.00499367 -0.00229667 -0.000141703 0.00499367 -9.7194e-21 0.00499367)
(0.00499367 -0.00229667 -0.000141703 0.00499367 7.46954e-18 0.00499367)
(0.0049867 -0.0022936 -0.000143574 0.0049867 -2.33524e-19 0.0049867)
(0.0049867 -0.0022936 -0.000143574 0.0049867 7.85132e-18 0.0049867)
(0.00497953 -0.00229043 -0.000145463 0.00497953 -4.33129e-19 0.00497953)
(0.00497953 -0.00229043 -0.000145463 0.00497953 8.08916e-18 0.00497953)
(0.00497217 -0.00228716 -0.000147371 0.00497217 -2.33266e-19 0.00497217)
(0.00497217 -0.00228716 -0.000147371 0.00497217 8.47398e-18 0.00497217)
(0.0049646 -0.00228381 -0.000149297 0.0049646 -3.9033e-19 0.0049646)
(0.0049646 -0.00228381 -0.000149297 0.0049646 9.06451e-18 0.0049646)
(0.00495683 -0.00228036 -0.000151242 0.00495683 -1.08534e-19 0.00495683)
(0.00495683 -0.00228036 -0.000151242 0.00495683 9.1417e-18 0.00495683)
(0.00494886 -0.00227681 -0.000153206 0.00494886 7.26924e-19 0.00494886)
(0.00494886 -0.00227681 -0.000153206 0.00494886 9.34947e-18 0.00494886)
(0.00494069 -0.00227318 -0.000155188 0.00494069 1.0314e-18 0.00494069)
(0.00494069 -0.00227318 -0.000155188 0.00494069 9.5571e-18 0.00494069)
(0.00493232 -0.00226945 -0.000157188 0.00493232 1.15873e-18 0.00493232)
(0.00493232 -0.00226945 -0.000157188 0.00493232 9.71717e-18 0.00493232)
(0.00492375 -0.00226562 -0.000159208 0.00492375 1.05195e-18 0.00492375)
(0.00492375 -0.00226562 -0.000159208 0.00492375 9.96538e-18 0.00492375)
(0.00491498 -0.0022617 -0.000161246 0.00491498 9.55108e-19 0.00491498)
(0.00491498 -0.0022617 -0.000161246 0.00491498 1.01509e-17 0.00491498)
(0.00490601 -0.00225769 -0.000163303 0.00490601 1.59999e-18 0.00490601)
(0.00490601 -0.00225769 -0.000163303 0.00490601 1.01664e-17 0.00490601)
(0.00489685 -0.00225358 -0.000165379 0.00489685 1.92527e-18 0.00489685)
(0.00489685 -0.00225358 -0.000165379 0.00489685 1.02735e-17 0.00489685)
(0.00488748 -0.00224938 -0.000167473 0.00488748 1.39976e-18 0.00488748)
(0.00488748 -0.00224938 -0.000167473 0.00488748 1.05483e-17 0.00488748)
(0.00487791 -0.00224508 -0.000169586 0.00487791 1.29621e-18 0.00487791)
(0.00487791 -0.00224508 -0.000169586 0.00487791 1.06711e-17 0.00487791)
(0.00486815 -0.00224069 -0.000171718 0.00486815 1.59757e-18 0.00486815)
(0.00486815 -0.00224069 -0.000171718 0.00486815 1.10538e-17 0.00486815)
(0.00485818 -0.0022362 -0.000173868 0.00485818 1.66295e-18 0.00485818)
(0.00485818 -0.0022362 -0.000173868 0.00485818 1.1466e-17 0.00485818)
(0.00484802 -0.00223162 -0.000176037 0.00484802 1.43522e-18 0.00484802)
(0.00484802 -0.00223162 -0.000176037 0.00484802 1.18413e-17 0.00484802)
(0.00483766 -0.00222694 -0.000178225 0.00483766 9.21551e-19 0.00483766)
(0.00483766 -0.00222694 -0.000178225 0.00483766 1.17973e-17 0.00483766)
(0.00482709 -0.00222216 -0.000180431 0.00482709 8.28419e-19 0.00482709)
(0.00482709 -0.00222216 -0.000180431 0.00482709 1.194e-17 0.00482709)
(0.00481632 -0.00221729 -0.000182655 0.00481632 1.17902e-18 0.00481632)
(0.00481632 -0.00221729 -0.000182655 0.00481632 1.22774e-17 0.00481632)
(0.00480535 -0.00221232 -0.000184898 0.00480535 1.59187e-18 0.00480535)
(0.00480535 -0.00221232 -0.000184898 0.00480535 1.21962e-17 0.00480535)
(0.00479418 -0.00220725 -0.000187158 0.00479418 1.66323e-18 0.00479418)
(0.00479418 -0.00220725 -0.000187158 0.00479418 1.27473e-17 0.00479418)
(0.00478281 -0.00220208 -0.000189437 0.00478281 1.39533e-18 0.00478281)
(0.00478281 -0.00220208 -0.000189437 0.00478281 1.34116e-17 0.00478281)
(0.00477124 -0.00219681 -0.000191734 0.00477124 1.3917e-18 0.00477124)
(0.00477124 -0.00219681 -0.000191734 0.00477124 1.3353e-17 0.00477124)
(0.00475946 -0.00219145 -0.000194049 0.00475946 1.46877e-18 0.00475946)
(0.00475946 -0.00219145 -0.000194049 0.00475946 1.37286e-17 0.00475946)
(0.00474747 -0.00218598 -0.000196381 0.00474747 2.45868e-18 0.00474747)
(0.00474747 -0.00218598 -0.000196381 0.00474747 1.4261e-17 0.00474747)
(0.00473528 -0.00218041 -0.000198731 0.00473528 2.46004e-18 0.00473528)
(0.00473528 -0.00218041 -0.000198731 0.00473528 1.48097e-17 0.00473528)
(0.00472289 -0.00217474 -0.000201099 0.00472289 2.42072e-18 0.00472289)
(0.00472289 -0.00217474 -0.000201099 0.00472289 1.50395e-17 0.00472289)
(0.00471029 -0.00216897 -0.000203483 0.00471029 2.73069e-18 0.00471029)
(0.00471029 -0.00216897 -0.000203483 0.00471029 1.53008e-17 0.00471029)
(0.00469748 -0.0021631 -0.000205885 0.00469748 2.03341e-18 0.00469748)
(0.00469748 -0.0021631 -0.000205885 0.00469748 1.63746e-17 0.00469748)
(0.00468446 -0.00215712 -0.000208303 0.00468446 1.23095e-18 0.00468446)
(0.00468446 -0.00215712 -0.000208303 0.00468446 1.70738e-17 0.00468446)
(0.00467123 -0.00215104 -0.000210737 0.00467123 1.07339e-18 0.00467123)
(0.00467123 -0.00215104 -0.000210737 0.00467123 1.65977e-17 0.00467123)
(0.00465779 -0.00214485 -0.000213188 0.00465779 1.29512e-18 0.00465779)
(0.00465779 -0.00214485 -0.000213188 0.00465779 1.71218e-17 0.00465779)
(0.00464414 -0.00213856 -0.000215655 0.00464414 5.61156e-19 0.00464414)
(0.00464414 -0.00213856 -0.000215655 0.00464414 1.88321e-17 0.00464414)
(0.00463027 -0.00213216 -0.000218137 0.00463027 7.22015e-19 0.00463027)
(0.00463027 -0.00213216 -0.000218137 0.00463027 1.88758e-17 0.00463027)
(0.00461619 -0.00212566 -0.000220635 0.00461619 2.39233e-18 0.00461619)
(0.00461619 -0.00212566 -0.000220635 0.00461619 1.89278e-17 0.00461619)
(0.0046019 -0.00211904 -0.000223148 0.0046019 2.87217e-18 0.0046019)