/*--------------------------------*- C++ -*----------------------------------*\
| =========                 |                                                 |
| \\      /  F ield         | OpenFOAM: The Open Source CFD Toolbox           |
|  \\    /   O peration     | Version:  2106                                  |
|   \\  /    A nd           | Website:  www.openfoam.com                      |
|    \\/     M anipulation  |                                                 |
\*---------------------------------------------------------------------------*/
FoamFile
{
    version     2.0;
    format      ascii;
    arch        "LSB;label=32;scalar=64";
    class       volScalarField;
    location    "13000";
    object      p;
}
// * * * * * * * * * * * * * * * * * * * * * * * * * * * * * * * * * * * * * //

dimensions      [0 2 -2 0 0 0 0];

internalField   nonuniform List<scalar> 
2560
(
2.16298e-15
-1.06588e-13
4.99811e-15
-1.06589e-13
3.57364e-15
-1.06592e-13
6.40766e-16
-1.06597e-13
-2.0081e-15
-1.06604e-13
-4.43735e-15
-1.06613e-13
-6.81281e-15
-1.06624e-13
-9.1635e-15
-1.06638e-13
-1.14795e-14
-1.06653e-13
-1.37582e-14
-1.0667e-13
-1.60004e-14
-1.0669e-13
-1.82068e-14
-1.06711e-13
-2.03777e-14
-1.06735e-13
-2.25136e-14
-1.0676e-13
-2.4615e-14
-1.06787e-13
-2.66824e-14
-1.06817e-13
-2.87161e-14
-1.06848e-13
-3.07168e-14
-1.06881e-13
-3.26849e-14
-1.06916e-13
-3.46206e-14
-1.06953e-13
-3.65246e-14
-1.06992e-13
-3.83973e-14
-1.07033e-13
-4.02392e-14
-1.07076e-13
-4.20503e-14
-1.07121e-13
-4.38314e-14
-1.07167e-13
-4.55829e-14
-1.07216e-13
-4.73051e-14
-1.07266e-13
-4.89983e-14
-1.07318e-13
-5.06628e-14
-1.07372e-13
-5.22994e-14
-1.07427e-13
-5.39081e-14
-1.07485e-13
-5.54897e-14
-1.07544e-13
-5.70442e-14
-1.07605e-13
-5.85719e-14
-1.07668e-13
-6.00731e-14
-1.07732e-13
-6.15486e-14
-1.07798e-13
-6.29988e-14
-1.07865e-13
-6.44234e-14
-1.07934e-13
-6.5823e-14
-1.08005e-13
-6.7198e-14
-1.08078e-13
-6.85488e-14
-1.08152e-13
-6.98758e-14
-1.08227e-13
-7.11791e-14
-1.08304e-13
-7.24592e-14
-1.08383e-13
-7.37163e-14
-1.08463e-13
-7.49506e-14
-1.08545e-13
-7.61625e-14
-1.08629e-13
-7.73521e-14
-1.08714e-13
-7.85203e-14
-1.08801e-13
-7.96671e-14
-1.08889e-13
-8.07922e-14
-1.08979e-13
-8.18964e-14
-1.0907e-13
-8.29809e-14
-1.09162e-13
-8.4045e-14
-1.09256e-13
-8.50893e-14
-1.09351e-13
-8.6114e-14
-1.09448e-13
-8.71192e-14
-1.09545e-13
-8.81049e-14
-1.09644e-13
-8.9072e-14
-1.09745e-13
-9.00208e-14
-1.09847e-13
-9.09513e-14
-1.0995e-13
-9.18637e-14
-1.10055e-13
-9.27587e-14
-1.10161e-13
-9.36361e-14
-1.10269e-13
-9.44961e-14
-1.10377e-13
-9.53396e-14
-1.10488e-13
-9.61668e-14
-1.106e-13
-9.69778e-14
-1.10713e-13
-9.77726e-14
-1.10827e-13
-9.85518e-14
-1.10942e-13
-9.93163e-14
-1.11059e-13
-1.00066e-13
-1.11176e-13
-1.00802e-13
-1.11294e-13
-1.01523e-13
-1.11414e-13
-1.0223e-13
-1.11535e-13
-1.02923e-13
-1.11657e-13
-1.03602e-13
-1.11781e-13
-1.04269e-13
-1.11906e-13
-1.04922e-13
-1.12033e-13
-1.05563e-13
-1.12161e-13
-1.06192e-13
-1.1229e-13
-1.06809e-13
-1.12422e-13
-1.07414e-13
-1.12556e-13
-1.08008e-13
-1.1269e-13
-1.08591e-13
-1.12826e-13
-1.09164e-13
-1.12964e-13
-1.09726e-13
-1.13104e-13
-1.10279e-13
-1.13246e-13
-1.10821e-13
-1.1339e-13
-1.11354e-13
-1.13534e-13
-1.11877e-13
-1.13681e-13
-1.12393e-13
-1.13829e-13
-1.12901e-13
-1.13977e-13
-1.134e-13
-1.14128e-13
-1.1389e-13
-1.14282e-13
-1.14373e-13
-1.14439e-13
-1.14847e-13
-1.14597e-13
-1.15316e-13
-1.14756e-13
-1.15779e-13
-1.14919e-13
-1.16235e-13
-1.15085e-13
-1.16684e-13
-1.15253e-13
-1.17128e-13
-1.15424e-13
-1.17568e-13
-1.15597e-13
-1.18001e-13
-1.15772e-13
-1.18427e-13
-1.15949e-13
-1.18849e-13
-1.16129e-13
-1.19267e-13
-1.16311e-13
-1.19679e-13
-1.16497e-13
-1.20085e-13
-1.16687e-13
-1.20487e-13
-1.16879e-13
-1.20885e-13
-1.17074e-13
-1.21279e-13
-1.17271e-13
-1.21669e-13
-1.17472e-13
-1.22056e-13
-1.17676e-13
-1.22437e-13
-1.17882e-13
-1.22813e-13
-1.18093e-13
-1.23185e-13
-1.18307e-13
-1.23554e-13
-1.18523e-13
-1.23921e-13
-1.18741e-13
-1.24283e-13
-1.18962e-13
-1.24641e-13
-1.19188e-13
-1.24997e-13
-1.19416e-13
-1.25352e-13
-1.19649e-13
-1.25703e-13
-1.19883e-13
-1.2605e-13
-1.20123e-13
-1.26396e-13
-1.20364e-13
-1.2674e-13
-1.20607e-13
-1.27079e-13
-1.20856e-13
-1.27415e-13
-1.2111e-13
-1.27751e-13
-1.21367e-13
-1.28084e-13
-1.21627e-13
-1.28417e-13
-1.21885e-13
-1.28743e-13
-1.2215e-13
-1.29066e-13
-1.22423e-13
-1.29387e-13
-1.22696e-13
-1.29707e-13
-1.22976e-13
-1.30021e-13
-1.23263e-13
-1.30337e-13
-1.23553e-13
-1.30649e-13
-1.23838e-13
-1.30961e-13
-1.24129e-13
-1.31274e-13
-1.24429e-13
-1.31588e-13
-1.24724e-13
-1.31901e-13
-1.25016e-13
-1.3221e-13
-1.25319e-13
-1.32519e-13
-1.25621e-13
-1.32829e-13
-1.25923e-13
-1.33139e-13
-1.26226e-13
-1.33446e-13
-1.26534e-13
-1.33754e-13
-1.26848e-13
-1.34061e-13
-1.27161e-13
-1.3437e-13
-1.27475e-13
-1.34676e-13
-1.27787e-13
-1.3498e-13
-1.28096e-13
-1.35281e-13
-1.28411e-13
-1.35592e-13
-1.2873e-13
-1.35904e-13
-1.29056e-13
-1.36212e-13
-1.29382e-13
-1.36521e-13
-1.29695e-13
-1.36824e-13
-1.30007e-13
-1.37129e-13
-1.30335e-13
-1.37433e-13
-1.30669e-13
-1.37742e-13
-1.31001e-13
-1.38039e-13
-1.31333e-13
-1.38327e-13
-1.31671e-13
-1.38617e-13
-1.32017e-13
-1.38906e-13
-1.32365e-13
-1.39188e-13
-1.32719e-13
-1.39472e-13
-1.33074e-13
-1.39757e-13
-1.33435e-13
-1.40041e-13
-1.33792e-13
-1.40325e-13
-1.34141e-13
-1.40603e-13
-1.34496e-13
-1.40881e-13
-1.34864e-13
-1.41159e-13
-1.35228e-13
-1.41432e-13
-1.35593e-13
-1.417e-13
-1.3596e-13
-1.41969e-13
-1.36327e-13
-1.42233e-13
-1.36696e-13
-1.42508e-13
-1.3705e-13
-1.4278e-13
-1.37399e-13
-1.43041e-13
-1.37759e-13
-1.43304e-13
-1.3812e-13
-1.43569e-13
-1.38481e-13
-1.4383e-13
-1.38826e-13
-1.44092e-13
-1.39177e-13
-1.44351e-13
-1.39533e-13
-1.44607e-13
-1.399e-13
-1.44865e-13
-1.40261e-13
-1.45124e-13
-1.4061e-13
-1.45392e-13
-1.40948e-13
-1.45652e-13
-1.41286e-13
-1.45908e-13
-1.41634e-13
-1.46168e-13
-1.41975e-13
-1.46414e-13
-1.42298e-13
-1.46675e-13
-1.42603e-13
-1.46928e-13
-1.42935e-13
-1.47184e-13
-1.43253e-13
-1.4744e-13
-1.4354e-13
-1.47683e-13
-1.43836e-13
-1.47925e-13
-1.44147e-13
-1.48166e-13
-1.44436e-13
-1.4843e-13
-1.44716e-13
-1.48677e-13
-1.45015e-13
-1.48918e-13
-1.45302e-13
-1.4916e-13
-1.4559e-13
-1.49403e-13
-1.45872e-13
-1.49642e-13
-1.46154e-13
-1.49888e-13
-1.46468e-13
-1.50142e-13
-1.46781e-13
-1.50404e-13
-1.47093e-13
-1.50674e-13
-1.4739e-13
-1.5093e-13
-1.47719e-13
-1.51194e-13
-1.48068e-13
-1.51456e-13
-1.48392e-13
-1.51703e-13
-1.487e-13
-1.51971e-13
-1.48993e-13
-1.52237e-13
-1.49294e-13
-1.52502e-13
-1.49625e-13
-1.52777e-13
-1.49952e-13
-1.53039e-13
-1.5025e-13
-1.53289e-13
-1.50588e-13
-1.5355e-13
-1.50945e-13
-1.53809e-13
-1.51273e-13
-1.5408e-13
-1.51595e-13
-1.54361e-13
-1.51934e-13
-1.5463e-13
-1.52303e-13
-1.54933e-13
-1.52642e-13
-1.55224e-13
-1.52964e-13
-1.55503e-13
-1.5328e-13
-1.55795e-13
-1.53624e-13
-1.561e-13
-1.53996e-13
-1.56394e-13
-1.54327e-13
-1.56678e-13
-1.54616e-13
-1.56952e-13
-1.54968e-13
-1.5723e-13
-1.55348e-13
-1.57508e-13
-1.55687e-13
-1.57766e-13
-1.56032e-13
-1.58048e-13
-1.56361e-13
-1.58309e-13
-1.56719e-13
-1.58571e-13
-1.57062e-13
-1.5881e-13
-1.57391e-13
-1.59061e-13
-1.57753e-13
-1.59288e-13
-1.58103e-13
-1.59534e-13
-1.58421e-13
-1.59754e-13
-1.58777e-13
-1.60002e-13
-1.5907e-13
-1.60255e-13
-1.59391e-13
-1.60512e-13
-1.59742e-13
-1.60839e-13
-1.60124e-13
-1.61168e-13
-1.60515e-13
-1.61454e-13
-1.60872e-13
-1.61763e-13
-1.61175e-13
-1.62119e-13
-1.61533e-13
-1.62478e-13
-1.61836e-13
-1.62821e-13
-1.62171e-13
-1.63148e-13
-1.62538e-13
-1.63483e-13
-1.62871e-13
-1.6376e-13
-1.63193e-13
-1.64024e-13
-1.63506e-13
-1.64317e-13
-1.63832e-13
-1.64616e-13
-1.64152e-13
-1.64901e-13
-1.64509e-13
-1.65215e-13
-1.64862e-13
-1.6547e-13
-1.65212e-13
-1.65729e-13
-1.655e-13
-1.6597e-13
-1.65793e-13
-1.66277e-13
-1.66094e-13
-1.66504e-13
-1.66424e-13
-1.6671e-13
-1.66683e-13
-1.66999e-13
-1.66897e-13
-1.67269e-13
-1.67145e-13
-1.67545e-13
-1.67448e-13
-1.67825e-13
-1.67764e-13
-1.68048e-13
-1.68015e-13
-1.68274e-13
-1.68204e-13
-1.68506e-13
-1.6843e-13
-1.68764e-13
-1.68734e-13
-1.69046e-13
-1.69018e-13
-1.69273e-13
-1.69265e-13
-1.69504e-13
-1.69437e-13
-1.69664e-13
-1.69611e-13
-1.69869e-13
-1.69863e-13
-1.70096e-13
-1.70139e-13
-1.70305e-13
-1.70403e-13
-1.70475e-13
-1.70566e-13
-1.70682e-13
-1.70707e-13
-1.70949e-13
-1.70915e-13
-1.71095e-13
-1.71112e-13
-1.71234e-13
-1.71231e-13
-1.71368e-13
-1.71343e-13
-1.7146e-13
-1.71448e-13
-1.71587e-13
-1.71547e-13
-1.71571e-13
-1.71642e-13
-1.7169e-13
-1.71707e-13
-1.71804e-13
-1.71774e-13
-1.71847e-13
-1.71872e-13
-1.71884e-13
-1.71972e-13
-1.72114e-13
-1.72078e-13
-1.7221e-13
-1.7218e-13
-1.72374e-13
-1.72344e-13
-1.72475e-13
-1.72474e-13
-1.72581e-13
-1.72539e-13
-1.72669e-13
-1.72633e-13
-1.72767e-13
-1.72724e-13
-1.72941e-13
-1.72812e-13
-1.72952e-13
-1.72917e-13
-1.73011e-13
-1.7302e-13
-1.73075e-13
-1.73127e-13
-1.7311e-13
-1.73185e-13
-1.73175e-13
-1.73256e-13
-1.73264e-13
-1.73281e-13
-1.73416e-13
-1.73373e-13
-1.73465e-13
-1.7343e-13
-1.73522e-13
-1.73482e-13
-1.7365e-13
-1.73557e-13
-1.73712e-13
-1.73678e-13
-1.73787e-13
-1.73738e-13
-1.73821e-13
-1.73792e-13
-1.73891e-13
-1.73901e-13
-1.7396e-13
-1.73958e-13
-1.18063e-13
-1.22496e-13
-1.18064e-13
-1.22496e-13
-1.18065e-13
-1.22496e-13
-1.18068e-13
-1.22497e-13
-1.18071e-13
-1.22497e-13
-1.18076e-13
-1.22498e-13
-1.18082e-13
-1.22499e-13
-1.18089e-13
-1.225e-13
-1.18097e-13
-1.22502e-13
-1.18106e-13
-1.22503e-13
-1.18116e-13
-1.22505e-13
-1.18127e-13
-1.22507e-13
-1.18139e-13
-1.2251e-13
-1.18152e-13
-1.22512e-13
-1.18167e-13
-1.22515e-13
-1.18182e-13
-1.22518e-13
-1.18198e-13
-1.22522e-13
-1.18215e-13
-1.22525e-13
-1.18234e-13
-1.22529e-13
-1.18253e-13
-1.22533e-13
-1.18273e-13
-1.22537e-13
-1.18295e-13
-1.22542e-13
-1.18317e-13
-1.22547e-13
-1.1834e-13
-1.22552e-13
-1.18364e-13
-1.22557e-13
-1.1839e-13
-1.22563e-13
-1.18416e-13
-1.22569e-13
-1.18443e-13
-1.22575e-13
-1.18471e-13
-1.22581e-13
-1.185e-13
-1.22588e-13
-1.1853e-13
-1.22595e-13
-1.18561e-13
-1.22603e-13
-1.18593e-13
-1.2261e-13
-1.18626e-13
-1.22618e-13
-1.18659e-13
-1.22627e-13
-1.18694e-13
-1.22635e-13
-1.18729e-13
-1.22644e-13
-1.18765e-13
-1.22654e-13
-1.18802e-13
-1.22664e-13
-1.1884e-13
-1.22674e-13
-1.18879e-13
-1.22685e-13
-1.18919e-13
-1.22696e-13
-1.1896e-13
-1.22707e-13
-1.19001e-13
-1.22719e-13
-1.19044e-13
-1.22732e-13
-1.19087e-13
-1.22745e-13
-1.19131e-13
-1.22758e-13
-1.19176e-13
-1.22771e-13
-1.19222e-13
-1.22785e-13
-1.19269e-13
-1.22799e-13
-1.19317e-13
-1.22814e-13
-1.19366e-13
-1.22829e-13
-1.19415e-13
-1.22845e-13
-1.19466e-13
-1.22861e-13
-1.19517e-13
-1.22878e-13
-1.19569e-13
-1.22895e-13
-1.19622e-13
-1.22913e-13
-1.19676e-13
-1.22931e-13
-1.19731e-13
-1.2295e-13
-1.19786e-13
-1.2297e-13
-1.19842e-13
-1.2299e-13
-1.19898e-13
-1.2301e-13
-1.19956e-13
-1.23031e-13
-1.20014e-13
-1.23053e-13
-1.20073e-13
-1.23075e-13
-1.20132e-13
-1.23098e-13
-1.20192e-13
-1.23121e-13
-1.20254e-13
-1.23145e-13
-1.20315e-13
-1.2317e-13
-1.20378e-13
-1.23195e-13
-1.20442e-13
-1.23221e-13
-1.20506e-13
-1.23248e-13
-1.20571e-13
-1.23275e-13
-1.20636e-13
-1.23302e-13
-1.20703e-13
-1.2333e-13
-1.20771e-13
-1.23359e-13
-1.20839e-13
-1.23389e-13
-1.20908e-13
-1.2342e-13
-1.20977e-13
-1.23452e-13
-1.21048e-13
-1.23485e-13
-1.2112e-13
-1.23518e-13
-1.21193e-13
-1.23552e-13
-1.21267e-13
-1.23586e-13
-1.21341e-13
-1.23622e-13
-1.21417e-13
-1.23658e-13
-1.21494e-13
-1.23696e-13
-1.21572e-13
-1.23734e-13
-1.21652e-13
-1.23773e-13
-1.21733e-13
-1.23814e-13
-1.21815e-13
-1.23856e-13
-1.21898e-13
-1.239e-13
-1.21983e-13
-1.23945e-13
-1.22068e-13
-1.23992e-13
-1.22155e-13
-1.24042e-13
-1.22244e-13
-1.24092e-13
-1.22335e-13
-1.24143e-13
-1.22426e-13
-1.24194e-13
-1.22519e-13
-1.24247e-13
-1.22612e-13
-1.24305e-13
-1.22707e-13
-1.24363e-13
-1.22804e-13
-1.24422e-13
-1.22904e-13
-1.24483e-13
-1.23003e-13
-1.24546e-13
-1.23104e-13
-1.24611e-13
-1.23208e-13
-1.24679e-13
-1.23312e-13
-1.24748e-13
-1.23421e-13
-1.2482e-13
-1.23531e-13
-1.24892e-13
-1.23642e-13
-1.24968e-13
-1.23755e-13
-1.25046e-13
-1.23871e-13
-1.25124e-13
-1.23991e-13
-1.25206e-13
-1.24113e-13
-1.25291e-13
-1.24238e-13
-1.25379e-13
-1.24365e-13
-1.25468e-13
-1.24494e-13
-1.2556e-13
-1.24629e-13
-1.25653e-13
-1.24765e-13
-1.25747e-13
-1.24904e-13
-1.25844e-13
-1.25046e-13
-1.25945e-13
-1.25189e-13
-1.26049e-13
-1.25335e-13
-1.26157e-13
-1.25485e-13
-1.26266e-13
-1.25635e-13
-1.26377e-13
-1.25786e-13
-1.26492e-13
-1.2594e-13
-1.26609e-13
-1.26098e-13
-1.26728e-13
-1.2626e-13
-1.2685e-13
-1.26427e-13
-1.26975e-13
-1.26593e-13
-1.27108e-13
-1.26764e-13
-1.2724e-13
-1.26939e-13
-1.27376e-13
-1.27116e-13
-1.27519e-13
-1.27297e-13
-1.27667e-13
-1.27481e-13
-1.27815e-13
-1.27668e-13
-1.27968e-13
-1.27856e-13
-1.28122e-13
-1.28046e-13
-1.2828e-13
-1.28242e-13
-1.2844e-13
-1.28441e-13
-1.28603e-13
-1.2864e-13
-1.28773e-13
-1.28847e-13
-1.28948e-13
-1.29059e-13
-1.29117e-13
-1.29272e-13
-1.29292e-13
-1.29486e-13
-1.29474e-13
-1.29705e-13
-1.29656e-13
-1.29928e-13
-1.29839e-13
-1.30154e-13
-1.30021e-13
-1.30379e-13
-1.30208e-13
-1.30611e-13
-1.30403e-13
-1.30847e-13
-1.30604e-13
-1.31083e-13
-1.3081e-13
-1.31323e-13
-1.31016e-13
-1.31565e-13
-1.31228e-13
-1.31812e-13
-1.3145e-13
-1.32062e-13
-1.31678e-13
-1.32315e-13
-1.31903e-13
-1.32581e-13
-1.32131e-13
-1.32844e-13
-1.32362e-13
-1.33103e-13
-1.326e-13
-1.3337e-13
-1.32843e-13
-1.33642e-13
-1.33092e-13
-1.33909e-13
-1.33347e-13
-1.34182e-13
-1.336e-13
-1.34454e-13
-1.33857e-13
-1.34732e-13
-1.3412e-13
-1.35021e-13
-1.34381e-13
-1.35307e-13
-1.34647e-13
-1.35591e-13
-1.34928e-13
-1.35881e-13
-1.35213e-13
-1.3618e-13
-1.35489e-13
-1.36472e-13
-1.35771e-13
-1.36752e-13
-1.36076e-13
-1.37035e-13
-1.36377e-13
-1.37337e-13
-1.36673e-13
-1.37643e-13
-1.36976e-13
-1.37946e-13
-1.37286e-13
-1.38257e-13
-1.3758e-13
-1.38561e-13
-1.37891e-13
-1.38868e-13
-1.38214e-13
-1.39178e-13
-1.38531e-13
-1.39506e-13
-1.38849e-13
-1.39827e-13
-1.39168e-13
-1.4015e-13
-1.39497e-13
-1.40477e-13
-1.39833e-13
-1.40789e-13
-1.40157e-13
-1.41093e-13
-1.40487e-13
-1.41394e-13
-1.40812e-13
-1.41703e-13
-1.41136e-13
-1.42008e-13
-1.41449e-13
-1.42316e-13
-1.41779e-13
-1.42625e-13
-1.42109e-13
-1.42931e-13
-1.42432e-13
-1.43233e-13
-1.4275e-13
-1.43531e-13
-1.43068e-13
-1.43824e-13
-1.43397e-13
-1.44113e-13
-1.43725e-13
-1.44431e-13
-1.44037e-13
-1.44739e-13
-1.44355e-13
-1.45025e-13
-1.44695e-13
-1.45328e-13
-1.45013e-13
-1.45644e-13
-1.4532e-13
-1.45959e-13
-1.45633e-13
-1.46264e-13
-1.45964e-13
-1.46563e-13
-1.46301e-13
-1.46874e-13
-1.46611e-13
-1.47179e-13
-1.46933e-13
-1.47489e-13
-1.47268e-13
-1.47794e-13
-1.47594e-13
-1.48104e-13
-1.47886e-13
-1.48419e-13
-1.4818e-13
-1.48764e-13
-1.48463e-13
-1.49091e-13
-1.48771e-13
-1.49389e-13
-1.49079e-13
-1.49682e-13
-1.49388e-13
-1.50005e-13
-1.49674e-13
-1.50322e-13
-1.49984e-13
-1.50646e-13
-1.50305e-13
-1.50941e-13
-1.50615e-13
-1.51243e-13
-1.50937e-13
-1.51551e-13
-1.51259e-13
-1.51889e-13
-1.5157e-13
-1.52198e-13
-1.51893e-13
-1.52502e-13
-1.52215e-13
-1.52789e-13
-1.52526e-13
-1.53093e-13
-1.52826e-13
-1.53439e-13
-1.53149e-13
-1.53733e-13
-1.53471e-13
-1.54032e-13
-1.53758e-13
-1.54325e-13
-1.54044e-13
-1.54636e-13
-1.54353e-13
-1.54941e-13
-1.54683e-13
-1.55263e-13
-1.54954e-13
-1.55568e-13
-1.55245e-13
-1.55867e-13
-1.55557e-13
-1.5616e-13
-1.55866e-13
-1.56424e-13
-1.56194e-13
-1.56727e-13
-1.56485e-13
-1.57011e-13
-1.56773e-13
-1.573e-13
-1.57056e-13
-1.57582e-13
-1.57358e-13
-1.57869e-13
-1.57656e-13
-1.58159e-13
-1.57959e-13
-1.58454e-13
-1.58223e-13
-1.58742e-13
-1.58503e-13
-1.58979e-13
-1.58844e-13
-1.59298e-13
-1.59178e-13
-1.5961e-13
-1.59485e-13
-1.59914e-13
-1.59808e-13
-1.60187e-13
-1.60147e-13
-1.60495e-13
-1.60503e-13
-1.6079e-13
-1.60854e-13
-1.61116e-13
-1.61157e-13
-1.61428e-13
-1.61477e-13
-1.61725e-13
-1.61771e-13
-1.62072e-13
-1.62105e-13
-1.62381e-13
-1.62388e-13
-1.6263e-13
-1.62664e-13
-1.6297e-13
-1.62932e-13
-1.63317e-13
-1.63212e-13
-1.63543e-13
-1.63544e-13
-1.63816e-13
-1.63909e-13
-1.64133e-13
-1.64222e-13
-1.64385e-13
-1.64484e-13
-1.64657e-13
-1.64693e-13
-1.64931e-13
-1.64931e-13
-1.65184e-13
-1.65196e-13
-1.65438e-13
-1.65443e-13
-1.65691e-13
-1.65692e-13
-1.65923e-13
-1.65942e-13
-1.66195e-13
-1.66194e-13
-1.66464e-13
-1.66507e-13
-1.66728e-13
-1.66801e-13
-1.66985e-13
-1.67035e-13
-1.67235e-13
-1.67249e-13
-1.67499e-13
-1.6748e-13
-1.67759e-13
-1.67747e-13
-1.68034e-13
-1.68009e-13
-1.68284e-13
-1.68242e-13
-1.68569e-13
-1.68466e-13
-1.68812e-13
-1.68697e-13
-1.69038e-13
-1.68973e-13
-1.69222e-13
-1.69219e-13
-1.69439e-13
-1.69417e-13
-1.69668e-13
-1.69584e-13
-1.69858e-13
-1.69772e-13
-1.70063e-13
-1.69962e-13
-1.70132e-13
-1.70113e-13
-1.70282e-13
-1.70303e-13
-1.7047e-13
-1.70424e-13
-1.70519e-13
-1.70546e-13
-1.70604e-13
-1.70599e-13
-1.70725e-13
-1.70689e-13
-1.70851e-13
-1.70774e-13
-1.70984e-13
-1.70923e-13
-1.71124e-13
-1.7103e-13
-1.71205e-13
-1.71164e-13
-1.71294e-13
-1.71328e-13
-1.71514e-13
-1.7146e-13
-1.71604e-13
-1.71553e-13
-1.71628e-13
-1.71705e-13
-1.71703e-13
-1.71859e-13
-1.71885e-13
-1.7196e-13
-1.71984e-13
-1.72067e-13
-1.72033e-13
-1.72212e-13
-1.72173e-13
-1.7231e-13
-1.72317e-13
-1.72389e-13
-1.72412e-13
-1.7247e-13
-1.7246e-13
-1.72582e-13
-1.72608e-13
-1.7267e-13
-1.72712e-13
-1.7276e-13
-1.72773e-13
-1.72883e-13
-1.72957e-13
-1.72986e-13
-1.73012e-13
-1.73063e-13
-1.73112e-13
-1.73146e-13
-1.73196e-13
-1.73233e-13
-1.73295e-13
-1.73322e-13
-1.73409e-13
-1.73411e-13
-1.73519e-13
-1.73498e-13
-1.73629e-13
-1.73577e-13
-1.74001e-13
-1.73989e-13
-1.7409e-13
-1.7404e-13
-1.74119e-13
-1.74074e-13
-1.74169e-13
-1.74142e-13
-1.74265e-13
-1.74219e-13
-1.74234e-13
-1.74241e-13
-1.7427e-13
-1.74247e-13
-1.74345e-13
-1.74292e-13
-1.74315e-13
-1.74284e-13
-1.74322e-13
-1.74251e-13
-1.74398e-13
-1.74305e-13
-1.74398e-13
-1.74356e-13
-1.7441e-13
-1.74375e-13
-1.74527e-13
-1.74396e-13
-1.74575e-13
-1.74406e-13
-1.74556e-13
-1.74465e-13
-1.74581e-13
-1.7452e-13
-1.74584e-13
-1.74574e-13
-1.74624e-13
-1.74632e-13
-1.74701e-13
-1.74694e-13
-1.74788e-13
-1.74692e-13
-1.7479e-13
-1.7472e-13
-1.74804e-13
-1.74745e-13
-1.74828e-13
-1.74768e-13
-1.74893e-13
-1.74788e-13
-1.74866e-13
-1.74839e-13
-1.74844e-13
-1.74856e-13
-1.74857e-13
-1.74879e-13
-1.74832e-13
-1.74835e-13
-1.74878e-13
-1.74866e-13
-1.74928e-13
-1.74938e-13
-1.7487e-13
-1.74977e-13
-1.74842e-13
-1.74955e-13
-1.74917e-13
-1.74906e-13
-1.74881e-13
-1.74896e-13
-1.74878e-13
-1.74853e-13
-1.74916e-13
-1.74848e-13
-1.7494e-13
-1.7488e-13
-1.74909e-13
-1.74891e-13
-1.74878e-13
-1.74885e-13
-1.74887e-13
-1.74862e-13
-1.74876e-13
-1.74839e-13
-1.74807e-13
-1.74834e-13
-1.74854e-13
-1.74831e-13
-1.74762e-13
-1.74848e-13
-1.74766e-13
-1.74811e-13
-1.74828e-13
-1.74798e-13
-1.74851e-13
-1.74805e-13
-1.74813e-13
-1.7477e-13
-1.74755e-13
-1.74754e-13
-1.74758e-13
-1.74782e-13
-1.74821e-13
-1.74793e-13
-1.74823e-13
-1.74784e-13
-1.74785e-13
-1.74734e-13
-1.74812e-13
-1.74728e-13
-1.74865e-13
-1.74699e-13
-1.74841e-13
-1.74624e-13
-1.74826e-13
-1.74561e-13
-1.74801e-13
-1.74575e-13
-1.74806e-13
-1.74602e-13
-1.74819e-13
-1.74579e-13
-1.74776e-13
-1.74636e-13
-1.74824e-13
-1.74646e-13
-1.74835e-13
-1.7461e-13
-1.7481e-13
-1.74613e-13
-1.74812e-13
-1.74656e-13
-1.74842e-13
-1.74719e-13
-1.74875e-13
-1.74713e-13
-1.74913e-13
-1.74682e-13
-1.74935e-13
-1.74714e-13
-1.74918e-13
-1.74721e-13
-1.74927e-13
-1.74726e-13
-1.74964e-13
-1.74729e-13
-1.74983e-13
-1.7475e-13
-1.75008e-13
-1.7479e-13
-1.75016e-13
-1.7476e-13
-1.75006e-13
-1.74771e-13
-1.75011e-13
-1.74848e-13
-1.75021e-13
-1.74912e-13
-1.74997e-13
-1.74895e-13
-1.74987e-13
-1.74889e-13
-1.7499e-13
-1.74882e-13
-1.74983e-13
-1.74897e-13
-1.74989e-13
-1.74888e-13
-1.75008e-13
-1.74867e-13
-1.74994e-13
-1.74891e-13
-1.74993e-13
-1.74926e-13
-1.75028e-13
-1.74925e-13
-1.75029e-13
-1.74924e-13
-1.75032e-13
-1.74934e-13
-1.75012e-13
-1.74943e-13
-1.75016e-13
-1.74916e-13
-1.75022e-13
-1.74911e-13
-1.75006e-13
-1.7494e-13
-1.75002e-13
-1.74957e-13
-1.7501e-13
-1.74928e-13
-1.75008e-13
-1.74909e-13
-1.75007e-13
-1.74902e-13
-1.75007e-13
-1.74906e-13
-1.74996e-13
-1.74943e-13
-1.74998e-13
-1.74923e-13
-1.74988e-13
-1.74902e-13
-1.7498e-13
-1.74904e-13
-1.74983e-13
-1.74905e-13
-1.74976e-13
-1.74895e-13
-1.74969e-13
-1.74883e-13
-1.74951e-13
-1.74872e-13
-1.74933e-13
-1.74894e-13
-1.74939e-13
-1.74905e-13
-1.74945e-13
-1.74905e-13
-1.74939e-13
-1.74892e-13
-1.74945e-13
-1.74879e-13
-1.74939e-13
-1.74901e-13
-1.74922e-13
-1.74922e-13
-1.74939e-13
-1.74897e-13
-1.74956e-13
-1.74883e-13
-1.74962e-13
-1.74909e-13
-1.74979e-13
-1.74929e-13
-1.74996e-13
-1.74943e-13
-1.75013e-13
-1.74945e-13
-1.75031e-13
-1.74946e-13
-1.75048e-13
-1.74947e-13
-1.75066e-13
-1.74959e-13
-1.75061e-13
-1.74971e-13
-1.75074e-13
-1.74976e-13
-1.75093e-13
-1.74974e-13
-1.75084e-13
-1.74995e-13
-1.7508e-13
-1.75021e-13
-1.75099e-13
-1.75024e-13
-1.75112e-13
-1.75027e-13
-1.75109e-13
-1.7504e-13
-1.75128e-13
-1.75042e-13
-1.75147e-13
-1.75065e-13
-1.75161e-13
-1.75077e-13
-1.75169e-13
-1.75083e-13
-1.75172e-13
-1.75116e-13
-1.75186e-13
-1.75149e-13
-1.75211e-13
-1.75159e-13
-1.75224e-13
-1.75159e-13
-1.75244e-13
-1.75152e-13
-1.75263e-13
-1.75156e-13
-1.75288e-13
-1.7516e-13
-1.75308e-13
-1.75168e-13
-1.75318e-13
-1.75186e-13
-1.75334e-13
-1.75193e-13
-1.75349e-13
-1.75195e-13
-1.75361e-13
-1.75201e-13
-1.75367e-13
-1.75206e-13
-1.75379e-13
-1.75211e-13
-1.75386e-13
-1.7521e-13
-1.75394e-13
-1.75219e-13
-1.75408e-13
-1.75228e-13
-1.75421e-13
-1.75228e-13
-1.75433e-13
-1.7522e-13
-1.75443e-13
-1.75221e-13
-1.75446e-13
-1.75217e-13
-1.75459e-13
-1.75208e-13
-1.75471e-13
-1.75197e-13
-1.75475e-13
-1.75199e-13
-1.75478e-13
-1.75205e-13
-1.75479e-13
-1.75208e-13
-1.7548e-13
-1.75207e-13
-1.7548e-13
-1.75211e-13
-1.7549e-13
-1.75212e-13
-1.75493e-13
-1.75215e-13
-1.75494e-13
-1.75208e-13
-1.75493e-13
-1.75208e-13
-1.75486e-13
-1.75205e-13
-1.75484e-13
-1.75208e-13
-1.75489e-13
-1.7522e-13
-1.75493e-13
-1.75227e-13
-1.75494e-13
-1.75231e-13
-1.75489e-13
-1.75232e-13
-1.75494e-13
-1.75231e-13
-1.75501e-13
-1.75236e-13
-1.75504e-13
-1.75241e-13
-1.75503e-13
-1.75244e-13
-1.75504e-13
-1.75252e-13
-1.75508e-13
-1.75258e-13
-1.7551e-13
-1.75253e-13
-1.75508e-13
-1.75248e-13
-1.75511e-13
-1.75249e-13
-1.75514e-13
-1.75247e-13
-1.75519e-13
-1.75241e-13
-1.75522e-13
-1.75239e-13
-1.75525e-13
-1.75242e-13
-1.75528e-13
-1.7524e-13
-1.75529e-13
-1.75236e-13
-1.7553e-13
-1.75234e-13
-1.75531e-13
-1.75232e-13
-1.75533e-13
-1.7523e-13
-1.75532e-13
-1.75232e-13
-1.75529e-13
-1.75235e-13
-1.75525e-13
-1.75237e-13
-1.75522e-13
-1.75237e-13
-1.7552e-13
-1.75236e-13
-1.75516e-13
-1.75239e-13
-1.7551e-13
-1.75245e-13
-1.75505e-13
-1.75246e-13
-1.755e-13
-1.75246e-13
-1.75495e-13
-1.75249e-13
-1.75492e-13
-1.75252e-13
-1.75487e-13
-1.75254e-13
-1.75484e-13
-1.75255e-13
-1.75481e-13
-1.75255e-13
-1.75478e-13
-1.75256e-13
-1.75476e-13
-1.75258e-13
-1.75474e-13
-1.7526e-13
-1.75471e-13
-1.75263e-13
-1.75469e-13
-1.75264e-13
-1.75467e-13
-1.75264e-13
-1.75465e-13
-1.75265e-13
-1.75464e-13
-1.75267e-13
-1.75464e-13
-1.75269e-13
-1.75463e-13
-1.75269e-13
-1.75464e-13
-1.7527e-13
-1.75464e-13
-1.75272e-13
-1.75465e-13
-1.75274e-13
-1.75464e-13
-1.75275e-13
-1.75465e-13
-1.75275e-13
-1.75467e-13
-1.75275e-13
-1.75469e-13
-1.75275e-13
-1.7547e-13
-1.75276e-13
-1.75472e-13
-1.75276e-13
-1.75474e-13
-1.75276e-13
-1.75475e-13
-1.75277e-13
-1.75477e-13
-1.75278e-13
-1.75477e-13
-1.75279e-13
-1.75479e-13
-1.75278e-13
-1.7548e-13
-1.75277e-13
-1.75481e-13
-1.75278e-13
-1.75483e-13
-1.75279e-13
-1.75483e-13
-1.7528e-13
-1.75484e-13
-1.7528e-13
-1.75484e-13
-1.7528e-13
-1.75484e-13
-1.7528e-13
-1.75484e-13
-1.7528e-13
-1.75485e-13
-1.75281e-13
-1.75485e-13
-1.75281e-13
-1.75485e-13
-1.75281e-13
-1.75485e-13
-1.7528e-13
-1.75484e-13
-1.75281e-13
-1.75485e-13
-1.7528e-13
-1.75486e-13
-1.7528e-13
-1.75486e-13
-1.7528e-13
-1.75485e-13
-1.75281e-13
-1.75485e-13
-1.7528e-13
-1.75486e-13
-1.7528e-13
-1.75486e-13
-1.7528e-13
-1.75487e-13
-1.7528e-13
-1.75487e-13
-1.7528e-13
-1.75487e-13
-1.7528e-13
-1.75488e-13
-1.75281e-13
-1.75488e-13
-1.75281e-13
-1.75489e-13
-1.7528e-13
-1.75489e-13
-1.7528e-13
-1.75489e-13
-1.7528e-13
-1.75489e-13
-1.7528e-13
-1.7549e-13
-1.75281e-13
-1.7549e-13
-1.75281e-13
-1.7549e-13
-1.75281e-13
-1.7549e-13
-1.75281e-13
-1.7549e-13
-1.75281e-13
-1.7549e-13
-1.75281e-13
-1.7549e-13
-1.75281e-13
-1.7549e-13
-1.75281e-13
-1.7549e-13
-1.75281e-13
-1.7549e-13
-1.75281e-13
-1.7549e-13
-1.75281e-13
-1.7549e-13
-1.75282e-13
-1.7549e-13
-1.75281e-13
-1.7549e-13
-1.75281e-13
-1.7549e-13
-1.75282e-13
-1.7549e-13
-1.75282e-13
-1.7549e-13
-1.75282e-13
-1.7549e-13
-1.75281e-13
-1.75491e-13
-1.75281e-13
-1.75491e-13
-1.75281e-13
-1.7549e-13
-1.75281e-13
-1.7549e-13
-1.75281e-13
-1.7549e-13
-1.75281e-13
-1.7549e-13
-1.75281e-13
-1.75491e-13
-1.75281e-13
-1.7549e-13
-1.75281e-13
-1.7549e-13
-1.75281e-13
-1.7549e-13
-1.75281e-13
-1.7549e-13
-1.75281e-13
-1.7549e-13
-1.75281e-13
-1.7549e-13
-1.75281e-13
-1.75491e-13
-1.75281e-13
-1.75491e-13
-1.75281e-13
-1.75491e-13
-1.75281e-13
-1.75491e-13
-1.75281e-13
-1.75491e-13
-1.75281e-13
-1.75491e-13
-1.75281e-13
-1.75491e-13
-1.75281e-13
-1.75491e-13
-1.75281e-13
-1.7549e-13
-1.75281e-13
-1.7549e-13
-1.75281e-13
-1.75491e-13
-1.75281e-13
-1.7549e-13
-1.75281e-13
-1.7549e-13
-1.75281e-13
-1.7549e-13
-1.75281e-13
-1.75491e-13
-1.75281e-13
-1.75491e-13
-1.75281e-13
-1.75491e-13
-1.75281e-13
-1.75491e-13
-1.75281e-13
-1.75491e-13
-1.75281e-13
-1.7549e-13
-1.75281e-13
-1.75491e-13
-1.75281e-13
-1.75491e-13
-1.75281e-13
-1.75491e-13
-1.75281e-13
-1.75491e-13
-1.75281e-13
-1.75491e-13
-1.75281e-13
-1.75491e-13
-1.75281e-13
-1.75491e-13
-1.75281e-13
-1.75491e-13
-1.75281e-13
-1.75491e-13
-1.75281e-13
-1.75491e-13
-1.75281e-13
-1.75491e-13
-1.75281e-13
-1.73778e-13
-1.7373e-13
-1.73888e-13
-1.73796e-13
-1.73939e-13
-1.73914e-13
-1.74009e-13
-1.73987e-13
-1.741e-13
-1.74075e-13
-1.74124e-13
-1.74089e-13
-1.74175e-13
-1.74058e-13
-1.74236e-13
-1.74087e-13
-1.74281e-13
-1.74141e-13
-1.74342e-13
-1.74168e-13
-1.74336e-13
-1.74198e-13
-1.74281e-13
-1.74266e-13
-1.74314e-13
-1.74296e-13
-1.74345e-13
-1.74319e-13
-1.74399e-13
-1.74335e-13
-1.74516e-13
-1.74372e-13
-1.74518e-13
-1.74421e-13
-1.74526e-13
-1.74488e-13
-1.74535e-13
-1.74581e-13
-1.74536e-13
-1.74609e-13
-1.74623e-13
-1.74607e-13
-1.7467e-13
-1.74633e-13
-1.74715e-13
-1.74687e-13
-1.74793e-13
-1.74702e-13
-1.74809e-13
-1.74706e-13
-1.74796e-13
-1.74733e-13
-1.74819e-13
-1.7475e-13
-1.74884e-13
-1.74794e-13
-1.74848e-13
-1.74756e-13
-1.7482e-13
-1.74745e-13
-1.74831e-13
-1.74833e-13
-1.74876e-13
-1.74844e-13
-1.74849e-13
-1.74849e-13
-1.74934e-13
-1.74813e-13
-1.74954e-13
-1.74803e-13
-1.7487e-13
-1.74782e-13
-1.74888e-13
-1.74771e-13
-1.7495e-13
-1.7479e-13
-1.74905e-13
-1.74797e-13
-1.74886e-13
-1.74814e-13
-1.7489e-13
-1.74807e-13
-1.74939e-13
-1.74813e-13
-1.74876e-13
-1.74812e-13
-1.74798e-13
-1.74788e-13
-1.74819e-13
-1.74721e-13
-1.74827e-13
-1.74748e-13
-1.74818e-13
-1.7477e-13
-1.74874e-13
-1.74748e-13
-1.74894e-13
-1.74719e-13
-1.74799e-13
-1.74662e-13
-1.74814e-13
-1.74658e-13
-1.74816e-13
-1.74668e-13
-1.74802e-13
-1.74627e-13
-1.74794e-13
-1.74555e-13
-1.74732e-13
-1.74598e-13
-1.74694e-13
-1.74634e-13
-1.74676e-13
-1.74667e-13
-1.74699e-13
-1.74637e-13
-1.747e-13
-1.74648e-13
-1.74702e-13
-1.74638e-13
-1.74725e-13
-1.74583e-13
-1.7473e-13
-1.74545e-13
-1.74717e-13
-1.745e-13
-1.74709e-13
-1.74513e-13
-1.74748e-13
-1.74519e-13
-1.74771e-13
-1.74563e-13
-1.74799e-13
-1.74622e-13
-1.7483e-13
-1.74631e-13
-1.74844e-13
-1.74567e-13
-1.74886e-13
-1.74495e-13
-1.74913e-13
-1.74502e-13
-1.74905e-13
-1.74587e-13
-1.74926e-13
-1.74619e-13
-1.74908e-13
-1.74621e-13
-1.7494e-13
-1.74638e-13
-1.74978e-13
-1.74648e-13
-1.74976e-13
-1.7465e-13
-1.7498e-13
-1.74679e-13
-1.74989e-13
-1.74748e-13
-1.75026e-13
-1.74776e-13
-1.75009e-13
-1.74799e-13
-1.74984e-13
-1.74783e-13
-1.74997e-13
-1.74775e-13
-1.75002e-13
-1.74808e-13
-1.7501e-13
-1.74815e-13
-1.75022e-13
-1.74819e-13
-1.75036e-13
-1.74796e-13
-1.75042e-13
-1.74803e-13
-1.7504e-13
-1.74853e-13
-1.75029e-13
-1.749e-13
-1.7502e-13
-1.74911e-13
-1.75012e-13
-1.74884e-13
-1.75005e-13
-1.74868e-13
-1.75012e-13
-1.74873e-13
-1.75008e-13
-1.74876e-13
-1.74983e-13
-1.74854e-13
-1.74994e-13
-1.74854e-13
-1.74995e-13
-1.74851e-13
-1.74997e-13
-1.74847e-13
-1.74989e-13
-1.74842e-13
-1.74982e-13
-1.74822e-13
-1.74977e-13
-1.74836e-13
-1.74996e-13
-1.7486e-13
-1.75005e-13
-1.74882e-13
-1.75003e-13
-1.7488e-13
-1.75003e-13
-1.74842e-13
-1.75016e-13
-1.74826e-13
-1.75018e-13
-1.74843e-13
-1.75011e-13
-1.7487e-13
-1.75005e-13
-1.74872e-13
-1.75012e-13
-1.74874e-13
-1.7502e-13
-1.74874e-13
-1.75029e-13
-1.74886e-13
-1.75039e-13
-1.74919e-13
-1.7504e-13
-1.74928e-13
-1.75052e-13
-1.74914e-13
-1.75066e-13
-1.74928e-13
-1.75075e-13
-1.74958e-13
-1.75085e-13
-1.74959e-13
-1.7509e-13
-1.74964e-13
-1.75085e-13
-1.7497e-13
-1.75109e-13
-1.74974e-13
-1.7511e-13
-1.74984e-13
-1.75141e-13
-1.74993e-13
-1.75168e-13
-1.75008e-13
-1.75172e-13
-1.75021e-13
-1.75189e-13
-1.75017e-13
-1.75206e-13
-1.75024e-13
-1.75214e-13
-1.75057e-13
-1.75227e-13
-1.75096e-13
-1.75231e-13
-1.75106e-13
-1.7524e-13
-1.75111e-13
-1.75234e-13
-1.75131e-13
-1.7525e-13
-1.75152e-13
-1.75245e-13
-1.75161e-13
-1.75246e-13
-1.75175e-13
-1.75258e-13
-1.752e-13
-1.7527e-13
-1.75219e-13
-1.75266e-13
-1.75238e-13
-1.75263e-13
-1.75236e-13
-1.75259e-13
-1.75244e-13
-1.7525e-13
-1.75263e-13
-1.75252e-13
-1.75277e-13
-1.75249e-13
-1.75302e-13
-1.75245e-13
-1.75311e-13
-1.75251e-13
-1.7532e-13
-1.75257e-13
-1.75325e-13
-1.75268e-13
-1.75324e-13
-1.75263e-13
-1.75334e-13
-1.75258e-13
-1.75355e-13
-1.75273e-13
-1.75366e-13
-1.75283e-13
-1.75356e-13
-1.75281e-13
-1.75362e-13
-1.75283e-13
-1.75366e-13
-1.75291e-13
-1.75363e-13
-1.75294e-13
-1.75357e-13
-1.75304e-13
-1.75354e-13
-1.75314e-13
-1.75359e-13
-1.75324e-13
-1.75364e-13
-1.75331e-13
-1.7536e-13
-1.75338e-13
-1.75351e-13
-1.75344e-13
-1.75347e-13
-1.75351e-13
-1.75345e-13
-1.75355e-13
-1.75346e-13
-1.75354e-13
-1.75335e-13
-1.75357e-13
-1.75329e-13
-1.75359e-13
-1.7533e-13
-1.75367e-13
-1.75327e-13
-1.75368e-13
-1.75328e-13
-1.75364e-13