/*--------------------------------*- C++ -*----------------------------------*\
| =========                 |                                                 |
| \\      /  F ield         | OpenFOAM: The Open Source CFD Toolbox           |
|  \\    /   O peration     | Version:  2106                                  |
|   \\  /    A nd           | Website:  www.openfoam.com                      |
|    \\/     M anipulation  |                                                 |
\*---------------------------------------------------------------------------*/
FoamFile
{
    version     2.0;
    format      ascii;
    arch        "LSB;label=32;scalar=64";
    class       surfaceScalarField;
    location    "13000";
    object      phi;
}
// * * * * * * * * * * * * * * * * * * * * * * * * * * * * * * * * * * * * * //

dimensions      [0 3 -1 0 0 0 0];

oriented        oriented;

internalField   nonuniform List<scalar> 
5116
(
6.60316e-09
-1.66503e-18
3.32027e-22
5.66943e-22
4.02791e-23
2.01929e-08
-1.66911e-18
1.425e-21
3.08407e-21
1.47257e-22
3.43735e-08
-1.67329e-18
1.46305e-21
5.65065e-21
1.53748e-22
4.91653e-08
-1.67758e-18
1.49626e-21
8.27313e-21
1.60503e-22
6.45891e-08
-1.68197e-18
1.53105e-21
1.0959e-20
1.67533e-22
8.06666e-08
-1.68646e-18
1.56724e-21
1.37046e-20
1.74847e-22
9.74199e-08
-1.69104e-18
1.60429e-21
1.64965e-20
1.82456e-22
1.14872e-07
-1.69571e-18
1.64204e-21
1.93623e-20
1.90371e-22
1.33047e-07
-1.70052e-18
1.68056e-21
2.22927e-20
1.98603e-22
1.51968e-07
-1.70538e-18
1.71986e-21
2.5234e-20
2.07164e-22
1.71662e-07
-1.71037e-18
1.75995e-21
2.82948e-20
2.16067e-22
1.92153e-07
-1.71552e-18
1.80086e-21
3.13733e-20
2.25323e-22
2.1347e-07
-1.72072e-18
1.84258e-21
3.44939e-20
2.34945e-22
2.35638e-07
-1.72609e-18
1.88513e-21
3.77079e-20
2.44948e-22
2.58688e-07
-1.73148e-18
1.92852e-21
4.09394e-20
2.55345e-22
2.82648e-07
-1.73713e-18
1.97274e-21
4.43491e-20
2.66151e-22
3.07549e-07
-1.74278e-18
2.01783e-21
4.76944e-20
2.77379e-22
3.33422e-07
-1.74856e-18
2.06378e-21
5.11904e-20
2.89047e-22
3.60298e-07
-1.75458e-18
2.1106e-21
5.47563e-20
3.01166e-22
3.88212e-07
-1.76059e-18
2.15831e-21
5.82755e-20
3.13753e-22
4.17198e-07
-1.76681e-18
2.20692e-21
6.19932e-20
3.26826e-22
4.47291e-07
-1.77319e-18
2.25644e-21
6.57267e-20
3.40398e-22
4.78526e-07
-1.77967e-18
2.30688e-21
6.94203e-20
3.54489e-22
5.10943e-07
-1.78619e-18
2.35824e-21
7.33132e-20
3.69117e-22
5.4458e-07
-1.79293e-18
2.41054e-21
7.72772e-20
3.84299e-22
5.79476e-07
-1.79978e-18
2.46379e-21
8.12046e-20
4.00054e-22
6.15672e-07
-1.80686e-18
2.518e-21
8.54917e-20
4.16404e-22
6.53212e-07
-1.81413e-18
2.57318e-21
8.97447e-20
4.33366e-22
6.92138e-07
-1.82116e-18
2.62934e-21
9.40135e-20
4.50966e-22
7.32496e-07
-1.82861e-18
2.68648e-21
9.83569e-20
4.69223e-22
7.74333e-07
-1.83613e-18
2.74462e-21
1.0267e-19
4.8816e-22
8.17695e-07
-1.84374e-18
2.80377e-21
1.0704e-19
5.07797e-22
8.62633e-07
-1.85172e-18
2.86393e-21
1.11583e-19
5.28157e-22
9.09197e-07
-1.85995e-18
2.92511e-21
1.16298e-19
5.49264e-22
9.5744e-07
-1.86795e-18
2.98732e-21
1.20737e-19
5.71143e-22
1.00741e-06
-1.87611e-18
3.05057e-21
1.25183e-19
5.93821e-22
1.05918e-06
-1.88481e-18
3.11486e-21
1.30154e-19
6.17331e-22
1.11279e-06
-1.89353e-18
3.1802e-21
1.34997e-19
6.4169e-22
1.1683e-06
-1.90253e-18
3.2466e-21
1.39937e-19
6.66931e-22
1.22578e-06
-1.91138e-18
3.31408e-21
1.44765e-19
6.9308e-22
1.28528e-06
-1.9205e-18
3.38263e-21
1.50236e-19
7.20168e-22
1.34688e-06
-1.92978e-18
3.45228e-21
1.55329e-19
7.4821e-22
1.41063e-06
-1.93905e-18
3.52301e-21
1.60483e-19
7.77244e-22
1.47661e-06
-1.9488e-18
3.59481e-21
1.65795e-19
8.07305e-22
1.54489e-06
-1.95904e-18
3.6677e-21
1.71424e-19
8.38408e-22
1.61554e-06
-1.96926e-18
3.7417e-21
1.77208e-19
8.70587e-22
1.68863e-06
-1.97967e-18
3.81681e-21
1.82754e-19
9.03871e-22
1.76424e-06
-1.9901e-18
3.89301e-21
1.88601e-19
9.38301e-22
1.84244e-06
-2.00063e-18
3.97031e-21
1.94285e-19
9.73902e-22
1.92333e-06
-2.01211e-18
4.0487e-21
2.00394e-19
1.01072e-21
2.00698e-06
-2.0229e-18
4.12822e-21
2.05968e-19
1.04876e-21
2.09347e-06
-2.03276e-18
4.20884e-21
2.10995e-19
1.08806e-21
2.1829e-06
-2.04447e-18
4.29049e-21
2.16833e-19
1.1287e-21
2.27535e-06
-2.05556e-18
4.37324e-21
2.22324e-19
1.17068e-21
2.37092e-06
-2.06727e-18
4.45702e-21
2.27983e-19
1.21408e-21
2.46971e-06
-2.07951e-18
4.54183e-21
2.3441e-19
1.25891e-21
2.5718e-06
-2.09188e-18
4.62765e-21
2.40635e-19
1.3052e-21
2.67729e-06
-2.10415e-18
4.71446e-21
2.47258e-19
1.35297e-21
2.7863e-06
-2.11634e-18
4.80224e-21
2.53692e-19
1.40222e-21
2.89892e-06
-2.12904e-18
4.89093e-21
2.60253e-19
1.45301e-21
3.01526e-06
-2.14188e-18
4.98051e-21
2.66733e-19
1.50538e-21
3.13543e-06
-2.15448e-18
5.07094e-21
2.73114e-19
1.55933e-21
3.25954e-06
-2.16827e-18
5.16214e-21
2.80157e-19
1.61487e-21
3.38771e-06
-2.18246e-18
5.25409e-21
2.8708e-19
1.67203e-21
3.52004e-06
-2.19611e-18
5.34675e-21
2.94258e-19
1.73082e-21
3.65665e-06
-2.21013e-18
5.43997e-21
3.0091e-19
1.7912e-21
3.79768e-06
-2.22401e-18
5.53369e-21
3.07374e-19
1.85327e-21
3.94322e-06
-2.23809e-18
5.62781e-21
3.13327e-19
1.917e-21
4.09342e-06
-2.25216e-18
5.72223e-21
3.19959e-19
1.98243e-21
4.24839e-06
-2.26558e-18
5.81683e-21
3.25973e-19
2.04955e-21
4.40826e-06
-2.27895e-18
5.91145e-21
3.31313e-19
2.11839e-21
4.57316e-06
-2.29379e-18
6.00589e-21
3.36533e-19
2.18897e-21
4.74321e-06
-2.30924e-18
6.10006e-21
3.44178e-19
2.26129e-21
4.91854e-06
-2.3253e-18
6.19383e-21
3.52668e-19
2.33525e-21
5.09928e-06
-2.34127e-18
6.28711e-21
3.59903e-19
2.41075e-21
5.28555e-06
-2.35708e-18
6.37964e-21
3.67121e-19
2.48775e-21
5.4775e-06
-2.37237e-18
6.47122e-21
3.7472e-19
2.56616e-21
5.67524e-06
-2.38841e-18
6.5616e-21
3.8152e-19
2.64587e-21
5.87891e-06
-2.40505e-18
6.6506e-21
3.89185e-19
2.72694e-21
6.08862e-06
-2.42061e-18
6.73814e-21
3.94822e-19
2.80918e-21
6.30451e-06
-2.43672e-18
6.82385e-21
4.01464e-19
2.89251e-21
6.5267e-06
-2.45395e-18
6.90747e-21
4.09739e-19
2.97685e-21
6.7553e-06
-2.47117e-18
6.98872e-21
4.17597e-19
3.0618e-21
6.99044e-06
-2.48877e-18
7.06723e-21
4.2456e-19
3.14746e-21
7.23222e-06
-2.50501e-18
7.1429e-21
4.31526e-19
3.23373e-21
7.48077e-06
-2.52183e-18
7.21535e-21
4.3797e-19
3.32026e-21
7.73619e-06
-2.53953e-18
7.28428e-21
4.4396e-19
3.40694e-21
7.99859e-06
-2.55865e-18
7.3495e-21
4.50818e-19
3.49363e-21
8.26807e-06
-2.57545e-18
7.41101e-21
4.54788e-19
3.58021e-21
8.54471e-06
-2.59159e-18
7.46816e-21
4.59917e-19
3.66681e-21
8.82863e-06
-2.60731e-18
7.52041e-21
4.63746e-19
3.75324e-21
9.1199e-06
-2.62435e-18
7.56763e-21
4.67192e-19
3.83941e-21
9.41862e-06
-2.64281e-18
7.60962e-21
4.72524e-19
3.92556e-21
9.72486e-06
-2.66302e-18
7.6463e-21
4.81873e-19
4.01159e-21
1.00387e-05
-2.68146e-18
7.67755e-21
4.89822e-19
4.09617e-21
1.03602e-05
-2.70114e-18
7.70274e-21
4.98774e-19
4.17935e-21
1.06895e-05
-2.71712e-18
7.72194e-21
5.03996e-19
4.26094e-21
1.10265e-05
-2.73124e-18
7.73443e-21
5.10689e-19
4.34144e-21
1.13714e-05
-2.74829e-18
7.7399e-21
5.16709e-19
4.42027e-21
1.17243e-05
-2.76294e-18
7.73896e-21
5.20648e-19
4.49669e-21
1.20852e-05
-2.77789e-18
7.73119e-21
5.26299e-19
4.57095e-21
1.24541e-05
-2.79118e-18
7.71699e-21
5.28728e-19
4.64288e-21
1.28311e-05
-2.80543e-18
7.69562e-21
5.33262e-19
4.71274e-21
1.32162e-05
-2.82377e-18
7.66763e-21
5.36469e-19
4.78044e-21
1.36096e-05
-2.83797e-18
7.63381e-21
5.38455e-19
4.84614e-21
1.40113e-05
-2.8529e-18
7.59294e-21
5.40674e-19
4.90953e-21
1.44212e-05
-2.87163e-18
7.54588e-21
5.47491e-19
4.97053e-21
1.48396e-05
-2.88957e-18
7.49278e-21
5.51518e-19
5.02768e-21
1.52663e-05
-2.90417e-18
7.43331e-21
5.54434e-19
5.08214e-21
1.57016e-05
-2.91868e-18
7.36745e-21
5.5403e-19
5.13359e-21
1.61454e-05
-2.93319e-18
7.29547e-21
5.55183e-19
5.18274e-21
1.65979e-05
-2.94525e-18
7.21838e-21
5.55683e-19
5.22958e-21
1.7059e-05
-2.96024e-18
7.13569e-21
5.56636e-19
5.27346e-21
1.75289e-05
-2.97598e-18
7.0485e-21
5.54611e-19
5.31415e-21
1.80076e-05
-2.9893e-18
6.95672e-21
5.54747e-19
5.35296e-21
1.84953e-05
-3.00278e-18
6.86052e-21
5.55563e-19
5.38877e-21
1.89919e-05
-3.0147e-18
6.76116e-21
5.54642e-19
5.42071e-21
1.94976e-05
-3.02234e-18
6.65731e-21
5.52537e-19
5.44933e-21
2.00125e-05
-3.03624e-18
6.54863e-21
5.46452e-19
5.47518e-21
2.05367e-05
-3.043e-18
6.43793e-21
5.44628e-19
5.50006e-21
2.10702e-05
-3.04885e-18
6.32202e-21
5.38723e-19
5.5213e-21
2.16132e-05
-3.05518e-18
6.20063e-21
5.34791e-19
5.54095e-21
2.21658e-05
-3.06309e-18
6.07464e-21
5.28463e-19
5.55774e-21
2.27281e-05
-3.0708e-18
5.9428e-21
5.26364e-19
5.57399e-21
2.33002e-05
-3.07874e-18
5.80678e-21
5.21173e-19
5.58652e-21
2.38822e-05
-3.08406e-18
5.66558e-21
5.12129e-19
5.59593e-21
2.44744e-05
-3.09536e-18
5.52042e-21
5.13296e-19
5.60303e-21
2.50767e-05
-3.09966e-18
5.37324e-21
5.07099e-19
5.60505e-21
2.56894e-05
-3.10108e-18
5.22338e-21
4.98488e-19
5.60415e-21
2.63125e-05
-3.10664e-18
5.0678e-21
4.96824e-19
5.60343e-21
2.69463e-05
-3.10661e-18
4.91041e-21
4.87742e-19
5.59972e-21
2.7591e-05
-3.1187e-18
4.74936e-21
4.89637e-19
5.59654e-21
2.82465e-05
-3.12812e-18
4.58794e-21
4.85873e-19
5.58694e-21
2.89132e-05
-3.12924e-18
4.42727e-21
4.72197e-19
5.57095e-21
2.95911e-05
-3.13375e-18
4.26263e-21
4.75321e-19
5.55337e-21
3.02806e-05
-3.14192e-18
4.09543e-21
4.68941e-19
5.52806e-21
3.09816e-05
-3.13668e-18
3.92754e-21
4.55807e-19
5.495e-21
3.16945e-05
-3.13817e-18
3.75109e-21
4.44683e-19
5.45959e-21
3.24193e-05
-3.13097e-18
3.57349e-21
4.25713e-19
5.41952e-21
3.31564e-05
-3.12274e-18
3.38976e-21
4.14996e-19
5.37626e-21
3.39059e-05
-3.11699e-18
3.19989e-21
3.97242e-19
5.32889e-21
3.46679e-05
-3.11379e-18
3.00615e-21
3.76462e-19
5.28566e-21
3.54428e-05
-3.10853e-18
2.80869e-21
3.71165e-19
5.24108e-21
3.62306e-05
-3.09844e-18
2.60481e-21
3.56576e-19
5.1869e-21
3.70317e-05
-3.09216e-18
2.39555e-21
3.41015e-19
5.13171e-21
3.78463e-05
-3.08463e-18
2.18163e-21
3.23537e-19
5.07125e-21
3.86744e-05
-3.07492e-18
1.96541e-21
3.10714e-19
5.00543e-21
3.95165e-05
-3.0616e-18
1.74516e-21
2.98109e-19
4.93056e-21
4.03727e-05
-3.05273e-18
1.5141e-21
2.72816e-19
4.84989e-21
4.12433e-05
-3.03722e-18
1.27928e-21
2.53096e-19
4.77411e-21
4.21285e-05
-3.0247e-18
1.03782e-21
2.32927e-19
4.69839e-21
4.30285e-05
-3.01654e-18
7.89116e-22
2.13215e-19
4.62441e-21
4.39437e-05
-3.00264e-18
5.38457e-22
1.94381e-19
4.54992e-21
4.48742e-05
-2.97863e-18
2.84176e-22
1.75329e-19
4.47385e-21
4.58203e-05
-2.96187e-18
2.00897e-23
1.54299e-19
4.39932e-21
4.67823e-05
-2.94873e-18
-2.45321e-22
1.30456e-19
4.3189e-21
4.77605e-05
-2.92758e-18
-5.17934e-22
1.0829e-19
4.23607e-21
4.87551e-05
-2.92089e-18
-7.938e-22
9.64429e-20
4.15838e-21
4.97664e-05
-2.9085e-18
-1.0761e-21
8.9115e-20
4.07477e-21
5.07947e-05
-2.89406e-18
-1.37065e-21
7.918e-20
3.98067e-21
5.18404e-05
-2.87153e-18
-1.66206e-21
6.77144e-20
3.87278e-21
5.29036e-05
-2.87916e-18
-1.96218e-21
5.61286e-20
3.76394e-21
5.39847e-05
-2.88247e-18
-2.25133e-21
4.47757e-20
3.64173e-21
5.50839e-05
-2.87532e-18
-2.53014e-21
3.58781e-20
3.50288e-21
5.62017e-05
-2.86057e-18
-2.81347e-21
1.67666e-20
3.35474e-21
5.73383e-05
-2.86113e-18
-3.10598e-21
7.20806e-21
3.19616e-21
5.84941e-05
-2.85319e-18
-3.3814e-21
-6.06294e-21
3.02046e-21
5.96693e-05
-2.83512e-18
-3.66741e-21
-1.85634e-20
2.8426e-21
6.08644e-05
-2.82474e-18
-3.95795e-21
-3.65658e-20
2.66411e-21
6.20795e-05
-2.81211e-18
-4.2396e-21
-5.8799e-20
2.49339e-21
6.33152e-05
-2.80303e-18
-4.5204e-21
-6.20794e-20
2.31908e-21
6.45717e-05
-2.79118e-18
-4.81015e-21
-6.25239e-20
2.13006e-21
6.58494e-05
-2.78744e-18
-5.11975e-21
-8.43737e-20
1.94644e-21
6.71486e-05
-2.78348e-18
-5.42464e-21
-9.49309e-20
1.77059e-21
6.84698e-05
-2.7766e-18
-5.69221e-21
-1.16676e-19
1.5742e-21
6.98132e-05
-2.77061e-18
-5.93565e-21
-1.21458e-19
1.37865e-21
7.11794e-05
-2.7495e-18
-6.15144e-21
-1.45125e-19
1.17128e-21
7.25686e-05
-2.72291e-18
-6.36e-21
-1.62363e-19
9.41599e-22
7.39812e-05
-2.72104e-18
-6.59572e-21
-1.72891e-19
7.39684e-22
7.54177e-05
-2.71364e-18
-6.80358e-21
-1.77786e-19
5.3601e-22
7.68785e-05
-2.69927e-18
-6.98968e-21
-1.93598e-19
2.93401e-22
7.83639e-05
-2.68478e-18
-7.14595e-21
-2.11708e-19
5.65975e-23
7.98744e-05
-2.68116e-18
-7.31757e-21
-2.30001e-19
-1.74397e-22
8.14104e-05
-2.66351e-18
-7.47025e-21
-2.34216e-19
-3.66036e-22
8.29724e-05
-2.64874e-18
-7.6416e-21
-2.31218e-19
-5.49788e-22
8.45608e-05
-2.63269e-18
-7.84775e-21
-2.3418e-19
-7.63157e-22
8.6176e-05
-2.61194e-18
-8.06773e-21
-2.63949e-19
-9.94416e-22
8.78184e-05
-2.58773e-18
-8.30316e-21
-2.90114e-19
-1.238e-21
8.94887e-05
-2.56818e-18
-8.54034e-21
-3.13659e-19
-1.47994e-21
9.11871e-05
-2.56108e-18
-8.76669e-21
-3.27201e-19
-1.71788e-21
9.29142e-05
-2.54227e-18
-8.94892e-21
-3.467e-19
-1.92736e-21
9.46705e-05
-2.51878e-18
-9.11174e-21
-3.68776e-19
-2.12898e-21
9.64565e-05
-2.50268e-18
-9.29146e-21
-3.82972e-19
-2.28499e-21
9.82726e-05
-2.45858e-18
-9.46335e-21
-4.2388e-19
-2.41555e-21
0.000100119
-2.45009e-18
-9.69502e-21
-4.40157e-19
-2.46637e-21
0.000101997
-2.42158e-18
-9.88895e-21
-4.62524e-19
-2.50883e-21
0.000103907
-2.39644e-18
-1.00855e-20
-4.74155e-19
-2.53837e-21
0.000105849
-2.39107e-18
-1.02161e-20
-4.98892e-19
-2.55315e-21
0.000107824
-2.36909e-18
-1.03037e-20
-5.21568e-19
-2.5824e-21
0.000109832
-2.33927e-18
-1.04126e-20
-5.46576e-19
-2.58109e-21
0.000111874
-2.28553e-18
-1.04691e-20
-5.72254e-19
-2.54229e-21
0.00011395
-2.27034e-18
-1.05259e-20
-5.66217e-19
-2.43577e-21
0.000116061
-2.25165e-18
-1.05262e-20
-5.86383e-19
-2.33172e-21
0.000118208
-2.24213e-18
-1.05138e-20
-5.90776e-19
-2.14573e-21
0.000120391
-2.22224e-18
-1.04311e-20
-5.93041e-19
-1.94677e-21
0.000122611
-2.2098e-18
-1.02938e-20
-5.91015e-19
-1.79555e-21
0.000124869
-2.17884e-18
-1.01835e-20
-5.63954e-19
-1.61739e-21
0.000127164
-2.17049e-18
-1.01654e-20
-5.38915e-19
-1.48926e-21
0.000129498
-2.14373e-18
-1.01473e-20
-5.49852e-19
-1.51561e-21
0.000131872
-2.1299e-18
-1.01669e-20
-5.6543e-19
-1.63483e-21
0.000134285
-2.14643e-18
-1.01589e-20
-5.21741e-19
-1.6711e-21
0.000136739
-2.1224e-18
-9.92958e-21
-5.31793e-19
-1.90886e-21
0.000139234
-2.0933e-18
-9.71323e-21
-5.56611e-19
-2.02977e-21
0.000141771
-2.08865e-18
-9.58179e-21
-5.64911e-19
-2.03738e-21
0.000144351
-2.06157e-18
-9.3659e-21
-5.61616e-19
-1.9556e-21
0.000146974
-2.03122e-18
-9.05575e-21
-5.8225e-19
-1.92367e-21
0.000149641
-2.00892e-18
-8.83608e-21
-5.87924e-19
-1.71614e-21
0.000152353
-1.98533e-18
-8.59418e-21
-5.92667e-19
-1.50718e-21
0.00015511
-1.99223e-18
-8.47388e-21
-5.98784e-19
-1.25872e-21
0.000157914
-1.97106e-18
-8.20816e-21
-5.8827e-19
-8.12376e-22
0.000160765
-1.93368e-18
-7.87509e-21
-6.20601e-19
-6.01436e-22
0.000163663
-1.93059e-18
-7.46504e-21
-6.26084e-19
-5.12675e-22
0.00016661
-1.88844e-18
-7.03375e-21
-6.23916e-19
-2.14569e-22
0.000169607
-1.86994e-18
-6.73091e-21
-6.61917e-19
8.54465e-23
0.000172653
-1.84134e-18
-6.50719e-21
-6.67883e-19
2.58376e-22
0.000175751
-1.77989e-18
-6.24695e-21
-6.96233e-19
3.53861e-22
0.0001789
-1.80441e-18
-6.03577e-21
-7.24856e-19
6.27328e-22
0.000182102
-1.8038e-18
-5.84507e-21
-7.29415e-19
9.54675e-22
0.000185357
-1.78929e-18
-5.66024e-21
-7.26777e-19
1.14858e-21
0.000188666
-1.77269e-18
-5.63232e-21
-7.40042e-19
1.08062e-21
0.000192031
-1.78294e-18
-5.66983e-21
-7.86436e-19
8.29371e-22
0.000195452
-1.77397e-18
-5.65106e-21
-7.91131e-19
1.07112e-21
0.00019893
-1.78284e-18
-5.46317e-21
-7.73407e-19
1.21145e-21
0.000202465
-1.77211e-18
-5.25876e-21
-7.5946e-19
1.12815e-21
0.00020606
-1.7691e-18
-5.16658e-21
-7.76888e-19
8.34674e-22
0.000209714
-1.7605e-18
-5.04941e-21
-8.00691e-19
8.25203e-22
0.000213428
-1.72856e-18
-5.04654e-21
-8.30491e-19
1.14452e-21
0.000217205
-1.7479e-18
-5.04568e-21
-8.23835e-19
1.34206e-21
0.000221044
-1.73028e-18
-4.96257e-21
-8.24082e-19
1.34672e-21
0.000224946
-1.7529e-18
-4.78724e-21
-8.17431e-19
1.25237e-21
0.000228913
-1.71208e-18
-4.43439e-21
-8.26928e-19
1.34595e-21
0.000232946
-1.7115e-18
-4.18872e-21
-8.3074e-19
1.2112e-21
0.000237045
-1.709e-18
-3.65557e-21
-8.28791e-19
1.18727e-21
0.000241212
-1.71657e-18
-2.91604e-21
-7.8074e-19
9.44198e-22
0.000245448
-1.62992e-18
-2.05022e-21
-8.55529e-19
5.43058e-22
0.000249753
-1.5913e-18
-2.29529e-21
-9.0166e-19
1.36028e-21
0.000254129
-1.51375e-18
-1.45886e-21
-8.97053e-19
2.38461e-21
0.000258578
-1.36503e-18
-5.09933e-22
-8.79121e-19
2.69085e-21
0.000263099
-1.31368e-18
-7.5325e-22
-8.64217e-19
2.96549e-21
0.000267694
-1.33451e-18
-1.11056e-21
-8.32539e-19
3.40344e-21
0.000272364
-1.28375e-18
-6.87151e-22
-8.49325e-19
3.55061e-21
0.000277111
-1.18422e-18
-7.99967e-22
-8.00498e-19
4.27084e-21
0.000281936
-1.19285e-18
-1.78496e-21
-8.282e-19
4.27288e-21
0.000286839
-1.162e-18
-2.82301e-21
-8.06972e-19
5.13858e-21
0.000291822
-1.17514e-18
-4.27081e-21
-8.11661e-19
4.78856e-21
0.000296886
-1.13175e-18
-4.58104e-21
-8.4755e-19
4.77887e-21
0.000302033
-1.21596e-18
-5.8034e-21
-8.04478e-19
4.41135e-21
0.000307262
-1.18094e-18
-6.55923e-21
-8.09072e-19
3.89497e-21
0.000312577
-1.15954e-18
-6.75325e-21
-8.16912e-19
3.20912e-21
0.000317978
-1.13833e-18
-6.64516e-21
-8.10751e-19
2.8683e-21
0.000323465
-1.12927e-18
-8.01306e-21
-8.31814e-19
3.04767e-21
0.000329042
-1.08002e-18
-9.379e-21
-8.9673e-19
3.08269e-21
0.000334707
-1.14266e-18
-1.01265e-20
-8.37285e-19
1.86457e-21
0.000340464
-1.15696e-18
-1.11081e-20
-8.82262e-19
-1.4115e-21
0.000346314
-1.13211e-18
-1.20197e-20
-9.11499e-19
-4.98371e-21
0.000352256
-1.05356e-18
-1.27907e-20
-9.77535e-19
-8.1334e-21
0.000358294
-1.08222e-18
-1.48261e-20
-9.56252e-19
-9.6329e-21
0.000364428
-1.08176e-18
-1.59024e-20
-9.80248e-19
-1.09807e-20
0.000370659
-1.01483e-18
-1.61653e-20
-9.5951e-19
-1.10724e-20
0.000376989
-1.00412e-18
-1.74893e-20
-9.80188e-19
-1.16126e-20
0.00038342
-1.02142e-18
-1.81775e-20
-1.01575e-18
-1.1637e-20
0.000389951
-1.01182e-18
-1.8452e-20
-9.84149e-19
-1.11833e-20
0.000396586
-9.81112e-19
-1.91373e-20
-9.90578e-19
-1.25015e-20
0.000403325
-9.74014e-19
-2.08774e-20
-9.95712e-19
-1.34313e-20
0.000410169
-9.52514e-19
-2.23956e-20
-8.9139e-19
-1.31931e-20
0.00041712
-9.59636e-19
-2.34375e-20
-9.27292e-19
-1.54183e-20
0.000424179
-9.03091e-19
-2.28946e-20
-9.29985e-19
-1.62915e-20
0.000431348
-9.68695e-19
-2.29573e-20
-8.98905e-19
-1.83696e-20
0.000438627
-9.418e-19
-2.17705e-20
-8.93828e-19
-2.00217e-20
0.000446019
-1.01026e-18
-2.00086e-20
-8.63638e-19
-2.01479e-20
0.000453523
-9.16307e-19
-1.7422e-20
-8.68175e-19
-2.1075e-20
0.000461143
-9.11607e-19
-1.69429e-20
-8.42362e-19
-1.97805e-20
0.000468878
-8.65868e-19
-1.77015e-20
-8.07617e-19
-1.96891e-20
0.000476731
-8.88208e-19
-1.81393e-20
-7.67699e-19
-2.15081e-20
0.000484702
-7.64144e-19
-1.58429e-20
-8.673e-19
-2.26284e-20
0.000492793
-6.9909e-19
-1.73662e-20
-9.44862e-19
-2.13857e-20
0.000501004
-9.08778e-19
-2.23036e-20
-9.5648e-19
-2.16884e-20
0.000509337
-8.62077e-19
-2.54619e-20
-9.49522e-19
-2.4847e-20
0.000517794
-9.26003e-19
-2.87385e-20
-9.19339e-19
-2.1662e-20
0.000526374
-1.01972e-18
-2.86057e-20
-9.80777e-19
-2.19596e-20
0.000535079
-1.03303e-18
-3.21897e-20
-1.03483e-18
-2.37673e-20
0.000543911
-1.18368e-18
-3.37469e-20
-9.97793e-19
-2.96712e-20
0.000552869
-1.0351e-18
-2.65815e-20
-1.00386e-18
-3.12285e-20
0.000561956
-1.05642e-18
-2.32301e-20
-1.04073e-18
-3.18362e-20
0.00057117
-1.07891e-18
-1.81637e-20
-9.87961e-19
-2.73385e-20
0.000580514
-1.06168e-18
-1.12085e-20
-1.03141e-18
-2.55809e-20
0.000589987
-7.50405e-19
-6.78029e-21
-9.92144e-19
-2.29124e-20
0.000599591
-8.53513e-19
-1.71653e-20
-8.8061e-19
-1.5784e-20
0.000609325
-7.87929e-19
-1.85024e-20
-8.7276e-19
-1.49478e-20
0.000619189
-9.03954e-19
-2.81461e-20
-8.49947e-19
-2.38264e-20
0.000629184
-8.83009e-19
-3.4729e-20
-8.81354e-19
-2.72804e-20
0.00063931
-9.2786e-19
-4.32409e-20
-8.64965e-19
-2.64165e-20
0.000649567
-9.37003e-19
-4.28417e-20
-8.71645e-19
-3.20421e-20
0.000659953
-8.20723e-19
-4.80608e-20
-9.30059e-19
-3.68262e-20
0.000670468
-1.066e-18
-6.59866e-20
-9.78342e-19
-3.93686e-20
0.000681111
-1.03847e-18
-6.92891e-20
-9.17597e-19
-4.10392e-20
0.000691882
-9.55649e-19
-6.70917e-20
-8.9811e-19
-4.67682e-20
0.000702778
-1.01247e-18
-6.86183e-20
-8.76558e-19
-5.21163e-20
0.000713798
-9.24578e-19
-6.73123e-20
-8.28248e-19
-5.21709e-20
0.00072494
-9.04067e-19
-6.11891e-20
-9.30697e-19
-4.99975e-20
0.000736202
-8.17041e-19
-5.90364e-20
-8.3478e-19
-4.42022e-20
0.000747581
-9.01063e-19
-6.36328e-20
-9.18085e-19
-4.47729e-20
0.000759073
-8.75149e-19
-4.47609e-20
-9.08247e-19
-4.44132e-20
0.000770676
-7.97607e-19
-4.62675e-20
-9.38821e-19
-4.25313e-20
0.000782386
-8.10818e-19
-5.03577e-20
-8.22071e-19
-3.82146e-20
0.000794198
-7.50822e-19
-5.18318e-20
-8.07734e-19
-4.31475e-20
0.000806109
-7.79129e-19
-5.51377e-20
-8.39092e-19
-4.36298e-20
0.000818112
-7.02068e-19
-5.02273e-20
-6.34453e-19
-3.79886e-20
0.000830203
-6.82543e-19
-4.62611e-20
-6.766e-19
-4.85212e-20
0.000842376
-4.37756e-20
-7.65001e-19
-4.43958e-20
-6.4238e-19
6.60316e-09
3.08631e-22
6.3819e-23
2.01929e-08
1.63449e-21
3.12426e-22
3.43735e-08
2.9882e-21
5.78302e-22
4.91653e-08
4.36189e-21
8.50704e-22
6.45891e-08
5.77862e-21
1.13022e-21
8.06666e-08
7.22946e-21
1.4205e-21
9.74199e-08
8.72752e-21
1.7148e-21
1.14872e-07
1.02497e-20
2.0404e-21
1.33047e-07
1.17794e-20
2.39035e-21
1.51968e-07
1.33699e-20
2.71153e-21
1.71662e-07
1.4985e-20
3.06651e-21
1.92153e-07
1.66012e-20
3.42801e-21
2.1347e-07
1.82773e-20
3.80099e-21
2.35638e-07
2.00049e-20
4.19636e-21
2.58688e-07
2.17544e-20
4.59083e-21
2.82648e-07
2.36323e-20
5.04986e-21
3.07549e-07
2.54696e-20
5.54963e-21
3.33422e-07
2.73536e-20
6.00548e-21
3.60298e-07
2.93193e-20
6.53597e-21
3.88212e-07
3.13117e-20
6.97841e-21
4.17198e-07
3.3388e-20
7.50658e-21
4.47291e-07
3.5471e-20
7.99157e-21
4.78526e-07
3.75956e-20
8.49745e-21
5.10943e-07
3.97585e-20
9.04692e-21
5.4458e-07
4.19496e-20
9.65723e-21
5.79476e-07
4.41549e-20
1.02481e-20
6.15672e-07
4.63674e-20
1.0945e-20
6.53212e-07
4.85934e-20
1.16954e-20
6.92138e-07
5.09466e-20
1.24461e-20
7.32496e-07
5.33653e-20
1.32055e-20
7.74333e-07
5.57294e-20
1.39914e-20
8.17695e-07
5.81929e-20
1.48531e-20
8.62633e-07
6.04622e-20
1.56647e-20
9.09197e-07
6.29974e-20
1.65987e-20
9.5744e-07
6.56575e-20
1.7605e-20
1.00741e-06
6.80626e-20
1.88865e-20
1.05918e-06
7.0736e-20
1.99558e-20
1.11279e-06
7.34841e-20
2.0999e-20
1.1683e-06
7.63552e-20
2.22353e-20
1.22578e-06
7.91876e-20
2.3657e-20
1.28528e-06
8.25237e-20
2.4958e-20
1.34688e-06
8.54743e-20
2.60581e-20
1.41063e-06
8.80284e-20
2.75437e-20
1.47661e-06
9.11922e-20
2.87393e-20
1.54489e-06
9.4389e-20
3.00593e-20
1.61554e-06
9.77917e-20
3.15317e-20
1.68863e-06
1.01001e-19
3.29255e-20
1.76424e-06
1.04377e-19
3.44743e-20
1.84244e-06
1.07779e-19
3.6403e-20
1.92333e-06
1.11557e-19
3.78918e-20
2.00698e-06
1.15025e-19
3.94767e-20
2.09347e-06
1.18749e-19
4.12643e-20
2.1829e-06
1.22327e-19
4.29405e-20
2.27535e-06
1.26283e-19
4.55211e-20
2.37092e-06
1.29838e-19
4.72783e-20
2.46971e-06
1.33652e-19
4.94375e-20
2.5718e-06
1.37298e-19
5.13307e-20
2.67729e-06
1.41286e-19
5.33505e-20
2.7863e-06
1.45184e-19
5.52839e-20
2.89892e-06
1.48888e-19
5.77551e-20
3.01526e-06
1.52832e-19
6.02203e-20
3.13543e-06
1.56782e-19
6.2416e-20
3.25954e-06
1.60662e-19
6.52182e-20
3.38771e-06
1.65122e-19
6.7215e-20
3.52004e-06
1.69155e-19
6.90408e-20
3.65665e-06
1.73279e-19
7.1955e-20
3.79768e-06
1.77571e-19
7.46989e-20
3.94322e-06
1.82154e-19
7.73906e-20
4.09342e-06
1.86816e-19
8.0305e-20
4.24839e-06
1.91783e-19
8.33573e-20
4.40826e-06
1.9666e-19
8.65469e-20
4.57316e-06
2.01297e-19
8.92362e-20
4.74321e-06
2.06339e-19
9.28967e-20
4.91854e-06
2.11983e-19
9.67186e-20
5.09928e-06
2.16927e-19
9.99129e-20
5.28555e-06
2.21658e-19
1.03415e-19
5.4775e-06
2.26189e-19
1.07364e-19
5.67524e-06
2.31105e-19
1.11501e-19
5.87891e-06
2.37382e-19
1.15352e-19
6.08862e-06
2.43238e-19
1.17404e-19
6.30451e-06
2.483e-19
1.2162e-19
6.5267e-06
2.52949e-19
1.24213e-19
6.7553e-06
2.578e-19
1.28525e-19
6.99044e-06
2.64009e-19
1.32863e-19
7.23222e-06
2.70092e-19
1.36565e-19
7.48077e-06
2.7587e-19
1.42134e-19
7.73619e-06
2.8177e-19
1.48444e-19
7.99859e-06
2.8826e-19
1.55908e-19
8.26807e-06
2.93837e-19
1.62538e-19
8.54471e-06
2.97598e-19
1.69999e-19
8.82863e-06
3.02594e-19
1.77062e-19
9.1199e-06
3.07678e-19
1.84847e-19
9.41862e-06
3.13565e-19
1.9346e-19
9.72486e-06
3.19747e-19
1.98208e-19
1.00387e-05
3.25371e-19
2.04213e-19
1.03602e-05
3.30901e-19
2.10033e-19
1.06895e-05
3.3485e-19
2.17401e-19
1.10265e-05
3.39e-19
2.25767e-19
1.13714e-05
3.45244e-19
2.33083e-19
1.17243e-05
3.50635e-19
2.41075e-19
1.20852e-05
3.57487e-19
2.49375e-19
1.24541e-05
3.61267e-19
2.56669e-19
1.28311e-05
3.67173e-19
2.64476e-19
1.32162e-05
3.73464e-19
2.73817e-19
1.36096e-05
3.77937e-19
2.81258e-19
1.40113e-05
3.86232e-19
2.88342e-19
1.44212e-05
3.91225e-19
2.93882e-19
1.48396e-05
3.95688e-19
3.02196e-19
1.52663e-05
4.02661e-19
3.06367e-19
1.57016e-05
4.08511e-19
3.12373e-19
1.61454e-05
4.16694e-19
3.19575e-19
1.65979e-05
4.23439e-19
3.24914e-19
1.7059e-05
4.30913e-19
3.31296e-19
1.75289e-05
4.36111e-19
3.39065e-19
1.80076e-05
4.42524e-19
3.44163e-19
1.84953e-05
4.51329e-19
3.48858e-19
1.89919e-05
4.54588e-19
3.56216e-19
1.94976e-05
4.58373e-19
3.63601e-19
2.00125e-05
4.65193e-19
3.74814e-19
2.05367e-05
4.6823e-19
3.80273e-19
2.10702e-05
4.71824e-19
3.8597e-19
2.16132e-05
4.75988e-19
3.90652e-19
2.21658e-05
4.72918e-19
4.04844e-19
2.27281e-05
4.76293e-19
4.11188e-19
2.33002e-05
4.7744e-19
4.16243e-19
2.38822e-05
4.83892e-19
4.216e-19
2.44744e-05
4.87227e-19
4.29764e-19
2.50767e-05
4.94115e-19
4.3618e-19
2.56894e-05
4.9263e-19
4.45133e-19
2.63125e-05
4.97173e-19
4.53178e-19
2.69463e-05
5.01581e-19
4.69208e-19
2.7591e-05
5.01075e-19
4.8078e-19
2.82465e-05
5.06386e-19
4.87633e-19
2.89132e-05
5.08894e-19
4.94835e-19
2.95911e-05
5.1193e-19
5.06048e-19
3.02806e-05
5.17136e-19
5.10625e-19
3.09816e-05
5.17858e-19
5.17664e-19
3.16945e-05
5.27336e-19
5.19898e-19
3.24193e-05
5.34075e-19
5.21707e-19
3.31564e-05
5.43098e-19
5.2843e-19
3.39059e-05
5.52743e-19
5.40229e-19
3.46679e-05
5.57875e-19
5.41545e-19
3.54428e-05
5.58719e-19
5.41234e-19
3.62306e-05
5.63806e-19
5.41364e-19
3.70317e-05
5.62904e-19
5.40498e-19
3.78463e-05
5.66041e-19
5.44966e-19
3.86744e-05
5.68914e-19
5.48279e-19
3.95165e-05
5.66099e-19
5.53414e-19
4.03727e-05
5.68286e-19
5.59421e-19
4.12433e-05
5.68344e-19
5.69054e-19
4.21285e-05
5.66711e-19
5.78066e-19
4.30285e-05
5.67791e-19
5.82525e-19
4.39437e-05
5.67717e-19
5.87749e-19
4.48742e-05
5.69837e-19
5.91494e-19
4.58203e-05
5.79091e-19
5.8856e-19
4.67823e-05
5.75839e-19
5.92988e-19
4.77605e-05
5.88253e-19
6.01377e-19
4.87551e-05
5.86536e-19
6.05156e-19
4.97664e-05
5.78781e-19
6.17869e-19
5.07947e-05
5.83109e-19
6.20294e-19
5.18404e-05
5.81503e-19
6.24532e-19
5.29036e-05
5.76019e-19
6.21309e-19
5.39847e-05
5.77432e-19
6.25247e-19
5.50839e-05
5.80045e-19
6.41042e-19
5.62017e-05
5.84862e-19
6.4479e-19
5.73383e-05
5.97022e-19
6.46899e-19
5.84941e-05
5.86152e-19
6.58442e-19
5.96693e-05
5.84884e-19
6.67182e-19
6.08644e-05
5.85993e-19
6.76214e-19
6.20795e-05
5.79302e-19
6.7263e-19
6.33152e-05
5.60026e-19
6.69952e-19
6.45717e-05
5.41024e-19
6.87108e-19
6.58494e-05
5.36269e-19
6.93082e-19
6.71486e-05
5.53454e-19
6.89582e-19
6.84698e-05
5.60583e-19
6.83774e-19
6.98132e-05
5.61734e-19
6.89917e-19
7.11794e-05
5.5822e-19
6.82347e-19
7.25686e-05
5.43658e-19
7.005e-19
7.39812e-05
5.47538e-19
6.98021e-19
7.54177e-05
5.49465e-19
6.94206e-19
7.68785e-05
5.62801e-19
7.05473e-19
7.83639e-05
5.51104e-19
6.94724e-19
7.98744e-05
5.49043e-19
6.94272e-19
8.14104e-05
5.36244e-19
6.96321e-19
8.29724e-05
5.10249e-19
6.92843e-19
8.45608e-05
4.9247e-19
6.86286e-19
8.6176e-05
4.76247e-19
6.55616e-19
8.78184e-05
4.65583e-19
6.4256e-19
8.94887e-05
4.52744e-19
6.35527e-19
9.11871e-05
4.45866e-19
6.44765e-19
9.29142e-05
4.40547e-19
6.3616e-19
9.46705e-05
4.22496e-19
6.41945e-19
9.64565e-05
4.0922e-19
6.35986e-19
9.82726e-05
3.98778e-19
6.26801e-19
0.000100119
3.97133e-19
6.23769e-19
0.000101997
3.94176e-19
6.19411e-19
0.000103907
4.12122e-19
6.25644e-19
0.000105849
4.03818e-19
6.15811e-19
0.000107824
3.94747e-19
6.15262e-19
0.000109832
4.17375e-19
6.09797e-19
0.000111874
4.38514e-19
6.21843e-19
0.00011395
4.42917e-19
6.35719e-19
0.000116061
4.35377e-19
6.42884e-19
0.000118208
4.35673e-19
6.31939e-19
0.000120391
4.48089e-19
6.13975e-19
0.000122611
4.39495e-19
6.29419e-19
0.000124869
4.34358e-19
6.35089e-19
0.000127164
4.37593e-19
6.11312e-19
0.000129498
4.44516e-19
5.64253e-19
0.000131872
4.43255e-19
5.52297e-19
0.000134285
4.54048e-19
5.40938e-19
0.000136739
4.34642e-19
5.62153e-19
0.000139234
3.95332e-19
5.43093e-19
0.000141771
3.80636e-19
5.39219e-19
0.000144351
3.95525e-19
5.27216e-19
0.000146974
3.71844e-19
5.55519e-19
0.000149641
3.81223e-19
5.62276e-19
0.000152353
3.62315e-19
5.608e-19
0.00015511
3.642e-19
5.72916e-19
0.000157914
3.74235e-19
5.49491e-19
0.000160765
4.03159e-19
5.32028e-19
0.000163663
3.85779e-19
5.68563e-19
0.00016661
3.75192e-19
5.7274e-19
0.000169607
3.57259e-19
5.45978e-19
0.000172653
3.69373e-19
5.41648e-19
0.000175751
3.99648e-19
5.31141e-19
0.0001789
3.69354e-19
5.23842e-19
0.000182102
3.75446e-19
5.36401e-19
0.000185357
3.70905e-19
5.24993e-19
0.000188666
3.87625e-19
4.92122e-19
0.000192031
3.92565e-19
5.2567e-19
0.000195452
4.18959e-19
5.17604e-19
0.00019893
4.0113e-19
5.2903e-19
0.000202465
3.87832e-19
5.30096e-19
0.00020606
3.87754e-19
5.39641e-19
0.000209714
3.80632e-19
5.54788e-19
0.000213428
4.16162e-19
5.37613e-19
0.000217205
4.04131e-19
5.51058e-19
0.000221044
4.15514e-19
5.24939e-19
0.000224946
3.98792e-19
5.32459e-19
0.000228913
4.1368e-19
5.08687e-19
0.000232946
4.23555e-19
5.0828e-19
0.000237045
4.30137e-19
4.77199e-19
0.000241212
4.0792e-19
5.01428e-19
0.000245448
3.25721e-19
5.32396e-19
0.000249753
4.06847e-19
5.50017e-19
0.000254129
4.18096e-19
5.34223e-19
0.000258578
3.90319e-19
5.40093e-19
0.000263099
3.83055e-19
5.64485e-19
0.000267694
3.91654e-19
5.63799e-19
0.000272364
3.87411e-19
5.71639e-19
0.000277111
4.28468e-19
5.42577e-19
0.000281936
4.36373e-19
5.64591e-19
0.000286839
4.45386e-19
4.81297e-19
0.000291822
5.18443e-19
5.37415e-19
0.000296886
5.07481e-19
5.15045e-19
0.000302033
4.74081e-19
5.52362e-19
0.000307262
5.18579e-19
5.28891e-19
0.000312577
5.30114e-19
5.56243e-19
0.000317978
4.46848e-19
6.03013e-19
0.000323465
4.32492e-19
5.71379e-19