/*--------------------------------*- C++ -*----------------------------------*\
| =========                 |                                                 |
| \\      /  F ield         | OpenFOAM: The Open Source CFD Toolbox           |
|  \\    /   O peration     | Version:  2106                                  |
|   \\  /    A nd           | Website:  www.openfoam.com                      |
|    \\/     M anipulation  |                                                 |
\*---------------------------------------------------------------------------*/
FoamFile
{
    version     2.0;
    format      ascii;
    arch        "LSB;label=32;scalar=64";
    class       volScalarField;
    location    "1000";
    object      k;
}
// * * * * * * * * * * * * * * * * * * * * * * * * * * * * * * * * * * * * * //

dimensions      [0 2 -2 0 0 0 0];

internalField   nonuniform List<scalar> 
2560
(
8.84933e-07
8.84933e-07
1.30011e-07
1.30011e-07
3.88935e-08
3.88935e-08
1.68484e-08
1.68484e-08
9.27261e-09
9.27261e-09
6.32994e-09
6.32994e-09
5.45798e-09
5.45798e-09
5.85656e-09
5.85656e-09
7.28413e-09
7.28413e-09
9.71676e-09
9.71676e-09
1.32321e-08
1.32321e-08
1.79644e-08
1.79644e-08
2.40849e-08
2.40849e-08
3.17933e-08
3.17933e-08
4.13128e-08
4.13128e-08
5.28887e-08
5.28887e-08
6.67865e-08
6.67865e-08
8.32916e-08
8.32916e-08
1.02709e-07
1.02709e-07
1.25361e-07
1.25361e-07
1.51592e-07
1.51592e-07
1.81759e-07
1.81759e-07
2.1624e-07
2.1624e-07
2.55426e-07
2.55426e-07
2.99723e-07
2.99723e-07
3.49551e-07
3.49551e-07
4.05338e-07
4.05338e-07
4.67523e-07
4.67523e-07
5.36549e-07
5.36549e-07
6.12861e-07
6.12861e-07
6.96906e-07
6.96906e-07
7.89125e-07
7.89125e-07
8.89952e-07
8.89952e-07
9.99808e-07
9.99808e-07
1.1191e-06
1.1191e-06
1.24822e-06
1.24822e-06
1.38752e-06
1.38752e-06
1.53733e-06
1.53733e-06
1.69797e-06
1.69797e-06
1.86969e-06
1.86969e-06
2.05272e-06
2.05272e-06
2.24724e-06
2.24724e-06
2.45338e-06
2.45338e-06
2.67123e-06
2.67123e-06
2.90083e-06
2.90083e-06
3.14216e-06
3.14216e-06
3.39514e-06
3.39514e-06
3.65966e-06
3.65966e-06
3.93553e-06
3.93553e-06
4.22253e-06
4.22253e-06
4.52037e-06
4.52037e-06
4.82873e-06
4.82873e-06
5.14723e-06
5.14723e-06
5.47544e-06
5.47544e-06
5.81292e-06
5.81292e-06
6.15915e-06
6.15915e-06
6.51362e-06
6.51362e-06
6.87577e-06
6.87577e-06
7.24501e-06
7.24501e-06
7.62075e-06
7.62075e-06
8.00237e-06
8.00237e-06
8.38927e-06
8.38927e-06
8.78081e-06
8.78081e-06
9.17637e-06
9.17637e-06
9.57535e-06
9.57535e-06
9.97713e-06
9.97713e-06
1.03811e-05
1.03811e-05
1.07868e-05
1.07868e-05
1.11935e-05
1.11935e-05
1.16008e-05
1.16008e-05
1.20082e-05
1.20082e-05
1.24152e-05
1.24152e-05
1.28215e-05
1.28215e-05
1.32265e-05
1.32265e-05
1.36301e-05
1.36301e-05
1.40318e-05
1.40318e-05
1.44314e-05
1.44314e-05
1.48286e-05
1.48286e-05
1.52234e-05
1.52234e-05
1.56156e-05
1.56156e-05
1.6005e-05
1.6005e-05
1.63917e-05
1.63917e-05
1.67756e-05
1.67756e-05
1.71568e-05
1.71568e-05
1.75353e-05
1.75353e-05
1.79113e-05
1.79113e-05
1.82849e-05
1.82849e-05
1.86562e-05
1.86562e-05
1.90256e-05
1.90256e-05
1.93932e-05
1.93932e-05
1.97594e-05
1.97594e-05
2.01245e-05
2.01245e-05
2.04887e-05
2.04887e-05
2.08525e-05
2.08525e-05
2.12163e-05
2.12163e-05
2.15804e-05
2.15804e-05
2.19452e-05
2.19452e-05
2.23113e-05
2.23113e-05
2.2679e-05
2.2679e-05
2.30488e-05
2.30488e-05
2.34211e-05
2.34211e-05
2.37965e-05
2.37965e-05
2.41754e-05
2.41754e-05
2.45583e-05
2.45583e-05
2.49457e-05
2.49457e-05
2.5338e-05
2.5338e-05
2.57357e-05
2.57357e-05
2.61393e-05
2.61393e-05
2.65492e-05
2.65492e-05
2.69658e-05
2.69658e-05
2.73897e-05
2.73897e-05
2.78213e-05
2.78213e-05
2.82608e-05
2.82608e-05
2.87088e-05
2.87088e-05
2.91656e-05
2.91656e-05
2.96316e-05
2.96316e-05
3.01071e-05
3.01071e-05
3.05923e-05
3.05923e-05
3.10876e-05
3.10876e-05
3.15933e-05
3.15933e-05
3.21095e-05
3.21095e-05
3.26364e-05
3.26364e-05
3.31743e-05
3.31743e-05
3.37232e-05
3.37232e-05
3.42833e-05
3.42833e-05
3.48546e-05
3.48546e-05
3.54371e-05
3.54371e-05
3.60308e-05
3.60308e-05
3.66357e-05
3.66357e-05
3.72516e-05
3.72516e-05
3.78785e-05
3.78785e-05
3.85161e-05
3.85161e-05
3.91641e-05
3.91641e-05
3.98224e-05
3.98224e-05
4.04905e-05
4.04905e-05
4.11681e-05
4.11681e-05
4.18548e-05
4.18548e-05
4.25501e-05
4.25501e-05
4.32533e-05
4.32533e-05
4.3964e-05
4.3964e-05
4.46815e-05
4.46815e-05
4.5405e-05
4.5405e-05
4.61339e-05
4.61339e-05
4.68672e-05
4.68672e-05
4.76041e-05
4.76041e-05
4.83437e-05
4.83437e-05
4.9085e-05
4.9085e-05
4.98269e-05
4.98269e-05
5.05683e-05
5.05683e-05
5.13081e-05
5.13081e-05
5.20451e-05
5.20451e-05
5.2778e-05
5.2778e-05
5.35055e-05
5.35055e-05
5.42262e-05
5.42262e-05
5.49387e-05
5.49387e-05
5.56417e-05
5.56417e-05
5.63337e-05
5.63337e-05
5.70131e-05
5.70131e-05
5.76785e-05
5.76785e-05
5.83285e-05
5.83285e-05
5.89616e-05
5.89616e-05
5.95763e-05
5.95763e-05
6.01714e-05
6.01714e-05
6.07455e-05
6.07455e-05
6.12976e-05
6.12976e-05
6.18266e-05
6.18266e-05
6.23318e-05
6.23318e-05
6.28125e-05
6.28125e-05
6.32683e-05
6.32683e-05
6.36992e-05
6.36992e-05
6.41051e-05
6.41051e-05
6.44864e-05
6.44864e-05
6.48438e-05
6.48438e-05
6.51781e-05
6.51781e-05
6.54903e-05
6.54903e-05
6.57816e-05
6.57816e-05
6.60535e-05
6.60535e-05
6.63072e-05
6.63072e-05
6.65444e-05
6.65444e-05
6.67666e-05
6.67666e-05
6.69753e-05
6.69753e-05
6.7172e-05
6.7172e-05
6.73582e-05
6.73582e-05
6.75353e-05
6.75353e-05
6.77047e-05
6.77047e-05
6.78675e-05
6.78675e-05
6.80249e-05
6.80249e-05
6.81779e-05
6.81779e-05
6.83277e-05
6.83277e-05
6.84751e-05
6.84751e-05
6.86209e-05
6.86209e-05
6.8766e-05
6.8766e-05
6.8911e-05
6.8911e-05
6.90567e-05
6.90567e-05
6.92037e-05
6.92037e-05
6.93525e-05
6.93525e-05
6.95038e-05
6.95038e-05
6.96579e-05
6.96579e-05
6.98155e-05
6.98155e-05
6.9977e-05
6.9977e-05
7.01427e-05
7.01427e-05
7.03132e-05
7.03132e-05
7.04888e-05
7.04888e-05
7.06699e-05
7.06699e-05
7.08569e-05
7.08569e-05
7.10501e-05
7.10501e-05
7.12499e-05
7.12499e-05
7.14566e-05
7.14566e-05
7.16705e-05
7.16705e-05
7.1892e-05
7.1892e-05
7.21212e-05
7.21212e-05
7.23586e-05
7.23586e-05
7.26044e-05
7.26044e-05
7.28588e-05
7.28588e-05
7.31222e-05
7.31222e-05
7.33948e-05
7.33948e-05
7.36767e-05
7.36767e-05
7.39683e-05
7.39683e-05
7.42697e-05
7.42697e-05
7.45812e-05
7.45812e-05
7.4903e-05
7.4903e-05
7.52351e-05
7.52351e-05
7.55778e-05
7.55778e-05
7.59313e-05
7.59313e-05
7.62956e-05
7.62956e-05
7.66709e-05
7.66709e-05
7.70573e-05
7.70573e-05
7.74548e-05
7.74548e-05
7.78635e-05
7.78635e-05
7.82835e-05
7.82835e-05
7.87148e-05
7.87148e-05
7.91573e-05
7.91573e-05
7.96111e-05
7.96111e-05
8.00761e-05
8.00761e-05
8.05523e-05
8.05523e-05
8.10395e-05
8.10395e-05
8.15376e-05
8.15376e-05
8.20466e-05
8.20466e-05
8.25661e-05
8.25661e-05
8.3096e-05
8.3096e-05
8.3636e-05
8.3636e-05
8.4186e-05
8.4186e-05
8.47455e-05
8.47455e-05
8.53143e-05
8.53143e-05
8.58919e-05
8.58919e-05
8.6478e-05
8.6478e-05
8.70722e-05
8.70722e-05
8.76739e-05
8.76739e-05
8.82825e-05
8.82825e-05
8.88977e-05
8.88977e-05
8.95187e-05
8.95187e-05
9.01449e-05
9.01449e-05
9.07756e-05
9.07756e-05
9.14101e-05
9.14101e-05
9.20476e-05
9.20476e-05
9.26872e-05
9.26872e-05
9.33281e-05
9.33281e-05
9.39694e-05
9.39694e-05
9.46101e-05
9.46101e-05
9.52492e-05
9.52492e-05
9.58856e-05
9.58856e-05
9.65181e-05
9.65181e-05
9.71457e-05
9.71457e-05
9.77671e-05
9.77671e-05
9.8381e-05
9.8381e-05
9.89862e-05
9.89862e-05
9.95812e-05
9.95812e-05
0.000100165
0.000100165
0.000100735
0.000100735
0.000101291
0.000101291
0.000101831
0.000101831
0.000102353
0.000102353
0.000102857
0.000102857
0.000103339
0.000103339
0.000103798
0.000103798
0.000104234
0.000104234
0.000104643
0.000104643
0.000105025
0.000105025
0.000105377
0.000105377
0.000105698
0.000105698
0.000105986
0.000105986
0.000106239
0.000106239
0.000106456
0.000106456
0.000106635
0.000106635
0.000106774
0.000106774
0.000106872
0.000106872
0.000106927
0.000106927
0.000106938
0.000106938
0.000106904
0.000106904
0.000106823
0.000106823
0.000106695
0.000106695
0.000106519
0.000106519
0.000106294
0.000106294
0.00010602
0.00010602
0.000105697
0.000105697
0.000105325
0.000105325
0.000104904
0.000104904
0.000104436
0.000104436
0.000103922
0.000103922
0.000103364
0.000103364
0.000102764
0.000102764
0.000102125
0.000102125
0.00010145
0.00010145
0.000100744
0.000100744
0.000100011
0.000100011
9.92573e-05
9.92573e-05
9.84882e-05
9.84882e-05
9.77111e-05
9.77111e-05
9.69337e-05
9.69337e-05
9.61647e-05
9.61647e-05
9.54132e-05
9.54132e-05
9.46892e-05
9.46892e-05
9.40033e-05
9.40033e-05
9.33664e-05
9.33664e-05
9.27897e-05
9.27897e-05
9.22846e-05
9.22846e-05
9.18622e-05
9.18622e-05
9.15328e-05
9.15328e-05
9.13058e-05
9.13059e-05
9.11892e-05
9.11893e-05
8.84933e-07
8.84933e-07
1.30011e-07
1.30011e-07
3.88935e-08
3.88935e-08
1.68484e-08
1.68484e-08
9.27261e-09
9.27261e-09
6.32994e-09
6.32994e-09
5.45798e-09
5.45798e-09
5.85656e-09
5.85656e-09
7.28413e-09
7.28413e-09
9.71676e-09
9.71676e-09
1.32321e-08
1.32321e-08
1.79644e-08
1.79644e-08
2.40849e-08
2.40849e-08
3.17933e-08
3.17933e-08
4.13128e-08
4.13128e-08
5.28887e-08
5.28887e-08
6.67865e-08
6.67865e-08
8.32916e-08
8.32916e-08
1.02709e-07
1.02709e-07
1.25361e-07
1.25361e-07
1.51592e-07
1.51592e-07
1.81759e-07
1.81759e-07
2.1624e-07
2.1624e-07
2.55426e-07
2.55426e-07
2.99723e-07
2.99723e-07
3.49551e-07
3.49551e-07
4.05338e-07
4.05338e-07
4.67523e-07
4.67523e-07
5.36549e-07
5.36549e-07
6.12861e-07
6.12861e-07
6.96906e-07
6.96906e-07
7.89125e-07
7.89125e-07
8.89952e-07
8.89952e-07
9.99808e-07
9.99808e-07
1.1191e-06
1.1191e-06
1.24822e-06
1.24822e-06
1.38752e-06
1.38752e-06
1.53733e-06
1.53733e-06
1.69797e-06
1.69797e-06
1.86969e-06
1.86969e-06
2.05272e-06
2.05272e-06
2.24724e-06
2.24724e-06
2.45338e-06
2.45338e-06
2.67123e-06
2.67123e-06
2.90083e-06
2.90083e-06
3.14216e-06
3.14216e-06
3.39514e-06
3.39514e-06
3.65966e-06
3.65966e-06
3.93553e-06
3.93553e-06
4.22253e-06
4.22253e-06
4.52037e-06
4.52037e-06
4.82873e-06
4.82873e-06
5.14723e-06
5.14723e-06
5.47544e-06
5.47544e-06
5.81292e-06
5.81292e-06
6.15915e-06
6.15915e-06
6.51362e-06
6.51362e-06
6.87577e-06
6.87577e-06
7.24501e-06
7.24501e-06
7.62075e-06
7.62075e-06
8.00237e-06
8.00237e-06
8.38927e-06
8.38927e-06
8.78081e-06
8.78081e-06
9.17637e-06
9.17637e-06
9.57535e-06
9.57535e-06
9.97713e-06
9.97713e-06
1.03811e-05
1.03811e-05
1.07868e-05
1.07868e-05
1.11935e-05
1.11935e-05
1.16008e-05
1.16008e-05
1.20082e-05
1.20082e-05
1.24152e-05
1.24152e-05
1.28215e-05
1.28215e-05
1.32265e-05
1.32265e-05
1.36301e-05
1.36301e-05
1.40318e-05
1.40318e-05
1.44314e-05
1.44314e-05
1.48286e-05
1.48286e-05
1.52234e-05
1.52234e-05
1.56156e-05
1.56156e-05
1.6005e-05
1.6005e-05
1.63917e-05
1.63917e-05
1.67756e-05
1.67756e-05
1.71568e-05
1.71568e-05
1.75353e-05
1.75353e-05
1.79113e-05
1.79113e-05
1.82849e-05
1.82849e-05
1.86562e-05
1.86562e-05
1.90256e-05
1.90256e-05
1.93932e-05
1.93932e-05
1.97594e-05
1.97594e-05
2.01245e-05
2.01245e-05
2.04887e-05
2.04887e-05
2.08525e-05
2.08525e-05
2.12163e-05
2.12163e-05
2.15804e-05
2.15804e-05
2.19452e-05
2.19452e-05
2.23113e-05
2.23113e-05
2.2679e-05
2.2679e-05
2.30488e-05
2.30488e-05
2.34211e-05
2.34211e-05
2.37965e-05
2.37965e-05
2.41754e-05
2.41754e-05
2.45583e-05
2.45583e-05
2.49457e-05
2.49457e-05
2.5338e-05
2.5338e-05
2.57357e-05
2.57357e-05
2.61393e-05
2.61393e-05
2.65492e-05
2.65492e-05
2.69658e-05
2.69658e-05
2.73897e-05
2.73897e-05
2.78213e-05
2.78213e-05
2.82608e-05
2.82608e-05
2.87088e-05
2.87088e-05
2.91656e-05
2.91656e-05
2.96316e-05
2.96316e-05
3.01071e-05
3.01071e-05
3.05923e-05
3.05923e-05
3.10876e-05
3.10876e-05
3.15933e-05
3.15933e-05
3.21095e-05
3.21095e-05
3.26364e-05
3.26364e-05
3.31743e-05
3.31743e-05
3.37232e-05
3.37232e-05
3.42833e-05
3.42833e-05
3.48546e-05
3.48546e-05
3.54371e-05
3.54371e-05
3.60308e-05
3.60308e-05
3.66357e-05
3.66357e-05
3.72516e-05
3.72516e-05
3.78785e-05
3.78785e-05
3.85161e-05
3.85161e-05
3.91641e-05
3.91641e-05
3.98224e-05
3.98224e-05
4.04905e-05
4.04905e-05
4.11681e-05
4.11681e-05
4.18548e-05
4.18548e-05
4.25501e-05
4.25501e-05
4.32533e-05
4.32533e-05
4.3964e-05
4.3964e-05
4.46815e-05
4.46815e-05
4.5405e-05
4.5405e-05
4.61339e-05
4.61339e-05
4.68672e-05
4.68672e-05
4.76041e-05
4.76041e-05
4.83437e-05
4.83437e-05
4.9085e-05
4.9085e-05
4.98269e-05
4.98269e-05
5.05683e-05
5.05683e-05
5.13081e-05
5.13081e-05
5.20451e-05
5.20451e-05
5.2778e-05
5.2778e-05
5.35055e-05
5.35055e-05
5.42262e-05
5.42262e-05
5.49387e-05
5.49387e-05
5.56417e-05
5.56417e-05
5.63337e-05
5.63337e-05
5.70131e-05
5.70131e-05
5.76785e-05
5.76785e-05
5.83285e-05
5.83285e-05
5.89616e-05
5.89616e-05
5.95763e-05
5.95763e-05
6.01714e-05
6.01714e-05
6.07455e-05
6.07455e-05
6.12976e-05
6.12976e-05
6.18266e-05
6.18266e-05
6.23318e-05
6.23318e-05
6.28125e-05
6.28125e-05
6.32683e-05
6.32683e-05
6.36992e-05
6.36992e-05
6.41051e-05
6.41051e-05
6.44864e-05
6.44864e-05
6.48438e-05
6.48438e-05
6.51781e-05
6.51781e-05
6.54903e-05
6.54903e-05
6.57816e-05
6.57816e-05
6.60535e-05
6.60535e-05
6.63072e-05
6.63072e-05
6.65444e-05
6.65444e-05
6.67666e-05
6.67666e-05
6.69753e-05
6.69753e-05
6.7172e-05
6.7172e-05
6.73582e-05
6.73582e-05
6.75353e-05
6.75353e-05
6.77047e-05
6.77047e-05
6.78675e-05
6.78675e-05
6.80249e-05
6.80249e-05
6.81779e-05
6.81779e-05
6.83277e-05
6.83277e-05
6.84751e-05
6.84751e-05
6.86209e-05
6.86209e-05
6.8766e-05
6.8766e-05
6.8911e-05
6.8911e-05
6.90567e-05
6.90567e-05
6.92037e-05
6.92037e-05
6.93525e-05
6.93525e-05
6.95038e-05
6.95038e-05
6.96579e-05
6.96579e-05
6.98155e-05
6.98155e-05
6.9977e-05
6.9977e-05
7.01427e-05
7.01427e-05
7.03132e-05
7.03132e-05
7.04888e-05
7.04888e-05
7.06699e-05
7.06699e-05
7.08569e-05
7.08569e-05
7.10501e-05
7.10501e-05
7.12499e-05
7.12499e-05
7.14566e-05
7.14566e-05
7.16705e-05
7.16705e-05
7.1892e-05
7.1892e-05
7.21212e-05
7.21212e-05
7.23586e-05
7.23586e-05
7.26044e-05
7.26044e-05
7.28588e-05
7.28588e-05
7.31222e-05
7.31222e-05
7.33948e-05
7.33948e-05
7.36767e-05
7.36767e-05
7.39683e-05
7.39683e-05
7.42697e-05
7.42697e-05
7.45812e-05
7.45812e-05
7.4903e-05
7.4903e-05
7.52351e-05
7.52351e-05
7.55778e-05
7.55778e-05
7.59313e-05
7.59313e-05
7.62956e-05
7.62956e-05
7.66709e-05
7.66709e-05
7.70573e-05
7.70573e-05
7.74548e-05
7.74548e-05
7.78635e-05
7.78635e-05
7.82835e-05
7.82835e-05
7.87148e-05
7.87148e-05
7.91573e-05
7.91573e-05
7.96111e-05
7.96111e-05
8.00761e-05
8.00761e-05
8.05523e-05
8.05523e-05
8.10395e-05
8.10395e-05
8.15376e-05
8.15376e-05
8.20466e-05
8.20466e-05
8.25661e-05
8.25661e-05
8.3096e-05
8.3096e-05
8.3636e-05
8.3636e-05
8.4186e-05
8.4186e-05
8.47455e-05
8.47455e-05
8.53143e-05
8.53143e-05
8.58919e-05
8.58919e-05
8.6478e-05
8.6478e-05
8.70722e-05
8.70722e-05
8.76739e-05
8.76739e-05
8.82825e-05
8.82825e-05
8.88977e-05
8.88977e-05
8.95187e-05
8.95187e-05
9.01449e-05
9.01449e-05
9.07756e-05
9.07756e-05
9.14101e-05
9.14101e-05
9.20476e-05
9.20476e-05
9.26872e-05
9.26872e-05
9.33281e-05
9.33281e-05
9.39694e-05
9.39694e-05
9.46101e-05
9.46101e-05
9.52492e-05
9.52492e-05
9.58856e-05
9.58856e-05
9.65181e-05
9.65181e-05
9.71457e-05
9.71457e-05
9.77671e-05
9.77671e-05
9.8381e-05
9.8381e-05
9.89862e-05
9.89862e-05
9.95812e-05
9.95812e-05
0.000100165
0.000100165
0.000100735
0.000100735
0.000101291
0.000101291
0.000101831
0.000101831
0.000102353
0.000102353
0.000102857
0.000102857
0.000103339
0.000103339
0.000103798
0.000103798
0.000104234
0.000104234
0.000104643
0.000104643
0.000105025
0.000105025
0.000105377
0.000105377
0.000105698
0.000105698
0.000105986
0.000105986
0.000106239
0.000106239
0.000106456
0.000106456
0.000106635
0.000106635
0.000106774
0.000106774
0.000106872
0.000106872
0.000106927
0.000106927
0.000106938
0.000106938
0.000106904
0.000106904
0.000106823
0.000106823
0.000106695
0.000106695
0.000106519
0.000106519
0.000106294
0.000106294
0.00010602
0.00010602
0.000105697
0.000105697
0.000105325
0.000105325
0.000104904
0.000104904
0.000104436
0.000104436
0.000103922
0.000103922
0.000103364
0.000103364
0.000102764
0.000102764
0.000102125
0.000102125
0.00010145
0.00010145
0.000100744
0.000100744
0.000100011
0.000100011
9.92573e-05
9.92573e-05
9.84882e-05
9.84882e-05
9.77111e-05
9.77111e-05
9.69337e-05
9.69337e-05
9.61647e-05
9.61647e-05
9.54132e-05
9.54132e-05
9.46892e-05
9.46892e-05
9.40033e-05
9.40033e-05
9.33664e-05
9.33664e-05
9.27897e-05
9.27897e-05
9.22846e-05
9.22846e-05
9.18622e-05
9.18622e-05
9.15328e-05
9.15328e-05
9.13059e-05
9.13059e-05
9.11893e-05
9.11893e-05
9.11892e-05
9.11892e-05
9.13058e-05
9.13058e-05
9.15326e-05
9.15326e-05
9.1862e-05
9.1862e-05
9.22844e-05
9.22844e-05
9.27894e-05
9.27894e-05
9.3366e-05
9.3366e-05
9.40029e-05
9.40029e-05
9.46889e-05
9.46889e-05
9.54128e-05
9.54128e-05
9.61643e-05
9.61643e-05
9.69333e-05
9.69333e-05
9.77107e-05
9.77107e-05
9.84878e-05
9.84878e-05
9.92569e-05
9.92569e-05
0.000100011
0.000100011
0.000100744
0.000100744
0.00010145
0.00010145
0.000102125
0.000102125
0.000102764
0.000102764
0.000103364
0.000103364
0.000103922
0.000103922
0.000104436
0.000104436
0.000104904
0.000104904
0.000105325
0.000105325
0.000105697
0.000105697
0.00010602
0.00010602
0.000106295
0.000106295
0.00010652
0.00010652
0.000106696
0.000106696
0.000106824
0.000106824
0.000106905
0.000106905
0.000106939
0.000106939
0.000106928
0.000106928
0.000106873
0.000106873
0.000106775
0.000106775
0.000106636
0.000106636
0.000106457
0.000106457
0.00010624
0.00010624
0.000105987
0.000105987
0.000105699
0.000105699
0.000105378
0.000105378
0.000105026
0.000105026
0.000104644
0.000104644
0.000104235
0.000104235
0.000103799
0.000103799
0.00010334
0.00010334
0.000102858
0.000102858
0.000102354
0.000102354
0.000101832
0.000101832
0.000101292
0.000101292
0.000100736
0.000100736
0.000100166
0.000100166
9.95823e-05
9.95823e-05
9.89873e-05
9.89873e-05
9.83821e-05
9.83821e-05
9.77682e-05
9.77682e-05
9.71468e-05
9.71468e-05
9.65192e-05
9.65192e-05
9.58866e-05
9.58866e-05
9.52502e-05
9.52502e-05
9.46111e-05
9.46111e-05
9.39704e-05
9.39704e-05
9.33291e-05
9.33291e-05
9.26881e-05
9.26881e-05
9.20485e-05
9.20485e-05
9.1411e-05
9.1411e-05
9.07765e-05
9.07765e-05
9.01458e-05
9.01458e-05
8.95195e-05
8.95195e-05
8.88985e-05
8.88985e-05
8.82833e-05
8.82833e-05
8.76746e-05
8.76746e-05
8.70729e-05
8.70729e-05
8.64788e-05
8.64788e-05
8.58926e-05
8.58926e-05
8.53149e-05
8.53149e-05
8.47462e-05
8.47462e-05
8.41866e-05
8.41866e-05
8.36366e-05
8.36366e-05
8.30966e-05
8.30966e-05
8.25666e-05
8.25666e-05
8.20471e-05
8.20471e-05
8.15382e-05
8.15382e-05
8.104e-05
8.104e-05
8.05528e-05
8.05528e-05
8.00766e-05
8.00766e-05
7.96116e-05
7.96116e-05
7.91578e-05
7.91578e-05
7.87152e-05
7.87152e-05
7.82839e-05
7.82839e-05
7.78639e-05
7.78639e-05
7.74552e-05
7.74552e-05
7.70576e-05
7.70576e-05
7.66713e-05
7.66713e-05
7.62959e-05
7.62959e-05
7.59316e-05
7.59316e-05
7.55781e-05
7.55781e-05
7.52354e-05
7.52354e-05
7.49032e-05
7.49032e-05
7.45815e-05
7.45815e-05
7.427e-05
7.427e-05
7.39685e-05
7.39685e-05
7.36769e-05
7.36769e-05
7.3395e-05
7.3395e-05
7.31224e-05
7.31224e-05
7.2859e-05
7.2859e-05
7.26046e-05
7.26046e-05
7.23588e-05
7.23588e-05
7.21214e-05
7.21214e-05
7.18921e-05
7.18921e-05
7.16707e-05
7.16707e-05
7.14568e-05
7.14568e-05
7.12501e-05
7.12501e-05
7.10503e-05
7.10503e-05
7.0857e-05
7.0857e-05
7.067e-05
7.067e-05
7.04889e-05
7.04889e-05
7.03133e-05
7.03133e-05
7.01428e-05
7.01428e-05
6.99771e-05
6.99771e-05
6.98156e-05
6.98156e-05
6.9658e-05
6.9658e-05
6.95039e-05
6.95039e-05
6.93526e-05
6.93526e-05
6.92038e-05
6.92038e-05
6.90568e-05
6.90568e-05
6.89111e-05
6.89111e-05
6.87661e-05
6.87661e-05
6.8621e-05
6.8621e-05
6.84752e-05
6.84752e-05
6.83278e-05
6.83278e-05
6.8178e-05
6.8178e-05
6.80249e-05
6.80249e-05
6.78676e-05
6.78676e-05
6.77048e-05
6.77048e-05
6.75354e-05
6.75354e-05
6.73583e-05
6.73583e-05
6.71721e-05
6.71721e-05
6.69754e-05
6.69754e-05
6.67667e-05
6.67667e-05
6.65445e-05
6.65445e-05
6.63074e-05
6.63074e-05
6.60536e-05
6.60536e-05
6.57818e-05
6.57818e-05
6.54905e-05
6.54905e-05
6.51783e-05
6.51783e-05
6.48441e-05
6.48441e-05
6.44867e-05
6.44867e-05
6.41054e-05
6.41054e-05
6.36995e-05
6.36995e-05
6.32687e-05
6.32687e-05
6.28128e-05
6.28128e-05
6.23321e-05
6.23321e-05
6.1827e-05
6.1827e-05
6.12979e-05
6.12979e-05
6.07459e-05
6.07459e-05
6.01717e-05
6.01717e-05
5.95767e-05
5.95767e-05
5.8962e-05
5.8962e-05
5.83289e-05
5.83289e-05
5.76789e-05
5.76789e-05
5.70135e-05
5.70135e-05
5.63341e-05
5.63341e-05
5.56421e-05
5.56421e-05
5.49392e-05
5.49392e-05
5.42266e-05
5.42266e-05
5.35059e-05
5.35059e-05
5.27784e-05
5.27784e-05
5.20455e-05
5.20455e-05
5.13085e-05
5.13085e-05
5.05687e-05
5.05687e-05
4.98272e-05
4.98272e-05
4.90853e-05
4.90853e-05
4.8344e-05
4.8344e-05
4.76044e-05
4.76044e-05
4.68675e-05
4.68675e-05
4.61342e-05
4.61342e-05
4.54053e-05
4.54053e-05
4.46818e-05
4.46818e-05
4.39643e-05
4.39643e-05
4.32536e-05
4.32536e-05
4.25504e-05
4.25504e-05
4.18551e-05
4.18551e-05
4.11684e-05
4.11684e-05
4.04908e-05
4.04908e-05
3.98226e-05
3.98226e-05
3.91644e-05
3.91644e-05
3.85163e-05
3.85163e-05
3.78787e-05
3.78787e-05
3.72518e-05
3.72518e-05
3.66359e-05
3.66359e-05
3.6031e-05
3.6031e-05
3.54373e-05
3.54373e-05
3.48548e-05
3.48548e-05
3.42835e-05
3.42835e-05
3.37234e-05
3.37234e-05
3.31745e-05
3.31745e-05
3.26366e-05
3.26366e-05
3.21096e-05
3.21096e-05
3.15934e-05
3.15934e-05
3.10878e-05
3.10878e-05
3.05924e-05
3.05924e-05
3.01072e-05
3.01072e-05
2.96317e-05
2.96317e-05
2.91658e-05
2.91658e-05
2.8709e-05
2.8709e-05
2.8261e-05
2.8261e-05
2.78214e-05
2.78214e-05
2.73898e-05
2.73898e-05
2.69659e-05
2.69659e-05
2.65493e-05
2.65493e-05
2.61394e-05
2.61394e-05
2.57358e-05
2.57358e-05
2.53381e-05
2.53381e-05
2.49458e-05
2.49458e-05
2.45584e-05
2.45584e-05
2.41755e-05
2.41755e-05
2.37966e-05
2.37966e-05
2.34212e-05
2.34212e-05
2.30489e-05
2.30489e-05
2.26791e-05
2.26791e-05
2.23114e-05
2.23114e-05
2.19453e-05
2.19453e-05
2.15804e-05
2.15804e-05
2.12163e-05
2.12163e-05
2.08526e-05
2.08526e-05
2.04888e-05
2.04888e-05
2.01245e-05
2.01245e-05
1.97595e-05
1.97595e-05
1.93933e-05
1.93933e-05
1.90256e-05
1.90256e-05
1.86563e-05
1.86563e-05
1.82849e-05
1.82849e-05
1.79113e-05
1.79113e-05
1.75354e-05
1.75354e-05
1.71569e-05
1.71569e-05
1.67757e-05
1.67757e-05
1.63918e-05
1.63918e-05
1.60051e-05
1.60051e-05
1.56156e-05
1.56156e-05
1.52235e-05
1.52235e-05
1.48287e-05
1.48287e-05
1.44314e-05
1.44314e-05
1.40318e-05
1.40318e-05
1.36301e-05
1.36301e-05
1.32266e-05
1.32266e-05
1.28215e-05
1.28215e-05
1.24153e-05
1.24153e-05
1.20082e-05
1.20082e-05
1.16008e-05
1.16008e-05
1.11935e-05
1.11935e-05
1.07868e-05
1.07868e-05
1.03811e-05
1.03811e-05
9.97715e-06
9.97715e-06
9.57537e-06
9.57537e-06
9.1764e-06
9.1764e-06
8.78083e-06
8.78083e-06
8.38929e-06
8.38929e-06
8.00239e-06
8.00239e-06
7.62077e-06
7.62077e-06
7.24503e-06
7.24503e-06
6.87578e-06
6.87578e-06
6.51364e-06
6.51364e-06
6.15917e-06
6.15917e-06
5.81293e-06
5.81293e-06
5.47546e-06
5.47546e-06
5.14724e-06
5.14724e-06
4.82874e-06
4.82874e-06
4.52038e-06
4.52038e-06
4.22254e-06
4.22254e-06
3.93554e-06
3.93554e-06
3.65967e-06
3.65967e-06
3.39515e-06
3.39515e-06
3.14217e-06
3.14216e-06
2.90084e-06
2.90084e-06
2.67124e-06
2.67124e-06
2.45339e-06
2.45339e-06
2.24724e-06
2.24724e-06
2.05273e-06
2.05273e-06
1.8697e-06
1.8697e-06
1.69798e-06
1.69798e-06
1.53734e-06
1.53734e-06
1.38752e-06
1.38752e-06
1.24822e-06
1.24822e-06
1.1191e-06
1.1191e-06
9.99811e-07
9.99811e-07
8.89954e-07
8.89954e-07
7.89127e-07
7.89127e-07
6.96908e-07
6.96908e-07
6.12863e-07
6.12863e-07
5.3655e-07
5.3655e-07
4.67524e-07
4.67524e-07
4.05339e-07
4.05339e-07
3.49552e-07
3.49552e-07
2.99724e-07
2.99724e-07
2.55426e-07
2.55426e-07
2.1624e-07
2.1624e-07
1.81759e-07
1.81759e-07
1.51592e-07
1.51592e-07
1.25362e-07
1.25362e-07
1.02709e-07
1.02709e-07
8.32918e-08
8.32918e-08
6.67867e-08
6.67867e-08
5.28888e-08
5.28888e-08
4.13129e-08
4.13129e-08
3.17933e-08
3.17933e-08
2.4085e-08
2.4085e-08
1.79644e-08
1.79644e-08
1.32321e-08
1.32321e-08
9.71676e-09
9.71676e-09
7.28413e-09
7.28413e-09
5.85655e-09
5.85655e-09
5.45795e-09
5.45795e-09
6.32988e-09
6.32988e-09
9.27251e-09
9.27251e-09
1.68482e-08
1.68482e-08
3.88931e-08
3.88931e-08
1.3001e-07
1.3001e-07
8.84928e-07
8.84928e-07
9.11892e-05
9.11892e-05
9.13058e-05
9.13058e-05
9.15326e-05
9.15326e-05
9.1862e-05
9.1862e-05
9.22844e-05
9.22844e-05
9.27894e-05
9.27894e-05
9.3366e-05
9.3366e-05
9.40029e-05
9.40029e-05
9.46889e-05
9.46889e-05
9.54128e-05
9.54128e-05
9.61643e-05
9.61643e-05
9.69333e-05
9.69333e-05
9.77107e-05
9.77107e-05
9.84878e-05
9.84878e-05
9.92569e-05
9.92569e-05
0.000100011
0.000100011
0.000100744
0.000100744
0.00010145
0.00010145
0.000102125
0.000102125
0.000102764
0.000102764
0.000103364
0.000103364
0.000103922
0.000103922
0.000104436
0.000104436
0.000104904
0.000104904
0.000105325
0.000105325
0.000105697
0.000105697
0.00010602
0.00010602
0.000106295
0.000106295
0.00010652
0.00010652
0.000106696
0.000106696
0.000106824
0.000106824
0.000106905
0.000106905
0.000106939
0.000106939
0.000106928
0.000106928
0.000106873
0.000106873
0.000106775
0.000106775
0.000106636
0.000106636
0.000106457
0.000106457
0.00010624
0.00010624
0.000105987
0.000105987
0.000105699
0.000105699
0.000105378
0.000105378
0.000105026
0.000105026
0.000104644
0.000104644
0.000104235
0.000104235
0.000103799
0.000103799
0.00010334
0.00010334
0.000102858
0.000102858
0.000102354
0.000102354
0.000101832
0.000101832
0.000101292
0.000101292
0.000100736
0.000100736
0.000100166
0.000100166
9.95823e-05
9.95823e-05
9.89873e-05
9.89873e-05
9.83821e-05
9.83821e-05
9.77682e-05
9.77682e-05
9.71468e-05
9.71468e-05
9.65192e-05
9.65192e-05
9.58866e-05
9.58866e-05
9.52502e-05
9.52502e-05
9.46111e-05
9.46111e-05
9.39704e-05
9.39704e-05
9.33291e-05
9.33291e-05
9.26881e-05
9.26881e-05
9.20485e-05
9.20485e-05
9.1411e-05
9.1411e-05
9.07765e-05
9.07765e-05
9.01458e-05
9.01458e-05
8.95195e-05
8.95195e-05
8.88985e-05
8.88985e-05
8.82833e-05
8.82833e-05
8.76746e-05
8.76746e-05
8.70729e-05
8.70729e-05
8.64788e-05
8.64788e-05
8.58926e-05
8.58926e-05
8.53149e-05
8.53149e-05
8.47462e-05
8.47462e-05
8.41866e-05
8.41866e-05
8.36366e-05
8.36366e-05
8.30966e-05
8.30966e-05
8.25666e-05
8.25666e-05
8.20471e-05
8.20471e-05
8.15382e-05
8.15382e-05
8.104e-05
8.104e-05
8.05528e-05
8.05528e-05
8.00766e-05
8.00766e-05
7.96116e-05
7.96116e-05
7.91578e-05
7.91578e-05
7.87152e-05
7.87152e-05
7.82839e-05
7.82839e-05
7.78639e-05
7.78639e-05
7.74552e-05
7.74552e-05
7.70576e-05
7.70576e-05
7.66713e-05
7.66713e-05
7.62959e-05
7.62959e-05
7.59316e-05
7.59316e-05
7.55781e-05
7.55781e-05
7.52354e-05
7.52354e-05
7.49032e-05
7.49032e-05
7.45815e-05
7.45815e-05
7.427e-05
7.427e-05
7.39685e-05
7.39685e-05
7.36769e-05
7.36769e-05
7.3395e-05
7.3395e-05
7.31224e-05
7.31224e-05
7.2859e-05
7.2859e-05
7.26046e-05
7.26046e-05
7.23588e-05
7.23588e-05
7.21214e-05
7.21214e-05
7.18921e-05
7.18921e-05
7.16707e-05
7.16707e-05
7.14568e-05
7.14568e-05
7.12501e-05
7.12501e-05
7.10503e-05
7.10503e-05
7.0857e-05
7.0857e-05
7.067e-05
7.067e-05
7.04889e-05
7.04889e-05
7.03133e-05
7.03133e-05
7.01428e-05
7.01428e-05
6.99771e-05
6.99771e-05
6.98156e-05
6.98156e-05
6.9658e-05
6.9658e-05
6.95039e-05
6.95039e-05
6.93526e-05
6.93526e-05
6.92038e-05
6.92038e-05
6.90568e-05
6.90568e-05
6.89111e-05
6.89111e-05
6.87661e-05
6.87661e-05
6.8621e-05
6.8621e-05
6.84752e-05
6.84752e-05
6.83278e-05
6.83278e-05
6.8178e-05
6.8178e-05
6.80249e-05
6.80249e-05
6.78676e-05
6.78676e-05
6.77048e-05
6.77048e-05
6.75354e-05
6.75354e-05
6.73583e-05
6.73583e-05
6.71721e-05
6.71721e-05
6.69754e-05
6.69754e-05
6.67667e-05
6.67667e-05
6.65445e-05
6.65445e-05
6.63074e-05
6.63074e-05
6.60536e-05
6.60536e-05
6.57818e-05
6.57818e-05
6.54905e-05
6.54905e-05
6.51783e-05
6.51783e-05
6.48441e-05
6.48441e-05
6.44867e-05
6.44867e-05
6.41054e-05
6.41054e-05
6.36995e-05
6.36995e-05
6.32687e-05
6.32687e-05
6.28128e-05
6.28128e-05
6.23321e-05
6.23321e-05
6.1827e-05
6.1827e-05
6.12979e-05
6.12979e-05
6.07459e-05
6.07459e-05
6.01717e-05
6.01717e-05
5.95767e-05
5.95767e-05
5.8962e-05
5.8962e-05
5.83289e-05
5.83289e-05
5.76789e-05
5.76789e-05
5.70135e-05
5.70135e-05
5.63341e-05
5.63341e-05
5.56421e-05
5.56421e-05
5.49391e-05
5.49391e-05
5.42266e-05
5.42266e-05
5.35059e-05
5.35059e-05
5.27784e-05
5.27784e-05
5.20455e-05
5.20455e-05
5.13085e-05
5.13085e-05
5.05687e-05
5.05687e-05
4.98272e-05
4.98272e-05
4.90853e-05
4.90853e-05
4.8344e-05
4.8344e-05
4.76044e-05
4.76044e-05
4.68675e-05
4.68675e-05
4.61342e-05
4.61342e-05
4.54053e-05
4.54053e-05
4.46818e-05
4.46818e-05
4.39643e-05
4.39643e-05
4.32536e-05
4.32536e-05
4.25504e-05
4.25504e-05
4.18551e-05
4.18551e-05
4.11684e-05
4.11684e-05
4.04908e-05
4.04908e-05
3.98226e-05
3.98226e-05
3.91644e-05
3.91644e-05
3.85163e-05
3.85163e-05
3.78787e-05
3.78787e-05
3.72518e-05
3.72518e-05
3.66359e-05
3.66359e-05
3.6031e-05
3.6031e-05
3.54373e-05
3.54373e-05
3.48548e-05
3.48548e-05
3.42835e-05
3.42835e-05
3.37234e-05
3.37234e-05
3.31745e-05
3.31745e-05
3.26366e-05
3.26366e-05
3.21096e-05
3.21096e-05
3.15934e-05
3.15934e-05
3.10878e-05
3.10878e-05
3.05924e-05
3.05924e-05
3.01072e-05
3.01072e-05
2.96317e-05
2.96317e-05
2.91658e-05
2.91658e-05
2.8709e-05
2.8709e-05
2.8261e-05
2.8261e-05
2.78214e-05
2.78214e-05
2.73898e-05
2.73898e-05
2.69659e-05
2.69659e-05
2.65493e-05
2.65493e-05
2.61394e-05
2.61394e-05
2.57358e-05
2.57358e-05
2.53381e-05
2.53381e-05
2.49458e-05
2.49458e-05
2.45584e-05
2.45584e-05
2.41755e-05
2.41755e-05
2.37966e-05
2.37966e-05
2.34212e-05
2.34212e-05
2.30489e-05
2.30489e-05
2.26791e-05
2.26791e-05
2.23114e-05
2.23114e-05
2.19453e-05
2.19453e-05
2.15804e-05
2.15804e-05
2.12163e-05
2.12163e-05
2.08526e-05
2.08526e-05
2.04888e-05
2.04888e-05
2.01245e-05
2.01245e-05
1.97595e-05
1.97595e-05
1.93933e-05
1.93933e-05
1.90256e-05
1.90256e-05
1.86563e-05
1.86563e-05
1.82849e-05
1.82849e-05
1.79113e-05
1.79113e-05
1.75354e-05
1.75354e-05
1.71569e-05
1.71569e-05
1.67757e-05
1.67757e-05
1.63918e-05
1.63918e-05
1.60051e-05
1.60051e-05
1.56156e-05
1.56156e-05
1.52235e-05
1.52235e-05
1.48287e-05
1.48287e-05
1.44314e-05
1.44314e-05
1.40318e-05
1.40318e-05
1.36301e-05
1.36301e-05
1.32266e-05
1.32266e-05
1.28215e-05
1.28215e-05
1.24153e-05
1.24153e-05
1.20082e-05
1.20082e-05
1.16008e-05
1.16008e-05
1.11935e-05
1.11935e-05
1.07868e-05
1.07868e-05
1.03811e-05
1.03811e-05
9.97715e-06
9.97715e-06
9.57537e-06
9.57537e-06
9.1764e-06
9.1764e-06
8.78083e-06
8.78083e-06
8.38929e-06
8.38929e-06
8.00239e-06
8.00239e-06
7.62077e-06
7.62077e-06