/*--------------------------------*- C++ -*----------------------------------*\
| =========                 |                                                 |
| \\      /  F ield         | OpenFOAM: The Open Source CFD Toolbox           |
|  \\    /   O peration     | Version:  2106                                  |
|   \\  /    A nd           | Website:  www.openfoam.com                      |
|    \\/     M anipulation  |                                                 |
\*---------------------------------------------------------------------------*/
FoamFile
{
    version     2.0;
    format      ascii;
    arch        "LSB;label=32;scalar=64";
    class       volSymmTensorField;
    location    "12000";
    object      turbulenceProperties:R;
}
// * * * * * * * * * * * * * * * * * * * * * * * * * * * * * * * * * * * * * //

dimensions      [0 2 -2 0 0 0 0];

internalField   nonuniform List<symmTensor> 
2560
(
(2.9515e-07 -2.91563e-11 -4.22075e-14 2.9515e-07 3.66745e-27 2.9515e-07)
(2.9515e-07 -2.91563e-11 -4.22075e-14 2.9515e-07 1.66066e-26 2.9515e-07)
(5.36974e-08 -3.0485e-11 -1.33041e-13 5.36974e-08 3.43863e-26 5.36974e-08)
(5.36974e-08 -3.0485e-11 -1.33041e-13 5.36974e-08 6.70456e-27 5.36974e-08)
(8.76838e-08 -1.46833e-10 -8.81378e-13 8.76838e-08 5.30144e-26 8.76838e-08)
(8.76838e-08 -1.46833e-10 -8.81378e-13 8.76838e-08 1.61674e-26 8.76838e-08)
(2.8109e-07 -9.98059e-10 -6.07807e-12 2.8109e-07 1.1875e-25 2.8109e-07)
(2.8109e-07 -9.98059e-10 -6.07807e-12 2.8109e-07 1.11731e-25 2.8109e-07)
(7.24578e-07 -4.5384e-09 -2.80402e-11 7.24578e-07 6.60972e-25 7.24578e-07)
(7.24578e-07 -4.5384e-09 -2.80402e-11 7.24578e-07 5.1658e-25 7.24578e-07)
(1.54633e-06 -1.52472e-08 -9.55736e-11 1.54633e-06 2.009e-24 1.54633e-06)
(1.54633e-06 -1.52472e-08 -9.55736e-11 1.54633e-06 1.76453e-24 1.54633e-06)
(2.89861e-06 -4.1687e-08 -2.65104e-10 2.89861e-06 5.46208e-24 2.89861e-06)
(2.89861e-06 -4.1687e-08 -2.65104e-10 2.89861e-06 4.90489e-24 2.89861e-06)
(4.95607e-06 -9.8457e-08 -6.35226e-10 4.95607e-06 1.3126e-23 4.95607e-06)
(4.95607e-06 -9.8457e-08 -6.35226e-10 4.95607e-06 1.17743e-23 4.95607e-06)
(7.91587e-06 -2.08575e-07 -1.36523e-09 7.91587e-06 2.83365e-23 7.91587e-06)
(7.91587e-06 -2.08575e-07 -1.36523e-09 7.91587e-06 2.53445e-23 7.91587e-06)
(1.19982e-05 -4.06309e-07 -2.69812e-09 1.19982e-05 5.61014e-23 1.19982e-05)
(1.19982e-05 -4.06309e-07 -2.69812e-09 1.19982e-05 5.015e-23 1.19982e-05)
(1.74468e-05 -7.40471e-07 -4.98848e-09 1.74468e-05 1.04063e-22 1.74468e-05)
(1.74468e-05 -7.40471e-07 -4.98848e-09 1.74468e-05 9.27721e-23 1.74468e-05)
(2.45297e-05 -1.27813e-06 -8.73543e-09 2.45297e-05 1.82735e-22 2.45297e-05)
(2.45297e-05 -1.27813e-06 -8.73543e-09 2.45297e-05 1.62364e-22 2.45297e-05)
(3.35389e-05 -2.10869e-06 -1.46205e-08 3.35389e-05 3.06388e-22 3.35389e-05)
(3.35389e-05 -2.10869e-06 -1.46205e-08 3.35389e-05 2.71247e-22 3.35389e-05)
(4.47905e-05 -3.34815e-06 -2.35496e-08 4.47905e-05 4.93831e-22 4.47905e-05)
(4.47905e-05 -3.34815e-06 -2.35496e-08 4.47905e-05 4.35349e-22 4.47905e-05)
(5.86231e-05 -5.14337e-06 -3.66978e-08 5.86231e-05 7.68975e-22 5.86231e-05)
(5.86231e-05 -5.14337e-06 -3.66978e-08 5.86231e-05 6.74529e-22 5.86231e-05)
(7.53963e-05 -7.67589e-06 -5.55544e-08 7.53963e-05 1.16076e-21 7.53963e-05)
(7.53963e-05 -7.67589e-06 -5.55544e-08 7.53963e-05 1.01221e-21 7.53963e-05)
(9.54872e-05 -1.1165e-05 -8.19645e-08 9.54872e-05 1.71382e-21 9.54872e-05)
(9.54872e-05 -1.1165e-05 -8.19645e-08 9.54872e-05 1.47535e-21 9.54872e-05)
(0.000119286 -1.58693e-05 -1.18162e-07 0.000119286 2.43653e-21 0.000119286)
(0.000119286 -1.58693e-05 -1.18162e-07 0.000119286 2.0933e-21 0.000119286)
(0.000147189 -2.20863e-05 -1.66789e-07 0.000147189 3.41403e-21 0.000147189)
(0.000147189 -2.20863e-05 -1.66789e-07 0.000147189 2.89309e-21 0.000147189)
(0.000179592 -3.01488e-05 -2.30892e-07 0.000179592 4.64396e-21 0.000179592)
(0.000179592 -3.01488e-05 -2.30892e-07 0.000179592 3.89883e-21 0.000179592)
(0.000216878 -4.04185e-05 -3.1389e-07 0.000216878 6.19477e-21 0.000216878)
(0.000216878 -4.04185e-05 -3.1389e-07 0.000216878 5.12829e-21 0.000216878)
(0.000259406 -5.3275e-05 -4.19513e-07 0.000259406 8.08254e-21 0.000259406)
(0.000259406 -5.3275e-05 -4.19513e-07 0.000259406 6.58071e-21 0.000259406)
(0.000307497 -6.91011e-05 -5.51688e-07 0.000307497 1.03191e-20 0.000307497)
(0.000307497 -6.91011e-05 -5.51688e-07 0.000307497 8.22711e-21 0.000307497)
(0.00036142 -8.82645e-05 -7.14403e-07 0.00036142 1.2893e-20 0.00036142)
(0.00036142 -8.82645e-05 -7.14403e-07 0.00036142 1.00195e-20 0.00036142)
(0.000421377 -0.000111097 -9.1153e-07 0.000421377 1.57827e-20 0.000421377)
(0.000421377 -0.000111097 -9.1153e-07 0.000421377 1.18793e-20 0.000421377)
(0.000487485 -0.00013787 -1.14662e-06 0.000487485 1.88939e-20 0.000487485)
(0.000487485 -0.00013787 -1.14662e-06 0.000487485 1.37027e-20 0.000487485)
(0.000559769 -0.000168777 -1.42272e-06 0.000559769 2.21349e-20 0.000559769)
(0.000559769 -0.000168777 -1.42272e-06 0.000559769 1.53608e-20 0.000559769)
(0.000638148 -0.000203912 -1.74213e-06 0.000638148 2.53856e-20 0.000638148)
(0.000638148 -0.000203912 -1.74213e-06 0.000638148 1.66837e-20 0.000638148)
(0.000722433 -0.000243261 -2.10635e-06 0.000722433 2.85019e-20 0.000722433)
(0.000722433 -0.000243261 -2.10635e-06 0.000722433 1.75167e-20 0.000722433)
(0.000812327 -0.000286693 -2.51586e-06 0.000812327 3.13086e-20 0.000812327)
(0.000812327 -0.000286693 -2.51586e-06 0.000812327 1.77251e-20 0.000812327)
(0.000907428 -0.000333962 -2.97018e-06 0.000907428 3.37118e-20 0.000907428)
(0.000907428 -0.000333962 -2.97018e-06 0.000907428 1.7169e-20 0.000907428)
(0.00100724 -0.000384724 -3.46785e-06 0.00100724 3.56631e-20 0.00100724)
(0.00100724 -0.000384724 -3.46785e-06 0.00100724 1.57676e-20 0.00100724)
(0.0011112 -0.000438548 -4.00656e-06 0.0011112 3.69935e-20 0.0011112)
(0.0011112 -0.000438548 -4.00656e-06 0.0011112 1.34838e-20 0.0011112)
(0.00121868 -0.00049494 -4.58328e-06 0.00121868 3.77511e-20 0.00121868)
(0.00121868 -0.00049494 -4.58328e-06 0.00121868 1.02704e-20 0.00121868)
(0.001329 -0.00055337 -5.19441e-06 0.001329 3.78624e-20 0.001329)
(0.001329 -0.00055337 -5.19441e-06 0.001329 6.19187e-21 0.001329)
(0.0014415 -0.00061329 -5.83604e-06 0.0014415 3.74767e-20 0.0014415)
(0.0014415 -0.00061329 -5.83604e-06 0.0014415 3.30709e-22 0.0014415)
(0.00155548 -0.000674163 -6.50406e-06 0.00155548 3.67192e-20 0.00155548)
(0.00155548 -0.000674163 -6.50406e-06 0.00155548 -3.16485e-21 0.00155548)
(0.00167028 -0.000735479 -7.19438e-06 0.00167028 3.57676e-20 0.00167028)
(0.00167028 -0.000735479 -7.19438e-06 0.00167028 -9.6162e-21 0.00167028)
(0.0017853 -0.000796767 -7.90305e-06 0.0017853 3.46069e-20 0.0017853)
(0.0017853 -0.000796767 -7.90305e-06 0.0017853 -1.53431e-20 0.0017853)
(0.00189994 -0.000857606 -8.62638e-06 0.00189994 3.36822e-20 0.00189994)
(0.00189994 -0.000857606 -8.62638e-06 0.00189994 -2.08781e-20 0.00189994)
(0.00201368 -0.000917635 -9.36098e-06 0.00201368 3.27168e-20 0.00201368)
(0.00201368 -0.000917635 -9.36098e-06 0.00201368 -2.6075e-20 0.00201368)
(0.00212607 -0.000976545 -1.01039e-05 0.00212607 3.18499e-20 0.00212607)
(0.00212607 -0.000976545 -1.01039e-05 0.00212607 -3.12683e-20 0.00212607)
(0.0022367 -0.00103409 -1.08524e-05 0.0022367 3.16559e-20 0.0022367)
(0.0022367 -0.00103409 -1.08524e-05 0.0022367 -3.59789e-20 0.0022367)
(0.00234523 -0.00109006 -1.16043e-05 0.00234523 3.20398e-20 0.00234523)
(0.00234523 -0.00109006 -1.16043e-05 0.00234523 -4.00513e-20 0.00234523)
(0.00245138 -0.00114433 -1.23578e-05 0.00245138 3.31089e-20 0.00245138)
(0.00245138 -0.00114433 -1.23578e-05 0.00245138 -4.33233e-20 0.00245138)
(0.00255492 -0.00119677 -1.31114e-05 0.00255492 3.529e-20 0.00255492)
(0.00255492 -0.00119677 -1.31114e-05 0.00255492 -4.59178e-20 0.00255492)
(0.00265567 -0.00124733 -1.38638e-05 0.00265567 3.84898e-20 0.00265567)
(0.00265567 -0.00124733 -1.38638e-05 0.00265567 -4.77684e-20 0.00265567)
(0.00275351 -0.00129596 -1.46142e-05 0.00275351 4.2261e-20 0.00275351)
(0.00275351 -0.00129596 -1.46142e-05 0.00275351 -4.83184e-20 0.00275351)
(0.00284834 -0.00134266 -1.53618e-05 0.00284834 4.68622e-20 0.00284834)
(0.00284834 -0.00134266 -1.53618e-05 0.00284834 -4.79258e-20 0.00284834)
(0.00294011 -0.00138743 -1.61063e-05 0.00294011 5.19723e-20 0.00294011)
(0.00294011 -0.00138743 -1.61063e-05 0.00294011 -4.67682e-20 0.00294011)
(0.00302879 -0.0014303 -1.68472e-05 0.00302879 5.72942e-20 0.00302879)
(0.00302879 -0.0014303 -1.68472e-05 0.00302879 -4.44219e-20 0.00302879)
(0.00311439 -0.00147132 -1.75846e-05 0.00311439 6.40986e-20 0.00311439)
(0.00311439 -0.00147132 -1.75846e-05 0.00311439 -4.05873e-20 0.00311439)
(0.00319692 -0.00151052 -1.83183e-05 0.00319692 7.21881e-20 0.00319692)
(0.00319692 -0.00151052 -1.83183e-05 0.00319692 -3.53466e-20 0.00319692)
(0.00327643 -0.00154798 -1.90485e-05 0.00327643 8.05071e-20 0.00327643)
(0.00327643 -0.00154798 -1.90485e-05 0.00327643 -2.93705e-20 0.00327643)
(0.00335296 -0.00158374 -1.97753e-05 0.00335296 8.9163e-20 0.00335296)
(0.00335296 -0.00158374 -1.97753e-05 0.00335296 -2.25439e-20 0.00335296)
(0.00342659 -0.00161788 -2.0499e-05 0.00342659 9.98011e-20 0.00342659)
(0.00342659 -0.00161788 -2.0499e-05 0.00342659 -1.49077e-20 0.00342659)
(0.00349739 -0.00165047 -2.12199e-05 0.00349739 1.09373e-19 0.00349739)
(0.00349739 -0.00165047 -2.12199e-05 0.00349739 -6.38307e-21 0.00349739)
(0.00356543 -0.00168156 -2.19382e-05 0.00356543 1.20253e-19 0.00356543)
(0.00356543 -0.00168156 -2.19382e-05 0.00356543 3.10114e-21 0.00356543)
(0.00363081 -0.00171124 -2.26544e-05 0.00363081 1.32496e-19 0.00363081)
(0.00363081 -0.00171124 -2.26544e-05 0.00363081 1.27581e-20 0.00363081)
(0.0036936 -0.00173956 -2.33687e-05 0.0036936 1.4433e-19 0.0036936)
(0.0036936 -0.00173956 -2.33687e-05 0.0036936 2.35926e-20 0.0036936)
(0.00375391 -0.00176659 -2.40816e-05 0.00375391 1.58341e-19 0.00375391)
(0.00375391 -0.00176659 -2.40816e-05 0.00375391 3.62052e-20 0.00375391)
(0.00381181 -0.0017924 -2.47935e-05 0.00381181 1.73145e-19 0.00381181)
(0.00381181 -0.0017924 -2.47935e-05 0.00381181 4.89799e-20 0.00381181)
(0.0038674 -0.00181703 -2.55047e-05 0.0038674 1.87914e-19 0.0038674)
(0.0038674 -0.00181703 -2.55047e-05 0.0038674 6.24455e-20 0.0038674)
(0.00392078 -0.00184056 -2.62157e-05 0.00392078 2.05201e-19 0.00392078)
(0.00392078 -0.00184056 -2.62157e-05 0.00392078 7.67753e-20 0.00392078)
(0.00397201 -0.00186304 -2.69269e-05 0.00397201 2.2084e-19 0.00397201)
(0.00397201 -0.00186304 -2.69269e-05 0.00397201 9.2841e-20 0.00397201)
(0.0040212 -0.00188451 -2.76386e-05 0.0040212 2.34756e-19 0.0040212)
(0.0040212 -0.00188451 -2.76386e-05 0.0040212 1.09863e-19 0.0040212)
(0.00406843 -0.00190504 -2.83512e-05 0.00406843 1.88668e-21 0.00406843)
(0.00406843 -0.00190504 -2.83512e-05 0.00406843 1.27773e-19 0.00406843)
(0.00411377 -0.00192466 -2.90651e-05 0.00411377 -1.13408e-18 0.00411377)
(0.00411377 -0.00192466 -2.90651e-05 0.00411377 1.48723e-19 0.00411377)
(0.0041573 -0.00194343 -2.97807e-05 0.0041573 -1.62318e-18 0.0041573)
(0.0041573 -0.00194343 -2.97807e-05 0.0041573 1.71287e-19 0.0041573)
(0.00419911 -0.00196138 -3.04983e-05 0.00419911 -1.66686e-18 0.00419911)
(0.00419911 -0.00196138 -3.04983e-05 0.00419911 1.97882e-19 0.00419911)
(0.00423925 -0.00197856 -3.12182e-05 0.00423925 -1.71132e-18 0.00423925)
(0.00423925 -0.00197856 -3.12182e-05 0.00423925 2.23358e-19 0.00423925)
(0.00427781 -0.00199501 -3.19409e-05 0.00427781 -1.75865e-18 0.00427781)
(0.00427781 -0.00199501 -3.19409e-05 0.00427781 2.4571e-19 0.00427781)
(0.00431484 -0.00201075 -3.26667e-05 0.00431484 -1.80025e-18 0.00431484)
(0.00431484 -0.00201075 -3.26667e-05 0.00431484 2.70765e-19 0.00431484)
(0.00435042 -0.00202584 -3.33958e-05 0.00435042 -1.8319e-18 0.00435042)
(0.00435042 -0.00202584 -3.33958e-05 0.00435042 2.96046e-19 0.00435042)
(0.0043846 -0.00204029 -3.41286e-05 0.0043846 -1.87715e-18 0.0043846)
(0.0043846 -0.00204029 -3.41286e-05 0.0043846 3.19156e-19 0.0043846)
(0.00441745 -0.00205414 -3.48654e-05 0.00441745 -1.92879e-18 0.00441745)
(0.00441745 -0.00205414 -3.48654e-05 0.00441745 3.45012e-19 0.00441745)
(0.00444901 -0.00206741 -3.56065e-05 0.00444901 -1.97532e-18 0.00444901)
(0.00444901 -0.00206741 -3.56065e-05 0.00444901 3.71674e-19 0.00444901)
(0.00447934 -0.00208014 -3.63522e-05 0.00447934 -2.01401e-18 0.00447934)
(0.00447934 -0.00208014 -3.63522e-05 0.00447934 3.94639e-19 0.00447934)
(0.00450849 -0.00209235 -3.71027e-05 0.00450849 -2.05181e-18 0.00450849)
(0.00450849 -0.00209235 -3.71027e-05 0.00450849 4.2131e-19 0.00450849)
(0.00453651 -0.00210406 -3.78584e-05 0.00453651 -2.10201e-18 0.00453651)
(0.00453651 -0.00210406 -3.78584e-05 0.00453651 4.53457e-19 0.00453651)
(0.00456344 -0.0021153 -3.86195e-05 0.00456344 -2.14614e-18 0.00456344)
(0.00456344 -0.0021153 -3.86195e-05 0.00456344 4.86574e-19 0.00456344)
(0.00458933 -0.00212609 -3.93862e-05 0.00458933 -2.18965e-18 0.00458933)
(0.00458933 -0.00212609 -3.93862e-05 0.00458933 5.24092e-19 0.00458933)
(0.00461423 -0.00213644 -4.01589e-05 0.00461423 -2.24991e-18 0.00461423)
(0.00461423 -0.00213644 -4.01589e-05 0.00461423 5.60594e-19 0.00461423)
(0.00463816 -0.00214638 -4.09378e-05 0.00463816 -2.30407e-18 0.00463816)
(0.00463816 -0.00214638 -4.09378e-05 0.00463816 5.91413e-19 0.00463816)
(0.00466117 -0.00215592 -4.1723e-05 0.00466117 -2.34999e-18 0.00466117)
(0.00466117 -0.00215592 -4.1723e-05 0.00466117 6.28915e-19 0.00466117)
(0.00468329 -0.00216508 -4.25149e-05 0.00468329 -2.40239e-18 0.00468329)
(0.00468329 -0.00216508 -4.25149e-05 0.00468329 6.61527e-19 0.00468329)
(0.00470456 -0.00217388 -4.33137e-05 0.00470456 -2.46377e-18 0.00470456)
(0.00470456 -0.00217388 -4.33137e-05 0.00470456 6.78988e-19 0.00470456)
(0.004725 -0.00218234 -4.41197e-05 0.004725 -2.50743e-18 0.004725)
(0.004725 -0.00218234 -4.41197e-05 0.004725 6.93925e-19 0.004725)
(0.00474466 -0.00219045 -4.49329e-05 0.00474466 -2.51514e-18 0.00474466)
(0.00474466 -0.00219045 -4.49329e-05 0.00474466 7.14546e-19 0.00474466)
(0.00476355 -0.00219825 -4.57537e-05 0.00476355 -2.55081e-18 0.00476355)
(0.00476355 -0.00219825 -4.57537e-05 0.00476355 7.38844e-19 0.00476355)
(0.00478171 -0.00220574 -4.65823e-05 0.00478171 -2.59919e-18 0.00478171)
(0.00478171 -0.00220574 -4.65823e-05 0.00478171 7.63842e-19 0.00478171)
(0.00479916 -0.00221293 -4.74189e-05 0.00479916 -2.28823e-18 0.00479916)
(0.00479916 -0.00221293 -4.74189e-05 0.00479916 7.92549e-19 0.00479916)
(0.00481593 -0.00221983 -4.82636e-05 0.00481593 -7.91154e-19 0.00481593)
(0.00481593 -0.00221983 -4.82636e-05 0.00481593 8.31511e-19 0.00481593)
(0.00483204 -0.00222647 -4.91168e-05 0.00483204 -3.36713e-19 0.00483204)
(0.00483204 -0.00222647 -4.91168e-05 0.00483204 8.58641e-19 0.00483204)
(0.00484751 -0.00223283 -4.99785e-05 0.00484751 -3.44047e-19 0.00484751)
(0.00484751 -0.00223283 -4.99785e-05 0.00484751 9.0916e-19 0.00484751)
(0.00486237 -0.00223895 -5.0849e-05 0.00486237 -3.66678e-19 0.00486237)
(0.00486237 -0.00223895 -5.0849e-05 0.00486237 9.80645e-19 0.00486237)
(0.00487663 -0.00224481 -5.17286e-05 0.00487663 -3.34503e-19 0.00487663)
(0.00487663 -0.00224481 -5.17286e-05 0.00487663 1.01194e-18 0.00487663)
(0.00489032 -0.00225044 -5.26173e-05 0.00489032 -3.70534e-19 0.00489032)
(0.00489032 -0.00225044 -5.26173e-05 0.00489032 1.01372e-18 0.00489032)
(0.00490345 -0.00225584 -5.35154e-05 0.00490345 -4.12606e-19 0.00490345)
(0.00490345 -0.00225584 -5.35154e-05 0.00490345 1.01751e-18 0.00490345)
(0.00491604 -0.00226102 -5.4423e-05 0.00491604 -4.04225e-19 0.00491604)
(0.00491604 -0.00226102 -5.4423e-05 0.00491604 1.04537e-18 0.00491604)
(0.00492812 -0.00226598 -5.53404e-05 0.00492812 -3.99483e-19 0.00492812)
(0.00492812 -0.00226598 -5.53404e-05 0.00492812 1.13404e-18 0.00492812)
(0.00493968 -0.00227074 -5.62677e-05 0.00493968 -4.02733e-19 0.00493968)
(0.00493968 -0.00227074 -5.62677e-05 0.00493968 1.17743e-18 0.00493968)
(0.00495076 -0.00227529 -5.72052e-05 0.00495076 -4.20337e-19 0.00495076)
(0.00495076 -0.00227529 -5.72052e-05 0.00495076 1.21701e-18 0.00495076)
(0.00496136 -0.00227965 -5.81529e-05 0.00496136 -4.36818e-19 0.00496136)
(0.00496136 -0.00227965 -5.81529e-05 0.00496136 1.25673e-18 0.00496136)
(0.00497149 -0.00228382 -5.91111e-05 0.00497149 -4.53175e-19 0.00497149)
(0.00497149 -0.00228382 -5.91111e-05 0.00497149 1.23601e-18 0.00497149)
(0.00498118 -0.00228781 -6.008e-05 0.00498118 -5.22428e-19 0.00498118)
(0.00498118 -0.00228781 -6.008e-05 0.00498118 1.25925e-18 0.00498118)
(0.00499043 -0.00229162 -6.10597e-05 0.00499043 -5.57618e-19 0.00499043)
(0.00499043 -0.00229162 -6.10597e-05 0.00499043 1.25016e-18 0.00499043)
(0.00499926 -0.00229525 -6.20504e-05 0.00499926 -5.6798e-19 0.00499926)
(0.00499926 -0.00229525 -6.20504e-05 0.00499926 1.24968e-18 0.00499926)
(0.00500767 -0.00229872 -6.30523e-05 0.00500767 -5.82024e-19 0.00500767)
(0.00500767 -0.00229872 -6.30523e-05 0.00500767 1.27685e-18 0.00500767)
(0.00501568 -0.00230202 -6.40655e-05 0.00501568 1.12888e-19 0.00501568)
(0.00501568 -0.00230202 -6.40655e-05 0.00501568 1.30834e-18 0.00501568)
(0.0050233 -0.00230516 -6.50903e-05 0.0050233 2.16006e-18 0.0050233)
(0.0050233 -0.00230516 -6.50903e-05 0.0050233 1.3426e-18 0.0050233)
(0.00503054 -0.00230815 -6.61268e-05 0.00503054 3.61985e-18 0.00503054)
(0.00503054 -0.00230815 -6.61268e-05 0.00503054 1.4061e-18 0.00503054)
(0.0050374 -0.00231098 -6.71751e-05 0.0050374 3.72415e-18 0.0050374)
(0.0050374 -0.00231098 -6.71751e-05 0.0050374 1.41776e-18 0.0050374)
(0.0050439 -0.00231366 -6.82354e-05 0.0050439 3.78504e-18 0.0050439)
(0.0050439 -0.00231366 -6.82354e-05 0.0050439 1.47092e-18 0.0050439)
(0.00505004 -0.0023162 -6.9308e-05 0.00505004 3.92482e-18 0.00505004)
(0.00505004 -0.0023162 -6.9308e-05 0.00505004 1.53765e-18 0.00505004)
(0.00505584 -0.0023186 -7.03929e-05 0.00505584 4.06348e-18 0.00505584)
(0.00505584 -0.0023186 -7.03929e-05 0.00505584 1.59528e-18 0.00505584)
(0.0050613 -0.00232086 -7.14903e-05 0.0050613 4.22899e-18 0.0050613)
(0.0050613 -0.00232086 -7.14903e-05 0.0050613 1.64606e-18 0.0050613)
(0.00506643 -0.00232298 -7.26004e-05 0.00506643 4.43448e-18 0.00506643)
(0.00506643 -0.00232298 -7.26004e-05 0.00506643 1.71725e-18 0.00506643)
(0.00507123 -0.00232497 -7.37234e-05 0.00507123 4.50165e-18 0.00507123)
(0.00507123 -0.00232497 -7.37234e-05 0.00507123 1.77761e-18 0.00507123)
(0.00507571 -0.00232683 -7.48594e-05 0.00507571 3.2533e-18 0.00507571)
(0.00507571 -0.00232683 -7.48594e-05 0.00507571 1.8612e-18 0.00507571)
(0.00507988 -0.00232856 -7.60086e-05 0.00507988 1.06882e-18 0.00507988)
(0.00507988 -0.00232856 -7.60086e-05 0.00507988 1.90426e-18 0.00507988)
(0.00508375 -0.00233016 -7.71712e-05 0.00508375 1.14577e-19 0.00508375)
(0.00508375 -0.00233016 -7.71712e-05 0.00508375 1.93342e-18 0.00508375)
(0.00508732 -0.00233164 -7.83472e-05 0.00508732 5.14892e-20 0.00508732)
(0.00508732 -0.00233164 -7.83472e-05 0.00508732 1.96137e-18 0.00508732)
(0.00509059 -0.002333 -7.95369e-05 0.00509059 2.98944e-20 0.00509059)
(0.00509059 -0.002333 -7.95369e-05 0.00509059 2.03076e-18 0.00509059)
(0.00509357 -0.00233424 -8.07404e-05 0.00509357 -2.62887e-20 0.00509357)
(0.00509357 -0.00233424 -8.07404e-05 0.00509357 2.12377e-18 0.00509357)
(0.00509627 -0.00233537 -8.19579e-05 0.00509627 -4.6678e-20 0.00509627)
(0.00509627 -0.00233537 -8.19579e-05 0.00509627 2.19861e-18 0.00509627)
(0.0050987 -0.00233637 -8.31895e-05 0.0050987 -5.87969e-20 0.0050987)
(0.0050987 -0.00233637 -8.31895e-05 0.0050987 2.27998e-18 0.0050987)
(0.00510085 -0.00233727 -8.44355e-05 0.00510085 -5.08477e-21 0.00510085)
(0.00510085 -0.00233727 -8.44355e-05 0.00510085 2.34155e-18 0.00510085)
(0.00510272 -0.00233805 -8.56959e-05 0.00510272 6.14461e-20 0.00510272)
(0.00510272 -0.00233805 -8.56959e-05 0.00510272 2.38314e-18 0.00510272)
(0.00510434 -0.00233872 -8.69708e-05 0.00510434 5.79232e-21 0.00510434)
(0.00510434 -0.00233872 -8.69708e-05 0.00510434 2.46391e-18 0.00510434)
(0.00510569 -0.00233928 -8.82606e-05 0.00510569 1.3761e-19 0.00510569)
(0.00510569 -0.00233928 -8.82606e-05 0.00510569 2.5698e-18 0.00510569)
(0.00510678 -0.00233974 -8.95652e-05 0.00510678 1.95084e-19 0.00510678)
(0.00510678 -0.00233974 -8.95652e-05 0.00510678 2.6079e-18 0.00510678)
(0.00510762 -0.00234008 -9.08849e-05 0.00510762 2.1568e-22 0.00510762)
(0.00510762 -0.00234008 -9.08849e-05 0.00510762 2.67364e-18 0.00510762)
(0.00510822 -0.00234033 -9.22198e-05 0.00510822 -6.75908e-20 0.00510822)
(0.00510822 -0.00234033 -9.22198e-05 0.00510822 2.7769e-18 0.00510822)
(0.00510856 -0.00234046 -9.35701e-05 0.00510856 1.24737e-19 0.00510856)
(0.00510856 -0.00234046 -9.35701e-05 0.00510856 2.83465e-18 0.00510856)
(0.00510866 -0.0023405 -9.49359e-05 0.00510866 1.80744e-19 0.00510866)
(0.00510866 -0.0023405 -9.49359e-05 0.00510866 2.99385e-18 0.00510866)
(0.00510852 -0.00234043 -9.63173e-05 0.00510852 2.88313e-19 0.00510852)
(0.00510852 -0.00234043 -9.63173e-05 0.00510852 3.04734e-18 0.00510852)
(0.00510814 -0.00234026 -9.77146e-05 0.00510814 2.48382e-19 0.00510814)
(0.00510814 -0.00234026 -9.77146e-05 0.00510814 2.70106e-18 0.00510814)
(0.00510752 -0.00234 -9.91278e-05 0.00510752 3.46556e-20 0.00510752)
(0.00510752 -0.00234 -9.91278e-05 0.00510752 2.92733e-18 0.00510752)
(0.00510668 -0.00233963 -0.000100557 0.00510668 1.02474e-19 0.00510668)
(0.00510668 -0.00233963 -0.000100557 0.00510668 3.6295e-18 0.00510668)
(0.0051056 -0.00233916 -0.000102003 0.0051056 6.49518e-20 0.0051056)
(0.0051056 -0.00233916 -0.000102003 0.0051056 3.34958e-18 0.0051056)
(0.00510429 -0.0023386 -0.000103464 0.00510429 1.47458e-19 0.00510429)
(0.00510429 -0.0023386 -0.000103464 0.00510429 2.99623e-18 0.00510429)
(0.00510276 -0.00233794 -0.000104943 0.00510276 1.83225e-19 0.00510276)
(0.00510276 -0.00233794 -0.000104943 0.00510276 3.70426e-18 0.00510276)
(0.00510101 -0.00233718 -0.000106438 0.00510101 1.17327e-19 0.00510101)
(0.00510101 -0.00233718 -0.000106438 0.00510101 3.89378e-18 0.00510101)
(0.00509903 -0.00233633 -0.00010795 0.00509903 2.82187e-19 0.00509903)
(0.00509903 -0.00233633 -0.00010795 0.00509903 3.64348e-18 0.00509903)
(0.00509683 -0.00233538 -0.000109478 0.00509683 3.11585e-19 0.00509683)
(0.00509683 -0.00233538 -0.000109478 0.00509683 3.98856e-18 0.00509683)
(0.00509442 -0.00233434 -0.000111024 0.00509442 2.27858e-19 0.00509442)
(0.00509442 -0.00233434 -0.000111024 0.00509442 4.33427e-18 0.00509442)
(0.00509179 -0.0023332 -0.000112587 0.00509179 1.39985e-19 0.00509179)
(0.00509179 -0.0023332 -0.000112587 0.00509179 4.57276e-18 0.00509179)
(0.00508894 -0.00233197 -0.000114167 0.00508894 1.82596e-19 0.00508894)
(0.00508894 -0.00233197 -0.000114167 0.00508894 4.58461e-18 0.00508894)
(0.00508588 -0.00233064 -0.000115765 0.00508588 4.7891e-19 0.00508588)
(0.00508588 -0.00233064 -0.000115765 0.00508588 4.70726e-18 0.00508588)
(0.00508261 -0.00232922 -0.00011738 0.00508261 4.06618e-19 0.00508261)
(0.00508261 -0.00232922 -0.00011738 0.00508261 4.99829e-18 0.00508261)
(0.00507913 -0.00232771 -0.000119013 0.00507913 1.88826e-19 0.00507913)
(0.00507913 -0.00232771 -0.000119013 0.00507913 5.10557e-18 0.00507913)
(0.00507543 -0.00232611 -0.000120664 0.00507543 1.62444e-19 0.00507543)
(0.00507543 -0.00232611 -0.000120664 0.00507543 5.38204e-18 0.00507543)
(0.00507153 -0.00232441 -0.000122333 0.00507153 2.1097e-19 0.00507153)
(0.00507153 -0.00232441 -0.000122333 0.00507153 5.68505e-18 0.00507153)
(0.00506743 -0.00232263 -0.000124019 0.00506743 2.01246e-19 0.00506743)
(0.00506743 -0.00232263 -0.000124019 0.00506743 6.27484e-18 0.00506743)
(0.00506311 -0.00232075 -0.000125724 0.00506311 2.58945e-19 0.00506311)
(0.00506311 -0.00232075 -0.000125724 0.00506311 6.60695e-18 0.00506311)
(0.00505859 -0.00231878 -0.000127447 0.00505859 3.05232e-20 0.00505859)
(0.00505859 -0.00231878 -0.000127447 0.00505859 5.96869e-18 0.00505859)
(0.00505387 -0.00231671 -0.000129188 0.00505387 2.49769e-19 0.00505387)
(0.00505387 -0.00231671 -0.000129188 0.00505387 5.78069e-18 0.00505387)
(0.00504894 -0.00231456 -0.000130948 0.00504894 5.11688e-19 0.00504894)
(0.00504894 -0.00231456 -0.000130948 0.00504894 6.85088e-18 0.00504894)
(0.0050438 -0.00231231 -0.000132726 0.0050438 4.69846e-19 0.0050438)
(0.0050438 -0.00231231 -0.000132726 0.0050438 7.33748e-18 0.0050438)
(0.00503847 -0.00230997 -0.000134523 0.00503847 4.31945e-19 0.00503847)
(0.00503847 -0.00230997 -0.000134523 0.00503847 6.73203e-18 0.00503847)
(0.00503293 -0.00230754 -0.000136339 0.00503293 -1.33514e-19 0.00503293)
(0.00503293 -0.00230754 -0.000136339 0.00503293 7.17006e-18 0.00503293)
(0.00502719 -0.00230502 -0.000138173 0.00502719 1.21849e-19 0.00502719)
(0.00502719 -0.00230502 -0.000138173 0.00502719 7.78526e-18 0.00502719)
(0.00502125 -0.00230241 -0.000140026 0.00502125 -2.92603e-19 0.00502125)
(0.00502125 -0.00230241 -0.000140026 0.00502125 5.4481e-18 0.00502125)
(0.00501511 -0.0022997 -0.000141898 0.00501511 -2.97824e-19 0.00501511)
(0.00501511 -0.0022997 -0.000141898 0.00501511 9.70506e-19 0.00501511)
(0.00500877 -0.00229691 -0.00014379 0.00500877 -1.73603e-20 0.00500877)
(0.00500877 -0.00229691 -0.00014379 0.00500877 5.29752e-19 0.00500877)
(0.00500222 -0.00229402 -0.0001457 0.00500222 4.5821e-19 0.00500222)
(0.00500222 -0.00229402 -0.0001457 0.00500222 -5.22886e-21 0.00500222)
(0.00499548 -0.00229104 -0.000147629 0.00499548 2.0067e-19 0.00499548)
(0.00499548 -0.00229104 -0.000147629 0.00499548 2.76458e-19 0.00499548)
(0.00498854 -0.00228796 -0.000149578 0.00498854 -2.16498e-19 0.00498854)
(0.00498854 -0.00228796 -0.000149578 0.00498854 3.69252e-19 0.00498854)
(0.00498139 -0.0022848 -0.000151545 0.00498139 -7.32952e-19 0.00498139)
(0.00498139 -0.0022848 -0.000151545 0.00498139 1.49326e-19 0.00498139)
(0.00497405 -0.00228154 -0.000153533 0.00497405 -4.78602e-19 0.00497405)
(0.00497405 -0.00228154 -0.000153533 0.00497405 4.00334e-19 0.00497405)
(0.0049665 -0.00227819 -0.000155539 0.0049665 2.9411e-19 0.0049665)
(0.0049665 -0.00227819 -0.000155539 0.0049665 9.0239e-19 0.0049665)
(0.00495876 -0.00227474 -0.000157565 0.00495876 -7.09162e-20 0.00495876)
(0.00495876 -0.00227474 -0.000157565 0.00495876 7.21892e-19 0.00495876)
(0.00495081 -0.0022712 -0.00015961 0.00495081 8.9861e-20 0.00495081)
(0.00495081 -0.0022712 -0.00015961 0.00495081 -1.16982e-19 0.00495081)
(0.00494267 -0.00226757 -0.000161674 0.00494267 1.36241e-19 0.00494267)
(0.00494267 -0.00226757 -0.000161674 0.00494267 -4.35873e-19 0.00494267)
(0.00493432 -0.00226384 -0.000163758 0.00493432 1.17873e-19 0.00493432)
(0.00493432 -0.00226384 -0.000163758 0.00493432 -5.32355e-19 0.00493432)
(0.00492577 -0.00226002 -0.000165861 0.00492577 7.48059e-20 0.00492577)
(0.00492577 -0.00226002 -0.000165861 0.00492577 -3.89036e-19 0.00492577)
(0.00491702 -0.0022561 -0.000167984 0.00491702 -2.01398e-19 0.00491702)
(0.00491702 -0.0022561 -0.000167984 0.00491702 -6.49752e-19 0.00491702)
(0.00490807 -0.00225208 -0.000170125 0.00490807 3.69647e-20 0.00490807)
(0.00490807 -0.00225208 -0.000170125 0.00490807 -6.83409e-19 0.00490807)
(0.00489891 -0.00224797 -0.000172287 0.00489891 2.58584e-19 0.00489891)
(0.00489891 -0.00224797 -0.000172287 0.00489891 -1.7615e-19 0.00489891)
(0.00488955 -0.00224377 -0.000174467 0.00488955 6.28293e-19 0.00488955)
(0.00488955 -0.00224377 -0.000174467 0.00488955 -4.55051e-19 0.00488955)
(0.00487999 -0.00223946 -0.000176667 0.00487999 5.80564e-19 0.00487999)
(0.00487999 -0.00223946 -0.000176667 0.00487999 -9.41082e-19 0.00487999)
(0.00487022 -0.00223506 -0.000178886 0.00487022 2.51982e-19 0.00487022)
(0.00487022 -0.00223506 -0.000178886 0.00487022 -1.13083e-18 0.00487022)
(0.00486025 -0.00223056 -0.000181124 0.00486025 1.0972e-19 0.00486025)
(0.00486025 -0.00223056 -0.000181124 0.00486025 -1.16955e-18 0.00486025)
(0.00485007 -0.00222596 -0.000183381 0.00485007 1.13523e-18 0.00485007)
(0.00485007 -0.00222596 -0.000183381 0.00485007 -1.34378e-18 0.00485007)
(0.00483969 -0.00222126 -0.000185657 0.00483969 1.04489e-18 0.00483969)
(0.00483969 -0.00222126 -0.000185657 0.00483969 -1.24985e-18 0.00483969)
(0.0048291 -0.00221647 -0.000187952 0.0048291 3.58516e-19 0.0048291)
(0.0048291 -0.00221647 -0.000187952 0.0048291 -1.34361e-18 0.0048291)
(0.0048183 -0.00221157 -0.000190265 0.0048183 -3.73205e-20 0.0048183)
(0.0048183 -0.00221157 -0.000190265 0.0048183 -1.70228e-18 0.0048183)
(0.00480729 -0.00220657 -0.000192597 0.00480729 1.84271e-19 0.00480729)
(0.00480729 -0.00220657 -0.000192597 0.00480729 -9.43038e-19 0.00480729)
(0.00479608 -0.00220146 -0.000194948 0.00479608 5.56508e-19 0.00479608)
(0.00479608 -0.00220146 -0.000194948 0.00479608 -6.15492e-19 0.00479608)
(0.00478465 -0.00219626 -0.000197317 0.00478465 1.08427e-18 0.00478465)
(0.00478465 -0.00219626 -0.000197317 0.00478465 -1.03648e-18 0.00478465)
(0.00477301 -0.00219095 -0.000199704 0.00477301 6.04915e-19 0.00477301)
(0.00477301 -0.00219095 -0.000199704 0.00477301 -2.55081e-19 0.00477301)
(0.00476115 -0.00218554 -0.000202109 0.00476115 9.06201e-19 0.00476115)
(0.00476115 -0.00218554 -0.000202109 0.00476115 1.19682e-18 0.00476115)
(0.00474909 -0.00218002 -0.000204532 0.00474909 8.55683e-19 0.00474909)
(0.00474909 -0.00218002 -0.000204532 0.00474909 1.47332e-18 0.00474909)
(0.0047368 -0.0021744 -0.000206973 0.0047368 7.74004e-19 0.0047368)
(0.0047368 -0.0021744 -0.000206973 0.0047368 9.45029e-19 0.0047368)
(0.0047243 -0.00216867 -0.000209431 0.0047243 1.78849e-18 0.0047243)
(0.0047243 -0.00216867 -0.000209431 0.0047243 1.51357e-18 0.0047243)
(0.00471159 -0.00216283 -0.000211905 0.00471159 1.30308e-18 0.00471159)
(0.00471159 -0.00216283 -0.000211905 0.00471159 4.00604e-18 0.00471159)
(0.00469865 -0.00215688 -0.000214397 0.00469865 6.98244e-19 0.00469865)
(0.00469865 -0.00215688 -0.000214397 0.00469865 6.27843e-18 0.00469865)
(0.0046855 -0.00215083 -0.000216905 0.0046855 6.09008e-19 0.0046855)
(0.0046855 -0.00215083 -0.000216905 0.0046855 3.71777e-18 0.0046855)
(0.00467212 -0.00214466 -0.00021943 0.00467212 2.20564e-18 0.00467212)
(0.00467212 -0.00214466 -0.00021943 0.00467212 4.74253e-18 0.00467212)
(0.00465852 -0.00213838 -0.00022197 0.00465852 5.07307e-18 0.00465852)
(0.00465852 -0.00213838 -0.00022197 0.00465852 7.83517e-18 0.00465852)
(0.0046447 -0.00213199 -0.000224526 0.0046447 3.32341e-18 0.0046447)