/*--------------------------------*- C++ -*----------------------------------*\
| =========                 |                                                 |
| \\      /  F ield         | OpenFOAM: The Open Source CFD Toolbox           |
|  \\    /   O peration     | Version:  2012                                  |
|   \\  /    A nd           | Website:  www.openfoam.com                      |
|    \\/     M anipulation  |                                                 |
\*---------------------------------------------------------------------------*/
FoamFile
{
    version     2.0;
    format      ascii;
    class       volScalarField;
    location    "3000";
    object      p;
}
// * * * * * * * * * * * * * * * * * * * * * * * * * * * * * * * * * * * * * //

dimensions      [0 2 -2 0 0 0 0];


internalField   nonuniform List<scalar> 
160
(
5.78704e-17
1.14296e-15
1.57472e-16
1.1328e-15
1.75326e-16
1.10509e-15
1.86479e-16
1.06024e-15
2.26404e-16
9.96795e-16
2.78483e-16
9.13555e-16
3.29784e-16
8.18445e-16
3.70248e-16
7.18006e-16
4.10359e-16
6.26967e-16
4.45009e-16
5.43528e-16
4.63415e-16
4.74864e-16
4.68113e-16
4.72771e-16
4.96913e-16
5.00557e-16
5.4632e-16
5.55841e-16
5.58958e-16
5.853e-16
6.26515e-16
7.03901e-16
4.0342e-16
4.08925e-16
4.01471e-17
1.56296e-16
-1.27129e-15
-1.24566e-15
-1.36445e-16
6.55201e-18
7.13314e-16
8.31393e-16
7.14258e-16
8.3266e-16
7.15191e-16
8.33866e-16
7.17392e-16
8.35383e-16
7.228e-16
8.3644e-16
7.3103e-16
8.36127e-16
7.38639e-16
8.31097e-16
7.55193e-16
8.21549e-16
7.65176e-16
8.06564e-16
7.60591e-16
7.86723e-16
7.3911e-16
7.50772e-16
6.86028e-16
6.91686e-16
6.2574e-16
6.34126e-16
5.72235e-16
6.12409e-16
5.84538e-16
5.9772e-16
3.96568e-16
6.53483e-16
5.50776e-16
5.3764e-16
1.5116e-16
1.56892e-16
-1.53782e-15
-1.2349e-15
3.03257e-18
7.40012e-18
-1.39349e-15
-1.50459e-15
-2.06262e-15
-1.92236e-15
-2.43645e-15
-2.41037e-15
-2.60164e-15
-2.60006e-15
-2.43541e-15
-2.42911e-15
-2.41171e-15
-2.40588e-15
-2.28371e-15
-2.26671e-15
-2.33517e-15
-2.35072e-15
-2.33049e-15
-2.33387e-15
-2.32788e-15
-2.32572e-15
-2.32758e-15
-2.32024e-15
-2.32917e-15
-2.32511e-15
-2.33111e-15
-2.32874e-15
-2.33023e-15
-2.32876e-15
-2.32949e-15
-2.32875e-15
-2.32819e-15
-2.32947e-15
-2.32923e-15
-2.32902e-15
-2.32963e-15
-2.32887e-15
-2.32963e-15
-2.32889e-15
-2.32956e-15
-2.32893e-15
-1.34515e-15
-1.19788e-15
-1.78036e-15
-2.01164e-15
-2.38688e-15
-2.38724e-15
-2.5348e-15
-2.53291e-15
-2.40571e-15
-2.37253e-15
-2.39618e-15
-2.37505e-15
-2.27795e-15
-2.27184e-15
-2.307e-15
-2.3e-15
-2.32098e-15
-2.3271e-15
-2.32413e-15
-2.31793e-15
-2.32837e-15
-2.30667e-15
-2.32813e-15
-2.3183e-15
-2.32944e-15
-2.32508e-15
-2.3361e-15
-2.32693e-15
-2.33386e-15
-2.32573e-15
-2.3312e-15
-2.32807e-15
-2.33143e-15
-2.32865e-15
-2.33128e-15
-2.32866e-15
-2.33126e-15
-2.32864e-15
-2.33127e-15
-2.32866e-15
)
;

boundaryField
{
    walls
    {
        type            zeroGradient;
    }
    inlet
    {
        type            cyclic;
    }
    outlet
    {
        type            cyclic;
    }
    sides
    {
        type            empty;
    }
}


// ************************************************************************* //
