/*--------------------------------*- C++ -*----------------------------------*\
| =========                 |                                                 |
| \\      /  F ield         | OpenFOAM: The Open Source CFD Toolbox           |
|  \\    /   O peration     | Version:  2012                                  |
|   \\  /    A nd           | Website:  www.openfoam.com                      |
|    \\/     M anipulation  |                                                 |
\*---------------------------------------------------------------------------*/
FoamFile
{
    version     2.0;
    format      ascii;
    class       volScalarField;
    location    "17000";
    object      omega;
}
// * * * * * * * * * * * * * * * * * * * * * * * * * * * * * * * * * * * * * //

dimensions      [0 0 -1 0 0 0 0];


internalField   nonuniform List<scalar> 
2560
(
1.52415e+06
1.52415e+06
265147
265147
89770.6
89770.6
42093.3
42093.3
23561
23561
14786.9
14786.9
10194.9
10194.9
7629.45
7629.45
6093.47
6093.47
5105.62
5105.62
4428.63
4428.63
3939.91
3939.91
3572.16
3572.16
3286.17
3286.17
3057.79
3057.79
2871.44
2871.44
2716.67
2716.67
2586.2
2586.2
2474.81
2474.81
2378.69
2378.69
2294.95
2294.95
2221.37
2221.37
2156.23
2156.23
2098.16
2098.16
2046.04
2046.04
1998.97
1998.97
1956.21
1956.21
1917.1
1917.1
1881.13
1881.13
1847.83
1847.83
1816.79
1816.79
1787.67
1787.67
1760.15
1760.15
1733.96
1733.96
1708.85
1708.85
1684.6
1684.6
1661
1661
1637.87
1637.87
1615.04
1615.04
1592.36
1592.36
1569.7
1569.7
1546.93
1546.93
1523.94
1523.94
1500.63
1500.63
1476.94
1476.94
1452.78
1452.78
1428.1
1428.1
1402.87
1402.87
1377.07
1377.07
1350.67
1350.67
1323.7
1323.7
1296.16
1296.16
1268.11
1268.11
1239.6
1239.6
1210.68
1210.68
1181.46
1181.46
1152.02
1152.02
1122.47
1122.47
1092.94
1092.94
1063.56
1063.56
1034.45
1034.45
1005.77
1005.77
977.637
977.637
950.199
950.199
923.58
923.58
897.894
897.894
873.241
873.241
849.703
849.703
827.341
827.341
806.19
806.19
786.269
786.269
767.562
767.562
750.035
750.035
733.633
733.633
718.285
718.285
703.907
703.907
690.404
690.404
677.678
677.678
665.629
665.629
654.161
654.161
643.181
643.181
632.606
632.606
622.36
622.36
612.377
612.377
602.601
602.601
592.984
592.984
583.488
583.488
574.084
574.084
564.747
564.747
555.46
555.46
546.211
546.211
536.992
536.992
527.799
527.799
518.629
518.629
509.483
509.483
500.362
500.362
491.27
491.27
482.209
482.209
473.185
473.185
464.202
464.202
455.266
455.266
446.38
446.38
437.552
437.552
428.785
428.785
420.085
420.085
411.456
411.456
402.904
402.904
394.432
394.432
386.045
386.045
377.748
377.748
369.543
369.543
361.434
361.434
353.425
353.425
345.518
345.518
337.716
337.716
330.021
330.021
322.436
322.436
314.961
314.961
307.6
307.6
300.353
300.353
293.221
293.221
286.205
286.205
279.305
279.305
272.522
272.522
265.857
265.857
259.308
259.308
252.876
252.876
246.561
246.561
240.361
240.361
234.277
234.277
228.307
228.307
222.451
222.451
216.708
216.708
211.076
211.076
205.555
205.555
200.144
200.144
194.842
194.842
189.647
189.647
184.558
184.558
179.575
179.575
174.696
174.696
169.919
169.919
165.244
165.244
160.669
160.669
156.193
156.193
151.815
151.815
147.533
147.533
143.346
143.346
139.254
139.254
135.255
135.255
131.348
131.348
127.532
127.532
123.806
123.806
120.168
120.168
116.62
116.62
113.158
113.158
109.783
109.783
106.494
106.494
103.289
103.289
100.168
100.168
97.1311
97.1311
94.1759
94.1759
91.3016
91.3016
88.507
88.507
85.7906
85.7906
83.1508
83.1508
80.5858
80.5858
78.0936
78.0936
75.6723
75.6723
73.3196
73.3196
71.0334
71.0334
68.8117
68.8117
66.6525
66.6525
64.5539
64.5539
62.5144
62.5144
60.5324
60.5324
58.6067
58.6067
56.7362
56.7362
54.9197
54.9197
53.1562
53.1562
51.4449
51.4449
49.7848
49.7848
48.1749
48.1749
46.6141
46.6141
45.1016
45.1016
43.636
43.636
42.2163
42.2163
40.8414
40.8414
39.5099
39.5099
38.2209
38.2209
36.9733
36.9733
35.7663
35.7663
34.5989
34.5989
33.4706
33.4706
32.3808
32.3808
31.3288
31.3288
30.3143
30.3143
29.3367
29.3367
28.3958
28.3958
27.4911
27.4911
26.6221
26.6221
25.7883
25.7883
24.9892
24.9892
24.2242
24.2242
23.4923
23.4923
22.7927
22.7927
22.1243
22.1243
21.4858
21.4858
20.8761
20.8761
20.2938
20.2938
19.7379
19.7379
19.2072
19.2072
18.7006
18.7006
18.2169
18.2169
17.7551
17.7551
17.3137
17.3137
16.8912
16.8912
16.486
16.486
16.0962
16.0962
15.7198
15.7198
15.3549
15.3549
14.9993
14.9993
14.6516
14.6516
14.3106
14.3106
13.9758
13.9758
13.6473
13.6473
13.3253
13.3253
13.0103
13.0103
12.7022
12.7022
12.4006
12.4006
12.1048
12.1048
11.8137
11.8137
11.5268
11.5268
11.2433
11.2433
10.9632
10.9632
10.6864
10.6864
10.4132
10.4132
10.1443
10.1443
9.88062
9.88062
9.62342
9.62342
9.37406
9.37406
9.13365
9.13365
8.90291
8.90292
8.68201
8.68201
8.47053
8.47053
8.26752
8.26752
8.0714
8.0714
7.87995
7.87996
7.69045
7.69045
7.50023
7.50023
7.30762
7.30762
7.11249
7.11249
6.91622
6.91622
6.72124
6.72124
6.53037
6.53037
6.346
6.346
6.16955
6.16956
6.00144
6.00144
5.84136
5.84136
5.68871
5.68871
5.54311
5.54311
5.40485
5.40485
5.27467
5.27467
5.15331
5.15332
5.04073
5.04073
4.93613
4.93613
4.83833
4.83833
4.74625
4.74625
4.65915
4.65915
4.57673
4.57673
4.49909
4.49909
4.42676
4.42676
4.36055
4.36055
4.30116
4.30116
4.24892
4.24892
4.20367
4.20367
4.16462
4.16462
4.13057
4.13057
4.09997
4.09997
4.07123
4.07123
4.04307
4.04307
4.01439
4.01439
3.98361
3.98361
3.94831
3.94831
3.90564
3.90564
3.85333
3.85333
3.79056
3.79056
3.71789
3.71789
3.63678
3.63678
3.54996
3.54997
3.46161
3.46161
3.37564
3.37564
3.29383
3.29383
3.21601
3.21601
3.14218
3.14218
3.07258
3.07258
3.00665
3.00666
2.94279
2.94279
2.87957
2.87957
2.81674
2.81674
2.75513
2.75513
2.6959
2.6959
2.63995
2.63995
2.58774
2.58774
2.53951
2.53951
2.49499
2.49499
2.45236
2.45236
2.40957
2.40957
2.36574
2.36574
2.32194
2.32194
2.28009
2.28009
2.24147
2.24147
2.20657
2.20657
2.17571
2.17571
2.14902
2.14902
2.12626
2.12626
2.10738
2.10739
2.09299
2.093
2.08314
2.08315
2.07792
2.07793
1.52415e+06
1.52415e+06
265147
265147
89770.6
89770.6
42093.3
42093.3
23561
23561
14786.9
14786.9
10194.9
10194.9
7629.45
7629.45
6093.47
6093.47
5105.62
5105.62
4428.63
4428.63
3939.91
3939.91
3572.16
3572.16
3286.17
3286.17
3057.79
3057.79
2871.44
2871.44
2716.67
2716.67
2586.2
2586.2
2474.81
2474.81
2378.69
2378.69
2294.95
2294.95
2221.37
2221.37
2156.23
2156.23
2098.16
2098.16
2046.04
2046.04
1998.97
1998.97
1956.21
1956.21
1917.1
1917.1
1881.13
1881.13
1847.83
1847.83
1816.79
1816.79
1787.67
1787.67
1760.15
1760.15
1733.96
1733.96
1708.85
1708.85
1684.6
1684.6
1661
1661
1637.87
1637.87
1615.04
1615.04
1592.36
1592.36
1569.7
1569.7
1546.93
1546.93
1523.94
1523.94
1500.63
1500.63
1476.94
1476.94
1452.78
1452.78
1428.1
1428.1
1402.87
1402.87
1377.07
1377.07
1350.67
1350.67
1323.7
1323.7
1296.17
1296.17
1268.11
1268.11
1239.6
1239.6
1210.68
1210.68
1181.46
1181.46
1152.02
1152.02
1122.47
1122.47
1092.94
1092.94
1063.56
1063.56
1034.45
1034.45
1005.77
1005.77
977.637
977.637
950.2
950.2
923.58
923.58
897.894
897.894
873.242
873.242
849.704
849.704
827.341
827.341
806.191
806.191
786.269
786.269
767.562
767.562
750.035
750.035
733.634
733.634
718.286
718.286
703.907
703.907
690.404
690.404
677.678
677.678
665.629
665.629
654.161
654.161
643.181
643.181
632.606
632.606
622.36
622.36
612.377
612.377
602.601
602.601
592.984
592.984
583.488
583.488
574.084
574.084
564.747
564.747
555.46
555.46
546.211
546.211
536.993
536.993
527.799
527.799
518.63
518.63
509.483
509.483
500.363
500.363
491.27
491.27
482.209
482.209
473.185
473.185
464.202
464.202
455.266
455.266
446.38
446.38
437.552
437.552
428.785
428.785
420.085
420.085
411.456
411.456
402.904
402.904
394.432
394.432
386.045
386.045
377.748
377.748
369.543
369.543
361.434
361.434
353.425
353.425
345.518
345.518
337.716
337.716
330.021
330.021
322.436
322.436
314.962
314.962
307.6
307.6
300.353
300.353
293.221
293.221
286.205
286.205
279.305
279.305
272.523
272.523
265.857
265.857
259.308
259.308
252.876
252.876
246.561
246.561
240.361
240.361
234.277
234.277
228.307
228.307
222.451
222.451
216.708
216.708
211.076
211.076
205.555
205.555
200.144
200.144
194.842
194.842
189.647
189.647
184.558
184.558
179.575
179.575
174.696
174.696
169.919
169.919
165.244
165.244
160.669
160.669
156.193
156.193
151.815
151.815
147.533
147.533
143.346
143.346
139.254
139.254
135.255
135.255
131.348
131.348
127.532
127.532
123.806
123.806
120.168
120.168
116.62
116.62
113.158
113.158
109.783
109.783
106.494
106.494
103.289
103.289
100.169
100.169
97.1311
97.1311
94.1759
94.1759
91.3016
91.3016
88.507
88.507
85.7906
85.7906
83.1508
83.1508
80.5858
80.5858
78.0936
78.0936
75.6723
75.6723
73.3196
73.3196
71.0334
71.0334
68.8117
68.8117
66.6525
66.6525
64.5539
64.5539
62.5144
62.5144
60.5324
60.5324
58.6067
58.6067
56.7362
56.7362
54.9197
54.9197
53.1562
53.1562
51.4449
51.4449
49.7848
49.7848
48.1749
48.1749
46.6141
46.6141
45.1016
45.1016
43.636
43.636
42.2163
42.2163
40.8413
40.8413
39.5099
39.5099
38.2209
38.2209
36.9733
36.9733
35.7663
35.7663
34.5989
34.5989
33.4706
33.4706
32.3807
32.3807
31.3288
31.3288
30.3143
30.3143
29.3367
29.3367
28.3958
28.3958
27.491
27.491
26.622
26.622
25.7883
25.7883
24.9892
24.9892
24.2241
24.2241
23.4922
23.4923
22.7926
22.7926
22.1242
22.1242
21.4858
21.4858
20.876
20.876
20.2938
20.2938
19.7378
19.7378
19.2071
19.2071
18.7005
18.7005
18.2169
18.2169
17.755
17.755
17.3136
17.3136
16.8911
16.8911
16.4859
16.4859
16.0961
16.0961
15.7197
15.7198
15.3548
15.3548
14.9993
14.9993
14.6515
14.6515
14.3105
14.3105
13.9757
13.9757
13.6472
13.6472
13.3253
13.3253
13.0102
13.0102
12.7021
12.7021
12.4005
12.4006
12.1047
12.1047
11.8137
11.8137
11.5267
11.5267
11.2433
11.2433
10.9631
10.9631
10.6863
10.6864
10.4132
10.4132
10.1443
10.1443
9.8806
9.8806
9.6234
9.6234
9.37403
9.37404
9.13363
9.13363
8.90289
8.90289
8.68199
8.68199
8.47051
8.47051
8.26749
8.2675
8.07138
8.07138
7.87994
7.87994
7.69044
7.69044
7.50023
7.50024
7.30763
7.30764
7.11252
7.11252
6.91626
6.91626
6.72129
6.72129
6.53042
6.53042
6.34605
6.34606
6.16961
6.16961
6.00149
6.00149
5.84141
5.84142
5.68876
5.68876
5.54316
5.54316
5.40489
5.40489
5.2747
5.27471
5.15334
5.15334
5.04074
5.04074
4.93613
4.93613
4.83833
4.83833
4.74625
4.74625
4.65915
4.65916
4.57673
4.57673
4.49908
4.49909
4.42675
4.42675
4.36053
4.36053
4.30112
4.30112
4.24886
4.24887
4.20359
4.2036
4.16452
4.16452
4.13046
4.13046
4.09984
4.09985
4.07109
4.07109
4.04294
4.04294
4.01426
4.01426
3.9835
3.9835
3.94822
3.94823
3.90558
3.90558
3.85331
3.85331
3.79058
3.79058
3.71794
3.71794
3.63685
3.63686
3.55005
3.55005
3.46168
3.46169
3.3757
3.3757
3.29387
3.29387
3.21603
3.21604
3.14219
3.14219
3.07257
3.07258
3.00665
3.00665
2.94278
2.94278
2.87957
2.87957
2.81675
2.81675
2.75514
2.75514
2.69591
2.69592
2.63995
2.63996
2.58773
2.58773
2.53948
2.53949
2.49495
2.49495
2.45233
2.45234
2.40956
2.40956
2.36574
2.36575
2.32196
2.32196
2.28011
2.28012
2.24148
2.24148
2.20658
2.20658
2.17571
2.17571
2.14901
2.14901
2.12624
2.12624
2.10736
2.10736
2.09297
2.09296
2.08312
2.08311
2.07789
2.07788
2.0778
2.07781
2.08279
2.0828
2.0924
2.09241
2.1065
2.10651
2.12507
2.12508
2.14758
2.14759
2.17406
2.17406
2.20471
2.20471
2.2394
2.2394
2.27772
2.27772
2.31925
2.31925
2.36282
2.36282
2.40655
2.40655
2.44941
2.44941
2.49239
2.49239
2.53746
2.53746
2.5862
2.5862
2.63891
2.63891
2.69534
2.69534
2.75503
2.75503
2.817
2.817
2.88005
2.88005
2.94341
2.94341
3.00746
3.00746
3.07367
3.07367
3.14355
3.14355
3.21766
3.21766
3.29574
3.29574
3.37781
3.37781
3.46403
3.46403
3.55269
3.55269
3.63978
3.63978
3.72092
3.72092
3.79334
3.79334
3.85556
3.85556
3.9071
3.9071
3.94915
3.94915
3.98411
3.98411
4.01477
4.01477
4.04348
4.04348
4.07169
4.0717
4.10051
4.10051
4.13117
4.13117
4.16523
4.16523
4.20429
4.20429
4.24953
4.24953
4.30175
4.30175
4.36112
4.36112
4.42728
4.42728
4.49951
4.49951
4.57699
4.57699
4.65922
4.65922
4.74618
4.74618
4.83814
4.83814
4.93574
4.93574
5.0401
5.0401
5.15245
5.15245
5.27357
5.27357
5.4035
5.4035
5.54158
5.54159
5.68705
5.68705
5.8395
5.8395
5.9993
5.9993
6.16708
6.16708
6.34313
6.34313
6.52707
6.52707
6.71763
6.71763
6.91247
6.91247
7.10858
7.10858
7.30339
7.30339
7.49553
7.49553
7.68543
7.68543
7.87492
7.87492
8.06656
8.06656
8.26311
8.26311
8.46677
8.46678
8.67898
8.67898
8.90052
8.90052
9.13167
9.13167
9.37221
9.37221
9.6215
9.6215
9.87852
9.87852
10.142
10.142
10.4107
10.4107
10.6838
10.6838
10.9604
10.9604
11.2405
11.2405
11.5241
11.5241
11.8112
11.8112
12.1023
12.1023
12.3985
12.3985
12.7006
12.7006
13.0093
13.0093
13.3251
13.3251
13.6479
13.6479
13.977
13.977
14.3122
14.3122
14.6534
14.6534
15.0013
15.0013
15.3569
15.3569
15.722
15.722
16.0985
16.0985
16.4885
16.4885
16.8937
16.8937
17.316
17.316
17.757
17.7571
18.2184
18.2184
18.7016
18.7016
19.2077
19.2077
19.738
19.738
20.2937
20.2937
20.8758
20.8758
21.4855
21.4855
22.124
22.124
22.7925
22.7925
23.4921
23.4921
24.224
24.224
24.9892
24.9892
25.7884
25.7884
26.6222
26.6222
27.4913
27.4913
28.396
28.396
29.3369
29.3369
30.3144
30.3144
31.329
31.329
32.381
32.381
33.4708
33.4708
34.599
34.599
35.7664
35.7664
36.9735
36.9735
38.2212
38.2212
39.5102
39.5102
40.8416
40.8416
42.2164
42.2164
43.6359
43.6359
45.1014
45.1014
46.6138
46.6138
48.1744
48.1744
49.7843
49.7843
51.4444
51.4444
53.1556
53.1556
54.919
54.919
56.7355
56.7355
58.6061
58.6061
60.5319
60.5319
62.5139
62.5139
64.5534
64.5534
66.6518
66.6518
68.811
68.811
71.0327
71.0327
73.319
73.319
75.6718
75.6718
78.0933
78.0933
80.5856
80.5856
83.1507
83.1507
85.7905
85.7905
88.5069
88.5069
91.3015
91.3015
94.1758
94.1758
97.1309
97.1309
100.168
100.168
103.289
103.289
106.493
106.493
109.782
109.782
113.157
113.157
116.619
116.619
120.168
120.168
123.804
123.804
127.531
127.531
131.347
131.347
135.254
135.254
139.253
139.253
143.345
143.345
147.531
147.531
151.813
151.813
156.191
156.191
160.667
160.667
165.242
165.242
169.918
169.918
174.695
174.695
179.574
179.574
184.558
184.558
189.647
189.647
194.843
194.843
200.146
200.146
205.557
205.557
211.078
211.078
216.71
216.71
222.453
222.453
228.31
228.31
234.28
234.28
240.365
240.365
246.566
246.566
252.882
252.882
259.314
259.314
265.863
265.863
272.529
272.529
279.311
279.311
286.21
286.21
293.226
293.226
300.357
300.357
307.603
307.603
314.963
314.963
322.436
322.436
330.018
330.018
337.71
337.71
345.509
345.509
353.415
353.415
361.423
361.423
369.531
369.531
377.735
377.735
386.032
386.032
394.419
394.419
402.889
402.889
411.442
411.442
420.07
420.07
428.768
428.768
437.533
437.533
446.361
446.361
455.247
455.247
464.184
464.184
473.168
473.168
482.196
482.196
491.259
491.259
500.353
500.353
509.476
509.476
518.621
518.621
527.787
527.787
536.972
536.972
546.178
546.178
555.415
555.415
564.694
564.694
574.029
574.029
583.434
583.434
592.928
592.928
602.543
602.543
612.316
612.316
622.292
622.292
632.531
632.531
643.099
643.099
654.072
654.072
665.535
665.535
677.582
677.582
690.308
690.308
703.813
703.813
718.195
718.195
733.546
733.546
749.95
749.95
767.479
767.479
786.187
786.187
806.111
806.111
827.264
827.264
849.629
849.629
873.17
873.17
897.826
897.826
923.517
923.517
950.142
950.142
977.585
977.585
1005.72
1005.72
1034.4
1034.4
1063.51
1063.51
1092.9
1092.9
1122.44
1122.44
1152
1152
1181.46
1181.46
1210.7
1210.7
1239.63
1239.63
1268.17
1268.17
1296.25
1296.25
1323.8
1323.8
1350.78
1350.78
1377.19
1377.19
1403.02
1403.02
1428.27
1428.27
1452.96
1452.96
1477.13
1477.13
1500.84
1500.84
1524.16
1524.16
1547.16
1547.16
1569.94
1569.94
1592.61
1592.61
1615.3
1615.3
1638.13
1638.13
1661.26
1661.26
1684.86
1684.86
1709.11
1709.11
1734.21
1734.21
1760.4
1760.4
1787.91
1787.91
1817.02
1817.02
1848.06
1848.06
1881.36
1881.36
1917.33
1917.33
1956.44
1956.44
1999.21
1999.21
2046.27
2046.27
2098.39
2098.39
2156.46
2156.46
2221.59
2221.59
2295.16
2295.16
2378.9
2378.9
2475.02
2475.02
2586.4
2586.4
2716.86
2716.86
2871.63
2871.63
3057.98
3057.98
3286.36
3286.36
3572.35
3572.35
3940.1
3940.1
4428.82
4428.82
5105.8
5105.8
6093.63
6093.63
7629.57
7629.57
10194.9
10194.9
14786.9
14786.9
23560.9
23560.9
42093.2
42093.2
89770.7
89770.7
265147
265147
1.52416e+06
1.52416e+06
2.07777
2.07776
2.08276
2.08276
2.09238
2.09238
2.10648
2.10648
2.12506
2.12506
2.14758
2.14757
2.17406
2.17406
2.20471
2.20472
2.23941
2.23941
2.27774
2.27774
2.31926
2.31927
2.36283
2.36283
2.40653
2.40654
2.44938
2.44938
2.49235
2.49236
2.53743
2.53744
2.58619
2.5862
2.63891
2.63891
2.69535
2.69536
2.75504
2.75505
2.81701
2.81701
2.88005
2.88006
2.94341
2.94341
3.00745
3.00746
3.07367
3.07368
3.14357
3.14357
3.21768
3.21769
3.29578
3.29578
3.37786
3.37787
3.4641
3.4641
3.55278
3.55278
3.63986
3.63986
3.72098
3.72098
3.79336
3.79336
3.85554
3.85554
3.90704
3.90704
3.94906
3.94907
3.984
3.984
4.01464
4.01465
4.04335
4.04335
4.07156
4.07157
4.10038
4.10038
4.13105
4.13106
4.16514
4.16514
4.20421
4.20421
4.24947
4.24947
4.30171
4.30172
4.3611
4.3611
4.42727
4.42727
4.4995
4.4995
4.57699
4.577
4.65922
4.65923
4.74618
4.74618
4.83814
4.83814
4.93574
4.93574
5.04011
5.04011
5.15247
5.15247
5.2736
5.2736
5.40354
5.40354
5.54163
5.54163
5.6871
5.6871
5.83955
5.83955
5.99935
5.99935
6.16713
6.16713
6.34318
6.34319
6.52712
6.52712
6.71767
6.71768
6.9125
6.91251
7.10861
7.10861
7.3034
7.30341
7.49553
7.49554
7.68543
7.68543
7.87491
7.87491
8.06654
8.06654
8.26309
8.26309
8.46675
8.46675
8.67895
8.67896
8.9005
8.9005
9.13165
9.13165
9.37219
9.37219
9.62148
9.62148
9.8785
9.8785
10.142
10.142
10.4107
10.4107
10.6837
10.6837
10.9604
10.9604
11.2405
11.2405
11.524
11.524
11.8111
11.8111
12.1023
12.1023
12.3984
12.3984
12.7005
12.7005
13.0092
13.0092
13.325
13.325
13.6478
13.6478
13.9769
13.9769
14.3121
14.3121
14.6534
14.6534
15.0012
15.0012
15.3568
15.3568
15.7219
15.7219
16.0985
16.0985
16.4884
16.4884
16.8936
16.8936
17.3159
17.3159
17.757
17.757
18.2183
18.2183
18.7015
18.7015
19.2077
19.2077
19.738
19.738
20.2937
20.2937
20.8758
20.8758
21.4855
21.4855
22.1239
22.1239
22.7924
22.7924
23.492
23.492
24.224
24.224
24.9892
24.9892
25.7884
25.7884
26.6222
26.6222
27.4913
27.4913
28.396
28.396
29.3369
29.3369
30.3144
30.3144
31.329
31.329
32.381
32.381
33.4708
33.4708
34.599
34.599
35.7664
35.7664
36.9735
36.9735
38.2212
38.2212
39.5102
39.5102
40.8415
40.8415
42.2164
42.2164
43.6359
43.6359
45.1013
45.1014
46.6138
46.6138
48.1744
48.1744
49.7843
49.7843
51.4444
51.4444
53.1556
53.1556
54.919
54.919
56.7355
56.7355
58.6061
58.6061
60.5319
60.5319
62.5139
62.5139
64.5534
64.5534
66.6518
66.6518
68.811
68.811
71.0327
71.0327
73.319
73.319
75.6718
75.6718
78.0933
78.0934
80.5856
80.5856
83.1507
83.1507
85.7905
85.7905
88.507
88.507
91.3016
91.3016
94.1758
94.1758
97.1309
97.1309
100.168
100.168
103.289
103.289
106.493
106.493
109.782
109.782
113.157
113.157
116.619
116.619
120.168
120.168
123.805
123.805
127.531
127.531
131.347
131.347
135.254
135.254
139.253
139.253
143.345
143.345
147.531
147.531
151.813
151.813
156.191
156.191
160.667
160.667
165.242
165.242
169.918
169.918
174.695
174.695
179.574
179.574
184.558
184.558
189.647
189.647
194.843
194.843
200.146
200.146
205.557
205.557
211.078
211.078
216.71
216.71
222.453
222.453
228.31
228.31
234.28
234.28
240.365
240.365
246.566
246.566
252.882
252.882
259.314
259.314
265.863
265.863
272.529
272.529
279.311
279.311
286.21
286.21
293.226
293.226
300.357
300.357
307.603
307.603
314.964
314.964
322.436
322.436
330.018
330.018
337.71
337.71
345.51
345.51
353.415
353.415
361.423
361.423
369.531
369.531
377.735
377.735
386.032
386.032
394.419
394.419
402.889
402.889
411.442
411.442
420.07
420.07
428.768
428.768
437.533
437.533
446.361
446.361
455.247
455.247
464.184
464.184
473.168
473.168
482.196
482.196
491.259
491.259
500.354
500.354
509.476
509.476
518.621
518.621
527.787
527.787
536.972
536.972
546.178
546.178
555.415
555.415
564.694
564.694
574.029
574.029
583.434
583.434
592.928
592.928
602.543
602.543
612.316
612.316
622.292
622.292
632.531
632.531
643.099
643.099
654.072
654.072
665.535
665.535
677.582
677.582
690.308
690.308
703.813
703.813
718.195
718.195
733.546
733.546
749.95
749.95
767.479
767.479
786.188
786.188
806.111
806.111
827.264
827.264
849.629
849.629
873.17
873.17
897.827
897.827
923.517
923.517
950.142
950.142
977.585
977.585
1005.72
1005.72
1034.41
1034.41
1063.51
1063.51
1092.9
1092.9
1122.44
1122.44
1152
1152
1181.46
1181.46
1210.7
1210.7
1239.63
1239.63
1268.17
1268.17
1296.25
1296.25
1323.8
1323.8
1350.78
1350.78
1377.19
1377.19
1403.02
1403.02
1428.27
1428.27
1452.96
1452.96
1477.13
1477.13
1500.85
1500.85
1524.16
1524.16
1547.16
1547.16
1569.94
1569.94
1592.62
1592.62
1615.3
1615.3
1638.13
1638.13
1661.26
1661.26
1684.86
1684.86
1709.11
1709.11
1734.21
1734.21
1760.4
1760.4
1787.91
1787.91
1817.02
1817.02
1848.06
1848.06
1881.36
1881.36
1917.34
1917.34
1956.44
1956.44
1999.21
1999.21
2046.27
2046.27
2098.39
2098.39
2156.46
2156.46
2221.59
2221.59
2295.16
2295.16
2378.9
2378.9
2475.02
2475.02
2586.4
2586.4
2716.86
2716.86
2871.63
2871.63
3057.98
3057.98
3286.36
3286.36
3572.35
3572.35
3940.1
3940.1
4428.82
4428.82
5105.8
5105.8
6093.63
6093.63
7629.57
7629.57
10194.9
10194.9
14786.9
14786.9
23560.9
23560.9
42093.2
42093.2
89770.7
89770.7
265147
265147
1.52416e+06
1.52416e+06
)
;

boundaryField
{
    walls
    {
        blending        binomial2;
        n               2;
        beta1           0.075;
        type            omegaWallFunction;
        value           nonuniform List<scalar> 8(1.52415e+06 1.52415e+06 1.52415e+06 1.52415e+06 1.52416e+06 1.52416e+06 1.52416e+06 1.52416e+06);
    }
    inlet
    {
        type            cyclic;
    }
    outlet
    {
        type            cyclic;
    }
    sides
    {
        type            empty;
    }
}


// ************************************************************************* //
