/*--------------------------------*- C++ -*----------------------------------*\
| =========                 |                                                 |
| \\      /  F ield         | OpenFOAM: The Open Source CFD Toolbox           |
|  \\    /   O peration     | Version:  2012                                  |
|   \\  /    A nd           | Website:  www.openfoam.com                      |
|    \\/     M anipulation  |                                                 |
\*---------------------------------------------------------------------------*/
FoamFile
{
    version     2.0;
    format      ascii;
    class       volScalarField;
    location    "17000";
    object      p;
}
// * * * * * * * * * * * * * * * * * * * * * * * * * * * * * * * * * * * * * //

dimensions      [0 2 -2 0 0 0 0];


internalField   nonuniform List<scalar> 
2560
(
2.62022e-09
-2.74899e-05
-4.4781e-08
-2.75175e-05
-2.41739e-07
-2.76988e-05
-8.48856e-07
-2.82997e-05
-2.25407e-06
-2.97045e-05
-4.96795e-06
-3.24191e-05
-9.65288e-06
-3.71043e-05
-1.71241e-05
-4.45747e-05
-2.83204e-05
-5.57702e-05
-4.43103e-05
-7.17597e-05
-6.63058e-05
-9.37544e-05
-9.56681e-05
-0.000123116
-0.000133883
-0.000161329
-0.000182582
-0.000210027
-0.000243535
-0.000270978
-0.000318645
-0.000346086
-0.000409939
-0.000437379
-0.000519575
-0.000547013
-0.000649861
-0.000677296
-0.000803204
-0.000830636
-0.000982106
-0.00100954
-0.00118924
-0.00121667
-0.0014274
-0.00145482
-0.00169939
-0.00172681
-0.00200817
-0.00203559
-0.00235688
-0.00238429
-0.00274867
-0.00277608
-0.00318671
-0.00321411
-0.00367432
-0.00370172
-0.00421501
-0.00424241
-0.00481224
-0.00483963
-0.00546944
-0.00549683
-0.00619024
-0.00621763
-0.00697841
-0.00700579
-0.00783757
-0.00786495
-0.0087714
-0.00879877
-0.00978371
-0.00981108
-0.0108784
-0.0109058
-0.0120594
-0.0120867
-0.0133302
-0.0133575
-0.0146949
-0.0147222
-0.0161575
-0.0161848
-0.0177218
-0.0177491
-0.0193915
-0.0194188
-0.0211707
-0.0211981
-0.0230633
-0.0230906
-0.0250732
-0.0251005
-0.0272039
-0.0272312
-0.0294595
-0.0294868
-0.0318443
-0.0318716
-0.0343613
-0.0343885
-0.0370134
-0.0370406
-0.0398066
-0.0398339
-0.042743
-0.0427702
-0.0458257
-0.045853
-0.0490602
-0.0490875
-0.0524478
-0.052475
-0.0559936
-0.0560209
-0.0596999
-0.0597272
-0.0635696
-0.0635969
-0.0676066
-0.0676339
-0.071814
-0.0718412
-0.0761954
-0.0762226
-0.080751
-0.0807782
-0.0854856
-0.0855128
-0.0904029
-0.0904301
-0.0955022
-0.0955294
-0.100788
-0.100815
-0.106261
-0.106288
-0.111925
-0.111953
-0.117781
-0.117808
-0.123829
-0.123856
-0.130072
-0.130099
-0.13651
-0.136537
-0.143146
-0.143173
-0.149978
-0.150006
-0.15701
-0.157037
-0.164238
-0.164266
-0.171666
-0.171693
-0.17929
-0.179317
-0.187113
-0.18714
-0.195131
-0.195158
-0.203344
-0.203371
-0.211751
-0.211779
-0.220349
-0.220377
-0.229138
-0.229165
-0.238114
-0.238141
-0.247275
-0.247302
-0.256619
-0.256646
-0.26614
-0.266167
-0.275836
-0.275863
-0.285703
-0.28573
-0.295738
-0.295765
-0.305935
-0.305962
-0.316288
-0.316315
-0.326795
-0.326823
-0.33745
-0.337478
-0.348245
-0.348272
-0.359176
-0.359203
-0.370236
-0.370263
-0.381419
-0.381446
-0.392721
-0.392748
-0.404129
-0.404157
-0.415641
-0.415668
-0.427248
-0.427275
-0.438942
-0.438969
-0.450716
-0.450743
-0.462563
-0.46259
-0.474473
-0.4745
-0.486441
-0.486468
-0.498455
-0.498482
-0.510509
-0.510536
-0.522596
-0.522623
-0.534704
-0.534731
-0.546829
-0.546856
-0.558958
-0.558985
-0.571086
-0.571113
-0.583203
-0.58323
-0.595302
-0.595329
-0.607373
-0.6074
-0.619407
-0.619434
-0.631399
-0.631426
-0.643338
-0.643365
-0.655219
-0.655246
-0.66703
-0.667057
-0.678767
-0.678794
-0.690422
-0.690449
-0.701984
-0.702011
-0.713451
-0.713478
-0.724812
-0.724839
-0.73606
-0.736087
-0.74719
-0.747217
-0.758196
-0.758223
-0.769068
-0.769095
-0.779802
-0.779829
-0.790391
-0.790418
-0.80083
-0.800857
-0.811113
-0.81114
-0.821233
-0.82126
-0.831185
-0.831212
-0.840964
-0.840992
-0.850566
-0.850593
-0.859986
-0.860013
-0.869219
-0.869246
-0.878262
-0.878289
-0.88711
-0.887137
-0.895761
-0.895788
-0.90421
-0.904237
-0.912456
-0.912483
-0.920496
-0.920523
-0.928328
-0.928355
-0.935949
-0.935976
-0.943358
-0.943385
-0.950552
-0.950579
-0.957532
-0.957559
-0.964292
-0.964319
-0.970838
-0.970864
-0.977161
-0.977188
-0.983269
-0.983295
-0.989151
-0.989179
-0.99482
-0.994846
-1.00026
-1.00029
-1.00549
-1.00552
-1.01049
-1.01052
-1.01529
-1.01531
-1.01984
-1.01987
-1.02421
-1.02423
-1.02833
-1.02836
-1.03226
-1.03228
-1.03594
-1.03598
-1.03946
-1.03948
-1.04271
-1.04275
-1.04582
-1.04583
-1.04864
-1.04868
-1.05135
-1.05136
-1.05375
-1.0538
-1.05608
-1.05608
-1.05805
-1.05812
-1.06003
-1.06002
-1.06159
-1.06167
-1.06325
-1.0632
-1.06438
-1.06449
-1.06576
-1.06567
-1.06645
-1.06661
-1.0676
-1.06746
-1.06794
-1.06806
-1.06881
-1.06858
-1.06899
-1.06888
-1.06941
-1.06907
-1.06943
-1.06908
-1.06908
-1.06895
-1.06893
-1.06869
-1.06817
-1.06825
-1.06788
-1.06772
-1.06686
-1.067
-1.0663
-1.0662
-1.06512
-1.06521
-1.06422
-1.06416
-1.06287
-1.06293
-1.06167
-1.06163
-1.06012
-1.06017
-1.05866
-1.05864
-1.05692
-1.05695
-1.05521
-1.0552
-1.05328
-1.0533
-1.05134
-1.05134
-1.04922
-1.04923
-1.04706
-1.04706
-1.04475
-1.04477
-1.04239
-1.0424
-1.03991
-1.03992
-1.03736
-1.03736
-1.03469
-1.0347
-1.03196
-1.03197
-1.02913
-1.02914
-1.02623
-1.02624
-1.02324
-1.02325
-1.02018
-1.02019
-1.01703
-1.01704
-1.0138
-1.01381
-1.01048
-1.01049
-1.00709
-1.00709
-1.0036
-1.00361
-1.00002
-1.00003
-0.99635
-0.996359
-0.992591
-0.9926
-0.98874
-0.988749
-0.984806
-0.984814
-0.980788
-0.980796
-0.97669
-0.976698
-0.97251
-0.972518
-0.968247
-0.968255
-0.963899
-0.963907
-0.959466
-0.959474
-0.954943
-0.954951
-0.950332
-0.95034
-0.945632
-0.94564
-0.940843
-0.940851
-0.935961
-0.935969
-0.930988
-0.930996
-0.925922
-0.92593
-0.920769
-0.920777
-0.915531
-0.915539
-0.910212
-0.91022
-0.90481
-0.904818
-0.899326
-0.899334
-0.893761
-0.893769
-0.888114
-0.888122
-0.882383
-0.882391
-0.876567
-0.876575
-0.870661
-0.870669
-0.864668
-0.864676
-0.858589
-0.858597
-0.852425
-0.852433
-0.846177
-0.846185
-0.839851
-0.839859
-0.833452
-0.83346
-0.826987
-0.826995
-0.820461
-0.820469
-0.813871
-0.813879
-0.807214
-0.807222
-0.800478
-0.800486
-0.793658
-0.793666
-0.786744
-0.786752
-0.779731
-0.779739
-0.77262
-0.772629
-0.765419
-0.765428
-0.758137
-0.758146
-0.750786
-0.750794
-0.743372
-0.74338
-0.735895
-0.735904
-0.728348
-0.728357
-0.720725
-0.720734
-0.713026
-0.713034
-0.705254
-0.705263
-0.69741
-0.697419
-0.689497
-0.689506
-0.681511
-0.681521
-0.673453
-0.673462
-0.665318
-0.665327
-0.657106
-0.657116
-0.648818
-0.648827
-0.640465
-0.640475
-0.632053
-0.632062
-0.623593
-0.623603
-0.615094
-0.615104
-0.606573
-0.606583
-0.598038
-0.598048
-0.589509
-0.589519
-0.580991
-0.581001
-0.572505
-0.572515
-0.564049
-0.564059
-0.555644
-0.555654
-0.54729
-0.5473
-0.539007
-0.539017
-0.530773
-0.530784
-0.522603
-0.522613
-0.514486
-0.514495
-0.506461
-0.506471
-0.498528
-0.498537
-0.490745
-0.490754
-0.483129
-0.483138
-0.475751
-0.47576
-0.468604
-0.468612
-0.461732
-0.46174
-0.455099
-0.455105
-0.448744
-0.448751
-0.442643
-0.442648
-0.436867
-0.436872
-0.431403
-0.431404
-0.426326
-0.426329
-0.421619
-0.421615
-0.417351
-0.417351
-0.413501
-0.41349
-0.410139
-0.410133
-0.407257
-0.407237
-0.404898
-0.404881
-0.403056
-0.403026
-0.401791
-0.401762
-0.401138
-0.401101
-0.00010112
-9.62709e-05
-0.000101148
-9.62985e-05
-0.000101329
-9.64798e-05
-0.00010193
-9.70807e-05
-0.000103335
-9.84856e-05
-0.000106049
-0.0001012
-0.000110735
-0.000105885
-0.000118205
-0.000113356
-0.000129401
-0.000124551
-0.00014539
-0.000140541
-0.000167385
-0.000162535
-0.000196746
-0.000191896
-0.000234959
-0.00023011
-0.000283657
-0.000278807
-0.000344608
-0.000339759
-0.000419716
-0.000414867
-0.000511009
-0.00050616
-0.000620642
-0.000615793
-0.000750926
-0.000746077
-0.000904265
-0.000899416
-0.00108316
-0.00107832
-0.0012903
-0.00128545
-0.00152845
-0.0015236
-0.00180044
-0.00179559
-0.00210922
-0.00210437
-0.00245792
-0.00245307
-0.00284971
-0.00284486
-0.00328774
-0.00328289
-0.00377535
-0.0037705
-0.00431603
-0.00431118
-0.00491326
-0.00490841
-0.00557046
-0.00556561
-0.00629126
-0.00628641
-0.00707941
-0.00707456
-0.00793858
-0.00793373
-0.00887239
-0.00886754
-0.0098847
-0.00987985
-0.0109794
-0.0109746
-0.0121603
-0.0121555
-0.0134312
-0.0134263
-0.0147959
-0.014791
-0.0162584
-0.0162536
-0.0178227
-0.0178179
-0.0194925
-0.0194876
-0.0212717
-0.0212668
-0.0231643
-0.0231594
-0.0251741
-0.0251693
-0.0273049
-0.0273
-0.0295604
-0.0295556
-0.0319452
-0.0319403
-0.0344622
-0.0344573
-0.0371143
-0.0371094
-0.0399075
-0.0399026
-0.0428438
-0.042839
-0.0459266
-0.0459218
-0.0491611
-0.0491562
-0.0525486
-0.0525438
-0.0560945
-0.0560896
-0.0598008
-0.059796
-0.0636705
-0.0636656
-0.0677075
-0.0677026
-0.0719148
-0.07191
-0.0762962
-0.0762914
-0.0808519
-0.080847
-0.0855864
-0.0855816
-0.0905037
-0.0904989
-0.095603
-0.0955982
-0.100889
-0.100884
-0.106362
-0.106357
-0.112026
-0.112021
-0.117881
-0.117877
-0.123929
-0.123925
-0.130173
-0.130168
-0.136611
-0.136606
-0.143247
-0.143242
-0.150079
-0.150074
-0.157111
-0.157106
-0.164339
-0.164334
-0.171767
-0.171762
-0.179391
-0.179386
-0.187214
-0.187209
-0.195232
-0.195227
-0.203445
-0.20344
-0.211852
-0.211847
-0.22045
-0.220445
-0.229238
-0.229234
-0.238215
-0.23821
-0.247376
-0.247371
-0.256719
-0.256714
-0.266241
-0.266236
-0.275936
-0.275932
-0.285804
-0.285799
-0.295839
-0.295834
-0.306036
-0.306031
-0.316389
-0.316384
-0.326896
-0.326891
-0.337551
-0.337546
-0.348345
-0.348341
-0.359277
-0.359272
-0.370337
-0.370332
-0.38152
-0.381515
-0.392821
-0.392817
-0.40423
-0.404225
-0.415741
-0.415737
-0.427348
-0.427344
-0.439042
-0.439037
-0.450817
-0.450812
-0.462663
-0.462658
-0.474574
-0.474569
-0.486542
-0.486537
-0.498556
-0.498551
-0.51061
-0.510605
-0.522697
-0.522692
-0.534805
-0.5348
-0.546929
-0.546925
-0.559059
-0.559054
-0.571186
-0.571182
-0.583304
-0.583299
-0.595403
-0.595398
-0.607473
-0.607468
-0.619508
-0.619503
-0.6315
-0.631495
-0.643438
-0.643434
-0.655319
-0.655315
-0.667131
-0.667126
-0.678868
-0.678863
-0.690522
-0.690517
-0.702085
-0.70208
-0.713551
-0.713547
-0.724912
-0.724907
-0.736161
-0.736156
-0.747291
-0.747286
-0.758296
-0.758291
-0.769169
-0.769164
-0.779903
-0.779898
-0.790492
-0.790487
-0.800931
-0.800926
-0.811213
-0.811208
-0.821334
-0.821329
-0.831286
-0.831281
-0.841065
-0.84106
-0.850667
-0.850662
-0.860087
-0.860082
-0.86932
-0.869315
-0.878362
-0.878358
-0.88721
-0.887205
-0.895861
-0.895856
-0.904311
-0.904305
-0.912557
-0.912552
-0.920597
-0.920592
-0.928429
-0.928424
-0.93605
-0.936044
-0.943459
-0.943454
-0.950652
-0.950647
-0.957632
-0.957628
-0.964393
-0.964388
-0.970938
-0.970934
-0.977262
-0.977256
-0.983369
-0.983364
-0.989253
-0.989247
-0.99492
-0.994916
-1.00036
-1.00036
-1.00559
-1.00559
-1.01059
-1.01059
-1.01538
-1.01538
-1.01995
-1.01994
-1.0243
-1.0243
-1.02843
-1.02842
-1.03236
-1.03236
-1.03605
-1.03604
-1.03955
-1.03956
-1.04282
-1.04281
-1.04591
-1.04591
-1.04876
-1.04874
-1.05143
-1.05145
-1.05387
-1.05384
-1.05615
-1.05617
-1.05819
-1.05815
-1.06009
-1.06013
-1.06175
-1.06168
-1.06328
-1.06334
-1.06457
-1.06447
-1.06575
-1.06585
-1.06669
-1.06655
-1.06753
-1.06769
-1.06814
-1.06804
-1.06865
-1.0689
-1.06895
-1.06908
-1.06914
-1.0695
-1.06915
-1.06952
-1.06902
-1.06917
-1.06876
-1.06902
-1.06833
-1.06827
-1.06779
-1.06797
-1.06707
-1.06695
-1.06628
-1.06639
-1.06529
-1.06522
-1.06424
-1.06432
-1.063
-1.06296
-1.06171
-1.06176
-1.06024
-1.06022
-1.05871
-1.05875
-1.05703
-1.05702
-1.05527
-1.0553
-1.05338
-1.05338
-1.05141
-1.05143
-1.04931
-1.04931
-1.04713
-1.04715
-1.04484
-1.04485
-1.04247
-1.04249
-1.03999
-1.04
-1.03744
-1.03745
-1.03478
-1.03479
-1.03204
-1.03206
-1.02922
-1.02923
-1.02632
-1.02633
-1.02333
-1.02334
-1.02026
-1.02028
-1.01711
-1.01713
-1.01388
-1.0139
-1.01056
-1.01058
-1.00717
-1.00718
-1.00368
-1.00369
-1.0001
-1.00012
-0.996431
-0.996447
-0.992672
-0.992688
-0.988821
-0.988837
-0.984887
-0.984903
-0.980869
-0.980885
-0.97677
-0.976787
-0.97259
-0.972607
-0.968327
-0.968344
-0.963979
-0.963997
-0.959545
-0.959563
-0.955023
-0.95504
-0.950412
-0.95043
-0.945712
-0.94573
-0.940923
-0.940941
-0.936041
-0.936059
-0.931067
-0.931086
-0.926002
-0.926021
-0.920848
-0.920867
-0.91561
-0.91563
-0.910291
-0.91031
-0.904889
-0.904909
-0.899404
-0.899425
-0.893839
-0.89386
-0.888192
-0.888213
-0.882461
-0.882482
-0.876644
-0.876666
-0.870739
-0.870761
-0.864746
-0.864768
-0.858666
-0.858689
-0.852502
-0.852525
-0.846254
-0.846277
-0.839927
-0.839951
-0.833528
-0.833553
-0.827063
-0.827088
-0.820537
-0.820562
-0.813946
-0.813972
-0.80729
-0.807316
-0.800552
-0.800579
-0.793733
-0.793761
-0.786818
-0.786847
-0.779806
-0.779835
-0.772694
-0.772723
-0.765494
-0.765524
-0.758209
-0.758241
-0.75086
-0.750892
-0.743443
-0.743476
-0.735969
-0.736003
-0.728418
-0.728453
-0.720798
-0.720835
-0.713093
-0.713131
-0.705327
-0.705365
-0.697476
-0.697516
-0.68957
-0.689611
-0.681575
-0.681618
-0.673525
-0.67357
-0.665378
-0.665425
-0.657179
-0.657227
-0.648874
-0.648924
-0.640538
-0.64059
-0.632104
-0.632159
-0.623667
-0.623724
-0.61514
-0.615199
-0.606648
-0.606709
-0.598078
-0.598141
-0.589586
-0.589652
-0.581023
-0.581091
-0.572586
-0.572657
-0.564071
-0.564145
-0.55573
-0.555807
-0.5473
-0.54738
-0.539099
-0.539184
-0.530768
-0.530856
-0.522704
-0.522798
-0.514461
-0.514557
-0.506574
-0.506678
-0.498479
-0.498585
-0.490873
-0.49099
-0.483051
-0.483166
-0.4759
-0.476032
-0.468487
-0.468613
-0.461907
-0.46206
-0.454934
-0.45507
-0.448952
-0.449134
-0.442421
-0.442563
-0.437112
-0.43734
-0.431111
-0.43125
-0.426611
-0.426915
-0.42125
-0.421358
-0.417667
-0.41811
-0.413062
-0.413071
-0.410452
-0.41116
-0.406793
-0.406541
-0.405109
-0.405331
-0.402647
-0.401916
-0.401808
-0.401276
-0.400882
-0.399443
-0.401138
-0.401102
-0.401791
-0.401762
-0.403056
-0.403025
-0.404898
-0.404881
-0.407257
-0.407237
-0.410138
-0.410131
-0.413503
-0.413492
-0.41735
-0.417349
-0.421617
-0.421613
-0.426326
-0.426329
-0.431404
-0.431405
-0.436867
-0.436872
-0.442644
-0.442648
-0.448746
-0.448753
-0.4551
-0.455107
-0.461731
-0.461739
-0.468603
-0.468611
-0.475751
-0.475759
-0.483127
-0.483136
-0.490746
-0.490755
-0.498528
-0.498537
-0.506461
-0.506471
-0.514485
-0.514494
-0.5226
-0.52261
-0.530771
-0.530781
-0.539009
-0.539018
-0.547287
-0.547297
-0.555645
-0.555655
-0.564049
-0.564058
-0.572501
-0.572511
-0.580992
-0.581002
-0.589509
-0.589519
-0.598042
-0.598052
-0.606572
-0.606582
-0.615099
-0.615109
-0.623591
-0.623601
-0.632051
-0.63206
-0.640465
-0.640474
-0.648815
-0.648824
-0.657108
-0.657117
-0.665317
-0.665326
-0.673454
-0.673462
-0.681512
-0.68152
-0.689499
-0.689507
-0.697409
-0.697417
-0.705255
-0.705263
-0.713024
-0.713032
-0.720724
-0.720732
-0.728346
-0.728354
-0.735895
-0.735903
-0.743369
-0.743376
-0.750789
-0.750796
-0.758138
-0.758145
-0.765416
-0.765423
-0.772621
-0.772628
-0.779731
-0.779738
-0.786747
-0.786754
-0.793658
-0.793664
-0.800476
-0.800482
-0.807211
-0.807217
-0.813876
-0.813883
-0.820462
-0.820468
-0.826991
-0.826997
-0.833454
-0.83346
-0.839855
-0.839861
-0.846176
-0.846182
-0.85242
-0.852426
-0.858593
-0.858599
-0.86467
-0.864676
-0.870667
-0.870673
-0.876565
-0.876571
-0.882379
-0.882385
-0.888114
-0.88812
-0.893757
-0.893763
-0.899323
-0.899328
-0.904809
-0.904814
-0.910215
-0.91022
-0.915537
-0.915542
-0.920776
-0.920782
-0.925928
-0.925933
-0.93099
-0.930995
-0.935965
-0.93597
-0.940843
-0.940848
-0.945632
-0.945637
-0.950337
-0.950341
-0.954942
-0.954947
-0.959462
-0.959467
-0.963904
-0.963908
-0.968249
-0.968254
-0.972506
-0.97251
-0.976691
-0.976695
-0.980789
-0.980793
-0.984805
-0.984809
-0.98874
-0.988744
-0.992598
-0.992602
-0.996357
-0.99636
-1.00002
-1.00003
-1.0036
-1.00361
-1.00709
-1.00709
-1.01048
-1.01049
-1.0138
-1.0138
-1.01703
-1.01704
-1.02018
-1.02019
-1.02325
-1.02325
-1.02624
-1.02625
-1.02914
-1.02914
-1.03196
-1.03197
-1.0347
-1.0347
-1.03736
-1.03736
-1.03991
-1.03991
-1.04239
-1.0424
-1.04476
-1.04476
-1.04705
-1.04706
-1.04923
-1.04922
-1.05133
-1.05134
-1.0533
-1.05328
-1.05519
-1.05521
-1.05695
-1.05693
-1.05863
-1.05866
-1.06016
-1.06013
-1.06163
-1.06168
-1.06292
-1.06287
-1.06416
-1.06423
-1.06521
-1.06512
-1.0662
-1.06631
-1.06699
-1.06686
-1.06771
-1.06788
-1.06825
-1.06817
-1.06868
-1.06893
-1.06894
-1.06908
-1.06908
-1.06944
-1.06906
-1.06941
-1.06887
-1.069
-1.06857
-1.06882
-1.06806
-1.06795
-1.06745
-1.0676
-1.06661
-1.06646
-1.06567
-1.06576
-1.06449
-1.06438
-1.0632
-1.06325
-1.06167
-1.0616
-1.06001
-1.06004
-1.05812
-1.05806
-1.05608
-1.05609
-1.05379
-1.05375
-1.05135
-1.05135
-1.04867
-1.04864
-1.04583
-1.04583
-1.04275
-1.04273
-1.03948
-1.03947
-1.03598
-1.03596
-1.03228
-1.03227
-1.02835
-1.02833
-1.02422
-1.02421
-1.01986
-1.01984
-1.01531
-1.0153
-1.0105
-1.01049
-1.00551
-1.00549
-1.00028
-1.00026
-0.994828
-0.994814
-0.98919
-0.989174
-0.983294
-0.98328
-0.977171
-0.977155
-0.970876
-0.970861
-0.964314
-0.964298
-0.957537
-0.957522
-0.950595
-0.95058
-0.943395
-0.94338
-0.935983
-0.935968
-0.928372
-0.928357
-0.920495
-0.920479
-0.912489
-0.912474
-0.904221
-0.904206
-0.895776
-0.89576
-0.887137
-0.887121
-0.878265
-0.87825
-0.869203
-0.869188
-0.860003
-0.859988
-0.850622
-0.850607
-0.840952
-0.840936
-0.831196
-0.831181
-0.82125
-0.821235
-0.81115
-0.811135
-0.800869
-0.800854
-0.790455
-0.790439
-0.779869
-0.779854
-0.769064
-0.769049
-0.758206
-0.758191
-0.747261
-0.747246
-0.736054
-0.736039
-0.724779
-0.724764
-0.713491
-0.713476
-0.702044
-0.702029
-0.690475
-0.69046
-0.678763
-0.678748
-0.667079
-0.667064
-0.65527
-0.655255
-0.643381
-0.643365
-0.631376
-0.631361
-0.619464
-0.619449
-0.607448
-0.607432
-0.595263
-0.595248
-0.583285
-0.583269
-0.571164
-0.571148
-0.558964
-0.558949
-0.546793
-0.546778
-0.53473
-0.534714
-0.522549
-0.522534
-0.510511
-0.510496
-0.498531
-0.498515
-0.48639
-0.486375
-0.47449
-0.474475
-0.462625
-0.46261
-0.450677
-0.450661
-0.43896
-0.438945
-0.427353
-0.427337
-0.415648
-0.415632
-0.404066
-0.404051
-0.39277
-0.392755
-0.381432
-0.381417
-0.370225
-0.370209
-0.359163
-0.359148
-0.348265
-0.348249
-0.337515
-0.3375
-0.326773
-0.326758
-0.316373
-0.316358
-0.305997
-0.305981
-0.295797
-0.295782
-0.285813
-0.285797
-0.275841
-0.275825
-0.266093
-0.266078
-0.256555
-0.25654
-0.247255
-0.247239
-0.23817
-0.238155
-0.229153
-0.229138
-0.220364
-0.220348
-0.211827
-0.211811
-0.203349
-0.203334
-0.195133
-0.195118
-0.187155
-0.187139
-0.179275
-0.17926
-0.171635
-0.171619
-0.16427
-0.164255
-0.156977
-0.156961
-0.149969
-0.149954
-0.143188
-0.143173
-0.136546
-0.136531
-0.130119
-0.130103
-0.123846
-0.12383
-0.117778
-0.117762
-0.112024
-0.112008
-0.106312
-0.106296
-0.100787
-0.100771
-0.0955684
-0.0955531
-0.0904152
-0.0903998
-0.0855484
-0.085533
-0.0807555
-0.0807401
-0.0762436
-0.0762282
-0.0717977
-0.0717823
-0.0676419
-0.0676266
-0.0636459
-0.0636305
-0.0597244
-0.0597091
-0.056048
-0.0560327
-0.0524689
-0.0524535
-0.0491075
-0.0490921
-0.0458541
-0.0458387
-0.0428
-0.0427846
-0.0398557
-0.0398403
-0.0370077
-0.0369924
-0.0343622
-0.0343468
-0.0318874
-0.031872
-0.029523
-0.0295076
-0.0272356
-0.0272202
-0.0250661
-0.0250507
-0.0231103
-0.0230949
-0.0211953
-0.0211799
-0.0194149
-0.0193995
-0.0177356
-0.0177202
-0.0161884
-0.016173
-0.0147245
-0.0147092
-0.0133414
-0.013326
-0.0120774
-0.0120621
-0.0108985
-0.0108831
-0.00981688
-0.00980151
-0.00878071
-0.00876535
-0.00786796
-0.00785259
-0.00699987
-0.00698451
-0.00620756
-0.0061922
-0.00548889
-0.00547353
-0.00483922
-0.00482386
-0.00425082
-0.00423547
-0.00370118
-0.00368583
-0.00320636
-0.00319101
-0.00277031
-0.00275495
-0.00237886
-0.00236351
-0.002023
-0.00200765
-0.00172033
-0.00170498
-0.00144809
-0.00143274
-0.00120815
-0.0011928
-0.00100504
-0.000989687
-0.000828476
-0.000813129
-0.000673234
-0.000657888
-0.000541197
-0.00052585
-0.000432969
-0.000417622
-0.000342581
-0.000327236
-0.000266121
-0.000250776
-0.000204241
-0.000188895
-0.000156128
-0.000140786
-0.000118323
-0.000102984
-8.84327e-05
-7.30932e-05
-6.61688e-05
-5.08276e-05
-5.04283e-05
-3.50855e-05
-3.93891e-05
-2.40445e-05
-3.18221e-05
-1.64737e-05
-2.70973e-05
-1.17392e-05
-2.44207e-05
-9.06122e-06
-2.30399e-05
-7.67566e-06
-2.24282e-05
-7.07623e-06
-2.22365e-05
-6.90183e-06
-2.22063e-05
-6.88531e-06
-0.400883
-0.399443
-0.401808
-0.401275
-0.402646
-0.401916
-0.405109
-0.405331
-0.406793
-0.406541
-0.410451
-0.411158
-0.413064
-0.413072
-0.417666
-0.418108
-0.421249
-0.421356
-0.42661
-0.426915
-0.431112
-0.431251
-0.437112
-0.43734
-0.442421
-0.442564
-0.448953
-0.449135
-0.454936
-0.455071
-0.461906
-0.462059
-0.468486
-0.468612
-0.475899
-0.476032
-0.483048
-0.483164
-0.490874
-0.490991
-0.498479
-0.498584
-0.506574
-0.506678
-0.51446
-0.514556
-0.522701
-0.522795
-0.530765
-0.530853
-0.539101
-0.539186
-0.547297
-0.547377
-0.55573
-0.555808
-0.56407
-0.564145
-0.572581
-0.572653
-0.581024
-0.581092
-0.589586
-0.589653
-0.598081
-0.598145
-0.606647
-0.606708
-0.615145
-0.615204
-0.623664
-0.623721
-0.632102
-0.632156
-0.640537
-0.64059
-0.64887
-0.648921
-0.657179
-0.657228
-0.665376
-0.665424
-0.673525
-0.67357
-0.681574
-0.681618
-0.68957
-0.689612
-0.697473
-0.697514
-0.705327
-0.705367
-0.71309
-0.713129
-0.720796
-0.720833
-0.728414
-0.72845
-0.735967
-0.736002
-0.743438
-0.743472
-0.750862
-0.750895
-0.758209
-0.758241
-0.765489
-0.76552
-0.772693
-0.772723
-0.779804
-0.779834
-0.786819
-0.786849
-0.793731
-0.79376
-0.800549
-0.800577
-0.807285
-0.807313
-0.81395
-0.813977
-0.820536
-0.820563
-0.827065
-0.827091
-0.833529
-0.833555
-0.839929
-0.839955
-0.84625
-0.846276
-0.852495
-0.85252
-0.858668
-0.858693
-0.864745
-0.864769
-0.870743
-0.870767
-0.87664
-0.876664
-0.882455
-0.882478
-0.88819
-0.888213
-0.893833
-0.893856
-0.899399
-0.899422
-0.904884
-0.904907
-0.91029
-0.910313
-0.915613
-0.915635
-0.920852
-0.920874
-0.926004
-0.926026
-0.931066
-0.931087
-0.936041
-0.936062
-0.940919
-0.940941
-0.945708
-0.94573
-0.950413
-0.950434
-0.955018
-0.955039
-0.959539
-0.95956
-0.96398
-0.964001
-0.968326
-0.968346
-0.972582
-0.972603
-0.976767
-0.976788
-0.980865
-0.980885
-0.984881
-0.984901
-0.988816
-0.988837
-0.992674
-0.992695
-0.996433
-0.996453
-1.0001
-1.00012
-1.00368
-1.0037
-1.00717
-1.00719
-1.01056
-1.01058
-1.01388
-1.0139
-1.01711
-1.01713
-1.02026
-1.02028
-1.02332
-1.02335
-1.02632
-1.02634
-1.02921
-1.02923
-1.03204
-1.03206
-1.03478
-1.0348
-1.03743
-1.03745
-1.03998
-1.04
-1.04247
-1.04249
-1.04483
-1.04485
-1.04713
-1.04715
-1.0493
-1.04932
-1.05142
-1.05143
-1.05336
-1.05339
-1.05529
-1.05529
-1.057
-1.05704
-1.05874
-1.05873
-1.0602
-1.06026
-1.06175
-1.06173
-1.06294
-1.06302
-1.0643
-1.06425
-1.0652
-1.0653
-1.06638
-1.06629
-1.06693
-1.06709
-1.06795
-1.06781
-1.06825
-1.06834
-1.06901
-1.06878
-1.06916
-1.06904
-1.06951
-1.06917
-1.06949
-1.06916
-1.06907
-1.06897
-1.06889
-1.06867
-1.06802
-1.06815
-1.06768
-1.06755
-1.06653
-1.0667
-1.06584
-1.06577
-1.06446
-1.06458
-1.06333
-1.06329
-1.06167
-1.06176
-1.06011
-1.0601
-1.05814
-1.05821
-1.05616
-1.05617
-1.05382
-1.05388
-1.05142
-1.05144
-1.04871
-1.04877
-1.0459
-1.04593
-1.0428
-1.04285
-1.03954
-1.03957
-1.03603
-1.03608
-1.03235
-1.03238
-1.0284
-1.02844
-1.02428
-1.02431
-1.01992
-1.01996
-1.01537
-1.01541
-1.01056
-1.0106
-1.00556
-1.0056
-1.00033
-1.00037
-0.994887
-0.994924
-0.989247
-0.989286
-0.983353
-0.98339
-0.977229
-0.977267
-0.970934
-0.970971
-0.964371
-0.964409
-0.957595
-0.957632
-0.950653
-0.950691
-0.943453
-0.943491
-0.936041
-0.936079
-0.92843
-0.928467
-0.920552
-0.92059
-0.912547
-0.912585
-0.904279
-0.904316
-0.895834
-0.895871
-0.887195
-0.887232
-0.878323
-0.878361
-0.869261
-0.869298
-0.860061
-0.860098
-0.85068
-0.850718
-0.84101
-0.841047
-0.831254
-0.831291
-0.821308
-0.821346
-0.811208
-0.811245
-0.800927
-0.800965
-0.790513
-0.79055
-0.779927
-0.779964
-0.769122
-0.76916
-0.758264
-0.758302
-0.747319
-0.747357
-0.736112
-0.736149
-0.724837
-0.724875
-0.713549
-0.713587
-0.702102
-0.70214
-0.690533
-0.690571
-0.678821
-0.678858
-0.667137
-0.667175
-0.655328
-0.655366
-0.643439
-0.643476
-0.631434
-0.631471
-0.619522
-0.619559
-0.607506
-0.607543
-0.595321
-0.595358
-0.583343
-0.58338
-0.571222
-0.571259
-0.559022
-0.55906
-0.546851
-0.546888
-0.534788
-0.534825
-0.522607
-0.522645
-0.510569
-0.510606
-0.498589
-0.498626
-0.486448
-0.486485
-0.474548
-0.474586
-0.462683
-0.462721
-0.450735
-0.450772
-0.439018
-0.439055
-0.427411
-0.427448
-0.415706
-0.415743
-0.404124
-0.404162
-0.392828
-0.392866
-0.38149
-0.381527
-0.370283
-0.37032
-0.359221
-0.359259
-0.348323
-0.34836
-0.337573
-0.337611
-0.326831
-0.326868
-0.316431
-0.316469
-0.306055
-0.306092
-0.295855
-0.295893
-0.285871
-0.285908
-0.275899
-0.275936
-0.266151
-0.266188
-0.256613
-0.256651
-0.247313
-0.24735
-0.238228
-0.238266
-0.229211
-0.229249
-0.220422
-0.220459
-0.211885
-0.211922
-0.203407
-0.203445
-0.195191
-0.195229
-0.187213
-0.18725
-0.179333
-0.179371
-0.171693
-0.17173
-0.164328
-0.164365
-0.157035
-0.157072
-0.150027
-0.150065
-0.143246
-0.143284
-0.136604
-0.136642
-0.130177
-0.130214
-0.123904
-0.123941
-0.117836
-0.117873
-0.112082
-0.112119
-0.10637
-0.106407
-0.100845
-0.100882
-0.0956265
-0.0956638
-0.0904732
-0.0905106
-0.0856065
-0.0856438
-0.0808136
-0.0808509
-0.0763017
-0.076339
-0.0718557
-0.071893
-0.0677
-0.0677373
-0.0637039
-0.0637412
-0.0597825
-0.0598198
-0.0561061
-0.0561434
-0.0525269
-0.0525642
-0.0491655
-0.0492028
-0.0459121
-0.0459494
-0.042858
-0.0428953
-0.0399138
-0.0399511
-0.0370658
-0.0371031
-0.0344203
-0.0344575
-0.0319454
-0.0319827
-0.0295811
-0.0296183
-0.0272936
-0.0273309
-0.0251241
-0.0251614
-0.0231683
-0.0232056
-0.0212533
-0.0212906
-0.0194729
-0.0195102
-0.0177936
-0.0178309
-0.0162464
-0.0162837
-0.0147826
-0.0148199
-0.0133994
-0.0134367
-0.0121355
-0.0121728
-0.0109565
-0.0109938
-0.00987493
-0.0099122
-0.00883876
-0.00887604
-0.00792601
-0.00796328
-0.00705792
-0.00709519
-0.00626561
-0.00630288
-0.00554694
-0.00558421
-0.00489727
-0.00493454
-0.00430888
-0.00434614
-0.00375923
-0.0037965
-0.00326442
-0.00330168
-0.00282836
-0.00286563
-0.00243692
-0.00247418
-0.00208106
-0.00211832
-0.00177839
-0.00181565
-0.00150615
-0.00154341
-0.00126621
-0.00130347
-0.00106309
-0.00110035
-0.000886533
-0.00092379
-0.000731291
-0.00076855
-0.000599254
-0.000636516
-0.000491026
-0.000528285
-0.000400639
-0.000437894
-0.000324179
-0.000361436
-0.000262298
-0.000299559
-0.000214186
-0.000251444
-0.000176382
-0.000213636
-0.000146491
-0.000183747
-0.000124226
-0.000161485
-0.000108486
-0.000145743
-9.74478e-05
-0.000134703
-8.98803e-05
-0.000127137
-8.51557e-05
-0.000122412
-8.24795e-05
-0.000119735
-8.10985e-05
-0.000118354
-8.04864e-05
-0.000117742
-8.02947e-05
-0.000117551
-8.02643e-05
-0.000117521
)
;

boundaryField
{
    walls
    {
        type            zeroGradient;
    }
    inlet
    {
        type            cyclic;
    }
    outlet
    {
        type            cyclic;
    }
    sides
    {
        type            empty;
    }
}


// ************************************************************************* //
