/*--------------------------------*- C++ -*----------------------------------*\
| =========                 |                                                 |
| \\      /  F ield         | OpenFOAM: The Open Source CFD Toolbox           |
|  \\    /   O peration     | Version:  2012                                  |
|   \\  /    A nd           | Website:  www.openfoam.com                      |
|    \\/     M anipulation  |                                                 |
\*---------------------------------------------------------------------------*/
FoamFile
{
    version     2.0;
    format      ascii;
    class       volVectorField;
    location    "17000";
    object      U;
}
// * * * * * * * * * * * * * * * * * * * * * * * * * * * * * * * * * * * * * //

dimensions      [0 1 -1 0 0 0 0];


internalField   nonuniform List<vector> 
2560
(
(0.0390482 -3.0497e-09 3.54649e-08)
(0.0390482 6.17055e-09 4.34066e-08)
(0.117511 6.15096e-09 5.45836e-08)
(0.117511 1.82757e-08 6.67869e-08)
(0.196906 2.50098e-08 5.57968e-08)
(0.196906 2.92022e-08 6.82163e-08)
(0.277236 3.16253e-08 5.53341e-08)
(0.277236 3.33053e-08 6.75025e-08)
(0.358497 2.03902e-08 5.05966e-08)
(0.358497 2.31728e-08 6.14269e-08)
(0.440682 -8.26161e-10 4.13283e-08)
(0.440682 2.53404e-09 4.97422e-08)
(0.523783 -1.44002e-08 3.17204e-08)
(0.523783 -1.06663e-08 3.76756e-08)
(0.607796 -1.54474e-08 2.49538e-08)
(0.607796 -1.14415e-08 2.91212e-08)
(0.692725 -1.31192e-08 2.11351e-08)
(0.692725 -9.09696e-09 2.41637e-08)
(0.778589 -1.00709e-08 1.94126e-08)
(0.778589 -5.85195e-09 2.17254e-08)
(0.865421 -8.47335e-09 1.91038e-08)
(0.865421 -4.20329e-09 2.09513e-08)
(0.953265 -7.19184e-09 1.98132e-08)
(0.953265 -2.83405e-09 1.86417e-08)
(1.04218 -6.07772e-09 2.13324e-08)
(1.04218 -1.6668e-09 1.5912e-08)
(1.13224 -5.59496e-09 2.04327e-08)
(1.13224 -1.12504e-09 1.39043e-08)
(1.22353 -5.00214e-09 1.8195e-08)
(1.22353 -4.87589e-10 1.35208e-08)
(1.31614 -4.90278e-09 1.64545e-08)
(1.31614 -3.42325e-10 1.48625e-08)
(1.41019 -4.39912e-09 1.63498e-08)
(1.41019 1.9883e-10 1.63495e-08)
(1.50578 -4.23046e-09 1.79901e-08)
(1.50578 4.08103e-10 1.79898e-08)
(1.60304 -4.35455e-09 1.97855e-08)
(1.60304 3.16744e-10 1.97851e-08)
(1.7021 -4.1405e-09 2.17403e-08)
(1.7021 5.66276e-10 2.174e-08)
(1.80311 -3.78985e-09 2.3869e-08)
(1.80311 9.47283e-10 2.38686e-08)
(1.90619 -3.97129e-09 2.61807e-08)
(1.90619 7.9893e-10 2.61804e-08)
(2.01149 -4.35448e-09 2.86752e-08)
(2.01149 4.44255e-10 2.86748e-08)
(2.11916 -3.60198e-09 3.13673e-08)
(2.11916 1.2267e-09 3.1367e-08)
(2.22933 -3.81711e-09 3.42772e-08)
(2.22933 1.03986e-09 3.42768e-08)
(2.34215 -4.01078e-09 3.74097e-08)
(2.34215 8.74885e-10 3.74094e-08)
(2.45772 -4.42214e-09 4.07681e-08)
(2.45772 4.91465e-10 4.07677e-08)
(2.57619 -3.39665e-09 4.43764e-08)
(2.57619 1.54316e-09 4.4376e-08)
(2.69765 -4.10018e-09 4.82562e-08)
(2.69765 8.68063e-10 4.82558e-08)
(2.8222 -3.95639e-09 5.24141e-08)
(2.8222 1.03902e-09 5.24137e-08)
(2.94992 -4.62308e-09 5.68589e-08)
(2.94992 3.9923e-10 5.68585e-08)
(3.08086 -3.42333e-09 6.16188e-08)
(3.08086 1.62574e-09 6.16185e-08)
(3.21505 -4.27876e-09 6.67215e-08)
(3.21505 7.97454e-10 6.67211e-08)
(3.35251 -4.29717e-09 7.21727e-08)
(3.35251 8.07881e-10 7.21723e-08)
(3.49322 -4.50378e-09 7.79921e-08)
(3.49322 6.26823e-10 7.79916e-08)
(3.63714 -3.69072e-09 8.4216e-08)
(3.63714 1.46912e-09 8.42156e-08)
(3.78418 -4.39828e-09 9.08749e-08)
(3.78418 7.8839e-10 9.08744e-08)
(3.93425 -4.58055e-09 9.79804e-08)
(3.93425 6.36117e-10 9.798e-08)
(4.08719 -4.60139e-09 1.0556e-07)
(4.08719 6.42684e-10 1.0556e-07)
(4.24284 -4.01861e-09 1.13658e-07)
(4.24284 1.25589e-09 1.13658e-07)
(4.40097 -4.27387e-09 1.22319e-07)
(4.40097 1.02944e-09 1.22318e-07)
(4.56133 -4.86861e-09 1.31563e-07)
(4.56133 4.66046e-10 1.31563e-07)
(4.72364 -4.92707e-09 1.41419e-07)
(4.72364 4.38801e-10 1.41418e-07)
(4.88755 -3.65447e-09 1.51956e-07)
(4.88755 1.74157e-09 1.51956e-07)
(5.05271 -5.6028e-09 1.63209e-07)
(5.05271 -1.72017e-10 1.63209e-07)
(5.2187 -3.53454e-09 1.75231e-07)
(5.2187 1.92728e-09 1.7523e-07)
(5.38508 -6.60702e-09 1.88054e-07)
(5.38508 -1.10828e-09 1.88053e-07)
(5.55136 -2.49319e-09 2.01758e-07)
(5.55136 3.0371e-09 2.01758e-07)
(5.71702 -5.03391e-09 2.16443e-07)
(5.71702 5.36899e-10 2.16443e-07)
(5.8815 -7.46748e-09 2.32059e-07)
(5.8815 -1.8653e-09 2.32058e-07)
(6.04422 -5.501e-09 2.48656e-07)
(6.04422 1.48797e-10 2.48656e-07)
(6.20456 4.76613e-09 2.66598e-07)
(6.20456 1.0444e-08 2.66598e-07)
(6.36187 -2.15612e-08 2.85582e-07)
(6.36187 -1.58293e-08 2.85582e-07)
(6.51549 1.04656e-08 3.05803e-07)
(6.51549 1.62261e-08 3.05803e-07)
(6.66473 -1.43479e-08 3.27529e-07)
(6.66473 -8.53701e-09 3.27528e-07)
(6.80891 -4.49355e-09 3.50453e-07)
(6.80891 1.37182e-09 3.50452e-07)
(6.94732 8.89155e-10 3.75033e-07)
(6.94732 6.78326e-09 3.75032e-07)
(7.07927 -1.72504e-08 4.01015e-07)
(7.07927 -1.12873e-08 4.01014e-07)
(7.20407 4.30952e-09 4.28535e-07)
(7.20407 1.0303e-08 4.28535e-07)
(7.32106 -1.33915e-08 4.57757e-07)
(7.32106 -7.32516e-09 4.57757e-07)
(7.42961 4.9449e-10 4.88616e-07)
(7.42961 6.59933e-09 4.88616e-07)
(7.52911 -1.11903e-08 5.21205e-07)
(7.52911 -5.01882e-09 5.21205e-07)
(7.61902 -1.43143e-08 5.55113e-07)
(7.61902 -8.07636e-09 5.55112e-07)
(7.69883 7.61901e-09 5.90846e-07)
(7.69883 1.38927e-08 5.90846e-07)
(7.76813 -1.90378e-08 6.28267e-07)
(7.76813 -1.26748e-08 6.28267e-07)
(7.82655 -1.23382e-08 6.66732e-07)
(7.82655 -5.91534e-09 6.66732e-07)
(7.87384 4.35021e-09 7.06853e-07)
(7.87384 1.08367e-08 7.06853e-07)
(7.90981 -3.41305e-08 7.47915e-07)
(7.90981 -2.75613e-08 7.47915e-07)
(7.93438 2.57996e-08 7.9046e-07)
(7.93438 3.24241e-08 7.90459e-07)
(7.94758 -6.18843e-08 8.33582e-07)
(7.94758 -5.51552e-08 8.33582e-07)
(7.94953 4.06101e-08 8.77607e-07)
(7.94953 4.73826e-08 8.77606e-07)
(7.94047 -6.38183e-08 9.22465e-07)
(7.94047 -5.69248e-08 9.22464e-07)
(7.92072 2.87097e-08 9.67687e-07)
(7.92072 3.56568e-08 9.67686e-07)
(7.89072 -5.10758e-08 1.01372e-06)
(7.89072 -4.40209e-08 1.01372e-06)
(7.85099 1.51427e-08 1.0601e-06)
(7.85099 2.22795e-08 1.0601e-06)
(7.80211 -4.29898e-08 1.10719e-06)
(7.80211 -3.57648e-08 1.10719e-06)
(7.74474 -2.32021e-09 1.15445e-06)
(7.74474 5.01303e-09 1.15444e-06)
(7.67959 -2.15759e-08 1.20274e-06)
(7.67959 -1.41592e-08 1.20274e-06)
(7.6074 -2.63181e-08 1.25137e-06)
(7.6074 -1.87787e-08 1.25137e-06)
(7.52894 -2.34912e-10 1.30122e-06)
(7.52894 7.37498e-09 1.30122e-06)
(7.44495 -5.19936e-08 1.35157e-06)
(7.44495 -4.42339e-08 1.35157e-06)
(7.35619 1.76312e-08 1.40318e-06)
(7.35619 2.54509e-08 1.40318e-06)
(7.26338 -5.8466e-08 1.45603e-06)
(7.26338 -5.0484e-08 1.45603e-06)
(7.16719 6.64414e-09 1.50981e-06)
(7.16719 1.47027e-08 1.50981e-06)
(7.06828 -4.33746e-08 1.56529e-06)
(7.06828 -3.51677e-08 1.56529e-06)
(6.96723 -3.30728e-10 1.62232e-06)
(6.96723 7.9766e-09 1.62232e-06)
(6.86457 -4.84859e-08 1.68085e-06)
(6.86457 -4.00303e-08 1.68085e-06)
(6.76076 2.3923e-09 1.7411e-06)
(6.76076 1.09533e-08 1.7411e-06)
(6.65622 -5.43784e-08 1.80295e-06)
(6.65622 -4.56539e-08 1.80295e-06)
(6.55131 2.3927e-10 1.86637e-06)
(6.55131 9.07282e-09 1.86637e-06)
(6.44634 -4.01339e-08 1.9321e-06)
(6.44634 -3.11332e-08 1.9321e-06)
(6.34158 -1.69734e-08 1.99947e-06)
(6.34158 -7.83895e-09 1.99946e-06)
(6.23724 -3.27221e-08 2.06888e-06)
(6.23724 -2.34334e-08 2.06888e-06)
(6.13351 -3.47649e-08 2.13962e-06)
(6.13351 -2.53008e-08 2.13962e-06)
(6.03055 -1.69653e-09 2.2131e-06)
(6.03055 7.89357e-09 2.2131e-06)
(5.92848 -6.10705e-08 2.28827e-06)
(5.92848 -5.12704e-08 2.28827e-06)
(5.82741 -9.13904e-09 2.36476e-06)
(5.82741 7.99491e-10 2.36476e-06)
(5.72741 -3.18782e-08 2.444e-06)
(5.72741 -2.17258e-08 2.444e-06)
(5.62857 -4.28896e-08 2.52445e-06)
(5.62857 -3.25722e-08 2.52445e-06)
(5.53095 -6.99984e-09 2.6073e-06)
(5.53095 3.51646e-09 2.6073e-06)
(5.43457 -5.25653e-08 2.69218e-06)
(5.43457 -4.18479e-08 2.69218e-06)
(5.3395 -2.90108e-08 2.77798e-06)
(5.3395 -1.80756e-08 2.77798e-06)
(5.24574 -2.33366e-08 2.86617e-06)
(5.24574 -1.21981e-08 2.86617e-06)
(5.15334 -4.10206e-08 2.95619e-06)
(5.15334 -2.96511e-08 2.95619e-06)
(5.06232 -3.33127e-08 3.04752e-06)
(5.06232 -2.17058e-08 3.04752e-06)
(4.97267 -2.64048e-08 3.14092e-06)
(4.97267 -1.45676e-08 3.14092e-06)
(4.88443 -4.78319e-08 3.23565e-06)
(4.88443 -3.57259e-08 3.23564e-06)
(4.79758 -2.2713e-08 3.33186e-06)
(4.79758 -1.03684e-08 3.33186e-06)
(4.71214 -3.93427e-08 3.43003e-06)
(4.71214 -2.67016e-08 3.43003e-06)
(4.62811 -4.99143e-08 3.52864e-06)
(4.62811 -3.70071e-08 3.52864e-06)
(4.54548 -1.1079e-08 3.62918e-06)
(4.54548 2.12451e-09 3.62918e-06)
(4.46425 -5.8182e-08 3.73124e-06)
(4.46425 -4.46765e-08 3.73124e-06)
(4.38441 -3.0513e-08 3.83362e-06)
(4.38441 -1.66708e-08 3.83362e-06)
(4.30594 -2.92303e-08 3.93795e-06)
(4.30594 -1.50936e-08 3.93795e-06)
(4.22885 -6.39139e-08 4.04223e-06)
(4.22885 -4.9375e-08 4.04223e-06)
(4.15311 2.30884e-09 4.14824e-06)
(4.15311 1.71145e-08 4.14824e-06)
(4.07872 -8.67403e-08 4.25461e-06)
(4.07872 -7.14342e-08 4.25461e-06)
(4.00565 1.47847e-08 4.36196e-06)
(4.00565 3.03175e-08 4.36196e-06)
(3.93388 -1.04735e-07 4.46916e-06)
(3.93388 -8.85974e-08 4.46916e-06)
(3.8634 2.83787e-08 4.57686e-06)
(3.8634 4.46963e-08 4.57686e-06)
(3.79419 -9.65782e-08 4.68564e-06)
(3.79419 -7.95423e-08 4.68564e-06)
(3.72623 1.00601e-09 4.79352e-06)
(3.72623 1.81899e-08 4.79351e-06)
(3.6595 -6.12014e-08 4.90279e-06)
(3.6595 -4.31963e-08 4.90279e-06)
(3.59398 -4.32408e-08 5.01038e-06)
(3.59398 -2.51273e-08 5.01038e-06)
(3.52965 -2.0318e-08 5.1189e-06)
(3.52965 -1.21852e-09 5.1189e-06)
(3.46648 -6.69002e-08 5.22668e-06)
(3.46648 -4.78394e-08 5.22668e-06)
(3.40447 -2.22684e-08 5.33339e-06)
(3.40447 -1.91599e-09 5.33339e-06)
(3.34359 -4.34741e-08 5.44061e-06)
(3.34359 -2.34349e-08 5.44061e-06)
(3.28384 -5.4017e-08 5.54595e-06)
(3.28384 -3.22379e-08 5.54595e-06)
(3.22519 -2.8821e-08 5.65026e-06)
(3.22519 -7.79297e-09 5.65026e-06)
(3.16763 -4.72417e-08 5.75396e-06)
(3.16763 -2.38245e-08 5.75396e-06)
(3.11117 -3.64159e-08 5.85634e-06)
(3.11117 -1.44041e-08 5.85633e-06)
(3.05578 -5.82271e-08 5.9564e-06)
(3.05578 -3.28938e-08 5.95641e-06)
(3.00146 -2.6669e-08 6.05469e-06)
(3.00146 -3.75513e-09 6.05468e-06)
(2.94821 -5.37017e-08 6.15144e-06)
(2.94821 -2.60763e-08 6.15145e-06)
(2.89602 -3.35012e-08 6.24593e-06)
(2.89602 -9.83956e-09 6.24592e-06)
(2.84488 -5.76029e-08 6.3377e-06)
(2.84488 -2.71743e-08 6.33771e-06)
(2.79479 -2.92933e-08 6.42686e-06)
(2.79479 -5.19399e-09 6.42684e-06)
(2.74573 -6.4741e-08 6.51266e-06)
(2.74573 -3.07838e-08 6.51268e-06)
(2.6977 -2.19009e-08 6.59548e-06)
(2.6977 2.11011e-09 6.59545e-06)
(2.6507 -6.71184e-08 6.67499e-06)
(2.6507 -2.861e-08 6.67502e-06)
(2.60471 -2.01289e-08 6.75111e-06)
(2.60471 2.93381e-09 6.75107e-06)
(2.55975 -7.18706e-08 6.82331e-06)
(2.55975 -2.73331e-08 6.82337e-06)
(2.5158 -2.09015e-08 6.89125e-06)
(2.5158 -1.75412e-10 6.89119e-06)
(2.47286 -7.41793e-08 6.95458e-06)
(2.47286 -2.14323e-08 6.95467e-06)
(2.43093 -4.10906e-09 7.01461e-06)
(2.43093 1.2064e-08 7.01451e-06)
(2.39001 -1.08376e-07 7.06809e-06)
(2.39001 -4.41767e-08 7.06822e-06)
(2.35012 3.84456e-08 7.11867e-06)
(2.35012 4.65921e-08 7.11851e-06)
(2.31124 -1.52779e-07 7.16222e-06)
(2.31124 -7.2292e-08 7.16242e-06)
(2.27338 8.07321e-08 7.20234e-06)
(2.27338 7.54616e-08 7.20208e-06)
(2.23655 -2.07699e-07 7.23384e-06)
(2.23655 -1.03641e-07 7.23417e-06)
(2.20075 1.42834e-07 7.26228e-06)
(2.20075 1.15754e-07 7.26188e-06)
(2.16598 -2.86369e-07 7.2801e-06)
(2.16598 -1.47651e-07 7.28061e-06)
(2.13224 2.36935e-07 7.29607e-06)
(2.13224 1.74975e-07 7.29544e-06)
(2.09954 -4.0846e-07 7.29822e-06)
(2.09954 -2.1811e-07 7.29902e-06)
(2.06788 3.81423e-07 7.30051e-06)
(2.06788 2.6432e-07 7.29951e-06)
(2.03724 -5.86483e-07 7.28511e-06)
(2.03724 -3.18544e-07 7.28639e-06)
(2.00764 5.79999e-07 7.27172e-06)
(2.00764 3.76375e-07 7.27013e-06)
(1.97904 -8.14878e-07 7.2371e-06)
(1.97904 -4.29427e-07 7.23911e-06)
(1.95141 8.40846e-07 7.20781e-06)
(1.95141 5.01938e-07 7.20528e-06)
(1.92474 -1.14548e-06 7.1492e-06)
(1.92474 -5.80735e-07 7.1524e-06)
(1.89895 1.25362e-06 7.10507e-06)
(1.89895 7.03405e-07 7.10104e-06)
(1.87399 -1.67129e-06 7.01845e-06)
(1.87399 -8.31299e-07 7.02357e-06)
(1.8498 1.88708e-06 6.95877e-06)
(1.8498 1.00687e-06 6.95232e-06)
(1.82628 -2.44532e-06 6.8399e-06)
(1.82628 -1.18059e-06 6.8481e-06)
(1.80337 2.83085e-06 6.76857e-06)
(1.80337 1.43488e-06 6.75822e-06)
(1.781 -3.64992e-06 6.60624e-06)
(1.781 -1.72654e-06 6.6194e-06)
(1.75908 4.31751e-06 6.52653e-06)
(1.75908 2.11407e-06 6.50986e-06)
(1.73758 -5.45403e-06 6.3164e-06)
(1.73758 -2.5048e-06 6.33761e-06)
(1.71645 6.4866e-06 6.23603e-06)
(1.71645 3.01635e-06 6.2091e-06)
(1.69569 -8.13023e-06 5.96016e-06)
(1.69569 -3.57643e-06 5.99447e-06)
(1.6753 9.75662e-06 5.89269e-06)
(1.6753 4.29344e-06 5.84904e-06)
(1.65533 -1.21223e-05 5.53454e-06)
(1.65533 -5.04819e-06 5.59025e-06)
(1.63581 1.45892e-05 5.49938e-06)
(1.63581 5.9811e-06 5.42834e-06)
(1.61681 -1.80193e-05 5.02881e-06)
(1.61681 -6.96985e-06 5.11962e-06)
(1.59835 2.18032e-05 5.06595e-06)
(1.59835 8.21469e-06 4.94989e-06)
(1.5805 -2.68866e-05 4.43612e-06)
(1.5805 -9.53957e-06 4.58479e-06)
(1.56327 3.26649e-05 4.60143e-06)
(1.56327 1.1159e-05 4.41098e-06)
(1.54668 -4.02338e-05 3.74096e-06)
(1.54668 -1.28656e-05 3.98541e-06)
(1.53074 4.90563e-05 4.12676e-06)
(1.53074 1.49114e-05 3.81285e-06)
(1.51544 -6.04746e-05 2.91381e-06)
(1.51544 -1.70854e-05 3.31764e-06)
(1.50075 7.40421e-05 3.67004e-06)
(1.50075 1.96308e-05 3.15016e-06)
(1.48663 -9.14048e-05 1.91623e-06)
(1.48663 -2.22774e-05 2.58662e-06)
(1.47303 0.000112265 3.27439e-06)
(1.47303 2.52038e-05 2.40912e-06)
(1.45989 -0.000138753 1.02237e-06)
(1.45989 -2.80885e-05 1.7973e-06)
(1.44717 0.000162352 2.64107e-06)
(1.44717 3.10225e-05 1.57161e-06)
(1.43481 -0.000193631 5.68459e-07)
(1.43481 -3.36983e-05 1.0254e-06)
(1.4228 0.000207399 1.37265e-06)
(1.4228 3.59919e-05 6.64426e-07)
(1.41111 -0.000229965 7.37976e-08)
(1.41111 -3.79395e-05 1.46765e-06)
(1.39975 0.000233117 3.11355e-19)
(1.39975 3.87986e-05 1.55023e-06)
(1.38876 -0.000218403 1.27367e-06)
(1.38876 -3.9661e-05 8.03922e-07)
(1.37818 0.000211302 5.58327e-07)
(1.37818 3.8796e-05 1.2592e-06)
(1.36805 -0.000185341 2.94489e-06)
(1.36805 -3.84706e-05 1.69284e-06)
(1.35841 0.000165574 1.18048e-06)
(1.35841 3.6281e-05 2.13442e-06)
(1.34925 -0.000139102 4.23431e-06)
(1.34925 -3.5047e-05 3.00111e-06)
(1.3406 0.000117129 2.3921e-06)
(1.3406 3.21235e-05 3.41459e-06)
(1.33246 -9.83066e-05 5.23453e-06)
(1.33246 -3.04375e-05 4.38925e-06)
(1.32482 8.27171e-05 4.12027e-06)
(1.32482 2.7233e-05 4.81853e-06)
(1.31765 -6.93774e-05 6.43347e-06)
(1.31765 -2.55185e-05 5.85875e-06)
(1.3109 5.83534e-05 5.86915e-06)
(1.3109 2.23837e-05 6.34212e-06)
(1.30446 -4.89956e-05 7.8029e-06)
(1.30446 -2.09362e-05 7.41546e-06)
(1.29822 4.12008e-05 7.66203e-06)
(1.29822 1.80235e-05 7.97969e-06)
(1.29201 -3.46487e-05 9.33897e-06)
(1.29201 -1.68952e-05 9.08012e-06)
(1.28568 2.90798e-05 9.51888e-06)
(1.28568 1.42165e-05 9.73037e-06)
(1.27906 -2.45195e-05 1.10292e-05)
(1.27906 -1.34272e-05 1.08579e-05)
(1.27201 2.05469e-05 1.14598e-05)
(1.27201 1.10402e-05 1.15993e-05)
(1.26441 -1.74165e-05 1.28557e-05)
(1.26441 -1.0589e-05 1.27433e-05)
(1.25622 1.45255e-05 1.34738e-05)
(1.25622 8.44112e-06 1.35651e-05)
(1.24746 -1.24045e-05 1.47961e-05)
(1.24746 -8.28191e-06 1.47231e-05)
(1.23821 1.02009e-05 1.55532e-05)
(1.23821 6.28646e-06 1.56126e-05)
(1.22853 -8.82087e-06 1.6836e-05)
(1.22853 -6.39779e-06 1.6789e-05)
(1.21847 7.11235e-06 1.7708e-05)
(1.21847 4.56508e-06 1.77463e-05)
(1.20802 -6.30099e-06 1.89662e-05)
(1.20802 -4.93538e-06 1.89362e-05)
(1.19715 4.93893e-06 1.99292e-05)
(1.19715 3.249e-06 1.99538e-05)
(1.18582 -4.55782e-06 2.11699e-05)
(1.18582 -3.84329e-06 2.11509e-05)
(1.17396 3.34667e-06 2.21983e-05)
(1.17396 2.19329e-06 2.22141e-05)
(1.16151 -3.37149e-06 2.3442e-05)
(1.16151 -3.0529e-06 2.34301e-05)
(1.14843 2.23413e-06 2.45539e-05)
(1.14843 1.41713e-06 2.45641e-05)
(1.13466 -2.58593e-06 2.58392e-05)
(1.13466 -2.50404e-06 2.58318e-05)
(1.12017 1.48958e-06 2.7057e-05)
(1.12017 8.84594e-07 2.70635e-05)
(1.10501 -2.08591e-06 2.84156e-05)
(1.10501 -2.14142e-06 2.84112e-05)
(1.0893 9.10487e-07 2.97515e-05)
(1.0893 4.41068e-07 2.97557e-05)
(1.07324 -1.70514e-06 3.1228e-05)
(1.07324 -1.83714e-06 3.12254e-05)
(1.05711 4.66994e-07 3.27139e-05)
(1.05711 8.70316e-08 3.27166e-05)
(1.04114 -1.31843e-06 3.43324e-05)
(1.04114 -1.48964e-06 3.43309e-05)
(1.02551 9.08241e-08 3.59455e-05)
(1.02551 -2.27299e-07 3.59474e-05)
(1.01029 -1.02296e-06 3.76515e-05)
(1.01029 -1.21042e-06 3.76506e-05)
(0.99541 -2.32715e-07 3.93338e-05)
(0.99541 -5.05461e-07 3.93351e-05)
(0.980672 -1.02882e-06 4.10717e-05)
(0.980672 -1.21822e-06 4.10714e-05)
(0.965867 -3.89386e-07 4.28418e-05)
(0.965867 -6.26343e-07 4.28427e-05)
(0.950865 -1.18918e-06 4.46748e-05)
(0.950865 -1.37151e-06 4.46747e-05)
(0.935678 -4.43024e-07 4.65988e-05)
(0.935678 -6.49666e-07 4.65995e-05)
(0.920435 -1.2682e-06 4.86143e-05)
(0.920435 -1.43751e-06 4.86144e-05)
(0.905273 -5.76343e-07 5.07211e-05)
(0.905273 -7.55707e-07 5.07216e-05)
(0.890326 -1.22823e-06 5.29429e-05)
(0.890326 -1.38044e-06 5.2943e-05)
(0.875704 -7.70641e-07 5.52354e-05)
(0.875704 -9.24172e-07 5.52358e-05)
(0.861555 -1.24497e-06 5.76367e-05)
(0.861555 -1.37713e-06 5.76368e-05)
(0.848069 -1.03897e-06 6.01156e-05)
(0.848069 -1.16711e-06 6.0116e-05)
(0.835469 -1.16774e-06 6.27309e-05)
(0.835469 -1.27768e-06 6.27311e-05)
(0.823938 -1.1619e-06 6.54112e-05)
(0.823938 -1.26433e-06 6.54115e-05)
(0.81349 -1.19125e-06 6.81521e-05)
(0.81349 -1.27728e-06 6.81523e-05)
(0.803955 -1.25899e-06 7.09093e-05)
(0.803955 -1.33508e-06 7.09095e-05)
(0.794984 -1.36943e-06 7.36631e-05)
(0.794984 -1.43007e-06 7.36632e-05)
(0.786108 -1.4837e-06 7.64264e-05)
(0.786108 -1.53263e-06 7.64266e-05)
(0.776849 -1.48107e-06 7.92353e-05)
(0.776849 -1.51503e-06 7.92354e-05)
(0.766804 -1.59528e-06 8.20873e-05)
(0.766804 -1.61622e-06 8.20874e-05)
(0.755599 -1.67867e-06 8.49835e-05)
(0.755599 -1.68472e-06 8.49835e-05)
(0.742943 -1.78636e-06 8.79668e-05)
(0.742943 -1.77844e-06 8.79668e-05)
(0.728842 -1.83101e-06 9.10845e-05)
(0.728842 -1.80807e-06 9.10845e-05)
(0.713726 -1.9907e-06 9.43696e-05)
(0.713726 -1.95297e-06 9.43695e-05)
(0.698376 -1.80286e-06 9.78686e-05)
(0.698376 -1.74987e-06 9.78685e-05)
(0.683666 -2.16859e-06 0.000101513)
(0.683666 -2.10011e-06 0.000101512)
(0.67035 -1.98175e-06 0.000105294)
(0.67035 -1.89748e-06 0.000105294)
(0.65906 -2.32523e-06 0.000109189)
(0.65906 -2.2249e-06 0.000109189)
(0.650205 -2.03197e-06 0.000113148)
(0.650205 -1.91535e-06 0.000113147)
(0.643622 -2.48237e-06 0.000117067)
(0.643622 -2.34907e-06 0.000117066)
(0.63844 -2.2044e-06 0.00012089)
(0.63844 -2.05428e-06 0.000120889)
(0.633464 -2.79503e-06 0.000124581)
(0.633464 -2.62798e-06 0.00012458)
(0.627828 -2.65808e-06 0.000128173)
(0.627828 -2.47344e-06 0.000128173)
(0.621546 -3.08023e-06 0.000131782)
(0.621546 -2.87866e-06 0.000131782)
(0.615403 -3.23149e-06 0.000135435)
(0.615403 -3.01194e-06 0.000135434)
(0.610437 -3.0006e-06 0.000139297)
(0.610437 -2.76395e-06 0.000139296)
(0.607452 -3.64496e-06 0.000143198)
(0.607452 -3.39029e-06 0.000143197)
(0.606888 -3.12851e-06 0.000147209)
(0.606888 -2.85665e-06 0.000147208)
(0.608961 -3.5284e-06 0.000151274)
(0.608961 -3.23876e-06 0.000151273)
(0.613439 -3.184e-06 0.000155213)
(0.613439 -2.87744e-06 0.000155212)
(0.619658 -3.72242e-06 0.00015894)
(0.619658 -3.39851e-06 0.000158939)
(0.626907 -3.36742e-06 0.00016243)
(0.626907 -3.02713e-06 0.000162429)
(0.634624 -4.21604e-06 0.000165645)
(0.634624 -3.85941e-06 0.000165644)
(0.642335 -3.95132e-06 0.000168697)
(0.642335 -3.57886e-06 0.000168696)
(0.649499 -4.77855e-06 0.000171751)
(0.649499 -4.39139e-06 0.000171749)
(0.655462 -4.14875e-06 0.000174952)
(0.655462 -3.74696e-06 0.000174951)
(0.659631 -4.91825e-06 0.000178238)
(0.659631 -4.50358e-06 0.000178236)
(0.66158 -4.19755e-06 0.000181499)
(0.66158 -3.77027e-06 0.000181498)
(0.661093 -5.42324e-06 0.00018458)
(0.661093 -4.98546e-06 0.000184578)
(0.65825 -4.45623e-06 0.000187602)
(0.65825 -4.00855e-06 0.0001876)
(0.653156 -5.92548e-06 0.00019057)
(0.653156 -5.47051e-06 0.000190568)
(0.645743 -4.66053e-06 0.000193649)
(0.645743 -4.19905e-06 0.000193647)
(0.636215 -6.43141e-06 0.000196834)
(0.636215 -5.96688e-06 0.000196832)
(0.625168 -4.81331e-06 0.000200303)
(0.625168 -4.34641e-06 0.000200301)
(0.613074 -6.79136e-06 0.000204003)
(0.613074 -6.32693e-06 0.000204001)
(0.599857 -4.64698e-06 0.000208006)
(0.599857 -4.18514e-06 0.000208003)
(0.584922 -7.53481e-06 0.000212046)
(0.584922 -7.08263e-06 0.000212043)
(0.56784 -4.61439e-06 0.000216491)
(0.56784 -4.17064e-06 0.000216489)
(0.548932 -8.17901e-06 0.000221202)
(0.548932 -7.75442e-06 0.0002212)
(0.529151 -4.51893e-06 0.000226481)
(0.529151 -4.10955e-06 0.000226479)
(0.509585 -8.96322e-06 0.000232053)
(0.509585 -8.5858e-06 0.000232051)
(0.490921 -4.4752e-06 0.000238221)
(0.490921 -4.12071e-06 0.000238219)
(0.473839 -9.85059e-06 0.000244612)
(0.473839 -9.54577e-06 0.00024461)
(0.459845 -4.34154e-06 0.000251473)
(0.459845 -4.0681e-06 0.000251472)
(0.450791 -1.10854e-05 0.000258148)
(0.450791 -1.08867e-05 0.000258146)
(0.447465 -3.93116e-06 0.000265053)
(0.447465 -3.77251e-06 0.000265053)
(0.44873 -1.22942e-05 0.000271345)
(0.44873 -1.22469e-05 0.000271344)
(0.451831 -3.67792e-06 0.000277634)
(0.451831 -3.67787e-06 0.000277636)
(0.453565 -1.43351e-05 0.000283262)
(0.453565 -1.45008e-05 0.000283261)
(0.451646 -2.88834e-06 0.00028961)
(0.451646 -3.10453e-06 0.000289614)
(0.44576 -1.55342e-05 0.000295581)
(0.44576 -1.59997e-05 0.000295581)
(0.437222 -1.5338e-06 0.000302035)
(0.437222 -2.04096e-06 0.000302043)
(0.427831 -1.74546e-05 0.000307276)
(0.427831 -1.83399e-05 0.000307276)
(0.419207 2.83711e-07 0.000312757)
(0.419207 -6.08979e-07 0.000312772)
(0.412466 -1.93269e-05 0.000316006)
(0.412466 -2.07981e-05 0.000316005)
(0.407964 1.62374e-06 0.000318413)
(0.407964 2.27177e-07 0.000318439)
(0.405266 -2.25749e-05 0.000317604)
(0.405266 -2.48638e-05 0.0003176)
(0.403987 2.6778e-06 0.000316548)
(0.403987 6.29916e-07 0.000316592)
(0.405017 -2.5802e-05 0.000312968)
(0.405017 -2.9236e-05 0.000312958)
(0.409728 4.81001e-06 0.000310455)
(0.409728 1.92631e-06 0.00031053)
(0.417945 -2.79069e-05 0.000305602)
(0.417946 -3.29501e-05 0.000305579)
(0.42823 7.6759e-06 0.000301755)
(0.42823 3.71495e-06 0.000301885)
(0.438471 -3.01125e-05 0.000294116)
(0.438471 -3.74303e-05 0.000294066)
(0.446521 9.49405e-06 0.000286676)
(0.446522 4.09302e-06 0.000286902)
(0.451517 -3.1647e-05 0.000274614)
(0.451517 -4.21641e-05 0.000274512)
(0.454259 1.06733e-05 0.000262457)
(0.454259 3.15873e-06 0.000262843)
(0.455969 -3.174e-05 0.000245223)
(0.455969 -4.65191e-05 0.000245028)
(0.456287 1.15274e-05 0.000227848)
(0.456287 3.4568e-07 0.000228475)
(0.45427 -2.93705e-05 0.000204877)
(0.45427 -4.88482e-05 0.000204574)
(0.450646 9.90644e-06 0.000180702)
(0.450646 -9.23215e-06 0.000181604)
(0.44817 -2.39434e-05 0.00015215)
(0.44817 -4.51353e-05 0.000151893)
(0.448929 1.08911e-05 0.00012204)
(0.448929 -9.60876e-06 0.00012296)
(0.451668 -1.70538e-05 8.60681e-05)
(0.451668 -3.09275e-05 8.59376e-05)
(0.453709 1.22849e-05 4.54449e-05)
(0.453709 1.87301e-06 4.5985e-05)
(0.0390482 6.2686e-09 -3.85577e-11)
(0.0390482 6.22007e-09 -6.80294e-09)
(0.117511 1.87075e-08 -3.91169e-10)
(0.117511 1.85385e-08 -1.04625e-08)
(0.196906 3.009e-08 -1.32012e-09)
(0.196906 2.97169e-08 -1.06551e-08)
(0.277236 3.45866e-08 -3.02557e-09)
(0.277236 3.40564e-08 -1.04424e-08)
(0.358497 2.4827e-08 -5.20335e-09)
(0.358497 2.41113e-08 -9.29431e-09)
(0.440682 4.5594e-09 -6.97675e-09)
(0.440682 3.79438e-09 -7.22107e-09)
(0.523783 -8.40902e-09 -7.87339e-09)
(0.523783 -9.34227e-09 -7.87373e-09)
(0.607796 -9.01157e-09 -8.25753e-09)
(0.607796 -1.00762e-08 -8.25777e-09)
(0.692725 -6.5439e-09 -8.57056e-09)
(0.692725 -7.55772e-09 -8.57047e-09)
(0.778589 -3.20537e-09 -9.00315e-09)
(0.778589 -4.3139e-09 -9.00316e-09)
(0.865421 -1.48179e-09 -9.60088e-09)
(0.865421 -2.60094e-09 -9.60087e-09)
(0.953265 -5.0613e-11 -1.0357e-08)
(0.953265 -1.20395e-09 -1.0357e-08)
(1.04218 1.16977e-09 -1.12658e-08)
(1.04218 -1.78177e-12 -1.12658e-08)
(1.13224 1.7581e-09 -1.23215e-08)
(1.13224 5.65386e-10 -1.23215e-08)
(1.22353 2.43724e-09 -1.35208e-08)
(1.22353 1.22837e-09 -1.35208e-08)
(1.31614 2.62155e-09 -1.48625e-08)
(1.31614 1.39542e-09 -1.48625e-08)
(1.41019 3.19689e-09 -1.63494e-08)
(1.41019 1.95762e-09 -1.63494e-08)
(1.50578 3.43996e-09 -1.79898e-08)
(1.50578 2.18608e-09 -1.79898e-08)
(1.60304 3.37996e-09 -1.97851e-08)
(1.60304 2.11314e-09 -1.97851e-08)
(1.7021 3.65887e-09 -2.174e-08)
(1.7021 2.38008e-09 -2.174e-08)
(1.80311 4.06815e-09 -2.38686e-08)
(1.80311 2.77789e-09 -2.38686e-08)
(1.90619 3.94906e-09 -2.61804e-08)
(1.90619 2.64575e-09 -2.61804e-08)
(2.01149 3.61886e-09 -2.86747e-08)
(2.01149 2.30683e-09 -2.86747e-08)
(2.11916 4.42913e-09 -3.13669e-08)
(2.11916 3.10468e-09 -3.13669e-08)
(2.22933 4.26777e-09 -3.42767e-08)
(2.22933 2.93294e-09 -3.42767e-08)
(2.34215 4.12756e-09 -3.74094e-08)
(2.34215 2.78285e-09 -3.74094e-08)
(2.45772 3.76956e-09 -4.07677e-08)
(2.45772 2.41415e-09 -4.07677e-08)
(2.57619 4.84532e-09 -4.4376e-08)
(2.57619 3.48044e-09 -4.4376e-08)
(2.69765 4.19601e-09 -4.82557e-08)
(2.69765 2.81989e-09 -4.82557e-08)
(2.8222 4.39059e-09 -5.24137e-08)
(2.8222 3.00533e-09 -5.24137e-08)
(2.94992 3.77533e-09 -5.68585e-08)
(2.94992 2.38007e-09 -5.68585e-08)
(3.08086 5.02666e-09 -6.16184e-08)
(3.08086 3.6211e-09 -6.16184e-08)
(3.21505 4.22326e-09 -6.6721e-08)
(3.21505 2.80747e-09 -6.6721e-08)
(3.35251 4.25806e-09 -7.21723e-08)
(3.35251 2.83258e-09 -7.21723e-08)
(3.49322 4.10221e-09 -7.79915e-08)
(3.49322 2.66645e-09 -7.79915e-08)
(3.63714 4.96969e-09 -8.42156e-08)
(3.63714 3.52369e-09 -8.42156e-08)
(3.78418 4.31476e-09 -9.08744e-08)
(3.78418 2.85828e-09 -9.08744e-08)
(3.93425 4.1881e-09 -9.798e-08)
(3.93425 2.72131e-09 -9.798e-08)
(4.08719 4.22127e-09 -1.05559e-07)
(4.08719 2.74374e-09 -1.05559e-07)
(4.24284 4.86059e-09 -1.13658e-07)
(4.24284 3.37266e-09 -1.13658e-07)
(4.40097 4.66261e-09 -1.22318e-07)
(4.40097 3.16278e-09 -1.22318e-07)
(4.56133 4.1253e-09 -1.31562e-07)
(4.56133 2.61558e-09 -1.31562e-07)
(4.72364 4.12814e-09 -1.41418e-07)
(4.72364 2.60581e-09 -1.41418e-07)
(4.88755 5.45856e-09 -1.51956e-07)
(4.88755 3.92524e-09 -1.51956e-07)
(5.05271 3.57521e-09 -1.63208e-07)
(5.05271 2.03027e-09 -1.63208e-07)
(5.2187 5.70553e-09 -1.7523e-07)
(5.2187 4.14671e-09 -1.7523e-07)
(5.38508 2.69985e-09 -1.88053e-07)
(5.38508 1.1312e-09 -1.88053e-07)
(5.55136 6.87776e-09 -2.01757e-07)
(5.55136 5.29408e-09 -2.01757e-07)
(5.71702 4.41252e-09 -2.16442e-07)
(5.71702 2.81579e-09 -2.16442e-07)
(5.8815 2.04055e-09 -2.32058e-07)
(5.8815 4.31981e-10 -2.32058e-07)
(6.04422 4.09229e-09 -2.48656e-07)
(6.04422 2.46636e-09 -2.48656e-07)
(6.20456 1.4429e-08 -2.66598e-07)
(6.20456 1.279e-08 -2.66598e-07)
(6.36187 -1.18228e-08 -2.85582e-07)
(6.36187 -1.34737e-08 -2.85581e-07)
(6.51549 2.02896e-08 -3.05802e-07)
(6.51549 1.86193e-08 -3.05802e-07)
(6.66473 -4.44529e-09 -3.27528e-07)
(6.66473 -6.13014e-09 -3.27528e-07)
(6.80891 5.51009e-09 -3.50452e-07)
(6.80891 3.80684e-09 -3.50452e-07)
(6.94732 1.09673e-08 -3.75032e-07)
(6.94732 9.24647e-09 -3.75032e-07)
(7.07927 -7.07093e-09 -4.01014e-07)
(7.07927 -8.80336e-09 -4.01014e-07)
(7.20407 1.45816e-08 -4.28534e-07)
(7.20407 1.28219e-08 -4.28534e-07)
(7.32106 -3.00958e-09 -4.57757e-07)
(7.32106 -4.78446e-09 -4.57756e-07)
(7.42961 1.09699e-08 -4.88615e-07)
(7.42961 9.17565e-09 -4.88615e-07)
(7.52911 -5.96704e-10 -5.21204e-07)
(7.52911 -2.41302e-09 -5.21204e-07)
(7.61902 -3.60297e-09 -5.55112e-07)
(7.61902 -5.44721e-09 -5.55112e-07)
(7.69883 1.84296e-08 -5.90846e-07)
(7.69883 1.65758e-08 -5.90845e-07)
(7.76813 -8.09281e-09 -6.28266e-07)
(7.76813 -9.97966e-09 -6.28266e-07)
(7.82655 -1.25638e-09 -6.66731e-07)
(7.82655 -3.16838e-09 -6.66731e-07)
(7.87384 1.5548e-08 -7.06852e-07)
(7.87384 1.36137e-08 -7.06852e-07)
(7.90981 -2.27866e-08 -7.47914e-07)
(7.90981 -2.47484e-08 -7.47914e-07)
(7.93438 3.72842e-08 -7.90459e-07)
(7.93438 3.52939e-08 -7.90459e-07)
(7.94758 -5.02566e-08 -8.33581e-07)
(7.94758 -5.22715e-08 -8.33581e-07)
(7.94953 5.23952e-08 -8.77606e-07)
(7.94953 5.03425e-08 -8.77606e-07)
(7.94047 -5.18799e-08 -9.22464e-07)
(7.94047 -5.39539e-08 -9.22463e-07)
(7.92072 4.0817e-08 -9.67685e-07)
(7.92072 3.87042e-08 -9.67685e-07)
(7.89072 -3.8807e-08 -1.01372e-06)
(7.89072 -4.09518e-08 -1.01372e-06)
(7.85099 2.75932e-08 -1.0601e-06)
(7.85099 2.542e-08 -1.0601e-06)
(7.80211 -3.0374e-08 -1.10719e-06)
(7.80211 -3.2593e-08 -1.10719e-06)
(7.74474 1.04916e-08 -1.15444e-06)
(7.74474 8.25078e-09 -1.15444e-06)
(7.67959 -8.58052e-09 -1.20274e-06)
(7.67959 -1.08737e-08 -1.20274e-06)
(7.60741 -1.31205e-08 -1.25136e-06)
(7.60741 -1.54425e-08 -1.25136e-06)
(7.52894 1.31491e-08 -1.30122e-06)
(7.52894 1.07834e-08 -1.30122e-06)
(7.44495 -3.83891e-08 -1.35157e-06)
(7.44495 -4.07908e-08 -1.35157e-06)
(7.35619 3.14347e-08 -1.40318e-06)
(7.35619 2.89818e-08 -1.40318e-06)
(7.26338 -4.44337e-08 -1.45603e-06)
(7.26338 -4.69184e-08 -1.45603e-06)
(7.1672 2.08924e-08 -1.50981e-06)
(7.1672 1.8355e-08 -1.50981e-06)
(7.06829 -2.88839e-08 -1.56529e-06)
(7.06829 -3.14671e-08 -1.56529e-06)
(6.96724 1.43855e-08 -1.62232e-06)
(6.96724 1.17585e-08 -1.62232e-06)
(6.86457 -3.35153e-08 -1.68085e-06)
(6.86457 -3.61916e-08 -1.68085e-06)
(6.76076 1.76092e-08 -1.74109e-06)
(6.76076 1.4877e-08 -1.74109e-06)
(6.65622 -3.88948e-08 -1.80295e-06)
(6.65622 -4.16695e-08 -1.80294e-06)
(6.55131 1.5981e-08 -1.86637e-06)
(6.55131 1.31457e-08 -1.86637e-06)
(6.44634 -2.40986e-08 -1.9321e-06)
(6.44634 -2.69912e-08 -1.93209e-06)
(6.34158 -6.68448e-10 -1.99946e-06)
(6.34158 -3.60679e-09 -1.99946e-06)
(6.23724 -1.61106e-08 -2.06888e-06)
(6.23724 -1.91253e-08 -2.06888e-06)
(6.13351 -1.78436e-08 -2.13962e-06)
(6.13351 -2.09037e-08 -2.13962e-06)
(6.03055 1.5526e-08 -2.2131e-06)
(6.03055 1.23904e-08 -2.2131e-06)
(5.92849 -4.35126e-08 -2.28827e-06)
(5.92849 -4.66999e-08 -2.28827e-06)
(5.82741 8.75306e-09 -2.36476e-06)
(5.82741 5.48544e-09 -2.36476e-06)
(5.72742 -1.36222e-08 -2.444e-06)
(5.72742 -1.69538e-08 -2.444e-06)
(5.62858 -2.42847e-08 -2.52445e-06)