/*--------------------------------*- C++ -*----------------------------------*\
| =========                 |                                                 |
| \\      /  F ield         | OpenFOAM: The Open Source CFD Toolbox           |
|  \\    /   O peration     | Version:  2106                                  |
|   \\  /    A nd           | Website:  www.openfoam.com                      |
|    \\/     M anipulation  |                                                 |
\*---------------------------------------------------------------------------*/
FoamFile
{
    version     2.0;
    format      ascii;
    arch        "LSB;label=32;scalar=64";
    class       volTensorField;
    location    "13000";
    object      grad(U);
}
// * * * * * * * * * * * * * * * * * * * * * * * * * * * * * * * * * * * * * //

dimensions      [0 0 -1 0 0 0 0];

internalField   nonuniform List<tensor> 
2560
(
(0 -3.10662e-25 -6.49658e-32 12.6045 -4.03897e-28 3.5936e-13 0.0182468 0 1.93469e-16)
(-2.28578e-18 0 5.81864e-27 12.6045 2.87792e-15 1.66885e-13 0.0182468 5.56334e-19 1.11304e-16)
(0 5.12277e-31 2.14963e-26 12.6027 -5.09561e-15 6.40055e-14 0.055 -1.29273e-15 1.87994e-16)
(0 -2.56139e-31 0 12.6027 5.75753e-15 1.21566e-13 0.055 8.69655e-18 4.01088e-16)
(-2.3097e-18 -8.17668e-26 -1.00548e-31 12.601 2.01966e-28 3.33644e-14 0.0756393 0 2.09848e-16)
(0 3.02961e-30 -2.52467e-31 12.601 6.66595e-15 9.05174e-15 0.0756393 1.91767e-17 4.12759e-16)
(7.40681e-18 -2.98619e-30 1.06595e-31 12.5994 4.56526e-13 3.50967e-14 0.0767303 -6.45282e-15 2.14602e-16)
(0 2.98619e-30 0 12.5994 6.93805e-15 9.14307e-15 0.0767303 3.06262e-17 4.24714e-16)
(3.45204e-17 -3.40388e-27 7.35847e-31 12.5981 3.02952e-28 3.54331e-14 0.0778381 0 2.20152e-16)
(0 4.90565e-30 -4.90565e-31 12.5981 6.99739e-15 9.23361e-15 0.0778381 4.23284e-17 4.36957e-16)
(5.1848e-17 -2.81108e-30 3.60488e-31 12.5969 8.04552e-15 3.59513e-14 0.078963 -3.50207e-16 2.27385e-16)
(1.42578e-16 2.91228e-30 0 12.5969 7.05776e-15 9.32348e-15 0.078963 4.4362e-17 4.49492e-16)
(-2.3143e-17 -2.04316e-28 3.51701e-31 12.5958 -2.08404e-14 3.6634e-14 0.0801052 -6.57929e-17 2.35284e-16)
(9.25718e-17 3.82466e-30 -7.14905e-31 12.5958 7.09688e-15 9.413e-15 0.0801052 4.52637e-17 4.62327e-16)
(-2.85404e-17 4.68444e-30 -3.66212e-31 12.595 -1.00541e-14 3.73527e-14 0.0812648 -6.29954e-17 2.43321e-16)
(1.14162e-16 -1.86086e-30 0 12.595 7.15111e-15 9.50255e-15 0.0812648 4.63613e-17 4.75463e-16)
(9.91829e-17 -4.63011e-30 6.01027e-31 12.5943 -1.06818e-14 3.80694e-14 0.0824423 -7.59393e-17 2.5156e-16)
(-6.5167e-17 4.63039e-30 -4.63039e-31 12.5943 7.17878e-15 9.59283e-15 0.0824423 4.69519e-17 4.88906e-16)
(0 1.82561e-30 -2.28201e-31 12.5937 -1.17599e-14 3.87927e-14 0.0836379 -7.91601e-17 2.60056e-16)
(0 0 0 12.5937 7.20238e-15 9.68248e-15 0.0836379 4.80328e-17 5.02668e-16)
(-4.52057e-17 -2.67018e-30 2.97835e-31 12.5933 -1.1976e-14 3.95265e-14 0.0848517 -8.10762e-17 2.68817e-16)
(-6.33124e-17 4.49861e-30 -8.99723e-31 12.5933 7.2601e-15 9.77137e-15 0.0848517 4.91051e-17 5.16747e-16)
(1.75732e-16 -8.02502e-30 1.48966e-30 12.593 -1.20678e-14 4.02708e-14 0.0860842 -8.27346e-17 2.7785e-16)
(0 6.20779e-30 -8.86827e-31 12.593 7.25989e-15 9.86057e-15 0.0860842 4.94371e-17 5.31153e-16)
(6.15105e-17 -2.62235e-30 4.37058e-31 12.5929 -1.21652e-14 4.10261e-14 0.0873355 -8.48011e-17 2.87168e-16)
(0 4.37058e-30 -4.37058e-31 12.5929 7.27754e-15 9.94946e-15 0.0873355 5.07884e-17 5.45892e-16)
(-1.23235e-16 2.65704e-30 -1.03659e-30 12.5929 -1.22469e-14 4.17925e-14 0.088606 -8.63081e-17 2.96775e-16)
(2.50423e-16 6.03868e-32 4.30794e-31 12.5929 7.32238e-15 1.00381e-14 0.088606 5.15162e-17 5.60968e-16)
(0 6.79392e-30 -8.4924e-31 12.593 -1.23303e-14 4.25701e-14 0.0898959 -8.84765e-17 3.06682e-16)
(0 -6.79392e-30 8.4924e-31 12.593 7.39459e-15 1.01269e-14 0.0898959 5.3307e-17 5.7639e-16)
(-7.46311e-17 9.3738e-31 -1.91682e-31 12.5933 -1.24398e-14 4.33588e-14 0.0912054 -9.04227e-17 3.16892e-16)
(2.98525e-16 7.52677e-32 0 12.5933 7.47446e-15 1.02145e-14 0.0912054 5.41822e-17 5.92164e-16)
(-1.16118e-16 4.95042e-30 -8.25071e-31 12.5937 -1.24777e-14 4.41584e-14 0.092535 -9.16245e-17 3.27417e-16)
(-2.06983e-16 -5.03423e-30 8.25071e-31 12.5937 7.43575e-15 1.03027e-14 0.092535 5.42997e-17 6.08288e-16)
(0 7.31921e-30 -1.21987e-30 12.5942 -1.257e-14 4.49693e-14 0.0938848 -9.44471e-17 3.38264e-16)
(-3.48035e-16 -7.41018e-30 1.21987e-30 12.5942 7.50779e-15 1.03904e-14 0.0938848 5.68434e-17 6.2478e-16)
(3.38441e-16 -4.00795e-30 1.20238e-30 12.5948 -1.26843e-14 4.57912e-14 0.0952551 -9.60382e-17 3.4944e-16)
(-2.25627e-16 4.80954e-30 -4.00795e-31 12.5948 7.55141e-15 1.04765e-14 0.0952551 5.65502e-17 6.41633e-16)
(9.97498e-17 3.00546e-30 -5.61418e-31 12.5956 -1.27232e-14 4.66244e-14 0.0966463 -9.78102e-17 3.60959e-16)
(-3.98999e-16 -4.84902e-30 1.18515e-30 12.5956 7.49921e-15 1.05617e-14 0.0966463 5.77075e-17 6.58865e-16)
(0 5.45143e-30 -1.55755e-30 12.5964 -1.28654e-14 4.74693e-14 0.0980587 -1.01065e-16 3.7283e-16)
(0 -5.45143e-30 1.55755e-30 12.5964 7.60534e-15 1.06438e-14 0.0980587 5.9859e-17 6.76473e-16)
(-4.8331e-18 -1.35389e-30 5.18458e-31 12.5974 -1.30073e-14 4.83257e-14 0.0994924 -1.02918e-16 3.8506e-16)
(-1.08032e-16 4.60569e-30 -7.67614e-31 12.5974 7.61395e-15 1.07261e-14 0.0994924 5.9534e-17 6.94456e-16)
(9.34006e-17 -8.12816e-30 2.76653e-30 12.5984 -1.3013e-14 4.91937e-14 0.100948 -1.04116e-16 3.97661e-16)
(0 9.07935e-30 -2.64814e-30 12.5984 7.53969e-15 1.08108e-14 0.100948 6.04225e-17 7.12822e-16)
(0 4.47461e-30 -7.45768e-31 12.5995 -1.30009e-14 5.00736e-14 0.102425 -1.05736e-16 4.10646e-16)
(-5.05466e-16 -6.10916e-30 1.49154e-30 12.5995 7.63178e-15 1.08961e-14 0.102425 6.27752e-17 7.31578e-16)
(1.33266e-16 4.92524e-30 -1.18758e-30 12.6008 -1.31067e-14 5.09655e-14 0.103925 -1.08912e-16 4.2402e-16)
(0 -5.88064e-30 1.47016e-30 12.6008 7.66522e-15 1.09788e-14 0.103925 6.27439e-17 7.50738e-16)
(-2.80531e-16 1.06098e-29 -3.48715e-30 12.6021 -1.32608e-14 5.18693e-14 0.105448 -1.11411e-16 4.37799e-16)
(0 -8.69453e-30 2.89818e-30 12.6021 7.72756e-15 1.10592e-14 0.105448 6.56573e-17 7.70306e-16)
(4.42104e-16 -1.28777e-29 3.06289e-30 12.6035 -1.3408e-14 5.2785e-14 0.106993 -1.14602e-16 4.51987e-16)
(1.17894e-15 1.03384e-29 -2.14248e-30 12.6035 7.99311e-15 1.1139e-14 0.106993 6.90903e-17 7.9028e-16)
(0 -5.63139e-30 2.11177e-30 12.6049 -1.34117e-14 5.37125e-14 0.108562 -1.1474e-16 4.66599e-16)
(4.20161e-16 7.22081e-30 -2.11177e-30 12.6049 8.05324e-15 1.12186e-14 0.108562 6.86163e-17 8.10672e-16)
(1.61886e-16 3.19792e-30 -1.05497e-30 12.6064 -1.32909e-14 5.46531e-14 0.110154 -1.15847e-16 4.81665e-16)
(0 -2.77534e-30 6.93835e-31 12.6064 7.90108e-15 1.13017e-14 0.110154 6.84553e-17 8.31471e-16)
(-3.38611e-16 1.93455e-30 -1.37649e-30 12.608 -1.33721e-14 5.56067e-14 0.11177 -1.1954e-16 4.97172e-16)
(-1.35445e-15 -4.07487e-31 6.8389e-31 12.608 7.80412e-15 1.1387e-14 0.11177 6.89073e-17 8.52701e-16)
(-1.76834e-16 6.36264e-30 -1.70854e-30 12.6096 -1.34589e-14 5.65721e-14 0.11341 -1.20802e-16 5.13139e-16)
(-7.07335e-16 -4.25936e-30 6.74088e-31 12.6096 7.72627e-15 1.1465e-14 0.11341 6.90603e-17 8.74393e-16)
(-3.74039e-16 7.97312e-30 -1.99328e-30 12.6113 -1.35373e-14 5.75502e-14 0.115075 -1.24472e-16 5.29586e-16)
(-3.63849e-16 -8.19807e-30 1.99328e-30 12.6113 7.76519e-15 1.15343e-14 0.115075 7.1636e-17 8.96535e-16)
(0 -7.85885e-30 1.96471e-30 12.613 -1.38434e-14 5.85406e-14 0.116764 -1.30008e-16 5.46506e-16)
(7.6889e-16 8.09401e-30 -1.96471e-30 12.613 7.96332e-15 1.16069e-14 0.116764 7.47514e-17 9.19091e-16)
(-2.00087e-16 9.77703e-31 -4.05449e-31 12.6148 -1.39365e-14 5.95434e-14 0.118478 -1.29866e-16 5.63933e-16)
(0 1.29104e-30 -1.29104e-30 12.6148 7.93754e-15 1.16845e-14 0.118478 7.32503e-17 9.42094e-16)
(-5.66252e-16 7.34348e-30 -2.33028e-30 12.6166 -1.37034e-14 6.05602e-14 0.120218 -1.29375e-16 5.81892e-16)
(3.58186e-16 -6.36266e-30 1.9088e-30 12.6166 7.59048e-15 1.17613e-14 0.120218 7.03274e-17 9.65554e-16)
(-5.69215e-16 7.25455e-30 -2.3195e-30 12.6183 -1.37874e-14 6.15903e-14 0.121983 -1.35296e-16 6.00368e-16)
(-8.64653e-16 -4.03477e-30 1.25429e-30 12.6183 7.56819e-15 1.18421e-14 0.121983 7.49652e-17 9.89459e-16)
(5.72371e-16 -5.93113e-30 2.30966e-30 12.6201 -1.40795e-14 6.26323e-14 0.123774 -1.38893e-16 6.19376e-16)
(-3.47992e-16 4.94526e-30 -1.85447e-30 12.6201 7.93262e-15 1.19167e-14 0.123774 7.95356e-17 1.01388e-15)
(2.32715e-16 -8.30034e-30 2.91007e-30 12.6219 -1.42143e-14 6.36872e-14 0.125592 -1.41941e-16 6.38945e-16)
(0 7.31157e-30 -2.43719e-30 12.6219 7.98174e-15 1.19893e-14 0.125592 7.81385e-17 1.03873e-15)
(-2.41174e-16 5.79651e-30 -2.89341e-30 12.6236 -1.42201e-14 6.47549e-14 0.127436 -1.4308e-16 6.59076e-16)
(0 -2.40226e-30 0 12.6236 7.78485e-15 1.20654e-14 0.127436 7.78905e-17 1.06408e-15)
(0 4.73566e-30 -2.36783e-30 12.6253 -1.40862e-14 6.58353e-14 0.129306 -1.43357e-16 6.7979e-16)
(0 -5.91957e-30 2.36783e-30 12.6253 7.84402e-15 1.2134e-14 0.129306 8.16395e-17 1.08993e-15)
(-2.58466e-16 3.33195e-30 -5.29521e-31 12.627 -1.40829e-14 6.69287e-14 0.131203 -1.47202e-16 7.01104e-16)
(1.03386e-15 3.33563e-31 -1.16695e-30 12.627 8.14034e-15 1.21958e-14 0.131203 8.63296e-17 1.11627e-15)
(0 -6.90133e-30 3.45066e-30 12.6286 -1.41054e-14 6.80339e-14 0.133128 -1.4803e-16 7.23002e-16)
(1.06921e-15 7.25223e-30 -3.45066e-30 12.6286 8.0144e-15 1.22628e-14 0.133128 8.1376e-17 1.14305e-15)
(2.7627e-16 5.79801e-30 8.74723e-29 12.6301 -1.41074e-14 4.41051e-14 0.135079 -1.51556e-16 2.34136e-16)
(-1.10508e-15 -8.30042e-30 2.26747e-30 12.6301 7.7091e-15 1.23353e-14 0.135079 8.23286e-17 1.17033e-15)
(5.99913e-16 -5.4768e-30 2.89623e-30 12.6316 -1.44774e-14 1.74575e-14 0.137058 -1.60396e-16 1.41282e-16)
(-3.14544e-16 4.46994e-30 -2.23497e-30 12.6316 7.8897e-15 1.23972e-14 0.137058 8.76786e-17 1.19814e-15)
(-2.946e-16 -1.19284e-30 1.53792e-30 12.6329 -1.48641e-14 1.29088e-14 0.139065 -1.6451e-16 1.40855e-16)
(0 4.40588e-30 -2.20294e-30 12.6329 8.19499e-15 1.24512e-14 0.139065 9.14615e-17 1.22643e-15)
(-1.62514e-18 1.15741e-30 -4.16907e-31 12.6341 -1.48332e-14 1.26791e-14 0.1411 -1.64404e-16 1.4029e-16)
(1.21587e-15 4.03901e-31 0 12.6341 8.2945e-15 1.25021e-14 0.1411 9.24694e-17 1.25522e-15)
(0 -2.14024e-30 2.14024e-30 12.6351 -1.47133e-14 1.24525e-14 0.143162 -1.66612e-16 1.39846e-16)
(1.25389e-15 3.63164e-30 -2.14024e-30 12.6351 8.13539e-15 1.25527e-14 0.143162 9.05353e-17 1.2845e-15)
(-3.23116e-16 1.02118e-30 -6.76191e-31 12.6359 -1.4699e-14 1.22249e-14 0.145252 -1.68892e-16 1.39167e-16)
(0 2.10957e-30 -1.05478e-30 12.6359 7.9725e-15 1.26048e-14 0.145252 9.14335e-17 1.31425e-15)
(-3.32901e-16 1.02424e-30 -6.79871e-31 12.6365 -1.48719e-14 1.19884e-14 0.14737 -1.75525e-16 1.38426e-16)
(0 1.03967e-30 0 12.6365 8.05046e-15 1.26573e-14 0.14737 9.50056e-17 1.34449e-15)
(5.76892e-16 -3.0743e-30 3.0743e-30 12.6369 -1.50206e-14 1.17735e-14 0.149515 -1.77357e-16 1.38159e-16)
(-5.76892e-16 4.09906e-30 -2.04953e-30 12.6369 8.07441e-15 1.27041e-14 0.149515 9.46786e-17 1.37526e-15)
(-9.21525e-16 2.37619e-32 -1.69714e-30 12.637 -1.43941e-14 1.15638e-14 0.151689 -1.65626e-16 1.37446e-16)
(0 4.04031e-30 -1.01008e-30 12.637 7.40537e-15 1.27424e-14 0.151689 8.17268e-17 1.40651e-15)
(-5.60474e-16 8.96041e-30 -4.97801e-30 12.6367 -1.39531e-14 1.1318e-14 0.153889 -1.7181e-16 1.36221e-16)
(-1.45249e-15 -8.46894e-30 3.9824e-30 12.6367 6.97548e-15 1.27802e-14 0.153889 8.69816e-17 1.43827e-15)
(-3.73491e-16 -4.84866e-30 2.24976e-30 12.6361 -1.43909e-14 1.10756e-14 0.156117 -1.81298e-16 1.35481e-16)
(1.49396e-15 7.3865e-30 -3.92533e-30 12.6361 7.28422e-15 1.28209e-14 0.156117 9.17499e-17 1.47051e-15)
(0 9.67267e-30 -4.83633e-30 12.6351 -1.46837e-14 1.08543e-14 0.158372 -1.84182e-16 1.34664e-16)
(0 -9.67267e-30 4.83633e-30 12.6351 7.21519e-15 1.28706e-14 0.158372 8.77992e-17 1.50323e-15)
(-3.94684e-16 4.85995e-30 -1.65463e-30 12.6337 -1.4913e-14 1.06227e-14 0.160653 -1.92443e-16 1.3356e-16)
(1.57873e-15 -3.266e-30 9.53403e-31 12.6337 7.42202e-15 1.29129e-14 0.160653 9.96981e-17 1.53659e-15)
(8.11022e-16 -5.86001e-30 2.34906e-30 12.6317 -1.51382e-14 1.03892e-14 0.162961 -1.95388e-16 1.32582e-16)
(1.62204e-15 4.32362e-30 -9.39738e-31 12.6317 7.8513e-15 1.29464e-14 0.162961 1.01448e-16 1.57037e-15)
(5.21443e-16 -3.70508e-30 1.85254e-30 12.6291 -1.51277e-14 1.01695e-14 0.165293 -1.97805e-16 1.31722e-16)
(0 4.63135e-30 -1.85254e-30 12.6291 7.75241e-15 1.29687e-14 0.165293 1.00029e-16 1.60475e-15)
(-4.27637e-16 -7.66132e-31 -7.11425e-31 12.626 -1.49554e-14 9.94234e-15 0.16765 -1.96535e-16 1.30431e-16)
(0 4.56497e-30 -9.12994e-31 12.626 7.83081e-15 1.29695e-14 0.16765 1.06503e-16 1.63958e-15)
(-8.7788e-16 7.52776e-30 -4.12934e-30 12.6221 -1.47743e-14 9.69099e-15 0.170031 -1.98718e-16 1.28808e-16)
(1.75576e-15 -6.57983e-30 3.59963e-30 12.6221 7.8482e-15 1.29766e-14 0.170031 1.03428e-16 1.67479e-15)
(-4.50405e-16 1.95537e-30 -7.18114e-31 12.6174 -1.47993e-14 9.43604e-15 0.172434 -2.02977e-16 1.27282e-16)
(0 2.66103e-30 -8.8701e-31 12.6174 7.62351e-15 1.29885e-14 0.172434 1.0348e-16 1.71046e-15)
(-4.62033e-16 -6.7529e-31 -7.21356e-31 12.6119 -1.4734e-14 9.18923e-15 0.174858 -2.02729e-16 1.25736e-16)
(1.84813e-15 5.02782e-30 -1.74859e-30 12.6119 7.64112e-15 1.29852e-14 0.174858 1.06946e-16 1.74662e-15)
(-4.73827e-16 5.38579e-30 -2.44813e-30 12.6055 -1.48131e-14 8.93158e-15 0.177303 -2.11148e-16 1.2376e-16)
(0 -2.5853e-30 0 12.6055 7.38947e-15 1.29638e-14 0.177303 9.94303e-17 1.78322e-15)
(-1.44975e-15 8.10675e-30 -3.15429e-30 12.598 -1.53254e-14 8.67072e-15 0.179766 -2.23292e-16 1.21972e-16)
(-1.46498e-15 -6.63673e-30 1.69883e-30 12.598 7.6076e-15 1.29384e-14 0.179766 1.16306e-16 1.8201e-15)
(-9.95836e-16 -6.20084e-30 2.12867e-31 12.5893 -1.5556e-14 8.41942e-15 0.182246 -2.24013e-16 1.20107e-16)
(3.51202e-15 8.12334e-30 -1.67448e-30 12.5893 8.03569e-15 1.29047e-14 0.182246 1.14742e-16 1.85745e-15)
(-1.53065e-15 1.31769e-29 -5.50276e-30 12.5794 -1.53178e-14 8.14329e-15 0.184741 -2.22834e-16 1.17431e-16)
(-2.04087e-15 -1.06405e-29 3.30096e-30 12.5794 7.61873e-15 1.28548e-14 0.184741 1.07461e-16 1.89509e-15)
(-5.22689e-16 -7.03706e-30 8.89862e-31 12.5681 -1.49944e-14 7.84596e-15 0.187248 -2.20933e-16 1.14762e-16)
(2.09075e-15 1.05178e-29 -3.25365e-30 12.5681 7.27608e-15 1.28028e-14 0.187248 1.07888e-16 1.93296e-15)
(5.35332e-16 -5.91239e-30 2.34343e-30 12.5553 -1.48476e-14 7.55167e-15 0.189765 -2.24923e-16 1.1197e-16)
(0 4.81053e-30 -1.60351e-30 12.5553 6.81368e-15 1.27313e-14 0.189765 9.66237e-17 1.97125e-15)
(0 -7.90263e-30 3.16105e-30 12.5408 -1.47644e-14 7.2588e-15 0.192289 -2.2485e-16 1.09137e-16)
(2.1926e-15 8.7042e-30 -3.16105e-30 12.5408 6.52053e-15 1.2662e-14 0.192289 1.02053e-16 2.0096e-15)
(8.77005e-16 -4.67362e-30 1.55787e-30 12.5246 -1.43711e-14 6.95918e-15 0.194818 -2.19267e-16 1.05923e-16)
(1.36756e-15 5.49607e-30 -1.55787e-30 12.5246 6.53983e-15 1.25991e-14 0.194818 1.00055e-16 2.04823e-15)
(-8.64435e-16 6.14218e-30 -3.07109e-30 12.5064 -1.38024e-14 6.62272e-15 0.197348 -2.13477e-16 1.01708e-16)
(2.29723e-15 -2.22356e-30 0 12.5064 6.12448e-15 1.25195e-14 0.197348 9.19245e-17 2.08704e-15)
(0 9.08122e-30 -3.02707e-30 12.4861 -1.37978e-14 6.25143e-15 0.199876 -2.25542e-16 9.71282e-17)
(0 -9.08122e-30 3.02707e-30 12.4861 5.46403e-15 1.24207e-14 0.199876 8.18229e-17 2.12616e-15)
(-1.20234e-15 2.24899e-30 -1.50781e-30 12.4636 -1.45529e-14 5.87151e-15 0.202397 -2.44279e-16 9.23363e-17)
(0 0 0 12.4636 5.71532e-15 1.23165e-14 0.202397 1.02786e-16 2.16533e-15)
(8.27797e-16 -8.82277e-30 2.94092e-30 12.4387 -1.51104e-14 5.50608e-15 0.204908 -2.50535e-16 8.79208e-17)
(1.63167e-15 9.70562e-30 -2.94092e-30 12.4387 7.23197e-15 1.2181e-14 0.204908 1.34241e-16 2.2048e-15)
(0 4.34816e-30 -2.89877e-30 12.4111 -1.53144e-14 5.15602e-15 0.207403 -2.58261e-16 8.33277e-17)
(2.51495e-15 -1.98509e-30 0 12.4111 7.89214e-15 1.20028e-14 0.207403 1.27887e-16 2.24412e-15)
(-6.42786e-16 1.14054e-30 -7.61076e-31 12.3807 -1.52367e-14 4.77684e-15 0.209879 -2.55235e-16 7.7624e-17)
(0 2.85723e-30 0 12.3807 7.09106e-15 1.18291e-14 0.209879 1.10979e-16 2.28323e-15)
(6.57009e-16 4.48468e-30 7.63428e-31 12.3474 -1.46898e-14 4.34254e-15 0.21233 -2.46991e-16 7.08107e-17)
(0 -2.81628e-30 0 12.3474 6.75146e-15 1.16376e-14 0.21233 1.19937e-16 2.32221e-15)
(7.8135e-16 -4.16387e-30 1.38796e-30 12.3108 -1.43097e-14 3.89054e-15 0.214751 -2.49432e-16 6.41039e-17)
(0 4.16387e-30 0 12.3108 6.79563e-15 1.14113e-14 0.214751 1.15773e-16 2.36087e-15)
(7.70151e-16 -4.10419e-30 1.36806e-30 12.2709 -1.44866e-14 3.44793e-15 0.217135 -2.60497e-16 5.71943e-17)
(0 4.10419e-30 -1.36806e-30 12.2709 6.50939e-15 1.11854e-14 0.217135 1.13304e-16 2.39893e-15)
(1.16787e-16 -1.71693e-30 -1.89837e-31 12.2275 -1.4534e-14 3.02782e-15 0.219478 -2.58444e-16 5.0872e-17)
(0 4.04536e-30 0 12.2275 6.22916e-15 1.09482e-14 0.219478 1.09086e-16 2.43667e-15)
(-7.1563e-16 3.82898e-30 -2.10019e-30 12.1802 -1.40797e-14 2.5454e-15 0.221773 -2.51549e-16 4.12668e-17)
(0 -2.65826e-30 1.32913e-30 12.1802 5.74929e-15 1.06536e-14 0.221773 9.91126e-17 2.47417e-15)
(7.30707e-16 -2.48498e-30 7.72572e-31 12.1291 -1.39791e-14 2.01068e-15 0.224014 -2.6229e-16 3.25672e-17)
(-3.66034e-15 -1.09104e-30 0 12.1291 5.57282e-15 1.03669e-14 0.224014 1.05748e-16 2.51045e-15)
(0 -3.8739e-30 1.2913e-30 12.0738 -1.4588e-14 1.53225e-15 0.226194 -2.81787e-16 2.4507e-17)
(-2.9838e-15 2.77765e-30 0 12.0738 6.45625e-15 1.00385e-14 0.226194 1.35196e-16 2.54661e-15)
(-7.61351e-16 5.00425e-30 -3.32047e-30 12.0143 -1.4901e-14 1.04344e-15 0.228306 -2.81902e-16 1.48956e-17)
(6.09081e-15 -2.98451e-31 0 12.0143 7.12456e-15 9.63801e-15 0.228306 1.34311e-16 2.58171e-15)
(7.7691e-16 5.07818e-30 -3.12523e-31 11.9502 -1.43023e-14 4.76427e-16 0.230345 -2.66896e-16 4.57118e-18)
(3.10764e-15 -7.60962e-30 2.5091e-30 11.9502 6.10365e-15 9.2911e-15 0.230345 9.969e-17 2.61537e-15)
(0 -1.23657e-30 1.35755e-31 11.8816 -1.36063e-14 -7.96965e-29 0.232304 -2.62864e-16 -7.88861e-31)
(0 3.70971e-30 0 11.8816 5.49449e-15 8.95002e-15 0.232304 1.14354e-16 2.64816e-15)
(-8.08481e-16 -1.09842e-29 -5.34894e-31 11.8083 -1.37722e-14 -5.07415e-16 0.234175 -2.81315e-16 5.01112e-18)
(3.23393e-15 1.3411e-29 -1.21885e-30 11.8083 5.3224e-15 8.54642e-15 0.234175 9.5763e-17 2.67979e-15)
(-8.24484e-16 6.01462e-30 -1.97273e-30 11.7302 -1.43395e-14 -1.06495e-15 0.235953 -2.93465e-16 1.57835e-17)
(-4.65057e-15 -4.85615e-30 0 11.7302 4.66316e-15 8.12898e-15 0.235953 9.10911e-17 2.70982e-15)
(8.40623e-16 -7.13813e-30 7.68225e-31 11.6471 -1.41798e-14 -1.57333e-15 0.237632 -2.83016e-16 2.69778e-17)
(3.36249e-15 7.19427e-30 0 11.6471 4.71152e-15 7.68802e-15 0.237632 1.00549e-16 2.73865e-15)
(-8.56894e-16 9.39636e-30 -3.09936e-30 11.559 -1.33347e-14 -2.08348e-15 0.239206 -2.66943e-16 3.70672e-17)
(3.42758e-15 -6.84807e-30 2.33437e-30 11.559 4.1367e-15 7.25099e-15 0.239206 6.98749e-17 2.7658e-15)
(-8.73289e-16 8.42848e-32 -7.6116e-31 11.4659 -1.23789e-14 -2.64941e-15 0.240668 -2.51016e-16 4.89654e-17)
(0 1.15046e-30 0 11.4659 3.11512e-15 6.87401e-15 0.240668 6.04291e-17 2.79114e-15)
(-8.89802e-16 1.23958e-30 -7.56765e-31 11.3678 -1.20745e-14 -3.20835e-15 0.242015 -2.61746e-16 6.201e-17)
(0 2.26794e-30 0 11.3678 2.89996e-15 6.45575e-15 0.242015 6.27195e-17 2.81579e-15)
(-9.06425e-16 -4.34576e-30 -7.52134e-31 11.2646 -1.26832e-14 -3.78075e-15 0.243242 -2.84781e-16 7.43051e-17)
(3.6257e-15 6.98142e-30 -1.11772e-30 11.2646 3.25567e-15 6.02758e-15 0.243242 7.76336e-17 2.83853e-15)
(9.2315e-16 -4.55158e-30 7.46796e-31 11.1565 -1.35426e-14 -4.31523e-15 0.244344 -3.07244e-16 8.86629e-17)
(0 3.30509e-30 0 11.1565 4.50382e-15 5.69153e-15 0.244344 1.19502e-16 2.85939e-15)
(1.22262e-15 -4.34363e-30 0 11.0434 -1.40458e-14 -4.73758e-15 0.245319 -3.15594e-16 1.0001e-16)
(0 4.34363e-30 0 11.0434 5.57795e-15 5.23245e-15 0.245319 1.2788e-16 2.88024e-15)
(-9.56875e-16 1.90659e-31 1.40443e-30 10.9256 -1.39361e-14 -5.63365e-15 0.246163 -3.11275e-16 1.10123e-16)
(0 4.28137e-30 -2.14069e-30 10.9256 5.87116e-15 4.60909e-15 0.246163 1.36288e-16 2.89899e-15)
(1.18783e-15 -1.477e-29 4.22001e-30 10.8031 -1.29108e-14 -7.90908e-15 0.246874 -2.77708e-16 1.43542e-16)
(7.79086e-15 1.98447e-29 -4.22001e-30 10.8031 5.92947e-15 4.0029e-15 0.246874 1.34307e-16 2.91544e-15)
(-1.1708e-15 0 0 10.6761 -1.12368e-14 -9.77035e-15 0.247451 -2.4232e-16 2.1795e-16)
(3.96363e-15 4.66092e-30 0 10.6761 4.85991e-15 3.54526e-15 0.247451 9.03983e-17 2.92846e-15)
(-2.16204e-15 1.35894e-29 -4.7986e-30 10.5448 -1.05689e-14 -1.03872e-14 0.247893 -2.54239e-16 2.34553e-16)
(-4.03207e-15 -1.28455e-29 2.04995e-30 10.5448 3.79649e-15 3.20513e-15 0.247893 8.79237e-17 2.93938e-15)
(1.12307e-16 7.35801e-30 1.33305e-30 10.4094 -1.05942e-14 -1.09668e-14 0.248201 -2.50634e-16 2.53524e-16)
(-4.1007e-15 -5.6472e-30 0 10.4094 3.42232e-15 2.73212e-15 0.248201 7.50845e-17 2.94961e-15)
(0 2.98742e-30 0 10.2702 -1.00642e-14 -1.14587e-14 0.248374 -2.35875e-16 2.69243e-16)
(0 0 0 10.2702 3.50778e-15 2.14666e-15 0.248374 9.46614e-17 2.95757e-15)
(0 3.92614e-30 0 10.1274 -9.42943e-15 -1.18701e-14 0.248416 -2.26611e-16 2.84911e-16)
(4.23841e-15 -2.83816e-31 0 10.1274 3.0481e-15 1.6429e-15 0.248416 5.45709e-17 2.96222e-15)
(-1.10169e-15 1.41639e-29 -5.15147e-30 9.98131 -8.98733e-15 -1.22941e-14 0.248327 -2.20622e-16 2.97454e-16)
(0 -1.35445e-29 3.86986e-30 9.98131 1.9462e-15 1.21149e-15 0.248327 4.21972e-17 2.96482e-15)
(0 -2.09792e-29 3.8144e-30 9.83222 -9.35211e-15 -1.27237e-14 0.248111 -2.51801e-16 3.14516e-16)
(8.7529e-15 2.4387e-29 -3.8144e-30 9.83222 2.6568e-15 7.9758e-16 0.248111 9.23091e-17 2.96517e-15)
(1.05827e-15 -5.63959e-30 1.87986e-30 9.68045 -1.00108e-14 -1.29623e-14 0.24777 -2.6107e-16 3.28017e-16)
(8.89101e-15 9.19373e-30 0 9.68045 1.50879e-15 4.2318e-16 0.24777 1.93221e-17 2.96337e-15)
(-2.25726e-15 8.04738e-31 -1.23227e-30 9.52632 -9.67515e-15 -1.32037e-14 0.24731 -2.41608e-16 3.36036e-16)
(0 1.85292e-30 0 9.52632 9.86721e-16 5.85288e-17 0.24731 3.20498e-17 2.95992e-15)
(-1.14587e-15 -4.95471e-31 -6.02828e-31 9.37014 -9.54956e-15 -1.34377e-14 0.246734 -2.62047e-16 3.50265e-16)
(9.16698e-15 7.20381e-30 0 9.37014 2.39108e-15 -3.07634e-16 0.246734 9.44723e-17 2.95458e-15)
(1.16309e-15 -8.53256e-30 5.90226e-31 9.21224 -1.04026e-14 -1.36023e-14 0.246047 -2.9465e-16 3.58308e-16)
(0 7.20075e-30 0 9.21224 2.92734e-15 -7.34698e-16 0.246047 6.18829e-17 2.94774e-15)
(-1.18027e-15 3.11711e-30 -5.76922e-31 9.05296 -1.04178e-14 -1.38299e-14 0.245254 -2.70554e-16 3.69394e-16)
(0 3.54877e-30 0 9.05296 2.25875e-15 -1.14639e-15 0.245254 6.06917e-17 2.9373e-15)
(-1.19741e-15 8.35034e-30 -5.63117e-31 8.89261 -9.11324e-15 -1.40257e-14 0.244361 -2.3093e-16 3.81244e-16)
(4.78965e-15 -5.11331e-30 0 8.89261 1.72526e-15 -1.52034e-15 0.244361 3.41081e-17 2.926e-15)
(-1.21451e-15 4.80645e-30 -5.49363e-31 8.73151 -8.26277e-15 -1.41172e-14 0.243374 -2.30627e-16 3.91072e-16)
(4.85803e-15 0 0 8.73151 3.44141e-29 -1.89166e-15 0.243374 0 2.91234e-15)
(-2.46309e-15 2.72962e-30 -1.07186e-30 8.56998 -7.9179e-15 -1.40942e-14 0.242298 -2.18008e-16 3.97562e-16)
(0 0 0 8.56998 3.05333e-16 -2.16361e-15 0.242298 1.87632e-17 2.89622e-15)
(-1.24852e-15 8.06867e-30 -5.22844e-31 8.4083 -7.46453e-15 -1.40854e-14 0.24114 -2.11126e-16 4.01214e-16)
(0 -4.74385e-30 0 8.4083 -3.3921e-29 -2.3829e-15 0.24114 0 2.87854e-15)
(1.85866e-15 -3.30164e-30 0 8.24677 -7.76511e-15 -1.40929e-14 0.239905 -2.42056e-16 4.08698e-16)
(-6.92034e-15 1.34712e-30 0 8.24677 -7.6736e-17 -2.63107e-15 0.239905 1.11914e-17 2.85967e-15)
(1.28225e-15 -9.50998e-30 4.95584e-31 8.08567 -8.05716e-15 -1.40101e-14 0.2386 -2.34719e-16 4.13411e-16)
(5.12899e-15 -2.8026e-45 0 8.08567 0 -2.89252e-15 0.2386 0 2.83933e-15)
(1.299e-15 -9.39976e-30 4.82397e-31 7.92524 -7.60673e-15 -1.39499e-14 0.237231 -2.21905e-16 4.15734e-16)
(-5.19598e-15 6.03554e-30 0 7.92524 -1.63205e-16 -3.1273e-15 0.237231 1.20185e-17 2.81762e-15)
(-1.31565e-15 4.54945e-30 -4.68575e-31 7.76573 -6.90393e-15 -1.38111e-14 0.235803 -1.98474e-16 4.21877e-16)
(3.48274e-15 4.16922e-31 -1.58085e-30 7.76573 1.17116e-16 -3.41174e-15 0.235803 4.82912e-18 2.79513e-15)
(0 4.67459e-30 0 7.60736 -5.79404e-15 -1.36088e-14 0.234322 -1.59316e-16 4.19396e-16)
(0 9.45876e-45 0 7.60736 -3.56508e-29 -3.72272e-15 0.234322 -7.88861e-31 2.7705e-15)
(-1.72923e-15 7.67931e-30 -1.53586e-30 7.45035 -5.18933e-15 -1.34535e-14 0.232794 -1.66097e-16 4.21644e-16)
(5.39477e-15 -1.06228e-30 0 7.45035 -1.11417e-15 -3.93931e-15 0.232794 3.45571e-17 2.74351e-15)
(1.36506e-15 -7.45954e-30 1.94439e-30 7.29487 -5.003e-15 -1.32114e-14 0.231224 -1.52044e-16 4.21872e-16)
(0 6.0554e-30 -1.51385e-30 7.29487 -2.09083e-15 -3.96898e-15 0.231224 3.53055e-17 2.71363e-15)
(0 2.9843e-30 -1.49215e-30 7.14112 -4.20858e-15 -1.30881e-14 0.229618 -1.19322e-16 4.18488e-16)
(-5.52533e-15 -3.48667e-30 -6.24285e-32 7.14112 -2.49994e-15 -4.00937e-15 0.229618 9.81465e-17 2.57238e-15)
(-1.65593e-15 4.4123e-30 -1.47077e-30 6.98924 -3.36441e-15 -1.25628e-14 0.227981 -1.00825e-16 4.26213e-16)
(0 1.47077e-30 0 6.98924 -1.84816e-15 -4.15073e-15 0.227981 6.29339e-17 2.27929e-15)
(0 5.79874e-30 0 6.83937 -3.20573e-15 -6.44143e-15 0.226317 -1.122e-16 3.96102e-16)
(0 -2.89937e-30 0 6.83937 -2.10151e-15 -4.29198e-15 0.226317 5.80366e-17 2.02187e-15)
(1.42948e-15 1.1441e-29 4.49174e-31 6.69164 -3.35557e-15 -9.20959e-16 0.224631 -1.1395e-16 2.91266e-17)
(0 -1.28602e-29 0 6.69164 -2.41104e-15 -4.4695e-15 0.224631 8.17287e-17 2.13922e-15)
(1.4453e-15 4.21229e-30 4.49392e-31 6.54615 -3.49435e-15 -1.02386e-15 0.222927 -1.25044e-16 3.29661e-17)
(0 -4.22528e-30 -1.40843e-30 6.54615 -1.97533e-15 -4.60286e-15 0.222927 8.07486e-17 2.26104e-15)
(-2.92202e-15 5.62712e-30 -8.98849e-31 6.40301 -3.51573e-15 -1.07241e-15 0.22121 -1.18782e-16 3.70662e-17)
(5.84404e-15 -7.25609e-31 8.0338e-32 6.40301 -2.31182e-15 -4.71985e-15 0.22121 5.41155e-17 2.38393e-15)
(-1.4766e-15 1.42515e-30 -4.49942e-31 6.26228 -3.56735e-15 -1.17651e-15 0.219482 -1.32367e-16 3.73242e-17)
(0 2.73669e-30 -1.36834e-30 6.26228 -2.58228e-15 -4.44858e-15 0.219482 1.06625e-16 2.49381e-15)
(3.03708e-15 4.0462e-30 0 6.12404 -3.55153e-15 -1.31535e-15 0.217748 -1.21123e-16 4.55311e-17)
(-3.03708e-15 -4.0462e-30 -1.34873e-30 6.12404 -1.53212e-15 1.71806e-15 0.217748 7.48722e-17 2.46458e-15)
(0 6.64701e-30 -1.3294e-30 5.98834 -2.35822e-15 -1.36339e-15 0.216011 -4.91775e-17 4.84025e-17)
(0 -1.90319e-29 0 5.98834 -1.8899e-15 7.31664e-15 0.216011 3.42242e-17 2.2945e-15)
(-2.95064e-15 9.17244e-30 -1.31035e-30 5.85523 -1.24691e-15 -1.4958e-15 0.214273 -4.2408e-17 5.03701e-17)
(0 -5.24139e-30 0 5.85523 -2.86575e-15 6.97047e-15 0.214273 1.42142e-16 1.98531e-15)
(0 7.74941e-30 0 5.72472 -1.36961e-15 -1.54808e-15 0.212538 -5.98332e-17 5.96219e-17)
(9.39372e-15 -1.04925e-30 1.12261e-30 5.72472 -1.54895e-15 6.61359e-15 0.212538 6.79243e-17 1.67229e-15)
(-3.10549e-15 2.86844e-30 -7.72535e-31 5.59686 -2.05993e-15 -1.57529e-15 0.210807 -9.62472e-17 5.5772e-17)
(6.21099e-15 2.0975e-30 7.63591e-31 5.59686 -1.45965e-15 6.32932e-15 0.210807 4.74144e-17 1.37692e-15)
(2.9804e-15 -5.19315e-30 3.69985e-31 5.47165 -3.23004e-15 -1.64855e-15 0.209085 -1.52035e-16 6.34414e-17)
(0 5.01924e-30 0 5.47165 -1.79872e-15 5.97362e-15 0.209085 6.31098e-17 1.07432e-15)
(0 3.71048e-30 0 5.34909 -3.26352e-15 -1.6554e-15 0.207371 -1.01692e-16 6.30684e-17)
(-9.11452e-15 -2.10905e-30 -1.15837e-30 5.34909 -2.46331e-15 5.4111e-15 0.207371 7.50133e-17 7.92129e-16)
(-4.34215e-15 -8.30391e-30 -3.41124e-31 5.22919 -1.86623e-15 -1.67533e-15 0.205669 -4.53147e-17 6.58376e-17)
(9.13311e-15 1.42307e-29 1.34019e-30 5.22919 -2.07874e-15 5.00532e-15 0.205669 2.02553e-16 5.2424e-16)
(2.70582e-15 6.00813e-30 0 5.11193 -1.72982e-15 -1.77275e-15 0.203981 -9.36594e-17 6.65013e-17)
(-2.70582e-15 -3.60488e-30 0 5.11193 -1.13392e-15 4.66295e-15 0.203981 4.03118e-16 2.64484e-16)
(0 -9.09106e-30 1.1844e-30 4.9973 -1.46538e-15 -1.81154e-15 0.202307 -2.97853e-17 7.56302e-17)
(2.66704e-15 8.29082e-30 0 4.9973 -2.89491e-15 4.17439e-15 0.202307 5.9006e-16 1.58905e-16)
(-1.64015e-15 3.9937e-44 -2.77774e-31 4.88528 1.44068e-28 -1.85969e-15 0.200649 -1.57772e-30 2.22011e-16)
(0 -2.33486e-30 0 4.88528 -4.36291e-15 3.79197e-15 0.200649 8.52791e-16 1.53843e-16)
(-7.17456e-16 -1.78146e-29 6.88552e-31 4.77584 9.25933e-16 -1.7988e-15 0.199008 -2.10685e-17 4.577e-16)
(1.32344e-14 2.38062e-29 3.32932e-30 4.77584 -4.2503e-15 3.56429e-15 0.199008 1.08604e-15 1.44368e-16)
(0 6.80522e-30 0 4.66896 2.25254e-15 -1.6788e-15 0.197386 -5.66757e-17 6.7066e-16)
(0 -4.53681e-30 -1.1342e-30 4.66896 -6.01107e-15 3.5125e-15 0.197386 1.35062e-15 1.5392e-16)
(-2.51739e-15 6.70768e-30 0 4.5646 2.68195e-15 -1.92486e-15 0.195783 -1.35137e-16 8.98561e-16)
(0 -2.23589e-30 -1.11795e-30 4.5646 -6.49264e-15 3.43866e-15 0.195783 1.70849e-15 1.42191e-16)
(-5.08816e-15 -1.33879e-29 -2.92932e-31 4.46273 1.86261e-15 -1.99105e-15 0.194201 -9.55925e-17 1.1327e-15)
(1.60497e-14 1.94999e-29 3.4859e-30 4.46273 -5.06048e-15 3.12674e-15 0.194201 2.05879e-15 1.30972e-16)
(0 -1.73781e-29 0 4.3633 1.65044e-15 -1.91483e-15 0.192639 -6.69735e-17 1.34565e-15)
(1.3678e-14 1.88307e-29 3.51522e-30 4.3633 -5.50303e-15 3.14193e-15 0.192639 2.42131e-15 1.47713e-16)
(-1.72333e-15 5.68801e-30 1.06176e-30 4.26629 2.16315e-15 -2.06476e-15 0.191099 -7.94447e-17 1.5812e-15)
(-2.41069e-15 -4.28225e-30 -1.07056e-30 4.26629 -5.14351e-15 3.09012e-15 0.191099 2.73503e-15 1.30115e-16)
(1.7368e-15 -1.82784e-29 0 4.17163 2.77008e-15 -2.13762e-15 0.189582 -1.15389e-16 1.54844e-15)
(1.38944e-14 1.77269e-29 3.63832e-30 4.17163 -3.7959e-15 2.74039e-15 0.189582 2.84505e-15 1.19892e-16)
(0 -1.45613e-29 -1.0401e-30 4.0793 2.58304e-15 -2.04692e-15 0.188086 -1.37561e-16 1.4562e-15)
(7.00064e-15 1.48703e-29 2.87794e-30 4.0793 -5.20492e-15 2.63752e-15 0.188086 3.00476e-15 1.24333e-16)
(1.76341e-15 -7.53861e-30 0 3.98923 2.62368e-15 -2.05899e-15 0.186614 -1.01326e-16 1.3648e-15)
(0 6.15113e-30 0 3.98923 -5.78683e-15 2.6897e-15 0.186614 3.38285e-15 1.28341e-16)
(3.55313e-15 -7.28308e-31 0 3.9014 3.53802e-15 -2.18496e-15 0.185165 -1.45436e-16 1.27251e-15)
(4.83083e-15 -2.02099e-30 8.75233e-31 3.9014 -4.65012e-15 2.56797e-15 0.185165 3.45316e-15 1.1629e-16)