/*--------------------------------*- C++ -*----------------------------------*\
| =========                 |                                                 |
| \\      /  F ield         | OpenFOAM: The Open Source CFD Toolbox           |
|  \\    /   O peration     | Version:  2012                                  |
|   \\  /    A nd           | Website:  www.openfoam.com                      |
|    \\/     M anipulation  |                                                 |
\*---------------------------------------------------------------------------*/
FoamFile
{
    version     2.0;
    format      ascii;
    class       volTensorField;
    location    "3000";
    object      grad(U);
}
// * * * * * * * * * * * * * * * * * * * * * * * * * * * * * * * * * * * * * //

dimensions      [0 0 -1 0 0 0 0];


internalField   nonuniform List<tensor> 
2560
(
(0 1.29932e-30 6.49658e-32 114.749 -3.12252e-12 -4.99501e-13 0.166108 -2.24413e-15 -6.49684e-17)
(-3.65725e-17 -8.79087e-28 -1.02391e-26 114.749 0 -7.10525e-13 0.166108 -2.1977e-28 1.68628e-16)
(-7.20966e-17 -6.53907e-25 -1.04174e-26 114.737 3.71129e-32 -4.35577e-13 0.500713 0 -6.42055e-16)
(0 0 2.53275e-31 114.737 -1.21797e-14 -8.17235e-14 0.500713 -3.13367e-17 -2.40034e-16)
(-2.10317e-17 -4.03948e-30 0 114.718 4.1253e-12 -4.92536e-14 0.688591 -2.22673e-14 -6.83833e-16)
(0 8.07896e-30 0 114.718 -4.68405e-15 -4.08553e-14 0.688591 -3.4308e-17 -2.46988e-16)
(6.74517e-17 -6.90281e-30 0 114.69 1.6716e-13 -4.95262e-14 0.698395 -9.79263e-16 -7.24754e-16)
(0 3.98158e-30 0 114.69 -9.16992e-15 -4.13928e-14 0.698395 -5.40948e-17 -2.53613e-16)
(5.52327e-16 -1.17736e-29 -4.90565e-31 114.645 5.60985e-14 -5.06726e-14 0.708212 -1.04261e-15 -7.67962e-16)
(0 7.84903e-30 -4.90565e-31 114.645 -9.33055e-15 -4.18078e-14 0.708212 -7.46762e-17 -2.59351e-16)
(4.3455e-16 -1.0926e-27 0 114.571 -2.31599e-14 -5.13205e-14 0.717926 -7.20676e-17 -8.13211e-16)
(1.02655e-15 1.16048e-29 -1.07138e-30 114.571 -9.44134e-15 -4.1972e-14 0.717926 -9.63773e-17 -2.63101e-16)
(-2.10855e-16 -8.34935e-45 0 114.444 9.62615e-28 -5.13189e-14 0.727332 -2.17967e-60 -8.59731e-16)
(8.4342e-16 1.14385e-29 -3.06266e-31 114.444 -9.68326e-15 -4.1693e-14 0.727332 -1.1883e-16 -2.63399e-16)
(-2.60106e-16 1.05392e-29 -9.39545e-31 114.223 1.75137e-14 -5.06312e-14 0.736107 -9.80619e-17 -9.07069e-16)
(1.04042e-15 -3.75818e-30 6.1793e-31 114.223 -9.89831e-15 -4.07182e-14 0.736107 -1.41582e-16 -2.58229e-16)
(8.31454e-16 -1.0424e-29 -9.82106e-33 113.852 1.89249e-14 -4.90223e-14 0.743786 -1.26522e-16 -8.83937e-16)
(-5.21336e-16 7.40863e-30 -9.26079e-31 113.852 -9.70717e-15 -3.87567e-14 0.743786 -1.65518e-16 -2.45434e-16)
(-5.13864e-16 1.09537e-29 0 113.257 1.82216e-14 -4.61941e-14 0.749763 -1.1941e-16 -8.15478e-16)
(0 -7.30244e-30 9.12806e-31 113.257 -9.67234e-15 -3.55203e-14 0.749763 -1.89365e-16 -2.22805e-16)
(-4.12431e-16 -7.78684e-30 4.22415e-32 112.348 1.82376e-14 -4.19018e-14 0.753322 -1.20887e-16 -7.43155e-16)
(0 1.07967e-29 0 112.348 -9.8443e-15 -3.07745e-14 0.753322 -2.13681e-16 -1.8867e-16)
(9.63887e-16 -2.42902e-29 -5.88215e-32 111.031 1.93233e-14 -3.60451e-14 0.753718 -1.23123e-16 -6.66579e-16)
(0 1.77365e-29 -8.86827e-31 111.031 -1.0195e-14 -2.44557e-14 0.753718 -2.39903e-16 -1.42942e-16)
(0 -3.49647e-30 0 109.221 1.98028e-14 -2.87338e-14 0.750292 -1.39272e-16 -5.8582e-16)
(0 3.49647e-30 0 109.221 -1.07908e-14 -1.67254e-14 0.750292 -2.67546e-16 -8.69721e-17)
(-5.70553e-16 6.44393e-30 9.17795e-32 106.862 2.01608e-14 -2.03296e-14 0.742597 -1.33381e-16 -5.01189e-16)
(2.28221e-15 0 3.56601e-31 106.862 -1.10152e-14 -6.90037e-15 0.742597 -2.95717e-16 -2.41009e-17)
(0 1.69848e-29 -8.4924e-31 103.936 2.08564e-14 -1.14074e-14 0.730504 -1.4839e-16 -4.13302e-16)
(0 -1.69848e-29 0 103.936 -1.0623e-14 1.62253e-32 0.730504 -3.24539e-16 1.80138e-47)
(-6.76705e-16 2.98711e-30 1.23006e-31 100.477 2.08461e-14 -2.63938e-15 0.714238 -1.47218e-16 -3.2318e-16)
(2.70682e-15 0 -4.94239e-31 100.477 -1.03116e-14 9.98061e-15 0.714238 -3.52981e-16 -4.08745e-17)
(0 1.65014e-29 0 96.5601 2.10105e-14 5.33448e-15 0.694346 -1.52588e-16 -2.31818e-16)
(-2.9161e-15 -1.65014e-29 4.54401e-31 96.5601 -1.05117e-14 1.78496e-14 0.694346 -3.78718e-16 -1.03096e-16)
(0 1.95179e-29 0 92.2964 2.02964e-14 1.20305e-14 0.671594 -1.53947e-16 -1.40597e-16)
(-3.12145e-15 -1.95179e-29 4.16166e-31 92.2964 -9.57531e-15 2.42916e-14 0.671594 -4.07281e-16 -1.57708e-16)
(1.80502e-15 -6.41271e-30 -8.01589e-31 87.8113 1.86015e-14 1.71867e-14 0.646845 -1.46411e-16 -1.11908e-16)
(-9.02509e-16 6.41271e-30 0 87.8113 -8.03846e-15 2.90782e-14 0.646845 -4.32163e-16 -2.02159e-16)
(8.78877e-16 9.66973e-30 -1.50152e-31 83.2288 1.73474e-14 2.07574e-14 0.620947 -1.3282e-16 -1.46425e-16)
(-3.51551e-15 -1.5802e-29 3.51721e-31 83.2288 -7.61486e-15 3.21986e-14 0.620947 -4.55664e-16 -2.3473e-16)
(0 1.55755e-29 1.55755e-30 78.6589 1.67644e-14 2.287e-14 0.594646 -1.31455e-16 -1.69981e-16)
(0 -1.55755e-29 -1.55755e-30 78.6589 -7.18666e-15 3.38292e-14 0.594646 -4.80505e-16 -2.55964e-16)
(-9.70498e-16 -6.24657e-30 1.43154e-31 74.19 1.57099e-14 2.37456e-14 0.568548 -1.27635e-16 -1.83605e-16)
(0 1.22818e-29 0 74.19 -6.70954e-15 3.42218e-14 0.568548 -5.02399e-16 -2.66993e-16)
(6.90261e-16 -3.33545e-29 -6.15348e-31 69.887 1.5154e-14 2.36396e-14 0.543111 -1.18649e-16 -1.8879e-16)
(0 3.63174e-29 0 69.887 -7.3889e-15 3.36543e-14 0.543111 -5.2266e-16 -2.88202e-16)
(0 1.19323e-29 0 65.7934 1.51546e-14 2.28106e-14 0.51865 -1.22466e-16 -1.87285e-16)
(-4.21824e-15 -1.49154e-29 2.25939e-31 65.7934 -8.19198e-15 3.2395e-14 0.51865 -5.47676e-16 -3.66637e-16)
(1.09378e-15 1.17448e-29 -1.40114e-31 61.9342 1.44752e-14 2.14824e-14 0.495366 -1.22134e-16 -1.80842e-16)
(0 -1.47016e-29 0 61.9342 -8.12944e-15 3.06634e-14 0.495366 -5.69847e-16 -4.42884e-16)
(-3.89394e-15 3.19941e-29 2.81135e-31 58.3202 1.43145e-14 1.98373e-14 0.473366 -1.14847e-16 -1.70865e-16)
(1.63153e-15 -2.60836e-29 0 58.3202 -7.88162e-15 2.86505e-14 0.473366 -5.88665e-16 -5.16962e-16)
(3.50076e-15 -3.45635e-29 -1.13874e-30 54.9519 1.46703e-14 1.80117e-14 0.452692 -1.23023e-16 -1.5861e-16)
(9.33537e-15 2.85664e-29 -1.31194e-31 54.9519 -6.98463e-15 2.652e-14 0.452692 -6.09396e-16 -5.89287e-16)
(0 -1.40785e-29 0 51.8228 1.40475e-14 1.61053e-14 0.433336 -1.24252e-16 -1.44876e-16)
(4.80407e-15 1.40785e-29 -1.51733e-32 51.8228 -6.08124e-15 2.43776e-14 0.433336 -6.26429e-16 -6.60359e-16)
(1.2336e-15 2.6044e-30 -1.44659e-31 48.9219 1.26982e-14 1.41934e-14 0.415261 -1.15899e-16 -1.3042e-16)
(0 0 0 48.9219 -6.53902e-15 2.22834e-14 0.415261 -6.427e-16 -6.69016e-16)
(-2.5295e-15 5.89056e-30 2.93384e-31 46.2357 1.12529e-14 1.23218e-14 0.398406 -1.04314e-16 -1.15709e-16)
(-1.0118e-14 0 0 46.2357 -6.89016e-15 2.02462e-14 0.398406 -6.63836e-16 -6.51476e-16)
(-1.29457e-15 8.33726e-30 8.2307e-31 43.7492 1.03632e-14 1.05197e-14 0.382701 -9.36696e-17 -1.01059e-16)
(-5.1783e-15 0 0 43.7492 -6.15491e-15 1.82642e-14 0.382701 -6.84743e-16 -6.35308e-16)
(0 2.39194e-29 0 41.4474 1.00031e-14 8.80561e-15 0.368072 -9.13666e-17 -8.66858e-17)
(-5.29264e-15 -2.39194e-29 0 41.4474 -5.29735e-15 1.63996e-14 0.368072 -7.0076e-16 -6.205e-16)
(2.94943e-15 -1.57177e-29 -6.54904e-31 39.3154 9.90884e-15 7.19023e-15 0.354442 -8.98438e-17 -7.274e-17)
(2.45294e-15 1.57177e-29 6.54904e-31 39.3154 -5.22117e-15 1.46912e-14 0.354442 -7.18207e-16 -6.06729e-16)
(-1.37695e-15 8.10284e-30 1.57097e-31 37.3392 1.00177e-14 5.68112e-15 0.341735 -9.22973e-17 -5.93188e-17)
(0 0 0 37.3392 -5.44818e-15 1.31205e-14 0.341735 -7.41214e-16 -5.93884e-16)
(-1.40231e-15 1.82062e-29 1.6015e-31 35.5054 9.76493e-15 4.27729e-15 0.32988 -9.45209e-17 -4.65255e-17)
(0 -1.52704e-29 0 35.5054 -5.2807e-15 1.16806e-14 0.32988 -7.57516e-16 -5.81992e-16)
(-1.42673e-15 1.54768e-29 1.63364e-31 33.8017 8.49134e-15 2.97355e-15 0.318809 -9.01836e-17 -3.43053e-17)
(-5.70693e-15 -7.52576e-30 0 33.8017 -4.76454e-15 1.0338e-14 0.318809 -7.73424e-16 -5.70932e-16)
(1.45029e-15 -1.03526e-29 -7.84888e-31 32.2168 6.85295e-15 1.75698e-15 0.308457 -7.26676e-17 -2.26832e-17)
(0 7.41789e-30 6.18158e-31 32.2168 -3.31415e-15 9.0728e-15 0.308457 -7.87036e-16 -5.6076e-16)
(1.47304e-15 -1.51212e-29 -7.79581e-31 30.7404 6.06953e-15 6.21152e-16 0.298768 -6.069e-17 -1.14484e-17)
(0 1.2186e-29 6.09298e-31 30.7404 -2.27935e-15 7.93225e-15 0.298768 -7.98311e-16 -5.51297e-16)
(-1.49503e-15 1.01408e-29 7.73356e-31 29.3631 6.42263e-15 -4.31793e-16 0.289687 -5.92067e-17 -9.47379e-18)
(-2.7047e-15 -2.40226e-30 0 29.3631 -2.61349e-15 6.86859e-15 0.289687 -8.12481e-16 -5.42639e-16)
(-2.66594e-15 9.47132e-30 0 28.0763 6.7699e-15 -1.40862e-15 0.281165 -6.95963e-17 -1.92401e-17)
(2.66594e-15 -9.47132e-30 0 28.0763 -2.42184e-15 5.89027e-15 0.281165 -8.23579e-16 -5.34832e-16)
(-1.53694e-15 7.59698e-30 7.58768e-31 26.8725 5.45853e-15 -2.31389e-15 0.273157 -6.8054e-17 -2.85627e-17)
(4.83388e-15 0 5.83473e-31 26.8725 -2.87949e-16 5.01855e-15 0.273157 -8.30945e-16 -5.27477e-16)
(1.29503e-15 -1.84035e-29 -5.75111e-31 25.7445 4.22731e-15 -3.16111e-15 0.265621 -4.43848e-17 -3.7665e-17)
(4.93271e-15 1.84035e-29 5.75111e-31 25.7445 2.56379e-16 4.19721e-15 0.265621 -8.3197e-16 -5.20577e-16)
(1.57635e-15 1.0673e-29 3.88043e-31 24.6861 4.67677e-15 -3.95749e-15 0.258521 -4.40906e-17 -4.6433e-17)
(-6.30541e-15 -1.81398e-29 -5.66868e-31 24.6861 -2.36217e-15 3.42893e-15 0.258521 -8.37252e-16 -5.14086e-16)
(1.59522e-15 -7.40008e-30 -1.81011e-31 23.6916 5.27608e-15 -4.69852e-15 0.251822 -5.52984e-17 -5.48486e-17)
(0 4.46994e-30 0 23.6916 -3.34312e-15 2.71053e-15 0.251822 -8.45994e-16 -5.08396e-16)
(-1.61357e-15 2.9288e-30 -3.6727e-31 22.7559 6.03996e-15 -5.38292e-15 0.245494 -5.8387e-17 -6.28603e-17)
(0 0 5.50735e-31 22.7559 -2.23611e-15 2.0368e-15 0.245494 -8.58974e-16 -5.03109e-16)
(1.63144e-15 5.76109e-30 -1.86162e-31 21.8743 6.28436e-15 -6.01676e-15 0.239508 -7.37353e-17 -7.06124e-17)
(6.52575e-15 -4.34273e-30 0 21.8743 -1.31746e-15 1.41175e-15 0.239508 -8.60843e-16 -4.98335e-16)
(0 -8.56098e-30 -5.35061e-31 21.0426 4.63434e-15 -6.61924e-15 0.233838 -6.55562e-17 -7.83539e-17)
(6.59538e-15 8.56098e-30 5.35061e-31 21.0426 -1.54581e-15 8.44787e-16 0.233838 -8.6055e-16 -4.93956e-16)
(-1.66582e-15 -1.29171e-30 1.92217e-31 20.2569 3.39167e-15 -7.19627e-15 0.228461 -3.85054e-17 -8.59467e-17)
(0 8.43828e-30 5.27392e-31 20.2569 -2.716e-15 3.25038e-16 0.228461 -8.71365e-16 -4.89795e-16)
(-1.68238e-15 2.92765e-30 1.9562e-31 19.5138 4.19813e-15 -7.74132e-15 0.223356 -3.89079e-17 -9.33617e-17)
(0 4.15867e-30 0 19.5138 -2.83815e-15 -1.67008e-16 0.223356 -8.7794e-16 -4.85993e-16)
(2.30757e-15 -8.19813e-30 -5.12383e-31 18.8101 4.95481e-15 -8.25631e-15 0.218503 -5.84434e-17 -1.00651e-16)
(-2.30757e-15 8.19813e-30 5.12383e-31 18.8101 -1.83715e-15 -6.32177e-16 0.218503 -8.80497e-16 -4.82507e-16)
(-3.98885e-15 2.92399e-30 7.08203e-31 18.1431 5.55994e-15 -8.74262e-15 0.213884 -5.7953e-17 -1.07772e-16)
(0 8.08063e-30 0 18.1431 -2.56243e-15 -1.0824e-15 0.213884 -8.89262e-16 -4.79338e-16)
(-2.24189e-15 1.59296e-29 9.95601e-31 17.51 6.98319e-15 -9.20168e-15 0.209483 -7.46829e-17 -1.1478e-16)
(-6.91921e-15 -1.19472e-29 -4.97801e-31 17.51 -3.30023e-15 -1.50203e-15 0.209483 -9.03446e-16 -4.76618e-16)
(-1.74492e-15 -1.27858e-29 -7.73034e-31 16.9084 7.29143e-15 -9.63371e-15 0.205286 -9.43159e-17 -1.21604e-16)
(6.97969e-15 1.57013e-29 9.81332e-31 16.9084 -2.24466e-15 -1.90056e-15 0.205286 -9.16916e-16 -4.73973e-16)
(0 1.54763e-29 4.83633e-31 16.3363 6.56012e-15 -1.00427e-14 0.201277 -8.44873e-17 -1.28396e-16)
(0 -1.54763e-29 -4.83633e-31 16.3363 -3.22952e-15 -2.33036e-15 0.201277 -9.26988e-16 -4.71837e-16)
(-3.92109e-15 1.43538e-29 0 15.7916 5.96159e-15 0 0.197445 -7.87449e-17 -9.85246e-47)
(9.24376e-15 -1.14408e-29 -4.76702e-31 15.7916 -3.68201e-15 -2.67708e-15 0.197445 -9.37019e-16 -4.70106e-16)
(3.57686e-15 -1.33428e-29 -9.072e-31 15.2726 4.69495e-15 1.0667e-14 0.193779 -7.17391e-17 -8.33041e-17)
(7.15372e-15 7.51791e-30 4.69869e-31 15.2726 -1.57807e-15 -2.92611e-15 0.193779 -9.4778e-16 -4.6823e-16)
(2.08577e-15 -1.11152e-29 -4.63135e-31 14.7774 3.82299e-15 1.44651e-14 0.190267 -4.8367e-17 -1.90737e-16)
(0 1.11152e-29 0 14.7774 -1.44764e-15 -3.20862e-15 0.190267 -9.54921e-16 -4.66359e-16)
(-1.81603e-15 2.91304e-30 1.91464e-31 14.3047 4.29373e-15 1.38722e-14 0.186899 -5.10133e-17 -1.85176e-16)
(0 3.65198e-30 0 14.3047 -2.20181e-15 -3.59765e-15 0.186899 -9.68988e-16 -4.64667e-16)
(-3.6589e-15 2.02173e-29 3.71899e-31 13.8529 4.49853e-15 1.33934e-14 0.183668 -6.22867e-17 -1.80579e-16)
(7.3178e-15 -1.79982e-29 -4.49954e-31 13.8529 -2.10718e-15 -3.93081e-15 0.183668 -9.84476e-16 -4.63515e-16)
(-1.84263e-15 2.9086e-30 1.80395e-31 13.4209 4.39531e-15 1.29829e-14 0.180563 -5.80262e-17 -1.77697e-16)
(0 3.54804e-30 0 13.4209 -2.22463e-15 -4.18786e-15 0.180563 -9.94533e-16 -4.62467e-16)
(1.13173e-16 -5.90268e-31 -2.62069e-31 13.0073 4.38162e-15 1.25458e-14 0.177578 -6.12893e-17 -1.74646e-16)
(5.45353e-15 6.99438e-30 4.37149e-31 13.0073 -1.08085e-15 -4.40134e-15 0.177578 -1.00244e-15 -4.61773e-16)
(-1.86829e-15 9.79978e-30 1.70116e-31 12.6112 5.35934e-15 1.21092e-14 0.174705 -5.93465e-17 -1.70779e-16)
(-1.94052e-15 0 4.30883e-31 12.6112 -2.35459e-15 -4.64271e-15 0.174705 -9.97866e-16 -4.60848e-16)
(-5.67431e-15 1.59901e-29 7.55336e-31 12.2315 6.27956e-15 1.17181e-14 0.171939 -9.05966e-17 -1.67476e-16)
(-5.61047e-15 -1.0193e-29 -4.24707e-31 12.2315 -3.74281e-15 -4.97126e-15 0.171939 -1.01461e-15 -4.60078e-16)
(-7.55679e-15 -7.60288e-30 3.21296e-31 11.8671 5.25537e-15 1.13768e-14 0.169271 -8.73555e-17 -1.64618e-16)
(1.51448e-14 1.00469e-29 0 11.8671 -2.39471e-15 -5.21913e-15 0.169271 -1.03101e-15 -4.60049e-16)
(-5.7156e-15 2.5201e-29 1.29353e-30 11.5174 3.80861e-15 1.10855e-14 0.166698 -6.35866e-17 -1.62496e-16)
(-7.6208e-15 -1.65048e-29 0 11.5174 -1.89919e-15 -5.36287e-15 0.166698 -1.04379e-15 -4.59865e-16)
(-3.74875e-15 -6.86014e-30 -2.55028e-31 11.1814 2.53329e-15 1.08209e-14 0.164213 -4.74023e-17 -1.6088e-16)
(7.66845e-15 9.76096e-30 3.33391e-31 11.1814 5.85276e-17 -5.54727e-15 0.164213 -1.05992e-15 -3.26814e-16)
(1.92884e-15 -6.11011e-30 -1.4739e-31 10.8584 1.18379e-15 1.05029e-14 0.161812 -2.74297e-17 -1.5937e-16)
(0 3.20702e-30 0 10.8584 7.83238e-16 -5.81816e-15 0.161812 -1.0499e-15 -8.99545e-17)
(0 -1.58053e-29 0 10.5477 -6.68438e-16 1.01539e-14 0.15949 -2.86023e-17 -1.63268e-16)
(7.76156e-15 1.58053e-29 -2.01701e-31 10.5477 -1.52087e-16 -6.09043e-15 0.15949 -1.04584e-15 -9.56218e-17)
(1.75401e-15 -9.34724e-30 0 10.2487 -1.39335e-15 9.82594e-15 0.157243 -1.43585e-17 -4.12219e-16)
(7.80707e-15 9.34724e-30 -1.99788e-31 10.2487 1.38661e-16 -6.31297e-15 0.157243 -1.05286e-15 -9.95173e-17)
(-1.72887e-15 0 0 9.9607 4.1836e-43 9.57781e-15 0.155067 -3.15544e-30 -6.6207e-16)
(6.12306e-15 -6.14218e-30 5.69544e-31 9.9607 3.02446e-16 -6.46173e-15 0.155067 -1.05722e-15 -1.03121e-16)
(0 1.21083e-29 0 9.6832 1.01317e-16 9.35724e-15 0.152957 -1.49854e-17 -9.15175e-16)
(0 -1.21083e-29 0 9.6832 -2.79254e-16 -6.6238e-15 0.152957 -1.06293e-15 -1.07626e-16)
(-3.96986e-15 8.78821e-30 0 9.41565 -1.46566e-15 9.0661e-15 0.150911 -3.55166e-17 -1.07958e-15)
(0 -2.98369e-30 0 9.41565 2.69604e-16 -6.86168e-15 0.150911 -1.07659e-15 -1.13875e-16)
(0 -3.62265e-29 7.35231e-31 9.15756 -6.08903e-16 8.76129e-15 0.148926 -4.98442e-18 -1.05578e-15)
(7.98272e-15 1.47046e-29 -9.25893e-31 9.15756 1.41754e-15 -7.11428e-15 0.148926 -1.07665e-15 -1.1911e-16)
(-1.63186e-15 -2.9073e-30 -7.24693e-31 8.90846 6.99917e-28 8.47711e-15 0.146997 -3.15544e-30 -1.03351e-15)
(8.02512e-15 -8.69632e-30 5.3593e-31 8.90846 4.85795e-16 -7.30971e-15 0.146997 -1.06815e-15 -1.2375e-16)
(-2.01674e-15 2.89957e-30 0 8.66794 2.53283e-15 8.28374e-15 0.145123 -3.80277e-17 -1.01276e-15)
(0 2.85723e-30 0 8.66794 -4.69577e-16 -7.44336e-15 0.145123 -1.07265e-15 -1.27136e-16)
(2.02706e-15 2.73557e-30 0 8.43558 2.29947e-15 8.15072e-15 0.1433 -4.74034e-17 -9.93202e-16)
(0 -2.81628e-30 0 8.43558 -1.19851e-15 -7.64906e-15 0.1433 -1.07767e-15 -1.3446e-16)
(3.1254e-15 -8.32773e-30 0 8.211 -6.29878e-17 7.94659e-15 0.141527 -3.37578e-17 -9.75139e-16)
(0 8.32773e-30 0 8.211 -7.99613e-16 -7.82526e-15 0.141527 -1.0732e-15 -1.37017e-16)
(3.0806e-15 -5.47225e-30 -6.84031e-31 7.99384 -3.53443e-15 7.67684e-15 0.1398 -9.10481e-17 -9.589e-16)
(0 5.47225e-30 -6.84031e-31 7.99384 2.28987e-15 -7.97654e-15 0.1398 -1.05786e-15 -1.43761e-16)
(-4.11449e-15 -2.29102e-30 -6.74227e-31 7.78378 -4.33963e-15 7.40013e-15 0.138117 -6.37064e-17 -9.43523e-16)
(0 8.09073e-30 0 7.78378 3.87984e-15 -8.22521e-15 0.138117 -1.03189e-15 -1.49975e-16)
(-2.06706e-15 5.56352e-30 0 7.58049 -2.7776e-15 7.27392e-15 0.136477 -3.67186e-17 -9.29647e-16)
(0 -2.65826e-30 0 7.58049 3.32707e-15 -8.28522e-15 0.136477 -1.01146e-15 -1.50162e-16)
(2.07675e-15 -2.9086e-30 0 7.38368 -1.71638e-15 4.24686e-15 0.134878 -2.62868e-17 -9.16443e-16)
(-8.307e-15 0 8.40816e-31 7.38368 2.21904e-15 -7.8993e-15 0.134878 -9.96088e-16 -1.40081e-16)
(0 -3.23819e-29 0 7.19307 -7.47844e-17 -2.39513e-15 0.133316 -6.97114e-19 -9.31779e-16)
(-8.3453e-15 1.2913e-29 0 7.19307 2.20048e-15 6.55322e-32 0.133316 -9.94285e-16 -9.86076e-32)
(-2.09579e-15 1.56433e-29 -6.36397e-31 7.00839 -1.62993e-16 -6.02095e-15 0.131792 -5.50342e-18 -9.81551e-16)
(1.67663e-14 -7.63676e-30 1.56856e-31 7.00839 3.95741e-15 1.90383e-16 0.131792 -9.77395e-16 -2.21371e-18)
(2.10514e-15 9.63322e-30 0 6.8294 -8.7334e-16 -6.06135e-15 0.130302 -2.8178e-17 -1.03027e-15)
(8.42056e-15 -1.75637e-29 4.12074e-31 6.8294 2.86745e-15 2.41238e-16 0.130302 -9.48589e-16 -5.00843e-18)
(0 0 0 6.65586 -1.68397e-15 -6.14708e-15 0.128846 -3.74576e-17 -1.06938e-15)
(0 4.94628e-30 0 6.65586 1.46283e-15 2.27777e-16 0.128846 -9.52311e-16 -4.24449e-18)
(-2.12352e-15 -9.27409e-30 1.21885e-30 6.48755 -1.84027e-15 -6.28291e-15 0.127422 -3.52227e-17 -1.11008e-15)
(5.74949e-15 1.21885e-29 -7.77141e-31 6.48755 1.61629e-15 3.64337e-16 0.127422 -9.35271e-16 -4.62719e-18)
(-4.83782e-15 -5.68922e-30 -6.00689e-31 6.32425 -2.94405e-28 -6.3289e-15 0.126028 0 -1.15183e-15)
(-8.53023e-15 0 6.66378e-31 6.32425 6.5809e-16 -3.27074e-15 0.126028 -9.36003e-16 -1.41981e-16)
(2.14149e-15 -1.00218e-29 5.9208e-31 6.16578 5.64367e-16 -6.41898e-15 0.124664 -1.96869e-17 -1.15613e-15)
(8.56596e-15 7.10495e-30 -5.9208e-31 6.16578 1.40707e-15 -9.87355e-15 0.124664 -9.4114e-16 -2.51016e-16)
(-2.15033e-15 1.69234e-29 -5.83594e-31 6.01194 -3.6736e-16 -6.5347e-15 0.123328 -1.8451e-17 -1.13253e-15)
(8.60131e-15 -1.40062e-29 5.77957e-31 6.01194 1.08834e-15 -1.2604e-14 0.123328 -9.16423e-16 -2.59595e-16)
(-2.15907e-15 -3.8886e-44 0 5.86255 2.76188e-28 -6.61224e-15 0.122018 -3.15544e-30 -1.10514e-15)
(0 4.60183e-30 0 5.86255 -1.36078e-15 -1.23567e-14 0.122018 -9.29466e-16 -2.57536e-16)
(-2.16771e-15 8.89222e-31 0 5.71744 6.25202e-16 -6.70839e-15 0.120734 -6.63651e-18 -1.07856e-15)
(0 4.53588e-30 -5.66985e-31 5.71744 -7.92205e-16 -1.21757e-14 0.120734 -9.41341e-16 -2.59459e-16)
(-2.17626e-15 -6.02561e-30 5.58858e-31 5.57645 1.5236e-15 -6.75788e-15 0.119475 -2.66482e-17 -1.05277e-15)
(8.70505e-15 8.94173e-30 -3.1329e-32 5.57645 7.04986e-16 -1.20047e-14 0.119475 -9.33232e-16 -2.57661e-16)
(2.18473e-15 -7.31844e-30 5.50848e-31 5.43944 9.09454e-16 -6.74774e-15 0.11824 -3.90741e-17 -1.02846e-15)
(0 4.40679e-30 -5.50848e-31 5.43944 6.0377e-16 -1.16857e-14 0.11824 -9.34307e-16 -2.53013e-16)
(2.44524e-15 -4.34363e-30 0 5.30625 -3.95377e-16 -6.82172e-15 0.117026 -1.80571e-17 -1.00312e-15)
(-2.44524e-15 4.34363e-30 0 5.30625 -9.38384e-16 -1.13557e-14 0.117026 -9.30017e-16 -2.5047e-16)
(-2.20138e-15 -1.36369e-30 0 5.17674 -6.91104e-16 -6.91554e-15 0.115835 -1.2995e-17 -9.80179e-16)
(0 8.56274e-30 0 5.17674 -1.50376e-15 -1.11565e-14 0.115835 -9.383e-16 -2.51399e-16)
(0 -2.91948e-30 1.055e-30 5.05079 2.55887e-28 -7.05946e-15 0.114665 0 -9.5747e-16)
(1.76767e-14 2.11e-29 -1.16279e-30 5.05079 6.54787e-16 -1.09699e-14 0.114665 -9.40919e-16 -2.49232e-16)
(-2.3416e-15 4.15952e-30 1.03988e-30 4.92826 2.38143e-15 -7.2337e-15 0.113514 -3.82321e-17 -9.38544e-16)
(8.8708e-15 0 -5.83804e-32 4.92826 1.27981e-16 -1.0641e-14 0.113514 -9.31594e-16 -2.43422e-16)
(-4.53378e-15 2.34033e-29 -1.02498e-30 4.80905 2.80302e-15 -7.21626e-15 0.112383 -7.22777e-17 -9.1917e-16)
(-8.90293e-15 -1.63996e-29 1.08368e-30 4.80905 -2.01828e-15 -1.0307e-14 0.112383 -9.5698e-16 -2.40728e-16)
(-2.23369e-15 1.09838e-29 -1.01029e-30 4.69303 2.03782e-15 -7.23619e-15 0.11127 -5.93005e-17 -9.00922e-16)
(-8.93474e-15 -8.08229e-30 1.06958e-30 4.69303 -1.73451e-15 -1.0025e-14 0.11127 -9.77137e-16 -2.37016e-16)
(0 1.19497e-29 0 4.5801 2.22474e-15 -7.365e-15 0.110175 -3.76618e-17 -8.82859e-16)
(0 -7.96645e-30 9.95806e-31 4.5801 -9.18886e-16 -9.75753e-15 0.110175 -9.66308e-16 -2.34754e-16)
(0 7.85227e-30 0 4.47015 3.66991e-15 -7.60684e-15 0.109097 -7.01409e-17 -8.68787e-16)
(8.99741e-15 -3.92614e-30 9.27321e-31 4.47015 -2.51332e-15 -9.54594e-15 0.109097 -9.65663e-16 -2.33504e-16)
(-2.10001e-15 1.64696e-29 0 4.36308 3.07471e-15 -7.65106e-15 0.108035 -1.10172e-16 -8.55338e-16)
(0 -1.54795e-29 9.67466e-31 4.36308 -4.43238e-15 -9.52526e-15 0.108035 -9.83782e-16 -2.40595e-16)
(0 -3.05152e-29 9.536e-31 4.25881 -3.2939e-16 -7.58494e-15 0.106989 -5.97268e-17 -8.38731e-16)
(1.81177e-14 3.05152e-29 -1.05613e-30 4.25881 -8.74727e-16 -9.37956e-15 0.106989 -1.00524e-15 -2.32934e-16)
(2.11654e-15 -7.51946e-30 0 4.15723 -3.00878e-15 -7.82265e-15 0.105959 -9.46507e-17 -8.25472e-16)
(1.60617e-14 3.75973e-30 -1.26014e-31 4.15723 1.18658e-15 -9.01405e-15 0.105959 -9.81196e-16 -2.28783e-16)
(-4.55955e-15 9.46521e-30 0 4.05827 -3.48153e-15 -8.06577e-15 0.104943 -8.62238e-17 -8.15262e-16)
(0 -3.70584e-30 0 4.05827 -4.49374e-16 -8.8567e-15 0.104943 -9.65959e-16 -2.3152e-16)
(-2.28719e-15 2.8869e-30 0 3.96184 -2.35154e-15 -8.08528e-15 0.103941 -3.74106e-17 -8.07646e-16)
(1.82975e-14 3.65273e-30 -1.07564e-30 3.96184 6.5114e-16 -8.76115e-15 0.103941 -9.68984e-16 -2.3041e-16)
(2.29454e-15 -1.91329e-29 9.00094e-31 3.86785 -7.04462e-16 -8.16286e-15 0.102953 -9.42086e-18 -7.98472e-16)
(0 1.08011e-29 -9.00094e-31 3.86785 -4.25938e-16 -8.51034e-15 0.102953 -9.46012e-16 -2.24788e-16)
(-2.30182e-15 -6.63901e-31 0 3.77624 -9.75387e-16 -8.40848e-15 0.101978 -4.37616e-17 -7.91968e-16)
(0 7.09755e-30 0 3.77624 -1.73861e-15 -8.30635e-15 0.101978 -9.54099e-16 -2.26009e-16)
(-2.30903e-15 9.88468e-30 -1.74895e-30 3.68694 -1.22483e-15 -8.59006e-15 0.101016 -2.3531e-17 -7.88623e-16)
(9.23613e-15 -6.99582e-30 1.63743e-30 3.68694 6.66437e-16 -8.254e-15 0.101016 -9.61875e-16 -2.2847e-16)
(-2.31617e-15 4.2039e-45 -8.61944e-31 3.59986 5.78396e-30 -8.73396e-15 0.100066 1.57822e-45 -7.86002e-16)
(7.32377e-15 -1.03433e-29 7.40727e-31 3.59986 7.9407e-16 -8.21178e-15 0.100066 -9.29725e-16 -2.30253e-16)
(-4.64649e-15 5.78106e-30 0 3.51495 6.23811e-16 -8.94032e-15 0.0991277 -8.83821e-18 -7.8628e-16)
(0 0 0 3.51495 -1.42266e-15 -8.10652e-15 0.0991277 -9.23193e-16 -2.29154e-16)
(-4.21594e-15 9.58234e-30 0 3.43214 1.31128e-15 -8.98501e-15 0.0982011 -4.71112e-17 -7.89067e-16)
(0 -3.34965e-30 0 3.43214 -2.84806e-15 -8.02224e-15 0.0982011 -9.40154e-16 -2.32117e-16)
(0 -9.90493e-30 0 3.35136 -8.60218e-16 -8.98708e-15 0.0972855 -7.90987e-17 -7.89706e-16)
(-9.34878e-15 9.90493e-30 -1.4933e-30 3.35136 -3.65664e-16 -7.81228e-15 0.0972855 -9.46213e-16 -2.23531e-16)
(6.00811e-15 -1.26415e-29 1.62716e-30 3.27257 -2.86401e-15 -9.26628e-15 0.0963806 -9.04776e-17 -7.9255e-16)
(5.71224e-15 9.76297e-30 -1.79714e-30 3.27257 2.23385e-15 -7.4962e-15 0.0963806 -9.11834e-16 -2.20075e-16)
(2.35088e-15 -9.30341e-30 0 3.19569 -2.08753e-15 -9.66173e-15 0.095486 -3.44557e-17 -8.00085e-16)
(-9.40353e-15 6.41536e-30 1.76878e-31 3.19569 -1.14896e-15 -7.46231e-15 0.095486 -8.90639e-16 -2.28029e-16)
(-2.35763e-15 0 0 3.12068 5.27351e-44 -9.81251e-15 0.0946015 -3.15544e-30 -8.14349e-16)
(9.43052e-15 -3.16171e-30 -1.90411e-31 3.12068 -3.09622e-15 -7.49276e-15 0.0946015 -8.97222e-16 -2.2839e-16)
(0 9.34917e-30 0 3.04748 2.55987e-15 -9.89447e-15 0.0937267 -9.65777e-17 -8.28934e-16)
(0 -6.23278e-30 0 3.04748 -1.07577e-15 -7.46935e-15 0.0937267 -8.87912e-16 -2.33251e-16)
(-3.45845e-15 1.53586e-29 0 2.97605 1.09001e-15 -9.96682e-15 0.0928613 -6.13681e-17 -8.4463e-16)
(6.02531e-15 -9.21517e-30 -2.11905e-31 2.97605 -5.20496e-16 -7.58788e-15 0.0928613 -8.75477e-16 -2.42566e-16)
(2.3775e-15 -4.05588e-29 0 2.90633 4.13677e-16 -1.00296e-14 0.092005 -6.57853e-18 -8.59046e-16)
(0 9.0831e-30 0 2.90633 -2.32612e-15 -7.33851e-15 0.092005 -8.48692e-16 -2.24106e-16)
(0 2.9843e-30 0 2.83827 1.96224e-15 -1.04473e-14 0.0911575 -8.98188e-17 -8.77458e-16)
(-1.2896e-14 0 2.52284e-31 2.83827 -2.45096e-15 -6.96006e-15 0.0911575 -8.45706e-16 -2.25071e-16)
(0 0 1.47077e-30 2.77183 1.76237e-15 -1.06613e-14 0.0903187 -3.64294e-17 -9.03909e-16)
(0 8.82459e-30 0 2.77183 -2.37135e-15 -7.14922e-15 0.0903187 -8.36665e-16 -2.43146e-16)
(0 5.79874e-30 0 2.70697 2.78707e-15 -1.06714e-14 0.0894881 -7.92686e-17 -9.27112e-16)
(0 -2.89937e-30 1.44969e-30 2.70697 -4.11886e-15 -7.22407e-15 0.0894881 -8.46277e-16 -2.36672e-16)
(2.40315e-15 1.14384e-29 -1.42891e-30 2.64364 3.22373e-15 -1.08341e-14 0.0886656 -1.06058e-16 -9.54401e-16)
(0 -1.42891e-29 1.42891e-30 2.64364 -5.17447e-15 -7.08993e-15 0.0886656 -8.55793e-16 -2.41163e-16)
(2.40942e-15 5.60752e-30 0 2.58181 3.74168e-15 -1.11242e-14 0.087851 -1.11232e-16 -9.83313e-16)
(0 -5.63371e-30 0 2.58181 -5.6753e-15 -7.07589e-15 0.087851 -8.9824e-16 -2.42637e-16)
(-4.83125e-15 5.66645e-30 0 2.52143 3.75439e-15 -1.12877e-14 0.0870439 -1.44835e-16 -1.01664e-15)
(9.6625e-15 0 -3.2308e-31 2.52143 -5.43205e-15 -7.07071e-15 0.0870439 -9.5735e-16 -2.47866e-16)
(-2.42178e-15 9.45157e-32 0 2.46246 2.35566e-15 -1.1333e-14 0.0862443 -1.15378e-16 -1.05202e-15)
(0 8.21007e-30 0 2.46246 -3.19332e-15 -6.68281e-15 0.0862443 -9.96044e-16 -2.22249e-16)
(0 0 0 2.40487 4.49028e-16 -1.14653e-14 0.0854519 -4.99275e-17 -1.09149e-15)
(0 0 1.34873e-30 2.40487 1.49609e-15 -6.15054e-15 0.0854519 -1.02274e-15 -2.16847e-16)
(0 2.6588e-30 0 2.34862 -5.43849e-16 -1.16885e-14 0.0846666 -2.10529e-17 -1.12542e-15)
(0 0 1.3294e-30 2.34862 2.00822e-15 -5.84134e-15 0.0846666 -9.77963e-16 -2.06199e-16)
(-2.95064e-15 2.8026e-45 1.31035e-30 2.29367 5.69718e-30 -1.20151e-14 0.083888 -3.15544e-30 -1.16471e-15)
(0 -2.6207e-30 1.31035e-30 2.29367 -5.9394e-16 -5.70949e-15 0.083888 -9.49314e-16 -2.1344e-16)
(-2.90835e-15 7.74941e-30 0 2.24 6.20823e-16 -1.22151e-14 0.0831161 -1.87841e-17 -1.21156e-15)
(1.95666e-14 -5.16627e-30 1.74425e-30 2.24 -9.91938e-16 -5.73178e-15 0.0831161 -9.31105e-16 -2.13913e-16)
(-4.90339e-15 5.67742e-30 0 2.18757 -1.53079e-16 -1.22593e-14 0.0823507 -3.96308e-17 -1.26183e-15)
(9.80678e-15 0 -4.52337e-31 2.18757 -1.73635e-15 -5.30715e-15 0.0823507 -8.98097e-16 -1.87338e-16)
(5.28309e-15 -8.89214e-30 -2.50962e-30 2.13635 4.93038e-32 -1.24417e-14 0.0815917 -3.15544e-30 -1.30978e-15)
(-2.82558e-15 2.50962e-30 0 2.13635 -3.09692e-15 -4.56854e-15 0.0815917 -8.9814e-16 -1.63085e-16)
(0 -5.52546e-30 0 2.08631 4.05256e-16 -1.28267e-14 0.0808388 -7.88808e-18 -1.36816e-15)
(-9.85312e-15 -2.47365e-30 4.95505e-31 2.08631 -2.73054e-15 -4.13582e-15 0.0808388 -9.2264e-16 -1.58891e-16)
(-2.46899e-15 -9.35988e-30 3.476e-32 2.03742 1.96814e-15 -1.30717e-14 0.0800919 -6.77717e-17 -1.18236e-15)
(9.87597e-15 1.2191e-29 -5.1541e-31 2.03742 -1.14908e-15 -3.89544e-15 0.0800919 -9.19115e-16 -1.48736e-16)
(0 1.20163e-29 0 1.98966 2.91967e-15 -1.32157e-14 0.0793508 -8.78366e-17 -8.0819e-16)
(0 -7.20975e-30 0 1.98966 -2.44644e-15 -3.52965e-15 0.0793508 -9.05525e-16 -1.34019e-16)
(2.66704e-15 -4.73761e-30 0 1.94298 2.72859e-15 -1.35508e-14 0.0786156 -1.46565e-16 -5.65676e-16)
(0 4.73761e-30 0 1.94298 -5.08322e-15 -3.20416e-15 0.0786156 -9.35688e-16 -1.26437e-16)
(-2.48582e-15 -1.8524e-30 1.52063e-31 1.89737 1.46182e-15 -1.35929e-14 0.0778859 -7.47614e-17 -5.55473e-16)
(0 4.66971e-30 0 1.89737 -4.44422e-15 -3.24725e-15 0.0778859 -1.00158e-15 -1.41524e-16)
(1.99627e-16 -3.06703e-29 -3.13758e-30 1.8528 2.17996e-15 -1.37318e-14 0.0771617 -4.56077e-17 -5.93953e-16)
(1.99306e-14 2.76167e-29 1.48114e-30 1.8528 -3.19735e-15 -2.98434e-15 0.0771617 -1.02753e-15 -4.47252e-16)
(0 9.07362e-30 0 1.80925 5.75865e-15 -1.42732e-14 0.0764428 -1.89346e-16 -6.18046e-16)
(0 -4.53681e-30 0 1.80925 -1.51628e-15 -2.25781e-15 0.0764428 -1.03792e-15 -9.33226e-16)
(0 4.47179e-30 2.23589e-30 1.76669 5.81506e-15 -1.43439e-14 0.0757292 -3.00378e-16 -6.17487e-16)
(0 0 0 1.76669 -4.64327e-15 -2.26937e-15 0.0757292 -1.02286e-15 -1.22693e-15)
(-5.04129e-15 -1.37691e-29 -1.63289e-30 1.72509 4.53169e-15 -1.43373e-14 0.0750207 -1.99787e-16 -6.35569e-16)
(1.75789e-14 2.20385e-29 2.20385e-30 1.72509 -5.37181e-15 -2.52467e-15 0.0750207 -1.11156e-15 -1.26149e-15)
(0 -2.17226e-29 -2.17226e-30 1.68444 5.58302e-15 -1.46469e-14 0.0743172 -1.96209e-16 -6.63225e-16)
(2.01027e-14 2.17226e-29 2.17226e-30 1.68444 -3.15847e-15 -2.24452e-15 0.0743172 -1.08803e-15 -1.293e-15)
(-2.51809e-15 1.98499e-29 2.13193e-31 1.64471 6.70532e-15 -1.48905e-14 0.0736186 -2.99528e-16 -6.76258e-16)
(0 -1.28468e-29 0 1.64471 -6.75644e-15 -2.04772e-15 0.0736186 -1.12147e-15 -1.32295e-15)
(2.52329e-15 -2.38124e-29 -2.26291e-31 1.60588 6.0209e-15 -1.49906e-14 0.0729248 -3.03641e-16 -6.91857e-16)
(2.01864e-14 2.11044e-29 0 1.60588 -6.31832e-15 -2.12225e-15 0.0729248 -1.23541e-15 -1.35663e-15)
(2.34209e-15 -1.66415e-29 -2.08019e-30 1.56793 4.04095e-15 -1.52174e-14 0.0722357 -2.45389e-16 -7.1722e-16)
(7.77171e-15 1.66415e-29 2.08019e-30 1.56793 -6.93988e-15 -2.05137e-15 0.0722357 -1.26923e-15 -1.39268e-15)
(4.84208e-15 -1.09236e-29 -2.52178e-31 1.53083 3.59689e-15 -1.56004e-14 0.0715513 -1.27891e-16 -7.48359e-16)
(-2.30852e-15 8.20151e-30 0 1.53083 -6.70165e-15 -2.02791e-15 0.0715513 -1.33385e-15 -1.42509e-15)
(2.8018e-15 -5.41016e-30 1.48401e-30 1.49457 4.72575e-15 -1.58942e-14 0.0708713 -2.10563e-16 -7.6643e-16)
(1.01545e-14 0 0 1.49457 -5.6112e-15 -2.09213e-15 0.0708713 -1.34107e-15 -1.46616e-15)
(0 7.96809e-30 1.99202e-30 1.45913 4.78471e-15 -1.6108e-14 0.0701958 -2.39996e-16 -7.91104e-16)
(0 -3.98405e-30 1.99202e-30 1.45913 -7.50304e-15 -1.93482e-15 0.0701958 -1.37736e-15 -1.51045e-15)