/*--------------------------------*- C++ -*----------------------------------*\
| =========                 |                                                 |
| \\      /  F ield         | OpenFOAM: The Open Source CFD Toolbox           |
|  \\    /   O peration     | Version:  2012                                  |
|   \\  /    A nd           | Website:  www.openfoam.com                      |
|    \\/     M anipulation  |                                                 |
\*---------------------------------------------------------------------------*/
FoamFile
{
    version     2.0;
    format      ascii;
    class       volSymmTensorField;
    location    "3000";
    object      turbulenceProperties:R;
}
// * * * * * * * * * * * * * * * * * * * * * * * * * * * * * * * * * * * * * //

dimensions      [0 2 -2 0 0 0 0];


internalField   nonuniform List<symmTensor> 
2560
(
(1.50363e-06 -7.30453e-10 -1.05739e-12 1.50363e-06 3.19395e-24 1.50363e-06)
(1.50363e-06 -7.30453e-10 -1.05739e-12 1.50363e-06 4.52298e-24 1.50363e-06)
(3.59196e-07 -1.00286e-09 -4.37649e-12 3.59196e-07 3.80716e-24 3.59196e-07)
(3.59196e-07 -1.00286e-09 -4.37649e-12 3.59196e-07 7.14579e-25 3.59196e-07)
(1.06387e-06 -8.7602e-09 -5.25826e-11 1.06387e-06 5.46152e-24 1.06387e-06)
(1.06387e-06 -8.7602e-09 -5.25826e-11 1.06387e-06 3.12244e-24 1.06387e-06)
(3.70632e-06 -6.4677e-08 -3.93845e-10 3.70632e-06 2.84815e-23 3.70632e-06)
(3.70632e-06 -6.4677e-08 -3.93845e-10 3.70632e-06 2.33731e-23 3.70632e-06)
(9.64361e-06 -2.96462e-07 -1.83137e-09 9.64361e-06 1.33731e-22 9.64361e-06)
(9.64361e-06 -2.96462e-07 -1.83137e-09 9.64361e-06 1.08304e-22 9.64361e-06)
(2.05987e-05 -9.94088e-07 -6.22914e-09 2.05987e-05 4.45912e-22 2.05987e-05)
(2.05987e-05 -9.94088e-07 -6.22914e-09 2.05987e-05 3.6501e-22 2.05987e-05)
(3.85632e-05 -2.70066e-06 -1.71637e-08 3.85632e-05 1.21103e-21 3.85632e-05)
(3.85632e-05 -2.70066e-06 -1.71637e-08 3.85632e-05 9.86684e-22 3.85632e-05)
(6.57462e-05 -6.3069e-06 -4.06447e-08 6.57462e-05 2.80106e-21 6.57462e-05)
(6.57462e-05 -6.3069e-06 -4.06447e-08 6.57462e-05 2.25611e-21 6.57462e-05)
(0.000104499 -1.31257e-05 -8.57493e-08 0.000104499 5.66624e-21 0.000104499)
(0.000104499 -1.31257e-05 -8.57493e-08 0.000104499 4.48725e-21 0.000104499)
(0.000157193 -2.49102e-05 -1.64906e-07 0.000157193 1.01864e-20 0.000157193)
(0.000157193 -2.49102e-05 -1.64906e-07 0.000157193 7.85415e-21 0.000157193)
(0.000226043 -4.37706e-05 -2.93493e-07 0.000226043 1.6372e-20 0.000226043)
(0.000226043 -4.37706e-05 -2.93493e-07 0.000226043 1.2073e-20 0.000226043)
(0.000312864 -7.19563e-05 -4.88467e-07 0.000312864 2.34398e-20 0.000312864)
(0.000312864 -7.19563e-05 -4.88467e-07 0.000312864 1.60047e-20 0.000312864)
(0.000418805 -0.000111508 -7.66003e-07 0.000418805 2.94777e-20 0.000418805)
(0.000418805 -0.000111508 -7.66003e-07 0.000418805 1.73488e-20 0.000418805)
(0.000544098 -0.000163843 -1.13857e-06 0.000544098 3.13744e-20 0.000544098)
(0.000544098 -0.000163843 -1.13857e-06 0.000544098 1.10332e-20 0.000544098)
(0.000687892 -0.000229391 -1.61225e-06 0.000687892 2.5504e-20 0.000687892)
(0.000687892 -0.000229391 -1.61225e-06 0.000687892 7.16269e-22 0.000687892)
(0.000848239 -0.000307415 -2.18526e-06 0.000848239 8.52576e-21 0.000848239)
(0.000848239 -0.000307415 -2.18526e-06 0.000848239 -2.94563e-20 0.000848239)
(0.00102225 -0.00039608 -2.84814e-06 0.00102225 -2.12556e-20 0.00102225)
(0.00102225 -0.00039608 -2.84814e-06 0.00102225 -7.16639e-20 0.00102225)
(0.00120637 -0.000492759 -3.58555e-06 0.00120637 -6.34075e-20 0.00120637)
(0.00120637 -0.000492759 -3.58555e-06 0.00120637 -1.27515e-19 0.00120637)
(0.00139678 -0.00059445 -4.3789e-06 0.00139678 -1.15356e-19 0.00139678)
(0.00139678 -0.00059445 -4.3789e-06 0.00139678 -1.93923e-19 0.00139678)
(0.00158974 -0.000698194 -5.20903e-06 0.00158974 -1.73016e-19 0.00158974)
(0.00158974 -0.000698194 -5.20903e-06 0.00158974 -2.66286e-19 0.00158974)
(0.00178184 -0.000801381 -6.05828e-06 0.00178184 -2.31662e-19 0.00178184)
(0.00178184 -0.000801381 -6.05828e-06 0.00178184 -3.39758e-19 0.00178184)
(0.00197022 -0.000901918 -6.91177e-06 0.00197022 -2.87121e-19 0.00197022)
(0.00197022 -0.000901918 -6.91177e-06 0.00197022 -4.09922e-19 0.00197022)
(0.0021526 -0.000998273 -7.75785e-06 0.0021526 -3.35976e-19 0.0021526)
(0.0021526 -0.000998273 -7.75785e-06 0.0021526 -4.73255e-19 0.0021526)
(0.00232733 -0.00108943 -8.588e-06 0.00232733 -3.75678e-19 0.00232733)
(0.00232733 -0.00108943 -8.588e-06 0.00232733 -5.2734e-19 0.00232733)
(0.00249327 -0.00117481 -9.39645e-06 0.00249327 -4.05177e-19 0.00249327)
(0.00249327 -0.00117481 -9.39645e-06 0.00249327 -5.70837e-19 0.00249327)
(0.00264974 -0.00125416 -1.01796e-05 0.00264974 -4.24128e-19 0.00264974)
(0.00264974 -0.00125416 -1.01796e-05 0.00264974 -6.03464e-19 0.00264974)
(0.00279641 -0.00132748 -1.09358e-05 0.00279641 -4.3214e-19 0.00279641)
(0.00279641 -0.00132748 -1.09358e-05 0.00279641 -6.25927e-19 0.00279641)
(0.00293324 -0.00139492 -1.16642e-05 0.00293324 -4.30165e-19 0.00293324)
(0.00293324 -0.00139492 -1.16642e-05 0.00293324 -6.39313e-19 0.00293324)
(0.0030604 -0.00145675 -1.23652e-05 0.0030604 -4.19185e-19 0.0030604)
(0.0030604 -0.00145675 -1.23652e-05 0.0030604 -6.44394e-19 0.0030604)
(0.00317817 -0.00151327 -1.30396e-05 0.00317817 -3.99872e-19 0.00317817)
(0.00317817 -0.00151327 -1.30396e-05 0.00317817 -6.40922e-19 0.00317817)
(0.00328695 -0.00156484 -1.36886e-05 0.00328695 -3.72924e-19 0.00328695)
(0.00328695 -0.00156484 -1.36886e-05 0.00328695 -6.28789e-19 0.00328695)
(0.00338717 -0.00161181 -1.43137e-05 0.00338717 -3.38881e-19 0.00338717)
(0.00338717 -0.00161181 -1.43137e-05 0.00338717 -6.10499e-19 0.00338717)
(0.00347931 -0.00165453 -1.49161e-05 0.00347931 -2.98809e-19 0.00347931)
(0.00347931 -0.00165453 -1.49161e-05 0.00347931 -5.88033e-19 0.00347931)
(0.00356385 -0.00169332 -1.54976e-05 0.00356385 -2.53451e-19 0.00356385)
(0.00356385 -0.00169332 -1.54976e-05 0.00356385 -5.61395e-19 0.00356385)
(0.00364127 -0.00172849 -1.60594e-05 0.00364127 -2.03628e-19 0.00364127)
(0.00364127 -0.00172849 -1.60594e-05 0.00364127 -5.31762e-19 0.00364127)
(0.00371201 -0.00176034 -1.66031e-05 0.00371201 -1.50161e-19 0.00371201)
(0.00371201 -0.00176034 -1.66031e-05 0.00371201 -4.98108e-19 0.00371201)
(0.00377652 -0.00178912 -1.71298e-05 0.00377652 -9.3536e-20 0.00377652)
(0.00377652 -0.00178912 -1.71298e-05 0.00377652 -4.6014e-19 0.00377652)
(0.00383521 -0.00181508 -1.76409e-05 0.00383521 -3.30926e-20 0.00383521)
(0.00383521 -0.00181508 -1.76409e-05 0.00383521 -4.21225e-19 0.00383521)
(0.00388848 -0.00183843 -1.81373e-05 0.00388848 3.07416e-20 0.00388848)
(0.00388848 -0.00183843 -1.81373e-05 0.00388848 -3.79173e-19 0.00388848)
(0.00393668 -0.00185937 -1.86203e-05 0.00393668 9.78959e-20 0.00393668)
(0.00393668 -0.00185937 -1.86203e-05 0.00393668 -3.35544e-19 0.00393668)
(0.00398016 -0.00187809 -1.90906e-05 0.00398016 1.66471e-19 0.00398016)
(0.00398016 -0.00187809 -1.90906e-05 0.00398016 -2.92667e-19 0.00398016)
(0.00401922 -0.00189474 -1.95492e-05 0.00401922 2.35918e-19 0.00401922)
(0.00401922 -0.00189474 -1.95492e-05 0.00401922 -2.47675e-19 0.00401922)
(0.00405415 -0.00190949 -1.99968e-05 0.00405415 3.09525e-19 0.00405415)
(0.00405415 -0.00190949 -1.99968e-05 0.00405415 -2.00468e-19 0.00405415)
(0.00408523 -0.00192245 -2.04341e-05 0.00408523 3.85748e-19 0.00408523)
(0.00408523 -0.00192245 -2.04341e-05 0.00408523 -1.51297e-19 0.00408523)
(0.00411269 -0.00193376 -2.08617e-05 0.00411269 4.62393e-19 0.00411269)
(0.00411269 -0.00193376 -2.08617e-05 0.00411269 -1.0009e-19 0.00411269)
(0.00413677 -0.00194352 -2.12802e-05 0.00413677 5.41138e-19 0.00413677)
(0.00413677 -0.00194352 -2.12802e-05 0.00413677 -4.89478e-20 0.00413677)
(0.00415767 -0.00195184 -2.16901e-05 0.00415767 6.20061e-19 0.00415767)
(0.00415767 -0.00195184 -2.16901e-05 0.00415767 1.46205e-21 0.00415767)
(0.00417559 -0.00195881 -2.20919e-05 0.00417559 6.99593e-19 0.00417559)
(0.00417559 -0.00195881 -2.20919e-05 0.00417559 5.2829e-20 0.00417559)
(0.00419071 -0.00196451 -2.24859e-05 0.00419071 7.83259e-19 0.00419071)
(0.00419071 -0.00196451 -2.24859e-05 0.00419071 1.05198e-19 0.00419071)
(0.00420319 -0.00196902 -2.28726e-05 0.00420319 8.70378e-19 0.00420319)
(0.00420319 -0.00196902 -2.28726e-05 0.00420319 1.58345e-19 0.00420319)
(0.00421318 -0.00197241 -2.32523e-05 0.00421318 9.56749e-19 0.00421318)
(0.00421318 -0.00197241 -2.32523e-05 0.00421318 2.14348e-19 0.00421318)
(0.00422083 -0.00197475 -2.36252e-05 0.00422083 1.04618e-18 0.00422083)
(0.00422083 -0.00197475 -2.36252e-05 0.00422083 2.71286e-19 0.00422083)
(0.00422627 -0.00197609 -2.39917e-05 0.00422627 1.13691e-18 0.00422627)
(0.00422627 -0.00197609 -2.39917e-05 0.00422627 3.29279e-19 0.00422627)
(0.00422961 -0.00197649 -2.4352e-05 0.00422961 1.22526e-18 0.00422961)
(0.00422961 -0.00197649 -2.4352e-05 0.00422961 3.94099e-19 0.00422961)
(0.00423097 -0.001976 -2.47063e-05 0.00423097 9.85333e-21 0.00423097)
(0.00423097 -0.001976 -2.47063e-05 0.00423097 4.52231e-19 0.00423097)
(0.00423046 -0.00197467 -2.50547e-05 0.00423046 -1.36992e-18 0.00423046)
(0.00423046 -0.00197467 -2.50547e-05 0.00423046 5.00877e-19 0.00423046)
(0.00422817 -0.00197255 -2.53975e-05 0.00422817 -1.9244e-18 0.00422817)
(0.00422817 -0.00197255 -2.53975e-05 0.00422817 5.55765e-19 0.00422817)
(0.0042242 -0.00196966 -2.57348e-05 0.0042242 -1.9031e-18 0.0042242)
(0.0042242 -0.00196966 -2.57348e-05 0.0042242 6.28797e-19 0.0042242)
(0.00421862 -0.00196606 -2.60668e-05 0.00421862 -1.892e-18 0.00421862)
(0.00421862 -0.00196606 -2.60668e-05 0.00421862 6.97596e-19 0.00421862)
(0.00421153 -0.00196177 -2.63934e-05 0.00421153 -1.88927e-18 0.00421153)
(0.00421153 -0.00196177 -2.63934e-05 0.00421153 7.57526e-19 0.00421153)
(0.00420299 -0.00195684 -2.6715e-05 0.00420299 -1.87817e-18 0.00420299)
(0.00420299 -0.00195684 -2.6715e-05 0.00420299 8.12948e-19 0.00420299)
(0.00419308 -0.00195128 -2.70314e-05 0.00419308 -1.86442e-18 0.00419308)
(0.00419308 -0.00195128 -2.70314e-05 0.00419308 8.72743e-19 0.00419308)
(0.00418185 -0.00194513 -2.73429e-05 0.00418185 -1.84909e-18 0.00418185)
(0.00418185 -0.00194513 -2.73429e-05 0.00418185 9.51917e-19 0.00418185)
(0.00416938 -0.00193843 -2.76495e-05 0.00416938 -1.84406e-18 0.00416938)
(0.00416938 -0.00193843 -2.76495e-05 0.00416938 1.02092e-18 0.00416938)
(0.00415572 -0.00193118 -2.79512e-05 0.00415572 -1.8481e-18 0.00415572)
(0.00415572 -0.00193118 -2.79512e-05 0.00415572 1.07424e-18 0.00415572)
(0.00414093 -0.00192343 -2.82481e-05 0.00414093 -1.85327e-18 0.00414093)
(0.00414093 -0.00192343 -2.82481e-05 0.00414093 1.13657e-18 0.00414093)
(0.00412506 -0.00191519 -2.85402e-05 0.00412506 -1.84764e-18 0.00412506)
(0.00412506 -0.00191519 -2.85402e-05 0.00412506 1.21138e-18 0.00412506)
(0.00410815 -0.00190648 -2.88276e-05 0.00410815 -1.83012e-18 0.00410815)
(0.00410815 -0.00190648 -2.88276e-05 0.00410815 1.28987e-18 0.00410815)
(0.00409026 -0.00189733 -2.91103e-05 0.00409026 -1.81641e-18 0.00409026)
(0.00409026 -0.00189733 -2.91103e-05 0.00409026 1.36363e-18 0.00409026)
(0.00407143 -0.00188775 -2.93883e-05 0.00407143 -1.81519e-18 0.00407143)
(0.00407143 -0.00188775 -2.93883e-05 0.00407143 1.42499e-18 0.00407143)
(0.00405171 -0.00187777 -2.96616e-05 0.00405171 -1.81166e-18 0.00405171)
(0.00405171 -0.00187777 -2.96616e-05 0.00405171 1.49061e-18 0.00405171)
(0.00403113 -0.0018674 -2.99302e-05 0.00403113 -1.79103e-18 0.00403113)
(0.00403113 -0.0018674 -2.99302e-05 0.00403113 1.5744e-18 0.00403113)
(0.00400973 -0.00185667 -3.01942e-05 0.00400973 -1.77531e-18 0.00400973)
(0.00400973 -0.00185667 -3.01942e-05 0.00400973 1.66069e-18 0.00400973)
(0.00398755 -0.00184558 -3.04536e-05 0.00398755 -1.75621e-18 0.00398755)
(0.00398755 -0.00184558 -3.04536e-05 0.00398755 1.73565e-18 0.00398755)
(0.00396462 -0.00183415 -3.07083e-05 0.00396462 -1.74481e-18 0.00396462)
(0.00396462 -0.00183415 -3.07083e-05 0.00396462 1.802e-18 0.00396462)
(0.00394098 -0.00182241 -3.09583e-05 0.00394098 -1.75062e-18 0.00394098)
(0.00394098 -0.00182241 -3.09583e-05 0.00394098 1.8853e-18 0.00394098)
(0.00391666 -0.00181035 -3.12037e-05 0.00391666 -1.74462e-18 0.00391666)
(0.00391666 -0.00181035 -3.12037e-05 0.00391666 1.96193e-18 0.00391666)
(0.0038917 -0.00179801 -3.14444e-05 0.0038917 -1.70623e-18 0.0038917)
(0.0038917 -0.00179801 -3.14444e-05 0.0038917 2.03206e-18 0.0038917)
(0.00386611 -0.00178539 -3.16804e-05 0.00386611 -1.68278e-18 0.00386611)
(0.00386611 -0.00178539 -3.16804e-05 0.00386611 2.12333e-18 0.00386611)
(0.00383994 -0.0017725 -3.19117e-05 0.00383994 -1.69224e-18 0.00383994)
(0.00383994 -0.0017725 -3.19117e-05 0.00383994 2.17379e-18 0.00383994)
(0.0038132 -0.00175937 -3.21383e-05 0.0038132 -1.00567e-18 0.0038132)
(0.0038132 -0.00175937 -3.21383e-05 0.0038132 2.11957e-18 0.0038132)
(0.00378592 -0.00174599 -3.23602e-05 0.00378592 5.81546e-19 0.00378592)
(0.00378592 -0.00174599 -3.23602e-05 0.00378592 2.41345e-19 0.00378592)
(0.00375814 -0.00173239 -3.25773e-05 0.00375814 1.48967e-18 0.00375814)
(0.00375814 -0.00173239 -3.25773e-05 0.00375814 1.9454e-19 0.00375814)
(0.00372987 -0.00171857 -3.27897e-05 0.00372987 1.53239e-18 0.00372987)
(0.00372987 -0.00171857 -3.27897e-05 0.00372987 1.78e-19 0.00372987)
(0.00370114 -0.00170455 -3.29973e-05 0.00370114 1.58385e-18 0.00370114)
(0.00370114 -0.00170455 -3.29973e-05 0.00370114 1.85552e-19 0.00370114)
(0.00367198 -0.00169034 -3.32e-05 0.00367198 1.6462e-18 0.00367198)
(0.00367198 -0.00169034 -3.32e-05 0.00367198 1.48758e-19 0.00367198)
(0.0036424 -0.00167595 -3.3398e-05 0.0036424 1.67718e-18 0.0036424)
(0.0036424 -0.00167595 -3.3398e-05 0.0036424 1.1148e-18 0.0036424)
(0.00361242 -0.00166138 -3.3591e-05 0.00361242 1.73491e-18 0.00361242)
(0.00361242 -0.00166138 -3.3591e-05 0.00361242 2.91404e-18 0.00361242)
(0.00358208 -0.00164666 -3.37792e-05 0.00358208 1.7949e-18 0.00358208)
(0.00358208 -0.00164666 -3.37792e-05 0.00358208 3.70322e-18 0.00358208)
(0.00355138 -0.00163178 -3.39625e-05 0.00355138 1.84045e-18 0.00355138)
(0.00355138 -0.00163178 -3.39625e-05 0.00355138 3.69808e-18 0.00355138)
(0.00352035 -0.00161676 -3.41409e-05 0.00352035 1.89886e-18 0.00352035)
(0.00352035 -0.00161676 -3.41409e-05 0.00352035 3.70921e-18 0.00352035)
(0.00348901 -0.00160161 -3.43144e-05 0.00348901 1.94858e-18 0.00348901)
(0.00348901 -0.00160161 -3.43144e-05 0.00348901 3.71591e-18 0.00348901)
(0.00345738 -0.00158633 -3.44829e-05 0.00345738 1.97928e-18 0.00345738)
(0.00345738 -0.00158633 -3.44829e-05 0.00345738 3.68044e-18 0.00345738)
(0.00342547 -0.00157095 -3.46464e-05 0.00342547 2.02496e-18 0.00342547)
(0.00342547 -0.00157095 -3.46464e-05 0.00342547 3.63725e-18 0.00342547)
(0.00339331 -0.00155545 -3.48049e-05 0.00339331 2.08181e-18 0.00339331)
(0.00339331 -0.00155545 -3.48049e-05 0.00339331 3.63411e-18 0.00339331)
(0.00336091 -0.00153986 -3.49584e-05 0.00336091 2.15225e-18 0.00336091)
(0.00336091 -0.00153986 -3.49584e-05 0.00336091 3.63133e-18 0.00336091)
(0.00332828 -0.00152418 -3.51068e-05 0.00332828 2.24901e-18 0.00332828)
(0.00332828 -0.00152418 -3.51068e-05 0.00332828 3.57909e-18 0.00332828)
(0.00329545 -0.00150842 -3.52502e-05 0.00329545 2.28614e-18 0.00329545)
(0.00329545 -0.00150842 -3.52502e-05 0.00329545 3.53308e-18 0.00329545)
(0.00326244 -0.00149258 -3.53885e-05 0.00326244 2.32028e-18 0.00326244)
(0.00326244 -0.00149258 -3.53885e-05 0.00326244 3.49914e-18 0.00326244)
(0.00322924 -0.00147668 -3.55218e-05 0.00322924 2.38671e-18 0.00322924)
(0.00322924 -0.00147668 -3.55218e-05 0.00322924 3.45751e-18 0.00322924)
(0.0031959 -0.00146073 -3.56499e-05 0.0031959 2.50863e-18 0.0031959)
(0.0031959 -0.00146073 -3.56499e-05 0.0031959 3.43491e-18 0.0031959)
(0.0031624 -0.00144472 -3.57728e-05 0.0031624 2.56992e-18 0.0031624)
(0.0031624 -0.00144472 -3.57728e-05 0.0031624 3.47978e-18 0.0031624)
(0.00312878 -0.00142866 -3.58907e-05 0.00312878 2.56449e-18 0.00312878)
(0.00312878 -0.00142866 -3.58907e-05 0.00312878 3.48369e-18 0.00312878)
(0.00309505 -0.00141257 -3.60034e-05 0.00309505 2.6902e-18 0.00309505)
(0.00309505 -0.00141257 -3.60034e-05 0.00309505 3.39626e-18 0.00309505)
(0.00306122 -0.00139646 -3.61109e-05 0.00306122 2.80511e-18 0.00306122)
(0.00306122 -0.00139646 -3.61109e-05 0.00306122 3.37999e-18 0.00306122)
(0.0030273 -0.00138031 -3.62133e-05 0.0030273 2.82996e-18 0.0030273)
(0.0030273 -0.00138031 -3.62133e-05 0.0030273 3.39e-18 0.0030273)
(0.00299331 -0.00136415 -3.63105e-05 0.00299331 2.88228e-18 0.00299331)
(0.00299331 -0.00136415 -3.63105e-05 0.00299331 3.33516e-18 0.00299331)
(0.00295926 -0.00134798 -3.64025e-05 0.00295926 3.01715e-18 0.00295926)
(0.00295926 -0.00134798 -3.64025e-05 0.00295926 3.30565e-18 0.00295926)
(0.00292516 -0.00133181 -3.64893e-05 0.00292516 3.11143e-18 0.00292516)
(0.00292516 -0.00133181 -3.64893e-05 0.00292516 3.32899e-18 0.00292516)
(0.00289103 -0.00131564 -3.65709e-05 0.00289103 3.19199e-18 0.00289103)
(0.00289103 -0.00131564 -3.65709e-05 0.00289103 3.34093e-18 0.00289103)
(0.00285687 -0.00129947 -3.66473e-05 0.00285687 3.30849e-18 0.00285687)
(0.00285687 -0.00129947 -3.66473e-05 0.00285687 3.33827e-18 0.00285687)
(0.00282271 -0.00128332 -3.67186e-05 0.00282271 3.37722e-18 0.00282271)
(0.00282271 -0.00128332 -3.67186e-05 0.00282271 3.35115e-18 0.00282271)
(0.00278855 -0.00126718 -3.67846e-05 0.00278855 3.42801e-18 0.00278855)
(0.00278855 -0.00126718 -3.67846e-05 0.00278855 3.31167e-18 0.00278855)
(0.0027544 -0.00125107 -3.68454e-05 0.0027544 3.577e-18 0.0027544)
(0.0027544 -0.00125107 -3.68454e-05 0.0027544 3.21432e-18 0.0027544)
(0.00272027 -0.00123499 -3.6901e-05 0.00272027 3.74714e-18 0.00272027)
(0.00272027 -0.00123499 -3.6901e-05 0.00272027 3.22804e-18 0.00272027)
(0.00268618 -0.00121894 -3.69515e-05 0.00268618 3.83278e-18 0.00268618)
(0.00268618 -0.00121894 -3.69515e-05 0.00268618 3.27714e-18 0.00268618)
(0.00265214 -0.00120293 -3.69968e-05 0.00265214 3.94377e-18 0.00265214)
(0.00265214 -0.00120293 -3.69968e-05 0.00265214 3.29886e-18 0.00265214)
(0.00261815 -0.00118697 -3.70369e-05 0.00261815 3.99965e-18 0.00261815)
(0.00261815 -0.00118697 -3.70369e-05 0.00261815 3.37553e-18 0.00261815)
(0.00258423 -0.00117105 -3.70718e-05 0.00258423 4.04389e-18 0.00258423)
(0.00258423 -0.00117105 -3.70718e-05 0.00258423 3.29889e-18 0.00258423)
(0.00255038 -0.00115519 -3.71016e-05 0.00255038 4.28867e-18 0.00255038)
(0.00255038 -0.00115519 -3.71016e-05 0.00255038 3.17699e-18 0.00255038)
(0.00251662 -0.00113939 -3.71263e-05 0.00251662 4.39741e-18 0.00251662)
(0.00251662 -0.00113939 -3.71263e-05 0.00251662 3.28267e-18 0.00251662)
(0.00248295 -0.00112364 -3.71458e-05 0.00248295 4.46254e-18 0.00248295)
(0.00248295 -0.00112364 -3.71458e-05 0.00248295 3.34994e-18 0.00248295)
(0.00244938 -0.00110797 -3.71603e-05 0.00244938 4.58509e-18 0.00244938)
(0.00244938 -0.00110797 -3.71603e-05 0.00244938 3.3301e-18 0.00244938)
(0.00241593 -0.00109236 -3.71697e-05 0.00241593 4.75372e-18 0.00241593)
(0.00241593 -0.00109236 -3.71697e-05 0.00241593 3.37385e-18 0.00241593)
(0.0023826 -0.00107683 -3.7174e-05 0.0023826 4.8825e-18 0.0023826)
(0.0023826 -0.00107683 -3.7174e-05 0.0023826 3.42856e-18 0.0023826)
(0.0023494 -0.00106138 -3.71733e-05 0.0023494 4.93453e-18 0.0023494)
(0.0023494 -0.00106138 -3.71733e-05 0.0023494 3.30976e-18 0.0023494)
(0.00231633 -0.001046 -3.71676e-05 0.00231633 5.00858e-18 0.00231633)
(0.00231633 -0.001046 -3.71676e-05 0.00231633 3.12004e-18 0.00231633)
(0.00228341 -0.00103072 -3.71569e-05 0.00228341 5.13889e-18 0.00228341)
(0.00228341 -0.00103072 -3.71569e-05 0.00228341 2.99273e-18 0.00228341)
(0.00225065 -0.00101552 -3.71412e-05 0.00225065 5.31963e-18 0.00225065)
(0.00225065 -0.00101552 -3.71412e-05 0.00225065 2.94817e-18 0.00225065)
(0.00221804 -0.00100041 -3.71206e-05 0.00221804 5.46378e-18 0.00221804)
(0.00221804 -0.00100041 -3.71206e-05 0.00221804 2.97572e-18 0.00221804)
(0.0021856 -0.000985398 -3.70951e-05 0.0021856 5.54007e-18 0.0021856)
(0.0021856 -0.000985398 -3.70951e-05 0.0021856 2.79517e-18 0.0021856)
(0.00215334 -0.000970485 -3.70648e-05 0.00215334 5.65191e-18 0.00215334)
(0.00215334 -0.000970485 -3.70648e-05 0.00215334 2.48336e-18 0.00215334)
(0.00212126 -0.000955672 -3.70296e-05 0.00212126 5.87911e-18 0.00212126)
(0.00212126 -0.000955672 -3.70296e-05 0.00212126 2.31711e-18 0.00212126)
(0.00208936 -0.000940964 -3.69896e-05 0.00208936 6.06836e-18 0.00208936)
(0.00208936 -0.000940964 -3.69896e-05 0.00208936 2.22355e-18 0.00208936)
(0.00205766 -0.000926362 -3.69449e-05 0.00205766 6.19397e-18 0.00205766)
(0.00205766 -0.000926362 -3.69449e-05 0.00205766 2.06497e-18 0.00205766)
(0.00202616 -0.00091187 -3.68955e-05 0.00202616 6.4284e-18 0.00202616)
(0.00202616 -0.00091187 -3.68955e-05 0.00202616 1.94289e-18 0.00202616)
(0.00199487 -0.000897489 -3.68414e-05 0.00199487 6.46503e-18 0.00199487)
(0.00199487 -0.000897489 -3.68414e-05 0.00199487 2.00977e-18 0.00199487)
(0.00196379 -0.000883223 -3.67826e-05 0.00196379 6.56761e-18 0.00196379)
(0.00196379 -0.000883223 -3.67826e-05 0.00196379 1.91244e-18 0.00196379)
(0.00193292 -0.000869073 -3.67193e-05 0.00193292 6.94707e-18 0.00193292)
(0.00193292 -0.000869073 -3.67193e-05 0.00193292 1.5831e-18 0.00193292)
(0.00190228 -0.000855042 -3.66514e-05 0.00190228 7.08753e-18 0.00190228)
(0.00190228 -0.000855042 -3.66514e-05 0.00190228 1.59337e-18 0.00190228)
(0.00187187 -0.000841132 -3.6579e-05 0.00187187 7.08806e-18 0.00187187)
(0.00187187 -0.000841132 -3.6579e-05 0.00187187 1.77298e-18 0.00187187)
(0.00184168 -0.000827344 -3.65022e-05 0.00184168 7.29045e-18 0.00184168)
(0.00184168 -0.000827344 -3.65022e-05 0.00184168 1.63684e-18 0.00184168)
(0.00181174 -0.000813681 -3.6421e-05 0.00181174 7.51488e-18 0.00181174)
(0.00181174 -0.000813681 -3.6421e-05 0.00181174 1.56787e-18 0.00181174)
(0.00178203 -0.000800144 -3.63354e-05 0.00178203 7.62049e-18 0.00178203)
(0.00178203 -0.000800144 -3.63354e-05 0.00178203 1.67298e-18 0.00178203)
(0.00175257 -0.000786735 -3.62455e-05 0.00175257 7.75873e-18 0.00175257)
(0.00175257 -0.000786735 -3.62455e-05 0.00175257 1.66617e-18 0.00175257)
(0.00172336 -0.000773456 -3.61514e-05 0.00172336 7.94675e-18 0.00172336)
(0.00172336 -0.000773456 -3.61514e-05 0.00172336 1.69854e-18 0.00172336)
(0.00169441 -0.000760307 -3.60531e-05 0.00169441 8.19268e-18 0.00169441)
(0.00169441 -0.000760307 -3.60531e-05 0.00169441 1.74651e-18 0.00169441)
(0.00166571 -0.000747291 -3.59506e-05 0.00166571 8.37259e-18 0.00166571)
(0.00166571 -0.000747291 -3.59506e-05 0.00166571 1.69632e-18 0.00166571)
(0.00163727 -0.000734409 -3.58441e-05 0.00163727 8.49454e-18 0.00163727)
(0.00163727 -0.000734409 -3.58441e-05 0.00163727 1.72127e-18 0.00163727)
(0.00160909 -0.000721661 -3.57335e-05 0.00160909 8.66647e-18 0.00160909)
(0.00160909 -0.000721661 -3.57335e-05 0.00160909 1.77366e-18 0.00160909)
(0.00158118 -0.000709049 -3.56189e-05 0.00158118 8.82558e-18 0.00158118)
(0.00158118 -0.000709049 -3.56189e-05 0.00158118 1.73622e-18 0.00158118)
(0.00155354 -0.000696574 -3.55004e-05 0.00155354 8.97098e-18 0.00155354)
(0.00155354 -0.000696574 -3.55004e-05 0.00155354 1.74613e-18 0.00155354)
(0.00152617 -0.000684236 -3.53781e-05 0.00152617 7.15863e-18 0.00152617)
(0.00152617 -0.000684236 -3.53781e-05 0.00152617 1.8102e-18 0.00152617)
(0.00149908 -0.000672037 -3.52519e-05 0.00149908 3.7978e-18 0.00149908)
(0.00149908 -0.000672037 -3.52519e-05 0.00149908 1.80086e-18 0.00149908)
(0.00147226 -0.000659977 -3.5122e-05 0.00147226 2.15155e-18 0.00147226)
(0.00147226 -0.000659977 -3.5122e-05 0.00147226 1.82272e-18 0.00147226)
(0.00144572 -0.000648056 -3.49885e-05 0.00144572 1.90349e-18 0.00144572)
(0.00144572 -0.000648056 -3.49885e-05 0.00144572 1.79536e-18 0.00144572)
(0.00141946 -0.000636276 -3.48513e-05 0.00141946 1.90641e-18 0.00141946)
(0.00141946 -0.000636276 -3.48513e-05 0.00141946 1.65192e-18 0.00141946)
(0.00139349 -0.000624637 -3.47105e-05 0.00139349 2.03587e-18 0.00139349)
(0.00139349 -0.000624637 -3.47105e-05 0.00139349 1.73683e-18 0.00139349)
(0.00136779 -0.000613139 -3.45662e-05 0.00136779 2.1302e-18 0.00136779)
(0.00136779 -0.000613139 -3.45662e-05 0.00136779 2.11481e-18 0.00136779)
(0.00134239 -0.000601782 -3.44185e-05 0.00134239 2.32455e-18 0.00134239)
(0.00134239 -0.000601782 -3.44185e-05 0.00134239 2.32454e-18 0.00134239)
(0.00131727 -0.000590567 -3.42674e-05 0.00131727 2.27491e-18 0.00131727)
(0.00131727 -0.000590567 -3.42674e-05 0.00131727 2.52965e-18 0.00131727)
(0.00129243 -0.000579493 -3.4113e-05 0.00129243 1.34339e-18 0.00129243)
(0.00129243 -0.000579493 -3.4113e-05 0.00129243 2.90355e-18 0.00129243)
(0.00126789 -0.000568562 -3.39553e-05 0.00126789 6.12807e-19 0.00126789)
(0.00126789 -0.000568562 -3.39553e-05 0.00126789 2.76841e-18 0.00126789)
(0.00124363 -0.000557772 -3.37944e-05 0.00124363 4.60937e-19 0.00124363)
(0.00124363 -0.000557772 -3.37944e-05 0.00124363 2.50426e-18 0.00124363)
(0.00121966 -0.000547124 -3.36303e-05 0.00121966 6.65327e-20 0.00121966)
(0.00121966 -0.000547124 -3.36303e-05 0.00121966 2.44044e-18 0.00121966)
(0.00119598 -0.000536617 -3.34632e-05 0.00119598 -3.41421e-20 0.00119598)
(0.00119598 -0.000536617 -3.34632e-05 0.00119598 2.31052e-18 0.00119598)
(0.0011726 -0.000526252 -3.32931e-05 0.0011726 -1.90004e-19 0.0011726)
(0.0011726 -0.000526252 -3.32931e-05 0.0011726 2.19918e-18 0.0011726)
(0.0011495 -0.000516027 -3.312e-05 0.0011495 -1.83367e-19 0.0011495)
(0.0011495 -0.000516027 -3.312e-05 0.0011495 2.18634e-18 0.0011495)
(0.0011267 -0.000505944 -3.29439e-05 0.0011267 -2.02592e-19 0.0011267)
(0.0011267 -0.000505944 -3.29439e-05 0.0011267 2.27664e-18 0.0011267)
(0.00110418 -0.000496001 -3.27651e-05 0.00110418 -4.09765e-19 0.00110418)
(0.00110418 -0.000496001 -3.27651e-05 0.00110418 2.23563e-18 0.00110418)
(0.00108195 -0.000486198 -3.25834e-05 0.00108195 -6.32627e-19 0.00108195)
(0.00108195 -0.000486198 -3.25834e-05 0.00108195 2.20169e-18 0.00108195)
(0.00106002 -0.000476534 -3.2399e-05 0.00106002 -7.10577e-19 0.00106002)
(0.00106002 -0.000476534 -3.2399e-05 0.00106002 2.18835e-18 0.00106002)
(0.00103837 -0.000467009 -3.22119e-05 0.00103837 -6.10235e-19 0.00103837)
(0.00103837 -0.000467009 -3.22119e-05 0.00103837 2.09092e-18 0.00103837)
(0.00101701 -0.000457621 -3.20223e-05 0.00101701 -4.91258e-19 0.00101701)
(0.00101701 -0.000457621 -3.20223e-05 0.00101701 1.95911e-18 0.00101701)
(0.000995945 -0.000448372 -3.183e-05 0.000995945 -5.00743e-19 0.000995945)
(0.000995945 -0.000448372 -3.183e-05 0.000995945 1.89412e-18 0.000995945)
(0.000975162 -0.000439259 -3.16352e-05 0.000975162 -9.19559e-19 0.000975162)
(0.000975162 -0.000439259 -3.16352e-05 0.000975162 1.93566e-18 0.000975162)
(0.000954665 -0.000430282 -3.1438e-05 0.000954665 -1.0747e-18 0.000954665)
(0.000954665 -0.000430282 -3.1438e-05 0.000954665 1.79376e-18 0.000954665)
(0.000934453 -0.00042144 -3.12384e-05 0.000934453 -8.65273e-19 0.000934453)
(0.000934453 -0.00042144 -3.12384e-05 0.000934453 1.69379e-18 0.000934453)
(0.000914526 -0.000412733 -3.10364e-05 0.000914526 -6.76005e-19 0.000914526)
(0.000914526 -0.000412733 -3.10364e-05 0.000914526 1.67203e-18 0.000914526)
(0.000894881 -0.000404158 -3.08321e-05 0.000894881 -6.3483e-19 0.000894881)
(0.000894881 -0.000404158 -3.08321e-05 0.000894881 1.76835e-18 0.000894881)
(0.000875518 -0.000395717 -3.06256e-05 0.000875518 -6.78736e-19 0.000875518)
(0.000875518 -0.000395717 -3.06256e-05 0.000875518 1.83837e-18 0.000875518)
(0.000856434 -0.000387406 -3.04169e-05 0.000856434 -8.14447e-19 0.000856434)
(0.000856434 -0.000387406 -3.04169e-05 0.000856434 1.75097e-18 0.000856434)
(0.00083763 -0.000379226 -3.0206e-05 0.00083763 -7.5402e-19 0.00083763)
(0.00083763 -0.000379226 -3.0206e-05 0.00083763 1.72061e-18 0.00083763)
(0.000819102 -0.000371176 -2.9993e-05 0.000819102 -5.87137e-19 0.000819102)
(0.000819102 -0.000371176 -2.9993e-05 0.000819102 1.76059e-18 0.000819102)
(0.00080085 -0.000363253 -2.97779e-05 0.00080085 -9.02281e-19 0.00080085)
(0.00080085 -0.000363253 -2.97779e-05 0.00080085 1.73333e-18 0.00080085)
(0.000782872 -0.000355458 -2.95608e-05 0.000782872 -1.10919e-18 0.000782872)
(0.000782872 -0.000355458 -2.95608e-05 0.000782872 1.54224e-18 0.000782872)
(0.000765166 -0.000347789 -2.93418e-05 0.000765166 -1.4806e-18 0.000765166)
(0.000765166 -0.000347789 -2.93418e-05 0.000765166 1.62615e-18 0.000765166)
(0.000747731 -0.000340245 -2.91208e-05 0.000747731 -1.70254e-18 0.000747731)
(0.000747731 -0.000340245 -2.91208e-05 0.000747731 1.74298e-18 0.000747731)
(0.000730565 -0.000332824 -2.88979e-05 0.000730565 -1.75017e-18 0.000730565)
(0.000730565 -0.000332824 -2.88979e-05 0.000730565 1.70212e-18 0.000730565)
(0.000713666 -0.000325526 -2.86732e-05 0.000713666 -1.98225e-18 0.000713666)
(0.000713666 -0.000325526 -2.86732e-05 0.000713666 1.69205e-18 0.000713666)
(0.000697033 -0.00031835 -2.84467e-05 0.000697033 -1.98162e-18 0.000697033)
(0.000697033 -0.00031835 -2.84467e-05 0.000697033 1.84961e-18 0.000697033)
(0.000680662 -0.000311293 -2.82184e-05 0.000680662 -2.00647e-18 0.000680662)
(0.000680662 -0.000311293 -2.82184e-05 0.000680662 2.37735e-18 0.000680662)
(0.000664554 -0.000304355 -2.79884e-05 0.000664554 -1.94834e-18 0.000664554)
(0.000664554 -0.000304355 -2.79884e-05 0.000664554 2.62389e-18 0.000664554)
(0.000648706 -0.000297535 -2.77567e-05 0.000648706 -2.00555e-18 0.000648706)
(0.000648706 -0.000297535 -2.77567e-05 0.000648706 2.27412e-18 0.000648706)
(0.000633115 -0.000290831 -2.75233e-05 0.000633115 -2.27579e-18 0.000633115)
(0.000633115 -0.000290831 -2.75233e-05 0.000633115 2.31992e-18 0.000633115)
(0.000617782 -0.000284242 -2.72884e-05 0.000617782 -2.49218e-18 0.000617782)
(0.000617782 -0.000284242 -2.72884e-05 0.000617782 2.78448e-18 0.000617782)
(0.000602703 -0.000277767 -2.70519e-05 0.000602703 -2.44019e-18 0.000602703)
(0.000602703 -0.000277767 -2.70519e-05 0.000602703 2.61487e-18 0.000602703)
(0.000587877 -0.000271404 -2.68138e-05 0.000587877 -2.38879e-18 0.000587877)
(0.000587877 -0.000271404 -2.68138e-05 0.000587877 2.42145e-18 0.000587877)
(0.000573302 -0.000265153 -2.65743e-05 0.000573302 -2.67195e-18 0.000573302)
(0.000573302 -0.000265153 -2.65743e-05 0.000573302 2.85344e-18 0.000573302)
(0.000558977 -0.000259011 -2.63333e-05 0.000558977 -2.79412e-18 0.000558977)