/*--------------------------------*- C++ -*----------------------------------*\
| =========                 |                                                 |
| \\      /  F ield         | OpenFOAM: The Open Source CFD Toolbox           |
|  \\    /   O peration     | Version:  2012                                  |
|   \\  /    A nd           | Website:  www.openfoam.com                      |
|    \\/     M anipulation  |                                                 |
\*---------------------------------------------------------------------------*/
FoamFile
{
    version     2.0;
    format      ascii;
    class       volScalarField;
    location    "10000";
    object      p;
}
// * * * * * * * * * * * * * * * * * * * * * * * * * * * * * * * * * * * * * //

dimensions      [0 2 -2 0 0 0 0];


internalField   nonuniform List<scalar> 
2560
(
8.20439e-16
1.4817e-14
1.86074e-15
1.48175e-14
2.15145e-15
1.48183e-14
2.24661e-15
1.48195e-14
2.36246e-15
1.48211e-14
2.50122e-15
1.48232e-14
2.63993e-15
1.48259e-14
2.77464e-15
1.4829e-14
2.90665e-15
1.48326e-14
3.03639e-15
1.48367e-14
3.16354e-15
1.48413e-14
3.28789e-15
1.48464e-14
3.40948e-15
1.48519e-14
3.52831e-15
1.48579e-14
3.64438e-15
1.48644e-14
3.75773e-15
1.48713e-14
3.86848e-15
1.48787e-14
3.97668e-15
1.48865e-14
4.08242e-15
1.48948e-14
4.18587e-15
1.49034e-14
4.28702e-15
1.49125e-14
4.38593e-15
1.49221e-14
4.48276e-15
1.49321e-14
4.57782e-15
1.49426e-14
4.67095e-15
1.49536e-14
4.76229e-15
1.49652e-14
4.85213e-15
1.49773e-14
4.94067e-15
1.499e-14
5.02798e-15
1.50033e-14
5.1142e-15
1.50173e-14
5.19957e-15
1.50317e-14
5.28403e-15
1.50468e-14
5.36793e-15
1.50626e-14
5.45144e-15
1.50792e-14
5.53466e-15
1.50966e-14
5.61748e-15
1.5115e-14
5.69992e-15
1.51344e-14
5.78248e-15
1.51546e-14
5.86505e-15
1.51758e-14
5.94727e-15
1.51981e-14
6.02968e-15
1.52215e-14
6.11231e-15
1.52461e-14
6.19537e-15
1.52716e-14
6.27868e-15
1.52981e-14
6.36234e-15
1.53256e-14
6.44634e-15
1.53543e-14
6.53056e-15
1.53842e-14
6.61506e-15
1.54154e-14
6.69981e-15
1.54478e-14
6.78478e-15
1.54816e-14
6.87034e-15
1.55165e-14
6.95614e-15
1.55528e-14
7.04176e-15
1.55904e-14
7.12771e-15
1.56292e-14
7.21371e-15
1.56696e-14
7.29969e-15
1.57118e-14
7.38607e-15
1.57552e-14
7.47331e-15
1.57995e-14
7.56058e-15
1.5845e-14
7.6481e-15
1.58918e-14
7.73551e-15
1.59401e-14
7.82358e-15
1.59896e-14
7.91169e-15
1.60396e-14
7.99949e-15
1.6091e-14
8.08778e-15
1.61436e-14
8.1756e-15
1.61972e-14
8.26349e-15
1.62519e-14
8.35137e-15
1.63077e-14
8.43886e-15
1.63645e-14
8.52749e-15
1.64223e-14
8.61462e-15
1.64813e-14
8.7018e-15
1.65413e-14
8.78829e-15
1.66018e-14
8.87502e-15
1.6664e-14
8.96125e-15
1.67274e-14
9.04692e-15
1.67923e-14
9.13193e-15
1.68573e-14
9.21656e-15
1.69238e-14
9.30003e-15
1.69918e-14
9.38407e-15
1.70611e-14
9.46715e-15
1.71316e-14
9.5488e-15
1.72019e-14
9.63047e-15
1.7273e-14
9.71131e-15
1.73459e-14
9.79163e-15
1.74212e-14
9.87136e-15
1.74975e-14
9.95042e-15
1.75748e-14
1.00299e-14
1.76499e-14
1.01107e-14
1.77268e-14
1.0191e-14
1.78057e-14
1.02715e-14
1.78839e-14
1.03523e-14
1.79624e-14
1.04316e-14
1.80421e-14
1.05109e-14
1.8123e-14
1.05911e-14
1.82025e-14
1.06712e-14
1.82815e-14
1.07512e-14
1.83644e-14
1.0831e-14
1.84495e-14
1.09079e-14
1.85334e-14
1.09879e-14
1.86142e-14
1.10701e-14
1.86947e-14
1.11555e-14
1.87757e-14
1.12375e-14
1.88565e-14
1.13207e-14
1.89398e-14
1.14068e-14
1.90267e-14
1.14939e-14
1.91116e-14
1.15809e-14
1.91973e-14
1.16698e-14
1.92831e-14
1.17594e-14
1.93679e-14
1.18496e-14
1.94537e-14
1.19424e-14
1.95387e-14
1.20336e-14
1.96259e-14
1.21262e-14
1.97094e-14
1.22201e-14
1.97932e-14
1.23161e-14
1.98785e-14
1.24131e-14
1.99632e-14
1.25121e-14
2.00474e-14
1.26119e-14
2.01333e-14
1.27074e-14
2.02219e-14
1.28065e-14
2.03114e-14
1.29081e-14
2.03986e-14
1.30049e-14
2.04879e-14
1.3104e-14
2.05751e-14
1.32103e-14
2.06594e-14
1.33177e-14
2.07429e-14
1.34259e-14
2.08298e-14
1.35369e-14
2.0916e-14
1.36484e-14
2.09997e-14
1.37625e-14
2.10807e-14
1.38747e-14
2.11593e-14
1.39892e-14
2.12418e-14
1.41036e-14
2.13285e-14
1.422e-14
2.14152e-14
1.43381e-14
2.14954e-14
1.44557e-14
2.15802e-14
1.45726e-14
2.16631e-14
1.46951e-14
2.17421e-14
1.48143e-14
2.18216e-14
1.49455e-14
2.1904e-14
1.50752e-14
2.19849e-14
1.51966e-14
2.206e-14
1.53229e-14
2.21429e-14
1.54515e-14
2.22269e-14
1.5578e-14
2.23099e-14
1.57019e-14
2.23966e-14
1.58299e-14
2.24849e-14
1.59595e-14
2.25682e-14
1.60882e-14
2.26535e-14
1.62135e-14
2.27385e-14
1.63397e-14
2.28234e-14
1.64666e-14
2.29085e-14
1.65984e-14
2.29984e-14
1.67327e-14
2.3091e-14
1.68668e-14
2.3182e-14
1.6987e-14
2.32716e-14
1.71065e-14
2.33576e-14
1.72341e-14
2.34403e-14
1.73674e-14
2.35312e-14
1.75038e-14
2.36307e-14
1.76338e-14
2.37183e-14
1.77548e-14
2.38079e-14
1.7871e-14
2.39022e-14
1.80005e-14
2.39921e-14
1.81384e-14
2.40802e-14
1.8266e-14
2.41714e-14
1.84105e-14
2.42566e-14
1.8558e-14
2.43406e-14
1.86987e-14
2.4433e-14
1.88465e-14
2.45201e-14
1.89916e-14
2.46159e-14
1.91523e-14
2.47115e-14
1.93191e-14
2.48118e-14
1.94872e-14
2.49031e-14
1.96469e-14
2.49995e-14
1.98211e-14
2.50873e-14
1.99912e-14
2.51759e-14
2.01522e-14
2.5261e-14
2.03225e-14
2.53473e-14
2.04925e-14
2.54397e-14
2.06573e-14
2.55384e-14
2.08214e-14
2.56343e-14
2.09843e-14
2.57277e-14
2.11459e-14
2.58188e-14
2.13152e-14
2.59124e-14
2.14779e-14
2.60088e-14
2.16339e-14
2.61082e-14
2.17873e-14
2.62017e-14
2.19472e-14
2.62894e-14
2.21086e-14
2.63763e-14
2.22713e-14
2.64719e-14
2.24394e-14
2.65624e-14
2.25989e-14
2.66526e-14
2.2754e-14
2.67476e-14
2.29184e-14
2.68566e-14
2.30917e-14
2.69524e-14
2.3255e-14
2.70349e-14
2.34174e-14
2.71229e-14
2.35831e-14
2.72397e-14
2.37565e-14
2.7344e-14
2.39233e-14
2.74313e-14
2.40973e-14
2.75341e-14
2.42503e-14
2.76387e-14
2.4396e-14
2.77501e-14
2.45522e-14
2.78456e-14
2.47094e-14
2.79438e-14
2.4858e-14
2.80356e-14
2.50162e-14
2.81305e-14
2.51651e-14
2.82194e-14
2.53044e-14
2.83025e-14
2.54522e-14
2.83892e-14
2.55897e-14
2.84885e-14
2.57256e-14
2.85645e-14
2.58596e-14
2.86355e-14
2.60096e-14
2.87105e-14
2.6166e-14
2.88078e-14
2.63195e-14
2.89094e-14
2.64698e-14
2.90065e-14
2.66165e-14
2.90812e-14
2.67506e-14
2.91696e-14
2.68984e-14
2.92807e-14
2.70325e-14
2.93612e-14
2.71882e-14
2.94291e-14
2.73301e-14
2.952e-14
2.74755e-14
2.96158e-14
2.76154e-14
2.96903e-14
2.77495e-14
2.97523e-14
2.78868e-14
2.98278e-14
2.80272e-14
2.99078e-14
2.81795e-14
3.00011e-14
2.83171e-14
3.00986e-14
2.8466e-14
3.01741e-14
2.86176e-14
3.02622e-14
2.8798e-14
3.03801e-14
2.89638e-14
3.04755e-14
2.91242e-14
3.05564e-14
2.92968e-14
3.06741e-14
2.94729e-14
3.07765e-14
2.96444e-14
3.08805e-14
2.98034e-14
3.09684e-14
2.99675e-14
3.10649e-14
3.01457e-14
3.11605e-14
3.03221e-14
3.12459e-14
3.05146e-14
3.13279e-14
3.06913e-14
3.14386e-14
3.08699e-14
3.15516e-14
3.1043e-14
3.16741e-14
3.1211e-14
3.17887e-14
3.14087e-14
3.1878e-14
3.15387e-14
3.19728e-14
3.16838e-14
3.20562e-14
3.18281e-14
3.21598e-14
3.1989e-14
3.22822e-14
3.21343e-14
3.24064e-14
3.23127e-14
3.25318e-14
3.24768e-14
3.26409e-14
3.26117e-14
3.2732e-14
3.27506e-14
3.282e-14
3.28946e-14
3.29507e-14
3.30433e-14
3.30913e-14
3.31657e-14
3.31942e-14
3.3263e-14
3.33055e-14
3.33814e-14
3.33786e-14
3.34752e-14
3.34754e-14
3.35756e-14
3.35962e-14
3.37132e-14
3.3695e-14
3.38589e-14
3.38314e-14
3.39683e-14
3.39284e-14
3.40579e-14
3.4076e-14
3.42009e-14
3.42309e-14
3.42911e-14
3.43936e-14
3.44e-14
3.45075e-14
3.45266e-14
3.45432e-14
3.46295e-14
3.46007e-14
3.47389e-14
3.47363e-14
3.48522e-14
3.49206e-14
3.49794e-14
3.50685e-14
3.51038e-14
3.51671e-14
3.52396e-14
3.52581e-14
3.53877e-14
3.54097e-14
3.55337e-14
3.55773e-14
3.56902e-14
3.57761e-14
3.58263e-14
3.58968e-14
3.59556e-14
3.59806e-14
3.60801e-14
3.61054e-14
3.62399e-14
3.6269e-14
3.64056e-14
3.64172e-14
3.64957e-14
3.65358e-14
3.66295e-14
3.66381e-14
3.67944e-14
3.67729e-14
3.69388e-14
3.69374e-14
3.70621e-14
3.70799e-14
3.72147e-14
3.72017e-14
3.73718e-14
3.7351e-14
3.74823e-14
3.75011e-14
3.75932e-14
3.76297e-14
3.77522e-14
3.77904e-14
3.79092e-14
3.79077e-14
3.79929e-14
3.8002e-14
3.80976e-14
3.81718e-14
3.82169e-14
3.82519e-14
3.8375e-14
3.83581e-14
3.84789e-14
3.85294e-14
3.86182e-14
3.8677e-14
3.87698e-14
3.88505e-14
3.88859e-14
3.89372e-14
3.90376e-14
3.90751e-14
3.9181e-14
3.92172e-14
3.92946e-14
3.93872e-14
3.94609e-14
3.95246e-14
3.96153e-14
3.96468e-14
3.97659e-14
3.97716e-14
3.98738e-14
3.98519e-14
4.00079e-14
3.99476e-14
4.00886e-14
4.01203e-14
4.01457e-14
4.01901e-14
4.02825e-14
4.02463e-14
4.03879e-14
4.03351e-14
4.04732e-14
4.04705e-14
4.05745e-14
4.05349e-14
4.06582e-14
4.06262e-14
1.21582e-14
1.30167e-14
1.21585e-14
1.30169e-14
1.2159e-14
1.30171e-14
1.21597e-14
1.30175e-14
1.21606e-14
1.30181e-14
1.21619e-14
1.30188e-14
1.21634e-14
1.30198e-14
1.21653e-14
1.30209e-14
1.21674e-14
1.30222e-14
1.21698e-14
1.30237e-14
1.21725e-14
1.30254e-14
1.21754e-14
1.30272e-14
1.21787e-14
1.30293e-14
1.21823e-14
1.30316e-14
1.21861e-14
1.30341e-14
1.21903e-14
1.30368e-14
1.21946e-14
1.30398e-14
1.21992e-14
1.3043e-14
1.22042e-14
1.30465e-14
1.22093e-14
1.30502e-14
1.22148e-14
1.30543e-14
1.22205e-14
1.30586e-14
1.22266e-14
1.30632e-14
1.2233e-14
1.3068e-14
1.22398e-14
1.3073e-14
1.22471e-14
1.30781e-14
1.22546e-14
1.30837e-14
1.22627e-14
1.30896e-14
1.22712e-14
1.30959e-14
1.22802e-14
1.31024e-14
1.22896e-14
1.31092e-14
1.22994e-14
1.31165e-14
1.23099e-14
1.31244e-14
1.23209e-14
1.31328e-14
1.23324e-14
1.31415e-14
1.23446e-14
1.31509e-14
1.23575e-14
1.31609e-14
1.23712e-14
1.31714e-14
1.23856e-14
1.31825e-14
1.24009e-14
1.31942e-14
1.24169e-14
1.32068e-14
1.24334e-14
1.32202e-14
1.24509e-14
1.32342e-14
1.24696e-14
1.32488e-14
1.24894e-14
1.32642e-14
1.25101e-14
1.32803e-14
1.25319e-14
1.32974e-14
1.25548e-14
1.33154e-14
1.25789e-14
1.3334e-14
1.2604e-14
1.33535e-14
1.26306e-14
1.33738e-14
1.26581e-14
1.3395e-14
1.26871e-14
1.34173e-14
1.27173e-14
1.34403e-14
1.27487e-14
1.34645e-14
1.27814e-14
1.34897e-14
1.28154e-14
1.3516e-14
1.28506e-14
1.35435e-14
1.2887e-14
1.35727e-14
1.29251e-14
1.36023e-14
1.29646e-14
1.36328e-14
1.30054e-14
1.36649e-14
1.30474e-14
1.3699e-14
1.3091e-14
1.37331e-14
1.31361e-14
1.3769e-14
1.31828e-14
1.38063e-14
1.32303e-14
1.38441e-14
1.32794e-14
1.38842e-14
1.33308e-14
1.39241e-14
1.33835e-14
1.3965e-14
1.34367e-14
1.40087e-14
1.34919e-14
1.40537e-14
1.35489e-14
1.40999e-14
1.36073e-14
1.4148e-14
1.36665e-14
1.41978e-14
1.37267e-14
1.42486e-14
1.37888e-14
1.43006e-14
1.38534e-14
1.43536e-14
1.39191e-14
1.44079e-14
1.39853e-14
1.44635e-14
1.40537e-14
1.45211e-14
1.41228e-14
1.45801e-14
1.41943e-14
1.46403e-14
1.42673e-14
1.47027e-14
1.43423e-14
1.4766e-14
1.44181e-14
1.48307e-14
1.44935e-14
1.48987e-14
1.45701e-14
1.49664e-14
1.46478e-14
1.50354e-14
1.47268e-14
1.51066e-14
1.48086e-14
1.51766e-14
1.48908e-14
1.52496e-14
1.49742e-14
1.53239e-14
1.5058e-14
1.53969e-14
1.51439e-14
1.54721e-14
1.52303e-14
1.55511e-14
1.53169e-14
1.56341e-14
1.5404e-14
1.57175e-14
1.54932e-14
1.57977e-14
1.55819e-14
1.58792e-14
1.56729e-14
1.59646e-14
1.57605e-14
1.60513e-14
1.58513e-14
1.61392e-14
1.59461e-14
1.62265e-14
1.60395e-14
1.6315e-14
1.61352e-14
1.64028e-14
1.62285e-14
1.64937e-14
1.63232e-14
1.65886e-14
1.64201e-14
1.66818e-14
1.65205e-14
1.67752e-14
1.66193e-14
1.68736e-14
1.67176e-14
1.69722e-14
1.68174e-14
1.70699e-14
1.69186e-14
1.71688e-14
1.70204e-14
1.72697e-14
1.71236e-14
1.73737e-14
1.72254e-14
1.74767e-14
1.73307e-14
1.75808e-14
1.74356e-14
1.7689e-14
1.7541e-14
1.77962e-14
1.76481e-14
1.79034e-14
1.77557e-14
1.80096e-14
1.78651e-14
1.81167e-14
1.79761e-14
1.82279e-14
1.80889e-14
1.83391e-14
1.82034e-14
1.84522e-14
1.83113e-14
1.85673e-14
1.8421e-14
1.86866e-14
1.85304e-14
1.88015e-14
1.86438e-14
1.89141e-14
1.87527e-14
1.90329e-14
1.88634e-14
1.91516e-14
1.89761e-14
1.92658e-14
1.90908e-14
1.93776e-14
1.92074e-14
1.94957e-14
1.93262e-14
1.96158e-14
1.9447e-14
1.97378e-14
1.95678e-14
1.98574e-14
1.96842e-14
1.9979e-14
1.98027e-14
2.00959e-14
1.99236e-14
2.0208e-14
2.00334e-14
2.03266e-14
2.01478e-14
2.04514e-14
2.02646e-14
2.05716e-14
2.03815e-14
2.06848e-14
2.04964e-14
2.07999e-14
2.0616e-14
2.09168e-14
2.07338e-14
2.10402e-14
2.08541e-14
2.11588e-14
2.09703e-14
2.1277e-14
2.10848e-14
2.13927e-14
2.11997e-14
2.15102e-14
2.13152e-14
2.16296e-14
2.14335e-14
2.17465e-14
2.1548e-14
2.18561e-14
2.16609e-14
2.19608e-14
2.17837e-14
2.2065e-14
2.18938e-14
2.21779e-14
2.20047e-14
2.22927e-14
2.21144e-14
2.24093e-14
2.22206e-14
2.25232e-14
2.23278e-14
2.26274e-14
2.24409e-14
2.27288e-14
2.25391e-14
2.28436e-14
2.2641e-14
2.29579e-14
2.27326e-14
2.30718e-14
2.28233e-14
2.31852e-14
2.2913e-14
2.32937e-14
2.30018e-14
2.33973e-14
2.30896e-14
2.35006e-14
2.3181e-14
2.36082e-14
2.32715e-14
2.37064e-14
2.33749e-14
2.37996e-14
2.34774e-14
2.39066e-14
2.35743e-14
2.4018e-14
2.36702e-14
2.41198e-14
2.37744e-14
2.42215e-14
2.38777e-14
2.4337e-14
2.39801e-14
2.44524e-14
2.40861e-14
2.45491e-14
2.41957e-14
2.4655e-14
2.42952e-14
2.47656e-14
2.43983e-14
2.48714e-14
2.45051e-14
2.49679e-14
2.46017e-14
2.5069e-14
2.47159e-14
2.51747e-14
2.48246e-14
2.5285e-14
2.49511e-14
2.53907e-14
2.50721e-14
2.54963e-14
2.52017e-14
2.56064e-14
2.53216e-14
2.57164e-14
2.54409e-14
2.58169e-14
2.55599e-14
2.59311e-14
2.56787e-14
2.60543e-14
2.58063e-14
2.61727e-14
2.59431e-14
2.62817e-14
2.60798e-14
2.63904e-14
2.61981e-14
2.65173e-14
2.63213e-14
2.66392e-14
2.64585e-14
2.67423e-14
2.65869e-14
2.68543e-14
2.67066e-14
2.69842e-14
2.68085e-14
2.71274e-14
2.69245e-14
2.72522e-14
2.70363e-14
2.7377e-14
2.7162e-14
2.7502e-14
2.72927e-14
2.76273e-14
2.74101e-14
2.7753e-14
2.75233e-14
2.78701e-14
2.76415e-14
2.79879e-14
2.77466e-14
2.81065e-14
2.78477e-14
2.82262e-14
2.79536e-14
2.83291e-14
2.81007e-14
2.84155e-14
2.82442e-14
2.85211e-14
2.83576e-14
2.86366e-14
2.84589e-14
2.8744e-14
2.8575e-14
2.88436e-14
2.87152e-14
2.89534e-14
2.88349e-14
2.9064e-14
2.89613e-14
2.91578e-14
2.90592e-14
2.92611e-14
2.9164e-14
2.93743e-14
2.92759e-14
2.94709e-14
2.93949e-14
2.95774e-14
2.94858e-14
2.97028e-14
2.95573e-14
2.97947e-14
2.96707e-14
2.98888e-14
2.97908e-14
3.00116e-14
2.99003e-14
3.01368e-14
3.00164e-14
3.02299e-14
3.01306e-14
3.03172e-14
3.02521e-14
3.04418e-14
3.03719e-14
3.05691e-14
3.04984e-14
3.06821e-14
3.06404e-14
3.07897e-14
3.07726e-14
3.08915e-14
3.08867e-14
3.10129e-14
3.10083e-14
3.11454e-14
3.112e-14
3.12727e-14
3.12383e-14
3.13953e-14
3.1363e-14
3.15138e-14
3.14937e-14
3.16201e-14
3.16306e-14
3.17477e-14
3.17652e-14
3.18884e-14
3.19056e-14
3.20007e-14
3.19855e-14
3.21344e-14
3.21198e-14
3.22576e-14
3.22912e-14
3.23377e-14
3.24362e-14
3.24388e-14
3.25396e-14
3.25602e-14
3.26667e-14
3.26863e-14
3.28333e-14
3.28007e-14
3.29599e-14
3.29511e-14
3.31265e-14
3.30736e-14
3.32377e-14
3.31837e-14
3.33742e-14
3.33139e-14
3.35362e-14
3.34486e-14
3.36294e-14
3.35714e-14
3.37007e-14
3.37147e-14
3.38264e-14
3.38024e-14
3.39294e-14
3.38339e-14
3.39968e-14
3.3885e-14
3.40604e-14
3.4001e-14
3.41336e-14
3.41211e-14
3.41988e-14
3.42475e-14
3.42678e-14
3.43824e-14
3.43835e-14
3.44984e-14
3.45004e-14
3.46261e-14
3.46327e-14
3.47503e-14
3.47513e-14
3.48707e-14
3.48865e-14
3.49429e-14
3.5041e-14
3.50107e-14
3.52048e-14
3.51446e-14
3.53513e-14
3.5328e-14
3.55094e-14
3.54603e-14
3.56668e-14
3.55843e-14
3.58264e-14
3.57136e-14
3.5948e-14
3.59051e-14
3.60854e-14
3.6049e-14
3.62384e-14
3.61883e-14
3.63939e-14
3.63352e-14
3.65256e-14
3.6518e-14
3.66733e-14
3.6673e-14
3.68512e-14
3.68024e-14
3.70222e-14
3.69168e-14
3.71363e-14
3.70938e-14
3.72596e-14
3.72713e-14
3.74021e-14
3.7389e-14
3.75119e-14
3.75259e-14
3.76402e-14
3.76571e-14
3.77871e-14
3.78094e-14
3.79265e-14
3.79328e-14
3.80598e-14
3.80523e-14
3.81899e-14
3.81407e-14
3.82963e-14
3.82706e-14
3.84268e-14
3.84173e-14
3.86042e-14
3.8534e-14
3.86895e-14
3.86422e-14
3.88546e-14
3.87912e-14
3.90053e-14
3.89582e-14
3.90931e-14
3.90759e-14
3.91645e-14
3.91939e-14
3.92601e-14
3.92929e-14
3.94008e-14
3.93708e-14
3.95014e-14
3.94681e-14
3.96075e-14
3.95828e-14
3.97401e-14
3.97147e-14
3.98781e-14
3.98845e-14
3.99493e-14
4.00079e-14
4.00559e-14
4.01155e-14
4.01726e-14
4.02299e-14
4.02565e-14
4.02881e-14
4.03526e-14
4.03952e-14
4.04388e-14
4.04617e-14
4.04777e-14
4.05939e-14
4.04707e-14
4.07256e-14
4.05375e-14
4.08191e-14
4.06069e-14
4.08995e-14
4.06732e-14
4.09514e-14
4.07458e-14
4.07269e-14
4.08183e-14
4.07811e-14
4.09186e-14
4.09337e-14
4.09912e-14
4.10559e-14
4.10914e-14
4.11163e-14
4.1226e-14
4.12375e-14
4.13557e-14
4.13321e-14
4.14428e-14
4.14138e-14
4.15724e-14
4.15492e-14
4.16807e-14
4.17218e-14
4.1779e-14
4.17901e-14
4.18694e-14
4.19053e-14
4.19706e-14
4.20246e-14
4.20607e-14
4.21038e-14
4.21428e-14
4.2184e-14
4.22414e-14
4.22851e-14
4.23124e-14
4.23361e-14
4.23796e-14
4.24038e-14
4.24422e-14
4.24654e-14
4.25238e-14
4.24979e-14
4.25807e-14
4.25667e-14
4.26602e-14
4.26246e-14
4.27165e-14
4.27194e-14
4.27711e-14
4.27602e-14
4.27756e-14
4.28206e-14
4.28248e-14
4.29064e-14
4.28661e-14
4.29708e-14
4.29245e-14
4.29911e-14
4.29783e-14
4.30937e-14
4.30238e-14
4.31265e-14
4.30883e-14
4.30591e-14
4.31553e-14
4.30645e-14
4.32023e-14
4.31392e-14
4.32008e-14
4.32059e-14
4.32271e-14
4.32706e-14
4.32512e-14
4.33225e-14
4.33111e-14
4.33216e-14
4.33432e-14
4.33314e-14
4.33905e-14
4.33783e-14
4.34115e-14
4.34487e-14
4.34453e-14
4.34616e-14
4.34791e-14
4.35003e-14
4.35134e-14
4.35528e-14
4.35042e-14
4.35774e-14
4.35353e-14
4.36191e-14
4.35781e-14
4.36205e-14
4.3621e-14
4.35642e-14
4.36388e-14
4.35768e-14
4.36904e-14
4.36297e-14
4.37164e-14
4.36793e-14
4.37149e-14
4.36816e-14
4.37003e-14
4.36508e-14
4.37028e-14
4.3662e-14
4.37375e-14
4.36849e-14
4.37138e-14
4.36729e-14
4.36912e-14
4.36882e-14
4.37295e-14
4.37175e-14
4.37365e-14
4.37302e-14
4.37273e-14
4.37418e-14
4.37324e-14
4.37531e-14
4.3736e-14
4.378e-14
4.37534e-14
4.37758e-14
4.37218e-14
4.37871e-14
4.37339e-14
4.3815e-14
4.3741e-14
4.38446e-14
4.37263e-14
4.38443e-14
4.36894e-14
4.38466e-14
4.3694e-14
4.38367e-14
4.37084e-14
4.38303e-14
4.36843e-14
4.38102e-14
4.37032e-14
4.3825e-14
4.37169e-14
4.38255e-14
4.37101e-14
4.38113e-14
4.3683e-14
4.38153e-14
4.36514e-14
4.38049e-14
4.36652e-14
4.37973e-14
4.36582e-14
4.37919e-14
4.36222e-14
4.37465e-14
4.35992e-14
4.37025e-14
4.36153e-14
4.37104e-14
4.36204e-14
4.37195e-14
4.36147e-14
4.37216e-14
4.35979e-14
4.37081e-14
4.35871e-14
4.37047e-14
4.35911e-14
4.36945e-14
4.35845e-14
4.36857e-14
4.35673e-14
4.36696e-14
4.35397e-14
4.36633e-14
4.35446e-14
4.36497e-14
4.35303e-14
4.36373e-14
4.35317e-14
4.36349e-14
4.35228e-14
4.36424e-14
4.35122e-14
4.36514e-14
4.34996e-14
4.36357e-14
4.34851e-14
4.36215e-14
4.34776e-14
4.36354e-14
4.3468e-14
4.36245e-14
4.34653e-14
4.36062e-14
4.34608e-14
4.35805e-14
4.3437e-14
4.35558e-14
4.34296e-14
4.35408e-14
4.34207e-14
4.35355e-14
4.34104e-14
4.3513e-14
4.33989e-14
4.34912e-14
4.33773e-14
4.34881e-14
4.33725e-14
4.34767e-14
4.33757e-14
4.34658e-14
4.33688e-14
4.34555e-14
4.33609e-14
4.34547e-14
4.33612e-14
4.34547e-14
4.33514e-14
4.34555e-14
4.33406e-14
4.3457e-14
4.33287e-14
4.34321e-14
4.33249e-14
4.34079e-14
4.33204e-14
4.34116e-14
4.33151e-14
4.34159e-14
4.32998e-14
4.33934e-14
4.32928e-14
4.33713e-14
4.32851e-14
4.33588e-14
4.32722e-14
4.33559e-14
4.32722e-14
4.33488e-14
4.32716e-14
4.33421e-14
4.32564e-14
4.33448e-14
4.32636e-14
4.33387e-14
4.32563e-14
4.33329e-14
4.32531e-14
4.3332e-14
4.32586e-14
4.33221e-14
4.32729e-14
4.33032e-14
4.32639e-14
4.32842e-14
4.32546e-14
4.32838e-14
4.32497e-14
4.32835e-14
4.324e-14
4.32785e-14
4.32206e-14
4.32737e-14
4.32149e-14
4.32737e-14
4.32134e-14
4.32738e-14
4.3207e-14
4.32648e-14
4.32048e-14
4.32421e-14
4.32071e-14
4.32333e-14
4.32045e-14
4.32386e-14
4.32063e-14
4.32392e-14
4.32079e-14
4.32353e-14
4.32e-14
4.32313e-14
4.31966e-14
4.32227e-14
4.31931e-14
4.32141e-14
4.3194e-14
4.32102e-14
4.31902e-14
4.32154e-14
4.31862e-14
4.32161e-14
4.31868e-14
4.3212e-14
4.31825e-14
4.32125e-14
4.31921e-14
4.32084e-14
4.3197e-14
4.31996e-14
4.31879e-14
4.31953e-14
4.3188e-14
4.31956e-14
4.31927e-14
4.31959e-14
4.31927e-14
4.31961e-14
4.32018e-14
4.31962e-14
4.32017e-14
4.32009e-14
4.32062e-14
4.32055e-14
4.3206e-14
4.32008e-14
4.31989e-14
4.32007e-14
4.31941e-14
4.32052e-14
4.31983e-14
4.32051e-14
4.32025e-14
4.32003e-14
4.3193e-14
4.32024e-14
4.31834e-14
4.32045e-14
4.31851e-14
4.32066e-14
4.31822e-14
4.3211e-14
4.31906e-14
4.32177e-14
4.31853e-14
4.32177e-14
4.31708e-14
4.32086e-14
4.31653e-14
4.32041e-14
4.31597e-14
4.32042e-14
4.31562e-14
4.32089e-14
4.31482e-14
4.32159e-14
4.314e-14
4.32163e-14
4.31339e-14
4.32168e-14
4.313e-14
4.32174e-14
4.31237e-14
4.32092e-14
4.31172e-14
4.32056e-14
4.31129e-14
4.32109e-14
4.3115e-14
4.32164e-14
4.31104e-14
4.32176e-14
4.31079e-14
4.32167e-14
4.31074e-14
4.32181e-14
4.3109e-14
4.32153e-14
4.31083e-14
4.32082e-14
4.31075e-14
4.32034e-14
4.31087e-14
4.32053e-14
4.3112e-14
4.32072e-14
4.31131e-14
4.32071e-14
4.3114e-14
4.32092e-14
4.31148e-14
4.3205e-14
4.31156e-14
4.32031e-14
4.31163e-14
4.32055e-14
4.31169e-14
4.32079e-14
4.31153e-14
4.32125e-14
4.31179e-14
4.32109e-14
4.31224e-14
4.32073e-14
4.31269e-14
4.32079e-14
4.31303e-14
4.32097e-14
4.31346e-14
4.32084e-14
4.31368e-14
4.32062e-14
4.3141e-14
4.3204e-14
4.31441e-14
4.32049e-14
4.31462e-14
4.32069e-14
4.31483e-14
4.32079e-14
4.31503e-14
4.3207e-14
4.31513e-14
4.32061e-14
4.31542e-14
4.32043e-14
4.31562e-14
4.32026e-14
4.3159e-14
4.32038e-14
4.31609e-14
4.3204e-14
4.31608e-14
4.32043e-14
4.31626e-14
4.32028e-14
4.31635e-14
4.3205e-14
4.31634e-14
4.32054e-14
4.31633e-14
4.32012e-14
4.31641e-14
4.31979e-14
4.31658e-14
4.31965e-14
4.31647e-14
4.3197e-14
4.31646e-14
4.31975e-14
4.31644e-14
4.31962e-14
4.31642e-14
4.3195e-14
4.31641e-14
4.31955e-14
4.3163e-14
4.31952e-14
4.3162e-14
4.3194e-14
4.31609e-14
4.3192e-14
4.31624e-14
4.31909e-14
4.31614e-14
4.31932e-14
4.31595e-14
4.31955e-14
4.31592e-14
4.31961e-14
4.3159e-14
4.31927e-14
4.31588e-14
4.31917e-14
4.31585e-14
4.31923e-14
4.31583e-14
4.3193e-14
4.31588e-14
4.31937e-14
4.31601e-14
4.31928e-14
4.31594e-14
4.31904e-14
4.31588e-14
4.31895e-14
4.31589e-14
4.31898e-14
4.31582e-14
4.31902e-14
4.31583e-14
4.31901e-14
4.31576e-14
4.31897e-14
4.3157e-14
4.31893e-14
4.31567e-14
4.31875e-14
4.31567e-14
4.31861e-14
4.31564e-14
4.31854e-14
4.31561e-14
4.31844e-14
4.31554e-14
4.31834e-14
4.31548e-14
4.31821e-14
4.31551e-14
4.31815e-14
4.31551e-14
4.31809e-14
4.31554e-14
4.31791e-14
4.31554e-14
4.31782e-14
4.31551e-14
4.31782e-14
4.31547e-14
4.31786e-14
4.31547e-14
4.31783e-14
4.31547e-14
4.31775e-14
4.31541e-14
4.31767e-14
4.3154e-14
4.31765e-14
4.31537e-14
4.31758e-14
4.31534e-14
4.31753e-14
4.31533e-14
4.31756e-14
4.31533e-14
4.31757e-14
4.3153e-14
4.3175e-14
4.3153e-14
4.31744e-14
4.31533e-14
4.31741e-14
4.3153e-14
4.31737e-14
4.31529e-14
4.31734e-14
4.3153e-14
4.31732e-14
4.31533e-14
4.31728e-14
4.31534e-14
4.31723e-14
4.31536e-14
4.31717e-14
4.31537e-14
4.31712e-14
4.31536e-14
4.31709e-14
4.31535e-14
4.31706e-14
4.31536e-14
4.31703e-14
4.31538e-14
4.31701e-14
4.31539e-14
4.31698e-14
4.31539e-14
4.31695e-14
4.31538e-14
4.31694e-14
4.31537e-14
4.31693e-14
4.31537e-14
4.31693e-14
4.31537e-14
4.31692e-14
4.31537e-14
4.3169e-14
4.31537e-14
4.31691e-14
4.31537e-14
4.31693e-14
4.31537e-14
4.31692e-14
4.31537e-14
4.31692e-14
4.31536e-14
4.31692e-14
4.31535e-14
4.31693e-14
4.31535e-14
4.31692e-14
4.31535e-14
4.3169e-14
4.31533e-14
4.31689e-14
4.31532e-14
4.31689e-14
4.31531e-14
4.31688e-14
4.31531e-14
4.31688e-14
4.31531e-14
4.31688e-14
4.3153e-14
4.31688e-14
4.3153e-14
4.31687e-14
4.3153e-14
4.31686e-14
4.3153e-14
4.31685e-14
4.31529e-14
4.31684e-14
4.31529e-14
4.31683e-14
4.31529e-14
4.31683e-14
4.31529e-14
4.31683e-14
4.31529e-14
4.31682e-14
4.31529e-14
4.31681e-14
4.31529e-14
4.31681e-14
4.31528e-14
4.31681e-14
4.31528e-14
4.31681e-14
4.31528e-14
4.31681e-14
4.31528e-14
4.3168e-14
4.31528e-14
4.3168e-14
4.31527e-14
4.3168e-14
4.31527e-14
4.3168e-14
4.31527e-14
4.3168e-14
4.31527e-14
4.3168e-14
4.31527e-14
4.3168e-14
4.31527e-14
4.3168e-14
4.07151e-14
4.09928e-14
4.08134e-14
4.10611e-14
4.0977e-14
4.1087e-14
4.10648e-14
4.1164e-14
4.11649e-14
4.12223e-14
4.12841e-14
4.13406e-14
4.14e-14
4.14753e-14
4.15312e-14
4.15445e-14
4.16235e-14
4.16251e-14
4.17641e-14
4.17115e-14
4.18958e-14
4.17912e-14
4.2004e-14
4.1926e-14
4.20628e-14
4.20537e-14
4.21286e-14
4.21831e-14
4.21926e-14
4.23245e-14
4.22451e-14
4.24432e-14
4.23473e-14
4.25226e-14
4.24336e-14
4.25838e-14
4.25079e-14
4.26224e-14
4.25989e-14
4.27047e-14
4.26596e-14
4.27838e-14
4.27128e-14
4.28365e-14
4.27576e-14
4.28363e-14
4.27975e-14
4.28734e-14
4.28323e-14
4.29223e-14
4.28622e-14
4.29834e-14
4.2884e-14
4.30069e-14
4.29228e-14
4.30159e-14
4.29805e-14
4.31112e-14
4.3029e-14
4.31914e-14
4.30925e-14
4.3181e-14
4.31505e-14
4.32075e-14
4.3178e-14
4.32699e-14
4.31718e-14
4.32893e-14
4.32113e-14
4.33464e-14
4.32968e-14
4.3401e-14
4.3309e-14
4.34511e-14
4.33266e-14
4.34721e-14
4.33634e-14
4.35338e-14
4.33902e-14
4.35676e-14
4.34209e-14
4.36004e-14
4.34275e-14
4.35754e-14
4.34538e-14
4.36028e-14
4.34857e-14
4.36247e-14
4.34962e-14
4.36546e-14
4.34983e-14
4.36638e-14
4.35496e-14
4.36523e-14
4.35803e-14
4.36473e-14
4.36219e-14
4.36764e-14
4.36749e-14
4.37387e-14
4.36797e-14
4.37602e-14
4.36957e-14
4.37263e-14
4.36954e-14
4.37706e-14
4.36922e-14
4.38199e-14
4.37294e-14
4.37848e-14
4.37497e-14
4.37688e-14
4.37704e-14
4.37703e-14
4.37919e-14
4.37881e-14
4.37833e-14
4.37913e-14
4.37911e-14
4.38112e-14
4.37833e-14
4.38327e-14
4.38064e-14
4.38565e-14
4.38766e-14
4.38671e-14
4.39496e-14
4.38627e-14
4.3964e-14
4.38887e-14
4.39513e-14
4.38811e-14
4.39432e-14
4.38398e-14
4.39409e-14
4.38282e-14
4.39605e-14
4.38463e-14
4.39696e-14
4.38782e-14
4.39348e-14
4.38762e-14
4.38708e-14
4.38734e-14
4.38578e-14
4.38546e-14
4.38464e-14
4.38527e-14
4.38198e-14
4.38347e-14
4.38112e-14
4.3834e-14
4.38035e-14
4.3834e-14
4.37798e-14
4.38182e-14
4.37567e-14
4.37783e-14
4.37177e-14
4.37563e-14
4.36957e-14
4.37438e-14
4.37161e-14
4.37408e-14
4.36942e-14
4.37383e-14
4.36723e-14
4.3711e-14
4.36504e-14
4.37015e-14
4.36368e-14
4.36927e-14
4.36227e-14
4.37108e-14
4.36077e-14
4.37044e-14
4.36005e-14
4.36735e-14
4.3584e-14
4.36523e-14
4.35669e-14
4.36495e-14
4.35752e-14
4.36479e-14
4.35655e-14
4.36384e-14
4.35463e-14
4.36296e-14
4.35441e-14
4.36218e-14
4.35502e-14
4.36236e-14
4.35292e-14
4.36262e-14
4.35254e-14
4.3612e-14
4.35209e-14
4.36077e-14
4.35069e-14
4.36132e-14
4.35012e-14
4.36021e-14
4.35038e-14
4.35833e-14
4.34791e-14
4.35565e-14
4.3463e-14
4.35304e-14
4.34466e-14
4.35231e-14
4.34388e-14
4.35346e-14
4.34395e-14
4.352e-14
4.34399e-14
4.34791e-14
4.34311e-14
4.34475e-14
4.34407e-14
4.34342e-14
4.34415e-14
4.34298e-14
4.34245e-14
4.34253e-14
4.34077e-14
4.34206e-14
4.33911e-14
4.34068e-14
4.33928e-14
4.34023e-14
4.33948e-14
4.3407e-14
4.33877e-14
4.34025e-14
4.33808e-14
4.33798e-14
4.33834e-14
4.33754e-14
4.33908e-14
4.33711e-14
4.33941e-14
4.33713e-14
4.3384e-14
4.33714e-14
4.33835e-14
4.33669e-14
4.33603e-14
4.3367e-14
4.33373e-14
4.33626e-14
4.33328e-14
4.33538e-14
4.33284e-14
4.3359e-14
4.33286e-14
4.33551e-14
4.33196e-14
4.33375e-14
4.33106e-14
4.33155e-14
4.33064e-14
4.33121e-14
4.33022e-14
4.33088e-14
4.33074e-14
4.32963e-14
4.32943e-14
4.32884e-14
4.32952e-14
4.32899e-14
4.32917e-14
4.32866e-14
4.32836e-14
4.32742e-14
4.32758e-14
4.32663e-14
4.32773e-14
4.32678e-14
4.32837e-14
4.32787e-14
4.32762e-14
4.32849e-14
4.32642e-14
4.32865e-14
4.32568e-14
4.3279e-14
4.32541e-14
4.32763e-14
4.32608e-14
4.32784e-14
4.32535e-14
4.32806e-14
4.32463e-14
4.32923e-14
4.32297e-14
4.33088e-14
4.32315e-14
4.33024e-14
4.32333e-14
4.32824e-14
4.32257e-14
4.32718e-14
4.32273e-14
4.32754e-14
4.32289e-14
4.32744e-14
4.32396e-14
4.32598e-14
4.32411e-14
4.32592e-14
4.32519e-14
4.32633e-14
4.3258e-14
4.32582e-14
4.3255e-14
4.32486e-14
4.32474e-14
4.32436e-14
4.32491e-14
4.32433e-14
4.32509e-14
4.32476e-14
4.32481e-14
4.3245e-14
4.32499e-14
4.32356e-14
4.32495e-14
4.32262e-14
4.3256e-14
4.32259e-14
4.32558e-14
4.32233e-14
4.32602e-14
4.32116e-14
4.32534e-14
4.32044e-14
4.32557e-14
4.31971e-14
4.3265e-14
4.31875e-14
4.32654e-14
4.31801e-14
4.32569e-14
4.31748e-14
4.32486e-14
4.31739e-14
4.3245e-14
4.31706e-14
4.32437e-14
4.31695e-14
4.32381e-14
4.31638e-14
4.32304e-14
4.31602e-14
4.32251e-14
4.31566e-14
4.32244e-14
4.31551e-14
4.32127e-14
4.31579e-14
4.32033e-14
4.3154e-14
4.31985e-14
4.31456e-14
4.32004e-14
4.31394e-14
4.31957e-14
4.31419e-14
4.31934e-14
4.31443e-14
4.3189e-14
4.31422e-14
4.31868e-14
4.3138e-14
4.31847e-14
4.3138e-14
4.31826e-14
4.31379e-14
4.31807e-14
4.31292e-14
4.31788e-14
4.31226e-14
4.31791e-14
4.31202e-14
4.31752e-14
4.3122e-14
4.31714e-14
4.31238e-14
4.31634e-14
4.31276e-14
4.31639e-14
4.31271e-14
4.31623e-14
4.31203e-14
4.31629e-14
4.31177e-14
4.31573e-14
4.31191e-14
4.31538e-14
4.31185e-14
4.31493e-14
4.31157e-14
4.31469e-14
4.3117e-14
4.31445e-14
4.31152e-14
4.31422e-14
4.31154e-14
4.31409e-14
4.31146e-14
4.31396e-14
4.31127e-14
4.31403e-14
4.31109e-14
4.3142e-14
4.31089e-14
4.31407e-14
4.3108e-14
4.31425e-14
4.3107e-14
4.31403e-14
4.31089e-14
4.31391e-14
4.31098e-14
4.31408e-14
4.31078e-14
4.31435e-14
4.31058e-14
4.31452e-14
4.31085e-14
4.31469e-14
4.31093e-14
4.31476e-14
4.31119e-14
4.31502e-14
4.31126e-14
4.31519e-14
4.31123e-14
4.31545e-14
4.31129e-14
4.31562e-14
4.31154e-14
4.31597e-14
4.31177e-14
4.31623e-14
4.31165e-14
4.31666e-14
4.31161e-14
4.31683e-14
4.31166e-14
4.317e-14
4.31171e-14
4.31716e-14
4.31184e-14
4.31759e-14
4.31188e-14
4.31793e-14
4.31192e-14
4.31826e-14
4.31212e-14
4.31843e-14
4.31232e-14
4.3186e-14
4.31227e-14
4.31876e-14
4.31222e-14
4.31885e-14
4.31241e-14
4.31902e-14
4.31259e-14
4.31915e-14
4.31277e-14
4.31927e-14
4.31291e-14
4.3194e-14
4.31281e-14
4.31964e-14
4.31283e-14
4.31981e-14
4.3131e-14
4.32001e-14
4.31323e-14
4.32025e-14
4.3132e-14
4.32041e-14
4.31325e-14
4.32054e-14
4.31336e-14
4.32059e-14
4.31351e-14
4.32062e-14
4.31348e-14
4.32078e-14
4.31341e-14
4.32073e-14
4.31348e-14
4.32069e-14
4.31358e-14
4.32062e-14
4.31361e-14
4.32061e-14
4.31364e-14
4.32064e-14
4.31367e-14
4.32064e-14
4.31367e-14
4.32063e-14
4.31372e-14
4.32054e-14
4.31393e-14
4.32051e-14
4.31404e-14
4.32048e-14
4.31406e-14
4.32051e-14
4.31408e-14
4.32054e-14
4.31408e-14
4.32055e-14
4.31412e-14
4.3205e-14
4.31419e-14
4.3205e-14
4.31421e-14
4.32045e-14
4.31425e-14
4.32044e-14
4.31434e-14
4.32039e-14