/*--------------------------------*- C++ -*----------------------------------*\
| =========                 |                                                 |
| \\      /  F ield         | OpenFOAM: The Open Source CFD Toolbox           |
|  \\    /   O peration     | Version:  2106                                  |
|   \\  /    A nd           | Website:  www.openfoam.com                      |
|    \\/     M anipulation  |                                                 |
\*---------------------------------------------------------------------------*/
FoamFile
{
    version     2.0;
    format      ascii;
    arch        "LSB;label=32;scalar=64";
    class       volTensorField;
    location    "19000";
    object      grad(U);
}
// * * * * * * * * * * * * * * * * * * * * * * * * * * * * * * * * * * * * * //

dimensions      [0 0 -1 0 0 0 0];

internalField   nonuniform List<tensor> 
2560
(
(0 4.15781e-30 2.59863e-31 215.579 -1.27298e-11 -2.17531e-12 0.312081 -9.21443e-15 -9.52146e-16)
(-3.65725e-17 -2.90634e-27 0 215.579 -4.66443e-15 6.34405e-18 0.312081 -4.25096e-18 7.40843e-16)
(-1.44193e-16 -8.67071e-25 -9.37233e-26 215.53 4.12665e-32 -2.00007e-13 0.94068 0 -5.8745e-16)
(0 -8.19643e-30 -1.02455e-30 215.53 -3.21481e-14 4.5788e-17 0.94068 -6.15374e-17 -3.84673e-16)
(2.44532e-16 3.82748e-30 -6.9914e-31 215.362 1.58215e-12 -9.42639e-14 1.29201 -8.40068e-15 -5.35747e-16)
(-2.84253e-16 8.07896e-30 2.01974e-30 215.362 -3.20564e-14 1.17965e-16 1.29201 -1.13599e-16 -3.95654e-16)
(1.2767e-16 -2.30875e-29 -2.32894e-30 214.691 8.52787e-13 -7.88343e-14 1.30428 -1.04726e-14 -4.16716e-16)
(0 1.99079e-29 1.99079e-30 214.691 -3.59394e-14 1.61861e-16 1.30428 -1.76275e-16 -4.05938e-16)
(5.52327e-16 -2.74716e-29 -5.88678e-30 212.613 -4.36192e-14 -4.55597e-14 1.30418 -2.98255e-16 -1.40241e-16)
(0 2.35471e-29 3.92452e-30 212.613 -3.71297e-14 1.66334e-16 1.30418 -2.43806e-16 -4.13799e-16)
(8.56277e-16 -1.16466e-27 -8.16184e-31 207.727 -1.57772e-30 0 1.28123 0 0)
(1.95052e-15 1.93413e-29 1.93413e-30 207.727 -3.67575e-14 1.63064e-16 1.28123 -3.13482e-16 -4.16236e-16)
(1.2847e-16 -6.80142e-30 3.613e-31 198.746 4.10244e-14 8.69855e-14 1.22815 -1.40196e-16 -3.00045e-16)
(1.09594e-15 1.90641e-29 9.53207e-31 198.746 -3.54952e-14 1.65604e-16 1.22815 -3.83154e-16 -4.10071e-16)
(-1.56244e-15 1.58685e-29 3.09532e-30 185.445 6.10939e-14 1.56684e-13 1.14712 -3.79587e-16 -8.02028e-16)
(2.01841e-15 -3.75818e-30 -1.87909e-30 185.445 -3.37575e-14 1.70147e-16 1.14712 -4.48202e-16 -3.94022e-16)
(1.64047e-15 -1.9397e-29 -2.97563e-30 169.025 6.05229e-14 2.02197e-13 1.04914 -4.03294e-16 -1.20828e-15)
(-1.04267e-15 2.22259e-29 2.77824e-30 169.025 -3.16869e-14 1.80399e-16 1.04914 -5.13417e-16 -3.69872e-16)
(0 1.46049e-29 9.12806e-31 151.444 5.55131e-14 2.17707e-13 0.94719 -3.83231e-16 -1.42139e-15)
(-1.02773e-15 -7.30244e-30 0 151.444 -2.88798e-14 7.40753e-17 0.94719 -5.74623e-16 -3.41355e-16)
(-1.77687e-15 -1.70259e-29 -2.14026e-30 134.428 4.90277e-14 2.09977e-13 0.850575 -3.48564e-16 -1.44969e-15)
(0 2.15933e-29 -3.50325e-46 134.428 -2.60116e-14 -1.29546e-29 0.850575 -6.28302e-16 -3.12427e-16)
(8.34929e-16 -4.00381e-29 -3.64297e-30 118.99 4.27808e-14 1.89632e-13 0.763876 -3.0706e-16 -1.35886e-15)
(0 3.54731e-29 3.1039e-30 118.99 -2.37168e-14 -1.90379e-16 0.763876 -6.78194e-16 -2.85463e-16)
(1.96834e-15 -1.39859e-29 -8.74117e-31 105.495 3.768e-14 1.65013e-13 0.688303 -2.73367e-16 -1.21401e-15)
(0 1.39859e-29 8.74117e-31 105.495 -2.1928e-14 -1.99884e-16 0.688303 -7.2551e-16 -2.61235e-16)
(-9.55202e-16 1.14527e-29 1.38654e-30 93.9159 3.34088e-14 1.4084e-13 0.623307 -2.45305e-16 -1.05718e-15)
(3.82081e-15 0 -8.61589e-31 93.9159 -2.04906e-14 -2.04339e-16 0.623307 -7.70963e-16 -2.4002e-16)
(0 3.39696e-29 2.97234e-30 84.0527 3.03381e-14 1.19161e-13 0.567649 -2.21269e-16 -9.0939e-16)
(0 -3.39696e-29 -2.97234e-30 84.0527 -1.89137e-14 -2.08235e-16 0.567649 -8.12909e-16 -2.21572e-16)
(-1.05218e-15 4.55391e-30 1.00773e-31 75.6563 2.82386e-14 1.00554e-13 0.519947 -2.08649e-16 -7.78647e-16)
(4.20874e-15 0 0 75.6563 -1.7262e-14 -1.87281e-16 0.519947 -8.50736e-16 -2.05597e-16)
(-9.28947e-16 3.30028e-29 1.65014e-30 68.4865 2.66485e-14 8.49155e-14 0.478915 -1.9734e-16 -6.66516e-16)
(-3.44688e-15 -3.30028e-29 -1.65014e-30 68.4865 -1.69339e-14 -1.64483e-16 0.478915 -8.83276e-16 -1.91592e-16)
(0 2.60238e-29 2.03311e-30 62.3332 2.46768e-14 7.18877e-14 0.443439 -1.91396e-16 -5.71642e-16)
(-4.52845e-15 -2.60238e-29 -2.03311e-30 62.3332 -1.59663e-14 -1.52671e-16 0.443439 -9.20788e-16 -1.79345e-16)
(1.80502e-15 -1.28254e-29 -8.01589e-31 57.0209 2.22724e-14 6.10564e-14 0.412592 -1.73724e-16 -4.91811e-16)
(0 1.92381e-29 1.20238e-30 57.0209 -1.36963e-14 -1.30127e-16 0.412592 -9.54797e-16 -1.6843e-16)
(1.19954e-15 2.07422e-29 1.47046e-30 52.4058 2.17415e-14 5.20357e-14 0.385609 -1.60635e-16 -4.24557e-16)
(-4.79815e-15 -3.1604e-29 -1.97525e-30 52.4058 -1.29783e-14 -1.33078e-16 0.385609 -9.86396e-16 -1.58751e-16)
(0 3.11511e-29 1.94694e-30 48.3714 2.11372e-14 4.44976e-14 0.361867 -1.70665e-16 -3.6779e-16)
(0 -3.11511e-29 -1.94694e-30 48.3714 -1.27935e-14 -1.54096e-16 0.361867 -1.01886e-15 -1.50201e-16)
(-1.25761e-15 -1.60839e-30 -2.71955e-31 44.8233 1.87521e-14 3.81633e-14 0.34086 -1.55934e-16 -3.19635e-16)
(0 1.84227e-29 7.67614e-31 44.8233 -1.20828e-14 -1.48807e-16 0.34086 -1.04872e-15 -1.42579e-16)
(4.19881e-16 -4.38919e-29 -2.53553e-30 41.6847 1.70978e-14 3.28103e-14 0.322172 -1.3799e-16 -2.78512e-16)
(0 4.23703e-29 2.64814e-30 41.6847 -1.12299e-14 -1.0519e-16 0.322172 -1.07633e-15 -1.35575e-16)
(0 2.38646e-29 7.45768e-31 38.8933 1.6552e-14 2.82623e-14 0.305463 -1.33992e-16 -2.43217e-16)
(-5.23413e-15 -3.57969e-29 -1.11865e-30 38.8933 -1.04934e-14 -7.37942e-17 0.305463 -1.1028e-15 -1.28993e-16)
(1.33181e-15 3.07583e-29 9.88594e-31 36.398 1.54133e-14 2.43783e-14 0.290452 -1.33159e-16 -2.1273e-16)
(0 -3.52838e-29 -1.10262e-30 36.398 -9.97971e-15 -7.31348e-17 0.290452 -1.12556e-15 -1.22799e-16)
(-2.70769e-15 3.8031e-29 2.40306e-30 34.1568 1.36466e-14 2.10444e-14 0.276907 -1.19136e-16 -1.86278e-16)
(0 -2.89818e-29 -2.17363e-30 34.1568 -9.33514e-15 -1.17461e-16 0.276907 -1.14653e-15 -1.17026e-16)
(5.73244e-15 -4.78509e-29 -2.13159e-30 32.1348 1.2825e-14 1.81627e-14 0.264633 -1.07495e-16 -1.63172e-16)
(9.38997e-15 3.42797e-29 1.7854e-30 32.1348 -8.3801e-15 -1.51535e-16 0.264633 -1.16944e-15 -1.11808e-16)
(0 -2.81569e-29 -1.40785e-30 30.3031 1.41231e-14 1.56602e-14 0.253468 -1.08677e-16 -1.42811e-16)
(5.5787e-15 3.37883e-29 1.75981e-30 30.3031 -8.1405e-15 -1.33216e-16 0.253468 -1.18838e-15 -1.06758e-16)
(1.41368e-15 6.58717e-30 2.30062e-31 28.6373 1.59363e-14 1.34855e-14 0.243276 -1.33003e-16 -1.24847e-16)
(0 -5.55068e-30 0 28.6373 -9.90328e-15 -9.18739e-17 0.243276 -1.2082e-15 -1.01888e-16)
(-2.86371e-15 9.01746e-30 2.35264e-31 27.117 1.6347e-14 1.15844e-14 0.233939 -1.43546e-16 -1.08992e-16)
(-1.14548e-14 0 0 27.117 -1.11517e-14 -3.88042e-17 0.233939 -1.23852e-15 -9.69583e-17)
(-2.96719e-15 2.06824e-29 7.92559e-31 25.7247 1.71218e-14 9.91324e-15 0.22536 -1.44181e-16 -9.48006e-17)
(-5.79711e-15 -1.07854e-29 -3.81052e-30 25.7247 -1.11899e-14 -2.93632e-17 0.22536 -1.27096e-15 -9.19295e-17)
(0 2.65771e-29 1.66107e-30 24.4457 1.72871e-14 8.43558e-15 0.217453 -1.61685e-16 -8.21268e-17)
(-5.86405e-15 -2.65771e-29 -1.66107e-30 24.4457 -1.08706e-14 -1.18656e-16 0.217453 -1.30423e-15 -8.73615e-17)
(0 -2.61962e-29 -1.30981e-30 23.2673 1.53005e-14 7.11519e-15 0.210145 -1.51422e-16 -7.06129e-17)
(5.92846e-15 2.61962e-29 1.30981e-30 23.2673 -9.73897e-15 -1.37352e-16 0.210145 -1.33243e-15 -8.30508e-17)
(-1.49764e-15 9.65816e-30 1.21335e-31 22.1787 1.46125e-14 5.93424e-15 0.203375 -1.29642e-16 -6.00876e-17)
(0 0 3.22759e-31 22.1787 -1.00169e-14 -1.26109e-16 0.203375 -1.35975e-15 -7.87467e-17)
(-1.51262e-15 2.99387e-29 1.07685e-30 21.1703 1.53238e-14 4.88188e-15 0.197086 -1.42935e-16 -5.05e-17)
(0 -2.54506e-29 -9.54398e-31 21.1703 -1.06247e-14 -8.48201e-17 0.197086 -1.38696e-15 -7.43268e-17)
(-1.52711e-15 2.45523e-29 7.50786e-31 20.234 1.43681e-14 3.93509e-15 0.191231 -1.46995e-16 -4.17941e-17)
(-6.10844e-15 -1.50515e-29 -6.27146e-31 20.234 -9.58454e-15 -6.39993e-17 0.191231 -1.41332e-15 -6.9729e-17)
(1.54114e-15 -1.93189e-29 -4.34009e-31 19.3627 1.31909e-14 3.0755e-15 0.185769 -1.28645e-16 -3.3675e-17)
(0 1.48358e-29 3.09079e-31 19.3627 -8.49321e-15 -8.96615e-17 0.185769 -1.43758e-15 -6.52562e-17)
(1.55474e-15 -2.39774e-29 -1.3449e-30 18.55 1.27694e-14 2.29849e-15 0.180662 -1.28212e-16 -2.61584e-17)
(0 1.94975e-29 1.2186e-30 18.55 -7.84788e-15 -7.91329e-17 0.180662 -1.46148e-15 -6.09109e-17)
(-1.56794e-15 1.88905e-29 4.2806e-31 17.7906 1.26297e-14 1.59467e-15 0.175879 -1.24024e-16 -1.91995e-17)
(0 -4.80452e-30 -3.00283e-31 17.7906 -7.24079e-15 -5.67676e-17 0.175879 -1.48634e-15 -5.61629e-17)
(0 2.36783e-29 5.91957e-31 17.0796 1.25714e-14 9.53561e-16 0.171391 -1.29149e-16 -1.27155e-17)
(0 -2.8414e-29 -8.87936e-31 17.0796 -7.51846e-15 -1.01222e-16 0.171391 -1.50519e-15 -5.14694e-17)
(-1.59324e-15 1.84732e-29 4.22733e-31 16.4127 1.18168e-14 3.70632e-16 0.167172 -1.26463e-16 -6.63056e-18)
(5.0591e-15 -4.66779e-30 0 16.4127 -6.65491e-15 -1.19537e-16 0.167172 -1.52719e-15 -4.70526e-17)
(2.59007e-15 -2.76053e-29 -1.15022e-30 15.786 1.07043e-14 -1.59502e-16 0.1632 -1.1725e-16 -4.35157e-18)
(3.8315e-15 2.76053e-29 1.15022e-30 15.786 -6.02475e-15 -7.07475e-17 0.1632 -1.54409e-15 -4.2435e-17)
(1.61724e-15 1.36739e-29 1.00111e-30 15.1962 1.0134e-14 -6.488e-16 0.159455 -1.06714e-16 -9.46216e-18)
(-6.46894e-15 -2.72097e-29 -1.7006e-30 15.1962 -6.87507e-15 -2.07724e-17 0.159455 -1.56114e-15 -3.7557e-17)
(1.62879e-15 -1.78727e-29 -6.91935e-31 14.6403 1.04572e-14 -1.10102e-15 0.155918 -1.08488e-16 -1.42921e-17)
(0 1.34098e-29 -4.4742e-33 14.6403 -6.56477e-15 -8.30744e-31 0.155918 -1.57372e-15 -3.224e-17)
(-4.12036e-15 -8.75886e-30 -1.4144e-31 14.1156 1.08262e-14 -1.51392e-15 0.152573 -1.16854e-16 -1.88294e-17)
(2.48029e-15 1.76235e-29 5.50735e-31 14.1156 -6.6955e-15 -7.4084e-17 0.152573 -1.5965e-15 -2.72092e-17)
(1.6511e-15 8.57321e-30 4.08033e-31 13.6196 1.03596e-14 -1.89287e-15 0.149406 -1.19789e-16 -2.31748e-17)
(6.6044e-15 -4.34273e-30 -2.71421e-31 13.6196 -6.63018e-15 -9.94809e-17 0.149406 -1.61661e-15 -2.20084e-17)
(2.4097e-15 -1.28415e-29 -8.02592e-31 13.1501 9.69051e-15 -2.25088e-15 0.146404 -1.09856e-16 -2.74937e-17)
(6.64754e-15 1.28415e-29 8.02592e-31 13.1501 -6.22437e-15 -9.35269e-17 0.146404 -1.62631e-15 -1.67838e-17)
(-1.67244e-15 8.67076e-30 1.36987e-31 12.7051 9.75756e-15 -2.58365e-15 0.143554 -1.08136e-16 -3.15038e-17)
(0 4.21914e-30 2.63696e-31 12.7051 -6.31538e-15 -5.92783e-17 0.143554 -1.64066e-15 -1.12388e-17)
(-1.68278e-15 4.44706e-30 -1.21606e-31 12.2829 9.72872e-15 -2.88691e-15 0.140845 -1.14615e-16 -3.53722e-17)
(0 8.31733e-30 5.19833e-31 12.2829 -6.58671e-15 -7.03665e-17 0.140845 -1.65725e-15 -5.35124e-18)
(0 -1.22972e-29 -2.56191e-31 11.8819 9.87228e-15 -3.17436e-15 0.138269 -1.10631e-16 -3.92287e-17)
(2.30757e-15 1.63963e-29 2.56191e-31 11.8819 -6.37832e-15 -7.31248e-17 0.138269 -1.68016e-15 6.1895e-19)
(-1.70284e-15 -3.64025e-30 1.41276e-31 11.5005 1.11614e-14 -3.44186e-15 0.135815 -1.2137e-16 -4.28303e-17)
(0 1.61613e-29 5.05039e-31 11.5005 -6.63639e-15 -4.854e-17 0.135815 -1.70227e-15 6.82665e-18)
(0 3.18592e-29 1.4934e-30 11.1374 1.16084e-14 -3.68777e-15 0.133476 -1.4482e-16 -4.63673e-17)
(-6.85036e-15 -2.78768e-29 -1.2445e-30 11.1374 -7.09452e-15 -4.61143e-17 0.133476 -1.72496e-15 1.31963e-17)
(-3.93192e-15 -1.9121e-29 -1.32729e-30 10.7914 9.6322e-15 -3.91906e-15 0.131244 -1.35811e-16 -4.98002e-17)
(6.88865e-15 2.74773e-29 1.71733e-30 10.7914 -5.68335e-15 -4.89997e-17 0.131244 -1.74714e-15 1.96312e-17)
(0 2.32144e-29 1.69272e-30 10.4614 7.64378e-15 -4.13945e-15 0.129112 -1.0023e-16 -5.32507e-17)
(0 -2.32144e-29 -1.69272e-30 10.4614 -4.63122e-15 -2.02668e-17 0.129112 -1.76343e-15 2.64028e-17)
(-1.74081e-15 2.73142e-29 6.25265e-31 10.1463 8.16191e-15 -4.34745e-15 0.127075 -8.99404e-17 -5.65495e-17)
(6.96322e-15 -2.28817e-29 -4.76702e-31 10.1463 -4.69827e-15 -5.91461e-17 0.127075 -1.77673e-15 3.34627e-17)
(1.38369e-15 -2.76457e-29 -7.71183e-31 9.84524 9.06708e-15 -4.53574e-15 0.125125 -1.16344e-16 -5.96692e-17)
(9.11568e-15 1.87948e-29 4.69869e-31 9.84524 -5.44829e-15 -8.68573e-17 0.125125 -1.79867e-15 4.00503e-17)
(0 -1.11152e-29 -6.94702e-31 9.5573 7.52764e-15 -4.71509e-15 0.123259 -1.15932e-16 -6.29011e-17)
(0 1.48203e-29 6.94702e-31 9.5573 -5.54767e-15 -8.42593e-18 0.123259 -1.83252e-15 4.731e-17)
(-1.76764e-15 4.42514e-30 -7.31592e-32 9.28169 5.61905e-15 -4.88574e-15 0.121471 -7.94507e-17 -6.59496e-17)
(0 1.46079e-29 4.56497e-31 9.28169 -3.58921e-15 1.26506e-17 0.121471 -1.86308e-15 5.45166e-17)
(-3.55261e-15 2.32482e-29 9.89684e-31 9.01768 5.27943e-15 -5.05186e-15 0.119756 -6.86362e-17 -6.92201e-17)
(7.10521e-15 -2.15978e-29 -1.12489e-30 9.01768 -2.52026e-15 -9.27991e-18 0.119756 -1.87621e-15 6.13881e-17)
(-1.78484e-15 4.42285e-30 -6.19245e-32 8.76459 6.01813e-15 -5.21249e-15 0.11811 -7.26266e-17 -7.22727e-17)
(0 7.09608e-30 4.43505e-31 8.76459 -3.14022e-15 -2.64446e-17 0.11811 -1.88858e-15 6.86888e-17)
(-1.79326e-15 -2.5767e-30 1.6235e-31 8.5218 7.16803e-15 -5.36151e-15 0.11653 -9.08414e-17 -7.53811e-17)
(7.17302e-15 1.39888e-29 2.18574e-31 8.5218 -2.79398e-15 -1.22962e-17 0.11653 -1.90647e-15 7.57878e-17)
(-1.80155e-15 1.82009e-29 3.80413e-31 8.28873 7.17967e-15 -5.50596e-15 0.115011 -1.06647e-16 -7.84544e-17)
(0 -6.89413e-30 0 8.28873 -3.25164e-15 3.46415e-17 0.115011 -1.91316e-15 8.32186e-17)
(-3.61947e-15 2.24146e-29 1.18476e-30 8.06483 6.37723e-15 -5.64742e-15 0.113551 -9.38298e-17 -8.16277e-17)
(-7.23894e-15 -1.35906e-29 -8.49415e-31 8.06483 -3.01869e-15 9.16434e-18 0.113551 -1.93466e-15 9.01641e-17)
(-3.63562e-15 -1.79701e-29 -9.1491e-31 7.8496 6.59665e-15 -5.78706e-15 0.112147 -8.68634e-17 -8.47971e-17)
(1.26572e-14 2.67917e-29 1.25586e-30 7.8496 -2.80901e-15 -4.10644e-17 0.112147 -1.95196e-15 9.71633e-17)
(-9.19389e-15 4.62297e-29 2.37693e-30 7.64258 7.73096e-15 -5.91957e-15 0.110795 -1.02933e-16 -8.79124e-17)
(-3.58656e-15 -3.30096e-29 -1.85679e-30 7.64258 -4.82595e-15 -1.82613e-17 0.110795 -1.96703e-15 1.03887e-16)
(-1.83365e-15 -2.1628e-29 -1.24705e-30 7.44334 8.06771e-15 -6.03995e-15 0.109492 -1.22739e-16 -9.087e-17)
(7.33459e-15 2.60292e-29 1.62683e-30 7.44334 -4.29581e-15 3.74303e-17 0.109492 -1.98842e-15 1.10929e-16)
(3.64681e-15 -1.72271e-29 -9.81333e-31 7.25147 6.83119e-15 -6.15773e-15 0.108237 -1.15988e-16 -9.40498e-17)
(-1.80539e-15 1.28281e-29 8.01755e-31 7.25147 -3.51395e-15 2.93467e-17 0.108237 -1.99544e-15 1.1858e-16)
(1.77952e-15 -3.16105e-29 -1.58053e-30 7.0666 6.06143e-15 -6.27493e-15 0.107027 -8.89356e-17 -9.71284e-17)
(5.61688e-15 3.16105e-29 1.58053e-30 7.0666 -3.24443e-15 -2.54562e-17 0.107027 -2.00907e-15 1.25458e-16)
(1.75401e-15 -6.2315e-30 -1.16841e-30 6.88837 6.76614e-15 -6.38411e-15 0.105859 -9.57655e-17 -1.00204e-16)
(7.42675e-15 1.2463e-29 1.55787e-30 6.88837 -2.42699e-15 -4.11118e-17 0.105859 -2.02226e-15 1.32601e-16)
(-3.45774e-15 1.84265e-29 1.53555e-30 6.71645 7.6736e-15 -6.48517e-15 0.104732 -1.13479e-16 -1.03165e-16)
(5.72788e-15 -1.22844e-29 -3.83886e-31 6.71645 -3.45164e-15 -1.324e-19 0.104732 -2.03316e-15 1.40129e-16)
(0 2.42166e-29 1.13515e-30 6.55055 7.25014e-15 -6.58042e-15 0.103644 -1.27232e-16 -1.06191e-16)
(0 -2.42166e-29 -1.13515e-30 6.55055 -4.96502e-15 1.9105e-17 0.103644 -2.05358e-15 1.47727e-16)
(-3.75789e-15 8.77068e-30 2.12763e-32 6.39036 6.36105e-15 -6.66939e-15 0.102593 -1.03235e-16 -1.0908e-16)
(0 0 3.72961e-31 6.39036 -4.93897e-15 -2.2776e-17 0.102593 -2.08866e-15 1.5505e-16)
(0 -2.94092e-29 -1.47046e-30 6.23561 8.17695e-15 -6.74925e-15 0.101576 -1.02055e-16 -1.11935e-16)
(7.54482e-15 2.94092e-29 1.47046e-30 6.23561 -3.92892e-15 -7.91569e-17 0.101576 -2.11622e-15 1.61835e-16)
(0 1.73926e-29 7.24693e-31 6.08606 9.31669e-15 -6.81134e-15 0.100594 -1.6615e-16 -1.14353e-16)
(7.57356e-15 -5.79755e-30 -3.62347e-31 6.08606 -3.93614e-15 -8.16677e-17 0.100594 -2.13157e-15 1.68558e-16)
(-1.9005e-15 4.36525e-30 5.65897e-31 5.94147 7.82411e-15 -6.87372e-15 0.0996433 -1.43182e-16 -1.17332e-16)
(0 5.71445e-30 3.57153e-31 5.94147 -3.95687e-15 1.68797e-17 0.0996433 -2.1531e-15 1.75626e-16)
(1.90754e-15 1.25327e-29 1.19538e-30 5.8016 6.77021e-15 -6.94746e-15 0.0987234 -1.20348e-16 -1.20242e-16)
(-3.17084e-15 -5.63255e-30 -1.0561e-30 5.8016 -2.59076e-15 1.13571e-16 0.0987234 -2.17565e-15 1.83849e-16)
(3.1254e-15 -1.11036e-29 -1.04097e-30 5.66625 5.68459e-15 -7.02736e-15 0.0978328 -1.11078e-16 -1.23561e-16)
(-3.1254e-15 1.11036e-29 1.04097e-30 5.66625 -4.06768e-15 -8.99638e-18 0.0978328 -2.18153e-15 1.92018e-16)
(0 -1.09445e-29 -1.02605e-30 5.53522 5.27653e-15 -7.11462e-15 0.0969703 -8.59389e-17 -1.26858e-16)
(0 1.64168e-29 1.36806e-30 5.53522 -7.82109e-15 -1.41061e-16 0.0969703 -2.21643e-15 1.98352e-16)
(-3.85654e-15 3.32294e-30 -2.23713e-31 5.40832 5.65428e-15 -7.19551e-15 0.0961346 -9.98663e-17 -1.3009e-16)
(3.03645e-15 1.07876e-29 6.74227e-31 5.40832 -7.54764e-15 -1.32841e-16 0.0961346 -2.26695e-15 2.05496e-16)
(-1.93505e-15 1.49877e-29 1.55871e-30 5.28538 6.53073e-15 -7.27626e-15 0.0953247 -1.02042e-16 -1.3352e-16)
(0 -1.0633e-29 -1.32913e-30 5.28538 -6.71758e-15 -1.28112e-17 0.0953247 -2.30262e-15 2.13189e-16)
(1.94178e-15 -9.5873e-30 -2.33944e-31 5.16622 7.13829e-15 -7.36378e-15 0.0945395 -1.34772e-16 -1.37141e-16)
(-7.7671e-15 5.24031e-30 0 5.16622 -8.51585e-15 1.21698e-16 0.0945395 -2.3467e-15 2.2151e-16)
(2.90775e-15 -1.03304e-29 -6.45651e-31 5.05068 6.73171e-15 -7.45077e-15 0.0937779 -1.27523e-16 -1.40699e-16)
(-7.79377e-15 1.54956e-29 9.68476e-31 5.05068 -6.75771e-15 2.57601e-17 0.0937779 -2.39589e-15 2.29789e-16)
(9.11025e-16 1.96169e-29 1.19778e-30 4.93863 7.33778e-15 -7.52305e-15 0.0930391 -1.2345e-16 -1.43912e-16)
(1.27743e-14 -5.09117e-30 -6.36397e-31 4.93863 -3.5279e-15 -1.58564e-16 0.0930391 -2.41612e-15 2.37231e-16)
(1.96161e-15 1.07201e-29 1.32019e-30 4.82991 7.43978e-15 -7.58474e-15 0.0923221 -1.54352e-16 -1.47205e-16)
(7.84643e-15 -1.50546e-29 -1.88183e-30 4.82991 -5.93397e-15 -1.6004e-16 0.0923221 -2.43518e-15 2.44007e-16)
(0 -4.94628e-30 6.18285e-31 4.72439 7.35558e-15 -7.64126e-15 0.091626 -1.31009e-16 -1.50345e-16)
(0 1.48388e-29 0 4.72439 -7.57214e-15 -8.55992e-17 0.091626 -2.49801e-15 2.52443e-16)
(-1.97456e-15 -1.51791e-29 -2.17963e-30 4.62194 8.17888e-15 -7.67634e-15 0.0909501 -1.55572e-16 -1.52913e-16)
(7.89825e-15 1.95016e-29 2.43769e-30 4.62194 -6.71937e-15 6.39231e-18 0.0909501 -2.53317e-15 2.61449e-16)
(-1.98096e-15 2.35364e-29 1.16418e-30 4.52245 8.64376e-15 -7.71232e-15 0.0902936 -1.67606e-16 -1.56201e-16)
(-1.06291e-14 -9.61102e-30 -6.00689e-31 4.52245 -6.83622e-15 5.53877e-17 0.0902936 -2.56789e-15 2.71831e-16)
(1.98732e-15 -1.85173e-29 -1.15655e-30 4.42579 9.03431e-15 -7.75744e-15 0.0896558 -1.78896e-16 -1.5924e-16)
(7.94927e-15 1.42099e-29 8.88119e-31 4.42579 -5.35689e-15 -1.27363e-16 0.0896558 -2.60448e-15 2.82036e-16)
(-4.6219e-15 2.29765e-29 2.31633e-30 4.33187 8.25495e-15 -7.80503e-15 0.0890358 -1.88512e-16 -1.62754e-16)
(1.06028e-14 -1.8675e-29 -2.04258e-30 4.33187 -4.9147e-15 -1.42688e-16 0.0890358 -2.60901e-15 2.91626e-16)
(-1.99989e-15 8.90558e-30 -2.95958e-31 4.24056 6.51133e-15 -7.86195e-15 0.0884332 -1.51752e-16 -1.66305e-16)
(0 -4.60183e-30 5.75229e-31 4.24056 -4.60101e-15 5.93406e-17 0.0884332 -2.63158e-15 3.03265e-16)
(-2.0061e-15 8.84131e-30 2.84996e-31 4.15179 4.78344e-15 -7.91815e-15 0.0878473 -1.20531e-16 -1.69925e-16)
(0 4.53588e-30 5.66985e-31 4.15179 -1.79182e-15 6.16104e-17 0.0878473 -2.65088e-15 3.16657e-16)
(-2.01228e-15 -1.80456e-29 -8.26941e-31 4.06545 3.91884e-15 -7.9757e-15 0.0872773 -8.22981e-17 -1.73674e-16)
(8.04911e-15 2.23543e-29 1.11772e-30 4.06545 -2.33332e-16 1.48591e-17 0.0872773 -2.65277e-15 3.28204e-16)
(2.01841e-15 -1.75261e-29 -1.39833e-30 3.98145 4.41358e-15 -8.04078e-15 0.0867229 -8.65457e-17 -1.77768e-16)
(0 1.32204e-29 1.1017e-30 3.98145 -9.61173e-16 1.14786e-16 0.0867229 -2.65508e-15 3.40273e-16)
(0 -1.30309e-29 -5.42953e-31 3.89971 4.91987e-15 -8.10402e-15 0.0861834 -1.06488e-16 -1.81585e-16)
(0 1.30309e-29 5.42953e-31 3.89971 -2.88846e-15 1.36169e-16 0.0861834 -2.65749e-15 3.54495e-16)
(-2.03056e-15 1.39422e-32 -2.26205e-31 3.82015 5.48774e-15 -8.15252e-15 0.0856583 -1.11693e-16 -1.85173e-16)
(0 1.28441e-29 1.07034e-30 3.82015 -3.91395e-15 -3.64239e-17 0.0856583 -2.6847e-15 3.66714e-16)
(0 -2.95401e-29 -4.22001e-30 3.74269 6.78317e-15 -8.20453e-15 0.0851472 -1.35338e-16 -1.89296e-16)
(1.86682e-14 3.37601e-29 4.74751e-30 3.74269 -1.77763e-15 -1.89214e-16 0.0851472 -2.71198e-15 3.76835e-16)
(-2.3416e-15 4.15952e-30 5.19941e-31 3.66726 6.35323e-15 -8.26423e-15 0.0846495 -1.74515e-16 -1.93382e-16)
(8.1702e-15 8.31905e-30 0 3.66726 -4.35706e-16 -4.10038e-17 0.0846495 -2.70715e-15 3.86279e-16)
(-2.04849e-15 3.29862e-29 3.40201e-30 3.59378 4.373e-15 -8.33447e-15 0.0841647 -1.19251e-16 -1.98164e-16)
(-1.0502e-14 -2.45994e-29 -2.56244e-30 3.59378 -1.49908e-15 2.44843e-16 0.0841647 -2.7162e-15 3.98726e-16)
(2.20567e-16 2.04549e-29 2.35358e-30 3.52219 4.13876e-15 -8.40173e-15 0.0836925 -8.59298e-17 -2.02275e-16)
(-1.04925e-14 -1.21234e-29 -1.51543e-30 3.52219 -1.79971e-15 2.60827e-16 0.0836925 -2.73401e-15 4.1311e-16)
(0 1.19497e-29 4.97903e-31 3.45243 5.10378e-15 -8.45857e-15 0.0832325 -1.115e-16 -2.06737e-16)
(-2.24236e-15 -3.98323e-30 0 3.45243 -9.0131e-16 1.1361e-16 0.0832325 -2.73145e-15 4.24789e-16)
(0 1.17784e-29 1.4723e-30 3.38443 6.47415e-15 -8.50287e-15 0.0827842 -1.35446e-16 -2.1039e-16)
(8.26442e-15 -3.92614e-30 -9.81534e-31 3.38443 -1.49231e-15 1.28255e-16 0.0827842 -2.73141e-15 4.34052e-16)
(-1.06631e-16 2.66987e-29 3.51927e-30 3.31813 6.78047e-15 -8.54e-15 0.0823472 -1.82477e-16 -2.14654e-16)
(0 -2.32192e-29 -2.9024e-30 3.31813 -2.69303e-15 7.39727e-17 0.0823472 -2.75604e-15 4.43719e-16)
(0 -4.57728e-29 -4.768e-30 3.25348 6.16954e-15 -8.60667e-15 0.0819213 -1.5477e-16 -2.19944e-16)
(1.66215e-14 4.57728e-29 4.768e-30 3.25348 -1.95784e-15 -9.58125e-17 0.0819213 -2.78101e-15 4.50074e-16)
(0 -7.51946e-30 -9.39932e-31 3.19042 6.63814e-15 -8.67459e-15 0.081506 -1.56751e-16 -2.24447e-16)
(1.66674e-14 1.50389e-29 9.39932e-31 3.19042 -3.48623e-15 7.72699e-18 0.081506 -2.77514e-15 4.56996e-16)
(-4.17827e-15 8.48955e-30 7.37874e-31 3.12891 6.66111e-15 -8.72883e-15 0.0811009 -1.83482e-16 -2.29226e-16)
(0 0 0 3.12891 -5.21654e-15 9.00375e-17 0.0811009 -2.79812e-15 4.65471e-16)
(-2.09482e-15 5.90343e-31 3.75508e-31 3.06889 7.02609e-15 -8.78289e-15 0.0807059 -1.62545e-16 -2.33893e-16)
(1.67585e-14 7.30546e-30 4.56591e-31 3.06889 -4.36243e-15 4.10359e-18 0.0807059 -2.82827e-15 4.72484e-16)
(2.10047e-15 -1.86301e-29 -1.28214e-30 3.01032 8.08508e-15 -8.83201e-15 0.0803206 -2.08241e-16 -2.38587e-16)
(0 1.44015e-29 9.00094e-31 3.01032 -5.10008e-15 6.9964e-17 0.0803206 -2.84738e-15 4.79662e-16)
(-2.1061e-15 1.13158e-29 3.88344e-31 2.95314 7.0814e-15 -8.8898e-15 0.0799446 -2.24367e-16 -2.43903e-16)
(0 7.09755e-30 8.87193e-31 2.95314 -5.2257e-15 1.05811e-16 0.0799446 -2.88716e-15 4.85402e-16)
(-2.1117e-15 1.82154e-29 2.14399e-30 2.89732 5.92304e-15 -8.97136e-15 0.0795777 -1.59475e-16 -2.501e-16)
(8.44678e-15 -1.39916e-29 -1.74895e-30 2.89732 -3.35106e-15 2.99265e-17 0.0795777 -2.90962e-15 4.90598e-16)
(-1.76342e-16 1.11136e-29 2.55717e-30 2.84282 6.29137e-15 -9.04427e-15 0.0792196 -1.66697e-16 -2.55151e-16)
(6.52814e-15 0 -1.29292e-30 2.84282 -3.15416e-15 -4.98576e-17 0.0792196 -2.90931e-15 4.96221e-16)
(-4.24563e-15 1.62345e-30 3.94158e-31 2.78958 6.13592e-15 -9.09008e-15 0.0788701 -1.84871e-16 -2.6004e-16)
(0 6.79672e-30 4.24795e-31 2.78958 -4.06118e-15 7.10857e-17 0.0788701 -2.94635e-15 4.98817e-16)
(-2.42646e-16 1.76068e-29 2.09159e-30 2.73759 4.92639e-15 -9.13234e-15 0.0785289 -1.62706e-16 -2.65072e-16)
(-1.88569e-15 -6.69931e-30 -8.37413e-31 2.73759 -3.98283e-15 2.99594e-16 0.0785289 -2.98669e-15 5.05357e-16)
(0 -1.32066e-29 -8.25411e-31 2.68679 4.48697e-15 -9.1901e-15 0.0781957 -1.20237e-16 -2.71052e-16)
(-6.67665e-15 1.98099e-29 1.23812e-30 2.68679 -3.67902e-15 9.92931e-17 0.0781957 -3.00876e-15 5.11673e-16)
(2.1393e-15 -1.72201e-29 -2.87282e-30 2.63715 4.97098e-15 -9.24516e-15 0.0778704 -1.41654e-16 -2.76119e-16)
(8.5572e-15 1.30173e-29 2.44074e-30 2.63715 -4.32995e-15 -6.78408e-17 0.0778704 -3.03451e-15 5.13989e-16)
(2.14475e-15 -1.70258e-29 -2.84565e-30 2.58864 4.45005e-15 -9.29543e-15 0.0775527 -1.52611e-16 -2.82032e-16)
(-8.57899e-15 1.28307e-29 2.40576e-30 2.58864 -4.13432e-15 9.80152e-17 0.0775527 -3.08063e-15 5.17854e-16)
(-2.15017e-15 1.68433e-29 2.02887e-30 2.54123 3.95215e-15 -9.34768e-15 0.0772423 -1.14298e-16 -2.87413e-16)
(6.8208e-15 -6.32341e-30 0 2.54123 -2.64384e-15 2.05561e-16 0.0772423 -3.10228e-15 5.22234e-16)
(1.75437e-15 2.49311e-29 3.11639e-30 2.49488 4.39848e-15 -9.40737e-15 0.0769391 -1.26533e-16 -2.9401e-16)
(-1.75437e-15 -1.24656e-29 -1.5582e-30 2.49488 -3.18612e-15 7.41119e-17 0.0769391 -3.10159e-15 5.26229e-16)
(-3.45845e-15 1.84303e-29 2.30379e-30 2.44956 6.10713e-15 -9.46507e-15 0.0766429 -1.4543e-16 -2.99477e-16)
(8.64381e-15 -6.14345e-30 -7.67931e-31 2.44956 -5.1461e-15 -1.38369e-16 0.0766429 -3.12854e-15 5.26871e-16)
(2.16631e-15 -2.23261e-29 -2.74311e-30 2.40524 8.92498e-15 -9.51325e-15 0.0763534 -2.38148e-16 -3.0571e-16)
(0 1.81662e-29 2.27077e-30 2.40524 -8.14979e-15 -1.22279e-16 0.0763534 -3.17759e-15 5.30028e-16)
(3.36003e-15 1.79058e-29 2.23823e-30 2.3619 1.02205e-14 -9.56746e-15 0.0760705 -3.30238e-16 -3.11773e-16)
(-1.20466e-14 -5.96861e-30 -1.49215e-30 2.3619 -1.0384e-14 -6.57095e-17 0.0760705 -3.27968e-15 5.40574e-16)
(-3.31187e-15 5.88306e-30 7.35383e-31 2.3195 8.91474e-15 -9.58549e-15 0.075794 -3.29338e-16 -3.15853e-16)
(0 1.17661e-29 1.47077e-30 2.3195 -8.58112e-15 4.5859e-17 0.075794 -3.36327e-15 5.51149e-16)
(0 1.15975e-29 1.44969e-30 2.27803 6.35284e-15 -9.59821e-15 0.0755238 -2.53798e-16 -3.21758e-16)
(0 0 -7.24843e-31 2.27803 -4.29695e-15 1.75075e-16 0.0755238 -3.39305e-15 5.66991e-16)
(2.18754e-15 1.87257e-29 3.77858e-30 2.23745 4.23975e-15 -9.63961e-15 0.0752596 -1.67572e-16 -3.27916e-16)
(0 -2.28625e-29 -4.28672e-30 2.23745 -2.31347e-15 1.74915e-16 0.0752596 -3.38859e-15 5.84606e-16)
(2.1928e-15 7.12673e-30 1.86861e-31 2.19773 3.60391e-15 -9.70183e-15 0.0750012 -1.17793e-16 -3.35468e-16)
(-3.1715e-15 0 0 2.19773 -2.47508e-15 1.41686e-16 0.0750012 -3.42081e-15 6.01042e-16)
(-4.39607e-15 8.27029e-30 1.05389e-30 2.15887 3.92689e-15 -9.75099e-15 0.0747486 -1.28691e-16 -3.40957e-16)
(8.79215e-15 0 0 2.15887 -2.26067e-15 -2.31727e-17 0.0747486 -3.44363e-15 6.16653e-16)
(-2.20326e-15 4.12885e-30 1.22068e-30 2.12083 2.84005e-15 -9.79645e-15 0.0745016 -1.4381e-16 -3.48517e-16)
(0 5.47338e-30 0 2.12083 -3.6771e-15 -6.4977e-17 0.0745016 -3.44052e-15 6.29627e-16)
(0 -2.83176e-29 6.74366e-31 2.08359 3.10478e-15 -9.86266e-15 0.07426 -5.54186e-17 -3.55707e-16)
(0 0 -6.74366e-31 2.08359 -4.68692e-15 2.08921e-16 0.07426 -3.48127e-15 6.44814e-16)
(0 1.06352e-29 3.32351e-30 2.04713 6.48683e-15 -9.92257e-15 0.0740237 -2.54373e-16 -3.63097e-16)
(0 0 -1.9941e-30 2.04713 -5.41141e-15 2.89671e-16 0.0740237 -3.51393e-15 6.63132e-16)
(0 1.57242e-29 2.6207e-30 2.01142 6.55777e-15 -9.99649e-15 0.0737926 -2.15225e-16 -3.71599e-16)
(-2.95064e-15 -5.24139e-30 -6.55174e-31 2.01142 -5.94394e-15 -7.63235e-17 0.0737926 -3.5834e-15 6.79473e-16)
(0 1.54988e-29 1.29157e-30 1.97646 6.9073e-15 -1.00696e-14 0.0735664 -2.67075e-16 -3.79224e-16)
(1.48834e-14 -5.16627e-30 0 1.97646 -4.73346e-15 -3.82247e-16 0.0735664 -3.64973e-15 6.91068e-16)
(-4.4582e-15 1.32619e-29 1.17809e-30 1.94222 5.59917e-15 -9.93215e-15 0.0733452 -2.47779e-16 -3.72011e-16)
(8.91641e-15 -5.09222e-30 0 1.94222 -4.42089e-15 -2.12681e-16 0.0733452 -3.66662e-15 7.02359e-16)
(2.23422e-15 -9.1102e-30 -3.73462e-30 1.90868 4.92258e-15 -9.92625e-15 0.0731287 -1.7523e-16 -3.89877e-16)
(0 5.01924e-30 3.13703e-30 1.90868 -5.8978e-15 1.8785e-16 0.0731287 -3.69977e-15 7.17538e-16)
(0 4.9473e-30 1.85524e-30 1.87582 5.88912e-15 -1.00773e-14 0.0729168 -2.02737e-16 -3.94752e-16)
(-1.17424e-14 0 -6.18413e-31 1.87582 -5.18719e-15 3.042e-16 0.0729168 -3.77207e-15 7.37028e-16)
(-2.24441e-15 -1.05613e-29 -2.4259e-30 1.84362 6.80402e-15 -9.97568e-15 0.0727094 -2.56162e-16 -3.93214e-16)
(6.23249e-15 1.95056e-29 3.04775e-30 1.84362 -3.34332e-15 -9.20618e-18 0.0727094 -3.81215e-15 7.5347e-16)
(0 9.61301e-30 1.20163e-30 1.81208 6.58467e-15 -1.00101e-14 0.0725064 -2.8147e-16 -4.09092e-16)
(0 0 0 1.81208 -5.77409e-15 -3.79947e-17 0.0725064 -3.84511e-15 7.62332e-16)
(2.66704e-15 -9.47523e-30 -2.36881e-30 1.78117 5.6458e-15 -1.03267e-14 0.0723078 -2.4596e-16 -4.30663e-16)
(0 9.47523e-30 2.36881e-30 1.78117 -8.0185e-15 1.61457e-16 0.0723078 -3.92762e-15 7.76223e-16)
(-2.25959e-15 8.72688e-30 6.5677e-31 1.75087 4.99752e-15 -1.03078e-14 0.0721132 -2.12826e-16 -4.19507e-16)
(0 -4.66971e-30 0 1.75087 -6.13638e-15 -4.07396e-17 0.0721132 -4.00145e-15 7.88594e-16)
(6.53031e-16 -2.87189e-29 -5.57388e-30 1.72118 4.99199e-15 -1.04614e-14 0.0719228 -1.99302e-16 -4.56229e-16)
(1.8117e-14 3.68223e-29 6.90417e-30 1.72118 -5.01013e-15 -2.02167e-16 0.0719228 -4.02697e-15 7.98417e-16)
(0 9.07362e-30 3.40261e-30 1.69207 6.72795e-15 -1.06154e-14 0.0717363 -2.18594e-16 -4.44964e-16)
(0 0 -2.26841e-30 1.69207 -8.26306e-15 1.19553e-16 0.0717363 -4.06268e-15 8.08176e-16)
(-2.51739e-15 1.78872e-29 2.23589e-30 1.66353 7.84395e-15 -1.03306e-14 0.0715537 -3.53599e-16 -4.44878e-16)
(0 -4.47179e-30 -1.11795e-30 1.66353 -8.51082e-15 2.53852e-16 0.0715537 -4.18158e-15 8.24931e-16)
(-4.35758e-15 -1.88623e-29 -4.48602e-30 1.63555 6.21581e-15 -1.03669e-14 0.0713749 -3.21824e-16 -4.61198e-16)
(1.57557e-14 3.52616e-29 7.71347e-30 1.63555 -4.42665e-15 -1.94443e-16 0.0713749 -4.24518e-15 8.37915e-16)
(2.44575e-15 -3.47562e-29 -7.60291e-30 1.60812 5.63461e-15 -1.05436e-14 0.0711997 -2.20641e-16 -4.73685e-16)
(1.58311e-14 3.47562e-29 7.60291e-30 1.60812 -5.5574e-15 -1.7977e-16 0.0711997 -4.24292e-15 8.43079e-16)
(-2.28957e-15 2.112e-29 3.94713e-30 1.58121 6.8952e-15 -1.06057e-14 0.0710281 -2.79348e-16 -4.80339e-16)