/*--------------------------------*- C++ -*----------------------------------*\
| =========                 |                                                 |
| \\      /  F ield         | OpenFOAM: The Open Source CFD Toolbox           |
|  \\    /   O peration     | Version:  2106                                  |
|   \\  /    A nd           | Website:  www.openfoam.com                      |
|    \\/     M anipulation  |                                                 |
\*---------------------------------------------------------------------------*/
FoamFile
{
    version     2.0;
    format      ascii;
    arch        "LSB;label=32;scalar=64";
    class       volSymmTensorField;
    location    "19000";
    object      turbulenceProperties:R;
}
// * * * * * * * * * * * * * * * * * * * * * * * * * * * * * * * * * * * * * //

dimensions      [0 2 -2 0 0 0 0];

internalField   nonuniform List<symmTensor> 
2560
(
(5.37744e-06 -1.42683e-08 -2.06554e-11 5.37744e-06 1.44585e-22 5.37744e-06)
(5.37744e-06 -1.42683e-08 -2.06554e-11 5.37744e-06 -1.38533e-28 5.37744e-06)
(2.35015e-06 -3.58195e-08 -1.56334e-10 2.35015e-06 3.32397e-23 2.35015e-06)
(2.35015e-06 -3.58195e-08 -1.56334e-10 2.35015e-06 2.61743e-27 2.35015e-06)
(1.14778e-05 -5.14071e-07 -3.08404e-09 1.14778e-05 2.45061e-22 1.14778e-05)
(1.14778e-05 -5.14071e-07 -3.08404e-09 1.14778e-05 -1.04222e-26 1.14778e-05)
(4.13905e-05 -3.87552e-06 -2.35444e-08 4.13905e-05 1.61213e-21 4.13905e-05)
(4.13905e-05 -3.87552e-06 -2.35444e-08 4.13905e-05 2.60196e-25 4.13905e-05)
(0.000106908 -1.70447e-05 -1.04553e-07 0.000106908 3.67632e-21 0.000106908)
(0.000106908 -1.70447e-05 -1.04553e-07 0.000106908 6.21075e-24 0.000106908)
(0.000222353 -5.21572e-05 -3.21698e-07 0.000222353 -0 0.000222353)
(0.000222353 -5.21572e-05 -3.21698e-07 0.000222353 3.77677e-23 0.000222353)
(0.000395184 -0.000121597 -7.51407e-07 0.000395184 -5.31339e-20 0.000395184)
(0.000395184 -0.000121597 -7.51407e-07 0.000395184 1.33102e-22 0.000395184)
(0.000620001 -0.000228539 -1.41368e-06 0.000620001 -1.92627e-19 0.000620001)
(0.000620001 -0.000228539 -1.41368e-06 0.000620001 3.4267e-22 0.000620001)
(0.000878754 -0.000362616 -2.25077e-06 0.000878754 -4.32916e-19 0.000878754)
(0.000878754 -0.000362616 -2.25077e-06 0.000878754 7.14438e-22 0.000878754)
(0.00114845 -0.00050636 -3.16698e-06 0.00114845 -7.26633e-19 0.00114845)
(0.00114845 -0.00050636 -3.16698e-06 0.00114845 1.67361e-21 0.00114845)
(0.00140979 -0.000644773 -4.07972e-06 0.00140979 -1.00547e-18 0.00140979)
(0.00140979 -0.000644773 -4.07972e-06 0.00140979 3.0136e-21 0.00140979)
(0.00165094 -0.000769517 -4.94003e-06 0.00165094 -1.22438e-18 0.00165094)
(0.00165094 -0.000769517 -4.94003e-06 0.00165094 5.61711e-21 0.00165094)
(0.00186683 -0.000877906 -5.7279e-06 0.00186683 -1.37093e-18 0.00186683)
(0.00186683 -0.000877906 -5.7279e-06 0.00186683 7.70091e-21 0.00186683)
(0.00205681 -0.000970447 -6.44072e-06 0.00205681 -1.45278e-18 0.00205681)
(0.00205681 -0.000970447 -6.44072e-06 0.00205681 1.00779e-20 0.00205681)
(0.00222258 -0.00104897 -7.0842e-06 0.00222258 -1.48436e-18 0.00222258)
(0.00222258 -0.00104897 -7.0842e-06 0.00222258 1.27438e-20 0.00222258)
(0.00236679 -0.00111561 -7.66704e-06 0.00236679 -1.47968e-18 0.00236679)
(0.00236679 -0.00111561 -7.66704e-06 0.00236679 1.53064e-20 0.00236679)
(0.00249227 -0.00117238 -8.19828e-06 0.00249227 -1.45024e-18 0.00249227)
(0.00249227 -0.00117238 -8.19828e-06 0.00249227 1.7936e-20 0.00249227)
(0.00260171 -0.001221 -8.68623e-06 0.00260171 -1.40441e-18 0.00260171)
(0.00260171 -0.001221 -8.68623e-06 0.00260171 2.10272e-20 0.00260171)
(0.0026975 -0.0012629 -9.13809e-06 0.0026975 -1.34843e-18 0.0026975)
(0.0026975 -0.0012629 -9.13809e-06 0.0026975 2.40289e-20 0.0026975)
(0.00278169 -0.00129924 -9.55995e-06 0.00278169 -1.28608e-18 0.00278169)
(0.00278169 -0.00129924 -9.55995e-06 0.00278169 2.77539e-20 0.00278169)
(0.00285601 -0.00133095 -9.95687e-06 0.00285601 -1.21967e-18 0.00285601)
(0.00285601 -0.00133095 -9.95687e-06 0.00285601 3.22743e-20 0.00285601)
(0.0029219 -0.0013588 -1.03331e-05 0.0029219 -1.15218e-18 0.0029219)
(0.0029219 -0.0013588 -1.03331e-05 0.0029219 3.63025e-20 0.0029219)
(0.00298059 -0.00138339 -1.0692e-05 0.00298059 -1.0843e-18 0.00298059)
(0.00298059 -0.00138339 -1.0692e-05 0.00298059 3.92113e-20 0.00298059)
(0.00303307 -0.00140523 -1.10365e-05 0.00303307 -1.01628e-18 0.00303307)
(0.00303307 -0.00140523 -1.10365e-05 0.00303307 4.25106e-20 0.00303307)
(0.0030802 -0.00142471 -1.1369e-05 0.0030802 -9.49016e-19 0.0030802)
(0.0030802 -0.00142471 -1.1369e-05 0.0030802 4.69198e-20 0.0030802)
(0.00312269 -0.00144217 -1.16916e-05 0.00312269 -8.83511e-19 0.00312269)
(0.00312269 -0.00144217 -1.16916e-05 0.00312269 5.33684e-20 0.00312269)
(0.00316114 -0.0014579 -1.20059e-05 0.00316114 -8.19133e-19 0.00316114)
(0.00316114 -0.0014579 -1.20059e-05 0.00316114 5.99305e-20 0.00316114)
(0.00319604 -0.00147211 -1.23134e-05 0.00319604 -7.55487e-19 0.00319604)
(0.00319604 -0.00147211 -1.23134e-05 0.00319604 6.42027e-20 0.00319604)
(0.00322783 -0.00148501 -1.26153e-05 0.00322783 -6.92404e-19 0.00322783)
(0.00322783 -0.00148501 -1.26153e-05 0.00322783 6.74162e-20 0.00322783)
(0.00325687 -0.00149675 -1.29126e-05 0.00325687 -6.31492e-19 0.00325687)
(0.00325687 -0.00149675 -1.29126e-05 0.00325687 7.05036e-20 0.00325687)
(0.00328348 -0.00150748 -1.32062e-05 0.00328348 -5.72471e-19 0.00328348)
(0.00328348 -0.00150748 -1.32062e-05 0.00328348 7.61993e-20 0.00328348)
(0.00330792 -0.0015173 -1.34969e-05 0.00330792 -5.13546e-19 0.00330792)
(0.00330792 -0.0015173 -1.34969e-05 0.00330792 8.83164e-20 0.00330792)
(0.00333043 -0.00152633 -1.37854e-05 0.00333043 -4.5682e-19 0.00333043)
(0.00333043 -0.00152633 -1.37854e-05 0.00333043 9.64168e-20 0.00333043)
(0.00335121 -0.00153464 -1.40724e-05 0.00335121 -4.01645e-19 0.00335121)
(0.00335121 -0.00153464 -1.40724e-05 0.00335121 1.02813e-19 0.00335121)
(0.00337042 -0.00154231 -1.43582e-05 0.00337042 -3.45244e-19 0.00337042)
(0.00337042 -0.00154231 -1.43582e-05 0.00337042 1.07223e-19 0.00337042)
(0.00338823 -0.00154941 -1.46434e-05 0.00338823 -2.90071e-19 0.00338823)
(0.00338823 -0.00154941 -1.46434e-05 0.00338823 1.13125e-19 0.00338823)
(0.00340477 -0.00155598 -1.49284e-05 0.00340477 -2.3681e-19 0.00340477)
(0.00340477 -0.00155598 -1.49284e-05 0.00340477 1.22729e-19 0.00340477)
(0.00342016 -0.0015621 -1.52135e-05 0.00342016 -1.82759e-19 0.00342016)
(0.00342016 -0.0015621 -1.52135e-05 0.00342016 1.29735e-19 0.00342016)
(0.00343449 -0.00156778 -1.54992e-05 0.00343449 -1.29599e-19 0.00343449)
(0.00343449 -0.00156778 -1.54992e-05 0.00343449 1.35985e-19 0.00343449)
(0.00344787 -0.00157308 -1.57856e-05 0.00344787 -7.59307e-20 0.00344787)
(0.00344787 -0.00157308 -1.57856e-05 0.00344787 1.47955e-19 0.00344787)
(0.00346037 -0.00157803 -1.60731e-05 0.00346037 -2.34761e-20 0.00346037)
(0.00346037 -0.00157803 -1.60731e-05 0.00346037 1.58328e-19 0.00346037)
(0.00347207 -0.00158265 -1.63619e-05 0.00347207 2.77462e-20 0.00347207)
(0.00347207 -0.00158265 -1.63619e-05 0.00347207 1.61898e-19 0.00347207)
(0.00348303 -0.00158698 -1.66522e-05 0.00348303 7.89e-20 0.00348303)
(0.00348303 -0.00158698 -1.66522e-05 0.00348303 1.65203e-19 0.00348303)
(0.00349331 -0.00159103 -1.69443e-05 0.00349331 1.31443e-19 0.00349331)
(0.00349331 -0.00159103 -1.69443e-05 0.00349331 1.71023e-19 0.00349331)
(0.00350296 -0.00159483 -1.72383e-05 0.00350296 1.84251e-19 0.00350296)
(0.00350296 -0.00159483 -1.72383e-05 0.00350296 1.88749e-19 0.00350296)
(0.00351203 -0.0015984 -1.75345e-05 0.00351203 2.36208e-19 0.00351203)
(0.00351203 -0.0015984 -1.75345e-05 0.00351203 2.01402e-19 0.00351203)
(0.00352056 -0.00160176 -1.78329e-05 0.00352056 2.87553e-19 0.00352056)
(0.00352056 -0.00160176 -1.78329e-05 0.00352056 2.09487e-19 0.00352056)
(0.00352859 -0.00160492 -1.81338e-05 0.00352859 3.40029e-19 0.00352859)
(0.00352859 -0.00160492 -1.81338e-05 0.00352859 2.14738e-19 0.00352859)
(0.00353615 -0.00160789 -1.84373e-05 0.00353615 3.92913e-19 0.00353615)
(0.00353615 -0.00160789 -1.84373e-05 0.00353615 2.26154e-19 0.00353615)
(0.00354328 -0.00161069 -1.87436e-05 0.00354328 4.4531e-19 0.00354328)
(0.00354328 -0.00161069 -1.87436e-05 0.00354328 2.37674e-19 0.00354328)
(0.00355001 -0.00161333 -1.90527e-05 0.00355001 4.99865e-19 0.00355001)
(0.00355001 -0.00161333 -1.90527e-05 0.00355001 2.45611e-19 0.00355001)
(0.00355635 -0.00161583 -1.93648e-05 0.00355635 5.56036e-19 0.00355635)
(0.00355635 -0.00161583 -1.93648e-05 0.00355635 2.56949e-19 0.00355635)
(0.00356234 -0.00161817 -1.96801e-05 0.00356234 6.08028e-19 0.00356234)
(0.00356234 -0.00161817 -1.96801e-05 0.00356234 2.69331e-19 0.00356234)
(0.00356799 -0.00162039 -1.99986e-05 0.00356799 6.56695e-19 0.00356799)
(0.00356799 -0.00162039 -1.99986e-05 0.00356799 2.76282e-19 0.00356799)
(0.00357333 -0.00162249 -2.03204e-05 0.00357333 7.09579e-19 0.00357333)
(0.00357333 -0.00162249 -2.03204e-05 0.00357333 2.93574e-19 0.00357333)
(0.00357838 -0.00162446 -2.06457e-05 0.00357838 7.67594e-19 0.00357838)
(0.00357838 -0.00162446 -2.06457e-05 0.00357838 3.11112e-19 0.00357838)
(0.00358314 -0.00162633 -2.09746e-05 0.00358314 8.22078e-19 0.00358314)
(0.00358314 -0.00162633 -2.09746e-05 0.00358314 3.13268e-19 0.00358314)
(0.00358764 -0.0016281 -2.13071e-05 0.00358764 8.70942e-19 0.00358764)
(0.00358764 -0.0016281 -2.13071e-05 0.00358764 3.24583e-19 0.00358764)
(0.0035919 -0.00162976 -2.16434e-05 0.0035919 9.25427e-19 0.0035919)
(0.0035919 -0.00162976 -2.16434e-05 0.0035919 3.40765e-19 0.0035919)
(0.00359591 -0.00163134 -2.19836e-05 0.00359591 9.83708e-19 0.00359591)
(0.00359591 -0.00163134 -2.19836e-05 0.00359591 3.5644e-19 0.00359591)
(0.0035997 -0.00163282 -2.23277e-05 0.0035997 1.0447e-18 0.0035997)
(0.0035997 -0.00163282 -2.23277e-05 0.0035997 3.67646e-19 0.0035997)
(0.00360328 -0.00163423 -2.26759e-05 0.00360328 1.10659e-18 0.00360328)
(0.00360328 -0.00163423 -2.26759e-05 0.00360328 3.70373e-19 0.00360328)
(0.00360666 -0.00163555 -2.30283e-05 0.00360666 1.16433e-18 0.00360666)
(0.00360666 -0.00163555 -2.30283e-05 0.00360666 3.90491e-19 0.00360666)
(0.00360984 -0.0016368 -2.33848e-05 0.00360984 1.22483e-18 0.00360984)
(0.00360984 -0.0016368 -2.33848e-05 0.00360984 4.15585e-19 0.00360984)
(0.00361284 -0.00163797 -2.37457e-05 0.00361284 1.29075e-18 0.00361284)
(0.00361284 -0.00163797 -2.37457e-05 0.00361284 4.2549e-19 0.00361284)
(0.00361567 -0.00163908 -2.4111e-05 0.00361567 1.35707e-18 0.00361567)
(0.00361567 -0.00163908 -2.4111e-05 0.00361567 4.29623e-19 0.00361567)
(0.00361832 -0.00164012 -2.44808e-05 0.00361832 1.41897e-18 0.00361832)
(0.00361832 -0.00164012 -2.44808e-05 0.00361832 4.44686e-19 0.00361832)
(0.00362082 -0.0016411 -2.48552e-05 0.00362082 1.4779e-18 0.00362082)
(0.00362082 -0.0016411 -2.48552e-05 0.00362082 4.72484e-19 0.00362082)
(0.00362316 -0.00164202 -2.52342e-05 0.00362316 1.54464e-18 0.00362316)
(0.00362316 -0.00164202 -2.52342e-05 0.00362316 4.91856e-19 0.00362316)
(0.00362535 -0.00164288 -2.5618e-05 0.00362535 1.61406e-18 0.00362535)
(0.00362535 -0.00164288 -2.5618e-05 0.00362535 4.97352e-19 0.00362535)
(0.0036274 -0.00164368 -2.60066e-05 0.0036274 1.6831e-18 0.0036274)
(0.0036274 -0.00164368 -2.60066e-05 0.0036274 5.10495e-19 0.0036274)
(0.00362932 -0.00164443 -2.64002e-05 0.00362932 1.7428e-18 0.00362932)
(0.00362932 -0.00164443 -2.64002e-05 0.00362932 5.43335e-19 0.00362932)
(0.0036311 -0.00164513 -2.67987e-05 0.0036311 1.80757e-18 0.0036311)
(0.0036311 -0.00164513 -2.67987e-05 0.0036311 5.79202e-19 0.0036311)
(0.00363275 -0.00164578 -2.72024e-05 0.00363275 1.88684e-18 0.00363275)
(0.00363275 -0.00164578 -2.72024e-05 0.00363275 5.98499e-19 0.00363275)
(0.00363429 -0.00164638 -2.76112e-05 0.00363429 1.94438e-18 0.00363429)
(0.00363429 -0.00164638 -2.76112e-05 0.00363429 5.91946e-19 0.00363429)
(0.0036357 -0.00164694 -2.80252e-05 0.0036357 2.00638e-18 0.0036357)
(0.0036357 -0.00164694 -2.80252e-05 0.0036357 5.85375e-19 0.0036357)
(0.003637 -0.00164745 -2.84446e-05 0.003637 2.07548e-18 0.003637)
(0.003637 -0.00164745 -2.84446e-05 0.003637 6.3689e-19 0.003637)
(0.00363819 -0.00164791 -2.88694e-05 0.00363819 2.14371e-18 0.00363819)
(0.00363819 -0.00164791 -2.88694e-05 0.00363819 7.01858e-19 0.00363819)
(0.00363927 -0.00164834 -2.92997e-05 0.00363927 2.22347e-18 0.00363927)
(0.00363927 -0.00164834 -2.92997e-05 0.00363927 7.31404e-19 0.00363927)
(0.00364024 -0.00164872 -2.97356e-05 0.00364024 2.30158e-18 0.00364024)
(0.00364024 -0.00164872 -2.97356e-05 0.00364024 7.22274e-19 0.00364024)
(0.00364111 -0.00164906 -3.01771e-05 0.00364111 2.39355e-18 0.00364111)
(0.00364111 -0.00164906 -3.01771e-05 0.00364111 7.10225e-19 0.00364111)
(0.00364189 -0.00164937 -3.06244e-05 0.00364189 2.47479e-18 0.00364189)
(0.00364189 -0.00164937 -3.06244e-05 0.00364189 7.73995e-19 0.00364189)
(0.00364256 -0.00164963 -3.10775e-05 0.00364256 2.55413e-18 0.00364256)
(0.00364256 -0.00164963 -3.10775e-05 0.00364256 8.60011e-19 0.00364256)
(0.00364315 -0.00164986 -3.15366e-05 0.00364315 2.64362e-18 0.00364315)
(0.00364315 -0.00164986 -3.15366e-05 0.00364315 8.86509e-19 0.00364315)
(0.00364364 -0.00165005 -3.20016e-05 0.00364364 2.71457e-18 0.00364364)
(0.00364364 -0.00165005 -3.20016e-05 0.00364364 9.02358e-19 0.00364364)
(0.00364404 -0.00165021 -3.24727e-05 0.00364404 2.7963e-18 0.00364404)
(0.00364404 -0.00165021 -3.24727e-05 0.00364404 9.02156e-19 0.00364404)
(0.00364435 -0.00165033 -3.295e-05 0.00364435 2.87555e-18 0.00364435)
(0.00364435 -0.00165033 -3.295e-05 0.00364435 9.16864e-19 0.00364435)
(0.00364458 -0.00165042 -3.34335e-05 0.00364458 2.95954e-18 0.00364458)
(0.00364458 -0.00165042 -3.34335e-05 0.00364458 1.01873e-18 0.00364458)
(0.00364472 -0.00165048 -3.39234e-05 0.00364472 3.04561e-18 0.00364472)
(0.00364472 -0.00165048 -3.39234e-05 0.00364472 1.04842e-18 0.00364472)
(0.00364478 -0.0016505 -3.44197e-05 0.00364478 3.11907e-18 0.00364478)
(0.00364478 -0.0016505 -3.44197e-05 0.00364478 1.00116e-18 0.00364478)
(0.00364476 -0.00165049 -3.49225e-05 0.00364476 3.19567e-18 0.00364476)
(0.00364476 -0.00165049 -3.49225e-05 0.00364476 1.02933e-18 0.00364476)
(0.00364466 -0.00165045 -3.5432e-05 0.00364466 3.2713e-18 0.00364466)
(0.00364466 -0.00165045 -3.5432e-05 0.00364466 1.07091e-18 0.00364466)
(0.00364448 -0.00165038 -3.59481e-05 0.00364448 3.36891e-18 0.00364448)
(0.00364448 -0.00165038 -3.59481e-05 0.00364448 1.05299e-18 0.00364448)
(0.00364423 -0.00165027 -3.64709e-05 0.00364423 3.47451e-18 0.00364423)
(0.00364423 -0.00165027 -3.64709e-05 0.00364423 1.06697e-18 0.00364423)
(0.0036439 -0.00165014 -3.70007e-05 0.0036439 3.56978e-18 0.0036439)
(0.0036439 -0.00165014 -3.70007e-05 0.0036439 1.17541e-18 0.0036439)
(0.00364349 -0.00164997 -3.75373e-05 0.00364349 3.67665e-18 0.00364349)
(0.00364349 -0.00164997 -3.75373e-05 0.00364349 1.279e-18 0.00364349)
(0.00364301 -0.00164978 -3.8081e-05 0.00364301 3.79632e-18 0.00364301)
(0.00364301 -0.00164978 -3.8081e-05 0.00364301 1.2363e-18 0.00364301)
(0.00364245 -0.00164956 -3.86319e-05 0.00364245 3.88029e-18 0.00364245)
(0.00364245 -0.00164956 -3.86319e-05 0.00364245 1.13436e-18 0.00364245)
(0.00364182 -0.0016493 -3.91899e-05 0.00364182 3.97444e-18 0.00364182)
(0.00364182 -0.0016493 -3.91899e-05 0.00364182 1.15809e-18 0.00364182)
(0.00364113 -0.00164902 -3.97553e-05 0.00364113 4.09342e-18 0.00364113)
(0.00364113 -0.00164902 -3.97553e-05 0.00364113 1.25039e-18 0.00364113)
(0.00364036 -0.00164871 -4.0328e-05 0.00364036 4.20813e-18 0.00364036)
(0.00364036 -0.00164871 -4.0328e-05 0.00364036 1.26812e-18 0.00364036)
(0.00363952 -0.00164837 -4.09083e-05 0.00363952 4.33313e-18 0.00363952)
(0.00363952 -0.00164837 -4.09083e-05 0.00363952 1.33239e-18 0.00363952)
(0.00363861 -0.00164801 -4.14961e-05 0.00363861 4.43799e-18 0.00363861)
(0.00363861 -0.00164801 -4.14961e-05 0.00363861 1.45721e-18 0.00363861)
(0.00363763 -0.00164761 -4.20916e-05 0.00363763 4.56071e-18 0.00363763)
(0.00363763 -0.00164761 -4.20916e-05 0.00363763 1.42916e-18 0.00363763)
(0.00363658 -0.00164719 -4.26948e-05 0.00363658 4.6918e-18 0.00363658)
(0.00363658 -0.00164719 -4.26948e-05 0.00363658 1.42564e-18 0.00363658)
(0.00363546 -0.00164673 -4.33059e-05 0.00363546 4.80003e-18 0.00363546)
(0.00363546 -0.00164673 -4.33059e-05 0.00363546 1.51542e-18 0.00363546)
(0.00363428 -0.00164626 -4.3925e-05 0.00363428 4.94385e-18 0.00363428)
(0.00363428 -0.00164626 -4.3925e-05 0.00363428 1.51889e-18 0.00363428)
(0.00363303 -0.00164575 -4.45521e-05 0.00363303 5.07921e-18 0.00363303)
(0.00363303 -0.00164575 -4.45521e-05 0.00363303 1.55001e-18 0.00363303)
(0.00363171 -0.00164521 -4.51873e-05 0.00363171 5.18485e-18 0.00363171)
(0.00363171 -0.00164521 -4.51873e-05 0.00363171 1.6352e-18 0.00363171)
(0.00363032 -0.00164465 -4.58308e-05 0.00363032 5.32881e-18 0.00363032)
(0.00363032 -0.00164465 -4.58308e-05 0.00363032 1.71197e-18 0.00363032)
(0.00362887 -0.00164406 -4.64826e-05 0.00362887 5.46625e-18 0.00362887)
(0.00362887 -0.00164406 -4.64826e-05 0.00362887 1.69456e-18 0.00362887)
(0.00362735 -0.00164344 -4.71428e-05 0.00362735 5.58004e-18 0.00362735)
(0.00362735 -0.00164344 -4.71428e-05 0.00362735 1.61313e-18 0.00362735)
(0.00362576 -0.0016428 -4.78116e-05 0.00362576 5.69266e-18 0.00362576)
(0.00362576 -0.0016428 -4.78116e-05 0.00362576 1.77895e-18 0.00362576)
(0.00362411 -0.00164212 -4.84889e-05 0.00362411 5.84505e-18 0.00362411)
(0.00362411 -0.00164212 -4.84889e-05 0.00362411 1.9318e-18 0.00362411)
(0.00362239 -0.00164142 -4.9175e-05 0.00362239 5.99086e-18 0.00362239)
(0.00362239 -0.00164142 -4.9175e-05 0.00362239 1.89123e-18 0.00362239)
(0.0036206 -0.00164069 -4.98698e-05 0.0036206 6.10893e-18 0.0036206)
(0.0036206 -0.00164069 -4.98698e-05 0.0036206 1.8702e-18 0.0036206)
(0.00361875 -0.00163993 -5.05736e-05 0.00361875 6.26683e-18 0.00361875)
(0.00361875 -0.00163993 -5.05736e-05 0.00361875 1.99002e-18 0.00361875)
(0.00361683 -0.00163915 -5.12864e-05 0.00361683 6.43097e-18 0.00361683)
(0.00361683 -0.00163915 -5.12864e-05 0.00361683 2.18609e-18 0.00361683)
(0.00361485 -0.00163834 -5.20083e-05 0.00361485 6.64219e-18 0.00361485)
(0.00361485 -0.00163834 -5.20083e-05 0.00361485 2.24771e-18 0.00361485)
(0.0036128 -0.00163749 -5.27394e-05 0.0036128 6.86203e-18 0.0036128)
(0.0036128 -0.00163749 -5.27394e-05 0.0036128 2.31934e-18 0.0036128)
(0.00361068 -0.00163663 -5.34797e-05 0.00361068 6.99583e-18 0.00361068)
(0.00361068 -0.00163663 -5.34797e-05 0.00361068 2.34074e-18 0.00361068)
(0.0036085 -0.00163573 -5.42295e-05 0.0036085 7.07419e-18 0.0036085)
(0.0036085 -0.00163573 -5.42295e-05 0.0036085 2.31066e-18 0.0036085)
(0.00360625 -0.0016348 -5.49888e-05 0.00360625 7.16566e-18 0.00360625)
(0.00360625 -0.0016348 -5.49888e-05 0.00360625 2.34809e-18 0.00360625)
(0.00360393 -0.00163385 -5.57576e-05 0.00360393 7.30013e-18 0.00360393)
(0.00360393 -0.00163385 -5.57576e-05 0.00360393 2.43777e-18 0.00360393)
(0.00360154 -0.00163286 -5.65361e-05 0.00360154 7.4725e-18 0.00360154)
(0.00360154 -0.00163286 -5.65361e-05 0.00360154 2.62212e-18 0.00360154)
(0.00359909 -0.00163185 -5.73245e-05 0.00359909 7.64843e-18 0.00359909)
(0.00359909 -0.00163185 -5.73245e-05 0.00359909 2.69727e-18 0.00359909)
(0.00359657 -0.00163081 -5.81227e-05 0.00359657 7.76279e-18 0.00359657)
(0.00359657 -0.00163081 -5.81227e-05 0.00359657 2.56124e-18 0.00359657)
(0.00359398 -0.00162973 -5.89309e-05 0.00359398 8.10195e-18 0.00359398)
(0.00359398 -0.00162973 -5.89309e-05 0.00359398 2.56686e-18 0.00359398)
(0.00359132 -0.00162863 -5.97492e-05 0.00359132 8.26834e-18 0.00359132)
(0.00359132 -0.00162863 -5.97492e-05 0.00359132 2.96324e-18 0.00359132)
(0.0035886 -0.0016275 -6.05777e-05 0.0035886 8.51166e-18 0.0035886)
(0.0035886 -0.0016275 -6.05777e-05 0.0035886 3.3201e-18 0.0035886)
(0.0035858 -0.00162634 -6.14165e-05 0.0035858 8.52428e-18 0.0035858)
(0.0035858 -0.00162634 -6.14165e-05 0.0035858 3.24838e-18 0.0035858)
(0.00358294 -0.00162515 -6.22656e-05 0.00358294 8.60093e-18 0.00358294)
(0.00358294 -0.00162515 -6.22656e-05 0.00358294 2.99024e-18 0.00358294)
(0.00358 -0.00162393 -6.31253e-05 0.00358 8.89957e-18 0.00358)
(0.00358 -0.00162393 -6.31253e-05 0.00358 3.00219e-18 0.00358)
(0.003577 -0.00162267 -6.39955e-05 0.003577 9.00559e-18 0.003577)
(0.003577 -0.00162267 -6.39955e-05 0.003577 3.36338e-18 0.003577)
(0.00357392 -0.00162139 -6.48764e-05 0.00357392 9.20853e-18 0.00357392)
(0.00357392 -0.00162139 -6.48764e-05 0.00357392 3.47448e-18 0.00357392)
(0.00357078 -0.00162007 -6.5768e-05 0.00357078 9.61643e-18 0.00357078)
(0.00357078 -0.00162007 -6.5768e-05 0.00357078 3.42554e-18 0.00357078)
(0.00356756 -0.00161873 -6.66706e-05 0.00356756 9.72661e-18 0.00356756)
(0.00356756 -0.00161873 -6.66706e-05 0.00356756 3.73711e-18 0.00356756)
(0.00356427 -0.00161735 -6.75841e-05 0.00356427 1.00176e-17 0.00356427)
(0.00356427 -0.00161735 -6.75841e-05 0.00356427 3.97402e-18 0.00356427)
(0.00356091 -0.00161594 -6.85087e-05 0.00356091 1.03466e-17 0.00356091)
(0.00356091 -0.00161594 -6.85087e-05 0.00356091 3.76572e-18 0.00356091)
(0.00355747 -0.00161449 -6.94444e-05 0.00355747 1.03692e-17 0.00355747)
(0.00355747 -0.00161449 -6.94444e-05 0.00355747 3.81194e-18 0.00355747)
(0.00355396 -0.00161302 -7.03914e-05 0.00355396 1.05415e-17 0.00355396)
(0.00355396 -0.00161302 -7.03914e-05 0.00355396 4.37845e-18 0.00355396)
(0.00355038 -0.00161151 -7.13498e-05 0.00355038 1.07869e-17 0.00355038)
(0.00355038 -0.00161151 -7.13498e-05 0.00355038 4.43201e-18 0.00355038)
(0.00354672 -0.00160996 -7.23196e-05 0.00354672 1.1083e-17 0.00354672)
(0.00354672 -0.00160996 -7.23196e-05 0.00354672 4.38914e-18 0.00354672)
(0.00354299 -0.00160839 -7.33009e-05 0.00354299 1.14742e-17 0.00354299)
(0.00354299 -0.00160839 -7.33009e-05 0.00354299 4.76411e-18 0.00354299)
(0.00353918 -0.00160678 -7.42939e-05 0.00353918 1.18167e-17 0.00353918)
(0.00353918 -0.00160678 -7.42939e-05 0.00353918 4.8651e-18 0.00353918)
(0.0035353 -0.00160513 -7.52986e-05 0.0035353 1.19911e-17 0.0035353)
(0.0035353 -0.00160513 -7.52986e-05 0.0035353 4.73891e-18 0.0035353)
(0.00353133 -0.00160345 -7.63151e-05 0.00353133 1.22041e-17 0.00353133)
(0.00353133 -0.00160345 -7.63151e-05 0.00353133 4.70029e-18 0.00353133)
(0.00352729 -0.00160173 -7.73436e-05 0.00352729 1.22933e-17 0.00352729)
(0.00352729 -0.00160173 -7.73436e-05 0.00352729 4.90016e-18 0.00352729)
(0.00352317 -0.00159998 -7.8384e-05 0.00352317 1.24763e-17 0.00352317)
(0.00352317 -0.00159998 -7.8384e-05 0.00352317 4.97816e-18 0.00352317)
(0.00351898 -0.0015982 -7.94365e-05 0.00351898 1.30125e-17 0.00351898)
(0.00351898 -0.0015982 -7.94365e-05 0.00351898 5.0351e-18 0.00351898)
(0.0035147 -0.00159637 -8.05011e-05 0.0035147 1.36007e-17 0.0035147)
(0.0035147 -0.00159637 -8.05011e-05 0.0035147 5.52845e-18 0.0035147)
(0.00351034 -0.00159451 -8.1578e-05 0.00351034 1.38523e-17 0.00351034)
(0.00351034 -0.00159451 -8.1578e-05 0.00351034 5.73233e-18 0.00351034)
(0.0035059 -0.00159262 -8.26672e-05 0.0035059 1.4167e-17 0.0035059)
(0.0035059 -0.00159262 -8.26672e-05 0.0035059 5.44628e-18 0.0035059)
(0.00350138 -0.00159068 -8.37689e-05 0.00350138 1.44947e-17 0.00350138)
(0.00350138 -0.00159068 -8.37689e-05 0.00350138 5.18315e-18 0.00350138)
(0.00349677 -0.00158871 -8.4883e-05 0.00349677 1.47209e-17 0.00349677)
(0.00349677 -0.00158871 -8.4883e-05 0.00349677 5.56427e-18 0.00349677)
(0.00349208 -0.0015867 -8.60097e-05 0.00349208 1.53093e-17 0.00349208)
(0.00349208 -0.0015867 -8.60097e-05 0.00349208 6.76963e-18 0.00349208)
(0.00348731 -0.00158464 -8.7149e-05 0.00348731 1.5567e-17 0.00348731)
(0.00348731 -0.00158464 -8.7149e-05 0.00348731 7.36847e-18 0.00348731)
(0.00348245 -0.00158255 -8.83011e-05 0.00348245 1.58205e-17 0.00348245)
(0.00348245 -0.00158255 -8.83011e-05 0.00348245 6.7243e-18 0.00348245)
(0.00347751 -0.00158042 -8.94659e-05 0.00347751 4.19001e-18 0.00347751)
(0.00347751 -0.00158042 -8.94659e-05 0.00347751 6.23596e-18 0.00347751)
(0.00347248 -0.00157825 -9.06436e-05 0.00347248 2.03427e-18 0.00347248)
(0.00347248 -0.00157825 -9.06436e-05 0.00347248 6.73581e-18 0.00347248)
(0.00346736 -0.00157604 -9.18342e-05 0.00346736 1.54961e-18 0.00346736)
(0.00346736 -0.00157604 -9.18342e-05 0.00346736 7.25281e-18 0.00346736)
(0.00346215 -0.00157379 -9.30377e-05 0.00346215 1.31532e-18 0.00346215)
(0.00346215 -0.00157379 -9.30377e-05 0.00346215 7.25057e-18 0.00346215)
(0.00345686 -0.0015715 -9.42544e-05 0.00345686 1.85649e-19 0.00345686)
(0.00345686 -0.0015715 -9.42544e-05 0.00345686 7.18435e-18 0.00345686)
(0.00345147 -0.00156916 -9.54841e-05 0.00345147 1.46443e-20 0.00345147)
(0.00345147 -0.00156916 -9.54841e-05 0.00345147 7.45013e-18 0.00345147)
(0.00344599 -0.00156678 -9.6727e-05 0.00344599 -4.74424e-19 0.00344599)
(0.00344599 -0.00156678 -9.6727e-05 0.00344599 7.78185e-18 0.00344599)
(0.00344042 -0.00156436 -9.7983e-05 0.00344042 -9.77107e-19 0.00344042)
(0.00344042 -0.00156436 -9.7983e-05 0.00344042 8.11357e-18 0.00344042)
(0.00343476 -0.00156189 -9.92524e-05 0.00343476 -1.40443e-18 0.00343476)
(0.00343476 -0.00156189 -9.92524e-05 0.00343476 8.51514e-18 0.00343476)
(0.003429 -0.00155938 -0.000100535 0.003429 -1.05575e-18 0.003429)
(0.003429 -0.00155938 -0.000100535 0.003429 8.83203e-18 0.003429)
(0.00342315 -0.00155683 -0.000101831 0.00342315 -7.68669e-19 0.00342315)
(0.00342315 -0.00155683 -0.000101831 0.00342315 9.53395e-18 0.00342315)
(0.0034172 -0.00155422 -0.00010314 0.0034172 -3.81572e-19 0.0034172)
(0.0034172 -0.00155422 -0.00010314 0.0034172 1.00131e-17 0.0034172)
(0.00341116 -0.00155158 -0.000104463 0.00341116 -4.61252e-19 0.00341116)
(0.00341116 -0.00155158 -0.000104463 0.00341116 9.50232e-18 0.00341116)
(0.00340501 -0.00154888 -0.000105799 0.00340501 -1.11006e-18 0.00340501)
(0.00340501 -0.00154888 -0.000105799 0.00340501 9.20598e-18 0.00340501)
(0.00339877 -0.00154614 -0.000107149 0.00339877 -1.52819e-18 0.00339877)
(0.00339877 -0.00154614 -0.000107149 0.00339877 9.7568e-18 0.00339877)
(0.00339243 -0.00154335 -0.000108512 0.00339243 -2.00821e-18 0.00339243)
(0.00339243 -0.00154335 -0.000108512 0.00339243 1.02025e-17 0.00339243)
(0.00338598 -0.00154051 -0.000109888 0.00338598 -2.38168e-18 0.00338598)
(0.00338598 -0.00154051 -0.000109888 0.00338598 1.05933e-17 0.00338598)
(0.00337944 -0.00153763 -0.000111279 0.00337944 -2.95377e-18 0.00337944)
(0.00337944 -0.00153763 -0.000111279 0.00337944 1.11345e-17 0.00337944)
(0.00337279 -0.00153469 -0.000112682 0.00337279 -3.37623e-18 0.00337279)
(0.00337279 -0.00153469 -0.000112682 0.00337279 1.18084e-17 0.00337279)
(0.00336603 -0.0015317 -0.000114099 0.00336603 -3.64108e-18 0.00336603)
(0.00336603 -0.0015317 -0.000114099 0.00336603 1.27451e-17 0.00336603)
(0.00335917 -0.00152867 -0.00011553 0.00335917 -2.91767e-18 0.00335917)
(0.00335917 -0.00152867 -0.00011553 0.00335917 1.26392e-17 0.00335917)
(0.00335221 -0.00152558 -0.000116974 0.00335221 -2.83716e-18 0.00335221)
(0.00335221 -0.00152558 -0.000116974 0.00335221 1.22048e-17 0.00335221)
(0.00334513 -0.00152244 -0.000118431 0.00334513 -3.65739e-18 0.00334513)
(0.00334513 -0.00152244 -0.000118431 0.00334513 1.24388e-17 0.00334513)
(0.00333795 -0.00151924 -0.000119902 0.00333795 -4.38892e-18 0.00333795)
(0.00333795 -0.00151924 -0.000119902 0.00333795 1.34974e-17 0.00333795)
(0.00333065 -0.00151599 -0.000121387 0.00333065 -4.30651e-18 0.00333065)
(0.00333065 -0.00151599 -0.000121387 0.00333065 1.44681e-17 0.00333065)
(0.00332325 -0.00151269 -0.000122884 0.00332325 -4.75019e-18 0.00332325)
(0.00332325 -0.00151269 -0.000122884 0.00332325 1.40568e-17 0.00332325)
(0.00331573 -0.00150933 -0.000124395 0.00331573 -5.87739e-18 0.00331573)
(0.00331573 -0.00150933 -0.000124395 0.00331573 1.36941e-17 0.00331573)
(0.0033081 -0.00150592 -0.00012592 0.0033081 -5.93839e-18 0.0033081)
(0.0033081 -0.00150592 -0.00012592 0.0033081 1.42966e-17 0.0033081)
(0.00330035 -0.00150245 -0.000127457 0.00330035 -6.25647e-18 0.00330035)
(0.00330035 -0.00150245 -0.000127457 0.00330035 1.53357e-17 0.00330035)
(0.00329248 -0.00149892 -0.000129008 0.00329248 -5.88069e-18 0.00329248)
(0.00329248 -0.00149892 -0.000129008 0.00329248 1.65959e-17 0.00329248)
(0.0032845 -0.00149534 -0.000130571 0.0032845 -5.12753e-18 0.0032845)
(0.0032845 -0.00149534 -0.000130571 0.0032845 1.72277e-17 0.0032845)
(0.0032764 -0.00149169 -0.000132148 0.0032764 -5.38984e-18 0.0032764)
(0.0032764 -0.00149169 -0.000132148 0.0032764 1.65771e-17 0.0032764)
(0.00326818 -0.00148799 -0.000133737 0.00326818 -6.37577e-18 0.00326818)
(0.00326818 -0.00148799 -0.000133737 0.00326818 1.67469e-17 0.00326818)
(0.00325983 -0.00148422 -0.000135339 0.00325983 -7.1615e-18 0.00325983)
(0.00325983 -0.00148422 -0.000135339 0.00325983 1.83688e-17 0.00325983)
(0.00325137 -0.0014804 -0.000136954 0.00325137 -6.39225e-18 0.00325137)
(0.00325137 -0.0014804 -0.000136954 0.00325137 1.97477e-17 0.00325137)
(0.00324277 -0.00147651 -0.000138581 0.00324277 -6.11167e-18 0.00324277)
(0.00324277 -0.00147651 -0.000138581 0.00324277 1.87279e-17 0.00324277)
(0.00323406 -0.00147256 -0.000140221 0.00323406 -7.82373e-18 0.00323406)
(0.00323406 -0.00147256 -0.000140221 0.00323406 1.95014e-17 0.00323406)
(0.00322521 -0.00146855 -0.000141873 0.00322521 -7.57051e-18 0.00322521)
(0.00322521 -0.00146855 -0.000141873 0.00322521 2.22296e-17 0.00322521)
(0.00321624 -0.00146447 -0.000143536 0.00321624 -5.55258e-18 0.00321624)
(0.00321624 -0.00146447 -0.000143536 0.00321624 2.44211e-17 0.00321624)
(0.00320713 -0.00146033 -0.000145212 0.00320713 -6.07676e-18 0.00320713)
(0.00320713 -0.00146033 -0.000145212 0.00320713 2.33625e-17 0.00320713)
(0.00319789 -0.00145612 -0.000146899 0.00319789 -8.10593e-18 0.00319789)
(0.00319789 -0.00145612 -0.000146899 0.00319789 2.43414e-17 0.00319789)
(0.00318852 -0.00145184 -0.000148598 0.00318852 -7.57092e-18 0.00318852)
(0.00318852 -0.00145184 -0.000148598 0.00318852 2.5137e-17 0.00318852)
(0.00317902 -0.0014475 -0.000150308 0.00317902 -4.99805e-18 0.00317902)
(0.00317902 -0.0014475 -0.000150308 0.00317902 2.5697e-17 0.00317902)
(0.00316938 -0.00144308 -0.000152029 0.00316938 -4.62804e-18 0.00316938)
(0.00316938 -0.00144308 -0.000152029 0.00316938 2.57681e-17 0.00316938)
(0.0031596 -0.0014386 -0.00015376 0.0031596 -5.67675e-18 0.0031596)
(0.0031596 -0.0014386 -0.00015376 0.0031596 2.60408e-17 0.0031596)