/*--------------------------------*- C++ -*----------------------------------*\
| =========                 |                                                 |
| \\      /  F ield         | OpenFOAM: The Open Source CFD Toolbox           |
|  \\    /   O peration     | Version:  2106                                  |
|   \\  /    A nd           | Website:  www.openfoam.com                      |
|    \\/     M anipulation  |                                                 |
\*---------------------------------------------------------------------------*/
FoamFile
{
    version     2.0;
    format      ascii;
    arch        "LSB;label=32;scalar=64";
    class       surfaceScalarField;
    location    "16000";
    object      phi;
}
// * * * * * * * * * * * * * * * * * * * * * * * * * * * * * * * * * * * * * //

dimensions      [0 3 -1 0 0 0 0];

oriented        oriented;

internalField   nonuniform List<scalar> 
5116
(
4.89533e-08
-7.86935e-18
-1.06442e-21
-2.02777e-21
-1.06811e-22
1.49703e-07
-7.85553e-18
-5.13816e-21
-9.31163e-21
-1.38563e-21
2.54832e-07
-7.84129e-18
-5.32084e-21
-1.68272e-20
-1.44667e-21
3.6449e-07
-7.82646e-18
-5.51855e-21
-2.45383e-20
-1.51029e-21
4.78825e-07
-7.81129e-18
-5.72358e-21
-3.25701e-20
-1.57654e-21
5.97989e-07
-7.79556e-18
-5.935e-21
-4.06353e-20
-1.6454e-21
7.22121e-07
-7.77916e-18
-6.15306e-21
-4.9213e-20
-1.71673e-21
8.51348e-07
-7.76206e-18
-6.37681e-21
-5.79996e-20
-1.79018e-21
9.85761e-07
-7.74467e-18
-6.60408e-21
-6.72106e-20
-1.86517e-21
1.1254e-06
-7.72642e-18
-6.83147e-21
-7.66612e-20
-1.94073e-21
1.27024e-06
-7.70765e-18
-7.05426e-21
-8.64377e-20
-2.01549e-21
1.42014e-06
-7.68829e-18
-7.26635e-21
-9.65047e-20
-2.08769e-21
1.57486e-06
-7.66897e-18
-7.46054e-21
-1.06162e-19
-2.15519e-21
1.73401e-06
-7.64863e-18
-7.62914e-21
-1.16635e-19
-2.2157e-21
1.89708e-06
-7.62796e-18
-7.7649e-21
-1.27258e-19
-2.26702e-21
2.06344e-06
-7.60774e-18
-7.86198e-21
-1.3752e-19
-2.30732e-21
2.2324e-06
-7.58707e-18
-7.91686e-21
-1.4807e-19
-2.33546e-21
2.40322e-06
-7.56663e-18
-7.92885e-21
-1.58394e-19
-2.35108e-21
2.57522e-06
-7.5466e-18
-7.90007e-21
-1.68434e-19
-2.3547e-21
2.74777e-06
-7.52599e-18
-7.83492e-21
-1.78842e-19
-2.34748e-21
2.92033e-06
-7.50505e-18
-7.73934e-21
-1.89626e-19
-2.33111e-21
3.09251e-06
-7.48596e-18
-7.61993e-21
-1.98936e-19
-2.30746e-21
3.26401e-06
-7.46793e-18
-7.48317e-21
-2.0798e-19
-2.27844e-21
3.43465e-06
-7.44795e-18
-7.33492e-21
-2.18151e-19
-2.2458e-21
3.60434e-06
-7.42929e-18
-7.1803e-21
-2.27599e-19
-2.21101e-21
3.77308e-06
-7.41055e-18
-7.02331e-21
-2.3711e-19
-2.17533e-21
3.94092e-06
-7.39242e-18
-6.86711e-21
-2.45516e-19
-2.13969e-21
4.10795e-06
-7.3749e-18
-6.71401e-21
-2.54072e-19
-2.10482e-21
4.27428e-06
-7.35777e-18
-6.56563e-21
-2.62026e-19
-2.07121e-21
4.44007e-06
-7.34129e-18
-6.423e-21
-2.70608e-19
-2.03923e-21
4.60546e-06
-7.32413e-18
-6.28673e-21
-2.79373e-19
-2.00909e-21
4.77063e-06
-7.30784e-18
-6.15718e-21
-2.88219e-19
-1.98093e-21
4.93571e-06
-7.29253e-18
-6.03442e-21
-2.96474e-19
-1.95478e-21
5.10089e-06
-7.2761e-18
-5.91835e-21
-3.04248e-19
-1.93064e-21
5.2663e-06
-7.26079e-18
-5.80878e-21
-3.12399e-19
-1.90846e-21
5.43211e-06
-7.24547e-18
-5.70542e-21
-3.20057e-19
-1.88817e-21
5.59846e-06
-7.23054e-18
-5.60798e-21
-3.277e-19
-1.86972e-21
5.76549e-06
-7.21516e-18
-5.51608e-21
-3.35401e-19
-1.85299e-21
5.93333e-06
-7.20108e-18
-5.4294e-21
-3.42841e-19
-1.83789e-21
6.1021e-06
-7.1864e-18
-5.34756e-21
-3.50082e-19
-1.82433e-21
6.27194e-06
-7.17178e-18
-5.27022e-21
-3.56755e-19
-1.81222e-21
6.44296e-06
-7.15813e-18
-5.19704e-21
-3.63461e-19
-1.80148e-21
6.61527e-06
-7.14321e-18
-5.12769e-21
-3.71853e-19
-1.79198e-21
6.78899e-06
-7.13056e-18
-5.06192e-21
-3.76848e-19
-1.78358e-21
6.9642e-06
-7.11678e-18
-4.99933e-21
-3.83945e-19
-1.77633e-21
7.14102e-06
-7.10331e-18
-4.93972e-21
-3.91054e-19
-1.77005e-21
7.31953e-06
-7.09071e-18
-4.88288e-21
-3.98306e-19
-1.76465e-21
7.49984e-06
-7.07683e-18
-4.82846e-21
-4.05008e-19
-1.76003e-21
7.68203e-06
-7.06187e-18
-4.77634e-21
-4.11662e-19
-1.75606e-21
7.86618e-06
-7.05026e-18
-4.72645e-21
-4.16117e-19
-1.75265e-21
8.0524e-06
-7.03706e-18
-4.67841e-21
-4.24346e-19
-1.74977e-21
8.24075e-06
-7.0208e-18
-4.6321e-21
-4.32926e-19
-1.7473e-21
8.43132e-06
-7.00609e-18
-4.58759e-21
-4.3927e-19
-1.74513e-21
8.62419e-06
-6.99309e-18
-4.54457e-21
-4.45396e-19
-1.7432e-21
8.81944e-06
-6.97959e-18
-4.50282e-21
-4.52245e-19
-1.74146e-21
9.01714e-06
-6.96621e-18
-4.46231e-21
-4.59318e-19
-1.73982e-21
9.21737e-06
-6.95311e-18
-4.42292e-21
-4.66114e-19
-1.73812e-21
9.42021e-06
-6.94109e-18
-4.38444e-21
-4.71263e-19
-1.73654e-21
9.62573e-06
-6.92782e-18
-4.34674e-21
-4.78935e-19
-1.73501e-21
9.83401e-06
-6.91474e-18
-4.30973e-21
-4.86637e-19
-1.73331e-21
1.00451e-05
-6.90544e-18
-4.27325e-21
-4.90227e-19
-1.73157e-21
1.02591e-05
-6.89422e-18
-4.23697e-21
-4.93188e-19
-1.72982e-21
1.04761e-05
-6.88437e-18
-4.20092e-21
-4.97057e-19
-1.72809e-21
1.06961e-05
-6.87418e-18
-4.16494e-21
-5.01625e-19
-1.7261e-21
1.09193e-05
-6.86163e-18
-4.12896e-21
-5.04782e-19
-1.72402e-21
1.11456e-05
-6.85291e-18
-4.09326e-21
-5.08691e-19
-1.7219e-21
1.13752e-05
-6.84613e-18
-4.05742e-21
-5.1046e-19
-1.71948e-21
1.16081e-05
-6.83734e-18
-4.02115e-21
-5.1434e-19
-1.71691e-21
1.18444e-05
-6.8311e-18
-3.98454e-21
-5.16791e-19
-1.7139e-21
1.20843e-05
-6.81982e-18
-3.94745e-21
-5.21668e-19
-1.71042e-21
1.23276e-05
-6.81164e-18
-3.91008e-21
-5.25702e-19
-1.70641e-21
1.25746e-05
-6.80275e-18
-3.87217e-21
-5.30026e-19
-1.70187e-21
1.28254e-05
-6.79582e-18
-3.83377e-21
-5.32871e-19
-1.69681e-21
1.30798e-05
-6.78729e-18
-3.7947e-21
-5.38481e-19
-1.6912e-21
1.33382e-05
-6.77836e-18
-3.75492e-21
-5.42152e-19
-1.68466e-21
1.36004e-05
-6.76725e-18
-3.71461e-21
-5.47298e-19
-1.67711e-21
1.38667e-05
-6.76026e-18
-3.67392e-21
-5.52513e-19
-1.66854e-21
1.41371e-05
-6.75347e-18
-3.63247e-21
-5.56307e-19
-1.65895e-21
1.44116e-05
-6.74706e-18
-3.59038e-21
-5.61611e-19
-1.6481e-21
1.46903e-05
-6.73669e-18
-3.54762e-21
-5.65949e-19
-1.6359e-21
1.49734e-05
-6.72685e-18
-3.50448e-21
-5.70639e-19
-1.6224e-21
1.52609e-05
-6.72042e-18
-3.46064e-21
-5.71923e-19
-1.60781e-21
1.55529e-05
-6.71519e-18
-3.41564e-21
-5.72763e-19
-1.59246e-21
1.58494e-05
-6.70832e-18
-3.36941e-21
-5.75053e-19
-1.57627e-21
1.61505e-05
-6.70201e-18
-3.3219e-21
-5.75428e-19
-1.5591e-21
1.64564e-05
-6.68935e-18
-3.27352e-21
-5.7702e-19
-1.5411e-21
1.67672e-05
-6.68376e-18
-3.22473e-21
-5.77784e-19
-1.52205e-21
1.70828e-05
-6.67791e-18
-3.17531e-21
-5.77922e-19
-1.50156e-21
1.74034e-05
-6.66801e-18
-3.12521e-21
-5.82287e-19
-1.47944e-21
1.77291e-05
-6.66084e-18
-3.07511e-21
-5.83166e-19
-1.45541e-21
1.80599e-05
-6.65387e-18
-3.02469e-21
-5.84536e-19
-1.42982e-21
1.8396e-05
-6.64725e-18
-2.97327e-21
-5.88927e-19
-1.40293e-21
1.87375e-05
-6.63743e-18
-2.92153e-21
-5.89081e-19
-1.37369e-21
1.90844e-05
-6.63537e-18
-2.86965e-21
-5.95166e-19
-1.34236e-21
1.94368e-05
-6.62512e-18
-2.81659e-21
-5.9564e-19
-1.30846e-21
1.97949e-05
-6.62006e-18
-2.76406e-21
-5.97616e-19
-1.27333e-21
2.01587e-05
-6.60635e-18
-2.71106e-21
-6.02269e-19
-1.23544e-21
2.05284e-05
-6.59531e-18
-2.65881e-21
-6.06336e-19
-1.19439e-21
2.0904e-05
-6.59081e-18
-2.6068e-21
-6.07161e-19
-1.15077e-21
2.12856e-05
-6.57838e-18
-2.55396e-21
-6.10274e-19
-1.10484e-21
2.16733e-05
-6.57162e-18
-2.50195e-21
-6.13957e-19
-1.05684e-21
2.20673e-05
-6.55737e-18
-2.44926e-21
-6.18759e-19
-1.00601e-21
2.24677e-05
-6.54146e-18
-2.39739e-21
-6.26996e-19
-9.52529e-22
2.28745e-05
-6.53541e-18
-2.3468e-21
-6.3138e-19
-8.95871e-22
2.32878e-05
-6.52437e-18
-2.29529e-21
-6.39497e-19
-8.36954e-22
2.37079e-05
-6.51433e-18
-2.24472e-21
-6.47251e-19
-7.76043e-22
2.41347e-05
-6.50675e-18
-2.19443e-21
-6.52295e-19
-7.12105e-22
2.45685e-05
-6.50594e-18
-2.14493e-21
-6.54218e-19
-6.4692e-22
2.50092e-05
-6.505e-18
-2.09503e-21
-6.53269e-19
-5.80873e-22
2.54571e-05
-6.50298e-18
-2.0451e-21
-6.54658e-19
-5.13737e-22
2.59123e-05
-6.49716e-18
-1.99366e-21
-6.55041e-19
-4.45663e-22
2.63748e-05
-6.49551e-18
-1.94253e-21
-6.60044e-19
-3.75913e-22
2.68448e-05
-6.48925e-18
-1.89069e-21
-6.63247e-19
-3.03306e-22
2.73225e-05
-6.48236e-18
-1.83864e-21
-6.67727e-19
-2.29563e-22
2.78079e-05
-6.47556e-18
-1.78701e-21
-6.72605e-19
-1.54395e-22
2.83012e-05
-6.47788e-18
-1.73628e-21
-6.72995e-19
-7.82646e-23
2.88025e-05
-6.47138e-18
-1.68325e-21
-6.68335e-19
-9.62365e-25
2.9312e-05
-6.46303e-18
-1.63215e-21
-6.68759e-19
7.64186e-23
2.98297e-05
-6.45815e-18
-1.58328e-21
-6.73949e-19
1.55226e-22
3.03559e-05
-6.45067e-18
-1.53527e-21
-6.77542e-19
2.37674e-22
3.08906e-05
-6.43458e-18
-1.48921e-21
-6.79139e-19
3.21516e-22
3.1434e-05
-6.43243e-18
-1.44669e-21
-6.75955e-19
4.06668e-22
3.19863e-05
-6.42663e-18
-1.40258e-21
-6.85174e-19
4.88914e-22
3.25476e-05
-6.41945e-18
-1.36019e-21
-6.90355e-19
5.7126e-22
3.3118e-05
-6.41038e-18
-1.31918e-21
-6.91461e-19
6.53004e-22
3.36977e-05
-6.40014e-18
-1.28438e-21
-7.02119e-19
7.37142e-22
3.42868e-05
-6.39266e-18
-1.25386e-21
-7.10073e-19
8.28316e-22
3.48856e-05
-6.38355e-18
-1.22454e-21
-7.0767e-19
9.22831e-22
3.54941e-05
-6.36752e-18
-1.2012e-21
-7.20493e-19
1.0202e-21
3.61125e-05
-6.35063e-18
-1.18634e-21
-7.29891e-19
1.12248e-21
3.6741e-05
-6.33574e-18
-1.17864e-21
-7.39294e-19
1.23025e-21
3.73797e-05
-6.32697e-18
-1.17981e-21
-7.48179e-19
1.34143e-21
3.80289e-05
-6.32688e-18
-1.1892e-21
-7.50023e-19
1.4596e-21
3.86887e-05
-6.31987e-18
-1.19944e-21
-7.56578e-19
1.57659e-21
3.93592e-05
-6.31361e-18
-1.21315e-21
-7.49427e-19
1.69581e-21
4.00406e-05
-6.31168e-18
-1.22629e-21
-7.46842e-19
1.81096e-21
4.07332e-05
-6.31163e-18
-1.2369e-21
-7.5142e-19
1.92081e-21
4.14371e-05
-6.3047e-18
-1.2419e-21
-7.52155e-19
2.03051e-21
4.21524e-05
-6.30057e-18
-1.24336e-21
-7.49209e-19
2.14094e-21
4.28794e-05
-6.29116e-18
-1.24297e-21
-7.45857e-19
2.25057e-21
4.36183e-05
-6.2808e-18
-1.24587e-21
-7.52913e-19
2.35741e-21
4.43693e-05
-6.27076e-18
-1.24981e-21
-7.53931e-19
2.46386e-21
4.51324e-05
-6.27143e-18
-1.25912e-21
-7.54748e-19
2.56786e-21
4.59081e-05
-6.25779e-18
-1.27334e-21
-7.68417e-19
2.67203e-21
4.66964e-05
-6.24423e-18
-1.29813e-21
-7.79415e-19
2.78405e-21
4.74975e-05
-6.23456e-18
-1.33454e-21
-7.83237e-19
2.89871e-21
4.83117e-05
-6.21704e-18
-1.37993e-21
-7.89582e-19
3.00671e-21
4.91393e-05
-6.20327e-18
-1.43522e-21
-7.92293e-19
3.10756e-21
4.99803e-05
-6.19232e-18
-1.49983e-21
-8.05519e-19
3.20281e-21
5.0835e-05
-6.17479e-18
-1.57095e-21
-8.18313e-19
3.2963e-21
5.17037e-05
-6.16558e-18
-1.64631e-21
-8.24795e-19
3.37811e-21
5.25865e-05
-6.13676e-18
-1.72644e-21
-8.49048e-19
3.44828e-21
5.34837e-05
-6.12736e-18
-1.82242e-21
-8.64867e-19
3.5142e-21
5.43956e-05
-6.10583e-18
-1.9156e-21
-8.77405e-19
3.56677e-21
5.53223e-05
-6.09053e-18
-2.01798e-21
-8.92048e-19
3.61522e-21
5.62642e-05
-6.08465e-18
-2.12807e-21
-9.08657e-19
3.64895e-21
5.72214e-05
-6.06413e-18
-2.23645e-21
-9.32925e-19
3.66691e-21
5.81942e-05
-6.04641e-18
-2.33888e-21
-9.49757e-19
3.68062e-21
5.91829e-05
-6.01461e-18
-2.44477e-21
-9.73588e-19
3.6818e-21
6.01877e-05
-5.98226e-18
-2.57808e-21
-1.00189e-18
3.67797e-21
6.12089e-05
-5.94785e-18
-2.71724e-21
-1.03221e-18
3.6684e-21
6.22467e-05
-5.91837e-18
-2.86888e-21
-1.06077e-18
3.66594e-21
6.33014e-05
-5.90243e-18
-3.03801e-21
-1.09676e-18
3.66301e-21
6.43733e-05
-5.86945e-18
-3.20763e-21
-1.12342e-18
3.64489e-21
6.54627e-05
-5.8662e-18
-3.4052e-21
-1.15217e-18
3.61059e-21
6.65699e-05
-5.83087e-18
-3.58293e-21
-1.18807e-18
3.55375e-21
6.7695e-05
-5.80134e-18
-3.7708e-21
-1.22023e-18
3.49186e-21
6.88385e-05
-5.77125e-18
-3.96293e-21
-1.26778e-18
3.4333e-21
7.00006e-05
-5.75087e-18
-4.16148e-21
-1.29822e-18
3.39325e-21
7.11817e-05
-5.71908e-18
-4.34348e-21
-1.33635e-18
3.34841e-21
7.23819e-05
-5.68322e-18
-4.51243e-21
-1.37566e-18
3.30028e-21
7.36017e-05
-5.66513e-18
-4.6881e-21
-1.38939e-18
3.27425e-21
7.48414e-05
-5.62412e-18
-4.865e-21
-1.4307e-18
3.23037e-21
7.61012e-05
-5.5842e-18
-5.05543e-21
-1.47084e-18
3.19427e-21
7.73816e-05
-5.56597e-18
-5.22486e-21
-1.49438e-18
3.15158e-21
7.86827e-05
-5.51608e-18
-5.3843e-21
-1.53915e-18
3.0932e-21
8.00051e-05
-5.49308e-18
-5.54607e-21
-1.54712e-18
3.04366e-21
8.13489e-05
-5.46789e-18
-5.69579e-21
-1.58054e-18
2.9307e-21
8.27146e-05
-5.45031e-18
-5.86948e-21
-1.58096e-18
2.85528e-21
8.41025e-05
-5.43999e-18
-6.04387e-21
-1.59664e-18
2.76129e-21
8.5513e-05
-5.41553e-18
-6.21126e-21
-1.61402e-18
2.63704e-21
8.69463e-05
-5.39281e-18
-6.38197e-21
-1.60873e-18
2.49469e-21
8.8403e-05
-5.37806e-18
-6.55447e-21
-1.62421e-18
2.31742e-21
8.98834e-05
-5.3517e-18
-6.72247e-21
-1.64712e-18
2.17138e-21
9.13878e-05
-5.3292e-18
-6.90897e-21
-1.64569e-18
2.04096e-21
9.29166e-05
-5.29921e-18
-7.1233e-21
-1.66354e-18
1.88499e-21
9.44702e-05
-5.27274e-18
-7.37591e-21
-1.67918e-18
1.74519e-21
9.60491e-05
-5.24819e-18
-7.63849e-21
-1.69736e-18
1.63086e-21
9.76536e-05
-5.21882e-18
-7.86385e-21
-1.72297e-18
1.5189e-21
9.92841e-05
-5.18167e-18
-8.08151e-21
-1.7604e-18
1.40987e-21
0.000100941
-5.16258e-18
-8.33007e-21
-1.77724e-18
1.34818e-21
0.000102625
-5.1479e-18
-8.57704e-21
-1.7762e-18
1.24858e-21
0.000104336
-5.12515e-18
-8.79449e-21
-1.79923e-18
1.07905e-21
0.000106075
-5.10046e-18
-9.01042e-21
-1.82729e-18
9.49717e-22
0.000107842
-5.07993e-18
-9.20111e-21
-1.82848e-18
8.64415e-22
0.000109638
-5.0501e-18
-9.33684e-21
-1.86446e-18
6.9764e-22
0.000111463
-5.02256e-18
-9.46513e-21
-1.89268e-18
5.94662e-22
0.000113317
-4.99889e-18
-9.56244e-21
-1.92616e-18
5.17588e-22
0.000115202
-4.96622e-18
-9.72323e-21
-1.95167e-18
4.13443e-22
0.000117117
-4.93308e-18
-9.94004e-21
-1.97587e-18
3.15331e-22
0.000119063
-4.87486e-18
-1.0117e-20
-1.99875e-18
2.13198e-22
0.00012104
-4.84761e-18
-1.03571e-20
-2.01084e-18
6.15878e-23
0.00012305
-4.81661e-18
-1.06095e-20
-2.03764e-18
-1.05232e-22
0.000125092
-4.79157e-18
-1.09288e-20
-2.01788e-18
-1.0911e-22
0.000127167
-4.76607e-18
-1.12669e-20
-2.06283e-18
-1.5501e-22
0.000129275
-4.7177e-18
-1.15189e-20
-2.06725e-18
-2.02865e-22
0.000131418
-4.6847e-18
-1.17317e-20
-2.10616e-18
-3.82299e-22
0.000133595
-4.64768e-18
-1.19387e-20
-2.11833e-18
-5.17773e-22
0.000135808
-4.6235e-18
-1.2132e-20
-2.15723e-18
-7.34446e-22
0.000138056
-4.57986e-18
-1.22922e-20
-2.18032e-18
-9.08036e-22
0.00014034
-4.54657e-18
-1.24758e-20
-2.20379e-18
-1.04525e-21
0.000142662
-4.50472e-18
-1.26262e-20
-2.22933e-18
-1.29395e-21
0.00014502
-4.46662e-18
-1.27613e-20
-2.25908e-18
-1.46974e-21
0.000147417
-4.42911e-18
-1.28804e-20
-2.28276e-18
-1.68439e-21
0.000149853
-4.35059e-18
-1.29274e-20
-2.33821e-18
-1.8667e-21
0.000152327
-4.3381e-18
-1.30756e-20
-2.32288e-18
-1.93684e-21
0.000154842
-4.29435e-18
-1.3069e-20
-2.34812e-18
-2.18641e-21
0.000157397
-4.25438e-18
-1.30827e-20
-2.36756e-18
-2.4325e-21
0.000159993
-4.21727e-18
-1.32277e-20
-2.40462e-18
-2.69087e-21
0.000162631
-4.16647e-18
-1.33262e-20
-2.42179e-18
-2.63599e-21
0.000165312
-4.1274e-18
-1.34547e-20
-2.47551e-18
-2.65445e-21
0.000168036
-4.08876e-18
-1.34573e-20
-2.48267e-18
-2.65818e-21
0.000170803
-4.0512e-18
-1.35712e-20
-2.49754e-18
-2.71502e-21
0.000173615
-4.01668e-18
-1.37234e-20
-2.52558e-18
-2.68755e-21
0.000176472
-3.96661e-18
-1.3877e-20
-2.50573e-18
-2.82943e-21
0.000179375
-3.94275e-18
-1.39887e-20
-2.52267e-18
-3.15756e-21
0.000182325
-3.89881e-18
-1.40068e-20
-2.54322e-18
-3.1827e-21
0.000185321
-3.87879e-18
-1.42105e-20
-2.55579e-18
-2.89296e-21
0.000188366
-3.8358e-18
-1.43295e-20
-2.54131e-18
-2.72706e-21
0.00019146
-3.80279e-18
-1.44456e-20
-2.57261e-18
-2.87759e-21
0.000194604
-3.76339e-18
-1.4577e-20
-2.56321e-18
-2.97552e-21
0.000197797
-3.70782e-18
-1.47811e-20
-2.59209e-18
-3.16004e-21
0.000201042
-3.67131e-18
-1.5086e-20
-2.60484e-18
-3.5887e-21
0.000204339
-3.64076e-18
-1.54843e-20
-2.59403e-18
-4.10108e-21
0.000207689
-3.59779e-18
-1.59881e-20
-2.60689e-18
-4.59548e-21
0.000211092
-3.58459e-18
-1.6473e-20
-2.56947e-18
-4.95544e-21
0.000214549
-3.5466e-18
-1.69458e-20
-2.59268e-18
-5.37827e-21
0.000218062
-3.50469e-18
-1.71569e-20
-2.55266e-18
-5.83207e-21
0.00022163
-3.51773e-18
-1.76954e-20
-2.53459e-18
-6.61529e-21
0.000225256
-3.45725e-18
-1.7715e-20
-2.5104e-18
-7.29964e-21
0.000228939
-3.43255e-18
-1.80167e-20
-2.53775e-18
-8.12984e-21
0.000232682
-3.39643e-18
-1.81199e-20
-2.5562e-18
-8.87829e-21
0.000236483
-3.36574e-18
-1.81934e-20
-2.54857e-18
-9.41298e-21
0.000240345
-3.36261e-18
-1.83541e-20
-2.56011e-18
-9.98481e-21
0.000244269
-3.33622e-18
-1.83445e-20
-2.52137e-18
-1.038e-20
0.000248255
-3.28315e-18
-1.83558e-20
-2.53206e-18
-1.10536e-20
0.000252304
-3.26219e-18
-1.77131e-20
-2.58024e-18
-1.20025e-20
0.000256418
-3.15881e-18
-1.73349e-20
-2.50575e-18
-1.25065e-20
0.000260596
-3.09244e-18
-1.85099e-20
-2.48575e-18
-1.308e-20
0.000264841
-3.05628e-18
-1.93706e-20
-2.48567e-18
-1.40896e-20
0.000269153
-3.05311e-18
-1.92809e-20
-2.5205e-18
-1.53525e-20
0.000273533
-2.97648e-18
-1.87564e-20
-2.57703e-18
-1.56729e-20
0.000277983
-2.9645e-18
-1.89089e-20
-2.61047e-18
-1.5713e-20
0.000282503
-2.95119e-18
-1.85904e-20
-2.63372e-18
-1.53767e-20
0.000287094
-2.93928e-18
-1.87256e-20
-2.64437e-18
-1.46904e-20
0.000291757
-2.88065e-18
-1.7661e-20
-2.66319e-18
-1.44441e-20
0.000296494
-2.86808e-18
-1.73764e-20
-2.677e-18
-1.47701e-20
0.000301305
-2.84083e-18
-1.73901e-20
-2.7471e-18
-1.47604e-20
0.000306192
-2.83152e-18
-1.6871e-20
-2.60868e-18
-1.32869e-20
0.000311156
-2.78729e-18
-1.64277e-20
-2.6565e-18
-1.36059e-20
0.000316197
-2.78556e-18
-1.72757e-20
-2.66101e-18
-1.32677e-20
0.000321318
-2.68789e-18
-1.6955e-20
-2.72016e-18
-1.36139e-20
0.000326518
-2.7905e-18
-1.76071e-20
-2.74456e-18
-1.3512e-20
0.0003318
-2.7719e-18
-1.67485e-20
-2.74187e-18
-1.3434e-20
0.000337164
-2.75054e-18
-1.66009e-20
-2.75113e-18
-1.34068e-20
0.000342611
-2.64164e-18
-1.55951e-20
-2.67745e-18
-1.25767e-20
0.000348144
-2.7474e-18
-1.67647e-20
-2.58192e-18
-1.34094e-20
0.000353762
-2.72894e-18
-1.56013e-20
-2.58605e-18
-1.56755e-20
0.000359468
-2.55626e-18
-1.44238e-20
-2.58483e-18
-1.78455e-20
0.000365262
-2.51869e-18
-1.60665e-20
-2.68801e-18
-1.96935e-20
0.000371145
-2.48547e-18
-1.79773e-20
-2.6539e-18
-1.86106e-20
0.000377119
-2.53065e-18
-2.09531e-20
-2.60504e-18
-1.85906e-20
0.000383186
-2.57441e-18
-2.01864e-20
-2.48203e-18
-2.00752e-20
0.000389345
-2.56009e-18
-1.84436e-20
-2.46517e-18
-2.34935e-20
0.000395599
-2.49191e-18
-1.89232e-20
-2.48263e-18
-2.44456e-20
0.000401949
-2.50117e-18
-1.94093e-20
-2.47399e-18
-2.30138e-20
0.000408396
-2.45091e-18
-1.97552e-20
-2.48133e-18
-2.27593e-20
0.000414941
-2.54287e-18
-2.14852e-20
-2.38904e-18
-2.11796e-20
0.000421586
-2.50282e-18
-2.03844e-20
-2.38711e-18
-2.22243e-20
0.000428332
-2.59581e-18
-1.95997e-20
-2.39217e-18
-2.22942e-20
0.00043518
-2.44718e-18
-1.68576e-20
-2.38591e-18
-2.13452e-20
0.000442131
-2.42542e-18
-1.76556e-20
-2.35036e-18
-2.13067e-20
0.000449187
-2.31136e-18
-1.82026e-20
-2.40822e-18
-2.37841e-20
0.000456348
-2.33481e-18
-1.91969e-20
-2.36946e-18
-2.2346e-20
0.000463617
-2.29929e-18
-1.75704e-20
-2.36511e-18
-1.98623e-20
0.000470994
-2.28998e-18
-1.6269e-20
-2.33833e-18
-1.67107e-20
0.000478481
-2.29169e-18
-1.46608e-20
-2.37901e-18
-1.62037e-20
0.000486079
-2.15967e-18
-1.52549e-20
-2.45578e-18
-1.50222e-20
0.000493788
-2.2981e-18
-1.91746e-20
-2.31635e-18
-9.17371e-21
0.000501611
-2.32322e-18
-1.81154e-20
-2.37043e-18
-6.70059e-21
0.000509548
-2.23078e-18
-1.63541e-20
-2.33802e-18
-3.71111e-21
0.000517601
-2.39587e-18
-1.82578e-20
-2.23073e-18
1.53224e-22
0.00052577
-2.131e-18
-1.55715e-20
-2.21322e-18
-1.45912e-22
0.000534057
-2.1265e-18
-2.20406e-20
-2.18548e-18
3.18055e-22
0.000542463
-2.08394e-18
-2.36912e-20
-2.03685e-18
3.99721e-21
0.000550988
-2.08537e-18
-2.24541e-20
-1.93677e-18
1.4634e-21
0.000559634
-1.90944e-18
-2.04312e-20
-1.8246e-18
-2.33273e-21
0.000568401
-1.80821e-18
-1.78185e-20
-1.79432e-18
-8.84629e-21
0.00057729
-1.70916e-18
-1.19948e-20
-1.80484e-18
-1.27972e-20
0.000586302
-1.66422e-18
-1.29657e-20
-1.76107e-18
-1.77772e-20
0.000595438
-1.71406e-18
-1.53095e-20
-1.76057e-18
-2.21119e-20
0.000604698
-1.71861e-18
-1.59354e-20
-1.78543e-18
-1.71321e-20
0.000614082
-1.84954e-18
-1.36366e-20
-1.74021e-18
-9.77173e-21
0.000623592
-1.68108e-18
-7.27234e-21
-1.68511e-18
-2.52373e-21
0.000633226
-1.83946e-18
-1.30213e-20
-1.62499e-18
1.32315e-21
0.000642986
-1.7539e-18
-3.94936e-21
-1.63612e-18
-7.26664e-22
0.00065287
-1.75273e-18
-3.23274e-21
-1.60704e-18
-7.01587e-21
0.00066288
-1.65899e-18
-6.91499e-21
-1.56845e-18
-1.30759e-20
0.000673014
-1.55154e-18
-8.27574e-21
-1.52442e-18
-1.59126e-20
0.000683272
-1.53739e-18
-3.64699e-21
-1.47783e-18
-1.50562e-20
0.000693653
-1.46582e-18
1.97514e-22
-1.43744e-18
-1.3336e-20
0.000704156
-1.53943e-18
-7.62167e-21
-1.46305e-18
-1.50707e-20
0.000714781
-1.44831e-18
-1.07744e-21
-1.41994e-18
-1.9998e-20
0.000725524
-1.29658e-18
1.52982e-21
-1.32509e-18
-2.30653e-20
0.000736386
-1.31646e-18
2.588e-21
-1.27419e-18
-3.56119e-20
0.000747364
-1.22946e-18
-3.98387e-21
-1.25385e-18
-3.80699e-20
0.000758456
-1.20382e-18
1.18019e-21
-1.1908e-18
-3.83858e-20
0.000769659
-1.04011e-18
8.84567e-21
-1.10639e-18
-4.15717e-20
0.000780972
-1.03231e-18
8.97037e-21
-1.08851e-18
-3.60231e-20
0.00079239
8.11714e-21
-1.05086e-18
-2.53845e-20
-1.04377e-18
4.89533e-08
-8.27377e-22
-3.3014e-22
1.49703e-07
-4.76121e-21
-2.89471e-21
2.54832e-07
-8.8209e-21
-5.50777e-21
3.6449e-07
-1.30396e-20
-8.2572e-21
4.78825e-07
-1.73117e-20
-1.12311e-20
5.97989e-07
-2.17412e-20
-1.44236e-20
7.22121e-07
-2.64814e-20
-1.76069e-20
8.51348e-07
-3.14076e-20
-2.09268e-20
9.85761e-07
-3.65967e-20
-2.42971e-20
1.1254e-06
-4.16241e-20
-2.80111e-20
1.27024e-06
-4.69586e-20
-3.14813e-20
1.42014e-06
-5.25613e-20
-3.52163e-20
1.57486e-06
-5.83921e-20
-3.92077e-20
1.73401e-06
-6.44129e-20
-4.31578e-20
1.89708e-06
-7.03658e-20
-4.71284e-20
2.06344e-06
-7.55277e-20
-5.16616e-20
2.2324e-06
-8.10778e-20
-5.55546e-20
2.40322e-06
-8.67387e-20
-6.0049e-20
2.57522e-06
-9.16485e-20
-6.39198e-20
2.74777e-06
-9.69052e-20
-6.89307e-20
2.92033e-06
-1.01848e-19
-7.34624e-20
3.09251e-06
-1.07261e-19
-7.89221e-20
3.26401e-06
-1.11853e-19
-8.368e-20
3.43465e-06
-1.17678e-19
-8.75981e-20
3.60434e-06
-1.22462e-19
-9.19617e-20
3.77308e-06
-1.27519e-19
-9.61159e-20
3.94092e-06
-1.34371e-19
-9.95179e-20
4.10795e-06
-1.41142e-19
-1.02359e-19
4.27428e-06
-1.46485e-19
-1.05464e-19
4.44007e-06
-1.51545e-19
-1.086e-19
4.60546e-06
-1.56432e-19
-1.12064e-19
4.77063e-06
-1.62064e-19
-1.14944e-19
4.93571e-06
-1.66956e-19
-1.17828e-19
5.10089e-06
-1.71087e-19
-1.20533e-19
5.2663e-06
-1.7536e-19
-1.2281e-19
5.43211e-06
-1.80061e-19
-1.25346e-19
5.59846e-06
-1.84512e-19
-1.28255e-19
5.76549e-06
-1.88827e-19
-1.31824e-19
5.93333e-06
-1.92746e-19
-1.35357e-19
6.1021e-06
-1.96823e-19
-1.37739e-19
6.27194e-06
-2.00625e-19
-1.41286e-19
6.44296e-06
-2.05216e-19
-1.44581e-19
6.61527e-06
-2.10225e-19
-1.45907e-19
6.78899e-06
-2.1447e-19
-1.48602e-19
6.9642e-06
-2.18385e-19
-1.51023e-19
7.14102e-06
-2.24198e-19
-1.52284e-19
7.31953e-06
-2.27505e-19
-1.547e-19
7.49984e-06
-2.30872e-19
-1.5596e-19
7.68203e-06
-2.3666e-19
-1.56854e-19
7.86618e-06
-2.40665e-19
-1.58111e-19
8.0524e-06
-2.43736e-19
-1.61845e-19
8.24075e-06
-2.48928e-19
-1.65823e-19
8.43132e-06
-2.51218e-19
-1.67764e-19
8.62419e-06
-2.53331e-19
-1.68651e-19
8.81944e-06
-2.56902e-19
-1.70021e-19
9.01714e-06
-2.60835e-19
-1.71075e-19
9.21737e-06
-2.64234e-19
-1.76032e-19
9.42021e-06
-2.67659e-19
-1.79044e-19
9.62573e-06
-2.71186e-19
-1.81304e-19
9.83401e-06
-2.74104e-19
-1.868e-19
1.00451e-05
-2.76334e-19
-1.89267e-19
1.02591e-05
-2.79668e-19
-1.91629e-19
1.04761e-05
-2.83419e-19
-1.91472e-19
1.06961e-05
-2.86353e-19
-1.97456e-19
1.09193e-05
-2.92836e-19
-2.02357e-19
1.11456e-05
-2.97371e-19
-2.03657e-19
1.13752e-05
-3.00053e-19
-2.05677e-19
1.16081e-05
-3.02441e-19
-2.08037e-19
1.18444e-05
-3.04765e-19
-2.11317e-19
1.20843e-05
-3.06789e-19
-2.14574e-19
1.23276e-05
-3.08289e-19
-2.16355e-19
1.25746e-05
-3.10642e-19
-2.19599e-19
1.28254e-05
-3.13911e-19
-2.22587e-19
1.30798e-05
-3.14896e-19
-2.24357e-19
1.33382e-05
-3.17391e-19
-2.25022e-19
1.36004e-05
-3.20305e-19
-2.27589e-19
1.38667e-05
-3.21348e-19
-2.31307e-19
1.41371e-05
-3.23574e-19
-2.32432e-19
1.44116e-05
-3.25118e-19
-2.34496e-19
1.46903e-05
-3.27415e-19
-2.36015e-19
1.49734e-05
-3.29269e-19
-2.3953e-19
1.52609e-05
-3.31344e-19
-2.42217e-19
1.55529e-05
-3.3441e-19
-2.44893e-19
1.58494e-05
-3.36324e-19
-2.48182e-19
1.61505e-05
-3.41171e-19
-2.51535e-19
1.64564e-05
-3.40294e-19
-2.55598e-19
1.67672e-05
-3.43396e-19
-2.56104e-19
1.70828e-05
-3.47163e-19
-2.54237e-19
1.74034e-05
-3.53353e-19
-2.55247e-19
1.77291e-05
-3.59291e-19
-2.55843e-19
1.80599e-05
-3.58593e-19
-2.59389e-19
1.8396e-05
-3.61988e-19
-2.6118e-19
1.87375e-05
-3.62987e-19
-2.62105e-19
1.90844e-05
-3.63145e-19
-2.62426e-19
1.94368e-05
-3.67057e-19
-2.70149e-19
1.97949e-05
-3.67628e-19
-2.72148e-19
2.01587e-05
-3.69576e-19
-2.74989e-19
2.05284e-05
-3.70856e-19
-2.7824e-19
2.0904e-05
-3.70033e-19
-2.75826e-19
2.12856e-05
-3.72782e-19
-2.78693e-19
2.16733e-05
-3.72709e-19
-2.78428e-19
2.20673e-05
-3.73491e-19
-2.79886e-19
2.24677e-05
-3.74455e-19
-2.82822e-19
2.28745e-05
-3.71235e-19
-2.8164e-19
2.32878e-05
-3.71742e-19
-2.82771e-19
2.37079e-05
-3.68951e-19
-2.79962e-19
2.41347e-05
-3.70006e-19
-2.81915e-19
2.45685e-05
-3.69911e-19
-2.84233e-19
2.50092e-05
-3.73177e-19
-2.84186e-19
2.54571e-05
-3.70552e-19
-2.86827e-19
2.59123e-05
-3.74852e-19
-2.86641e-19
2.63748e-05
-3.78117e-19
-2.82799e-19
2.68448e-05
-3.77833e-19
-2.83988e-19
2.73225e-05
-3.77722e-19
-2.87968e-19
2.78079e-05
-3.79232e-19
-2.93647e-19
2.83012e-05
-3.75074e-19
-2.92973e-19
2.88025e-05
-3.76126e-19
-2.93838e-19
2.9312e-05
-3.75923e-19
-2.96844e-19
2.98297e-05
-3.76551e-19
-2.93801e-19
3.03559e-05
-3.79184e-19
-2.92899e-19
3.08906e-05
-3.80339e-19
-2.89361e-19
3.1434e-05
-3.80011e-19
-2.92223e-19
3.19863e-05
-3.87822e-19
-2.91154e-19
3.25476e-05
-3.89038e-19
-2.91169e-19
3.3118e-05
-4.00738e-19
-2.81438e-19
3.36977e-05
-4.0304e-19
-2.69483e-19
3.42868e-05
-3.98611e-19
-2.6763e-19
3.48856e-05
-4.05266e-19
-2.58116e-19
3.54941e-05
-4.09657e-19
-2.64213e-19
3.61125e-05
-4.07547e-19
-2.65078e-19
3.6741e-05
-4.10338e-19
-2.671e-19
3.73797e-05
-4.17917e-19
-2.55731e-19
3.80289e-05
-4.17107e-19
-2.56047e-19
3.86887e-05
-4.1995e-19
-2.52501e-19
3.93592e-05
-4.17307e-19
-2.46782e-19
4.00406e-05
-4.15392e-19
-2.44326e-19
4.07332e-05
-4.07745e-19
-2.43451e-19
4.14371e-05
-3.98573e-19
-2.42733e-19
4.21524e-05
-3.94381e-19
-2.38935e-19
4.28794e-05
-3.92673e-19
-2.39311e-19
4.36183e-05
-3.8381e-19
-2.47645e-19
4.43693e-05
-3.81745e-19
-2.47147e-19
4.51324e-05
-3.87409e-19
-2.41066e-19
4.59081e-05
-3.89411e-19
-2.41417e-19
4.66964e-05
-3.92024e-19
-2.41703e-19
4.74975e-05
-3.93948e-19
-2.43603e-19
4.83117e-05
-3.89642e-19
-2.46844e-19
4.91393e-05
-3.87064e-19
-2.4351e-19
4.99803e-05
-3.8759e-19
-2.42086e-19
5.0835e-05
-3.81594e-19
-2.45463e-19
5.17037e-05
-3.82081e-19
-2.41874e-19
5.25865e-05
-3.81171e-19
-2.42408e-19
5.34837e-05
-3.76059e-19
-2.4267e-19
5.43956e-05
-3.76061e-19
-2.29974e-19
5.53223e-05
-3.78293e-19
-2.29266e-19
5.62642e-05
-3.7979e-19
-2.29615e-19
5.72214e-05
-3.63773e-19
-2.29743e-19
5.81942e-05
-3.61748e-19
-2.30242e-19
5.91829e-05
-3.78223e-19
-2.16314e-19
6.01877e-05
-3.74202e-19
-2.11987e-19
6.12089e-05
-3.75793e-19
-2.10646e-19
6.22467e-05
-3.82771e-19
-2.10112e-19
6.33014e-05
-3.77649e-19
-2.17506e-19
6.43733e-05
-3.7801e-19
-2.15469e-19
6.54627e-05
-3.65684e-19
-2.26069e-19
6.65699e-05
-3.62976e-19
-2.27454e-19
6.7695e-05
-3.59981e-19
-2.14315e-19
6.88385e-05
-3.61646e-19
-2.0468e-19
7.00006e-05
-3.56385e-19
-1.9967e-19
7.11817e-05
-3.51963e-19
-1.99276e-19
7.23819e-05
-3.67468e-19
-1.89061e-19
7.36017e-05
-3.91302e-19
-1.84993e-19
7.48414e-05
-3.99923e-19
-1.72985e-19
7.61012e-05
-3.8407e-19
-1.67325e-19
7.73816e-05
-3.96389e-19
-1.60237e-19
7.86827e-05
-3.87067e-19
-1.53092e-19
8.00051e-05
-3.89087e-19
-1.57525e-19
8.13489e-05
-3.99006e-19
-1.41111e-19
8.27146e-05
-3.95004e-19
-1.41294e-19
8.41025e-05
-3.98823e-19
-1.46995e-19
8.5513e-05
-3.95989e-19
-1.50191e-19
8.69463e-05
-3.86543e-19
-1.56816e-19
8.8403e-05
-3.831e-19
-1.52324e-19
8.98834e-05
-3.92904e-19
-1.5965e-19
9.13878e-05
-4.17716e-19
-1.63065e-19
9.29166e-05
-4.41491e-19
-1.71766e-19
9.44702e-05
-4.53905e-19
-1.71766e-19
9.60491e-05
-4.4471e-19
-1.76112e-19
9.76536e-05
-4.46958e-19
-1.80383e-19
9.92841e-05
-4.60222e-19
-1.70202e-19
0.000100941
-4.70893e-19
-1.78358e-19
0.000102625
-4.78149e-19
-1.8766e-19
0.000104336
-4.99836e-19
-1.82045e-19
0.000106075
-5.08047e-19
-1.79119e-19
0.000107842
-5.0545e-19
-1.92255e-19
0.000109638
-5.07214e-19
-1.7977e-19
0.000111463
-4.94684e-19
-1.73419e-19
0.000113317
-5.16229e-19
-1.80029e-19
0.000115202
-5.14969e-19
-1.75492e-19
0.000117117
-4.83035e-19
-1.79415e-19
0.000119063
-4.74424e-19
-1.92803e-19
0.00012104
-4.73444e-19
-1.90897e-19
0.00012305
-4.82784e-19
-1.60148e-19
0.000125092
-4.87981e-19
-1.64377e-19
0.000127167
-4.68907e-19
-1.9966e-19
0.000129275
-4.52389e-19
-2.22764e-19
0.000131418
-4.66683e-19
-2.28778e-19
0.000133595
-4.70763e-19
-2.33649e-19
0.000135808
-4.77065e-19
-2.34883e-19
0.000138056
-4.84157e-19
-2.3767e-19
0.00014034
-4.95863e-19
-2.55656e-19
0.000142662
-5.09656e-19
-2.30043e-19
0.00014502
-5.26034e-19
-2.68446e-19
0.000147417
-5.18416e-19
-2.7681e-19
0.000149853
-5.08033e-19
-2.92219e-19
0.000152327
-5.08401e-19
-3.04704e-19
0.000154842
-5.16776e-19
-3.07428e-19
0.000157397
-5.5527e-19
-3.20809e-19
0.000159993
-5.62791e-19
-2.97109e-19
0.000162631
-5.65768e-19
-3.12929e-19
0.000165312
-5.36899e-19
-3.28641e-19
0.000168036
-5.47706e-19
-3.49063e-19
0.000170803
-5.45799e-19
-3.49811e-19
0.000173615
-5.41715e-19
-3.72512e-19
0.000176472
-5.16778e-19
-3.71785e-19
0.000179375
-5.1184e-19
-3.56459e-19
0.000182325
-5.27011e-19
-3.27023e-19
0.000185321
-5.22092e-19
-3.47972e-19
0.000188366
-5.23519e-19
-3.79517e-19
0.00019146
-5.37911e-19
-4.00416e-19
0.000194604
-5.4397e-19
-3.94998e-19
0.000197797
-5.3283e-19
-4.37325e-19
0.000201042
-5.35512e-19
-4.36437e-19
0.000204339
-5.51618e-19
-4.16774e-19
0.000207689
-5.46228e-19
-4.29752e-19