/*--------------------------------*- C++ -*----------------------------------*\
| =========                 |                                                 |
| \\      /  F ield         | OpenFOAM: The Open Source CFD Toolbox           |
|  \\    /   O peration     | Version:  2012                                  |
|   \\  /    A nd           | Website:  www.openfoam.com                      |
|    \\/     M anipulation  |                                                 |
\*---------------------------------------------------------------------------*/
FoamFile
{
    version     2.0;
    format      ascii;
    class       volScalarField;
    location    "11600";
    object      nut;
}
// * * * * * * * * * * * * * * * * * * * * * * * * * * * * * * * * * * * * * //

dimensions      [0 2 -1 0 0 0 0];


internalField   nonuniform List<scalar> 
2560
(
9.34355e-10
9.34355e-10
1.13167e-07
1.13167e-07
2.38845e-06
2.38845e-06
1.82475e-05
1.82475e-05
7.54584e-05
7.54584e-05
0.000198738
0.000198738
0.000385355
0.000385355
0.000619095
0.000619095
0.000885984
0.000885984
0.00117662
0.00117662
0.00148481
0.00148481
0.00180628
0.00180628
0.002138
0.002138
0.00247768
0.00247768
0.00282354
0.00282354
0.00317417
0.00317417
0.00352842
0.00352842
0.0038853
0.0038853
0.00424399
0.00424399
0.00460375
0.00460375
0.00496394
0.00496394
0.00532397
0.00532397
0.00568333
0.00568333
0.00604151
0.00604151
0.00639806
0.00639806
0.00675254
0.00675254
0.00710454
0.00710454
0.00745366
0.00745366
0.00779952
0.00779952
0.00814174
0.00814174
0.00847995
0.00847995
0.00881379
0.00881379
0.00914291
0.00914291
0.00946696
0.00946696
0.00978561
0.00978561
0.0100985
0.0100985
0.0104054
0.0104054
0.0107058
0.0107058
0.0109996
0.0109996
0.0112865
0.0112865
0.0115661
0.0115661
0.0118383
0.0118383
0.0121028
0.0121028
0.0123594
0.0123594
0.0126081
0.0126081
0.0128487
0.0128487
0.0130811
0.0130811
0.0133055
0.0133055
0.0135217
0.0135217
0.0137301
0.0137301
0.0139308
0.0139308
0.0141241
0.0141241
0.0143105
0.0143105
0.0144906
0.0144906
0.0146649
0.0146649
0.0148343
0.0148343
0.0149997
0.0149997
0.0151622
0.0151622
0.015323
0.015323
0.0154834
0.0154834
0.015645
0.015645
0.0158095
0.0158095
0.0159785
0.0159785
0.016154
0.016154
0.0163378
0.0163378
0.0165319
0.0165319
0.0167382
0.0167382
0.0169585
0.0169585
0.0171945
0.0171945
0.0174476
0.0174476
0.0177191
0.0177191
0.0180097
0.0180097
0.01832
0.01832
0.0186502
0.0186502
0.0189998
0.0189998
0.0193682
0.0193682
0.0197543
0.0197543
0.0201566
0.0201566
0.0205735
0.0205735
0.021003
0.021003
0.021443
0.021443
0.0218913
0.0218913
0.0223457
0.0223457
0.022804
0.022804
0.0232639
0.0232639
0.0237235
0.0237235
0.0241808
0.0241808
0.0246341
0.0246341
0.0250817
0.0250817
0.0255223
0.0255223
0.0259547
0.0259547
0.0263778
0.0263778
0.0267907
0.0267907
0.0271927
0.0271927
0.0275833
0.0275833
0.027962
0.027962
0.0283286
0.0283286
0.0286827
0.0286827
0.0290244
0.0290244
0.0293536
0.0293536
0.0296703
0.0296703
0.0299748
0.0299748
0.030267
0.030267
0.0305473
0.0305473
0.0308159
0.0308159
0.0310731
0.0310731
0.031319
0.031319
0.0315541
0.0315541
0.0317787
0.0317787
0.0319929
0.0319929
0.0321972
0.0321972
0.0323919
0.0323919
0.0325772
0.0325772
0.0327535
0.0327535
0.032921
0.032921
0.0330801
0.0330801
0.033231
0.033231
0.0333739
0.0333739
0.0335092
0.0335092
0.033637
0.033637
0.0337577
0.0337577
0.0338713
0.0338713
0.0339782
0.0339782
0.0340784
0.0340784
0.0341723
0.0341723
0.0342599
0.0342599
0.0343414
0.0343414
0.0344169
0.0344169
0.0344866
0.0344866
0.0345506
0.0345506
0.034609
0.034609
0.0346619
0.0346619
0.0347095
0.0347095
0.0347517
0.0347517
0.0347888
0.0347888
0.0348207
0.0348207
0.0348477
0.0348477
0.0348696
0.0348696
0.0348867
0.0348867
0.0348989
0.0348989
0.0349064
0.0349064
0.0349092
0.0349092
0.0349074
0.0349074
0.034901
0.034901
0.0348902
0.0348902
0.0348749
0.0348749
0.0348553
0.0348553
0.0348314
0.0348314
0.0348034
0.0348034
0.0347713
0.0347713
0.0347352
0.0347352
0.0346953
0.0346953
0.0346516
0.0346516
0.0346044
0.0346044
0.0345538
0.0345538
0.0345
0.0345
0.034443
0.034443
0.0343833
0.0343833
0.0343209
0.0343209
0.0342561
0.0342561
0.0341891
0.0341891
0.0341201
0.0341201
0.0340493
0.0340493
0.033977
0.033977
0.0339032
0.0339032
0.0338282
0.0338282
0.033752
0.033752
0.0336747
0.0336747
0.0335964
0.0335964
0.0335171
0.0335171
0.0334369
0.0334369
0.0333557
0.0333557
0.0332737
0.0332737
0.0331908
0.0331908
0.0331071
0.0331071
0.0330228
0.0330228
0.0329381
0.0329381
0.032853
0.032853
0.0327678
0.0327678
0.0326827
0.0326827
0.032598
0.032598
0.0325139
0.0325139
0.0324307
0.0324307
0.0323486
0.0323486
0.032268
0.032268
0.0321891
0.0321891
0.032112
0.032112
0.0320372
0.0320372
0.0319647
0.0319647
0.031895
0.031895
0.0318284
0.0318284
0.0317651
0.0317651
0.0317058
0.0317058
0.0316507
0.0316507
0.0316005
0.0316005
0.0315557
0.0315557
0.0315171
0.0315171
0.0314851
0.0314851
0.0314606
0.0314606
0.0314444
0.0314444
0.031437
0.031437
0.0314394
0.0314394
0.0314522
0.0314522
0.0314761
0.0314761
0.0315116
0.0315116
0.0315594
0.0315594
0.0316197
0.0316197
0.0316929
0.0316929
0.0317793
0.0317793
0.031879
0.031879
0.0319922
0.0319922
0.0321192
0.0321192
0.03226
0.03226
0.0324146
0.0324146
0.0325828
0.0325828
0.0327643
0.0327643
0.0329586
0.0329586
0.033165
0.033165
0.0333823
0.0333823
0.0336094
0.0336094
0.0338447
0.0338447
0.0340869
0.0340869
0.0343344
0.0343344
0.0345862
0.0345862
0.0348413
0.0348413
0.0350995
0.0350995
0.0353606
0.0353606
0.0356243
0.0356243
0.0358904
0.0358904
0.036158
0.036158
0.036426
0.036426
0.0366929
0.0366929
0.0369577
0.0369577
0.0372191
0.0372191
0.0374766
0.0374766
0.0377297
0.0377297
0.0379784
0.0379784
0.038223
0.038223
0.0384645
0.0384645
0.0387045
0.0387045
0.0389447
0.0389447
0.0391869
0.0391869
0.0394324
0.0394324
0.0396816
0.0396816
0.0399336
0.0399336
0.0401866
0.0401866
0.0404375
0.0404375
0.0406818
0.0406818
0.0409143
0.0409143
0.0411299
0.0411299
0.041325
0.041325
0.0414991
0.0414991
0.0416546
0.0416546
0.0417966
0.0417966
0.0419319
0.0419319
0.0420675
0.0420675
0.0422092
0.0422092
0.04236
0.04236
0.0425208
0.0425208
0.0426916
0.0426916
0.0428733
0.0428733
0.043069
0.043069
0.0432838
0.0432838
0.0435234
0.0435234
0.0437929
0.0437929
0.0440957
0.0440957
0.0444333
0.0444333
0.0448062
0.0448062
0.0452146
0.0452146
0.0456594
0.0456594
0.0461413
0.0461413
0.0466619
0.0466619
0.0472226
0.0472226
0.0478237
0.0478237
0.0484633
0.0484633
0.049137
0.049137
0.0498378
0.0498378
0.0505558
0.0505558
0.0512783
0.0512782
0.051992
0.051992
0.0526851
0.052685
0.0533462
0.0533462
0.053962
0.0539619
0.0545152
0.0545151
0.0549873
0.0549873
0.0553649
0.0553649
0.0556444
0.0556444
0.0558313
0.0558313
0.055945
0.0559449
0.0560111
0.0560111
0.0560583
0.0560582
0.0561122
0.0561122
0.0561912
0.0561911
0.0562971
0.0562971
0.0564306
0.0564305
0.0565937
0.0565937
0.056788
0.056788
0.0570131
0.0570131
0.0572699
0.0572699
0.0575609
0.0575609
0.0578877
0.0578877
0.0582473
0.0582473
0.0586322
0.0586323
0.0590329
0.0590329
0.0594395
0.0594395
0.0598301
0.0598301
0.0601674
0.0601673
0.0604055
0.0604055
0.0605309
0.0605309
0.0605564
0.0605564
0.0605103
0.0605104
0.0604188
0.0604189
0.060298
0.0602981
0.060162
0.0601621
0.0600281
0.0600282
0.0599098
0.05991
0.0598128
0.0598129
0.0597359
0.059736
0.0596778
0.059678
0.0596445
0.0596447
9.34355e-10
9.34355e-10
1.13167e-07
1.13167e-07
2.38845e-06
2.38845e-06
1.82475e-05
1.82475e-05
7.54584e-05
7.54584e-05
0.000198738
0.000198738
0.000385355
0.000385355
0.000619095
0.000619095
0.000885984
0.000885984
0.00117662
0.00117662
0.00148481
0.00148481
0.00180628
0.00180628
0.002138
0.002138
0.00247768
0.00247768
0.00282354
0.00282354
0.00317417
0.00317417
0.00352842
0.00352842
0.0038853
0.0038853
0.00424399
0.00424399
0.00460375
0.00460375
0.00496394
0.00496394
0.00532397
0.00532397
0.00568333
0.00568333
0.00604151
0.00604151
0.00639806
0.00639806
0.00675254
0.00675254
0.00710454
0.00710454
0.00745366
0.00745366
0.00779952
0.00779952
0.00814174
0.00814174
0.00847995
0.00847995
0.00881379
0.00881379
0.00914291
0.00914291
0.00946696
0.00946696
0.00978561
0.00978561
0.0100985
0.0100985
0.0104054
0.0104054
0.0107058
0.0107058
0.0109996
0.0109996
0.0112865
0.0112865
0.0115661
0.0115661
0.0118383
0.0118383
0.0121028
0.0121028
0.0123594
0.0123594
0.0126081
0.0126081
0.0128487
0.0128487
0.0130811
0.0130811
0.0133055
0.0133055
0.0135217
0.0135217
0.0137301
0.0137301
0.0139308
0.0139308
0.0141241
0.0141241
0.0143105
0.0143105
0.0144906
0.0144906
0.0146649
0.0146649
0.0148343
0.0148343
0.0149997
0.0149997
0.0151622
0.0151622
0.015323
0.015323
0.0154834
0.0154834
0.015645
0.015645
0.0158095
0.0158095
0.0159785
0.0159785
0.016154
0.016154
0.0163378
0.0163378
0.0165319
0.0165319
0.0167382
0.0167382
0.0169585
0.0169585
0.0171945
0.0171945
0.0174476
0.0174476
0.0177191
0.0177191
0.0180097
0.0180097
0.01832
0.01832
0.0186502
0.0186502
0.0189998
0.0189998
0.0193682
0.0193682
0.0197543
0.0197543
0.0201566
0.0201566
0.0205735
0.0205735
0.021003
0.021003
0.021443
0.021443
0.0218913
0.0218913
0.0223457
0.0223457
0.022804
0.022804
0.0232639
0.0232639
0.0237235
0.0237235
0.0241808
0.0241808
0.0246341
0.0246341
0.0250817
0.0250817
0.0255223
0.0255223
0.0259547
0.0259547
0.0263778
0.0263778
0.0267907
0.0267907
0.0271927
0.0271927
0.0275833
0.0275833
0.027962
0.027962
0.0283285
0.0283285
0.0286827
0.0286827
0.0290244
0.0290244
0.0293536
0.0293536
0.0296703
0.0296703
0.0299747
0.0299747
0.030267
0.030267
0.0305473
0.0305473
0.0308159
0.0308159
0.0310731
0.0310731
0.031319
0.031319
0.0315541
0.0315541
0.0317787
0.0317787
0.0319929
0.0319929
0.0321972
0.0321972
0.0323919
0.0323919
0.0325772
0.0325772
0.0327535
0.0327535
0.032921
0.032921
0.0330801
0.0330801
0.033231
0.033231
0.0333739
0.0333739
0.0335092
0.0335092
0.033637
0.033637
0.0337577
0.0337577
0.0338713
0.0338713
0.0339782
0.0339782
0.0340784
0.0340784
0.0341723
0.0341723
0.0342599
0.0342599
0.0343413
0.0343413
0.0344169
0.0344169
0.0344866
0.0344866
0.0345506
0.0345506
0.034609
0.034609
0.0346619
0.0346619
0.0347095
0.0347095
0.0347517
0.0347517
0.0347888
0.0347888
0.0348207
0.0348207
0.0348476
0.0348476
0.0348696
0.0348696
0.0348866
0.0348866
0.0348989
0.0348989
0.0349064
0.0349064
0.0349092
0.0349092
0.0349074
0.0349074
0.034901
0.034901
0.0348902
0.0348902
0.0348749
0.0348749
0.0348553
0.0348553
0.0348314
0.0348314
0.0348034
0.0348034
0.0347713
0.0347713
0.0347352
0.0347352
0.0346953
0.0346953
0.0346516
0.0346516
0.0346044
0.0346044
0.0345538
0.0345538
0.0344999
0.0344999
0.034443
0.034443
0.0343833
0.0343833
0.0343209
0.0343209
0.0342561
0.0342561
0.0341891
0.0341891
0.0341201
0.0341201
0.0340493
0.0340493
0.0339769
0.0339769
0.0339032
0.0339032
0.0338281
0.0338281
0.0337519
0.0337519
0.0336747
0.0336747
0.0335964
0.0335964
0.0335171
0.0335171
0.0334369
0.0334369
0.0333557
0.0333557
0.0332737
0.0332737
0.0331908
0.0331908
0.0331071
0.0331071
0.0330228
0.0330228
0.032938
0.032938
0.0328529
0.0328529
0.0327677
0.0327677
0.0326827
0.0326827
0.0325979
0.0325979
0.0325139
0.0325139
0.0324307
0.0324307
0.0323486
0.0323486
0.032268
0.032268
0.032189
0.032189
0.032112
0.032112
0.0320371
0.0320371
0.0319647
0.0319647
0.031895
0.031895
0.0318283
0.0318283
0.0317651
0.0317651
0.0317057
0.0317057
0.0316507
0.0316507
0.0316005
0.0316005
0.0315557
0.0315557
0.031517
0.031517
0.0314851
0.0314851
0.0314606
0.0314606
0.0314443
0.0314443
0.031437
0.031437
0.0314393
0.0314393
0.0314521
0.0314521
0.031476
0.031476
0.0315115
0.0315115
0.0315592
0.0315592
0.0316196
0.0316195
0.0316928
0.0316928
0.0317791
0.0317791
0.0318788
0.0318788
0.0319921
0.0319921
0.0321191
0.0321191
0.0322598
0.0322598
0.0324144
0.0324144
0.0325826
0.0325826
0.0327641
0.0327641
0.0329584
0.0329584
0.0331647
0.0331647
0.033382
0.033382
0.0336091
0.0336091
0.0338445
0.0338445
0.0340866
0.0340866
0.0343341
0.0343341
0.0345859
0.0345859
0.034841
0.034841
0.0350992
0.0350992
0.0353603
0.0353603
0.035624
0.035624
0.0358901
0.0358901
0.0361577
0.0361577
0.0364257
0.0364257
0.0366926
0.0366926
0.0369573
0.0369573
0.0372188
0.0372188
0.0374763
0.0374763
0.0377294
0.0377294
0.0379781
0.0379781
0.0382227
0.0382227
0.0384642
0.0384642
0.0387042
0.0387042
0.0389444
0.0389444
0.0391867
0.0391866
0.0394322
0.0394322
0.0396813
0.0396813
0.0399334
0.0399334
0.0401864
0.0401864
0.0404373
0.0404372
0.0406816
0.0406816
0.0409142
0.0409142
0.0411298
0.0411298
0.041325
0.041325
0.0414991
0.0414991
0.0416547
0.0416547
0.0417967
0.0417967
0.041932
0.041932
0.0420677
0.0420677
0.0422094
0.0422094
0.0423602
0.0423602
0.0425211
0.0425211
0.0426919
0.0426919
0.0428735
0.0428735
0.0430692
0.0430691
0.0432839
0.0432839
0.0435235
0.0435235
0.0437929
0.0437929
0.0440957
0.0440956
0.0444332
0.0444332
0.044806
0.0448059
0.0452144
0.0452143
0.045659
0.045659
0.0461408
0.0461408
0.0466613
0.0466612
0.0472218
0.0472217
0.0478227
0.0478226
0.048462
0.0484619
0.0491356
0.0491354
0.0498362
0.049836
0.0505539
0.0505538
0.0512763
0.0512761
0.0519901
0.0519898
0.0526832
0.0526829
0.0533444
0.0533441
0.0539605
0.0539601
0.0545141
0.0545136
0.0549867
0.0549861
0.0553648
0.0553642
0.0556448
0.0556442
0.0558321
0.0558315
0.055946
0.0559456
0.0560121
0.056012
0.0560591
0.0560591
0.0561129
0.0561129
0.0561916
0.0561916
0.0562974
0.0562974
0.0564307
0.0564307
0.0565937
0.0565937
0.0567879
0.0567879
0.0570128
0.0570128
0.0572694
0.0572693
0.0575602
0.05756
0.0578866
0.0578863
0.0582458
0.0582455
0.0586303
0.0586301
0.0590306
0.0590305
0.0594369
0.059437
0.0598274
0.0598277
0.0601648
0.0601653
0.0604036
0.0604041
0.0605299
0.0605304
0.0605562
0.0605567
0.0605109
0.0605112
0.0604198
0.06042
0.0602992
0.0602994
0.0601632
0.0601633
0.0600291
0.0600292
0.0599107
0.0599107
0.0598134
0.0598135
0.0597364
0.0597364
0.0596782
0.0596782
0.0596448
0.0596448
0.0596443
0.0596445
0.0596771
0.0596773
0.0597347
0.0597348
0.0598101
0.0598103
0.0599057
0.0599058
0.0600223
0.0600224
0.0601541
0.0601542
0.060288
0.0602881
0.0604055
0.0604056
0.0604907
0.0604907
0.0605299
0.06053
0.0604993
0.0604993
0.0603703
0.0603703
0.0601307
0.0601307
0.059796
0.0597959
0.0594102
0.0594102
0.0590088
0.0590088
0.058613
0.058613
0.0582326
0.0582327
0.0578775
0.0578775
0.0575554
0.0575554
0.0572689
0.0572689
0.0570164
0.0570164
0.0567954
0.0567954
0.0566053
0.0566053
0.0564461
0.0564461
0.0563166
0.0563166
0.0562143
0.0562143
0.0561389
0.0561388
0.0560881
0.056088
0.0560443
0.0560442
0.0559811
0.055981
0.0558687
0.0558687
0.0556811
0.0556811
0.0553989
0.0553989
0.0550168
0.0550167
0.0545406
0.0545406
0.0539846
0.0539846
0.053367
0.053367
0.0527048
0.0527048
0.0520108
0.0520108
0.0512961
0.0512961
0.0505727
0.0505727
0.0498537
0.0498537
0.0491518
0.0491518
0.048477
0.048477
0.0478364
0.0478364
0.0472344
0.0472344
0.0466728
0.0466728
0.0461512
0.0461512
0.0456683
0.0456683
0.0452226
0.0452226
0.0448131
0.0448131
0.0444393
0.0444393
0.0441007
0.0441007
0.0437969
0.0437969
0.0435266
0.0435266
0.043286
0.043286
0.0430704
0.0430704
0.0428742
0.0428742
0.0426923
0.0426923
0.042521
0.042521
0.0423594
0.0423594
0.0422077
0.0422077
0.042065
0.042065
0.0419282
0.0419282
0.0417921
0.0417921
0.0416496
0.0416496
0.0414937
0.0414937
0.0413188
0.0413188
0.0411226
0.0411226
0.0409064
0.0409064
0.0406736
0.0406736
0.0404295
0.0404295
0.0401793
0.0401793
0.0399274
0.0399274
0.0396767
0.0396767
0.0394286
0.0394286
0.0391838
0.0391838
0.0389417
0.0389417
0.0387013
0.0387013
0.0384611
0.0384611
0.0382192
0.0382192
0.0379743
0.0379743
0.0377254
0.0377254
0.037472
0.037472
0.0372145
0.0372145
0.0369532
0.0369532
0.0366886
0.0366886
0.0364217
0.0364217
0.0361541
0.0361541
0.0358871
0.0358871
0.0356216
0.0356216
0.0353587
0.0353587
0.0350985
0.0350985
0.0348409
0.0348409
0.0345862
0.0345862
0.0343348
0.0343348
0.0340875
0.0340875
0.0338455
0.0338455
0.0336103
0.0336103
0.0333835
0.0333835
0.0331664
0.0331664
0.0329602
0.0329602
0.0327658
0.0327658
0.0325841
0.0325841
0.0324157
0.0324157
0.032261
0.032261
0.03212
0.03212
0.0319928
0.0319928
0.0318794
0.0318794
0.0317797
0.0317797
0.0316934
0.0316934
0.0316202
0.0316202
0.0315599
0.0315599
0.0315123
0.0315123
0.0314768
0.0314768
0.031453
0.031453
0.0314403
0.0314403
0.031438
0.031438
0.0314454
0.0314454
0.0314617
0.0314617
0.0314862
0.0314862
0.0315181
0.0315181
0.0315569
0.0315569
0.0316017
0.0316017
0.0316519
0.0316519
0.0317069
0.0317069
0.0317663
0.0317663
0.0318296
0.0318296
0.0318963
0.0318963
0.031966
0.031966
0.0320384
0.0320384
0.0321133
0.0321133
0.0321903
0.0321903
0.0322692
0.0322692
0.0323498
0.0323498
0.0324319
0.0324319
0.0325151
0.0325151
0.0325992
0.0325992
0.0326839
0.0326839
0.032769
0.032769
0.0328542
0.0328542
0.0329393
0.0329393
0.0330241
0.0330241
0.0331085
0.0331085
0.0331921
0.0331921
0.033275
0.033275
0.0333571
0.0333571
0.0334382
0.0334382
0.0335185
0.0335185
0.0335978
0.0335978
0.0336762
0.0336762
0.0337535
0.0337535
0.0338297
0.0338297
0.0339048
0.0339048
0.0339785
0.0339785
0.0340509
0.0340509
0.0341217
0.0341217
0.0341907
0.0341907
0.0342577
0.0342577
0.0343225
0.0343225
0.0343849
0.0343849
0.0344447
0.0344447
0.0345016
0.0345016
0.0345555
0.0345555
0.0346061
0.0346061
0.0346533
0.0346533
0.034697
0.034697
0.0347369
0.0347369
0.034773
0.034773
0.0348052
0.0348052
0.0348332
0.0348332
0.0348571
0.0348571
0.0348768
0.0348768
0.0348921
0.0348921
0.034903
0.034903
0.0349094
0.0349094
0.0349113
0.0349113
0.0349086
0.0349086
0.0349011
0.0349011
0.034889
0.034889
0.034872
0.034872
0.0348501
0.0348501
0.0348233
0.0348233
0.0347914
0.0347914
0.0347544
0.0347544
0.0347122
0.0347122
0.0346646
0.0346646
0.0346117
0.0346117
0.0345534
0.0345534
0.0344894
0.0344894
0.0344198
0.0344198
0.0343443
0.0343443
0.0342628
0.0342628
0.0341753
0.0341753
0.0340815
0.0340815
0.0339812
0.0339812
0.0338743
0.0338743
0.0337606
0.0337606
0.03364
0.03364
0.0335121
0.0335121
0.0333767
0.0333767
0.0332337
0.0332337
0.0330826
0.0330826
0.0329234
0.0329234
0.0327558
0.0327558
0.0325795
0.0325795
0.0323941
0.0323941
0.0321995
0.0321995
0.0319952
0.0319952
0.0317809
0.0317809
0.0315564
0.0315564
0.0313213
0.0313213
0.0310754
0.0310754
0.0308183
0.0308183
0.0305496
0.0305496
0.0302693
0.0302693
0.029977
0.029977
0.0296726
0.0296726
0.0293559
0.0293559
0.0290268
0.0290268
0.0286852
0.0286852
0.0283311
0.0283311
0.0279647
0.0279647
0.027586
0.027586
0.0271954
0.0271954
0.0267932
0.0267932
0.0263801
0.0263801
0.0259566
0.0259566
0.0255238
0.0255238
0.0250829
0.0250829
0.0246351
0.0246351
0.0241817
0.0241817
0.0237243
0.0237243
0.0232645
0.0232645
0.0228044
0.0228044
0.0223459
0.0223459
0.0218913
0.0218913
0.0214427
0.0214427
0.0210024
0.0210024
0.0205726
0.0205726
0.0201556
0.0201556
0.019753
0.019753
0.0193668
0.0193668
0.0189983
0.0189983
0.0186485
0.0186485
0.0183182
0.0183182
0.0180077
0.0180077
0.0177169
0.0177169
0.0174454
0.0174454
0.0171921
0.0171921
0.016956
0.016956
0.0167356
0.0167356
0.0165293
0.0165293
0.0163351
0.0163351
0.0161512
0.0161512
0.0159757
0.0159757
0.0158066
0.0158066
0.0156421
0.0156421
0.0154804
0.0154804
0.01532
0.01532
0.0151592
0.0151592
0.0149968
0.0149968
0.0148315
0.0148315
0.0146621
0.0146621
0.0144879
0.0144879
0.014308
0.014308
0.0141217
0.0141217
0.0139285
0.0139285
0.0137279
0.0137279
0.0135196
0.0135196
0.0133035
0.0133035
0.0130793
0.0130793
0.012847
0.012847
0.0126065
0.0126065
0.012358
0.012358
0.0121014
0.0121014
0.011837
0.011837
0.011565
0.011565
0.0112855
0.0112855
0.0109987
0.0109987
0.010705
0.010705
0.0104046
0.0104046
0.0100978
0.0100978
0.00978494
0.00978494
0.00946635
0.00946635
0.00914235
0.00914235
0.00881326
0.00881326
0.00847945
0.00847945
0.00814128
0.00814128
0.00779911
0.00779911
0.0074533
0.0074533
0.00710423
0.00710423
0.00675227
0.00675227
0.00639784
0.00639784
0.00604132
0.00604132
0.00568317
0.00568317
0.00532384
0.00532384
0.00496383
0.00496383
0.00460366
0.00460366
0.00424392
0.00424392
0.00388525
0.00388525
0.00352838
0.00352838
0.00317414
0.00317414
0.00282352
0.00282352
0.00247767
0.00247767
0.002138
0.002138
0.00180629
0.00180629
0.00148482
0.00148482
0.00117663
0.00117663
0.000885997
0.000885997
0.000619108
0.000619108
0.000385365
0.000385365
0.000198745
0.000198745
7.54618e-05
7.54618e-05
1.82484e-05
1.82484e-05
2.38857e-06
2.38857e-06
1.13172e-07
1.13172e-07
9.34411e-10
9.34411e-10
0.0596446
0.0596446
0.0596775
0.0596775
0.0597352
0.0597352
0.0598108
0.0598108
0.0599065
0.0599065
0.0600233
0.0600234
0.0601552
0.0601554
0.0602892
0.0602893
0.0604065
0.0604067
0.0604912
0.0604915
0.0605297
0.0605302
0.0604982
0.0604988
0.0603684
0.0603689
0.0601282
0.0601287
0.0597932
0.0597935
0.0594076
0.0594077
0.0590066
0.0590065
0.0586111
0.0586109
0.0582312
0.0582309
0.0578764
0.0578762
0.0575547
0.0575545
0.0572684
0.0572684
0.0570162
0.0570161
0.0567953
0.0567953
0.0566053
0.0566053
0.0564463
0.0564463
0.0563169
0.0563169
0.0562148
0.0562148
0.0561396
0.0561396
0.056089
0.056089
0.0560453
0.0560451
0.0559821
0.0559817
0.0558695
0.055869
0.0556815
0.0556809
0.0553988
0.0553981
0.0550161
0.0550156
0.0545395
0.054539
0.0539831
0.0539827
0.0533653
0.0533649
0.0527029
0.0527026
0.0520088
0.0520086
0.0512942
0.051294
0.0505709
0.0505707
0.049852
0.0498519
0.0491503
0.0491502
0.0484757
0.0484756
0.0478354
0.0478353
0.0472336
0.0472335
0.0466721
0.0466721
0.0461508
0.0461507
0.0456679
0.0456679
0.0452223
0.0452222
0.0448129
0.0448129
0.0444392
0.0444392
0.0441007
0.0441007
0.043797
0.043797
0.0435267
0.0435267
0.0432862
0.0432862
0.0430706
0.0430706
0.0428745
0.0428745
0.0426925
0.0426925
0.0425213
0.0425212
0.0423597
0.0423597
0.042208
0.0422079
0.0420652
0.0420652
0.0419283
0.0419283
0.0417922
0.0417922
0.0416497
0.0416497
0.0414937
0.0414937
0.0413188
0.0413188
0.0411226
0.0411226
0.0409062
0.0409062
0.0406735
0.0406735
0.0404293
0.0404293
0.0401791
0.0401791
0.0399272
0.0399272
0.0396764
0.0396764
0.0394284
0.0394284
0.0391835
0.0391835
0.0389414
0.0389414
0.038701
0.038701
0.0384608
0.0384608
0.0382189
0.0382189
0.037974
0.037974
0.0377251
0.0377251
0.0374717
0.0374717
0.0372142
0.0372142
0.0369529
0.0369528
0.0366883
0.0366882
0.0364214
0.0364214
0.0361538
0.0361538
0.0358867
0.0358867
0.0356213
0.0356213
0.0353583
0.0353583
0.0350982
0.0350982
0.0348406
0.0348406
0.0345859
0.0345859
0.0343345
0.0343345
0.0340872
0.0340872
0.0338452
0.0338452
0.0336101
0.0336101
0.0333832
0.0333832
0.0331661
0.0331661
0.0329599
0.0329599
0.0327656
0.0327656
0.0325839
0.0325839
0.0324155
0.0324155
0.0322608
0.0322608
0.0321198
0.0321198
0.0319926
0.0319926
0.0318793
0.0318793
0.0317796
0.0317796
0.0316932
0.0316932
0.0316201
0.0316201
0.0315598
0.0315598
0.0315122
0.0315122
0.0314767
0.0314767
0.0314529
0.0314529
0.0314402
0.0314402
0.0314379
0.0314379
0.0314453
0.0314453
0.0314616
0.0314616
0.0314861
0.0314861
0.0315181
0.0315181
0.0315568
0.0315568
0.0316016
0.0316016
0.0316518
0.0316518
0.0317069
0.0317069
0.0317663
0.0317663
0.0318296
0.0318296
0.0318963
0.0318963
0.031966
0.031966
0.0320384
0.0320384
0.0321132
0.0321132
0.0321903
0.0321903
0.0322692
0.0322692
0.0323498
0.0323498
0.0324319
0.0324319
0.0325151
0.0325151
0.0325991
0.0325991
0.0326839
0.0326839
0.032769
0.032769
0.0328542
0.0328542
0.0329393
0.0329393
0.0330241
0.0330241
0.0331084
0.0331084
0.0331921
0.0331921
0.033275
0.033275
0.033357
0.033357
0.0334382
0.0334382
0.0335185
0.0335185
0.0335978
0.0335978
0.0336761
0.0336761
0.0337535
0.0337535
0.0338297
0.0338297
0.0339047
0.0339047
0.0339785
0.0339785
0.0340509
0.0340509
0.0341217
0.0341217
0.0341907
0.0341907
0.0342577
0.0342577
0.0343225
0.0343225
0.0343849
0.0343849
0.0344447
0.0344447
0.0345016
0.0345016
0.0345555
0.0345555
0.0346061
0.0346061
0.0346533
0.0346533
0.034697
0.034697
0.0347369
0.0347369
0.034773
0.034773
0.0348052
0.0348052
0.0348332
0.0348332
0.0348571
0.0348571
0.0348768
0.0348768
0.0348921
0.0348921
0.034903
0.034903
0.0349094
0.0349094
0.0349113
0.0349113
0.0349086
0.0349086
0.0349011
0.0349011
0.034889
0.034889
0.034872
0.034872
0.0348501
0.0348501
0.0348233
0.0348233
0.0347914
0.0347914
0.0347544
0.0347544
0.0347121
0.0347121
0.0346646
0.0346646
0.0346117
0.0346117
0.0345534
0.0345534
0.0344894
0.0344894
0.0344198
0.0344198
0.0343443
0.0343443
0.0342628
0.0342628
0.0341753
0.0341753
0.0340814
0.0340814
0.0339812
0.0339812
0.0338743
0.0338743
0.0337606
0.0337606
0.0336399
0.0336399
0.033512
0.033512
0.0333767
0.0333767
0.0332337
0.0332337
0.0330826
0.0330826
0.0329234
0.0329234
0.0327558
0.0327558
0.0325795
0.0325795
0.0323941
0.0323941
0.0321995
0.0321995
0.0319951
0.0319951
0.0317809
0.0317809
0.0315564
0.0315564
0.0313213
0.0313213
0.0310754
0.0310754
0.0308183
0.0308183
0.0305496
0.0305496
0.0302693
0.0302693
0.029977
0.029977
0.0296726
0.0296726
0.0293559
0.0293559
0.0290268
0.0290268
0.0286852
0.0286852
0.0283311
0.0283311
0.0279647
0.0279647
0.027586
0.027586
0.0271954
0.0271954
0.0267932
0.0267932
0.02638
0.02638
0.0259566
0.0259566
0.0255238
0.0255238
0.0250829
0.0250829
0.0246351
0.0246351
0.0241817
0.0241817
0.0237243
0.0237243
0.0232645
0.0232645
0.0228044
0.0228044
0.0223459
0.0223459
0.0218913
0.0218913
0.0214427
0.0214427
0.0210024
0.0210024
0.0205726
0.0205726
0.0201555
0.0201555
0.019753
0.019753
0.0193668
0.0193668
0.0189983
0.0189983
0.0186485
0.0186485
0.0183182
0.0183182
0.0180077
0.0180077
0.0177169
0.0177169
0.0174454
0.0174454
0.0171921
0.0171921
0.016956
0.016956
0.0167356
0.0167356
0.0165293
0.0165293
0.0163351
0.0163351
0.0161512
0.0161512
0.0159757
0.0159757
0.0158066
0.0158066
0.0156421
0.0156421
0.0154804
0.0154804
0.01532
0.01532
0.0151592
0.0151592
0.0149968
0.0149968
0.0148315
0.0148315
0.0146621
0.0146621
0.0144879
0.0144879
0.014308
0.014308
0.0141217
0.0141217
0.0139285
0.0139285
0.0137279
0.0137279
0.0135196
0.0135196
0.0133035
0.0133035
0.0130793
0.0130793
0.012847
0.012847
0.0126065
0.0126065
0.012358
0.012358
0.0121014
0.0121014
0.011837
0.011837
0.011565
0.011565
0.0112855
0.0112855
0.0109987
0.0109987
0.010705
0.010705
0.0104046
0.0104046
0.0100978
0.0100978
0.00978494
0.00978494
0.00946635
0.00946635
0.00914235
0.00914235
0.00881327
0.00881327
0.00847946
0.00847946
0.00814128
0.00814128
0.00779911
0.00779911
0.0074533
0.0074533
0.00710423
0.00710423
0.00675228
0.00675228
0.00639784
0.00639784
0.00604132
0.00604132
0.00568317
0.00568317
0.00532384
0.00532384
0.00496383
0.00496383
0.00460366
0.00460366
0.00424392
0.00424392
0.00388525
0.00388525
0.00352838
0.00352838
0.00317414
0.00317414
0.00282352
0.00282352
0.00247767
0.00247767
0.002138
0.002138
0.00180629
0.00180629
0.00148482
0.00148482
0.00117663
0.00117663
0.000885997
0.000885997
0.000619108
0.000619108
0.000385365
0.000385365
0.000198745
0.000198745
7.54618e-05
7.54618e-05
1.82484e-05
1.82484e-05
2.38857e-06
2.38857e-06
1.13172e-07
1.13172e-07
9.3441e-10
9.3441e-10
)
;

boundaryField
{
    walls
    {
        type            nutUWallFunction;
        blending        stepwise;
        Cmu             0.09;
        kappa           0.41;
        E               9.8;
        value           uniform 0;
    }
    inlet
    {
        type            cyclic;
    }
    outlet
    {
        type            cyclic;
    }
    sides
    {
        type            empty;
    }
}


// ************************************************************************* //
