/*--------------------------------*- C++ -*----------------------------------*\
| =========                 |                                                 |
| \\      /  F ield         | OpenFOAM: The Open Source CFD Toolbox           |
|  \\    /   O peration     | Version:  2012                                  |
|   \\  /    A nd           | Website:  www.openfoam.com                      |
|    \\/     M anipulation  |                                                 |
\*---------------------------------------------------------------------------*/
FoamFile
{
    version     2.0;
    format      ascii;
    class       volScalarField;
    location    "11600";
    object      p;
}
// * * * * * * * * * * * * * * * * * * * * * * * * * * * * * * * * * * * * * //

dimensions      [0 2 -2 0 0 0 0];


internalField   nonuniform List<scalar> 
2560
(
-3.42927e-09
-5.04697e-05
-5.44485e-08
-5.05011e-05
-2.58644e-07
-5.06942e-05
-8.72003e-07
-5.13039e-05
-2.25859e-06
-5.26912e-05
-4.95405e-06
-5.53875e-05
-9.64655e-06
-6.00821e-05
-1.71221e-05
-6.75622e-05
-2.83145e-05
-7.87599e-05
-4.42982e-05
-9.4752e-05
-6.62852e-05
-0.000116748
-9.56374e-05
-0.000146113
-0.000133841
-0.00018433
-0.000182527
-0.000233032
-0.000243466
-0.000293987
-0.00031856
-0.000369102
-0.000409838
-0.0004604
-0.000519455
-0.00057004
-0.000649722
-0.00070033
-0.000803042
-0.000853677
-0.000981923
-0.00103258
-0.00118903
-0.00123972
-0.00142717
-0.00147789
-0.00169913
-0.00174988
-0.00200789
-0.00205867
-0.00235656
-0.00240738
-0.00274833
-0.00279918
-0.00318634
-0.00323722
-0.00367392
-0.00372484
-0.00421458
-0.00426553
-0.00481178
-0.00486276
-0.00546895
-0.00551997
-0.00618972
-0.00624078
-0.00697785
-0.00702894
-0.00783699
-0.00788811
-0.00877077
-0.00882194
-0.00978306
-0.00983425
-0.0108778
-0.010929
-0.0120586
-0.0121099
-0.0133294
-0.0133807
-0.0146941
-0.0147454
-0.0161566
-0.016208
-0.0177209
-0.0177723
-0.0193906
-0.0194421
-0.0211698
-0.0212213
-0.0230624
-0.0231139
-0.0250722
-0.0251237
-0.0272029
-0.0272545
-0.0294585
-0.02951
-0.0318432
-0.0318948
-0.0343602
-0.0344118
-0.0370122
-0.0370639
-0.0398054
-0.0398571
-0.0427418
-0.0427935
-0.0458246
-0.0458762
-0.049059
-0.0491107
-0.0524465
-0.0524982
-0.0559924
-0.0560441
-0.0596987
-0.0597504
-0.0635683
-0.0636201
-0.0676053
-0.0676571
-0.0718127
-0.0718644
-0.076194
-0.0762458
-0.0807497
-0.0808014
-0.0854842
-0.085536
-0.0904015
-0.0904533
-0.0955008
-0.0955526
-0.100787
-0.100839
-0.10626
-0.106311
-0.111924
-0.111976
-0.117779
-0.117831
-0.123827
-0.123879
-0.130071
-0.130122
-0.136509
-0.13656
-0.143144
-0.143196
-0.149977
-0.150029
-0.157009
-0.15706
-0.164237
-0.164289
-0.171664
-0.171716
-0.179288
-0.17934
-0.187111
-0.187163
-0.195129
-0.195181
-0.203342
-0.203394
-0.21175
-0.211802
-0.220348
-0.2204
-0.229136
-0.229188
-0.238112
-0.238164
-0.247273
-0.247325
-0.256617
-0.256669
-0.266139
-0.266191
-0.275834
-0.275886
-0.285702
-0.285754
-0.295736
-0.295788
-0.305933
-0.305986
-0.316286
-0.316338
-0.326794
-0.326846
-0.337448
-0.337501
-0.348243
-0.348295
-0.359174
-0.359227
-0.370234
-0.370286
-0.381417
-0.38147
-0.392719
-0.392771
-0.404127
-0.40418
-0.415639
-0.415691
-0.427246
-0.427298
-0.438939
-0.438992
-0.450714
-0.450767
-0.462561
-0.462613
-0.474471
-0.474523
-0.486439
-0.486491
-0.498453
-0.498505
-0.510507
-0.51056
-0.522594
-0.522646
-0.534702
-0.534755
-0.546827
-0.546879
-0.558956
-0.559008
-0.571084
-0.571136
-0.583201
-0.583254
-0.5953
-0.595353
-0.607371
-0.607423
-0.619405
-0.619458
-0.631397
-0.63145
-0.643336
-0.643389
-0.655217
-0.65527
-0.667029
-0.667081
-0.678766
-0.678818
-0.69042
-0.690473
-0.701983
-0.702035
-0.713449
-0.713502
-0.72481
-0.724863
-0.736059
-0.736111
-0.747189
-0.747241
-0.758194
-0.758247
-0.769067
-0.769119
-0.779801
-0.779853
-0.79039
-0.790442
-0.800829
-0.800881
-0.811111
-0.811164
-0.821232
-0.821284
-0.831184
-0.831236
-0.840964
-0.841016
-0.850565
-0.850617
-0.859986
-0.860037
-0.869218
-0.86927
-0.878262
-0.878313
-0.887108
-0.887161
-0.895761
-0.895812
-0.904208
-0.904261
-0.912457
-0.912508
-0.920494
-0.920546
-0.928329
-0.92838
-0.935947
-0.935999
-0.94336
-0.94341
-0.950549
-0.950602
-0.957534
-0.957584
-0.964289
-0.964342
-0.97084
-0.97089
-0.977157
-0.977211
-0.983272
-0.983321
-0.989146
-0.989201
-0.994825
-0.994873
-1.00025
-1.00031
-1.0055
-1.00554
-1.01048
-1.01054
-1.01529
-1.01534
-1.01983
-1.01989
-1.02422
-1.02426
-1.02831
-1.02838
-1.03228
-1.03231
-1.03593
-1.036
-1.03948
-1.03951
-1.04269
-1.04277
-1.04584
-1.04586
-1.04861
-1.0487
-1.05138
-1.05139
-1.05371
-1.05381
-1.05612
-1.05611
-1.05801
-1.05813
-1.06008
-1.06005
-1.06153
-1.06168
-1.0633
-1.06324
-1.06431
-1.06451
-1.06583
-1.06571
-1.06637
-1.06663
-1.06768
-1.06749
-1.06803
-1.06808
-1.0689
-1.06861
-1.06908
-1.0689
-1.06951
-1.06909
-1.06953
-1.0691
-1.06918
-1.06897
-1.06903
-1.06871
-1.06826
-1.06827
-1.06796
-1.06775
-1.0668
-1.06701
-1.06637
-1.06623
-1.06505
-1.06523
-1.06428
-1.06419
-1.06281
-1.06294
-1.06172
-1.06167
-1.06008
-1.06018
-1.0587
-1.05867
-1.05689
-1.05696
-1.05524
-1.05523
-1.05325
-1.05331
-1.05136
-1.05137
-1.04919
-1.04925
-1.04708
-1.04709
-1.04473
-1.04478
-1.04241
-1.04243
-1.03989
-1.03993
-1.03737
-1.03739
-1.03468
-1.03472
-1.03198
-1.032
-1.02913
-1.02916
-1.02624
-1.02627
-1.02324
-1.02327
-1.02019
-1.02021
-1.01702
-1.01705
-1.01381
-1.01383
-1.01048
-1.01051
-1.00709
-1.00712
-1.00359
-1.00362
-1.00003
-1.00005
-0.996349
-0.996376
-0.992595
-0.992621
-0.98874
-0.988767
-0.98481
-0.984836
-0.980788
-0.980815
-0.976693
-0.976719
-0.97251
-0.972537
-0.96825
-0.968276
-0.9639
-0.963926
-0.959469
-0.959494
-0.954944
-0.954969
-0.950335
-0.95036
-0.945634
-0.945659
-0.940846
-0.940871
-0.935963
-0.935988
-0.930991
-0.931015
-0.925924
-0.925949
-0.920772
-0.920796
-0.915534
-0.915558
-0.910215
-0.910239
-0.904813
-0.904836
-0.899329
-0.899353
-0.893764
-0.893787
-0.888117
-0.88814
-0.882386
-0.882409
-0.87657
-0.876593
-0.870664
-0.870687
-0.864672
-0.864694
-0.858593
-0.858615
-0.852429
-0.85245
-0.846181
-0.846202
-0.839855
-0.839876
-0.833456
-0.833477
-0.826991
-0.827012
-0.820465
-0.820486
-0.813875
-0.813895
-0.807218
-0.807239
-0.800482
-0.800502
-0.793663
-0.793682
-0.786749
-0.786769
-0.779737
-0.779756
-0.772626
-0.772644
-0.765425
-0.765444
-0.758143
-0.758161
-0.750792
-0.75081
-0.743378
-0.743395
-0.735902
-0.735919
-0.728354
-0.728371
-0.720733
-0.720749
-0.713032
-0.713048
-0.705262
-0.705277
-0.697418
-0.697432
-0.689506
-0.68952
-0.68152
-0.681532
-0.673463
-0.673476
-0.665327
-0.665338
-0.657117
-0.657128
-0.648827
-0.648837
-0.640476
-0.640487
-0.632063
-0.632072
-0.623605
-0.623615
-0.615104
-0.615112
-0.606585
-0.606594
-0.598048
-0.598055
-0.589521
-0.58953
-0.581001
-0.581008
-0.572518
-0.572527
-0.564059
-0.564065
-0.555657
-0.555666
-0.5473
-0.547306
-0.53902
-0.539029
-0.530784
-0.530789
-0.522617
-0.522625
-0.514496
-0.5145
-0.506475
-0.506483
-0.498539
-0.498541
-0.490759
-0.490767
-0.48314
-0.483142
-0.475766
-0.475773
-0.468615
-0.468615
-0.461746
-0.461754
-0.455109
-0.455108
-0.448758
-0.448765
-0.442654
-0.442651
-0.436881
-0.436886
-0.431414
-0.431407
-0.42634
-0.426342
-0.421631
-0.421618
-0.417365
-0.417361
-0.413515
-0.413494
-0.410154
-0.410141
-0.407271
-0.407242
-0.404912
-0.404889
-0.403068
-0.403033
-0.401803
-0.401772
-0.401148
-0.401111
-0.000137102
-0.000309739
-0.000137133
-0.000309769
-0.000137326
-0.000309962
-0.000137936
-0.000310572
-0.000139323
-0.000311961
-0.00014202
-0.000314658
-0.000146714
-0.000319352
-0.000154194
-0.00032683
-0.000165392
-0.000338026
-0.000181383
-0.000354015
-0.00020338
-0.000376009
-0.000232744
-0.000405369
-0.00027096
-0.000443582
-0.000319661
-0.000492278
-0.000380616
-0.000553228
-0.000455728
-0.000628334
-0.000547025
-0.000719626
-0.000656663
-0.000829257
-0.000786952
-0.000959539
-0.000940295
-0.00111288
-0.0011192
-0.00129177
-0.00132634
-0.0014989
-0.0015645
-0.00173706
-0.00183649
-0.00200904
-0.00214527
-0.00231782
-0.00249397
-0.00266652
-0.00288577
-0.00305831
-0.0033238
-0.00349633
-0.00381142
-0.00398394
-0.0043521
-0.00452462
-0.00494933
-0.00512184
-0.00560653
-0.00577904
-0.00632733
-0.00649984
-0.00711548
-0.00728799
-0.00797464
-0.00814715
-0.00890846
-0.00908096
-0.00992076
-0.0100933
-0.0110155
-0.011188
-0.0121964
-0.0123689
-0.0134672
-0.0136397
-0.0148319
-0.0150044
-0.0162945
-0.016467
-0.0178587
-0.0180313
-0.0195285
-0.019701
-0.0213077
-0.0214802
-0.0232003
-0.0233728
-0.0252101
-0.0253827
-0.0273408
-0.0275134
-0.0295964
-0.029769
-0.0319811
-0.0321537
-0.0344981
-0.0346707
-0.0371502
-0.0373228
-0.0399434
-0.0401161
-0.0428797
-0.0430524
-0.0459625
-0.0461352
-0.0491969
-0.0493697
-0.0525845
-0.0527572
-0.0561303
-0.0563031
-0.0598366
-0.0600094
-0.0637063
-0.0638791
-0.0677433
-0.0679161
-0.0719506
-0.0721235
-0.076332
-0.0765048
-0.0808876
-0.0810605
-0.0856221
-0.0857951
-0.0905394
-0.0907124
-0.0956387
-0.0958117
-0.100925
-0.101098
-0.106397
-0.106571
-0.112062
-0.112235
-0.117917
-0.11809
-0.123965
-0.124138
-0.130208
-0.130382
-0.136647
-0.13682
-0.143282
-0.143455
-0.150115
-0.150288
-0.157146
-0.15732
-0.164375
-0.164548
-0.171802
-0.171976
-0.179426
-0.1796
-0.187249
-0.187422
-0.195267
-0.19544
-0.20348
-0.203654
-0.211888
-0.212061
-0.220486
-0.220659
-0.229274
-0.229447
-0.23825
-0.238424
-0.247411
-0.247585
-0.256755
-0.256928
-0.266277
-0.26645
-0.275972
-0.276145
-0.28584
-0.286013
-0.295874
-0.296047
-0.306072
-0.306245
-0.316424
-0.316598
-0.326932
-0.327105
-0.337587
-0.33776
-0.348381
-0.348554
-0.359313
-0.359486
-0.370372
-0.370546
-0.381556
-0.381729
-0.392857
-0.39303
-0.404266
-0.404439
-0.415777
-0.41595
-0.427384
-0.427558
-0.439078
-0.439251
-0.450852
-0.451026
-0.462699
-0.462872
-0.474609
-0.474783
-0.486577
-0.486751
-0.498591
-0.498765
-0.510646
-0.510819
-0.522732
-0.522906
-0.534841
-0.535014
-0.546965
-0.547139
-0.559094
-0.559268
-0.571222
-0.571396
-0.583339
-0.583513
-0.595438
-0.595612
-0.607509
-0.607683
-0.619544
-0.619717
-0.631536
-0.631709
-0.643474
-0.643648
-0.655355
-0.655529
-0.667167
-0.667341
-0.678904
-0.679078
-0.690558
-0.690732
-0.702121
-0.702295
-0.713588
-0.713761
-0.724948
-0.725122
-0.736197
-0.736371
-0.747327
-0.747501
-0.758332
-0.758506
-0.769205
-0.769379
-0.779939
-0.780113
-0.790528
-0.790702
-0.800967
-0.801141
-0.811249
-0.811423
-0.82137
-0.821544
-0.831322
-0.831496
-0.841102
-0.841276
-0.850703
-0.850877
-0.860123
-0.860298
-0.869356
-0.86953
-0.878399
-0.878574
-0.887246
-0.88742
-0.895898
-0.896073
-0.904346
-0.90452
-0.912594
-0.912769
-0.920632
-0.920806
-0.928466
-0.928641
-0.936085
-0.936259
-0.943496
-0.943672
-0.950687
-0.950861
-0.95767
-0.957846
-0.964427
-0.964601
-0.970976
-0.971153
-0.977296
-0.977469
-0.983406
-0.983584
-0.989286
-0.989458
-0.994958
-0.995137
-1.0004
-1.00057
-1.00563
-1.00581
-1.01063
-1.0108
-1.01542
-1.01561
-1.01998
-1.02015
-1.02434
-1.02453
-1.02846
-1.02863
-1.0324
-1.03259
-1.03608
-1.03624
-1.0396
-1.03979
-1.04285
-1.043
-1.04595
-1.04616
-1.04878
-1.04893
-1.05148
-1.05169
-1.0539
-1.05403
-1.0562
-1.05643
-1.05822
-1.05832
-1.06013
-1.06039
-1.06177
-1.06185
-1.06332
-1.06362
-1.06459
-1.06462
-1.06579
-1.06614
-1.06671
-1.06668
-1.06757
-1.068
-1.06817
-1.06834
-1.06869
-1.06922
-1.06898
-1.06939
-1.06918
-1.06982
-1.06919
-1.06984
-1.06906
-1.06949
-1.06879
-1.06934
-1.06836
-1.06857
-1.06783
-1.06827
-1.0671
-1.06711
-1.06631
-1.06668
-1.06531
-1.06536
-1.06428
-1.0646
-1.06302
-1.06312
-1.06175
-1.06203
-1.06026
-1.06039
-1.05875
-1.05901
-1.05705
-1.0572
-1.05531
-1.05556
-1.0534
-1.05357
-1.05145
-1.05168
-1.04933
-1.04951
-1.04717
-1.0474
-1.04486
-1.04505
-1.04251
-1.04273
-1.04001
-1.04021
-1.03747
-1.03769
-1.0348
-1.035
-1.03208
-1.03229
-1.02924
-1.02944
-1.02635
-1.02656
-1.02335
-1.02356
-1.02029
-1.02051
-1.01713
-1.01734
-1.01391
-1.01412
-1.01059
-1.0108
-1.00719
-1.00741
-1.0037
-1.00391
-1.00013
-1.00035
-0.996453
-0.996669
-0.992697
-0.992916
-0.988843
-0.989061
-0.984911
-0.985131
-0.98089
-0.98111
-0.976793
-0.977015
-0.97261
-0.972833
-0.968349
-0.968573
-0.963999
-0.964224
-0.959566
-0.959793
-0.955041
-0.955269
-0.950431
-0.950661
-0.94573
-0.94596
-0.940941
-0.941173
-0.936058
-0.936291
-0.931084
-0.931318
-0.926017
-0.926253
-0.920864
-0.921101
-0.915625
-0.915864
-0.910305
-0.910545
-0.904902
-0.905144
-0.899417
-0.899661
-0.893851
-0.894097
-0.888203
-0.88845
-0.882472
-0.882721
-0.876654
-0.876904
-0.870749
-0.871001
-0.864754
-0.865007
-0.858675
-0.858931
-0.852508
-0.852765
-0.846262
-0.846521
-0.839932
-0.840193
-0.833535
-0.833798
-0.827066
-0.827331
-0.820542
-0.820809
-0.813948
-0.814216
-0.807294
-0.807565
-0.800552
-0.800824
-0.793737
-0.794011
-0.786816
-0.787092
-0.779809
-0.780088
-0.772689
-0.772969
-0.765496
-0.76578
-0.758202
-0.758487
-0.750861
-0.751151
-0.743432
-0.743723
-0.735969
-0.736266
-0.728403
-0.728701
-0.720797
-0.721102
-0.713074
-0.713379
-0.705324
-0.705639
-0.697452
-0.697765
-0.689566
-0.689891
-0.681546
-0.681865
-0.673522
-0.673857
-0.665344
-0.66567
-0.657175
-0.657522
-0.648834
-0.649166
-0.640535
-0.640894
-0.63206
-0.632395
-0.623666
-0.624037
-0.615091
-0.615427
-0.606651
-0.607033
-0.598023
-0.598358
-0.589597
-0.589987
-0.580964
-0.581293
-0.572606
-0.573003
-0.564007
-0.56433
-0.55576
-0.556169
-0.547229
-0.547543
-0.539141
-0.539565
-0.53069
-0.530993
-0.52276
-0.523202
-0.514374
-0.514662
-0.506645
-0.507111
-0.498383
-0.49865
-0.49096
-0.49146
-0.482946
-0.483183
-0.476006
-0.476545
-0.468371
-0.468574
-0.462039
-0.462619
-0.454807
-0.454964
-0.449107
-0.449756
-0.442289
-0.44237
-0.437275
-0.438052
-0.430991
-0.430939
-0.426757
-0.427756
-0.421167
-0.420891
-0.417767
-0.418724
-0.413044
-0.412414
-0.410482
-0.410714
-0.40684
-0.405716
-0.405116
-0.404533
-0.402728
-0.40098
-0.401837
-0.40035
-0.400966
-0.398445
-0.401149
-0.401112
-0.401803
-0.401771
-0.403068
-0.403033
-0.404912
-0.40489
-0.407271
-0.407242
-0.410152
-0.41014
-0.413517
-0.413495
-0.417364
-0.41736
-0.42163
-0.421617
-0.42634
-0.426341
-0.431415
-0.431408
-0.436881
-0.436886
-0.442655
-0.442651
-0.44876
-0.448767
-0.455111
-0.45511
-0.461746
-0.461753
-0.468614
-0.468614
-0.475765
-0.475772
-0.483139
-0.48314
-0.490761
-0.490768
-0.498539
-0.498541
-0.506475
-0.506483
-0.514496
-0.514499
-0.522614
-0.522622
-0.530782
-0.530786
-0.539022
-0.53903
-0.547298
-0.547303
-0.555659
-0.555667
-0.564059
-0.564065
-0.572514
-0.572522
-0.581003
-0.581009
-0.589522
-0.58953
-0.598053
-0.598059
-0.606585
-0.606593
-0.61511
-0.615117
-0.623603
-0.623612
-0.632061
-0.632069
-0.640476
-0.640486
-0.648824
-0.648834
-0.657118
-0.657129
-0.665326
-0.665337
-0.673463
-0.673475
-0.68152
-0.681532
-0.689508
-0.689521
-0.697416
-0.697429
-0.705264
-0.705278
-0.713031
-0.713045
-0.720731
-0.720746
-0.728352
-0.728368
-0.735902
-0.735918
-0.743375
-0.743391
-0.750795
-0.750812
-0.758144
-0.75816
-0.765421
-0.765438
-0.772626
-0.772644
-0.779736
-0.779754
-0.786752
-0.78677
-0.793662
-0.79368
-0.800481
-0.800499
-0.807215
-0.807234
-0.813881
-0.8139
-0.820466
-0.820485
-0.826995
-0.827014
-0.833458
-0.833477
-0.839859
-0.839878
-0.846179
-0.846199
-0.852424
-0.852444
-0.858597
-0.858616
-0.864673
-0.864693
-0.870671
-0.870691
-0.876568
-0.876588
-0.882383
-0.882403
-0.888118
-0.888138
-0.89376
-0.893781
-0.899326
-0.899347
-0.904811
-0.904832
-0.910218
-0.910239
-0.915539
-0.91556
-0.920779
-0.920801
-0.92593
-0.925951
-0.930993
-0.931014
-0.935967
-0.935988
-0.940846
-0.940868
-0.945634
-0.945655
-0.95034
-0.950361
-0.954943
-0.954965
-0.959466
-0.959487
-0.963905
-0.963926
-0.968253
-0.968274
-0.972507
-0.972528
-0.976694
-0.976716
-0.980789
-0.98081
-0.984808
-0.98483
-0.98874
-0.988761
-0.992602
-0.992624
-0.996356
-0.996377
-1.00003
-1.00005
-1.0036
-1.00362
-1.00709
-1.00712
-1.01048
-1.0105
-1.01381
-1.01383
-1.01703
-1.01705
-1.02019
-1.02021
-1.02325
-1.02326
-1.02625
-1.02627
-1.02914
-1.02915
-1.03197
-1.032
-1.0347
-1.03471
-1.03736
-1.03739
-1.0399
-1.03991
-1.0424
-1.04243
-1.04475
-1.04476
-1.04706
-1.0471
-1.04922
-1.04922
-1.05134
-1.05139
-1.05329
-1.05327
-1.0552
-1.05527
-1.05694
-1.05691
-1.05865
-1.05872
-1.06015
-1.0601
-1.06164
-1.06175
-1.06292
-1.06283
-1.06417
-1.06431
-1.0652
-1.06508
-1.06621
-1.0664
-1.06699
-1.06683
-1.06772
-1.06799
-1.06825
-1.06828
-1.06868
-1.06905
-1.06895
-1.0692
-1.06907
-1.06955
-1.06907
-1.06953
-1.06887
-1.06911
-1.06858
-1.06893
-1.06805
-1.06805
-1.06746
-1.06771
-1.0666
-1.06639
-1.06568
-1.06585
-1.06448
-1.06433
-1.06321
-1.06333
-1.06166
-1.06156
-1.06002
-1.0601
-1.05811
-1.05804
-1.05609
-1.05614
-1.05378
-1.05373
-1.05136
-1.0514
-1.04866
-1.04863
-1.04584
-1.04587
-1.04275
-1.04272
-1.03948
-1.0395
-1.03598
-1.03596
-1.03229
-1.0323
-1.02834
-1.02833
-1.02423
-1.02424
-1.01986
-1.01985
-1.01532
-1.01533
-1.0105
-1.0105
-1.00551
-1.00551
-1.00027
-1.00027
-0.994832
-0.994836
-0.989189
-0.989186
-0.983297
-0.9833
-0.97717
-0.977168
-0.970879
-0.970881
-0.964312
-0.964311
-0.957539
-0.957541
-0.950594
-0.950594
-0.943397
-0.943399
-0.935983
-0.935982
-0.928374
-0.928375
-0.920494
-0.920494
-0.912491
-0.912492
-0.904221
-0.904221
-0.895777
-0.895778
-0.887137
-0.887137
-0.878266
-0.878267
-0.869204
-0.869204
-0.860003
-0.860004
-0.850623
-0.850624
-0.840952
-0.840952
-0.831197
-0.831198
-0.82125
-0.821251
-0.811151
-0.811152
-0.800869
-0.80087
-0.790456
-0.790456
-0.77987
-0.77987
-0.769065
-0.769065
-0.758207
-0.758208
-0.747262
-0.747263
-0.736055
-0.736055
-0.724779
-0.72478
-0.713492
-0.713493
-0.702044
-0.702045
-0.690477
-0.690477
-0.678763
-0.678763
-0.66708
-0.667081
-0.65527
-0.655271
-0.643382
-0.643382
-0.631377
-0.631377
-0.619464
-0.619465
-0.607449
-0.60745
-0.595262
-0.595263
-0.583286
-0.583287
-0.571163
-0.571164
-0.558966
-0.558967
-0.546792
-0.546793
-0.534731
-0.534732
-0.522549
-0.52255
-0.510512
-0.510513
-0.498531
-0.498532
-0.486391
-0.486391
-0.47449
-0.474491
-0.462626
-0.462627
-0.450677
-0.450677
-0.438961
-0.438962
-0.427353
-0.427354
-0.415648
-0.415649
-0.404066
-0.404067
-0.392771
-0.392772
-0.381432
-0.381433
-0.370225
-0.370226
-0.359164
-0.359165
-0.348264
-0.348265
-0.337517
-0.337517
-0.326772
-0.326773
-0.316374
-0.316375
-0.305997
-0.305997
-0.295798
-0.295799
-0.285813
-0.285814
-0.275841
-0.275842
-0.266094
-0.266094
-0.256556
-0.256556
-0.247255
-0.247256
-0.238171
-0.238171
-0.229154
-0.229155
-0.220364
-0.220365
-0.211828
-0.211828
-0.203349
-0.20335
-0.195134
-0.195135
-0.187155
-0.187156
-0.179276
-0.179277
-0.171634
-0.171635
-0.164271
-0.164272
-0.156976
-0.156977
-0.14997
-0.149971
-0.143188
-0.143189
-0.136547
-0.136548
-0.130119
-0.13012
-0.123846
-0.123847
-0.117778
-0.117779
-0.112024
-0.112025
-0.106312
-0.106313
-0.100786
-0.100787
-0.0955698
-0.0955707
-0.0904145
-0.0904154
-0.0855499
-0.0855508
-0.0807549
-0.0807557
-0.0762449
-0.0762458
-0.0717973
-0.0717982
-0.0676428
-0.0676437
-0.063646
-0.0636469
-0.0597249
-0.0597257
-0.0560485
-0.0560494
-0.0524691
-0.05247
-0.0491081
-0.0491089
-0.0458543
-0.0458552
-0.0428005
-0.0428014
-0.039856
-0.0398569
-0.0370082
-0.0370091
-0.0343625
-0.0343634
-0.0318879
-0.0318888
-0.0295233
-0.0295241
-0.0272361
-0.027237
-0.0250663
-0.0250672
-0.0231109
-0.0231117
-0.0211955
-0.0211964
-0.0194154
-0.0194163
-0.0177359
-0.0177367
-0.0161888
-0.0161897
-0.0147249
-0.0147258
-0.0133417
-0.0133426
-0.0120779
-0.0120788
-0.0108988
-0.0108997
-0.00981738
-0.00981828
-0.00878096
-0.00878185
-0.00786846
-0.00786934
-0.00700016
-0.00700105
-0.006208
-0.0062089
-0.00548924
-0.00549013
-0.00483961
-0.00484051
-0.00425121
-0.00425211
-0.00370155
-0.00370245
-0.00320676
-0.00320766
-0.00277066
-0.00277156
-0.00237929
-0.00238019
-0.00202334
-0.00202424
-0.00172076
-0.00172165
-0.00144846
-0.00144936
-0.00120854
-0.00120944
-0.00100542
-0.00100631
-0.000828866
-0.000829766
-0.000673619
-0.000674516
-0.000541583
-0.000542475
-0.000433357
-0.000434253
-0.000342971
-0.000343872
-0.000266506
-0.000267404
-0.000204628
-0.000205522
-0.000156515
-0.000157412
-0.000118717
-0.000119617
-8.88175e-05
-8.9716e-05
-6.65551e-05
-6.74503e-05
-5.08172e-05
-5.17141e-05
-3.97839e-05
-4.06836e-05
-3.2197e-05
-3.3095e-05
-2.74682e-05
-2.83657e-05
-2.48139e-05
-2.57116e-05
-2.34475e-05
-2.43452e-05
-2.28212e-05
-2.37251e-05
-2.26048e-05
-2.35218e-05
-2.25539e-05
-2.34863e-05
-0.400966
-0.398445
-0.401837
-0.40035
-0.402727
-0.40098
-0.405117
-0.404534
-0.40684
-0.405717
-0.410481
-0.410716
-0.413045
-0.412415
-0.417765
-0.418721
-0.421165
-0.420889
-0.426757
-0.427754
-0.430991
-0.43094
-0.437274
-0.43805
-0.442289
-0.442369
-0.449107
-0.449756
-0.454808
-0.454964
-0.462038
-0.462617
-0.46837
-0.468571
-0.476004
-0.476543
-0.482943
-0.48318
-0.490961
-0.49146
-0.498383
-0.498648
-0.506644
-0.50711
-0.514373
-0.51466
-0.522756
-0.523197
-0.530686
-0.530989
-0.539142
-0.539565
-0.547225
-0.547539
-0.55576
-0.556169
-0.564005
-0.564328
-0.572601
-0.572998
-0.580964
-0.581293
-0.589596
-0.589986
-0.598027
-0.598361
-0.60665
-0.607031
-0.615095
-0.615431
-0.623663
-0.624034
-0.632057
-0.632391
-0.640533
-0.640893
-0.64883
-0.649162
-0.657175
-0.657522
-0.665342
-0.665668
-0.673521
-0.673856
-0.681544
-0.681864
-0.689567
-0.689891
-0.697449
-0.697761
-0.705324
-0.705639
-0.713071
-0.713376
-0.720794
-0.7211
-0.728399
-0.728697
-0.735967
-0.736264
-0.743427
-0.743719
-0.750862
-0.751153
-0.758201
-0.758487
-0.76549
-0.765775
-0.772687
-0.772969
-0.779807
-0.780086
-0.786816
-0.787093
-0.793734
-0.79401
-0.800548
-0.800821
-0.807289
-0.80756
-0.813951
-0.81422
-0.820541
-0.820809
-0.827068
-0.827333
-0.833535
-0.833798
-0.839934
-0.840196
-0.846258
-0.846518
-0.852501
-0.85276
-0.858676
-0.858933
-0.864752
-0.865007
-0.870752
-0.871006
-0.876649
-0.876901
-0.882466
-0.882716
-0.8882
-0.888449
-0.893845
-0.894092
-0.899411
-0.899656
-0.904897
-0.905141
-0.910304
-0.910546
-0.915627
-0.915868
-0.920867
-0.921107
-0.926019
-0.926257
-0.931082
-0.931319
-0.936057
-0.936293
-0.940937
-0.941171
-0.945725
-0.945959
-0.950432
-0.950664
-0.955036
-0.955267
-0.959559
-0.959788
-0.963999
-0.964227
-0.968347
-0.968574
-0.972602
-0.972828
-0.97679
-0.977015
-0.980885
-0.98111
-0.984905
-0.985128
-0.988836
-0.98906
-0.9927
-0.992921
-0.996453
-0.996675
-1.00012
-1.00034
-1.0037
-1.00392
-1.00719
-1.00741
-1.01058
-1.0108
-1.01391
-1.01412
-1.01713
-1.01735
-1.02029
-1.02051
-1.02334
-1.02356
-1.02635
-1.02656
-1.02923
-1.02945
-1.03208
-1.03229
-1.03479
-1.03501
-1.03747
-1.03768
-1.03999
-1.04022
-1.04251
-1.04271
-1.04484
-1.04507
-1.04718
-1.04738
-1.0493
-1.04953
-1.05147
-1.05165
-1.05336
-1.0536
-1.05535
-1.05552
-1.05699
-1.05725
-1.05881
-1.05896
-1.06019
-1.06047
-1.06183
-1.06195
-1.06292
-1.06323
-1.06439
-1.06448
-1.06516
-1.06551
-1.06648
-1.06652
-1.06691
-1.0673
-1.06807
-1.06803
-1.06836
-1.06856
-1.06913
-1.069
-1.06928
-1.06926
-1.06963
-1.06939
-1.06961
-1.06938
-1.06919
-1.06918
-1.06901
-1.06889
-1.06813
-1.06837
-1.06779
-1.06777
-1.06648
-1.06691
-1.06594
-1.06599
-1.06442
-1.06479
-1.06341
-1.06352
-1.06164
-1.06197
-1.06019
-1.06033
-1.05812
-1.05842
-1.05623
-1.0564
-1.05382
-1.05409
-1.05148
-1.05167
-1.04872
-1.04898
-1.04595
-1.04615
-1.04281
-1.04306
-1.03959
-1.0398
-1.03604
-1.03629
-1.03239
-1.0326
-1.02841
-1.02865
-1.02432
-1.02454
-1.01993
-1.02017
-1.01541
-1.01563
-1.01058
-1.01081
-1.0056
-1.00582
-1.00036
-1.00059
-0.99492
-0.995142
-0.989271
-0.989499
-0.983385
-0.983608
-0.977253
-0.97748
-0.970966
-0.971189
-0.964396
-0.964623
-0.957626
-0.957849
-0.950678
-0.950904
-0.943483
-0.943707
-0.936067
-0.936293
-0.92846
-0.928684
-0.920578
-0.920804
-0.912577
-0.912801
-0.904305
-0.904531
-0.895862
-0.896087
-0.887222
-0.887447
-0.878352
-0.878576
-0.869289
-0.869514
-0.860089
-0.860313
-0.850708
-0.850933
-0.841037
-0.841262
-0.831282
-0.831507
-0.821336
-0.82156
-0.811236
-0.811461
-0.800955
-0.801179
-0.790541
-0.790765
-0.779955
-0.780179
-0.76915
-0.769375
-0.758293
-0.758517
-0.747347
-0.747572
-0.73614
-0.736365
-0.724865
-0.725089
-0.713578
-0.713802
-0.70213
-0.702354
-0.690562
-0.690786
-0.678848
-0.679072
-0.667166
-0.66739
-0.655356
-0.65558
-0.643467
-0.643691
-0.631462
-0.631686
-0.61955
-0.619774
-0.607535
-0.607759
-0.595348
-0.595572
-0.583372
-0.583596
-0.571249
-0.571473
-0.559052
-0.559276
-0.546878
-0.547102
-0.534817
-0.535041
-0.522635
-0.522859
-0.510598
-0.510822
-0.498617
-0.498841
-0.486476
-0.4867
-0.474576
-0.4748
-0.462712
-0.462936
-0.450763
-0.450986
-0.439047
-0.439271
-0.427439
-0.427663
-0.415734
-0.415958
-0.404152
-0.404376
-0.392857
-0.393081
-0.381518
-0.381742
-0.370311
-0.370535
-0.35925
-0.359474
-0.34835
-0.348574
-0.337603
-0.337826
-0.326858
-0.327082
-0.31646
-0.316684
-0.306083
-0.306306
-0.295884
-0.296107
-0.285899
-0.286123
-0.275927
-0.27615
-0.26618
-0.266403
-0.256642
-0.256865
-0.247341
-0.247565
-0.238257
-0.23848
-0.22924
-0.229464
-0.22045
-0.220673
-0.211914
-0.212137
-0.203435
-0.203659
-0.19522
-0.195444
-0.187241
-0.187464
-0.179362
-0.179586
-0.171721
-0.171944
-0.164357
-0.16458
-0.157063
-0.157286
-0.150056
-0.15028
-0.143275
-0.143498
-0.136633
-0.136856
-0.130205
-0.130429
-0.123932
-0.124155
-0.117864
-0.118088
-0.11211
-0.112333
-0.106399
-0.106622
-0.100872
-0.101096
-0.095656
-0.0958793
-0.0905007
-0.090724
-0.0856361
-0.0858594
-0.080841
-0.0810643
-0.0763311
-0.0765544
-0.0718835
-0.0721068
-0.067729
-0.0679523
-0.0637322
-0.0639555
-0.0598111
-0.0600343
-0.0561347
-0.056358
-0.0525554
-0.0527786
-0.0491943
-0.0494175
-0.0459405
-0.0461638
-0.0428867
-0.04311
-0.0399422
-0.0401655
-0.0370944
-0.0373177
-0.0344487
-0.0346719
-0.0319741
-0.0321973
-0.0296095
-0.0298327
-0.0273223
-0.0275456
-0.0251525
-0.0253757
-0.0231971
-0.0234203
-0.0212817
-0.0215049
-0.0195016
-0.0197248
-0.0178221
-0.0180453
-0.016275
-0.0164982
-0.0148112
-0.0150344
-0.013428
-0.0136511
-0.0121641
-0.0123873
-0.010985
-0.0112082
-0.00990363
-0.0101268
-0.00886721
-0.0090904
-0.0079547
-0.0081779
-0.00708641
-0.00730961
-0.00629426
-0.00651744
-0.00557549
-0.00579868
-0.00492587
-0.00514905
-0.00433747
-0.00456064
-0.00378781
-0.00401099
-0.00329302
-0.00351621
-0.00285692
-0.0030801
-0.00246555
-0.00268872
-0.0021096
-0.00233277
-0.00180702
-0.00203019
-0.00153472
-0.00175789
-0.0012948
-0.00151798
-0.00109168
-0.00131485
-0.000915131
-0.0011383
-0.000759881
-0.000983053
-0.00062784
-0.000851018
-0.000519617
-0.000742791
-0.000429237
-0.000652405
-0.000352769
-0.00057594
-0.000290887
-0.000514062
-0.000242777
-0.000465949
-0.000204983
-0.00042815
-0.000175081
-0.00039825
-0.000152816
-0.000375988
-0.00013708
-0.00036025
-0.000126049
-0.000349216
-0.00011846
-0.000341629
-0.000113731
-0.000336899
-0.000111077
-0.000334244
-0.00010971
-0.000332875
-0.00010909
-0.000332254
-0.000108887
-0.000332052
-0.000108852
-0.000332019
)
;

boundaryField
{
    walls
    {
        type            zeroGradient;
    }
    inlet
    {
        type            cyclic;
    }
    outlet
    {
        type            cyclic;
    }
    sides
    {
        type            empty;
    }
}


// ************************************************************************* //
