/*--------------------------------*- C++ -*----------------------------------*\
| =========                 |                                                 |
| \\      /  F ield         | OpenFOAM: The Open Source CFD Toolbox           |
|  \\    /   O peration     | Version:  2012                                  |
|   \\  /    A nd           | Website:  www.openfoam.com                      |
|    \\/     M anipulation  |                                                 |
\*---------------------------------------------------------------------------*/
FoamFile
{
    version     2.0;
    format      ascii;
    class       volVectorField;
    location    "11600";
    object      U;
}
// * * * * * * * * * * * * * * * * * * * * * * * * * * * * * * * * * * * * * //

dimensions      [0 1 -1 0 0 0 0];


internalField   nonuniform List<vector> 
2560
(
(0.0626926 -2.18477e-10 6.73091e-08)
(0.0626926 9.0958e-09 1.76838e-07)
(0.188787 1.60046e-08 1.03053e-07)
(0.188787 2.52107e-08 2.70631e-07)
(0.316504 3.31006e-08 1.01238e-07)
(0.316504 3.13781e-08 2.6538e-07)
(0.445853 2.04208e-08 8.65734e-08)
(0.445853 1.80615e-08 2.25699e-07)
(0.576842 -3.65224e-09 6.09352e-08)
(0.576842 -4.55614e-09 1.56942e-07)
(0.709473 -1.50379e-08 3.97313e-08)
(0.709473 -1.54385e-08 1.00034e-07)
(0.843754 -1.27666e-08 2.7513e-08)
(0.843754 -1.2839e-08 6.67646e-08)
(0.979699 -9.09094e-09 2.11929e-08)
(0.979699 -8.86664e-09 4.87888e-08)
(1.11733 -7.70277e-09 1.8078e-08)
(1.11733 -7.37261e-09 3.88973e-08)
(1.25669 -5.80479e-09 1.67807e-08)
(1.25669 -5.43945e-09 3.33684e-08)
(1.39782 -5.30084e-09 1.66428e-08)
(1.39782 -4.87269e-09 3.04114e-08)
(1.54077 -4.69001e-09 1.73519e-08)
(1.54077 -4.28312e-09 2.91407e-08)
(1.6856 -4.18259e-09 1.87587e-08)
(1.6856 -3.74211e-09 2.90978e-08)
(1.83238 -4.03387e-09 2.08002e-08)
(1.83238 -3.60419e-09 3.00418e-08)
(1.98118 -3.74848e-09 2.06231e-08)
(1.98118 -3.29302e-09 3.18487e-08)
(2.13209 -3.82041e-09 1.89574e-08)
(2.13209 -3.36791e-09 3.44626e-08)
(2.28518 -3.52546e-09 1.76104e-08)
(2.28518 -3.04546e-09 3.32762e-08)
(2.44054 -3.47497e-09 1.65056e-08)
(2.44054 -2.98884e-09 3.11828e-08)
(2.59825 -3.68869e-09 1.74165e-08)
(2.59825 -3.17552e-09 2.9445e-08)
(2.75841 -3.56766e-09 1.93154e-08)
(2.75841 -3.04644e-09 2.79881e-08)
(2.9211 -3.34086e-09 2.1381e-08)
(2.9211 -2.79185e-09 2.67576e-08)
(3.0864 -3.54937e-09 2.3624e-08)
(3.0864 -2.98566e-09 2.57117e-08)
(3.25439 -3.98404e-09 2.60445e-08)
(3.25439 -3.39618e-09 2.60476e-08)
(3.42514 -3.33059e-09 2.8658e-08)
(3.42514 -2.72777e-09 2.86608e-08)
(3.59871 -3.60697e-09 3.14831e-08)
(3.59871 -2.98157e-09 3.14862e-08)
(3.77516 -3.81204e-09 3.45261e-08)
(3.77516 -3.16796e-09 3.45289e-08)
(3.95453 -4.27756e-09 3.77897e-08)
(3.95453 -3.61609e-09 3.77928e-08)
(4.13684 -3.34572e-09 4.12975e-08)
(4.13684 -2.66659e-09 4.13003e-08)
(4.3221 -4.08375e-09 4.50694e-08)
(4.3221 -3.38932e-09 4.50724e-08)
(4.51032 -3.97186e-09 4.91124e-08)
(4.51032 -3.25895e-09 4.91152e-08)
(4.70147 -4.68551e-09 5.34342e-08)
(4.70147 -3.96008e-09 5.34372e-08)
(4.89551 -3.57895e-09 5.80615e-08)
(4.89551 -2.83914e-09 5.80642e-08)
(5.09236 -4.4713e-09 6.30193e-08)
(5.09236 -3.72092e-09 6.30222e-08)
(5.29195 -4.52069e-09 6.83128e-08)
(5.29195 -3.75563e-09 6.83156e-08)
(5.49416 -4.80403e-09 7.39589e-08)
(5.49416 -4.03349e-09 7.39618e-08)
(5.69885 -4.06574e-09 7.99909e-08)
(5.69885 -3.28569e-09 7.99936e-08)
(5.90586 -4.8275e-09 8.64351e-08)
(5.90586 -4.04581e-09 8.64379e-08)
(6.11499 -5.04183e-09 9.33004e-08)
(6.11499 -4.25178e-09 9.3303e-08)
(6.32602 -5.15569e-09 1.00609e-07)
(6.32602 -4.37063e-09 1.00612e-07)
(6.53869 -4.63879e-09 1.084e-07)
(6.53869 -3.85187e-09 1.08402e-07)
(6.75274 -4.98568e-09 1.16709e-07)
(6.75274 -4.20894e-09 1.16712e-07)
(6.96784 -5.59022e-09 1.25552e-07)
(6.96784 -4.81462e-09 1.25555e-07)
(7.18365 -5.76171e-09 1.34948e-07)
(7.18365 -5.00606e-09 1.34951e-07)
(7.39981 -4.57113e-09 1.44956e-07)
(7.39981 -3.8242e-09 1.44958e-07)
(7.61591 -6.56752e-09 1.55598e-07)
(7.61591 -5.84845e-09 1.556e-07)
(7.83153 -4.60108e-09 1.66914e-07)
(7.83153 -3.8994e-09 1.66916e-07)
(8.0462 -7.68837e-09 1.78923e-07)
(8.0462 -7.02158e-09 1.78925e-07)
(8.25944 -3.76091e-09 1.91686e-07)
(8.25944 -3.12191e-09 1.91688e-07)
(8.47074 -6.35685e-09 2.05281e-07)
(8.47074 -5.76347e-09 2.05283e-07)
(8.67956 -8.63537e-09 2.19643e-07)
(8.67956 -8.07458e-09 2.19645e-07)
(8.88536 -6.9513e-09 2.34798e-07)
(8.88536 -6.45316e-09 2.348e-07)
(9.08755 2.76424e-09 2.51067e-07)
(9.08755 3.2134e-09 2.51069e-07)
(9.28555 -2.22309e-08 2.68139e-07)
(9.28555 -2.18403e-08 2.68141e-07)
(9.47874 7.93478e-09 2.8617e-07)
(9.47874 8.25514e-09 2.86171e-07)
(9.66651 -1.55327e-08 3.05383e-07)
(9.66651 -1.52783e-08 3.05384e-07)
(9.84823 -6.30379e-09 3.25456e-07)
(9.84823 -6.12839e-09 3.25458e-07)
(10.0233 -1.32196e-09 3.46789e-07)
(10.0233 -1.22619e-09 3.4679e-07)
(10.191 -1.84109e-08 3.69109e-07)
(10.191 -1.8399e-08 3.6911e-07)
(10.3508 1.91424e-09 3.92514e-07)
(10.3508 1.83244e-09 3.92515e-07)
(10.5021 -1.50969e-08 4.17119e-07)
(10.5021 -1.52735e-08 4.1712e-07)
(10.6443 -1.53172e-09 4.4284e-07)
(10.6443 -1.7996e-09 4.42841e-07)
(10.7767 -1.32635e-08 4.69734e-07)
(10.7767 -1.36357e-08 4.69734e-07)
(10.8989 -1.47113e-08 4.97415e-07)
(10.8989 -1.5191e-08 4.97415e-07)
(11.0104 3.41858e-09 5.26321e-07)
(11.0104 2.85243e-09 5.26321e-07)
(11.1106 -1.86431e-08 5.56328e-07)
(11.1106 -1.93194e-08 5.56329e-07)
(11.1991 -1.45514e-08 5.86857e-07)
(11.1991 -1.53349e-08 5.86858e-07)
(11.2757 2.59204e-09 6.18471e-07)
(11.2757 1.7224e-09 6.18471e-07)
(11.3398 -3.40658e-08 6.50539e-07)
(11.3398 -3.50297e-08 6.50539e-07)
(11.3914 2.1909e-08 6.83564e-07)
(11.3914 2.08471e-08 6.83564e-07)
(11.4303 -5.83112e-08 7.16767e-07)
(11.4303 -5.94377e-08 7.16767e-07)
(11.4563 3.5062e-08 7.5045e-07)
(11.4563 3.38416e-08 7.5045e-07)
(11.4694 -5.97781e-08 7.84565e-07)
(11.4694 -6.10406e-08 7.84565e-07)
(11.4697 2.47959e-08 8.187e-07)
(11.4697 2.34567e-08 8.18701e-07)
(11.4573 -4.8289e-08 8.53247e-07)
(11.4573 -4.96574e-08 8.53247e-07)
(11.4324 1.27114e-08 8.87777e-07)
(11.4324 1.12985e-08 8.87778e-07)
(11.3954 -4.0468e-08 9.22603e-07)
(11.3954 -4.18866e-08 9.22604e-07)
(11.3466 -2.85009e-09 9.5721e-07)
(11.3466 -4.27568e-09 9.57211e-07)
(11.2865 -2.14519e-08 9.92333e-07)
(11.2865 -2.28744e-08 9.92334e-07)
(11.2155 -2.38804e-08 1.02731e-06)
(11.2155 -2.52667e-08 1.02732e-06)
(11.1343 -2.71051e-09 1.06291e-06)
(11.1343 -4.06193e-09 1.06291e-06)
(11.0434 -4.59747e-08 1.09846e-06)
(11.0434 -4.7258e-08 1.09846e-06)
(10.9434 1.27511e-08 1.1346e-06)
(10.9434 1.15243e-08 1.1346e-06)
(10.8352 -5.19846e-08 1.17127e-06)
(10.8352 -5.31015e-08 1.17127e-06)
(10.7193 4.38461e-09 1.20826e-06)
(10.7193 3.34915e-09 1.20826e-06)
(10.5966 -4.02338e-08 1.24616e-06)
(10.5966 -4.11263e-08 1.24616e-06)
(10.4676 -1.11892e-09 1.28486e-06)
(10.4676 -1.89669e-09 1.28486e-06)
(10.3331 -4.43767e-08 1.32435e-06)
(10.3331 -4.49845e-08 1.32435e-06)
(10.1939 8.95418e-10 1.3648e-06)
(10.1939 4.24839e-10 1.3648e-06)
(10.0505 -4.88508e-08 1.40615e-06)
(10.0505 -4.91244e-08 1.40615e-06)
(9.90368 -1.18458e-09 1.44839e-06)
(9.90368 -1.29048e-09 1.4484e-06)
(9.754 -3.74063e-08 1.49213e-06)
(9.754 -3.73083e-08 1.49213e-06)
(9.60205 -1.51574e-08 1.53684e-06)
(9.60205 -1.48696e-08 1.53684e-06)
(9.44839 -3.11495e-08 1.58289e-06)
(9.44839 -3.06391e-08 1.58289e-06)
(9.29352 -2.94346e-08 1.62971e-06)
(9.29352 -2.87302e-08 1.62972e-06)
(9.13792 -7.06374e-09 1.67843e-06)
(9.13792 -6.1262e-09 1.67844e-06)
(8.98201 -4.98535e-08 1.72823e-06)
(8.98201 -4.87172e-08 1.72824e-06)
(8.82617 -1.25721e-08 1.77888e-06)
(8.82617 -1.11986e-08 1.77888e-06)
(8.67076 -2.78279e-08 1.83143e-06)
(8.67076 -2.62614e-08 1.83144e-06)
(8.5161 -3.81751e-08 1.88476e-06)
(8.5161 -3.63695e-08 1.88477e-06)
(8.36245 -8.96236e-09 1.93976e-06)
(8.36245 -7.0006e-09 1.93976e-06)
(8.21006 -4.56052e-08 1.99614e-06)
(8.21006 -4.33896e-08 1.99614e-06)
(8.05913 -2.51049e-08 2.0531e-06)
(8.05913 -2.27633e-08 2.0531e-06)
(7.90986 -2.39944e-08 2.11171e-06)
(7.90986 -2.14038e-08 2.11171e-06)
(7.76239 -3.37761e-08 2.17157e-06)
(7.76239 -3.11067e-08 2.17157e-06)
(7.61684 -3.14068e-08 2.23228e-06)
(7.61684 -2.84871e-08 2.23229e-06)
(7.47334 -2.25892e-08 2.29442e-06)
(7.47334 -1.96515e-08 2.29443e-06)
(7.33196 -4.21987e-08 2.35742e-06)
(7.33196 -3.90002e-08 2.35743e-06)
(7.19278 -1.92746e-08 2.42141e-06)
(7.19278 -1.61546e-08 2.42141e-06)
(7.05584 -3.6157e-08 2.48671e-06)
(7.05584 -3.27313e-08 2.48671e-06)
(6.92118 -3.82302e-08 2.55223e-06)
(6.92118 -3.50069e-08 2.55223e-06)
(6.78882 -1.5957e-08 2.61902e-06)
(6.78882 -1.23769e-08 2.61903e-06)
(6.65879 -4.29614e-08 2.68682e-06)
(6.65879 -3.97334e-08 2.68682e-06)
(6.53109 -3.07151e-08 2.75469e-06)
(6.53109 -2.70181e-08 2.7547e-06)
(6.40571 -2.02097e-08 2.82389e-06)
(6.40571 -1.70725e-08 2.82389e-06)
(6.28265 -5.58762e-08 2.89288e-06)
(6.28265 -5.21116e-08 2.89289e-06)
(6.16188 4.68491e-09 2.96303e-06)
(6.16188 7.59482e-09 2.96302e-06)
(6.04339 -7.34422e-08 3.03325e-06)
(6.04339 -6.96292e-08 3.03325e-06)
(5.92715 1.58685e-08 3.10407e-06)
(5.92715 1.84416e-08 3.10407e-06)
(5.81313 -8.72254e-08 3.17461e-06)
(5.81313 -8.33648e-08 3.17461e-06)
(5.70131 2.75214e-08 3.24538e-06)
(5.70131 2.96307e-08 3.24538e-06)
(5.59163 -8.2048e-08 3.31674e-06)
(5.59163 -7.80963e-08 3.31674e-06)
(5.48408 9.81843e-09 3.38732e-06)
(5.48408 1.13219e-08 3.38732e-06)
(5.37861 -5.74584e-08 3.45871e-06)
(5.37861 -5.33396e-08 3.45871e-06)
(5.27518 -1.96142e-08 3.52876e-06)
(5.27518 -1.88823e-08 3.52875e-06)
(5.17376 -2.96136e-08 3.59925e-06)
(5.17376 -2.51622e-08 3.59925e-06)
(5.0743 -3.35237e-08 3.6691e-06)
(5.0743 -3.3819e-08 3.66909e-06)
(4.97677 -3.33122e-08 3.73792e-06)
(4.97677 -2.82486e-08 3.73792e-06)
(4.88113 -1.28386e-08 3.80703e-06)
(4.88113 -1.4464e-08 3.80701e-06)
(4.78736 -5.96389e-08 3.87446e-06)
(4.78736 -5.35518e-08 3.87446e-06)
(4.69541 3.35047e-09 3.94116e-06)
(4.69541 -2.98137e-11 3.94113e-06)
(4.60527 -6.08951e-08 4.00698e-06)
(4.60527 -5.3226e-08 4.00699e-06)
(4.5169 5.86203e-09 4.07194e-06)
(4.5169 2.08003e-10 4.07191e-06)
(4.43027 -7.69742e-08 4.13474e-06)
(4.43027 -6.6872e-08 4.13476e-06)
(4.34537 2.30385e-08 4.19646e-06)
(4.34537 1.42836e-08 4.19641e-06)
(4.26218 -8.55376e-08 4.25642e-06)
(4.26218 -7.18522e-08 4.25645e-06)
(4.18067 3.21396e-08 4.31511e-06)
(4.18067 1.91161e-08 4.31504e-06)
(4.10082 -1.04321e-07 4.37103e-06)
(4.10082 -8.542e-08 4.37109e-06)
(4.02261 5.36363e-08 4.42566e-06)
(4.02261 3.46226e-08 4.42557e-06)
(3.94603 -1.31257e-07 4.47683e-06)
(3.94603 -1.04826e-07 4.47691e-06)
(3.87105 8.36931e-08 4.52674e-06)
(3.87105 5.6273e-08 4.52662e-06)
(3.79766 -1.62879e-07 4.5729e-06)
(3.79766 -1.25598e-07 4.57302e-06)
(3.72584 1.18533e-07 4.61791e-06)
(3.72584 7.9219e-08 4.61774e-06)
(3.65559 -2.068e-07 4.65828e-06)
(3.65559 -1.54043e-07 4.65846e-06)
(3.58689 1.63533e-07 4.69749e-06)
(3.58689 1.07174e-07 4.69724e-06)
(3.51973 -2.63495e-07 4.73091e-06)
(3.51973 -1.88711e-07 4.73119e-06)
(3.45411 2.36707e-07 4.76465e-06)
(3.45411 1.55901e-07 4.76429e-06)
(3.39002 -3.61331e-07 4.79035e-06)
(3.39002 -2.55183e-07 4.79077e-06)
(3.32746 3.49274e-07 4.81776e-06)
(3.32746 2.33266e-07 4.81723e-06)
(3.26643 -4.91995e-07 4.83554e-06)
(3.26643 -3.41107e-07 4.83616e-06)
(3.20693 4.90805e-07 4.85621e-06)
(3.20694 3.24254e-07 4.85544e-06)
(3.14896 -6.64311e-07 4.86445e-06)
(3.14896 -4.49533e-07 4.86537e-06)
(3.09252 6.85038e-07 4.87795e-06)
(3.09252 4.45541e-07 4.87681e-06)
(3.0376 -8.98843e-07 4.87526e-06)
(3.0376 -5.92726e-07 4.87662e-06)
(2.98421 9.53564e-07 4.88158e-06)
(2.98421 6.08846e-07 4.87989e-06)
(2.93234 -1.22427e-06 4.86624e-06)
(2.93234 -7.87363e-07 4.86827e-06)
(2.882 1.3271e-06 4.86529e-06)
(2.882 8.30001e-07 4.86279e-06)
(2.83318 -1.66946e-06 4.83553e-06)
(2.83318 -1.04502e-06 4.83853e-06)
(2.78585 1.83237e-06 4.82695e-06)
(2.78585 1.11456e-06 4.82323e-06)
(2.74001 -2.25844e-06 4.78087e-06)
(2.74001 -1.36437e-06 4.78534e-06)
(2.69561 2.50763e-06 4.76584e-06)
(2.69561 1.46957e-06 4.7603e-06)
(2.65262 -3.06318e-06 4.69918e-06)
(2.65262 -1.78016e-06 4.70585e-06)
(2.61097 3.45544e-06 4.68017e-06)
(2.61097 1.95279e-06 4.6719e-06)
(2.5706 -4.19591e-06 4.5887e-06)
(2.5706 -2.34938e-06 4.59869e-06)
(2.53142 4.77783e-06 4.56757e-06)
(2.53142 2.60075e-06 4.5552e-06)
(2.49335 -5.75795e-06 4.4463e-06)
(2.49335 -3.09293e-06 4.4613e-06)
(2.4563 6.60949e-06 4.42867e-06)
(2.4563 3.45074e-06 4.41014e-06)
(2.42018 -7.95553e-06 4.26721e-06)
(2.42018 -4.09899e-06 4.28977e-06)
(2.38491 9.20158e-06 4.25924e-06)
(2.38491 4.61043e-06 4.2314e-06)
(2.35042 -1.10104e-05 4.0506e-06)
(2.35042 -5.41646e-06 4.08459e-06)
(2.31666 1.27769e-05 4.06264e-06)
(2.31666 6.08804e-06 4.02065e-06)
(2.28361 -1.52446e-05 3.78948e-06)
(2.28361 -7.11063e-06 3.84083e-06)
(2.25128 1.77717e-05 3.83728e-06)
(2.25128 8.00699e-06 3.7738e-06)
(2.21966 -2.1137e-05 3.48136e-06)
(2.21966 -9.27431e-06 3.55919e-06)
(2.18881 2.46919e-05 3.5865e-06)
(2.18881 1.04104e-05 3.49037e-06)
(2.15875 -2.93123e-05 3.11858e-06)
(2.15875 -1.19565e-05 3.23699e-06)
(2.12953 3.43246e-05 3.31845e-06)
(2.12953 1.33941e-05 3.1725e-06)
(2.10117 -4.07571e-05 2.6961e-06)
(2.10117 -1.52868e-05 2.87671e-06)
(2.07369 4.7802e-05 3.04096e-06)
(2.07369 1.70518e-05 2.81864e-06)
(2.0471 -5.67947e-05 2.20358e-06)
(2.0471 -1.93095e-05 2.47963e-06)
(2.02138 6.67176e-05 2.76959e-06)
(2.02138 2.1403e-05 2.42954e-06)
(1.99654 -7.93493e-05 1.62276e-06)
(1.99654 -2.40425e-05 2.0454e-06)
(1.97252 9.34698e-05 2.5242e-06)
(1.97252 2.64568e-05 2.00147e-06)
(1.94929 -0.000111216 9.30954e-07)
(1.94929 -2.94044e-05 1.57984e-06)
(1.92678 0.00013143 2.33118e-06)
(1.92678 3.19803e-05 1.52498e-06)
(1.90493 -0.000156288 6.2849e-07)
(1.90493 -3.49678e-05 1.08885e-06)
(1.88368 0.000172001 1.65177e-06)
(1.88368 3.7364e-05 9.90105e-07)
(1.86298 -0.000192445 3.49877e-07)
(1.86298 -4.00572e-05 1.18575e-06)
(1.8428 0.00020266 8.56115e-07)
(1.8428 4.18283e-05 9.94803e-07)
(1.82311 -0.000216841 5.10992e-08)
(1.82311 -4.39429e-05 1.50254e-06)
(1.80391 0.000220478 0)
(1.80391 4.4609e-05 1.58299e-06)
(1.78523 -0.000212364 7.77191e-07)
(1.78523 -4.60048e-05 1.13631e-06)
(1.76711 0.000209368 3.36457e-07)
(1.76711 4.53081e-05 1.43049e-06)
(1.74958 -0.000194808 1.80836e-06)
(1.74958 -4.59361e-05 1.02663e-06)
(1.73267 0.000181869 7.20656e-07)
(1.73267 4.40015e-05 1.27318e-06)
(1.71637 -0.000162236 2.89774e-06)
(1.71637 -4.38944e-05 1.82089e-06)
(1.70069 0.000142453 1.1025e-06)
(1.70069 4.1145e-05 2.01054e-06)
(1.68563 -0.000125011 3.48568e-06)
(1.68563 -4.04189e-05 2.65156e-06)
(1.67116 0.000109802 2.08536e-06)
(1.67116 3.72363e-05 2.81357e-06)
(1.65726 -9.58901e-05 4.13271e-06)
(1.65726 -3.62359e-05 3.51651e-06)
(1.64386 8.43093e-05 3.14814e-06)
(1.64386 3.28659e-05 3.6822e-06)
(1.63084 -7.38418e-05 4.87361e-06)
(1.63084 -3.19155e-05 4.41875e-06)
(1.61806 6.48407e-05 4.22131e-06)
(1.61806 2.8495e-05 4.61231e-06)
(1.60537 -5.6979e-05 5.70472e-06)
(1.60537 -2.77177e-05 5.37115e-06)
(1.59257 4.99481e-05 5.31809e-06)
(1.59257 2.43199e-05 5.60338e-06)
(1.5795 -4.40305e-05 6.62108e-06)
(1.5795 -2.37826e-05 6.37848e-06)
(1.56599 3.85614e-05 6.45201e-06)
(1.56599 2.04988e-05 6.65931e-06)
(1.5519 -3.41227e-05 7.61554e-06)
(1.5519 -2.02431e-05 7.44019e-06)
(1.53718 2.9823e-05 7.61919e-06)
(1.53718 1.70784e-05 7.76906e-06)
(1.52181 -2.65185e-05 8.67756e-06)
(1.52181 -1.71116e-05 8.55147e-06)
(1.50586 2.30607e-05 8.81767e-06)
(1.50586 1.40347e-05 8.92547e-06)
(1.48936 -2.06494e-05 9.80052e-06)
(1.48936 -1.437e-05 9.71032e-06)
(1.47234 1.78358e-05 1.00557e-05)
(1.47234 1.13946e-05 1.01329e-05)
(1.45478 -1.61418e-05 1.09809e-05)
(1.45478 -1.2042e-05 1.09167e-05)
(1.43661 1.3814e-05 1.13308e-05)
(1.43661 9.15839e-06 1.1386e-05)
(1.41777 -1.2692e-05 1.22106e-05)
(1.41777 -1.01072e-05 1.21652e-05)
(1.39818 1.06757e-05 1.26344e-05)
(1.39818 7.24604e-06 1.26738e-05)
(1.37775 -1.00572e-05 1.3487e-05)
(1.37775 -8.52448e-06 1.34551e-05)
(1.35643 8.25617e-06 1.3989e-05)
(1.35643 5.66204e-06 1.40171e-05)
(1.33415 -8.05148e-06 1.48408e-05)
(1.33415 -7.25011e-06 1.48185e-05)
(1.31086 6.40263e-06 1.54271e-05)
(1.31086 4.37295e-06 1.54471e-05)
(1.28662 -6.52823e-06 1.62984e-05)
(1.28662 -6.23776e-06 1.6283e-05)
(1.26152 4.92636e-06 1.69682e-05)
(1.26152 3.27316e-06 1.69826e-05)
(1.2358 -5.32729e-06 1.78847e-05)
(1.2358 -5.39665e-06 1.78741e-05)
(1.20971 3.75238e-06 1.86494e-05)
(1.2097 2.34461e-06 1.86597e-05)
(1.1835 -4.32537e-06 1.96253e-05)
(1.1835 -4.65226e-06 1.96181e-05)
(1.15737 2.79544e-06 2.04677e-05)
(1.15737 1.54288e-06 2.04753e-05)
(1.1314 -3.53805e-06 2.14745e-05)
(1.1314 -4.05456e-06 2.14697e-05)
(1.10554 2.01229e-06 2.23607e-05)
(1.10554 8.51949e-07 2.23663e-05)
(1.0796 -3.05388e-06 2.33705e-05)
(1.0796 -3.71505e-06 2.33674e-05)
(1.05339 1.43977e-06 2.43105e-05)
(1.05339 3.26933e-07 2.43148e-05)
(1.02681 -2.76199e-06 2.53612e-05)
(1.02681 -3.53888e-06 2.53593e-05)
(0.999888 1.01602e-06 2.63895e-05)
(0.999888 -8.16919e-08 2.63928e-05)
(0.972761 -2.5049e-06 2.75299e-05)
(0.972761 -3.37969e-06 2.7529e-05)
(0.945589 6.16081e-07 2.86589e-05)
(0.945589 -4.90722e-07 2.86617e-05)
(0.918519 -2.24339e-06 2.99023e-05)
(0.918519 -3.20613e-06 2.9902e-05)
(0.891678 2.35523e-07 3.11324e-05)
(0.891677 -8.99297e-07 3.11347e-05)
(0.865222 -2.06438e-06 3.2466e-05)
(0.865222 -3.11075e-06 3.24661e-05)
(0.839354 -1.43123e-07 3.38008e-05)
(0.839354 -1.32158e-06 3.38029e-05)
(0.814307 -1.87421e-06 3.52519e-05)
(0.814307 -3.00415e-06 3.52525e-05)
(0.79027 -4.03662e-07 3.67106e-05)
(0.79027 -1.63943e-06 3.67125e-05)
(0.767268 -1.77636e-06 3.82452e-05)
(0.767268 -2.99301e-06 3.82461e-05)
(0.745139 -6.19157e-07 3.97757e-05)
(0.745138 -1.92505e-06 3.97775e-05)
(0.723544 -1.79463e-06 4.13502e-05)
(0.723544 -3.10366e-06 4.13513e-05)
(0.702028 -8.81388e-07 4.29301e-05)
(0.702028 -2.27e-06 4.2932e-05)
(0.680131 -1.79969e-06 4.45833e-05)
(0.680131 -3.20906e-06 4.45846e-05)
(0.657472 -1.05959e-06 4.62683e-05)
(0.657471 -2.54377e-06 4.62702e-05)
(0.633705 -1.87344e-06 4.80216e-05)
(0.633705 -3.39312e-06 4.80231e-05)
(0.608571 -1.26612e-06 4.983e-05)
(0.608571 -2.85943e-06 4.9832e-05)
(0.582116 -1.93871e-06 5.17441e-05)
(0.582116 -3.58067e-06 5.17458e-05)
(0.554811 -1.46655e-06 5.37484e-05)
(0.554811 -3.18361e-06 5.37505e-05)
(0.527482 -1.91602e-06 5.58889e-05)
(0.527481 -3.69433e-06 5.58907e-05)
(0.501051 -1.6382e-06 5.81054e-05)
(0.50105 -3.49506e-06 5.81075e-05)
(0.476315 -2.02594e-06 6.04182e-05)
(0.476314 -3.95687e-06 6.04202e-05)
(0.453953 -1.78422e-06 6.28119e-05)
(0.453953 -3.79866e-06 6.28142e-05)
(0.434419 -2.07598e-06 6.5285e-05)
(0.434418 -4.17825e-06 6.52871e-05)
(0.41759 -1.91596e-06 6.77851e-05)
(0.41759 -4.10767e-06 6.77876e-05)
(0.402636 -2.21036e-06 7.02959e-05)
(0.402636 -4.50522e-06 7.02982e-05)
(0.388402 -2.12263e-06 7.28007e-05)
(0.388402 -4.51348e-06 7.28034e-05)
(0.374056 -2.52583e-06 7.53192e-05)
(0.374055 -5.03728e-06 7.53217e-05)
(0.359641 -2.29987e-06 7.79255e-05)
(0.359641 -4.914e-06 7.79285e-05)
(0.345965 -2.93294e-06 8.06284e-05)
(0.345964 -5.68825e-06 8.06311e-05)
(0.334077 -2.24771e-06 8.35467e-05)
(0.334076 -5.11149e-06 8.35501e-05)
(0.324781 -3.26113e-06 8.65704e-05)
(0.32478 -6.29109e-06 8.65733e-05)
(0.318502 -2.30595e-06 8.97681e-05)
(0.318501 -5.44814e-06 8.9772e-05)
(0.315425 -3.27863e-06 9.30788e-05)
(0.315425 -6.61799e-06 9.3082e-05)
(0.315273 -2.2983e-06 9.64045e-05)
(0.315273 -5.75011e-06 9.64092e-05)
(0.317314 -3.49516e-06 9.96352e-05)
(0.317314 -7.18328e-06 9.96387e-05)
(0.32075 -2.34711e-06 0.000102768)
(0.32075 -6.14262e-06 0.000102774)
(0.324911 -3.91695e-06 0.000105715)
(0.324912 -7.99918e-06 0.000105719)
(0.329197 -2.6316e-06 0.000108582)
(0.329197 -6.80802e-06 0.000108589)
(0.33292 -4.40839e-06 0.000111415)
(0.33292 -8.93793e-06 0.00011142)
(0.335274 -2.64435e-06 0.000114376)
(0.335274 -7.2419e-06 0.000114386)
(0.335508 -4.6421e-06 0.000117367)
(0.335508 -9.68209e-06 0.000117372)
(0.333044 -2.52119e-06 0.000120405)
(0.333044 -7.58303e-06 0.000120416)
(0.32753 -5.13023e-06 0.000123307)
(0.32753 -1.07556e-05 0.000123312)
(0.318932 -2.49781e-06 0.00012625)
(0.318932 -8.06908e-06 0.000126265)
(0.30727 -5.63423e-06 0.000129125)
(0.307269 -1.19335e-05 0.000129129)
(0.292432 -2.3959e-06 0.000132147)
(0.292431 -8.52197e-06 0.000132164)
(0.274622 -6.15655e-06 0.000135174)
(0.27462 -1.3234e-05 0.000135176)
(0.254482 -2.21205e-06 0.000138459)
(0.25448 -8.93692e-06 0.00013848)
(0.232583 -6.59163e-06 0.000141807)
(0.232581 -1.45687e-05 0.000141805)
(0.208998 -1.75325e-06 0.00014543)
(0.208996 -9.11843e-06 0.000145456)
(0.183329 -7.30568e-06 0.000148948)
(0.183326 -1.63217e-05 0.00014894)
(0.155383 -1.3346e-06 0.000152783)
(0.155378 -9.3786e-06 0.000152814)
(0.125745 -7.96673e-06 0.000156585)
(0.125739 -1.81791e-05 0.000156569)
(0.0956434 -8.18627e-07 0.000160754)
(0.0956361 -9.57727e-06 0.000160791)
(0.0664329 -8.7485e-06 0.000164822)
(0.0664237 -2.03295e-05 0.000164796)
(0.0390386 -2.8619e-07 0.000169246)
(0.0390273 -9.79382e-06 0.000169288)
(0.0143371 -9.63474e-06 0.000173454)
(0.0143246 -2.27642e-05 0.000173415)
(-0.00601865 3.66463e-07 0.000177919)
(-0.0060297 -9.92834e-06 0.000177966)
(-0.0200845 -1.08075e-05 0.000181871)
(-0.0200906 -2.56639e-05 0.000181822)
(-0.0270173 1.26743e-06 0.000186143)
(-0.0270185 -9.83615e-06 0.000186205)
(-0.0279335 -1.19865e-05 0.00018976)
(-0.0279319 -2.87824e-05 0.0001897)
(-0.0255772 2.10792e-06 0.000193588)
(-0.0255755 -9.84317e-06 0.000193666)
(-0.0231491 -1.37656e-05 0.000196652)
(-0.0231493 -3.27368e-05 0.000196576)
(-0.0229333 3.35785e-06 0.000200417)
(-0.0229359 -9.4813e-06 0.000200512)
(-0.0252408 -1.49705e-05 0.000203508)
(-0.0252445 -3.63663e-05 0.000203413)
(-0.028752 4.99563e-06 0.000207056)
(-0.0287546 -8.77895e-06 0.000207175)
(-0.0316752 -1.66655e-05 0.000209183)
(-0.0316751 -4.07505e-05 0.000209066)
(-0.0324232 6.90524e-06 0.000211556)
(-0.0324187 -7.87387e-06 0.000211705)
(-0.0299398 -1.82783e-05 0.000211842)
(-0.0299298 -4.53291e-05 0.000211697)
(-0.0239725 8.40315e-06 0.000211834)
(-0.0239564 -7.4936e-06 0.000212016)
(-0.0150876 -2.06998e-05 0.000209298)
(-0.015065 -5.09662e-05 0.000209118)
(-0.00383725 9.59735e-06 0.000207087)
(-0.00380978 -7.60675e-06 0.000207298)
(0.0104766 -2.2948e-05 0.000202902)
(0.0105048 -5.65998e-05 0.000202686)
(0.0290105 1.12741e-05 0.00019999)
(0.0290358 -7.49344e-06 0.000200236)
(0.0513693 -2.42968e-05 0.000195356)
(0.0513907 -6.13849e-05 0.000195121)
(0.0758895 1.31208e-05 0.000191967)
(0.0759058 -7.71424e-06 0.000192278)
(0.100251 -2.54948e-05 0.000185923)
(0.100264 -6.59767e-05 0.00018566)
(0.122099 1.39957e-05 0.000180541)
(0.122108 -9.90553e-06 0.000180953)
(0.140382 -2.60394e-05 0.000172108)
(0.140389 -6.95606e-05 0.000171801)
(0.155721 1.43144e-05 0.000164092)
(0.155726 -1.47139e-05 0.000164623)
(0.169177 -2.56605e-05 0.000152858)
(0.169182 -7.09098e-05 0.000152518)
(0.180232 1.46595e-05 0.00014188)
(0.180234 -1.98067e-05 0.000142503)
(0.187799 -2.42045e-05 0.000127345)
(0.1878 -6.79819e-05 0.000127025)
(0.192455 1.41667e-05 0.000112308)
(0.192457 -1.97543e-05 0.000112935)
(0.196816 -2.15421e-05 9.4425e-05)
(0.196818 -5.81145e-05 9.4168e-05)
(0.202832 1.54826e-05 7.57985e-05)
(0.202833 -1.03307e-05 7.63131e-05)
(0.209136 -1.84468e-05 5.3415e-05)
(0.209137 -3.90365e-05 5.32677e-05)
(0.212979 1.66497e-05 2.82671e-05)
(0.212979 8.40747e-06 2.85125e-05)
(0.0626926 9.17064e-09 -6.73091e-08)
(0.0626926 1.00924e-08 -5.96252e-11)
(0.188787 2.56653e-08 -1.03053e-07)
(0.188787 2.92399e-08 -5.79815e-10)
(0.316504 3.21564e-08 -1.01238e-07)
(0.316504 3.91516e-08 -1.79546e-09)
(0.445853 1.90743e-08 -8.65734e-08)
(0.445853 2.9324e-08 -3.46332e-09)
(0.576842 -3.42763e-09 -6.09352e-08)
(0.576842 9.12315e-09 -4.64283e-09)
(0.709473 -1.422e-08 -3.97313e-08)
(0.709472 -2.16885e-11 -5.07562e-09)
(0.843753 -1.16169e-08 -2.7513e-08)
(0.843753 3.61074e-09 -5.26352e-09)
(0.979699 -7.63295e-09 -2.11929e-08)
(0.979699 8.2035e-09 -5.54023e-09)
(1.11733 -6.15555e-09 -1.8078e-08)
(1.11733 1.02573e-08 -5.96882e-09)
(1.25669 -4.2221e-09 -1.67807e-08)
(1.25669 1.26097e-08 -6.54141e-09)
(1.39782 -3.67729e-09 -1.66428e-08)
(1.39782 1.35124e-08 -7.24805e-09)
(1.54077 -3.10386e-09 -1.73519e-08)
(1.54077 1.4408e-08 -8.07673e-09)
(1.6856 -2.59029e-09 -1.87587e-08)
(1.6856 1.52019e-08 -9.02641e-09)
(1.83238 -2.47573e-09 -2.08002e-08)
(1.83238 1.55806e-08 -1.0098e-08)
(1.98118 -2.19981e-09 -2.34606e-08)
(1.98118 1.60999e-08 -1.12937e-08)
(2.13209 -2.30846e-09 -2.3855e-08)
(2.13209 1.62266e-08 -1.26169e-08)
(2.28518 -2.02847e-09 -2.21563e-08)
(2.28518 1.67278e-08 -1.40731e-08)
(2.44054 -2.01227e-09 -2.07624e-08)
(2.44053 1.6961e-08 -1.56724e-08)
(2.59825 -2.24839e-09 -1.96052e-08)
(2.59825 1.69352e-08 -1.74183e-08)
(2.75841 -2.1678e-09 -1.93179e-08)
(2.75841 1.72223e-08 -1.93172e-08)
(2.9211 -1.96949e-09 -2.13836e-08)
(2.9211 1.76243e-08 -2.13829e-08)
(3.0864 -2.2182e-09 -2.36265e-08)
(3.0864 1.75779e-08 -2.36259e-08)
(3.25439 -2.69109e-09 -2.60471e-08)
(3.25439 1.73042e-08 -2.60464e-08)
(3.42514 -2.08379e-09 -2.86605e-08)
(3.42514 1.81118e-08 -2.86599e-08)
(3.59871 -2.4055e-09 -3.14857e-08)
(3.59871 1.79906e-08 -3.14851e-08)
(3.77516 -2.65863e-09 -3.45285e-08)
(3.77516 1.79344e-08 -3.4528e-08)
(3.95453 -3.17994e-09 -3.77922e-08)
(3.95453 1.76163e-08 -3.77917e-08)
(4.13684 -2.30232e-09 -4.12999e-08)
(4.13684 1.86923e-08 -4.12995e-08)
(4.3221 -3.10311e-09 -4.50718e-08)
(4.3221 1.80979e-08 -4.50714e-08)
(4.51032 -3.04968e-09 -4.91147e-08)
(4.51032 1.83519e-08 -4.91144e-08)
(4.70147 -3.83237e-09 -5.34364e-08)
(4.70147 1.77783e-08 -5.34362e-08)
(4.89551 -2.79166e-09 -5.80636e-08)
(4.89551 1.90243e-08 -5.80634e-08)
(5.09236 -3.759e-09 -6.30214e-08)
(5.09236 1.82709e-08 -6.30212e-08)
(5.29195 -3.87824e-09 -6.83149e-08)
(5.29195 1.83616e-08 -6.83148e-08)
(5.49416 -4.24408e-09 -7.39609e-08)
(5.49416 1.82155e-08 -7.39609e-08)
(5.69885 -3.58296e-09 -7.99929e-08)
(5.69885 1.9094e-08 -7.99929e-08)
(5.90586 -4.43404e-09 -8.64369e-08)
(5.90586 1.84702e-08 -8.64371e-08)
(6.11499 -4.73028e-09 -9.33022e-08)
(6.11499 1.83979e-08 -9.33024e-08)
(6.32602 -4.94091e-09 -1.00611e-07)
(6.32602 1.84235e-08 -1.00611e-07)
(6.53869 -4.51281e-09 -1.08402e-07)
(6.53869 1.90851e-08 -1.08402e-07)
(6.75274 -4.96345e-09 -1.16711e-07)
(6.75274 1.88809e-08 -1.16711e-07)
(6.96784 -5.66233e-09 -1.25554e-07)
(6.96784 1.84248e-08 -1.25554e-07)
(7.18365 -5.94655e-09 -1.3495e-07)
(7.18365 1.83998e-08 -1.3495e-07)
(7.39981 -4.85663e-09 -1.44957e-07)
(7.39981 1.97444e-08 -1.44958e-07)
(7.61591 -6.97421e-09 -1.55599e-07)
(7.61591 1.78997e-08 -1.556e-07)
(7.83153 -5.11849e-09 -1.66915e-07)
(7.83152 2.00252e-08 -1.66916e-07)
(8.04619 -8.33137e-09 -1.78924e-07)
(8.04619 1.70982e-08 -1.78925e-07)
(8.25943 -4.52199e-09 -1.91687e-07)
(8.25943 2.11918e-08 -1.91688e-07)
(8.47073 -7.25308e-09 -2.05282e-07)
(8.47073 1.87651e-08 -2.05283e-07)
(8.67956 -9.65426e-09 -2.19643e-07)
(8.67956 1.66626e-08 -2.19645e-07)
(8.88535 -8.11855e-09 -2.34798e-07)
(8.88535 1.85235e-08 -2.348e-07)
(9.08755 1.4637e-09 -2.51068e-07)
(9.08755 2.84251e-08 -2.51069e-07)
(9.28555 -2.36729e-08 -2.68139e-07)
(9.28555 3.62128e-09 -2.68141e-07)
(9.47874 6.34009e-09 -2.8617e-07)
(9.47874 3.39848e-08 -2.86172e-07)
(9.66651 -1.72697e-08 -3.05383e-07)
(9.66651 1.07248e-08 -3.05385e-07)
(9.84823 -8.19568e-09 -3.25456e-07)
(9.84823 2.01751e-08 -3.25458e-07)
(10.0233 -3.36439e-09 -3.46789e-07)
(10.0233 2.53708e-08 -3.46791e-07)
(10.191 -2.06094e-08 -3.69109e-07)
(10.191 8.51849e-09 -3.69111e-07)
(10.3508 -4.40711e-10 -3.92513e-07)
(10.3508 2.90807e-08 -3.92516e-07)
(10.5021 -1.761e-08 -4.17119e-07)
(10.5021 1.23255e-08 -4.17121e-07)
(10.6443 -4.19256e-09 -4.42839e-07)
(10.6443 2.61505e-08 -4.42842e-07)
(10.7767 -1.60848e-08 -4.69733e-07)
(10.7767 1.46973e-08 -4.69736e-07)
(10.8989 -1.76877e-08 -4.97414e-07)
(10.8989 1.35347e-08 -4.97417e-07)
(11.0104 3.0943e-10 -5.2632e-07)
(11.0104 3.19592e-08 -5.26323e-07)
(11.1106 -2.19018e-08 -5.56328e-07)
(11.1106 1.02171e-08 -5.56331e-07)
(11.1991 -1.79557e-08 -5.86857e-07)
(11.1991 1.4634e-08 -5.8686e-07)
(11.2757 -9.2772e-10 -6.1847e-07)
(11.2757 3.21166e-08 -6.18474e-07)
(11.3398 -3.77101e-08 -6.50538e-07)
(11.3398 -4.18474e-09 -6.50542e-07)
(11.3915 1.81469e-08 -6.83563e-07)
(11.3915 5.21555e-08 -6.83566e-07)
(11.4303 -6.2161e-08 -7.16766e-07)
(11.4303 -2.76744e-08 -7.16769e-07)
(11.4563 3.11078e-08 -7.50449e-07)
(11.4563 6.60926e-08 -7.50453e-07)
(11.4694 -6.37896e-08 -7.84565e-07)
(11.4694 -2.83291e-08 -7.84568e-07)
(11.4697 2.0705e-08 -8.187e-07)
(11.4697 5.66688e-08 -8.18704e-07)
(11.4573 -5.24162e-08 -8.53246e-07)
(11.4573 -1.59691e-08 -8.5325e-07)
(11.4324 8.5424e-09 -8.87777e-07)
(11.4324 4.54831e-08 -8.87781e-07)
(11.3954 -4.46434e-08 -9.22603e-07)
(11.3954 -7.2219e-09 -9.22606e-07)
(11.3466 -7.02638e-09 -9.57211e-07)
(11.3466 3.0876e-08 -9.57214e-07)
(11.2865 -2.56194e-08 -9.92334e-07)
(11.2865 1.27766e-08 -9.92337e-07)
(11.2155 -2.80043e-08 -1.02732e-06)
(11.2155 1.08569e-08 -1.02732e-06)
(11.1343 -6.79066e-09 -1.06291e-06)
(11.1343 3.25485e-08 -1.06292e-06)
(11.0434 -4.99778e-08 -1.09846e-06)
(11.0434 -1.01782e-08 -1.09846e-06)
(10.9435 8.81624e-09 -1.1346e-06)
(10.9435 4.90927e-08 -1.1346e-06)
(10.8352 -5.58023e-08 -1.17128e-06)
(10.8352 -1.50798e-08 -1.17128e-06)
(10.7193 6.58065e-10 -1.20826e-06)
(10.7193 4.18545e-08 -1.20826e-06)
(10.5966 -4.38122e-08 -1.24616e-06)
(10.5966 -2.17655e-09 -1.24616e-06)
(10.4676 -4.57478e-09 -1.28486e-06)
(10.4676 3.75285e-08 -1.28486e-06)
(10.3331 -4.76616e-08 -1.32435e-06)
(10.3331 -5.11981e-09 -1.32435e-06)
(10.1939 -2.25035e-09 -1.3648e-06)
(10.1939 4.07637e-08 -1.3648e-06)
(10.0505 -5.18031e-08 -1.40616e-06)
(10.0505 -8.34834e-09 -1.40616e-06)
(9.90368 -3.97224e-09 -1.4484e-06)
(9.90368 3.99548e-08 -1.4484e-06)
(9.754 -4.00006e-08 -1.49213e-06)
(9.754 4.38881e-09 -1.49213e-06)
(9.60206 -1.75746e-08 -1.53685e-06)
(9.60206 2.72999e-08 -1.53685e-06)
(9.4484 -3.33622e-08 -1.5829e-06)
(9.4484 1.19877e-08 -1.58289e-06)
(9.29353 -3.1475e-08 -1.62972e-06)
(9.29353 1.43935e-08 -1.62972e-06)
(9.13792 -8.89811e-09 -1.67844e-06)
(9.13792 3.74611e-08 -1.67844e-06)
(8.98201 -5.15219e-08 -1.72824e-06)
(8.98201 -4.59936e-09 -1.72824e-06)
(8.82618 -1.40408e-08 -1.77888e-06)
(8.82618 3.34072e-08 -1.77888e-06)