/*--------------------------------*- C++ -*----------------------------------*\
| =========                 |                                                 |
| \\      /  F ield         | OpenFOAM: The Open Source CFD Toolbox           |
|  \\    /   O peration     | Version:  2012                                  |
|   \\  /    A nd           | Website:  www.openfoam.com                      |
|    \\/     M anipulation  |                                                 |
\*---------------------------------------------------------------------------*/
FoamFile
{
    version     2.0;
    format      ascii;
    class       volScalarField;
    location    "12000";
    object      nut;
}
// * * * * * * * * * * * * * * * * * * * * * * * * * * * * * * * * * * * * * //

dimensions      [0 2 -1 0 0 0 0];


internalField   nonuniform List<scalar> 
2560
(
9.55203e-14
9.55203e-14
9.33849e-14
9.33849e-14
3.42874e-13
3.42874e-13
2.19009e-12
2.19009e-12
9.88251e-12
9.88251e-12
3.31631e-11
3.31631e-11
9.06769e-11
9.06769e-11
2.14273e-10
2.14273e-10
4.54317e-10
4.54317e-10
8.86143e-10
8.86143e-10
1.6178e-09
1.6178e-09
2.79924e-09
2.79924e-09
4.63317e-09
4.63317e-09
7.38767e-09
7.38767e-09
1.14108e-08
1.14108e-08
1.71476e-08
1.71476e-08
2.5159e-08
2.5159e-08
3.6144e-08
3.6144e-08
5.09637e-08
5.09637e-08
7.0669e-08
7.0669e-08
9.65303e-08
9.65303e-08
1.30071e-07
1.30071e-07
1.73102e-07
1.73102e-07
2.27763e-07
2.27763e-07
2.96559e-07
2.96559e-07
3.82403e-07
3.82403e-07
4.88662e-07
4.88662e-07
6.19194e-07
6.19194e-07
7.78395e-07
7.78395e-07
9.71231e-07
9.71231e-07
1.20328e-06
1.20328e-06
1.48073e-06
1.48073e-06
1.81047e-06
1.81047e-06
2.19998e-06
2.19998e-06
2.65743e-06
2.65743e-06
3.19162e-06
3.19162e-06
3.8119e-06
3.8119e-06
4.52815e-06
4.52815e-06
5.3507e-06
5.3507e-06
6.29021e-06
6.29021e-06
7.35751e-06
7.35751e-06
8.56352e-06
8.56352e-06
9.91905e-06
9.91905e-06
1.14346e-05
1.14346e-05
1.31203e-05
1.31203e-05
1.49855e-05
1.49855e-05
1.70389e-05
1.70389e-05
1.92881e-05
1.92881e-05
2.17397e-05
2.17397e-05
2.43988e-05
2.43988e-05
2.72696e-05
2.72696e-05
3.03546e-05
3.03546e-05
3.36551e-05
3.36551e-05
3.71709e-05
3.71709e-05
4.09006e-05
4.09006e-05
4.48414e-05
4.48414e-05
4.89896e-05
4.89896e-05
5.33401e-05
5.33401e-05
5.78873e-05
5.78873e-05
6.26246e-05
6.26246e-05
6.75449e-05
6.75449e-05
7.26406e-05
7.26406e-05
7.79038e-05
7.79038e-05
8.33263e-05
8.33263e-05
8.89e-05
8.89e-05
9.46167e-05
9.46167e-05
0.000100468
0.000100468
0.000106447
0.000106447
0.000112546
0.000112546
0.000118757
0.000118757
0.000125074
0.000125074
0.000131491
0.000131491
0.000138002
0.000138002
0.000144601
0.000144601
0.000151285
0.000151285
0.000158049
0.000158049
0.000164888
0.000164888
0.000171802
0.000171802
0.000178787
0.000178787
0.000185841
0.000185841
0.000192963
0.000192963
0.000200153
0.000200153
0.000207411
0.000207411
0.000214737
0.000214737
0.000222132
0.000222132
0.000229599
0.000229599
0.000237138
0.000237138
0.000244754
0.000244754
0.000252449
0.000252449
0.000260227
0.000260227
0.000268092
0.000268092
0.00027605
0.00027605
0.000284105
0.000284105
0.000292263
0.000292263
0.00030053
0.00030053
0.000308912
0.000308912
0.000317417
0.000317417
0.000326052
0.000326052
0.000334825
0.000334825
0.000343743
0.000343743
0.000352815
0.000352815
0.000362049
0.000362049
0.000371454
0.000371454
0.00038104
0.00038104
0.000390815
0.000390815
0.000400789
0.000400789
0.000410972
0.000410972
0.000421374
0.000421374
0.000432003
0.000432003
0.000442871
0.000442871
0.000453986
0.000453986
0.000465359
0.000465359
0.000477
0.000477
0.000488917
0.000488917
0.000501122
0.000501122
0.000513622
0.000513622
0.000526427
0.000526427
0.000539546
0.000539546
0.000552988
0.000552988
0.000566761
0.000566761
0.000580872
0.000580872
0.00059533
0.00059533
0.000610141
0.000610141
0.000625312
0.000625312
0.00064085
0.00064085
0.00065676
0.00065676
0.000673048
0.000673048
0.000689718
0.000689718
0.000706774
0.000706774
0.000724222
0.000724222
0.000742063
0.000742063
0.000760301
0.000760301
0.000778937
0.000778937
0.000797974
0.000797974
0.000817413
0.000817413
0.000837254
0.000837254
0.000857498
0.000857498
0.000878144
0.000878144
0.000899192
0.000899192
0.000920641
0.000920641
0.000942489
0.000942489
0.000964734
0.000964734
0.000987375
0.000987375
0.00101041
0.00101041
0.00103383
0.00103383
0.00105764
0.00105764
0.00108184
0.00108184
0.00110641
0.00110641
0.00113136
0.00113136
0.00115669
0.00115669
0.00118238
0.00118238
0.00120844
0.00120844
0.00123486
0.00123486
0.00126164
0.00126164
0.00128877
0.00128877
0.00131625
0.00131625
0.00134407
0.00134407
0.00137223
0.00137223
0.00140073
0.00140073
0.00142956
0.00142956
0.00145872
0.00145872
0.00148821
0.00148821
0.00151802
0.00151802
0.00154814
0.00154814
0.00157858
0.00157858
0.00160934
0.00160934
0.00164041
0.00164041
0.00167178
0.00167178
0.00170347
0.00170347
0.00173546
0.00173546
0.00176776
0.00176776
0.00180036
0.00180036
0.00183326
0.00183326
0.00186647
0.00186647
0.00189998
0.00189998
0.00193379
0.00193379
0.00196789
0.00196789
0.0020023
0.0020023
0.002037
0.002037
0.002072
0.002072
0.0021073
0.0021073
0.00214288
0.00214288
0.00217876
0.00217876
0.00221494
0.00221494
0.0022514
0.0022514
0.00228815
0.00228815
0.00232519
0.00232519
0.00236252
0.00236252
0.00240014
0.00240014
0.00243805
0.00243805
0.00247625
0.00247625
0.00251473
0.00251473
0.0025535
0.0025535
0.00259255
0.00259255
0.00263189
0.00263189
0.0026715
0.0026715
0.00271139
0.00271139
0.00275156
0.00275156
0.002792
0.002792
0.00283271
0.00283271
0.00287368
0.00287368
0.00291492
0.00291492
0.00295642
0.00295642
0.00299819
0.00299819
0.00304021
0.00304021
0.00308249
0.00308249
0.00312503
0.00312503
0.00316783
0.00316783
0.00321088
0.00321088
0.0032542
0.0032542
0.00329777
0.00329777
0.0033416
0.0033416
0.00338568
0.00338568
0.00343001
0.00343001
0.00347459
0.00347459
0.00351942
0.00351942
0.00356449
0.00356449
0.00360981
0.00360981
0.00365537
0.00365537
0.00370117
0.00370117
0.00374722
0.00374722
0.0037935
0.0037935
0.00384002
0.00384002
0.00388677
0.00388677
0.00393375
0.00393375
0.00398094
0.00398094
0.00402834
0.00402834
0.00407593
0.00407593
0.00412372
0.00412372
0.00417169
0.00417169
0.00421983
0.00421983
0.00426813
0.00426813
0.0043166
0.0043166
0.00436521
0.00436521
0.00441396
0.00441396
0.00446283
0.00446283
0.00451182
0.00451182
0.0045609
0.0045609
0.00461006
0.00461006
0.00465927
0.00465927
0.00470852
0.00470852
0.00475779
0.00475779
0.00480705
0.00480705
0.00485629
0.00485629
0.00490548
0.00490548
0.00495463
0.00495463
0.00500372
0.00500372
0.00505275
0.00505275
0.0051017
0.0051017
0.00515058
0.00515058
0.00519936
0.00519936
0.00524804
0.00524804
0.00529657
0.00529657
0.00534492
0.00534492
0.00539305
0.00539305
0.0054409
0.0054409
0.00548845
0.00548845
0.00553565
0.00553565
0.00558248
0.00558248
0.00562892
0.00562892
0.00567495
0.00567495
0.00572052
0.00572052
0.00576559
0.00576559
0.00581011
0.00581011
0.00585401
0.00585401
0.00589723
0.00589723
0.0059397
0.0059397
0.00598137
0.00598137
0.00602219
0.00602219
0.00606211
0.00606211
0.00610109
0.00610109
0.00613909
0.00613909
0.00617609
0.00617609
0.00621207
0.00621207
0.00624701
0.00624701
0.00628089
0.00628089
0.0063137
0.0063137
0.00634543
0.00634543
0.00637606
0.00637606
0.00640557
0.00640557
0.00643393
0.00643393
0.00646111
0.00646111
0.00648709
0.00648709
0.00651185
0.00651185
0.00653536
0.00653536
0.00655759
0.00655759
0.0065785
0.0065785
0.00659804
0.00659804
0.00661613
0.00661613
0.00663268
0.00663268
0.00664759
0.00664759
0.00666073
0.00666073
0.00667195
0.00667195
0.00668116
0.00668116
0.00668834
0.00668834
0.00669348
0.00669348
0.00669664
0.00669664
0.00669786
0.00669786
0.00669717
0.00669717
0.0066946
0.0066946
0.00669015
0.00669015
0.00668385
0.00668385
0.00667574
0.00667574
0.00666587
0.00666587
0.00665433
0.00665433
0.00664122
0.00664121
0.00662664
0.00662664
0.00661076
0.00661076
0.0065938
0.0065938
0.00657605
0.00657605
0.00655787
0.00655787
0.00653964
0.00653964
0.00652175
0.00652175
0.00650465
0.00650465
0.00648877
0.00648877
0.00647457
0.00647457
0.00646249
0.00646249
0.00645292
0.00645292
0.00644624
0.00644624
0.00644278
0.00644278
9.55203e-14
9.55203e-14
9.33848e-14
9.33848e-14
3.42874e-13
3.42874e-13
2.19009e-12
2.19009e-12
9.88251e-12
9.88251e-12
3.31631e-11
3.31631e-11
9.06769e-11
9.06769e-11
2.14273e-10
2.14273e-10
4.54317e-10
4.54317e-10
8.86142e-10
8.86142e-10
1.6178e-09
1.6178e-09
2.79924e-09
2.79924e-09
4.63317e-09
4.63317e-09
7.38766e-09
7.38766e-09
1.14108e-08
1.14108e-08
1.71476e-08
1.71476e-08
2.5159e-08
2.5159e-08
3.6144e-08
3.6144e-08
5.09637e-08
5.09637e-08
7.06689e-08
7.06689e-08
9.65302e-08
9.65302e-08
1.30071e-07
1.30071e-07
1.73102e-07
1.73102e-07
2.27763e-07
2.27763e-07
2.96559e-07
2.96559e-07
3.82403e-07
3.82403e-07
4.88661e-07
4.88661e-07
6.19194e-07
6.19194e-07
7.78394e-07
7.78394e-07
9.7123e-07
9.7123e-07
1.20327e-06
1.20327e-06
1.48073e-06
1.48073e-06
1.81046e-06
1.81046e-06
2.19998e-06
2.19998e-06
2.65743e-06
2.65743e-06
3.19162e-06
3.19162e-06
3.81189e-06
3.81189e-06
4.52815e-06
4.52815e-06
5.3507e-06
5.3507e-06
6.2902e-06
6.2902e-06
7.3575e-06
7.3575e-06
8.56352e-06
8.56352e-06
9.91904e-06
9.91904e-06
1.14346e-05
1.14346e-05
1.31203e-05
1.31203e-05
1.49855e-05
1.49855e-05
1.70389e-05
1.70389e-05
1.92881e-05
1.92881e-05
2.17396e-05
2.17396e-05
2.43988e-05
2.43988e-05
2.72696e-05
2.72696e-05
3.03546e-05
3.03546e-05
3.36551e-05
3.36551e-05
3.71709e-05
3.71709e-05
4.09006e-05
4.09006e-05
4.48414e-05
4.48414e-05
4.89895e-05
4.89895e-05
5.33401e-05
5.33401e-05
5.78873e-05
5.78873e-05
6.26246e-05
6.26246e-05
6.75449e-05
6.75449e-05
7.26406e-05
7.26406e-05
7.79038e-05
7.79038e-05
8.33263e-05
8.33263e-05
8.89e-05
8.89e-05
9.46167e-05
9.46167e-05
0.000100468
0.000100468
0.000106447
0.000106447
0.000112546
0.000112546
0.000118757
0.000118757
0.000125074
0.000125074
0.000131491
0.000131491
0.000138002
0.000138002
0.000144601
0.000144601
0.000151285
0.000151285
0.000158048
0.000158048
0.000164888
0.000164888
0.000171802
0.000171802
0.000178787
0.000178787
0.000185841
0.000185841
0.000192963
0.000192963
0.000200153
0.000200153
0.000207411
0.000207411
0.000214737
0.000214737
0.000222132
0.000222132
0.000229598
0.000229598
0.000237138
0.000237138
0.000244754
0.000244754
0.000252449
0.000252449
0.000260227
0.000260227
0.000268092
0.000268092
0.00027605
0.00027605
0.000284105
0.000284105
0.000292263
0.000292263
0.00030053
0.00030053
0.000308912
0.000308912
0.000317417
0.000317417
0.000326052
0.000326052
0.000334825
0.000334825
0.000343743
0.000343743
0.000352815
0.000352815
0.000362049
0.000362049
0.000371454
0.000371454
0.00038104
0.00038104
0.000390815
0.000390815
0.000400789
0.000400789
0.000410972
0.000410972
0.000421374
0.000421374
0.000432003
0.000432003
0.000442871
0.000442871
0.000453986
0.000453986
0.000465359
0.000465359
0.000477
0.000477
0.000488917
0.000488917
0.000501122
0.000501122
0.000513622
0.000513622
0.000526427
0.000526427
0.000539546
0.000539546
0.000552988
0.000552988
0.000566761
0.000566761
0.000580872
0.000580872
0.00059533
0.00059533
0.000610141
0.000610141
0.000625312
0.000625312
0.00064085
0.00064085
0.00065676
0.00065676
0.000673047
0.000673047
0.000689717
0.000689717
0.000706774
0.000706774
0.000724222
0.000724222
0.000742063
0.000742063
0.0007603
0.0007603
0.000778937
0.000778937
0.000797974
0.000797974
0.000817413
0.000817413
0.000837254
0.000837254
0.000857498
0.000857498
0.000878144
0.000878144
0.000899192
0.000899192
0.000920641
0.000920641
0.000942489
0.000942489
0.000964734
0.000964734
0.000987375
0.000987375
0.00101041
0.00101041
0.00103383
0.00103383
0.00105764
0.00105764
0.00108184
0.00108184
0.00110641
0.00110641
0.00113136
0.00113136
0.00115669
0.00115669
0.00118238
0.00118238
0.00120844
0.00120844
0.00123486
0.00123486
0.00126164
0.00126164
0.00128877
0.00128877
0.00131625
0.00131625
0.00134407
0.00134407
0.00137223
0.00137223
0.00140073
0.00140073
0.00142956
0.00142956
0.00145872
0.00145872
0.00148821
0.00148821
0.00151802
0.00151802
0.00154814
0.00154814
0.00157858
0.00157858
0.00160934
0.00160934
0.00164041
0.00164041
0.00167178
0.00167178
0.00170347
0.00170347
0.00173546
0.00173546
0.00176776
0.00176776
0.00180036
0.00180036
0.00183326
0.00183326
0.00186647
0.00186647
0.00189998
0.00189998
0.00193378
0.00193378
0.00196789
0.00196789
0.0020023
0.0020023
0.002037
0.002037
0.002072
0.002072
0.0021073
0.0021073
0.00214288
0.00214288
0.00217876
0.00217876
0.00221493
0.00221493
0.0022514
0.0022514
0.00228815
0.00228815
0.00232519
0.00232519
0.00236252
0.00236252
0.00240014
0.00240014
0.00243805
0.00243805
0.00247625
0.00247625
0.00251473
0.00251473
0.0025535
0.0025535
0.00259255
0.00259255
0.00263189
0.00263189
0.0026715
0.0026715
0.00271139
0.00271139
0.00275156
0.00275156
0.002792
0.002792
0.00283271
0.00283271
0.00287368
0.00287368
0.00291492
0.00291492
0.00295642
0.00295642
0.00299818
0.00299818
0.00304021
0.00304021
0.00308249
0.00308249
0.00312503
0.00312503
0.00316783
0.00316783
0.00321088
0.00321088
0.0032542
0.0032542
0.00329777
0.00329777
0.0033416
0.0033416
0.00338568
0.00338568
0.00343001
0.00343001
0.00347459
0.00347459
0.00351941
0.00351941
0.00356449
0.00356449
0.00360981
0.00360981
0.00365537
0.00365537
0.00370117
0.00370117
0.00374722
0.00374722
0.0037935
0.0037935
0.00384002
0.00384002
0.00388677
0.00388677
0.00393374
0.00393374
0.00398094
0.00398094
0.00402834
0.00402834
0.00407593
0.00407593
0.00412372
0.00412372
0.00417169
0.00417169
0.00421983
0.00421983
0.00426813
0.00426813
0.0043166
0.0043166
0.00436521
0.00436521
0.00441396
0.00441396
0.00446283
0.00446283
0.00451182
0.00451182
0.0045609
0.0045609
0.00461006
0.00461006
0.00465927
0.00465927
0.00470852
0.00470852
0.00475779
0.00475779
0.00480705
0.00480705
0.00485629
0.00485629
0.00490548
0.00490548
0.00495463
0.00495463
0.00500372
0.00500372
0.00505275
0.00505275
0.0051017
0.0051017
0.00515058
0.00515058
0.00519936
0.00519936
0.00524803
0.00524803
0.00529657
0.00529657
0.00534492
0.00534492
0.00539304
0.00539304
0.0054409
0.0054409
0.00548845
0.00548845
0.00553565
0.00553565
0.00558248
0.00558248
0.00562892
0.00562892
0.00567494
0.00567494
0.00572052
0.00572052
0.00576559
0.00576559
0.00581011
0.00581011
0.00585401
0.00585401
0.00589723
0.00589723
0.0059397
0.0059397
0.00598137
0.00598137
0.00602219
0.00602219
0.00606211
0.00606211
0.00610109
0.00610109
0.00613909
0.00613909
0.00617609
0.00617609
0.00621207
0.00621207
0.006247
0.006247
0.00628089
0.00628089
0.0063137
0.0063137
0.00634543
0.00634543
0.00637606
0.00637606
0.00640557
0.00640557
0.00643393
0.00643393
0.00646111
0.00646111
0.00648709
0.00648709
0.00651185
0.00651185
0.00653535
0.00653535
0.00655759
0.00655759
0.0065785
0.0065785
0.00659804
0.00659804
0.00661613
0.00661613
0.00663268
0.00663268
0.00664759
0.00664759
0.00666072
0.00666072
0.00667195
0.00667195
0.00668116
0.00668116
0.00668834
0.00668834
0.00669348
0.00669348
0.00669664
0.00669664
0.00669786
0.00669786
0.00669717
0.00669717
0.0066946
0.0066946
0.00669015
0.00669015
0.00668386
0.00668386
0.00667574
0.00667574
0.00666587
0.00666587
0.00665433
0.00665433
0.00664122
0.00664122
0.00662664
0.00662664
0.00661076
0.00661076
0.0065938
0.0065938
0.00657605
0.00657605
0.00655787
0.00655787
0.00653964
0.00653964
0.00652176
0.00652176
0.00650465
0.00650465
0.00648877
0.00648877
0.00647457
0.00647457
0.00646249
0.00646249
0.00645292
0.00645292
0.00644624
0.00644624
0.00644278
0.00644278
0.00644278
0.00644278
0.00644625
0.00644625
0.00645293
0.00645293
0.00646249
0.00646249
0.00647457
0.00647457
0.00648877
0.00648877
0.00650465
0.00650465
0.00652176
0.00652176
0.00653964
0.00653964
0.00655786
0.00655786
0.00657604
0.00657604
0.00659378
0.00659378
0.00661074
0.00661074
0.00662662
0.00662662
0.0066412
0.0066412
0.00665432
0.00665432
0.00666587
0.00666587
0.00667575
0.00667575
0.00668387
0.00668387
0.00669017
0.00669017
0.00669462
0.00669462
0.00669719
0.00669719
0.00669788
0.00669788
0.00669667
0.00669667
0.00669351
0.00669351
0.00668836
0.00668836
0.00668118
0.00668118
0.00667196
0.00667196
0.00666073
0.00666073
0.0066476
0.0066476
0.00663268
0.00663268
0.00661612
0.00661612
0.00659803
0.00659803
0.00657849
0.00657849
0.00655758
0.00655758
0.00653535
0.00653535
0.00651185
0.00651185
0.0064871
0.0064871
0.00646112
0.00646112
0.00643394
0.00643394
0.00640558
0.00640558
0.00637607
0.00637607
0.00634544
0.00634544
0.00631371
0.00631371
0.0062809
0.0062809
0.00624702
0.00624702
0.00621209
0.00621209
0.00617611
0.00617611
0.00613911
0.00613911
0.00610111
0.00610111
0.00606213
0.00606213
0.00602221
0.00602221
0.00598139
0.00598139
0.00593971
0.00593971
0.00589724
0.00589724
0.00585402
0.00585402
0.00581012
0.00581012
0.0057656
0.0057656
0.00572052
0.00572052
0.00567494
0.00567494
0.00562892
0.00562892
0.00558247
0.00558247
0.00553564
0.00553564
0.00548844
0.00548844
0.0054409
0.0054409
0.00539304
0.00539304
0.00534492
0.00534492
0.00529657
0.00529657
0.00524803
0.00524803
0.00519936
0.00519936
0.00515058
0.00515058
0.00510171
0.00510171
0.00505275
0.00505275
0.00500373
0.00500373
0.00495464
0.00495464
0.00490549
0.00490549
0.00485628
0.00485628
0.00480704
0.00480704
0.00475778
0.00475778
0.00470852
0.00470852
0.00465926
0.00465926
0.00461005
0.00461005
0.00456089
0.00456089
0.00451182
0.00451182
0.00446283
0.00446283
0.00441396
0.00441396
0.00436521
0.00436521
0.0043166
0.0043166
0.00426814
0.00426814
0.00421983
0.00421983
0.00417169
0.00417169
0.00412372
0.00412372
0.00407593
0.00407593
0.00402833
0.00402833
0.00398093
0.00398093
0.00393374
0.00393374
0.00388676
0.00388676
0.00384001
0.00384001
0.00379349
0.00379349
0.00374721
0.00374721
0.00370116
0.00370116
0.00365536
0.00365536
0.0036098
0.0036098
0.00356448
0.00356448
0.00351941
0.00351941
0.00347458
0.00347458
0.00343
0.00343
0.00338567
0.00338567
0.00334159
0.00334159
0.00329777
0.00329777
0.0032542
0.0032542
0.00321088
0.00321088
0.00316782
0.00316782
0.00312503
0.00312503
0.00308249
0.00308249
0.0030402
0.0030402
0.00299818
0.00299818
0.00295642
0.00295642
0.00291492
0.00291492
0.00287368
0.00287368
0.0028327
0.0028327
0.00279199
0.00279199
0.00275155
0.00275155
0.00271139
0.00271139
0.0026715
0.0026715
0.00263188
0.00263188
0.00259255
0.00259255
0.0025535
0.0025535
0.00251473
0.00251473
0.00247624
0.00247624
0.00243805
0.00243805
0.00240014
0.00240014
0.00236252
0.00236252
0.00232519
0.00232519
0.00228814
0.00228814
0.00225139
0.00225139
0.00221493
0.00221493
0.00217876
0.00217876
0.00214288
0.00214288
0.00210729
0.00210729
0.002072
0.002072
0.002037
0.002037
0.0020023
0.0020023
0.00196789
0.00196789
0.00193378
0.00193378
0.00189997
0.00189997
0.00186646
0.00186646
0.00183326
0.00183326
0.00180035
0.00180035
0.00176775
0.00176775
0.00173546
0.00173546
0.00170346
0.00170346
0.00167178
0.00167178
0.0016404
0.0016404
0.00160934
0.00160934
0.00157858
0.00157858
0.00154814
0.00154814
0.00151801
0.00151801
0.0014882
0.0014882
0.00145872
0.00145872
0.00142956
0.00142956
0.00140073
0.00140073
0.00137223
0.00137223
0.00134406
0.00134406
0.00131624
0.00131624
0.00128876
0.00128876
0.00126163
0.00126163
0.00123486
0.00123486
0.00120844
0.00120844
0.00118238
0.00118238
0.00115669
0.00115669
0.00113136
0.00113136
0.00110641
0.00110641
0.00108183
0.00108183
0.00105764
0.00105764
0.00103383
0.00103383
0.00101041
0.00101041
0.000987372
0.000987372
0.000964731
0.000964731
0.000942485
0.000942485
0.000920637
0.000920637
0.000899189
0.000899189
0.000878141
0.000878141
0.000857494
0.000857494
0.000837251
0.000837251
0.00081741
0.00081741
0.000797971
0.000797971
0.000778934
0.000778934
0.000760298
0.000760298
0.000742061
0.000742061
0.00072422
0.00072422
0.000706773
0.000706773
0.000689716
0.000689716
0.000673046
0.000673046
0.000656759
0.000656759
0.000640849
0.000640849
0.000625312
0.000625312
0.000610141
0.000610141
0.00059533
0.00059533
0.000580873
0.000580873
0.000566762
0.000566762
0.00055299
0.00055299
0.000539549
0.000539549
0.000526431
0.000526431
0.000513626
0.000513626
0.000501127
0.000501127
0.000488923
0.000488923
0.000477006
0.000477006
0.000465366
0.000465366
0.000453993
0.000453993
0.000442878
0.000442878
0.000432011
0.000432011
0.000421382
0.000421382
0.000410981
0.000410981
0.000400798
0.000400798
0.000390824
0.000390824
0.000381049
0.000381049
0.000371464
0.000371464
0.000362059
0.000362059
0.000352825
0.000352825
0.000343753
0.000343753
0.000334836
0.000334836
0.000326063
0.000326063
0.000317428
0.000317428
0.000308923
0.000308923
0.00030054
0.00030054
0.000292273
0.000292273
0.000284116
0.000284116
0.000276061
0.000276061
0.000268104
0.000268104
0.000260239
0.000260239
0.000252461
0.000252461
0.000244767
0.000244767
0.000237151
0.000237151
0.000229611
0.000229611
0.000222145
0.000222145
0.000214749
0.000214749
0.000207423
0.000207423
0.000200166
0.000200166
0.000192975
0.000192975
0.000185853
0.000185853
0.000178799
0.000178799
0.000171814
0.000171814
0.0001649
0.0001649
0.000158059
0.000158059
0.000151295
0.000151295
0.000144611
0.000144611
0.000138011
0.000138011
0.0001315
0.0001315
0.000125082
0.000125082
0.000118765
0.000118765
0.000112553
0.000112553
0.000106454
0.000106454
0.000100474
0.000100474
9.4622e-05
9.4622e-05
8.89049e-05
8.89049e-05
8.33308e-05
8.33308e-05
7.79078e-05
7.79078e-05
7.26443e-05
7.26443e-05
6.75482e-05
6.75482e-05
6.26274e-05
6.26274e-05
5.78898e-05
5.78898e-05
5.33423e-05
5.33423e-05
4.89914e-05
4.89914e-05
4.4843e-05
4.4843e-05
4.0902e-05
4.0902e-05
3.71721e-05
3.71721e-05
3.36561e-05
3.36561e-05
3.03555e-05
3.03555e-05
2.72704e-05
2.72704e-05
2.43995e-05
2.43995e-05
2.17402e-05
2.17402e-05
1.92886e-05
1.92886e-05
1.70393e-05
1.70393e-05
1.49859e-05
1.49859e-05
1.31206e-05
1.31206e-05
1.14349e-05
1.14349e-05
9.91925e-06
9.91925e-06
8.56369e-06
8.56369e-06
7.35765e-06
7.35765e-06
6.29033e-06
6.29033e-06
5.35081e-06
5.35081e-06
4.52824e-06
4.52824e-06
3.81197e-06
3.81197e-06
3.19168e-06
3.19168e-06
2.65749e-06
2.65749e-06
2.20002e-06
2.20002e-06
1.8105e-06
1.8105e-06
1.48076e-06
1.48076e-06
1.2033e-06
1.2033e-06
9.71249e-07
9.71249e-07
7.78409e-07
7.78409e-07
6.19206e-07
6.19206e-07
4.88671e-07
4.88671e-07
3.8241e-07
3.8241e-07
2.96565e-07
2.96565e-07
2.27768e-07
2.27768e-07
1.73106e-07
1.73106e-07
1.30073e-07
1.30073e-07
9.65321e-08
9.65321e-08
7.06703e-08
7.06703e-08
5.09647e-08
5.09647e-08
3.61447e-08
3.61447e-08
2.51595e-08
2.51595e-08
1.71479e-08
1.71479e-08
1.1411e-08
1.1411e-08
7.3878e-09
7.3878e-09
4.63326e-09
4.63326e-09
2.79929e-09
2.79929e-09
1.61783e-09
1.61783e-09
8.86158e-10
8.86158e-10
4.54326e-10
4.54326e-10
2.14277e-10
2.14277e-10
9.06785e-11
9.06785e-11
3.31637e-11
3.31637e-11
9.8827e-12
9.8827e-12
2.19012e-12
2.19012e-12
3.42879e-13
3.42879e-13
9.33855e-14
9.33855e-14
9.5521e-14
9.5521e-14
0.00644278
0.00644278
0.00644625
0.00644625
0.00645293
0.00645293
0.00646249
0.00646249
0.00647457
0.00647457
0.00648877
0.00648877
0.00650465
0.00650465
0.00652176
0.00652176
0.00653964
0.00653964
0.00655786
0.00655786
0.00657604
0.00657604
0.00659378
0.00659378
0.00661074
0.00661074
0.00662662
0.00662662
0.0066412
0.0066412
0.00665432
0.00665432
0.00666587
0.00666587
0.00667575
0.00667575
0.00668387
0.00668387
0.00669017
0.00669017
0.00669462
0.00669462
0.00669719
0.00669719
0.00669788
0.00669788
0.00669666
0.00669666
0.00669351
0.00669351
0.00668836
0.00668836
0.00668118
0.00668118
0.00667196
0.00667196
0.00666073
0.00666073
0.0066476
0.0066476
0.00663268
0.00663268
0.00661612
0.00661612
0.00659803
0.00659803
0.00657849
0.00657849
0.00655758
0.00655758
0.00653535
0.00653535
0.00651185
0.00651185
0.0064871
0.0064871
0.00646112
0.00646112
0.00643394
0.00643394
0.00640558
0.00640558
0.00637607
0.00637607
0.00634544
0.00634544
0.00631371
0.00631371
0.0062809
0.0062809
0.00624702
0.00624702
0.00621209
0.00621209
0.00617611
0.00617611
0.00613911
0.00613911
0.00610111
0.00610111
0.00606213
0.00606213
0.00602221
0.00602221
0.00598139
0.00598139
0.00593971
0.00593971
0.00589724
0.00589724
0.00585402
0.00585402
0.00581012
0.00581012
0.0057656
0.0057656
0.00572052
0.00572052
0.00567494
0.00567494
0.00562892
0.00562892
0.00558247
0.00558247
0.00553564
0.00553564
0.00548844
0.00548844
0.0054409
0.0054409
0.00539304
0.00539304
0.00534491
0.00534491
0.00529656
0.00529656
0.00524803
0.00524803
0.00519936
0.00519936
0.00515058
0.00515058
0.0051017
0.0051017
0.00505275
0.00505275
0.00500373
0.00500373
0.00495463
0.00495463
0.00490548
0.00490548
0.00485628
0.00485628
0.00480704
0.00480704
0.00475778
0.00475778
0.00470851
0.00470851
0.00465926
0.00465926
0.00461005
0.00461005
0.00456089
0.00456089
0.00451181
0.00451181
0.00446283
0.00446283
0.00441396
0.00441396
0.00436521
0.00436521
0.0043166
0.0043166
0.00426814
0.00426814
0.00421983
0.00421983
0.00417169
0.00417169
0.00412372
0.00412372
0.00407593
0.00407593
0.00402833
0.00402833
0.00398093
0.00398093
0.00393374
0.00393374
0.00388676
0.00388676
0.00384001
0.00384001
0.00379349
0.00379349
0.00374721
0.00374721
0.00370116
0.00370116
0.00365536
0.00365536
0.0036098
0.0036098
0.00356448
0.00356448
0.0035194
0.0035194
0.00347458
0.00347458
0.00343
0.00343
0.00338567
0.00338567
0.00334159
0.00334159
0.00329777
0.00329777
0.0032542
0.0032542
0.00321088
0.00321088
0.00316782
0.00316782
0.00312503
0.00312503
0.00308249
0.00308249
0.0030402
0.0030402
0.00299818
0.00299818
0.00295642
0.00295642
0.00291492
0.00291492
0.00287368
0.00287368
0.0028327
0.0028327
0.00279199
0.00279199
0.00275155
0.00275155
0.00271139
0.00271139
0.0026715
0.0026715
0.00263188
0.00263188
0.00259255
0.00259255
0.0025535
0.0025535
0.00251473
0.00251473
0.00247624
0.00247624
0.00243805
0.00243805
0.00240014
0.00240014
0.00236252
0.00236252
0.00232519
0.00232519
0.00228814
0.00228814
0.00225139
0.00225139
0.00221493
0.00221493
0.00217876
0.00217876
0.00214288
0.00214288
0.00210729
0.00210729
0.002072
0.002072
0.002037
0.002037
0.0020023
0.0020023
0.00196789
0.00196789
0.00193378
0.00193378
0.00189997
0.00189997
0.00186646
0.00186646
0.00183326
0.00183326
0.00180035
0.00180035
0.00176775
0.00176775
0.00173545
0.00173545
0.00170346
0.00170346
0.00167178
0.00167178
0.0016404
0.0016404
0.00160934
0.00160934
0.00157858
0.00157858
0.00154814
0.00154814
0.00151801
0.00151801
0.0014882
0.0014882
0.00145872
0.00145872
0.00142956
0.00142956
0.00140073
0.00140073
0.00137223
0.00137223
0.00134406
0.00134406
0.00131624
0.00131624
0.00128876
0.00128876
0.00126163
0.00126163
0.00123486
0.00123486
0.00120844
0.00120844
0.00118238
0.00118238
0.00115668
0.00115668
0.00113136
0.00113136
0.00110641
0.00110641
0.00108183
0.00108183
0.00105764
0.00105764
0.00103383
0.00103383
0.00101041
0.00101041
0.000987371
0.000987371
0.000964731
0.000964731
0.000942485
0.000942485
0.000920637
0.000920637
0.000899188
0.000899188
0.00087814
0.00087814
0.000857494
0.000857494
0.00083725
0.00083725
0.000817409
0.000817409
0.000797971
0.000797971
0.000778934
0.000778934
0.000760298
0.000760298
0.00074206
0.00074206
0.000724219
0.000724219
0.000706772
0.000706772
0.000689716
0.000689716
0.000673046
0.000673046
0.000656759
0.000656759
0.000640849
0.000640849
0.000625312
0.000625312
0.000610141
0.000610141
0.00059533
0.00059533
0.000580873
0.000580873
0.000566762
0.000566762
0.00055299
0.00055299
0.000539549
0.000539549
0.00052643
0.00052643
0.000513626
0.000513626
0.000501126
0.000501126
0.000488923
0.000488923
0.000477006
0.000477006
0.000465366
0.000465366
0.000453993
0.000453993
0.000442878
0.000442878
0.000432011
0.000432011
0.000421382
0.000421382
0.000410981
0.000410981
0.000400798
0.000400798
0.000390824
0.000390824
0.000381049
0.000381049
0.000371464
0.000371464
0.000362059
0.000362059
0.000352825
0.000352825
0.000343753
0.000343753
0.000334835
0.000334835
0.000326063
0.000326063
0.000317428
0.000317428
0.000308923
0.000308923
0.00030054
0.00030054
0.000292273
0.000292273
0.000284116
0.000284116
0.000276061
0.000276061
0.000268104
0.000268104
0.000260239
0.000260239
0.000252461
0.000252461
0.000244766
0.000244766
0.000237151
0.000237151
0.000229611
0.000229611
0.000222145
0.000222145
0.000214749
0.000214749
0.000207423
0.000207423
0.000200166
0.000200166
0.000192975
0.000192975
0.000185853
0.000185853
0.000178799
0.000178799
0.000171814
0.000171814
0.0001649
0.0001649
0.000158059
0.000158059
0.000151295
0.000151295
0.000144611
0.000144611
0.000138011
0.000138011
0.0001315
0.0001315
0.000125082
0.000125082
0.000118765
0.000118765
0.000112553
0.000112553
0.000106454
0.000106454
0.000100474
0.000100474
9.4622e-05
9.4622e-05
8.89048e-05
8.89048e-05
8.33307e-05
8.33307e-05
7.79078e-05
7.79078e-05
7.26442e-05
7.26442e-05
6.75481e-05
6.75481e-05
6.26274e-05
6.26274e-05
5.78897e-05
5.78897e-05
5.33422e-05
5.33422e-05
4.89914e-05
4.89914e-05
4.4843e-05
4.4843e-05
4.0902e-05
4.0902e-05
3.71721e-05
3.71721e-05
3.36561e-05
3.36561e-05
3.03555e-05
3.03555e-05
2.72704e-05
2.72704e-05
2.43995e-05
2.43995e-05
2.17402e-05
2.17402e-05
1.92886e-05
1.92886e-05
1.70393e-05
1.70393e-05
1.49859e-05
1.49859e-05
1.31206e-05
1.31206e-05
1.14349e-05
1.14349e-05
9.91925e-06
9.91925e-06
8.56369e-06
8.56369e-06
7.35765e-06
7.35765e-06
6.29033e-06
6.29033e-06
5.35081e-06
5.35081e-06
4.52824e-06
4.52824e-06
3.81197e-06
3.81197e-06
3.19168e-06
3.19168e-06
2.65748e-06
2.65748e-06
2.20002e-06
2.20002e-06
1.8105e-06
1.8105e-06
1.48076e-06
1.48076e-06
1.2033e-06
1.2033e-06
9.71248e-07
9.71248e-07
7.78409e-07
7.78409e-07
6.19206e-07
6.19206e-07
4.88671e-07
4.88671e-07
3.8241e-07
3.8241e-07
2.96564e-07
2.96564e-07
2.27768e-07
2.27768e-07
1.73106e-07
1.73106e-07
1.30073e-07
1.30073e-07
9.6532e-08
9.6532e-08
7.06703e-08
7.06703e-08
5.09647e-08
5.09647e-08
3.61447e-08
3.61447e-08
2.51595e-08
2.51595e-08
1.71479e-08
1.71479e-08
1.1411e-08
1.1411e-08
7.3878e-09
7.3878e-09
4.63326e-09
4.63326e-09
2.79929e-09
2.79929e-09
1.61782e-09
1.61782e-09
8.86158e-10
8.86158e-10
4.54325e-10
4.54325e-10
2.14277e-10
2.14277e-10
9.06785e-11
9.06785e-11
3.31636e-11
3.31636e-11
9.88269e-12
9.88269e-12
2.19012e-12
2.19012e-12
3.42879e-13
3.42879e-13
9.33855e-14
9.33855e-14
9.55209e-14
9.55209e-14
)
;

boundaryField
{
    walls
    {
        type            nutUWallFunction;
        blending        stepwise;
        Cmu             0.09;
        kappa           0.41;