/*--------------------------------*- C++ -*----------------------------------*\
| =========                 |                                                 |
| \\      /  F ield         | OpenFOAM: The Open Source CFD Toolbox           |
|  \\    /   O peration     | Version:  2012                                  |
|   \\  /    A nd           | Website:  www.openfoam.com                      |
|    \\/     M anipulation  |                                                 |
\*---------------------------------------------------------------------------*/
FoamFile
{
    version     2.0;
    format      ascii;
    class       surfaceScalarField;
    location    "12000";
    object      phi;
}
// * * * * * * * * * * * * * * * * * * * * * * * * * * * * * * * * * * * * * //

dimensions      [0 3 -1 0 0 0 0];
oriented        oriented;


internalField   nonuniform List<scalar> 
5116
(
1.53094e-08
-1.10631e-13
2.71732e-15
1.81047e-14
2.67881e-15
4.68171e-08
-1.24976e-13
4.25e-15
6.61056e-14
4.1836e-15
7.96942e-08
-1.35638e-13
4.43823e-15
6.40078e-14
4.36941e-15
1.13987e-07
-1.47118e-13
4.63459e-15
6.48981e-14
4.56381e-15
1.49742e-07
-1.55548e-13
4.83958e-15
4.76275e-14
4.76668e-15
1.87008e-07
-1.65568e-13
5.05363e-15
2.75865e-14
4.97822e-15
2.25835e-07
-1.73099e-13
5.27719e-15
1.00574e-14
5.19879e-15
2.66274e-07
-1.8381e-13
5.51063e-15
-1.10688e-14
5.42882e-15
3.08378e-07
-1.91216e-13
5.75441e-15
-2.29888e-14
5.6689e-15
3.52199e-07
-2.02244e-13
6.00892e-15
-3.77482e-14
5.91947e-15
3.97794e-07
-2.09522e-13
6.27467e-15
-4.50356e-14
6.1811e-15
4.45218e-07
-2.20544e-13
6.5521e-15
-5.35251e-14
6.45425e-15
4.94528e-07
-2.2789e-13
6.84177e-15
-5.86391e-14
6.73949e-15
5.45785e-07
-2.39107e-13
7.14414e-15
-6.37748e-14
7.03731e-15
5.99046e-07
-2.46727e-13
7.45979e-15
-6.9024e-14
7.34823e-15
6.54374e-07
-2.58468e-13
7.78922e-15
-7.36591e-14
7.67281e-15
7.11831e-07
-2.66602e-13
8.13302e-15
-8.01858e-14
8.01154e-15
7.71479e-07
-2.79103e-13
8.4917e-15
-8.58917e-14
8.36501e-15
8.33384e-07
-2.87785e-13
8.86587e-15
-9.39608e-14
8.73373e-15
8.97609e-07
-3.0116e-13
9.25603e-15
-1.01175e-13
9.11826e-15
9.64222e-07
-3.10492e-13
9.66277e-15
-1.10583e-13
9.51909e-15
1.03329e-06
-3.24862e-13
1.00865e-14
-1.19133e-13
9.93677e-15
1.10488e-06
-3.34825e-13
1.05279e-14
-1.29693e-13
1.03717e-14
1.17906e-06
-3.50149e-13
1.09873e-14
-1.39441e-13
1.08245e-14
1.25589e-06
-3.60739e-13
1.14651e-14
-1.51015e-13
1.12953e-14
1.33546e-06
-3.7698e-13
1.19615e-14
-1.61732e-13
1.17847e-14
1.41782e-06
-3.88229e-13
1.24769e-14
-1.74369e-13
1.22926e-14
1.50304e-06
-4.05271e-13
1.30113e-14
-1.86109e-13
1.28194e-14
1.5912e-06
-4.17112e-13
1.35648e-14
-1.99967e-13
1.33649e-14
1.68237e-06
-4.34587e-13
1.4137e-14
-2.1321e-13
1.39289e-14
1.77661e-06
-4.47196e-13
1.47277e-14
-2.28413e-13
1.45111e-14
1.87399e-06
-4.65517e-13
1.53362e-14
-2.42637e-13
1.51109e-14
1.97458e-06
-4.79004e-13
1.59618e-14
-2.5923e-13
1.57274e-14
2.07845e-06
-4.9801e-13
1.66032e-14
-2.74999e-13
1.63597e-14
2.18567e-06
-5.12605e-13
1.72591e-14
-2.93099e-13
1.70063e-14
2.2963e-06
-5.32457e-13
1.79278e-14
-3.10356e-13
1.76656e-14
2.4104e-06
-5.48273e-13
1.86077e-14
-3.2996e-13
1.83357e-14
2.52804e-06
-5.69349e-13
1.92962e-14
-3.48437e-13
1.90143e-14
2.64928e-06
-5.86603e-13
1.99908e-14
-3.69512e-13
1.9699e-14
2.77419e-06
-6.08655e-13
2.06887e-14
-3.89775e-13
2.03871e-14
2.90281e-06
-6.27383e-13
2.13874e-14
-4.12595e-13
2.10758e-14
3.03522e-06
-6.50596e-13
2.20836e-14
-4.3444e-13
2.17621e-14
3.17145e-06
-6.70908e-13
2.27742e-14
-4.58807e-13
2.24428e-14
3.31157e-06
-6.95617e-13
2.34561e-14
-4.8166e-13
2.31151e-14
3.45563e-06
-7.17659e-13
2.41269e-14
-5.07431e-13
2.37762e-14
3.60368e-06
-7.44577e-13
2.47836e-14
-5.30639e-13
2.44235e-14
3.75575e-06
-7.68181e-13
2.54236e-14
-5.57719e-13
2.50544e-14
3.91191e-06
-7.96289e-13
2.60452e-14
-5.85084e-13
2.56674e-14
4.07218e-06
-8.21203e-13
2.66478e-14
-6.13238e-13
2.62619e-14
4.23661e-06
-8.50791e-13
2.72306e-14
-6.42313e-13
2.68367e-14
4.40524e-06
-8.76877e-13
2.77929e-14
-6.7081e-13
2.73905e-14
4.57809e-06
-9.08007e-13
2.83335e-14
-6.9883e-13
2.79228e-14
4.75521e-06
-9.35042e-13
2.88544e-14
-7.27569e-13
2.84361e-14
4.93661e-06
-9.65905e-13
2.93577e-14
-7.58346e-13
2.89323e-14
5.12234e-06
-9.93672e-13
2.98431e-14
-7.88096e-13
2.94113e-14
5.3124e-06
-1.02573e-12
3.03119e-14
-8.17802e-13
2.98737e-14
5.50683e-06
-1.05441e-12
3.07692e-14
-8.4824e-13
3.03238e-14
5.70564e-06
-1.08741e-12
3.12194e-14
-8.78589e-13
3.07667e-14
5.90885e-06
-1.11689e-12
3.16612e-14
-9.10302e-13
3.12026e-14
6.11648e-06
-1.15004e-12
3.20951e-14
-9.43249e-13
3.16311e-14
6.32854e-06
-1.18026e-12
3.25287e-14
-9.76804e-13
3.20581e-14
6.54504e-06
-1.2146e-12
3.29651e-14
-1.00903e-12
3.24879e-14
6.76598e-06
-1.24578e-12
3.34023e-14
-1.04376e-12
3.29194e-14
6.99139e-06
-1.28064e-12
3.38474e-14
-1.0777e-12
3.33585e-14
7.22126e-06
-1.31273e-12
3.43037e-14
-1.11409e-12
3.38077e-14
7.4556e-06
-1.34902e-12
3.47665e-14
-1.1501e-12
3.42642e-14
7.69441e-06
-1.38215e-12
3.52418e-14
-1.18755e-12
3.47332e-14
7.9377e-06
-1.41971e-12
3.5732e-14
-1.22676e-12
3.52167e-14
8.18547e-06
-1.45381e-12
3.62379e-14
-1.26476e-12
3.57162e-14
8.43772e-06
-1.49227e-12
3.6766e-14
-1.30328e-12
3.62371e-14
8.69445e-06
-1.52736e-12
3.73166e-14
-1.34135e-12
3.67784e-14
8.95567e-06
-1.56693e-12
3.78868e-14
-1.37881e-12
3.73394e-14
9.22138e-06
-1.60319e-12
3.84777e-14
-1.4179e-12
3.79224e-14
9.49157e-06
-1.64375e-12
3.90912e-14
-1.45826e-12
3.85283e-14
9.76626e-06
-1.68125e-12
3.97314e-14
-1.499e-12
3.91596e-14
1.00454e-05
-1.7235e-12
4.04014e-14
-1.53985e-12
3.98195e-14
1.03291e-05
-1.76246e-12
4.10985e-14
-1.58179e-12
4.05066e-14
1.06173e-05
-1.80586e-12
4.18218e-14
-1.62585e-12
4.12199e-14
1.091e-05
-1.84623e-12
4.25742e-14
-1.66923e-12
4.19617e-14
1.12072e-05
-1.89137e-12
4.33561e-14
-1.7144e-12
4.27333e-14
1.15089e-05
-1.93337e-12
4.41703e-14
-1.75886e-12
4.35366e-14
1.18152e-05
-1.9802e-12
4.50199e-14
-1.80378e-12
4.43728e-14
1.2126e-05
-2.02384e-12
4.59014e-14
-1.84968e-12
4.52402e-14
1.24414e-05
-2.07216e-12
4.68112e-14
-1.89711e-12
4.61376e-14
1.27613e-05
-2.11757e-12
4.77561e-14
-1.94519e-12
4.70698e-14
1.30859e-05
-2.16815e-12
4.87376e-14
-1.99551e-12
4.80372e-14
1.34151e-05
-2.21552e-12
4.97507e-14
-2.0456e-12
4.90359e-14
1.3749e-05
-2.26822e-12
5.07979e-14
-2.0981e-12
5.0069e-14
1.40875e-05
-2.31756e-12
5.18856e-14
-2.14992e-12
5.1141e-14
1.44307e-05
-2.37221e-12
5.30106e-14
-2.20411e-12
5.22486e-14
1.47787e-05
-2.42365e-12
5.41677e-14
-2.2578e-12
5.33886e-14
1.51315e-05
-2.4804e-12
5.53611e-14
-2.31464e-12
5.45654e-14
1.54892e-05
-2.53413e-12
5.65947e-14
-2.37041e-12
5.57815e-14
1.58517e-05
-2.59321e-12
5.78627e-14
-2.42818e-12
5.70309e-14
1.62191e-05
-2.64946e-12
5.91678e-14
-2.4862e-12
5.83163e-14
1.65915e-05
-2.71098e-12
6.05217e-14
-2.54731e-12
5.96493e-14
1.69689e-05
-2.76994e-12
6.1913e-14
-2.60823e-12
6.10203e-14
1.73515e-05
-2.83433e-12
6.33296e-14
-2.67229e-12
6.2418e-14
1.77392e-05
-2.89618e-12
6.47859e-14
-2.73607e-12
6.3854e-14
1.81321e-05
-2.9633e-12
6.62924e-14
-2.80248e-12
6.53375e-14
1.85304e-05
-3.0282e-12
6.78395e-14
-2.86935e-12
6.68601e-14
1.8934e-05
-3.09834e-12
6.9415e-14
-2.93923e-12
6.84133e-14
1.93431e-05
-3.16648e-12
7.10327e-14
-3.00943e-12
7.0008e-14
1.97578e-05
-3.24006e-12
7.26955e-14
-3.08313e-12
7.1645e-14
2.01781e-05
-3.31161e-12
7.43912e-14
-3.15663e-12
7.33163e-14
2.06042e-05
-3.3886e-12
7.61253e-14
-3.23331e-12
7.50269e-14
2.10361e-05
-3.46367e-12
7.79034e-14
-3.31011e-12
7.6778e-14
2.14739e-05
-3.54415e-12
7.97269e-14
-3.3899e-12
7.85719e-14
2.19178e-05
-3.62294e-12
8.1584e-14
-3.47018e-12
8.04016e-14
2.23679e-05
-3.70707e-12
8.34719e-14
-3.55386e-12
8.22632e-14
2.28243e-05
-3.78975e-12
8.5413e-14
-3.63794e-12
8.41749e-14
2.3287e-05
-3.87792e-12
8.74e-14
-3.72556e-12
8.61299e-14
2.37564e-05
-3.9647e-12
8.9419e-14
-3.81355e-12
8.8118e-14
2.42324e-05
-4.05697e-12
9.14723e-14
-3.90515e-12
9.0143e-14
2.47152e-05
-4.14797e-12
9.35692e-14
-3.99725e-12
9.2209e-14
2.52049e-05
-4.24444e-12
9.57156e-14
-4.09304e-12
9.43203e-14
2.57018e-05
-4.33984e-12
9.79018e-14
-4.18955e-12
9.64728e-14
2.6206e-05
-4.44071e-12
1.00124e-13
-4.29014e-12
9.86641e-14
2.67175e-05
-4.54068e-12
1.02392e-13
-4.3912e-12
1.00897e-13
2.72366e-05
-4.64617e-12
1.04711e-13
-4.49574e-12
1.03179e-13
2.77635e-05
-4.75092e-12
1.07074e-13
-4.60152e-12
1.05504e-13
2.82983e-05
-4.86124e-12
1.09479e-13
-4.7118e-12
1.07873e-13
2.88412e-05
-4.97092e-12
1.11925e-13
-4.82259e-12
1.10283e-13
2.93923e-05
-5.08626e-12
1.14418e-13
-4.93771e-12
1.12739e-13
2.99519e-05
-5.20106e-12
1.1697e-13
-5.05341e-12
1.15251e-13
3.05202e-05
-5.32158e-12
1.19575e-13
-5.1735e-12
1.17813e-13
3.10973e-05
-5.4417e-12
1.22231e-13
-5.29427e-12
1.20426e-13
3.16834e-05
-5.56755e-12
1.24928e-13
-5.41979e-12
1.23084e-13
3.22787e-05
-5.69317e-12
1.27686e-13
-5.54582e-12
1.25799e-13
3.28835e-05
-5.82463e-12
1.30511e-13
-5.67651e-12
1.28577e-13
3.3498e-05
-5.95604e-12
1.33386e-13
-5.80797e-12
1.31406e-13
3.41223e-05
-6.09332e-12
1.36322e-13
-5.94434e-12
1.34297e-13
3.47567e-05
-6.23073e-12
1.39324e-13
-6.08155e-12
1.37251e-13
3.54014e-05
-6.37411e-12
1.42398e-13
-6.22374e-12
1.40274e-13
3.60567e-05
-6.5178e-12
1.45537e-13
-6.367e-12
1.43363e-13
3.67227e-05
-6.66755e-12
1.48746e-13
-6.51561e-12
1.46521e-13
3.73996e-05
-6.8178e-12
1.52034e-13
-6.66525e-12
1.49755e-13
3.80878e-05
-6.97418e-12
1.55397e-13
-6.82041e-12
1.53065e-13
3.87875e-05
-7.13131e-12
1.58842e-13
-6.97669e-12
1.56454e-13
3.94988e-05
-7.29466e-12
1.62375e-13
-7.13845e-12
1.59927e-13
4.02221e-05
-7.45901e-12
1.65993e-13
-7.30173e-12
1.63485e-13
4.09575e-05
-7.62969e-12
1.69702e-13
-7.47089e-12
1.67134e-13
4.17053e-05
-7.80163e-12
1.73506e-13
-7.64162e-12
1.70876e-13
4.24658e-05
-7.98002e-12
1.77408e-13
-7.81839e-12
1.74714e-13
4.32392e-05
-8.15995e-12
1.8142e-13
-7.99689e-12
1.78656e-13
4.40257e-05
-8.34647e-12
1.85537e-13
-8.18145e-12
1.82703e-13
4.48257e-05
-8.53484e-12
1.89761e-13
-8.36816e-12
1.86857e-13
4.56393e-05
-8.72991e-12
1.94104e-13
-8.56125e-12
1.91127e-13
4.64668e-05
-8.92718e-12
1.98568e-13
-8.75667e-12
1.95514e-13
4.73086e-05
-9.1313e-12
2.03156e-13
-8.95869e-12
2.00024e-13
4.81647e-05
-9.33799e-12
2.07874e-13
-9.16328e-12
2.04662e-13
4.90356e-05
-9.5517e-12
2.12729e-13
-9.37458e-12
2.09433e-13
4.99214e-05
-9.76835e-12
2.17724e-13
-9.58886e-12
2.1434e-13
5.08224e-05
-9.99223e-12
2.22863e-13
-9.81013e-12
2.19391e-13
5.1739e-05
-1.02194e-11
2.28152e-13
-1.00347e-11
2.24589e-13
5.26713e-05
-1.04541e-11
2.33599e-13
-1.02666e-11
2.29941e-13
5.36197e-05
-1.06925e-11
2.3921e-13
-1.05021e-11
2.35451e-13
5.45844e-05
-1.09386e-11
2.44993e-13
-1.07452e-11
2.41127e-13
5.55657e-05
-1.11889e-11
2.50943e-13
-1.09923e-11
2.46974e-13
5.65639e-05
-1.14472e-11
2.57071e-13
-1.12474e-11
2.52994e-13
5.75792e-05
-1.171e-11
2.63393e-13
-1.15068e-11
2.59199e-13
5.86119e-05
-1.19813e-11
2.6991e-13
-1.17746e-11
2.65595e-13
5.96624e-05
-1.22575e-11
2.76622e-13
-1.2047e-11
2.72185e-13
6.07308e-05
-1.25425e-11
2.83539e-13
-1.23283e-11
2.78978e-13
6.18175e-05
-1.28329e-11
2.90674e-13
-1.26145e-11
2.85982e-13
6.29227e-05
-1.31326e-11
2.9804e-13
-1.29101e-11
2.93201e-13
6.40468e-05
-1.3438e-11
3.05634e-13
-1.3211e-11
3.00646e-13
6.519e-05
-1.37532e-11
3.13451e-13
-1.35218e-11
3.08319e-13
6.63526e-05
-1.40747e-11
3.21518e-13
-1.38384e-11
3.16236e-13
6.75348e-05
-1.44065e-11
3.29837e-13
-1.41654e-11
3.24389e-13
6.87372e-05
-1.47449e-11
3.38426e-13
-1.44985e-11
3.32819e-13
6.99599e-05
-1.50942e-11
3.47256e-13
-1.48426e-11
3.41469e-13
7.12032e-05
-1.54507e-11
3.56427e-13
-1.51933e-11
3.50473e-13
7.24676e-05
-1.58187e-11
3.65793e-13
-1.55557e-11
3.59607e-13
7.37534e-05
-1.61944e-11
3.75615e-13
-1.59252e-11
3.69308e-13
7.50609e-05
-1.65822e-11
3.85452e-13
-1.63068e-11
3.788e-13
7.63906e-05
-1.69783e-11
3.96121e-13
-1.66963e-11
3.89531e-13
7.77427e-05
-1.7387e-11
4.06238e-13
-1.7098e-11
3.98876e-13
7.91176e-05
-1.78052e-11
4.18212e-13
-1.75094e-11
4.11664e-13
8.05158e-05
-1.82356e-11
4.2796e-13
-1.79313e-11
4.19121e-13
8.19375e-05
-1.86778e-11
4.42359e-13
-1.83681e-11
4.37166e-13
8.33832e-05
-1.91304e-11
4.50085e-13
-1.88078e-11
4.37037e-13
8.48533e-05
-1.95998e-11
4.69617e-13
-1.92781e-11
4.71015e-13
8.6348e-05
-2.00737e-11
4.71436e-13
-1.9725e-11
4.44408e-13
8.78679e-05
-2.05749e-11
5.01591e-13
-2.02519e-11
5.2792e-13
8.94132e-05
-2.1068e-11
4.90755e-13
-2.0669e-11
4.14682e-13
9.09845e-05
-2.16061e-11
5.38441e-13
-2.13232e-11
6.55661e-13
9.25821e-05
-2.21207e-11
5.12466e-13
-2.15884e-11
2.63004e-13
9.42064e-05
-2.26847e-11
5.64584e-13
-2.25914e-11
1.00475e-12
9.58579e-05
-2.32643e-11
5.77338e-13
-2.36318e-11
1.03884e-12
9.7537e-05
-2.38218e-11
5.58506e-13
-2.39155e-11
2.85313e-13
9.92442e-05
-2.44436e-11
6.19723e-13
-2.46896e-11
7.72927e-13
0.00010098
-2.50371e-11
5.94709e-13
-2.51881e-11
5.00335e-13
0.000102745
-2.56862e-11
6.47453e-13
-2.5886e-11
6.97022e-13
0.000104539
-2.6323e-11
6.38068e-13
-2.64877e-11
6.03782e-13
0.000106363
-2.70019e-11
6.77631e-13
-2.71805e-11
6.92203e-13
0.000108218
-2.76822e-11
6.81693e-13
-2.78459e-11
6.67681e-13
0.000110104
-2.83958e-11
7.12762e-13
-2.85617e-11
7.15449e-13
0.000112022
-2.91199e-11
7.25497e-13
-2.92778e-11
7.18473e-13
0.000113971
-2.98729e-11
7.52427e-13
-3.00289e-11
7.51026e-13
0.000115953
-3.06419e-11
7.70489e-13
-3.07922e-11
7.65721e-13
0.000117968
-3.14381e-11
7.95979e-13
-3.1585e-11
7.93144e-13
0.000120016
-3.22543e-11
8.17531e-13
-3.23963e-11
8.13525e-13
0.000122098
-3.30973e-11
8.43112e-13
-3.32355e-11
8.39772e-13
0.000124215
-3.39632e-11
8.67215e-13
-3.40968e-11
8.63457e-13
0.000126367
-3.48565e-11
8.9372e-13
-3.49861e-11
8.90184e-13
0.000128554
-3.57754e-11
9.19974e-13
-3.59004e-11
9.16292e-13
0.000130777
-3.67226e-11
9.47868e-13
-3.68436e-11
9.44262e-13
0.000133036
-3.76978e-11
9.76151e-13
-3.78143e-11
9.72491e-13
0.000135333
-3.87026e-11
1.00571e-12
-3.88151e-11
1.00209e-12
0.000137668
-3.97379e-11
1.03599e-12
-3.98459e-11
1.03234e-12
0.000140041
-4.08043e-11
1.06746e-12
-4.09083e-11
1.06381e-12
0.000142452
-4.19036e-11
1.09984e-12
-4.20033e-11
1.0962e-12
0.000144904
-4.30357e-11
1.13337e-12
-4.31313e-11
1.12973e-12
0.000147396
-4.42035e-11
1.16795e-12
-4.42948e-11
1.16431e-12
0.000149929
-4.54057e-11
1.20372e-12
-4.54931e-11
1.2001e-12
0.000152503
-4.66464e-11
1.24063e-12
-4.67296e-11
1.23703e-12
0.000155119
-4.79235e-11
1.2788e-12
-4.80029e-11
1.27521e-12
0.000157778
-4.92421e-11
1.3182e-12
-4.93174e-11
1.31462e-12
0.00016048
-5.05993e-11
1.35892e-12
-5.06708e-11
1.35537e-12
0.000163226
-5.20008e-11
1.40101e-12
-5.20685e-11
1.39748e-12
0.000166017
-5.34434e-11
1.44448e-12
-5.35074e-11
1.44099e-12
0.000168854
-5.49336e-11
1.48941e-12
-5.49939e-11
1.48593e-12
0.000171737
-5.64675e-11
1.53581e-12
-5.65242e-11
1.53237e-12
0.000174667
-5.80522e-11
1.58378e-12
-5.81053e-11
1.58038e-12
0.000177645
-5.96834e-11
1.63334e-12
-5.97332e-11
1.62997e-12
0.000180673
-6.13691e-11
1.68459e-12
-6.14155e-11
1.68125e-12
0.00018375
-6.31046e-11
1.73759e-12
-6.31477e-11
1.73429e-12
0.000186877
-6.48982e-11
1.79231e-12
-6.49381e-11
1.78906e-12
0.000190055
-6.67448e-11
1.84887e-12
-6.67817e-11
1.84566e-12
0.000193286
-6.86536e-11
1.90737e-12
-6.86874e-11
1.90421e-12
0.000196568
-7.06191e-11
1.96786e-12
-7.06501e-11
1.96476e-12
0.000199905
-7.2651e-11
2.03042e-12
-7.26792e-11
2.02736e-12
0.000203295
-7.47437e-11
2.0951e-12
-7.47692e-11
2.0921e-12
0.000206741
-7.69073e-11
2.16196e-12
-7.69302e-11
2.15902e-12
0.000210243
-7.91359e-11
2.2311e-12
-7.91563e-11
2.22822e-12
0.000213802
-8.14401e-11
2.30258e-12
-8.14582e-11
2.29976e-12
0.00021742
-8.38141e-11
2.37657e-12
-8.38298e-11
2.37381e-12
0.000221097
-8.6269e-11
2.45313e-12
-8.62826e-11
2.45044e-12
0.000224834
-8.87986e-11
2.53229e-12
-8.88101e-11
2.52966e-12
0.000228633
-9.14147e-11
2.61422e-12
-9.14243e-11
2.61166e-12
0.000232494
-9.41108e-11
2.69895e-12
-9.41186e-11
2.69645e-12
0.000236418
-9.68995e-11
2.78668e-12
-9.69056e-11
2.78425e-12
0.000240405
-9.97743e-11
2.87752e-12
-9.97787e-11
2.87516e-12
0.000244456
-1.02748e-10
2.97149e-12
-1.02751e-10
2.96921e-12
0.000248573
-1.05814e-10
3.0688e-12
-1.05816e-10
3.06659e-12
0.000252755
-1.08986e-10
3.16954e-12
-1.08986e-10
3.16741e-12
0.000257003
-1.12257e-10
3.27383e-12
-1.12256e-10
3.27177e-12
0.000261319
-1.15642e-10
3.38179e-12
-1.1564e-10
3.37981e-12
0.000265703
-1.19133e-10
3.4936e-12
-1.1913e-10
3.49169e-12
0.000270158
-1.22745e-10
3.60939e-12
-1.22742e-10
3.60756e-12
0.000274685
-1.26473e-10
3.72922e-12
-1.26468e-10
3.72747e-12
0.000279286
-1.30329e-10
3.85328e-12
-1.30324e-10
3.8516e-12
0.000283962
-1.34309e-10
3.98183e-12
-1.34303e-10
3.98022e-12
0.000288715
-1.38428e-10
4.11506e-12
-1.38421e-10
4.11353e-12
0.000293546
-1.42679e-10
4.25302e-12
-1.42672e-10
4.25157e-12
0.000298455
-1.47079e-10
4.39601e-12
-1.47071e-10
4.39464e-12
0.000303443
-1.51622e-10
4.54438e-12
-1.51614e-10
4.54308e-12
0.000308511
-1.56323e-10
4.69796e-12
-1.56315e-10
4.69672e-12
0.000313658
-1.61179e-10
4.8572e-12
-1.61171e-10
4.85604e-12
0.000318887
-1.66204e-10
5.02247e-12
-1.66197e-10
5.02137e-12
0.000324201
-1.71397e-10
5.19386e-12
-1.71389e-10
5.19283e-12
0.000329601
-1.76772e-10
5.37162e-12
-1.76764e-10
5.37065e-12
0.000335088
-1.82326e-10
5.55585e-12
-1.82318e-10
5.55495e-12
0.000340666
-1.88076e-10
5.74723e-12
-1.88068e-10
5.74639e-12
0.000346333
-1.9402e-10
5.94579e-12
-1.94012e-10
5.94502e-12
0.000352093
-2.00175e-10
6.15209e-12
-2.00168e-10
6.15137e-12
0.000357944
-2.06539e-10
6.36629e-12
-2.06532e-10
6.36562e-12
0.000363888
-2.13131e-10
6.58878e-12
-2.13124e-10
6.58817e-12
0.000369925
-2.19948e-10
6.81973e-12
-2.19942e-10
6.81917e-12
0.000376056
-2.27012e-10
7.06016e-12
-2.27006e-10
7.05965e-12
0.000382283
-2.34319e-10
7.30941e-12
-2.34313e-10
7.30895e-12
0.000388605
-2.41893e-10
7.5693e-12
-2.41887e-10
7.56888e-12
0.000395022
-2.4973e-10
7.83826e-12
-2.49724e-10
7.83788e-12
0.000401537
-2.57854e-10
8.11945e-12
-2.57849e-10
8.11911e-12
0.00040815
-2.66262e-10
8.40949e-12
-2.66257e-10
8.40919e-12
0.000414862
-2.74981e-10
8.71412e-12
-2.74977e-10
8.71385e-12
0.000421675
-2.84008e-10
9.02646e-12
-2.84004e-10
9.02623e-12
0.000428591
-2.93371e-10
9.35722e-12
-2.93367e-10
9.35702e-12
0.00043561
-3.03064e-10
9.69279e-12
-3.03061e-10
9.69261e-12
0.000442736
-3.13123e-10
1.00532e-11
-3.1312e-10
1.00531e-11
0.000449968
-3.23537e-10
1.04123e-11
-3.23534e-10
1.04122e-11
0.000457309
-3.3435e-10
1.08075e-11
-3.34347e-10
1.08074e-11
0.000464759
-3.4554e-10
1.11884e-11
-3.45538e-10
1.11883e-11
0.000472319
-3.5717e-10
1.16261e-11
-3.57168e-10
1.1626e-11
0.000479993
-3.69194e-10
1.2024e-11
-3.69192e-10
1.20239e-11
0.000487782
-3.81713e-10
1.25172e-11
-3.81711e-10
1.25171e-11
0.000495691
-3.94631e-10
1.29211e-11
-3.94629e-10
1.2921e-11
0.00050372
-4.08123e-10
1.34921e-11
-4.08122e-10
1.34921e-11
0.000511872
-4.21994e-10
1.38789e-11
-4.21992e-10
1.38789e-11
0.000520153
-4.3656e-10
1.45679e-11
-4.36558e-10
1.45679e-11
0.000528564
-4.51439e-10
1.48924e-11
-4.51437e-10
1.48924e-11
0.000537105
-4.67206e-10
1.577e-11
-4.67205e-10
1.577e-11
0.000545773
-4.83133e-10
1.59445e-11
-4.83132e-10
1.59445e-11
0.000554565
-5.00274e-10
1.71434e-11
-5.00274e-10
1.71435e-11
0.000563477
-5.17257e-10
1.70012e-11
-5.17255e-10
1.70012e-11
0.000572509
-5.36015e-10
1.87583e-11
-5.36014e-10
1.87583e-11
0.000581664
-5.53977e-10
1.79826e-11
-5.53975e-10
1.79826e-11
0.000590946
-5.7472e-10
2.07413e-11
-5.7472e-10
2.07413e-11
0.000600357
-5.93439e-10
1.87412e-11
-5.93437e-10
1.87412e-11
0.000609899
-6.16773e-10
2.3326e-11
-6.16774e-10
2.33261e-11
0.000619574
-6.35741e-10
1.89883e-11
-6.3574e-10
1.89883e-11
0.00062938
-6.62683e-10
2.69223e-11
-6.62685e-10
2.69224e-11
0.000639317
-6.8087e-10
1.81983e-11
-6.80869e-10
1.81984e-11
0.000649387
-7.13167e-10
3.22706e-11
-7.13169e-10
3.22708e-11
0.000659591
-7.28548e-10
1.538e-11
-7.28547e-10
1.53802e-11
0.000669929
-7.69302e-10
4.07412e-11
-7.69301e-10
4.07416e-11
0.000680397
-7.78018e-10
8.70017e-12
-7.78018e-10
8.70026e-12
0.00069099
-8.32824e-10
5.48369e-11
-8.3282e-10
5.48375e-11
0.000701704
-8.27714e-10
-5.20187e-12
-8.27718e-10
-5.20203e-12
0.000712533
-9.06728e-10
7.90862e-11
-9.06715e-10
7.90871e-11
0.000723478
-8.74494e-10
-3.25065e-11
-8.7451e-10
-3.25076e-11
0.000734538
-9.96205e-10
1.21675e-10
-9.96192e-10
1.21673e-10
0.00074571
-9.12172e-10
-8.44318e-11
-9.12195e-10
-8.44339e-11
0.000756987
-1.10982e-09
1.97575e-10
-1.10981e-09
1.97573e-10
0.000768368
-9.29338e-10
-1.80731e-10
-9.29358e-10
-1.80733e-10
0.000779854
-1.06976e-09
1.4036e-10
-1.06975e-09
1.40357e-10
0.000791445
-7.28411e-10
-3.41083e-10
-7.28399e-10
-3.41085e-10
0.000803133
-5.6586e-10
-1.62336e-10
-5.65861e-10
-1.62343e-10
0.000814906
-5.66462e-10
1.52571e-12
-5.66465e-10
1.57895e-12
1.53094e-08
3.05664e-15
2.59988e-15
4.68171e-08
7.91663e-15
6.6634e-15
7.96942e-08
1.28558e-14
1.09097e-14
1.13987e-07
1.81364e-14
1.53411e-14
1.49742e-07
2.34562e-14
1.99733e-14
1.87008e-07
2.91837e-14
2.4804e-14
2.25835e-07
3.49071e-14
2.98553e-14
2.66274e-07
4.1115e-14
3.51243e-14
3.08377e-07
4.72927e-14
4.06336e-14
3.52199e-07
5.40224e-14
4.63841e-14
3.97794e-07
6.06869e-14
5.23904e-14
4.45218e-07
6.7979e-14
5.86669e-14
4.94528e-07
7.51851e-14
6.52132e-14
5.45785e-07
8.3086e-14
7.20578e-14
5.99046e-07
9.08745e-14
7.91893e-14
6.54374e-07
9.94316e-14
8.66415e-14
7.11831e-07
1.07863e-13
9.44e-14
7.71479e-07
1.17131e-13
1.02505e-13
8.33384e-07
1.26257e-13
1.1095e-13
8.97609e-07
1.36292e-13
1.19864e-13
9.64222e-07
1.46181e-13
1.29075e-13
1.03329e-06
1.57045e-13
1.38705e-13
1.10488e-06
1.67761e-13
1.48727e-13
1.17906e-06
1.79519e-13
1.59137e-13
1.25589e-06
1.91137e-13
1.70066e-13
1.33546e-06
2.03863e-13
1.81543e-13
1.41781e-06
2.16455e-13
1.93457e-13
1.50304e-06
2.30217e-13
2.05999e-13
1.5912e-06
2.43859e-13
2.18905e-13
1.68237e-06
2.58726e-13
2.32368e-13
1.77661e-06
2.73493e-13
2.46324e-13
1.87399e-06
2.89538e-13
2.60851e-13
1.97458e-06
3.05501e-13
2.75969e-13
2.07845e-06
3.22784e-13
2.91826e-13
2.18567e-06
3.40006e-13
3.0819e-13
2.2963e-06
3.58582e-13
3.25199e-13
2.4104e-06
3.77113e-13
3.42831e-13
2.52804e-06
3.97016e-13
3.61161e-13
2.64928e-06
4.16901e-13
3.80123e-13
2.77419e-06
4.38152e-13
3.99849e-13
2.90281e-06
4.59397e-13
4.20137e-13
3.03521e-06
4.82005e-13
4.41126e-13
3.17145e-06
5.04614e-13
4.62709e-13
3.31157e-06
5.28546e-13
4.84971e-13
3.45563e-06
5.52468e-13
5.07837e-13
3.60368e-06
5.77642e-13
5.31334e-13
3.75575e-06
6.02847e-13
5.55442e-13
3.91191e-06
6.29222e-13
5.80103e-13
4.07218e-06
6.55625e-13
6.05367e-13
4.23661e-06
6.83112e-13
6.31152e-13
4.40524e-06
7.10663e-13
6.57507e-13
4.57809e-06
7.39142e-13
6.84399e-13
4.75521e-06
7.67734e-13
7.11737e-13
4.93661e-06
7.97148e-13
7.39475e-13
5.12234e-06
8.26769e-13
7.67738e-13
5.3124e-06
8.57089e-13
7.96239e-13
5.50683e-06
8.87656e-13
8.25382e-13
5.70564e-06
9.18809e-13
8.54736e-13
5.90885e-06
9.5033e-13
8.84784e-13
6.11648e-06
9.82301e-13
9.15026e-13
6.32854e-06
1.01473e-12
9.45923e-13
6.54504e-06
1.04747e-12
9.76753e-13
6.76598e-06
1.08087e-12
1.00852e-12
6.99139e-06
1.11441e-12
1.0403e-12
7.22126e-06
1.14879e-12
1.07307e-12
7.4556e-06
1.18323e-12
1.10579e-12
7.69441e-06
1.21869e-12
1.13957e-12
7.9377e-06
1.25409e-12
1.17315e-12
8.18547e-06
1.29066e-12
1.20802e-12
8.43772e-06
1.32709e-12
1.24305e-12
8.69445e-06
1.3649e-12
1.27909e-12
8.95567e-06
1.40245e-12
1.31495e-12
9.22138e-06
1.44155e-12
1.35208e-12
9.49157e-06
1.48032e-12
1.389e-12
9.76626e-06
1.52085e-12
1.42739e-12
1.00454e-05
1.56099e-12
1.46591e-12
1.03291e-05
1.60305e-12
1.50568e-12
1.06173e-05
1.64467e-12
1.54533e-12
1.091e-05
1.6884e-12
1.58651e-12
1.12072e-05
1.73159e-12
1.62759e-12
1.15089e-05
1.77708e-12
1.6704e-12
1.18152e-05
1.82202e-12
1.71327e-12
1.2126e-05
1.86943e-12
1.75787e-12
1.24414e-05
1.9163e-12
1.80269e-12
1.27613e-05
1.96574e-12
1.84915e-12
1.30859e-05
2.01462e-12
1.89565e-12
1.34151e-05
2.06624e-12
1.94405e-12
1.3749e-05
2.11727e-12
1.99258e-12
1.40875e-05
2.17117e-12
2.04307e-12
1.44307e-05
2.2245e-12
2.09405e-12
1.47787e-05
2.28084e-12
2.14677e-12
1.51315e-05
2.33661e-12
2.19968e-12
1.54892e-05
2.39551e-12
2.25466e-12
1.58517e-05
2.45391e-12
2.31011e-12
1.62191e-05
2.51553e-12
2.36759e-12
1.65915e-05
2.57668e-12
2.42579e-12
1.69689e-05
2.64117e-12
2.48584e-12
1.73515e-05
2.70518e-12
2.54636e-12
1.77392e-05
2.77267e-12
2.60907e-12
1.81321e-05
2.83969e-12
2.67231e-12
1.85304e-05
2.91034e-12
2.73796e-12
1.8934e-05
2.98055e-12
2.80446e-12
1.93431e-05
3.05454e-12
2.87325e-12
1.97578e-05
3.1281e-12
2.9428e-12
2.01781e-05
3.20556e-12
3.01479e-12
2.06042e-05
3.28259e-12
3.08757e-12
2.10361e-05
3.36371e-12
3.16296e-12
2.14739e-05
3.44438e-12
3.23922e-12
2.19178e-05
3.5293e-12
3.31811e-12
2.23679e-05
3.61373e-12
3.39789e-12
2.28243e-05
3.70266e-12
3.48043e-12
2.3287e-05
3.79107e-12
3.56383e-12
2.37564e-05
3.88416e-12
3.65014e-12
2.42324e-05
3.9767e-12
3.73724e-12
2.47152e-05
4.07414e-12
3.82754e-12
2.52049e-05
4.171e-12
3.91872e-12
2.57018e-05
4.27295e-12
4.01315e-12
2.62059e-05
4.37431e-12
4.10838e-12
2.67175e-05
4.48098e-12
4.20712e-12
2.72366e-05
4.58704e-12
4.30668e-12
2.77635e-05
4.6986e-12
4.40991e-12
2.82983e-05
4.8095e-12
4.51392e-12
2.88412e-05
4.92618e-12
4.62184e-12
2.93923e-05
5.0421e-12
4.73063e-12
2.99519e-05
5.16407e-12
4.84342e-12
3.05202e-05
5.28531e-12
4.95689e-12
3.10973e-05
5.41285e-12
5.07474e-12
3.16834e-05
5.53967e-12
5.19322e-12
3.22787e-05
5.67296e-12
5.31633e-12
3.28835e-05
5.80557e-12
5.44018e-12
3.3498e-05
5.94488e-12
5.5688e-12
3.41223e-05
6.08352e-12
5.69807e-12
3.47567e-05
6.22909e-12
5.83238e-12
3.54014e-05
6.37407e-12
5.9675e-12
3.60567e-05
6.52618e-12
6.1078e-12
3.67227e-05
6.67779e-12
6.24888e-12
3.73996e-05
6.83675e-12
6.39542e-12
3.80878e-05
6.99533e-12
6.54284e-12
3.87875e-05
7.16145e-12
6.69596e-12
3.94988e-05
7.32736e-12
6.85005e-12
4.02221e-05
7.501e-12
7.01005e-12
4.09575e-05
7.6746e-12
7.17113e-12
4.17053e-05
7.85611e-12
7.33837e-12
4.24658e-05
8.0378e-12
7.50682e-12
4.32392e-05
8.22761e-12
7.68165e-12
4.40257e-05
8.41786e-12
7.85788e-12
4.48257e-05
8.61636e-12
8.04071e-12
4.56393e-05
8.81563e-12
8.22515e-12
4.64668e-05
9.02332e-12
8.41638e-12
4.73086e-05
9.23211e-12
8.60947e-12
4.81647e-05
9.44945e-12
8.80958e-12
4.90356e-05
9.66829e-12
9.01181e-12
4.99214e-05
9.89585e-12
9.22127e-12
5.08224e-05
1.01253e-11
9.43315e-12
5.1739e-05
1.03636e-11
9.6525e-12
5.26713e-05
1.06043e-11
9.8746e-12
5.36197e-05
1.08541e-11
1.01044e-11
5.45844e-05
1.11067e-11
1.03373e-11
5.55657e-05
1.13685e-11
1.05781e-11
5.65639e-05
1.16337e-11
1.08224e-11
5.75792e-05
1.19084e-11
1.1075e-11
5.86119e-05
1.21868e-11
1.13314e-11
5.96624e-05
1.24751e-11
1.15964e-11
6.07308e-05
1.27677e-11
1.18656e-11
6.18175e-05
1.30705e-11
1.21438e-11
6.29227e-05
1.33781e-11
1.24265e-11
6.40468e-05
1.36963e-11
1.27187e-11
6.519e-05
1.40198e-11
1.30158e-11
6.63525e-05
1.43544e-11
1.3323e-11
6.75348e-05
1.46949e-11
1.36355e-11
6.87372e-05
1.50471e-11
1.39587e-11
6.99598e-05
1.54056e-11
1.42875e-11
7.12032e-05
1.57763e-11
1.46277e-11
7.24676e-05
1.61541e-11
1.49738e-11
7.37534e-05
1.65447e-11
1.53323e-11
7.50609e-05
1.69431e-11
1.56968e-11
7.63906e-05
1.73548e-11
1.60749e-11
7.77427e-05
1.77754e-11
1.64587e-11
7.91176e-05
1.82091e-11
1.68591e-11
8.05158e-05
1.86545e-11
1.72616e-11
8.19375e-05
1.91095e-11
1.76905e-11
8.33832e-05
1.95856e-11
1.81053e-11
8.48532e-05
2.00547e-11
1.85811e-11
8.6348e-05
2.05801e-11
1.89785e-11
8.78679e-05
2.10313e-11
1.95606e-11
8.94132e-05
2.16738e-11
1.98252e-11
9.09845e-05
2.198e-11
2.07158e-11
9.25821e-05
2.29908e-11
2.04701e-11
9.42064e-05
2.26773e-11
2.23558e-11
9.58578e-05
2.23307e-11
2.43072e-11
9.7537e-05
2.34384e-11
2.40494e-11
9.92441e-05
2.3751e-11
2.51256e-11
0.00010098
2.45376e-11
2.54432e-11
0.000102745
2.5086e-11
2.624e-11
0.000104539
2.5796e-11
2.67815e-11
0.000106363
2.64452e-11
2.75048e-11
0.000108218
2.71583e-11
2.81502e-11
0.000110104
2.78671e-11
2.88734e-11
0.000112022
2.86099e-11
2.95829e-11
0.000113971
2.9367e-11
3.03337e-11
0.000115953
3.01503e-11
3.10944e-11
0.000117968
3.09542e-11
3.18846e-11
0.000120016
3.17827e-11
3.26942e-11
0.000122098
3.26351e-11
3.35302e-11
0.000124215
3.35127e-11
3.439e-11
0.000126367
3.44164e-11
3.52763e-11
0.000128554
3.53464e-11
3.61887e-11
0.000130777
3.63047e-11
3.71292e-11
0.000133036
3.72907e-11
3.80976e-11
0.000135333
3.83071e-11
3.90961e-11
0.000137668
3.93526e-11
4.01241e-11
0.00014004
4.04311e-11
4.11844e-11
0.000142452
4.15401e-11
4.2276e-11
0.000144904
4.26846e-11
4.34024e-11
0.000147396
4.38615e-11
4.45617e-11
0.000149929
4.50763e-11
4.57585e-11
0.000152503
4.63255e-11
4.69903e-11
0.000155119
4.76155e-11
4.82623e-11
0.000157778
4.89418e-11
4.95712e-11
0.00016048
5.03118e-11
5.09235e-11
0.000163226
5.17205e-11
5.2315e-11
0.000166017
5.31759e-11
5.37529e-11
0.000168854
5.46727e-11
5.52326e-11
0.000171737
5.62192e-11
5.67618e-11
0.000174667
5.781e-11
5.83358e-11
0.000177645
5.94539e-11
5.99627e-11
0.000180673
6.11451e-11
6.16373e-11
0.00018375
6.2893e-11
6.33686e-11
0.000186877
6.46916e-11
6.51509e-11
0.000190055
6.65505e-11
6.69937e-11
0.000193286
6.84638e-11
6.8891e-11
0.000196568
7.04415e-11
7.0853e-11
0.000199905
7.24776e-11
7.28735e-11
0.000203295
7.45823e-11
7.4963e-11
0.000206741
7.67496e-11
7.71152e-11
0.000210243
7.89901e-11
7.93409e-11
0.000213802
8.12977e-11
8.1634e-11
0.00021742
8.36836e-11
8.40056e-11
0.000221097
8.61414e-11
8.64494e-11
0.000224834
8.86828e-11
8.89771e-11
0.000228633
9.13014e-11
9.15822e-11
0.000232494
9.40092e-11
9.4277e-11
0.000236417
9.67999e-11
9.70548e-11
0.000240405
9.9686e-11
9.99285e-11
0.000244456
1.02661e-10
1.02891e-10
0.000248573
1.05738e-10
1.05957e-10
0.000252755
1.08911e-10
1.09118e-10
0.000257003
1.12193e-10
1.12388e-10
0.000261319
1.15577e-10
1.15762e-10
0.000265703
1.19078e-10
1.19253e-10
0.000270158
1.2269e-10
1.22854e-10
0.000274685
1.26426e-10
1.2658e-10
0.000279286
1.30281e-10
1.30426e-10
0.000283962
1.34269e-10
1.34405e-10
0.000288715
1.38386e-10
1.38513e-10
0.000293546
1.42644e-10
1.42764e-10
0.000298455
1.47042e-10
1.47153e-10
0.000303443
1.51592e-10
1.51695e-10
0.000308511
1.56291e-10
1.56388e-10
0.000313658
1.61154e-10
1.61243e-10
0.000318887
1.66178e-10
1.66261e-10
0.000324201
1.71377e-10
1.71454e-10
0.0003296
1.76751e-10
1.76821e-10
0.000335088
1.82312e-10
1.82377e-10
0.000340665