/*--------------------------------*- C++ -*----------------------------------*\
| =========                 |                                                 |
| \\      /  F ield         | OpenFOAM: The Open Source CFD Toolbox           |
|  \\    /   O peration     | Version:  2012                                  |
|   \\  /    A nd           | Website:  www.openfoam.com                      |
|    \\/     M anipulation  |                                                 |
\*---------------------------------------------------------------------------*/
FoamFile
{
    version     2.0;
    format      ascii;
    class       volSymmTensorField;
    location    "12000";
    object      turbulenceProperties:R;
}
// * * * * * * * * * * * * * * * * * * * * * * * * * * * * * * * * * * * * * //

dimensions      [0 2 -2 0 0 0 0];


internalField   nonuniform List<symmTensor> 
2560
(
(9.70584e-08 -2.79144e-12 -4.04099e-15 9.70584e-08 -1.34175e-19 9.70584e-08)
(9.70584e-08 -2.79144e-12 -4.04099e-15 9.70584e-08 -1.32734e-19 9.70584e-08)
(1.65085e-08 -2.72861e-12 -1.19082e-14 1.65085e-08 -1.18963e-20 1.65085e-08)
(1.65085e-08 -2.72861e-12 -1.19082e-14 1.65085e-08 -1.16373e-20 1.65085e-08)
(2.05462e-08 -1.00167e-11 -6.01256e-14 2.05462e-08 -2.40964e-20 2.05462e-08)
(2.05462e-08 -1.00167e-11 -6.01256e-14 2.05462e-08 -2.42774e-20 2.05462e-08)
(6.18843e-08 -6.39695e-11 -3.89557e-13 6.18843e-08 -2.04708e-19 6.18843e-08)
(6.18843e-08 -6.39695e-11 -3.89557e-13 6.18843e-08 -1.99607e-19 6.18843e-08)
(1.58269e-07 -2.88595e-10 -1.783e-12 1.58269e-07 -1.28917e-18 1.58269e-07)
(1.58269e-07 -2.88595e-10 -1.783e-12 1.58269e-07 -1.26055e-18 1.58269e-07)
(3.37291e-07 -9.68223e-10 -6.06879e-12 3.37291e-07 -6.23702e-18 3.37291e-07)
(3.37291e-07 -9.68223e-10 -6.06879e-12 3.37291e-07 -6.16038e-18 3.37291e-07)
(6.32088e-07 -2.6467e-09 -1.68304e-11 6.32088e-07 -2.47956e-17 6.32088e-07)
(6.32088e-07 -2.6467e-09 -1.68304e-11 6.32088e-07 -2.45982e-17 6.32088e-07)
(1.08079e-06 -6.2524e-09 -4.03365e-11 1.08079e-06 -8.41935e-17 1.08079e-06)
(1.08079e-06 -6.2524e-09 -4.03365e-11 1.08079e-06 -8.36763e-17 1.08079e-06)
(1.72657e-06 -1.32523e-08 -8.67368e-11 1.72657e-06 -2.51395e-16 1.72657e-06)
(1.72657e-06 -1.32523e-08 -8.67368e-11 1.72657e-06 -2.50338e-16 1.72657e-06)
(2.6178e-06 -2.58387e-08 -1.7157e-10 2.6178e-06 -6.75428e-16 2.6178e-06)
(2.6178e-06 -2.58387e-08 -1.7157e-10 2.6178e-06 -6.73016e-16 2.6178e-06)
(3.80834e-06 -4.71522e-08 -3.17636e-10 3.80834e-06 -1.66244e-15 3.80834e-06)
(3.80834e-06 -4.71522e-08 -3.17636e-10 3.80834e-06 -1.65774e-15 3.80834e-06)
(5.35781e-06 -8.15461e-08 -5.57297e-10 5.35781e-06 -3.80148e-15 5.35781e-06)
(5.35781e-06 -8.15461e-08 -5.57297e-10 5.35781e-06 -3.79307e-15 5.35781e-06)
(7.33193e-06 -1.34895e-07 -9.35264e-10 7.33193e-06 -8.16649e-15 7.33193e-06)
(7.33193e-06 -1.34895e-07 -9.35264e-10 7.33193e-06 -8.15082e-15 7.33193e-06)
(9.80287e-06 -2.14956e-07 -1.51195e-09 9.80287e-06 -9.91868e-15 9.80287e-06)
(9.80287e-06 -2.14956e-07 -1.51195e-09 9.80287e-06 -8.74777e-15 9.80287e-06)
(1.28496e-05 -3.31776e-07 -2.36747e-09 1.28496e-05 -5.59997e-15 1.28496e-05)
(1.28496e-05 -3.31776e-07 -2.36747e-09 1.28496e-05 -4.92209e-15 1.28496e-05)
(1.65582e-05 -4.98169e-07 -3.60632e-09 1.65582e-05 -4.85213e-15 1.65582e-05)
(1.65582e-05 -4.98169e-07 -3.60632e-09 1.65582e-05 -4.7302e-15 1.65582e-05)
(2.10225e-05 -7.30244e-07 -5.36293e-09 2.10225e-05 -7.96333e-15 2.10225e-05)
(2.10225e-05 -7.30244e-07 -5.36293e-09 2.10225e-05 -9.65488e-15 2.10225e-05)
(2.6344e-05 -1.048e-06 -7.80799e-09 2.6344e-05 -4.42237e-14 2.6344e-05)
(2.6344e-05 -1.048e-06 -7.80799e-09 2.6344e-05 -4.67236e-14 2.6344e-05)
(3.26328e-05 -1.47599e-06 -1.11559e-08 3.26328e-05 -1.14151e-13 3.26328e-05)
(3.26328e-05 -1.47599e-06 -1.11559e-08 3.26328e-05 -1.13981e-13 3.26328e-05)
(4.00073e-05 -2.04404e-06 -1.56728e-08 4.00073e-05 -1.79048e-13 4.00073e-05)
(4.00073e-05 -2.04404e-06 -1.56728e-08 4.00073e-05 -1.78807e-13 4.00073e-05)
(4.85953e-05 -2.78804e-06 -2.16867e-08 4.85953e-05 -2.7516e-13 4.85953e-05)
(4.85953e-05 -2.78804e-06 -2.16867e-08 4.85953e-05 -2.74825e-13 4.85953e-05)
(5.85335e-05 -3.75077e-06 -2.9597e-08 5.85335e-05 -4.14738e-13 5.85335e-05)
(5.85335e-05 -3.75077e-06 -2.9597e-08 5.85335e-05 -4.14278e-13 5.85335e-05)
(6.99682e-05 -4.98281e-06 -3.98871e-08 6.99682e-05 -6.14368e-13 6.99682e-05)
(6.99682e-05 -4.98281e-06 -3.98871e-08 6.99682e-05 -6.13745e-13 6.99682e-05)
(8.30554e-05 -6.54342e-06 -5.31363e-08 8.30554e-05 -8.9637e-13 8.30554e-05)
(8.30554e-05 -6.54342e-06 -5.31363e-08 8.30554e-05 -8.95544e-13 8.30554e-05)
(9.79606e-05 -8.50149e-06 -7.00336e-08 9.79606e-05 -1.28858e-12 9.79606e-05)
(9.79606e-05 -8.50149e-06 -7.00336e-08 9.79606e-05 -1.28748e-12 9.79606e-05)
(0.000114859 -1.09365e-05 -9.13924e-08 0.000114859 -1.82553e-12 0.000114859)
(0.000114859 -1.09365e-05 -9.13924e-08 0.000114859 -1.82409e-12 0.000114859)
(0.000133935 -1.39392e-05 -1.18165e-07 0.000133935 -2.55323e-12 0.000133935)
(0.000133935 -1.39392e-05 -1.18165e-07 0.000133935 -2.55138e-12 0.000133935)
(0.000155381 -1.76126e-05 -1.51458e-07 0.000155381 -3.53051e-12 0.000155381)
(0.000155381 -1.76126e-05 -1.51458e-07 0.000155381 -3.52811e-12 0.000155381)
(0.000179399 -2.20726e-05 -1.92546e-07 0.000179399 -4.8246e-12 0.000179399)
(0.000179399 -2.20726e-05 -1.92546e-07 0.000179399 -4.82156e-12 0.000179399)
(0.000206197 -2.74484e-05 -2.42888e-07 0.000206197 -6.51514e-12 0.000206197)
(0.000206197 -2.74484e-05 -2.42888e-07 0.000206197 -6.51131e-12 0.000206197)
(0.000235991 -3.38826e-05 -3.04139e-07 0.000235991 -8.70567e-12 0.000235991)
(0.000235991 -3.38826e-05 -3.04139e-07 0.000235991 -8.70101e-12 0.000235991)
(0.000268998 -4.15313e-05 -3.78159e-07 0.000268998 -1.15204e-11 0.000268998)
(0.000268998 -4.15313e-05 -3.78159e-07 0.000268998 -1.15145e-11 0.000268998)
(0.000305441 -5.05637e-05 -4.67022e-07 0.000305441 -1.50883e-11 0.000305441)
(0.000305441 -5.05637e-05 -4.67022e-07 0.000305441 -1.50809e-11 0.000305441)
(0.000345541 -6.11611e-05 -5.7302e-07 0.000345541 -1.95559e-11 0.000345541)
(0.000345541 -6.11611e-05 -5.7302e-07 0.000345541 -1.95469e-11 0.000345541)
(0.000389516 -7.35154e-05 -6.98661e-07 0.000389516 -2.51113e-11 0.000389516)
(0.000389516 -7.35154e-05 -6.98661e-07 0.000389516 -2.51005e-11 0.000389516)
(0.000437581 -8.78275e-05 -8.4666e-07 0.000437581 -3.19551e-11 0.000437581)
(0.000437581 -8.78275e-05 -8.4666e-07 0.000437581 -3.19424e-11 0.000437581)
(0.000489938 -0.000104305 -1.01993e-06 0.000489938 -4.02656e-11 0.000489938)
(0.000489938 -0.000104305 -1.01993e-06 0.000489938 -4.02503e-11 0.000489938)
(0.00054678 -0.000123157 -1.22154e-06 0.00054678 -5.02349e-11 0.00054678)
(0.00054678 -0.000123157 -1.22154e-06 0.00054678 -5.02163e-11 0.00054678)
(0.000608278 -0.000144594 -1.45472e-06 0.000608278 -6.21153e-11 0.000608278)
(0.000608278 -0.000144594 -1.45472e-06 0.000608278 -6.2093e-11 0.000608278)
(0.000674586 -0.000168821 -1.7228e-06 0.000674586 -7.61484e-11 0.000674586)
(0.000674586 -0.000168821 -1.7228e-06 0.000674586 -7.61228e-11 0.000674586)
(0.000745828 -0.000196033 -2.02915e-06 0.000745828 -9.24737e-11 0.000745828)
(0.000745828 -0.000196033 -2.02915e-06 0.000745828 -9.24441e-11 0.000745828)
(0.000822098 -0.000226411 -2.37714e-06 0.000822098 -1.112e-10 0.000822098)
(0.000822098 -0.000226411 -2.37714e-06 0.000822098 -1.11178e-10 0.000822098)
(0.000903454 -0.000260116 -2.77009e-06 0.000903454 -1.32545e-10 0.000903454)
(0.000903454 -0.000260116 -2.77009e-06 0.000903454 -1.3254e-10 0.000903454)
(0.000989916 -0.000297283 -3.21119e-06 0.000989916 -1.56674e-10 0.000989916)
(0.000989916 -0.000297283 -3.21119e-06 0.000989916 -1.56682e-10 0.000989916)
(0.00108146 -0.000338017 -3.70339e-06 0.00108146 -1.83521e-10 0.00108146)
(0.00108146 -0.000338017 -3.70339e-06 0.00108146 -1.83531e-10 0.00108146)
(0.00117801 -0.000382388 -4.2494e-06 0.00117801 -2.13068e-10 0.00117801)
(0.00117801 -0.000382388 -4.2494e-06 0.00117801 -2.13078e-10 0.00117801)
(0.00127946 -0.000430424 -4.85155e-06 0.00127946 -2.45572e-10 0.00127946)
(0.00127946 -0.000430424 -4.85155e-06 0.00127946 -2.4558e-10 0.00127946)
(0.00138562 -0.000482113 -5.51178e-06 0.00138562 -2.8106e-10 0.00138562)
(0.00138562 -0.000482113 -5.51178e-06 0.00138562 -2.81071e-10 0.00138562)
(0.00149629 -0.000537396 -6.23153e-06 0.00149629 -3.18312e-10 0.00149629)
(0.00149629 -0.000537396 -6.23153e-06 0.00149629 -3.18332e-10 0.00149629)
(0.0016112 -0.000596166 -7.0117e-06 0.0016112 -3.5814e-10 0.0016112)
(0.0016112 -0.000596166 -7.0117e-06 0.0016112 -3.58066e-10 0.0016112)
(0.00173003 -0.000658274 -7.85267e-06 0.00173003 -4.01757e-10 0.00173003)
(0.00173003 -0.000658274 -7.85267e-06 0.00173003 -4.01772e-10 0.00173003)
(0.00185242 -0.000723522 -8.75416e-06 0.00185242 -4.47131e-10 0.00185242)
(0.00185242 -0.000723522 -8.75416e-06 0.00185242 -4.47143e-10 0.00185242)
(0.00197798 -0.000791666 -9.71529e-06 0.00197798 -4.93948e-10 0.00197798)
(0.00197798 -0.000791666 -9.71529e-06 0.00197798 -4.93831e-10 0.00197798)
(0.00210628 -0.000862428 -1.07346e-05 0.00210628 -5.43617e-10 0.00210628)
(0.00210628 -0.000862428 -1.07346e-05 0.00210628 -5.43641e-10 0.00210628)
(0.00223685 -0.000935492 -1.18101e-05 0.00223685 -5.95931e-10 0.00223685)
(0.00223685 -0.000935492 -1.18101e-05 0.00223685 -5.9594e-10 0.00223685)
(0.00236922 -0.00101051 -1.29391e-05 0.00236922 -6.5027e-10 0.00236922)
(0.00236922 -0.00101051 -1.29391e-05 0.00236922 -6.50126e-10 0.00236922)
(0.00250288 -0.00108712 -1.41184e-05 0.00250288 -7.05617e-10 0.00250288)
(0.00250288 -0.00108712 -1.41184e-05 0.00250288 -7.0563e-10 0.00250288)
(0.00263732 -0.00116492 -1.53445e-05 0.00263732 -7.63981e-10 0.00263732)
(0.00263732 -0.00116492 -1.53445e-05 0.00263732 -7.63789e-10 0.00263732)
(0.00277204 -0.00124352 -1.66134e-05 0.00277204 -8.24067e-10 0.00277204)
(0.00277204 -0.00124352 -1.66134e-05 0.00277204 -8.24111e-10 0.00277204)
(0.00290652 -0.00132251 -1.79206e-05 0.00290652 -8.91597e-10 0.00290652)
(0.00290652 -0.00132251 -1.79206e-05 0.00290652 -8.91595e-10 0.00290652)
(0.00304026 -0.00140149 -1.92615e-05 0.00304026 -9.57539e-10 0.00304026)
(0.00304026 -0.00140149 -1.92615e-05 0.00304026 -9.57563e-10 0.00304026)
(0.00317278 -0.00148006 -2.06313e-05 0.00317278 -1.0253e-09 0.00317278)
(0.00317278 -0.00148006 -2.06313e-05 0.00317278 -1.02505e-09 0.00317278)
(0.00330361 -0.00155782 -2.20249e-05 0.00330361 -1.09684e-09 0.00330361)
(0.00330361 -0.00155782 -2.20249e-05 0.00330361 -1.09683e-09 0.00330361)
(0.00343231 -0.00163441 -2.34373e-05 0.00343231 -1.17749e-09 0.00343231)
(0.00343231 -0.00163441 -2.34373e-05 0.00343231 -1.17752e-09 0.00343231)
(0.00355845 -0.00170948 -2.48633e-05 0.00355845 -1.25606e-09 0.00355845)
(0.00355845 -0.00170948 -2.48633e-05 0.00355845 -1.25576e-09 0.00355845)
(0.00368167 -0.00178269 -2.62979e-05 0.00368166 -1.33325e-09 0.00368167)
(0.00368167 -0.00178269 -2.62979e-05 0.00368166 -1.33324e-09 0.00368167)
(0.00380158 -0.00185374 -2.77361e-05 0.00380158 -1.41964e-09 0.00380158)
(0.00380158 -0.00185374 -2.77361e-05 0.00380158 -1.41966e-09 0.00380158)
(0.00391789 -0.00192235 -2.91731e-05 0.00391789 -1.51343e-09 0.00391789)
(0.00391789 -0.00192235 -2.91731e-05 0.00391789 -1.51332e-09 0.00391789)
(0.00403029 -0.00198828 -3.06043e-05 0.00403029 -1.60097e-09 0.00403029)
(0.00403029 -0.00198828 -3.06043e-05 0.00403029 -1.60105e-09 0.00403029)
(0.00413854 -0.00205131 -3.20252e-05 0.00413854 -1.6966e-09 0.00413854)
(0.00413854 -0.00205131 -3.20252e-05 0.00413854 -1.69626e-09 0.00413854)
(0.00424243 -0.00211125 -3.34317e-05 0.00424243 -1.79265e-09 0.00424243)
(0.00424243 -0.00211125 -3.34317e-05 0.00424243 -1.79267e-09 0.00424243)
(0.00434176 -0.00216795 -3.48199e-05 0.00434176 -1.89699e-09 0.00434176)
(0.00434176 -0.00216795 -3.48199e-05 0.00434176 -1.89655e-09 0.00434176)
(0.0044364 -0.00222129 -3.61863e-05 0.0044364 -1.99749e-09 0.0044364)
(0.0044364 -0.00222129 -3.61863e-05 0.0044364 -1.99749e-09 0.0044364)
(0.00452624 -0.00227116 -3.75276e-05 0.00452624 -2.10888e-09 0.00452624)
(0.00452624 -0.00227116 -3.75276e-05 0.00452624 -2.10863e-09 0.00452624)
(0.00461118 -0.00231749 -3.88408e-05 0.00461118 -2.21269e-09 0.00461118)
(0.00461118 -0.00231749 -3.88408e-05 0.00461118 -2.21269e-09 0.00461118)
(0.0046912 -0.00236026 -4.01233e-05 0.0046912 -2.3221e-09 0.0046912)
(0.0046912 -0.00236026 -4.01233e-05 0.0046912 -2.32163e-09 0.0046912)
(0.00476626 -0.00239943 -4.1373e-05 0.00476626 -2.42827e-09 0.00476626)
(0.00476626 -0.00239943 -4.1373e-05 0.00476626 -2.42827e-09 0.00476626)
(0.00483637 -0.00243502 -4.25879e-05 0.00483637 -2.54474e-09 0.00483637)
(0.00483637 -0.00243502 -4.25879e-05 0.00483637 -2.54473e-09 0.00483637)
(0.00490158 -0.00246707 -4.37664e-05 0.00490158 -2.65904e-09 0.00490158)
(0.00490158 -0.00246707 -4.37664e-05 0.00490158 -2.65852e-09 0.00490158)
(0.00496194 -0.00249561 -4.49073e-05 0.00496194 -2.76228e-09 0.00496194)
(0.00496194 -0.00249561 -4.49073e-05 0.00496194 -2.76228e-09 0.00496194)
(0.00501752 -0.00252073 -4.60096e-05 0.00501752 -2.87653e-09 0.00501752)
(0.00501752 -0.00252073 -4.60096e-05 0.00501752 -2.87602e-09 0.00501752)
(0.00506845 -0.00254251 -4.7073e-05 0.00506845 -2.98274e-09 0.00506845)
(0.00506845 -0.00254251 -4.7073e-05 0.00506845 -2.98275e-09 0.00506845)
(0.00511483 -0.00256106 -4.80968e-05 0.00511483 -3.09252e-09 0.00511483)
(0.00511483 -0.00256106 -4.80968e-05 0.00511483 -3.09189e-09 0.00511483)
(0.00515679 -0.00257647 -4.90813e-05 0.00515679 -3.19167e-09 0.00515679)
(0.00515679 -0.00257647 -4.90813e-05 0.00515679 -3.19167e-09 0.00515679)
(0.00519451 -0.0025889 -5.00269e-05 0.00519451 -3.30253e-09 0.00519451)
(0.00519451 -0.0025889 -5.00269e-05 0.00519451 -3.30256e-09 0.00519451)
(0.00522812 -0.00259847 -5.09337e-05 0.00522812 -3.41176e-09 0.00522812)
(0.00522812 -0.00259847 -5.09337e-05 0.00522812 -3.41163e-09 0.00522812)
(0.00525782 -0.00260532 -5.18027e-05 0.00525782 -3.50654e-09 0.00525782)
(0.00525782 -0.00260532 -5.18027e-05 0.00525782 -3.50589e-09 0.00525782)
(0.00528378 -0.0026096 -5.26348e-05 0.00528378 -3.58453e-09 0.00528378)
(0.00528378 -0.0026096 -5.26348e-05 0.00528378 -3.58453e-09 0.00528378)
(0.0053062 -0.00261147 -5.34314e-05 0.0053062 -3.6714e-09 0.0053062)
(0.0053062 -0.00261147 -5.34314e-05 0.0053062 -3.67074e-09 0.0053062)
(0.00532527 -0.0026111 -5.41939e-05 0.00532527 -3.74749e-09 0.00532527)
(0.00532527 -0.0026111 -5.41939e-05 0.00532527 -3.74751e-09 0.00532527)
(0.00534119 -0.00260864 -5.49239e-05 0.00534119 -3.84099e-09 0.00534119)
(0.00534119 -0.00260864 -5.49239e-05 0.00534119 -3.84098e-09 0.00534119)
(0.00535418 -0.00260425 -5.56231e-05 0.00535418 -3.90038e-09 0.00535418)
(0.00535418 -0.00260425 -5.56231e-05 0.00535418 -3.90037e-09 0.00535418)
(0.00536442 -0.00259809 -5.62933e-05 0.00536442 -3.9552e-09 0.00536442)
(0.00536442 -0.00259809 -5.62933e-05 0.00536442 -3.95449e-09 0.00536442)
(0.00537214 -0.00259034 -5.69368e-05 0.00537214 -4.00832e-09 0.00537214)
(0.00537214 -0.00259034 -5.69368e-05 0.00537214 -4.00833e-09 0.00537214)
(0.00537753 -0.00258115 -5.75557e-05 0.00537753 -4.06522e-09 0.00537753)
(0.00537753 -0.00258115 -5.75557e-05 0.00537753 -4.0652e-09 0.00537753)
(0.00538081 -0.00257067 -5.8152e-05 0.00538081 -4.09248e-09 0.00538081)
(0.00538081 -0.00257067 -5.8152e-05 0.00538081 -4.09164e-09 0.00538081)
(0.00538216 -0.00255906 -5.87284e-05 0.00538216 -4.10369e-09 0.00538216)
(0.00538216 -0.00255906 -5.87284e-05 0.00538216 -4.10371e-09 0.00538216)
(0.0053818 -0.00254648 -5.92873e-05 0.0053818 -4.12675e-09 0.0053818)
(0.0053818 -0.00254648 -5.92873e-05 0.0053818 -4.12679e-09 0.0053818)
(0.00537991 -0.00253307 -5.98311e-05 0.00537991 -4.14706e-09 0.00537991)
(0.00537991 -0.00253307 -5.98311e-05 0.00537991 -4.14622e-09 0.00537991)
(0.00537668 -0.00251897 -6.03624e-05 0.00537668 -4.14541e-09 0.00537668)
(0.00537668 -0.00251897 -6.03624e-05 0.00537668 -4.14535e-09 0.00537668)
(0.0053723 -0.00250432 -6.08837e-05 0.0053723 -4.11947e-09 0.0053723)
(0.0053723 -0.00250432 -6.08837e-05 0.0053723 -4.11852e-09 0.0053723)
(0.00536694 -0.00248924 -6.13978e-05 0.00536694 -4.06744e-09 0.00536694)
(0.00536694 -0.00248924 -6.13978e-05 0.00536694 -4.06745e-09 0.00536694)
(0.00536078 -0.00247387 -6.19075e-05 0.00536078 -4.0459e-09 0.00536078)
(0.00536078 -0.00247387 -6.19075e-05 0.00536078 -4.04586e-09 0.00536078)
(0.00535396 -0.00245832 -6.24152e-05 0.00535396 -4.00261e-09 0.00535396)
(0.00535396 -0.00245832 -6.24152e-05 0.00535396 -4.00162e-09 0.00535396)
(0.00534666 -0.00244271 -6.29238e-05 0.00534666 -3.92334e-09 0.00534666)
(0.00534666 -0.00244271 -6.29238e-05 0.00534666 -3.92333e-09 0.00534666)
(0.00533902 -0.00242715 -6.34359e-05 0.00533902 -3.84597e-09 0.00533902)
(0.00533902 -0.00242715 -6.34359e-05 0.00533902 -3.846e-09 0.00533902)
(0.00533118 -0.00241174 -6.39542e-05 0.00533118 -3.76953e-09 0.00533118)
(0.00533118 -0.00241174 -6.39542e-05 0.00533118 -3.76853e-09 0.00533118)
(0.00532328 -0.00239657 -6.44816e-05 0.00532328 -3.66328e-09 0.00532328)
(0.00532328 -0.00239657 -6.44816e-05 0.00532328 -3.66312e-09 0.00532328)
(0.00531543 -0.00238173 -6.50206e-05 0.00531543 -3.5474e-09 0.00531543)
(0.00531543 -0.00238173 -6.50206e-05 0.00531543 -3.54682e-09 0.00531543)
(0.00530775 -0.00236731 -6.5574e-05 0.00530775 -3.41526e-09 0.00530775)
(0.00530775 -0.00236731 -6.5574e-05 0.00530775 -3.41419e-09 0.00530775)
(0.00530036 -0.00235339 -6.61447e-05 0.00530036 -3.29153e-09 0.00530036)
(0.00530036 -0.00235339 -6.61447e-05 0.00530036 -3.29136e-09 0.00530036)
(0.00529334 -0.00234005 -6.6735e-05 0.00529334 -3.14138e-09 0.00529334)
(0.00529334 -0.00234005 -6.6735e-05 0.00529334 -3.14018e-09 0.00529334)
(0.0052868 -0.00232734 -6.73476e-05 0.00528679 -2.95862e-09 0.0052868)
(0.0052868 -0.00232734 -6.73476e-05 0.00528679 -2.95847e-09 0.0052868)
(0.0052808 -0.00231533 -6.79852e-05 0.00528081 -2.7927e-09 0.0052808)
(0.0052808 -0.00231533 -6.79852e-05 0.00528081 -2.79275e-09 0.0052808)
(0.00527544 -0.00230409 -6.86505e-05 0.00527544 -2.61207e-09 0.00527544)
(0.00527544 -0.00230409 -6.86505e-05 0.00527544 -2.61089e-09 0.00527544)
(0.00527078 -0.00229365 -6.93459e-05 0.00527078 -2.42207e-09 0.00527078)
(0.00527078 -0.00229365 -6.93459e-05 0.00527078 -2.42179e-09 0.00527078)
(0.00526687 -0.00228407 -7.00738e-05 0.00526687 -2.22916e-09 0.00526687)
(0.00526687 -0.00228407 -7.00738e-05 0.00526687 -2.22783e-09 0.00526687)
(0.00526377 -0.00227539 -7.08367e-05 0.00526377 -1.98477e-09 0.00526377)
(0.00526377 -0.00227539 -7.08367e-05 0.00526377 -1.98459e-09 0.00526377)
(0.00526152 -0.00226764 -7.1637e-05 0.00526152 -1.76344e-09 0.00526152)
(0.00526152 -0.00226764 -7.1637e-05 0.00526152 -1.76218e-09 0.00526152)
(0.00526016 -0.00226086 -7.24771e-05 0.00526016 -1.55251e-09 0.00526016)
(0.00526016 -0.00226086 -7.24771e-05 0.00526016 -1.55215e-09 0.00526016)
(0.00525972 -0.00225506 -7.33592e-05 0.00525972 -1.3148e-09 0.00525972)
(0.00525972 -0.00225506 -7.33592e-05 0.00525972 -1.31334e-09 0.00525972)
(0.00526022 -0.00225028 -7.42853e-05 0.00526022 -1.06828e-09 0.00526022)
(0.00526022 -0.00225028 -7.42853e-05 0.00526022 -1.06796e-09 0.00526022)
(0.00526167 -0.00224653 -7.52576e-05 0.00526167 -8.02453e-10 0.00526167)
(0.00526167 -0.00224653 -7.52576e-05 0.00526167 -8.02125e-10 0.00526167)
(0.0052641 -0.00224381 -7.62782e-05 0.0052641 -5.4748e-10 0.0052641)
(0.0052641 -0.00224381 -7.62782e-05 0.0052641 -5.4602e-10 0.0052641)
(0.0052675 -0.00224215 -7.7349e-05 0.0052675 -3.06368e-10 0.0052675)
(0.0052675 -0.00224215 -7.7349e-05 0.0052675 -3.05864e-10 0.0052675)
(0.00527187 -0.00224154 -7.84718e-05 0.00527187 -2.17304e-27 0.00527187)
(0.00527187 -0.00224154 -7.84718e-05 0.00527187 1.52996e-12 0.00527187)
(0.00527721 -0.00224198 -7.96486e-05 0.00527721 2.38844e-10 0.00527721)
(0.00527721 -0.00224198 -7.96486e-05 0.00527721 2.39333e-10 0.00527721)
(0.00528351 -0.00224346 -8.08808e-05 0.00528351 5.16579e-10 0.00528351)
(0.00528351 -0.00224346 -8.08808e-05 0.00528351 5.17099e-10 0.00528351)
(0.00529074 -0.00224599 -8.217e-05 0.00529074 8.25611e-10 0.00529074)
(0.00529074 -0.00224599 -8.217e-05 0.00529074 8.27246e-10 0.00529074)
(0.00529889 -0.00224955 -8.35179e-05 0.00529889 1.08542e-09 0.00529889)
(0.00529889 -0.00224955 -8.35179e-05 0.00529889 1.08608e-09 0.00529889)
(0.00530794 -0.00225411 -8.49255e-05 0.00530794 1.35258e-09 0.00530794)
(0.00530794 -0.00225411 -8.49255e-05 0.00530794 1.35329e-09 0.00530794)
(0.00531785 -0.00225966 -8.63938e-05 0.00531785 1.6678e-09 0.00531785)
(0.00531785 -0.00225966 -8.63938e-05 0.00531785 1.66848e-09 0.00531785)
(0.00532859 -0.00226618 -8.79239e-05 0.00532859 1.98006e-09 0.00532859)
(0.00532859 -0.00226618 -8.79239e-05 0.00532859 1.98077e-09 0.00532859)
(0.00534013 -0.00227362 -8.95165e-05 0.00534013 2.24696e-09 0.00534013)
(0.00534013 -0.00227362 -8.95165e-05 0.00534013 2.24778e-09 0.00534013)
(0.00535243 -0.00228196 -9.1172e-05 0.00535243 2.52926e-09 0.00535243)
(0.00535243 -0.00228196 -9.1172e-05 0.00535243 2.53015e-09 0.00535243)
(0.00536545 -0.00229115 -9.28906e-05 0.00536545 2.83466e-09 0.00536545)
(0.00536545 -0.00229115 -9.28906e-05 0.00536545 2.83556e-09 0.00536545)
(0.00537914 -0.00230114 -9.46723e-05 0.00537914 3.13386e-09 0.00537914)
(0.00537914 -0.00230114 -9.46723e-05 0.00537914 3.13485e-09 0.00537914)
(0.00539346 -0.00231189 -9.65171e-05 0.00539346 3.43768e-09 0.00539346)
(0.00539346 -0.00231189 -9.65171e-05 0.00539346 3.43868e-09 0.00539346)
(0.00540836 -0.00232335 -9.84247e-05 0.00540836 3.73915e-09 0.00540836)
(0.00540836 -0.00232335 -9.84247e-05 0.00540836 3.7402e-09 0.00540836)
(0.0054238 -0.00233547 -0.000100395 0.0054238 4.01613e-09 0.0054238)
(0.0054238 -0.00233547 -0.000100395 0.0054238 4.01733e-09 0.0054238)
(0.00543972 -0.00234819 -0.000102427 0.00543972 4.29878e-09 0.00543972)
(0.00543972 -0.00234819 -0.000102427 0.00543972 4.30004e-09 0.00543972)
(0.00545607 -0.00236146 -0.00010452 0.00545607 4.57613e-09 0.00545607)
(0.00545607 -0.00236146 -0.00010452 0.00545607 4.57744e-09 0.00545607)
(0.0054728 -0.00237522 -0.000106674 0.0054728 4.87012e-09 0.0054728)
(0.0054728 -0.00237522 -0.000106674 0.0054728 4.87148e-09 0.0054728)
(0.00548987 -0.00238943 -0.000108888 0.00548987 5.15816e-09 0.00548987)
(0.00548987 -0.00238943 -0.000108888 0.00548987 5.15955e-09 0.00548987)
(0.00550721 -0.00240402 -0.00011116 0.00550721 5.39746e-09 0.00550721)
(0.00550721 -0.00240402 -0.00011116 0.00550721 5.39908e-09 0.00550721)
(0.00552478 -0.00241894 -0.00011349 0.00552478 5.68561e-09 0.00552478)
(0.00552478 -0.00241894 -0.00011349 0.00552478 5.6873e-09 0.00552478)
(0.00554253 -0.00243413 -0.000115876 0.00554253 5.93659e-09 0.00554253)
(0.00554253 -0.00243413 -0.000115876 0.00554253 5.93826e-09 0.00554253)
(0.0055604 -0.00244955 -0.000118317 0.0055604 6.17375e-09 0.0055604)
(0.0055604 -0.00244955 -0.000118317 0.0055604 6.17561e-09 0.0055604)
(0.00557834 -0.00246512 -0.000120812 0.00557834 6.42933e-09 0.00557834)
(0.00557834 -0.00246512 -0.000120812 0.00557834 6.4313e-09 0.00557834)
(0.00559631 -0.0024808 -0.000123358 0.00559631 6.67868e-09 0.00559631)
(0.00559631 -0.0024808 -0.000123358 0.00559631 6.6807e-09 0.00559631)
(0.00561425 -0.00249654 -0.000125954 0.00561425 6.92733e-09 0.00561425)
(0.00561425 -0.00249654 -0.000125954 0.00561425 6.92949e-09 0.00561425)
(0.00563212 -0.00251227 -0.000128599 0.00563212 7.17276e-09 0.00563212)
(0.00563212 -0.00251227 -0.000128599 0.00563212 7.17503e-09 0.00563212)
(0.00564987 -0.00252796 -0.000131291 0.00564987 7.40345e-09 0.00564987)
(0.00564987 -0.00252796 -0.000131291 0.00564987 7.4059e-09 0.00564987)
(0.00566746 -0.00254355 -0.000134028 0.00566746 7.64808e-09 0.00566746)
(0.00566746 -0.00254355 -0.000134028 0.00566746 7.6506e-09 0.00566746)
(0.00568484 -0.00255899 -0.000136807 0.00568484 7.87707e-09 0.00568484)
(0.00568484 -0.00255899 -0.000136807 0.00568484 7.8797e-09 0.00568484)
(0.00570196 -0.00257423 -0.000139627 0.00570196 8.09991e-09 0.00570196)
(0.00570196 -0.00257423 -0.000139627 0.00570196 8.10275e-09 0.00570196)
(0.0057188 -0.00258922 -0.000142485 0.0057188 8.35975e-09 0.0057188)
(0.0057188 -0.00258922 -0.000142485 0.0057188 8.36268e-09 0.0057188)
(0.0057353 -0.0026039 -0.000145377 0.0057353 8.5396e-09 0.0057353)
(0.0057353 -0.0026039 -0.000145377 0.0057353 8.54277e-09 0.0057353)
(0.00575143 -0.0026182 -0.000148301 0.00575143 8.78194e-09 0.00575143)
(0.00575143 -0.0026182 -0.000148301 0.00575143 8.78518e-09 0.00575143)
(0.00576716 -0.00263206 -0.000151252 0.00576716 9.00956e-09 0.00576716)
(0.00576716 -0.00263206 -0.000151252 0.00576716 9.01291e-09 0.00576716)
(0.00578245 -0.00264542 -0.000154226 0.00578245 9.18817e-09 0.00578245)
(0.00578245 -0.00264542 -0.000154226 0.00578245 9.19189e-09 0.00578245)
(0.00579727 -0.00265821 -0.00015722 0.00579727 9.42912e-09 0.00579727)
(0.00579727 -0.00265821 -0.00015722 0.00579727 9.43299e-09 0.00579727)
(0.0058116 -0.00267038 -0.00016023 0.0058116 9.62701e-09 0.0058116)
(0.0058116 -0.00267038 -0.00016023 0.0058116 9.63091e-09 0.0058116)
(0.0058254 -0.00268188 -0.000163251 0.0058254 9.83863e-09 0.0058254)
(0.0058254 -0.00268188 -0.000163251 0.0058254 9.84275e-09 0.0058254)
(0.00583866 -0.00269267 -0.000166282 0.00583866 9.97804e-09 0.00583866)
(0.00583866 -0.00269267 -0.000166282 0.00583866 9.98258e-09 0.00583866)
(0.00585135 -0.00270274 -0.000169323 0.00585135 1.03045e-08 0.00585135)
(0.00585135 -0.00270274 -0.000169323 0.00585135 1.0309e-08 0.00585135)
(0.00586346 -0.00271209 -0.00017237 0.00586346 1.04386e-08 0.00586346)
(0.00586346 -0.00271209 -0.00017237 0.00586346 1.04435e-08 0.00586346)
(0.00587498 -0.00272075 -0.000175427 0.00587498 1.062e-08 0.00587498)
(0.00587498 -0.00272075 -0.000175427 0.00587498 1.06251e-08 0.00587498)
(0.0058859 -0.00272875 -0.000178496 0.0058859 1.07914e-08 0.0058859)
(0.0058859 -0.00272875 -0.000178496 0.0058859 1.07967e-08 0.0058859)
(0.0058962 -0.00273617 -0.00018158 0.0058962 1.10334e-08 0.0058962)
(0.0058962 -0.00273617 -0.00018158 0.0058962 1.1039e-08 0.0058962)
(0.00590589 -0.00274308 -0.000184684 0.00590589 1.11902e-08 0.00590589)
(0.00590589 -0.00274308 -0.000184684 0.00590589 1.11962e-08 0.00590589)
(0.00591495 -0.00274954 -0.000187811 0.00591495 1.13106e-08 0.00591495)
(0.00591495 -0.00274954 -0.000187811 0.00591495 1.13165e-08 0.00591495)
(0.00592338 -0.00275561 -0.000190965 0.00592338 1.15559e-08 0.00592338)
(0.00592338 -0.00275561 -0.000190965 0.00592338 1.15628e-08 0.00592338)
(0.00593117 -0.00276133 -0.000194147 0.00593117 1.16045e-08 0.00593117)
(0.00593117 -0.00276133 -0.000194147 0.00593117 1.16102e-08 0.00593117)
(0.00593833 -0.00276671 -0.000197358 0.00593833 1.1761e-08 0.00593833)
(0.00593833 -0.00276671 -0.000197358 0.00593833 1.17702e-08 0.00593833)
(0.00594485 -0.00277175 -0.000200595 0.00594485 1.17834e-08 0.00594485)
(0.00594485 -0.00277175 -0.000200595 0.00594485 1.17867e-08 0.00594485)
(0.00595071 -0.00277643 -0.000203857 0.00595071 1.19588e-08 0.00595071)
(0.00595071 -0.00277643 -0.000203857 0.00595071 1.19743e-08 0.00595071)
(0.00595593 -0.00278072 -0.00020714 0.00595593 1.18796e-08 0.00595593)
(0.00595593 -0.00278072 -0.00020714 0.00595593 1.18725e-08 0.00595593)
(0.0059605 -0.00278458 -0.000210444 0.0059605 1.20461e-08 0.0059605)
(0.0059605 -0.00278458 -0.000210444 0.0059605 1.20838e-08 0.0059605)
(0.00596441 -0.00278801 -0.000213765 0.0059644 1.20054e-08 0.00596441)
(0.00596441 -0.00278801 -0.000213765 0.0059644 1.19584e-08 0.00596441)
(0.00596765 -0.00279095 -0.000217097 0.00596765 1.21236e-08 0.00596765)
(0.00596765 -0.00279095 -0.000217097 0.00596765 1.22179e-08 0.00596765)
(0.00597024 -0.00279336 -0.000220438 0.00597024 1.19751e-08 0.00597024)
(0.00597024 -0.00279336 -0.000220438 0.00597024 1.17815e-08 0.00597024)
(0.00597216 -0.00279522 -0.000223785 0.00597216 1.22402e-08 0.00597216)
(0.00597216 -0.00279522 -0.000223785 0.00597216 1.27641e-08 0.00597216)
(0.00597342 -0.00279649 -0.000227135 0.00597342 1.18098e-08 0.00597342)
(0.00597342 -0.00279649 -0.000227135 0.00597342 1.10831e-08 0.00597342)
(0.00597402 -0.00279721 -0.000230491 0.00597402 1.28097e-08 0.00597402)
(0.00597402 -0.00279721 -0.000230491 0.00597402 1.42148e-08 0.00597402)
(0.00597396 -0.00279741 -0.000233853 0.00597396 1.14836e-08 0.00597396)
(0.00597396 -0.00279741 -0.000233853 0.00597396 8.86792e-09 0.00597396)
(0.00597325 -0.00279712 -0.000237225 0.00597325 1.36217e-08 0.00597325)
(0.00597325 -0.00279712 -0.000237225 0.00597325 1.85682e-08 0.00597325)
(0.00597188 -0.0027964 -0.00024061 0.00597188 6.11406e-09 0.00597188)
(0.00597188 -0.0027964 -0.00024061 0.00597188 -7.50027e-09 0.00597188)
(0.00596987 -0.00279531 -0.000244015 0.00596987 3.39152e-09 0.00596987)
(0.00596987 -0.00279531 -0.000244015 0.00596987 1.81692e-08 0.00596987)
(0.00596722 -0.00279397 -0.000247453 0.00596722 -2.06363e-09 0.00596722)
(0.00596722 -0.00279397 -0.000247453 0.00596722 -1.96013e-08 0.00596722)
(0.00596393 -0.00279245 -0.000250921 0.00596393 -4.56879e-09 0.00596393)
(0.00596393 -0.00279245 -0.000250921 0.00596393 1.01597e-08 0.00596393)
(0.00596001 -0.00279073 -0.000254421 0.00596001 -1.47584e-08 0.00596001)
(0.00596001 -0.00279073 -0.000254421 0.00596001 -2.05741e-08 0.00596001)
(0.00595545 -0.00278884 -0.000257952 0.00595545 -1.21989e-08 0.00595545)
(0.00595545 -0.00278884 -0.000257952 0.00595545 -8.8721e-09 0.00595545)
(0.00595026 -0.00278672 -0.000261507 0.00595026 -1.42911e-08 0.00595026)
(0.00595026 -0.00278672 -0.000261507 0.00595026 -1.62192e-08 0.00595026)
(0.00594444 -0.00278435 -0.000265089 0.00594444 -1.31124e-08 0.00594444)
(0.00594444 -0.00278435 -0.000265089 0.00594444 -1.18039e-08 0.00594444)
(0.00593799 -0.00278174 -0.000268697 0.00593799 -1.40398e-08 0.00593799)
(0.00593799 -0.00278174 -0.000268697 0.00593799 -1.46857e-08 0.00593799)
(0.00593091 -0.00277886 -0.000272321 0.00593091 -1.34793e-08 0.00593091)
(0.00593091 -0.00277886 -0.000272321 0.00593091 -1.31802e-08 0.00593091)
(0.0059232 -0.00277565 -0.000275961 0.0059232 -1.38564e-08 0.0059232)
(0.0059232 -0.00277565 -0.000275961 0.0059232 -1.40772e-08 0.0059232)
(0.00591485 -0.00277206 -0.000279607 0.00591485 -1.35586e-08 0.00591485)
(0.00591485 -0.00277206 -0.000279607 0.00591485 -1.346e-08 0.00591485)
(0.00590586 -0.00276796 -0.000283237 0.00590586 -1.37769e-08 0.00590586)