/*--------------------------------*- C++ -*----------------------------------*\
| =========                 |                                                 |
| \\      /  F ield         | OpenFOAM: The Open Source CFD Toolbox           |
|  \\    /   O peration     | Version:  2012                                  |
|   \\  /    A nd           | Website:  www.openfoam.com                      |
|    \\/     M anipulation  |                                                 |
\*---------------------------------------------------------------------------*/
FoamFile
{
    version     2.0;
    format      ascii;
    class       volTensorField;
    location    "10000";
    object      grad(U);
}
// * * * * * * * * * * * * * * * * * * * * * * * * * * * * * * * * * * * * * //

dimensions      [0 0 -1 0 0 0 0];


internalField   nonuniform List<tensor> 
320
(
(0 -2.56035e-27 5.35577e-31 35.7196 -2.34578e-12 -2.1307e-13 0.401626 -1.32082e-14 -7.45622e-16)
(0 -4.28461e-30 -2.67788e-31 35.7196 -1.74392e-14 -7.81665e-16 0.401626 -1.25222e-16 1.19633e-15)
(-2.67923e-16 -8.18155e-27 3.80741e-30 35.6745 8.0735e-28 -1.28162e-13 1.25425 -1.26218e-29 -2.3788e-15)
(0 -5.33037e-29 -3.33148e-30 35.6745 -2.0008e-14 -1.36159e-15 1.25425 -2.93221e-16 1.35509e-15)
(0 -1.75844e-28 -1.69168e-30 35.6001 3.26398e-13 -7.56681e-14 2.1505 -9.28987e-15 -3.11066e-15)
(-3.43631e-17 1.35334e-29 1.69168e-30 35.6001 -2.66753e-14 -1.25874e-15 2.1505 -6.52282e-16 1.65079e-15)
(-1.23606e-16 2.54741e-29 1.50326e-30 35.3813 1.7789e-13 -7.58642e-14 2.39697 -3.10476e-14 -3.91174e-15)
(-4.94424e-16 -1.80392e-29 0 35.3813 -3.14116e-14 -1.52598e-15 2.39697 -1.11502e-15 1.97754e-15)
(0 -5.14677e-28 4.00751e-30 34.6452 -1.64083e-28 -7.04781e-14 2.61057 0 -4.84659e-15)
(0 -1.603e-29 -5.34335e-30 34.6452 -3.8847e-14 -2.07719e-15 2.61057 -1.71764e-15 2.29369e-15)
(0 -9.49645e-30 -2.37411e-30 32.6978 6.02796e-14 -5.20805e-14 2.69972 -5.09542e-15 -3.40745e-15)
(-3.43247e-15 1.89929e-29 3.56117e-30 32.6978 -4.47169e-14 -2.64876e-15 2.69972 -2.60497e-15 2.49222e-15)
(0 -8.43877e-30 0 29.0462 5.72e-14 -2.71417e-14 2.59748 -4.65885e-15 -1.43153e-15)
(2.52231e-15 8.43877e-30 2.10969e-30 29.0462 -4.5016e-14 -2.53035e-15 2.59748 -3.64477e-15 2.46785e-15)
(-1.68945e-15 3.2215e-29 -2.41434e-30 24.1651 5.89328e-14 -3.96672e-15 2.35314 -5.85524e-15 -2.03753e-16)
(0 -2.24967e-29 -7.4989e-30 24.1651 -4.30111e-14 -1.76576e-15 2.35314 -4.79497e-15 2.22969e-15)
(-1.87566e-15 2.66548e-29 -7.00649e-46 19.2107 5.50982e-14 -1.59882e-29 2.07208 -6.27819e-15 7.88861e-31)
(-4.18804e-15 -1.99911e-29 -6.6637e-30 19.2107 -3.98979e-14 -1.07987e-15 2.07208 -6.09765e-15 1.88275e-15)
(-1.66676e-15 1.77646e-29 2.96076e-30 15.0091 4.90049e-14 -5.00277e-16 1.81821 -6.4728e-15 -2.13206e-16)
(0 -5.92152e-30 0 15.0091 -3.56243e-14 -5.70465e-16 1.81821 -7.39753e-15 1.49141e-15)
(-1.3813e-15 4.23766e-30 -4.18363e-31 11.745 4.26675e-14 -2.94316e-15 1.6084 -6.26576e-15 -6.75851e-16)
(5.52521e-15 0 1.3155e-30 11.745 -3.14642e-14 -3.10108e-16 1.6084 -8.60206e-15 1.1132e-15)
(0 0 0 9.27966 3.77501e-14 -5.47077e-15 1.43932 -6.22514e-15 -1.15505e-15)
(0 0 2.33797e-30 9.27966 -2.80547e-14 -2.65371e-16 1.43932 -9.9411e-15 7.27712e-16)
(-1.63518e-15 -4.44758e-30 -3.30228e-30 7.41707 3.42793e-14 -7.36974e-15 1.30291 -6.21298e-15 -1.60416e-15)
(6.5407e-15 8.31031e-30 2.07758e-30 7.41707 -2.51704e-14 -2.33845e-16 1.30291 -1.1339e-14 3.33543e-16)
(-3.37583e-16 -3.62394e-30 4.68019e-30 5.99371 3.14077e-14 -8.55626e-15 1.19157 -6.51576e-15 -1.98887e-15)
(0 0 -5.53855e-30 5.99371 -2.20116e-14 4.20688e-17 1.19157 -1.26906e-14 -1.16403e-16)
(-1.83653e-15 -3.14782e-30 -8.95559e-30 4.88996 2.61522e-14 -9.10625e-15 1.0992 -6.59462e-15 -2.30592e-15)
(1.46923e-14 6.56225e-30 9.84338e-30 4.88996 -1.98889e-14 -5.45924e-16 1.0992 -1.39982e-14 -4.33273e-16)
(3.28277e-15 -5.83137e-30 -1.28695e-30 4.02139 2.07732e-14 6.89244e-30 1.02123 -5.62893e-15 1.57772e-30)
(0 5.83137e-30 4.37353e-30 4.02139 -1.74054e-14 -5.78406e-15 1.02123 -1.54617e-14 -3.79284e-16)
(2.91715e-15 0 -2.59095e-30 3.32866 1.84318e-14 4.36766e-14 0.954248 -5.33073e-15 -4.84979e-15)
(5.098e-15 0 3.88642e-30 3.32866 -1.16971e-14 -8.24765e-15 0.954248 -1.6558e-14 -1.26497e-15)
(-5.1845e-15 4.60476e-30 3.45357e-30 2.76961 1.78769e-14 1.457e-14 0.895715 -5.64875e-15 -3.05039e-15)
(0 0 -1.15119e-30 2.76961 -7.24169e-15 -6.73893e-15 0.895715 -1.77102e-14 -1.91126e-15)
(-2.30353e-15 0 0 2.31391 1.65084e-14 3.18499e-15 0.843762 -6.35614e-15 -1.84929e-15)
(1.71799e-14 0 0 2.31391 -5.0778e-15 -6.64317e-15 0.843762 -1.85485e-14 -2.45219e-15)
(-2.21252e-15 2.6904e-30 3.31007e-31 1.93936 1.24764e-14 4.53012e-16 0.797004 -6.05827e-15 -4.67756e-16)
(0 0 1.81808e-30 1.93936 -3.68088e-15 -5.77772e-15 0.797004 -1.91371e-14 -3.06239e-15)
(2.27374e-15 -1.5719e-29 -5.93599e-31 1.62942 8.62626e-15 -9.58435e-32 0.754423 -4.41821e-15 3.9443e-31)
(0 1.29247e-29 0 1.62942 -1.72105e-15 -5.23369e-15 0.754423 -1.38119e-14 -3.77661e-15)
(7.89583e-15 -1.12971e-29 -1.17026e-30 1.3716 6.36912e-15 1.27335e-16 0.715273 -3.77022e-15 -3.41642e-17)
(0 0 0 1.3716 -7.39059e-16 -3.93772e-15 0.715273 -9.95644e-15 -1.69919e-15)
(0 0 0 1.15626 5.92497e-15 1.10342e-15 0.679014 -3.02095e-15 -4.49839e-16)
(-9.54472e-15 8.33161e-30 2.85145e-30 1.15626 6.51038e-16 2.85145e-30 0.679014 -6.18855e-15 -7.88861e-31)
(0 0 0 0.97585 6.60302e-15 1.32673e-15 0.645256 -4.20451e-15 -1.0815e-15)
(9.75193e-15 -9.75154e-30 -2.63181e-30 0.97585 3.69081e-15 4.90572e-16 0.645256 -3.66014e-15 -1.66682e-16)
(-4.97427e-15 4.78103e-30 6.40668e-31 0.824376 5.54805e-15 1.31434e-15 0.613705 -4.80495e-15 -1.08878e-15)
(0 0 0 0.824376 3.95874e-15 1.4655e-15 0.613705 -3.4443e-15 -8.84909e-16)
(0 0 0 0.69698 5.22201e-15 1.55334e-15 0.584134 -3.6099e-15 -1.13215e-15)
(0 0 0 0.69698 3.64612e-15 1.32768e-15 0.584134 -2.55802e-15 -1.38601e-15)
(0 -3.18199e-30 -1.59099e-30 0.589681 4.2085e-15 8.12271e-16 0.55634 -5.48857e-15 -1.56697e-15)
(0 0 -7.95497e-31 0.589681 3.57344e-15 1.79378e-15 0.55634 -3.79003e-15 -8.68564e-16)
(3.18358e-15 -5.65518e-30 -3.50325e-46 0.499179 2.26776e-15 0 0.530118 -2.48549e-15 0)
(0 0 1.41379e-30 0.499179 2.52203e-15 2.63464e-15 0.530118 -3.08982e-15 -2.92026e-15)
(0 -5.02533e-30 0 0.422714 2.52336e-15 2.92359e-15 0.505234 -2.45553e-15 -1.89454e-15)
(1.06428e-14 -4.97875e-30 0 0.422714 2.48155e-15 2.30474e-15 0.505234 -2.36437e-15 -2.37895e-15)
(0 0 0 0.357962 2.36138e-15 -1.55803e-16 0.481402 -3.81378e-15 -1.59767e-15)
(8.28231e-15 -9.21809e-30 0 0.357962 2.33543e-15 1.15625e-15 0.481402 -3.80739e-15 -1.89925e-15)
(0 -3.96826e-30 -5.71405e-47 0.302955 2.55769e-15 6.72801e-30 0.458251 -2.63452e-15 -3.9443e-31)
(1.09427e-14 -6.03146e-30 0 0.302955 2.46486e-15 1.70309e-15 0.458251 -2.56561e-15 -1.50633e-15)
(3.97025e-15 0 2.20393e-31 0.256017 2.53758e-15 1.92149e-15 0.435287 -5.47767e-15 1.22118e-15)
(1.8195e-14 -1.15343e-29 0 0.256017 2.92676e-15 1.21879e-15 0.435287 -5.24881e-15 1.42381e-15)
(0 0 -1.95847e-31 0.215711 4.98926e-16 3.56226e-16 0.411839 -3.26162e-15 -5.53348e-16)
(0 -1.58845e-31 7.00649e-46 0.215711 7.59178e-16 -1.47911e-31 0.411839 -4.96476e-15 9.86076e-32)
(-2.83615e-15 3.65038e-43 1.9246e-44 0.180787 8.22582e-29 4.33612e-30 0.386956 -3.15544e-30 1.59447e-47)
(0 0 1.74034e-31 0.180787 -2.04183e-16 3.64587e-16 0.386956 -1.80874e-15 1.27584e-16)
(-2.78594e-15 2.47441e-30 3.86627e-32 0.150123 9.99088e-16 -1.21848e-16 0.359223 -2.76992e-15 1.28562e-15)
(0 4.94882e-30 3.86627e-32 0.150123 3.4688e-16 2.04021e-16 0.359223 -4.31984e-16 9.05453e-16)
(2.47565e-15 0 -2.07001e-31 0.12265 1.20728e-15 7.38536e-32 0.326378 -2.17163e-15 7.45799e-16)
(9.10967e-15 -6.52515e-30 0 0.12265 1.49508e-15 2.17111e-16 0.326378 -3.91953e-15 -5.06725e-16)
(-2.92479e-15 1.23331e-30 -1.48176e-44 0.0972232 1.45294e-15 3.33697e-30 0.284463 -4.74797e-15 6.35323e-48)
(0 0 0 0.0972232 1.04326e-15 8.84683e-17 0.284463 -4.49543e-15 1.71536e-16)
(-2.95265e-15 1.0046e-30 1.08519e-31 0.0723863 1.1034e-15 -2.01174e-15 0.225954 -4.39692e-15 7.00233e-16)
(-1.57204e-14 7.41086e-30 -5.42595e-32 0.0723863 9.30557e-16 -1.86337e-15 0.225954 -1.93477e-15 1.14425e-15)
(0 0 -8.54864e-32 0.0460878 6.44182e-16 -9.86076e-32 0.136982 -3.37585e-15 3.07997e-16)
(0 -1.64975e-31 -4.76143e-31 0.0460878 6.32825e-17 2.13209e-17 0.136982 -4.8427e-15 -4.25816e-17)
(3.01218e-15 -1.11303e-30 -1.71385e-30 3.9517e-15 7.42922e-16 1.65199e-15 1.06591e-14 -1.66971e-15 -8.45173e-16)
(0 0 7.00649e-46 3.9517e-15 1.47409e-16 7.611e-45 1.06591e-14 -3.31301e-16 7.94487e-30)
(-7.53757e-17 8.36839e-33 2.67788e-31 35.7196 -3.63057e-15 7.83371e-14 -0.401626 1.32082e-14 7.45622e-16)
(0 0 2.03242e-27 35.7196 -7.38129e-16 3.15785e-14 -0.401626 1.25222e-16 -7.09725e-16)
(-2.67923e-16 5.20544e-32 0 35.6745 -4.52925e-15 3.25507e-14 -1.25425 5.11764e-14 2.3788e-15)
(2.67923e-16 -5.20544e-32 -6.10343e-32 35.6745 0 1.90109e-14 -1.25425 2.93221e-16 -1.24514e-15)
(0 7.92974e-32 4.22919e-31 35.6001 -7.02219e-15 2.19521e-14 -2.1505 4.89446e-14 3.11066e-15)
(-3.43631e-17 -2.64325e-32 -5.68151e-31 35.6001 -1.98369e-15 2.30643e-14 -2.1505 6.52282e-16 -1.38916e-15)
(0 -4.6977e-32 7.51632e-31 35.3813 -8.23399e-15 2.19119e-14 -2.39697 4.1293e-14 3.91174e-15)
(4.94424e-16 1.40931e-31 3.31752e-31 35.3813 -1.59316e-15 2.1618e-14 -2.39697 1.11502e-15 -1.37991e-15)
(2.60287e-16 0 0 34.6452 -9.90886e-15 1.89682e-14 -2.61057 4.41292e-14 4.84659e-15)
(0 0 0 34.6452 -2.0247e-15 1.65489e-14 -2.61057 1.71764e-15 -9.8258e-16)
(1.09731e-15 1.48382e-31 5.93528e-31 32.6978 -1.02392e-14 1.23957e-14 -2.69972 4.30592e-14 5.76752e-15)
(-3.43247e-15 -1.48382e-31 4.721e-29 32.6978 -2.57309e-15 3.62675e-15 -2.69972 2.60497e-15 -1.47105e-16)
(0 5.27423e-31 -8.40635e-30 29.0462 -9.58484e-15 1.77484e-15 -2.59748 4.21064e-14 6.4417e-15)
(0 -2.63712e-31 -5.60519e-45 29.0462 -2.82041e-15 0 -2.59748 3.64477e-15 1.98817e-44)
(-2.74482e-15 2.3434e-31 -4.90454e-45 24.1651 -8.79751e-15 -7.32645e-29 -2.35314 4.0869e-14 6.77933e-15)
(-3.37889e-15 0 -8.21799e-31 24.1651 -4.56712e-15 -9.50011e-15 -2.35314 4.79497e-15 -7.49272e-16)
(1.04701e-15 -1.24944e-30 8.32962e-31 19.2107 -8.105e-15 -3.00019e-15 -2.07208 3.95249e-14 6.90636e-15)
(-2.31238e-15 8.32962e-31 -1.07069e-31 19.2107 -5.12908e-15 -1.16471e-14 -2.07208 6.09765e-15 -1.68987e-15)
(0 0 0 15.0091 -7.11292e-15 -3.03444e-15 -1.81821 3.81509e-14 6.98839e-15)
(4.90408e-15 0 0 15.0091 -2.96288e-15 -1.12719e-14 -1.81821 7.39753e-15 -1.49141e-15)
(-1.48112e-15 9.86626e-31 -6.5775e-31 11.745 -5.57486e-15 -2.46029e-15 -1.6084 3.68013e-14 7.14041e-15)
(0 0 0 11.745 -3.17503e-15 -1.01168e-14 -1.6084 8.60206e-15 -1.1132e-15)
(0 0 0 9.27966 -4.32714e-15 -1.84728e-15 -1.43932 3.54346e-14 7.38966e-15)
(-6.06549e-15 0 0 9.27966 -5.12847e-15 -9.19297e-15 -1.43932 9.9411e-15 -7.27712e-16)
(-1.63518e-15 0 5.19394e-31 7.41707 -4.03365e-15 -1.05078e-15 -1.30291 3.40469e-14 7.74978e-15)
(6.5407e-15 0 -5.19394e-31 7.41707 -4.51935e-15 -8.83647e-15 -1.30291 1.1339e-14 -3.33543e-16)
(1.74104e-15 -9.23092e-31 9.23092e-31 5.99371 -4.10824e-15 -5.22797e-16 -1.19157 3.2629e-14 8.17403e-15)
(6.96414e-15 9.23092e-31 -9.23092e-31 5.99371 -3.50395e-15 -7.46795e-15 -1.19157 1.26906e-14 1.16403e-16)
(-1.05749e-17 8.20282e-31 0 4.88996 -3.74139e-15 -2.38014e-16 -1.0992 3.11982e-14 8.70308e-15)
(0 0 0 4.88996 -3.63762e-15 -1.87966e-15 -1.0992 1.39982e-14 4.33273e-16)
(0 -7.28922e-31 1.09338e-30 4.02139 -4.20768e-15 -3.895e-29 -1.02123 3.00126e-14 9.27343e-15)
(0 0 -1.09338e-30 4.02139 -2.13519e-15 -9.20619e-17 -1.02123 1.54617e-14 3.79284e-16)
(0 0 -9.71606e-31 3.32866 -4.79724e-15 -7.43324e-16 -0.954248 2.90212e-14 4.84979e-15)
(0 8.20174e-30 6.47737e-31 3.32866 -1.20892e-15 -2.15212e-15 -0.954248 1.6558e-14 1.26497e-15)
(2.07812e-15 -1.15119e-30 1.15119e-30 2.76961 -4.17555e-15 -1.48489e-15 -0.895715 2.79828e-14 3.05039e-15)
(0 1.15119e-30 -1.15119e-30 2.76961 -4.76688e-15 -3.94563e-16 -0.895715 1.77102e-14 1.91126e-15)
(2.30353e-15 1.02297e-30 -1.53446e-30 2.31391 -3.02765e-15 -2.0091e-15 -0.843762 2.67155e-14 2.74901e-15)
(6.28641e-15 -1.02297e-30 1.53446e-30 2.31391 -2.57927e-15 5.50525e-16 -0.843762 1.85485e-14 2.45219e-15)
(-2.21252e-15 9.09039e-31 -6.8178e-31 1.93936 -2.16608e-15 -1.83441e-15 -0.797004 2.54446e-14 2.85291e-15)
(-2.04697e-15 2.08007e-30 2.2726e-31 1.93936 -3.39119e-15 -4.44628e-16 -0.797004 1.91371e-14 3.06239e-15)
(2.27374e-15 0 0 1.62942 -1.62524e-15 -1.08905e-15 -0.754423 2.45535e-14 3.04699e-15)
(-2.18279e-14 1.61559e-30 2.01949e-31 1.62942 -4.04694e-15 -1.08262e-15 -0.754423 2.01564e-14 3.77661e-15)
(4.66303e-15 0 -8.97281e-31 1.3716 -1.729e-15 -8.923e-16 -0.715273 2.37825e-14 3.12928e-15)
(-3.2328e-15 0 5.38369e-31 1.3716 -3.05058e-15 -1.18281e-15 -0.715273 2.04707e-14 4.57317e-15)
(0 0 -8.7708e-31 1.15626 -2.87759e-15 -1.4429e-15 -0.679014 2.33272e-14 3.16901e-15)
(-2.19622e-14 1.27575e-30 6.37876e-31 1.15626 -3.29194e-15 -6.40616e-19 -0.679014 2.11974e-14 5.13672e-15)
(-2.43798e-15 2.26733e-30 -2.33818e-30 0.97585 -2.84987e-15 -1.98055e-15 -0.645256 2.28618e-14 3.23323e-15)
(-1.95039e-14 -2.26733e-30 1.98391e-30 0.97585 -3.26088e-15 8.495e-16 -0.645256 2.1227e-14 4.90773e-15)
(2.48713e-15 0 0 0.824376 -2.21541e-15 -1.82242e-15 -0.613705 2.20304e-14 3.39704e-15)
(-1.2217e-14 2.0148e-30 6.29626e-32 0.824376 -3.69964e-15 -3.68488e-16 -0.613705 2.10385e-14 4.59057e-15)
(0 0 -1.3428e-30 0.69698 -2.57422e-15 -2.61537e-15 -0.584134 2.16119e-14 3.41914e-15)
(-1.01353e-14 0 1.3428e-30 0.69698 -3.51169e-15 -1.417e-15 -0.584134 2.11453e-14 4.50175e-15)
(0 1.59099e-30 -1.98874e-31 0.589681 -1.58174e-15 -2.1127e-15 -0.55634 2.08722e-14 3.87987e-15)
(-1.03128e-14 0 1.98874e-31 0.589681 -1.94024e-15 3.62599e-17 -0.55634 2.09637e-14 4.64255e-15)
(5.24091e-15 1.82382e-31 0 0.499179 -7.50369e-16 9.05809e-16 -0.530118 2.0353e-14 4.03053e-15)
(0 7.84303e-31 0 0.499179 -1.00204e-15 1.5238e-15 -0.530118 2.03277e-14 3.49102e-15)
(0 0 -8.75812e-47 0.422714 -2.99029e-15 -1.59093e-45 -0.505234 2.02659e-14 1.89454e-15)
(0 0 3.92604e-32 0.422714 -2.62402e-15 3.51963e-16 -0.505234 2.03861e-14 2.37895e-15)
(0 0 2.79102e-31 0.357962 -2.93087e-15 -1.44197e-15 -0.481402 1.25211e-14 2.18292e-15)
(0 0 -2.79102e-31 0.357962 -2.60378e-15 1.15754e-16 -0.481402 1.34294e-14 1.89925e-15)
(-4.46786e-15 0 3.72024e-31 0.302955 3.93456e-16 3.46784e-15 -0.458251 7.39238e-15 3.03003e-15)
(1.09427e-14 -3.21848e-30 -1.24008e-31 0.302955 -5.52317e-16 2.38357e-15 -0.458251 7.63303e-15 1.50633e-15)
(5.54132e-15 -3.24442e-30 5.4847e-31 0.256017 0 0 -0.435287 6.02024e-15 -3.15544e-30)
(1.10826e-14 -8.11425e-30 0 0.256017 9.56872e-16 -5.05306e-17 -0.435287 4.19681e-15 -1.42381e-15)
(6.33218e-15 -5.3755e-30 -5.74226e-31 0.215711 -2.2339e-16 -6.11827e-16 -0.411839 1.56527e-15 5.53348e-16)
(1.89049e-14 -1.42745e-29 0 0.215711 9.81632e-16 -1.27563e-15 -0.411839 1.51452e-15 7.88698e-16)
(-2.9897e-16 7.78521e-31 -8.7017e-32 0.180787 6.55602e-16 1.38685e-15 -0.386956 3.55929e-15 9.49592e-16)
(0 -9.80909e-45 0 0.180787 2.21867e-30 1.17368e-15 -0.386956 4.38287e-15 -1.27584e-16)
(8.0907e-17 6.35193e-31 -5.99955e-31 0.150123 8.62344e-16 1.4473e-15 -0.359223 3.41288e-15 -1.28562e-15)
(-1.14674e-14 1.0522e-29 3.09301e-31 0.150123 7.59062e-17 -6.09658e-16 -0.359223 2.62913e-15 -9.05453e-16)
(5.79266e-15 -3.57104e-30 1.76139e-45 0.12265 9.07547e-16 0 -0.326378 2.85377e-15 2.76101e-30)
(1.15853e-14 -7.65219e-30 6.30584e-45 0.12265 1.18283e-15 -1.97215e-31 -0.326378 1.88922e-15 6.96868e-30)
(2.92479e-15 -1.39378e-30 0 0.0972232 1.13986e-15 -6.58211e-16 -0.284463 3.59163e-15 -7.29214e-16)
(-1.6099e-14 6.61696e-30 0 0.0972232 1.23137e-15 9.47381e-16 -0.284463 4.92012e-15 -1.71536e-16)
(2.95265e-15 -1.11527e-30 0 0.0723863 9.015e-16 1.78647e-15 -0.225954 3.59943e-15 -7.00233e-16)
(-1.18106e-14 5.23986e-30 -5.58222e-31 0.0723863 7.89333e-16 3.98782e-16 -0.225954 2.71785e-15 -7.07734e-16)
(2.98068e-15 -1.04049e-30 8.75812e-47 0.0460878 1.02225e-16 -6.65136e-45 -0.136982 2.7502e-15 -2.69374e-30)
(-3.47435e-15 1.58579e-30 0 0.0460878 2.22026e-16 -1.0475e-16 -0.136982 2.8961e-15 2.00002e-15)
(1.99269e-18 -1.22506e-30 -1.88557e-31 0 3.1702e-16 -1.5042e-15 3.5567e-15 7.12501e-16 8.45173e-16)
(-1.2326e-32 0 0 3.46945e-18 2.38746e-45 -6.68708e-16 0 -6.31089e-30 -3.61624e-15)
(-3.0072e-15 2.92405e-32 -3.15292e-44 -1.53542e-09 1.17636e-15 -3.51388e-30 3.45042e-09 -5.27483e-15 4.93038e-32)
(-3.98538e-18 0 1.6671e-30 -1.53523e-09 1.52711e-15 -9.99941e-16 3.45042e-09 -5.32221e-15 -1.78644e-15)
(4.9367e-16 0 2.35673e-31 -0.0460878 -5.63003e-16 -3.36813e-45 0.136982 -4.77846e-15 1.6982e-15)
(8.44837e-15 0 -7.71461e-31 -0.0460878 0 -9.57656e-16 0.136982 -3.90288e-15 1.89582e-15)
(2.95265e-15 -8.17408e-31 0 -0.0723863 -4.37626e-16 1.45336e-15 0.225954 -3.54056e-15 -5.09714e-15)
(-1.18106e-14 3.4166e-30 2.2652e-30 -0.0723863 -7.94787e-16 -2.86988e-29 0.225954 -3.13528e-15 0)
(-2.92479e-15 2.97327e-31 0 -0.0972232 1.85188e-15 -3.44341e-16 0.284463 -5.34198e-15 -1.30793e-15)
(2.33984e-14 -3.27182e-30 0 -0.0972232 2.0484e-15 2.29945e-15 0.284463 -4.9231e-15 -1.32897e-15)
(0 0 3.50325e-46 -0.12265 2.00745e-15 -1.45911e-44 0.326378 -1.9813e-15 2.8744e-15)
(-1.65366e-14 -1.15501e-31 -1.09941e-30 -0.12265 1.63182e-15 -1.15241e-15 0.326378 -3.11177e-15 4.64343e-15)
(2.86685e-15 0 0 -0.150123 1.6075e-15 -3.56024e-15 0.359223 -2.06337e-16 -4.54527e-16)
(-1.42533e-14 0 1.23721e-30 -0.150123 1.68046e-15 -6.32567e-15 0.359223 -2.57451e-15 -2.09206e-15)
(3.13512e-15 0 -5.56909e-30 -0.180787 -1.01681e-16 -2.48375e-15 0.386956 1.21575e-15 -1.98013e-15)
(-3.13512e-15 -1.1385e-32 1.61707e-30 -0.180787 -1.47911e-31 0 0.386956 0 -9.86076e-32)
(7.05612e-15 -9.79233e-32 -1.56677e-30 -0.215711 -1.35334e-15 5.40822e-15 0.411839 1.11273e-16 -6.69839e-16)
(0 1.22404e-31 -1.56677e-30 -0.215711 -1.43614e-15 3.24604e-15 0.411839 4.43398e-16 -1.18963e-15)
(-2.77066e-15 0 0 -0.256017 1.47911e-31 2.54542e-15 0.435287 -8.66933e-48 1.29278e-15)
(0 0 0 -0.256017 3.15472e-16 4.95647e-15 0.435287 4.60445e-17 3.83436e-15)
(-2.73567e-15 -2.17014e-31 3.28648e-44 -0.302955 8.92611e-16 -3.69932e-30 0.458251 -2.7958e-16 -9.86076e-32)
(1.09427e-14 2.31214e-44 -2.69261e-31 -0.302955 2.60446e-30 6.39169e-16 0.458251 4.93038e-32 1.85455e-15)
(2.51392e-15 -6.03923e-34 0 -0.357962 -3.21778e-16 1.19471e-15 0.481402 8.34436e-17 -1.05576e-16)
(-2.15925e-14 2.31676e-32 -2.79102e-31 -0.357962 -1.2143e-15 1.0373e-15 0.481402 2.19261e-16 7.41025e-16)
(0 0 -1.09476e-47 -0.422714 -4.14995e-18 0 0.505234 -4.14303e-16 3.33847e-16)
(0 3.50325e-46 0 -0.422714 -4.93038e-32 -5.12482e-16 0.505234 -4.00377e-46 9.2319e-17)
(0 4.16937e-31 0 -0.499179 -6.64767e-16 9.9783e-16 0.530118 5.00547e-17 -6.3154e-16)
(1.04818e-14 0 -1.26336e-44 -0.499179 4.5881e-16 -1.42163e-30 0.530118 -7.12096e-16 -2.46519e-32)
(6.16081e-15 -2.77914e-33 0 -0.589681 0 1.50689e-15 0.55634 0 -7.91209e-17)
(6.73025e-15 0 1.98874e-31 -0.589681 -1.31393e-16 2.2951e-15 0.55634 -6.81386e-16 -3.9068e-17)
(2.53382e-15 1.35803e-30 -1.119e-31 -0.69698 8.40141e-16 1.34343e-15 0.584134 -7.61937e-16 -4.47789e-16)
(2.02706e-14 0 3.17378e-31 -0.69698 3.9443e-31 7.21546e-16 0.584134 -5.06996e-46 -6.85028e-16)
(0 6.19788e-32 0 -0.824376 1.15171e-16 7.90455e-16 0.613705 -4.51897e-17 -7.26701e-17)
(-9.94854e-15 -2.11519e-31 0 -0.824376 0 7.739e-16 0.613705 -5.43584e-16 -2.58606e-16)
(2.43798e-15 7.0854e-32 0 -0.97585 4.91093e-16 1.36298e-15 0.645256 7.58953e-17 2.87364e-16)
(9.75193e-15 2.10195e-44 0 -0.97585 -2.43294e-30 1.00167e-15 0.645256 1.14647e-45 5.57476e-16)
(-2.38618e-15 1.99336e-32 -1.61405e-32 -1.15626 3.28244e-16 4.32944e-16 0.679014 1.82315e-16 4.32669e-16)
(9.54472e-15 -1.66936e-31 -7.97345e-32 -1.15626 8.01913e-16 7.05159e-16 0.679014 -2.4212e-16 4.28195e-16)
(-2.33152e-15 0 -8.26876e-32 -1.3716 7.33842e-16 -4.45627e-16 0.715273 -4.30927e-16 3.01316e-16)
(0 0 1.01594e-44 -1.3716 -4.39113e-45 -1.1608e-30 0.715273 -6.21665e-17 0)
(2.27374e-15 1.3236e-30 -7.57307e-32 -1.62942 2.00755e-30 -4.90936e-16 0.754423 0 3.1833e-16)
(9.09494e-15 -4.4754e-44 1.33916e-31 -1.62942 -2.51959e-30 -2.65491e-17 0.754423 -3.33774e-47 6.32981e-18)
(-1.65548e-16 -5.6815e-32 7.10187e-32 -1.93936 -4.86352e-16 -6.4141e-16 0.797004 1.24367e-16 4.25019e-16)
(-2.04697e-15 2.84075e-32 -7.10187e-32 -1.93936 7.00107e-16 3.50408e-16 0.797004 -3.65805e-16 1.53801e-16)
(-2.14749e-15 3.19679e-32 -6.39359e-32 -2.31391 -4.13466e-16 -5.4591e-16 0.843762 -5.12383e-17 2.53474e-16)
(0 -6.39359e-32 3.24707e-44 -2.31391 -2.6377e-17 3.65683e-30 0.843762 8.25742e-17 0)
(2.59225e-15 1.13124e-30 -3.39652e-31 -2.76961 -1.17141e-15 -1.57903e-16 0.895715 1.31038e-19 -2.64171e-17)
(0 -3.59747e-32 1.07924e-31 -2.76961 -4.01012e-16 -5.2424e-16 0.895715 -3.7506e-17 1.83271e-16)
(3.83051e-15 -1.34265e-30 -5.76403e-32 -3.32866 -1.18385e-15 -6.68117e-17 0.954248 -1.75998e-16 -1.40432e-17)
(-2.91715e-15 4.04836e-32 1.52172e-44 -3.32866 1.17471e-16 8.57159e-31 0.954248 -9.84147e-17 -6.16298e-33)
(0 9.11152e-32 -5.71074e-33 -4.02139 -5.66854e-16 -2.91532e-31 1.02123 -1.26467e-16 0)
(0 -6.83364e-32 -7.68785e-32 -4.02139 0 -4.14261e-16 1.02123 -8.72071e-17 6.37793e-17)
(3.68364e-15 -6.75316e-31 -9.30112e-31 -4.88996 -2.71638e-30 1.03066e-15 1.0992 0 -1.25597e-18)
(-9.19325e-15 0 -5.7676e-32 -4.88996 -1.98971e-16 -1.63561e-16 1.0992 -1.31661e-16 6.11654e-17)
(1.74104e-15 -5.5861e-32 0 -5.99371 3.12742e-16 1.23632e-15 1.19157 -3.26251e-17 1.21538e-16)
(6.96414e-15 0 -1.44233e-32 -5.99371 9.09347e-16 9.21632e-16 1.19157 -5.77923e-17 1.52893e-17)
(0 -6.49243e-32 -6.49243e-32 -7.41707 5.51494e-16 6.08438e-16 1.30291 -9.64955e-17 1.14851e-16)
(-2.33914e-15 0 0 -7.41707 1.97215e-31 2.95823e-31 1.30291 5.05017e-46 4.70446e-46)
(0 -1.09592e-31 0 -9.27966 5.71461e-16 7.04715e-16 1.43932 -1.0736e-16 1.65647e-16)
(0 1.09592e-31 0 -9.27966 -7.92078e-16 -4.29841e-16 1.43932 -4.15246e-17 8.02734e-17)
(-2.7626e-15 -4.13774e-32 -4.11094e-32 -11.745 8.64964e-16 4.46407e-16 1.6084 -8.24107e-17 1.77437e-16)
(5.52521e-15 6.16641e-32 8.45585e-32 -11.745 -5.37404e-16 -3.58588e-16 1.6084 -6.03497e-17 6.24145e-17)
(-1.66676e-15 6.93928e-32 4.62619e-32 -15.0091 1.48067e-15 4.28916e-16 1.81821 -1.6593e-16 1.51295e-16)
(-4.90408e-15 -4.62619e-32 -8.79069e-32 -15.0091 -4.60627e-17 -4.5062e-16 1.81821 -5.9343e-17 4.36865e-17)
(-1.04701e-15 0 -2.43865e-32 -19.2107 1.30987e-15 3.82581e-16 2.07208 -1.19854e-16 2.85096e-17)
(0 1.3015e-32 0 -19.2107 4.76261e-17 -4.17492e-16 2.07208 2.74613e-17 7.18984e-17)
(8.44723e-16 -1.46463e-32 2.58716e-31 -24.1651 6.68214e-16 2.3848e-30 2.35314 -8.13681e-17 0)
(0 -1.00167e-33 0 -24.1651 -1.95008e-32 -2.24397e-16 2.35314 -7.21782e-18 3.82956e-17)
(-6.30578e-16 5.81885e-33 -2.39017e-32 -29.0462 1.73629e-16 -3.56718e-16 2.59748 -4.63518e-17 1.98257e-17)
(2.52231e-15 4.1205e-33 -1.16141e-32 -29.0462 -8.64806e-17 -3.40813e-16 2.59748 1.31988e-19 3.77802e-17)
(6.68253e-16 -1.36083e-58 3.70955e-32 -32.6978 -9.60638e-31 -6.23364e-16 2.69972 -6.16298e-33 4.38847e-17)
(1.71624e-15 2.07839e-32 1.36562e-32 -32.6978 -7.67849e-17 -5.94533e-16 2.69972 3.11448e-18 4.16005e-17)
(2.60287e-16 -1.82634e-32 5.43047e-32 -34.6452 5.48436e-16 -7.92859e-16 2.61057 -4.00314e-17 5.65081e-17)
(1.04115e-15 1.82634e-32 0 -34.6452 -3.83409e-16 -7.5455e-16 2.61057 7.88396e-19 5.35804e-17)
(-1.23606e-16 0 -8.83156e-33 -35.3813 2.51964e-16 -8.49984e-16 2.39697 -1.74055e-17 5.77296e-17)
(0 0 0 -35.3813 -1.44039e-16 -8.04849e-16 2.39697 -5.68589e-18 4.3504e-17)
(8.59076e-18 -6.25612e-35 1.97217e-32 -35.6001 2.51535e-16 -8.46092e-16 2.1505 -1.14099e-17 5.15329e-17)
(3.43631e-17 0 -1.32162e-32 -35.6001 2.07542e-16 -7.79401e-16 2.1505 -2.07617e-18 3.42888e-17)
(0 1.69581e-30 1.38849e-29 -35.6745 7.37231e-17 -1.78587e-15 1.25425 -3.63124e-18 4.51679e-17)
(-2.67923e-16 0 -1.48727e-32 -35.6745 1.48465e-16 -1.59764e-15 1.25425 -2.13456e-19 2.66674e-17)
(0 0 -9.2661e-30 -35.7196 5.01601e-17 0 0.401627 -1.7128e-18 -4.51788e-29)
(0 1.18347e-34 1.71617e-29 -35.7196 8.20797e-49 -7.74676e-16 0.401627 8.52777e-19 -4.48937e-18)
(-3.16359e-15 1.2392e-31 -5.67723e-31 -1.53524e-09 0 5.66263e-16 -3.45044e-09 5.48553e-15 -3.95628e-16)
(3.98538e-18 2.22617e-31 3.38752e-31 -1.53543e-09 4.13807e-16 1.52959e-15 -3.45044e-09 5.32221e-15 1.78644e-15)
(4.9367e-16 0 0 -0.0460878 -1.16278e-15 -1.16107e-44 -0.136982 4.77846e-15 -1.70838e-29)
(0 1.20348e-31 -1.54292e-30 -0.0460878 -9.92278e-16 -4.35234e-17 -0.136982 3.90288e-15 -1.89582e-15)
(-2.95265e-15 -1.75162e-46 -3.50325e-46 -0.0723863 -1.22269e-44 -1.97903e-44 -0.225954 9.46633e-30 2.44547e-29)
(-1.18106e-14 4.59393e-30 -8.68152e-31 -0.0723863 -2.72542e-16 -2.18271e-15 -0.225954 4.83691e-16 3.2645e-15)
(-7.32464e-15 7.2098e-31 -3.05301e-32 -0.0972232 1.89693e-15 5.41367e-15 -0.284463 2.9916e-15 1.30793e-15)
(-4.39985e-15 1.6864e-30 1.5265e-32 -0.0972232 1.23398e-15 2.8658e-15 -0.284463 1.94608e-15 1.32897e-15)
(2.89633e-15 6.73603e-31 2.62988e-30 -0.12265 1.77786e-15 0 -0.326378 1.9813e-15 -3.54987e-30)
(0 -5.49705e-31 -2.19882e-30 -0.12265 1.67767e-15 7.31421e-17 -0.326378 3.11177e-15 -4.63016e-15)
(2.78594e-15 -9.27904e-31 -6.18603e-31 -0.150123 1.04417e-15 -2.52516e-16 -0.359223 2.06337e-16 4.54527e-16)
(-1.42533e-14 0 0 -0.150123 9.69467e-45 2.45924e-15 -0.359223 1.93271e-29 2.09206e-15)
(0 3.02683e-32 0 -0.180787 0 2.4403e-15 -0.386956 0 1.98013e-15)
(-3.13512e-15 2.31648e-31 3.62838e-31 -0.180787 1.57448e-15 2.74404e-45 -0.386956 -1.447e-15 6.53631e-16)
(2.80412e-15 0 0 -0.215711 -8.1227e-16 -2.04091e-15 -0.411839 -1.11273e-16 6.69839e-16)
(-1.82726e-14 0 -1.56677e-30 -0.215711 4.78799e-17 -1.16448e-15 -0.411839 -4.43398e-16 1.18963e-15)
(6.74091e-15 1.65295e-31 0 -0.256017 -6.65676e-16 -2.50332e-15 -0.435287 8.12574e-16 -1.29278e-15)
(-1.50529e-14 0 0 -0.256017 0 0 -0.435287 -3.95047e-30 -1.73549e-29)
(0 1.33561e-45 9.92065e-31 -0.302955 -8.2606e-46 -2.27535e-15 -0.458251 -2.39621e-30 4.16507e-16)
(-1.09427e-14 -3.1002e-32 -9.92065e-31 -0.302955 -3.34611e-16 -4.93356e-15 -0.458251 -2.93236e-16 -1.85455e-15)
(2.88419e-15 0 0 -0.357962 1.08397e-16 -9.63359e-17 -0.481402 -8.34436e-17 1.05576e-16)
(0 -4.81696e-46 -5.58203e-31 -0.357962 0 -3.55137e-15 -0.481402 -8.52436e-31 -7.41025e-16)
(8.15039e-15 1.17781e-31 1.67297e-44 -0.422714 4.22268e-17 0 -0.505234 4.14303e-16 2.08062e-29)
(-2.12855e-14 -1.22689e-31 6.28166e-31 -0.422714 -7.95686e-16 -9.57251e-16 -0.505234 4.37948e-16 -9.2319e-17)
(2.62046e-15 6.18367e-32 0 -0.499179 -4.93038e-32 -1.59145e-15 -0.530118 -2.41184e-31 6.3154e-16)
(1.04818e-14 1.55894e-44 4.18551e-31 -0.499179 -9.86076e-32 -1.198e-15 -0.530118 1.558e-29 1.82266e-16)
(2.57821e-15 -3.4803e-31 0 -0.589681 -5.30989e-16 0 -0.55634 1.04552e-15 7.91209e-17)
(0 -7.16669e-32 0 -0.589681 3.85088e-16 -3.42953e-15 -0.55634 1.86463e-16 3.9068e-17)
(2.53382e-15 -1.20424e-45 0 -0.69698 -3.11151e-61 -1.22649e-15 -0.584134 -2.16937e-30 4.47789e-16)
(0 -5.07971e-45 -1.75162e-45 -0.69698 -5.75107e-31 -1.97215e-31 -0.584134 4.45778e-16 1.2649e-29)
(0 -2.5185e-31 -6.29626e-32 -0.824376 1.67184e-15 1.12991e-15 -0.613705 4.51897e-17 7.26701e-17)
(-1.2217e-14 0 3.14813e-32 -0.824376 4.93038e-32 2.5358e-15 -0.613705 3.15544e-30 2.58606e-16)
(2.43798e-15 1.16814e-31 0 -0.97585 0 4.49529e-16 -0.645256 1.55307e-30 -2.87364e-16)
(0 -1.06281e-31 -3.50325e-46 -0.97585 1.01199e-15 9.86076e-32 -0.645256 2.73925e-16 -9.86076e-32)
(2.38618e-15 2.4677e-31 7.56206e-32 -1.15626 -1.1335e-15 -4.46712e-16 -0.679014 -1.82315e-16 -1.34875e-16)
(0 -1.75162e-46 0 -1.15626 2.46519e-32 -2.38073e-15 -0.679014 3.95342e-31 -4.28195e-16)
(5.56431e-15 -3.92951e-31 1.34592e-31 -1.3716 -9.86076e-32 -1.95981e-16 -0.715273 0 -3.01316e-16)
(6.09327e-15 8.97281e-32 -3.6275e-32 -1.3716 9.54371e-16 -1.97215e-31 -0.715273 6.21665e-17 -6.53472e-17)
(0 5.04871e-32 -1.26218e-31 -1.62942 1.54461e-15 1.03196e-15 -0.754423 -1.07464e-16 -3.1833e-16)
(0 7.64262e-32 5.04871e-32 -1.62942 -1.97215e-31 4.31912e-16 -0.754423 1.37677e-16 -1.11147e-16)
(4.2595e-15 -5.6815e-32 2.27877e-31 -1.93936 -3.16308e-16 -4.93038e-32 -0.797004 -1.24367e-16 0)
(-1.08971e-14 0 -2.28616e-31 -1.93936 0 1.04098e-15 -0.797004 1.43217e-30 -1.53801e-16)
(-2.14749e-15 0 -6.39359e-32 -2.31391 -1.92087e-45 -1.94644e-15 -0.843762 1.55923e-30 -2.53474e-16)
(-8.58994e-15 7.00649e-46 0 -2.31391 1.97215e-31 4.03088e-16 -0.843762 0 -4.11723e-16)
(2.07812e-15 0 0 -2.76961 1.72098e-16 -1.36757e-15 -0.895715 -1.31038e-19 3.71852e-17)
(0 0 0 -2.76961 -6.59958e-16 -1.59783e-15 -0.895715 3.7506e-17 -1.83271e-16)
(0 1.21451e-31 -2.47962e-31 -3.32866 -3.18369e-16 4.50775e-17 -0.954248 5.01204e-17 4.53895e-17)
(-8.01515e-15 1.17695e-30 2.8327e-32 -3.32866 -7.54489e-17 9.86076e-32 -0.954248 9.84147e-17 -5.10293e-17)
(1.92363e-15 3.53456e-32 -1.25283e-31 -4.02139 9.0093e-16 1.32526e-16 -1.02123 2.67706e-16 4.11502e-17)
(-7.69451e-15 -4.55576e-32 1.25283e-31 -4.02139 -5.17449e-16 4.63156e-16 -1.02123 8.72071e-17 -8.72699e-17)
(3.67307e-15 1.76181e-30 0 -4.88996 0 1.21898e-16 -1.0992 2.69755e-16 1.25597e-18)
(-7.34614e-15 0 0 -4.88996 2.07269e-44 -4.59523e-16 -1.0992 4.53595e-30 -6.11654e-17)
(0 0 0 -5.99371 -3.47286e-16 -2.46519e-32 -1.19157 2.70655e-16 1.12092e-46)
(-2.07862e-15 1.44233e-32 -2.10195e-45 -5.99371 1.34264e-15 8.01187e-32 -1.19157 5.77923e-17 -1.52893e-17)
(1.63518e-15 1.62311e-32 -1.34765e-32 -7.41707 -1.42041e-16 -9.60492e-17 -1.30291 3.04462e-16 -9.50023e-17)
(-6.5407e-15 -1.62311e-32 1.62311e-32 -7.41707 -6.07051e-16 8.26719e-16 -1.30291 -9.84103e-17 -1.41825e-16)
(0 1.32437e-31 3.28429e-47 -9.27966 -1.57772e-30 0 -1.43932 2.38578e-16 6.3788e-32)
(-6.06549e-15 -2.8026e-45 1.82654e-32 -9.27966 1.45464e-43 4.02971e-16 -1.43932 -2.253e-30 -1.50359e-16)
(0 0 4.11094e-32 -11.745 -3.3125e-16 -2.80572e-16 -1.6084 2.29557e-16 -3.66952e-17)
(0 0 -4.11094e-32 -11.745 3.09965e-16 -8.37077e-17 -1.6084 6.03497e-17 -1.40686e-16)
(-1.22602e-15 1.21068e-32 -1.85204e-32 -15.0091 2.5291e-16 5.5243e-18 -1.81821 1.13442e-16 -4.49699e-17)
(0 -6.99379e-30 -1.15655e-32 -15.0091 1.06401e-15 -3.44794e-16 -1.81821 5.9343e-17 -1.18708e-16)
(1.04701e-15 1.77314e-32 -1.53825e-32 -19.2107 7.11024e-16 7.0958e-17 -2.07208 1.06947e-16 -3.3726e-17)
(-6.0637e-15 0 -7.22501e-31 -19.2107 -1.19885e-43 -1.43551e-16 -2.07208 6.48961e-30 -8.93785e-17)