/*--------------------------------*- C++ -*----------------------------------*\
| =========                 |                                                 |
| \\      /  F ield         | OpenFOAM: The Open Source CFD Toolbox           |
|  \\    /   O peration     | Version:  2012                                  |
|   \\  /    A nd           | Website:  www.openfoam.com                      |
|    \\/     M anipulation  |                                                 |
\*---------------------------------------------------------------------------*/
FoamFile
{
    version     2.0;
    format      ascii;
    class       surfaceScalarField;
    location    "19000";
    object      phi;
}
// * * * * * * * * * * * * * * * * * * * * * * * * * * * * * * * * * * * * * //

dimensions      [0 3 -1 0 0 0 0];
oriented        oriented;


internalField   nonuniform List<scalar> 
156
(
1.94427e-05
-2.90645e-18
-1.00472e-19
-4.29838e-19
6.20744e-20
0.000117301
-2.78336e-18
1.78095e-19
-1.05913e-18
3.16167e-19
0.000351242
-2.58453e-18
1.0144e-19
-1.59341e-18
2.32556e-19
0.000735933
-2.29969e-18
-3.31566e-20
-1.82107e-18
5.54006e-20
0.00136592
-2.00328e-18
-2.60679e-19
-1.81825e-18
-1.98242e-19
0.00242291
-1.58797e-18
-3.62106e-19
-1.65235e-18
-4.65641e-19
0.00421161
-1.26371e-18
-1.84693e-19
-1.43498e-18
-3.24592e-19
0.0072477
-1.33731e-18
-4.18846e-19
-1.30583e-18
-4.39609e-19
0.0123994
5.67036e-19
8.95871e-20
5.41688e-19
-9.21191e-20
0.0211285
3.53496e-18
4.606e-19
2.41237e-20
4.79861e-19
1.94427e-05
-5.8371e-20
2.0976e-20
0.000117301
1.80978e-19
2.87554e-19
0.000351242
4.41131e-19
4.27401e-19
0.000735933
3.07823e-19
5.7953e-19
0.00136592
9.63392e-20
8.99897e-20
0.00242291
-2.48651e-19
-2.7058e-19
0.00421161
-6.34224e-19
-7.58293e-19
0.0072477
-1.0623e-18
-1.02769e-18
0.0123994
6.57863e-19
5.71068e-19
0.0211285
4.6046e-19
5.07058e-19
0.0211285
1.41859e-18
-1.0604e-18
1.41977e-18
-1.99221e-18
0.0123994
8.04471e-19
-1.83327e-20
7.55404e-19
-5.41286e-19
0.0072477
-9.88062e-20
-1.65797e-19
-1.57387e-20
-7.3953e-19
0.00421161
5.82446e-20
-2.76347e-20
3.85936e-20
-3.49316e-20
0.00242291
-2.93648e-20
-4.83503e-20
6.74415e-20
3.13707e-20
0.00136592
-1.35888e-20
-1.77444e-20
2.42511e-20
-2.52093e-21
0.000735933
-3.25856e-20
-6.69569e-21
2.58858e-20
-5.52981e-21
0.000351242
-1.10454e-20
-1.69374e-21
-2.21479e-21
-2.99102e-21
0.000117301
1.00156e-21
-1.06579e-21
-1.32316e-21
-2.27341e-21
1.94427e-05
3.40284e-22
5.50925e-22
0.0211285
1.51698e-18
1.52663e-18
0.0123994
8.19664e-19
7.3528e-19
0.0072477
-1.44134e-19
-1.13799e-20
0.00421161
-6.10809e-20
-7.34158e-20
0.00242291
-2.15669e-20
-2.19193e-20
0.00136592
1.67269e-20
-1.41479e-20
0.000735933
9.34657e-21
2.17606e-20
0.000351242
9.57755e-21
6.51933e-21
0.000117301
-5.19021e-21
3.23276e-21
1.94427e-05
)
;

boundaryField
{
    walls
    {
        type            calculated;
        value           uniform 0;
    }
    inlet
    {
        type            cyclic;
        value           nonuniform List<scalar> 
40
(
-1.94427e-05
-0.000117301
-0.000351242
-0.000735933
-0.00136592
-0.00242291
-0.00421161
-0.0072477
-0.0123994
-0.0211285
-1.94427e-05
-0.000117301
-0.000351242
-0.000735933
-0.00136592
-0.00242291
-0.00421161
-0.0072477
-0.0123994
-0.0211285
-0.0211285
-0.0123994
-0.0072477
-0.00421161
-0.00242291
-0.00136592
-0.000735933
-0.000351242
-0.000117301
-1.94427e-05
-0.0211285
-0.0123994
-0.0072477
-0.00421161
-0.00242291
-0.00136592
-0.000735933
-0.000351242
-0.000117301
-1.94427e-05
)
;
    }
    outlet
    {
        type            cyclic;
        value           nonuniform List<scalar> 
40
(
1.94427e-05
0.000117301
0.000351242
0.000735933
0.00136592
0.00242291
0.00421161
0.0072477
0.0123994
0.0211285
1.94427e-05
0.000117301
0.000351242
0.000735933
0.00136592
0.00242291
0.00421161
0.0072477
0.0123994
0.0211285
0.0211285
0.0123994
0.0072477
0.00421161
0.00242291
0.00136592
0.000735933
0.000351242
0.000117301
1.94427e-05
0.0211285
0.0123994
0.0072477
0.00421161
0.00242291
0.00136592
0.000735933
0.000351242
0.000117301
1.94427e-05
)
;
    }
    sides
    {
        type            empty;
        value           nonuniform List<scalar> 0();
    }
}


// ************************************************************************* //
