/*--------------------------------*- C++ -*----------------------------------*\
| =========                 |                                                 |
| \\      /  F ield         | OpenFOAM: The Open Source CFD Toolbox           |
|  \\    /   O peration     | Version:  2012                                  |
|   \\  /    A nd           | Website:  www.openfoam.com                      |
|    \\/     M anipulation  |                                                 |
\*---------------------------------------------------------------------------*/
FoamFile
{
    version     2.0;
    format      ascii;
    class       volVectorField;
    location    "19000";
    object      U;
}
// * * * * * * * * * * * * * * * * * * * * * * * * * * * * * * * * * * * * * //

dimensions      [0 1 -1 0 0 0 0];


internalField   nonuniform List<vector> 
80
(
(0.0965062 -1.16008e-15 -2.52032e-16)
(0.0965062 -5.14564e-16 0)
(0.349043 -6.64151e-16 1.03973e-15)
(0.349043 -5.97726e-16 -4.37012e-16)
(0.626558 -1.09449e-15 9.42774e-16)
(0.626558 -6.36313e-16 -5.0932e-16)
(0.786993 -1.00208e-15 1.09559e-15)
(0.786993 -7.48067e-16 -3.71611e-16)
(0.875658 -8.52302e-16 6.31496e-16)
(0.875658 -7.30253e-16 -8.26255e-17)
(0.931163 -7.54753e-16 1.37296e-15)
(0.931163 -7.31641e-16 1.31314e-15)
(0.970317 -4.70273e-16 1.36947e-15)
(0.970317 -5.18561e-16 1.64057e-15)
(1.00102 -7.32411e-16 3.46634e-15)
(1.00102 -7.64306e-16 3.21412e-15)
(1.02665 4.71803e-17 2.61656e-15)
(1.02665 1.39654e-16 2.64245e-15)
(1.04874 1.63868e-16 6.85048e-15)
(1.04874 1.33685e-16 7.02036e-15)
(0.0965062 -5.90668e-17 2.09797e-16)
(0.0965062 -3.19305e-17 6.16228e-16)
(0.349043 1.02843e-16 1.60971e-16)
(0.349043 1.40322e-16 1.60434e-15)
(0.626558 8.01975e-17 1.13194e-16)
(0.626558 9.5557e-17 6.19452e-17)
(0.786993 8.74373e-17 1.90089e-17)
(0.786993 1.37889e-16 1.67385e-16)
(0.875658 1.0714e-17 -2.41659e-17)
(0.875658 6.05713e-17 3.84231e-16)
(0.931163 -1.56976e-16 -1.11216e-15)
(0.931163 -1.56347e-16 -1.11295e-15)
(0.970317 -2.27198e-16 -9.0007e-16)
(0.970317 -1.63236e-16 -1.07733e-15)
(1.00102 -6.44573e-16 -3.60049e-15)
(1.00102 -6.19221e-16 -3.37246e-15)
(1.02665 7.96844e-17 -2.65807e-15)
(1.02665 1.28313e-16 -2.61237e-15)
(1.04874 7.40354e-17 -5.32981e-15)
(1.04874 1.40483e-16 -6.35311e-15)
(1.04874 -2.3487e-16 1.14022e-14)
(1.04874 -2.1123e-16 1.15642e-14)
(1.02665 3.24018e-16 3.01318e-15)
(1.02665 3.03378e-16 2.90778e-15)
(1.00102 -6.73625e-17 1.30351e-17)
(1.00102 1.78556e-17 2.76483e-16)
(0.970317 2.2254e-17 1.74681e-16)
(0.970317 3.34153e-17 8.04706e-17)
(0.931163 1.33702e-17 4.58676e-17)
(0.931163 3.21177e-17 8.54898e-17)
(0.875658 5.84631e-18 7.37884e-17)
(0.875658 1.13898e-17 5.66819e-17)
(0.786993 -9.28228e-19 4.84256e-17)
(0.786993 2.06697e-17 4.41833e-17)
(0.626558 -1.12391e-17 3.82486e-17)
(0.626558 2.89197e-18 2.66315e-17)
(0.349043 -2.85865e-18 3.67002e-17)
(0.349043 -1.96017e-18 3.8357e-17)
(0.0965062 -3.25001e-19 7.51181e-18)
(0.0965062 5.98661e-19 1.04949e-17)
(1.04874 -4.59123e-16 -1.0893e-14)
(1.04874 -2.65537e-16 -1.15848e-14)
(1.02665 3.39351e-16 -2.97939e-15)
(1.02665 3.42217e-16 -2.83316e-15)
(1.00102 -6.75407e-18 -1.96508e-16)
(1.00102 7.158e-17 -4.8842e-16)
(0.970317 -2.23645e-17 -1.56709e-16)
(0.970317 -2.27847e-17 -2.65602e-16)
(0.931163 -3.41447e-17 -4.98727e-17)
(0.931163 -3.71564e-17 -6.89996e-17)
(0.875658 8.287e-18 -6.61742e-17)
(0.875658 4.21451e-18 -2.99866e-17)
(0.786993 8.13543e-18 -2.35282e-17)
(0.786993 6.39389e-18 -4.19478e-17)
(0.626558 1.22085e-18 -2.49078e-17)
(0.626558 4.25625e-18 -4.87102e-17)
(0.349043 3.40997e-19 -3.38928e-17)
(0.349043 3.1332e-18 -7.10528e-17)
(0.0965062 2.92757e-19 -3.6361e-18)
(0.0965062 3.10624e-19 -9.65302e-18)
)
;

boundaryField
{
    walls
    {
        type            fixedValue;
        value           uniform (0 0 0);
    }
    inlet
    {
        type            cyclic;
    }
    outlet
    {
        type            cyclic;
    }
    sides
    {
        type            empty;
    }
}


// ************************************************************************* //
