/*--------------------------------*- C++ -*----------------------------------*\
| =========                 |                                                 |
| \\      /  F ield         | OpenFOAM: The Open Source CFD Toolbox           |
|  \\    /   O peration     | Version:  2012                                  |
|   \\  /    A nd           | Website:  www.openfoam.com                      |
|    \\/     M anipulation  |                                                 |
\*---------------------------------------------------------------------------*/
FoamFile
{
    version     2.0;
    format      ascii;
    class       volTensorField;
    location    "2000";
    object      grad(U);
}
// * * * * * * * * * * * * * * * * * * * * * * * * * * * * * * * * * * * * * //

dimensions      [0 0 -1 0 0 0 0];


internalField   nonuniform List<tensor> 
320
(
(0 -7.27036e-27 1.07115e-30 35.7214 -1.68421e-12 -3.51319e-13 0.401646 -9.35293e-15 -9.90922e-16)
(0 -5.02107e-28 -5.35577e-31 35.7214 0 8.01028e-16 0.401646 9.86076e-32 9.57856e-16)
(-2.67923e-16 -9.71466e-27 7.61482e-30 35.6762 1.00924e-27 -2.77866e-13 1.25431 0 -4.881e-15)
(0 -5.33037e-29 -6.66297e-30 35.6762 -3.6199e-14 2.39124e-15 1.25431 -6.51591e-16 -1.30904e-15)
(0 -2.70668e-29 -1.69168e-30 35.6019 3.82905e-13 -1.58542e-13 2.1506 -2.65439e-14 -6.54974e-15)
(-3.43657e-17 2.70668e-29 3.38335e-30 35.6019 -2.23989e-14 3.86751e-15 2.1506 -8.73256e-16 -1.55118e-15)
(-1.23613e-16 2.83764e-29 1.50326e-30 35.383 1.64206e-13 -1.65259e-13 2.39708 -1.64538e-14 -8.57694e-15)
(-4.9445e-16 -1.80392e-29 0 35.383 -3.76613e-14 5.20841e-15 2.39708 -1.4626e-15 -1.74267e-15)
(0 1.603e-29 8.01502e-30 34.6468 4.37487e-14 -1.54767e-13 2.61068 -3.83992e-15 -1.09393e-14)
(0 -3.20601e-29 -1.06867e-29 34.6468 -4.67292e-14 5.19734e-15 2.61068 -2.32555e-15 -1.8491e-15)
(0 -2.18149e-29 -2.37411e-30 32.6991 5.87141e-14 -1.17186e-13 2.69982 -2.3815e-15 -7.89391e-15)
(-3.43267e-15 1.89929e-29 7.12234e-30 32.6991 -5.14403e-14 4.33892e-15 2.69982 -3.46583e-15 -1.82425e-15)
(0 -8.43877e-30 4.21939e-30 29.0471 8.09432e-14 -6.57968e-14 2.59755 -8.06374e-15 -3.88266e-15)
(2.52245e-15 8.43877e-30 0 29.0471 -4.87727e-14 3.57977e-15 2.59755 -4.75524e-15 -1.62592e-15)
(-1.68953e-15 4.0308e-29 1.90748e-29 24.1657 7.11739e-14 -2.62469e-14 2.35319 -6.63026e-15 -1.36142e-15)
(0 -2.99956e-29 -1.49978e-29 24.1657 -4.36927e-14 3.35579e-15 2.35319 -6.03382e-15 -1.26832e-15)
(-3.75133e-15 3.33185e-29 1.33274e-29 19.2111 6.84083e-14 -9.61104e-15 2.07212 -8.07876e-15 -8.29421e-16)
(-2.31257e-15 -1.99911e-29 -9.99555e-30 19.2111 -4.01642e-14 3.4126e-15 2.07212 -7.43195e-15 -8.19655e-16)
(0 1.1843e-29 8.88228e-30 15.0093 5.68744e-14 -8.6621e-15 1.81824 -7.7169e-15 -1.46169e-15)
(0 -5.92152e-30 -5.92152e-30 15.0093 -3.57182e-14 3.59762e-15 1.81824 -8.88016e-15 -3.48088e-16)
(-1.38136e-15 4.44333e-30 2.08131e-30 11.7451 4.74814e-14 -1.34339e-14 1.60842 -7.04166e-15 -2.53513e-15)
(5.52542e-15 5.262e-30 5.262e-30 11.7451 -3.12684e-14 3.63056e-15 1.60842 -1.02329e-14 1.1718e-16)
(0 0 4.67594e-30 9.27977 4.05542e-14 -1.87029e-14 1.43933 -6.84984e-15 -3.69603e-15)
(0 0 0 9.27977 -2.82041e-14 3.3552e-15 1.43933 -1.16769e-14 5.48522e-16)
(7.0391e-16 -4.18375e-30 -1.04575e-29 7.41715 3.55255e-14 -2.29978e-14 1.30292 -6.49185e-15 -4.90281e-15)
(4.20179e-15 8.31031e-30 1.26028e-29 7.41715 -2.52421e-14 3.25069e-15 1.30292 -1.31718e-14 6.55499e-16)
(1.74109e-15 -3.89232e-30 1.6572e-30 5.99376 3.26045e-14 -2.59896e-14 1.19157 -6.69297e-15 -6.0072e-15)
(-2.07862e-15 0 -3.69237e-30 5.99376 -2.20169e-14 2.98498e-15 1.19157 -1.45668e-14 5.85966e-16)
(-1.8366e-15 -2.92136e-30 -4.90454e-45 4.88997 2.76946e-14 2.00832e-29 1.0992 -6.92588e-15 8.55164e-46)
(1.46928e-14 6.56225e-30 2.98265e-29 4.88997 -1.93912e-14 3.33669e-15 1.0992 -1.59481e-14 1.00562e-15)
(3.28277e-15 -5.83137e-30 -8.74706e-30 4.02139 2.15071e-14 5.83203e-14 1.02123 -6.02582e-15 -1.21656e-14)
(0 5.83137e-30 -2.8026e-45 4.02139 -1.70941e-14 -4.05634e-30 1.02123 -1.73602e-14 -3.9443e-31)
(0 -5.1819e-30 -7.77285e-30 3.32863 1.70776e-14 6.39529e-14 0.954237 -5.29621e-15 -1.442e-14)
(8.01539e-15 5.1819e-30 1.03638e-29 3.32863 -1.43752e-14 -1.69595e-14 0.954237 -1.85046e-14 7.59071e-16)
(-5.1845e-15 0 4.60476e-30 2.76957 1.42709e-14 4.14861e-14 0.895697 -4.83185e-15 -9.80201e-15)
(0 0 0 2.76957 -1.10657e-14 -9.65489e-15 0.895697 -1.97062e-14 -3.75913e-16)
(0 8.18379e-30 2.04595e-30 2.31386 1.21443e-14 1.52478e-14 0.843737 -4.71105e-15 -7.89548e-15)
(1.71804e-14 0 0 2.31386 -7.45279e-15 -6.27664e-15 0.843737 -2.08192e-14 -8.17332e-16)
(-2.21258e-15 -4.0227e-30 -3.04502e-30 1.93929 1.01873e-14 5.83876e-15 0.796972 -4.41716e-15 -3.0201e-15)
(0 7.27231e-30 3.63616e-30 1.93929 -5.44779e-15 -5.77196e-15 0.796972 -2.05816e-14 -1.41297e-15)
(2.2738e-15 -3.17323e-30 -2.33231e-30 1.62935 8.19395e-15 2.73182e-15 0.754382 -4.20351e-15 -1.85956e-15)
(0 0 1.61559e-30 1.62935 -3.1339e-15 -6.02446e-15 0.754382 -1.40264e-14 -2.2625e-15)
(4.66315e-15 -1.20531e-29 -2.12956e-30 1.37152 6.46005e-15 2.5192e-15 0.715224 -3.57371e-15 -6.75904e-16)
(0 0 0 1.37152 -2.06935e-16 -1.04662e-14 0.715224 -9.92313e-15 -3.24739e-15)
(0 0 0 1.15617 5.89354e-15 1.85189e-15 0.678958 -3.34579e-15 -2.49476e-15)
(-9.54495e-15 8.88794e-30 2.55151e-30 1.15617 9.72031e-16 -1.1954e-14 0.678958 -6.93732e-15 -5.26736e-15)
(2.55279e-15 -9.06931e-30 -9.46092e-31 0.975762 5.29971e-15 -5.00494e-30 0.645192 -3.79863e-15 -7.88861e-31)
(7.19936e-15 -1.80252e-30 -1.60411e-30 0.975762 1.68484e-15 -5.88461e-15 0.645192 -3.9811e-15 -4.77351e-15)
(-4.97437e-15 6.00113e-30 1.35347e-30 0.82429 5.55655e-15 2.78692e-15 0.613636 -3.37939e-15 -2.082e-15)
(0 0 0 0.82429 2.88505e-15 -5.80843e-16 0.613636 -2.08705e-15 -1.1254e-15)
(0 0 0 0.696896 5.86049e-15 2.45947e-16 0.584059 -5.22795e-15 -2.18654e-15)
(0 0 0 0.696896 4.88663e-15 7.14039e-16 0.584059 -3.01748e-15 -8.18374e-16)
(0 -6.36397e-30 -2.87676e-31 0.589601 4.0344e-15 -9.86076e-32 0.55626 -4.83549e-15 0)
(0 0 0 0.589601 4.65364e-15 1.77541e-16 0.55626 -5.54185e-15 -2.15301e-15)
(0 0 -2.82759e-30 0.499105 3.29752e-15 -5.36789e-16 0.530035 -2.8621e-15 -2.62728e-15)
(0 0 0 0.499105 3.01004e-15 -1.17234e-15 0.530035 -3.34173e-15 -2.639e-15)
(0 5.02533e-30 0 0.422647 3.61442e-15 -2.03961e-15 0.505151 -4.41682e-15 -2.35962e-15)
(1.06429e-14 -1.60011e-29 0 0.422647 2.6951e-15 -2.81413e-15 0.505151 -3.21121e-15 -3.83308e-15)
(0 -4.46562e-30 0 0.357902 1.71893e-15 -7.2419e-15 0.481319 -4.45051e-15 -1.49558e-15)
(1.07963e-14 -6.37322e-30 2.23281e-30 0.357902 1.75723e-15 -5.92096e-15 0.481319 -3.41102e-15 -1.215e-15)
(0 -2.72972e-31 -1.32588e-30 0.302902 4.32434e-17 -3.43531e-15 0.45817 -3.358e-17 -2.66764e-15)
(1.09428e-14 -1.20706e-29 0 0.302902 1.6943e-15 -4.82011e-15 0.45817 -1.31568e-15 -2.71039e-15)
(0 0 7.00649e-45 0.255971 2.27835e-15 -3.08051e-30 0.43521 -2.62579e-15 -1.44367e-45)
(1.81951e-14 -1.44283e-29 3.52629e-30 0.255971 2.49593e-15 -3.64419e-15 0.43521 -5.60287e-15 -1.95203e-16)
(-3.52806e-15 2.72189e-31 0 0.215673 5.43707e-16 -2.89699e-15 0.411768 -5.50802e-15 1.81674e-15)
(3.52806e-15 0 2.39689e-31 0.215673 1.87214e-16 -3.45955e-15 0.411768 -2.96604e-15 5.40995e-16)
(-2.83615e-15 2.93234e-30 0 0.180756 1.01019e-16 -6.24492e-15 0.386893 -7.82328e-16 -1.35101e-15)
(0 0 0 0.180756 5.10685e-29 -4.08309e-15 0.386893 3.15544e-30 -1.53371e-15)
(-2.78594e-15 2.20467e-30 1.4013e-45 0.150099 1.50047e-15 0 0.359168 -1.8686e-15 -1.97215e-31)
(-5.57188e-15 0 4.94882e-30 0.150099 2.7295e-15 -2.51416e-15 0.359168 -3.70736e-15 -1.02658e-15)
(0 0 -7.5888e-32 0.122632 3.27695e-15 4.7271e-15 0.326332 -1.22466e-14 1.9379e-15)
(1.15853e-14 -1.37543e-30 6.62198e-31 0.122632 2.82903e-15 2.36258e-31 0.326332 -1.02767e-14 2.38582e-15)
(-2.92478e-15 8.1409e-31 0 0.09721 9.26427e-16 6.93832e-15 0.284427 -5.73934e-15 9.35253e-16)
(0 0 0 0.09721 1.20521e-15 1.05439e-14 0.284427 -5.28784e-15 -1.79298e-15)
(-2.95263e-15 1.00473e-42 5.20891e-30 0.0723771 1.13139e-28 1.546e-15 0.225925 0 -8.39614e-16)
(-1.57203e-14 6.04658e-30 -3.47261e-30 0.0723771 1.19943e-15 -1.61289e-16 0.225925 -2.12868e-15 -8.05417e-16)
(0 1.54292e-30 -3.08584e-30 0.0460819 1.11812e-15 -1.64452e-15 0.136964 -8.69709e-15 -2.68572e-15)
(0 3.50325e-46 3.93234e-30 0.0460819 -9.86076e-32 -4.43856e-15 0.136964 -8.11637e-15 -3.34694e-15)
(-7.52327e-17 -1.48206e-31 5.48431e-30 4.93456e-08 -4.13132e-17 1.98248e-15 1.10904e-07 -6.11191e-15 -5.83446e-16)
(3.08739e-15 0 7.91878e-32 4.93455e-08 -1.11229e-15 3.52338e-32 1.10904e-07 -4.11498e-15 5.70608e-16)
(-7.53757e-17 5.19192e-30 0 35.7214 2.30347e-28 1.00261e-13 -0.401646 9.35293e-15 9.90922e-16)
(0 5.23024e-34 -2.5881e-28 35.7214 -1.90832e-15 0 -0.401646 -1.07121e-16 2.5881e-28)
(0 1.18982e-31 -2.67708e-30 35.6762 -1.17628e-14 5.29002e-14 -1.25431 5.79755e-14 4.881e-15)
(0 -1.18982e-31 2.7814e-30 35.6762 -3.81578e-15 -4.43273e-14 -1.25431 6.51591e-16 1.12112e-15)
(0 1.0573e-31 -1.21589e-30 35.6019 -1.34233e-14 2.9429e-14 -2.1506 5.14953e-14 6.54974e-15)
(-3.43657e-17 0 1.01155e-30 35.6019 -5.33383e-15 -1.92081e-14 -2.1506 8.73256e-16 1.0622e-15)
(0 -2.81862e-31 1.50326e-30 35.383 -1.61639e-14 2.87206e-14 -2.39708 4.76126e-14 8.57694e-15)
(4.9445e-16 2.81862e-31 -2.49553e-30 35.383 -7.17785e-15 -1.46664e-14 -2.39708 1.4626e-15 8.01437e-16)
(2.60301e-16 0 0 34.6468 -1.76125e-14 2.42325e-14 -2.61068 4.69431e-14 1.09429e-14)
(0 0 -1.10364e-30 34.6468 -8.39513e-15 -7.60382e-15 -2.61068 2.32555e-15 2.74068e-16)
(1.09734e-15 2.96764e-31 -1.78058e-30 32.6991 -1.76914e-14 1.49916e-14 -2.69982 4.66954e-14 1.32802e-14)
(-3.43267e-15 -2.96764e-31 0 32.6991 -8.24484e-15 0 -2.69982 3.46583e-15 -5.13879e-45)
(0 5.27423e-31 -8.35715e-30 29.0471 -1.66848e-14 5.23411e-46 -2.59755 4.50508e-14 1.50549e-14)
(0 0 2.10969e-30 29.0471 -7.50174e-15 8.39408e-15 -2.59755 4.75524e-15 4.65509e-16)
(-1.68953e-15 4.68681e-31 -6.72665e-30 24.1657 -1.51589e-14 -1.92072e-15 -2.35319 4.37847e-14 1.60502e-14)
(-3.37906e-15 0 1.26249e-30 24.1657 -8.28104e-15 1.22362e-14 -2.35319 6.03382e-15 1.10477e-15)
(2.92272e-15 -2.08241e-30 4.99777e-30 19.2111 -1.21926e-14 -6.50287e-15 -2.07212 4.21519e-14 1.65562e-14)
(-4.18823e-15 1.24944e-30 -4.16481e-30 19.2111 -9.02618e-15 1.2484e-14 -2.07212 7.43195e-15 8.19655e-16)
(0 0 0 15.0093 -9.20537e-15 -6.22375e-15 -1.81824 4.05362e-14 1.69766e-14)
(4.90429e-15 0 -7.4019e-31 15.0093 -7.42745e-15 1.08102e-14 -1.81824 8.88016e-15 3.48088e-16)
(-2.96224e-15 6.5775e-31 -1.97325e-30 11.7451 -7.49568e-15 -4.81413e-15 -1.60842 3.90593e-14 1.75325e-14)
(0 0 9.86626e-31 11.7451 -6.86402e-15 8.64531e-15 -1.60842 1.02329e-14 -1.1718e-16)
(0 0 0 9.27977 -6.1238e-15 -3.44509e-15 -1.43933 3.76109e-14 1.83264e-14)
(-6.06571e-15 0 -5.84493e-31 9.27977 -7.43657e-15 6.23879e-15 -1.43933 1.16769e-14 -5.48522e-16)
(7.0391e-16 0 5.19394e-31 7.41715 -4.62202e-15 -2.14358e-15 -1.30292 3.62268e-14 1.93718e-14)
(6.54093e-15 0 -5.19394e-31 7.41715 -5.99636e-15 3.55736e-15 -1.30292 1.31718e-14 -9.02961e-16)
(3.81971e-15 0 9.23092e-31 5.99376 -3.27098e-15 -1.00445e-15 -1.19157 3.47401e-14 2.06721e-14)
(4.88576e-15 0 -9.23092e-31 5.99376 -4.60425e-15 6.56515e-16 -1.19157 1.45668e-14 -1.17476e-15)
(1.8366e-15 0 -8.20282e-31 4.88997 -3.38912e-15 -2.37917e-16 -1.0992 3.31613e-14 2.22013e-14)
(0 0 0 4.88997 -4.38813e-15 6.01752e-30 -1.0992 1.59481e-14 -1.27258e-15)
(3.28277e-15 -1.45784e-30 1.45784e-30 4.02139 -4.01486e-15 -8.05131e-29 -1.02123 3.19058e-14 1.91588e-14)
(0 1.45784e-30 -7.28922e-31 4.02139 -2.37692e-15 5.88925e-15 -1.02123 1.73602e-14 -2.43853e-15)
(0 1.29547e-30 -6.47737e-31 3.32863 -3.03533e-15 -7.02449e-16 -0.954237 3.0863e-14 1.442e-14)
(0 3.26923e-30 0 3.32863 -8.53515e-16 -2.18776e-15 -0.954237 1.85046e-14 -7.59071e-16)
(4.67043e-15 0 1.15119e-30 2.76957 -1.59617e-15 -1.53102e-15 -0.895697 2.98181e-14 9.80201e-15)
(-2.59225e-15 0 -1.15119e-30 2.76957 -2.80038e-15 -1.22483e-17 -0.895697 1.97062e-14 3.75913e-16)
(0 0 -1.53446e-30 2.31386 -1.54789e-15 -1.44587e-15 -0.843737 2.87406e-14 7.89548e-15)
(8.59019e-15 0 1.53446e-30 2.31386 -1.80321e-15 8.16503e-16 -0.843737 2.08192e-14 8.17332e-16)
(-2.21258e-15 0 -4.5452e-31 1.93929 -2.25761e-15 -1.62541e-15 -0.796972 2.78331e-14 7.27968e-15)
(-2.04697e-15 8.00622e-30 0 1.93929 -6.00515e-16 -9.78553e-16 -0.796972 2.14185e-14 1.41297e-15)
(2.2738e-15 0 0 1.62935 -1.803e-15 -1.89198e-15 -0.754382 2.7069e-14 7.02407e-15)
(-1.81904e-14 0 0 1.62935 -2.73355e-15 -1.63616e-15 -0.754382 2.24498e-14 2.2625e-15)
(4.66315e-15 0 -7.17825e-31 1.37152 -1.2745e-15 -2.47494e-15 -0.715224 2.63097e-14 7.09893e-15)
(0 0 3.58913e-31 1.37152 -1.68525e-15 -5.05899e-16 -0.715224 2.27758e-14 3.24739e-15)
(0 0 -6.37876e-31 1.15617 -2.84643e-15 -8.98984e-16 -0.678958 2.56857e-14 6.90648e-15)
(-2.19626e-14 4.30289e-32 3.18938e-31 1.15617 -3.47911e-15 -2.59798e-15 -0.678958 2.29484e-14 5.26736e-15)
(-2.43804e-15 2.26733e-30 -3.61539e-30 0.975762 -3.30686e-15 0 -0.645192 2.54102e-14 6.81731e-15)
(-1.95043e-14 -2.26733e-30 2.83416e-30 0.975762 -4.50008e-15 -2.79378e-15 -0.645192 2.35661e-14 7.66322e-15)
(2.48718e-15 0 0 0.82429 -2.03695e-15 -2.88067e-15 -0.613636 2.50007e-14 6.9584e-15)
(-1.22172e-14 2.0148e-30 1.25925e-31 0.82429 -3.75758e-15 9.10562e-16 -0.613636 2.38875e-14 8.10052e-15)
(-4.03163e-15 1.7904e-30 -8.95201e-31 0.696896 -2.15661e-15 -2.42965e-15 -0.584059 2.40315e-14 6.83772e-15)
(-6.10385e-15 -1.7904e-30 8.95201e-31 0.696896 -3.45728e-15 4.2597e-16 -0.584059 2.38803e-14 7.47444e-15)
(0 0 0 0.589601 -2.39421e-15 3.81114e-15 -0.55626 2.34286e-14 7.97201e-15)
(-1.0313e-14 3.18199e-30 0 0.589601 -3.14399e-15 5.15571e-15 -0.55626 2.32348e-14 7.65773e-15)
(5.24098e-15 0 0 0.499105 -2.32517e-15 9.03699e-15 -0.530035 2.32631e-14 4.99276e-15)
(0 0 0 0.499105 -2.56495e-15 8.4161e-15 -0.530035 2.31844e-14 4.70722e-15)
(0 0 0 0.422647 -2.26296e-15 7.70836e-15 -0.505151 2.18456e-14 3.42342e-15)
(0 0 0 0.422647 -2.27608e-15 8.34157e-15 -0.505151 2.17434e-14 3.83308e-15)
(0 0 0 0.357902 -1.54462e-15 8.23587e-15 -0.481319 1.47713e-14 1.49558e-15)
(0 0 0 0.357902 -1.85399e-15 7.89949e-15 -0.481319 1.51088e-14 1.215e-15)
(0 0 0 0.302902 -1.18469e-15 7.27242e-15 -0.45817 1.31597e-14 2.93619e-15)
(6.47491e-15 -2.181e-30 0 0.302902 -7.57023e-16 5.8288e-15 -0.45817 1.19827e-14 2.71039e-15)
(5.54134e-15 -3.9673e-30 0 0.255971 -1.28821e-15 5.72093e-15 -0.43521 8.39928e-15 1.2097e-15)
(1.10827e-14 -8.67586e-30 0 0.255971 -5.28111e-16 7.48495e-15 -0.43521 5.91835e-15 1.95203e-16)
(2.80412e-15 -2.9703e-30 2.5406e-31 0.215673 -3.45653e-16 2.22461e-15 -0.411768 5.08404e-16 -1.81674e-15)
(2.2433e-14 -2.30713e-29 -9.80909e-45 0.215673 -1.58727e-16 3.9443e-31 -0.411768 7.9782e-16 -1.04121e-29)
(-2.9897e-16 1.57647e-31 -5.56909e-30 0.180756 1.04359e-15 2.9821e-15 -0.386893 2.98329e-15 1.35101e-15)
(-6.27023e-15 2.78454e-30 0 0.180756 9.05149e-16 2.52899e-15 -0.386893 5.11737e-15 1.53371e-15)
(-5.49098e-15 2.63185e-31 -4.94882e-30 0.150099 1.81451e-15 4.41464e-15 -0.359168 4.63202e-15 1.62328e-15)
(-5.89548e-15 9.23118e-30 0 0.150099 1.23057e-15 6.87046e-15 -0.359168 3.65277e-15 1.02658e-15)
(5.79264e-15 -7.00311e-31 0 0.122632 3.11605e-15 -3.47573e-15 -0.326332 5.64698e-15 -1.9379e-15)
(1.15853e-14 -9.26277e-30 3.9937e-44 0.122632 2.63409e-15 3.92136e-44 -0.326332 3.9902e-15 3.58608e-29)
(2.92478e-15 1.24107e-31 0 0.09721 0 -8.67062e-15 -0.284427 1.16055e-14 -9.35253e-16)
(-1.6099e-14 7.72885e-31 -3.90785e-30 0.09721 1.45682e-15 -1.27606e-14 -0.284427 1.1201e-14 1.79298e-15)
(2.95263e-15 -1.60932e-30 0 0.0723771 3.39427e-16 -3.58392e-15 -0.225925 1.14196e-15 8.39614e-16)
(-1.57203e-14 2.18953e-45 -1.7363e-30 0.0723771 9.86076e-32 -5.97043e-16 -0.225925 4.73317e-30 8.05417e-16)
(2.98066e-15 -1.91655e-31 0 0.0460819 1.11097e-15 1.6562e-15 -0.136964 7.38054e-15 2.68572e-15)
(-3.47435e-15 0 0 0.0460819 1.36449e-15 7.98233e-15 -0.136964 8.11637e-15 3.34694e-15)
(2.93294e-15 4.75741e-32 -5.48431e-30 4.93456e-08 -7.39557e-31 -1.00419e-15 -1.10904e-07 3.04269e-15 5.83446e-16)
(7.96969e-18 1.56661e-32 0 4.93456e-08 -1.05482e-16 -6.30942e-45 -1.10904e-07 4.36743e-15 1.27204e-29)
(-3.00718e-15 -3.13679e-31 -5.48431e-30 -6.90522e-13 3.11412e-17 6.886e-16 1.12266e-12 -2.51471e-15 -6.10982e-16)
(0 0 5.48431e-30 -7.43238e-31 3.72609e-46 5.15386e-15 -4.17606e-31 2.09359e-46 -6.03037e-15)
(-2.98066e-15 2.28217e-31 4.26958e-43 -0.0460819 1.47006e-15 -4.80705e-29 0.136963 -6.03592e-15 7.14729e-47)
(8.44828e-15 1.54292e-30 0 -0.0460819 1.26341e-15 2.71369e-15 0.136963 -7.40283e-15 7.72169e-16)
(2.95263e-15 -5.95654e-32 0 -0.0723771 1.23338e-15 -1.42384e-15 0.225925 -5.7262e-15 1.37112e-15)
(-1.18105e-14 2.72469e-30 0 -0.0723771 7.55689e-16 -2.22568e-15 0.225925 -3.10586e-15 2.20252e-15)
(-2.92478e-15 6.39033e-31 2.97776e-43 -0.09721 8.56369e-30 3.35031e-29 0.284427 -3.37852e-15 7.88861e-31)
(2.33982e-14 -1.4706e-30 3.90785e-30 -0.09721 4.66313e-16 -2.55203e-15 0.284427 -2.82364e-15 -2.49075e-16)
(0 0 0 -0.122632 1.64069e-17 5.85138e-15 0.326332 -7.31987e-17 -2.64738e-15)
(-1.40609e-14 1.67576e-30 3.61759e-30 -0.122632 1.91719e-16 2.66232e-16 0.326332 -2.6868e-16 -3.73105e-16)
(2.86684e-15 -5.09936e-31 0 -0.150099 9.79421e-16 4.75272e-15 0.359168 -1.21971e-15 4.82843e-15)
(-1.14674e-14 7.77973e-31 0 -0.150099 1.39624e-15 5.18766e-15 0.359168 -2.01748e-15 2.25382e-15)
(0 -8.7017e-32 -1.39227e-30 -0.180756 1.85856e-15 -1.67886e-15 0.386893 -1.29708e-15 1.18875e-15)
(0 -1.1711e-31 0 -0.180756 8.27175e-16 4.35272e-16 0.386893 -1.50772e-15 7.37981e-16)
(3.52806e-15 6.45394e-32 -8.68117e-31 -0.215673 -6.56297e-32 1.209e-29 0.411768 -4.65055e-16 0)
(0 -1.95847e-31 1.56677e-30 -0.215673 -5.35876e-16 -1.02224e-15 0.411768 -7.78565e-16 -2.00372e-15)
(-2.77067e-15 0 8.33026e-32 -0.255971 -1.97215e-31 2.51083e-16 0.43521 -3.95383e-48 -2.19412e-16)
(0 0 0 -0.255971 -4.60685e-16 2.25298e-16 0.43521 -1.29131e-15 -1.99196e-15)
(-2.73569e-15 -2.75753e-31 0 -0.302902 1.83056e-16 2.95267e-15 0.45817 -1.42149e-16 -1.67074e-15)
(1.09428e-14 4.96032e-31 -1.87522e-31 -0.302902 -3.86014e-17 3.76562e-15 0.45817 -1.0745e-15 -1.83007e-15)
(0 0 2.23281e-30 -0.357902 -3.26757e-17 5.4403e-15 0.481319 -6.69824e-16 -8.89586e-16)
(-1.90787e-14 -2.79102e-31 -2.23281e-30 -0.357902 -1.24842e-15 5.05748e-15 0.481319 -6.23369e-16 1.05048e-15)
(2.82901e-15 0 -3.14083e-31 -0.422647 -2.81032e-16 4.54123e-15 0.505151 -1.15808e-15 1.95117e-15)
(0 4.29148e-45 0 -0.422647 -4.68386e-31 1.96817e-15 0.505151 -8.71755e-47 4.29404e-17)
(0 -6.67537e-32 0 -0.499105 4.19082e-31 9.05278e-16 0.530035 0 2.88971e-16)
(1.0482e-14 -5.65409e-31 0 -0.499105 -1.09623e-30 -4.83682e-16 0.530035 -1.89657e-15 1.05898e-16)
(2.57825e-15 -3.22695e-31 -1.98874e-31 -0.589601 6.59271e-16 -5.05018e-16 0.556261 -3.19224e-16 6.72283e-16)
(1.0313e-14 0 1.77216e-32 -0.589601 1.97215e-31 0 0.556261 1.65323e-46 1.27698e-16)
(2.53387e-15 -4.476e-31 0 -0.696896 1.44266e-15 -2.4394e-16 0.584059 -1.36476e-15 3.17853e-16)
(2.02709e-14 9.23998e-31 -1.33725e-30 -0.696896 1.6259e-15 4.1289e-17 0.584059 -9.29335e-16 -1.77658e-17)
(0 1.25925e-31 1.25925e-31 -0.82429 1.23377e-15 1.30938e-15 0.613636 -8.62275e-16 3.42577e-16)
(-9.94874e-15 -5.23002e-32 0 -0.82429 0 1.21433e-15 0.613636 -5.95503e-16 -1.15386e-16)
(2.43804e-15 2.63169e-31 7.0854e-32 -0.975762 -4.93038e-32 1.46496e-16 0.645192 -6.84972e-16 2.44404e-16)
(9.75214e-15 -4.50804e-31 -7.0854e-32 -0.975762 4.78617e-16 6.99599e-17 0.645192 -2.81647e-16 1.48522e-16)
(-2.38624e-15 4.30812e-32 8.17242e-45 -1.15617 9.08463e-17 -9.20001e-31 0.678958 -4.20021e-16 -2.46519e-32)
(9.54495e-15 -1.09476e-47 0 -1.15617 2.46519e-32 -6.63656e-17 0.678958 -5.88253e-16 -1.36769e-16)
(-2.33158e-15 1.95553e-32 0 -1.37152 1.30115e-15 7.32739e-16 0.715224 -4.10533e-16 2.46746e-16)
(0 0 -8.97281e-32 -1.37152 -6.34863e-16 -4.99572e-16 0.715224 -8.35861e-16 -1.66616e-17)
(2.2738e-15 1.10124e-30 1.00974e-31 -1.62935 -5.91646e-31 2.16394e-16 0.754382 -5.37616e-16 3.78074e-16)
(9.09518e-15 -1.64271e-31 -3.71563e-44 -1.62935 8.80735e-16 -2.09219e-30 0.754382 -6.10327e-16 -2.33537e-47)
(-4.25956e-15 -2.84075e-32 -5.6815e-32 -1.93929 5.5497e-17 -3.62704e-16 0.796972 -5.3684e-16 2.56781e-16)
(0 2.84075e-32 1.1363e-31 -1.93929 5.09192e-16 5.61159e-16 0.796972 -5.52189e-16 -1.53958e-16)
(-2.14755e-15 3.19679e-32 0 -2.31386 6.68717e-16 -1.13183e-15 0.843737 -4.26027e-16 1.33151e-16)
(0 -6.39359e-32 0 -2.31386 -7.16108e-16 -2.28547e-30 0.843737 -5.01936e-16 -4.93038e-32)
(2.59225e-15 2.3847e-31 0 -2.76957 1.28228e-16 -1.34689e-15 0.895697 -3.88987e-16 5.52976e-17)
(-2.59225e-15 -1.79873e-31 0 -2.76957 -6.22398e-16 1.84971e-16 0.895697 -1.09428e-16 -1.86536e-16)
(9.13301e-16 -3.12829e-45 8.6678e-45 -3.32863 3.523e-31 -9.75936e-31 0.954237 -7.63929e-49 2.12959e-48)
(0 -1.0825e-43 1.61934e-31 -3.32863 -6.09375e-30 6.05393e-16 0.954237 4.93038e-32 -1.12615e-16)
(0 -1.63696e-30 9.11152e-32 -4.02139 -4.63658e-30 1.08002e-15 1.02123 -4.93038e-32 -1.12507e-16)
(0 0 0 -4.02139 5.06508e-16 1.22958e-15 1.02123 -4.72575e-16 -6.13824e-17)
(1.8366e-15 0 5.12676e-32 -4.88997 1.44749e-15 7.00659e-16 1.0992 -2.65173e-16 -1.07431e-16)
(-9.19349e-15 5.12676e-32 0 -4.88997 1.56154e-15 4.86942e-16 1.0992 -4.81936e-16 -1.82942e-17)
(1.74109e-15 0 0 -5.99376 7.30231e-16 7.38717e-16 1.19157 -1.55068e-16 -7.88644e-17)
(4.88576e-15 0 0 -5.99376 1.5867e-15 2.99679e-16 1.19157 -2.43228e-16 -6.94719e-17)
(0 -3.24621e-32 -6.49243e-32 -7.41715 4.97933e-16 6.24279e-16 1.30292 -9.57025e-17 -5.08704e-17)
(-2.33914e-15 -1.08303e-32 1.29849e-31 -7.41715 -1.16831e-31 2.59659e-16 1.30292 -7.80404e-17 -3.49663e-17)
(2.63232e-15 -3.65308e-32 -7.30616e-32 -9.27977 9.45943e-17 4.95892e-16 1.43933 -6.02154e-17 -4.4226e-17)
(0 1.82654e-32 7.30616e-32 -9.27977 -2.94662e-16 2.30834e-16 1.43933 -1.05319e-16 -3.73213e-17)
(-2.76271e-15 -3.42114e-48 -4.11094e-32 -11.7451 2.83497e-31 2.18084e-16 1.60842 1.2326e-32 -5.60728e-17)
(5.52542e-15 2.05547e-32 4.11094e-32 -11.7451 5.2058e-16 4.32288e-16 1.60842 -6.1201e-17 -1.60261e-17)
(0 3.46964e-32 -4.81921e-47 -15.0093 6.39534e-16 0 1.81824 -6.80617e-17 0)
(-8.23781e-15 -1.72209e-31 0 -15.0093 1.20178e-31 -1.36803e-16 1.81824 -5.64571e-17 -2.43665e-17)
(-1.04706e-15 0 4.19356e-33 -19.2111 1.0159e-15 1.40696e-16 2.07212 -6.70979e-17 -1.82622e-17)
(0 6.50752e-33 5.20601e-32 -19.2111 1.8858e-16 -2.88442e-16 2.07212 -2.2714e-17 -5.11701e-17)
(8.44766e-16 -1.00693e-32 -4.40215e-33 -24.1657 8.43045e-16 1.42184e-16 2.35319 -3.38111e-17 -1.44911e-17)
(0 -8.20935e-34 0 -24.1657 -4.93038e-32 1.49914e-16 2.35319 -5.91546e-18 -4.62535e-17)
(-6.30613e-16 0 -1.97964e-31 -29.0471 1.70125e-16 3.22258e-16 2.59755 -2.97091e-17 -1.47094e-17)
(2.52245e-15 6.88689e-33 0 -29.0471 -6.92844e-17 2.78011e-16 2.59755 1.17364e-17 -3.92651e-17)
(6.68253e-16 -4.8543e-33 -7.4191e-32 -32.6991 -3.16439e-16 9.41015e-16 2.69982 -2.33808e-17 -5.01998e-17)
(1.04808e-15 7.67993e-33 7.4191e-32 -32.6991 -1.16114e-16 4.32919e-16 2.69982 2.2666e-17 -4.37899e-17)
(2.60301e-16 -1.19277e-30 -1.25235e-31 -34.6468 -3.57662e-31 1.43417e-15 2.61068 0 -4.41455e-17)
(1.0412e-15 2.34815e-32 8.34898e-32 -34.6468 -1.73442e-16 6.84658e-16 2.61068 1.08797e-17 -3.85648e-17)
(-1.23613e-16 0 0 -35.383 3.92401e-16 1.60872e-15 2.39708 -2.11967e-17 -3.69836e-17)
(0 1.46803e-33 2.34885e-32 -35.383 -1.4665e-16 7.46705e-16 2.39708 8.63262e-18 -3.01016e-17)
(8.5914e-18 -2.47804e-33 -5.28649e-32 -35.6019 3.67344e-16 1.55678e-15 2.1506 -1.15918e-17 -3.03498e-17)
(3.43656e-17 8.26014e-34 5.28649e-32 -35.6019 2.0349e-17 6.85747e-16 2.1506 2.91904e-18 -2.43602e-17)
(0 2.32386e-34 -4.25332e-30 -35.6762 1.57404e-16 3.20716e-15 1.25431 -3.73635e-18 -2.47451e-17)
(0 -3.48579e-34 -1.48727e-32 -35.6762 1.38509e-17 1.55918e-15 1.25431 3.18326e-18 -1.97183e-17)
(0 -8.00554e-33 0 -35.7214 7.26465e-17 4.24411e-15 0.401646 -5.53547e-19 -8.00298e-18)
(0 -6.94702e-35 -1.501e-29 -35.7214 -1.16553e-17 1.08123e-15 0.401646 -3.26942e-19 -4.07648e-18)
(6.09855e-15 4.03518e-31 1.37108e-30 -9.44494e-13 1.06662e-16 -2.95265e-15 -2.12452e-12 3.16207e-15 6.10982e-16)
(-6.17079e-15 1.37108e-30 -2.74215e-30 -1.25959e-12 3.78516e-17 -4.88569e-15 -2.39808e-12 5.24551e-15 6.03037e-15)
(4.93692e-16 5.41463e-31 0 -0.0460819 1.87124e-16 3.00981e-15 -0.136963 3.77874e-15 5.39005e-15)
(0 0 0 -0.0460819 5.68489e-16 1.24994e-15 -0.136963 3.37798e-15 -7.72169e-16)
(-2.95263e-15 1.70749e-30 -4.37906e-47 -0.0723771 2.10578e-16 3.05269e-45 -0.225925 3.73721e-16 -1.77494e-29)
(-1.96302e-14 2.65973e-30 0 -0.0723771 7.25083e-16 1.52126e-15 -0.225925 1.28683e-15 -2.20252e-15)
(-7.32463e-15 1.47231e-30 -3.90785e-30 -0.09721 1.92246e-15 -2.36922e-15 -0.284427 4.24878e-15 3.73511e-15)
(0 8.5687e-32 7.8823e-46 -0.09721 1.32133e-15 -8.76715e-32 -0.284427 3.70825e-15 2.49075e-16)
(7.84762e-15 4.24961e-32 0 -0.122632 0 5.28016e-16 -0.326332 2.69787e-15 2.64738e-15)
(-4.9513e-15 0 0 -0.122632 -2.57121e-16 -2.25464e-15 -0.326332 3.12012e-15 3.90221e-15)
(-5.57188e-15 -6.18603e-31 0 -0.150099 -2.23821e-16 0 -0.359168 2.78734e-16 1.89327e-29)
(-1.14674e-14 3.50325e-46 0 -0.150099 2.23386e-44 -1.82491e-15 -0.359168 0 -2.25382e-15)
(-3.13512e-15 0 0 -0.180756 8.36738e-16 -3.85625e-15 -0.386893 1.29708e-15 -1.18875e-15)
(0 0 -1.39227e-30 -0.180756 1.08885e-15 -4.34786e-15 -0.386893 1.50772e-15 -7.37981e-16)
(2.80412e-15 0 -1.75162e-46 -0.215673 2.01683e-16 -1.99783e-46 -0.411768 4.65055e-16 1.36122e-15)
(-1.47446e-14 0 0 -0.215673 2.98688e-16 -1.58871e-15 -0.411768 7.78565e-16 2.00372e-15)
(-1.19958e-15 -1.31797e-31 -8.81573e-31 -0.255971 1.59125e-16 -1.81097e-15 -0.43521 1.09731e-15 2.32422e-15)
(-1.10827e-14 7.42268e-31 0 -0.255971 2.19245e-16 -1.64453e-17 -0.43521 3.0962e-16 1.99196e-15)
(-4.46786e-15 0 0 -0.302902 6.25254e-16 -1.09549e-15 -0.45817 1.649e-15 1.67074e-15)
(-1.09428e-14 0 0 -0.302902 1.34731e-15 9.64964e-17 -0.45817 1.0745e-15 1.83007e-15)
(2.88424e-15 2.09326e-31 -1.11641e-30 -0.357902 9.95985e-16 -1.54823e-17 -0.481319 1.36917e-15 8.89586e-16)
(0 2.64241e-31 1.4013e-44 -0.357902 -4.43734e-31 0 -0.481319 6.23369e-16 2.58181e-29)
(8.15045e-15 0 2.99528e-44 -0.422647 5.53069e-45 1.49352e-59 -0.505151 1.15808e-15 5.4037e-29)
(-2.12858e-14 2.35562e-31 1.25633e-30 -0.422647 -2.04468e-15 -3.40565e-15 -0.505151 2.02955e-15 -4.29404e-17)
(2.62049e-15 0 0 -0.499105 -9.42331e-16 -3.03093e-15 -0.530035 1.64007e-15 -2.88971e-16)
(1.0482e-14 -2.62743e-45 0 -0.499105 -2.20535e-44 6.34775e-16 -0.530035 -2.36658e-30 -1.05898e-16)
(2.57825e-15 0 -3.2687e-31 -0.589601 -3.05627e-16 3.33645e-16 -0.556261 1.62921e-15 -1.61554e-16)
(0 5.53619e-31 3.97748e-31 -0.589601 5.94897e-16 1.64965e-16 -0.556261 1.71681e-15 -1.27698e-16)
(2.53387e-15 -1.48413e-31 2.3209e-45 -0.696896 3.72373e-16 9.33452e-61 -0.584059 2.95337e-16 4.14152e-30)
(0 2.238e-31 0 -0.696896 5.4865e-16 -1.5916e-15 -0.584059 5.30568e-16 5.70789e-17)
(-2.26847e-15 1.25925e-31 -1.25925e-31 -0.82429 4.9398e-16 -1.52043e-15 -0.613636 8.62275e-16 -3.42577e-16)
(-9.94874e-15 1.25925e-31 0 -0.82429 1.12674e-16 -6.2691e-16 -0.613636 5.95503e-16 1.15386e-16)
(2.43804e-15 -8.84252e-32 0 -0.975762 2.71452e-17 -1.50297e-15 -0.645192 4.78009e-17 -2.44404e-16)
(0 -6.41852e-32 7.39503e-31 -0.975762 -3.52038e-16 -1.89794e-18 -0.645192 1.19612e-16 -6.44865e-19)
(2.38624e-15 -6.43938e-32 -7.97345e-32 -1.15617 3.95252e-16 3.75572e-17 -0.678958 2.66447e-16 1.03583e-16)
(0 0 7.97345e-32 -1.15617 -2.96407e-16 -4.01547e-16 -0.678958 2.3175e-16 1.36769e-16)
(2.33158e-15 0 8.97281e-32 -1.37152 -6.1872e-16 1.01434e-15 -0.715224 5.51444e-16 -2.46746e-16)
(9.3263e-15 -3.50325e-46 -8.97281e-32 -1.37152 -1.5507e-44 5.08029e-16 -0.715224 -4.27313e-31 1.66616e-17)
(0 0 0 -1.62935 0 -1.79366e-45 -0.754382 -3.43596e-30 -2.62208e-30)
(0 0 0 -1.62935 3.24078e-16 -6.408e-16 -0.754382 5.0368e-16 1.21249e-16)
(2.21258e-15 -2.1759e-32 0 -1.93929 5.01831e-16 -7.93983e-16 -0.796972 3.8005e-16 -2.56781e-16)
(-8.85034e-15 -2.22595e-32 0 -1.93929 2.19416e-16 -1.22308e-15 -0.796972 4.64864e-17 1.53958e-16)
(-2.14755e-15 5.02586e-32 -1.27872e-31 -2.31386 9.35077e-17 7.59776e-17 -0.843737 6.38756e-17 -1.33151e-16)
(-1.08937e-14 9.17347e-32 1.27872e-31 -2.31386 1.09963e-15 -3.68939e-16 -0.843737 3.36682e-16 2.57321e-16)
(2.07819e-15 -2.23829e-30 2.18953e-46 -2.76957 5.81899e-17 -2.46519e-32 -0.895697 9.73513e-18 1.25108e-30)
(0 0 -7.19493e-32 -2.76957 1.49111e-15 6.8109e-16 -0.895697 4.78408e-16 1.86536e-16)
(-2.91715e-15 -1.01209e-31 -3.23869e-31 -3.32863 1.9161e-15 -1.09753e-15 -0.954237 -3.96654e-17 1.10574e-16)
(-8.01539e-15 1.61934e-31 2.42901e-31 -3.32863 -5.53627e-16 2.27452e-16 -0.954237 3.62075e-16 1.12615e-16)
(-1.35908e-15 -1.8223e-31 -1.36673e-31 -4.02139 -3.76368e-16 -1.05309e-15 -1.02123 4.33215e-16 1.12507e-16)
(-4.41198e-15 5.60519e-45 1.36673e-31 -4.02139 -1.97215e-31 -5.19255e-16 -1.02123 1.19315e-29 6.13824e-17)
(3.67319e-15 0 0 -4.88997 8.92741e-16 -4.02286e-16 -1.0992 2.65173e-16 1.07431e-16)
(-7.34638e-15 -3.07894e-30 0 -4.88997 1.46967e-16 -6.03204e-16 -1.0992 1.72531e-17 1.82942e-17)
(0 -1.44233e-31 -1.7308e-31 -5.99376 8.17495e-16 -1.96859e-16 -1.19157 1.55068e-16 7.88644e-17)
(-2.07862e-15 2.01926e-31 1.15387e-31 -5.99376 2.07487e-15 -4.1106e-16 -1.19157 2.43228e-16 6.94719e-17)
(1.63523e-15 -1.62311e-32 0 -7.41715 5.16122e-16 -2.64202e-16 -1.30292 1.00443e-16 5.08704e-17)
(-6.54093e-15 3.24621e-32 0 -7.41715 1.60843e-15 6.3713e-17 -1.30292 7.80404e-17 3.49663e-17)
(0 3.34263e-32 0 -9.27977 -3.9443e-31 -5.72284e-16 -1.43933 6.02154e-17 4.4226e-17)
(-8.69804e-15 9.1327e-33 0 -9.27977 5.50194e-16 1.60204e-17 -1.43933 1.05319e-16 3.73213e-17)
(0 1.5416e-32 8.22188e-32 -11.7451 -1.88167e-16 -5.829e-16 -1.60842 7.6506e-17 5.60728e-17)
(0 -2.56934e-32 -4.11094e-32 -11.7451 1.15195e-16 -2.79188e-16 -1.60842 6.1201e-17 1.60261e-17)
(-1.22607e-15 0 0 -15.0093 -4.99776e-16 1.02333e-16 -1.81824 6.91134e-17 7.07633e-17)
(0 1.4013e-45 -2.31309e-32 -15.0093 9.08596e-44 -4.20209e-16 -1.81824 5.31249e-30 2.43665e-17)
(1.04706e-15 0 6.32913e-31 -19.2111 -3.73269e-16 0 -2.07212 6.70979e-17 4.848e-17)
(-6.0639e-15 1.39399e-30 0 -19.2111 5.24023e-16 -5.78417e-17 -2.07212 2.2714e-17 5.11701e-17)
(8.44766e-16 -1.03152e-33 3.2364e-31 -24.1657 -1.48658e-16 -1.05502e-16 -2.35319 2.63782e-17 4.6212e-17)