/*--------------------------------*- C++ -*----------------------------------*\
| =========                 |                                                 |
| \\      /  F ield         | OpenFOAM: The Open Source CFD Toolbox           |
|  \\    /   O peration     | Version:  2012                                  |
|   \\  /    A nd           | Website:  www.openfoam.com                      |
|    \\/     M anipulation  |                                                 |
\*---------------------------------------------------------------------------*/
FoamFile
{
    version     2.0;
    format      ascii;
    class       volScalarField;
    location    "2000";
    object      p;
}
// * * * * * * * * * * * * * * * * * * * * * * * * * * * * * * * * * * * * * //

dimensions      [0 2 -2 0 0 0 0];


internalField   nonuniform List<scalar> 
320
(
5.20109e-16
5.60518e-15
1.17064e-15
5.60635e-15
1.33079e-15
5.60411e-15
1.37534e-15
5.60141e-15
1.46098e-15
5.59567e-15
1.5671e-15
5.5826e-15
1.68021e-15
5.55914e-15
1.80361e-15
5.52447e-15
1.9417e-15
5.47911e-15
2.09465e-15
5.42352e-15
2.26346e-15
5.35891e-15
2.44737e-15
5.28654e-15
2.64285e-15
5.20796e-15
2.8515e-15
5.12505e-15
3.06254e-15
5.04071e-15
3.27511e-15
4.96199e-15
3.49157e-15
4.88937e-15
3.71148e-15
4.82973e-15
3.9205e-15
4.78866e-15
4.12371e-15
4.78357e-15
4.31851e-15
4.80535e-15
4.50746e-15
4.86136e-15
4.72778e-15
4.93803e-15
4.92136e-15
5.0474e-15
5.15889e-15
5.19844e-15
5.38812e-15
5.40315e-15
5.59606e-15
5.62938e-15
5.83769e-15
5.85287e-15
6.09591e-15
6.11199e-15
6.37374e-15
6.36921e-15
6.65178e-15
6.66866e-15
7.03399e-15
6.99616e-15
7.43609e-15
7.34055e-15
7.78261e-15
7.76282e-15
8.36157e-15
8.29783e-15
8.79824e-15
8.75487e-15
9.15907e-15
9.15087e-15
9.29758e-15
9.51334e-15
9.08289e-15
9.22095e-15
8.69039e-15
8.48429e-15
4.13273e-15
4.66014e-15
4.13375e-15
4.66058e-15
4.13536e-15
4.66151e-15
4.13826e-15
4.66323e-15
4.14274e-15
4.66597e-15
4.14898e-15
4.67014e-15
4.15794e-15
4.67603e-15
4.17027e-15
4.6847e-15
4.18712e-15
4.69677e-15
4.21204e-15
4.71337e-15
4.24499e-15
4.73728e-15
4.28548e-15
4.76773e-15
4.33656e-15
4.80545e-15
4.39952e-15
4.85267e-15
4.47419e-15
4.91112e-15
4.55842e-15
4.98039e-15
4.66256e-15
5.05548e-15
4.7783e-15
5.13015e-15
4.90751e-15
5.21283e-15
5.04499e-15
5.31498e-15
5.18406e-15
5.41863e-15
5.32792e-15
5.52191e-15
5.48319e-15
5.63248e-15
5.63326e-15
5.74625e-15
5.80091e-15
5.84237e-15
5.94716e-15
5.96674e-15
6.10689e-15
6.11845e-15
6.25147e-15
6.26019e-15
6.45152e-15
6.466e-15
6.66174e-15
6.65723e-15
6.88652e-15
6.90533e-15
7.14486e-15
7.11849e-15
7.43276e-15
7.41521e-15
7.94385e-15
7.94425e-15
8.38292e-15
8.25867e-15
8.73666e-15
8.72429e-15
9.27597e-15
9.35066e-15
9.30363e-15
9.50097e-15
9.12842e-15
9.3109e-15
8.78879e-15
8.62039e-15
8.60977e-15
8.70464e-15
8.7391e-15
8.9456e-15
8.70305e-15
8.86714e-15
8.53282e-15
8.54196e-15
8.79623e-15
8.79881e-15
8.9962e-15
9.04823e-15
9.041e-15
9.14931e-15
8.99201e-15
9.1824e-15
9.08171e-15
9.09813e-15
9.12754e-15
9.15124e-15
9.16046e-15
9.1608e-15
9.17428e-15
9.20871e-15
9.19554e-15
9.19453e-15
9.21145e-15
9.21649e-15
9.22127e-15
9.23884e-15
9.25221e-15
9.26241e-15
9.24936e-15
9.25754e-15
9.25865e-15
9.25492e-15
9.26802e-15
9.26392e-15
9.26723e-15
9.27208e-15
9.27568e-15
9.28013e-15
9.27399e-15
9.28323e-15
9.27154e-15
9.28651e-15
9.2681e-15
9.29034e-15
9.27706e-15
9.29487e-15
9.2782e-15
9.2966e-15
9.2786e-15
9.29454e-15
9.27974e-15
9.29303e-15
9.28046e-15
9.29188e-15
9.28088e-15
9.29197e-15
9.2811e-15
9.29215e-15
9.28117e-15
9.29201e-15
9.28113e-15
9.29162e-15
9.28103e-15
9.29147e-15
9.28088e-15
9.29149e-15
9.28101e-15
9.29155e-15
9.28111e-15
9.29156e-15
9.28115e-15
9.2916e-15
9.28112e-15
9.29161e-15
9.28112e-15
9.29161e-15
8.74963e-15
8.76385e-15
8.65102e-15
8.7249e-15
8.74745e-15
8.95373e-15
8.70988e-15
8.6994e-15
8.7046e-15
8.7929e-15
8.98289e-15
8.99769e-15
9.16722e-15
9.14886e-15
9.21157e-15
9.23994e-15
9.26326e-15
9.28878e-15
9.28242e-15
9.26471e-15
9.30048e-15
9.18035e-15
9.20062e-15
9.19723e-15
9.20879e-15
9.20582e-15
9.22152e-15
9.21504e-15
9.23812e-15
9.25473e-15
9.25023e-15
9.26798e-15
9.24182e-15
9.25742e-15
9.2556e-15
9.25126e-15
9.25694e-15
9.25628e-15
9.26817e-15
9.27091e-15
9.27817e-15
9.28451e-15
9.28243e-15
9.28877e-15
9.28617e-15
9.28512e-15
9.29376e-15
9.28543e-15
9.29139e-15
9.28864e-15
9.28957e-15
9.29136e-15
9.29221e-15
9.2938e-15
9.29093e-15
9.29477e-15
9.28982e-15
9.29571e-15
9.28883e-15
9.29467e-15
9.28923e-15
9.29426e-15
9.2892e-15
9.29507e-15
9.28916e-15
9.29485e-15
9.28911e-15
9.2944e-15
9.2892e-15
9.29428e-15
9.28929e-15
9.29425e-15
9.28924e-15
9.29417e-15
9.28921e-15
9.29413e-15
9.28927e-15
9.29409e-15
9.28926e-15
9.29408e-15
)
;

boundaryField
{
    walls
    {
        type            zeroGradient;
    }
    inlet
    {
        type            cyclic;
    }
    outlet
    {
        type            cyclic;
    }
    sides
    {
        type            empty;
    }
}


// ************************************************************************* //
