/*--------------------------------*- C++ -*----------------------------------*\
| =========                 |                                                 |
| \\      /  F ield         | OpenFOAM: The Open Source CFD Toolbox           |
|  \\    /   O peration     | Version:  2012                                  |
|   \\  /    A nd           | Website:  www.openfoam.com                      |
|    \\/     M anipulation  |                                                 |
\*---------------------------------------------------------------------------*/
FoamFile
{
    version     2.0;
    format      ascii;
    class       surfaceScalarField;
    location    "2000";
    object      phi;
}
// * * * * * * * * * * * * * * * * * * * * * * * * * * * * * * * * * * * * * //

dimensions      [0 3 -1 0 0 0 0];
oriented        oriented;


internalField   nonuniform List<scalar> 
636
(
1.12837e-06
-1.23254e-17
-1.47996e-20
-4.12848e-20
2.69638e-21
3.96548e-06
-1.21723e-17
-5.00158e-20
-1.38983e-19
-4.20584e-21
7.8715e-06
-1.19774e-17
-6.41213e-20
-2.63224e-19
-5.73014e-21
1.31632e-05
-1.17273e-17
-8.20468e-20
-4.22108e-19
-7.51149e-21
2.0213e-05
-1.14173e-17
-1.0201e-19
-6.23863e-19
-9.35566e-21
2.93646e-05
-1.10395e-17
-1.21144e-19
-8.68486e-19
-1.08756e-20
4.07471e-05
-1.06185e-17
-1.34982e-19
-1.1449e-18
-1.15747e-20
5.41932e-05
-1.01797e-17
-1.41015e-19
-1.43178e-18
-1.12521e-20
6.94869e-05
-9.70874e-18
-1.40979e-19
-1.72497e-18
-1.00822e-20
8.66204e-05
-9.26282e-18
-1.38041e-19
-2.02426e-18
-8.37814e-21
0.000105796
-8.83904e-18
-1.33818e-19
-2.31174e-18
-6.34899e-21
0.000127337
-8.39915e-18
-1.28779e-19
-2.59213e-18
-4.11939e-21
0.000151636
-8.01766e-18
-1.23116e-19
-2.89616e-18
-2.13856e-21
0.000179136
-7.56246e-18
-1.16396e-19
-3.14959e-18
-9.99268e-22
0.000210331
-7.15286e-18
-1.09325e-19
-3.47114e-18
-1.83874e-21
0.000245769
-6.79807e-18
-1.01984e-19
-3.72975e-18
-4.12832e-21
0.000286061
-6.50402e-18
-9.52123e-20
-4.01713e-18
-9.65905e-21
0.000331892
-6.19203e-18
-8.89135e-20
-4.20311e-18
-1.76688e-20
0.00038403
-5.90644e-18
-8.60845e-20
-4.43263e-18
-3.33416e-20
0.000443335
-5.6339e-18
-8.86745e-20
-4.53318e-18
-5.3733e-20
0.000510776
-5.35466e-18
-9.71454e-20
-4.67646e-18
-7.86647e-20
0.000587444
-5.22379e-18
-1.12337e-19
-4.64394e-18
-1.02152e-19
0.000674569
-4.91641e-18
-1.24573e-19
-4.59762e-18
-1.25419e-19
0.000773534
-4.77215e-18
-1.45199e-19
-4.54245e-18
-1.55493e-19
0.000885904
-4.46704e-18
-1.64263e-19
-4.45467e-18
-1.66232e-19
0.00101344
-4.10402e-18
-1.81006e-19
-4.14779e-18
-1.67145e-19
0.00115814
-3.9475e-18
-2.12032e-19
-3.82699e-18
-1.76629e-19
0.00132224
-3.70789e-18
-1.98073e-19
-3.66076e-18
-1.95438e-19
0.00150827
-3.39958e-18
-1.97182e-19
-3.46073e-18
-2.36156e-19
0.0017191
-3.18472e-18
-2.23307e-19
-3.29812e-18
-2.20569e-19
0.00195792
-3.29657e-18
-2.37984e-19
-3.13251e-18
-2.52861e-19
0.00222835
-2.94277e-18
-7.16784e-20
-2.72658e-18
-1.75478e-19
0.00253439
-2.6783e-18
6.78888e-20
-2.86385e-18
-1.73095e-19
0.00288051
-2.79935e-18
-1.74418e-19
-2.70213e-18
-2.68863e-19
0.00327166
-2.46427e-18
1.40018e-20
-2.42789e-18
-6.36799e-20
0.00371317
-1.8588e-18
3.00268e-19
-1.97237e-18
1.08226e-19
0.00421073
-1.66578e-18
-4.43549e-20
-1.78239e-18
-3.50363e-19
0.00477003
-1.10318e-18
-1.07027e-20
-1.03163e-18
3.52644e-21
0.00539609
-9.66026e-19
-1.51391e-19
-7.40992e-19
-3.39156e-19
0.00609165
7.40053e-22
-1.18088e-18
-4.68184e-19
-1.39093e-18
1.12837e-06
-1.07318e-20
-1.37127e-21
3.96548e-06
-5.05606e-20
-1.64442e-20
7.8715e-06
-1.02416e-19
-3.42613e-20
1.31632e-05
-1.65986e-19
-6.27384e-20
2.0213e-05
-2.41231e-19
-1.01157e-19
2.93646e-05
-3.31189e-19
-1.37082e-19
4.07471e-05
-4.26359e-19
-1.84922e-19
5.41932e-05
-5.24698e-19
-2.36981e-19
6.94869e-05
-6.26553e-19
-3.04467e-19
8.66204e-05
-6.98311e-19
-3.76211e-19
0.000105796
-7.67368e-19
-4.33739e-19
0.000127337
-8.28003e-19
-5.08839e-19
0.000151636
-8.88495e-19
-5.89256e-19
0.000179136
-9.27796e-19
-6.51007e-19
0.000210331
-9.66215e-19
-7.09745e-19
0.000245769
-1.04659e-18
-7.60004e-19
0.000286061
-1.09805e-18
-7.49891e-19
0.000331892
-1.13689e-18
-8.34928e-19
0.00038403
-1.17877e-18
-8.92109e-19
0.000443335
-1.22546e-18
-9.20093e-19
0.000510776
-1.26665e-18
-1.01247e-18
0.000587444
-1.32152e-18
-1.02569e-18
0.000674569
-1.40458e-18
-1.21974e-18
0.000773534
-1.59433e-18
-1.33916e-18
0.000885904
-1.63497e-18
-1.58206e-18
0.00101344
-1.78283e-18
-1.75919e-18
0.00115814
-1.89174e-18
-1.89997e-18
0.00132224
-2.10216e-18
-2.1656e-18
0.00150827
-2.26884e-18
-2.23283e-18
0.0017191
-2.36059e-18
-2.51233e-18
0.00195792
-2.52286e-18
-2.49062e-18
0.00222835
-2.58936e-18
-2.51967e-18
0.00253439
-2.75906e-18
-2.76543e-18
0.00288051
-2.47138e-18
-2.34966e-18
0.00327166
-2.29183e-18
-2.33192e-18
0.00371317
-2.04844e-18
-2.21039e-18
0.00421073
-1.65504e-18
-1.65719e-18
0.00477003
-1.21565e-18
-1.19357e-18
0.00539609
-9.71505e-19
-8.06006e-19
0.00609165
-1.10023e-18
-1.22693e-18
0.00609165
-1.29436e-18
1.08915e-19
-1.31506e-18
5.8387e-20
0.00539609
-8.19432e-19
7.95913e-19
-8.28283e-19
5.54954e-19
0.00477003
-2.69984e-19
7.01034e-20
-2.5222e-19
-1.99976e-19
0.00421073
-7.20685e-19
-2.40225e-19
-6.80351e-19
-2.24667e-19
0.00371317
-4.64552e-19
1.08735e-19
-6.05817e-19
-2.47321e-20
0.00327166
-2.55783e-19
7.69909e-20
-1.10329e-19
3.08882e-19
0.00288051
1.37809e-19
4.49666e-20
-9.45336e-20
2.47073e-20
0.00253439
-2.29465e-19
-2.45968e-19
-7.6941e-20
-1.21953e-19
0.00222835
-2.53849e-19
-1.65228e-19
-1.76339e-19
-1.83683e-19
0.00195792
-2.87845e-19
-1.25802e-19
-1.77059e-19
-1.48106e-19
0.0017191
-2.45818e-19
-6.80369e-20
-4.49529e-19
-7.24239e-20
0.00150827
-2.8019e-19
-1.60707e-20
-2.97136e-19
2.49213e-20
0.00132224
-2.77619e-19
1.19955e-20
-3.11058e-19
-2.76159e-21
0.00115814
-1.93815e-19
6.81051e-21
-1.88284e-19
-1.44877e-20
0.00101344
-1.81753e-19
1.40091e-20
-9.91504e-20
-1.92354e-20
0.000885904
-5.35389e-20
1.97715e-20
-6.34423e-20
-4.71881e-21
0.000773534
-6.42792e-20
1.15205e-20
-3.25667e-20
-1.68293e-21
0.000674569
-1.29472e-19
7.13551e-21
-7.71914e-20
-2.40145e-21
0.000587444
-6.83262e-20
1.46352e-20
-7.19643e-20
1.10949e-21
0.000510776
-5.1069e-20
9.75485e-21
-5.01616e-20
5.59899e-23
0.000443335
1.00837e-20
5.92607e-21
-1.32701e-20
-1.5725e-21
0.00038403
9.53808e-21
2.1259e-21
-5.15815e-20
-2.7074e-21
0.000331892
1.2703e-20
-1.17685e-22
-6.64478e-20
4.48229e-22
0.000286061
-9.99743e-20
-2.05483e-21
-4.99915e-20
2.25997e-21
0.000245769
-4.72149e-20
-7.76946e-22
-6.07807e-20
1.99181e-21
0.000210331
-3.05514e-20
-4.55892e-22
-6.82303e-21
1.66171e-21
0.000179136
-3.47827e-20
-7.81661e-22
4.22957e-21
7.68326e-22
0.000151636
-1.27695e-20
-7.38992e-22
-6.80329e-22
2.49746e-22
0.000127337
-2.56934e-20
-8.5892e-22
-7.75368e-21
3.7707e-23
0.000105796
-1.79717e-20
-8.43583e-22
-2.14194e-21
3.78324e-23
8.66204e-05
-1.74996e-20
-8.07639e-22
-1.06174e-21
-1.57393e-23
6.94869e-05
-6.67736e-21
-7.32922e-22
1.88783e-21
-1.06938e-22
5.41932e-05
-2.36894e-21
-6.67264e-22
2.28775e-21
-1.16792e-22
4.07471e-05
-1.48448e-21
-5.9152e-22
1.37552e-21
-9.18841e-23
2.93646e-05
-5.57738e-21
-4.92004e-22
9.83015e-22
-6.98083e-23
2.0213e-05
-3.68689e-21
-3.73215e-22
7.23562e-22
-4.98151e-23
1.31632e-05
-2.03874e-21
-2.7197e-22
-5.77306e-22
-3.30678e-23
7.8715e-06
-5.35715e-22
-1.94953e-22
2.4392e-22
-2.19566e-23
3.96548e-06
-2.23802e-22
-1.39545e-22
2.8416e-23
-1.5032e-23
1.12837e-06
-3.38373e-23
-8.60019e-24
0.00609165
-1.0282e-18
-1.0675e-18
0.00539609
-1.04568e-18
-1.03312e-18
0.00477003
-3.69705e-19
-2.60778e-19
0.00421073
-4.11138e-19
-4.88882e-19
0.00371317
-4.34156e-19
-3.9539e-19
0.00327166
-3.25317e-19
-3.65668e-19
0.00288051
-2.22434e-19
-2.62679e-19
0.00253439
-2.11356e-19
-1.3357e-19
0.00222835
-1.88979e-19
-1.5914e-19
0.00195792
-1.58145e-19
-8.71725e-20
0.0017191
-3.42683e-20
-1.0911e-19
0.00150827
-5.48698e-20
-2.23985e-19
0.00132224
-1.71357e-19
-2.31656e-19
0.00115814
-1.09837e-19
-1.77396e-19
0.00101344
-1.65653e-19
-8.61643e-20
0.000885904
-1.32642e-19
-9.38666e-20
0.000773534
-1.5094e-19
-1.11493e-19
0.000674569
-8.91496e-20
-1.26391e-19
0.000587444
-1.54727e-19
-1.29117e-19
0.000510776
-1.37053e-19
-1.21028e-19
0.000443335
-1.15078e-19
-1.25434e-19
0.00038403
-1.06913e-19
-3.9877e-20
0.000331892
-1.08881e-19
-3.76558e-20
0.000286061
-5.30938e-20
-7.7797e-20
0.000245769
-1.25046e-20
-8.31397e-20
0.000210331
-3.15648e-20
-6.85597e-20
0.000179136
-2.50307e-21
-3.74867e-20
0.000151636
2.46421e-21
-1.91297e-20
0.000127337
2.29733e-21
-6.41815e-21
0.000105796
2.8423e-21
-1.35939e-20
8.66204e-05
-8.38868e-22
-2.16178e-20
6.94869e-05
-3.21682e-21
-4.96542e-21
5.41932e-05
-5.96013e-21
2.68926e-21
4.07471e-05
-6.16539e-21
2.6653e-21
2.93646e-05
-2.66604e-21
2.47125e-21
2.0213e-05
-2.41421e-21
2.79646e-21
1.31632e-05
-1.81896e-21
1.10393e-21
7.8715e-06
-1.76669e-21
9.75769e-22
3.96548e-06
1.35284e-23
1.36587e-22
1.12837e-06
)
;

boundaryField
{
    walls
    {
        type            calculated;
        value           uniform 0;
    }
    inlet
    {
        type            cyclic;
        value           nonuniform List<scalar> 
160
(
-1.12837e-06
-3.96548e-06
-7.8715e-06
-1.31632e-05
-2.0213e-05
-2.93646e-05
-4.07471e-05
-5.41932e-05
-6.94869e-05
-8.66204e-05
-0.000105796
-0.000127337
-0.000151636
-0.000179136
-0.000210331
-0.000245769
-0.000286061
-0.000331892
-0.00038403
-0.000443335
-0.000510776
-0.000587444
-0.000674569
-0.000773534
-0.000885904
-0.00101344
-0.00115814
-0.00132224
-0.00150827
-0.0017191
-0.00195792
-0.00222835
-0.00253439
-0.00288051
-0.00327166
-0.00371317
-0.00421073
-0.00477003
-0.00539609
-0.00609165
-1.12837e-06
-3.96548e-06
-7.8715e-06
-1.31632e-05
-2.0213e-05
-2.93646e-05
-4.07471e-05
-5.41932e-05
-6.94869e-05
-8.66204e-05
-0.000105796
-0.000127337
-0.000151636
-0.000179136
-0.000210331
-0.000245769
-0.000286061
-0.000331892
-0.00038403
-0.000443335
-0.000510776
-0.000587444
-0.000674569
-0.000773534
-0.000885904
-0.00101344
-0.00115814
-0.00132224
-0.00150827
-0.0017191
-0.00195792
-0.00222835
-0.00253439
-0.00288051
-0.00327166
-0.00371317
-0.00421073
-0.00477003
-0.00539609
-0.00609165
-0.00609165
-0.00539609
-0.00477003
-0.00421073
-0.00371317
-0.00327166
-0.00288051
-0.00253439
-0.00222835
-0.00195792
-0.0017191
-0.00150827
-0.00132224
-0.00115814
-0.00101344
-0.000885904
-0.000773534
-0.000674569
-0.000587444
-0.000510776
-0.000443335
-0.00038403
-0.000331892
-0.000286061
-0.000245769
-0.000210331
-0.000179136
-0.000151636
-0.000127337
-0.000105796
-8.66204e-05
-6.94869e-05
-5.41932e-05
-4.07471e-05
-2.93646e-05
-2.0213e-05
-1.31632e-05
-7.8715e-06
-3.96548e-06
-1.12837e-06
-0.00609165
-0.00539609
-0.00477003
-0.00421073
-0.00371317
-0.00327166
-0.00288051
-0.00253439
-0.00222835
-0.00195792
-0.0017191
-0.00150827
-0.00132224
-0.00115814
-0.00101344
-0.000885904
-0.000773534
-0.000674569
-0.000587444
-0.000510776
-0.000443335
-0.00038403
-0.000331892
-0.000286061
-0.000245769
-0.000210331
-0.000179136
-0.000151636
-0.000127337
-0.000105796
-8.66204e-05
-6.94869e-05
-5.41932e-05
-4.07471e-05
-2.93646e-05
-2.0213e-05
-1.31632e-05
-7.8715e-06
-3.96548e-06
-1.12837e-06
)
;
    }
    outlet
    {
        type            cyclic;
        value           nonuniform List<scalar> 
160
(
1.12837e-06
3.96548e-06
7.8715e-06
1.31632e-05
2.0213e-05
2.93646e-05
4.07471e-05
5.41932e-05
6.94869e-05
8.66204e-05
0.000105796
0.000127337
0.000151636
0.000179136
0.000210331
0.000245769
0.000286061
0.000331892
0.00038403
0.000443335
0.000510776
0.000587444
0.000674569
0.000773534
0.000885904
0.00101344
0.00115814
0.00132224
0.00150827
0.0017191
0.00195792
0.00222835
0.00253439
0.00288051
0.00327166
0.00371317
0.00421073
0.00477003
0.00539609
0.00609165
1.12837e-06
3.96548e-06
7.8715e-06
1.31632e-05
2.0213e-05
2.93646e-05
4.07471e-05
5.41932e-05
6.94869e-05
8.66204e-05
0.000105796
0.000127337
0.000151636
0.000179136
0.000210331
0.000245769
0.000286061
0.000331892
0.00038403
0.000443335
0.000510776
0.000587444
0.000674569
0.000773534
0.000885904
0.00101344
0.00115814
0.00132224
0.00150827
0.0017191
0.00195792
0.00222835
0.00253439
0.00288051
0.00327166
0.00371317
0.00421073
0.00477003
0.00539609
0.00609165
0.00609165
0.00539609
0.00477003
0.00421073
0.00371317
0.00327166
0.00288051
0.00253439
0.00222835
0.00195792
0.0017191
0.00150827
0.00132224
0.00115814
0.00101344
0.000885904
0.000773534
0.000674569
0.000587444
0.000510776
0.000443335
0.00038403
0.000331892
0.000286061
0.000245769
0.000210331
0.000179136
0.000151636
0.000127337
0.000105796
8.66204e-05
6.94869e-05
5.41932e-05
4.07471e-05
2.93646e-05
2.0213e-05
1.31632e-05
7.8715e-06
3.96548e-06
1.12837e-06
0.00609165
0.00539609
0.00477003
0.00421073
0.00371317
0.00327166
0.00288051
0.00253439
0.00222835
0.00195792
0.0017191
0.00150827
0.00132224
0.00115814
0.00101344
0.000885904
0.000773534
0.000674569
0.000587444
0.000510776
0.000443335
0.00038403
0.000331892
0.000286061
0.000245769
0.000210331
0.000179136
0.000151636
0.000127337
0.000105796
8.66204e-05
6.94869e-05
5.41932e-05
4.07471e-05
2.93646e-05
2.0213e-05
1.31632e-05
7.8715e-06
3.96548e-06
1.12837e-06
)
;
    }
    sides
    {
        type            empty;
        value           nonuniform List<scalar> 0();
    }
}


// ************************************************************************* //
