/*--------------------------------*- C++ -*----------------------------------*\
| =========                 |                                                 |
| \\      /  F ield         | OpenFOAM: The Open Source CFD Toolbox           |
|  \\    /   O peration     | Version:  2012                                  |
|   \\  /    A nd           | Website:  www.openfoam.com                      |
|    \\/     M anipulation  |                                                 |
\*---------------------------------------------------------------------------*/
FoamFile
{
    version     2.0;
    format      ascii;
    class       volScalarField;
    location    "11000";
    object      p;
}
// * * * * * * * * * * * * * * * * * * * * * * * * * * * * * * * * * * * * * //

dimensions      [0 2 -2 0 0 0 0];


internalField   nonuniform List<scalar> 
160
(
-3.14154e-17
6.99295e-16
-1.88673e-17
6.8876e-16
-5.59683e-17
6.57267e-16
-1.00538e-16
6.0405e-16
-1.1688e-16
5.24902e-16
-1.26528e-16
4.16651e-16
-1.41396e-16
2.81717e-16
-1.7841e-16
1.26892e-16
-2.20433e-16
-3.93712e-17
-2.9321e-16
-2.05563e-16
-3.99986e-16
-3.80586e-16
-5.56054e-16
-5.38779e-16
-7.573e-16
-7.4336e-16
-1.01978e-15
-1.01374e-15
-1.43132e-15
-1.387e-15
-2.15257e-15
-1.93471e-15
-3.24981e-15
-3.27073e-15
-4.54525e-15
-4.43073e-15
-8.16524e-15
-8.1696e-15
-1.12166e-14
-1.0991e-14
1.16136e-16
2.04831e-16
1.17582e-16
2.06657e-16
1.18021e-16
2.07822e-16
1.17981e-16
2.08283e-16
1.17276e-16
2.06317e-16
1.14322e-16
1.98535e-16
1.03123e-16
1.79555e-16
8.63485e-17
1.42651e-16
2.8211e-17
9.51096e-17
-4.51078e-17
5.60547e-18
-1.52105e-16
-1.42531e-16
-3.23798e-16
-3.28695e-16
-5.66344e-16
-5.67491e-16
-8.58603e-16
-8.69228e-16
-1.33265e-15
-1.27737e-15
-2.2026e-15
-2.01119e-15
-3.09842e-15
-3.14638e-15
-4.54078e-15
-4.5357e-15
-8.46726e-15
-8.13311e-15
-1.10333e-14
-1.10414e-14
-1.55113e-14
-1.56593e-14
-1.5255e-14
-1.53031e-14
-1.50702e-14
-1.51145e-14
-1.43896e-14
-1.43965e-14
-1.39372e-14
-1.39316e-14
-1.37287e-14
-1.37217e-14
-1.36241e-14
-1.36e-14
-1.36016e-14
-1.3594e-14
-1.35665e-14
-1.35632e-14
-1.35449e-14
-1.35384e-14
-1.35317e-14
-1.35169e-14
-1.35255e-14
-1.3515e-14
-1.35222e-14
-1.35189e-14
-1.35251e-14
-1.35164e-14
-1.35257e-14
-1.35159e-14
-1.35236e-14
-1.35159e-14
-1.35243e-14
-1.35156e-14
-1.35245e-14
-1.35154e-14
-1.35245e-14
-1.35155e-14
-1.35244e-14
-1.35155e-14
-1.56045e-14
-1.54932e-14
-1.51572e-14
-1.53901e-14
-1.49482e-14
-1.50543e-14
-1.42161e-14
-1.42464e-14
-1.38953e-14
-1.38638e-14
-1.37086e-14
-1.3685e-14
-1.36101e-14
-1.3582e-14
-1.35744e-14
-1.35508e-14
-1.35586e-14
-1.35608e-14
-1.35426e-14
-1.35374e-14
-1.3532e-14
-1.35171e-14
-1.35278e-14
-1.35162e-14
-1.35266e-14
-1.35138e-14
-1.35298e-14
-1.35185e-14
-1.35271e-14
-1.35193e-14
-1.35248e-14
-1.35226e-14
-1.35252e-14
-1.35234e-14
-1.3525e-14
-1.35235e-14
-1.3525e-14
-1.35234e-14
-1.3525e-14
-1.35234e-14
)
;

boundaryField
{
    walls
    {
        type            zeroGradient;
    }
    inlet
    {
        type            cyclic;
    }
    outlet
    {
        type            cyclic;
    }
    sides
    {
        type            empty;
    }
}


// ************************************************************************* //
