/*--------------------------------*- C++ -*----------------------------------*\
| =========                 |                                                 |
| \\      /  F ield         | OpenFOAM: The Open Source CFD Toolbox           |
|  \\    /   O peration     | Version:  2012                                  |
|   \\  /    A nd           | Website:  www.openfoam.com                      |
|    \\/     M anipulation  |                                                 |
\*---------------------------------------------------------------------------*/
FoamFile
{
    version     2.0;
    format      ascii;
    class       volTensorField;
    location    "12000";
    object      grad(U);
}
// * * * * * * * * * * * * * * * * * * * * * * * * * * * * * * * * * * * * * //

dimensions      [0 0 -1 0 0 0 0];


internalField   nonuniform List<tensor> 
2560
(
(0 -7.97821e-15 2.48155e-14 285.407 0 1.43608 0.414291 -5.42101e-20 0.00193699)
(0 5.97055e-21 2.85722e-19 285.256 -0.0279623 0.00021529 0.414291 -0.000360627 -0.00193791)
(0 2.64026e-20 3.21062e-14 283.857 0.0454127 0.0221721 1.24379 5.26946e-05 6.51226e-05)
(0 -1.76017e-20 0 283.709 0.0726824 -0.000175214 1.24379 5.27831e-05 -0.00297857)
(2.30191e-16 -5.20483e-20 -4.81482e-34 282.504 -0.0536711 -1.39404e-16 1.69181 1.49744e-05 -4.33681e-19)
(-2.84253e-16 1.01928e-19 -5.55182e-19 282.363 0.0354118 -2.75174e-05 1.69099 1.50964e-05 -0.00299495)
(1.69162e-16 -1.01536e-19 1.36068e-18 281.146 -0.0378062 -0.263641 1.70813 -1.44881e-06 0.000859807)
(0 1.01536e-19 -1.09445e-18 281.015 0.0324013 3.34297e-06 1.70738 -1.28592e-06 -0.00277986)
(1.10465e-15 -2.03585e-19 1.34845e-18 279.765 -0.0256236 -0.418675 1.72431 -1.14337e-06 0.00219344)
(-5.52327e-16 2.37296e-19 -1.34845e-18 279.65 0.0260904 -2.58223e-06 1.72364 -9.51942e-07 -0.00219476)
(9.47472e-16 -1.69418e-19 7.97476e-19 278.202 -0.0178092 -0.390591 1.73857 7.73623e-08 0.00149324)
(2.68071e-15 2.7105e-19 -7.97476e-19 278.104 0.0181497 -5.15405e-06 1.73801 2.90263e-07 -0.00149413)
(5.51076e-16 -1.01646e-19 3.93023e-19 276.225 -0.0118341 -0.261203 1.74967 -3.11793e-08 0.000979388)
(1.01559e-15 2.37196e-19 -7.86046e-19 276.145 0.0117249 -2.7096e-06 1.74922 1.80715e-07 -0.000979976)
(-6.42453e-16 3.04918e-19 -3.8739e-19 273.741 -0.00790655 -0.15374 1.75744 -2.27797e-07 0.000670105)
(1.51217e-15 -2.03279e-19 2.5826e-19 273.679 0.00802738 -8.05958e-07 1.7571 2.38571e-08 -0.000670507)
(1.80608e-15 -1.69408e-19 1.90919e-19 270.961 -0.00592695 -0.0908019 1.76453 3.9222e-07 0.000487894)
(0 2.71051e-19 -2.54559e-19 270.917 0.00573379 -4.30181e-07 1.7643 4.8309e-07 -0.000488187)
(0 2.37188e-19 -6.27275e-20 268.328 -0.00438226 -0.0564362 1.77394 -8.67729e-07 0.000375552)
(0 -1.35501e-19 0 268.3 0.00460357 2.68533e-07 1.77381 -5.02391e-07 -0.000375778)
(-1.00625e-15 -4.06474e-19 1.22491e-19 265.921 -0.00371358 -0.0371386 1.78378 1.16891e-06 0.000293721)
(0 4.06474e-19 -1.85485e-19 265.907 0.00345943 1.78908e-07 1.78374 1.22208e-06 -0.000302301)
(3.12551e-15 -6.09899e-19 2.201e-19 263.614 -0.00301215 -0.025701 1.79437 -1.72958e-06 0.000202485)
(0 5.42291e-19 -1.82827e-19 263.613 0.00314376 2.41245e-07 1.7944 -1.29761e-06 -0.000251652)
(1.96834e-15 -2.03436e-19 1.20138e-19 261.537 -0.00229844 -0.0185725 1.80723 1.67248e-06 0.000145951)
(0 2.71014e-19 -1.20138e-19 261.546 0.0459004 0.00017667 1.80733 1.74673e-06 -0.000215139)
(-1.37497e-15 3.25644e-19 -1.29168e-19 259.596 -0.00209949 -0.0138226 1.81962 0.000149451 0.000109539)
(5.49979e-15 2.52778e-34 8.88119e-20 259.613 -1.38804e-17 1.78694e-06 1.81976 0 -0.000187128)
(-1.91232e-15 2.91797e-19 -1.45898e-19 257.375 -0.00212832 -0.0105918 1.82846 -1.95616e-05 8.33846e-05)
(1.91232e-15 -2.91797e-19 1.45898e-19 257.398 0.0882011 8.78482e-05 1.82864 -0.000304427 -0.000166882)
(-1.62638e-15 -5.75229e-20 -1.14588e-20 254.559 -0.00285053 -0.00828277 1.83214 0.000463288 6.6622e-05)
(6.50539e-15 0 0 254.586 -1.78871e-17 1.30799e-05 1.83234 -5.42101e-20 -0.000149282)
(0 0 -1.41746e-19 251.074 -0.00135612 -0.00658367 1.83081 -6.56262e-06 5.23816e-05)
(-7.01467e-15 4.67883e-19 1.41746e-19 251.104 2.33942e-20 -6.51304e-05 1.83103 0 -0.00013708)
(0 1.34126e-18 -1.11772e-19 247.356 -0.0014004 -0.00535441 1.83037 0.000732594 4.3605e-05)
(-7.52309e-15 -3.0511e-19 1.11772e-19 247.387 -2.74978e-17 2.21314e-06 1.8306 0 -0.000125497)
(3.61004e-15 -2.20339e-19 6.8856e-20 244.413 -0.000872328 -0.00440388 1.83993 -0.000748619 3.55892e-05)
(0 9.887e-30 -8.26272e-20 244.444 3.21998e-17 -4.16811e-06 1.84015 0 -0.00011727)
(2.13097e-15 1.08591e-18 -2.98416e-20 243.044 -0.00176753 -0.00366463 1.86298 0.000931853 3.05049e-05)
(-8.52377e-15 -5.17414e-19 8.14429e-20 243.074 -3.23384e-20 -1.20574e-06 1.8632 1.0842e-19 -0.000108969)
(0 -2.14068e-19 -9.36549e-20 243.12 -0.000783341 -0.00307899 1.89501 -0.00107267 2.52875e-05)
(0 2.97647e-19 9.36549e-20 243.148 3.46759e-17 -7.27218e-06 1.89521 0 -0.000103328)
(1.07451e-15 -4.22001e-19 2.91891e-20 243.878 -0.00139757 -0.00260994 1.92952 0.00113337 2.22809e-05)
(-3.45703e-15 -1.54074e-33 -5.27501e-20 243.903 -4.1594e-17 -2.05745e-06 1.92971 2.34257e-34 -9.70878e-05)
(8.95797e-16 2.07976e-19 1.45652e-19 244.693 -0.000320756 -0.00228674 1.96359 -0.00127553 1.86196e-05)
(0 9.62965e-35 -1.55982e-19 244.717 -2.16469e-35 0.000266172 1.96377 2.1684e-19 -9.31147e-05)
(0 2.04995e-18 -2.56244e-20 245.396 -0.00170935 -0.00190315 1.99747 0.00159177 1.77543e-05)
(-1.05729e-14 -6.62803e-19 5.12488e-20 245.418 -5.52335e-20 6.29984e-06 1.99763 0 -8.69127e-05)
(2.77712e-15 -1.21234e-18 -6.57156e-20 246.028 -0.000518092 -0.00158223 2.03154 -0.0019929 1.29286e-05)
(0 0 7.57714e-20 246.048 1.38778e-17 -0.000145538 2.03169 3.83764e-35 -8.54393e-05)
(-5.82695e-15 2.78826e-18 -1.06e-19 246.555 -0.00208102 -0.00139203 2.06479 0.00211623 1.29811e-05)
(0 0 8.7133e-20 246.573 -7.07199e-17 1.56319e-05 2.06494 -1.63049e-34 -8.10057e-05)
(1.23738e-14 1.96307e-18 1.27063e-19 246.805 -0.000177214 -0.00118921 2.0953 -0.0023538 1.01245e-05)
(2.12037e-14 0 -9.81533e-20 246.822 8.32667e-17 1.65529e-05 2.09543 -2.45891e-30 -7.96111e-05)
(-3.17019e-15 -3.48288e-18 7.25599e-20 246.566 -0.00201399 -0.00102223 2.12114 0.00246573 9.91808e-06)
(1.27772e-14 0 -7.25599e-20 246.58 -8.00539e-17 1.17684e-05 2.12127 0 -7.59051e-05)
(3.33867e-15 -1.14432e-18 -1.44558e-20 245.704 0.000372748 -0.000882056 2.14163 -0.00270262 7.54481e-06)
(0 3.7503e-19 1.192e-20 245.717 9.37575e-20 7.99149e-06 2.14174 -4.33681e-19 -7.52097e-05)
(-6.96977e-15 0 -1.78251e-20 244.329 -0.00219499 -0.000763246 2.15891 0.00282315 7.75917e-06)
(-2.7879e-14 -3.9183e-18 0 244.341 9.79575e-20 1.67048e-06 2.15901 4.33681e-19 -7.20243e-05)
(-3.63191e-15 -7.41168e-19 -3.23433e-20 242.916 0.000818788 -0.000663931 2.17894 -0.00306998 5.65947e-06)
(-2.05993e-14 2.13005e-18 1.15807e-20 242.926 9.00991e-17 -1.70744e-05 2.17902 0 -7.18634e-05)
(0 4.018e-18 -6.84886e-20 242.243 -0.00252018 -0.00058266 2.20988 0.00319125 6.20011e-06)
(-1.51152e-14 -1.32874e-18 6.84886e-20 242.252 -6.82817e-18 -4.76504e-06 2.20995 0 -6.91158e-05)
(0 2.16022e-18 5.62558e-20 243.094 0.00142775 -0.000510337 2.25852 -0.00343815 4.34221e-06)
(1.57016e-14 0 -5.62558e-20 243.101 -1.19276e-19 -2.21825e-05 2.25857 0 -6.92651e-05)
(-4.07263e-15 0 -8.57236e-21 245.881 -0.00300603 -0.000449806 2.32696 0.00355845 5.04278e-06)
(0 -9.62965e-35 -2.21798e-20 245.886 -1.0594e-16 -3.07538e-06 2.327 0 -6.68526e-05)
(-9.95329e-15 -2.09874e-18 -6.3513e-20 250.452 0.00200643 -0.000452922 2.41179 -0.00380092 3.33248e-06)
(5.73097e-15 0 5.46548e-20 250.456 -1.31861e-19 0.000265347 2.41181 7.31977e-35 -6.7201e-05)
(-4.37667e-15 2.75822e-18 -5.11652e-20 256.163 -0.00384733 -0.000330636 2.50553 0.00418134 5.24987e-06)
(-1.75067e-14 -2.32126e-18 2.15486e-20 256.166 -4.35237e-19 7.41157e-06 2.50555 8.67362e-19 -6.34244e-05)
(1.01054e-14 2.03901e-18 2.54768e-17 262.117 0.00262907 -0.000218966 2.59922 -0.00469182 1.06595e-06)
(-5.56787e-15 -3.85186e-33 -3.18596e-20 262.119 1.11022e-16 0.00107422 2.59923 -8.67362e-19 -6.56209e-05)
(4.70597e-15 -5.35944e-18 5.87926e-20 267.449 -0.00472719 -0.000200416 2.68502 0.00608309 9.04695e-06)
(0 -7.70372e-34 -5.23383e-20 267.45 0 2.27017e-05 2.68503 8.67362e-19 -5.5592e-05)
(-4.88207e-15 -1.32066e-18 0 271.573 0.00338738 -1.78893e-18 2.75863 -0.007655 7.49627e-50)
(0 1.06231e-18 1.03176e-20 271.574 2.2231e-16 0.000446412 2.75863 0 -6.46559e-05)
(0 7.81037e-18 -2.03395e-20 274.415 -0.00543975 -6.58505e-05 2.82187 0.00939547 9.6537e-06)
(0 -1.30392e-18 3.05093e-20 274.415 -5.55112e-16 2.87745e-05 2.82186 0 -5.21093e-05)
(-5.25175e-15 -1.28307e-18 5.1029e-18 276.61 0.00410421 1.72117e-18 2.88506 -0.0114009 0)
(1.57515e-14 0 -1.0024e-20 276.608 -7.91082e-19 -0.000317598 2.88503 -1.73472e-18 -6.43532e-05)
(0 -1.26468e-17 4.94016e-20 279.617 -0.00594493 4.83227e-05 2.96792 0.0127473 7.70499e-06)
(2.17618e-14 0 -4.94016e-20 279.613 -7.78041e-16 2.38101e-05 2.96786 1.73472e-18 -5.4075e-05)
(5.62846e-15 -4.98622e-18 2.3499e-17 285.575 0.00477004 3.41972e-18 3.09701 -0.0144295 0)
(-2.25139e-14 8.00983e-18 4.86936e-20 285.568 0 -0.000798787 3.09691 0 -6.46313e-05)
(5.81533e-15 -7.37213e-18 2.69124e-20 296.825 -0.00636676 0.000126948 3.29897 0.0149521 4.17522e-06)
(0 0 -1.91983e-20 296.813 -3.60822e-16 1.25516e-05 3.29882 1.73472e-18 -5.97966e-05)
(-6.00356e-15 4.84431e-18 4.62111e-18 315.191 0.00537507 -4.53016e-21 3.59207 -0.0158378 0)
(0 1.54074e-33 -2.83847e-20 315.174 4.02245e-16 -0.000100085 3.59187 3.46945e-18 -6.53218e-05)
(6.19885e-15 7.16232e-18 -1.07404e-20 341.393 -0.0069707 0.000179744 3.98084 0.0162638 4.22921e-06)
(2.47955e-14 -2.77334e-32 0 341.372 -4.16334e-16 9.8896e-06 3.98058 0 -6.12728e-05)
(9.6388e-15 2.35322e-18 6.88651e-18 374.903 0.00611815 1.65341e-18 4.45664 -0.0170571 0)
(2.56363e-14 0 -3.67691e-20 374.878 8.60423e-16 0.000279074 4.45635 -4.58748e-33 -6.63288e-05)
(-6.64249e-15 0 -7.48343e-21 414.278 -0.00776794 0.000230526 5.00268 0.0177611 6.44908e-06)
(0 -7.70372e-34 -1.81211e-20 414.251 0 1.42639e-05 5.00236 0 -6.04076e-05)
(-6.90636e-15 0 0 457.813 0.0070154 0 5.60259 -0.0188419 0)
(0 3.15853e-32 -1.78613e-20 457.785 4.51693e-16 0.00165301 5.60226 3.46945e-18 -6.76578e-05)
(0 -4.50697e-18 1.76053e-20 504.052 -0.00758612 0.000314526 6.2434 0.0211223 1.69392e-05)
(0 3.08149e-32 -1.76053e-20 504.025 -4.47021e-16 4.39345e-05 6.24309 -3.46945e-18 -4.99591e-05)
(-7.54729e-15 4.44237e-18 1.09089e-17 551.55 0.00804583 0.000329131 6.90699 -0.0238426 1.96112e-06)
(0 4.62223e-33 -3.4706e-20 551.526 5.55112e-17 -0.00145513 6.90673 -3.46945e-18 -6.95159e-05)
(0 2.62722e-17 -5.9865e-20 597.854 -0.00709724 0.000494528 7.5541 0.0245089 1.00552e-05)
(-3.17471e-14 -1.70068e-17 5.13129e-20 597.837 -5.29057e-16 0.000128949 7.55394 3.46945e-18 -6.31949e-05)
(-8.38437e-15 2.15797e-17 4.97678e-20 638.175 0.00808578 0.000624216 8.10565 -0.0255969 5.22323e-06)
(3.35375e-14 -3.15544e-30 -6.74366e-20 638.169 1.13443e-15 0.00075361 8.10566 -3.46945e-18 -7.1834e-05)
(0 2.55245e-17 -4.98525e-20 664.212 -0.00754717 0.000962323 8.42813 0.026515 1.8826e-05)
(0 1.54074e-33 4.98525e-20 664.223 -2.77556e-17 0.000351336 8.42839 3.46945e-18 -6.22701e-05)
(-1.80879e-14 -8.38622e-18 -5.78373e-20 663.715 0.00535888 0.00126532 8.33046 -0.0278208 1.30827e-05)
(4.65889e-14 -3.08149e-33 4.9138e-20 663.749 6.11609e-16 0.00157902 8.33105 0 -7.58026e-05)
(3.72918e-14 -8.26603e-18 3.87753e-20 621.599 -0.00974804 0.00193564 7.58823 0.0292322 3.66747e-05)
(2.37967e-14 -4.31408e-32 -3.22892e-20 621.66 -6.08594e-16 0.000616776 7.58922 6.79828e-33 -6.00789e-05)
(0 8.14755e-18 3.18264e-20 522.903 0.000573155 0.0024078 5.9907 -0.0311128 2.58267e-05)
(0 -4.62223e-32 -3.18264e-20 522.997 6.66134e-16 0.00201378 5.99215 -3.46945e-18 -8.45397e-05)
(-1.1704e-14 -8.03078e-18 3.09592e-20 357.14 -0.0102726 0.00321938 3.40785 0.0331488 5.93047e-05)
(0 9.86076e-32 -3.13702e-20 357.268 -1.44559e-15 0.000634978 3.40976 4.45798e-33 -6.23024e-05)
(0 -2.3747e-17 -6.42868e-20 -1.86783e-12 -0.00180057 0.00362358 -1.42109e-14 -0.0359161 3.74748e-05)
(4.96537e-14 6.16298e-33 7.73015e-20 0.0177874 1.11022e-16 0.0010934 0.000118961 3.45858e-33 -0.000102024)
(3.00043e-12 0 -9.79281e-22 -20.9257 -0.00441305 0.0040126 0.141985 0.0383378 7.16769e-05)
(0 0 -3.04774e-20 -20.5849 -2.66025e-18 0.000176491 0.139672 6.93889e-18 -7.87699e-05)
(-1.14764e-14 7.6904e-18 4.76356e-20 -492.851 -0.000387754 0.00402308 4.45502 -0.0417549 3.88633e-05)
(4.59069e-14 0 -9.01219e-20 -492.657 8.41772e-16 -0.00101249 4.45241 6.93889e-18 -0.00012858)
(-1.019e-14 1.51604e-17 -6.6371e-20 -817.802 0.00515664 0.00358316 9.14973 0.0439781 6.13977e-05)
(-1.55242e-14 -6.18415e-32 2.96101e-20 -817.607 -8.9123e-16 -0.000524381 9.14698 0 -0.000112962)
(-1.72039e-14 -2.98861e-17 -9.43389e-20 -1107.23 -0.000141637 0.00316553 13.7293 -0.0471986 2.80794e-05)
(-3.44093e-14 2.62004e-17 5.83713e-20 -1107.05 3.27505e-18 -0.0027256 13.7266 0 -0.000157703)
(-1.36537e-14 -3.68222e-17 1.10382e-19 -1330 0.0109505 0.00215017 17.6804 0.0486921 3.37881e-05)
(5.46177e-14 0 -1.15069e-19 -1329.85 -9.40311e-16 -0.000938041 17.6779 7.17491e-30 -0.000154357)
(-1.49873e-14 -5.08123e-17 -2.40058e-19 -1465.97 -0.00484558 0.00157887 20.5836 -0.0509297 1.21146e-05)
(-1.99842e-14 1.41358e-17 1.7013e-19 -1465.85 1.94532e-15 -0.00228452 20.5816 -6.93889e-18 -0.000180114)
(-1.05589e-14 -5.0084e-17 1.69821e-18 -1508.86 0.0109726 3.41524e-18 22.1937 0.0516821 0)
(2.02569e-14 0 -1.39743e-19 -1508.78 9.50862e-16 0.00255525 22.1923 6.93889e-18 -0.000182365)
(1.6359e-15 2.11569e-17 4.86469e-20 -1465.48 -0.0107303 -0.000244319 22.4651 -0.0507131 9.63176e-06)
(0 0 -2.75481e-20 -1465.45 7.03783e-18 0.000659116 22.4643 -6.93889e-18 -0.000161704)
(0 -4.86586e-17 2.43966e-20 -1352.29 0.00867616 -8.40236e-20 21.5319 0.0506496 2.71051e-20)
(1.08541e-15 0 -1.35766e-19 -1352.31 8.88178e-16 0.00137035 21.5318 -6.93889e-18 -0.000175836)
(0 6.8516e-18 8.02922e-20 -1190.38 -0.0132682 -0.000755071 13.662 -0.0493711 2.29784e-05)
(1.75401e-15 0 -2.67641e-20 -1190.45 -9.4369e-16 0.000286308 13.662 -5.70511e-33 -0.000145848)
(-8.64435e-16 1.35068e-17 7.07592e-16 -1000.88 0.00695806 -2.47029e-05 5.10049 0.0488746 1.93645e-07)
(-1.72887e-15 0 5.27609e-20 -1000.99 -1.13264e-31 0.00721898 5.1005 6.93889e-18 -0.00016817)
(0 -4.16038e-18 6.50059e-20 -801.691 -0.0109774 -0.0201641 -2.02015 -0.00637054 -6.97522e-05)
(0 3.85414e-13 -2.47135e-17 -801.837 8.88178e-16 2.38524e-18 -2.02015 1.73472e-18 -1.35525e-20)
(0 0 -5.96251e-22 -605.974 0.00709584 -0.00023985 -7.64144 0.00548937 5.07026e-06)
(0 0 0 -606.14 1.11766e-16 -0.00805295 -7.64144 0 -7.21952e-06)
(0 2.42519e-18 -6.31559e-21 -422.148 -0.00830704 -0.000322323 -5.50771 -0.00462588 -7.14177e-06)
(-3.48559e-15 -1.57772e-30 0 -422.317 -1.38778e-16 -2.1684e-19 -5.51046 -3.81268e-30 -8.47033e-22)
(0 1.59362e-18 0 -254.833 0.00649921 -0.000367167 -2.93922 0.00389949 6.06093e-06)
(-6.44053e-15 3.85186e-34 0 -254.995 -8.27448e-17 -0.000520323 -2.94187 -4.33681e-19 -6.0624e-06)
(-5.3502e-13 0 0 -73.459 -0.00626722 -0.000357016 -0.618943 -0.003195 -6.05226e-06)
(0 4.81482e-35 0 -73.756 5.55112e-17 -9.98323e-20 -0.621445 5.87988e-35 -1.16734e-37)
(-7.66412e-13 1.1612e-18 -3.02395e-21 0.0152653 0.00560325 -0.000351052 -0.000130491 0.00263892 4.62082e-06)
(2.26548e-15 -8.47889e-15 0 0 0 -0.000533249 0 0 -4.62199e-06)
(0 0 0 134.171 -0.00500729 -0.000323504 -1.43903 -0.00210843 -4.63901e-06)
(-3.1254e-15 7.00685e-15 -6.44986e-22 134.04 2.72183e-19 -6.44986e-22 -1.43668 0 0)
(-3.0806e-15 -5.64075e-19 1.46895e-21 226.322 0.00449582 -0.000312093 -3.22828 0.00170899 3.31865e-06)
(0 3.08149e-33 -1.46895e-21 226.203 -2.79721e-17 -0.000471145 -3.2261 -2.1684e-19 -3.31957e-06)
(3.88716e-16 6.01152e-20 2.89578e-21 300.894 -0.00399558 -0.000282854 -4.74799 -0.000447536 -3.34575e-06)
(0 3.37714e-15 -4.65424e-22 300.785 -0.0179443 4.65424e-22 -4.74596 -0.000160181 0)
(3.62436e-16 5.48022e-19 -1.42714e-21 359.142 0.00354851 -0.0002672 -6.00487 0.0010687 2.15577e-06)
(0 -3.41922e-15 1.42714e-21 359.046 -1.37509e-17 -0.000404314 -6.00302 -1.0842e-19 -2.15672e-06)
(0 -1.46569e-16 0 402.678 -1.14725e-19 -0.000235066 -5.11066 -1.0842e-19 -2.17433e-06)
(0 0 -1.21183e-21 402.598 -0.0425534 -6.05914e-22 -5.11066 -0.00066875 4.23516e-22)
(0 -2.66213e-19 6.93262e-22 433.469 0.00291295 -0.000210499 -1.21477 0.000673665 1.17554e-06)
(0 0 0 433.409 -3.54071e-18 -0.000321922 -1.21477 0 -1.17731e-06)
(0 -3.4827e-17 0 453.704 7.80626e-18 -0.000173255 2.97217 0 -1.17753e-06)
(0 -2.62397e-19 0 453.668 -0.0206563 6.77626e-21 2.97217 -0.000379246 4.9523e-34)
(0 6.03485e-19 6.73532e-22 465.536 0.00240278 -0.000150848 7.36794 0.000472724 4.59221e-07)
(0 -6.48783e-19 -1.34706e-21 465.522 7.02401e-18 -6.62725e-05 7.36793 0 1.01748e-06)
(0 -2.55899e-17 0 470.83 -5.63785e-18 -1.32171e-05 9.2569 -5.42101e-20 -4.43952e-07)
(0 1.27465e-19 0 470.831 -0.00557954 7.65914e-05 9.25704 -0.000248865 8.17295e-07)
(-9.97301e-16 -7.95706e-19 -1.96309e-21 470.972 0.00195269 1.65718e-05 9.34862 0.000358836 1.33632e-06)
(3.98902e-15 0 8.21637e-19 470.984 3.36432e-20 8.35994e-06 9.34895 2.71051e-20 8.25609e-08)
(-1.64464e-15 -3.77015e-17 1.28997e-21 466.771 -4.59864e-18 4.01732e-05 9.35846 0 -7.30367e-08)
(-6.57828e-15 -1.23837e-19 -2.44663e-20 466.791 -0.00172193 -3.58631e-22 9.35895 -0.000236696 0)
(2.3047e-15 -4.88249e-19 -6.35741e-22 458.447 0.00150633 0.000174899 9.28159 0.000299156 1.89945e-07)
(9.21844e-15 -9.62965e-35 9.34587e-22 458.475 4.33681e-19 2.13409e-05 9.2822 2.71051e-20 9.41791e-07)
(-8.22993e-15 -3.03439e-17 1.25326e-21 445.728 3.75914e-18 0.000238919 9.10411 0 -1.9062e-07)
(1.71497e-14 -6.01564e-19 -1.25326e-21 445.761 -0.00329748 8.59909e-05 9.10484 -0.000188418 5.06937e-07)
(-3.64638e-15 7.90589e-20 0 428.019 0.00106117 0.000289986 8.80691 0.000245559 1.7339e-07)
(0 -1.57825e-16 0 428.056 2.14371e-18 0.000250303 8.80775 0 -9.41423e-08)
(-4.31815e-15 -1.36561e-17 0 404.618 2.84831e-18 0.000343815 8.36999 2.71051e-20 -1.74592e-07)
(0 1.3637e-19 0 404.66 -0.002805 0.000345511 8.37092 -0.000151211 9.73138e-08)
(-4.98113e-15 -7.48887e-19 -2.40028e-21 374.958 0.000650325 0.000383834 7.77791 0.000195914 1.53765e-07)
(1.9924e-14 0 0 375.003 -1.96166e-20 0.000382475 7.77892 2.71051e-20 -7.8597e-08)
(5.62536e-15 -3.82832e-17 -4.73175e-21 338.834 -4.57755e-18 0.000410461 7.02497 0 -1.56275e-07)
(0 3.97467e-19 4.73175e-21 338.882 -0.00241173 0.000411944 7.02606 -0.000124526 8.49693e-08)
(0 -4.10426e-19 4.66393e-21 296.585 0.000407969 0.000412444 6.11882 0.00015014 1.32015e-07)
(0 -3.85186e-34 -4.66393e-21 296.635 1.31598e-18 0.000411307 6.11996 7.50811e-35 -6.44728e-08)
(-6.80722e-15 -1.04499e-17 0 249.146 1.27983e-19 0.000392993 5.08124 0 -1.36746e-07)
(0 3.49379e-19 0 249.197 -0.00199586 0.000394278 5.08241 -0.00010483 7.4328e-08)
(9.50261e-15 -1.15092e-18 0 198.026 0.000299242 0.000345737 3.94809 0.000110364 1.09627e-07)
(5.85355e-14 2.46519e-32 0 198.077 8.67362e-19 0.000344785 3.94925 1.76282e-32 -5.17903e-08)
(0 -6.2667e-18 -4.46626e-21 145.232 0 0.000282178 2.76787 0 -1.17304e-07)
(3.10189e-14 2.1438e-19 0 145.281 -0.0014538 0.000283284 2.769 -8.91143e-05 6.51502e-08)
(-1.73419e-14 8.01208e-19 -8.80449e-21 93.0634 0.000348487 0.000203765 1.59532 8.0813e-05 8.79565e-08)
(-3.24382e-14 -1.06627e-16 8.80449e-21 93.11 -1.59266e-20 0.000202963 1.59638 0 -4.05244e-08)
(3.5771e-14 -2.39131e-18 8.67829e-21 40.8446 -1.0842e-18 0.000123163 0.486643 0 -9.89681e-08)
(-1.7189e-13 -3.38453e-19 -1.05706e-19 40.9255 -0.000970285 0.000122023 0.487607 -7.36126e-05 5.72246e-08)
(1.89721e-28 3.33603e-19 2.85956e-19 -6.8421e-13 0.000452379 3.35941e-05 4.60298e-31 6.12659e-05 6.80005e-08)
(0 -2.05294e-19 -8.55391e-21 -0.0165516 4.21304e-19 4.53746e-05 0.000200072 -6.77626e-21 -3.06368e-08)
(0 -1.28845e-18 4.80755e-20 -37.4734 7.86047e-19 -1.65334e-05 0.505709 0 -8.2432e-08)
(2.46412e-14 -2.02352e-19 5.87747e-39 -37.4422 -0.000643903 -5.5622e-22 0.50487 -5.67385e-05 6.61744e-24)
(-9.26636e-15 9.43238e-19 -8.31047e-21 -66.5843 0.000478864 -6.7755e-05 1.33852 4.87439e-05 5.03888e-08)
(0 0 0 -66.5599 -9.81135e-20 -6.8315e-05 1.33784 0 -2.20798e-08)
(0 -4.50244e-20 0 -86.9079 -5.22619e-19 -9.6401e-05 1.97983 0 -6.81325e-08)
(6.34854e-14 1.4253e-18 0 -86.8909 -0.000450879 -9.57397e-05 1.97931 -4.00636e-05 4.45583e-08)
(0 -3.39106e-19 8.07396e-21 -98.3529 0.000339762 -0.00010959 2.41136 4.0421e-05 3.53622e-08)
(7.01338e-14 -9.62965e-35 0 -98.3433 4.42681e-19 -0.000110043 2.41102 7.11045e-35 -1.47197e-08)
(-1.49918e-14 9.32872e-35 0 -101.313 3.44216e-19 -0.00010741 2.62836 2.74928e-36 -5.63112e-08)
(0 0 0 -101.311 -0.00037501 -0.000106854 2.62821 -2.761e-05 3.97362e-08)
(-7.31175e-15 0 0 -96.549 0.000190332 -9.63758e-05 2.63695 3.35748e-05 2.28199e-08)
(5.84939e-14 -1.44445e-34 0 -96.5538 -3.25261e-19 -9.67243e-05 2.63699 -3.26208e-35 -8.33651e-09)
(7.1672e-15 -2.44904e-18 0 -85.0726 -2.10918e-19 -7.90512e-05 2.45234 0 -4.70413e-08)
(0 3.36331e-19 0 -85.0838 -0.000353346 -7.85736e-05 2.45255 -1.96983e-05 3.59749e-08)
(-7.07123e-15 0 0 -68.0244 0.000107841 -5.93901e-05 2.09584 2.68695e-05 1.23919e-08)
(0 0 0 -68.041 5.42101e-20 -5.96335e-05 2.09622 3.38813e-21 -2.62205e-09)
(-7.03062e-15 -4.81482e-35 0 -46.5926 0 -3.8343e-05 1.59223 -1.69407e-21 -4.02866e-08)
(2.81222e-14 -3.38027e-19 0 -46.6136 -0.000308978 -3.79118e-05 1.59275 -1.45871e-05 3.33624e-08)
(-8.31463e-14 3.40586e-19 0 -18.1386 0.00010135 -1.60834e-05 0.968628 2.09372e-05 3.54821e-09)
(2.04356e-14 0 0 -18.1895 1.6263e-19 -1.62217e-05 0.969263 3.38813e-21 2.77858e-09)
(-1.41881e-14 0 0 0.00979701 0 1.08617e-05 0.524005 0 -3.59451e-08)
(7.26171e-17 0 0 1.41883e-14 -0.000201103 1.12746e-05 0.523261 -1.01451e-05 3.20002e-08)
(-7.01831e-15 4.74759e-19 7.19333e-21 32.169 8.11015e-05 4.18219e-05 1.33142 1.76249e-05 -4.29166e-09)
(-7.54275e-15 -6.97752e-18 -7.19333e-21 32.1433 -1.6263e-19 4.17908e-05 1.33069 0 8.22847e-09)
(7.43464e-15 -6.37555e-22 0 59.3239 -1.20371e-35 8.02063e-05 2.13489 0 -3.39176e-08)
(-2.7997e-14 3.38558e-19 0 59.2998 -0.000113098 8.06253e-05 2.13421 -6.68473e-06 3.20116e-08)
(7.0415e-15 -4.73478e-19 0 84.935 0.000122688 0.000129253 2.89712 1.65417e-05 -1.16742e-08)
(2.81663e-14 0 0 84.9138 0 0.000129327 2.89655 0 1.40475e-08)
(7.14794e-15 -2.11178e-18 -6.88844e-21 107.772 1.35525e-20 0.00018404 3.57857 4.09184e-07 -3.40564e-08)
(-2.8592e-14 2.70802e-19 6.88844e-21 107.755 -0.000180547 0.000184479 3.57812 -2.32563e-06 3.34661e-08)
(-7.31844e-15 3.37788e-19 0 126.631 5.11659e-05 0.000240808 4.13912 1.31394e-05 -1.90179e-08)
(2.92739e-14 2.40741e-35 -1.35794e-20 126.619 -9.48677e-20 0.000240985 4.13883 1.69407e-21 2.04505e-08)
(-7.01749e-15 -4.09297e-22 0 140.391 0 0.000302625 4.53995 2.94929e-06 -3.62594e-08)
(0 -2.03282e-19 -6.6924e-21 140.385 -0.000113652 0.000303092 4.53984 -3.2165e-07 3.64502e-08)
(-1.38338e-14 4.73297e-19 -6.59648e-21 148.096 1.07193e-06 0.000366779 4.74695 1.14842e-05 -2.66265e-08)
(2.44283e-14 3.00927e-36 0 148.095 -3.38813e-21 0.000367046 4.74701 -1.69407e-21 2.7563e-08)
(8.16743e-15 -5.0864e-22 0 149.056 3.19847e-20 0.000435087 4.73446 3.66513e-06 -4.02737e-08)
(0 2.71049e-19 0 149.06 -7.28044e-05 0.000435575 4.73469 -1.02284e-07 4.08703e-08)
(0 3.38862e-19 0 142.953 6.67136e-05 0.000511951 4.48927 1.0933e-05 -3.456e-08)
(-4.75598e-14 -2.34243e-18 -1.28175e-20 142.962 -1.98759e-21 0.000512287 4.48964 0 3.53088e-08)
(-1.32475e-14 -8.73729e-22 -1.26338e-20 129.913 5.42101e-20 0.000602988 4.01317 6.29588e-06 -4.57208e-08)
(0 1.35517e-19 0 129.926 1.87056e-05 0.000603483 4.01367 2.02439e-06 4.64642e-08)
(0 3.3778e-19 0 110.561 0.000189933 0.000716922 3.32594 1.32509e-05 -4.26968e-08)
(0 -5.99254e-18 -1.24527e-20 110.577 4.95089e-21 0.000717286 3.32654 1.69407e-21 4.34664e-08)
(9.63172e-15 4.06644e-19 1.22742e-20 86.0214 0.000153828 0.000861111 2.46497 1.2959e-05 -5.19303e-08)
(0 -8.13168e-19 -1.22742e-20 86.0398 0.000121009 0.000861582 2.46562 8.14427e-06 5.26592e-08)
(-2.74701e-15 3.38753e-19 0 57.8544 0.0002593 0.00104171 1.48354 1.89971e-05 -5.06151e-08)
(0 -5.1816e-18 0 57.8737 8.53738e-05 0.00104206 1.48422 1.45929e-06 5.15167e-08)
(-2.03718e-14 0 0 25.7457 0.000193415 0.00126149 0.446468 2.21069e-05 -5.82428e-08)
(4.07431e-14 4.66871e-21 0 25.7839 0.000139688 0.0012619 0.447131 8.2795e-06 5.87926e-08)
(3.44269e-15 0 0 -0.00721787 0.000134264 0.00151386 0.000126988 2.54997e-05 -5.76659e-08)
(0 0 0 -0.0058352 1.35525e-20 0.00151416 0.000102662 3.38813e-21 5.8828e-08)
(0 1.3613e-19 0 -29.2517 4.13861e-05 0.00179004 0.576781 2.70651e-05 -6.38784e-08)
(-1.21483e-14 -2.02747e-19 -2.31711e-20 -29.2353 -1.02446e-05 0.00179037 0.57616 9.0863e-07 6.40972e-08)
(0 3.39729e-19 0 -52.9333 -0.000185197 0.0020687 1.51852 2.68329e-05 -6.34355e-08)
(0 -2.82333e-21 0 -52.9194 -1.29879e-19 0.00206893 1.51797 0 6.49577e-08)
(0 3.36267e-19 -4.50232e-20 -71.6002 -0.000343168 0.00232224 2.32155 2.0535e-05 -6.85898e-08)
(-1.18026e-14 -2.02605e-19 -4.50232e-20 -71.5892 -0.000394134 0.00232249 2.3211 1.36779e-05 6.83419e-08)
(0 3.39075e-19 8.87559e-20 -84.6114 -0.000546076 0.00252247 2.94479 1.41431e-05 -6.78042e-08)
(6.32424e-14 -2.03168e-19 -8.87559e-20 -84.6037 -0.000586326 0.00252265 2.94444 6.77426e-06 6.97463e-08)
(-1.81345e-14 0 0 -91.9131 -0.000765323 0.00263347 3.3667 3.51293e-07 -7.24658e-08)
(3.62692e-14 0 0 -91.9085 -0.000816815 0.00263367 3.36647 -7.35988e-06 7.15544e-08)
(8.78772e-15 -2.02101e-19 0 -93.9965 -0.000907226 0.00261984 3.58738 -1.4861e-05 -7.12982e-08)
(0 3.3953e-19 0 -93.9947 -0.000951953 0.00262 3.58726 -2.32003e-05 7.38029e-08)
(0 2.01861e-19 0 -91.7721 -0.000932543 0.00245701 3.62637 -3.30578e-05 -7.61987e-08)
(-3.41227e-14 -6.90576e-20 -8.4994e-20 -91.7728 -0.000985298 0.0024572 3.62635 -4.29016e-05 7.4378e-08)
(-1.92823e-14 -7.41301e-19 -8.37758e-20 -86.4097 -0.00086467 0.0021341 3.51803 -3.52583e-05 -7.46124e-08)
(3.32064e-14 8.06342e-19 0 -86.4121 -0.000913506 0.00213427 3.51809 -6.05858e-05 7.7895e-08)
(1.08233e-14 3.40622e-19 0 -79.1797 -0.000721069 0.00165289 3.30594 -2.24346e-05 -8.05861e-08)
(-1.08233e-14 -2.06438e-19 -8.25751e-20 -79.1832 -0.00077578 0.0016531 3.30606 -7.78159e-05 7.75564e-08)
(1.06682e-14 -2.03479e-19 0 -71.3055 -0.00042336 0.00103539 3.03747 -1.19102e-05 -7.83594e-08)
(0 3.3574e-19 8.13916e-20 -71.3093 -0.000476131 0.0010356 3.03762 -9.06474e-05 8.27372e-08)
(-7.77554e-15 3.21991e-34 0 -63.8307 1.17551e-18 1.58565e-05 2.75792 -1.35525e-20 -8.62139e-08)
(0 0 -1.50526e-35 -63.8342 -0.000122917 -5.42327e-20 2.75808 -9.57953e-05 0)
(-4.90893e-15 -1.16653e-18 2.23984e-18 -57.5362 0.000316181 -9.17379e-05 2.5054 -6.61494e-06 -8.2646e-08)
(6.10938e-14 1.14659e-18 1.72991e-17 -57.539 0.000283754 -9.12421e-05 2.50553 -9.46475e-05 8.87908e-08)
(0 3.40996e-19 0 -52.9107 0.000682748 -0.00112759 2.30813 -2.19704e-05 -9.32261e-08)
(0 -2.04597e-19 0 -52.9124 0.000622891 -0.00112733 2.30822 -8.23407e-05 8.62064e-08)
(0 3.45711e-19 0 -50.154 0.000955999 -0.00174325 2.18321 -3.60985e-05 -8.69329e-08)
(-1.00696e-14 -2.01665e-19 0 -50.1546 0.000896053 -0.001743 2.18326 -6.71256e-05 9.54551e-08)
(-2.16841e-14 -1.0128e-18 7.57236e-20 -49.2067 0.00108517 -0.00221579 2.13656 -2.80688e-05 -1.01171e-07)
(5.78241e-14 1.15479e-18 0 -49.2061 0.00102252 -0.00221554 2.13656 -4.19948e-05 9.10537e-08)
(0 -1.15223e-18 0 -49.8004 0.00110522 -0.00251563 2.16378 -6.78283e-06 -9.01691e-08)
(5.65929e-14 1.15223e-18 0 -49.799 0.00104204 -0.00251541 2.16373 -2.13884e-05 1.02282e-07)
(-6.90556e-15 4.06351e-19 0 -51.5253 0.000963628 -0.00263694 2.25218 2.1921e-05 -1.09512e-07)
(0 -3.3853e-19 -7.35686e-20 -51.5231 0.000898287 -0.00263674 2.25209 6.13106e-06 9.51691e-08)
(6.72197e-15 -1.15569e-18 0 -53.8961 0.000797306 -0.00259277 2.38344 3.60307e-05 -9.11724e-08)
(5.37758e-14 1.15569e-18 0 -53.8935 0.000731122 -0.00259262 2.38332 2.0022e-05 1.08401e-07)
(0 -8.13026e-19 0 -56.4165 0.000514456 -0.002413 2.53608 5.96541e-05 -1.1806e-07)
(2.60993e-14 2.53347e-18 0 -56.4138 0.000375619 -0.00241287 2.53595 8.6941e-06 9.77832e-08)
(6.31715e-15 -3.34639e-19 0 -58.6406 0.000248357 -0.0021414 2.6883 5.89662e-05 -8.85494e-08)
(0 3.34639e-19 0 -58.6381 0.000179465 -0.00214131 2.68818 8.1593e-06 1.13404e-07)
(1.22061e-14 1.38881e-19 3.47203e-20 -60.212 4.28996e-05 -0.0018193 2.8208 7.32019e-05 -1.27837e-07)
(2.44122e-14 6.01853e-36 -3.47203e-20 -60.21 -3.0832e-19 -0.00181923 2.82069 -6.77626e-21 9.90892e-08)
(0 3.33671e-19 0 -60.8838 -0.000143931 -0.00148424 2.91789 5.96465e-05 -8.17734e-08)
(0 -1.96781e-19 -1.71114e-20 -60.8824 -0.00021534 -0.00148419 2.9178 1.09172e-05 1.17091e-07)
(8.8427e-15 -2.02393e-19 0 -60.5323 -0.000244658 -0.00116637 2.96885 6.88882e-05 -1.4001e-07)
(2.26961e-14 3.56656e-19 0 -60.5315 -0.000317426 -0.00116634 2.9688 9.89495e-06 9.90409e-08)
(1.09361e-14 -3.408e-19 0 -59.1512 -0.000306909 -0.000885377 2.96863 4.55606e-05 -6.99363e-08)
(0 3.408e-19 0 -59.1512 -0.000380792 -0.000546938 2.96861 2.13232e-05 1.20026e-07)
(1.38638e-14 -8.80753e-19 0 -56.83 -0.000297314 -0.000377578 2.91739 5.73375e-05 -1.56729e-07)
(2.10909e-14 8.21965e-19 2.55471e-21 -56.8307 -0.000372428 -1.44218e-05 2.9174 1.65364e-05 3.97683e-06)
(0 -8.13619e-19 -1.61512e-20 -53.7313 -0.000284452 2.25418e-05 2.81954 2.73839e-05 6.89253e-06)
(2.03627e-14 8.13619e-19 2.37842e-20 -53.7326 -0.000360716 4.87593e-05 2.81959 8.86029e-06 2.42533e-06)
(-4.92342e-15 6.7659e-20 0 -50.0684 -0.000228233 4.84742e-05 2.68314 4.79912e-05 1.22763e-05)
(-1.96936e-14 6.7659e-20 -2.72528e-21 -50.0702 -0.000305598 4.69475e-05 2.68322 1.34272e-05 2.45359e-06)
(-1.29984e-14 4.90362e-22 -7.84579e-21 -46.0768 -0.000182801 4.59071e-05 2.51873 1.07599e-05 1.65615e-05)
(0 1.3534e-19 7.84579e-21 -46.0789 -0.000261264 4.4506e-05 2.51883 -6.03906e-06 2.23711e-06)
(-4.63434e-15 0 0 -41.9904 -0.000139987 4.50795e-05 2.33784 4.56824e-05 1.92302e-05)
(-1.85373e-14 1.35333e-19 -5.11133e-21 -41.9928 -0.000219411 4.15245e-05 2.33796 3.08091e-06 2.20423e-06)
(0 -4.10212e-19 0 -38.0283 -7.59075e-05 4.11988e-05 2.15224 -2.05934e-06 2.17454e-05)
(3.99639e-15 3.39201e-19 7.6225e-21 -38.0306 -0.000169889 3.79503e-05 2.15237 -1.67567e-05 1.91196e-06)