/*--------------------------------*- C++ -*----------------------------------*\
| =========                 |                                                 |
| \\      /  F ield         | OpenFOAM: The Open Source CFD Toolbox           |
|  \\    /   O peration     | Version:  2012                                  |
|   \\  /    A nd           | Website:  www.openfoam.com                      |
|    \\/     M anipulation  |                                                 |
\*---------------------------------------------------------------------------*/
FoamFile
{
    version     2.0;
    format      ascii;
    class       surfaceScalarField;
    location    "10000";
    object      phi;
}
// * * * * * * * * * * * * * * * * * * * * * * * * * * * * * * * * * * * * * //

dimensions      [0 3 -1 0 0 0 0];
oriented        oriented;


internalField   nonuniform List<scalar> 
1276
(
2.73628e-07
-1.23273e-17
-4.78881e-21
-1.06525e-20
1.03392e-22
8.87228e-07
-1.22837e-17
-1.44455e-20
-3.81973e-20
-1.30606e-21
1.61109e-06
-1.22341e-17
-1.6386e-20
-6.93948e-20
-1.54793e-21
2.46084e-06
-1.21774e-17
-1.88277e-20
-1.05295e-19
-1.83024e-21
3.45403e-06
-1.21127e-17
-2.16112e-20
-1.46165e-19
-2.15932e-21
4.61029e-06
-1.204e-17
-2.47731e-20
-1.92674e-19
-2.5416e-21
5.95117e-06
-1.19538e-17
-2.83679e-20
-2.4724e-19
-2.98323e-21
7.4994e-06
-1.18568e-17
-3.24047e-20
-3.08895e-19
-3.48805e-21
9.27746e-06
-1.17484e-17
-3.68321e-20
-3.7761e-19
-4.05392e-21
1.13049e-05
-1.16248e-17
-4.15107e-20
-4.56137e-19
-4.67098e-21
1.35946e-05
-1.14862e-17
-4.62033e-20
-5.44385e-19
-5.31812e-21
1.61502e-05
-1.13373e-17
-5.06065e-20
-6.37729e-19
-5.96621e-21
1.8965e-05
-1.11697e-17
-5.44411e-20
-7.40295e-19
-6.58529e-21
2.20253e-05
-1.09997e-17
-5.75427e-20
-8.47421e-19
-7.15748e-21
2.53162e-05
-1.08218e-17
-5.99001e-20
-9.56977e-19
-7.68567e-21
2.88265e-05
-1.06373e-17
-6.16337e-20
-1.06788e-18
-8.1882e-21
3.25522e-05
-1.04442e-17
-6.2915e-20
-1.18435e-18
-8.68841e-21
3.64964e-05
-1.02455e-17
-6.39132e-20
-1.30738e-18
-9.21118e-21
4.06683e-05
-1.00451e-17
-6.47647e-20
-1.43623e-18
-9.77263e-21
4.50821e-05
-9.85974e-18
-6.55462e-20
-1.55188e-18
-1.03876e-20
4.97556e-05
-9.65083e-18
-6.62999e-20
-1.68387e-18
-1.10613e-20
5.4709e-05
-9.44979e-18
-6.709e-20
-1.79968e-18
-1.17855e-20
5.99648e-05
-9.24683e-18
-6.79122e-20
-1.89337e-18
-1.26014e-20
6.55471e-05
-9.03479e-18
-6.87733e-20
-2.00907e-18
-1.35254e-20
7.14817e-05
-8.81851e-18
-6.96618e-20
-2.15262e-18
-1.45342e-20
7.77959e-05
-8.59371e-18
-7.05412e-20
-2.29621e-18
-1.5586e-20
8.45187e-05
-8.38679e-18
-7.13992e-20
-2.40662e-18
-1.66392e-20
9.16805e-05
-8.17677e-18
-7.2248e-20
-2.53047e-18
-1.78523e-20
9.93139e-05
-7.96497e-18
-7.2985e-20
-2.64851e-18
-1.91574e-20
0.000107453
-7.74891e-18
-7.35617e-20
-2.77293e-18
-2.05371e-20
0.000116134
-7.56686e-18
-7.41081e-20
-2.88561e-18
-2.19216e-20
0.000125395
-7.35242e-18
-7.42986e-20
-2.99437e-18
-2.32928e-20
0.000135277
-7.14028e-18
-7.43398e-20
-3.08661e-18
-2.46333e-20
0.000145824
-6.95535e-18
-7.42153e-20
-3.18059e-18
-2.5803e-20
0.000157081
-6.72034e-18
-7.37262e-20
-3.31263e-18
-2.69149e-20
0.000169097
-6.52061e-18
-7.30773e-20
-3.39269e-18
-2.7826e-20
0.000181924
-6.31229e-18
-7.2173e-20
-3.51318e-18
-2.88669e-20
0.000195616
-6.11065e-18
-7.14938e-20
-3.62378e-18
-2.92184e-20
0.000210233
-5.93224e-18
-7.01059e-20
-3.71198e-18
-2.93996e-20
0.000225836
-5.71778e-18
-6.77015e-20
-3.76295e-18
-2.94472e-20
0.000242492
-5.51468e-18
-6.66463e-20
-3.82881e-18
-2.9597e-20
0.00026027
-5.41211e-18
-6.49281e-20
-3.80451e-18
-3.02945e-20
0.000279245
-5.21105e-18
-6.28645e-20
-3.92427e-18
-3.25253e-20
0.000299496
-5.14378e-18
-6.20361e-20
-4.0013e-18
-3.28673e-20
0.000321108
-5.07243e-18
-6.02262e-20
-3.99129e-18
-3.2582e-20
0.00034417
-4.91969e-18
-5.61187e-20
-3.97698e-18
-3.44735e-20
0.000368776
-4.79696e-18
-5.16625e-20
-4.04556e-18
-3.66461e-20
0.000395028
-4.69144e-18
-4.94938e-20
-3.95603e-18
-3.75283e-20
0.000423033
-4.53676e-18
-4.80321e-20
-3.96197e-18
-4.06892e-20
0.000452905
-4.44487e-18
-4.7633e-20
-3.98308e-18
-4.49964e-20
0.000484763
-4.33678e-18
-5.28753e-20
-4.04387e-18
-4.98975e-20
0.000518737
-4.27186e-18
-6.07153e-20
-3.9989e-18
-5.32578e-20
0.000554962
-4.22615e-18
-6.63541e-20
-4.02976e-18
-6.30199e-20
0.000593582
-4.15591e-18
-6.62894e-20
-4.04821e-18
-7.22355e-20
0.000634749
-4.09233e-18
-6.32045e-20
-3.94533e-18
-7.23691e-20
0.000678627
-3.94675e-18
-6.79769e-20
-3.99498e-18
-8.53123e-20
0.000725386
-3.91235e-18
-8.00335e-20
-3.87618e-18
-9.05235e-20
0.000775207
-3.78844e-18
-8.82909e-20
-3.91625e-18
-1.02945e-19
0.000828284
-3.82822e-18
-9.2004e-20
-3.83031e-18
-9.72176e-20
0.000884819
-3.63059e-18
-8.05154e-20
-3.77383e-18
-9.1578e-20
0.000945028
-3.66115e-18
-8.19437e-20
-3.55152e-18
-7.43065e-20
0.00100914
-3.56161e-18
-6.99055e-20
-3.4261e-18
-8.70242e-20
0.00107738
-3.34217e-18
-7.69204e-20
-3.27187e-18
-7.69487e-20
0.00115002
-3.30856e-18
-8.93082e-20
-3.31178e-18
-9.87225e-20
0.00122732
-3.1008e-18
-5.18055e-20
-3.21077e-18
-8.03647e-20
0.00130955
-3.08056e-18
-6.07324e-20
-3.12478e-18
-5.72867e-20
0.001397
-3.16938e-18
-8.88083e-20
-3.08384e-18
-6.50195e-20
0.00148998
-3.19368e-18
-6.27864e-20
-3.26933e-18
-6.54857e-20
0.0015888
-2.97848e-18
-2.68581e-20
-2.95999e-18
-1.34814e-20
0.00169379
-2.74589e-18
-6.35132e-21
-2.66057e-18
7.59485e-20
0.00180528
-2.63577e-18
7.2045e-21
-2.75378e-18
4.52221e-21
0.0019236
-2.53575e-18
6.64979e-20
-2.4467e-18
9.47311e-20
0.00204909
-2.303e-18
5.83138e-20
-2.39789e-18
6.00065e-20
0.00218208
-2.00365e-18
3.70055e-20
-2.1612e-18
1.28503e-20
0.00232286
-2.15578e-18
5.10469e-21
-1.93443e-18
3.23949e-20
0.00247169
-1.87487e-18
3.52991e-20
-1.8183e-18
1.1716e-19
0.00262876
-2.0608e-18
-1.30496e-19
-2.07406e-18
-1.66619e-19
0.00279416
-1.7995e-18
-3.77163e-20
-1.92394e-18
-8.47285e-20
0.00296779
-1.90271e-18
-5.17392e-20
-2.04803e-18
-8.68807e-20
0.00314939
-5.49655e-20
-1.76856e-18
1.54772e-19
-1.65356e-18
2.73628e-07
-4.06481e-21
-8.79558e-22
8.87228e-07
-1.60813e-20
-4.9871e-21
1.61109e-06
-2.95643e-20
-9.45287e-21
2.46084e-06
-4.47368e-20
-1.59016e-20
3.45403e-06
-6.1844e-20
-2.22373e-20
4.61029e-06
-8.24976e-20
-2.98378e-20
5.95117e-06
-1.0426e-19
-3.96859e-20
7.4994e-06
-1.29784e-19
-4.84025e-20
9.27746e-06
-1.56937e-19
-6.0244e-20
1.13049e-05
-1.90047e-19
-7.45858e-20
1.35946e-05
-2.2695e-19
-9.21108e-20
1.61502e-05
-2.75333e-19
-1.06916e-19
1.8965e-05
-3.15918e-19
-1.25456e-19
2.20253e-05
-3.54745e-19
-1.49404e-19
2.53162e-05
-3.97433e-19
-1.74968e-19
2.88265e-05
-4.40478e-19
-2.00462e-19
3.25522e-05
-4.84884e-19
-2.35373e-19
3.64964e-05
-5.29408e-19
-2.67411e-19
4.06683e-05
-5.60927e-19
-3.00563e-19
4.50821e-05
-6.06257e-19
-3.21229e-19
4.97556e-05
-6.63007e-19
-3.43819e-19
5.4709e-05
-7.21488e-19
-3.67187e-19
5.99648e-05
-7.83471e-19
-3.85465e-19
6.55471e-05
-8.34586e-19
-4.20592e-19
7.14817e-05
-8.77968e-19
-4.64433e-19
7.77959e-05
-9.21796e-19
-5.00207e-19
8.45187e-05
-9.97494e-19
-5.61994e-19
9.16805e-05
-1.0444e-18
-6.18386e-19
9.93139e-05
-1.0807e-18
-6.8318e-19
0.000107453
-1.14935e-18
-7.47444e-19
0.000116134
-1.184e-18
-7.98263e-19
0.000125395
-1.24739e-18
-8.37533e-19
0.000135277
-1.31622e-18
-8.62965e-19
0.000145824
-1.38124e-18
-9.2785e-19
0.000157081
-1.43115e-18
-9.87197e-19
0.000169097
-1.48617e-18
-1.05202e-18
0.000181924
-1.54783e-18
-1.09769e-18
0.000195616
-1.5074e-18
-1.1839e-18
0.000210233
-1.47424e-18
-1.25785e-18
0.000225836
-1.58543e-18
-1.33045e-18
0.000242492
-1.54723e-18
-1.39541e-18
0.00026027
-1.62815e-18
-1.42742e-18
0.000279245
-1.67485e-18
-1.41898e-18
0.000299496
-1.72176e-18
-1.44078e-18
0.000321108
-1.72073e-18
-1.53101e-18
0.00034417
-1.72539e-18
-1.53282e-18
0.000368776
-1.83583e-18
-1.58507e-18
0.000395028
-1.90081e-18
-1.61259e-18
0.000423033
-1.91695e-18
-1.68934e-18
0.000452905
-2.07733e-18
-1.74555e-18
0.000484763
-2.11337e-18
-1.77661e-18
0.000518737
-2.07478e-18
-1.92212e-18
0.000554962
-2.00827e-18
-2.05505e-18
0.000593582
-2.01366e-18
-2.03229e-18
0.000634749
-2.19536e-18
-2.16501e-18
0.000678627
-2.28075e-18
-2.20593e-18
0.000725386
-2.36715e-18
-2.29045e-18
0.000775207
-2.37984e-18
-2.32995e-18
0.000828284
-2.44126e-18
-2.48323e-18
0.000884819
-2.45265e-18
-2.4855e-18
0.000945028
-2.51605e-18
-2.55895e-18
0.00100914
-2.65564e-18
-2.36597e-18
0.00107738
-2.58829e-18
-2.50599e-18
0.00115002
-2.47525e-18
-2.51392e-18
0.00122732
-2.5549e-18
-2.5036e-18
0.00130955
-2.6108e-18
-2.61032e-18
0.001397
-2.55224e-18
-2.62402e-18
0.00148998
-2.65581e-18
-2.71615e-18
0.0015888
-2.54945e-18
-2.31707e-18
0.00169379
-2.37009e-18
-2.46396e-18
0.00180528
-2.26241e-18
-2.35055e-18
0.0019236
-2.38162e-18
-2.32351e-18
0.00204909
-2.21708e-18
-2.2645e-18
0.00218208
-2.0603e-18
-2.15657e-18
0.00232286
-2.26019e-18
-2.04835e-18
0.00247169
-2.14067e-18
-2.21085e-18
0.00262876
-1.94594e-18
-1.95467e-18
0.00279416
-1.82854e-18
-1.94732e-18
0.00296779
-1.87579e-18
-1.82366e-18
0.00314939
-1.66485e-18
-1.68267e-18
0.00314939
-1.58532e-18
-6.58914e-20
-1.45757e-18
6.47113e-22
0.00296779
-1.39169e-18
2.65075e-20
-1.54139e-18
2.01764e-20
0.00279416
-9.91568e-19
1.25827e-19
-1.14751e-18
2.02525e-19
0.00262876
-1.49716e-18
-1.08627e-19
-1.07045e-18
1.82471e-19
0.00247169
-1.04659e-18
1.02089e-20
-1.0462e-18
-2.24887e-20
0.00232286
-1.25368e-18
4.24614e-20
-1.30516e-18
-4.68462e-20
0.00218208
-1.31114e-18
4.2094e-20
-1.32507e-18
-4.57664e-20
0.00204909
-1.25992e-18
4.12737e-20
-9.72183e-19
5.35082e-20
0.0019236
-1.03069e-18
7.07064e-20
-1.09208e-18
-9.20058e-20
0.00180528
-1.01834e-18
4.90652e-20
-1.21368e-18
-5.39101e-20
0.00169379
-8.74706e-19
1.30712e-20
-7.52533e-19
2.7633e-20
0.0015888
-5.44376e-19
1.43347e-20
-5.52172e-19
-2.62733e-21
0.00148998
-5.18868e-19
2.86944e-20
-5.98559e-19
-6.88478e-20
0.001397
-3.66418e-19
-3.18065e-20
-4.71656e-19
-2.96475e-20
0.00130955
-4.38163e-19
-4.23994e-20
-4.61797e-19
-3.40943e-20
0.00122732
-3.41493e-19
-5.91073e-20
-4.57746e-19
-4.43444e-20
0.00115002
-4.01984e-19
-5.80071e-20
-3.1545e-19
-3.77133e-20
0.00107738
-3.25618e-19
-6.14084e-20
-3.40872e-19
-3.83085e-20
0.00100914
-4.39417e-19
-4.87347e-20
-2.7266e-19
-3.98495e-20
0.000945028
-2.48482e-19
-1.05935e-20
-3.02601e-19
-4.0268e-20
0.000884819
-2.15114e-19
-2.38965e-21
-3.08773e-19
-1.91001e-20
0.000828284
-2.07658e-19
-4.82649e-21
-2.51343e-19
-8.61324e-21
0.000775207
-1.86016e-19
-3.3695e-22
-1.71136e-19
-9.1497e-21
0.000725386
-5.71175e-20
1.37243e-20
-1.06875e-19
-5.86546e-21
0.000678627
-1.25206e-19
5.0139e-21
-1.51604e-19
-1.33772e-20
0.000634749
-1.48087e-19
3.58007e-21
-1.51608e-19
-1.37889e-20
0.000593582
-7.91019e-20
4.36409e-21
-4.55725e-20
-1.31157e-20
0.000554962
-5.07943e-20
1.27422e-21
-4.54932e-20
-9.749e-21
0.000518737
-7.92207e-20
-3.84385e-21
-6.09576e-20
-9.01948e-21
0.000484763
-5.9804e-20
-4.42033e-21
-4.53756e-20
-6.19675e-21
0.000452905
-4.9199e-20
-4.18616e-21
-5.48369e-20
-2.96289e-21
0.000423033
-3.02675e-20
-3.7599e-21
-2.85765e-20
7.24688e-22
0.000395028
-5.84318e-20
-2.17979e-21
-5.4376e-20
2.83297e-21
0.000368776
-8.02046e-21
2.46831e-22
4.69361e-22
4.49686e-21
0.00034417
-2.94851e-20
6.47364e-22
-8.79917e-20
4.06053e-21
0.000321108
-8.19498e-20
-6.1268e-22
-2.52079e-20
5.09185e-21
0.000299496
-8.11869e-20
-4.76596e-22
-3.51015e-20
4.14962e-21
0.000279245
-8.359e-20
-2.54422e-22
-4.28191e-20
3.2726e-21
0.00026027
-4.92778e-20
-1.91136e-22
-2.14495e-23
2.74471e-21
0.000242492
-4.90816e-20
-6.82102e-22
-3.51899e-20
1.46132e-21
0.000225836
-6.91569e-20
-1.14438e-21
-3.52022e-20
1.10626e-21
0.000210233
-7.1665e-20
-1.28297e-21
1.0125e-20
1.36475e-21
0.000195616
-2.1841e-20
-1.1397e-21
1.80441e-21
7.02676e-22
0.000181924
-2.2167e-20
-1.25675e-21
-1.58326e-22
2.03455e-22
0.000169097
-8.45e-21
-1.1284e-21
-1.40318e-20
-1.78066e-22
0.000157081
8.47228e-21
-1.15698e-21
-2.71559e-20
-4.7621e-22
0.000145824
-5.62981e-22
-1.3621e-21
-2.57483e-20
-6.11427e-22
0.000135277
-7.41244e-21
-1.39172e-21
-2.68207e-20
-5.80128e-22
0.000125395
-1.54413e-20
-1.30649e-21
-2.16603e-20
-6.27996e-22
0.000116134
1.01611e-20
-1.07775e-21
-2.61486e-20
-7.8109e-22
0.000107453
1.69989e-20
-9.78247e-22
-2.63715e-20
-7.82741e-22
9.93139e-05
-4.15136e-21
-9.17003e-22
-5.85885e-21
-7.49794e-22
9.16806e-05
-7.28814e-22
-8.38008e-22
-9.73687e-21
-8.05668e-22
8.45186e-05
-6.9331e-21
-7.72654e-22
-7.78511e-21
-8.32387e-22
7.77959e-05
-1.07231e-20
-7.11152e-22
-2.27256e-21
-8.34141e-22
7.14817e-05
-5.61196e-21
-6.44215e-22
-1.84819e-21
-7.99744e-22
6.55471e-05
-2.44498e-20
-5.98081e-22
-8.03483e-21
-7.33966e-22
5.99648e-05
-2.02712e-20
-5.35021e-22
-3.75658e-21
-6.55374e-22
5.4709e-05
-2.36958e-20
-4.84657e-22
-4.37438e-21
-5.77925e-22
4.97556e-05
-2.30933e-20
-4.49247e-22
-3.45962e-21
-5.24002e-22
4.50821e-05
-1.69616e-20
-3.97009e-22
-6.59362e-21
-4.78248e-22
4.06683e-05
-5.28709e-21
-3.50653e-22
-7.3251e-21
-4.32353e-22
3.64964e-05
-5.47883e-21
-3.31014e-22
-7.33967e-21
-3.86645e-22
3.25522e-05
-4.06389e-21
-3.09344e-22
-1.02415e-20
-3.44694e-22
2.88265e-05
-2.40742e-21
-2.78894e-22
-9.72706e-21
-3.12239e-22
2.53161e-05
-8.60382e-22
-2.5103e-22
-8.93874e-21
-2.81964e-22
2.20253e-05
-1.15856e-21
-2.28723e-22
-8.53626e-21
-2.55811e-22
1.8965e-05
-1.66009e-21
-2.05745e-22
-3.21677e-21
-2.33922e-22
1.61502e-05
4.0005e-22
-1.83719e-22
-4.74861e-21
-2.11179e-22
1.35946e-05
8.81848e-22
-1.62105e-22
-4.04964e-21
-1.86034e-22
1.13049e-05
1.67423e-21
-1.41052e-22
-4.32687e-21
-1.5973e-22
9.27746e-06
-7.43255e-22
-1.21542e-22
-2.79374e-21
-1.35334e-22
7.4994e-06
-3.91094e-22
-1.0305e-22
-1.16342e-21
-1.1365e-22
5.95117e-06
-1.75186e-22
-8.70585e-23
-7.3881e-22
-9.52491e-23
4.61029e-06
6.11628e-23
-7.3344e-23
-6.06356e-22
-7.97823e-23
3.45403e-06
-2.96924e-22
-6.16965e-23
-9.45213e-22
-6.68096e-23
2.46084e-06
-8.48318e-23
-5.17871e-23
-1.55286e-22
-5.58346e-23
1.61109e-06
-3.92731e-23
-4.35448e-23
-7.84012e-23
-4.67124e-23
8.87228e-07
1.12736e-23
-3.65543e-23
-4.68446e-23
-3.9161e-23
2.73629e-07
-6.44436e-24
-1.18705e-23
0.00314939
-1.52363e-18
-1.49908e-18
0.00296779
-1.37616e-18
-1.47888e-18
0.00279416
-1.23381e-18
-1.17342e-18
0.00262876
-1.30616e-18
-1.2597e-18
0.00247169
-9.00175e-19
-9.87365e-19
0.00232286
-1.1472e-18
-1.17949e-18
0.00218208
-1.22621e-18
-1.02795e-18
0.00204909
-1.13287e-18
-1.16189e-18
0.0019236
-1.06544e-18
-1.0608e-18
0.00180528
-1.12678e-18
-1.06835e-18
0.00169379
-9.63229e-19
-8.87356e-19
0.0015888
-6.54951e-19
-8.88204e-19
0.00148998
-8.33864e-19
-6.34809e-19
0.001397
-4.85095e-19
-6.39419e-19
0.00130955
-5.99915e-19
-6.12242e-19
0.00122732
-4.10423e-19
-4.61645e-19
0.00115002
-4.01506e-19
-2.16966e-19
0.00107738
-1.69369e-19
-1.26004e-19
0.00100914
-1.18015e-19
-1.91612e-19
0.000945028
-1.51775e-19
-2.36775e-19
0.000884819
-2.31916e-19
-2.84463e-19
0.000828284
-2.10776e-19
-3.12712e-19
0.000775207
-7.90357e-20
-1.82221e-19
0.000725386
-1.52403e-19
-2.19566e-19
0.000678627
-1.37889e-19
-1.90624e-19
0.000634749
-1.3799e-19
-1.43904e-19
0.000593582
-1.09704e-19
1.79355e-21
0.000554962
-1.17512e-19
-7.86788e-20
0.000518737
-6.67708e-20
-4.18781e-20
0.000484763
-4.60657e-20
-2.41649e-20
0.000452905
-5.33966e-20
-4.07204e-20
0.000423033
-1.8111e-20
-4.20276e-20
0.000395028
-3.06964e-20
-6.26077e-20
0.000368776
-4.66075e-20
-6.90439e-20
0.00034417
-1.35996e-19
-7.67772e-20
0.000321108
-1.32201e-19
-7.84852e-20
0.000299496
-1.22081e-19
-1.03943e-19
0.000279245
-1.2729e-19
-1.09745e-19
0.00026027
-1.26172e-19
-1.07167e-19
0.000242492
-1.30036e-19
-1.06425e-19
0.000225836
-1.2483e-19
-6.54583e-20
0.000210233
-8.44767e-20
-7.18151e-20
0.000195616
-5.61589e-20
-6.2535e-20
0.000181924
-4.00629e-20
-5.03414e-20
0.000169097
-4.39916e-20
-3.50165e-20
0.000157081
-5.26285e-20
-3.46799e-20
0.000145824
-4.41992e-20
-3.10524e-20
0.000135277
-2.92448e-20
-4.59933e-20
0.000125395
7.03778e-21
-6.2305e-20
0.000116134
1.11808e-20
-3.97677e-20
0.000107453
1.09468e-20
-3.66737e-20
9.93139e-05
3.32345e-21
-4.70963e-20
9.16806e-05
9.17041e-21
-4.06534e-20
8.45186e-05
6.44861e-21
-3.45326e-20
7.77959e-05
9.6919e-21
-2.49942e-20
7.14817e-05
3.44462e-21
-1.52549e-20
6.55471e-05
-8.04514e-21
-1.22455e-20
5.99648e-05
-7.25387e-21
4.74495e-21
5.4709e-05
-1.82609e-20
-4.66767e-23
4.97556e-05
-5.44132e-21
-2.82766e-21
4.50821e-05
-1.6545e-22
-1.00562e-21
4.06683e-05
-7.79845e-21
2.16328e-21
3.64964e-05
-5.32275e-21
2.74829e-21
3.25522e-05
6.50409e-21
-6.49173e-21
2.88265e-05
7.44161e-21
-5.30504e-21
2.53161e-05
2.62529e-21
-2.79212e-21
2.20253e-05
3.36217e-21
-5.20227e-21
1.8965e-05
7.52377e-23
-1.90212e-21
1.61502e-05
-4.57672e-23
-3.40182e-21
1.35946e-05
-3.16659e-22
-8.6344e-22
1.13049e-05
-7.86355e-23
-1.28864e-21
9.27746e-06
7.58077e-22
-7.85946e-23
7.4994e-06
7.10676e-22
-2.28964e-22
5.95117e-06
3.90457e-22
6.7407e-25
4.61029e-06
2.17242e-22
2.15457e-22
3.45403e-06
2.26749e-22
9.55114e-23
2.46084e-06
-2.10922e-22
3.12297e-22
1.61109e-06
1.4213e-22
-2.86469e-23
8.87228e-07
-3.37471e-23
9.63588e-24
2.73629e-07
)
;

boundaryField
{
    walls
    {
        type            calculated;
        value           uniform 0;
    }
    inlet
    {
        type            cyclic;
        value           nonuniform List<scalar> 
320
(
-2.73628e-07
-8.87228e-07
-1.61109e-06
-2.46084e-06
-3.45403e-06
-4.61029e-06
-5.95117e-06
-7.4994e-06
-9.27746e-06
-1.13049e-05
-1.35946e-05
-1.61502e-05
-1.8965e-05
-2.20253e-05
-2.53162e-05
-2.88265e-05
-3.25522e-05
-3.64964e-05
-4.06683e-05
-4.50821e-05
-4.97556e-05
-5.4709e-05
-5.99648e-05
-6.55471e-05
-7.14817e-05
-7.77959e-05
-8.45187e-05
-9.16805e-05
-9.93139e-05
-0.000107453
-0.000116134
-0.000125395
-0.000135277
-0.000145824
-0.000157081
-0.000169097
-0.000181924
-0.000195616
-0.000210233
-0.000225836
-0.000242492
-0.00026027
-0.000279245
-0.000299496
-0.000321108
-0.00034417
-0.000368776
-0.000395028
-0.000423033
-0.000452905
-0.000484763
-0.000518737
-0.000554962
-0.000593582
-0.000634749
-0.000678627
-0.000725386
-0.000775207
-0.000828284
-0.000884819
-0.000945028
-0.00100914
-0.00107738
-0.00115002
-0.00122732
-0.00130955
-0.001397
-0.00148998
-0.0015888
-0.00169379
-0.00180528
-0.0019236
-0.00204909
-0.00218208
-0.00232286
-0.00247169
-0.00262876
-0.00279416
-0.00296779
-0.00314939
-2.73628e-07
-8.87228e-07
-1.61109e-06
-2.46084e-06
-3.45403e-06
-4.61029e-06
-5.95117e-06
-7.4994e-06
-9.27746e-06
-1.13049e-05
-1.35946e-05
-1.61502e-05
-1.8965e-05
-2.20253e-05
-2.53162e-05
-2.88265e-05
-3.25522e-05
-3.64964e-05
-4.06683e-05
-4.50821e-05
-4.97556e-05
-5.4709e-05
-5.99648e-05
-6.55471e-05
-7.14817e-05
-7.77959e-05
-8.45187e-05
-9.16805e-05
-9.93139e-05
-0.000107453
-0.000116134
-0.000125395
-0.000135277
-0.000145824
-0.000157081
-0.000169097
-0.000181924
-0.000195616
-0.000210233
-0.000225836
-0.000242492
-0.00026027
-0.000279245
-0.000299496
-0.000321108
-0.00034417
-0.000368776
-0.000395028
-0.000423033
-0.000452905
-0.000484763
-0.000518737
-0.000554962
-0.000593582
-0.000634749
-0.000678627
-0.000725386
-0.000775207
-0.000828284
-0.000884819
-0.000945028
-0.00100914
-0.00107738
-0.00115002
-0.00122732
-0.00130955
-0.001397
-0.00148998
-0.0015888
-0.00169379
-0.00180528
-0.0019236
-0.00204909
-0.00218208
-0.00232286
-0.00247169
-0.00262876
-0.00279416
-0.00296779
-0.00314939
-0.00314939
-0.00296779
-0.00279416
-0.00262876
-0.00247169
-0.00232286
-0.00218208
-0.00204909
-0.0019236
-0.00180528
-0.00169379
-0.0015888
-0.00148998
-0.001397
-0.00130955
-0.00122732
-0.00115002
-0.00107738
-0.00100914
-0.000945028
-0.000884819
-0.000828284
-0.000775207
-0.000725386
-0.000678627
-0.000634749
-0.000593582
-0.000554962
-0.000518737
-0.000484763
-0.000452905
-0.000423033
-0.000395028
-0.000368776
-0.00034417
-0.000321108
-0.000299496
-0.000279245
-0.00026027
-0.000242492
-0.000225836
-0.000210233
-0.000195616
-0.000181924
-0.000169097
-0.000157081
-0.000145824
-0.000135277
-0.000125395
-0.000116134
-0.000107453
-9.93139e-05
-9.16806e-05
-8.45186e-05
-7.77959e-05
-7.14817e-05
-6.55471e-05
-5.99648e-05
-5.4709e-05
-4.97556e-05
-4.50821e-05
-4.06683e-05
-3.64964e-05
-3.25522e-05
-2.88265e-05
-2.53161e-05
-2.20253e-05
-1.8965e-05
-1.61502e-05
-1.35946e-05
-1.13049e-05
-9.27746e-06
-7.4994e-06
-5.95117e-06
-4.61029e-06
-3.45403e-06
-2.46084e-06
-1.61109e-06
-8.87228e-07
-2.73629e-07
-0.00314939
-0.00296779
-0.00279416
-0.00262876
-0.00247169
-0.00232286
-0.00218208
-0.00204909
-0.0019236
-0.00180528
-0.00169379
-0.0015888
-0.00148998
-0.001397
-0.00130955
-0.00122732
-0.00115002
-0.00107738
-0.00100914
-0.000945028
-0.000884819
-0.000828284
-0.000775207
-0.000725386
-0.000678627
-0.000634749
-0.000593582
-0.000554962
-0.000518737
-0.000484763
-0.000452905
-0.000423033
-0.000395028
-0.000368776
-0.00034417
-0.000321108
-0.000299496
-0.000279245
-0.00026027
-0.000242492
-0.000225836
-0.000210233
-0.000195616
-0.000181924
-0.000169097
-0.000157081
-0.000145824
-0.000135277
-0.000125395
-0.000116134
-0.000107453
-9.93139e-05
-9.16806e-05
-8.45186e-05
-7.77959e-05
-7.14817e-05
-6.55471e-05
-5.99648e-05
-5.4709e-05
-4.97556e-05
-4.50821e-05
-4.06683e-05
-3.64964e-05
-3.25522e-05
-2.88265e-05
-2.53161e-05
-2.20253e-05
-1.8965e-05
-1.61502e-05
-1.35946e-05
-1.13049e-05
-9.27746e-06
-7.4994e-06
-5.95117e-06
-4.61029e-06
-3.45403e-06
-2.46084e-06
-1.61109e-06
-8.87228e-07
-2.73629e-07
)
;
    }
    outlet
    {
        type            cyclic;
        value           nonuniform List<scalar> 
320
(
2.73628e-07
8.87228e-07
1.61109e-06
2.46084e-06
3.45403e-06
4.61029e-06
5.95117e-06
7.4994e-06
9.27746e-06
1.13049e-05
1.35946e-05
1.61502e-05
1.8965e-05
2.20253e-05
2.53162e-05
2.88265e-05
3.25522e-05
3.64964e-05
4.06683e-05
4.50821e-05
4.97556e-05
5.4709e-05
5.99648e-05
6.55471e-05
7.14817e-05
7.77959e-05
8.45187e-05
9.16805e-05
9.93139e-05
0.000107453
0.000116134
0.000125395
0.000135277
0.000145824
0.000157081
0.000169097
0.000181924
0.000195616
0.000210233
0.000225836
0.000242492
0.00026027
0.000279245
0.000299496
0.000321108
0.00034417
0.000368776
0.000395028
0.000423033
0.000452905
0.000484763
0.000518737
0.000554962
0.000593582
0.000634749
0.000678627
0.000725386
0.000775207
0.000828284
0.000884819
0.000945028
0.00100914
0.00107738
0.00115002
0.00122732
0.00130955
0.001397
0.00148998
0.0015888
0.00169379
0.00180528
0.0019236
0.00204909
0.00218208
0.00232286
0.00247169
0.00262876
0.00279416
0.00296779
0.00314939
2.73628e-07
8.87228e-07
1.61109e-06
2.46084e-06
3.45403e-06
4.61029e-06
5.95117e-06
7.4994e-06
9.27746e-06
1.13049e-05
1.35946e-05
1.61502e-05
1.8965e-05
2.20253e-05
2.53162e-05
2.88265e-05
3.25522e-05
3.64964e-05
4.06683e-05
4.50821e-05
4.97556e-05
5.4709e-05
5.99648e-05
6.55471e-05
7.14817e-05
7.77959e-05
8.45187e-05
9.16805e-05
9.93139e-05
0.000107453
0.000116134
0.000125395
0.000135277
0.000145824
0.000157081
0.000169097
0.000181924
0.000195616
0.000210233
0.000225836
0.000242492
0.00026027
0.000279245
0.000299496
0.000321108
0.00034417
0.000368776
0.000395028
0.000423033
0.000452905
0.000484763
0.000518737
0.000554962
0.000593582
0.000634749
0.000678627
0.000725386
0.000775207
0.000828284
0.000884819
0.000945028
0.00100914
0.00107738
0.00115002
0.00122732
0.00130955
0.001397
0.00148998
0.0015888
0.00169379
0.00180528
0.0019236
0.00204909
0.00218208
0.00232286
0.00247169
0.00262876
0.00279416
0.00296779
0.00314939
0.00314939
0.00296779
0.00279416
0.00262876
0.00247169
0.00232286
0.00218208
0.00204909
0.0019236
0.00180528
0.00169379
0.0015888
0.00148998
0.001397
0.00130955
0.00122732
0.00115002
0.00107738
0.00100914
0.000945028
0.000884819
0.000828284
0.000775207
0.000725386
0.000678627
0.000634749
0.000593582
0.000554962
0.000518737
0.000484763
0.000452905
0.000423033
0.000395028
0.000368776
0.00034417
0.000321108
0.000299496
0.000279245
0.00026027
0.000242492
0.000225836
0.000210233
0.000195616
0.000181924
0.000169097
0.000157081
0.000145824
0.000135277
0.000125395
0.000116134
0.000107453
9.93139e-05
9.16806e-05
8.45186e-05
7.77959e-05
7.14817e-05
6.55471e-05
5.99648e-05
5.4709e-05
4.97556e-05
4.50821e-05
4.06683e-05
3.64964e-05
3.25522e-05
2.88265e-05
2.53161e-05
2.20253e-05
1.8965e-05
1.61502e-05
1.35946e-05
1.13049e-05
9.27746e-06
7.4994e-06
5.95117e-06
4.61029e-06
3.45403e-06
2.46084e-06
1.61109e-06
8.87228e-07
2.73629e-07
0.00314939
0.00296779
0.00279416
0.00262876
0.00247169
0.00232286
0.00218208
0.00204909
0.0019236
0.00180528
0.00169379
0.0015888
0.00148998
0.001397
0.00130955
0.00122732
0.00115002
0.00107738
0.00100914
0.000945028
0.000884819
0.000828284
0.000775207
0.000725386
0.000678627
0.000634749
0.000593582
0.000554962
0.000518737
0.000484763
0.000452905
0.000423033
0.000395028
0.000368776
0.00034417
0.000321108
0.000299496
0.000279245
0.00026027
0.000242492
0.000225836
0.000210233
0.000195616
0.000181924
0.000169097
0.000157081
0.000145824
0.000135277
0.000125395
0.000116134
0.000107453
9.93139e-05
9.16806e-05
8.45186e-05
7.77959e-05
7.14817e-05
6.55471e-05
5.99648e-05
5.4709e-05
4.97556e-05
4.50821e-05
4.06683e-05
3.64964e-05
3.25522e-05
2.88265e-05
2.53161e-05
2.20253e-05
1.8965e-05
1.61502e-05
1.35946e-05
1.13049e-05
9.27746e-06
7.4994e-06
5.95117e-06
4.61029e-06
3.45403e-06
2.46084e-06
1.61109e-06
8.87228e-07
2.73629e-07
)
;
    }
    sides
    {
        type            empty;
        value           nonuniform List<scalar> 0();
    }
}


// ************************************************************************* //
