/*--------------------------------*- C++ -*----------------------------------*\
| =========                 |                                                 |
| \\      /  F ield         | OpenFOAM: The Open Source CFD Toolbox           |
|  \\    /   O peration     | Version:  2012                                  |
|   \\  /    A nd           | Website:  www.openfoam.com                      |
|    \\/     M anipulation  |                                                 |
\*---------------------------------------------------------------------------*/
FoamFile
{
    version     2.0;
    format      ascii;
    class       volVectorField;
    location    "4000";
    object      U;
}
// * * * * * * * * * * * * * * * * * * * * * * * * * * * * * * * * * * * * * //

dimensions      [0 1 -1 0 0 0 0];


internalField   nonuniform List<vector> 
1280
(
(0.00469081 -5.59968e-16 -2.4845e-17)
(0.00469081 6.86562e-20 -2.53485e-21)
(0.0142075 -2.5747e-15 -9.40856e-17)
(0.0142075 -1.74928e-18 -1.02879e-20)
(0.0240009 -2.39486e-15 -1.02292e-16)
(0.0240009 -3.09288e-18 -2.104e-20)
(0.0340791 -2.24224e-15 -1.10546e-16)
(0.0340791 -4.82073e-18 -3.15004e-20)
(0.0444504 -2.23407e-15 -1.19657e-16)
(0.0444504 -6.65724e-18 -4.19919e-20)
(0.0551231 -2.24384e-15 -1.2952e-16)
(0.0551231 -8.62918e-18 -5.33304e-20)
(0.0661059 -2.24502e-15 -1.40048e-16)
(0.0661059 -1.06273e-17 -6.31148e-20)
(0.0774074 -2.24155e-15 -1.51251e-16)
(0.0774074 -1.28439e-17 -7.37988e-20)
(0.0890363 -2.23747e-15 -1.63166e-16)
(0.0890363 -1.5233e-17 -8.17335e-20)
(0.101001 -2.23355e-15 -1.75828e-16)
(0.101001 -1.76275e-17 -8.64781e-20)
(0.113309 -2.22937e-15 -1.89264e-16)
(0.113309 -2.02922e-17 -9.68754e-20)
(0.125967 -2.22515e-15 -2.03492e-16)
(0.125967 -2.30781e-17 -9.99172e-20)
(0.13898 -2.22079e-15 -2.18517e-16)
(0.13898 -2.60329e-17 -1.01348e-19)
(0.152351 -2.21597e-15 -2.34321e-16)
(0.152351 -2.9177e-17 -1.0426e-19)
(0.166078 -2.21098e-15 -2.50858e-16)
(0.166078 -3.23034e-17 -9.81852e-20)
(0.180155 -2.20591e-15 -2.68048e-16)
(0.180155 -3.56502e-17 -9.24964e-20)
(0.19457 -2.20045e-15 -2.85765e-16)
(0.19457 -3.90964e-17 -6.41678e-20)
(0.209304 -2.19433e-15 -3.03829e-16)
(0.209304 -4.27461e-17 -2.77923e-20)
(0.224326 -2.18812e-15 -3.22018e-16)
(0.224326 -4.6722e-17 -2.00274e-20)
(0.239597 -2.18168e-15 -3.40066e-16)
(0.239597 -5.09043e-17 -2.86858e-20)
(0.255069 -2.17463e-15 -3.57674e-16)
(0.255069 -5.54811e-17 2.15663e-20)
(0.270683 -2.16717e-15 -3.74535e-16)
(0.270683 -5.97944e-17 7.12406e-20)
(0.286373 -2.1591e-15 -3.90362e-16)
(0.286373 -6.42678e-17 1.0199e-19)
(0.302068 -2.15131e-15 -4.04914e-16)
(0.302068 -6.9251e-17 1.14264e-19)
(0.317695 -2.14432e-15 -4.1804e-16)
(0.317695 -7.32753e-17 1.63118e-19)
(0.333185 -2.13706e-15 -4.29661e-16)
(0.333185 -7.80656e-17 2.40937e-19)
(0.348473 -2.12883e-15 -4.39779e-16)
(0.348473 -8.38552e-17 2.91851e-19)
(0.363503 -2.1201e-15 -4.48483e-16)
(0.363503 -8.94649e-17 2.80275e-19)
(0.378228 -2.11132e-15 -4.55904e-16)
(0.378228 -9.47684e-17 3.50599e-19)
(0.392612 -2.1032e-15 -4.62241e-16)
(0.392612 -9.93546e-17 3.95798e-19)
(0.406629 -2.09494e-15 -4.67697e-16)
(0.406629 -1.04222e-16 3.87558e-19)
(0.420263 -2.08611e-15 -4.72467e-16)
(0.420263 -1.10045e-16 4.5284e-19)
(0.433505 -2.07702e-15 -4.7676e-16)
(0.433505 -1.14884e-16 5.19187e-19)
(0.446354 -2.06781e-15 -4.80757e-16)
(0.446354 -1.19804e-16 5.98555e-19)
(0.458813 -2.05945e-15 -4.84611e-16)
(0.458813 -1.25632e-16 6.37283e-19)
(0.470891 -2.05185e-15 -4.88445e-16)
(0.470891 -1.31423e-16 5.56457e-19)
(0.482598 -2.04425e-15 -4.92393e-16)
(0.482598 -1.36705e-16 5.41031e-19)
(0.493949 -2.036e-15 -4.96545e-16)
(0.493949 -1.4168e-16 6.27961e-19)
(0.504957 -2.027e-15 -5.00979e-16)
(0.504957 -1.48171e-16 8.25287e-19)
(0.515637 -2.01891e-15 -5.05758e-16)
(0.515637 -1.52444e-16 1.04552e-18)
(0.526006 -2.01128e-15 -5.10909e-16)
(0.526006 -1.54855e-16 1.04881e-18)
(0.536079 -2.00485e-15 -5.16503e-16)
(0.536079 -1.57997e-16 1.12834e-18)
(0.54587 -1.99732e-15 -5.22541e-16)
(0.54587 -1.62767e-16 1.34279e-18)
(0.555396 -1.98888e-15 -5.29071e-16)
(0.555396 -1.67185e-16 1.79745e-18)
(0.56467 -1.98124e-15 -5.36119e-16)
(0.56467 -1.72501e-16 1.82969e-18)
(0.573706 -1.9736e-15 -5.43681e-16)
(0.573706 -1.78094e-16 1.58471e-18)
(0.582517 -1.96532e-15 -5.51805e-16)
(0.582517 -1.84637e-16 1.66834e-18)
(0.591115 -1.95689e-15 -5.58877e-16)
(0.591115 -1.92388e-16 2.08884e-18)
(0.599511 -1.94853e-15 -5.65683e-16)
(0.599511 -1.98091e-16 2.61321e-18)
(0.607718 -1.93902e-15 -5.73648e-16)
(0.607718 -2.04158e-16 2.94628e-18)
(0.615744 -1.92772e-15 -5.82037e-16)
(0.615744 -2.09e-16 2.9265e-18)
(0.623599 -1.92098e-15 -5.90258e-16)
(0.623599 -2.14838e-16 3.44344e-18)
(0.631294 -1.91635e-15 -5.99769e-16)
(0.631294 -2.18346e-16 3.93665e-18)
(0.638835 -1.91067e-15 -6.09723e-16)
(0.638835 -2.21243e-16 4.04557e-18)
(0.646232 -1.90426e-15 -6.20326e-16)
(0.646232 -2.28061e-16 4.69355e-18)
(0.653491 -1.89689e-15 -6.31845e-16)
(0.653491 -2.34416e-16 5.62621e-18)
(0.66062 -1.88964e-15 -6.43926e-16)
(0.66062 -2.40838e-16 6.10752e-18)
(0.667625 -1.8816e-15 -6.55755e-16)
(0.667625 -2.45888e-16 6.6369e-18)
(0.674513 -1.87057e-15 -6.69174e-16)
(0.674513 -2.53052e-16 7.1749e-18)
(0.681289 -1.85719e-15 -6.83021e-16)
(0.681289 -2.62341e-16 7.30638e-18)
(0.687958 -1.84484e-15 -6.97573e-16)
(0.687958 -2.71348e-16 7.94176e-18)
(0.694527 -1.83709e-15 -7.13117e-16)
(0.694527 -2.80648e-16 9.07943e-18)
(0.700999 -1.83183e-15 -7.29177e-16)
(0.700999 -2.86205e-16 9.67169e-18)
(0.707379 -1.82488e-15 -7.45971e-16)
(0.707379 -2.92596e-16 9.78817e-18)
(0.713672 -1.81761e-15 -7.6402e-16)
(0.713672 -3.03383e-16 1.04788e-17)
(0.719881 -1.80765e-15 -7.82689e-16)
(0.719881 -3.13892e-16 1.0682e-17)
(0.726011 -1.79416e-15 -7.9133e-16)
(0.726011 -3.26293e-16 1.12039e-17)
(0.732065 -1.78221e-15 -7.91188e-16)
(0.732065 -3.40471e-16 1.19382e-17)
(0.738046 -1.76978e-15 -7.90251e-16)
(0.738046 -3.51179e-16 1.22786e-17)
(0.743957 -1.7571e-15 -7.88674e-16)
(0.743957 -3.66048e-16 1.28297e-17)
(0.749802 -1.74427e-15 -7.86779e-16)
(0.749802 -3.83711e-16 1.29555e-17)
(0.755584 -1.7313e-15 -7.84326e-16)
(0.755584 -4.00611e-16 1.29589e-17)
(0.761304 -1.71738e-15 -7.81164e-16)
(0.761304 -4.19432e-16 1.36812e-17)
(0.766966 -1.70146e-15 -7.77284e-16)
(0.766966 -4.37365e-16 1.43081e-17)
(0.772572 -1.68276e-15 -7.72995e-16)
(0.772572 -4.53508e-16 1.42989e-17)
(0.778125 -1.67049e-15 -7.6764e-16)
(0.778125 -4.63322e-16 1.3593e-17)
(0.783626 -1.66458e-15 -7.61546e-16)
(0.783626 -4.71481e-16 1.49268e-17)
(0.789077 -1.65228e-15 -7.52827e-16)
(0.789077 -4.81783e-16 1.53722e-17)
(0.794481 -1.638e-15 -7.44775e-16)
(0.794481 -4.75957e-16 1.65977e-17)
(0.799839 -1.62951e-15 -7.33064e-16)
(0.799839 -5.00001e-16 1.92174e-17)
(0.805153 -1.61808e-15 -7.18948e-16)
(0.805153 -5.09915e-16 2.03272e-17)
(0.810425 -1.59978e-15 -7.04667e-16)
(0.810425 -5.19801e-16 2.12333e-17)
(0.815656 -1.57924e-15 -6.88069e-16)
(0.815656 -5.30587e-16 1.87585e-17)
(0.820848 -1.5512e-15 -6.7242e-16)
(0.820848 -5.40345e-16 1.37239e-17)
(0.826002 -1.52193e-15 -6.54544e-16)
(0.826002 -5.81345e-16 2.94908e-18)
(0.831119 -1.49414e-15 -6.39174e-16)
(0.831119 -6.02353e-16 -7.50058e-18)
(0.836201 -1.45905e-15 -6.22809e-16)
(0.836201 -6.19072e-16 -2.88699e-17)
(0.841249 -1.42844e-15 -6.07612e-16)
(0.841249 -6.39933e-16 -5.4903e-17)
(0.846264 -1.39872e-15 -5.93265e-16)
(0.846264 -6.61361e-16 -8.05632e-17)
(0.851247 -1.36751e-15 -5.81387e-16)
(0.851247 -6.71696e-16 -1.00753e-16)
(0.856199 -1.3411e-15 -5.68933e-16)
(0.856199 -6.81121e-16 -1.23213e-16)
(0.861121 -1.30584e-15 -5.60638e-16)
(0.861121 -6.88622e-16 -1.52544e-16)
(0.866013 -1.27165e-15 -5.63029e-16)
(0.866013 -7.16134e-16 -1.79624e-16)
(0.870878 -1.25568e-15 -5.63904e-16)
(0.870878 -7.38449e-16 -2.07525e-16)
(0.875714 -1.23061e-15 -5.52925e-16)
(0.875714 -7.45541e-16 -2.38617e-16)
(0.880524 -1.20663e-15 -5.48164e-16)
(0.880524 -7.61373e-16 -2.65127e-16)
(0.885308 -1.18494e-15 -5.41719e-16)
(0.885308 -7.8086e-16 -2.91155e-16)
(0.890066 -1.15807e-15 -5.44649e-16)
(0.890066 -7.95484e-16 -3.13939e-16)
(0.894799 -1.13722e-15 -5.4914e-16)
(0.894799 -7.946e-16 -3.23219e-16)
(0.899507 -1.12407e-15 -5.50625e-16)
(0.899507 -8.20382e-16 -3.42921e-16)
(0.904192 -1.10656e-15 -5.55528e-16)
(0.904192 -8.49531e-16 -3.74848e-16)
(0.908853 -1.08961e-15 -5.58737e-16)
(0.908853 -8.53848e-16 -3.94287e-16)
(0.913491 -1.08145e-15 -5.52263e-16)
(0.913491 -8.34037e-16 -4.19004e-16)
(0.918106 -1.07208e-15 -5.4611e-16)
(0.918106 -8.08772e-16 -4.51504e-16)
(0.922698 -1.05646e-15 -5.47826e-16)
(0.922698 -8.14331e-16 -4.77658e-16)
(0.927268 -1.03338e-15 -5.54235e-16)
(0.927268 -8.19864e-16 -4.65348e-16)
(0.931816 -1.02871e-15 -5.50535e-16)
(0.931816 -7.89657e-16 -4.62935e-16)
(0.936342 -1.02789e-15 -5.43662e-16)
(0.936342 -7.70924e-16 -4.70944e-16)
(0.940846 -1.02144e-15 -5.31971e-16)
(0.940846 -7.81548e-16 -4.64984e-16)
(0.945328 -1.02055e-15 -5.19482e-16)
(0.945328 -7.54161e-16 -4.53811e-16)
(0.949789 -1.01859e-15 -4.94663e-16)
(0.949789 -7.44787e-16 -4.47184e-16)
(0.954228 -9.89618e-16 -4.741e-16)
(0.954228 -7.7126e-16 -4.26093e-16)
(0.958645 -9.56149e-16 -4.7672e-16)
(0.958645 -7.7845e-16 -4.29017e-16)
(0.96304 -9.33693e-16 -4.66648e-16)
(0.96304 -7.86846e-16 -4.39221e-16)
(0.967413 -8.99067e-16 -4.52946e-16)
(0.967413 -7.99407e-16 -4.39976e-16)
(0.971764 -8.69798e-16 -4.40406e-16)
(0.971764 -8.01262e-16 -4.37907e-16)
(0.976092 -8.46806e-16 -4.49787e-16)
(0.976092 -7.89083e-16 -4.36982e-16)
(0.980397 -8.3223e-16 -4.42466e-16)
(0.980397 -7.78295e-16 -4.27695e-16)
(0.984678 -8.14395e-16 -4.31376e-16)
(0.984678 -7.7173e-16 -4.25927e-16)
(0.988936 -7.84847e-16 -4.23338e-16)
(0.988936 -7.67597e-16 -4.19848e-16)
(0.993169 -7.50237e-16 -4.18313e-16)
(0.993169 -7.59112e-16 -4.29561e-16)
(0.997377 -7.28143e-16 -4.2078e-16)
(0.997377 -7.25561e-16 -4.3228e-16)
(1.00156 -7.10256e-16 -4.22369e-16)
(1.00156 -7.1231e-16 -4.34868e-16)
(1.00572 -7.06328e-16 -4.30912e-16)
(1.00572 -7.07397e-16 -4.47798e-16)
(1.00985 -7.07712e-16 -4.07784e-16)
(1.00985 -7.2368e-16 -4.19484e-16)
(1.01395 -7.4851e-16 -3.76838e-16)
(1.01395 -7.50081e-16 -3.90082e-16)
(1.01802 -7.50448e-16 -3.64577e-16)
(1.01802 -7.40402e-16 -4.02971e-16)
(1.02206 -7.4369e-16 -3.56755e-16)
(1.02206 -7.08768e-16 -3.95537e-16)
(1.02607 -7.65781e-16 -3.45818e-16)
(1.02607 -7.00004e-16 -4.12845e-16)
(1.03004 -7.77085e-16 -2.82567e-16)
(1.03004 -7.362e-16 -4.07261e-16)
(1.03399 -7.04976e-16 -3.18571e-16)
(1.03399 -7.34596e-16 -3.88277e-16)
(1.03789 -6.85902e-16 -3.2443e-16)
(1.03789 -7.1591e-16 -3.99633e-16)
(1.04176 -7.26005e-16 -2.98427e-16)
(1.04176 -7.13519e-16 -3.85364e-16)
(1.04559 -6.95918e-16 -3.35048e-16)
(1.04559 -7.14364e-16 -4.1072e-16)
(1.04938 -7.07444e-16 -3.70883e-16)
(1.04938 -7.19746e-16 -3.52752e-16)
(1.05312 -7.11549e-16 -4.24102e-16)
(1.05312 -6.91351e-16 -2.95011e-16)
(1.05681 -6.43187e-16 -3.57123e-16)
(1.05681 -6.87319e-16 -3.39886e-16)
(1.06046 -7.05003e-16 -3.84802e-16)
(1.06046 -7.19226e-16 -2.99199e-16)
(1.06405 -7.03773e-16 -4.06418e-16)
(1.06405 -6.87497e-16 -2.3299e-16)
(1.06758 -6.7303e-16 -3.4559e-16)
(1.06758 -6.71942e-16 -2.55756e-16)
(1.07106 -6.91382e-16 -1.75542e-16)
(1.07106 -6.32217e-16 -2.18777e-16)
(1.07447 -6.42292e-16 -1.35337e-16)
(1.07447 -6.28935e-16 -2.26151e-16)
(1.07781 -5.81559e-16 -1.98921e-16)
(1.07781 -6.50063e-16 -1.41442e-16)
(1.08107 -5.43559e-16 -2.58645e-16)
(1.08107 -6.02542e-16 -1.04897e-16)
(1.08426 -4.76767e-16 -1.90455e-16)
(1.08426 -5.06896e-16 -9.58375e-17)
(1.08736 -5.21744e-16 -9.09816e-17)
(1.08736 -5.14114e-16 -1.1139e-16)
(1.09036 -4.96316e-16 -1.06817e-16)
(1.09036 -5.09543e-16 -9.14194e-17)
(1.09326 -4.81465e-16 -9.10221e-17)
(1.09326 -4.88108e-16 -1.58866e-16)
(1.09605 -4.61358e-16 -1.06294e-16)
(1.09605 -4.43239e-16 -9.19718e-17)
(1.09871 -4.22927e-16 -4.48946e-17)
(1.09871 -4.07475e-16 -2.55318e-17)
(1.10124 -3.83969e-16 -8.20883e-17)
(1.10124 -3.91101e-16 -6.83951e-17)
(1.10361 -3.99161e-16 -5.44464e-17)
(1.10361 -3.91601e-16 -2.1964e-17)
(1.10582 -3.74196e-16 -8.0307e-17)
(1.10582 -3.34153e-16 -1.82197e-17)
(1.10785 -3.19629e-16 -1.28649e-16)
(1.10785 -2.92301e-16 -1.71306e-16)
(1.10967 -2.92504e-16 -9.39746e-17)
(1.10967 -2.97761e-16 -8.92325e-17)
(1.11126 -2.42319e-16 -1.2569e-16)
(1.11126 -2.56474e-16 -1.47991e-16)
(1.1126 -2.04535e-16 -1.8706e-16)
(1.1126 -2.61107e-16 -1.39926e-16)
(1.11365 -1.85253e-16 -2.8884e-16)
(1.11365 -1.90713e-16 -1.93091e-16)
(1.11438 -2.00082e-16 -2.36153e-16)
(1.11438 -1.55315e-16 -2.45698e-16)
(1.11477 -2.17474e-16 -1.68603e-16)
(1.11477 -1.79148e-16 -3.80355e-16)
(0.00469081 6.55151e-20 6.14132e-18)
(0.00469081 5.3805e-20 1.14132e-17)
(0.0142075 -7.9579e-19 2.38401e-17)
(0.0142075 -2.21979e-19 1.46194e-17)
(0.0240009 -1.3723e-18 2.45592e-17)
(0.0240009 -3.8606e-19 1.55061e-17)
(0.0340791 -2.12617e-18 2.67227e-17)
(0.0340791 -6.12436e-19 1.64632e-17)
(0.0444504 -2.89536e-18 2.8276e-17)
(0.0444504 -8.50266e-19 1.74956e-17)
(0.0551231 -3.72142e-18 2.99076e-17)
(0.0551231 -1.16604e-18 1.8611e-17)
(0.0661059 -4.63858e-18 3.16224e-17)
(0.0661059 -1.45275e-18 1.981e-17)
(0.0774074 -5.62777e-18 3.34242e-17)
(0.0774074 -1.69584e-18 2.10979e-17)
(0.0890363 -6.61561e-18 3.5311e-17)
(0.0890363 -2.12469e-18 2.24898e-17)
(0.101001 -7.58554e-18 3.72901e-17)
(0.101001 -2.56293e-18 2.39895e-17)
(0.113309 -8.70414e-18 3.93623e-17)
(0.113309 -2.99844e-18 2.55874e-17)
(0.125967 -9.89924e-18 4.15161e-17)
(0.125967 -3.52799e-18 2.7308e-17)
(0.13898 -1.10382e-17 4.37499e-17)
(0.13898 -4.06653e-18 2.91398e-17)
(0.152351 -1.22723e-17 4.60525e-17)
(0.152351 -4.63329e-18 3.10826e-17)
(0.166078 -1.36165e-17 4.84065e-17)
(0.166078 -5.28503e-18 3.3141e-17)
(0.180155 -1.49114e-17 5.07898e-17)
(0.180155 -5.68902e-18 3.53079e-17)
(0.19457 -1.6021e-17 5.31711e-17)
(0.19457 -6.13269e-18 3.75739e-17)
(0.209304 -1.73077e-17 5.55247e-17)
(0.209304 -6.92562e-18 3.98818e-17)
(0.224326 -1.89634e-17 5.77991e-17)
(0.224326 -7.64191e-18 4.22193e-17)
(0.239597 -2.06673e-17 5.99371e-17)
(0.239597 -8.13302e-18 4.45746e-17)
(0.255069 -2.21538e-17 6.19011e-17)
(0.255069 -8.84575e-18 4.68783e-17)
(0.270683 -2.36368e-17 6.36271e-17)
(0.270683 -9.9305e-18 4.91272e-17)
(0.286373 -2.53715e-17 6.50935e-17)
(0.286373 -1.08289e-17 5.12549e-17)
(0.302068 -2.7244e-17 6.62704e-17)
(0.302068 -1.1851e-17 5.32141e-17)
(0.317695 -2.96069e-17 6.71043e-17)
(0.317695 -1.28939e-17 5.50192e-17)
(0.333185 -3.20435e-17 6.75968e-17)
(0.333185 -1.39958e-17 5.66114e-17)
(0.348473 -3.44313e-17 6.77395e-17)
(0.348473 -1.5646e-17 5.80687e-17)
(0.363503 -3.64621e-17 6.75364e-17)
(0.363503 -1.66994e-17 5.93726e-17)
(0.378228 -3.81971e-17 6.70489e-17)
(0.378228 -1.72636e-17 6.05259e-17)
(0.392612 -4.02416e-17 6.62727e-17)
(0.392612 -1.83159e-17 6.15655e-17)
(0.406629 -4.15142e-17 6.52161e-17)
(0.406629 -1.91668e-17 6.26162e-17)
(0.420263 -4.27025e-17 6.40065e-17)
(0.420263 -2.04622e-17 6.36189e-17)
(0.433505 -4.49322e-17 6.26631e-17)
(0.433505 -2.10226e-17 6.45022e-17)
(0.446354 -4.77497e-17 6.11178e-17)
(0.446354 -2.14447e-17 6.53802e-17)
(0.458813 -4.97476e-17 5.94685e-17)
(0.458813 -2.28071e-17 6.61738e-17)
(0.470891 -5.07086e-17 5.77473e-17)
(0.470891 -2.47931e-17 6.70749e-17)
(0.482598 -5.17538e-17 5.72624e-17)
(0.482598 -2.65896e-17 6.80618e-17)
(0.493949 -5.35754e-17 5.81704e-17)
(0.493949 -2.85988e-17 6.90252e-17)
(0.504957 -5.52145e-17 5.91136e-17)
(0.504957 -3.10687e-17 6.99516e-17)
(0.515637 -5.60861e-17 6.00181e-17)
(0.515637 -3.28482e-17 7.07932e-17)
(0.526006 -5.79158e-17 6.11066e-17)
(0.526006 -3.3016e-17 7.15828e-17)
(0.536079 -5.81512e-17 6.21455e-17)
(0.536079 -3.21276e-17 7.25925e-17)
(0.54587 -5.7465e-17 6.32179e-17)
(0.54587 -3.16992e-17 7.36314e-17)
(0.555396 -5.89918e-17 6.40946e-17)
(0.555396 -3.23376e-17 7.48874e-17)
(0.56467 -6.04154e-17 6.50822e-17)
(0.56467 -3.38753e-17 7.59723e-17)
(0.573706 -6.19352e-17 6.62913e-17)
(0.573706 -3.42663e-17 7.71305e-17)
(0.582517 -6.32751e-17 6.75024e-17)
(0.582517 -3.54547e-17 7.83844e-17)
(0.591115 -6.46793e-17 6.85127e-17)
(0.591115 -3.65026e-17 8.00632e-17)
(0.599511 -6.46824e-17 6.95295e-17)
(0.599511 -4.02999e-17 8.17971e-17)
(0.607718 -6.19184e-17 7.09906e-17)
(0.607718 -4.44688e-17 8.30981e-17)
(0.615744 -5.99933e-17 7.30122e-17)
(0.615744 -4.25026e-17 8.39966e-17)
(0.623599 -5.98997e-17 7.55866e-17)
(0.623599 -4.37612e-17 8.52348e-17)
(0.631294 -6.01411e-17 7.71982e-17)
(0.631294 -4.33702e-17 8.6727e-17)
(0.638835 -5.8245e-17 7.94363e-17)
(0.638835 -4.14571e-17 8.80785e-17)
(0.646232 -5.67579e-17 8.24607e-17)
(0.646232 -4.46496e-17 8.91324e-17)
(0.653491 -5.85777e-17 8.53022e-17)
(0.653491 -4.53976e-17 8.9751e-17)
(0.66062 -5.94723e-17 8.82097e-17)
(0.66062 -4.20494e-17 9.00339e-17)
(0.667625 -6.21491e-17 9.15347e-17)
(0.667625 -3.77297e-17 9.0416e-17)
(0.674513 -6.4982e-17 9.41801e-17)
(0.674513 -3.57556e-17 9.04962e-17)
(0.681289 -6.47104e-17 9.71562e-17)
(0.681289 -3.52417e-17 9.04586e-17)
(0.687958 -6.84959e-17 1.00865e-16)
(0.687958 -3.50262e-17 9.04774e-17)
(0.694527 -7.22849e-17 1.03863e-16)
(0.694527 -3.54155e-17 8.95393e-17)
(0.700999 -7.23029e-17 1.07506e-16)
(0.700999 -3.47065e-17 8.82096e-17)
(0.707379 -7.56726e-17 1.11092e-16)
(0.707379 -3.10928e-17 8.7045e-17)
(0.713672 -7.86579e-17 1.14249e-16)
(0.713672 -3.10435e-17 8.63353e-17)
(0.719881 -8.1081e-17 1.17274e-16)
(0.719881 -3.15495e-17 8.53472e-17)
(0.726011 -8.41235e-17 1.20988e-16)
(0.726011 -3.12897e-17 8.34678e-17)
(0.732065 -8.67434e-17 1.24575e-16)
(0.732065 -2.9196e-17 8.13362e-17)
(0.738046 -8.66367e-17 1.28698e-16)
(0.738046 -2.89566e-17 7.89048e-17)
(0.743957 -8.47741e-17 1.32078e-16)
(0.743957 -2.87386e-17 7.69003e-17)
(0.749802 -8.62476e-17 1.37174e-16)
(0.749802 -2.50458e-17 7.48259e-17)
(0.755584 -8.94558e-17 1.41784e-16)
(0.755584 -2.01404e-17 7.47707e-17)
(0.761304 -9.43617e-17 1.44193e-16)
(0.761304 -1.47763e-17 7.52376e-17)
(0.766966 -9.53077e-17 1.45933e-16)
(0.766966 -1.37569e-17 7.52764e-17)
(0.772572 -9.4082e-17 1.49046e-16)
(0.772572 -9.30524e-18 7.42554e-17)
(0.778125 -9.49284e-17 1.51891e-16)
(0.778125 -1.29467e-17 7.29971e-17)
(0.783626 -9.57443e-17 1.54493e-16)
(0.783626 -2.03294e-17 7.05083e-17)
(0.789077 -9.66198e-17 1.58575e-16)
(0.789077 -2.08244e-17 6.6536e-17)
(0.794481 -1.01015e-16 1.65344e-16)
(0.794481 -2.23326e-17 6.1627e-17)
(0.799839 -1.03645e-16 1.70432e-16)
(0.799839 -2.01653e-17 5.5771e-17)
(0.805153 -1.06477e-16 1.74459e-16)
(0.805153 -1.47308e-17 5.0149e-17)
(0.810425 -1.08614e-16 1.77343e-16)
(0.810425 -1.15495e-17 4.47098e-17)
(0.815656 -1.04832e-16 1.82873e-16)
(0.815656 -1.59194e-17 2.85708e-17)
(0.820848 -1.0374e-16 1.86277e-16)
(0.820848 -2.34301e-17 1.52482e-17)
(0.826002 -9.99148e-17 1.86863e-16)
(0.826002 -2.704e-17 1.35393e-17)
(0.831119 -9.28401e-17 1.92398e-16)
(0.831119 -2.64389e-17 2.06883e-17)
(0.836201 -8.86523e-17 2.00295e-16)
(0.836201 -2.7841e-17 3.44887e-17)
(0.841249 -8.69599e-17 2.11262e-16)
(0.841249 -3.41467e-17 4.22734e-17)
(0.846264 -8.55065e-17 2.19581e-16)
(0.846264 -3.73344e-17 4.93703e-17)
(0.851247 -8.28434e-17 2.27597e-16)
(0.851247 -3.89319e-17 6.19652e-17)
(0.856199 -8.65024e-17 2.38087e-16)
(0.856199 -3.855e-17 8.02599e-17)
(0.861121 -9.353e-17 2.54514e-16)
(0.861121 -4.3544e-17 8.64451e-17)
(0.866013 -9.5286e-17 2.63034e-16)
(0.866013 -5.37702e-17 8.93371e-17)
(0.870878 -8.77426e-17 2.70151e-16)
(0.870878 -5.34271e-17 9.97851e-17)
(0.875714 -8.44636e-17 2.87955e-16)
(0.875714 -5.22139e-17 1.10991e-16)
(0.880524 -9.54955e-17 3.0495e-16)
(0.880524 -5.18978e-17 1.18497e-16)
(0.885308 -1.13384e-16 3.2315e-16)
(0.885308 -5.16727e-17 1.20208e-16)
(0.890066 -1.32635e-16 3.2667e-16)
(0.890066 -5.00711e-17 1.20356e-16)
(0.894799 -1.43297e-16 3.21411e-16)
(0.894799 -5.32302e-17 1.24681e-16)
(0.899507 -1.42377e-16 3.211e-16)
(0.899507 -5.78813e-17 1.40112e-16)
(0.904192 -1.39262e-16 3.35974e-16)
(0.904192 -6.46097e-17 1.47766e-16)
(0.908853 -1.27287e-16 3.48983e-16)
(0.908853 -8.50788e-17 1.61133e-16)
(0.913491 -1.25376e-16 3.78718e-16)
(0.913491 -9.77355e-17 1.5813e-16)
(0.918106 -1.36757e-16 3.98638e-16)
(0.918106 -8.83045e-17 1.58938e-16)
(0.922698 -1.39902e-16 4.05409e-16)
(0.922698 -9.70317e-17 1.68961e-16)
(0.927268 -1.50252e-16 4.08282e-16)
(0.927268 -1.23171e-16 1.83573e-16)
(0.931816 -1.54053e-16 4.09547e-16)
(0.931816 -1.14856e-16 1.99058e-16)
(0.936342 -1.55232e-16 4.13589e-16)
(0.936342 -1.11683e-16 2.09284e-16)
(0.940846 -1.59318e-16 4.1112e-16)
(0.940846 -1.27333e-16 2.32874e-16)
(0.945328 -1.5515e-16 4.02572e-16)
(0.945328 -1.17576e-16 2.44605e-16)
(0.949789 -1.63899e-16 3.9776e-16)
(0.949789 -1.40417e-16 2.3857e-16)
(0.954228 -1.77435e-16 3.88444e-16)
(0.954228 -1.46216e-16 2.70254e-16)
(0.958645 -1.71082e-16 3.69597e-16)
(0.958645 -1.38681e-16 2.98758e-16)
(0.96304 -1.64474e-16 3.55368e-16)
(0.96304 -1.58489e-16 3.0114e-16)
(0.967413 -1.7229e-16 3.45338e-16)
(0.967413 -1.72982e-16 3.01489e-16)
(0.971764 -1.91352e-16 3.51199e-16)
(0.971764 -1.9862e-16 3.20375e-16)
(0.976092 -2.1137e-16 3.41107e-16)
(0.976092 -2.00989e-16 3.26344e-16)
(0.980397 -2.14319e-16 3.29255e-16)
(0.980397 -2.05701e-16 3.21474e-16)
(0.984678 -2.20226e-16 3.27477e-16)
(0.984678 -2.19696e-16 3.16234e-16)
(0.988936 -2.30786e-16 3.27978e-16)
(0.988936 -2.32515e-16 3.37668e-16)
(0.993169 -2.38326e-16 3.25828e-16)
(0.993169 -2.4677e-16 3.16658e-16)
(0.997377 -2.41325e-16 3.23203e-16)
(0.997377 -2.64937e-16 3.1724e-16)
(1.00156 -2.41069e-16 3.29525e-16)
(1.00156 -2.62169e-16 3.46828e-16)
(1.00572 -2.40475e-16 3.70171e-16)
(1.00572 -2.4745e-16 3.37175e-16)
(1.00985 -2.49539e-16 3.85393e-16)
(1.00985 -2.52919e-16 3.54536e-16)
(1.01395 -2.72767e-16 3.78122e-16)
(1.01395 -2.91528e-16 3.21877e-16)
(1.01802 -3.04616e-16 3.89368e-16)
(1.01802 -2.96e-16 2.90133e-16)
(1.02206 -3.1938e-16 3.63976e-16)
(1.02206 -2.95676e-16 2.6646e-16)
(1.02607 -3.04027e-16 3.30891e-16)
(1.02607 -3.20535e-16 2.58465e-16)
(1.03004 -3.46025e-16 3.15123e-16)
(1.03004 -3.31158e-16 2.5805e-16)
(1.03399 -3.89654e-16 2.70205e-16)
(1.03399 -3.55311e-16 2.90782e-16)
(1.03789 -4.13377e-16 3.16313e-16)
(1.03789 -3.73793e-16 2.91699e-16)
(1.04176 -4.66943e-16 3.31679e-16)
(1.04176 -4.02508e-16 3.02552e-16)
(1.04559 -4.83991e-16 3.10907e-16)
(1.04559 -4.35387e-16 2.78428e-16)
(1.04938 -4.66455e-16 2.89149e-16)
(1.04938 -4.15433e-16 3.07204e-16)
(1.05312 -4.35642e-16 2.58772e-16)
(1.05312 -3.95024e-16 3.65562e-16)
(1.05681 -4.27404e-16 3.47888e-16)
(1.05681 -3.42333e-16 2.73997e-16)
(1.06046 -4.05789e-16 2.85396e-16)
(1.06046 -4.22898e-16 2.85002e-16)
(1.06405 -3.75193e-16 2.21249e-16)
(1.06405 -3.81125e-16 2.73371e-16)
(1.06758 -3.36198e-16 1.86726e-16)
(1.06758 -3.71693e-16 2.15146e-16)
(1.07106 -3.33125e-16 1.296e-16)
(1.07106 -3.91045e-16 1.97524e-16)
(1.07447 -3.83969e-16 1.42067e-16)
(1.07447 -3.83327e-16 1.30382e-16)
(1.07781 -4.1031e-16 1.70341e-16)
(1.07781 -4.03909e-16 9.22076e-17)
(1.08107 -3.33314e-16 1.78203e-16)
(1.08107 -4.33085e-16 1.27511e-16)
(1.08426 -4.16006e-16 1.68977e-16)
(1.08426 -4.03198e-16 1.06126e-16)
(1.08736 -3.94744e-16 1.02196e-16)
(1.08736 -4.07197e-16 9.23319e-17)
(1.09036 -3.92257e-16 1.10288e-16)
(1.09036 -3.93307e-16 1.11866e-16)
(1.09326 -4.0366e-16 1.52344e-16)
(1.09326 -4.40968e-16 7.36611e-17)
(1.09605 -4.33565e-16 5.9337e-17)
(1.09605 -4.16473e-16 8.91853e-17)
(1.09871 -3.89327e-16 6.59941e-17)
(1.09871 -3.76189e-16 6.39448e-17)
(1.10124 -3.95167e-16 6.92843e-17)
(1.10124 -3.79224e-16 6.24598e-17)
(1.10361 -3.8154e-16 8.01365e-17)
(1.10361 -3.72712e-16 7.22181e-17)
(1.10582 -3.56381e-16 1.46531e-16)
(1.10582 -3.75297e-16 1.35225e-16)
(1.10785 -3.12346e-16 1.9526e-16)
(1.10785 -3.23535e-16 8.70858e-17)
(1.10967 -2.64202e-16 1.26425e-16)
(1.10967 -2.23904e-16 1.54128e-16)
(1.11126 -2.59451e-16 1.41026e-16)
(1.11126 -2.56928e-16 2.07536e-16)
(1.1126 -2.63172e-16 1.74005e-16)
(1.1126 -3.02081e-16 1.99046e-16)
(1.11365 -2.53481e-16 2.15928e-16)
(1.11365 -2.43831e-16 1.31221e-16)
(1.11438 -2.98042e-16 3.41604e-16)
(1.11438 -2.19024e-16 2.39261e-16)
(1.11477 -1.85612e-16 4.86507e-16)
(1.11477 -2.25418e-16 2.59969e-16)
(1.11477 -1.86046e-16 -1.74833e-16)
(1.11477 -1.64872e-16 -2.82201e-16)
(1.11438 -2.12672e-16 -1.77848e-16)
(1.11438 -1.25078e-16 -2.30325e-16)
(1.11365 -8.22404e-17 -2.79646e-16)
(1.11365 -6.17913e-17 -1.87979e-16)
(1.1126 -6.72395e-17 -1.9351e-16)
(1.1126 -1.26497e-16 -1.9007e-16)
(1.11126 -1.70837e-16 -2.65186e-16)
(1.11126 -7.71338e-17 -3.31535e-16)
(1.10967 -8.03967e-17 -4.12541e-16)
(1.10967 -7.27983e-17 -1.37813e-16)
(1.10785 -1.44613e-16 -5.41356e-16)
(1.10785 -1.28272e-16 -1.08795e-16)
(1.10582 -1.56628e-16 -5.97423e-16)
(1.10582 -1.61685e-16 -1.13977e-16)
(1.10361 -1.49965e-16 -4.77071e-16)
(1.10361 -1.79188e-16 -1.71091e-16)
(1.10124 -1.32032e-16 -4.34137e-16)
(1.10124 -1.80851e-16 -1.30744e-16)
(1.09871 -8.99307e-17 -2.52307e-16)
(1.09871 -1.18114e-16 -1.92416e-16)
(1.09605 -5.5672e-17 -2.92859e-16)
(1.09605 -9.6974e-17 -2.70974e-16)
(1.09326 -1.19527e-16 -3.49037e-16)
(1.09326 -8.12489e-17 -2.41204e-16)
(1.09036 -8.83173e-17 -2.45722e-16)
(1.09036 -6.85762e-17 -1.94436e-16)
(1.08736 -9.5722e-17 -2.21193e-16)
(1.08736 -6.55555e-17 -1.42987e-16)
(1.08426 -7.9464e-17 -1.50747e-16)
(1.08426 -7.31018e-17 -1.23274e-16)
(1.08107 -1.46752e-16 -1.87092e-16)
(1.08107 -1.07754e-16 -2.21978e-16)
(1.07781 -1.04982e-16 -1.94548e-16)
(1.07781 -9.57762e-17 -1.98241e-16)
(1.07447 -1.20806e-16 -1.91044e-16)
(1.07447 -1.06675e-16 -1.68043e-16)
(1.07106 -1.00969e-16 -1.39816e-16)
(1.07106 -1.0307e-16 -8.47772e-17)
(1.06758 -8.10883e-17 -8.08528e-17)
(1.06758 -1.00126e-16 -9.81576e-17)
(1.06405 -4.28956e-17 -5.21871e-17)
(1.06405 -6.34429e-17 -9.48466e-17)
(1.06046 -7.48387e-18 -4.93227e-17)
(1.06046 -4.3372e-17 -9.01027e-17)
(1.05681 -1.35731e-17 -8.51067e-17)
(1.05681 -5.36496e-17 -3.93609e-17)
(1.05312 -8.1313e-17 -1.14797e-16)
(1.05312 -1.76287e-17 -7.70945e-17)
(1.04938 -3.19489e-17 -9.21524e-17)
(1.04938 -5.39599e-18 -1.13455e-16)
(1.04559 -7.99401e-18 -1.0998e-16)
(1.04559 -5.15671e-18 -1.67109e-16)
(1.04176 -4.63534e-17 -1.34562e-16)
(1.04176 -5.96835e-18 -1.74374e-16)
(1.03789 -2.71026e-17 -1.07406e-16)
(1.03789 -2.33076e-18 -1.36003e-16)
(1.03399 -2.76315e-17 -8.13974e-17)
(1.03399 -4.11761e-19 -1.21051e-16)
(1.03004 1.56906e-17 -7.85431e-17)
(1.03004 7.21574e-18 -1.19117e-16)
(1.02607 1.86057e-17 -7.43675e-17)
(1.02607 -2.2209e-17 -7.55455e-17)
(1.02206 -1.75925e-17 -6.30338e-17)
(1.02206 -1.27092e-17 -3.23658e-17)
(1.01802 -3.35975e-17 -5.91812e-17)
(1.01802 -3.42265e-17 -2.9787e-17)
(1.01395 -2.23354e-17 -4.07955e-17)
(1.01395 -5.12185e-17 -5.603e-17)
(1.00985 -1.97179e-17 -4.45998e-17)
(1.00985 -1.74077e-17 -6.5788e-17)
(1.00572 -4.56796e-17 -3.69342e-17)
(1.00572 -1.92197e-17 -4.32055e-17)
(1.00156 -3.48395e-17 -4.48471e-17)
(1.00156 -3.04227e-17 -4.89201e-17)
(0.997377 -4.75311e-17 -4.30988e-17)
(0.997377 -1.83577e-17 -4.51934e-17)
(0.993169 -4.41061e-17 -3.44576e-17)
(0.993169 -2.27294e-17 -3.73414e-17)
(0.988936 -5.63863e-17 -2.77079e-17)
(0.988936 -3.71019e-17 -2.58154e-17)
(0.984678 -2.99456e-17 -2.38251e-17)
(0.984678 -3.47162e-17 -1.96448e-17)
(0.980397 -3.56716e-17 -8.92305e-18)
(0.980397 -3.53905e-17 -1.46601e-17)
(0.976092 -5.19023e-17 -1.27161e-17)
(0.976092 -2.72489e-17 -2.16557e-17)
(0.971764 -3.0832e-17 -2.94335e-18)
(0.971764 -5.44303e-17 -2.52501e-17)
(0.967413 -1.56549e-17 -1.00367e-17)
(0.967413 -5.05586e-17 -3.01111e-17)
(0.96304 -3.81782e-17 -1.70001e-17)
(0.96304 -3.90338e-17 -3.63223e-17)
(0.958645 -4.21819e-17 -2.15774e-17)
(0.958645 -3.72948e-17 -5.13869e-17)
(0.954228 -3.5419e-17 -1.68351e-17)
(0.954228 -5.31995e-17 -4.08292e-17)
(0.949789 -4.11817e-17 -3.58565e-18)
(0.949789 -5.33725e-17 -3.67115e-17)
(0.945328 -3.80101e-17 -2.56098e-18)
(0.945328 -1.99306e-17 -3.84274e-17)
(0.940846 -2.19963e-17 -1.51314e-17)
(0.940846 -2.45745e-17 -3.01466e-17)
(0.936342 -2.17117e-18 -2.06619e-17)
(0.936342 -1.43695e-17 -3.10331e-17)
(0.931816 -7.2958e-18 -1.75572e-17)
(0.931816 -1.30207e-17 -3.2306e-17)
(0.927268 -3.2864e-17 -1.32199e-17)
(0.927268 -2.21655e-17 -4.12782e-17)
(0.922698 -3.40776e-17 -4.44098e-18)
(0.922698 -3.46479e-17 -4.662e-17)
(0.918106 -3.47343e-17 -2.66237e-18)
(0.918106 -6.09157e-17 -4.57096e-17)
(0.913491 -4.33433e-17 -1.35374e-17)
(0.913491 -6.24423e-17 -4.23316e-17)
(0.908853 -4.35059e-17 -1.29233e-17)
(0.908853 -5.83277e-17 -2.98952e-17)
(0.904192 -4.21798e-17 -5.59305e-18)
(0.904192 -6.05847e-17 -2.58954e-17)
(0.899508 -2.61497e-17 -1.14327e-17)
(0.899508 -5.6545e-17 -3.0984e-17)
(0.894799 -2.97149e-17 -1.50692e-17)
(0.894799 -4.20743e-17 -3.4897e-17)
(0.890066 -3.75913e-17 -1.94883e-17)
(0.890066 -3.7209e-17 -3.38369e-17)
(0.885308 -4.11407e-17 -1.89063e-17)
(0.885308 -3.55699e-17 -2.99448e-17)
(0.880524 -3.81238e-17 -1.46212e-17)
(0.880524 -3.24846e-17 -2.94697e-17)
(0.875714 -3.49527e-17 -1.34811e-17)
(0.875714 -3.06651e-17 -2.50937e-17)
(0.870878 -4.12957e-17 -9.98528e-18)
(0.870878 -3.43695e-17 -2.19974e-17)
(0.866013 -3.83018e-17 -6.98128e-18)
(0.866013 -2.61558e-17 -2.28043e-17)
(0.861121 -3.0792e-17 -6.91619e-18)
(0.861121 -2.56682e-17 -2.45682e-17)
(0.856199 -1.80258e-17 -9.00068e-18)
(0.856199 -4.30086e-17 -2.02234e-17)
(0.851247 -1.59417e-17 -1.00653e-17)
(0.851247 -4.42927e-17 -1.43939e-17)
(0.846264 -1.68917e-17 -1.3772e-17)
(0.846264 -4.08515e-17 -1.5854e-17)
(0.841249 -2.09943e-17 -1.70365e-17)
(0.841249 -3.53081e-17 -1.76388e-17)
(0.836201 -1.7388e-17 -1.54058e-17)
(0.836201 -2.76052e-17 -1.55005e-17)
(0.831119 -1.58451e-17 -1.36936e-17)
(0.831119 -3.05245e-17 -1.63116e-17)
(0.826002 -7.1107e-18 -1.17754e-17)
(0.826002 -2.67017e-17 -1.54096e-17)
(0.820848 -1.62308e-17 -1.70771e-17)
(0.820848 -9.23947e-18 -1.55309e-17)
(0.815656 -1.02592e-17 -1.7395e-17)
(0.815656 -2.61273e-17 -1.63415e-17)
(0.810425 -1.59394e-17 -1.43953e-17)
(0.810425 -1.85773e-17 -1.61721e-17)
(0.805153 -1.6466e-17 -1.29747e-17)
(0.805153 -1.71837e-17 -1.49843e-17)
(0.799839 -1.46155e-17 -1.23931e-17)
(0.799839 -1.40647e-17 -1.53587e-17)
(0.794481 -1.53358e-17 -1.1273e-17)
(0.794481 -1.3823e-17 -1.60024e-17)
(0.789077 -1.29014e-17 -8.92602e-18)
(0.789077 -1.47083e-17 -1.58606e-17)
(0.783626 -1.38178e-17 -8.10746e-18)
(0.783626 -1.19121e-17 -1.53934e-17)
(0.778125 -1.3436e-17 -6.68432e-18)