/*--------------------------------*- C++ -*----------------------------------*\
| =========                 |                                                 |
| \\      /  F ield         | OpenFOAM: The Open Source CFD Toolbox           |
|  \\    /   O peration     | Version:  2012                                  |
|   \\  /    A nd           | Website:  www.openfoam.com                      |
|    \\/     M anipulation  |                                                 |
\*---------------------------------------------------------------------------*/
FoamFile
{
    version     2.0;
    format      ascii;
    class       volTensorField;
    location    "15000";
    object      grad(U);
}
// * * * * * * * * * * * * * * * * * * * * * * * * * * * * * * * * * * * * * //

dimensions      [0 0 -1 0 0 0 0];


internalField   nonuniform List<tensor> 
5120
(
(0 -4.0957e-25 3.24143e-32 29.462 -3.55011e-11 -2.00159e-13 0.0213687 -1.28745e-14 -8.78812e-17)
(0 -2.96e-29 -1.62071e-32 29.462 -8.13852e-16 -6.21929e-19 0.0213687 -2.9211e-19 3.45065e-17)
(0 1.12104e-44 1.90625e-31 29.4618 6.46237e-27 -1.62565e-14 0.0642602 6.31089e-30 -2.3752e-17)
(0 -3.29539e-29 -1.28726e-31 29.4618 -1.01931e-15 -4.78669e-19 0.0642602 -1.01086e-18 3.89971e-17)
(1.51509e-17 -1.09519e-29 -7.23722e-32 29.4619 2.44798e-12 -5.55604e-15 0.0870289 -4.79221e-15 -8.9006e-18)
(0 1.63586e-29 6.39008e-32 29.4619 -1.13082e-15 2.75616e-19 0.0870289 -1.78997e-18 3.95627e-17)
(-1.78573e-17 3.24823e-29 9.5163e-32 29.4623 2.32567e-12 -3.45307e-15 0.0876601 -9.63548e-15 -1.15829e-17)
(0 -2.43617e-29 -6.3442e-32 29.4623 -1.18869e-15 2.02535e-19 0.0876601 -2.68261e-18 4.01366e-17)
(5.02394e-17 -4.53317e-29 -2.43936e-31 29.463 3.77431e-13 -4.18466e-15 0.0882968 -4.134e-15 -1.34147e-17)
(5.91247e-17 3.2249e-29 1.88959e-31 29.463 -1.17521e-15 1.86993e-19 0.0882968 -3.58029e-18 4.07189e-17)
(-2.08188e-17 -1.8923e-26 1.17694e-31 29.4641 -1.49039e-13 -4.47903e-15 0.0889391 -2.24127e-16 -1.35282e-17)
(4.80718e-17 -1.60087e-29 -6.25341e-32 29.4641 -1.18448e-15 2.75514e-19 0.0889391 -4.46746e-18 4.13097e-17)
(-2.69003e-17 1.68156e-44 1.7954e-31 29.4654 3.74253e-27 -4.45812e-15 0.0895871 6.31089e-30 -1.34822e-17)
(0 -2.38407e-29 -1.55213e-31 29.4654 -1.23521e-15 4.27801e-19 0.0895871 -5.39028e-18 4.19093e-17)
(-3.3026e-17 4.51132e-29 2.09655e-31 29.4671 1.03689e-14 -4.43761e-15 0.0902408 -2.29387e-17 -1.3599e-17)
(-1.32104e-16 -3.94491e-29 -1.84918e-31 29.4671 -1.27277e-15 5.36058e-19 0.0902408 -6.31647e-18 4.2518e-17)
(-3.91962e-17 1.34935e-29 -5.46049e-33 29.4691 9.08374e-15 -4.45824e-15 0.0909001 -4.04014e-17 -1.38053e-17)
(0 0 9.17949e-32 29.4691 -1.31882e-15 5.72494e-19 0.0909001 -7.22172e-18 4.31361e-17)
(-1.59229e-16 5.79881e-29 2.94112e-31 29.4715 3.81287e-15 -4.49681e-15 0.0915653 -1.53435e-17 -1.40361e-17)
(-1.13239e-16 -4.66615e-29 -2.43029e-31 29.4715 -1.30371e-15 7.2878e-19 0.0915653 -8.24029e-18 4.37636e-17)
(6.79152e-17 0 -9.04813e-32 29.4741 2.38616e-15 -4.53935e-15 0.0922363 -8.23706e-18 -1.42719e-17)
(3.45459e-16 7.72107e-30 1.50802e-31 29.4741 -1.25606e-15 6.09815e-19 0.0922363 -9.14827e-18 4.44009e-17)
(5.79781e-17 -1.33297e-29 -2.63705e-32 29.4771 1.99031e-15 -4.58177e-15 0.0929133 -6.63714e-18 -1.45073e-17)
(-2.31912e-16 1.53313e-29 5.98877e-32 29.4771 -1.32589e-15 4.17371e-19 0.0929133 -1.00726e-17 4.50474e-17)
(1.28661e-16 3.893e-30 6.53224e-32 29.4803 1.80599e-15 -4.62303e-15 0.0935961 -5.86134e-18 -1.47411e-17)
(2.57322e-16 -1.52212e-29 -1.18915e-31 29.4803 -1.34809e-15 4.27027e-19 0.0935961 -1.11198e-17 4.57036e-17)
(0 0 0 29.4839 1.83203e-15 -4.66301e-15 0.094285 -5.56317e-18 -1.49736e-17)
(2.82917e-16 7.55593e-30 5.90307e-32 29.4839 -1.38229e-15 5.13583e-19 0.094285 -1.21839e-17 4.63697e-17)
(-1.86766e-16 9.33958e-30 1.48149e-31 29.4878 1.96378e-15 -4.70188e-15 0.0949799 -6.11296e-18 -1.52054e-17)
(0 0 -5.86068e-32 29.4878 -1.51627e-15 5.48267e-19 0.0949799 -1.34452e-17 4.70459e-17)
(-2.14692e-16 3.54547e-29 1.73584e-31 29.4919 1.96571e-15 -4.73996e-15 0.0956809 -6.4926e-18 -1.54381e-17)
(3.34674e-16 -7.4478e-30 -2.9093e-32 29.4919 -1.44949e-15 1.08684e-18 0.0956809 -1.48318e-17 4.77323e-17)
(9.02096e-17 -1.30577e-29 -2.85751e-32 29.4964 1.84958e-15 -4.77773e-15 0.0963881 -6.21422e-18 -1.5673e-17)
(7.21677e-16 7.39432e-30 0 29.4964 -1.30774e-15 1.33165e-18 0.0963881 -1.59807e-17 4.84313e-17)
(1.29148e-16 -1.46824e-29 -5.73533e-32 29.5012 1.87774e-15 -4.81564e-15 0.0971015 -5.82798e-18 -1.59118e-17)
(0 1.46824e-29 8.60299e-32 29.5012 -1.36886e-15 1.23942e-18 0.0971015 -1.71746e-17 4.91404e-17)
(-2.56441e-16 2.18655e-29 1.70824e-31 29.5063 2.07471e-15 -4.85356e-15 0.0978211 -6.48979e-18 -1.61519e-17)
(0 -7.2885e-30 -5.69414e-32 29.5063 -1.40763e-15 1.08345e-18 0.0978211 -1.84849e-17 4.98608e-17)
(-2.20247e-16 6.19786e-29 3.42631e-31 29.5116 2.16318e-15 -4.89139e-15 0.098547 -7.21852e-18 -1.63955e-17)
(0 -5.06532e-29 -2.82663e-31 29.5116 -1.4705e-15 7.58342e-19 0.098547 -1.9628e-17 5.05917e-17)
(-2.43246e-16 3.43994e-29 1.42722e-31 29.5173 2.10176e-15 -4.9293e-15 0.0992793 -7.17478e-18 -1.66414e-17)
(0 -2.15526e-29 -5.61266e-32 29.5173 -1.49346e-15 1.05054e-18 0.0992793 -2.09981e-17 5.13339e-17)
(3.72771e-16 -2.559e-29 -1.17643e-31 29.5232 1.97603e-15 -4.96735e-15 0.100018 -6.91016e-18 -1.68912e-17)
(3.69108e-16 1.42652e-29 1.11447e-31 29.5232 -1.34262e-15 8.78263e-19 0.100018 -2.232e-17 5.20871e-17)
(0 1.41628e-29 -5.53234e-32 29.5294 1.90865e-15 -5.00574e-15 0.100763 -6.42717e-18 -1.7145e-17)
(0 0 1.10647e-31 29.5294 -1.31378e-15 5.77836e-19 0.100763 -2.34484e-17 5.28506e-17)
(1.23683e-16 2.10916e-29 5.49261e-32 29.5359 1.95414e-15 -5.0444e-15 0.101515 -6.55066e-18 -1.74022e-17)
(-6.73166e-16 -2.10916e-29 -5.49261e-32 29.5359 -1.29745e-15 -6.31996e-20 0.101515 -2.46378e-17 5.36252e-17)
(0 1.39601e-29 1.63595e-31 29.5427 1.96711e-15 -5.08319e-15 0.102273 -6.83315e-18 -1.76625e-17)
(0 0 -1.09063e-31 29.5427 -1.30118e-15 -7.71557e-19 0.102273 -2.57351e-17 5.44083e-17)
(-4.539e-16 3.08451e-29 2.61416e-31 29.5497 1.86367e-15 -5.12216e-15 0.103037 -6.73554e-18 -1.79265e-17)
(0 -1.38599e-29 -1.6242e-31 29.5497 -1.30724e-15 -3.51728e-19 0.103037 -2.69734e-17 5.5202e-17)
(2.42074e-16 -6.88017e-30 -1.61254e-31 29.5569 1.86751e-15 -5.16166e-15 0.103808 -6.21107e-18 -1.81963e-17)
(1.02467e-15 6.88017e-30 1.61254e-31 29.5569 -1.24322e-15 -4.18106e-19 0.103808 -2.82274e-17 5.60079e-17)
(7.48982e-17 -8.00012e-30 -1.26032e-31 29.5645 2.0731e-15 -5.20151e-15 0.104586 -6.86034e-18 -1.84687e-17)
(6.61752e-16 1.36615e-29 1.60096e-31 29.5645 -1.41894e-15 -4.39322e-19 0.104586 -2.93185e-17 5.68233e-17)
(0 0 0 29.5722 2.25214e-15 -5.24123e-15 0.105371 -7.75559e-18 -1.87435e-17)
(6.90345e-16 6.78171e-30 5.29821e-32 29.5722 -1.67426e-15 3.93992e-19 0.105371 -3.08369e-17 5.76512e-17)
(0 1.3466e-29 1.57805e-31 29.5801 2.40244e-15 -5.28089e-15 0.106162 -8.23571e-18 -1.90215e-17)
(-7.19152e-16 -2.0199e-29 -2.10407e-31 29.5801 -1.79471e-15 4.25784e-19 0.106162 -3.25653e-17 5.84923e-17)
(-3.74087e-16 2.46902e-29 1.75896e-31 29.5883 2.46633e-15 -5.32038e-15 0.106959 -8.94688e-18 -1.93011e-17)
(0 -1.33693e-29 -1.04448e-31 29.5883 -1.75443e-15 4.5933e-19 0.106959 -3.412e-17 5.9346e-17)
(-4.67014e-16 1.32733e-29 1.03698e-31 29.5966 2.38117e-15 -5.35981e-15 0.107764 -8.8171e-18 -1.95848e-17)
(7.77416e-16 -6.63666e-30 -5.18489e-32 29.5966 -1.63348e-15 1.00808e-18 0.107764 -3.57108e-17 6.02141e-17)
(4.33549e-16 -4.51941e-29 -3.45733e-31 29.6051 2.296e-15 -5.39964e-15 0.108575 -8.45674e-18 -1.98734e-17)
(5.75046e-16 2.6356e-29 2.57383e-31 29.6051 -1.54226e-15 4.10786e-19 0.108575 -3.72747e-17 6.10962e-17)
(-6.48444e-16 -1.76368e-30 -1.29507e-31 29.6138 2.29422e-15 -5.43948e-15 0.109392 -8.32048e-18 -2.01634e-17)
(1.67312e-15 6.54169e-30 1.53321e-31 29.6138 -1.56607e-15 -1.87773e-19 0.109392 -3.86664e-17 6.19881e-17)
(-2.16616e-16 3.16385e-29 2.41016e-31 29.6226 2.32175e-15 -5.47916e-15 0.110216 -8.56633e-18 -2.04571e-17)
(8.66463e-16 -2.59789e-29 -2.0296e-31 29.6226 -1.60296e-15 -1.06323e-19 0.110216 -4.01464e-17 6.28929e-17)
(-4.48296e-16 -1.44735e-29 -7.38037e-32 29.6315 2.32917e-15 -5.51889e-15 0.111047 -8.64614e-18 -2.07539e-17)
(1.56631e-15 1.93442e-29 1.00751e-31 29.6315 -1.58157e-15 -1.06415e-19 0.111047 -4.16325e-17 6.38099e-17)
(2.25242e-16 -2.56071e-29 -5.00139e-32 29.6404 2.46869e-15 -5.55883e-15 0.111884 -8.74632e-18 -2.10556e-17)
(-2.25242e-16 2.56071e-29 5.00139e-32 29.6404 -1.78299e-15 -1.89788e-19 0.111884 -4.33514e-17 6.47396e-17)
(-2.39384e-16 3.1082e-29 2.38518e-31 29.6494 2.63805e-15 -5.59843e-15 0.112728 -9.82477e-18 -2.13562e-17)
(0 -1.90674e-29 -1.48964e-31 29.6494 -1.98967e-15 2.83944e-19 0.112728 -4.52572e-17 6.56803e-17)
(-2.47088e-16 -6.51723e-31 1.39128e-31 29.6584 2.71975e-15 -5.63736e-15 0.113577 -1.0161e-17 -2.16594e-17)
(0 1.26203e-29 0 29.6584 -1.98277e-15 1.27504e-18 0.113577 -4.72124e-17 6.66364e-17)
(0 -1.87945e-29 0 29.6674 2.73383e-15 -5.67601e-15 0.114434 -1.05931e-17 -2.19644e-17)
(0 1.87945e-29 0 29.6674 -1.82252e-15 1.25279e-18 0.114434 -4.92521e-17 6.76079e-17)
(2.62671e-16 2.54414e-29 3.95509e-31 29.6764 2.66958e-15 -5.71469e-15 0.115296 -1.04171e-17 -2.22744e-17)
(-1.05068e-15 -3.10993e-29 -4.37334e-31 29.6764 -1.67997e-15 -8.57511e-19 0.115296 -5.11062e-17 6.85929e-17)
(2.70551e-16 -1.8008e-29 -2.35462e-31 29.6852 2.68617e-15 -5.75281e-15 0.116164 -1.02476e-17 -2.25816e-17)
(0 1.23504e-29 1.92975e-31 29.6852 -1.60459e-15 -1.1029e-18 0.116164 -5.30113e-17 6.95856e-17)
(0 -6.13085e-30 -4.78973e-32 29.6938 2.69957e-15 -5.78981e-15 0.117038 -1.06981e-17 -2.28894e-17)
(0 1.83926e-29 1.43692e-31 29.6938 -1.60054e-15 -1.10653e-19 0.117038 -5.49446e-17 7.05938e-17)
(4.28323e-16 -1.21737e-29 -1.90213e-31 29.7023 2.68598e-15 -5.82628e-15 0.117917 -1.0502e-17 -2.31989e-17)
(0 1.21737e-29 1.90213e-31 29.7023 -1.80407e-15 8.92096e-19 0.117917 -5.70064e-17 7.16103e-17)
(-2.94548e-16 -1.85158e-29 -1.4432e-31 29.7105 2.86377e-15 -5.86217e-15 0.118802 -1.07456e-17 -2.35087e-17)
(0 1.81294e-29 1.41636e-31 29.7105 -1.99861e-15 1.98988e-18 0.118802 -5.92087e-17 7.26459e-17)
(-3.02668e-16 -3.4352e-31 4.5228e-32 29.7183 3.1199e-15 -5.89699e-15 0.119693 -1.20762e-17 -2.38162e-17)
(0 1.19994e-29 9.37457e-32 29.7183 -2.05532e-15 2.16049e-18 0.119693 -6.1109e-17 7.36959e-17)
(-3.10849e-16 -3.00925e-31 4.59382e-32 29.7258 3.09364e-15 -5.93038e-15 0.120588 -1.29645e-17 -2.41209e-17)
(0 1.19133e-29 4.65363e-32 29.7258 -2.04208e-15 1.99363e-18 0.120588 -6.32482e-17 7.47625e-17)
(0 -5.91387e-30 -1.84808e-31 29.7328 3.04975e-15 -5.96296e-15 0.121487 -1.20385e-17 -2.44281e-17)
(0 5.91387e-30 1.84808e-31 29.7328 -2.06927e-15 1.65833e-18 0.121487 -6.56414e-17 7.58413e-17)
(0 -2.34856e-29 -1.83481e-31 29.7392 2.94127e-15 -5.99481e-15 0.122392 -1.2794e-17 -2.47332e-17)
(0 2.34856e-29 1.83481e-31 29.7392 -2.23027e-15 1.92044e-18 0.122392 -6.80216e-17 7.69351e-17)
(-6.71526e-16 5.79439e-29 4.60575e-31 29.7451 2.29927e-15 -6.02592e-15 0.1233 -1.13205e-17 -2.50407e-17)
(-1.34305e-15 -4.66339e-29 -3.64327e-31 29.7451 -1.8539e-15 1.40562e-19 0.1233 -7.04829e-17 7.804e-17)
(4.70309e-16 -1.74942e-29 -2.22412e-31 29.7502 2.15232e-15 -6.05643e-15 0.124211 -7.65783e-18 -2.53471e-17)
(1.93904e-15 2.31495e-29 3.61711e-31 29.7502 -1.20249e-15 -2.33174e-18 0.124211 -7.17446e-17 7.91528e-17)
(3.52684e-16 -5.73671e-29 -4.08742e-31 29.7544 2.709e-15 -6.08531e-15 0.125126 -1.02578e-17 -2.56471e-17)
(1.41074e-15 4.02207e-29 3.59114e-31 29.7544 -1.58598e-15 -1.91809e-18 0.125126 -7.28734e-17 8.02699e-17)
(-3.61239e-16 5.65405e-30 5.03949e-32 29.7578 2.92925e-15 -6.11201e-15 0.126043 -1.24507e-17 -2.59412e-17)
(0 1.14091e-29 8.91337e-32 29.7578 -1.98121e-15 -1.4132e-18 0.126043 -7.5432e-17 8.13996e-17)
(0 -5.66359e-30 -1.76987e-31 29.7601 3.02642e-15 -6.13679e-15 0.126962 -1.22725e-17 -2.62309e-17)
(1.47943e-15 5.66359e-30 1.76987e-31 29.7601 -2.03799e-15 -1.49827e-18 0.126962 -7.75358e-17 8.25345e-17)
(-7.57079e-16 5.06669e-29 5.43205e-31 29.7613 3.14932e-15 -6.15933e-15 0.127883 -1.34605e-17 -2.65115e-17)
(-1.51416e-15 -3.93605e-29 -4.39291e-31 29.7613 -2.3314e-15 -3.8687e-19 0.127883 -7.98872e-17 8.3681e-17)
(-7.74571e-16 1.13057e-29 1.92732e-31 29.7613 3.23784e-15 -6.1793e-15 0.128805 -1.35068e-17 -2.67846e-17)
(1.54914e-15 1.11651e-29 8.72273e-32 29.7613 -2.16989e-15 2.10062e-18 0.128805 -8.2601e-17 8.4835e-17)
(0 -5.54246e-30 0 29.7598 3.40707e-15 -6.19688e-15 0.129727 -1.44221e-17 -2.70496e-17)
(0 1.10849e-29 8.66009e-32 29.7598 -2.22558e-15 3.75594e-18 0.129727 -8.47217e-17 8.6006e-17)
(-1.1794e-15 1.11544e-29 3.12307e-31 29.7568 3.53108e-15 -6.21165e-15 0.130648 -1.51784e-17 -2.73033e-17)
(-1.61987e-15 0 -8.59791e-32 29.7568 -2.65373e-15 2.78254e-18 0.130648 -8.74731e-17 8.71923e-17)
(0 -3.27789e-29 -5.1217e-31 29.7521 3.40747e-15 -6.22352e-15 0.131569 -1.57204e-17 -2.75473e-17)
(1.65563e-15 3.27789e-29 5.1217e-31 29.7521 -2.16689e-15 4.96045e-18 0.131569 -9.04149e-17 8.83913e-17)
(7.63348e-16 -3.79674e-29 -5.08492e-31 29.7456 2.92285e-15 -6.23315e-15 0.132487 -1.43055e-17 -2.77855e-17)
(2.61992e-15 3.79674e-29 5.08492e-31 29.7456 -1.53399e-15 4.08732e-18 0.132487 -9.21583e-17 8.96124e-17)
(0 5.38497e-30 2.5242e-31 29.7371 2.63939e-15 -6.2402e-15 0.133402 -1.16311e-17 -2.80105e-17)
(0 0 -8.41401e-32 29.7371 -2.04019e-15 1.50507e-18 0.133402 -9.4292e-17 9.08336e-17)
(-6.48926e-17 -1.57345e-29 -3.59966e-31 29.7264 2.93452e-15 -6.24374e-15 0.134314 -1.19696e-17 -2.82209e-17)
(-1.76442e-15 1.06926e-29 2.50608e-31 29.7264 -2.35649e-15 7.83906e-19 0.134314 -9.72224e-17 9.20692e-17)
(0 1.06158e-29 2.48808e-31 29.7134 3.60697e-15 -6.24408e-15 0.135221 -1.44675e-17 -2.84202e-17)
(1.8012e-15 0 -8.2936e-32 29.7134 -2.15644e-15 2.53311e-18 0.135221 -9.90995e-17 9.3308e-17)
(0 1.05396e-29 2.47021e-31 29.6979 4.18049e-15 -6.24023e-15 0.136122 -1.82652e-17 -2.85952e-17)
(1.83823e-15 0 -8.23405e-32 29.6979 -2.76269e-15 7.19713e-18 0.136122 -1.01207e-16 9.45702e-17)
(-1.20521e-15 -3.62073e-29 -3.48432e-31 29.6797 4.31741e-15 -6.23199e-15 0.137016 -1.99366e-17 -2.87567e-17)
(0 4.18556e-29 4.90495e-31 29.6797 -3.09638e-15 9.16845e-18 0.137016 -1.04846e-16 9.58503e-17)
(7.31044e-16 -3.63606e-29 -4.86973e-31 29.6586 4.15808e-15 -6.21954e-15 0.137902 -1.9795e-17 -2.88946e-17)
(1.18201e-15 3.63606e-29 4.86973e-31 29.6586 -2.82217e-15 7.7465e-18 0.137902 -1.07412e-16 9.71488e-17)
(-4.8771e-16 2.11185e-29 3.84403e-31 29.6345 3.95379e-15 -6.20343e-15 0.138779 -1.87438e-17 -2.90232e-17)
(0 -1.03142e-29 -2.41738e-31 29.6345 -3.06877e-15 7.51025e-18 0.138779 -1.10444e-16 9.84564e-17)
(-2.23363e-16 4.59326e-30 2.57022e-31 29.607 4.51871e-15 -6.1841e-15 0.139645 -1.81681e-17 -2.91317e-17)
(0 0 -1.60001e-31 29.607 -3.28509e-15 7.27538e-18 0.139645 -1.14642e-16 9.97832e-17)
(-1.2222e-15 4.63116e-29 5.40439e-31 29.5761 4.93489e-15 -6.15999e-15 0.1405 -2.43475e-17 -2.92154e-17)
(-2.02716e-15 -3.55829e-29 -3.97131e-31 29.5761 -3.2238e-15 5.67713e-18 0.1405 -1.18494e-16 1.01108e-16)
(-1.03285e-15 3.65241e-29 4.45002e-31 29.5416 4.16128e-15 -6.13187e-15 0.141342 -2.23882e-17 -2.92853e-17)
(-2.06569e-15 -2.52339e-29 -3.15423e-31 29.5416 -3.04174e-15 3.90001e-18 0.141342 -1.21786e-16 1.02451e-16)
(-1.05223e-15 4.1354e-29 8.36014e-31 29.5031 3.9451e-15 -6.09893e-15 0.142169 -1.72938e-17 -2.93219e-17)
(-2.10446e-15 -3.00632e-29 -7.04606e-31 29.5031 -2.95902e-15 9.19396e-19 0.142169 -1.24204e-16 1.03798e-16)
(0 0 -3.1091e-31 29.4606 4.0055e-15 -6.06047e-15 0.14298 -2.06283e-17 -2.93369e-17)
(2.14347e-15 0 3.1091e-31 29.4606 -2.72559e-15 3.20412e-18 0.14298 -1.27757e-16 1.05141e-16)
(-5.45679e-16 5.64421e-30 6.75428e-32 29.4138 3.44313e-15 -6.01751e-15 0.143775 -1.81315e-17 -2.93273e-17)
(2.18271e-15 9.87766e-30 1.54339e-31 29.4138 -2.17801e-15 2.78046e-18 0.143775 -1.30763e-16 1.06495e-16)
(0 0 0 29.3625 3.25189e-15 -5.97015e-15 0.144551 -1.54255e-17 -2.92961e-17)
(2.22219e-15 4.90337e-30 7.66151e-32 29.3625 -1.85659e-15 -1.90455e-18 0.144551 -1.33632e-16 1.07835e-16)
(-1.13095e-15 1.12874e-29 -1.33505e-32 29.3065 3.37804e-15 -5.91829e-15 0.145307 -1.65101e-17 -2.92383e-17)
(2.26189e-15 0 1.5213e-31 29.3065 -1.91318e-15 -3.89389e-18 0.145307 -1.36219e-16 1.09164e-16)
(-5.75453e-16 5.64323e-30 1.45835e-31 29.2457 3.22214e-15 -5.8611e-15 0.146041 -1.69016e-17 -2.91496e-17)
(2.30181e-15 9.6664e-30 0 29.2457 -2.19088e-15 -3.16881e-18 0.146041 -1.38706e-16 1.10479e-16)
(0 -9.59698e-30 -1.49953e-31 29.1798 3.24244e-15 -5.7991e-15 0.146753 -1.51911e-17 -2.90384e-17)
(2.34195e-15 9.59698e-30 1.49953e-31 29.1798 -2.27506e-15 -1.75537e-18 0.146753 -1.42641e-16 1.11788e-16)
(0 -9.52807e-30 1.48876e-31 29.1087 3.90334e-15 -5.73202e-15 0.14744 -1.73514e-17 -2.88924e-17)
(2.3823e-15 9.52807e-30 -1.48876e-31 29.1087 -2.18792e-15 -2.03387e-18 0.14744 -1.4581e-16 1.13089e-16)
(0 1.41895e-29 1.47807e-31 29.0322 4.31625e-15 -5.65948e-15 0.148102 -2.21153e-17 -2.87189e-17)
(1.7572e-15 -4.72982e-30 0 29.0322 -2.37085e-15 -1.63178e-18 0.148102 -1.48253e-16 1.14373e-16)
(-1.27679e-15 1.97282e-29 5.14259e-31 28.9501 4.36216e-15 -5.5813e-15 0.148736 -2.18219e-17 -2.85073e-17)
(0 -9.39172e-30 -3.66864e-31 28.9501 -2.31061e-15 -3.73794e-19 0.148736 -1.52246e-16 1.15647e-16)
(6.2614e-16 1.30087e-29 2.89284e-31 28.8623 4.63806e-15 -5.49752e-15 0.149342 -2.29088e-17 -2.82675e-17)
(1.84842e-15 -9.32428e-30 -2.18538e-31 28.8623 -2.32076e-15 -8.09052e-19 0.149342 -1.5501e-16 1.16914e-16)
(0 1.3886e-29 2.16968e-31 28.7687 4.63161e-15 -5.40772e-15 0.149918 -2.49984e-17 -2.79836e-17)
(-2.54569e-15 -2.31433e-29 -3.61614e-31 28.7687 -2.90373e-15 3.01023e-18 0.149918 -1.58218e-16 1.18162e-16)
(0 4.13588e-29 3.59017e-31 28.6692 4.59094e-15 -5.31266e-15 0.150463 -2.3174e-17 -2.76783e-17)
(-2.587e-15 -4.13588e-29 -3.59017e-31 28.6692 -3.41833e-15 3.62221e-18 0.150463 -1.62075e-16 1.19413e-16)
(6.57119e-16 3.54242e-29 2.07464e-31 28.5636 4.79002e-15 -5.21341e-15 0.150976 -2.49336e-17 -2.73388e-17)
(-5.25695e-15 -4.10618e-29 -2.85151e-31 28.5636 -3.4767e-15 8.3342e-19 0.150976 -1.66404e-16 1.20636e-16)
(0 0 1.41552e-31 28.4519 4.52836e-15 -5.10971e-15 0.151456 -2.5619e-17 -2.69738e-17)
(5.34023e-15 0 -1.41552e-31 28.4519 -2.73833e-15 5.68584e-18 0.151456 -1.70921e-16 1.21851e-16)
(5.87854e-16 5.63667e-30 -6.10538e-32 28.334 4.22834e-15 -5.00286e-15 0.151901 -2.25043e-17 -2.65876e-17)
(4.15798e-15 0 1.40535e-31 28.334 -2.9598e-15 1.05721e-17 0.151901 -1.74112e-16 1.2307e-16)
(-6.88459e-16 -3.29353e-30 8.03656e-32 28.2098 4.44418e-15 -4.89321e-15 0.152311 -2.27671e-17 -2.61787e-17)
(0 1.78594e-29 1.39526e-31 28.2098 -3.91847e-15 9.02466e-18 0.152311 -1.79124e-16 1.24295e-16)
(-6.98976e-16 4.10975e-29 4.96814e-31 28.0795 4.43004e-15 -4.78026e-15 0.152685 -2.5167e-17 -2.57423e-17)
(0 -3.54622e-29 -4.15573e-31 28.0795 -3.50417e-15 5.08376e-18 0.152685 -1.8469e-16 1.255e-16)
(-7.09524e-16 4.08427e-29 4.94694e-31 27.9428 3.84021e-15 -4.66545e-15 0.153022 -2.29435e-17 -2.52981e-17)
(0 -3.52076e-29 -4.12589e-31 27.9428 -2.3145e-15 1.28568e-18 0.153022 -1.88863e-16 1.26689e-16)
(7.20101e-16 -5.63539e-30 5.35805e-32 27.7999 3.62027e-15 -4.54918e-15 0.153322 -1.90561e-17 -2.48302e-17)
(2.8804e-15 0 -1.36542e-31 27.7999 -1.63709e-15 -2.36905e-18 0.153322 -1.90534e-16 1.27852e-16)
(2.40377e-16 2.34347e-29 3.74636e-31 27.6509 4.25598e-15 -4.43009e-15 0.153583 -2.08442e-17 -2.43388e-17)
(1.22103e-15 -4.33797e-29 -8.13369e-31 27.6509 -2.65286e-15 -1.11712e-18 0.153583 -1.92757e-16 1.28977e-16)
(0 2.58409e-29 2.69176e-31 27.4956 5.24497e-15 -4.30806e-15 0.153806 -2.64142e-17 -2.38214e-17)
(-4.17758e-15 -1.72273e-29 -1.34588e-31 27.4956 -4.68229e-15 3.20386e-18 0.153806 -1.98267e-16 1.30089e-16)
(-4.5158e-16 2.85756e-29 1.81784e-31 27.3344 6.0061e-15 -4.18409e-15 0.153991 -3.22432e-17 -2.32912e-17)
(-1.80435e-15 -3.42071e-29 -2.67243e-31 27.3344 -5.55345e-15 6.53292e-18 0.153991 -2.0468e-16 1.31198e-16)
(-4.32272e-16 1.13505e-29 3.1172e-31 27.1672 6.34303e-15 -4.05894e-15 0.154136 -3.53993e-17 -2.27427e-17)
(0 -8.49037e-30 -2.65324e-31 27.1672 -5.27434e-15 7.84337e-18 0.154136 -2.1168e-16 1.32296e-16)
(0 -8.4294e-30 -1.31709e-31 26.9941 5.97412e-15 -3.93258e-15 0.154242 -3.65465e-17 -2.21807e-17)
(3.09329e-15 8.4294e-30 1.31709e-31 26.9941 -4.67748e-15 1.12011e-17 0.154242 -2.17524e-16 1.3338e-16)
(-1.56803e-15 -2.22175e-29 -2.16607e-31 26.8154 4.91793e-15 -3.805e-15 0.15431 -3.16835e-17 -2.15995e-17)
(3.13606e-15 3.34755e-29 5.23054e-31 26.8154 -3.82615e-15 1.1521e-17 0.15431 -2.22396e-16 1.34468e-16)
(-1.58944e-15 2.78765e-29 6.96504e-31 26.6312 4.27611e-15 -3.67835e-15 0.154338 -2.48802e-17 -2.10296e-17)
(-3.17887e-15 -1.66175e-29 -5.19298e-31 26.6312 -3.70141e-15 -2.43536e-18 0.154338 -2.2807e-16 1.35523e-16)
(-1.96639e-15 3.86254e-29 7.33812e-31 26.4416 4.09101e-15 -3.55243e-15 0.154329 -2.46781e-17 -2.04378e-17)
(-2.06076e-15 -3.29964e-29 -6.44462e-31 26.4416 -3.69876e-15 -1.00325e-17 0.154329 -2.32834e-16 1.36497e-16)
(3.36477e-16 -1.07511e-29 -3.78901e-32 26.2468 3.63226e-15 -3.42721e-15 0.154281 -2.30728e-17 -1.98572e-17)
(3.26458e-15 1.63797e-29 1.27967e-31 26.2468 -3.0094e-15 -5.7879e-18 0.154281 -2.36472e-16 1.37438e-16)
(0 -2.43932e-29 -2.54096e-31 26.0472 3.71669e-15 -3.30427e-15 0.154196 -1.96228e-17 -1.92733e-17)
(3.30745e-15 2.43932e-29 3.81143e-31 26.0472 -2.90104e-15 -3.55496e-18 0.154196 -2.39739e-16 1.38343e-16)
(0 -8.07267e-30 -2.52271e-31 25.8428 4.4286e-15 -3.18298e-15 0.154074 -2.44114e-17 -1.86934e-17)
(0 8.07267e-30 2.52271e-31 25.8428 -3.15303e-15 -7.42424e-18 0.154074 -2.43413e-16 1.39229e-16)
(-1.97626e-15 2.96701e-29 4.67839e-31 25.6339 4.51883e-15 -3.06309e-15 0.153916 -2.84306e-17 -1.81075e-17)
(0 -1.60294e-29 -2.50459e-31 25.6339 -2.9965e-15 -1.50593e-17 0.153916 -2.47023e-16 1.40059e-16)
(-1.718e-15 1.92081e-29 6.1279e-32 25.4209 4.1819e-15 -2.94508e-15 0.153723 -2.58538e-17 -1.75314e-17)
(3.43599e-15 -7.95715e-30 1.2433e-31 25.4209 -2.85983e-15 -1.42569e-17 0.153723 -2.52378e-16 1.40835e-16)
(0 7.90001e-30 1.23438e-31 25.2038 4.81879e-15 -2.83236e-15 0.153496 -2.47511e-17 -1.69914e-17)
(2.36696e-15 0 0 25.2038 -2.83884e-15 -9.71464e-18 0.153496 -2.56833e-16 1.41572e-16)
(-2.2346e-16 1.79069e-29 2.73602e-31 24.9831 5.601e-15 -2.7221e-15 0.153235 -3.40205e-17 -1.64273e-17)
(3.52153e-15 -7.84328e-30 -1.22551e-31 24.9831 -2.76526e-15 -1.05772e-17 0.153235 -2.59319e-16 1.42275e-16)
(1.09592e-15 -7.78696e-30 -2.43342e-31 24.7589 4.95422e-15 -2.6159e-15 0.152942 -3.47488e-17 -1.59202e-17)
(-1.09592e-15 7.78696e-30 2.43342e-31 24.7589 -3.11097e-15 -1.48438e-17 0.152942 -2.64029e-16 1.42942e-16)
(0 3.09242e-29 6.03988e-31 24.5315 4.71868e-15 -2.51435e-15 0.152618 -2.64872e-17 -1.53963e-17)
(0 -3.09242e-29 -6.03988e-31 24.5315 -3.73172e-15 -1.23518e-17 0.152618 -2.6748e-16 1.43575e-16)
(1.99259e-15 -2.09721e-29 -3.35651e-31 24.3013 4.81421e-15 -2.4149e-15 0.152263 -3.23089e-17 -1.48991e-17)
(0 1.53511e-29 2.3986e-31 24.3013 -3.5497e-15 -8.82571e-18 0.152263 -2.70747e-16 1.4418e-16)
(-1.84594e-15 1.88625e-29 5.49887e-31 24.0685 4.42113e-15 -2.31985e-15 0.15188 -2.80745e-17 -1.44143e-17)
(2.61941e-15 0 -2.38138e-31 24.0685 -3.14103e-15 -1.30856e-17 0.15188 -2.75236e-16 1.44762e-16)
(0 1.51314e-29 2.36428e-31 23.8333 4.94032e-15 -2.22781e-15 0.15147 -2.77929e-17 -1.39396e-17)
(3.73427e-15 -7.56569e-30 -1.18214e-31 23.8333 -2.92967e-15 -9.90985e-18 0.15147 -2.78698e-16 1.45306e-16)
(9.44139e-16 9.40471e-30 2.54703e-31 23.5961 5.24002e-15 -2.14004e-15 0.151033 -3.51141e-17 -1.34944e-17)
(3.77655e-15 -1.50227e-29 -2.3473e-31 23.5961 -2.77864e-15 -1.55379e-17 0.151033 -2.82605e-16 1.45842e-16)
(0 2.98297e-29 8.15655e-31 23.3571 4.91481e-15 -2.05708e-15 0.150572 -3.20525e-17 -1.30669e-17)
(0 -2.98297e-29 -8.15655e-31 23.3571 -3.46404e-15 -1.98517e-17 0.150572 -2.86143e-16 1.46273e-16)
(9.65198e-16 -3.52324e-29 -7.92484e-31 23.1166 5.29891e-15 -1.97972e-15 0.150086 -3.14093e-17 -1.26805e-17)
(3.86079e-15 2.96155e-29 6.94113e-31 23.1166 -4.10375e-15 -8.24746e-18 0.150086 -2.91308e-16 1.46678e-16)
(2.86821e-15 1.42925e-29 5.23449e-31 22.8748 5.92315e-15 -1.9051e-15 0.149579 -3.75316e-17 -1.22755e-17)
(0 -2.94028e-29 -6.89128e-31 22.8748 -4.27109e-15 -2.33284e-18 0.149579 -2.98079e-16 1.47085e-16)
(0 2.18937e-29 2.2806e-31 22.632 5.71701e-15 -1.83126e-15 0.149051 -4.00727e-17 -1.18866e-17)
(3.94454e-15 -7.29792e-30 -1.1403e-31 22.632 -4.02354e-15 5.9959e-18 0.149051 -3.013e-16 1.47482e-16)
(0 -3.62276e-29 -7.92478e-31 22.3885 5.23246e-15 -1.76102e-15 0.148503 -3.53467e-17 -1.15169e-17)
(3.98622e-15 3.62276e-29 7.92478e-31 22.3885 -3.68243e-15 1.09889e-17 0.148503 -3.05401e-16 1.47897e-16)
(-1.00694e-15 -1.58059e-30 -1.22052e-32 22.1445 5.29941e-15 -1.69326e-15 0.147936 -3.41912e-17 -1.11488e-17)
(4.02775e-15 1.4387e-29 3.37194e-31 22.1445 -3.57843e-15 1.33012e-17 0.147936 -3.12873e-16 1.48305e-16)
(1.21604e-17 4.43815e-29 7.92117e-31 21.9003 5.82113e-15 -1.62807e-15 0.147353 -3.67594e-17 -1.0802e-17)
(0 -3.57091e-29 -7.81137e-31 21.9003 -3.6505e-15 1.05396e-17 0.147353 -3.19224e-16 1.48726e-16)
(0 -7.09054e-30 0 21.656 5.95451e-15 -1.56707e-15 0.146754 -4.17476e-17 -1.04792e-17)
(0 1.41811e-29 1.1079e-31 21.656 -3.43543e-15 5.38206e-18 0.146754 -3.2552e-16 1.49107e-16)
(9.90739e-16 -2.81585e-29 -7.69959e-31 21.4118 5.70367e-15 -1.51078e-15 0.146141 -3.9111e-17 -1.01861e-17)
(7.31213e-15 2.81585e-29 7.69959e-31 21.4118 -2.81719e-15 1.27385e-17 0.146141 -3.31216e-16 1.49492e-16)
(0 2.79563e-29 1.09204e-31 21.168 5.6466e-15 -1.45928e-15 0.145514 -3.89099e-17 -9.91908e-18)
(0 -2.09672e-29 0 21.168 -3.63151e-15 1.30227e-17 0.145514 -3.36211e-16 1.49929e-16)
(0 1.38778e-29 2.1684e-31 20.9248 5.65311e-15 -1.41325e-15 0.144875 -3.88898e-17 -9.69291e-18)
(-4.23309e-15 -6.93888e-30 -1.0842e-31 20.9248 -3.93408e-15 4.14933e-18 0.144875 -3.4319e-16 1.50364e-16)
(-1.06842e-15 2.62727e-29 3.17789e-31 20.6824 5.77118e-15 -1.3697e-15 0.144225 -3.95655e-17 -9.4521e-18)
(4.27366e-15 -1.37781e-29 -1.07642e-31 20.6824 -3.50403e-15 4.37025e-18 0.144225 -3.47686e-16 1.50766e-16)
(1.07851e-15 2.17542e-29 3.24624e-31 20.4409 5.46719e-15 -1.3299e-15 0.143566 -4.11107e-17 -9.27134e-18)
(0 -3.41979e-29 -6.41211e-31 20.4409 -3.93233e-15 1.37501e-17 0.143566 -3.53018e-16 1.51179e-16)
(2.04424e-15 -4.63466e-29 -8.45896e-31 20.2005 4.90551e-15 -1.2964e-15 0.142897 -3.58445e-17 -9.11253e-18)
(4.35428e-15 2.71619e-29 5.30506e-31 20.2005 -3.29515e-15 1.50565e-17 0.142897 -3.60987e-16 1.51635e-16)
(9.48811e-16 -2.02251e-29 -1.05339e-31 19.9613 4.66958e-15 -1.2642e-15 0.142221 -3.37135e-17 -8.94435e-18)
(0 2.02251e-29 1.05339e-31 19.9613 -3.57474e-15 9.58797e-18 0.142221 -3.67068e-16 1.52102e-16)
(0 1.33866e-29 6.27497e-31 19.7235 4.27449e-15 -1.23535e-15 0.141538 -3.29827e-17 -8.82817e-18)
(-4.43417e-15 -2.67732e-29 -7.32079e-31 19.7235 -4.36938e-15 9.16729e-18 0.141538 -3.76807e-16 1.52561e-16)
(-1.48491e-15 1.01601e-29 2.08669e-31 19.4872 4.10933e-15 -1.21021e-15 0.14085 -2.84982e-17 -8.70867e-18)
(4.47383e-15 0 0 19.4872 -3.57211e-15 6.70974e-18 0.14085 -3.83368e-16 1.5304e-16)
(-2.25666e-15 -8.59192e-30 -5.1265e-31 19.2526 3.84961e-15 -1.18676e-15 0.140156 -3.10596e-17 -8.61282e-18)
(4.51331e-15 1.3195e-29 7.21603e-31 19.2526 -2.57769e-15 4.91304e-18 0.140156 -3.90448e-16 1.53512e-16)
(0 -1.31003e-29 -3.07038e-31 19.0197 3.25327e-15 -1.17268e-15 0.139458 -2.51074e-17 -8.62737e-18)
(4.5526e-15 1.31003e-29 4.09384e-31 19.0197 -2.07188e-15 -1.21561e-17 0.139458 -3.94985e-16 1.54001e-16)
(0 -1.30062e-29 -4.06444e-31 18.7887 4.06846e-15 -1.16354e-15 0.138758 -2.27118e-17 -8.60205e-18)
(0 1.30062e-29 5.08055e-31 18.7887 -2.78884e-15 -2.73147e-17 0.138758 -3.96471e-16 1.54375e-16)
(0 3.2282e-29 9.07932e-31 18.5596 4.75889e-15 -1.15367e-15 0.138054 -3.75867e-17 -8.60481e-18)
(0 -3.2282e-29 -9.07932e-31 18.5596 -3.2432e-15 -2.93579e-17 0.138054 -4.01993e-16 1.54703e-16)
(-2.33465e-15 4.78448e-30 1.11144e-31 18.3326 4.36097e-15 -1.14863e-15 0.137349 -3.33764e-17 -8.65092e-18)
(0 6.41004e-30 1.00157e-31 18.3326 -2.92525e-15 -3.8875e-17 0.137349 -4.05111e-16 1.5498e-16)
(2.35391e-15 -3.66495e-29 -6.09643e-31 18.1077 3.95052e-15 -1.14697e-15 0.136643 -3.2133e-17 -8.70449e-18)
(4.70782e-15 2.5456e-29 3.97751e-31 18.1077 -2.24958e-15 -3.48971e-17 0.136643 -4.09992e-16 1.55171e-16)
(0 -2.52732e-29 -5.92342e-31 17.885 3.56145e-15 -1.14977e-15 0.135937 -2.76278e-17 -8.81936e-18)
(4.74614e-15 2.52732e-29 5.92342e-31 17.885 -1.67011e-15 -3.69949e-17 0.135937 -4.13536e-16 1.55309e-16)
(0 -1.88188e-29 -5.88088e-31 17.6645 4.2467e-15 -1.15318e-15 0.13523 -2.66482e-17 -8.88341e-18)
(0 1.88188e-29 7.84118e-31 17.6645 -2.40339e-15 -4.79248e-17 0.13523 -4.18197e-16 1.55306e-16)
(1.753e-15 -1.24558e-29 0 17.4464 5.09773e-15 -1.15688e-15 0.134525 -3.85864e-17 -9.0048e-18)
(4.82219e-15 1.24558e-29 9.73109e-32 17.4464 -2.76696e-15 -3.92664e-17 0.134525 -4.2417e-16 1.55202e-16)
(-1.21498e-15 -2.53235e-29 -4.72571e-31 17.2306 4.88165e-15 -1.16128e-15 0.133821 -4.02413e-17 -9.08121e-18)
(4.85992e-15 3.09159e-29 6.76285e-31 17.2306 -3.13782e-15 -3.52921e-17 0.133821 -4.28578e-16 1.55069e-16)
(0 0 -9.59183e-32 17.0171 4.46131e-15 -1.16797e-15 0.133118 -3.57692e-17 -9.24086e-18)
(0 0 2.87755e-31 17.0171 -3.64203e-15 -3.73928e-17 0.133118 -4.39186e-16 1.54867e-16)
(2.46739e-15 -2.3372e-29 -5.96315e-31 16.8061 4.63301e-15 -1.17784e-15 0.132418 -3.42079e-17 -9.36952e-18)
(4.93479e-15 1.21894e-29 3.80918e-31 16.8061 -2.86518e-15 -3.74733e-17 0.132418 -4.47605e-16 1.54633e-16)
(0 -2.42037e-29 -1.89091e-31 16.5976 5.3485e-15 -1.18587e-15 0.13172 -3.90112e-17 -9.50329e-18)
(0 2.42037e-29 3.78183e-31 16.5976 -3.89395e-15 -4.63706e-17 0.13172 -4.50571e-16 1.54346e-16)
(-1.25222e-15 2.96167e-29 1.047e-30 16.3916 5.73597e-15 -1.19386e-15 0.131025 -4.61323e-17 -9.6341e-18)
(0 -2.40299e-29 -9.38668e-31 16.3916 -4.65289e-15 -3.29512e-17 0.131025 -4.61362e-16 1.53936e-16)
(0 -2.38573e-29 -7.45542e-31 16.188 5.99321e-15 -1.20387e-15 0.130334 -4.5811e-17 -9.80352e-18)
(1.00912e-14 2.38573e-29 7.45542e-31 16.188 -3.61259e-15 -1.80762e-17 0.130334 -4.70094e-16 1.53574e-16)
(0 2.3686e-29 5.55141e-31 15.987 6.25299e-15 -1.21667e-15 0.129646 -5.09703e-17 -9.98274e-18)