/*--------------------------------*- C++ -*----------------------------------*\
| =========                 |                                                 |
| \\      /  F ield         | OpenFOAM: The Open Source CFD Toolbox           |
|  \\    /   O peration     | Version:  2012                                  |
|   \\  /    A nd           | Website:  www.openfoam.com                      |
|    \\/     M anipulation  |                                                 |
\*---------------------------------------------------------------------------*/
FoamFile
{
    version     2.0;
    format      ascii;
    class       volScalarField;
    location    "15000";
    object      k;
}
// * * * * * * * * * * * * * * * * * * * * * * * * * * * * * * * * * * * * * //

dimensions      [0 2 -2 0 0 0 0];


internalField   nonuniform List<scalar> 
5120
(
3.70929e-08
3.70929e-08
5.69375e-09
5.69375e-09
3.2401e-09
3.2401e-09
6.51709e-09
6.51709e-09
1.53914e-08
1.53914e-08
3.1958e-08
3.1958e-08
5.89296e-08
5.89296e-08
9.9388e-08
9.9388e-08
1.56726e-07
1.56726e-07
2.3463e-07
2.3463e-07
3.37079e-07
3.37079e-07
4.68341e-07
4.68341e-07
6.32982e-07
6.32982e-07
8.3587e-07
8.3587e-07
1.08218e-06
1.08218e-06
1.37741e-06
1.37741e-06
1.72737e-06
1.72737e-06
2.13822e-06
2.13822e-06
2.61646e-06
2.61646e-06
3.16895e-06
3.16895e-06
3.8029e-06
3.8029e-06
4.52592e-06
4.52592e-06
5.34599e-06
5.34599e-06
6.27151e-06
6.27151e-06
7.3113e-06
7.3113e-06
8.47457e-06
8.47457e-06
9.77102e-06
9.77102e-06
1.12108e-05
1.12108e-05
1.28045e-05
1.28045e-05
1.45631e-05
1.45631e-05
1.64984e-05
1.64984e-05
1.86223e-05
1.86223e-05
2.09475e-05
2.09475e-05
2.34871e-05
2.34871e-05
2.62549e-05
2.62549e-05
2.92652e-05
2.92652e-05
3.25327e-05
3.25327e-05
3.60729e-05
3.60729e-05
3.99019e-05
3.99019e-05
4.40364e-05
4.40364e-05
4.84936e-05
4.84936e-05
5.32914e-05
5.32914e-05
5.84485e-05
5.84485e-05
6.3984e-05
6.3984e-05
6.99178e-05
6.99178e-05
7.62705e-05
7.62705e-05
8.30631e-05
8.30631e-05
9.03177e-05
9.03177e-05
9.80566e-05
9.80566e-05
0.000106303
0.000106303
0.000115081
0.000115081
0.000124414
0.000124414
0.000134329
0.000134329
0.000144849
0.000144849
0.000156002
0.000156002
0.000167814
0.000167814
0.000180313
0.000180313
0.000193526
0.000193526
0.00020748
0.00020748
0.000222205
0.000222205
0.000237729
0.000237729
0.000254081
0.000254081
0.00027129
0.00027129
0.000289386
0.000289386
0.000308396
0.000308396
0.00032835
0.00032835
0.000349277
0.000349277
0.000371206
0.000371206
0.000394163
0.000394163
0.000418177
0.000418177
0.000443274
0.000443274
0.00046948
0.00046948
0.00049682
0.00049682
0.000525317
0.000525317
0.000554995
0.000554995
0.000585872
0.000585872
0.00061797
0.00061797
0.000651306
0.000651306
0.000685896
0.000685896
0.000721752
0.000721752
0.000758888
0.000758888
0.000797311
0.000797311
0.00083703
0.00083703
0.000878047
0.000878047
0.000920365
0.000920365
0.000963982
0.000963982
0.0010089
0.0010089
0.0010551
0.0010551
0.00110258
0.00110258
0.00115132
0.00115132
0.00120132
0.00120132
0.00125254
0.00125254
0.00130498
0.00130498
0.00135859
0.00135859
0.00141337
0.00141337
0.00146927
0.00146927
0.00152626
0.00152626
0.00158431
0.00158431
0.00164337
0.00164337
0.00170342
0.00170342
0.00176439
0.00176439
0.00182626
0.00182626
0.00188897
0.00188897
0.00195248
0.00195248
0.00201673
0.00201673
0.00208167
0.00208167
0.00214726
0.00214726
0.00221344
0.00221344
0.00228015
0.00228015
0.00234734
0.00234734
0.00241497
0.00241497
0.00248296
0.00248296
0.00255128
0.00255128
0.00261986
0.00261986
0.00268865
0.00268865
0.00275761
0.00275761
0.00282666
0.00282666
0.00289578
0.00289578
0.0029649
0.0029649
0.00303397
0.00303397
0.00310296
0.00310296
0.0031718
0.0031718
0.00324046
0.00324046
0.00330889
0.00330889
0.00337705
0.00337705
0.0034449
0.0034449
0.0035124
0.0035124
0.0035795
0.0035795
0.00364618
0.00364618
0.0037124
0.0037124
0.00377812
0.00377812
0.00384332
0.00384332
0.00390795
0.00390795
0.00397201
0.00397201
0.00403545
0.00403545
0.00409825
0.00409825
0.00416039
0.00416039
0.00422184
0.00422184
0.00428259
0.00428259
0.00434261
0.00434261
0.00440189
0.00440189
0.00446041
0.00446041
0.00451814
0.00451814
0.00457509
0.00457509
0.00463123
0.00463123
0.00468655
0.00468655
0.00474104
0.00474104
0.00479468
0.00479468
0.00484748
0.00484748
0.00489942
0.00489942
0.00495049
0.00495049
0.00500069
0.00500069
0.00505002
0.00505002
0.00509845
0.00509845
0.005146
0.005146
0.00519266
0.00519266
0.00523843
0.00523843
0.00528329
0.00528329
0.00532726
0.00532726
0.00537033
0.00537033
0.0054125
0.0054125
0.00545376
0.00545376
0.00549413
0.00549413
0.0055336
0.0055336
0.00557217
0.00557217
0.00560984
0.00560984
0.00564662
0.00564662
0.00568251
0.00568251
0.00571751
0.00571751
0.00575162
0.00575162
0.00578485
0.00578485
0.0058172
0.0058172
0.00584868
0.00584868
0.00587928
0.00587928
0.00590902
0.00590902
0.0059379
0.0059379
0.00596592
0.00596592
0.00599309
0.00599309
0.00601941
0.00601941
0.00604489
0.00604489
0.00606953
0.00606953
0.00609334
0.00609334
0.00611633
0.00611633
0.00613849
0.00613849
0.00615985
0.00615985
0.0061804
0.0061804
0.00620014
0.00620014
0.00621909
0.00621909
0.00623725
0.00623725
0.00625463
0.00625463
0.00627124
0.00627124
0.00628707
0.00628707
0.00630215
0.00630215
0.00631646
0.00631646
0.00633003
0.00633003
0.00634285
0.00634285
0.00635494
0.00635494
0.0063663
0.0063663
0.00637694
0.00637694
0.00638686
0.00638686
0.00639607
0.00639607
0.00640458
0.00640458
0.0064124
0.0064124
0.00641953
0.00641953
0.00642598
0.00642598
0.00643175
0.00643175
0.00643686
0.00643686
0.0064413
0.0064413
0.0064451
0.0064451
0.00644824
0.00644824
0.00645075
0.00645075
0.00645263
0.00645263
0.00645388
0.00645388
0.00645451
0.00645451
0.00645454
0.00645454
0.00645395
0.00645395
0.00645278
0.00645278
0.00645101
0.00645101
0.00644865
0.00644865
0.00644573
0.00644573
0.00644223
0.00644223
0.00643817
0.00643817
0.00643356
0.00643356
0.00642839
0.00642839
0.00642269
0.00642269
0.00641645
0.00641645
0.00640969
0.00640969
0.0064024
0.0064024
0.0063946
0.0063946
0.00638629
0.00638629
0.00637748
0.00637748
0.00636818
0.00636818
0.0063584
0.0063584
0.00634813
0.00634813
0.00633739
0.00633739
0.00632618
0.00632618
0.00631452
0.00631452
0.0063024
0.0063024
0.00628984
0.00628984
0.00627684
0.00627684
0.0062634
0.0062634
0.00624954
0.00624954
0.00623526
0.00623526
0.00622056
0.00622056
0.00620546
0.00620546
0.00618997
0.00618997
0.00617407
0.00617407
0.00615779
0.00615779
0.00614113
0.00614113
0.0061241
0.0061241
0.0061067
0.0061067
0.00608894
0.00608894
0.00607082
0.00607082
0.00605235
0.00605235
0.00603355
0.00603355
0.0060144
0.0060144
0.00599493
0.00599493
0.00597514
0.00597514
0.00595502
0.00595502
0.0059346
0.0059346
0.00591387
0.00591387
0.00589284
0.00589284
0.00587152
0.00587152
0.00584991
0.00584991
0.00582802
0.00582802
0.00580586
0.00580586
0.00578343
0.00578343
0.00576073
0.00576073
0.00573778
0.00573778
0.00571457
0.00571457
0.00569112
0.00569112
0.00566743
0.00566743
0.00564351
0.00564351
0.00561935
0.00561935
0.00559498
0.00559498
0.00557038
0.00557038
0.00554558
0.00554558
0.00552057
0.00552057
0.00549535
0.00549535
0.00546994
0.00546994
0.00544435
0.00544435
0.00541856
0.00541856
0.0053926
0.0053926
0.00536646
0.00536646
0.00534015
0.00534015
0.00531368
0.00531368
0.00528706
0.00528706
0.00526027
0.00526027
0.00523334
0.00523334
0.00520627
0.00520627
0.00517905
0.00517905
0.0051517
0.0051517
0.00512423
0.00512423
0.00509663
0.00509663
0.00506891
0.00506891
0.00504107
0.00504107
0.00501313
0.00501313
0.00498508
0.00498508
0.00495693
0.00495693
0.00492868
0.00492868
0.00490034
0.00490034
0.00487192
0.00487192
0.00484341
0.00484341
0.00481483
0.00481483
0.00478617
0.00478617
0.00475744
0.00475744
0.00472864
0.00472864
0.00469978
0.00469978
0.00467087
0.00467087
0.0046419
0.0046419
0.00461289
0.00461289
0.00458383
0.00458383
0.00455472
0.00455472
0.00452559
0.00452559
0.00449641
0.00449641
0.00446721
0.00446721
0.00443798
0.00443798
0.00440873
0.00440873
0.00437946
0.00437946
0.00435018
0.00435018
0.00432089
0.00432089
0.00429158
0.00429158
0.00426228
0.00426228
0.00423297
0.00423297
0.00420366
0.00420366
0.00417436
0.00417436
0.00414507
0.00414507
0.0041158
0.0041158
0.00408654
0.00408654
0.00405729
0.00405729
0.00402807
0.00402807
0.00399887
0.00399887
0.0039697
0.0039697
0.00394057
0.00394057
0.00391146
0.00391146
0.00388239
0.00388239
0.00385336
0.00385336
0.00382438
0.00382438
0.00379544
0.00379544
0.00376654
0.00376654
0.0037377
0.0037377
0.00370891
0.00370891
0.00368017
0.00368017
0.00365149
0.00365149
0.00362287
0.00362287
0.00359432
0.00359432
0.00356583
0.00356583
0.0035374
0.0035374
0.00350905
0.00350905
0.00348077
0.00348077
0.00345256
0.00345256
0.00342443
0.00342443
0.00339637
0.00339637
0.0033684
0.0033684
0.00334051
0.00334051
0.0033127
0.0033127
0.00328498
0.00328498
0.00325734
0.00325734
0.0032298
0.0032298
0.00320235
0.00320235
0.00317499
0.00317499
0.00314773
0.00314773
0.00312056
0.00312056
0.0030935
0.0030935
0.00306653
0.00306653
0.00303966
0.00303966
0.0030129
0.0030129
0.00298624
0.00298624
0.00295969
0.00295969
0.00293325
0.00293325
0.00290691
0.00290691
0.00288069
0.00288069
0.00285457
0.00285457
0.00282857
0.00282857
0.00280269
0.00280269
0.00277692
0.00277692
0.00275126
0.00275126
0.00272572
0.00272572
0.00270031
0.00270031
0.00267501
0.00267501
0.00264983
0.00264983
0.00262477
0.00262477
0.00259984
0.00259984
0.00257503
0.00257503
0.00255035
0.00255035
0.00252579
0.00252579
0.00250135
0.00250135
0.00247705
0.00247705
0.00245287
0.00245287
0.00242882
0.00242882
0.0024049
0.0024049
0.00238111
0.00238111
0.00235745
0.00235745
0.00233392
0.00233392
0.00231052
0.00231052
0.00228726
0.00228726
0.00226413
0.00226413
0.00224113
0.00224113
0.00221827
0.00221827
0.00219554
0.00219554
0.00217294
0.00217294
0.00215048
0.00215048
0.00212816
0.00212816
0.00210597
0.00210597
0.00208392
0.00208392
0.00206201
0.00206201
0.00204023
0.00204023
0.00201859
0.00201859
0.00199709
0.00199709
0.00197572
0.00197572
0.0019545
0.0019545
0.00193341
0.00193341
0.00191246
0.00191246
0.00189165
0.00189165
0.00187098
0.00187098
0.00185044
0.00185044
0.00183005
0.00183005
0.00180979
0.00180979
0.00178968
0.00178968
0.0017697
0.0017697
0.00174986
0.00174986
0.00173017
0.00173017
0.00171061
0.00171061
0.00169119
0.00169119
0.00167191
0.00167191
0.00165276
0.00165276
0.00163376
0.00163376
0.0016149
0.0016149
0.00159618
0.00159618
0.00157759
0.00157759
0.00155914
0.00155914
0.00154084
0.00154084
0.00152267
0.00152267
0.00150464
0.00150464
0.00148675
0.00148675
0.00146899
0.00146899
0.00145138
0.00145138
0.0014339
0.0014339
0.00141656
0.00141656
0.00139936
0.00139936
0.00138229
0.00138229
0.00136537
0.00136537
0.00134858
0.00134858
0.00133192
0.00133192
0.00131541
0.00131541
0.00129902
0.00129902
0.00128278
0.00128278
0.00126667
0.00126667
0.0012507
0.0012507
0.00123486
0.00123486
0.00121916
0.00121916
0.0012036
0.0012036
0.00118817
0.00118817
0.00117287
0.00117287
0.00115771
0.00115771
0.00114268
0.00114268
0.00112779
0.00112779
0.00111303
0.00111303
0.0010984
0.0010984
0.00108391
0.00108391
0.00106955
0.00106955
0.00105532
0.00105532
0.00104123
0.00104123
0.00102727
0.00102727
0.00101344
0.00101344
0.000999748
0.000999748
0.000986185
0.000986185
0.000972753
0.000972753
0.000959454
0.000959454
0.000946286
0.000946286
0.00093325
0.00093325
0.000920345
0.000920345
0.000907571
0.000907571
0.000894928
0.000894928
0.000882417
0.000882417
0.000870036
0.000870036
0.000857786
0.000857786
0.000845666
0.000845666
0.000833677
0.000833677
0.000821818
0.000821818
0.00081009
0.00081009
0.000798492
0.000798492
0.000787024
0.000787024
0.000775686
0.000775686
0.000764479
0.000764479
0.000753401
0.000753401
0.000742454
0.000742454
0.000731636
0.000731636
0.000720949
0.000720949
0.000710391
0.000710391
0.000699964
0.000699964
0.000689666
0.000689666
0.000679498
0.000679498
0.000669461
0.000669461
0.000659553
0.000659553
0.000649775
0.000649775
0.000640127
0.000640127
0.000630609
0.000630609
0.000621221
0.000621221
0.000611963
0.000611963
0.000602835
0.000602835
0.000593837
0.000593837
0.000584969
0.000584969
0.000576231
0.000576231
0.000567623
0.000567623
0.000559145
0.000559145
0.000550797
0.000550797
0.000542579
0.000542579
0.000534491
0.000534491
0.000526532
0.000526532
0.000518703
0.000518703
0.000511004
0.000511004
0.000503434
0.000503434
0.000495993
0.000495993
0.000488681
0.000488681
0.000481499
0.000481499
0.000474445
0.000474445
0.00046752
0.00046752
0.000460722
0.000460722
0.000454053
0.000454053
0.000447511
0.000447511
0.000441096
0.000441096
0.000434808
0.000434808
0.000428646
0.000428646
0.00042261
0.00042261
0.000416699
0.000416699
0.000410913
0.000410913
0.000405251
0.000405251
0.000399712
0.000399712
0.000394295
0.000394295
0.000389
0.000389
0.000383826
0.000383826
0.000378772
0.000378772
0.000373838
0.000373838
0.000369021
0.000369021
0.000364321
0.000364321
0.000359737
0.000359737
0.000355268
0.000355268
0.000350913
0.000350913
0.00034667
0.00034667
0.000342537
0.000342537
0.000338515
0.000338515
0.0003346
0.0003346
0.000330793
0.000330793
0.00032709
0.00032709
0.000323492
0.000323492
0.000319995
0.000319995
0.000316599
0.000316599
0.000313301
0.000313301
0.000310101
0.000310101
0.000306996
0.000306996
0.000303984
0.000303984
0.000301064
0.000301064
0.000298234
0.000298234
0.000295492
0.000295492
0.000292836
0.000292836
0.000290265
0.000290265
0.000287775
0.000287775
0.000285366
0.000285366
0.000283035
0.000283035
0.000280781
0.000280781
0.000278602
0.000278602
0.000276495
0.000276495
0.000274458
0.000274458
0.000272491
0.000272491
0.00027059
0.00027059
0.000268754
0.000268754
0.000266981
0.000266981
0.00026527
0.00026527
0.000263617
0.000263617
0.000262022
0.000262022
0.000260483
0.000260483
0.000258997
0.000258997
0.000257564
0.000257564
0.000256181
0.000256181
0.000254846
0.000254846
0.000253559
0.000253559
0.000252317
0.000252317
0.000251118
0.000251118
0.000249962
0.000249962
0.000248847
0.000248847
0.000247771
0.000247771
0.000246732
0.000246732
0.00024573
0.00024573
0.000244763
0.000244763
0.000243829
0.000243829
0.000242928
0.000242928
0.000242058
0.000242058
0.000241217
0.000241217
0.000240406
0.000240406
0.000239622
0.000239622
0.000238864
0.000238864
0.000238132
0.000238132
0.000237425
0.000237425
0.00023674
0.00023674
0.000236079
0.000236079
0.000235439
0.000235439
0.000234819
0.000234819
0.00023422
0.00023422
0.00023364
0.00023364
0.000233079
0.000233079
0.000232535
0.000232535
0.000232008
0.000232008
0.000231498
0.000231498
0.000231004
0.000231004
0.000230525
0.000230525
0.000230061
0.000230061
0.000229612
0.000229612
0.000229176
0.000229176
0.000228754
0.000228754
0.000228346
0.000228346
0.00022795
0.00022795
0.000227567
0.000227567
0.000227196
0.000227196
0.000226838
0.000226838
0.000226491
0.000226491
0.000226156
0.000226156
0.000225833
0.000225833
0.000225522
0.000225522
0.000225223
0.000225223
0.000224935
0.000224935
0.000224659
0.000224659
0.000224394
0.000224394
0.000224142
0.000224142
0.000223902
0.000223902
0.000223673
0.000223673
0.000223458
0.000223458
0.000223255
0.000223255
0.000223065
0.000223065
0.000222888
0.000222888
0.000222725
0.000222725
0.000222577
0.000222577
0.000222442
0.000222442
0.000222323
0.000222323
0.000222219
0.000222219
0.000222131
0.000222131
0.000222059
0.000222059
0.000222005
0.000222005
0.000221968
0.000221968
0.000221949
0.000221949
3.70929e-08
3.70929e-08
5.69375e-09
5.69375e-09
3.2401e-09
3.2401e-09
6.51709e-09
6.51709e-09
1.53914e-08
1.53914e-08
3.1958e-08
3.1958e-08
5.89296e-08
5.89296e-08
9.9388e-08
9.9388e-08
1.56726e-07
1.56726e-07
2.3463e-07
2.3463e-07
3.37079e-07
3.37079e-07
4.68341e-07
4.68341e-07
6.32982e-07
6.32982e-07
8.3587e-07
8.3587e-07
1.08218e-06
1.08218e-06
1.37741e-06
1.37741e-06
1.72737e-06
1.72737e-06
2.13822e-06
2.13822e-06
2.61646e-06
2.61646e-06
3.16895e-06
3.16895e-06
3.8029e-06
3.8029e-06
4.52592e-06
4.52592e-06
5.34599e-06
5.34599e-06
6.27151e-06
6.27151e-06
7.3113e-06
7.3113e-06
8.47457e-06
8.47457e-06
9.77102e-06
9.77102e-06
1.12108e-05
1.12108e-05
1.28045e-05
1.28045e-05
1.45631e-05
1.45631e-05
1.64984e-05
1.64984e-05
1.86223e-05
1.86223e-05
2.09475e-05
2.09475e-05
2.34871e-05
2.34871e-05
2.62549e-05
2.62549e-05
2.92652e-05
2.92652e-05
3.25327e-05
3.25327e-05
3.60729e-05
3.60729e-05
3.99019e-05
3.99019e-05
4.40364e-05
4.40364e-05
4.84936e-05
4.84936e-05
5.32914e-05
5.32914e-05
5.84485e-05
5.84485e-05
6.3984e-05
6.3984e-05
6.99178e-05
6.99178e-05
7.62705e-05
7.62705e-05
8.30631e-05
8.30631e-05
9.03177e-05
9.03177e-05
9.80566e-05
9.80566e-05
0.000106303
0.000106303
0.000115081
0.000115081
0.000124414
0.000124414
0.000134329
0.000134329
0.000144849
0.000144849
0.000156002
0.000156002
0.000167814
0.000167814
0.000180313
0.000180313
0.000193526
0.000193526
0.00020748
0.00020748
0.000222205
0.000222205
0.000237729
0.000237729
0.000254081
0.000254081
0.00027129
0.00027129
0.000289386
0.000289386
0.000308396
0.000308396
0.00032835
0.00032835
0.000349277
0.000349277
0.000371206
0.000371206
0.000394163
0.000394163
0.000418177
0.000418177
0.000443274
0.000443274
0.00046948
0.00046948
0.00049682
0.00049682
0.000525317
0.000525317
0.000554995
0.000554995
0.000585872
0.000585872
0.00061797
0.00061797
0.000651306
0.000651306
0.000685896
0.000685896
0.000721752
0.000721752
0.000758888
0.000758888
0.000797311
0.000797311
0.00083703
0.00083703
0.000878047
0.000878047
0.000920365
0.000920365
0.000963982
0.000963982
0.0010089
0.0010089
0.0010551
0.0010551
0.00110258
0.00110258
0.00115132
0.00115132
0.00120132
0.00120132
0.00125254
0.00125254
0.00130498
0.00130498
0.00135859
0.00135859
0.00141337
0.00141337
0.00146927
0.00146927
0.00152626
0.00152626
0.00158431
0.00158431
0.00164337
0.00164337
0.00170342
0.00170342
0.00176439
0.00176439
0.00182626
0.00182626
0.00188897
0.00188897
0.00195248
0.00195248
0.00201673
0.00201673
0.00208167
0.00208167
0.00214726
0.00214726
0.00221344
0.00221344
0.00228015
0.00228015
0.00234734
0.00234734
0.00241497
0.00241497
0.00248296
0.00248296
0.00255128
0.00255128
0.00261986
0.00261986
0.00268865
0.00268865
0.00275761
0.00275761
0.00282666
0.00282666
0.00289578
0.00289578
0.0029649
0.0029649
0.00303397
0.00303397
0.00310296
0.00310296
0.0031718
0.0031718
0.00324046
0.00324046
0.00330889
0.00330889
0.00337705
0.00337705
0.0034449
0.0034449
0.0035124
0.0035124
0.0035795
0.0035795
0.00364618
0.00364618
0.0037124
0.0037124
0.00377812
0.00377812
0.00384332
0.00384332
0.00390795
0.00390795
0.00397201
0.00397201
0.00403545
0.00403545
0.00409825
0.00409825
0.00416039
0.00416039
0.00422184
0.00422184
0.00428259
0.00428259
0.00434261
0.00434261
0.00440189
0.00440189
0.00446041
0.00446041
0.00451814
0.00451814
0.00457509
0.00457509
0.00463123
0.00463123
0.00468655
0.00468655
0.00474104
0.00474104
0.00479468
0.00479468
0.00484748
0.00484748
0.00489942
0.00489942
0.00495049
0.00495049
0.00500069
0.00500069
0.00505002
0.00505002
0.00509845
0.00509845
0.005146
0.005146
0.00519266
0.00519266
0.00523843
0.00523843
0.00528329
0.00528329
0.00532726
0.00532726
0.00537033
0.00537033
0.0054125
0.0054125
0.00545376
0.00545376
0.00549413
0.00549413
0.0055336
0.0055336
0.00557217
0.00557217
0.00560984
0.00560984
0.00564662
0.00564662
0.00568251
0.00568251
0.00571751
0.00571751
0.00575162
0.00575162
0.00578485
0.00578485
0.0058172
0.0058172
0.00584868
0.00584868
0.00587928
0.00587928
0.00590902
0.00590902
0.0059379
0.0059379
0.00596592
0.00596592
0.00599309
0.00599309
0.00601941
0.00601941
0.00604489
0.00604489
0.00606953
0.00606953
0.00609334
0.00609334
0.00611633
0.00611633
0.00613849
0.00613849
0.00615985
0.00615985
0.0061804
0.0061804
0.00620014
0.00620014
0.00621909
0.00621909
0.00623725
0.00623725
0.00625463
0.00625463
0.00627124
0.00627124
0.00628707
0.00628707
0.00630215
0.00630215
0.00631646
0.00631646
0.00633003
0.00633003
0.00634285
0.00634285
0.00635494
0.00635494
0.0063663
0.0063663
0.00637694
0.00637694
0.00638686
0.00638686
0.00639607
0.00639607
0.00640458
0.00640458
0.0064124
0.0064124
0.00641953
0.00641953
0.00642598
0.00642598
0.00643175
0.00643175
0.00643686
0.00643686
0.0064413
0.0064413
0.0064451
0.0064451
0.00644824
0.00644824
0.00645075
0.00645075
0.00645263
0.00645263
0.00645388
0.00645388
0.00645451
0.00645451
0.00645454
0.00645454
0.00645395
0.00645395
0.00645278
0.00645278
0.00645101
0.00645101
0.00644865
0.00644865
0.00644573
0.00644573
0.00644223
0.00644223
0.00643817
0.00643817
0.00643356
0.00643356
0.00642839
0.00642839
0.00642269
0.00642269
0.00641645
0.00641645
0.00640969
0.00640969
0.0064024
0.0064024
0.0063946
0.0063946
0.00638629
0.00638629
0.00637748
0.00637748
0.00636818
0.00636818
0.0063584
0.0063584
0.00634813
0.00634813
0.00633739
0.00633739
0.00632618
0.00632618
0.00631452
0.00631452
0.0063024
0.0063024
0.00628984
0.00628984
0.00627684
0.00627684
0.0062634
0.0062634
0.00624954
0.00624954
0.00623526
0.00623526
0.00622056
0.00622056
0.00620546
0.00620546
0.00618997
0.00618997
0.00617407
0.00617407
0.00615779
0.00615779
0.00614113
0.00614113
0.0061241
0.0061241
0.0061067
0.0061067
0.00608894
0.00608894
0.00607082
0.00607082
0.00605235
0.00605235
0.00603355
0.00603355
0.0060144
0.0060144
0.00599493
0.00599493
0.00597514
0.00597514
0.00595502
0.00595502
0.0059346
0.0059346
0.00591387
0.00591387
0.00589284
0.00589284
0.00587152
0.00587152
0.00584991
0.00584991
0.00582802
0.00582802
0.00580586
0.00580586
0.00578343
0.00578343
0.00576073
0.00576073
0.00573778
0.00573778
0.00571457
0.00571457
0.00569112
0.00569112
0.00566743
0.00566743
0.00564351
0.00564351
0.00561935
0.00561935
0.00559498
0.00559498
0.00557038
0.00557038
0.00554558
0.00554558
0.00552057
0.00552057
0.00549535
0.00549535
0.00546994
0.00546994
0.00544435
0.00544435
0.00541856
0.00541856
0.0053926
0.0053926
0.00536646
0.00536646
0.00534015
0.00534015
0.00531368
0.00531368
0.00528706
0.00528706
0.00526027
0.00526027
0.00523334
0.00523334
0.00520627
0.00520627
0.00517905
0.00517905
0.0051517
0.0051517
0.00512423
0.00512423
0.00509663
0.00509663
0.00506891
0.00506891
0.00504107
0.00504107
0.00501313
0.00501313
0.00498508
0.00498508
0.00495693
0.00495693
0.00492868
0.00492868
0.00490034
0.00490034
0.00487192
0.00487192
0.00484341
0.00484341
0.00481483
0.00481483
0.00478617
0.00478617
0.00475744
0.00475744
0.00472864
0.00472864
0.00469978
0.00469978
0.00467087
0.00467087
0.0046419
0.0046419
0.00461289
0.00461289
0.00458383
0.00458383
0.00455472
0.00455472
0.00452559
0.00452559
0.00449641
0.00449641
0.00446721
0.00446721
0.00443798
0.00443798
0.00440873
0.00440873
0.00437946
0.00437946
0.00435018
0.00435018
0.00432089
0.00432089
0.00429158
0.00429158
0.00426228
0.00426228
0.00423297
0.00423297
0.00420366
0.00420366
0.00417436
0.00417436
0.00414507
0.00414507
0.0041158
0.0041158
0.00408654
0.00408654
0.00405729
0.00405729
0.00402807
0.00402807
0.00399887
0.00399887
0.0039697
0.0039697
0.00394057
0.00394057
0.00391146
0.00391146
0.00388239
0.00388239
0.00385336
0.00385336
0.00382438
0.00382438
0.00379544
0.00379544
0.00376654
0.00376654
0.0037377
0.0037377
0.00370891
0.00370891
0.00368017
0.00368017
0.00365149
0.00365149
0.00362287
0.00362287
0.00359432
0.00359432
0.00356583
0.00356583
0.0035374
0.0035374
0.00350905
0.00350905
0.00348077
0.00348077
0.00345256
0.00345256
0.00342443
0.00342443
0.00339637
0.00339637
0.0033684
0.0033684
0.00334051
0.00334051
0.0033127
0.0033127
0.00328498
0.00328498
0.00325734
0.00325734
0.0032298
0.0032298
0.00320235
0.00320235
0.00317499
0.00317499
0.00314773
0.00314773
0.00312056
0.00312056
0.0030935
0.0030935
0.00306653
0.00306653
0.00303966
0.00303966
0.0030129
0.0030129
0.00298624
0.00298624
0.00295969
0.00295969
0.00293325
0.00293325
0.00290691
0.00290691
0.00288069
0.00288069
0.00285457
0.00285457
0.00282857
0.00282857
0.00280269
0.00280269
0.00277692
0.00277692
0.00275126
0.00275126
0.00272572
0.00272572
0.00270031
0.00270031
0.00267501
0.00267501
0.00264983
0.00264983
0.00262477
0.00262477
0.00259984
0.00259984
0.00257503
0.00257503
0.00255035
0.00255035
0.00252579
0.00252579
0.00250135
0.00250135
0.00247705
0.00247705
0.00245287
0.00245287
0.00242882
0.00242882
0.0024049
0.0024049
0.00238111
0.00238111
0.00235745
0.00235745
0.00233392
0.00233392
0.00231052
0.00231052
0.00228726
0.00228726
0.00226413
0.00226413
0.00224113
0.00224113
0.00221827
0.00221827
0.00219554
0.00219554
0.00217294
0.00217294
0.00215048
0.00215048
0.00212816
0.00212816
0.00210597
0.00210597
0.00208392
0.00208392
0.00206201
0.00206201
0.00204023
0.00204023
0.00201859
0.00201859
0.00199709
0.00199709
0.00197572
0.00197572
0.0019545
0.0019545
0.00193341
0.00193341
0.00191246
0.00191246
0.00189165
0.00189165
0.00187098
0.00187098
0.00185044
0.00185044
0.00183005
0.00183005
0.00180979
0.00180979
0.00178968
0.00178968
0.0017697
0.0017697
0.00174986
0.00174986
0.00173017
0.00173017
0.00171061
0.00171061
0.00169119
0.00169119
0.00167191
0.00167191
0.00165276
0.00165276
0.00163376
0.00163376
0.0016149
0.0016149
0.00159618
0.00159618
0.00157759
0.00157759
0.00155914
0.00155914
0.00154084
0.00154084
0.00152267
0.00152267
0.00150464
0.00150464
0.00148675
0.00148675
0.00146899
0.00146899
0.00145138
0.00145138
0.0014339
0.0014339
0.00141656
0.00141656
0.00139936
0.00139936
0.00138229
0.00138229
0.00136537
0.00136537
0.00134858
0.00134858
0.00133192
0.00133192
0.00131541
0.00131541
0.00129902
0.00129902
0.00128278
0.00128278
0.00126667
0.00126667
0.0012507
0.0012507
0.00123486
0.00123486
0.00121916
0.00121916
0.0012036
0.0012036
0.00118817
0.00118817
0.00117287
0.00117287
0.00115771
0.00115771
0.00114268
0.00114268
0.00112779
0.00112779
0.00111303
0.00111303
0.0010984
0.0010984
0.00108391
0.00108391
0.00106955
0.00106955
0.00105532
0.00105532
0.00104123
0.00104123
0.00102727
0.00102727
0.00101344
0.00101344
0.000999748
0.000999748
0.000986185
0.000986185
0.000972753
0.000972753
0.000959454
0.000959454
0.000946286
0.000946286
0.00093325
0.00093325
0.000920345
0.000920345
0.000907571
0.000907571
0.000894928
0.000894928
0.000882417
0.000882417
0.000870036
0.000870036
0.000857786
0.000857786
0.000845666
0.000845666
0.000833677
0.000833677
0.000821818
0.000821818
0.00081009
0.00081009
0.000798492
0.000798492
0.000787024
0.000787024
0.000775686
0.000775686
0.000764479
0.000764479
0.000753401
0.000753401
0.000742454
0.000742454
0.000731636
0.000731636
0.000720949
0.000720949
0.000710391
0.000710391
0.000699964
0.000699964
0.000689666
0.000689666
0.000679498
0.000679498
0.000669461
0.000669461
0.000659553
0.000659553
0.000649775
0.000649775
0.000640127
0.000640127
0.000630609
0.000630609
0.000621221
0.000621221
0.000611963
0.000611963
0.000602835
0.000602835
0.000593837
0.000593837
0.000584969
0.000584969
0.000576231
0.000576231
0.000567623
0.000567623
0.000559145
0.000559145
0.000550797
0.000550797
0.000542579
0.000542579
0.000534491
0.000534491
0.000526532
0.000526532
0.000518703
0.000518703
0.000511004
0.000511004
0.000503434
0.000503434
0.000495993
0.000495993
0.000488681
0.000488681
0.000481499
0.000481499
0.000474445
0.000474445
0.00046752
0.00046752
0.000460722
0.000460722
0.000454053
0.000454053
0.000447511
0.000447511
0.000441096
0.000441096
0.000434808
0.000434808
0.000428646
0.000428646
0.00042261
0.00042261
0.000416699
0.000416699
0.000410913
0.000410913
0.000405251
0.000405251
0.000399712
0.000399712
0.000394295
0.000394295
0.000389
0.000389
0.000383826
0.000383826
0.000378772
0.000378772
0.000373838
0.000373838
0.000369021
0.000369021
0.000364321
0.000364321
0.000359737
0.000359737
0.000355268
0.000355268
0.000350913
0.000350913
0.00034667
0.00034667
0.000342537
0.000342537
0.000338515
0.000338515
0.0003346
0.0003346
0.000330793
0.000330793
0.00032709
0.00032709
0.000323492
0.000323492
0.000319995
0.000319995
0.000316599
0.000316599
0.000313301
0.000313301
0.000310101
0.000310101
0.000306996
0.000306996
0.000303984
0.000303984
0.000301064
0.000301064
0.000298234
0.000298234
0.000295492
0.000295492
0.000292836
0.000292836
0.000290265
0.000290265
0.000287775
0.000287775
0.000285366
0.000285366
0.000283035
0.000283035
0.000280781
0.000280781
0.000278602
0.000278602
0.000276495
0.000276495
0.000274458
0.000274458
0.000272491
0.000272491
0.00027059
0.00027059
0.000268754
0.000268754
0.000266981
0.000266981
0.00026527
0.00026527
0.000263617
0.000263617
0.000262022
0.000262022
0.000260483
0.000260483
0.000258997
0.000258997
0.000257564
0.000257564
0.000256181
0.000256181
0.000254846
0.000254846
0.000253559
0.000253559
0.000252317
0.000252317
0.000251118
0.000251118
0.000249962
0.000249962
0.000248847
0.000248847
0.000247771
0.000247771
0.000246732
0.000246732
0.00024573
0.00024573
0.000244763
0.000244763
0.000243829
0.000243829
0.000242928
0.000242928
0.000242058
0.000242058
0.000241217
0.000241217
0.000240406
0.000240406
0.000239622
0.000239622
0.000238864
0.000238864
0.000238132
0.000238132
0.000237425
0.000237425
0.00023674
0.00023674
0.000236079
0.000236079
0.000235439
0.000235439
0.000234819
0.000234819
0.00023422
0.00023422
0.00023364
0.00023364
0.000233079
0.000233079
0.000232535
0.000232535
0.000232008
0.000232008
0.000231498
0.000231498
0.000231004
0.000231004
0.000230525
0.000230525
0.000230061
0.000230061
0.000229612
0.000229612
0.000229176
0.000229176
0.000228754
0.000228754
0.000228346
0.000228346
0.00022795
0.00022795
0.000227567
0.000227567
0.000227196
0.000227196
0.000226838
0.000226838
0.000226491
0.000226491
0.000226156
0.000226156
0.000225833
0.000225833
0.000225522
0.000225522
0.000225223
0.000225223
0.000224935
0.000224935
0.000224659
0.000224659
0.000224394
0.000224394
0.000224142
0.000224142
0.000223902
0.000223902
0.000223673
0.000223673
0.000223458
0.000223458
0.000223255
0.000223255
0.000223065
0.000223065
0.000222888
0.000222888
0.000222725
0.000222725
0.000222577
0.000222577
0.000222442
0.000222442
0.000222323
0.000222323
0.000222219
0.000222219
0.000222131
0.000222131
0.000222059
0.000222059
0.000222005
0.000222005
0.000221968
0.000221968
0.000221949
0.000221949
0.000221949
0.000221949
0.000221968
0.000221968
0.000222005
0.000222005
0.000222059
0.000222059
0.000222131
0.000222131
0.000222219
0.000222219
0.000222323
0.000222323
0.000222442
0.000222442
0.000222577
0.000222577
0.000222725
0.000222725
0.000222888