/*--------------------------------*- C++ -*----------------------------------*\
| =========                 |                                                 |
| \\      /  F ield         | OpenFOAM: The Open Source CFD Toolbox           |
|  \\    /   O peration     | Version:  2012                                  |
|   \\  /    A nd           | Website:  www.openfoam.com                      |
|    \\/     M anipulation  |                                                 |
\*---------------------------------------------------------------------------*/
FoamFile
{
    version     2.0;
    format      ascii;
    class       volScalarField;
    location    "15000";
    object      p;
}
// * * * * * * * * * * * * * * * * * * * * * * * * * * * * * * * * * * * * * //

dimensions      [0 2 -2 0 0 0 0];


internalField   nonuniform List<scalar> 
5120
(
7.18245e-15
7.59807e-14
1.51196e-14
7.59807e-14
1.64895e-14
7.59806e-14
1.6133e-14
7.59805e-14
1.60605e-14
7.59805e-14
1.62001e-14
7.59804e-14
1.63527e-14
7.59804e-14
1.64879e-14
7.59803e-14
1.66161e-14
7.59802e-14
1.67421e-14
7.59801e-14
1.68667e-14
7.598e-14
1.69904e-14
7.59799e-14
1.71132e-14
7.59798e-14
1.72354e-14
7.59797e-14
1.73569e-14
7.59796e-14
1.74775e-14
7.59795e-14
1.75974e-14
7.59794e-14
1.77164e-14
7.59793e-14
1.78346e-14
7.59792e-14
1.7952e-14
7.5979e-14
1.80686e-14
7.59789e-14
1.81843e-14
7.59788e-14
1.82992e-14
7.59786e-14
1.84133e-14
7.59785e-14
1.85267e-14
7.59783e-14
1.86393e-14
7.5978e-14
1.8751e-14
7.59777e-14
1.88621e-14
7.59773e-14
1.89724e-14
7.5977e-14
1.90819e-14
7.59766e-14
1.91907e-14
7.59762e-14
1.92987e-14
7.59758e-14
1.94059e-14
7.59753e-14
1.95125e-14
7.59748e-14
1.96183e-14
7.59743e-14
1.97234e-14
7.59737e-14
1.98277e-14
7.59732e-14
1.99315e-14
7.59726e-14
2.00344e-14
7.59719e-14
2.01366e-14
7.59713e-14
2.02381e-14
7.59707e-14
2.0339e-14
7.597e-14
2.04391e-14
7.59692e-14
2.05386e-14
7.59684e-14
2.06374e-14
7.59676e-14
2.07355e-14
7.59668e-14
2.08329e-14
7.5966e-14
2.09295e-14
7.59653e-14
2.10256e-14
7.59645e-14
2.1121e-14
7.59636e-14
2.12159e-14
7.59627e-14
2.13102e-14
7.59617e-14
2.1404e-14
7.59607e-14
2.14972e-14
7.59596e-14
2.15898e-14
7.59585e-14
2.16819e-14
7.59572e-14
2.17733e-14
7.59561e-14
2.18642e-14
7.59549e-14
2.19545e-14
7.59535e-14
2.20443e-14
7.59522e-14
2.21335e-14
7.5951e-14
2.22223e-14
7.59497e-14
2.23105e-14
7.59483e-14
2.23983e-14
7.59468e-14
2.24854e-14
7.59455e-14
2.2572e-14
7.59443e-14
2.26581e-14
7.59431e-14
2.27438e-14
7.59419e-14
2.28291e-14
7.59408e-14
2.29137e-14
7.59398e-14
2.2998e-14
7.59387e-14
2.30819e-14
7.59374e-14
2.31655e-14
7.59362e-14
2.32488e-14
7.5935e-14
2.3332e-14
7.59336e-14
2.34148e-14
7.59321e-14
2.34974e-14
7.59304e-14
2.358e-14
7.59287e-14
2.36624e-14
7.59269e-14
2.37446e-14
7.59249e-14
2.38264e-14
7.59229e-14
2.39082e-14
7.59208e-14
2.39898e-14
7.59188e-14
2.40711e-14
7.59164e-14
2.41522e-14
7.59138e-14
2.42332e-14
7.59114e-14
2.43142e-14
7.59092e-14
2.43949e-14
7.5907e-14
2.44755e-14
7.59047e-14
2.45561e-14
7.59023e-14
2.46369e-14
7.58997e-14
2.47177e-14
7.58971e-14
2.47985e-14
7.58943e-14
2.48792e-14
7.58916e-14
2.49597e-14
7.58888e-14
2.50404e-14
7.58864e-14
2.51211e-14
7.5884e-14
2.52019e-14
7.58812e-14
2.52827e-14
7.58781e-14
2.53638e-14
7.58751e-14
2.54453e-14
7.5872e-14
2.55271e-14
7.58685e-14
2.56091e-14
7.58647e-14
2.56913e-14
7.58609e-14
2.57742e-14
7.58569e-14
2.58569e-14
7.58528e-14
2.59404e-14
7.58484e-14
2.6024e-14
7.58439e-14
2.61084e-14
7.58392e-14
2.61931e-14
7.58341e-14
2.62781e-14
7.58293e-14
2.63638e-14
7.5824e-14
2.64497e-14
7.58187e-14
2.65366e-14
7.58132e-14
2.66235e-14
7.58078e-14
2.67108e-14
7.58023e-14
2.67988e-14
7.57969e-14
2.68873e-14
7.57918e-14
2.69757e-14
7.57864e-14
2.70646e-14
7.57809e-14
2.71539e-14
7.57761e-14
2.72437e-14
7.57711e-14
2.73339e-14
7.57657e-14
2.74243e-14
7.57602e-14
2.75148e-14
7.57553e-14
2.76063e-14
7.57505e-14
2.76986e-14
7.57454e-14
2.77912e-14
7.57401e-14
2.78847e-14
7.57346e-14
2.79784e-14
7.57296e-14
2.80733e-14
7.57241e-14
2.81694e-14
7.5718e-14
2.82662e-14
7.57113e-14
2.83636e-14
7.5704e-14
2.84623e-14
7.56965e-14
2.85623e-14
7.56882e-14
2.86631e-14
7.5679e-14
2.8765e-14
7.56694e-14
2.88673e-14
7.56595e-14
2.89708e-14
7.56489e-14
2.90755e-14
7.5638e-14
2.91813e-14
7.5626e-14
2.92871e-14
7.56142e-14
2.93942e-14
7.56026e-14
2.95015e-14
7.55905e-14
2.96094e-14
7.55775e-14
2.97179e-14
7.5565e-14
2.9827e-14
7.55524e-14
2.99365e-14
7.55391e-14
3.00469e-14
7.55258e-14
3.01574e-14
7.55133e-14
3.02688e-14
7.55003e-14
3.03803e-14
7.54876e-14
3.04928e-14
7.54753e-14
3.06061e-14
7.54622e-14
3.072e-14
7.54484e-14
3.08349e-14
7.54343e-14
3.09498e-14
7.54212e-14
3.1066e-14
7.54089e-14
3.11834e-14
7.53943e-14
3.13008e-14
7.53802e-14
3.14187e-14
7.53668e-14
3.15381e-14
7.5354e-14
3.16578e-14
7.53404e-14
3.17776e-14
7.53265e-14
3.18979e-14
7.53128e-14
3.20199e-14
7.52994e-14
3.21423e-14
7.52844e-14
3.22646e-14
7.52704e-14
3.23881e-14
7.52566e-14
3.25123e-14
7.52422e-14
3.26377e-14
7.5227e-14
3.27635e-14
7.52121e-14
3.28898e-14
7.5197e-14
3.3017e-14
7.51822e-14
3.31447e-14
7.51685e-14
3.32726e-14
7.51562e-14
3.3402e-14
7.51447e-14
3.35324e-14
7.51311e-14
3.36629e-14
7.51178e-14
3.37938e-14
7.51046e-14
3.39241e-14
7.50933e-14
3.40547e-14
7.50825e-14
3.41856e-14
7.50698e-14
3.43168e-14
7.50571e-14
3.44488e-14
7.50462e-14
3.45809e-14
7.50355e-14
3.47126e-14
7.50247e-14
3.48444e-14
7.50134e-14
3.49769e-14
7.50029e-14
3.51088e-14
7.49918e-14
3.52401e-14
7.49815e-14
3.53726e-14
7.49707e-14
3.55056e-14
7.49602e-14
3.56379e-14
7.49498e-14
3.57701e-14
7.4939e-14
3.59033e-14
7.49292e-14
3.60363e-14
7.49197e-14
3.6169e-14
7.49098e-14
3.63021e-14
7.48983e-14
3.64348e-14
7.48872e-14
3.6567e-14
7.48765e-14
3.66995e-14
7.48669e-14
3.68308e-14
7.48598e-14
3.69622e-14
7.48525e-14
3.70944e-14
7.48424e-14
3.72252e-14
7.48336e-14
3.7356e-14
7.4826e-14
3.74861e-14
7.48191e-14
3.76161e-14
7.48114e-14
3.77465e-14
7.48045e-14
3.78761e-14
7.47984e-14
3.80068e-14
7.4793e-14
3.814e-14
7.4785e-14
3.82741e-14
7.47717e-14
3.84099e-14
7.47572e-14
3.85459e-14
7.47449e-14
3.86842e-14
7.47289e-14
3.88233e-14
7.47124e-14
3.89639e-14
7.46956e-14
3.91038e-14
7.46785e-14
3.9245e-14
7.46583e-14
3.93883e-14
7.46365e-14
3.95328e-14
7.46144e-14
3.96779e-14
7.45936e-14
3.98234e-14
7.45719e-14
3.997e-14
7.45488e-14
4.01164e-14
7.45263e-14
4.0263e-14
7.45024e-14
4.04077e-14
7.44792e-14
4.05527e-14
7.44581e-14
4.06979e-14
7.44385e-14
4.08424e-14
7.44218e-14
4.09848e-14
7.4406e-14
4.11287e-14
7.4389e-14
4.1271e-14
7.43689e-14
4.14139e-14
7.43504e-14
4.15572e-14
7.43365e-14
4.16996e-14
7.4323e-14
4.1841e-14
7.43092e-14
4.1982e-14
7.42994e-14
4.21225e-14
7.42888e-14
4.22618e-14
7.42774e-14
4.24026e-14
7.42673e-14
4.25413e-14
7.42544e-14
4.26793e-14
7.42451e-14
4.28179e-14
7.42352e-14
4.29543e-14
7.42248e-14
4.30911e-14
7.42153e-14
4.32283e-14
7.42054e-14
4.33631e-14
7.41923e-14
4.34968e-14
7.41803e-14
4.36306e-14
7.41695e-14
4.37645e-14
7.41626e-14
4.38971e-14
7.41555e-14
4.40282e-14
7.41457e-14
4.41592e-14
7.41344e-14
4.42887e-14
7.41232e-14
4.44179e-14
7.41135e-14
4.45467e-14
7.4104e-14
4.46792e-14
7.40933e-14
4.48099e-14
7.40843e-14
4.49358e-14
7.4077e-14
4.50611e-14
7.40729e-14
4.5187e-14
7.4072e-14
4.53106e-14
7.40676e-14
4.54334e-14
7.40652e-14
4.55565e-14
7.40662e-14
4.56786e-14
7.40652e-14
4.58008e-14
7.40625e-14
4.59244e-14
7.40619e-14
4.60467e-14
7.40638e-14
4.61702e-14
7.4068e-14
4.62881e-14
7.40721e-14
4.64071e-14
7.40787e-14
4.65243e-14
7.40893e-14
4.66464e-14
7.40959e-14
4.67693e-14
7.41e-14
4.68928e-14
7.41097e-14
4.70168e-14
7.41116e-14
4.71386e-14
7.41153e-14
4.72634e-14
7.41235e-14
4.73884e-14
7.41335e-14
4.75095e-14
7.41415e-14
4.76293e-14
7.4149e-14
4.77517e-14
7.41573e-14
4.78725e-14
7.41639e-14
4.79904e-14
7.41676e-14
4.81118e-14
7.41711e-14
4.823e-14
7.41785e-14
4.83463e-14
7.41846e-14
4.84683e-14
7.41894e-14
4.85869e-14
7.41945e-14
4.87031e-14
7.42e-14
4.88195e-14
7.42032e-14
4.8936e-14
7.4207e-14
4.90524e-14
7.4214e-14
4.91647e-14
7.42205e-14
4.92768e-14
7.42227e-14
4.93897e-14
7.42285e-14
4.94995e-14
7.42365e-14
4.96124e-14
7.42369e-14
4.97233e-14
7.42373e-14
4.98294e-14
7.42405e-14
4.99344e-14
7.42464e-14
5.00383e-14
7.42477e-14
5.0142e-14
7.42483e-14
5.02456e-14
7.4252e-14
5.035e-14
7.42553e-14
5.04539e-14
7.42533e-14
5.05572e-14
7.42523e-14
5.0661e-14
7.425e-14
5.07638e-14
7.4249e-14
5.08642e-14
7.42531e-14
5.09647e-14
7.42563e-14
5.10687e-14
7.42564e-14
5.117e-14
7.42582e-14
5.12769e-14
7.42523e-14
5.13807e-14
7.42425e-14
5.14814e-14
7.42361e-14
5.15835e-14
7.42357e-14
5.16846e-14
7.42343e-14
5.1782e-14
7.42367e-14
5.18804e-14
7.42383e-14
5.19797e-14
7.42393e-14
5.20772e-14
7.42374e-14
5.21775e-14
7.42329e-14
5.22758e-14
7.42235e-14
5.23743e-14
7.42118e-14
5.2475e-14
7.4198e-14
5.25778e-14
7.41845e-14
5.26849e-14
7.41692e-14
5.27868e-14
7.41569e-14
5.28879e-14
7.41431e-14
5.29905e-14
7.41234e-14
5.30919e-14
7.41071e-14
5.31944e-14
7.40875e-14
5.33001e-14
7.40671e-14
5.34064e-14
7.40483e-14
5.35132e-14
7.40267e-14
5.3618e-14
7.40003e-14
5.3723e-14
7.3976e-14
5.38279e-14
7.39539e-14
5.39349e-14
7.39296e-14
5.40414e-14
7.39013e-14
5.41452e-14
7.38779e-14
5.42504e-14
7.38528e-14
5.43525e-14
7.38264e-14
5.44578e-14
7.38031e-14
5.45663e-14
7.37809e-14
5.4671e-14
7.37513e-14
5.47741e-14
7.37187e-14
5.48753e-14
7.36856e-14
5.49789e-14
7.36543e-14
5.50802e-14
7.36207e-14
5.51813e-14
7.35891e-14
5.52863e-14
7.35555e-14
5.53906e-14
7.35243e-14
5.54962e-14
7.34935e-14
5.55987e-14
7.34591e-14
5.56979e-14
7.34213e-14
5.58021e-14
7.33865e-14
5.59047e-14
7.33507e-14
5.60055e-14
7.331e-14
5.61044e-14
7.32727e-14
5.62033e-14
7.3235e-14
5.6302e-14
7.31949e-14
5.63982e-14
7.31546e-14
5.64938e-14
7.31102e-14
5.65806e-14
7.30741e-14
5.66684e-14
7.30464e-14
5.6755e-14
7.30151e-14
5.68462e-14
7.29726e-14
5.69397e-14
7.29249e-14
5.70354e-14
7.28782e-14
5.71311e-14
7.28307e-14
5.72266e-14
7.27846e-14
5.73255e-14
7.2736e-14
5.74238e-14
7.2687e-14
5.75213e-14
7.26379e-14
5.76197e-14
7.25887e-14
5.7715e-14
7.25396e-14
5.78051e-14
7.24927e-14
5.78994e-14
7.24461e-14
5.79994e-14
7.24001e-14
5.80976e-14
7.23566e-14
5.81898e-14
7.23158e-14
5.82834e-14
7.22758e-14
5.83783e-14
7.22295e-14
5.8476e-14
7.21789e-14
5.85707e-14
7.21333e-14
5.86643e-14
7.20874e-14
5.87546e-14
7.20375e-14
5.88469e-14
7.19949e-14
5.89338e-14
7.19541e-14
5.90331e-14
7.19099e-14
5.91302e-14
7.18642e-14
5.92195e-14
7.18261e-14
5.93098e-14
7.17867e-14
5.94027e-14
7.17409e-14
5.94944e-14
7.1696e-14
5.95848e-14
7.16484e-14
5.96771e-14
7.1595e-14
5.97676e-14
7.15462e-14
5.98632e-14
7.15056e-14
5.99601e-14
7.14664e-14
6.00548e-14
7.14251e-14
6.0147e-14
7.13821e-14
6.02469e-14
7.13407e-14
6.03439e-14
7.13011e-14
6.04347e-14
7.127e-14
6.05291e-14
7.12308e-14
6.06168e-14
7.11837e-14
6.07112e-14
7.11421e-14
6.0802e-14
7.1106e-14
6.08857e-14
7.10689e-14
6.09786e-14
7.10244e-14
6.1074e-14
7.09824e-14
6.11652e-14
7.09461e-14
6.1252e-14
7.09092e-14
6.1344e-14
7.08684e-14
6.14376e-14
7.08272e-14
6.15297e-14
7.07888e-14
6.16201e-14
7.07532e-14
6.17117e-14
7.07141e-14
6.17982e-14
7.06749e-14
6.18794e-14
7.06417e-14
6.19677e-14
7.06115e-14
6.20597e-14
7.05752e-14
6.2149e-14
7.05389e-14
6.22357e-14
7.04996e-14
6.23226e-14
7.04605e-14
6.24096e-14
7.04216e-14
6.24965e-14
7.03829e-14
6.25803e-14
7.03504e-14
6.26697e-14
7.03211e-14
6.27586e-14
7.02861e-14
6.2847e-14
7.02515e-14
6.29317e-14
7.0223e-14
6.30126e-14
7.0192e-14
6.31014e-14
7.01554e-14
6.31863e-14
7.0125e-14
6.32672e-14
7.00979e-14
6.33555e-14
7.00711e-14
6.34367e-14
7.00446e-14
6.35223e-14
7.00129e-14
6.36008e-14
6.999e-14
6.3689e-14
6.99646e-14
6.37783e-14
6.99312e-14
6.38522e-14
6.98982e-14
6.39438e-14
6.98683e-14
6.40228e-14
6.98304e-14
6.41028e-14
6.97982e-14
6.41868e-14
6.97745e-14
6.425e-14
6.97508e-14
6.43196e-14
6.9722e-14
6.43849e-14
6.96852e-14
6.44591e-14
6.9654e-14
6.45288e-14
6.96283e-14
6.4594e-14
6.96e-14
6.46547e-14
6.95691e-14
6.47189e-14
6.95489e-14
6.4781e-14
6.95181e-14
6.48387e-14
6.94821e-14
6.48995e-14
6.94488e-14
6.49584e-14
6.94128e-14
6.50206e-14
6.93843e-14
6.50756e-14
6.93659e-14
6.51364e-14
6.93421e-14
6.51927e-14
6.93104e-14
6.5252e-14
6.92808e-14
6.5317e-14
6.92532e-14
6.53826e-14
6.92301e-14
6.54389e-14
6.92088e-14
6.54958e-14
6.91842e-14
6.55461e-14
6.91711e-14
6.56093e-14
6.91522e-14
6.56732e-14
6.91274e-14
6.57306e-14
6.91039e-14
6.57912e-14
6.90791e-14
6.58504e-14
6.90578e-14
6.59081e-14
6.90373e-14
6.59549e-14
6.90176e-14
6.60076e-14
6.90081e-14
6.60591e-14
6.89943e-14
6.61094e-14
6.89643e-14
6.61538e-14
6.89561e-14
6.61972e-14
6.89551e-14
6.62394e-14
6.89426e-14
6.62758e-14
6.89326e-14
6.63204e-14
6.89205e-14
6.63731e-14
6.89014e-14
6.64201e-14
6.88891e-14
6.64661e-14
6.88696e-14
6.65113e-14
6.8852e-14
6.65558e-14
6.88361e-14
6.65858e-14
6.88263e-14
6.66381e-14
6.88178e-14
6.66716e-14
6.88197e-14
6.67001e-14
6.88182e-14
6.67416e-14
6.88088e-14
6.67779e-14
6.88005e-14
6.68138e-14
6.87931e-14
6.68403e-14
6.88001e-14
6.68796e-14
6.87991e-14
6.69272e-14
6.87944e-14
6.69655e-14
6.87859e-14
6.69989e-14
6.87869e-14
6.70498e-14
6.87884e-14
6.70871e-14
6.87858e-14
6.71376e-14
6.87833e-14
6.71705e-14
6.87852e-14
6.72034e-14
6.87736e-14
6.72453e-14
6.87662e-14
6.72787e-14
6.87669e-14
6.7317e-14
6.87581e-14
6.73603e-14
6.87484e-14
6.74132e-14
6.87374e-14
6.74585e-14
6.87203e-14
6.74966e-14
6.87011e-14
6.75322e-14
6.86926e-14
6.75742e-14
6.86725e-14
6.7623e-14
6.86579e-14
6.76704e-14
6.86484e-14
6.77165e-14
6.86259e-14
6.77665e-14
6.85899e-14
6.78208e-14
6.8557e-14
6.78803e-14
6.85396e-14
6.79281e-14
6.85325e-14
6.79777e-14
6.85264e-14
6.8021e-14
6.85075e-14
6.80673e-14
6.84972e-14
6.80951e-14
6.85167e-14
6.8122e-14
6.85266e-14
6.81571e-14
6.85177e-14
6.81919e-14
6.85159e-14
6.8218e-14
6.85209e-14
6.82443e-14
6.85411e-14
6.82755e-14
6.85457e-14
6.83027e-14
6.8543e-14
6.8322e-14
6.85462e-14
6.83378e-14
6.85507e-14
6.83592e-14
6.85338e-14
6.83867e-14
6.85174e-14
6.84072e-14
6.85279e-14
6.84163e-14
6.85429e-14
6.84273e-14
6.85625e-14
6.84356e-14
6.85778e-14
6.84547e-14
6.85887e-14
6.84665e-14
6.85859e-14
6.84712e-14
6.85828e-14
6.84779e-14
6.85976e-14
6.84867e-14
6.8603e-14
6.84927e-14
6.86033e-14
6.851e-14
6.8617e-14
6.85154e-14
6.86442e-14
6.85179e-14
6.86571e-14
6.85173e-14
6.86559e-14
6.85182e-14
6.86309e-14
6.85258e-14
6.86243e-14
6.85307e-14
6.86314e-14
6.85424e-14
6.86424e-14
6.85514e-14
6.86285e-14
6.85677e-14
6.86182e-14
6.85676e-14
6.86308e-14
6.85652e-14
6.86569e-14
6.85698e-14
6.86577e-14
6.85718e-14
6.86478e-14
6.85762e-14
6.86518e-14
6.8578e-14
6.86549e-14
6.85872e-14
6.86775e-14
6.86036e-14
6.86898e-14
6.86173e-14
6.8712e-14
6.86335e-14
6.87294e-14
6.8647e-14
6.87166e-14
6.86635e-14
6.87035e-14
6.86733e-14
6.8736e-14
6.86969e-14
6.87582e-14
6.87136e-14
6.87546e-14
6.87236e-14
6.87558e-14
6.87376e-14
6.87617e-14
6.87451e-14
6.87615e-14
6.87565e-14
6.87764e-14
6.87719e-14
6.87849e-14
6.88021e-14
6.87972e-14
6.8837e-14
6.88341e-14
6.88767e-14
6.88636e-14
6.88891e-14
6.89181e-14
6.89055e-14
6.89663e-14
6.8936e-14
6.902e-14
6.89691e-14
6.90584e-14
6.89935e-14
6.90929e-14
6.90202e-14
6.91232e-14
6.9038e-14
6.91605e-14
6.90576e-14
6.91942e-14
6.90786e-14
6.92356e-14
6.91005e-14
6.92855e-14
6.91117e-14
6.93003e-14
6.91231e-14
6.93356e-14
6.91452e-14
6.93359e-14
6.91897e-14
6.93567e-14
6.92012e-14
6.94314e-14
6.9235e-14
6.94717e-14
6.92682e-14
6.94778e-14
6.93014e-14
6.9483e-14
6.93354e-14
6.94977e-14
6.93708e-14
6.95326e-14
6.94077e-14
6.95308e-14
6.94472e-14
6.95596e-14
6.94783e-14
6.95843e-14
6.95128e-14
6.96161e-14
6.95282e-14
6.96326e-14
6.95471e-14
6.96569e-14
6.95577e-14
6.96441e-14
6.95605e-14
6.9628e-14
6.95676e-14
6.96656e-14
6.95663e-14
6.96897e-14
6.959e-14
6.96561e-14
6.96067e-14
6.96657e-14
6.96171e-14
6.96951e-14
6.96207e-14
6.97111e-14
6.96283e-14
6.97028e-14
6.96405e-14
6.96925e-14
6.96466e-14
6.97249e-14
6.96681e-14
6.97438e-14
6.96711e-14
6.97495e-14
6.96892e-14
6.97647e-14
6.97115e-14
6.97891e-14
6.97265e-14
6.98001e-14
6.9734e-14
6.98314e-14
6.9733e-14
6.98501e-14
6.97561e-14
6.98351e-14
6.97716e-14
6.98289e-14
6.97807e-14
6.9831e-14
6.97842e-14
6.98525e-14
6.97915e-14
6.98394e-14
6.97708e-14
6.98455e-14
6.97751e-14
6.98504e-14
6.9772e-14
6.98331e-14
6.97731e-14
6.97712e-14
6.7014e-14
6.91014e-14
6.7014e-14
6.91014e-14
6.7014e-14
6.91014e-14
6.7014e-14
6.91014e-14
6.7014e-14
6.91014e-14
6.7014e-14
6.91014e-14
6.7014e-14
6.91014e-14
6.70139e-14
6.91015e-14
6.70139e-14
6.91015e-14
6.70139e-14
6.91015e-14
6.70139e-14
6.91015e-14
6.70139e-14
6.91015e-14
6.70139e-14
6.91015e-14
6.70139e-14
6.91015e-14
6.70139e-14
6.91015e-14
6.70139e-14
6.91016e-14
6.70139e-14
6.91016e-14
6.70139e-14
6.91016e-14
6.70139e-14
6.91017e-14
6.70139e-14
6.91017e-14
6.70138e-14
6.91017e-14
6.70138e-14
6.91018e-14
6.70137e-14
6.91019e-14
6.70136e-14
6.9102e-14
6.70136e-14
6.91021e-14
6.70135e-14
6.91023e-14
6.70133e-14
6.91024e-14
6.70132e-14
6.91025e-14
6.70131e-14
6.91026e-14
6.7013e-14
6.91028e-14
6.70129e-14
6.91029e-14
6.70127e-14
6.9103e-14
6.70126e-14
6.9103e-14
6.70124e-14
6.91031e-14
6.70123e-14
6.91032e-14
6.70121e-14
6.91033e-14
6.7012e-14
6.91033e-14
6.70119e-14
6.91035e-14
6.70118e-14
6.91036e-14
6.70117e-14
6.91037e-14
6.70115e-14
6.91037e-14
6.70115e-14
6.91038e-14
6.70113e-14
6.91038e-14
6.70112e-14
6.91041e-14
6.7011e-14
6.91042e-14
6.70109e-14
6.91043e-14
6.70108e-14
6.91045e-14
6.70106e-14
6.91046e-14
6.70104e-14
6.91047e-14
6.70102e-14
6.9105e-14
6.701e-14
6.91052e-14
6.70098e-14
6.91054e-14
6.70095e-14
6.91056e-14
6.70093e-14
6.91059e-14
6.7009e-14
6.91062e-14
6.70087e-14
6.91066e-14
6.70083e-14
6.91071e-14
6.70079e-14
6.91073e-14
6.70075e-14
6.91075e-14
6.7007e-14
6.91079e-14
6.70066e-14
6.91082e-14
6.70062e-14
6.91086e-14
6.70058e-14
6.91089e-14
6.70054e-14
6.91091e-14
6.7005e-14
6.91094e-14
6.70047e-14
6.91097e-14
6.70042e-14
6.91099e-14
6.70038e-14
6.91101e-14
6.70033e-14
6.91105e-14
6.7003e-14
6.91107e-14
6.70027e-14
6.91108e-14
6.70022e-14
6.91109e-14
6.70018e-14
6.9111e-14
6.70014e-14
6.91112e-14
6.70008e-14
6.91114e-14
6.70004e-14
6.91117e-14
6.7e-14
6.9112e-14
6.69994e-14
6.91122e-14
6.69989e-14
6.91125e-14
6.69984e-14
6.91129e-14
6.6998e-14
6.91132e-14
6.69975e-14
6.91134e-14
6.69968e-14
6.91138e-14
6.69962e-14
6.91142e-14
6.69956e-14
6.91145e-14
6.69951e-14
6.91147e-14
6.69945e-14
6.91148e-14
6.69939e-14
6.91151e-14
6.69934e-14
6.91152e-14
6.69929e-14
6.91153e-14
6.69925e-14
6.91157e-14
6.69922e-14
6.91161e-14
6.69919e-14
6.91161e-14
6.69915e-14
6.91161e-14
6.69914e-14
6.91163e-14
6.69913e-14
6.91165e-14
6.69912e-14
6.91168e-14
6.69911e-14
6.91168e-14
6.69911e-14
6.9117e-14
6.69911e-14
6.91174e-14
6.69911e-14
6.91173e-14
6.69909e-14
6.91173e-14
6.69907e-14
6.91172e-14
6.69905e-14
6.91172e-14
6.69902e-14
6.91174e-14
6.69898e-14
6.91172e-14
6.69897e-14
6.91165e-14
6.69893e-14
6.91166e-14
6.6989e-14
6.91163e-14
6.69887e-14
6.91155e-14
6.69884e-14
6.91147e-14
6.69878e-14
6.9114e-14
6.69874e-14
6.91137e-14
6.69871e-14
6.9113e-14
6.69869e-14
6.91122e-14
6.69868e-14
6.91114e-14
6.69868e-14
6.91104e-14
6.69864e-14
6.91095e-14
6.69861e-14
6.91089e-14
6.69858e-14
6.91083e-14
6.69854e-14
6.91074e-14
6.69852e-14
6.91061e-14
6.69852e-14
6.91055e-14
6.69847e-14
6.9105e-14
6.69845e-14
6.91043e-14
6.69844e-14
6.91029e-14
6.69839e-14
6.91021e-14
6.69837e-14
6.91012e-14
6.69829e-14
6.91002e-14
6.69824e-14
6.9099e-14
6.69819e-14
6.90979e-14
6.6981e-14
6.90971e-14
6.69802e-14
6.90958e-14
6.69796e-14
6.90939e-14
6.69789e-14
6.90919e-14
6.69783e-14
6.90902e-14
6.69773e-14
6.90887e-14
6.69764e-14
6.90879e-14
6.69755e-14
6.90868e-14
6.69748e-14
6.90849e-14
6.69741e-14
6.90824e-14
6.69731e-14
6.90803e-14
6.69724e-14
6.90786e-14
6.69712e-14
6.90767e-14
6.69708e-14
6.9074e-14
6.69704e-14
6.90718e-14
6.69703e-14
6.90701e-14
6.69702e-14
6.90683e-14
6.69702e-14
6.90659e-14
6.69704e-14
6.9063e-14
6.69702e-14
6.90608e-14
6.69702e-14
6.90585e-14
6.69703e-14
6.90568e-14
6.69699e-14
6.90547e-14
6.69695e-14
6.90526e-14
6.69687e-14
6.90512e-14
6.69678e-14
6.90501e-14
6.69668e-14
6.90493e-14
6.69649e-14
6.9049e-14
6.69631e-14
6.9048e-14
6.69622e-14
6.90464e-14
6.69611e-14
6.90454e-14
6.69598e-14
6.90431e-14
6.69586e-14
6.90408e-14
6.69569e-14
6.90387e-14
6.69546e-14
6.90362e-14
6.69525e-14
6.90334e-14
6.69501e-14
6.90305e-14
6.69482e-14
6.90276e-14
6.69461e-14
6.90246e-14
6.69446e-14
6.90228e-14
6.69418e-14
6.90206e-14
6.69391e-14
6.9018e-14
6.69374e-14
6.90144e-14
6.69362e-14
6.90099e-14
6.69345e-14
6.90065e-14
6.6933e-14
6.9004e-14
6.69316e-14
6.89996e-14
6.69294e-14
6.89957e-14
6.6928e-14
6.89917e-14
6.69271e-14
6.89861e-14
6.69242e-14
6.8981e-14
6.69208e-14
6.89766e-14
6.69195e-14
6.89726e-14
6.69184e-14
6.89687e-14
6.69175e-14
6.89646e-14
6.69181e-14
6.89592e-14
6.69183e-14
6.89537e-14
6.69187e-14
6.89481e-14
6.69174e-14
6.89431e-14
6.69164e-14
6.8938e-14
6.69155e-14
6.89315e-14
6.69143e-14
6.89236e-14
6.69133e-14
6.89177e-14
6.69113e-14
6.89129e-14
6.69096e-14
6.89061e-14
6.69068e-14
6.88979e-14
6.69036e-14
6.88922e-14
6.69014e-14
6.88871e-14
6.68989e-14
6.88806e-14
6.68966e-14
6.88727e-14
6.6894e-14
6.88667e-14
6.68924e-14
6.88592e-14
6.68905e-14
6.8851e-14
6.68883e-14
6.88441e-14
6.68864e-14
6.8837e-14
6.68841e-14
6.88312e-14
6.6881e-14
6.8826e-14
6.68795e-14
6.88193e-14
6.68771e-14
6.88132e-14
6.68744e-14
6.88071e-14
6.68714e-14
6.88001e-14
6.68668e-14
6.87923e-14
6.68634e-14
6.87858e-14
6.6861e-14
6.87799e-14
6.68584e-14
6.87718e-14
6.68556e-14
6.87629e-14
6.68519e-14
6.87574e-14
6.68486e-14
6.8751e-14
6.68459e-14
6.87439e-14
6.68429e-14
6.8738e-14
6.68398e-14
6.8732e-14
6.68372e-14
6.87245e-14
6.68331e-14
6.87162e-14
6.68288e-14
6.87071e-14
6.6825e-14
6.86993e-14
6.68211e-14
6.86927e-14
6.68171e-14
6.86839e-14
6.68137e-14
6.86729e-14
6.68102e-14
6.86598e-14
6.68073e-14
6.86486e-14
6.68057e-14
6.864e-14
6.68054e-14
6.86292e-14
6.68036e-14
6.86169e-14
6.68004e-14
6.86052e-14
6.67972e-14
6.85926e-14
6.67954e-14
6.85792e-14
6.67928e-14
6.85664e-14
6.67903e-14
6.85548e-14
6.67884e-14
6.85409e-14
6.67852e-14
6.85256e-14
6.67842e-14
6.85122e-14
6.67831e-14
6.84986e-14
6.67808e-14
6.84821e-14
6.67778e-14
6.84682e-14
6.67736e-14
6.84555e-14
6.67708e-14
6.84413e-14
6.67654e-14
6.84282e-14
6.67615e-14
6.84164e-14
6.67619e-14
6.84017e-14
6.67611e-14
6.83854e-14
6.67563e-14
6.83716e-14
6.67545e-14
6.8359e-14
6.67515e-14
6.8349e-14
6.67487e-14
6.83375e-14
6.67462e-14
6.83284e-14
6.67425e-14
6.83178e-14
6.67391e-14
6.8307e-14
6.6736e-14
6.82987e-14
6.67345e-14
6.82888e-14
6.6732e-14
6.82814e-14
6.67312e-14
6.82737e-14
6.67307e-14
6.82631e-14
6.67305e-14
6.82496e-14
6.67308e-14
6.82371e-14
6.67328e-14
6.82285e-14
6.67351e-14
6.82183e-14
6.67366e-14
6.82077e-14
6.67398e-14
6.81983e-14
6.67408e-14
6.81873e-14
6.67423e-14
6.818e-14
6.67429e-14
6.81724e-14
6.67454e-14
6.81632e-14
6.67471e-14
6.81523e-14
6.67493e-14
6.81437e-14
6.67507e-14
6.81362e-14
6.67501e-14
6.8127e-14
6.67514e-14
6.81188e-14
6.67533e-14
6.81089e-14
6.67545e-14
6.80987e-14
6.67578e-14
6.80894e-14
6.67603e-14
6.8085e-14
6.67623e-14
6.80829e-14
6.6765e-14
6.80764e-14
6.67671e-14
6.80656e-14
6.67699e-14
6.80595e-14
6.67709e-14
6.80544e-14
6.67741e-14
6.80475e-14
6.67767e-14
6.80415e-14
6.67789e-14
6.80363e-14
6.67819e-14
6.80293e-14
6.67845e-14
6.80231e-14
6.67815e-14
6.80177e-14
6.67794e-14
6.80105e-14
6.67757e-14
6.80015e-14
6.67782e-14
6.79933e-14
6.6779e-14
6.79897e-14
6.67731e-14
6.79881e-14
6.67709e-14
6.79833e-14
6.6771e-14
6.79755e-14
6.67683e-14
6.7967e-14
6.67705e-14
6.79592e-14
6.67751e-14
6.79521e-14
6.67745e-14
6.79481e-14
6.67687e-14
6.79448e-14
6.67692e-14
6.79383e-14
6.67708e-14
6.79299e-14
6.67737e-14
6.7922e-14
6.67765e-14
6.79148e-14
6.67807e-14
6.7908e-14
6.67811e-14
6.79031e-14
6.67779e-14
6.78961e-14
6.67773e-14
6.78884e-14
6.67769e-14
6.78837e-14
6.67802e-14
6.78794e-14
6.67765e-14
6.78767e-14
6.67717e-14
6.78769e-14
6.67745e-14
6.78714e-14
6.67751e-14
6.78627e-14
6.6776e-14
6.78555e-14
6.67797e-14
6.78474e-14
6.67837e-14
6.78361e-14
6.67856e-14
6.78239e-14
6.67904e-14
6.78132e-14
6.68004e-14
6.78063e-14
6.68061e-14
6.78032e-14
6.68123e-14
6.77967e-14
6.68144e-14
6.77916e-14
6.68193e-14
6.77877e-14
6.68249e-14
6.77852e-14
6.68358e-14
6.77817e-14
6.68427e-14
6.77793e-14
6.68456e-14
6.77828e-14
6.68493e-14
6.77875e-14
6.68561e-14
6.77933e-14
6.6859e-14
6.7798e-14
6.6865e-14
6.78015e-14
6.68674e-14
6.78038e-14
6.68705e-14
6.78094e-14
6.68814e-14
6.78093e-14
6.68887e-14
6.7808e-14
6.68947e-14
6.78122e-14
6.69062e-14
6.78174e-14
6.69141e-14
6.78236e-14
6.69209e-14
6.78263e-14
6.69354e-14
6.78321e-14
6.69532e-14
6.78388e-14
6.69632e-14
6.78486e-14
6.69766e-14
6.78548e-14
6.69956e-14
6.78597e-14
6.70136e-14
6.78611e-14
6.70219e-14
6.78654e-14
6.7038e-14
6.78726e-14
6.70533e-14
6.78785e-14
6.70699e-14
6.7885e-14
6.70837e-14
6.78944e-14
6.70988e-14
6.79044e-14
6.71175e-14
6.79172e-14
6.71313e-14
6.79307e-14
6.71425e-14
6.79468e-14
6.71552e-14
6.79593e-14
6.71653e-14
6.79704e-14
6.71811e-14
6.79861e-14
6.71944e-14
6.80066e-14
6.72032e-14
6.80235e-14
6.72096e-14
6.80409e-14
6.72237e-14
6.80588e-14
6.72376e-14
6.80773e-14
6.7243e-14
6.80984e-14
6.72543e-14
6.812e-14
6.72673e-14
6.81482e-14
6.72802e-14
6.81729e-14
6.72908e-14
6.81922e-14
6.73052e-14
6.8212e-14
6.73195e-14
6.82344e-14
6.73338e-14
6.82574e-14
6.73498e-14
6.8275e-14
6.73678e-14
6.82914e-14
6.73858e-14
6.83161e-14
6.74135e-14
6.83415e-14
6.74353e-14
6.83616e-14
6.74573e-14
6.83786e-14
6.74793e-14
6.83981e-14
6.75053e-14
6.84126e-14
6.75258e-14
6.84335e-14
6.75522e-14
6.84606e-14
6.75769e-14
6.84884e-14
6.76038e-14
6.85112e-14
6.76329e-14
6.8531e-14
6.76569e-14
6.85533e-14
6.76812e-14
6.85763e-14
6.77042e-14
6.85945e-14
6.77277e-14
6.86135e-14
6.77553e-14
6.86405e-14
6.77836e-14
6.86718e-14
6.78088e-14
6.86985e-14
6.78365e-14
6.87223e-14
6.78596e-14
6.87506e-14
6.78815e-14
6.87761e-14
6.79043e-14
6.87971e-14
6.79208e-14
6.88173e-14
6.79487e-14
6.88367e-14
6.79739e-14
6.88552e-14
6.79966e-14
6.8873e-14
6.80238e-14
6.88936e-14
6.80381e-14
6.89134e-14
6.80638e-14
6.89291e-14
6.80837e-14
6.89442e-14
6.81081e-14
6.89587e-14
6.81302e-14
6.89794e-14
6.81468e-14
6.90062e-14
6.81781e-14
6.90258e-14
6.82105e-14
6.90516e-14
6.82408e-14
6.90768e-14
6.82724e-14
6.90951e-14
6.82988e-14
6.91162e-14
6.83266e-14
6.91435e-14
6.83526e-14
6.91673e-14
6.838e-14
6.91939e-14
6.84058e-14
6.92236e-14
6.84298e-14
6.92435e-14
6.84554e-14
6.92569e-14
6.84795e-14
6.92702e-14
6.84989e-14
6.92835e-14
6.852e-14
6.92938e-14
6.85397e-14
6.93072e-14
6.85612e-14
6.93238e-14
6.85815e-14
6.93437e-14
6.86097e-14
6.93576e-14
6.86367e-14
6.93686e-14
6.86627e-14
6.93828e-14
6.86905e-14
6.93974e-14
6.87174e-14
6.94123e-14
6.87494e-14
6.94274e-14
6.87835e-14
6.9446e-14
6.88228e-14
6.94619e-14
6.88525e-14
6.94753e-14
6.88756e-14
6.94861e-14
6.88953e-14
6.94974e-14
6.89146e-14
6.95121e-14
6.89422e-14
6.95186e-14
6.89695e-14
6.95257e-14
6.89792e-14
6.9542e-14
6.90003e-14
6.95561e-14
6.90097e-14
6.9568e-14
6.90191e-14
6.95693e-14
6.9034e-14
6.95714e-14
6.90405e-14
6.958e-14
6.90413e-14
6.95839e-14
6.90366e-14
6.95859e-14
6.90375e-14
6.95807e-14
6.90356e-14
6.95739e-14
6.90364e-14
6.95709e-14
6.90454e-14
6.95665e-14
6.90545e-14
6.95605e-14
6.90609e-14
6.95449e-14
6.90675e-14
6.95387e-14
6.90689e-14
6.95337e-14
6.90759e-14
6.95245e-14
6.90832e-14
6.95114e-14
6.90908e-14
6.95048e-14
6.90963e-14
6.94994e-14
6.90943e-14
6.94874e-14
6.90877e-14
6.94741e-14
6.90947e-14
6.94595e-14
6.9092e-14
6.94515e-14
6.90874e-14
6.94473e-14
6.90732e-14
6.94496e-14
6.90699e-14
6.94483e-14
6.90825e-14
6.94384e-14
6.90932e-14
6.94274e-14
6.90945e-14
6.94206e-14
6.90891e-14
6.94228e-14
6.90895e-14
6.94242e-14
6.90931e-14
6.94173e-14
6.9095e-14
6.94146e-14
6.90977e-14
6.94137e-14
6.90938e-14
6.94146e-14
6.90931e-14
6.94124e-14
6.90956e-14
6.94098e-14
6.91061e-14
6.94116e-14
6.91126e-14
6.9401e-14
6.91126e-14
6.93948e-14
6.91111e-14
6.93955e-14
6.91032e-14
6.93888e-14
6.91105e-14
6.93747e-14
6.91186e-14
6.93676e-14
6.91277e-14
6.93626e-14
6.91425e-14
6.9355e-14
6.9135e-14
6.93635e-14
6.9138e-14
6.936e-14
6.91469e-14
6.93634e-14
6.91429e-14
6.93644e-14
6.91447e-14
6.93677e-14
6.91522e-14
6.93641e-14
6.91471e-14
6.93676e-14
6.91384e-14
6.93737e-14
6.914e-14
6.93779e-14
6.91424e-14
6.93849e-14
6.91458e-14
6.93902e-14
6.91501e-14
6.93848e-14
6.91508e-14
6.93779e-14
6.9157e-14
6.9374e-14
6.91688e-14
6.9373e-14
6.91773e-14
6.93705e-14
6.91825e-14
6.93664e-14
6.9189e-14
6.93607e-14
6.91924e-14
6.93712e-14
6.91926e-14
6.93846e-14
6.92073e-14
6.93878e-14
6.92232e-14
6.93852e-14
6.92227e-14
6.9399e-14
6.92278e-14
6.94071e-14
6.92386e-14
6.94053e-14
6.92506e-14
6.94112e-14
6.92464e-14
6.94205e-14
6.92609e-14
6.94289e-14
6.92677e-14
6.94278e-14
6.92714e-14
6.94259e-14
6.92806e-14
6.94322e-14
6.92909e-14
6.94423e-14
6.9298e-14
6.94388e-14
6.93193e-14
6.94307e-14
6.93245e-14
6.94395e-14
6.9331e-14
6.94568e-14
6.93429e-14
6.94652e-14
6.93515e-14
6.94695e-14
6.93654e-14
6.94873e-14
6.93801e-14
6.95101e-14
6.93824e-14
6.95249e-14
6.93895e-14
6.95322e-14
6.94014e-14
6.9554e-14
6.94046e-14
6.95643e-14
6.94035e-14
6.95851e-14
6.9411e-14
6.96036e-14
6.94093e-14
6.96158e-14
6.94158e-14
6.96306e-14
6.94304e-14
6.96396e-14
6.94398e-14
6.9647e-14
6.94441e-14
6.9644e-14
6.9452e-14
6.96307e-14
6.94461e-14
6.96426e-14
6.94437e-14
6.96442e-14
6.94584e-14
6.96401e-14
6.94679e-14
6.96304e-14
6.94723e-14
6.96192e-14
6.94854e-14
6.96382e-14
6.9489e-14
6.96512e-14
6.94831e-14
6.96629e-14
6.94763e-14
6.96736e-14
6.94685e-14
6.96745e-14
6.94732e-14
6.96658e-14
6.9477e-14
6.96749e-14
6.94844e-14
6.96929e-14
6.94813e-14
6.96969e-14
6.94722e-14
6.96774e-14
6.94665e-14
6.96857e-14
6.9464e-14
6.96798e-14
6.94648e-14
6.96548e-14
6.94598e-14
6.96532e-14
6.94537e-14
6.96658e-14
6.94461e-14
6.96691e-14
6.94416e-14
6.96535e-14
6.94403e-14
6.96188e-14
6.94378e-14
6.9613e-14
6.94389e-14
6.96266e-14
6.94339e-14
6.96155e-14
6.94276e-14
6.96042e-14
6.9425e-14
6.95678e-14
6.94216e-14
6.95454e-14
6.94229e-14
6.95416e-14
6.94187e-14
6.95364e-14
6.94039e-14
6.95194e-14
6.94037e-14
6.94955e-14
6.9398e-14
6.95047e-14
6.93865e-14
6.94965e-14
6.9374e-14
6.94762e-14
6.93812e-14
6.9469e-14
6.94032e-14
6.94799e-14
6.94091e-14
6.94775e-14
6.94094e-14
6.94828e-14
6.94461e-14
6.94748e-14
6.94464e-14
6.95056e-14
6.94414e-14
6.95444e-14
6.94621e-14
6.95925e-14
6.9476e-14
6.96079e-14