/*--------------------------------*- C++ -*----------------------------------*\
| =========                 |                                                 |
| \\      /  F ield         | OpenFOAM: The Open Source CFD Toolbox           |
|  \\    /   O peration     | Version:  2106                                  |
|   \\  /    A nd           | Website:  www.openfoam.com                      |
|    \\/     M anipulation  |                                                 |
\*---------------------------------------------------------------------------*/
FoamFile
{
    version     2.0;
    format      ascii;
    arch        "LSB;label=32;scalar=64";
    class       volTensorField;
    location    "13000";
    object      grad(U);
}
// * * * * * * * * * * * * * * * * * * * * * * * * * * * * * * * * * * * * * //

dimensions      [0 0 -1 0 0 0 0];

internalField   nonuniform List<tensor> 
2560
(
(-3.65725e-17 -5.3929e-25 0 214.509 0 9.42938e-13 0.310531 -1.57772e-30 6.91914e-16)
(0 -2.0789e-30 2.07656e-26 214.509 2.5355e-15 1.26628e-12 0.310531 -1.21978e-17 9.29113e-16)
(0 1.02455e-30 0 214.463 -3.84355e-12 4.42004e-13 0.936013 -5.38833e-15 1.74459e-15)
(-1.44193e-16 0 5.77652e-31 214.463 2.36655e-30 1.16472e-13 0.936013 6.16298e-33 3.42095e-16)
(-3.95183e-17 -2.03043e-25 -1.00987e-30 214.3 8.07842e-28 3.82397e-14 1.28565 -3.15544e-30 1.79517e-15)
(0 8.07896e-30 1.00987e-30 214.3 -1.50755e-15 5.56665e-14 1.28565 2.17724e-17 3.21267e-16)
(1.27022e-16 -4.26002e-30 -9.95396e-31 213.642 1.355e-12 3.29331e-14 1.29795 -1.62054e-14 1.84558e-15)
(0 3.98158e-30 9.95396e-31 213.642 4.1956e-15 4.66787e-14 1.29795 3.721e-17 2.42639e-16)
(5.52327e-16 -1.96226e-29 0 211.6 -5.04842e-14 1.86065e-14 1.29808 -6.88574e-16 1.8837e-15)
(0 1.56981e-29 -6.15623e-28 211.6 3.71754e-15 2.19647e-14 1.29808 5.16976e-17 6.73689e-17)
(8.54658e-16 -1.4115e-29 0 206.792 -7.60868e-14 -5.23918e-15 1.27569 -2.5535e-16 1.89649e-15)
(1.93757e-15 1.16048e-29 0 206.792 3.90113e-15 -1.56179e-28 1.27569 6.61589e-17 3.9443e-31)
(-4.06014e-16 -2.41936e-28 0 197.936 -1.99239e-14 -3.5525e-14 1.22346 -6.28994e-17 1.86999e-15)
(1.62405e-15 1.14385e-29 1.78741e-30 197.936 4.13244e-15 -5.78175e-14 1.22346 8.11716e-17 2.08774e-16)
(-5.02016e-16 1.00587e-29 9.39545e-31 184.791 -1.10353e-14 -6.40574e-14 1.14343 -7.85931e-17 1.79849e-15)
(2.00806e-15 -3.75546e-30 5.96876e-31 184.791 3.81217e-15 -1.01523e-13 1.14343 9.2243e-17 5.23615e-16)
(1.6375e-15 -1.36528e-29 0 168.527 -1.40296e-14 -8.28622e-14 1.04637 -1.03944e-16 1.69021e-15)
(-1.04267e-15 1.11129e-29 0 168.527 3.22107e-15 -1.3009e-13 1.04637 9.6436e-17 7.78893e-16)
(0 7.30244e-30 0 151.076 -1.56133e-14 -8.94237e-14 0.945124 -1.01931e-16 1.56235e-15)
(0 -3.65122e-30 -9.12806e-31 151.076 3.04412e-15 -1.39791e-13 0.945124 1.04685e-16 9.12972e-16)
(-7.60402e-16 -4.65146e-30 -8.99723e-31 134.157 -1.42776e-14 -8.64162e-14 0.849016 -8.89898e-17 1.43161e-15)
(0 7.19778e-30 8.99723e-31 134.157 3.003e-15 -1.34828e-13 0.849016 1.13503e-16 9.30563e-16)
(8.31298e-16 -2.38323e-29 -8.86827e-31 118.786 -1.29097e-14 -7.81711e-14 0.762668 -8.62161e-17 1.3088e-15)
(0 1.77365e-29 8.86827e-31 118.786 2.99782e-15 -1.21889e-13 0.762668 1.20016e-16 8.72837e-16)
(1.96834e-15 -1.04894e-29 0 105.337 -1.17087e-14 -6.81206e-14 0.687336 -7.4937e-17 1.19892e-15)
(0 1.04894e-29 0 105.337 2.86389e-15 -1.06246e-13 0.687336 1.21481e-16 7.80919e-16)
(-9.51362e-16 6.00186e-30 4.30794e-31 93.7898 -9.50673e-15 -5.8214e-14 0.622512 -5.77555e-17 1.10317e-15)
(3.80545e-15 2.57e-32 2.96701e-31 93.7898 1.62257e-15 -9.08922e-14 0.622512 1.18001e-16 6.81422e-16)
(0 1.69848e-29 8.4924e-31 83.9495 -8.00057e-15 -4.93109e-14 0.566982 -5.56286e-17 1.02077e-15)
(0 -1.69848e-29 -8.4924e-31 83.9495 9.966e-16 -7.71301e-14 0.566982 1.28412e-16 5.87737e-16)
(-1.04821e-15 5.90637e-30 0 75.5703 -7.4687e-15 -4.16601e-14 0.519378 -5.17435e-17 9.50193e-16)
(4.19285e-15 -3.32682e-30 6.66568e-31 75.5703 1.3295e-15 -6.53192e-14 0.519378 1.37644e-16 5.04901e-16)
(0 1.98017e-29 8.25071e-31 68.4139 -7.15015e-15 -3.52249e-14 0.478425 -5.2577e-17 8.89776e-16)
(-4.35974e-15 -1.98195e-29 -1.46795e-30 68.4139 1.49572e-15 -5.53925e-14 0.478425 1.52721e-16 4.33879e-16)
(0 1.30119e-29 4.06623e-31 62.2715 -8.02772e-15 -2.98617e-14 0.443016 -6.63428e-17 8.37925e-16)
(-4.51219e-15 -1.30326e-29 -1.02846e-30 62.2715 2.42415e-15 -4.71224e-14 0.443016 1.54095e-16 3.73815e-16)
(1.80502e-15 -3.20636e-30 4.00795e-31 56.9683 -9.07069e-15 -2.54031e-14 0.412225 -6.98928e-17 7.93282e-16)
(0 3.20636e-30 0 56.9683 2.88091e-15 -4.02492e-14 0.412225 1.57147e-16 3.23292e-16)
(1.1954e-15 1.32404e-29 0 52.361 -9.02757e-15 -2.16905e-14 0.385292 -6.76245e-17 7.54629e-16)
(-4.78161e-15 -1.89909e-29 -5.85499e-31 52.361 2.7472e-15 -3.45284e-14 0.385292 1.64026e-16 2.80803e-16)
(0 1.55755e-29 3.89388e-31 48.3334 -9.16482e-15 -1.85833e-14 0.361596 -7.4077e-17 7.21164e-16)
(0 -1.55755e-29 -3.89388e-31 48.3334 3.67286e-15 -2.97515e-14 0.361596 1.48565e-16 2.44974e-16)
(-1.25343e-15 -6.64691e-30 0 44.7913 -9.15873e-15 -1.59743e-14 0.340631 -6.95092e-17 6.9214e-16)
(0 1.22818e-29 0 44.7913 4.47992e-15 -2.57398e-14 0.340631 1.28286e-16 2.14657e-16)
(4.2409e-16 -1.86165e-29 -3.78306e-31 41.6582 -7.51678e-15 -1.37703e-14 0.321981 -4.99352e-17 6.66909e-16)
(0 1.81587e-29 3.78306e-31 41.6582 2.91291e-15 -2.23509e-14 0.321981 1.06001e-16 1.88785e-16)
(-1.67932e-15 5.96615e-30 0 38.8718 -5.08282e-15 -1.18953e-14 0.305308 -3.19744e-17 6.44871e-16)
(-3.5379e-15 -1.20157e-29 -5.30276e-31 38.8718 6.92724e-16 -1.94748e-14 0.305308 1.00951e-16 1.66639e-16)
(1.32757e-15 1.2129e-29 7.3508e-31 36.3811 -4.05994e-15 -1.02913e-14 0.290331 -3.45264e-17 6.25508e-16)
(0 -1.47016e-29 -7.3508e-31 36.3811 -5.14612e-16 -1.7021e-14 0.290331 1.15827e-16 1.47556e-16)
(-4.33071e-15 2.25395e-29 0 34.1441 -3.36425e-15 -8.90955e-15 0.276817 -2.12691e-17 6.08504e-16)
(1.63153e-15 -1.73891e-29 0 34.1441 -7.4347e-16 -1.49183e-14 0.276817 1.51573e-16 1.31048e-16)
(4.11149e-15 -3.05766e-29 -3.5708e-31 32.126 -3.04271e-15 -7.71582e-15 0.264574 -3.00789e-17 5.9366e-16)
(1.0964e-14 2.29547e-29 1.35789e-30 32.126 8.33472e-16 -1.3107e-14 0.264574 1.7137e-16 1.16691e-16)
(0 -1.97099e-29 -3.51962e-31 30.2979 -4.05148e-15 -6.68311e-15 0.253439 -3.92675e-17 5.80758e-16)
(5.56161e-15 1.97678e-29 8.44214e-31 30.2979 1.54282e-15 -1.15375e-14 0.253439 1.65943e-16 1.04135e-16)
(1.4094e-15 2.97366e-30 3.46917e-31 28.6355 -3.4228e-15 -5.7828e-15 0.243274 -1.9974e-17 5.69522e-16)
(-3.12475e-15 -2.77534e-30 -3.46917e-31 28.6355 8.90118e-17 -1.01691e-14 0.243274 1.69986e-16 9.30754e-17)
(-2.85514e-15 -3.18977e-31 0 27.1184 -2.70935e-15 -4.988e-15 0.233965 -2.77692e-17 5.59684e-16)
(-1.14206e-14 5.36612e-30 -9.56044e-31 27.1184 -1.07809e-16 -8.96721e-15 0.233965 1.7988e-16 8.32737e-17)
(-1.44499e-15 1.06653e-29 3.37044e-31 25.7291 -3.04256e-15 -4.28249e-15 0.225412 -2.65523e-17 5.51025e-16)
(-8.81579e-15 -5.45057e-30 -8.09053e-31 25.7291 3.59672e-16 -7.90954e-15 0.225412 1.70793e-16 7.44936e-17)
(0 2.39194e-29 4.9832e-31 24.4529 -2.49876e-15 -3.65831e-15 0.217531 -1.86594e-17 5.4375e-16)
(-5.84691e-15 -2.39717e-29 -9.6496e-31 24.4529 -1.04615e-16 -6.98098e-15 0.217531 1.84668e-16 6.66891e-17)
(1.47471e-15 -1.57177e-29 -3.27452e-31 23.2772 -2.11233e-15 -3.1106e-15 0.210248 -2.01759e-17 5.37721e-16)
(4.43661e-15 1.57571e-29 7.89199e-31 23.2772 8.76667e-17 -6.15871e-15 0.210248 2.13962e-16 5.97313e-17)
(-1.49336e-15 5.16023e-30 0 22.191 -1.90432e-15 -2.62069e-15 0.203501 -1.52991e-17 5.32498e-16)
(0 0 3.22759e-31 22.191 2.31971e-16 -5.42515e-15 0.203501 2.13694e-16 5.34196e-17)
(-1.50835e-15 1.53021e-29 1.59066e-31 21.1849 -2.03973e-15 -2.17872e-15 0.197236 -2.33471e-17 5.28122e-16)
(0 -1.27253e-29 -1.59066e-31 21.1849 9.28521e-17 -4.76817e-15 0.197236 2.4949e-16 4.77027e-17)
(-1.52284e-15 1.76274e-29 3.13573e-31 20.2508 -3.05497e-15 -1.78554e-15 0.191404 -3.5375e-17 5.24612e-16)
(-7.50358e-15 -1.25555e-29 -7.6372e-31 20.2508 4.54141e-16 -4.17826e-15 0.191404 2.82274e-16 4.24651e-17)
(2.92885e-15 -9.99425e-30 -1.54539e-31 19.3816 -3.75507e-15 -1.43416e-15 0.185964 -3.77628e-17 5.21732e-16)
(-1.39197e-15 7.41789e-30 1.54539e-31 19.3816 1.53187e-15 -3.64869e-15 0.185964 2.8856e-16 3.76955e-17)
(1.55049e-15 -1.47627e-29 0 18.5709 -4.12684e-15 -1.12359e-15 0.18088 -4.38091e-17 5.19557e-16)
(0 1.2186e-29 0 18.5709 3.07844e-15 -3.16389e-15 0.18088 2.83433e-16 3.33219e-17)
(-1.5637e-15 9.78458e-30 0 17.8134 -4.44054e-15 -8.43374e-16 0.176118 -4.52023e-17 5.17759e-16)
(0 -2.40226e-30 0 17.8134 3.77689e-15 -2.71508e-15 0.176118 2.58863e-16 2.91527e-17)
(0 1.18391e-29 0 17.1041 -4.64291e-15 -5.86799e-16 0.171651 -4.92374e-17 5.16524e-16)
(0 -1.65748e-29 -2.95979e-31 17.1041 3.67514e-15 -2.31152e-15 0.171651 2.44615e-16 2.5237e-17)
(-1.58903e-15 7.24908e-30 0 16.4388 -3.97396e-15 -3.52719e-16 0.167452 -3.26255e-17 5.15874e-16)
(6.35614e-15 7.45001e-32 4.39476e-31 16.4388 3.23054e-15 -1.94627e-15 0.167452 2.28697e-16 2.1741e-17)
(0 -6.9401e-29 -2.87555e-31 15.8137 0 -1.36506e-16 0.163501 -3.15544e-30 5.15888e-16)
(6.40481e-15 1.61933e-29 7.26153e-31 15.8137 9.18687e-16 -1.61019e-15 0.163501 2.10601e-16 1.83864e-17)
(1.61306e-15 1.10182e-29 0 15.2255 8.17233e-16 6.02053e-17 0.159775 -5.51706e-18 5.16475e-16)
(-6.45226e-15 -1.59468e-29 -7.21355e-31 15.2255 -1.4282e-15 -1.29995e-15 0.159775 2.41241e-16 1.52925e-17)
(1.62464e-15 -7.05596e-30 0 14.671 2.8073e-17 2.44117e-16 0.156258 -1.18823e-17 5.17152e-16)
(0 4.46994e-30 0 14.671 -6.46814e-16 -1.01538e-15 0.156258 3.0343e-16 1.22893e-17)
(8.44346e-16 -1.81997e-30 0 14.1475 -1.06749e-15 4.16589e-16 0.152932 -1.18887e-17 5.18243e-16)
(-2.48029e-15 8.81176e-30 0 14.1475 4.71552e-16 -7.54146e-16 0.152932 3.08924e-16 9.56538e-18)
(-7.97749e-16 3.92837e-30 2.71421e-31 13.6528 -1.04547e-15 5.7472e-16 0.149784 -1.12894e-17 5.19642e-16)
(6.58797e-15 -4.31178e-30 1.66439e-31 13.6528 3.00163e-16 -5.1696e-16 0.149784 3.39618e-16 6.89826e-18)
(0 -4.28049e-30 0 13.1844 -1.71616e-15 7.20519e-16 0.1468 -2.74351e-17 5.2156e-16)
(6.6312e-15 4.29799e-30 7.05926e-31 13.1844 1.79869e-16 -3.02441e-16 0.1468 3.73489e-16 4.54795e-18)
(-1.66838e-15 9.37043e-32 0 12.7406 -1.24337e-15 8.53463e-16 0.143968 -7.09458e-18 5.24001e-16)
(0 0 0 12.7406 -6.88181e-16 -9.96574e-17 0.143968 3.75352e-16 2.23929e-18)
(-1.67874e-15 -1.57245e-30 0 12.3194 -6.35282e-16 9.78646e-16 0.141277 -7.61955e-18 5.26712e-16)
(0 8.31733e-30 0 12.3194 -1.63694e-15 8.85503e-17 0.141277 4.06402e-16 2.08487e-18)
(2.30757e-15 -8.19813e-30 0 11.9194 -1.59765e-15 1.09358e-15 0.138718 -3.0075e-17 5.2964e-16)
(0 8.19813e-30 0 11.9194 -5.41383e-16 2.60858e-16 0.138718 4.08426e-16 4.05753e-18)
(-3.97336e-15 -4.10815e-30 -2.5252e-31 11.5389 4.33171e-28 1.19636e-15 0.136281 0 5.33066e-16)
(0 8.08063e-30 2.5252e-31 11.5389 -9.78501e-18 4.2832e-16 0.136281 4.16911e-16 6.16625e-18)
(-2.24189e-15 1.9912e-29 0 11.1767 2.53535e-15 1.30666e-15 0.133959 -2.09409e-17 5.36599e-16)
(-6.83457e-15 -1.59296e-29 -4.3713e-31 11.1767 -1.13027e-15 5.86268e-16 0.133959 4.22734e-16 8.0234e-18)
(-1.71824e-15 -1.70453e-29 0 10.8315 1.86058e-15 1.42442e-15 0.131744 -4.05065e-17 5.40511e-16)
(6.87298e-15 1.96266e-29 4.37283e-31 10.8315 -1.35839e-15 7.19773e-16 0.131744 4.19475e-16 9.64587e-18)
(0 1.54763e-29 2.41817e-31 10.5022 2.50819e-18 1.53395e-15 0.129629 -4.88839e-18 5.44756e-16)
(0 -1.54763e-29 -2.41817e-31 10.5022 -1.50919e-15 8.37841e-16 0.129629 4.166e-16 1.12184e-17)
(-1.73696e-15 0 0 10.1878 0 1.64155e-15 0.127607 -1.9466e-45 5.49453e-16)
(6.94782e-15 -1.14408e-29 4.38603e-31 10.1878 -1.10952e-15 9.47327e-16 0.127607 4.21055e-16 1.27131e-17)
(3.49216e-15 -1.6442e-29 -2.34935e-31 9.88741 2.76561e-17 1.74805e-15 0.125674 -1.25761e-17 5.54755e-16)
(6.98431e-15 1.12769e-29 6.74566e-31 9.88741 -5.60125e-16 1.04926e-15 0.125674 4.24225e-16 1.41773e-17)
(2.08577e-15 -1.11152e-29 0 9.60006 -1.06349e-15 1.83355e-15 0.123823 -1.5621e-17 5.6039e-16)
(0 1.11152e-29 0 9.60006 -1.29784e-15 1.14761e-15 0.123823 4.22251e-16 1.56603e-17)
(-1.76389e-15 -5.99748e-30 0 9.32501 -3.9231e-28 1.91471e-15 0.122049 0 5.66284e-16)
(0 1.46079e-29 0 9.32501 -1.15802e-15 1.24465e-15 0.122049 4.20074e-16 1.71698e-17)
(-3.5452e-15 1.95651e-29 0 9.06151 1.62512e-16 2.00746e-15 0.12035 -8.25657e-18 5.72581e-16)
(7.09039e-15 -1.79982e-29 4.44034e-31 9.06151 -1.22482e-15 1.3395e-15 0.12035 4.20775e-16 1.8675e-17)
(-1.78118e-15 2.57989e-30 0 8.80889 -1.14927e-15 2.09483e-15 0.118719 -2.73631e-17 5.79109e-16)
(0 3.54804e-30 0 8.80889 -6.01421e-16 1.42583e-15 0.118719 4.17996e-16 2.00331e-17)
(-1.78963e-15 -1.17263e-29 0 8.56653 -3.77983e-28 2.16966e-15 0.117153 0 5.86122e-16)
(7.15852e-15 6.99438e-30 4.48042e-31 8.56653 1.47224e-15 1.51696e-15 0.117153 4.24168e-16 2.17494e-17)
(-3.73849e-15 -8.26468e-30 0 8.33384 1.66499e-15 2.25289e-15 0.115649 -1.16282e-17 5.93417e-16)
(0 -3.44706e-30 -2.15442e-31 8.33384 -1.50449e-15 1.60376e-15 0.115649 4.39675e-16 2.30623e-17)
(-3.61239e-15 1.19446e-29 -7.04399e-34 8.11028 2.3994e-15 2.35156e-15 0.114203 -4.76148e-17 5.98893e-16)
(-7.22477e-15 -6.79532e-30 -4.53334e-31 8.11028 -3.2767e-15 1.672e-15 0.114203 4.24429e-16 2.43347e-17)
(-5.51392e-15 -1.15908e-29 -5.78255e-33 7.89536 2.51496e-16 2.44016e-15 0.112812 -2.0191e-17 5.88963e-16)
(1.45145e-14 1.33958e-29 9.12344e-31 7.89536 -4.64406e-16 1.74061e-15 0.112812 4.22497e-16 2.5725e-17)
(-5.46697e-15 2.75324e-29 3.96009e-31 7.68862 -1.74642e-15 2.50158e-15 0.111473 -3.79249e-17 5.78776e-16)
(-7.2893e-15 -1.98058e-29 -1.07803e-30 7.68862 5.02394e-16 1.81902e-15 0.111473 4.32777e-16 2.73515e-17)
(-3.66188e-15 -1.36886e-29 -2.11481e-31 7.48962 -2.0478e-15 2.55154e-15 0.110184 -2.25718e-17 5.69054e-16)
(9.1526e-15 1.62683e-29 6.65534e-31 7.48962 1.47847e-15 1.90109e-15 0.110184 4.31798e-16 2.89254e-17)
(1.83806e-15 -5.78677e-30 1.06917e-32 7.29796 -1.68454e-15 2.59965e-15 0.108942 -2.80491e-17 5.59526e-16)
(0 3.20702e-30 0 7.29796 1.02651e-15 1.97488e-15 0.108942 4.44653e-16 3.03845e-17)
(-1.77952e-15 -2.21274e-29 -3.95132e-31 7.11326 -2.81456e-15 2.6396e-15 0.107744 -5.79077e-17 5.50297e-16)
(9.16264e-15 2.21274e-29 8.64583e-31 7.11326 5.51513e-16 2.04398e-15 0.107744 4.49587e-16 3.18929e-17)
(0 -6.2315e-30 1.94734e-31 6.93517 -2.72704e-15 2.67114e-15 0.106589 -2.6146e-17 5.41384e-16)
(7.41367e-15 6.2315e-30 6.67967e-31 6.93517 1.93237e-15 2.11402e-15 0.106589 4.5388e-16 3.3455e-17)
(0 6.14218e-30 -1.91943e-31 6.76337 -1.36164e-15 2.7086e-15 0.105474 -1.64797e-17 5.33083e-16)
(5.71501e-15 0 4.77292e-31 6.76337 2.69247e-15 2.18656e-15 0.105474 4.68511e-16 3.51182e-17)
(1.70409e-15 1.51354e-29 1.89192e-31 6.59754 -2.59903e-15 2.74362e-15 0.104398 -6.65615e-17 5.25017e-16)
(-1.70409e-15 -1.51354e-29 -1.89192e-31 6.59754 2.12005e-15 2.26689e-15 0.104398 4.8783e-16 3.70092e-17)
(-3.75165e-15 8.15008e-30 -4.65333e-32 6.43741 -3.43589e-15 2.76881e-15 0.103358 -4.41679e-17 5.17924e-16)
(0 -2.98369e-30 0 6.43741 1.06306e-15 2.34097e-15 0.103358 4.94863e-16 3.85552e-17)
(0 -1.76455e-29 0 6.28269 -2.84793e-15 2.80595e-15 0.102353 -4.91195e-17 5.11211e-16)
(7.53255e-15 1.76455e-29 4.91263e-31 6.28269 2.0842e-15 2.40384e-15 0.102353 5.01925e-16 4.01669e-17)
(0 5.79755e-30 0 6.13314 -3.27434e-15 2.84261e-15 0.101381 -5.97298e-17 5.04759e-16)
(5.92963e-15 -2.89877e-30 4.96513e-31 6.13314 2.60577e-15 2.46817e-15 0.101381 5.25711e-16 4.18371e-17)
(-1.89754e-15 2.58592e-30 -3.0494e-32 5.98852 -2.6031e-15 2.87614e-15 0.100442 -2.7771e-17 4.98776e-16)
(0 5.71445e-30 3.57153e-31 5.98852 6.77542e-16 2.52797e-15 0.100442 5.37708e-16 4.33735e-17)
(1.90463e-15 5.86295e-30 3.84983e-31 5.84861 -1.70193e-15 2.90999e-15 0.0995324 -3.04419e-17 4.93027e-16)
(0 -5.63255e-30 -3.52034e-31 5.84861 -3.21842e-16 2.583e-15 0.0995324 5.36454e-16 4.4958e-17)
(1.5627e-15 -8.32773e-30 0 5.71319 -1.80873e-15 2.94526e-15 0.0986521 -3.23167e-17 4.87597e-16)
(0 1.38796e-29 3.46989e-31 5.71319 3.03628e-18 2.63132e-15 0.0986521 5.46686e-16 4.63326e-17)
(0 -1.09445e-29 3.42016e-31 5.58207 -2.51045e-15 2.98372e-15 0.0977996 -5.62097e-17 4.82136e-16)
(0 1.09445e-29 3.42016e-31 5.58207 -3.05992e-16 2.66585e-15 0.0977996 5.50324e-16 4.74991e-17)
(-8.14606e-16 -5.61301e-30 -8.0885e-32 5.45505 -2.62924e-15 3.02986e-15 0.0969737 -3.75358e-17 4.76408e-16)
(0 1.07876e-29 3.37114e-31 5.45505 -6.56054e-16 2.68353e-15 0.0969737 5.48007e-16 4.83255e-17)
(-1.93237e-15 7.84727e-44 2.89081e-31 5.33197 5.75108e-28 3.0862e-15 0.0961733 -3.15544e-30 4.69763e-16)
(0 -1.0633e-29 -3.32282e-31 5.33197 3.7225e-17 2.67955e-15 0.0961733 5.49252e-16 4.87454e-17)
(1.93915e-15 2.65035e-30 4.63255e-32 5.21265 -2.23585e-16 3.14063e-15 0.0953973 -9.95704e-18 4.61667e-16)
(-1.07066e-14 -5.24031e-30 -5.39984e-31 5.21265 -1.47505e-15 2.68511e-15 0.0953973 5.47838e-16 4.99469e-17)
(0 -1.34977e-29 3.22825e-31 5.09694 -1.00901e-16 3.19253e-15 0.0946447 -9.40564e-19 4.53018e-16)
(-7.78349e-15 7.74781e-30 -5.47181e-31 5.09694 -2.38433e-15 2.68943e-15 0.0946447 5.28444e-16 5.03356e-17)
(-1.95254e-15 0 2.64988e-31 4.98468 2.74028e-28 3.25487e-15 0.0939146 1.30374e-45 4.42897e-16)
(1.56203e-14 -7.63676e-30 7.90261e-31 4.98468 1.00165e-16 2.68166e-15 0.0939146 5.30224e-16 5.11141e-17)
(1.95916e-15 9.95763e-30 5.71143e-32 4.87575 -2.36464e-16 3.31283e-15 0.093206 -1.90121e-17 4.31323e-16)
(7.83663e-15 -1.50546e-29 5.61479e-31 4.87575 -3.97493e-17 2.67265e-15 0.093206 5.50179e-16 5.14616e-17)
(0 0 0 4.77 -3.17144e-15 3.35692e-15 0.0925181 -1.05095e-16 4.18317e-16)
(0 2.47314e-30 0 4.77 1.08232e-15 2.67804e-15 0.0925181 5.45061e-16 5.2823e-17)
(-1.97223e-15 -1.44865e-29 -6.54499e-32 4.6673 -5.48659e-15 3.40001e-15 0.09185 -1.11689e-16 4.04887e-16)
(7.88893e-15 1.70639e-29 5.75291e-31 4.6673 3.7745e-15 2.69391e-15 0.09185 5.68867e-16 5.36006e-17)
(7.26567e-16 1.21986e-29 -7.00496e-32 4.56754 -4.09689e-15 3.44079e-15 0.0912011 -5.20737e-17 3.90417e-16)
(-1.062e-14 -7.20827e-30 -8.8196e-31 4.56754 2.54997e-15 2.72854e-15 0.0912011 5.93991e-16 5.57682e-17)
(1.98511e-15 -9.69236e-30 -2.2144e-31 4.47061 -2.80305e-15 3.47519e-15 0.0905705 -6.19705e-17 3.76345e-16)
(7.94045e-15 7.10495e-30 8.85236e-31 4.47061 1.61079e-15 2.76444e-15 0.0905705 6.09439e-16 5.66409e-17)
(-1.99148e-15 2.12605e-29 2.12488e-31 4.37638 -3.63818e-15 3.50251e-15 0.0899576 -8.83e-17 3.61512e-16)
(7.96592e-15 -1.8675e-29 3.04866e-31 4.37638 2.32563e-15 2.77648e-15 0.0899576 6.4308e-16 5.79021e-17)
(-1.99781e-15 -2.01345e-30 -8.4087e-32 4.28477 -4.31831e-15 3.51321e-15 0.0893617 -9.24573e-17 3.46392e-16)
(0 4.60183e-30 0 4.28477 1.53059e-15 2.82098e-15 0.0893617 6.69947e-16 6.01762e-17)
(-2.00409e-15 2.59712e-30 -8.85959e-32 4.19567 -3.66801e-15 3.51466e-15 0.0887822 -6.3074e-17 3.3255e-16)
(0 4.53588e-30 0 4.19567 1.67872e-15 2.86425e-15 0.0887822 6.87075e-16 6.14487e-17)
(-2.01033e-15 -8.57417e-30 -9.31225e-32 4.109 -2.44073e-15 3.53332e-15 0.0882184 -4.19135e-17 3.18777e-16)
(8.0413e-15 1.11772e-29 6.20244e-31 4.109 2.66424e-15 2.88453e-15 0.0882184 7.16227e-16 6.28189e-17)
(2.01652e-15 -1.36173e-29 9.77379e-32 4.02465 -2.54685e-15 1.07346e-15 0.0876698 -6.95932e-17 3.04599e-16)
(0 1.1017e-29 0 4.02465 1.78849e-15 2.91909e-15 0.0876698 7.36444e-16 6.47701e-17)
(2.44524e-15 -2.17181e-30 2.71477e-31 3.94255 -3.50056e-15 -1.24721e-15 0.0871359 -8.57354e-17 4.0023e-16)
(0 2.17181e-30 0 3.94255 4.89047e-17 2.9504e-15 0.0871359 7.50304e-16 6.60575e-17)
(-2.0288e-15 2.60454e-30 -6.04929e-31 3.86262 -3.4893e-15 -1.08089e-15 0.0866161 -7.11217e-17 4.9068e-16)
(0 4.28137e-30 5.35171e-31 3.86262 -7.26211e-18 2.96008e-15 0.0866161 7.41926e-16 6.71063e-17)
(0 -2.11e-29 0 3.78477 -2.36755e-15 -9.82345e-16 0.0861099 -3.66799e-17 5.82015e-16)
(1.86547e-14 2.11e-29 1.31254e-30 3.78477 2.00009e-15 2.96429e-15 0.0861099 7.41208e-16 6.81858e-17)
(-2.3416e-15 -1.92258e-30 -2.5997e-31 3.70894 -8.48027e-16 -9.22334e-16 0.0856168 -9.81627e-18 6.70778e-16)
(8.16369e-15 4.15952e-30 6.6346e-31 3.70894 1.03225e-15 2.98273e-15 0.0856168 7.65466e-16 6.99323e-17)
(-4.35497e-15 1.90096e-29 -2.86398e-31 3.63506 -1.37865e-15 -9.82852e-16 0.0851365 -5.52737e-17 7.6285e-16)
(-8.18772e-15 -1.63996e-29 -6.70268e-31 3.63506 -3.9838e-16 3.02511e-15 0.0851365 7.67758e-16 7.21884e-17)
(-2.0529e-15 1.06923e-29 4.89267e-31 3.56306 -2.66238e-15 -9.77166e-16 0.0846684 -7.17286e-17 8.59082e-16)
(-1.04866e-14 -8.08229e-30 -9.30921e-31 3.56306 7.12795e-16 3.08008e-15 0.0846684 7.78182e-16 7.46198e-17)
(0 7.96645e-30 0 3.49287 -2.65902e-15 -9.78134e-16 0.0842121 -5.67292e-17 9.56217e-16)
(0 -3.98323e-30 -4.97903e-31 3.49287 1.08827e-15 3.11445e-15 0.0842121 8.06803e-16 7.59767e-17)
(0 -1.84535e-29 0 3.42444 -3.34871e-18 -9.83071e-16 0.0837673 -4.1067e-20 9.61044e-16)
(8.25899e-15 -3.92614e-30 2.06005e-31 3.42444 -1.06602e-16 3.13551e-15 0.0837673 8.20124e-16 7.78466e-17)
(-1.07921e-16 0 -4.83733e-31 3.3577 2.1089e-28 -1.03831e-15 0.0833335 3.15544e-30 9.55068e-16)
(0 -1.93493e-29 0 3.3577 -1.45115e-15 3.17382e-15 0.0833335 8.24553e-16 8.01223e-17)
(0 -3.05152e-29 -4.768e-31 3.2926 -1.9179e-16 -1.09538e-15 0.0829104 -3.12158e-17 9.48712e-16)
(1.66117e-14 3.05152e-29 1.90669e-30 3.2926 -7.15084e-17 3.21252e-15 0.0829104 8.1799e-16 8.20953e-17)
(0 -7.51946e-30 0 3.22909 -1.31199e-15 -1.02899e-15 0.0824977 -3.60261e-17 9.41775e-16)
(1.87747e-14 7.51946e-30 1.44861e-30 3.22909 -5.66451e-16 3.25095e-15 0.0824977 8.49043e-16 8.44526e-17)
(-4.1761e-15 8.93471e-30 0 3.16712 -1.66124e-15 -1.01766e-15 0.0820949 -5.04126e-17 9.34213e-16)
(0 -3.70584e-30 0 3.16712 -2.45e-15 3.29256e-15 0.0820949 8.5373e-16 8.66782e-17)
(-2.0938e-15 -1.43165e-30 0 3.10663 -7.6918e-16 -9.31144e-16 0.0817018 -1.01389e-17 9.2626e-16)
(1.67504e-14 3.65273e-30 1.48732e-30 3.10663 -9.59451e-16 3.32922e-15 0.0817018 8.38578e-16 8.88735e-17)
(2.09952e-15 -1.17271e-29 0 3.04758 -1.72405e-16 -8.12162e-16 0.0813181 -2.30559e-18 9.20091e-16)
(0 7.20075e-30 0 3.04758 -1.88932e-15 3.36975e-15 0.0813181 8.60244e-16 9.14012e-17)
(-2.10522e-15 2.61636e-30 0 2.98993 -2.22543e-16 -7.61066e-16 0.0809435 -9.82615e-18 9.15752e-16)
(0 3.54877e-30 0 2.98993 -2.82663e-15 3.41831e-15 0.0809435 8.45196e-16 9.41314e-17)
(-2.11089e-15 0 0 2.93362 2.46519e-32 -7.34919e-16 0.0805776 -1.33408e-45 9.11212e-16)
(8.44355e-15 -6.99582e-30 7.74609e-31 2.93362 -1.14781e-15 3.46615e-15 0.0805776 8.30494e-16 9.67319e-17)
(-2.11653e-15 1.29563e-29 0 2.87863 -2.43857e-16 -6.95788e-16 0.0802203 -1.44729e-17 9.05273e-16)
(4.58426e-15 -6.89555e-30 7.86673e-31 2.87863 -9.25748e-16 3.49285e-15 0.0802203 8.46668e-16 9.83912e-17)
(-4.24428e-15 1.20198e-29 0 2.82491 -5.44576e-16 -1.41628e-15 0.0798712 -1.64035e-17 9.0161e-16)
(0 -6.79672e-30 0 2.82491 -9.68116e-16 3.51386e-15 0.0798712 8.43009e-16 1.00765e-16)
(-2.12773e-15 9.30795e-30 0 2.77241 -9.50406e-16 -3.68464e-15 0.0795301 -3.84003e-17 8.86306e-16)
(-1.88569e-15 -3.34965e-30 -4.18707e-31 2.77241 -2.55953e-15 3.54956e-15 0.0795301 8.36691e-16 1.03341e-16)
(0 -1.39316e-29 0 2.72111 0 -5.20202e-15 0.0791967 0 8.58573e-16)
(-6.67452e-15 9.90493e-30 -8.21216e-31 2.72111 -4.16342e-15 3.56057e-15 0.0791967 8.10368e-16 1.04364e-16)
(2.13884e-15 -3.14896e-29 -4.0679e-31 2.67097 2.71763e-16 -5.31455e-15 0.0788709 -4.02077e-18 8.52101e-16)
(8.55535e-15 9.76297e-30 1.24126e-30 2.67097 -3.86531e-15 3.54663e-15 0.0788709 7.85064e-16 1.05537e-16)
(2.14435e-15 -5.8098e-30 -4.0096e-31 2.62196 1.25459e-15 -5.45283e-15 0.0785523 -5.2612e-17 8.45073e-16)
(-8.57742e-15 3.20768e-30 -4.46958e-31 2.62196 -2.93028e-15 3.53672e-15 0.0785523 7.46145e-16 1.06822e-16)
(1.40992e-15 1.52526e-29 3.95213e-31 2.57403 6.13746e-16 -5.46481e-15 0.0782408 -2.24979e-17 8.38547e-16)
(5.03963e-15 -6.32341e-30 4.64193e-31 2.57403 -1.24918e-15 3.55404e-15 0.0782408 7.44826e-16 1.09691e-16)
(0 9.34917e-30 7.79098e-31 2.52717 -5.42658e-16 -5.53775e-15 0.0779361 -4.88284e-17 8.3159e-16)
(-1.75437e-15 -6.23278e-30 -7.79098e-31 2.52717 -3.44984e-16 3.57638e-15 0.0779361 7.794e-16 1.11342e-16)
(-3.45845e-15 1.22869e-29 0 2.48133 -2.14352e-15 -5.54957e-15 0.0776381 -8.58346e-17 8.22703e-16)
(8.64307e-15 -6.14345e-30 1.18139e-31 2.48133 1.7411e-15 3.5888e-15 0.0776381 8.03269e-16 1.13688e-16)
(2.1662e-15 -2.61144e-29 -3.78462e-31 2.4365 -1.22876e-15 -5.33062e-15 0.0773466 -1.95404e-17 8.17328e-16)
(0 1.21108e-29 3.78462e-31 2.4365 1.58664e-15 3.61436e-15 0.0773466 8.46052e-16 1.16241e-16)
(0 8.95291e-30 0 2.39264 -8.18218e-16 -5.27692e-15 0.0770613 -3.33633e-17 8.13298e-16)
(-8.68641e-15 -2.9843e-30 -9.13152e-31 2.39264 -7.73724e-17 3.62735e-15 0.0770613 8.42161e-16 1.17863e-16)
(-3.31187e-15 -1.61221e-31 -3.67691e-31 2.34973 1.59153e-28 -5.25914e-15 0.0767821 0 8.08237e-16)
(0 8.82459e-30 7.35383e-31 2.34973 4.99266e-16 3.63443e-15 0.0767821 8.53786e-16 1.20113e-16)
(-3.2644e-15 3.41439e-30 1.08726e-30 2.30773 7.83574e-16 -5.17416e-15 0.0765088 -1.30124e-17 8.05038e-16)
(0 -5.79874e-30 -1.08726e-30 2.30773 -2.39398e-16 3.6287e-15 0.0765088 8.66849e-16 1.20932e-16)
(2.1877e-15 1.16997e-29 1.42891e-30 2.26663 1.17877e-15 -5.19632e-15 0.0762412 -7.1985e-17 8.01639e-16)
(0 -1.42891e-29 -1.42891e-30 2.26663 -4.05523e-16 3.61003e-15 0.0762412 8.80952e-16 1.22364e-16)
(2.19303e-15 8.67148e-30 1.05632e-30 2.2264 -2.42267e-16 -5.22897e-15 0.0759793 -2.37713e-17 7.99009e-16)
(-3.1715e-15 -8.45057e-30 -1.05632e-30 2.2264 8.26645e-16 3.61777e-15 0.0759793 9.06639e-16 1.25008e-16)
(-4.39667e-15 5.19745e-30 0 2.18701 -1.75115e-17 -5.23417e-15 0.0757227 -3.03675e-19 7.96481e-16)
(8.79334e-15 0 9.91646e-31 2.18701 8.64182e-16 3.62499e-15 0.0757227 9.25448e-16 1.26453e-16)
(-2.20362e-15 0 0 2.14845 0 -5.17345e-15 0.0754714 0 7.9602e-16)
(0 8.21007e-30 3.42086e-31 2.14845 -9.24875e-16 3.62216e-15 0.0754714 9.57069e-16 1.28469e-16)
(0 8.0924e-30 0 2.11069 3.66031e-16 -5.03545e-15 0.0752252 -1.39868e-17 7.95644e-16)
(0 -8.0924e-30 -3.37183e-31 2.11069 -1.97605e-15 3.61322e-15 0.0752252 9.81124e-16 1.29515e-16)
(0 -7.98364e-30 9.97052e-31 2.07371 6.7003e-16 -4.85193e-15 0.074984 -1.21336e-17 7.98843e-16)
(0 0 -6.64701e-31 2.07371 -1.53001e-15 3.59812e-15 0.074984 9.68245e-16 1.3113e-16)
(-2.95064e-15 1.04828e-29 6.55174e-31 2.03749 3.9968e-15 -4.96595e-15 0.0747477 -9.98965e-17 8.04838e-16)
(0 -5.24139e-30 -3.27587e-31 2.03749 -1.22152e-15 3.63948e-15 0.0747477 9.88406e-16 1.3637e-16)
(0 2.58314e-30 6.45784e-31 2.00201 3.84038e-15 -5.20176e-15 0.074516 -1.94508e-16 8.03007e-16)
(1.77968e-14 0 1.50994e-30 2.00201 -9.40511e-16 3.66163e-15 0.074516 9.93714e-16 1.36635e-16)
(-4.45961e-15 4.14829e-32 0 1.96725 1.94986e-15 -5.1961e-15 0.0742889 -9.10756e-17 8.03421e-16)
(8.91922e-15 5.09222e-30 1.09603e-30 1.96725 -1.38333e-15 3.63704e-15 0.0742889 1.0405e-15 1.38491e-16)
(5.06057e-15 -5.07814e-30 -6.27405e-31 1.93319 2.07176e-15 -4.41083e-15 0.0740663 -5.61638e-17 7.97775e-16)
(0 2.50962e-30 1.25481e-30 1.93319 -3.88428e-15 3.66597e-15 0.0740663 1.03771e-15 1.42875e-16)
(0 0 -2.46229e-29 1.89982 2.13116e-15 -5.91646e-30 0.0738479 -1.03166e-16 8.03485e-16)
(-1.17457e-14 4.9473e-30 -1.43807e-30 1.89982 -4.39075e-15 3.70546e-15 0.0738479 9.86676e-16 1.45644e-16)
(-2.24531e-15 -1.69471e-29 -1.82865e-30 1.86712 2.84957e-15 1.84725e-16 0.0736338 -6.24674e-17 8.45899e-16)
(6.23609e-15 1.95056e-29 2.97341e-30 1.86712 -2.56686e-15 3.72969e-15 0.0736338 9.78596e-16 1.48988e-16)
(0 7.20975e-30 9.01219e-31 1.83506 4.73264e-15 1.88789e-16 0.0734238 -1.63348e-16 8.39062e-16)
(0 -4.8065e-30 -9.01219e-31 1.83506 -3.44447e-15 3.75481e-15 0.0734238 9.96658e-16 1.51938e-16)
(2.66704e-15 -4.73761e-30 -5.92202e-31 1.80364 3.84204e-15 1.54932e-16 0.0732177 -2.16301e-16 8.26471e-16)
(0 4.73761e-30 1.1844e-30 1.80364 -4.75097e-15 3.80126e-15 0.0732177 9.91333e-16 1.57156e-16)
(-2.26068e-15 -2.12988e-30 0 1.77284 1.11588e-15 1.69963e-16 0.0730156 -9.51974e-17 8.12228e-16)
(0 4.66971e-30 0 1.77284 -4.32985e-15 3.84204e-15 0.0730156 9.61394e-16 1.59777e-16)
(-1.94042e-15 4.2039e-45 -2.30139e-30 1.74265 1.01962e-29 2.34774e-16 0.0728172 -3.15544e-30 7.91984e-16)
(1.81262e-14 1.84111e-29 5.60085e-30 1.74265 -4.07554e-15 3.81567e-15 0.0728172 9.33733e-16 1.59538e-16)
(0 2.2705e-30 8.50652e-31 1.71304 2.76413e-15 3.88469e-16 0.0726224 -5.86703e-17 7.5106e-16)
(-2.554e-15 -9.07362e-30 -8.50652e-31 1.71304 -5.4822e-15 3.77302e-15 0.0726224 9.01859e-16 1.6081e-16)
(-2.51739e-15 1.34154e-29 5.58974e-31 1.68401 3.59085e-15 2.55507e-16 0.0724312 -2.36191e-16 7.0818e-16)
(-2.51739e-15 -8.94358e-30 -8.3846e-31 1.68401 -4.35538e-15 3.76557e-15 0.0724312 8.26394e-16 1.63565e-16)
(-6.84293e-15 -1.66852e-29 -2.75481e-30 1.65553 4.01072e-17 1.05813e-16 0.0722436 -7.19274e-17 6.5212e-16)
(1.82478e-14 2.42423e-29 5.86165e-30 1.65553 -1.0652e-16 3.75546e-15 0.0722436 8.22595e-16 1.6463e-16)
(0 -1.95504e-29 -2.71533e-30 1.62761 -1.43157e-15 1.27221e-16 0.0720592 -5.73936e-17 6.00495e-16)
(1.82881e-14 1.95504e-29 5.31364e-30 1.62761 8.452e-17 3.71525e-15 0.0720592 8.77362e-16 1.64766e-16)
(-2.29104e-15 1.96488e-29 1.60585e-30 1.60022 -1.52066e-15 6.2773e-17 0.0718782 -7.95491e-17 5.43777e-16)
(0 -1.28468e-29 -1.60585e-30 1.60022 -1.69906e-15 3.71537e-15 0.0718782 8.75976e-16 1.69464e-16)
(4.6722e-15 -2.3627e-29 -3.16566e-30 1.57335 -1.69904e-15 1.95034e-17 0.0717004 -7.54712e-17 4.84902e-16)
(1.59923e-14 2.11044e-29 5.83694e-30 1.57335 -5.65888e-16 3.77128e-15 0.0717004 8.74725e-16 1.74731e-16)
(2.34209e-15 -1.24811e-29 -2.10186e-30 1.54699 -1.75117e-15 1.35049e-18 0.0715257 -8.67407e-17 4.26395e-16)
(6.86212e-15 1.24811e-29 3.4389e-30 1.54699 -1.35456e-15 3.81956e-15 0.0715257 9.21456e-16 1.78931e-16)
(2.30604e-15 -1.26289e-29 -1.94756e-30 1.52113 -1.18171e-28 1.11894e-17 0.071354 0 3.70516e-16)
(0 8.20151e-30 1.02519e-30 1.52113 -2.63467e-15 3.83963e-15 0.071354 8.96929e-16 1.81748e-16)
(2.34659e-15 -5.05667e-30 5.05247e-31 1.49576 7.38657e-16 4.79212e-17 0.0711853 -4.89045e-17 3.13931e-16)
(9.24405e-15 0 3.9356e-31 1.49576 -1.89701e-15 3.85971e-15 0.0711853 8.77724e-16 1.86099e-16)
(-2.24282e-15 3.98405e-30 9.96012e-31 1.47086 -4.16884e-16 -3.28657e-17 0.0710195 -6.21954e-17 2.53708e-16)
(0 0 -1.49402e-30 1.47086 -2.09788e-15 3.88657e-15 0.0710195 8.91717e-16 1.89688e-16)
(2.21067e-15 -7.85389e-30 -4.90868e-31 1.44643 -8.73092e-16 -4.37047e-17 0.0708565 -2.31627e-17 1.91546e-16)