/*--------------------------------*- C++ -*----------------------------------*\
| =========                 |                                                 |
| \\      /  F ield         | OpenFOAM: The Open Source CFD Toolbox           |
|  \\    /   O peration     | Version:  2106                                  |
|   \\  /    A nd           | Website:  www.openfoam.com                      |
|    \\/     M anipulation  |                                                 |
\*---------------------------------------------------------------------------*/
FoamFile
{
    version     2.0;
    format      ascii;
    arch        "LSB;label=32;scalar=64";
    class       volScalarField;
    location    "13000";
    object      p;
}
// * * * * * * * * * * * * * * * * * * * * * * * * * * * * * * * * * * * * * //

dimensions      [0 2 -2 0 0 0 0];

internalField   nonuniform List<scalar> 
2560
(
1.35732e-16
-1.0176e-15
2.84446e-16
-1.01792e-15
2.90532e-16
-1.01849e-15
2.60628e-16
-1.01927e-15
2.44252e-16
-1.02028e-15
2.34566e-16
-1.02157e-15
2.24775e-16
-1.02316e-15
2.1385e-16
-1.02506e-15
2.02076e-16
-1.02727e-15
1.89397e-16
-1.0298e-15
1.75524e-16
-1.03268e-15
1.60161e-16
-1.03591e-15
1.43166e-16
-1.03949e-15
1.24434e-16
-1.04347e-15
1.03794e-16
-1.0478e-15
8.11782e-17
-1.05249e-15
5.65451e-17
-1.05752e-15
2.98092e-17
-1.06295e-15
9.08326e-19
-1.06887e-15
-2.98538e-17
-1.07522e-15
-6.27162e-17
-1.08204e-15
-9.76876e-17
-1.0893e-15
-1.34773e-16
-1.09704e-15
-1.73725e-16
-1.10522e-15
-2.14908e-16
-1.11383e-15
-2.58329e-16
-1.12288e-15
-3.03997e-16
-1.13222e-15
-3.5169e-16
-1.14168e-15
-4.01315e-16
-1.15124e-15
-4.53094e-16
-1.1612e-15
-5.0702e-16
-1.17163e-15
-5.63002e-16
-1.18271e-15
-6.20933e-16
-1.19401e-15
-6.80794e-16
-1.20541e-15
-7.42566e-16
-1.21699e-15
-8.06428e-16
-1.22882e-15
-8.72372e-16
-1.24121e-15
-9.39749e-16
-1.25405e-15
-1.00852e-15
-1.26734e-15
-1.07896e-15
-1.28165e-15
-1.15129e-15
-1.2963e-15
-1.22491e-15
-1.31164e-15
-1.29999e-15
-1.32756e-15
-1.37727e-15
-1.34381e-15
-1.45623e-15
-1.36064e-15
-1.53686e-15
-1.37854e-15
-1.61939e-15
-1.3965e-15
-1.70275e-15
-1.41476e-15
-1.78797e-15
-1.43357e-15
-1.87533e-15
-1.45265e-15
-1.96341e-15
-1.47198e-15
-2.05303e-15
-1.49213e-15
-2.14534e-15
-1.51251e-15
-2.23948e-15
-1.53311e-15
-2.33544e-15
-1.55358e-15
-2.43351e-15
-1.57361e-15
-2.53338e-15
-1.59346e-15
-2.6341e-15
-1.61405e-15
-2.73693e-15
-1.63506e-15
-2.84219e-15
-1.65548e-15
-2.94923e-15
-1.67595e-15
-3.05672e-15
-1.69676e-15
-3.16699e-15
-1.71824e-15
-3.27937e-15
-1.73968e-15
-3.39353e-15
-1.76037e-15
-3.50911e-15
-1.78165e-15
-3.62646e-15
-1.80422e-15
-3.74415e-15
-1.82772e-15
-3.86287e-15
-1.85141e-15
-3.98151e-15
-1.87452e-15
-4.10264e-15
-1.89923e-15
-4.22364e-15
-1.92592e-15
-4.34526e-15
-1.95343e-15
-4.46786e-15
-1.98024e-15
-4.59027e-15
-2.00897e-15
-4.71326e-15
-2.03767e-15
-4.83799e-15
-2.0671e-15
-4.96329e-15
-2.09682e-15
-5.08876e-15
-2.12638e-15
-5.21519e-15
-2.15495e-15
-5.34421e-15
-2.18244e-15
-5.47421e-15
-2.21288e-15
-5.60522e-15
-2.24133e-15
-5.7389e-15
-2.26936e-15
-5.87361e-15
-2.2944e-15
-6.00855e-15
-2.32055e-15
-6.14372e-15
-2.34692e-15
-6.27914e-15
-2.3777e-15
-6.41481e-15
-2.4069e-15
-6.5499e-15
-2.43528e-15
-6.68527e-15
-2.46623e-15
-6.81923e-15
-2.49797e-15
-6.95526e-15
-2.53044e-15
-7.08991e-15
-2.56444e-15
-7.2223e-15
-2.60168e-15
-7.35599e-15
-2.63945e-15
-7.48657e-15
-2.67587e-15
-7.61762e-15
-2.71175e-15
-7.75192e-15
-2.7497e-15
-7.88318e-15
-2.79329e-15
-8.01415e-15
-2.83699e-15
-8.14213e-15
-2.88163e-15
-8.2745e-15
-2.92804e-15
-8.40583e-15
-2.97243e-15
-8.5343e-15
-3.01746e-15
-8.66368e-15
-3.06396e-15
-8.79217e-15
-3.11089e-15
-8.91984e-15
-3.15908e-15
-9.04676e-15
-3.20936e-15
-9.17489e-15
-3.25878e-15
-9.30242e-15
-3.30722e-15
-9.4323e-15
-3.35547e-15
-9.56082e-15
-3.40819e-15
-9.68901e-15
-3.45951e-15
-9.8189e-15
-3.50831e-15
-9.94966e-15
-3.55635e-15
-1.00804e-14
-3.60637e-15
-1.02094e-14
-3.65726e-15
-1.03396e-14
-3.7069e-15
-1.04633e-14
-3.75901e-15
-1.05847e-14
-3.81538e-15
-1.07076e-14
-3.87391e-15
-1.08284e-14
-3.93245e-15
-1.09472e-14
-3.99279e-15
-1.10622e-14
-4.05671e-15
-1.11774e-14
-4.1201e-15
-1.1291e-14
-4.18472e-15
-1.14012e-14
-4.25237e-15
-1.15102e-14
-4.32287e-15
-1.162e-14
-4.40001e-15
-1.1733e-14
-4.47161e-15
-1.18453e-14
-4.54144e-15
-1.1955e-14
-4.6173e-15
-1.20645e-14
-4.69695e-15
-1.21738e-14
-4.77819e-15
-1.22873e-14
-4.85674e-15
-1.24011e-14
-4.94042e-15
-1.25195e-14
-5.02294e-15
-1.26307e-14
-5.09796e-15
-1.2745e-14
-5.17532e-15
-1.28708e-14
-5.25677e-15
-1.29922e-14
-5.33186e-15
-1.31116e-14
-5.40639e-15
-1.32332e-14
-5.48613e-15
-1.33493e-14
-5.56466e-15
-1.34623e-14
-5.64368e-15
-1.35725e-14
-5.72696e-15
-1.36822e-14
-5.81006e-15
-1.37919e-14
-5.8947e-15
-1.38958e-14
-5.98462e-15
-1.39983e-14
-6.07538e-15
-1.40915e-14
-6.16458e-15
-1.41821e-14
-6.24982e-15
-1.42684e-14
-6.33892e-15
-1.43629e-14
-6.43359e-15
-1.4454e-14
-6.53549e-15
-1.45356e-14
-6.64428e-15
-1.46084e-14
-6.74317e-15
-1.46767e-14
-6.83592e-15
-1.47492e-14
-6.94474e-15
-1.48242e-14
-7.05697e-15
-1.49062e-14
-7.15992e-15
-1.49793e-14
-7.26551e-15
-1.5044e-14
-7.37747e-15
-1.5121e-14
-7.49131e-15
-1.51864e-14
-7.60664e-15
-1.52487e-14
-7.72311e-15
-1.53166e-14
-7.83623e-15
-1.53864e-14
-7.94971e-15
-1.54669e-14
-8.05492e-15
-1.55381e-14
-8.15139e-15
-1.56005e-14
-8.25506e-15
-1.56629e-14
-8.36546e-15
-1.573e-14
-8.47803e-15
-1.57858e-14
-8.59228e-15
-1.58432e-14
-8.71188e-15
-1.58946e-14
-8.8364e-15
-1.59364e-14
-8.96541e-15
-1.59772e-14
-9.09448e-15
-1.60174e-14
-9.21916e-15
-1.60576e-14
-9.34318e-15
-1.60942e-14
-9.47433e-15
-1.61317e-14
-9.60821e-15
-1.61624e-14
-9.73636e-15
-1.61908e-14
-9.86257e-15
-1.62214e-14
-9.99467e-15
-1.62547e-14
-1.01243e-14
-1.62829e-14
-1.02592e-14
-1.63025e-14
-1.0391e-14
-1.6326e-14
-1.05197e-14
-1.63499e-14
-1.06488e-14
-1.63745e-14
-1.07864e-14
-1.64002e-14
-1.09241e-14
-1.64234e-14
-1.10537e-14
-1.64365e-14
-1.11831e-14
-1.64559e-14
-1.13323e-14
-1.64739e-14
-1.14771e-14
-1.64948e-14
-1.15975e-14
-1.65031e-14
-1.17294e-14
-1.6515e-14
-1.18729e-14
-1.65269e-14
-1.20079e-14
-1.6559e-14
-1.21347e-14
-1.65758e-14
-1.22729e-14
-1.65936e-14
-1.23989e-14
-1.66125e-14
-1.25207e-14
-1.66251e-14
-1.26383e-14
-1.66315e-14
-1.27595e-14
-1.664e-14
-1.28846e-14
-1.66504e-14
-1.30136e-14
-1.6663e-14
-1.31388e-14
-1.66777e-14
-1.32526e-14
-1.66948e-14
-1.33786e-14
-1.67142e-14
-1.35171e-14
-1.67203e-14
-1.36527e-14
-1.67287e-14
-1.37703e-14
-1.67472e-14
-1.38781e-14
-1.67682e-14
-1.39917e-14
-1.67916e-14
-1.41192e-14
-1.68176e-14
-1.42299e-14
-1.68309e-14
-1.4332e-14
-1.6847e-14
-1.44487e-14
-1.68507e-14
-1.45805e-14
-1.68643e-14
-1.46824e-14
-1.68651e-14
-1.47853e-14
-1.68756e-14
-1.48976e-14
-1.69109e-14
-1.50048e-14
-1.69406e-14
-1.50998e-14
-1.69573e-14
-1.51906e-14
-1.69685e-14
-1.52778e-14
-1.69968e-14
-1.53617e-14
-1.70273e-14
-1.54579e-14
-1.70452e-14
-1.55518e-14
-1.70502e-14
-1.56216e-14
-1.70646e-14
-1.5705e-14
-1.70955e-14
-1.58101e-14
-1.71057e-14
-1.59006e-14
-1.71169e-14
-1.59849e-14
-1.71362e-14
-1.60786e-14
-1.71631e-14
-1.61753e-14
-1.71898e-14
-1.62543e-14
-1.72091e-14
-1.63239e-14
-1.72278e-14
-1.64282e-14
-1.7245e-14
-1.65255e-14
-1.72671e-14
-1.66029e-14
-1.72938e-14
-1.66688e-14
-1.73037e-14
-1.67312e-14
-1.73106e-14
-1.68193e-14
-1.73129e-14
-1.69348e-14
-1.73507e-14
-1.7038e-14
-1.73809e-14
-1.71167e-14
-1.74169e-14
-1.71863e-14
-1.74443e-14
-1.72202e-14
-1.74906e-14
-1.72745e-14
-1.75146e-14
-1.73356e-14
-1.7557e-14
-1.74048e-14
-1.76041e-14
-1.74693e-14
-1.76419e-14
-1.75296e-14
-1.76841e-14
-1.75729e-14
-1.7704e-14
-1.76134e-14
-1.77275e-14
-1.76657e-14
-1.77666e-14
-1.77046e-14
-1.78084e-14
-1.77574e-14
-1.78396e-14
-1.78511e-14
-1.78717e-14
-1.78819e-14
-1.78785e-14
-1.793e-14
-1.79112e-14
-1.7945e-14
-1.79572e-14
-1.79917e-14
-1.80165e-14
-1.80059e-14
-1.80269e-14
-1.80249e-14
-1.80659e-14
-1.80357e-14
-1.81093e-14
-1.80498e-14
-1.81459e-14
-1.81165e-14
-1.82005e-14
-1.81858e-14
-1.82355e-14
-1.82079e-14
-1.82898e-14
-1.81955e-14
-1.83047e-14
-1.82208e-14
-1.83297e-14
-1.8308e-14
-1.83742e-14
-1.8399e-14
-1.84113e-14
-1.84484e-14
-1.84409e-14
-1.8458e-14
-1.84764e-14
-1.84383e-14
-1.85089e-14
-1.84572e-14
-1.85518e-14
-1.85132e-14
-1.85925e-14
-1.85609e-14
-1.86078e-14
-1.85779e-14
-1.86103e-14
-1.86113e-14
-1.86555e-14
-1.86743e-14
-1.86952e-14
-1.87344e-14
-1.87172e-14
-1.87717e-14
-1.87551e-14
-1.87876e-14
-1.87874e-14
-1.87811e-14
-1.88173e-14
-1.88397e-14
-1.88208e-14
-1.88552e-14
-1.88635e-14
-1.88736e-14
-1.89258e-14
-1.89145e-14
-1.89238e-14
-1.89535e-14
-1.89402e-14
-1.89733e-14
-1.89953e-14
-1.90188e-14
-1.90265e-14
-1.90033e-14
-1.90806e-14
-1.90689e-14
-1.91158e-14
-1.91127e-14
-1.91742e-14
-1.91166e-14
-1.91794e-14
-1.91367e-14
-1.92301e-14
-1.91327e-14
-1.92914e-14
-1.91783e-14
-1.92862e-14
-1.92083e-14
-1.92877e-14
-1.92648e-14
-1.93665e-14
-1.92733e-14
-1.93939e-14
-1.92834e-14
-1.94116e-14
-1.9291e-14
-1.94182e-14
-1.93498e-14
-1.94634e-14
-1.94079e-14
-1.94702e-14
-1.9448e-14
-1.95071e-14
-1.94526e-14
-1.95406e-14
-1.95128e-14
-1.95669e-14
-1.9557e-14
-1.95821e-14
-1.95914e-14
-1.96192e-14
-1.95833e-14
-1.9643e-14
-1.96778e-14
-1.96763e-14
-1.9689e-14
-1.10858e-14
-1.12773e-14
-1.10858e-14
-1.12773e-14
-1.10859e-14
-1.12773e-14
-1.10859e-14
-1.12774e-14
-1.1086e-14
-1.12775e-14
-1.10861e-14
-1.12777e-14
-1.10863e-14
-1.12779e-14
-1.10865e-14
-1.12781e-14
-1.10867e-14
-1.12784e-14
-1.1087e-14
-1.12787e-14
-1.10873e-14
-1.12791e-14
-1.10877e-14
-1.12796e-14
-1.10882e-14
-1.12802e-14
-1.10887e-14
-1.12809e-14
-1.10894e-14
-1.12816e-14
-1.10902e-14
-1.12825e-14
-1.10912e-14
-1.12834e-14
-1.10922e-14
-1.12845e-14
-1.10933e-14
-1.12857e-14
-1.10946e-14
-1.12872e-14
-1.10959e-14
-1.12887e-14
-1.10975e-14
-1.12903e-14
-1.10992e-14
-1.12918e-14
-1.11012e-14
-1.12936e-14
-1.11031e-14
-1.12957e-14
-1.11053e-14
-1.12981e-14
-1.11077e-14
-1.13005e-14
-1.11102e-14
-1.13029e-14
-1.11129e-14
-1.13053e-14
-1.11157e-14
-1.1308e-14
-1.11187e-14
-1.13113e-14
-1.11223e-14
-1.13144e-14
-1.11259e-14
-1.13174e-14
-1.11293e-14
-1.13206e-14
-1.11333e-14
-1.13241e-14
-1.11374e-14
-1.13278e-14
-1.11414e-14
-1.13318e-14
-1.11456e-14
-1.13358e-14
-1.11497e-14
-1.13405e-14
-1.1154e-14
-1.13453e-14
-1.11583e-14
-1.13501e-14
-1.11633e-14
-1.13547e-14
-1.11685e-14
-1.13594e-14
-1.11729e-14
-1.13651e-14
-1.11773e-14
-1.13706e-14
-1.11821e-14
-1.13766e-14
-1.11871e-14
-1.13825e-14
-1.11924e-14
-1.13884e-14
-1.11979e-14
-1.13946e-14
-1.12035e-14
-1.14014e-14
-1.12092e-14
-1.14081e-14
-1.12151e-14
-1.14152e-14
-1.12205e-14
-1.14226e-14
-1.12263e-14
-1.14301e-14
-1.12325e-14
-1.14376e-14
-1.12392e-14
-1.1445e-14
-1.1246e-14
-1.14529e-14
-1.12523e-14
-1.14605e-14
-1.12591e-14
-1.14679e-14
-1.12663e-14
-1.14766e-14
-1.12737e-14
-1.14851e-14
-1.12811e-14
-1.1494e-14
-1.12891e-14
-1.15021e-14
-1.12976e-14
-1.15115e-14
-1.13065e-14
-1.15205e-14
-1.13146e-14
-1.15298e-14
-1.13231e-14
-1.15398e-14
-1.13318e-14
-1.15486e-14
-1.13403e-14
-1.15585e-14
-1.13485e-14
-1.15691e-14
-1.13569e-14
-1.15794e-14
-1.13647e-14
-1.15896e-14
-1.13722e-14
-1.15994e-14
-1.13802e-14
-1.16093e-14
-1.139e-14
-1.16188e-14
-1.13998e-14
-1.16291e-14
-1.14091e-14
-1.16398e-14
-1.14185e-14
-1.16498e-14
-1.14276e-14
-1.16599e-14
-1.14389e-14
-1.16708e-14
-1.14499e-14
-1.16802e-14
-1.14607e-14
-1.16889e-14
-1.1472e-14
-1.16969e-14
-1.14839e-14
-1.1705e-14
-1.14947e-14
-1.17132e-14
-1.1507e-14
-1.17225e-14
-1.15206e-14
-1.17293e-14
-1.15348e-14
-1.17381e-14
-1.1548e-14
-1.17471e-14
-1.15617e-14
-1.17554e-14
-1.15734e-14
-1.17657e-14
-1.15848e-14
-1.17755e-14
-1.15959e-14
-1.17855e-14
-1.16067e-14
-1.17985e-14
-1.1618e-14
-1.18102e-14
-1.16291e-14
-1.18186e-14
-1.16416e-14
-1.18239e-14
-1.16529e-14
-1.18313e-14
-1.16629e-14
-1.18428e-14
-1.16735e-14
-1.18539e-14
-1.16828e-14
-1.18619e-14
-1.16945e-14
-1.18704e-14
-1.1704e-14
-1.18777e-14
-1.17112e-14
-1.18864e-14
-1.17209e-14
-1.18949e-14
-1.17282e-14
-1.1905e-14
-1.17398e-14
-1.19148e-14
-1.1751e-14
-1.19216e-14
-1.17608e-14
-1.19301e-14
-1.17691e-14
-1.19394e-14
-1.17799e-14
-1.19458e-14
-1.17911e-14
-1.1954e-14
-1.18018e-14
-1.19651e-14
-1.1813e-14
-1.19742e-14
-1.18237e-14
-1.19814e-14
-1.18338e-14
-1.19859e-14
-1.18462e-14
-1.19924e-14
-1.1858e-14
-1.1999e-14
-1.18702e-14
-1.20039e-14
-1.18828e-14
-1.2009e-14
-1.18957e-14
-1.20144e-14
-1.1909e-14
-1.20221e-14
-1.19225e-14
-1.20281e-14
-1.19344e-14
-1.20307e-14
-1.19445e-14
-1.20317e-14
-1.19549e-14
-1.20312e-14
-1.19655e-14
-1.20312e-14
-1.19783e-14
-1.20278e-14
-1.19932e-14
-1.2025e-14
-1.20024e-14
-1.20288e-14
-1.20137e-14
-1.20273e-14
-1.20251e-14
-1.20225e-14
-1.20366e-14
-1.20224e-14
-1.20501e-14
-1.20231e-14
-1.20637e-14
-1.20207e-14
-1.20733e-14
-1.20211e-14
-1.20788e-14
-1.20204e-14
-1.20863e-14
-1.20226e-14
-1.20976e-14
-1.20218e-14
-1.21089e-14
-1.2022e-14
-1.21179e-14
-1.20253e-14
-1.21307e-14
-1.20277e-14
-1.21391e-14
-1.20232e-14
-1.21492e-14
-1.20218e-14
-1.21589e-14
-1.20278e-14
-1.21722e-14
-1.20331e-14
-1.21828e-14
-1.20356e-14
-1.21929e-14
-1.20333e-14
-1.22023e-14
-1.20345e-14
-1.22151e-14
-1.20392e-14
-1.22311e-14
-1.20454e-14
-1.22463e-14
-1.20531e-14
-1.22625e-14
-1.20562e-14
-1.22798e-14
-1.20588e-14
-1.23002e-14
-1.20672e-14
-1.23194e-14
-1.20793e-14
-1.23312e-14
-1.2091e-14
-1.23561e-14
-1.20982e-14
-1.23797e-14
-1.21031e-14
-1.23998e-14
-1.21097e-14
-1.24226e-14
-1.21201e-14
-1.24438e-14
-1.21383e-14
-1.24552e-14
-1.21604e-14
-1.24855e-14
-1.21741e-14
-1.25098e-14
-1.21875e-14
-1.25405e-14
-1.22047e-14
-1.25651e-14
-1.22259e-14
-1.25959e-14
-1.22467e-14
-1.26246e-14
-1.22756e-14
-1.26552e-14
-1.23042e-14
-1.26834e-14
-1.23285e-14
-1.27134e-14
-1.23608e-14
-1.27366e-14
-1.24094e-14
-1.27613e-14
-1.24498e-14
-1.27953e-14
-1.2486e-14
-1.28262e-14
-1.25265e-14
-1.2854e-14
-1.2567e-14
-1.28867e-14
-1.26035e-14
-1.2924e-14
-1.26362e-14
-1.29578e-14
-1.26771e-14
-1.2992e-14
-1.271e-14
-1.30346e-14
-1.27389e-14
-1.30774e-14
-1.27639e-14
-1.31245e-14
-1.27928e-14
-1.31716e-14
-1.28217e-14
-1.32067e-14
-1.28502e-14
-1.32417e-14
-1.28744e-14
-1.32686e-14
-1.29103e-14
-1.33033e-14
-1.29497e-14
-1.33336e-14
-1.29845e-14
-1.33675e-14
-1.30227e-14
-1.34008e-14
-1.30643e-14
-1.34373e-14
-1.30971e-14
-1.34729e-14
-1.31249e-14
-1.35035e-14
-1.31558e-14
-1.3525e-14
-1.31975e-14
-1.35411e-14
-1.3238e-14
-1.35757e-14
-1.32612e-14
-1.36046e-14
-1.32908e-14
-1.36196e-14
-1.33348e-14
-1.36405e-14
-1.33771e-14
-1.3667e-14
-1.34097e-14
-1.37187e-14
-1.34363e-14
-1.37638e-14
-1.34725e-14
-1.38102e-14
-1.35181e-14
-1.38576e-14
-1.35648e-14
-1.39061e-14
-1.36125e-14
-1.39714e-14
-1.36688e-14
-1.40376e-14
-1.37257e-14
-1.41048e-14
-1.37749e-14
-1.41731e-14
-1.38239e-14
-1.42347e-14
-1.38801e-14
-1.42976e-14
-1.39433e-14
-1.43304e-14
-1.40131e-14
-1.4364e-14
-1.40817e-14
-1.44292e-14
-1.41336e-14
-1.44948e-14
-1.41839e-14
-1.45454e-14
-1.42556e-14
-1.45809e-14
-1.43173e-14
-1.46239e-14
-1.43693e-14
-1.46589e-14
-1.44343e-14
-1.47162e-14
-1.44969e-14
-1.47649e-14
-1.45415e-14
-1.47975e-14
-1.46058e-14
-1.48288e-14
-1.46595e-14
-1.48888e-14
-1.46947e-14
-1.49622e-14
-1.47486e-14
-1.50039e-14
-1.48131e-14
-1.50363e-14
-1.48578e-14
-1.50891e-14
-1.48978e-14
-1.51398e-14
-1.49698e-14
-1.51953e-14
-1.50512e-14
-1.52478e-14
-1.50974e-14
-1.52974e-14
-1.51453e-14
-1.53514e-14
-1.52166e-14
-1.53947e-14
-1.52814e-14
-1.54342e-14
-1.53472e-14
-1.5484e-14
-1.54066e-14
-1.55293e-14
-1.54447e-14
-1.55844e-14
-1.54899e-14
-1.56494e-14
-1.55417e-14
-1.57099e-14
-1.55919e-14
-1.57589e-14
-1.56542e-14
-1.5789e-14
-1.57065e-14
-1.58283e-14
-1.5763e-14
-1.58688e-14
-1.58379e-14
-1.59526e-14
-1.59031e-14
-1.60232e-14
-1.59577e-14
-1.60673e-14
-1.60429e-14
-1.6098e-14
-1.61165e-14
-1.61839e-14
-1.61652e-14
-1.62698e-14
-1.62015e-14
-1.63154e-14
-1.62659e-14
-1.63894e-14
-1.63028e-14
-1.64098e-14
-1.63796e-14
-1.64849e-14
-1.6456e-14
-1.65319e-14
-1.65316e-14
-1.65774e-14
-1.65661e-14
-1.66888e-14
-1.65997e-14
-1.67878e-14
-1.66159e-14
-1.68237e-14
-1.66518e-14
-1.68771e-14
-1.67331e-14
-1.69335e-14
-1.68201e-14
-1.69786e-14
-1.68467e-14
-1.70263e-14
-1.68912e-14
-1.7077e-14
-1.69393e-14
-1.71436e-14
-1.69777e-14
-1.71753e-14
-1.70305e-14
-1.72094e-14
-1.70983e-14
-1.72448e-14
-1.71565e-14
-1.7293e-14
-1.72192e-14
-1.734e-14
-1.73127e-14
-1.7371e-14
-1.74003e-14
-1.74079e-14
-1.74467e-14
-1.74622e-14
-1.74526e-14
-1.75102e-14
-1.75159e-14
-1.75637e-14
-1.75748e-14
-1.76226e-14
-1.7641e-14
-1.76737e-14
-1.76887e-14
-1.77171e-14
-1.77662e-14
-1.77628e-14
-1.78277e-14
-1.78094e-14
-1.78757e-14
-1.78683e-14
-1.7887e-14
-1.79061e-14
-1.79288e-14
-1.79339e-14
-1.79766e-14
-1.79853e-14
-1.80318e-14
-1.80605e-14
-1.80714e-14
-1.81037e-14
-1.81036e-14
-1.81385e-14
-1.81607e-14
-1.81974e-14
-1.8198e-14
-1.82362e-14
-1.82143e-14
-1.8279e-14
-1.8231e-14
-1.8305e-14
-1.8266e-14
-1.83362e-14
-1.83196e-14
-1.83697e-14
-1.83936e-14
-1.84222e-14
-1.84261e-14
-1.84747e-14
-1.84366e-14
-1.851e-14
-1.85068e-14
-1.85666e-14
-1.85749e-14
-1.86011e-14
-1.86026e-14
-1.86337e-14
-1.86293e-14
-1.8685e-14
-1.86738e-14
-1.87749e-14
-1.87156e-14
-1.88289e-14
-1.87706e-14
-1.88674e-14
-1.88611e-14
-1.89644e-14
-1.8933e-14
-1.9026e-14
-1.90056e-14
-1.90745e-14
-1.90604e-14
-1.91269e-14
-1.91006e-14
-1.9205e-14
-1.91654e-14
-1.92552e-14
-1.92169e-14
-1.92801e-14
-1.92739e-14
-1.9351e-14
-1.93592e-14
-1.93932e-14
-1.93627e-14
-1.94315e-14
-1.94124e-14
-1.94832e-14
-1.94142e-14
-1.95199e-14
-1.94325e-14
-1.96211e-14
-1.93878e-14
-1.96845e-14
-1.94024e-14
-1.97415e-14
-1.94599e-14
-1.97204e-14
-1.96845e-14
-1.97829e-14
-1.97413e-14
-1.98103e-14
-1.97666e-14
-1.9881e-14
-1.98092e-14
-1.99442e-14
-1.98821e-14
-1.99621e-14
-1.99291e-14
-2.00059e-14
-1.99922e-14
-2.00548e-14
-2.0058e-14
-2.0069e-14
-2.00901e-14
-2.01207e-14
-2.00503e-14
-2.01471e-14
-2.01341e-14
-2.01788e-14
-2.01782e-14
-2.02143e-14
-2.02059e-14
-2.02527e-14
-2.02562e-14
-2.02932e-14
-2.02715e-14
-2.03379e-14
-2.03082e-14
-2.03668e-14
-2.03454e-14
-2.03993e-14
-2.03848e-14
-2.04348e-14
-2.04273e-14
-2.04735e-14
-2.04735e-14
-2.05156e-14
-2.04838e-14
-2.05216e-14
-2.0496e-14
-2.053e-14
-2.04896e-14
-2.05428e-14
-2.05244e-14
-2.05575e-14
-2.05591e-14
-2.0572e-14
-2.05528e-14
-2.05882e-14
-2.05472e-14
-2.05848e-14
-2.06056e-14
-2.06227e-14
-2.05778e-14
-2.06646e-14
-2.05917e-14
-2.06919e-14
-2.06911e-14
-2.07225e-14
-2.07241e-14
-2.07572e-14
-2.07119e-14
-2.07983e-14
-2.07659e-14
-2.08205e-14
-2.07839e-14
-2.08464e-14
-2.08127e-14
-2.08884e-14
-2.08762e-14
-2.09449e-14
-2.09179e-14
-2.09817e-14
-2.09487e-14
-2.1035e-14
-2.09564e-14
-2.10594e-14
-2.10101e-14
-2.10888e-14
-2.10271e-14
-2.11236e-14
-2.10172e-14
-2.11659e-14
-2.10758e-14
-2.11655e-14
-2.11066e-14
-2.11814e-14
-2.11369e-14
-2.11998e-14
-2.12048e-14
-2.12191e-14
-2.12377e-14
-2.12133e-14
-2.12353e-14
-2.12198e-14
-2.12098e-14
-2.12403e-14
-2.1249e-14
-2.12866e-14
-2.13161e-14
-2.13329e-14
-2.13351e-14
-2.13542e-14
-2.13179e-14
-2.13778e-14
-2.13667e-14
-2.14162e-14
-2.13911e-14
-2.14046e-14
-2.13901e-14
-2.14075e-14
-2.14033e-14
-2.14243e-14
-2.14309e-14
-2.14547e-14
-2.14466e-14
-2.14589e-14
-2.14498e-14
-2.14633e-14
-2.14674e-14
-2.15216e-14
-2.14596e-14
-2.15281e-14
-2.14784e-14
-2.15503e-14
-2.14967e-14
-2.15884e-14
-2.15145e-14
-2.16291e-14
-2.1531e-14
-2.16454e-14
-2.15588e-14
-2.16369e-14
-2.15706e-14
-2.16723e-14
-2.15808e-14
-2.16687e-14
-2.15893e-14
-2.16672e-14
-2.15965e-14
-2.16815e-14
-2.16023e-14
-2.17259e-14
-2.16063e-14
-2.17451e-14
-2.16222e-14
-2.1739e-14
-2.16215e-14
-2.17498e-14
-2.16185e-14
-2.17853e-14
-2.16417e-14
-2.18027e-14
-2.16698e-14
-2.17871e-14
-2.16668e-14
-2.17814e-14
-2.16618e-14
-2.17853e-14
-2.1662e-14
-2.17992e-14
-2.166e-14
-2.18086e-14
-2.16558e-14
-2.18061e-14
-2.16563e-14
-2.18137e-14
-2.16689e-14
-2.18238e-14
-2.1679e-14
-2.18438e-14
-2.16868e-14
-2.18293e-14
-2.1692e-14
-2.18392e-14
-2.17024e-14
-2.18287e-14
-2.17105e-14
-2.18272e-14
-2.1709e-14
-2.18198e-14
-2.1713e-14
-2.18137e-14
-2.17303e-14
-2.1816e-14
-2.17461e-14
-2.18115e-14
-2.1738e-14
-2.18078e-14
-2.17439e-14
-2.18046e-14
-2.17487e-14
-2.18094e-14
-2.17678e-14
-2.18145e-14
-2.17786e-14
-2.18121e-14
-2.17812e-14
-2.181e-14
-2.17756e-14
-2.1808e-14
-2.17851e-14
-2.18139e-14
-2.18019e-14
-2.18197e-14
-2.1803e-14
-2.18178e-14
-2.18038e-14
-2.18002e-14
-2.18044e-14
-2.1798e-14
-2.18207e-14
-2.18033e-14
-2.18215e-14
-2.18006e-14
-2.18144e-14
-2.18055e-14
-2.18074e-14
-2.18106e-14
-2.17922e-14
-2.18158e-14
-2.18003e-14
-2.18133e-14
-2.18081e-14
-2.1811e-14
-2.17841e-14
-2.1809e-14
-2.17675e-14
-2.18074e-14
-2.17742e-14
-2.1806e-14
-2.17804e-14
-2.18049e-14
-2.17784e-14
-2.18041e-14
-2.17681e-14
-2.17955e-14
-2.17614e-14
-2.17872e-14
-2.17544e-14
-2.17872e-14
-2.17391e-14
-2.17714e-14
-2.17354e-14
-2.17719e-14
-2.17234e-14
-2.17726e-14
-2.1711e-14
-2.17614e-14
-2.17063e-14
-2.17425e-14
-2.17094e-14
-2.17398e-14
-2.17042e-14
-2.17332e-14
-2.16948e-14
-2.17226e-14
-2.16811e-14
-2.17122e-14
-2.16792e-14
-2.1714e-14
-2.16773e-14
-2.17078e-14
-2.1671e-14
-2.16976e-14
-2.16646e-14
-2.16915e-14
-2.16701e-14
-2.16895e-14
-2.16797e-14
-2.16876e-14
-2.16811e-14
-2.16855e-14
-2.16661e-14
-2.16836e-14
-2.1651e-14
-2.16817e-14
-2.1648e-14
-2.1684e-14
-2.16449e-14
-2.16782e-14
-2.16458e-14
-2.16766e-14
-2.16508e-14
-2.16711e-14
-2.16515e-14
-2.16656e-14
-2.16441e-14
-2.16602e-14
-2.16366e-14
-2.16549e-14
-2.16331e-14
-2.1662e-14
-2.16215e-14
-2.16529e-14
-2.16179e-14
-2.16481e-14
-2.16143e-14
-2.16516e-14
-2.16064e-14
-2.16511e-14
-2.15985e-14
-2.16427e-14
-2.15905e-14
-2.16386e-14
-2.15823e-14
-2.16305e-14
-2.15781e-14
-2.16226e-14
-2.15697e-14
-2.1615e-14
-2.15612e-14
-2.16075e-14
-2.15608e-14
-2.16043e-14
-2.15562e-14
-2.16054e-14
-2.15474e-14
-2.15984e-14
-2.15386e-14
-2.15897e-14
-2.15337e-14
-2.15934e-14
-2.15226e-14
-2.15953e-14
-2.15114e-14
-2.15892e-14
-2.15001e-14
-2.15854e-14
-2.14886e-14
-2.15634e-14
-2.1477e-14
-2.1556e-14
-2.14735e-14
-2.15611e-14
-2.1478e-14
-2.15603e-14
-2.14804e-14
-2.15557e-14
-2.14766e-14
-2.15512e-14
-2.14665e-14
-2.15511e-14
-2.14563e-14
-2.15491e-14
-2.14542e-14
-2.15453e-14
-2.145e-14
-2.15377e-14
-2.14456e-14
-2.15344e-14
-2.14493e-14
-2.15312e-14
-2.14508e-14
-2.15221e-14
-2.14442e-14
-2.15112e-14
-2.14375e-14
-2.15065e-14
-2.14368e-14
-2.1502e-14
-2.1434e-14
-2.14956e-14
-2.14292e-14
-2.14914e-14
-2.14263e-14
-2.14933e-14
-2.14254e-14
-2.14933e-14
-2.14224e-14
-2.14914e-14
-2.14174e-14
-2.14917e-14
-2.14123e-14
-2.14921e-14
-2.14072e-14
-2.14926e-14
-2.1402e-14
-2.14912e-14
-2.14008e-14
-2.1488e-14
-2.13975e-14
-2.14869e-14
-2.13922e-14
-2.14878e-14
-2.13849e-14
-2.14869e-14
-2.13775e-14
-2.14881e-14
-2.1374e-14
-2.14914e-14
-2.13704e-14
-2.14928e-14
-2.13668e-14
-2.14944e-14
-2.13612e-14
-2.1498e-14
-2.13594e-14
-2.15017e-14
-2.13555e-14
-2.15017e-14
-2.13536e-14
-2.15018e-14
-2.13496e-14
-2.15058e-14
-2.13437e-14
-2.15081e-14
-2.13386e-14
-2.15104e-14
-2.13344e-14
-2.15129e-14
-2.13311e-14
-2.15145e-14
-2.13297e-14
-2.15134e-14
-2.13272e-14
-2.15133e-14
-2.13236e-14
-2.15124e-14
-2.13219e-14
-2.15126e-14
-2.13201e-14
-2.1512e-14
-2.13201e-14
-2.15105e-14
-2.13173e-14
-2.15119e-14
-2.13143e-14
-2.15125e-14
-2.1315e-14
-2.15104e-14
-2.13147e-14
-2.15057e-14
-2.13143e-14
-2.15047e-14
-2.13111e-14
-2.15038e-14
-2.13087e-14
-2.1503e-14
-2.13072e-14
-2.15023e-14
-2.13075e-14
-2.15017e-14
-2.1305e-14
-2.15012e-14
-2.13024e-14
-2.14999e-14
-2.13033e-14
-2.14986e-14
-2.13042e-14
-2.14957e-14
-2.1305e-14
-2.14928e-14
-2.13032e-14
-2.14918e-14
-2.13012e-14
-2.14899e-14
-2.13019e-14
-2.14899e-14
-2.13059e-14
-2.14882e-14
-2.13082e-14
-2.14874e-14
-2.13087e-14
-2.14867e-14
-2.13083e-14
-2.1486e-14
-2.13078e-14
-2.14846e-14
-2.1309e-14
-2.14857e-14
-2.13101e-14
-2.14868e-14
-2.13096e-14
-2.14863e-14
-2.1309e-14
-2.14867e-14
-2.13092e-14
-2.14871e-14
-2.13094e-14
-2.14876e-14
-2.13095e-14
-2.14889e-14
-2.13096e-14
-2.14886e-14
-2.1312e-14
-2.1488e-14
-2.13135e-14
-2.14875e-14
-2.13143e-14
-2.14873e-14
-2.13146e-14
-2.1488e-14
-2.13149e-14
-2.14887e-14
-2.13156e-14
-2.14894e-14
-2.13158e-14
-2.14897e-14
-2.13153e-14
-2.1489e-14
-2.13177e-14
-2.14894e-14
-2.13186e-14
-2.14898e-14
-2.13177e-14
-2.14899e-14
-2.13171e-14
-2.14897e-14
-2.13168e-14
-2.14895e-14
-2.13176e-14
-2.14897e-14
-2.13186e-14
-2.14892e-14
-2.1319e-14
-2.14887e-14
-2.13203e-14
-2.14876e-14
-2.13216e-14
-2.14869e-14
-2.13216e-14
-2.14862e-14
-2.13222e-14
-2.14856e-14
-2.13237e-14
-2.14846e-14
-2.13257e-14
-2.14834e-14
-2.13272e-14
-2.14831e-14
-2.13282e-14
-2.14834e-14
-2.13293e-14
-2.14832e-14
-2.13303e-14
-2.14827e-14
-2.1331e-14
-2.14822e-14
-2.13323e-14
-2.14817e-14
-2.13335e-14
-2.14816e-14
-2.13346e-14
-2.14817e-14
-2.13355e-14
-2.14816e-14
-2.13366e-14
-2.14814e-14
-2.13376e-14
-2.14808e-14
-2.13387e-14
-2.14805e-14
-2.13397e-14
-2.148e-14
-2.13409e-14
-2.14797e-14
-2.13419e-14
-2.14795e-14
-2.1343e-14
-2.14792e-14
-2.13438e-14
-2.1479e-14
-2.13448e-14
-2.14788e-14
-2.13461e-14
-2.14785e-14
-2.1347e-14
-2.14781e-14
-2.13474e-14
-2.14778e-14
-2.1348e-14
-2.14775e-14
-2.13483e-14
-2.14776e-14
-2.13486e-14
-2.14776e-14
-2.13489e-14
-2.14775e-14
-2.13492e-14
-2.14775e-14
-2.13498e-14
-2.14775e-14
-2.13503e-14
-2.14776e-14
-2.13506e-14
-2.14777e-14
-2.13507e-14
-2.14777e-14
-2.13508e-14
-2.14777e-14
-2.13509e-14
-2.14778e-14
-2.1351e-14
-2.1478e-14
-2.13512e-14
-2.14781e-14
-2.13513e-14
-2.14781e-14
-2.13515e-14
-2.14782e-14
-2.13516e-14
-2.14783e-14
-2.13516e-14
-2.14783e-14
-2.13517e-14
-2.14783e-14
-2.13518e-14
-2.14783e-14
-2.13519e-14
-2.14783e-14
-2.1352e-14
-2.14783e-14
-2.13521e-14
-2.14784e-14
-2.13521e-14
-2.14784e-14
-2.13521e-14
-2.14784e-14
-2.13521e-14
-2.14784e-14
-2.13522e-14
-2.14785e-14
-2.13522e-14
-2.14785e-14
-2.13522e-14
-2.14785e-14
-2.13522e-14
-2.14785e-14
-2.13522e-14
-2.14785e-14
-2.13522e-14
-2.14785e-14
-2.13522e-14
-2.14785e-14
-2.13522e-14
-1.97955e-14
-1.95435e-14
-1.98426e-14
-1.95916e-14
-1.98241e-14
-1.96982e-14
-1.98826e-14
-1.97611e-14
-1.99227e-14
-1.98582e-14
-1.99334e-14
-1.99066e-14
-1.9965e-14
-1.99308e-14
-1.99987e-14
-2.00032e-14
-2.00474e-14
-2.00537e-14
-2.00554e-14
-2.0103e-14
-2.00921e-14
-2.01232e-14
-2.01216e-14
-2.01273e-14
-2.01867e-14
-2.01487e-14
-2.02153e-14
-2.01823e-14
-2.02658e-14
-2.0208e-14
-2.03217e-14
-2.02441e-14
-2.03449e-14
-2.02685e-14
-2.03752e-14
-2.03014e-14
-2.03914e-14
-2.03435e-14
-2.04103e-14
-2.0356e-14
-2.04526e-14
-2.03786e-14
-2.05205e-14
-2.03895e-14
-2.05154e-14
-2.04477e-14
-2.05371e-14
-2.04983e-14
-2.05622e-14
-2.05015e-14
-2.05709e-14
-2.04972e-14
-2.06076e-14
-2.05286e-14
-2.06295e-14
-2.05754e-14
-2.06128e-14
-2.05725e-14
-2.05986e-14
-2.05889e-14
-2.06052e-14
-2.06499e-14
-2.06057e-14
-2.0713e-14
-2.06637e-14
-2.07147e-14
-2.07388e-14
-2.0743e-14
-2.07771e-14
-2.07477e-14
-2.07811e-14
-2.07729e-14
-2.08308e-14
-2.07965e-14
-2.08693e-14
-2.08396e-14
-2.08956e-14
-2.08551e-14
-2.09339e-14
-2.08898e-14
-2.09721e-14
-2.09326e-14
-2.10103e-14
-2.09959e-14
-2.10475e-14
-2.10213e-14
-2.1072e-14
-2.10333e-14
-2.1121e-14
-2.10178e-14
-2.11616e-14
-2.10574e-14
-2.11567e-14
-2.11032e-14
-2.11783e-14
-2.11572e-14
-2.11875e-14
-2.11708e-14
-2.11841e-14
-2.11442e-14
-2.122e-14
-2.11658e-14
-2.1245e-14
-2.12094e-14
-2.12836e-14
-2.1198e-14
-2.13117e-14
-2.11938e-14
-2.13043e-14
-2.12614e-14
-2.13233e-14
-2.12866e-14
-2.13552e-14
-2.13088e-14
-2.13748e-14
-2.13283e-14
-2.14088e-14
-2.13584e-14
-2.14308e-14
-2.13726e-14
-2.14679e-14
-2.13705e-14
-2.14811e-14
-2.13643e-14
-2.14709e-14
-2.13803e-14
-2.14761e-14
-2.142e-14
-2.15095e-14
-2.14302e-14
-2.15446e-14
-2.14786e-14
-2.15672e-14
-2.15388e-14
-2.15898e-14
-2.1571e-14
-2.15845e-14
-2.15753e-14
-2.16067e-14
-2.15514e-14
-2.16295e-14
-2.15539e-14
-2.16677e-14
-2.15825e-14
-2.16656e-14
-2.16092e-14
-2.16644e-14
-2.16065e-14
-2.1678e-14
-2.16168e-14
-2.16922e-14
-2.16259e-14
-2.1693e-14
-2.16195e-14
-2.16946e-14
-2.16261e-14
-2.17039e-14
-2.1653e-14
-2.17276e-14
-2.16644e-14
-2.17303e-14
-2.16747e-14
-2.17116e-14
-2.16697e-14
-2.17222e-14
-2.16714e-14
-2.17403e-14
-2.16944e-14
-2.17439e-14
-2.1717e-14
-2.17549e-14
-2.17324e-14
-2.17658e-14
-2.17258e-14
-2.17769e-14
-2.17411e-14
-2.17881e-14
-2.17713e-14
-2.17992e-14
-2.18019e-14
-2.18101e-14
-2.18033e-14
-2.1806e-14
-2.18052e-14
-2.18092e-14
-2.18152e-14
-2.18199e-14
-2.18183e-14
-2.18231e-14
-2.18219e-14
-2.18188e-14
-2.18184e-14
-2.18373e-14
-2.18229e-14
-2.18333e-14
-2.18353e-14
-2.18371e-14
-2.18329e-14
-2.1841e-14
-2.18155e-14
-2.18377e-14
-2.18056e-14
-2.1827e-14
-2.18109e-14
-2.18398e-14
-2.1824e-14
-2.18451e-14
-2.18371e-14
-2.18506e-14
-2.18348e-14
-2.18563e-14
-2.1817e-14
-2.1847e-14
-2.18144e-14
-2.18381e-14
-2.18351e-14
-2.18294e-14
-2.1848e-14
-2.18049e-14
-2.18533e-14
-2.17958e-14
-2.18591e-14
-2.17861e-14
-2.18656e-14
-2.17759e-14
-2.18649e-14
-2.17806e-14
-2.1873e-14
-2.17768e-14
-2.18661e-14
-2.17644e-14
-2.1852e-14
-2.17672e-14
-2.18467e-14
-2.17773e-14
-2.185e-14
-2.1771e-14
-2.18379e-14
-2.17643e-14
-2.18264e-14
-2.17571e-14
-2.18114e-14
-2.17614e-14
-2.18007e-14
-2.17536e-14
-2.17904e-14
-2.17655e-14
-2.17804e-14
-2.17733e-14
-2.17745e-14
-2.1769e-14
-2.17607e-14
-2.17608e-14
-2.17349e-14
-2.17526e-14
-2.17211e-14
-2.17487e-14
-2.17233e-14
-2.17529e-14
-2.17295e-14
-2.17452e-14
-2.17195e-14
-2.17335e-14
-2.17095e-14
-2.17219e-14
-2.17075e-14
-2.17348e-14
-2.17015e-14
-2.17235e-14
-2.16913e-14
-2.17163e-14
-2.16892e-14
-2.17175e-14
-2.16952e-14
-2.17147e-14
-2.16971e-14
-2.17079e-14
-2.16826e-14
-2.16889e-14
-2.16639e-14
-2.16823e-14
-2.16493e-14
-2.16758e-14
-2.16428e-14
-2.16694e-14
-2.16402e-14
-2.16589e-14
-2.16417e-14
-2.16403e-14
-2.16349e-14
-2.16298e-14
-2.16321e-14
-2.16193e-14
-2.16212e-14
-2.16128e-14
-2.16061e-14
-2.15981e-14
-2.16115e-14
-2.15832e-14
-2.16251e-14
-2.15805e-14
-2.16224e-14
-2.15735e-14
-2.16116e-14
-2.15664e-14
-2.1605e-14
-2.1555e-14
-2.16066e-14
-2.15516e-14
-2.15961e-14
-2.15357e-14
-2.15816e-14
-2.15196e-14
-2.15754e-14
-2.15074e-14
-2.15734e-14
-2.15032e-14
-2.15674e-14
-2.14948e-14
-2.15574e-14
-2.1482e-14
-2.15434e-14
-2.14772e-14
-2.15336e-14
-2.1464e-14
-2.15322e-14
-2.14547e-14
-2.15267e-14
-2.1435e-14
-2.15132e-14
-2.14232e-14
-2.15018e-14
-2.14051e-14
-2.15007e-14
-2.1397e-14
-2.14978e-14
-2.13845e-14
-2.1493e-14