/*--------------------------------*- C++ -*----------------------------------*\
| =========                 |                                                 |
| \\      /  F ield         | OpenFOAM: The Open Source CFD Toolbox           |
|  \\    /   O peration     | Version:  2106                                  |
|   \\  /    A nd           | Website:  www.openfoam.com                      |
|    \\/     M anipulation  |                                                 |
\*---------------------------------------------------------------------------*/
FoamFile
{
    version     2.0;
    format      ascii;
    arch        "LSB;label=32;scalar=64";
    class       surfaceScalarField;
    location    "13000";
    object      phi;
}
// * * * * * * * * * * * * * * * * * * * * * * * * * * * * * * * * * * * * * //

dimensions      [0 3 -1 0 0 0 0];

oriented        oriented;

internalField   nonuniform List<scalar> 
5116
(
1.12375e-07
-4.57658e-18
1.11321e-21
-5.08482e-22
9.30239e-22
3.43651e-07
-4.58246e-18
2.96295e-21
7.59818e-22
1.64489e-21
5.8495e-07
-4.58846e-18
3.08609e-21
2.0677e-21
1.71491e-21
8.36379e-07
-4.59491e-18
3.20281e-21
3.5222e-21
1.78362e-21
1.09735e-06
-4.60227e-18
3.30412e-21
5.19071e-21
1.84286e-21
1.36577e-06
-4.60924e-18
3.36367e-21
6.62896e-21
1.87849e-21
1.63733e-06
-4.61609e-18
3.35303e-21
8.35011e-21
1.87501e-21
1.90606e-06
-4.62277e-18
3.25937e-21
9.88263e-21
1.82512e-21
2.16599e-06
-4.62901e-18
3.0953e-21
1.1202e-20
1.73566e-21
2.41309e-06
-4.63491e-18
2.89052e-21
1.25741e-20
1.62316e-21
2.64575e-06
-4.63999e-18
2.67497e-21
1.38984e-20
1.50437e-21
2.86428e-06
-4.64501e-18
2.46895e-21
1.50358e-20
1.39072e-21
3.07003e-06
-4.65055e-18
2.28244e-21
1.69164e-20
1.28783e-21
3.26471e-06
-4.6541e-18
2.11846e-21
1.71337e-20
1.19742e-21
3.45005e-06
-4.65767e-18
1.97634e-21
1.76587e-20
1.11918e-21
3.62761e-06
-4.66118e-18
1.85391e-21
1.81291e-20
1.0519e-21
3.79875e-06
-4.66448e-18
1.74856e-21
1.86918e-20
9.94152e-22
3.96464e-06
-4.66778e-18
1.65777e-21
2.04362e-20
9.44549e-22
4.12623e-06
-4.67271e-18
1.57932e-21
2.11473e-20
9.01829e-22
4.28436e-06
-4.67676e-18
1.51132e-21
2.28691e-20
8.64976e-22
4.43971e-06
-4.68124e-18
1.45216e-21
2.42086e-20
8.33072e-22
4.59286e-06
-4.68597e-18
1.40056e-21
2.68188e-20
8.05387e-22
4.74432e-06
-4.68995e-18
1.35539e-21
2.83473e-20
7.81312e-22
4.89451e-06
-4.69217e-18
1.31577e-21
2.83953e-20
7.60359e-22
5.0438e-06
-4.69443e-18
1.28091e-21
2.83983e-20
7.42145e-22
5.19251e-06
-4.69616e-18
1.25019e-21
2.771e-20
7.26307e-22
5.34091e-06
-4.69718e-18
1.22309e-21
2.80101e-20
7.12573e-22
5.48926e-06
-4.70021e-18
1.19916e-21
2.91669e-20
7.00683e-22
5.63778e-06
-4.70205e-18
1.17805e-21
2.88041e-20
6.90411e-22
5.78667e-06
-4.70305e-18
1.15943e-21
2.86743e-20
6.81615e-22
5.93609e-06
-4.70506e-18
1.14303e-21
2.97583e-20
6.74146e-22
6.08621e-06
-4.7064e-18
1.12866e-21
2.91468e-20
6.67804e-22
6.23718e-06
-4.70763e-18
1.11608e-21
2.90626e-20
6.62546e-22
6.38914e-06
-4.70888e-18
1.10508e-21
2.90457e-20
6.58313e-22
6.5422e-06
-4.70982e-18
1.09558e-21
2.91154e-20
6.55013e-22
6.69648e-06
-4.71143e-18
1.08739e-21
2.96399e-20
6.52562e-22
6.85209e-06
-4.71396e-18
1.0804e-21
3.03555e-20
6.50853e-22
7.00913e-06
-4.7167e-18
1.07458e-21
3.16422e-20
6.49841e-22
7.16769e-06
-4.71943e-18
1.06979e-21
3.5296e-20
6.49538e-22
7.32787e-06
-4.72224e-18
1.06602e-21
3.66155e-20
6.49782e-22
7.48976e-06
-4.7254e-18
1.06318e-21
3.98377e-20
6.50544e-22
7.65343e-06
-4.72652e-18
1.06127e-21
3.96119e-20
6.51744e-22
7.81897e-06
-4.72475e-18
1.06017e-21
3.89994e-20
6.53458e-22
7.98644e-06
-4.72529e-18
1.05965e-21
3.78458e-20
6.55687e-22
8.15594e-06
-4.72615e-18
1.05985e-21
3.98137e-20
6.5837e-22
8.32752e-06
-4.72624e-18
1.06073e-21
3.81996e-20
6.61415e-22
8.50126e-06
-4.72818e-18
1.06221e-21
3.92142e-20
6.64942e-22
8.67723e-06
-4.72977e-18
1.06439e-21
3.8975e-20
6.68809e-22
8.85549e-06
-4.72829e-18
1.06717e-21
3.73613e-20
6.73053e-22
9.03612e-06
-4.73137e-18
1.07038e-21
3.64167e-20
6.77761e-22
9.21917e-06
-4.73268e-18
1.07425e-21
3.78017e-20
6.82892e-22
9.40472e-06
-4.72838e-18
1.0786e-21
3.66853e-20
6.8844e-22
9.59282e-06
-4.72764e-18
1.08315e-21
3.48751e-20
6.94508e-22
9.78354e-06
-4.72806e-18
1.08808e-21
3.39981e-20
7.01147e-22
9.97695e-06
-4.72728e-18
1.09333e-21
3.28647e-20
7.08321e-22
1.01731e-05
-4.72641e-18
1.09885e-21
3.21663e-20
7.16058e-22
1.03721e-05
-4.72936e-18
1.10462e-21
3.13246e-20
7.24343e-22
1.05739e-05
-4.72831e-18
1.11064e-21
3.09202e-20
7.33108e-22
1.07787e-05
-4.7281e-18
1.11682e-21
2.95512e-20
7.42351e-22
1.09864e-05
-4.72853e-18
1.12322e-21
2.76971e-20
7.52245e-22
1.11973e-05
-4.7319e-18
1.12985e-21
3.13347e-20
7.62724e-22
1.14112e-05
-4.72742e-18
1.13684e-21
2.95013e-20
7.73633e-22
1.16284e-05
-4.72544e-18
1.1438e-21
2.54114e-20
7.85054e-22
1.18488e-05
-4.72463e-18
1.15094e-21
2.45446e-20
7.97209e-22
1.20725e-05
-4.72767e-18
1.15821e-21
2.5859e-20
8.09984e-22
1.22996e-05
-4.72834e-18
1.16556e-21
2.76106e-20
8.23153e-22
1.25301e-05
-4.73099e-18
1.17301e-21
2.89889e-20
8.36557e-22
1.27642e-05
-4.73244e-18
1.18067e-21
2.86244e-20
8.50141e-22
1.30018e-05
-4.73783e-18
1.18847e-21
3.03688e-20
8.64203e-22
1.32431e-05
-4.7356e-18
1.19663e-21
3.27661e-20
8.78642e-22
1.34881e-05
-4.74053e-18
1.20472e-21
3.6563e-20
8.93323e-22
1.37369e-05
-4.74357e-18
1.21313e-21
3.68632e-20
9.08086e-22
1.39895e-05
-4.7451e-18
1.22183e-21
3.81926e-20
9.23058e-22
1.4246e-05
-4.75091e-18
1.23092e-21
4.21269e-20
9.38406e-22
1.45066e-05
-4.75258e-18
1.24098e-21
4.25319e-20
9.53846e-22
1.47712e-05
-4.75453e-18
1.2515e-21
4.19731e-20
9.69571e-22
1.50399e-05
-4.75673e-18
1.26239e-21
4.22648e-20
9.85819e-22
1.53129e-05
-4.75869e-18
1.27367e-21
4.29267e-20
1.00244e-21
1.55901e-05
-4.76364e-18
1.28508e-21
4.13241e-20
1.01946e-21
1.58717e-05
-4.76197e-18
1.29717e-21
3.89251e-20
1.03744e-21
1.61577e-05
-4.76393e-18
1.30893e-21
4.17935e-20
1.05639e-21
1.64482e-05
-4.76418e-18
1.32091e-21
3.46019e-20
1.07599e-21
1.67433e-05
-4.76289e-18
1.33278e-21
3.77713e-20
1.09724e-21
1.70431e-05
-4.76285e-18
1.34454e-21
3.39263e-20
1.11951e-21
1.73476e-05
-4.76698e-18
1.35595e-21
3.79762e-20
1.14335e-21
1.7657e-05
-4.77494e-18
1.36759e-21
4.05377e-20
1.16824e-21
1.79713e-05
-4.77947e-18
1.37993e-21
4.85452e-20
1.19369e-21
1.82905e-05
-4.78279e-18
1.39241e-21
4.67585e-20
1.21996e-21
1.86149e-05
-4.7874e-18
1.40483e-21
4.90208e-20
1.24787e-21
1.89444e-05
-4.79289e-18
1.41723e-21
5.41262e-20
1.2773e-21
1.92791e-05
-4.79986e-18
1.42915e-21
5.49135e-20
1.30823e-21
1.96192e-05
-4.79993e-18
1.44126e-21
5.72686e-20
1.34036e-21
1.99647e-05
-4.80478e-18
1.4528e-21
6.09855e-20
1.37385e-21
2.03158e-05
-4.8109e-18
1.46479e-21
6.11362e-20
1.40876e-21
2.06724e-05
-4.81352e-18
1.47752e-21
6.08695e-20
1.44425e-21
2.10348e-05
-4.81977e-18
1.49037e-21
6.41433e-20
1.48015e-21
2.1403e-05
-4.82035e-18
1.5046e-21
6.454e-20
1.51641e-21
2.1777e-05
-4.81985e-18
1.51835e-21
6.31384e-20
1.55438e-21
2.21571e-05
-4.82695e-18
1.53147e-21
6.79189e-20
1.59401e-21
2.25432e-05
-4.82827e-18
1.54524e-21
6.71703e-20
1.63371e-21
2.29356e-05
-4.83402e-18
1.55821e-21
6.64263e-20
1.67425e-21
2.33342e-05
-4.82803e-18
1.57176e-21
6.60324e-20
1.71615e-21
2.37393e-05
-4.83057e-18
1.58345e-21
6.35511e-20
1.75898e-21
2.41508e-05
-4.83419e-18
1.59567e-21
6.43511e-20
1.80355e-21
2.4569e-05
-4.83477e-18
1.60844e-21
5.96934e-20
1.84871e-21
2.49939e-05
-4.83838e-18
1.62062e-21
5.82045e-20
1.89464e-21
2.54256e-05
-4.83758e-18
1.63506e-21
5.5051e-20
1.94076e-21
2.58643e-05
-4.83965e-18
1.64968e-21
5.12668e-20
1.98716e-21
2.631e-05
-4.8389e-18
1.66519e-21
4.96896e-20
2.03369e-21
2.67629e-05
-4.84117e-18
1.68034e-21
4.66226e-20
2.08118e-21
2.72231e-05
-4.83915e-18
1.69677e-21
4.44967e-20
2.12981e-21
2.76907e-05
-4.84214e-18
1.71157e-21
4.26757e-20
2.18046e-21
2.81659e-05
-4.84405e-18
1.72574e-21
3.26077e-20
2.23241e-21
2.86486e-05
-4.84035e-18
1.73867e-21
2.47178e-20
2.28647e-21
2.91392e-05
-4.8386e-18
1.74958e-21
1.89974e-20
2.34246e-21
2.96377e-05
-4.83602e-18
1.75904e-21
1.99996e-20
2.39872e-21
3.01442e-05
-4.83778e-18
1.76732e-21
1.602e-20
2.45571e-21
3.06589e-05
-4.84101e-18
1.77581e-21
1.97152e-20
2.51494e-21
3.11819e-05
-4.84854e-18
1.7846e-21
2.57346e-20
2.57539e-21
3.17133e-05
-4.8478e-18
1.79705e-21
2.30224e-20
2.63536e-21
3.22532e-05
-4.84995e-18
1.8111e-21
2.64008e-20
2.69676e-21
3.28019e-05
-4.84477e-18
1.82575e-21
2.25177e-20
2.75949e-21
3.33595e-05
-4.84181e-18
1.8395e-21
2.17068e-20
2.82441e-21
3.3926e-05
-4.84622e-18
1.85304e-21
2.73602e-20
2.8891e-21
3.45017e-05
-4.84424e-18
1.86836e-21
2.64992e-20
2.95208e-21
3.50866e-05
-4.84384e-18
1.88496e-21
2.5649e-20
3.01591e-21
3.5681e-05
-4.84403e-18
1.90056e-21
1.93818e-20
3.08063e-21
3.6285e-05
-4.84288e-18
1.91949e-21
1.49468e-20
3.14586e-21
3.68987e-05
-4.83244e-18
1.94133e-21
1.85502e-20
3.20978e-21
3.75223e-05
-4.81962e-18
1.95947e-21
9.89842e-21
3.27461e-21
3.8156e-05
-4.81674e-18
1.97237e-21
6.8539e-21
3.34043e-21
3.87999e-05
-4.81279e-18
1.98201e-21
1.26999e-21
3.40482e-21
3.94542e-05
-4.80708e-18
1.99067e-21
-1.17999e-20
3.46766e-21
4.01191e-05
-4.80223e-18
1.99822e-21
-1.52758e-20
3.52986e-21
4.07946e-05
-4.78597e-18
2.00375e-21
-3.0476e-20
3.59057e-21
4.14811e-05
-4.77946e-18
1.99781e-21
-3.42398e-20
3.65582e-21
4.21786e-05
-4.77488e-18
1.98514e-21
-4.66764e-20
3.71685e-21
4.28874e-05
-4.77639e-18
1.96603e-21
-6.14115e-20
3.77982e-21
4.36077e-05
-4.76664e-18
1.94415e-21
-7.62485e-20
3.84712e-21
4.43395e-05
-4.74859e-18
1.91266e-21
-8.49082e-20
3.91854e-21
4.50831e-05
-4.75667e-18
1.86359e-21
-8.80762e-20
3.99226e-21
4.58388e-05
-4.7576e-18
1.81097e-21
-8.89647e-20
4.06925e-21
4.66066e-05
-4.7624e-18
1.75174e-21
-8.8324e-20
4.14134e-21
4.73868e-05
-4.76745e-18
1.6888e-21
-9.43501e-20
4.21032e-21
4.81796e-05
-4.77319e-18
1.62001e-21
-9.63889e-20
4.28912e-21
4.89851e-05
-4.77609e-18
1.55114e-21
-1.05629e-19
4.36791e-21
4.98036e-05
-4.76982e-18
1.47868e-21
-1.08072e-19
4.4434e-21
5.06354e-05
-4.77316e-18
1.39671e-21
-1.18468e-19
4.51387e-21
5.14805e-05
-4.776e-18
1.31005e-21
-1.22281e-19
4.58557e-21
5.23393e-05
-4.77627e-18
1.22449e-21
-1.33184e-19
4.65629e-21
5.32118e-05
-4.77757e-18
1.14049e-21
-1.4409e-19
4.7305e-21
5.40985e-05
-4.77514e-18
1.05456e-21
-1.59968e-19
4.80692e-21
5.49994e-05
-4.77151e-18
9.7328e-22
-1.76219e-19
4.88326e-21
5.59149e-05
-4.7489e-18
8.95069e-22
-1.86744e-19
4.95691e-21
5.6845e-05
-4.74126e-18
8.06047e-22
-2.04457e-19
5.02741e-21
5.77902e-05
-4.74176e-18
7.18073e-22
-2.09294e-19
5.09522e-21
5.87506e-05
-4.73046e-18
6.31113e-22
-2.28318e-19
5.15014e-21
5.97264e-05
-4.7247e-18
5.57278e-22
-2.53102e-19
5.20446e-21
6.0718e-05
-4.69317e-18
4.94368e-22
-2.68439e-19
5.25679e-21
6.17255e-05
-4.67213e-18
4.19164e-22
-2.74625e-19
5.296e-21
6.27492e-05
-4.6413e-18
3.37354e-22
-3.11887e-19
5.33329e-21
6.37894e-05
-4.62736e-18
2.41078e-22
-3.34094e-19
5.39962e-21
6.48463e-05
-4.61891e-18
1.27597e-22
-3.36805e-19
5.47479e-21
6.59202e-05
-4.5942e-18
3.90624e-23
-3.64756e-19
5.51852e-21
6.70114e-05
-4.59523e-18
-7.42018e-23
-3.89364e-19
5.55809e-21
6.81202e-05
-4.58529e-18
-1.69409e-22
-4.12269e-19
5.60683e-21
6.92467e-05
-4.56265e-18
-2.75313e-22
-4.36819e-19
5.66596e-21
7.03914e-05
-4.53563e-18
-3.98837e-22
-4.69212e-19
5.72698e-21
7.15545e-05
-4.51514e-18
-5.56444e-22
-4.9173e-19
5.8051e-21
7.27363e-05
-4.50943e-18
-7.35276e-22
-5.25008e-19
5.89202e-21
7.3937e-05
-4.51137e-18
-9.30124e-22
-5.27016e-19
6.01694e-21
7.51571e-05
-4.51598e-18
-1.10518e-21
-5.21303e-19
6.15725e-21
7.63967e-05
-4.50477e-18
-1.29035e-21
-5.26248e-19
6.31361e-21
7.76563e-05
-4.5222e-18
-1.50589e-21
-5.32851e-19
6.475e-21
7.8936e-05
-4.50735e-18
-1.6882e-21
-5.24965e-19
6.62401e-21
8.02363e-05
-4.51682e-18
-1.89204e-21
-5.27092e-19
6.75342e-21
8.15575e-05
-4.52695e-18
-2.09657e-21
-5.23111e-19
6.86985e-21
8.28999e-05
-4.51861e-18
-2.25953e-21
-5.16757e-19
6.95434e-21
8.42639e-05
-4.49787e-18
-2.40311e-21
-5.29825e-19
7.0107e-21
8.56497e-05
-4.4931e-18
-2.56616e-21
-5.51759e-19
7.07505e-21
8.70577e-05
-4.47126e-18
-2.71637e-21
-5.65285e-19
7.1038e-21
8.84884e-05
-4.45369e-18
-2.87864e-21
-5.80408e-19
7.08811e-21
8.99419e-05
-4.43224e-18
-3.02858e-21
-6.0224e-19
7.03107e-21
9.14188e-05
-4.42468e-18
-3.17677e-21
-6.24325e-19
6.97188e-21
9.29193e-05
-4.39241e-18
-3.32122e-21
-6.41744e-19
6.91309e-21
9.44439e-05
-4.35882e-18
-3.5072e-21
-6.66133e-19
6.84088e-21
9.59929e-05
-4.34368e-18
-3.75139e-21
-6.86068e-19
6.76186e-21
9.75667e-05
-4.33229e-18
-3.98971e-21
-7.12991e-19
6.69117e-21
9.91658e-05
-4.30498e-18
-4.20193e-21
-7.39323e-19
6.61218e-21
0.00010079
-4.26751e-18
-4.43452e-21
-7.6522e-19
6.52735e-21
0.000102441
-4.24146e-18
-4.70408e-21
-7.77774e-19
6.44502e-21
0.000104118
-4.20395e-18
-4.98428e-21
-7.88615e-19
6.32952e-21
0.000105822
-4.17231e-18
-5.26867e-21
-8.06116e-19
6.16976e-21
0.000107553
-4.15136e-18
-5.57975e-21
-8.27707e-19
6.00992e-21
0.000109312
-4.11699e-18
-5.89061e-21
-8.42975e-19
5.85053e-21
0.000111099
-4.08631e-18
-6.25025e-21
-8.63905e-19
5.64145e-21
0.000112914
-4.04619e-18
-6.63545e-21
-8.91153e-19
5.40787e-21
0.000114759
-4.03011e-18
-7.02353e-21
-9.24828e-19
5.15793e-21
0.000116633
-3.9879e-18
-7.38894e-21
-9.49667e-19
4.88344e-21
0.000118537
-3.9412e-18
-7.82011e-21
-9.81895e-19
4.60335e-21
0.000120471
-3.86861e-18
-8.25941e-21
-1.01826e-18
4.37951e-21
0.000122437
-3.8565e-18
-8.7668e-21
-1.04768e-18
4.16877e-21
0.000124433
-3.81225e-18
-9.02624e-21
-1.10076e-18
3.84553e-21
0.000126462
-3.77283e-18
-9.27105e-21
-1.13888e-18
3.5737e-21
0.000128523
-3.76325e-18
-9.47612e-21
-1.17812e-18
3.3899e-21
0.000130616
-3.72463e-18
-9.61349e-21
-1.21953e-18
3.27643e-21
0.000132744
-3.69314e-18
-9.67782e-21
-1.24488e-18
3.21346e-21
0.000134905
-3.64888e-18
-9.51053e-21
-1.28911e-18
3.10694e-21
0.0001371
-3.60937e-18
-9.3369e-21
-1.32051e-18
2.98749e-21
0.000139331
-3.56865e-18
-9.15379e-21
-1.37304e-18
2.78496e-21
0.000141597
-3.54643e-18
-9.02534e-21
-1.4135e-18
2.61508e-21
0.000143899
-3.48977e-18
-8.91375e-21
-1.43614e-18
2.48797e-21
0.000146238
-3.48552e-18
-8.93234e-21
-1.44788e-18
2.3327e-21
0.000148614
-3.42958e-18
-8.85794e-21
-1.50149e-18
2.05959e-21
0.000151028
-3.3661e-18
-8.84348e-21
-1.51296e-18
1.91677e-21
0.00015348
-3.32861e-18
-8.87075e-21
-1.54461e-18
1.6545e-21
0.000155971
-3.29884e-18
-8.88389e-21
-1.57814e-18
1.33956e-21
0.000158502
-3.27206e-18
-9.03475e-21
-1.61126e-18
1.11801e-21
0.000161073
-3.25633e-18
-9.25048e-21
-1.63428e-18
9.10282e-22
0.000163685
-3.22233e-18
-9.34871e-21
-1.64443e-18
6.78352e-22
0.000166338
-3.20904e-18
-9.56604e-21
-1.6566e-18
4.17089e-22
0.000169034
-3.17292e-18
-9.57918e-21
-1.68339e-18
4.08571e-23
0.000171772
-3.15466e-18
-9.65605e-21
-1.69067e-18
-3.98441e-22
0.000174554
-3.09265e-18
-9.81385e-21
-1.73294e-18
-6.72052e-22
0.00017738
-3.01175e-18
-1.01044e-20
-1.76919e-18
-1.09023e-21
0.000180251
-2.97983e-18
-1.03452e-20
-1.77985e-18
-1.62623e-21
0.000183167
-2.96058e-18
-1.04377e-20
-1.79372e-18
-2.0198e-21
0.00018613
-2.93672e-18
-1.06051e-20
-1.80726e-18
-2.36069e-21
0.000189139
-2.89377e-18
-1.08706e-20
-1.82187e-18
-2.73155e-21
0.000192196
-2.87216e-18
-1.10757e-20
-1.82954e-18
-2.92023e-21
0.000195302
-2.84237e-18
-1.11476e-20
-1.82496e-18
-2.99852e-21
0.000198456
-2.82101e-18
-1.11645e-20
-1.84168e-18
-2.88539e-21
0.000201661
-2.80512e-18
-1.11788e-20
-1.82124e-18
-2.72607e-21
0.000204916
-2.75066e-18
-1.12312e-20
-1.79256e-18
-2.91098e-21
0.000208222
-2.73022e-18
-1.15979e-20
-1.79447e-18
-3.22235e-21
0.000211581
-2.70836e-18
-1.21329e-20
-1.78542e-18
-3.61469e-21
0.000214993
-2.66012e-18
-1.26954e-20
-1.80625e-18
-4.09844e-21
0.000218458
-2.62999e-18
-1.33822e-20
-1.80946e-18
-4.58076e-21
0.000221979
-2.60722e-18
-1.40423e-20
-1.81521e-18
-5.43794e-21
0.000225555
-2.59322e-18
-1.4318e-20
-1.82866e-18
-6.24613e-21
0.000229187
-2.55862e-18
-1.40987e-20
-1.79284e-18
-6.7659e-21
0.000232876
-2.5269e-18
-1.40397e-20
-1.796e-18
-7.66136e-21
0.000236623
-2.51527e-18
-1.42123e-20
-1.77775e-18
-8.23544e-21
0.00024043
-2.50795e-18
-1.4786e-20
-1.76772e-18
-8.72837e-21
0.000244296
-2.51478e-18
-1.53141e-20
-1.77497e-18
-8.87828e-21
0.000248223
-2.48872e-18
-1.56479e-20
-1.79949e-18
-8.75556e-21
0.000252211
-2.41747e-18
-1.50657e-20
-1.79508e-18
-8.98705e-21
0.000256263
-2.34362e-18
-1.4934e-20
-1.80089e-18
-1.00263e-20
0.000260377
-2.34926e-18
-1.55609e-20
-1.8821e-18
-1.09399e-20
0.000264556
-2.2579e-18
-1.58784e-20
-1.88953e-18
-1.12579e-20
0.000268801
-2.23022e-18
-1.55533e-20
-1.95532e-18
-1.21724e-20
0.000273112
-2.21294e-18
-1.46172e-20
-1.8477e-18
-1.27661e-20
0.000277491
-2.18528e-18
-1.44025e-20
-1.87023e-18
-1.37165e-20
0.000281937
-2.15664e-18
-1.37929e-20
-1.87048e-18
-1.47696e-20
0.000286454
-2.13012e-18
-1.45767e-20
-1.93258e-18
-1.49568e-20
0.000291041
-2.1185e-18
-1.39791e-20
-1.93624e-18
-1.51177e-20
0.000295699
-2.09728e-18
-1.34587e-20
-1.9378e-18
-1.57916e-20
0.00030043
-2.10258e-18
-1.38128e-20
-1.93802e-18
-1.64704e-20
0.000305234
-2.07752e-18
-1.29337e-20
-1.94395e-18
-1.67124e-20
0.000310114
-2.07756e-18
-1.25804e-20
-1.98301e-18
-1.81271e-20
0.000315069
-2.05307e-18
-1.34029e-20
-1.95749e-18
-1.96767e-20
0.0003201
-2.04083e-18
-1.43196e-20
-1.92795e-18
-2.08445e-20
0.00032521
-2.01529e-18
-1.4744e-20
-1.98918e-18
-2.29551e-20
0.000330399
-2.0569e-18
-1.57615e-20
-1.89151e-18
-2.47732e-20
0.000335669
-1.91103e-18
-1.52935e-20
-1.99511e-18
-2.63566e-20
0.000341019
-1.85358e-18
-1.69423e-20
-1.99174e-18
-2.5604e-20
0.000346452
-1.85674e-18
-1.83914e-20
-1.95696e-18
-2.53353e-20
0.000351969
-1.85414e-18
-2.02443e-20
-1.90534e-18
-2.41027e-20
0.000357571
-1.85853e-18
-2.09494e-20
-1.8417e-18
-2.18604e-20
0.000363259
-1.80712e-18
-2.09701e-20
-1.85569e-18
-2.08933e-20
0.000369035
-1.81142e-18
-2.16107e-20
-1.85712e-18
-1.96976e-20
0.000374898
-1.79119e-18
-2.14384e-20
-1.83333e-18
-1.96091e-20
0.000380852
-1.74361e-18
-2.38835e-20
-1.79027e-18
-2.03829e-20
0.000386896
-1.70405e-18
-2.67195e-20
-1.76596e-18
-2.16985e-20
0.000393033
-1.76155e-18
-2.83125e-20
-1.67225e-18
-2.48383e-20
0.000399263
-1.72568e-18
-2.82851e-20
-1.64627e-18
-2.58424e-20
0.000405588
-1.6852e-18
-2.85369e-20
-1.57937e-18
-2.73663e-20
0.000412009
-1.67064e-18
-2.85018e-20
-1.60489e-18
-3.0003e-20
0.000418527
-1.65109e-18
-2.85714e-20
-1.59117e-18
-3.03603e-20
0.000425143
-1.61291e-18
-2.87451e-20
-1.67334e-18
-2.85381e-20
0.000431859
-1.61018e-18
-2.81167e-20
-1.63387e-18
-2.634e-20
0.000438676
-1.54082e-18
-2.72724e-20
-1.64854e-18
-2.62637e-20
0.000445596
-1.58192e-18
-2.82934e-20
-1.50428e-18
-2.83997e-20
0.000452619
-1.54807e-18
-2.89357e-20
-1.50014e-18
-3.05719e-20
0.000459746
-1.51765e-18
-2.99364e-20
-1.44693e-18
-3.0682e-20
0.00046698
-1.4445e-18
-2.92273e-20
-1.44318e-18
-3.053e-20
0.000474321
-1.46041e-18
-2.79687e-20
-1.43403e-18
-3.41616e-20
0.00048177
-1.40636e-18
-2.75104e-20
-1.39663e-18
-3.52671e-20
0.000489329
-1.46885e-18
-2.8725e-20
-1.43747e-18
-3.35941e-20
0.000497
-1.42039e-18
-2.66949e-20
-1.58768e-18
-3.21968e-20
0.000504782
-1.42872e-18
-2.76252e-20
-1.44691e-18
-2.82881e-20
0.000512678
-1.51784e-18
-2.81738e-20
-1.43642e-18
-3.03236e-20
0.000520688
-1.42595e-18
-2.82297e-20
-1.45086e-18
-2.86971e-20
0.000528814
-1.38394e-18
-3.04664e-20
-1.37232e-18
-2.83879e-20
0.000537056
-1.56175e-18
-3.41544e-20
-1.46539e-18
-3.06235e-20
0.000545416
-1.47313e-18
-2.98232e-20
-1.51853e-18
-3.20659e-20
0.000553895
-1.38839e-18
-2.9437e-20
-1.449e-18
-3.04408e-20
0.000562494
-1.32116e-18
-2.95968e-20
-1.43027e-18
-3.24447e-20
0.000571214
-1.37462e-18
-3.31865e-20
-1.4489e-18
-3.38093e-20
0.000580054
-1.33434e-18
-3.64763e-20
-1.37506e-18
-3.74604e-20
0.000589018
-1.30163e-18
-4.23471e-20
-1.38499e-18
-4.03134e-20
0.000598104
-1.42663e-18
-4.59594e-20
-1.4564e-18
-3.90095e-20
0.000607313
-1.31394e-18
-3.95807e-20
-1.38738e-18
-3.92026e-20
0.000616647
-1.36025e-18
-4.4436e-20
-1.37827e-18
-4.06081e-20
0.000626106
-1.47744e-18
-4.47808e-20
-1.43581e-18
-3.60203e-20
0.000635689
-1.37665e-18
-3.46699e-20
-1.38917e-18
-3.23161e-20
0.000645397
-1.26076e-18
-3.25023e-20
-1.40825e-18
-3.17879e-20
0.00065523
-1.23945e-18
-3.9909e-20
-1.31665e-18
-2.45623e-20
0.000665188
-1.24294e-18
-4.45751e-20
-1.26649e-18
-1.79478e-20
0.000675271
-1.28795e-18
-3.59247e-20
-1.03662e-18
-5.67063e-21
0.000685477
-1.14379e-18
-2.3277e-20
-1.04294e-18
-1.04714e-20
0.000695808
-1.15472e-18
-2.39796e-20
-1.09587e-18
-1.30966e-20
0.000706261
-1.04824e-18
-2.12921e-20
-1.00631e-18
-4.2641e-21
0.000716836
-1.02868e-18
-2.84161e-20
-9.72882e-19
-1.37334e-20
0.000727531
-9.24284e-19
-2.88305e-20
-9.72898e-19
-1.81478e-20
0.000738346
-9.40723e-19
-2.45931e-20
-8.71725e-19
-2.63793e-20
0.000749278
-8.32093e-19
-2.35581e-20
-8.43798e-19
-3.19289e-20
0.000760325
-8.28948e-19
-1.36522e-20
-6.25989e-19
-4.16012e-20
0.000771487
-7.19501e-19
-2.52704e-21
-8.28512e-19
-6.05264e-20
0.00078276
7.694e-21
-6.97772e-19
-4.84508e-20
-8.13624e-19
1.12375e-07
1.06989e-21
9.71566e-22
3.43651e-07
3.74987e-21
2.90841e-21
5.8495e-07
6.39661e-21
5.03687e-21
8.36379e-07
9.12112e-21
7.18191e-21
1.09735e-06
1.22349e-20
9.30979e-21
1.36577e-06
1.54918e-20
1.15123e-20
1.63733e-06
1.84761e-20
1.3584e-20
1.90606e-06
2.16159e-20
1.56048e-20
2.16599e-06
2.44711e-20
1.7524e-20
2.41309e-06
2.67948e-20
1.90432e-20
2.64575e-06
2.94e-20
2.12012e-20
2.86428e-06
3.15333e-20
2.28692e-20
3.07003e-06
3.39614e-20
2.40576e-20
3.26471e-06
3.62088e-20
2.47782e-20
3.45005e-06
3.78666e-20
2.58201e-20
3.62761e-06
4.02227e-20
2.70865e-20
3.79875e-06
4.12435e-20
2.86061e-20
3.96464e-06
4.20494e-20
2.93068e-20
4.12623e-06
4.31466e-20
3.16436e-20
4.28436e-06
4.43736e-20
3.24783e-20
4.43971e-06
4.67292e-20
3.27934e-20
4.59286e-06
4.75012e-20
3.3817e-20
4.74432e-06
4.96516e-20
3.4169e-20
4.89451e-06
4.97026e-20
3.53656e-20
5.0438e-06
5.09939e-20
3.63856e-20
5.19251e-06
5.17376e-20
3.79673e-20
5.34091e-06
5.21605e-20
3.87993e-20
5.48926e-06
5.33641e-20
3.91691e-20
5.63778e-06
5.45038e-20
3.97122e-20
5.78667e-06
5.54085e-20
4.05258e-20
5.93609e-06
5.84045e-20
3.99833e-20
6.08621e-06
5.9899e-20
4.11775e-20
6.23718e-06
5.91303e-20
4.25439e-20
6.38914e-06
6.13767e-20
4.36709e-20
6.5422e-06
6.17666e-20
4.62095e-20
6.69648e-06
6.19578e-20
4.73443e-20
6.85209e-06
6.31224e-20
4.76179e-20
7.00913e-06
6.2331e-20
4.97978e-20
7.16769e-06
6.40057e-20
5.09062e-20
7.32787e-06
6.45668e-20
5.17861e-20
7.48976e-06
6.67845e-20
5.25545e-20
7.65343e-06
6.65561e-20
5.34922e-20
7.81897e-06
6.30176e-20
5.63291e-20
7.98644e-06
6.41197e-20
5.75502e-20
8.15594e-06
6.51478e-20
5.89145e-20
8.32752e-06
6.60182e-20
6.14733e-20
8.50126e-06
6.82965e-20
6.21746e-20
8.67723e-06
6.88009e-20
6.27963e-20
8.85549e-06
6.79313e-20
6.47948e-20
9.03612e-06
6.88687e-20
6.56939e-20
9.21917e-06
6.74649e-20
6.81743e-20
9.40472e-06
6.66384e-20
6.95209e-20
9.59282e-06
6.84174e-20
6.96253e-20
9.78354e-06
6.87674e-20
7.08588e-20
9.97695e-06
7.06861e-20
7.27325e-20
1.01731e-05
7.23226e-20
7.33732e-20
1.03721e-05
7.04256e-20
7.3699e-20
1.05739e-05
7.13945e-20
7.40868e-20
1.07787e-05
7.35091e-20
7.58726e-20
1.09864e-05
7.45722e-20
7.58635e-20
1.11973e-05
7.5048e-20
7.83992e-20
1.14112e-05
7.5365e-20
7.8625e-20
1.16284e-05
7.78015e-20
7.98816e-20
1.18488e-05
7.84928e-20
8.13279e-20
1.20725e-05
7.58082e-20
8.24635e-20
1.22996e-05
7.57796e-20
8.24312e-20
1.25301e-05
7.59925e-20
8.26031e-20
1.27642e-05
7.64121e-20
8.41245e-20
1.30018e-05
7.65865e-20
8.45718e-20
1.32431e-05
7.69462e-20
8.59593e-20
1.34881e-05
7.66834e-20
8.7706e-20
1.37369e-05
7.78348e-20
8.75464e-20
1.39895e-05
8.03576e-20
9.01031e-20
1.4246e-05
8.53864e-20
9.13682e-20
1.45066e-05
8.71463e-20
9.16352e-20
1.47712e-05
8.77115e-20
9.42303e-20
1.50399e-05
8.91029e-20
9.56186e-20
1.53129e-05
8.83585e-20
9.55301e-20
1.55901e-05
9.32503e-20
9.71369e-20
1.58717e-05
9.34785e-20
9.5466e-20
1.61577e-05
9.50594e-20
9.54321e-20
1.64482e-05
9.42872e-20
9.63231e-20
1.67433e-05
9.69439e-20
9.85631e-20
1.70431e-05
9.57945e-20
9.96492e-20
1.73476e-05
9.77114e-20
1.0309e-19
1.7657e-05
1.02574e-19
1.00489e-19
1.79713e-05
1.0455e-19
1.05948e-19
1.82905e-05
1.04986e-19
1.08573e-19
1.86149e-05
1.06253e-19
1.12146e-19
1.89444e-05
1.02147e-19
1.18949e-19
1.92791e-05
1.01275e-19
1.20273e-19
1.96192e-05
1.00258e-19
1.22369e-19
1.99647e-05
1.01492e-19
1.26803e-19
2.03158e-05
1.02869e-19
1.26059e-19
2.06724e-05
1.03194e-19
1.2441e-19
2.10348e-05
1.08617e-19
1.22387e-19
2.1403e-05
1.05374e-19
1.2587e-19
2.1777e-05
1.03515e-19
1.29808e-19
2.21571e-05
1.05832e-19
1.33076e-19
2.25432e-05
1.04314e-19
1.34915e-19
2.29356e-05
1.06042e-19
1.38247e-19
2.33342e-05
1.0485e-19
1.40168e-19
2.37393e-05
1.09093e-19
1.43978e-19
2.41508e-05
1.11473e-19
1.48948e-19
2.4569e-05
1.11299e-19
1.52049e-19
2.49939e-05
1.21218e-19
1.53483e-19
2.54256e-05
1.2136e-19
1.57843e-19
2.58643e-05
1.23818e-19
1.58673e-19
2.631e-05
1.23817e-19
1.62146e-19
2.67629e-05
1.3127e-19
1.63066e-19
2.72231e-05
1.3108e-19
1.65151e-19
2.76907e-05
1.32973e-19
1.66604e-19
2.81659e-05
1.34259e-19
1.66447e-19
2.86486e-05
1.37267e-19
1.66421e-19
2.91392e-05
1.38412e-19
1.64154e-19
2.96377e-05
1.40004e-19
1.73051e-19
3.01442e-05
1.43993e-19
1.80428e-19
3.06589e-05
1.43889e-19
1.86092e-19
3.11819e-05
1.48416e-19
1.87149e-19
3.17133e-05
1.54892e-19
1.87764e-19
3.22532e-05
1.57375e-19
1.91338e-19
3.28019e-05
1.60435e-19
1.94708e-19
3.33595e-05
1.60915e-19
1.99503e-19
3.3926e-05
1.6026e-19
2.04268e-19
3.45017e-05
1.66414e-19
2.08185e-19
3.50866e-05
1.62322e-19
2.15422e-19
3.5681e-05
1.6842e-19
2.20351e-19
3.6285e-05
1.74951e-19
2.23574e-19
3.68987e-05
1.72958e-19
2.39648e-19
3.75223e-05
1.73159e-19
2.43354e-19
3.8156e-05
1.72074e-19
2.48685e-19
3.87999e-05
1.76196e-19
2.54596e-19
3.94542e-05
1.80276e-19
2.56646e-19
4.01191e-05
1.82176e-19
2.62884e-19
4.07946e-05
1.74803e-19
2.75659e-19
4.14811e-05
1.74055e-19
2.8249e-19
4.21786e-05
1.78298e-19
2.87772e-19
4.28874e-05
1.89707e-19
2.88455e-19
4.36077e-05
1.98116e-19
2.90142e-19
4.43395e-05
1.96517e-19
2.9342e-19
4.50831e-05
1.96381e-19
3.01663e-19
4.58388e-05
1.9874e-19
3.01744e-19
4.66066e-05
2.03768e-19
3.06621e-19
4.73868e-05
2.01314e-19
3.2049e-19
4.81796e-05
2.06955e-19
3.25647e-19
4.89851e-05
2.06763e-19
3.25537e-19
4.98036e-05
2.06495e-19
3.30348e-19
5.06354e-05
2.06751e-19
3.35037e-19
5.14805e-05
2.12473e-19
3.38812e-19
5.23393e-05
2.18041e-19
3.48907e-19
5.32118e-05
2.18829e-19
3.56042e-19
5.40985e-05
2.31335e-19
3.57003e-19
5.49994e-05
2.36185e-19
3.59956e-19
5.59149e-05
2.3784e-19
3.6616e-19
5.6845e-05
2.41941e-19
3.71827e-19
5.77902e-05
2.34106e-19
3.81184e-19
5.87506e-05
2.51132e-19
3.88931e-19
5.97264e-05
2.59618e-19
3.91189e-19
6.0718e-05
2.62004e-19
3.9756e-19
6.17255e-05
2.61084e-19
4.17013e-19
6.27492e-05
2.65997e-19
4.23522e-19
6.37894e-05
2.55269e-19
4.29721e-19
6.48463e-05
2.93931e-19
4.27027e-19
6.59202e-05
3.00912e-19
4.33318e-19
6.70114e-05
3.18612e-19
4.54431e-19
6.81202e-05
3.14541e-19
4.72541e-19
6.92467e-05
3.23729e-19
4.80922e-19
7.03914e-05
3.2086e-19
4.90321e-19
7.15545e-05
3.22711e-19
4.92638e-19
7.27363e-05
3.08667e-19
5.03697e-19
7.3937e-05
3.14135e-19
5.12722e-19
7.51571e-05
3.00952e-19
5.32177e-19
7.63967e-05
2.93932e-19
5.41972e-19
7.76563e-05
3.07195e-19
5.40922e-19
7.8936e-05
3.11039e-19
5.42914e-19
8.02363e-05
3.05117e-19
5.45159e-19
8.15575e-05
3.22159e-19
5.5461e-19
8.28999e-05
3.39757e-19
5.5653e-19
8.42639e-05
3.43671e-19
5.63803e-19
8.56497e-05
3.51068e-19
5.56371e-19
8.70577e-05
3.56244e-19
5.5527e-19
8.84884e-05
3.72914e-19
5.43167e-19
8.99419e-05
3.79278e-19
5.40941e-19
9.14188e-05
3.68048e-19
5.4711e-19
9.29193e-05
3.52826e-19
5.58712e-19
9.44439e-05
3.27389e-19
5.60007e-19
9.59929e-05
3.21684e-19
5.71774e-19
9.75667e-05
3.21832e-19
5.73688e-19
9.91658e-05
3.09164e-19
5.7985e-19
0.00010079
2.99441e-19
5.85127e-19
0.000102441
2.99168e-19
5.82472e-19
0.000104118
3.12493e-19
5.75885e-19
0.000105822
3.05018e-19
5.78812e-19
0.000107553
3.03875e-19
5.7971e-19
0.000109312
2.97516e-19
5.74708e-19
0.000111099
2.974e-19
5.72262e-19
0.000112914
3.14012e-19
5.67297e-19
0.000114759
3.18754e-19
5.65452e-19
0.000116633
3.19168e-19
5.72447e-19
0.000118537
3.40443e-19
5.95465e-19
0.000120471
3.58238e-19
6.12768e-19
0.000122437
4.26438e-19
5.91456e-19
0.000124433
4.3245e-19
5.911e-19
0.000126462
4.39192e-19
5.99686e-19
0.000128523
4.28821e-19
6.06009e-19
0.000130616
4.3581e-19
6.13265e-19
0.000132744
4.78206e-19
6.0717e-19
0.000134905
4.78561e-19
6.08165e-19
0.0001371
4.83969e-19
6.01084e-19
0.000139331
4.68304e-19
5.94134e-19
0.000141597
4.38912e-19
6.20433e-19
0.000143899
4.10685e-19
6.37116e-19
0.000146238
3.94605e-19
6.12226e-19
0.000148614
3.99001e-19
6.13856e-19
0.000151028
4.15066e-19
6.02686e-19
0.00015348
4.18749e-19
5.9279e-19
0.000155971
3.89397e-19
6.16704e-19
0.000158502
3.69524e-19
6.07992e-19
0.000161073
3.71951e-19
5.81355e-19
0.000163685
3.5411e-19
5.81547e-19
0.000166338
3.94445e-19
5.82936e-19
0.000169034
4.01448e-19
5.53372e-19
0.000171772
3.7703e-19
5.88678e-19
0.000174554
3.82785e-19
5.61506e-19
0.00017738
4.34318e-19
5.20524e-19
0.000180251
4.49806e-19
5.18249e-19
0.000183167
4.25437e-19
5.19305e-19
0.00018613
4.02154e-19
5.2381e-19
0.000189139
4.20978e-19
5.33679e-19
0.000192196
4.38033e-19
5.20227e-19
0.000195302
4.5083e-19
5.43684e-19
0.000198456
4.46211e-19
5.37604e-19
0.000201661
4.42158e-19
5.16278e-19
0.000204916
4.39885e-19
5.31126e-19
0.000208222
4.24171e-19
5.12789e-19
0.000211581
4.26504e-19
5.12252e-19
0.000214993
4.30661e-19
5.15398e-19
0.000218458
4.23598e-19
4.84692e-19
0.000221979
4.33262e-19
4.67867e-19
0.000225555
4.422e-19
4.67882e-19
0.000229187
4.06844e-19
4.64407e-19
0.000232876
3.70306e-19
4.68908e-19
0.000236623
3.17176e-19
4.63682e-19
0.00024043
3.2106e-19
4.82824e-19
0.000244296
3.11856e-19
4.63996e-19
0.000248223
3.81869e-19
4.45712e-19
0.000252211
3.53428e-19
4.28092e-19
0.000256263
3.11511e-19
4.27205e-19
0.000260377
2.66298e-19
4.02811e-19
0.000264556
3.33151e-19
3.41213e-19
0.000268801
3.50833e-19
2.8602e-19
0.000273112
2.48929e-19
3.57304e-19
0.000277491
2.73055e-19
3.12902e-19
0.000281937
1.83994e-19
3.79821e-19
0.000286454
3.11024e-19
3.53571e-19
0.000291041
3.20983e-19
3.35957e-19
0.000295699
2.79908e-19
3.10814e-19
0.00030043
3.54509e-19
3.08053e-19
0.000305234
3.71902e-19
2.2905e-19
0.000310114