/*--------------------------------*- C++ -*----------------------------------*\
| =========                 |                                                 |
| \\      /  F ield         | OpenFOAM: The Open Source CFD Toolbox           |
|  \\    /   O peration     | Version:  2106                                  |
|   \\  /    A nd           | Website:  www.openfoam.com                      |
|    \\/     M anipulation  |                                                 |
\*---------------------------------------------------------------------------*/
FoamFile
{
    version     2.0;
    format      ascii;
    arch        "LSB;label=32;scalar=64";
    class       volTensorField;
    location    "16000";
    object      grad(U);
}
// * * * * * * * * * * * * * * * * * * * * * * * * * * * * * * * * * * * * * //

dimensions      [0 0 -1 0 0 0 0];

internalField   nonuniform List<tensor> 
2560
(
(0 4.15781e-30 -4.01753e-27 23.7681 -1.3184e-11 -6.31089e-30 0.0344075 -9.54272e-15 0)
(0 -2.0789e-30 0 23.7681 -6.84534e-16 -4.90969e-18 0.0344075 -2.11348e-18 6.38961e-17)
(0 -6.95473e-25 1.60087e-32 23.7646 3.41741e-32 1.21827e-14 0.103713 0 -5.36439e-17)
(0 -4.09822e-30 -8.00433e-33 23.7646 3.44877e-16 -3.10918e-18 0.103713 3.75643e-19 1.54188e-16)
(3.11758e-17 -5.75134e-27 -1.06453e-30 23.761 7.03524e-13 2.6502e-30 0.142628 -2.0964e-15 0)
(-3.55316e-17 1.21184e-29 7.88961e-33 23.761 -4.21882e-16 2.11257e-19 0.142628 -4.69381e-19 1.58662e-16)
(1.39679e-17 -1.48928e-29 -1.36768e-32 23.7574 5.93654e-13 1.77196e-15 0.144679 -7.80235e-15 -1.18322e-17)
(0 1.19448e-29 7.77653e-33 23.7574 -2.12348e-16 -5.60969e-18 0.144679 -4.78655e-19 1.63228e-16)
(6.90408e-17 -4.05461e-30 -3.83254e-32 23.7537 1.32208e-27 1.47744e-15 0.14676 0 -9.57936e-18)
(0 1.96226e-29 3.06603e-32 23.7537 -2.21736e-16 -7.32508e-18 0.14676 -4.98765e-19 1.67892e-16)
(3.36089e-17 -1.53762e-29 -2.84869e-32 23.75 1.20593e-13 1.47787e-15 0.148871 -1.63219e-15 -8.53925e-18)
(2.68871e-16 1.54731e-29 2.26656e-32 23.75 -2.0108e-16 -7.39813e-18 0.148871 -5.48011e-19 1.72662e-16)
(-4.36419e-17 -3.39516e-28 -9.55324e-33 23.7462 -1.26716e-27 1.65889e-15 0.151011 0 -9.86528e-18)
(1.74567e-16 2.2877e-29 2.23408e-32 23.7462 -1.82869e-16 -8.34772e-18 0.151011 -5.10186e-19 1.7754e-16)
(-5.38191e-17 1.90273e-29 1.9511e-32 23.7424 6.85584e-15 1.79272e-15 0.153182 -4.78564e-17 -1.10919e-17)
(2.15276e-16 -7.51636e-30 -7.34019e-33 23.7424 -2.51179e-16 -9.72581e-18 0.153182 -3.58765e-19 1.82522e-16)
(6.41427e-17 -1.51073e-29 -1.52059e-32 23.7385 3.97399e-15 1.87357e-15 0.155384 -3.99205e-17 -1.18814e-17)
(0 1.48173e-29 1.447e-32 23.7385 -3.24821e-16 -9.06088e-18 0.155384 -5.52051e-19 1.87616e-16)
(0 1.09537e-29 1.42626e-32 23.7345 1.02256e-15 1.93363e-15 0.157616 -1.15281e-17 -1.24754e-17)
(-1.28466e-16 -3.65122e-30 -7.13129e-33 23.7345 -2.98045e-16 -9.062e-18 0.157616 -5.11947e-19 1.92828e-16)
(-8.52373e-17 -1.75942e-29 -7.1453e-33 23.7305 2.5509e-16 1.98876e-15 0.159881 -1.8867e-18 -1.30273e-17)
(0 2.51922e-29 1.40582e-32 23.7305 -3.05071e-16 -1.12944e-17 0.159881 -1.34601e-19 1.98154e-16)
(9.60126e-17 -2.88303e-29 -2.0215e-32 23.7263 2.18953e-16 2.04372e-15 0.162177 -1.52343e-18 -1.35836e-17)
(0 2.12839e-29 1.38567e-32 23.7263 -4.00915e-16 -1.20231e-17 0.162177 -1.51628e-19 2.03594e-16)
(0 -1.39859e-29 -3.41452e-33 23.7221 1.72191e-16 2.09921e-15 0.164506 -1.44791e-18 -1.41603e-17)
(0 1.74823e-29 3.41452e-33 23.7221 -4.2831e-16 -1.18163e-17 0.164506 -3.43569e-19 2.09158e-16)
(-1.1803e-16 2.12157e-29 6.30776e-33 23.7179 2.63246e-16 2.15542e-15 0.166868 -9.19438e-19 -1.87628e-17)
(4.7212e-16 -1.03391e-29 -3.36558e-33 23.7179 -5.13938e-16 -1.19456e-17 0.166868 -7.18024e-19 2.14843e-16)
(0 2.71757e-29 6.63469e-33 23.7135 4.4189e-16 2.21265e-15 0.169262 -2.77437e-18 -2.42985e-17)
(0 -2.71757e-29 -6.63469e-33 23.7135 -6.01997e-16 -1.12871e-17 0.169262 -1.77893e-18 2.20653e-16)
(-1.40684e-16 3.99848e-30 0 23.7089 5.43618e-16 2.27034e-15 0.17169 -3.49414e-18 -2.05895e-17)
(5.62737e-16 0 0 23.7089 -6.03225e-16 -1.28026e-17 0.17169 -2.55765e-18 2.26592e-16)
(0 2.64023e-29 -6.043e-34 23.7043 5.32015e-16 2.32809e-15 0.174152 -4.32913e-18 -1.67048e-17)
(-6.09024e-16 -2.64023e-29 6.043e-34 23.7043 -8.0688e-16 -1.36455e-17 0.174152 -3.2088e-18 2.32648e-16)
(0 2.60238e-29 -2.38255e-33 23.6995 4.52588e-16 2.38603e-15 0.176648 -3.42599e-18 -1.26494e-17)
(-6.55976e-16 -2.60238e-29 2.38255e-33 23.6995 -7.94038e-16 -1.47205e-17 0.176648 -4.67248e-18 2.38841e-16)
(6.76882e-16 -1.92381e-29 3.13121e-33 23.6945 8.44862e-17 2.44409e-15 0.179178 -3.27178e-18 -8.41531e-18)
(-4.51255e-16 2.24445e-29 -4.69681e-33 23.6945 -5.99011e-16 -1.91382e-17 0.179178 -5.31618e-18 2.45157e-16)
(1.87977e-16 -7.99707e-30 -9.25899e-33 23.6892 1.04978e-27 2.50288e-15 0.181742 0 -3.99471e-18)
(-7.5191e-16 -1.89624e-29 1.08022e-32 23.6892 -7.80754e-16 -1.9414e-17 0.181742 -6.019e-18 2.51592e-16)
(-4.38412e-16 2.49208e-29 -1.52105e-32 23.6837 6.76091e-16 2.56277e-15 0.18434 -9.07726e-18 6.12561e-19)
(4.38412e-16 -2.49208e-29 1.52105e-32 23.6837 -8.4484e-16 -1.5011e-17 0.18434 -7.62196e-18 2.58167e-16)
(-2.12654e-16 -8.28393e-30 2.99849e-33 23.6778 2.32559e-16 2.62233e-15 0.186973 -1.31664e-18 5.41855e-18)
(0 1.84227e-29 -8.99548e-33 23.6778 -6.62853e-16 -1.70879e-17 0.186973 -9.21589e-18 2.64892e-16)
(4.13645e-16 -3.23198e-29 4.13773e-32 23.6715 4.78347e-16 2.68167e-15 0.18964 -2.33751e-18 1.04298e-17)
(0 3.63174e-29 -4.13773e-32 23.6715 -8.19125e-16 -2.10513e-17 0.18964 -1.07134e-17 2.71719e-16)
(0 1.78984e-29 -2.33053e-32 23.6648 1.00716e-15 2.74143e-15 0.192341 -5.29392e-18 1.56468e-17)
(-9.52166e-16 -2.38646e-29 2.91316e-32 23.6648 -1.07747e-15 -2.32789e-17 0.192341 -1.29594e-17 2.78687e-16)
(2.51008e-16 2.54073e-29 -4.01997e-32 23.6575 1.20501e-15 2.80305e-15 0.195075 -1.10034e-17 2.10625e-17)
(0 -2.94032e-29 4.01997e-32 23.6575 -1.06066e-15 -2.67907e-17 0.195075 -1.45168e-17 2.85783e-16)
(-9.36203e-16 3.69735e-29 -6.29487e-32 23.6496 7.86883e-16 2.86587e-15 0.197842 -8.71227e-18 2.42395e-17)
(4.07882e-16 -2.89818e-29 6.22655e-32 23.6496 -7.79137e-16 -2.46039e-17 0.197842 -1.5214e-17 2.93022e-16)
(1.23454e-15 -5.19822e-29 7.0062e-32 23.6408 7.48429e-16 2.92708e-15 0.200641 -4.3288e-18 2.51023e-17)
(1.81796e-15 4.57062e-29 -6.69525e-32 23.6408 -6.06006e-16 -1.99836e-17 0.200641 -1.56967e-17 3.00411e-16)
(-3.96274e-16 -2.25256e-29 4.39952e-32 23.6311 1.18392e-15 2.98788e-15 0.203471 -8.31464e-18 2.59968e-17)
(1.16412e-15 2.81569e-29 -4.39952e-32 23.6311 -9.39971e-16 -1.81661e-17 0.203471 -1.64537e-17 3.07945e-16)
(3.04751e-16 7.10643e-30 -3.00133e-32 23.6204 1.53679e-15 3.04964e-15 0.20633 -1.19566e-17 2.69168e-17)
(0 0 2.16823e-32 23.6204 -1.45606e-15 -2.60622e-17 0.20633 -1.79045e-17 3.15615e-16)
(-6.37335e-16 7.98828e-30 -1.72643e-32 23.6083 1.61872e-15 3.11254e-15 0.209218 -1.47245e-17 2.78734e-17)
(-2.54934e-15 0 1.06858e-32 23.6083 -1.6487e-15 -3.84075e-17 0.209218 -2.13005e-17 3.23399e-16)
(-3.32781e-16 2.01719e-29 -3.57014e-32 23.5948 1.47529e-15 3.1758e-15 0.212131 -1.37594e-17 2.88432e-17)
(-1.33112e-15 -1.07854e-29 1.05326e-32 23.5948 -1.49171e-15 -4.07364e-17 0.212131 -2.54183e-17 3.31299e-16)
(0 2.12617e-29 -8.30534e-32 23.5795 1.49686e-15 3.23798e-15 0.215068 -1.25761e-17 2.98245e-17)
(-1.38837e-15 -2.12617e-29 8.30534e-32 23.5795 -1.54266e-15 -3.37945e-17 0.215068 -2.8636e-17 3.39323e-16)
(0 -2.61962e-29 9.20959e-32 23.5622 1.75233e-15 3.29952e-15 0.218025 -1.4556e-17 3.08275e-17)
(1.44642e-15 2.61962e-29 -9.20959e-32 23.5622 -1.79228e-15 -2.66905e-17 0.218025 -3.30564e-17 3.47474e-16)
(-3.76321e-16 9.15587e-30 -6.77594e-33 23.5426 1.91658e-15 3.36143e-15 0.220999 -1.76743e-17 3.18611e-17)
(0 5.16414e-30 0 23.5426 -1.83776e-15 -2.26108e-17 0.220999 -3.88367e-17 3.55757e-16)
(-3.91242e-16 2.94417e-29 -8.72814e-32 23.5203 1.93524e-15 3.42219e-15 0.223987 -1.80673e-17 3.28884e-17)
(0 -2.54506e-29 7.95332e-32 23.5203 -1.83573e-15 -2.59305e-17 0.223987 -4.33267e-17 3.64171e-16)
(-1.11247e-15 1.40246e-29 -1.06751e-31 23.495 2.23069e-15 3.48141e-15 0.226983 -1.85476e-17 3.39393e-17)
(-1.62547e-15 -5.01717e-30 5.8795e-32 23.495 -1.96962e-15 -4.01874e-17 0.226983 -4.70014e-17 3.72662e-16)
(4.21702e-16 -2.37698e-29 6.77615e-32 23.4661 2.66429e-15 3.53931e-15 0.229982 -2.43084e-17 3.49874e-17)
(0 1.9781e-29 -5.79523e-32 23.4661 -2.01564e-15 -4.4833e-17 0.229982 -5.08873e-17 3.81226e-16)
(4.37244e-16 -2.3485e-29 1.25142e-31 23.4333 2.67977e-15 3.59509e-15 0.23298 -2.75956e-17 3.60436e-17)
(0 1.94975e-29 -1.14243e-31 23.4333 -2.10808e-15 -3.55972e-17 0.23298 -5.54907e-17 3.89902e-16)
(-1.12917e-15 2.3205e-29 -1.05866e-31 23.3961 2.36415e-15 3.64883e-15 0.235967 -2.53286e-17 3.70972e-17)
(0 -9.60904e-30 5.6303e-32 23.3961 -2.3123e-15 -3.48561e-17 0.235967 -6.1757e-17 3.98702e-16)
(0 9.47132e-30 -9.24934e-32 23.3538 2.24535e-15 3.69816e-15 0.238939 -2.20321e-17 3.81098e-17)
(0 -1.4207e-29 1.29491e-31 23.3538 -1.93902e-15 -3.7078e-17 0.238939 -6.72065e-17 4.07548e-16)
(-4.85128e-16 8.6534e-30 -1.44243e-32 23.306 2.40827e-15 3.74338e-15 0.241885 -2.36372e-17 3.91236e-17)
(1.94051e-15 0 -3.64671e-32 23.306 -1.38848e-15 -3.80577e-17 0.241885 -7.04303e-17 4.16416e-16)
(0 -2.76053e-29 1.43778e-31 23.2518 2.61456e-15 3.78591e-15 0.244797 -2.6063e-17 4.01227e-17)
(2.00603e-15 2.76053e-29 -1.43778e-31 23.2518 -1.90068e-15 -4.14705e-17 0.244797 -7.49297e-17 4.25249e-16)
(5.18096e-16 9.62162e-30 -8.92838e-32 23.1908 3.02173e-15 3.82408e-15 0.247665 -2.86787e-17 4.10861e-17)
(-2.07238e-15 -1.81398e-29 1.77146e-31 23.1908 -2.72967e-15 -5.87179e-17 0.247665 -8.20434e-17 4.34064e-16)
(1.16398e-15 -2.18612e-29 5.32754e-32 23.1221 2.94061e-15 3.8586e-15 0.250478 -3.55353e-17 4.2047e-17)
(-6.29089e-16 1.78798e-29 -3.49214e-32 23.1221 -2.51251e-15 -6.96793e-17 0.250478 -8.69217e-17 4.42778e-16)
(6.81823e-17 -4.24156e-31 1.46698e-32 23.0451 2.65988e-15 3.88854e-15 0.253225 -2.77584e-17 4.2949e-17)
(-6.20072e-16 1.32176e-29 -6.88419e-32 23.0451 -2.11022e-15 -6.07877e-17 0.253225 -9.14971e-17 4.51492e-16)
(5.69091e-16 3.62441e-31 -8.05901e-32 22.9591 2.5059e-15 3.9124e-15 0.255893 -3.0396e-17 4.38114e-17)
(2.27636e-15 0 3.39276e-32 22.9591 -2.16969e-15 -4.97144e-17 0.255893 -9.49744e-17 4.6012e-16)
(6.02425e-16 -1.28415e-29 1.33765e-31 22.8632 2.53683e-15 3.92913e-15 0.25847 -2.51323e-17 4.45863e-17)
(1.74353e-15 1.7122e-29 -1.67207e-31 22.8632 -2.43921e-15 -4.75307e-17 0.25847 -9.90544e-17 4.68698e-16)
(-6.04081e-16 -2.4073e-31 -2.42142e-32 22.7567 3.24522e-15 3.94013e-15 0.260942 -3.19872e-17 4.53477e-17)
(0 8.43828e-30 -6.5924e-32 22.7567 -3.11263e-15 -5.43765e-17 0.260942 -1.07346e-16 4.77086e-16)
(-6.21861e-16 8.13438e-30 -2.5787e-32 22.639 3.65123e-15 3.9467e-15 0.263295 -4.21542e-17 4.60455e-17)
(0 4.15867e-30 -6.49792e-32 22.639 -3.21665e-15 -5.77194e-17 0.263295 -1.16313e-16 4.85312e-16)
(5.76892e-16 -1.63963e-29 6.40479e-32 22.5093 3.64758e-15 3.94448e-15 0.265516 -4.23941e-17 4.66236e-17)
(0 2.04953e-29 -9.60718e-32 22.5093 -2.68772e-15 -6.88555e-17 0.265516 -1.23054e-16 4.93361e-16)
(-1.22658e-15 -6.71804e-32 3.40689e-32 22.367 4.10617e-15 3.93492e-15 0.267592 -4.33026e-17 4.71649e-17)
(0 1.61613e-29 -1.57825e-31 22.367 -3.35697e-15 -6.46727e-17 0.267592 -1.30361e-16 5.01072e-16)
(0 2.38944e-29 -2.80013e-31 22.2115 4.32443e-15 3.92208e-15 0.269507 -5.46454e-17 4.76765e-17)
(-2.70504e-15 -1.9912e-29 2.489e-31 22.2115 -3.65425e-15 -5.29752e-17 0.269507 -1.41263e-16 5.08599e-16)
(-6.94719e-16 -1.95832e-29 2.12841e-31 22.0424 3.6879e-15 3.89931e-15 0.271251 -4.98871e-17 4.79841e-17)
(2.77888e-15 2.74773e-29 -2.45333e-31 22.0424 -2.76196e-15 -7.52366e-17 0.271251 -1.5028e-16 5.15857e-16)
(0 2.32144e-29 -2.41817e-31 21.8591 3.63564e-15 3.86416e-15 0.272809 -4.05173e-17 4.81918e-17)
(0 -2.32144e-29 2.41817e-31 21.8591 -2.93166e-15 -7.18294e-17 0.272809 -1.56984e-16 5.22575e-16)
(-7.32066e-16 1.54074e-29 -9.56407e-32 21.6616 4.09614e-15 3.82721e-15 0.274172 -5.00382e-17 4.84499e-17)
(2.92826e-15 -1.14408e-29 5.95877e-32 21.6616 -3.01194e-15 -5.31077e-17 0.274172 -1.63701e-16 5.29081e-16)
(1.50186e-15 -1.92059e-29 2.51997e-31 21.4495 4.00669e-15 3.78333e-15 0.275328 -5.34168e-17 4.84711e-17)
(3.00372e-15 1.12769e-29 -1.76201e-31 21.4495 -2.82381e-15 -7.30604e-17 0.275328 -1.70327e-16 5.35105e-16)
(0 -1.11152e-29 1.15784e-31 21.2229 3.88633e-15 3.7277e-15 0.276271 -4.91959e-17 4.84129e-17)
(0 1.48203e-29 -1.15784e-31 21.2229 -3.43116e-15 -9.74041e-17 0.276271 -1.78842e-16 5.40592e-16)
(2.38966e-16 -6.99376e-30 7.2468e-32 20.9819 4.36922e-15 3.66498e-15 0.276992 -5.18305e-17 4.82251e-17)
(-1.02794e-15 1.82599e-29 -1.71186e-31 20.9819 -3.5252e-15 -9.40694e-17 0.276992 -1.88612e-16 5.45491e-16)
(-1.61625e-15 2.95153e-29 -2.55838e-31 20.7267 5.29205e-15 3.59844e-15 0.277486 -6.34626e-17 4.80382e-17)
(3.2325e-15 -2.51974e-29 2.81221e-31 20.7267 -3.87283e-15 -5.85553e-17 0.277486 -2.00618e-16 5.49926e-16)
(-8.27343e-16 3.95435e-30 -4.54782e-32 20.4577 6.05962e-15 3.52742e-15 0.277752 -7.82156e-17 4.76961e-17)
(0 7.09608e-30 -5.54381e-32 20.4577 -4.83099e-15 -3.95945e-17 0.277752 -2.17788e-16 5.53952e-16)
(-8.46611e-16 -6.54099e-30 7.2187e-33 20.1754 5.93749e-15 3.44754e-15 0.277787 -8.63055e-17 4.723e-17)
(3.38644e-15 1.74859e-29 -1.09287e-31 20.1754 -4.27183e-15 -6.41167e-17 0.277787 -2.34018e-16 5.57386e-16)
(-8.65913e-16 1.42907e-29 -1.57099e-31 19.8806 5.20722e-15 3.3599e-15 0.277592 -7.71193e-17 4.66272e-17)
(0 -3.44706e-30 5.38604e-32 19.8806 -4.05181e-15 -1.0202e-16 0.277592 -2.42086e-16 5.60113e-16)
(-1.77047e-15 2.14885e-29 -3.68122e-31 19.5739 4.91702e-15 3.2665e-15 0.27717 -6.82848e-17 4.59472e-17)
(-3.54093e-15 -1.35906e-29 2.65442e-31 19.5739 -3.97867e-15 -8.93054e-17 0.27717 -2.5913e-16 5.61953e-16)
(-1.80911e-15 -1.22e-29 1.55065e-31 19.2564 5.08315e-15 3.17008e-15 0.276527 -7.10937e-17 4.52002e-17)
(7.23644e-15 2.00938e-29 -2.61638e-31 19.2564 -3.44362e-15 -5.67177e-17 0.276527 -2.70334e-16 5.63375e-16)
(-2.77159e-15 4.15424e-29 -5.78236e-31 18.929 5.34709e-15 3.07491e-15 0.275668 -7.50967e-17 4.44967e-17)
(-3.69545e-15 -2.97087e-29 4.1262e-31 18.929 -4.33435e-15 -6.61118e-17 0.275668 -2.80585e-16 5.64132e-16)
(-1.85896e-15 -1.55802e-29 2.47923e-31 18.5927 5.39164e-15 2.98344e-15 0.274601 -8.0932e-17 4.37974e-17)
(3.77256e-15 2.27756e-29 -3.55868e-31 18.5927 -4.29877e-15 -8.66522e-17 0.274601 -3.00448e-16 5.64138e-16)
(1.86506e-15 -1.99749e-29 3.09554e-31 18.2486 5.27374e-15 2.89108e-15 0.273338 -7.86247e-17 4.30069e-17)
(-9.02695e-16 1.60351e-29 -2.50548e-31 18.2486 -3.93229e-15 -1.00044e-16 0.273338 -3.11649e-16 5.63508e-16)
(8.89758e-16 -3.16105e-29 2.96349e-31 17.898 5.60164e-15 2.79809e-15 0.271887 -7.97369e-17 4.22268e-17)
(3.03639e-15 3.16105e-29 -4.67443e-31 17.898 -4.51653e-15 -6.701e-17 0.271887 -3.24637e-16 5.62101e-16)
(0 -1.86945e-29 1.94734e-31 17.542 6.38173e-15 2.70667e-15 0.270262 -9.09895e-17 4.14209e-17)
(4.00251e-15 1.86945e-29 7.77678e-32 17.542 -5.0846e-15 1.00672e-29 0.270262 -3.44791e-16 5.60376e-16)
(-1.72887e-15 2.45687e-29 -2.87915e-31 17.1818 6.9291e-15 2.61729e-15 0.268474 -1.06358e-16 4.06407e-17)
(4.07852e-15 -1.22844e-29 9.59716e-32 17.1818 -5.55384e-15 -1.17241e-17 0.268474 -3.67083e-16 5.582e-16)
(-1.70409e-15 1.81624e-29 -5.67576e-31 16.8185 6.21758e-15 2.52708e-15 0.266538 -1.10943e-16 3.97437e-17)
(1.70409e-15 -1.81624e-29 5.67576e-31 16.8185 -5.74995e-15 -5.24927e-17 0.266538 -3.885e-16 5.55286e-16)
(-2.11462e-15 1.88397e-30 -1.3684e-31 16.4533 5.47876e-15 2.43614e-15 0.264465 -8.66739e-17 3.88748e-17)
(0 5.96738e-30 0 16.4533 -5.4832e-15 -7.27759e-17 0.264465 -4.13465e-16 5.51539e-16)
(0 -1.76455e-29 5.51423e-31 16.0872 5.53979e-15 2.35263e-15 0.262271 -9.01746e-17 3.81536e-17)
(4.30386e-15 1.76455e-29 -1.19922e-30 16.0872 -4.63232e-15 -3.35152e-17 0.262271 -4.35306e-16 5.47146e-16)
(-1.63186e-15 1.15951e-29 -3.62347e-31 15.7212 5.39941e-15 2.27075e-15 0.259968 -9.12256e-17 3.72738e-17)
(4.37793e-15 0 2.7176e-31 15.7212 -4.33807e-15 -2.26483e-17 0.259968 -4.50547e-16 5.42511e-16)
(-1.11286e-15 -1.79757e-30 -1.63229e-31 15.3564 6.37238e-15 2.18763e-15 0.25757 -8.81189e-17 3.64496e-17)
(0 1.14289e-29 -8.92883e-32 15.3564 -4.78975e-15 -3.88295e-17 0.25757 -4.66672e-16 5.37283e-16)
(1.13107e-15 7.35755e-30 -1.88329e-31 14.9937 7.43629e-15 2.11153e-15 0.255089 -1.26928e-16 3.57446e-17)
(0 -1.12651e-29 1.76017e-31 14.9937 -4.40125e-15 -6.89298e-17 0.255089 -4.8548e-16 5.31635e-16)
(0 -1.11036e-29 2.60242e-31 14.6337 6.38007e-15 2.03676e-15 0.252538 -1.27343e-16 3.49045e-17)
(0 1.66555e-29 -2.60242e-31 14.6337 -4.0626e-15 -8.99366e-17 0.252538 -4.96233e-16 5.25323e-16)
(0 -1.09445e-29 1.71008e-31 14.2774 5.31607e-15 1.95888e-15 0.249929 -9.37396e-17 3.40308e-17)
(0 1.09445e-29 -1.71008e-31 14.2774 -4.83273e-15 -2.36042e-17 0.249929 -5.11158e-16 5.18459e-16)
(-2.36944e-15 -2.98272e-30 9.13735e-32 13.9253 6.32478e-15 1.89003e-15 0.247273 -9.33541e-17 3.3451e-17)
(0 1.61815e-29 -2.52835e-31 13.9253 -5.14443e-15 -8.3295e-18 0.247273 -5.34614e-16 5.11653e-16)
(-1.20225e-15 1.45255e-29 -4.97634e-31 13.5781 7.69738e-15 1.8383e-15 0.244581 -1.32765e-16 3.31401e-17)
(0 -1.0633e-29 4.15352e-31 13.5781 -5.00686e-15 -4.5578e-17 0.244581 -5.55741e-16 5.04495e-16)
(1.2196e-15 -3.88623e-30 2.47608e-31 13.2363 7.62373e-15 1.789e-15 0.241862 -1.46173e-16 3.26057e-17)
(-4.87841e-15 0 -1.6376e-31 13.2363 -5.17039e-15 -1.36069e-16 0.241862 -5.84459e-16 4.96694e-16)
(1.45388e-15 -1.54956e-29 2.42119e-31 12.9002 6.94437e-15 1.73618e-15 0.239125 -1.33927e-16 3.2127e-17)
(-6.40094e-15 1.54956e-29 -2.42119e-31 12.9002 -4.59768e-15 -1.31835e-16 0.239125 -6.16893e-16 4.87824e-16)
(-2.68678e-15 2.4247e-29 -6.43765e-31 12.5704 7.29122e-15 1.68947e-15 0.236378 -1.2494e-16 3.1781e-17)
(1.00299e-14 -1.52735e-29 6.6441e-32 12.5704 -4.26891e-15 7.70372e-34 0.236378 -6.3766e-16 4.78758e-16)
(1.27052e-15 1.11802e-29 -3.03594e-31 12.2471 8.39421e-15 1.648e-15 0.23363 -1.51067e-16 3.14652e-17)
(5.08209e-15 -2.00728e-29 4.70457e-31 12.2471 -5.68094e-15 6.60058e-17 0.23363 -6.59857e-16 4.7005e-16)
(0 0 0 11.9305 8.48235e-15 1.61123e-15 0.230886 -1.71239e-16 3.12697e-17)
(0 9.89256e-30 -1.54571e-31 11.9305 -5.81731e-15 -2.46654e-17 0.230886 -7.02036e-16 4.60894e-16)
(-1.30351e-15 -1.56376e-29 5.18021e-31 11.6209 7.63051e-15 1.58674e-15 0.228154 -1.58949e-16 3.14126e-17)
(5.21406e-15 1.95016e-29 -6.09424e-31 11.6209 -4.95863e-15 -1.11007e-16 0.228154 -7.25424e-16 4.50643e-16)
(-1.31972e-15 2.30845e-29 -3.18167e-31 11.3183 6.97051e-15 1.56723e-15 0.225438 -1.4236e-16 3.13979e-17)
(-6.63152e-15 -9.61102e-30 1.50172e-31 11.3183 -5.60789e-15 -1.2736e-16 0.225438 -7.48865e-16 4.39943e-16)
(1.33574e-15 -1.33332e-29 2.42429e-31 11.023 7.2956e-15 1.5467e-15 0.222743 -1.36962e-16 3.14922e-17)
(5.34296e-15 9.47327e-30 0 11.023 -5.92577e-15 -6.16298e-33 0.222743 -7.86401e-16 4.28898e-16)
(-2.6657e-15 2.25278e-29 -6.06576e-31 10.735 7.92906e-15 1.53581e-15 0.220073 -1.59845e-16 3.18651e-17)
(6.7204e-15 -1.8675e-29 5.10644e-31 10.735 -6.00913e-15 4.8371e-17 0.220073 -8.13604e-16 4.18491e-16)
(-1.3672e-15 3.84865e-30 -9.75692e-32 10.4543 7.35498e-15 1.52183e-15 0.217433 -1.67295e-16 3.18251e-17)
(0 0 0 10.4543 -6.00017e-15 -2.32978e-17 0.217433 -8.47627e-16 4.07932e-16)
(-1.38265e-15 3.85004e-30 -9.9083e-32 10.1808 6.02055e-15 1.50658e-15 0.214825 -1.40326e-16 3.21462e-17)
(0 9.07175e-30 -1.41746e-31 10.1808 -4.57283e-15 -6.93932e-17 0.214825 -8.71447e-16 3.96765e-16)
(1.11896e-15 -1.85037e-29 1.78787e-31 9.91464 5.30606e-15 1.5014e-15 0.212252 -1.15124e-16 3.25328e-17)
(3.07479e-15 2.23543e-29 -2.79429e-31 9.91464 -3.29649e-15 -3.63715e-17 0.212252 -8.85666e-16 3.85417e-16)
(1.413e-15 -2.14753e-29 3.77668e-31 9.65565 4.76963e-15 1.49427e-15 0.209717 -1.13435e-16 3.27743e-17)
(0 1.76271e-29 -2.75424e-31 9.65565 -3.46827e-15 -6.841e-17 0.209717 -9.08725e-16 3.74129e-16)
(2.44524e-15 -8.68725e-30 2.71477e-31 9.40379 3.92666e-15 1.47926e-15 0.207221 -9.48813e-17 3.28155e-17)
(0 1.30309e-29 -2.71477e-31 9.40379 -4.31531e-15 -1.26323e-16 0.207221 -9.41569e-16 3.62277e-16)
(-1.44261e-15 3.84994e-30 2.83246e-32 9.15896 4.37354e-15 1.46365e-15 0.204767 -7.91097e-17 3.30269e-17)
(0 8.56274e-30 -4.85307e-32 9.15896 -4.70629e-15 -4.31408e-30 0.204767 -9.83984e-16 3.497e-16)
(0 -2.95401e-29 6.59376e-31 8.92103 6.81675e-15 1.4595e-15 0.202354 -1.1791e-16 3.35858e-17)
(1.16573e-14 3.37601e-29 -1.21649e-29 8.92103 -4.52221e-15 4.52002e-18 0.202354 -1.02711e-15 3.37408e-16)
(-2.3416e-15 4.15952e-30 -2.5997e-31 8.6899 9.61626e-15 1.46298e-15 0.199985 -1.93741e-16 3.41569e-17)
(5.88611e-15 8.31905e-30 -1.29985e-31 8.6899 -5.83499e-15 1.5494e-16 0.199985 -1.0575e-15 3.26095e-16)
(-3.79377e-15 3.25055e-29 -8.79235e-31 8.46542 1.05541e-14 1.46994e-15 0.19766 -2.51928e-16 3.4899e-17)
(-3.63486e-15 -2.45994e-29 7.68733e-31 8.46542 -7.12459e-15 -3.23248e-17 0.19766 -1.09656e-15 3.14248e-16)
(-1.49976e-15 2.40063e-29 -3.64703e-31 8.24745 8.67474e-15 1.47416e-15 0.19538 -2.4379e-16 3.53601e-17)
(-5.99903e-15 -1.21234e-29 2.52572e-31 8.24745 -6.03928e-15 -1.41918e-16 0.19538 -1.13464e-15 3.01961e-16)
(0 1.59329e-29 -2.48952e-31 8.03584 6.94978e-15 1.45993e-15 0.193145 -1.69091e-16 3.52281e-17)
(0 -7.96645e-30 1.24476e-31 8.03584 -4.88994e-15 -6.67333e-17 0.193145 -1.16101e-15 2.89283e-16)
(0 1.57045e-29 -2.45383e-31 7.83043 8.47861e-15 1.44881e-15 0.190954 -1.66922e-16 3.58464e-17)
(6.10933e-15 -7.85227e-30 3.84369e-32 7.83043 -5.90003e-15 3.13387e-30 0.190954 -1.18366e-15 2.76967e-16)
(-2.8162e-15 2.71743e-29 -7.29562e-31 7.63108 9.90531e-15 1.46721e-15 0.188809 -2.49585e-16 3.71823e-17)
(2.17854e-15 -2.70891e-29 7.256e-31 7.63108 -7.26139e-15 1.00774e-16 0.188809 -1.2244e-15 2.65717e-16)
(0 -4.57728e-29 1.4304e-30 7.43761 8.6673e-15 1.48327e-15 0.186709 -2.43331e-16 3.77132e-17)
(1.24342e-14 4.57728e-29 -1.4304e-30 7.43761 -5.92798e-15 1.53826e-16 0.186709 -1.2768e-15 2.55443e-16)
(2.11654e-15 -7.51946e-30 3.52475e-31 7.24988 7.64197e-15 1.48945e-15 0.184653 -1.93934e-16 3.85906e-17)
(1.04236e-14 1.12792e-29 -3.52475e-31 7.24988 -5.97764e-15 9.85149e-17 0.184653 -1.29464e-15 2.46018e-16)
(-3.16121e-15 7.546e-30 -2.43681e-31 7.0677 7.57587e-15 1.49586e-15 0.182642 -1.97554e-16 3.91535e-17)
(0 0 0 7.0677 -6.65714e-15 7.30047e-17 0.182642 -1.33555e-15 2.36604e-16)
(-1.59355e-15 3.76747e-30 -1.23218e-31 6.89094 7.41696e-15 1.51603e-15 0.180674 -1.96154e-16 4.07924e-17)
(1.27484e-14 7.30546e-30 -1.14148e-31 6.89094 -5.62902e-15 8.24218e-17 0.180674 -1.37232e-15 2.28067e-16)
(3.63319e-15 -1.4561e-29 5.74875e-31 6.71942 7.15963e-15 1.53709e-15 0.17875 -1.94902e-16 4.14347e-17)
(-2.02683e-15 1.08011e-29 -4.50047e-31 6.71942 -6.72888e-15 1.53585e-17 0.17875 -1.40306e-15 2.20257e-16)
(-1.61902e-15 2.06506e-31 -1.26556e-31 6.55299 6.65325e-15 1.53795e-15 0.176869 -1.88035e-16 4.20344e-17)
(0 1.06463e-29 -1.10899e-31 6.55299 -6.92587e-15 -1.6407e-17 0.176869 -1.45857e-15 2.11676e-16)
(-1.63155e-15 1.42461e-29 -4.56114e-31 6.39149 6.55106e-15 1.54226e-15 0.17503 -1.7293e-16 4.28879e-17)
(6.52619e-15 -1.04937e-29 5.70096e-46 6.39149 -5.56159e-15 2.05399e-30 0.17503 -1.49833e-15 2.03728e-16)
(-1.64394e-15 1.06392e-29 -4.5307e-31 6.23477 6.91142e-15 1.55273e-15 0.173232 -1.87876e-16 4.38549e-17)
(4.63484e-15 0 0 6.23477 -5.90921e-15 1.66375e-16 0.173232 -1.52705e-15 1.97937e-16)
(-3.31241e-15 7.47245e-30 4.37906e-47 6.08268 6.53972e-15 0 0.171475 -1.98271e-16 0)
(0 0 0 6.08268 -5.45497e-15 9.33243e-17 0.171475 -1.57835e-15 1.91853e-16)
(2.17344e-16 1.71337e-29 -6.53637e-31 5.93508 6.28439e-15 -2.67709e-15 0.169758 -1.72161e-16 4.62556e-17)
(-1.88569e-15 -3.34965e-30 2.09353e-31 5.93508 -5.07368e-15 -8.92293e-17 0.169758 -1.62021e-15 1.85577e-16)
(0 -9.90493e-30 2.06353e-31 5.79181 6.56252e-15 -3.81975e-15 0.16808 -1.89292e-16 1.08114e-16)
(-6.72142e-15 9.90493e-30 2.44709e-32 5.79181 -5.62107e-15 0 0.16808 -1.66988e-15 1.76331e-16)
(1.69225e-15 -1.02301e-29 3.17546e-31 5.65274 7.07845e-15 -3.87979e-15 0.166441 -1.93547e-16 1.1475e-16)
(6.76898e-15 6.50865e-30 -2.03395e-31 5.65274 -5.28462e-15 7.82904e-17 0.166441 -1.71339e-15 1.69237e-16)
(1.70402e-15 -1.01241e-29 5.11748e-31 5.51774 8.03627e-15 -3.78374e-15 0.164839 -2.25592e-16 1.1486e-16)
(-6.81607e-15 6.41536e-30 -4.0096e-31 5.51774 -5.52926e-15 5.10844e-17 0.164839 -1.75715e-15 1.62048e-16)
(-1.71567e-15 1.31819e-29 -2.06718e-31 5.38667 8.29655e-15 -3.69625e-15 0.163275 -2.57144e-16 1.12302e-16)
(6.86269e-15 -6.32341e-30 0 5.38667 -5.45268e-15 1.57197e-17 0.163275 -1.78922e-15 1.54359e-16)
(0 6.23278e-30 -9.73872e-32 5.25941 8.48593e-15 -3.66466e-15 0.161746 -2.4817e-16 1.12856e-16)
(0 -6.23278e-30 0 5.25941 -5.35407e-15 2.59817e-17 0.161746 -1.79741e-15 1.47754e-16)
(-1.72923e-15 1.22869e-29 -3.83966e-31 5.13582 8.6895e-15 -3.53413e-15 0.160252 -2.76466e-16 1.13626e-16)
(6.95458e-15 -6.14345e-30 9.59914e-32 5.13582 -4.80452e-15 1.14532e-16 0.160252 -1.84639e-15 1.41988e-16)
(1.74997e-15 -1.5782e-29 2.87818e-31 5.01579 8.40657e-15 -3.35531e-15 0.158793 -2.68296e-16 1.07918e-16)
(0 1.21108e-29 -1.89231e-31 5.01579 -4.56364e-15 9.68894e-17 0.158793 -1.88742e-15 1.36252e-16)
(0 5.96861e-30 -9.32595e-32 4.8992 8.27652e-15 -3.3463e-15 0.157368 -2.66436e-16 1.05497e-16)
(-1.04048e-14 0 0 4.8992 -4.40567e-15 -6.46569e-17 0.157368 -1.93196e-15 1.29555e-16)
(-3.31187e-15 5.88306e-30 -9.19229e-32 4.78593 7.69013e-15 -3.26178e-15 0.155975 -2.67701e-16 1.10494e-16)
(0 5.88306e-30 -9.19229e-32 4.78593 -3.00921e-15 -1.16407e-16 0.155975 -1.96204e-15 1.20294e-16)
(0 5.79874e-30 -3.62421e-31 4.67588 6.50749e-15 -3.09002e-15 0.154614 -2.35569e-16 1.03013e-16)
(0 0 4.52019e-31 4.67588 -2.64706e-15 0 0.154614 -1.97376e-15 1.11104e-16)
(1.79422e-15 1.9206e-29 -4.48591e-31 4.56895 5.69415e-15 -2.98496e-15 0.153285 -1.96414e-16 1.02239e-16)
(0 -2.28625e-29 5.35841e-31 4.56895 -2.73781e-15 -3.19495e-17 0.153285 -1.96949e-15 1.02699e-16)
(1.80504e-15 1.97973e-30 -2.67274e-31 4.46502 5.29712e-15 -3.00231e-15 0.151986 -1.87258e-16 9.88986e-17)
(0 0 1.76054e-31 4.46502 -2.44672e-15 -8.25447e-17 0.151986 -1.99239e-15 9.13224e-17)
(-3.63152e-15 1.74993e-30 -1.61642e-31 4.364 5.06917e-15 -2.93043e-15 0.150717 -1.74824e-16 1.06428e-16)
(7.26304e-15 5.55297e-30 2.17462e-32 4.364 -2.51256e-15 1.254e-30 0.150717 -2.02276e-15 7.8349e-17)
(-1.82639e-15 -1.8286e-30 -7.95964e-32 4.26579 5.64647e-15 -2.70157e-15 0.149477 -1.76817e-16 9.67733e-17)
(0 5.47338e-30 -1.71043e-31 4.26579 -3.60215e-15 7.5143e-17 0.149477 -2.03097e-15 6.74083e-17)
(0 1.07899e-29 -1.68592e-31 4.17031 6.3889e-15 -2.65536e-15 0.148265 -2.20868e-16 9.33235e-17)
(0 -1.07899e-29 1.68592e-31 4.17031 -3.86963e-15 -9.62594e-17 0.148265 -2.07442e-15 5.43626e-17)
(0 1.06352e-29 -2.49263e-31 4.07745 7.63913e-15 -2.73831e-15 0.147081 -2.3539e-16 9.62849e-17)
(0 -5.31761e-30 8.30876e-32 4.07745 -4.23276e-15 -1.54942e-16 0.147081 -2.09893e-15 3.96618e-17)
(0 1.57242e-29 -8.18968e-32 3.98715 1.01648e-14 -2.64238e-15 0.145923 -3.18558e-16 1.0211e-16)
(-2.95064e-15 -1.04828e-29 -1.02634e-46 3.98715 -6.16754e-15 1.85031e-31 0.145923 -2.12493e-15 2.44955e-17)
(0 1.54988e-29 -2.01807e-31 3.8993 1.07836e-14 -2.3072e-15 0.144792 -4.29245e-16 9.20037e-17)
(1.20359e-14 -5.16627e-30 1.21084e-31 3.8993 -7.51061e-15 4.54853e-16 0.144792 -2.18947e-15 1.56442e-17)
(-3.75646e-15 2.05459e-30 -2.20897e-31 3.81384 8.5502e-15 -1.95446e-15 0.143686 -3.74358e-16 7.99293e-17)
(7.51293e-15 5.09222e-30 7.9566e-32 3.81384 -7.36334e-15 5.24507e-16 0.143686 -2.25366e-15 1.11235e-17)
(1.88835e-15 -1.36198e-29 1.4925e-31 3.73068 5.67894e-15 -1.7761e-15 0.142605 -2.71655e-16 6.78228e-17)
(0 1.00385e-29 -7.84256e-32 3.73068 -6.53385e-15 1.38446e-16 0.142605 -2.31522e-15 6.86197e-18)
(0 4.9473e-30 -1.15952e-31 3.64976 4.22284e-15 -1.88695e-15 0.141549 -1.63376e-16 6.84835e-17)
(-7.59358e-15 0 7.73016e-32 3.64976 -4.63933e-15 -1.15372e-16 0.141549 -2.39447e-15 -1.64731e-18)
(-1.90836e-15 -1.59147e-29 1.63395e-31 3.57099 6.06102e-15 -1.9543e-15 0.140516 -1.6542e-16 7.85024e-17)
(7.63344e-15 2.4382e-29 -2.28581e-31 3.57099 -2.65487e-15 -7.82296e-18 0.140516 -2.44474e-15 -8.27624e-18)
(0 4.8065e-30 -1.50203e-31 3.49431 6.55659e-15 -1.87409e-15 0.139506 -3.14416e-16 7.58482e-17)
(0 -4.8065e-30 1.12652e-31 3.49431 -2.76333e-15 2.64392e-18 0.139506 -2.48559e-15 -1.26296e-17)
(2.66704e-15 -4.73761e-30 1.11038e-31 3.41966 3.98091e-15 -2.0719e-15 0.138518 -2.10268e-16 7.43279e-17)
(0 4.73761e-30 -1.4805e-31 3.41966 -3.39881e-15 -1.0508e-16 0.138518 -2.52949e-15 -1.58106e-17)
(-1.93781e-15 3.57827e-30 -5.52148e-32 3.34696 3.20497e-15 -2.21516e-15 0.137553 -1.12691e-16 9.56704e-17)
(0 0 0 3.34696 -2.76889e-15 6.41912e-17 0.137553 -2.57671e-15 -1.89639e-17)
(-3.89498e-15 -2.50858e-29 2.08129e-31 3.27617 3.57833e-15 -2.18624e-15 0.136608 -1.51957e-16 1.85098e-16)
(1.55799e-14 2.76167e-29 -2.87674e-31 3.27617 -2.07777e-15 2.24009e-16 0.136608 -2.60584e-15 -1.5528e-17)
(0 9.07362e-30 -3.54438e-32 3.2072 4.4154e-15 -2.27994e-15 0.135684 -1.47465e-16 2.8264e-16)
(0 -4.53681e-30 0 3.2072 -3.87894e-15 -5.4968e-17 0.135684 -2.63549e-15 -1.14106e-17)
(-2.51739e-15 8.94358e-30 -6.98717e-32 3.14002 5.04086e-15 -2.30379e-15 0.134781 -2.27995e-16 3.87508e-16)
(0 0 3.49358e-32 3.14002 -5.16726e-15 -1.94239e-16 0.134781 -2.72269e-15 -1.12159e-17)
(-3.44702e-15 -2.02521e-29 1.89393e-31 3.07456 5.39255e-15 -2.33296e-15 0.133897 -2.06051e-16 4.01076e-16)
(1.58089e-14 3.08539e-29 -1.89393e-31 3.07456 -3.03931e-15 1.93267e-16 0.133897 -2.78571e-15 -8.08886e-18)
(0 -3.04117e-29 1.52737e-31 3.01077 6.05069e-15 -2.31814e-15 0.133032 -2.65631e-16 3.76974e-16)
(1.58842e-14 3.04117e-29 -1.52737e-31 3.01077 -2.27847e-15 2.25829e-16 0.133032 -2.80381e-15 4.68888e-18)
(-4.40556e-15 1.20709e-29 -3.34551e-32 2.9486 6.18735e-15 -2.22029e-15 0.132186 -2.70862e-16 3.5646e-16)
(0 -8.56451e-30 1.67276e-32 2.9486 -3.55697e-15 -7.73106e-17 0.132186 -2.85804e-15 1.05371e-17)
(2.00416e-15 -2.88221e-29 7.41951e-32 2.888 6.22928e-15 -2.22851e-15 0.131359 -2.85793e-16 3.35291e-16)
(1.60333e-14 2.53253e-29 0 2.888 -2.38379e-15 0 0.131359 -2.93731e-15 1.60047e-17)
(0 -1.66415e-29 1.62515e-32 2.82892 5.54408e-15 -2.34321e-15 0.130549 -2.82651e-16 3.11819e-16)