/*--------------------------------*- C++ -*----------------------------------*\
| =========                 |                                                 |
| \\      /  F ield         | OpenFOAM: The Open Source CFD Toolbox           |
|  \\    /   O peration     | Version:  2106                                  |
|   \\  /    A nd           | Website:  www.openfoam.com                      |
|    \\/     M anipulation  |                                                 |
\*---------------------------------------------------------------------------*/
FoamFile
{
    version     2.0;
    format      ascii;
    arch        "LSB;label=32;scalar=64";
    class       volScalarField;
    location    "16000";
    object      p;
}
// * * * * * * * * * * * * * * * * * * * * * * * * * * * * * * * * * * * * * //

dimensions      [0 2 -2 0 0 0 0];

internalField   nonuniform List<scalar> 
2560
(
3.87966e-15
2.76276e-14
8.17622e-15
2.76271e-14
8.85883e-15
2.76266e-14
8.58819e-15
2.76258e-14
8.46617e-15
2.76247e-14
8.45656e-15
2.76233e-14
8.44574e-15
2.76216e-14
8.42095e-15
2.76197e-14
8.39161e-15
2.76174e-14
8.36212e-15
2.76148e-14
8.3333e-15
2.7612e-14
8.30536e-15
2.76088e-14
8.27837e-15
2.76054e-14
8.25237e-15
2.76016e-14
8.22729e-15
2.75976e-14
8.20312e-15
2.75934e-14
8.17986e-15
2.75889e-14
8.15743e-15
2.75841e-14
8.13582e-15
2.7579e-14
8.11535e-15
2.75736e-14
8.09572e-15
2.75679e-14
8.07693e-15
2.75619e-14
8.05904e-15
2.75557e-14
8.04213e-15
2.75491e-14
8.026e-15
2.75422e-14
8.01064e-15
2.7535e-14
7.99614e-15
2.75274e-14
7.98258e-15
2.75196e-14
7.96991e-15
2.75116e-14
7.958e-15
2.75033e-14
7.94689e-15
2.74946e-14
7.93652e-15
2.74855e-14
7.92695e-15
2.74762e-14
7.91836e-15
2.74666e-14
7.91047e-15
2.74569e-14
7.90327e-15
2.74469e-14
7.8967e-15
2.74367e-14
7.89102e-15
2.7426e-14
7.88607e-15
2.74152e-14
7.88179e-15
2.74041e-14
7.87834e-15
2.73926e-14
7.87557e-15
2.73808e-14
7.87365e-15
2.73687e-14
7.87249e-15
2.73562e-14
7.87209e-15
2.73433e-14
7.87247e-15
2.73298e-14
7.87368e-15
2.73161e-14
7.87588e-15
2.73021e-14
7.87869e-15
2.72877e-14
7.88209e-15
2.7273e-14
7.88655e-15
2.72579e-14
7.8916e-15
2.72423e-14
7.89688e-15
2.72266e-14
7.90335e-15
2.72101e-14
7.91048e-15
2.71933e-14
7.91807e-15
2.71763e-14
7.92661e-15
2.71588e-14
7.93619e-15
2.71406e-14
7.94658e-15
2.71216e-14
7.9573e-15
2.71024e-14
7.96872e-15
2.70829e-14
7.98105e-15
2.70629e-14
7.99438e-15
2.7042e-14
8.00851e-15
2.70202e-14
8.02368e-15
2.69981e-14
8.0394e-15
2.69753e-14
8.0559e-15
2.69519e-14
8.07372e-15
2.69276e-14
8.09267e-15
2.69026e-14
8.11286e-15
2.68775e-14
8.13306e-15
2.68522e-14
8.15457e-15
2.6826e-14
8.17734e-15
2.6799e-14
8.20135e-15
2.67716e-14
8.22655e-15
2.67437e-14
8.25292e-15
2.67151e-14
8.27981e-15
2.66855e-14
8.30841e-15
2.66546e-14
8.3384e-15
2.66231e-14
8.37006e-15
2.6591e-14
8.40209e-15
2.65586e-14
8.4354e-15
2.6524e-14
8.4703e-15
2.64876e-14
8.50609e-15
2.64513e-14
8.54308e-15
2.64153e-14
8.58088e-15
2.63785e-14
8.61944e-15
2.63406e-14
8.65907e-15
2.6301e-14
8.70043e-15
2.62614e-14
8.74241e-15
2.62226e-14
8.7846e-15
2.61829e-14
8.82802e-15
2.61419e-14
8.87226e-15
2.61008e-14
8.918e-15
2.60586e-14
8.96595e-15
2.60148e-14
9.01532e-15
2.59695e-14
9.06682e-15
2.59255e-14
9.1173e-15
2.58835e-14
9.16587e-15
2.58407e-14
9.21557e-15
2.57962e-14
9.26714e-15
2.57516e-14
9.31971e-15
2.57071e-14
9.36827e-15
2.56644e-14
9.41763e-15
2.56235e-14
9.46937e-15
2.55839e-14
9.51918e-15
2.55446e-14
9.56864e-15
2.55067e-14
9.61936e-15
2.54695e-14
9.67123e-15
2.54304e-14
9.72418e-15
2.53938e-14
9.77719e-15
2.53583e-14
9.83014e-15
2.53246e-14
9.88291e-15
2.52877e-14
9.9381e-15
2.5251e-14
9.99471e-15
2.52149e-14
1.00507e-14
2.51794e-14
1.0107e-14
2.51436e-14
1.01642e-14
2.51077e-14
1.02195e-14
2.50728e-14
1.02765e-14
2.50391e-14
1.0336e-14
2.50016e-14
1.0394e-14
2.49626e-14
1.04532e-14
2.49221e-14
1.05156e-14
2.48812e-14
1.0582e-14
2.48361e-14
1.06472e-14
2.47938e-14
1.07131e-14
2.47515e-14
1.07805e-14
2.47084e-14
1.08504e-14
2.46614e-14
1.09142e-14
2.46158e-14
1.09758e-14
2.45782e-14
1.1035e-14
2.45488e-14
1.10959e-14
2.45193e-14
1.11604e-14
2.44879e-14
1.12219e-14
2.44589e-14
1.12778e-14
2.44326e-14
1.13388e-14
2.44026e-14
1.1396e-14
2.43758e-14
1.14579e-14
2.43546e-14
1.15198e-14
2.43325e-14
1.15747e-14
2.43054e-14
1.16359e-14
2.42869e-14
1.1694e-14
2.42706e-14
1.17487e-14
2.42498e-14
1.18043e-14
2.4234e-14
1.18628e-14
2.42167e-14
1.19215e-14
2.41956e-14
1.19801e-14
2.41758e-14
1.20337e-14
2.41528e-14
1.20888e-14
2.41292e-14
1.21499e-14
2.41007e-14
1.2212e-14
2.4077e-14
1.22771e-14
2.40536e-14
1.23425e-14
2.4026e-14
1.23981e-14
2.39946e-14
1.24532e-14
2.39547e-14
1.25147e-14
2.39139e-14
1.25775e-14
2.38896e-14
1.26434e-14
2.38675e-14
1.26999e-14
2.38357e-14
1.27539e-14
2.3797e-14
1.28024e-14
2.37616e-14
1.28574e-14
2.37273e-14
1.29233e-14
2.36896e-14
1.29823e-14
2.36438e-14
1.30389e-14
2.36052e-14
1.30927e-14
2.35692e-14
1.3143e-14
2.35312e-14
1.31944e-14
2.35017e-14
1.32413e-14
2.3471e-14
1.33034e-14
2.34397e-14
1.33752e-14
2.3408e-14
1.3451e-14
2.33561e-14
1.35305e-14
2.32995e-14
1.36131e-14
2.32385e-14
1.36986e-14
2.31734e-14
1.37864e-14
2.31097e-14
1.38762e-14
2.30424e-14
1.39677e-14
2.29821e-14
1.40502e-14
2.29343e-14
1.41438e-14
2.28681e-14
1.4238e-14
2.27993e-14
1.43322e-14
2.27282e-14
1.44316e-14
2.266e-14
1.45305e-14
2.26001e-14
1.46338e-14
2.25279e-14
1.47361e-14
2.24538e-14
1.48264e-14
2.23884e-14
1.49151e-14
2.23213e-14
1.49963e-14
2.22632e-14
1.5075e-14
2.2209e-14
1.51506e-14
2.2143e-14
1.52281e-14
2.20707e-14
1.53123e-14
2.20134e-14
1.53923e-14
2.19657e-14
1.54781e-14
2.18909e-14
1.5559e-14
2.1826e-14
1.56346e-14
2.17922e-14
1.57202e-14
2.17527e-14
1.58048e-14
2.16971e-14
1.58881e-14
2.16572e-14
1.59537e-14
2.16279e-14
1.60329e-14
2.15828e-14
1.61199e-14
2.1538e-14
1.62145e-14
2.14934e-14
1.63058e-14
2.14597e-14
1.63933e-14
2.14368e-14
1.64979e-14
2.1393e-14
1.65983e-14
2.13387e-14
1.66944e-14
2.13056e-14
1.67966e-14
2.12722e-14
1.68835e-14
2.12386e-14
1.69868e-14
2.11726e-14
1.70854e-14
2.11375e-14
1.71898e-14
2.11011e-14
1.72789e-14
2.11057e-14
1.73733e-14
2.10983e-14
1.74624e-14
2.10578e-14
1.75462e-14
2.10367e-14
1.76455e-14
2.10453e-14
1.77496e-14
2.10309e-14
1.78479e-14
2.09931e-14
1.79408e-14
2.09839e-14
1.80282e-14
2.09925e-14
1.81099e-14
2.09768e-14
1.81962e-14
2.09366e-14
1.82874e-14
2.09236e-14
1.83733e-14
2.09162e-14
1.8454e-14
2.09248e-14
1.85395e-14
2.09074e-14
1.86197e-14
2.08739e-14
1.86952e-14
2.08648e-14
1.8766e-14
2.09005e-14
1.88523e-14
2.08984e-14
1.89235e-14
2.08685e-14
1.89802e-14
2.08717e-14
1.90634e-14
2.08564e-14
1.91325e-14
2.08528e-14
1.92081e-14
2.08092e-14
1.92812e-14
2.07853e-14
1.93528e-14
2.07696e-14
1.94032e-14
2.07406e-14
1.94636e-14
2.07075e-14
1.95046e-14
2.0699e-14
1.95666e-14
2.0684e-14
1.96301e-14
2.07014e-14
1.96949e-14
2.07109e-14
1.97618e-14
2.06724e-14
1.97926e-14
2.06435e-14
1.98274e-14
2.06229e-14
1.98856e-14
2.05899e-14
1.99296e-14
2.06015e-14
1.99594e-14
2.05788e-14
1.99759e-14
2.0579e-14
1.99983e-14
2.05435e-14
2.00264e-14
2.04903e-14
2.00624e-14
2.04173e-14
2.00894e-14
2.03597e-14
2.00519e-14
2.0391e-14
2.00436e-14
2.03224e-14
2.00469e-14
2.02281e-14
2.00074e-14
2.01607e-14
1.99819e-14
2.00625e-14
1.99908e-14
2.00435e-14
2.00165e-14
2.00268e-14
2.00416e-14
2.00479e-14
1.99926e-14
2.00509e-14
2.00142e-14
2.00563e-14
2.00692e-14
2.00813e-14
2.00682e-14
2.01428e-14
2.00446e-14
2.01895e-14
1.99951e-14
2.02066e-14
1.99874e-14
2.01802e-14
2.00389e-14
2.01988e-14
2.01152e-14
2.02426e-14
2.01466e-14
2.02743e-14
2.01517e-14
2.02585e-14
2.01311e-14
2.02453e-14
2.01696e-14
2.02688e-14
2.01983e-14
2.03447e-14
2.02669e-14
2.04072e-14
2.03081e-14
2.04239e-14
2.03238e-14
2.04113e-14
2.03653e-14
2.04181e-14
2.04178e-14
2.04907e-14
2.04639e-14
2.05644e-14
2.04699e-14
2.06092e-14
2.05473e-14
2.05807e-14
2.06046e-14
2.06659e-14
2.06408e-14
2.07389e-14
2.07497e-14
2.07719e-14
2.08098e-14
2.08238e-14
2.09475e-14
2.08941e-14
2.09821e-14
2.0947e-14
2.10052e-14
2.10147e-14
2.10731e-14
2.10714e-14
2.11566e-14
2.11158e-14
2.10774e-14
2.11736e-14
2.11471e-14
2.1287e-14
2.11263e-14
2.13131e-14
2.11824e-14
2.13435e-14
2.12244e-14
2.1433e-14
2.12751e-14
2.15291e-14
2.13888e-14
2.15801e-14
2.143e-14
2.16103e-14
2.15363e-14
2.1677e-14
2.16318e-14
2.17483e-14
2.17236e-14
2.17931e-14
2.18174e-14
2.19141e-14
2.1908e-14
2.19814e-14
2.19478e-14
2.20468e-14
2.19339e-14
2.21129e-14
2.2035e-14
2.21653e-14
2.21322e-14
2.22517e-14
2.21494e-14
2.22687e-14
2.22134e-14
2.22928e-14
2.23016e-14
2.23424e-14
2.23937e-14
2.2389e-14
2.24505e-14
2.24238e-14
2.25021e-14
2.24925e-14
2.26655e-14
2.33007e-14
2.26653e-14
2.33006e-14
2.26651e-14
2.33006e-14
2.26647e-14
2.33005e-14
2.26642e-14
2.33003e-14
2.26635e-14
2.33001e-14
2.26627e-14
2.32998e-14
2.26618e-14
2.32995e-14
2.26607e-14
2.32992e-14
2.26595e-14
2.32987e-14
2.26582e-14
2.32982e-14
2.26568e-14
2.32976e-14
2.26552e-14
2.32969e-14
2.26536e-14
2.32962e-14
2.26517e-14
2.32954e-14
2.26498e-14
2.32946e-14
2.26477e-14
2.32938e-14
2.26455e-14
2.32928e-14
2.26433e-14
2.32919e-14
2.26408e-14
2.32908e-14
2.26383e-14
2.32897e-14
2.26356e-14
2.32886e-14
2.26328e-14
2.32876e-14
2.26298e-14
2.32866e-14
2.26268e-14
2.32853e-14
2.26236e-14
2.32839e-14
2.26202e-14
2.32824e-14
2.26168e-14
2.32809e-14
2.26133e-14
2.32795e-14
2.26098e-14
2.32778e-14
2.2606e-14
2.32759e-14
2.2602e-14
2.3274e-14
2.2598e-14
2.32723e-14
2.2594e-14
2.32706e-14
2.25896e-14
2.32688e-14
2.25852e-14
2.32671e-14
2.25806e-14
2.32652e-14
2.25759e-14
2.32634e-14
2.25712e-14
2.32612e-14
2.25664e-14
2.3259e-14
2.25614e-14
2.3257e-14
2.25562e-14
2.3255e-14
2.25508e-14
2.32531e-14
2.25455e-14
2.32508e-14
2.25401e-14
2.32486e-14
2.25345e-14
2.32461e-14
2.25287e-14
2.32436e-14
2.25228e-14
2.32412e-14
2.25167e-14
2.32386e-14
2.25105e-14
2.32357e-14
2.25041e-14
2.32329e-14
2.24975e-14
2.32299e-14
2.24908e-14
2.32268e-14
2.24838e-14
2.32237e-14
2.24768e-14
2.32203e-14
2.24696e-14
2.3217e-14
2.24623e-14
2.32135e-14
2.24548e-14
2.321e-14
2.24471e-14
2.32063e-14
2.24392e-14
2.32022e-14
2.24313e-14
2.31982e-14
2.24231e-14
2.31938e-14
2.24145e-14
2.31898e-14
2.24058e-14
2.31852e-14
2.2397e-14
2.31803e-14
2.23882e-14
2.31757e-14
2.2379e-14
2.31703e-14
2.23694e-14
2.31652e-14
2.23595e-14
2.31598e-14
2.23494e-14
2.31538e-14
2.23388e-14
2.3148e-14
2.23281e-14
2.31423e-14
2.23173e-14
2.31363e-14
2.23059e-14
2.31303e-14
2.22939e-14
2.31243e-14
2.22817e-14
2.31172e-14
2.22694e-14
2.31096e-14
2.22566e-14
2.31018e-14
2.22437e-14
2.30931e-14
2.22298e-14
2.30838e-14
2.22157e-14
2.30744e-14
2.22016e-14
2.3065e-14
2.2187e-14
2.30553e-14
2.2172e-14
2.30461e-14
2.21573e-14
2.30362e-14
2.21418e-14
2.30261e-14
2.21257e-14
2.30161e-14
2.21094e-14
2.30051e-14
2.20928e-14
2.29948e-14
2.20758e-14
2.29854e-14
2.20602e-14
2.29739e-14
2.20432e-14
2.29628e-14
2.20259e-14
2.29511e-14
2.20082e-14
2.29372e-14
2.19906e-14
2.29245e-14
2.19727e-14
2.29131e-14
2.19529e-14
2.29036e-14
2.19328e-14
2.28924e-14
2.19141e-14
2.28769e-14
2.18942e-14
2.28619e-14
2.18758e-14
2.2849e-14
2.18554e-14
2.28351e-14
2.18366e-14
2.28225e-14
2.18191e-14
2.28071e-14
2.17991e-14
2.27922e-14
2.17814e-14
2.27762e-14
2.17602e-14
2.27591e-14
2.1738e-14
2.27442e-14
2.17174e-14
2.27265e-14
2.16968e-14
2.27075e-14
2.16743e-14
2.26909e-14
2.16501e-14
2.26731e-14
2.16258e-14
2.26533e-14
2.16024e-14
2.2634e-14
2.15791e-14
2.26144e-14
2.15549e-14
2.25955e-14
2.15289e-14
2.25744e-14
2.1504e-14
2.2552e-14
2.14773e-14
2.25322e-14
2.14507e-14
2.25102e-14
2.14244e-14
2.24879e-14
2.13972e-14
2.24634e-14
2.13714e-14
2.24366e-14
2.13458e-14
2.24134e-14
2.13216e-14
2.2391e-14
2.12988e-14
2.23684e-14
2.12702e-14
2.23454e-14
2.1241e-14
2.23243e-14
2.12113e-14
2.23009e-14
2.11862e-14
2.2271e-14
2.11595e-14
2.2245e-14
2.11334e-14
2.22209e-14
2.11079e-14
2.21923e-14
2.10831e-14
2.21613e-14
2.1059e-14
2.21366e-14
2.10356e-14
2.21116e-14
2.10153e-14
2.20864e-14
2.09936e-14
2.20588e-14
2.09685e-14
2.20353e-14
2.0942e-14
2.20094e-14
2.0921e-14
2.19765e-14
2.08899e-14
2.19479e-14
2.08621e-14
2.19281e-14
2.08354e-14
2.19057e-14
2.08099e-14
2.18786e-14
2.0781e-14
2.18535e-14
2.07534e-14
2.18328e-14
2.07318e-14
2.18142e-14
2.07117e-14
2.1793e-14
2.06883e-14
2.17693e-14
2.06617e-14
2.17477e-14
2.06414e-14
2.17235e-14
2.06203e-14
2.17063e-14
2.06009e-14
2.16936e-14
2.05809e-14
2.16736e-14
2.05603e-14
2.16534e-14
2.05488e-14
2.16427e-14
2.05319e-14
2.16343e-14
2.05268e-14
2.1621e-14
2.05288e-14
2.16052e-14
2.0528e-14
2.15917e-14
2.05271e-14
2.1578e-14
2.05386e-14
2.15568e-14
2.05427e-14
2.15454e-14
2.05546e-14
2.15388e-14
2.05619e-14
2.1527e-14
2.05596e-14
2.15201e-14
2.0563e-14
2.1508e-14
2.0567e-14
2.14906e-14
2.05669e-14
2.1468e-14
2.05626e-14
2.14552e-14
2.05697e-14
2.1432e-14
2.05832e-14
2.13982e-14
2.05932e-14
2.13741e-14
2.05842e-14
2.1365e-14
2.05822e-14
2.13452e-14
2.05769e-14
2.133e-14
2.05632e-14
2.13352e-14
2.05514e-14
2.13349e-14
2.05468e-14
2.1319e-14
2.05547e-14
2.13081e-14
2.05439e-14
2.13128e-14
2.05354e-14
2.13175e-14
2.05343e-14
2.13121e-14
2.05303e-14
2.13069e-14
2.0539e-14
2.13232e-14
2.05554e-14
2.13349e-14
2.05795e-14
2.13474e-14
2.06009e-14
2.13451e-14
2.0625e-14
2.13542e-14
2.06468e-14
2.13486e-14
2.0656e-14
2.13442e-14
2.06631e-14
2.13514e-14
2.0679e-14
2.13654e-14
2.06931e-14
2.13757e-14
2.07108e-14
2.13772e-14
2.07324e-14
2.13752e-14
2.07368e-14
2.13859e-14
2.07452e-14
2.13882e-14
2.07685e-14
2.13769e-14
2.07804e-14
2.13839e-14
2.07863e-14
2.1404e-14
2.07915e-14
2.1427e-14
2.08067e-14
2.14371e-14
2.0832e-14
2.14401e-14
2.08463e-14
2.14572e-14
2.08603e-14
2.14675e-14
2.08741e-14
2.14711e-14
2.08984e-14
2.14683e-14
2.09228e-14
2.14698e-14
2.09369e-14
2.1465e-14
2.09302e-14
2.14754e-14
2.09557e-14
2.14588e-14
2.09925e-14
2.14472e-14
2.10411e-14
2.14403e-14
2.10383e-14
2.14487e-14
2.10478e-14
2.14407e-14
2.1059e-14
2.14481e-14
2.10933e-14
2.14713e-14
2.1119e-14
2.14787e-14
2.11364e-14
2.14914e-14
2.11456e-14
2.15098e-14
2.11675e-14
2.15133e-14
2.11917e-14
2.15229e-14
2.1229e-14
2.15283e-14
2.12379e-14
2.15504e-14
2.12288e-14
2.15374e-14
2.12644e-14
2.1521e-14
2.1293e-14
2.15426e-14
2.13044e-14
2.15708e-14
2.1309e-14
2.15753e-14
2.13273e-14
2.15565e-14
2.13185e-14
2.15868e-14
2.13235e-14
2.15943e-14
2.13212e-14
2.15898e-14
2.13118e-14
2.16047e-14
2.13461e-14
2.1578e-14
2.1343e-14
2.15706e-14
2.13434e-14
2.15826e-14
2.13369e-14
2.15945e-14
2.13329e-14
2.15971e-14
2.13313e-14
2.16011e-14
2.13216e-14
2.15971e-14
2.13239e-14
2.16264e-14
2.13374e-14
2.16499e-14
2.1382e-14
2.16082e-14
2.13592e-14
2.15802e-14
2.1369e-14
2.15855e-14
2.13909e-14
2.1585e-14
2.14457e-14
2.15592e-14
2.14367e-14
2.15464e-14
2.1443e-14
2.15273e-14
2.14258e-14
2.15409e-14
2.14237e-14
2.15297e-14
2.14758e-14
2.15135e-14
2.14294e-14
2.14721e-14
2.14199e-14
2.14256e-14
2.14094e-14
2.14123e-14
2.13408e-14
2.13756e-14
2.12708e-14
2.13542e-14
2.12549e-14
2.13316e-14
2.12172e-14
2.12526e-14
2.11788e-14
2.11545e-14
2.11231e-14
2.113e-14
2.11049e-14
2.11051e-14
2.10868e-14
2.10802e-14
2.10689e-14
2.1055e-14
2.10712e-14
2.10475e-14
2.10574e-14
2.10393e-14
2.10633e-14
2.10306e-14
2.10358e-14
2.10383e-14
2.10105e-14
2.09912e-14
2.09894e-14
2.09599e-14
2.09913e-14
2.098e-14
2.10325e-14
2.10167e-14
2.1007e-14
2.10525e-14
2.09998e-14
2.10911e-14
2.10087e-14
2.10843e-14
2.10182e-14
2.11021e-14
2.09764e-14
2.11283e-14
2.09815e-14
2.11147e-14
2.09817e-14
2.10935e-14
2.09945e-14
2.10806e-14
2.10048e-14
2.11087e-14
2.10111e-14
2.11298e-14
2.10117e-14
2.11444e-14
2.10048e-14
2.11362e-14
2.10717e-14
2.11209e-14
2.10877e-14
2.11269e-14
2.10852e-14
2.11513e-14
2.11574e-14
2.11628e-14
2.12119e-14
2.11887e-14
2.12825e-14
2.12263e-14
2.13387e-14
2.12719e-14
2.13829e-14
2.12939e-14
2.14186e-14
2.13505e-14
2.15045e-14
2.14125e-14
2.15824e-14
2.14487e-14
2.15447e-14
2.15148e-14
2.16168e-14
2.1588e-14
2.17433e-14
2.16414e-14
2.17894e-14
2.16989e-14
2.17568e-14
2.17889e-14
2.18315e-14
2.1809e-14
2.19311e-14
2.18103e-14
2.19298e-14
2.18654e-14
2.19298e-14
2.19511e-14
2.19996e-14
2.20227e-14
2.21096e-14
2.20825e-14
2.21315e-14
2.21487e-14
2.2165e-14
2.2227e-14
2.22308e-14
2.2271e-14
2.22048e-14
2.23041e-14
2.22819e-14
2.23599e-14
2.23319e-14
2.24078e-14
2.24095e-14
2.24507e-14
2.2495e-14
2.246e-14
2.25238e-14
2.25236e-14
2.25628e-14
2.25723e-14
2.2584e-14
2.25839e-14
2.25485e-14
2.25769e-14
2.25869e-14
2.26409e-14
2.26646e-14
2.27135e-14
2.26832e-14
2.27704e-14
2.26848e-14
2.27683e-14
2.27471e-14
2.28068e-14
2.27709e-14
2.28302e-14
2.27562e-14
2.28351e-14
2.28576e-14
2.2874e-14
2.29317e-14
2.29681e-14
2.28987e-14
2.29641e-14
2.29367e-14
2.29713e-14
2.29915e-14
2.29843e-14
2.29619e-14
2.30238e-14
2.29735e-14
2.3069e-14
2.29954e-14
2.30665e-14
2.29772e-14
2.30948e-14
2.30244e-14
2.30768e-14
2.30316e-14
2.30322e-14
2.30021e-14
2.29847e-14
2.29641e-14
2.30184e-14
2.30001e-14
2.30212e-14
2.30569e-14
2.30496e-14
2.30499e-14
2.31027e-14
2.30356e-14
2.31265e-14
2.31005e-14
2.3125e-14
2.31297e-14
2.31542e-14
2.31234e-14
2.31847e-14
2.31753e-14
2.32195e-14
2.31619e-14
2.32561e-14
2.31395e-14
2.32342e-14
2.31695e-14
2.32807e-14
2.32532e-14
2.33326e-14
2.32655e-14
2.33872e-14
2.33369e-14
2.34463e-14
2.33704e-14
2.35265e-14
2.33601e-14
2.35822e-14
2.33673e-14
2.36174e-14
2.3425e-14
2.36666e-14
2.3517e-14
2.36953e-14
2.3529e-14
2.37677e-14
2.35602e-14
2.37847e-14
2.3665e-14
2.37794e-14
2.3677e-14
2.37803e-14
2.37693e-14
2.37685e-14
2.37918e-14
2.38071e-14
2.37601e-14
2.3828e-14
2.37589e-14
2.38692e-14
2.38407e-14
2.39143e-14
2.39187e-14
2.39612e-14
2.39219e-14
2.39894e-14
2.39207e-14
2.4e-14
2.39325e-14
2.40485e-14
2.39748e-14
2.4136e-14
2.40285e-14
2.41355e-14
2.40405e-14
2.41739e-14
2.4084e-14
2.42529e-14
2.41213e-14
2.43186e-14
2.4152e-14
2.43158e-14
2.41963e-14
2.43183e-14
2.42561e-14
2.43433e-14
2.43336e-14
2.43508e-14
2.43362e-14
2.43566e-14
2.43591e-14
2.44366e-14
2.44196e-14
2.44976e-14
2.44606e-14
2.45199e-14
2.45022e-14
2.45419e-14
2.45452e-14
2.45834e-14
2.45702e-14
2.46448e-14
2.45956e-14
2.46873e-14
2.46402e-14
2.475e-14
2.46841e-14
2.47942e-14
2.47074e-14
2.48203e-14
2.47496e-14
2.4848e-14
2.47506e-14
2.48768e-14
2.47893e-14
2.49676e-14
2.48248e-14
2.50014e-14
2.48569e-14
2.49674e-14
2.48872e-14
2.49545e-14
2.49365e-14
2.50227e-14
2.49746e-14
2.50716e-14
2.50013e-14
2.51116e-14
2.50264e-14
2.51325e-14
2.50395e-14
2.5175e-14
2.50506e-14
2.52193e-14
2.50693e-14
2.52351e-14
2.50853e-14
2.52429e-14
2.50783e-14
2.52627e-14
2.51099e-14
2.5295e-14
2.51181e-14
2.53089e-14
2.51444e-14
2.53256e-14
2.51578e-14
2.53553e-14
2.51789e-14
2.53773e-14
2.5208e-14
2.53603e-14
2.52352e-14
2.53557e-14
2.52506e-14
2.53945e-14
2.52748e-14
2.54036e-14
2.52977e-14
2.54143e-14
2.53195e-14
2.54263e-14
2.53405e-14
2.54183e-14
2.5361e-14
2.54424e-14
2.5381e-14
2.54777e-14
2.54003e-14
2.54822e-14
2.54086e-14
2.54874e-14
2.54164e-14
2.5504e-14
2.54236e-14
2.55319e-14
2.54406e-14
2.55395e-14
2.54569e-14
2.55371e-14
2.5462e-14
2.55564e-14
2.54771e-14
2.55763e-14
2.54808e-14
2.55968e-14
2.54835e-14
2.5618e-14
2.54959e-14
2.56079e-14
2.55075e-14
2.5609e-14
2.55183e-14
2.56424e-14
2.55281e-14
2.56765e-14
2.55368e-14
2.56687e-14
2.55445e-14
2.56616e-14
2.55514e-14
2.56657e-14
2.5552e-14
2.56861e-14
2.55623e-14
2.56965e-14
2.55716e-14
2.57182e-14
2.55746e-14
2.57351e-14
2.55872e-14
2.57475e-14
2.55935e-14
2.57553e-14
2.55935e-14
2.57796e-14
2.5619e-14
2.57784e-14
2.5649e-14
2.57671e-14
2.56519e-14
2.57722e-14
2.56595e-14
2.57829e-14
2.56717e-14
2.57941e-14
2.56782e-14
2.5811e-14
2.56789e-14
2.58125e-14
2.56842e-14
2.58303e-14
2.56889e-14
2.58538e-14
2.56983e-14
2.58517e-14
2.57018e-14
2.58449e-14
2.56997e-14
2.58596e-14
2.57074e-14
2.58748e-14
2.57145e-14
2.58958e-14
2.57211e-14
2.59018e-14
2.57272e-14
2.59032e-14
2.5743e-14
2.59053e-14
2.57584e-14
2.58976e-14
2.57683e-14
2.59058e-14
2.57727e-14
2.59145e-14
2.5782e-14
2.59134e-14
2.57909e-14
2.59076e-14
2.57946e-14
2.59021e-14
2.58031e-14
2.5902e-14
2.58014e-14
2.58921e-14
2.57995e-14
2.58824e-14
2.58025e-14
2.5878e-14
2.58055e-14
2.58789e-14
2.58084e-14
2.5885e-14
2.58161e-14
2.58912e-14
2.58138e-14
2.58976e-14
2.58089e-14
2.59091e-14
2.58088e-14
2.59084e-14
2.5806e-14
2.59104e-14
2.58032e-14
2.59151e-14
2.58026e-14
2.592e-14
2.58116e-14
2.59178e-14
2.58058e-14
2.59206e-14
2.58046e-14
2.59237e-14
2.58058e-14
2.59294e-14
2.58091e-14
2.59306e-14
2.58194e-14
2.59415e-14
2.58223e-14
2.59406e-14
2.58179e-14
2.59305e-14
2.58181e-14
2.59254e-14
2.58228e-14
2.59252e-14
2.58344e-14
2.59276e-14
2.58365e-14
2.59324e-14
2.58385e-14
2.59304e-14
2.5845e-14
2.59309e-14
2.58536e-14
2.59316e-14
2.58598e-14
2.59255e-14
2.58636e-14
2.59219e-14
2.58719e-14
2.59274e-14
2.58823e-14
2.59353e-14
2.58859e-14
2.59387e-14
2.58917e-14
2.594e-14
2.58996e-14
2.59436e-14
2.59052e-14
2.59451e-14
2.59064e-14
2.59445e-14
2.59076e-14
2.59483e-14
2.59109e-14
2.59521e-14
2.59142e-14
2.5956e-14
2.59153e-14
2.59579e-14
2.59143e-14
2.59598e-14
2.59174e-14
2.59597e-14
2.59163e-14
2.59597e-14
2.59152e-14
2.59628e-14
2.59121e-14
2.59681e-14
2.59079e-14
2.59744e-14
2.59067e-14
2.59767e-14
2.59045e-14
2.5977e-14
2.59042e-14
2.59795e-14
2.59039e-14
2.59839e-14
2.59036e-14
2.59845e-14
2.59022e-14
2.59851e-14
2.59037e-14
2.59849e-14
2.59051e-14
2.59876e-14
2.59046e-14
2.59922e-14
2.5904e-14
2.59968e-14
2.59043e-14
2.59996e-14
2.59036e-14
2.60015e-14
2.59029e-14
2.60044e-14
2.5903e-14
2.60082e-14
2.59022e-14
2.60121e-14
2.59014e-14
2.60168e-14
2.58996e-14
2.60216e-14
2.58986e-14
2.60255e-14
2.58985e-14
2.60312e-14
2.58974e-14
2.6036e-14
2.58963e-14
2.60366e-14
2.5896e-14
2.60373e-14
2.58981e-14
2.6038e-14
2.58985e-14
2.60397e-14
2.5898e-14
2.60413e-14
2.58975e-14
2.60422e-14
2.58969e-14
2.60424e-14
2.58963e-14
2.60441e-14
2.58957e-14
2.60452e-14
2.58949e-14
2.60439e-14
2.58934e-14
2.60428e-14
2.58941e-14
2.60421e-14
2.5894e-14
2.60436e-14
2.58932e-14
2.60449e-14
2.5893e-14
2.60439e-14
2.5892e-14
2.60413e-14
2.58921e-14
2.60395e-14
2.58921e-14
2.60387e-14
2.58925e-14
2.60377e-14
2.58931e-14
2.6036e-14
2.5894e-14
2.60344e-14
2.58939e-14
2.60325e-14
2.5894e-14
2.60309e-14
2.58945e-14
2.60301e-14
2.58952e-14
2.60296e-14
2.58959e-14
2.60289e-14
2.58956e-14
2.60282e-14
2.58953e-14
2.60275e-14
2.58956e-14
2.60262e-14
2.58958e-14
2.6025e-14
2.5896e-14
2.60244e-14
2.58962e-14
2.60238e-14
2.58957e-14
2.60233e-14
2.58952e-14
2.60225e-14
2.5895e-14
2.6022e-14
2.5895e-14
2.60215e-14
2.5895e-14
2.60203e-14
2.5895e-14
2.60196e-14
2.58947e-14
2.60198e-14
2.58946e-14
2.602e-14
2.58945e-14
2.60199e-14
2.58943e-14
2.60192e-14
2.58939e-14
2.60186e-14
2.58938e-14
2.60186e-14
2.58936e-14
2.60183e-14
2.58933e-14
2.60181e-14
2.5893e-14
2.60185e-14
2.58928e-14
2.60185e-14
2.58925e-14
2.60183e-14
2.58922e-14
2.60177e-14
2.58922e-14
2.60176e-14
2.58918e-14
2.60174e-14
2.58913e-14
2.60172e-14
2.58912e-14
2.60171e-14
2.58912e-14
2.60172e-14
2.58912e-14
2.60171e-14
2.58911e-14
2.6017e-14
2.5891e-14
2.60169e-14
2.58909e-14
2.60169e-14
2.58909e-14
2.60168e-14
2.5891e-14
2.60167e-14
2.5891e-14
2.60166e-14
2.58911e-14
2.60164e-14
2.58913e-14
2.60161e-14
2.58913e-14
2.60159e-14
2.58914e-14
2.60156e-14
2.58915e-14
2.60155e-14
2.58915e-14
2.60153e-14
2.58916e-14
2.60149e-14
2.58917e-14
2.60147e-14
2.58918e-14
2.60147e-14
2.58918e-14
2.60145e-14
2.58919e-14
2.60144e-14
2.58918e-14
2.60144e-14
2.58918e-14
2.60143e-14
2.58919e-14
2.6014e-14
2.58921e-14
2.60137e-14
2.58921e-14
2.60135e-14
2.58921e-14
2.60133e-14
2.58922e-14
2.60132e-14
2.58923e-14
2.60131e-14
2.58923e-14
2.6013e-14
2.58923e-14
2.6013e-14
2.58923e-14
2.60129e-14
2.58923e-14
2.60128e-14
2.58923e-14
2.60127e-14
2.58923e-14
2.60126e-14
2.58923e-14
2.60125e-14
2.58923e-14
2.60124e-14
2.58923e-14
2.60123e-14
2.58923e-14
2.60122e-14
2.58924e-14
2.60122e-14
2.58924e-14
2.60121e-14
2.58924e-14
2.6012e-14
2.58923e-14
2.6012e-14
2.58924e-14
2.6012e-14
2.58923e-14
2.60119e-14
2.58923e-14
2.60119e-14
2.58924e-14
2.60118e-14
2.58924e-14
2.60118e-14
2.58924e-14
2.60118e-14
2.58924e-14
2.60118e-14
2.58924e-14
2.60118e-14
2.58924e-14
2.60118e-14
2.25869e-14
2.25781e-14
2.26197e-14
2.26465e-14
2.26761e-14
2.26947e-14
2.2731e-14
2.27191e-14
2.27404e-14
2.2738e-14
2.28061e-14
2.27802e-14
2.28283e-14
2.28429e-14
2.28266e-14
2.28829e-14
2.28483e-14
2.28815e-14
2.28652e-14
2.29116e-14
2.29255e-14
2.29174e-14
2.30432e-14
2.29465e-14
2.30438e-14
2.29897e-14
2.30816e-14
2.30547e-14
2.31019e-14
2.31189e-14
2.30716e-14
2.31605e-14
2.31203e-14
2.31323e-14
2.31473e-14
2.31357e-14
2.31821e-14
2.30833e-14
2.32055e-14
2.30813e-14
2.31631e-14
2.31599e-14
2.31596e-14
2.31568e-14
2.31637e-14
2.31596e-14
2.31128e-14
2.31971e-14
2.31479e-14
2.31856e-14
2.31849e-14
2.31796e-14
2.31952e-14
2.31754e-14
2.31165e-14
2.32015e-14
2.31557e-14
2.32664e-14
2.32178e-14
2.33103e-14
2.32757e-14
2.32995e-14
2.3273e-14
2.33568e-14
2.33004e-14
2.34229e-14
2.32237e-14
2.35007e-14
2.32912e-14
2.35351e-14
2.34083e-14
2.35714e-14
2.34509e-14
2.36027e-14
2.34539e-14
2.36439e-14
2.35497e-14
2.36802e-14
2.36083e-14
2.37075e-14
2.36303e-14
2.37578e-14
2.36139e-14
2.37634e-14
2.36948e-14
2.37588e-14
2.37739e-14
2.37917e-14
2.37673e-14
2.3861e-14
2.38091e-14
2.38492e-14
2.38496e-14
2.38579e-14
2.38387e-14
2.3921e-14
2.38974e-14
2.39893e-14
2.39718e-14
2.40813e-14
2.4007e-14
2.41083e-14
2.404e-14
2.40873e-14
2.40371e-14
2.41794e-14
2.40492e-14
2.42431e-14
2.40926e-14
2.42421e-14
2.41135e-14
2.42668e-14
2.41305e-14
2.42799e-14
2.41433e-14
2.43172e-14
2.41698e-14
2.43038e-14
2.41924e-14
2.43323e-14
2.41918e-14
2.44222e-14
2.42025e-14
2.45016e-14
2.42219e-14
2.4592e-14
2.4287e-14
2.46004e-14
2.4285e-14
2.46582e-14
2.431e-14
2.46701e-14
2.4324e-14
2.46348e-14
2.43476e-14
2.46474e-14
2.44007e-14
2.47465e-14
2.44636e-14
2.48356e-14
2.44969e-14
2.4876e-14
2.45401e-14
2.4867e-14
2.45947e-14
2.49056e-14
2.46816e-14
2.49318e-14
2.4743e-14
2.4964e-14
2.47801e-14
2.50015e-14
2.48331e-14
2.50639e-14
2.48618e-14
2.5091e-14
2.48965e-14
2.5083e-14
2.48978e-14
2.50997e-14
2.49359e-14
2.51206e-14
2.50013e-14
2.51756e-14
2.50231e-14
2.52136e-14
2.50523e-14
2.52246e-14
2.50789e-14
2.52387e-14
2.51035e-14
2.52656e-14
2.51157e-14
2.53157e-14
2.51253e-14
2.53279e-14
2.51429e-14
2.53019e-14
2.51691e-14
2.5278e-14
2.51838e-14
2.5276e-14
2.5208e-14
2.52958e-14
2.52211e-14
2.53162e-14
2.52333e-14
2.53166e-14
2.52447e-14
2.53281e-14
2.52763e-14
2.53509e-14
2.52757e-14
2.53743e-14
2.52741e-14
2.53986e-14
2.52817e-14
2.54242e-14
2.52982e-14
2.54617e-14
2.53129e-14
2.54799e-14
2.53364e-14
2.54893e-14
2.53478e-14
2.5479e-14
2.53578e-14
2.54699e-14
2.53879e-14
2.54934e-14
2.54063e-14
2.5539e-14
2.54237e-14
2.55751e-14
2.54397e-14
2.55807e-14
2.54653e-14
2.55875e-14
2.549e-14
2.56166e-14
2.55032e-14
2.56468e-14
2.55155e-14
2.56676e-14
2.55269e-14
2.56895e-14
2.55479e-14
2.56809e-14
2.55789e-14
2.5684e-14
2.55987e-14
2.57198e-14
2.56074e-14
2.57245e-14
2.56262e-14
2.57089e-14
2.56342e-14
2.57257e-14
2.56419e-14
2.57379e-14
2.56652e-14
2.57454e-14
2.56671e-14
2.57535e-14
2.56848e-14
2.57621e-14
2.56758e-14
2.57659e-14
2.56666e-14
2.57701e-14
2.5673e-14
2.57801e-14
2.56791e-14
2.58066e-14
2.56847e-14
2.58283e-14
2.56951e-14
2.58137e-14
2.56945e-14
2.57997e-14
2.56988e-14
2.58126e-14
2.56975e-14
2.58312e-14
2.57168e-14
2.58293e-14
2.57146e-14
2.58226e-14
2.57226e-14
2.5832e-14
2.57198e-14
2.58365e-14
2.57167e-14
2.58204e-14
2.57132e-14
2.58151e-14
2.57198e-14
2.58153e-14
2.57314e-14
2.58261e-14
2.57271e-14
2.58319e-14
2.57329e-14
2.58223e-14
2.57229e-14
2.58232e-14
2.5723e-14
2.58191e-14
2.57279e-14
2.58255e-14
2.57273e-14
2.5832e-14
2.57264e-14
2.58489e-14
2.57149e-14
2.58609e-14
2.57234e-14
2.58578e-14
2.57315e-14
2.58397e-14
2.57291e-14
2.58371e-14
2.57315e-14
2.58499e-14
2.57385e-14
2.58528e-14
2.57453e-14
2.58508e-14
2.57517e-14
2.5854e-14
2.57679e-14
2.58624e-14
2.57738e-14
2.58659e-14
2.5777e-14
2.58646e-14
2.57776e-14
2.58559e-14
2.57854e-14
2.58598e-14
2.57954e-14
2.58637e-14
2.58029e-14
2.58603e-14
2.58103e-14
2.58545e-14
2.58175e-14
2.58463e-14
2.58295e-14
2.58503e-14
2.58318e-14
2.58518e-14
2.58389e-14
2.58461e-14
2.58388e-14
2.58427e-14
2.58459e-14
2.58369e-14
2.58577e-14
2.58311e-14
2.58601e-14
2.58251e-14
2.58578e-14
2.58191e-14
2.58579e-14
2.58154e-14
2.58604e-14
2.58162e-14
2.58583e-14
2.58239e-14
2.5861e-14
2.58222e-14
2.58636e-14
2.58158e-14
2.58686e-14
2.58116e-14
2.58758e-14
2.58119e-14
2.58741e-14
2.58166e-14
2.58702e-14
2.58166e-14
2.58708e-14
2.58121e-14
2.58737e-14
2.58097e-14
2.58766e-14
2.58138e-14
2.58795e-14
2.58134e-14
2.58803e-14
2.5813e-14
2.58855e-14
2.58124e-14
2.58906e-14
2.58138e-14
2.58916e-14
2.58151e-14
2.58946e-14
2.58121e-14
2.58998e-14
2.58069e-14
2.59093e-14
2.58078e-14
2.59104e-14
2.5817e-14
2.59126e-14
2.58249e-14
2.59127e-14
2.58327e-14
2.5918e-14
2.58383e-14
2.59224e-14
2.58418e-14
2.59267e-14
2.58462e-14
2.593e-14
2.58534e-14
2.59334e-14
2.58595e-14
2.59358e-14
2.58625e-14
2.59383e-14
2.58693e-14
2.59398e-14
2.58751e-14
2.59423e-14
2.58797e-14
2.59457e-14
2.58834e-14
2.59473e-14
2.58888e-14
2.59508e-14
2.58941e-14
2.59552e-14
2.58966e-14
2.59568e-14
2.59017e-14
2.59612e-14
2.59059e-14
2.59638e-14
2.59117e-14
2.59663e-14
2.59148e-14
2.59698e-14
2.59161e-14
2.59741e-14
2.59156e-14
2.59785e-14
2.59176e-14
2.59811e-14
2.59195e-14
2.5982e-14
2.59214e-14
2.59846e-14
2.59225e-14
2.59864e-14
2.59226e-14
2.59883e-14
2.59235e-14
2.59901e-14
2.59252e-14
2.5992e-14
2.59276e-14
2.59946e-14
2.59276e-14
2.59988e-14
2.59276e-14
2.60007e-14
2.5929e-14
2.60026e-14
2.59305e-14
2.60052e-14
2.59318e-14
2.60083e-14
2.59331e-14
2.60117e-14
2.59348e-14
2.60154e-14
2.59371e-14
2.60181e-14
2.59397e-14
2.60204e-14
2.59405e-14
2.60223e-14
2.59409e-14
2.60247e-14
2.59423e-14
2.6027e-14
2.59441e-14
2.6029e-14
2.59457e-14
2.60309e-14
2.5947e-14
2.60329e-14
2.59469e-14
2.60346e-14
2.59478e-14
2.60359e-14
2.59503e-14
2.6037e-14
2.59524e-14
2.60384e-14
2.59532e-14
2.60394e-14
2.59546e-14
2.60405e-14
2.59563e-14
2.60413e-14
2.59576e-14
2.60418e-14
2.5958e-14
2.60429e-14
2.59587e-14
2.60435e-14
2.59602e-14
2.60437e-14
2.59612e-14
2.60443e-14
2.59618e-14
2.60451e-14
2.59624e-14
2.60462e-14
2.59631e-14
2.60472e-14
2.59634e-14
2.60481e-14
2.59639e-14
2.60484e-14
2.59653e-14
2.60487e-14
2.59659e-14
2.60493e-14
2.59662e-14
2.60499e-14
2.59661e-14
2.60504e-14
2.59663e-14
2.60501e-14
2.5967e-14
2.60497e-14
2.59676e-14
2.60494e-14
2.59678e-14
2.60488e-14
2.59682e-14
2.60484e-14
2.59691e-14