/*--------------------------------*- C++ -*----------------------------------*\
| =========                 |                                                 |
| \\      /  F ield         | OpenFOAM: The Open Source CFD Toolbox           |
|  \\    /   O peration     | Version:  2012                                  |
|   \\  /    A nd           | Website:  www.openfoam.com                      |
|    \\/     M anipulation  |                                                 |
\*---------------------------------------------------------------------------*/
FoamFile
{
    version     2.0;
    format      ascii;
    class       volScalarField;
    location    "11800";
    object      nut;
}
// * * * * * * * * * * * * * * * * * * * * * * * * * * * * * * * * * * * * * //

dimensions      [0 2 -1 0 0 0 0];


internalField   nonuniform List<scalar> 
2560
(
1.10133e-09
1.10133e-09
1.35587e-07
1.35587e-07
2.86084e-06
2.86084e-06
2.17327e-05
2.17327e-05
8.8121e-05
8.8121e-05
0.00022602
0.00022602
0.000428941
0.000428941
0.000679014
0.000679014
0.000962035
0.000962035
0.00126867
0.00126867
0.0015928
0.0015928
0.00193021
0.00193021
0.00227785
0.00227785
0.00263347
0.00263347
0.00299528
0.00299528
0.00336186
0.00336186
0.00373204
0.00373204
0.00410484
0.00410484
0.00447941
0.00447941
0.00485501
0.00485501
0.005231
0.005231
0.00560676
0.00560676
0.00598177
0.00598177
0.00635553
0.00635553
0.00672756
0.00672756
0.00709742
0.00709742
0.00746469
0.00746469
0.00782896
0.00782896
0.00818983
0.00818983
0.00854693
0.00854693
0.00889987
0.00889987
0.0092483
0.0092483
0.00959184
0.00959184
0.00993015
0.00993015
0.0102629
0.0102629
0.0105897
0.0105897
0.0109103
0.0109103
0.0112243
0.0112243
0.0115314
0.0115314
0.0118314
0.0118314
0.012124
0.012124
0.0124089
0.0124089
0.012686
0.012686
0.0129551
0.0129551
0.0132159
0.0132159
0.0134685
0.0134685
0.0137128
0.0137128
0.0139487
0.0139487
0.0141765
0.0141765
0.0143962
0.0143962
0.0146081
0.0146081
0.0148125
0.0148125
0.0150099
0.0150099
0.0152008
0.0152008
0.0153859
0.0153859
0.015566
0.015566
0.0157421
0.0157421
0.0159153
0.0159153
0.0160868
0.0160868
0.0162581
0.0162581
0.0164307
0.0164307
0.0166062
0.0166062
0.0167865
0.0167865
0.0169735
0.0169735
0.0171692
0.0171692
0.0173755
0.0173755
0.0175945
0.0175945
0.017828
0.017828
0.0180778
0.0180778
0.0183453
0.0183453
0.018632
0.018632
0.0189386
0.0189386
0.019266
0.019266
0.0196141
0.0196141
0.0199827
0.0199827
0.0203713
0.0203713
0.0207787
0.0207787
0.0212035
0.0212035
0.0216441
0.0216441
0.0220984
0.0220984
0.0225643
0.0225643
0.0230396
0.0230396
0.0235219
0.0235219
0.0240089
0.0240089
0.0244982
0.0244982
0.0249878
0.0249878
0.0254756
0.0254756
0.0259597
0.0259597
0.0264383
0.0264383
0.0269099
0.0269099
0.0273733
0.0273733
0.0278271
0.0278271
0.0282704
0.0282704
0.0287024
0.0287024
0.0291225
0.0291225
0.0295301
0.0295301
0.0299249
0.0299249
0.0303066
0.0303066
0.0306751
0.0306751
0.0310302
0.0310302
0.0313721
0.0313721
0.0317008
0.0317008
0.0320164
0.0320164
0.0323193
0.0323193
0.0326095
0.0326095
0.0328874
0.0328874
0.0331533
0.0331533
0.0334075
0.0334075
0.0336503
0.0336503
0.0338819
0.0338819
0.0341029
0.0341029
0.0343134
0.0343134
0.0345138
0.0345138
0.0347045
0.0347045
0.0348857
0.0348857
0.0350578
0.0350578
0.035221
0.035221
0.0353757
0.0353757
0.0355221
0.0355221
0.0356604
0.0356604
0.035791
0.035791
0.0359141
0.0359141
0.0360298
0.0360298
0.0361385
0.0361385
0.0362402
0.0362402
0.0363353
0.0363353
0.0364237
0.0364237
0.0365058
0.0365058
0.0365816
0.0365816
0.0366513
0.0366513
0.0367151
0.0367151
0.0367729
0.0367729
0.036825
0.036825
0.0368715
0.0368715
0.0369124
0.0369124
0.0369478
0.0369478
0.0369779
0.0369779
0.0370027
0.0370027
0.0370223
0.0370223
0.0370368
0.0370368
0.0370462
0.0370462
0.0370506
0.0370506
0.0370502
0.0370502
0.0370449
0.0370449
0.0370349
0.0370349
0.0370201
0.0370201
0.0370008
0.0370008
0.036977
0.036977
0.0369488
0.0369488
0.0369162
0.0369162
0.0368795
0.0368795
0.0368387
0.0368387
0.036794
0.036794
0.0367455
0.0367455
0.0366934
0.0366934
0.0366378
0.0366378
0.0365791
0.0365791
0.0365173
0.0365173
0.0364526
0.0364526
0.0363854
0.0363854
0.0363159
0.0363159
0.0362442
0.0362442
0.0361706
0.0361706
0.0360953
0.0360953
0.0360184
0.0360184
0.0359402
0.0359402
0.0358607
0.0358607
0.03578
0.03578
0.0356982
0.0356982
0.0356153
0.0356153
0.0355313
0.0355313
0.0354464
0.0354464
0.0353605
0.0353605
0.0352737
0.0352737
0.0351862
0.0351862
0.0350979
0.0350979
0.0350091
0.0350091
0.03492
0.03492
0.0348307
0.0348307
0.0347416
0.0347416
0.0346528
0.0346528
0.0345647
0.0345647
0.0344776
0.0344776
0.0343916
0.0343916
0.034307
0.034307
0.0342242
0.0342242
0.0341434
0.0341434
0.0340649
0.0340649
0.0339889
0.0339889
0.0339158
0.0339158
0.0338458
0.0338458
0.0337794
0.0337794
0.033717
0.0337171
0.0336592
0.0336592
0.0336064
0.0336064
0.0335592
0.0335592
0.0335184
0.0335184
0.0334845
0.0334845
0.0334584
0.0334584
0.0334408
0.0334408
0.0334325
0.0334325
0.0334343
0.0334343
0.0334468
0.0334468
0.0334708
0.0334708
0.0335068
0.0335068
0.0335555
0.0335555
0.0336172
0.0336172
0.0336923
0.0336923
0.033781
0.033781
0.0338836
0.0338836
0.0340003
0.0340003
0.0341311
0.0341311
0.0342764
0.0342764
0.034436
0.034436
0.0346098
0.0346098
0.0347975
0.0347975
0.0349985
0.0349985
0.0352121
0.0352121
0.0354373
0.0354373
0.0356728
0.0356728
0.0359172
0.0359172
0.0361689
0.0361689
0.0364265
0.0364265
0.0366888
0.0366888
0.0369549
0.0369549
0.0372245
0.0372245
0.0374972
0.0374972
0.0377729
0.0377729
0.0380511
0.0380511
0.038331
0.038331
0.0386114
0.0386114
0.0388908
0.0388908
0.0391679
0.0391679
0.0394416
0.0394416
0.0397112
0.0397112
0.0399762
0.0399762
0.0402364
0.0402364
0.0404921
0.0404921
0.0407443
0.0407443
0.0409943
0.0409943
0.041244
0.041244
0.0414951
0.0414951
0.0417487
0.0417487
0.0420052
0.0420052
0.0422637
0.0422637
0.0425222
0.0425222
0.0427776
0.0427776
0.0430255
0.0430255
0.0432605
0.0432605
0.0434773
0.0434773
0.0436726
0.0436726
0.0438457
0.0438457
0.0439989
0.0439989
0.0441372
0.0441372
0.0442674
0.0442674
0.0443967
0.0443967
0.0445306
0.0445306
0.0446724
0.0446724
0.0448229
0.0448229
0.044982
0.044982
0.0451507
0.0451507
0.0453322
0.0453322
0.0455317
0.0455317
0.0457551
0.0457551
0.0460078
0.0460078
0.0462938
0.0462938
0.046615
0.046615
0.0469724
0.0469724
0.0473668
0.0473668
0.0477991
0.0477991
0.0482704
0.0482704
0.048782
0.048782
0.0493352
0.0493351
0.0499301
0.0499301
0.0505644
0.0505644
0.0512335
0.0512335
0.0519298
0.0519298
0.0526431
0.0526431
0.0533606
0.0533606
0.0540686
0.0540686
0.0547549
0.0547549
0.055408
0.055408
0.0560141
0.0560141
0.0565559
0.0565559
0.0570147
0.0570147
0.057377
0.057377
0.0576487
0.0576487
0.0578418
0.0578417
0.0579668
0.0579667
0.0580371
0.058037
0.0580842
0.0580842
0.0581384
0.0581384
0.0582183
0.0582183
0.0583265
0.0583265
0.0584637
0.0584637
0.058632
0.058632
0.058833
0.058833
0.0590668
0.0590668
0.0593346
0.0593346
0.059639
0.059639
0.0599808
0.0599807
0.0603559
0.0603559
0.0607557
0.0607558
0.0611687
0.0611688
0.0615796
0.0615797
0.0619629
0.061963
0.0622906
0.0622907
0.0625409
0.0625409
0.0626944
0.0626943
0.062741
0.062741
0.0627097
0.0627098
0.0626275
0.0626276
0.0625114
0.0625115
0.0623763
0.0623765
0.0622408
0.0622409
0.0621199
0.06212
0.0620199
0.06202
0.0619399
0.0619402
0.0618793
0.0618796
0.0618446
0.0618448
1.10133e-09
1.10133e-09
1.35587e-07
1.35587e-07
2.86084e-06
2.86084e-06
2.17327e-05
2.17327e-05
8.8121e-05
8.8121e-05
0.00022602
0.00022602
0.000428941
0.000428941
0.000679014
0.000679014
0.000962035
0.000962035
0.00126868
0.00126868
0.0015928
0.0015928
0.00193021
0.00193021
0.00227785
0.00227785
0.00263347
0.00263347
0.00299528
0.00299528
0.00336186
0.00336186
0.00373204
0.00373204
0.00410484
0.00410484
0.00447941
0.00447941
0.00485501
0.00485501
0.005231
0.005231
0.00560676
0.00560676
0.00598177
0.00598177
0.00635553
0.00635553
0.00672756
0.00672756
0.00709742
0.00709742
0.00746469
0.00746469
0.00782896
0.00782896
0.00818983
0.00818983
0.00854693
0.00854693
0.00889987
0.00889987
0.0092483
0.0092483
0.00959184
0.00959184
0.00993015
0.00993015
0.0102629
0.0102629
0.0105897
0.0105897
0.0109103
0.0109103
0.0112243
0.0112243
0.0115314
0.0115314
0.0118314
0.0118314
0.012124
0.012124
0.0124089
0.0124089
0.012686
0.012686
0.0129551
0.0129551
0.0132159
0.0132159
0.0134685
0.0134685
0.0137128
0.0137128
0.0139487
0.0139487
0.0141765
0.0141765
0.0143962
0.0143962
0.0146081
0.0146081
0.0148125
0.0148125
0.0150099
0.0150099
0.0152008
0.0152008
0.0153859
0.0153859
0.015566
0.015566
0.0157421
0.0157421
0.0159153
0.0159153
0.0160868
0.0160868
0.0162581
0.0162581
0.0164307
0.0164307
0.0166062
0.0166062
0.0167865
0.0167865
0.0169735
0.0169735
0.0171692
0.0171692
0.0173755
0.0173755
0.0175945
0.0175945
0.017828
0.017828
0.0180778
0.0180778
0.0183453
0.0183453
0.018632
0.018632
0.0189386
0.0189386
0.0192659
0.0192659
0.0196141
0.0196141
0.0199827
0.0199827
0.0203713
0.0203713
0.0207787
0.0207787
0.0212035
0.0212035
0.0216441
0.0216441
0.0220984
0.0220984
0.0225643
0.0225643
0.0230396
0.0230396
0.0235219
0.0235219
0.0240088
0.0240088
0.0244982
0.0244982
0.0249878
0.0249878
0.0254756
0.0254756
0.0259597
0.0259597
0.0264383
0.0264383
0.0269099
0.0269099
0.0273732
0.0273732
0.0278271
0.0278271
0.0282704
0.0282704
0.0287024
0.0287024
0.0291225
0.0291225
0.0295301
0.0295301
0.0299249
0.0299249
0.0303066
0.0303066
0.0306751
0.0306751
0.0310302
0.0310302
0.0313721
0.0313721
0.0317008
0.0317008
0.0320164
0.0320164
0.0323193
0.0323193
0.0326095
0.0326095
0.0328874
0.0328874
0.0331533
0.0331533
0.0334075
0.0334075
0.0336502
0.0336502
0.0338819
0.0338819
0.0341029
0.0341029
0.0343134
0.0343134
0.0345138
0.0345138
0.0347045
0.0347045
0.0348857
0.0348857
0.0350578
0.0350578
0.035221
0.035221
0.0353757
0.0353757
0.035522
0.035522
0.0356604
0.0356604
0.035791
0.035791
0.0359141
0.0359141
0.0360298
0.0360298
0.0361385
0.0361385
0.0362402
0.0362402
0.0363352
0.0363352
0.0364237
0.0364237
0.0365058
0.0365058
0.0365816
0.0365816
0.0366513
0.0366513
0.036715
0.036715
0.0367729
0.0367729
0.036825
0.036825
0.0368715
0.0368715
0.0369124
0.0369124
0.0369478
0.0369478
0.0369779
0.0369779
0.0370027
0.0370027
0.0370223
0.0370223
0.0370367
0.0370367
0.0370462
0.0370462
0.0370506
0.0370506
0.0370502
0.0370502
0.0370449
0.0370449
0.0370348
0.0370348
0.0370201
0.0370201
0.0370008
0.0370008
0.036977
0.036977
0.0369488
0.0369488
0.0369162
0.0369162
0.0368795
0.0368795
0.0368387
0.0368387
0.036794
0.036794
0.0367455
0.0367455
0.0366934
0.0366934
0.0366378
0.0366378
0.0365791
0.0365791
0.0365172
0.0365172
0.0364526
0.0364526
0.0363854
0.0363854
0.0363159
0.0363159
0.0362442
0.0362442
0.0361706
0.0361706
0.0360953
0.0360953
0.0360184
0.0360184
0.0359402
0.0359402
0.0358607
0.0358607
0.03578
0.03578
0.0356981
0.0356981
0.0356153
0.0356153
0.0355313
0.0355313
0.0354464
0.0354464
0.0353605
0.0353605
0.0352737
0.0352737
0.0351861
0.0351861
0.0350979
0.0350979
0.0350091
0.0350091
0.03492
0.03492
0.0348307
0.0348307
0.0347416
0.0347416
0.0346528
0.0346528
0.0345647
0.0345647
0.0344775
0.0344775
0.0343915
0.0343915
0.034307
0.034307
0.0342242
0.0342242
0.0341434
0.0341434
0.0340649
0.0340649
0.0339889
0.0339889
0.0339157
0.0339157
0.0338458
0.0338458
0.0337794
0.0337794
0.033717
0.033717
0.0336591
0.0336591
0.0336063
0.0336063
0.0335592
0.0335592
0.0335183
0.0335183
0.0334845
0.0334845
0.0334584
0.0334584
0.0334408
0.0334408
0.0334324
0.0334324
0.0334342
0.0334342
0.0334467
0.0334467
0.0334707
0.0334707
0.0335067
0.0335067
0.0335554
0.0335554
0.0336171
0.0336171
0.0336922
0.0336922
0.0337809
0.0337809
0.0338834
0.0338834
0.0340001
0.0340001
0.0341309
0.0341309
0.0342762
0.0342762
0.0344358
0.0344357
0.0346095
0.0346095
0.0347972
0.0347972
0.0349982
0.0349982
0.0352118
0.0352118
0.035437
0.035437
0.0356725
0.0356725
0.0359169
0.0359169
0.0361686
0.0361686
0.0364262
0.0364262
0.0366884
0.0366884
0.0369546
0.0369546
0.0372241
0.0372241
0.0374968
0.0374968
0.0377725
0.0377725
0.0380507
0.0380507
0.0383307
0.0383307
0.038611
0.038611
0.0388904
0.0388904
0.0391675
0.0391675
0.0394412
0.0394412
0.0397108
0.0397108
0.0399758
0.0399758
0.040236
0.040236
0.0404918
0.0404918
0.0407439
0.0407439
0.040994
0.040994
0.0412437
0.0412437
0.0414948
0.0414948
0.0417484
0.0417484
0.0420049
0.0420049
0.0422634
0.0422634
0.042522
0.042522
0.0427774
0.0427774
0.0430253
0.0430253
0.0432603
0.0432603
0.0434772
0.0434772
0.0436726
0.0436726
0.0438457
0.0438457
0.043999
0.0439989
0.0441373
0.0441373
0.0442676
0.0442676
0.0443969
0.0443969
0.0445308
0.0445308
0.0446726
0.0446726
0.0448232
0.0448231
0.0449823
0.0449823
0.045151
0.045151
0.0453324
0.0453324
0.0455319
0.0455319
0.0457553
0.0457552
0.0460079
0.0460079
0.0462938
0.0462937
0.0466149
0.0466148
0.0469722
0.0469721
0.0473665
0.0473665
0.0477987
0.0477986
0.0482698
0.0482697
0.0487813
0.0487812
0.0493342
0.0493342
0.0499289
0.0499288
0.050563
0.0505629
0.0512318
0.0512317
0.051928
0.0519278
0.0526411
0.0526409
0.0533585
0.0533582
0.0540665
0.0540662
0.0547529
0.0547525
0.0554062
0.0554056
0.0560127
0.056012
0.0565549
0.056554
0.0570142
0.0570132
0.057377
0.0573761
0.0576491
0.0576486
0.0578424
0.0578423
0.0579676
0.057968
0.0580379
0.0580384
0.0580851
0.0580855
0.0581391
0.0581394
0.0582188
0.058219
0.0583268
0.0583269
0.0584638
0.0584638
0.058632
0.058632
0.0588328
0.0588328
0.0590664
0.0590664
0.059334
0.0593338
0.059638
0.0596377
0.0599793
0.059979
0.0603541
0.0603536
0.0607535
0.0607528
0.0611662
0.0611653
0.0615771
0.061576
0.0619603
0.0619596
0.0622879
0.0622881
0.0625385
0.0625395
0.0626928
0.0626941
0.0627405
0.0627415
0.0627101
0.0627109
0.0626285
0.0626291
0.0625127
0.0625131
0.0623777
0.062378
0.062242
0.0622422
0.0621209
0.062121
0.0620207
0.0620208
0.0619406
0.0619407
0.0618799
0.0618799
0.061845
0.061845
0.0618445
0.0618447
0.0618791
0.0618793
0.0619394
0.0619397
0.0620182
0.0620184
0.0621169
0.0621171
0.0622365
0.0622366
0.06237
0.0623702
0.0625033
0.0625034
0.0626163
0.0626164
0.0626922
0.0626922
0.0627166
0.0627166
0.0626649
0.0626649
0.062508
0.0625079
0.0622565
0.0622566
0.0619309
0.061931
0.0615522
0.0615523
0.061146
0.061146
0.0607374
0.0607374
0.0603416
0.0603416
0.0599703
0.0599703
0.0596327
0.0596327
0.0593324
0.0593324
0.0590685
0.0590685
0.0588385
0.0588385
0.0586412
0.0586413
0.0584766
0.0584766
0.058343
0.058343
0.0582382
0.0582382
0.0581616
0.0581616
0.0581103
0.0581102
0.0580662
0.0580661
0.0579986
0.0579985
0.0578746
0.0578746
0.057681
0.0576809
0.0574067
0.0574067
0.05704
0.05704
0.0565772
0.0565772
0.0560327
0.0560327
0.0554247
0.0554247
0.0547706
0.0547706
0.0540833
0.0540833
0.0533744
0.0533743
0.052656
0.052656
0.0519416
0.0519415
0.0512441
0.0512441
0.0505741
0.050574
0.0499387
0.0499387
0.0493429
0.0493429
0.048789
0.048789
0.0482765
0.0482765
0.0478045
0.0478045
0.0473713
0.0473713
0.0469761
0.0469761
0.0466179
0.0466179
0.0462959
0.0462959
0.0460092
0.0460092
0.0457557
0.0457557
0.0455316
0.0455316
0.0453315
0.0453315
0.0451497
0.0451497
0.0449809
0.0449809
0.0448214
0.0448214
0.0446703
0.0446703
0.0445278
0.0445278
0.0443929
0.0443929
0.0442626
0.0442626
0.0441316
0.0441316
0.0439929
0.0439929
0.0438393
0.0438393
0.0436656
0.0436656
0.0434693
0.0434693
0.0432518
0.0432518
0.0430167
0.0430167
0.0427691
0.0427691
0.0425144
0.0425144
0.042257
0.042257
0.0419998
0.0419998
0.0417445
0.0417445
0.0414915
0.0414915
0.0412407
0.0412407
0.0409908
0.0409908
0.0407405
0.0407405
0.040488
0.040488
0.040232
0.040232
0.0399716
0.0399716
0.0397064
0.0397064
0.0394368
0.0394368
0.0391632
0.0391632
0.0388862
0.0388862
0.038607
0.038607
0.038327
0.038327
0.0380476
0.0380476
0.03777
0.03777
0.0374951
0.0374951
0.0372232
0.0372232
0.0369544
0.0369544
0.0366887
0.0366887
0.0364267
0.0364267
0.0361694
0.0361694
0.0359179
0.0359179
0.0356737
0.0356737
0.0354384
0.0354384
0.0352134
0.0352134
0.0349999
0.0349999
0.0347989
0.0347989
0.034611
0.034611
0.034437
0.034437
0.0342773
0.0342773
0.0341318
0.0341318
0.0340008
0.0340008
0.033884
0.033884
0.0337814
0.0337814
0.0336927
0.0336927
0.0336177
0.0336177
0.0335561
0.0335561
0.0335075
0.0335075
0.0334715
0.0334715
0.0334476
0.0334476
0.0334352
0.0334352
0.0334335
0.0334335
0.0334419
0.0334419
0.0334595
0.0334595
0.0334856
0.0334856
0.0335194
0.0335194
0.0335603
0.0335603
0.0336075
0.0336075
0.0336603
0.0336603
0.0337182
0.0337182
0.0337806
0.0337806
0.033847
0.033847
0.033917
0.033917
0.0339902
0.0339902
0.0340662
0.0340662
0.0341447
0.0341447
0.0342255
0.0342255
0.0343083
0.0343083
0.0343928
0.0343928
0.0344787
0.0344787
0.0345659
0.0345659
0.034654
0.034654
0.0347428
0.0347428
0.0348319
0.0348319
0.0349212
0.0349212
0.0350104
0.0350104
0.0350992
0.0350992
0.0351875
0.0351875
0.0352751
0.0352751
0.0353619
0.0353619
0.0354477
0.0354477
0.0355327
0.0355327
0.0356167
0.0356167
0.0356996
0.0356996
0.0357815
0.0357815
0.0358622
0.0358622
0.0359417
0.0359417
0.03602
0.03602
0.0360969
0.0360969
0.0361722
0.0361722
0.0362458
0.0362458
0.0363175
0.0363175
0.0363871
0.0363871
0.0364543
0.0364543
0.0365189
0.0365189
0.0365807
0.0365807
0.0366395
0.0366395
0.0366951
0.0366951
0.0367472
0.0367472
0.0367957
0.0367957
0.0368405
0.0368405
0.0368813
0.0368813
0.036918
0.036918
0.0369506
0.0369506
0.0369789
0.0369789
0.0370027
0.0370027
0.0370221
0.0370221
0.0370368
0.0370368
0.0370469
0.0370469
0.0370523
0.0370523
0.0370528
0.0370528
0.0370484
0.0370484
0.037039
0.037039
0.0370247
0.0370247
0.0370051
0.0370051
0.0369804
0.0369804
0.0369504
0.0369504
0.036915
0.036915
0.0368741
0.0368741
0.0368277
0.0368277
0.0367757
0.0367757
0.0367178
0.0367178
0.0366542
0.0366542
0.0365845
0.0365845
0.0365088
0.0365088
0.0364267
0.0364267
0.0363383
0.0363383
0.0362433
0.0362433
0.0361415
0.0361415
0.0360329
0.0360329
0.0359171
0.0359171
0.035794
0.035794
0.0356634
0.0356634
0.0355249
0.0355249
0.0353785
0.0353785
0.0352237
0.0352237
0.0350603
0.0350603
0.0348881
0.0348881
0.0347068
0.0347068
0.0345161
0.0345161
0.0343157
0.0343157
0.0341051
0.0341051
0.0338842
0.0338842
0.0336525
0.0336525
0.0334098
0.0334098
0.0331556
0.0331556
0.0328898
0.0328898
0.0326119
0.0326119
0.0323216
0.0323216
0.0320187
0.0320187
0.0317031
0.0317031
0.0313744
0.0313744
0.0310325
0.0310325
0.0306775
0.0306775
0.0303091
0.0303091
0.0299275
0.0299275
0.0295328
0.0295328
0.0291252
0.0291252
0.0287051
0.0287051
0.028273
0.028273
0.0278294
0.0278294
0.0273752
0.0273752
0.0269115
0.0269115
0.0264395
0.0264395
0.0259607
0.0259607
0.0254766
0.0254766
0.0249886
0.0249886
0.0244989
0.0244989
0.0240093
0.0240093
0.0235221
0.0235221
0.0230395
0.0230395
0.022564
0.022564
0.0220978
0.0220978
0.0216432
0.0216432
0.0212024
0.0212024
0.0207774
0.0207774
0.0203698
0.0203698
0.0199811
0.0199811
0.0196123
0.0196123
0.019264
0.019264
0.0189365
0.0189365
0.0186297
0.0186297
0.0183429
0.0183429
0.0180753
0.0180753
0.0178254
0.0178254
0.0175918
0.0175918
0.0173727
0.0173727
0.0171663
0.0171663
0.0169706
0.0169706
0.0167836
0.0167836
0.0166032
0.0166032
0.0164276
0.0164276
0.016255
0.016255
0.0160837
0.0160837
0.0159122
0.0159122
0.015739
0.015739
0.015563
0.015563
0.0153829
0.0153829
0.0151979
0.0151979
0.0150071
0.0150071
0.0148099
0.0148099
0.0146056
0.0146056
0.0143938
0.0143938
0.0141742
0.0141742
0.0139466
0.0139466
0.0137108
0.0137108
0.0134666
0.0134666
0.0132142
0.0132142
0.0129535
0.0129535
0.0126845
0.0126845
0.0124076
0.0124076
0.0121228
0.0121228
0.0118303
0.0118303
0.0115304
0.0115304
0.0112233
0.0112233
0.0109094
0.0109094
0.0105889
0.0105889
0.0102621
0.0102621
0.00992944
0.00992944
0.00959119
0.00959119
0.00924769
0.00924769
0.0088993
0.0088993
0.0085464
0.0085464
0.00818935
0.00818935
0.00782853
0.00782853
0.00746432
0.00746432
0.0070971
0.0070971
0.00672729
0.00672729
0.0063553
0.0063553
0.00598158
0.00598158
0.0056066
0.0056066
0.00523085
0.00523085
0.00485489
0.00485489
0.00447931
0.00447931
0.00410476
0.00410476
0.00373197
0.00373197
0.00336181
0.00336181
0.00299524
0.00299524
0.00263344
0.00263344
0.00227784
0.00227784
0.0019302
0.0019302
0.0015928
0.0015928
0.00126868
0.00126868
0.000962043
0.000962043
0.000679024
0.000679024
0.00042895
0.00042895
0.000226026
0.000226026
8.81241e-05
8.81241e-05
2.17336e-05
2.17336e-05
2.86095e-06
2.86095e-06
1.35592e-07
1.35592e-07
1.10139e-09
1.10139e-09
0.0618449
0.0618449
0.0618796
0.0618796
0.0619401
0.0619402
0.062019
0.0620191
0.062118
0.0621181
0.0622377
0.0622379
0.0623714
0.0623717
0.0625045
0.0625049
0.0626172
0.0626178
0.0626925
0.0626933
0.0627161
0.0627171
0.0626634
0.0626646
0.0625056
0.0625066
0.0622539
0.062254
0.0619283
0.0619276
0.0615496
0.0615485
0.0611436
0.0611426
0.0607352
0.0607345
0.0603398
0.0603393
0.0599689
0.0599686
0.0596317
0.0596315
0.0593318
0.0593316
0.0590681
0.059068
0.0588383
0.0588382
0.0586412
0.0586412
0.0584768
0.0584768
0.0583433
0.0583434
0.0582388
0.0582389
0.0581623
0.0581626
0.0581111
0.0581115
0.058067
0.0580675
0.0579994
0.0579997
0.0578752
0.0578752
0.0576814
0.0576808
0.0574067
0.0574058
0.0570395
0.0570386
0.0565762
0.0565754
0.0560312
0.0560305
0.0554229
0.0554224
0.0547686
0.0547681
0.0540812
0.0540809
0.0533723
0.053372
0.052654
0.0526537
0.0519397
0.0519395
0.0512425
0.0512424
0.0505727
0.0505726
0.0499376
0.0499375
0.049342
0.0493419
0.0487883
0.0487882
0.048276
0.0482759
0.047804
0.047804
0.047371
0.047371
0.0469759
0.0469758
0.0466178
0.0466177
0.0462959
0.0462959
0.0460092
0.0460092
0.0457559
0.0457558
0.0455318
0.0455318
0.0453317
0.0453317
0.0451499
0.0451499
0.0449811
0.0449811
0.0448216
0.0448216
0.0446706
0.0446705
0.044528
0.044528
0.0443931
0.0443931
0.0442627
0.0442627
0.0441317
0.0441317
0.043993
0.043993
0.0438394
0.0438393
0.0436655
0.0436655
0.0434692
0.0434692
0.0432516
0.0432516
0.0430165
0.0430165
0.0427689
0.0427688
0.0425141
0.0425141
0.0422567
0.0422567
0.0419995
0.0419995
0.0417442
0.0417441
0.0414912
0.0414912
0.0412404
0.0412404
0.0409905
0.0409905
0.0407402
0.0407402
0.0404877
0.0404876
0.0402316
0.0402316
0.0399712
0.0399712
0.039706
0.039706
0.0394364
0.0394364
0.0391628
0.0391628
0.0388858
0.0388858
0.0386066
0.0386066
0.0383266
0.0383266
0.0380472
0.0380472
0.0377696
0.0377696
0.0374948
0.0374948
0.0372229
0.0372229
0.036954
0.036954
0.0366883
0.0366883
0.0364264
0.0364264
0.0361691
0.0361691
0.0359176
0.0359176
0.0356734
0.0356734
0.0354382
0.0354382
0.0352132
0.0352132
0.0349997
0.0349997
0.0347986
0.0347986
0.0346108
0.0346108
0.0344368
0.0344368
0.0342771
0.034277
0.0341316
0.0341316
0.0340006
0.0340006
0.0338839
0.0338839
0.0337813
0.0337813
0.0336926
0.0336926
0.0336176
0.0336176
0.0335559
0.0335559
0.0335073
0.0335073
0.0334714
0.0334714
0.0334475
0.0334475
0.0334351
0.0334351
0.0334334
0.0334334
0.0334418
0.0334418
0.0334594
0.0334594
0.0334855
0.0334855
0.0335194
0.0335194
0.0335603
0.0335603
0.0336075
0.0336075
0.0336603
0.0336603
0.0337182
0.0337182
0.0337806
0.0337806
0.033847
0.033847
0.033917
0.033917
0.0339902
0.0339902
0.0340662
0.0340662
0.0341447
0.0341447
0.0342254
0.0342254
0.0343082
0.0343082
0.0343927
0.0343927
0.0344787
0.0344787
0.0345659
0.0345659
0.034654
0.034654
0.0347428
0.0347428
0.0348319
0.0348319
0.0349212
0.0349212
0.0350103
0.0350103
0.0350992
0.0350992
0.0351875
0.0351875
0.0352751
0.0352751
0.0353618
0.0353618
0.0354477
0.0354477
0.0355327
0.0355327
0.0356166
0.0356166
0.0356996
0.0356996
0.0357814
0.0357814
0.0358622
0.0358622
0.0359417
0.0359417
0.03602
0.03602
0.0360969
0.0360969
0.0361722
0.0361722
0.0362458
0.0362458
0.0363175
0.0363175
0.0363871
0.0363871
0.0364543
0.0364543
0.0365189
0.0365189
0.0365807
0.0365807
0.0366395
0.0366395
0.0366951
0.0366951
0.0367472
0.0367472
0.0367957
0.0367957
0.0368405
0.0368405
0.0368813
0.0368813
0.036918
0.036918
0.0369506
0.0369506
0.0369788
0.0369788
0.0370027
0.0370027
0.037022
0.037022
0.0370368
0.0370368
0.0370469
0.0370469
0.0370522
0.0370522
0.0370528
0.0370528
0.0370484
0.0370484
0.037039
0.037039
0.0370246
0.0370246
0.0370051
0.0370051
0.0369804
0.0369804
0.0369504
0.0369504
0.036915
0.036915
0.0368741
0.0368741
0.0368277
0.0368277
0.0367757
0.0367757
0.0367178
0.0367178
0.0366541
0.0366541
0.0365845
0.0365845
0.0365088
0.0365088
0.0364267
0.0364267
0.0363383
0.0363383
0.0362433
0.0362433
0.0361415
0.0361415
0.0360329
0.0360329
0.0359171
0.0359171
0.035794
0.035794
0.0356634
0.0356634
0.0355249
0.0355249
0.0353785
0.0353785
0.0352237
0.0352237
0.0350603
0.0350603
0.0348881
0.0348881
0.0347068
0.0347068
0.0345161
0.0345161
0.0343157
0.0343157
0.0341051
0.0341051
0.0338842
0.0338842
0.0336525
0.0336525
0.0334098
0.0334098
0.0331556
0.0331556
0.0328898
0.0328898
0.0326119
0.0326119
0.0323216
0.0323216
0.0320187
0.0320187
0.0317031
0.0317031
0.0313744
0.0313744
0.0310325
0.0310325
0.0306775
0.0306775
0.0303091
0.0303091
0.0299275
0.0299275
0.0295328
0.0295328
0.0291252
0.0291252
0.0287051
0.0287051
0.0282729
0.0282729
0.0278294
0.0278294
0.0273752
0.0273752
0.0269115
0.0269115
0.0264395
0.0264395
0.0259607
0.0259607
0.0254765
0.0254765
0.0249886
0.0249886
0.0244988
0.0244988
0.0240093
0.0240093
0.0235221
0.0235221
0.0230395
0.0230395
0.022564
0.022564
0.0220978
0.0220978
0.0216432
0.0216432
0.0212024
0.0212024
0.0207774
0.0207774
0.0203698
0.0203698
0.0199811
0.0199811
0.0196123
0.0196123
0.019264
0.019264
0.0189365
0.0189365
0.0186297
0.0186297
0.0183429
0.0183429
0.0180753
0.0180753
0.0178254
0.0178254
0.0175918
0.0175918
0.0173728
0.0173727
0.0171663
0.0171663
0.0169706
0.0169706
0.0167836
0.0167836
0.0166032
0.0166032
0.0164276
0.0164276
0.016255
0.016255
0.0160837
0.0160837
0.0159122
0.0159122
0.015739
0.015739
0.015563
0.015563
0.0153829
0.0153829
0.0151979
0.0151979
0.0150071
0.0150071
0.0148099
0.0148099
0.0146056
0.0146056
0.0143938
0.0143938
0.0141742
0.0141742
0.0139466
0.0139466
0.0137108
0.0137108
0.0134666
0.0134666
0.0132142
0.0132142
0.0129535
0.0129535
0.0126846
0.0126846
0.0124076
0.0124076
0.0121228
0.0121228
0.0118303
0.0118303
0.0115304
0.0115304
0.0112233
0.0112233
0.0109094
0.0109094
0.0105889
0.0105889
0.0102621
0.0102621
0.00992945
0.00992945
0.00959119
0.00959119
0.00924769
0.00924769
0.0088993
0.0088993
0.0085464
0.0085464
0.00818935
0.00818935
0.00782854
0.00782854
0.00746432
0.00746432
0.0070971
0.0070971
0.00672729
0.00672729
0.0063553
0.0063553
0.00598158
0.00598158
0.0056066
0.0056066
0.00523085
0.00523085
0.00485489
0.00485489
0.00447931
0.00447931
0.00410476
0.00410476
0.00373197
0.00373197
0.00336181
0.00336181
0.00299524
0.00299524
0.00263344
0.00263344
0.00227784
0.00227784
0.0019302
0.0019302
0.0015928
0.0015928
0.00126868
0.00126868
0.000962043
0.000962043
0.000679024
0.000679023
0.000428949
0.000428949
0.000226026
0.000226026
8.81241e-05
8.8124e-05
2.17336e-05
2.17336e-05
2.86095e-06
2.86095e-06
1.35592e-07
1.35592e-07
1.10139e-09
1.10139e-09
)
;

boundaryField
{
    walls
    {
        type            nutUWallFunction;
        blending        stepwise;
        Cmu             0.09;
        kappa           0.41;
        E               9.8;
        value           uniform 0;
    }
    inlet
    {
        type            cyclic;
    }
    outlet
    {
        type            cyclic;
    }
    sides
    {
        type            empty;
    }
}


// ************************************************************************* //
