/*--------------------------------*- C++ -*----------------------------------*\
| =========                 |                                                 |
| \\      /  F ield         | OpenFOAM: The Open Source CFD Toolbox           |
|  \\    /   O peration     | Version:  2012                                  |
|   \\  /    A nd           | Website:  www.openfoam.com                      |
|    \\/     M anipulation  |                                                 |
\*---------------------------------------------------------------------------*/
FoamFile
{
    version     2.0;
    format      ascii;
    class       volScalarField;
    location    "13100";
    object      k;
}
// * * * * * * * * * * * * * * * * * * * * * * * * * * * * * * * * * * * * * //

dimensions      [0 2 -2 0 0 0 0];


internalField   nonuniform List<scalar> 
2560
(
0.00370432
0.00370433
0.0847355
0.0847357
0.597668
0.597668
2.00269
2.00269
4.13311
4.13311
6.36445
6.36446
8.42791
8.42791
10.307
10.307
12.0359
12.0359
13.6475
13.6475
15.1662
15.1662
16.6094
16.6094
17.9898
17.9898
19.3166
19.3166
20.5966
20.5966
21.8348
21.8348
23.035
23.035
24.1999
24.1999
25.3315
25.3315
26.4312
26.4312
27.4999
27.4999
28.5379
28.5379
29.5455
29.5455
30.5222
30.5222
31.4677
31.4677
32.3812
32.3812
33.2618
33.2618
34.1083
34.1083
34.9195
34.9195
35.694
35.694
36.4302
36.4302
37.1265
37.1265
37.7812
37.7812
38.3927
38.3927
38.9591
38.9591
39.4789
39.4789
39.9502
39.9502
40.3715
40.3715
40.7414
40.7414
41.0584
41.0584
41.3214
41.3213
41.5293
41.5293
41.6816
41.6816
41.7776
41.7776
41.8173
41.8173
41.8008
41.8008
41.7287
41.7287
41.6019
41.6019
41.4217
41.4217
41.19
41.19
40.909
40.909
40.5814
40.5814
40.2104
40.2104
39.7995
39.7995
39.353
39.353
38.8752
38.8752
38.3711
38.3711
37.846
37.846
37.3054
37.3054
36.7553
36.7553
36.2016
36.2016
35.6506
35.6506
35.1085
35.1085
34.5813
34.5813
34.0751
34.0751
33.5956
33.5956
33.1481
33.1481
32.7374
32.7374
32.3678
32.3678
32.0429
32.0429
31.7654
31.7654
31.5374
31.5374
31.36
31.36
31.2334
31.2334
31.157
31.157
31.1292
31.1292
31.1475
31.1475
31.209
31.209
31.3099
31.3099
31.4459
31.4459
31.6123
31.6123
31.804
31.804
32.016
32.016
32.2428
32.2428
32.4792
32.4792
32.72
32.72
32.9601
32.9601
33.195
33.195
33.4201
33.4201
33.6315
33.6315
33.8255
33.8255
33.999
33.999
34.1491
34.1491
34.2737
34.2737
34.3707
34.3707
34.4388
34.4388
34.4769
34.4769
34.4842
34.4842
34.4605
34.4605
34.4057
34.4057
34.32
34.32
34.204
34.204
34.0584
34.0584
33.8839
33.8839
33.6818
33.6818
33.4532
33.4532
33.1992
33.1992
32.9214
32.9214
32.621
32.621
32.2996
32.2996
31.9585
31.9585
31.5993
31.5993
31.2233
31.2233
30.8319
30.8319
30.4266
30.4266
30.0087
30.0087
29.5795
29.5795
29.1402
29.1402
28.6921
28.6921
28.2362
28.2362
27.7738
27.7738
27.3057
27.3057
26.8329
26.8329
26.3564
26.3564
25.8771
25.8771
25.3956
25.3956
24.9128
24.9128
24.4294
24.4294
23.946
23.946
23.4632
23.4632
22.9816
22.9816
22.5016
22.5016
22.0238
22.0238
21.5487
21.5487
21.0765
21.0765
20.6078
20.6078
20.1429
20.1429
19.682
19.682
19.2256
19.2256
18.7739
18.7738
18.327
18.327
17.8854
17.8854
17.4491
17.4491
17.0184
17.0184
16.5935
16.5935
16.1744
16.1744
15.7615
15.7615
15.3548
15.3548
14.9545
14.9545
14.5606
14.5606
14.1733
14.1733
13.7927
13.7927
13.4189
13.4189
13.052
13.052
12.6921
12.6921
12.3392
12.3392
11.9934
11.9934
11.6548
11.6548
11.3234
11.3234
10.9993
10.9993
10.6825
10.6825
10.373
10.373
10.0707
10.0707
9.77577
9.77577
9.48804
9.48803
9.20746
9.20746
8.93397
8.93397
8.66746
8.66746
8.40782
8.40782
8.15494
8.15493
7.90867
7.90867
7.66891
7.66891
7.43553
7.43552
7.2084
7.20839
6.98743
6.98742
6.7725
6.7725
6.56354
6.56353
6.36044
6.36044
6.16314
6.16313
5.97153
5.97153
5.78555
5.78555
5.60512
5.60511
5.43013
5.43013
5.26051
5.26051
5.09616
5.09616
4.93699
4.93698
4.78288
4.78288
4.63374
4.63374
4.48947
4.48946
4.34996
4.34995
4.21512
4.21511
4.08487
4.08486
3.95911
3.95911
3.83779
3.83778
3.72083
3.72082
3.60817
3.60816
3.49974
3.49973
3.39549
3.39549
3.29537
3.29536
3.19931
3.1993
3.10726
3.10725
3.01915
3.01914
2.9349
2.9349
2.85445
2.85444
2.77769
2.77768
2.70452
2.70452
2.63484
2.63483
2.56852
2.56851
2.50543
2.50543
2.44547
2.44546
2.38851
2.3885
2.33444
2.33443
2.28314
2.28313
2.23449
2.23449
2.18837
2.18837
2.14464
2.14464
2.10315
2.10314
2.06374
2.06373
2.02623
2.02623
1.99044
1.99044
1.95619
1.95619
1.92328
1.92327
1.89154
1.89153
1.86083
1.86082
1.83104
1.83104
1.8021
1.8021
1.77396
1.77395
1.74655
1.74655
1.71982
1.71981
1.69367
1.69367
1.66799
1.66799
1.64266
1.64266
1.61757
1.61757
1.59265
1.59264
1.56782
1.56781
1.54304
1.54304
1.51831
1.51831
1.49363
1.49362
1.46903
1.46903
1.44461
1.44461
1.42044
1.42044
1.3966
1.3966
1.37316
1.37315
1.35009
1.35009
1.32735
1.32735
1.30484
1.30484
1.28237
1.28237
1.25976
1.25976
1.23677
1.23677
1.21319
1.21319
1.18892
1.18892
1.16398
1.16397
1.13849
1.13849
1.11271
1.1127
1.08692
1.08692
1.06142
1.06142
1.03643
1.03642
1.01205
1.01204
0.988292
0.988286
0.96513
0.965124
0.942574
0.942566
0.920711
0.920701
0.899694
0.899682
0.879695
0.879682
0.86087
0.860857
0.843335
0.843324
0.827153
0.827145
0.812351
0.812346
0.798934
0.798933
0.786898
0.786902
0.776235
0.776246
0.766927
0.766948
0.75894
0.758972
0.752205
0.752248
0.746608
0.746658
0.741985
0.742029
0.738162
0.738173
0.734908
0.734862
0.731905
0.731808
0.728776
0.728658
0.725243
0.725132
0.721083
0.720989
0.716038
0.715959
0.709793
0.709727
0.702059
0.702001
0.692685
0.692634
0.681733
0.681688
0.66944
0.669399
0.656163
0.656126
0.642393
0.642361
0.628732
0.628705
0.615718
0.615695
0.603661
0.603643
0.592632
0.592616
0.582625
0.582612
0.573643
0.573632
0.565697
0.565687
0.55879
0.558782
0.552931
0.552926
0.548125
0.548123
0.544322
0.544324
0.5414
0.541406
0.539171
0.539181
0.537427
0.537442
0.535918
0.535939
0.534275
0.5343
0.53201
0.532035
0.528692
0.528713
0.524133
0.524145
0.518477
0.518477
0.512113
0.5121
0.505443
0.505425
0.498765
0.498742
0.492294
0.492271
0.486297
0.486278
0.481042
0.48103
0.476695
0.476688
0.47331
0.473307
0.470915
0.470915
0.469625
0.469628
0.00370433
0.00370432
0.0847357
0.0847355
0.597668
0.597668
2.00269
2.00269
4.13311
4.13311
6.36446
6.36445
8.42791
8.42791
10.307
10.307
12.0359
12.0359
13.6476
13.6475
15.1662
15.1662
16.6094
16.6094
17.9898
17.9898
19.3166
19.3166
20.5966
20.5966
21.8348
21.8348
23.035
23.035
24.1999
24.1999
25.3315
25.3315
26.4312
26.4312
27.4999
27.4999
28.5379
28.5379
29.5455
29.5455
30.5222
30.5222
31.4677
31.4677
32.3812
32.3812
33.2618
33.2618
34.1083
34.1083
34.9195
34.9195
35.694
35.694
36.4302
36.4302
37.1265
37.1265
37.7812
37.7812
38.3927
38.3927
38.9591
38.9591
39.4789
39.4789
39.9502
39.9502
40.3715
40.3715
40.7414
40.7414
41.0584
41.0584
41.3214
41.3214
41.5293
41.5293
41.6816
41.6816
41.7776
41.7776
41.8173
41.8173
41.8008
41.8008
41.7287
41.7287
41.6019
41.6019
41.4217
41.4217
41.19
41.19
40.909
40.909
40.5814
40.5814
40.2104
40.2104
39.7995
39.7995
39.353
39.353
38.8752
38.8752
38.3711
38.3711
37.846
37.846
37.3054
37.3054
36.7553
36.7553
36.2017
36.2017
35.6506
35.6506
35.1085
35.1085
34.5813
34.5813
34.0751
34.0751
33.5956
33.5956
33.1481
33.1481
32.7374
32.7374
32.3678
32.3678
32.0429
32.0429
31.7654
31.7654
31.5374
31.5374
31.36
31.36
31.2334
31.2334
31.157
31.157
31.1292
31.1292
31.1475
31.1475
31.209
31.209
31.3099
31.3099
31.4459
31.4459
31.6123
31.6123
31.804
31.804
32.016
32.016
32.2428
32.2428
32.4792
32.4792
32.72
32.72
32.9601
32.9601
33.195
33.195
33.4201
33.4201
33.6315
33.6315
33.8255
33.8255
33.9989
33.9989
34.1491
34.1491
34.2736
34.2736
34.3707
34.3707
34.4388
34.4388
34.4769
34.4769
34.4842
34.4842
34.4605
34.4605
34.4057
34.4057
34.32
34.32
34.204
34.204
34.0583
34.0583
33.8839
33.8839
33.6818
33.6818
33.4532
33.4532
33.1992
33.1992
32.9214
32.9214
32.621
32.621
32.2996
32.2996
31.9585
31.9585
31.5993
31.5993
31.2233
31.2233
30.8319
30.8319
30.4266
30.4266
30.0087
30.0087
29.5795
29.5795
29.1402
29.1402
28.6921
28.6921
28.2362
28.2362
27.7738
27.7738
27.3057
27.3057
26.8329
26.8329
26.3564
26.3564
25.8771
25.8771
25.3956
25.3956
24.9128
24.9128
24.4294
24.4294
23.946
23.946
23.4632
23.4632
22.9816
22.9816
22.5016
22.5016
22.0238
22.0238
21.5487
21.5487
21.0765
21.0765
20.6078
20.6078
20.1429
20.1429
19.682
19.682
19.2256
19.2256
18.7738
18.7738
18.327
18.327
17.8854
17.8854
17.4491
17.4491
17.0184
17.0184
16.5935
16.5935
16.1744
16.1744
15.7615
15.7615
15.3548
15.3548
14.9545
14.9545
14.5606
14.5606
14.1733
14.1733
13.7927
13.7927
13.4189
13.4189
13.052
13.052
12.6921
12.6921
12.3392
12.3392
11.9934
11.9934
11.6548
11.6548
11.3234
11.3234
10.9993
10.9993
10.6825
10.6825
10.373
10.373
10.0707
10.0707
9.77577
9.77577
9.48803
9.48803
9.20746
9.20746
8.93397
8.93397
8.66746
8.66746
8.40782
8.40782
8.15493
8.15494
7.90867
7.90867
7.66891
7.66891
7.43552
7.43552
7.20839
7.2084
6.98742
6.98742
6.7725
6.7725
6.56353
6.56354
6.36044
6.36044
6.16313
6.16314
5.97153
5.97153
5.78555
5.78555
5.60511
5.60511
5.43013
5.43013
5.26051
5.26051
5.09616
5.09616
4.93698
4.93699
4.78287
4.78288
4.63374
4.63374
4.48946
4.48947
4.34995
4.34996
4.21511
4.21512
4.08486
4.08486
3.95911
3.95911
3.83778
3.83779
3.72082
3.72083
3.60816
3.60817
3.49973
3.49974
3.39549
3.39549
3.29536
3.29537
3.1993
3.19931
3.10725
3.10726
3.01914
3.01914
2.9349
2.9349
2.85444
2.85445
2.77768
2.77769
2.70452
2.70452
2.63483
2.63484
2.56851
2.56852
2.50543
2.50543
2.44546
2.44547
2.3885
2.38851
2.33443
2.33444
2.28313
2.28314
2.23449
2.23449
2.18837
2.18837
2.14464
2.14464
2.10315
2.10315
2.06374
2.06374
2.02623
2.02623
1.99045
1.99045
1.95619
1.95619
1.92328
1.92328
1.89154
1.89154
1.86083
1.86083
1.83104
1.83105
1.80211
1.80211
1.77396
1.77396
1.74656
1.74656
1.71982
1.71983
1.69367
1.69368
1.668
1.668
1.64267
1.64267
1.61758
1.61758
1.59265
1.59266
1.56782
1.56783
1.54305
1.54306
1.51832
1.51832
1.49364
1.49364
1.46904
1.46905
1.44462
1.44462
1.42045
1.42045
1.39662
1.39662
1.37317
1.37317
1.35011
1.35011
1.32737
1.32737
1.30485
1.30485
1.28239
1.28239
1.25978
1.25978
1.23678
1.23678
1.21321
1.21321
1.18894
1.18894
1.16399
1.16399
1.1385
1.1385
1.11271
1.11272
1.08692
1.08693
1.06142
1.06143
1.03643
1.03643
1.01205
1.01205
0.988288
0.988293
0.965125
0.965131
0.942566
0.942575
0.920701
0.920711
0.899681
0.899694
0.879682
0.879695
0.860858
0.860871
0.843326
0.843337
0.827148
0.827156
0.81235
0.812356
0.798939
0.79894
0.78691
0.786906
0.776256
0.776245
0.76696
0.76694
0.758987
0.758956
0.752267
0.752224
0.74668
0.74663
0.742054
0.742011
0.738201
0.73819
0.734893
0.734939
0.731841
0.731938
0.728692
0.728809
0.725164
0.725275
0.721018
0.721112
0.715985
0.716063
0.709747
0.709812
0.702014
0.702071
0.692639
0.692689
0.681685
0.68173
0.66939
0.669431
0.656113
0.656149
0.642346
0.642378
0.628691
0.628718
0.615684
0.615706
0.603636
0.603654
0.592612
0.592628
0.582611
0.582624
0.573634
0.573645
0.565692
0.565701
0.55879
0.558797
0.552938
0.552942
0.54814
0.548142
0.544346
0.544344
0.541433
0.541428
0.539214
0.539204
0.537478
0.537462
0.535976
0.535955
0.534335
0.53431
0.532065
0.532039
0.528734
0.528713
0.524156
0.524145
0.518478
0.518479
0.512092
0.512105
0.505411
0.50543
0.498724
0.498748
0.492252
0.492275
0.48626
0.486278
0.481013
0.481025
0.476674
0.476681
0.473294
0.473297
0.470906
0.470906
0.469623
0.46962
0.469613
0.469616
0.470881
0.47088
0.473248
0.473245
0.476597
0.47659
0.48091
0.480898
0.486125
0.486107
0.492076
0.492054
0.498506
0.498483
0.505118
0.5051
0.511693
0.511681
0.517968
0.517968
0.523557
0.523568
0.528069
0.528089
0.531372
0.531397
0.53367
0.533695
0.535379
0.535399
0.536955
0.53697
0.538759
0.538769
0.541038
0.541043
0.544007
0.544009
0.547863
0.54786
0.552723
0.552718
0.558638
0.55863
0.565599
0.56559
0.5736
0.573589
0.582635
0.582622
0.592695
0.592679
0.603776
0.603758
0.615883
0.61586
0.628941
0.628913
0.642651
0.642619
0.656468
0.656432
0.669769
0.669728
0.682052
0.682007
0.692961
0.69291
0.702259
0.702202
0.709918
0.709852
0.71611
0.716031
0.721119
0.721023
0.725255
0.725143
0.728767
0.728649
0.731873
0.731777
0.734858
0.734813
0.738091
0.738104
0.741893
0.741938
0.746495
0.746545
0.752072
0.752115
0.75879
0.758821
0.766764
0.766784
0.776061
0.776072
0.786715
0.786719
0.798742
0.798741
0.81215
0.812145
0.826943
0.826935
0.843117
0.843106
0.860647
0.860634
0.879465
0.879452
0.899457
0.899444
0.920469
0.920458
0.942337
0.942328
0.964903
0.964897
0.988067
0.988061
1.01182
1.01181
1.03618
1.03618
1.06115
1.06114
1.08661
1.08661
1.11238
1.11237
1.13815
1.13815
1.16363
1.16363
1.18855
1.18855
1.21279
1.21279
1.23634
1.23634
1.25933
1.25933
1.28195
1.28195
1.30445
1.30445
1.32703
1.32703
1.34983
1.34983
1.37295
1.37295
1.39644
1.39643
1.42028
1.42028
1.44444
1.44444
1.46885
1.46884
1.49341
1.49341
1.51808
1.51808
1.5428
1.5428
1.56756
1.56755
1.59238
1.59238
1.61731
1.61731
1.64241
1.6424
1.66774
1.66774
1.69344
1.69344
1.71963
1.71962
1.7464
1.7464
1.77386
1.77386
1.80207
1.80206
1.83105
1.83105
1.86086
1.86086
1.8916
1.89159
1.92335
1.92335
1.95628
1.95627
1.99055
1.99054
2.02635
2.02634
2.06387
2.06386
2.10329
2.10328
2.14477
2.14477
2.18849
2.18848
2.23458
2.23458
2.28321
2.2832
2.33448
2.33448
2.38854
2.38853
2.44548
2.44548
2.50544
2.50544
2.56853
2.56852
2.63486
2.63485
2.70455
2.70454
2.77772
2.77771
2.85449
2.85448
2.93496
2.93495
3.01921
3.01921
3.10733
3.10733
3.19939
3.19939
3.29545
3.29545
3.39558
3.39557
3.49983
3.49983
3.60827
3.60826
3.72094
3.72093
3.8379
3.83789
3.95922
3.95922
4.08498
4.08497
4.21524
4.21523
4.35009
4.35008
4.48961
4.4896
4.63388
4.63387
4.78301
4.78301
4.93712
4.93711
5.09629
5.09628
5.26063
5.26063
5.43025
5.43024
5.60524
5.60523
5.78568
5.78567
5.97166
5.97165
6.16326
6.16326
6.36058
6.36057
6.56368
6.56367
6.77265
6.77265
6.98759
6.98758
7.20856
7.20856
7.43569
7.43568
7.66908
7.66907
7.90885
7.90884
8.15512
8.15512
8.40803
8.40802
8.66768
8.66768
8.93421
8.93421
9.20772
9.20771
9.4883
9.4883
9.77605
9.77604
10.071
10.071
10.3733
10.3732
10.6828
10.6828
10.9996
10.9996
11.3237
11.3237
11.6551
11.6551
11.9937
11.9937
12.3395
12.3395
12.6924
12.6924
13.0524
13.0524
13.4193
13.4193
13.7931
13.7931
14.1737
14.1737
14.561
14.561
14.9549
14.9549
15.3553
15.3553
15.762
15.762
16.175
16.175
16.594
16.594
17.019
17.019
17.4498
17.4498
17.8861
17.8861
18.3278
18.3278
18.7747
18.7747
19.2265
19.2265
19.683
19.683
20.144
20.144
20.609
20.609
21.0777
21.0777
21.5499
21.5499
22.0251
22.0251
22.5029
22.5029
22.9829
22.9829
23.4646
23.4646
23.9475
23.9475
24.4309
24.4309
24.9144
24.9144
25.3972
25.3972
25.8787
25.8787
26.3581
26.3581
26.8345
26.8345
27.3072
27.3072
27.7753
27.7753
28.2378
28.2378
28.6935
28.6935
29.1416
29.1416
29.5807
29.5807
30.0097
30.0097
30.4275
30.4275
30.8326
30.8326
31.2239
31.2239
31.5999
31.5999
31.9592
31.9592
32.3002
32.3002
32.6217
32.6217
32.9221
32.9221
33.2
33.2
33.4539
33.4539
33.6826
33.6826
33.8847
33.8847
34.059
34.059
34.2047
34.2047
34.3208
34.3208
34.4065
34.4065
34.4614
34.4614
34.4853
34.4853
34.4781
34.4781
34.4402
34.4402
34.3722
34.3722
34.275
34.275
34.1502
34.1502
33.9996
33.9996
33.8254
33.8254
33.6307
33.6307
33.4188
33.4188
33.1934
33.1934
32.9584
32.9584
32.7179
32.7179
32.4769
32.4769
32.2402
32.2402
32.0129
32.0129
31.8005
31.8005
31.6082
31.6082
31.4413
31.4413
31.3049
31.3049
31.2037
31.2037
31.1418
31.1418
31.1231
31.1231
31.1506
31.1506
31.2267
31.2267
31.3529
31.3529
31.5299
31.5299
31.7575
31.7575
32.0346
32.0346
32.3592
32.3592
32.7285
32.7285
33.1389
33.1389
33.5862
33.5862
34.0655
34.0655
34.5715
34.5715
35.0986
35.0985
35.6405
35.6405
36.1912
36.1912
36.7446
36.7446
37.2947
37.2947
37.8353
37.8353
38.3606
38.3606
38.8649
38.8649
39.343
39.343
39.79
39.79
40.2014
40.2014
40.5731
40.5731
40.9012
40.9012
41.1825
41.1825
41.4146
41.4146
41.5955
41.5955
41.723
41.723
41.7956
41.7956
41.8127
41.8127
41.7736
41.7736
41.6781
41.6781
41.5263
41.5263
41.3188
41.3188
41.0563
41.0563
40.7397
40.7397
40.3701
40.3701
39.949
39.949
39.4779
39.4779
38.9583
38.9583
38.392
38.392
37.7807
37.7807
37.126
37.126
36.4297
36.4297
35.6936
35.6936
34.9193
34.9193
34.1082
34.1082
33.2619
33.2619
32.3814
32.3814
31.4681
31.468
30.5226
30.5226
29.5459
29.5459
28.5384
28.5384
27.5003
27.5003
26.4316
26.4316
25.3319
25.3319
24.2002
24.2002
23.0353
23.0353
21.8351
21.8351
20.5968
20.5968
19.3169
19.3169
17.99
17.99
16.6096
16.6096
15.1664
15.1664
13.6477
13.6477
12.0361
12.0361
10.3071
10.3071
8.42801
8.42801
6.36452
6.36453
4.13316
4.13316
2.00271
2.00271
0.597676
0.597676
0.0847364
0.0847365
0.00370446
0.00370447
0.469614
0.469612
0.470882
0.470882
0.473248
0.473251
0.476595
0.476601
0.480902
0.480915
0.486111
0.48613
0.492058
0.492081
0.498488
0.498511
0.505104
0.505122
0.511683
0.511695
0.517968
0.517968
0.523566
0.523555
0.528084
0.528063
0.531389
0.531364
0.533685
0.53366
0.535389
0.535368
0.536959
0.536944
0.538758
0.538748
0.541034
0.541028
0.544001
0.544
0.547855
0.547857
0.552714
0.55272
0.558628
0.558635
0.565589
0.565598
0.573589
0.5736
0.582624
0.582637
0.592683
0.592698
0.603763
0.603781
0.615867
0.61589
0.628922
0.628949
0.642629
0.642661
0.656441
0.656478
0.669737
0.669778
0.682014
0.682059
0.692914
0.692964
0.702202
0.702259
0.709848
0.709915
0.716024
0.716103
0.721014
0.721109
0.725132
0.725243
0.728636
0.728754
0.731764
0.73186
0.7348
0.734844
0.738091
0.738078
0.741926
0.741881
0.746535
0.746484
0.752106
0.752063
0.758814
0.758783
0.766779
0.766759
0.776068
0.776057
0.786716
0.786712
0.798739
0.798741
0.812144
0.81215
0.826935
0.826944
0.843108
0.843119
0.860637
0.860649
0.879456
0.879469
0.899449
0.899461
0.920463
0.920474
0.942334
0.942343
0.964903
0.964909
0.988068
0.988073
1.01182
1.01182
1.03618
1.03619
1.06115
1.06115
1.08661
1.08662
1.11238
1.11238
1.13815
1.13816
1.16363
1.16363
1.18856
1.18856
1.21279
1.21279
1.23634
1.23634
1.25933
1.25932
1.28195
1.28195
1.30445
1.30445
1.32702
1.32702
1.34982
1.34982
1.37294
1.37294
1.39643
1.39643
1.42027
1.42027
1.44443
1.44443
1.46883
1.46883
1.4934
1.4934
1.51807
1.51807
1.54278
1.54279
1.56754
1.56754
1.59236
1.59237
1.6173
1.6173
1.64239
1.64239
1.66772
1.66773
1.69342
1.69343
1.71961
1.71961
1.74638
1.74638
1.77384
1.77384
1.80204
1.80205
1.83103
1.83103
1.86084
1.86085
1.89158
1.89158
1.92333
1.92333
1.95625
1.95626
1.99052
1.99053
2.02633
2.02633
2.06385
2.06385
2.10326
2.10327
2.14475
2.14476
2.18846
2.18847
2.23456
2.23457
2.28319
2.28319
2.33446
2.33447
2.38852
2.38852
2.44547
2.44547
2.50543
2.50543
2.56851
2.56852
2.63484
2.63484
2.70453
2.70454
2.7777
2.77771
2.85447
2.85448
2.93494
2.93495
3.0192
3.0192
3.10732
3.10732
3.19938
3.19938
3.29544
3.29545
3.39557
3.39557
3.49982
3.49982
3.60825
3.60826
3.72092
3.72093
3.83788
3.83789
3.95921
3.95921
4.08496
4.08497
4.21523
4.21523
4.35008
4.35008
4.48959
4.4896
4.63387
4.63387
4.783
4.78301
4.9371
4.93711
5.09628
5.09628
5.26062
5.26063
5.43024
5.43024
5.60522
5.60523
5.78566
5.78567
5.97165
5.97165
6.16325
6.16326
6.36056
6.36057
6.56367
6.56367
6.77264
6.77265
6.98758
6.98758
7.20855
7.20856
7.43568
7.43568
7.66906
7.66907
7.90884
7.90884
8.15511
8.15512
8.40802
8.40802
8.66767
8.66768
8.9342
8.93421
9.20771
9.20771
9.48829
9.48829
9.77604
9.77604
10.071
10.071
10.3732
10.3732
10.6828
10.6828
10.9996
10.9996
11.3237
11.3237
11.6551
11.6551
11.9937
11.9937
12.3395
12.3395
12.6924
12.6924
13.0524
13.0524
13.4193
13.4193
13.7931
13.7931
14.1737
14.1737
14.561
14.561
14.9549
14.9549
15.3553
15.3553
15.762
15.762
16.175
16.175
16.594
16.594
17.019
17.019
17.4497
17.4497
17.8861
17.8861
18.3278
18.3278
18.7747
18.7747
19.2265
19.2265
19.683
19.683
20.1439
20.1439
20.609
20.609
21.0777
21.0777
21.5499
21.5499
22.0251
22.0251
22.5029
22.5029
22.9829
22.9829
23.4646
23.4646
23.9474
23.9474
24.4309
24.4309
24.9144
24.9144
25.3972
25.3972
25.8787
25.8787
26.3581
26.3581
26.8345
26.8345
27.3072
27.3072
27.7753
27.7753
28.2378
28.2378
28.6935
28.6935
29.1416
29.1416
29.5807
29.5807
30.0097
30.0097
30.4275
30.4275
30.8326
30.8326
31.2239
31.2239
31.5999
31.5999
31.9592
31.9592
32.3002
32.3002
32.6217
32.6217
32.9221
32.9221
33.1999
33.1999
33.4539
33.4539
33.6826
33.6826
33.8847
33.8847
34.059
34.059
34.2047
34.2047
34.3208
34.3208
34.4065
34.4065
34.4614
34.4614
34.4853
34.4853
34.4781
34.4781
34.4402
34.4402
34.3721
34.3721
34.275
34.275
34.1502
34.1502
33.9996
33.9996
33.8254
33.8254
33.6307
33.6307
33.4188
33.4188
33.1934
33.1934
32.9583
32.9583
32.7179
32.7179
32.4769
32.4769
32.2402
32.2402
32.0129
32.0129
31.8005
31.8005
31.6082
31.6082
31.4413
31.4413
31.3049
31.3049
31.2037
31.2037
31.1418
31.1418
31.1231
31.1231
31.1506
31.1506
31.2267
31.2267
31.3528
31.3528
31.5299
31.5299
31.7575
31.7575
32.0346
32.0346
32.3592
32.3592
32.7285
32.7285
33.1389
33.1389
33.5862
33.5862
34.0655
34.0655
34.5715
34.5715
35.0986
35.0986
35.6405
35.6405
36.1912
36.1913
36.7447
36.7447
37.2947
37.2947
37.8354
37.8354
38.3606
38.3606
38.8649
38.8649
39.343
39.343
39.79
39.79
40.2014
40.2014
40.5732
40.5732
40.9012
40.9012
41.1825
41.1825
41.4146
41.4146
41.5955
41.5955
41.723
41.723
41.7956
41.7957
41.8127
41.8127
41.7736
41.7736
41.6781
41.6781
41.5263
41.5264
41.3188
41.3188
41.0563
41.0563
40.7397
40.7397
40.3701
40.3701
39.949
39.949
39.4779
39.4779
38.9583
38.9583
38.392
38.392
37.7807
37.7807
37.126
37.126
36.4297
36.4297
35.6936
35.6936
34.9193
34.9193
34.1082
34.1082
33.2619
33.2619
32.3814
32.3814
31.468
31.468
30.5226
30.5226
29.5459
29.5459
28.5384
28.5384
27.5003
27.5003
26.4316
26.4316
25.3319
25.3319
24.2002
24.2002
23.0353
23.0353
21.8351
21.8351
20.5968
20.5968
19.3168
19.3168
17.99
17.99
16.6096
16.6096
15.1664
15.1664
13.6477
13.6477
12.0361
12.0361
10.3071
10.3071
8.42801
8.428
6.36453
6.36452
4.13316
4.13315
2.00271
2.00271
0.597676
0.597675
0.0847364
0.0847363
0.00370447
0.00370446
)
;

boundaryField
{
    walls
    {
        type            kqRWallFunction;
        value           nonuniform List<scalar> 8(0.00370432 0.00370433 0.00370433 0.00370432 0.00370446 0.00370447 0.00370447 0.00370446);
    }
    inlet
    {
        type            cyclic;
    }
    outlet
    {
        type            cyclic;
    }
    sides
    {
        type            empty;
    }
}


// ************************************************************************* //
